/*--------------------------------*- C++ -*----------------------------------*\
  =========                 |
  \\      /  F ield         | OpenFOAM: The Open Source CFD Toolbox
   \\    /   O peration     | Website:  https://openfoam.org
    \\  /    A nd           | Version:  7
     \\/     M anipulation  |
\*---------------------------------------------------------------------------*/
FoamFile
{
    version     2.0;
    format      ascii;
    class       volScalarField;
    location    "350";
    object      p;
}
// * * * * * * * * * * * * * * * * * * * * * * * * * * * * * * * * * * * * * //

dimensions      [0 2 -2 0 0 0 0];

internalField   nonuniform List<scalar> 
2125
(
-0.388088
-0.426886
-0.395484
-0.462915
-0.432432
-0.40274
-0.510657
-0.490123
-0.4657
-0.437709
-0.40994
-0.51966
-0.506065
-0.488907
-0.467998
-0.442746
-0.417173
-0.522726
-0.512639
-0.501223
-0.487159
-0.46982
-0.447557
-0.424519
-0.523497
-0.514949
-0.50591
-0.49628
-0.48497
-0.471185
-0.452134
-0.432089
-0.515802
-0.507783
-0.499555
-0.491379
-0.48246
-0.472115
-0.456472
-0.439939
-0.515388
-0.508866
-0.501268
-0.493654
-0.486652
-0.47977
-0.472667
-0.460524
-0.448276
-0.513409
-0.508802
-0.502704
-0.495445
-0.488297
-0.482232
-0.477064
-0.472913
-0.464328
-0.456951
-0.507082
-0.503068
-0.497331
-0.490362
-0.483584
-0.478264
-0.474517
-0.472973
-0.467843
-0.466238
-0.501781
-0.498181
-0.492755
-0.48606
-0.479613
-0.4749
-0.472321
-0.473004
-0.471055
-0.474899
-0.497466
-0.494118
-0.488968
-0.482561
-0.476461
-0.472284
-0.470716
-0.473025
-0.475127
-0.475931
-0.494062
-0.490822
-0.485928
-0.479855
-0.474164
-0.470523
-0.469915
-0.473194
-0.479912
-0.479154
-0.491464
-0.488201
-0.483564
-0.477888
-0.472704
-0.469667
-0.470033
-0.473887
-0.484799
-0.483973
-0.489527
-0.48614
-0.481772
-0.476567
-0.472003
-0.469688
-0.471062
-0.475429
-0.489561
-0.488976
-0.488077
-0.484507
-0.480424
-0.475763
-0.471934
-0.470469
-0.472879
-0.477933
-0.49416
-0.494314
-0.486928
-0.483158
-0.479383
-0.475326
-0.472328
-0.47183
-0.475285
-0.481284
-0.498598
-0.500447
-0.485896
-0.481949
-0.478504
-0.475097
-0.472995
-0.473538
-0.478039
-0.485209
-0.502891
-0.507275
-0.484803
-0.480738
-0.477647
-0.474914
-0.473735
-0.475345
-0.480865
-0.489286
-0.507011
-0.514437
-0.48349
-0.479392
-0.476674
-0.474617
-0.474349
-0.476995
-0.483483
-0.493132
-0.510812
-0.521285
-0.481813
-0.477788
-0.475457
-0.474057
-0.474648
-0.47825
-0.485615
-0.496372
-0.514027
-0.52726
-0.479655
-0.475816
-0.473877
-0.473093
-0.47446
-0.478894
-0.487009
-0.498684
-0.516347
-0.531912
-0.47692
-0.47338
-0.471831
-0.471602
-0.473634
-0.478747
-0.487452
-0.499814
-0.517474
-0.534886
-0.473538
-0.470405
-0.469232
-0.469485
-0.472052
-0.477671
-0.486779
-0.499569
-0.517152
-0.535881
-0.469471
-0.466837
-0.466019
-0.466669
-0.469632
-0.475571
-0.484877
-0.497823
-0.515188
-0.534689
-0.464709
-0.462649
-0.462157
-0.463114
-0.466329
-0.472401
-0.481687
-0.494509
-0.511454
-0.531162
-0.459272
-0.457843
-0.45764
-0.458816
-0.462142
-0.468164
-0.477208
-0.489622
-0.505906
-0.525196
-0.453212
-0.452451
-0.452496
-0.453806
-0.457112
-0.462909
-0.471494
-0.48322
-0.498576
-0.516766
-0.446608
-0.446539
-0.446775
-0.448149
-0.451322
-0.456732
-0.464651
-0.475402
-0.489322
-0.506242
-0.439563
-0.440164
-0.440592
-0.441949
-0.444884
-0.449771
-0.456837
-0.466358
-0.478561
-0.493571
-0.432204
-0.433457
-0.434038
-0.435329
-0.437946
-0.442196
-0.448253
-0.456323
-0.466519
-0.479057
-0.0310282
-0.0316318
-0.0322025
-0.0327399
-0.0332439
-0.0337145
-0.0341514
-0.0345546
-0.0349241
-0.03526
-0.0355628
-0.0319615
-0.0325848
-0.0331742
-0.0337295
-0.0342505
-0.0347373
-0.0351897
-0.0356078
-0.0359918
-0.0363425
-0.036662
-0.0337046
-0.0343621
-0.034985
-0.0355732
-0.0361266
-0.0366452
-0.037129
-0.0375783
-0.0379934
-0.0383763
-0.0387322
-0.0361914
-0.0369001
-0.0375736
-0.0382116
-0.0388142
-0.0393813
-0.039913
-0.0404096
-0.0408717
-0.0413027
-0.0417123
-0.0393922
-0.0401685
-0.0409088
-0.0416131
-0.0422814
-0.0429138
-0.0435103
-0.0440716
-0.0445985
-0.0450967
-0.0455818
-0.0432786
-0.0441395
-0.0449639
-0.0457518
-0.0465032
-0.0472184
-0.0478975
-0.0485414
-0.0491514
-0.0497358
-0.0503181
-0.0478427
-0.0488061
-0.0497326
-0.0506222
-0.0514752
-0.0522916
-0.0530719
-0.0538172
-0.0545296
-0.0552207
-0.0559235
-0.0530818
-0.0541669
-0.0552149
-0.0562259
-0.0572
-0.0581378
-0.0590397
-0.0599072
-0.0607431
-0.0615632
-0.0624124
-0.0590022
-0.0602297
-0.06142
-0.0625734
-0.0636903
-0.0647714
-0.0658173
-0.0668302
-0.0678138
-0.0687892
-0.0698152
-0.0656156
-0.0670075
-0.0683625
-0.0696811
-0.0709639
-0.0722118
-0.0734257
-0.0746086
-0.0757654
-0.0769233
-0.0781601
-0.0729378
-0.0745181
-0.0760621
-0.0775706
-0.0790447
-0.0804856
-0.0818946
-0.0832755
-0.0846352
-0.0860085
-0.087494
-0.0791577
-0.0809881
-0.0827822
-0.0845412
-0.0862663
-0.0879589
-0.0896207
-0.0912536
-0.0928625
-0.0944564
-0.096079
-0.0978538
-0.0877175
-0.0897877
-0.0918229
-0.0938246
-0.0957948
-0.097735
-0.0996479
-0.101536
-0.103405
-0.105268
-0.107177
-0.109288
-0.0970216
-0.0993597
-0.101665
-0.103938
-0.106184
-0.108403
-0.110599
-0.112775
-0.11494
-0.117108
-0.119347
-0.121842
-0.107093
-0.109728
-0.112332
-0.114909
-0.117461
-0.119991
-0.122504
-0.125004
-0.127502
-0.130016
-0.132628
-0.135563
-0.117953
-0.120916
-0.12385
-0.126761
-0.129652
-0.132527
-0.135392
-0.138253
-0.141124
-0.144025
-0.147058
-0.15049
-0.129627
-0.132946
-0.136242
-0.139519
-0.142782
-0.146037
-0.14929
-0.152549
-0.155831
-0.159163
-0.162668
-0.166658
-0.142135
-0.145841
-0.149528
-0.153201
-0.156869
-0.160537
-0.164216
-0.167912
-0.171648
-0.175453
-0.179479
-0.184088
-0.155496
-0.159618
-0.163725
-0.167824
-0.171926
-0.176038
-0.180174
-0.184344
-0.188577
-0.192904
-0.197506
-0.202795
-0.169729
-0.174291
-0.178845
-0.183401
-0.187968
-0.192556
-0.197179
-0.20185
-0.206608
-0.211493
-0.216724
-0.22276
-0.184847
-0.18987
-0.194889
-0.19992
-0.204976
-0.210072
-0.215222
-0.220438
-0.225758
-0.231231
-0.23712
-0.243954
-0.200864
-0.206363
-0.211863
-0.217381
-0.222929
-0.228538
-0.234221
-0.24002
-0.245954
-0.252093
-0.258692
-0.26638
-0.217777
-0.223764
-0.229757
-0.235784
-0.241845
-0.247981
-0.25418
-0.260534
-0.267045
-0.27389
-0.281264
-0.289939
-0.235584
-0.242046
-0.248521
-0.255055
-0.261644
-0.268362
-0.275141
-0.282122
-0.289178
-0.296684
-0.304712
-0.314477
-0.254289
-0.261207
-0.268131
-0.275123
-0.282173
-0.289421
-0.296767
-0.3045
-0.312265
-0.320682
-0.329317
-0.340226
-0.273847
-0.281196
-0.288552
-0.29598
-0.303442
-0.311107
-0.318815
-0.327075
-0.335367
-0.34491
-0.354407
-0.366983
-0.294169
-0.30187
-0.309598
-0.317431
-0.325339
-0.333492
-0.341638
-0.350338
-0.358777
-0.368925
-0.378717
-0.393439
-0.31532
-0.323237
-0.331185
-0.339262
-0.347502
-0.356106
-0.364912
-0.374478
-0.383766
-0.394879
-0.404477
-0.420876
-0.337523
-0.345541
-0.353555
-0.361659
-0.369939
-0.378576
-0.38761
-0.397581
-0.407966
-0.420808
-0.432251
-0.451282
-0.360218
-0.36817
-0.376053
-0.383948
-0.391943
-0.400145
-0.408659
-0.417741
-0.427432
-0.439084
-0.451458
-0.472208
-0.0362427
-0.0367625
-0.0366624
-0.0358492
-0.0342964
-0.031951
-0.0288759
-0.0250696
-0.0206788
-0.0157721
-0.0105926
-0.00534542
-0.0002436
0.00456781
0.00897346
0.0130032
0.0168839
0.0208206
0.0250648
0.0295738
0.0342787
0.0389835
0.0428828
0.0452447
0.0436688
0.0368136
0.0280978
0.0192681
0.0125238
0.00456445
-0.037393
-0.0379167
-0.0377594
-0.0368516
-0.0351808
-0.0326961
-0.0294635
-0.0254808
-0.0209065
-0.015822
-0.0105064
-0.0051007
7.93068e-05
0.00489551
0.00923362
0.0131383
0.0168869
0.0207182
0.0249051
0.029446
0.0342039
0.0391717
0.043328
0.0457739
0.0441231
0.0369068
0.0279267
0.0190069
0.0125244
0.00455331
-0.039568
-0.0401059
-0.0398375
-0.0387504
-0.0368549
-0.034104
-0.0305682
-0.0262464
-0.0213139
-0.0158762
-0.0102379
-0.00459496
0.000722576
0.00553625
0.00973628
0.0133853
0.0168741
0.0204951
0.0245732
0.0291655
0.0340173
0.039496
0.0441274
0.0467355
0.0449706
0.037016
0.0275307
0.0185052
0.0124697
0.00450045
-0.042698
-0.0432151
-0.0428233
-0.0414803
-0.0392568
-0.0361166
-0.0321359
-0.0273156
-0.0218558
-0.0158998
-0.00979643
-0.00380389
0.00170565
0.00650146
0.0104733
0.0137188
0.0168081
0.0201108
0.0240307
0.0286819
0.03365
0.039894
0.0451691
0.0480026
0.0461222
0.0370046
0.026801
0.0177608
0.0122774
0.00436753
-0.0467796
-0.0473232
-0.0467069
-0.0450082
-0.0423469
-0.0386929
-0.0341235
-0.0286438
-0.0224847
-0.0158447
-0.00912922
-0.00268088
0.0030696
0.00781918
0.0114449
0.0141084
0.0166391
0.0195098
0.0232243
0.0279257
0.0330156
0.040275
0.046295
0.0494233
0.0474326
0.0366834
0.0256139
0.016755
0.0118309
0.0041121
-0.051787
-0.052344
-0.0514547
-0.0493093
-0.0461008
-0.041805
-0.0364982
-0.0301921
-0.0231551
-0.0156598
-0.00818014
-0.00116969
0.00486807
0.00953021
0.0126697
0.0145153
0.0163039
0.0186253
0.0220918
0.0268159
0.0320164
0.0405001
0.0472929
0.0508123
0.0486464
0.0358074
0.0238473
0.0154448
0.0109847
0.00370649
-0.0577272
-0.0582918
-0.0570659
-0.0543772
-0.0505072
-0.0454367
-0.0392358
-0.0319273
-0.0238238
-0.0152933
-0.00688965
0.00079292
0.00716563
0.0116803
0.014111
0.0148829
0.0157244
0.0173811
0.0205677
0.0252666
0.0305561
0.040379
0.0478582
0.051896
0.0493385
0.0341046
0.0213936
0.013767
0.00958267
0.0031383
-0.0646203
-0.0651895
-0.063555
-0.060219
-0.0555667
-0.0495814
-0.0423202
-0.0338224
-0.0244522
-0.0146968
-0.00520012
0.0032714
0.0100337
0.0143242
0.0157816
0.0151546
0.0148089
0.0156921
0.0185895
0.0231951
0.0285511
0.0396801
0.047583
0.0522031
0.0488742
0.0313727
0.0182035
0.0116633
0.00748189
0.00240072
-0.0725052
-0.0730754
-0.0709486
-0.0668518
-0.0612898
-0.0542416
-0.045743
-0.0358572
-0.0250093
-0.0138284
-0.00306008
0.00632812
0.0135469
0.0175146
0.0176629
0.0154224
0.0134417
0.0134629
0.0161015
0.0205301
0.0259405
0.0381742
0.0459709
0.0509354
0.0464148
0.027621
0.0143891
0.00912553
0.00459318
0.00148727
-0.0814282
-0.0819956
-0.0792809
-0.0742994
-0.0676941
-0.0594278
-0.0495046
-0.0380194
-0.025472
-0.0126567
-0.000432554
0.0100173
0.017779
0.0213
0.0196691
0.0151143
0.0114518
0.0105875
0.0130561
0.0172212
0.0226996
0.0356922
0.042541
0.047003
0.0411231
0.0230011
0.0102426
0.00622476
0.000924026
0.000395851
-0.0914379
-0.0919874
-0.088586
-0.0825933
-0.074806
-0.0651584
-0.0536125
-0.0403049
-0.0258287
-0.0111649
0.00270217
0.0143809
0.0227997
0.0257187
0.0217232
0.01433
0.00869471
0.00695707
0.00940892
0.0132487
0.0188532
0.0321792
0.0370705
0.0396849
0.0327384
0.0176421
0.00614345
0.00308463
-0.00341319
-0.000859926
-0.102578
-0.103098
-0.0989029
-0.0917692
-0.0826583
-0.07146
-0.0580812
-0.0427182
-0.0260805
-0.00935593
0.00633977
0.0194435
0.0286661
0.0307869
0.0236988
0.0128542
0.00498409
0.00245851
0.00511074
0.00863225
0.014472
0.0276903
0.029748
0.0295423
0.0219947
0.0116195
0.00234626
-0.000187489
-0.00823721
-0.00224029
-0.114912
-0.115383
-0.110276
-0.101869
-0.0912919
-0.0783663
-0.0629335
-0.045274
-0.0262397
-0.00725426
0.0104436
0.0252028
0.0354126
0.0364813
0.0254004
0.0104203
0.000100081
-0.00302013
0.0001076
0.00342825
0.00963931
0.0223129
0.0211431
0.0150152
0.0102871
0.00513988
-0.00105321
-0.00352536
-0.0133401
-0.00368261
-0.128497
-0.128897
-0.122754
-0.112942
-0.100755
-0.0859188
-0.0681979
-0.0479952
-0.0263342
-0.00491116
0.0149448
0.0316212
0.0430352
0.0427087
0.0265468
0.00670539
-0.00620157
-0.00958668
-0.00565159
-0.00227549
0.00443559
0.0162604
0.0122837
0.00360021
-0.000907617
-0.00143176
-0.00404223
-0.00689028
-0.0185132
-0.00511473
-0.14339
-0.14369
-0.136382
-0.12504
-0.111105
-0.0941664
-0.0739078
-0.0509116
-0.0264048
-0.00240338
0.0197358
0.0386104
0.0514728
0.0492652
0.0267595
0.00131741
-0.0141925
-0.0173441
-0.0122039
-0.00836715
-0.00103088
0.00982737
0.00382568
-0.00684002
-0.010898
-0.00774468
-0.00666767
-0.0102599
-0.023557
-0.00647723
-0.15964
-0.159809
-0.15121
-0.138225
-0.122409
-0.103164
-0.0801011
-0.0540594
-0.0265019
0.000173365
0.0246658
0.0460132
0.0605894
0.0557859
0.0255478
-0.00620432
-0.0241585
-0.0263864
-0.0195628
-0.0147343
-0.00663271
0.003288
-0.00383966
-0.0158681
-0.0194456
-0.013564
-0.00902871
-0.013628
-0.0282855
-0.00773047
-0.17729
-0.177289
-0.167286
-0.152563
-0.134743
-0.112971
-0.0868187
-0.0574782
-0.026686
0.00271096
0.0295679
0.0535985
0.0701471
0.061709
0.0223348
-0.0163558
-0.0363781
-0.0367915
-0.0277163
-0.0212764
-0.0122538
-0.00314652
-0.0105351
-0.0233393
-0.0265703
-0.018779
-0.0112398
-0.0169956
-0.0325413
-0.0088534
-0.196369
-0.19616
-0.184657
-0.168134
-0.148196
-0.123651
-0.0941035
-0.0612096
-0.0270257
0.00509725
0.034267
0.0610653
0.0798017
0.0663289
0.0165951
-0.0295492
-0.0510713
-0.0486086
-0.0366282
-0.0279029
-0.0178042
-0.00932894
-0.0162217
-0.0293332
-0.0324119
-0.0233822
-0.013393
-0.0203506
-0.0362099
-0.00984051
-0.21689
-0.216437
-0.203376
-0.18503
-0.16287
-0.135273
-0.101999
-0.0652953
-0.0275922
0.00721506
0.0385553
0.0680732
0.0891143
0.0690718
0.00820642
-0.0458017
-0.0682655
-0.061823
-0.0462316
-0.0345288
-0.0232225
-0.0151645
-0.0209378
-0.0340376
-0.0371571
-0.0274205
-0.0155412
-0.0236637
-0.0392245
-0.0106971
-0.238845
-0.238117
-0.223497
-0.203362
-0.178879
-0.147903
-0.11055
-0.0697757
-0.0284582
0.00895132
0.042314
0.0742658
0.0974644
0.0698323
-0.00216953
-0.0643823
-0.0876055
-0.0763006
-0.0564147
-0.0410753
-0.0284722
-0.0205986
-0.0247671
-0.0376801
-0.0409924
-0.0309608
-0.017702
-0.0268957
-0.041561
-0.0114346
-0.262195
-0.261182
-0.245087
-0.223265
-0.196347
-0.161614
-0.119801
-0.0746876
-0.0296961
0.010204
0.0454237
0.0792298
0.103846
0.0687991
-0.0132202
-0.08373
-0.108282
-0.0917379
-0.0670073
-0.0474706
-0.0335312
-0.0256108
-0.0278187
-0.0404857
-0.0440829
-0.0340704
-0.0198682
-0.030003
-0.0432302
-0.0120668
-0.286869
-0.285588
-0.268226
-0.2449
-0.21541
-0.176477
-0.129794
-0.0800677
-0.0313744
0.0108974
0.0477499
0.0824559
0.106905
0.0658559
-0.0237395
-0.101929
-0.129145
-0.107659
-0.0777792
-0.0536483
-0.0383861
-0.030207
-0.0302089
-0.0426513
-0.0465689
-0.036807
-0.0220196
-0.0329435
-0.044269
-0.0126087
-0.312724
-0.311266
-0.293017
-0.268453
-0.236208
-0.192567
-0.14057
-0.0859567
-0.0335486
0.0109872
0.0491379
0.0834179
0.105475
0.0603926
-0.0334323
-0.117634
-0.148994
-0.123487
-0.0884608
-0.0595484
-0.0430277
-0.0344067
-0.0320501
-0.0443428
-0.048572
-0.0392184
-0.0241299
-0.0356817
-0.0447323
-0.0130746
-0.339482
-0.338088
-0.319573
-0.29412
-0.258875
-0.209956
-0.152171
-0.0924029
-0.036252
0.010436
0.049447
0.0817967
0.0992441
0.0518914
-0.042637
-0.13046
-0.166886
-0.138657
-0.0987793
-0.065121
-0.0474473
-0.0382347
-0.0334456
-0.0456964
-0.0502014
-0.0413483
-0.026172
-0.0381879
-0.0446864
-0.013478
-0.36674
-0.365853
-0.347988
-0.322072
-0.283519
-0.228707
-0.164633
-0.099457
-0.039497
0.00917746
0.0485738
0.0776043
0.088904
0.040504
-0.0516063
-0.140684
-0.182248
-0.152695
-0.108491
-0.0703294
-0.0516343
-0.0417164
-0.0344893
-0.0468207
-0.0515549
-0.0432453
-0.0281266
-0.0404358
-0.0442033
-0.0138306
-0.393898
-0.394261
-0.378274
-0.352398
-0.310197
-0.248856
-0.177991
-0.107161
-0.043294
0.00710777
0.0464394
0.0712788
0.0756561
0.0270988
-0.0602865
-0.148801
-0.194836
-0.165261
-0.117402
-0.0751493
-0.055578
-0.0448764
-0.0352625
-0.0478009
-0.0527116
-0.0449591
-0.0299898
-0.0424161
-0.0433563
-0.0141427
-0.419851
-0.422833
-0.410256
-0.385001
-0.338853
-0.270395
-0.192262
-0.115533
-0.0476729
0.00409971
0.0429754
0.0633708
0.0608323
0.013035
-0.0684207
-0.155445
-0.204664
-0.176141
-0.125378
-0.0795677
-0.0592695
-0.0477388
-0.0358324
-0.0487019
-0.0537053
-0.0465105
-0.0317645
-0.0441633
-0.0422192
-0.0144225
-0.443465
-0.45083
-0.443498
-0.419539
-0.36924
-0.293227
-0.207465
-0.12459
-0.0527047
1.61363e-05
0.0381877
0.0544436
0.0458251
-0.00038018
-0.0757879
-0.161434
-0.211967
-0.185243
-0.132335
-0.083583
-0.0627031
-0.0503306
-0.0362548
-0.0495685
-0.0544963
-0.0478601
-0.0334367
-0.0457355
-0.0408722
-0.0146769
-0.464532
-0.477292
-0.477205
-0.455531
-0.401041
-0.317063
-0.223399
-0.134222
-0.0584401
-0.00526088
0.0322637
0.0454021
0.0315611
-0.0131916
-0.0829377
-0.16714
-0.217543
-0.192735
-0.138236
-0.0871877
-0.0658813
-0.0526667
-0.0365791
-0.0504169
-0.0550875
-0.0489816
-0.0349702
-0.047106
-0.0393888
-0.0149149
-0.483002
-0.500608
-0.509149
-0.491668
-0.434319
-0.342839
-0.241068
-0.144968
-0.0650522
-0.0118967
0.0252895
0.0364371
0.0164706
-0.0284867
-0.091593
-0.171549
-0.220312
-0.198367
-0.143339
-0.0904431
-0.0687821
-0.0548747
-0.0368537
-0.0513571
-0.0560582
-0.050108
-0.0363488
-0.048077
-0.037735
-0.015135
-0.497368
-0.514653
-0.527988
-0.514576
-0.457406
-0.362593
-0.256148
-0.155677
-0.0730242
-0.0204793
0.0161481
0.024311
-0.00203643
-0.0457763
-0.0998803
-0.171362
-0.216729
-0.198113
-0.145846
-0.0930355
-0.0704312
-0.0564674
-0.0378163
-0.0530793
-0.058525
-0.0515339
-0.0374394
-0.0483487
-0.0360485
-0.0152351
-0.505942
-0.529242
-0.547155
-0.533725
-0.470955
-0.369212
-0.25792
-0.155078
-0.0730936
-0.0237095
0.0112364
0.0180605
-0.0118169
-0.0557969
-0.106107
-0.174632
-0.219066
-0.199551
-0.146965
-0.0939045
-0.0713896
-0.0574241
-0.0383125
-0.0535771
-0.0595943
-0.0523253
-0.0382163
-0.0485837
-0.0351196
-0.0153413
-0.515222
-0.544
-0.565194
-0.549468
-0.478697
-0.368648
-0.252748
-0.149078
-0.0700454
-0.0249695
0.00786733
0.0117029
-0.021306
-0.065186
-0.111658
-0.177306
-0.221611
-0.200651
-0.146944
-0.0938085
-0.0720575
-0.057928
-0.0385312
-0.0536928
-0.0603968
-0.0530692
-0.0389591
-0.0487673
-0.0343467
-0.0154434
-0.524938
-0.557744
-0.581974
-0.564386
-0.486849
-0.369636
-0.249728
-0.145519
-0.0693453
-0.0282424
0.00326956
0.00378396
-0.0309451
-0.0736442
-0.116559
-0.179492
-0.223125
-0.200935
-0.146664
-0.0937199
-0.0727408
-0.0583116
-0.0387227
-0.0538951
-0.0612355
-0.0538047
-0.0396663
-0.0488924
-0.0335722
-0.0155271
-0.534176
-0.570655
-0.597871
-0.5787
-0.495225
-0.371764
-0.248489
-0.144233
-0.0709314
-0.0336164
-0.00292147
-0.00532084
-0.040423
-0.0812524
-0.120798
-0.181134
-0.223852
-0.200601
-0.146282
-0.093762
-0.0734668
-0.0586904
-0.0389741
-0.0542344
-0.0621051
-0.0545261
-0.0403353
-0.0489631
-0.0328011
-0.0155946
-0.543596
-0.582607
-0.612543
-0.591763
-0.502796
-0.373698
-0.247671
-0.144087
-0.074064
-0.0405142
-0.0106423
-0.0154601
-0.0496892
-0.0880526
-0.124381
-0.182212
-0.223891
-0.199734
-0.145692
-0.0937986
-0.0741833
-0.0590424
-0.039273
-0.0546559
-0.0629933
-0.0552349
-0.0409655
-0.0489843
-0.0320585
-0.0156502
-0.551137
-0.593497
-0.625651
-0.603213
-0.509363
-0.375421
-0.247352
-0.145147
-0.0788141
-0.0488783
-0.0201672
-0.0265115
-0.0587422
-0.0940886
-0.127299
-0.182699
-0.223195
-0.198319
-0.14484
-0.0937697
-0.0748657
-0.0593423
-0.0396047
-0.0551448
-0.0639086
-0.0559331
-0.0415564
-0.0489614
-0.0313551
-0.0156957
-0.559065
-0.603371
-0.636964
-0.612843
-0.51488
-0.377128
-0.247886
-0.147745
-0.085466
-0.0588501
-0.0318472
-0.0383343
-0.067568
-0.0993958
-0.129547
-0.182564
-0.221725
-0.196349
-0.143739
-0.0936794
-0.0755109
-0.0595938
-0.039972
-0.0557094
-0.0648594
-0.0566219
-0.0421077
-0.0488997
-0.0306952
-0.0157318
-0.565982
-0.611925
-0.646235
-0.620444
-0.519205
-0.378823
-0.249405
-0.152015
-0.094167
-0.0705461
-0.0459161
-0.050789
-0.0761367
-0.104006
-0.131122
-0.181784
-0.219458
-0.193824
-0.142405
-0.0935363
-0.0761176
-0.0598129
-0.0403835
-0.0563556
-0.0658505
-0.0573016
-0.0426194
-0.0488043
-0.0300828
-0.0157595
-0.571725
-0.618846
-0.653204
-0.625803
-0.522171
-0.380443
-0.251928
-0.157981
-0.10494
-0.0840549
-0.0622973
-0.0637451
-0.0844037
-0.107948
-0.132024
-0.180336
-0.216377
-0.190752
-0.140844
-0.0933387
-0.0766812
-0.0600147
-0.0408463
-0.0570836
-0.0668843
-0.057972
-0.0430912
-0.0486806
-0.0295225
-0.0157801
-0.576097
-0.623514
-0.657568
-0.628734
-0.523618
-0.381917
-0.255444
-0.165642
-0.117729
-0.0994507
-0.0800193
-0.0770181
-0.0923173
-0.111251
-0.132262
-0.178209
-0.212472
-0.187144
-0.139057
-0.0930814
-0.0771968
-0.0602121
-0.0413656
-0.0578918
-0.0679615
-0.0586325
-0.0435235
-0.0485338
-0.0290188
-0.0157945
-0.57883
-0.630606
-0.659092
-0.629041
-0.523429
-0.383156
-0.259887
-0.174974
-0.132416
-0.116768
-0.0991027
-0.0903893
-0.0998189
-0.113943
-0.131856
-0.175404
-0.207741
-0.18301
-0.137043
-0.0927604
-0.0776606
-0.0604177
-0.0419468
-0.0587772
-0.0690808
-0.059282
-0.0439164
-0.0483691
-0.0285751
-0.0158036
-0.579212
-0.628559
-0.657339
-0.626515
-0.521514
-0.384046
-0.265116
-0.185899
-0.14882
-0.135965
-0.118869
-0.103691
-0.106858
-0.116054
-0.130836
-0.171931
-0.202202
-0.17837
-0.134804
-0.0923724
-0.0780693
-0.0606445
-0.0425959
-0.059736
-0.0702391
-0.0599191
-0.0442701
-0.0481916
-0.0281949
-0.0158082
-0.577036
-0.624409
-0.652262
-0.620995
-0.517767
-0.384435
-0.270916
-0.198268
-0.166729
-0.156859
-0.13896
-0.116779
-0.113398
-0.117615
-0.129245
-0.167815
-0.195882
-0.173246
-0.132341
-0.091915
-0.0784202
-0.0609059
-0.0433192
-0.0607627
-0.0714314
-0.060542
-0.0445851
-0.0480064
-0.0278806
-0.0158093
-0.572086
-0.617493
-0.643708
-0.612375
-0.51206
-0.384117
-0.277007
-0.211834
-0.185927
-0.179099
-0.159008
-0.129509
-0.119415
-0.118662
-0.127139
-0.163094
-0.188824
-0.167667
-0.129654
-0.091386
-0.0787115
-0.0612146
-0.0441236
-0.0618507
-0.0726515
-0.0611485
-0.0448617
-0.0478183
-0.0276345
-0.0158075
-0.564212
-0.607233
-0.631526
-0.600565
-0.504248
-0.382848
-0.283067
-0.226256
-0.206208
-0.20219
-0.178664
-0.141756
-0.1249
-0.119237
-0.124581
-0.157819
-0.181093
-0.161665
-0.126746
-0.0907833
-0.0789419
-0.0615825
-0.0450158
-0.062992
-0.0738916
-0.0617365
-0.0451003
-0.0476322
-0.027458
-0.0158035
-0.553355
-0.593462
-0.61567
-0.585502
-0.494177
-0.38035
-0.288754
-0.241125
-0.227363
-0.225562
-0.197662
-0.153413
-0.129853
-0.119386
-0.121644
-0.152053
-0.172774
-0.155279
-0.123619
-0.0901055
-0.0791107
-0.0620201
-0.0460018
-0.064178
-0.0751429
-0.0623036
-0.0453012
-0.0474525
-0.0273523
-0.0157979
-0.539465
-0.576257
-0.596194
-0.567173
-0.481707
-0.376324
-0.293741
-0.256021
-0.249152
-0.248669
-0.215802
-0.164397
-0.13429
-0.119157
-0.118406
-0.145872
-0.163966
-0.148553
-0.120279
-0.0893514
-0.0792184
-0.0625362
-0.047087
-0.0653996
-0.076396
-0.0628471
-0.0454649
-0.0472836
-0.0273179
-0.0157915
-0.522783
-0.555789
-0.57324
-0.545595
-0.466727
-0.370474
-0.297728
-0.270564
-0.271266
-0.271058
-0.23293
-0.174643
-0.138236
-0.118604
-0.114948
-0.139361
-0.154788
-0.141534
-0.116732
-0.0885197
-0.079266
-0.0631377
-0.0482752
-0.0666476
-0.0776409
-0.0633647
-0.0455916
-0.0471294
-0.0273546
-0.0157848
-0.503827
-0.532391
-0.547055
-0.520876
-0.449036
-0.362544
-0.300445
-0.284435
-0.293294
-0.292403
-0.248908
-0.184107
-0.141721
-0.117781
-0.111347
-0.132613
-0.145366
-0.134274
-0.112989
-0.0876097
-0.0792555
-0.0638299
-0.0495684
-0.0679122
-0.0788673
-0.0638539
-0.0456814
)
;

boundaryField
{
    inlet
    {
        type            zeroGradient;
    }
    outlet
    {
        type            fixedValue;
        value           uniform 0;
    }
    cylinder
    {
        type            zeroGradient;
    }
    top
    {
        type            symmetryPlane;
    }
    bottom
    {
        type            symmetryPlane;
    }
    defaultFaces
    {
        type            empty;
    }
    procBoundary1to0
    {
        type            processor;
        value           nonuniform List<scalar> 
50
(
-0.380468
-0.421025
-0.421025
-0.459624
-0.459624
-0.514846
-0.490735
-0.490735
-0.526866
-0.526866
-0.531071
-0.531071
-0.53194
-0.53194
-0.531079
-0.522818
-0.522818
-0.520766
-0.520766
-0.0303918
-0.0313045
-0.0330128
-0.0354476
-0.0385802
-0.0423813
-0.0468423
-0.0519593
-0.0577373
-0.0641862
-0.0713205
-0.0713205
-0.0772901
-0.0856109
-0.0946483
-0.104424
-0.11496
-0.126279
-0.138404
-0.151353
-0.165149
-0.179811
-0.195353
-0.211786
-0.229121
-0.247366
-0.266493
-0.286464
-0.307377
-0.329428
-0.352122
)
;
    }
    procBoundary1to3
    {
        type            processor;
        value           nonuniform List<scalar> 
41
(
-0.424671
-0.426542
-0.427245
-0.428431
-0.430671
-0.434201
-0.439126
-0.445571
-0.453499
-0.463118
-0.483147
-0.506608
-0.518124
-0.493191
-0.428674
-0.352281
-0.301659
-0.297346
-0.314719
-0.31247
-0.263615
-0.192752
-0.144779
-0.116745
-0.107679
-0.125726
-0.135832
-0.126829
-0.109062
-0.0866205
-0.0791892
-0.0646156
-0.0509666
-0.0691845
-0.0800651
-0.064312
-0.0457347
-0.0469935
-0.0274621
-0.0157783
-0.0469935
)
;
    }
}


// ************************************************************************* //
