/*--------------------------------*- C++ -*----------------------------------*\
  =========                 |
  \\      /  F ield         | OpenFOAM: The Open Source CFD Toolbox
   \\    /   O peration     | Website:  https://openfoam.org
    \\  /    A nd           | Version:  7
     \\/     M anipulation  |
\*---------------------------------------------------------------------------*/
FoamFile
{
    version     2.0;
    format      ascii;
    class       surfaceScalarField;
    location    "380";
    object      phi;
}
// * * * * * * * * * * * * * * * * * * * * * * * * * * * * * * * * * * * * * //

dimensions      [0 3 -1 0 0 0 0];

internalField   nonuniform List<scalar> 
4148
(
0.0888248
0.0213
0.0215962
0.080749
0.0876514
0.0227696
0.0209244
0.0703003
0.0228032
0.0788702
0.0862569
0.0241977
0.0149029
0.042994
0.0186755
0.0559693
0.0216671
0.0673088
0.0239095
0.0766278
0.0846001
0.0255663
0.0100985
0.025566
0.0145623
0.0385303
0.0187558
0.0517758
0.0222204
0.0638442
0.0248805
0.0739677
0.0826304
0.0268503
0.00547488
0.0118187
0.00940331
0.0216376
0.0140086
0.0339249
0.0185853
0.0471991
0.0225429
0.0598866
0.0256742
0.0708363
0.0802856
0.028019
0.00232039
0.00357003
0.0048791
0.00926004
0.0086167
0.0179
0.0132553
0.0292863
0.0181455
0.0423089
0.0225932
0.0554389
0.0262421
0.0671875
0.0774992
0.0290285
0.00200484
0.00226807
0.00430034
0.00696453
0.0077798
0.0144205
0.0123335
0.0247326
0.0174331
0.0372093
0.0223348
0.0505372
0.0265321
0.0629902
0.0741969
0.0298343
0.00059434
-0.000601563
0.00172862
0.00113378
0.00376356
0.0049296
0.0069384
0.0112457
0.0112921
0.0203789
0.0164661
0.0320353
0.0217457
0.0452575
0.026486
0.0582499
0.0703088
0.0303741
7.94266e-05
-0.000770757
0.000510562
-0.0010327
0.00149989
0.00014446
0.00328981
0.00313967
0.00613756
0.00839792
0.0101943
0.0163222
0.0152889
0.0269407
0.0208235
0.0397229
0.0260681
0.0530054
0.0658
0.030577
7.06254e-05
-0.000841383
0.000452938
-0.00141501
0.00132335
-0.000725947
0.00289394
0.00156908
0.00541556
0.0058763
0.00910822
0.0126295
0.0139707
0.0220782
0.0196044
0.0340892
0.0252129
0.0473968
0.0604902
0.0305226
6.94534e-05
-0.000910836
0.000420766
-0.00176632
0.00119916
-0.00150434
0.00258239
0.000185844
0.00479838
0.0036603
0.00809535
0.00933254
0.0125976
0.017576
0.0181656
0.0285212
0.023891
0.0416714
0.0544711
0.0299102
7.49698e-05
-0.000985806
0.000410986
-0.00210234
0.00112232
-0.00221567
0.00235187
-0.00104371
0.00429574
0.00171644
0.00719899
0.00642929
0.011263
0.0135119
0.0165711
0.0232131
0.0224132
0.0358293
0.0492609
0.0276234
8.556e-05
-0.00107137
0.000418338
-0.00243512
0.00108294
-0.00288027
0.00218955
-0.00215032
0.00389999
5.99914e-06
0.0064369
0.00389239
0.0100385
0.00991034
0.0149153
0.0183363
0.0207642
0.0299804
0.0437365
0.0262887
9.91097e-05
-0.00117048
0.000435964
-0.00277197
0.00106751
-0.00351181
0.00207515
-0.00315797
0.00358818
-0.00150704
0.00579965
0.00168092
0.00895363
0.00675636
0.0132958
0.0139941
0.0188924
0.0243838
0.0380054
0.0246234
0.00011328
-0.00128376
0.000456316
-0.00311501
0.00106083
-0.00411632
0.00198394
-0.00408108
0.0033279
-0.00285099
0.00525537
-0.000246553
0.00799543
0.0040163
0.011776
0.0102135
0.0169027
0.0192571
0.0322613
0.0226468
0.000125808
-0.00140956
0.000472141
-0.00346134
0.00104824
-0.00469242
0.00189162
-0.00492445
0.00308346
-0.00404284
0.00475972
-0.00192281
0.00712343
0.0016526
0.0103691
0.00696784
0.0148955
0.0147307
0.0267273
0.0204295
0.000134753
-0.00154432
0.000477315
-0.0038039
0.00101747
-0.00523258
0.00177746
-0.00568444
0.00282285
-0.00508823
0.0042689
-0.00336886
0.00628825
-0.000366756
0.0090493
0.00420679
0.0129344
0.0108456
0.0216018
0.01806
0.00013866
-0.00168298
0.000467404
-0.00413265
0.000959899
-0.00572508
0.00162701
-0.00635155
0.00252335
-0.00598458
0.00374866
-0.00459417
0.00544725
-0.00206535
0.0077736
0.00188045
0.0110398
0.00757941
0.0170175
0.0156241
0.000136636
-0.00181961
0.000439915
-0.00443593
0.000871066
-0.00615623
0.00143309
-0.00691357
0.00217321
-0.0067247
0.00317946
-0.00560042
0.00457454
-0.00346042
0.00650446
-4.94693e-05
0.00920503
0.00487884
0.0130345
0.0131881
0.000128354
-0.00194797
0.000394274
-0.00470185
0.00075053
-0.00651248
0.0011954
-0.00735845
0.00177136
-0.00730065
0.00255782
-0.00638688
0.0036623
-0.0045649
0.00522223
-0.0016094
0.00741845
0.00268262
0.00965865
0.0107943
0.000114004
-0.00206197
0.000331614
-0.00491946
0.00060125
-0.00678212
0.000919262
-0.00767646
0.00132525
-0.00770665
0.00189214
-0.00695377
0.00271651
-0.00538927
0.00392881
-0.0028217
0.00567487
0.000936561
0.00686828
0.00846524
9.42209e-05
-0.00215619
0.000254432
-0.00507967
0.000428745
-0.00695643
0.000613919
-0.00786163
0.000847952
-0.00794068
0.00119858
-0.0073044
0.00175445
-0.00594515
0.00263782
-0.00370506
0.0039766
-0.000402228
0.0046352
0.00620968
6.99859e-05
-0.00222618
0.000166203
-0.00517589
0.000240196
-0.00703042
0.000290887
-0.00791232
0.000355296
-0.00800509
0.000496516
-0.00744562
0.000796883
-0.00624552
0.00136861
-0.00427679
0.00233126
-0.00136488
0.0029363
0.00403016
4.25346e-05
-0.00226871
7.10815e-05
-0.00520443
4.36555e-05
-0.007003
-3.73613e-05
-0.00783131
-0.000135567
-0.00790688
-0.000192571
-0.00738861
-0.000134972
-0.00630311
0.000125889
-0.00453765
0.000756977
-0.00199596
0.00176446
0.00192881
1.32523e-05
-0.00228197
-2.65255e-05
-0.00516465
-0.000152751
-0.00687677
-0.000358516
-0.00762554
-0.000608596
-0.0076568
-0.000849759
-0.00714745
-0.00101524
-0.00613763
-0.00101347
-0.00453942
-0.000767378
-0.00224206
0.00108517
-8.80871e-05
-1.6482e-05
-0.00226548
-0.000122651
-0.00505849
-0.000341223
-0.0066582
-0.000661295
-0.00730547
-0.00104913
-0.00726896
-0.00145745
-0.00673913
-0.00182846
-0.00576662
-0.00208945
-0.00427844
-0.00217767
-0.00215383
0.000845024
-0.00193752
-4.52401e-05
-0.00222024
-0.000212989
-0.00489074
-0.000514713
-0.00635647
-0.000935524
-0.00688466
-0.00144388
-0.0067606
-0.00199913
-0.00618388
-0.00255386
-0.00521189
-0.00305273
-0.00377957
-0.00344792
-0.00175865
0.00104855
-0.00365144
-7.17813e-05
-0.00214846
-0.000294143
-0.00466838
-0.000667261
-0.00598336
-0.0011727
-0.00637922
-0.00178159
-0.00615171
-0.00246019
-0.00550528
-0.00317162
-0.00450046
-0.0038768
-0.00307439
-0.00454373
-0.00109172
0.00164182
-0.00513699
-9.50551e-05
-0.00205341
-0.000363339
-0.00440009
-0.000794233
-0.00555246
-0.00136626
-0.0058072
-0.00205338
-0.00546459
-0.00282847
-0.00473019
-0.00366432
-0.00366461
-0.00453556
-0.00220315
-0.00542488
-0.000202401
0.00254769
-0.00633076
-0.000114277
-0.00193913
-0.000418624
-0.00409574
-0.000892511
-0.00507858
-0.00151183
-0.00518788
-0.00225317
-0.00472325
-0.00309511
-0.00388825
-0.00401825
-0.00274147
-0.00500772
-0.00121368
-0.00605598
0.000845854
0.00367225
-0.00718053
-0.000128972
-0.000458966
-0.000960638
-0.00160749
-0.00237813
-0.0032554
-0.00422519
-0.00527821
-0.00641354
-0.00765096
0.205184
-0.00106904
0.206346
-0.00116158
0.207599
-0.00125263
0.208941
-0.00134203
0.21037
-0.00142965
0.211886
-0.00151533
0.213484
-0.00159893
0.215165
-0.0016803
0.216924
-0.00175937
0.21876
-0.00183579
-0.00191021
0.22067
0.195803
-0.00209164
0.196914
-0.00227224
0.198111
-0.00244992
0.199393
-0.00262439
0.200759
-0.00279536
0.202206
-0.00296254
0.203733
-0.00312568
0.205337
-0.00328444
0.207016
-0.00343871
0.208768
-0.00358782
-0.00373299
0.210591
0.187002
-0.00307209
0.188067
-0.00333663
0.189214
-0.00359688
0.190442
-0.00385243
0.191749
-0.00410284
0.193134
-0.0043477
0.194595
-0.00458664
0.19613
-0.00481917
0.197737
-0.00504512
0.199412
-0.00526353
-0.00547614
0.201155
0.17873
-0.00401444
0.179752
-0.00435905
0.180853
-0.00469807
0.182032
-0.00503094
0.183286
-0.00535714
0.184615
-0.00567609
0.186015
-0.00598733
0.187486
-0.00629022
0.189026
-0.00658453
0.190631
-0.00686903
-0.00714597
0.192301
0.170938
-0.00492209
0.171922
-0.00534312
0.172982
-0.00575731
0.174115
-0.00616399
0.17532
-0.00656251
0.176596
-0.00695218
0.177941
-0.00733242
0.179353
-0.00770248
0.180831
-0.008062
0.182372
-0.0084096
-0.00874791
0.183973
0.163588
-0.00579813
0.164537
-0.00629211
0.165558
-0.00677808
0.166649
-0.00725523
0.16781
-0.00772279
0.169037
-0.00817999
0.170331
-0.0086261
0.171689
-0.00906029
0.173109
-0.00948206
0.174589
-0.0098899
-0.0102868
0.176128
0.156646
-0.00664539
0.157563
-0.00720903
0.158548
-0.00776352
0.159601
-0.00830796
0.16072
-0.00884145
0.161903
-0.00936311
0.163149
-0.00987212
0.164456
-0.0103675
0.165823
-0.0108487
0.167247
-0.0113141
-0.0117668
0.168727
0.150082
-0.00746649
0.150969
-0.00809664
0.151922
-0.00871656
0.15294
-0.00932524
0.15402
-0.00992168
0.155162
-0.0105049
0.156364
-0.0110739
0.157624
-0.0116278
0.158941
-0.0121656
0.160313
-0.0126859
-0.013192
0.161738
0.14387
-0.00826395
0.144731
-0.0089576
0.145655
-0.00963998
0.146639
-0.01031
0.147684
-0.0109665
0.148788
-0.0116085
0.149949
-0.0122349
0.151165
-0.0128446
0.152436
-0.0134364
0.153759
-0.0140092
-0.0145661
0.155134
0.137988
-0.00904023
0.138825
-0.00979448
0.139722
-0.0105365
0.140677
-0.011265
0.141689
-0.0119789
0.142758
-0.012677
0.143881
-0.013358
0.145057
-0.0140211
0.146285
-0.0146643
0.147563
-0.0152873
-0.0158928
0.14889
0.132416
-0.00979771
0.133231
-0.0106098
0.134104
-0.0114087
0.135032
-0.0121931
0.136015
-0.0129617
0.137051
-0.0137134
0.13814
-0.0144466
0.139279
-0.0151606
0.140468
-0.0158529
0.141704
-0.0165237
-0.0171756
0.142987
0.126394
-0.00965888
0.127135
-0.0105388
0.127931
-0.011406
0.128782
-0.0122592
0.129686
-0.013097
0.130642
-0.0139179
0.131649
-0.0147207
0.132706
-0.0155038
0.133812
-0.0162664
0.134965
-0.0170055
0.136163
-0.0177222
-0.0184185
0.137406
0.121401
-0.0103325
0.122128
-0.0112658
0.122908
-0.0121857
0.123739
-0.0130907
0.124622
-0.0139794
0.125554
-0.0148502
0.126535
-0.0157019
0.127564
-0.0165326
0.128639
-0.0173418
0.129759
-0.0181255
0.130923
-0.0188862
-0.0196251
0.13213
0.116665
-0.0109968
0.11738
-0.0119811
0.118145
-0.0129512
0.11896
-0.0139057
0.119824
-0.0148431
0.120735
-0.0157616
0.121694
-0.0166601
0.122697
-0.0175363
0.123746
-0.0183903
0.124837
-0.0192166
0.12597
-0.0200195
-0.0207996
0.127145
0.11217
-0.011654
0.112876
-0.0126868
0.11363
-0.013705
0.114431
-0.0147068
0.115278
-0.0156907
0.116172
-0.0166549
0.11711
-0.0175982
0.118092
-0.0185182
0.119117
-0.0194152
0.120182
-0.0202824
0.121289
-0.0211263
-0.0219464
0.122436
0.107904
-0.0123061
0.108602
-0.0133853
0.109347
-0.0144493
0.110136
-0.0154963
0.11097
-0.0165247
0.111848
-0.0175327
0.112769
-0.0185192
0.113732
-0.019481
0.114736
-0.0204196
0.11578
-0.0213259
0.116863
-0.0222094
-0.0230684
0.117985
0.103853
-0.0129548
0.104546
-0.0140783
0.105283
-0.0151862
0.106063
-0.0162765
0.106886
-0.0173478
0.107751
-0.0183978
0.108658
-0.0194257
0.109605
-0.0204281
0.110592
-0.0214069
0.111617
-0.0223512
0.112681
-0.0232735
-0.0241713
0.113784
0.100004
-0.0136021
0.100694
-0.0147679
0.101425
-0.0159177
0.102198
-0.0170496
0.103012
-0.018162
0.103867
-0.0192526
0.104762
-0.0203208
0.105697
-0.0213623
0.10667
-0.0223805
0.107681
-0.0233618
0.10873
-0.0243224
-0.0252594
0.109818
0.0963456
-0.0142493
0.0970333
-0.0154556
0.0977612
-0.0166457
0.098529
-0.0178174
0.0993366
-0.0189696
0.100183
-0.0200993
0.101069
-0.0212068
0.101994
-0.0222867
0.102957
-0.0233439
0.103957
-0.0243616
0.104995
-0.0253605
-0.0263375
0.106073
0.0928658
-0.0148977
0.0935529
-0.0161427
0.0942788
-0.0173716
0.0950432
-0.0185818
0.0958463
-0.0197726
0.0966873
-0.0209404
0.0975669
-0.0220864
0.0984841
-0.0232038
0.0994404
-0.0243002
0.100433
-0.0253542
0.101465
-0.0263924
-0.0274105
0.102538
0.0895539
-0.0155483
0.0902416
-0.0168305
0.0909668
-0.0180968
0.0917293
-0.0193443
0.0925298
-0.0205731
0.0933677
-0.0217782
0.0942444
-0.0229631
0.095158
-0.0241174
0.0961115
-0.0252537
0.0971005
-0.0263432
0.0981305
-0.0274224
-0.0284818
0.0992018
0.0864001
-0.0162021
0.0870897
-0.0175201
0.0878157
-0.0188228
0.0885779
-0.0201065
0.0893777
-0.0213729
0.0902142
-0.0226147
0.0910905
-0.0238395
0.0920034
-0.0250302
0.0929586
-0.026209
0.0939466
-0.0273312
0.0949776
-0.0284534
-0.0295489
0.0960447
0.0833962
-0.0168599
0.0840889
-0.0182127
0.0848174
-0.0195513
0.0855817
-0.0208708
0.0863836
-0.0221748
0.087221
-0.023452
0.0880986
-0.0247171
0.0890095
-0.0259411
0.0899655
-0.0271649
0.0909477
-0.0283135
0.091976
-0.0294816
-0.0305962
0.0930233
0.0805359
-0.0175225
0.0812326
-0.0189093
0.0819645
-0.0202832
0.0827317
-0.021638
0.0835367
-0.0229799
0.0843762
-0.0242914
0.0852558
-0.0255968
0.0861617
-0.026847
0.0871108
-0.028114
0.088068
-0.0292707
0.0890724
-0.0304861
-0.0315849
0.0900611
0.0778149
-0.0181908
0.0785159
-0.0196103
0.0792501
-0.0210174
0.0800175
-0.0224054
0.0808193
-0.0237817
0.0816519
-0.0251241
0.0825212
-0.026466
0.0834083
-0.0277341
0.0843332
-0.029039
0.0852346
-0.0301721
0.0861736
-0.0314251
-0.0324424
0.087031
0.0752238
-0.0188621
0.0759252
-0.0203117
0.076656
-0.0217483
0.0774158
-0.0231651
0.0782016
-0.0245675
0.0790092
-0.0259316
0.0798369
-0.0272937
0.0806662
-0.0285634
0.0815141
-0.0298869
0.0823023
-0.0309602
0.0831073
-0.0322301
-0.0330539
0.0837188
0.0727442
-0.0195267
0.0734331
-0.0210006
0.0741445
-0.0224596
0.0748772
-0.0238979
0.0756245
-0.0253148
0.0763819
-0.0266891
0.0771323
-0.0280441
0.0778579
-0.0292889
0.0785439
-0.030573
0.0791179
-0.0315342
0.0796522
-0.0327645
-0.0332639
0.0798622
0.0703461
-0.0201684
0.0710023
-0.0216568
0.0716695
-0.0231268
0.0723434
-0.0245719
0.0730129
-0.0259842
0.0736708
-0.027347
0.0742856
-0.0286589
0.0748455
-0.0298489
0.0752795
-0.0310069
0.0755389
-0.0317935
0.0755952
-0.0328209
-0.0328844
0.0752157
0.0679782
-0.0207671
0.068578
-0.0222567
0.0691714
-0.0237201
0.0697466
-0.0251471
0.070284
-0.0265217
0.0707623
-0.0278253
0.071135
-0.0290317
0.0713825
-0.0300963
0.0713955
-0.0310199
0.0711925
-0.0315905
0.0705487
-0.0321771
-0.0317495
0.0694139
0.0655986
0.0661115
0.0665891
0.0670083
0.0673369
0.0675307
0.0675275
0.0672655
0.0666196
0.0656061
0.0639517
0.0621123
0.220987
-0.000316396
0.221257
-0.000270457
0.221483
-0.000225986
0.221655
-0.000171987
0.221802
-0.000147477
0.221889
-8.70231e-05
0.221985
-9.5374e-05
0.222
-1.49334e-05
0.222046
-4.59647e-05
0.221956
9.02098e-05
0.221852
0.000103131
0.221495
0.000357104
0.22096
0.000535196
0.219982
0.000977805
0.218564
0.00141844
0.216612
0.00195199
0.213957
0.00265444
0.211248
0.00270898
0.207602
0.00364602
0.205379
0.00222326
0.20255
0.00282949
0.202597
-4.69407e-05
0.206483
-0.00388604
0.21105
-0.00456774
0.217115
-0.00606487
0.218275
-0.00115935
0.219262
-0.000987453
0.215235
0.00402738
0.20789
0.00734486
-0.00137797
0.210886
-0.000610769
0.211133
-0.000517791
0.211336
-0.000428862
0.211485
-0.000321632
0.211613
-0.000275224
0.211684
-0.000158197
0.21177
-0.000181392
0.211785
-2.91222e-05
0.21184
-0.000101583
0.211776
0.000154596
0.211709
0.00017
0.211406
0.000659817
0.21093
0.00101131
0.210016
0.00189136
0.208665
0.00276946
0.20676
0.00385722
0.20417
0.00524429
0.201477
0.00540275
0.197856
0.00726657
0.195611
0.00446794
0.192633
0.00580767
0.192585
1.08045e-06
0.196636
-0.00793665
0.201409
-0.00934093
0.207463
-0.0121191
0.208666
-0.00236251
0.209547
-0.00186796
0.205383
0.0081913
0.1979
0.0148276
-0.00252505
0.201423
-0.000878255
0.201639
-0.00073398
0.201809
-0.000598629
0.201924
-0.000436695
0.202021
-0.000372015
0.202065
-0.000202103
0.202136
-0.000252361
0.202148
-4.1764e-05
0.202222
-0.000175106
0.202201
0.000175407
0.202194
0.000176588
0.201979
0.000875128
0.201586
0.00140393
0.200756
0.00272135
0.199466
0.00406011
0.197579
0.00574441
0.194995
0.00782741
0.192236
0.00816219
0.188526
0.0109768
0.186157
0.00683666
0.182798
0.00916712
0.182553
0.000245553
0.18708
-0.0124632
0.192394
-0.0146554
0.198651
-0.0183761
0.199976
-0.00368764
0.200682
-0.00257405
0.19615
0.0127243
0.188139
0.0228378
-0.00324677
0.192537
-0.00111381
0.192713
-0.000910856
0.19284
-0.000725264
0.192908
-0.000504961
0.192963
-0.000426504
0.192968
-0.000207511
0.193018
-0.000302335
0.193027
-5.03913e-05
0.193125
-0.000273087
0.193163
0.000136977
0.19324
0.000100301
0.193143
0.000971828
0.192858
0.00168842
0.192132
0.00344777
0.190895
0.00529708
0.189009
0.00763062
0.186382
0.0104538
0.183498
0.0110465
0.179621
0.0148542
0.177026
0.00943096
0.17309
0.0131039
0.172496
0.000839102
0.177789
-0.0177564
0.183938
-0.0208043
0.190619
-0.0250575
0.192085
-0.00515358
0.192534
-0.00302239
0.187574
0.0176842
0.178687
0.0317246
-0.00319563
0.184172
-0.00131218
0.184301
-0.00104004
0.184374
-0.000798441
0.184383
-0.000513686
0.184383
-0.000426505
0.184338
-0.000162135
0.184359
-0.000323459
0.184359
-5.11399e-05
0.184487
-0.000400803
0.184599
2.4916e-05
0.184782
-8.20263e-05
0.184835
0.000918338
0.184685
0.00183809
0.184084
0.00404886
0.182894
0.00648781
0.181002
0.00952195
0.178286
0.01317
0.175238
0.0140942
0.17115
0.0189426
0.168233
0.0123476
0.163541
0.0177965
0.162395
0.00198447
0.168717
-0.0240784
0.175972
-0.0280587
0.18332
-0.0324061
0.184891
-0.00672408
0.184954
-0.00308522
0.17971
0.0229276
0.169634
0.0418006
-0.0018539
0.176284
-0.00146767
0.176356
-0.00111265
0.176365
-0.000806926
0.1763
-0.000449136
0.176232
-0.000358191
0.176122
-5.20539e-05
0.176104
-0.000305887
0.176092
-3.87235e-05
0.176253
-0.000562177
0.176454
-0.000175663
0.176763
-0.000391059
0.177001
0.000679694
0.177018
0.00182098
0.176564
0.00450349
0.175413
0.00763836
0.173516
0.0114189
0.170667
0.0160188
0.167433
0.0173284
0.163123
0.0232528
0.159799
0.015672
0.154175
0.0234198
0.152229
0.00393132
0.159756
-0.0316054
0.168392
-0.0366952
0.176693
-0.0407073
0.178306
-0.00833644
0.177822
-0.00260163
0.172583
0.0281671
0.161075
0.0533084
0.00132247
0.168833
-0.00157415
0.16884
-0.00111924
0.168771
-0.000738394
0.168619
-0.000296544
0.168466
-0.0002056
0.168276
0.000137913
0.168207
-0.000236813
0.168175
-6.14489e-06
0.168372
-0.000759714
0.168673
-0.00047598
0.169137
-0.000855504
0.169596
0.000221031
0.169818
0.00159819
0.169528
0.00479405
0.168415
0.00875105
0.16651
0.0133239
0.163494
0.0190347
0.160057
0.0207657
0.155547
0.0277625
0.151757
0.019462
0.145041
0.0301364
0.141958
0.00701454
0.150641
-0.0402887
0.160959
-0.047013
0.170579
-0.0503277
0.172206
-0.00996315
0.171073
-0.00146873
0.166083
0.0331564
0.153094
0.0662981
0.00665484
0.161789
-0.00162512
0.16172
-0.00105003
0.161561
-0.000579406
0.161305
-4.03753e-05
0.16105
4.85924e-05
0.160762
0.000426035
0.160626
-0.000100933
0.160565
5.54916e-05
0.160796
-0.000991427
0.161213
-0.000892505
0.161861
-0.00150317
0.162578
-0.00049652
0.163053
0.0011233
0.162939
0.00490763
0.161867
0.00982374
0.159943
0.0152475
0.156737
0.0222407
0.153085
0.0244178
0.148416
0.0324313
0.144159
0.0237193
0.136231
0.0380639
0.131525
0.0117204
0.140837
-0.0496
0.153107
-0.0592828
0.164567
-0.0617879
0.166376
-0.0117725
0.164672
0.000235853
0.16005
0.0377783
0.145753
0.0805949
0.0140896
0.155122
-0.00161382
0.154967
-0.000894951
0.154703
-0.000315158
0.154327
0.000335824
0.153953
0.000422619
0.153547
0.0008316
0.153326
0.000119846
0.153223
0.000159292
0.153486
-0.00125477
0.154033
-0.00143989
0.154894
-0.00236428
0.155915
-0.00151721
0.156695
0.000343625
0.156768
0.0048343
0.155739
0.0108527
0.153775
0.0172117
0.150368
0.025648
0.146493
0.0282926
0.141702
0.0372225
0.137062
0.0283591
0.127948
0.0471778
0.120927
0.0187418
0.129684
-0.0583574
0.143939
-0.0735379
0.157932
-0.0757809
0.160453
-0.014294
0.158531
0.00215832
0.154313
0.0419965
0.139053
0.0958545
0.0232399
0.14881
-0.00153345
0.148559
-0.000644256
0.148173
7.09731e-05
0.147663
0.000845608
0.147147
0.000938738
0.146603
0.00137539
0.146274
0.000449381
0.146116
0.000316756
0.146405
-0.00154343
0.147096
-0.00213152
0.148201
-0.0034685
0.149581
-0.00289749
0.150719
-0.000794776
0.15099
0.00456347
0.150004
0.0118388
0.147966
0.0192499
0.144358
0.029256
0.140256
0.0323945
0.135358
0.0421204
0.130517
0.0332004
0.120407
0.0572882
0.110531
0.028617
0.117181
-0.0650073
0.132849
-0.0892061
0.149913
-0.0928449
0.153984
-0.0183641
0.152472
0.00366948
0.148713
0.0457563
0.132937
0.11163
0.0335714
0.14283
-0.00137684
0.142471
-0.000284789
0.141957
0.000585251
0.141292
0.00151034
0.140611
0.00161955
0.139906
0.00208071
0.139446
0.000909474
0.139216
0.000546564
0.139523
-0.00185096
0.140367
-0.00297561
0.141747
-0.00484854
0.143551
-0.00470142
0.145108
-0.00235147
0.145589
0.0040825
0.144633
0.0127945
0.142479
0.0214044
0.138683
0.0330515
0.134335
0.0367428
0.12935
0.0471059
0.124537
0.038013
0.113733
0.0680923
0.101261
0.0410893
0.104765
-0.0685112
0.120453
-0.104894
0.140325
-0.112717
0.146669
-0.0247083
0.146287
0.00405088
0.143125
0.0489184
0.127304
0.127451
0.0445608
0.137168
-0.00113865
0.136692
0.000191286
0.136031
0.00124563
0.135195
0.00234679
0.134327
0.00248742
0.133436
0.00297155
0.132821
0.00152458
0.132497
0.000870192
0.132816
-0.00216958
0.133813
-0.00397281
0.135505
-0.00654024
0.137813
-0.0070099
0.13984
-0.00437766
0.140552
0.00337
0.139597
0.0137493
0.137281
0.0237209
0.13332
0.0370126
0.128675
0.0413875
0.123667
0.0521136
0.11906
0.0426201
0.107941
0.0792114
0.0941309
0.0548994
0.0945636
-0.0689439
0.108459
-0.11879
0.129812
-0.13407
0.138583
-0.0334785
0.139855
0.00277839
0.137476
0.051297
0.12204
0.142887
0.0557678
0.131801
-0.000810243
0.131209
0.000784251
0.130384
0.00206977
0.129359
0.00337187
0.128282
0.00356505
0.127181
0.00407257
0.126382
0.00232306
0.125942
0.00131041
0.126262
-0.00248961
0.127402
-0.00511276
0.129449
-0.00858755
0.13235
-0.00991073
0.134902
-0.00692979
0.135868
0.00240393
0.134866
0.0147515
0.132349
0.0262384
0.128233
0.0411287
0.123231
0.046389
0.118317
0.057028
0.113963
0.0469734
0.102901
0.0902732
0.0894232
0.0683776
0.0875597
-0.0670804
0.0982533
-0.129483
0.119291
-0.155108
0.130082
-0.0442699
0.133189
-0.000328391
0.131745
0.0527416
0.117045
0.157586
0.0668539
0.126724
-0.000389075
0.126002
0.00150582
0.125003
0.00306866
0.123774
0.00460086
0.122463
0.00487574
0.121128
0.00540787
0.120118
0.00333317
0.119535
0.00189335
0.119844
-0.00279847
0.121103
-0.006372
0.123559
-0.0110435
0.127147
-0.0134982
0.130291
-0.0100738
0.131524
0.00117029
0.130412
0.0158639
0.127667
0.0289829
0.123374
0.0454221
0.117992
0.0517712
0.113288
0.0617322
0.109119
0.0511419
0.0984714
0.100921
0.0864532
0.0803958
0.0830892
-0.0637165
0.090032
-0.136426
0.109339
-0.174415
0.121541
-0.0564712
0.126385
-0.00517253
0.12595
0.0531762
0.112245
0.171292
0.0775744
0.121919
0.000128103
0.121061
0.0023637
0.119877
0.00425211
0.11843
0.00604783
0.116864
0.00644197
0.115272
0.00700003
0.114017
0.00458785
0.113271
0.00264024
0.113548
-0.00307564
0.11489
-0.00771458
0.117813
-0.0139667
0.12219
-0.0178747
0.126004
-0.0138879
0.127503
-0.000328295
0.126213
0.0171532
0.123222
0.0319742
0.118694
0.0499501
0.112974
0.0574916
0.108526
0.06618
0.104392
0.0552754
0.0944445
0.110869
0.0843282
0.0905121
0.079979
-0.0593673
0.0833733
-0.13982
0.100183
-0.191224
0.113208
-0.0694964
0.119558
-0.0115224
0.120136
0.0525979
0.107589
0.183838
0.0877635
0.117377
0.000735659
0.116375
0.00336588
0.114999
0.00562833
0.113321
0.00772543
0.111478
0.00828514
0.109608
0.00886952
0.108076
0.00612013
0.107145
0.00357129
0.107362
-0.00329249
0.108742
-0.00909413
0.11219
-0.0174149
0.117462
-0.0231472
0.122033
-0.0184585
0.123787
-0.0020822
0.122253
0.0186868
0.118989
0.0352378
0.114156
0.0547837
0.10819
0.0634573
0.103958
0.070412
0.0996992
0.0595344
0.0906844
0.119884
0.0824594
0.0987372
0.0775001
-0.0544079
0.0779155
-0.140236
0.0919283
-0.205237
0.105257
-0.0828255
0.112814
-0.019079
0.114354
0.0510582
0.103051
0.195141
0.0973173
0.11308
0.00144014
0.111933
0.00451303
0.110359
0.00720168
0.108441
0.00964427
0.106301
0.0104252
0.104136
0.0110342
0.102293
0.00796321
0.101161
0.00470274
0.101279
-0.00341054
0.102643
-0.0104574
0.106655
-0.0214274
0.112931
-0.0294235
0.118361
-0.0238876
0.120336
-0.00405721
0.118512
0.0205108
0.114939
0.0388107
0.109739
0.0599835
0.103636
0.0695606
0.0995254
0.0745222
0.0950645
0.0639953
0.087109
0.127839
0.0805562
0.10529
0.0752972
-0.0491489
0.0734125
-0.138351
0.0846284
-0.216453
0.0978112
-0.0960082
0.106246
-0.0275141
0.108655
0.0486494
0.0986183
0.205178
0.106179
0.109017
0.0022406
0.107725
0.00580523
0.105953
0.00897352
0.103784
0.0118136
0.10133
0.0128792
0.0988541
0.0135101
0.0966701
0.0101473
0.0953229
0.00604996
0.0952952
-0.00338286
0.0965862
-0.0117485
0.101153
-0.0259943
0.108507
-0.0367775
0.114906
-0.0302862
0.117084
-0.0062353
0.114955
0.0226401
0.111033
0.0427318
0.105436
0.0655813
0.0992851
0.0757111
0.0951942
0.0786131
0.090525
0.0686645
0.0836474
0.134717
0.0784952
0.110442
0.073167
-0.0438206
0.0696394
-0.134823
0.0782595
-0.225073
0.0909412
-0.10869
0.0999269
-0.0364999
0.103088
0.0454887
0.0942891
0.213976
0.114328
0.105179
0.00313426
0.103745
0.00723942
0.101776
0.0109424
0.0993481
0.0142417
0.0965655
0.0156617
0.0937636
0.016312
0.0912152
0.0126957
0.0896308
0.00763433
0.0894063
-0.00315833
0.0905705
-0.0129127
0.0955708
-0.0309945
0.103971
-0.0451781
0.111455
-0.0377694
0.113905
-0.00868523
0.111517
0.0250271
0.107232
0.0470169
0.101241
0.0715728
0.0951071
0.0818449
0.0909524
0.0827678
0.0861086
0.0735083
0.0802538
0.140571
0.0762267
0.114469
0.0710097
-0.0386036
0.0664047
-0.130218
0.0727403
-0.231409
0.0846727
-0.120622
0.0939064
-0.0457335
0.0976909
0.0417042
0.0900683
0.221599
0.121768
0.101555
0.00411728
0.0999853
0.00880902
0.0978231
0.0131046
0.0951282
0.0169367
0.0920049
0.018785
0.0888634
0.0194536
0.0859351
0.0156239
0.0840802
0.00948926
0.0836065
-0.00268459
0.0845785
-0.0138847
0.0897028
-0.0361188
0.0989131
-0.0543884
0.107612
-0.0464688
0.11055
-0.0116227
0.108085
0.0274924
0.103484
0.051618
0.0971452
0.0779112
0.0910716
0.0879185
0.0868012
0.0870383
0.0818349
0.0784746
0.0768996
0.145507
0.0737609
0.117608
0.0687938
-0.0336365
0.0635616
-0.124986
0.067963
-0.23581
0.0789957
-0.131655
0.0882176
-0.0549555
0.0924955
0.0374262
0.0859638
0.228131
0.12852
0.0981327
0.00518629
0.0964373
0.0105045
0.0940865
0.0154553
0.0911155
0.0199077
0.087642
0.0222585
0.0841469
0.0229487
0.0808315
0.0189393
0.0786622
0.0116586
0.0778788
-0.00190116
0.0785351
-0.0145411
0.0832405
-0.0408242
0.0927685
-0.0639165
0.102805
-0.056505
0.106665
-0.0154831
0.104483
0.0296746
0.0997201
0.0563809
0.0931311
0.0845002
0.0871543
0.0938952
0.0827484
0.0914442
0.0777158
0.0835072
0.0735744
0.149648
0.071134
0.120048
0.0665191
-0.0290215
0.0610012
-0.119468
0.0638149
-0.238624
0.0738753
-0.141715
0.0828783
-0.0639584
0.0875227
0.0327819
0.0819845
0.233669
0.134621
0.0948926
0.00633847
0.0930834
0.0123137
0.0905484
0.0179903
0.0872915
0.0231646
0.0834614
0.0260887
0.079598
0.026812
0.0758946
0.0226428
0.0733664
0.0141868
0.0721821
-0.000716861
0.0722648
-0.0146238
0.0758574
-0.0444167
0.0850588
-0.0731179
0.0964958
-0.0679421
0.101869
-0.0208564
0.100508
0.0310362
0.0958598
0.0610286
0.0891732
0.0911868
0.0833364
0.0997321
0.078804
0.0959765
0.0737574
0.0885537
0.0702803
0.153125
0.0683898
0.121939
0.0641979
-0.0248295
0.0586462
-0.113917
0.0601939
-0.240172
0.069263
-0.150785
0.0778915
-0.0725869
0.0827853
0.0278881
0.0781394
0.238315
0.140113
0.0917924
0.00756942
0.0898864
0.0142196
0.0871717
0.020705
0.0836207
0.0267156
0.0794333
0.030276
0.0751876
0.0310578
0.0710999
0.0267305
0.0681794
0.0171072
0.0664335
0.00102907
0.065529
-0.0137193
0.0674179
-0.0463057
0.0757539
-0.0814539
0.0885119
-0.0807001
0.0959372
-0.0282816
0.095992
0.0309814
0.0918248
0.0651957
0.0852433
0.0977684
0.0796038
0.105372
0.0749764
0.100604
0.069962
0.0935681
0.0670277
0.15606
0.0655716
0.123395
0.0618455
-0.0211035
0.0564422
-0.108513
0.0570143
-0.240744
0.0651039
-0.158874
0.0732494
-0.0807324
0.0782887
0.0228488
0.0744351
0.242168
0.145046
0.0887554
0.0088752
0.0867764
0.0161986
0.0838903
0.0235911
0.0800456
0.0305603
0.0755098
0.0348119
0.0708727
0.0356948
0.0664125
0.0311907
0.0630645
0.0204553
0.0605152
0.00357839
0.0581826
-0.0113867
0.0581942
-0.0463172
0.0654493
-0.0887091
0.0792285
-0.0944794
0.0889449
-0.037998
0.0908842
0.0290421
0.0875679
0.068512
0.0813186
0.104018
0.0759471
0.110743
0.071272
0.105279
0.0663292
0.0985109
0.0638305
0.158558
0.0627191
0.124506
0.0594762
-0.0178606
0.0543498
-0.103387
0.0541993
-0.240593
0.0613416
-0.166016
0.0689375
-0.0883283
0.0740328
0.0177534
0.0708755
0.245326
0.14947
0.085662
0.0102442
0.083641
0.0182196
0.0806032
0.026629
0.076485
0.0346784
0.0716237
0.0396732
0.0666012
0.0407173
0.0617947
0.0359971
0.0579621
0.0242879
0.0543105
0.00723
0.0503499
-0.00742609
0.0488723
-0.0448397
0.0551415
-0.0949783
0.0694031
-0.108741
0.0812436
-0.0498385
0.0852708
0.0250149
0.0830926
0.0706902
0.0773895
0.109721
0.0723617
0.115771
0.0676951
0.109946
0.0628567
0.103349
0.0607045
0.160711
0.0598676
0.125343
0.057104
-0.015097
0.0523404
-0.0986233
0.0516801
-0.239933
0.0579241
-0.17226
0.0649369
-0.095341
0.0700131
0.0126772
0.0674621
0.247877
0.153434
0.0823337
0.0116294
0.080321
0.0202322
0.0771754
0.0297746
0.0728364
0.0390175
0.0676935
0.0448161
0.06232
0.0460908
0.0572042
0.0411129
0.0527814
0.0287107
0.0478105
0.012201
0.0424458
-0.00206141
0.0402789
-0.0426727
0.0457759
-0.100475
0.0598297
-0.122795
0.0732877
-0.0632965
0.0793356
0.018967
0.0784501
0.0715757
0.0734629
0.114708
0.0688484
0.120385
0.0642482
0.114546
0.0595413
0.108056
0.0576651
0.162587
0.0570477
0.12596
0.054743
-0.0127922
0.0503938
-0.0942741
0.049396
-0.238935
0.0548056
-0.17767
0.0612271
-0.101763
0.0662223
0.00768202
0.064195
0.249904
0.156985
0.0785293
0.0129623
0.0766102
0.0221513
0.0734444
0.0329404
0.0689829
0.043479
0.0636331
0.0501659
0.0579824
0.0517415
0.0525941
0.0465012
0.0474526
0.0338522
0.041157
0.0184966
0.0350143
0.00408128
0.0330443
-0.0407027
0.0379399
-0.105371
0.0510952
-0.13595
0.0654891
-0.0776904
0.0732934
0.0111626
0.0737221
0.071147
0.0695598
0.11887
0.0654131
0.124532
0.0609328
0.119026
0.0563789
0.11261
0.0547252
0.164241
0.0542842
0.126401
0.052407
-0.0109151
0.0484968
-0.0903639
0.0472971
-0.237735
0.0519465
-0.182319
0.057787
-0.107603
0.0626514
0.00281763
0.0610725
0.251483
0.160167
0.0739922
0.0141858
0.0722726
0.023871
0.0692335
0.0359795
0.0648049
0.0479076
0.0593652
0.0556057
0.053553
0.0575537
0.0479196
0.0521345
0.0419696
0.0398023
0.0346182
0.0258479
0.0285353
0.0101642
0.027444
-0.0396114
0.031819
-0.109746