/*--------------------------------*- C++ -*----------------------------------*\
  =========                 |
  \\      /  F ield         | OpenFOAM: The Open Source CFD Toolbox
   \\    /   O peration     | Website:  https://openfoam.org
    \\  /    A nd           | Version:  7
     \\/     M anipulation  |
\*---------------------------------------------------------------------------*/
FoamFile
{
    version     2.0;
    format      ascii;
    class       volVectorField;
    location    "380";
    object      U;
}
// * * * * * * * * * * * * * * * * * * * * * * * * * * * * * * * * * * * * * //

dimensions      [0 1 -1 0 0 0 0];

internalField   nonuniform List<vector> 
2125
(
(1.40287 -0.093421 -1.30098e-20)
(1.40598 -0.0881736 -3.78199e-20)
(1.40425 -0.077789 -6.39899e-21)
(1.353 -0.0694687 2.63846e-20)
(1.39632 -0.0721172 -3.05395e-21)
(1.40332 -0.0620182 3.20398e-20)
(1.00048 -0.0204929 7.5563e-20)
(1.19605 -0.0404103 -1.5703e-19)
(1.32003 -0.0517278 3.18459e-20)
(1.38134 -0.0560971 -2.46771e-20)
(1.39931 -0.0460464 -3.40085e-20)
(0.6603 0.0110638 1.57136e-20)
(0.91614 -0.00596034 -1.27966e-19)
(1.13033 -0.0235682 8.64539e-20)
(1.2779 -0.0345216 -6.71793e-20)
(1.35977 -0.0401853 6.62405e-20)
(1.39121 -0.0298337 -2.93431e-21)
(0.340253 0.0188228 -6.83195e-22)
(0.572538 0.0164232 5.25291e-20)
(0.825873 0.00548639 2.58748e-21)
(1.05466 -0.0086424 -7.02644e-20)
(1.22552 -0.018154 -2.26075e-21)
(1.33018 -0.0245296 -2.89493e-20)
(1.3778 -0.0133223 3.40665e-20)
(0.12184 0.00645313 9.93486e-21)
(0.276861 0.0148476 2.77638e-20)
(0.487452 0.0179128 -4.71035e-20)
(0.731862 0.0133669 1.1095e-19)
(0.969728 0.00381124 -7.18741e-22)
(1.16207 -0.00303461 -9.58067e-21)
(1.29115 -0.00937496 -5.74186e-20)
(1.35727 0.00342951 -7.62655e-21)
(0.0880481 -0.00125715 7.82203e-21)
(0.22007 0.00830809 -2.01177e-20)
(0.407231 0.0155977 -2.33825e-20)
(0.636887 0.0172631 -1.52048e-20)
(0.877075 0.0131744 -1.14118e-20)
(1.08731 0.0103046 1.35336e-20)
(1.24119 0.00491024 5.55926e-20)
(1.32832 0.0203834 4.07512e-20)
(-0.00148397 -0.014529 4.25911e-20)
(0.0594474 -0.0100126 -9.81056e-20)
(0.17033 -0.000493639 5.47681e-20)
(0.333727 0.00967911 4.7938e-20)
(0.544072 0.0168949 -1.2103e-19)
(0.77924 0.0188145 3.26845e-20)
(1.00174 0.0212325 -2.00385e-21)
(1.17957 0.017767 2.40694e-20)
(1.28758 0.0372596 -4.55739e-20)
(-0.0165121 -0.0134426 1.20595e-19)
(-0.0115225 -0.0211354 -3.32333e-20)
(0.0357256 -0.0197234 4.82992e-20)
(0.127771 -0.0112991 3.03486e-20)
(0.268298 0.000465926 -1.66259e-20)
(0.456505 0.0121991 3.88784e-20)
(0.679673 0.0201896 -1.64621e-20)
(0.907084 0.0289927 9.1913e-20)
(1.10563 0.0286519 -1.48049e-19)
(1.2359 0.0533797 -4.97386e-20)
(-0.0175639 -0.01549 -3.54942e-20)
(-0.0194069 -0.0280226 1.33083e-19)
(0.0164557 -0.0303468 -1.0446e-19)
(0.0922218 -0.0238749 -2.99533e-21)
(0.211716 -0.0116501 -4.82659e-20)
(0.376808 0.00338327 5.26849e-20)
(0.582374 0.0169958 5.76659e-20)
(0.806273 0.0328606 -2.86936e-20)
(1.02067 0.0365852 2.38079e-20)
(1.16639 0.0684094 2.87451e-20)
(-0.0182791 -0.0176423 7.3572e-21)
(-0.0255267 -0.0352951 -3.66469e-20)
(0.00111576 -0.0418483 4.53404e-20)
(0.0632252 -0.0379744 -4.25028e-20)
(0.164136 -0.0261982 -5.1943e-20)
(0.306781 -0.00906518 -2.34421e-20)
(0.49125 0.00934531 -8.76523e-20)
(0.703173 0.0319796 5.40675e-20)
(0.928318 0.0419135 9.96534e-20)
(1.08044 0.0775418 -3.22935e-20)
(-0.0188103 -0.0200094 2.27666e-20)
(-0.0302561 -0.0430498 1.74147e-20)
(-0.0108813 -0.0541622 -4.13834e-21)
(0.0400799 -0.0532987 -7.38474e-20)
(0.125129 -0.0426177 7.68564e-20)
(0.247207 -0.0244151 8.64715e-20)
(0.409258 -0.00217222 2.98984e-20)
(0.603268 0.0252425 -4.14862e-21)
(0.826256 0.0476374 -1.07069e-19)
(1.01244 0.071494 3.23863e-20)
(-0.0192747 -0.0226883 -6.86994e-20)
(-0.033929 -0.0513457 -8.62297e-21)
(-0.0201474 -0.0671609 1.81597e-20)
(0.0219049 -0.0694717 5.71392e-21)
(0.0937765 -0.0602501 2.33454e-20)
(0.197839 -0.041748 -1.39262e-19)
(0.337956 -0.0166963 8.40449e-20)
(0.511413 0.0131981 -1.01869e-19)
(0.719285 0.0496561 7.42985e-20)
(0.936226 0.070023 9.14148e-20)
(-0.0197446 -0.0257469 3.03158e-20)
(-0.0368166 -0.0601807 -1.92069e-20)
(-0.0272714 -0.0806394 8.52705e-21)
(0.00773158 -0.08604 -4.03307e-20)
(0.0688056 -0.0783707 5.44839e-21)
(0.157556 -0.0600302 -1.09772e-20)
(0.277478 -0.033182 -5.27895e-20)
(0.430244 -0.00213552 2.77933e-20)
(0.613709 0.0455875 5.6889e-20)
(0.849829 0.0696963 -8.38459e-20)
(-0.0202451 -0.0292116 -4.18701e-20)
(-0.0391127 -0.0694782 -6.08967e-20)
(-0.0327747 -0.0943149 4.7704e-20)
(-0.00339953 -0.102485 4.60418e-20)
(0.0488014 -0.0962143 -1.13606e-19)
(0.124685 -0.0782059 1.13687e-19)
(0.226788 -0.0504056 -1.28324e-19)
(0.360048 -0.0184855 3.63569e-20)
(0.515482 0.0360903 -3.89782e-20)
(0.755059 0.0674869 -6.48271e-20)
(-0.0207572 -0.0330603 2.15303e-20)
(-0.0409312 -0.0790842 4.88825e-20)
(-0.0370777 -0.107841 1.22572e-20)
(-0.0123366 -0.118267 1.32786e-20)
(0.0323998 -0.113035 -8.54118e-22)
(0.0973529 -0.0952954 2.00657e-20)
(0.184095 -0.0670743 3.95951e-20)
(0.299453 -0.0340348 7.69082e-20)
(0.428234 0.0232596 -7.66638e-20)
(0.656409 0.062927 2.90192e-20)
(-0.0212283 -0.0372226 -5.23031e-20)
(-0.0423145 -0.0887753 9.96121e-22)
(-0.0404868 -0.120832 1.65472e-20)
(-0.0197641 -0.13286 -2.9531e-20)
(0.0184274 -0.128178 5.83815e-20)
(0.0738428 -0.110474 -1.39031e-19)
(0.147365 -0.0820342 7.48924e-20)
(0.24636 -0.0476102 -7.14256e-20)
(0.352609 0.00944927 1.40126e-19)
(0.558637 0.0567171 3.73177e-20)
(-0.0215851 -0.0415841 2.76522e-20)
(-0.0432515 -0.0982746 -5.5222e-20)
(-0.0431991 -0.13289 -1.65944e-20)
(-0.0261745 -0.145793 2.45567e-20)
(0.00600745 -0.141114 4.14371e-20)
(0.0528057 -0.123131 6.67967e-21)
(0.114739 -0.0944559 -2.53705e-20)
(0.198719 -0.058612 5.96301e-20)
(0.287016 -0.00332956 -3.51573e-20)
(0.465316 0.0497175 -4.56677e-21)
(-0.0217482 -0.0459968 7.50636e-20)
(-0.0437002 -0.107273 2.05026e-20)
(-0.045322 -0.143634 3.7611e-21)
(-0.031878 -0.156678 -5.38644e-20)
(-0.00543251 -0.151476 4.8199e-20)
(0.0333268 -0.132905 1.61372e-20)
(0.0848266 -0.103883 8.30808e-21)
(0.155006 -0.0668351 -1.85124e-20)
(0.22901 -0.0137777 2.23784e-20)
(0.378434 0.0426456 3.80949e-20)
(-0.0216449 -0.0502906 -5.58996e-20)
(-0.0436101 -0.115453 3.03994e-20)
(-0.046899 -0.152729 -3.46957e-21)
(-0.0370346 -0.165231 7.7037e-20)
(-0.0161949 -0.159055 -8.47682e-20)
(0.0149146 -0.139657 2.85403e-20)
(0.0568014 -0.110201 -1.79744e-20)
(0.114282 -0.0723641 -1.65283e-20)
(0.176391 -0.0214019 -5.14812e-20)
(0.29869 0.0360091 1.94149e-20)
(-0.0212192 -0.0542873 2.40537e-20)
(-0.0429413 -0.122515 -6.01232e-20)
(-0.0479369 -0.159899 -3.37559e-20)
(-0.0416956 -0.171273 -5.28951e-20)
(-0.0263781 -0.163785 1.46433e-20)
(-0.00260631 -0.14343 -4.59312e-21)
(0.030275 -0.11354 -4.60805e-20)
(0.0761282 -0.0754004 -9.81373e-21)
(0.127732 -0.0263204 -7.8689e-22)
(0.225995 0.0301488 2.29364e-20)
(-0.0204389 -0.057814 4.24906e-20)
(-0.041677 -0.128195 4.29718e-21)
(-0.0484283 -0.164946 1.80863e-20)
(-0.0458442 -0.174728 7.95088e-20)
(-0.0359472 -0.165719 7.96682e-20)
(-0.0192012 -0.144382 -1.40291e-20)
(0.00521078 -0.114167 3.6745e-20)
(0.0404619 -0.0761743 -2.40431e-20)
(0.0823016 -0.0289021 -1.46983e-20)
(0.159858 0.0253728 -3.45841e-20)
(-0.0192979 -0.0607154 -5.45796e-20)
(-0.0398309 -0.132283 4.5312e-20)
(-0.0483679 -0.167754 2.29481e-20)
(-0.0494297 -0.17561 -4.5046e-20)
(-0.0447954 -0.164988 -5.11158e-20)
(-0.0347255 -0.142739 1.63111e-20)
(-0.01826 -0.112374 1.2229e-21)
(0.00733672 -0.0749298 7.43648e-20)
(0.0398311 -0.0295514 4.55701e-20)
(0.0996612 0.0220618 -1.90871e-20)
(-0.0178166 -0.0628647 2.97149e-20)
(-0.0374479 -0.134639 -1.30085e-20)
(-0.0477623 -0.168286 -4.64976e-20)
(-0.0523919 -0.174008 1.95463e-20)
(-0.0527897 -0.161783 -5.59204e-22)
(-0.0489908 -0.138752 -6.6772e-20)
(-0.0399226 -0.108424 -4.07007e-21)
(-0.0231285 -0.0717411 -6.82143e-20)
(0.000291703 -0.0286235 -3.15553e-20)
(0.044862 0.0206185 5.36828e-20)
(-0.0160388 -0.064171 -3.58867e-20)
(-0.0346013 -0.135194 -2.94289e-21)
(-0.046634 -0.166583 -2.08803e-21)
(-0.0546784 -0.170075 -4.20602e-20)
(-0.0597989 -0.156329 6.51986e-21)
(-0.0617978 -0.132678 4.06656e-20)
(-0.0595094 -0.102582 -2.1829e-20)
(-0.0509161 -0.0668421 3.54233e-20)
(-0.0360781 -0.0258449 1.65598e-20)
(-0.00489449 0.021338 -1.92273e-20)
(-0.0140275 -0.0645838 2.26623e-20)
(-0.0313846 -0.13395 4.28879e-20)
(-0.0450227 -0.162758 -9.46386e-21)
(-0.0562522 -0.164007 1.98482e-20)
(-0.0657079 -0.148866 1.35907e-20)
(-0.0729775 -0.124754 -3.33125e-20)
(-0.0768675 -0.0950419 8.30066e-21)
(-0.0757231 -0.0604317 -9.61092e-21)
(-0.0688528 -0.0210312 1.23839e-20)
(-0.0500076 0.0241238 -2.45307e-20)
(-0.011857 -0.0640956 -7.06962e-21)
(-0.0279071 -0.130982 -2.76424e-20)
(-0.0429839 -0.156985 3.83627e-20)
(-0.0570931 -0.156043 -1.96755e-20)
(-0.0704238 -0.13965 9.19354e-21)
(-0.0823746 -0.115215 2.78983e-20)
(-0.0917733 -0.085969 -2.39165e-20)
(-0.0972362 -0.0524688 -6.3604e-21)
(-0.097837 -0.0144388 5.49832e-22)
(-0.0900284 0.0289855 2.94954e-20)
(-0.00960838 -0.0627414 -2.08652e-21)
(-0.0242847 -0.126426 -8.1088e-21)
(-0.040584 -0.149488 -3.36013e-20)
(-0.0572015 -0.146451 6.51629e-21)
(-0.0738823 -0.128953 5.39567e-21)
(-0.0898602 -0.104304 -2.27444e-21)
(-0.104014 -0.0755569 -1.77793e-22)
(-0.115189 -0.0430738 -9.48687e-21)
(-0.122515 -0.00623706 1.33885e-20)
(-0.124162 0.0360283 9.23632e-21)
(-0.00736258 -0.0605936 5.50721e-21)
(-0.0206325 -0.120476 9.85894e-21)
(-0.0378985 -0.140531 2.49316e-20)
(-0.0566004 -0.135524 -1.2823e-20)
(-0.0760525 -0.117064 -1.12151e-20)
(-0.0953434 -0.0922857 -3.89738e-22)
(-0.113414 -0.0640372 2.19974e-20)
(-0.12931 -0.032463 1.03543e-20)
(-0.142319 0.00335701 -9.40582e-21)
(-0.151662 0.0448849 -1.065e-20)
(-0.00519477 -0.0577561 -8.77845e-22)
(-0.0170585 -0.113364 1.90445e-21)
(-0.0350099 -0.13041 -4.7464e-21)
(-0.0553368 -0.123576 3.41575e-21)
(-0.0769429 -0.104286 2.88867e-21)
(-0.0987843 -0.0794454 2.08411e-21)
(-0.11986 -0.051684 -4.31256e-21)
(-0.139384 -0.020924 -1.76346e-20)
(-0.156777 0.0140285 -2.85033e-21)
(-0.171875 0.0550229 5.6717e-21)
(-0.00316999 -0.0543554 1.3735e-21)
(-0.0136603 -0.105348 -3.45318e-21)
(-0.0320067 -0.119438 -2.78592e-21)
(-0.0534832 -0.110932 1.96668e-21)
(-0.0766073 -0.0909392 -2.71192e-21)
(-0.100207 -0.0660941 -1.29541e-21)
(-0.123319 -0.0388117 1.38083e-21)
(-0.145284 -0.00880341 6.79617e-21)
(-0.165596 0.025362 -2.39717e-21)
(-0.184371 0.0658557 2.47809e-21)
(1.08808 -0.00162819 -1.70361e-22)
(1.08868 -0.0015891 4.45513e-22)
(1.08926 -0.00155011 -4.37054e-22)
(1.08982 -0.00151118 1.40536e-22)
(1.09037 -0.00147236 3.37586e-22)
(1.0909 -0.00143358 -8.2881e-25)
(1.0914 -0.00139504 -1.58739e-22)
(1.0919 -0.0013563 -2.53479e-22)
(1.09237 -0.00131868 1.65819e-22)
(1.09283 -0.00127876 -7.07106e-23)
(1.09326 -0.00124561 5.0985e-23)
(1.08912 -0.00481621 -1.29991e-22)
(1.08973 -0.00469122 -3.49655e-23)
(1.09032 -0.00456747 9.78957e-23)
(1.09089 -0.00444498 2.17778e-22)
(1.09145 -0.00432389 -1.86342e-23)
(1.09198 -0.00420405 -5.50836e-23)
(1.0925 -0.00408606 -6.95511e-23)
(1.093 -0.00396856 2.25019e-22)
(1.09348 -0.00385531 5.69325e-23)
(1.09395 -0.00373645 -5.6422e-23)
(1.09438 -0.00363792 -9.26565e-23)
(1.09103 -0.00785013 -2.20927e-22)
(1.09166 -0.00763963 1.61298e-23)
(1.09227 -0.00743137 2.477e-23)
(1.09286 -0.00722538 4.83382e-22)
(1.09343 -0.00702186 -6.40296e-22)
(1.09399 -0.00682056 1.72868e-22)
(1.09452 -0.0066224 1.77049e-22)
(1.09503 -0.00642524 1.00647e-22)
(1.09553 -0.00623497 -9.62668e-23)
(1.09602 -0.00603611 -8.25707e-24)
(1.09648 -0.00586923 5.36576e-24)
(1.09373 -0.010787 2.6103e-22)
(1.09439 -0.0104829 -1.6002e-22)
(1.09503 -0.0101818 4.18335e-22)
(1.09565 -0.00988386 -1.73323e-22)
(1.09625 -0.00958934 -8.3388e-23)
(1.09683 -0.00929796 -4.31379e-22)
(1.09739 -0.00901094 1.68391e-23)
(1.09793 -0.00872555 1.32695e-23)
(1.09845 -0.00844942 1.27911e-22)
(1.09896 -0.00816264 -9.96731e-23)
(1.09945 -0.00791718 1.45976e-22)
(1.09716 -0.0136123 2.12017e-22)
(1.09786 -0.0132043 -1.60151e-22)
(1.09854 -0.0128 -9.55457e-23)
(1.09919 -0.0123997 -6.15476e-23)
(1.09982 -0.0120035 2.05292e-22)
(1.10044 -0.0116113 3.1578e-22)
(1.10103 -0.0112244 -1.1889e-25)
(1.1016 -0.0108398 2.52412e-22)
(1.10215 -0.0104663 -9.18349e-23)
(1.1027 -0.010081 5.39456e-22)
(1.10323 -0.00974295 -2.65596e-22)
(1.10128 -0.016352 -2.13202e-22)
(1.10202 -0.0158265 2.62246e-22)
(1.10274 -0.0153051 -1.88496e-22)
(1.10343 -0.014788 -5.68631e-22)
(1.10411 -0.0142756 5.63636e-23)
(1.10476 -0.0137675 -3.97294e-22)
(1.10539 -0.0132655 1.95046e-22)
(1.106 -0.012766 6.35135e-22)
(1.10659 -0.0122786 -9.4759e-23)
(1.10718 -0.0117794 -5.55259e-22)
(1.10776 -0.0113286 -1.74146e-22)
(1.10603 -0.0190106 5.56159e-23)
(1.10683 -0.0183506 -2.01713e-22)
(1.1076 -0.0176946 5.96188e-22)
(1.10834 -0.0170427 2.76646e-22)
(1.10907 -0.0163955 1.16418e-22)
(1.10977 -0.0157527 1.88814e-22)
(1.11044 -0.0151158 -5.04022e-22)
(1.1111 -0.0144817 -9.67892e-22)
(1.11173 -0.0138593 -4.06535e-22)
(1.11237 -0.0132264 2.60934e-23)
(1.11301 -0.012637 9.20889e-23)
(1.11141 -0.0216007 3.95526e-22)
(1.11226 -0.020786 3.01006e-22)
(1.11309 -0.0199745 3.60143e-22)
(1.1139 -0.0191665 -7.19687e-22)
(1.11467 -0.0183624 8.32278e-22)
(1.11543 -0.0175619 -2.26785e-22)
(1.11616 -0.0167666 7.68617e-22)
(1.11687 -0.0159738 -4.18565e-22)
(1.11755 -0.0151904 6.56718e-22)
(1.11824 -0.0143995 8.82311e-22)
(1.11895 -0.0136394 3.36124e-22)
(1.11738 -0.0241323 3.3856e-22)
(1.11831 -0.0231394 2.76375e-23)
(1.11921 -0.0221481 -1.11006e-21)
(1.12008 -0.0211588 3.82073e-22)
(1.12093 -0.0201717 -1.6126e-22)
(1.12174 -0.0191868 -1.0781e-22)
(1.12253 -0.0182049 5.98411e-22)
(1.1233 -0.0172247 -5.48314e-23)
(1.12403 -0.0162493 -6.45517e-22)
(1.12479 -0.0152716 -1.30244e-21)
(1.12557 -0.0143019 1.19e-22)
(1.12396 -0.0266172 -5.75786e-22)
(1.12497 -0.0254193 1.85521e-22)
(1.12595 -0.0242206 1.3639e-21)
(1.1269 -0.0230213 8.49048e-22)
(1.12782 -0.0218214 -9.80506e-22)
(1.12871 -0.0206211 -4.5024e-22)
(1.12956 -0.0194202 -4.81537e-22)
(1.1304 -0.0182195 2.74388e-22)
(1.1312 -0.017016 5.05935e-22)
(1.13202 -0.0158178 7.61699e-22)
(1.1329 -0.0145934 -2.59096e-22)
(1.13115 -0.0290681 1.21257e-22)
(1.13225 -0.0276355 -1.52453e-21)
(1.13332 -0.0261983 -8.65914e-24)
(1.13436 -0.0247567 -1.19812e-21)
(1.13536 -0.0233104 7.36183e-22)
(1.13633 -0.0218598 1.0936e-21)
(1.13727 -0.0204031 -1.54232e-22)
(1.13818 -0.0189445 -7.98454e-22)
(1.13905 -0.0174715 -4.01392e-22)
(1.13996 -0.0160145 4.67943e-22)
(1.14094 -0.0144832 -4.2306e-22)
(1.13768 -0.0331899 7.60022e-22)
(1.13894 -0.0314991 1.00898e-21)
(1.14015 -0.0297989 -3.45537e-23)
(1.14133 -0.0280891 -1.75191e-21)
(1.14247 -0.0263696 -9.53966e-22)
(1.14357 -0.0246396 -8.08295e-22)
(1.14464 -0.0229 1.29739e-21)
(1.14566 -0.0211465 1.76084e-21)
(1.14666 -0.0193884 6.45974e-22)
(1.14762 -0.0175995 6.35985e-23)
(1.14864 -0.0158413 -7.90985e-22)
(1.14973 -0.0139452 1.69543e-21)
(1.14596 -0.0359134 -4.67815e-22)
(1.14735 -0.0339256 -1.97945e-21)
(1.14869 -0.0319221 3.23821e-22)
(1.14999 -0.0299024 7.2585e-22)
(1.15125 -0.0278662 7.29448e-22)
(1.15247 -0.0258115 -9.24761e-22)
(1.15365 -0.0237406 -1.72255e-21)
(1.15478 -0.0216451 -3.66288e-22)
(1.15588 -0.0195414 8.04846e-22)
(1.15694 -0.0173849 1.73565e-21)
(1.15807 -0.0152781 -5.01785e-22)
(1.15931 -0.012952 -2.34528e-21)
(1.15486 -0.0386851 1.28675e-21)
(1.15639 -0.0363636 3.84708e-22)
(1.15789 -0.0340187 7.85681e-22)
(1.15933 -0.031649 -1.48151e-22)
(1.16073 -0.0292544 -9.33527e-22)
(1.16208 -0.0268314 7.01449e-23)
(1.16339 -0.0243836 -2.64649e-22)
(1.16464 -0.0218974 -1.5524e-21)
(1.16587 -0.019399 -2.73149e-21)
(1.16704 -0.0168188 -3.60912e-21)
(1.16832 -0.0143125 3.63524e-21)
(1.16973 -0.0114844 7.57852e-23)
(1.16438 -0.0415239 1.90076e-21)
(1.16609 -0.0388299 -7.41967e-22)
(1.16776 -0.036103 -6.26854e-22)
(1.16936 -0.033341 1.6616e-22)
(1.17092 -0.0305438 9.84991e-22)
(1.17243 -0.0277058 1.86366e-21)
(1.17388 -0.0248332 -1.16019e-21)
(1.17528 -0.0219046 2.1173e-21)
(1.17666 -0.0189606 -8.17672e-22)
(1.17797 -0.0158979 -9.65021e-22)
(1.17942 -0.0129424 -4.06679e-21)
(1.18104 -0.00953906 -8.43948e-22)
(1.17455 -0.0444489 -1.48981e-21)
(1.17646 -0.041341 1.23074e-21)
(1.17832 -0.038189 2.16383e-21)
(1.18011 -0.0349898 1.17681e-21)
(1.18185 -0.0317431 -6.82303e-22)
(1.18354 -0.0284408 -2.82518e-21)
(1.18517 -0.0250923 4.45969e-21)
(1.18674 -0.0216662 -1.20919e-21)
(1.18828 -0.0182216 2.72624e-21)
(1.18976 -0.0146119 -2.00114e-21)
(1.19139 -0.0111513 2.77187e-21)
(1.19325 -0.0070882 2.5504e-21)
(1.18538 -0.0474742 -2.23617e-22)
(1.18752 -0.04391 -1.62726e-21)
(1.18959 -0.0402889 -2.07994e-21)
(1.1916 -0.0366061 4.21381e-22)
(1.19355 -0.0328621 3.51839e-21)
(1.19544 -0.0290446 -2.00535e-21)
(1.19727 -0.0251679 4.62605e-22)
(1.19903 -0.0211871 -6.53288e-21)
(1.20077 -0.0171853 -1.00365e-21)
(1.20245 -0.0129617 4.56576e-21)
(1.20431 -0.00893822 7.63855e-23)
(1.20647 -0.00413084 -5.24363e-21)
(1.19687 -0.0506152 9.76745e-23)
(1.19926 -0.0465506 6.23169e-22)
(1.20158 -0.0424146 2.15888e-21)
(1.20384 -0.0382006 -1.64452e-21)
(1.20602 -0.03391 -3.7126e-21)
(1.20814 -0.0295256 1.81684e-21)
(1.2102 -0.0250685 1.40831e-21)
(1.21219 -0.0204765 9.56982e-21)
(1.21416 -0.0158632 5.31006e-22)
(1.21607 -0.0109611 -4.60511e-21)
(1.2182 -0.00632153 8.04548e-22)
(1.22072 -0.000692582 -1.16426e-21)
(1.20904 -0.0538833 -4.14633e-22)
(1.21172 -0.0492728 4.07894e-22)
(1.21431 -0.0445753 -5.07943e-22)
(1.21684 -0.0397813 2.60649e-21)
(1.21929 -0.0348945 7.00559e-21)
(1.22167 -0.0298903 7.15304e-21)
(1.22399 -0.0248004 -1.07799e-20)
(1.22624 -0.0195397 1.63952e-21)
(1.22848 -0.0142623 5.67401e-21)
(1.23067 -0.00861763 1.14615e-20)
(1.23311 -0.00331221 -1.84976e-21)
(1.23605 0.00321853 2.71708e-21)
(1.2219 -0.0572829 1.56363e-21)
(1.22488 -0.0520802 9.92448e-22)
(1.22779 -0.0467748 -3.46331e-21)
(1.23061 -0.0413527 -2.19632e-21)
(1.23336 -0.0358223 -2.71468e-21)
(1.23604 -0.030147 6.29003e-22)
(1.23866 -0.0243747 6.3601e-21)
(1.24121 -0.0183872 -5.473e-21)
(1.24376 -0.0123947 -2.84028e-21)
(1.24628 -0.00594145 -1.2264e-20)
(1.24908 7.56098e-05 3.57293e-21)
(1.25254 0.00758611 1.33165e-20)
(1.23545 -0.0608136 3.0232e-21)
(1.23877 -0.0549721 -8.73345e-22)
(1.24201 -0.0490123 2.04999e-21)
(1.24516 -0.0429137 1.16054e-21)
(1.24826 -0.0366942 -7.62745e-21)
(1.25127 -0.0302989 -1.40676e-20)
(1.25425 -0.0238033 9.97654e-21)
(1.25714 -0.0170367 8.67363e-22)
(1.26007 -0.0102891 -5.74337e-21)
(1.26297 -0.00295923 1.19022e-20)
(1.26619 0.00381088 6.45993e-21)
(1.27024 0.0123876 -3.57201e-21)
(1.2497 -0.0644728 -9.38187e-22)
(1.25339 -0.0579459 -1.86688e-21)
(1.25701 -0.0512869 -1.34926e-21)
(1.26052 -0.0444637 -2.38451e-21)
(1.26401 -0.0375105 -4.80929e-21)
(1.26738 -0.0303424 6.78501e-21)
(1.27078 -0.0230837 -1.82081e-20)
(1.27406 -0.0154829 -1.03241e-20)
(1.27746 -0.00795624 5.3353e-21)
(1.28077 0.000315504 -1.23437e-20)
(1.28452 0.00785957 -1.31042e-20)
(1.28912 0.0176071 -1.73076e-20)
(1.26468 -0.0682405 -5.19659e-21)
(1.26878 -0.0609845 3.73568e-21)
(1.27282 -0.0535861 3.61284e-21)
(1.27674 -0.0459986 -2.20125e-21)
(1.28068 -0.038277 2.3606e-21)
(1.28444 -0.0302892 9.30388e-21)
(1.28835 -0.0222296 2.67631e-20)
(1.29196 -0.013721 2.23367e-20)
(1.29595 -0.00538144 -1.46576e-20)
(1.29954 0.00392799 1.03882e-20)
(1.30396 0.0122488 1.87543e-21)
(1.30883 0.0233015 1.25416e-20)
(1.28044 -0.0721081 1.91944e-21)
(1.28498 -0.0640796 -8.49474e-21)
(1.2895 -0.0558988 -1.41804e-20)
(1.29386 -0.0475089 -9.58301e-21)
(1.29833 -0.0389858 2.55513e-20)
(1.30248 -0.0301472 -1.12064e-20)
(1.30701 -0.0212684 -2.15142e-20)
(1.31084 -0.0117961 -1.3001e-20)
(1.31549 -0.00261503 5.52102e-21)
(1.31892 0.00787603 3.00965e-21)
(1.32405 0.0170001 -1.23465e-20)
(1.32834 0.0295768 -1.17823e-20)
(1.29708 -0.07606 5.11882e-22)
(1.3021 -0.0672187 1.79937e-21)
(1.30712 -0.0582086 8.66714e-21)
(1.3119 -0.0489734 -4.68108e-22)
(1.31689 -0.0395906 -9.02448e-21)
(1.32132 -0.0298576 -1.53918e-20)
(1.32644 -0.0201119 3.76077e-21)
(1.3302 -0.00964763 -2.13128e-22)
(1.33558 0.00037239 1.45728e-20)
(1.33806 0.0121347 5.53353e-21)
(1.34392 0.0220627 1.54683e-20)
(1.3458 0.0364594 6.74828e-22)
(1.31464 -0.0800152 5.88349e-21)
(1.32013 -0.0703132 3.45363e-22)
(1.3256 -0.060421 2.40172e-20)
(1.33074 -0.0503004 1.94179e-20)
(1.33607 -0.039984 -1.72545e-20)
(1.34051 -0.0293066 6.94826e-21)
(1.34588 -0.0185597 -6.11812e-21)
(1.34886 -0.00703764 5.65626e-21)
(1.35462 0.00395647 -7.83501e-21)
(1.35476 0.0170257 8.05976e-21)
(1.36133 0.0277275 -1.90188e-20)
(1.3578 0.0441218 2.25335e-20)
(1.33299 -0.0837808 -1.20177e-20)
(1.3388 -0.0731296 8.89358e-21)
(1.34449 -0.062275 -2.03825e-20)
(1.34972 -0.0512154 8.87379e-21)
(1.35502 -0.0399062 3.27847e-20)
(1.35912 -0.0282902 8.24711e-21)
(1.36407 -0.0164376 1.41583e-20)
(1.36545 -0.00388769 -5.01867e-21)
(1.37042 0.00838771 9.01986e-22)
(1.36594 0.0227682 -1.37883e-20)
(1.37223 0.0345454 2.55244e-20)
(1.35867 0.0528713 -1.3076e-20)
(1.35171 -0.0872308 3.37328e-21)
(1.3575 -0.0755245 -1.66264e-20)
(1.36294 -0.0636227 1.14833e-21)
(1.3678 -0.051552 -2.98254e-20)
(1.37232 -0.0392117 -1.91243e-20)
(1.37545 -0.0266748 -1.07206e-20)
(1.37877 -0.0137354 3.33673e-23)
(1.37779 -0.000408315 -8.91753e-21)
(1.37997 0.0132284 2.82484e-20)
(1.36885 0.0283738 8.96589e-21)
(1.37207 0.0418079 -1.87296e-20)
(1.34198 0.0614085 -6.95644e-21)
(1.37001 -0.0905598 1.11075e-20)
(1.37533 -0.0777824 3.22043e-21)
(1.37997 -0.0648359 -1.28322e-20)
(1.38373 -0.0517338 2.25997e-20)
(1.38645 -0.0383726 -2.50527e-20)
(1.38739 -0.0248558 -8.77022e-21)
(1.38696 -0.0108662 5.24407e-21)
(1.38197 0.00318458 -3.76054e-21)
(1.37741 0.0180264 -3.70693e-20)
(1.3585 0.0329918 -3.61494e-20)
(1.35343 0.0480899 1.25826e-20)
(1.30182 0.0663566 -1.32993e-20)
(1.38654 -0.0934445 -3.49044e-21)
(1.39079 -0.0796077 -1.60415e-21)
(1.39386 -0.0656233 6.85442e-21)
(1.3954 -0.0514621 -1.42571e-20)
(1.39484 -0.0370506 3.6355e-20)
(1.39149 -0.0223995 2.81791e-20)
(1.38444 -0.0073173 -1.84449e-20)
(1.37204 0.00786263 2.17043e-20)
(1.35477 0.0238006 2.29926e-20)
(1.32505 0.0389312 9.74323e-21)
(1.30031 0.0551866 4.3039e-21)
(1.22876 0.0687186 3.57374e-20)
(1.0944 -0.0011175 0)
(1.09571 -0.000910461 0)
(1.09716 -0.000728457 0)
(1.09799 -0.000532919 0)
(1.09893 -0.000437233 0)
(1.09949 -0.000251493 0)
(1.09978 -0.000259629 0)
(1.10056 -4.13084e-05 0)
(1.09975 -0.000106184 0)
(1.10128 0.000213064 0)
(1.09848 0.000237181 0)
(1.10071 0.000757886 0)
(1.09431 0.00107711 0)
(1.09607 0.00185851 0)
(1.0838 0.0025603 0)
(1.08284 0.0033374 0)
(1.06359 0.00432596 0)
(1.05732 0.00418893 0)
(1.03601 0.00537019 0)
(1.02195 0.00311349 0)
(1.01348 0.00371861 0)
(0.994315 -9.27373e-05 0)
(1.01375 -0.00465269 0)
(1.03075 -0.00518984 0)
(1.05852 -0.00666083 0)
(1.09558 -0.00119484 0)
(1.06861 -0.00100924 0)
(1.10726 0.00380998 0)
(1.02613 0.00664878 0)
(1.03697 -0.00123251 0)
(1.09555 -0.00325691 0)
(1.09682 -0.00263843 0)
(1.09822 -0.00209745 0)
(1.09895 -0.00151741 0)
(1.09982 -0.0012423 0)
(1.1003 -0.000698437 0)
(1.10053 -0.000743136 0)
(1.10132 -0.000113602 0)
(1.1005 -0.000338641 0)
(1.10217 0.000584173 0)
(1.09943 0.000633005 0)
(1.10193 0.00216293 0)
(1.09563 0.00311234 0)
(1.09763 0.00545622 0)
(1.08533 0.0075563 0)
(1.08439 0.00993898 0)
(1.06471 0.0128743 0)
(1.05817 0.0125558 0)
(1.03614 0.0160889 0)
(1.02118 0.0093816 0)
(1.01248 0.0113855 0)
(0.990674 -0.00015089 0)
(1.01163 -0.0141605 0)
(1.0306 -0.0158415 0)
(1.06078 -0.0200124 0)
(1.09861 -0.00363699 0)
(1.07101 -0.0029203 0)
(1.11057 0.0115958 0)
(1.02496 0.0201085 0)
(1.03462 -0.00349813 0)
(1.0977 -0.00523088 0)
(1.0989 -0.00419214 0)
(1.10018 -0.00329411 0)
(1.10073 -0.00233612 0)
(1.10145 -0.00190778 0)
(1.10179 -0.0010339 0)
(1.1019 -0.00117015 0)
(1.10271 -0.000187781 0)
(1.10184 -0.000645509 0)
(1.1038 0.000791624 0)
(1.10116 0.000812614 0)
(1.10419 0.00326937 0)
(1.09812 0.00485912 0)
(1.10057 0.0087748 0)
(1.08826 0.0123162 0)
(1.0873 0.0164382 0)
(1.06693 0.0213066 0)
(1.05971 0.0210169 0)
(1.03651 0.0269295 0)
(1.01967 0.0158625 0)
(1.01068 0.0198017 0)
(0.983565 0.000146072 0)
(1.00723 -0.0244423 0)
(1.03044 -0.0273997 0)
(1.06502 -0.033596 0)
(1.10453 -0.0062736 0)
(1.07554 -0.00455577 0)
(1.11668 0.0199554 0)
(1.02325 0.0342193 0)
(1.02974 -0.00523747 0)
(1.10075 -0.00700402 0)
(1.10184 -0.00551488 0)
(1.10295 -0.00425125 0)
(1.10321 -0.00291058 0)
(1.10369 -0.00236344 0)
(1.10382 -0.00119134 0)
(1.10371 -0.00150406 0)
(1.10456 -0.000248248 0)
(1.10358 -0.00105339 0)
(1.106 0.000767776 0)
(1.10351 0.000684932 0)
(1.10735 0.00395111 0)
(1.10167 0.00623101 0)
(1.10476 0.0117455 0)
(1.09256 0.0168711 0)
(1.09141 0.0229159 0)
(1.07031 0.0297987 0)
(1.06175 0.0297907 0)
(1.03734 0.0381788 0)
(1.01744 0.0228389 0)
(1.00824 0.0295394 0)
(0.972937 0.00111451 0)
(1.00012 -0.0362251 0)
(1.03053 -0.0405766 0)
(1.07094 -0.0478511 0)
(1.1135 -0.00922419 0)
(1.08186 -0.00577848 0)
(1.12502 0.0291956 0)
(1.02222 0.0496605 0)
(1.02168 -0.00602118 0)
(1.10463 -0.00853031 0)
(1.10556 -0.00654446 0)
(1.10641 -0.00489979 0)
(1.10629 -0.00316222 0)
(1.10641 -0.00254023 0)
(1.10626 -0.00110426 0)
(1.10581 -0.00170811 0)
(1.10672 -0.000280688 0)
(1.10555 -0.00159423 0)
(1.1086 0.000445442 0)
(1.1063 0.000160937 0)
(1.11126 0.00407771 0)
(1.10617 0.00712805 0)
(1.11011 0.0142872 0)
(1.09819 0.0212465 0)
(1.09661 0.0294073 0)
(1.07494 0.0385063 0)
(1.06413 0.0390258 0)
(1.03885 0.0500126 0)
(1.01459 0.0305966 0)
(1.0053 0.0410975 0)
(0.958666 0.0032106 0)
(0.989587 -0.0501923 0)
(1.03103 -0.0560117 0)
(1.07816 -0.0632864 0)
(1.12602 -0.0124633 0)
(1.08949 -0.00639224 0)
(1.13496 0.039225 0)
(1.02364 0.0670468 0)
(1.00965 -0.00508313 0)
(1.10928 -0.00978084 0)
(1.11 -0.007231 0)
(1.11047 -0.00517784 0)
(1.10987 -0.00301619 0)
(1.10947 -0.00236744 0)
(1.10896 -0.000702776 0)
(1.10802 -0.00173981 0)
(1.10899 -0.000262976 0)
(1.10754 -0.00229159 0)
(1.11141 -0.000239912 0)
(1.10938 -0.000871357 0)
(1.11578 0.00351258 0)
(1.11156 0.00743751 0)
(1.11659 0.0163168 0)
(1.10516 0.0254691 0)
(1.10285 0.0359186 0)
(1.08089 0.0475772 0)
(1.06675 0.0488124 0)
(1.0412 0.0625131 0)
(1.01134 0.0394018 0)
(1.00196 0.0549472 0)
(0.940667 0.00703187 0)
(0.974699 -0.0669282 0)
(1.03152 -0.0743276 0)
(1.08631 -0.0804804 0)
(1.14243 -0.0158535 0)
(1.09798 -0.006069 0)
(1.14596 0.0495478 0)
(1.02906 0.0869142 0)
(0.993678 -0.00141019 0)
(1.11465 -0.0107079 0)
(1.11511 -0.00750782 0)
(1.11507 -0.00500614 0)
(1.11385 -0.00238259 0)
(1.11277 -0.00175626 0)
(1.11177 0.000100504 0)
(1.11018 -0.00153666 0)
(1.11118 -0.000161646 0)
(1.10937 -0.00316022 0)
(1.11419 -0.00136842 0)
(1.11257 -0.00253345 0)
(1.12076 0.00211216 0)
(1.11779 0.00702195 0)
(1.1242 0.0177587 0)
(1.11347 0.0295576 0)
(1.11015 0.0424472 0)
(1.08814 0.057142 0)
(1.06962 0.0592031 0)
(1.04439 0.0756599 0)
(1.00814 0.0494718 0)
(0.998326 0.0715682 0)
(0.919114 0.0132435 0)
(0.953919 -0.0867268 0)
(1.02995 -0.0961873 0)
(1.09463 -0.100131 0)
(1.16211 -0.0192752 0)
(1.10723 -0.00446832 0)
(1.15765 0.0595632 0)
(1.03868 0.109529 0)
(0.975419 0.00592637 0)
(1.12074 -0.01127 0)
(1.12085 -0.00731343 0)
(1.12017 -0.00430583 0)
(1.11816 -0.00117438 0)
(1.11621 -0.000617232 0)
(1.11457 0.00139143 0)
(1.11213 -0.00102579 0)
(1.11307 6.76061e-05 0)
(1.11084 -0.00420172 0)
(1.11671 -0.0030038 0)
(1.11575 -0.00493277 0)
(1.12604 -0.000270072 0)
(1.12487 0.00571215 0)
(1.13296 0.0185556 0)
(1.12309 0.0335118 0)
(1.1186 0.0490101 0)
(1.09658 0.0672971 0)
(1.07288 0.0702381 0)
(1.0483 0.0893404 0)
(1.00543 0.0609111 0)
(0.994758 0.0913807 0)
(0.894832 0.0229172 0)
(0.924464 -0.109105 0)
(1.02104 -0.122358 0)
(1.10037 -0.1232 0)
(1.18268 -0.0227795 0)
(1.1174 -0.0014773 0)
(1.16979 0.06888 0)
(1.05128 0.134754 0)
(0.957793 0.0172151 0)
(1.12754 -0.011419 0)
(1.12722 -0.0065807 0)
(1.12571 -0.00298602 0)
(1.12272 0.000703091 0)
(1.1197 0.00116311 0)
(1.1172 0.00327422 0)
(1.11373 -0.000107484 0)
(1.11444 0.000466364 0)
(1.11174 -0.00540542 0)
(1.11869 -0.00520233 0)
(1.11875 -0.00819427 0)
(1.13145 -0.00381417 0)
(1.13279 0.00330794 0)
(1.14292 0.0186681 0)
(1.13406 0.0373176 0)
(1.12825 0.0556611 0)
(1.10604 0.0780969 0)
(1.0767 0.081948 0)
(1.05275 0.103412 0)
(1.00348 0.073608 0)
(0.99212 0.114542 0)
(0.869722 0.0376022 0)
(0.883199 -0.132096 0)
(0.996524 -0.153491 0)
(1.09727 -0.151172 0)
(1.19971 -0.0270217 0)
(1.12809 0.0024604 0)
(1.18181 0.0773722 0)
(1.06511 0.162062 0)
(0.943569 0.0319402 0)
(1.13506 -0.0111074 0)
(1.13421 -0.00524488 0)
(1.13169 -0.000977163 0)
(1.12748 0.0033603 0)
(1.12318 0.00370919 0)
(1.11955 0.00586216 0)
(1.11483 0.0013146 0)
(1.11508 0.00109521 0)
(1.11186 -0.00674849 0)
(1.1199 -0.00803179 0)
(1.12136 -0.0124483 0)
(1.13684 -0.00872648 0)
(1.14162 -0.000431343 0)
(1.15414 0.0180618 0)
(1.14646 0.040963 0)
(1.13914 0.0624958 0)
(1.11636 0.0895589 0)
(1.08131 0.0943447 0)
(1.05747 0.117782 0)
(1.00246 0.0871571 0)
(0.99139 0.140694 0)
(0.846378 0.0590253 0)
(0.832107 -0.152107 0)
(0.950931 -0.189189 0)
(1.07769 -0.185732 0)
(1.20757 -0.0336506 0)
(1.13767 0.00623193 0)
(1.19275 0.0850158 0)
(1.07885 0.190687 0)
(0.934173 0.0492287 0)
(1.14332 -0.010287 0)
(1.1418 -0.00322984 0)
(1.1381 0.00184928 0)
(1.13241 0.00691337 0)
(1.12658 0.00714725 0)
(1.1215 0.00927261 0)
(1.11529 0.00334834 0)
(1.11478 0.00203688 0)
(1.11097 -0.00819849 0)
(1.12009 -0.0115454 0)
(1.12334 -0.0178252 0)
(1.14208 -0.0152488 0)
(1.15138 -0.00570067 0)
(1.16671 0.016696 0)
(1.16042 0.0444641 0)
(1.15121 0.0696491 0)
(1.12739 0.101661 0)
(1.0869 0.107453 0)
(1.06191 0.132415 0)
(1.003 0.100918 0)
(0.992707 0.168887 0)
(0.827307 0.0880205 0)
(0.783617 -0.165611 0)
(0.890758 -0.227072 0)
(1.03944 -0.227422 0)
(1.20222 -0.0445201 0)
(1.1438 0.00841841 0)
(1.2014 0.0916707 0)
(1.09173 0.219846 0)
(0.929636 0.0681305 0)
(1.15238 -0.00891296 0)
(1.15006 -0.000500681 0)
(1.14494 0.00559583 0)
(1.13748 0.0114592 0)
(1.12986 0.011601 0)
(1.12293 0.0136385 0)
(1.11497 0.00613853 0)
(1.11333 0.00338334 0)
(1.10883 -0.00972074 0)
(1.11902 -0.0157675 0)
(1.12437 -0.0244711 0)
(1.14713 -0.0236746 0)
(1.16211 -0.0126902 0)
(1.18077 0.014505 0)
(1.17611 0.0478923 0)
(1.16432 0.0772781 0)
(1.13909 0.114343 0)
(1.09356 0.121369 0)
(1.06536 0.147242 0)