/*--------------------------------*- C++ -*----------------------------------*\
  =========                 |
  \\      /  F ield         | OpenFOAM: The Open Source CFD Toolbox
   \\    /   O peration     | Website:  https://openfoam.org
    \\  /    A nd           | Version:  7
     \\/     M anipulation  |
\*---------------------------------------------------------------------------*/
FoamFile
{
    version     2.0;
    format      ascii;
    class       volVectorField;
    location    "195";
    object      U;
}
// * * * * * * * * * * * * * * * * * * * * * * * * * * * * * * * * * * * * * //

dimensions      [0 1 -1 0 0 0 0];

internalField   nonuniform List<vector> 
2125
(
(-0.0224214 0.0159688 -7.51909e-20)
(-0.0216766 0.0146869 2.72935e-20)
(-0.0184695 0.0219739 2.9612e-20)
(-0.0200109 0.0129688 -1.85698e-20)
(-0.00720653 0.0174933 -1.36551e-20)
(-0.0173117 0.0108843 3.91572e-20)
(0.00716162 0.0125464 -1.07916e-20)
(0.0919976 0.0109169 -6.49609e-21)
(-0.0134698 0.0085264 -1.43732e-20)
(0.024892 0.00739365 -8.59358e-20)
(0.130188 0.00651632 8.89656e-21)
(0.300918 0.0102188 3.08282e-20)
(-0.0083755 0.00600282 -1.59178e-20)
(0.0462053 0.00235058 3.04315e-20)
(0.173866 0.00316085 3.99444e-20)
(0.369706 0.0119002 -2.85406e-20)
(0.61589 0.0331606 1.06183e-20)
(0.871182 0.0633168 -6.44999e-20)
(-0.00192075 0.00343204 -2.07137e-20)
(0.0712654 -0.00222932 -7.1322e-21)
(0.222922 0.00139223 -7.26791e-20)
(0.443315 0.0164709 -1.14249e-20)
(0.704592 0.045272 -1.14658e-21)
(0.956892 0.0803702 3.89566e-21)
(1.15557 0.110782 6.51473e-21)
(0.00599537 0.000941991 -5.46922e-21)
(0.100157 -0.00596845 2.52236e-20)
(0.277025 0.00174849 3.55905e-20)
(0.520368 0.024309 2.22903e-20)
(0.791352 0.0605036 -6.53818e-21)
(1.03471 0.099308 -5.48806e-21)
(1.21228 0.129468 5.38753e-20)
(1.31804 0.146223 7.25659e-21)
(0.0154571 -0.00132885 5.22563e-20)
(0.132864 -0.00847597 3.36631e-20)
(0.335599 0.00472457 -3.4189e-20)
(0.599236 0.0356132 -6.81892e-21)
(0.874175 0.0785682 3.60787e-21)
(1.10377 0.119719 -1.29801e-20)
(1.25892 0.148567 -2.78091e-20)
(1.3432 0.162595 -4.5134e-21)
(1.37656 0.164916 3.03647e-22)
(1.38155 0.156183 1.1209e-20)
(0.0265223 -0.00323188 6.6162e-21)
(0.16925 -0.00935973 -1.84431e-20)
(0.397827 0.0107363 4.37358e-20)
(0.678182 0.0504044 2.84644e-20)
(0.951477 0.0991135 9.46427e-22)
(1.16375 0.141244 2.00583e-20)
(1.29635 0.167882 2.91114e-21)
(1.36122 0.17882 -2.10087e-20)
(1.38161 0.178132 1.76626e-20)
(1.37951 0.168175 1.47849e-23)
(0.0392147 -0.00460931 -4.34302e-20)
(0.209049 -0.0082385 -1.27858e-20)
(0.46269 0.0200916 -1.15025e-20)
(0.755521 0.0685559 -2.0049e-20)
(1.02213 0.12177 4.78637e-21)
(1.21477 0.163588 9.95763e-23)
(1.32556 0.187283 1.54241e-20)
(1.37331 0.194899 -2.53721e-21)
(1.38313 0.191307 -1.82458e-20)
(1.3756 0.180223 -1.6865e-20)
(0.0535159 -0.00529644 3.55372e-21)
(0.251857 -0.00475729 2.08203e-20)
(0.52902 0.0329745 1.01306e-20)
(0.829736 0.089836 -3.15054e-20)
(1.08543 0.14618 -1.52939e-21)
(1.25722 0.186508 -1.34806e-20)
(1.34754 0.20669 3.40963e-22)
(1.3805 0.210859 6.21983e-21)
(1.38185 0.204492 -6.86918e-21)
(1.37022 0.192354 1.91153e-20)
(0.0693605 -0.00512589 8.41129e-21)
(0.297144 0.00139514 -2.04773e-20)
(0.595577 0.0494416 -4.83289e-20)
(0.899566 0.113947 4.44644e-20)
(1.14104 0.17201 -3.29799e-21)
(1.29167 0.209815 9.73196e-21)
(1.36325 0.226055 -1.33277e-21)
(1.38367 0.226729 9.25178e-21)
(1.37834 0.217724 -7.09201e-22)
(1.36367 0.204579 -1.48044e-20)
(0.086633 -0.00393343 -1.71933e-20)
(0.344264 0.0104687 2.67641e-20)
(0.661126 0.0694315 2.20268e-20)
(0.964029 0.140554 -3.18078e-20)
(1.18892 0.198957 -5.28031e-21)
(1.31878 0.233356 1.99268e-21)
(1.37354 0.245352 1.99488e-20)
(1.3835 0.242537 9.75953e-22)
(1.37301 0.231026 3.81383e-21)
(1.35609 0.216888 -8.19818e-21)
(0.105168 -0.00156476 1.30509e-20)
(0.392481 0.0226369 -1.17281e-20)
(0.724498 0.0927803 -1.00336e-20)
(1.02242 0.169305 1.71264e-20)
(1.2292 0.226747 5.87905e-21)
(1.33923 0.257005 4.42903e-21)
(1.37917 0.26456 -2.03531e-20)
(1.38055 0.2583 -6.91923e-21)
(1.36614 0.244399 -6.14043e-21)
(1.34761 0.229253 2.69924e-21)
(0.124753 0.00211721 -6.56269e-21)
(0.440998 0.0379868 -1.50373e-22)
(0.78465 0.119241 1.89989e-20)
(1.07428 0.199843 -6.9361e-21)
(1.26217 0.255128 -3.07317e-21)
(1.35368 0.280656 -2.01194e-21)
(1.38076 0.28366 4.93241e-21)
(1.37524 0.274018 8.44669e-21)
(1.35792 0.257827 -2.7416e-22)
(1.33827 0.241631 3.03299e-21)
(0.145132 0.00722517 4.63215e-21)
(0.488994 0.0565139 -1.30023e-21)
(0.840686 0.148502 -3.41288e-21)
(1.11934 0.23181 -3.08698e-21)
(1.28821 0.283873 2.76609e-21)
(1.36272 0.304215 2.14322e-21)
(1.37885 0.302624 -1.96847e-21)
(1.36786 0.289677 7.02972e-22)
(1.34848 0.271274 9.81382e-22)
(1.3281 0.25397 -1.29242e-21)
(0.166014 0.013841 2.51009e-21)
(0.535654 0.0781233 7.12124e-22)
(0.891878 0.180203 -4.26659e-21)
(1.15752 0.264856 -3.39254e-21)
(1.30772 0.312766 3.51964e-21)
(1.36691 0.327588 6.87278e-22)
(1.37385 0.321414 -1.57285e-21)
(1.35866 0.30524 1.4711e-21)
(1.33789 0.284684 8.11593e-22)
(1.31712 0.266205 -9.20351e-22)
(0.187081 0.0220106 -9.76938e-22)
(0.580199 0.102635 1.99753e-21)
(0.937662 0.213949 1.31898e-20)
(1.18886 0.298636 -5.85326e-21)
(1.32112 0.341605 -2.83334e-21)
(1.36673 0.350681 -3.17028e-21)
(1.36611 0.339976 6.4572e-21)
(1.34779 0.320656 4.29087e-21)
(1.32621 0.297987 3.38802e-21)
(1.30534 0.278264 1.81359e-21)
(0.207998 0.0317405 2.02264e-20)
(0.621917 0.129791 -1.11061e-20)
(0.977625 0.249323 -1.2576e-20)
(1.21348 0.332812 1.70466e-20)
(1.32885 0.370193 8.91735e-21)
(1.36259 0.373394 -5.85438e-22)
(1.3559 0.358242 -1.07908e-20)
(1.33536 0.335851 -7.70559e-21)
(1.31345 0.311095 -7.91866e-21)
(1.29276 0.290071 4.65424e-21)
(0.228423 0.0429962 -2.73924e-20)
(0.660171 0.159271 2.57385e-20)
(1.0115 0.28589 2.95699e-20)
(1.23158 0.367056 -2.89848e-20)
(1.33131 0.398339 -9.94347e-21)
(1.35487 0.395618 6.32156e-21)
(1.34341 0.37613 1.13406e-20)
(1.32146 0.35074 1.76271e-21)
(1.29962 0.323908 -2.89476e-22)
(1.27934 0.301542 -6.30369e-21)
(0.248015 0.0557022 -3.962e-21)
(0.694422 0.190696 -3.62936e-20)
(1.03913 0.323213 -3.87524e-20)
(1.24341 0.401047 4.32052e-20)
(1.32887 0.425853 -4.88932e-21)
(1.34386 0.41724 8.84749e-21)
(1.32883 0.393546 1.6989e-21)
(1.30613 0.365228 -4.79727e-21)
(1.28471 0.336325 2.57343e-21)
(1.265 0.312595 -3.36661e-22)
(0.266448 0.0697442 8.04502e-21)
(0.72423 0.223647 2.25447e-20)
(1.06047 0.360848 1.27131e-20)
(1.24926 0.434475 -9.99348e-21)
(1.32191 0.452545 -1.54237e-20)
(1.32985 0.438133 -1.41694e-20)
(1.31228 0.410385 -2.82472e-21)
(1.28942 0.379219 7.41022e-21)
(1.2687 0.348277 -1.5604e-21)
(1.24955 0.323161 3.4966e-21)
(0.283414 0.0849721 -3.05345e-20)
(0.749259 0.257674 -2.83942e-20)
(1.07558 0.398358 -4.49672e-21)
(1.24944 0.467038 -5.06988e-21)
(1.31077 0.478225 -1.13725e-20)
(1.31305 0.458164 6.8468e-21)
(1.29389 0.426531 -1.22555e-21)
(1.27139 0.392616 -6.43709e-21)
(1.25162 0.359748 5.83215e-21)
(1.23298 0.333138 -8.24297e-21)
(0.298636 0.101203 7.20543e-21)
(0.769279 0.29231 2.40848e-20)
(1.08456 0.435312 2.08679e-20)
(1.24425 0.498444 2.2565e-20)
(1.29575 0.502706 4.34267e-22)
(1.29369 0.477193 1.93417e-20)
(1.27374 0.441853 1.24462e-21)
(1.25207 0.405291 -2.21126e-20)
(1.2335 0.370701 1.56108e-20)
(1.2157 0.342385 5.65475e-21)
(0.311872 0.118227 1.9826e-20)
(0.784152 0.327085 4.42907e-20)
(1.0876 0.471293 -5.82724e-21)
(1.23404 0.528412 -2.84638e-20)
(1.27716 0.525802 1.27205e-20)
(1.27194 0.495077 -1.30731e-20)
(1.25195 0.456218 -1.72039e-20)
(1.23156 0.417119 -1.42023e-21)
(1.21432 0.380893 -1.28683e-20)
(1.19784 0.350993 4.87374e-21)
(0.32292 0.135811 9.35812e-21)
(0.793831 0.361527 6.98745e-21)
(1.08493 0.505901 5.51223e-20)
(1.21915 0.556672 1.02277e-20)
(1.25528 0.547331 -8.88269e-21)
(1.24798 0.511666 -4.48483e-21)
(1.22866 0.469487 2.63611e-20)
(1.20987 0.428008 2.13329e-20)
(1.19409 0.390205 1.04203e-20)
(1.17927 0.358763 -1.36541e-21)
(0.331624 0.153708 1.97926e-21)
(0.798345 0.39518 -4.5342e-20)
(1.07682 0.538754 -6.4895e-20)
(1.19992 0.582967 1.99786e-21)
(1.23039 0.567112 1.24548e-20)
(1.22202 0.526801 -1.72375e-20)
(1.20395 0.481528 -3.85391e-20)
(1.18704 0.43784 -1.12631e-20)
(1.17294 0.398533 -6.74184e-22)
(1.15999 0.365608 4.99912e-21)
(0.337868 0.17166 -1.62812e-20)
(0.797799 0.427601 4.11017e-20)
(1.06361 0.569499 3.90753e-20)
(1.17669 0.607054 -3.58528e-20)
(1.20275 0.584958 5.46058e-21)
(1.19422 0.540336 4.15083e-20)
(1.1779 0.492208 -9.09662e-21)
(1.16315 0.446496 7.51155e-21)
(1.15093 0.405777 -3.45255e-21)
(1.14002 0.371433 -4.45075e-21)
(0.341586 0.189404 -3.67911e-20)
(0.792375 0.458366 -6.47474e-20)
(1.04568 0.597823 -1.26396e-20)
(1.14978 0.6287 2.0652e-20)
(1.17261 0.600692 2.01011e-20)
(1.16475 0.552112 -4.14315e-20)
(1.15064 0.5014 2.21757e-20)
(1.13828 0.453865 -1.13001e-20)
(1.12811 0.411839 8.79774e-21)
(1.11944 0.376171 3.37709e-22)
(0.342758 0.20668 2.80599e-20)
(0.782333 0.487064 1.90334e-21)
(1.02338 0.623443 -6.2832e-21)
(1.11945 0.647681 -2.56817e-20)
(1.14025 0.614144 1.65897e-20)
(1.13379 0.561983 3.44657e-21)
(1.12228 0.508979 -1.26888e-20)
(1.11254 0.459839 2.26605e-21)
(1.10458 0.416621 -2.21108e-21)
(1.09834 0.379743 9.14738e-22)
(0.341433 0.223236 -7.75202e-21)
(0.768001 0.513347 -1.09201e-20)
(0.99687 0.646003 2.7473e-20)
(1.08612 0.66385 1.26716e-20)
(1.10598 0.625134 -1.70171e-20)
(1.10151 0.569823 2.38186e-20)
(1.09297 0.514831 1.73306e-21)
(1.08604 0.464319 2.07876e-21)
(1.08042 0.420019 5.98683e-22)
(1.0768 0.382052 2.55646e-22)
(0.337702 0.238818 5.04103e-20)
(0.749687 0.537044 3.87708e-20)
(0.966361 0.665145 -2.54674e-21)
(1.05028 0.676969 -6.02267e-21)
(1.07005 0.63356 -6.94365e-21)
(1.06812 0.575514 -3.30054e-21)
(1.06284 0.518851 1.87539e-21)
(1.05888 0.467218 1.55126e-21)
(1.05572 0.421939 -7.39749e-23)
(1.0549 0.382998 -2.87768e-21)
(0.331646 0.25308 4.44092e-21)
(0.727524 0.557845 6.90917e-21)
(0.932609 0.68092 -3.61464e-20)
(1.0123 0.686792 1.60746e-20)
(1.03272 0.639301 4.55391e-21)
(1.0338 0.57895 -9.84328e-21)
(1.03205 0.520945 3.12657e-21)
(1.03118 0.468457 1.07801e-21)
(1.03061 0.42231 -3.33116e-21)
(1.03286 0.38253 3.80251e-21)
(0.323264 0.265738 -1.91283e-20)
(0.701752 0.575223 -1.41513e-20)
(0.896181 0.693128 1.19038e-20)
(0.972495 0.693284 3.31871e-21)
(0.994242 0.642252 -6.08878e-21)
(0.998752 0.580034 5.58073e-21)
(1.00072 0.521021 1.95993e-21)
(1.00302 0.467944 -6.61462e-21)
(1.00533 0.42106 1.89101e-20)
(1.01133 0.380687 7.94565e-21)
(0.312788 0.276579 -1.4958e-20)
(0.672883 0.588899 3.829e-20)
(0.857396 0.701545 -2.45075e-20)
(0.931187 0.696371 -3.26192e-21)
(0.954891 0.642327 -4.32702e-21)
(0.963152 0.578686 4.19003e-22)
(0.968963 0.518994 -6.33406e-21)
(0.974539 0.465544 3.55305e-21)
(0.980297 0.417991 -3.28031e-22)
(0.991013 0.377487 -3.45022e-21)
(0.300484 0.285598 -8.81445e-22)
(0.641374 0.598776 -1.13324e-20)
(0.816662 0.705971 6.5692e-21)
(0.888725 0.695969 -3.79968e-21)
(0.914925 0.639464 3.28697e-21)
(0.927191 0.574853 4.2107e-21)
(0.936915 0.514819 1.28645e-20)
(0.945927 0.461161 -1.01265e-20)
(0.955881 0.412743 -1.97972e-20)
(0.97118 0.372242 8.80877e-21)
(0.286478 0.292594 6.14852e-22)
(0.607687 0.604726 -1.48593e-21)
(0.774406 0.706302 7.46432e-22)
(0.845461 0.692016 3.53426e-21)
(0.874611 0.633619 -9.03114e-21)
(0.891066 0.568503 -1.68803e-20)
(0.904764 0.508491 -5.04847e-21)
(0.91747 0.454918 -1.69787e-21)
(0.932076 0.405541 2.71791e-20)
(0.948914 0.361394 -5.76796e-21)
(0.27099 0.297417 -3.04927e-21)
(0.572269 0.606645 -4.65008e-21)
(0.731059 0.702485 1.26884e-21)
(0.801745 0.684474 1.00958e-21)
(0.834216 0.624766 -7.65647e-21)
(0.854996 0.559608 3.30163e-20)
(0.872772 0.499974 -2.38188e-20)
(0.889384 0.446877 2.89687e-20)
(0.907803 0.398212 -2.04333e-20)
(0.924496 0.355502 -2.74135e-20)
(0.254269 0.299957 5.12311e-22)
(0.535554 0.604457 -1.90993e-21)
(0.687046 0.6945 8.53363e-22)
(0.757923 0.673332 1.17748e-20)
(0.794007 0.612894 -5.29935e-21)
(0.819209 0.548147 8.10495e-21)
(0.841143 0.489217 1.39438e-20)
(0.861679 0.436769 -7.39983e-21)
(0.883388 0.388619 -1.99584e-20)
(0.901154 0.346141 2.76337e-20)
(0.236574 0.300132 8.76849e-21)
(0.497977 0.598128 1.14529e-20)
(0.64279 0.68236 -1.17348e-20)
(0.714338 0.658608 -1.04612e-20)
(0.754253 0.598017 3.95355e-20)
(0.783926 0.534135 -4.08367e-20)
(0.810031 0.47627 4.96427e-20)
(0.834378 0.424828 -1.25176e-20)
(0.859072 0.377767 1.34763e-20)
(0.878555 0.336477 2.53939e-20)
(0.218167 0.297893 -2.90541e-21)
(0.459968 0.587658 -1.16749e-20)
(0.5987 0.666109 -7.98156e-21)
(0.671324 0.640346 -4.20348e-21)
(0.715217 0.580169 5.33983e-21)
(0.749368 0.517592 -1.09121e-20)
(0.779607 0.461133 -1.48281e-20)
(0.807642 0.410981 -3.28127e-20)
(0.835202 0.365248 3.26579e-20)
(0.856806 0.325341 -1.05756e-20)
(0.199313 0.293214 2.37952e-20)
(0.42195 0.573087 -3.18278e-21)
(0.555178 0.645818 -1.13032e-20)
(0.629206 0.618613 1.42486e-20)
(0.677161 0.559402 -2.56925e-20)
(0.715746 0.498563 6.9799e-20)
(0.75004 0.443859 -3.74123e-20)
(0.781639 0.395314 3.41414e-20)
(0.811999 0.351225 -6.28405e-20)
(0.835937 0.312892 -1.67525e-20)
(0.180276 0.286102 -6.96081e-21)
(0.384339 0.554491 2.54071e-20)
(0.512608 0.621592 5.81996e-21)
(0.588299 0.593503 -1.34479e-20)
(0.640335 0.535793 -2.33446e-20)
(0.683269 0.477108 -7.04766e-22)
(0.721502 0.424496 1.24929e-20)
(0.756534 0.377857 -3.08007e-20)
(0.789624 0.335667 1.51875e-20)
(0.815996 0.299056 2.00919e-21)
(0.161316 0.276589 -4.22543e-20)
(0.347535 0.53198 -1.03077e-20)
(0.471363 0.59356 -2.92941e-21)
(0.548906 0.565132 3.4919e-20)
(0.604985 0.509435 -3.26633e-20)
(0.652136 0.453307 -8.45268e-21)
(0.694166 0.403113 -5.21324e-21)
(0.732489 0.35867 9.60332e-21)
(0.768218 0.318617 -1.22634e-20)
(0.797052 0.28387 -1.9146e-20)
(0.142687 0.264734 3.79116e-20)
(0.31192 0.5057 -2.16955e-20)
(0.431795 0.561882 1.00465e-21)
(0.511313 0.533638 -5.30865e-20)
(0.571343 0.480444 5.78602e-20)
(0.622544 0.427255 -1.83755e-20)
(0.668198 0.379794 1.10281e-20)
(0.70965 0.337819 9.63176e-21)
(0.747906 0.300119 2.7991e-20)
(0.779178 0.26738 -1.15191e-20)
(0.124633 0.250621 -1.5388e-20)
(0.277862 0.475825 4.50975e-20)
(0.394239 0.526742 2.55519e-20)
(0.475794 0.499182 4.21514e-20)
(0.53963 0.448951 -9.77048e-21)
(0.594677 0.399064 3.93486e-21)
(0.643757 0.354633 3.1902e-20)
(0.688158 0.315384 7.14405e-21)
(0.728804 0.280235 6.86618e-22)
(0.762453 0.249652 -1.37941e-20)
(0.107389 0.234358 -3.60045e-20)
(0.245702 0.442561 -2.60862e-21)
(0.359008 0.48835 -1.50956e-20)
(0.442606 0.461946 -6.80647e-20)
(0.510056 0.415108 -6.59881e-20)
(0.568711 0.368861 1.10047e-20)
(0.620994 0.327739 -2.72094e-20)
(0.668144 0.291454 1.74358e-20)
(0.711024 0.259041 9.48257e-21)
(0.746953 0.230766 1.97998e-20)
(0.0911746 0.216074 5.32575e-20)
(0.215761 0.406139 -4.36254e-20)
(0.326392 0.446939 -2.22498e-20)
(0.411985 0.422128 3.93703e-20)
(0.482816 0.379083 4.49702e-20)
(0.54481 0.336789 -1.49699e-20)
(0.600049 0.299236 -1.94665e-21)
(0.649729 0.266133 -5.42002e-20)
(0.69467 0.236627 -3.06834e-20)
(0.73275 0.21081 1.17276e-20)
(0.0761935 0.195921 -3.03499e-20)
(0.188334 0.366817 1.27763e-20)
(0.296657 0.402763 4.71996e-20)
(0.384149 0.379947 -2.12931e-20)
(0.458088 0.341058 1.71212e-21)
(0.523126 0.303004 6.02715e-20)
(0.581053 0.269256 2.7616e-21)
(0.633025 0.239536 5.19593e-20)
(0.679838 0.213091 2.16901e-20)
(0.719913 0.18988 -3.45228e-20)
(0.0626326 0.174069 4.23024e-20)
(0.163686 0.324874 4.71969e-21)
(0.270045 0.356095 3.08915e-21)
(0.359296 0.335638 4.32738e-20)
(0.436035 0.30123 -5.75428e-21)
(0.503796 0.267673 -3.78392e-20)
(0.564122 0.237944 1.85586e-20)
(0.618136 0.211785 -2.96842e-20)
(0.666617 0.188543 -1.24144e-20)
(0.708506 0.168079 1.25621e-20)
(0.0506593 0.150703 -2.63689e-20)
(0.142054 0.280612 -5.07801e-20)
(0.246769 0.307225 1.17728e-20)
(0.337601 0.289449 -2.30559e-20)
(0.416803 0.25981 -1.39174e-20)
(0.486944 0.230976 3.37924e-20)
(0.549363 0.205454 -8.17706e-21)
(0.605154 0.183015 7.55241e-21)
(0.65509 0.1631 -9.20357e-21)
(0.698584 0.145513 1.82765e-20)
(0.0404204 0.126026 9.59828e-21)
(0.123646 0.23435 3.42573e-20)
(0.227015 0.256459 -4.76659e-20)
(0.319218 0.241642 2.25344e-20)
(0.400518 0.217018 -1.0282e-20)
(0.472677 0.193103 -2.89564e-20)
(0.536869 0.17195 2.36582e-20)
(0.59416 0.153365 4.96199e-21)
(0.645326 0.136885 -7.62374e-22)
(0.690197 0.122293 -2.12516e-20)
(0.0320407 0.100252 3.15742e-21)
(0.108637 0.18642 1.10811e-20)
(0.21094 0.204116 4.3188e-20)
(0.304276 0.192489 -8.2975e-21)
(0.387287 0.173086 -6.5419e-21)
(0.461086 0.154251 2.41667e-21)
(0.526716 0.137602 1.07553e-21)
(0.585223 0.122983 8.8354e-21)
(0.637388 0.110029 -1.16146e-20)
(0.683387 0.0985328 -7.38904e-21)
(0.0256219 0.073605 -7.87352e-21)
(0.0971676 0.137171 -1.3483e-20)
(0.198672 0.150527 -3.36303e-20)
(0.292879 0.142273 1.69298e-20)
(0.377197 0.128252 1.38063e-20)
(0.452246 0.114625 5.86394e-22)
(0.51897 0.102587 -2.30934e-20)
(0.578401 0.0920225 -1.02572e-20)
(0.631325 0.0826666 8.13182e-21)
(0.678188 0.074348 8.70452e-21)
(0.021242 0.0463198 1.37321e-21)
(0.0893469 0.0869574 -2.83286e-21)
(0.190307 0.0960295 6.38311e-21)
(0.285108 0.0912823 -4.32427e-21)
(0.370315 0.0827618 -3.81823e-21)
(0.446213 0.0744362 -2.58868e-21)
(0.51368 0.0670855 4.75254e-21)
(0.573736 0.0606398 1.81077e-20)
(0.627176 0.054933 2.62383e-21)
(0.674625 0.0498479 -4.65159e-21)
(0.281016 0.0398121 -3.67158e-21)
(0.366686 0.0368649 3.49551e-21)
(0.443025 0.0338981 1.57698e-21)
(0.510878 0.0312833 -1.57116e-21)
(0.571258 0.028996 -7.15663e-21)
(0.624963 0.0269697 2.3559e-21)
(0.672709 0.0251507 -2.20326e-21)
(1.31175 0.237253 -1.47989e-22)
(1.32175 0.227025 -1.46054e-21)
(1.33115 0.216676 -3.00397e-22)
(1.33993 0.206251 -8.89431e-22)
(1.34809 0.195791 5.0423e-21)
(1.35559 0.185334 -4.77681e-21)
(1.36238 0.174909 3.00272e-21)
(1.36835 0.164532 1.24229e-20)
(1.298 0.22462 -3.55818e-23)
(1.30776 0.215476 1.24941e-21)
(1.31705 0.206221 1.08684e-21)
(1.32588 0.196888 -5.36886e-21)
(1.33425 0.18751 1.75262e-21)
(1.34215 0.178118 -1.08496e-21)
(1.34957 0.168743 3.0154e-21)
(1.35645 0.159409 -5.90893e-21)
(1.28488 0.211826 3.95064e-22)
(1.29407 0.203626 9.03436e-22)
(1.30295 0.195331 5.19612e-22)
(1.31151 0.186971 2.64649e-21)
(1.31978 0.178571 3.52922e-21)
(1.32775 0.170156 5.15955e-21)
(1.33543 0.161749 -1.57032e-22)
(1.3428 0.153375 9.75656e-22)
(1.27293 0.199283 -1.30382e-22)
(1.28146 0.191889 -1.54962e-21)
(1.28976 0.184423 -1.4411e-21)
(1.29786 0.176905 1.05943e-21)
(1.30577 0.169355 -3.98909e-21)
(1.3135 0.16179 -9.32269e-21)
(1.32109 0.154227 4.13545e-21)
(1.32852 0.146683 5.06483e-22)
(1.26197 0.187157 1.72297e-23)
(1.26987 0.180461 7.68168e-22)
(1.27759 0.173696 1.95216e-21)
(1.28516 0.166881 7.52294e-22)
(1.2926 0.16003 -1.60292e-22)
(1.29994 0.153158 2.26858e-21)
(1.30719 0.146275 1.76944e-21)
(1.31436 0.139394 -2.00057e-21)
(1.25168 0.175405 1.31644e-24)
(1.25901 0.169311 8.16824e-22)
(1.26619 0.163151 -1.4133e-21)
(1.27325 0.156936 -1.07871e-21)
(1.28022 0.150678 6.93574e-22)
(1.2871 0.144388 1.52655e-21)
(1.29393 0.138073 -2.68178e-21)
(1.30071 0.131742 -1.30359e-21)
(1.24181 0.163949 7.835e-23)
(1.24861 0.158393 -8.49244e-22)
(1.2553 0.152769 1.27153e-21)
(1.26189 0.147088 8.15177e-22)
(1.26841 0.141358 1.59154e-21)
(1.27485 0.135585 -6.63602e-22)
(1.28125 0.129778 -4.41529e-21)
(1.28762 0.123943 2.94889e-21)
(1.23233 0.152792 -1.85848e-22)
(1.23862 0.14772 -3.78959e-22)
(1.24483 0.142581 -4.20978e-22)
(1.25096 0.137382 -4.7736e-22)
(1.25703 0.132129 2.90651e-22)
(1.26305 0.126827 1.81071e-21)
(1.26904 0.121484 4.86457e-21)
(1.275 0.116101 1.02784e-21)
(1.2231 0.142013 8.96132e-23)
(1.22891 0.137362 -2.69978e-23)
(1.23466 0.132649 -1.71155e-22)
(1.24035 0.127877 -8.0322e-22)
(1.24599 0.12305 -1.4241e-21)
(1.25159 0.118171 -1.89261e-21)
(1.25718 0.113245 -1.27925e-21)
(1.26274 0.108273 -1.85394e-21)
(1.2141 0.131577 5.69844e-23)
(1.21945 0.127311 6.86196e-22)
(1.22475 0.122984 5.91638e-23)
(1.23 0.118599 5.91884e-22)
(1.23522 0.114158 3.84382e-23)
(1.24042 0.109663 -2.69502e-21)
(1.2456 0.105119 -1.83762e-22)
(1.25076 0.100524 1.59003e-21)
(1.20529 0.121539 -1.37671e-22)
(1.21019 0.117615 1.78641e-22)
(1.21506 0.113635 -1.95512e-22)
(1.2199 0.109599 -3.85376e-22)
(1.22471 0.105508 -5.71307e-22)
(1.22949 0.101364 1.81349e-21)
(1.23427 0.0971682 8.79491e-22)
(1.23905 0.092922 -1.49735e-21)
(1.19661 0.111872 4.43844e-23)
(1.20111 0.108266 -5.8664e-22)
(1.20557 0.104606 3.2139e-22)
(1.21 0.100892 2.31192e-23)
(1.21441 0.0971254 6.28232e-22)
(1.21881 0.0933066 -6.59781e-22)
(1.2232 0.0894367 8.85574e-22)
(1.22759 0.0855157 1.17714e-21)
(1.18813 0.102603 2.80762e-23)
(1.19223 0.0992956 2.38884e-22)
(1.19629 0.0959346 -5.75537e-22)
(1.20033 0.0925213 -1.04722e-22)
(1.20436 0.0890564 -6.58941e-22)
(1.20838 0.0855405 7.24815e-22)
(1.21238 0.081974 -2.77483e-21)
(1.21639 0.078357 -1.69168e-21)
(1.1798 0.0937742 -6.94591e-23)
(1.18351 0.0907359 7.64123e-23)
(1.18721 0.0876482 4.72427e-22)
(1.19088 0.0845119 -2.64666e-22)
(1.19454 0.0813271 1.07435e-21)
(1.19819 0.0780937 -3.83527e-22)
(1.20183 0.0748119 5.50906e-22)
(1.20546 0.0714815 9.55547e-22)
(1.17163 0.085364 6.7515e-23)
(1.17499 0.0825805 -2.61095e-23)
(1.17833 0.0797512 -3.8362e-22)
(1.18165 0.0768764 8.87386e-22)
(1.18496 0.073956 -5.15517e-22)
(1.18826 0.0709899 4.48514e-22)
(1.19155 0.0679778 4.70499e-22)
(1.19483 0.0649195 1.91405e-22)
(1.16363 0.0773865 3.65157e-23)
(1.16666 0.0748435 6.32227e-23)
(1.16967 0.0722579 1.81888e-22)
(1.17267 0.0696301 -6.55581e-22)
(1.17565 0.06696 -4.29247e-22)
(1.17862 0.0642472 8.30624e-23)
(1.18157 0.0614915 -4.2135e-22)
(1.18452 0.0586925 4.76952e-22)
(1.18747 0.0558499 -1.89641e-21)
(1.15582 0.0698472 -5.36573e-23)
(1.15855 0.0675297 -1.63212e-23)
(1.16125 0.0651742 -1.12207e-24)
(1.16394 0.0627803 4.65223e-22)
(1.16662 0.0603475 3.14051e-22)
(1.16928 0.0578754 -2.03282e-22)
(1.17192 0.0553639 -3.90098e-22)
(1.17456 0.0528125 8.16553e-23)
(1.17719 0.0502208 2.89722e-22)
(1.14821 0.0627253 3.87922e-23)
(1.15066 0.0606239 -7.62501e-24)
(1.15309 0.0584885 1.52945e-22)
(1.15549 0.0563183 -1.5525e-22)
(1.15789 0.0541127 -2.95925e-23)
(1.16026 0.0518716 4.23538e-22)
(1.16262 0.0495945 1.78958e-22)
(1.16497 0.0472811 -5.63465e-22)
(1.1673 0.0449309 -2.48759e-22)
(1.14086 0.056012 -3.91223e-23)
(1.14305 0.0541199 -4.98898e-23)
(1.14522 0.0521962 -3.19893e-23)
(1.14737 0.0502408 -2.42408e-23)
(1.1495 0.0482536 -2.60233e-22)
(1.15161 0.0462342 2.88319e-22)
(1.1537 0.0441823 -2.01514e-22)
(1.15578 0.0420975 -4.67762e-22)
(1.15784 0.0399793 6.86532e-22)
(1.13378 0.0497077 -1.87631e-23)
(1.13573 0.0480132 5.05377e-23)
(1.13767 0.0462906 -1.58856e-23)
(1.13958 0.04454 -6.32794e-23)
(1.14148 0.0427612 7.50992e-23)
(1.14335 0.0409537 -1.93005e-22)
(1.1452 0.0391173 3.38709e-22)
(1.14703 0.0372517 3.13717e-22)
(1.14885 0.0353564 -4.38191e-23)
(1.12701 0.0437835 2.73686e-23)
(1.12876 0.0422787 -3.13041e-23)
(1.13048 0.0407494 -1.63916e-23)
(1.13219 0.0391955 -7.40033e-23)
(1.13386 0.0376167 2.82672e-23)
(1.13552 0.0360128 7.5209e-23)
(1.13715 0.0343835 -3.20975e-23)
(1.13877 0.0327284 -3.68463e-22)
(1.14035 0.0310473 2.59541e-22)
(1.12061 0.0382193 1.51646e-24)
(1.12217 0.0368964 -2.80114e-23)
(1.1237 0.0355523 -3.83048e-23)
(1.12522 0.0341868 2.5018e-23)
(1.1267 0.0327998 1.09244e-22)
(1.12817 0.0313909 -1.08906e-22)
(1.1296 0.02996 -2.31374e-22)
(1.13102 0.0285069 2.70527e-22)
(1.13241 0.0270311 -4.06766e-22)
(1.11461 0.032986 -1.98985e-24)
(1.11601 0.0318376 -8.17235e-24)
(1.11738 0.0306711 4.31995e-23)
(1.11872 0.0294864 -1.13603e-23)
(1.12004 0.0282833 -9.61808e-23)
(1.12133 0.0270615 1.34332e-22)
(1.1226 0.0258209 -1.69988e-22)
(1.12384 0.0245613 -1.02333e-22)
(1.12505 0.0232823 3.25635e-22)
(1.10909 0.0280507 -8.48881e-24)
(1.11034 0.0270699 2.21852e-23)
(1.11156 0.026074 2.43903e-23)
(1.11276 0.0250627 -2.93027e-23)
(1.11393 0.0240361 -2.9361e-24)
(1.11508 0.0229938 -1.20478e-22)
(1.11619 0.0219356 -1.05557e-23)
(1.11728 0.0208614 1.36438e-22)
(1.11833 0.019771 -2.20585e-22)
(1.10408 0.0233755 2.89152e-25)
(1.10521 0.022556 2.98101e-24)
(1.10632 0.0217242 7.73691e-25)
(1.10739 0.0208798 2.07852e-23)
(1.10843 0.0200227 1.09069e-22)
(1.10945 0.0191527 -8.21114e-23)
(1.11043 0.0182698 5.11524e-23)
(1.11139 0.0173736 1.52929e-24)
(1.11231 0.0164641 -1.37542e-22)
(1.09968 0.0189161 4.60572e-24)
(1.10071 0.0182523 -1.10591e-23)
(1.10171 0.0175786 3.95429e-24)
(1.10267 0.0168949 -3.39743e-23)
(1.10361 0.0162012 1.12751e-23)
(1.10452 0.0154971 2.74222e-23)
(1.1054 0.0147826 6.69534e-23)
(1.10624 0.0140576 1.53822e-23)
(1.10706 0.0133218 -1.2469e-23)
(1.09595 0.0146258 3.25081e-24)
(1.09689 0.0141132 -1.67945e-24)
(1.09781 0.0135932 -8.60353e-24)
(1.09869 0.0130656 2.41968e-23)
(1.09954 0.0125302 -4.4639e-23)
(1.10036 0.011987 3.57155e-23)
(1.10115 0.0114357 2.43685e-23)
(1.10191 0.0108763 -8.11595e-23)
(1.10263 0.0103086 -5.70481e-23)
(1.09298 0.0104354 2.31744e-25)
(1.09386 0.0100703 -7.75417e-24)
(1.09471 0.00970007 2.76558e-24)
(1.09553 0.00932449 -2.80689e-23)
(1.09631 0.00894349 3.00954e-23)
(1.09707 0.00855695 3.61457e-24)
(1.09779 0.00816473 2.06508e-23)
(1.09848 0.00776671 -7.98254e-23)
(1.09913 0.00736277 1.32548e-22)
(1.09088 0.00630898 7.04551e-26)
(1.09171 0.00609019 1.71786e-24)
(1.09251 0.00586816 2.56117e-24)
(1.09328 0.0056428 -9.56069e-24)
(1.09402 0.00541399 1.96073e-23)
(1.09473 0.00518165 -2.51979e-23)
(1.09541 0.00494568 3.19764e-23)
(1.09605 0.00470601 -1.11168e-23)
(1.09665 0.00446254 -3.11182e-23)
(1.08976 0.00208598 8.84542e-26)
(1.09056 0.00201617 -4.14246e-24)
(1.09134 0.00194559 9.85837e-24)
(1.09208 0.00187414 1.37512e-23)
(1.09279 0.00180166 -6.37427e-24)
(1.09347 0.00172803 1.76564e-23)
(1.09412 0.00165315 -1.62936e-23)
(1.09473 0.00157688 -4.7839e-24)
(1.09531 0.00149913 -1.17183e-23)
(0.991729 0.343661 1.85447e-21)
(1.01195 0.342811 -1.33843e-21)
(1.0304 0.342661 3.8842e-21)
(1.04895 0.342239 -7.58257e-22)
(1.06816 0.341208 2.79797e-23)
(1.08727 0.339611 3.25717e-24)
(1.1059 0.337391 -3.18247e-22)
(1.12411 0.33445 -6.61078e-22)
(1.14192 0.330755 1.44685e-22)
(1.15927 0.326318 -3.33523e-21)
(1.17612 0.321161 -2.45204e-21)
(1.19243 0.315317 2.41837e-21)
(1.20823 0.308806 -5.43117e-21)
(1.22338 0.30163 -1.43785e-21)
(1.23805 0.293612 2.68218e-21)
(1.25223 0.285031 -3.54024e-21)
(1.26555 0.27606 5.91846e-22)
(1.27806 0.266761 2.54143e-22)
(1.2899 0.257166 1.32393e-21)
(1.30113 0.247315 2.19745e-22)
(1.00545 0.326612 -3.00855e-21)
(1.0254 0.325351 2.05687e-21)
(1.04352 0.32485 -4.63833e-21)
(1.06012 0.324272 -3.33819e-21)
(1.07709 0.322991 -2.98666e-22)
(1.09419 0.321021 1.07232e-22)
(1.11082 0.318443 1.72007e-22)
(1.127 0.315214 1.76354e-21)
(1.14285 0.311308 -2.61848e-21)
(1.15834 0.306755 2.04295e-21)
(1.17342 0.3016 -4.99314e-22)
(1.18805 0.295871 -2.65553e-21)
(1.20223 0.289602 2.12987e-21)
(1.21579 0.282764 -1.44258e-21)
(1.2289 0.275461 3.8149e-22)
(1.24181 0.267658 -8.83245e-22)
(1.25415 0.259494 3.68739e-21)
(1.26588 0.251079 -7.13137e-22)
(1.27706 0.242449 -1.11497e-21)
(1.28777 0.233622 1.25085e-23)
(1.0195 0.307989 -1.53614e-21)
(1.03813 0.307279 -2.99036e-21)
(1.05562 0.306604 1.18e-21)
(1.07078 0.305713 2.48313e-21)
(1.08584 0.304137 -4.17375e-22)
(1.1012 0.301828 2.95286e-23)
(1.11626 0.298935 3.41158e-22)
(1.13082 0.295503 1.48343e-21)
(1.14501 0.291514 3.51208e-21)
(1.15887 0.286983 -1.86112e-22)
(1.17235 0.281951 3.39422e-21)
(1.18541 0.276447 -5.09706e-22)
(1.19804 0.270519 -5.32748e-22)
(1.21019 0.264166 2.09321e-22)
(1.22191 0.257575 -3.38666e-21)
(1.23341 0.250532 -2.13422e-21)
(1.24455 0.243164 -1.57896e-21)
(1.25523 0.235584 -3.95691e-22)
(1.26548 0.227828 -8.64406e-22)
(1.27535 0.219903 -4.14289e-22)
(1.03264 0.290906 -2.70791e-21)
(1.04967 0.290257 3.84597e-21)
(1.06604 0.289199 -1.3899e-21)
(1.07991 0.287807 6.9364e-23)
(1.09326 0.285873 -1.60131e-22)
(1.10698 0.283311 1.72606e-23)
(1.12058 0.280227 -3.2246e-22)
(1.13371 0.276704 -2.56505e-21)
(1.14645 0.27274 -1.05721e-21)
(1.15888 0.268336 3.26423e-21)
(1.17099 0.263518 -1.79617e-21)
(1.18274 0.258319 3.10321e-21)
(1.19411 0.252777 -2.2117e-22)
(1.20512 0.246912 -1.93653e-21)
(1.21565 0.240801 5.17582e-21)
(1.22587 0.23436 2.21175e-21)
(1.23596 0.227666 -6.26037e-22)
(1.24572 0.220789 8.55425e-22)
(1.2551 0.213755 1.36799e-21)
(1.26416 0.206579 1.58066e-22)
(1.04462 0.274499 4.55813e-21)
(1.06 0.273564 -2.80435e-21)
(1.07505 0.272083 9.55493e-22)
(1.08771 0.270252 -4.93784e-22)
(1.09961 0.268028 2.00587e-22)
(1.1118 0.265318 -1.36361e-23)
(1.12402 0.262162 -2.5395e-22)
(1.13585 0.258638 1.31009e-21)
(1.14729 0.254764 -2.32298e-21)
(1.15843 0.250536 -3.83498e-21)
(1.1693 0.245969 -7.11054e-23)
(1.17987 0.24109 -1.26306e-21)
(1.19011 0.235921 6.95742e-22)
(1.20004 0.230488 -7.38279e-22)
(1.20959 0.224794 -1.52435e-21)
(1.21889 0.21892 6.68539e-23)
(1.22807 0.21287 -4.29776e-22)
(1.23697 0.206647 -1.47127e-21)
(1.24556 0.200272 -5.30541e-22)
(1.25388 0.193768 -6.29303e-23)
(1.05538 0.258269 4.10779e-23)
(1.06914 0.257036 2.07761e-21)
(1.08277 0.255253 5.89501e-22)
(1.09427 0.253136 8.66868e-22)
(1.1049 0.250729 -4.44565e-24)
(1.11572 0.247956 -3.75157e-23)
(1.12664 0.244811 6.83049e-22)
(1.13728 0.241348 7.51957e-22)
(1.14755 0.2376 1.96372e-21)
(1.15754 0.233569 1.24198e-21)
(1.16729 0.229262 9.4127e-22)
(1.17679 0.224702 -6.8393e-23)
(1.18602 0.219907 3.63384e-22)
(1.19498 0.214909 1.54169e-21)
(1.20363 0.209714 -1.25059e-21)
(1.21209 0.204388 -3.70837e-22)
(1.22048 0.198871 9.87585e-22)
(1.22864 0.193176 1.11492e-21)
(1.23653 0.187348 -7.98206e-22)
(1.2442 0.181421 3.094e-23)
(1.06489 0.242247 -2.20001e-21)
(1.07713 0.240789 -1.64728e-21)
(1.08931 0.238827 2.93562e-22)
(1.09968 0.236547 2.63062e-22)
(1.10919 0.234041 -2.71556e-22)
(1.1188 0.231258 2.18288e-22)
(1.12853 0.228172 5.2056e-22)
(1.13806 0.224813 -2.12731e-21)
(1.14727 0.221217 -7.02967e-22)
(1.15622 0.217394 -1.13e-22)
(1.16498 0.213348 2.61737e-22)
(1.17353 0.209096 -5.999e-22)
(1.18187 0.204654 -9.97563e-22)
(1.18999 0.20005 2.02833e-21)
(1.1979 0.195291 4.42933e-22)
(1.20558 0.190427 -8.65901e-22)
(1.21312 0.185373 -8.08037e-22)
(1.22053 0.18016 3.46041e-22)
(1.22779 0.174838 8.35125e-22)
(1.23488 0.169432 -1.11486e-22)
(1.07312 0.226579 2.17385e-21)
(1.08396 0.224958 2.18703e-22)