/*--------------------------------*- C++ -*----------------------------------*\
  =========                 |
  \\      /  F ield         | OpenFOAM: The Open Source CFD Toolbox
   \\    /   O peration     | Website:  https://openfoam.org
    \\  /    A nd           | Version:  7
     \\/     M anipulation  |
\*---------------------------------------------------------------------------*/
FoamFile
{
    version     2.0;
    format      ascii;
    class       volScalarField;
    location    "90";
    object      p;
}
// * * * * * * * * * * * * * * * * * * * * * * * * * * * * * * * * * * * * * //

dimensions      [0 2 -2 0 0 0 0];

internalField   nonuniform List<scalar> 
2125
(
-0.344214
-0.346476
-0.347466
-0.348235
-0.348883
-0.349443
-0.349932
-0.350356
-0.350684
-0.351011
-0.345456
-0.347886
-0.348975
-0.349852
-0.350622
-0.351306
-0.351907
-0.35241
-0.352751
-0.352974
-0.346979
-0.349542
-0.350713
-0.351686
-0.352567
-0.353365
-0.354066
-0.354635
-0.354967
-0.355036
-0.348801
-0.351453
-0.352689
-0.353745
-0.354725
-0.355628
-0.356419
-0.357039
-0.35734
-0.357197
-0.35093
-0.353625
-0.354905
-0.356029
-0.357098
-0.358096
-0.358965
-0.359621
-0.35987
-0.359435
-0.353367
-0.356054
-0.357357
-0.358533
-0.359678
-0.360762
-0.361697
-0.362369
-0.362545
-0.361699
-0.356103
-0.358729
-0.360032
-0.361242
-0.36245
-0.363609
-0.364595
-0.36526
-0.365348
-0.36391
-0.35912
-0.361632
-0.36291
-0.364135
-0.36539
-0.366612
-0.367634
-0.368258
-0.368259
-0.365968
-0.362393
-0.364736
-0.365962
-0.367179
-0.368464
-0.369736
-0.370778
-0.371319
-0.371257
-0.367738
-0.365886
-0.36801
-0.369154
-0.370338
-0.371631
-0.372938
-0.373984
-0.374387
-0.374331
-0.369004
-0.369561
-0.371417
-0.372448
-0.373568
-0.374841
-0.376163
-0.3772
-0.377401
-0.377505
-0.369575
-0.373373
-0.374919
-0.375801
-0.37682
-0.378038
-0.379347
-0.380361
-0.380292
-0.380711
-0.370227
-0.377279
-0.378479
-0.379174
-0.380045
-0.381162
-0.382415
-0.383393
-0.38306
-0.383389
-0.370651
-0.381241
-0.382064
-0.382528
-0.383198
-0.384154
-0.385291
-0.386179
-0.385723
-0.385763
-0.370577
-0.385228
-0.385651
-0.385837
-0.38624
-0.386965
-0.387918
-0.388628
-0.388018
-0.387797
-0.370115
-0.389222
-0.389228
-0.389085
-0.389152
-0.389558
-0.390237
-0.390679
-0.389864
-0.38922
-0.369475
-0.393223
-0.392792
-0.392274
-0.391928
-0.391928
-0.392231
-0.392284
-0.391247
-0.389728
-0.368734
-0.397249
-0.39637
-0.395422
-0.394589
-0.394096
-0.393922
-0.393448
-0.392193
-0.389052
-0.367669
-0.40134
-0.399995
-0.398566
-0.397181
-0.396114
-0.395372
-0.394244
-0.392755
-0.387171
-0.366587
-0.405554
-0.403719
-0.401765
-0.39977
-0.398062
-0.396673
-0.394794
-0.392908
-0.384604
-0.368799
-0.409967
-0.407609
-0.40509
-0.40244
-0.400037
-0.397931
-0.395224
-0.392516
-0.382214
-0.377706
-0.41467
-0.411739
-0.40862
-0.405281
-0.402146
-0.399251
-0.39564
-0.391678
-0.38052
-0.374854
-0.419755
-0.416192
-0.412442
-0.408391
-0.404487
-0.400724
-0.396089
-0.390593
-0.378514
-0.369854
-0.421045
-0.416636
-0.411855
-0.407146
-0.402416
-0.396594
-0.38938
-0.376081
-0.36453
-0.421281
-0.415749
-0.410182
-0.404365
-0.397166
-0.388049
-0.373292
-0.358935
-0.426441
-0.420132
-0.413629
-0.406576
-0.397789
-0.386586
-0.370138
-0.353356
-0.425039
-0.417492
-0.409026
-0.398415
-0.384948
-0.366664
-0.347767
-0.421751
-0.411661
-0.398967
-0.383087
-0.362895
-0.342164
-0.399348
-0.380949
-0.358848
-0.336499
-0.378484
-0.35452
-0.330719
-0.349893
-0.324766
-0.352887
-0.352814
-0.357734
-0.3647
-0.37878
-0.397062
-0.411704
-0.402107
-0.361103
-0.302393
-0.249106
-0.220807
-0.226631
-0.236294
-0.221303
-0.182743
-0.137838
-0.113784
-0.100457
-0.0962412
-0.102863
-0.102678
-0.0888589
-0.0855853
-0.0684798
-0.0325984
-0.0575342
-0.0790623
-0.0529916
0.0175087
-0.354484
-0.352946
-0.355535
-0.358601
-0.367251
-0.37915
-0.388719
-0.37786
-0.340766
-0.289235
-0.244149
-0.225086
-0.23868
-0.252359
-0.233975
-0.19089
-0.140135
-0.112567
-0.0964053
-0.0900828
-0.095996
-0.0975583
-0.0876302
-0.0855565
-0.0692135
-0.0336827
-0.0583466
-0.0794244
-0.0528808
0.0169593
-0.356345
-0.353228
-0.35347
-0.35253
-0.355589
-0.360864
-0.364987
-0.352454
-0.318859
-0.274409
-0.237836
-0.228544
-0.250244
-0.267546
-0.245706
-0.198327
-0.142205
-0.111233
-0.0925033
-0.0842416
-0.089445
-0.0924905
-0.0863427
-0.0854417
-0.0700087
-0.034867
-0.0591713
-0.0797702
-0.0527468
0.0163894
-0.35851
-0.353731
-0.351658
-0.346674
-0.344066
-0.34257
-0.340923
-0.326238
-0.29568
-0.257963
-0.230193
-0.231105
-0.261178
-0.281703
-0.256452
-0.205039
-0.144064
-0.109817
-0.0887878
-0.0787597
-0.0832625
-0.0875175
-0.0849998
-0.0852398
-0.0708712
-0.0361571
-0.0600072
-0.0800982
-0.0525887
0.0158028
-0.360997
-0.354507
-0.350199
-0.341199
-0.33293
-0.324616
-0.316964
-0.299659
-0.271511
-0.240094
-0.22128
-0.232704
-0.271306
-0.294706
-0.266186
-0.211025
-0.145726
-0.108351
-0.0852866
-0.073665
-0.0774884
-0.0826792
-0.0836051
-0.0849506
-0.0718051
-0.0375578
-0.0608521
-0.0804062
-0.0524053
0.0152027
-0.363802
-0.355587
-0.349173
-0.336252
-0.322407
-0.307333
-0.293545
-0.273225
-0.246739
-0.221088
-0.211192
-0.233285
-0.280438
-0.306456
-0.27489
-0.216294
-0.147205
-0.106865
-0.0820192
-0.0689712
-0.0721506
-0.0780109
-0.0821626
-0.0845738
-0.0728127
-0.0390727
-0.0617039
-0.0806919
-0.0521957
0.0145929
-0.36689
-0.356978
-0.348633
-0.331952
-0.312695
-0.291019
-0.271075
-0.247477
-0.221825
-0.201302
-0.200069
-0.2328
-0.288383
-0.31686
-0.282554
-0.220862
-0.148509
-0.105388
-0.0789974
-0.064679
-0.067265
-0.0735433
-0.0806766
-0.0841097
-0.0738948
-0.0407039
-0.0625592
-0.0809525
-0.0519587
0.0139768
-0.370192
-0.358652
-0.348602
-0.328386
-0.303952
-0.275926
-0.249911
-0.222917
-0.197255
-0.181148
-0.188096
-0.231209
-0.294962
-0.325842
-0.289173
-0.224751
-0.149648
-0.103944
-0.0762262
-0.0607777
-0.0628371
-0.0693014
-0.0791511
-0.0835591
-0.0750499
-0.0424523
-0.0634135
-0.0811844
-0.051693
0.0133579
-0.373626
-0.360555
-0.349059
-0.325599
-0.296297
-0.262255
-0.230328
-0.199734
-0.173501
-0.161072
-0.175487
-0.228491
-0.300028
-0.33334
-0.294748
-0.227987
-0.15063
-0.102557
-0.0737051
-0.0572474
-0.0588629
-0.0653046
-0.0775901
-0.0829229
-0.0762751
-0.0443175
-0.0642612
-0.0813841
-0.0513971
0.0127398
-0.377128
-0.362587
-0.349942
-0.323594
-0.289802
-0.250151
-0.21255
-0.180636
-0.15106
-0.141536
-0.162475
-0.224645
-0.303473
-0.339363
-0.299282
-0.230599
-0.151459
-0.101244
-0.0714288
-0.0540614
-0.0553295
-0.0615659
-0.0759969
-0.0822026
-0.0775655
-0.0462973
-0.0650961
-0.0815479
-0.0510697
0.012126
-0.380566
-0.36461
-0.351157
-0.32232
-0.284494
-0.23971
-0.196714
-0.159621
-0.130848
-0.122562
-0.149293
-0.219695
-0.30523
-0.34385
-0.302784
-0.232616
-0.152142
-0.100022
-0.0693892
-0.051189
-0.0522163
-0.0580922
-0.0743739
-0.0813999
-0.0789146
-0.0483877
-0.0659125
-0.081672
-0.0507092
0.0115202
-0.383249
-0.366635
-0.352577
-0.321668
-0.28036
-0.230992
-0.183075
-0.141341
-0.11287
-0.1049
-0.136164
-0.213696
-0.305285
-0.346718
-0.305262
-0.234071
-0.152689
-0.0989055
-0.0675766
-0.0485982
-0.049496
-0.0548882
-0.0727222
-0.0805165
-0.0803142
-0.050583
-0.0667048
-0.0817528
-0.0503141
0.0109258
-0.385385
-0.368653
-0.353927
-0.32148
-0.277313
-0.22399
-0.171721
-0.125748
-0.0973066
-0.0888438
-0.123294
-0.206733
-0.303664
-0.348002
-0.306732
-0.235001
-0.15311
-0.0979077
-0.0659805
-0.0462567
-0.0471336
-0.0519404
-0.0710414
-0.0795543
-0.0817548
-0.0528756
-0.0674668
-0.0817865
-0.0498828
0.0103464
-0.387019
-0.370312
-0.355111
-0.321693
-0.275121
-0.218594
-0.162595
-0.114147
-0.0832387
-0.074557
-0.110873
-0.198916
-0.300439
-0.347739
-0.307216
-0.235439
-0.153408
-0.0970295
-0.0645826
-0.0441318
-0.0450854
-0.0490546
-0.0693275
-0.0785145
-0.0832253
-0.0552563
-0.0681914
-0.0817696
-0.049413
0.00978571
-0.388049
-0.371494
-0.355958
-0.322064
-0.273946
-0.214909
-0.155711
-0.104658
-0.0717964
-0.0621674
-0.0990665
-0.190377
-0.295718
-0.345994
-0.306737
-0.235396
-0.153551
-0.0962463
-0.0633515
-0.0421906
-0.0433014
-0.0466773
-0.0675721
-0.0773979
-0.0847136
-0.0577142
-0.0688711
-0.0816992
-0.048903
0.00924733
-0.388396
-0.372114
-0.356318
-0.322373
-0.273413
-0.212752
-0.151015
-0.0977033
-0.0629004
-0.0517432
-0.088016
-0.181265
-0.28964
-0.342876
-0.30533
-0.234875
-0.153521
-0.0955398
-0.0622674
-0.040413
-0.041733
-0.0445487
-0.0657595
-0.0762044
-0.0862057
-0.0602379
-0.0694995
-0.081572
-0.0483536
0.00873415
-0.387985
-0.372055
-0.356061
-0.322452
-0.273334
-0.211852
-0.148301
-0.0930217
-0.0564488
-0.0433026
-0.0778426
-0.171743
-0.282379
-0.338498
-0.303072
-0.234
-0.153486
-0.0950219
-0.0613992
-0.0388153
-0.0403645
-0.0426412
-0.0638692
-0.0749321
-0.0876863
-0.0628125
-0.070072
-0.0813804
-0.0477707
0.00824663
-0.386648
-0.371232
-0.355183
-0.322298
-0.273706
-0.212193
-0.147513
-0.0904985
-0.0522614
-0.0368617
-0.0686207
-0.161956
-0.274072
-0.332739
-0.300023
-0.2331
-0.153837
-0.0949474
-0.0608922
-0.0374258
-0.0391878
-0.0410308
-0.0618882
-0.0735776
-0.0891373
-0.0654014
-0.0705704
-0.0811139
-0.0471588
0.00778561
-0.384629
-0.369745
-0.353793
-0.32212
-0.274895
-0.214244
-0.149136
-0.0905565
-0.0502243
-0.0325619
-0.0604278
-0.151831
-0.264456
-0.325312
-0.296005
-0.232021
-0.154252
-0.0950569
-0.060541
-0.0361178
-0.0380289
-0.0397642
-0.059823
-0.0721421
-0.0905442
-0.0679552
-0.0709462
-0.0807866
-0.0465024
0.00736655
-0.382436
-0.366624
-0.350663
-0.320189
-0.274621
-0.215423
-0.150767
-0.0916851
-0.0527375
-0.0300195
-0.0542226
-0.142412
-0.254683
-0.317988
-0.290699
-0.228734
-0.152265
-0.0935826
-0.0592058
-0.0344757
-0.0364298
-0.0380873
-0.05743
-0.0705849
-0.0918737
-0.0707045
-0.0713109
-0.0804861
-0.0457489
0.00702916
-0.367308
-0.360502
-0.344958
-0.314162
-0.268569
-0.209815
-0.145583
-0.0867381
-0.0473086
-0.0261825
-0.0484828
-0.136495
-0.25057
-0.31396
-0.284425
-0.221885
-0.146618
-0.0894474
-0.0561092
-0.0321277
-0.0337302
-0.0338124
-0.0528415
-0.0676681
-0.0935612
-0.0754949
-0.0722663
-0.0802134
-0.0447515
0.00668341
-0.355737
-0.348663
-0.331729
-0.301128
-0.25717
-0.201144
-0.139974
-0.0841084
-0.0476769
-0.0281115
-0.0492296
-0.133372
-0.241963
-0.301168
-0.271296
-0.210633
-0.139157
-0.0848969
-0.0528926
-0.0295493
-0.0309894
-0.0310769
-0.0500219
-0.0652071
-0.0947728
-0.0805846
-0.072263
-0.0790246
-0.043318
0.00612565
-0.342247
-0.334454
-0.316388
-0.28677
-0.245329
-0.192927
-0.135752
-0.0835312
-0.0497761
-0.0330181
-0.0537936
-0.132672
-0.232402
-0.286028
-0.256439
-0.198764
-0.131575
-0.0802783
-0.0496135
-0.0269325
-0.0280636
-0.028287
-0.0476994
-0.0632219
-0.0954647
-0.0854657
-0.0722535
-0.0774547
-0.0417267
0.0055398
-0.327599
-0.319074
-0.300188
-0.272124
-0.233848
-0.185706
-0.133147
-0.0849279
-0.0540294
-0.0398045
-0.0595669
-0.131886
-0.221536
-0.268944
-0.240181
-0.186164
-0.123597
-0.0755047
-0.0462551
-0.0242315
-0.0248928
-0.0250574
-0.044749
-0.0611
-0.0958416
-0.0904388
-0.0721009
-0.0755143
-0.0399045
0.00494552
-0.311275
-0.302697
-0.28363
-0.257483
-0.222776
-0.179292
-0.131757
-0.08788
-0.059844
-0.0478265
-0.0658457
-0.130309
-0.209023
-0.249953
-0.222781
-0.17311
-0.115406
-0.0706227
-0.0428116
-0.0214154
-0.0214258
-0.0214166
-0.0410472
-0.0586827
-0.0959401
-0.0953629
-0.0717035
-0.0731298
-0.0378387
0.00434834
-0.29346
-0.28577
-0.267196
-0.243133
-0.212135
-0.173441
-0.131061
-0.091757
-0.066408
-0.056275
-0.0720561
-0.12772
-0.194984
-0.22959
-0.204772
-0.159907
-0.107128
-0.0656688
-0.0392782
-0.0184524
-0.0176343
-0.0172873
-0.0366524
-0.055997
-0.0956126
-0.0999533
-0.0709904
-0.0702564
-0.0355047
0.00376093
-0.274979
-0.268709
-0.251244
-0.22929
-0.201932
-0.167932
-0.130607
-0.0957838
-0.0729999
-0.0643642
-0.0775723
-0.124071
-0.179836
-0.208699
-0.186751
-0.146852
-0.0989045
-0.060691
-0.0356517
-0.0153133
-0.013494
-0.0125624
-0.0315525
-0.0530116
-0.0946618
-0.10392
-0.0699058
-0.0668602
-0.0328837
0.00319817
-0.256423
-0.251781
-0.235898
-0.216195
-0.192143
-0.162576
-0.130054
-0.0994954
-0.0790745
-0.0715306
-0.0819918
-0.119595
-0.164675
-0.18823
-0.169284
-0.134205
-0.0908514
-0.055736
-0.0319301
-0.0119751
-0.00898664
-0.00712853
-0.0256679
-0.0495881
-0.092952
-0.106939
-0.0683883
-0.0629192
-0.029959
0.00267703
-0.238188
-0.235184
-0.221183
-0.203623
-0.182728
-0.157239
-0.129161
-0.102565
-0.0842893
-0.0774656
-0.0852245
-0.11469
-0.150215
-0.16899
-0.152809
-0.122164
-0.0830607
-0.0508476
-0.0281159
-0.00842615
-0.00410118
-0.000862379
-0.0188956
-0.0455333
-0.0904
-0.10864
-0.0663702
-0.0584286
-0.0267188
0.00221558
-0.220569
-0.219067
-0.207087
-0.191663
-0.173627
-0.151841
-0.127794
-0.104799
-0.0884729
-0.0820927
-0.0873733
-0.109729
-0.136957
-0.151473
-0.137595
-0.110855
-0.0755974
-0.0460622
-0.0242191
-0.00467153
0.0011645
0.00636605
-0.0111455
-0.0406522
-0.0869273
-0.108632
-0.0637836
-0.053406
-0.0231573
0.00183178
-0.203734
-0.203533
-0.193587
-0.180261
-0.164819
-0.146336
-0.125893
-0.106127
-0.0915835
-0.0854687
-0.0885855
-0.104932
-0.125154
-0.135877
-0.123754
-0.100342
-0.0685039
-0.0414065
-0.0202609
-0.000736548
0.00679122
0.0146643
-0.00236444
-0.0347786
-0.0824488
-0.106574
-0.0605655
-0.0478969
-0.0192774
0.00154261
-0.187765
-0.188654
-0.180661
-0.169364
-0.156272
-0.140708
-0.123454
-0.106559
-0.0936459
-0.0877006
-0.0889907
-0.100548
-0.114808
-0.122168
-0.111283
-0.0906445
-0.0618071
-0.0368991
-0.0162792
0.00333222
0.0127245
0.0240665
0.00744336
-0.027817
-0.0768832
-0.102199
-0.0566646
-0.0419776
-0.0150975
0.00136594
-0.172706
-0.174483
-0.1683
-0.158926
-0.147964
-0.134965
-0.120504
-0.106144
-0.0947188
-0.088909
-0.0886816
-0.0962712
-0.105762
-0.110194
-0.10012
-0.0817517
-0.0555253
-0.0325543
-0.0123367
0.00746625
0.0188653
0.0344917
0.0181696
-0.0198167
-0.0701562
-0.0953712
-0.0520497
-0.0357565
-0.0106567
0.00132007
-0.158578
-0.16106
-0.156506
-0.14892
-0.139879
-0.129125
-0.11709
-0.104951
-0.0948801
-0.0892165
-0.0877529
-0.0921772
-0.0978262
-0.0997534
-0.0901703
-0.0736373
-0.0496751
-0.0283879
-0.00852338
0.0115685
0.025037
0.0456298
0.0295383
-0.0110648
-0.0621959
-0.0861288
-0.0467217
-0.0293698
-0.00601838
0.0014227
-0.145384
-0.148407
-0.145286
-0.13933
-0.132011
-0.123214
-0.113271
-0.103064
-0.0942185
-0.0887462
-0.0862887
-0.0882181
-0.0908193
-0.0906432
-0.0813329
-0.0662657
-0.0442746
-0.0244216
-0.00494241
0.0155021
0.0309742
0.0577836
0.0409944
-0.00208397
-0.052921
-0.0747228
-0.0407275
-0.022974
-0.00127048
0.0016891
-0.133116
-0.136539
-0.134652
-0.130153
-0.124363
-0.117266
-0.109117
-0.100574
-0.0928247
-0.0876281
-0.0843659
-0.0843583
-0.0845845
-0.0826768
-0.0735057
-0.0595987
-0.0393409
-0.0206844
-0.0016876
0.0190894
0.0362973
0.0671083
0.051589
0.00664131
-0.0422738
-0.0616633
-0.0341788
-0.0167302
0.00347497
0.00212946
-0.12176
-0.12546
-0.124615
-0.121395
-0.116948
-0.11132
-0.104703
-0.0975842
-0.0907859
-0.0854993
-0.0820413
-0.0805785
-0.0789928
-0.0756916
-0.0665912
-0.0535981
-0.0348836
-0.0172152
0.00117547
0.0221427
0.0406965
0.0731732
0.0603852
0.0150007
-0.030432
-0.0477565
-0.0272705
-0.0107862
0.00808494
0.00274633
-0.111295
-0.115168
-0.115186
-0.113071
-0.10979
-0.105422
-0.100109
-0.094207
-0.0882889
-0.0833395
-0.0794503
-0.0768811
-0.0739426
-0.0695487
-0.0604977
-0.0482271
-0.0308997
-0.0140628
0.00361322
0.0245047
0.0438454
0.0750885
0.066673
0.023008
-0.0181174
-0.0340344
-0.0202651
-0.00527165
0.0124121
0.00353168
-0.101696
-0.105656
-0.106375
-0.105197
-0.102915
-0.0996214
-0.0954141
-0.0905483
-0.0854212
-0.0807839
-0.0766548
-0.0732766
-0.0693553
-0.0641324
-0.0551401
-0.0434509
-0.0273737
-0.0112765
0.00561831
0.0260774
0.0455011
0.0734432
0.0699909
0.0302346
-0.00646905
-0.0214632
-0.013439
-0.000295061
0.0162987
0.00446457
-0.0929348
-0.0969134
-0.0981896
-0.0977931
-0.0963586
-0.0939714
-0.0906981
-0.0867094
-0.0822817
-0.0779506
-0.0737237
-0.0697818
-0.0651723
-0.0593476
-0.0504405
-0.0392356
-0.0242828
-0.00889138
0.00720082
0.0268444
0.0456476
0.0695501
0.0702257
0.0360332
0.00357731
-0.0106462
-0.00702735
0.00407004
0.0195696
0.00551172
-0.0849861
-0.088929
-0.0906378
-0.0908821
-0.090156
-0.0885266
-0.0860375
-0.0827886
-0.0789749
-0.0749454
-0.0707239
-0.0664182
-0.0613525
-0.0551179
-0.0463295
-0.0355474
-0.0216023
-0.00691952
0.00837662
0.0268733
0.0445423
0.0646031
0.0678791
0.0400116
0.0116039
-0.00175148
-0.00119447
0.00779722
0.0220331
0.00672202
-0.077824
-0.0816912
-0.0837269
-0.0844876
-0.0843458
-0.0833432
-0.0815076
-0.0788788
-0.0756037
-0.0718651
-0.0677226
-0.0632115
-0.0578694
-0.051383
-0.0427466
-0.0323517
-0.0193071
-0.00534914
0.00916366
0.0263005
0.0425807
0.0593735
0.0638504
0.0422336
0.0176865
0.00536052
0.00395366
0.0109157
0.0235252
0.00780075
-0.0714266
-0.0751904
-0.0774654
-0.0786347
-0.0789678
-0.0784779
-0.0771812
-0.0750666
-0.0722243
-0.0687972
-0.0647862
-0.0601909
-0.0547087
-0.0480966
-0.039641
-0.0296131
-0.0173718
-0.00414886
0.00959214
0.0252953
0.0401326
0.0542842
0.0590346
0.0430182
0.0221233
0.0109319
0.00835147
0.0134767
0.0239801
0.00872533
-0.0657765
-0.0694203
-0.0718638
-0.0733503
-0.0740636
-0.0739881
-0.0731314
-0.071447
-0.0690023
-0.0658369
-0.0619817
-0.0573891
-0.0518668
-0.0452247
-0.0369714
-0.027296
-0.0157692
-0.00327275
0.00971221
0.0240282
0.0374832
0.0495579
0.0541157
0.0427305
0.0252584
0.0152113
0.0119747
0.0155069
0.0234653
0.00941495
-0.0608628
-0.0643804
-0.0669366
-0.0686642
-0.0696764
-0.0699312
-0.0694288
-0.068097
-0.0659825
-0.0630624
-0.059374
-0.0548416
-0.0493488
-0.0427447
-0.0347054
-0.0253666
-0.0144705
-0.00266523
0.00959174
0.0226509
0.0348474
0.0453195
0.049541
0.0417235
0.0274112
0.0184212
0.0148299
0.017029
0.0222256
0.00978763
-0.0566839
-0.0600778
-0.0627044
-0.0646109
-0.0658531
-0.0663662
-0.0661435
-0.0650953
-0.0632518
-0.0605508
-0.0570272
-0.052588
-0.0471678
-0.0406443
-0.0328189
-0.0237936
-0.0134449
-0.00226902
0.00931056
0.0212892
0.032391
0.0416501
0.0455647
0.0403248
0.0288426
0.0207615
0.0169507
0.0180843
0.0206254
0.00982163
-0.0532482
-0.0565293
-0.0591959
-0.0612312
-0.0626452
-0.063355
-0.0633467
-0.0625202
-0.0608932
-0.0583787
-0.055006
-0.050672
-0.0453446
-0.0389216
-0.0312967
-0.0225506
-0.0126619
-0.00203011
0.00895126
0.0200473
0.0302408
0.0385974
0.0423076
0.038825
0.0297451
0.0224155
0.018427
0.0187404
0.0190021
0.00958282
-0.0505798
-0.053766
-0.0564524
-0.0585761
-0.0601128
-0.0609655
-0.0611139
-0.0604523
-0.0589889
-0.0566229
-0.053377
-0.0491424
-0.0439083
-0.0375853
-0.0301326
-0.0216183
-0.012094
-0.00190024
0.00859106
0.0190121
0.0285125
0.0362069
0.0398175
0.0374662
0.0302599
0.0235286
0.0194168
0.0190978
0.0175975
0.00919309
-0.0487221
-0.0518382
-0.0545326
-0.0567118
-0.0583283
-0.0592755
-0.0595282
-0.0589777
-0.057626
-0.0553642
-0.0522114
-0.0480554
-0.0428971
-0.0366556
-0.0293319
-0.0209875
-0.0117212
-0.00183985
0.00829832
0.0182577
0.0273081
0.0345357
0.0381175
0.0364333
0.0305109
0.0242192
0.0200219
0.0192622
0.016565
0.00880269
-0.0477331
-0.0508156
-0.0535128
-0.0557195
-0.0573765
-0.0583729
-0.0586788
-0.0581864
-0.056892
-0.0546872
-0.0515844
-0.0474741
-0.0423587
-0.0361656
-0.0289123
-0.0206617
-0.0115326
-0.00181918
0.00812979
0.0178464
0.0266577
0.0336497
0.037237
0.0358652
0.0306097
0.0245568
0.0203069
0.0193196
0.0160075
0.00854999
-0.296039
-0.30256
-0.308824
-0.314873
-0.320758
-0.32655
-0.332339
-0.338329
-0.344665
-0.35245
-0.360891
-0.377399
-0.277673
-0.284291
-0.290719
-0.297019
-0.303273
-0.30963
-0.316202
-0.323435
-0.331085
-0.340839
-0.349056
-0.364952
-0.259794
-0.266472
-0.273043
-0.279584
-0.286147
-0.292885
-0.299706
-0.307008
-0.313851
-0.322114
-0.327908
-0.341044
-0.242861
-0.249491
-0.256032
-0.262536
-0.268971
-0.275437
-0.281679
-0.288156
-0.293972
-0.301291
-0.307192
-0.318843
-0.226586
-0.232995
-0.239289
-0.245501
-0.251575
-0.257641
-0.263512
-0.269736
-0.275646
-0.282848
-0.289075
-0.298835
-0.210902
-0.217003
-0.222994
-0.228919
-0.234755
-0.240648
-0.246463
-0.252568
-0.258388
-0.264852
-0.270656
-0.278801
-0.195943
-0.201738
-0.207452
-0.213128
-0.218745
-0.224387
-0.229922
-0.235544
-0.240917
-0.246653
-0.252248
-0.259473
-0.181767
-0.187243
-0.192649
-0.198006
-0.20329
-0.208542
-0.213696
-0.218888
-0.223999
-0.229364
-0.234801
-0.241284
-0.168338
-0.173466
-0.178526
-0.183528
-0.188469
-0.19338
-0.198247
-0.203142
-0.208009
-0.21298
-0.218055
-0.223881
-0.155643
-0.160422
-0.165142
-0.169815
-0.174442
-0.179043
-0.183608
-0.188159
-0.192677
-0.197236
-0.201936
-0.207254
-0.143693
-0.148135
-0.152526
-0.156873
-0.161177
-0.165443
-0.169671
-0.173873
-0.178059
-0.182278
-0.186634
-0.191499
-0.132474
-0.136587
-0.140652
-0.144672
-0.148651
-0.152594
-0.156504
-0.160392
-0.164268
-0.168161
-0.172162
-0.176588
-0.121965
-0.125759
-0.12951
-0.133219
-0.136891
-0.140529
-0.144136
-0.147718
-0.151281
-0.154849
-0.158506
-0.162522
-0.112147
-0.115641
-0.119095
-0.122509
-0.125888
-0.129232
-0.132544
-0.135829
-0.139094
-0.142358
-0.145694
-0.149327
-0.103002
-0.106213
-0.109386
-0.112521
-0.115621
-0.118688
-0.121723
-0.12473
-0.127716
-0.130695
-0.133729
-0.137003
-0.0974542
-0.100364
-0.103239
-0.106079
-0.108886
-0.111662
-0.114409
-0.117133
-0.119846
-0.122598
-0.125541
-0.0893412
-0.0920086
-0.0946413
-0.0972404
-0.0998068
-0.102342
-0.104848
-0.107329
-0.109793
-0.112286
-0.114928
-0.0818555
-0.0842987
-0.0867082
-0.0890847
-0.0914291
-0.0937424
-0.0960255
-0.098283
-0.10052
-0.102776
-0.105143
-0.074974
-0.0772121
-0.0794174
-0.0815904
-0.0837315
-0.0858416
-0.0879213
-0.0899743
-0.0920044
-0.0940435
-0.0961647
-0.0686764
-0.070728
-0.0727476
-0.0747354
-0.0766918
-0.0786173
-0.0805121
-0.0823795
-0.0842217
-0.0860655
-0.0879664
-0.0629442
-0.0648274
-0.0666793
-0.0685
-0.0702895
-0.0720484
-0.0737766
-0.0754767
-0.07715
-0.0788184
-0.0805237
-0.0577609
-0.0594932
-0.0611949
-0.0628658
-0.064506
-0.0661158
-0.067695
-0.0692456
-0.0707682
-0.0722806
-0.0738134
-0.0531133
-0.0547116
-0.0562799
-0.057818
-0.0593258
-0.0608034
-0.0622506
-0.0636689
-0.0650586
-0.0664336
-0.0678157
-0.0489923
-0.0504729
-0.0519242
-0.0533459
-0.0547377
-0.0560996
-0.0574315
-0.0587344
-0.0600081
-0.0612637
-0.0625157
-0.0453931
-0.046772
-0.0481222
-0.0494434
-0.0507352
-0.0519976
-0.0532303
-0.054434
-0.0556085
-0.056762
-0.0579038
-0.0423192
-0.0436121
-0.044877
-0.0461134
-0.047321
-0.0484997
-0.0496492
-0.05077
-0.0518615
-0.05293
-0.0539802
-0.0397767
-0.0409991
-0.0421943
-0.0433618
-0.0445011
-0.0456122
-0.0466947
-0.0477488
-0.048774
-0.0497746
-0.0507523
-0.0377933
-0.0389607
-0.0401016
-0.0412156
-0.0423022
-0.0433613
-0.0443925
-0.0453959
-0.0463709
-0.0473206
-0.0482443
-0.0363903
-0.0375206
-0.0386253
-0.0397038
-0.0407559
-0.0417811
-0.0427791
-0.04375
-0.0446929
-0.0456098
-0.0464987
-0.0356187
-0.0367255
-0.037808
-0.0388658
-0.0398986
-0.0409061
-0.0418881
-0.0428445
-0.0437747
-0.0446801
-0.0455578
-0.0786848
-0.05308
0.0180342
)
;

boundaryField
{
    inlet
    {
        type            zeroGradient;
    }
    outlet
    {
        type            fixedValue;
        value           uniform 0;
    }
    cylinder
    {
        type            zeroGradient;
    }
    top
    {
        type            symmetryPlane;
    }
    bottom
    {
        type            symmetryPlane;
    }
    defaultFaces
    {
        type            empty;
    }
    procBoundary3to1
    {
        type            processor;
        value           nonuniform List<scalar> 
41
(
-0.343231
-0.345294
-0.346172
-0.346819
-0.347336
-0.347761
-0.348124
-0.348455
-0.348746
-0.349124
-0.351495
-0.352752
-0.359938
-0.370625
-0.389886
-0.414227
-0.433572
-0.424904
-0.37964
-0.313853
-0.252735
-0.215804
-0.214222
-0.21955
-0.20776
-0.173915
-0.135298
-0.114845
-0.104611
-0.102662
-0.109981
-0.107805
-0.0900256
-0.085529
-0.0678003
-0.0316075
-0.056735
-0.0782921
-0.0531469
0.018532
-0.056735
)
;
    }
    procBoundary3to2
    {
        type            processor;
        value           nonuniform List<scalar> 
50
(
-0.425316
-0.425316
-0.426373
-0.426373
-0.432241
-0.432167
-0.432167
-0.430482
-0.430482
-0.426359
-0.414391
-0.414391
-0.399455
-0.399455
-0.37564
-0.37564
-0.344934
-0.318578
-0.318578
-0.289218
-0.270815
-0.252959
-0.236117
-0.220066
-0.204693
-0.190063
-0.176219
-0.163141
-0.150801
-0.139196
-0.128312
-0.118123
-0.10861
-0.0997499
-0.0945068
-0.0945068
-0.0866383
-0.079378
-0.0727028
-0.0665926
-0.0610298
-0.0559982
-0.0514853
-0.0474826
-0.0439859
-0.0409987
-0.0385273
-0.0365998
-0.0352348
-0.034488
)
;
    }
}


// ************************************************************************* //
