/*--------------------------------*- C++ -*----------------------------------*\
  =========                 |
  \\      /  F ield         | OpenFOAM: The Open Source CFD Toolbox
   \\    /   O peration     | Website:  https://openfoam.org
    \\  /    A nd           | Version:  7
     \\/     M anipulation  |
\*---------------------------------------------------------------------------*/
FoamFile
{
    version     2.0;
    format      ascii;
    class       surfaceScalarField;
    location    "240";
    object      phi;
}
// * * * * * * * * * * * * * * * * * * * * * * * * * * * * * * * * * * * * * //

dimensions      [0 3 -1 0 0 0 0];

internalField   nonuniform List<scalar> 
4147
(
-4.23247e-05
0.00249464
-0.000203587
0.00615454
-0.000501329
0.00886857
-0.00092729
0.0107217
-0.00145626
0.0119394
-0.00205641
0.0127908
-0.00269614
0.0134768
-0.00334703
0.0140602
-0.00398412
0.0144465
0.0143687
-0.00459149
-1.1814e-05
0.00250646
-0.000105908
0.00624864
-0.000314061
0.00907672
-0.00063623
0.0110439
-0.00104817
0.0123514
-0.00151241
0.0132551
-0.0019864
0.0139508
-0.00242696
0.0145008
-0.00279342
0.014813
0.0146237
-0.0030484
1.88045e-05
0.00248765
-5.36682e-06
0.00627281
-0.000118202
0.00918956
-0.000326309
0.011252
-0.000606891
0.0126319
-0.000916933
0.0135651
-0.00120272
0.0142366
-0.0014055
0.0147036
-0.00146967
0.0148771
0.0144837
-0.00132964
4.81814e-05
0.00243947
9.34448e-05
0.00622755
8.08472e-05
0.00920215
-5.3025e-06
0.0113381
-0.000143194
0.0127698
-0.000284881
0.0137068
-0.000366426
0.0143181
-0.000313821
0.014651
-4.88886e-05
0.0146122
0.0139466
0.000488131
7.55566e-05
0.00236392
0.000189047
0.00611406
0.000277013
0.00911419
0.00031767
0.0112975
0.000330489
0.012757
0.000366916
0.0136704
0.000499491
0.0141855
0.000814523
0.0143359
0.00139976
0.014027
0.0129664
0.00237999
9.98639e-05
0.00226405
0.000277459
0.00593646
0.000464146
0.0089275
0.000632893
0.0111287
0.000800617
0.0125893
0.00102069
0.0134503
0.00137178
0.0138345
0.00195115
0.0137566
0.00285426
0.0131238
0.0115654
0.00425531
0.000120164
0.00214389
0.000355435
0.00570119
0.000635627
0.00864731
0.0009301
0.0108343
0.00125303
0.0122664
0.00165818
0.0130452
0.00222776
0.0132649
0.0030672
0.0129171
0.004274
0.011917
0.00975649
0.00608287
0.000135672
0.00200822
0.000420032
0.00541683
0.000785217
0.00828213
0.00119915
0.0104203
0.00167357
0.0117919
0.00226141
0.0124573
0.00304611
0.0124802
0.00413896
0.0118243
0.00563229
0.0104237
0.00755185
0.00783693
0.000145782
0.00186243
0.000468763
0.00509385
0.00090732
0.00784357
0.00143054
0.00989712
0.00204864
0.0111738
0.00281318
0.0116928
0.00380731
0.0114861
0.00514648
0.0104851
0.00691228
0.00865792
0.00495487
0.00950925
0.000150105
0.00171233
0.000499776
0.00474418
0.000997388
0.00734596
0.00161609
0.00927842
0.00236609
0.0104238
0.00329791
0.0107609
0.00449427
0.0102897
0.00607399
0.00890538
0.00810746
0.00662445
0.00195186
0.0111105
0.000148492
0.00156384
0.000512042
0.00438063
0.00105239
0.00680561
0.00174975
0.00858105
0.00261646
0.00955713
0.0037033
0.0096741
0.00509432
0.00889869
0.00691182
0.00708788
0.00922469
0.00431158
-0.00149361
0.0126702
0.000141072
0.00142276
0.000505536
0.00401616
0.00107133
0.00623981
0.00182869
0.0078237
0.00279468
0.00859114
0.00402289
0.00844588
0.00560284
0.00731874
0.00766124
0.00502948
0.010291
0.00168187
-0.00543849
0.0142358
0.000128297
0.00129447
0.000481454
0.00366301
0.00105584
0.00566543
0.00185446
0.00702507
0.00290236
0.00754324
0.00425979
0.00708845
0.00602876
0.00554977
0.00834247
0.00271577
0.0113607
-0.00133638
-0.00994795
0.0158702
0.000110995
0.00118347
0.000442408
0.00333159
0.0010107
0.00509713
0.00183433
0.00620145
0.00295019
0.00642738
0.00443072
0.00560793
0.0064001
0.00358039
0.00900303
0.000112838
0.0125157
-0.00484902
-0.0150705
0.0176382
9.04253e-05
0.00109305
0.000392585
0.00302943
0.000944297
0.00454542
0.00178218
0.00536356
0.00295987
0.0052497
0.00456923
0.00399856
0.00676586
0.00138376
0.0097217
-0.002843
0.0138476
-0.00897494
-0.0208008
0.019578
6.82942e-05
0.00102475
0.000337741
0.00275999
0.000868578
0.00401458
0.00171867
0.00451347
0.00296434
0.00400403
0.00472563
0.00223728
0.00719869
-0.00108931
0.010593
-0.00623728
0.0154263
-0.0138082
-0.0269862
0.0216116
4.67e-05
0.000978053
0.000284954
0.00252173
0.000798485
0.00350105
0.00166999
0.00364196
0.00300527
0.00266875
0.00496123
0.000281325
0.0077752
-0.00390328
0.0117063
-0.0101684
0.0172608
-0.0193627
-0.0334399
0.0237144
2.79812e-05
0.000950072
0.000242031
0.00230768
0.000750536
0.00299255
0.00166499
0.00272751
0.00312726
0.00120647
0.00533731
-0.00192872
0.0085631
-0.00712907
0.0131028
-0.0147081
0.0192583
-0.0255181
-0.0398633
0.0256817
1.4466e-05
0.000935606
0.000216575
0.00210557
0.000740738
0.00246838
0.00173099
0.00173726
0.00337007
-0.000432613
0.00590086
-0.00445951
0.00959945
-0.0108277
0.0147478
-0.0198564
0.0212533
-0.0320237
-0.0459978
0.0273878
8.0628e-06
0.000927543
0.000214927
0.00189871
0.000782264
0.00190105
0.00188931
0.00063021
0.00376062
-0.00230392
0.00667218
-0.00737107
0.0108731
-0.0150286
0.0165273
-0.0255107
0.0230674
-0.0385637
-0.0517201
0.0287897
9.71992e-06
0.000917824
0.000241261
0.00166717
0.000883524
0.00125878
0.00215182
-0.000638087
0.00430798
-0.00446007
0.00763904
-0.0107021
0.0123205
-0.0197101
0.018281
-0.0314711
0.024634
-0.0449167
-0.0584215
0.0313354
1.9875e-05
0.000897949
0.000297177
0.00138987
0.00104723
0.000508734
0.00251956
-0.00211042
0.00500227
-0.00694278
0.008759
-0.0144589
0.013837
-0.0247881
0.0198748
-0.037509
0.0260155
-0.0510574
-0.0643173
0.0319113
3.83787e-05
0.000381772
0.00104647
0.00127064
-0.000380131
0.00298358
-0.00382336
0.00581693
-0.00977613
0.00996709
-0.018609
0.0153016
-0.0301226
0.021225
-0.0434323
0.026932
-0.0567644
-0.0693013
0.031916
0.000492172
0.00154685
-0.00143481
0.00352737
-0.00580389
0.0067131
-0.0129619
0.0111863
-0.0230822
0.0166115
-0.0355478
0.0222499
-0.0490707
0.0273805
-0.0618949
-0.0735613
0.0316404
0.00186648
-0.00267687
0.00412965
-0.00806706
0.00764469
-0.0164769
0.0123391
-0.0277766
0.0176893
-0.040898
0.0229112
-0.0542926
0.0274325
-0.0664162
-0.0771561
0.0310274
0.00221916
0.00476656
-0.0106145
0.00856313
-0.0202735
0.0133578
-0.0325714
0.0184885
-0.0460286
0.0232149
-0.0590191
0.0271292
-0.0703305
-0.0801692
0.0301423
0.00541307
0.00942166
-0.0242821
0.0141918
-0.0373414
0.0189921
-0.050829
0.0231876
-0.0632146
0.0265335
-0.0736765
-0.0826894
0.0290538
0.0101792
0.0148098
0.019206
-0.0552251
0.0228706
-0.0668792
0.0257029
-0.0765088
-0.0847942
0.0278077
0.0191519
0.0223097
-0.070037
0.0246894
-0.0788885
-0.0865548
0.02645
0.0215502
0.0235379
-0.0808763
-0.0880289
0.0250121
0.022285
0.0235196
-0.00506663
0.0227315
-0.00456113
0.00707076
-0.00329108
-0.0194074
-0.00139788
-0.056334
0.000403911
-0.0931481
0.0010591
-0.11945
0.000937493
-0.135248
0.00373197
-0.131377
0.0107798
-0.0831185
0.0186525
-0.00662202
0.0244791
0.0707045
0.0280161
0.12113
0.0295453
0.14592
0.0279314
0.155943
0.0242509
0.167067
0.02322
0.162377
0.026186
0.0624138
0.0309083
-0.036449
0.0339929
-0.115897
0.0335415
-0.141525
0.0315724
-0.166108
0.030927
-0.203463
0.0319961
-0.107847
0.0336675
-0.058931
0.0348376
0.093337
0.0350735
0.197741
0.0347979
0.184122
0.0345607
0.243487
-0.24325
0.0347455
-0.0288281
0.0286433
-0.160152
0.160519
-0.00320605
0.0228891
-0.00261093
0.00647564
-0.00139994
-0.0206184
0.000303733
-0.0580376
0.00163808
-0.0944825
0.00189251
-0.119704
0.000942495
-0.134298
0.00253426
-0.132969
0.00913675
-0.0897209
0.0173527
-0.014838
0.0237025
0.0643547
0.0277815
0.117051
0.0296564
0.144045
0.0281069
0.157493
0.0245545
0.170619
0.0237793
0.163153
0.0266857
0.0595074
0.0311266
-0.0408899
0.0339958
-0.118767
0.0334667
-0.140996
0.031531
-0.164172
0.0309265
-0.202858
0.0319658
-0.108887
0.0335939
-0.0605591
0.0347808
0.09215
0.0350407
0.197481
0.0347421
0.18442
0.034535
0.243694
0.0348007
-0.0290938
-0.159811
-0.00112974
0.0226892
-0.000480023
0.00582592
0.000663853
-0.0217622
0.00199524
-0.059369
0.00304412
-0.0955314
0.00295691
-0.119617
0.00135621
-0.132697
0.00169466
-0.133307
0.00757934
-0.0956056
0.0160441
-0.0233027
0.0229026
0.0574962
0.0275269
0.112427
0.0297514
0.14182
0.0282909
0.158953
0.0249033
0.174007
0.0243728
0.163683
0.0271822
0.056698
0.0313236
-0.0450313
0.0339798
-0.121423
0.0333804
-0.140396
0.0314687
-0.16226
0.030906
-0.202296
0.0319283
-0.109909
0.0335144
-0.0621452
0.0347115
0.0909529
0.0349917
0.1972
0.0346742
0.184738
0.0345051
0.243863
0.0348536
-0.0294424
-0.159497
0.00106305
0.0221143
0.00175891
0.00513006
0.00274021
-0.0227435
0.00382202
-0.0604508
0.00457148
-0.0962808
0.00419996
-0.119245
0.00212535
-0.130623
0.00124129
-0.132423
0.00616011
-0.100524
0.0147322
-0.0318748
0.0220859
0.0501425
0.027254
0.107259
0.0298294
0.139245
0.028484
0.160299
0.0252941
0.177197
0.0249912
0.163986
0.0276706
0.0540186
0.0314976
-0.0488583
0.0339436
-0.123869
0.0332819
-0.139735
0.0313837
-0.160362
0.0308622
-0.201774
0.031882
-0.110929
0.0334292
-0.0636924
0.0346299
0.0897522
0.0349264
0.196904
0.0345946
0.18507
0.0344714
0.243986
0.0349043
-0.0298753
-0.159212
0.00325844
0.0212359
0.00403502
0.00435348
0.00488856
-0.0235971
0.00572714
-0.0612894
0.0061839
-0.0967376
0.00557214
-0.118633
0.00317777
-0.128228
0.00119399
-0.13044
0.0049454
-0.104276
0.0134335
-0.0403629
0.0212567
0.0423193
0.026964
0.101551
0.0298891
0.13632
0.0286859
0.161502
0.0257212
0.180161
0.0256239
0.164083
0.0281458
0.0514968
0.0316468
-0.0523594
0.0338858
-0.126108
0.0331705
-0.139019
0.0312745
-0.158466
0.030792
-0.201292
0.0318254
-0.111962
0.0333382
-0.0652052
0.0345365
0.0885539
0.0348448
0.196596
0.0345034
0.185411
0.0344344
0.244055
0.034953
-0.030394
-0.158955
0.00544453
0.0200467
0.00631493
0.00348309
0.00706129
-0.0243434
0.00767848
-0.0619066
0.00784954
-0.0969087
0.00701959
-0.117804
0.00443632
-0.125645
0.00155424
-0.127558
0.0040031
-0.106725
0.0121723
-0.0485321
0.0204228
0.0340687
0.0266578
0.0953164
0.0299285
0.133049
0.0288948
0.162536
0.0261776
0.182879
0.0262604
0.164
0.0286029
0.0491544
0.0317699
-0.0555265
0.0338052
-0.128143
0.0330452
-0.138259
0.0311404
-0.156561
0.0306932
-0.200845
0.0317564
-0.113025
0.033241
-0.0666898
0.0344316
0.0873634
0.034747
0.19628
0.0344011
0.185757
0.0343946
0.244062
0.0349999
-0.0309993
-0.158728
0.00756661
0.0185629
0.00855672
0.00249297
0.00922749
-0.0250142
0.00964859
-0.0623277
0.00953929
-0.0967993
0.00849313
-0.116757
0.00582477
-0.122977
0.00229152
-0.124024
0.00338822
-0.107821
0.0109795
-0.0561234
0.0195938
0.0254544
0.0263359
0.0885743
0.0299451
0.12944
0.0291079
0.163373
0.026655
0.185331
0.0268905
0.163765
0.0290371
0.0470078
0.0318655
-0.0583549
0.0337005
-0.129978
0.0329048
-0.137464
0.030981
-0.154638
0.0305641
-0.200428
0.0316728
-0.114134
0.033137
-0.068154
0.0343153
0.086185
0.0346332
0.195962
0.0342882
0.186102
0.0343524
0.243998
0.0350452
-0.0316921
-0.158532
0.00959231
0.0168075
0.0107241
0.00136116
0.0113643
-0.0256543
0.0116125
-0.0625759
0.0112257
-0.0964126
0.00995413
-0.115486
0.0072722
-0.120295
0.00334576
-0.120098
0.00313067
-0.107606
0.00989211
-0.0628849
0.0187791
0.0165674
0.0259977
0.0813558
0.0299361
0.125502
0.0293217
0.163987
0.0271441
0.187509
0.027504
0.163405
0.0294441
0.0450677
0.0319321
-0.060843
0.0335704
-0.131616
0.0327482
-0.136641
0.0307966
-0.152686
0.0304036
-0.200035
0.0315725
-0.115303
0.0330251
-0.0696067
0.0341879
0.0850222
0.0345037
0.195647
0.0341651
0.18644
0.0343084
0.243855
0.0350891
-0.0324727
-0.158367
0.0115027
0.0148141
0.0128037
6.01445e-05
0.0134555
-0.0263061
0.0135476
-0.0626681
0.0128823
-0.0957472
0.0113704
-0.113974
0.00871552
-0.11764
0.00463562
-0.116018
0.00323131
-0.106202
0.00895049
-0.068604
0.0179866
0.00753124
0.0256411
0.0737013
0.0298978
0.121245
0.0295315
0.164354
0.0276353
0.189405
0.0280922
0.162948
0.0298198
0.0433401
0.0319687
-0.0629919
0.0334136
-0.133061
0.0325738
-0.135802
0.0305876
-0.1507
0.0302117
-0.199659
0.0314532
-0.116544
0.0329041
-0.0710576
0.0340493
0.0838771
0.0343587
0.195337
0.0340325
0.186767
0.034263
0.243624
0.0351318
-0.0333415
-0.158233
0.0133041
0.0126205
0.014793
-0.00142878
0.0154864
-0.0269995
0.0154333
-0.062615
0.0144832
-0.0947971
0.0127154
-0.112206
0.0101014
-0.115026
0.00606827
-0.111985
0.0036662
-0.1038
0.00819423
-0.0731321
0.0172203
-0.00149483
0.0252617
0.0656599
0.0298259
0.116681
0.0297323
0.164447
0.0281192
0.191018
0.0286473
0.16242
0.030161
0.0418264
0.031974
-0.064805
0.0332291
-0.134316
0.0323804
-0.134953
0.0303548
-0.148674
0.0299886
-0.199292
0.0313128
-0.117869
0.0327725
-0.0725174
0.0338993
0.0827504
0.0341987
0.195038
0.0338908
0.187075
0.0342166
0.243298
0.0351736
-0.0342985
-0.158131
0.0150375
0.0102531
0.0166781
-0.00306937
0.0174349
-0.0277563
0.0172501
-0.0624302
0.0160017
-0.0935487
0.0139672
-0.110172
0.0113875
-0.112446
0.00755109
-0.108148
0.00439412
-0.100643
0.00766325
-0.0764012
0.0164707
-0.0103022
0.0248517
0.0572788
0.0297154
0.111817
0.0299189
0.164244
0.0285868
0.19235
0.0291627
0.161844
0.0304649
0.0405242
0.0319473
-0.0662873
0.0330157
-0.135385
0.0321665
-0.134104
0.0300989
-0.146607
0.0297352
-0.198929
0.0311493
-0.119283
0.0326286
-0.0739967
0.0337378
0.0816412
0.0340241
0.194751
0.0337408
0.187358
0.0341698
0.242869
0.0352146
-0.0353433
-0.158063
0.0167236
0.00776541
0.0184858
-0.00483165
0.019295
-0.0285655
0.0189679
-0.062103
0.0174087
-0.0919895
0.0151079
-0.107871
0.0125432
-0.109881
0.00900157
-0.104607
0.00536083
-0.0970022
0.00735851
-0.0783989
0.0157422
-0.018686
0.0243989
0.0486222
0.0295601
0.106656
0.0300858
0.163718
0.0290299
0.193406
0.0296329
0.161241
0.0307296
0.0394276
0.0318877
-0.0674454
0.0327724
-0.136269
0.0319311
-0.133263
0.0298208
-0.144496
0.0294525
-0.19856
0.0309611
-0.120791
0.0324706
-0.0755063
0.0335645
0.0805474
0.0338353
0.19448
0.0335831
0.18761
0.034123
0.242329
0.0352552
-0.0364756
-0.158027
0.0184003
0.00523531
0.0202345
-0.00666587
0.0210629
-0.029394
0.0205551
-0.0615952
0.0186806
-0.0901151
0.016122
-0.105312
0.0135483
-0.107308
0.0103526
-0.101411
0.00649991
-0.0931496
0.00728028
-0.0791792
0.0150249
-0.0264305
0.0238873
0.0397598
0.0293529
0.10119
0.0302272
0.162844
0.0294413
0.194192
0.0300544
0.160628
0.0309538
0.0385282
0.0317948
-0.0682864
0.0324984
-0.136973
0.0316735
-0.132438
0.0295213
-0.142344
0.0291419
-0.198181
0.0307467
-0.122396
0.0322966
-0.0770561
0.033379
0.079465
0.0336327
0.194227
0.0334183
0.187825
0.0340765
0.241671
0.0352956
-0.0376947
-0.158025
0.0200989
0.00277459
0.0219379
-0.00850487
0.022731
-0.0301871
0.0219938
-0.060858
0.0197972
-0.0879185
0.0169977
-0.102513
0.0143925
-0.104702
0.0115545
-0.0985732
0.00773615
-0.0893312
0.00741551
-0.0788586
0.014317
-0.0333321
0.023299
0.0307778
0.0290854
0.0954038
0.0303373
0.161592
0.0298149
0.194715
0.0304239
0.160019
0.0311373
0.0378148
0.0316684
-0.0688176
0.0321934
-0.137498
0.0313931
-0.131637
0.0292014
-0.140152
0.0288048
-0.197784
0.0305052
-0.124097
0.0321046
-0.0786555
0.0331809
0.0783887
0.0334169
0.193991
0.033247
0.187994
0.034031
0.240887
0.035336
-0.0389997
-0.158056
0.0218404
0.000512152
0.0236021
-0.0102666
0.0242863
-0.0308713
0.0232651
-0.0598367
0.0207439
-0.0853973
0.0177296
-0.0994984
0.0150773
-0.10205
0.0125776
-0.0960735
0.0089913
-0.0857449
0.0077388
-0.0776061
0.0136313
-0.0392246
0.0226167
0.0217924
0.0287481
0.0892723
0.0304105
0.159929
0.0301456
0.194979
0.0307408
0.159424
0.0312803
0.0372753
0.0315089
-0.0690462
0.031857
-0.137846
0.0310899
-0.13087
0.0288618
-0.137924
0.0284426
-0.197365
0.0302356
-0.12589
0.0318925
-0.0803124
0.0329697
0.0773116
0.0331885
0.193772
0.03307
0.188113
0.0339868
0.23997
0.0353767
-0.0403896
-0.158121
0.0236484
-0.00152462
0.0252198
-0.011838
0.025707
-0.0313585
0.0243484
-0.0584781
0.0215107
-0.0825596
0.0183167
-0.0963044
0.0156107
-0.0993441
0.0134079
-0.0938707
0.0101924
-0.0825293
0.00821889
-0.0756326
0.0129919
-0.0439976
0.0218287
0.0129557
0.0283308
0.0827702
0.0304407
0.157819
0.0304295
0.194991
0.0310052
0.158848
0.0313853
0.0368952
0.0313163
-0.0689772
0.0314888
-0.138019
0.0307634
-0.130145
0.0285031
-0.135664
0.0280564
-0.196919
0.0299373
-0.127771
0.0316585
-0.0820337
0.0327448
0.0762253
0.0329479
0.193569
0.0328878
0.188173
0.0339443
0.238914
0.0354178
-0.041863
-0.15822
0.025419
-0.00322924
0.0267635
-0.0131825
0.026957
-0.031552
0.0252127
-0.0567337
0.0220728
-0.0794197
0.0187348
-0.0929664
0.0159765
-0.0965859
0.0140231
-0.0919173
0.0112676
-0.0797737
0.00881268
-0.0731777
0.0124247
-0.0476097
0.0209352
0.00444515
0.0278239
0.0758815
0.0304221
0.155221
0.0306634
0.194749
0.03122
0.158291
0.0314558
0.0366594
0.0310905
-0.0686119
0.031086
-0.138014
0.0304121
-0.129471
0.0281258
-0.133378
0.0276469
-0.19644
0.0296093
-0.129733
0.0314002
-0.0838246
0.0325057
0.0751199
0.0326957
0.193379
0.032701
0.188168
0.033904
0.237711
0.0354596
-0.0434186
-0.15835
0.027134
-0.00468148
0.0282034
-0.0142519
0.0280006
-0.0313493
0.0258267
-0.0545597
0.0223966
-0.0759896
0.0189401
-0.0895099
0.0161359
-0.0937817
0.0143888
-0.0901702
0.0121488
-0.0775338
0.00946406
-0.070493
0.0119461
-0.0500917
0.0199496
-0.0035584
0.0272188
0.0686124
0.0303485
0.152092
0.0308453
0.194252
0.0313956
0.157741
0.0315051
0.03655
0.0308351
-0.0679418
0.030648
-0.137827
0.0300349
-0.128858
0.0277311
-0.131074
0.0272159
-0.195924
0.0292514
-0.131768
0.0311151
-0.0856883
0.0322512
0.0739837
0.0324324
0.193198
0.0325102
0.18809
0.0338663
0.236355
0.0355024
-0.0450547
-0.158512
0.0287561
-0.00604979
0.029517
-0.0150128
0.0288305
-0.0306627
0.0262426
-0.0519718
0.0225939
-0.0723409
0.0190774
-0.0859934
0.0162484
-0.0909526
0.0146252
-0.0885471
0.0128694
-0.0757779
0.0101696
-0.0677932
0.011586
-0.0515081
0.0188946
-0.010867
0.0265073
0.0609997
0.0302168
0.148382
0.0309742
0.193495
0.031547
0.157168
0.0315541
0.0365429
0.0305596
-0.0669473
0.0301886
-0.137456
0.0296397
-0.128309
0.0273242
-0.128758
0.0267687
-0.195369
0.0288669
-0.133867
0.0308039
-0.0876253
0.0319804
0.0728073
0.0321584
0.19302
0.0323163
0.187932
0.0338316
0.234839
0.0355464
-0.0467695
-0.158705
0.0303366
-0.00759666
0.0306049
-0.0152811
0.0294146
-0.0294724
0.0265731
-0.0491304
0.0228912
-0.068659
0.0194203
-0.0825225
0.0165848
-0.0881171
0.0149863
-0.0869486
0.0135988
-0.0743904
0.011001
-0.0651954
0.0114533
-0.0519604
0.0178765
-0.0172903
0.02568
0.0531963
0.0299656
0.144097
0.0310468
0.192414
0.03168
0.156535
0.0315598
0.0366631
0.0302587
-0.0656462
0.0297317
-0.136929
0.029253
-0.12783
0.0269175
-0.126423
0.0263056
-0.194757
0.0284742
-0.136035
0.0304778
-0.0896289
0.0316963
0.0715888
0.0318739
0.192842
0.0321218
0.187684
0.0338012
0.23316
0.0355868
-0.0485551
-0.15893
0.0628957
-0.00802409
-0.0624683
0.0641463
-0.0165317
0.064803
-0.0301292
0.0635168
-0.0478442
0.0600694
-0.0652115
0.0551645
-0.0776176
0.0492994
-0.082252
0.0437166
-0.0813658
0.0383931
-0.0690669
0.0309654
-0.0577678
0.0256904
-0.0466853
0.0267836
-0.0183835
0.0291646
0.0508153
0.0295256
0.143736
0.0331188
0.188821
0.0438194
0.145835
0.0536528
0.0268296
0.0572706
-0.0692639
0.0570775
-0.136736
0.0545018
-0.125255
0.0509229
-0.122844
0.0485491
-0.192383
0.0483785
-0.135865
0.0468784
-0.0881288
0.0444025
0.0740648
0.0436218
0.193623
0.0444451
0.186861
0.0487023
0.228903
0.052027
-0.0518798
-0.158133
0.0705711
-0.00818125
-0.0704139
0.0708862
-0.0168468
0.0704549
-0.0296978
0.0682822
-0.0456716
0.0641931
-0.0611223
0.0588704
-0.072295
0.0528293
-0.0762109
0.0470971
-0.0756336
0.0420237
-0.0639934
0.0351533
-0.0508974
0.029025
-0.040557
0.0283154
-0.017674
0.0303135
0.0488172
0.0311694
0.14288
0.0362157
0.183774
0.0483026
0.133748
0.0583421
0.0167901
0.0613965
-0.0723182
0.06057
-0.13591
0.0576107
-0.122295
0.0537496
-0.118983
0.051199
-0.189833
0.0509485
-0.135614
0.049163
-0.0863433
0.0462745
0.0769533
0.045349
0.194548
0.0464806
0.185729
0.0513558
0.224028
0.0548479
-0.0553719
-0.157182
0.0765208
-0.00803134
-0.0766707
0.0763723
-0.0166983
0.0752711
-0.0285966
0.0725192
-0.0429197
0.0680529
-0.056656
0.0625462
-0.0667882
0.0564851
-0.0701498
0.0506413
-0.0697899
0.045701
-0.059053
0.039519
-0.0447155
0.0329274
-0.0339654
0.0305412
-0.0152877
0.0317998
0.0475586
0.0331846
0.141495
0.0399542
0.177005
0.0535002
0.120202
0.0634739
0.00681641
0.0657909
-0.0746353
0.0642164
-0.134335
0.0608616
-0.11894
0.0567268
-0.114848
0.0539766
-0.187082
0.0536142
-0.135252
0.051532
-0.0842611
0.0481922
0.080293
0.0471393
0.195601
0.0486271
0.184242
0.0542089
0.218446
0.0578472
-0.0590102
-0.156043
0.0813133
-0.00771199
-0.0816327
0.0808154
-0.0162004
0.0792971
-0.0270783
0.0762302
-0.0398528
0.0716102
-0.0520361
0.0660734
-0.0612514
0.0601088
-0.0641851
0.0542682
-0.0639493
0.0494123
-0.0541972
0.0439749
-0.0392781
0.0374269
-0.0274174
0.0335784
-0.0114391
0.0338035
0.0473334
0.0358106
0.139488
0.0446121
0.168203
0.0594198
0.105394
0.0690059
-0.00276968
0.0703891
-0.0760185
0.0679935
-0.13194
0.0642443
-0.115191
0.0598462
-0.11045
0.0568727
-0.184109
0.0563685
-0.134748
0.0539645
-0.0818571
0.0501446
0.084113
0.0489929
0.196753
0.0509233
0.182311
0.0572821
0.212087
0.0610335
-0.0627616
-0.154684
0.0852604
-0.00725079
-0.0857216
0.0845062
-0.0154462
0.0827501
-0.0253222
0.0795693
-0.036672
0.0749707
-0.0474374
0.0695282
-0.055809
0.0637404
-0.0583973
0.0580061
-0.058215
0.053194
-0.0493851
0.0484574
-0.0345415
0.0424506
-0.0214107
0.0375204
-0.00650888
0.0365109
0.0483429
0.0393394
0.136659
0.0504191
0.157124
0.0660762
0.089737
0.0748739
-0.0115674
0.0751424
-0.076287
0.0718771
-0.128674
0.0677509
-0.111065
0.0631114
-0.10581
0.0598867
-0.180884
0.0592003
-0.134061
0.0564437
-0.0791006
0.0521259
0.0884309
0.0509243
0.197954
0.0533951
0.17984
0.0605966
0.204885
0.0644191
-0.0665841
-0.153064
0.0886538
-0.00671255
-0.089192
0.0877336
-0.014526
0.0858597
-0.0234482
0.0826966
-0.0335089
0.0782326
-0.0429734
0.0729722
-0.0505486
0.0674125
-0.0528376
0.0618711
-0.0526736
0.0571001
-0.0446141
0.0529312
-0.0303725
0.0478479
-0.0163274
0.0424063
-0.00106728
0.0402196
0.0505297
0.0441535
0.132725
0.0575467
0.14373
0.0734228
0.0738608
0.0809773
-0.0191219
0.0799855
-0.0752952
0.0758377
-0.124526
0.071372
-0.106599
0.0665247
-0.100963
0.0630146
-0.177374
0.0620944
-0.133141
0.058952
-0.0759582
0.0541302
0.0932526
0.052954
0.19913
0.0560719
0.176722
0.0641762
0.196781
0.0680166
-0.0704244
-0.151141
0.0917645
-0.00614959
-0.0923274
0.090738
-0.0134996
0.0888183
-0.0215285
0.085749
-0.0304396
0.0814862
-0.0387106
0.0764659
-0.0455284
0.0711656
-0.0475373
0.0658728
-0.0473808
0.0611906
-0.0399319
0.0574153
-0.0265973
0.0534284
-0.0123405
0.0481767
0.00418442
0.0453115
0.0533949
0.0506867
0.12735
0.0660545
0.128363
0.081299
0.0586164
0.0871668
-0.0249896
0.0848408
-0.0729692
0.0798449
-0.119531
0.0750977
-0.101852
0.0700886
-0.0959538
0.0662513
-0.173537
0.0650318
-0.131921
0.0614681
-0.0723946
0.0561537
0.0985671
0.0551089
0.200175
0.0589878
0.172844
0.0680444
0.187724
0.0718384
-0.0742185
-0.148863
0.0947845
-0.00557552
-0.0953585
0.0936936
-0.0124088
0.0917721
-0.019607
0.0888348
-0.0275023
0.084807
-0.0346828
0.08006
-0.0407814
0.0750412
-0.0425185
0.0700184
-0.0423579
0.0655108
-0.0354244
0.0619904
-0.0230768
0.0590076
-0.00935775
0.0546256
0.0085664
0.0520702
0.0559503
0.0592386
0.120182
0.0757672
0.111834
0.0894036
0.0449799
0.0932465
-0.0288326
0.0896261
-0.0693488
0.0838716
-0.113776
0.0789187
-0.0968992
0.0738052
-0.0908403
0.0695904
-0.169322
0.0679893
-0.13032
0.0639678
-0.0683731
0.0581969
0.104338
0.0574242
0.200948
0.0621836
0.168084
0.0722243
0.177684
0.0758961
-0.0778902
-0.146178
0.0978371
-0.00499878
-0.0984138
0.096717
-0.0112886
0.0948223
-0.0177123
0.092032
-0.024712
0.0882529
-0.0309038
0.0837937
-0.0363222
0.0790754
-0.0378002
0.0743222
-0.0376046
0.0700764
-0.0311787
0.0667655
-0.0197659
0.0644933
-0.00708551
0.0613897
0.0116699
0.0603816
0.0569584
0.0696118
0.110952
0.0861264
0.0953194
0.0972933
0.0338129
0.0989963
-0.0305355
0.0942696
-0.0646221
0.0878997
-0.107406
0.082827
-0.0918265
0.077676
-0.0856893
0.0730232
-0.164669
0.0709411
-0.128238
0.0664252
-0.0638571
0.060269
0.110494
0.0599482
0.201269
0.0657082
0.162324
0.0767394
0.166653
0.0802
-0.0813509
-0.143026
0.101001
-0.00442853
-0.101571
0.099877
-0.0101649
0.0980305
-0.0158658
0.0953905
-0.022072
0.0918637
-0.027377
0.0876957
-0.0321542
0.0832926
-0.0333971
0.0788078
-0.0331198
0.0748781
-0.027249
0.0718214
-0.0167093
0.0699214
-0.00518548
0.0681114
0.01348
0.0695662
0.0555035
0.0808233
0.0996944
0.0961785
0.0799642
0.104447
0.025544
0.104225
-0.0303132
0.0987299
-0.0591268
0.0919259
-0.100602
0.0868181
-0.0867187
0.0817014
-0.0805726
0.076541
-0.159509
0.0738598
-0.125557
0.0688145
-0.0588119
0.0623925
0.116916
0.062747
0.200914
0.0696194
0.155452
0.0816122
0.15466
0.0847587
-0.0844974
-0.139342
0.104317
-0.00387018
-0.104876
0.103209
-0.00905671
0.101429
-0.0140858
0.0989393
-0.0195822
0.095664
-0.0241017
0.0917866
-0.0282768
0.0877058
-0.0293162
0.0835017
-0.0289158
0.0799015
-0.0236487
0.0771661
-0.0139739
0.0754312
-0.00345058
0.0746538
0.0142573
0.0786486
0.0515088
0.0913769
0.0869662
0.104879
0.0664618
0.110461
0.0199619
0.108849
-0.0287004
0.103013
-0.0532909
0.0959638
-0.0935534
0.0908894
-0.0816443
0.085879
-0.0755622
0.0801359
-0.153766
0.0767167
-0.122138
0.0711108
-0.053206
0.0646067
0.12342
0.0659084
0.199613
0.0739831
0.147377
0.0868628
0.14178
0.0895776
-0.0872122
-0.135061
0.107807
-0.00332949
-0.108348
0.106731
-0.00798057
0.105034
-0.012389
0.102695
-0.0172433
0.0996683
-0.0210751
0.0960812
-0.0246897
0.0923211
-0.0255561
0.0884229
-0.0250176
0.08514
-0.0203658
0.0827562
-0.0115901
0.0811668
-0.0018612
0.0811279
0.0142962
0.0869101
0.0457266
0.100102
0.073774
0.111642
0.0549223
0.115263
0.0163407
0.112933
-0.0263706
0.107169
-0.0475272
0.100041
-0.0864251
0.0950379
-0.076641
0.0902028
-0.070727
0.0838012
-0.147364
0.0794826
-0.117819
0.0732906
-0.047014
0.0669705
0.12974
0.0695431
0.19704
0.078871
0.138049
0.0925057
0.128145
0.0946577
-0.0893642
-0.130115
0.111484
-0.00281297
-0.112001
0.110453
-0.00694988
0.108854
-0.0107893
0.106668
-0.0150578
0.103886
-0.0182929
0.10059
-0.0213933
0.0971434
-0.0221097
0.0935775
-0.0214517
0.0905954
-0.0173837
0.088548
-0.00954263
0.0871934
-0.000506595
0.0876944
0.0137952
0.0941952
0.0392257
0.106794
0.0611756
0.116635
0.0450805
0.119139
0.0138374
0.116663
-0.0238947
0.111274
-0.0421388
0.104194
-0.0793442
0.0992616
-0.071709
0.0946614
-0.0661268
0.0875322
-0.140235
0.0821303
-0.112417
0.0753367
-0.0402204
0.0695679
0.135509
0.0737831
0.192825
0.0843545
0.127478
0.098546
0.113954
0.0999942
-0.0908124
-0.124441
0.115363
-0.00232617
-0.115849
0.114388
-0.00597535
0.112897
-0.00929781
0.110869
-0.01303
0.108326
-0.01575
0.10532
-0.0183877
0.102179
-0.0189682
0.0989626
-0.0182356
0.09627
-0.0146911
0.0945244
-0.00779704
0.0934897
0.000528106
0.0944
0.0128848
0.100767
0.0328586
0.112058
0.0498852
0.120524
0.0366145
0.122541
0.0118202
0.120249
-0.0216026
0.115395
-0.0372856
0.108457
-0.0724056
0.103561
-0.0668137
0.0992385
-0.0618038
0.0913283
-0.132325
0.0846419
-0.105731
0.0772489
-0.0328274
0.0725163
0.140242
0.0787762
0.186565
0.0904968
0.115757
0.104975
0.0994762
0.105574
-0.0914117
-0.117982
0.119457
-0.00187353
-0.11991
0.118547
-0.00506562
0.117171
-0.00792183
0.115306
-0.0111643
0.112996
-0.0134401
0.110279
-0.0156706
0.107434
-0.0161237
0.104571
-0.0153724
0.102163
-0.0122827
0.100685
-0.00631955
0.0999952
0.0012182
0.101195
0.0116849
0.10698
0.0270733
0.11669
0.0401761
0.123998
0.0293058
0.12586
0.00995834
0.123861
-0.0196034
0.11958
-0.0330048
0.112864
-0.0656896
0.107947
-0.0618961
0.103912
-0.0577697
0.095197
-0.123609
0.0870264
-0.0975603
0.0790704
-0.0248714
0.0759782
0.143334
0.0846766
0.177867
0.0973419
0.103092
0.111762
0.0850556
0.111373
-0.0910223
-0.1107
0.123784
-0.00145862
-0.124199
0.122946
-0.00422741
0.12169
-0.00666595
0.11999
-0.00946431
0.117906
-0.0113564
0.115472
-0.0132362
0.112917
-0.013569
0.110397
-0.0128526
0.10827
-0.0101554
0.107033
-0.0050821
0.106655
0.00159623
0.108023
0.0103167
0.113084
0.0220117
0.121249
0.0320117
0.127517
0.0230377
0.129332
0.00814344
0.127613
-0.0178844
0.123859
-0.0292513
0.117443
-0.0592735
0.112442
-0.0568951
0.10866
-0.0539881
0.099158
-0.114107
0.0893468
-0.0877492
0.0809361
-0.0164607
0.0801749
0.144095
0.0916268
0.166415
0.104901
0.0898178
0.118856
0.0711
0.117355
-0.0895211
-0.102587
0.12836
-0.0010842
-0.128735
0.127598
-0.00346557
0.126465
-0.00553228
0.124932
-0.00793125
0.123067
-0.00949202
0.120906
-0.0110751
0.118634
-0.0112969
0.116438
-0.0106567
0.114586
-0.00830367
0.113562
-0.00405842
0.113436
0.00172312
0.114865
0.0088876
0.119208
0.0176682
0.125998
0.025222
0.131297
0.0177383
0.133067
0.00637361
0.131575
-0.0163925
0.12826
-0.025936
0.122213
-0.0532267
0.117094
-0.0517757
0.113466
-0.0503603
0.103256
-0.103897
0.0917744
-0.0762673
0.0831167
-0.00780299
0.0853848
0.141827
0.0997222
0.152077
0.11314
0.0764004
0.126177
0.0580625
0.12347
-0.0868138
-0.0936758
0.133204
-0.000752341
-0.133536
0.132521
-0.00278314
0.13151
-0.00452098
0.130143
-0.00656391
0.12849
-0.00783958
0.126589
-0.00917375
0.124591
-0.0092986
0.122694
-0.0087598
0.121107
-0.00671737
0.12027
-0.00322074
0.120326
0.00166686
0.121735
0.00747843
0.125413
0.0139904
0.131025
0.0196096
0.135429
0.0133342
0.137108
0.00469471
0.135795
-0.015079
0.132818
-0.0229595
0.127184
-0.0475922
0.121982
-0.0465737
0.118351
-0.0467291
0.107568
-0.0931152
0.0946699
-0.0633686
0.0861055
0.000761375
0.0919473
0.135985
0.108979
0.135046
0.121957
0.0634227
0.133618
0.0464013
0.129654
-0.0828503
-0.0840639
0.138333
-0.00046466
-0.138621
0.137731
-0.00218142
0.136841
-0.0036306
0.135635
-0.00535836
0.134187
-0.00639088
0.132529
-0.00751638
0.130793
-0.00756259
0.129168
-0.00713486
0.12783
-0.00537877
0.127154
-0.00254469
0.127327
0.00149369
0.128662
0.00614297
0.131739
0.0109138
0.136348
0.0150003
0.139948
0.00973451
0.141476
0.00316608
0.140301
-0.0139031
0.137582
-0.0202412
0.132354
-0.042364
0.127183
-0.0414026
0.123403
-0.0429495
0.112225
-0.0819367
0.0986443
-0.049788
0.0907681
0.00863762
0.100323
0.12643
0.119334
0.116035
0.13117
0.0515868
0.141047
0.0365245
0.135841
-0.0776442
-0.073926
0.143767
-0.000222336
-0.144009