/*--------------------------------*- C++ -*----------------------------------*\
  =========                 |
  \\      /  F ield         | OpenFOAM: The Open Source CFD Toolbox
   \\    /   O peration     | Website:  https://openfoam.org
    \\  /    A nd           | Version:  7
     \\/     M anipulation  |
\*---------------------------------------------------------------------------*/
FoamFile
{
    version     2.0;
    format      ascii;
    class       surfaceScalarField;
    location    "290";
    object      phi;
}
// * * * * * * * * * * * * * * * * * * * * * * * * * * * * * * * * * * * * * //

dimensions      [0 3 -1 0 0 0 0];

internalField   nonuniform List<scalar> 
4147
(
-0.000153699
0.000688164
-0.000521803
0.000858237
-0.00106304
0.000213181
-0.00174891
-0.000955187
-0.00255639
-0.00244765
-0.00346304
-0.00420882
-0.00444776
-0.00630589
-0.00549686
-0.00885867
-0.00660783
-0.0119828
-0.015795
-0.00779422
-0.000161014
0.000849178
-0.000550122
0.00124735
-0.00112506
0.000788117
-0.00185489
-0.000225352
-0.0027147
-0.00158784
-0.00368218
-0.00324134
-0.00473874
-0.00524933
-0.00587538
-0.00772203
-0.00709792
-0.0107602
-0.0144551
-0.00843776
-0.000162863
0.00101204
-0.000561213
0.00164569
-0.00115327
0.00138017
-0.0019059
0.000527286
-0.00279175
-0.000701998
-0.003787
-0.00224608
-0.0048725
-0.00416384
-0.00603897
-0.00655556
-0.00729433
-0.00950485
-0.0130724
-0.00867708
-0.000158704
0.00117074
-0.000553355
0.00204035
-0.0011444
0.00197121
-0.00189719
0.00128008
-0.00278109
0.0001819
-0.00376937
-0.0012578
-0.00483894
-0.00309426
-0.00597481
-0.0054197
-0.00717995
-0.0082997
-0.0117667
-0.00848565
-0.000148355
0.0013191
-0.000525828
0.00241782
-0.00109703
0.00254241
-0.00182628
0.00200933
-0.00267965
0.00103526
-0.00362561
-0.000311837
-0.00463425
-0.00208562
-0.00567939
-0.00437457
-0.00675206
-0.00722703
-0.0106608
-0.00785793
-0.000132022
0.00145112
-0.000478969
0.00276477
-0.00101145
0.0030749
-0.00169353
0.00269141
-0.00248764
0.00182937
-0.00335639
0.000556916
-0.00426056
-0.00118145
-0.00515785
-0.00347727
-0.00602164
-0.00636325
-0.00987252
-0.00680993
-0.0001103
0.00156142
-0.000414204
0.00306867
-0.000889837
0.00355053
-0.00150176
0.00330334
-0.00220859
0.00253619
-0.00296651
0.00131484
-0.00372513
-0.00042283
-0.00442255
-0.00277985
-0.0050108
-0.005775
-0.00950526
-0.00537806
-8.41601e-05
0.00164558
-0.000334022
0.00331853
-0.00073622
0.00395273
-0.00125642
0.00382354
-0.00184942
0.00312919
-0.00246437
0.00192979
-0.00303945
0.000152248
-0.00349104
-0.00232826
-0.00374868
-0.00551736
-0.00963835
-0.00361559
-5.49011e-05
0.00170048
-0.00024189
0.00350552
-0.000556386
0.00426722
-0.000965481
0.00423263
-0.00142011
0.00358382
-0.00186189
0.00237158
-0.00221871
0.000509062
-0.00238334
-0.00216363
-0.00226378
-0.00563692
-0.0103099
-0.00159221
-2.4078e-05
0.00172456
-0.000142098
0.00362354
-0.000357692
0.00448282
-0.000639319
0.00451426
-0.000933867
0.00387837
-0.00117513
0.00261284
-0.00128166
0.000615591
-0.0011238
-0.00232148
-0.000548089
-0.00621263
-0.0114678
0.000609786
6.62441e-06
0.00171794
-3.94948e-05
0.00366966
-0.00014873
0.00459205
-0.000290335
0.00465586
-0.000406712
0.00399475
-0.000423016
0.00262914
-0.00024822
0.000440796
0.000226046
-0.00279575
0.0013022
-0.00728878
-0.0132963
0.00313068
3.54623e-05
0.00168247
6.07455e-05
0.00364438
6.10169e-05
0.00459178
6.7095e-05
0.00464978
0.000142086
0.00391976
0.000371274
0.00239996
0.000861785
-4.97153e-05
0.00175496
-0.00368893
0.00327849
-0.00881232
-0.0158035
0.00578575
6.08607e-05
0.00162161
0.000153851
0.00355139
0.000263032
0.0044826
0.000420918
0.0044919
0.000697052
0.00364362
0.00118827
0.00190874
0.00201516
-0.000876598
0.00333124
-0.00500501
0.00539395
-0.010875
-0.018972
0.00856243
8.15225e-05
0.00154009
0.000235556
0.00339735
0.000448436
0.00426972
0.000756323
0.00418401
0.00123666
0.00316329
0.00200003
0.00114537
0.00318658
-0.00206315
0.00495357
-0.00677199
0.00760491
-0.0135264
-0.0227741
0.011407
9.65868e-05
0.0014435
0.000302855
0.00319108
0.000611368
0.00396121
0.00106432
0.00373106
0.00174894
0.00247867
0.0027917
0.000102599
0.0043564
-0.00362785
0.00660498
-0.00902058
0.009877
-0.0167984
-0.0271432
0.0142461
0.000105774
0.00133773
0.000354475
0.00294238
0.000748973
0.00356671
0.00134045
0.00313958
0.00222823
0.00159089
0.00355788
-0.00122704
0.00551754
-0.00558751
0.00828024
-0.0117833
0.0121766
-0.0206947
-0.0319597
0.0169931
0.000109453
0.00122828
0.000391144
0.00266069
0.00086234
0.00309551
0.00158678
0.00241514
0.00267932
0.00049835
0.00430624
-0.00285397
0.00667833
-0.0079596
0.00998463
-0.0150896
0.0144619
-0.025172
-0.0370563
0.0195585
0.000108637
0.00111964
0.00041567
0.00235366
0.000956742
0.00255444
0.00181225
0.00155963
0.00311657
-0.000805967
0.00505856
-0.00479596
0.0078615
-0.0107625
0.0117242
-0.0189523
0.016673
-0.0301208
-0.0422443
0.021861
0.000104916
0.00101472
0.00043274
0.00202584
0.00104125
0.00194593
0.00203194
0.000568941
0.00356264
-0.00233667
0.00584455
-0.00707787
0.00909574
-0.0140137
0.0134911
-0.0233476
0.0187336
-0.0353634
-0.0473508
0.0238401
0.000100283
0.000914442
0.00044841
0.00167771
0.00112763
0.00126671
0.00226485
-0.000568273
0.00404393
-0.00411575
0.006693
-0.00972694
0.0104006
-0.0177214
0.0152461
-0.0281931
0.0205719
-0.0406892
-0.0522625
0.0254836
9.69077e-05
0.000817535
0.000469353
0.00130526
0.00122876
0.0005073
0.00253069
-0.0018702
0.00458456
-0.00616962
0.0076215
-0.0127639
0.0117675
-0.0218674
0.0169203
-0.0333459
0.0222528
-0.0460217
-0.0582225
0.0282129
9.68631e-05
0.000720672
0.000501963
0.000900163
0.00135662
-0.000347354
0.00284634
-0.00335992
0.0052005
-0.00852378
0.00862859
-0.016192
0.0131522
-0.026391
0.0184448
-0.0386385
0.0237955
-0.0513724
-0.0635278
0.0291009
0.000101867
0.000551516
0.000450514
0.00152052
-0.00131636
0.00322266
-0.00506206
0.00589491
-0.011196
0.00969073
-0.0199878
0.0144847
-0.0311849
0.0197623
-0.0439161
0.0248621
-0.0564722
-0.0680813
0.0294156
0.000621534
0.00172581
-0.00242063
0.00366244
-0.00699868
0.00665604
-0.0141896
0.0107646
-0.0240964
0.0156919
-0.0361122
0.0207983
-0.0490225
0.0254769
-0.0611509
-0.0720431
0.0294387
0.00197332
-0.00368046
0.00415974
-0.0091851
0.00745805
-0.017488
0.0117946
-0.0284329
0.0167085
-0.0410262
0.02151
-0.0538239
0.025703
-0.0653439
-0.0754355
0.0290954
0.00225954
0.00470065
-0.0116262
0.00826471
-0.021052
0.0127231
-0.0328912
0.0174871
-0.0457902
0.021892
-0.0582289
0.0255731
-0.069025
-0.0783171
0.0284547
0.00526499
0.00903487
-0.0248219
0.0135008
-0.0373572
0.0180032
-0.0502926
0.0219595
-0.0621851
0.0251435
-0.072209
-0.080755
0.0275814
0.00972846
0.0140931
0.0182539
-0.0544533
0.0217446
-0.0656758
0.0244671
-0.0749315
-0.0828119
0.026524
0.0182523
0.0212864
-0.0687099
0.0235938
-0.077239
-0.0845482
0.0253301
0.0206258
0.022568
-0.0791812
-0.0860145
0.0240343
0.0214268
0.0226648
-0.00907727
-0.0417124
-0.0091348
-0.061042
-0.00771015
-0.0754919
-0.00423279
-0.0805339
0.00088418
-0.0643528
0.00662115
-0.0237775
0.0124722
0.0326233
0.017319
0.0878798
0.0205596
0.124838
0.0216649
0.141842
0.0194596
0.153477
0.0169248
0.15733
0.0194247
0.123904
0.0249131
0.023423
0.0296938
-0.0676378
0.0326926
-0.129655
0.0330284
-0.150076
0.0303785
-0.156516
0.027192
-0.188088
0.0275956
-0.125562
0.0313502
-0.0576879
0.0339066
0.0518563
0.0342074
0.129343
0.0341289
0.168942
0.0339284
0.243445
0.033956
0.108467
0.0346874
0.0396883
0.0355522
-0.123476
0.122611
0.0350133
-0.306486
0.307025
-0.122307
0.123104
-0.0101047
-0.0400454
-0.01069
-0.0604568
-0.00983188
-0.07635
-0.00682243
-0.0835433
-0.0017371
-0.0694381
0.00447494
-0.0299895
0.0108714
0.0262269
0.0163063
0.0824449
0.0201159
0.121029
0.0215142
0.140443
0.0194244
0.155567
0.0173736
0.15938
0.0203379
0.12094
0.0256818
0.0180791
0.0300621
-0.0720181
0.0326857
-0.132279
0.0328677
-0.150258
0.0302359
-0.153884
0.0270725
-0.184925
0.0274669
-0.125956
0.0312158
-0.0614368
0.0338278
0.0492443
0.0341915
0.128979
0.0340959
0.169037
0.0338855
0.243656
0.0339559
0.108396
0.0347177
0.0389266
0.0356213
-0.124379
0.0350902
-0.305955
-0.121481
-0.0106491
-0.0380734
-0.0117404
-0.0593654
-0.011483
-0.0766075
-0.00908641
-0.0859399
-0.00417343
-0.0743511
0.00235237
-0.0365153
0.00930207
0.0192772
0.0153111
0.0764359
0.0196783
0.116662
0.0213654
0.138756
0.0194512
0.157481
0.0179186
0.160913
0.0212698
0.117588
0.0264229
0.012926
0.0303986
-0.0759938
0.0326533
-0.134533
0.0326952
-0.1503
0.0300901
-0.151279
0.0269606
-0.181795
0.0273473
-0.126343
0.0310777
-0.0651672
0.0337381
0.0465839
0.0341609
0.128557
0.0340438
0.169154
0.0338268
0.243873
0.0339479
0.108275
0.0347434
0.038131
0.0356824
-0.125318
0.0351591
-0.305432
-0.120629
-0.0106654
-0.0358937
-0.0122178
-0.057813
-0.0125726
-0.0762527
-0.010913
-0.0875995
-0.00639794
-0.0788661
0.000209111
-0.0431223
0.00777065
0.0117157
0.0143364
0.0698701
0.019247
0.111751
0.0212209
0.136782
0.0195453
0.159156
0.0185492
0.161909
0.0222054
0.113932
0.0271303
0.00800116
0.0307016
-0.0795651
0.0325943
-0.136426
0.03251
-0.150216
0.0299381
-0.148707
0.0268511
-0.178708
0.0272356
-0.126727
0.0309375
-0.0688691
0.0336389
0.0438825
0.0341156
0.12808
0.0339735
0.169296
0.0337537
0.244092
0.0339323
0.108097
0.0347649
0.0372985
0.0357357
-0.126289
0.0352196
-0.304916
-0.119757
-0.0101352
-0.0336164
-0.01208
-0.0558682
-0.0130289
-0.0753039
-0.0121943
-0.088434
-0.00831771
-0.0827427
-0.00169293
-0.0497471
0.00627422
0.00374852
0.0133866
0.0627578
0.0188199
0.106318
0.0210823
0.13452
0.0197089
0.16053
0.0192531
0.162365
0.0231312
0.110054
0.0277995
0.00333288
0.030969
-0.0827346
0.0325077
-0.137965
0.0323107
-0.150019
0.0297769
-0.146173
0.0267388
-0.17567
0.0271293
-0.127118
0.0307963
-0.0725361
0.0335312
0.0411475
0.0340556
0.127556
0.0338856
0.169466
0.0336673
0.244311
0.0339095
0.107854
0.034782
0.0364259
0.0357809
-0.127288
0.0352715
-0.304406
-0.118867
-0.00906922
-0.0313571
-0.0113171
-0.0536203
-0.0128082
-0.0738128
-0.0128381
-0.0884041
-0.00983895
-0.0857419
-0.0034405
-0.0561456
0.00482387
-0.00451586
0.0124656
0.0551161
0.0183918
0.100391
0.0209497
0.131962
0.0199406
0.161539
0.0200162
0.162289
0.0240367
0.106033
0.0284264
-0.00105681
0.0311993
-0.0855076
0.0323925
-0.139158
0.032096
-0.149722
0.029604
-0.143681
0.0266185
-0.172685
0.0270251
-0.127525
0.0306546
-0.0761656
0.033416
0.0383862
0.0339809
0.126991
0.033781
0.169666
0.0335687
0.244523
0.03388
0.107543
0.0347949
0.0355109
0.0358181
-0.128311
0.0353149
-0.303903
-0.117963
-0.00750693
-0.0292282
-0.00995473
-0.0511725
-0.011904
-0.0718636
-0.0127803
-0.0875278
-0.0108565
-0.0876657
-0.00497904
-0.062023
0.00341686
-0.0129118
0.0115708
0.0469621
0.0179546
0.0940076
0.0208224
0.129094
0.0202365
0.162125
0.020824
0.161702
0.0249115
0.101946
0.0290102
-0.00515547
0.0313908
-0.0878882
0.0322476
-0.140015
0.0318638
-0.149339
0.0294177
-0.141235
0.0264859
-0.169753
0.026919
-0.127958
0.0305124
-0.079759
0.0332938
0.0356047
0.0338916
0.126393
0.0336604
0.169898
0.033459
0.244724
0.033844
0.107158
0.0348036
0.0345514
0.0358471
-0.129355
0.0353497
-0.303406
-0.117049
-0.00551275
-0.0273311
-0.00805332
-0.0486319
-0.0103513
-0.0695656
-0.0119982
-0.085881
-0.0112701
-0.0883938
-0.00624961
-0.0670435
0.00206854
-0.0212299
0.0106924
0.0383383
0.0174983
0.0872017
0.0206987
0.125894
0.0205905
0.162233
0.0216625
0.16063
0.0257517
0.0978567
0.0295461
-0.00894987
0.0315418
-0.0898839
0.0320719
-0.140545
0.0316121
-0.148879
0.0292165
-0.138839
0.0263372
-0.166874
0.0268059
-0.128426
0.0303684
-0.0833215
0.0331652
0.032808
0.0337878
0.12577
0.0335248
0.170161
0.0333392
0.24491
0.033802
0.106695
0.0348078
0.0335456
0.035868
-0.130415
0.0353758
-0.302914
-0.116128
-0.00316737
-0.0257559
-0.00570128
-0.046098
-0.00822725
-0.0670396
-0.010518
-0.0835902
-0.0110004
-0.0879114
-0.0071454
-0.0708984
0.000765971
-0.0291413
0.00981775
0.0292865
0.0170117
0.0800077
0.0205763
0.122329
0.020995
0.161814
0.0225182
0.159107
0.0265531
0.0938219
0.0300318
-0.0124285
0.0316509
-0.091503
0.0318647
-0.140758
0.0313388
-0.148353
0.0289993
-0.1365
0.0261695
-0.164044
0.0266803
-0.128937
0.0302204
-0.0868616
0.0330298
0.0299985
0.0336696
0.125131
0.0333751
0.170455
0.0332103
0.245075
0.0337543
0.106151
0.0348077
0.0324921
0.0358807
-0.131488
0.0353934
-0.302426
-0.115203
-0.000531264
-0.0246149
-0.00300469
-0.0436246
-0.00564413
-0.0644002
-0.00841825
-0.0808161
-0.0100135
-0.0863161
-0.00755751
-0.0733545
-0.000407976
-0.0362908
0.00893155
0.019947
0.0164837
0.0724556
0.0204522
0.118361
0.0214415
0.160825
0.023379
0.157169
0.027312
0.0898888
0.0304649
-0.0155814
0.0317167
-0.0927549
0.0316251
-0.140667
0.0310415
-0.147769
0.0287652
-0.134223
0.0259805
-0.161259
0.0265361
-0.129493
0.0300649
-0.0903905
0.0328872
0.0271762
0.0335369
0.124481
0.033212
0.17078
0.0330732
0.245213
0.0337011
0.105524
0.0348032
0.0313901
0.0358853
-0.13257
0.0354024
-0.301944
-0.114278
0.0021491
-0.0236333
-9.48559e-05
-0.0413806
-0.00273723
-0.0617578
-0.00582536
-0.077728
-0.00834217
-0.0837993
-0.00739786
-0.0742988
-0.00122968
-0.042459
0.00802086
0.0106965
0.0159052
0.0645713
0.0203236
0.113942
0.0219206
0.159228
0.0242333
0.154857
0.0280254
0.0860968
0.0308437
-0.0183997
0.0317378
-0.093649
0.0313525
-0.140281
0.0307183
-0.147135
0.0285134
-0.132019
0.0257691
-0.158515
0.0263675
-0.130091
0.0298974
-0.0939204
0.0327363
0.0243374
0.03339
0.123827
0.0330365
0.171134
0.0329288
0.245321
0.0336427
0.10481
0.0347941
0.0302386
0.0358818
-0.133658
0.0354029
-0.301465
-0.113355
0.00493003
-0.0227776
0.00293494
-0.0393855
0.00031563
-0.0591385
-0.00290155
-0.0745108
-0.00608933
-0.0806115
-0.00660928
-0.0737788
-0.00178871
-0.0472796
0.00709918
0.00180856
0.0152723
0.0563982
0.0201881
0.109026
0.0224228
0.156993
0.025071
0.152208
0.0286901
0.0824777
0.0311666
-0.0208762
0.031713
-0.0941953
0.0310463
-0.139615
0.030367
-0.146456
0.0282429
-0.129894
0.0255346
-0.155807
0.0261687
-0.130725
0.0297122
-0.0974639
0.0325753
0.0214743
0.0332289
0.123174
0.0328495
0.171513
0.0327777
0.245393
0.0335794
0.104008
0.0347806
0.0290374
0.0358702
-0.134747
0.035395
-0.300989
-0.112437
0.00778452
-0.0219997
0.00600671
-0.0376077
0.00350194
-0.0566337
7.97858e-05
-0.0710886
-0.00341385
-0.0771179
-0.00518747
-0.0720052
-0.00194312
-0.0505239
0.00621615
-0.0063507
0.0145893
0.048025
0.0200451
0.103571
0.0229383
0.1541
0.0258823
0.149264
0.0293034
0.0790565
0.0314326
-0.0230055
0.0316412
-0.094404
0.030706
-0.138679
0.0299861
-0.145736
0.0279526
-0.127861
0.025277
-0.153131
0.0259349
-0.131383
0.0295027
-0.101032
0.0324019
0.0185751
0.0330535
0.122522
0.032652
0.171914
0.0326207
0.245424
0.0335112
0.103118
0.0347626
0.0277861
0.0358508
-0.135835
0.0353786
-0.300517
-0.111528
0.0106503
-0.0212429
0.00903245
-0.0359899
0.00662711
-0.0542284
0.00338614
-0.0678477
-0.000540084
-0.0731916
-0.00320582
-0.0693395
-0.00161857
-0.0521112
0.00545417
-0.0134234
0.0138733
0.0396058
0.019896
0.097548
0.0234573
0.150539
0.0266583
0.146063
0.029863
0.0758519
0.0316413
-0.0247837
0.0315219
-0.0942846
0.0303318
-0.137489
0.0295745
-0.144979
0.0276417
-0.125928
0.0249969
-0.150486
0.0256616
-0.132048
0.0292618
-0.104632
0.0322133
0.0156236
0.0328638
0.121871
0.0324447
0.172334
0.0324586
0.24541
0.0334385
0.102138
0.03474
0.0264846
0.0358234
-0.136919
0.0353538
-0.300048
-0.110632
0.0134642
-0.020461
0.0119537
-0.0344795
0.00961177
-0.0518864
0.00646576
-0.0647017
0.00262553
-0.0693514
-0.000839354
-0.0658746
-0.000786788
-0.0521637
0.00493811
-0.0191483
0.0131648
0.0313791
0.0197462
0.0909666
0.0239702
0.146315
0.0273915
0.142642
0.0303669
0.0728764
0.0317928
-0.0262096
0.0313548
-0.0938466
0.029924
-0.136059
0.0291318
-0.144187
0.027309
-0.124105
0.024695
-0.147872
0.0253455
-0.132698
0.0289825
-0.108269
0.0320063
0.0125998
0.0326599
0.121218
0.0322284
0.172765
0.032292
0.245347
0.0333615
0.101068
0.0347129
0.0251332
0.0357884
-0.137994
0.0353209
-0.29958
-0.109751
0.0161662
-0.0196341
0.0147236
-0.0330369
0.0123909
-0.0495537
0.00930073
-0.0616115
0.00566697
-0.0657176
0.00196818
-0.0621758
0.000661404
-0.0508569
0.00480644
-0.0232934
0.0125307
0.0236549
0.0196044
0.0838929
0.0244679
0.141451
0.0280751
0.139035
0.0308146
0.0701369
0.0318874
-0.0272824
0.0311385
-0.0930978
0.0294812
-0.134401
0.0286565
-0.143362
0.0269531
-0.122402
0.0243717
-0.145291
0.0249844
-0.133311
0.028658
-0.111943
0.0317772
0.0094806
0.0324413
0.120554
0.0320039
0.173202
0.0321217
0.245229
0.0332806
0.0999092
0.0346813
0.0237325
0.0357459
-0.139059
0.0352802
-0.299114
-0.10889
0.0187197
-0.0187953
0.0172987
-0.0316159
0.0149067
-0.0471616
0.0118212
-0.058526
0.00841263
-0.0623091
0.00484735
-0.0586105
0.00269772
-0.0487073
0.00515857
-0.0257542
0.0120573
0.0167561
0.0194846
0.0764656
0.0249417
0.135994
0.0287058
0.135271
0.03121
0.0676327
0.031926
-0.0279983
0.0308688
-0.0920407
0.0289975
-0.13253
0.0281439
-0.142508
0.0265707
-0.120829
0.0240266
-0.142747
0.0245767
-0.133861
0.0282818
-0.115648
0.0315217
0.0062407
0.0322079
0.119868
0.0317719
0.173638
0.0319485
0.245052
0.0331965
0.0986613
0.0346451
0.0222838
0.0356961
-0.14011
0.0352318
-0.29865
-0.108053
0.0210849
-0.0180192
0.019622
-0.030153
0.0170845
-0.044624
0.0139424
-0.0553839
0.0107449
-0.0591116
0.00748195
-0.0553476
0.00493464
-0.04616
0.00600017
-0.0268198
0.0118373
0.010919
0.0194074
0.0688955
0.0253833
0.130018
0.029288
0.131366
0.0315723
0.0653484
0.0319191
-0.0283451
0.0305458
-0.0906674
0.0284717
-0.130456
0.0275927
-0.141629
0.0261611
-0.119397
0.0236608
-0.140246
0.0241239
-0.134324
0.0278493
-0.119373
0.0312344
0.00285556
0.0319587
0.119143
0.0315325
0.174065
0.0317739
0.244811
0.0331107
0.0973245
0.0346045
0.0207899
0.0356394
-0.141145
0.0351764
-0.298187
-0.107242
0.023264
-0.0174431
0.0216822
-0.0285713
0.0189389
-0.0418807
0.0157141
-0.0521592
0.0126832
-0.0560807
0.00978586
-0.0524502
0.00719621
-0.0435704
0.0072498
-0.0268733
0.0119491
0.00621976
0.0194064
0.0614382
0.0257816
0.123643
0.0298405
0.127307
0.0319366
0.0632523
0.0318846
-0.0282931
0.0301936
-0.0889764
0.0279366
-0.128199
0.0270271
-0.14072
0.0257359
-0.118106
0.0232817
-0.137792
0.0236346
-0.134677
0.0273657
-0.123104
0.0309112
-0.000689977
0.0316921
0.118362
0.0312856
0.174471
0.0315996
0.244497
0.0330255
0.0958986
0.0345592
0.0192562
0.0355756
-0.142161
0.0351147
-0.297726
-0.106463
0.0253951
-0.0173546
0.0235674
-0.0267435
0.0206551
-0.0389685
0.0174316
-0.0489356
0.0145671
-0.0532162
0.0119969
-0.04988
0.00952794
-0.0411014
0.00891018
-0.0262556
0.0125243
0.00260561
0.0195991
0.0543634
0.0262204
0.117022
0.0304496
0.123078
0.0322873
0.0614146
0.0317854
-0.0277912
0.0298483
-0.0870393
0.0274451
-0.125796
0.0264955
-0.13977
0.025322
-0.116932
0.0228969
-0.135367
0.02313
-0.13491
0.0268623
-0.126836
0.0305675
-0.00439521
0.0314075
0.117522
0.0310288
0.17485
0.0314259
0.2441
0.0329427
0.0943817
0.0345089
0.0176899
0.0354993
-0.143151
0.0350464
-0.297273
-0.105721
0.0576872
-0.0156734
-0.0593685
0.0558223
-0.0248785
0.0526176
-0.0357638
0.0479965
-0.0443146
0.0424555
-0.0476752
0.0361116
-0.043536
0.0285973
-0.0335871
0.0216732
-0.0193315
0.0185684
0.00571043
0.0206562
0.0522756
0.0280292
0.109649
0.0408573
0.11025
0.0537777
0.0484942
0.0605657
-0.0345792
0.0612906
-0.0877642
0.0582336
-0.122739
0.0546395
-0.136176
0.0510139
-0.113307
0.0462521
-0.130605
0.0447508
-0.133409
0.0457286
-0.127814
0.0451319
-0.00379846
0.0427006
0.119954
0.0406356
0.176915
0.0431884
0.241547
0.0484447
0.0891254
0.0521723
0.0139624
0.053999
-0.144978
0.0515514
-0.294826
-0.103062
0.0649203
-0.0138446
-0.066749
0.0624625
-0.0224207
0.0588089
-0.0321102
0.0539211
-0.0394268
0.0483563
-0.0421104
0.0424206
-0.0376004
0.0355773
-0.0267438
0.0286774
-0.0124315
0.0247012
0.00968666
0.0264118
0.0505649
0.0345512
0.101509
0.047867
0.0969341
0.0600334
0.0363278
0.0656442
-0.0401899
0.0654429
-0.0875629
0.0616824
-0.118978
0.0576367
-0.13213
0.0538511
-0.109521
0.0489684
-0.125723
0.0473281
-0.131768
0.0482211
-0.128707
0.0473216
-0.00289903
0.0444906
0.122785
0.0423367
0.179069
0.0454268
0.238457
0.0512157
0.0833365
0.0551671
0.010011
0.0568899
-0.146701
0.0540928
-0.292029
-0.100152
0.0707638
-0.0118729
-0.0727356
0.0681547
-0.0198116
0.0643827
-0.0283381
0.0594827
-0.0345269
0.0540452
-0.0366729
0.0485657
-0.0321209
0.0426238
-0.020802
0.0364469
-0.00625465
0.0322733
0.0138602
0.0336436
0.0491947
0.0422127
0.0929402
0.0556342
0.0835127
0.066725
0.025237
0.0709472
-0.0444121
0.0696969
-0.0863126
0.0652504
-0.114532
0.0607656
-0.127646
0.0568378
-0.105593
0.0518468
-0.120732
0.0500356
-0.129957
0.050816
-0.129488
0.0496102
-0.00169324
0.046332
0.126063
0.0441364
0.181264
0.0478771
0.234716
0.0541979
0.0770156
0.0583672
0.00584166
0.0599368
-0.14827
0.0567361
-0.288828
-0.0969652
0.0756158
-0.00992513
-0.0775636
0.0729983
-0.017194
0.0692988
-0.0246386
0.0645796
-0.0298076
0.059417
-0.0315102
0.054429
-0.0271329
0.0494864
-0.0158594
0.0445229
-0.00129115
0.0408413
0.0175418
0.0421901
0.0478458
0.0509251
0.0842053
0.0639262
0.0705116
0.0736189
0.0155444
0.0762731
-0.0470663
0.0739481
-0.0839875
0.0688737
-0.109457
0.063988
-0.12276
0.059952
-0.101557
0.0548746
-0.115654
0.0528633
-0.127946
0.0535082
-0.130133
0.0519729
-0.000157953
0.0482277
0.129808
0.0460673
0.183425
0.0505684
0.230215
0.0574146
0.0701694
0.0617841
0.00147221
0.0631449
-0.149631
0.0594792
-0.285162
-0.0934757
0.0797175
-0.0080587
-0.081584
0.0771783
-0.0146548
0.0736708
-0.0211311
0.0692588
-0.0253957
0.0644767
-0.0267281
0.059992
-0.0226482
0.0559958
-0.0118632
0.052449
0.0022557
0.0498379
0.0201529
0.0516119
0.0460718
0.0603886
0.0754286
0.0724721
0.0584281
0.0804593
0.00755712
0.0814672
-0.0480742
0.0781364
-0.0806568
0.0725388
-0.10386
0.0673039
-0.117525
0.0631953
-0.0974487
0.0580577
-0.110517
0.0558091
-0.125697
0.0562831
-0.130607
0.0543957
0.00172954
0.0501863
0.134018
0.0481627
0.185448
0.0535339
0.224844
0.0608882
0.062815
0.065428
-0.00306754
0.0665192
-0.150723
0.0623196
-0.280963
-0.0896572
0.08331
-0.00632012
-0.0850486
0.0809114
-0.0122562
0.077658
-0.0178777
0.0736219
-0.0213596
0.0692777
-0.0223839
0.0652918
-0.0186623
0.062089
-0.00866041
0.0599016
0.00444306
0.0586505
0.021404
0.0612716
0.0434507
0.0700829
0.0666173
0.0808679
0.0476432
0.0869486
0.00147639
0.0863815
-0.0475071
0.0822092
-0.0764846
0.0762328
-0.0978833
0.0707107
-0.112003
0.066568
-0.0933061
0.0614004
-0.105349
0.058868
-0.123165
0.0591218
-0.13086
0.0568644
0.00398696
0.0522219
0.13866
0.0504601
0.18721
0.0568123
0.218492
0.0646432
0.0549841
0.069309
-0.00773335
0.0700632
-0.151477
0.0652527
-0.276152
-0.0854833
0.0866326
-0.00474081
-0.0882119
0.0844042
-0.0100278
0.0814264
-0.0148999
0.0777909
-0.0177241
0.0739002
-0.0184932
0.0703994
-0.0151614
0.0678399
-0.00610089
0.0667297
0.00555324
0.0667844
0.0213493
0.0704499
0.0397852
0.0792919
0.0577754
0.0885841
0.0383509
0.09279
-0.00272943
0.0909046
-0.0456218
0.0861408
-0.0717207
0.0799546
-0.0916971
0.0742101
-0.106258
0.0700701
-0.0891661
0.0649063
-0.100185
0.0620323
-0.120291
0.0619965
-0.130825
0.0593628
0.00662067
0.0543534
0.143669
0.0530054
0.188558
0.0604492
0.211048
0.0687056
0.0467278
0.0734357
-0.0124635
0.0737788
-0.15182
0.0682721
-0.270645
-0.0809281
0.0898757
-0.00332104
-0.0912955
0.0878272
-0.00797928
0.0851247
-0.0121974
0.0818863
-0.0144857
0.0784376
-0.0150445
0.075395
-0.0121188
0.0733594
-0.00406535
0.0729864
0.00592632
0.0740341
0.0203016
0.0785952
0.035224
0.0873359
0.0490347
0.0951641
0.0305227
0.0977925
-0.00535782
0.0950053
-0.0428346
0.0899405
-0.0666559
0.0837143
-0.0854709
0.0778072
-0.100351
0.0736995
-0.0850583
0.0685768
-0.0950626
0.0652914
-0.117006
0.0648703
-0.130403
0.06187
0.00962101
0.0566037
0.148936
0.0558565
0.189305
0.0644957
0.202409
0.0731008
0.0381227
0.0778138
-0.0171765
0.0776655
-0.151671
0.0713701
-0.26435
-0.0759674
0.0931709
-0.00205216
-0.0944398
0.0913076
-0.00611601
0.0888717
-0.00976152
0.0860105
-0.0116245
0.0829794
-0.0120135
0.0803601
-0.00949953
0.0787532
-0.00245838
0.0788316
0.00584788
0.0804922
0.0186409
0.0855365
0.0301797
0.0938982
0.040673
0.100451
0.0239697
0.101982
-0.00688881
0.0987488
-0.0396012
0.0936502
-0.0615573
0.08753
-0.0793507
0.0815104
-0.0943317
0.0774518
-0.0809997
0.0724114
-0.0900222
0.0686335
-0.113228
0.0676988
-0.129469
0.0643596
0.0129601
0.0589995
0.154296
0.0590845
0.18922
0.0690077
0.192486
0.0778517
0.0292787
0.0824444
-0.0217692
0.0817199
-0.150947
0.0745374
-0.257168
-0.0705799
0.0966036
-0.000928595
-0.0977271
0.0949289
-0.00444134
0.0927497
-0.00758232
0.0902395
-0.00911423
0.0875986
-0.0093726
0.0853632
-0.00726411
0.0841066
-0.00120177
0.08444
0.00551441
0.0864052
0.0166758
0.0914661
0.0251188
0.0991428
0.0329963
0.104663
0.0184495
0.105568
-0.00779393
0.102267
-0.0363004
0.0973282
-0.0566181
0.0914221
-0.0734446
0.085331
-0.0882407
0.0813209
-0.0769896
0.0764074
-0.0851087
0.0720471
-0.108867
0.0704303
-0.127852
0.0667976
0.0165928
0.061575
0.159518
0.0627748
0.188021
0.0740426
0.181218
0.0829752
0.020346
0.0873229
-0.0261169
0.0859345
-0.149559
0.0777636
-0.248997
-0.064749
0.100221
5.59845e-05
-0.101206
0.0987369
-0.00295727
0.0968067
-0.00565205
0.0946213
-0.00692891
0.0923436
-0.00709482
0.0904542
-0.00537479
0.0894833
-0.000230788
0.0899523
0.00504531
0.0920179
0.0146102
0.0967444
0.0203924
0.10353
0.0262111
0.108222
0.0137571
0.108833
-0.00840477
0.105707
-0.0331748
0.101033
-0.0519437
0.0954079
-0.0678198
0.0892836
-0.0821164
0.0853001
-0.0730062
0.0805573
-0.0803658
0.0755238
-0.103834
0.0730092
-0.125337
0.0691417
0.0204603
0.0643781
0.164282
0.0670277
0.185371
0.079653
0.168593
0.0884791
0.0115199
0.0924369
-0.0300747
0.0902974
-0.147419
0.0810381
-0.239737
-0.0584649
0.104047
0.000905165
-0.104896
0.102752
-0.00166303
0.101065
-0.00396476
0.0991813
-0.00504516
0.0972397
-0.00515322
0.0956621
-0.00379721
0.0949287
0.000502674
0.0954616
0.00451235
0.0975039
0.0125679
0.101711
0.0161858
0.107534
0.0203875
0.111541
0.00975013
0.112024
-0.00888743
0.109188
-0.0303385
0.104812
-0.0475684
0.0994995
-0.062507
0.0933856
-0.0760025
0.0893858
-0.0690063
0.0848483
-0.0758284
0.0790615
-0.0980471
0.0753823
-0.121658
0.0713473
0.0244953
0.0674774
0.168152
0.0719528
0.180895
0.0858771
0.154668
0.0943561
0.00304096
0.0977643
-0.033483
0.0947922
-0.144447
0.0843516
-0.229297
-0.0517275
0.108091
0.00161857
-0.108804
0.106983
-0.000555058
0.105532
-0.00251365
0.103929
-0.00344261
0.102298
-0.00352154
0.101003
-0.00250253
0.100465
0.00104086
0.10102
0.0039571
0.102966
0.0106217
0.106597
0.0125555
0.111494
0.0154898
0.114904
0.00634025
0.115308
-0.00929088
0.112788
-0.0278189
0.108706
-0.0434863
0.103705
-0.0575056
0.0976571
-0.0699551
0.0935819
-0.0649311
0.0892604
-0.0715068
0.0826712
-0.0914579
0.0775151
-0.116502
0.0733803
0.02863
0.070968
0.170564
0.0776561
0.174207
0.0927245
0.1396
0.100582
-0.00481674
0.103273
-0.0361735
0.0993995
-0.140574
0.0876982
-0.217595
-0.0445503
0.112362
0.00219731
-0.112941
0.111431
0.000376763
0.110209
-0.00129159
0.108868
-0.00210201
0.10752
-0.0021739
0.106478
-0.00145994
0.106105
0.00141314
0.106655
0.00340784
0.108461
0.00881517
0.111532
0.00948454
0.115589
0.0114326
0.118464
0.00346571
0.118778
-0.00960469
0.116554
-0.0255951
0.112746
-0.0396781
0.108029
-0.0527887
0.102118
-0.0640439
0.0979081
-0.0607216
0.0937667
-0.0673654
0.0863856
-0.0840769
0.0794293
-0.109546
0.0752517
0.0328076
0.0749817
0.170834
0.084225
0.164964
0.100173
0.123652
0.107105
-0.0117492
0.108923
-0.0379911
0.104099
-0.13575
0.091079
-0.204576
-0.0369645
0.116862
0.00264946
-0.117314
0.116106
0.00113245
0.115096
-0.000281825
0.113997
-0.00100307
0.112907
-0.00108412
0.112087
-0.000639836
0.111855
0.00164526
0.11238
0.00288296
0.11402
0.00717539
0.116582
0.00692231
0.1199
0.00811467
0.122284
0.00108179
0.122485
-0.00980566
0.120511
-0.0236211
0.116961
-0.036128
0.112482
-0.0483105
0.106781
-0.0583422
0.102405
-0.0563455
0.0983394
-0.0633001
0.0902653
-0.0760028
0.0812596
-0.10054
0.0770716
0.0369956
0.0796983
0.168208
0.0917159
0.152946
0.108147
0.10722
0.113853
-0.017455
0.114667
-0.0388049
0.10887
-0.129953
0.0945076
-0.190213
-0.0290249
0.1216
0.0029813
-0.121932
0.12101
0.00172204
0.120197
0.000531036
0.119319
-0.000124573
0.11846
-0.00022501
0.117834
-1.44072e-05
0.117718
0.001762
0.118207
0.00239397
0.119664
0.00571756
0.121776
0.00481054
0.124455
0.00543607
0.126385
-0.000848163
0.126458
-0.00987867
0.124676
-0.0218392
0.121375
-0.0328271
0.117085
-0.0440208
0.111649
-0.0529056
0.107131
-0.0518282
0.102968
-0.0591363
0.094403
-0.0674382
0.0832905
-0.0894275
0.0790684
0.0412177
0.0853302
0.161946
0.10014
0.138136
0.116524
0.0908369
0.120727
-0.0216583
0.120451
-0.0385286
0.1137
-0.123202
0.0980166
-0.17453
-0.0208174
0.126586
0.0032012
-0.126806
0.126148
0.00216044
0.125522
0.00115697
0.124838
0.00055922
0.124184
0.000428728
0.123723
0.000446593
0.1237
0.00178543
0.124146
0.00194762
0.125416
0.00444761
0.127133
0.00309379
0.129258
0.00331113
0.130781
-0.00237118
0.130717
-0.00981503
0.129067
-0.0201893
0.126005
-0.0297647
0.121869
-0.0398852
0.116716
-0.0477518
0.112143
-0.0472555
0.107691
-0.054684
0.0989079
-0.0586555
0.0859909
-0.0765105
0.0817922
0.0454164
0.09222
0.151518
0.109485
0.120872
0.125132
0.0751895
0.12761
-0.0241358
0.126221
-0.0371397
0.118581
-0.115562
0.101666
-0.157615
-0.0124693
0.131831
0.00331805
-0.131948
0.13153
0.00246151
0.131073
0.00161452
0.130564
0.00106825
0.130088
0.000903939
0.129764
0.000770611
0.129813
0.0017366
0.130213
0.00154751
0.131298
0.00336323
0.132669
0.0017227
0.134324
0.00165626
0.135472
-0.00351902
0.135278
-0.00962138
0.133709
-0.0186201
0.130862
-0.0269179
0.126874
-0.0358974
0.12198
-0.0428576
0.117462
-0.0427376
0.112607
-0.0498288
0.103905
-0.049954
0.0900295
-0.0626347
0.0864505
0.0489954
0.100997
0.136972
0.119685
0.102183
0.133739
0.0611356
0.134369
-0.024766
0.131935
-0.034706
0.123521
-0.107147
0.105557
-0.139652
-0.00415876
0.137347
0.00334144
-0.13737
0.137169
0.00263976
0.136861
0.00192209
0.136505
0.00142437
0.136183
0.00122585
0.135972
0.000981229
0.136074
0.00163473
0.136426
0.00119618
0.137333
0.00245555
0.138401
0.000654889
0.139662
0.000394853
0.140466
-0.00432215
0.140151
-0.00930694
0.138627
-0.0170966
0.135957
-0.0242475