/*--------------------------------*- C++ -*----------------------------------*\
  =========                 |
  \\      /  F ield         | OpenFOAM: The Open Source CFD Toolbox
   \\    /   O peration     | Website:  https://openfoam.org
    \\  /    A nd           | Version:  7
     \\/     M anipulation  |
\*---------------------------------------------------------------------------*/
FoamFile
{
    version     2.0;
    format      ascii;
    class       volVectorField;
    location    "290";
    object      U;
}
// * * * * * * * * * * * * * * * * * * * * * * * * * * * * * * * * * * * * * //

dimensions      [0 1 -1 0 0 0 0];

internalField   nonuniform List<vector> 
2125
(
(-0.00300325 0.0175965 1.04659e-21)
(-0.0139772 0.0176527 -3.00916e-21)
(-0.0332537 -0.00231781 -3.50617e-21)
(-0.0556457 -0.0312381 3.48457e-21)
(-0.0796591 -0.0626055 -3.21434e-21)
(-0.103925 -0.0943123 -1.71677e-21)
(-0.127212 -0.126992 2.93498e-21)
(-0.148738 -0.161969 3.67887e-21)
(-0.16807 -0.200064 -6.1477e-22)
(-0.18531 -0.241797 1.77747e-21)
(-0.00406012 0.0220432 -1.15388e-21)
(-0.0159353 0.0272581 3.57558e-21)
(-0.0358335 0.010193 -8.59424e-21)
(-0.0586974 -0.0172464 7.80456e-21)
(-0.0831493 -0.0481477 3.08772e-22)
(-0.107839 -0.0801451 5.67787e-21)
(-0.131535 -0.113638 -9.94137e-21)
(-0.153494 -0.149672 -1.46281e-20)
(-0.173419 -0.188792 -2.93979e-21)
(-0.191552 -0.231228 6.64483e-21)
(-0.00538029 0.0265738 1.12206e-21)
(-0.0182389 0.03718 8.13008e-21)
(-0.0384341 0.0232198 1.90328e-20)
(-0.0612423 -0.00261904 -1.72465e-20)
(-0.0854449 -0.033 -4.00049e-21)
(-0.109722 -0.0652486 -3.57645e-21)
(-0.132817 -0.0994939 1.84825e-20)
(-0.153973 -0.136478 1.13346e-20)
(-0.172934 -0.176433 2.65065e-21)
(-0.189807 -0.219187 -2.0741e-20)
(-0.00694495 0.0310124 4.0032e-21)
(-0.0208413 0.047097 -4.72213e-21)
(-0.0409647 0.0364026 -3.61865e-20)
(-0.0631428 0.012286 3.11627e-21)
(-0.0863631 -0.017498 9.91367e-21)
(-0.109345 -0.0499454 -7.90786e-21)
(-0.130783 -0.0848921 -5.56094e-23)
(-0.149849 -0.122772 -3.31882e-21)
(-0.166217 -0.163451 7.31374e-21)
(-0.17951 -0.206267 2.137e-20)
(-0.00871483 0.0351756 2.84249e-21)
(-0.0236722 0.0566709 -1.58942e-20)
(-0.0433304 0.0493639 3.79108e-20)
(-0.0642768 0.0271008 -1.75385e-20)
(-0.0857546 -0.00198506 -2.41358e-23)
(-0.106537 -0.0345572 2.4503e-20)
(-0.125242 -0.0701617 -1.11455e-20)
(-0.140907 -0.108935 1.15462e-21)
(-0.153076 -0.150326 -4.65179e-21)
(-0.160354 -0.19312 2.16444e-21)
(-0.0106313 0.0388847 3.41389e-20)
(-0.0266382 0.0655639 4.12115e-20)
(-0.0454315 0.0617227 -1.03998e-20)
(-0.0645423 0.041455 2.00979e-20)
(-0.0835098 0.0131945 6.59824e-21)
(-0.101181 -0.0194006 -9.0369e-21)
(-0.116079 -0.055616 -3.59135e-21)
(-0.12704 -0.0953222 -1.63345e-20)
(-0.133515 -0.137514 3.58328e-21)
(-0.132281 -0.180421 -2.07297e-20)
(-0.0126194 0.0419777 -3.29648e-20)
(-0.0296281 0.0734554 -2.15865e-20)
(-0.0471689 0.073105 1.79867e-20)
(-0.0638568 0.0549756 -3.14033e-20)
(-0.0795572 0.0276966 3.92901e-21)
(-0.0932143 -0.00479151 3.76991e-20)
(-0.103247 -0.0415469 -6.89369e-21)
(-0.108216 -0.0822402 4.53817e-20)
(-0.107702 -0.125419 -5.59352e-22)
(-0.0954399 -0.16883 -1.90009e-20)
(-0.0145934 0.0443203 2.844e-20)
(-0.0325182 0.0800586 -5.12834e-20)
(-0.0484483 0.0831574 -2.05065e-20)
(-0.0621618 0.067297 2.37264e-20)
(-0.0738666 0.0411743 1.16601e-21)
(-0.0826226 0.00895802 -7.12953e-20)
(-0.0867587 -0.0282205 -4.66497e-21)
(-0.0844502 -0.0699356 -3.66081e-20)
(-0.0759229 -0.114347 -4.7767e-20)
(-0.0501325 -0.158853 2.83896e-20)
(-0.016463 0.0458165 -1.59061e-20)
(-0.0351808 0.0851361 7.59094e-21)
(-0.0491854 0.0915596 1.8965e-20)
(-0.0594255 0.0780672 -1.76855e-20)
(-0.0664475 0.0532796 -6.14206e-20)
(-0.0694402 0.0215309 2.11113e-20)
(-0.0666768 -0.0159134 2.89154e-21)
(-0.0557715 -0.0586012 5.60017e-20)
(-0.0384526 -0.104532 7.483e-20)
(0.00316461 -0.150412 -3.37488e-20)
(-0.0181414 0.0464152 2.56992e-20)
(-0.0374929 0.0885136 2.34285e-20)
(-0.0493107 0.0980376 -3.34105e-21)
(-0.0556445 0.0869551 8.7e-20)
(-0.0573531 0.0636624 3.721e-20)
(-0.0537606 0.0325896 2.83678e-20)
(-0.0431291 -0.00490063 4.1481e-20)
(-0.0222623 -0.0483319 -1.79721e-20)
(0.00481482 -0.0963813 -2.52221e-20)
(0.0639344 -0.142746 -4.24779e-20)
(-0.0195536 0.0461144 -2.07068e-21)
(-0.0393454 0.0900909 -3.72876e-20)
(-0.0487728 0.102377 -2.69996e-20)
(-0.050842 0.0936632 -4.33888e-20)
(-0.0466738 0.0719795 -3.49503e-20)
(-0.0357111 0.0417854 3.57382e-20)
(-0.0162655 0.00453204 -3.50513e-20)
(0.0156938 -0.0391255 -2.45137e-20)
(0.0542567 -0.0901294 3.3087e-21)
(0.132688 -0.135969 1.0785e-20)
(-0.0206427 0.0449623 -7.21158e-20)
(-0.0406502 0.0898502 3.42661e-20)
(-0.047538 0.104439 2.5089e-20)
(-0.0450608 0.097946 1.702e-20)
(-0.0345236 0.0779071 -3.15773e-20)
(-0.0154445 0.0487407 -2.70444e-20)
(0.0138688 0.0119878 3.97694e-20)
(0.057886 -0.0314483 -3.31202e-20)
(0.109291 -0.0854106 -2.03587e-21)
(0.210296 -0.130422 -3.57304e-20)
(-0.0213764 0.043053 6.09989e-20)
(-0.0413447 0.0878556 2.48175e-20)
(-0.0455827 0.104162 1.4323e-21)
(-0.0383416 0.0996173 -3.09919e-20)
(-0.0210157 0.0811525 2.04655e-21)
(0.00685217 0.053074 3.59762e-20)
(0.0470256 0.0169941 -1.04916e-20)
(0.104458 -0.0258706 -1.31876e-20)
(0.169761 -0.0821557 -3.01163e-20)
(0.296168 -0.12547 5.44678e-20)
(-0.0217495 0.0405179 4.1884e-20)
(-0.0413951 0.0842489 -6.71967e-20)
(-0.0428895 0.10158 -5.21673e-20)
(-0.0307015 0.09858 2.24787e-20)
(-0.00620352 0.0815054 4.66273e-20)
(0.0311019 0.0544832 4.0645e-20)
(0.083102 0.0192078 -4.40697e-20)
(0.155252 -0.0225588 8.70437e-20)
(0.236173 -0.0808657 -2.67743e-20)
(0.389209 -0.120678 -6.40911e-20)
(-0.0217839 0.0375146 -6.24968e-20)
(-0.0407903 0.0792411 3.75613e-20)
(-0.0394273 0.0968271 -1.83244e-20)
(-0.0221001 0.0948596 1.90366e-21)
(0.00996686 0.0788886 1.97494e-20)
(0.0574035 0.0528 -6.39648e-20)
(0.122308 0.0183871 5.83427e-20)
(0.210337 -0.0217905 -5.73468e-20)
(0.309387 -0.0814941 9.45036e-20)
(0.487697 -0.115824 3.42978e-20)
(-0.0215229 0.034212 1.34266e-20)
(-0.0395312 0.0730938 7.34651e-20)
(-0.0351266 0.0901284 -1.862e-20)
(-0.0123902 0.0886044 1.88936e-20)
(0.0277364 0.0733809 2.24274e-20)
(0.0861247 0.0480701 -6.73572e-21)
(0.165233 0.0145671 4.97807e-20)
(0.270185 -0.0237395 2.27494e-21)
(0.390473 -0.0832901 -6.07723e-20)
(0.589113 -0.110723 8.1438e-20)
(-0.021023 0.030774 -3.57516e-20)
(-0.0376157 0.0660957 -6.96942e-20)
(-0.0298571 0.0817874 6.05632e-20)
(-0.00127867 0.0800909 3.0591e-20)
(0.0476067 0.0652433 -1.43667e-19)
(0.118009 0.0405763 1.18661e-19)
(0.212883 0.0081583 -1.09538e-19)
(0.33574 -0.0282599 1.45187e-21)
(0.480136 -0.0848633 -2.55387e-20)
(0.690047 -0.105025 -7.51887e-20)
(-0.0203419 0.0273447 3.10279e-20)
(-0.0350202 0.0585375 -4.20451e-21)
(-0.0234051 0.0721647 -1.48967e-20)
(0.0116978 0.0697134 -1.6903e-21)
(0.07035 0.0549151 -8.76132e-21)
(0.154186 0.0308568 -3.80186e-20)
(0.266597 -3.33766e-05 1.67811e-20)
(0.408286 -0.0346631 -2.6322e-20)
(0.577822 -0.0843488 8.14088e-21)
(0.786391 -0.0982861 2.0821e-21)
(-0.0195249 0.0240354 -6.33318e-20)
(-0.0316801 0.0506873 -4.53597e-21)
(-0.0154594 0.0616511 6.88103e-21)
(0.027178 0.0579621 2.76953e-21)
(0.0969924 0.0430031 4.70237e-20)
(0.196059 0.0197083 -1.3849e-19)
(0.32778 -0.00891852 9.50724e-20)
(0.489 -0.0415449 -7.16658e-20)
(0.681032 -0.0798186 6.109e-20)
(0.874424 -0.090998 6.74001e-20)
(-0.0185916 0.0209165 -7.6417e-21)
(-0.027474 0.0427703 3.51528e-20)
(-0.00560866 0.0506391 -4.41471e-20)
(0.0459493 0.0453895 -1.38736e-20)
(0.128726 0.0302384 2.69322e-20)
(0.245102 0.00810607 1.31436e-19)
(0.397518 -0.0173123 -2.68616e-20)
(0.578188 -0.0468348 1.34438e-20)
(0.785442 -0.0704665 -7.02784e-20)
(0.952974 -0.0864986 2.98117e-20)
(-0.0175258 0.0180151 -2.30232e-20)
(-0.0222143 0.0349563 -1.78303e-20)
(0.0066454 0.0394968 4.35539e-21)
(0.0688882 0.0325723 1.74887e-20)
(0.166762 0.0174264 -5.19865e-20)
(0.302539 -0.00287851 -2.12774e-20)
(0.47616 -0.0240712 -6.75731e-20)
(0.674391 -0.0484054 7.02246e-20)
(0.885974 -0.0585352 7.38133e-20)
(1.0246 -0.0887232 -3.22718e-20)
(-0.0162694 0.0153184 -1.08958e-20)
(-0.0156483 0.0273557 4.46623e-20)
(0.0218588 0.0285493 -4.99956e-20)
(0.0968764 0.0200758 -5.82587e-21)
(0.212145 0.0053905 -2.37132e-20)
(0.369013 -0.0121724 5.2325e-20)
(0.562948 -0.0281455 6.83661e-20)
(0.774016 -0.0453354 -6.53441e-20)
(0.978142 -0.0483271 6.81496e-20)
(1.11497 -0.0764957 8.47697e-21)
(-0.0147233 0.0127837 -3.16114e-20)
(-0.00746745 0.0200268 -9.01823e-20)
(0.040605 0.0180703 8.81259e-20)
(0.130703 0.00842721 1.27384e-20)
(0.265575 -0.00507892 1.88972e-20)
(0.444321 -0.0188071 1.11141e-20)
(0.655823 -0.0286989 5.15866e-20)
(0.87241 -0.0383247 3.7983e-20)
(1.06397 -0.036785 -1.33905e-19)
(1.18942 -0.0582892 -6.37966e-20)
(0.00267366 0.0129916 2.18841e-20)
(0.0634301 0.00828687 -4.96866e-20)
(0.170975 -0.00189588 9.74793e-21)
(0.327249 -0.0132655 1.57528e-20)
(0.527301 -0.0220255 -1.1345e-19)
(0.751633 -0.0253337 4.9825e-20)
(0.965912 -0.0280054 -3.39871e-20)
(1.13976 -0.0230388 3.55342e-20)
(1.24591 -0.0396239 -1.18833e-20)
(0.0908103 -0.000602819 -2.32301e-21)
(0.21804 -0.010462 -1.36654e-20)
(0.396766 -0.0185581 6.40918e-22)
(0.61589 -0.0213677 1.2914e-21)
(0.846791 -0.0181129 -7.6073e-20)
(1.0515 -0.0149533 9.59555e-21)
(1.20382 -0.00786683 9.26971e-20)
(1.29085 -0.0205943 4.11354e-20)
(0.123117 -0.00840455 8.4485e-20)
(0.271937 -0.0168712 2.16547e-21)
(0.473099 -0.0204794 -3.54321e-20)
(0.707381 -0.0167 9.5983e-20)
(0.937932 -0.00742581 2.08541e-20)
(1.12717 0.000165913 7.69102e-22)
(1.2564 0.00830024 -4.07823e-20)
(1.32356 -0.00193243 -5.16326e-20)
(0.332364 -0.020742 -3.50806e-20)
(0.554652 -0.0187143 5.80095e-20)
(0.79883 -0.00817661 -2.85796e-20)
(1.02237 0.00616987 -3.1982e-20)
(1.19207 0.0167673 -7.83828e-21)
(1.29802 0.0249674 -2.30252e-20)
(1.3472 0.0161485 2.4604e-20)
(0.63941 -0.0131302 3.13177e-20)
(0.887457 0.00384595 -1.04186e-19)
(1.09832 0.0220837 6.6453e-20)
(1.24618 0.0343498 -3.02064e-20)
(1.32998 0.0418114 4.49193e-20)
(1.36319 0.0336406 1.21192e-20)
(1.16485 0.0397674 -1.74842e-20)
(1.29011 0.0525271 1.41587e-20)
(1.35364 0.0586245 -3.41302e-20)
(1.37337 0.0505412 -3.41137e-20)
(1.3248 0.0710171 -4.42395e-20)
(1.37042 0.0752949 8.01052e-22)
(1.37905 0.0669503 2.35579e-20)
(1.38158 0.0917839 3.30458e-20)
(1.38134 0.0829525 -1.4119e-20)
(-0.210723 -0.307818 -1.31437e-22)
(-0.234915 -0.422913 3.71713e-23)
(-0.214593 -0.493321 1.80488e-22)
(-0.160921 -0.49515 -1.85237e-22)
(-0.0433012 -0.369584 4.88391e-23)
(0.0968165 -0.11865 1.78994e-22)
(0.247464 0.193859 1.58493e-23)
(0.395404 0.468713 -9.60532e-23)
(0.488651 0.625713 -6.44371e-23)
(0.554419 0.671463 -5.2376e-23)
(0.548425 0.684929 7.43537e-24)
(0.439435 0.66933 -7.29481e-23)
(0.419686 0.511869 4.79455e-23)
(0.589369 0.101589 -1.9095e-23)
(0.729982 -0.243004 -1.65442e-23)
(0.847569 -0.454375 -9.3578e-24)
(0.894656 -0.506368 4.94848e-23)
(0.867079 -0.508071 6.45552e-23)
(0.757865 -0.581981 2.69257e-24)
(0.703755 -0.366729 2.74528e-23)
(0.782893 -0.155734 -1.35638e-23)
(0.905931 0.141061 -1.09781e-23)
(0.925507 0.327908 -4.23252e-24)
(0.926283 0.407722 -1.78743e-23)
(0.931444 0.560085 -1.73991e-23)
(0.928252 0.237941 -6.5714e-24)
(0.940108 0.0836351 7.70832e-24)
(0.985246 -0.245661 5.25625e-23)
(1.004 -0.583615 5.79357e-24)
(0.967519 -0.222699 4.2918e-24)
(-0.218527 -0.296898 5.3548e-23)
(-0.251598 -0.42056 -4.41001e-22)
(-0.242316 -0.500657 -6.44205e-23)
(-0.204511 -0.515333 4.85527e-22)
(-0.100265 -0.400008 -3.60328e-23)
(0.0389542 -0.153117 -6.47478e-22)
(0.192227 0.159525 4.60953e-22)
(0.345886 0.440685 -4.53398e-22)
(0.449829 0.607105 1.85469e-22)
(0.528968 0.664756 -3.12344e-22)
(0.523599 0.69421 4.90033e-22)
(0.420722 0.679115 -4.70265e-22)
(0.428444 0.500569 -6.24726e-23)
(0.613949 0.0800999 4.22974e-22)
(0.754361 -0.260628 -6.94424e-23)
(0.864811 -0.464916 -6.25228e-23)
(0.904515 -0.507724 -1.55007e-22)
(0.874983 -0.499937 1.13605e-22)
(0.768777 -0.572509 7.74494e-23)
(0.708264 -0.368154 -1.02903e-22)
(0.783234 -0.16649 -3.07861e-23)
(0.900193 0.133788 6.45446e-23)
(0.920098 0.326595 -3.86783e-24)
(0.920523 0.407434 -6.57017e-23)
(0.923078 0.560029 2.99338e-23)
(0.925771 0.237396 6.21627e-23)
(0.940243 0.0816721 -1.09351e-24)
(0.988696 -0.24782 -9.92796e-23)
(1.00908 -0.582954 6.21088e-25)
(0.96888 -0.221614 -2.31414e-23)
(-0.215804 -0.283483 3.37394e-21)
(-0.256327 -0.414816 -2.54496e-21)
(-0.257283 -0.50448 1.66271e-21)
(-0.236137 -0.532495 -1.52438e-21)
(-0.149967 -0.43023 -6.46519e-22)
(-0.0147065 -0.19001 3.31787e-21)
(0.140421 0.122452 -1.14524e-21)
(0.298741 0.409858 -1.02098e-21)
(0.413332 0.585861 5.06599e-22)
(0.504378 0.656764 -2.05652e-23)
(0.498982 0.702874 1.14047e-22)
(0.405119 0.686726 -4.79869e-23)
(0.440453 0.487485 -6.52166e-23)
(0.639592 0.0593418 1.5037e-22)
(0.779687 -0.27675 3.13438e-23)
(0.882466 -0.474101 -1.25101e-22)
(0.914872 -0.508525 3.59878e-22)
(0.883145 -0.491813 7.60074e-23)
(0.779958 -0.563053 -4.39891e-23)
(0.71386 -0.369492 -6.0809e-23)
(0.784747 -0.177166 3.88161e-23)
(0.895034 0.126377 8.12835e-23)
(0.915059 0.325092 -1.5756e-22)
(0.914782 0.407141 5.34611e-23)
(0.914651 0.559916 -9.18475e-23)
(0.923376 0.23672 -7.00043e-23)
(0.940638 0.0796374 1.95956e-23)
(0.992267 -0.250004 1.71685e-22)
(1.01401 -0.582201 -1.61996e-23)
(0.970127 -0.220433 1.48057e-23)
(-0.201903 -0.268205 -3.92516e-21)
(-0.247986 -0.405904 1.78899e-21)
(-0.257852 -0.504647 -2.50334e-22)
(-0.253584 -0.545828 3.9082e-22)
(-0.18967 -0.459096 -5.54525e-22)
(-0.0631738 -0.228035 -2.00199e-21)
(0.0928162 0.0824754 1.04137e-21)
(0.254569 0.376303 -1.17143e-22)
(0.379446 0.562049 5.66399e-22)
(0.480614 0.647505 1.04526e-21)
(0.474781 0.710641 -2.91648e-22)
(0.392903 0.69204 3.93539e-22)
(0.455244 0.472949 -4.24796e-22)
(0.666122 0.0394319 -5.60451e-22)
(0.805793 -0.291349 9.24124e-23)
(0.900452 -0.481938 -1.86906e-22)
(0.925654 -0.508808 -3.3033e-22)
(0.891576 -0.483719 -7.43864e-23)
(0.791241 -0.55364 8.60973e-23)
(0.720449 -0.370751 -2.96783e-23)
(0.787446 -0.187725 -1.14696e-22)
(0.890517 0.118856 -8.27792e-24)
(0.910399 0.323417 6.34918e-23)
(0.909048 0.406859 1.04466e-23)
(0.906212 0.559743 3.40474e-23)
(0.921085 0.235902 2.03513e-23)
(0.941305 0.0775308 1.87729e-23)
(0.995956 -0.252196 5.44509e-23)
(1.01878 -0.581351 8.45702e-23)
(0.971248 -0.219158 6.10528e-24)
(-0.176641 -0.25181 2.98844e-21)
(-0.225994 -0.394175 3.02746e-21)
(-0.242905 -0.501113 1.46047e-21)
(-0.254962 -0.55462 -1.74936e-21)
(-0.216424 -0.485187 -1.71739e-22)
(-0.10559 -0.266477 -8.5579e-22)
(0.0499682 0.03999 -1.5422e-21)
(0.214027 0.340092 -3.77907e-22)
(0.348364 0.535746 2.02055e-22)
(0.457618 0.636977 -1.85498e-23)
(0.45124 0.717218 -4.0303e-22)
(0.384203 0.695004 1.42502e-22)
(0.472397 0.457304 1.023e-21)
(0.693398 0.0204254 -6.49556e-22)
(0.832526 -0.304413 6.0154e-22)
(0.9187 -0.488437 9.09836e-23)
(0.936779 -0.508609 7.1654e-22)
(0.900284 -0.475667 -9.39518e-23)
(0.802487 -0.544289 -1.53375e-22)
(0.727908 -0.371946 -1.81285e-23)
(0.791329 -0.198135 -1.29405e-22)
(0.886701 0.111253 -2.37568e-22)
(0.906129 0.321592 -1.24794e-25)
(0.903315 0.406603 1.46856e-22)
(0.897808 0.559508 8.56535e-24)
(0.918918 0.234936 3.24653e-23)
(0.942254 0.0753514 -8.61054e-23)
(0.999755 -0.254384 -2.45333e-22)
(1.02339 -0.580395 -1.43088e-22)
(0.972236 -0.21779 -2.84416e-23)
(-0.140303 -0.235122 1.9213e-21)
(-0.190381 -0.380124 4.08254e-21)
(-0.211998 -0.494008 1.14398e-21)
(-0.238943 -0.558359 -5.27317e-21)
(-0.227521 -0.506972 4.57845e-21)
(-0.140416 -0.304524 -2.01318e-21)
(0.0123494 -0.00326963 -3.17364e-22)
(0.177596 0.301293 -5.87972e-22)
(0.320169 0.507062 -2.67605e-22)
(0.43532 0.625162 1.64334e-21)
(0.428644 0.722313 -4.99642e-22)
(0.379007 0.695623 -1.42646e-21)
(0.491573 0.440889 -1.07461e-22)
(0.721307 0.00223039 1.02444e-21)
(0.859722 -0.315938 -1.00271e-21)
(0.937146 -0.493612 9.12884e-22)
(0.948162 -0.507961 -7.66037e-22)
(0.909269 -0.467666 3.21571e-22)
(0.813596 -0.535009 2.32869e-23)
(0.736088 -0.373097 2.01829e-22)
(0.796374 -0.208376 8.50692e-23)
(0.88364 0.103595 9.78517e-23)
(0.902253 0.319639 2.54932e-23)
(0.897574 0.406384 1.62372e-22)
(0.889485 0.559206 6.04303e-23)
(0.916896 0.233815 -3.52276e-23)
(0.943492 0.0731005 2.62888e-22)
(1.00366 -0.25655 -2.21453e-22)
(1.02783 -0.579327 2.16332e-22)
(0.973083 -0.216331 4.38234e-23)
(-0.0935865 -0.21897 -3.91579e-21)
(-0.141807 -0.364388 7.60477e-22)
(-0.16547 -0.483695 8.22386e-22)
(-0.204991 -0.556867 -5.33362e-22)
(-0.220764 -0.523034 7.58598e-22)
(-0.165014 -0.340518 8.18638e-22)
(-0.0196763 -0.0485115 4.67671e-22)
(0.145379 0.259931 -7.59646e-22)
(0.29481 0.476154 -6.7448e-22)
(0.413646 0.612009 4.01436e-22)
(0.407307 0.725644 1.91122e-22)
(0.377189 0.693956 1.34919e-21)
(0.512476 0.424021 -1.55562e-21)
(0.749754 -0.0148996 -8.74899e-22)
(0.887252 -0.32592 1.35008e-21)
(0.95573 -0.497481 4.81392e-22)
(0.959719 -0.506899 1.35132e-23)
(0.918515 -0.459721 6.72433e-24)
(0.824509 -0.525804 -1.02961e-22)
(0.744824 -0.374231 -3.09687e-22)
(0.802527 -0.218437 6.67306e-24)
(0.881379 0.0959071 -1.04115e-22)
(0.898771 0.317583 -1.03742e-22)
(0.891822 0.406212 -9.5343e-23)
(0.881283 0.558834 -1.3687e-22)
(0.915038 0.232536 -2.58368e-23)
(0.945027 0.0707849 -2.45675e-22)
(1.00765 -0.25868 2.55163e-22)
(1.0321 -0.578139 -1.97269e-22)
(0.973783 -0.21478 -3.54419e-23)
(-0.0374783 -0.204146 4.56777e-21)
(-0.0814983 -0.347694 7.39412e-22)
(-0.104463 -0.470748 -1.12044e-22)
(-0.153526 -0.550338 -3.60474e-22)
(-0.194842 -0.532317 -6.30431e-22)
(-0.176546 -0.372715 3.01834e-21)
(-0.0458487 -0.0956177 -2.3442e-21)
(0.11774 0.216193 -7.44023e-22)
(0.272118 0.443195 -4.32885e-22)
(0.392534 0.597424 3.52107e-22)
(0.387559 0.726945 1.41595e-21)
(0.378558 0.690106 -3.00329e-22)
(0.534931 0.406998 -1.33145e-21)
(0.778658 -0.030655 2.37306e-21)
(0.914938 -0.334368 -2.5107e-21)
(0.974393 -0.500065 4.58757e-22)
(0.97137 -0.505452 -7.60685e-24)
(0.927989 -0.451842 2.33611e-22)
(0.835211 -0.516668 -2.83905e-22)
(0.753941 -0.375368 3.30711e-22)
(0.809701 -0.228319 -2.98451e-23)
(0.879947 0.0882121 5.38373e-22)
(0.89568 0.31545 1.42091e-22)
(0.88606 0.406096 -4.03145e-22)
(0.873242 0.558386 3.18136e-23)
(0.913364 0.231095 -6.38118e-23)
(0.946861 0.0684081 4.10419e-23)
(1.01173 -0.260759 -2.08707e-22)
(1.0362 -0.576826 1.17181e-22)
(0.974333 -0.213139 3.04803e-23)
(0.0268666 -0.19153 -3.15863e-21)
(-0.0110725 -0.330725 1.88459e-21)
(-0.0308216 -0.455876 2.34819e-21)
(-0.0859849 -0.539323 2.38648e-24)
(-0.14957 -0.534329 -3.58759e-21)
(-0.171511 -0.399161 3.29638e-22)
(-0.0655165 -0.141092 4.39891e-22)
(0.0944771 0.170275 -1.37096e-21)
(0.251812 0.408352 -5.59893e-22)
(0.371965 0.581264 1.78607e-21)
(0.369735 0.725975 -3.48326e-22)
(0.382897 0.68421 9.60213e-22)
(0.558786 0.390077 -2.43614e-21)
(0.807942 -0.0451406 1.23306e-21)
(0.942632 -0.3413 -1.01592e-21)
(0.993072 -0.501387 1.39278e-21)
(0.983047 -0.503647 1.1375e-22)
(0.937644 -0.44404 -3.42168e-22)
(0.845718 -0.507591 5.04911e-22)
(0.763269 -0.376526 -2.32955e-22)
(0.817768 -0.238034 1.41571e-22)
(0.879354 0.0805275 -7.48179e-23)
(0.89297 0.313267 -3.88986e-22)
(0.88029 0.406041 4.40367e-22)
(0.865398 0.557857 -6.75262e-23)
(0.911895 0.229492 2.34591e-22)
(0.948997 0.06597 -2.84037e-22)
(1.01589 -0.262771 3.81728e-22)
(1.04014 -0.575381 -1.52444e-22)
(0.97473 -0.211409 -1.19284e-25)
(0.098144 -0.181904 4.23025e-22)
(0.0677298 -0.313956 7.46957e-21)
(0.0531226 -0.439841 -8.00788e-21)
(-0.00472246 -0.524675 -1.42369e-22)
(-0.0860633 -0.529247 4.49934e-21)
(-0.14718 -0.418171 4.13975e-22)
(-0.0770854 -0.182949 -1.58379e-21)
(0.0752352 0.1226 -3.12846e-22)
(0.233552 0.371767 4.29003e-22)
(0.351991 0.563336 7.33489e-22)
(0.354156 0.722519 -5.14229e-23)
(0.389997 0.676424 -1.22815e-22)
(0.583903 0.373477 1.00323e-21)
(0.837525 -0.0583109 -9.89847e-22)
(0.970195 -0.346734 7.97131e-22)
(1.0117 -0.501474 -5.22935e-22)
(0.994693 -0.501506 -1.72756e-22)
(0.947415 -0.43633 3.80106e-22)
(0.856074 -0.498557 -7.44361e-22)
(0.772652 -0.37771 3.02835e-22)
(0.826561 -0.247598 -1.08216e-22)
(0.879586 0.0728648 -3.30135e-22)
(0.890626 0.311058 4.65141e-23)
(0.874521 0.40605 -1.10797e-22)
(0.857783 0.55724 2.37821e-22)
(0.910651 0.227727 -1.18099e-22)
(0.951435 0.0634762 -8.08206e-23)
(1.02011 -0.264703 -1.74917e-22)
(1.0439 -0.573798 -6.65862e-23)
(0.974975 -0.209591 -7.14722e-24)
(0.174959 -0.17461 -5.83534e-21)
(0.153254 -0.298225 1.05622e-20)
(0.144838 -0.423396 -2.28751e-21)
(0.0872395 -0.507454 -7.69083e-21)
(-0.00674049 -0.5179 7.88551e-21)
(-0.102525 -0.428658 6.06574e-22)
(-0.0777211 -0.219962 -3.05139e-21)
(0.0596676 0.0743971 4.11449e-23)
(0.217017 0.333555 -6.83704e-22)
(0.33277 0.543416 1.56825e-22)
(0.341125 0.716395 -1.49122e-21)
(0.399669 0.666922 1.40996e-21)
(0.610146 0.357383 -2.87422e-22)
(0.867329 -0.0701146 3.34385e-22)
(0.997495 -0.350693 8.19157e-22)
(1.03021 -0.500357 -1.86788e-21)
(1.00626 -0.499046 8.80077e-22)
(0.957232 -0.428732 -3.58637e-22)
(0.866327 -0.489548 1.48415e-22)
(0.781962 -0.378912 2.16708e-22)
(0.835873 -0.257032 -4.01989e-23)
(0.880605 0.0652275 -1.37377e-22)
(0.88863 0.308846 7.51308e-22)
(0.868764 0.406126 -3.35718e-22)
(0.850429 0.556531 4.94249e-23)
(0.909651 0.225803 -2.00198e-22)
(0.954172 0.060934 5.76542e-22)
(1.0244 -0.266539 4.78078e-22)
(1.04749 -0.572073 1.64212e-22)
(0.975069 -0.207686 1.70316e-23)
(0.256644 -0.168482 -3.33801e-21)
(0.243886 -0.284245 1.36584e-20)
(0.241994 -0.406941 -4.33108e-21)
(0.186578 -0.488679 -3.23175e-21)
(0.0849259 -0.501719 5.54963e-21)
(-0.0386085 -0.430422 -3.72085e-21)
(-0.063448 -0.250552 -8.50001e-22)
(0.0483078 0.0280253 2.22354e-22)
(0.201957 0.293822 1.53641e-21)
(0.314598 0.52127 -2.02583e-22)
(0.330925 0.707452 -5.54548e-22)
(0.411752 0.655883 -1.0513e-22)
(0.637376 0.34195 9.72918e-22)
(0.897271 -0.0805096 -1.56976e-21)
(1.02441 -0.353204 1.5911e-21)
(1.04853 -0.498073 -4.64133e-23)
(1.01771 -0.496282 3.75661e-22)
(0.967024 -0.421269 5.97096e-23)
(0.876524 -0.480548 3.81418e-22)
(0.791104 -0.380114 -3.61891e-22)
(0.845464 -0.266362 -1.23169e-22)
(0.882344 0.0576093 1.88776e-22)
(0.886956 0.306648 -4.61241e-22)
(0.863032 0.406267 1.79252e-22)
(0.843365 0.555723 -1.93286e-22)
(0.908914 0.223722 -5.41254e-23)
(0.957203 0.0583502 -1.0138e-22)
(1.02874 -0.268266 -4.80026e-22)
(1.05089 -0.5702 -1.58362e-23)
(0.975012 -0.205695 -2.26068e-23)
(0.342698 -0.163096 -6.00913e-22)
(0.338368 -0.271868 9.1306e-21)
(0.342575 -0.390822 -7.23463e-21)
(0.289987 -0.46854 8.15186e-21)
(0.184829 -0.482488 1.46038e-21)
(0.0417632 -0.424307 -2.2176e-21)
(-0.0307846 -0.272979 4.03204e-22)
(0.0429007 -0.0149324 -5.49261e-22)
(0.188428 0.252815 9.51657e-22)
(0.297946 0.496679 -1.95422e-21)
(0.323826 0.69558 -1.70759e-22)
(0.426098 0.643491 7.79442e-22)
(0.665452 0.327298 -1.76038e-21)
(0.927274 -0.0894605 2.06875e-21)
(1.05083 -0.354296 -1.74034e-21)
(1.06659 -0.494666 8.92417e-22)
(1.029 -0.493231 -4.98934e-22)
(0.976727 -0.41397 3.73924e-22)
(0.886695 -0.471543 -1.86298e-22)
(0.800026 -0.381279 -1.10081e-22)
(0.855061 -0.27561 1.40538e-22)
(0.884707 0.0499932 -3.38523e-22)
(0.885574 0.30448 8.25175e-22)
(0.857343 0.40647 -3.8405e-22)
(0.836616 0.554813 -3.31329e-22)
(0.90846 0.221489 -9.68505e-23)
(0.960523 0.0557317 4.02345e-23)
(1.03315 -0.26987 8.68865e-24)
(1.0541 -0.568174 -8.58202e-23)
(0.97481 -0.203621 1.14044e-23)
(0.432538 -0.15809 9.71625e-21)
(0.435616 -0.260733 -4.3284e-21)
(0.444998 -0.375251 3.69411e-21)
(0.394625 -0.448196 5.21509e-23)
(0.288614 -0.460689 2.46332e-21)
(0.134483 -0.411946 -1.79602e-21)
(0.0215549 -0.28637 -6.2619e-22)
(0.0467009 -0.0548672 4.05868e-22)
(0.17712 0.211041 1.49838e-22)
(0.283468 0.469466 5.65534e-22)
(0.320095 0.680719 -2.57886e-21)
(0.44257 0.629925 2.80654e-21)
(0.694242 0.313529 1.5695e-21)
(0.957271 -0.0969353 -6.81542e-22)
(1.07664 -0.354001 -9.82068e-23)
(1.08432 -0.490177 -4.70934e-22)
(1.04011 -0.489896 3.02307e-22)
(0.986289 -0.406864 2.78196e-22)
(0.896853 -0.462522 -4.71923e-23)
(0.808708 -0.382357 4.93771e-23)
(0.864375 -0.284792 -1.47327e-22)
(0.887571 0.0423503 1.02975e-22)
(0.884449 0.302347 -5.70111e-22)
(0.851716 0.406729 -2.24058e-23)
(0.830206 0.553794 2.6093e-22)
(0.908309 0.21911 2.60836e-22)
(0.964122 0.0530866 -6.19114e-23)
(1.03761 -0.271339 2.68568e-23)
(1.05711 -0.56599 2.49606e-22)
(0.974468 -0.201465 -6.0908e-24)
(0.525398 -0.15307 -7.8474e-21)
(0.534775 -0.250395 1.11764e-20)
(0.547623 -0.360056 -1.78798e-21)
(0.498178 -0.428605 -1.81672e-21)
(0.392523 -0.43768 3.61193e-21)
(0.234478 -0.394511 1.28106e-22)
(0.0919044 -0.290906 -1.67715e-22)
(0.0638855 -0.0896004 2.14024e-22)
(0.169827 0.169547 -4.07954e-22)
(0.272043 0.439569 1.17078e-21)
(0.320005 0.662869 1.33801e-21)
(0.461026 0.615361 -1.0765e-21)
(0.723647 0.300726 -1.10797e-21)
(0.987222 -0.102904 1.70549e-21)
(1.10175 -0.352333 -4.62847e-22)
(1.10165 -0.484623 1.14382e-21)
(1.051 -0.486246 -1.07345e-21)
(0.995671 -0.399955 2.32362e-22)
(0.906994 -0.453467 1.18128e-22)
(0.817161 -0.383281 6.37822e-24)
(0.873117 -0.293901 1.63811e-22)
(0.890788 0.0346419 -5.04817e-24)
(0.883542 0.300249 2.68397e-22)
(0.846173 0.407036 -5.05581e-23)
(0.824157 0.552664 3.00312e-22)
(0.908484 0.216594 2.49161e-23)
(0.967991 0.0504233 2.45849e-22)
(1.04213 -0.272661 -2.56714e-22)
(1.05992 -0.563645 -2.2806e-22)
(0.973994 -0.19923 3.78093e-25)
(0.620378 -0.14772 -7.04441e-22)
(0.635154 -0.2405 -4.25206e-21)
(0.64899 -0.344847 -6.64365e-21)
(0.598424 -0.409155 4.90576e-21)
(0.493468 -0.415424 2.263e-21)
(0.336836 -0.373854 -4.10703e-22)
(0.176487 -0.287317 7.1567e-23)
(0.0981215 -0.115823 -5.65854e-23)
(0.169051 0.129742 1.71147e-22)
(0.264765 0.407141 -3.96311e-22)
(0.32383 0.642103 -9.58318e-22)
(0.481315 0.599963 -2.25631e-21)
(0.753647 0.288941 4.16584e-21)
(1.01713 -0.107377 -3.78042e-21)
(1.12608 -0.349303 1.67802e-21)
(1.1185 -0.478 -1.72149e-21)
(1.06164 -0.482238 -2.35689e-22)
(1.00484 -0.393241 -4.33016e-22)
(0.917098 -0.444372 1.44108e-22)
(0.825402 -0.383984 -2.82204e-22)
(0.881028 -0.302913 4.73584e-23)
(0.894182 0.0268335 1.71646e-22)
(0.882812 0.298178 -1.54733e-22)
(0.840734 0.407381 2.50279e-22)
(0.818488 0.551417 -5.0804e-22)
(0.909017 0.213942 2.7377e-22)
(0.972121 0.0477458 -4.37339e-22)
(1.04671 -0.273828 2.91984e-22)
(1.06251 -0.561134 5.68036e-23)
(0.9734 -0.196919 4.55207e-24)
(0.716738 -0.141878 -9.55439e-23)
(0.736133 -0.230629 -3.53977e-21)
(0.747608 -0.329005 1.56564e-20)
(0.693496 -0.389216 -1.04435e-20)
(0.588859 -0.393809 5.44729e-21)
(0.437215 -0.352497 -1.62428e-21)
(0.269926 -0.277212 8.322e-22)
(0.150732 -0.132801 1.65248e-22)
(0.178188 0.0934095 1.05167e-22)
(0.26295 0.372652 -6.88155e-22)
(0.33183 0.618592 -7.94404e-22)
(0.503273 0.583889 -1.46649e-21)
(0.784383 0.278116 3.3117e-21)
(1.04708 -0.110473 -3.48397e-21)
(1.14952 -0.344984 4.46409e-21)
(1.13483 -0.470449 4.18926e-22)
(1.07201 -0.477989 -1.70519e-21)
(1.01379 -0.386812 1.92394e-22)
(0.927142 -0.435297 3.45296e-22)
(0.833446 -0.384418 9.09723e-23)
(0.887922 -0.311854 -4.34617e-22)
(0.897559 0.0188936 1.12939e-22)
(0.882208 0.296127 1.75088e-22)
(0.835421 0.407754 -9.67614e-23)
(0.813211 0.550052 2.37724e-22)
(0.909952 0.211156 -2.5698e-22)
(0.976503 0.0450564 -7.55588e-23)
(1.05133 -0.274819 3.82878e-22)
(1.0649 -0.558462 3.06715e-23)
(0.9727 -0.194539 -2.38645e-24)
(0.814522 -0.135842 -2.66305e-22)
(0.837003 -0.220649 -3.01555e-21)
(0.841746 -0.312448 -8.28296e-21)
(0.781819 -0.369028 5.2081e-21)
(0.676977 -0.373469 -6.06034e-21)
(0.532186 -0.332546 1.3765e-21)
(0.366342 -0.26376 9.51531e-22)
(0.219748 -0.141385 4.85067e-22)
(0.200937 0.0621752 -9.51959e-23)
(0.268204 0.337043 -2.81936e-22)
(0.344252 0.592554 5.49037e-22)
(0.526711 0.567239 -1.43492e-21)
(0.816357 0.268161 5.73486e-22)
(1.07723 -0.112068 1.35114e-21)
(1.17199 -0.339533 1.42823e-21)
(1.15054 -0.462412 7.45031e-23)
(1.08209 -0.473925 -1.39345e-21)
(1.02249 -0.380935 6.59283e-22)
(0.937111 -0.426375 -1.73642e-23)
(0.84129 -0.384546 -1.63461e-22)
(0.893717 -0.32087 8.30358e-23)
(0.900727 0.0106921 -1.27876e-22)
(0.881666 0.294057 1.14623e-22)
(0.83025 0.408145 -1.60575e-22)
(0.808333 0.548565 2.40602e-22)
(0.91136 0.208282 1.3408e-22)
(0.981132 0.0424007 -1.24976e-22)
(1.05599 -0.275591 -1.05376e-22)
(1.06708 -0.555633 -1.57567e-22)
(0.971915 -0.192101 6.12702e-25)
(0.915395 -0.131498 -4.56025e-21)
(0.93643 -0.211132 1.04067e-20)
(0.92916 -0.296286 -5.64836e-21)
(0.861982 -0.350794 -4.58878e-21)
(0.756957 -0.357226 1.85559e-21)
(0.619757 -0.317449 -7.87274e-22)
(0.460871 -0.25164 1.02913e-21)
(0.300473 -0.145358 -3.71131e-22)
(0.240242 0.0360318 9.07863e-22)
(0.28314 0.301229 -5.3895e-22)
(0.360973 0.565 -7.82509e-22)
(0.551393 0.550115 -2.29889e-21)
(0.851207 0.260451 2.6728e-21)
(1.1079 -0.110837 -6.15272e-22)
(1.19328 -0.332799 -1.29984e-21)
(1.16555 -0.453977 2.52453e-21)
(1.09188 -0.470037 -2.05626e-21)
(1.03099 -0.375626 6.87138e-22)
(0.94701 -0.417542 -3.65517e-22)
(0.848908 -0.384225 2.73448e-22)
(0.898448 -0.32993 4.94301e-23)
(0.903538 0.00191456 -1.58042e-22)
(0.881095 0.291748 1.66935e-23)
(0.825221 0.408474 -2.90294e-23)
(0.803847 0.546951 -4.93821e-23)
(0.913381 0.205528 -1.3809e-22)
(0.986006 0.0398999 6.04361e-23)
(1.06068 -0.276135 -1.30492e-23)
(1.06905 -0.552637 6.8758e-23)
(0.971065 -0.189595 9.51511e-24)
(1.02363 -0.128852 -1.5419e-20)
(1.03153 -0.197714 3.90188e-21)
(1.0069 -0.275119 -3.03779e-21)
(0.93264 -0.328319 1.2272e-20)
(0.828451 -0.33836 -4.11075e-21)
(0.699162 -0.301434 1.55966e-21)
(0.550218 -0.237468 -9.98484e-22)
(0.386899 -0.143539 4.52176e-22)
(0.296569 0.0147824 -5.80747e-23)
(0.314066 0.264663 -6.43011e-22)
(0.386346 0.535579 1.08802e-21)
(0.583609 0.536022 -2.49126e-21)
(0.894646 0.255494 -2.05466e-21)
(1.13958 -0.107253 5.50912e-21)
(1.21307 -0.323765 2.78404e-22)
(1.17977 -0.443022 -1.9913e-22)
(1.10138 -0.464085 -1.04255e-21)
(1.03926 -0.369514 -4.25756e-22)
(0.956838 -0.408068 -1.58872e-22)
(0.856259 -0.383112 2.33812e-22)
(0.902243 -0.33809 -1.59856e-22)
(0.905921 -0.0081215 -5.74533e-23)
(0.880299 0.289178 9.30207e-23)
(0.820211 0.408489 1.31234e-22)
(0.799729 0.545268 -1.76578e-22)
(0.916313 0.202714 1.85944e-22)
(0.991119 0.0373725 3.93831e-23)
(1.06538 -0.276668 -5.94089e-23)
(1.07083 -0.549426 -1.52646e-23)