/*--------------------------------*- C++ -*----------------------------------*\
  =========                 |
  \\      /  F ield         | OpenFOAM: The Open Source CFD Toolbox
   \\    /   O peration     | Website:  https://openfoam.org
    \\  /    A nd           | Version:  7
     \\/     M anipulation  |
\*---------------------------------------------------------------------------*/
FoamFile
{
    version     2.0;
    format      ascii;
    class       volVectorField;
    location    "125";
    object      U;
}
// * * * * * * * * * * * * * * * * * * * * * * * * * * * * * * * * * * * * * //

dimensions      [0 1 -1 0 0 0 0];

internalField   nonuniform List<vector> 
2125
(
(-0.0136613 0.0107524 -8.10542e-20)
(-0.0120227 0.00903925 2.93126e-20)
(0.00223878 0.0101794 3.16417e-20)
(-0.00968139 0.00711897 -1.98473e-20)
(0.0135265 0.0057177 -1.47764e-20)
(-0.00653745 0.00505641 4.14187e-20)
(0.0274862 0.00107475 -1.16034e-20)
(0.112056 -0.00361399 -6.88554e-21)
(-0.0024736 0.00291251 -1.52717e-20)
(0.0443856 -0.00349207 -9.06296e-20)
(0.147087 -0.00720079 9.47361e-21)
(0.304595 -0.00572533 3.26138e-20)
(0.00263747 0.000750821 -1.66862e-20)
(0.0644635 -0.00771731 3.22002e-20)
(0.187165 -0.00958664 4.19256e-20)
(0.367147 -0.00304308 -3.0154e-20)
(0.590497 0.0157234 1.11418e-20)
(0.824093 0.0440972 -6.80133e-20)
(0.00892365 -0.00135611 -2.15095e-20)
(0.0879069 -0.0113224 -7.21115e-21)
(0.232241 -0.0103036 -7.58656e-20)
(0.434543 0.00245903 -1.18536e-20)
(0.672847 0.0288737 -1.27791e-21)
(0.906168 0.0628578 4.05995e-21)
(1.0946 0.0943384 7.03549e-21)
(0.016503 -0.00332152 -5.59113e-21)
(0.114828 -0.0140116 2.63464e-20)
(0.282059 -0.00890567 3.70618e-20)
(0.505604 0.0111202 2.31596e-20)
(0.754381 0.0450766 -6.88207e-21)
(0.981787 0.0833923 -5.62153e-21)
(1.15224 0.115208 5.53814e-20)
(1.257 0.135125 7.16354e-21)
(0.0254739 -0.00504151 5.35087e-20)
(0.145245 -0.0154715 3.46868e-20)
(0.336139 -0.0049837 -3.51213e-20)
(0.578885 0.0231165 -6.98518e-21)
(0.833115 0.0640473 3.60472e-21)
(1.04978 0.10526 -1.31754e-20)
(1.20037 0.136167 -2.83711e-20)
(1.28496 0.153405 -4.70876e-21)
(1.32003 0.159467 3.54813e-22)
(1.3261 0.154757 1.10375e-20)
(0.0359063 -0.00639469 6.53696e-21)
(0.179063 -0.0153754 -1.88941e-20)
(0.393782 0.00181334 4.47018e-20)
(0.652802 0.0384629 2.90848e-20)
(0.90738 0.0854201 8.30685e-22)
(1.10953 0.128074 2.05001e-20)
(1.23955 0.157019 3.03388e-21)
(1.30557 0.171101 -2.12091e-20)
(1.32776 0.17387 1.7589e-20)
(1.32668 0.167518 3.26154e-23)
(0.0478342 -0.00724432 -4.40095e-20)
(0.216067 -0.0133942 -1.29662e-20)
(0.454095 0.0117555 -1.17354e-20)
(0.725763 0.057036 -2.03659e-20)
(0.975904 0.108805 4.73863e-21)
(1.16089 0.151512 1.00455e-22)
(1.27059 0.177641 1.55515e-20)
(1.31997 0.188264 -2.53914e-21)
(1.33156 0.187836 -1.81688e-20)
(1.32498 0.179975 -1.65321e-20)
(0.0612504 -0.00744239 3.56643e-21)
(0.255913 -0.00921129 2.09478e-20)
(0.516032 0.0250128 1.01265e-20)
(0.796287 0.0786089 -3.16327e-20)
(1.03783 0.133824 -1.5905e-21)
(1.20406 0.17532 -1.34905e-20)
(1.29437 0.197967 3.44544e-22)
(1.32921 0.204962 6.25228e-21)
(1.33222 0.201477 -6.79668e-21)
(1.32151 0.192225 1.87472e-20)
(0.0761022 -0.00683525 8.36251e-21)
(0.298134 -0.00254126 -2.04699e-20)
(0.578462 0.0416457 -4.8307e-20)
(0.863097 0.102886 4.44488e-20)
(1.09265 0.160126 -3.30806e-21)
(1.23945 0.1993 9.77881e-21)
(1.31176 0.217971 -1.3143e-21)
(1.33416 0.221269 9.20765e-21)
(1.33039 0.214886 -7.23035e-22)
(1.3166 0.204332 -1.45062e-20)
(0.0922892 -0.00527006 -1.70185e-20)
(0.342153 0.00685147 2.6603e-20)
(0.640227 0.0616058 2.19725e-20)
(0.925159 0.129534 -3.16422e-20)
(1.14017 0.187396 -5.22288e-21)
(1.2676 0.2233 1.99571e-21)
(1.32361 0.237647 1.97621e-20)
(1.33555 0.237254 9.67357e-22)
(1.32651 0.228129 3.73811e-21)
(1.31049 0.216329 -8.03807e-21)
(0.109663 -0.00260196 1.29095e-20)
(0.387298 0.019136 -1.16075e-20)
(0.700214 0.0847467 -9.86572e-21)
(0.981696 0.158201 1.69009e-20)
(1.18044 0.215352 5.82851e-21)
(1.28913 0.247202 4.374e-21)
(1.33064 0.257001 -2.01165e-20)
(1.33396 0.252969 -6.79988e-21)
(1.32093 0.241248 -6.0238e-21)
(1.30332 0.228224 2.6471e-21)
(0.128031 0.00129871 -6.42352e-21)
(0.432835 0.0344029 -1.47008e-22)
(0.757399 0.110839 1.86672e-20)
(1.03217 0.188528 -6.84265e-21)
(1.21363 0.243745 -3.00988e-21)
(1.30464 0.27091 -1.97747e-21)
(1.3335 0.276039 4.85412e-21)
(1.32985 0.268447 8.30654e-21)
(1.31386 0.254259 -2.64091e-22)
(1.29518 0.240003 2.95393e-21)
(0.147157 0.00653938 4.52496e-21)
(0.477994 0.0526574 -1.26888e-21)
(0.810888 0.139589 -3.34005e-21)
(1.07624 0.220162 -3.0214e-21)
(1.24005 0.272347 2.71171e-21)
(1.31471 0.294343 2.10054e-21)
(1.33273 0.294755 -1.93067e-21)
(1.32356 0.283701 6.89202e-22)
(1.30548 0.267151 9.58275e-22)
(1.28612 0.251635 -1.25649e-21)
(0.166771 0.013199 2.42476e-21)
(0.522003 0.0738188 6.91391e-22)
(0.859937 0.17065 -4.13019e-21)
(1.11376 0.252755 -3.28717e-21)
(1.26005 0.300951 3.41533e-21)
(1.31988 0.317424 6.65943e-22)
(1.32878 0.313135 -1.5288e-21)
(1.31534 0.298721 1.43044e-21)
(1.29588 0.279895 7.87106e-22)
(1.27619 0.263073 -8.89017e-22)
(0.186573 0.0213227 -9.50591e-22)
(0.564116 0.0977237 1.92743e-21)
(0.903952 0.203641 1.27104e-20)
(1.1447 0.285968 -5.62702e-21)
(1.27403 0.329361 -2.75124e-21)
(1.32063 0.340072 -3.07433e-21)
(1.32199 0.331147 6.25826e-21)
(1.30538 0.313476 4.14425e-21)
(1.28513 0.292437 3.27307e-21)
(1.26539 0.274264 1.74836e-21)
(0.206248 0.0309185 1.93833e-20)
(0.603638 0.124134 -1.06404e-20)
(0.94249 0.238157 -1.21118e-20)
(1.16914 0.319471 1.63965e-20)
(1.28238 0.357393 8.57218e-21)
(1.31739 0.362206 -5.63468e-22)
(1.31267 0.348742 -1.04027e-20)
(1.29382 0.327913 -7.45335e-21)
(1.27326 0.304708 -7.62739e-21)
(1.25376 0.285143 4.46315e-21)
(0.225469 0.0419551 -2.6203e-20)
(0.639946 0.152745 2.45853e-20)
(0.975244 0.273778 2.81988e-20)
(1.18725 0.352943 -2.77026e-20)
(1.2855 0.384866 -9.5485e-21)
(1.31052 0.383734 6.05652e-21)
(1.30103 0.365855 1.09182e-20)
(1.28075 0.341959 1.68438e-21)
(1.26031 0.316617 -2.65314e-22)
(1.24127 0.295637 -6.02033e-21)
(0.243913 0.0543617 -3.7484e-21)
(0.672503 0.183199 -3.45245e-20)
(1.00203 0.310074 -3.68855e-20)
(1.19924 0.386073 4.11602e-20)
(1.28376 0.411603 -4.6519e-21)
(1.30035 0.404556 8.40665e-21)
(1.28726 0.38241 1.61703e-21)
(1.26624 0.355534 -4.60224e-21)
(1.24625 0.328075 2.46252e-21)
(1.22783 0.305674 -2.92549e-22)
(0.261262 0.0680294 7.61923e-21)
(0.700864 0.215094 2.13465e-20)
(1.02278 0.346615 1.20902e-20)
(1.20537 0.418559 -9.51643e-21)
(1.27752 0.437427 -1.45893e-20)
(1.28715 0.424562 -1.34942e-20)
(1.27151 0.398315 -2.68754e-21)
(1.25033 0.368555 6.99014e-21)
(1.23108 0.339021 -1.47097e-21)
(1.21327 0.315181 3.32971e-21)
(0.277221 0.0828143 -2.86969e-20)
(0.724683 0.247996 -2.67406e-20)
(1.0375 0.382973 -4.18796e-21)
(1.20593 0.45011 -4.7492e-21)
(1.26712 0.462161 -1.06558e-20)
(1.27117 0.443632 6.46024e-21)
(1.25392 0.413466 -1.18021e-21)
(1.2331 0.380938 -6.1149e-21)
(1.21482 0.349452 5.51979e-21)
(1.19757 0.324066 -7.68928e-21)
(0.29152 0.0985409 6.9209e-21)
(0.743717 0.281455 2.2627e-20)
(1.0463 0.418727 1.95419e-20)
(1.20124 0.480444 2.11526e-20)
(1.25288 0.485629 4.96749e-22)
(1.25262 0.46164 1.80731e-20)
(1.23457 0.427748 1.10327e-21)
(1.21458 0.392565 -2.06363e-20)
(1.19754 0.359342 1.45361e-20)
(1.18116 0.332218 5.30652e-21)
(0.303922 0.115006 1.85523e-20)
(0.757815 0.315009 4.12384e-20)
(1.04932 0.453471 -5.47923e-21)
(1.1916 0.50929 -2.6552e-20)
(1.2351 0.507656 1.19203e-20)
(1.2317 0.478454 -1.22559e-20)
(1.21359 0.441036 -1.59671e-20)
(1.19488 0.403319 -1.17711e-21)
(1.1792 0.368447 -1.183e-20)
(1.16417 0.339718 4.4712e-21)
(0.314229 0.131983 8.61876e-21)
(0.766912 0.348202 6.24549e-21)
(1.04678 0.486813 5.0914e-20)
(1.17736 0.536387 9.43369e-21)
(1.21405 0.528072 -8.13005e-21)
(1.20858 0.493936 -4.16964e-21)
(1.19112 0.453202 2.41388e-20)
(1.17402 0.413114 1.94961e-20)
(1.15983 0.376661 9.51036e-21)
(1.14649 0.346376 -1.21537e-21)
(0.322285 0.149233 1.78007e-21)
(0.771021 0.380583 -4.20023e-20)
(1.03894 0.518378 -5.97156e-20)
(1.15885 0.561489 1.7477e-21)
(1.19003 0.546708 1.1458e-20)
(1.18349 0.507935 -1.57088e-20)
(1.16726 0.464121 -3.48643e-20)
(1.15203 0.421837 -1.01686e-20)
(1.13955 0.383881 -5.89774e-22)
(1.12809 0.352109 4.25515e-21)
(0.327975 0.166505 -1.48704e-20)
(0.770234 0.411721 3.72543e-20)
(1.02612 0.54782 3.5723e-20)
(1.13642 0.584361 -3.25073e-20)
(1.1633 0.563387 4.99827e-21)
(1.15659 0.520318 3.70548e-20)
(1.14208 0.473668 -7.71424e-21)
(1.129 0.429378 6.57449e-21)
(1.11841 0.390015 -2.81316e-21)
(1.10901 0.356828 -3.65705e-21)
(0.331228 0.183543 -3.32164e-20)
(0.764718 0.441198 -5.88227e-20)
(1.0087 0.574837 -1.14846e-20)
(1.11035 0.604771 1.86834e-20)
(1.1341 0.577942 1.78408e-20)
(1.12804 0.530933 -3.65604e-20)
(1.11571 0.481723 1.9352e-20)
(1.10501 0.43563 -9.36606e-21)
(1.09649 0.39497 7.0714e-21)
(1.08934 0.360469 4.00315e-22)
(0.332025 0.200092 2.53717e-20)
(0.754726 0.468605 1.9296e-21)
(0.987033 0.599161 -5.60382e-21)
(1.08092 0.622509 -2.26856e-20)
(1.10273 0.590202 1.41052e-20)
(1.09803 0.539644 3.37178e-21)
(1.08827 0.488167 -1.03467e-20)
(1.08018 0.44049 2.28708e-21)
(1.07386 0.398653 -1.49595e-21)
(1.06915 0.362957 1.29567e-22)
(0.330413 0.21591 -6.80454e-21)
(0.740587 0.493607 -9.28582e-21)
(0.961204 0.620413 2.40177e-20)
(1.04856 0.637459 1.11058e-20)
(1.06947 0.599996 -1.4913e-20)
(1.06675 0.546326 1.94937e-20)
(1.05991 0.492892 1.73845e-21)
(1.0546 0.443865 2.30248e-21)
(1.05062 0.400965 1.99451e-21)
(1.04852 0.364205 4.01923e-22)
(0.326485 0.230741 4.3833e-20)
(0.722602 0.516075 3.38106e-20)
(0.931425 0.638234 -2.70723e-21)
(1.01375 0.649344 -4.91842e-21)
(1.0346 0.607244 -5.9178e-21)
(1.03438 0.550871 -2.8051e-21)
(1.03076 0.495798 2.22951e-21)
(1.02839 0.445671 1.19044e-21)
(1.02685 0.401817 -1.47853e-21)
(1.02753 0.364116 -3.77212e-21)
(0.32032 0.244223 3.08773e-21)
(0.700838 0.535657 5.52362e-21)
(0.898548 0.652779 -3.00324e-20)
(0.976866 0.65793 1.29832e-20)
(0.998365 0.611818 2.4026e-21)
(1.00111 0.553178 -5.05471e-21)
(1.00098 0.496795 2.06849e-21)
(1.00167 0.445837 1.15346e-21)
(1.00268 0.40114 -3.86621e-21)
(1.0064 0.362641 4.79586e-21)
(0.311901 0.256119 -1.66478e-20)
(0.675497 0.551759 -1.16896e-20)
(0.863093 0.663763 8.97884e-21)
(0.93819 0.66323 1.74732e-21)
(0.961029 0.613621 -5.27839e-21)
(0.967154 0.553154 4.05114e-21)
(0.970692 0.495798 2.44787e-21)
(0.974527 0.444276 -9.21891e-21)
(0.978366 0.398874 2.24269e-20)
(0.985767 0.359814 8.9678e-21)
(0.301461 0.266249 -1.23518e-20)
(0.6472 0.564233 2.89889e-20)
(0.825339 0.670953 -1.77987e-20)
(0.898057 0.665151 -3.03867e-21)
(0.922852 0.612573 -2.1135e-21)
(0.932682 0.550722 -1.65356e-21)
(0.940023 0.492722 -8.21625e-21)
(0.947096 0.440856 4.32174e-21)
(0.954319 0.394832 -9.38386e-22)
(0.966321 0.355688 -4.07528e-21)
(0.289233 0.274552 -1.37987e-21)
(0.616371 0.572948 -8.7153e-21)
(0.785694 0.674175 3.83309e-21)
(0.856814 0.663611 -1.48364e-21)
(0.884098 0.608615 5.52494e-21)
(0.897883 0.545832 5.01276e-21)
(0.909094 0.487522 1.55568e-20)
(0.919564 0.435477 -1.16253e-20)
(0.930892 0.38864 -2.2106e-20)
(0.947368 0.349624 9.40692e-21)
(0.275369 0.280838 -9.70654e-22)
(0.58345 0.577774 -2.61012e-21)
(0.744584 0.673338 1.05812e-21)
(0.814812 0.658551 7.39906e-21)
(0.845033 0.601708 -1.23858e-20)
(0.862955 0.538456 -1.99965e-20)
(0.878093 0.480199 -5.96318e-21)
(0.892199 0.428256 -1.4905e-21)
(0.908071 0.380472 2.95021e-20)
(0.926089 0.337853 -6.46759e-21)
(0.260088 0.284967 1.77911e-21)
(0.54887 0.578606 -3.99366e-21)
(0.702438 0.668392 1.65691e-22)
(0.772401 0.649935 7.22668e-22)
(0.805922 0.591827 -8.59495e-21)
(0.828116 0.52857 3.79276e-20)
(0.847277 0.470724 -2.63209e-20)
(0.865214 0.419286 3.14086e-20)
(0.884784 0.372236 -2.20668e-20)
(0.902584 0.331067 -2.91302e-20)
(0.243635 0.286832 -1.60702e-21)
(0.513061 0.575371 -6.16351e-22)
(0.65968 0.659322 3.08128e-22)
(0.729925 0.637759 1.36454e-20)
(0.767033 0.578965 -5.51178e-21)
(0.793591 0.516157 8.38258e-21)
(0.816852 0.459048 1.54717e-20)
(0.83864 0.408291 -8.15219e-21)
(0.861421 0.361799 -2.10249e-20)
(0.880264 0.320934 2.9112e-20)
(0.226264 0.286354 1.14651e-20)
(0.47645 0.568037 1.52294e-20)
(0.616726 0.646144 -1.44445e-20)
(0.687725 0.622043 -1.27809e-20)
(0.728631 0.563141 4.40425e-20)
(0.7596 0.501232 -4.45213e-20)
(0.786969 0.445218 5.31399e-20)
(0.812499 0.395495 -1.33329e-20)
(0.838208 0.350104 1.42795e-20)
(0.858758 0.310412 2.64587e-20)
(0.208232 0.283486 -4.34819e-21)
(0.439466 0.556608 -1.47126e-20)
(0.573986 0.628902 -8.56199e-21)
(0.646132 0.602834 -4.81799e-21)
(0.690981 0.544388 5.20509e-21)
(0.726363 0.48382 -1.15089e-20)
(0.757799 0.429243 -1.59144e-20)
(0.78695 0.380838 -3.43941e-20)
(0.81547 0.336797 3.40687e-20)
(0.83812 0.298481 -1.10477e-20)
(0.1898 0.278206 2.68683e-20)
(0.402526 0.541126 -3.13422e-21)
(0.531855 0.607672 -1.19687e-20)
(0.605471 0.580204 1.554e-20)
(0.654339 0.522763 -2.78075e-20)
(0.694089 0.463966 7.38738e-20)
(0.729511 0.411172 -3.92884e-20)
(0.762159 0.3644 3.55081e-20)
(0.793426 0.322014 -6.51719e-20)
(0.818376 0.285264 -1.72476e-20)
(0.17123 0.270523 -8.75041e-21)
(0.366042 0.52167 2.84375e-20)
(0.490718 0.58256 6.76113e-21)
(0.566053 0.554246 -1.43196e-20)
(0.618957 0.498344 -2.46377e-20)
(0.662984 0.441733 -9.6061e-22)
(0.702276 0.391059 1.31056e-20)
(0.738289 0.346215 -3.19313e-20)
(0.772231 0.305739 1.57463e-20)
(0.799572 0.270704 2.09764e-21)
(0.152777 0.26047 -4.63706e-20)
(0.330411 0.498352 -1.1439e-20)
(0.450942 0.553697 -3.11618e-21)
(0.528179 0.52508 3.68421e-20)
(0.585076 0.471228 -3.41213e-20)
(0.633249 0.417204 -8.90306e-21)
(0.676265 0.368973 -5.37061e-21)
(0.7155 0.326345 9.97332e-21)
(0.752024 0.288014 -1.25102e-20)
(0.781778 0.254839 -1.95189e-20)
(0.134692 0.248109 4.07543e-20)
(0.296011 0.47132 -2.30833e-20)
(0.412878 0.521246 1.1708e-21)
(0.492134 0.492847 -5.5806e-20)
(0.552928 0.44153 6.0391e-20)
(0.605076 0.390473 -1.90611e-20)
(0.651643 0.344998 1.14175e-20)
(0.693937 0.304858 9.87483e-21)
(0.732927 0.268886 2.86383e-20)
(0.765067 0.237717 -1.17073e-20)
(0.117218 0.233525 -1.66199e-20)
(0.263206 0.440749 4.783e-20)
(0.376858 0.485392 2.68964e-20)
(0.45819 0.457708 4.38206e-20)
(0.522733 0.409386 -1.01514e-20)
(0.578648 0.361656 4.07983e-21)
(0.628566 0.319232 3.27067e-20)
(0.673739 0.281833 7.25435e-21)
(0.715057 0.248418 6.98453e-22)
(0.749517 0.219407 -1.39584e-20)
(0.100585 0.216829 -3.78651e-20)
(0.232335 0.406848 -2.81322e-21)
(0.343191 0.446347 -1.5724e-20)
(0.426599 0.419846 -7.03474e-20)
(0.494697 0.374948 -6.7834e-20)
(0.554141 0.330881 1.13426e-20)
(0.607185 0.291786 -2.78104e-20)
(0.655034 0.257364 1.76674e-20)
(0.698524 0.22669 9.59785e-21)
(0.735202 0.19999 2.01259e-20)
(0.0850098 0.198151 5.5342e-20)
(0.203715 0.369849 -4.52373e-20)
(0.312165 0.404345 -2.29003e-20)
(0.397597 0.379464 4.06604e-20)
(0.469013 0.338383 4.60823e-20)
(0.531716 0.298291 -1.52063e-20)
(0.587638 0.262781 -1.93569e-21)
(0.637943 0.231555 -5.5055e-20)
(0.68343 0.203792 -3.11182e-20)
(0.722195 0.179555 1.18384e-20)
(0.0706936 0.177645 -3.14403e-20)
(0.177636 0.330011 1.32532e-20)
(0.284044 0.359642 4.85447e-20)
(0.3714 0.336779 -2.16529e-20)
(0.445858 0.299878 1.66072e-21)
(0.511523 0.264044 6.12763e-20)
(0.570053 0.232354 2.8517e-21)
(0.622577 0.204521 5.26247e-20)
(0.669871 0.179824 2.19283e-20)
(0.710563 0.158199 -3.48318e-20)
(0.0578202 0.155481 4.33137e-20)
(0.154361 0.287617 4.74846e-21)
(0.259066 0.312512 3.12148e-21)
(0.348203 0.292029 4.41596e-20)
(0.425394 0.259629 -5.92221e-21)
(0.493698 0.228308 -3.84144e-20)
(0.554547 0.20065 1.8783e-20)
(0.609037 0.176387 -2.99857e-20)
(0.657936 0.154895 -1.25525e-20)
(0.700368 0.136023 1.2658e-20)
(0.0465541 0.131847 -2.70264e-20)
(0.134125 0.242968 -5.17836e-20)
(0.237441 0.263246 1.19153e-20)
(0.328179 0.245461 -2.33364e-20)
(0.407762 0.217848 -1.412e-20)
(0.478362 0.191264 3.41013e-20)
(0.541223 0.167823 -8.25195e-21)
(0.597415 0.147287 7.6413e-21)
(0.647704 0.129125 -9.26373e-21)
(0.691666 0.113136 1.83486e-20)
(0.0370388 0.106947 9.72192e-21)
(0.11713 0.196383 3.48069e-20)
(0.219353 0.212152 -4.82466e-20)
(0.311478 0.19734 2.28143e-20)
(0.393088 0.174756 -1.03819e-20)
(0.46562 0.153101 -2.91841e-20)
(0.530171 0.134039 2.37791e-20)
(0.587789 0.117362 4.99789e-21)
(0.639244 0.102637 -7.72996e-22)
(0.684504 0.0896483 -2.13277e-20)
(0.0293962 0.0809939 3.16367e-21)
(0.103548 0.148199 1.11548e-20)
(0.204956 0.15955 4.35756e-20)
(0.298227 0.147938 -8.33208e-21)
(0.381476 0.130585 -6.56155e-21)
(0.455563 0.114019 2.43838e-21)
(0.52147 0.0994667 1.03986e-21)
(0.580228 0.0867604 8.86389e-21)
(0.632617 0.0755635 -1.1627e-20)
(0.678924 0.0656777 -7.39486e-21)
(0.0237248 0.0542153 -7.93178e-21)
(0.0935166 0.0987607 -1.35811e-20)
(0.194375 0.105769 -3.37822e-20)
(0.288529 0.0975383 1.6986e-20)
(0.373012 0.0855753 1.3857e-20)
(0.448261 0.0742227 5.87494e-22)
(0.51518 0.0642846 -2.31215e-20)
(0.574787 0.0556352 -1.02422e-20)
(0.627871 0.0480365 8.13752e-21)
(0.674962 0.0413286 8.6902e-21)
(0.0200995 0.0268446 1.37073e-21)
(0.0871417 0.048427 -2.82489e-21)
(0.187703 0.0511487 6.42276e-21)
(0.282462 0.04643 -4.34936e-21)
(0.367759 0.0399711 -3.80997e-21)
(0.44377 0.0339224 -2.5858e-21)
(0.511348 0.0286739 4.74799e-21)
(0.571507 0.0241429 1.80732e-20)
(0.625039 0.0201876 2.62293e-21)
(0.672629 0.0166816 -4.6446e-21)
(0.280077 -0.00509212 -3.66577e-21)
(0.365761 -0.00597693 3.48856e-21)
(0.442126 -0.00666647 1.57334e-21)
(0.510006 -0.00717867 -1.56773e-21)
(0.570412 -0.00755001 -7.13011e-21)
(0.624128 -0.00781882 2.34588e-21)
(0.671875 -0.00802666 -2.19328e-21)
(1.27055 0.236589 -1.42263e-22)
(1.27942 0.22715 -1.41097e-21)
(1.2876 0.217498 -2.82213e-22)
(1.29506 0.207657 -8.85562e-22)
(1.30176 0.197649 4.93208e-21)
(1.30765 0.18748 -4.67059e-21)
(1.31262 0.177146 2.97167e-21)
(1.3165 0.166621 1.20889e-20)
(1.25747 0.225224 -3.28872e-23)
(1.2661 0.216922 1.20727e-21)
(1.27416 0.208433 1.05583e-21)
(1.28166 0.199776 -5.18103e-21)
(1.28856 0.190964 1.69898e-21)
(1.29484 0.182007 -1.05005e-21)
(1.30044 0.172908 2.92941e-21)
(1.30527 0.163661 -5.70112e-21)
(1.24504 0.213776 3.77953e-22)
(1.25311 0.206467 8.61622e-22)
(1.26077 0.199012 5.0081e-22)
(1.26802 0.191425 2.53995e-21)
(1.27484 0.18372 3.36221e-21)
(1.28121 0.175907 4.90098e-21)
(1.28711 0.167991 -1.36972e-22)
(1.29249 0.159975 9.3089e-22)
(1.23383 0.202639 -1.24299e-22)
(1.24125 0.196196 -1.47215e-21)
(1.24837 0.189647 -1.3615e-21)
(1.25517 0.183006 9.98675e-22)
(1.26168 0.176283 -3.78966e-21)
(1.26788 0.169487 -8.82217e-21)
(1.27376 0.162623 3.89318e-21)
(1.27931 0.155696 4.70475e-22)
(1.2238 0.191934 1.60461e-23)
(1.23061 0.186256 7.26214e-22)
(1.23718 0.180493 1.84115e-21)
(1.2435 0.174656 6.92895e-22)
(1.24958 0.168757 -1.43458e-22)
(1.25544 0.162804 2.14786e-21)
(1.26108 0.156802 1.6158e-21)
(1.26649 0.150755 -1.85836e-21)
(1.21458 0.181639 9.27272e-25)
(1.22088 0.176626 7.58044e-22)
(1.22696 0.171541 -1.31522e-21)
(1.23283 0.166395 -1.01554e-21)
(1.23851 0.161198 6.4839e-22)
(1.24399 0.155955 1.41604e-21)
(1.2493 0.150672 -2.50306e-21)
(1.25443 0.145351 -1.18249e-21)
(1.20599 0.171636 7.1668e-23)
(1.21183 0.167215 -7.88103e-22)
(1.21748 0.162735 1.17561e-21)
(1.22296 0.158203 7.40366e-22)
(1.22827 0.153627 1.45624e-21)
(1.23341 0.149013 -6.11352e-22)
(1.2384 0.144366 -4.01919e-21)
(1.24324 0.139689 2.68606e-21)
(1.1979 0.161919 -1.70048e-22)
(1.20332 0.158023 -3.43163e-22)
(1.20859 0.154078 -3.85357e-22)
(1.21371 0.150092 -4.47496e-22)
(1.21869 0.14607 2.48277e-22)
(1.22353 0.142018 1.62902e-21)
(1.22825 0.137941 4.39781e-21)
(1.23283 0.133843 9.1016e-22)
(1.19023 0.152456 8.10255e-23)
(1.19527 0.149027 -1.84988e-23)
(1.20018 0.14556 -1.53209e-22)
(1.20498 0.142058 -7.27072e-22)
(1.20966 0.138528 -1.2866e-21)
(1.21423 0.134974 -1.70706e-21)
(1.21869 0.131401 -1.14715e-21)
(1.22305 0.127812 -1.65485e-21)
(1.18294 0.143247 4.99322e-23)
(1.18762 0.140227 6.13776e-22)
(1.1922 0.137177 5.25395e-23)
(1.19669 0.1341 5.23354e-22)
(1.20109 0.131001 3.3822e-23)
(1.2054 0.127884 -2.37394e-21)
(1.20962 0.124751 -1.60167e-22)
(1.21376 0.121607 1.39339e-21)
(1.17596 0.134302 -1.21202e-22)
(1.18031 0.131638 1.54661e-22)
(1.18458 0.128951 -1.71679e-22)
(1.18878 0.126244 -3.40685e-22)
(1.19291 0.123519 -4.97661e-22)
(1.19697 0.12078 1.59709e-21)
(1.20097 0.118031 7.62231e-22)
(1.2049 0.115274 -1.30205e-21)
(1.16926 0.125591 3.86267e-23)
(1.1733 0.123241 -5.07303e-22)
(1.17728 0.120872 2.76982e-22)
(1.18121 0.118487 2.00117e-23)
(1.18508 0.116088 5.46038e-22)
(1.1889 0.11368 -5.63375e-22)
(1.19267 0.111264 7.48012e-22)
(1.1964 0.108843 1.0109e-21)
(1.1628 0.117111 2.37822e-23)
(1.16655 0.115035 2.05664e-22)
(1.17026 0.112943 -4.89535e-22)
(1.17393 0.110838 -8.75743e-23)
(1.17756 0.108723 -5.57667e-22)
(1.18115 0.106601 6.21438e-22)
(1.1847 0.104473 -2.36294e-21)
(1.18822 0.102341 -1.42808e-21)
(1.15655 0.108874 -5.76641e-23)
(1.16004 0.107035 6.41913e-23)
(1.16349 0.105183 3.97085e-22)
(1.16692 0.103321 -2.16844e-22)
(1.17031 0.101451 9.0111e-22)
(1.17368 0.0995743 -3.18458e-22)
(1.17701 0.0976932 4.67497e-22)
(1.18033 0.0958097 8.11097e-22)
(1.1505 0.100852 5.53577e-23)
(1.15374 0.0992226 -2.12643e-23)
(1.15695 0.0975828 -3.15226e-22)
(1.16014 0.0959338 7.33808e-22)
(1.16331 0.0942771 -4.31036e-22)
(1.16646 0.0926144 3.74886e-22)
(1.16959 0.0909475 3.8868e-22)
(1.1727 0.089278 1.59312e-22)
(1.14464 0.0930413 2.84784e-23)
(1.14765 0.0915973 5.10945e-23)
(1.15063 0.0901433 1.48361e-22)
(1.1536 0.0886807 -5.2979e-22)
(1.15655 0.0872108 -3.48363e-22)
(1.15949 0.0857348 6.92333e-23)
(1.16241 0.0842541 -3.45127e-22)
(1.16532 0.08277 3.83879e-22)
(1.16823 0.0812837 -1.55304e-21)
(1.13896 0.0854708 -4.21679e-23)
(1.14174 0.0841877 -1.24069e-23)
(1.14451 0.082895 -1.0271e-24)
(1.14726 0.081594 3.71084e-22)
(1.15001 0.0802857 2.51182e-22)
(1.15274 0.0789711 -1.58791e-22)
(1.15547 0.077651 -3.13225e-22)
(1.15818 0.0763266 5.65392e-23)
(1.16089 0.0749989 2.37471e-22)
(1.13345 0.0781114 2.88534e-23)
(1.13602 0.0769707 -5.37967e-24)
(1.13858 0.075821 1.16443e-22)
(1.14114 0.0746631 -1.21977e-22)
(1.14368 0.0734977 -2.65644e-23)
(1.14622 0.0723254 3.36968e-22)
(1.14875 0.0711469 1.41346e-22)
(1.15128 0.069963 -4.54299e-22)
(1.1538 0.0687744 -1.93952e-22)
(1.12811 0.0709695 -2.88183e-23)
(1.13049 0.0699563 -3.659e-23)
(1.13286 0.0689341 -2.64935e-23)
(1.13522 0.0679036 -1.8898e-23)
(1.13757 0.0668651 -2.02056e-22)
(1.13992 0.0658191 2.22474e-22)
(1.14227 0.0647662 -1.567e-22)
(1.14461 0.0637066 -3.65924e-22)
(1.14694 0.0626409 5.41978e-22)
(1.12295 0.0640405 -1.29966e-23)
(1.12515 0.0631418 3.58805e-23)
(1.12734 0.0622343 -1.27762e-23)
(1.12952 0.0613183 -4.67779e-23)
(1.1317 0.060394 5.46195e-23)
(1.13387 0.0594617 -1.45091e-22)
(1.13603 0.0585216 2.56969e-22)
(1.13819 0.057574 2.4085e-22)
(1.14035 0.056619 -3.44829e-23)
(1.118 0.0573185 1.81432e-23)
(1.12003 0.0565243 -2.11519e-23)
(1.12205 0.0557214 -1.22778e-23)
(1.12406 0.0549098 -5.24915e-23)
(1.12607 0.0540898 1.97038e-23)
(1.12807 0.0532613 5.399e-23)
(1.13007 0.0524245 -2.55924e-23)
(1.13205 0.0515793 -2.78093e-22)
(1.13403 0.0507258 1.94724e-22)
(1.11328 0.0507935 7.74246e-25)
(1.11515 0.0500959 -1.69146e-23)
(1.11701 0.0493897 -2.57325e-23)
(1.11887 0.048675 1.6911e-23)
(1.12072 0.0479517 7.4892e-23)
(1.12256 0.0472198 -7.75039e-23)
(1.1244 0.0464791 -1.67333e-22)
(1.12622 0.0457297 1.96417e-22)
(1.12803 0.0449713 -3.00746e-22)
(1.10882 0.0444609 -1.29392e-24)
(1.11055 0.0438527 -3.89345e-24)
(1.11227 0.0432366 2.68219e-23)
(1.11398 0.0426123 -6.14037e-24)
(1.11569 0.0419797 -6.33641e-23)
(1.11738 0.0413386 9.09383e-23)
(1.11906 0.0406888 -1.16798e-22)
(1.12073 0.04003 -7.28095e-23)
(1.12239 0.039362 2.36694e-22)
(1.10466 0.0382949 -3.97177e-24)
(1.10627 0.0377725 1.14534e-23)
(1.10786 0.0372427 1.4351e-23)
(1.10944 0.0367052 -1.61076e-23)
(1.11101 0.0361598 -1.18469e-24)
(1.11257 0.0356061 -7.8178e-23)
(1.11411 0.0350439 -7.62832e-24)
(1.11564 0.034473 9.37723e-23)
(1.11716 0.0338929 -1.54194e-22)
(1.10087 0.0322733 3.51535e-25)
(1.10236 0.0318344 7.86751e-25)
(1.10384 0.0313884 7.25526e-25)
(1.1053 0.0309354 1.19811e-23)
(1.10675 0.0304749 6.26043e-23)
(1.10819 0.0300068 -4.76156e-23)
(1.10961 0.0295307 3.16642e-23)
(1.11101 0.0290463 2.23586e-24)
(1.1124 0.0285532 -9.05549e-23)
(1.09751 0.0263764 1.18838e-24)
(1.0989 0.0260176 -2.9847e-24)
(1.10027 0.0256528 1.93805e-24)
(1.10163 0.0252818 -1.53097e-23)
(1.10298 0.0249043 3.48515e-24)
(1.1043 0.02452 1.57386e-23)
(1.10562 0.0241286 3.99508e-23)
(1.10691 0.0237297 1.26769e-23)
(1.10818 0.023323 -5.74345e-24)
(1.09463 0.020561 -6.00463e-26)
(1.09593 0.0202817 -2.08947e-26)
(1.09722 0.0199975 -2.86821e-24)
(1.09849 0.0197082 8.76629e-24)
(1.09975 0.0194136 -1.87932e-23)
(1.10099 0.0191132 1.6849e-23)
(1.10221 0.018807 1.45917e-23)
(1.10341 0.0184943 -4.47938e-23)
(1.10459 0.0181751 -3.54844e-23)
(1.09232 0.0147673 -1.8273e-25)
(1.09356 0.0145668 4.13514e-25)
(1.09478 0.0143628 1.21983e-26)
(1.09598 0.0141549 -7.50097e-24)
(1.09717 0.0139431 8.2259e-24)
(1.09833 0.013727 1.84172e-26)
(1.09948 0.0135065 9.43461e-24)
(1.1006 0.0132812 -4.34719e-23)
(1.10171 0.0130508 7.20645e-23)
(1.09067 0.00896309 4.33358e-27)
(1.09186 0.00884255 -1.81975e-25)
(1.09303 0.00871963 2.33787e-25)
(1.09418 0.00859419 -1.29686e-24)
(1.09532 0.00846606 4.3266e-24)
(1.09643 0.00833507 -8.40673e-24)
(1.09752 0.00820103 1.36434e-23)
(1.09859 0.00806375 -3.44592e-24)
(1.09964 0.00792304 -1.54113e-23)
(1.08979 0.00298328 -1.04511e-25)
(1.09095 0.00294618 1.71602e-24)
(1.09209 0.00290863 -2.40701e-24)
(1.09321 0.00287049 2.38753e-24)
(1.09431 0.00283161 1.12361e-24)
(1.09539 0.00279185 6.97537e-24)
(1.09645 0.00275105 -4.31185e-24)
(1.09749 0.00270907 -1.47897e-24)
(1.09851 0.00266575 -5.88273e-24)
(0.968176 0.322144 2.03314e-21)
(0.987545 0.322101 -1.50145e-21)
(1.00531 0.322908 4.48067e-21)
(1.02301 0.323526 -9.13113e-22)
(1.0413 0.323562 3.8462e-23)
(1.0595 0.323042 -3.54306e-23)
(1.07725 0.321912 -7.63213e-23)
(1.09458 0.320074 -4.48821e-22)
(1.11153 0.317489 1.20008e-22)
(1.12802 0.314168 -2.85088e-21)
(1.14403 0.310131 -2.17497e-21)
(1.15949 0.30541 2.19703e-21)
(1.17446 0.300019 -5.0102e-21)
(1.18877 0.293961 -1.34683e-21)
(1.2026 0.287051 2.52989e-21)
(1.21588 0.279543 -3.36229e-21)
(1.22829 0.271619 5.70676e-22)
(1.23987 0.263335 2.38986e-22)
(1.25076 0.254713 1.2699e-21)
(1.26099 0.245787 2.11149e-22)
(0.981675 0.306488 -3.29597e-21)
(1.00076 0.306263 2.31324e-21)
(1.01822 0.306809 -5.37926e-21)
(1.03401 0.307279 -4.10479e-21)
(1.05011 0.307038 -3.81928e-22)
(1.06635 0.306102 2.24364e-22)
(1.08218 0.304559 -2.61275e-23)
(1.09757 0.302377 1.19784e-21)
(1.11263 0.299531 -2.10465e-21)
(1.12733 0.296047 1.74726e-21)
(1.14164 0.291968 -4.42327e-22)
(1.1555 0.287319 -2.4059e-21)
(1.16891 0.282119 1.96289e-21)
(1.18169 0.276343 -1.34603e-21)
(1.19399 0.270034 3.5851e-22)
(1.20604 0.263283 -8.36995e-22)
(1.2175 0.256195 3.50372e-21)
(1.22832 0.248826 -6.83822e-22)
(1.23857 0.241196 -1.06951e-21)
(1.24829 0.233322 1.08698e-23)
(0.995528 0.289454 -1.68408e-21)
(1.01335 0.289732 -3.37126e-21)
(1.03025 0.290025 1.3612e-21)
(1.04471 0.290105 3.06508e-21)
(1.05897 0.289516 -6.06175e-22)
(1.07356 0.28821 2.98453e-23)
(1.08788 0.286334 1.04424e-22)
(1.10172 0.283936 1.05207e-21)
(1.11517 0.280997 2.83254e-21)
(1.12829 0.277528 -1.59498e-22)
(1.14103 0.273568 3.00476e-21)
(1.15333 0.269136 -4.5469e-22)
(1.16519 0.264284 -4.87729e-22)
(1.1765 0.259 1.93037e-22)
(1.18746 0.253477 -3.15998e-21)
(1.19827 0.247497 -2.00599e-21)
(1.20859 0.241174 -1.49695e-21)
(1.21836 0.234623 -3.77382e-22)
(1.22766 0.22787 -8.21201e-22)
(1.23655 0.220917 -3.95661e-22)
(1.00859 0.273865 -2.98754e-21)
(1.02487 0.274155 4.36826e-21)
(1.04072 0.274032 -1.6777e-21)
(1.05396 0.27359 8.8252e-23)
(1.0666 0.272633 -2.68179e-22)
(1.0796 0.271068 3.27245e-22)
(1.09251 0.268996 -1.37395e-22)
(1.10498 0.266498 -1.82202e-21)
(1.11704 0.263573 -8.56269e-22)
(1.12878 0.260216 2.78034e-21)
(1.1402 0.256456 -1.58595e-21)
(1.15125 0.25232 2.79556e-21)
(1.1619 0.247858 -2.00055e-22)
(1.1722 0.243078 -1.78569e-21)
(1.18196 0.238097 4.81995e-21)
(1.19136 0.232718 2.07573e-21)
(1.2006 0.227033 -5.85348e-22)
(1.2095 0.221158 8.03397e-22)
(1.21797 0.215133 1.29498e-21)
(1.22607 0.208957 1.50342e-22)
(1.0206 0.258873 5.04499e-21)
(1.03531 0.258863 -3.19514e-21)
(1.04987 0.258312 1.1171e-21)
(1.06197 0.257425 -6.61202e-22)
(1.07323 0.256169 3.21473e-22)
(1.08477 0.254447 -1.47038e-22)
(1.09636 0.252293 -1.18429e-22)
(1.10757 0.249781 9.39506e-22)
(1.11838 0.246931 -1.85908e-21)
(1.12889 0.243738 -3.25973e-21)
(1.13911 0.240214 -6.14337e-23)
(1.14902 0.236385 -1.13466e-21)
(1.15859 0.232271 6.32266e-22)
(1.16782 0.227896 -6.65848e-22)
(1.17664 0.223246 -1.4191e-21)
(1.18516 0.218443 5.86589e-23)
(1.19352 0.213459 -3.94119e-22)
(1.20159 0.208291 -1.3814e-21)
(1.20932 0.202968 -5.00599e-22)
(1.2167 0.19751 -5.90278e-23)
(1.03151 0.244058 6.30587e-23)
(1.04467 0.243744 2.40811e-21)
(1.05785 0.24289 7.02336e-22)
(1.06883 0.24171 1.1837e-21)
(1.07889 0.24026 -9.9076e-24)
(1.08912 0.238461 5.14776e-23)
(1.09946 0.236303 3.27213e-22)
(1.10952 0.23384 5.24287e-22)
(1.11921 0.231101 1.56378e-21)
(1.12861 0.228091 1.04461e-21)
(1.13776 0.224816 8.15967e-22)
(1.14665 0.221293 -6.09012e-23)
(1.15524 0.217542 3.21938e-22)
(1.16356 0.213587 1.41405e-21)
(1.17154 0.209437 -1.14808e-21)
(1.17929 0.205138 -3.45097e-22)
(1.18688 0.20071 9.21303e-22)
(1.19422 0.196127 1.035e-21)
(1.20128 0.191405 -7.40399e-22)
(1.20805 0.18657 2.91206e-23)
(1.04126 0.229472 -2.46685e-21)
(1.05296 0.228921 -1.91129e-21)
(1.06473 0.227876 3.56068e-22)
(1.07463 0.226522 3.96953e-22)
(1.08362 0.224956 -5.79926e-22)
(1.09269 0.223131 -2.9833e-22)
(1.10189 0.221016 2.38273e-22)
(1.1109 0.218642 -1.48658e-21)
(1.11958 0.216043 -5.51779e-22)
(1.12799 0.213229 -9.79002e-23)
(1.13618 0.210206 2.1726e-22)
(1.14416 0.206987 -5.23703e-22)
(1.15189 0.203589 -8.91959e-22)
(1.15938 0.200035 1.82205e-21)
(1.1666 0.196333 4.04039e-22)
(1.17365 0.192525 -7.86756e-22)
(1.18058 0.18856 -7.34904e-22)
(1.18728 0.184465 3.1061e-22)
(1.19373 0.18027 7.73635e-22)
(1.19997 0.17599 -1.02289e-22)
(1.04982 0.215243 2.48066e-21)
(1.06018 0.214511 2.63034e-22)