/*--------------------------------*- C++ -*----------------------------------*\
  =========                 |
  \\      /  F ield         | OpenFOAM: The Open Source CFD Toolbox
   \\    /   O peration     | Website:  https://openfoam.org
    \\  /    A nd           | Version:  7
     \\/     M anipulation  |
\*---------------------------------------------------------------------------*/
FoamFile
{
    version     2.0;
    format      ascii;
    class       volVectorField;
    location    "60";
    object      U;
}
// * * * * * * * * * * * * * * * * * * * * * * * * * * * * * * * * * * * * * //

dimensions      [0 1 -1 0 0 0 0];

internalField   nonuniform List<vector> 
2125
(
(0.0181083 0.0134228 1.78181e-21)
(0.0820505 0.0247615 -4.91518e-21)
(0.179783 0.0269563 -5.58426e-21)
(0.0181076 -0.0133918 -1.78182e-21)
(0.0820493 -0.0247027 4.91522e-21)
(0.179781 -0.0268895 5.5843e-21)
(0.272668 -0.0252295 -5.36278e-21)
(0.356646 -0.0225629 4.7401e-21)
(0.431685 -0.0199828 2.38748e-21)
(0.498581 -0.0177037 -3.83679e-21)
(0.558321 -0.0157061 -4.48871e-21)
(0.611682 -0.0139397 6.69633e-22)
(0.659363 -0.012367 -1.89651e-21)
(0.0201446 -0.0400845 1.9545e-21)
(0.0856733 -0.0739826 -5.85452e-21)
(0.183642 -0.0805619 1.31676e-20)
(0.276242 -0.0756066 -1.1593e-20)
(0.359799 -0.0676253 -5.44633e-22)
(0.434437 -0.0598984 -7.7786e-21)
(0.500983 -0.0530716 1.27234e-20)
(0.560429 -0.0470867 1.74284e-20)
(0.61355 -0.0417935 3.14459e-21)
(0.660953 -0.0370832 -6.80539e-21)
(0.0241936 -0.0664128 -1.68762e-21)
(0.0928868 -0.122711 -1.24207e-20)
(0.191332 -0.133715 -2.89072e-20)
(0.283364 -0.125543 2.5112e-20)
(0.366085 -0.112316 5.22211e-21)
(0.439925 -0.0994962 4.63217e-21)
(0.505773 -0.0881665 -2.29013e-20)
(0.564631 -0.0782315 -1.3573e-20)
(0.617274 -0.0694417 -3.04664e-21)
(0.664126 -0.0616295 2.10295e-20)
(0.0302039 -0.0921378 -5.95391e-21)
(0.103619 -0.170526 7.45954e-21)
(0.202788 -0.186008 5.25287e-20)
(0.293983 -0.174748 -4.70943e-21)
(0.37546 -0.156389 -1.35669e-20)
(0.448111 -0.138567 9.81191e-21)
(0.512918 -0.122809 6.56135e-22)
(0.570901 -0.108985 3.50913e-21)
(0.622829 -0.096749 -7.70801e-21)
(0.668865 -0.0858932 -2.05545e-20)
(0.0380999 -0.117027 -4.03457e-21)
(0.117765 -0.217071 2.19749e-20)
(0.217916 -0.237103 -5.29945e-20)
(0.308022 -0.222936 2.30638e-20)
(0.387861 -0.199605 2.06147e-22)
(0.458942 -0.176905 -2.94847e-20)
(0.522373 -0.156822 1.30753e-20)
(0.579196 -0.139196 -1.24039e-21)
(0.630178 -0.123582 5.0044e-21)
(0.675145 -0.109762 -1.54431e-21)
(0.0477818 -0.140855 -4.63467e-20)
(0.135184 -0.262001 -5.54147e-20)
(0.23659 -0.286675 1.44827e-20)
(0.325376 -0.26983 -2.64204e-20)
(0.403202 -0.241729 -7.55116e-21)
(0.472344 -0.21431 1.12109e-20)
(0.534074 -0.190035 4.17773e-21)
(0.589461 -0.168716 1.57666e-20)
(0.639274 -0.149813 -3.39893e-21)
(0.682934 -0.133126 1.84834e-20)
(0.0591266 -0.16341 4.43576e-20)
(0.155703 -0.304982 2.85205e-20)
(0.258655 -0.334405 -2.17462e-20)
(0.345919 -0.315161 3.66869e-20)
(0.421378 -0.282535 -3.24087e-21)
(0.488229 -0.250591 -3.99912e-20)
(0.547947 -0.222281 7.03721e-21)
(0.601629 -0.197401 -4.29607e-20)
(0.650057 -0.175315 1.57494e-21)
(0.69219 -0.155877 1.57968e-20)
(0.071989 -0.184489 -3.33533e-20)
(0.179116 -0.345699 5.97182e-20)
(0.283926 -0.379992 2.34217e-20)
(0.3695 -0.358669 -2.88267e-20)
(0.442264 -0.321807 1.30243e-22)
(0.506491 -0.285561 7.38486e-20)
(0.5639 -0.253404 3.47051e-21)
(0.615622 -0.225118 3.31556e-20)
(0.662456 -0.199971 4.06213e-20)
(0.702866 -0.177908 -2.29153e-20)
(0.0862028 -0.203908 1.86966e-20)
(0.205188 -0.383851 -8.94276e-21)
(0.312189 -0.423146 -2.12861e-20)
(0.395943 -0.400111 1.6328e-20)
(0.465718 -0.359338 6.20722e-20)
(0.52701 -0.319047 -2.1766e-20)
(0.581829 -0.283252 -3.51242e-21)
(0.631348 -0.251737 -4.8123e-20)
(0.676395 -0.223667 -5.99108e-20)
(0.714906 -0.199118 2.63064e-20)
(0.101582 -0.221498 -2.53046e-20)
(0.23365 -0.41916 -2.22981e-20)
(0.343204 -0.463598 3.67523e-21)
(0.425053 -0.439256 -8.54691e-20)
(0.491578 -0.394937 -3.62664e-20)
(0.549648 -0.350885 -2.66002e-20)
(0.60162 -0.311687 -3.52662e-20)
(0.648707 -0.277138 1.62107e-20)
(0.691784 -0.2463 1.96819e-20)
(0.72825 -0.219409 2.98703e-20)
(0.117925 -0.23711 4.83839e-21)
(0.264211 -0.45137 3.2441e-20)
(0.376705 -0.501095 2.37309e-20)
(0.456612 -0.475889 3.99577e-20)
(0.519665 -0.428425 3.14444e-20)
(0.574258 -0.380925 -3.02583e-20)
(0.623143 -0.338578 2.83249e-20)
(0.667588 -0.301214 1.94855e-20)
(0.708529 -0.267775 -2.32327e-21)
(0.742829 -0.23869 -8.77616e-21)
(0.135011 -0.250616 5.83073e-20)
(0.296548 -0.480253 -2.86076e-20)
(0.4124 -0.535409 -2.17984e-20)
(0.490383 -0.509814 -1.3053e-20)
(0.549788 -0.459638 2.41852e-20)
(0.600677 -0.409028 2.16443e-20)
(0.646262 -0.363811 -3.04185e-20)
(0.687872 -0.323864 2.36003e-20)
(0.726527 -0.288007 1.14157e-21)
(0.758573 -0.256877 2.24048e-20)
(0.152609 -0.261911 -4.20333e-20)
(0.330318 -0.505606 -1.60602e-20)
(0.449977 -0.566332 -2.02515e-21)
(0.52611 -0.540854 2.39017e-20)
(0.581739 -0.488432 -3.9807e-21)
(0.628731 -0.435073 -2.42751e-20)
(0.670828 -0.387279 6.81071e-21)
(0.709431 -0.345003 7.50275e-21)
(0.74567 -0.306924 1.76755e-20)
(0.775406 -0.273896 -3.44495e-20)
(0.170475 -0.270914 -1.90075e-20)
(0.365156 -0.527257 3.93111e-20)
(0.489099 -0.593684 3.07372e-20)
(0.563522 -0.568852 -1.4007e-20)
(0.615297 -0.514676 -3.08602e-20)
(0.658237 -0.458952 -2.35013e-20)
(0.696685 -0.408891 2.67102e-20)
(0.732129 -0.364555 -5.29977e-20)
(0.765843 -0.324468 1.40323e-20)
(0.793251 -0.289684 3.71857e-20)
(0.188358 -0.277569 3.52783e-20)
(0.400677 -0.545067 -2.12597e-20)
(0.529413 -0.617309 6.15539e-21)
(0.602329 -0.593674 -4.98313e-23)
(0.650231 -0.538263 -8.69315e-21)
(0.689003 -0.480574 3.87162e-20)
(0.723668 -0.428571 -3.42981e-20)
(0.75582 -0.382459 3.32563e-20)
(0.786924 -0.340596 -5.10457e-20)
(0.812035 -0.304196 -1.91561e-20)
(0.206 -0.281848 -2.58544e-21)
(0.43648 -0.558928 -2.81821e-20)
(0.570545 -0.63708 3.8931e-21)
(0.642229 -0.615207 -8.33293e-21)
(0.686298 -0.5591 -6.9462e-21)
(0.720829 -0.499866 1.27209e-21)
(0.751609 -0.446254 -2.37835e-20)
(0.780349 -0.39866 -1.52882e-21)
(0.808775 -0.355272 3.13497e-20)
(0.831688 -0.317402 -4.05617e-20)
(0.223141 -0.283751 1.21007e-20)
(0.472152 -0.568771 2.13699e-20)
(0.61211 -0.652897 -2.24398e-20)
(0.682907 -0.633362 -9.77754e-21)
(0.723248 -0.577118 6.4828e-20)
(0.753512 -0.516773 -5.35827e-20)
(0.780338 -0.461894 5.24708e-20)
(0.805555 -0.413128 5.03391e-22)
(0.831243 -0.36852 1.0765e-20)
(0.852161 -0.329365 3.73494e-20)
(0.239522 -0.283305 -3.65609e-21)
(0.507271 -0.574561 -2.8722e-21)
(0.653705 -0.664692 5.65591e-21)
(0.724038 -0.648073 3.0104e-21)
(0.760822 -0.592267 -1.3046e-21)
(0.786841 -0.531252 1.9835e-20)
(0.809689 -0.475449 -1.03029e-20)
(0.831276 -0.425791 1.287e-20)
(0.854116 -0.380203 -4.25137e-21)
(0.873427 -0.339951 -1.84118e-21)
(0.254887 -0.280568 5.59729e-21)
(0.541407 -0.576303 -3.77117e-21)
(0.694918 -0.672427 1.1279e-21)
(0.765287 -0.659302 1.59965e-21)
(0.798757 -0.604517 -1.7127e-20)
(0.8206 -0.543288 4.62073e-20)
(0.839491 -0.486916 -3.6016e-20)
(0.857351 -0.436714 2.66584e-20)
(0.877063 -0.390688 -2.26564e-20)
(0.895399 -0.350207 -2.73853e-20)
(0.268985 -0.275625 -2.43237e-21)
(0.574128 -0.574038 -3.55237e-21)
(0.735328 -0.676092 6.31815e-21)
(0.80631 -0.667034 3.11242e-21)
(0.836787 -0.613859 -6.03091e-21)
(0.85457 -0.552873 -3.77197e-20)
(0.869595 -0.496256 9.58562e-21)
(0.883767 -0.445684 -6.45216e-21)
(0.899898 -0.39903 2.46585e-20)
(0.918558 -0.357091 -8.6254e-21)
(0.281587 -0.268597 -4.61949e-21)
(0.604999 -0.567844 -4.29102e-21)
(0.774508 -0.675715 2.45159e-21)
(0.84676 -0.671281 -2.86642e-21)
(0.874644 -0.620304 7.79769e-21)
(0.888529 -0.560029 5.24113e-21)
(0.899798 -0.503525 1.56898e-20)
(0.91049 -0.452974 -2.08555e-20)
(0.922227 -0.407346 -2.21642e-20)
(0.939359 -0.369163 1.19296e-20)
(0.292502 -0.259638 -5.18522e-21)
(0.633579 -0.557831 7.6717e-21)
(0.812031 -0.671361 -2.89981e-21)
(0.886286 -0.672081 -1.8899e-21)
(0.912062 -0.623882 -7.49894e-22)
(0.92226 -0.564789 -6.09432e-21)
(0.929847 -0.508757 -1.49447e-20)
(0.937306 -0.458503 1.4714e-20)
(0.945103 -0.413772 -1.44517e-20)
(0.957879 -0.375636 -1.03982e-21)
(0.301521 -0.248858 -1.33164e-20)
(0.659433 -0.544126 -2.07486e-20)
(0.847482 -0.663161 1.43062e-20)
(0.924534 -0.669492 -1.61395e-22)
(0.948774 -0.624638 -4.03433e-21)
(0.955569 -0.567187 3.39048e-21)
(0.959559 -0.511958 -6.54827e-21)
(0.963951 -0.462158 -7.18365e-21)
(0.968535 -0.418127 3.05454e-20)
(0.976847 -0.380224 1.61728e-20)
(0.308418 -0.236398 1.03273e-20)
(0.682008 -0.526863 -5.92977e-21)
(0.880522 -0.651308 -1.36182e-20)
(0.961157 -0.663584 4.25364e-22)
(0.984516 -0.62264 -1.4631e-21)
(0.988274 -0.56728 5.4425e-21)
(0.988814 -0.513179 -1.33569e-21)
(0.990243 -0.464045 6.06315e-21)
(0.99218 -0.420787 -6.73884e-21)
(0.99697 -0.383569 1.84913e-21)
(0.313119 -0.222482 1.5668e-20)
(0.70099 -0.506491 3.89677e-20)
(0.910702 -0.63604 -2.1626e-21)
(0.995837 -0.65437 -1.90926e-21)
(1.01903 -0.617975 -2.36916e-21)
(1.02019 -0.565146 -3.0322e-21)
(1.0175 -0.512507 4.52343e-21)
(1.01607 -0.464303 1.75978e-21)
(1.01564 -0.421946 -1.01652e-20)
(1.01757 -0.385631 -7.36517e-21)
(0.315548 -0.207424 -1.21678e-20)
(0.71619 -0.483376 -6.20783e-21)
(0.93718 -0.617221 2.79743e-20)
(1.0283 -0.642054 3.58826e-22)
(1.05205 -0.610781 -9.59706e-21)
(1.05112 -0.56088 8.82942e-21)
(1.04549 -0.510036 1.72246e-21)
(1.04132 -0.463026 1.45648e-21)
(1.03866 -0.421676 3.7892e-21)
(1.03801 -0.386386 5.67052e-21)
(0.31562 -0.191483 3.02918e-20)
(0.7274 -0.457648 -6.18747e-21)
(0.959632 -0.595199 -1.92691e-20)
(1.05806 -0.626943 1.95365e-21)
(1.08334 -0.601069 9.35205e-21)
(1.08088 -0.554575 -1.98663e-21)
(1.07263 -0.505863 -2.22873e-21)
(1.0659 -0.460293 1.07877e-21)
(1.06113 -0.420048 -1.62049e-22)
(1.05806 -0.38589 -2.48466e-21)
(0.313274 -0.174915 -1.0667e-20)
(0.734292 -0.429665 -6.66099e-20)
(0.978024 -0.570374 5.48367e-21)
(1.08455 -0.609037 2.14501e-20)
(1.11256 -0.588993 -1.04934e-21)
(1.10926 -0.546358 -2.06532e-20)
(1.09879 -0.500093 9.7375e-21)
(1.08971 -0.456191 -1.58402e-21)
(1.08295 -0.417158 5.38689e-22)
(1.07765 -0.384241 -3.09147e-23)
(0.308504 -0.15798 -1.33946e-20)
(0.736568 -0.399813 2.32482e-20)
(0.991982 -0.542954 2.95124e-20)
(1.10752 -0.588533 -1.64696e-20)
(1.13943 -0.574741 3.70104e-21)
(1.13607 -0.536358 1.30058e-20)
(1.12383 -0.492844 6.17385e-21)
(1.11262 -0.45082 1.16157e-21)
(1.10405 -0.413108 -1.2193e-21)
(1.09671 -0.381535 -4.15857e-22)
(0.301362 -0.140932 -1.8311e-20)
(0.734024 -0.368491 -6.71096e-21)
(1.00109 -0.513206 -5.54269e-20)
(1.12671 -0.565666 -7.17775e-21)
(1.16371 -0.55847 1.58746e-21)
(1.16117 -0.524732 2.69976e-21)
(1.14759 -0.484219 -2.23935e-20)
(1.13455 -0.444283 -8.8657e-21)
(1.12434 -0.407997 2.97436e-22)
(1.11516 -0.377845 1.04832e-21)
(0.291943 -0.124026 -5.01869e-21)
(0.726542 -0.336118 2.15646e-20)
(1.00501 -0.481463 2.81832e-20)
(1.14176 -0.540666 1.56381e-20)
(1.1851 -0.540361 -2.97432e-21)
(1.18439 -0.511594 -2.87034e-21)
(1.17001 -0.474342 1.85556e-20)
(1.15537 -0.436701 1.59928e-20)
(1.14377 -0.401916 1.95653e-21)
(1.13293 -0.37326 -1.32283e-21)
(0.280389 -0.107509 4.81302e-20)
(0.714082 -0.303138 2.96015e-20)
(1.00346 -0.448086 -2.82112e-20)
(1.15231 -0.513759 -4.87852e-21)
(1.20331 -0.520559 2.43826e-21)
(1.20547 -0.497087 -7.24171e-21)
(1.19104 -0.463341 -1.15448e-20)
(1.17507 -0.428171 -3.13801e-22)
(1.16219 -0.394979 -9.39591e-21)
(1.15005 -0.367861 3.65692e-21)
(0.266885 -0.091618 6.0104e-21)
(0.696682 -0.27001 -1.62372e-20)
(0.996205 -0.413452 3.71713e-20)
(1.15801 -0.485186 2.11054e-20)
(1.21806 -0.499219 1.05444e-21)
(1.22421 -0.481346 1.03743e-20)
(1.21047 -0.451341 9.00208e-22)
(1.19364 -0.418797 -8.04554e-21)
(1.17958 -0.387286 5.47984e-21)
(1.16661 -0.361838 9.79102e-22)
(0.251657 -0.0765691 -4.00426e-20)
(0.674464 -0.237197 -1.15805e-20)
(0.98306 -0.377957 -9.81535e-21)
(1.15853 -0.455201 -1.4843e-20)
(1.22903 -0.476501 3.84533e-21)
(1.24043 -0.464499 -1.27821e-22)
(1.22817 -0.438466 7.36353e-21)
(1.21096 -0.40868 -2.17475e-21)
(1.19595 -0.37907 -6.77218e-21)
(1.18249 -0.355144 -4.73014e-21)
(0.234966 -0.0625528 3.21542e-21)
(0.647647 -0.205159 1.84953e-20)
(0.96391 -0.342013 8.52277e-21)
(1.15354 -0.424069 -2.39728e-20)
(1.23591 -0.452567 -3.19837e-22)
(1.25392 -0.446663 -8.47434e-21)
(1.24405 -0.424832 1.35975e-22)
(1.22697 -0.397942 2.5543e-21)
(1.21126 -0.370385 -2.78586e-21)
(1.19727 -0.347906 7.88344e-21)
(0.217104 -0.0497296 7.42189e-21)
(0.616551 -0.174343 -1.78959e-20)
(0.938711 -0.306042 -4.04033e-20)
(1.14274 -0.392065 3.48068e-20)
(1.23833 -0.427577 -2.17352e-21)
(1.26441 -0.427947 6.09366e-21)
(1.25796 -0.410541 -7.2667e-22)
(1.2416 -0.386677 4.78476e-21)
(1.22547 -0.361232 -4.37814e-22)
(1.21093 -0.340182 -6.15707e-21)
(0.198383 -0.0382255 -1.47902e-20)
(0.581602 -0.145171 2.28984e-20)
(0.907516 -0.270473 1.83687e-20)
(1.12584 -0.359473 -2.47657e-20)
(1.23593 -0.401688 -3.86371e-21)
(1.27163 -0.40845 1.29205e-21)
(1.26977 -0.395678 1.28165e-20)
(1.25479 -0.374964 3.66782e-22)
(1.23858 -0.351666 2.1947e-21)
(1.22363 -0.332038 -4.3027e-21)
(0.17913 -0.0281286 1.11858e-20)
(0.54332 -0.118026 -9.88793e-21)
(0.870482 -0.235738 -8.06797e-21)
(1.10261 -0.32659 1.33158e-20)
(1.22831 -0.375058 4.30201e-21)
(1.27524 -0.388256 3.11758e-21)
(1.27926 -0.380314 -1.35216e-20)
(1.26647 -0.362885 -4.56808e-21)
(1.2506 -0.341778 -3.70713e-21)
(1.23549 -0.323558 1.40874e-21)
(0.159673 -0.0194874 -5.312e-21)
(0.502318 -0.0932391 -1.06055e-22)
(0.827895 -0.202266 1.51913e-20)
(1.07286 -0.293719 -5.43826e-21)
(1.21507 -0.347842 -2.3523e-21)
(1.27485 -0.367436 -1.49344e-21)
(1.28622 -0.364504 3.43849e-21)
(1.27654 -0.350509 5.57996e-21)
(1.26151 -0.331663 -3.02657e-22)
(1.24651 -0.314827 1.95589e-21)
(0.140337 -0.0123098 3.70148e-21)
(0.459284 -0.0710814 -1.02641e-21)
(0.780182 -0.170477 -2.69185e-21)
(1.03649 -0.261181 -2.394e-21)
(1.19579 -0.320202 2.09505e-21)
(1.27003 -0.346053 1.59776e-21)
(1.29033 -0.348284 -1.44076e-21)
(1.28487 -0.337888 4.87119e-22)
(1.27126 -0.321397 6.84664e-22)
(1.25668 -0.305918 -8.85163e-22)
(0.121427 -0.00656496 1.87186e-21)
(0.414966 -0.0517502 5.46544e-22)
(0.727921 -0.140774 -3.21058e-21)
(0.993505 -0.229306 -2.59368e-21)
(1.17007 -0.292304 2.73508e-21)
(1.26029 -0.324157 5.51012e-22)
(1.29123 -0.331669 -1.26779e-21)
(1.29125 -0.32505 1.18302e-21)
(1.27979 -0.311037 6.67564e-22)
(1.26598 -0.296896 -7.7134e-22)
(0.103224 -0.00218638 -7.64369e-22)
(0.370141 -0.035361 1.4703e-21)
(0.671851 -0.113529 9.72382e-21)
(0.944053 -0.198439 -4.44631e-21)
(1.13752 -0.26433 -2.21916e-21)
(1.24507 -0.301792 -2.56405e-21)
(1.28846 -0.314652 5.34114e-21)
(1.29542 -0.311996 3.80806e-21)
(1.28698 -0.300617 2.9982e-21)
(1.27437 -0.287811 1.59738e-21)
(0.0859733 0.000923445 1.42792e-20)
(0.325593 -0.0219419 -7.82232e-21)
(0.612866 -0.0890723 -9.26391e-21)
(0.888451 -0.16894 1.28676e-20)
(1.09782 -0.236481 7.10804e-21)
(1.22375 -0.279006 -5.0667e-22)
(1.28146 -0.297209 -9.47966e-21)
(1.29703 -0.298701 -6.65231e-21)
(1.29267 -0.290148 -7.37306e-21)
(1.2818 -0.278705 4.68156e-21)
(0.0698795 0.00288688 -1.91259e-20)
(0.282072 -0.0114332 1.78275e-20)
(0.551992 -0.0676734 2.09479e-20)
(0.827237 -0.141181 -2.17935e-20)
(1.05076 -0.208985 -7.92119e-21)
(1.19571 -0.255853 5.52736e-21)
(1.26956 -0.279297 1.01626e-20)
(1.2956 -0.285111 1.82889e-21)
(1.29663 -0.279611 -5.25611e-22)
(1.28818 -0.2696 -6.84955e-21)
(0.0551011 0.00384446 -2.59548e-21)
(0.240266 -0.00369142 -2.47061e-20)
(0.490357 -0.0495217 -2.73003e-20)
(0.761191 -0.11554 3.27767e-20)
(0.996311 -0.182111 -3.91195e-21)
(1.16031 -0.232409 8.27988e-21)
(1.25198 -0.26087 1.83556e-21)
(1.29052 -0.271143 -4.64634e-21)
(1.2985 -0.268955 2.593e-21)
(1.29336 -0.260494 -1.11666e-21)
(0.0417487 0.00394783 5.33665e-21)
(0.200777 0.00149988 1.50657e-20)
(0.429132 -0.0347078 8.9363e-21)
(0.691361 -0.0923896 -7.12285e-21)
(0.934656 -0.156171 -1.25628e-20)
(1.11697 -0.208789 -1.27508e-20)
(1.22787 -0.24188 -2.84799e-21)
(1.28103 -0.256694 8.89731e-21)
(1.29781 -0.258094 -1.94185e-21)
(1.29709 -0.251354 4.14084e-21)
(0.0298852 0.00335299 -1.98091e-20)
(0.16409 0.00441484 -1.88039e-20)
(0.369467 -0.0232101 -3.24661e-21)
(0.619045 -0.0720739 -3.6887e-21)
(0.866306 -0.13153 -9.93258e-21)
(1.06527 -0.185158 6.7902e-21)
(1.19628 -0.222303 -9.95551e-22)
(1.26619 -0.241642 -7.57095e-21)
(1.29388 -0.246909 7.06966e-21)
(1.29903 -0.242114 -1.31846e-20)
(0.0195283 0.00221398 4.74296e-21)
(0.130568 0.00536706 1.61159e-20)
(0.312423 -0.0148903 1.50964e-20)
(0.545745 -0.054876 1.76993e-20)
(0.792152 -0.108603 -2.45136e-22)
(1.00501 -0.161753 2.04061e-20)
(1.15629 -0.20215 2.38913e-21)
(1.24492 -0.225859 -3.01658e-20)
(1.28586 -0.235247 2.34728e-20)
(1.29864 -0.232662 8.40735e-21)
(0.0106545 0.000677413 1.27674e-20)
(0.100445 0.00469042 2.90128e-20)
(0.258908 -0.00950317 -3.95316e-21)
(0.473073 -0.0409795 -2.26426e-20)
(0.713509 -0.0878403 1.11738e-20)
(0.936345 -0.138904 -1.33884e-20)
(1.10708 -0.181499 -2.21535e-20)
(1.21599 -0.209233 -4.44628e-21)
(1.27266 -0.222928 -2.25162e-20)
(0.0032055 -0.00112221 6.27309e-21)
(0.073831 0.00272091 5.25095e-21)
(0.20963 -0.00671871 4.09765e-20)
(0.402629 -0.0304322 9.28338e-21)
(0.632103 -0.0696923 -9.24093e-21)
(0.859952 -0.117041 -5.01381e-21)
(1.04805 -0.160521 3.78006e-20)
(1.17813 -0.191692 3.50957e-20)
(-0.00290534 -0.00306585 1.55129e-21)
(0.050722 -0.000219182 -3.03957e-20)
(0.16508 -0.0061525 -4.91001e-20)
(0.335865 -0.0231272 2.87784e-21)
(0.549975 -0.0545529 1.42219e-20)
(0.777097 -0.0966909 -2.10306e-20)
(0.979027 -0.139515 -6.14667e-20)
(-0.00778674 -0.00505259 -1.13935e-20)
(0.0310168 -0.00383355 3.05022e-20)
(0.125528 -0.00739783 3.07357e-20)
(0.27397 -0.0188123 -3.45173e-20)
(0.469303 -0.0426873 4.93108e-21)
(-0.0115625 -0.00700147 -2.72509e-20)
(0.0145349 -0.00786167 -4.74837e-20)
(0.0910409 -0.0100536 -1.02212e-20)
(0.217807 -0.0171237 1.9057e-20)
(-0.0143647 -0.00885118 2.05215e-20)
(0.00103663 -0.0120836 2.30505e-22)
(0.061516 -0.0137453 -4.96061e-21)
(-0.016328 -0.0105595 -6.82121e-21)
(-0.00975836 -0.0163219 -1.19148e-20)
(-0.0175852 -0.0121012 4.70978e-20)
(-0.0181535 -0.0204396 3.7193e-20)
(-0.0182621 -0.0134656 9.07253e-21)
(0.998635 -0.00344049 -1.79318e-22)
(0.998334 -0.00828096 8.10882e-22)
(0.991446 -0.0161834 4.00372e-22)
(0.987077 -0.0225682 1.87451e-22)
(0.976567 -0.0336777 3.89661e-22)
(0.969189 -0.0433853 -1.68382e-21)
(0.955675 -0.0598417 -2.29161e-21)
(0.946468 -0.0747761 7.49288e-22)
(0.931106 -0.0990107 2.39651e-21)
(0.92238 -0.120837 2.88569e-21)
(0.907582 -0.155569 5.04681e-21)
(0.90372 -0.184358 -1.10592e-21)
(0.893911 -0.232712 -7.39756e-21)
(0.901872 -0.263624 -2.0789e-21)
(0.907695 -0.335413 5.67507e-21)
(0.998683 -0.00328605 -1.0256e-21)
(0.99821 -0.00785952 3.8894e-22)
(0.991367 -0.0154275 -6.56117e-22)
(0.986689 -0.0214382 1.79702e-21)
(0.976138 -0.0320798 -1.61428e-21)
(0.968239 -0.0412164 1.93009e-22)
(0.954488 -0.0569946 2.41556e-21)
(0.944367 -0.0711048 -3.83988e-21)
(0.92838 -0.094455 1.74198e-21)
(0.918029 -0.115273 -6.42858e-21)
(0.90192 -0.14917 7.38642e-21)
(0.895218 -0.177214 -7.79721e-21)
(0.883096 -0.225484 -1.24016e-21)
(0.885729 -0.256894 9.48314e-21)
(0.886908 -0.328379 -2.18419e-21)
(0.998728 -0.00312805 1.36192e-21)
(0.998101 -0.00741278 9.55539e-22)
(0.991313 -0.0146293 1.16549e-21)
(0.986366 -0.0202502 -8.75534e-22)
(0.975793 -0.0303947 -9.13815e-22)
(0.967452 -0.0389444 3.41731e-21)
(0.953505 -0.0540012 -1.8826e-21)
(0.94262 -0.067263 5.281e-21)
(0.92608 -0.089635 -3.26877e-21)
(0.914357 -0.10937 -1.6111e-21)
(0.897054 -0.142145 -2.26901e-21)
(0.887862 -0.169186 1.90853e-21)
(0.873565 -0.21648 5.48511e-21)
(0.871747 -0.248226 -1.56302e-20)
(0.868666 -0.317747 1.78601e-20)
(0.998772 -0.00297054 1.95416e-22)
(0.998003 -0.00695334 -1.58413e-21)
(0.991272 -0.0138419 -2.97614e-21)
(0.986084 -0.0191009 5.23045e-22)
(0.9755 -0.0287628 -1.02484e-22)
(0.96677 -0.0367685 9.6656e-22)
(0.95265 -0.0511211 2.93445e-21)
(0.941093 -0.0635868 -1.9862e-21)
(0.924051 -0.0849686 2.56358e-21)
(0.911095 -0.103655 -5.17738e-21)
(0.892688 -0.13516 3.49385e-21)
(0.881183 -0.161161 2.38751e-21)
(0.864769 -0.206963 5.92183e-21)
(0.85886 -0.238705 -1.03243e-20)
(0.851592 -0.30619 8.30704e-23)
(0.998815 -0.00280823 -1.72263e-21)
(0.997912 -0.00652845 -4.13878e-22)
(0.991237 -0.0130492 -4.10899e-22)
(0.985831 -0.0179512 2.31014e-21)
(0.975243 -0.0271205 4.15931e-23)
(0.966161 -0.0345881 -3.63226e-22)
(0.951888 -0.0482171 -2.06632e-21)
(0.939718 -0.0598899 -1.7234e-22)
(0.92222 -0.0802368 6.52915e-21)
(0.908112 -0.0978712 -7.61665e-21)
(0.888681 -0.127988 2.43641e-21)
(0.874982 -0.152918 3.75444e-21)
(0.856512 -0.196956 1.27489e-21)
(0.84676 -0.22838 -5.65061e-21)
(0.835435 -0.293666 1.7678e-22)
(0.998854 -0.00264197 3.17898e-22)
(0.997827 -0.00613257 2.84357e-22)
(0.991211 -0.0122448 9.8263e-22)
(0.9856 -0.0167926 -1.28334e-21)
(0.975014 -0.0254553 3.63995e-22)
(0.965607 -0.0323879 -1.00238e-21)
(0.9512 -0.0452696 5.34118e-22)
(0.938457 -0.0561522 -2.28412e-21)
(0.920546 -0.0754164 4.40288e-21)
(0.905347 -0.0919956 -1.03027e-22)
(0.884962 -0.12061 -7.97833e-21)
(0.869183 -0.144417 5.07574e-22)
(0.84873 -0.186462 8.62865e-21)
(0.835354 -0.217264 2.76998e-22)
(0.820123 -0.280073 -1.02304e-20)
(0.998891 -0.00247393 2.75855e-22)
(0.997748 -0.00571125 -1.62864e-21)
(0.991191 -0.0114273 -1.23026e-21)
(0.985387 -0.015629 1.46668e-21)
(0.974809 -0.0237732 -1.05062e-21)
(0.965097 -0.0301777 8.49908e-22)
(0.950575 -0.042291 -4.48658e-22)
(0.937288 -0.0523913 -5.00758e-22)
(0.919006 -0.0705271 3.35786e-21)
(0.902771 -0.0860497 -6.72022e-21)
(0.881497 -0.113055 5.39928e-21)
(0.863758 -0.135677 7.56727e-21)
(0.841407 -0.175529 -9.39391e-21)
(0.82462 -0.205417 -1.77472e-21)
(0.805655 -0.265452 -8.6679e-21)
(0.998928 -0.00230323 -1.53305e-22)
(0.997675 -0.00528396 1.02014e-21)
(0.991178 -0.0105905 -1.12477e-21)
(0.985188 -0.0144619 2.6154e-21)
(0.974626 -0.0220762 -2.82022e-21)
(0.964623 -0.0279609 -2.8663e-21)
(0.950006 -0.0392842 -7.16718e-22)
(0.936203 -0.0486105 3.38105e-22)
(0.917586 -0.0655735 -2.62141e-21)
(0.900373 -0.0800355 2.98382e-21)
(0.87827 -0.105339 3.18492e-21)
(0.858696 -0.126701 -1.13689e-21)
(0.834544 -0.164193 -3.93173e-21)
(0.814557 -0.192899 8.2367e-21)
(0.79205 -0.249854 -8.02354e-21)
(0.998964 -0.00212986 -6.67099e-22)
(0.997608 -0.00485783 6.30853e-21)
(0.991169 -0.00973843 1.47006e-22)
(0.985002 -0.0132913 1.29853e-21)
(0.974463 -0.0203648 -2.32249e-22)
(0.964184 -0.0257382 3.86473e-21)
(0.949487 -0.0362496 5.97904e-22)
(0.935196 -0.0448101 5.46723e-23)
(0.916278 -0.0605583 -4.08452e-21)
(0.898148 -0.0739523 -7.34614e-22)
(0.875273 -0.097472 3.56253e-21)
(0.853997 -0.117498 -5.13404e-21)
(0.828149 -0.152485 -3.85841e-21)
(0.805179 -0.179764 4.61469e-21)
(0.779338 -0.233334 -4.00165e-21)
(0.998998 -0.00195422 1.66491e-21)
(0.997547 -0.00443039 -3.54146e-21)
(0.991166 -0.00893106 1.89496e-21)
(0.984826 -0.0121212 -2.69365e-21)
(0.974317 -0.0186399 -9.93494e-22)
(0.963776 -0.0235108 5.55194e-22)
(0.949017 -0.0331887 -2.0154e-21)
(0.934266 -0.0409907 3.55232e-21)
(0.915076 -0.0554855 1.91925e-21)
(0.896096 -0.0678007 -1.09341e-21)
(0.872504 -0.0894679 3.33351e-21)
(0.849661 -0.108077 -6.26711e-21)
(0.822235 -0.140432 1.08717e-20)
(0.796502 -0.166062 -7.59615e-21)
(0.767552 -0.215954 -3.8762e-21)
(0.999031 -0.00177643 -1.18241e-21)
(0.997487 -0.00400292 1.59789e-22)
(0.991168 -0.00814125 1.23266e-23)
(0.984668 -0.0109506 2.48998e-21)
(0.97419 -0.0169025 6.20414e-22)
(0.963402 -0.0212796 -1.14368e-21)
(0.948593 -0.0301031 1.30988e-21)
(0.933414 -0.0371532 -2.58284e-21)
(0.91398 -0.0503599 1.06962e-21)
(0.89422 -0.0615822 6.95353e-22)
(0.869967 -0.0813379 -3.27537e-21)
(0.845694 -0.0984513 2.47111e-21)
(0.816813 -0.128061 6.44302e-21)
(0.788546 -0.151842 -3.1706e-21)
(0.756725 -0.197783 -8.54775e-21)
(0.999063 -0.00159644 -1.34423e-21)
(0.997429 -0.00357726 -2.83607e-22)
(0.991174 -0.00731357 -1.2269e-21)
(0.984524 -0.00977851 -3.6247e-21)
(0.974077 -0.0151537 1.74867e-21)
(0.963061 -0.0190455 -1.6752e-21)
(0.948213 -0.0269949 2.25028e-21)
(0.932642 -0.0332982 3.32371e-21)
(0.912989 -0.0451864 -2.15859e-21)
(0.892522 -0.055299 4.42179e-21)
(0.867664 -0.0730935 -2.3808e-21)
(0.8421 -0.0886347 -3.61573e-21)
(0.811894 -0.115397 -2.27297e-21)
(0.78133 -0.137149 9.31546e-21)
(0.746891 -0.178892 -3.07732e-21)
(0.999093 -0.00141433 1.3969e-21)
(0.997375 -0.00315225 6.74433e-22)
(0.991184 -0.00647476 -9.78095e-23)
(0.984394 -0.00859853 1.45263e-21)
(0.97398 -0.0133937 -2.32453e-21)
(0.962754 -0.0168089 -5.76506e-22)
(0.947876 -0.0238663 -5.00622e-23)
(0.931952 -0.0294263 -1.12273e-21)
(0.912102 -0.0399701 -3.29295e-21)
(0.891005 -0.0489545 -1.6746e-21)
(0.865599 -0.0647456 6.23704e-21)
(0.838885 -0.0786426 -9.6552e-22)
(0.807489 -0.102468 -9.93987e-22)
(0.774873 -0.122033 -8.19702e-22)
(0.738079 -0.159356 -3.92781e-21)
(0.999121 -0.00123022 8.44613e-22)
(0.997326 -0.00272825 -1.55565e-21)
(0.991197 -0.00562842 6.61372e-22)
(0.984279 -0.00742493 -1.77864e-21)
(0.973895 -0.0116243 -1.11512e-22)
(0.962483 -0.0145703 9.81393e-23)
(0.947581 -0.0207197 1.41021e-22)
(0.931344 -0.0255386 2.12024e-22)
(0.911321 -0.0347159 -1.51592e-21)
(0.889671 -0.0425527 1.97049e-21)
(0.863779 -0.0563052 -3.21303e-21)
(0.836057 -0.0684919 7.14059e-22)
(0.803609 -0.0893016 2.16833e-21)
(0.769191 -0.106538 -1.4601e-22)
(0.730314 -0.139251 2.64548e-21)
(0.999147 -0.00104425 -8.21983e-22)
(0.997283 -0.00230566 1.88632e-21)
(0.991212 -0.00477369 -1.18506e-21)
(0.984179 -0.00629444 1.45166e-21)
(0.973823 -0.00984926 7.9775e-22)
(0.962248 -0.0123303 -5.00581e-22)
(0.947328 -0.0175573 -8.82193e-23)
(0.930821 -0.0216361 -5.74279e-22)
(0.910647 -0.029429 2.04137e-22)
(0.888522 -0.036099 -1.67954e-21)
(0.862208 -0.0477833 7.91387e-22)
(0.833619 -0.0582005 -5.42829e-21)
(0.800264 -0.0759253 7.63745e-21)
(0.764297 -0.0907133 -2.306e-21)
(0.72362 -0.118653 -4.9449e-21)
(0.999169 -0.000856645 -3.82709e-22)
(0.997245 -0.00188437 -5.82591e-22)
(0.991223 -0.00391306 4.04554e-22)
(0.984095 -0.00517017 9.96174e-23)
(0.973768 -0.00806738 1.1031e-21)
(0.962051 -0.0100891 -3.92978e-22)
(0.947118 -0.0143818 2.22814e-22)
(0.930383 -0.0177205 -8.34667e-23)
(0.910082 -0.0241145 6.33825e-22)
(0.887562 -0.0295996 1.19775e-21)
(0.860891 -0.0391915 1.72883e-21)
(0.831579 -0.0477875 -2.832e-21)
(0.797461 -0.0623691 1.25942e-21)
(0.760202 -0.0746067 -1.62706e-21)
(0.718015 -0.0976396 -4.60287e-21)
(0.999187 -0.000667653 1.35841e-21)
(0.997214 -0.00146412 -1.58805e-22)
(0.991232 -0.00304812 6.33333e-22)
(0.984028 -0.00402377 5.41545e-22)
(0.973725 -0.00627895 -1.71944e-21)
(0.961893 -0.007847 6.49706e-23)
(0.946949 -0.0111955 2.65135e-22)
(0.930032 -0.0137936 1.63197e-22)
(0.909628 -0.0187773 -6.16144e-22)
(0.886791 -0.0230615 5.69345e-22)
(0.859831 -0.0305414 2.6322e-21)
(0.829941 -0.037273 -1.05135e-21)
(0.79521 -0.0486635 2.40625e-21)
(0.756917 -0.0582677 -5.28339e-21)
(0.713514 -0.0762873 6.66025e-21)
(0.999201 -0.000477552 -9.69743e-22)
(0.99719 -0.00104473 1.81998e-23)
(0.99124 -0.00217909 -5.64362e-22)
(0.983977 -0.00287567 -2.81107e-22)
(0.973693 -0.0044868 6.12794e-22)
(0.961774 -0.00560413 -3.25138e-23)
(0.946822 -0.00800093 -1.09974e-21)
(0.929768 -0.00985741 6.34907e-22)
(0.909286 -0.0134226 -2.82871e-22)
(0.886212 -0.0164925 2.52396e-22)
(0.859033 -0.0218454 9.0105e-22)
(0.828708 -0.0266783 2.56972e-22)
(0.793515 -0.0348404 -1.58465e-21)
(0.754448 -0.0417465 1.94777e-22)
(0.710129 -0.0546725 -1.49272e-21)
(0.999211 -0.000286639 4.72436e-22)
(0.997174 -0.000625941 -3.25458e-23)
(0.991245 -0.00130742 8.2102e-23)
(0.983943 -0.00172498 4.5805e-22)
(0.973673 -0.00269157 -8.31791e-23)
(0.961694 -0.00336067 -4.47114e-22)
(0.946738 -0.00480048 -2.82758e-22)
(0.929592 -0.00591446 3.40034e-22)
(0.909057 -0.00805529 -3.04912e-22)
(0.885825 -0.00990093 3.66062e-22)
(0.8585 -0.0131163 -9.45437e-22)
(0.827885 -0.0160256 5.29896e-22)
(0.792382 -0.0209326 -1.18402e-21)
(0.752799 -0.0250944 4.77583e-22)
(0.707869 -0.032871 2.01747e-22)
(0.999215 -9.52328e-05 -8.42199e-23)
(0.997166 -0.000207526 8.2434e-23)
(0.991248 -0.000434206 -1.06791e-22)
(0.983926 -0.000572832 -1.51661e-22)
(0.973662 -0.00089453 1.42176e-22)
(0.961654 -0.00111693 2.25668e-22)
(0.946695 -0.00159657 1.56501e-22)
(0.929504 -0.00196738 -9.45055e-23)
(0.908943 -0.0026806 3.76712e-22)
(0.885632 -0.00329572 6.91469e-23)
(0.858233 -0.00436726 1.77089e-22)
(0.827473 -0.00533772 2.46513e-22)
(0.791815 -0.00697399 -5.12177e-24)
(0.751974 -0.00836322 -1.78553e-22)
(0.706738 -0.0109577 -2.8859e-23)
(1.00003 -0.000313148 0)
(1.00234 -0.000828881 0)
(1.00629 -0.00140709 0)
(1.01143 -0.00188052 0)
(1.01746 -0.00241515 0)
(1.0241 -0.00283566 0)
(1.03114 -0.00330123 0)
(1.03835 -0.00363681 0)
(1.04558 -0.00401456 0)
(1.05267 -0.00425107 0)
(1.05952 -0.00454445 0)
(1.06604 -0.00468359 0)
(1.07219 -0.00491232 0)
(1.07793 -0.00496032 0)
(1.08327 -0.00515607 0)
(1.00004 -0.000922721 0)
(1.00232 -0.00244448 0)
(1.00625 -0.00414962 0)
(1.01135 -0.00554641 0)
(1.01735 -0.0071263 0)
(1.02397 -0.0083707 0)
(1.03102 -0.00975142 0)
(1.03824 -0.0107495 0)
(1.04552 -0.0118743 0)
(1.05264 -0.0125817 0)
(1.05955 -0.0134571 0)
(1.06612 -0.013876 0)
(1.07234 -0.0145579 0)
(1.07813 -0.0147066 0)
(1.08355 -0.0152881 0)
(1.00004 -0.00149981 0)
(1.00228 -0.00396443 0)
(1.00616 -0.00674178 0)
(1.01118 -0.00901194 0)
(1.01715 -0.0115988 0)
(1.02372 -0.0136343 0)
(1.03079 -0.015911 0)
(1.03803 -0.0175565 0)
(1.04538 -0.0194249 0)
(1.05256 -0.0205987 0)
(1.05959 -0.0220604 0)
(1.06625 -0.022758 0)
(1.07261 -0.0239005 0)
(1.0785 -0.0241482 0)
(1.08407 -0.0251253 0)
(1.00005 -0.00204416 0)
(1.00223 -0.00537305 0)
(1.00603 -0.00917242 0)
(1.01093 -0.0122638 0)
(1.01683 -0.0158313 0)
(1.02335 -0.0186309 0)
(1.03042 -0.0218006 0)
(1.03768 -0.0240871 0)
(1.04512 -0.0267119 0)
(1.0524 -0.0283561 0)
(1.05959 -0.0304233 0)
(1.06637 -0.0314051 0)
(1.07293 -0.0330279 0)
(1.07895 -0.0333764 0)
(1.08474 -0.034768 0)
(1.00006 -0.00255466 0)
(1.00215 -0.00666233 0)
(1.00585 -0.0114357 0)
(1.0106 -0.0152947 0)
(1.01641 -0.0198225 0)
(1.02283 -0.0233621 0)
(1.0299 -0.0274314 0)
(1.03718 -0.0303591 0)
(1.04473 -0.0337652 0)
(1.05211 -0.0358917 0)