/*--------------------------------*- C++ -*----------------------------------*\
  =========                 |
  \\      /  F ield         | OpenFOAM: The Open Source CFD Toolbox
   \\    /   O peration     | Website:  https://openfoam.org
    \\  /    A nd           | Version:  7
     \\/     M anipulation  |
\*---------------------------------------------------------------------------*/
FoamFile
{
    version     2.0;
    format      ascii;
    class       volScalarField;
    location    "155";
    object      p;
}
// * * * * * * * * * * * * * * * * * * * * * * * * * * * * * * * * * * * * * //

dimensions      [0 2 -2 0 0 0 0];

internalField   nonuniform List<scalar> 
8500
(
-0.414345
-0.41739
-0.418564
-0.419882
-0.4217
-0.424055
-0.426871
-0.429984
-0.433033
-0.435953
-0.40491
-0.408087
-0.409094
-0.409972
-0.411029
-0.412257
-0.413542
-0.414688
-0.415234
-0.415109
-0.395898
-0.399136
-0.399965
-0.400416
-0.400734
-0.400867
-0.400662
-0.39989
-0.398005
-0.394839
-0.387382
-0.39062
-0.391273
-0.391317
-0.390936
-0.39003
-0.388405
-0.385811
-0.381646
-0.375534
-0.379415
-0.38261
-0.383091
-0.382759
-0.381729
-0.379853
-0.376898
-0.372609
-0.366378
-0.357475
-0.372033
-0.375158
-0.375478
-0.374803
-0.373177
-0.370409
-0.366229
-0.360382
-0.352337
-0.340825
-0.365262
-0.368303
-0.368476
-0.36749
-0.365323
-0.361742
-0.356444
-0.349178
-0.339587
-0.325626
-0.359118
-0.362077
-0.362114
-0.360849
-0.358193
-0.353876
-0.347566
-0.339008
-0.328135
-0.311799
-0.353619
-0.356502
-0.356417
-0.354898
-0.3518
-0.346821
-0.339604
-0.329874
-0.317971
-0.29919
-0.348781
-0.351602
-0.351403
-0.349652
-0.346153
-0.340583
-0.332568
-0.321792
-0.309176
-0.28764
-0.344627
-0.347398
-0.347089
-0.345123
-0.341264
-0.335172
-0.326471
-0.314793
-0.302002
-0.277397
-0.341187
-0.343909
-0.343493
-0.341326
-0.337146
-0.330604
-0.321329
-0.308802
-0.295106
-0.269443
-0.338495
-0.341158
-0.340632
-0.338279
-0.333821
-0.326908
-0.317174
-0.303958
-0.289736
-0.262656
-0.336585
-0.339163
-0.338519
-0.335995
-0.331307
-0.324109
-0.314056
-0.300287
-0.286021
-0.257145
-0.335491
-0.337936
-0.337164
-0.334482
-0.329613
-0.322227
-0.312045
-0.297939
-0.283715
-0.253056
-0.335233
-0.33748
-0.336561
-0.333733
-0.328729
-0.321223
-0.310859
-0.297023
-0.282708
-0.250585
-0.335821
-0.337785
-0.336693
-0.333721
-0.328616
-0.32106
-0.310655
-0.29717
-0.282544
-0.249753
-0.337243
-0.338826
-0.337523
-0.334395
-0.329204
-0.321638
-0.311254
-0.29822
-0.28268
-0.250143
-0.33947
-0.340566
-0.339001
-0.335687
-0.3304
-0.322829
-0.312468
-0.299973
-0.282851
-0.251806
-0.342457
-0.342957
-0.341065
-0.337514
-0.332094
-0.324493
-0.314127
-0.30211
-0.283405
-0.258202
-0.346155
-0.345951
-0.343654
-0.339797
-0.334183
-0.326496
-0.316076
-0.304176
-0.284773
-0.273233
-0.350515
-0.3495
-0.346721
-0.342474
-0.336587
-0.328732
-0.318189
-0.306017
-0.287083
-0.275313
-0.355502
-0.353575
-0.350232
-0.34551
-0.339267
-0.331139
-0.320362
-0.307663
-0.289095
-0.275324
-0.361083
-0.358175
-0.354183
-0.348904
-0.342217
-0.333695
-0.322526
-0.309137
-0.290521
-0.274866
-0.367268
-0.363302
-0.358595
-0.352689
-0.345464
-0.33641
-0.324658
-0.310382
-0.291347
-0.273804
-0.374073
-0.368983
-0.363511
-0.356915
-0.349048
-0.339299
-0.326742
-0.311345
-0.291529
-0.272342
-0.381528
-0.375257
-0.368986
-0.361641
-0.353008
-0.342375
-0.328742
-0.311967
-0.291097
-0.270446
-0.389667
-0.382164
-0.375073
-0.366914
-0.357368
-0.345619
-0.330601
-0.312199
-0.290086
-0.268134
-0.398514
-0.389737
-0.38181
-0.372757
-0.362121
-0.348977
-0.332239
-0.311997
-0.288534
-0.2654
-0.408076
-0.397992
-0.389212
-0.37916
-0.36722
-0.352348
-0.333566
-0.311329
-0.286469
-0.26224
-0.418333
-0.406921
-0.397261
-0.386076
-0.372571
-0.3556
-0.33449
-0.310164
-0.283906
-0.258644
-0.429231
-0.416484
-0.405899
-0.393416
-0.378027
-0.358581
-0.334923
-0.308468
-0.280844
-0.254594
-0.440678
-0.426602
-0.415028
-0.40104
-0.383396
-0.36113
-0.334776
-0.306204
-0.277264
-0.250066
-0.45254
-0.437158
-0.424505
-0.408759
-0.38846
-0.363087
-0.333962
-0.303328
-0.273138
-0.245028
-0.464641
-0.447992
-0.434144
-0.416337
-0.392986
-0.364295
-0.332395
-0.299786
-0.268425
-0.239443
-0.476765
-0.458897
-0.443714
-0.423499
-0.396737
-0.364605
-0.329986
-0.295522
-0.263075
-0.233271
-0.488654
-0.469628
-0.452939
-0.429944
-0.399483
-0.363876
-0.326649
-0.290468
-0.257034
-0.22647
-0.500013
-0.479901
-0.461507
-0.435363
-0.401004
-0.361972
-0.322294
-0.284559
-0.250244
-0.218998
-0.510519
-0.489401
-0.469076
-0.439452
-0.401096
-0.358767
-0.316835
-0.277723
-0.242647
-0.210816
-0.519824
-0.497786
-0.475289
-0.441919
-0.399573
-0.354144
-0.310189
-0.269893
-0.234186
-0.201889
-0.527568
-0.504699
-0.47979
-0.442495
-0.396268
-0.347997
-0.302276
-0.261004
-0.224812
-0.192188
-0.533387
-0.509776
-0.482234
-0.440937
-0.391033
-0.340229
-0.293022
-0.250995
-0.214485
-0.181697
-0.536924
-0.512659
-0.482304
-0.437036
-0.383744
-0.330757
-0.28236
-0.239812
-0.20317
-0.170406
-0.537839
-0.513004
-0.479721
-0.430617
-0.3743
-0.31951
-0.270233
-0.227401
-0.190825
-0.158278
-0.535821
-0.510498
-0.474246
-0.421543
-0.362625
-0.306439
-0.2566
-0.213725
-0.177389
-0.145167
-0.530592
-0.504863
-0.46569
-0.409717
-0.348669
-0.29151
-0.241438
-0.198772
-0.16282
-0.130828
-0.521921
-0.495874
-0.453915
-0.395078
-0.332404
-0.274705
-0.224736
-0.182553
-0.147174
-0.115213
-0.509626
-0.48336
-0.438825
-0.377603
-0.31383
-0.256023
-0.206491
-0.165076
-0.130534
-0.0990383
-0.493577
-0.467207
-0.420377
-0.357301
-0.292972
-0.235484
-0.186733
-0.146385
-0.112704
-0.0823647
-0.473704
-0.44736
-0.398576
-0.334221
-0.26988
-0.213137
-0.165549
-0.126502
-0.0938405
-0.0649832
-0.449993
-0.423822
-0.373482
-0.308452
-0.244624
-0.189074
-0.14298
-0.105442
-0.0740554
-0.0468552
-0.422486
-0.396662
-0.345227
-0.280116
-0.217277
-0.163365
-0.119071
-0.0832853
-0.0534174
-0.0280327
-0.391278
-0.366008
-0.314002
-0.249306
-0.187947
-0.136092
-0.0939157
-0.0601207
-0.0319953
-0.0086129
-0.356528
-0.332061
-0.279931
-0.216022
-0.156873
-0.107397
-0.0676225
-0.0360433
-0.00987046
0.0112942
-0.318458
-0.295086
-0.242855
-0.180739
-0.124155
-0.0774205
-0.0403159
-0.0111548
0.0128743
0.0316024
-0.277287
-0.255329
-0.203034
-0.143658
-0.0900027
-0.046321
-0.0121321
0.0144387
0.0361534
0.0522219
-0.233209
-0.212612
-0.161484
-0.104949
-0.0546121
-0.0142681
0.0167939
0.0406372
0.0598259
0.0728207
-0.186554
-0.167578
-0.118368
-0.0648887
-0.0181899
0.0185671
0.046345
0.0673553
0.0836146
0.092596
-0.137954
-0.120465
-0.0738104
-0.0237505
0.0190379
0.0520099
0.0764116
0.0944869
0.107184
0.110983
-0.087574
-0.0717972
-0.0280776
0.0181892
0.0568323
0.0858723
0.106833
0.121794
0.130428
0.129669
-0.0358284
-0.0220075
0.018489
0.060644
0.0949477
0.119945
0.137358
0.148883
0.153329
0.153402
0.0168376
0.0285022
0.0655248
0.103317
0.133134
0.154001
0.167725
0.17563
0.176777
0.17723
0.0699781
0.0793251
0.112659
0.145902
0.171134
0.187811
0.197758
0.202096
0.200427
0.19978
0.123144
0.130048
0.159523
0.188093
0.208686
0.221144
0.227285
0.228157
0.22385
0.221365
0.175884
0.180255
0.20575
0.229582
0.245529
0.253778
0.256135
0.253634
0.246705
0.241971
0.227751
0.229533
0.250979
0.270064
0.281405
0.285496
0.284128
0.278348
0.268802
0.26163
0.278305
0.277477
0.294858
0.309243
0.316063
0.316084
0.311084
0.302122
0.289988
0.2803
0.327115
0.32369
0.337045
0.34683
0.349258
0.345336
0.336825
0.324796
0.310135
0.297921
0.373767
0.367791
0.377212
0.382547
0.380754
0.37305
0.361179
0.34622
0.329124
0.31442
0.417863
0.409417
0.415046
0.41613
0.410326
0.399037
0.383982
0.366253
0.34684
0.329723
0.459027
0.448224
0.450251
0.447328
0.437762
0.423114
0.40508
0.384765
0.363176
0.343752
0.496907
0.483891
0.482551
0.47591
0.462865
0.445113
0.42433
0.401633
0.37803
0.356438
0.531177
0.516122
0.511694
0.501659
0.48545
0.464879
0.441599
0.416742
0.391306
0.367714
0.561543
0.544647
0.537447
0.52438
0.505351
0.482268
0.456766
0.42999
0.402917
0.37752
0.587738
0.569228
0.559606
0.543899
0.522419
0.497155
0.469723
0.441283
0.412787
0.385804
0.609532
0.589654
0.57799
0.560063
0.536526
0.509429
0.480377
0.450542
0.420848
0.392519
0.626728
0.605746
0.592447
0.572742
0.547559
0.518996
0.488647
0.457696
0.427041
0.397628
0.639166
0.617361
0.602852
0.581832
0.555429
0.525779
0.494469
0.46269
0.43132
0.401102
0.646723
0.624385
0.609109
0.58725
0.560067
0.52972
0.497792
0.46548
0.43365
0.402918
0.649313
0.626744
0.611152
0.588942
0.561425
0.530777
0.498581
0.466038
0.434005
0.403055
0.646891
0.624393
0.608946
0.586876
0.559478
0.528929
0.496819
0.464347
0.432371
0.401508
0.639449
0.617327
0.602484
0.581048
0.554221
0.524173
0.492502
0.460405
0.428748
0.398274
0.627019
0.605574
0.591791
0.571478
0.545672
0.516524
0.485644
0.454224
0.423148
0.393362
0.609672
0.589197
0.576922
0.558213
0.53387
0.506015
0.476274
0.445829
0.415589
0.386784
0.587516
0.568295
0.557959
0.541323
0.518878
0.4927
0.464437
0.435261
0.406106
0.378557
0.560698
0.542999
0.535017
0.520905
0.500776
0.476648
0.450192
0.42257
0.394742
0.36871
0.529402
0.513475
0.508237
0.49708
0.479668
0.457947
0.433616
0.407823
0.381552
0.357278
0.493847
0.479921
0.477789
0.469991
0.455677
0.436703
0.414798
0.391096
0.3666
0.344304
0.454284
0.442566
0.443869
0.439804
0.428945
0.413036
0.39384
0.37248
0.349963
0.329839
0.411
0.401667
0.406698
0.406708
0.399632
0.387084
0.370861
0.352074
0.331724
0.313942
0.36431
0.357511
0.366521
0.370909
0.367916
0.358997
0.345988
0.329989
0.311976
0.296677
0.314557
0.31041
0.323607
0.332636
0.333988
0.328941
0.319362
0.306345
0.290818
0.278113
0.262109
0.260701
0.278243
0.292131
0.298058
0.297093
0.291135
0.281271
0.268356
0.258322
0.20736
0.208739
0.230736
0.249654
0.260346
0.26364
0.261468
0.254906
0.2447
0.237375
0.150718
0.154902
0.181411
0.20548
0.221084
0.228781
0.230531
0.2274
0.219967
0.215339
0.0926135
0.0995823
0.130605
0.159894
0.180515
0.192721
0.198502
0.198914
0.194281
0.192256
0.0334859
0.0431845
0.0786698
0.113191
0.138891
0.155672
0.165562
0.169628
0.167801
0.168147
-0.0262144
-0.0138771
0.0259644
0.0656764
0.0964686
0.117852
0.131887
0.139731
0.140727
0.142946
-0.0860319
-0.071183
-0.0271432
0.0176575
0.0535121
0.079485
0.0976458
0.109402
0.11345
0.116671
-0.145509
-0.128313
-0.0802805
-0.0305544
0.0102861
0.0408056
0.0630107
0.0787652
0.0864748
0.0889831
-0.204191
-0.18485
-0.133072
-0.07865
-0.0329483
0.00205085
0.0281552
0.0477061
0.0601364
0.0614442
-0.261625
-0.240382
-0.185144
-0.126325
-0.0759363
-0.0365447
-0.0066347
0.0163479
0.0333754
0.0399627
-0.317375
-0.294484
-0.236137
-0.173284
-0.118426
-0.0747646
-0.0410828
-0.014846
0.00620611
0.0188583
-0.371113
-0.346688
-0.285737
-0.219244
-0.160172
-0.112416
-0.0750211
-0.0456044
-0.0212373
-0.00395652
-0.422412
-0.396617
-0.333752
-0.263925
-0.200938
-0.14932
-0.108347
-0.0758304
-0.0485874
-0.027796
-0.470823
-0.443628
-0.380175
-0.307037
-0.240506
-0.185303
-0.140949
-0.105453
-0.0755499
-0.0517072
-0.516063
-0.487584
-0.424347
-0.3483
-0.278682
-0.220187
-0.172689
-0.134374
-0.101979
-0.075319
-0.557903
-0.528487
-0.465305
-0.387725
-0.315266
-0.253803
-0.203424
-0.162484
-0.127785
-0.0985441
-0.596107
-0.566075
-0.503171
-0.42486
-0.350024
-0.285997
-0.233022
-0.189675
-0.15288
-0.121294
-0.630459
-0.600085
-0.538007
-0.45928
-0.382888
-0.316636
-0.261364
-0.21585
-0.177175
-0.143448
-0.66081
-0.630315
-0.569634
-0.491055
-0.413615
-0.34558
-0.288346
-0.240914
-0.200591
-0.164897
-0.687063
-0.656632
-0.597855
-0.520091
-0.442104
-0.372767
-0.313882
-0.264784
-0.22307
-0.185562
-0.709179
-0.67897
-0.622541
-0.546259
-0.468287
-0.398121
-0.33795
-0.287383
-0.244549
-0.205408
-0.727172
-0.697322
-0.64363
-0.569464
-0.492099
-0.421556
-0.360504
-0.308734
-0.264899
-0.224497
-0.741116
-0.711742
-0.661111
-0.589662
-0.513492
-0.443028
-0.381457
-0.328801
-0.283964
-0.243081
-0.75114
-0.722339
-0.675022
-0.606837
-0.532446
-0.462523
-0.400787
-0.347549
-0.302006
-0.261011
-0.757429
-0.729282
-0.685452
-0.621011
-0.548961
-0.480052
-0.418508
-0.364982
-0.318946
-0.277616
-0.760216
-0.732793
-0.692534
-0.632238
-0.563065
-0.495635
-0.434643
-0.381099
-0.334727
-0.292963
-0.759783
-0.733146
-0.69645
-0.640606
-0.574804
-0.509312
-0.449221
-0.395922
-0.349402
-0.307321
-0.756448
-0.730661
-0.697425
-0.646239
-0.584251
-0.521135
-0.462293
-0.409502
-0.363049
-0.320857
-0.750558
-0.725685
-0.69573
-0.6493
-0.591499
-0.531175
-0.473923
-0.421904
-0.375728
-0.333633
-0.74248
-0.718588
-0.691677
-0.649983
-0.596663
-0.539514
-0.484187
-0.433197
-0.38749
-0.345681
-0.732591
-0.709746
-0.685605
-0.648514
-0.599876
-0.546246
-0.493164
-0.443457
-0.398393
-0.357033
-0.721266
-0.699532
-0.677876
-0.645147
-0.601288
-0.551471
-0.500939
-0.452763
-0.408505
-0.367737
-0.708871
-0.688307
-0.668854
-0.640157
-0.601067
-0.555295
-0.507599
-0.461199
-0.417908
-0.377855
-0.695749
-0.676409
-0.658898
-0.633838
-0.599392
-0.557829
-0.513231
-0.46885
-0.426686
-0.38746
-0.682216
-0.664148
-0.648343
-0.626493
-0.596457
-0.559189
-0.517924
-0.475803
-0.434929
-0.396637
-0.668556
-0.651795
-0.637489
-0.618421
-0.592468
-0.559493
-0.521758
-0.482139
-0.442727
-0.405474
-0.655011
-0.639585
-0.626597
-0.609909
-0.587636
-0.558862
-0.524813
-0.487935
-0.450167
-0.414065
-0.641786
-0.627708
-0.615881
-0.601216
-0.582179
-0.557419
-0.52716
-0.49326
-0.457337
-0.422508
-0.629048
-0.616314
-0.605513
-0.592562
-0.576312
-0.555297
-0.528868
-0.498174
-0.464314
-0.430908
-0.61693
-0.605514
-0.595624
-0.584119
-0.570237
-0.552633
-0.530002
-0.502725
-0.471167
-0.439368
-0.605533
-0.595386
-0.586311
-0.576019
-0.564138
-0.549572
-0.530633
-0.506955
-0.477955
-0.448002
-0.59494
-0.585983
-0.577639
-0.568362
-0.55817
-0.546266
-0.530836
-0.510895
-0.484718
-0.456913
-0.58521
-0.57734
-0.569654
-0.561226
-0.552458
-0.54287
-0.530702
-0.514575
-0.491474
-0.466233
-0.576389
-0.569476
-0.562383
-0.554675
-0.547107
-0.539531
-0.530341
-0.518024
-0.498237
-0.476029
-0.568503
-0.562401
-0.555844
-0.548765
-0.542215
-0.53639
-0.529879
-0.521282
-0.504966
-0.486505
-0.561557
-0.556109
-0.550044
-0.543539
-0.537875
-0.533576
-0.529455
-0.524388
-0.511692
-0.497478
-0.555524
-0.550574
-0.54497
-0.539026
-0.53417
-0.53121
-0.529202
-0.527399
-0.518371
-0.509172
-0.550342
-0.545745
-0.540587
-0.535221
-0.531155
-0.529395
-0.529247
-0.530395
-0.524996
-0.520196
-0.545909
-0.54154
-0.53683
-0.532088
-0.528838
-0.528195
-0.529726
-0.533279
-0.532704
-0.525113
-0.542083
-0.537848
-0.533601
-0.529544
-0.527169
-0.527614
-0.530722
-0.536056
-0.541021
-0.532206
-0.538695
-0.534532
-0.530769
-0.527463
-0.526039
-0.527583
-0.532206
-0.538851
-0.548712
-0.540361
-0.535551
-0.531438
-0.528184
-0.525687
-0.525277
-0.527956
-0.534024
-0.541754
-0.555377
-0.547912
-0.532451
-0.528404
-0.525682
-0.524032
-0.524677
-0.528514
-0.535925
-0.544714
-0.56095
-0.554735
-0.529199
-0.525267
-0.523092
-0.522301
-0.524005
-0.528986
-0.537608
-0.547511
-0.565327
-0.561082
-0.525615
-0.521875
-0.520252
-0.5203
-0.523018
-0.529077
-0.538752
-0.5498
-0.568359
-0.566839
-0.521543
-0.518087
-0.517009
-0.517843
-0.521486
-0.528503
-0.539047
-0.551182
-0.569903
-0.571569
-0.516859
-0.513784
-0.513227
-0.514767
-0.519207
-0.527013
-0.538225
-0.551282
-0.569827
-0.574751
-0.51147
-0.50887
-0.508798
-0.510939
-0.516015
-0.524409
-0.536073
-0.549811
-0.568012
-0.575941
-0.505324
-0.503277
-0.503641
-0.506262
-0.511796
-0.520557
-0.532449
-0.546577
-0.564353
-0.574831
-0.498404
-0.496971
-0.49771
-0.50068
-0.506486
-0.51539
-0.527277
-0.541485
-0.558781
-0.571234
-0.490735
-0.48995
-0.490997
-0.494181
-0.500075
-0.5089
-0.520549
-0.534524
-0.551269
-0.565047
-0.482374
-0.482248
-0.483531
-0.486797
-0.492605
-0.501141
-0.512318
-0.525764
-0.541796
-0.55613
-0.473411
-0.47393
-0.475368
-0.478606
-0.484161
-0.492214
-0.502704
-0.515406
-0.530308
-0.54478
-0.463961
-0.465084
-0.466614
-0.469709
-0.474869
-0.482259
-0.49185
-0.503498
-0.517045
-0.530999
-0.45416
-0.455828
-0.457385
-0.460243
-0.464882
-0.471457
-0.479952
-0.490262
-0.502201
-0.514916
-0.444153
-0.446294
-0.447819
-0.450361
-0.454381
-0.460011
-0.467241
-0.475975
-0.48602
-0.496904
-0.434089
-0.436619
-0.438063
-0.44023
-0.443555
-0.448145
-0.453977
-0.460946
-0.468835
-0.477385
-0.424109
-0.42694
-0.428264
-0.430017
-0.432599
-0.436086
-0.440431
-0.445505
-0.451035
-0.456888
-0.441764
-0.439074
-0.424258
-0.392978
-0.371874
-0.380869
-0.411121
-0.413981
-0.360342
-0.272998
-0.198608
-0.152619
-0.133111
-0.136268
-0.159144
-0.164973
-0.136958
-0.103394
-0.0885146
-0.072224
-0.0712447
-0.0673086
-0.0751398
-0.0837793
-0.0775417
-0.0418791
-0.0428203
-0.0556977
-0.0480194
0.00176159
-0.417365
-0.412544
-0.399664
-0.376102
-0.367957
-0.390867
-0.430858
-0.439083
-0.378142
-0.284635
-0.204031
-0.152781
-0.129568
-0.128972
-0.149439
-0.154339
-0.130072
-0.100769
-0.0883926
-0.0731593
-0.0733942
-0.0702528
-0.0773532
-0.084624
-0.0781026
-0.0422301
-0.0427695
-0.0559761
-0.0479527
0.00202893
-0.393938
-0.386933
-0.375995
-0.359581
-0.36337
-0.398913
-0.447726
-0.457757
-0.39377
-0.294817
-0.208732
-0.15269
-0.12598
-0.121736
-0.139757
-0.143496
-0.122914
-0.0979939
-0.0881899
-0.0741474
-0.0756667
-0.0733086
-0.0795411
-0.085413
-0.0786046
-0.04258
-0.0427201
-0.0562767
-0.0479056
0.00228772
-0.371977
-0.36277
-0.353705
-0.343726
-0.358344
-0.404444
-0.461306
-0.473413
-0.407157
-0.303566
-0.212754
-0.152423
-0.122427
-0.114693
-0.130226
-0.132592
-0.115529
-0.0950788
-0.087899
-0.0751842
-0.0780494
-0.0764568
-0.0816906
-0.0861416
-0.0790419
-0.042925
-0.0426721
-0.0565995
-0.0478805
0.00253658
-0.351829
-0.340431
-0.33312
-0.328715
-0.352463
-0.407587
-0.47135
-0.485889
-0.418264
-0.310924
-0.216146
-0.15205
-0.118979
-0.107962
-0.120965
-0.121783
-0.107969
-0.0920362
-0.0875123
-0.0762625
-0.0805276
-0.0796768
-0.0837897
-0.086806
-0.0794091
-0.0432616
-0.0426252
-0.0569441
-0.0478794
0.0027741
-0.333681
-0.320123
-0.314441
-0.314901
-0.345461
-0.408199
-0.477787
-0.495098
-0.42709
-0.316949
-0.218961
-0.15163
-0.115698
-0.101644
-0.112087
-0.111233
-0.100295
-0.0888822
-0.087022
-0.0773724
-0.0830844
-0.0829466
-0.0858274
-0.0874026
-0.0797013
-0.0435856
-0.0425788
-0.0573099
-0.0479033
0.00299889
-0.317572
-0.301901
-0.297728
-0.302002
-0.337722
-0.406266
-0.480689
-0.501072
-0.433674
-0.32171
-0.221251
-0.151216
-0.112634
-0.0958145
-0.103691
-0.101103
-0.0925798
-0.0856373
-0.0864204
-0.0785011
-0.085701
-0.0862429
-0.0877936
-0.0879286
-0.079914
-0.0438929
-0.0425321
-0.0576957
-0.0479526
0.00320954
-0.30345
-0.285753
-0.283046
-0.28996
-0.329325
-0.40194
-0.480255
-0.503933
-0.438084
-0.325285
-0.223071
-0.150847
-0.109827
-0.0905223
-0.0958612
-0.0915369
-0.0849105
-0.0823263
-0.0857001
-0.0796332
-0.0883569
-0.0895414
-0.0896791
-0.0883818
-0.0800435
-0.0441792
-0.042484
-0.0580997
-0.0480268
0.00340461
-0.29128
-0.271998
-0.269822
-0.278902
-0.320369
-0.395494
-0.476782
-0.503885
-0.440415
-0.327755
-0.224475
-0.150556
-0.107306
-0.0857902
-0.0886638
-0.082656
-0.0773851
-0.0789784
-0.0848535
-0.080751
-0.0910305
-0.0928174
-0.0914754
-0.0887606
-0.0800863
-0.0444402
-0.0424335
-0.0585198
-0.0481245
0.00358263
-0.281079
-0.259916
-0.258322
-0.268793
-0.311031
-0.387277
-0.470653
-0.501192
-0.440782
-0.3292
-0.225515
-0.150362
-0.105092
-0.0816173
-0.0821431
-0.0745514
-0.0701085
-0.0756261
-0.0838735
-0.0818353
-0.0936992
-0.096046
-0.0931747
-0.089064
-0.08004
-0.0446718
-0.0423791
-0.0589534
-0.0482435
0.0037421
-0.272291
-0.249559
-0.248385
-0.259605
-0.301529
-0.377684
-0.462306
-0.496154
-0.439322
-0.329695
-0.226237
-0.150278
-0.103199
-0.077985
-0.0763187
-0.0672812
-0.063186
-0.0723045
-0.0827532
-0.0828653
-0.0963399
-0.0992024
-0.09477
-0.0892915
-0.0799026
-0.04487
-0.0423199
-0.0593974
-0.0483806
0.00388147
-0.26511
-0.240811
-0.239813
-0.251349
-0.292092
-0.367117
-0.452191
-0.489087
-0.43619
-0.329316
-0.22669
-0.150313
-0.101638
-0.0748648
-0.0711862
-0.0608734
-0.0567154
-0.0690521
-0.0814866
-0.0838197
-0.0989299
-0.102262
-0.0962548
-0.0894432
-0.0796729
-0.0450312
-0.0422546
-0.0598486
-0.0485316
0.00399919
-0.25953
-0.23359
-0.232484
-0.244042
-0.282931
-0.355954
-0.440737
-0.480299
-0.431563
-0.328149
-0.226928
-0.150482
-0.100422
-0.0722238
-0.0667189
-0.0553284
-0.0507787
-0.0659094
-0.0800684
-0.0846769
-0.101447
-0.105203
-0.097623
-0.0895193
-0.07935
-0.0451521
-0.0421822
-0.0603036
-0.0486918
0.00409364
-0.255545
-0.22788
-0.226318
-0.237693
-0.274226
-0.344525
-0.428325
-0.470077
-0.425612
-0.326288
-0.226992
-0.150779
-0.0995424
-0.0700176
-0.0628645
-0.0506159
-0.0454339
-0.0629178
-0.0784939
-0.0854154
-0.103871
-0.108002
-0.0988688
-0.0895207
-0.0789336
-0.0452283
-0.0421009
-0.0607581
-0.0488551
0.00416318
-0.253145
-0.223683
-0.221268
-0.232295
-0.266108
-0.333088
-0.41528
-0.458679
-0.418487
-0.323775
-0.226844
-0.151123
-0.0989396
-0.0681768
-0.0595442
-0.0466682
-0.0407128
-0.0601171
-0.0767586
-0.086014
-0.106182
-0.11064
-0.0999875
-0.0894484
-0.0784239
-0.0452552
-0.0420088
-0.0612061
-0.0490148
0.00420614
-0.252217
-0.221027
-0.217316
-0.227821
-0.258664
-0.321818
-0.40189
-0.446356
-0.410335
-0.320597
-0.226396
-0.151418
-0.098548
-0.0666433
-0.0566872
-0.0433972
-0.036618
-0.0575403
-0.0748579
-0.0864522
-0.108361
-0.113103
-0.100977
-0.0893027
-0.077824
-0.0452323
-0.0419057
-0.06164
-0.0491631
0.00422082
-0.252526
-0.219879
-0.214442
-0.224223
-0.251954
-0.310843
-0.388561
-0.433349
-0.401402
-0.316983
-0.225911
-0.151916
-0.0985615
-0.0655089
-0.0543136
-0.0407856
-0.0330513
-0.0552082
-0.0727859
-0.0867101
-0.110393
-0.115373
-0.101829
-0.0890814
-0.0771382
-0.0451719
-0.0417958
-0.0620626
-0.049291
0.00420553
-0.253529
-0.220067
-0.212631
-0.22139
-0.245949
-0.300213
-0.376079
-0.41953
-0.391986
-0.313687
-0.226279
-0.153355
-0.0995002
-0.0650262
-0.0525088
-0.0389085
-0.0302255
-0.0531877
-0.0705336
-0.0867663
-0.112259
-0.11738
-0.102497
-0.088783
-0.0763668
-0.0450882
-0.0416792
-0.0625005
-0.0493899
0.00415859
-0.254968
-0.221629
-0.211965
-0.219208
-0.240408
-0.289512
-0.362944
-0.404133
-0.381637
-0.310401
-0.2271
-0.155246
-0.100944
-0.0648955
-0.0509799
-0.037454
-0.0281081
-0.0516715
-0.0681074
-0.0866013
-0.113947
-0.119037
-0.102948
-0.0884308
-0.0755046
-0.0449293
-0.041529
-0.0629348
-0.0494531
0.00407759
-0.25732
-0.224318
-0.212245
-0.218262
-0.236349
-0.279932
-0.342453
-0.388736
-0.3688
-0.302662
-0.223225
-0.153232
-0.0996613
-0.0632891
-0.0486353
-0.0350405
-0.025882
-0.0500659
-0.065517
-0.086181
-0.115462
-0.1209
-0.103464
-0.088085
-0.0745544
-0.0445049
-0.0412926
-0.0631013
-0.0494481
0.00396041
-0.245276
-0.222205
-0.212138
-0.218333
-0.235121
-0.276235
-0.336764
-0.376253
-0.353751
-0.288395
-0.212324
-0.14557
-0.0941291
-0.0591846
-0.0448955
-0.0303575
-0.0209605
-0.0442046
-0.0595743
-0.0850985
-0.119016
-0.125784
-0.104986
-0.0876636
-0.0734479
-0.0436492
-0.0408923
-0.0625547
-0.0492672
0.00378708
-0.241031
-0.222002
-0.213041
-0.218896
-0.234538
-0.270491
-0.321434
-0.352117
-0.328901
-0.268251
-0.1986
-0.13694
-0.0889132
-0.0556239
-0.0412392
-0.0266745
-0.0193749
-0.0415245
-0.0563873
-0.0844374
-0.121022
-0.128693
-0.105199
-0.0855304
-0.071333
-0.0426681
-0.0406489
-0.0621864
-0.049929
0.00367355
-0.236575
-0.220801
-0.212689
-0.218194
-0.232576
-0.262762
-0.303746
-0.326282
-0.303664
-0.248779
-0.185591
-0.128757
-0.0837796
-0.0520386
-0.0377664
-0.0232009
-0.0179312
-0.0395899
-0.0547218
-0.0841182
-0.121842
-0.130471
-0.104751
-0.0829419
-0.0688607
-0.0415387
-0.0403032
-0.0618109
-0.0508275
0.00366768
-0.231113
-0.218022
-0.21039
-0.215231
-0.228066
-0.252447
-0.284315
-0.30006
-0.278554
-0.229505
-0.172643
-0.120563
-0.0786085
-0.0484491
-0.0344023
-0.0198028
-0.0161985
-0.0371799
-0.0525737
-0.0833141
-0.122146
-0.131779
-0.103755
-0.0799915
-0.065893
-0.0402019
-0.0398203
-0.061328
-0.0516218
0.00371244
-0.223617
-0.213298
-0.206048
-0.20992
-0.221069
-0.240188
-0.263957
-0.274206
-0.25417
-0.210858
-0.16003
-0.112492
-0.0734148
-0.0448339
-0.0310817
-0.0163852
-0.0142137
-0.0342598
-0.0494497
-0.081646
-0.121895
-0.132237
-0.102041
-0.0765853
-0.0624102
-0.0386152
-0.0391627
-0.0606922
-0.0522539
0.00377525
-0.213896
-0.206656
-0.199929
-0.202703
-0.21202
-0.226666
-0.243629
-0.249547
-0.231109
-0.193097
-0.147826
-0.104559
-0.0682147
-0.0411788
-0.0277457
-0.0128774
-0.0118244
-0.0307901
-0.0453991
-0.0789418
-0.120629
-0.131471
-0.0994847
-0.0726851
-0.0583838
-0.0367321
-0.0382842
-0.0598401
-0.0527152
0.00385184
-0.202602
-0.198377
-0.1924
-0.194124
-0.201604
-0.212523
-0.224044
-0.226609
-0.209673
-0.176364
-0.136111
-0.0968099
-0.0630359
-0.0374722
-0.0243362
-0.00921016
-0.00886004
-0.026616
-0.0404026
-0.0749178
-0.117949
-0.129206
-0.0959814
-0.0682667
-0.0538002
-0.0345034
-0.0371292
-0.0586853
-0.0529426
0.00394388
-0.190326
-0.188791
-0.18378
-0.184608
-0.190361
-0.198262
-0.20559
-0.205575
-0.189954
-0.160716
-0.124928
-0.0892683
-0.0579022
-0.0337063
-0.0208003
-0.00531909
-0.00515627
-0.0214821
-0.0342338
-0.0691958
-0.113621
-0.125193
-0.0914422
-0.0633158
-0.0486584
-0.0318757
-0.0356309
-0.0571182
-0.0528202
0.00404695
-0.177504
-0.178232
-0.174322
-0.174472
-0.178693
-0.184213
-0.188378
-0.186409
-0.171914
-0.14615
-0.114301
-0.0819545
-0.0528387
-0.0298808
-0.0170996
-0.00114442
-0.000537105
-0.0150355
-0.0265191
-0.0614677
-0.107489
-0.119245
-0.0858051
-0.0578326
-0.0429752
-0.0287942
-0.033711
-0.0550045
-0.0522009
0.00414937
-0.164504
-0.167017
-0.164237
-0.163952
-0.166874
-0.170539
-0.172366
-0.168967
-0.155448
-0.132629
-0.104238
-0.0748844
-0.0478702
-0.0260038
-0.0132169
0.00335934
0.00517177
-0.00685546
-0.0168509
-0.0515973
-0.0994616
-0.111252
-0.0790499
-0.0518349
-0.0367876
-0.0252062
-0.031281
-0.0521878
-0.0509179
0.00423414
-0.151576
-0.155412
-0.153709
-0.153211
-0.155087
-0.157317
-0.15746
-0.153066
-0.140421
-0.1201
-0.0947395
-0.0680732
-0.0430214
-0.0220956
-0.00916283
0.0081974
0.0120899
0.00346039
-0.00490975
-0.0396961
-0.0895544
-0.101226
-0.0712105
-0.0453604
-0.030153
-0.0210672
-0.0282439
-0.048496
-0.0487887
0.00428024
-0.13888
-0.143642
-0.142909
-0.142372
-0.14346
-0.144593
-0.143557
-0.138529
-0.126696
-0.108502
-0.0858002
-0.0615369
-0.038314
-0.0181924
-0.00497873
0.0133015
0.0201648
0.0160842
0.00935254
-0.0262444
-0.0779234
-0.0893249
-0.0623867
-0.0384687
-0.0231476
-0.0163496
-0.0245001
-0.0437536
-0.0456205
0.0042642
-0.12654
-0.131902
-0.132004
-0.131624
-0.132086
-0.132397
-0.130569
-0.125197
-0.114145
-0.0977779
-0.0774096
-0.0552939
-0.033764
-0.0143493
-0.000742303
0.0185072
0.029021
0.0304857
0.0253257
-0.0121636
-0.0648215
-0.0758442
-0.0527482
-0.0312423
-0.0158655
-0.0110513
-0.0199565
-0.0377997
-0.0412259
0.00416344
-0.114652
-0.120348
-0.121134
-0.120927
-0.121028
-0.120755
-0.118429
-0.112938
-0.10265
-0.0878706
-0.0695526
-0.0493654
-0.0293831
-0.0106365
0.00342603
0.0235494
0.0378731
0.044903
0.0413044
0.00141075
-0.050498
-0.0612124
-0.0425355
-0.0237874
-0.00842035
-0.00520105
-0.0145408
-0.0305123
-0.0354517
0.00396295
-0.103291
-0.109113
-0.110439
-0.110453
-0.110348
-0.109686
-0.107083
-0.101643
-0.0921077
-0.0787281
-0.0622124
-0.0437715
-0.0251884
-0.00712817
0.00737218
0.0281046
0.045646
0.0568795
0.0548692
0.0136797
-0.0352326
-0.0460185
-0.0320577
-0.0162317
-0.000944052
0.00113308
-0.00822551
-0.0217289
-0.0282175
0.00366435
-0.0925148
-0.0983043
-0.100041
-0.100291
-0.100101
-0.0992079
-0.0964921
-0.0912271
-0.0824298
-0.0703019
-0.0553727
-0.0385265
-0.0212123
-0.00389272
0.0109341
0.0318627
0.0512877
0.0645799
0.0641803
0.0243986
-0.0196402
-0.03103
-0.0216721
-0.00871706
0.00641625
0.00783464
-0.00105664
-0.0117034
-0.0195707
0.00329197
-0.082367
-0.0880067
-0.0900421
-0.0905202
-0.0903319
-0.0893321
-0.0866251
-0.0816207
-0.0735416
-0.0625472
-0.0490216
-0.0336399
-0.0174999
-0.000987897
0.0139679
0.0345536
0.0543865
0.0677604
0.0687944
0.0333883
-0.00483482
-0.0170762
-0.0117351
-0.00139181
0.0135062
0.014726
0.00682522
-0.000716208
-0.00973743
0.00288772
-0.0728776
-0.0782841
-0.0805233
-0.0812095
-0.0810822
-0.0800686
-0.0774573
-0.0727699
-0.0653825
-0.0554234
-0.0431506
-0.0291179
-0.0140953
0.00154147
0.0163675
0.0360316
0.0551166
0.0675597
0.0694892
0.0402664
0.00804412
-0.00478447
-0.00253371
0.00559534
0.0201666
0.0215676
0.0151412
0.0107576
0.000851896
0.00249517
-0.0640653
-0.0691832
-0.0715485
-0.072417
-0.0723864
-0.0714252
-0.0689691
-0.0646317
-0.0579045
-0.0488951
-0.0377538
-0.0249651
-0.0110294
0.0036697
0.0180919
0.03636
0.0539968
0.065281
0.0675015
0.0447605
0.0183545
0.00556781
0.00575179
0.0121052
0.0262258
0.0280732
0.0234672
0.0219843
0.0115233
0.00221302
-0.0559401
-0.060737
-0.0631669
-0.0641889
-0.0642735
-0.0634083
-0.0611454
-0.0571725
-0.0510707
-0.0429331
-0.0328245
-0.0211841
-0.00831489
0.00539685
0.0191673
0.0357729
0.0516517
0.0618697
0.0640223
0.0470882
0.026086
0.0140238
0.0130333
0.0180271
0.0315125
0.0339278
0.0312595
0.032082
0.0214171
0.00222035
-0.0485054
-0.0529672
-0.0554146
-0.0565615
-0.0567675
-0.0560241
-0.0539749
-0.0503669
-0.0448525
-0.0375138
-0.0283538
-0.0177735
-0.00594705
0.00674532
0.0196789
0.0345652
0.0486382
0.0579357
0.0599494
0.0477886
0.0315974
0.0207872
0.0192832
0.0232897
0.0359126
0.0388447
0.0379343
0.0402021
0.0296718
0.00272709
-0.0417608
-0.045888
-0.0483175
-0.0495633
-0.0498884
-0.0492791
-0.0474505
-0.0441966
-0.0392287
-0.0326191
-0.0243311
-0.0147278
-0.0039091
0.00775705
0.0197469
0.0330001
0.045373
0.0538661
0.0558456
0.0474177
0.0353355
0.0261037
0.024518
0.0278411
0.0393927
0.0426594
0.0430335
0.0457453
0.0356606
0.00389319
-0.035704
-0.0395083
-0.0418956
-0.0432168
-0.0436533
-0.0431801
-0.0415687
-0.0386497
-0.0341845
-0.0282354
-0.0207454
-0.0120373
-0.00217621
0.00848804
0.0194976
0.031277
0.0421403
0.0499175
0.0520106
0.0464278
0.0377198
0.0302088
0.0287915
0.031657
0.0419506
0.0453473
0.0463806
0.0485336
0.039222
0.00570539
-0.0303328
-0.0338351
-0.0361646
-0.0375416
-0.0380786
-0.0377364
-0.0363304
-0.0337205
-0.029711
-0.024354
-0.0175862
-0.00969033
-0.000719551
0.00899716
0.0190494
0.0295408
0.0391174
0.0462613
0.0485814
0.0451456
0.0391142
0.0333152
0.0321873
0.0347556
0.0436562
0.0470184
0.0481763
0.0490519
0.0406737
0.0078795