/*--------------------------------*- C++ -*----------------------------------*\
  =========                 |
  \\      /  F ield         | OpenFOAM: The Open Source CFD Toolbox
   \\    /   O peration     | Website:  https://openfoam.org
    \\  /    A nd           | Version:  7
     \\/     M anipulation  |
\*---------------------------------------------------------------------------*/
FoamFile
{
    version     2.0;
    format      ascii;
    class       surfaceScalarField;
    location    "155";
    object      phi;
}
// * * * * * * * * * * * * * * * * * * * * * * * * * * * * * * * * * * * * * //

dimensions      [0 3 -1 0 0 0 0];

internalField   nonuniform List<scalar> 
16735
(
-0.000130042
-0.00189061
0.00202066
-0.000461076
-0.00402795
0.00435899
-0.000961271
-0.0050228
0.00552299
-0.00160275
-0.00515459
0.00579607
-0.00236459
-0.00471951
0.00548134
-0.00323175
-0.00393645
0.00480361
-0.0041928
-0.00288657
0.00384762
-0.00524099
-0.00151021
0.0025584
-0.00637383
0.000358246
0.000774596
0.00300164
-0.00177067
-0.0076048
-0.000140183
-0.00175043
-0.000486886
-0.00368125
-0.000999771
-0.00450991
-0.00164736
-0.004507
-0.00240854
-0.00395832
-0.00326957
-0.00307543
-0.00421997
-0.00193617
-0.00525236
-0.000477808
-0.00636312
0.001469
0.00419068
-0.00755216
-0.000146351
-0.00160408
-0.000500203
-0.0033274
-0.00101363
-0.00399649
-0.00165117
-0.00386946
-0.00239017
-0.00321932
-0.00321599
-0.0022496
-0.00411601
-0.00103615
-0.0050782
0.000484385
-0.00609251
0.00248331
0.00523724
-0.00713907
-0.000149109
-0.00145497
-0.000502951
-0.00297355
-0.00100677
-0.00349267
-0.00162066
-0.00325558
-0.00231895
-0.00252104
-0.00308402
-0.00148452
-0.00389833
-0.000221845
-0.00474161
0.00132766
-0.00559282
0.00333452
0.00605226
-0.00640785
-0.000149228
-0.00130574
-0.000497621
-0.00262516
-0.000984201
-0.00300609
-0.00156404
-0.00267574
-0.00220712
-0.00187795
-0.00289099
-0.000800652
-0.00359093
0.000478094
-0.00427521
0.00201194
-0.00490892
0.00396824
0.00656363
-0.00542029
-0.000147602
-0.00115814
-0.000487031
-0.00228573
-0.000951504
-0.00254161
-0.00149059
-0.00213665
-0.00206877
-0.00129978
-0.00265726
-0.000212158
-0.00322255
0.00104338
-0.00371913
0.00250852
-0.00409625
0.00434537
0.00672013
-0.00425276
-0.000145154
-0.00101299
-0.000474037
-0.00195685
-0.000914349
-0.0021013
-0.00140978
-0.00164122
-0.0019185
-0.000791063
-0.0024044
0.000273742
-0.00282424
0.00146322
-0.00311739
0.00280166
-0.00321599
0.00444397
0.00649395
-0.0029898
-0.000142728
-0.000870261
-0.000461229
-0.00163835
-0.00087787
-0.00168466
-0.00133031
-0.00118878
-0.00176994
-0.000351436
-0.00215289
0.000656693
-0.00242604
0.00173637
-0.00251315
0.00288877
-0.00232818
0.004259
0.00588298
-0.00171722
-0.00014099
-0.00072927
-0.000450606
-0.00132873
-0.000846037
-0.00128923
-0.00125896
-0.000775854
-0.00163395
2.35553e-05
-0.00191942
0.000942157
-0.00205275
0.00186971
-0.00194227
0.0027783
-0.00148084
0.00379757
0.00492421
-0.000522069
-0.00014033
-0.00058894
-0.000443301
-0.00102576
-0.000821069
-0.000911461
-0.00119957
-0.000397352
-0.00151683
0.000340817
-0.00171391
0.00113924
-0.0017194
0.0018752
-0.00142668
0.00248558
-0.000695288
0.00306618
0.00357055
0.000658368
-0.000140792
-0.000448149
-0.000439353
-0.000727199
-0.000802955
-0.000547859
-0.0011521
-4.82063e-05
-0.00141861
0.000607328
-0.00153667
0.0012573
-0.00142682
0.00176534
-0.000967293
0.00202605
4.17505e-05
0.00205713
0.00184424
0.00176806
-0.000142042
-0.000306106
-0.000437607
-0.000431634
-0.0007892
-0.000196266
-0.00111206
0.000274651
-0.00133182
0.000827094
-0.00137578
0.00130125
-0.00115727
0.00154684
-0.000546777
0.00141555
0.00065723
0.000853125
-0.000319758
0.00282123
-0.000143386
-0.000162721
-0.000435758
-0.000139262
-0.000774878
0.000142855
-0.0010705
0.000570273
-0.00124128
0.000997876
-0.00120598
0.00126595
-0.000869876
0.00121074
-0.000108669
0.000654347
0.00136919
-0.000624738
-0.00290023
0.00394966
-0.000143842
-1.88789e-05
-0.000430587
0.000147483
-0.000753119
0.000465387
-0.00101486
0.000832015
-0.00112552
0.00110853
-0.000991571
0.001132
-0.000501827
0.000720991
0.000498104
-0.000345583
0.0022882
-0.00241483
-0.00592667
0.00531465
-0.000142284
0.000123405
-0.00041839
0.000423589
-0.000715946
0.000762943
-0.000930548
0.00104662
-0.000959848
0.00113783
-0.00069244
0.000864595
1.02195e-05
1.83316e-05
0.0013087
-0.00164406
0.00354927
-0.00465541
-0.00944122
0.00706382
-0.000137627
0.000261032
-0.000395518
0.00068148
-0.000655429
0.00102285
-0.000803022
0.00119421
-0.000720054
0.00105486
-0.000272206
0.000416747
0.000703938
-0.000957812
0.00241376
-0.00335388
0.00524491
-0.00748656
-0.0134626
0.00926632
-0.000129012
0.000390044
-0.00035897
0.000911438
-0.000564897
0.00122878
-0.000620023
0.00124933
-0.000386109
0.000820951
0.000299896
-0.000269258
0.0016378
-0.00229572
0.00385718
-0.00557326
0.00738367
-0.011013
-0.0179503
0.0118713
-0.00011597
0.000506014
-0.000306892
0.00110236
-0.000439997
0.00136189
-0.000373534
0.00118287
5.43999e-05
0.000393018
0.00103892
-0.00125378
0.00281656
-0.00407335
0.00563768
-0.00839438
0.00988194
-0.0152573
-0.0227914
0.0147231
-9.85173e-05
0.000604531
-0.000238856
0.0012427
-0.000279279
0.00140231
-6.07735e-05
0.000964366
0.000604615
-0.000272371
0.00194469
-0.00259385
0.00422576
-0.00635443
0.00771561
-0.0118842
0.0125974
-0.0201391
-0.0278188
0.0176249
-7.71272e-05
0.000681658
-0.000155826
0.0013214
-8.4144e-05
0.00133063
0.000315896
0.000564325
0.00125911
-0.00121559
0.00300258
-0.00433732
0.00582618
-0.00917803
0.0099986
-0.0160566
0.0153901
-0.0255306
-0.0329029
0.0204742
-5.26113e-05
0.00073427
-5.97405e-05
0.00132853
0.000141847
0.00112904
0.000750349
-4.41773e-05
0.00200612
-0.00247136
0.00418744
-0.00651863
0.00756165
-0.0125522
0.0123245
-0.0208195
0.018031
-0.0312371
-0.0407694
0.0258975
-2.59547e-05
0.000760224
4.67007e-05
0.00125587
0.000394107
0.000781635
0.00123455
-0.000884618
0.00283054
-0.00406736
0.00546768
-0.00915577
0.00936822
-0.0164528
0.0145728
-0.0260241
0.0205568
-0.037221
-0.0479981
0.0277855
2.50131e-06
0.000757723
0.000161368
0.001097
0.000668219
0.000274784
0.00176049
-0.00197689
0.00371637
-0.00602324
0.00680778
-0.0122472
0.0111716
-0.0208166
0.016646
-0.0314985
0.0226539
-0.043229
-0.0544467
0.0291025
3.12814e-05
0.000726442
0.00028278
0.000845506
0.000960923
-0.000403359
0.0023212
-0.00333717
0.00464726
-0.0083493
0.00816844
-0.0157684
0.012892
-0.0255401
0.0184558
-0.0370624
0.0242184
-0.0489916
-0.0601404
0.0299121
6.10974e-05
0.000665344
0.0004103
0.000496304
0.00127032
-0.00126337
0.00291076
-0.00497761
0.00560531
-0.0110438
0.00950512
-0.0196682
0.0144526
-0.0304876
0.0199188
-0.0425286
0.0252638
-0.0543366
-0.0650793
0.0302027
9.19849e-05
0.000573359
0.000544239
4.40494e-05
0.00159558
-0.00231471
0.0035232
-0.00690524
0.00656901
-0.0140896
0.0107681
-0.0238673
0.0157861
-0.0355056
0.0209915
-0.047734
0.0258123
-0.0591574
-0.0692997
0.0300328
0.0001245
0.00044886
0.000685462
-0.000516913
0.00193608
-0.00356534
0.00415071
-0.00911986
0.00751163
-0.0174506
0.0119063
-0.028262
0.0168429
-0.0404421
0.0216646
-0.0525557
0.0259174
-0.0634102
-0.0728725
0.0294901
0.000159298
0.000289562
0.000834829
-0.00119244
0.00229027
-0.00502077
0.00478202
-0.0116116
0.00840161
-0.0210702
0.0128735
-0.0327338
0.0175957
-0.0451644
0.0219573
-0.0569173
0.025645
-0.0670978
-0.0758779
0.0286504
0.000196938
9.26238e-05
0.000992642
-0.00198815
0.0026546
-0.00668273
0.00540158
-0.0143586
0.00920517
-0.0248737
0.0136345
-0.0371632
0.0180402
-0.04957
0.0219077
-0.0607848
0.0250634
-0.0702536
-0.0783995
0.0275851
0.000237731
-0.000145108
0.00115821
-0.00290863
0.00302302
-0.00854754
0.00599006
-0.0173256
0.00989068
-0.0287744
0.0141692
-0.0414418
0.0181907
-0.0535915
0.0215633
-0.0641575
0.0242371
-0.0729273
-0.080514
0.0263516
0.000281657
-0.000426764
0.00132967
-0.00395664
0.00338685
-0.0106047
0.00652618
-0.020465
0.0104329
-0.0326811
0.0144728
-0.0454817
0.0180744
-0.0571931
0.0209743
-0.0670574
0.0232223
-0.0751753
-0.0822878
0.024996
0.000328343
-0.000755107
0.00150394
-0.00513224
0.00373539
-0.0128362
0.00698933
-0.0237189
0.0108157
-0.0365074
0.0145533
-0.0492193
0.0177253
-0.060365
0.0201884
-0.0695205
0.0220662
-0.077053
-0.0837754
0.0235538
0.000377102
-0.00113221
0.00167697
-0.00643211
0.00405683
-0.015216
0.00736205
-0.0270241
0.011033
-0.0401784
0.0144283
-0.0526146
0.01718
-0.0631167
0.0192484
-0.071589
0.0208067
-0.0786113
-0.08502
0.0220513
0.000426985
-0.00155919
0.00184401
-0.00784913
0.00433948
-0.0177115
0.0076319
-0.0303165
0.0110875
-0.043634
0.0141208
-0.0556479
0.0164739
-0.0654698
0.018191
-0.073306
0.0194737
-0.079894
-0.0860543
0.020508
0.000476858
-0.00203605
0.00199993
-0.0093722
0.00457288
-0.0202845
0.00779226
-0.0335359
0.0109889
-0.0468306
0.0136565
-0.0583155
0.0156399
-0.0674531
0.0170466
-0.0747127
0.01809
-0.0809374
-0.0869026
0.0189383
0.000525466
-0.00256152
0.00213963
-0.0109864
0.00474877
-0.0228936
0.00784211
-0.0366293
0.0107512
-0.0497397
0.0130611
-0.0606255
0.0147065
-0.0690984
0.0158398
-0.075846
0.0166728
-0.0817705
-0.0875822
0.0173524
0.000571496
-0.00313301
0.00225838
-0.0126732
0.00486164
-0.0254969
0.0077852
-0.0395528
0.0103914
-0.0523459
0.0123591
-0.0625932
0.0136983
-0.0704377
0.01459
-0.0767377
0.0152352
-0.0824158
-0.0881052
0.0157582
0.000613645
-0.00374666
0.0023521
-0.0144117
0.00490889
-0.0280536
0.00762883
-0.0422728
0.00992695
-0.054644
0.0115727
-0.0642389
0.0126359
-0.0715009
0.0133124
-0.0774142
0.0137868
-0.0828902
-0.0884799
0.0141615
0.000650674
-0.00439733
0.00241766
-0.0161787
0.0048907
-0.0305267
0.00738265
-0.0447647
0.00937547
-0.0566368
0.0107213
-0.0655848
0.0115358
-0.0723154
0.0120188
-0.0778972
0.0123349
-0.0832063
-0.0887117
0.0125668
0.000681462
-0.00507879
0.00245295
-0.0179502
0.00480958
-0.0328833
0.00705761
-0.0470127
0.00875335
-0.0583326
0.00982194
-0.0666534
0.0104116
-0.0729051
0.0107181
-0.0782037
0.010885
-0.0833732
-0.0888047
0.010978
0.000705054
-0.00578385
0.00245698
-0.0197021
0.00466982
-0.0350962
0.00666509
-0.049008
0.00807558
-0.0597431
0.00888869
-0.0674665
0.00927404
-0.0732904
0.00941735
-0.078347
0.00944133
-0.0833971
-0.0887613
0.00939793
0.000720695
-0.00650454
0.00242981
-0.0214112
0.00447695
-0.0371433
0.00621631
-0.0507474
0.00735548
-0.0608822
0.00793335
-0.0680444
0.00813149
-0.0734886
0.00812177
-0.0783372
0.0080073
-0.0832827
-0.0885827
0.00782871
0.000727846
-0.00723239
0.00237245
-0.0230558
0.00423721
-0.0390081
0.00572188
-0.052232
0.00660465
-0.061765
0.00696561
-0.0684053
0.00699061
-0.0735136
0.00683548
-0.0781821
0.00658561
-0.0830328
-0.0882692
0.00627213
0.000726199
-0.00795859
0.00228663
-0.0246163
0.00395712
-0.0406785
0.0051916
-0.0534665
0.00583306
-0.0624065
0.00599339
-0.0685657
0.00585663
-0.0733768
0.00556156
-0.0778871
0.00517837
-0.0826496
-0.0878206
0.00472974
0.000715664
-0.00867425
0.00217469
-0.0260753
0.00364316
-0.042147
0.00463427
-0.0544576
0.00504915
-0.0628213
0.00502313
-0.0685396
0.00473387
-0.0730875
0.00430269
-0.0774559
0.00378679
-0.0821337
-0.0872365
0.00320268
0.00069636
-0.00937061
0.00203928
-0.0274182
0.00330155
-0.0434093
0.00405768
-0.0552138
0.00425998
-0.0630236
0.00406009
-0.0683397
0.00362612
-0.0726536
0.00306225
-0.076892
0.00241119
-0.0814826
-0.0865142
0.00168894
0.000668611
-0.0100392
0.00188336
-0.0286329
0.00293812
-0.0444641
0.00346859
-0.0557442
0.00347139
-0.0630264
0.00310835
-0.0679767
0.00253627
-0.0720815
0.0018442
-0.0761999
0.00105741
-0.0806958
-0.085611
0.000154121
0.000632936
-0.0106722
0.00171019
-0.0297102
0.00255826
-0.0453121
0.00287288
-0.0560588
0.00268819
-0.0628418
0.00217117
-0.0674597
0.00146595
-0.0713763
0.000646447
-0.0753804
-0.000253545
-0.0797958
-0.084595
-0.00126945
0.000589987
-0.0112621
0.00152276
-0.030643
0.00216682
-0.0459562
0.00227554
-0.0561676
0.00191431
-0.0624805
0.0012512
-0.0667966
0.000415601
-0.0705407
-0.000527706
-0.0744371
-0.00156854
-0.078755
-0.0834729
-0.00269073
0.000540532
-0.0118027
0.00132395
-0.0314264
0.00176815
-0.0464004
0.0016808
-0.0560802
0.00115289
-0.0619526
0.000350052
-0.0659937
-0.000608306
-0.0695823
-0.00167233
-0.0733731
-0.00284196
-0.0775854
-0.0822223
-0.00409247
0.000485431
-0.0122881
0.00111657
-0.0320575
0.00136614
-0.04665
0.00109203
-0.0558061
0.000406754
-0.0612673
-0.000528154
-0.0650588
-0.00160671
-0.0685038
-0.00279325
-0.0721866
-0.00408612
-0.0762925
-0.0808418
-0.00546663
0.000425583
-0.0127137
0.000903355
-0.0325353
0.000964211
-0.0467108
0.000512455
-0.0553544
-0.000321846
-0.060433
-0.0013834
-0.0639973
-0.00258087
-0.0673063
-0.00388634
-0.0708811
-0.00530143
-0.0748774
-0.0793331
-0.00681019
0.000361841
-0.0130755
0.000686888
-0.0328604
0.000565565
-0.0465895
-5.04066e-05
-0.0547384
-0.00103072
-0.0594527
-0.00221599
-0.062812
-0.00352886
-0.0659934
-0.00495048
-0.0694595
-0.00648649
-0.0733414
-0.0776986
-0.008121
0.00029516
-0.0133707
0.00046923
-0.0330344
0.00017738
-0.0462976
-0.000610225
-0.0539508
-0.00172141
-0.0583415
-0.00302445
-0.061509
-0.00444969
-0.0645682
-0.0059849
-0.0679243
-0.0076399
-0.0716864
-0.0759421
-0.00939641
0.000227268
-0.013598
0.000252419
-0.0330596
-0.000213927
-0.0458313
-0.00115044
-0.0530143
-0.00239115
-0.0571008
-0.003808
-0.0600921
-0.00534263
-0.0630335
-0.00698896
-0.0662779
-0.00876025
-0.0699151
-0.0740696
-0.0106327
0.00015825
-0.0137562
5.00753e-05
-0.0329514
-0.000599613
-0.0451816
-0.00167682
-0.0519371
-0.00303926
-0.0557384
-0.004566
-0.0585654
-0.00620711
-0.0613924
-0.00796192
-0.0645231
-0.00984626
-0.0680308
-0.0720856
-0.0118303
8.48217e-05
-0.013841
-0.000179497
-0.0326871
-0.000972168
-0.0443889
-0.00218623
-0.050723
-0.00366508
-0.0542595
-0.0052979
-0.0569326
-0.00704274
-0.0596476
-0.00890326
-0.0626626
-0.0108979
-0.0660361
-0.069987
-0.0129965
3.21393e-06
-0.0138442
-0.000400911
-0.032283
-0.00133429
-0.0434556
-0.00267733
-0.04938
-0.00426781
-0.0526691
-0.00600339
-0.055197
-0.00784989
-0.0578011
-0.00981396
-0.0606985
-0.0119142
-0.0639359
-0.0677728
-0.0141284
-6.52967e-05
-0.013779
-0.000611419
-0.0317368
-0.00168432
-0.0423827
-0.00314966
-0.0479146
-0.00484676
-0.050972
-0.00668198
-0.0533618
-0.00862921
-0.0558539
-0.0106972
-0.0586305
-0.0128899
-0.0617432
-0.065457
-0.0152058
-0.000137617
-0.0136413
-0.000814472
-0.03106
-0.00202119
-0.0411759
-0.00360261
-0.0463332
-0.00540131
-0.0491733
-0.00733277
-0.0514303
-0.00937887
-0.0538078
-0.0115517
-0.0564577
-0.0138623
-0.0594326
-0.0631777
-0.0161416
-0.000209206
-0.0134321
-0.00101063
-0.0302585
-0.00234423
-0.0398423
-0.00403562
-0.0446418
-0.00593102
-0.0472779
-0.00795484
-0.0494065
-0.0100943
-0.0516683
-0.0123501
-0.054202
-0.0146865
-0.0570961
-0.0604108
-0.0174534
-0.00027913
-0.013153
-0.00119959
-0.0293381
-0.00265299
-0.0383889
-0.00444833
-0.0428465
-0.00643573
-0.0452905
-0.0085476
-0.0472946
-0.0107724
-0.0494435
-0.0131065
-0.0518679
-0.0155676
-0.054635
-0.0576578
-0.0183206
-0.000346964
-0.012806
-0.00138085
-0.0283042
-0.00294709
-0.0368227
-0.00484042
-0.0409531
-0.00691515
-0.0432157
-0.00911094
-0.0450988
-0.0114192
-0.0471352
-0.0138445
-0.0494426
-0.0164205
-0.052059
-0.0548774
-0.0192009
-0.000412396
-0.0123936
-0.00155392
-0.0271627
-0.0032262
-0.0351504
-0.00521165
-0.0389677
-0.00736892
-0.0410585
-0.00964412
-0.0428236
-0.0120318
-0.0447475
-0.014542
-0.0469324
-0.0172047
-0.0493963
-0.0520436
-0.0200384
-0.00047516
-0.0119185
-0.00171839
-0.0259194
-0.00349003
-0.0333788
-0.00556183
-0.0368959
-0.00779692
-0.0388234
-0.0101474
-0.0404731
-0.0126113
-0.0422837
-0.0152015
-0.0443422
-0.0179421
-0.0466557
-0.0491457
-0.02084
-0.000535014
-0.0113835
-0.0018739
-0.0245806
-0.00373834
-0.0315143
-0.00589083
-0.0347434
-0.00819902
-0.0365152
-0.0106206
-0.0380515
-0.0131565
-0.0397477
-0.0158209
-0.0416778
-0.0186338
-0.0438428
-0.0461798
-0.0215998
-0.000591745
-0.0107917
-0.00202016
-0.0231521
-0.00397092
-0.0295636
-0.00619854
-0.0325158
-0.00857513
-0.0341386
-0.0110636
-0.0355631
-0.0136672
-0.0371441
-0.0164008
-0.0389442
-0.0192821
-0.0409615
-0.0431458
-0.0223161
-0.000645159
-0.0101466
-0.00215692
-0.0216404
-0.00418763
-0.0275329
-0.00648488
-0.0302185
-0.00892521
-0.0316983
-0.0114761
-0.0330122
-0.0141431
-0.0344771
-0.0169412
-0.0361461
-0.0198871
-0.0380155
-0.0400457
-0.0229872
-0.00069509
-0.00945147
-0.00228397
-0.0200515
-0.00438832
-0.0254285
-0.00674981
-0.027857
-0.00924918
-0.0291989
-0.0118582
-0.0304032
-0.014584
-0.0317513
-0.017442
-0.0332881
-0.0204486
-0.0350089
-0.0368827
-0.0236115
-0.000741391
-0.00871008
-0.00240115
-0.0183917
-0.00457292
-0.0232567
-0.00699329
-0.0254367
-0.009547
-0.0266452
-0.0122096
-0.0277406
-0.0149897
-0.0289712
-0.0179031
-0.0303747
-0.0209661
-0.0319459
-0.033661
-0.0241879
-0.000783936
-0.00792614
-0.0025083
-0.0166674
-0.00474134
-0.0210237
-0.00721528
-0.0229627
-0.00981863
-0.0240418
-0.0125303
-0.025029
-0.0153601
-0.0261413
-0.0183243
-0.0274105
-0.0214392
-0.028831
-0.0303849
-0.0247153
-0.000822614
-0.00710353
-0.00260532
-0.0148847
-0.00489352
-0.0187355
-0.00741577
-0.0204405
-0.010064
-0.0213936
-0.0128201
-0.0222729
-0.0156951
-0.0232663
-0.0187054
-0.0244003
-0.0218674
-0.025669
-0.0270594
-0.0251929
-0.000857334
-0.00624619
-0.0026921
-0.0130499
-0.00502943
-0.0163982
-0.00759476
-0.0178752
-0.0102832
-0.0187052
-0.0130791
-0.019477
-0.0159945
-0.0203509
-0.0190461
-0.0213487
-0.0222504
-0.0224647
-0.0236896
-0.0256202
-0.000888016
-0.00535818
-0.00276857
-0.0111694
-0.00514904
-0.0140177
-0.00775223
-0.015272
-0.010476
-0.0159813
-0.0133071
-0.0166459
-0.0162582
-0.0173998
-0.0193462
-0.0182607
-0.0225878
-0.0192231
-0.0202809
-0.0259966
-0.000914594
-0.00444358
-0.00283466
-0.0092493
-0.00525232
-0.0116
-0.00788819
-0.0126361
-0.0106426
-0.0132269
-0.0135041
-0.0137844
-0.0164861
-0.0144178
-0.0196056
-0.0151411
-0.0228794
-0.0159493
-0.0168385
-0.0263218
-0.000937012
-0.00350657
-0.00289032
-0.007296
-0.00533925
-0.0091511
-0.00800264
-0.00997269
-0.0107829
-0.0104467
-0.0136701
-0.0108972
-0.0166781
-0.0114098
-0.0198242
-0.011995
-0.0231251
-0.0126485
-0.0133679
-0.0265956
-0.000955227
-0.00255135
-0.00293551
-0.00531571
-0.00540982
-0.00667679
-0.00809557
-0.00728694
-0.0108968
-0.0076454
-0.0138049
-0.00798914
-0.0168341
-0.00838064
-0.0200018
-0.00882725
-0.0233246
-0.00932568
-0.00987457
-0.026818
-0.000969203
-0.00158214
-0.0029702
-0.00331471
-0.00546403
-0.00418296
-0.00816701
-0.00458396
-0.0109845
-0.00482793
-0.0139087
-0.00506495
-0.0169542
-0.00533514
-0.0201385
-0.00564296
-0.023478
-0.00598611
-0.00636382
-0.0269888
-0.000978915
-0.000603227
-0.00299438
-0.00129925
-0.00550188
-0.00167546
-0.00821696
-0.00186887
-0.0110458
-0.00199907
-0.0139813
-0.00212946
-0.0170382
-0.00227822
-0.0202341
-0.00244711
-0.0235853
-0.00263491
-0.00284115
-0.0271079
-0.000984347
0.000381119
-0.00300802
0.000724421
-0.00552337
0.000839884
-0.00824543
0.000853192
-0.0110809
0.000836353
-0.0140228
0.000812512
-0.0170862
0.000785189
-0.0202886
0.000755245
-0.0236463
0.000722813
0.000687508
-0.027175
-0.000985489
0.00136661
-0.00301113
0.00275006
-0.0055285
0.00335726
-0.00825244
0.00357713
-0.0110896
0.00367352
-0.0140333
0.00375616
-0.0170983
0.00385022
-0.0203022
0.00395917
-0.0236614
0.00408202
0.00421833
-0.0271922
-0.000982341
0.00234895
-0.0030037
0.00477143
-0.0055173
0.00587085
-0.00823799
0.00629782
-0.0110721
0.00650762
-0.0140126
0.00669667
-0.0170743
0.00691195
-0.0202747
0.00715959
-0.0236303
0.00743756
0.00774501
-0.027157
-0.00097491
0.00332386
-0.00298576
0.00678228
-0.00548975
0.00837484
-0.0082021
0.00901016
-0.0110283
0.00933382
-0.0139609
0.00962922
-0.0170144
0.00996548
-0.0202063
0.0103515
-0.023553
0.0107843
0.0112622
-0.0270701
-0.000963212
0.00428707
-0.00295731
0.00877637
-0.00544589
0.0108634
-0.00814478
0.0117091
-0.0109583
0.0121473
-0.0138781
0.012549
-0.0169185
0.0130059
-0.0200969
0.0135298
-0.0234296
0.014117
0.0147644
-0.0269319
-0.000947272
0.00523434
-0.00291838
0.0107475
-0.00538573
0.0133308
-0.00806606
0.0143894
-0.0108621
0.0149433
-0.0137643
0.0154513
-0.0167868
0.0160284
-0.0199466
0.0166896
-0.0232602
0.0174306
0.0182464
-0.0267421
-0.000927121
0.00616146
-0.00286902
0.0126894
-0.00530929
0.015771
-0.00796595
0.0170461
-0.0107397
0.0177171
-0.0136196
0.0183312
-0.0166193
0.019028
-0.0197555
0.0198259
-0.0230449
0.02072
0.0217025
-0.026501
-0.000902802
0.00706427
-0.00280925
0.0145958
-0.0052166
0.0181784
-0.00784447
0.0196739
-0.0105912
0.0204638
-0.0134441
0.0211842
-0.0164161
0.022
-0.0195239
0.0229337
-0.0227838
0.0239799
0.0251275
-0.0262088
-0.000874365
0.00793863
-0.00273914
0.0164606
-0.00510768
0.0205469
-0.00770165
0.0222679
-0.0104166
0.0231787
-0.0132378
0.0240054
-0.0161773
0.0249396
-0.0192517
0.0260081
-0.0224772
0.0272054
0.0285159
-0.0258656
-0.000841873
0.0087805
-0.00265876
0.0182775
-0.00498259
0.0228708
-0.00753751
0.0248228
-0.0102159
0.0258571
-0.0130007
0.0267902
-0.0159032
0.027842
-0.0189394
0.0290443
-0.0221254
0.0303915
0.0318624
-0.025472
-0.000805399
0.0095859
-0.00256817
0.0200403
-0.00484136
0.0251439
-0.00735209
0.0273335
-0.0099893
0.0284943
-0.0127331
0.029534
-0.0155938
0.0307027
-0.018587
0.0320375
-0.0217289
0.0335333
0.035162
-0.0250285
-0.000765028
0.0103509
-0.00246748
0.0217427
-0.00468404
0.0273605
-0.00714541
0.0297949
-0.00973676
0.0310857
-0.012435
0.0322323
-0.0152493
0.0335169
-0.018195
0.0349832
-0.0212879
0.0366262
0.03841
-0.0245359
-0.00072086
0.0110718
-0.00235679
0.0233786
-0.00451069
0.0295144
-0.00691752
0.0322017
-0.00945836
0.0336265
-0.0121066
0.0348805
-0.01487
0.0362803
-0.0177636
0.0378768
-0.0208033
0.0396659
0.0416018
-0.0239951
-0.00067301
0.0117448
-0.00223623
0.0249419
-0.00432141
0.0315996
-0.00666846
0.0345488
-0.00915418
0.0361123
-0.011748
0.0374743
-0.014456
0.0389883
-0.017293
0.0407139
-0.0202754
0.0426483
0.0447337
-0.0234073
-0.000621611
0.0123664
-0.00210597
0.0264262
-0.00411627
0.0336099
-0.00639829
0.0368308
-0.0088243
0.0385383
-0.0113593
0.0400093
-0.0140075
0.0416365
-0.0167835
0.0434899
-0.0197049
0.0455696
0.0478029
-0.0227741
-0.000566813
0.0129332
-0.00196619
0.0278256
-0.0038954
0.0355391
-0.00610706
0.0390425
-0.00846879
0.0409
-0.0109407
0.0424812
-0.0135247
0.0442205
-0.016235
0.0462002
-0.019092
0.0484266
0.0508081
-0.0220971
-0.000508791
0.013442
-0.0018171
0.0291339
-0.00365895
0.0373809
-0.00579487
0.0411784
-0.00808773
0.0431929
-0.0104924
0.0448859
-0.0130079
0.0467361
-0.0156475
0.0488398
-0.0184364
0.0512155
0.0537506
-0.0213789
-0.000447736
0.0138898
-0.00165897
0.0303452
-0.00340709
0.0391291
-0.00546181
0.0432331
-0.0076812
0.0454122
-0.0100144
0.0472191
-0.0124575
0.0491791
-0.0150202
0.0514026
-0.0177352
0.0539305
0.056637
-0.0206216
-0.000383865
0.0142736
-0.00149211
0.0314534
-0.00314003
0.040777
-0.00510802
0.0452011
-0.00724935
0.0475536
-0.00950717
0.0494769
-0.0118747
0.0515466
-0.014356
0.0538838
-0.0169877
0.0565622
0.0594804
-0.0198311
-0.00031742
0.014591
-0.00131688
0.0324529
-0.00285803
0.0423181
-0.00473367
0.0470767
-0.00679228
0.0496122
-0.00897014
0.0516548
-0.0112581
0.0538346
-0.0136504
0.0562761
-0.016165
0.0590768
0.0623082
-0.0189928
-0.000248674
0.0148397
-0.00113369
0.0333379
-0.00256137
0.0437458
-0.00433898
0.0488544
-0.0063104
0.0515836
-0.00840422
0.0537486
-0.0106113
0.0560417
-0.0129318
0.0585965
-0.0153214
0.0614665
0.0651615
-0.0181748
-0.000177972
0.0150177
-0.000943
0.0341029
-0.00225038
0.0450532
-0.00392422
0.0505282
-0.00580401
0.0534634
-0.00780949
0.0557541
-0.00992674
0.0581589
-0.0121698
0.0608395
-0.014545
0.0638417
0.0674457
-0.0168291
-0.000105918
0.0151236
-0.000745163
0.0347422
-0.00192541
0.0462334
-0.00348968
0.0520925
-0.00527323
0.0552469
-0.00718652
0.0576674
-0.00920767
0.0601801
-0.0113467
0.0629786
-0.0136024
0.0660974
0.069805
-0.0159618
-3.44818e-05
0.0151581
-0.000540078
0.0352478
-0.00158695
0.0472803
-0.00303586
0.0535414
-0.00471845
0.0569295
-0.0065363
0.0594852
-0.00845966
0.0621035
-0.0104961
0.065015
-0.0126613
0.0682625
0.072074
-0.0149302
4.13769e-05
0.0151167
-0.000326205
0.0356153
-0.00123579
0.0481899
-0.00256339
0.054869
-0.00414033
0.0585065
-0.00585992
0.0612048
-0.00768513
0.0639287
-0.00962102
0.0669509
-0.0116843
0.0703257
0.0742317
-0.0138419
0.000118702
0.014998
-9.61925e-05
0.0358302
-0.000873423
0.0489671
-0.00207262
0.0560682
-0.00353946
0.0599733
-0.00515794
0.0628233
-0.00688341
0.0656541
-0.00871735
0.0687849
-0.0106751
0.0722835
0.0762815
-0.0127249
0.000191021
0.014807
0.00011764
0.0359036
-0.000501981
0.0495867
-0.00156403
0.0571302
-0.00291664
0.0613259
-0.00443069
0.0643373
-0.00605401
0.0672775
-0.00778362
0.0705145
-0.00963341
0.0741333
0.0782275
-0.0115794
0.000260412
0.0145466
0.000326325
0.0358377
-0.000108423
0.0500215
-0.00103943
0.0580612
-0.00227253
0.062559
-0.00367851
0.0657433
-0.00519722
0.0687962
-0.00682026
0.0721375
-0.00855893
0.0758719
0.0800641
-0.0103955
0.000328872
0.0142177
0.000543124
0.0356234
0.000272354
0.0502922
-0.000503061
0.0588367
-0.00160753
0.0636635
-0.00290205
0.0670378
-0.00431362
0.0702077
-0.00582795
0.0736518
-0.0074528
0.0774968
0.0817841
-0.00917288
0.000395726
0.013822
0.000760865
0.0352583
0.000662103
0.050391
5.48163e-05
0.0594439
-0.000922569
0.0646409
-0.002102
0.0682173
-0.00340375
0.0715095
-0.00480718
0.0750553
-0.00631617
0.0790058
0.0833838
-0.00791587
0.000459676
0.0133623
0.000977854
0.0347401
0.00106012
0.0503087
0.000613361
0.0598907
-0.000220502
0.0654747
-0.00127903
0.0692758
-0.00246828
0.0726988
-0.00375859
0.0763456
-0.00515026
0.0803975
0.0848609
-0.00662729
0.000519834
0.0128425
0.00119184
0.0340681
0.00146152
0.0500391
0.0011899
0.0601623
0.000501367
0.0661633
-0.000434842
0.070212
-0.00150831
0.0737722
-0.00268303
0.0775203
-0.00395661
0.081671
0.0862131
-0.00530889
0.000575347
0.0122671
0.00140034
0.0332431
0.0018635
0.0495759
0.0017755
0.0602503
0.00124024
0.0666985
0.000432345
0.0710199
-0.000526104
0.0747307
-0.00158176
0.078576
-0.0027367
0.082826
0.0874394
-0.0039629
0.000625332
0.0116418
0.00160077
0.0322677
0.00226281
0.0489139
0.0023674
0.0601457
0.00199417
0.0670718
0.00132122
0.0716928
0.000481473
0.0755704
-0.000459975
0.0795174
-0.00148964
0.0838557
0.0885424
-0.00259265
0.000668954
0.0109728
0.00179048
0.0311462
0.00265581
0.0480485
0.00296257
0.059839
0.00276063
0.0672737
0.00222835
0.0722251
0.0015138
0.076285
0.000691976
0.0803392
-0.000200454
0.0847481
0.0895484
-0.00120652
0.000705457
0.0102674
0.0019667
0.0298849
0.00303844
0.0469768
0.00355719
0.0593202
0.00353685
0.0672941
0.00315235
0.0726096
0.00256506
0.0768723
0.00186459
0.0810397
0.0010761
0.0855366
0.0904416
0.000182944
0.000734195
0.00953318
0.00212657
0.0284925
0.0034062
0.0456972
0.00414671
0.0585797
0.00431935
0.0671214
0.00409088
0.0728381
0.00363486
0.0773283
0.00305576
0.0816188
0.00239645
0.0861959
0.0911632
0.00167486
0.000754647
0.00877853
0.0022671
0.0269801
0.00375409
0.0442102
0.00472581
0.057608
0.00510388
0.0667433
0.00504117
0.0729008
0.00472204
0.0776474
0.00426805
0.0820728
0.00373618
0.0867277
0.0917549
0.00314441
0.000766452
0.00801208
0.00238516
0.0253614
0.0040766
0.0425187
0.00528836
0.0563962
0.00588532
0.0661464
0.00599976
0.0727864
0.0058242
0.077823
0.00549778
0.0823992
0.00508976
0.0871358
0.0922205
0.00462416
0.000769461
0.00724262
0.00247808
0.0236528
0.00436787
0.0406289
0.00582727
0.0549368
0.00665743
0.0653162
0.00696216
0.0724816
0.00693812
0.077847
0.00674191
0.0825954
0.00645729
0.0874204
0.0925617
0.00611617
0.000763731
0.00647889
0.0025435
0.021873
0.00462174
0.0385507
0.00633452
0.053224
0.00741279
0.064238
0.00792288
0.0719715
0.00806023
0.0777097
0.00799833
0.0826573
0.00783801
0.0875807
0.0927801
0.00761959
0.000749519
0.00572937
0.00257951
0.020043
0.00483189
0.0362983
0.00680114
0.0512548
0.0081426
0.0628965
0.00887522
0.0712389
0.0091863
0.0773986
0.00926468
0.0825789
0.00923036
0.087615
0.0928773
0.00913319
0.000727294
0.00500207
0.00258488
0.0181854
0.00499215
0.0338911
0.00721728
0.0490297
0.00883662
0.0612772
0.00981095
0.0702646
0.010311
0.0768986
0.0105378
0.0823521
0.0106323
0.0875206
0.0928532
0.0106564
0.000697732
0.00430434
0.00255917
0.016324
0.0050968
0.0313534
0.00757242
0.0465541
0.00948299
0.0593666
0.0107201
0.0690275
0.0114275
0.0761912
0.0118137
0.0819658
0.0120413
0.087293
0.0927069
0.0121875
0.000661699
0.00364264
0.00250295
0.0144827
0.00514106
0.0287153
0.00785567
0.0438394
0.0100683
0.057154
0.0115905
0.0675052
0.0125271
0.0752547
0.0130871
0.0814058
0.0134543
0.0869258
0.0924372
0.013724
0.000620221
0.00302242
0.00241781
0.0126851
0.00512157
0.0260116
0.00805622
0.0409048
0.0105776
0.0546325
0.0124079
0.0656749
0.0135989
0.0740638
0.014351
0.0806536
0.0148672
0.0864096
0.0920413
0.0152631
0.000574441
0.00244798
0.0023064
0.0109532
0.00503695
0.023281
0.00816401
0.0377777
0.0109949
0.0518016
0.0131554
0.0635144
0.0146293
0.0725899
0.0155965
0.0796864
0.0162748
0.0857314
0.0915146
0.0168014
0.00052556
0.00192242
0.00217225
0.00930649
0.00488828
0.020565
0.00817064
0.0344954
0.0113034
0.0486689
0.0138137
0.0610041
0.0156018
0.0708018
0.0168121
0.0784761
0.0176702
0.0848733
0.0908498
0.018335
0.00047478
0.00144764
0.00201963
0.00776165
0.00467939
0.0179052
0.00807042
0.0311043
0.0114866
0.0452527
0.0143612
0.0581295
0.0164961
0.068667
0.0179827
0.0769894
0.0190443
0.0838117
0.0900353
0.0198588
0.000423238
0.0010244
0.00185325
0.00633163
0.00441689
0.0153416
0.00786152
0.0276597
0.0115294
0.0415849
0.0147747
0.0548841
0.0172885
0.0661531
0.0190897
0.0751883
0.0203846
0.0825168
0.0890543
0.0213656
0.000371967
0.000652434
0.001678
0.0050256
0.00410985
0.0129097
0.00754709
0.0242225
0.0114199
0.0377121
0.0150302
0.0512738
0.0179517
0.0632316
0.0201094
0.0730307
0.0216749
0.0809513
0.0878832
0.022846
0.00032187
0.000330564
0.00149864
0.00384883
0.00376925
0.0106391
0.00713599
0.0208557
0.0111515
0.0336966
0.0151048
0.0473205
0.0184552
0.0598812
0.0210132
0.0704727
0.0228937
0.0790707
0.0864904
0.0242866
0.000273745
5.68193e-05
0.00131977
0.0028028
0.00340726
0.00855163
0.006643
0.01762
0.0107249
0.0296146
0.0149791
0.0430664
0.0187667
0.0560935
0.0217671
0.0674724
0.0240135
0.0768243
0.084834
0.0256698
0.000228345
-0.000171526
0.00114572