/*--------------------------------*- C++ -*----------------------------------*\
  =========                 |
  \\      /  F ield         | OpenFOAM: The Open Source CFD Toolbox
   \\    /   O peration     | Website:  https://openfoam.org
    \\  /    A nd           | Version:  7
     \\/     M anipulation  |
\*---------------------------------------------------------------------------*/
FoamFile
{
    version     2.0;
    format      ascii;
    class       volVectorField;
    location    "155";
    object      U;
}
// * * * * * * * * * * * * * * * * * * * * * * * * * * * * * * * * * * * * * //

dimensions      [0 1 -1 0 0 0 0];

internalField   nonuniform List<vector> 
8500
(
(-0.00102307 -0.0567857 1.07034e-21)
(-0.00946138 -0.112854 -3.07726e-21)
(-0.0271663 -0.131658 -3.59384e-21)
(-0.0487582 -0.126982 3.57781e-21)
(-0.072326 -0.110081 -3.28915e-21)
(-0.0965084 -0.0880705 -1.75958e-21)
(-0.120351 -0.0638179 3.02361e-21)
(-0.143301 -0.0371624 3.71591e-21)
(-0.164801 -0.0064474 -5.99919e-22)
(-0.184949 0.0311269 1.81015e-21)
(0.000746248 -0.0528604 -1.18667e-21)
(-0.00640405 -0.104056 3.65984e-21)
(-0.0241891 -0.120077 -8.33151e-21)
(-0.0463598 -0.114019 7.55494e-21)
(-0.0706178 -0.0966496 3.82539e-22)
(-0.0954403 -0.074752 5.65136e-21)
(-0.11986 -0.0509977 -9.78342e-21)
(-0.143399 -0.0250662 -1.42988e-20)
(-0.16547 0.00486617 -2.69584e-21)
(-0.185978 0.0416774 6.13354e-21)
(0.00225929 -0.0486501 1.01026e-21)
(-0.00373886 -0.0948752 7.66369e-21)
(-0.0213988 -0.108253 1.82197e-20)
(-0.043757 -0.101014 -1.64958e-20)
(-0.0681506 -0.0833448 -3.61545e-21)
(-0.0928841 -0.0616685 -3.37926e-21)
(-0.116939 -0.0384793 1.70545e-20)
(-0.139869 -0.0133335 1.08466e-20)
(-0.161018 0.0157226 2.79108e-21)
(-0.179793 0.0516098 -1.88094e-20)
(0.00349246 -0.044276 3.54937e-21)
(-0.0015245 -0.0855345 -4.55884e-21)
(-0.0189036 -0.0964499 -3.30638e-20)
(-0.041113 -0.0882539 3.02557e-21)
(-0.0651497 -0.0704788 9.14122e-21)
(-0.089133 -0.0491698 -6.92243e-21)
(-0.111956 -0.0266621 -7.60099e-22)
(-0.13316 -0.00242788 -2.71049e-21)
(-0.152025 0.0256041 6.37988e-21)
(-0.167101 0.0603321 1.77914e-20)
(0.00443173 -0.0398416 2.39405e-21)
(0.000189941 -0.0762241 -1.37802e-20)
(-0.0168124 -0.0848915 3.35467e-20)
(-0.0386065 -0.0759889 -1.49531e-20)
(-0.0618745 -0.0583384 -1.1097e-22)
(-0.0845409 -0.0375892 2.058e-20)
(-0.105377 -0.0159365 -9.60684e-21)
(-0.123866 0.00719182 1.20453e-21)
(-0.13929 0.0339784 -3.88016e-21)
(-0.148919 0.0672674 8.28758e-22)
(0.00506958 -0.0354275 2.84865e-20)
(0.00136304 -0.0670938 3.5012e-20)
(-0.0152315 -0.0737595 -9.13816e-21)
(-0.0364206 -0.0644294 1.72026e-20)
(-0.0586007 -0.0471724 5.13533e-21)
(-0.0794986 -0.0272264 -7.76094e-21)
(-0.0977354 -0.00666101 -2.88169e-21)
(-0.112689 0.0151029 -1.18534e-20)
(-0.123778 0.0403347 2.5527e-21)
(-0.126492 0.0718676 -1.527e-20)
(0.00540181 -0.0310894 -2.73897e-20)
(0.00195954 -0.058249 -1.81316e-20)
(-0.0142586 -0.0631859 1.4373e-20)
(-0.0347289 -0.0537341 -2.47248e-20)
(-0.0555973 -0.037178 2.50485e-21)
(-0.0743984 -0.0183286 2.84346e-20)
(-0.0895857 0.000860794 -5.04539e-21)
(-0.100377 0.0209393 3.26306e-20)
(-0.10653 0.0442169 -1.1212e-21)
(-0.101193 0.0736482 -1.23167e-20)
(0.00542474 -0.0268581 2.208e-20)
(0.00195023 -0.0497522 -4.02391e-20)
(-0.0139752 -0.0532517 -1.5964e-20)
(-0.033678 -0.0440044 1.91107e-20)
(-0.0530964 -0.0284882 2.87393e-22)
(-0.0695889 -0.0110716 -5.28294e-20)
(-0.0814379 0.00640398 -2.73974e-21)
(-0.0876365 0.0244246 -2.50335e-20)
(-0.0885395 0.0452586 -3.1326e-20)
(-0.0743768 0.0722883 1.77194e-20)
(0.00513358 -0.0227436 -1.22992e-20)
(0.00131367 -0.0416275 6.06442e-21)
(-0.0144368 -0.0439889 1.46486e-20)
(-0.0333665 -0.0352816 -1.24643e-20)
(-0.051258 -0.0211613 -4.47515e-20)
(-0.0653204 -0.00554066 1.55481e-20)
(-0.0736749 0.00984976 2.4158e-21)
(-0.0750102 0.0254051 3.66877e-20)
(-0.0705324 0.0432155 4.63634e-20)
(-0.0471644 0.0676998 -2.02642e-20)
(0.00452246 -0.0187408 1.86933e-20)
(4.03444e-05 -0.0338701 1.7048e-20)
(-0.0156604 -0.0353878 -2.50645e-21)
(-0.033822 -0.0275475 6.31261e-20)
(-0.050131 -0.0151747 2.67564e-20)
(-0.061682 -0.00171354 1.97988e-20)
(-0.0664547 0.0112144 2.70947e-20)
(-0.0627334 0.0238864 -1.21166e-20)
(-0.0526892 0.0379691 -1.5302e-20)
(-0.0199412 0.0595241 -2.29136e-20)
(0.00358638 -0.0148381 -2.1077e-21)
(-0.00186084 -0.0264588 -2.66455e-20)
(-0.0176116 -0.0274072 -1.91126e-20)
(-0.034978 -0.0207322 -3.07538e-20)
(-0.049614 -0.0104247 -2.40385e-20)
(-0.058537 0.000550791 2.38577e-20)
(-0.0596107 0.0106804 -2.23712e-20)
(-0.0506089 0.0200928 -1.51618e-20)
(-0.0345421 0.0295268 1.90155e-21)
(0.00806628 0.0476717 6.56303e-21)
(0.00232505 -0.011026 -5.012e-20)
(-0.00435438 -0.0193701 2.41895e-20)
(-0.0201917 -0.0199887 1.7649e-20)
(-0.0366531 -0.0147259 1.15884e-20)
(-0.0494191 -0.00673671 -2.08247e-20)
(-0.0554604 0.00150888 -1.7457e-20)
(-0.0525514 0.00861434 2.47572e-20)
(-0.0379599 0.0145578 -1.94938e-20)
(-0.0149879 0.0189291 -1.43859e-21)
(0.0391912 0.0326657 -1.81613e-20)
(0.000748158 -0.00730616 4.12953e-20)
(-0.00736969 -0.0125925 1.68008e-20)
(-0.0232287 -0.0130738 1.06124e-21)
(-0.0385387 -0.0093988 -2.11439e-20)
(-0.0490515 -0.00388776 1.75274e-21)
(-0.0516956 0.00150501 2.24494e-20)
(-0.0441391 0.00555412 -6.15782e-21)
(-0.0231256 0.0082608 -7.0743e-21)
(0.00797582 0.00735156 -1.52303e-20)
(0.0767504 0.016054 2.78756e-20)
(-0.00111907 -0.00369785 2.71904e-20)
(-0.0107942 -0.0061395 -4.50067e-20)
(-0.0264732 -0.00662161 -3.45113e-20)
(-0.0402001 -0.00462465 1.49999e-20)
(-0.047816 -0.00164049 3.02877e-20)
(-0.046165 0.000919649 2.48378e-20)
(-0.0326916 0.0020851 -2.58759e-20)
(-0.00377636 0.00188364 4.84966e-20)
(0.0375661 -0.00412965 -1.4122e-20)
(0.125049 0.000784462 -3.13206e-20)
(-0.00323135 -0.000241776 -4.13513e-20)
(-0.0144703 -5.86592e-05 2.5e-20)
(-0.0296043 -0.000624312 -1.1652e-20)
(-0.0410947 -0.000305288 1.20752e-21)
(-0.0448588 0.000220298 1.24701e-20)
(-0.0375783 0.000103474 -3.94412e-20)
(-0.0163163 -0.00132383 3.37728e-20)
(0.022896 -0.00383427 -3.2172e-20)
(0.0775961 -0.0141313 4.90113e-20)
(0.187956 -0.0102181 1.67213e-20)
(-0.00552078 0.0029998 8.51668e-21)
(-0.018197 0.00556502 4.79112e-20)
(-0.0322427 0.00488157 -1.18622e-20)
(-0.0406043 0.0036085 1.21213e-20)
(-0.039234 0.0018558 1.37261e-20)
(-0.0245655 -0.000652497 -4.07549e-21)
(0.00692987 -0.00413828 2.88658e-20)
(0.0594167 -0.00815162 1.75973e-21)
(0.131647 -0.0217149 -3.06011e-20)
(0.267132 -0.0147468 3.95286e-20)
(-0.00789732 0.00594805 -2.29952e-20)
(-0.0217367 0.0106125 -4.51941e-20)
(-0.0339717 0.00981089 3.9256e-20)
(-0.0380782 0.00710346 1.95108e-20)
(-0.0299772 0.00335314 -8.99723e-20)
(-0.00575778 -0.00112852 7.23277e-20)
(0.0387608 -0.00600805 -6.35534e-20)
(0.107663 -0.0107437 1.15499e-21)
(0.202175 -0.0258985 -1.30043e-20)
(0.3605 -0.0119201 -3.5994e-20)
(-0.0102536 0.00851659 1.97266e-20)
(-0.0248267 0.0149408 -2.6076e-21)
(-0.0343609 0.0140347 -9.62532e-21)
(-0.0328777 0.010102 -1.21244e-21)
(-0.0161935 0.00471168 -5.61011e-21)
(0.0200131 -0.00124132 -2.29791e-20)
(0.0805565 -0.00680083 9.33029e-21)
(0.168676 -0.0115125 -1.47482e-20)
(0.289829 -0.0254433 4.62519e-21)
(0.462029 -0.00203713 1.24643e-21)
(-0.0124718 0.0106223 -4.02601e-20)
(-0.0271925 0.0183991 -2.85294e-21)
(-0.0329874 0.0173956 4.40161e-21)
(-0.0244121 0.0124765 1.79571e-21)
(0.00288516 0.00586119 2.9384e-20)
(0.0536341 -0.000987815 -8.45341e-20)
(0.133119 -0.00643572 5.54883e-20)
(0.24279 -0.0105742 -4.07634e-20)
(0.39315 -0.0189526 3.2253e-20)
(0.564039 0.0131138 3.34018e-20)
(-0.0144325 0.0121967 -4.89325e-21)
(-0.0285592 0.0208487 2.25199e-20)
(-0.0294496 0.0197327 -2.82713e-20)
(-0.0121551 0.0140805 -8.85563e-21)
(0.0278796 0.00670219 1.69693e-20)
(0.0956864 -0.000394886 8.03761e-20)
(0.196603 -0.00487649 -1.56548e-20)
(0.329614 -0.00788379 7.58822e-21)
(0.508151 -0.00590488 -3.80791e-20)
(0.662882 0.0271047 1.6633e-20)
(-0.0160224 0.0131957 -1.4713e-20)
(-0.0286595 0.0221835 -1.14816e-20)
(-0.023369 0.0209135 2.84205e-21)
(0.00435978 0.0147911 1.11191e-20)
(0.059275 0.00716392 -3.28318e-20)
(0.146472 0.000556142 -1.31825e-20)
(0.270527 -0.0020518 -4.06637e-20)
(0.427515 -0.00283708 3.99948e-20)
(0.627017 0.011162 4.07918e-20)
(0.762355 0.0289176 -1.62966e-20)
(-0.0171401 0.0136042 -7.0348e-21)
(-0.027238 0.0223507 2.86715e-20)
(-0.0143803 0.0208652 -3.2114e-20)
(0.0255635 0.014556 -3.73648e-21)
(0.0974564 0.00726892 -1.50859e-20)
(0.206051 0.00201568 3.24111e-20)
(0.353932 0.00226592 4.09096e-20)
(0.533348 0.00540686 -3.83041e-20)
(0.739612 0.0254908 3.96017e-20)
(0.889806 0.0299892 5.33067e-21)
(-0.0176921 0.0134363 -2.03993e-20)
(-0.0240506 0.0213636 -5.80269e-20)
(-0.00212133 0.0196017 5.669e-20)
(0.0518734 0.0134392 8.17427e-21)
(0.142737 0.00718713 1.18571e-20)
(0.274226 0.00430899 7.18706e-21)
(0.445344 0.00845537 3.13288e-20)
(0.642609 0.0167704 2.23958e-20)
(0.848215 0.0393284 -7.70472e-20)
(1.00187 0.0449308 -3.64157e-20)
(-0.0175966 0.0127404 -6.97084e-20)
(-0.0188469 0.0193017 1.40474e-20)
(0.0137773 0.0172434 -3.20817e-20)
(0.0837025 0.0116499 6.22826e-21)
(0.195341 0.00726454 1.00015e-20)
(0.350456 0.00792398 -7.07841e-20)
(0.542608 0.016952 3.08985e-20)
(0.750897 0.0307267 -2.01404e-20)
(0.949017 0.0547387 2.07945e-20)
(1.09158 0.0615067 -7.14503e-21)
(-0.0167812 0.0115813 2.52609e-20)
(-0.0113728 0.0163052 2.73552e-20)
(0.0336987 0.0140259 -1.57045e-21)
(0.121444 0.00954851 -8.77152e-21)
(0.255335 0.0080165 2.91898e-22)
(0.433724 0.0134311 5.48323e-22)
(0.642832 0.0280352 -4.68656e-20)
(0.854224 0.0467376 6.27963e-21)
(1.03806 0.0711734 5.59527e-20)
(1.16422 0.0782896 2.44347e-20)
(-0.0151644 0.0100343 -1.71536e-20)
(-0.0013706 0.0125771 -1.26953e-20)
(0.0580245 0.0102877 5.46673e-20)
(0.165421 0.00763321 1.38755e-21)
(0.322499 0.0100787 -2.28186e-20)
(0.522405 0.0213499 6.07588e-20)
(0.742672 0.0416949 1.31477e-20)
(0.94919 0.0642114 6.99812e-22)
(1.11387 0.0880261 -2.46815e-20)
(1.21974 0.0946064 -3.13925e-20)
(-0.0126562 0.0081844 3.60125e-20)
(0.0114231 0.00836585 -9.99962e-21)
(0.087106 0.00645277 -5.96358e-21)
(0.215804 0.00650422 -2.27151e-20)
(0.396195 0.0141181 3.70678e-20)
(0.614264 0.0320102 -1.80409e-20)
(0.838782 0.0576308 -2.01322e-20)
(1.03348 0.0825532 -4.6969e-21)
(1.17603 0.104782 -1.4343e-20)
(1.26113 0.109979 1.50475e-20)
(-0.00915592 0.00612087 -1.32438e-20)
(0.0272665 0.00395394 -7.89102e-20)
(0.121223 0.00300503 8.19965e-21)
(0.272524 0.00681111 2.82673e-20)
(0.475262 0.020719 2.02064e-20)
(0.706646 0.0454688 -6.67779e-20)
(0.928295 0.0753607 4.24042e-20)
(1.10593 0.101235 -1.89875e-20)
(1.22535 0.121076 2.80773e-20)
(1.29073 0.124402 7.58949e-21)
(-0.00455297 0.00393644 -1.4585e-20)
(0.0463951 -0.000351807 2.79858e-20)
(0.160536 0.000462315 3.6566e-20)
(0.335186 0.00918977 -2.61712e-20)
(0.558034 0.0302784 9.67255e-21)
(0.796814 0.0615218 -5.87999e-20)
(1.00914 0.0943499 -1.09226e-20)
(1.16639 0.119849 8.97578e-21)
(1.26319 0.136719 -2.14478e-20)
(1.31099 0.137906 -2.1422e-20)
(0.00126755 0.001729 -1.89079e-20)
(0.0689994 -0.00422619 -6.42852e-21)
(0.205037 -0.000649659 -6.6362e-20)
(0.403019 0.0141964 -1.03797e-20)
(0.642462 0.0429481 -1.0496e-21)
(0.882313 0.0797888 3.55201e-21)
(1.08014 0.114108 5.95303e-21)
(1.21543 0.13812 -2.84643e-20)
(1.29123 0.15165 5.32467e-22)
(1.324 0.150648 1.48841e-20)
(0.00841653 -0.000395226 -4.9627e-21)
(0.095202 -0.00732959 2.30661e-20)
(0.254513 0.000178714 3.24698e-20)
(0.474882 0.0222495 2.02895e-20)
(0.726354 0.0586448 -5.96808e-21)
(0.961229 0.0998179 -4.9517e-21)
(1.1409 0.134237 4.84989e-20)
(1.25412 0.155895 6.40301e-21)
(1.31114 0.165904 2.12979e-20)
(1.33151 0.162789 -8.97606e-21)
(0.0169908 -0.00231873 4.74798e-20)
(0.125035 -0.00931131 3.06082e-20)
(0.30852 0.00341662 -3.10184e-20)
(0.549331 0.0335927 -6.16935e-21)
(0.807623 0.0771104 3.22977e-21)
(1.03229 0.121166 -1.16752e-20)
(1.19163 0.154445 -2.49863e-20)
(1.28372 0.173115 -4.06674e-21)
(1.32447 0.179569 2.72394e-22)
(1.33488 0.174499 9.79075e-21)
(0.0270634 -0.00391118 5.94637e-21)
(0.15842 -0.0098149 -1.67331e-20)
(0.366381 0.00946744 3.96202e-20)
(0.624742 0.0482893 2.57369e-20)
(0.884485 0.0979894 8.15078e-22)
(1.09481 0.143444 1.80806e-20)
(1.23296 0.174537 2.63709e-21)
(1.30553 0.189787 -1.8746e-20)
(1.33255 0.192762 1.55709e-20)
(1.33514 0.185922 3.8421e-23)
(0.0386744 -0.00502995 -3.9341e-20)
(0.195158 -0.00848703 -1.1569e-20)
(0.427206 0.0186441 -1.04131e-20)
(0.699455 0.066244 -1.80883e-20)
(0.95557 0.120893 4.28472e-21)
(1.14862 0.16633 8.57162e-23)
(1.26574 0.194394 1.37956e-20)
(1.32081 0.205964 -2.28975e-21)
(1.3365 0.205603 -1.61155e-20)
(1.33306 0.197174 -1.4683e-20)
(0.051824 -0.00552255 3.21131e-21)
(0.234916 -0.00499066 1.87921e-20)
(0.489939 0.0311497 9.11273e-21)
(0.771913 0.0872429 -2.83296e-20)
(1.01994 0.145442 -1.37905e-21)
(1.19393 0.189574 -1.20765e-20)
(1.2909 0.213959 3.039e-22)
(1.33066 0.221718 5.54118e-21)
(1.33718 0.2182 -6.0385e-21)
(1.32918 0.208338 1.66709e-20)
(0.066467 -0.00523112 7.58664e-21)
(0.277235 0.000978298 -1.84494e-20)
(0.553417 0.0470687 -4.34759e-20)
(0.840756 0.110994 3.99515e-20)
(1.07705 0.171283 -2.95958e-21)
(1.23115 0.212982 8.73338e-21)
(1.30939 0.23321 -1.17575e-21)
(1.33602 0.237127 8.20896e-21)
(1.33526 0.230643 -6.48544e-22)
(1.32386 0.219467 -1.28988e-20)
(0.0825099 -0.00399828 -1.54891e-20)
(0.321539 0.00967301 2.40791e-20)
(0.616445 0.066369 1.98033e-20)
(0.904881 0.137164 -2.85435e-20)
(1.12668 0.198103 -4.72664e-21)
(1.26087 0.236408 1.78826e-21)
(1.3221 0.252151 1.77522e-20)
(1.33769 0.252262 8.53506e-22)
(1.33126 0.242996 3.33233e-21)
(1.31735 0.230585 -7.15576e-21)
(0.0998101 -0.00167385 1.17542e-20)
(0.367152 0.0212793 -1.0543e-20)
(0.67786 0.0889141 -8.99336e-21)
(0.963456 0.165396 1.53428e-20)
(1.16885 0.225621 5.26588e-21)
(1.28372 0.259741 3.95146e-21)
(1.32981 0.270794 -1.80999e-20)
(1.33628 0.267177 -6.0956e-21)
(1.32552 0.2553 -5.37328e-21)
(1.30981 0.241691 2.35853e-21)
(0.118177 0.00187782 -5.89897e-21)
(0.413328 0.0359029 -1.33059e-22)
(0.736592 0.11448 1.70261e-20)
(1.0159 0.195333 -6.21503e-21)
(1.20376 0.253588 -2.7461e-21)
(1.30035 0.282894 -1.79639e-21)
(1.33321 0.28915 4.3755e-21)
(1.33228 0.281911 7.44874e-21)
(1.3183 0.267564 -2.39871e-22)
(1.30133 0.252763 2.62584e-21)
(0.137378 0.0067707 4.1615e-21)
(0.45928 0.0535625 -1.16677e-21)
(0.791703 0.142773 -3.0564e-21)
(1.06185 0.226617 -2.76192e-21)
(1.23171 0.281783 2.47037e-21)
(1.31137 0.30579 1.9064e-21)
(1.33287 0.307222 -1.74776e-21)
(1.32605 0.296475 6.17428e-22)
(1.30975 0.279779 8.55647e-22)
(1.29196 0.263763 -1.11605e-21)
(0.157141 0.0130905 2.25278e-21)
(0.504215 0.0741882 6.39119e-22)
(0.842407 0.173449 -3.81268e-21)
(1.10114 0.2589 -3.02742e-21)
(1.25308 0.31 3.13536e-21)
(1.31736 0.328358 6.1077e-22)
(1.32927 0.324997 -1.38274e-21)
(1.31788 0.310861 1.28904e-21)
(1.3 0.29191 7.03174e-22)
(1.28173 0.274639 -7.86424e-22)
(0.177166 0.0208891 -8.78162e-22)
(0.547363 0.097625 1.78472e-21)
(0.888077 0.206125 1.17769e-20)
(1.13373 0.291843 -5.21181e-21)
(1.26828 0.338049 -2.52138e-21)
(1.31881 0.350525 -2.80402e-21)
(1.32278 0.342448 5.68347e-21)
(1.30795 0.325038 3.73598e-21)
(1.2891 0.303902 2.92368e-21)
(1.27067 0.28533 1.54335e-21)
(0.197131 0.0301808 1.81152e-20)
(0.588005 0.12364 -9.91703e-21)
(0.928242 0.240394 -1.12267e-20)
(1.1597 0.325116 1.51879e-20)
(1.27771 0.365749 7.91079e-21)
(1.31617 0.372211 -5.13163e-22)
(1.3137 0.359529 -9.45026e-21)
(1.29642 0.338953 -6.7201e-21)
(1.27711 0.315684 -6.79063e-21)
(1.2588 0.295769 3.93093e-21)
(0.216705 0.04094 -2.45204e-20)
(0.625492 0.151934 2.29714e-20)
(0.962577 0.275832 2.6335e-20)
(1.17922 0.358398 -2.57659e-20)
(1.2818 0.392921 -8.8186e-21)
(1.30984 0.393329 5.55273e-21)
(1.30228 0.376176 9.90752e-21)
(1.28337 0.352534 1.50931e-21)
(1.26405 0.327164 -2.1832e-22)
(1.24611 0.30588 -5.25803e-21)
(0.235557 0.0531007 -3.54108e-21)
(0.659264 0.182148 -3.23551e-20)
(0.990883 0.312009 -3.4491e-20)
(1.19251 0.391377 3.83341e-20)
(1.28093 0.419391 -4.32186e-21)
(1.30013 0.413781 7.71182e-21)
(1.28871 0.392312 1.44973e-21)
(1.26888 0.365696 -4.13693e-21)
(1.2499 0.338243 2.21045e-21)
(1.23253 0.315581 -2.33986e-22)
(0.253364 0.0665581 7.18105e-21)
(0.688856 0.213882 2.00663e-20)
(1.01307 0.34849 1.13126e-20)
(1.19983 0.423752 -8.89746e-21)
(1.27546 0.444985 -1.35811e-20)
(1.28735 0.43346 -1.2404e-20)
(1.27315 0.407847 -2.43854e-21)
(1.25301 0.378354 6.24247e-21)
(1.23466 0.348843 -1.30891e-21)
(1.21788 0.324788 2.90661e-21)
(0.26982 0.0811711 -2.71735e-20)
(0.713903 0.2467 -2.52177e-20)
(1.02916 0.384846 -3.95536e-21)
(1.20148 0.45523 -4.47306e-21)
(1.26576 0.469526 -9.91867e-21)
(1.27175 0.452247 5.92102e-21)
(1.25573 0.422679 -1.07932e-21)
(1.23581 0.390422 -5.41853e-21)
(1.21835 0.358955 4.88093e-21)
(1.20206 0.333407 -6.57554e-21)
(0.284647 0.0967663 6.48962e-21)
(0.734142 0.280146 2.13585e-20)
(1.03924 0.420653 1.84022e-20)
(1.19777 0.485531 1.98253e-20)
(1.25215 0.492839 4.66175e-22)
(1.25354 0.470015 1.65745e-20)
(1.23655 0.436686 9.58127e-22)
(1.21735 0.401786 -1.8277e-20)
(1.20104 0.368584 1.26467e-20)
(1.18546 0.341378 4.54061e-21)
(0.297599 0.113142 1.76164e-20)
(0.749412 0.313756 3.91301e-20)
(1.04345 0.4555 -5.16647e-21)
(1.18904 0.51438 -2.49182e-20)
(1.23493 0.51475 1.10902e-20)
(1.23294 0.48663 -1.12509e-20)
(1.21573 0.449743 -1.43613e-20)
(1.19768 0.412306 -9.2569e-22)
(1.18268 0.377495 -1.01203e-20)
(1.16831 0.348702 3.70374e-21)
(0.30847 0.130072 8.21362e-21)
(0.759637 0.347068 5.98582e-21)
(1.04201 0.488991 4.81726e-20)
(1.17561 0.541515 8.82137e-21)
(1.2144 0.535084 -7.54321e-21)
(1.21012 0.501956 -3.81303e-21)
(1.1934 0.461727 2.15822e-20)
(1.17686 0.421914 1.70456e-20)
(1.16327 0.385539 8.11112e-21)
(1.15052 0.355237 -9.67013e-22)
(0.317095 0.147315 1.68996e-21)
(0.764823 0.379628 -3.99091e-20)
(1.03519 0.520752 -5.6536e-20)
(1.15783 0.566686 1.5979e-21)
(1.19085 0.553671 1.0516e-20)
(1.18529 0.515845 -1.43743e-20)
(1.16966 0.472504 -3.08883e-20)
(1.15493 0.430492 -8.76147e-21)
(1.14296 0.392629 -4.86672e-22)
(1.13203 0.360868 3.06466e-21)
(0.323354 0.16462 -1.41939e-20)
(0.765054 0.410998 3.55355e-20)
(1.0233 0.550432 3.38369e-20)
(1.13607 0.589661 -3.04745e-20)
(1.16453 0.570331 4.69101e-21)
(1.15862 0.528152 3.33476e-20)
(1.14461 0.481952 -6.53962e-21)
(1.13194 0.437925 5.5319e-21)
(1.12179 0.398664 -2.01754e-21)
(1.11287 0.365513 -2.46484e-21)
(0.327168 0.181728 -3.17647e-20)
(0.76049 0.440754 -5.60731e-20)
(1.00671 0.577713 -1.08873e-20)
(1.11064 0.610225 1.75905e-20)
(1.1357 0.584898 1.64081e-20)
(1.13028 0.538726 -3.27354e-20)
(1.11835 0.489942 1.66839e-20)
(1.10799 0.444104 -7.31981e-21)
(1.09985 0.403552 4.9671e-21)
(1.09312 0.369103 4.80597e-22)
(0.328512 0.19838 2.42695e-20)
(0.75137 0.468489 1.84588e-21)
(0.985775 0.602305 -5.3602e-21)
(1.08179 0.628145 -2.121e-20)
(1.10464 0.597228 1.27839e-20)
(1.10047 0.547423 3.19609e-21)
(1.09102 0.496353 -8.40396e-21)
(1.0832 0.448923 2.27911e-21)
(1.0772 0.407194 -6.12961e-22)
(1.07285 0.371563 -8.68596e-22)
(0.32742 0.214329 -6.50589e-21)
(0.737999 0.493853 -8.82006e-21)
(0.960684 0.62389 2.27357e-20)
(1.04991 0.643254 1.03978e-20)
(1.07168 0.607135 -1.36062e-20)
(1.06935 0.554135 1.66272e-20)
(1.06274 0.501077 1.70337e-21)
(1.05765 0.452286 2.4784e-21)
(1.05393 0.409493 3.51442e-21)
(1.05215 0.372801 6.30115e-22)
(0.323975 0.229324 4.18674e-20)
(0.720685 0.516641 3.21587e-20)
(0.93165 0.642115 -2.65334e-21)
(1.0155 0.655361 -4.48635e-21)
(1.03706 0.6145 -5.30874e-21)
(1.03712 0.558737 -2.36998e-21)
(1.03367 0.50401 2.42219e-21)
(1.03146 0.454106 7.94801e-22)
(1.03013 0.410354 -2.92206e-21)
(1.03109 0.372723 -4.78314e-21)
(0.318248 0.243041 2.88487e-21)
(0.699582 0.536565 5.22424e-21)
(0.899345 0.656969 -2.80362e-20)
(0.97896 0.664226 1.18505e-20)
(1.00104 0.61922 1.45297e-21)
(1.00398 0.561128 -2.45147e-21)
(1.00395 0.505061 1.25079e-21)
(1.00474 0.454309 1.14751e-21)
(1.00592 0.409709 -4.38761e-21)
(1.00988 0.371275 5.91518e-21)
(0.310248 0.25519 -1.59256e-20)
(0.67494 0.553142 -1.10992e-20)
(0.864353 0.668286 8.12562e-21)
(0.940583 0.669792 1.21618e-21)
(0.963877 0.621189 -4.85043e-21)
(0.970121 0.561211 3.14258e-21)
(0.973705 0.50414 2.76027e-21)
(0.9776 0.452806 -1.11502e-20)
(0.981561 0.407493 2.55456e-20)
(0.989135 0.368487 9.9972e-21)
(0.300195 0.265553 -1.17275e-20)
(0.647222 0.566066 2.69412e-20)
(0.827006 0.675851 -1.61232e-20)
(0.900704 0.671986 -2.93513e-21)
(0.925843 0.620324 -1.18317e-21)
(0.935724 0.558906 -2.68003e-21)
(0.943064 0.501162 -9.27259e-21)
(0.950157 0.449467 4.88609e-21)
(0.957445 0.403523 -1.53976e-21)
(0.969518 0.364406 -4.71617e-21)
(0.288344 0.274114 -1.42195e-21)
(0.616883 0.575236 -8.15254e-21)
(0.787712 0.67947 3.14655e-21)
(0.85967 0.67073 -8.06462e-22)
(0.8872 0.616563 6.36712e-21)
(0.900979 0.554161 5.38623e-21)
(0.91215 0.496079 1.71137e-20)
(0.922608 0.444191 -1.25561e-20)
(0.93393 0.397443 -2.39241e-20)
(0.950333 0.358417 9.9232e-21)
(0.274822 0.280676 -1.17442e-21)
(0.584379 0.580521 -2.7488e-21)
(0.746896 0.679038 1.0652e-21)
(0.817833 0.665962 8.37794e-21)
(0.848214 0.609864 -1.35055e-20)
(0.866082 0.546943 -2.12904e-20)
(0.881151 0.488885 -6.47199e-21)
(0.895218 0.437088 -1.35881e-21)
(0.91102 0.389429 3.1254e-20)
(0.928852 0.346908 -7.10755e-21)
(0.259843 0.285091 2.41225e-21)
(0.550151 0.581816 -3.83164e-21)
(0.704986 0.674501 -7.09921e-23)
(0.775542 0.657645 6.11725e-22)
(0.809152 0.6002 -8.83923e-21)
(0.831251 0.537226 3.98826e-20)
(0.850318 0.479547 -2.75028e-20)
(0.868197 0.428231 3.29305e-20)
(0.887689 0.381284 -2.32154e-20)
(0.905402 0.340168 -3.05372e-20)
(0.243653 0.287249 -1.87062e-21)
(0.514632 0.579045 -3.98522e-22)
(0.66241 0.665838 2.0136e-22)
(0.733146 0.645771 1.40253e-20)
(0.770282 0.587563 -5.4848e-21)
(0.796712 0.524989 8.42556e-21)
(0.819857 0.468017 1.62445e-20)
(0.841565 0.417362 -8.57006e-21)
(0.864254 0.370959 -2.17715e-20)
(0.883042 0.330138 3.03054e-20)
(0.226507 0.287067 1.16987e-20)
(0.478255 0.572171 1.56385e-20)
(0.619586 0.653062 -1.47849e-20)
(0.690986 0.630357 -1.32246e-20)
(0.731869 0.571965 4.51973e-20)
(0.762685 0.510245 -4.58413e-20)
(0.78992 0.454339 5.46479e-20)
(0.815354 0.404695 -1.38127e-20)
(0.840964 0.359376 1.47925e-20)
(0.861469 0.319713 2.72527e-20)
(0.208664 0.284495 -4.48331e-21)
(0.441449 0.561193 -1.4988e-20)
(0.576926 0.636215 -8.58163e-21)
(0.649395 0.611448 -4.93661e-21)
(0.694179 0.55344 5.14198e-21)
(0.729389 0.493016 -1.16646e-20)
(0.760679 0.438518 -1.63909e-20)
(0.78972 0.39017 -3.52472e-20)
(0.818135 0.346182 3.48973e-20)
(0.840736 0.307877 -1.14352e-20)
(0.190386 0.279508 2.70041e-20)
(0.404635 0.546152 -3.11497e-21)
(0.534829 0.61537 -1.20222e-20)
(0.6087 0.58911 1.57206e-20)
(0.657471 0.532043 -2.83258e-20)
(0.697035 0.473347 7.51048e-20)
(0.732302 0.420603 -3.99893e-20)
(0.764831 0.373865 3.62159e-20)
(0.795987 0.331513 -6.65981e-20)
(0.820883 0.294758 -1.76286e-20)
(0.171934 0.272111 -8.87563e-21)
(0.368227 0.527121 2.86295e-20)
(0.493682 0.590628 6.84575e-21)
(0.569214 0.563438 -1.44903e-20)
(0.621996 0.507846 -2.49452e-20)
(0.665829 0.451297 -1.06643e-21)
(0.70496 0.400643 1.33489e-20)
(0.740849 0.355813 -3.24764e-20)
(0.774675 0.315352 1.61126e-20)
(0.801957 0.280297 2.15758e-21)
(0.153568 0.262336 -4.65092e-20)
(0.332625 0.50421 -1.14938e-20)
(0.453855 0.56212 -3.11386e-21)
(0.53124 0.534547 3.71107e-20)
(0.587998 0.480946 -3.43821e-20)
(0.635973 0.426946 -9.04174e-21)
(0.678826 0.378709 -5.42871e-21)
(0.717934 0.336074 1.0142e-20)
(0.75434 0.297738 -1.26773e-20)
(0.78403 0.264531 -1.98299e-20)
(0.13554 0.250242 4.08134e-20)
(0.298212 0.477564 -2.31319e-20)
(0.415701 0.530005 1.19765e-21)
(0.495065 0.502576 -5.6141e-20)
(0.555709 0.451457 6.08515e-20)
(0.60766 0.400388 -1.925e-20)
(0.654065 0.354882 1.15467e-20)
(0.696233 0.314713 9.99949e-21)
(0.735105 0.278719 2.90335e-20)
(0.767177 0.247506 -1.18251e-20)
(0.118093 0.23591 -1.66539e-20)
(0.265353 0.447356 4.78986e-20)
(0.379556 0.494467 2.69744e-20)
(0.460963 0.467685 4.40005e-20)
(0.525351 0.41951 -1.02384e-20)
(0.581075 0.371735 4.09262e-21)
(0.630836 0.329257 3.29866e-20)
(0.675884 0.29181 7.30429e-21)
(0.717086 0.258357 7.011e-22)
(0.751477 0.229289 -1.40865e-20)
(0.101461 0.21945 -3.78771e-20)
(0.234391 0.413792 -2.82355e-21)
(0.345732 0.455716 -1.57639e-20)
(0.42919 0.430054 -7.05901e-20)
(0.497132 0.385256 -6.81601e-20)
(0.556394 0.341115 1.1407e-20)
(0.609288 0.301943 -2.80097e-20)
(0.657017 0.267457 1.77852e-20)
(0.700395 0.236728 9.67683e-21)
(0.737004 0.209961 2.03577e-20)
(0.0858611 0.200991 5.53341e-20)
(0.205647 0.377102 -4.52544e-20)
(0.314521 0.413983 -2.29377e-20)
(0.399982 0.389883 4.07859e-20)
(0.471247 0.348863 4.62664e-20)
(0.533779 0.308669 -1.52629e-20)
(0.589561 0.273062 -1.92961e-21)
(0.639753 0.241755 -5.54382e-20)
(0.685135 0.213922 -3.13634e-20)
(0.723833 0.189609 1.19371e-20)
(0.0714985 0.180683 -3.14303e-20)
(0.179413 0.337543 1.3252e-20)
(0.286188 0.369522 4.85895e-20)
(0.373558 0.34739 -2.16849e-20)
(0.447875 0.310512 1.65415e-21)
(0.513383 0.274552 6.15195e-20)
(0.571785 0.242747 2.87723e-21)
(0.624206 0.214819 5.29376e-20)
(0.671403 0.190039 2.20813e-20)
(0.71203 0.16833 -3.50895e-20)
(0.0585588 0.158696 4.32975e-20)
(0.155957 0.295395 4.74248e-21)
(0.260974 0.322606 3.11703e-21)
(0.350115 0.302809 4.42424e-20)
(0.427178 0.270401 -5.94345e-21)
(0.495343 0.238933 -3.85516e-20)
(0.556078 0.211144 1.88677e-20)
(0.610476 0.186773 -3.01212e-20)
(0.659287 0.165188 -1.26268e-20)
(0.70166 0.146224 1.27442e-20)
(0.0472089 0.135215 -2.70162e-20)
(0.135517 0.25096 -5.17848e-20)
(0.239094 0.273526 1.1921e-20)
(0.32983 0.256389 -2.33639e-20)
(0.409302 0.22874 -1.41539e-20)
(0.479781 0.20199 3.41879e-20)
(0.542544 0.178405 -8.2751e-21)
(0.598656 0.157749 7.68255e-21)
(0.648869 0.139485 -9.31058e-21)
(0.692777 0.123398 1.84295e-20)
(0.0375951 0.110443 9.71957e-21)
(0.118298 0.204554 3.4808e-20)
(0.220733 0.222586 -4.82696e-20)
(0.312854 0.208391 2.28438e-20)
(0.394372 0.185749 -1.0399e-20)
(0.466805 0.163913 -2.92515e-20)
(0.531275 0.144694 2.38379e-20)
(0.588827 0.127889 5.02095e-21)
(0.640218 0.113054 -7.75093e-22)
(0.685431 0.0999624 -2.14247e-20)
(0.0298417 0.0845942 3.16431e-21)
(0.104476 0.156511 1.11573e-20)
(0.20605 0.170107 4.35967e-20)
(0.299318 0.159087 -8.33911e-21)
(0.382495 0.141658 -6.56895e-21)
(0.456505 0.1249 2.44386e-21)
(0.52235 0.110182 1.03211e-21)
(0.581058 0.0973393 8.88707e-21)
(0.633395 0.086025 -1.16572e-20)
(0.679662 0.0760302 -7.41745e-21)
(0.0240501 0.0578926 -7.93178e-21)
(0.0941928 0.107179 -1.35834e-20)
(0.195172 0.116418 -3.37981e-20)
(0.289327 0.10876 1.69972e-20)
(0.37376 0.0967076 1.38713e-20)
(0.448956 0.0851537 5.87682e-22)
(0.515831 0.075044 -2.31597e-20)
(0.575404 0.0662531 -1.02568e-20)
(0.62845 0.0585321 8.15792e-21)
(0.675506 0.0517149 8.70877e-21)
(0.020298 0.0305719 1.3713e-21)
(0.0875573 0.0569137 -2.82628e-21)
(0.188197 0.0618562 6.42546e-21)
(0.282959 0.0576983 -4.35298e-21)
(0.368231 0.0511414 -3.8122e-21)
(0.444213 0.0448859 -2.58788e-21)
(0.511768 0.039462 4.75352e-21)
(0.571908 0.0347875 1.80947e-20)
(0.625419 0.030713 2.62818e-21)
(0.672985 0.027132 -4.65456e-21)
(0.0186384 0.00287168 1.69731e-21)
(0.0846435 0.00607861 -4.66741e-21)
(0.18519 0.00676718 -5.28708e-21)
(0.280271 0.00619617 -3.66784e-21)
(0.365954 0.00520963 3.49083e-21)
(0.442316 0.00431065 1.57449e-21)
(0.510194 0.00362091 -1.56915e-21)
(0.570599 0.00310352 -7.13527e-21)
(0.624328 0.00271082 2.34748e-21)
(0.672112 0.00241352 -2.19496e-21)
(0.0190996 -0.0249648 -1.68386e-21)
(0.0854909 -0.0449576 4.63155e-21)
(0.186188 -0.0485009 5.25122e-21)
(0.281291 -0.0454485 -5.02572e-21)
(0.366954 -0.0408351 4.42162e-21)
(0.443284 -0.0363552 2.21277e-21)
(0.511125 -0.0322925 -3.5313e-21)
(0.571494 -0.0286374 -4.09733e-21)
(0.625196 -0.0253355 6.02557e-22)
(0.672927 -0.0223393 -1.70318e-21)
(0.0216846 -0.0526927 1.84718e-21)
(0.0901042 -0.0958248 -5.51792e-21)
(0.191194 -0.103598 1.23036e-20)
(0.286023 -0.0969368 -1.08021e-20)
(0.371232 -0.086739 -5.189e-22)
(0.44712 -0.0768936 -7.19384e-21)
(0.514564 -0.0680902 1.16763e-20)
(0.574592 -0.0602726 1.58612e-20)
(0.628015 -0.0532847 2.82367e-21)
(0.675394 -0.0470168 -6.08098e-21)
(0.0263713 -0.0800682 -1.56415e-21)
(0.0984531 -0.146154 -1.15749e-20)
(0.200181 -0.158176 -2.69685e-20)
(0.294442 -0.14797 2.33415e-20)
(0.37877 -0.132249 4.79006e-21)
(0.453807 -0.117087 4.25348e-21)
(0.520495 -0.103585 -2.09184e-20)
(0.57988 -0.0916384 -1.23572e-20)
(0.632774 -0.0809908 -2.76248e-21)
(0.679514 -0.0714816 1.87667e-20)
(0.0331127 -0.106851 -5.50434e-21)
(0.110472 -0.19558 6.98247e-21)
(0.213091 -0.211888 4.86568e-20)
(0.306503 -0.198254 -4.3949e-21)
(0.389528 -0.177114 -1.25159e-20)
(0.46331 -0.156721 8.94766e-21)
(0.528888 -0.13859 6.78076e-22)
(0.58733 -0.122574 3.14107e-21)
(0.639451 -0.108313 -6.90641e-21)
(0.685276 -0.0956197 -1.82146e-20)
(0.0418372 -0.132805 -3.6932e-21)
(0.126063 -0.243745 2.01385e-20)
(0.229835 -0.264395 -4.87998e-20)
(0.322129 -0.247497 2.10748e-20)
(0.403442 -0.221087 2.11505e-22)
(0.475577 -0.195582 -2.67475e-20)
(0.539699 -0.172924 1.1851e-20)
(0.596902 -0.15292 -1.12424e-21)
(0.648008 -0.135114 4.48965e-21)
(0.692653 -0.119315 -1.2872e-21)
(0.0524491 -0.157704 -4.21783e-20)
(0.145092 -0.290299 -5.05282e-20)
(0.250292 -0.315364 1.33254e-20)
(0.341223 -0.295415 -2.41528e-20)
(0.420433 -0.263928 -6.76069e-21)
(0.490537 -0.233465 1.02086e-20)
(0.552865 -0.206407 3.76576e-21)
(0.608542 -0.182524 1.39009e-20)
(0.658396 -0.161256 -2.98917e-21)
(0.701614 -0.14245 1.61968e-20)
(0.0648296 -0.181331 4.03076e-20)
(0.167392 -0.334906 2.59487e-20)
(0.274314 -0.364475 -1.94889e-20)
(0.363662 -0.341734 3.28313e-20)
(0.440396 -0.305403 -2.71366e-21)
(0.508103 -0.270169 -3.55221e-20)
(0.568312 -0.238868 6.21444e-21)
(0.622181 -0.211236 -3.77774e-20)
(0.670557 -0.186609 1.52164e-21)
(0.712116 -0.164909 1.36423e-20)
(0.0788378 -0.20348 -2.95052e-20)
(0.192767 -0.377244 5.2967e-20)
(0.301722 -0.411418 2.08089e-20)
(0.389299 -0.386188 -2.59962e-20)
(0.46321 -0.345289 3.54592e-22)
(0.528171 -0.305502 6.5276e-20)
(0.58595 -0.270142 2.87607e-21)
(0.637743 -0.238912 2.88581e-20)
(0.68442 -0.211048 3.51048e-20)
(0.724114 -0.186581 -1.96527e-20)
(0.0943119 -0.223962 1.65203e-20)