/*--------------------------------*- C++ -*----------------------------------*\
  =========                 |
  \\      /  F ield         | OpenFOAM: The Open Source CFD Toolbox
   \\    /   O peration     | Website:  https://openfoam.org
    \\  /    A nd           | Version:  7
     \\/     M anipulation  |
\*---------------------------------------------------------------------------*/
FoamFile
{
    version     2.0;
    format      ascii;
    class       volVectorField;
    location    "165";
    object      U;
}
// * * * * * * * * * * * * * * * * * * * * * * * * * * * * * * * * * * * * * //

dimensions      [0 1 -1 0 0 0 0];

internalField   nonuniform List<vector> 
2125
(
(-0.00167272 -0.0419627 1.04146e-21)
(-0.0115196 -0.075479 -2.99618e-21)
(-0.0305364 -0.0776097 -3.49934e-21)
(-0.0530395 -0.0615882 3.48196e-21)
(-0.0772665 -0.0371772 -3.19769e-21)
(-0.101946 -0.00967086 -1.7068e-21)
(-0.126091 0.0195182 2.92348e-21)
(-0.149082 0.0511928 3.58156e-21)
(-0.170403 0.0868677 -5.74812e-22)
(-0.190111 0.128568 1.72709e-21)
(-0.000313883 -0.0377461 -1.15455e-21)
(-0.00905853 -0.0663888 3.56316e-21)
(-0.0276737 -0.0658857 -8.11739e-21)
(-0.0500031 -0.0485947 7.35583e-21)
(-0.0740112 -0.0237742 3.72887e-22)
(-0.0983146 0.00355451 5.48227e-21)
(-0.121902 0.0321272 -9.4644e-21)
(-0.144149 0.0629126 -1.37831e-20)
(-0.164393 0.0975993 -2.59017e-21)
(-0.182288 0.138327 5.87647e-21)
(0.000791757 -0.03355 9.8772e-22)
(-0.00697525 -0.0574954 7.47491e-21)
(-0.0249896 -0.0545811 1.77591e-20)
(-0.0467687 -0.0362158 -1.60614e-20)
(-0.0700234 -0.0111228 -3.51526e-21)
(-0.0932514 0.0159337 -3.27657e-21)
(-0.115387 0.043795 1.65212e-20)
(-0.135772 0.0735479 1.04676e-20)
(-0.153588 0.107038 2.66826e-21)
(-0.167748 0.146404 -1.80381e-20)
(0.00164589 -0.0294836 3.47279e-21)
(-0.00529601 -0.0489989 -4.44412e-21)
(-0.0225798 -0.0439352 -3.226e-20)
(-0.0435134 -0.0247189 2.94698e-21)
(-0.06557 0.000480889 8.89445e-21)
(-0.0871196 0.0271405 -6.72524e-21)
(-0.107019 0.0541632 -7.16871e-22)
(-0.12455 0.0826968 -2.62478e-21)
(-0.138807 0.114733 6.15071e-21)
(-0.147559 0.152321 1.71421e-20)
(0.00225762 -0.0256267 2.34994e-21)
(-0.00403912 -0.0410481 -1.34764e-20)
(-0.0205393 -0.0341348 3.27563e-20)
(-0.0404253 -0.0143268 -1.46007e-20)
(-0.0609439 0.0107742 -1.06927e-22)
(-0.0803298 0.0368732 2.002e-20)
(-0.0973459 0.0628947 -9.31663e-21)
(-0.111189 0.0899885 1.15133e-21)
(-0.121017 0.120275 -3.75343e-21)
(-0.12299 0.15568 8.5149e-22)
(0.00263895 -0.0220268 2.79535e-20)
(-0.00321925 -0.0337359 3.42665e-20)
(-0.0189609 -0.025308 -8.92495e-21)
(-0.0376939 -0.00520869 1.67912e-20)
(-0.056448 0.0195396 5.01657e-21)
(-0.0733169 0.044867 -7.54893e-21)
(-0.0869599 0.0696867 -2.80755e-21)
(-0.0964578 0.0950916 -1.15342e-20)
(-0.10126 0.123305 2.48597e-21)
(-0.0954423 0.156228 -1.48402e-20)
(0.00280017 -0.0186991 -2.68808e-20)
(-0.00285132 -0.0270983 -1.77465e-20)
(-0.0179325 -0.0175201 1.40829e-20)
(-0.0354991 0.00252816 -2.41885e-20)
(-0.0523752 0.026617 2.45295e-21)
(-0.066511 0.0509078 2.77203e-20)
(-0.0764603 0.0742825 -4.91872e-21)
(-0.0811345 0.0977182 3.17565e-20)
(-0.0805333 0.123475 -1.05153e-21)
(-0.0663731 0.153928 -1.20762e-20)
(0.00274611 -0.0156289 2.17293e-20)
(-0.00295313 -0.021118 -3.94876e-20)
(-0.0175322 -0.0107738 -1.56381e-20)
(-0.0339974 0.00884364 1.86839e-20)
(-0.0489831 0.0319154 2.90874e-22)
(-0.0602992 0.0548505 -5.15261e-20)
(-0.0664044 0.0764903 -2.68199e-21)
(-0.0659724 0.0976338 -2.43977e-20)
(-0.0596067 0.12033 -3.06398e-20)
(-0.0370073 0.148525 1.74193e-20)
(0.00247367 -0.0127778 -1.21181e-20)
(-0.00354561 -0.0157329 5.94167e-21)
(-0.0178211 -0.0050142 1.43709e-20)
(-0.0333036 0.013767 -1.22199e-20)
(-0.0464625 0.0354238 -4.37542e-20)
(-0.0549783 0.0566389 1.51682e-20)
(-0.057242 0.0762165 2.34782e-21)
(-0.0516988 0.0947545 3.58036e-20)
(-0.0391954 0.113816 4.54897e-20)
(-0.00797901 0.139205 -2.00027e-20)
(0.00197135 -0.0100913 1.84461e-20)
(-0.00464993 -0.0108485 1.67746e-20)
(-0.018833 -0.000137593 -2.4539e-21)
(-0.0334701 0.0173949 6.18603e-20)
(-0.0448997 0.0372184 2.61784e-20)
(-0.0506904 0.0563237 1.93433e-20)
(-0.0491789 0.0734921 2.64466e-20)
(-0.0386556 0.0891175 -1.18271e-20)
(-0.0200938 0.104193 -1.50234e-20)
(0.0203052 0.125413 -2.2963e-20)
(0.00122118 -0.00750853 -2.0549e-21)
(-0.00628094 -0.00635278 -2.619e-20)
(-0.0205615 0.00399513 -1.87653e-20)
(-0.0344632 0.0198836 -3.01418e-20)
(-0.0442375 0.0374644 -2.35047e-20)
(-0.0473627 0.0540726 2.33107e-20)
(-0.0421161 0.0684786 -2.18347e-20)
(-0.0266438 0.0809412 -1.48246e-20)
(-0.00223973 0.0917109 1.85637e-21)
(0.048184 0.107567 6.48729e-21)
(0.000203237 -0.00497321 -4.94554e-20)
(-0.00843758 -0.00213385 2.38053e-20)
(-0.022944 0.00754197 1.73281e-20)
(-0.0361395 0.0214368 1.13609e-20)
(-0.0442347 0.03641 -2.03567e-20)
(-0.0446446 0.0501805 -1.70505e-20)
(-0.0355357 0.0615731 2.41747e-20)
(-0.0148632 0.0707145 -1.90582e-20)
(0.0154956 0.0768377 -1.27913e-21)
(0.0776054 0.0865909 -1.81457e-20)
(-0.00109589 -0.00244643 4.07354e-20)
(-0.0110903 0.00190256 1.6516e-20)
(-0.0258477 0.0106604 1.03523e-21)
(-0.038225 0.0222862 -2.07378e-20)
(-0.0444305 0.0343711 1.7183e-21)
(-0.0418143 0.0450641 2.18992e-20)
(-0.0283972 0.053325 -6.0076e-21)
(-0.00176333 0.059169 -6.92309e-21)
(0.0354233 0.0604873 -1.51455e-20)
(0.112287 0.0641768 2.78391e-20)
(-0.00268102 9.74662e-05 2.6779e-20)
(-0.0141683 0.00581889 -4.4263e-20)
(-0.0290575 0.0134874 -3.38555e-20)
(-0.0403042 0.0226668 1.4716e-20)
(-0.0441353 0.0316988 2.96131e-20)
(-0.037796 0.0392037 2.41954e-20)
(-0.0190686 0.0443646 -2.51979e-20)
(0.0150096 0.0472434 4.74092e-20)
(0.0610386 0.043842 -1.38126e-20)
(0.157139 0.0429442 -3.14875e-20)
(-0.00453822 0.0026451 -4.07536e-20)
(-0.0175567 0.00962761 2.45963e-20)
(-0.032274 0.0161188 -1.14037e-20)
(-0.0418269 0.0227892 1.18737e-21)
(-0.0424511 0.0287424 1.21615e-20)
(-0.0312011 0.0331109 -3.84196e-20)
(-0.00546633 0.0353933 3.28764e-20)
(0.0383717 0.035891 -3.13807e-20)
(0.0966521 0.0281469 4.82123e-20)
(0.2168 0.0259225 1.67564e-20)
(-0.00661892 0.00514761 8.36465e-21)
(-0.0210807 0.0132898 4.7045e-20)
(-0.0351195 0.0185944 -1.16161e-20)
(-0.0421322 0.0228112 1.18511e-20)
(-0.0383243 0.0258074 1.33449e-20)
(-0.0204438 0.0272599 -3.95379e-21)
(0.0147046 0.0270763 2.80482e-20)
(0.0713009 0.0259378 1.64945e-21)
(0.146563 0.0146251 -3.0282e-20)
(0.293541 0.0155643 3.95931e-20)
(-0.00885311 0.00753575 -2.26208e-20)
(-0.0245179 0.0167131 -4.43627e-20)
(-0.0371572 0.0208869 3.84714e-20)
(-0.0404937 0.0228141 1.90611e-20)
(-0.0306345 0.0231103 -8.76848e-20)
(-0.00391026 0.022033 7.03303e-20)
(0.0436323 0.0199721 -6.17522e-20)
(0.11627 0.0179569 1.07411e-21)
(0.214023 0.00459484 -1.28733e-20)
(0.385496 0.0129991 -3.62246e-20)
(-0.0111428 0.00971628 1.93649e-20)
(-0.0276052 0.0197593 -2.54975e-21)
(-0.0379183 0.0229016 -9.43289e-21)
(-0.0361781 0.0227905 -1.20429e-21)
(-0.018307 0.020771 -5.4664e-21)
(0.0198615 0.0176797 -2.23482e-20)
(0.0830821 0.0144795 9.0853e-21)
(0.174873 0.0122148 -1.43462e-20)
(0.300254 -0.000345078 4.42235e-21)
(0.486401 0.0181194 1.16292e-21)
(-0.0133694 0.0115868 -3.95161e-20)
(-0.0300535 0.0222604 -2.78642e-21)
(-0.0369295 0.0244884 4.30635e-21)
(-0.0284893 0.0226537 1.7578e-21)
(-0.0004054 0.0187952 2.86177e-20)
(0.052015 0.0143088 -8.2158e-20)
(0.134164 0.0108316 5.3903e-20)
(0.247779 0.00875727 -3.96484e-20)
(0.403806 0.00144836 3.18794e-20)
(0.588005 0.0292213 3.36143e-20)
(-0.0154037 0.0130501 -4.79085e-21)
(-0.0315632 0.0240408 2.20793e-20)
(-0.033737 0.0254645 -2.76534e-20)
(-0.0168119 0.022257 -8.6432e-21)
(0.023827 0.0170991 1.65309e-20)
(0.093293 0.0119377 7.81388e-20)
(0.197166 0.00911702 -1.52206e-20)
(0.334659 0.00774786 7.3281e-21)
(0.520085 0.0105198 -3.74732e-20)
(0.685977 0.0399827 1.67108e-20)
(-0.0171159 0.0140279 -1.44268e-20)
(-0.0318374 0.0249428 -1.12549e-20)
(-0.0279183 0.0256513 2.79835e-21)
(-0.000618922 0.0214395 1.08577e-20)
(0.0549432 0.0155819 -3.20081e-20)
(0.144043 0.0105594 -1.28197e-20)
(0.271546 0.00936668 -3.95682e-20)
(0.43365 0.00984783 3.91269e-20)
(0.640385 0.0242757 4.03279e-20)
(0.784226 0.0402109 -1.63128e-20)
(-0.0183849 0.0144708 -6.90683e-21)
(-0.0305905 0.0248539 2.81228e-20)
(-0.0190784 0.0249107 -3.14312e-20)
(0.020544 0.020082 -3.66056e-21)
(0.0933287 0.014198 -1.47421e-20)
(0.204262 0.0102478 3.16027e-20)
(0.356149 0.0117076 3.9864e-20)
(0.541154 0.0158547 -3.74903e-20)
(0.753949 0.0360057 3.91693e-20)
(0.911053 0.039241 5.36115e-21)
(-0.0190998 0.0143625 -2.00402e-20)
(-0.0275522 0.0237263 -5.69092e-20)
(-0.00683846 0.0231813 5.55482e-20)
(0.0470862 0.0181646 7.9901e-21)
(0.139242 0.0130246 1.15361e-20)
(0.273611 0.0112246 7.08153e-21)
(0.449227 0.0164003 3.06392e-20)
(0.65213 0.0255016 2.19798e-20)
(0.863235 0.0478252 -7.61155e-20)
(1.02202 0.0524096 -3.64104e-20)
(-0.0224564 0.0215851 1.37746e-20)
(0.00917282 0.02051 -3.14784e-20)
(0.0793901 0.0158087 6.09228e-21)
(0.192821 0.0123101 9.74519e-21)
(0.351368 0.0138707 -6.91588e-20)
(0.548314 0.023763 3.02872e-20)
(0.761841 0.0380833 -1.97835e-20)
(0.964261 0.0616746 2.05027e-20)
(1.11017 0.0674097 -7.12125e-21)
(0.0293294 0.0170671 -1.57514e-21)
(0.117806 0.0132956 -8.58988e-21)
(0.254032 0.0124821 2.52855e-22)
(0.436325 0.0186599 5.01117e-22)
(0.650242 0.033963 -4.59033e-20)
(0.866133 0.0529528 6.14427e-21)
(1.05304 0.0768157 5.53772e-20)
(1.18126 0.0828331 2.44247e-20)
(0.0540012 0.0131418 5.37082e-20)
(0.16261 0.0110613 1.36703e-21)
(0.322558 0.0141075 -2.24476e-20)
(0.526683 0.0260318 5.96259e-20)
(0.751474 0.0468968 1.29633e-20)
(0.961574 0.0694486 7.66075e-22)
(1.12826 0.0925709 -2.43904e-20)
(1.23522 0.0980199 -3.13072e-20)
(0.213934 0.00966462 -2.23347e-20)
(0.397668 0.0178056 3.63723e-20)
(0.620065 0.0362531 -1.76693e-20)
(0.848577 0.0622019 -1.97895e-20)
(1.04593 0.086939 -4.57675e-21)
(1.18963 0.108396 -1.42058e-20)
(1.2752 0.112466 1.50482e-20)
(0.478122 0.0241297 1.98794e-20)
(0.713716 0.0493356 -6.57906e-20)
(0.938689 0.0793642 4.18563e-20)
(1.11814 0.10488 -1.87609e-20)
(1.2381 0.123909 2.78978e-20)
(1.30357 0.126154 7.59222e-21)
(1.0198 0.0978382 -1.07101e-20)
(1.17817 0.122857 8.89732e-21)
(1.27511 0.13891 -2.13093e-20)
(1.32279 0.139086 -2.13934e-20)
(1.2267 0.140591 -2.82424e-20)
(1.30238 0.153325 5.26668e-22)
(1.33494 0.151397 1.48493e-20)
(1.32161 0.167176 2.11901e-20)
(1.34174 0.163226 -8.96581e-21)
(-0.221608 0.200756 -1.32465e-22)
(-0.254736 0.337613 4.10271e-23)
(-0.24744 0.466723 1.73992e-22)
(-0.213805 0.565136 -1.70502e-22)
(-0.121064 0.558147 4.3821e-23)
(0.0303888 0.402018 1.68006e-22)
(0.202792 0.113933 4.19673e-23)
(0.377689 -0.22252 -9.70389e-23)
(0.525199 -0.487936 -8.44461e-23)
(0.608975 -0.628516 -6.28411e-23)
(0.655194 -0.663401 3.31373e-24)
(0.645315 -0.637453 -6.84654e-23)
(0.533946 -0.6616 3.8864e-23)
(0.479888 -0.495255 -1.78807e-23)
(0.587275 -0.139532 -1.51132e-23)
(0.742406 0.218923 -1.0334e-23)
(0.851718 0.434306 5.78564e-23)
(0.901209 0.452654 7.31462e-23)
(0.862362 0.557021 2.08334e-24)
(0.751326 0.497924 2.81489e-23)
(0.737446 0.374098 -1.33656e-23)
(0.848522 0.0879552 -1.03235e-23)
(0.923271 -0.189025 -4.23258e-24)
(0.933972 -0.290799 -2.06467e-23)
(0.962118 -0.559825 -2.18498e-23)
(0.942339 -0.381462 -7.17335e-24)
(0.941085 -0.237243 6.49569e-24)
(0.96183 0.00863516 5.12715e-23)
(1.0037 0.522261 7.72678e-24)
(0.971244 0.309747 3.77638e-24)
(-0.213127 0.20994 5.53255e-23)
(-0.241036 0.338871 -4.08744e-22)
(-0.226507 0.459761 -5.67853e-23)
(-0.180015 0.547245 4.42876e-22)
(-0.0683081 0.529341 -1.88676e-23)
(0.0923497 0.367839 -6.43258e-22)
(0.263043 0.0809061 5.38821e-22)
(0.433043 -0.252763 -5.26527e-22)
(0.57322 -0.509866 2.4117e-22)
(0.645188 -0.640204 -3.74938e-22)
(0.677627 -0.666524 5.18869e-22)
(0.664686 -0.62813 -3.94627e-22)
(0.555118 -0.648023 -1.94445e-23)
(0.477742 -0.498474 2.89379e-22)
(0.569278 -0.158423 -5.01865e-23)
(0.723235 0.199826 -6.4159e-23)
(0.838502 0.422839 -1.77053e-22)
(0.893823 0.451538 1.30274e-22)
(0.853789 0.565443 8.67172e-23)
(0.744057 0.504967 -1.12181e-22)
(0.732263 0.369433 -3.10123e-23)
(0.851367 0.0790042 6.44115e-23)
(0.928835 -0.192907 -3.09372e-24)
(0.939215 -0.292285 -7.62775e-23)
(0.969476 -0.560021 3.84791e-23)
(0.946808 -0.380994 6.53139e-23)
(0.943615 -0.237883 -8.83818e-25)
(0.960722 0.00643622 -9.70614e-23)
(0.998688 0.522031 1.68832e-24)
(0.969057 0.310557 -2.27857e-23)
(-0.195432 0.216532 2.90896e-21)
(-0.21667 0.337173 -2.19556e-21)
(-0.193926 0.449585 1.48294e-21)
(-0.134977 0.526023 -1.38555e-21)
(-0.00757604 0.498726 -7.20026e-22)
(0.157192 0.335541 3.65448e-21)
(0.325127 0.0509777 -1.29879e-21)
(0.489823 -0.279676 -1.47073e-21)
(0.621837 -0.528852 7.07698e-22)
(0.682303 -0.649295 -1.86531e-23)
(0.700707 -0.668403 1.37175e-22)
(0.683861 -0.618933 -2.93226e-23)
(0.577325 -0.633349 -3.72171e-23)
(0.478782 -0.499803 9.57257e-23)
(0.553425 -0.177319 4.88456e-23)
(0.705189 0.17949 -1.21646e-22)
(0.826061 0.410315 3.78067e-22)
(0.887044 0.44995 8.81138e-23)
(0.845412 0.573778 -4.89627e-23)
(0.737336 0.512055 -7.67975e-23)
(0.72829 0.364711 5.05914e-23)
(0.854906 0.0700552 9.02421e-23)
(0.934799 -0.196625 -1.77204e-22)
(0.944732 -0.29362 6.03931e-23)
(0.976659 -0.560111 -1.16878e-22)
(0.951124 -0.380475 -7.49507e-23)
(0.946223 -0.23845 1.46353e-23)
(0.959807 0.00435628 1.69933e-22)
(0.993625 0.52178 -2.03345e-23)
(0.966765 0.311291 1.40431e-23)
(-0.169967 0.220158 -3.14432e-21)
(-0.183421 0.332405 1.45965e-21)
(-0.151855 0.43626 -1.88353e-22)
(-0.0812681 0.501987 4.24849e-22)
(0.0582305 0.4672 -4.76335e-22)
(0.223462 0.305516 -2.47551e-21)
(0.387951 0.0242755 1.32226e-21)
(0.54749 -0.303192 -2.04447e-22)
(0.670697 -0.544905 9.42273e-22)
(0.719967 -0.655856 1.4633e-21)
(0.724352 -0.669005 -3.43605e-22)
(0.702803 -0.609963 2.58374e-22)
(0.60019 -0.617835 -2.83956e-22)
(0.483186 -0.49922 -3.15224e-22)
(0.540079 -0.195987 5.39142e-23)
(0.688421 0.158017 -1.60324e-22)
(0.814494 0.396734 -3.30627e-22)
(0.880872 0.447868 -8.06642e-23)
(0.83728 0.581998 1.08945e-22)
(0.731253 0.519157 -3.86078e-23)
(0.725536 0.359964 -1.53304e-22)
(0.859102 0.061154 -5.54285e-24)
(0.941136 -0.200171 7.07939e-23)
(0.950507 -0.294783 1.06164e-23)
(0.983655 -0.560079 4.08841e-23)
(0.95527 -0.379914 2.09854e-23)
(0.948887 -0.238955 1.69457e-23)
(0.95907 0.00240029 5.64719e-23)
(0.98851 0.521515 1.15581e-22)
(0.964378 0.31195 7.70957e-24)
(-0.138441 0.220591 2.20777e-21)
(-0.143357 0.324597 2.33498e-21)
(-0.102713 0.419916 1.46773e-21)
(-0.0214017 0.475517 -1.23509e-21)
(0.126618 0.435709 1.64604e-22)
(0.289732 0.277874 -8.47832e-22)
(0.450505 0.000789391 -2.25301e-21)
(0.605474 -0.323317 -6.94896e-22)
(0.719478 -0.558055 3.8031e-22)
(0.757832 -0.659971 -7.12146e-23)
(0.748471 -0.668311 -5.07754e-22)
(0.721482 -0.601288 1.08714e-22)
(0.623379 -0.601756 5.35675e-22)
(0.490996 -0.496767 -3.26261e-22)
(0.529627 -0.214178 3.2279e-22)
(0.673116 0.135529 4.65344e-23)
(0.803898 0.382101 6.88196e-22)
(0.875301 0.445266 -9.47219e-23)
(0.829455 0.590067 -1.83555e-22)
(0.725884 0.526243 -2.53414e-23)
(0.723995 0.355231 -2.02789e-22)
(0.863917 0.052347 -3.10212e-22)
(0.947824 -0.203537 -6.03808e-25)
(0.956516 -0.295754 1.75881e-22)
(0.990457 -0.559907 1.26092e-23)
(0.959233 -0.379319 3.5119e-23)
(0.951581 -0.23941 -7.5555e-23)
(0.95849 0.000572132 -2.46943e-22)
(0.983345 0.521246 -1.93243e-22)
(0.961904 0.312535 -4.4842e-23)
(-0.102687 0.217729 1.31923e-21)
(-0.098658 0.313957 2.95117e-21)
(-0.0490325 0.400567 1.30484e-21)
(0.0421182 0.447206 -4.86908e-21)
(0.195477 0.404772 5.51649e-21)
(0.354626 0.252659 -2.67887e-21)
(0.511889 -0.0195486 -6.47898e-22)
(0.663269 -0.340122 -1.13442e-21)
(0.767889 -0.568349 -2.8176e-22)
(0.79556 -0.661746 2.70505e-21)
(0.77297 -0.666313 -5.8873e-22)
(0.739873 -0.592953 -9.01391e-22)
(0.646619 -0.585392 2.24972e-24)
(0.502097 -0.492546 4.34409e-22)
(0.522453 -0.231638 -5.87138e-22)
(0.659494 0.112178 6.42989e-22)
(0.794364 0.366434 -6.84816e-22)
(0.870313 0.442118 3.64868e-22)
(0.822002 0.597941 4.26255e-23)
(0.721286 0.533289 3.14589e-22)
(0.723644 0.350554 1.40543e-22)
(0.869318 0.043681 1.17104e-22)
(0.954839 -0.206713 3.18643e-23)
(0.962732 -0.296516 1.99906e-22)
(0.997055 -0.559579 7.64919e-23)
(0.963006 -0.378696 -4.14864e-23)
(0.954284 -0.239824 2.18697e-22)
(0.958046 -0.00112521 -2.27588e-22)
(0.97813 0.520979 2.94851e-22)
(0.959355 0.313048 7.47065e-23)
(-0.0645238 0.211499 -2.51975e-21)
(-0.0514697 0.300288 4.37288e-22)
(0.00671638 0.378726 5.00658e-22)
(0.106939 0.417647 -8.32551e-22)
(0.263004 0.374695 5.97838e-22)
(0.416959 0.229824 1.34912e-21)
(0.571382 -0.0368284 1.16016e-21)
(0.720386 -0.353736 -1.61373e-21)
(0.815663 -0.575855 -1.3622e-21)
(0.832837 -0.661296 8.19721e-22)
(0.79775 -0.66302 1.57896e-22)
(0.757952 -0.584976 7.45579e-22)
(0.669687 -0.56902 -7.55085e-22)
(0.516217 -0.486716 -3.80904e-22)
(0.518898 -0.248139 5.40365e-22)
(0.647803 0.0881419 2.39918e-22)
(0.785977 0.349761 8.10692e-24)
(0.865891 0.438398 5.75713e-24)
(0.81499 0.60557 -1.30032e-22)
(0.717499 0.540275 -5.16185e-22)
(0.72444 0.345981 -2.19097e-24)
(0.875269 0.0352043 -1.86479e-22)
(0.96216 -0.209694 -1.28498e-22)
(0.969126 -0.297051 -1.13506e-22)
(1.00344 -0.559081 -1.79466e-22)
(0.966583 -0.378054 -3.36047e-23)
(0.956973 -0.240209 -2.04312e-22)
(0.95771 -0.00268967 2.61599e-22)
(0.97287 0.520721 -2.67063e-22)
(0.956741 0.313489 -7.55719e-23)
(-0.0258284 0.201858 2.77446e-21)
(-0.00362379 0.283721 4.2299e-22)
(0.0624711 0.35507 -8.77092e-23)
(0.170835 0.38722 -2.2563e-22)
(0.327639 0.345699 -8.30261e-22)
(0.475723 0.209213 5.78147e-21)
(0.62849 -0.0514506 -4.71747e-21)
(0.776438 -0.36434 -1.88012e-21)
(0.862552 -0.580651 -6.22452e-22)
(0.869374 -0.658751 1.08031e-21)
(0.822707 -0.658456 1.48803e-21)
(0.7757 -0.577357 -4.9923e-22)
(0.692409 -0.552894 -6.30152e-22)
(0.532962 -0.479481 8.96494e-22)
(0.519194 -0.263486 -1.0779e-21)
(0.638313 0.0636268 2.57704e-22)
(0.778808 0.33213 4.17159e-23)
(0.862012 0.434077 2.70858e-22)
(0.808481 0.612898 -4.0855e-22)
(0.714547 0.547183 5.91824e-22)
(0.726328 0.341562 -4.96929e-23)
(0.881734 0.0269717 8.5567e-22)
(0.969762 -0.212471 1.77648e-22)
(0.975669 -0.297341 -5.04152e-22)
(1.00961 -0.558398 3.90115e-23)
(0.969965 -0.377397 -7.14693e-23)
(0.959629 -0.240573 3.08235e-23)
(0.957455 -0.00412011 -2.20563e-22)
(0.967566 0.520477 1.59147e-22)
(0.954076 0.313859 7.14923e-23)
(0.0120238 0.189224 -1.81748e-21)
(0.0433099 0.264838 1.11722e-21)
(0.116481 0.329775 1.98742e-21)
(0.23196 0.356222 7.88846e-22)
(0.388052 0.317887 -4.73064e-21)
(0.530154 0.190566 3.53426e-22)
(0.682977 -0.0638438 1.17964e-21)
(0.83114 -0.372143 -3.9477e-21)
(0.908326 -0.582825 -9.83985e-22)
(0.904916 -0.654246 4.02402e-21)
(0.847732 -0.65266 -1.7791e-22)
(0.793106 -0.570078 7.11789e-22)
(0.714643 -0.537242 -9.17913e-22)
(0.55186 -0.47108 4.75838e-22)
(0.523399 -0.27753 -3.93959e-22)
(0.631286 0.0388544 6.29737e-22)
(0.772916 0.313607 6.89688e-23)
(0.858654 0.429127 -3.96967e-22)
(0.802533 0.619867 7.35324e-22)
(0.71243 0.554002 -4.39072e-22)
(0.729237 0.337345 2.94573e-22)
(0.888674 0.0190431 -1.21191e-22)
(0.977621 -0.215037 -5.43804e-22)
(0.982332 -0.297373 5.59695e-22)
(1.01554 -0.557519 -8.98996e-23)
(0.973158 -0.376731 2.35905e-22)
(0.962233 -0.240924 -2.35313e-22)
(0.95725 -0.00541641 3.96743e-22)
(0.962222 0.520251 -2.1117e-22)
(0.951372 0.314158 2.53416e-24)
(0.0485014 0.174058 2.25939e-22)
(0.0881334 0.243916 4.31105e-21)
(0.167479 0.303137 -5.5194e-21)
(0.28894 0.32493 -1.35643e-21)
(0.443185 0.291232 5.9869e-21)
(0.579822 0.173524 1.72001e-21)
(0.734885 -0.0744894 -4.70425e-21)
(0.884305 -0.377363 -1.23715e-21)
(0.952766 -0.582468 1.9425e-21)
(0.939244 -0.647918 1.92371e-21)
(0.872705 -0.645684 -1.63024e-22)
(0.810169 -0.563103 -4.50377e-23)
(0.73627 -0.522257 3.51853e-22)
(0.572425 -0.461765 -3.29825e-22)
(0.531341 -0.290181 2.39073e-22)
(0.626939 0.014072 -2.34684e-22)
(0.768337 0.294275 -9.29433e-23)
(0.855794 0.423519 5.07362e-22)
(0.797189 0.626414 -1.04883e-21)
(0.711134 0.560728 6.03252e-22)
(0.733088 0.333382 -2.26309e-22)
(0.896049 0.0114338 -5.86197e-22)
(0.985708 -0.217388 6.764e-23)
(0.989091 -0.297131 -1.41704e-22)
(1.02124 -0.556433 3.01126e-22)
(0.976173 -0.37606 -1.25645e-22)
(0.96477 -0.241268 -6.45857e-23)
(0.957064 -0.00657878 -1.83799e-22)
(0.956841 0.520043 -9.38032e-23)
(0.948641 0.314386 -1.23954e-23)
(0.0838743 0.156629 -3.05401e-21)
(0.130325 0.221302 5.71274e-21)
(0.214813 0.275543 -1.23976e-21)
(0.340975 0.293605 -8.53891e-21)
(0.49238 0.265615 1.04934e-20)
(0.62474 0.157635 3.96379e-21)
(0.784544 -0.0838753 -9.42185e-21)
(0.935833 -0.380237 -1.51625e-22)
(0.995659 -0.579668 -2.69404e-21)
(0.972173 -0.639906 8.82669e-22)
(0.897501 -0.637589 -1.34551e-21)
(0.826899 -0.556383 1.28163e-21)
(0.757187 -0.508094 -8.07693e-23)
(0.594201 -0.451785 1.0677e-22)
(0.542608 -0.3014 3.08905e-22)
(0.625397 -0.0104598 -7.5488e-22)
(0.76508 0.274231 5.03052e-22)
(0.853405 0.417222 -3.51853e-22)
(0.792483 0.632473 1.90763e-22)
(0.710627 0.567357 4.6353e-22)
(0.737787 0.32972 -8.50661e-23)
(0.903819 0.00417061 -2.62814e-22)
(0.993996 -0.219517 1.13233e-21)
(0.995922 -0.296605 -4.40582e-22)
(1.02668 -0.555132 6.13766e-23)
(0.979031 -0.375389 -2.09951e-22)
(0.967229 -0.241609 4.73916e-22)
(0.956865 -0.00760789 5.1831e-22)
(0.951429 0.519857 2.37298e-22)
(0.945898 0.314543 1.19247e-22)
(0.119535 0.137402 -1.68103e-21)
(0.170335 0.197468 7.41638e-21)
(0.25863 0.247403 -1.82699e-21)
(0.387973 0.262507 -2.81546e-21)
(0.535562 0.240855 9.72004e-21)
(0.665481 0.142375 -8.01419e-21)
(0.83254 -0.0924352 -5.10182e-21)
(0.985678 -0.381 1.45201e-22)
(1.0368 -0.574511 8.34485e-21)
(1.00356 -0.630354 -7.12942e-22)
(0.921986 -0.628456 -6.44113e-22)
(0.843323 -0.549866 2.21334e-22)
(0.777307 -0.494878 3.65953e-22)
(0.616793 -0.441373 -4.35904e-22)
(0.556574 -0.311189 4.20612e-22)
(0.626648 -0.034703 -2.93581e-26)
(0.763115 0.253578 2.17213e-22)
(0.851458 0.410207 -2.79916e-23)
(0.788432 0.637981 6.21991e-22)
(0.710863 0.573891 -7.20976e-22)
(0.743238 0.326404 -2.71347e-22)
(0.91194 -0.00280474 4.78038e-22)
(1.00245 -0.221422 -6.67623e-22)
(1.0028 -0.295782 2.29189e-22)
(1.03187 -0.55361 -2.34623e-22)
(0.981761 -0.374722 -3.71218e-23)
(0.969604 -0.24195 -7.23332e-23)
(0.956618 -0.00850568 -5.13961e-22)
(0.945988 0.519689 -2.57891e-23)
(0.943154 0.314628 -2.06803e-22)
(0.158201 0.117159 -2.92247e-22)
(0.209853 0.173022 4.50351e-21)
(0.3001 0.219176 -5.41205e-21)
(0.430746 0.231929 6.26013e-21)
(0.573473 0.21674 4.27285e-21)
(0.703284 0.127201 -4.2124e-21)
(0.879649 -0.100508 3.10007e-21)
(1.0338 -0.379838 -3.71777e-21)
(1.07598 -0.567097 4.84276e-21)
(1.03328 -0.619422 -7.24617e-21)
(0.946022 -0.618392 1.29029e-21)
(0.859478 -0.543507 1.00223e-21)
(0.796557 -0.482707 -4.6966e-22)
(0.639873 -0.430734 5.40901e-22)
(0.57246 -0.319587 -4.70236e-22)
(0.630503 -0.0585305 2.33895e-22)
(0.762387 0.232432 -4.11511e-22)
(0.849916 0.402446 2.91775e-22)
(0.785039 0.642871 -2.51775e-22)
(0.711783 0.580333 -2.75892e-22)
(0.749335 0.323475 3.65328e-22)
(0.920376 -0.00939787 -7.8876e-22)
(1.01106 -0.223096 1.31806e-21)
(1.00972 -0.294654 -5.12486e-22)
(1.03679 -0.551862 -4.06844e-22)
(0.984401 -0.374062 -7.84427e-23)
(0.971892 -0.24229 3.45642e-23)
(0.956293 -0.00927477 8.92632e-24)
(0.940523 0.519539 -1.1755e-22)
(0.940424 0.314642 1.86605e-22)
(0.203597 0.0970589 4.73518e-21)
(0.25186 0.148722 -2.37349e-21)
(0.341555 0.191407 1.87299e-21)
(0.471173 0.202224 -2.07866e-22)
(0.607876 0.193078 4.71707e-21)
(0.740064 0.111637 -3.98598e-21)
(0.926725 -0.108292 -6.31786e-21)
(1.0801 -0.376837 2.24492e-21)
(1.11301 -0.557551 3.66987e-21)
(1.06127 -0.60728 3.42059e-21)
(0.969475 -0.607512 -3.14212e-21)
(0.875418 -0.53725 2.69575e-21)
(0.814887 -0.471642 3.90553e-22)
(0.66317 -0.42003 -2.11376e-22)
(0.589496 -0.326633 -1.2493e-23)
(0.636595 -0.0816923 -1.6205e-22)
(0.762771 0.2109 -1.3482e-23)
(0.848731 0.393909 1.46427e-22)
(0.782292 0.647078 -9.41762e-23)
(0.713318 0.586689 1.04919e-22)
(0.755994 0.320972 -4.23068e-22)
(0.929095 -0.0154755 1.99488e-22)
(1.01978 -0.224537 -9.7855e-22)
(1.01664 -0.293216 -4.2202e-23)
(1.04146 -0.549886 3.35826e-22)
(0.986991 -0.373413 2.76955e-22)
(0.974094 -0.242626 -5.0557e-23)
(0.955856 -0.00991674 2.53287e-23)
(0.935037 0.519402 3.55278e-22)
(0.937721 0.314582 -4.60389e-23)
(0.259542 0.0785355 -3.7927e-21)
(0.300261 0.125476 5.44355e-21)
(0.386376 0.164736 -1.17573e-21)
(0.512224 0.173815 -2.91714e-21)
(0.641636 0.169754 3.91222e-21)
(0.778279 0.0953605 4.39324e-22)
(0.974544 -0.115793 -2.00701e-21)
(1.12443 -0.371984 7.83662e-21)
(1.14767 -0.545977 -1.05171e-20)
(1.08747 -0.594029 6.57102e-21)
(0.992224 -0.595844 -7.18694e-22)
(0.891203 -0.530956 -1.82821e-21)
(0.832269 -0.461659 -4.27859e-22)
(0.68645 -0.409353 3.98516e-22)
(0.607008 -0.33234 -1.02343e-22)
(0.644401 -0.104117 3.15394e-22)
(0.76408 0.189072 -3.88061e-22)
(0.847842 0.384567 2.97052e-22)
(0.780166 0.650537 2.60821e-22)
(0.715392 0.592964 1.00392e-22)
(0.763136 0.318928 4.48697e-22)
(0.938073 -0.0210903 -6.24372e-23)
(1.02858 -0.225741 4.4424e-22)
(1.02355 -0.291462 -7.90435e-23)
(1.04589 -0.547679 3.68007e-22)
(0.989573 -0.372773 2.80123e-23)
(0.97621 -0.242949 2.02205e-22)
(0.955276 -0.0104323 -2.90618e-22)
(0.929533 0.519273 -3.3308e-22)
(0.935057 0.314448 -9.26632e-23)
(0.328744 0.0630035 -3.3443e-22)
(0.35914 0.104227 -2.13092e-21)
(0.438576 0.139851 -4.83136e-21)
(0.55772 0.147183 2.22951e-21)
(0.678537 0.146809 2.31183e-21)
(0.820599 0.0783276 -1.79438e-21)
(1.02361 -0.122861 -9.29494e-22)
(1.16648 -0.365221 6.36978e-21)
(1.17978 -0.532406 -6.76038e-21)
(1.11187 -0.579631 -1.19767e-21)
(1.01416 -0.58331 6.05686e-23)
(0.906889 -0.524413 -2.40035e-22)
(0.848695 -0.452656 1.68186e-21)
(0.709496 -0.398754 -8.97265e-22)
(0.624509 -0.336702 3.43554e-22)
(0.653302 -0.125711 -3.2559e-22)
(0.766067 0.167024 -2.0305e-24)
(0.847169 0.374383 -3.97864e-22)
(0.778623 0.653182 2.44728e-22)
(0.717922 0.599158 -7.32803e-22)
(0.770702 0.317361 1.73567e-22)
(0.947305 -0.0262366 4.77849e-22)
(1.03742 -0.226707 -3.37955e-22)
(1.03043 -0.289389 2.88066e-22)
(1.05009 -0.545248 -6.27465e-22)
(0.992178 -0.372145 2.60439e-22)
(0.978237 -0.243251 -3.75145e-22)
(0.95452 -0.0108204 3.15395e-22)
(0.924013 0.519145 8.41733e-23)
(0.932445 0.314239 -1.59646e-23)
(0.412011 0.0514873 -5.0599e-23)
(0.432006 0.0857564 -2.20661e-21)
(0.502196 0.117375 9.01786e-21)
(0.6118 0.122783 -9.05698e-21)
(0.722771 0.124423 6.87157e-21)
(0.869379 0.06092 -7.28759e-21)
(1.07393 -0.129249 3.01012e-21)
(1.20587 -0.356566 -2.53475e-22)
(1.20918 -0.517041 -1.70878e-21)
(1.13449 -0.56431 1.44996e-21)
(1.03521 -0.570189 1.67385e-21)
(0.922514 -0.517739 3.52981e-22)
(0.864171 -0.444744 1.47041e-21)
(0.732099 -0.388423 -7.25692e-22)
(0.641736 -0.339832 8.82945e-22)
(0.662674 -0.146416 2.05873e-22)
(0.768427 0.144854 -5.20783e-22)
(0.846615 0.363334 1.16456e-22)
(0.777612 0.654954 6.74946e-22)
(0.720823 0.605269 4.23149e-22)
(0.778667 0.316265 -1.3512e-21)
(0.95681 -0.0309189 3.30931e-22)
(1.04629 -0.227437 2.9524e-22)
(1.03726 -0.286993 -1.30687e-22)
(1.05409 -0.542617 2.86377e-22)
(0.994823 -0.371548 -2.51709e-22)
(0.980165 -0.243531 -7.4918e-23)
(0.953555 -0.0110794 4.30673e-22)
(0.918478 0.519012 4.74231e-23)
(0.929898 0.313952 4.42588e-23)
(0.508867 0.044031 -1.26847e-22)
(0.521572 0.0703465 -1.19527e-21)
(0.580728 0.0978348 -4.57795e-21)
(0.678181 0.101053 4.9744e-21)
(0.778164 0.102918 -8.85936e-21)
(0.926055 0.0436622 -9.94533e-22)
(1.12488 -0.134066 1.12547e-20)
(1.24205 -0.346047 -8.15176e-21)
(1.23576 -0.50076 1.40432e-21)
(1.15536 -0.54932 -9.65866e-22)
(1.05531 -0.557756 3.59941e-21)
(0.938121 -0.511857 -1.23506e-21)
(0.87875 -0.438556 4.52956e-22)
(0.754091 -0.378836 3.3797e-22)
(0.658649 -0.342056 2.64577e-22)
(0.671978 -0.166482 8.09917e-23)
(0.770841 0.122541 -4.73323e-22)
(0.846058 0.351431 5.16205e-22)
(0.777076 0.655746 7.6946e-23)
(0.724004 0.61132 -4.26218e-22)
(0.787078 0.315692 2.59874e-22)
(0.966646 -0.0350292 -3.27778e-22)
(1.05513 -0.227919 2.14048e-22)
(1.04401 -0.284285 -2.34911e-22)
(1.05791 -0.539814 2.99128e-22)
(0.997502 -0.371016 1.19752e-22)
(0.981971 -0.243808 -1.1848e-22)
(0.952346 -0.0112413 -1.31957e-22)
(0.912928 0.518863 -2.30913e-22)
(0.92743 0.313586 2.4364e-23)
(0.620486 0.0383404 -2.28541e-21)
(0.630271 0.0573426 5.48971e-21)
(0.676684 0.0817731 -2.65924e-21)
(0.75935 0.0829611 -3.84762e-21)
(0.847224 0.083876 1.54606e-21)
(0.99076 0.0269643 -5.89676e-21)
(1.17515 -0.134862 7.33881e-21)
(1.27424 -0.332957 1.82042e-21)
(1.25933 -0.484025 -5.6317e-21)
(1.1745 -0.535371 2.9969e-21)
(1.0745 -0.546483 -1.70248e-21)
(0.953797 -0.506931 -2.00154e-22)
(0.89258 -0.434145 1.54576e-21)
(0.775381 -0.370054 -1.11545e-22)
(0.67535 -0.343307 -2.2229e-22)
(0.68081 -0.186174 5.14836e-22)
(0.773092 0.0994764 -7.50839e-22)
(0.845328 0.338177 3.67151e-22)
(0.776914 0.655709 -6.92409e-22)
(0.727339 0.617074 6.78282e-22)
(0.796185 0.316118 1.67361e-22)
(0.976928 -0.0381931 -3.78895e-22)
(1.0639 -0.228114 1.4363e-22)
(1.05066 -0.281311 1.18071e-23)
(1.06159 -0.536808 -4.28095e-23)
(1.00019 -0.370503 -1.35368e-22)
(0.983624 -0.244054 5.79894e-23)
(0.950864 -0.0113992 -4.2019e-24)
(0.907358 0.518688 1.11817e-22)
(0.925053 0.313148 -2.53803e-23)
(0.755858 0.0306923 -7.87826e-21)
(0.760509 0.0469435 1.7758e-21)
(0.790959 0.068756 -2.81647e-21)
(0.855939 0.0681479 9.3065e-21)
(0.930284 0.0675836 -4.83582e-21)
(1.06219 0.0162574 5.82436e-21)
(1.22298 -0.132172 3.53043e-21)
(1.30157 -0.315934 -8.9328e-21)
(1.27968 -0.462612 7.00308e-22)
(1.19191 -0.51664 3.91724e-21)
(1.09275 -0.530695 -1.42324e-21)
(0.969516 -0.498198 -2.65154e-21)
(0.905772 -0.428001 3.58792e-23)
(0.795881 -0.360051 1.33685e-21)
(0.691946 -0.34184 7.51385e-24)
(0.688856 -0.203711 5.38797e-23)
(0.775177 0.0758682 -4.72167e-23)
(0.84409 0.322235 -1.73834e-22)
(0.777221 0.653353 -2.99973e-22)
(0.730885 0.624096 6.42492e-22)
(0.806947 0.317627 -5.23361e-22)
(0.987851 -0.0408918 -1.48643e-22)
(1.07251 -0.228059 1.96515e-22)
(1.0572 -0.278117 1.79313e-22)
(1.06515 -0.533439 -2.04747e-22)
(1.00282 -0.369734 1.95758e-22)
(0.985075 -0.244076 3.6827e-23)
(0.949089 -0.0115735 -6.64986e-23)
(0.90177 0.518389 -2.37393e-23)
(0.922782 0.312627 1.16844e-23)