/*--------------------------------*- C++ -*----------------------------------*\
  =========                 |
  \\      /  F ield         | OpenFOAM: The Open Source CFD Toolbox
   \\    /   O peration     | Website:  https://openfoam.org
    \\  /    A nd           | Version:  7
     \\/     M anipulation  |
\*---------------------------------------------------------------------------*/
FoamFile
{
    version     2.0;
    format      ascii;
    class       volVectorField;
    location    "175";
    object      U;
}
// * * * * * * * * * * * * * * * * * * * * * * * * * * * * * * * * * * * * * //

dimensions      [0 1 -1 0 0 0 0];

internalField   nonuniform List<vector> 
2125
(
(1.38687 -0.096285 -1.26843e-20)
(1.38836 -0.0898315 -3.70581e-20)
(1.38748 -0.0805471 -6.25651e-21)
(1.33302 -0.0696513 2.59118e-20)
(1.37767 -0.0734123 -3.00236e-21)
(1.38559 -0.0645426 3.12728e-20)
(0.980449 -0.0186199 7.46944e-20)
(1.17443 -0.0390935 -1.54943e-19)
(1.29893 -0.0513359 3.13682e-20)
(1.36148 -0.0568702 -2.42305e-20)
(1.38041 -0.0481823 -3.32342e-20)
(0.646802 0.0131774 1.55697e-20)
(0.89686 -0.00370502 -1.26572e-19)
(1.10831 -0.0216318 8.53764e-20)
(1.25566 -0.0333961 -6.62206e-20)
(1.33852 -0.0402529 6.50623e-20)
(1.37086 -0.0313929 -2.84042e-21)
(0.336037 0.0207404 -7.01406e-22)
(0.561264 0.0186877 5.21441e-20)
(0.80792 0.00815123 2.46256e-21)
(1.03263 -0.00598515 -6.95638e-20)
(1.20223 -0.01612 -2.2487e-21)
(1.30736 -0.0236811 -2.8394e-20)
(1.35567 -0.0140847 3.33361e-20)
(0.123865 0.00828659 9.87613e-21)
(0.274758 0.0168009 2.75197e-20)
(0.478772 0.0203446 -4.66668e-20)
(0.715897 0.0164777 1.10135e-19)
(0.948264 0.00729478 -7.52547e-22)
(1.13796 0.000100081 -9.48917e-21)
(1.26665 -0.0073721 -5.64089e-20)
(1.33302 0.00372698 -7.41337e-21)
(0.0910829 0.00044219 7.80861e-21)
(0.220027 0.0102822 -1.99959e-20)
(0.401396 0.0182542 -2.32005e-20)
(0.623569 0.0208953 -1.50452e-20)
(0.856924 0.0176078 -1.14456e-20)
(1.0628 0.0147548 1.33255e-20)
(1.21503 0.00834051 5.47311e-20)
(1.30152 0.0220274 3.98727e-20)
(0.00208479 -0.0131878 4.22572e-20)
(0.0632999 -0.00851488 -9.7429e-20)
(0.172193 0.00153861 5.44446e-20)
(0.33081 0.0126941 4.78218e-20)
(0.533937 0.0212092 -1.20687e-19)
(0.761253 0.0243721 3.24369e-20)
(0.977508 0.0272465 -2.08644e-21)
(1.15193 0.0229454 2.36516e-20)
(1.25797 0.0405934 -4.45144e-20)
(-0.0150466 -0.0128726 1.19725e-19)
(-0.00810737 -0.0202042 -3.29751e-20)
(0.0401598 -0.0184219 4.80231e-20)
(0.131264 -0.00907001 3.02558e-20)
(0.268136 0.00409391 -1.64888e-20)
(0.449816 0.0174957 3.86839e-20)
(0.664637 0.0271533 -1.64105e-20)
(0.884007 0.0368837 9.13646e-20)
(1.07698 0.0359844 -1.46015e-19)
(1.2031 0.05871 -4.85673e-20)
(-0.0165056 -0.0153255 -3.52477e-20)
(-0.0162963 -0.0275443 1.32181e-19)
(0.0211964 -0.0291225 -1.03841e-19)
(0.0969361 -0.0211619 -2.94745e-21)
(0.213878 -0.00698983 -4.81625e-20)
(0.373423 0.0101489 5.26493e-20)
(0.570775 0.0258219 5.77069e-20)
(0.785287 0.0430495 -2.85617e-20)
(0.991772 0.0466267 2.34835e-20)
(1.13039 0.076227 2.82023e-20)
(-0.0176711 -0.0179435 7.29677e-21)
(-0.022841 -0.0352208 -3.63974e-20)
(0.00586583 -0.0404365 4.51218e-20)
(0.0686368 -0.0343118 -4.23668e-20)
(0.167922 -0.0198943 -5.19743e-20)
(0.306085 -0.00013626 -2.35148e-20)
(0.483015 0.0207038 -8.76925e-20)
(0.685054 0.0450528 5.40601e-20)
(0.899973 0.0555867 9.85743e-20)
(1.04168 0.0879485 -3.12153e-20)
(-0.0186565 -0.0207888 2.25703e-20)
(-0.0280676 -0.0432145 1.72629e-20)
(-0.00641366 -0.0521367 -4.07643e-21)
(0.0455886 -0.0480383 -7.36573e-20)
(0.129625 -0.0338717 7.69171e-20)
(0.248139 -0.0124363 8.67558e-20)
(0.403636 0.0125827 2.9914e-20)
(0.588156 0.0420845 -4.17712e-21)
(0.799522 0.0659266 -1.05766e-19)
(0.971468 0.0847699 3.16948e-20)
(-0.0195338 -0.0238964 -6.80851e-20)
(-0.0322491 -0.0514549 -8.60266e-21)
(-0.0162163 -0.0639383 1.80762e-20)
(0.0268989 -0.0618081 5.72709e-21)
(0.0979536 -0.0481211 2.33586e-20)
(0.199022 -0.0256965 -1.39732e-19)
(0.333576 0.00247653 8.43201e-20)
(0.498484 0.0349723 -1.01585e-19)
(0.694913 0.0734184 7.36887e-20)
(0.893989 0.087741 8.88804e-20)
(-0.0203313 -0.0272627 3.0035e-20)
(-0.0355915 -0.0598085 -1.90914e-20)
(-0.0240654 -0.075501 8.49212e-21)
(0.0116579 -0.0750566 -4.0182e-20)
(0.0716649 -0.0618353 5.36414e-21)
(0.157508 -0.0388333 -1.09604e-20)
(0.272577 -0.00847603 -5.29283e-20)
(0.417755 0.025837 2.78205e-20)
(0.591449 0.0757933 5.59296e-20)
(0.806857 0.0931141 -8.14464e-20)
(-0.0210375 -0.0308396 -4.12934e-20)
(-0.0382307 -0.0680788 -6.01979e-20)
(-0.0304002 -0.0864451 4.72185e-20)
(-0.00097073 -0.0872225 4.58352e-20)
(0.0494964 -0.0742556 -1.13475e-19)
(0.122049 -0.0508322 1.13948e-19)
(0.219534 -0.0190603 -1.28495e-19)
(0.345777 0.0168327 3.62152e-20)
(0.493791 0.0738355 -3.86795e-20)
(0.711364 0.0976581 -6.28505e-20)
(-0.0216102 -0.0345347 2.12707e-20)
(-0.0402387 -0.0760151 4.822e-20)
(-0.0355581 -0.0963749 1.20037e-20)
(-0.011682 -0.0977863 1.32173e-20)
(0.0303281 -0.0847266 -7.08242e-22)
(0.0911126 -0.0608385 1.99523e-20)
(0.172926 -0.0281186 3.96977e-20)
(0.281291 0.00949915 7.63579e-20)
(0.404672 0.069523 -7.5749e-20)
(0.611328 0.100895 2.7962e-20)
(-0.021989 -0.0382168 -5.11293e-20)
(-0.0416391 -0.0833306 9.16287e-22)
(-0.0397731 -0.104908 1.62338e-20)
(-0.0209943 -0.106307 -2.92021e-20)
(0.0132861 -0.0927424 5.82058e-20)
(0.0634217 -0.0682268 -1.38498e-19)
(0.131236 -0.0347456 7.45762e-20)
(0.2228 0.00466651 -7.06837e-20)
(0.324653 0.0648366 1.37419e-19)
(0.510906 0.103328 3.57799e-20)
(-0.0221096 -0.0417277 2.72399e-20)
(-0.0424263 -0.0897254 -5.417e-20)
(-0.0431896 -0.111703 -1.63671e-20)
(-0.0292472 -0.11245 2.4333e-20)
(-0.00221729 -0.0979727 4.11008e-20)
(0.0380878 -0.0726306 6.85949e-21)
(0.0932534 -0.0384152 -2.52815e-20)
(0.16909 0.00259828 5.89465e-20)
(0.252825 0.0613104 -3.43588e-20)
(0.413472 0.105421 -4.42213e-21)
(-0.0219163 -0.0448957 7.30872e-20)
(-0.0425857 -0.0949123 2.0054e-20)
(-0.0458835 -0.116486 3.62917e-21)
(-0.0366249 -0.116003 -5.29774e-20)
(-0.0165015 -0.100267 4.74011e-20)
(0.0146158 -0.0739349 1.6077e-20)
(0.05821 -0.0389855 8.14661e-21)
(0.119446 0.00320443 -1.8346e-20)
(0.187821 0.0598313 2.13194e-20)
(0.321393 0.107461 3.5916e-20)
(-0.0213722 -0.0475514 -5.41656e-20)
(-0.0421112 -0.0986408 2.95515e-20)
(-0.0478873 -0.119064 -3.46712e-21)
(-0.0431937 -0.116876 7.55476e-20)
(-0.0296732 -0.0996372 -8.33449e-20)
(-0.00716755 -0.0722322 2.81016e-20)
(0.0257683 -0.0366168 -1.76941e-20)
(0.0736126 0.00623439 -1.61021e-20)
(0.12852 0.0606178 -4.95323e-20)
(0.236166 0.109681 1.84192e-20)
(-0.0204656 -0.0495428 2.33823e-20)
(-0.0410172 -0.100718 -5.82851e-20)
(-0.0492121 -0.119335 -3.28555e-20)
(-0.0489416 -0.115087 -5.15557e-20)
(-0.0416908 -0.0962098 1.43949e-20)
(-0.0272239 -0.0677602 -4.46896e-21)
(-0.00409724 -0.0316578 -4.49082e-20)
(0.0316224 0.0113919 -9.39103e-21)
(0.0742521 0.0633701 -7.66346e-22)
(0.158616 0.112461 2.13834e-20)
(-0.0192123 -0.0507488 4.09069e-20)
(-0.0393452 -0.101025 4.21073e-21)
(-0.0498649 -0.117298 1.75548e-20)
(-0.0538194 -0.11077 7.7238e-20)
(-0.0524589 -0.0902344 7.7464e-20)
(-0.045424 -0.0608442 -1.36867e-20)
(-0.0312121 -0.024467 3.56511e-20)
(-0.00644544 0.0183731 -2.28566e-20)
(0.0247741 0.0675705 -1.38594e-20)
(0.0890997 0.11639 -3.26229e-20)
(-0.0176539 -0.0510879 -5.22768e-20)
(-0.0371657 -0.0995178 4.35692e-20)
(-0.0498712 -0.113032 2.21384e-20)
(-0.0577855 -0.104129 -4.36983e-20)
(-0.0618531 -0.0820151 -4.95322e-20)
(-0.0615605 -0.0518468 1.5667e-20)
(-0.0553561 -0.0154191 1.0892e-21)
(-0.0406165 0.0268218 7.12212e-20)
(-0.0195124 0.0735254 4.33207e-20)
(0.0274503 0.121767 -1.76612e-20)
(-0.015854 -0.0505252 2.83939e-20)
(-0.0345734 -0.0962364 -1.24971e-20)
(-0.0492682 -0.106695 -4.47221e-20)
(-0.060796 -0.0954093 1.87419e-20)
(-0.0697539 -0.0718503 -4.54465e-22)
(-0.0754739 -0.0411034 -6.42382e-20)
(-0.076418 -0.00485231 -3.99821e-21)
(-0.0705687 0.0364733 -6.49134e-20)
(-0.0584044 0.0814195 -2.96925e-20)
(-0.0272859 0.128284 4.97978e-20)
(-0.013891 -0.0490747 -3.41424e-20)
(-0.0316807 -0.0912969 -2.76398e-21)
(-0.0481103 -0.098509 -1.9648e-21)
(-0.0628316 -0.0849061 -4.04509e-20)
(-0.0760764 -0.0600652 6.32415e-21)
(-0.0870374 -0.0289284 3.90428e-20)
(-0.0942337 0.00697165 -2.08143e-20)
(-0.0960642 0.0472936 3.36437e-20)
(-0.0921498 0.0908805 1.56666e-20)
(-0.075042 0.136199 -1.77749e-20)
(-0.0118513 -0.0467966 2.15683e-20)
(-0.028609 -0.0848847 4.09642e-20)
(-0.0464683 -0.0887522 -9.03679e-21)
(-0.0638993 -0.0729426 1.89851e-20)
(-0.0807734 -0.0469901 1.30289e-20)
(-0.0961648 -0.0156275 -3.17479e-20)
(-0.108671 0.0198115 7.90569e-21)
(-0.116999 0.0591445 -9.12465e-21)
(-0.120524 0.101621 1.15238e-20)
(-0.115204 0.145983 -2.26445e-20)
(-0.00982148 -0.043793 -6.70614e-21)
(-0.0254808 -0.0772423 -2.6369e-20)
(-0.0444246 -0.0777431 3.66468e-20)
(-0.0640327 -0.0598621 -1.88225e-20)
(-0.0838365 -0.0329584 8.7803e-21)
(-0.102813 -0.0015034 2.65659e-20)
(-0.119646 0.0334107 -2.26299e-20)
(-0.133276 0.0718167 -5.95083e-21)
(-0.143134 0.113394 5.66642e-22)
(-0.147281 0.157339 2.70789e-20)
(-0.00788145 -0.0401998 -1.98474e-21)
(-0.0224108 -0.0686553 -7.73368e-21)
(-0.042069 -0.0658292 -3.20832e-20)
(-0.0632904 -0.0460205 6.21723e-21)
(-0.0852977 -0.0183059 5.14127e-21)
(-0.106987 0.0131401 -2.17064e-21)
(-0.127125 0.0474857 -1.64335e-22)
(-0.144825 0.0850307 -8.9092e-21)
(-0.159654 0.125853 1.24387e-20)
(-0.170904 0.169663 8.51961e-21)
(-0.00609857 -0.0361764 5.23286e-21)
(-0.0195 -0.059437 9.3998e-21)
(-0.0394951 -0.0533741 2.38041e-20)
(-0.0617537 -0.0317804 -1.22458e-20)
(-0.0852274 -0.00337109 -1.06916e-20)
(-0.108748 0.0279889 -3.77313e-22)
(-0.131145 0.0617322 2.07733e-20)
(-0.151639 0.0984473 9.70493e-21)
(-0.169905 0.138562 -8.72033e-21)
(-0.185881 0.182282 -9.79405e-21)
(-0.00452363 -0.031895 -8.37783e-22)
(-0.0168305 -0.0499114 1.82292e-21)
(-0.0367963 -0.0407454 -4.52828e-21)
(-0.0595256 -0.0175047 3.25729e-21)
(-0.0837391 0.0115051 2.75801e-21)
(-0.108215 0.0427165 1.98554e-21)
(-0.131818 0.0758212 -4.08016e-21)
(-0.153819 0.111687 -1.65751e-20)
(-0.173904 0.151045 -2.65378e-21)
(-0.192268 0.194524 5.20911e-21)
(-0.00318874 -0.027528 1.31081e-21)
(-0.0144633 -0.0403969 -3.30144e-21)
(-0.0340643 -0.0283012 -2.66432e-21)
(-0.0567291 -0.00354964 1.87949e-21)
(-0.0809879 0.0259812 -2.58641e-21)
(-0.10557 0.0569941 -1.23185e-21)
(-0.129348 0.0894083 1.30765e-21)
(-0.151593 0.124351 6.39546e-21)
(-0.171894 0.162815 -2.24198e-21)
(-0.190408 0.205747 2.29518e-21)
(1.08949 -0.00195998 -1.43351e-22)
(1.09022 -0.00192857 3.75518e-22)
(1.09092 -0.00189713 -3.69629e-22)
(1.09162 -0.00186562 1.18971e-22)
(1.09229 -0.00183404 2.87939e-22)
(1.09295 -0.00180229 4.30709e-26)
(1.0936 -0.00177061 -1.35611e-22)
(1.09423 -0.0017383 -2.17974e-22)
(1.09484 -0.0017072 1.4296e-22)
(1.09544 -0.00167238 -6.11495e-23)
(1.09601 -0.00164696 4.41495e-23)
(1.09049 -0.00580202 -1.09627e-22)
(1.09123 -0.00569994 -2.99932e-23)
(1.09195 -0.00559876 8.28243e-23)
(1.09266 -0.00549846 1.85695e-22)
(1.09334 -0.00539911 -1.57634e-23)
(1.09401 -0.00530042 -4.68055e-23)
(1.09467 -0.00520312 -5.98303e-23)
(1.09531 -0.0051052 1.94044e-22)
(1.09593 -0.00501195 4.94365e-23)
(1.09654 -0.00490892 -4.89477e-23)
(1.09712 -0.00483449 -8.05609e-23)
(1.09231 -0.00947716 -1.87373e-22)
(1.09307 -0.009306 1.31187e-23)
(1.09382 -0.00913664 2.07434e-23)
(1.09455 -0.00896903 4.14567e-22)
(1.09526 -0.00880328 -5.50542e-22)
(1.09595 -0.00863892 1.48994e-22)
(1.09663 -0.00847711 1.52997e-22)
(1.09729 -0.0083146 8.74281e-23)
(1.09793 -0.00815989 -8.38965e-23)
(1.09857 -0.00798975 -7.44656e-24)
(1.09918 -0.00786594 4.69968e-24)
(1.09488 -0.0130502 2.23207e-22)
(1.09568 -0.0128035 -1.36919e-22)
(1.09646 -0.0125596 3.60614e-22)
(1.09722 -0.0123182 -1.48685e-22)
(1.09797 -0.0120797 -7.25355e-23)
(1.09869 -0.0118434 -3.74474e-22)
(1.0994 -0.011611 1.4871e-23)
(1.1001 -0.011378 1.17004e-23)
(1.10077 -0.0111561 1.12011e-22)
(1.10144 -0.010914 -8.8145e-23)
(1.10209 -0.0107347 1.28639e-22)
(1.09813 -0.0165099 1.82867e-22)
(1.09897 -0.01618 -1.37602e-22)
(1.09979 -0.0158536 -8.31196e-23)
(1.1006 -0.0155308 -5.22345e-23)
(1.10138 -0.0152118 1.79413e-22)
(1.10215 -0.0148961 2.75648e-22)
(1.1029 -0.0145856 -1.98864e-25)
(1.10363 -0.0142749 2.21567e-22)
(1.10435 -0.0139785 -7.95837e-23)
(1.10506 -0.0136578 4.76062e-22)
(1.10577 -0.0134145 -2.34366e-22)
(1.10201 -0.0198833 -1.87251e-22)
(1.1029 -0.0194592 2.29574e-22)
(1.10377 -0.0190395 -1.66193e-22)
(1.10462 -0.0186241 -4.98383e-22)
(1.10545 -0.0182136 5.00645e-23)
(1.10627 -0.017807 -3.49485e-22)
(1.10706 -0.0174071 1.71973e-22)
(1.10784 -0.0170073 5.63648e-22)
(1.10861 -0.0166247 -8.21505e-23)
(1.10937 -0.0162147 -4.92683e-22)
(1.11013 -0.0158934 -1.55845e-22)
(1.10647 -0.0231728 4.63189e-23)
(1.10741 -0.0226404 -1.7827e-22)
(1.10834 -0.0221128 5.25776e-22)
(1.10924 -0.0215903 2.44741e-22)
(1.11013 -0.0210733 1.02474e-22)
(1.111 -0.020561 1.67932e-22)
(1.11184 -0.0200563 -4.50156e-22)
(1.11268 -0.0195521 -8.60098e-22)
(1.11349 -0.0190672 -3.62775e-22)
(1.11431 -0.018553 2.18158e-23)
(1.11513 -0.0181346 8.11784e-23)
(1.11148 -0.0263864 3.50476e-22)
(1.11249 -0.0257282 2.67795e-22)
(1.11347 -0.0250752 3.2321e-22)
(1.11444 -0.0244274 -6.41084e-22)
(1.11538 -0.0237854 7.44365e-22)
(1.11631 -0.0231484 -2.02625e-22)
(1.11721 -0.0225196 6.85305e-22)
(1.1181 -0.0218915 -3.75754e-22)
(1.11896 -0.0212836 5.89105e-22)
(1.11984 -0.0206459 7.92856e-22)
(1.12074 -0.0201049 3.02372e-22)
(1.11703 -0.0295276 3.03934e-22)
(1.11811 -0.0287227 2.60965e-23)
(1.11916 -0.0279227 -9.93625e-22)
(1.12019 -0.0271275 3.4297e-22)
(1.1212 -0.0263379 -1.40815e-22)
(1.12219 -0.025553 -9.66899e-23)
(1.12315 -0.0247759 5.38356e-22)
(1.12409 -0.0239994 -5.05137e-23)
(1.12501 -0.0232423 -5.82667e-22)
(1.12595 -0.0224568 -1.17709e-21)
(1.12692 -0.0217607 1.08743e-22)
(1.12311 -0.0325998 -5.16656e-22)
(1.12426 -0.0316238 1.67693e-22)
(1.12539 -0.0306514 1.23126e-21)
(1.12649 -0.0296828 7.69564e-22)
(1.12757 -0.0287186 -8.83739e-22)
(1.12862 -0.0277579 -4.08663e-22)
(1.12964 -0.0268036 -4.35921e-22)
(1.13065 -0.0258493 2.48833e-22)
(1.13162 -0.024911 4.57613e-22)
(1.13263 -0.0239481 6.88517e-22)
(1.13368 -0.0230568 -2.34246e-22)
(1.12972 -0.0356066 1.09685e-22)
(1.13096 -0.0344312 -1.38446e-21)
(1.13217 -0.0332572 -4.42106e-24)
(1.13335 -0.0320848 -1.08564e-21)
(1.1345 -0.0309144 6.71599e-22)
(1.13562 -0.0297454 9.93641e-22)
(1.13671 -0.0285797 -1.41193e-22)
(1.13778 -0.0274128 -7.2767e-22)
(1.13881 -0.0262551 -3.66784e-22)
(1.13989 -0.0250798 4.25849e-22)
(1.14101 -0.023945 -3.85646e-22)
(1.13549 -0.0399569 6.94083e-22)
(1.13686 -0.038552 9.21167e-22)
(1.1382 -0.037145 -3.73985e-23)
(1.1395 -0.0357362 -1.59898e-21)
(1.14076 -0.0343254 -8.74108e-22)
(1.14199 -0.0329128 -7.35704e-22)
(1.14319 -0.0314981 1.18952e-21)
(1.14435 -0.0300814 1.61229e-21)
(1.14549 -0.0286619 5.89926e-22)
(1.14658 -0.0272402 5.62682e-23)
(1.14774 -0.0258118 -7.24605e-22)
(1.14895 -0.0243765 1.55316e-21)
(1.14308 -0.0431086 -4.25154e-22)
(1.14456 -0.041441 -1.81327e-21)
(1.146 -0.0397667 2.90184e-22)
(1.1474 -0.0380857 6.64583e-22)
(1.14876 -0.0363977 6.64431e-22)
(1.15008 -0.0347022 -8.48767e-22)
(1.15137 -0.0329996 -1.57969e-21)
(1.1526 -0.0312871 -3.31436e-22)
(1.15382 -0.0295694 7.42106e-22)
(1.15498 -0.0278325 1.59378e-21)
(1.15622 -0.0261051 -4.63285e-22)
(1.15753 -0.0243033 -2.15166e-21)
(1.15122 -0.0462483 1.18658e-21)
(1.15283 -0.04428 3.51951e-22)
(1.15439 -0.0422989 7.18864e-22)
(1.1559 -0.0403043 -1.36642e-22)
(1.15737 -0.0382961 -8.65389e-22)
(1.15879 -0.0362724 6.3706e-23)
(1.16017 -0.034235 -2.46638e-22)
(1.16149 -0.0321764 -1.42893e-21)
(1.16279 -0.0301102 -2.51648e-21)
(1.16402 -0.0280001 -3.3274e-21)
(1.16537 -0.0259226 3.34933e-21)
(1.16678 -0.0236793 6.75061e-23)
(1.15994 -0.0493856 1.76399e-21)
(1.16169 -0.0470754 -6.86978e-22)
(1.16339 -0.0447445 -5.83392e-22)
(1.16503 -0.0423914 1.52066e-22)
(1.16662 -0.0400161 9.06839e-22)
(1.16815 -0.0376148 1.72668e-21)
(1.16964 -0.0351915 -1.07824e-21)
(1.17106 -0.0327318 1.96141e-21)
(1.17245 -0.0302619 -7.61857e-22)
(1.17377 -0.0277146 -9.00371e-22)
(1.17522 -0.0252316 -3.75456e-21)
(1.17677 -0.0224627 -7.82204e-22)
(1.16927 -0.0525309 -1.37916e-21)
(1.17118 -0.0498348 1.1447e-21)
(1.17302 -0.0471081 2.01074e-21)
(1.17481 -0.0443482 1.09327e-21)
(1.17654 -0.0415554 -6.3722e-22)
(1.1782 -0.038723 -2.6222e-21)
(1.17981 -0.0358585 4.13955e-21)
(1.18134 -0.0329377 -1.11802e-21)
(1.18284 -0.0300047 2.52488e-21)
(1.18425 -0.0269503 -1.86667e-21)
(1.18584 -0.0240028 2.56545e-21)
(1.18754 -0.0206168 2.35932e-21)
(1.17921 -0.0556957 -2.10399e-22)
(1.1813 -0.0525665 -1.51771e-21)
(1.18332 -0.0493948 -1.93798e-21)
(1.18528 -0.0461766 3.95204e-22)
(1.18716 -0.0429126 3.2826e-21)
(1.18897 -0.0395925 -1.87336e-21)
(1.19071 -0.0362283 4.35722e-22)
(1.19237 -0.0327826 -6.08815e-21)
(1.194 -0.0293235 -9.34035e-22)
(1.19553 -0.0256867 4.23475e-21)
(1.19726 -0.0222119 7.32818e-23)
(1.19915 -0.0181104 -4.86849e-21)
(1.1898 -0.0588899 8.88011e-23)
(1.1921 -0.0552778 5.82605e-22)
(1.19431 -0.0516092 2.02512e-21)
(1.19645 -0.0478783 -1.53882e-21)
(1.19851 -0.0440868 -3.47275e-21)
(1.20048 -0.0402192 1.69553e-21)
(1.20239 -0.0362949 1.32147e-21)
(1.2042 -0.0322579 8.9312e-21)
(1.20598 -0.0282091 4.9472e-22)
(1.20765 -0.0239121 -4.29837e-21)
(1.20957 -0.0198478 7.51732e-22)
(1.21169 -0.0149292 -1.09283e-21)
(1.20105 -0.0621216 -3.91444e-22)
(1.20358 -0.0579747 3.84707e-22)
(1.20602 -0.0537557 -4.71213e-22)
(1.20836 -0.0494557 2.45056e-21)
(1.21062 -0.0450787 6.57988e-21)
(1.21279 -0.040601 6.72048e-21)
(1.21488 -0.0360535 -1.01106e-20)
(1.21687 -0.031355 1.54691e-21)
(1.21883 -0.0266514 5.31333e-21)
(1.22067 -0.0216133 1.07038e-20)
(1.2228 -0.0168978 -1.72331e-21)
(1.2252 -0.0110543 2.52216e-21)
(1.21299 -0.0653953 1.47629e-21)
(1.21577 -0.0606598 9.39624e-22)
(1.21846 -0.0558357 -3.26488e-21)
(1.22104 -0.0509094 -2.06812e-21)
(1.22354 -0.0458898 -2.54651e-21)
(1.22592 -0.0407402 6.14748e-22)
(1.22823 -0.0355089 5.96416e-21)
(1.23042 -0.0300772 -5.13032e-21)
(1.2326 -0.0246538 -2.65201e-21)
(1.23466 -0.0187884 -1.14843e-20)
(1.23706 -0.0133593 3.344e-21)
(1.23982 -0.00648316 1.24443e-20)
(1.22564 -0.0687169 2.87171e-21)
(1.22871 -0.0633373 -8.23052e-22)
(1.23167 -0.0578519 1.93817e-21)
(1.23451 -0.0522396 1.09611e-21)
(1.23728 -0.0465198 -7.21042e-21)
(1.23991 -0.0406358 -1.32705e-20)
(1.2425 -0.0346665 9.41085e-21)
(1.24494 -0.0284341 8.2014e-22)
(1.24741 -0.0222381 -5.40082e-21)
(1.24972 -0.0154581 1.11713e-20)
(1.25245 -0.00925992 6.06943e-21)
(1.25562 -0.00123505 -3.32568e-21)
(1.23902 -0.0720811 -8.79437e-22)
(1.24241 -0.0660043 -1.77226e-21)
(1.24569 -0.0598051 -1.28193e-21)
(1.24883 -0.0534503 -2.26364e-21)
(1.25191 -0.0469753 -4.58236e-21)
(1.25482 -0.0402903 6.41915e-21)
(1.25775 -0.0335272 -1.72204e-20)
(1.26046 -0.026418 -9.7555e-21)
(1.26333 -0.019407 5.0277e-21)
(1.2659 -0.0116199 -1.16197e-20)
(1.26907 -0.00461815 -1.23014e-20)
(1.27259 0.00470345 -1.62515e-20)
(1.25318 -0.0754817 -4.95057e-21)
(1.25692 -0.0686543 3.56518e-21)
(1.26057 -0.0616906 3.43952e-21)
(1.26405 -0.0545431 -2.10182e-21)
(1.26752 -0.0472674 2.21319e-21)
(1.27075 -0.0397237 8.85244e-21)
(1.27411 -0.0321163 2.53809e-20)
(1.27704 -0.0240373 2.11586e-20)
(1.28038 -0.0161552 -1.38708e-20)
(1.28306 -0.0072256 9.79904e-21)
(1.28679 0.000607615 1.76288e-21)
(1.29032 0.011423 1.17933e-20)
(1.26819 -0.0789182 1.83266e-21)
(1.27231 -0.071286 -8.11715e-21)
(1.27638 -0.0635014 -1.35589e-20)
(1.28024 -0.0555071 -9.16826e-21)
(1.28417 -0.0473786 2.43642e-20)
(1.28771 -0.0389266 -1.06518e-20)
(1.29159 -0.0304379 -2.04445e-20)
(1.29464 -0.0213161 -1.23239e-20)
(1.29854 -0.0125184 5.20628e-21)
(1.30085 -0.00226909 2.86246e-21)
(1.30517 0.00644861 -1.16812e-20)
(1.30774 0.0190569 -1.11356e-20)
(1.28414 -0.0823906 4.91452e-22)
(1.28871 -0.0739062 1.7181e-21)
(1.29323 -0.0652435 8.27712e-21)
(1.29745 -0.0563449 -4.89281e-22)
(1.3018 -0.0472833 -8.59659e-21)
(1.30552 -0.0378498 -1.47186e-20)
(1.30987 -0.0283921 3.57472e-21)
(1.3127 -0.0181581 -1.99422e-22)
(1.31719 -0.00840512 1.38555e-20)
(1.31831 0.00329309 5.27861e-21)
(1.3232 0.0129204 1.46359e-20)
(1.32288 0.0276956 6.08786e-22)
(1.3011 -0.0858302 5.66771e-21)
(1.3061 -0.0764373 3.29386e-22)
(1.31101 -0.0668366 2.3094e-20)
(1.31553 -0.0569858 1.86263e-20)
(1.32016 -0.0469088 -1.65561e-20)
(1.3238 -0.0364312 6.62346e-21)
(1.32824 -0.0258432 -5.86983e-21)
(1.33012 -0.0143909 5.41682e-21)
(1.33471 -0.00347446 -7.46248e-21)
(1.33318 0.0097865 7.72898e-21)
(1.3385 0.0203747 -1.80971e-20)
(1.33219 0.037595 2.14196e-20)
(1.3189 -0.0890354 -1.1592e-20)
(1.32417 -0.0786308 8.58451e-21)
(1.32923 -0.0679957 -1.96139e-20)
(1.33378 -0.0571211 8.57045e-21)
(1.33828 -0.0459555 3.15508e-20)
(1.34149 -0.0344264 7.91585e-21)
(1.34536 -0.0225972 1.35857e-20)
(1.3455 -0.00995173 -4.79779e-21)
(1.34899 0.00246627 8.61282e-22)
(1.34253 0.0173339 -1.31253e-20)
(1.34706 0.0293028 2.43267e-20)
(1.33002 0.0490258 -1.24534e-20)
(1.33712 -0.0918877 3.24777e-21)
(1.3423 -0.0803422 -1.60729e-20)
(1.34705 -0.0685548 1.1088e-21)
(1.35111 -0.0565396 -2.88008e-20)
(1.35469 -0.0441911 -1.84172e-20)
(1.35675 -0.0315586 -1.03455e-20)
(1.35874 -0.0184376 4.6662e-23)
(1.35632 -0.00478275 -8.58177e-21)
(1.35661 0.00926329 2.71684e-20)
(1.34334 0.0251863 8.63809e-21)
(1.34419 0.0391592 -1.79362e-20)
(1.3101 0.0607061 -6.68191e-21)
(1.35497 -0.0946142 1.07762e-20)
(1.35963 -0.0818962 3.10434e-21)
(1.3635 -0.0689333 -1.24582e-20)
(1.36634 -0.05572 2.1879e-20)
(1.36796 -0.0421405 -2.42884e-20)
(1.36758 -0.028266 -8.53711e-21)
(1.36549 -0.0137793 5.09967e-21)
(1.35862 0.000969905 -3.66498e-21)
(1.35161 0.0166427 -3.56828e-20)
(1.33014 0.0327931 -3.47948e-20)
(1.32195 0.0488774 1.20746e-20)
(1.26637 0.0694772 -1.28505e-20)
(1.3711 -0.0969487 -3.38229e-21)
(1.37466 -0.0830864 -1.57728e-21)
(1.37689 -0.0689742 6.6318e-21)
(1.37741 -0.05456 -1.38584e-20)
(1.37561 -0.0397462 3.5307e-20)
(1.37071 -0.0245099 2.73425e-20)
(1.36176 -0.0086378 -1.78924e-20)
(1.34706 0.00758557 2.10393e-20)
(1.32694 0.0248029 2.22866e-20)
(1.29411 0.0415582 9.33362e-21)
(1.26553 0.059461 4.17832e-21)
(1.19032 0.075649 3.45104e-20)
(1.0975 -0.00151632 0)
(1.09939 -0.0013248 0)
(1.10149 -0.00110554 0)
(1.10282 -0.000905567 0)
(1.10452 -0.000721413 0)
(1.10525 -0.000489027 0)
(1.10631 -0.000352984 0)
(1.1066 -1.12507e-05 0)
(1.1063 0.000102332 0)
(1.10636 0.000645859 0)
(1.10327 0.000831377 0)
(1.10302 0.00162626 0)
(1.09501 0.00200203 0)
(1.09368 0.00295685 0)
(1.07866 0.00347377 0)
(1.07538 0.00424313 0)
(1.05298 0.0046409 0)
(1.04807 0.00441641 0)
(1.02367 0.00464317 0)
(1.01784 0.00208536 0)
(1.00779 0.00212418 0)
(1.00255 -0.0033604 0)
(1.03284 -0.00551213 0)
(1.04666 -0.00494555 0)
(1.07691 -0.00455296 0)
(1.09185 0.00108656 0)
(1.06496 0.000676881 0)
(1.08618 0.00617029 0)
(0.997982 0.00477203 0)
(1.03794 -0.00388104 0)
(1.09864 -0.00444728 0)
(1.10052 -0.00387872 0)
(1.10261 -0.00322913 0)
(1.10387 -0.00264096 0)
(1.10556 -0.00210501 0)
(1.10624 -0.0014258 0)
(1.10732 -0.001043 0)
(1.10763 -4.52953e-05 0)
(1.10739 0.000264386 0)
(1.10758 0.00186826 0)
(1.10454 0.00240382 0)
(1.1045 0.00476513 0)
(1.09646 0.00589809 0)
(1.09525 0.00875581 0)
(1.08001 0.0103224 0)
(1.07658 0.0126641 0)
(1.05361 0.0138436 0)
(1.04837 0.0132706 0)
(1.02304 0.0139289 0)
(1.01659 0.0063801 0)
(1.00578 0.00658216 0)
(0.999117 -0.0101839 0)
(1.03255 -0.0168312 0)
(1.04788 -0.0150164 0)
(1.07996 -0.0136083 0)
(1.0947 0.00318718 0)
(1.06729 0.0022027 0)
(1.08828 0.018709 0)
(0.994846 0.0145081 0)
(1.03536 -0.0114857 0)
(1.10078 -0.00722238 0)
(1.10263 -0.00627842 0)
(1.10468 -0.00520947 0)
(1.10581 -0.0042524 0)
(1.10747 -0.00339918 0)
(1.10806 -0.00231125 0)
(1.10918 -0.00174273 0)
(1.10954 -0.000140851 0)
(1.10938 0.000290029 0)
(1.10986 0.00289891 0)
(1.10689 0.00374488 0)
(1.1073 0.00763087 0)
(1.0992 0.00957045 0)
(1.09821 0.0143289 0)
(1.08258 0.0170357 0)
(1.07884 0.0210315 0)
(1.05488 0.0230065 0)
(1.04888 0.0223054 0)
(1.02201 0.0233765 0)
(1.01412 0.0110831 0)
(1.00199 0.0117019 0)
(0.992245 -0.0173988 0)
(1.03184 -0.0292051 0)
(1.05042 -0.0256874 0)
(1.08571 -0.0226099 0)
(1.10024 0.00511615 0)
(1.07161 0.00420776 0)
(1.0923 0.0319982 0)
(0.98926 0.0249162 0)
(1.02978 -0.018755 0)
(1.1038 -0.00982392 0)
(1.10559 -0.0084913 0)
(1.10758 -0.00700716 0)
(1.10851 -0.00569576 0)
(1.1101 -0.00457052 0)
(1.11056 -0.00311812 0)
(1.1117 -0.00245414 0)
(1.11214 -0.000310537 0)
(1.11209 0.000131836 0)
(1.11303 0.00367644 0)
(1.11016 0.00478124 0)
(1.11128 0.010157 0)
(1.1031 0.013012 0)
(1.10248 0.0196935 0)
(1.08632 0.0237328 0)
(1.08205 0.0294896 0)
(1.05686 0.0323605 0)
(1.04946 0.0317643 0)
(1.02088 0.0332951 0)
(1.01035 0.0165519 0)
(0.996564 0.0179736 0)
(0.981632 -0.0252933 0)
(1.03048 -0.0435984 0)
(1.0546 -0.0374351 0)
(1.09379 -0.0317255 0)
(1.1086 0.0068718 0)
(1.07745 0.00692584 0)
(1.09825 0.0465638 0)
(0.982369 0.0367234 0)
(1.01988 -0.0254473 0)
(1.1076 -0.0122204 0)
(1.10931 -0.0104752 0)
(1.11117 -0.00857689 0)
(1.11183 -0.00692327 0)
(1.11329 -0.00558434 0)
(1.11358 -0.00381845 0)
(1.11469 -0.00318264 0)
(1.11529 -0.00057623 0)
(1.11532 -0.000281026 0)
(1.11693 0.00412747 0)
(1.11418 0.0054222 0)
(1.11634 0.0122634 0)
(1.10809 0.0161924 0)
(1.10798 0.0248494 0)
(1.0912 0.0305035 0)
(1.08614 0.0381274 0)
(1.05962 0.0421069 0)
(1.05002 0.0417858 0)
(1.02003 0.043932 0)
(1.00523 0.0231754 0)
(0.989547 0.0258603 0)
(0.966824 -0.0339934 0)
(1.02805 -0.0609967 0)
(1.06078 -0.0506621 0)
(1.10388 -0.0411743 0)
(1.12017 0.00860446 0)
(1.08402 0.0104982 0)
(1.10635 0.0624609 0)
(0.975937 0.0508987 0)
(1.00377 -0.0308348 0)
(1.11212 -0.014391 0)
(1.11369 -0.0121929 0)
(1.11535 -0.00987451 0)
(1.11565 -0.00788476 0)
(1.11688 -0.00640014 0)
(1.11695 -0.0043793 0)
(1.11796 -0.00392727 0)
(1.11877 -0.000953162 0)
(1.11888 -0.00101086 0)
(1.12141 0.00417632 0)
(1.11883 0.00557094 0)
(1.12239 0.0138613 0)
(1.11411 0.0190683 0)
(1.11467 0.029793 0)
(1.09719 0.0374172 0)
(1.09111 0.0469986 0)
(1.0632 0.0524289 0)
(1.05049 0.0524067 0)
(1.01976 0.0554877 0)
(0.998848 0.0313717 0)
(0.980821 0.0358393 0)
(0.947331 -0.0434992 0)
(1.02394 -0.0823925 0)
(1.0691 -0.0657486 0)
(1.11587 -0.0512076 0)
(1.13526 0.0106317 0)
(1.09054 0.01499 0)
(1.11685 0.0792624 0)
(0.971871 0.0685933 0)
(0.980538 -0.0336975 0)
(1.1173 -0.0162903 0)
(1.11868 -0.013584 0)
(1.12002 -0.0108327 0)
(1.11985 -0.00850939 0)
(1.12073 -0.00695677 0)
(1.12052 -0.00475086 0)
(1.12135 -0.00466895 0)
(1.1224 -0.00144896 0)
(1.12258 -0.00210958 0)
(1.12627 0.00373698 0)
(1.124 0.00512055 0)
(1.1293 0.0148485 0)
(1.12119 0.0215795 0)
(1.12252 0.0345291 0)
(1.10431 0.0445126 0)
(1.09696 0.0561504 0)
(1.06758 0.063471 0)
(1.05094 0.0635965 0)
(1.02026 0.0680678 0)
(0.991599 0.0416033 0)
(0.97019 0.0484655 0)
(0.922575 -0.0536551 0)
(1.01683 -0.108681 0)
(1.07888 -0.0831792 0)
(1.12976 -0.0620967 0)
(1.15348 0.0133649 0)
(1.097 0.0204161 0)
(1.12954 0.0963029 0)
(0.971227 0.0907214 0)
(0.952141 -0.0327918 0)
(1.12308 -0.017874 0)
(1.12421 -0.0145873 0)
(1.1251 -0.0113783 0)
(1.12433 -0.00872091 0)
(1.1247 -0.00718215 0)
(1.1241 -0.00487736 0)
(1.12465 -0.00537904 0)
(1.12595 -0.00207321 0)
(1.12626 -0.00363143 0)
(1.13132 0.00270936 0)
(1.12961 0.00395348 0)
(1.13699 0.0151045 0)
(1.12936 0.0236508 0)
(1.13149 0.0390782 0)
(1.11256 0.0517962 0)
(1.10373 0.0656435 0)
(1.07268 0.0753226 0)
(1.05154 0.0752901 0)
(1.02152 0.0816557 0)
(0.98416 0.0543159 0)
(0.957801 0.0644122 0)
(0.891642 -0.0639693 0)
(1.00337 -0.140501 0)
(1.08728 -0.103737 0)
(1.1449 -0.0741843 0)
(1.17348 0.0171117 0)
(1.10429 0.0266951 0)
(1.14349 0.113112 0)
(0.97391 0.117379 0)
(0.92329 -0.0275803 0)
(1.12946 -0.0190856 0)
(1.13024 -0.0151299 0)
(1.13052 -0.0114221 0)
(1.12897 -0.00842974 0)
(1.12868 -0.00698601 0)
(1.12753 -0.00469016 0)
(1.1277 -0.00601388 0)
(1.12922 -0.00283091 0)
(1.12971 -0.00562455 0)
(1.13636 0.00100013 0)
(1.13557 0.00194178 0)
(1.14536 0.0144864 0)
(1.13873 0.0251997 0)
(1.14156 0.0434781 0)
(1.12198 0.0592504 0)
(1.11141 0.0755683 0)
(1.07838 0.0879997 0)
(1.05248 0.0874287 0)
(1.02339 0.0960899 0)
(0.977314 0.0697655 0)
(0.944766 0.084538 0)
(0.853505 -0.0729981 0)
(0.976957 -0.177863 0)
(1.08777 -0.128801 0)
(1.15839 -0.0882062 0)
(1.193 0.0217647 0)
(1.11337 0.0336368 0)
(1.15732 0.129516 0)
(0.979338 0.147768 0)
(0.898931 -0.0184349 0)
(1.13642 -0.0198646 0)
(1.13675 -0.0151344 0)
(1.13622 -0.0108652 0)
(1.13368 -0.00753781 0)
(1.13253 -0.00626345 0)
(1.13063 -0.00410945 0)
(1.13032 -0.00651503 0)
(1.13195 -0.00372482 0)
(1.13276 -0.00814574 0)
(1.14116 -0.00154699 0)
(1.14178 -0.00106079 0)
(1.15436 0.0128258 0)
(1.14936 0.0261483 0)
(1.15275 0.0477711 0)
(1.1326 0.0668641 0)
(1.11994 0.0860285 0)
(1.08466 0.101456 0)
(1.05392 0.0999867 0)
(1.02561 0.111095 0)
(0.971943 0.0877171 0)
(0.932924 0.109784 0)
(0.809128 -0.0777289 0)
(0.931096 -0.219375 0)
(1.07116 -0.160136 0)
(1.16442 -0.1057 0)
(1.20903 0.0264963 0)
(1.12414 0.0408904 0)
(1.16974 0.145503 0)
(0.987034 0.180652 0)
(0.881838 -0.00617615 0)
(1.14397 -0.0201456 0)
(1.14372 -0.0145182 0)
(1.14217 -0.00959854 0)
(1.13839 -0.00593815 0)
(1.13616 -0.00489511 0)
(1.13325 -0.00304125 0)
(1.13232 -0.00681158 0)
(1.1339 -0.00474684 0)
(1.13519 -0.0112443 0)
(1.14554 -0.005095 0)
(1.14813 -0.00523928 0)
(1.164 0.00993019 0)
(1.16131 0.0264319 0)
(1.16512 0.0519894 0)
(1.14447 0.0746738 0)
(1.12915 0.0971099 0)
(1.0916 0.11561 0)
(1.05584 0.112997 0)
(1.02778 0.12631 0)
(0.969256 0.1074 0)
(0.923073 0.140455 0)
(0.7651 -0.0748854 0)
(0.869589 -0.261816 0)
(1.03244 -0.198509 0)
(1.15681 -0.12866 0)
(1.21832 0.0297813 0)
(1.13524 0.0478518 0)
(1.17989 0.161061 0)
(0.996602 0.21474 0)
(0.872334 0.00828424 0)
(1.15214 -0.0198617 0)
(1.15117 -0.0131965 0)
(1.14833 -0.00750775 0)
(1.14303 -0.00351708 0)
(1.13947 -0.0027485 0)
(1.13522 -0.00137584 0)
(1.13351 -0.00681784 0)
(1.13483 -0.00587564 0)
(1.13676 -0.0149686 0)
(1.14925 -0.00974465 0)
(1.15449 -0.0108103 0)
(1.17438 0.00559238 0)
(1.17462 0.0259986 0)
(1.17884 0.0561532 0)
(1.15756 0.0827889 0)
(1.13889 0.108849 0)
(1.0993 0.130389 0)
(1.05801 0.126567 0)
(1.02968 0.141246 0)
(0.970344 0.127893 0)
(0.913885 0.175628 0)
(0.733717 -0.0640233 0)