/*--------------------------------*- C++ -*----------------------------------*\
  =========                 |
  \\      /  F ield         | OpenFOAM: The Open Source CFD Toolbox
   \\    /   O peration     | Website:  https://openfoam.org
    \\  /    A nd           | Version:  7
     \\/     M anipulation  |
\*---------------------------------------------------------------------------*/
FoamFile
{
    version     2.0;
    format      ascii;
    class       volScalarField;
    location    "170";
    object      p;
}
// * * * * * * * * * * * * * * * * * * * * * * * * * * * * * * * * * * * * * //

dimensions      [0 2 -2 0 0 0 0];

internalField   nonuniform List<scalar> 
2125
(
-0.397287
-0.400667
-0.401881
-0.402873
-0.403885
-0.40492
-0.405893
-0.406629
-0.406825
-0.406496
-0.389272
-0.392445
-0.393366
-0.393856
-0.394124
-0.394165
-0.393901
-0.393188
-0.39173
-0.389601
-0.381812
-0.384719
-0.385346
-0.385356
-0.38492
-0.384022
-0.382587
-0.380512
-0.377527
-0.373637
-0.374905
-0.37751
-0.377849
-0.377409
-0.376314
-0.374537
-0.372009
-0.36867
-0.364318
-0.358725
-0.368534
-0.370822
-0.370888
-0.37003
-0.368322
-0.36573
-0.362187
-0.357678
-0.352136
-0.344894
-0.362673
-0.364652
-0.364464
-0.36322
-0.360945
-0.357596
-0.353114
-0.34752
-0.340962
-0.332089
-0.357292
-0.358991
-0.358571
-0.356973
-0.354171
-0.350116
-0.344766
-0.338166
-0.33074
-0.320249
-0.352365
-0.353831
-0.353202
-0.351277
-0.347984
-0.343269
-0.337114
-0.329582
-0.321391
-0.309707
-0.347876
-0.349165
-0.348351
-0.346123
-0.34237
-0.337032
-0.330125
-0.32173
-0.312742
-0.300123
-0.34382
-0.344995
-0.344017
-0.341506
-0.33732
-0.331399
-0.323779
-0.314586
-0.304919
-0.291274
-0.340211
-0.341332
-0.340206
-0.337429
-0.332838
-0.326375
-0.318097
-0.308157
-0.297957
-0.283151
-0.337079
-0.338195
-0.336935
-0.333906
-0.328938
-0.321981
-0.313126
-0.302505
-0.291945
-0.275765
-0.334471
-0.335614
-0.334227
-0.330962
-0.325654
-0.318264
-0.308925
-0.297727
-0.287046
-0.269183
-0.332449
-0.333627
-0.332115
-0.328631
-0.323028
-0.315281
-0.305575
-0.293946
-0.283423
-0.263571
-0.331084
-0.332276
-0.330635
-0.326954
-0.321115
-0.313087
-0.303148
-0.291284
-0.281188
-0.259231
-0.330445
-0.331604
-0.329823
-0.325966
-0.319967
-0.31172
-0.301689
-0.289818
-0.280108
-0.256497
-0.330596
-0.331644
-0.329707
-0.325686
-0.319532
-0.311273
-0.301199
-0.289568
-0.279854
-0.25551
-0.331583
-0.33242
-0.330301
-0.326128
-0.319884
-0.311653
-0.301618
-0.290467
-0.279961
-0.255916
-0.33343
-0.333938
-0.331599
-0.327271
-0.32097
-0.312803
-0.302848
-0.292348
-0.280252
-0.257704
-0.336136
-0.336186
-0.333575
-0.329067
-0.322713
-0.314618
-0.304752
-0.294865
-0.281117
-0.263917
-0.33968
-0.33914
-0.336187
-0.33146
-0.32502
-0.316968
-0.307166
-0.297484
-0.282852
-0.278052
-0.344027
-0.342763
-0.339398
-0.334383
-0.327801
-0.319726
-0.309929
-0.299994
-0.285513
-0.279187
-0.34914
-0.347025
-0.343169
-0.337788
-0.330992
-0.322794
-0.312876
-0.302391
-0.287833
-0.278589
-0.351913
-0.34748
-0.341655
-0.33456
-0.326112
-0.315893
-0.304654
-0.289572
-0.277772
-0.352338
-0.345994
-0.338501
-0.329654
-0.318916
-0.306683
-0.290723
-0.276477
-0.35777
-0.350838
-0.342831
-0.333407
-0.321896
-0.308394
-0.291222
-0.274864
-0.35623
-0.347574
-0.337361
-0.324772
-0.309712
-0.291095
-0.272857
-0.352741
-0.341481
-0.327464
-0.310576
-0.290367
-0.270463
-0.329881
-0.310946
-0.289077
-0.267666
-0.310791
-0.287252
-0.26446
-0.284909
-0.260833
-0.4071
-0.401334
-0.398338
-0.403021
-0.43115
-0.468853
-0.473978
-0.415829
-0.3161
-0.229659
-0.174791
-0.147376
-0.153644
-0.170078
-0.1763
-0.14929
-0.110781
-0.0904112
-0.0767761
-0.0714466
-0.0740834
-0.079071
-0.0809806
-0.0799215
-0.0629204
-0.0331971
-0.0486842
-0.0602012
-0.043081
0.00908672
-0.389183
-0.385019
-0.38796
-0.402454
-0.441707
-0.487694
-0.495689
-0.434722
-0.328839
-0.235816
-0.175077
-0.143689
-0.145492
-0.158864
-0.165119
-0.141286
-0.107677
-0.0901382
-0.0782736
-0.0743916
-0.0777281
-0.0824104
-0.0825453
-0.0803627
-0.063157
-0.0334429
-0.0484988
-0.0604265
-0.0431241
0.00962541
-0.372631
-0.369913
-0.378255
-0.401219
-0.449904
-0.503246
-0.514109
-0.45103
-0.339887
-0.241081
-0.175034
-0.13989
-0.137285
-0.147713
-0.153584
-0.132895
-0.104375
-0.0897402
-0.0798125
-0.0774922
-0.0814969
-0.0857402
-0.0840452
-0.0807359
-0.0633817
-0.0337128
-0.0483278
-0.0606586
-0.0431681
0.0101406
-0.357512
-0.356032
-0.369049
-0.399073
-0.455413
-0.515203
-0.529046
-0.464693
-0.349271
-0.245513
-0.174759
-0.136072
-0.12918
-0.136755
-0.141847
-0.124184
-0.100878
-0.0892053
-0.081377
-0.0807257
-0.085366
-0.0890377
-0.0854749
-0.0810396
-0.0635892
-0.0340024
-0.0481729
-0.060897
-0.0432152
0.0106289
-0.3438
-0.343308
-0.360165
-0.395717
-0.458161
-0.523414
-0.540411
-0.475701
-0.357042
-0.24918
-0.17434
-0.132319
-0.121328
-0.126114
-0.130082
-0.115233
-0.0971958
-0.0885228
-0.0829476
-0.0840647
-0.0893092
-0.0922813
-0.0868294
-0.0812721
-0.0637743
-0.0343067
-0.0480353
-0.061141
-0.0432676
0.011087
-0.331411
-0.331588
-0.351469
-0.391116
-0.458104
-0.527911
-0.548225
-0.484087
-0.36327
-0.252151
-0.173854
-0.128708
-0.113867
-0.11591
-0.118483
-0.106131
-0.0933397
-0.0876843
-0.0845015
-0.0874781
-0.093298
-0.0954506
-0.0881044
-0.0814324
-0.0639313
-0.0346204
-0.0479154
-0.0613893
-0.0433266
0.0115115
-0.320194
-0.320829
-0.342897
-0.385303
-0.455348
-0.528867
-0.552607
-0.489926
-0.368037
-0.254499
-0.173364
-0.125307
-0.106911
-0.106254
-0.107244
-0.0969845
-0.089328
-0.0866838
-0.0860125
-0.0909315
-0.0973015
-0.0985265
-0.0892955
-0.0815194
-0.0640546
-0.0349379
-0.0478135
-0.0616402
-0.0433929
0.0118994
-0.309855
-0.310898
-0.334449
-0.378381
-0.450156
-0.526565
-0.553764
-0.493324
-0.371435
-0.256293
-0.172923
-0.122177
-0.100548
-0.0972468
-0.0965552
-0.0879114
-0.085185
-0.0855181
-0.0874521
-0.0943885
-0.101287
-0.101491
-0.0903987
-0.0815324
-0.0641387
-0.0352535
-0.0477291
-0.0618915
-0.0434668
0.0122476
-0.300509
-0.301744
-0.326105
-0.370545
-0.442892
-0.521385
-0.551973
-0.494417
-0.373555
-0.257603
-0.172568
-0.11937
-0.0948328
-0.0889742
-0.08658
-0.0790418
-0.0809419
-0.0841868
-0.0887896
-0.0978114
-0.105223
-0.104328
-0.0914104
-0.0814712
-0.0641782
-0.0355613
-0.0476612
-0.0621405
-0.0435477
0.012553
-0.292156
-0.293289
-0.317932
-0.362058
-0.433971
-0.513769
-0.547554
-0.493358
-0.37449
-0.258496
-0.172325
-0.116922
-0.0897929
-0.0814985
-0.0774464
-0.0705103
-0.0766371
-0.0826924
-0.0899932
-0.101163
-0.109074
-0.107021
-0.0923273
-0.0813358
-0.0641682
-0.0358555
-0.0476084
-0.0623843
-0.0436343
0.0128129
-0.284799
-0.285519
-0.310042
-0.353202
-0.423826
-0.504177
-0.540851
-0.49033
-0.37432
-0.259029
-0.17221
-0.114862
-0.0854285
-0.074854
-0.0692443
-0.0624484
-0.0723137
-0.0810406
-0.0910305
-0.104407
-0.112809
-0.109559
-0.0931465
-0.0811268
-0.0641041
-0.0361302
-0.0475687
-0.0626193
-0.0437244
0.0130244
-0.278501
-0.278465
-0.302555
-0.344252
-0.412868
-0.493045
-0.532201
-0.485544
-0.373133
-0.259259
-0.172234
-0.113213
-0.0817224
-0.0690456
-0.0620238
-0.0549757
-0.0680202
-0.0792404
-0.0918689
-0.107509
-0.116396
-0.111929
-0.0938655
-0.0808454
-0.0639822
-0.0363798
-0.04754
-0.0628417
-0.0438153
0.0131848
-0.273351
-0.272195
-0.295587
-0.335446
-0.401457
-0.48076
-0.521933
-0.47921
-0.371037
-0.25925
-0.172416
-0.111994
-0.0786471
-0.0640496
-0.0557965
-0.0481897
-0.0638083
-0.0773034
-0.0924764
-0.110441
-0.119806
-0.114119
-0.0944824
-0.0804935
-0.0637985
-0.036599
-0.0475199
-0.0630472
-0.0439033
0.0132916
-0.269422
-0.266802
-0.289235
-0.326973
-0.389879
-0.467692
-0.510345
-0.471515
-0.368152
-0.259054
-0.172755
-0.111201
-0.0761564
-0.0598104
-0.0505306
-0.0421594
-0.059729
-0.0752434
-0.0928213
-0.113174
-0.123012
-0.116122
-0.094995
-0.0800737
-0.0635479
-0.0367815
-0.0475055
-0.0632316
-0.043984
0.0133422
-0.266745
-0.262367
-0.283567
-0.318963
-0.378333
-0.454415
-0.497681
-0.462621
-0.364539
-0.258638
-0.17316
-0.110761
-0.0741631
-0.0562351
-0.0461439
-0.0369204
-0.0558291
-0.0730763
-0.0928726
-0.115688
-0.12599
-0.117928
-0.0954007
-0.0795886
-0.063226
-0.0369209
-0.0474928
-0.0633897
-0.0440521
0.0133341
-0.265252
-0.258942
-0.278613
-0.311488
-0.366933
-0.441738
-0.484127
-0.452675
-0.360189
-0.257887
-0.1735
-0.110575
-0.0725807
-0.0532313
-0.0425254
-0.0324635
-0.0521437
-0.0708188
-0.0925999
-0.117966
-0.12872
-0.119535
-0.0956986
-0.0790398
-0.0628374
-0.0370159
-0.0474785
-0.0635154
-0.0441016
0.0132648
-0.264728
-0.256505
-0.274366
-0.30458
-0.355813
-0.427856
-0.469718
-0.441922
-0.355352
-0.257057
-0.174055
-0.110845
-0.0715243
-0.0508255
-0.0396332
-0.0287669
-0.0486897
-0.0684862
-0.0919725
-0.119992
-0.131183
-0.120931
-0.0958928
-0.0784297
-0.062403
-0.0370776
-0.0474679
-0.0636048
-0.0441258
0.0131319
-0.264924
-0.254963
-0.270733
-0.298206
-0.345144
-0.412048
-0.454167
-0.430708
-0.350882
-0.257189
-0.175757
-0.112219
-0.0713711
-0.049164
-0.0375127
-0.025906
-0.045516
-0.0660932
-0.090962
-0.121755
-0.133313
-0.122048
-0.0959897
-0.0777706
-0.0619392
-0.0371165
-0.0474743
-0.0636701
-0.0441173
0.0129336
-0.265799
-0.254256
-0.267531
-0.292024
-0.334466
-0.395698
-0.436894
-0.4186
-0.346477
-0.257941
-0.178109
-0.114262
-0.0717826
-0.0479221
-0.0358171
-0.0238522
-0.0427663
-0.0637163
-0.0895136
-0.12327
-0.135015
-0.122821
-0.0959769
-0.077087
-0.061383
-0.0370735
-0.0474717
-0.0637157
-0.0440696
0.0126689
-0.265825
-0.253972
-0.265346
-0.286768
-0.32428
-0.379621
-0.419757
-0.403846
-0.337116
-0.253313
-0.175736
-0.113006
-0.0701948
-0.04559
-0.0331827
-0.0214877
-0.0399222
-0.0612518
-0.0876857
-0.124431
-0.136847
-0.123699
-0.0957976
-0.0763656
-0.0605448
-0.0367673
-0.0473234
-0.0635489
-0.0439805
0.0123244
-0.256202
-0.252659
-0.264689
-0.284817
-0.319835
-0.371407
-0.405437
-0.386564
-0.320541
-0.240423
-0.166416
-0.106585
-0.0651474
-0.0413416
-0.0284913
-0.0158847
-0.033017
-0.0544498
-0.0840189
-0.127631
-0.142147
-0.126293
-0.0954957
-0.0753749
-0.0592402
-0.036094
-0.0468167
-0.0625724
-0.0437014
0.0117518
-0.254686
-0.252733
-0.263277
-0.281445
-0.311542
-0.353883
-0.37926
-0.358619
-0.2974
-0.224211
-0.15596
-0.100371
-0.0608228
-0.0375696
-0.0245925
-0.0129376
-0.0301655
-0.0497979
-0.0815233
-0.129122
-0.14503
-0.126679
-0.0938923
-0.072859
-0.0572668
-0.0358574
-0.0466477
-0.0619658
-0.0438733
0.0111394
-0.252187
-0.25101
-0.259524
-0.275597
-0.300489
-0.333698
-0.351332
-0.330545
-0.275181
-0.208972
-0.146188
-0.0943306
-0.0565715
-0.0339806
-0.0208584
-0.010101
-0.0278548
-0.0464878
-0.0799317
-0.129252
-0.146331
-0.1261
-0.0917511
-0.0699702
-0.0550623
-0.035528
-0.0464164
-0.0614078
-0.0440997
0.010569
-0.247626
-0.246759
-0.252859
-0.26672
-0.286725
-0.311825
-0.323191
-0.302959
-0.253367
-0.193925
-0.136497
-0.0882773
-0.0523918
-0.0305082
-0.0171938
-0.00697464
-0.0246768
-0.0424907
-0.0776265
-0.128463
-0.146944
-0.124742
-0.0890842
-0.0667026
-0.0524941
-0.0350535
-0.0460435
-0.0606627
-0.0441407
0.00996023
-0.240184
-0.239946
-0.243804
-0.254933
-0.270979
-0.289261
-0.295669
-0.276424
-0.232413
-0.179373
-0.127046
-0.0822542
-0.0482503
-0.0270833
-0.013532
-0.00352837
-0.0206593
-0.0372819
-0.0739459
-0.126725
-0.146501
-0.122343
-0.0858026
-0.0630107
-0.0495482
-0.0343915
-0.0454943
-0.0596744
-0.0439527
0.0092792
-0.229955
-0.230974
-0.233114
-0.241787
-0.254138
-0.266923
-0.269527
-0.251471
-0.21258
-0.165386
-0.117837
-0.0762844
-0.0441279
-0.023645
-0.00982495
0.000342743
-0.0158162
-0.030869
-0.068759
-0.123645
-0.144555
-0.118737
-0.0818568
-0.0588746
-0.0461928
-0.0334889
-0.0447131
-0.0583927
-0.0435173
0.00852305
-0.217825
-0.220327
-0.221321
-0.227709
-0.236919
-0.245434
-0.245201
-0.228335
-0.193985
-0.152035
-0.108911
-0.0704062
-0.0400114
-0.0201424
-0.00602291
0.00472787
-0.0100347
-0.0232451
-0.0618808
-0.118857
-0.14084
-0.113821
-0.0772119
-0.0542808
-0.0424061
-0.0322843
-0.04363
-0.056735
-0.042763
0.00769298
-0.204511
-0.208426
-0.208807
-0.213225
-0.219823
-0.225107
-0.222803
-0.20705
-0.176658
-0.139357
-0.10029
-0.0646467
-0.0358952
-0.0165419
-0.00208089
0.00969156
-0.00314297
-0.0142861
-0.0529777
-0.112204
-0.13515
-0.107522
-0.0718505
-0.0492272
-0.0381699
-0.0307062
-0.0421621
-0.0545924
-0.041576
0.00678736
-0.190542
-0.195657
-0.195848
-0.198681
-0.203156
-0.206023
-0.202262
-0.18754
-0.16057
-0.127366
-0.0919871
-0.0590297
-0.0317866
-0.0128323
0.00203136
0.0152884
0.00504863
-0.00383444
-0.0417897
-0.103675
-0.127329
-0.0998192
-0.065781
-0.0437254
-0.0334727
-0.0286753
-0.0402126
-0.0518392
-0.0398286
0.00580522
-0.17635
-0.182365
-0.182645
-0.184294
-0.187075
-0.188154
-0.183426
-0.169675
-0.145663
-0.116058
-0.0840163
-0.0535733
-0.0277085
-0.00902571
0.00631701
0.0215467
0.0146827
0.00815687
-0.028334
-0.0933476
-0.116925
-0.0907553
-0.0590423
-0.0378032
-0.028308
-0.0261084
-0.0376724
-0.0483406
-0.0373933
0.00475025
-0.162224
-0.168827
-0.169358
-0.17019
-0.171657
-0.171435
-0.166126
-0.15331
-0.131864
-0.105422
-0.0763899
-0.0482911
-0.0236998
-0.00515797
0.0107374
0.0284245
0.0257091
0.021454
-0.0130447
-0.0814024
-0.104735
-0.0804671
-0.0517064
-0.0315074
-0.0226758
-0.0229238
-0.0344234
-0.0439621
-0.0341477
0.00363361
-0.148355
-0.155278
-0.156128
-0.156449
-0.15694
-0.155798
-0.150204
-0.138299
-0.119099
-0.0954417
-0.0691226
-0.0431945
-0.0198103
-0.0012936
0.0152054
0.0357082
0.0376297
0.0353117
0.00305806
-0.0680161
-0.0906261
-0.0691659
-0.0438772
-0.0249051
-0.016587
-0.0190484
-0.0303452
-0.0385835
-0.0299831
0.00247576
-0.13489
-0.141914
-0.143092
-0.143134
-0.142945
-0.141181
-0.135523
-0.124515
-0.107298
-0.0860954
-0.0622296
-0.0382973
-0.016089
0.00246679
0.0195936
0.0429107
0.0492805
0.0483157
0.0183931
-0.0532663
-0.0749079
-0.0571505
-0.0356871
-0.0180832
-0.010068
-0.0144278
-0.0253277
-0.0321186
-0.0248254
0.00130635
-0.121942
-0.128893
-0.130372
-0.130306
-0.129681
-0.127533
-0.121974
-0.111843
-0.0963928
-0.0773619
-0.0557229
-0.0336224
-0.0125745
0.00599307
0.023733
0.0492727
0.0591167
0.0587963
0.0313946
-0.0372512
-0.0580999
-0.0448054
-0.0272915
-0.0111454
-0.0031672
-0.00903559
-0.0192886
-0.0245407
-0.0186605
0.000161481
-0.109597
-0.116343
-0.118076
-0.118021
-0.117154
-0.114808
-0.109464
-0.100186
-0.0863234
-0.0692216
-0.0496088
-0.0292025
-0.00929746
0.0091509
0.0273957
0.0540005
0.0659916
0.0657267
0.0412361
-0.0205553
-0.0410263
-0.0325842
-0.0188605
-0.0042067
0.00403572
-0.0028856
-0.0122002
-0.0159089
-0.0115729
-0.000908723
-0.0979194
-0.104367
-0.106296
-0.106326
-0.105367
-0.102968
-0.0979194
-0.0894642
-0.077034
-0.0616569
-0.0438891
-0.0250722
-0.0062913
0.0118234
0.030313
0.0565562
0.0696249
0.0691384
0.0478839
-0.00451228
-0.0247345
-0.0209428
-0.0105674
0.00261414
0.0114217
0.00394401
-0.00412124
-0.00639402
-0.00378529
-0.00182451
-0.0869534
-0.093038
-0.0951083
-0.0952648
-0.0943204
-0.0919776
-0.0872778
-0.0796089
-0.0684755
-0.054652
-0.0385644
-0.0212594
-0.00359769
0.0139285
0.0322502
0.0569216
0.0703597
0.0696945
0.051677
0.00939314
-0.010137
-0.0102397
-0.00257841
0.00919514
0.0188303
0.0112912
0.00476339
0.00370259
0.00433012
-0.00247806
-0.076728
-0.0824111
-0.0845723
-0.0848738
-0.0840162
-0.0818064
-0.0774872
-0.0705638
-0.060606
-0.0481913
-0.0336369
-0.0177811
-0.00125698
0.015441
0.0331142
0.0554608
0.0687171
0.0681615
0.0531611
0.0202798
0.00221957
-0.000677875
0.00495186
0.0154095
0.0260489
0.0188977
0.0140967
0.0139433
0.0122682
-0.00274432
-0.0672586
-0.0725222
-0.0747308
-0.0751796
-0.0744539
-0.0724278
-0.068504
-0.0622822
-0.0533909
-0.0422587
-0.0291098
-0.0146423
0.000710781
0.0163928
0.0329853
0.0520674
0.0653121
0.065269
0.0530326
0.028107
0.0122128
0.00767797
0.0118881
0.0211323
0.0327961
0.0264075
0.0234328
0.0237613
0.0194569
-0.00250427
-0.058551
-0.063393
-0.0656135
-0.0662024
-0.0656327
-0.0638199
-0.0602924
-0.0547257
-0.0468018
-0.0368385
-0.0249834
-0.0118391
0.00231507
0.0168641
0.0321633
0.0487407
0.0609225
0.0616353
0.051929
0.0333799
0.0200358
0.0148463
0.0181273
0.0262644
0.0387277
0.0333886
0.0319506
0.0325029
0.0253975
-0.00167416
-0.050604
-0.055035
-0.0572395
-0.0579549
-0.0575509
-0.0559641
-0.0528232
-0.0478629
-0.0408153
-0.0319157
-0.0212532
-0.00935935
0.00358915
0.0169523
0.03087
0.0452535
0.0561591
0.0577005
0.0503051
0.0367233
0.0260011
0.0208875
0.0235992
0.0307615
0.043525
0.0394097
0.038973
0.039523
0.0298093
-0.000231144
-0.0434122
-0.0474523
-0.0496202
-0.0504457
-0.0502065
-0.0488462
-0.0460732
-0.041669
-0.0354123
-0.0274763
-0.0179105
-0.00718509
0.00458121
0.0167572
0.0293029
0.0418049
0.0514602
0.0537586
0.0484477
0.0386922
0.0304366
0.0258861
0.028259
0.0346011
0.0470143
0.044163
0.0440179
0.0443308
0.0327057
0.00175716
-0.0369681
-0.040645
-0.0427625
-0.0436814
-0.0435984
-0.0424557
-0.0400252
-0.0361256
-0.0305777
-0.0235082
-0.0149431
-0.00529483
0.00534318
0.0163747
0.0276273
0.0385454
0.0470966
0.0500065
0.0465353
0.0397208
0.0336439
0.0299421
0.0320982
0.037768
0.0491521
0.0475488
0.0469421
0.0468215
0.0343335
0.0040874
-0.0312656
-0.0346122
-0.0366713
-0.0376671
-0.037727
-0.0367867
-0.0346683
-0.0312201
-0.0263008
-0.0200019
-0.0123382
-0.00366646
0.00592471
0.0158896
0.0259741
0.0355911
0.0432143
0.0465744
0.0446778
0.0401336
0.0358913
0.0331619
0.0351523
0.040273
0.0501084
0.0493398
0.0481713
0.047397
0.0350018
0.00641589
-0.0263012
-0.0293543
-0.0313517
-0.0324096
-0.0325964
-0.0318388
-0.0299979
-0.0269464
-0.0225758
-0.0169514
-0.0100849
-0.00228034
0.00636848
0.0153726
0.0244378
0.0330028
0.0398817
0.0435444
0.0429496
0.0401644
0.0374109
0.0356502
0.0375019
0.0421554
0.0502458
0.0502833
0.0483953
0.0467499
0.0349541
0.00839758
-0.0220779
-0.0248778
-0.0268146
-0.0279211
-0.028217
-0.0276188
-0.0260176
-0.0233064
-0.0194038
-0.0143559
-0.00817641
-0.00112115
0.00670757
0.0148771
0.0230833
0.0308103
0.037115
0.0409657
0.041407
0.0399793
0.0383931
0.0375103
0.039253
0.0434813
0.0499238
0.0504917
0.0481469
0.0455372
0.0343859
0.00984914
-0.0186063
-0.0211963
-0.023078
-0.0242213
-0.024607
-0.0241426
-0.0227408
-0.020311
-0.0167938
-0.0122216
-0.00661194
-0.000179803
0.00696532
0.0144414
0.021952
0.0290281
0.0349053
0.0388646
0.0400945
0.0396967
0.0389941
0.0388439
0.0405169
0.0443446
0.0494216
0.0502183
0.0477166
0.0442158
0.0335189
0.0107695
-0.0159116
-0.0183375
-0.0201723
-0.0213425
-0.0217979
-0.0214393
-0.0201935
-0.0179832
-0.0147654
-0.0105637
-0.00539907
0.000545319
0.00715609
0.0140914
0.0210704
0.0276643
0.033238
0.0372562
0.0390515
0.0394013
0.0393379
0.0397461
0.0413902
0.0448572
0.0489189
0.0497333
0.0472463
0.0430522
0.0325918
0.0112735
-0.0140371
-0.0163486
-0.0181494
-0.0193361
-0.0198398
-0.0195559
-0.0184193
-0.0163622
-0.0133526
-0.00940953
-0.00455565
0.0010474
0.00728545
0.0138438
0.0204584
0.0267286
0.032106
0.036154
0.0383145
0.0391591
0.0395136
0.0402999
0.0419422
0.0451255
0.0485249
0.0492632
0.0468363
0.0421924
0.0318174
0.0115049
-0.0130393
-0.0152935
-0.0170767
-0.0182742
-0.0188043
-0.0185612
-0.0174823
-0.0155068
-0.0126068
-0.00880101
-0.00411128
0.00131091
0.00735211
0.0137118
0.0201363
0.02624
0.0315194
0.0355801
0.0379252
0.0390199
0.0395903
0.0405649
0.0422148
0.0452309
0.0483055
0.0489748
0.0465923
0.0417261
0.0313653
0.0115877
-0.235711
-0.24026
-0.244372
-0.248054
-0.251323
-0.254213
-0.256791
-0.259248
-0.261736
-0.265365
-0.269303
-0.280871
-0.21906
-0.223949
-0.228518
-0.232809
-0.236882
-0.240869
-0.244861
-0.249293
-0.25388
-0.260286
-0.264774
-0.276278
-0.20325
-0.208513
-0.213599
-0.218577
-0.223486
-0.228468
-0.233395
-0.238647
-0.243201
-0.248892
-0.251703
-0.261062
-0.188377
-0.193865
-0.199232
-0.204522
-0.209685
-0.214807
-0.21959
-0.224481
-0.228521
-0.233857
-0.237514
-0.246247
-0.174067
-0.179544
-0.184891
-0.190132
-0.195195
-0.200207
-0.204957
-0.210001
-0.214658
-0.220498
-0.225246
-0.232903
-0.160267
-0.165613
-0.170848
-0.176017
-0.18109
-0.186219
-0.191264
-0.196591
-0.20162
-0.207201
-0.21206
-0.218719
-0.147128
-0.152327
-0.157465
-0.162585
-0.167668
-0.172795
-0.177833
-0.182956
-0.18784
-0.19302
-0.198061
-0.204323
-0.134695
-0.139713
-0.144691
-0.14965
-0.154565
-0.159475
-0.164316
-0.16921
-0.174065
-0.17915
-0.184355
-0.190288
-0.122907
-0.127686
-0.132429
-0.137151
-0.141846
-0.146548
-0.151251
-0.156015
-0.160811
-0.165708
-0.17077
-0.176342
-0.111744
-0.116258
-0.12075
-0.125233
-0.129715
-0.134212
-0.138724
-0.143261
-0.147827
-0.152446
-0.15728
-0.162552
-0.101215
-0.105458
-0.109689
-0.113916
-0.118144
-0.122379
-0.126625
-0.130887
-0.135198
-0.139565
-0.144153
-0.149112
-0.0913047
-0.0952674
-0.0992203
-0.103168
-0.107118
-0.111073
-0.115047
-0.119042
-0.123089
-0.12718
-0.131465
-0.136068
-0.081988
-0.0856677
-0.0893388
-0.0930063
-0.0966767
-0.100354
-0.104049
-0.107759
-0.111511
-0.115297
-0.119255
-0.123492
-0.0732528
-0.0766544
-0.0800479
-0.0834372
-0.0868275
-0.0902216
-0.0936273
-0.0970441
-0.100495
-0.103976
-0.107606
-0.111472
-0.0650823
-0.0682136
-0.0713356
-0.0744513
-0.077565
-0.0806792
-0.0838008
-0.0869298
-0.0900861
-0.0932636
-0.0965663
-0.100065
-0.0603306
-0.0631911
-0.0660432
-0.0688902
-0.0717343
-0.0745813
-0.0774305
-0.0802986
-0.0831797
-0.0861637
-0.0893075
-0.0529916
-0.0556038
-0.0582051
-0.060798
-0.0633843
-0.0659684
-0.0685498
-0.0711422
-0.0737406
-0.0764213
-0.0792291
-0.0461828
-0.0485616
-0.0509268
-0.0532804
-0.0556237
-0.0579602
-0.0602895
-0.0626228
-0.0649551
-0.0673511
-0.0698452
-0.0398906
-0.0420522
-0.0441976
-0.0463285
-0.0484457
-0.050552
-0.0526467
-0.0547389
-0.0568243
-0.0589566
-0.0611618
-0.0341018
-0.0360635
-0.0380067
-0.0399326
-0.0418418
-0.0437361
-0.0456153
-0.0474863
-0.0493452
-0.0512365
-0.0531791
-0.0288071
-0.0305863
-0.032345
-0.0340841
-0.0358037
-0.0375053
-0.0391884
-0.0408587
-0.0425125
-0.0441859
-0.0458925
-0.0239973
-0.0256117
-0.0272041
-0.0287746
-0.0303235
-0.0318518
-0.0333588
-0.034849
-0.0363192
-0.0377983
-0.0392953
-0.0196668
-0.0211342
-0.022578
-0.0239984
-0.0253954
-0.0267695
-0.0281203
-0.029451
-0.0307588
-0.0320666
-0.0333797
-0.0158125
-0.0171503
-0.0184635
-0.0197521
-0.0210158
-0.022255
-0.0234691
-0.0246605
-0.025827
-0.026986
-0.0281401
-0.0124352
-0.0136609
-0.0148612
-0.0160359
-0.0171848
-0.0183078
-0.0194047
-0.0204768
-0.0215224
-0.0225545
-0.0235737
-0.0095429
-0.0106737
-0.0117787
-0.0128575
-0.0139097
-0.0149354
-0.0159339
-0.0169064
-0.0178511
-0.0187777
-0.0196849
-0.00714587
-0.00819922
-0.00922651
-0.0102273
-0.0112013
-0.0121481
-0.0130674
-0.0139598
-0.0148238
-0.015666
-0.016484
-0.00527312
-0.00626622
-0.00723329
-0.00817389
-0.00908756
-0.00997406
-0.0108329
-0.0116643
-0.0124672
-0.0132458
-0.0139966
-0.003949
-0.00490123
-0.00582775
-0.00672806
-0.00760168
-0.00844825
-0.00926723
-0.0100587
-0.0108215
-0.0115585
-0.0122652
-0.00322535
-0.00415295
-0.00505574
-0.00593329
-0.00678511
-0.00761087
-0.00841003
-0.00918261
-0.00992745
-0.0106466
-0.0113353
-0.0599826
-0.0430361
0.008528
)
;

boundaryField
{
    inlet
    {
        type            zeroGradient;
    }
    outlet
    {
        type            fixedValue;
        value           uniform 0;
    }
    cylinder
    {
        type            zeroGradient;
    }
    top
    {
        type            symmetryPlane;
    }
    bottom
    {
        type            symmetryPlane;
    }
    defaultFaces
    {
        type            empty;
    }
    procBoundary3to1
    {
        type            processor;
        value           nonuniform List<scalar> 
41
(
-0.40584
-0.409346
-0.410844
-0.41235
-0.414134
-0.416204
-0.418464
-0.420713
-0.422635
-0.424103
-0.426193
-0.418738
-0.40948
-0.403239
-0.418943
-0.446894
-0.44928
-0.39445
-0.301669
-0.222557
-0.174071
-0.150855
-0.161585
-0.181215
-0.186998
-0.156848
-0.113683
-0.090572
-0.0753322
-0.068675
-0.0705838
-0.075746
-0.079357
-0.0794143
-0.0626765
-0.0329796
-0.048882
-0.05977
-0.0429864
0.00795273
-0.048882
)
;
    }
    procBoundary3to2
    {
        type            processor;
        value           nonuniform List<scalar> 
50
(
-0.354988
-0.354988
-0.357424
-0.357424
-0.363567
-0.363818
-0.363818
-0.36221
-0.36221
-0.358317
-0.345696
-0.345696
-0.331926
-0.331926
-0.310087
-0.310087
-0.282051
-0.256766
-0.256766
-0.230716
-0.213822
-0.19777
-0.182749
-0.168468
-0.154818
-0.141861
-0.129633
-0.118093
-0.107203
-0.096953
-0.0873268
-0.0782948
-0.0698387
-0.0619382
-0.057459
-0.057459
-0.0503665
-0.043789
-0.0377119
-0.0321211
-0.0270071
-0.0223606
-0.018176
-0.0144503
-0.0111845
-0.0083866
-0.00606694
-0.00425451
-0.00297163
-0.00227346
)
;
    }
}


// ************************************************************************* //
