/*--------------------------------*- C++ -*----------------------------------*\
  =========                 |
  \\      /  F ield         | OpenFOAM: The Open Source CFD Toolbox
   \\    /   O peration     | Website:  https://openfoam.org
    \\  /    A nd           | Version:  7
     \\/     M anipulation  |
\*---------------------------------------------------------------------------*/
FoamFile
{
    version     2.0;
    format      ascii;
    class       volScalarField;
    location    "30";
    object      p;
}
// * * * * * * * * * * * * * * * * * * * * * * * * * * * * * * * * * * * * * //

dimensions      [0 2 -2 0 0 0 0];

internalField   nonuniform List<scalar> 
2125
(
0.866935
0.809596
0.777805
0.866935
0.809596
0.777805
0.749959
0.722695
0.694984
0.665963
0.63571
0.604724
0.573677
0.862453
0.805369
0.773791
0.746208
0.719248
0.69186
0.663161
0.633215
0.602496
0.571713
0.85352
0.796945
0.765791
0.738732
0.712378
0.68563
0.657571
0.628237
0.598052
0.567794
0.840196
0.784382
0.75386
0.727579
0.702125
0.676332
0.649226
0.620803
0.591415
0.561937
0.822575
0.767768
0.738079
0.712823
0.688555
0.664019
0.638171
0.610953
0.582618
0.554166
0.800778
0.74722
0.718557
0.694562
0.671753
0.648765
0.624468
0.598739
0.571705
0.544516
0.774953
0.72288
0.695428
0.672915
0.651823
0.630659
0.608193
0.584223
0.558732
0.533027
0.745279
0.694918
0.66885
0.648026
0.62889
0.609808
0.589435
0.567482
0.54376
0.519743
0.711959
0.663528
0.639004
0.620058
0.603096
0.586334
0.568296
0.548602
0.526863
0.504718
0.675221
0.62893
0.606096
0.589194
0.574603
0.560372
0.544892
0.527676
0.50812
0.488007
0.635315
0.591361
0.57035
0.555639
0.543587
0.532076
0.519349
0.504811
0.487616
0.469669
0.592513
0.551083
0.532009
0.519613
0.510243
0.50161
0.491806
0.48012
0.465445
0.449764
0.547105
0.508373
0.491334
0.481351
0.474777
0.469152
0.46241
0.453725
0.441705
0.428355
0.4994
0.463524
0.448602
0.441106
0.437411
0.434891
0.431322
0.425755
0.416499
0.405503
0.449718
0.416843
0.404102
0.399142
0.398379
0.39903
0.398711
0.396351
0.38994
0.381272
0.398393
0.368648
0.358134
0.355733
0.357926
0.361781
0.364757
0.36566
0.362154
0.355728
0.345768
0.319265
0.311007
0.311164
0.316305
0.323366
0.329652
0.333846
0.333285
0.328927
0.292191
0.269026
0.263035
0.265725
0.273777
0.284017
0.293598
0.301078
0.303461
0.300867
0.238015
0.218264
0.214537
0.219712
0.230612
0.243975
0.256811
0.267515
0.272772
0.271454
0.183591
0.167312
0.16583
0.173421
0.187079
0.203487
0.219523
0.233369
0.241827
0.241934
0.129267
0.116499
0.117227
0.127147
0.143448
0.162798
0.181972
0.198983
0.212574
0.220143
0.0753834
0.0661457
0.0690378
0.081178
0.0999815
0.122128
0.14433
0.164304
0.181643
0.195287
0.0222742
0.0165626
0.0215599
0.0357969
0.0569356
0.0816943
0.106754
0.129527
0.14976
0.167981
-0.0297429
-0.0319532
-0.0249204
-0.00872385
0.0145649
0.0417265
0.0694448
0.0949168
0.117783
0.139626
-0.0803899
-0.0791046
-0.07013
-0.0521225
-0.0268824
0.0024589
0.03262
0.0606685
0.0860711
0.110859
-0.129388
-0.124626
-0.113815
-0.0941532
-0.0671681
-0.0358831
-0.00350988
0.0269458
0.0547613
0.0821196
-0.176422
-0.168313
-0.155738
-0.134591
-0.106068
-0.0730856
-0.0387439
-0.00608078
0.023987
0.0536824
-0.221278
-0.209929
-0.195686
-0.173202
-0.143394
-0.10895
-0.0728924
-0.0382402
-0.00610357
0.0257345
-0.263753
-0.249276
-0.233474
-0.209819
-0.178929
-0.143299
-0.105781
-0.0693727
-0.0353736
-0.00156279
-0.303661
-0.286191
-0.26894
-0.244277
-0.212522
-0.175956
-0.137253
-0.099335
-0.0637187
-0.0280486
-0.340847
-0.320539
-0.30195
-0.276437
-0.24403
-0.206782
-0.167164
-0.128001
-0.0910431
-0.0535467
-0.375187
-0.352213
-0.3324
-0.306187
-0.273334
-0.235652
-0.195393
-0.155238
-0.116961
-0.0782148
-0.406589
-0.381138
-0.360216
-0.333447
-0.30034
-0.262466
-0.221836
-0.18097
-0.141713
-0.102491
-0.434991
-0.407268
-0.385352
-0.358163
-0.324983
-0.287144
-0.246406
-0.205107
-0.165105
-0.125308
-0.460364
-0.430587
-0.407794
-0.38031
-0.347224
-0.309631
-0.269036
-0.227569
-0.187061
-0.146777
-0.482709
-0.451108
-0.427553
-0.399891
-0.367048
-0.329896
-0.289679
-0.248305
-0.207557
-0.167006
-0.502058
-0.468869
-0.444669
-0.416937
-0.384469
-0.347932
-0.308311
-0.267282
-0.226555
-0.185983
-0.518469
-0.483937
-0.459207
-0.4315
-0.399523
-0.363755
-0.32493
-0.28448
-0.244021
-0.203674
-0.532026
-0.4964
-0.471253
-0.443661
-0.412272
-0.377402
-0.339549
-0.299897
-0.259939
-0.220065
-0.542838
-0.506366
-0.480914
-0.453517
-0.422796
-0.388932
-0.352205
-0.313547
-0.274309
-0.235157
-0.551032
-0.513961
-0.488317
-0.461186
-0.431199
-0.398425
-0.362949
-0.325462
-0.287146
-0.248962
-0.556755
-0.519328
-0.493599
-0.4668
-0.437597
-0.405977
-0.371854
-0.335688
-0.298476
-0.261507
-0.560166
-0.522618
-0.496912
-0.470504
-0.442123
-0.411698
-0.379006
-0.344286
-0.308342
-0.272831
-0.561436
-0.523995
-0.498415
-0.472453
-0.44492
-0.415715
-0.384504
-0.351333
-0.316799
-0.282985
-0.560745
-0.523624
-0.498272
-0.472806
-0.446138
-0.418161
-0.388463
-0.356916
-0.323912
-0.292031
-0.558276
-0.521676
-0.49665
-0.471728
-0.445935
-0.419179
-0.391002
-0.361132
-0.329757
-0.300041
-0.554214
-0.51832
-0.493713
-0.46938
-0.444468
-0.418916
-0.39225
-0.364086
-0.334418
-0.307095
-0.548741
-0.513724
-0.489626
-0.465926
-0.441895
-0.41752
-0.392339
-0.365887
-0.337985
-0.313275
-0.542036
-0.50805
-0.484545
-0.46152
-0.438369
-0.415137
-0.3914
-0.366647
-0.340548
-0.534272
-0.501453
-0.478622
-0.456312
-0.43404
-0.41191
-0.389564
-0.366476
-0.525609
-0.49408
-0.471997
-0.450444
-0.429047
-0.407978
-0.386957
-0.516199
-0.486067
-0.464804
-0.444045
-0.423523
-0.506183
-0.477539
-0.457161
-0.437237
-0.495685
-0.468612
-0.449179
-0.484822
-0.459389
-0.473696
-0.449962
-0.462402
0.245881
0.24857
0.254327
0.262194
0.272135
0.283695
0.296453
0.309798
0.322727
0.334139
0.341994
0.344848
0.338345
0.323991
0.28797
0.246532
0.249254
0.255109
0.263125
0.273295
0.285194
0.298453
0.312538
0.326537
0.339492
0.349487
0.355308
0.352743
0.343293
0.315517
0.247142
0.24986
0.255751
0.26383
0.274109
0.286184
0.299727
0.314268
0.328976
0.343027
0.354642
0.362854
0.363703
0.358548
0.337693
0.247724
0.250442
0.256377
0.264528
0.274931
0.287204
0.301059
0.316088
0.331537
0.34671
0.359958
0.370503
0.374661
0.373517
0.359055
0.248277
0.251003
0.256986
0.265217
0.275754
0.288237
0.302417
0.317946
0.334144
0.350431
0.365283
0.378073
0.385418
0.38809
0.379485
0.2488
0.251533
0.257565
0.265873
0.276537
0.289221
0.303708
0.319709
0.336613
0.353945
0.370312
0.385207
0.395574
0.401879
0.398672
0.249292
0.252032
0.25811
0.26649
0.277273
0.290143
0.304916
0.321358
0.338921
0.35723
0.375019
0.391883
0.405098
0.414867
0.416665
0.249752
0.252501
0.25862
0.267069
0.277963
0.291007
0.306049
0.322902
0.341083
0.360303
0.379427
0.398131
0.414013
0.427076
0.43351
0.250179
0.252938
0.259096
0.267608
0.278607
0.291814
0.307106
0.324342
0.343098
0.363164
0.383533
0.403947
0.422311
0.438485
0.449208
0.250573
0.253341
0.259542
0.268107
0.279203
0.29256
0.308084
0.325673
0.344962
0.365808
0.387326
0.40932
0.429975
0.449064
0.463745
0.250933
0.253709
0.259957
0.268565
0.279749
0.293245
0.30898
0.326893
0.346669
0.368227
0.3908
0.414241
0.43699
0.458782
0.477098
0.251258
0.254043
0.260285
0.268981
0.280244
0.293865
0.309794
0.327999
0.348216
0.370418
0.393946
0.418701
0.443345
0.467614
0.489241
0.251549
0.254342
0.260623
0.269352
0.280687
0.294421
0.310521
0.328988
0.3496
0.372378
0.396758
0.42269
0.449028
0.475533
0.500141
0.251804
0.254604
0.260917
0.269679
0.281078
0.29491
0.311162
0.329859
0.350818
0.374101
0.399232
0.4262
0.454028
0.482517
0.509766
0.252023
0.254831
0.261166
0.269961
0.281414
0.295332
0.311714
0.330609
0.351867
0.375584
0.401362
0.429224
0.458335
0.488543
0.518084
0.252207
0.25502
0.261373
0.270196
0.281696
0.295685
0.312176
0.331236
0.352744
0.376825
0.403143
0.431755
0.461939
0.493593
0.525065
0.252354
0.255172
0.261539
0.270385
0.281922
0.295968
0.312547
0.33174
0.353449
0.377821
0.404572
0.433787
0.464832
0.497652
0.530683
0.252464
0.255286
0.261664
0.270527
0.282092
0.296181
0.312826
0.332118
0.353979
0.37857
0.405647
0.435316
0.467008
0.500707
0.534916
0.252538
0.255363
0.261748
0.270622
0.282206
0.296323
0.313013
0.332371
0.354333
0.37907
0.406365
0.436336
0.468462
0.502749
0.537748
0.252575
0.255401
0.26179
0.27067
0.282263
0.296395
0.313106
0.332498
0.35451
0.37932
0.406724
0.436847
0.469189
0.503772
0.539167
0.178378
0.176126
0.171801
0.165871
0.158775
0.150871
0.142457
0.133797
0.125119
0.116605
0.108395
0.100591
0.0932556
0.0864246
0.0801138
0.179067
0.176839
0.17254
0.166636
0.159557
0.151651
0.143213
0.134509
0.125766
0.117172
0.108872
0.10097
0.0935358
0.0866068
0.0802044
0.180352
0.178162
0.173916
0.168065
0.161022
0.153117
0.14464
0.135855
0.126994
0.118252
0.109782
0.101697
0.0940739
0.0869552
0.0803697
0.182136
0.18
0.175835
0.17007
0.163087
0.155194
0.146672
0.137781
0.12876
0.119811
0.111102
0.102756
0.0948628
0.0874726
0.0806268
0.184336
0.182271
0.178217
0.172572
0.165679
0.15782
0.149257
0.140248
0.131035
0.121833
0.112822
0.104145
0.0959057
0.0881645
0.0809803
0.186871
0.184895
0.180986
0.175501
0.168738
0.160942
0.152355
0.143227
0.133803
0.124309
0.114945
0.105872
0.0972137
0.0890448
0.0814462
0.189671
0.187801
0.184073
0.178793
0.172207
0.164515
0.155933
0.146698
0.137056
0.127244
0.117481
0.107952
0.0988056
0.0901327
0.0820424
0.192671
0.190926
0.187416
0.18239
0.176032
0.168496
0.159962
0.150646
0.140791
0.130645
0.120447
0.110408
0.100706
0.0914529
0.0827915
0.195811
0.19421
0.190957
0.186236
0.180167
0.172847
0.164413
0.155057
0.145008
0.134525
0.123866
0.113269
0.102946
0.0930353
0.0837198
0.199041
0.1976
0.194642
0.19028
0.184563
0.177527
0.169261
0.159918
0.149711
0.1389
0.127762
0.116566
0.10556
0.0949146
0.0848576
0.202312
0.20105
0.198423
0.194472
0.189174
0.1825
0.174478
0.165215
0.1549
0.143786
0.132166
0.120337
0.108589
0.0971306
0.0862394
0.205586
0.204516
0.202256
0.198768
0.193957
0.187725
0.180033
0.170933
0.160576
0.1492
0.137107
0.124622
0.112078
0.0997281
0.087904
0.208826
0.207962
0.2061
0.203124
0.198868
0.193162
0.185894
0.177052
0.166735
0.155156
0.142615
0.129464
0.116075
0.102757
0.0898947
0.212003
0.211355
0.209921
0.2075
0.203864
0.198769
0.192026
0.183547
0.173369
0.161664
0.148719
0.134905
0.120633
0.106272
0.0922596
0.215093
0.214669
0.213684
0.211859
0.208904
0.204505
0.198389
0.19039
0.180464
0.168731
0.155446
0.140991
0.125807
0.110334
0.0950523
0.218074
0.21788
0.217365
0.216167
0.213949
0.210325
0.204943
0.197546
0.188001
0.176356
0.162817
0.147764
0.131654
0.115009
0.0983317
0.220932
0.220971
0.220937
0.220394
0.21896
0.216187
0.211642
0.204976
0.195952
0.184532
0.170849
0.155265
0.138233
0.120369
0.102162
0.223654
0.223927
0.224382
0.224512
0.223903
0.222048
0.218439
0.212634
0.204282
0.193243
0.179551
0.16353
0.145601
0.126489
0.106615
0.226231
0.226737
0.227684
0.228499
0.228745
0.227867
0.225287
0.220471
0.212949
0.202464
0.188921
0.17259
0.153815
0.13345
0.111764
0.22866
0.229394
0.230831
0.232334
0.233458
0.233605
0.232137
0.228435
0.221904
0.212158
0.198948
0.182467
0.162928
0.141337
0.117689
0.230935
0.231893
0.233813
0.236002
0.238016
0.239224
0.238942
0.236469
0.231089
0.222281
0.209612
0.193173
0.172985
0.150235
0.124472
0.233059
0.234232
0.236624
0.239491
0.242398
0.244692
0.245654
0.244516
0.240444
0.232777
0.220876
0.204707
0.184025
0.160231
0.132199
0.235031
0.236412
0.239261
0.24279
0.246585
0.249979
0.252231
0.25252
0.249903
0.243581
0.232691
0.217053
0.196073
0.171403
0.14095
0.236856
0.238435
0.241724
0.245895
0.250563
0.255058
0.258632
0.260424
0.259395
0.254619
0.244997
0.230178
0.209141
0.183813
0.150795
0.238538
0.240304
0.244013
0.248803
0.254323
0.25991
0.264822
0.268175
0.268856
0.265817
0.257727
0.244044
0.223248
0.197546
0.161834
0.240082
0.242026
0.246133
0.251515
0.25786
0.264521
0.270776
0.275735
0.278229
0.277113
0.270829
0.258631
0.238448
0.21275
0.174279
0.241495
0.243605
0.248088
0.254032
0.261171
0.26888
0.276469
0.283059
0.287449
0.288415
0.284198
0.27383
0.254675
0.229393
0.188212
0.242782
0.245045
0.249878
0.256349
0.264239
0.27295
0.281833
0.290031
0.296331
0.299447
0.297443
0.28911
0.271271
0.246481
0.202411
0.24395
0.246347
0.251496
0.258446
0.267024
0.27666
0.286751
0.296472
0.304611
0.309838
0.310069
0.303847
0.287551
0.263035
0.215142
0.245014
0.247542
0.252987
0.260385
0.269619
0.280162
0.291476
0.302806
0.312993
0.320745
0.323918
0.320935
0.307826
0.285878
0.236323
0.0759735
0.0738155
0.0716585
0.0694971
0.0673292
0.0651559
0.062979
0.0608
0.05862
0.0564404
0.0542624
0.0520873
0.0499163
0.0477508
0.045592
0.0434411
0.0412994
0.0391684
0.0370487
0.0349418
0.0760014
0.073831
0.0716668
0.0694968
0.0673163
0.0651267
0.0629305
0.0607291
0.0585239
0.0563161
0.0541073
0.0518989
0.0496925
0.0474895
0.0452914
0.0430999
0.0409162
0.0387422
0.036579
0.0344283
0.076023
0.0737965
0.0715893
0.0693774
0.0671514
0.0649134
0.0626667
0.0604133
0.0581546
0.055892
0.0536271
0.0513616
0.0490972
0.0468355
0.0445782
0.0423269
0.0400833
0.0378494
0.0356263
0.0334157
0.0760763
0.0737617
0.0714857
0.0692082
0.0669129
0.0646026
0.0622818
0.0599529
0.0576172
0.0552762
0.0529317
0.0505856
0.0482395
0.0458953
0.0435548
0.0412197
0.0388916
0.0365742
0.034267
0.0319721
0.0761616
0.0737239
0.0713512
0.0689826
0.0665922
0.0641838
0.0617636
0.0593343
0.0568972
0.054454
0.0520064
0.0495565
0.0471061
0.0446572
0.0422117
0.0397715
0.0373385
0.0349151
0.0325027
0.0301031
0.0763017
0.0737078
0.071211
0.0687259
0.0662152
0.0636836
0.0611391
0.0585849
0.0560224
0.0534531
0.050879
0.0483021
0.0457245
0.0431482
0.0405752
0.0380077
0.035448
0.0328961
0.0303564
0.0278305
0.0765147
0.0737298
0.0710792
0.0684508
0.0657933
0.0631117
0.0604167
0.057712
0.0549987
0.0522785
0.0495533
0.0468253
0.0440966
0.0413694
0.0386458
0.0359278
0.0332179
0.0305174
0.0278291
0.025155
0.0768252
0.0738126
0.0709765
0.0681762
0.0653435
0.0624839
0.0596107
0.0567284
0.0538379
0.0509406
0.0480388
0.0451345
0.0422301
0.0393276
0.0364293
0.0335374
0.0306542
0.0277814
0.0249214
0.0220765
0.0772597
0.07398
0.0709232
0.0679196
0.0648811
0.061813
0.0587319
0.0556429
0.0525466
0.0494445
0.0463386
0.0432312
0.0401247
0.0370212
0.0339229
0.030832
0.0277511
0.0246817
0.0216262
0.0185869
0.0778485
0.0742588
0.0709421
0.0677006
0.0644228
0.0611132
0.0577917
0.0544644
0.0511316
0.0477945
0.0444552
0.0411161
0.0377794
0.0344474
0.0311221
0.0278059
0.0245014
0.0212098
0.0179337
0.0146753
0.0786257
0.0746785
0.0710576
0.0675398
0.0639857
0.0603982
0.0568009
0.0532008
0.0495979
0.0459933
0.0423889
0.0387871
0.0351901
0.0316
0.0280191
0.0244494
0.020894
0.0173535
0.0138303
0.0103268
0.0796292
0.0752718
0.0712967
0.0674594
0.0635882
0.0596825
0.0557701
0.0518593
0.0479497
0.0440419
0.0401378
0.0362397
0.0323497
0.02847
0.0246024
0.0207489
0.0169141
0.0130961
0.00929776
0.00552172
0.0809017
0.0760748
0.0716885
0.0674835
0.0632497
0.0589812
0.0547103
0.050447
0.0461905
0.0419407
0.0376995
0.033469
0.0292512
0.0250483
0.0208617
0.0166921
0.0125502
0.0084248
0.00432049
0.000242231
0.0824905
0.0771276
0.0722653
0.067638
0.0629907
0.0583095
0.0536318
0.0489696
0.0443215
0.0396865
0.0350662
0.0304625
0.0258769
0.0213107
0.0167619
0.0122269
0.00776061
0.00330238
-0.00113608
-0.00554452
0.0844488
0.0784751
0.0730627
0.067952
0.0628343
0.0576848
0.0525468
0.0474349
0.0423468
0.0372811
0.0322391
0.0272226
0.0222333
0.0172726
0.0123456
0.00746093
0.00256164
-0.00228541
-0.00708869
-0.0118567
0.0868367
0.0801676
0.0741204
0.0684564
0.0628039
0.0571231
0.0514639
0.0458439
0.0402601
0.0347098
0.0291938
0.0237135
0.0182699
0.0128636
0.00749622
0.00217174
-0.00312064
-0.00836793
-0.0135713
-0.0187325
0.0897224
0.0822632
0.0754844
0.0691883
0.0629286
0.056646
0.0503977
0.0442054
0.038065
0.0319726
0.0259285
0.0199336
0.0139886
0.0080937
0.0022494
-0.00353915
-0.00928244
-0.0149745
-0.0206139
-0.0262012
0.0931839
0.0848286
0.0772071
0.070189
0.0632402
0.0562757
0.0493616
0.0425241
0.0357583
0.0290587
0.0224249
0.0158574
0.00935657
0.00292162
-0.00344836
-0.00974133
-0.0159787
-0.0221541
-0.0282636
-0.0343081
0.0973105
0.0879412
0.0793498
0.0715076
0.0637767
0.0560395
0.0483724
0.0408076
0.0333387
0.0259587
0.0186661
0.0114612
0.00434327
-0.00269138
-0.00964816
-0.0164806
-0.0232526
-0.0299505
-0.0365654
-0.0430986
0.102204
0.0916915
0.0819845
0.0732017
0.0645832
0.0559703
0.0474512
0.0390657
0.0308061
0.0226633
0.0146352
0.00672157
-0.00107949
-0.008773
-0.0163626
-0.0238082
-0.0311656
-0.038423
-0.0455764
-0.0526286
0.107983
0.0961846
0.0851957
0.0753399
0.0657144
0.0561083
0.0466243
0.0373115
0.028161
0.0191617
0.0103112
0.00160931
-0.00694535
-0.0153493
-0.0235845
-0.0317571
-0.0397657
-0.0476261
-0.0553551
-0.0629575
0.11478
0.101542
0.0890819
0.0780043
0.0672367
0.0565039
0.0459262
0.0355642
0.0254073
0.015442
0.00566567
-0.00392193
-0.013323
-0.0225402
-0.0315514
-0.0404238
-0.0491173
-0.0576318
-0.0659769
-0.0741593
0.122742
0.107898
0.0937569
0.081292
0.0692311
0.0572205
0.0454032
0.0338538
0.0225595
0.0115045
0.000686389
-0.00989387
-0.0202415
-0.0303676
-0.0401865
-0.0498444
-0.0592958
-0.0685188
-0.0775213
-0.0863134
0.13202
0.115396
0.0993444
0.0853141
0.0717923
0.0583341
0.0451126
0.0322192
0.0196385
0.00735245
-0.0046411
-0.0163453
-0.0277899
-0.0390216
-0.049668
-0.0601704
-0.0704271
-0.0803984
-0.0900926
-0.0995188
0.142767
0.124173
0.105973
0.0901938
0.0750289
0.0599348
0.0451263
0.0307134
0.0166781
0.00300402
-0.0103043
-0.0232384
-0.0357717
-0.0478122
-0.0598669
-0.0714283
-0.0825661
-0.0933462
-0.10378
-0.113868
0.155181
0.134388
0.113796
0.0960769
0.0790675
0.0621294
0.045531
0.029398
0.013708
-0.00155284
-0.0163736
-0.0307502
-0.0446924
-0.0580298
-0.0711028
-0.0837094
-0.0958281
-0.107489
-0.118702
-0.129471
0.169429
0.146187
0.12295
0.103073
0.0839837
0.0649722
0.0463683
0.0283031
0.0107491
-0.00630112
-0.022839
-0.0389213
-0.0546658
-0.069122
-0.0833843
-0.0971515
-0.110329
-0.122931
-0.134963
-0.146427
0.185375
0.159696
0.133726
0.111522
0.0900996
0.0687676
0.0479199
0.0276772
0.00801554
-0.0110514
-0.0294866
-0.0472119
-0.063947
-0.0808146
-0.0967125
-0.111773
-0.126112
-0.139733
-0.152625
-0.164787
0.20271
0.175158
0.146909
0.122309
0.0982249
0.0742305
0.0507751
0.0279643
0.00579823
-0.0156839
-0.0364448
-0.0564512
-0.0753005
-0.0937362
-0.111225
-0.127754
-0.143368
-0.158057
-0.171802
-0.1846
0.215983
0.185494
0.15602
0.129356
0.102921
0.0766692
0.0509458
0.025832
0.00137182
-0.0223786
-0.0454198
-0.0677543
-0.0883349
-0.108351
-0.127404
-0.145373
-0.162245
-0.177993
-0.192593
-0.206033
0.0328488
0.0307708
0.028709
0.0266643
0.0246378
0.0226305
0.0206434
0.0186773
0.0167332
0.0322914
0.0301698
0.0280648
0.0259778
0.0239101
0.0218629
0.0198375
0.017835
0.0158564
0.0312191
0.0290384
0.0268748
0.0247298
0.022605
0.0205015
0.0184207
0.0163639
0.0143323
0.0296915
0.0274271
0.0251805
0.0229532
0.0207468
0.0185627
0.0164025
0.0142674
0.0121587
0.0277184
0.0253503
0.0230005
0.0206709
0.018363
0.0160784
0.0138187
0.0115852
0.00937941
0.02532
0.0228267
0.0203524
0.0178991
0.0154684
0.013062
0.0106814
0.00832826
0.00600395
0.022497
0.019857
0.017237
0.0146387
0.0120641
0.00951482
0.0069925
0.00449871
0.00203495
0.0192486
0.0164397
0.0136517
0.0108867
0.0081463
0.00543239
0.0027466
9.05429e-05
-0.00253429
0.0155658
0.012565
0.00958632
0.00663177
0.00370316
0.000802247
-0.00206928
-0.00490984
-0.00771792
0.0114367
0.00821975
0.00502653
0.00185888
-0.00128139
-0.00439255
-0.00747295
-0.010521
-0.0135353
0.00684494
0.00338674
-4.59544e-05
-0.00345132
-0.00682762
-0.0101732
-0.0134865
-0.016766
-0.0200103
0.00177
-0.0019557
-0.00565367
-0.00932221
-0.0129597
-0.0165646
-0.0201356
-0.0236712
-0.00380798
-0.00782898
-0.0118194
-0.0157778
-0.0197027
-0.0235928
-0.027447
-0.0312641
-0.00992075
-0.0142642
-0.0185738
-0.0228483
-0.0270865
-0.0312876
-0.0354505
-0.0395745
-0.0165893
-0.0212848
-0.0259418
-0.0305598
-0.035138
-0.0396759
-0.0441731
-0.0486295
-0.0238512
-0.0289265
-0.0339579
-0.0389453
-0.0438885
-0.0487878
-0.0536434
-0.0584557
-0.0317366
-0.0372204
-0.042653
-0.0480349
-0.053367
-0.0586502
-0.0638857
-0.0690753
-0.0402891
-0.046208
-0.0520659
-0.0578644
-0.0636054
-0.0692911
-0.074924
-0.0805071
-0.0495534
-0.0559319
-0.0622365
-0.06847
-0.0746355
-0.0807368
-0.0867781
-0.0927644
-0.059583
-0.0664425
-0.0732109
-0.0798922
-0.0864914
-0.0930139
-0.0994661
-0.105855
-0.0704362
-0.0777951
-0.0850394
-0.0921751
-0.0992089
-0.106148
-0.113003
-0.119782
-0.0821834
-0.090055
-0.0977807
-0.105368
-0.112827
-0.120166
-0.127399
-0.134537
-0.0949021
-0.103294
-0.111499
-0.119525
-0.127385
-0.135091
-0.142659
-0.150106
-0.108684
-0.117596
-0.126264
-0.134702
-0.142922
-0.150941
-0.158778
-0.166455
-0.123618
-0.133039
-0.142143
-0.150944
-0.15946
-0.167711
-0.175719
-0.183513
-0.139803
-0.149709
-0.159201
-0.168297
-0.177017
-0.185385
-0.193429
-0.201185
-0.157331
-0.167686
-0.177506
-0.186813
-0.19563
-0.203988
-0.211923
-0.219477
-0.176227
-0.186958
-0.197001
-0.206381
-0.215132
-0.223298
-0.230927
-0.238079
-0.196456
-0.207382
-0.217402
-0.226548
-0.234867
-0.242416
-0.249267
-0.255505
-0.218306
-0.229421
-0.239395
-0.248258
-0.256055
-0.262845
-0.268703
-0.27372
)
;

boundaryField
{
    inlet
    {
        type            zeroGradient;
    }
    outlet
    {
        type            fixedValue;
        value           nonuniform 0();
    }
    cylinder
    {
        type            zeroGradient;
    }
    top
    {
        type            symmetryPlane;
    }
    bottom
    {
        type            symmetryPlane;
    }
    defaultFaces
    {
        type            empty;
    }
    procBoundary0to1
    {
        type            processor;
        value           nonuniform List<scalar> 
50
(
-0.318663
-0.318663
-0.3422
-0.3422
-0.365481
-0.40347
-0.365481
-0.383699
-0.40347
-0.417588
-0.417588
-0.430126
-0.430126
-0.440954
-0.440954
-0.432574
-0.440415
-0.440415
-0.451026
0.014812
0.0139029
0.0123269
0.0100778
0.00720254
0.00370984
-0.00039739
-0.00512648
-0.0104921
-0.0165144
-0.0232182
-0.0271701
-0.0271701
-0.0350431
-0.043659
-0.0530447
-0.0632255
-0.0742207
-0.0860441
-0.0987013
-0.11219
-0.126498
-0.141599
-0.157452
-0.173998
-0.191124
-0.208692
-0.226699
-0.244821
-0.261229
-0.278001
)
;
    }
    procBoundary0to2
    {
        type            processor;
        value           nonuniform List<scalar> 
26
(
0.862453
0.805369
0.773791
0.749959
0.749959
0.722695
0.694984
0.665963
0.63571
0.604724
0.573677
0.252575
0.255401
0.26179
0.27067
0.282263
0.296395
0.313106
0.332498
0.35451
0.37932
0.406724
0.436847
0.469189
0.503772
0.539167
)
;
    }
}


// ************************************************************************* //
