/*--------------------------------*- C++ -*----------------------------------*\
  =========                 |
  \\      /  F ield         | OpenFOAM: The Open Source CFD Toolbox
   \\    /   O peration     | Website:  https://openfoam.org
    \\  /    A nd           | Version:  7
     \\/     M anipulation  |
\*---------------------------------------------------------------------------*/
FoamFile
{
    version     2.0;
    format      ascii;
    class       surfaceScalarField;
    location    "30";
    object      phi;
}
// * * * * * * * * * * * * * * * * * * * * * * * * * * * * * * * * * * * * * //

dimensions      [0 3 -1 0 0 0 0];

internalField   nonuniform List<scalar> 
4136
(
-0.000377931
-1.3938e-11
-0.00138336
-3.93397e-11
-6.1745e-11
-0.000377931
0.000377931
-0.00138336
0.00100543
-0.0029384
0.00155504
-0.00495906
0.00202066
-0.00736356
0.00240451
-0.0100802
0.00271666
-0.0130531
0.00297291
-0.0162451
0.00319197
-0.0196377
0.00339255
0.00358901
-0.0232267
-0.000376316
0.000754247
-0.00137794
0.00200705
-0.00292779
0.00310489
-0.00494257
0.00403544
-0.00734103
0.00480297
-0.0100518
0.00542742
-0.013019
0.00594016
-0.0162055
0.00637847
-0.0195927
0.00677967
0.00717242
-0.0231761
-0.000373092
0.00112734
-0.00136712
0.00300108
-0.0029066
0.00464437
-0.00490963
0.00603847
-0.007296
0.00718934
-0.00999496
0.00812638
-0.0129509
0.00889609
-0.0161265
0.00955405
-0.0195027
0.0101559
0.0107447
-0.023075
-0.000368273
0.00149561
-0.00135094
0.00398374
-0.00287489
0.00616831
-0.00486031
0.00802389
-0.00722858
0.0095576
-0.00990984
0.0108076
-0.0128488
0.0118351
-0.0160081
0.0127133
-0.0193682
0.013516
0.0143004
-0.0229239
-0.00036188
0.00185749
-0.00132946
0.00495132
-0.00283275
0.00767161
-0.00479475
0.00998589
-0.00713889
0.0119017
-0.00979659
0.0134653
-0.012713
0.0147515
-0.0158506
0.0158508
-0.0191893
0.0168547
0.0178342
-0.022723
-0.000353941
0.00221143
-0.00130274
0.00590012
-0.00278031
0.00914918
-0.00471308
0.0119187
-0.00702711
0.0142158
-0.0096554
0.0160936
-0.0125438
0.0176399
-0.0156543
0.0189614
-0.0189664
0.0201668
0.0213409
-0.0224731
-0.000344488
0.00255592
-0.00127089
0.00682652
-0.00271771
0.010596
-0.0046155
0.0138165
-0.00689345
0.0164937
-0.0094865
0.0186867
-0.0123412
0.0204946
-0.0154196
0.0220398
-0.0187002
0.0234474
0.0248156
-0.0221749
-0.000333562
0.00288948
-0.00123401
0.00772697
-0.00264513
0.0120071
-0.00450223
0.0156736
-0.00673816
0.0187297
-0.00929016
0.0212387
-0.0121058
0.0233102
-0.0151468
0.0250808
-0.018391
0.0266916
0.0282536
-0.0218291
-0.000321208
0.00321069
-0.00119224
0.00859801
-0.00256278
0.0133777
-0.00437353
0.0174843
-0.00656151
0.0209176
-0.00906666
0.0237438
-0.0118377
0.0260813
-0.0148364
0.0280795
-0.0180396
0.0298948
0.0316506
-0.0214366
-0.000307479
0.00351817
-0.00114571
0.00943624
-0.00247089
0.0147028
-0.00422968
0.0192431
-0.00636381
0.0230518
-0.0088163
0.0261963
-0.0115373
0.0288023
-0.0144887
0.031031
-0.0176465
0.0330526
0.0350025
-0.0209984
-0.000292433
0.0038106
-0.0010946
0.0102384
-0.00236972
0.015978
-0.004071
0.0209444
-0.00614539
0.0251262
-0.00853938
0.0285903
-0.0112049
0.0314678
-0.0141041
0.0339301
-0.017212
0.0361605
0.0383058
-0.0205153
-0.000276135
0.00408674
-0.00103907
0.0110013
-0.00225957
0.0171985
-0.00389785
0.0225826
-0.0059066
0.0271349
-0.00823623
0.0309199
-0.0108407
0.0340723
-0.0136827
0.0367721
-0.0167367
0.0392145
0.0415571
-0.019988
-0.000258656
0.00434539
-0.000979347
0.011722
-0.00214075
0.0183599
-0.00371062
0.0241525
-0.00564785
0.0290721
-0.00790718
0.0331793
-0.010445
0.0366102
-0.0132248
0.0395519
-0.0162207
0.0422104
0.0447533
-0.0194169
-0.000240074
0.00458547
-0.000915644
0.0123976
-0.00201365
0.0194579
-0.00350978
0.0256486
-0.00536958
0.0309319
-0.00755257
0.0353623
-0.010018
0.0390756
-0.0127303
0.0422642
-0.0156637
0.0451438
0.0478918
-0.0188022
-0.000220478
0.00480595
-0.000848218
0.0130253
-0.00187867
0.0204883
-0.00329583
0.0270658
-0.0050723
0.0327084
-0.00717281
0.0374628
-0.00955974
0.0414625
-0.0121991
0.0449035
-0.0150654
0.0480101
0.0509696
-0.0181432
-0.000199963
0.00500591
-0.000777352
0.0136027
-0.0017363
0.0214473
-0.00306938
0.0283989
-0.00475665
0.0343957
-0.00676839
0.0394745
-0.00907054
0.0437647
-0.0116309
0.0474639
-0.0144247
0.0508039
0.0539837
-0.0174388
-0.000178636
0.00518455
-0.000703362
0.0141275
-0.00158706
0.022331
-0.00283113
0.0296429
-0.00442338
0.0359879
-0.00634003
0.0413912
-0.0085508
0.0459754
-0.0110255
0.0499386
-0.0137404
0.0535188
0.05693
-0.0166867
-0.000156612
0.00534116
-0.000626596
0.0145974
-0.00143158
0.023136
-0.00258191
0.0307933
-0.00407347
0.0374795
-0.00588871
0.0432064
-0.00800139
0.0480881
-0.0103834
0.0523206
-0.0130108
0.0561462
0.0598029
-0.0158838
-0.000134015
0.00547517
-0.000547436
0.0150109
-0.00127053
0.023859
-0.00232267
0.0318454
-0.0037081
0.0388649
-0.00541587
0.0449142
-0.00742414
0.0500964
-0.00970663
0.0546031
-0.0122348
0.0586744
0.0625983
-0.0150302
-0.000110977
0.00558615
-0.000466291
0.0153662
-0.00110464
0.0244974
-0.00205447
0.0327952
-0.00332867
0.0401391
-0.00492352
0.046509
-0.00682257
0.0519954
-0.00900353
0.0567841
-0.0114269
0.0610977
0.065302
-0.0141306
-8.76337e-05
0.00567379
-0.000383588
0.0156621
-0.0009347
0.0250485
-0.00177843
0.033639
-0.00293661
0.0412973
-0.00441363
0.0479861
-0.00620014
0.0537819
-0.00828592
0.0588698
-0.0106979
0.0635097
0.0681725
-0.0135684
-6.41261e-05
0.00573791
-0.000299766
0.0158978
-0.000761499
0.0255102
-0.00149563
0.0343731
-0.00253307
0.0423348
-0.00388677
0.0493398
-0.00555495
0.0554501
-0.00753342
0.0608483
-0.00983999
0.0658163
0.0708106
-0.0124781
-4.06046e-05
0.00577852
-0.000215281
0.0160724
-0.000585855
0.0258808
-0.00120716
0.0349944
-0.00211913
0.0432467
-0.0033432
0.0505638
-0.00488429
0.0569912
-0.00673962
0.0627036
-0.00891193
0.0679886
0.0732558
-0.0113572
-1.72907e-05
0.00579581
-0.000130604
0.0161858
-0.000408627
0.0261588
-0.000914199
0.0355
-0.00169604
0.0440286
-0.00278383
0.0516516
-0.00418846
0.0583959
-0.00590704
0.0644222
-0.00792808
0.0700097
0.0755192
-0.0101914
5.85577e-06
0.00578995
-4.6194e-05
0.0162378
-0.000230732
0.0263434
-0.000618072
0.0358873
-0.00126536
0.0446759
-0.00221031
0.0525966
-0.00346945
0.059655
-0.00504007
0.0659928
-0.00690109
0.0718707
0.0776048
-0.00898676
2.88622e-05
0.00576109
3.74351e-05
0.0162292
-5.31338e-05
0.0264339
-0.000320247
0.0361544
-0.000828958
0.0451846
-0.00162485
0.0533925
-0.00273014
0.0607603
-0.00414322
0.0674059
-0.00583802
0.0735655
0.0795163
-0.00774949
5.09297e-05
0.00571016
0.000119701
0.0161605
0.00012305
0.0264306
-2.21444e-05
0.0362996
-0.000388983
0.0455514
-0.00103016
0.0540336
-0.00197398
0.0617041
-0.00322132
0.0686533
-0.00474471
0.0750889
0.0812542
-0.00648265
7.23583e-05
0.0056378
0.000200088
0.0160327
0.000296717
0.026334
0.000273881
0.0363224
5.21949e-05
0.0457731
-0.0004293
0.0545151
-0.0012049
0.0624797
-0.00227932
0.0697277
-0.0036266
0.0764361
0.0828172
-0.00518961
9.29338e-05
0.00554487
0.000278048
0.0158476
0.000466746
0.0261453
0.000566519
0.0362227
0.00049166
0.045848
0.000174296
0.0548325
-0.000427088
0.0630811
-0.00132217
0.0706228
-0.00248872
0.0776027
0.0842026
-0.00387408
0.000112495
0.00543237
0.000353025
0.0156071
0.000631945
0.0258663
0.00085362
0.036001
0.000926923
0.0457747
0.000776936
0.0549825
0.000355024
0.063503
-0.000354796
0.0713326
-0.00133591
0.0785838
0.0854067
-0.00253995
0.000130896
0.00530147
0.000424471
0.0153135
0.000791119
0.0254997
0.00113317
0.0356589
0.00135493
0.0455529
0.00137487
0.0549625
0.00113681
0.0637411
0.000617903
0.0718515
-0.000167776
0.0793695
0.0864311
-0.00119219
0.000148003
0.00515347
0.000491862
0.0149697
0.000943097
0.0250485
0.00140314
0.0351989
0.00177269
0.0451833
0.0019641
0.0547711
0.00191349
0.0637917
0.00158963
0.0721753
0.000994226
0.0799649
0.0872769
0.000148371
0.000163693
0.00498978
0.000554706
0.0145786
0.00108675
0.0245164
0.00166151
0.0346241
0.00217716
0.0446677
0.00254058
0.0544077
0.00268026
0.063652
0.00255635
0.0722993
0.00216448
0.0803568
0.0879087
0.00153274
0.000177864
0.00481192
0.000612557
0.014144
0.001221
0.023908
0.00190635
0.0339388
0.00256534
0.0440087
0.00310023
0.0538728
0.00343214
0.0633201
0.0035124
0.072219
0.00332785
0.0805413
0.0883392
0.00289732
0.000190427
0.00462149
0.000665019
0.0136694
0.00134489
0.0232281
0.00213579
0.0331479
0.00293427
0.0432102
0.00363892
0.0531682
0.00416394
0.0627951
0.00445155
0.0719314
0.00447887
0.080514
0.0885617
0.00425639
0.000201317
0.00442017
0.000711757
0.0131589
0.00145751
0.0224824
0.0023481
0.0322573
0.00328113
0.0422772
0.00415259
0.0522967
0.00487044
0.0620772
0.00536784
0.071434
0.00561181
0.08027
0.0885698
0.00560369
0.000210487
0.00420968
0.000752506
0.0126169
0.00155813
0.0216767
0.00254172
0.0312737
0.00360322
0.0412157
0.0046373
0.0512626
0.0055465
0.061168
0.00625523
0.0707253
0.00672011
0.0798051
0.0883575
0.00693246
0.000217913
0.00399177
0.00078707
0.0120477
0.00164612
0.0208177
0.00271528
0.0302046
0.0038981
0.0400329
0.00508926
0.0500715
0.00618697
0.0600703
0.00710744
0.0698048
0.00779676
0.0791158
0.0879187
0.00823548
0.000223593
0.00376818
0.000815335
0.011456
0.00172102
0.019912
0.00286762
0.029058
0.00416355
0.0387369
0.0055049
0.0487301
0.00678684
0.0587884
0.00791816
0.0686735
0.00883446
0.0781995
0.0872483
0.0095049
0.000227546
0.00354063
0.000837262
0.0108463
0.00178252
0.0189667
0.00299784
0.0278426
0.00439767
0.0373371
0.00588096
0.0472468
0.00734129
0.057328
0.00868104
0.0673337
0.00982565
0.0770549
0.0863416
0.0107323
0.000229814
0.00331082
0.000852895
0.0102232
0.0018305
0.0179891
0.00310531
0.0265678
0.00459891
0.0358435
0.00621456
0.0456312
0.00784579
0.0556968
0.00938986
0.0657897
0.0107626
0.0756821
0.0851954
0.0119089
0.000230458
0.00308036
0.000862354
0.00959131
0.00186498
0.0169865
0.00318969
0.0252431
0.00476611
0.0342671
0.00650323
0.0438941
0.00829621
0.0539038
0.0100387
0.0640472
0.0116377
0.0740831
0.0838075
0.0130256
0.00022956
0.0028508
0.000865836
0.00895503
0.00188618
0.0159662
0.00325092
0.0238784
0.00489854
0.0326195
0.00674506
0.0420475
0.00868894
0.0519599
0.0106218
0.0621143
0.0124433
0.0722616
0.0821778
0.014073
0.000227216
0.00262359
0.000863607
0.00831864
0.00189446
0.0149353
0.00328925
0.0224836
0.0049959
0.0309128
0.00693869
0.0401047
0.00902102
0.0498776
0.0111344
0.0600009
0.0131722
0.0702238
0.080308
0.015042
0.000223538
0.00240005
0.000855996
0.00768618
0.00189036
0.013901
0.00330521
0.0210687
0.00505839
0.0291596
0.00708338
0.0380797
0.00929019
0.0476708
0.0115721
0.057719
0.0138179
0.067978
0.0782021
0.0159238
0.00021865
0.0021814
0.000843386
0.00706145
0.00187453
0.0128698
0.00329962
0.0196436
0.00508661
0.0273726
0.00717907
0.0359873
0.00949505
0.0453548
0.0119315
0.0552826
0.0143745
0.065535
0.0758666
0.0167101
0.000212682
0.00196871
0.000826199
0.00644793
0.00184776
0.0118482
0.00327353
0.0182179
0.00508164
0.0255645
0.00722634
0.0338426
0.00963506
0.0429461
0.0122103
0.0527073
0.0148375
0.0629078
0.0733104
0.0173937
0.000205771
0.00176294
0.000804887
0.00584881
0.00181091
0.0108422
0.00322821
0.0168006
0.00504493
0.0237478
0.00722642
0.0316611
0.00971061
0.0404619
0.0124074
0.0500105
0.0152036
0.0601116
0.0179691
0.00019805
0.00156489
0.000779912
0.00526695
0.00176491
0.00985722
0.00316506
0.0154004
0.00497824
0.0219347
0.0071811
0.0294582
0.009723
0.03792
0.0125229
0.0472106
0.000189649
0.00137524
0.000751731
0.00470487
0.0017107
0.00889825
0.0030856
0.0140255
0.0048836
0.0201366
0.00709267
0.0272492
0.00967432
0.0353384
0.000180687
0.00119456
0.00072078
0.00416478
0.0016492
0.00796983
0.00299135
0.0126834
0.00476315
0.0183648
0.00696373
0.000171269
0.00102329
0.000687457
0.00364859
0.00158128
0.00707601
0.00288379
0.0113809
0.000161483
0.000861806
0.000652109
0.00315796
0.00150773
0.00622039
0.000151395
0.00071041
0.000615028
0.00269433
0.000141058
0.000569352
0.00225894
0.000130508
0.000438844
0.0344113
-0.000582585
0.00152659
0.0334093
-0.00313105
0.00413308
0.0323584
-0.00544548
0.00649643
0.0312562
-0.00768261
0.00878473
0.0300919
-0.00998987
0.0111542
0.0288516
-0.0124317
0.0136721
0.0275207
-0.0150567
0.0163875
0.0260863
-0.0178881
0.0193226
0.0245417
-0.0209285
0.022473
0.0228878
-0.0241511
0.025805
0.0211451
-0.0275096
0.0292523
0.0193451
-0.030883
0.032683
0.0175663
-0.0341673
0.0359461
0.0158374
-0.0369281
0.038657
-0.039034
0.0407408
0.0345393
0.000233457
0.0336539
-0.00224561
0.0327085
-0.00450016
0.0317019
-0.00667598
0.0306239
-0.00891184
0.0294614
-0.0112693
0.0282006
-0.0137959
0.0268289
-0.0165164
0.0253395
-0.0194391
0.0237323
-0.022544
0.0220257
-0.025803
0.0202484
-0.0291057
0.0184657
-0.0323845
0.016721
-0.0351834
-0.0373432
0.0346622
0.000926633
0.033889
-0.00147243
0.0330459
-0.00365703
0.0321323
-0.00576241
0.0311392
-0.00791876
0.0300546
-0.0101846
0.0288653
-0.0126066
0.0275591
-0.0152102
0.0261291
-0.018009
0.0245738
-0.0209887
0.0229079
-0.024137
0.0211559
-0.0273537
0.01937
-0.0305986
0.0176087
-0.0334221
-0.0356183
0.0347795
0.00150248
0.0341137
-0.000806598
0.0333684
-0.00291177
0.0325441
-0.00493811
0.0316327
-0.00700735
0.030623
-0.00917499
0.0295028
-0.0114864
0.0282601
-0.0139674
0.0268874
-0.0166363
0.0253819
-0.0194832
0.0237544
-0.0225095
0.0220254
-0.0256248
0.020236
-0.0288092
0.0184514
-0.0316375
-0.0338536
0.034891
0.00196681
0.0343273
-0.000242912
0.0336753
-0.00225972
0.032936
-0.00419887
0.0321025
-0.00617381
0.0311644
-0.00823685
0.03011
-0.010432
0.0289275
-0.012785
0.0276092
-0.015318
0.0261506
-0.0180246
0.0245588
-0.0209177
0.0228505
-0.0239166
0.0210573
-0.027016
0.0192453
-0.0298255
-0.032047
0.0349965
0.00232561
0.0345296
0.000224018
0.0339659
-0.00169604
0.0333074
-0.00354037
0.0325479
-0.00541424
0.0316777
-0.00736672
0.030686
-0.00944025
0.029561
-0.01166
0.0282943
-0.0140513
0.0268803
-0.0166106
0.0253223
-0.0193597
0.0236335
-0.0222277
0.0218369
-0.0252194
0.0199959
-0.0279845
-0.0301943
0.0350959
0.00258507
0.0347201
0.000599774
0.0342398
-0.00121573
0.0336575
-0.00295811
0.0329679
-0.00472459
0.0321621
-0.00656097
0.0312297
-0.00850781
0.0301592
-0.0105896
0.0289416
-0.0128336
0.0275699
-0.0152389
0.026044
-0.0178338
0.0243734
-0.0205572
0.0225742
-0.0234202
0.020704
-0.0261144
-0.0282924
0.0351888
0.00275157
0.0348985
0.000890114
0.0344964
-0.000813576
0.0339856
-0.0024474
0.0333617
-0.00410064
0.0326164
-0.00581573
0.0317398
-0.0076312
0.0307207
-0.0095704
0.0295492
-0.0116621
0.0282174
-0.0139071
0.0267218
-0.0163381
0.0250685
-0.0189039
0.0232673
-0.021619
0.0213688
-0.0242159
-0.0263405
0.0352753
0.00283163
0.0350644
0.00110097
0.0347351
-0.00048422
0.034291
-0.00200336
0.0337283
-0.00353795
0.0330396
-0.00512699
0.0322151
-0.00680673
0.0312439
-0.00859921
0.0301156
-0.0105338
0.0288211
-0.0126126
0.027354
-0.014871
0.025717
-0.017267
0.0239145
-0.0198165
0.0219893
-0.0222907
-0.0243392
0.035355
0.00283194
0.0352176
0.00123844
0.0349555
-0.000222146
0.0345731
-0.00162096
0.0340671
-0.00303195
0.0334307
-0.00449056
0.0326545
-0.00603057
0.0317278
-0.00767247
0.0306394
-0.00944549
0.0293796
-0.0113528
0.0279391
-0.0134305
0.0263173
-0.0156452
0.0245142
-0.0180133
0.0225643
-0.0203408
-0.0222902
0.035428
0.00275931
0.0353576
0.00130876
0.0351572
-2.16894e-05
0.0348313
-0.00129505
0.0343773
-0.00257793
0.0337888
-0.00390212
0.033057
-0.00529872
0.032171
-0.00678653
0.0311194
-0.00839391
0.0298914
-0.0101247
0.0284755
-0.0120146
0.026868
-0.0140377
0.0250646
-0.01621
0.0230924
-0.0183686
-0.0201963
0.035494
0.00262069
0.0354845
0.00131823
0.0353397
0.000123089
0.0350651
-0.0010204
0.0346582
-0.00217105
0.0341133
-0.0033572
0.0334216
-0.00460708
0.0325727
-0.00593764
0.0315545
-0.00737571
0.0303554
-0.00892556
0.028962
-0.0106212
0.0273675
-0.0124433
0.0255643
-0.0144068
0.0235721
-0.0163764
-0.0180608
0.0355529
0.00242313
0.0355977
0.0012734
0.0355029
0.000217968
0.035274
-0.000791548
0.0349093
-0.00180634
0.0344034
-0.00285125
0.0337477
-0.00395145
0.032932
-0.00512192
0.0319437
-0.00638741
0.0307705
-0.00775233
0.0293973
-0.00924807
0.0278148
-0.0108607
0.026012
-0.012604
0.0240023
-0.0143667
-0.0158875
0.0356047
0.00217377
0.0356973
0.00118082
0.0356463
0.000268962
0.0354577
-0.00060299
0.0351301
-0.00147874
0.0346585
-0.00237961
0.0340345
-0.00332752
0.033248
-0.00433542
0.0322861
-0.00542545
0.0311357
-0.00660195
0.0297805
-0.0078929
0.0282086
-0.00928876
0.0264064
-0.0108017
0.0243815
-0.0123418
-0.0136809
0.0356492
0.00187987
0.0357829
0.00104715
0.0357697
0.000282187
0.0356158
-0.000449134
0.0353202
-0.00118311
0.0348781
-0.00193753
0.0342815
-0.0027309
0.0335202
-0.0035741
0.0325809
-0.00448621
0.0314503
-0.00547126
0.0301106
-0.0065533
0.028548
-0.0077261
0.0267464
-0.00900016
0.0247087
-0.0103041
-0.0114454
0.0356865
0.00154874
0.0358545
0.000879115
0.0358729
0.000263822
0.035748
-0.000324309
0.0354792
-0.000914229
0.0350618
-0.00152018
0.0344881
-0.00215714
0.0337478
-0.00283385
0.0328276
-0.003566
0.0317134
-0.00435709
0.0303869
-0.00522678
0.0288321
-0.00617128
0.0270311
-0.0071992
0.0249828
-0.00825577
-0.00918557
0.0357163
0.00118775
0.0359119
0.000683519
0.0359556
0.000220111
0.0358541
-0.000222781
0.0356067
-0.000666821
0.0352092
-0.00112269
0.0346538
-0.00160174
0.0339305
-0.00211053
0.0330256
-0.00266108
0.0319246
-0.00325617
0.0306087
-0.0039108
0.0290602
-0.00462282
0.0272598
-0.00539883
0.0252032
-0.00619909
-0.00690628
0.0357388
0.000804317
0.0359551
0.000467208
0.0360178
0.000157346
0.0359338
-0.000138771
0.0357026
-0.000435559
0.03532
-0.000740147
0.0347784
-0.00106014
0.0340678
-0.00139993
0.0331744
-0.00176765
0.0320835
-0.00216522
0.0307754
-0.00260277
0.0292318
-0.00307918
0.0274319
-0.00359894
0.025369
-0.00413617
-0.00461234
0.0357537
0.000405907
0.0359839
0.000237065
0.0360594
8.18571e-05
0.0359871
-6.64578e-05
0.0357666
-0.00021508
0.035394
-0.000367576
0.0348616
-0.000527761
0.0341595
-0.000697837
0.0332738
-0.0008819
0.0321895
-0.00108094
0.0308868
-0.00130005
0.0293464
-0.00153878
0.0275468
-0.00179938
0.0254798
-0.00206912
-0.00230862
0.0357612
0.0359983
0.0360802
0.0360137
0.0357986
0.0354311
0.0349033
0.0342055
0.0333236
0.0322426
0.0309426
0.0294038
0.0276044
0.0255353
0.202083
-0.000278993
0.20283
-0.00074704
0.203926
-0.00109646
0.20528
-0.00135366
0.206814
-0.00153394
0.208461
-0.00164704
0.210163
-0.00170213
0.211872
-0.0017088
0.213549
-0.00167682
0.215164
-0.00161558
0.216698
-0.00153371
0.218137
-0.00143866
0.219473
-0.0013366
0.220705
-0.00123201
-0.00113042
0.221836
0.19265
-0.000544749
0.193356
-0.00145326
0.194395
-0.00213509
0.19568
-0.00263929
0.19714
-0.00299425
0.198712
-0.00321889
0.200341
-0.0033306
0.201979
-0.00334752
0.203591
-0.00328828
0.205146
-0.00317108
0.206625
-0.00301272
0.208015
-0.00282777
0.209306
-0.00262845
0.210498
-0.00242354
-0.00222401
0.211592
0.183653
-0.000794121
0.184317
-0.00211688
0.185295
-0.00311382
0.186512
-0.00385565
0.1879
-0.00438217
0.189401
-0.00471983
0.190963
-0.00489282
0.192542
-0.00492646
0.194101
-0.00484716
0.195611
-0.00468109
0.197051
-0.00445278
0.198407
-0.0041837
0.19967
-0.00389204
0.200838
-0.00359102
-0.00329735
0.201911
0.175075
-0.00102625
0.175694
-0.00273566
0.17661
-0.00403028
0.177756
-0.00500117
0.179071
-0.0056977
0.180503
-0.00615206
0.182004
-0.00639345
0.18353
-0.00645271
0.185046
-0.00636267
0.186521
-0.00615653
0.187934
-0.00586597
0.18927
-0.00551913
0.190518
-0.00514019
0.191674
-0.00474682
-0.0043619
0.192738
0.166895
-0.00124042
0.167467
-0.0033077
0.168319
-0.00488219
0.169392
-0.00607379
0.170634
-0.00693968
0.171998
-0.00751594
0.173439
-0.00783474
0.174917
-0.00793053
0.176395
-0.00784098
0.177844
-0.00760518
0.179239
-0.00726129
0.180564
-0.00684386
0.181807
-0.00638306
0.182961
-0.0059012
-0.00542793
0.184027
0.159096
-0.00143599
0.15962
-0.00383133
0.160405
-0.00566727
0.161402
-0.00707103
0.162569
-0.00810598
0.163863
-0.00881022
0.165245
-0.00921679
0.166676
-0.00936168
0.168121
-0.00928558
0.169548
-0.00903214
0.170932
-0.00864518
0.172253
-0.00816529
0.173499
-0.00762865
0.17466
-0.00706238
-0.00650356
0.175735
0.15166
-0.0016125
0.152134
-0.00430515
0.15285
-0.00638335
0.153769
-0.00799015
0.154857
-0.00919366
0.156079
-0.0100323
0.1574
-0.0105379
0.158784
-0.0107457
0.160196
-0.0106976
0.161604
-0.0104402
0.162981
-0.0100219
0.164304
-0.00948884
0.165559
-0.00888322
0.166733
-0.00823708
-0.00759576
0.167826
0.14457
-0.0017696
0.144992
-0.00472807
0.145638
-0.00702854
0.146476
-0.00882836
0.147481
-0.0101993
0.148628
-0.0111785
0.149884
-0.0117947
0.151219
-0.0120804
0.152598
-0.0120762
0.153988
-0.01183
0.155359
-0.0113937
0.156689
-0.0108182
0.157957
-0.0101515
0.159151
-0.00943077
-0.00871039
0.160265
0.137809
-0.00190711
0.13818
-0.0050994
0.138753
-0.00760132
0.139508
-0.00958304
0.140428
-0.0111191
0.141494
-0.0122445
0.142682
-0.0129828
0.143963
-0.0133618
0.145306
-0.0134186
0.146676
-0.0132005
0.148044
-0.0127612
0.149381
-0.0121555
0.150666
-0.011437
0.151884
-0.0106479
-0.00985249
0.153026
0.131363
-0.00202502
0.131683
-0.00541893
0.132182
-0.00810072
0.132851
-0.010252
0.133681
-0.0119497
0.134663
-0.0132256
0.135777
-0.014097
0.137
-0.0145848
0.138302
-0.0147207
0.13965
-0.0145489
0.141012
-0.0141233
0.142358
-0.0135016
0.143663
-0.012742
0.144907
-0.011892
-0.0110264
0.146081
0.125217
-0.00212355
0.125485
-0.00568693
0.125911
-0.00852643
0.126493
-0.0108336
0.127231
-0.0126877
0.128122
-0.0141169
0.129156
-0.0151312
0.130315
-0.0157432
0.131571
-0.0159767
0.132893
-0.0158709
0.134247
-0.0154776
0.135601
-0.0148558
0.136927
-0.0140677
0.138201
-0.0131657
-0.012236
0.13941
0.119358
-0.00220306
0.119575
-0.00590423
0.119928
-0.00887885
0.120421
-0.011327
0.121064
-0.0133305
0.121861
-0.0149141
0.12281
-0.0160796
0.123897
-0.0168302
0.1251
-0.01718
0.12639
-0.0171609
0.127732
-0.0168201
0.129093
-0.0162164
0.130439
-0.0154144
0.131745
-0.0144712
-0.0134845
0.132993
0.113772
-0.00226415
0.11394
-0.0060722
0.11422
-0.00915913
0.114625
-0.0117323
0.115171
-0.0138765
0.11587
-0.0156131
0.116727
-0.0169362
0.117735
-0.0178386
0.118878
-0.018323
0.120129
-0.0184119
0.121455
-0.0181455
0.122818
-0.0175801
0.124185
-0.016781
0.125523
-0.0158095
-0.0147747
0.126814
0.108446
-0.00230756
0.108567
-0.00619268
0.108777
-0.00936919
0.109095
-0.0120504
0.109543
-0.0143246
0.110141
-0.0162109
0.1109
-0.0176954
0.111822
-0.018761
0.112897
-0.0193974
0.114101
-0.0196161
0.115403
-0.0194472
0.116765
-0.0189426
0.11815
-0.0181657
0.119522
-0.0171814
-0.0161092
0.120856
0.103369
-0.00233422
0.103445
-0.006268
0.103587
-0.00951165
0.10382
-0.0122831
0.10417
-0.0146752
0.104665
-0.0167051
0.105322
-0.0183525
0.106151
-0.0195903
0.107148
-0.0203948
0.108297
-0.0207647
0.109567
-0.0207175
0.110923
-0.0202982
0.112323
-0.0195654
0.113728
-0.0185865
-0.0174897
0.115108
0.0985297
-0.00234516
0.0985626
-0.00630086
0.0986408
-0.00958981
0.098791
-0.0124333
0.0990453
-0.0149294
0.0994349
-0.0170947
0.0999859
-0.0189035
0.100716
-0.0203199
0.101627
-0.0213065
0.102711
-0.0218484
0.103941
-0.0219476
0.105283
-0.0216401
0.106693
-0.0209758
0.108131
-0.0200238
-0.0189176
0.109558
0.0939165
-0.00234155
0.0939099
-0.00629428
0.0939276
-0.00960749
0.093999
-0.0125047
0.0941594
-0.0150898
0.0944446
-0.0173799
0.0948868
-0.0193458
0.095511
-0.020944
0.0963286
-0.0221242
0.0973375
-0.0228573
0.0985177
-0.0231278
0.0998377
-0.0229601
0.101253
-0.0223912
0.10272
-0.0214911
-0.0203934
0.104196
0.0895191
-0.00232461
0.0894763
-0.00625152
0.0894378
-0.00956901
0.0894348
-0.0125017
0.0895048
-0.0151599
0.0896871
-0.0175622
0.0900191
-0.0196778
0.090533
-0.0214579
0.0912489
-0.0228401
0.0921732
-0.0237815
0.0932928
-0.0242474
0.0945815
-0.0242489
0.095995
-0.0238046
0.0974892
-0.0229854
-0.0219165
0.0990123
0.0853276
-0.00229562
0.0852521
-0.006176
0.0851621
-0.00947904
0.0850897
-0.0124293
0.0850738
-0.0151439
0.0851558
-0.0176442
0.0853776
-0.0198997
0.0857779
-0.0218582
0.0863851
-0.0234473
0.087215
-0.0246114
0.088263
-0.0252954
0.08951
-0.0254958
0.090913
-0.0252076
0.0924296
-0.0245019
-0.0234847
0.0939978
0.0813325
-0.00225586
0.0812277
-0.0060712
0.0810911
-0.00934247
0.080955
-0.0122932
0.0808584
-0.0150473
0.0808442
-0.0176299
0.0809573
-0.0200128
0.081242
-0.0221428
0.0817347
-0.02394
0.0824611
-0.0253378
0.0834263
-0.0262606
0.0846198
-0.0266893
0.0860024
-0.0265902
0.0875349
-0.0260345
-0.0250939
0.0891441
0.0775247
-0.00220664
0.0773941
-0.00594063
0.077216
-0.00916436
0.0770221
-0.0120993
0.076851
-0.0148762
0.0767455
-0.0175244
0.0767528
-0.0200202
0.0769216
-0.0223116
0.0772957
-0.0243142
0.0779101
-0.0259523
0.0787813
-0.0271317
0.0799085
-0.0278165
0.0812591
-0.0279409
0.0827991
-0.0275744
-0.0267372
0.0844424
0.0738954
-0.00214921
0.0737425
-0.00578774
0.073528
-0.00894981
0.0732826
-0.0118539
0.0730435
-0.0146371
0.0728529
-0.0173338
0.0727588
-0.0199261
0.072813
-0.0223657
0.0730657
-0.0245669
0.0735611
-0.0264477
0.0743272
-0.0278978
0.0753746
-0.028864
0.0766802
-0.0292464
0.0782163
-0.0291105
-0.0284049
0.079884
0.0704364
-0.00208478
0.0702646
-0.00561589
0.0700186
-0.00870389
0.0697281
-0.0115634
0.0694282
-0.0143372
0.0691594
-0.0170651
0.0689696
-0.0197362
0.0689121
-0.0223082
0.0690426
-0.0246974
0.0694131
-0.0268183
0.0700638
-0.0285485
0.0710173
-0.0298174
0.0722631
-0.0304923
0.0737807
-0.0306281
-0.0300838
0.0754595
0.0671397
-0.00201451
0.0669521
-0.00542832
0.0666798
-0.00843158
0.0663505
-0.0112341
0.0659972
-0.0139839
0.0656579
-0.0167257
0.065379
-0.0194574
0.0652145
-0.0221437
0.0652236
-0.0247065
0.0654652
-0.0270598
0.0659911
-0.0290744
0.0668359
-0.0306622
0.068006
-0.0316624
0.0694865
-0.0321085
-0.0317573
0.07116
0.0639977
-0.00193948
0.0637974
-0.00522809
0.0635035
-0.00813767
0.0631419
-0.0108725
0.0627426
-0.0135847
0.0623408
-0.0163239
0.0619808
-0.0190973
0.0617153
-0.0218782
0.0616057
-0.0245969
0.061716
-0.0271701
0.0621087
-0.0294671
0.0628303
-0.0313838
0.0639069
-0.0327391
0.0653273
-0.0335289
-0.0334071
0.0669772
0.0610031
-0.00186071
0.0607931
-0.00501812
0.0604822
-0.00782678
0.0600944
-0.0104846
0.0596567
-0.0131469
0.0592009
-0.0158681
0.058768
-0.0186644
0.0584088
-0.021519
0.058185
-0.024373
0.0581636
-0.0271487
0.0584163
-0.0297198
0.0590003
-0.0319679
0.0599637
-0.0337024
0.061296
-0.0348612
-0.0350159
0.0629048
0.0581491
-0.00177916
0.0579321
-0.00480116
0.0576086
-0.00750328
0.0572005
-0.0100765
0.0567317
-0.0126781
0.0562303
-0.0153667
0.0557337
-0.0181678
0.0552893
-0.0210746
0.0549572
-0.0240409
0.0548059
-0.0269974
0.0549134
-0.0298273
0.055347
-0.0324015
0.0561755
-0.034531
0.0573855
-0.0360712
-0.0365664
0.058936
0.0554291
-0.00169575
0.0552077
-0.00457976
0.0548757
-0.00717125
0.0544529
-0.00965376
0.0539601
-0.0121854
0.0534217
-0.0148283
0.0528706
-0.0176168
0.0523501
-0.0205541
0.0519173
-0.0236081
0.0516396
-0.0267198
0.0515987
-0.0297865
0.0518702
-0.032673
0.0525414
-0.0352022
0.0535964
-0.0371261
-0.0380336
0.0550635
0.0528368
-0.00161133
0.0526134
-0.00435631
0.0522766
-0.00683451
0.0518445
-0.00922158
0.0513344
-0.0116753
0.050767
-0.0142609
0.0501707
-0.0170204
0.0495836
-0.0199671
0.0490582
-0.0230827
0.048659
-0.0263206
0.0484677
-0.0295951
0.0485653
-0.0327706
0.0490502
-0.0356871
0.049937
-0.0380129
-0.03939
0.0512935
0.0503662
0.050143
0.0498049
0.0493681
0.0488469
0.0482581
0.0476252
0.0469807
0.0463711
0.0458556
0.0455128
0.0454252
0.0456842
0.0463283
0.047679
0.220391
0.00144467
0.219017
0.00137391
0.217718
0.00129963
0.216495
0.00122253
0.215352
0.00114273
0.214292
0.00106033
0.213316
0.000975445
0.212428
0.000888202
0.21163
0.000798722
0.210922
0.000707135
0.210309
0.000613575
0.209791
0.000518181
0.20937
0.000421098
0.209047
0.00032247
0.208825
0.000222452
0.208703
0.000121196
0.208685
1.88795e-05
0.208769
-8.43919e-05
0.208957
-0.000188399
-0.000292991
0.20925
0.210208
0.00282826
0.208893
0.00268844
0.207651
0.00254184
0.206484
0.00238982
0.205394
0.00223261
0.204384
0.00207042
0.203456
0.00190348
0.202612
0.00173202
0.201855
0.00155628
0.201185
0.00137653
0.200606
0.00119301
0.200118
0.001006
0.199723
0.00081577
0.199423
0.00062261
0.199219
0.000426812
0.199111
0.000228675
0.199102
2.85217e-05
0.199191
-0.000173405
0.199379
-0.000376714
-0.000581107
0.199667
0.200589
0.00415004
0.199335
0.00394316
0.19815
0.0037264
0.197038
0.00350178
0.196001
0.00326965
0.195041
0.00303035
0.19416
0.00278419
0.193361
0.00253153
0.192644
0.0022727
0.192013
0.00200808
0.191468
0.00173805
0.191011
0.001463
0.190643
0.00118334
0.190366
0.000899466
0.190181
0.000611819
0.190089
0.000320826
0.190091
2.69882e-05
0.190187
-0.000269418
0.190378
-0.000567754
-0.000867606
0.190664
0.191478
0.00541003
0.190283
0.00513812
0.189156
0.00485332
0.1881
0.00455839
0.187116
0.00425381
0.186206
0.00393999
0.185373
0.00361738
0.184618
0.0032864
0.183943
0.00294751
0.18335
0.00260119
0.18284
0.00224794
0.182415
0.00188825
0.182076
0.00152266
0.181823
0.00115169
0.181659
0.000775896
0.181584
0.000395843
0.181599
1.22752e-05
0.181704
-0.000374757
0.181901
-0.000764115
-0.00115537
0.182188
0.182829
0.0066082
0.181694
0.00627331
0.180625
0.00592264
0.179623
0.00555968
0.178692
0.00518506
0.177833
0.00479931
0.177047
0.00440293
0.176337
0.00399646
0.175704
0.00358046
0.17515
0.0031555
0.174676
0.00272219
0.174283
0.00228114
0.173972
0.00183298
0.173746
0.00137837
0.173604
0.000917959
0.173547
0.000452444
0.173577
-1.72828e-05
0.173693
-0.000491134
0.173897
-0.000967751
-0.00144661
0.174188
0.174599
0.00774443
0.173524
0.00734868
0.172512
0.0069343
0.171566
0.00650559
0.170688
0.00606333
0.169879
0.00560817
0.169141
0.00514068
0.168476
0.00466149
0.167885
0.00417125
0.16737
0.00367064
0.166932
0.00316034
0.166572
0.00264108
0.166292
0.0021136
0.166091
0.00157864
0.165972
0.001037
0.165935
0.000489468
0.165981
-6.30751e-05
0.16611
-0.000620071
0.166323
-0.00118038
-0.00174325
0.166619
0.166752
0.00881845
0.165736
0.00836398
0.164783
0.0078881
0.163892
0.00739593
0.163067
0.00688845
0.162309
0.00636639
0.161619
0.00583043
0.160999
0.00528124
0.160451
0.00471958
0.159976
0.00414621
0.159574
0.00356192
0.159247
0.00296752
0.158997
0.00236385
0.158824
0.00175176
0.158729
0.00113214
0.158713
0.00050589
0.158776
-0.000126039
0.158918
-0.000762876
0.159141
-0.00140347
-0.00204691
0.159445
0.159254
0.00982978
0.158299
0.00931881