/*--------------------------------*- C++ -*----------------------------------*\
  =========                 |
  \\      /  F ield         | OpenFOAM: The Open Source CFD Toolbox
   \\    /   O peration     | Website:  https://openfoam.org
    \\  /    A nd           | Version:  7
     \\/     M anipulation  |
\*---------------------------------------------------------------------------*/
FoamFile
{
    version     2.0;
    format      ascii;
    class       volVectorField;
    location    "30";
    object      U;
}
// * * * * * * * * * * * * * * * * * * * * * * * * * * * * * * * * * * * * * //

dimensions      [0 1 -1 0 0 0 0];

internalField   nonuniform List<vector> 
2125
(
(0.00620008 0.00536199 1.06909e-21)
(0.0350295 0.012818 -3.13107e-21)
(0.0904451 0.0175619 -3.6833e-21)
(0.00620008 -0.00536199 -1.06909e-21)
(0.0350295 -0.012818 3.13107e-21)
(0.0904451 -0.0175619 3.6833e-21)
(0.158066 -0.0201585 -3.71046e-21)
(0.231775 -0.0210751 3.46001e-21)
(0.30678 -0.02078 1.84791e-21)
(0.379492 -0.0197038 -3.1477e-21)
(0.447766 -0.0182011 -3.88794e-21)
(0.510545 -0.0165367 6.14976e-22)
(0.567495 -0.0148728 -1.82083e-21)
(0.0070226 -0.016039 1.163e-21)
(0.036948 -0.0383502 -3.73529e-21)
(0.0929948 -0.0525547 8.70401e-21)
(0.16092 -0.0603377 -8.03291e-21)
(0.234696 -0.063093 -3.9045e-22)
(0.309611 -0.0622203 -6.02e-21)
(0.38214 -0.0590062 1.04319e-20)
(0.450185 -0.0545121 1.5115e-20)
(0.512729 -0.0495306 2.87991e-21)
(0.569452 -0.0445485 -6.52981e-21)
(0.00865804 -0.0265757 -1.01427e-21)
(0.0407643 -0.0635718 -7.9498e-21)
(0.0980691 -0.0871559 -1.91335e-20)
(0.166602 -0.100104 1.74059e-20)
(0.240516 -0.104716 3.83967e-21)
(0.315253 -0.103302 3.60496e-21)
(0.387418 -0.0979939 -1.87568e-20)
(0.455008 -0.0905504 -1.17315e-20)
(0.517086 -0.0822871 -2.78956e-21)
(0.573358 -0.0740149 2.01794e-20)
(0.0110873 -0.0368801 -3.62022e-21)
(0.0464378 -0.0882792 4.7972e-21)
(0.105618 -0.121108 3.49123e-20)
(0.175063 -0.139187 -3.2578e-21)
(0.249186 -0.145682 -9.93033e-21)
(0.323664 -0.14379 7.62285e-21)
(0.395293 -0.136459 5.48086e-22)
(0.462209 -0.126136 3.0548e-21)
(0.523594 -0.11465 -7.04132e-21)
(0.579195 -0.103134 -1.97684e-20)
(0.0142821 -0.0468629 -2.53588e-21)
(0.0539076 -0.112274 1.42511e-20)
(0.115567 -0.154161 -3.5299e-20)
(0.186225 -0.17732 1.61097e-20)
(0.260637 -0.185738 1.47878e-22)
(0.334785 -0.183451 -2.2894e-20)
(0.405713 -0.174199 1.07337e-20)
(0.471746 -0.161093 -1.12638e-21)
(0.532218 -0.146465 4.52348e-21)
(0.586939 -0.13177 -1.46914e-21)
(0.0182049 -0.0564382 -2.87406e-20)
(0.0630935 -0.135363 -3.61917e-20)
(0.127819 -0.186069 9.66064e-21)
(0.199988 -0.214244 -1.84419e-20)
(0.274776 -0.224633 -5.57236e-21)
(0.348533 -0.222059 8.67545e-21)
(0.418612 -0.211013 3.38641e-21)
(0.483563 -0.195249 1.37433e-20)
(0.542915 -0.177582 -3.08619e-21)
(0.596555 -0.159791 1.78332e-20)
(0.02281 -0.0655243 2.75229e-20)
(0.0738966 -0.157366 1.85161e-20)
(0.142251 -0.2166 -1.48916e-20)
(0.216229 -0.249712 2.58771e-20)
(0.291488 -0.262127 -2.45444e-21)
(0.364808 -0.259395 -3.12598e-20)
(0.433903 -0.24671 5.7652e-21)
(0.497591 -0.228437 -3.75713e-20)
(0.555628 -0.207859 1.33562e-21)
(0.608002 -0.187068 1.52103e-20)
(0.0280433 -0.074045 -2.12347e-20)
(0.0862006 -0.178108 3.99215e-20)
(0.158721 -0.245532 1.5822e-20)
(0.234799 -0.283486 -2.02613e-20)
(0.310635 -0.297991 2.46692e-23)
(0.38349 -0.295249 5.77756e-20)
(0.451488 -0.281104 2.92783e-21)
(0.513749 -0.260497 2.89496e-20)
(0.570291 -0.237156 3.73501e-20)
(0.621231 -0.21348 -2.20838e-20)
(0.0338435 -0.0819301 1.21389e-20)
(0.0998723 -0.197429 -5.86015e-21)
(0.177063 -0.272658 -1.47692e-20)
(0.255531 -0.315343 1.17718e-20)
(0.332059 -0.332006 4.62863e-20)
(0.404441 -0.329421 -1.70334e-20)
(0.471248 -0.314018 -2.892e-21)
(0.531941 -0.291277 -4.2128e-20)
(0.586828 -0.265342 -5.52897e-20)
(0.636185 -0.238909 2.53912e-20)
(0.0401421 -0.089116 -1.70368e-20)
(0.114763 -0.215184 -1.57794e-20)
(0.197094 -0.297787 2.46096e-21)
(0.278232 -0.345074 -6.14992e-20)
(0.355584 -0.363967 -2.71201e-20)
(0.427505 -0.361722 -2.0917e-20)
(0.493053 -0.345288 -2.93754e-20)
(0.552058 -0.320636 1.41609e-20)
(0.605152 -0.292298 1.82017e-20)
(0.652797 -0.263248 2.9037e-20)
(0.046865 -0.0955468 2.45426e-21)
(0.130711 -0.231241 2.28366e-20)
(0.218613 -0.320744 1.68916e-20)
(0.302695 -0.372489 2.89283e-20)
(0.38101 -0.393686 2.36609e-20)
(0.452506 -0.391978 -2.3958e-20)
(0.516753 -0.374757 2.36292e-20)
(0.573979 -0.348439 1.71361e-20)
(0.625162 -0.31791 -2.14654e-21)
(0.670994 -0.2864 -8.43468e-21)
(0.0539326 -0.101175 4.10194e-20)
(0.147541 -0.245486 -2.08459e-20)
(0.2414 -0.341377 -1.5556e-20)
(0.32869 -0.397415 -9.66683e-21)
(0.408124 -0.420988 1.83982e-20)
(0.479254 -0.420025 1.72323e-20)
(0.542188 -0.402282 -2.54713e-20)
(0.59757 -0.374566 2.08445e-20)
(0.646751 -0.342078 1.03915e-21)
(0.690694 -0.308275 2.18818e-20)
(0.0612609 -0.10596 -3.11043e-20)
(0.165069 -0.257821 -1.2285e-20)
(0.265222 -0.35955 -1.1397e-21)
(0.355975 -0.419699 1.79166e-20)
(0.436693 -0.445718 -2.76966e-21)
(0.507543 -0.445717 -1.95511e-20)
(0.569178 -0.427733 5.77307e-21)
(0.622681 -0.398907 6.76017e-21)
(0.669796 -0.364714 1.6669e-20)
(0.711803 -0.328801 -3.35093e-20)
(0.0687629 -0.109874 -1.64973e-20)
(0.1831 -0.26817 3.17539e-20)
(0.289836 -0.375153 2.38664e-20)
(0.384291 -0.439211 -1.11523e-20)
(0.466472 -0.46774 -2.41203e-20)
(0.53715 -0.468923 -1.91918e-20)
(0.597534 -0.450992 2.2691e-20)
(0.649154 -0.421363 -4.73554e-20)
(0.694163 -0.385742 1.32681e-20)
(0.734219 -0.347916 3.66111e-20)
(0.0763489 -0.112894 2.78714e-20)
(0.201433 -0.276472 -1.76151e-20)
(0.314985 -0.388097 5.62704e-21)
(0.413368 -0.455842 -4.06071e-22)
(0.4972 -0.486935 -7.17903e-21)
(0.567842 -0.489527 3.13797e-20)
(0.627052 -0.471954 -2.92067e-20)
(0.676813 -0.441848 2.97294e-20)
(0.719706 -0.4051 -4.83332e-20)
(0.757823 -0.36558 -1.8779e-20)
(0.0839281 -0.11501 -3.54921e-21)
(0.219865 -0.282692 -2.64701e-20)
(0.340408 -0.398317 4.7691e-21)
(0.442925 -0.469506 -6.9156e-21)
(0.528607 -0.503205 -6.02924e-21)
(0.599372 -0.507428 1.26303e-21)
(0.657515 -0.490527 -2.05289e-20)
(0.705474 -0.460283 -1.27314e-21)
(0.74626 -0.422734 2.98536e-20)
(0.782483 -0.381769 -4.01838e-20)
(0.0914097 -0.11622 1.20773e-20)
(0.238189 -0.286811 2.24902e-20)
(0.365838 -0.405773 -2.04607e-20)
(0.472675 -0.480142 -8.91325e-21)
(0.560413 -0.516474 5.29112e-20)
(0.631486 -0.522543 -4.47759e-20)
(0.6887 -0.506628 4.52462e-20)
(0.734944 -0.476598 4.45859e-22)
(0.773654 -0.438602 1.04145e-20)
(0.808057 -0.396474 3.70978e-20)
(0.0987037 -0.116534 -7.04579e-21)
(0.256197 -0.288833 -7.27215e-22)
(0.391005 -0.410452 5.19996e-21)
(0.502327 -0.487713 2.14946e-21)
(0.592334 -0.526685 -2.20209e-22)
(0.663922 -0.534803 1.63602e-20)
(0.720379 -0.520182 -8.81451e-21)
(0.765026 -0.490721 1.16397e-20)
(0.801697 -0.452647 -4.04317e-21)
(0.83438 -0.409679 -2.00891e-21)
(0.105723 -0.11597 1.34386e-20)
(0.273687 -0.288785 -1.3604e-21)
(0.415642 -0.412365 -2.09048e-22)
(0.531587 -0.492208 6.5356e-22)
(0.62408 -0.533806 -1.45305e-20)
(0.69642 -0.544157 3.98892e-20)
(0.752327 -0.531123 -3.15767e-20)
(0.795536 -0.502557 2.4415e-20)
(0.830169 -0.46471 -2.20022e-20)
(0.861112 -0.421243 -2.74535e-20)
(0.112382 -0.114556 -1.26236e-22)
(0.290459 -0.286713 -7.58366e-21)
(0.439485 -0.41155 8.6216e-21)
(0.560165 -0.493644 2.88636e-21)
(0.655366 -0.537828 -5.59534e-21)
(0.72872 -0.550572 -3.32151e-20)
(0.78434 -0.539393 8.47609e-21)
(0.826376 -0.511973 -5.85114e-21)
(0.85904 -0.474515 2.39771e-20)
(0.887888 -0.430972 -9.43092e-21)
(0.118603 -0.112329 1.25751e-21)
(0.306322 -0.282685 1.77132e-22)
(0.462274 -0.408071 5.66184e-22)
(0.587769 -0.492065 -3.55204e-21)
(0.685901 -0.538771 8.43611e-21)
(0.760567 -0.55405 4.81722e-21)
(0.816237 -0.544978 1.43851e-20)
(0.857612 -0.518944 -1.94245e-20)
(0.889348 -0.482338 -2.18436e-20)
(0.918674 -0.441212 1.18299e-20)
(0.124309 -0.109336 -1.01777e-21)
(0.321095 -0.276787 -3.26698e-21)
(0.48376 -0.402019 3.29583e-21)
(0.614117 -0.487542 -9.54154e-22)
(0.715397 -0.536681 6.21319e-22)
(0.791686 -0.554621 -6.20899e-21)
(0.847756 -0.547938 -1.37045e-20)
(0.888838 -0.523713 1.39455e-20)
(0.920111 -0.488664 -1.44501e-20)
(0.947918 -0.450015 -1.25063e-21)
(0.129436 -0.105632 -2.06319e-21)
(0.334607 -0.269128 1.44924e-21)
(0.503705 -0.393508 -2.34742e-21)
(0.638929 -0.480174 -1.42172e-21)
(0.74356 -0.531632 -4.01465e-21)
(0.821786 -0.552338 2.38302e-21)
(0.878597 -0.548313 -6.41327e-21)
(0.919617 -0.526308 -6.81791e-21)
(0.950398 -0.493219 3.02328e-20)
(0.975999 -0.456954 1.72268e-20)
(0.133922 -0.101279 -1.51429e-21)
(0.346701 -0.25983 -1.64213e-21)
(0.521883 -0.382675 -2.00256e-21)
(0.661937 -0.470081 6.8064e-23)
(0.770099 -0.523714 -2.02158e-21)
(0.850568 -0.547258 7.30059e-21)
(0.90845 -0.546125 -2.00689e-21)
(0.949605 -0.526676 5.82857e-21)
(0.979791 -0.495782 -6.68567e-21)
(1.00316 -0.461623 2.0565e-21)
(0.137717 -0.0963416 2.03455e-21)
(0.35724 -0.249031 7.74837e-21)
(0.538087 -0.369682 -1.86822e-21)
(0.682885 -0.45741 -2.18209e-22)
(0.794731 -0.513041 -1.63089e-21)
(0.877736 -0.539456 -2.19502e-21)
(0.937018 -0.541403 5.17991e-21)
(0.978534 -0.524788 1.45382e-21)
(1.00812 -0.496298 -1.04133e-20)
(1.02946 -0.464136 -7.90644e-21)
(0.140773 -0.0908918 -2.46909e-21)
(0.366102 -0.23689 -4.54457e-22)
(0.552129 -0.354706 8.31749e-21)
(0.701536 -0.442327 4.87567e-22)
(0.817188 -0.499746 -5.26315e-21)
(0.903008 -0.529023 4.47367e-21)
(0.964022 -0.534193 1.20564e-21)
(1.00617 -0.520645 1.39723e-21)
(1.03529 -0.49476 3.85616e-21)
(1.05487 -0.464618 6.20178e-21)
(0.143054 -0.0850112 8.56353e-21)
(0.373185 -0.223573 -1.22053e-21)
(0.563845 -0.337944 -6.96027e-21)
(0.71767 -0.425019 7.43839e-22)
(0.837217 -0.483984 4.352e-21)
(0.926114 -0.516066 -5.59766e-22)
(0.989196 -0.524556 -1.35477e-21)
(1.03228 -0.514269 1.14975e-21)
(1.06118 -0.491182 -5.69445e-23)
(1.07932 -0.463154 -2.76449e-21)
(0.144542 -0.0787826 -2.69363e-21)
(0.378406 -0.209256 -2.32518e-20)
(0.573095 -0.319608 1.97108e-21)
(0.731094 -0.405695 1.06187e-20)
(0.85458 -0.465927 -5.48343e-22)
(0.946799 -0.500714 -1.39636e-20)
(1.01229 -0.512575 7.54301e-21)
(1.05667 -0.505699 -1.23913e-21)
(1.08566 -0.485589 3.49095e-22)
(1.10274 -0.459817 -9.47011e-23)
(0.145223 -0.0722883 -4.39895e-21)
(0.381709 -0.194124 7.66762e-21)
(0.579767 -0.299926 1.27368e-20)
(0.741644 -0.384579 -8.11455e-21)
(0.869066 -0.44577 2.47729e-21)
(0.964826 -0.483114 8.90878e-21)
(1.03307 -0.498346 5.08226e-21)
(1.07912 -0.494997 1.03757e-21)
(1.10858 -0.478026 -1.03407e-21)
(1.12502 -0.454674 -1.673e-22)
(0.145094 -0.0656119 -6.72209e-21)
(0.38306 -0.178367 -3.4974e-21)
(0.583779 -0.279136 -2.52344e-20)
(0.749182 -0.361912 -4.13148e-21)
(0.880492 -0.423725 7.21385e-22)
(0.979977 -0.463431 1.6708e-21)
(1.05131 -0.481988 -1.82353e-20)
(1.09943 -0.482239 -7.93467e-21)
(1.12981 -0.468546 2.84277e-22)
(1.14603 -0.447795 8.73501e-22)
(0.144164 -0.0588375 -2.11646e-21)
(0.382451 -0.162178 8.42987e-21)
(0.58508 -0.257483 1.28844e-20)
(0.7536 -0.337948 8.34672e-21)
(0.888699 -0.40002 -1.83077e-21)
(0.992056 -0.441852 -2.14144e-21)
(1.0668 -0.463636 1.54037e-20)
(1.11742 -0.467517 1.45654e-20)
(1.14914 -0.457207 1.93646e-21)
(1.16568 -0.439273 -1.27743e-21)
(0.142452 -0.0520475 1.96821e-20)
(0.379898 -0.14575 1.30773e-20)
(0.58365 -0.235218 -1.41196e-20)
(0.754828 -0.312951 -2.88818e-21)
(0.893557 -0.3749 1.80106e-21)
(1.00089 -0.418576 -5.56797e-21)
(1.07934 -0.443439 -9.70808e-21)
(1.13289 -0.450927 -1.92172e-22)
(1.16644 -0.444122 -9.14126e-21)
(1.18389 -0.429201 3.62961e-21)
(0.139986 -0.0453218 3.09741e-21)
(0.375441 -0.129275 -7.5298e-21)
(0.579504 -0.212593 1.88748e-20)
(0.752827 -0.287195 1.2308e-20)
(0.894971 -0.348623 8.93084e-22)
(1.00633 -0.393824 7.86442e-21)
(1.08876 -0.421571 6.76366e-22)
(1.14566 -0.43261 -7.44808e-21)
(1.18154 -0.429415 5.39861e-21)
(1.20041 -0.417489 9.9487e-22)
(0.136806 -0.0387361 -1.758e-20)
(0.369144 -0.112937 -5.58594e-21)
(0.572686 -0.189859 -5.03767e-21)
(0.747597 -0.260955 -8.9497e-21)
(0.892878 -0.321457 2.64614e-21)
(1.00826 -0.367829 -3.71941e-23)
(1.09489 -0.398214 6.39218e-21)
(1.15554 -0.412694 -1.98256e-21)
(1.19424 -0.413118 -6.63528e-21)
(1.21494 -0.40426 -4.75994e-21)
(0.13296 -0.0323609 1.50176e-21)
(0.361094 -0.096914 9.39708e-21)
(0.563276 -0.167262 4.83649e-21)
(0.739173 -0.23451 -1.50292e-20)
(0.887252 -0.293677 -4.0912e-22)
(1.00658 -0.340835 -6.74413e-21)
(1.09759 -0.373567 1.14824e-22)
(1.16235 -0.391323 2.38451e-21)
(1.20437 -0.395326 -2.76072e-21)
(1.22741 -0.389627 8.01185e-21)
(0.128502 -0.0262608 3.67582e-21)
(0.351398 -0.0813715 -9.41387e-21)
(0.55138 -0.145038 -2.29899e-20)
(0.727628 -0.208135 2.17979e-20)
(0.878103 -0.265564 -1.59067e-21)
(1.00124 -0.3131 4.72562e-21)
(1.09674 -0.347843 -6.97058e-22)
(1.16594 -0.36866 4.49294e-21)
(1.21175 -0.376161 -4.20236e-22)
(1.23767 -0.373667 -6.25555e-21)
(0.123494 -0.0204931 -7.52621e-21)
(0.340182 -0.0664631 1.24632e-20)
(0.537138 -0.123412 1.05376e-20)
(0.713068 -0.182099 -1.58671e-20)
(0.86548 -0.237399 -2.82723e-21)
(0.992211 -0.284888 1.00647e-21)
(1.09224 -0.321268 1.1315e-20)
(1.16616 -0.344882 3.92774e-22)
(1.21622 -0.355749 2.20317e-21)
(1.24555 -0.356454 -4.4145e-21)
(0.118004 -0.0151076 5.71394e-21)
(0.32759 -0.0523269 -5.51304e-21)
(0.520714 -0.102593 -4.94101e-21)
(0.695636 -0.15666 8.78527e-21)
(0.84947 -0.209462 3.10891e-21)
(0.979503 -0.25647 2.53122e-21)
(1.08402 -0.294078 -1.19568e-20)
(1.16287 -0.320175 -4.39505e-21)
(1.21758 -0.334227 -3.73046e-21)
(1.25084 -0.338071 1.44719e-21)
(0.112104 -0.0101457 -2.89773e-21)
(0.313779 -0.0390841 -6.2997e-23)
(0.502297 -0.0827727 9.36541e-21)
(0.675509 -0.132063 -3.55684e-21)
(0.830198 -0.182026 -1.73048e-21)
(0.963168 -0.228119 -1.19144e-21)
(1.07206 -0.266521 3.07734e-21)
(1.15597 -0.294741 5.34177e-21)
(1.21569 -0.311744 -2.9925e-22)
(1.25336 -0.318609 2.02132e-21)
(0.105866 -0.00564017 2.04215e-21)
(0.298915 -0.0268373 -6.24743e-22)
(0.482096 -0.0641222 -1.68804e-21)
(0.652893 -0.108535 -1.6165e-21)
(0.807827 -0.155355 1.56479e-21)
(0.943296 -0.200107 1.31999e-21)
(1.05636 -0.23885 -1.27095e-21)
(1.14537 -0.268792 4.72389e-22)
(1.21039 -0.28846 6.91113e-22)
(1.25293 -0.298169 -9.1591e-22)
(0.0993677 -0.00161516 1.11579e-21)
(0.283175 -0.01567 3.45842e-22)
(0.460339 -0.0467891 -2.13629e-21)
(0.628022 -0.0862828 -1.84405e-21)
(0.782557 -0.129698 2.08617e-21)
(0.920015 -0.172703 4.50374e-22)
(1.03694 -0.211324 -1.15536e-21)
(1.13103 -0.242554 1.13265e-21)
(1.20156 -0.264548 6.74714e-22)
(1.24937 -0.276863 -8.01085e-22)
(0.0926832 0.00191394 -4.36404e-22)
(0.266739 -0.0056458 9.43522e-22)
(0.437264 -0.0308968 6.61473e-21)
(0.601153 -0.0654908 -3.27076e-21)
(0.75462 -0.105288 -1.70982e-21)
(0.893497 -0.146168 -2.1602e-21)
(1.0139 -0.184205 4.80209e-21)
(1.11292 -0.21626 3.65988e-21)
(1.18908 -0.240198 3.02328e-21)
(1.24251 -0.254818 1.65876e-21)
(0.085887 0.00494017 8.92266e-21)
(0.249788 0.00319179 -5.25868e-21)
(0.413122 -0.0165428 -6.33229e-21)
(0.572563 -0.0463162 9.39925e-21)
(0.72428 -0.0823368 5.591e-21)
(0.863952 -0.120751 -4.37555e-22)
(0.987365 -0.157752 -8.57987e-21)
(1.09106 -0.190156 -6.38449e-21)
(1.17289 -0.215612 -7.44455e-21)
(1.23219 -0.232176 4.84451e-21)
(0.0790505 0.00746458 -1.20729e-20)
(0.232504 0.010819 1.22102e-20)
(0.388167 -0.00379853 1.50821e-20)
(0.542547 -0.0288889 -1.63666e-20)
(0.691828 -0.0610327 -6.246e-21)
(0.831626 -0.0966842 4.70828e-21)
(0.957492 -0.132223 9.22755e-21)
(1.06552 -0.164491 1.76697e-21)
(1.15294 -0.191009 -5.29462e-22)
(1.21829 -0.209097 -7.05763e-21)
(0.0722416 0.00949569 -1.77225e-21)
(0.215062 0.017231 -1.7304e-20)
(0.362654 0.00729121 -1.98145e-20)
(0.511405 -0.0133093 2.49616e-20)
(0.657577 -0.0415365 -3.15268e-21)
(0.796802 -0.0741826 7.13109e-21)
(0.924496 -0.107864 1.6979e-21)
(1.03642 -0.13952 -4.46611e-21)
(1.12923 -0.16662 2.59885e-21)
(1.2007 -0.185762 -1.24493e-21)
(0.0655235 0.0110488 3.56494e-21)
(0.197631 0.0224412 1.07845e-20)
(0.336833 0.0167076 6.52314e-21)
(0.479446 0.000352338 -5.42091e-21)
(0.621858 -0.0239796 -1.02981e-20)
(0.759794 -0.0534365 -1.09154e-20)
(0.888632 -0.0849121 -2.59261e-21)
(1.0039 -0.115498 8.5192e-21)
(1.10182 -0.142692 -1.93319e-21)
(1.17936 -0.162376 4.38164e-21)
(0.0589539 0.012145 -1.3731e-20)
(0.180369 0.0264795 -1.37814e-20)
(0.310948 0.0244572 -2.54221e-21)
(0.446977 0.0120564 -2.97713e-21)
(0.585014 -0.00846173 -8.31433e-21)
(0.720941 -0.0346094 5.88897e-21)
(0.850192 -0.0635842 -9.07026e-22)
(0.968177 -0.0926772 -7.30738e-21)
(1.07078 -0.119481 7.08736e-21)
(1.15424 -0.139166 -1.36946e-20)
(0.0525845 0.0128108 3.05591e-21)
(0.163424 0.029391 1.19094e-20)
(0.285231 0.0305706 1.15939e-20)
(0.414301 0.0217941 1.4186e-20)
(0.547392 0.00495048 -3.13445e-22)
(0.680602 -0.0178343 1.77985e-20)
(0.809506 -0.0440767 2.18495e-21)
(0.929507 -0.0713014 -2.87801e-20)
(1.03629 -0.0972505 2.33315e-20)
(1.12536 -0.116388 8.53255e-21)
(0.0464607 0.0130768 9.07395e-21)
(0.146929 0.0312346 2.22186e-20)
(0.2599 0.0351009 -3.0137e-21)
(0.381708 0.0295866 -1.83646e-20)
(0.509338 0.0162251 9.34728e-21)
(0.639148 -0.00321029 -1.16551e-20)
(0.766931 -0.0265592 -2.01909e-20)
(0.888188 -0.0516009 -4.15876e-21)
(0.998533 -0.0762698 -2.2265e-20)
(0.0406214 0.012977 4.51247e-21)
(0.131006 0.0320806 4.1837e-21)
(0.235156 0.0381222 3.26106e-20)
(0.349475 0.0354846 7.57855e-21)
(0.471192 0.0253652 -7.90084e-21)
(0.596958 0.00920038 -4.38087e-21)
(0.722846 -0.0111692 3.44374e-20)
(0.844558 -0.0337869 3.32375e-20)
(0.0350986 0.0125481 1.02849e-21)
(0.115757 0.0320098 -2.35159e-20)
(0.211178 0.0397278 -3.9227e-20)
(0.31786 0.0395667 2.36893e-21)
(0.43328 0.0324099 1.19529e-20)
(0.554405 0.0193747 -1.86036e-20)
(0.677641 0.00199258 -5.59272e-20)
(0.0299184 0.0118287 -8.29097e-21)
(0.101272 0.0311113 2.40838e-20)
(0.188129 0.0400281 2.47028e-20)
(0.287098 0.0419383 -2.8686e-20)
(0.395908 0.0374334 4.29009e-21)
(0.0251006 0.010859 -2.01375e-20)
(0.0876251 0.0294815 -3.72239e-20)
(0.166145 0.0391484 -8.27677e-21)
(0.257399 0.0427296 1.59737e-20)
(0.0206599 0.00967986 1.52374e-20)
(0.0748743 0.027222 2.21496e-22)
(0.145343 0.0372274 -4.11501e-21)
(0.0166055 0.00833294 -5.03968e-21)
(0.0630642 0.0244387 -9.3079e-21)
(0.0129424 0.00685998 3.46088e-20)
(0.0522257 0.0212401 2.89822e-20)
(0.00967128 0.00530251 6.60639e-21)
(0.999873 -0.00371977 -2.11508e-22)
(0.996762 -0.011137 9.45666e-22)
(0.990904 -0.0193571 4.60723e-22)
(0.982944 -0.0289368 2.1058e-22)
(0.97297 -0.040608 4.33118e-22)
(0.961326 -0.0549989 -1.87218e-21)
(0.948255 -0.0728273 -2.49896e-21)
(0.934305 -0.0948456 8.38506e-22)
(0.920038 -0.121824 2.59272e-21)
(0.906598 -0.154461 3.0702e-21)
(0.894948 -0.193352 5.2966e-21)
(0.887373 -0.238489 -1.17908e-21)
(0.884333 -0.289776 -7.67839e-21)
(0.890227 -0.343691 -2.13889e-21)
(0.895404 -0.3993 5.73999e-21)
(0.999868 -0.00353655 -1.19047e-21)
(0.996688 -0.0106004 4.43248e-22)
(0.99069 -0.0184338 -7.41719e-22)
(0.982514 -0.0275611 2.00631e-21)
(0.972217 -0.0386761 -1.78767e-21)
(0.960106 -0.0523779 2.16328e-22)
(0.94637 -0.0693576 2.60893e-21)
(0.931484 -0.0903465 -4.12854e-21)
(0.915923 -0.11612 1.84771e-21)
(0.900727 -0.147399 -6.78582e-21)
(0.886763 -0.184898 7.74055e-21)
(0.876178 -0.228722 -8.11298e-21)
(0.869495 -0.27919 -1.25513e-21)
(0.870133 -0.332663 9.72599e-21)
(0.871448 -0.387645 -2.24764e-21)
(0.999865 -0.0033483 1.5815e-21)
(0.996628 -0.0100462 1.09212e-21)
(0.990506 -0.0174764 1.32524e-21)
(0.982138 -0.0261312 -9.78778e-22)
(0.971551 -0.0366653 -1.01073e-21)
(0.959022 -0.0496478 3.75176e-21)
(0.944685 -0.0657403 -2.05144e-21)
(0.92895 -0.0856491 5.68029e-21)
(0.912204 -0.11015 -3.51101e-21)
(0.895376 -0.139973 -1.70524e-21)
(0.87922 -0.175937 -2.36796e-21)
(0.865709 -0.21825 1.99682e-21)
(0.855365 -0.267533 5.63956e-21)
(0.850948 -0.320284 -1.59843e-20)
(0.847825 -0.374446 1.79562e-20)
(0.999864 -0.0031598 2.26944e-22)
(0.996579 -0.00949182 -1.81441e-21)
(0.990347 -0.0165209 -3.38738e-21)
(0.981806 -0.0247083 5.90765e-22)
(0.970959 -0.0346717 -1.14829e-22)
(0.958051 -0.0469508 1.06212e-21)
(0.94317 -0.0621788 3.18457e-21)
(0.926661 -0.0810361 -2.16982e-21)
(0.908824 -0.104294 2.73383e-21)
(0.890479 -0.132686 -5.49778e-21)
(0.872252 -0.167109 3.69654e-21)
(0.855925 -0.207851 2.48649e-21)
(0.841993 -0.255741 6.0935e-21)
(0.832714 -0.307564 -1.05588e-20)
(0.824883 -0.360778 1.90096e-22)
(0.999864 -0.00297051 -2.00033e-21)
(0.996537 -0.00893396 -4.74143e-22)
(0.990208 -0.0155598 -4.64128e-22)
(0.981513 -0.0232775 2.60781e-21)
(0.970431 -0.032668 4.3096e-23)
(0.957181 -0.0442414 -4.05813e-22)
(0.941804 -0.0586015 -2.2574e-21)
(0.924587 -0.0764003 -1.68249e-22)
(0.905746 -0.0983996 7.0118e-21)
(0.885989 -0.125326 -8.12509e-21)
(0.865817 -0.158134 2.5843e-21)
(0.846801 -0.197179 3.9122e-21)
(0.8294 -0.243435 1.26915e-21)
(0.815466 -0.294063 -5.79291e-21)
(0.80282 -0.346114 1.1453e-22)
(0.999865 -0.00278019 3.70414e-22)
(0.996503 -0.00837161 3.27249e-22)
(0.990087 -0.0145889 1.12163e-21)
(0.981253 -0.0218309 -1.45277e-21)
(0.969959 -0.0306411 4.11225e-22)
(0.9564 -0.0414994 -1.10858e-21)
(0.940573 -0.0549785 5.89883e-22)
(0.922709 -0.0716991 -2.48431e-21)
(0.902945 -0.0924078 4.73915e-21)
(0.881878 -0.117817 -1.4108e-22)
(0.859885 -0.148917 -8.45059e-21)
(0.838321 -0.186126 5.51393e-22)
(0.817596 -0.230509 8.90317e-21)
(0.799226 -0.279643 2.37442e-22)
(0.781746 -0.330306 -1.02979e-20)
(0.999866 -0.00258909 3.21552e-22)
(0.996474 -0.00780614 -1.87002e-21)
(0.989982 -0.0136096 -1.40923e-21)
(0.981024 -0.0203705 1.66066e-21)
(0.969539 -0.0285943 -1.18154e-21)
(0.9557 -0.0387295 9.49469e-22)
(0.939464 -0.051317 -4.87372e-22)
(0.92101 -0.0669437 -5.28969e-22)
(0.900398 -0.0863347 3.62773e-21)
(0.878118 -0.110182 -7.18389e-21)
(0.85443 -0.139491 5.74237e-21)
(0.830467 -0.174734 7.89207e-21)
(0.806584 -0.217024 -9.77135e-21)
(0.784006 -0.264356 -1.80569e-21)
(0.761751 -0.313369 -8.61322e-21)
(0.999868 -0.0023975 -1.7734e-22)
(0.996449 -0.00723765 1.17534e-21)
(0.98989 -0.0126235 -1.29234e-21)
(0.980821 -0.018899 2.96462e-21)
(0.969165 -0.0265313 -3.1902e-21)
(0.955073 -0.0359377 -3.19596e-21)
(0.938467 -0.0476252 -7.99082e-22)
(0.919475 -0.062145 3.62248e-22)
(0.898088 -0.0801953 -2.81959e-21)
(0.874689 -0.102441 3.23315e-21)
(0.849429 -0.129884 3.39133e-21)
(0.823224 -0.163039 -1.18492e-21)
(0.796361 -0.203032 -4.03052e-21)
(0.769816 -0.248252 8.4385e-21)
(0.742915 -0.29532 -7.99159e-21)
(0.99987 -0.00220561 -7.74027e-22)
(0.996429 -0.00666611 7.26424e-21)
(0.989809 -0.0116315 1.71522e-22)
(0.980642 -0.0174178 1.47469e-21)
(0.968832 -0.0244544 -2.59596e-22)
(0.954512 -0.0331266 4.3262e-21)
(0.937572 -0.0439068 6.58421e-22)
(0.918091 -0.057308 4.8712e-23)
(0.895998 -0.0739958 -4.4549e-21)
(0.871571 -0.0946026 -7.88034e-22)
(0.844862 -0.120109 3.75932e-21)
(0.81658 -0.15106 -5.42622e-21)
(0.786926 -0.188565 -3.97757e-21)
(0.756666 -0.231372 4.74038e-21)
(0.725305 -0.27618 -3.99694e-21)
(0.999872 -0.00201354 1.93419e-21)
(0.996412 -0.00609222 -4.08256e-21)
(0.989739 -0.0106322 2.18104e-21)
(0.980485 -0.015928 -3.07078e-21)
(0.968538 -0.0223652 -1.12604e-21)
(0.954013 -0.0302984 6.23056e-22)
(0.936772 -0.0401642 -2.22941e-21)
(0.916849 -0.052436 3.91919e-21)
(0.894115 -0.0677411 2.0883e-21)
(0.868751 -0.0866746 -1.18518e-21)
(0.840715 -0.110179 3.53437e-21)
(0.810521 -0.138816 -6.58445e-21)
(0.778277 -0.17366 1.12617e-20)
(0.744564 -0.213763 -7.80228e-21)
(0.708979 -0.25599 -3.86311e-21)
(0.999874 -0.00182141 -1.37486e-21)
(0.996398 -0.00551651 1.8371e-22)
(0.989679 -0.00962179 1.18332e-23)
(0.980347 -0.0144306 2.83903e-21)
(0.968277 -0.020265 7.04243e-22)
(0.953571 -0.027455 -1.28776e-21)
(0.93606 -0.0364001 1.44848e-21)
(0.915739 -0.0475326 -2.86174e-21)
(0.892428 -0.0614365 1.14529e-21)
(0.866215 -0.0786646 7.2174e-22)
(0.836974 -0.100107 -3.48696e-21)
(0.805037 -0.126329 2.60973e-21)
(0.770412 -0.15835 6.62548e-21)
(0.733518 -0.19548 -3.32251e-21)
(0.693985 -0.234807 -8.58269e-21)
(0.999876 -0.0016293 -1.56204e-21)
(0.996387 -0.00493921 -3.26965e-22)
(0.989626 -0.0086164 -1.41955e-21)
(0.980225 -0.012927 -4.14371e-21)
(0.968049 -0.0181554 1.98711e-21)
(0.953181 -0.0245984 -1.88278e-21)
(0.935431 -0.0326171 2.52149e-21)
(0.914756 -0.0426014 3.66185e-21)
(0.890929 -0.0550871 -2.34803e-21)
(0.863955 -0.070581 4.77342e-21)
(0.833629 -0.0899079 -2.57016e-21)
(0.800121 -0.113623 -3.80441e-21)
(0.763332 -0.142675 -2.32364e-21)
(0.723539 -0.176582 9.52279e-21)
(0.680368 -0.2127 -3.12561e-21)
(0.999878 -0.00143726 1.62436e-21)
(0.996377 -0.0043607 7.78835e-22)
(0.989581 -0.0076171 -1.13493e-22)
(0.980121 -0.0114181 1.66005e-21)
(0.967851 -0.0160375 -2.65728e-21)
(0.952841 -0.0217302 -6.53399e-22)
(0.934882 -0.0288175 -5.32213e-23)
(0.913894 -0.0376457 -1.24106e-21)
(0.889612 -0.048698 -3.60228e-21)
(0.861962 -0.0624316 -1.78674e-21)
(0.830671 -0.0795955 6.67057e-21)
(0.795765 -0.10072 -1.03107e-21)
(0.757035 -0.12667 -1.02337e-21)
(0.714636 -0.15713 -8.1153e-22)
(0.668166 -0.189745 -3.8776e-21)
(0.99988 -0.00124533 9.82227e-22)
(0.996368 -0.00378115 -1.79709e-21)
(0.989543 -0.00660871 7.64665e-22)
(0.980032 -0.00990435 -2.03782e-21)
(0.967681 -0.0139127 -1.23795e-22)
(0.952549 -0.0188521 1.14381e-22)
(0.934407 -0.0250035 1.5776e-22)
(0.913147 -0.0326686 2.35997e-22)
(0.888469 -0.0422743 -1.64201e-21)
(0.86023 -0.0542244 2.13939e-21)
(0.828094 -0.0691833 -3.43952e-21)
(0.791962 -0.0876422 7.71897e-22)
(0.751523 -0.110374 2.26864e-21)
(0.706819 -0.137184 -1.49129e-22)
(0.657412 -0.166029 2.63928e-21)
(0.999882 -0.0010535 -9.55463e-22)
(0.996361 -0.00320072 2.18086e-21)
(0.989511 -0.00559555 -1.37289e-21)
(0.979957 -0.0083867 1.66545e-21)
(0.967538 -0.0117819 9.07006e-22)
(0.952302 -0.0159655 -5.6992e-22)
(0.934005 -0.0211772 -9.67105e-23)
(0.912513 -0.0276733 -6.3435e-22)
(0.887496 -0.0358207 2.25401e-22)
(0.858753 -0.0459669 -1.80685e-21)
(0.825894 -0.058685 8.53912e-22)
(0.78871 -0.0744139 -5.70328e-21)
(0.746796 -0.0938244 7.94619e-21)
(0.700097 -0.11681 -2.38388e-21)
(0.648138 -0.141642 -4.94538e-21)
(0.999883 -0.000861771 -4.45103e-22)
(0.996356 -0.00261961 -6.73962e-22)
(0.989485 -0.00458053 4.67634e-22)
(0.979896 -0.00686591 1.12879e-22)
(0.96742 -0.00964627 1.26239e-21)
(0.952098 -0.013072 -4.41946e-22)
(0.933673 -0.0173406 2.57869e-22)
(0.911989 -0.0226626 -8.38415e-23)
(0.886691 -0.029342 7.03016e-22)
(0.857528 -0.0376671 1.30404e-21)
(0.824065 -0.0481139 1.85033e-21)
(0.786004 -0.0610581 -2.98067e-21)
(0.742854 -0.0770598 1.31711e-21)
(0.694481 -0.0960717 -1.6598e-21)
(0.640369 -0.116683 -4.56237e-21)
(0.999885 -0.000670146 1.57957e-21)
(0.996352 -0.00203798 -1.83897e-22)
(0.989465 -0.00356416 7.36319e-22)
(0.979848 -0.00534262 6.22752e-22)
(0.967327 -0.00750665 -1.96963e-21)
(0.951936 -0.0101729 7.32985e-23)
(0.93341 -0.0134957 2.96549e-22)
(0.911572 -0.0176393 1.79157e-22)
(0.886049 -0.0228427 -6.70473e-22)
(0.856551 -0.0293326 6.27684e-22)
(0.822605 -0.0374835 2.81235e-21)
(0.783841 -0.0475978 -1.11894e-21)
(0.7397 -0.0601188 2.49257e-21)
(0.689977 -0.0750339 -5.39898e-21)
(0.634126 -0.0912492 6.67472e-21)
(0.999886 -0.000478609 -1.12781e-21)
(0.996349 -0.00145596 2.10224e-23)
(0.98945 -0.00254664 -6.55539e-22)
(0.979812 -0.00381745 -3.23475e-22)
(0.967257 -0.00536402 7.0189e-22)
(0.951816 -0.00726939 -3.72678e-23)
(0.933213 -0.00964432 -1.23403e-21)
(0.911261 -0.0126064 7.07545e-22)
(0.88557 -0.0163276 -3.09348e-22)
(0.855821 -0.0209711 2.76265e-22)
(0.821511 -0.0268068 9.53857e-22)
(0.782221 -0.0340564 2.46612e-22)
(0.737333 -0.0430404 -1.66581e-21)
(0.686593 -0.0537627 1.92863e-22)
(0.629429 -0.0654447 -1.49031e-21)
(0.999886 -0.000287137 5.49566e-22)
(0.996347 -0.000873682 -3.75367e-23)
(0.98944 -0.0015283 9.53007e-23)
(0.979788 -0.00229097 5.26644e-22)
(0.967211 -0.00321926 -9.54716e-23)
(0.951736 -0.00436285 -5.07471e-22)
(0.933083 -0.00578841 -3.18135e-22)
(0.911054 -0.00756659 3.7834e-22)
(0.885251 -0.00980106 -3.36126e-22)
(0.855334 -0.0125904 3.92883e-22)
(0.820783 -0.0160973 -1.01518e-21)
(0.781141 -0.020457 5.57731e-22)
(0.735755 -0.0258636 -1.23121e-21)
(0.684334 -0.0323245 4.93995e-22)
(0.62629 -0.0393737 2.02453e-22)
(0.999887 -9.57077e-05 -9.79322e-23)
(0.996346 -0.000291244 9.53988e-23)
(0.989435 -0.000509486 -1.24254e-22)
(0.979776 -0.000763741 -1.74552e-22)
(0.967189 -0.00107323 1.62782e-22)
(0.951696 -0.00145449 2.55166e-22)
(0.933017 -0.00192977 1.75478e-22)
(0.91095 -0.00252266 -1.04689e-22)
(0.885092 -0.00326777 4.15206e-22)
(0.855092 -0.00419808 7.52983e-23)
(0.820419 -0.00536795 1.90568e-22)
(0.780601 -0.00682287 2.60458e-22)
(0.734966 -0.00862777 -7.52997e-24)
(0.683204 -0.010786 -1.84055e-22)
(0.624718 -0.0131424 -2.80054e-23)
(1.00013 -0.000347316 0)
(1.00271 -0.00102806 0)
(1.00732 -0.00166723 0)
(1.01346 -0.00227247 0)
(1.02068 -0.00284208 0)
(1.02861 -0.00336765 0)
(1.03696 -0.00384043 0)
(1.04546 -0.00425428 0)
(1.05389 -0.00460643 0)
(1.06208 -0.00489739 0)
(1.06992 -0.00513054 0)
(1.07731 -0.00531113 0)
(1.0842 -0.00544596 0)
(1.09058 -0.00554063 0)
(1.09647 -0.005612 0)
(1.00013 -0.00102594 0)
(1.00268 -0.0030292 0)
(1.00726 -0.00491412 0)
(1.01338 -0.00670319 0)
(1.02057 -0.00839001 0)
(1.02851 -0.00994965 0)
(1.03687 -0.0113559 0)
(1.04541 -0.0125897 0)
(1.0539 -0.0136419 0)
(1.06217 -0.0145129 0)
(1.07009 -0.0152122 0)
(1.07757 -0.0157548 0)
(1.08456 -0.0161605 0)
(1.09103 -0.0164454 0)
(1.09701 -0.0166576 0)
(1.00013 -0.00166817 0)
(1.00264 -0.0049163 0)
(1.00716 -0.00798214 0)
(1.01321 -0.0109034 0)
(1.02037 -0.0136677 0)
(1.0283 -0.0162336 0)
(1.0367 -0.0185569 0)
(1.04531 -0.0206038 0)
(1.0539 -0.0223561 0)
(1.06231 -0.0238121 0)
(1.07039 -0.024985 0)
(1.07803 -0.0258981 0)
(1.0852 -0.026583 0)
(1.09184 -0.0270657 0)
(1.09802 -0.0274264 0)
(1.00012 -0.00226855 0)
(1.00257 -0.00668251 0)
(1.00701 -0.0108641 0)
(1.01297 -0.0148684 0)
(1.02006 -0.0186772 0)
(1.02796 -0.0222328 0)
(1.03639 -0.0254709 0)
(1.0451 -0.02834 0)
(1.05384 -0.0308095 0)
(1.06243 -0.0328719 0)
(1.07073 -0.0345414 0)
(1.07861 -0.0358472 0)
(1.08603 -0.0368316 0)
(1.09291 -0.0375295 0)
(1.09937 -0.0380554 0)
(1.00012 -0.00282495 0)
(1.00249 -0.00832264 0)
(1.0068 -0.0135533 0)
(1.01263 -0.0185924 0)
(1.01962 -0.0234171 0)
(1.02747 -0.0279528 0)
(1.03593 -0.0321137 0)
(1.04473 -0.0358266 0)
(1.05364 -0.0390441 0)