/*--------------------------------*- C++ -*----------------------------------*\
  =========                 |
  \\      /  F ield         | OpenFOAM: The Open Source CFD Toolbox
   \\    /   O peration     | Website:  https://openfoam.org
    \\  /    A nd           | Version:  7
     \\/     M anipulation  |
\*---------------------------------------------------------------------------*/
FoamFile
{
    version     2.0;
    format      ascii;
    class       volScalarField;
    location    "70";
    object      p;
}
// * * * * * * * * * * * * * * * * * * * * * * * * * * * * * * * * * * * * * //

dimensions      [0 2 -2 0 0 0 0];

internalField   nonuniform List<scalar> 
8500
(
-0.250321
-0.252276
-0.253193
-0.25393
-0.254558
-0.255098
-0.255575
-0.256004
-0.256358
-0.25669
-0.250433
-0.252372
-0.253276
-0.254
-0.254611
-0.255131
-0.255583
-0.255982
-0.256298
-0.256574
-0.250737
-0.252638
-0.253519
-0.254216
-0.254797
-0.255283
-0.255694
-0.256045
-0.256303
-0.256486
-0.251228
-0.253073
-0.253917
-0.254575
-0.255112
-0.255548
-0.255901
-0.256186
-0.256365
-0.256413
-0.251899
-0.25367
-0.254465
-0.25507
-0.255549
-0.25592
-0.256196
-0.256394
-0.256475
-0.256329
-0.252743
-0.254423
-0.255157
-0.255695
-0.2561
-0.25639
-0.256569
-0.256655
-0.25662
-0.2562
-0.253749
-0.255324
-0.255985
-0.256442
-0.256758
-0.256949
-0.25701
-0.256955
-0.256791
-0.255985
-0.254907
-0.256365
-0.25694
-0.257302
-0.257512
-0.257586
-0.257507
-0.257278
-0.25698
-0.255627
-0.25621
-0.257538
-0.258015
-0.258267
-0.258355
-0.258295
-0.258053
-0.257609
-0.257189
-0.255034
-0.257648
-0.258837
-0.259203
-0.259328
-0.259277
-0.259067
-0.258644
-0.257943
-0.257458
-0.254117
-0.259216
-0.260256
-0.260497
-0.260479
-0.260273
-0.259897
-0.259279
-0.25827
-0.257836
-0.253095
-0.260911
-0.261793
-0.261893
-0.261715
-0.261336
-0.26078
-0.259958
-0.258583
-0.257898
-0.252184
-0.262732
-0.263445
-0.263388
-0.26303
-0.262461
-0.261712
-0.260688
-0.259075
-0.257915
-0.25097
-0.264685
-0.265217
-0.264983
-0.264421
-0.263642
-0.262686
-0.261433
-0.259606
-0.258056
-0.249499
-0.266778
-0.267115
-0.26668
-0.265889
-0.264876
-0.263699
-0.262213
-0.260164
-0.258268
-0.247913
-0.269027
-0.269149
-0.268486
-0.267435
-0.26616
-0.26474
-0.263013
-0.260777
-0.258462
-0.246411
-0.271453
-0.271338
-0.270413
-0.269068
-0.267496
-0.265805
-0.263811
-0.261456
-0.258486
-0.245156
-0.274085
-0.273705
-0.272478
-0.270802
-0.268894
-0.266898
-0.264594
-0.262216
-0.258111
-0.244055
-0.276958
-0.276266
-0.274716
-0.272658
-0.270374
-0.268035
-0.26538
-0.263106
-0.257276
-0.243402
-0.280122
-0.279069
-0.27715
-0.27467
-0.271967
-0.269248
-0.266207
-0.264093
-0.256493
-0.247093
-0.283627
-0.282153
-0.279819
-0.276877
-0.273717
-0.270581
-0.26712
-0.264922
-0.256317
-0.261195
-0.287523
-0.285569
-0.282771
-0.279329
-0.275677
-0.272084
-0.268174
-0.26549
-0.256823
-0.260462
-0.291874
-0.289362
-0.286056
-0.28208
-0.277906
-0.27381
-0.26941
-0.265903
-0.257351
-0.257728
-0.296741
-0.293585
-0.289727
-0.285185
-0.280462
-0.275809
-0.270836
-0.266331
-0.257649
-0.255008
-0.302182
-0.298287
-0.293835
-0.288701
-0.283395
-0.278116
-0.272448
-0.266812
-0.257656
-0.252165
-0.308248
-0.303518
-0.298433
-0.292677
-0.286744
-0.280748
-0.274231
-0.267318
-0.25731
-0.249335
-0.314983
-0.30932
-0.303567
-0.297157
-0.29053
-0.283701
-0.276153
-0.267786
-0.256598
-0.246452
-0.322419
-0.315729
-0.309278
-0.302172
-0.294762
-0.28695
-0.278151
-0.268129
-0.255512
-0.243453
-0.330576
-0.322774
-0.315596
-0.307738
-0.299423
-0.290441
-0.280133
-0.268256
-0.254044
-0.240266
-0.339455
-0.330467
-0.322535
-0.31385
-0.304477
-0.294087
-0.281983
-0.268076
-0.25218
-0.236826
-0.349035
-0.338805
-0.33009
-0.320473
-0.309852
-0.297762
-0.28358
-0.267509
-0.2499
-0.233075
-0.35927
-0.34776
-0.338223
-0.327545
-0.315433
-0.301315
-0.284797
-0.266482
-0.247174
-0.22896
-0.370085
-0.357279
-0.346867
-0.334964
-0.321064
-0.304573
-0.285516
-0.264928
-0.243968
-0.22443
-0.381371
-0.367272
-0.355915
-0.342584
-0.326547
-0.30736
-0.285624
-0.262782
-0.240237
-0.219435
-0.392981
-0.377611
-0.365217
-0.350211
-0.331661
-0.309504
-0.285015
-0.259978
-0.235931
-0.213925
-0.404728
-0.388127
-0.374582
-0.357608
-0.336167
-0.310837
-0.283588
-0.25645
-0.230997
-0.207851
-0.416388
-0.39861
-0.383775
-0.364498
-0.339827
-0.311203
-0.281246
-0.252131
-0.225376
-0.201162
-0.427698
-0.408809
-0.392518
-0.370584
-0.342409
-0.310452
-0.277896
-0.246951
-0.21901
-0.193812
-0.438361
-0.418439
-0.400498
-0.37556
-0.343694
-0.30845
-0.273447
-0.240841
-0.211838
-0.185759
-0.448052
-0.427182
-0.407377
-0.379126
-0.343478
-0.305068
-0.267814
-0.233732
-0.203804
-0.176965
-0.456425
-0.4347
-0.412802
-0.380996
-0.341578
-0.300194
-0.260916
-0.225561
-0.194855
-0.167395
-0.463127
-0.44064
-0.416427
-0.380908
-0.337831
-0.293723
-0.252679
-0.216268
-0.184946
-0.157024
-0.4678
-0.444647
-0.417919
-0.37863
-0.332097
-0.285567
-0.243035
-0.205795
-0.174039
-0.145837
-0.470101
-0.446374
-0.416975
-0.373962
-0.324259
-0.275648
-0.231925
-0.194094
-0.162101
-0.133821
-0.469703
-0.445492
-0.413329
-0.366741
-0.314226
-0.263909
-0.219302
-0.181122
-0.149087
-0.120905
-0.466313
-0.441704
-0.406763
-0.356846
-0.301934
-0.250309
-0.20514
-0.166854
-0.134948
-0.106914
-0.459675
-0.434756
-0.397105
-0.34419
-0.287344
-0.234829
-0.189424
-0.151289
-0.119676
-0.0916536
-0.449578
-0.424443
-0.384233
-0.328729
-0.270444
-0.217462
-0.172144
-0.134433
-0.10334
-0.0752668
-0.435863
-0.410618
-0.368072
-0.310452
-0.251241
-0.198205
-0.153295
-0.116318
-0.0859471
-0.0584269
-0.418428
-0.393192
-0.348599
-0.289387
-0.229766
-0.177073
-0.132939
-0.0970859
-0.0674104
-0.041015
-0.397226
-0.372133
-0.325837
-0.265605
-0.206082
-0.154134
-0.111293
-0.0765952
-0.0478914
-0.0228994
-0.372268
-0.347464
-0.299863
-0.239209
-0.180297
-0.129605
-0.088201
-0.0549618
-0.0274856
-0.00408332
-0.343622
-0.319281
-0.270839
-0.210292
-0.152506
-0.103468
-0.0638126
-0.0322747
-0.00626784
0.015354
-0.311408
-0.287759
-0.239024
-0.178854
-0.122818
-0.0758277
-0.0382339
-0.00862933
0.0156859
0.0353074
-0.275811
-0.253131
-0.204544
-0.145063
-0.0913669
-0.0468222
-0.0115858
0.0158752
0.0382984
0.0556922
-0.237061
-0.215629
-0.166846
-0.109703
-0.0584139
-0.0166079
0.0160031
0.0411363
0.0614887
0.0764169
-0.195379
-0.175402
-0.126878
-0.0725711
-0.0241537
0.0146437
0.0444037
0.0670595
0.0851196
0.0971434
-0.151017
-0.132405
-0.0854232
-0.033926
0.0112291
0.0467615
0.0735038
0.0935668
0.108919
0.117061
-0.104395
-0.0873195
-0.0424777
0.0059387
0.0475247
0.079576
0.103199
0.120562
0.132563
0.13561
-0.0559403
-0.0404882
0.00175847
0.0467373
0.0845004
0.112904
0.133333
0.147817
0.155965
0.154526
-0.00597207
0.00764777
0.0469744
0.0881846
0.121913
0.14654
0.163659
0.174931
0.179091
0.17862
0.0450893
0.0566789
0.0928178
0.129987
0.159516
0.180261
0.193914
0.201769
0.202791
0.202867
0.0968051
0.106201
0.138924
0.171844
0.197052
0.21384
0.223925
0.228398
0.226751
0.225888
0.148732
0.155806
0.184926
0.213449
0.234264
0.247047
0.253519
0.254694
0.250543
0.247999
0.200426
0.205081
0.230461
0.254497
0.270892
0.279663
0.282527
0.280482
0.273834
0.26919
0.251443
0.253618
0.275167
0.294686
0.306678
0.31147
0.310771
0.305583
0.296436
0.289491
0.301347
0.301011
0.318695
0.33372
0.341372
0.342256
0.33807
0.329823
0.318196
0.308863
0.349709
0.346867
0.360703
0.371309
0.374731
0.371815
0.364247
0.353043
0.338988
0.327244
0.396116
0.390807
0.400864
0.407177
0.406519
0.399947
0.389131
0.375095
0.358693
0.344562
0.440174
0.432467
0.438864
0.441061
0.436512
0.426462
0.41256
0.395838
0.377197
0.360741
0.481507
0.471504
0.474408
0.47271
0.464498
0.45118
0.43438
0.415143
0.394393
0.375705
0.519765
0.5076
0.507223
0.501893
0.49028
0.473932
0.454448
0.432886
0.410179
0.389384
0.554624
0.540458
0.537056
0.528396
0.513676
0.494563
0.472633
0.448955
0.42446
0.401712
0.585791
0.569812
0.563676
0.552023
0.534521
0.512932
0.488815
0.463249
0.437151
0.412627
0.613004
0.595424
0.58688
0.572602
0.552667
0.528915
0.502886
0.475674
0.448174
0.422078
0.636034
0.617086
0.60649
0.589983
0.567985
0.542402
0.514755
0.486151
0.457463
0.430019
0.654689
0.634624
0.622356
0.604039
0.580369
0.553301
0.524343
0.494613
0.46496
0.436414
0.668812
0.647897
0.634358
0.614667
0.58973
0.561536
0.531587
0.501004
0.47062
0.441232
0.678286
0.656798
0.642404
0.621789
0.596001
0.567053
0.536438
0.505284
0.474409
0.444453
0.683032
0.661256
0.646432
0.625354
0.59914
0.569813
0.538864
0.507424
0.476302
0.44606
0.683009
0.661234
0.646412
0.625336
0.599123
0.569798
0.538849
0.50741
0.476289
0.446048
0.678218
0.656732
0.642343
0.621734
0.59595
0.567006
0.536394
0.505243
0.47437
0.444416
0.668699
0.647788
0.634257
0.614574
0.589644
0.561457
0.531513
0.500935
0.470555
0.441172
0.654529
0.63447
0.622214
0.603909
0.580249
0.55319
0.52424
0.494516
0.464869
0.43633
0.635828
0.616888
0.606307
0.589816
0.567831
0.542259
0.514623
0.486027
0.457346
0.429911
0.612752
0.59518
0.586655
0.572397
0.552478
0.52874
0.502724
0.475521
0.448031
0.421945
0.585492
0.569523
0.563409
0.551779
0.534297
0.512725
0.488622
0.463068
0.436981
0.41247
0.554277
0.540123
0.536747
0.528113
0.513417
0.494322
0.47241
0.448747
0.424264
0.40153
0.519369
0.507218
0.506871
0.501571
0.489984
0.473658
0.454194
0.432648
0.409956
0.389178
0.481062
0.471076
0.474013
0.472349
0.464166
0.450873
0.434095
0.414876
0.394143
0.375473
0.439679
0.43199
0.438424
0.440659
0.436142
0.426121
0.412243
0.395543
0.37692
0.360483
0.395571
0.390281
0.400379
0.406734
0.406112
0.399572
0.388783
0.37477
0.358388
0.344279
0.349111
0.346292
0.360173
0.370824
0.374286
0.371405
0.363866
0.352689
0.338655
0.326935
0.300697
0.300384
0.318118
0.333192
0.340889
0.34181
0.337657
0.329438
0.317835
0.308528
0.25074
0.25294
0.274542
0.294116
0.306156
0.310988
0.310325
0.305167
0.296046
0.28913
0.199669
0.204351
0.229787
0.253883
0.270329
0.279145
0.282048
0.280036
0.273415
0.268801
0.147921
0.155022
0.184204
0.21279
0.233662
0.246493
0.253006
0.254217
0.250095
0.247583
0.0959378
0.105363
0.138152
0.17114
0.196409
0.213248
0.223378
0.22789
0.226273
0.225442
0.044166
0.0557862
0.0919952
0.129237
0.158831
0.179631
0.193332
0.201229
0.202284
0.20239
-0.00695188
0.00669997
0.0461007
0.0873888
0.121187
0.145872
0.163042
0.174359
0.178555
0.178113
-0.0569768
-0.0414915
0.00083315
0.0458948
0.0837313
0.112197
0.132681
0.147212
0.155401
0.153987
-0.105488
-0.0883787
-0.0434552
0.00504925
0.0467131
0.0788304
0.102511
0.119925
0.131971
0.135049
-0.152166
-0.13352
-0.0864536
-0.0348623
0.0103748
0.0459769
0.0727792
0.0928955
0.108296
0.116477
-0.196584
-0.176572
-0.127962
-0.0735538
-0.0250507
0.01382
0.0436433
0.066355
0.0844671
0.096535
-0.238322
-0.216855
-0.167982
-0.110731
-0.0593539
-0.0174709
0.0152069
0.0403987
0.0608058
0.0757817
-0.277125
-0.25441
-0.205737
-0.146135
-0.0923506
-0.0477243
-0.012418
0.0151043
0.0375849
0.0550298
-0.312776
-0.289089
-0.240262
-0.179979
-0.123846
-0.0767684
-0.0391023
-0.00943369
0.0149416
0.0346174
-0.345039
-0.320662
-0.272124
-0.211467
-0.153577
-0.104446
-0.0647178
-0.0331127
-0.00704296
0.0146359
-0.373734
-0.348894
-0.301198
-0.24043
-0.18141
-0.13062
-0.0891436
-0.0558335
-0.0282916
-0.00482993
-0.398738
-0.37361
-0.32722
-0.26687
-0.207237
-0.155183
-0.112273
-0.0775001
-0.0487284
-0.023675
-0.419983
-0.394714
-0.350026
-0.290696
-0.230963
-0.178168
-0.133945
-0.0980234
-0.0682783
-0.0418199
-0.437457
-0.41218
-0.369542
-0.311803
-0.252478
-0.199342
-0.154338
-0.117284
-0.086846
-0.059261
-0.451208
-0.426041
-0.385743
-0.33012
-0.271719
-0.218634
-0.173223
-0.135432
-0.10427
-0.0761289
-0.461336
-0.436387
-0.398652
-0.345619
-0.288656
-0.236036
-0.190538
-0.152321
-0.120635
-0.0925423
-0.468002
-0.443364
-0.408342
-0.35831
-0.30328
-0.251549
-0.206287
-0.167919
-0.135939
-0.107835
-0.471413
-0.447175
-0.414937
-0.368238
-0.315606
-0.265181
-0.220482
-0.182219
-0.15011
-0.12186
-0.471828
-0.448074
-0.418607
-0.375488
-0.32567
-0.276953
-0.233136
-0.195223
-0.163157
-0.134808
-0.469539
-0.446361
-0.419571
-0.380182
-0.333537
-0.286901
-0.244277
-0.206956
-0.175127
-0.146855
-0.464873
-0.442361
-0.418093
-0.382482
-0.339297
-0.295086
-0.253951
-0.217459
-0.186065
-0.158074
-0.458173
-0.436423
-0.414478
-0.382588
-0.343068
-0.301584
-0.262217
-0.226783
-0.196006
-0.168479
-0.449797
-0.428902
-0.409056
-0.380731
-0.344988
-0.306483
-0.269142
-0.234984
-0.204988
-0.178083
-0.440099
-0.420152
-0.402176
-0.377174
-0.345221
-0.309886
-0.274801
-0.242122
-0.213055
-0.186913
-0.429425
-0.410512
-0.39419
-0.372201
-0.343949
-0.311909
-0.279275
-0.248261
-0.22026
-0.195003
-0.418101
-0.400298
-0.385437
-0.366113
-0.341376
-0.312676
-0.282649
-0.25347
-0.22666
-0.202391
-0.406423
-0.389798
-0.37623
-0.359217
-0.33772
-0.312325
-0.285012
-0.257817
-0.232314
-0.20912
-0.394655
-0.379262
-0.366847
-0.351811
-0.333214
-0.311002
-0.286458
-0.261372
-0.237283
-0.215237
-0.383024
-0.368902
-0.357526
-0.344169
-0.328096
-0.308865
-0.287084
-0.264203
-0.241624
-0.220791
-0.371715
-0.358887
-0.348458
-0.336533
-0.322604
-0.306079
-0.286989
-0.266374
-0.245391
-0.225832
-0.360876
-0.349345
-0.339792
-0.329094
-0.316961
-0.302819
-0.286281
-0.267952
-0.248634
-0.230412
-0.350617
-0.340366
-0.331635
-0.322002
-0.311363
-0.299261
-0.285071
-0.269001
-0.251396
-0.234579
-0.341013
-0.332006
-0.324058
-0.315356
-0.30597
-0.295575
-0.283478
-0.269588
-0.253715
-0.238385
-0.332112
-0.324291
-0.317096
-0.309222
-0.300896
-0.291916
-0.281627
-0.269786
-0.255617
-0.241884
-0.323935
-0.317227
-0.310757
-0.303633
-0.296213
-0.288408
-0.279641
-0.269674
-0.257124
-0.245133
-0.31648
-0.3108
-0.305026
-0.298596
-0.29196
-0.285142
-0.277637
-0.269344
-0.258251
-0.248195
-0.30973
-0.304983
-0.299875
-0.294097
-0.288153
-0.282172
-0.275707
-0.268887
-0.259004
-0.251146
-0.303654
-0.29974
-0.295263
-0.290104
-0.284786
-0.279524
-0.273916
-0.268391
-0.259393
-0.254048
-0.298208
-0.29503
-0.291145
-0.286576
-0.281839
-0.277205
-0.272299
-0.267921
-0.259432
-0.256969
-0.29334
-0.290803
-0.287468
-0.283461
-0.279273
-0.275198
-0.270872
-0.267506
-0.259183
-0.259772
-0.288994
-0.287009
-0.284181
-0.280707
-0.277041
-0.273471
-0.269641
-0.267112
-0.258705
-0.262603
-0.285106
-0.283596
-0.28123
-0.278257
-0.275085
-0.271975
-0.268598
-0.266569
-0.258248
-0.263445
-0.281615
-0.280515
-0.278564
-0.276055
-0.273344
-0.270656
-0.267706
-0.265769
-0.258474
-0.249469
-0.278461
-0.277718
-0.276137
-0.274052
-0.271763
-0.269462
-0.266904
-0.264814
-0.259298
-0.245821
-0.275597
-0.275158
-0.273905
-0.272203
-0.270298
-0.268346
-0.266148
-0.263958
-0.26017
-0.246505
-0.272972
-0.272795
-0.271839
-0.270476
-0.268913
-0.267274
-0.265394
-0.263232
-0.260577
-0.24764
-0.270546
-0.270601
-0.269909
-0.268844
-0.267585
-0.266225
-0.264619
-0.262583
-0.260575
-0.248923
-0.268288
-0.268554
-0.268091
-0.267292
-0.266302
-0.265192
-0.263833
-0.261991
-0.260387
-0.250444
-0.266175
-0.266634
-0.266374
-0.265809
-0.265058
-0.264176
-0.263051
-0.261443
-0.260162
-0.252033
-0.26419
-0.264829
-0.264749
-0.264391
-0.263855
-0.263184
-0.262285
-0.260918
-0.259979
-0.253493
-0.262322
-0.263131
-0.263211
-0.263037
-0.262695
-0.262219
-0.26153
-0.260413
-0.259871
-0.254686
-0.260567
-0.261537
-0.261759
-0.261748
-0.261581
-0.261286
-0.2608
-0.260008
-0.259719
-0.255557
-0.258925
-0.260046
-0.260396
-0.26053
-0.260519
-0.260388
-0.260095
-0.259594
-0.259339
-0.256329
-0.257397
-0.258663
-0.259126
-0.259387
-0.259514
-0.259532
-0.259413
-0.259155
-0.258972
-0.257124
-0.255992
-0.257392
-0.257955
-0.258327
-0.258575
-0.258722
-0.258758
-0.258697
-0.258623
-0.257568
-0.254717
-0.256241
-0.256892
-0.25736
-0.257711
-0.257968
-0.258134
-0.25823
-0.258269
-0.257738
-0.253583
-0.25522
-0.255946
-0.256493
-0.25693
-0.257278
-0.25755
-0.257768
-0.257913
-0.257736
-0.252602
-0.254336
-0.255125
-0.255738
-0.256244
-0.256665
-0.257019
-0.257328
-0.257562
-0.257621
-0.251784
-0.2536
-0.254439
-0.255104
-0.255662
-0.256139
-0.256554
-0.256928
-0.257229
-0.257441
-0.251139
-0.25302
-0.253897
-0.254599
-0.255196
-0.255711
-0.256167
-0.256583
-0.25693
-0.257233
-0.250676
-0.252602
-0.253505
-0.254232
-0.254853
-0.25539
-0.25587
-0.256308
-0.256678
-0.257027
-0.250402
-0.252354
-0.253269
-0.254008
-0.254638
-0.255184
-0.255671
-0.256113
-0.256485
-0.256842
-0.258172
-0.257216
-0.258589
-0.257995
-0.258247
-0.257459
-0.256625
-0.255009
-0.252928
-0.250047
-0.246325
-0.241413
-0.23466
-0.225937
-0.21442
-0.200826
-0.18482
-0.168882
-0.150414
-0.13296
-0.111657
-0.0919066
-0.0723824
-0.0577825
-0.0473203
-0.0332226
-0.0243857
-0.0122455
-0.00425761
0.00188247
-0.258109
-0.257013
-0.258357
-0.257692
-0.257907
-0.257125
-0.256381
-0.254984
-0.253281
-0.250944
-0.24788
-0.243622
-0.237327
-0.228616
-0.216459
-0.201534
-0.183707
-0.165834
-0.146089
-0.128358
-0.107955
-0.0907053
-0.073283
-0.0602719
-0.0511979
-0.0359442
-0.0258993
-0.0125126
-0.00251389
0.0031033
-0.258171
-0.256842
-0.258186
-0.257438
-0.257615
-0.25684
-0.256181
-0.255
-0.253668
-0.251867
-0.249455
-0.245847
-0.240015
-0.231314
-0.218532
-0.202297
-0.182678
-0.162887
-0.141844
-0.123881
-0.104274
-0.0895209
-0.074212
-0.0627301
-0.0549399
-0.0385229
-0.0273134
-0.0127146
-0.000784377
0.00429844
-0.258353
-0.2567
-0.258074
-0.25723
-0.257369
-0.256598
-0.256019
-0.255046
-0.254075
-0.252798
-0.251026
-0.248059
-0.24269
-0.234003
-0.220615
-0.203109
-0.181743
-0.160072
-0.137733
-0.119411
-0.100668
-0.088379
-0.0751697
-0.0651432
-0.0585153
-0.0409373
-0.0286139
-0.0128442
0.000911421
0.00544931
-0.258647
-0.25658
-0.258014
-0.257066
-0.257164
-0.256396
-0.255889
-0.255114
-0.254487
-0.253719
-0.252569
-0.250229
-0.245319
-0.236652
-0.222687
-0.203959
-0.180913
-0.15742
-0.133804
-0.115106
-0.0971902
-0.0873042
-0.0761549
-0.0674989
-0.0618988
-0.0431739
-0.0297921
-0.0128987
0.00255353
0.00653858
-0.259043
-0.256475
-0.257998
-0.256941
-0.256996
-0.256226
-0.255783
-0.255193
-0.254892
-0.254609
-0.254059
-0.252328
-0.247869
-0.239232
-0.224725
-0.204839
-0.180194
-0.154958
-0.130101
-0.111031
-0.0938875
-0.0862852
-0.0771971
-0.069786
-0.0650676
-0.0452256
-0.0308443
-0.0128796
0.00412222
0.00755088
-0.259529
-0.256375
-0.258015
-0.256846
-0.256857
-0.256082
-0.255692
-0.255272
-0.255275
-0.255453
-0.255475
-0.254329
-0.250309
-0.241715
-0.226709
-0.205737
-0.179591
-0.15271
-0.126663
-0.10723
-0.0908012
-0.0853736
-0.0782603
-0.0719942
-0.068012
-0.0470918
-0.0317718
-0.0127927
0.00559875
0.00847333
-0.260095
-0.25627
-0.258054
-0.256777
-0.256738
-0.255957
-0.255609
-0.255342
-0.255625
-0.256233
-0.256796
-0.256208
-0.252612
-0.244077
-0.228618
-0.206644
-0.179108
-0.150691
-0.123519
-0.103739
-0.0879765
-0.0845734
-0.07934
-0.0741139
-0.0707439
-0.0487777
-0.0325798
-0.0126471
0.00696604
0.00929595
-0.26075
-0.256146
-0.258103
-0.256725
-0.256632
-0.255842
-0.255526
-0.255394
-0.25593
-0.256934
-0.258003
-0.257943
-0.254755
-0.246294
-0.230434
-0.20755
-0.178742
-0.148917
-0.120693
-0.100587
-0.0854373
-0.0838939
-0.0804305
-0.0761352
-0.0732674
-0.0502926
-0.0332771
-0.0124547
0.00820925
0.0100118
-0.261478
-0.255991
-0.258156
-0.256677
-0.256532
-0.25573
-0.255436
-0.255421
-0.25618
-0.257544
-0.259079
-0.259515
-0.256715
-0.248348
-0.232143
-0.208443
-0.178492
-0.147398
-0.118215
-0.0977931
-0.0831862
-0.0833461
-0.0815237
-0.0780491
-0.0755752
-0.0516481
-0.0338747
-0.0122294
0.00931622
0.0106171
-0.262029
-0.255891
-0.258186
-0.256623
-0.25643
-0.255614
-0.255332
-0.255416
-0.256371
-0.258052
-0.260009
-0.260904
-0.258468
-0.250211
-0.233726
-0.209342
-0.178372
-0.146142
-0.116087
-0.0953589
-0.0812438
-0.0829287
-0.0826102
-0.0798475
-0.0776717
-0.0528565
-0.0343852
-0.0119859
0.0102778
0.0111108
-0.262484
-0.255901
-0.258104
-0.2566
-0.256307
-0.255489
-0.255209
-0.255373
-0.256488
-0.258451
-0.260785
-0.262104
-0.260012
-0.251884
-0.235181
-0.210218
-0.178367
-0.145147
-0.114312
-0.0933021
-0.0796125
-0.0826359
-0.0836802
-0.081522
-0.0795572
-0.053931
-0.0348221
-0.0117394
0.0110881
0.0114948
-0.262942
-0.255888
-0.257995
-0.256546
-0.256165
-0.255347
-0.255062
-0.25529
-0.256536
-0.258736
-0.2614
-0.263102
-0.261332
-0.253353
-0.236499
-0.211068
-0.178477
-0.144411
-0.112889
-0.0916187
-0.0782873
-0.0824592
-0.0847239
-0.083065
-0.081238
-0.0548854
-0.0351983
-0.0115042
0.0117441
0.0117728
-0.263378
-0.255863
-0.257846
-0.256452
-0.255996
-0.25518
-0.254887
-0.255162
-0.256511
-0.258905
-0.261849
-0.263891
-0.262421
-0.25461
-0.237673
-0.211889
-0.178703
-0.14393
-0.111811
-0.0902992
-0.077259
-0.0823877
-0.0857307
-0.0844695
-0.0827211
-0.0557325
-0.0355264
-0.0112937
0.0122463
0.0119508
-0.26375
-0.255847
-0.257636
-0.256307
-0.255787
-0.254979
-0.254677
-0.254987
-0.25641
-0.258956
-0.262129
-0.264466
-0.263275
-0.255651
-0.238701
-0.212679
-0.17904
-0.143697
-0.111068
-0.0893305
-0.076506
-0.0824082
-0.0866907
-0.0857334
-0.0840138
-0.0564839
-0.0358169
-0.0111191
0.0125978
0.0120359
-0.264002
-0.255828
-0.257347
-0.256095
-0.255524
-0.254736
-0.254428
-0.254762
-0.256233
-0.258889
-0.26224
-0.264829
-0.263892
-0.256474
-0.23958
-0.213432
-0.179478
-0.143696
-0.110641
-0.0886933
-0.0759979
-0.0825065
-0.0875959
-0.0868583
-0.0851242
-0.0571498
-0.0360789
-0.0109894
0.0128043
0.0120363
-0.264008
-0.255765
-0.256975
-0.255799
-0.255197
-0.254443
-0.254136
-0.254485
-0.255979
-0.258707
-0.262186
-0.264984
-0.264275
-0.257079
-0.240308
-0.214141
-0.180004
-0.143909
-0.11051
-0.0883647
-0.0757554
-0.0826677
-0.0884437
-0.0878438
-0.0860616
-0.0577422
-0.036323
-0.0109143
0.0128726
0.0119603
-0.263675
-0.255649
-0.256526
-0.255414
-0.254799
-0.254092
-0.25379
-0.254144
-0.255638
-0.258398
-0.261957
-0.264911
-0.264418
-0.257476
-0.240911
-0.214852
-0.180672
-0.144383
-0.110699
-0.0883473
-0.0756992
-0.0828739
-0.0892231
-0.0886868
-0.086839
-0.0582817
-0.0365673
-0.0109083
0.0128082
0.0118165
-0.263294
-0.255422
-0.255925
-0.254861
-0.254258
-0.253626
-0.253345
-0.253706
-0.255182
-0.257933
-0.26152
-0.264567
-0.264305
-0.257674
-0.241433
-0.215634
-0.181557
-0.145185
-0.111251
-0.0886602
-0.0758868
-0.0831129
-0.0899031
-0.0893947
-0.0874686
-0.0587782
-0.0368152
-0.010972
0.0126217
0.0116136
-0.260844
-0.254228
-0.254921
-0.253937
-0.253425
-0.252946
-0.25276
-0.253187
-0.254677
-0.257427
-0.261019
-0.264131
-0.264015
-0.257604
-0.241615
-0.216037
-0.182095
-0.14574
-0.111717
-0.0890196
-0.0762239
-0.0834396
-0.0905737
-0.0900345
-0.0879328
-0.0591436
-0.0369749
-0.011029
0.0123566
0.0113639
-0.248894
-0.251677
-0.25375
-0.252903
-0.252496
-0.252186
-0.252122
-0.252662
-0.254257
-0.257102
-0.260767
-0.263932
-0.263753
-0.257213
-0.241051
-0.215311
-0.181334
-0.145069
-0.1113
-0.0888887
-0.0765647
-0.0839895
-0.0915089
-0.0908253
-0.0883065
-0.0593537
-0.0369761
-0.011016
0.011987
0.0110168
-0.243908
-0.249062
-0.251527
-0.250815
-0.250638
-0.250665
-0.25087
-0.251626
-0.253356
-0.256235
-0.259772
-0.262642
-0.262105
-0.255223
-0.238886
-0.213237
-0.179679
-0.144056
-0.111045
-0.0892729
-0.0775503
-0.0848584
-0.0923828
-0.0912627
-0.0881666
-0.0592964
-0.0368754
-0.0110916
0.0113261
0.0104872
-0.240646
-0.245672
-0.248118
-0.247804
-0.248024
-0.248504
-0.249076
-0.250114
-0.252002
-0.254885
-0.25822
-0.260714
-0.259694
-0.252423
-0.235982
-0.210606
-0.177726
-0.143025
-0.111002
-0.0899901
-0.0788591
-0.0858112
-0.0930822
-0.0913797
-0.0876412
-0.0590691
-0.0367253
-0.0112778
0.0104619
0.00985824
-0.237086
-0.241097
-0.243352
-0.243742
-0.244551
-0.245581
-0.246604
-0.247974
-0.250038
-0.252908
-0.256003
-0.258083
-0.256582
-0.248985
-0.232586
-0.207693
-0.175735
-0.142177
-0.11129
-0.0910596
-0.0804302
-0.0867411
-0.0935818
-0.0912196
-0.0868063
-0.0587498
-0.0365715
-0.0116035
0.00940363
0.00914752
-0.231793
-0.235294
-0.237343
-0.238571
-0.240124
-0.241781
-0.24332
-0.245065
-0.247317
-0.250165
-0.252999
-0.254649
-0.252699
-0.24487
-0.228685
-0.204502
-0.173717
-0.14152
-0.111907
-0.0924579
-0.0822211
-0.0876214
-0.0938426
-0.0907707
-0.0856701
-0.0583478
-0.0364244
-0.0120703
0.00816755
0.0083668
-0.224505
-0.228385
-0.230362
-0.232396
-0.234764
-0.23709
-0.239174
-0.241314
-0.243762
-0.246579
-0.249145
-0.250378
-0.248036
-0.240088
-0.224299
-0.201051
-0.17167
-0.141027
-0.112805
-0.0941229
-0.0841689
-0.0884212
-0.0938407
-0.0900376
-0.0842567
-0.0578724
-0.0362916
-0.01267
0.00677799
0.00752925
-0.215734
-0.220557
-0.222711
-0.225442
-0.228607
-0.231603
-0.234225
-0.236753
-0.239388
-0.242165
-0.244472
-0.245321
-0.242666
-0.234723
-0.219502
-0.197386
-0.169604
-0.140662
-0.11392
-0.0959757
-0.0862009
-0.0891185
-0.0935758
-0.0890513
-0.0826136
-0.0573396
-0.0361823
-0.0133885
0.00526514
0.00664976
-0.20598
-0.212022
-0.214643
-0.217966
-0.221845
-0.225479
-0.228611
-0.231497
-0.2343
-0.23703
-0.239095
-0.239606
-0.23673
-0.22891
-0.214402
-0.193569
-0.167522
-0.140378
-0.11517
-0.0979286
-0.0882438
-0.0897062
-0.0930716
-0.0878615
-0.080803
-0.0567668
-0.0361039
-0.0142062
0.00366347
0.00574384
-0.195686
-0.203006
-0.20633
-0.21018
-0.214665
-0.218887
-0.222493
-0.225703
-0.228651
-0.231333
-0.233183
-0.23341
-0.230403
-0.222808
-0.209115
-0.18966
-0.165425
-0.14012
-0.116466
-0.0998919
-0.0902303
-0.0901913
-0.092372
-0.0865297
-0.0788947
-0.0561718
-0.0360616
-0.0151
0.00200966
0.00482682
-0.185243
-0.193711
-0.19788
-0.202235
-0.207224
-0.211969
-0.216016
-0.219523
-0.222602
-0.225242
-0.226913
-0.226917
-0.223861
-0.216569
-0.203752
-0.185714
-0.163307
-0.139833
-0.117723
-0.101784
-0.0921033
-0.0905898
-0.0915333
-0.0851215
-0.076959
-0.0555712
-0.0360579
-0.0160445
0.000340126
0.00391327
-0.174898
-0.184294
-0.189359
-0.194223
-0.199634
-0.204837
-0.209293
-0.213078
-0.216284
-0.218899
-0.220439
-0.220282
-0.21725
-0.21032
-0.198405
-0.181774
-0.161162
-0.139471
-0.118867
-0.10354
-0.0938192
-0.0909209
-0.090615
-0.0836986
-0.0750594
-0.0549796
-0.0360927
-0.0170153
-0.00131138
0.00301638
-0.164797
-0.17489
-0.180819
-0.186202
-0.191979
-0.197571
-0.202402
-0.206456
-0.209795
-0.212411
-0.213869
-0.213629
-0.210675
-0.204149
-0.193135
-0.177872
-0.158987
-0.139
-0.119846
-0.105114
-0.0953497
-0.0912012
-0.0896704
-0.0823116
-0.073247
-0.0544091
-0.0361641
-0.0179898
-0.00291581
0.00214748
-0.155039
-0.165608
-0.172314
-0.178211
-0.184316
-0.190237
-0.195407
-0.19972
-0.203204
-0.205849
-0.20728
-0.207017
-0.204199
-0.19811
-0.187984
-0.174027
-0.156778
-0.138402
-0.120625
-0.106476
-0.0966794
-0.0914416
-0.088741
-0.0809964
-0.0715579
-0.0538686
-0.0362685
-0.0189491
-0.00445006
0.00131566
-0.14569
-0.15654
-0.163904
-0.170288
-0.176693
-0.182889
-0.188356
-0.192919
-0.196561
-0.199267
-0.200717
-0.200492
-0.197861
-0.192234
-0.182969
-0.170249
-0.154536
-0.137669
-0.121188
-0.107616
-0.0978041
-0.0916466
-0.0878544
-0.0797748
-0.0700134
-0.053364
-0.0364015
-0.0198778
-0.00589726
0.000527792
-0.136794
-0.147763
-0.155649
-0.162473
-0.169152
-0.175578
-0.1813
-0.186097
-0.189907
-0.192704
-0.194218
-0.194084
-0.191686
-0.186536
-0.178102
-0.166545
-0.152262
-0.136801
-0.121532
-0.108533
-0.098727
-0.0918153
-0.0870265
-0.078656
-0.0686227
-0.0528988
-0.0365582
-0.0207643
-0.00724629
-0.000211355
-0.128382
-0.139336
-0.147613
-0.154812
-0.161735
-0.168353
-0.174288
-0.1793
-0.183284
-0.186198
-0.187812
-0.187815
-0.185685
-0.181023
-0.173388
-0.16292
-0.149963
-0.135806
-0.121664
-0.109231
-0.0994565
-0.0919438
-0.0862639
-0.077641
-0.0673861
-0.0524745
-0.0367337
-0.0216005
-0.00849083
-0.000898762
-0.120479
-0.13131
-0.139853
-0.147355
-0.154485
-0.16126
-0.167371
-0.172574
-0.176733
-0.179785
-0.181531
-0.181707
-0.179874
-0.175703
-0.168832
-0.15938
-0.147647
-0.134695
-0.121595
-0.109723
-0.100004
-0.0920272
-0.0855674
-0.0767259
-0.0662983
-0.0520915
-0.0369228
-0.0223807
-0.00962822
-0.00153276
-0.113098
-0.123723
-0.132422
-0.140149
-0.147447
-0.154348
-0.160599
-0.165968
-0.170296
-0.173501
-0.175404
-0.175782
-0.174266
-0.170585
-0.16444
-0.155933
-0.145323
-0.133482
-0.121343
-0.110021
-0.100385
-0.0920614
-0.0849347
-0.0759044
-0.0653503
-0.0517491
-0.0371207
-0.0231019
-0.0106584
-0.00211269
-0.106246
-0.116603
-0.125363
-0.133243
-0.140666
-0.147662
-0.154023
-0.159532
-0.16402
-0.167386
-0.169464
-0.170065
-0.168877
-0.165678
-0.160219
-0.152589
-0.143007
-0.132185
-0.120928
-0.110142
-0.100613
-0.0920441
-0.0843618
-0.0751697
-0.0645314
-0.051446
-0.0373225
-0.0237627
-0.011583
-0.00263857
-0.099927
-0.109973
-0.118716
-0.126682
-0.134186
-0.141249
-0.147692
-0.153318
-0.157951
-0.161481
-0.163745
-0.164582
-0.163727
-0.160997
-0.156183
-0.14936
-0.140714
-0.130823
-0.120372
-0.110104
-0.100707
-0.0919758
-0.0838439
-0.074515
-0.0638301
-0.0511805
-0.0375237
-0.0243631
-0.0124051
-0.00311099
-0.0941394
-0.103848
-0.112513
-0.120507
-0.128053
-0.135155
-0.141655
-0.147375
-0.152139
-0.155828
-0.158284
-0.159363
-0.158837
-0.156556
-0.152344
-0.146262
-0.138463
-0.129419
-0.119702
-0.10993
-0.100685
-0.0918593
-0.0833762
-0.073934
-0.0632343
-0.0509507
-0.0377196
-0.0249039
-0.0131287
-0.00353095
-0.0888809
-0.0982416
-0.106784
-0.114758
-0.122309
-0.129425
-0.13596
-0.141754
-0.146632
-0.150473
-0.153119
-0.15444
-0.154234
-0.152377
-0.14872
-0.143315
-0.136278
-0.127998
-0.118945
-0.109641
-0.100566
-0.0917001
-0.0829542
-0.0734212
-0.0627322
-0.0507543
-0.0379064
-0.0253868
-0.0137587
-0.00389986
-0.0841489
-0.0931631
-0.101551
-0.109469
-0.116997
-0.124105
-0.130657
-0.136505
-0.141482
-0.145463
-0.148291
-0.149846
-0.149947
-0.148485
-0.145337
-0.140539
-0.134183
-0.126588
-0.118132
-0.109264
-0.100371
-0.0915063
-0.0825741
-0.0729716
-0.0623126
-0.0505891
-0.0380802
-0.0258135
-0.0143006
-0.00421948
-0.0799425
-0.088623
-0.0968407
-0.104677
-0.112159
-0.119241
-0.125794
-0.13168
-0.13674
-0.140846
-0.143845
-0.14562
-0.146006
-0.14491
-0.142219
-0.137963
-0.132208
-0.125218
-0.117295
-0.108827
-0.10012
-0.0912878
-0.0822333
-0.0725811
-0.0619653
-0.0504525
-0.038238
-0.0261857
-0.0147603
-0.00449191
-0.0762635
-0.0846329
-0.0926753
-0.100415
-0.107837
-0.114881
-0.121422
-0.127333
-0.132459
-0.136676
-0.139829
-0.141806
-0.142452
-0.141685
-0.139397
-0.135617
-0.130384
-0.123923
-0.116466
-0.108357
-0.0998367
-0.0910567
-0.0819305
-0.0722463
-0.0616813
-0.050342
-0.0383774
-0.0265049