/*--------------------------------*- C++ -*----------------------------------*\
  =========                 |
  \\      /  F ield         | OpenFOAM: The Open Source CFD Toolbox
   \\    /   O peration     | Website:  https://openfoam.org
    \\  /    A nd           | Version:  7
     \\/     M anipulation  |
\*---------------------------------------------------------------------------*/
FoamFile
{
    version     2.0;
    format      ascii;
    class       surfaceScalarField;
    location    "70";
    object      phi;
}
// * * * * * * * * * * * * * * * * * * * * * * * * * * * * * * * * * * * * * //

dimensions      [0 3 -1 0 0 0 0];

internalField   nonuniform List<scalar> 
16735
(
-7.31979e-05
5.08747e-05
2.23232e-05
-0.000260962
0.000134503
5.32608e-05
-0.000544085
0.000207846
7.52767e-05
-0.000903661
0.000269712
8.98651e-05
-0.0013226
0.000319932
9.90063e-05
-0.00178739
0.000360068
0.00010472
-0.00229022
0.000394277
0.000108558
-0.00283179
0.000430315
0.000111253
-0.00342341
0.000479028
0.000112592
0.000554506
0.000111244
-0.00408916
-7.25756e-05
0.00012345
-0.000258734
0.000320662
-0.000539245
0.000488357
-0.000895055
0.000625522
-0.00130875
0.000733623
-0.00176624
0.00081756
-0.00225887
0.000886905
-0.00278626
0.000957709
-0.00335885
0.00105161
0.00119565
-0.00399999
-7.11691e-05
0.000194619
-0.000253766
0.000503259
-0.000528615
0.000763206
-0.000876432
0.000973339
-0.0012792
0.0011364
-0.00172175
0.00126011
-0.00219369
0.00135884
-0.0026925
0.00145652
-0.0032268
0.00158591
0.00178726
-0.00381841
-6.90417e-05
0.000263661
-0.000246246
0.000680463
-0.000512543
0.0010295
-0.000848344
0.00130914
-0.00123479
0.00152284
-0.00165509
0.00168041
-0.00209629
0.00180004
-0.00255253
0.00191277
-0.00302952
0.0020629
0.00230385
-0.0035461
-6.62824e-05
0.000329944
-0.000236435
0.000850616
-0.000491511
0.00128458
-0.000811541
0.00162917
-0.0011766
0.0018879
-0.00156784
0.00207165
-0.00196884
0.00220104
-0.0023691
0.00231303
-0.00277012
0.00246391
0.00271897
-0.00318523
-6.29974e-05
0.000392941
-0.00022464
0.00101226
-0.000466077
0.00152602
-0.000766879
0.00192997
-0.00110587
0.00222689
-0.00146174
0.00242752
-0.00181381
0.00255312
-0.0021454
0.00264462
-0.00245229
0.0027708
0.00300492
-0.00273824
-5.93014e-05
0.000452242
-0.000211187
0.00116414
-0.000436818
0.00175165
-0.000715206
0.00220836
-0.00102377
0.00253546
-0.00133844
0.00274218
-0.00163353
0.00284821
-0.00188454
0.00289563
-0.00207978
0.00296605
0.0031328
-0.00220767
-5.53085e-05
0.000507551
-0.000196392
0.00130523
-0.00040426
0.00195951
-0.000657231
0.00246133
-0.000931199
0.00280943
-0.00119907
0.00301005
-0.00142961
0.00307875
-0.00158875
0.00305477
-0.00165541
0.00303271
0.00307341
-0.00159602
-5.11237e-05
0.000558674
-0.000180529
0.00143463
-0.000368812
0.0021478
-0.0005934
0.00268592
-0.000828497
0.00304453
-0.00104383
0.00322539
-0.00120216
0.00323707
-0.00125811
0.00311072
-0.0011792
0.00295379
0.00280085
-0.000906636
-4.68372e-05
0.000605512
-0.000163808
0.0015516
-0.000330715
0.0023147
-0.000523776
0.00287898
-0.000715259
0.00323601
-0.000871504
0.00338164
-0.00094893
0.00331449
-0.000888559
0.00305035
-0.000642483
0.00270772
0.00231432
-0.000155952
-4.25203e-05
0.000648032
-0.000146363
0.00165545
-0.000290004
0.00245835
-0.000447964
0.00303694
-0.00059015
0.0033782
-0.000679159
0.00347064
-0.000665144
0.00330048
-0.000473123
0.00285833
8.42556e-06
0.00222617
0.00156553
0.000757212
-3.82254e-05
0.000686257
-0.000128245
0.00174547
-0.000246494
0.00257659
-0.000365073
0.00315552
-0.000450788
0.00346391
-0.000461778
0.00348163
-0.000341982
0.00318068
-1.71308e-05
0.00253348
0.000666408
0.00154263
0.000436319
0.00179562
-3.39861e-05
0.000720243
-0.000109423
0.0018209
-0.000199788
0.00266696
-0.000273734
0.00322946
-0.000293764
0.00348394
-0.000212215
0.00340009
3.74025e-05
0.00293107
0.000549149
0.00202173
0.00147666
0.000615117
-0.00107986
0.00299284
-2.98175e-05
0.000750061
-8.97828e-05
0.00188087
-0.000149292
0.00272647
-0.000172199
0.00325237
-0.000114954
0.0034267
7.78246e-05
0.00320731
0.000481981
0.00252691
0.00120965
0.00129406
0.00245076
-0.000625989
-0.00302138
0.00439228
-2.57126e-05
0.000775773
-6.91199e-05
0.00192428
-9.42119e-05
0.00275156
-5.83539e-05
0.00321651
9.03465e-05
0.003278
0.000418223
0.00287943
0.00101473
0.0019304
0.00200617
0.00030263
0.0036345
-0.00225432
-0.00542214
0.00603526
-2.16307e-05
0.000797404
-4.71086e-05
0.00194975
-3.34986e-05
0.00273795
7.02528e-05
0.00311276
0.000327296
0.00302095
0.000818692
0.00238803
0.00165208
0.00109701
0.00296883
-0.00101412
0.00507258
-0.00435807
-0.00829884
0.00794928
-1.74789e-05
0.000814883
-2.32361e-05
0.00195551
3.41545e-05
0.00268056
0.000216512
0.0029304
0.000601443
0.00263602
0.00128912
0.00170036
0.00241051
-2.43797e-05
0.00412368
-0.00272729
0.00679167
-0.00702607
-0.0116377
0.0101305
-1.31015e-05
0.000827985
3.50278e-06
0.00193891
0.000110509
0.00257355
0.000383961
0.00265695
0.000918997
0.00210098
0.00183937
0.000779984
0.00330413
-0.00148914
0.0054923
-0.00491545
0.00878564
-0.0103194
-0.0153864
0.0125344
-8.35156e-06
0.000836336
3.3006e-05
0.00189755
0.000197869
0.00240869
0.000576959
0.00227786
0.00128698
0.00139096
0.00247931
-0.00041234
0.004344
-0.00335383
0.00709241
-0.00766386
0.0110153
-0.0142423
-0.0194599
0.0150888
-2.69111e-06
0.000839027
6.77939e-05
0.00182706
0.000299272
0.00217721
0.000800729
0.00177641
0.00171313
0.000478561
0.00321774
-0.00191695
0.00553358
-0.00566968
0.0089149
-0.0110452
0.0134491
-0.0187766
-0.0237332
0.0177225
4.4427e-06
0.000834585
0.000109105
0.0017224
0.000418188
0.00186813
0.0010612
0.00113339
0.0022054
-0.000665632
0.00406112
-0.00377267
0.0068642
-0.00847275
0.0108719
-0.0150528
0.0159307
-0.0238354
-0.0313899
0.0235873
1.31416e-05
0.000821443
0.000158707
0.00157684
0.000558421
0.00146842
0.00136454
0.000327274
0.00277111
-0.00207221
0.00501217
-0.00601373
0.00832006
-0.0117806
0.012882
-0.0196148
0.018417
-0.0293704
-0.0387117
0.0257388
2.42889e-05
0.000797154
0.000218509
0.00138262
0.000723735
0.000963189
0.00171628
-0.000665273
0.00341522
-0.00377115
0.00606663
-0.00866514
0.00987078
-0.0155848
0.014874
-0.024618
0.0207121
-0.0352086
-0.0455849
0.0275853
3.83802e-05
0.000758774
0.000290256
0.00113074
0.000917362
0.000336084
0.00212026
-0.00186817
0.0041379
-0.00578878
0.00720897
-0.0117362
0.0114629
-0.0198387
0.0167702
-0.0299252
0.0226545
-0.0410929
-0.0519088
0.0289784
5.58836e-05
0.00070289
0.000375372
0.000811252
0.00114151
-0.000430052
0.00257748
-0.00330414
0.00493226
-0.00814357
0.00840946
-0.0152134
0.0130239
-0.0244532
0.0184617
-0.035363
0.0241578
-0.046789
-0.0575814
0.0298304
7.717e-05
0.00062572
0.000474799
0.000413623
0.00139695
-0.0013522
0.00308518
-0.00499237
0.00578282
-0.0108412
0.00962378
-0.0190544
0.0144722
-0.0293016
0.0198542
-0.040745
0.0251783
-0.0521132
-0.0625554
0.0301524
0.000102487
0.000523234
0.000588905
-7.27954e-05
0.00168273
-0.00244603
0.00363626
-0.0069459
0.00666506
-0.01387
0.0107967
-0.023186
0.0157301
-0.034235
0.0208865
-0.0459014
0.0257199
-0.0569466
-0.066844
0.0300085
0.000131949
0.000391285
0.000717417
-0.000658263
0.00199597
-0.00372458
0.00421897
-0.00916891
0.00754654
-0.0171976
0.0118694
-0.0275089
0.0167367
-0.0391023
0.021536
-0.0507006
0.0258227
-0.0612333
-0.0704982
0.0294768
0.000165536
0.000225749
0.000859373
-0.0013521
0.00233173
-0.00519694
0.00481699
-0.0116542
0.00838959
-0.0207702
0.0127884
-0.0319078
0.0174553
-0.0437692
0.0218127
-0.0550581
0.0255461
-0.0649666
-0.0735901
0.028638
0.000203085
2.26641e-05
0.00101309
-0.00216211
0.00268302
-0.00686687
0.0054101
-0.0143813
0.00915547
-0.0245155
0.0135128
-0.0362651
0.0178747
-0.048131
0.0217496
-0.0589331
0.0249565
-0.0681735
-0.0761976
0.027564
0.00024428
-0.000221616
0.00117615
-0.00309398
0.00304082
-0.00873154
0.00597552
-0.0173159
0.00980915
-0.0283492
0.0140182
-0.0404741
0.0180049
-0.0521178
0.0213919
-0.0623201
0.0241182
-0.0708998
-0.0783946
0.0263151
0.000288655
-0.000510271
0.00134538
-0.0041507
0.00339443
-0.0107806
0.00648988
-0.0204114
0.0103233
-0.0321826
0.0142971
-0.0444478
0.0178708
-0.0556916
0.0207887
-0.065238
0.0230881
-0.0731991
-0.0802458
0.0249393
0.000335561
-0.000845832
0.0015169
-0.00533203
0.00373196
-0.0129957
0.00693164
-0.0236111
0.0106809
-0.0359318
0.0143561
-0.0481231
0.0175054
-0.0588408
0.0199878
-0.0677204
0.0219144
-0.0751257
-0.0818048
0.0234734
0.000384176
-0.00123001
0.00168623
-0.00663408
0.00404113
-0.0153506
0.00728312
-0.0268531
0.010875
-0.0395237
0.0142118
-0.0514599
0.0169445
-0.0615735
0.0190323
-0.0698082
0.0206357
-0.0767291
-0.0831141
0.0219449
0.000433512
-0.00166352
0.00184845
-0.00804902
0.00431024
-0.0178124
0.00753208
-0.0300749
0.0109083
-0.0429
0.0138869
-0.0544385
0.0162237
-0.0639103
0.017959
-0.0715435
0.0192825
-0.0780525
-0.0842058
0.0203742
0.00048244
-0.00214596
0.00199848
-0.00956506
0.00452912
-0.020343
0.0076722
-0.033218
0.0107903
-0.0460181
0.0134067
-0.057055
0.0153756
-0.0658792
0.0167988
-0.0729667
0.017878
-0.0791317
-0.0851039
0.018776
0.000529726
-0.00267569
0.0021313
-0.0111666
0.0046899
-0.0229016
0.00770279
-0.0362309
0.010535
-0.0488503
0.012797
-0.059317
0.014429
-0.0675111
0.0155763
-0.074114
0.0164398
-0.0799953
-0.0858254
0.0171613
0.000574087
-0.00324977
0.00224235
-0.0128349
0.00478749
-0.0254467
0.00762789
-0.0390713
0.0101594
-0.0513818
0.0120821
-0.0612397
0.0134085
-0.0688374
0.0143112
-0.0750167
0.0149812
-0.0806653
-0.0863822
0.015538
0.000614245
-0.00386402
0.00232776
-0.0145484
0.00481971
-0.0279387
0.00745501
-0.0417066
0.009681
-0.0536078
0.0112843
-0.062843
0.0123345
-0.0698877
0.0130187
-0.0757009
0.013512
-0.0811586
-0.0867827
0.0139125
0.000648991
-0.00451301
0.00238459
-0.016284
0.0047871
-0.0303412
0.00719394
-0.0441134
0.00911732
-0.0555311
0.0104229
-0.0641486
0.0112238
-0.0706886
0.0117107
-0.0761878
0.0120396
-0.0814874
-0.0870326
0.0122895
0.00067724
-0.00519025
0.00241098
-0.0180177
0.00469244
-0.0326227
0.00685572
-0.0462767
0.00848477
-0.0571602
0.00951483
-0.0651786
0.0100899
-0.0712636
0.0103963
-0.0764942
0.0105697
-0.0816608
-0.0871359
0.010673
0.00069808
-0.00588833
0.00240617
-0.0197258
0.00454025
-0.0347567
0.00645175
-0.0481882
0.00779825
-0.0585067
0.00857416
-0.0659545
0.0089434
-0.0716328
0.00908242
-0.0766333
0.00910673
-0.0816851
-0.087095
0.00906582
0.000710803
-0.00659913
0.00237041
-0.0213854
0.00433617
-0.0367225
0.00599324
-0.0498453
0.00707101
-0.0595845
0.00761264
-0.0664962
0.00779285
-0.0718131
0.00777447
-0.0766149
0.00765419
-0.0815648
-0.0869112
0.0074704
0.000714928
-0.00731406
0.00230488
-0.0229754
0.00408655
-0.0385042
0.00549078
-0.0512495
0.00631457
-0.0604083
0.0066399
-0.0668215
0.00664489
-0.0718181
0.00647659
-0.0764466
0.0062148
-0.081303
-0.086585
0.00588865
0.000710204
-0.00802426
0.00221147
-0.0244767
0.00379794
-0.0400906
0.0049541
-0.0524057
0.00553883
-0.060993
0.00566385
-0.0669465
0.00550486
-0.0716591
0.00519206
-0.0761338
0.00479066
-0.0809017
-0.0861163
0.00432191
0.000696603
-0.00872087
0.0020926
-0.0258727
0.00347682
-0.0414749
0.00439192
-0.0533208
0.00475213
-0.0613532
0.00469093
-0.0668853
0.00437722
-0.0713454
0.00392413
-0.0756807
0.00338343
-0.0803609
-0.0855033
0.00277041
0.000674306
-0.00939517
0.00195102
-0.0271494
0.00312939
-0.0426532
0.00381194
-0.0540033
0.00396145
-0.0615027
0.0037263
-0.0666502
0.00326576
-0.0708848
0.00267685
-0.0750918
0.00199534
-0.0796794
-0.0847375
0.00122962
0.000643704
-0.0100389
0.00178981
-0.0282955
0.00276144
-0.0436249
0.00322085
-0.0544627
0.00317257
-0.0614544
0.00277402
-0.0662516
0.0021733
-0.0702841
0.00145321
-0.0743717
0.00063778
-0.078864
-0.0837932
-0.0003066
0.00060537
-0.0106442
0.00161219
-0.0293023
0.00237831
-0.044391
0.00262441
-0.0547088
0.00239023
-0.0612202
0.00183735
-0.0656987
0.00110203
-0.0695488
0.000245817
-0.0735155
-0.000694918
-0.0779233
-0.0827452
-0.00174283
0.000560004
-0.0112043
0.00142116
-0.0301635
0.00198482
-0.0449546
0.00202757
-0.0547516
0.00161819
-0.0608109
0.00091913
-0.0649997
4.56468e-05
-0.0686753
-0.000924898
-0.0725449
-0.0020076
-0.0768406
-0.0815764
-0.00317642
0.000508407
-0.0117127
0.00121961
-0.0308747
0.00158535
-0.0453204
0.00143449
-0.0546007
0.000859327
-0.0602357
1.56834e-05
-0.064156
-0.000969631
-0.06769
-0.00207191
-0.0714427
-0.00328421
-0.0756283
-0.0802749
-0.00458573
0.000451478
-0.0121641
0.00101032
-0.0314335
0.00118368
-0.0454937
0.000848532
-0.0542656
0.000117735
-0.0595049
-0.000851703
-0.0631866
-0.0019663
-0.0665754
-0.00319164
-0.0702173
-0.00452991
-0.07429
-0.0788408
-0.00596397
0.000390206
-0.0125543
0.000796174
-0.0318395
0.000782731
-0.0454803
0.000274009
-0.0537568
-0.000605007
-0.0586259
-0.00170291
-0.0620887
-0.00293665
-0.0653417
-0.0042818
-0.0688722
-0.00574431
-0.0728275
-0.0772765
-0.00730862
0.000325508
-0.0128799
0.000580203
-0.0320942
0.0003859
-0.045286
-0.000289269
-0.0530817
-0.00130865
-0.0576065
-0.00252984
-0.0608675
-0.00387937
-0.0639921
-0.00534142
-0.0674101
-0.00692611
-0.0712428
-0.0755861
-0.00861651
0.000258197
-0.013138
0.000364359
-0.0322003
1.56354e-05
-0.0449372
-0.000836293
-0.0522298
-0.00199229
-0.0564505
-0.00333159
-0.0595282
-0.00479368
-0.06253
-0.00636987
-0.0658339
-0.00807386
-0.0695388
-0.0737761
-0.00988386
0.000189892
-0.0133279
0.000150585
-0.032161
-0.000392562
-0.0443941
-0.00137283
-0.0512495
-0.00265416
-0.0551692
-0.00410727
-0.0580751
-0.00567885
-0.0609584
-0.0073664
-0.0641464
-0.00918629
-0.0677189
-0.0718516
-0.0111109
0.00011935
-0.0134473
-5.63766e-05
-0.0319853
-0.000768308
-0.0436822
-0.00189274
-0.050125
-0.0032936
-0.0537683
-0.00485619
-0.0565125
-0.00653443
-0.0592802
-0.0083305
-0.0623503
-0.0102635
-0.065786
-0.0698099
-0.0123051
4.35819e-05
-0.0134909
-0.000287548
-0.0316542
-0.00113485
-0.0428349
-0.00239393
-0.048866
-0.00390984
-0.0522524
-0.00557806
-0.0548443
-0.00736073
-0.0574976
-0.00926321
-0.0604478
-0.0113044
-0.0637448
-0.067651
-0.0134633
-3.18908e-05
-0.013459
-0.000501579
-0.0311845
-0.00149018
-0.0418463
-0.00287579
-0.0474803
-0.00450176
-0.0506265
-0.0062723
-0.0530737
-0.00815836
-0.0556115
-0.0101678
-0.0584384
-0.0123038
-0.0616088
-0.0653895
-0.0145652
-0.000102819
-0.0133562
-0.000707235
-0.0305801
-0.00183258
-0.0407209
-0.00333793
-0.045975
-0.0050686
-0.0488958
-0.00693787
-0.0512044
-0.00892532
-0.053624
-0.0110429
-0.0563208
-0.0133006
-0.0593511
-0.0631639
-0.0155262
-0.000174261
-0.0131819
-0.000905745
-0.0298486
-0.00216115
-0.0394655
-0.00377973
-0.0443564
-0.00560986
-0.0470657
-0.00757373
-0.0492406
-0.00965682
-0.0515409
-0.0118601
-0.0541176
-0.0141491
-0.0570621
-0.0604403
-0.0168727
-0.000244364
-0.0129375
-0.00109701
-0.0289959
-0.00247528
-0.0380872
-0.00420074
-0.042631
-0.00612533
-0.0451411
-0.00817929
-0.0471866
-0.0103496
-0.0493706
-0.0126325
-0.0518347
-0.0150449
-0.0546496
-0.0577315
-0.0177537
-0.000312526
-0.012625
-0.00128056
-0.0280279
-0.00277448
-0.0365933
-0.00460059
-0.0408049
-0.00661469
-0.043127
-0.00875443
-0.0450469
-0.01101
-0.0471151
-0.013386
-0.0494587
-0.0159157
-0.0521199
-0.0549932
-0.018654
-0.000378365
-0.0122466
-0.00145587
-0.0269504
-0.00305837
-0.0349908
-0.00497897
-0.0388843
-0.00707753
-0.0410284
-0.00929834
-0.0428261
-0.0116349
-0.0447785
-0.0140972
-0.0469965
-0.0167153
-0.0495018
-0.0521993
-0.0195092
-0.000441569
-0.0118051
-0.00162248
-0.0257695
-0.00332661
-0.0332867
-0.00533564
-0.0368752
-0.00751371
-0.0388503
-0.00981128
-0.0405285
-0.0122255
-0.0423643
-0.0147692
-0.0444527
-0.017467
-0.046804
-0.0493395
-0.0203269
-0.000501869
-0.0113032
-0.00177998
-0.0244914
-0.00357889
-0.0314878
-0.00567043
-0.0347837
-0.00792306
-0.0365977
-0.010293
-0.0381586
-0.0127805
-0.0398768
-0.0153998
-0.0418334
-0.0181714
-0.0440323
-0.0464099
-0.0211009
-0.000559022
-0.0107442
-0.00192803
-0.0231224
-0.00381499
-0.0296008
-0.00598321
-0.0326155
-0.00830549
-0.0342754
-0.0107433
-0.0357207
-0.0132996
-0.0373205
-0.0159893
-0.0391437
-0.0188307
-0.041191
-0.0434109
-0.0218297
-0.000612818
-0.0101314
-0.00206636
-0.0216688
-0.00403471
-0.0276325
-0.00627386
-0.0303763
-0.0086609
-0.0318884
-0.0111621
-0.0332195
-0.0137827
-0.0347
-0.0165378
-0.0363886
-0.019445
-0.0382838
-0.0403446
-0.0225113
-0.00066307
-0.0094683
-0.00219471
-0.0201372
-0.00423791
-0.0255893
-0.00654233
-0.0280719
-0.00898922
-0.0294415
-0.0115492
-0.0306595
-0.0142294
-0.0320198
-0.0170453
-0.0335726
-0.0200141
-0.035315
-0.0372145
-0.0231442
-0.000709617
-0.00875868
-0.0023129
-0.0185339
-0.00442445
-0.0234777
-0.00678854
-0.0257078
-0.00929038
-0.0269397
-0.0119045
-0.0280453
-0.0146395
-0.0292848
-0.0175115
-0.0307007
-0.0205375
-0.0322891
-0.0340248
-0.0237272
-0.000752317
-0.00800636
-0.00242076
-0.0168655
-0.00459424
-0.0213042
-0.00701246
-0.0232896
-0.00956433
-0.0243878
-0.0122279
-0.0253818
-0.015013
-0.0264997
-0.0179363
-0.0277774
-0.0210147
-0.0292107
-0.0307801
-0.0242594
-0.000791051
-0.00721531
-0.00251815
-0.0151384
-0.00474721
-0.0190752
-0.00721406
-0.0208227
-0.00981102
-0.0217908
-0.0125192
-0.0226736
-0.0153496
-0.0236692
-0.0183193
-0.0248078
-0.0214453
-0.0260847
-0.0274856
-0.0247398
-0.000825716
-0.0063896
-0.00260496
-0.0133591
-0.0048833
-0.0167969
-0.0073933
-0.0183127
-0.0100304
-0.0191537
-0.0127784
-0.0199257
-0.0156493
-0.0207983
-0.0186603
-0.0217968
-0.0218288
-0.0229162
-0.0241464
-0.0251679
-0.000856224
-0.00553337
-0.0026811
-0.0115342
-0.00500246
-0.0144755
-0.00755017
-0.015765
-0.0102224
-0.0164814
-0.0130053
-0.0171428
-0.0159117
-0.0178919
-0.0189591
-0.0187493
-0.0221649
-0.0197105
-0.0207682
-0.0255431
-0.000882502
-0.00465087
-0.0027465
-0.00967023
-0.00510466
-0.0121173
-0.00768465
-0.013185
-0.0103871
-0.013779
-0.0132
-0.0143299
-0.0161369
-0.014955
-0.0192155
-0.0156707
-0.0224533
-0.0164727
-0.0173564
-0.0258651
-0.00090449
-0.00374638
-0.00280108
-0.00777364
-0.00518987
-0.00972855
-0.00779674
-0.0105782
-0.0105244
-0.0110513
-0.0133623
-0.011492
-0.0163247
-0.0119927
-0.0194294
-0.0125659
-0.0226939
-0.0132083
-0.0139167
-0.0261336
-0.000922139
-0.00282424
-0.00284481
-0.00585097
-0.00525807
-0.00731529
-0.00788644
-0.0079498
-0.0106342
-0.00830353
-0.0134922
-0.00863402
-0.016475
-0.00900986
-0.0196007
-0.00944028
-0.0228865
-0.00992247
-0.0104547
-0.0263485
-0.00093541
-0.00188883
-0.00287764
-0.00390874
-0.00530924
-0.00488369
-0.00795372
-0.00530531
-0.0107166
-0.00554061
-0.0135897
-0.00576095
-0.0165879
-0.00601172
-0.0197292
-0.00629894
-0.023031
-0.00662067
-0.00697598
-0.0265097
-0.000944276
-0.000944557
-0.00289955
-0.00195346
-0.00534337
-0.00243987
-0.0079986
-0.00265009
-0.0107716
-0.00276758
-0.0136548
-0.00287782
-0.0166631
-0.00300334
-0.0198149
-0.00314714
-0.0231274
-0.00330819
-0.00348614
-0.0266173
-0.000948717
4.16054e-06
-0.00291053
8.34613e-06
-0.00536046
1.00678e-05
-0.00802107
1.05158e-05
-0.0107992
1.05009e-05
-0.0136873
1.03578e-05
-0.0167008
1.01598e-05
-0.0198579
9.91475e-06
-0.0231757
9.61827e-06
9.25942e-06
-0.0266711
-0.000948726
0.000952887
-0.00291055
0.00197017
-0.00536051
0.00246002
-0.00802113
0.00267114
-0.0107992
0.0027886
-0.0136874
0.00289855
-0.0167009
0.00302368
-0.019858
0.00316698
-0.0231758
0.00332745
0.00350469
-0.0266713
-0.000944302
0.00189719
-0.00289963
0.0039255
-0.0053435
0.0049039
-0.00799878
0.00532641
-0.0107719
0.00556167
-0.013655
0.00578173
-0.0166635
0.0060321
-0.0198153
0.00631883
-0.0231278
0.00663996
0.00699457
-0.0266177
-0.000935454
0.00283264
-0.00287777
0.00586781
-0.00530946
0.00733558
-0.00795402
0.00797098
-0.010717
0.00832468
-0.0135902
0.00865488
-0.0165884
0.00903032
-0.0197298
0.00946025
-0.0230317
0.00994184
0.0104734
-0.0265105
-0.000922201
0.00375484
-0.00284499
0.0077906
-0.00525837
0.00974897
-0.00788686
0.0105995
-0.0106348
0.0110726
-0.0134929
0.011513
-0.0164758
0.0120132
-0.0196015
0.012586
-0.0228874
0.0132277
0.0139355
-0.0263495
-0.00090457
0.00465941
-0.00280131
0.00968734
-0.00519026
0.0121379
-0.00779729
0.0132065
-0.0105251
0.0138004
-0.0133631
0.014351
-0.0163257
0.0149758
-0.0194305
0.0156909
-0.0226951
0.0164923
0.0173753
-0.0261349
-0.000882599
0.00554201
-0.00274677
0.0115515
-0.00510514
0.0144963
-0.00768532
0.0157867
-0.010388
0.016503
-0.013201
0.0171641
-0.0161381
0.0179128
-0.0192169
0.0187697
-0.0224548
0.0197302
0.0207872
-0.0258667
-0.000856338
0.00639835
-0.00268143
0.0133766
-0.00500302
0.0168179
-0.00755095
0.0183346
-0.0102234
0.0191755
-0.0130065
0.0199472
-0.0159131
0.0208194
-0.0189607
0.0218173
-0.0221667
0.0229361
0.0241656
-0.0255451
-0.000825847
0.0072242
-0.00260534
0.0151561
-0.00488395
0.0190965
-0.00739421
0.0208449
-0.0100316
0.0218129
-0.0127798
0.0226954
-0.0156509
0.0236906
-0.0186622
0.0248286
-0.0218308
0.0261048
0.0275049
-0.0251702
-0.000791199
0.0080154
-0.00251858
0.0168835
-0.00474795
0.0213258
-0.00721509
0.023312
-0.00981234
0.0244101
-0.0125208
0.0254038
-0.0153515
0.0265213
-0.0183214
0.0277985
-0.0214476
0.0292311
0.0307997
-0.0247424
-0.00075248
0.00876788
-0.00242124
0.0185522
-0.00459507
0.0234997
-0.00701362
0.0257306
-0.00956581
0.0269623
-0.0122297
0.0280677
-0.0150151
0.0293067
-0.0179386
0.030722
-0.0210173
0.0323098
0.0340446
-0.0242623
-0.000709795
0.00947767
-0.00231343
0.0201559
-0.00442536
0.0256116
-0.00678983
0.028095
-0.00929202
0.0294645
-0.0119065
0.0306821
-0.0146418
0.0320421
-0.0175142
0.0335943
-0.0205404
0.035336
0.0372347
-0.0237304
-0.000663263
0.0101409
-0.00219529
0.0216879
-0.00423891
0.0276552
-0.00654374
0.0303999
-0.00899102
0.0319118
-0.0115514
0.0332425
-0.0142319
0.0347226
-0.0170482
0.0364106
-0.0200173
0.0383051
0.0403651
-0.0231477
-0.000613025
0.010754
-0.00206698
0.0231418
-0.00403581
0.0296241
-0.00627541
0.0326395
-0.00866286
0.0342992
-0.0111645
0.0357442
-0.0137854
0.0373435
-0.016541
0.0391662
-0.0194485
0.0412127
0.0434317
-0.0225152
-0.000559241
0.0113132
-0.0019287
0.0245113
-0.00381617
0.0315115
-0.00598488
0.0348082
-0.00830762
0.036622
-0.0107459
0.0381825
-0.0133027
0.0399002
-0.0159928
0.0418562
-0.0188346
0.0440545
0.0464311
-0.021834
-0.000502099
0.0118153
-0.0017807
0.0257899
-0.00358016
0.033311
-0.00567223
0.0369002
-0.00792537
0.0388751
-0.0102958
0.0405529
-0.0127837
0.0423882
-0.0154035
0.044476
-0.0181756
0.0468266
0.0493611
-0.0211056
-0.000441809
0.0122571
-0.00162324
0.0269713
-0.00332796
0.0350157
-0.00533757
0.0389099
-0.00751619
0.0410537
-0.00981428
0.042851
-0.012229
0.0448029
-0.0147732
0.0470203
-0.0174716
0.0495249
0.0522214
-0.0203319
-0.000378612
0.0126357
-0.00145667
0.0280494
-0.00305981
0.0366189
-0.00498103
0.0408311
-0.00708017
0.0431529
-0.00930154
0.0450723
-0.0116387
0.04714
-0.0141015
0.0494831
-0.0167202
0.0521435
0.0550158
-0.0195146
-0.000312778
0.0129485
-0.00128139
0.029018
-0.00277601
0.0381135
-0.00460278
0.0426578
-0.0066175
0.0451676
-0.00875784
0.0472127
-0.011014
0.0493962
-0.0133905
0.0518597
-0.0159208
0.0546739
0.0577548
-0.0186598
-0.000244619
0.0131931
-0.00109788
0.0298713
-0.00247688
0.0394925
-0.00420306
0.044384
-0.00612831
0.0470928
-0.00818291
0.0492673
-0.0103539
0.0515671
-0.0126373
0.0541431
-0.0150504
0.0570869
0.0604644
-0.01776
-0.000174515
0.0133676
-0.000906635
0.0306034
-0.00216283
0.0407487
-0.00378217
0.0460034
-0.00561301
0.0489237
-0.00757755
0.0512318
-0.00966132
0.0536509
-0.0118653
0.0563471
-0.0141548
0.0593765
0.0631889
-0.0168793
-0.000103068
0.0134707
-0.000708145
0.0312085
-0.00183433
0.0418749
-0.00334049
0.0475095
-0.00507191
0.0506551
-0.00694189
0.0531018
-0.00893006
0.0556391
-0.0110483
0.0584654
-0.0133068
0.061635
0.0654148
-0.0155327
-3.21216e-05
0.0135028
-0.000502501
0.0316788
-0.00149199
0.0428643
-0.00287848
0.048896
-0.00450523
0.0522818
-0.00627653
0.0548731
-0.00816333
0.0575259
-0.0101735
0.0604756
-0.0123102
0.0637717
0.0676768
-0.0145723
4.33321e-05
0.0134595
-0.000288477
0.0320107
-0.00113674
0.0437126
-0.00239672
0.050156
-0.00391347
0.0537986
-0.00558249
0.0565421
-0.00736593
0.0593093
-0.00926919
0.0623788
-0.0113111
0.0658136
0.0698365
-0.0134708
0.000119133
0.0133404
-5.74072e-05
0.0321872
-0.000770271
0.0444255
-0.00189562
0.0512813
-0.00329737
0.0552003
-0.00486081
0.0581055
-0.00653986
0.0609884
-0.00833675
0.0641757
-0.0102705
0.0677474
0.0718788
-0.0123129
0.000189721
0.0131506
0.000149792
0.0322271
-0.000394595
0.0449699
-0.00137578
0.0522625
-0.00265808
0.0564827
-0.00411208
0.0595595
-0.00568452
0.0625608
-0.00737293
0.0658641
-0.00919367
0.0695681
0.0738042
-0.0111191
0.000258056
0.0128926
0.000363565
0.0321216
1.41637e-05
0.0453193
-0.00083926
0.0531159
-0.00199635
0.0576397
-0.00333658
0.0608998
-0.00479958
0.0640238
-0.00637669
0.0674412
-0.00808159
0.071273
0.0756152
-0.0098925
0.000325392
0.0125672
0.000579399
0.0318676
0.000383925
0.0455147
-0.000292404
0.0537923
-0.00131284
0.0586602
-0.00253498
0.0621219
-0.00388549
0.0653743
-0.00534852
0.0689042
-0.00693418
0.0728587
0.0773065
-0.00862558
0.000390118
0.0121771
0.000795402
0.0314623
0.000780796
0.0455293
0.000270845
0.0543022
-0.000609329
0.0595404
-0.00170819
0.0632208
-0.00294301
0.0666092
-0.00428919
0.0702504
-0.00575273
0.0743222
0.0788719
-0.00731812
0.000451432
0.0117256
0.00100962
0.0309041
0.0011818
0.0453572
0.000845321
0.0546387
0.000113258
0.0602724
-0.000857066
0.0641911
-0.00197289
0.067725
-0.00319931
0.0714768
-0.00453868
0.0756616
0.0803071
-0.00597389
0.000508413
0.0112172
0.00121901
0.0301935
0.00158355
0.0449926
0.00143128
0.054791
0.000854691
0.060849
9.21482e-06
0.0650366
-0.000976443
0.0687106
-0.00207987
0.0725803
-0.00329332
0.076875
0.0816099
-0.00459607
0.000560072
0.0106572
0.00142069
0.0293329
0.00198314
0.0444302
0.00202441
0.0547497
0.00161361
0.0612598
0.000913375
0.0657368
3.81834e-05
0.0695858
-0.00093312
0.0735516
-0.00201706
0.077959
0.08278
-0.00318719
0.000605506
0.0100516
0.00161188
0.0283265
0.0023768
0.0436653
0.00262136
0.0545051
0.00238567
0.0614955
0.00183144
0.066291
0.00109492
0.0703224
0.000237208
0.0744093
-0.000704804
0.078901
0.0838292
-0.00175395
0.000643914
0.00940773
0.00178969
0.0271808
0.00276016
0.0426948
0.00321796
0.0540473
0.00316806
0.0615454
0.00276805
0.0666911
0.002166
0.0709244
0.0014446
0.0751307
0.000627921
0.0797177
0.0847747
-0.000317586
0.000674593
0.00873314
0.00195112
0.0259042
0.00312839
0.0415175
0.00380927
0.0533665
0.00395704
0.0613976
0.00372032
0.0669278
0.00325834
0.0713864
0.00266803
0.075721
0.00198499
0.0804007
0.0855423
0.00121733
0.000696971
0.00803617
0.00209295
0.0245082
0.00347615
0.0401343
0.00438954
0.0524531
0.00474788
0.0610393
0.00468497
0.0669907
0.00436972
0.0717016
0.00391511
0.0761756
0.0033728
0.080943
0.0861571
0.00275807
0.000710652
0.00732552
0.00221209
0.0230068
0.00379766
0.0385488
0.0049521
0.0512986
0.00553483
0.0604566
0.00565799
0.0668675
0.00549733
0.0718623
0.00518292
0.07649
0.00477986
0.0813461
0.0866276
0.00430935
0.000715455
0.00661006
0.00230579
0.0214165
0.00408674
0.0367678
0.00548925
0.0498961
0.00631093
0.0596349
0.00663423
0.0665442
0.00663741
0.0718591
0.00646741
0.07666
0.00620387
0.0816096
0.0869556
0.00587585
0.000711404
0.00589866
0.00237163
0.0197563
0.00433689
0.0348025
0.00599228
0.0482407
0.00706783
0.0585593
0.00760726
0.0660048
0.0077855
0.0716809
0.0077653
0.0766802
0.00764316
0.0817317
0.0871414
0.00745739
0.000698749
0.00519991
0.0024077
0.0180473
0.00454156
0.0326687
0.00645149
0.0463308
0.00779568
0.0572152
0.00856921
0.0652312
0.00893628
0.0713138
0.00907333
0.0765432
0.00909567
0.0817094
0.0871844
0.00905264
0.000677969
0.00452194
0.00241283
0.0163125
0.0046944
0.0303871
0.00685628
0.0441689
0.00848296
0.0555885
0.00951045
0.0642038
0.0100831
0.0707411
0.0103874
0.0762389
0.0105587
0.0815381
0.0870833
0.0106597
0.000649769
0.00387217
0.00238673
0.0145755
0.00478975
0.0279841
0.00719545
0.0417632
0.00911646
0.0536675
0.0104193
0.0629009
0.0112176
0.0699428
0.0117021
0.0757543
0.0120287
0.0812116
0.0868358
0.0122762
0.000615059
0.00325711
0.00233016
0.0128604
0.00482307
0.0254912
0.00745758
0.0391287
0.00968127
0.0514438
0.0112816
0.0613006
0.012329
0.0688955
0.0130106
0.0750727
0.0135014
0.0807208
0.086438
0.0138993
0.000574924
0.00268219
0.00224499
0.0111903
0.00479155
0.0229446
0.00763164
0.0362886
0.010161
0.0489144
0.0120807
0.0593809
0.0134039
0.0675723
0.0143037
0.0741729
0.014971
0.0800534
0.0858839
0.0155251
0.000530572
0.00215162
0.00213412
0.00958678
0.00469463
0.0203841
0.00770778
0.0332755
0.0105382
0.046084
0.0127971
0.057122
0.0144256
0.0659438
0.0155697
0.0730288
0.0164303
0.0791929
0.0851655
0.0171488
0.000483279
0.00166834
0.00200142
0.00806864
0.00453445
0.0178511
0.00767846
0.0301315
0.0107952
0.0429672
0.0134086
0.0545085
0.0153738
0.0639786
0.0167935
0.0716092
0.0178694
0.078117
0.0842707
0.0187641
0.000434329
0.00123401
0.00185146
0.00665151
0.00431605
0.0153865
0.0075396
0.0269079
0.0109152
0.0395917
0.013891
0.0515327
0.0162239
0.0616456
0.0179553
0.0698778
0.0192751
0.0767972
0.0831826
0.0203631
0.000384956
0.000849052
0.00168922
0.00534725
0.00404729
0.0130284
0.00729179
0.0236634
0.0108839
0.0359996
0.0142183
0.0481983
0.0169472
0.0589168
0.0190307
0.0677943
0.0206299
0.0751979
0.0818775
0.0219351
0.000336288
0.000512763
0.00151981
0.00416372
0.00373829
0.0108099
0.00694128
0.0204604
0.0106917
0.0322491
0.0143654
0.0445246
0.017511
0.0557712
0.0199889
0.0653164
0.0219108
0.073276
0.0803231
0.0234652
0.000289315
0.000223448
0.00134815
0.00310489
0.00340077
0.00875729
0.00650026
0.0173609
0.0103361
0.0284132
0.0143093
0.0405514
0.0178799
0.0522007
0.0207931
0.0624032
0.0230873
0.0709818
0.0784772
0.0249333
0.000244857
-2.14089e-05
0.00117872
0.00217103
0.003047
0.00688901
0.00598631
0.0144216
0.00982365
0.0245759
0.0140335
0.0363416
0.0180179
0.0482163
0.0214002
0.0590208
0.024121
0.068261
0.0762861
0.026312
0.000203567
-0.000224976
0.0010154
0.0013592
0.00268888
0.00521553
0.00542099
0.0116895
0.00917128
0.0208256
0.0135311
0.0319818
0.0178919
0.0438555
0.0217628
0.05515
0.0249639
0.0650599
0.0736853
0.0275647
0.000165914
-0.00039089
0.000861394
0.000663716
0.00233717
0.00373975
0.00482767
0.00919902
0.00840624
0.0172471
0.0128094
0.0275786
0.017477
0.0391879
0.0218314
0.0507956
0.0255591
0.0613322
0.0706007
0.0286436
0.000132222
-0.000523112
0.000719143
7.67949e-05
0.00200092
0.00245798
0.00422922