/*--------------------------------*- C++ -*----------------------------------*\
  =========                 |
  \\      /  F ield         | OpenFOAM: The Open Source CFD Toolbox
   \\    /   O peration     | Website:  https://openfoam.org
    \\  /    A nd           | Version:  7
     \\/     M anipulation  |
\*---------------------------------------------------------------------------*/
FoamFile
{
    version     2.0;
    format      ascii;
    class       surfaceScalarField;
    location    "190";
    object      phi;
}
// * * * * * * * * * * * * * * * * * * * * * * * * * * * * * * * * * * * * * //

dimensions      [0 3 -1 0 0 0 0];

internalField   nonuniform List<scalar> 
16735
(
-0.000118769
0.000327137
-0.000208368
-0.00040781
0.00158656
-0.00129752
-0.000840254
0.00329872
-0.00286628
-0.00139553
0.00523529
-0.00468002
-0.00204942
0.00727314
-0.00661925
-0.00277005
0.0094279
-0.00870727
-0.00352142
0.0118146
-0.0110632
-0.00427157
0.0145729
-0.0138227
-0.00499646
0.0178043
-0.0170794
0.0215596
-0.0208847
-0.00567137
-9.49007e-05
0.000422037
-0.000327224
0.00181888
-0.000676583
0.00364808
-0.00112708
0.00568579
-0.00165622
0.00780228
-0.00222937
0.010001
-0.00280229
0.0123875
-0.00332918
0.0150998
-0.00376895
0.0182441
0.0218565
-0.00406584
-7.0346e-05
0.000492383
-0.000243427
0.00199196
-0.000504385
0.00390904
-0.000841248
0.00602265
-0.00123298
0.00819401
-0.00164224
0.0104103
-0.00201631
0.0127616
-0.00229428
0.0153777
-0.00241776
0.0183675
0.0217408
-0.00230206
-4.64985e-05
0.000538882
-0.000160784
0.00210625
-0.000331973
0.00408023
-0.000550847
0.00624153
-0.000797459
0.00844063
-0.0010321
0.0106449
-0.00119429
0.0129238
-0.00120764
0.0153911
-0.00099283
0.0181527
0.0212219
-0.000473868
-2.46511e-05
0.000563533
-8.34804e-05
0.00216508
-0.00016757
0.00416432
-0.000268893
0.00634285
-0.000368004
0.00853974
-0.000423378
0.0107003
-0.000367829
0.0128682
-0.000113619
0.0151369
0.000445792
0.0175933
0.0202571
0.00141054
-6.00722e-06
0.00056954
-1.52206e-05
0.00217429
-1.84118e-05
0.00416751
-7.4617e-06
0.0063319
3.71621e-05
0.00849511
0.000159161
0.0105783
0.000430111
0.0125973
0.0009496
0.0146174
0.00183091
0.016712
0.0188586
0.00322939
8.78671e-06
0.000560753
4.03783e-05
0.0021427
0.000107125
0.00410076
0.000220149
0.00621888
0.000400496
0.00831477
0.000691924
0.0102869
0.00116912
0.0121201
0.00193917
0.0138473
0.00312767
0.0155235
0.0170602
0.00492605
1.86855e-05
0.000542068
8.12321e-05
0.00208015
0.000205042
0.00397695
0.000405815
0.0060181
0.000707125
0.00801346
0.00115368
0.00984034
0.00182098
0.0114528
0.00282031
0.012848
0.00428421
0.0140596
0.0148953
0.00644912
2.34955e-05
0.000518572
0.00010559
0.00199806
0.000270931
0.00381161
0.000541587
0.00574745
0.000944996
0.00761005
0.00152698
0.00925835
0.00236248
0.0106173
0.00356355
0.0116469
0.00526363
0.0123595
0.0123979
0.00776106
2.30578e-05
0.000495515
0.000112837
0.00190828
0.000302965
0.00362148
0.000623387
0.00542703
0.0011067
0.00712674
0.00180042
0.00856462
0.00277829
0.00963942
0.00415049
0.0102748
0.00604523
0.0104648
0.00959496
0.00884818
1.75554e-05
0.000477959
0.000103479
0.00182236
0.000301709
0.00342325
0.000651202
0.00507753
0.00119092
0.00658702
0.00197119
0.00778436
0.00306508
0.00854552
0.00458001
0.00875982
0.00663572
0.00840907
0.00649685
0.00973383
7.54441e-06
0.000470415
7.92757e-05
0.00175062
0.000270461
0.00323207
0.000629858
0.00471814
0.00120404
0.00601283
0.00204798
0.00694042
0.0032366
0.0073569
0.00487647
0.00711996
0.0070848
0.00620074
0.00308641
0.0104952
-6.20838e-06
0.000476623
4.33195e-05
0.0017011
0.000215517
0.00305987
0.000569663
0.00436399
0.00116152
0.00542097
0.00205383
0.00604812
0.0033286
0.00608213
0.00509745
0.0053511
0.00749796
0.00380024
-0.000688403
0.0112728
-2.20883e-05
0.000498711
4.53342e-07
0.00167855
0.000146256
0.00291407
0.00048667
0.00402358
0.00108867
0.00481897
0.0020276
0.0051092
0.00340123
0.0047085
0.00533607
0.00341626
0.00803311
0.00110319
-0.00490795
0.0122527
-3.86281e-05
0.00053734
-4.42437e-05
0.00168417
7.47634e-05
0.00279506
0.000402222
0.00369612
0.00101996
0.00420123
0.00202276
0.0041064
0.00353575
0.00319551
0.00571237
0.00123964
0.0088694
-0.00205383
-0.00964752
0.013609
-5.37562e-05
0.000591096
-8.3611e-05
0.00171402
1.53336e-05
0.00269612
0.000341421
0.00337003
0.000996236
0.00354642
0.00210204
0.00300059
0.0038234
0.00147415
0.00635216
-0.00128912
0.0101482
-0.00584987
-0.0149225
0.0154232
-6.54245e-05
0.00065652
-0.000110925
0.00175952
-1.72819e-05
0.00260247
0.000330316
0.00302243
0.0010596
0.00281713
0.00232804
0.00173215
0.00434783
-0.000545641
0.00735761
-0.0042989
0.0119172
-0.0104094
-0.0206355
0.0176301
-7.18076e-05
0.000728328
-0.000120109
0.00180783
-1.03704e-05
0.00249273
0.000392206
0.00261986
0.00124677
0.00196256
0.00275171
0.000227216
0.00516656
-0.00296049
0.00877867
-0.00791101
0.0141046
-0.0157354
-0.0265721
0.0200413
-7.15597e-05
0.000799888
-0.000106624
0.00184289
4.48727e-05
0.00234124
0.000544091
0.00212064
0.00158255
0.000924102
0.00340191
-0.00159214
0.00629721
-0.0058558
0.0105914
-0.0122052
0.0165419
-0.0216859
-0.0324657
0.0224355
-6.39975e-05
0.000863885
-6.78689e-05
0.00184676
0.000155832
0.00211754
0.000794481
0.00148199
0.00207583
-0.000357244
0.00427942
-0.00379573
0.00771069
-0.00928708
0.01268
-0.0171745
0.0190289
-0.0280347
-0.0381407
0.0247038
-4.92475e-05
0.000913133
-2.13507e-06
0.00179965
0.00032196
0.00179344
0.00114233
0.000661615
0.00271954
-0.00193445
0.00535839
-0.00643458
0.00933821
-0.0132669
0.0148445
-0.0226808
0.0212875
-0.0344777
-0.0460622
0.0292089
-2.8582e-05
0.000941715
8.3229e-05
0.00168784
0.000538577
0.00133809
0.00157903
-0.000378838
0.00349421
-0.00384964
0.00659322
-0.00953359
0.0110856
-0.0177593
0.0169283
-0.0285235
0.0234163
-0.0409657
-0.053254
0.0306081
-1.59684e-06
0.000943311
0.000190408
0.00149583
0.000799351
0.000729152
0.00209121
-0.00167069
0.00437261
-0.00613104
0.00792634
-0.0130873
0.0128401
-0.022673
0.0188154
-0.0344989
0.0251066
-0.0472568
-0.0595203
0.0313728
2.79612e-05
0.00091535
0.000313537
0.00121026
0.00109645
-5.37613e-05
0.00266362
-0.00323786
0.00532348
-0.0087909
0.00929414
-0.017058
0.0144934
-0.0278723
0.0204043
-0.0404098
0.0262613
-0.0531137
-0.0649498
0.0316908
6.08904e-05
0.00085446
0.000449529
0.000821619
0.0014226
-0.00102683
0.00328095
-0.00509621
0.00631329
-0.0118232
0.0106303
-0.021375
0.0159542
-0.0331961
0.0216163
-0.046072
0.0269187
-0.0584161
-0.069585
0.0315539
9.61242e-05
0.000758336
0.000596028
0.000321715
0.00177173
-0.00220253
0.00392821
-0.0072527
0.0073065
-0.0152015
0.0118702
-0.0259387
0.0171532
-0.0384792
0.0224255
-0.0513442
0.0271139
-0.0631045
-0.0734957
0.0310246
0.000133453
0.000624883
0.000751619
-0.000296451
0.00213874
-0.00358966
0.00458996
-0.00970392
0.00826561
-0.0188772
0.012956
-0.030629
0.0180493
-0.0435725
0.0228398
-0.0561347
0.0269107
-0.0671754
-0.0767756
0.0301906
0.000173017
0.000451866
0.000915483
-0.00103892
0.00251859
-0.00519276
0.00524896
-0.0124343
0.00915244
-0.0227807
0.0138429
-0.0353195
0.0186281
-0.0483577
0.0228922
-0.0603989
0.0263781
-0.0706613
-0.0795156
0.0291181
0.00021508
0.000236786
0.00108681
-0.00191065
0.00290527
-0.00701122
0.0058855
-0.0154145
0.00993105
-0.0268262
0.0145026
-0.039891
0.0188978
-0.0527529
0.0226287
-0.0641298
0.0255824
-0.073615
-0.0818033
0.0278702
0.000259823
-2.30371e-05
0.00126426
-0.00291509
0.00329103
-0.00903798
0.00647789
-0.0186014
0.0105715
-0.0309198
0.0149238
-0.0442433
0.0188825
-0.0567116
0.0221004
-0.0673477
0.0245834
-0.076098
-0.0837147
0.0264947
0.000307192
-0.000330229
0.00144559
-0.00405349
0.00366611
-0.0112585
0.00700427
-0.0219395
0.0110528
-0.0349683
0.0151101
-0.0483006
0.0186156
-0.060217
0.0213571
-0.0700893
0.0234313
-0.0781722
-0.085313
0.0250296
0.000356844
-0.000687074
0.00162752
-0.00532416
0.0040192
-0.0136502
0.007445
-0.0253653
0.0113645
-0.0388878
0.0150767
-0.0520129
0.0181342
-0.0632745
0.0204445
-0.0723995
0.0221673
-0.079895
-0.0866488
0.0235031
0.0004081
-0.00109517
0.00180584
-0.0067219
0.00433835
-0.0161827
0.0077848
-0.0288118
0.0115059
-0.042609
0.0148457
-0.0553527
0.0174757
-0.0659044
0.019402
-0.0743258
0.0208237
-0.0813167
-0.0877611
0.021936
0.000460011
-0.00155519
0.0019757
-0.00823759
0.00461219
-0.0188192
0.0080141
-0.0322137
0.0114845
-0.0460794
0.014443
-0.0583112
0.0166748
-0.0681362
0.0182628
-0.0759138
0.0194255
-0.0824794
-0.0886789
0.0203433
0.000511427
-0.00206661
0.00213194
-0.00985811
0.00483102
-0.0215183
0.00812934
-0.035512
0.0113131
-0.0492632
0.0138952
-0.0608932
0.0157625
-0.0700035
0.0170537
-0.0772051
0.0179915
-0.0834172
-0.0894234
0.0187361
0.000561069
-0.00262768
0.00226951
-0.0115665
0.00498767
-0.0242364
0.00813232
-0.0386567
0.0110084
-0.0521393
0.0132283
-0.0631131
0.0147656
-0.0715407
0.0157963
-0.0782359
0.0165359
-0.0841569
-0.0900095
0.0171221
0.000607606
-0.00323529
0.0023838
-0.0133427
0.00507793
-0.0269305
0.00802906
-0.0416078
0.0105883
-0.0546985
0.0124661
-0.0649909
0.0137065
-0.0727811
0.0145073
-0.0790367
0.0150691
-0.0847187
-0.0904475
0.0155071
0.000649731
-0.00388502
0.00247103
-0.015164
0.00510055
-0.0295601
0.00782859
-0.0443359
0.010071
-0.056941
0.0116298
-0.0665497
0.0126036
-0.0737549
0.0131996
-0.0796326
0.0135989
-0.085118
-0.0907442
0.0138956
0.000686218
-0.00457124
0.0025284
-0.0170062
0.00505697
-0.0320886
0.00754169
-0.0468206
0.00947407
-0.0588733
0.0107378
-0.0678134
0.011472
-0.0744891
0.0118831
-0.0800437
0.0121309
-0.0853659
-0.0909042
0.0122909
0.000715983
-0.00528722
0.00255423
-0.0188445
0.00495074
-0.0344852
0.00717994
-0.0490498
0.00881345
-0.0605068
0.00980567
-0.0688057
0.0103234
-0.0750068
0.0105654
-0.0802858
0.0106697
-0.0854702
-0.0909306
0.0106962
0.000738123
-0.00602534
0.00254797
-0.0206543
0.00478699
-0.0367242
0.00675503
-0.0510178
0.00810362
-0.0618554
0.00884642
-0.0695485
0.00916722
-0.0753276
0.0092523
-0.0803709
0.00921862
-0.0854365
-0.0908255
0.00911352
0.000751949
-0.00677729
0.00251013
-0.0224125
0.0045718
-0.0387858
0.00627817
-0.0527242
0.00735721
-0.0629345
0.00787079
-0.070062
0.00801089
-0.0754677
0.00794817
-0.0803081
0.00778029
-0.0852686
-0.0905895
0.00754429
0.000756997
-0.00753429
0.00244207
-0.0240976
0.00431176
-0.0406555
0.00575981
-0.0541722
0.00658513
-0.0637598
0.00688752
-0.0703644
0.00686011
-0.0754403
0.00665634
-0.0801044
0.00635678
-0.084969
-0.0902226
0.00598983
0.000753033
-0.00828732
0.00234586
-0.0256904
0.00401357
-0.0423232
0.00520944
-0.0553681
0.00579666
-0.064347
0.0059037
-0.0704715
0.00571939
-0.075256
0.00537938
-0.0797644
0.00494969
-0.0845394
-0.0897239
0.00445099
0.000740039
-0.00902736
0.00222406
-0.0271744
0.00368375
-0.0437829
0.00463552
-0.0563199
0.00499959
-0.0647111
0.0049251
-0.070397
0.00459251
-0.0749234
0.00411972
-0.0792916
0.00355999
-0.0839796
-0.0890922
0.00292829
0.000718207
-0.00974557
0.00207949
-0.0285357
0.00332846
-0.0450319
0.00404543
-0.0570368
0.00420042
-0.0648661
0.00395635
-0.0701529
0.00348273
-0.0744497
0.00288051
-0.0786893
0.00218801
-0.0832871
-0.0883234
0.00141926
0.000687938
-0.0104335
0.00191534
-0.0297631
0.00295342
-0.04607
0.00344558
-0.057529
0.00340448
-0.064825
0.00300107
-0.0697495
0.00239247
-0.0738412
0.00166486
-0.0779617
0.000841724
-0.082464
-0.0873713
-0.000110435
0.00064981
-0.0110833
0.00173485
-0.0308481
0.00256387
-0.046899
0.00284146
-0.0578066
0.00261613
-0.0645997
0.0020621
-0.0691955
0.00132319
-0.0731022
0.000468114
-0.0771067
-0.000470113
-0.0815258
-0.086328
-0.00151341
0.000604528
-0.0116878
0.00154102
-0.0317846
0.00216448
-0.0475225
0.00223775
-0.0578799
0.00183892
-0.0642008
0.00114175
-0.0684983
0.000273637
-0.0722341
-0.000698514
-0.0761345
-0.00177264
-0.0804516
-0.0851728
-0.00292785
0.000552895
-0.0122407
0.0013367
-0.0325684
0.00175945
-0.0479452
0.00163834
-0.0577588
0.00107561
-0.0636381
0.000240764
-0.0676635
-0.000745127
-0.0712482
-0.00183868
-0.0750409
-0.00303814
-0.0792522
-0.0838902
-0.00432075
0.000495803
-0.0127365
0.00112466
-0.0331973
0.00135245
-0.048173
0.00104639
-0.0574527
0.000328924
-0.0629206
-0.000634512
-0.0667
-0.00174008
-0.0701427
-0.00295368
-0.0738273
-0.00427439
-0.0779315
-0.0824799
-0.00568468
0.000434176
-0.0131707
0.000907609
-0.0336707
0.000946613
-0.048212
0.000465228
-0.0569713
-0.00039919
-0.0620562
-0.00148747
-0.0656117
-0.00271001
-0.0689201
-0.00404048
-0.0724969
-0.00548143
-0.0764905
-0.0809438
-0.00701749
0.000368877
-0.0135396
0.000688143
-0.03399
0.000545115
-0.048069
-0.000100775
-0.0563254
-0.00110727
-0.0610497
-0.00231709
-0.0644019
-0.00365331
-0.0675839
-0.00509807
-0.0710521
-0.0066579
-0.0749307
-0.0792845
-0.00831724
0.000300894
-0.0138405
0.000468154
-0.0341573
0.000156667
-0.0477575
-0.000658592
-0.0555102
-0.00179612
-0.0599122
-0.00312221
-0.0630758
-0.00456919
-0.0661369
-0.00612584
-0.0694955
-0.00780258
-0.0732539
-0.0775056
-0.00958144
0.000231929
-0.0140724
0.000249541
-0.0341749
-0.000238431
-0.0472695
-0.00119889
-0.0545497
-0.00246365
-0.0586474
-0.00390212
-0.0616374
-0.00545705
-0.064582
-0.00712323
-0.0678293
-0.00891425
-0.0714629
-0.0756135
-0.0108064
0.000161984
-0.0142344
4.73299e-05
-0.0340602
-0.000624293
-0.0465979
-0.00172479
-0.0534492
-0.00310932
-0.0572629
-0.00465624
-0.0600904
-0.00631636
-0.0629219
-0.00808959
-0.0660561
-0.00999173
-0.0695608
-0.0736129
-0.0119924
8.7483e-05
-0.0143219
-0.000185675
-0.0337871
-0.000997215
-0.0457863
-0.00223313
-0.0522133
-0.0037325
-0.0557635
-0.00538415
-0.0584388
-0.00714682
-0.0611592
-0.00902448
-0.0641784
-0.0110351
-0.0675501
-0.0714999
-0.0131481
4.80089e-06
-0.0143267
-0.000408442
-0.0333738
-0.00135946
-0.0448353
-0.00272279
-0.05085
-0.00433238
-0.0541539
-0.00608557
-0.0566856
-0.00794887
-0.0592959
-0.0099291
-0.0621982
-0.012044
-0.0654353
-0.0692721
-0.0142718
-6.42936e-05
-0.0142624
-0.000619723
-0.0328184
-0.00170927
-0.0437458
-0.00319343
-0.0493658
-0.00490831
-0.0524391
-0.00676002
-0.0548339
-0.00872318
-0.0573328
-0.0108068
-0.0601145
-0.0130137
-0.0632284
-0.0669454
-0.0153404
-0.000137074
-0.0141253
-0.000823173
-0.0321323
-0.00204563
-0.0425233
-0.00364451
-0.0477669
-0.00545971
-0.0506238
-0.00740659
-0.052887
-0.00946775
-0.0552716
-0.0116556
-0.0579266
-0.01398
-0.060904
-0.0646656
-0.0162599
-0.000209099
-0.0139162
-0.0010195
-0.0313219
-0.00236791
-0.0411749
-0.0040755
-0.0460593
-0.00598622
-0.0487131
-0.00802443
-0.0508488
-0.0101779
-0.0531181
-0.0124466
-0.0556579
-0.0147915
-0.0585591
-0.0618841
-0.017573
-0.00027937
-0.0136369
-0.00120845
-0.0303928
-0.00267573
-0.0397076
-0.00448609
-0.044249
-0.0064877
-0.0467115
-0.00861298
-0.0487235
-0.0108507
-0.0508804
-0.0131961
-0.0533125
-0.0156665
-0.0560887
-0.0591166
-0.0184339
-0.000347464
-0.0132894
-0.00138957
-0.0293507
-0.00296876
-0.0381285
-0.00487599
-0.0423417
-0.0069639
-0.0446236
-0.00917212
-0.0465153
-0.0114922
-0.0485604
-0.0139283
-0.0508764
-0.0165148
-0.0535022
-0.0563238
-0.0193077
-0.000413083
-0.0128763
-0.0015624
-0.0282014
-0.00324671
-0.0364441
-0.00524499
-0.0403435
-0.00741444
-0.0424542
-0.00970112
-0.0442286
-0.0120996
-0.0461618
-0.0146197
-0.0483562
-0.0172921
-0.0508298
-0.0534805
-0.0201354
-0.000475974
-0.0124003
-0.00172653
-0.0269508
-0.00350931
-0.0346614
-0.00559294
-0.0382598
-0.00783926
-0.0402078
-0.0102003
-0.0418675
-0.0126741
-0.0436881
-0.0152735
-0.0457568
-0.0180229
-0.0480805
-0.0505754
-0.020928
-0.000535907
-0.0118644
-0.00188165
-0.0256051
-0.00375635
-0.0327867
-0.00591971
-0.0360965
-0.00823821
-0.0378893
-0.0106695
-0.0394363
-0.0132145
-0.0411431
-0.0158873
-0.0430841
-0.0187078
-0.0452599
-0.0476037
-0.0216796
-0.000592677
-0.0112717
-0.00202747
-0.0241703
-0.00398765
-0.0308265
-0.00622521
-0.0338589
-0.00861126
-0.0355033
-0.0111086
-0.036939
-0.0137205
-0.0385311
-0.0164616
-0.0403429
-0.0193496
-0.042372
-0.0445649
-0.0223884
-0.0006461
-0.0106256
-0.00216375
-0.0226526
-0.00420306
-0.0287872
-0.00650939
-0.0315526
-0.00895833
-0.0330543
-0.0115173
-0.03438
-0.0141918
-0.0358566
-0.0169966
-0.0375381
-0.0199484
-0.0394203
-0.0414609
-0.0230524
-0.000696016
-0.00992963
-0.0022903
-0.0210584
-0.00440247
-0.026675
-0.00677219
-0.0291829
-0.00927938
-0.0305472
-0.0118957
-0.0317637
-0.0146283
-0.0331241
-0.0174923
-0.034674
-0.0205039
-0.0364087
-0.0382946
-0.0236702
-0.000742282
-0.00918735
-0.00240696
-0.0193937
-0.0045858
-0.0244962
-0.00701358
-0.0267551
-0.00957436
-0.0279864
-0.0122435
-0.0290945
-0.0150298
-0.0303379
-0.0179485
-0.0317553
-0.0210159
-0.0333413
-0.0350701
-0.0242404
-0.000784778
-0.00840257
-0.00251359
-0.0176649
-0.00475296
-0.0222568
-0.00723355
-0.0242745
-0.00984324
-0.0253767
-0.0125608
-0.0263769
-0.0153961
-0.0275026
-0.018365
-0.0287864
-0.0214837
-0.0302226
-0.0317917
-0.0247621
-0.000823397
-0.00757917
-0.00261007
-0.0158782
-0.00490392
-0.0199629
-0.00743208
-0.0217463
-0.010086
-0.0227228
-0.0128473
-0.0236156
-0.0157271
-0.0246228
-0.0187415
-0.025772
-0.0219069
-0.0270572
-0.0284642
-0.0252344
-0.000858049
-0.00672112
-0.00269633
-0.0140399
-0.00503862
-0.0176206
-0.00760914
-0.0191758
-0.0103025
-0.0200294
-0.0131031
-0.020815
-0.0160227
-0.0217032
-0.0190779
-0.0227168
-0.0222851
-0.02385
-0.0250928
-0.0256565
-0.000888659
-0.00583246
-0.00277227
-0.0121563
-0.00515705
-0.0152359
-0.00776475
-0.0165681
-0.0104929
-0.0173013
-0.0133279
-0.0179799
-0.0162826
-0.0187485
-0.0193738
-0.0196256
-0.0226178
-0.0206059
-0.0216826
-0.026028
-0.00091516
-0.0049173
-0.00283784
-0.0102336
-0.00525917
-0.0128145
-0.00789888
-0.0139284
-0.010657
-0.0145432
-0.0135219
-0.015115
-0.0165069
-0.0157634
-0.0196291
-0.0165034
-0.022905
-0.0173301
-0.018239
-0.0263486
-0.0009375
-0.0039798
-0.00289299
-0.00827813
-0.00534497
-0.0103626
-0.00801155
-0.0112618
-0.0107948
-0.0117599
-0.0136848
-0.012225
-0.0166954
-0.0127529
-0.0198437
-0.0133551
-0.0231463
-0.0140275
-0.0147674
-0.0266179
-0.000955635
-0.00302417
-0.00293768
-0.00629609
-0.00541443
-0.00788582
-0.00810274
-0.0085735
-0.0109064
-0.00895622
-0.0138168
-0.00931469
-0.016848
-0.00972166
-0.0200175
-0.0101857
-0.0233416
-0.0107033
-0.0112732
-0.0268358
-0.000969532
-0.00205464
-0.00297187
-0.00429374
-0.00546755
-0.00539014
-0.00817247
-0.00586858
-0.0109918
-0.00613691
-0.0139177
-0.0063888
-0.0169647
-0.00667462
-0.0201503
-0.00700005
-0.0234909
-0.00736269
-0.00776176
-0.0270024
-0.000979164
-0.00107547
-0.00299555
-0.00227735
-0.00550432
-0.00288137
-0.00822072
-0.00315218
-0.0110508
-0.00330679
-0.0139875
-0.00345215
-0.0170454
-0.00361666
-0.0202422
-0.0038033
-0.0235942
-0.00401072
-0.00423847
-0.0271175
-0.000984515
-9.09567e-05
-0.00300871
-0.00025316
-0.00552474
-0.000365341
-0.00824752
-0.000429408
-0.0110836
-0.000470692
-0.0140262
-0.00050955
-0.0170902
-0.000552692
-0.020293
-0.000600463
-0.0236511
-0.000652637
-0.000708741
-0.0271808
-0.000985577
0.00089462
-0.00301133
0.00177259
-0.00552881
0.00215214
-0.00825285
0.00229463
-0.0110901
0.00236657
-0.0140338
0.00243417
-0.0170989
0.00251237
-0.0203028
0.00260342
-0.0236619
0.00270648
0.00282082
-0.0271915
-0.000982349
0.00187697
-0.00300342
0.00379366
-0.00551654
0.00466527
-0.00823673
0.00501482
-0.0110703
0.00520018
-0.0140104
0.00537422
-0.0170717
0.00557368
-0.0202717
0.00580347
-0.023627
0.00606169
0.00634733
-0.0271535
-0.000974839
0.00285181
-0.00298498
0.0058038
-0.00548793
0.00716822
-0.00819917
0.00772606
-0.0110243
0.00802531
-0.0139559
0.00830578
-0.0170085
0.0086263
-0.0201996
0.00899461
-0.0235457
0.00940781
0.00986421
-0.0270626
-0.000963063
0.00381487
-0.00295604
0.00779678
-0.005443
0.00965518
-0.00814017
0.0104232
-0.010952
0.0108372
-0.0138703
0.011224
-0.0169093
0.0116653
-0.0200865
0.0121718
-0.0234183
0.0127396
0.0133661
-0.0269202
-0.000947045
0.00476191
-0.00291663
0.00976636
-0.00538176
0.0121203
-0.00805974
0.0131012
-0.0108535
0.0136309
-0.0137537
0.0141242
-0.0167742
0.0146859
-0.0199324
0.01533
-0.0232448
0.016052
0.0168474
-0.0267262
-0.000926818
0.00568873
-0.00286676
0.0117063
-0.00530422
0.0145578
-0.0079579
0.0157549
-0.0107288
0.0164018
-0.0136061
0.0170015
-0.0166033
0.0176832
-0.0197376
0.0184642
-0.0230254
0.0193398
0.0203029
-0.0264808
-0.000902426
0.00659116
-0.0028065
0.0136104
-0.00521041
0.0169617
-0.00783467
0.0183791
-0.0105779
0.0191451
-0.0134276
0.0198512
-0.0163967
0.0206522
-0.019502
0.0215695
-0.02276
0.0225978
0.0237269
-0.026184
-0.000873921
0.00746508
-0.00273589
0.0154723
-0.00510037
0.0193262
-0.00769005
0.0209688
-0.0104009
0.0218559
-0.0132182
0.0226685
-0.0161543
0.0235883
-0.0192258
0.024641
-0.022449
0.025821
0.0271141
-0.0258362
-0.000841366
0.00830645
-0.002655
0.017286
-0.00497413
0.0216453
-0.00752408
0.0235188
-0.0101977
0.0245295
-0.0129781
0.0254489
-0.0158765
0.0264867
-0.0189092
0.0276737
-0.0220926
0.0290044
0.0304593
-0.0254377
-0.000804836
0.00911128
-0.00256391
0.0190451
-0.00483173
0.0239131
-0.00733679
0.0260238
-0.00996858
0.0271613
-0.0127073
0.0281876
-0.0155633
0.0293427
-0.0185526
0.0306629
-0.0216912
0.032143
0.0337572
-0.0249891
-0.00076442
0.0098757
-0.00246273
0.0207434
-0.00467323
0.0261236
-0.0071282
0.0284788
-0.00971343
0.0297466
-0.012406
0.0308802
-0.015215
0.0321517
-0.018156
0.0336039
-0.0212452
0.0352323
0.0370029
-0.024491
-0.000720221
0.0105959
-0.00235155
0.0223747
-0.0044987
0.0282708
-0.00689836
0.0308785
-0.00943236
0.0322806
-0.0120742
0.033522
-0.0148316
0.0349092
-0.0177199
0.0364922
-0.0207552
0.0382676
0.0401921
-0.0239444
-0.000672359
0.0112683
-0.00223053
0.0239329
-0.00430821
0.0303484
-0.00664732
0.0332176
-0.00912545
0.0347587
-0.0117121
0.0361087
-0.0144134
0.0376105
-0.0172445
0.0393233
-0.0202218
0.0412449
0.0433208
-0.0233505
-0.00062097
0.0118893
-0.00209983
0.0254117
-0.00410188
0.0323505
-0.00637513
0.0354908
-0.00879277
0.0371763
-0.0113199
0.0386358
-0.0139606
0.0402513
-0.0167299
0.0420925
-0.0196453
0.0441603
0.046386
-0.0227105
-0.000566212
0.0124555
-0.00195964
0.0268052
-0.00387983
0.0342707
-0.00608188
0.0376929
-0.00843441
0.0395289
-0.0108976
0.041099
-0.0134734
0.0428271
-0.0161762
0.0447953
-0.0190262
0.0470102
0.049386
-0.0220262
-0.000508264
0.0129637
-0.0018102
0.0281071
-0.00364222
0.0361027
-0.00576764
0.0398183
-0.00805046
0.0418117
-0.0104456
0.0434941
-0.0129521
0.0453337
-0.0155833
0.0474265
-0.0183641
0.049791
0.0523217
-0.0212998
-0.000447329
0.0134111
-0.00165178
0.0293116
-0.00338925
0.0378402
-0.00543254
0.0418616
-0.00764101
0.0440201
-0.00996386
0.0458169
-0.0123971
0.0477669
-0.0149507
0.0499801
-0.0176566
0.052497
0.0551987
-0.0205336
-0.000383634
0.0137947
-0.0014847
0.0304126
-0.00312114
0.0394766
-0.00507674
0.0438172
-0.00720624
0.0461496
-0.00945278
0.0480635
-0.0118095
0.0501236
-0.0142808
0.0524515
-0.0169028
0.0551189
0.0580301
-0.0197341
-0.000317431
0.0141121
-0.00130936
0.0314046
-0.00283818
0.0410054
-0.00470043
0.0456794
-0.00674625
0.0481955
-0.00891194
0.0502292
-0.0111882
0.0523998
-0.0135701
0.0548334
-0.0160763
0.0576251
0.0608444
-0.0188906
-0.000249007
0.0143611
-0.00112618
0.0322817
-0.00254069
0.0424199
-0.00430385
0.0474426
-0.00626149
0.0501531
-0.00834224
0.0523099
-0.0105365
0.0545941
-0.0128451
0.057142
-0.0152274
0.0600074
0.0636842
-0.0180672
-0.000178718
0.0145398
-0.000935659
0.0330387
-0.00222904
0.0437133
-0.0038873
0.0491008
-0.00575225
0.0520181
-0.00774374
0.0543014
-0.00984719
0.0566975
-0.0120763
0.0593711
-0.0144388
0.0623699
0.0659679
-0.0167225
-0.00010715
0.014647
-0.000738191
0.0336697
-0.00190363
0.0448788
-0.00345112
0.0506483
-0.00521869
0.0537856
-0.00711702
0.0561997
-0.00912359
0.0587041
-0.0112482
0.0614957
-0.0134908
0.0646124
0.0683171
-0.0158399
-3.61096e-05
0.0146831
-0.000533771
0.0341674
-0.001565
0.04591
-0.00299584
0.0520792
-0.00466127
0.0554511
-0.00646316
0.0580016
-0.00837115
0.0606121
-0.0103927
0.0635173
-0.0125443
0.066764
0.0705731
-0.0148004
3.87507e-05
0.0146444
-0.000321051
0.0345272
-0.001214
0.0468029
-0.00252211
0.0533873
-0.00408067
0.0570096
-0.00578325
0.0597042
-0.00759213
0.062421
-0.0095122
0.0654374
-0.0115606
0.0688124
0.0727172
-0.0137046
0.000115124
0.0145292
-9.30356e-05
0.0347353
-0.000852153
0.0475621
-0.00203037
0.0545655
-0.00347753
0.0584568
-0.00507784
0.0613045
-0.0067859
0.064129
-0.0086028
0.0672543
-0.0105439
0.0707535
0.0747512
-0.0125779
0.000186441
0.0143428
0.000118796
0.034803
-0.000481456
0.0481623
-0.00152113
0.0556052
-0.00285271
0.0597883
-0.00434732
0.0627991
-0.00595201
0.0657337
-0.00766325
0.0689655
-0.00949454
0.0725848
0.0766784
-0.0114218
0.000254809
0.014088
0.000326624
0.0347312
-8.81135e-05
0.048577
-0.000996289
0.0565134
-0.00220694
0.060999
-0.00359208
0.0641843
-0.00509086
0.0672325
-0.00669408
0.0705687
-0.00841231
0.074303
0.0784935
-0.0102274
0.000322104
0.0137659
0.000541229
0.034512
0.000288519
0.0488298
-0.000460258
0.0572621
-0.00154073
0.0620795
-0.00281284
0.0654564
-0.00420309
0.0686228
-0.00569601
0.0720617
-0.00729844
0.0759055
0.0801897
-0.00899462
0.000387545
0.0133783
0.000756237
0.0341433
0.000676554
0.0489094
9.43271e-05
0.0578444
-0.000855246
0.063029
-0.00201043
0.0666116
-0.00328935
0.0699017
-0.00466969
0.073442
-0.00615432
0.0773901
0.0817631
-0.00772772
0.00044988
0.0129285
0.00096992
0.0336233
0.00107147
0.0488079
0.00065309
0.0582627
-0.000152854
0.063835
-0.00118565
0.0676444
-0.00235041
0.0710664
-0.00361583
0.0747074
-0.00498138
0.0787556
0.0832113
-0.00642958
0.000508245
0.0124202
0.00117988
0.0329517
0.00146857
0.0485192
0.00122665
0.0585047
0.000568471
0.0644932
-0.000340532
0.0685534
-0.00138753
0.0721134
-0.00253531
0.0758552
-0.00378144
0.0800018
0.0845321
-0.00510224
0.000561772
0.0118584
0.00138355
0.0321299
0.001865
0.0480377
0.00180805
0.0585616
0.00130552
0.0649957
0.000527789
0.0693311
-0.000403571
0.0730448
-0.00142954
0.0768812
-0.00255604
0.0811283
0.0857242
-0.00374812
0.0006096
0.0112488
0.00157831
0.0311612
0.00225738
0.0473587
0.00239432
0.0584247
0.00205624
0.0653338
0.00141565
0.0699717
0.000606751
0.0738537
-0.000306015
0.0777939
-0.00130388
0.0821261
0.086792
-0.00237172
0.000650928
0.0105979
0.00176151
0.0300506
0.00264193
0.0464783
0.00298213
0.0580845
0.00281795
0.065498
0.00232073
0.0704689
0.00163879
0.0745356
0.000852855
0.0785799
7.74349e-06
0.0829712
0.0877814
-0.000981644
0.00068505
0.00991286
0.00193037
0.0288053
0.00301444
0.0453942
0.00356736
0.0575316
0.00358753
0.0654778
0.00324111
0.0708153
0.00268894
0.0750878
0.00202343
0.0792454
0.00127109
0.0837236
0.0886171
0.000435344
0.00071137
0.00920149
0.00208207
0.0274346
0.00337026
0.044106
0.00414514
0.0567567
0.00436111
0.0652618
0.004174
0.0710024
0.00375577
0.075506
0.00321363
0.0797875
0.00259495
0.0843423
0.0892938
0.00191828
0.000729428
0.00847206
0.0022136
0.0259504
0.00370424
0.0426154
0.00470987
0.055751
0.00513404
0.0648377
0.00511633
0.0710201
0.00483812
0.0757842
0.00442392
0.0802017
0.00393463
0.0848315
0.0898364
0.00339206
0.00073894
0.00773312
0.00232206
0.0243673
0.00401086
0.0409266
0.00525508
0.0545068
0.00590074
0.064192
0.0060642
0.0708567
0.00593319
0.0759153
0.00564954
0.0804854
0.00528662
0.0851945
0.0902504
0.00487261
0.000739829
0.00699329
0.002405
0.0227021
0.00428423
0.0390473
0.00577338
0.0530177
0.00665449
0.0633109
0.00701261
0.0704986
0.00703722
0.0758906
0.00688705
0.0806356
0.00665038
0.0854311
0.0905373
0.00636345
0.00073222
0.00626107
0.00246028
0.0209741
0.00451828
0.0369893
0.00625648
0.0512795
0.00738731
0.0621801
0.0079554
0.0699305
0.00814609
0.0756999
0.00813393
0.0806477
0.00802481
0.0855403
0.0906983
0.00786386
0.000716441
0.00554463
0.00248631
0.0192042
0.00470693
0.0347687
0.00669521
0.0492912
0.00808983
0.0607854
0.00888513
0.0691352
0.00925489
0.0753302
0.00938734
0.0805153
0.00940786
0.0855197
0.0907342
0.00937191
0.000693027
0.0048516
0.00248222
0.017415
0.00484437
0.0324066
0.00707966
0.0470559
0.00875123
0.0591139
0.00979277
0.0680936
0.0103575
0.0747655
0.0106434
0.0802293
0.0107968
0.0853664
0.0906448
0.0108862
0.000662711
0.00418889
0.00244801
0.0156297
0.00492549
0.0299291
0.00739943
0.0445819
0.00935917
0.0571541
0.0106674
0.0667854
0.0114459
0.073987
0.0118972
0.079778
0.0121884
0.0850752
0.0904289
0.0124043
0.000626405
0.00356249
0.00238466
0.0138714
0.00494633
0.0273674
0.00764402
0.0418843
0.00989986
0.0548983
0.011496
0.0651893
0.0125105
0.0729724
0.0131424
0.0791461
0.0135785
0.0846391
0.0900844
0.0139229
0.000585164
0.00297732
0.00229417
0.0121624
0.00490458
0.024757
0.00780337
0.0389855
0.0103582
0.0523434
0.0122632
0.0632843
0.0135388
0.0716968
0.0143705
0.0783144
0.014962
0.0840476
0.0896082
0.0154383
0.000540145
0.00243718
0.00217952
0.0105231
0.00480008
0.0221364
0.00786864
0.0359169
0.0107184
0.0494936
0.0129513
0.0610515
0.0145159
0.0701322
0.0155712
0.0772591
0.0163323
0.0832865
0.0889946
0.0169459
0.000492552
0.00194463
0.00204452
0.00897108
0.00463523
0.0195457
0.00783316
0.032719
0.0109645
0.0463623
0.0135403
0.0584757
0.0154233
0.0682492
0.0167307
0.0759517
0.0176806
0.0823366
0.0882348
0.0184403
0.000443598
0.00150103
0.00189368
0.007521
0.00441521
0.0170242
0.00769353
0.0294407
0.0110814
0.0429744
0.0140086
0.0555485
0.0162394
0.0660184
0.0178318
0.0743593
0.0189953
0.0811731
0.0873157
0.0199143
0.00039446
0.00110657
0.0017319
0.00618356
0.00414782
0.0146083
0.00745074
0.0261378
0.0110564
0.0393688
0.0143333
0.0522717
0.0169388
0.0634128
0.018853
0.0724451
0.0202611
0.0797651
0.0862185
0.0213583
0.000346265
0.000760304
0.00156425
0.00496557
0.0038432
0.0123293
0.00711108
0.0228699
0.0108812
0.0355987
0.0144921
0.0486608
0.0174934
0.0604115
0.019768
0.0701705
0.0214582
0.0780749
0.0849171
0.0227595
0.000300084
0.00046022
0.00139584
0.00386982
0.00351316
0.010212
0.00668659
0.0196965
0.0105537
0.0317315
0.014465
0.0447495
0.0178724
0.0570041
0.0205451
0.0674978
0.0225608
0.0760592
0.0833775
0.0241004
0.00025694
0.00020328
0.00123157
0.00289519
0.00317046
0.00827313
0.00619479
0.0166721
0.0100804
0.0278459
0.0142375
0.0405924
0.018045
0.0531966
0.0211481
0.0643946
0.0235367
0.0736706
0.081556
0.0253582
0.000217811
-1.45308e-05
0.0010761
0.0020369
0.00282794
0.00652129
0.00565757
0.0138425
0.00947742
0.0240261
0.0138034
0.0362665
0.0179826
0.0490174
0.0215372
0.0608401
0.0243466
0.0708611
0.0794008
0.0265019
0.000183598
-0.000198129
0.000933589