/*--------------------------------*- C++ -*----------------------------------*\
  =========                 |
  \\      /  F ield         | OpenFOAM: The Open Source CFD Toolbox
   \\    /   O peration     | Website:  https://openfoam.org
    \\  /    A nd           | Version:  7
     \\/     M anipulation  |
\*---------------------------------------------------------------------------*/
FoamFile
{
    version     2.0;
    format      ascii;
    class       volVectorField;
    location    "190";
    object      U;
}
// * * * * * * * * * * * * * * * * * * * * * * * * * * * * * * * * * * * * * //

dimensions      [0 1 -1 0 0 0 0];

internalField   nonuniform List<vector> 
8500
(
(-0.00219642 0.00786747 1.00533e-21)
(-0.0113268 0.0388192 -2.88493e-21)
(-0.027619 0.0765001 -3.36258e-21)
(-0.0468913 0.113636 3.33901e-21)
(-0.0676521 0.147155 -3.06375e-21)
(-0.0883447 0.177642 -1.63181e-21)
(-0.107493 0.207354 2.78938e-21)
(-0.12409 0.238266 3.43688e-21)
(-0.137389 0.271112 -5.60274e-22)
(-0.146829 0.305647 1.67283e-21)
(-0.00227615 0.0108997 -1.11195e-21)
(-0.0111493 0.0454776 3.43044e-21)
(-0.0260419 0.0853965 -7.90795e-21)
(-0.0433616 0.123822 7.15421e-21)
(-0.0617391 0.15776 3.43315e-22)
(-0.0797174 0.187808 5.27825e-21)
(-0.0958206 0.216334 -9.13301e-21)
(-0.108916 0.245561 -1.33459e-20)
(-0.11803 0.276512 -2.57494e-21)
(-0.121836 0.308996 5.88149e-21)
(-0.00252016 0.0132268 9.87936e-22)
(-0.0112948 0.0506395 7.35007e-21)
(-0.0247781 0.0924015 1.73569e-20)
(-0.0399743 0.13197 -1.56559e-20)
(-0.0556374 0.166326 -3.46165e-21)
(-0.0704258 0.195962 -3.19276e-21)
(-0.0828812 0.22326 1.61896e-20)
(-0.0917501 0.250633 1.01837e-20)
(-0.0959181 0.279398 2.56303e-21)
(-0.0929812 0.309396 -1.81511e-20)
(-0.00287156 0.0148422 3.49081e-21)
(-0.0117 0.0542577 -4.34841e-21)
(-0.0238514 0.0974049 -3.18885e-20)
(-0.0368703 0.13791 2.8671e-21)
(-0.0496131 0.172638 8.72982e-21)
(-0.0608601 0.201874 -6.67159e-21)
(-0.0691975 0.227914 -5.50812e-22)
(-0.0732636 0.253273 -2.66228e-21)
(-0.0719384 0.279563 6.18276e-21)
(-0.0614856 0.306897 1.77832e-20)
(-0.00327742 0.015781 2.40336e-21)
(-0.0123013 0.0563602 -1.35297e-20)
(-0.0232781 0.100375 3.26195e-20)
(-0.0341811 0.141532 -1.46286e-20)
(-0.043927 0.176524 -9.04522e-23)
(-0.0514144 0.205345 2.00353e-20)
(-0.0553046 0.230098 -9.27557e-21)
(-0.0541489 0.25332 1.14226e-21)
(-0.04689 0.276805 -3.77862e-21)
(-0.0284901 0.301368 1.08214e-21)
(-0.00369524 0.016116 2.8536e-20)
(-0.0130437 0.0570456 3.45807e-20)
(-0.0230695 0.101356 -8.9064e-21)
(-0.0320254 0.142799 1.68006e-20)
(-0.0388271 0.177872 5.10806e-21)
(-0.0424725 0.206212 -7.51294e-21)
(-0.0417264 0.229644 -2.83292e-21)
(-0.0351162 0.250635 -1.20363e-20)
(-0.0216628 0.271073 2.5838e-21)
(0.00502222 0.292445 -1.60433e-20)
(-0.00409763 0.0159478 -2.74622e-20)
(-0.0138923 0.0564819 -1.79401e-20)
(-0.0232393 0.100481 1.43709e-20)
(-0.0305007 0.141756 -2.46383e-20)
(-0.0345319 0.176628 2.60074e-21)
(-0.0343917 0.204354 2.83569e-20)
(-0.0289626 0.226416 -5.04719e-21)
(-0.0167871 0.245104 3.32593e-20)
(0.00282979 0.262364 -8.41894e-22)
(0.0379968 0.280004 -1.34031e-20)
(-0.00447188 0.0154018 2.25324e-20)
(-0.0148284 0.0548899 -4.05629e-20)
(-0.0238056 0.0979554 -1.59983e-20)
(-0.0296935 0.138525 1.89457e-20)
(-0.0312206 0.172808 4.06726e-22)
(-0.0274709 0.199712 -5.2874e-20)
(-0.0174516 0.220315 -2.89898e-21)
(0.000272629 0.236655 -2.56741e-20)
(0.0258447 0.250604 -3.30902e-20)
(0.0695224 0.264089 1.95093e-20)
(-0.00482828 0.0146173 -1.26127e-20)
(-0.0158611 0.0525213 6.06324e-21)
(-0.0247883 0.094036 1.47759e-20)
(-0.029658 0.133306 -1.27039e-20)
(-0.0290153 0.166526 -4.50647e-20)
(-0.0219278 0.192301 1.55892e-20)
(-0.00752672 0.211304 2.39062e-21)
(0.0156192 0.225262 3.79841e-20)
(0.0468152 0.235807 4.98325e-20)
(0.0990178 0.244642 -2.25997e-20)
(-0.00519676 0.0137358 1.94049e-20)
(-0.0170258 0.0496505 1.75213e-20)
(-0.0262081 0.0890302 -2.52094e-21)
(-0.0304105 0.126376 6.39907e-20)
(-0.0279555 0.157978 2.70283e-20)
(-0.0178551 0.182232 2.0057e-20)
(0.000648122 0.199428 2.78251e-20)
(0.0290321 0.210978 -1.25277e-20)
(0.0654468 0.218088 -1.65211e-20)
(0.126453 0.221612 -2.67563e-20)
(-0.00562401 0.0128928 -2.02032e-21)
(-0.0183769 0.0465528 -2.73549e-20)
(-0.028077 0.0832721 -1.95694e-20)
(-0.0319136 0.118068 -3.12968e-20)
(-0.0279693 0.147457 -2.44284e-20)
(-0.015166 0.16973 2.43206e-20)
(0.00716992 0.184854 -2.30082e-20)
(0.0406608 0.193976 -1.59143e-20)
(0.0819285 0.197682 2.01981e-21)
(0.152749 0.195152 7.31148e-21)
(-0.00616834 0.0122088 -5.2326e-20)
(-0.0199764 0.0434849 2.49804e-20)
(-0.0303826 0.077101 1.80866e-20)
(-0.0340531 0.108765 1.18769e-20)
(-0.0288342 0.135344 -2.12642e-20)
(-0.0135254 0.155146 -1.78953e-20)
(0.012516 0.1679 2.55863e-20)
(0.051221 0.174612 -2.05034e-20)
(0.097262 0.174976 -1.08462e-21)
(0.180303 0.165901 -2.10798e-20)
(-0.00689224 0.0117813 4.32447e-20)
(-0.0218761 0.0406656 1.74093e-20)
(-0.0330657 0.0708404 1.05245e-21)
(-0.0366084 0.0988735 -2.16981e-20)
(-0.0301323 0.122101 1.7294e-21)
(-0.0122735 0.138969 2.30269e-20)
(0.0176783 0.149071 -6.41151e-21)
(0.0621994 0.153479 -7.57815e-21)
(0.113654 0.150522 -1.74122e-20)
(0.213299 0.135299 3.21416e-20)
(-0.00785182 0.0116726 2.85471e-20)
(-0.0240977 0.0382578 -4.67956e-20)
(-0.0359969 0.0647802 -3.56657e-20)
(-0.0392228 0.0888036 1.54786e-20)
(-0.0312084 0.108248 3.10457e-20)
(-0.0103584 0.121809 2.54855e-20)
(0.0242714 0.129056 -2.67866e-20)
(0.0759715 0.131407 5.14099e-20)
(0.134791 0.125043 -1.52341e-20)
(0.257232 0.105708 -3.72143e-20)
(-0.0090843 0.0119046 -4.33549e-20)
(-0.026612 0.0363637 2.605e-20)
(-0.0389502 0.059151 -1.20632e-20)
(-0.0413825 0.0789408 1.27396e-21)
(-0.0311462 0.0943354 1.27809e-20)
(-0.00631195 0.104366 -4.03853e-20)
(0.0345453 0.10871 3.50478e-20)
(0.0956984 0.109409 -3.37708e-20)
(0.165709 0.0994996 5.41139e-20)
(0.317281 0.0799515 1.96237e-20)
(-0.0105963 0.0124571 8.9171e-21)
(-0.0293249 0.0350077 4.98576e-20)
(-0.0415944 0.0541028 -1.23162e-20)
(-0.0424136 0.0696186 1.24849e-20)
(-0.0287856 0.0808948 1.40569e-20)
(0.00169109 0.0873794 -4.16658e-21)
(0.051228 0.0889903 2.98001e-20)
(0.124923 0.0885348 1.47697e-21)
(0.211984 0.07525 -3.45871e-20)
(0.39579 0.0604073 4.65387e-20)
(-0.0123571 0.013264 -2.41129e-20)
(-0.0320655 0.034129 -4.7056e-20)
(-0.0434952 0.0496969 4.06718e-20)
(-0.0415116 0.0610865 2.01035e-20)
(-0.0227971 0.0683869 -9.21996e-20)
(0.0156693 0.0715425 7.40341e-20)
(0.0771716 0.0708563 -6.56225e-20)
(0.166948 0.0696886 9.75275e-22)
(0.278255 0.0542645 -1.46844e-20)
(0.490181 0.0483486 -4.31055e-20)
(-0.0142948 0.0142199 2.06315e-20)
(-0.0345933 0.0335923 -2.72525e-21)
(-0.0441412 0.0458993 -9.97579e-21)
(-0.0377957 0.0534772 -1.26309e-21)
(-0.0118076 0.0571451 -5.77753e-21)
(0.037584 0.0574235 -2.35394e-20)
(0.114868 0.0551503 9.75578e-21)
(0.224241 0.0535109 -1.53919e-20)
(0.366421 0.0390018 4.56585e-21)
(0.592955 0.0438913 1.16377e-21)
(-0.0162993 0.0151918 -4.20988e-20)
(-0.0366115 0.0332017 -2.96868e-21)
(-0.0429904 0.0425903 4.57059e-21)
(-0.0303831 0.0467835 1.87398e-21)
(0.00545047 0.0473404 3.01104e-20)
(0.0690665 0.0453977 -8.65918e-20)
(0.165968 0.042472 5.73199e-20)
(0.29804 0.0404646 -4.2541e-20)
(0.474217 0.0315818 3.60132e-20)
(0.694848 0.0455681 3.98561e-20)
(-0.0182302 0.0160351 -5.08968e-21)
(-0.0377782 0.0327207 2.34496e-20)
(-0.0395037 0.039563 -2.9258e-20)
(-0.0184831 0.0408813 -9.11167e-21)
(0.0300063 0.038991 1.74114e-20)
(0.111201 0.0356379 8.24523e-20)
(0.230943 0.0331124 -1.62309e-20)
(0.38795 0.0311876 7.73405e-21)
(0.594775 0.0324094 -4.17225e-20)
(0.790504 0.048082 1.93233e-20)
(-0.0199316 0.0166095 -1.53586e-20)
(-0.037727 0.0318914 -1.19679e-20)
(-0.0331677 0.0365696 2.99763e-21)
(-0.00143979 0.0355821 1.14675e-20)
(0.0625728 0.0320041 -3.37784e-20)
(0.164433 0.0281803 -1.3503e-20)
(0.309049 0.0271215 -4.20583e-20)
(0.491311 0.0266915 4.25777e-20)
(0.717234 0.0386728 4.51725e-20)
(0.881985 0.0434765 -1.91124e-20)
(-0.0212536 0.0167974 -7.36847e-21)
(-0.0361198 0.0305113 2.9928e-20)
(-0.0234908 0.0333603 -3.33326e-20)
(0.0212712 0.0306692 -3.90441e-21)
(0.103554 0.0262582 -1.56407e-20)
(0.228595 0.0230404 3.35518e-20)
(0.398581 0.0245172 4.25723e-20)
(0.603174 0.0276613 -4.06111e-20)
(0.83058 0.0444333 4.347e-20)
(1.00153 0.039697 6.06067e-21)
(-0.0220351 0.0165214 -2.13931e-20)
(-0.0326513 0.0284281 -6.05642e-20)
(-0.0100481 0.0297285 5.90315e-20)
(0.0500703 0.0259945 8.45016e-21)
(0.153095 0.0217022 1.21377e-20)
(0.302957 0.0203086 7.63925e-21)
(0.496985 0.0253965 3.28975e-20)
(0.717141 0.0332913 2.39255e-20)
(0.938004 0.0516775 -8.44393e-20)
(1.10301 0.0495406 -4.14133e-20)
(-0.0221334 0.0157576 -7.30254e-20)
(-0.0269873 0.0255519 1.46587e-20)
(0.00753433 0.0255943 -3.35292e-20)
(0.0852785 0.0215316 6.47124e-21)
(0.211113 0.0184299 1.02684e-20)
(0.386256 0.0201914 -7.366e-20)
(0.600871 0.0298442 3.25417e-20)
(0.827939 0.0425192 -2.1554e-20)
(1.03518 0.0619296 2.25755e-20)
(1.18135 0.0613158 -7.96578e-21)
(-0.0214385 0.0145171 2.65094e-20)
(-0.0188196 0.0218859 2.87641e-20)
(0.0296244 0.0210083 -1.73991e-21)
(0.127141 0.0174191 -9.13148e-21)
(0.277279 0.0167149 2.21069e-22)
(0.476676 0.0229634 5.1422e-22)
(0.70632 0.0377495 -4.93046e-20)
(0.931354 0.0545337 6.50408e-21)
(1.11873 0.0740408 6.10449e-20)
(1.24364 0.0741011 2.75462e-20)
(-0.0198376 0.0128401 -1.80383e-20)
(-0.00786395 0.0175404 -1.32642e-20)
(0.0565657 0.0161626 5.735e-20)
(0.1758 0.0139749 1.47527e-21)
(0.350937 0.0169862 -2.40864e-20)
(0.571835 0.0288545 6.39222e-20)
(0.809405 0.0487708 1.40504e-20)
(1.02429 0.0685617 9.51711e-22)
(1.18821 0.0872804 -2.67906e-20)
(1.28975 0.0872141 -3.49809e-20)
(-0.0172219 0.0107987 3.80424e-20)
(0.00615442 0.0127111 -1.04825e-20)
(0.0886576 0.0113824 -6.30654e-21)
(0.231238 0.0116727 -2.38921e-20)
(0.431002 0.0197414 3.88927e-20)
(0.66891 0.0379362 -1.88746e-20)
(0.906691 0.0623987 -2.13193e-20)
(1.10506 0.0839317 -4.8971e-21)
(1.24388 0.101067 -1.55772e-20)
(1.32323 0.100123 1.68844e-20)
(-0.0134837 0.00848572 -1.39632e-20)
(0.0234933 0.00766168 -8.34823e-20)
(0.126119 0.00710152 8.64041e-21)
(0.293185 0.0110866 2.99262e-20)
(0.515902 0.0254219 2.13192e-20)
(0.764921 0.050069 -7.09094e-20)
(0.995599 0.0780624 4.53407e-20)
(1.17317 0.100093 -2.04327e-20)
(1.2871 0.114995 3.0764e-20)
(1.34629 0.11278 8.4839e-21)
(-0.00851367 0.00600763 -1.54669e-20)
(0.0443765 0.00270737 2.9562e-20)
(0.16904 0.00382709 3.87957e-20)
(0.361035 0.0128117 -2.77098e-20)
(0.603631 0.0343013 1.03013e-20)
(0.857092 0.0649334 -6.25534e-20)
(1.07453 0.0952142 -1.15026e-20)
(1.22903 0.116633 9.73499e-21)
(1.31952 0.128839 -2.34689e-20)
(1.36133 0.125112 -2.38124e-20)
(-0.00220302 0.0034808 -2.01304e-20)
(0.0689736 -0.00180099 -6.93098e-21)
(0.217333 0.00210072 -7.05906e-20)
(0.433808 0.0173772 -1.10907e-20)
(0.691926 0.0464343 -1.10601e-21)
(0.943154 0.0821076 3.78286e-21)
(1.14279 0.113383 6.30553e-21)
(1.2736 0.133265 -3.08571e-20)
(1.34292 0.142483 5.67695e-22)
(1.37021 0.13719 1.64743e-20)
(0.00555103 0.00103047 -5.31708e-21)
(0.0973773 -0.00548978 2.45068e-20)
(0.270688 0.00245946 3.45705e-20)
(0.510162 0.025173 2.16448e-20)
(0.778526 0.0616759 -6.34367e-21)
(1.0215 0.101146 -5.32636e-21)
(1.20041 0.132192 5.22383e-20)
(1.30817 0.149815 7.03085e-21)
(1.35896 0.155905 2.32777e-20)
(1.37448 0.149083 -9.9612e-21)
(0.0148351 -0.0012073 5.08108e-20)
(0.129581 -0.00797222 3.27124e-20)
(0.328554 0.00539828 -3.32168e-20)
(0.588494 0.0364093 -6.62242e-21)
(0.861404 0.0797428 3.50475e-21)
(1.09118 0.121631 -1.26009e-20)
(1.24792 0.151364 -2.69736e-20)
(1.33412 0.166192 -4.37089e-21)
(1.36912 0.169131 2.90686e-22)
(1.3753 0.16088 1.08351e-20)
(0.0257098 -0.00308622 6.44223e-21)
(0.16546 -0.00885995 -1.79249e-20)
(0.390139 0.011335 4.25016e-20)
(0.667076 0.0511158 2.76483e-20)
(0.938929 0.100281 9.23367e-22)
(1.15183 0.143201 1.94677e-20)
(1.28613 0.170702 2.82295e-21)
(1.3528 0.182368 -2.03648e-20)
(1.37463 0.182215 1.70932e-20)
(1.37356 0.172654 1.85947e-23)
(0.0382023 -0.00445051 -4.22484e-20)
(0.204759 -0.00777434 -1.2433e-20)
(0.454442 0.0205819 -1.11784e-20)
(0.744215 0.0691718 -1.94768e-20)
(1.00992 0.122918 4.65427e-21)
(1.20351 0.165556 9.56126e-23)
(1.31603 0.190079 1.49625e-20)
(1.36543 0.198352 -2.46892e-21)
(1.37651 0.195222 -1.76656e-20)
(1.36987 0.184463 -1.62954e-20)
(0.0522979 -0.00513701 3.45879e-21)
(0.247089 -0.00436143 2.02518e-20)
(0.520311 0.0333287 9.85273e-21)
(0.818379 0.0903484 -3.06219e-20)
(1.07365 0.147293 -1.48129e-21)
(1.2466 0.188455 -1.30939e-20)
(1.33861 0.209419 3.30365e-22)
(1.37306 0.214176 6.02944e-21)
(1.37551 0.20821 -6.64677e-21)
(1.36467 0.196342 1.84747e-20)
(0.0679352 -0.00497944 8.19157e-21)
(0.29193 0.00169071 -1.99239e-20)
(0.586514 0.0496383 -4.70042e-20)
(0.888282 0.114348 4.32312e-20)
(1.12972 0.173069 -3.20408e-21)
(1.28165 0.211706 9.45293e-21)
(1.35482 0.228679 -1.29122e-21)
(1.37659 0.229879 8.96843e-21)
(1.37222 0.221224 -6.91325e-22)
(1.35826 0.208306 -1.43059e-20)
(0.0850029 -0.00381414 -1.67474e-20)
(0.338647 0.0106343 2.60482e-20)
(0.651815 0.0694548 2.14248e-20)
(0.952915 0.140837 -3.09328e-20)
(1.17807 0.199941 -5.13482e-21)
(1.3093 0.235159 1.93631e-21)
(1.36555 0.247838 1.93631e-20)
(1.37671 0.245494 9.42764e-22)
(1.36707 0.234292 3.68781e-21)
(1.3508 0.220349 -7.92494e-21)
(0.10334 -0.00148692 1.27125e-20)
(0.386513 0.0226465 -1.14177e-20)
(0.715043 0.0926194 -9.7678e-21)
(1.01155 0.16946 1.66631e-20)
(1.21883 0.227636 5.71654e-21)
(1.33024 0.258692 4.30364e-21)
(1.37155 0.26688 -1.9757e-20)
(1.374 0.261044 -6.7035e-21)
(1.36035 0.24742 -5.93936e-21)
(1.34242 0.232446 2.60997e-21)
(0.122736 0.00213972 -6.39685e-21)
(0.434738 0.0378188 -1.45993e-22)
(0.775144 0.118889 1.84963e-20)
(1.0637 0.199861 -6.74916e-21)
(1.25227 0.255902 -2.99043e-21)
(1.34511 0.282203 -1.95649e-21)
(1.37346 0.285792 4.787e-21)
(1.36888 0.276535 8.18498e-21)
(1.35226 0.260597 -2.65695e-22)
(1.33318 0.244559 2.92752e-21)
(0.142941 0.00717935 4.51548e-21)
(0.482503 0.0561516 -1.26725e-21)
(0.83121 0.147954 -3.32348e-21)
(1.10909 0.231684 -3.00525e-21)
(1.27874 0.284513 2.69088e-21)
(1.35454 0.305598 2.08261e-21)
(1.37182 0.30455 -1.91166e-21)
(1.36169 0.291956 6.80673e-22)
(1.34294 0.273787 9.48792e-22)
(1.3231 0.256633 -1.24685e-21)
(0.163665 0.0137151 2.44922e-21)
(0.528995 0.077555 6.94476e-22)
(0.8825 0.179457 -4.15745e-21)
(1.14762 0.264576 -3.30404e-21)
(1.29866 0.313257 3.42549e-21)
(1.35907 0.32879 6.68544e-22)
(1.36706 0.32312 -1.52486e-21)
(1.35264 0.307275 1.42487e-21)
(1.33246 0.286941 7.83924e-22)
(1.31221 0.268608 -8.86052e-22)
(0.184594 0.0217946 -9.52882e-22)
(0.573434 0.101853 1.94706e-21)
(0.928437 0.213005 1.2856e-20)
(1.17931 0.298195 -5.70204e-21)
(1.31246 0.341932 -2.75651e-21)
(1.3592 0.351687 -3.07951e-21)
(1.35954 0.341453 6.26433e-21)
(1.34191 0.322442 4.1521e-21)
(1.32088 0.299988 3.27048e-21)
(1.30051 0.280413 1.74451e-21)
(0.205394 0.0314261 1.97422e-20)
(0.615102 0.128794 -1.08321e-20)
(0.968597 0.248182 -1.22578e-20)
(1.20429 0.332205 1.66083e-20)
(1.32055 0.370344 8.67795e-21)
(1.35535 0.374193 -5.67768e-22)
(1.34951 0.359484 -1.04607e-20)
(1.32962 0.33739 -7.45839e-21)
(1.30823 0.312844 -7.63381e-21)
(1.28801 0.291972 4.4709e-21)
(0.225724 0.0425771 -2.67381e-20)
(0.653361 0.158058 2.51084e-20)
(1.0027 0.284556 2.88343e-20)
(1.22274 0.366277 -2.82415e-20)
(1.32334 0.398306 -9.67693e-21)
(1.34788 0.396203 6.13747e-21)
(1.33721 0.377133 1.0988e-20)
(1.31585 0.352031 1.70022e-21)
(1.29451 0.325408 -2.71712e-22)
(1.27469 0.303203 -6.03825e-21)
(0.245244 0.0551741 -3.87025e-21)
(0.687663 0.189272 -3.541e-20)
(1.03059 0.321687 -3.77896e-20)
(1.23492 0.400093 4.20902e-20)
(1.32123 0.425628 -4.75889e-21)
(1.33712 0.417605 8.58008e-21)
(1.32279 0.394309 1.63795e-21)
(1.30065 0.366272 -4.63386e-21)
(1.27971 0.33758 2.48397e-21)
(1.26045 0.314029 -3.11849e-22)
(0.263626 0.0691045 7.85526e-21)
(0.717563 0.222019 2.19975e-20)
(1.05221 0.359137 1.23976e-20)
(1.24111 0.433344 -9.74532e-21)
(1.31457 0.452124 -1.50063e-20)
(1.32333 0.438276 -1.37535e-20)
(1.30641 0.41091 -2.7319e-21)
(1.28407 0.38002 7.12783e-21)
(1.26381 0.349286 -1.49956e-21)
(1.24511 0.324373 3.34744e-21)
(0.280564 0.0842199 -2.98147e-20)
(0.74272 0.25585 -2.77047e-20)
(1.0676 0.396466 -4.38132e-21)
(1.24162 0.465729 -4.94072e-21)
(1.30371 0.477607 -1.10481e-20)
(1.30675 0.458086 6.63121e-21)
(1.28818 0.426821 -1.18992e-21)
(1.26617 0.393179 -6.18538e-21)
(1.24683 0.360515 5.59753e-21)
(1.22861 0.334113 -7.82435e-21)
(0.295778 0.100339 7.04159e-21)
(0.762895 0.290301 2.34965e-20)
(1.07688 0.433246 2.03344e-20)
(1.23675 0.496958 2.19634e-20)
(1.28896 0.50189 4.3739e-22)
(1.2876 0.476895 1.87083e-20)
(1.2682 0.441913 1.17882e-21)
(1.24699 0.405627 -2.1192e-20)
(1.22883 0.37125 1.48874e-20)
(1.21141 0.343116 5.37355e-21)
(0.309026 0.117254 1.93595e-20)
(0.777947 0.324901 4.32074e-20)
(1.08021 0.46906 -5.68399e-21)
(1.22686 0.526751 -2.76934e-20)
(1.27064 0.52479 1.23562e-20)
(1.26605 0.494563 -1.26546e-20)
(1.24657 0.456053 -1.65405e-20)
(1.2266 0.417233 -1.30519e-21)
(1.20976 0.38123 -1.21995e-20)
(1.19366 0.351506 4.58181e-21)
(0.320104 0.134732 9.12391e-21)
(0.787823 0.35918 6.79116e-21)
(1.07784 0.503509 5.36648e-20)
(1.21227 0.554839 9.92413e-21)
(1.24902 0.546125 -8.59158e-21)
(1.24229 0.510941 -4.33152e-21)
(1.22344 0.469107 2.52585e-20)
(1.20505 0.427908 2.03206e-20)
(1.18966 0.390333 9.86237e-21)
(1.17522 0.359069 -1.26739e-21)
(0.328852 0.152526 1.92094e-21)
(0.792547 0.392681 -4.4213e-20)
(1.07003 0.536211 -6.3153e-20)
(1.19333 0.580966 1.91272e-21)
(1.22438 0.565715 1.20218e-20)
(1.21653 0.525872 -1.66029e-20)
(1.19889 0.480939 -3.67818e-20)
(1.18236 0.437533 -1.0673e-20)
(1.16864 0.398458 -6.29954e-22)
(1.15605 0.365716 4.52291e-21)
(0.335156 0.170381 -1.58598e-20)
(0.792222 0.424962 3.99843e-20)
(1.05711 0.566813 3.7993e-20)
(1.17039 0.604889 -3.47224e-20)
(1.19698 0.583375 5.29746e-21)
(1.18893 0.53921 3.96989e-20)
(1.17301 0.49142 -8.52188e-21)
(1.15861 0.445992 7.05101e-21)
(1.14675 0.405507 -3.11031e-21)
(1.1362 0.371351 -3.96468e-21)
(0.338944 0.188033 -3.57928e-20)
(0.787025 0.455597 -6.29996e-20)
(1.03946 0.595 -1.22807e-20)
(1.14377 0.626381 2.00164e-20)
(1.16707 0.59893 1.93137e-20)
(1.15965 0.550796 -3.95143e-20)
(1.14591 0.50042 2.0928e-20)
(1.13389 0.453171 -1.03743e-20)
(1.12407 0.411382 7.88599e-21)
(1.11574 0.375907 3.73102e-22)
(0.340198 0.205222 2.73066e-20)
(0.777211 0.484177 1.88627e-21)
(1.01745 0.620486 -6.10205e-21)
(1.11372 0.645214 -2.47608e-20)
(1.13495 0.612214 1.57906e-20)
(1.12888 0.560484 3.3866e-21)
(1.11772 0.507816 -1.17254e-20)
(1.10831 0.458963 2.27077e-21)
(1.10068 0.415984 -1.82768e-21)
(1.09476 0.379304 4.82673e-22)
(0.33896 0.221696 -7.50972e-21)
(0.763103 0.510353 -1.05134e-20)
(0.991229 0.642927 2.65315e-20)
(1.08067 0.661234 1.22077e-20)
(1.10091 0.623047 -1.62894e-20)
(1.0968 0.568153 2.22538e-20)
(1.08858 0.513494 1.72611e-21)
(1.08195 0.463269 2.17284e-21)
(1.07665 0.419212 1.29363e-21)
(1.07335 0.381447 3.49538e-22)
(0.335321 0.237202 4.87554e-20)
(0.74501 0.53394 3.74748e-20)
(0.96102 0.661966 -2.5625e-21)
(1.04508 0.674217 -5.71136e-21)
(1.06519 0.631319 -6.59512e-21)
(1.0636 0.573681 -3.09045e-21)
(1.05862 0.517349 1.99628e-21)
(1.05494 0.466003 1.3735e-21)
(1.05208 0.420969 -7.46557e-22)
(1.05157 0.382236 -3.33818e-21)
(0.32936 0.251401 4.15258e-21)
(0.723077 0.554638 6.58898e-21)
(0.927546 0.677628 -3.4543e-20)
(1.00736 0.683918 1.52247e-20)
(1.02808 0.636916 3.90641e-21)
(1.02948 0.576964 -8.25702e-21)
(1.028 0.519287 2.70536e-21)
(1.02739 0.467086 1.09062e-21)
(1.02711 0.421186 -3.58387e-21)
(1.02964 0.38162 4.31394e-21)
(0.321081 0.264005 -1.85099e-20)
(0.697547 0.571936 -1.35683e-20)
(0.891384 0.68973 1.11599e-20)
(0.967799 0.690293 2.89376e-21)
(0.989831 0.639731 -5.8296e-21)
(0.994619 0.577904 5.05428e-21)
(0.996838 0.519217 2.13969e-21)
(0.999393 0.466426 -7.64746e-21)
(1.00197 0.419792 2.04735e-20)
(1.00822 0.379635 8.44125e-21)
(0.31071 0.274798 -1.43414e-20)
(0.668911 0.58554 3.61215e-20)
(0.85286 0.69805 -2.28808e-20)
(0.926736 0.693267 -3.19662e-21)
(0.950695 0.639678 -3.67418e-21)
(0.959211 0.576421 -2.42828e-22)
(0.965258 0.517053 -6.98087e-21)
(0.97107 0.463889 3.8584e-21)
(0.97707 0.416592 -6.13012e-22)
(0.988001 0.376304 -3.75448e-21)
(0.298512 0.283771 -9.81159e-22)
(0.637631 0.595353 -1.07269e-20)
(0.812383 0.702389 5.90068e-21)
(0.884514 0.69276 -3.20327e-21)
(0.910944 0.636695 3.9272e-21)
(0.923443 0.572461 4.4653e-21)
(0.933386 0.512748 1.38086e-20)
(0.94262 0.459379 -1.06754e-20)
(0.952784 0.411227 -2.07653e-20)
(0.968245 0.370952 9.07941e-21)
(0.284614 0.290727 2.81531e-22)
(0.604168 0.601245 -1.72288e-21)
(0.770378 0.702641 8.03194e-22)
(0.841486 0.688709 4.49623e-21)
(0.870842 0.630738 -9.95341e-21)
(0.88751 0.565992 -1.78231e-20)
(0.901413 0.5063 -5.3642e-21)
(0.914325 0.453015 -1.62541e-21)
(0.929108 0.403915 2.81407e-20)
(0.94608 0.360029 -6.08805e-21)
(0.269234 0.295515 -2.03217e-21)
(0.568968 0.603112 -4.4939e-21)
(0.727275 0.698751 1.00951e-21)
(0.798001 0.681075 9.28219e-22)
(0.830657 0.62178 -7.89992e-21)
(0.851632 0.556986 3.4485e-20)
(0.869598 0.497669 -2.46321e-20)
(0.8864 0.444858 2.9882e-20)
(0.904976 0.396469 -2.10859e-20)
(0.921817 0.35401 -2.81705e-20)
(0.252622 0.298024 6.91927e-23)
(0.532467 0.60088 -1.62405e-21)
(0.683502 0.690701 7.28451e-22)
(0.754407 0.669849 1.22239e-20)
(0.790657 0.609811 -5.33401e-21)
(0.816036 0.545422 8.17532e-21)
(0.838146 0.486807 1.44553e-20)
(0.858855 0.434645 -7.66366e-21)
(0.880705 0.386774 -2.03936e-20)
(0.898623 0.344557 2.82864e-20)
(0.235034 0.298173 9.31217e-21)
(0.495098 0.59451 1.22386e-20)
(0.639479 0.678501 -1.23164e-20)
(0.711046 0.655047 -1.10052e-20)
(0.751108 0.594845 4.07022e-20)
(0.780943 0.531314 -4.19144e-20)
(0.80721 0.473761 5.07574e-20)
(0.831716 0.422605 -1.28181e-20)
(0.856541 0.375819 1.37864e-20)
(0.876176 0.334784 2.58523e-20)
(0.216733 0.29591 -3.1974e-21)
(0.457292 0.584005 -1.22934e-20)
(0.595618 0.662195 -8.09614e-21)
(0.668251 0.636713 -4.34953e-21)
(0.712276 0.576914 5.30404e-21)
(0.746574 0.514682 -1.10744e-20)
(0.776962 0.458534 -1.5176e-20)
(0.805142 0.408666 -3.33839e-20)
(0.832823 0.363208 3.31935e-20)
(0.854576 0.323549 -1.07888e-20)
(0.197983 0.291213 2.43898e-20)
(0.419474 0.569404 -3.17217e-21)
(0.552319 0.641856 -1.14462e-20)
(0.62635 0.614915 1.4541e-20)
(0.674422 0.556071 -2.62414e-20)
(0.713141 0.495572 7.09522e-20)
(0.74757 0.441175 -3.79914e-20)
(0.779301 0.392913 3.46341e-20)
(0.809773 0.349095 -6.37568e-20)
(0.833855 0.311006 -1.69773e-20)
(0.179049 0.284085 -7.31382e-21)
(0.382056 0.550782 2.60141e-20)
(0.509969 0.617585 6.01373e-21)
(0.585656 0.589745 -1.36644e-20)
(0.637796 0.532392 -2.36864e-20)
(0.68085 0.474043 -7.81233e-22)
(0.719207 0.421735 1.26868e-20)
(0.754359 0.375377 -3.11993e-20)
(0.787552 0.333455 1.54151e-20)
(0.814059 0.297083 2.04508e-21)
(0.16019 0.274558 -4.30486e-20)
(0.345441 0.528249 -1.053e-20)
(0.468937 0.589513 -2.964e-21)
(0.546471 0.56132 3.53698e-20)
(0.602643 0.505971 -3.30302e-20)
(0.649903 0.450174 -8.58185e-21)
(0.692045 0.400282 -5.26444e-21)
(0.730476 0.356117 9.73e-21)
(0.766299 0.316329 -1.23743e-20)
(0.795259 0.281817 -1.93337e-20)
(0.141659 0.262692 3.84582e-20)
(0.310011 0.501949 -2.19725e-20)
(0.42958 0.5578 1.04247e-21)
(0.509085 0.529777 -5.37148e-20)
(0.569196 0.476922 5.85008e-20)
(0.620495 0.42406 -1.85724e-20)
(0.666249 0.376898 1.11477e-20)
(0.7078 0.3352 9.72423e-21)
(0.74614 0.29776 2.82616e-20)
(0.77753 0.265253 -1.16042e-20)
(0.123703 0.24857 -1.56265e-20)
(0.276133 0.472058 4.5637e-20)
(0.39223 0.522629 2.58348e-20)
(0.47377 0.495277 4.25403e-20)
(0.537677 0.445378 -9.87381e-21)
(0.59281 0.395813 3.96803e-21)
(0.641981 0.351678 3.21655e-20)
(0.686471 0.312703 7.18795e-21)
(0.727192 0.277812 6.90335e-22)
(0.760948 0.247458 -1.38829e-20)
(0.106554 0.232299 -3.63664e-20)
(0.24415 0.43878 -2.64987e-21)
(0.357201 0.484209 -1.52325e-20)
(0.440783 0.458002 -6.8608e-20)
(0.508295 0.41149 -6.64819e-20)
(0.567026 0.365561 1.10952e-20)
(0.61939 0.324733 -2.74078e-20)
(0.666618 0.288719 1.7536e-20)
(0.709565 0.256561 9.54063e-21)
(0.745592 0.228512 1.9956e-20)
(0.0904324 0.214009 5.36706e-20)
(0.214382 0.402346 -4.39557e-20)
(0.324784 0.442774 -2.23981e-20)
(0.41036 0.41815 3.96748e-20)
(0.481245 0.375423 4.52704e-20)
(0.543306 0.333444 -1.50466e-20)
(0.598616 0.296182 -1.94568e-21)
(0.648364 0.26335 -5.45377e-20)
(0.693364 0.234095 -3.08769e-20)
(0.731533 0.208503 1.17956e-20)
(0.0755428 0.193852 -3.05668e-20)
(0.187125 0.363014 1.2872e-20)
(0.295246 0.398577 4.74976e-20)
(0.382721 0.375939 -2.13899e-20)
(0.456705 0.337363 1.7038e-21)
(0.521801 0.29962 6.05938e-20)
(0.57979 0.266161 2.78797e-21)
(0.631822 0.236709 5.22417e-20)
(0.678685 0.210514 2.18101e-20)
(0.71884 0.187527 -3.47097e-20)
(0.0620719 0.171996 4.25178e-20)
(0.162644 0.321063 4.72832e-21)
(0.268827 0.351891 3.09697e-21)
(0.358062 0.331603 4.35019e-20)
(0.43484 0.297504 -5.79603e-21)
(0.50265 0.264256 -3.80276e-20)
(0.563029 0.234813 1.86481e-20)
(0.617094 0.208921 -2.9819e-20)
(0.665619 0.185926 -1.24786e-20)
(0.707576 0.165685 1.26254e-20)
(0.0501873 0.148627 -2.65077e-20)
(0.141177 0.276795 -5.10111e-20)
(0.245742 0.303006 1.1813e-20)
(0.33656 0.285392 -2.31405e-20)
(0.415794 0.256058 -1.39797e-20)
(0.485976 0.22753 3.39166e-20)
(0.54844 0.202294 -8.20791e-21)
(0.604273 0.180118 7.59079e-21)
(0.654245 0.160449 -9.2427e-21)
(0.697798 0.143085 1.8344e-20)
(0.0400358 0.123948 9.62975e-21)
(0.122931 0.230528 3.43919e-20)
(0.226177 0.252227 -4.78297e-20)
(0.318368 0.237567 2.2619e-20)
(0.399694 0.213244 -1.03174e-20)
(0.471886 0.189633 -2.90547e-20)
(0.536114 0.168764 2.37307e-20)
(0.59344 0.150442 4.98277e-21)
(0.644635 0.134206 -7.65553e-22)
(0.689555 0.119836 -2.13304e-20)
(0.0317425 0.0981721 3.16254e-21)
(0.108083 0.182594 1.11081e-20)
(0.21029 0.199875 4.33137e-20)
(0.303616 0.1884 -8.31631e-21)
(0.386647 0.169295 -6.55633e-21)
(0.460472 0.150762 2.42518e-21)
(0.52613 0.134396 1.06911e-21)
(0.584663 0.120039 8.86084e-21)
(0.636851 0.107327 -1.16452e-20)
(0.682889 0.0960531 -7.40976e-21)
(0.0254094 0.0715246 -7.89284e-21)
(0.0967726 0.133342 -1.35169e-20)
(0.198208 0.146279 -3.37036e-20)
(0.292408 0.138173 1.69647e-20)
(0.37674 0.124448 1.38376e-20)
(0.451807 0.111123 5.87366e-22)
(0.518552 0.0993658 -2.31446e-20)
(0.578001 0.0890621 -1.0276e-20)
(0.630942 0.0799474 8.15265e-21)
(0.677833 0.0718511 8.72371e-21)
(0.0211145 0.0442388 1.3747e-21)
(0.0891103 0.0831266 -2.83567e-21)
(0.190029 0.0917766 6.3986e-21)
(0.284825 0.0871753 -4.33514e-21)
(0.370041 0.0789491 -3.82287e-21)
(0.44595 0.0709238 -2.59253e-21)
(0.513429 0.0638543 4.76073e-21)
(0.573497 0.0576687 1.8138e-20)
(0.626947 0.0522025 2.62963e-21)
(0.674415 0.047341 -4.66191e-21)
(0.0189117 0.0165542 1.69953e-21)
(0.08517 0.0323129 -4.67506e-21)
(0.18582 0.0367128 -5.2989e-21)
(0.280922 0.0357015 -3.6762e-21)
(0.366594 0.0330479 3.49999e-21)
(0.442937 0.0303809 1.57905e-21)
(0.510794 0.0280468 -1.57343e-21)
(0.571179 0.0260191 -7.16574e-21)
(0.624889 0.0242333 2.35889e-21)
(0.672646 0.0226389 -2.20629e-21)
(0.0188296 -0.0112859 -1.69845e-21)
(0.0849915 -0.0187312 4.67148e-21)
(0.185616 -0.0185641 5.29408e-21)
(0.280727 -0.0159508 -5.06543e-21)
(0.366424 -0.0130028 4.45741e-21)
(0.442791 -0.0102892 2.23089e-21)
(0.510665 -0.007869 -3.56049e-21)
(0.571062 -0.00572201 -4.1357e-21)
(0.624781 -0.00380956 6.09374e-22)
(0.672527 -0.00210061 -1.72016e-21)
(0.0208719 -0.0390367 1.86224e-21)
(0.0885797 -0.0696355 -5.56495e-21)
(0.189421 -0.073704 1.24573e-20)
(0.284245 -0.0674827 -1.09311e-20)
(0.369534 -0.0589493 -5.17933e-22)
(0.445513 -0.0508686 -7.26349e-21)
(0.513045 -0.0437058 1.1796e-20)
(0.573153 -0.037394 1.60305e-20)
(0.62664 -0.0317914 2.86099e-21)
(0.674113 -0.0267909 -6.15912e-21)
(0.0250171 -0.0664543 -1.59642e-21)
(0.0959045 -0.120031 -1.17587e-20)
(0.197209 -0.128358 -2.73358e-20)
(0.291452 -0.118596 2.36371e-20)
(0.375904 -0.104538 4.8643e-21)
(0.451087 -0.09114 4.30556e-21)
(0.517918 -0.0792767 -2.11957e-20)
(0.577434 -0.0688358 -1.24997e-20)
(0.630438 -0.0595759 -2.78463e-21)
(0.677342 -0.0513397 1.90187e-20)
(0.0312187 -0.0932981 -5.62708e-21)
(0.106901 -0.169553 7.07947e-21)
(0.20892 -0.182181 4.95145e-20)
(0.302301 -0.168995 -4.44824e-21)
(0.385495 -0.149519 -1.26982e-20)
(0.45948 -0.130888 9.09705e-21)
(0.525256 -0.114395 6.42778e-22)
(0.583879 -0.0998839 3.19849e-21)
(0.636154 -0.087012 -7.01014e-21)
(0.682208 -0.07559 -1.85084e-20)
(0.0394056 -0.119333 -3.79836e-21)
(0.12147 -0.217842 2.06406e-20)
(0.224466 -0.234832 -4.98023e-20)
(0.316718 -0.218389 2.15479e-20)
(0.398245 -0.193645 2.07463e-22)
(0.470638 -0.169901 -2.72706e-20)
(0.535013 -0.148879 1.20489e-20)
(0.592449 -0.13038 -1.12502e-21)
(0.643754 -0.113963 4.5686e-21)
(0.688691 -0.0994316 -1.34735e-21)
(0.0494829 -0.144332 -4.34492e-20)
(0.139479 -0.26455 -5.19139e-20)
(0.243728 -0.28598 1.36084e-20)
(0.334604 -0.266495 -2.46792e-20)
(0.414073 -0.236675 -6.95481e-21)
(0.484491 -0.207971 1.03981e-20)
(0.547129 -0.182549 3.85278e-21)
(0.60309 -0.16017 1.42456e-20)
(0.653189 -0.140294 -3.06573e-21)
(0.69676 -0.122753 1.65247e-20)
(0.0613323 -0.168077 4.15482e-20)
(0.160762 -0.30934 2.66776e-20)
(0.266555 -0.335303 -2.01518e-20)
(0.355837 -0.313037 3.38622e-20)
(0.432876 -0.278376 -2.85695e-21)
(0.500953 -0.244901 -3.65119e-20)
(0.561528 -0.215234 6.39688e-21)
(0.615736 -0.189105 -3.87218e-20)
(0.664401 -0.165873 1.5268e-21)
(0.706374 -0.145437 1.40088e-20)
(0.0748135 -0.190365 -3.07733e-20)
(0.185121 -0.35189 5.50808e-20)
(0.29277 -0.382492 2.15601e-20)
(0.38027 -0.357751 -2.67263e-20)
(0.454533 -0.318525 2.74704e-22)
(0.519921 -0.280496 6.7228e-20)
(0.578122 -0.246768 3.01718e-21)
(0.630307 -0.217042 2.97155e-20)
(0.677321 -0.190576 3.61352e-20)
(0.717484 -0.167372 -2.02269e-20)
(0.0897653 -0.211004 1.72495e-20)
(0.212328 -0.391895 -8.26048e-21)
(0.322168 -0.427253 -1.95466e-20)
(0.407733 -0.400384 1.45862e-20)
(0.478903 -0.356907 5.6271e-20)
(0.541274 -0.314575 -1.98078e-20)
(0.596809 -0.276994 -3.263e-21)
(0.646715 -0.243846 -4.28123e-20)
(0.69187 -0.214281 -5.28362e-20)
(0.730038 -0.188448 2.31071e-20)
(0.106007 -0.22982 -2.2768e-20)
(0.242125 -0.42907 -1.99674e-20)