/*--------------------------------*- C++ -*----------------------------------*\
  =========                 |
  \\      /  F ield         | OpenFOAM: The Open Source CFD Toolbox
   \\    /   O peration     | Website:  https://openfoam.org
    \\  /    A nd           | Version:  7
     \\/     M anipulation  |
\*---------------------------------------------------------------------------*/
FoamFile
{
    version     2.0;
    format      ascii;
    class       volVectorField;
    location    "155";
    object      U;
}
// * * * * * * * * * * * * * * * * * * * * * * * * * * * * * * * * * * * * * //

dimensions      [0 1 -1 0 0 0 0];

internalField   nonuniform List<vector> 
2125
(
(-0.00102307 -0.0567857 1.07034e-21)
(-0.00946138 -0.112854 -3.07726e-21)
(-0.0271663 -0.131658 -3.59384e-21)
(-0.0487582 -0.126982 3.57781e-21)
(-0.072326 -0.110081 -3.28915e-21)
(-0.0965084 -0.0880705 -1.75958e-21)
(-0.120351 -0.0638179 3.02361e-21)
(-0.143301 -0.0371624 3.71591e-21)
(-0.164801 -0.0064474 -5.99919e-22)
(-0.184949 0.0311269 1.81015e-21)
(0.000746248 -0.0528604 -1.18667e-21)
(-0.00640405 -0.104056 3.65984e-21)
(-0.0241891 -0.120077 -8.33151e-21)
(-0.0463598 -0.114019 7.55494e-21)
(-0.0706178 -0.0966496 3.82539e-22)
(-0.0954403 -0.074752 5.65136e-21)
(-0.11986 -0.0509977 -9.78342e-21)
(-0.143399 -0.0250662 -1.42988e-20)
(-0.16547 0.00486617 -2.69584e-21)
(-0.185978 0.0416774 6.13354e-21)
(0.00225929 -0.0486501 1.01026e-21)
(-0.00373886 -0.0948752 7.66369e-21)
(-0.0213988 -0.108253 1.82197e-20)
(-0.043757 -0.101014 -1.64958e-20)
(-0.0681506 -0.0833448 -3.61545e-21)
(-0.0928841 -0.0616685 -3.37926e-21)
(-0.116939 -0.0384793 1.70545e-20)
(-0.139869 -0.0133335 1.08466e-20)
(-0.161018 0.0157226 2.79108e-21)
(-0.179793 0.0516098 -1.88094e-20)
(0.00349246 -0.044276 3.54937e-21)
(-0.0015245 -0.0855345 -4.55884e-21)
(-0.0189036 -0.0964499 -3.30638e-20)
(-0.041113 -0.0882539 3.02557e-21)
(-0.0651497 -0.0704788 9.14122e-21)
(-0.089133 -0.0491698 -6.92243e-21)
(-0.111956 -0.0266621 -7.60099e-22)
(-0.13316 -0.00242788 -2.71049e-21)
(-0.152025 0.0256041 6.37988e-21)
(-0.167101 0.0603321 1.77914e-20)
(0.00443173 -0.0398416 2.39405e-21)
(0.000189941 -0.0762241 -1.37802e-20)
(-0.0168124 -0.0848915 3.35467e-20)
(-0.0386065 -0.0759889 -1.49531e-20)
(-0.0618745 -0.0583384 -1.1097e-22)
(-0.0845409 -0.0375892 2.058e-20)
(-0.105377 -0.0159365 -9.60684e-21)
(-0.123866 0.00719182 1.20453e-21)
(-0.13929 0.0339784 -3.88016e-21)
(-0.148919 0.0672674 8.28758e-22)
(0.00506958 -0.0354275 2.84865e-20)
(0.00136304 -0.0670938 3.5012e-20)
(-0.0152315 -0.0737595 -9.13816e-21)
(-0.0364206 -0.0644294 1.72026e-20)
(-0.0586007 -0.0471724 5.13533e-21)
(-0.0794986 -0.0272264 -7.76094e-21)
(-0.0977354 -0.00666101 -2.88169e-21)
(-0.112689 0.0151029 -1.18534e-20)
(-0.123778 0.0403347 2.5527e-21)
(-0.126492 0.0718676 -1.527e-20)
(0.00540181 -0.0310894 -2.73897e-20)
(0.00195954 -0.058249 -1.81316e-20)
(-0.0142586 -0.0631859 1.4373e-20)
(-0.0347289 -0.0537341 -2.47248e-20)
(-0.0555973 -0.037178 2.50485e-21)
(-0.0743984 -0.0183286 2.84346e-20)
(-0.0895857 0.000860794 -5.04539e-21)
(-0.100377 0.0209393 3.26306e-20)
(-0.10653 0.0442169 -1.1212e-21)
(-0.101193 0.0736482 -1.23167e-20)
(0.00542474 -0.0268581 2.208e-20)
(0.00195023 -0.0497522 -4.02391e-20)
(-0.0139752 -0.0532517 -1.5964e-20)
(-0.033678 -0.0440044 1.91107e-20)
(-0.0530964 -0.0284882 2.87393e-22)
(-0.0695889 -0.0110716 -5.28294e-20)
(-0.0814379 0.00640398 -2.73974e-21)
(-0.0876365 0.0244246 -2.50335e-20)
(-0.0885395 0.0452586 -3.1326e-20)
(-0.0743768 0.0722883 1.77194e-20)
(0.00513358 -0.0227436 -1.22992e-20)
(0.00131367 -0.0416275 6.06442e-21)
(-0.0144368 -0.0439889 1.46486e-20)
(-0.0333665 -0.0352816 -1.24643e-20)
(-0.051258 -0.0211613 -4.47515e-20)
(-0.0653204 -0.00554066 1.55481e-20)
(-0.0736749 0.00984976 2.4158e-21)
(-0.0750102 0.0254051 3.66877e-20)
(-0.0705324 0.0432155 4.63634e-20)
(-0.0471644 0.0676998 -2.02642e-20)
(0.00452246 -0.0187408 1.86933e-20)
(4.03444e-05 -0.0338701 1.7048e-20)
(-0.0156604 -0.0353878 -2.50645e-21)
(-0.033822 -0.0275475 6.31261e-20)
(-0.050131 -0.0151747 2.67564e-20)
(-0.061682 -0.00171354 1.97988e-20)
(-0.0664547 0.0112144 2.70947e-20)
(-0.0627334 0.0238864 -1.21166e-20)
(-0.0526892 0.0379691 -1.5302e-20)
(-0.0199412 0.0595241 -2.29136e-20)
(0.00358638 -0.0148381 -2.1077e-21)
(-0.00186084 -0.0264588 -2.66455e-20)
(-0.0176116 -0.0274072 -1.91126e-20)
(-0.034978 -0.0207322 -3.07538e-20)
(-0.049614 -0.0104247 -2.40385e-20)
(-0.058537 0.000550791 2.38577e-20)
(-0.0596107 0.0106804 -2.23712e-20)
(-0.0506089 0.0200928 -1.51618e-20)
(-0.0345421 0.0295268 1.90155e-21)
(0.00806628 0.0476717 6.56303e-21)
(0.00232505 -0.011026 -5.012e-20)
(-0.00435438 -0.0193701 2.41895e-20)
(-0.0201917 -0.0199887 1.7649e-20)
(-0.0366531 -0.0147259 1.15884e-20)
(-0.0494191 -0.00673671 -2.08247e-20)
(-0.0554604 0.00150888 -1.7457e-20)
(-0.0525514 0.00861434 2.47572e-20)
(-0.0379599 0.0145578 -1.94938e-20)
(-0.0149879 0.0189291 -1.43859e-21)
(0.0391912 0.0326657 -1.81613e-20)
(0.000748158 -0.00730616 4.12953e-20)
(-0.00736969 -0.0125925 1.68008e-20)
(-0.0232287 -0.0130738 1.06124e-21)
(-0.0385387 -0.0093988 -2.11439e-20)
(-0.0490515 -0.00388776 1.75274e-21)
(-0.0516956 0.00150501 2.24494e-20)
(-0.0441391 0.00555412 -6.15782e-21)
(-0.0231256 0.0082608 -7.0743e-21)
(0.00797582 0.00735156 -1.52303e-20)
(0.0767504 0.016054 2.78756e-20)
(-0.00111907 -0.00369785 2.71904e-20)
(-0.0107942 -0.0061395 -4.50067e-20)
(-0.0264732 -0.00662161 -3.45113e-20)
(-0.0402001 -0.00462465 1.49999e-20)
(-0.047816 -0.00164049 3.02877e-20)
(-0.046165 0.000919649 2.48378e-20)
(-0.0326916 0.0020851 -2.58759e-20)
(-0.00377636 0.00188364 4.84966e-20)
(0.0375661 -0.00412965 -1.4122e-20)
(0.125049 0.000784462 -3.13206e-20)
(-0.00323135 -0.000241776 -4.13513e-20)
(-0.0144703 -5.86592e-05 2.5e-20)
(-0.0296043 -0.000624312 -1.1652e-20)
(-0.0410947 -0.000305288 1.20752e-21)
(-0.0448588 0.000220298 1.24701e-20)
(-0.0375783 0.000103474 -3.94412e-20)
(-0.0163163 -0.00132383 3.37728e-20)
(0.022896 -0.00383427 -3.2172e-20)
(0.0775961 -0.0141313 4.90113e-20)
(0.187956 -0.0102181 1.67213e-20)
(-0.00552078 0.0029998 8.51668e-21)
(-0.018197 0.00556502 4.79112e-20)
(-0.0322427 0.00488157 -1.18622e-20)
(-0.0406043 0.0036085 1.21213e-20)
(-0.039234 0.0018558 1.37261e-20)
(-0.0245655 -0.000652497 -4.07549e-21)
(0.00692987 -0.00413828 2.88658e-20)
(0.0594167 -0.00815162 1.75973e-21)
(0.131647 -0.0217149 -3.06011e-20)
(0.267132 -0.0147468 3.95286e-20)
(-0.00789732 0.00594805 -2.29952e-20)
(-0.0217367 0.0106125 -4.51941e-20)
(-0.0339717 0.00981089 3.9256e-20)
(-0.0380782 0.00710346 1.95108e-20)
(-0.0299772 0.00335314 -8.99723e-20)
(-0.00575778 -0.00112852 7.23277e-20)
(0.0387608 -0.00600805 -6.35534e-20)
(0.107663 -0.0107437 1.15499e-21)
(0.202175 -0.0258985 -1.30043e-20)
(0.3605 -0.0119201 -3.5994e-20)
(-0.0102536 0.00851659 1.97266e-20)
(-0.0248267 0.0149408 -2.6076e-21)
(-0.0343609 0.0140347 -9.62532e-21)
(-0.0328777 0.010102 -1.21244e-21)
(-0.0161935 0.00471168 -5.61011e-21)
(0.0200131 -0.00124132 -2.29791e-20)
(0.0805565 -0.00680083 9.33029e-21)
(0.168676 -0.0115125 -1.47482e-20)
(0.289829 -0.0254433 4.62519e-21)
(0.462029 -0.00203713 1.24643e-21)
(-0.0124718 0.0106223 -4.02601e-20)
(-0.0271925 0.0183991 -2.85294e-21)
(-0.0329874 0.0173956 4.40161e-21)
(-0.0244121 0.0124765 1.79571e-21)
(0.00288516 0.00586119 2.9384e-20)
(0.0536341 -0.000987815 -8.45341e-20)
(0.133119 -0.00643572 5.54883e-20)
(0.24279 -0.0105742 -4.07634e-20)
(0.39315 -0.0189526 3.2253e-20)
(0.564039 0.0131138 3.34018e-20)
(-0.0144325 0.0121967 -4.89325e-21)
(-0.0285592 0.0208487 2.25199e-20)
(-0.0294496 0.0197327 -2.82713e-20)
(-0.0121551 0.0140805 -8.85563e-21)
(0.0278796 0.00670219 1.69693e-20)
(0.0956864 -0.000394886 8.03761e-20)
(0.196603 -0.00487649 -1.56548e-20)
(0.329614 -0.00788379 7.58822e-21)
(0.508151 -0.00590488 -3.80791e-20)
(0.662882 0.0271047 1.6633e-20)
(-0.0160224 0.0131957 -1.4713e-20)
(-0.0286595 0.0221835 -1.14816e-20)
(-0.023369 0.0209135 2.84205e-21)
(0.00435978 0.0147911 1.11191e-20)
(0.059275 0.00716392 -3.28318e-20)
(0.146472 0.000556142 -1.31825e-20)
(0.270527 -0.0020518 -4.06637e-20)
(0.427515 -0.00283708 3.99948e-20)
(0.627017 0.011162 4.07918e-20)
(0.762355 0.0289176 -1.62966e-20)
(-0.0171401 0.0136042 -7.0348e-21)
(-0.027238 0.0223507 2.86715e-20)
(-0.0143803 0.0208652 -3.2114e-20)
(0.0255635 0.014556 -3.73648e-21)
(0.0974564 0.00726892 -1.50859e-20)
(0.206051 0.00201568 3.24111e-20)
(0.353932 0.00226592 4.09096e-20)
(0.533348 0.00540686 -3.83041e-20)
(0.739612 0.0254908 3.96017e-20)
(0.889806 0.0299892 5.33067e-21)
(-0.0176921 0.0134363 -2.03993e-20)
(-0.0240506 0.0213636 -5.80269e-20)
(-0.00212133 0.0196017 5.669e-20)
(0.0518734 0.0134392 8.17427e-21)
(0.142737 0.00718713 1.18571e-20)
(0.274226 0.00430899 7.18706e-21)
(0.445344 0.00845537 3.13288e-20)
(0.642609 0.0167704 2.23958e-20)
(0.848215 0.0393284 -7.70472e-20)
(1.00187 0.0449308 -3.64157e-20)
(-0.0188469 0.0193017 1.40474e-20)
(0.0137773 0.0172434 -3.20817e-20)
(0.0837025 0.0116499 6.22826e-21)
(0.195341 0.00726454 1.00015e-20)
(0.350456 0.00792398 -7.07841e-20)
(0.542608 0.016952 3.08985e-20)
(0.750897 0.0307267 -2.01404e-20)
(0.949017 0.0547387 2.07945e-20)
(1.09158 0.0615067 -7.14503e-21)
(0.0336987 0.0140259 -1.57045e-21)
(0.121444 0.00954851 -8.77152e-21)
(0.255335 0.0080165 2.91898e-22)
(0.433724 0.0134311 5.48323e-22)
(0.642832 0.0280352 -4.68656e-20)
(0.854224 0.0467376 6.27963e-21)
(1.03806 0.0711734 5.59527e-20)
(1.16422 0.0782896 2.44347e-20)
(0.0580245 0.0102877 5.46673e-20)
(0.165421 0.00763321 1.38755e-21)
(0.322499 0.0100787 -2.28186e-20)
(0.522405 0.0213499 6.07588e-20)
(0.742672 0.0416949 1.31477e-20)
(0.94919 0.0642114 6.99812e-22)
(1.11387 0.0880261 -2.46815e-20)
(1.21974 0.0946064 -3.13925e-20)
(0.215804 0.00650422 -2.27151e-20)
(0.396195 0.0141181 3.70678e-20)
(0.614264 0.0320102 -1.80409e-20)
(0.838782 0.0576308 -2.01322e-20)
(1.03348 0.0825532 -4.6969e-21)
(1.17603 0.104782 -1.4343e-20)
(1.26113 0.109979 1.50475e-20)
(0.475262 0.020719 2.02064e-20)
(0.706646 0.0454688 -6.67779e-20)
(0.928295 0.0753607 4.24042e-20)
(1.10593 0.101235 -1.89875e-20)
(1.22535 0.121076 2.80773e-20)
(1.29073 0.124402 7.58949e-21)
(1.00914 0.0943499 -1.09226e-20)
(1.16639 0.119849 8.97578e-21)
(1.26319 0.136719 -2.14478e-20)
(1.31099 0.137906 -2.1422e-20)
(1.21543 0.13812 -2.84643e-20)
(1.29123 0.15165 5.32467e-22)
(1.324 0.150648 1.48841e-20)
(1.31114 0.165904 2.12979e-20)
(1.33151 0.162789 -8.97606e-21)
(-0.218421 0.0995929 -1.41826e-22)
(-0.252879 0.240767 4.36086e-23)
(-0.252697 0.398072 1.83069e-22)
(-0.233112 0.55343 -1.74254e-22)
(-0.17986 0.635455 4.01393e-23)
(-0.0785858 0.583094 1.50148e-22)
(0.100429 0.363235 4.67225e-23)
(0.293952 0.0226061 -8.72284e-23)
(0.475433 -0.312092 -8.92019e-23)
(0.605033 -0.533701 -6.90841e-23)
(0.672115 -0.644295 1.38918e-24)
(0.700896 -0.628372 -7.13761e-23)
(0.662925 -0.645908 3.76549e-23)
(0.532966 -0.614757 -1.61553e-23)
(0.526127 -0.389997 -1.36028e-23)
(0.662417 -0.0180283 -1.03011e-23)
(0.800363 0.322542 6.58805e-23)
(0.885737 0.40409 8.01904e-23)
(0.911329 0.50894 2.23059e-24)
(0.813898 0.507484 2.83746e-23)
(0.751863 0.474686 -1.27983e-23)
(0.807776 0.258845 -8.95432e-24)
(0.903202 -0.0681616 -4.10228e-24)
(0.927187 -0.18544 -2.10939e-23)
(0.969352 -0.506841 -2.46459e-23)
(0.952534 -0.440017 -8.69274e-24)
(0.949689 -0.315294 5.87641e-24)
(0.950646 -0.155648 4.83618e-23)
(1.00049 0.427145 7.99985e-24)
(0.97318 0.33863 9.92331e-25)
(-0.222874 0.109826 5.98609e-23)
(-0.257439 0.243701 -4.3126e-22)
(-0.256156 0.394135 -4.73342e-23)
(-0.229366 0.541584 4.38754e-22)
(-0.157917 0.614704 -3.23748e-23)
(-0.0302076 0.55152 -5.61527e-22)
(0.15756 0.326279 5.08113e-22)
(0.349321 -0.0119009 -4.93317e-22)
(0.525337 -0.340622 2.62847e-22)
(0.646242 -0.551387 -4.24439e-22)
(0.700248 -0.652361 5.79045e-22)
(0.717687 -0.627811 -4.11079e-22)
(0.681783 -0.632999 6.95396e-26)
(0.545121 -0.604026 2.588e-22)
(0.518535 -0.398639 -4.54917e-23)
(0.64464 -0.0371922 -6.64246e-23)
(0.784802 0.306918 -1.99597e-22)
(0.876506 0.396467 1.41142e-22)
(0.903335 0.512809 9.28503e-23)
(0.806937 0.51612 -1.15869e-22)
(0.742672 0.475441 -3.00058e-23)
(0.806261 0.251503 5.93045e-23)
(0.907238 -0.0736212 -2.67133e-24)
(0.931961 -0.188137 -7.76889e-23)
(0.976243 -0.507629 4.49015e-23)
(0.957349 -0.439569 7.86691e-23)
(0.953306 -0.315208 -4.37843e-25)
(0.951395 -0.157383 -9.14867e-23)
(0.995963 0.426496 1.9809e-24)
(0.970766 0.339286 -6.25123e-24)
(-0.217212 0.118729 3.04077e-21)
(-0.249979 0.244838 -2.28813e-21)
(-0.24592 0.387777 1.47177e-21)
(-0.21117 0.52613 -1.33841e-21)
(-0.122085 0.589821 -5.99269e-22)
(0.0269773 0.517905 3.16387e-21)
(0.21809 0.291605 -1.13258e-21)
(0.406796 -0.0434801 -1.52004e-21)
(0.576388 -0.366107 7.11696e-22)
(0.68797 -0.566328 -2.36967e-23)
(0.729234 -0.658286 1.59521e-22)
(0.734842 -0.626684 -2.89394e-23)
(0.700456 -0.620004 -2.48866e-23)
(0.559183 -0.592015 9.45076e-23)
(0.51396 -0.406174 5.08124e-23)
(0.628442 -0.0569542 -1.27044e-22)
(0.770165 0.290167 4.13549e-22)
(0.868049 0.388144 9.12178e-23)
(0.895705 0.516396 -5.57797e-23)
(0.800161 0.524848 -7.79946e-23)
(0.734362 0.476207 4.8594e-23)
(0.805612 0.244032 8.20629e-23)
(0.911749 -0.0790303 -1.69246e-22)
(0.937119 -0.190696 6.05222e-23)
(0.983075 -0.508256 -1.34038e-22)
(0.961977 -0.43907 -9.141e-23)
(0.956882 -0.315076 1.21202e-23)
(0.952328 -0.15897 1.60766e-22)
(0.991448 0.42587 -2.05145e-23)
(0.968254 0.339881 2.55362e-24)
(-0.202293 0.125783 -3.25814e-21)
(-0.231438 0.243859 1.49722e-21)
(-0.223033 0.378827 -2.07383e-22)
(-0.179965 0.507304 3.58201e-22)
(-0.0746174 0.561409 -4.43808e-22)
(0.0898929 0.483651 -2.14418e-21)
(0.280724 0.259536 1.13026e-21)
(0.465561 -0.0714664 -2.58268e-22)
(0.62816 -0.388448 9.61597e-22)
(0.729873 -0.578575 1.66692e-21)
(0.758858 -0.662108 -3.94328e-22)
(0.752331 -0.624978 2.68592e-22)
(0.718876 -0.607095 -3.01592e-22)
(0.574932 -0.57892 -2.88566e-22)
(0.512721 -0.412469 4.44953e-23)
(0.614064 -0.0771307 -1.65261e-22)
(0.756558 0.272333 -3.61861e-22)
(0.860422 0.379109 -8.79435e-23)
(0.888451 0.519685 1.13746e-22)
(0.793623 0.533635 -3.94184e-23)
(0.727018 0.476981 -1.44195e-22)
(0.805809 0.236474 -4.23162e-24)
(0.916712 -0.0843719 6.83181e-23)
(0.942635 -0.193099 9.30699e-24)
(0.989833 -0.508704 4.4793e-23)
(0.966414 -0.438518 2.63496e-23)
(0.960399 -0.31491 1.66406e-23)
(0.953424 -0.160412 5.37169e-23)
(0.986942 0.425276 1.19629e-22)
(0.965648 0.340419 3.76653e-24)
(-0.179462 0.130534 2.28516e-21)
(-0.203338 0.240512 2.34503e-21)
(-0.189179 0.367262 1.27061e-21)
(-0.137835 0.48549 -1.26563e-21)
(-0.018144 0.530041 8.20942e-23)
(0.156067 0.449816 -6.52653e-22)
(0.344067 0.230271 -1.99943e-21)
(0.524772 -0.0960208 -7.59434e-22)
(0.680265 -0.407602 3.78313e-22)
(0.771638 -0.588191 -8.21263e-23)
(0.788898 -0.663883 -5.92012e-22)
(0.770113 -0.622679 1.2484e-22)
(0.736994 -0.594425 5.4508e-22)
(0.592105 -0.564971 -3.07585e-22)
(0.515032 -0.417426 2.92809e-22)
(0.601779 -0.0975065 3.51623e-23)
(0.744106 0.253469 7.35054e-22)
(0.85367 0.369354 -9.80479e-23)
(0.881585 0.522659 -1.93841e-22)
(0.787384 0.542446 -2.60032e-23)
(0.720701 0.477765 -1.89437e-22)
(0.806823 0.228873 -2.79843e-22)
(0.922107 -0.0896288 -5.9251e-25)
(0.948482 -0.195328 1.80218e-22)
(0.996499 -0.508951 1.35323e-23)
(0.970661 -0.437914 3.85679e-23)
(0.963841 -0.314722 -7.24067e-23)
(0.954655 -0.16171 -2.33558e-22)
(0.982444 0.424722 -1.99994e-22)
(0.962954 0.340902 -1.304e-23)
(-0.150404 0.132628 1.35293e-21)
(-0.167621 0.234664 2.88624e-21)
(-0.146512 0.353202 1.07582e-21)
(-0.0871775 0.460834 -4.30899e-21)
(0.0444615 0.496789 4.61522e-21)
(0.223478 0.416963 -2.24398e-21)
(0.406817 0.203897 -6.37225e-22)
(0.583625 -0.117183 -1.30565e-21)
(0.732315 -0.423577 -5.36952e-22)
(0.812979 -0.595254 3.07611e-21)
(0.819131 -0.663687 -6.8801e-22)
(0.788142 -0.619771 -1.00171e-21)
(0.75477 -0.582125 1.67956e-23)
(0.610417 -0.550418 3.96913e-22)
(0.520957 -0.42099 -5.65961e-22)
(0.591894 -0.117822 6.53802e-22)
(0.732948 0.233649 -7.18303e-22)
(0.847823 0.358877 3.69576e-22)
(0.875121 0.525293 4.37648e-23)
(0.781506 0.551241 2.9311e-22)
(0.715452 0.478565 1.33581e-22)
(0.808623 0.221279 1.07712e-22)
(0.927913 -0.0947843 3.33812e-23)
(0.954632 -0.197366 2.13405e-22)
(1.00305 -0.508982 9.30496e-23)
(0.974721 -0.437258 -4.77228e-23)
(0.967198 -0.314522 2.04259e-22)
(0.955993 -0.162868 -2.16136e-22)
(0.977949 0.424214 3.05248e-22)
(0.960176 0.341334 2.29733e-23)
(-0.116955 0.131848 -2.52257e-21)
(-0.126458 0.226319 4.64308e-22)
(-0.097575 0.336571 5.01995e-22)
(-0.0305467 0.433632 -6.55084e-22)
(0.110489 0.462619 5.13129e-22)
(0.290369 0.385516 1.1588e-21)
(0.467828 0.18036 1.13267e-21)
(0.641432 -0.13508 -1.52423e-21)
(0.783938 -0.436427 -1.49312e-21)
(0.853643 -0.59985 9.14349e-22)
(0.849335 -0.661608 1.81301e-22)
(0.806368 -0.616239 8.26527e-22)
(0.772168 -0.570307 -7.84513e-22)
(0.629585 -0.535514 -3.20014e-22)
(0.530368 -0.423153 5.04586e-22)
(0.584724 -0.13787 2.3363e-22)
(0.723232 0.21296 1.37363e-23)
(0.842895 0.347684 6.98358e-24)
(0.869074 0.52756 -1.31261e-22)
(0.776046 0.559979 -4.74326e-22)
(0.711289 0.479393 -2.61195e-24)
(0.811175 0.213745 -1.74951e-22)
(0.934111 -0.0998217 -1.30357e-22)
(0.961056 -0.199196 -1.20758e-22)
(1.00947 -0.508778 -2.08347e-22)
(0.978603 -0.43655 -3.95769e-23)
(0.970461 -0.31432 -1.91042e-22)
(0.957409 -0.163886 2.48548e-22)
(0.973453 0.42376 -2.76221e-22)
(0.957322 0.341716 -2.29784e-23)
(-0.0809061 0.128098 2.80497e-21)
(-0.0820875 0.215338 4.15632e-22)
(-0.0449934 0.317284 -7.69923e-23)
(0.0295164 0.404681 -2.07067e-22)
(0.177443 0.428075 -6.8921e-22)
(0.355198 0.355768 4.91136e-21)
(0.52615 0.159476 -4.04012e-21)
(0.697665 -0.149922 -1.89714e-21)
(0.834792 -0.446246 -8.32077e-22)
(0.893404 -0.602077 1.16905e-21)
(0.879292 -0.657752 1.75397e-21)
(0.824744 -0.612073 -6.06722e-22)
(0.789149 -0.559057 -6.82865e-22)
(0.649354 -0.520508 8.79486e-22)
(0.542933 -0.423954 -1.05897e-21)
(0.580553 -0.157434 2.58653e-22)
(0.715114 0.191511 4.20728e-23)
(0.838891 0.335785 2.57399e-22)
(0.863461 0.529428 -4.10444e-22)
(0.77106 0.568618 5.37434e-22)
(0.708211 0.480263 -4.50112e-23)
(0.81444 0.206322 7.84887e-22)
(0.940679 -0.104725 1.79922e-22)
(0.967726 -0.200803 -5.24893e-22)
(1.01574 -0.508327 4.25171e-23)
(0.982323 -0.435791 -8.64318e-23)
(0.973627 -0.314122 2.68102e-23)
(0.958871 -0.16477 -2.1057e-22)
(0.968951 0.423362 1.63636e-22)
(0.954399 0.342052 2.63072e-23)
(-0.043834 0.121086 -1.77728e-21)
(-0.0365454 0.201465 1.07243e-21)
(0.00877287 0.295955 1.68493e-21)
(0.0905854 0.374485 5.51071e-22)
(0.243138 0.393603 -3.83296e-21)
(0.416599 0.327849 2.78153e-22)
(0.58108 0.140979 1.11527e-21)
(0.751985 -0.161993 -4.02035e-21)
(0.884577 -0.453159 -1.34584e-21)
(0.932066 -0.602038 4.61577e-21)
(0.90879 -0.652233 -2.16107e-22)
(0.843229 -0.607265 8.39891e-22)
(0.805673 -0.548437 -9.91321e-22)
(0.669506 -0.505625 5.05118e-22)
(0.55815 -0.423477 -3.97183e-22)
(0.579585 -0.176284 6.50784e-22)
(0.708741 0.169444 7.02672e-23)
(0.835801 0.3232 -3.81586e-22)
(0.858301 0.530858 7.2666e-22)
(0.766594 0.577114 -3.93905e-22)
(0.706199 0.481194 2.6708e-22)
(0.818376 0.199062 -1.07969e-22)
(0.947592 -0.109477 -5.40509e-22)
(0.974614 -0.20217 5.85513e-22)
(1.02184 -0.507617 -9.82911e-23)
(0.985903 -0.434982 2.78641e-22)
(0.976696 -0.313934 -2.20553e-22)
(0.960346 -0.165519 3.77437e-22)
(0.964436 0.423025 -2.19323e-22)
(0.951415 0.342344 2.60124e-24)
(-0.00690706 0.110856 2.76198e-22)
(0.00866272 0.185027 4.00821e-21)
(0.061733 0.27314 -4.8205e-21)
(0.150419 0.343336 -9.86692e-22)
(0.305754 0.359561 4.82101e-21)
(0.473405 0.301738 1.51432e-21)
(0.632216 0.124523 -4.26048e-21)
(0.804258 -0.171653 -1.58791e-21)
(0.933038 -0.457311 1.8495e-21)
(0.969457 -0.599836 2.17834e-21)
(0.937628 -0.645174 -1.88273e-22)
(0.861784 -0.60181 -5.24643e-23)
(0.821703 -0.53849 3.92173e-22)
(0.689858 -0.491059 -3.50496e-22)
(0.575393 -0.421833 2.43469e-22)
(0.581884 -0.194284 -2.44398e-22)
(0.704233 0.146908 -8.68394e-23)
(0.833602 0.309953 4.8261e-22)
(0.853611 0.531806 -1.00947e-21)
(0.762685 0.585427 5.372e-22)
(0.705216 0.482208 -2.04729e-22)
(0.822936 0.192017 -5.47087e-22)
(0.954825 -0.114063 6.04873e-23)
(0.981693 -0.203285 -1.4499e-22)
(1.02776 -0.506639 3.49886e-22)
(0.989368 -0.434124 -1.47398e-22)
(0.979673 -0.313758 -5.93987e-23)
(0.961801 -0.166137 -1.75161e-22)
(0.959903 0.422751 -9.63292e-23)
(0.948379 0.342591 -8.12314e-24)
(0.029877 0.0981956 -2.86473e-21)
(0.052638 0.166573 5.35826e-21)
(0.112458 0.248941 -1.12852e-21)
(0.207297 0.311571 -6.85858e-21)
(0.363865 0.326191 8.41212e-21)
(0.524748 0.277275 3.57634e-21)
(0.67951 0.109672 -8.08346e-21)
(0.854535 -0.179305 -1.28388e-22)
(0.979964 -0.458853 -2.94845e-21)
(1.00542 -0.595572 9.81561e-22)
(0.965623 -0.636704 -1.62614e-21)
(0.880377 -0.595708 1.54348e-21)
(0.837205 -0.529235 -8.93017e-23)
(0.710257 -0.476965 1.12097e-22)
(0.594 -0.419153 3.29248e-22)
(0.587324 -0.211342 -7.77943e-22)
(0.701665 0.124063 4.94572e-22)
(0.832257 0.296073 -3.25746e-22)
(0.849406 0.532224 1.8958e-22)
(0.759361 0.593515 4.07666e-22)
(0.705209 0.483327 -7.56309e-23)
(0.828072 0.185234 -2.50511e-22)
(0.96235 -0.11847 1.12794e-21)
(0.988934 -0.204135 -4.65217e-22)
(1.03348 -0.505386 6.67872e-23)
(0.992749 -0.43322 -2.46214e-22)
(0.982568 -0.313596 4.42248e-22)
(0.963204 -0.166627 4.97388e-22)
(0.955345 0.42254 2.47741e-22)
(0.945301 0.342797 4.46519e-23)
(0.0678051 0.0837631 -1.54852e-21)
(0.0954296 0.14651 6.75986e-21)
(0.160402 0.223679 -1.7657e-21)
(0.26027 0.279564 -2.31497e-21)
(0.416556 0.293642 7.75188e-21)
(0.570213 0.254178 -6.45823e-21)
(0.723333 0.0959365 -4.91573e-21)
(0.903031 -0.18534 -5.71821e-22)
(1.02518 -0.457931 8.75945e-21)
(1.03982 -0.589344 -8.34777e-22)
(0.992613 -0.626959 -7.70767e-22)
(0.898975 -0.588969 2.69688e-22)
(0.852161 -0.520677 4.24823e-22)
(0.730567 -0.463466 -4.79739e-22)
(0.613362 -0.415574 4.52791e-22)
(0.595572 -0.227399 -8.36486e-24)
(0.701041 0.101068 1.86443e-22)
(0.831713 0.281596 -3.06899e-23)
(0.845695 0.532061 5.58634e-22)
(0.756637 0.601341 -6.3276e-22)
(0.706111 0.484578 -2.42454e-22)
(0.833734 0.178762 4.27381e-22)
(0.970138 -0.122683 -6.85374e-22)
(0.99631 -0.204709 2.41389e-22)
(1.03901 -0.503856 -2.72969e-22)
(0.996078 -0.432272 -3.72022e-23)
(0.985391 -0.313446 -6.07424e-23)
(0.964521 -0.166988 -4.926e-22)
(0.950757 0.422391 -2.84392e-23)
(0.94219 0.34296 -7.2757e-23)
(0.109561 0.0683564 -9.29385e-23)
(0.138428 0.125534 4.27272e-21)
(0.20615 0.197865 -4.47424e-21)
(0.309401 0.247728 5.17352e-21)
(0.463653 0.262028 3.40321e-21)
(0.610061 0.23207 -3.32287e-21)
(0.764529 0.0828042 2.97493e-21)
(0.950079 -0.190081 -3.44162e-21)
(1.06853 -0.454696 5.43066e-21)
(1.07251 -0.581267 -8.28525e-21)
(1.01846 -0.616098 1.48879e-21)
(0.917546 -0.581625 1.20917e-21)
(0.86657 -0.512814 -5.43724e-22)
(0.750655 -0.450654 6.16944e-22)
(0.632992 -0.411225 -5.21736e-22)
(0.606104 -0.242446 2.69274e-22)
(0.702275 0.07806 -3.59303e-22)
(0.831898 0.266556 2.60579e-22)
(0.842481 0.531262 -2.33643e-22)
(0.754517 0.608869 -2.27927e-22)
(0.707845 0.485983 3.3481e-22)
(0.839874 0.172643 -7.25935e-22)
(0.978162 -0.126689 1.32974e-21)
(1.00379 -0.204998 -5.40208e-22)
(1.04436 -0.502046 -4.62219e-22)
(0.99938 -0.431284 -8.66588e-23)
(0.98815 -0.313305 3.67542e-23)
(0.96572 -0.167223 9.03086e-24)
(0.946132 0.422302 -1.22017e-22)
(0.939058 0.343081 7.16229e-23)
(0.158586 0.0532138 4.69449e-21)
(0.184393 0.104577 -2.06599e-21)
(0.251598 0.172138 1.67774e-21)
(0.355987 0.216553 -1.51061e-22)
(0.506006 0.231479 3.74434e-21)
(0.645458 0.210535 -3.17037e-21)
(0.80442 0.0697894 -5.91937e-21)
(0.996058 -0.193731 1.53622e-21)
(1.10984 -0.449284 3.61172e-21)
(1.10339 -0.571474 3.8925e-21)
(1.04306 -0.60428 -3.78848e-21)
(0.936049 -0.573706 3.26745e-21)
(0.880451 -0.505617 4.55576e-22)
(0.770387 -0.438591 -2.49601e-22)
(0.652564 -0.406208 -1.33968e-23)
(0.618274 -0.256491 -1.61879e-22)
(0.705177 0.0551554 -1.94002e-25)
(0.832715 0.250987 1.25201e-22)
(0.839756 0.52977 -8.7786e-23)
(0.752995 0.616067 8.87261e-23)
(0.710326 0.487568 -3.78606e-22)
(0.84645 0.166913 1.9287e-22)
(0.986394 -0.130477 -9.80901e-22)
(1.01134 -0.204997 -4.69652e-23)
(1.04953 -0.499959 3.82932e-22)
(1.00267 -0.430256 3.23166e-22)
(0.990847 -0.313164 -4.63807e-23)
(0.966766 -0.167331 2.31504e-23)
(0.941465 0.42227 3.69614e-22)
(0.935915 0.343159 -1.85034e-23)
(0.21827 0.0397816 -3.5107e-21)
(0.237082 0.0847267 5.11662e-21)
(0.299909 0.147262 -9.89055e-22)
(0.402624 0.186626 -2.2715e-21)
(0.545722 0.202182 3.11177e-21)
(0.678624 0.189203 3.45706e-22)
(0.84471 0.0565079 -1.80525e-21)
(1.0413 -0.196353 7.95254e-21)
(1.14893 -0.441778 -1.11339e-20)
(1.13233 -0.56006 7.52428e-21)
(1.06635 -0.591586 -7.42979e-22)
(0.954436 -0.565164 -2.20357e-21)
(0.893844 -0.498974 -5.17645e-22)
(0.789632 -0.427286 4.70326e-22)
(0.67191 -0.40058 -1.18211e-22)
(0.631392 -0.269519 3.4146e-22)
(0.709455 0.0324425 -3.53952e-22)
(0.834038 0.234915 2.62768e-22)
(0.837501 0.527522 2.24108e-22)
(0.752051 0.6229 7.91843e-23)
(0.713464 0.489355 4.15322e-22)
(0.853434 0.161609 -4.18129e-23)
(0.99481 -0.134033 4.55189e-22)
(1.01894 -0.204701 -8.56961e-23)
(1.05454 -0.497596 4.22005e-22)
(1.00597 -0.429187 3.6472e-23)
(0.993477 -0.313015 1.90601e-22)
(0.967624 -0.167313 -2.81306e-22)
(0.936751 0.422288 -3.46898e-22)
(0.932772 0.343194 -3.8165e-23)
(0.290937 0.0293649 -4.00561e-22)
(0.300531 0.0670506 -1.96467e-21)
(0.35515 0.124055 -3.96003e-21)
(0.452995 0.158604 1.94868e-21)
(0.58618 0.174417 1.84367e-21)
(0.712779 0.16785 -1.4554e-21)
(0.88726 0.0428235 -9.19075e-22)
(1.08598 -0.197907 6.34903e-21)
(1.18557 -0.432221 -7.06851e-21)
(1.15923 -0.547028 -1.45899e-21)
(1.08829 -0.577985 2.12702e-24)
(0.972642 -0.555882 -3.32518e-22)
(0.906798 -0.49271 2.05693e-21)
(0.808257 -0.416717 -1.07165e-21)
(0.690974 -0.394374 4.23673e-22)
(0.644828 -0.281479 -4.2172e-22)
(0.714733 0.00997457 -2.26388e-23)
(0.835711 0.218358 -3.43137e-22)
(0.835685 0.524456 2.06473e-22)
(0.751658 0.62934 -6.16059e-22)
(0.717167 0.49136 1.2937e-22)
(0.86082 0.156753 4.43458e-22)
(1.00339 -0.137353 -3.34511e-22)
(1.02655 -0.20411 3.22951e-22)
(1.05941 -0.494966 -7.14287e-22)
(1.00925 -0.428077 2.93532e-22)
(0.996022 -0.31285 -3.56871e-22)
(0.968259 -0.16716 3.03528e-22)
(0.931983 0.422351 8.77982e-23)
(0.929641 0.343183 -4.96138e-24)
(0.377248 0.0227127 1.34915e-22)
(0.378268 0.0523184 -1.66404e-21)
(0.421665 0.103295 7.77983e-21)
(0.511349 0.13313 -7.35107e-21)
(0.631689 0.148498 5.469e-21)
(0.751802 0.146456 -6.00783e-21)
(0.933728 0.0287973 2.32908e-21)
(1.13001 -0.19834 -4.35209e-22)
(1.21951 -0.420748 -2.06955e-21)
(1.18404 -0.532579 1.42388e-21)
(1.10888 -0.563741 1.87798e-21)
(0.990585 -0.546083 3.84097e-22)
(0.91937 -0.486917 1.81415e-21)
(0.826145 -0.40703 -8.69483e-22)
(0.709764 -0.387731 1.06377e-21)
(0.65808 -0.292418 1.5493e-22)
(0.720592 -0.0121953 -5.18453e-22)
(0.837545 0.201369 9.62626e-23)
(0.834262 0.520506 5.76661e-22)
(0.751777 0.635351 3.49224e-22)
(0.721348 0.493594 -1.18852e-21)
(0.868643 0.152332 3.02779e-22)
(1.01212 -0.140432 3.06197e-22)
(1.03413 -0.203217 -1.42333e-22)
(1.06415 -0.492078 3.28202e-22)
(1.01251 -0.426942 -2.94212e-22)
(0.998451 -0.312669 -7.33915e-23)
(0.968633 -0.166876 4.17643e-22)
(0.927156 0.422451 4.91259e-23)
(0.926533 0.343126 1.93768e-23)
(0.476863 0.0198578 -3.49688e-22)
(0.472956 0.0409018 -1.424e-21)
(0.503345 0.0856192 -4.01028e-21)
(0.581711 0.110854 4.02091e-21)
(0.686764 0.124834 -7.06996e-21)
(0.799568 0.125187 -1.04171e-21)
(0.985141 0.0144125 9.7867e-21)
(1.17294 -0.197165 -7.87356e-21)
(1.25045 -0.407694 1.19206e-21)
(1.20671 -0.517695 -1.25178e-21)
(1.12813 -0.550054 4.19974e-21)
(1.00819 -0.536799 -1.50171e-21)
(0.931652 -0.482295 5.64069e-22)
(0.843229 -0.398714 4.17412e-22)
(0.728301 -0.380961 3.33836e-22)
(0.670857 -0.302639 4.28855e-23)
(0.726654 -0.0339998 -4.45902e-22)
(0.839315 0.18395 4.36526e-22)
(0.833169 0.515598 5.83896e-23)
(0.752359 0.64092 -3.55504e-22)
(0.725927 0.49606 2.2198e-22)
(0.877012 0.148451 -3.18391e-22)
(1.02098 -0.143195 2.1827e-22)
(1.04166 -0.202018 -2.55521e-22)
(1.0688 -0.48894 3.3505e-22)
(1.0157 -0.425812 1.35112e-22)
(1.00073 -0.312474 -1.14833e-22)
(0.968718 -0.166531 -1.28867e-22)
(0.922261 0.422578 -2.42126e-22)
(0.92346 0.34302 1.36377e-23)
(0.591139 0.0191165 -2.22814e-21)
(0.586486 0.032146 4.95184e-21)
(0.602856 0.0710939 -2.45625e-21)
(0.667034 0.0925257 -3.16155e-21)
(0.755158 0.104543 1.25895e-21)
(0.859148 0.105601 -4.9552e-21)
(1.04165 0.00205389 6.22915e-21)
(1.21395 -0.192375 1.92867e-21)
(1.27794 -0.392824 -5.89588e-21)
(1.22713 -0.502922 3.28824e-21)
(1.1461 -0.537444 -2.02669e-21)
(1.02545 -0.52827 -3.12119e-22)
(0.943804 -0.47887 1.90869e-21)
(0.859532 -0.391799 -1.34878e-22)
(0.746595 -0.374001 -2.92448e-22)
(0.683107 -0.312104 5.96897e-22)
(0.732637 -0.0559014 -6.79865e-22)
(0.840757 0.165341 3.01808e-22)
(0.832312 0.509711 -5.75236e-22)
(0.753327 0.645919 5.61064e-22)
(0.730866 0.498857 1.66729e-22)
(0.886192 0.145656 -3.7058e-22)
(1.02995 -0.145483 1.2633e-22)
(1.04911 -0.200538 6.23089e-25)
(1.07335 -0.485544 -5.62654e-23)
(1.01879 -0.424653 -1.54049e-22)
(1.00281 -0.312225 5.64079e-23)
(0.968496 -0.166203 -1.97475e-24)
(0.917292 0.4227 1.18294e-22)
(0.920433 0.342862 -6.6681e-24)
(0.728466 0.0148375 -7.67189e-21)
(0.719723 0.0248362 1.93552e-21)
(0.720687 0.0594205 -2.21444e-21)
(0.768536 0.077343 7.77161e-21)
(0.839157 0.0868712 -3.92424e-21)
(0.932549 0.0885002 4.78521e-21)
(1.10245 -0.004425 3.52477e-21)
(1.25168 -0.18414 -8.2153e-21)
(1.30145 -0.374016 6.49391e-22)
(1.24518 -0.483612 4.42218e-21)
(1.16279 -0.520513 -1.5453e-21)
(1.04229 -0.515693 -3.20744e-21)
(0.955916 -0.472744 2.25522e-23)
(0.875057 -0.383882 1.67696e-21)
(0.764596 -0.365382 3.6461e-23)
(0.694915 -0.318896 -2.42283e-23)
(0.738225 -0.0772922 -1.23345e-22)
(0.841665 0.145372 -1.41429e-22)
(0.831558 0.501028 -2.44826e-22)
(0.754718 0.65054 5.29419e-22)
(0.736656 0.502969 -4.42317e-22)
(0.896795 0.143451 -1.47747e-22)
(1.03901 -0.147609 2.00859e-22)
(1.05642 -0.198908 1.98148e-22)
(1.07783 -0.481885 -2.30164e-22)
(1.02176 -0.423206 2.24478e-22)
(1.00465 -0.311825 3.42863e-23)