/*--------------------------------*- C++ -*----------------------------------*\
  =========                 |
  \\      /  F ield         | OpenFOAM: The Open Source CFD Toolbox
   \\    /   O peration     | Website:  https://openfoam.org
    \\  /    A nd           | Version:  7
     \\/     M anipulation  |
\*---------------------------------------------------------------------------*/
FoamFile
{
    version     2.0;
    format      ascii;
    class       volScalarField;
    location    "30";
    object      p;
}
// * * * * * * * * * * * * * * * * * * * * * * * * * * * * * * * * * * * * * //

dimensions      [0 2 -2 0 0 0 0];

internalField   nonuniform List<scalar> 
8500
(
-0.281022
-0.28298
-0.283898
-0.284638
-0.285269
-0.285814
-0.286299
-0.286737
-0.287103
-0.28745
-0.281216
-0.283153
-0.284058
-0.284786
-0.285403
-0.285934
-0.286403
-0.286824
-0.28717
-0.287485
-0.2816
-0.283496
-0.284377
-0.285078
-0.285669
-0.286171
-0.286608
-0.286994
-0.287299
-0.287545
-0.28217
-0.284005
-0.284848
-0.285511
-0.286061
-0.286519
-0.286906
-0.287238
-0.287481
-0.287613
-0.282918
-0.284674
-0.285467
-0.286078
-0.286572
-0.28697
-0.287288
-0.287544
-0.287704
-0.287663
-0.283833
-0.285494
-0.286226
-0.28677
-0.287193
-0.287514
-0.287742
-0.287897
-0.287954
-0.287658
-0.284906
-0.286458
-0.287115
-0.287579
-0.287914
-0.28814
-0.288256
-0.28828
-0.288219
-0.287554
-0.286126
-0.287557
-0.288127
-0.288495
-0.288726
-0.288838
-0.288819
-0.288677
-0.288492
-0.287292
-0.287484
-0.288782
-0.289253
-0.28951
-0.289619
-0.289599
-0.289422
-0.289074
-0.288773
-0.286777
-0.28897
-0.290126
-0.290484
-0.290614
-0.290585
-0.290416
-0.29006
-0.289462
-0.289091
-0.285929
-0.290579
-0.291584
-0.291815
-0.291801
-0.291616
-0.291282
-0.290732
-0.289835
-0.289464
-0.28504
-0.292307
-0.293152
-0.293242
-0.293065
-0.292706
-0.292192
-0.291438
-0.290192
-0.289585
-0.28414
-0.294154
-0.294829
-0.29476
-0.294402
-0.29385
-0.293141
-0.29218
-0.290696
-0.28965
-0.282934
-0.296126
-0.29662
-0.296372
-0.295809
-0.295044
-0.294126
-0.292938
-0.291224
-0.289814
-0.281469
-0.298231
-0.29853
-0.298081
-0.297285
-0.296283
-0.295141
-0.29372
-0.291778
-0.290035
-0.279882
-0.300486
-0.300573
-0.299894
-0.298836
-0.297568
-0.296179
-0.294514
-0.292382
-0.290228
-0.278372
-0.302914
-0.302766
-0.301824
-0.300469
-0.298901
-0.297236
-0.295301
-0.293046
-0.290243
-0.277106
-0.305544
-0.305132
-0.303892
-0.3022
-0.300293
-0.298319
-0.29607
-0.293791
-0.289854
-0.275992
-0.308414
-0.307695
-0.306127
-0.304054
-0.301766
-0.299446
-0.296842
-0.294664
-0.289003
-0.275328
-0.311574
-0.310496
-0.308559
-0.306062
-0.303354
-0.300651
-0.297657
-0.295637
-0.288201
-0.279004
-0.315074
-0.313581
-0.311228
-0.308268
-0.3051
-0.301978
-0.298561
-0.296453
-0.288001
-0.293042
-0.318968
-0.316997
-0.314182
-0.310721
-0.307061
-0.303479
-0.299612
-0.29701
-0.288484
-0.292254
-0.32332
-0.320793
-0.31747
-0.313476
-0.309294
-0.305208
-0.300848
-0.297416
-0.288989
-0.289473
-0.32819
-0.32502
-0.321146
-0.316589
-0.311857
-0.307214
-0.302278
-0.297841
-0.289264
-0.286713
-0.333636
-0.32973
-0.325263
-0.320114
-0.314801
-0.309531
-0.303895
-0.298319
-0.28925
-0.283832
-0.339711
-0.33497
-0.329871
-0.324101
-0.318162
-0.312175
-0.305686
-0.298823
-0.288883
-0.280968
-0.346457
-0.340783
-0.335017
-0.328595
-0.321963
-0.31514
-0.307616
-0.299288
-0.288152
-0.278052
-0.353907
-0.347205
-0.340742
-0.333625
-0.326209
-0.318402
-0.309621
-0.299628
-0.287047
-0.275022
-0.362079
-0.354264
-0.347075
-0.339207
-0.330886
-0.321905
-0.311608
-0.299749
-0.28556
-0.271805
-0.370974
-0.361972
-0.354031
-0.345335
-0.335955
-0.325562
-0.313462
-0.299563
-0.283678
-0.268336
-0.380571
-0.370326
-0.361601
-0.351974
-0.341343
-0.329247
-0.315059
-0.298987
-0.281379
-0.264557
-0.390824
-0.379299
-0.369752
-0.359062
-0.346937
-0.332806
-0.316275
-0.297951
-0.278636
-0.260416
-0.401656
-0.388835
-0.378412
-0.366496
-0.352579
-0.336068
-0.316991
-0.296386
-0.275411
-0.255861
-0.412959
-0.398844
-0.387475
-0.374129
-0.358071
-0.338857
-0.317094
-0.294228
-0.271662
-0.250843
-0.424585
-0.409199
-0.396792
-0.381768
-0.36319
-0.341
-0.316478
-0.291411
-0.26734
-0.245311
-0.436348
-0.41973
-0.406171
-0.389174
-0.367699
-0.34233
-0.315042
-0.28787
-0.262388
-0.239215
-0.448022
-0.430227
-0.415376
-0.396071
-0.37136
-0.34269
-0.31269
-0.283537
-0.25675
-0.232505
-0.459344
-0.440438
-0.424129
-0.402161
-0.373939
-0.341932
-0.309329
-0.278343
-0.250367
-0.225136
-0.470016
-0.450078
-0.432115
-0.407138
-0.375219
-0.33992
-0.304867
-0.272218
-0.243178
-0.217064
-0.479714
-0.458828
-0.438998
-0.410701
-0.374995
-0.336527
-0.299221
-0.265095
-0.235127
-0.208251
-0.488092
-0.466351
-0.444424
-0.412566
-0.373085
-0.33164
-0.292309
-0.256908
-0.226161
-0.198664
-0.494795
-0.472292
-0.448045
-0.41247
-0.369326
-0.325156
-0.284057
-0.247599
-0.216235
-0.188275
-0.499466
-0.476297
-0.449531
-0.41018
-0.363578
-0.316984
-0.274398
-0.23711
-0.205312
-0.177072
-0.501762
-0.478018
-0.448577
-0.405498
-0.355725
-0.30705
-0.263271
-0.225392
-0.193357
-0.165039
-0.501356
-0.477127
-0.444918
-0.398262
-0.345675
-0.295293
-0.250631
-0.212403
-0.180326
-0.152106
-0.497954
-0.473327
-0.438336
-0.388348
-0.333364
-0.281676
-0.236451
-0.198118
-0.166169
-0.138096
-0.4913
-0.466363
-0.42866
-0.375672
-0.318755
-0.266177
-0.220718
-0.182535
-0.15088
-0.122819
-0.481185
-0.456031
-0.415766
-0.360189
-0.301834
-0.248791
-0.203418
-0.165661
-0.134529
-0.106418
-0.46745
-0.442185
-0.399582
-0.341889
-0.28261
-0.229514
-0.184549
-0.147528
-0.117119
-0.0895638
-0.449991
-0.424735
-0.380084
-0.3208
-0.261111
-0.208358
-0.164172
-0.128281
-0.0985658
-0.0721362
-0.428764
-0.403649
-0.357296
-0.296992
-0.237403
-0.185392
-0.142512
-0.107772
-0.07903
-0.0540048
-0.403778
-0.378952
-0.331293
-0.270571
-0.211594
-0.160844
-0.1194
-0.0861202
-0.0586073
-0.035173
-0.375103
-0.35074
-0.30224
-0.241627
-0.183779
-0.134687
-0.09499
-0.0634144
-0.0373727
-0.0157202
-0.342859
-0.319188
-0.270397
-0.210159
-0.154066
-0.107025
-0.0693906
-0.0397504
-0.0154021
0.00424839
-0.30723
-0.284529
-0.235891
-0.176336
-0.122589
-0.0779979
-0.0427221
-0.0152273
0.0072272
0.0246481
-0.268448
-0.246995
-0.198159
-0.140951
-0.089611
-0.0477614
-0.0151131
0.0100523
0.0304342
0.0453876
-0.226732
-0.206735
-0.158159
-0.103793
-0.055326
-0.0164874
0.0133076
0.0359938
0.0540818
0.0661285
-0.182336
-0.163705
-0.116673
-0.0651206
-0.0199188
0.0156525
0.0424277
0.0625194
0.0778974
0.0860591
-0.135681
-0.118586
-0.0736963
-0.0252288
0.0164013
0.0484891
0.0721432
0.0895335
0.101558
0.104621
-0.0871925
-0.0717214
-0.0294294
0.015597
0.0534012
0.0818391
0.102297
0.116806
0.124975
0.123549
-0.0371906
-0.0235527
0.0158168
0.0570713
0.0908383
0.115497
0.132643
0.143938
0.148117
0.147659
0.0139042
0.0255109
0.06169
0.0989003
0.128464
0.149239
0.162917
0.170794
0.171832
0.171923
0.0656529
0.0750652
0.107826
0.140783
0.166025
0.182839
0.192947
0.19744
0.195807
0.19496
0.117613
0.124701
0.153857
0.182414
0.203259
0.216067
0.222561
0.223753
0.219616
0.217087
0.169338
0.174008
0.199419
0.223488
0.239909
0.248703
0.251587
0.249557
0.242922
0.238292
0.220387
0.222574
0.244153
0.263701
0.275718
0.28053
0.279849
0.274675
0.265539
0.258608
0.270321
0.269997
0.287708
0.302759
0.310434
0.311336
0.307165
0.298931
0.287315
0.277994
0.318712
0.315882
0.329742
0.340372
0.343814
0.340914
0.33336
0.322168
0.308122
0.296389
0.365149
0.35985
0.369928
0.376263
0.375622
0.369066
0.358261
0.344236
0.327842
0.31372
0.409235
0.401537
0.407953
0.410169
0.405636
0.395599
0.381707
0.364995
0.346361
0.329912
0.450596
0.440601
0.443522
0.441841
0.433642
0.420335
0.403544
0.384314
0.363571
0.34489
0.488881
0.476722
0.476361
0.471045
0.459444
0.443105
0.423629
0.402073
0.379371
0.358582
0.523767
0.509606
0.506216
0.497568
0.482859
0.463753
0.44183
0.418157
0.393666
0.370922
0.55496
0.538985
0.532859
0.521216
0.503722
0.48214
0.458027
0.432465
0.406371
0.38185
0.582198
0.564621
0.556085
0.541816
0.521887
0.49814
0.472115
0.444905
0.417407
0.391314
0.605252
0.586307
0.575717
0.559217
0.537223
0.511643
0.483999
0.455397
0.426709
0.399268
0.623931
0.603868
0.591605
0.573292
0.549625
0.522558
0.493603
0.463873
0.43422
0.405675
0.638078
0.617164
0.603628
0.583939
0.559003
0.530811
0.500861
0.470278
0.439893
0.410505
0.647576
0.626088
0.611695
0.591081
0.565292
0.536343
0.505727
0.474572
0.443695
0.413738
0.652344
0.630567
0.615743
0.594664
0.568448
0.539119
0.508168
0.476725
0.445602
0.415358
0.652344
0.630567
0.615743
0.594664
0.568448
0.539119
0.508168
0.476725
0.445602
0.415358
0.647576
0.626088
0.611695
0.591081
0.565292
0.536344
0.505727
0.474572
0.443695
0.413738
0.638078
0.617164
0.603628
0.583939
0.559003
0.530811
0.500861
0.470278
0.439893
0.410505
0.623931
0.603868
0.591605
0.573292
0.549625
0.522558
0.493603
0.463873
0.43422
0.405675
0.605252
0.586307
0.575717
0.559217
0.537223
0.511643
0.483999
0.455397
0.426709
0.399268
0.582198
0.564621
0.556085
0.541816
0.521887
0.49814
0.472115
0.444905
0.417407
0.391314
0.55496
0.538985
0.532859
0.521216
0.503722
0.48214
0.458027
0.432465
0.406371
0.38185
0.523767
0.509606
0.506216
0.497568
0.482859
0.463753
0.44183
0.418157
0.393666
0.370922
0.488881
0.476722
0.476361
0.471045
0.459444
0.443105
0.423629
0.402073
0.379371
0.358582
0.450596
0.440601
0.443522
0.441841
0.433642
0.420335
0.403544
0.384314
0.363571
0.34489
0.409235
0.401537
0.407953
0.410169
0.405636
0.395599
0.381707
0.364995
0.346361
0.329912
0.365149
0.35985
0.369928
0.376263
0.375622
0.369066
0.358261
0.344236
0.327842
0.31372
0.318712
0.315882
0.329742
0.340372
0.343814
0.340914
0.33336
0.322168
0.308122
0.296389
0.270321
0.269997
0.287708
0.302759
0.310434
0.311336
0.307165
0.298932
0.287315
0.277994
0.220387
0.222574
0.244153
0.263701
0.275718
0.28053
0.279849
0.274675
0.265539
0.258608
0.169338
0.174008
0.199419
0.223488
0.239909
0.248703
0.251587
0.249557
0.242922
0.238292
0.117613
0.124701
0.153857
0.182414
0.203259
0.216067
0.222561
0.223753
0.219616
0.217087
0.065653
0.0750653
0.107826
0.140783
0.166025
0.182839
0.192948
0.19744
0.195807
0.19496
0.0139043
0.025511
0.0616901
0.0989004
0.128464
0.14924
0.162917
0.170794
0.171832
0.171923
-0.0371905
-0.0235526
0.0158169
0.0570714
0.0908384
0.115497
0.132643
0.143938
0.148117
0.147659
-0.0871923
-0.0717213
-0.0294293
0.0155972
0.0534013
0.0818392
0.102297
0.116806
0.124975
0.123549
-0.135681
-0.118586
-0.0736962
-0.0252287
0.0164014
0.0484892
0.0721433
0.0895336
0.101558
0.104621
-0.182336
-0.163704
-0.116673
-0.0651205
-0.0199187
0.0156526
0.0424278
0.0625195
0.0778975
0.0860592
-0.226732
-0.206734
-0.158159
-0.103793
-0.0553259
-0.0164873
0.0133077
0.0359939
0.0540819
0.0661286
-0.268448
-0.246995
-0.198159
-0.14095
-0.0896108
-0.0477612
-0.015113
0.0100524
0.0304343
0.0453876
-0.30723
-0.284529
-0.235891
-0.176336
-0.122589
-0.0779977
-0.042722
-0.0152272
0.0072273
0.0246482
-0.342859
-0.319187
-0.270397
-0.210159
-0.154066
-0.107025
-0.0693904
-0.0397503
-0.015402
0.00424849
-0.375103
-0.35074
-0.302239
-0.241626
-0.183779
-0.134687
-0.0949899
-0.0634143
-0.0373726
-0.0157201
-0.403778
-0.378952
-0.331293
-0.270571
-0.211594
-0.160844
-0.119399
-0.0861201
-0.0586072
-0.0351729
-0.428763
-0.403649
-0.357295
-0.296992
-0.237403
-0.185392
-0.142512
-0.107772
-0.0790299
-0.0540046
-0.449991
-0.424735
-0.380084
-0.3208
-0.261111
-0.208358
-0.164172
-0.12828
-0.0985656
-0.0721361
-0.467449
-0.442185
-0.399582
-0.341889
-0.282609
-0.229514
-0.184548
-0.147528
-0.117119
-0.0895637
-0.481185
-0.456031
-0.415766
-0.360189
-0.301834
-0.248791
-0.203418
-0.16566
-0.134529
-0.106418
-0.4913
-0.466363
-0.428659
-0.375672
-0.318755
-0.266177
-0.220717
-0.182535
-0.15088
-0.122818
-0.497954
-0.473327
-0.438336
-0.388347
-0.333364
-0.281675
-0.236451
-0.198118
-0.166169
-0.138096
-0.501355
-0.477127
-0.444918
-0.398262
-0.345675
-0.295293
-0.250631
-0.212403
-0.180325
-0.152106
-0.501761
-0.478018
-0.448576
-0.405498
-0.355724
-0.307049
-0.263271
-0.225392
-0.193357
-0.165038
-0.499466
-0.476297
-0.44953
-0.41018
-0.363578
-0.316984
-0.274398
-0.23711
-0.205312
-0.177071
-0.494795
-0.472292
-0.448045
-0.412469
-0.369326
-0.325156
-0.284057
-0.247599
-0.216235
-0.188275
-0.488092
-0.46635
-0.444423
-0.412566
-0.373085
-0.33164
-0.292309
-0.256908
-0.226161
-0.198664
-0.479714
-0.458828
-0.438997
-0.410701
-0.374995
-0.336527
-0.299221
-0.265095
-0.235127
-0.208251
-0.470016
-0.450077
-0.432115
-0.407138
-0.375218
-0.339919
-0.304867
-0.272218
-0.243178
-0.217064
-0.459344
-0.440438
-0.424128
-0.402161
-0.373939
-0.341931
-0.309328
-0.278343
-0.250367
-0.225136
-0.448021
-0.430227
-0.415375
-0.396071
-0.371359
-0.342689
-0.31269
-0.283537
-0.25675
-0.232505
-0.436347
-0.41973
-0.406171
-0.389174
-0.367699
-0.34233
-0.315042
-0.28787
-0.262388
-0.239215
-0.424584
-0.409199
-0.396792
-0.381768
-0.36319
-0.341
-0.316477
-0.291411
-0.267339
-0.245311
-0.412958
-0.398844
-0.387475
-0.374129
-0.358071
-0.338857
-0.317093
-0.294228
-0.271662
-0.250843
-0.401656
-0.388834
-0.378412
-0.366495
-0.352579
-0.336068
-0.31699
-0.296386
-0.275411
-0.255861
-0.390823
-0.379299
-0.369751
-0.359062
-0.346937
-0.332805
-0.316275
-0.297951
-0.278635
-0.260416
-0.380571
-0.370326
-0.361601
-0.351974
-0.341343
-0.329246
-0.315059
-0.298987
-0.281379
-0.264557
-0.370973
-0.361972
-0.35403
-0.345334
-0.335955
-0.325562
-0.313461
-0.299562
-0.283677
-0.268335
-0.362079
-0.354264
-0.347074
-0.339207
-0.330886
-0.321905
-0.311607
-0.299749
-0.28556
-0.271805
-0.353907
-0.347205
-0.340741
-0.333625
-0.326209
-0.318401
-0.30962
-0.299628
-0.287046
-0.275022
-0.346457
-0.340782
-0.335017
-0.328594
-0.321962
-0.31514
-0.307615
-0.299288
-0.288151
-0.278052
-0.33971
-0.334969
-0.32987
-0.324101
-0.318161
-0.312174
-0.305686
-0.298823
-0.288883
-0.280967
-0.333636
-0.32973
-0.325262
-0.320113
-0.3148
-0.309531
-0.303895
-0.298319
-0.289249
-0.283832
-0.328189
-0.32502
-0.321146
-0.316588
-0.311857
-0.307214
-0.302277
-0.29784
-0.289264
-0.286712
-0.323319
-0.320793
-0.31747
-0.313476
-0.309293
-0.305208
-0.300847
-0.297415
-0.288989
-0.289472
-0.318968
-0.316997
-0.314181
-0.310721
-0.30706
-0.303479
-0.299611
-0.29701
-0.288484
-0.292254
-0.315074
-0.31358
-0.311228
-0.308268
-0.3051
-0.301977
-0.298561
-0.296453
-0.288
-0.293042
-0.311574
-0.310496
-0.308559
-0.306062
-0.303353
-0.30065
-0.297656
-0.295636
-0.2882
-0.279004
-0.308414
-0.307694
-0.306127
-0.304053
-0.301766
-0.299445
-0.296841
-0.294664
-0.289002
-0.275328
-0.305543
-0.305131
-0.303891
-0.3022
-0.300292
-0.298318
-0.296069
-0.29379
-0.289854
-0.275991
-0.302914
-0.302766
-0.301824
-0.300468
-0.2989
-0.297236
-0.295301
-0.293046
-0.290243
-0.277106
-0.300486
-0.300573
-0.299894
-0.298835
-0.297567
-0.296178
-0.294514
-0.292381
-0.290228
-0.278372
-0.298231
-0.29853
-0.29808
-0.297285
-0.296283
-0.29514
-0.29372
-0.291778
-0.290034
-0.279882
-0.296125
-0.29662
-0.296372
-0.295808
-0.295043
-0.294125
-0.292938
-0.291224
-0.289813
-0.281468
-0.294154
-0.294829
-0.29476
-0.294402
-0.29385
-0.293141
-0.29218
-0.290696
-0.289649
-0.282933
-0.292306
-0.293151
-0.293241
-0.293065
-0.292705
-0.292191
-0.291437
-0.290191
-0.289584
-0.284139
-0.290578
-0.291583
-0.291815
-0.291801
-0.291615
-0.291282
-0.290732
-0.289834
-0.289463
-0.285039
-0.28897
-0.290126
-0.290484
-0.290614
-0.290584
-0.290416
-0.29006
-0.289462
-0.28909
-0.285929
-0.287484
-0.288782
-0.289252
-0.28951
-0.289619
-0.289599
-0.289422
-0.289073
-0.288772
-0.286777
-0.286126
-0.287557
-0.288127
-0.288495
-0.288726
-0.288838
-0.288819
-0.288677
-0.288492
-0.287292
-0.284906
-0.286458
-0.287115
-0.287579
-0.287914
-0.28814
-0.288256
-0.28828
-0.288219
-0.287553
-0.283833
-0.285494
-0.286226
-0.28677
-0.287193
-0.287514
-0.287742
-0.287897
-0.287953
-0.287657
-0.282918
-0.284674
-0.285467
-0.286078
-0.286572
-0.28697
-0.287288
-0.287544
-0.287703
-0.287663
-0.28217
-0.284005
-0.284848
-0.285511
-0.286061
-0.286519
-0.286906
-0.287238
-0.287481
-0.287613
-0.2816
-0.283496
-0.284377
-0.285078
-0.285669
-0.286171
-0.286608
-0.286994
-0.287299
-0.287545
-0.281216
-0.283153
-0.284058
-0.284786
-0.285403
-0.285934
-0.286403
-0.286824
-0.28717
-0.287485
-0.281022
-0.28298
-0.283898
-0.284638
-0.285269
-0.285814
-0.286299
-0.286737
-0.287103
-0.28745
-0.288956
-0.288033
-0.289443
-0.288895
-0.289184
-0.288421
-0.287576
-0.285912
-0.283684
-0.28054
-0.276434
-0.271157
-0.264492
-0.256456
-0.246618
-0.235434
-0.221777
-0.20712
-0.188527
-0.169192
-0.14412
-0.118568
-0.0903352
-0.0631692
-0.0411097
-0.0205632
-0.0100099
0.00123052
0.00140452
0.00547141
-0.289082
-0.288065
-0.289503
-0.288942
-0.289231
-0.288468
-0.287623
-0.285961
-0.283734
-0.280593
-0.27649
-0.271215
-0.264553
-0.256521
-0.246685
-0.235504
-0.22185
-0.207202
-0.188618
-0.169298
-0.144232
-0.118681
-0.0904423
-0.063259
-0.0411878
-0.0206221
-0.0100582
0.00119567
0.00137919
0.00545695
-0.289328
-0.288125
-0.28962
-0.289033
-0.289323
-0.288561
-0.287715
-0.286056
-0.283832
-0.280696
-0.276599
-0.27133
-0.264672
-0.256647
-0.246814
-0.23564
-0.221993
-0.207364
-0.188796
-0.169506
-0.144453
-0.118903
-0.0906549
-0.0634375
-0.0413434
-0.0207394
-0.0101545
0.00112601
0.00132881
0.005428
-0.289688
-0.288207
-0.289787
-0.289164
-0.289455
-0.288695
-0.287847
-0.286194
-0.283975
-0.280848
-0.276758
-0.271497
-0.264846
-0.256832
-0.247004
-0.235839
-0.222202
-0.207599
-0.189057
-0.169809
-0.144778
-0.119231
-0.0909683
-0.063702
-0.0415745
-0.0209151
-0.0102982
0.00102119
0.00125367
0.00538443
-0.29015
-0.288301
-0.289996
-0.289327
-0.289619
-0.288864
-0.288014
-0.286369
-0.284156
-0.281041
-0.276962
-0.271713
-0.265074
-0.257069
-0.247248
-0.236096
-0.222471
-0.2079
-0.189392
-0.170198
-0.145198
-0.119653
-0.0913772
-0.0640485
-0.0418788
-0.0211486
-0.010489
0.000880745
0.00115415
0.00532609
-0.290703
-0.288397
-0.290234
-0.289515
-0.289809
-0.289059
-0.288209
-0.286574
-0.284369
-0.281269
-0.277204
-0.271968
-0.265321
-0.257353
-0.247541
-0.236404
-0.222793
-0.20826
-0.189792
-0.170661
-0.145699
-0.120159
-0.0918735
-0.0644723
-0.042253
-0.0214394
-0.0107261
0.000704181
0.00103077
0.0052528
-0.29133
-0.288483
-0.290489
-0.289717
-0.290012
-0.289272
-0.288421
-0.286799
-0.284605
-0.281524
-0.277476
-0.272257
-0.265682
-0.257679
-0.247875
-0.236755
-0.22316
-0.20867
-0.190246
-0.171188
-0.146271
-0.12074
-0.0924483
-0.0649683
-0.0426938
-0.0217867
-0.0110086
0.000491011
0.000884151
0.0051644
-0.29202
-0.288546
-0.290745
-0.289925
-0.290219
-0.289491
-0.288642
-0.287037
-0.284857
-0.281797
-0.27777
-0.272571
-0.265992
-0.258035
-0.248243
-0.237142
-0.223565
-0.20912
-0.190742
-0.17176
-0.146906
-0.121383
-0.0930927
-0.0655307
-0.0431973
-0.0221896
-0.0113356
0.000240854
0.000714999
0.00506075
-0.292782
-0.288568
-0.290988
-0.290125
-0.290417
-0.289707
-0.288862
-0.287277
-0.285114
-0.28208
-0.278077
-0.272905
-0.266352
-0.258415
-0.248637
-0.237558
-0.223998
-0.209601
-0.191275
-0.172365
-0.147589
-0.122076
-0.093798
-0.0661539
-0.0437598
-0.0226468
-0.0117059
-4.64915e-05
0.000524107
0.0049418
-0.2936
-0.288539
-0.291208
-0.290304
-0.290596
-0.289907
-0.289069
-0.287509
-0.285366
-0.282362
-0.278386
-0.273219
-0.266719
-0.25881
-0.249049
-0.237995
-0.224452
-0.210101
-0.191833
-0.172997
-0.148306
-0.122809
-0.0945558
-0.0668323
-0.0443772
-0.0231569
-0.0121183
-0.000370979
0.000312352
0.00480758
-0.294179
-0.288561
-0.291374
-0.290452
-0.290743
-0.290081
-0.289254
-0.287722
-0.285605
-0.282636
-0.278691
-0.273616
-0.267088
-0.259212
-0.24947
-0.238442
-0.224922
-0.210615
-0.192406
-0.173642
-0.14905
-0.123571
-0.0953578
-0.0675602
-0.0450455
-0.0237182
-0.0125713
-0.000732265
8.06878e-05
0.00465825
-0.294676
-0.288641
-0.291409
-0.290589
-0.29084
-0.29022
-0.289406
-0.287908
-0.285821
-0.28289
-0.278979
-0.27395
-0.267456
-0.259613
-0.249895
-0.238896
-0.225398
-0.211136
-0.192986
-0.174292
-0.14981
-0.124355
-0.0961967
-0.0683325
-0.0457607
-0.0243285
-0.013063
-0.00112967
-0.000169851
0.0044941
-0.295165
-0.288677
-0.291387
-0.290665
-0.290883
-0.290308
-0.289513
-0.288056
-0.286003
-0.283116
-0.279244
-0.274252
-0.267808
-0.260004
-0.250314
-0.239348
-0.225874
-0.211654
-0.193566
-0.174938
-0.150579
-0.125151
-0.0970654
-0.069144
-0.0465189
-0.0249855
-0.0135918
-0.0015622
-0.000438157
0.00431558
-0.295612
-0.288679
-0.291296
-0.290666
-0.290859
-0.290336
-0.289567
-0.288155
-0.286143
-0.283304
-0.279453
-0.274533
-0.268136
-0.260378
-0.25072
-0.23979
-0.226343
-0.212166
-0.194141
-0.175573
-0.15135
-0.125955
-0.097958
-0.0699902
-0.0473161
-0.0256866
-0.0141554
-0.00202848
-0.000723043
0.00412325
-0.295979
-0.288667
-0.291114
-0.29058
-0.290754
-0.290289
-0.289556
-0.288196
-0.286231
-0.283446
-0.279687
-0.274777
-0.268434
-0.260726
-0.251106
-0.240217
-0.2268
-0.212664
-0.194706
-0.176193
-0.152117
-0.12676
-0.0988681
-0.0708659
-0.0481476
-0.0264282
-0.0147512
-0.00252672
-0.0010232
0.00391784
-0.296214
-0.288633
-0.29083
-0.290391
-0.290554
-0.290157
-0.289467
-0.288168
-0.286256
-0.283531
-0.27985
-0.274976
-0.268691
-0.261041
-0.251463
-0.240621
-0.227237
-0.213141
-0.195252
-0.17679
-0.152871
-0.127559
-0.0997879
-0.0717644
-0.0490077
-0.0272063
-0.0153761
-0.00305469
-0.00133721
0.00370023
-0.296194
-0.288541
-0.290442
-0.290087
-0.29025
-0.28993
-0.289293
-0.288061
-0.286209
-0.283548
-0.279913
-0.275122
-0.2689
-0.261312
-0.251783
-0.240993
-0.227647
-0.213591
-0.195776
-0.177359
-0.15361
-0.128348
-0.100714
-0.0726834
-0.0498946
-0.0280187
-0.0160287
-0.00361061
-0.00166397
0.00347133
-0.295824
-0.288382
-0.289949
-0.289658
-0.289828
-0.289596
-0.289025
-0.287869
-0.286086
-0.283491
-0.279922
-0.275207
-0.269054
-0.26154
-0.252069
-0.241339
-0.228039
-0.214027
-0.196293
-0.177921
-0.154354
-0.12915
-0.10167
-0.0736404
-0.0508216
-0.0288724
-0.0167126
-0.00419493
-0.00200336
0.00323198
-0.295402
-0.288084
-0.289269
-0.289017
-0.28921
-0.289092
-0.288612
-0.287555
-0.285863
-0.28336
-0.279857
-0.275232
-0.269163
-0.261738
-0.252337
-0.241682
-0.228439
-0.214474
-0.196829
-0.178501
-0.155127
-0.129987
-0.102668
-0.0746439
-0.0517908
-0.0297674
-0.0174257
-0.0048058
-0.0023537
0.00298311
-0.292939
-0.286835
-0.288215
-0.288023
-0.2883
-0.288341
-0.287985
-0.28705
-0.285468
-0.283062
-0.279664
-0.275144
-0.269161
-0.261823
-0.25249
-0.241898
-0.22871
-0.214777
-0.197216
-0.178909
-0.155718
-0.130642
-0.103493
-0.0755183
-0.0526608
-0.0306145
-0.018111
-0.00541779
-0.00270258
0.00272727
-0.280993
-0.284299
-0.287035
-0.286966
-0.287338
-0.28754
-0.2873
-0.286474
-0.284999
-0.282767
-0.279334
-0.274833
-0.268884
-0.261578
-0.252282
-0.241713
-0.228574
-0.214641
-0.197177
-0.178865
-0.155879
-0.130901
-0.103999
-0.0762019
-0.0534365
-0.0314899
-0.0188542
-0.00614009
-0.00311315
0.00241028
-0.276063
-0.281699
-0.284787
-0.284804
-0.285332
-0.285782
-0.285715
-0.285018
-0.283618
-0.281361
-0.278082
-0.273681
-0.267799
-0.26056
-0.251333
-0.240823
-0.227779
-0.213872
-0.196562
-0.17827
-0.155593
-0.130814
-0.104321
-0.0768523
-0.0542868
-0.0325334
-0.0197646
-0.00704173
-0.00362608
0.00201805
-0.272826
-0.278299
-0.281318
-0.28166
-0.282484
-0.283264
-0.283443
-0.282936
-0.281677
-0.279562
-0.276381
-0.272066
-0.266259
-0.259101
-0.249962
-0.239529
-0.226606
-0.212743
-0.195618
-0.177366
-0.155042
-0.130517
-0.104493
-0.0774303
-0.0551139
-0.0336063
-0.0207144
-0.00799798
-0.00416956
0.00160407
-0.269251
-0.273672
-0.276432
-0.277389
-0.27869
-0.279896
-0.280415
-0.280181
-0.27914
-0.277225
-0.274191
-0.270004
-0.264315
-0.257275
-0.248263
-0.237936
-0.225171
-0.211373
-0.194469
-0.176285
-0.154351
-0.130129
-0.104615
-0.0780142
-0.0559676
-0.0347403
-0.021716
-0.00901425
-0.00474117
0.00117038
-0.263907
-0.267776
-0.270253
-0.271949
-0.273876
-0.275588
-0.276529
-0.276645
-0.275896
-0.274233
-0.271415
-0.267415
-0.261895
-0.255019
-0.246183
-0.236
-0.223438
-0.209737
-0.193095
-0.175015
-0.15351
-0.129649
-0.104681
-0.0786013
-0.0568443
-0.0359306
-0.0227655
-0.0100856
-0.00533857
0.0007209
-0.25654
-0.260743
-0.263068
-0.265465
-0.268091
-0.270358
-0.271771
-0.272295
-0.271894
-0.270539
-0.26799
-0.264246
-0.258951
-0.252287
-0.24368
-0.233683
-0.221374
-0.207808
-0.191472
-0.173544
-0.152507
-0.129068
-0.104682
-0.0791807
-0.0577339
-0.0371651
-0.0238551
-0.011203
-0.00595863
0.000260824
-0.247673
-0.25277
-0.255194
-0.258187
-0.2615
-0.264337
-0.266238
-0.267195
-0.267178
-0.266172
-0.263948
-0.260502
-0.255483
-0.249077
-0.240752
-0.230984
-0.218978
-0.205592
-0.189604
-0.171883
-0.151348
-0.128393
-0.104619
-0.079747
-0.0586292
-0.0384318
-0.0249764
-0.0123565
-0.00659776
-0.000204123
-0.237809
-0.244077
-0.246896
-0.250387
-0.254317
-0.257712
-0.260096
-0.261485
-0.261862
-0.261226
-0.259352
-0.256237
-0.25154
-0.24543
-0.23743
-0.227933
-0.216272
-0.203113
-0.18751
-0.170056
-0.150049
-0.127638
-0.104496
-0.0802958
-0.0595237
-0.0397181
-0.0261207
-0.0135348
-0.007252
-0.000668046
-0.227399
-0.234898
-0.238355
-0.242292
-0.246746
-0.250667
-0.253521
-0.25533
-0.256096
-0.25583
-0.254312
-0.251536
-0.247203
-0.241415
-0.233772
-0.22458
-0.213298
-0.200411
-0.185223
-0.168091
-0.148634
-0.126815
-0.104322
-0.0808229
-0.0604107
-0.041011
-0.027279
-0.0147265
-0.00791722
-0.00112519
-0.216835
-0.225437
-0.229683
-0.234058
-0.238949
-0.243353
-0.246661
-0.248876
-0.250019
-0.250115
-0.248957
-0.246529
-0.242566
-0.237116
-0.229851
-0.22099
-0.210109
-0.197534
-0.182783
-0.166025
-0.147129
-0.125941
-0.104103
-0.0813239
-0.0612838
-0.0422973
-0.0284418
-0.01592
-0.00858922
-0.00157028
-0.206368
-0.215857
-0.220951
-0.225781
-0.231044
-0.235879
-0.239625
-0.242236
-0.243745
-0.244193
-0.243393
-0.241314
-0.237716
-0.232616
-0.225741
-0.217229
-0.206762
-0.194533
-0.18023
-0.16389
-0.14556
-0.12503
-0.103847
-0.0817953
-0.0621369
-0.043565
-0.0296006
-0.0171043
-0.00926387
-0.00199879
-0.196145
-0.206295
-0.212214
-0.21752
-0.223112
-0.228326
-0.232488
-0.235486
-0.237355
-0.238145
-0.237698
-0.235964
-0.232731
-0.227986
-0.221504
-0.213355
-0.203307
-0.19145
-0.177604
-0.161715
-0.143952
-0.124093
-0.10356
-0.0822335
-0.0629647
-0.0448033
-0.030747
-0.0182696
-0.00993721
-0.00240714
-0.186268
-0.196863
-0.203527
-0.209315
-0.215211
-0.220755
-0.225302
-0.228679
-0.230902
-0.232028
-0.231928
-0.230536
-0.227665
-0.223278
-0.217188
-0.209412
-0.199785
-0.188321
-0.174933
-0.159522
-0.142322
-0.12314
-0.103249
-0.0826358
-0.0637621
-0.0460032
-0.0318739
-0.0194071
-0.0106055
-0.00279272
-0.176804
-0.187655
-0.19495
-0.201203
-0.207386
-0.213216
-0.218113
-0.221853
-0.224425
-0.225881
-0.226121
-0.225069
-0.222558
-0.21853
-0.21283
-0.205435
-0.196226
-0.185171
-0.172244
-0.157328
-0.140685
-0.122176
-0.102917
-0.0829996
-0.0645252
-0.0471571
-0.0329747
-0.0205094
-0.0112651
-0.00315394
-0.167798
-0.178747
-0.186547
-0.193225
-0.199678
-0.205755
-0.210961
-0.215044
-0.217955
-0.219736
-0.220309
-0.219593
-0.217439
-0.213771
-0.208457
-0.201447
-0.192654
-0.182021
-0.169552
-0.155142
-0.139052
-0.121207
-0.102566
-0.0833231
-0.0652501
-0.0482591
-0.0340439
-0.0215704
-0.0119125
-0.0034901
-0.159285
-0.170201
-0.17838
-0.185425
-0.192124
-0.198415
-0.203891
-0.208288
-0.211526
-0.213623
-0.21452
-0.214136
-0.212333
-0.209023
-0.204091
-0.19747
-0.18909
-0.178886
-0.166874
-0.152976
-0.137431
-0.120234
-0.102198
-0.0836052
-0.065934
-0.0493042
-0.0350761
-0.022585
-0.0125442
-0.00380123
-0.151287
-0.162068
-0.170505
-0.177851
-0.184766
-0.19124
-0.196945
-0.201625
-0.20517
-0.207575
-0.208784
-0.208725
-0.207265
-0.204312
-0.199755
-0.193524
-0.185552
-0.17578
-0.164224
-0.150837
-0.135829
-0.119263
-0.101815
-0.0838454
-0.066574
-0.0502886
-0.0360665
-0.023549
-0.0131567
-0.00408789
-0.14382
-0.154386
-0.162975
-0.170549
-0.177644
-0.184272
-0.190168
-0.195097
-0.198925
-0.201623
-0.203135
-0.20339
-0.202263
-0.199662
-0.195473
-0.189628
-0.18206
-0.17272
-0.161615
-0.148734
-0.134253
-0.118296
-0.101421
-0.0840439
-0.0671681
-0.0512093
-0.0370107
-0.024459
-0.0137465
-0.00435096
-0.136892
-0.147183
-0.155834
-0.163566
-0.170799
-0.177551
-0.183605
-0.188747
-0.192831
-0.195806
-0.197606
-0.198163
-0.197359
-0.195099
-0.191271
-0.185806
-0.178635
-0.169721
-0.159061
-0.146677
-0.132712
-0.117339
-0.101016
-0.0842018
-0.0677145
-0.052064
-0.0379043
-0.0253124
-0.01431
-0.00459148
-0.130505
-0.140482
-0.149118
-0.156944
-0.164274
-0.171121
-0.177301
-0.182622
-0.186932
-0.190162
-0.192234
-0.193081
-0.192585
-0.190655
-0.187175
-0.182082
-0.175298
-0.166802
-0.156578
-0.144677
-0.131213
-0.116397
-0.100604
-0.0843208
-0.0682119
-0.0528511
-0.0387432
-0.0261068
-0.0148437
-0.00481055
-0.124659
-0.134297
-0.142859
-0.150723
-0.158111
-0.165022
-0.171298
-0.176766
-0.181274
-0.184735
-0.187061
-0.188181
-0.187977
-0.186363
-0.183218
-0.178484
-0.172076
-0.163985
-0.154184
-0.142749
-0.129767
-0.115478
-0.10019
-0.0844034
-0.0686596
-0.0535694
-0.0395235
-0.0268403
-0.0153441
-0.00500919
-0.11935
-0.128639
-0.137084
-0.144939
-0.152348
-0.159297
-0.165642
-0.171228
-0.175903
-0.179571
-0.182129
-0.183504
-0.183575
-0.182259
-0.179433
-0.175041
-0.168993
-0.16129
-0.151897
-0.140905
-0.128383
-0.11459
-0.0997782
-0.0844529
-0.0690575
-0.0542185
-0.0402417
-0.0275115
-0.0158081
-0.00518826
-0.114575
-0.12352
-0.131817
-0.139625
-0.147026
-0.153988
-0.160378
-0.166055
-0.170869
-0.174718
-0.177486
-0.179095
-0.179421
-0.178383
-0.175857
-0.171788
-0.166081
-0.158745
-0.149738
-0.139163
-0.127075
-0.113741
-0.0993743
-0.0844735
-0.069406
-0.0547981
-0.0408944
-0.0281187
-0.0162328
-0.00534842
-0.110333
-0.118946
-0.127079
-0.134815
-0.142184
-0.149138
-0.155553
-0.161297
-0.166225
-0.170227
-0.173182
-0.175002
-0.175561
-0.17478
-0.17253
-0.16876
-0.163372
-0.156377
-0.14773
-0.137542
-0.125856
-0.112943
-0.0989852
-0.0844698
-0.0697061
-0.0553085
-0.0414787
-0.0286606
-0.0166154
-0.00549007
-0.106625
-0.11493
-0.122893
-0.130542
-0.137862
-0.144793
-0.151216
-0.157007
-0.162024
-0.166156
-0.169271
-0.171279
-0.172047
-0.171495
-0.169496
-0.165998
-0.1609
-0.154218
-0.1459
-0.136063
-0.124742
-0.112208
-0.098619
-0.0844475
-0.0699594
-0.0557499
-0.0419919
-0.0291355
-0.0169532
-0.00561332
-0.103459
-0.111485
-0.119285
-0.12684
-0.134102
-0.141001
-0.14742