/*--------------------------------*- C++ -*----------------------------------*\
  =========                 |
  \\      /  F ield         | OpenFOAM: The Open Source CFD Toolbox
   \\    /   O peration     | Website:  https://openfoam.org
    \\  /    A nd           | Version:  7
     \\/     M anipulation  |
\*---------------------------------------------------------------------------*/
FoamFile
{
    version     2.0;
    format      ascii;
    class       volVectorField;
    location    "30";
    object      U;
}
// * * * * * * * * * * * * * * * * * * * * * * * * * * * * * * * * * * * * * //

dimensions      [0 1 -1 0 0 0 0];

internalField   nonuniform List<vector> 
8500
(
(-0.00120203 0.00104153 7.35603e-22)
(-0.00669111 0.00239836 -2.11143e-21)
(-0.016964 0.003199 -2.4623e-21)
(-0.0291014 0.00358304 2.44742e-21)
(-0.0420115 0.00365872 -2.25115e-21)
(-0.054835 0.00353237 -1.20003e-21)
(-0.0670126 0.00330595 2.04962e-21)
(-0.0783711 0.00307619 2.53959e-21)
(-0.0889724 0.00292709 -4.16812e-22)
(-0.0991232 0.00292785 1.22539e-21)
(-0.00135296 0.00310853 -8.12637e-22)
(-0.00700307 0.00716062 2.51022e-21)
(-0.0173063 0.00955295 -5.88767e-21)
(-0.0293832 0.0107 5.33847e-21)
(-0.0421564 0.0109238 2.37911e-22)
(-0.0547755 0.0105413 3.91655e-21)
(-0.0666822 0.00985687 -6.80258e-21)
(-0.0777033 0.00916107 -9.95034e-21)
(-0.0878986 0.00870948 -1.94408e-21)
(-0.0975437 0.0087149 4.40665e-21)
(-0.00165142 0.00512791 7.46245e-22)
(-0.00762082 0.0118202 5.50368e-21)
(-0.0179849 0.0157749 1.29652e-20)
(-0.0299416 0.0176691 -1.17286e-20)
(-0.0424429 0.0180309 -2.64484e-21)
(-0.0546547 0.0173812 -2.4071e-21)
(-0.066021 0.0162225 1.22904e-20)
(-0.076367 0.01504 7.64327e-21)
(-0.0857496 0.0142712 1.86478e-21)
(-0.0943695 0.0142885 -1.36551e-20)
(-0.00209076 0.00706999 2.64559e-21)
(-0.00853224 0.0163119 -3.23226e-21)
(-0.0189875 0.0217802 -2.41441e-20)
(-0.0307663 0.024395 2.13635e-21)
(-0.0428629 0.024878 6.62155e-21)
(-0.0544676 0.0239429 -5.14509e-21)
(-0.0650264 0.0222826 -2.69012e-22)
(-0.0743591 0.0205772 -2.08705e-21)
(-0.0825213 0.0194632 4.7334e-21)
(-0.0895678 0.0194988 1.36168e-20)
(-0.00266152 0.00890798 1.83974e-21)
(-0.0097195 0.0205758 -1.03705e-20)
(-0.0202954 0.0274898 2.49342e-20)
(-0.0318403 0.0307877 -1.13319e-20)
(-0.0434023 0.0313685 -4.74724e-23)
(-0.0542033 0.0301231 1.56499e-20)
(-0.0636896 0.0279225 -7.18628e-21)
(-0.0716691 0.0256406 8.17481e-22)
(-0.0782032 0.0241344 -2.94819e-21)
(-0.0830818 0.0241858 1.07135e-21)
(-0.00335182 0.0106188 2.19641e-20)
(-0.0111596 0.024558 2.66551e-20)
(-0.0218834 0.0328308 -6.82016e-21)
(-0.0331385 0.0367637 1.30047e-20)
(-0.0440374 0.0374125 4.08379e-21)
(-0.0538399 0.0358264 -5.8331e-21)
(-0.0619898 0.0330368 -2.24721e-21)
(-0.068271 0.0301054 -9.7696e-21)
(-0.072772 0.0281339 2.11658e-21)
(-0.0748211 0.0281758 -1.26311e-20)
(-0.00414798 0.0121837 -2.11669e-20)
(-0.0128246 0.0282122 -1.3888e-20)
(-0.0237185 0.0377386 1.13148e-20)
(-0.0346259 0.0422471 -1.95791e-20)
(-0.0447313 0.0429293 2.22946e-21)
(-0.0533386 0.0409686 2.2935e-20)
(-0.0598849 0.0375335 -4.13194e-21)
(-0.0641105 0.0338609 2.70425e-20)
(-0.0661794 0.0313159 -5.55366e-22)
(-0.0646464 0.0312804 -1.10157e-20)
(-0.00503511 0.0135884 1.77222e-20)
(-0.0146824 0.0314998 -3.20384e-20)
(-0.0257601 0.0421566 -1.27408e-20)
(-0.0362547 0.0471711 1.49416e-20)
(-0.0454288 0.047848 4.98034e-22)
(-0.0526348 0.0454789 -4.30395e-20)
(-0.0572987 0.0413399 -2.55331e-21)
(-0.0590867 0.0368205 -2.13289e-20)
(-0.0583336 0.0335529 -2.74895e-20)
(-0.0523502 0.0333176 1.62511e-20)
(-0.00599762 0.0148229 -9.90189e-21)
(-0.016697 0.03439 4.77779e-21)
(-0.0279584 0.0460368 1.17605e-20)
(-0.0379618 0.0514773 -1.05122e-20)
(-0.0460497 0.0521082 -3.69083e-20)
(-0.0516273 0.0493021 1.27108e-20)
(-0.0541038 0.0444071 1.84313e-21)
(-0.0530241 0.0389332 3.20612e-20)
(-0.0490592 0.034755 4.21649e-20)
(-0.0376541 0.0342226 -1.90436e-20)
(-0.00701975 0.0158815 1.55768e-20)
(-0.0188286 0.0368593 1.41833e-20)
(-0.0302539 0.0493392 -2.03702e-21)
(-0.039665 0.0551154 5.23642e-20)
(-0.0464835 0.0556595 2.22557e-20)
(-0.0501668 0.0523982 1.67023e-20)
(-0.0501024 0.0467129 2.36969e-20)
(-0.0456371 0.0401877 -1.04155e-20)
(-0.0379764 0.0348421 -1.40859e-20)
(-0.0202093 0.0342112 -2.32687e-20)
(-0.00808594 0.0167618 -1.46028e-21)
(-0.0210339 0.0388905 -2.23958e-20)
(-0.0325762 0.0520304 -1.61281e-20)
(-0.0412606 0.058042 -2.58601e-20)
(-0.0465817 0.05846 -2.04775e-20)
(-0.0480443 0.0547424 2.06598e-20)
(-0.045011 0.048265 -1.9838e-20)
(-0.0365359 0.0406283 -1.37245e-20)
(-0.0243026 0.0336636 1.79813e-21)
(0.000752731 0.0333057 6.09812e-21)
(-0.00918115 0.0174644 -4.28806e-20)
(-0.0232662 0.0404716 2.04897e-20)
(-0.0348425 0.0540826 1.49431e-20)
(-0.0426196 0.0602187 9.99926e-21)
(-0.0461525 0.0604734 -1.82205e-20)
(-0.0449793 0.0563221 -1.54075e-20)
(-0.0384357 0.0491067 2.23104e-20)
(-0.0253135 0.0404149 -1.82025e-20)
(-0.00725629 0.0314524 -1.04791e-21)
(0.0267737 0.0312976 -1.91366e-20)
(-0.010291 0.0179923 3.58976e-20)
(-0.0254751 0.041595 1.46e-20)
(-0.036957 0.0554725 8.60551e-22)
(-0.0435853 0.0616108 -1.82234e-20)
(-0.044955 0.0616663 1.29447e-21)
(-0.0406074 0.05713 2.02845e-20)
(-0.029801 0.0492993 -5.76931e-21)
(-0.0111936 0.0396806 -7.0507e-21)
(0.0138491 0.0287139 -1.59808e-20)
(0.0592932 0.0285316 2.91699e-20)
(-0.0114018 0.01835 2.42718e-20)
(-0.0276058 0.042256 -3.93936e-20)
(-0.0388087 0.0561807 -3.03899e-20)
(-0.0439703 0.0621868 1.31403e-20)
(-0.042696 0.062006 2.68327e-20)
(-0.0344919 0.057154 2.27993e-20)
(-0.0184706 0.0488878 -2.4271e-20)
(0.00686736 0.0385483 4.70909e-20)
(0.0403415 0.0257502 -1.41922e-20)
(0.0997872 0.0260417 -3.4273e-20)
(-0.0125002 0.0185431 -3.64663e-20)
(-0.0295976 0.042453 2.19663e-20)
(-0.0402691 0.0561921 -1.05426e-20)
(-0.0435535 0.0619201 1.10647e-21)
(-0.0390259 0.0614636 1.13025e-20)
(-0.026103 0.0563854 -3.59703e-20)
(-0.00368222 0.0479408 3.19788e-20)
(0.0299255 0.0372836 -3.11456e-20)
(0.0739152 0.0228639 5.00755e-20)
(0.149839 0.0250841 1.82399e-20)
(-0.013573 0.018578 7.73209e-21)
(-0.0313825 0.0421862 4.27061e-20)
(-0.0411889 0.0554975 -1.07511e-20)
(-0.0420756 0.0607938 1.08881e-20)
(-0.0335351 0.06002 1.27049e-20)
(-0.0148247 0.0548201 -3.82361e-21)
(0.015462 0.0465159 2.74631e-20)
(0.0591272 0.0360995 1.3887e-21)
(0.116448 0.0205123 -3.21342e-20)
(0.210568 0.026955 4.35358e-20)
(-0.0146055 0.0184604 -2.06698e-20)
(-0.032881 0.0414575 -4.04642e-20)
(-0.0413936 0.0540978 3.51249e-20)
(-0.0392322 0.0588071 1.76323e-20)
(-0.0257478 0.0576783 -8.18452e-20)
(4.43091e-05 0.0524779 6.68084e-20)
(0.03996 0.044691 -6.04336e-20)
(0.0956609 0.0351469 9.4916e-22)
(0.169874 0.0193564 -1.36945e-20)
(0.281788 0.0327784 -4.03255e-20)
(-0.015581 0.0181952 1.79048e-20)
(-0.0339977 0.0402718 -2.43136e-21)
(-0.0406769 0.0520074 -8.6257e-21)
(-0.0346672 0.0559835 -9.99643e-22)
(-0.0151132 0.0544816 -5.11612e-21)
(0.0192945 0.0494314 -2.12881e-20)
(0.0708879 0.0426056 9.08755e-21)
(0.140729 0.0345401 -1.43419e-20)
(0.235896 0.0205239 4.29403e-21)
(0.361038 0.0435233 1.21621e-21)
(-0.0164789 0.0177859 -3.65595e-20)
(-0.0346206 0.0386402 -2.64455e-21)
(-0.0387908 0.0492526 4.00367e-21)
(-0.0279646 0.0523804 1.63413e-21)
(-0.00100095 0.0505312 2.68298e-20)
(0.0438039 0.0458358 -7.83075e-20)
(0.109365 0.0404863 5.28577e-20)
(0.195629 0.0343838 -3.96797e-20)
(0.315688 0.0257629 3.33971e-20)
(0.443741 0.0591928 3.68554e-20)
(-0.0172678 0.017232 -4.45303e-21)
(-0.0346151 0.0365749 2.03654e-20)
(-0.0354455 0.0458779 -2.55693e-20)
(-0.018643 0.0480997 -8.01328e-21)
(0.0172954 0.0460025 1.54613e-20)
(0.0745057 0.0419536 7.44798e-20)
(0.156422 0.0386574 -1.49763e-20)
(0.261648 0.0349376 7.28002e-21)
(0.409193 0.0366402 -3.86943e-20)
(0.527701 0.0740732 1.79761e-20)
(-0.0179033 0.0165292 -1.33806e-20)
(-0.0338128 0.03409 -1.04114e-20)
(-0.0303064 0.0419525 2.57153e-21)
(-0.00616065 0.0432908 1.00942e-20)
(0.0405395 0.0411554 -2.99181e-20)
(0.112329 0.038177 -1.21216e-20)
(0.212807 0.0375757 -3.81795e-20)
(0.339302 0.0369656 3.93966e-20)
(0.512192 0.0519901 4.15969e-20)
(0.619768 0.0751029 -1.74452e-20)
(-0.0183303 0.0156735 -6.39141e-21)
(-0.0320108 0.0312038 2.60082e-20)
(-0.0229904 0.0375669 -2.90912e-20)
(0.0100757 0.0381521 -3.40034e-21)
(0.0695182 0.0363356 -1.37307e-20)
(0.15812 0.0350356 2.99478e-20)
(0.278918 0.0378854 3.86894e-20)
(0.427729 0.0417586 -3.71592e-20)
(0.614843 0.0650031 3.96896e-20)
(0.746001 0.0723699 5.68099e-21)
(-0.0184805 0.0146567 -1.85322e-20)
(-0.0289752 0.0279398 -5.26392e-20)
(-0.0130725 0.0328351 5.13898e-20)
(0.0306892 0.0329292 7.39875e-21)
(0.104987 0.0319628 1.08319e-20)
(0.212517 0.0331572 6.55095e-21)
(0.354666 0.0403332 2.95734e-20)
(0.524481 0.0502003 2.18424e-20)
(0.719072 0.0780015 -7.71219e-20)
(0.866289 0.0864113 -3.84598e-20)
(-0.0182672 0.0134689 -6.33728e-20)
(-0.0244426 0.0243326 1.27519e-20)
(-0.000100094 0.0278968 -2.9088e-20)
(0.0562984 0.0279115 5.65767e-21)
(0.147591 0.0285118 9.07783e-21)
(0.275777 0.0332028 -6.52919e-20)
(0.439179 0.0456277 2.88663e-20)
(0.62606 0.0623066 -1.96049e-20)
(0.821948 0.0931079 2.05016e-20)
(0.970293 0.104908 -7.368e-21)
(-0.0175883 0.0121034 2.29577e-20)
(-0.0181244 0.0204321 2.48383e-20)
(0.01639 0.0229211 -1.43686e-21)
(0.0874726 0.0234295 -7.9591e-21)
(0.197767 0.0264927 2.97193e-22)
(0.347605 0.0357948 6.32747e-22)
(0.530554 0.054254 -4.39249e-20)
(0.728434 0.0775562 5.62144e-21)
(0.918448 0.110102 5.5326e-20)
(1.05858 0.124037 2.55329e-20)
(-0.0163283 0.0105602 -1.55796e-20)
(-0.00971493 0.0163101 -1.15177e-20)
(0.0368489 0.0181122 4.96097e-20)
(0.12468 0.0198534 1.26821e-21)
(0.255638 0.0264288 -2.07998e-20)
(0.427022 0.041439 5.59323e-20)
(0.625914 0.0663282 1.23692e-20)
(0.827369 0.0951815 8.43897e-22)
(1.00488 0.128077 -2.4139e-20)
(1.12954 0.142521 -3.22106e-20)
(-0.014361 0.00885037 3.27046e-20)
(0.00109706 0.0120677 -9.07381e-21)
(0.0616887 0.0137151 -5.42385e-21)
(0.168228 0.0175911 -2.06249e-20)
(0.320911 0.0288255 3.38315e-20)
(0.512302 0.0504408 -1.65364e-20)
(0.721778 0.0815526 -1.87219e-20)
(0.919152 0.114307 -4.33115e-21)
(1.07895 0.146134 -1.4e-20)
(1.18454 0.159519 1.56721e-20)
(-0.0115539 0.00699891 -1.20245e-20)
(0.0146151 0.00784179 -7.17004e-20)
(0.0912527 0.0100198 7.44749e-21)
(0.218208 0.01708 2.57364e-20)
(0.392798 0.0341246 1.84004e-20)
(0.601072 0.0628392 -6.15555e-20)
(0.814617 0.0993101 3.97154e-20)
(1.00111 0.134087 -1.8167e-20)
(1.14 0.163586 2.79024e-20)
(1.22554 0.17485 7.88078e-21)
(-0.00777191 0.00504817 -1.32515e-20)
(0.0311194 0.00381016 2.54204e-20)
(0.125782 0.00736159 3.32463e-20)
(0.27443 0.0187691 -2.38024e-20)
(0.469989 0.0426421 8.88009e-21)
(0.69056 0.0783914 -5.42747e-20)
(0.901393 0.118841 -1.00147e-20)
(1.0718 0.153833 8.71357e-21)
(1.18856 0.180041 -2.12496e-20)
(1.25494 0.18857 -2.20313e-20)
(-0.00288314 0.00305961 -1.71947e-20)
(0.0508496 0.000192895 -5.86751e-21)
(0.165378 0.00611543 -6.0372e-20)
(0.336381 0.0230866 -9.4797e-21)
(0.550708 0.0545108 -1.03089e-21)
(0.777964 0.096631 3.21505e-21)
(0.979904 0.139408 5.55338e-21)
(1.13089 0.173065 -2.74611e-20)
(1.22588 0.195344 4.90364e-22)
(1.27511 0.200904 1.51769e-20)
(0.0032362 0.00111428 -4.52203e-21)
(0.0739855 -0.00274917 2.09717e-20)
(0.209973 0.00668257 2.95397e-20)
(0.403198 0.0303959 1.8486e-20)
(0.632868 0.0696529 -5.45425e-21)
(0.860807 0.116975 -4.58658e-21)
(1.04887 0.1604 4.56996e-20)
(1.17885 0.191504 6.34589e-21)
(1.25355 0.209513 2.10055e-20)
(1.28809 0.212131 -9.23612e-21)
(0.0106948 -0.000686702 4.32406e-20)
(0.100628 -0.00471945 2.7873e-20)
(0.259296 0.00946994 -2.8269e-20)
(0.473687 0.0409491 -5.63162e-21)
(0.714291 0.0878026 2.99015e-21)
(0.937174 0.138831 -1.08702e-20)
(1.10785 0.181365 -2.35717e-20)
(1.21665 0.209033 -3.84866e-21)
(1.2732 0.222669 2.63832e-22)
(1.29563 0.222532 1.00213e-20)
(0.019579 -0.00222419 5.44687e-21)
(0.130781 -0.00539537 -1.52469e-20)
(0.312854 0.014862 3.61222e-20)
(0.546394 0.0548522 2.35227e-20)
(0.792936 0.108566 7.90106e-22)
(1.0058 0.161672 1.67909e-20)
(1.157 0.202005 2.43764e-21)
(1.24552 0.22565 -1.80759e-20)
(1.28635 0.234985 1.55441e-20)
(1.29906 0.232359 -2.84177e-23)
(0.0299472 -0.00336355 -3.58858e-20)
(0.164333 -0.00444077 -1.05545e-20)
(0.369937 0.0231886 -9.4953e-21)
(0.619719 0.0720568 -1.65692e-20)
(0.86708 0.131492 3.97251e-21)
(1.06602 0.185069 1.02099e-22)
(1.19693 0.22215 1.31508e-20)
(1.26674 0.241429 -2.09578e-21)
(1.29434 0.246649 -1.59856e-20)
(1.29943 0.241819 -1.51689e-20)
(0.0418225 -0.00395808 2.93518e-21)
(0.201049 -0.00152162 1.7168e-20)
(0.429635 0.0346949 8.34202e-21)
(0.69205 0.092379 -2.60329e-20)
(0.93541 0.156132 -1.3035e-21)
(1.11768 0.208695 -1.13427e-20)
(1.22848 0.241722 2.9335e-22)
(1.28154 0.256481 5.36518e-21)
(1.29823 0.257839 -6.06306e-21)
(1.29747 0.251069 1.71002e-20)
(0.0551871 -0.00385365 6.95035e-21)
(0.240567 0.0036757 -1.68766e-20)
(0.490889 0.0495185 -3.98131e-20)
(0.761884 0.115535 3.67049e-20)
(0.997039 0.182071 -2.75472e-21)
(1.16097 0.232311 8.15307e-21)
(1.25255 0.260709 -1.16601e-21)
(1.29099 0.270932 7.99863e-21)
(1.29891 0.268707 -5.78674e-22)
(1.29372 0.26022 -1.32667e-20)
(0.0699777 -0.00289422 -1.42103e-20)
(0.282399 0.0114253 2.20585e-20)
(0.552545 0.0676808 1.81415e-20)
(0.827925 0.141182 -2.6289e-20)
(1.05146 0.208945 -4.40818e-21)
(1.19633 0.255751 1.66762e-21)
(1.27009 0.279137 1.7026e-20)
(1.29604 0.284904 8.73564e-22)
(1.29702 0.279372 3.36916e-21)
(1.28852 0.269338 -7.27724e-21)
(0.0860836 -0.000928105 1.07855e-20)
(0.325944 0.0219433 -9.66935e-21)
(0.613433 0.0890906 -8.27579e-21)
(0.889129 0.168946 1.41826e-20)
(1.09848 0.23644 4.90078e-21)
(1.22434 0.278904 3.74096e-21)
(1.28195 0.297051 -1.73653e-20)
(1.29745 0.298502 -5.99735e-21)
(1.29304 0.28992 -5.39821e-21)
(1.28213 0.278457 2.39439e-21)
(0.103346 0.00218521 -5.43397e-21)
(0.370512 0.0353729 -1.2335e-22)
(0.672427 0.113558 1.56797e-20)
(0.944714 0.19845 -5.73497e-21)
(1.13815 0.264291 -2.56626e-21)
(1.24562 0.301692 -1.69072e-21)
(1.28893 0.3145 4.21649e-21)
(1.29582 0.311806 7.30914e-21)
(1.28733 0.300401 -2.30526e-22)
(1.27469 0.287576 2.69944e-21)
(0.12156 0.00656807 3.83645e-21)
(0.415353 0.0517738 -1.0757e-21)
(0.728498 0.140814 -2.81774e-21)
(0.994145 0.229322 -2.55936e-21)
(1.17067 0.292266 2.3168e-21)
(1.26081 0.324059 1.81472e-21)
(1.29167 0.331523 -1.67505e-21)
(1.29163 0.32487 6.10049e-22)
(1.28013 0.310833 8.59898e-22)
(1.26629 0.296675 -1.14985e-21)
(0.14048 0.0123179 2.08887e-21)
(0.459684 0.0711174 5.90752e-22)
(0.780754 0.170528 -3.53782e-21)
(1.0371 0.261203 -2.83037e-21)
(1.19636 0.320167 2.95319e-21)
(1.27052 0.34596 5.78829e-22)
(1.29075 0.348146 -1.34721e-21)
(1.28523 0.337719 1.26517e-21)
(1.27159 0.321206 7.06513e-22)
(1.25698 0.305711 -8.14765e-22)
(0.159825 0.0195011 -8.11271e-22)
(0.502726 0.0932876 1.65539e-21)
(0.828459 0.202327 1.09511e-20)
(1.07345 0.293746 -4.90103e-21)
(1.21561 0.347811 -2.38357e-21)
(1.27531 0.36735 -2.68923e-21)
(1.28661 0.364375 5.50297e-21)
(1.2769 0.350351 3.67804e-21)
(1.26183 0.331485 2.9391e-21)
(1.2468 0.314633 1.60393e-21)
(0.179289 0.0281484 1.68721e-20)
(0.543732 0.118087 -9.22632e-21)
(0.871033 0.235809 -1.04489e-20)
(1.10317 0.326622 1.42438e-20)
(1.22882 0.375031 7.50292e-21)
(1.27567 0.388176 -4.98188e-22)
(1.27964 0.380195 -9.18702e-21)
(1.26681 0.362739 -6.61377e-21)
(1.25092 0.341613 -6.87476e-21)
(1.23577 0.323377 4.07706e-21)
(0.198548 0.0382516 -2.28624e-20)
(0.582014 0.145245 2.14084e-20)
(0.90805 0.270553 2.4662e-20)
(1.12638 0.359511 -2.42742e-20)
(1.23641 0.401667 -8.36537e-21)
(1.27205 0.408378 5.34749e-21)
(1.27013 0.39557 9.65906e-21)
(1.25512 0.374831 1.50435e-21)
(1.23889 0.351513 -2.53955e-22)
(1.22391 0.33187 -5.53756e-21)
(0.217273 0.0497623 -3.32691e-21)
(0.616959 0.174428 -3.02426e-20)
(0.939228 0.30613 -3.23373e-20)
(1.14325 0.392108 3.62319e-20)
(1.23878 0.427562 -4.10903e-21)
(1.26481 0.427884 7.46478e-21)
(1.25831 0.410444 1.44488e-21)
(1.24191 0.386556 -4.10914e-21)
(1.22576 0.361093 2.1977e-21)
(1.2112 0.340027 -2.48029e-22)
(0.235138 0.0625922 6.7383e-21)
(0.648048 0.205255 1.88075e-20)
(0.964406 0.342108 1.06159e-20)
(1.15403 0.424118 -8.36673e-21)
(1.23634 0.452559 -1.29546e-20)
(1.2543 0.446609 -1.19557e-20)
(1.24438 0.424746 -2.38947e-21)
(1.22727 0.397833 6.24039e-21)
(1.21154 0.370258 -1.30637e-21)
(1.19753 0.347762 3.04169e-21)
(0.25183 0.076615 -2.56245e-20)
(0.674855 0.237303 -2.37276e-20)
(0.983535 0.378059 -3.77182e-21)
(1.15899 0.455256 -4.24733e-21)
(1.22944 0.4765 -9.52741e-21)
(1.24079 0.464454 5.75119e-21)
(1.22849 0.438391 -1.05218e-21)
(1.21126 0.408582 -5.47895e-21)
(1.19622 0.378955 4.96861e-21)
(1.18274 0.355011 -6.95288e-21)
(0.267058 0.0916702 6.04156e-21)
(0.697062 0.270126 2.01509e-20)
(0.996657 0.41356 1.74754e-20)
(1.15844 0.485246 1.89138e-20)
(1.21845 0.499225 4.04595e-22)
(1.22456 0.481311 1.61287e-20)
(1.21078 0.451278 9.80695e-22)
(1.19393 0.418711 -1.83787e-20)
(1.17984 0.387183 1.29956e-20)
(1.16685 0.361717 4.86088e-21)
(0.28056 0.107567 1.66598e-20)
(0.714448 0.303262 3.70494e-20)
(1.00389 0.4482 -4.88202e-21)
(1.15272 0.513824 -2.38208e-20)
(1.20368 0.520572 1.06598e-20)
(1.2058 0.497061 -1.09347e-20)
(1.19134 0.463289 -1.42022e-20)
(1.17534 0.428096 -1.00302e-21)
(1.16245 0.394887 -1.05254e-20)
(1.15028 0.367753 4.0109e-21)
(0.29211 0.12409 7.82736e-21)
(0.726893 0.336249 5.78238e-21)
(1.00542 0.481582 4.60097e-20)
(1.14214 0.540736 8.50383e-21)
(1.18544 0.54038 -7.31606e-21)
(1.18471 0.511578 -3.72248e-21)
(1.17029 0.474301 2.14084e-20)
(1.15564 0.436636 1.72204e-20)
(1.14401 0.401834 8.42534e-21)
(1.13316 0.373163 -1.05892e-21)
(0.301525 0.141001 1.62298e-21)
(0.734358 0.368628 -3.79276e-20)
(1.00148 0.513329 -5.40759e-20)
(1.12707 0.565741 1.58754e-21)
(1.16403 0.558496 1.02453e-20)
(1.16147 0.524724 -1.40465e-20)
(1.14786 0.484188 -3.07933e-20)
(1.13481 0.444229 -8.92967e-21)
(1.12458 0.407925 -5.07582e-22)
(1.11537 0.377759 3.60803e-21)
(0.308662 0.158053 -1.35723e-20)
(0.736885 0.399955 3.40628e-20)
(0.992343 0.54308 3.24471e-20)
(1.10787 0.588612 -2.946e-20)
(1.13974 0.574774 4.5267e-21)
(1.13635 0.536358 3.28891e-20)
(1.12409 0.492821 -6.63471e-21)
(1.11286 0.450776 5.6814e-21)
(1.10428 0.413047 -2.28798e-21)
(1.09692 0.381458 -2.99529e-21)
(0.313426 0.174993 -3.05019e-20)
(0.73459 0.429811 -5.36685e-20)
(0.978363 0.570502 -1.04579e-20)
(1.08488 0.609121 1.6985e-20)
(1.11285 0.589033 1.60373e-20)
(1.10953 0.546366 -3.23527e-20)
(1.09904 0.500078 1.6821e-20)
(1.08994 0.456156 -7.77647e-21)
(1.08317 0.417106 5.68141e-21)
(1.07785 0.384174 4.17908e-22)
(0.315765 0.191564 2.32957e-20)
(0.727681 0.457798 1.72495e-21)
(0.959949 0.595329 -5.16226e-21)
(1.05836 0.627029 -2.06125e-20)
(1.08361 0.601116 1.25868e-20)
(1.08113 0.55459 3.10759e-21)
(1.07287 0.505855 -8.64765e-21)
(1.06613 0.460266 2.19173e-21)
(1.06134 0.420004 -9.80813e-22)
(1.05825 0.385831 -3.82102e-22)
(0.315686 0.207508 -6.29029e-21)
(0.716454 0.483528 -8.57681e-21)
(0.937478 0.617355 2.20827e-20)
(1.02858 0.642142 1.01162e-20)
(1.0523 0.610833 -1.33608e-20)
(1.05136 0.560901 1.67083e-20)
(1.04571 0.510035 1.65111e-21)
(1.04154 0.463006 2.33652e-21)
(1.03886 0.42164 2.79771e-21)
(1.03819 0.386335 4.90446e-22)
(0.313249 0.222568 4.05509e-20)
(0.701237 0.506644 3.10903e-20)
(0.910981 0.636176 -2.50984e-21)
(0.996101 0.654461 -4.4183e-21)
(1.01927 0.61803 -5.24675e-21)
(1.02042 0.565173 -2.40112e-21)
(1.01772 0.512512 2.30717e-21)
(1.01627 0.464289 9.13811e-22)
(1.01583 0.421917 -2.29224e-21)
(1.01774 0.385587 -4.22938e-21)
(0.308541 0.236485 2.91549e-21)
(0.682238 0.527016 5.1315e-21)
(0.88078 0.651445 -2.74662e-20)
(0.961405 0.663678 1.16766e-20)
(0.984746 0.622699 1.61918e-21)
(0.988491 0.567312 -2.94782e-21)
(0.98902 0.51319 1.43497e-21)
(0.990438 0.464038 1.14082e-21)
(0.992363 0.420764 -4.08894e-21)
(0.99714 0.383532 5.282e-21)
(0.301636 0.248945 -1.54503e-20)
(0.659645 0.544277 -1.08141e-20)
(0.847722 0.663298 8.06521e-21)
(0.924764 0.669589 1.30643e-21)
(0.948991 0.6247 -4.78798e-21)
(0.955774 0.567224 3.26346e-21)
(0.959755 0.511975 2.60849e-21)
(0.964137 0.462157 -1.03284e-20)
(0.96871 0.418111 2.39038e-20)
(0.977011 0.380194 9.37242e-21)
(0.292608 0.259726 -1.14613e-20)
(0.633775 0.557981 2.65635e-20)
(0.812252 0.671496 -1.602e-20)
(0.886501 0.672179 -2.86172e-21)
(0.912265 0.623947 -1.3512e-21)
(0.922453 0.56483 -2.38066e-21)
(0.930032 0.508779 -8.81007e-21)
(0.937482 0.458508 4.61904e-21)
(0.94527 0.413761 -1.25739e-21)
(0.958036 0.375612 -4.347e-21)
(0.281685 0.268684 -1.33522e-21)
(0.605179 0.567992 -8.02867e-21)
(0.774712 0.675849 3.22999e-21)
(0.84696 0.67138 -9.50973e-22)
(0.874834 0.620372 6.01848e-21)
(0.888711 0.560074 5.18365e-21)
(0.899973 0.503551 1.63643e-20)
(0.910658 0.452983 -1.20713e-20)
(0.922387 0.40734 -2.29042e-20)
(0.939511 0.369144 9.57806e-21)
(0.269076 0.275712 -1.03536e-21)
(0.574293 0.574183 -2.59718e-21)
(0.735515 0.676224 1.01798e-21)
(0.806495 0.667133 7.88936e-21)
(0.836964 0.613929 -1.29185e-20)
(0.854741 0.552921 -2.05519e-20)
(0.869761 0.496286 -6.21131e-21)
(0.883925 0.445697 -1.4008e-21)
(0.90005 0.399029 3.02139e-20)
(0.918703 0.357077 -6.70939e-21)
(0.254969 0.280653 2.03988e-21)
(0.541557 0.576444 -3.7627e-21)
(0.69509 0.672556 6.85544e-24)
(0.765458 0.659401 6.25381e-22)
(0.798923 0.604588 -8.59508e-21)
(0.82076 0.543338 3.86443e-20)
(0.839647 0.486949 -2.67478e-20)
(0.857501 0.436731 3.20148e-20)
(0.877208 0.39069 -2.25307e-20)
(0.895536 0.350197 -2.96329e-20)
(0.239597 0.283389 -1.6814e-21)
(0.507408 0.574699 -4.72119e-22)
(0.653862 0.664819 2.38469e-22)
(0.724196 0.648171 1.35971e-20)
(0.760976 0.592338 -5.38847e-21)
(0.786992 0.531304 8.30215e-21)
(0.809836 0.475484 1.57684e-20)
(0.831418 0.425811 -8.3097e-21)
(0.854254 0.380209 -2.13075e-20)
(0.873558 0.339945 2.95427e-20)
(0.223209 0.283832 1.12302e-20)
(0.472276 0.568905 1.50233e-20)
(0.612253 0.653021 -1.42631e-20)
(0.683053 0.633458 -1.27619e-20)
(0.723391 0.57719 4.40273e-20)
(0.753653 0.516826 -4.47712e-20)
(0.780476 0.461932 5.35217e-20)
(0.805689 0.413151 -1.35077e-20)
(0.831373 0.368529 1.44716e-20)
(0.852284 0.329363 2.6774e-20)
(0.20606 0.281927 -4.26717e-21)
(0.436591 0.559057 -1.4439e-20)
(0.570676 0.6372 -8.38232e-21)
(0.642363 0.615302 -4.79163e-21)
(0.686431 0.559172 5.12123e-21)
(0.720961 0.499921 -1.14718e-20)
(0.751739 0.446293 -1.60377e-20)
(0.780476 0.398685 -3.46866e-20)
(0.808898 0.355285 3.43931e-20)
(0.831805 0.317402 -1.11909e-20)
(0.188411 0.277644 2.62093e-20)
(0.400777 0.545191 -3.07418e-21)
(0.529531 0.617425 -1.17754e-20)
(0.602451 0.593767 1.53527e-20)
(0.650354 0.538334 -2.77096e-20)
(0.689125 0.480629 7.38149e-20)
(0.72379 0.428611 -3.93828e-20)
(0.75594 0.382486 3.57625e-20)
(0.78704 0.340611 -6.57859e-20)
(0.812146 0.3042 -1.74422e-20)
(0.170522 0.270986 -8.52134e-21)
(0.365245 0.527376 2.78524e-20)
(0.489206 0.593796 6.62214e-21)
(0.563634 0.568942 -1.42142e-20)
(0.615411 0.514747 -2.45285e-20)
(0.658351 0.459006 -9.88972e-22)
(0.696799 0.408932 1.3148e-20)
(0.732241 0.364584 -3.21245e-20)
(0.765953 0.324485 1.59086e-20)
(0.793357 0.28969 2.11725e-21)
(0.15265 0.26198 -4.5307e-20)
(0.330397 0.505719 -1.11873e-20)
(0.450073 0.566439 -3.04982e-21)
(0.526213 0.540941 3.64645e-20)
(0.581844 0.488501 -3.38881e-20)
(0.628837 0.435127 -8.89569e-21)
(0.670935 0.38732 -5.38463e-21)
(0.709537 0.345033 1.00217e-20)
(0.745774 0.306943 -1.26427e-20)
(0.775506 0.273905 -1.9771e-20)
(0.135047 0.250681 3.9881e-20)
(0.296618 0.48036 -2.2666e-20)
(0.412487 0.535511 1.1564e-21)
(0.490477 0.509898 -5.52073e-20)
(0.549885 0.459706 5.99946e-20)
(0.600776 0.409081 -1.90332e-20)
(0.646362 0.363852 1.14265e-20)
(0.687972 0.323895 9.94907e-21)
(0.726625 0.288028 2.8918e-20)
(0.758668 0.256889 -1.18427e-20)
(0.117956 0.237171 -1.62606e-20)
(0.264272 0.451471 4.69527e-20)
(0.376783 0.501192 2.6496e-20)
(0.456697 0.475969 4.33941e-20)
(0.519755 0.42849 -1.01158e-20)
(0.57435 0.380977 4.03815e-21)
(0.623237 0.33862 3.27991e-20)
(0.667682 0.301245 7.31057e-21)
(0.708622 0.267797 7.01307e-22)
(0.742919 0.238703 -1.41597e-20)
(0.101609 0.221555 -3.71728e-20)
(0.233704 0.419254 -2.76076e-21)
(0.343274 0.463689 -1.55292e-20)
(0.425131 0.439332 -6.97507e-20)
(0.49166 0.395 -6.75615e-20)
(0.549734 0.350936 1.12936e-20)
(0.601707 0.311727 -2.78931e-20)
(0.648795 0.27717 1.78351e-20)
(0.691872 0.246323 9.72499e-21)
(0.728336 0.219424 2.03768e-20)
(0.0862253 0.203961 5.44699e-20)
(0.205234 0.383939 -4.46065e-20)
(0.312251 0.423232 -2.2681e-20)
(0.396014 0.400184 4.03051e-20)
(0.465794 0.359399 4.59161e-20)
(0.52709 0.319097 -1.52333e-20)
(0.581912 0.283292 -1.95357e-21)
(0.631431 0.251768 -5.54885e-20)
(0.676478 0.22369 -3.1458e-20)
(0.714988 0.199134 1.20366e-20)
(0.0720078 0.184538 -3.0963e-20)
(0.179156 0.34578 1.30603e-20)
(0.283981 0.380072 4.80461e-20)
(0.369564 0.358738 -2.15676e-20)
(0.442335 0.321864 1.69036e-21)
(0.506566 0.285609 6.13796e-20)
(0.563977 0.253443 2.8405e-21)
(0.615701 0.225149 5.31123e-20)
(0.662535 0.199994 2.22196e-20)
(0.702943 0.177925 -3.54029e-20)
(0.0591421 0.163454 4.28304e-20)
(0.155737 0.305057 4.72494e-21)
(0.258705 0.334479 3.10241e-21)
(0.345978 0.315225 4.39386e-20)
(0.421443 0.28259 -5.87468e-21)
(0.488298 0.250636 -3.84936e-20)
(0.54802 0.222319 1.89188e-20)
(0.601704 0.197432 -3.02722e-20)
(0.650132 0.175339 -1.269e-20)
(0.692264 0.155895 1.28798e-20)
(0.0477943 0.140896 -2.67134e-20)
(0.135213 0.262068 -5.13647e-20)
(0.236635 0.286743 1.18751e-20)
(0.32543 0.26989 -2.33037e-20)
(0.403262 0.24178 -1.41197e-20)
(0.472409 0.214354 3.4288e-20)
(0.534143 0.190071 -8.30402e-21)
(0.589532 0.168745 7.71159e-21)
(0.639346 0.149837 -9.41436e-21)
(0.683005 0.133145 1.87056e-20)
(0.0381098 0.117063 9.6609e-21)
(0.11779 0.217132 3.45838e-20)
(0.217956 0.237165 -4.8088e-20)
(0.308071 0.222991 2.27866e-20)
(0.387917 0.199652 -1.04036e-20)
(0.459003 0.176946 -2.93665e-20)
(0.522438 0.156857 2.40363e-20)
(0.579263 0.139225 5.07097e-21)
(0.630247 0.123606 -7.68009e-22)
(0.675213 0.109781 -2.1764e-20)
(0.0302117 0.0921691 3.16577e-21)
(0.103641 0.17058 1.11459e-20)
(0.202823 0.186063 4.35201e-20)
(0.294028 0.174798 -8.36579e-21)
(0.375513 0.156433 -6.60847e-21)
(0.448169 0.138605 2.4484e-21)
(0.51298 0.122842 1.07868e-21)
(0.570965 0.109013 8.99651e-21)
(0.622895 0.0967723 -1.18605e-20)
(0.668931 0.0859124 -7.56231e-21)
(0.0241996 0.0664396 -7.91022e-21)
(0.0929051 0.122758 -1.35625e-20)
(0.191364 0.133765 -3.38428e-20)
(0.283406 0.125588 1.70519e-20)
(0.366134 0.112356 1.39375e-20)
(0.43998 0.0995315 5.89096e-22)
(0.505832 0.0881974 -2.34532e-20)
(0.564693 0.0782583 -1.04507e-20)
(0.617337 0.0694646 8.30582e-21)
(0.66419 0.0616489 8.91809e-21)
(0.0201493 0.0401068 1.3762e-21)
(0.0856891 0.0740226 -2.84326e-21)
(0.183671 0.0806049 6.42211e-21)
(0.276281 0.0756468 -4.35956e-21)
(0.359846 0.0676616 -3.85139e-21)
(0.43449 0.0599309 -2.6166e-21)
(0.50104 0.0531005 4.82432e-21)
(0.560489 0.0471123 1.84345e-20)
(0.613611 0.0418159 2.67687e-21)
(0.661015 0.0371027 -4.76414e-21)
(0.0181113 0.0134095 1.70199e-21)
(0.0820634 0.0247356 -4.6876e-21)
(0.179809 0.0269261 -5.31959e-21)
(0.272705 0.0252647 -3.69569e-21)
(0.356691 0.0225953 3.52915e-21)
(0.431736 0.0200124 1.59598e-21)
(0.498636 0.0177306 -1.59401e-21)
(0.558379 0.0157304 -7.28893e-21)
(0.611742 0.0139615 2.40634e-21)
(0.659424 0.0123865 -2.25801e-21)
(0.0181113 -0.0134095 -1.70199e-21)
(0.0820634 -0.0247356 4.6876e-21)
(0.179809 -0.0269261 5.31959e-21)
(0.272705 -0.0252647 -5.10019e-21)
(0.356691 -0.0225953 4.49895e-21)
(0.431736 -0.0200124 2.25915e-21)
(0.498636 -0.0177306 -3.61791e-21)
(0.558379 -0.0157304 -4.21784e-21)
(0.611742 -0.0139615 6.25246e-22)
(0.659424 -0.0123865 -1.76615e-21)
(0.0201493 -0.0401067 1.86644e-21)
(0.0856891 -0.0740226 -5.58382e-21)
(0.183671 -0.0806049 1.25352e-20)
(0.276281 -0.0756468 -1.10206e-20)
(0.359846 -0.0676616 -5.19066e-22)
(0.43449 -0.0599309 -7.35982e-21)
(0.50104 -0.0531005 1.19971e-20)
(0.560489 -0.0471123 1.63674e-20)
(0.613611 -0.0418159 2.93758e-21)
(0.661015 -0.0371027 -6.33666e-21)
(0.0241996 -0.0664396 -1.60716e-21)
(0.0929051 -0.122758 -1.18288e-20)
(0.191364 -0.133765 -2.75151e-20)
(0.283406 -0.125588 2.38556e-20)
(0.366134 -0.112356 4.9398e-21)
(0.43998 -0.0995315 4.37511e-21)
(0.505832 -0.0881974 -2.15899e-20)
(0.564693 -0.0782583 -1.27579e-20)
(0.617337 -0.0694646 -2.8479e-21)
(0.66419 -0.0616489 1.95772e-20)
(0.0302117 -0.0921691 -5.66853e-21)
(0.103641 -0.17058 7.11113e-21)
(0.202823 -0.186063 4.99407e-20)
(0.294028 -0.174798 -4.4802e-21)
(0.375513 -0.156433 -1.28589e-20)
(0.448169 -0.138605 9.26316e-21)
(0.51298 -0.122842 6.26522e-22)
(0.570965 -0.109013 3.28707e-21)
(0.622895 -0.0967723 -7.20409e-21)
(0.668931 -0.0859124 -1.91071e-20)
(0.0381098 -0.117063 -3.8361e-21)
(0.11779 -0.217132 2.08646e-20)
(0.217956 -0.237165 -5.03264e-20)
(0.308071 -0.222991 2.18546e-20)
(0.387917 -0.199652 2.00687e-22)
(0.459003 -0.176946 -2.78176e-20)
(0.522438 -0.156857 1.23095e-20)
(0.579263 -0.139225 -1.15308e-21)
(0.630247 -0.123606 4.69065e-21)
(0.675213 -0.109781 -1.42857e-21)
(0.0477943 -0.140896 -4.39879e-20)
(0.135213 -0.262068 -5.25638e-20)
(0.236635 -0.286743 1.37529e-20)
(0.32543 -0.26989 -2.50326e-20)
(0.403262 -0.24178 -7.11766e-21)
(0.472409 -0.214354 1.05892e-20)
(0.534143 -0.190071 3.9387e-21)
(0.589532 -0.168745 1.47292e-20)
(0.639346 -0.149837 -3.17436e-21)
(0.683005 -0.133145 1.71408e-20)
(0.0591421 -0.163454 4.20857e-20)
(0.155737 -0.305057 2.7037e-20)
(0.258705 -0.334479 -2.05429e-20)
(0.345978 -0.315225 3.46088e-20)
(0.421443 -0.28259 -3.00697e-21)
(0.488298 -0.250636 -3.75589e-20)
(0.54802 -0.222319 6.59936e-21)
(0.601704 -0.197432 -4.00895e-20)
(0.650132 -0.175339 1.51577e-21)
(0.692264 -0.155895 1.46235e-20)
(0.0720078 -0.184538 -3.1465e-20)
(0.179156 -0.34578 5.63152e-20)
(0.283981 -0.380072 2.20718e-20)
(0.369564 -0.358738 -2.72378e-20)
(0.442335 -0.321864 1.79558e-22)
(0.506566 -0.285609 6.92889e-20)
(0.563977 -0.253443 3.20174e-21)
(0.615701 -0.225149 3.08946e-20)
(0.662535 -0.199994 3.77046e-20)
(0.702943 -0.177925 -2.11801e-20)
(0.0862253 -0.203961 1.76401e-20)
(0.205234 -0.383939 -8.43576e-21)
(0.312251 -0.423232 -2.00401e-20)
(0.396014 -0.400184 1.52242e-20)
(0.465794 -0.359399 5.81748e-20)