/*--------------------------------*- C++ -*----------------------------------*\
  =========                 |
  \\      /  F ield         | OpenFOAM: The Open Source CFD Toolbox
   \\    /   O peration     | Website:  https://openfoam.org
    \\  /    A nd           | Version:  7
     \\/     M anipulation  |
\*---------------------------------------------------------------------------*/
FoamFile
{
    version     2.0;
    format      ascii;
    class       volVectorField;
    location    "280";
    object      U;
}
// * * * * * * * * * * * * * * * * * * * * * * * * * * * * * * * * * * * * * //

dimensions      [0 1 -1 0 0 0 0];

internalField   nonuniform List<vector> 
8500
(
(-0.00328302 0.0375926 1.07602e-21)
(-0.0145796 0.0640259 -3.09125e-21)
(-0.0341396 0.0607259 -3.60119e-21)
(-0.0567496 0.0410374 3.58086e-21)
(-0.0809503 0.0141541 -3.30765e-21)
(-0.105543 -0.0154029 -1.77017e-21)
(-0.129489 -0.0467624 3.03334e-21)
(-0.152106 -0.080803 3.81831e-21)
(-0.17298 -0.118692 -6.43029e-22)
(-0.192293 -0.161821 1.85655e-21)
(-0.00488736 0.0417446 -1.18547e-21)
(-0.017343 0.0732289 3.67318e-21)
(-0.0369927 0.0728794 -8.85976e-21)
(-0.0592317 0.054747 8.04912e-21)
(-0.0828649 0.0284464 3.1226e-22)
(-0.106772 -0.00121915 5.86513e-21)
(-0.129893 -0.0331618 -1.03036e-20)
(-0.151502 -0.0680164 -1.52201e-20)
(-0.171229 -0.106703 -3.08776e-21)
(-0.189178 -0.150278 7.00209e-21)
(-0.00670189 0.0456344 1.16375e-21)
(-0.0203629 0.0821166 8.39551e-21)
(-0.0397687 0.0848563 1.96292e-20)
(-0.0611084 0.068429 -1.77978e-20)
(-0.0834848 0.0428108 -4.14561e-21)
(-0.10586 0.0130919 -3.70812e-21)
(-0.127128 -0.0193949 1.9209e-20)
(-0.146462 -0.0550386 1.17981e-20)
(-0.163437 -0.0944583 2.76312e-21)
(-0.177761 -0.138284 -2.18759e-20)
(-0.00868157 0.0490994 4.15555e-21)
(-0.0235646 0.0903826 -4.87246e-21)
(-0.0423765 0.0963072 -3.73982e-20)
(-0.0622738 0.0817326 3.21312e-21)
(-0.0826905 0.0569085 1.02565e-20)
(-0.102678 0.0271987 -8.21491e-21)
(-0.121068 -0.00581405 -3.91717e-23)
(-0.136881 -0.042268 -3.48084e-21)
(-0.149551 -0.0824413 7.6902e-21)
(-0.157973 -0.126499 2.2682e-20)
(-0.0107651 0.051986 2.95997e-21)
(-0.0268553 0.0977264 -1.64597e-20)
(-0.0447264 0.106883 3.92153e-20)
(-0.0626454 0.0943059 -1.81544e-20)
(-0.0804074 0.0704049 -2.4411e-23)
(-0.097169 0.0407834 2.54514e-20)
(-0.111685 0.00725818 -1.16104e-20)
(-0.122776 -0.0300641 1.23584e-21)
(-0.129742 -0.0710999 -4.87189e-21)
(-0.130035 -0.115582 2.30912e-21)
(-0.0128782 0.0541606 3.54855e-20)
(-0.0301277 0.10387 4.26971e-20)
(-0.0467319 0.116246 -1.07626e-20)
(-0.0621643 0.105804 2.08047e-20)
(-0.0766033 0.0829726 6.83312e-21)
(-0.0893303 0.0535438 -9.37561e-21)
(-0.0990271 0.019543 -3.7258e-21)
(-0.104263 -0.0187264 -1.71324e-20)
(-0.104362 -0.0608063 3.75239e-21)
(-0.0943808 -0.106161 -2.21352e-20)
(-0.0149381 0.0555198 -3.42618e-20)
(-0.0332652 0.108572 -2.23634e-20)
(-0.0483123 0.124084 1.86202e-20)
(-0.0607959 0.115895 -3.24828e-20)
(-0.0712858 0.0942927 4.06007e-21)
(-0.0792101 0.0651898 3.91274e-20)
(-0.0831982 0.0307827 -7.14696e-21)
(-0.0815007 -0.00849563 4.76413e-20)
(-0.0738766 -0.05182 -5.274e-22)
(-0.0515678 -0.0987095 -2.0227e-20)
(-0.01686 0.0559986 2.95389e-20)
(-0.0361487 0.111644 -5.31097e-20)
(-0.0493968 0.130125 -2.11958e-20)
(-0.0585297 0.124266 2.45639e-20)
(-0.0645002 0.104054 1.17838e-21)
(-0.0668999 0.075436 -7.39262e-20)
(-0.064348 0.0407424 -4.83373e-21)
(-0.0546364 0.000452635 -3.82394e-20)
(-0.0387062 -0.0443727 -5.03505e-20)
(-0.00223636 -0.0931993 3.02022e-20)
(-0.0185639 0.0555755 -1.65402e-20)
(-0.0386644 0.112961 7.85064e-21)
(-0.0499276 0.134143 1.96135e-20)
(-0.0553796 0.130633 -1.81977e-20)
(-0.0563276 0.111953 -6.34176e-20)
(-0.0525287 0.0839964 2.1894e-20)
(-0.0426619 0.049196 3.05612e-21)
(-0.0238635 0.00803363 5.83854e-20)
(0.00115533 -0.0390399 7.87883e-20)
(0.0530863 -0.0890192 -3.58594e-20)
(-0.0199821 0.0542762 2.66437e-20)
(-0.0407124 0.112472 2.42052e-20)
(-0.0498627 0.135974 -3.45174e-21)
(-0.0513836 0.13475 8.9656e-20)
(-0.0468798 0.117699 3.83446e-20)
(-0.0362659 0.0906009 2.9284e-20)
(-0.0183105 0.0558622 4.29509e-20)
(0.0103531 0.0141477 -1.88022e-20)
(0.0457187 -0.0355063 -2.65332e-20)
(0.115139 -0.0864174 -4.51184e-20)
(-0.0210651 0.0521718 -2.17907e-21)
(-0.0422151 0.110203 -3.84124e-20)
(-0.0491745 0.135524 -2.77757e-20)
(-0.046591 0.136413 -4.46372e-20)
(-0.0362743 0.121017 -3.59806e-20)
(-0.0183054 0.0949102 3.67485e-20)
(0.00852787 0.0604623 -3.61687e-20)
(0.0480717 0.018598 -2.55024e-20)
(0.0943757 -0.0333292 3.42941e-21)
(0.184436 -0.0856333 1.15035e-20)
(-0.0217877 0.0493745 -7.44643e-20)
(-0.0431218 0.106256 3.53142e-20)
(-0.0478561 0.13278 2.58038e-20)
(-0.0410574 0.135476 1.74247e-20)
(-0.0246477 0.121659 -3.23083e-20)
(0.00119573 0.0965925 -2.78014e-20)
(0.0376338 0.0626642 4.09504e-20)
(0.0892418 0.0210159 -3.41971e-20)
(0.147253 -0.0330439 -1.91335e-21)
(0.261078 -0.0858463 -3.75182e-20)
(-0.0221516 0.0460294 6.28185e-20)
(-0.0434114 0.10081 2.54514e-20)
(-0.0459059 0.127817 1.47546e-21)
(-0.0348258 0.131889 -3.1761e-20)
(-0.01209 0.119451 2.17763e-21)
(0.0221079 0.0954002 3.67118e-20)
(0.0689149 0.0620887 -1.07434e-20)
(0.133766 0.0211685 -1.35314e-20)
(0.204756 -0.0350696 -3.14289e-20)
(0.34499 -0.0866033 5.71733e-20)
(-0.0221855 0.0423039 4.2905e-20)
(-0.0430893 0.094102 -6.88811e-20)
(-0.0433154 0.120801 -5.32964e-20)
(-0.0278891 0.125696 2.29697e-20)
(0.00140373 0.114323 4.75515e-20)
(0.0444536 0.0911581 4.13012e-20)
(0.102498 0.0584692 -4.49547e-20)
(0.181744 0.0187704 8.936e-20)
(0.26778 -0.0395967 -2.74611e-20)
(0.43564 -0.0876099 -6.72949e-20)
(-0.0219405 0.0383735 -6.41682e-20)
(-0.0421788 0.0864164 3.85019e-20)
(-0.0400501 0.111982 -1.86148e-20)
(-0.0201517 0.117058 1.93433e-21)
(0.0160026 0.106338 2.00011e-20)
(0.0685101 0.0838481 -6.5057e-20)
(0.138881 0.0517394 5.95079e-20)
(0.233645 0.0136124 -5.86222e-20)
(0.337779 -0.0462925 9.76119e-20)
(0.53178 -0.0885711 3.58777e-20)
(-0.0214829 0.0344068 1.36847e-20)
(-0.0407065 0.0780577 7.50003e-20)
(-0.0360249 0.101679 -1.89183e-20)
(-0.0113877 0.106253 1.91991e-20)
(0.0321099 0.0957254 2.26444e-20)
(0.0949109 0.0736702 -6.7669e-21)
(0.179037 0.0421491 5.04979e-20)
(0.290461 0.00569745 2.18789e-21)
(0.416467 -0.054123 -6.2957e-20)
(0.631186 -0.089068 8.48584e-20)
(-0.0208829 0.030551 -3.65453e-20)
(-0.038683 0.0693273 -7.10871e-20)
(-0.0310787 0.0902641 6.16718e-20)
(-0.00120528 0.093671 3.10358e-20)
(0.0504134 0.0828884 -1.45634e-19)
(0.124704 0.0610782 1.20162e-19)
(0.2244 0.0303391 -1.11153e-19)
(0.353693 -0.00458613 1.3606e-21)
(0.504973 -0.0613932 -2.63348e-20)
(0.73048 -0.0885049 -7.85745e-20)
(-0.0202006 0.026919 3.16065e-20)
(-0.0360816 0.0604986 -4.24958e-21)
(-0.0249537 0.0781322 -1.51687e-20)
(0.0109725 0.0797935 -1.75564e-21)
(0.0718922 0.0683944 -8.83873e-21)
(0.159323 0.0467744 -3.85357e-20)
(0.276673 0.0173113 1.71031e-20)
(0.425059 -0.0162714 -2.67691e-20)
(0.602714 -0.0659937 8.20351e-21)
(0.825372 -0.0863125 2.09324e-21)
(-0.0194725 0.0235806 -6.44955e-20)
(-0.0328189 0.0517952 -4.57827e-21)
(-0.0172841 0.0656724 6.97854e-21)
(0.0258978 0.0651593 2.80531e-21)
(0.0977603 0.0529402 4.76041e-20)
(0.20043 0.0316691 -1.40048e-19)
(0.337486 0.00428308 9.63099e-20)
(0.505878 -0.0276976 -7.2752e-20)
(0.706676 -0.0658982 6.2795e-20)
(0.911879 -0.0829594 7.0134e-20)
(-0.0186994 0.0205586 -7.75025e-21)
(-0.028741 0.043377 3.57675e-20)
(-0.00760144 0.0532405 -4.4817e-20)
(0.0444544 0.0503267 -1.4056e-20)
(0.129345 0.0373008 2.72492e-20)
(0.249635 0.0168063 1.32916e-19)
(0.40794 -0.00751327 -2.72246e-20)
(0.596194 -0.0366461 1.35958e-20)
(0.811792 -0.0603557 -7.1976e-20)
(0.988552 -0.0815826 3.08513e-20)
(-0.0178385 0.0178312 -2.33945e-20)
(-0.0236204 0.0353343 -1.8113e-20)
(0.00464273 0.0411374 4.43865e-21)
(0.0675805 0.0358344 1.77282e-20)
(0.16791 0.0222714 -5.26246e-20)
(0.308144 0.00326756 -2.151e-20)
(0.488177 -0.0169579 -6.84195e-20)
(0.693989 -0.0410193 7.15195e-20)
(0.912468 -0.0516697 7.57135e-20)
(1.05761 -0.0857763 -3.34426e-20)
(-0.0168021 0.0153405 -1.10697e-20)
(-0.0171626 0.0276934 4.54089e-20)
(0.020039 0.0295987 -5.07463e-20)
(0.0961723 0.0221709 -5.91415e-21)
(0.214463 0.00861534 -2.40398e-20)
(0.376423 -0.007926 5.29996e-20)
(0.57705 -0.0230769 6.93056e-20)
(0.795044 -0.0400892 -6.64876e-20)
(1.00416 -0.0440098 6.9785e-20)
(1.14494 -0.0747682 8.74445e-21)
(-0.0154626 0.0130056 -3.2137e-20)
(-0.00902328 0.0204315 -9.16483e-20)
(0.0391743 0.0187977 8.95086e-20)
(0.130987 0.00976041 1.29171e-20)
(0.26958 -0.00297552 1.91049e-20)
(0.453981 -0.0159092 1.13286e-20)
(0.672042 -0.025149 5.2394e-20)
(0.894296 -0.0347759 3.87044e-20)
(1.08898 -0.034319 -1.37079e-19)
(1.21615 -0.0580522 -6.57888e-20)
(-0.0136622 0.0107389 -1.1026e-19)
(0.00116922 0.0135013 2.22372e-20)
(0.0625876 0.0088635 -5.05009e-20)
(0.172558 -0.00103154 9.88829e-21)
(0.333277 -0.0119013 1.59385e-20)
(0.53932 -0.0200571 -1.15049e-19)
(0.769602 -0.0229249 5.06439e-20)
(0.98799 -0.0258304 -3.46424e-20)
(1.16329 -0.0220325 3.63141e-20)
(1.2696 -0.0405733 -1.22115e-20)
(-0.0112254 0.00846228 3.98293e-20)
(0.0137894 0.00685914 4.28984e-20)
(0.0907324 -9.00371e-05 -2.38893e-21)
(0.221144 -0.00987628 -1.38727e-20)
(0.404952 -0.0176639 6.1938e-22)
(0.630069 -0.0200443 1.28326e-21)
(0.865921 -0.0166003 -7.73017e-20)
(1.07316 -0.0139104 9.72218e-21)
(1.22562 -0.00803423 9.48496e-20)
(1.31191 -0.0225473 4.23655e-20)
(-0.00797187 0.00612095 -2.69243e-20)
(0.0291928 0.000493663 -2.00317e-20)
(0.123948 -0.00793011 8.59216e-20)
(0.276687 -0.0164535 2.20635e-21)
(0.483388 -0.0198809 -3.6066e-20)
(0.723305 -0.0158498 9.7579e-20)
(0.957591 -0.00665238 2.12627e-20)
(1.14797 0.000267538 8.4915e-22)
(1.27643 0.00718805 -4.16864e-20)
(1.34232 -0.00467236 -5.30718e-20)
(-0.00372696 0.00369307 5.61059e-20)
(0.0476969 -0.0055513 -1.57274e-20)
(0.16244 -0.0144746 -9.36306e-21)
(0.338796 -0.0204329 -3.56928e-20)
(0.566837 -0.0183085 5.89635e-20)
(0.81598 -0.007705 -2.90247e-20)
(1.04201 0.00631542 -3.25495e-20)
(1.21175 0.0160931 -7.94974e-21)
(1.31636 0.0231059 -2.35482e-20)
(1.36408 0.012813 2.53319e-20)
(0.0016701 0.00119419 -2.06956e-20)
(0.0695641 -0.011162 -1.22826e-19)
(0.206257 -0.0194733 1.28496e-20)
(0.406738 -0.0214783 4.43871e-20)
(0.653179 -0.0128619 3.18761e-20)
(0.905315 0.00399207 -1.06132e-19)
(1.11753 0.0216945 6.77705e-20)
(1.26464 0.0330485 -3.0837e-20)
(1.34681 0.0393741 4.60302e-20)
(1.37853 0.0298863 1.24765e-20)
(0.0083607 -0.00132289 -2.25821e-20)
(0.094987 -0.0161508 4.36413e-20)
(0.25527 -0.0226071 5.69027e-20)
(0.47945 -0.0192779 -4.09971e-20)
(0.740139 -0.00361557 1.52371e-20)
(0.989075 0.018764 -9.33019e-20)
(1.18337 0.0389308 -1.77762e-20)
(1.30735 0.0507349 1.44797e-20)
(1.36915 0.0557655 -3.49682e-20)
(1.38749 0.0465178 -3.50774e-20)
(0.0164627 -0.00377168 -2.90771e-20)
(0.124073 -0.0202619 -9.76169e-21)
(0.309151 -0.0235047 -1.02976e-19)
(0.555581 -0.0135873 -1.61456e-20)
(0.825513 0.00922212 -1.81482e-21)
(1.06568 0.0361189 5.5118e-21)
(1.23941 0.057553 9.83382e-21)
(1.34092 0.0688583 -4.52499e-20)
(1.38482 0.0721496 8.16658e-22)
(1.39219 0.0627862 2.42036e-20)
(0.0260671 -0.00603768 -7.54031e-21)
(0.156828 -0.0231848 3.56842e-20)
(0.367361 -0.0217765 5.02852e-20)
(0.633576 -0.00426648 3.14824e-20)
(0.907366 0.0253491 -9.40296e-21)
(1.13418 0.0555908 -7.66547e-21)
(1.28605 0.0771785 7.62051e-20)
(1.3665 0.0872165 9.94324e-21)
(1.39507 0.0884697 3.38674e-20)
(1.39371 0.0787527 -1.45192e-20)
(0.0372343 -0.00798432 7.20628e-20)
(0.193145 -0.0245728 4.6932e-20)
(0.429144 -0.0170559 -4.7581e-20)
(0.711797 0.00870276 -9.48431e-21)
(0.984142 0.0444111 4.87878e-21)
(1.19416 0.0767604 -1.79295e-20)
(1.32395 0.0975084 -3.89142e-20)
(1.38526 0.10568 -6.56504e-21)
(1.40099 0.104713 5.57539e-22)
(1.3928 0.0944966 1.56818e-20)
(0.0499896 -0.00945903 8.70074e-21)
(0.232792 -0.0240646 -2.55349e-20)
(0.49356 -0.0090398 6.04637e-20)
(0.788645 0.0252233 3.945e-20)
(1.05471 0.0660338 1.07722e-21)
(1.24562 0.0992633 2.79515e-20)
(1.35395 0.118317 4.16904e-21)
(1.39828 0.124175 -2.92811e-20)
(1.40347 0.120892 2.46919e-20)
(1.39003 0.110079 -3.86207e-23)
(0.0643188 -0.010299 -5.9047e-20)
(0.275409 -0.0213074 -1.74543e-20)
(0.559524 0.00248086 -1.58683e-20)
(0.862668 0.045103 -2.75887e-20)
(1.11833 0.0898463 6.36466e-21)
(1.28886 0.122791 1.49087e-22)
(1.37694 0.139439 2.13122e-20)
(1.4065 0.14266 -3.36968e-21)
(1.40319 0.13703 -2.53793e-20)
(1.38581 0.125548 -2.35683e-20)
(0.0801647 -0.0103371 4.76391e-21)
(0.320511 -0.0159796 2.81269e-20)
(0.62587 0.0176055 1.36024e-20)
(0.932634 0.0680803 -4.26637e-20)
(1.17461 0.115493 -2.19715e-21)
(1.32435 0.147084 -1.82719e-20)
(1.39377 0.160755 4.77533e-22)
(1.41074 0.161119 8.6284e-21)
(1.40069 0.153148 -9.54246e-21)
(1.38038 0.140931 2.66001e-20)
(0.0974236 -0.00940767 1.11097e-20)
(0.3675 -0.0078108 -2.74153e-20)
(0.691421 0.0363227 -6.4872e-20)
(0.997563 0.0938471 5.97997e-20)
(1.22344 0.142642 -4.47246e-21)
(1.35266 0.171929 1.32452e-20)
(1.40525 0.182175 -1.82163e-21)
(1.41164 0.179543 1.27023e-20)
(1.39637 0.16926 -9.47566e-22)
(1.37392 0.156238 -2.0612e-20)
(0.115946 -0.0073533 -2.25671e-20)
(0.415687 0.00340054 3.55345e-20)
(0.755051 0.0585186 2.94854e-20)
(1.05673 0.122067 -4.24753e-20)
(1.26489 0.170983 -7.0045e-21)
(1.3744 0.197144 2.69364e-21)
(1.41207 0.203633 2.69289e-20)
(1.40974 0.197923 1.37634e-21)
(1.39048 0.185366 5.27026e-21)
(1.36653 0.171462 -1.13669e-20)
(0.135535 -0.00403127 1.71166e-20)
(0.464318 0.0177754 -1.54646e-20)
(0.815732 0.0839917 -1.31338e-20)
(1.10963 0.152388 2.25873e-20)
(1.2992 0.200234 7.8243e-21)
(1.39018 0.222577 5.904e-21)
(1.41484 0.225071 -2.7391e-20)
(1.40544 0.216245 -9.41844e-21)
(1.38323 0.201452 -8.46702e-21)
(1.35825 0.186577 3.73503e-21)
(0.155955 0.000679548 -8.46111e-21)
(0.512604 0.0353474 -1.99671e-22)
(0.872571 0.112469 2.48405e-20)
(1.15596 0.184453 -9.13918e-21)
(1.32668 0.230131 -4.0138e-21)
(1.40056 0.24809 -2.65101e-21)
(1.41406 0.246433 6.61974e-21)
(1.39905 0.234483 1.1485e-20)
(1.37473 0.217488 -3.63415e-22)
(1.3491 0.201546 4.22671e-21)
(0.176932 0.00687251 5.95501e-21)
(0.559755 0.0560618 -1.67258e-21)
(0.924826 0.143621 -4.43349e-21)
(1.1956 0.217903 -4.01638e-21)
(1.34769 0.260427 3.62394e-21)
(1.40606 0.273558 2.8337e-21)
(1.41015 0.26766 -2.61812e-21)
(1.39078 0.252598 9.58992e-22)
(1.36506 0.233427 1.35147e-21)
(1.33912 0.216319 -1.8049e-21)
(0.198165 0.0146079 3.1606e-21)
(0.605007 0.0797786 9.06139e-22)
(0.971905 0.177077 -5.44633e-21)
(1.22852 0.25238 -4.35017e-21)
(1.36261 0.29089 4.54483e-21)
(1.40715 0.29886 8.89831e-22)
(1.40344 0.288686 -2.10329e-21)
(1.3808 0.270536 1.9842e-21)
(1.35425 0.249206 1.11797e-21)
(1.32828 0.230836 -1.29837e-21)
(0.219332 0.023909 -1.2442e-21)
(0.647646 0.10628 2.53504e-21)
(1.01337 0.212434 1.67139e-20)
(1.25481 0.287536 -7.4249e-21)
(1.37185 0.321299 -3.67251e-21)
(1.40423 0.323874 -4.15893e-21)
(1.39419 0.309432 8.5602e-21)
(1.36922 0.28823 5.79382e-21)
(1.34234 0.264746 4.67267e-21)
(1.31662 0.24503 2.57118e-21)
(0.240101 0.03476 2.51725e-20)
(0.687031 0.135277 -1.39122e-20)
(1.0489 0.249271 -1.59235e-20)
(1.27464 0.323024 2.16181e-20)
(1.37578 0.351439 1.14115e-20)
(1.39765 0.348477 -7.72954e-22)
(1.38261 0.329811 -1.43201e-20)
(1.35612 0.305593 -1.03971e-20)
(1.32932 0.279951 -1.10107e-20)
(1.3041 0.25883 6.63421e-21)
(0.260139 0.0471051 -3.40049e-20)
(0.722603 0.166424 3.20809e-20)
(1.07831 0.287151 3.6899e-20)
(1.28821 0.358511 -3.64832e-20)
(1.37476 0.381101 -1.27062e-20)
(1.38772 0.372542 8.22771e-21)
(1.36887 0.349728 1.50957e-20)
(1.34154 0.322533 2.41967e-21)
(1.31519 0.294719 -4.71586e-22)
(1.29064 0.272161 -9.15324e-21)
(0.27912 0.0608499 -4.82516e-21)
(0.7539 0.199326 -4.49722e-20)
(1.10152 0.325633 -4.82426e-20)
(1.29578 0.393668 5.4273e-20)
(1.36914 0.410079 -6.18136e-21)
(1.37469 0.395936 1.15333e-20)
(1.3531 0.369078 2.33163e-21)
(1.32554 0.338958 -6.53316e-21)
(1.29991 0.308974 3.51732e-21)
(1.27606 0.28495 -5.67878e-22)
(0.296736 0.0758639 9.84964e-21)
(0.780555 0.233554 2.77758e-20)
(1.11854 0.364275 1.58071e-20)
(1.29762 0.428179 -1.24376e-20)
(1.35925 0.43817 -1.94516e-20)
(1.3588 0.418519 -1.83679e-20)
(1.33542 0.387744 -3.77472e-21)
(1.30815 0.354778 1.02805e-20)
(1.28351 0.322705 -2.1818e-21)
(1.26024 0.297114 5.07825e-21)
(0.312703 0.0919824 -3.70654e-20)
(0.802304 0.268655 -3.4779e-20)
(1.12943 0.40264 -5.50903e-21)
(1.29403 0.461738 -6.23888e-21)
(1.34538 0.465174 -1.43983e-20)
(1.34025 0.440146 8.9652e-21)
(1.31592 0.405596 -1.60241e-21)
(1.28943 0.369868 -9.0651e-21)
(1.26606 0.335918 8.25975e-21)
(1.24352 0.308589 -1.25128e-20)
(0.326769 0.109011 8.88499e-21)
(0.818976 0.304167 2.94588e-20)
(1.13435 0.440303 2.56956e-20)
(1.28532 0.494046 2.80945e-20)
(1.32784 0.490894 4.89571e-22)
(1.31922 0.460669 2.53745e-20)
(1.2947 0.422501 1.85026e-21)
(1.26942 0.384081 -3.1298e-20)
(1.24746 0.348392 2.29187e-20)
(1.22617 0.31935 8.56852e-21)
(0.338718 0.126731 2.39451e-20)
(0.830483 0.339623 5.36866e-20)
(1.1335 0.476852 -7.13983e-21)
(1.27181 0.524818 -3.53987e-20)
(1.30689 0.515136 1.61226e-20)
(1.29589 0.47994 -1.70918e-20)
(1.27186 0.438328 -2.3607e-20)
(1.24819 0.397357 -2.46533e-21)
(1.22773 0.359962 -1.95393e-20)
(1.2081 0.329279 7.83025e-21)
(0.348377 0.144905 1.12755e-20)
(0.836819 0.374564 8.40991e-21)
(1.1271 0.511893 6.74883e-20)
(1.25382 0.553781 1.28852e-20)
(1.28281 0.537711 -1.14303e-20)
(1.27044 0.497799 -5.93206e-21)
(1.24754 0.452935 3.6745e-20)
(1.22575 0.409576 3.10965e-20)
(1.20698 0.370546 1.59201e-20)
(1.18923 0.33825 -2.33627e-21)
(0.355615 0.163284 2.42906e-21)
(0.838052 0.408544 -5.48916e-20)
(1.11547 0.545054 -7.94569e-20)
(1.2317 0.580683 2.69304e-21)
(1.25583 0.558423 1.6398e-20)
(1.24304 0.514089 -2.29125e-20)
(1.22179 0.466196 -5.48629e-20)
(1.20215 0.420621 -1.69068e-20)
(1.18529 0.38004 -1.09184e-21)
(1.1696 0.346185 9.68825e-21)
(0.360342 0.18161 -1.96138e-20)
(0.834324 0.441129 4.97591e-20)
(1.09896 0.575992 4.7921e-20)
(1.20577 0.605291 -4.52078e-20)
(1.22619 0.577091 6.84041e-21)
(1.21384 0.528648 5.74541e-20)
(1.19472 0.477977 -1.41516e-20)
(1.17748 0.430378 1.17904e-20)
(1.16272 0.38835 -6.68092e-21)
(1.14925 0.353012 -9.18232e-21)
(0.362517 0.199623 -4.43492e-20)
(0.825855 0.471901 -7.84268e-20)
(1.07792 0.604398 -1.55144e-20)
(1.17624 0.627347 2.58074e-20)
(1.19418 0.593564 2.66353e-20)
(1.18303 0.541321 -5.8091e-20)
(1.16644 0.488151 3.34142e-20)
(1.15185 0.43874 -1.9789e-20)
(1.13934 0.39538 1.73637e-20)
(1.12828 0.358666 6.4718e-24)
(0.362158 0.217064 3.378e-20)
(0.812938 0.500479 2.16973e-21)
(1.05259 0.629988 -7.59749e-21)
(1.14345 0.646644 -3.28973e-20)
(1.1601 0.607626 2.29282e-20)
(1.15078 0.551994 4.09505e-21)
(1.1371 0.496601 -2.10998e-20)
(1.12535 0.445602 2.26498e-21)
(1.11523 0.401036 -5.80976e-21)
(1.10677 0.363074 4.97858e-21)
(0.359332 0.233674 -9.46281e-21)
(0.795882 0.526591 -1.3671e-20)
(1.02309 0.652368 3.43676e-20)
(1.10792 0.663044 1.62282e-20)
(1.1242 0.619126 -2.30161e-20)
(1.11727 0.560528 3.68338e-20)
(1.10682 0.503219 1.84209e-21)
(1.0981 0.450872 1.28973e-21)
(1.09049 0.405219 -5.73875e-21)
(1.08481 0.366141 -6.54251e-22)
(0.35412 0.249151 6.19117e-20)
(0.774868 0.550017 4.79774e-20)
(0.989925 0.671359 -2.58259e-21)
(1.07007 0.67625 -8.31146e-21)
(1.08672 0.627983 -9.77943e-21)
(1.08269 0.566815 -5.15998e-21)
(1.07576 0.507905 9.38066e-22)
(1.0702 0.454468 3.18711e-21)
(1.06522 0.407835 5.99473e-21)
(1.06249 0.367765 1.33176e-21)
(0.346567 0.26319 6.13313e-21)
(0.750056 0.570299 8.95407e-21)
(0.953811 0.686923 -4.7489e-20)
(1.03018 0.686116 2.22237e-20)
(1.04793 0.634064 9.40895e-21)
(1.04724 0.570752 -2.23488e-20)
(1.04406 0.510571 6.73069e-21)
(1.04177 0.456318 1.04036e-21)
(1.03955 0.408818 -1.09924e-21)
(1.04005 0.367904 -8.66183e-22)
(0.336775 0.27557 -2.34027e-20)
(0.721831 0.587042 -1.7952e-20)
(0.915148 0.6988 1.69881e-20)
(0.988587 0.692598 6.30329e-21)
(1.00808 0.637272 -8.14476e-21)
(1.0111 0.572246 9.83341e-21)
(1.01184 0.511129 5.06242e-22)
(1.0129 0.456331 2.04814e-21)
(1.01375 0.4081 5.35075e-21)
(1.01822 0.366612 3.55109e-21)
(0.324972 0.286158 -1.89968e-20)
(0.690713 0.600081 5.21064e-20)
(0.874284 0.706777 -3.51796e-20)
(0.945613 0.695605 -3.77477e-21)
(0.967439 0.637526 -9.16187e-21)
(0.974463 0.571222 5.49929e-21)
(0.979234 0.509499 -1.25768e-21)
(0.983717 0.454366 1.00842e-21)
(0.988253 0.405462 2.21941e-21)
(0.997844 0.363911 -7.31872e-22)
(0.311354 0.294826 -3.6652e-22)
(0.657143 0.609272 -1.51723e-20)
(0.831628 0.710703 1.09415e-20)
(0.901607 0.69506 -7.83732e-21)
(0.926259 0.634773 -1.28717e-21)
(0.937513 0.567638 2.30965e-21)
(0.94635 0.505642 5.42431e-21)
(0.954405 0.450328 -5.74543e-21)
(0.963429 0.400496 -1.16637e-20)
(0.978134 0.359001 6.51414e-21)
(0.296109 0.301405 2.48634e-21)
(0.621561 0.614489 -1.75009e-22)
(0.787606 0.710494 4.90891e-22)
(0.856916 0.690908 -2.70866e-21)
(0.88481 0.628975 -2.65537e-21)
(0.900447 0.561471 -1.00418e-20)
(0.913388 0.499572 -2.58728e-21)
(0.925264 0.444372 -2.29856e-21)
(0.93923 0.393459 1.92262e-20)
(0.955833 0.347948 -2.98736e-21)
(0.279469 0.305764 -8.79008e-21)
(0.584402 0.615633 -5.68128e-21)
(0.742641 0.706105 2.89633e-21)
(0.811888 0.68312 1.6022e-21)
(0.843357 0.620113 -6.09605e-21)
(0.863487 0.552701 2.25072e-20)
(0.880625 0.491259 -1.77828e-20)
(0.896526 0.436593 2.17477e-20)
(0.914419 0.386454 -1.51311e-20)
(0.930621 0.342498 -2.10848e-20)
(0.261684 0.307804 2.98474e-21)
(0.546096 0.612642 -3.61071e-21)
(0.697155 0.697526 1.62195e-21)
(0.766864 0.671694 9.04944e-21)
(0.802166 0.608184 -5.22131e-21)
(0.826863 0.541313 7.72442e-21)
(0.848273 0.480651 1.00792e-20)
(0.868221 0.426677 -5.36271e-21)
(0.889506 0.377066 -1.64696e-20)
(0.906708 0.33332 2.22247e-20)
(0.24301 0.307452 5.95336e-21)
(0.507073 0.605491 7.23045e-21)
(0.651563 0.684775 -8.53348e-21)
(0.722181 0.656657 -7.18933e-21)
(0.761502 0.593209 3.20975e-20)
(0.790796 0.527328 -3.34056e-20)
(0.816477 0.467809 4.16442e-20)
(0.840337 0.414896 -1.01919e-20)
(0.864672 0.366421 1.10352e-20)
(0.883569 0.323914 2.17036e-20)
(0.223711 0.304667 -1.36796e-21)
(0.467758 0.594193 -8.45818e-21)
(0.606267 0.667904 -7.46655e-21)
(0.678168 0.638059 -3.32882e-21)
(0.721628 0.575228 5.64066e-21)
(0.755508 0.510773 -9.89691e-21)
(0.785412 0.452737 -1.23174e-20)
(0.813048 0.401168 -2.85369e-20)
(0.840306 0.354072 2.85836e-20)
(0.861345 0.313011 -8.81484e-21)
(0.20405 0.299434 2.10087e-20)
(0.428571 0.578797 -3.27795e-21)
(0.561662 0.646993 -1.0599e-20)
(0.635147 0.615975 1.26342e-20)
(0.682803 0.554302 -2.22604e-20)
(0.721208 0.4917 6.22946e-20)
(0.755245 0.435495 -3.34603e-20)
(0.78652 0.385589 3.05248e-20)
(0.816632 0.340193 -5.58554e-20)
(0.840048 0.300765 -1.49658e-20)
(0.184287 0.291767 -5.19296e-21)
(0.389919 0.559389 2.24525e-20)
(0.518127 0.622153 4.82095e-21)
(0.593425 0.590505 -1.21761e-20)
(0.645275 0.530512 -2.12542e-20)
(0.688104 0.470175 -1.46235e-22)
(0.726147 0.416135 1.11502e-20)
(0.76092 0.368192 -2.79433e-20)
(0.793813 0.324753 1.34234e-20)
(0.819711 0.2871 1.72563e-21)
(0.16468 0.281705 -3.865e-20)
(0.352194 0.536089 -9.26205e-21)
(0.476024 0.593521 -2.79361e-21)
(0.553301 0.561772 3.24769e-20)
(0.609286 0.50396 -3.05889e-20)
(0.656394 0.446283 -7.61131e-21)
(0.698289 0.394733 -4.87543e-21)
(0.73641 0.349043 8.70538e-21)
(0.771988 0.307798 -1.14356e-20)
(0.800397 0.272057 -1.76751e-20)
(0.14548 0.269315 3.55313e-20)
(0.315774 0.509048 -2.04557e-20)
(0.435701 0.561262 7.85996e-22)
(0.515056 0.52992 -4.97802e-20)
(0.575065 0.474765 5.42288e-20)
(0.626271 0.420125 -1.71527e-20)
(0.671837 0.371376 1.02523e-20)
(0.713136 0.32821 8.97635e-21)
(0.751282 0.289374 2.59995e-20)
(0.782177 0.255682 -1.09109e-20)
(0.126927 0.254687 -1.43289e-20)
(0.281016 0.478451 4.27464e-20)
(0.397484 0.525569 2.42299e-20)
(0.478959 0.495115 4.01857e-20)
(0.542829 0.443066 -9.15634e-21)
(0.597918 0.391818 3.77371e-21)
(0.646948 0.346164 3.02168e-20)
(0.691237 0.305776 6.85852e-21)
(0.731808 0.269545 6.66302e-22)
(0.765125 0.238048 -1.31494e-20)
(0.109251 0.237936 -3.45148e-20)
(0.248254 0.444507 -2.41591e-21)
(0.361678 0.486655 -1.44568e-20)
(0.44526 0.457544 -6.53582e-20)
(0.512785 0.409019 -6.32968e-20)
(0.571509 0.361495 1.04988e-20)
(0.623771 0.319211 -2.59731e-20)
(0.670842 0.281837 1.67771e-20)
(0.713677 0.248391 9.07387e-21)
(0.749315 0.219235 1.86455e-20)
(0.092666 0.219198 5.16341e-20)
(0.217801 0.407457 -4.22799e-20)
(0.328566 0.444759 -2.15848e-20)
(0.414189 0.417411 3.78796e-20)
(0.485122 0.372796 4.33768e-20)
(0.547202 0.329301 -1.45483e-20)
(0.602443 0.290641 -1.96867e-21)
(0.652071 0.256497 -5.20064e-20)
(0.69699 0.226003 -2.93637e-20)
(0.734818 0.199335 1.12338e-20)
(0.0773715 0.198628 -2.95161e-20)
(0.189941 0.367562 1.24012e-20)
(0.298406 0.40014 4.59389e-20)
(0.385959 0.374939 -2.08579e-20)
(0.460015 0.334585 1.76642e-21)
(0.525148 0.295397 5.8482e-20)
(0.583092 0.260593 2.59766e-21)
(0.635035 0.229874 5.01539e-20)
(0.681842 0.202484 2.08728e-20)
(0.721702 0.178448 -3.32022e-20)
(0.0635479 0.1764 4.1521e-20)
(0.164932 0.325108 4.70897e-21)
(0.271432 0.353075 3.0738e-21)
(0.360762 0.330367 4.22149e-20)
(0.437622 0.294586 -5.54128e-21)
(0.50548 0.259955 -3.68105e-20)
(0.565833 0.229215 1.80247e-20)
(0.619832 0.202095 -2.88654e-20)
(0.668321 0.177945 -1.19971e-20)
(0.710026 0.156677 1.21187e-20)
(0.0513567 0.152705 -2.58623e-20)
(0.143002 0.280401 -4.99177e-20)
(0.247848 0.303859 1.16178e-20)
(0.338765 0.283946 -2.26888e-20)
(0.418084 0.253012 -1.36073e-20)
(0.488317 0.223157 3.31439e-20)
(0.550767 0.196663 -8.01144e-21)
(0.606555 0.173296 7.31085e-21)
(0.656505 0.152505 -8.9479e-21)
(0.699848 0.134133 1.78388e-20)
(0.0409379 0.127749 9.49377e-21)
(0.124348 0.233761 3.37674e-20)
(0.227832 0.2528 -4.70356e-20)
(0.320117 0.235941 2.21613e-20)
(0.401522 0.210089 -1.01166e-20)
(0.473763 0.185195 -2.84511e-20)
(0.537985 0.163103 2.32687e-20)
(0.59528 0.143618 4.83073e-21)
(0.646464 0.12629 -7.4616e-22)
(0.691213 0.110928 -2.07327e-20)
(0.0324099 0.101748 3.14292e-21)
(0.109137 0.185527 1.09902e-20)
(0.211533 0.200221 4.27154e-20)
(0.304939 0.186628 -8.22252e-21)
(0.388037 0.166049 -6.4798e-21)
(0.461904 0.14627 2.37355e-21)
(0.527561 0.128708 1.12386e-21)
(0.586075 0.113212 8.69328e-21)
(0.638257 0.0994307 -1.14388e-20)
(0.684163 0.0871765 -7.26345e-21)
(0.0258675 0.0749306 -7.81217e-21)
(0.0974986 0.136048 -1.33694e-20)
(0.19907 0.146453 -3.33715e-20)
(0.29333 0.136291 1.68e-20)
(0.377712 0.121133 1.36746e-20)
(0.452811 0.106588 5.83444e-22)
(0.519556 0.0936556 -2.28416e-20)
(0.578993 0.0822311 -1.01665e-20)
(0.631932 0.0720637 8.0129e-21)
(0.67873 0.0629953 8.59633e-21)
(0.0213815 0.0475309 1.36966e-21)
(0.0895334 0.0856822 -2.82625e-21)
(0.190532 0.0918369 6.32778e-21)
(0.285363 0.0852198 -4.28047e-21)
(0.370608 0.0755877 -3.80352e-21)
(0.446535 0.0663605 -2.57413e-21)
(0.514015 0.0581294 4.71634e-21)
(0.574076 0.0508347 1.79705e-20)
(0.627525 0.0443277 2.59271e-21)
(0.674938 0.0385028 -4.59353e-21)
(0.0189986 0.01979 1.69142e-21)
(0.0853051 0.0347947 -4.65241e-21)
(0.185977 0.036718 -5.27403e-21)
(0.281086 0.0337108 -3.65732e-21)
(0.366764 0.0296644 3.48041e-21)
(0.443111 0.025804 1.56951e-21)
(0.510967 0.0223148 -1.56205e-21)
(0.571349 0.019184 -7.12236e-21)
(0.625061 0.0163648 2.34446e-21)
(0.672803 0.0138195 -2.19044e-21)
(0.0187399 -0.00804821 -1.70068e-21)
(0.0848434 -0.0162453 4.67743e-21)
(0.18543 -0.0185545 5.29965e-21)
(0.28052 -0.017938 -5.07022e-21)
(0.3662 -0.0163838 4.46296e-21)
(0.442556 -0.0148645 2.23375e-21)
(0.510427 -0.0136007 -3.56452e-21)
(0.570826 -0.0125587 -4.14632e-21)
(0.624551 -0.0116835 6.12512e-22)
(0.672334 -0.010939 -1.72411e-21)
(0.0206017 -0.0357389 1.86392e-21)
(0.0881428 -0.0670677 -5.57163e-21)
(0.188888 -0.0736309 1.25217e-20)
(0.283663 -0.0694277 -1.09884e-20)
(0.368912 -0.0623031 -5.12235e-22)
(0.444866 -0.055427 -7.28748e-21)
(0.512392 -0.0494291 1.18451e-20)
(0.572506 -0.0442302 1.61059e-20)
(0.625995 -0.0396745 2.88617e-21)
(0.673528 -0.0356552 -6.2083e-21)
(0.0245552 -0.0630387 -1.61404e-21)
(0.0951632 -0.117304 -1.18468e-20)
(0.196315 -0.128163 -2.75044e-20)
(0.290485 -0.12046 2.37828e-20)
(0.374876 -0.107841 4.91599e-21)
(0.450021 -0.0956667 4.33553e-21)
(0.516846 -0.0849832 -2.13783e-20)
(0.576372 -0.0756679 -1.25759e-20)
(0.629379 -0.0674652 -2.78322e-21)
(0.676377 -0.0602075 1.91913e-20)
(0.0305465 -0.0897084 -5.6967e-21)
(0.10583 -0.166591 7.1188e-21)
(0.207643 -0.181805 5.00083e-20)
(0.30093 -0.170742 -4.47078e-21)
(0.384046 -0.152747 -1.28117e-20)
(0.457982 -0.135369 9.21359e-21)
(0.523754 -0.120078 5.83044e-22)
(0.582397 -0.106712 3.25369e-21)
(0.634677 -0.0949151 -7.09504e-21)
(0.680862 -0.0844795 -1.87719e-20)
(0.0384974 -0.115515 -3.86337e-21)
(0.120033 -0.214572 2.09562e-20)
(0.222774 -0.234221 -5.04429e-20)
(0.314918 -0.219984 2.1897e-20)
(0.396356 -0.196777 1.9865e-22)
(0.468693 -0.174324 -2.77206e-20)
(0.533069 -0.154533 1.22147e-20)
(0.590535 -0.137204 -1.11559e-21)
(0.641851 -0.121887 4.64161e-21)
(0.686959 -0.108356 -1.44247e-21)
(0.0483057 -0.140232 -4.42729e-20)
(0.13763 -0.2609 -5.2824e-20)
(0.24158 -0.285079 1.37906e-20)
(0.332343 -0.267903 -2.50682e-20)
(0.411717 -0.239692 -7.13396e-21)
(0.482078 -0.212327 1.05527e-20)
(0.544725 -0.188171 3.9339e-21)
(0.600731 -0.166992 1.46401e-20)
(0.650851 -0.148246 -3.15683e-21)
(0.694634 -0.131721 1.68925e-20)
(0.0598465 -0.163648 4.23604e-20)
(0.158445 -0.305242 2.71732e-20)
(0.263902 -0.334063 -2.06591e-20)
(0.353076 -0.314228 3.47458e-20)
(0.430023 -0.281261 -3.02396e-21)
(0.498047 -0.24918 -3.75349e-20)
(0.558644 -0.220822 6.59673e-21)
(0.612916 -0.19593 -3.98242e-20)
(0.661618 -0.173863 1.50173e-21)
(0.703844 -0.154461 1.44896e-20)
(0.0729727 -0.18556 -3.17052e-20)
(0.182271 -0.347281 5.66855e-20)
(0.289555 -0.380865 2.21899e-20)
(0.376963 -0.358698 -2.73274e-20)
(0.451147 -0.321265 1.61806e-22)
(0.516492 -0.284694 6.9291e-20)
(0.574735 -0.252324 3.20988e-21)
(0.627009 -0.223875 3.07733e-20)
(0.674079 -0.198614 3.74755e-20)
(0.71454 -0.176468 -2.10107e-20)
(0.0875169 -0.205783 1.77804e-20)
(0.208869 -0.386715 -8.488e-21)
(0.318323 -0.425196 -2.01694e-20)
(0.403828 -0.401064 1.53202e-20)
(0.474942 -0.359492 5.83731e-20)
(0.537289 -0.318692 -2.0425e-20)
(0.592891 -0.282522 -3.29076e-21)