/*--------------------------------*- C++ -*----------------------------------*\
  =========                 |
  \\      /  F ield         | OpenFOAM: The Open Source CFD Toolbox
   \\    /   O peration     | Website:  https://openfoam.org
    \\  /    A nd           | Version:  7
     \\/     M anipulation  |
\*---------------------------------------------------------------------------*/
FoamFile
{
    version     2.0;
    format      ascii;
    class       volVectorField;
    location    "5";
    object      U;
}
// * * * * * * * * * * * * * * * * * * * * * * * * * * * * * * * * * * * * * //

dimensions      [0 1 -1 0 0 0 0];

internalField   nonuniform List<vector> 
2125
(
(1.35894 -0.17238 -1.02354e-20)
(1.33765 -0.16691 -2.90371e-20)
(1.35727 -0.161477 -4.96546e-21)
(1.24506 -0.142244 2.00221e-20)
(1.31972 -0.154098 -2.30213e-21)
(1.35185 -0.150396 2.50302e-20)
(0.825277 -0.067273 5.52077e-20)
(1.04017 -0.100903 -1.1594e-19)
(1.19773 -0.125807 2.37642e-20)
(1.29398 -0.140948 -1.86884e-20)
(1.34139 -0.139009 -2.63898e-20)
(0.494981 -0.0253802 1.13843e-20)
(0.733373 -0.0524726 -9.32467e-20)
(0.959389 -0.0837626 6.35985e-20)
(1.13891 -0.10937 -4.99249e-20)
(1.25874 -0.127466 5.00656e-20)
(1.32424 -0.127199 -2.33375e-21)
(0.22465 -0.00973699 -4.50901e-22)
(0.412651 -0.0199112 3.79228e-20)
(0.638576 -0.040594 2.08238e-21)
(0.86929 -0.0682086 -5.11588e-20)
(1.06783 -0.0932554 -1.57516e-21)
(1.21224 -0.113764 -2.19732e-20)
(1.29839 -0.114844 2.60814e-20)
(0.0593489 -0.0127202 7.19283e-21)
(0.171601 -0.0122722 2.01318e-20)
(0.335691 -0.0176425 -3.41132e-20)
(0.543833 -0.0320642 8.00627e-20)
(0.771898 -0.054911 -4.23246e-22)
(0.984481 -0.0779498 -6.89949e-21)
(1.15302 -0.100092 -4.29527e-20)
(1.2614 -0.101964 -6.00734e-21)
(0.033624 -0.0179833 5.62899e-21)
(0.125425 -0.016451 -1.45356e-20)
(0.265659 -0.0183171 -1.68788e-20)
(0.452234 -0.0271586 -1.10192e-20)
(0.670258 -0.044595 -7.9647e-21)
(0.88991 -0.0641253 1.00624e-20)
(1.08008 -0.0869188 4.11979e-20)
(1.21096 -0.0885799 3.08581e-20)
(-0.0212388 -0.0221338 3.08954e-20)
(0.0126628 -0.0236287 -7.10452e-20)
(0.0861774 -0.0220285 3.95806e-20)
(0.203659 -0.0216662 3.43821e-20)
(0.366653 -0.0259764 -8.65968e-20)
(0.568225 -0.0379385 2.35661e-20)
(0.786524 -0.0526307 -1.19309e-21)
(0.993755 -0.0749375 1.7676e-20)
(1.14389 -0.0752665 -3.46618e-20)
(-0.0188799 -0.014299 8.7238e-20)
(-0.0270257 -0.0260512 -2.40911e-20)
(-0.00390053 -0.0296506 3.49427e-20)
(0.0537249 -0.0288928 2.18562e-20)
(0.150357 -0.0274821 -1.20034e-20)
(0.289469 -0.0284753 2.78958e-20)
(0.470006 -0.0354394 -1.17e-20)
(0.678208 -0.0444562 6.57105e-20)
(0.8955 -0.0650962 -1.07299e-19)
(1.06057 -0.0627219 -3.72339e-20)
(-0.0185635 -0.0151305 -2.56777e-20)
(-0.0309152 -0.0298864 9.63357e-20)
(-0.0164953 -0.0361411 -7.55927e-20)
(0.0277616 -0.0370392 -2.18818e-21)
(0.106022 -0.0356351 -3.46223e-20)
(0.222404 -0.0345264 3.75799e-20)
(0.379555 -0.0373147 4.07488e-20)
(0.56985 -0.0406598 -2.03811e-20)
(0.789866 -0.0586204 1.75215e-20)
(0.955135 -0.0525859 2.14301e-20)
(-0.0179541 -0.0159098 5.32045e-21)
(-0.0332811 -0.033823 -2.65218e-20)
(-0.0256181 -0.0432458 3.27712e-20)
(0.00780293 -0.0465111 -3.06369e-20)
(0.0705168 -0.046029 -3.71409e-20)
(0.166439 -0.0439366 -1.65721e-20)
(0.299967 -0.043487 -6.18205e-20)
(0.467083 -0.0424069 3.80082e-20)
(0.68169 -0.0540109 7.0842e-20)
(0.83532 -0.0567546 -2.35314e-20)
(-0.0172086 -0.0167689 1.64686e-20)
(-0.0345063 -0.0380698 1.26355e-20)
(-0.0318312 -0.0511078 -3.03017e-21)
(-0.00682741 -0.0573255 -5.32275e-20)
(0.0432855 -0.0585199 5.49887e-20)
(0.121737 -0.0564125 6.12896e-20)
(0.233106 -0.0536787 2.10646e-20)
(0.37588 -0.0502344 -3.07643e-21)
(0.568402 -0.0492271 -7.55817e-20)
(0.74902 -0.0642578 2.41259e-20)
(-0.0164714 -0.0178368 -4.96877e-20)
(-0.0349595 -0.0428075 -6.21458e-21)
(-0.0357428 -0.0598114 1.31259e-20)
(-0.01699 -0.0693995 4.0878e-21)
(0.0233385 -0.0728298 1.67325e-20)
(0.0875998 -0.0714852 -9.86525e-20)
(0.179534 -0.0674266 5.90071e-20)
(0.299859 -0.0629156 -7.11796e-20)
(0.461088 -0.0504711 5.20888e-20)
(0.661349 -0.0639787 6.50223e-20)
(-0.0158575 -0.0192342 2.19308e-20)
(-0.0349599 -0.0481525 -1.38954e-20)
(-0.0379755 -0.0693306 6.15679e-21)
(-0.0236858 -0.082499 -2.91023e-20)
(0.00930627 -0.0884902 4.00921e-21)
(0.0625216 -0.0884574 -7.8348e-21)
(0.138468 -0.0839834 -3.69707e-20)
(0.239653 -0.0787735 1.94492e-20)
(0.368852 -0.0598298 3.97564e-20)
(0.570798 -0.064425 -5.95524e-20)
(-0.0154307 -0.0210435 -3.0432e-20)
(-0.0347588 -0.0541325 -4.42893e-20)
(-0.0391232 -0.0795035 3.46905e-20)
(-0.0279745 -0.0962193 3.32746e-20)
(-0.000427588 -0.104833 -8.15573e-20)
(0.044375 -0.106398 8.05804e-20)
(0.1078 -0.102239 -9.01761e-20)
(0.193331 -0.0964012 2.53013e-20)
(0.295342 -0.0756378 -2.71347e-20)
(0.481979 -0.0704909 -4.54643e-20)
(-0.0152004 -0.0232892 1.56139e-20)
(-0.0345262 -0.0606661 3.55985e-20)
(-0.0397037 -0.0900274 8.9989e-21)
(-0.0308737 -0.110002 9.59839e-21)
(-0.00753349 -0.121033 -6.98179e-22)
(0.0307354 -0.12421 1.4393e-20)
(0.0845106 -0.120817 2.77676e-20)
(0.157472 -0.11453 5.37152e-20)
(0.239218 -0.0947696 -5.34352e-20)
(0.401461 -0.0825468 2.04129e-20)
(-0.015129 -0.0259302 -3.82715e-20)
(-0.0343462 -0.0675535 7.93885e-22)
(-0.0401253 -0.100473 1.21382e-20)
(-0.0332661 -0.12318 -2.14916e-20)
(-0.0135369 -0.136188 4.19363e-20)
(0.019258 -0.140752 -9.93411e-20)
(0.0653216 -0.138285 5.31006e-20)
(0.128067 -0.131862 -5.01575e-20)
(0.195792 -0.11426 9.81261e-20)
(0.332463 -0.0989354 2.66194e-20)
(-0.0151437 -0.0288576 2.0102e-20)
(-0.0342279 -0.0744839 -4.04493e-20)
(-0.0406735 -0.110315 -1.21077e-20)
(-0.0358392 -0.135035 1.78171e-20)
(-0.0196691 -0.149411 2.99269e-20)
(0.00798463 -0.154976 4.57454e-21)
(0.0472982 -0.153372 -1.79262e-20)
(0.101267 -0.147143 4.21389e-20)
(0.159166 -0.131961 -2.45654e-20)
(0.27351 -0.117032 -3.02751e-21)
(-0.0151527 -0.0319009 5.51368e-20)
(-0.0341275 -0.0810544 1.50423e-20)
(-0.0415185 -0.118971 2.80191e-21)
(-0.0390626 -0.144862 -3.94352e-20)
(-0.0267919 -0.159915 3.52268e-20)
(-0.00447973 -0.166023 1.15226e-20)
(0.0282486 -0.165099 5.99154e-21)
(0.0739952 -0.15933 -1.30629e-20)
(0.124106 -0.146512 1.62399e-20)
(0.220166 -0.133945 2.78901e-20)
(-0.0150613 -0.0348384 -4.12338e-20)
(-0.0339743 -0.0868003 2.24909e-20)
(-0.0427342 -0.125849 -2.4893e-21)
(-0.0431959 -0.152028 5.65996e-20)
(-0.0353897 -0.167071 -6.19854e-20)
(-0.0189259 -0.173279 2.06728e-20)
(0.00687144 -0.172827 -1.29348e-20)
(0.0442952 -0.167699 -1.18833e-20)
(0.0870398 -0.15708 -3.70845e-20)
(0.167623 -0.14731 1.43994e-20)
(-0.0147886 -0.037414 1.77241e-20)
(-0.0336965 -0.0912316 -4.45512e-20)
(-0.0443236 -0.130397 -2.49997e-20)
(-0.0483156 -0.156016 -3.91943e-20)
(-0.045608 -0.170442 1.06665e-20)
(-0.0355985 -0.176386 -3.42951e-21)
(-0.0173017 -0.17623 -3.36898e-20)
(0.0113584 -0.171856 -7.332e-21)
(0.0462178 -0.163203 -5.98352e-22)
(0.11255 -0.15579 1.73788e-20)
(-0.0142788 -0.039357 3.15736e-20)
(-0.0332403 -0.0938748 3.16985e-21)
(-0.0462407 -0.132143 1.34567e-20)
(-0.0543491 -0.156453 5.92347e-20)
(-0.0573154 -0.169789 5.92127e-20)
(-0.0543041 -0.175213 -1.03524e-20)
(-0.0440711 -0.175234 2.71312e-20)
(-0.0246751 -0.17166 -1.81286e-20)
(0.00134926 -0.164785 -1.11074e-20)
(0.0537141 -0.158947 -2.55294e-20)
(-0.0135096 -0.0404065 -4.08168e-20)
(-0.0325822 -0.0943154 3.40009e-20)
(-0.0484069 -0.130731 1.72719e-20)
(-0.0611094 -0.153132 -3.36076e-20)
(-0.0701724 -0.165056 -3.82569e-20)
(-0.0745305 -0.169816 1.23882e-20)
(-0.0727585 -0.16994 1.08704e-21)
(-0.0630312 -0.167095 5.56807e-20)
(-0.0468191 -0.162084 3.42498e-20)
(-0.00830462 -0.156774 -1.46924e-20)
(-0.0124938 -0.040331 2.22576e-20)
(-0.031731 -0.0922348 -9.78491e-21)
(-0.0507251 -0.125952 -3.51231e-20)
(-0.0683294 -0.146006 1.49753e-20)
(-0.0836978 -0.156343 -5.83111e-22)
(-0.0955569 -0.160395 -5.0606e-20)
(-0.102384 -0.160608 -2.90173e-21)
(-0.102678 -0.158448 -5.18497e-20)
(-0.0966376 -0.155037 -2.41527e-20)
(-0.0720522 -0.149872 4.16508e-20)
(-0.0112819 -0.0389538 -2.71926e-20)
(-0.0307296 -0.0874354 -2.33332e-21)
(-0.0530877 -0.11775 -1.64723e-21)
(-0.0756894 -0.135178 -3.19865e-20)
(-0.0973264 -0.143877 4.82775e-21)
(-0.116563 -0.147238 3.09856e-20)
(-0.131893 -0.147543 -1.67315e-20)
(-0.142106 -0.146084 2.73795e-20)
(-0.146229 -0.143694 1.26669e-20)
(-0.136111 -0.139309 -1.50795e-20)
(-0.00995355 -0.036177 1.71495e-20)
(-0.0296442 -0.0798645 3.29082e-20)
(-0.0553829 -0.106219 -7.37728e-21)
(-0.0828447 -0.120885 1.54336e-20)
(-0.110457 -0.127984 1.04355e-20)
(-0.136678 -0.130704 -2.60503e-20)
(-0.160103 -0.131084 6.48528e-21)
(-0.179734 -0.130216 -7.33376e-21)
(-0.194019 -0.128584 9.81493e-21)
(-0.198176 -0.125463 -1.99505e-20)
(-0.00860842 -0.0319897 -5.45083e-21)
(-0.0285562 -0.0696216 -2.13588e-20)
(-0.0575002 -0.0916037 2.99284e-20)
(-0.0894499 -0.103476 -1.52827e-20)
(-0.122495 -0.109065 7.19612e-21)
(-0.15504 -0.111203 2.19707e-20)
(-0.185834 -0.111625 -1.91648e-20)
(-0.214059 -0.111201 -5.02613e-21)
(-0.238073 -0.110171 3.59935e-22)
(-0.255461 -0.108193 2.41577e-20)
(-0.00735613 -0.0264759 -1.66456e-21)
(-0.0275524 -0.0569541 -6.43997e-21)
(-0.0593365 -0.0742768 -2.64858e-20)
(-0.0951804 -0.0833942 5.23614e-21)
(-0.132885 -0.0875855 4.37022e-21)
(-0.170843 -0.0891957 -1.7726e-21)
(-0.207975 -0.0896099 -4.04421e-22)
(-0.243634 -0.08948 -7.74231e-21)
(-0.276363 -0.0888942 1.12478e-20)
(-0.305297 -0.0877694 7.81176e-21)
(-0.00630393 -0.0198131 4.317e-21)
(-0.0267153 -0.0422448 7.80999e-21)
(-0.060801 -0.0547227 2.00029e-20)
(-0.0997513 -0.0611562 -1.03536e-20)
(-0.141142 -0.0640593 -9.04719e-21)
(-0.183379 -0.0651831 -3.1277e-22)
(-0.225542 -0.0655336 1.82405e-20)
(-0.267142 -0.0655573 8.92272e-21)
(-0.307001 -0.0652679 -7.95029e-21)
(-0.345228 -0.0647077 -9.40923e-21)
(-0.00554483 -0.0122627 -7.12834e-22)
(-0.0261148 -0.02599 1.57802e-21)
(-0.0618205 -0.0335136 -3.7704e-21)
(-0.102933 -0.0373375 2.71865e-21)
(-0.146875 -0.0390411 2.4256e-21)
(-0.192075 -0.0397056 1.74376e-21)
(-0.237733 -0.0399404 -3.64862e-21)
(-0.283482 -0.0400042 -1.52598e-20)
(-0.3284 -0.0398866 -2.42485e-21)
(-0.373156 -0.0396544 4.9974e-21)
(-0.00514718 -0.00415147 1.1139e-21)
(-0.0258013 -0.00877235 -2.83268e-21)
(-0.0623436 -0.0112858 -2.29494e-21)
(-0.104565 -0.0125539 1.62775e-21)
(-0.149812 -0.0131153 -2.27977e-21)
(-0.196527 -0.0133352 -1.10023e-21)
(-0.243976 -0.0134178 1.17992e-21)
(-0.291861 -0.0134477 6.03557e-21)
(-0.339404 -0.0134183 -2.18032e-21)
(-0.387533 -0.0133589 2.31835e-21)
(1.09943 -0.0019523 -2.59983e-22)
(1.10015 -0.00190132 6.81389e-22)
(1.10084 -0.00184921 -6.70891e-22)
(1.1015 -0.0017958 2.1578e-22)
(1.10214 -0.00174098 5.23697e-22)
(1.10276 -0.00168456 7.94621e-25)
(1.10335 -0.00162658 -2.46449e-22)
(1.10391 -0.0015665 -3.98315e-22)
(1.10445 -0.00150538 2.61583e-22)
(1.10496 -0.00143995 -1.12596e-22)
(1.10545 -0.00137857 8.12309e-23)
(1.10071 -0.00578959 -1.96285e-22)
(1.10146 -0.00562505 -5.38822e-23)
(1.10217 -0.00545841 1.47497e-22)
(1.10287 -0.00528943 3.31275e-22)
(1.10353 -0.00511791 -2.6396e-23)
(1.10417 -0.00494345 -8.53746e-23)
(1.10479 -0.00476628 -1.09182e-22)
(1.10537 -0.00458486 3.48534e-22)
(1.10594 -0.00440242 8.80897e-23)
(1.10647 -0.00420926 -8.75138e-23)
(1.10699 -0.00403033 -1.45648e-22)
(1.10306 -0.00953462 -3.27651e-22)
(1.10385 -0.00926144 2.22741e-23)
(1.10462 -0.00898509 3.46359e-23)
(1.10536 -0.00870512 7.22492e-22)
(1.10608 -0.00842121 -9.60551e-22)
(1.10677 -0.00813266 2.53221e-22)
(1.10743 -0.00783982 2.63986e-22)
(1.10807 -0.00754017 1.50134e-22)
(1.10868 -0.00723891 -1.45961e-22)
(1.10926 -0.00692029 -9.63076e-24)
(1.10985 -0.00662488 8.84846e-24)
(1.10638 -0.0132956 3.73458e-22)
(1.10724 -0.0129085 -2.31967e-22)
(1.10808 -0.0125169 6.04621e-22)
(1.10889 -0.0121202 -2.54856e-22)
(1.10968 -0.011718 -1.20232e-22)
(1.11044 -0.0113095 -6.35437e-22)
(1.11118 -0.010895 2.16449e-23)
(1.11189 -0.0104713 1.97894e-23)
(1.11259 -0.0100455 1.91156e-22)
(1.11324 -0.00959611 -1.43799e-22)
(1.11392 -0.00917856 2.16719e-22)
(1.11056 -0.0170926 2.96068e-22)
(1.11152 -0.0165862 -2.27804e-22)
(1.11245 -0.016074 -1.32762e-22)
(1.11336 -0.0155552 -9.52531e-23)
(1.11424 -0.0150292 2.86355e-22)
(1.1151 -0.0144951 4.50572e-22)
(1.11593 -0.0139534 -9.67211e-25)
(1.11674 -0.0133998 3.66735e-22)
(1.11754 -0.0128436 -1.40762e-22)
(1.11829 -0.0122575 7.85062e-22)
(1.11909 -0.0117115 -3.91519e-22)
(1.11553 -0.0209884 -2.80935e-22)
(1.1166 -0.0203559 3.49455e-22)
(1.11765 -0.0197157 -2.45812e-22)
(1.11867 -0.0190671 -7.80028e-22)
(1.11967 -0.0184096 7.47411e-23)
(1.12065 -0.0177417 -5.51092e-22)
(1.1216 -0.0170645 2.72609e-22)
(1.12253 -0.0163725 8.76376e-22)
(1.12345 -0.0156771 -1.46054e-22)
(1.12433 -0.0149452 -7.87539e-22)
(1.12528 -0.0142614 -2.39352e-22)
(1.12122 -0.0250157 8.25383e-23)
(1.12242 -0.0242484 -2.6256e-22)
(1.1236 -0.0234715 7.81337e-22)
(1.12477 -0.0226842 3.61554e-22)
(1.12591 -0.0218858 1.56495e-22)
(1.12702 -0.0210747 2.4864e-22)
(1.12812 -0.0202521 -6.62045e-22)
(1.12919 -0.0194116 -1.32507e-21)
(1.13026 -0.0185669 -5.55005e-22)
(1.13129 -0.0176787 4.82142e-23)
(1.13243 -0.0168464 1.37309e-22)
(1.12756 -0.0292113 4.98937e-22)
(1.12892 -0.0283 3.77167e-22)
(1.13026 -0.0273769 4.39178e-22)
(1.13158 -0.0264411 -9.21051e-22)
(1.13289 -0.0254918 1.0547e-21)
(1.13417 -0.024527 -2.9657e-22)
(1.13543 -0.0235485 1.01801e-21)
(1.13667 -0.0225486 -5.42936e-22)
(1.13791 -0.0215435 8.6672e-22)
(1.13911 -0.0204873 1.16875e-21)
(1.14046 -0.0194949 4.4766e-22)
(1.13451 -0.0336051 3.9784e-22)
(1.13605 -0.0325397 2.64005e-23)
(1.13757 -0.0314602 -1.36541e-21)
(1.13907 -0.0303651 4.73247e-22)
(1.14056 -0.029254 -2.2687e-22)
(1.14203 -0.0281244 -1.39058e-22)
(1.14348 -0.0269785 7.56709e-22)
(1.14491 -0.0258074 -6.23678e-23)
(1.14636 -0.02463 -8.25874e-22)
(1.14774 -0.0233932 -1.66947e-21)
(1.14935 -0.0222284 1.43052e-22)
(1.14202 -0.0382216 -6.82493e-22)
(1.14376 -0.0369918 2.16219e-22)
(1.14548 -0.035745 1.61658e-21)
(1.14719 -0.0344799 1.00035e-21)
(1.14888 -0.0331958 -1.20001e-21)
(1.15056 -0.0318899 -5.37741e-22)
(1.15223 -0.030565 -5.89551e-22)
(1.15387 -0.0292106 3.34477e-22)
(1.15554 -0.0278489 6.36108e-22)
(1.15715 -0.0264187 9.74938e-22)
(1.15904 -0.0250694 -3.34229e-22)
(1.15005 -0.0430845 1.37041e-22)
(1.15201 -0.0416791 -1.73714e-21)
(1.15396 -0.0402538 -3.39045e-23)
(1.15589 -0.038807 -1.41036e-21)
(1.15781 -0.0373382 8.44161e-22)
(1.15972 -0.0358441 1.29696e-21)
(1.16163 -0.0343282 -1.78548e-22)
(1.16351 -0.032778 -9.52452e-22)
(1.16544 -0.0312199 -4.75499e-22)
(1.1673 -0.0295829 5.74211e-22)
(1.1695 -0.0280372 -5.16222e-22)
(1.15636 -0.0497779 8.20189e-22)
(1.15857 -0.0482078 1.1048e-21)
(1.16077 -0.0466158 -9.20946e-27)
(1.16296 -0.0450008 -1.96521e-21)
(1.16514 -0.043361 -1.06129e-21)
(1.16731 -0.0416958 -9.40525e-22)
(1.16948 -0.0400018 1.46414e-21)
(1.17165 -0.0382829 2.02198e-21)
(1.1738 -0.0365247 7.61084e-22)
(1.176 -0.0347583 9.18284e-23)
(1.17813 -0.0329015 -9.26423e-22)
(1.18069 -0.0311481 1.99694e-21)
(1.16506 -0.0553682 -5.18953e-22)
(1.16753 -0.0536035 -2.13374e-21)
(1.16999 -0.0518138 3.90853e-22)
(1.17245 -0.0499978 8.01408e-22)
(1.1749 -0.0481535 8.35316e-22)
(1.17735 -0.0462805 -1.0291e-21)
(1.1798 -0.0443747 -1.94165e-21)
(1.18225 -0.0424413 -4.48592e-22)
(1.18469 -0.040463 8.89154e-22)
(1.1872 -0.038477 1.98443e-21)
(1.18963 -0.0363875 -5.54442e-22)
(1.19257 -0.0344161 -2.73146e-21)
(1.17415 -0.0612523 1.32846e-21)
(1.1769 -0.0592812 4.18389e-22)
(1.17965 -0.0572818 8.58351e-22)
(1.1824 -0.0552528 -1.57453e-22)
(1.18514 -0.0531921 -9.69477e-22)
(1.18789 -0.0510996 8.41282e-23)
(1.19064 -0.0489702 -2.69109e-22)
(1.19341 -0.0468109 -1.72528e-21)
(1.19615 -0.0446008 -3.0368e-21)
(1.199 -0.0423844 -4.01284e-21)
(1.20176 -0.0400501 4.07838e-21)
(1.2051 -0.0378515 1.09367e-22)
(1.18361 -0.0674289 1.89997e-21)
(1.18667 -0.0652392 -7.56807e-22)
(1.18972 -0.0630181 -6.31147e-22)
(1.19278 -0.0607643 1.81272e-22)
(1.19583 -0.0584755 1.06401e-21)
(1.1989 -0.056152 1.95863e-21)
(1.20197 -0.0537878 -1.20379e-21)
(1.20507 -0.0513917 2.25472e-21)
(1.20815 -0.0489387 -8.38331e-22)
(1.21135 -0.0464821 -9.78692e-22)
(1.21446 -0.0438914 -4.48992e-21)
(1.21826 -0.0414581 -9.00667e-22)
(1.19341 -0.0738954 -1.50835e-21)
(1.19679 -0.071474 1.23056e-21)
(1.20017 -0.0690185 2.19009e-21)
(1.20355 -0.0665275 1.20346e-21)
(1.20694 -0.0639984 -6.78164e-22)
(1.21035 -0.061432 -2.94057e-21)
(1.21376 -0.0588214 4.66309e-21)
(1.21721 -0.0561779 -1.30291e-21)
(1.22065 -0.0534713 2.92209e-21)
(1.22423 -0.0507656 -2.03223e-21)
(1.22772 -0.0479082 2.99847e-21)
(1.23199 -0.0452341 2.7712e-21)
(1.20353 -0.0806373 -2.09698e-22)
(1.20725 -0.0779711 -1.59802e-21)
(1.21097 -0.0752683 -2.0736e-21)
(1.2147 -0.0725277 4.05269e-22)
(1.21844 -0.0697465 3.52695e-21)
(1.2222 -0.066926 -2.00814e-21)
(1.22597 -0.0640577 4.37579e-22)
(1.2298 -0.0611563 -6.68084e-21)
(1.2336 -0.0581852 -1.03864e-21)
(1.23759 -0.0552224 4.85166e-21)
(1.24148 -0.0520887 5.80015e-23)
(1.24625 -0.0491704 -5.51485e-21)
(1.21395 -0.087643 1.07547e-22)
(1.21802 -0.0847158 6.03488e-22)
(1.2221 -0.0817503 2.07458e-21)
(1.22619 -0.0787455 -1.61486e-21)
(1.2303 -0.0756988 -3.66907e-21)
(1.23443 -0.0726122 1.8279e-21)
(1.23858 -0.069476 1.37153e-21)
(1.24279 -0.0663078 9.68929e-21)
(1.24698 -0.063064 5.4498e-22)
(1.25139 -0.0598375 -4.65178e-21)
(1.2557 -0.0564193 8.01157e-22)
(1.26101 -0.053256 -1.09213e-21)
(1.22465 -0.0948808 -3.80831e-22)
(1.22909 -0.0916771 3.77919e-22)
(1.23354 -0.0884345 -5.18521e-22)
(1.238 -0.0851508 2.48836e-21)
(1.24248 -0.081825 6.75767e-21)
(1.247 -0.078458 6.90756e-21)
(1.25153 -0.0750429 -1.05404e-20)
(1.25615 -0.0715984 1.53601e-21)
(1.26075 -0.0680773 5.60399e-21)
(1.26561 -0.0645853 1.15296e-20)
(1.27035 -0.0608814 -1.89148e-21)
(1.27623 -0.0574773 2.86498e-21)
(1.23561 -0.102319 1.43712e-21)
(1.24043 -0.0988213 9.05336e-22)
(1.24526 -0.0952867 -3.24443e-21)
(1.2501 -0.0917102 -2.08008e-21)
(1.25497 -0.0880957 -2.63671e-21)
(1.25988 -0.0844366 4.58391e-22)
(1.26482 -0.0807347 6.22503e-21)
(1.26984 -0.077 -5.37304e-21)
(1.27487 -0.0731967 -2.86306e-21)
(1.28019 -0.069431 -1.20754e-20)
(1.28541 -0.0654474 3.51043e-21)
(1.29189 -0.0618056 1.31962e-20)
(1.24683 -0.109921 2.69515e-21)
(1.25202 -0.106105 -8.16443e-22)
(1.25724 -0.102259 1.89014e-21)
(1.26246 -0.0983706 1.08107e-21)
(1.26775 -0.0944583 -7.08314e-21)
(1.27306 -0.0904982 -1.32483e-20)
(1.27845 -0.0865174 9.3988e-21)
(1.28389 -0.082487 8.01816e-22)
(1.2894 -0.0784142 -5.50447e-21)
(1.29515 -0.0743545 1.15128e-20)
(1.30088 -0.0701021 6.14951e-21)
(1.30791 -0.0661957 -3.65147e-21)
(1.25831 -0.117635 -8.88261e-22)
(1.26388 -0.113482 -1.67754e-21)
(1.2695 -0.109305 -1.21311e-21)
(1.27511 -0.105084 -2.15875e-21)
(1.28082 -0.100857 -4.26568e-21)
(1.2865 -0.0965705 6.27837e-21)
(1.29238 -0.0923119 -1.68721e-20)
(1.29821 -0.0879698 -9.60046e-21)
(1.30431 -0.0836677 5.03504e-21)
(1.3104 -0.0792891 -1.16811e-20)
(1.31672 -0.0748143 -1.25662e-20)
(1.32401 -0.070559 -1.64993e-20)
(1.27007 -0.125407 -4.56957e-21)
(1.27604 -0.120899 3.26746e-21)
(1.28209 -0.116383 3.21112e-21)
(1.28809 -0.111822 -1.92839e-21)
(1.29428 -0.107279 2.29183e-21)
(1.30029 -0.102645 8.31853e-21)
(1.3067 -0.0980941 2.43742e-20)
(1.31271 -0.0933708 2.04391e-20)
(1.31944 -0.0888432 -1.34326e-20)
(1.3255 -0.0840438 9.68201e-21)
(1.33252 -0.079423 1.7793e-21)
(1.3393 -0.0746355 1.18279e-20)
(1.28218 -0.133162 1.67102e-21)
(1.28854 -0.128271 -7.38538e-21)
(1.29503 -0.123391 -1.23177e-20)
(1.30141 -0.118484 -8.30518e-21)
(1.30809 -0.113626 2.25676e-20)
(1.31439 -0.108662 -1.00817e-20)
(1.32139 -0.103841 -1.93421e-20)
(1.32728 -0.0986983 -1.18425e-20)
(1.3346 -0.0939319 5.17881e-21)
(1.33966 -0.0884901 2.64774e-21)
(1.34729 -0.0837369 -1.11454e-20)
(1.35177 -0.0780061 -1.07057e-20)
(1.29474 -0.140844 4.33269e-22)
(1.30149 -0.135529 1.56932e-21)
(1.30833 -0.130226 7.57425e-21)
(1.31497 -0.124915 -2.04185e-22)
(1.32197 -0.119659 -8.01182e-21)
(1.32828 -0.11432 -1.33505e-20)
(1.33565 -0.109177 3.37359e-21)
(1.34091 -0.103627 -2.09372e-22)
(1.34872 -0.0986419 1.29287e-20)
(1.35139 -0.0924172 4.75748e-21)
(1.35935 -0.0875422 1.39523e-20)
(1.35818 -0.0802309 8.08539e-22)
(1.30781 -0.148341 4.90145e-21)
(1.31485 -0.142556 3.02813e-22)
(1.32189 -0.136772 2.02626e-20)
(1.3286 -0.130993 1.65979e-20)
(1.33551 -0.125211 -1.47134e-20)
(1.3413 -0.119373 6.12975e-21)
(1.34818 -0.113635 -5.18935e-21)
(1.35169 -0.107529 4.82725e-21)
(1.35893 -0.102033 -6.8656e-21)
(1.35712 -0.094946 6.70331e-21)
(1.36478 -0.0899074 -1.64572e-20)
(1.35299 -0.0804797 1.97311e-20)
(1.32108 -0.155386 -9.94901e-21)
(1.32814 -0.149049 7.34726e-21)
(1.33503 -0.142729 -1.7127e-20)
(1.34142 -0.136452 7.29982e-21)
(1.34766 -0.130118 2.74899e-20)
(1.35239 -0.123771 7.00469e-21)
(1.35755 -0.117257 1.20001e-20)
(1.35801 -0.110475 -4.32787e-21)
(1.36208 -0.103789 7.76542e-22)
(1.35255 -0.0956381 -1.20308e-20)
(1.3571 -0.0896308 2.18658e-20)
(1.32793 -0.0778365 -1.133e-20)
(1.3339 -0.161696 2.8166e-21)
(1.34044 -0.154661 -1.36269e-20)
(1.34648 -0.147681 9.4702e-22)
(1.35176 -0.140789 -2.45527e-20)
(1.35624 -0.133855 -1.59731e-20)
(1.35888 -0.126979 -8.79547e-21)
(1.36054 -0.119747 -6.37005e-23)
(1.35672 -0.112455 -7.37029e-21)
(1.35412 -0.104355 2.32489e-20)
(1.33424 -0.09551 7.23105e-21)
(1.32965 -0.0871199 -1.55791e-20)
(1.27514 -0.0736526 -5.75029e-21)
(1.34529 -0.167182 8.93993e-21)
(1.35059 -0.159274 2.6749e-21)
(1.35485 -0.151416 -1.02761e-20)
(1.3577 -0.143599 1.83308e-20)
(1.35866 -0.135721 -2.00815e-20)
(1.35682 -0.127828 -6.81035e-21)
(1.35171 -0.119554 4.06414e-21)
(1.34043 -0.111345 -2.82613e-21)
(1.32577 -0.101956 -3.0313e-20)
(1.29378 -0.0931363 -2.93106e-20)
(1.27178 -0.082212 1.0316e-20)
(1.18831 -0.0707851 -1.04847e-20)
(1.35391 -0.171274 -2.82621e-21)
(1.35704 -0.162258 -1.21101e-21)
(1.35823 -0.153202 5.57907e-21)
(1.35681 -0.144031 -1.13313e-20)
(1.35179 -0.134643 2.89061e-20)
(1.34194 -0.124964 2.23926e-20)
(1.32564 -0.114832 -1.4594e-20)
(1.30092 -0.104461 1.71017e-20)
(1.26659 -0.0932724 1.7979e-20)
(1.21689 -0.0832373 8.02758e-21)
(1.16499 -0.0709324 3.26159e-21)
(1.05865 -0.0664778 2.83939e-20)
(1.10661 -0.0011748 0)
(1.10805 -0.000811823 0)
(1.10901 -0.000416031 0)
(1.10937 5.13089e-06 0)
(1.10901 0.000445552 0)
(1.10784 0.000898226 0)
(1.10577 0.001353 0)
(1.10272 0.00179242 0)
(1.09865 0.00219241 0)
(1.09358 0.00252963 0)
(1.08756 0.00278496 0)
(1.08075 0.00294329 0)
(1.07333 0.00299802 0)
(1.06553 0.00295418 0)
(1.0576 0.00282502 0)
(1.04978 0.00262634 0)
(1.04227 0.0023756 0)
(1.03527 0.00209243 0)
(1.0289 0.001798 0)
(1.02324 0.00150805 0)
(1.01835 0.00123673 0)
(1.01419 0.000988968 0)
(1.01078 0.000774926 0)
(1.00798 0.000589495 0)
(1.00585 0.000442898 0)
(1.00409 0.000319723 0)
(1.00293 0.000233863 0)
(1.00183 0.000159665 0)
(1.00134 0.0001216 0)
(1.00053 7.83155e-05 0)
(1.10819 -0.00342906 0)
(1.10965 -0.00235047 0)
(1.11057 -0.00117262 0)
(1.11086 7.91771e-05 0)
(1.11041 0.00138905 0)
(1.10912 0.00273644 0)
(1.10691 0.00408819 0)
(1.1037 0.0053911 0)
(1.09944 0.00657506 0)
(1.09416 0.00756969 0)
(1.08795 0.0083164 0)
(1.08094 0.00877306 0)
(1.07335 0.00892328 0)
(1.06541 0.00878079 0)
(1.05737 0.00838346 0)
(1.04947 0.00778069 0)
(1.04193 0.00702787 0)
(1.03492 0.00618363 0)
(1.02856 0.00530871 0)
(1.02293 0.00444825 0)
(1.01807 0.00364397 0)
(1.01395 0.00291071 0)
(1.01058 0.00227837 0)
(1.00783 0.00173155 0)
(1.00573 0.00129993 0)
(1.00401 0.000937684 0)
(1.00286 0.00068554 0)
(1.00179 0.000467695 0)
(1.00131 0.000356081 0)
(1.00052 0.000229112 0)
(1.11116 -0.00561992 0)
(1.11265 -0.00381097 0)
(1.11352 -0.00183831 0)
(1.11368 0.000253134 0)
(1.11305 0.00243579 0)
(1.11154 0.00467556 0)
(1.10906 0.00691453 0)
(1.10552 0.00906263 0)
(1.10091 0.0110046 0)
(1.09525 0.0126235 0)
(1.08865 0.0138221 0)
(1.08128 0.0145354 0)
(1.07336 0.0147422 0)
(1.06516 0.0144673 0)
(1.05692 0.0137748 0)
(1.04889 0.0127499 0)
(1.04128 0.0114879 0)
(1.03425 0.0100862 0)
(1.02792 0.00864229 0)
(1.02234 0.00722813 0)
(1.01755 0.00591066 0)
(1.01351 0.00471332 0)
(1.01022 0.0036836 0)
(1.00754 0.00279555 0)
(1.00551 0.00209604 0)
(1.00384 0.00151017 0)
(1.00274 0.00110307 0)
(1.00171 0.00075177 0)
(1.00125 0.000571974 0)
(1.0005 0.000367608 0)
(1.11538 -0.00774742 0)
(1.11693 -0.005168 0)
(1.11772 -0.00236285 0)
(1.11769 0.000600933 0)
(1.11681 0.00368093 0)
(1.11497 0.00682839 0)
(1.1121 0.00995886 0)
(1.1081 0.0129433 0)
(1.10297 0.0156198 0)
(1.09675 0.0178251 0)
(1.0896 0.0194252 0)
(1.08171 0.0203373 0)
(1.07334 0.0205412 0)
(1.06476 0.0200788 0)
(1.05625 0.0190446 0)
(1.04805 0.0175628 0)
(1.04035 0.0157712 0)
(1.0333 0.0138053 0)
(1.02701 0.0117969 0)
(1.02151 0.00984172 0)
(1.01682 0.00802881 0)
(1.0129 0.00638831 0)
(1.00972 0.00498236 0)
(1.00714 0.00377414 0)
(1.0052 0.00282487 0)
(1.00362 0.0020322 0)
(1.00258 0.00148239 0)
(1.00161 0.00100907 0)
(1.00117 0.000766976 0)
(1.00046 0.00049241 0)
(1.12076 -0.00982354 0)
(1.12239 -0.00641634 0)
(1.12306 -0.00272249 0)
(1.12279 0.00116297 0)
(1.12158 0.0051826 0)
(1.11932 0.00927043 0)
(1.11594 0.0133111 0)
(1.11134 0.0171326 0)
(1.10553 0.020524 0)
(1.0986 0.0232745 0)
(1.09073 0.0252169 0)
(1.08217 0.0262565 0)
(1.07323 0.0263824 0)
(1.0642 0.0256611 0)
(1.05536 0.0242243 0)
(1.04694 0.0222397 0)
(1.03915 0.0198884 0)
(1.03209 0.0173443 0)
(1.02586 0.0147708 0)
(1.02047 0.0122845 0)
(1.01592 0.00999269 0)
(1.01214 0.00792978 0)
(1.0091 0.00616913 0)
(1.00666 0.00466251 0)
(1.00482 0.00348239 0)
(1.00335 0.0025006 0)
(1.00237 0.00182103 0)
(1.00148 0.00123784 0)
(1.00108 0.000939722 0)
(1.00042 0.000602624 0)
(1.12721 -0.0118753 0)
(1.12893 -0.00756356 0)
(1.12947 -0.00290515 0)
(1.12891 0.00197138 0)
(1.12728 0.00699107 0)
(1.12452 0.0120675 0)
(1.1205 0.0170491 0)
(1.11516 0.0217158 0)
(1.10851 0.0258034 0)
(1.1007 0.0290532 0)
(1.09197 0.0312683 0)
(1.08262 0.0323513 0)
(1.073 0.0323098 0)
(1.06344 0.0312448 0)
(1.05422 0.0293332 0)
(1.04558 0.0267906 0)
(1.03769 0.0238435 0)
(1.03065 0.0207033 0)
(1.0245 0.0175619 0)
(1.01925 0.0145533 0)
(1.01486 0.0117989 0)
(1.01125 0.00933454 0)
(1.00838 0.00724108 0)
(1.00609 0.00545832 0)
(1.00439 0.00406674 0)
(1.00303 0.002914 0)
(1.00214 0.00211799 0)
(1.00133 0.00143741 0)
(1.00097 0.00108973 0)
(1.00038 0.00069794 0)
(1.13467 -0.0139136 0)
(1.13651 -0.00860656 0)
(1.13689 -0.00289324 0)
(1.13598 0.00305757 0)
(1.13387 0.00915181 0)
(1.1305 0.0152777 0)
(1.12573 0.021241 0)
(1.11949 0.0267667 0)
(1.11185 0.0315316 0)
(1.103 0.0352278 0)
(1.09325 0.0376351 0)
(1.08298 0.0386638 0)
(1.0726 0.0383522 0)
(1.06245 0.0368471 0)
(1.05284 0.0343795 0)
(1.04397 0.0312179 0)
(1.03599 0.0276358 0)
(1.02899 0.0238801 0)
(1.02296 0.0201677 0)
(1.01787 0.0166459 0)
(1.01367 0.0134458 0)
(1.01026 0.0106014 0)
(1.00758 0.00819749 0)
(1.00547 0.00616119 0)
(1.00392 0.00457781 0)
(1.00269 0.00327245 0)
(1.00189 0.00237342 0)
(1.00117 0.00160795 0)
(1.00085 0.00121719 0)
(1.00033 0.000778521 0)
(1.14308 -0.0159599 0)
(1.14507 -0.00955308 0)
(1.14526 -0.0026808 0)
(1.14395 0.00444142 0)
(1.14129 0.0116989 0)
(1.13721 0.0189484 0)
(1.13156 0.0259443 0)
(1.12428 0.0323477 0)
(1.11547 0.0377695 0)
(1.10541 0.0418512 0)
(1.0945 0.0443576 0)
(1.08321 0.0452211 0)
(1.07199 0.0445245 0)
(1.06121 0.0424735 0)
(1.05118 0.0393624 0)
(1.0421 0.0355178 0)
(1.03407 0.0312607 0)
(1.02712 0.0268709 0)
(1.02124 0.0225857 0)
(1.01636 0.0185613 0)
(1.01238 0.0149333 0)
(1.00919 0.0117311 0)
(1.00672 0.00903944 0)
(1.00481 0.00677236 0)
(1.00341 0.00501686 0)
(1.00232 0.00357709 0)
(1.00162 0.00258837 0)
(1.001 0.00175028 0)
(1.00072 0.00132284 0)
(1.00028 0.000844877 0)
(1.15241 -0.0180304 0)
(1.15457 -0.0104084 0)
(1.15454 -0.00226164 0)
(1.15277 0.00614101 0)
(1.14949 0.0146635 0)
(1.1446 0.0231223 0)
(1.13794 0.0312114 0)
(1.12946 0.0385157 0)
(1.11931 0.0445701 0)
(1.10787 0.0489659 0)
(1.09565 0.051465 0)
(1.08323 0.0520385 0)
(1.07111 0.0508304 0)
(1.05968 0.0481197 0)
(1.04925 0.0442737 0)
(1.03997 0.0396814 0)
(1.03192 0.0347109 0)
(1.02508 0.0296709 0)
(1.01938 0.0248138 0)
(1.01473 0.0202992 0)
(1.011 0.0162629 0)
(1.00806 0.0127257 0)
(1.00581 0.00976939 0)
(1.00411 0.00729429 0)
(1.00288 0.00538623 0)
(1.00194 0.00382992 0)
(1.00135 0.00276454 0)
(1.00082 0.00186571 0)
(1.00059 0.00140778 0)
(1.00023 0.000897771 0)
(1.16261 -0.0201427 0)
(1.16497 -0.011181 0)
(1.1647 -0.00163791 0)
(1.16243 0.00816638 0)
(1.15844 0.0180694 0)
(1.15265 0.0278367 0)
(1.14484 0.0370896 0)
(1.13498 0.0453211 0)
(1.1233 0.0519786 0)
(1.1103 0.0566049 0)
(1.09665 0.0589755 0)
(1.083 0.0591203 0)
(1.06993 0.0572637 0)
(1.05784 0.0537732 0)
(1.04702 0.049099 0)
(1.03759 0.0436962 0)
(1.02956 0.0379776 0)
(1.02287 0.0322751 0)
(1.0174 0.0268503 0)
(1.013 0.0218609 0)
(1.00955 0.0174371 0)
(1.00688 0.0135887 0)
(1.00487 0.010391 0)
(1.00339 0.00773046 0)
(1.00234 0.00568907 0)
(1.00156 0.00403358 0)
(1.00106 0.00290414 0)
(1.00065 0.00195588 0)
(1.00046 0.00147338 0)
(1.00018 0.000938139 0)
(1.17366 -0.022312 0)
(1.17625 -0.0118823 0)
(1.17571 -0.000823271 0)
(1.17288 0.0105274 0)
(1.16813 0.0219382 0)
(1.16132 0.0331253 0)
(1.15221 0.0436228 0)
(1.14079 0.0528104 0)
(1.12738 0.060034 0)
(1.11264 0.0647932 0)
(1.09741 0.0668981 0)
(1.08246 0.0664614 0)
(1.06841 0.0638094 0)
(1.05568 0.0594147 0)
(1.0445 0.0538196 0)
(1.03497 0.0475474 0)
(1.02701 0.041051 0)
(1.02051 0.0346788 0)
(1.01531 0.0286946 0)
(1.0112 0.0232485 0)
(1.00804 0.0184598 0)
(1.00566 0.0143244 0)
(1.00391 0.0109088 0)
(1.00265 0.00808508 0)
(1.00179 0.00592912 0)
(1.00117 0.00419114 0)
(1.00078 0.00300969 0)
(1.00047 0.00202265 0)
(1.00033 0.00152118 0)
(1.00013 0.000967022 0)
(1.18551 -0.0245523 0)
(1.18834 -0.0125201 0)
(1.18752 0.000209836 0)
(1.18411 0.013235 0)
(1.17852 0.0262861 0)
(1.17059 0.0390185 0)
(1.16002 0.0508521 0)
(1.14683 0.0610264 0)
(1.13148 0.0687694 0)
(1.11482 0.073548 0)
(1.09788 0.0752334 0)
(1.08156 0.0740483 0)
(1.06651 0.0704454 0)
(1.05316 0.0650194 0)
(1.04169 0.0584137 0)
(1.03211 0.0512188 0)
(1.02429 0.0439212 0)
(1.01803 0.0368779 0)
(1.01312 0.0303473 0)
(1.00935 0.0244654 0)
(1.0065 0.0193358 0)
(1.00442 0.0149383 0)
(1.00294 0.0113281 0)
(1.00192 0.0083629 0)
(1.00124 0.00611052 0)
(1.00078 0.00430595 0)
(1.0005 0.0030839 0)
(1.00029 0.00206802 0)