/*--------------------------------*- C++ -*----------------------------------*\
  =========                 |
  \\      /  F ield         | OpenFOAM: The Open Source CFD Toolbox
   \\    /   O peration     | Website:  https://openfoam.org
    \\  /    A nd           | Version:  7
     \\/     M anipulation  |
\*---------------------------------------------------------------------------*/
FoamFile
{
    version     2.0;
    format      ascii;
    class       volVectorField;
    location    "310";
    object      U;
}
// * * * * * * * * * * * * * * * * * * * * * * * * * * * * * * * * * * * * * //

dimensions      [0 1 -1 0 0 0 0];

internalField   nonuniform List<vector> 
2125
(
(-0.0120156 0.0101654 -1.00652e-19)
(-0.00947583 0.00773094 3.63499e-20)
(0.0140236 0.00655375 3.91256e-20)
(-0.00626716 0.00531431 -2.45599e-20)
(0.0280658 0.000453437 -1.831e-20)
(-0.0022358 0.00290832 5.10977e-20)
(0.0449027 -0.0053193 -1.4361e-20)
(0.148517 -0.0130018 -8.51997e-21)
(0.00277609 0.000521147 -1.88633e-20)
(0.064815 -0.0106196 -1.11754e-19)
(0.188337 -0.0176018 1.17097e-20)
(0.370016 -0.0187334 4.0366e-20)
(0.0089197 -0.00181613 -2.05362e-20)
(0.0880289 -0.0152677 3.97317e-20)
(0.233227 -0.0204441 5.17016e-20)
(0.437609 -0.0163407 -3.72811e-20)
(0.680211 -6.51452e-05 1.38221e-20)
(0.919982 0.0240584 -8.46605e-20)
(0.0163304 -0.00404546 -2.64032e-20)
(0.114695 -0.0190412 -8.81275e-21)
(0.282978 -0.0211655 -9.34665e-20)
(0.509241 -0.010638 -1.4626e-20)
(0.763303 0.0130435 -1.65128e-21)
(0.997871 0.0422245 5.00033e-21)
(1.1752 0.067218 8.91986e-21)
(0.0251199 -0.00608132 -6.83098e-21)
(0.144874 -0.0216742 3.24163e-20)
(0.33717 -0.0194001 4.56262e-20)
(0.583509 -0.00144396 2.85399e-20)
(0.84409 0.0293634 -8.53495e-21)
(1.06847 0.0623485 -6.92766e-21)
(1.22575 0.0876663 6.87487e-20)
(1.31437 0.101512 8.86516e-21)
(0.0353702 -0.00781303 6.53397e-20)
(0.178514 -0.0228647 4.25375e-20)
(0.395168 -0.0148025 -4.30845e-20)
(0.65885 0.0112909 -8.57824e-21)
(0.920823 0.0485467 4.39765e-21)
(1.13104 0.0839996 -1.61848e-20)
(1.26738 0.108529 -3.50831e-20)
(1.3367 0.120264 -5.92072e-21)
(1.35911 0.122325 4.98746e-22)
(1.35567 0.114775 1.38745e-20)
(0.0471281 -0.00910915 7.86215e-21)
(0.21545 -0.0222891 -2.31274e-20)
(0.456141 -0.00707776 5.47239e-20)
(0.733672 0.0274913 3.56768e-20)
(0.992139 0.0702109 9.5648e-22)
(1.18531 0.106804 2.52516e-20)
(1.30079 0.129598 3.77369e-21)
(1.35271 0.138743 -2.62854e-20)
(1.36384 0.138134 2.19827e-20)
(1.35457 0.129574 -9.70902e-24)
(0.0604009 -0.00982304 -5.34935e-20)
(0.255386 -0.0196205 -1.57972e-20)
(0.519094 0.00398943 -1.43584e-20)
(0.80647 0.046978 -2.49331e-20)
(1.05708 0.0939718 5.73821e-21)
(1.23139 0.130447 1.31143e-22)
(1.32682 0.150726 1.91689e-20)
(1.36342 0.156954 -3.05604e-21)
(1.36536 0.15368 -2.26264e-20)
(1.35167 0.14411 -2.08042e-20)
(0.0751528 -0.00979915 4.31363e-21)
(0.297904 -0.01455 2.54379e-20)
(0.582925 0.018516 1.22852e-20)
(0.875915 0.0694956 -3.85235e-20)
(1.11506 0.119463 -1.98429e-21)
(1.26963 0.154673 -1.64685e-20)
(1.34632 0.171818 4.28143e-22)
(1.36971 0.174916 7.73861e-21)
(1.36431 0.16903 -8.48007e-21)
(1.34733 0.158448 2.35091e-20)
(0.091302 -0.00887967 1.0058e-20)
(0.34247 -0.00680874 -2.47823e-20)
(0.646487 0.036513 -5.85941e-20)
(0.94091 0.0947377 5.39901e-20)
(1.16581 0.146343 -4.03533e-21)
(1.30052 0.179275 1.19483e-20)
(1.3601 0.192813 -1.62401e-21)
(1.37231 0.19266 1.13659e-20)
(1.36117 0.184235 -8.67415e-22)
(1.34177 0.172629 -1.82043e-20)
(0.10872 -0.00691144 -2.04243e-20)
(0.388448 0.00381413 3.21125e-20)
(0.708652 0.0578903 2.66275e-20)
(1.00061 0.122368 -3.8339e-20)
(1.20929 0.174303 -6.31723e-21)
(1.32464 0.204082 2.43103e-21)
(1.3689 0.213668 2.41658e-20)
(1.37181 0.210209 1.21817e-21)
(1.35627 0.199325 4.66554e-21)
(1.33515 0.186667 -1.00543e-20)
(0.127233 -0.00375307 1.54896e-20)
(0.435129 0.017456 -1.39745e-20)
(0.768368 0.0824677 -1.18561e-20)
(1.0544 0.152037 2.03826e-20)
(1.24563 0.203059 7.05785e-21)
(1.34257 0.228957 5.31117e-21)
(1.37337 0.234352 -2.45734e-20)
(1.3687 0.22758 -8.39089e-21)
(1.34987 0.214316 -7.50428e-21)
(1.32757 0.200557 3.30625e-21)
(0.146623 0.000718062 -7.65593e-21)
(0.481754 0.0341719 -1.78957e-22)
(0.824695 0.10999 2.24235e-20)
(1.10188 0.183386 -8.24816e-21)
(1.27511 0.232354 -3.61858e-21)
(1.3549 0.253779 -2.38766e-21)
(1.37407 0.254836 5.9297e-21)
(1.36333 0.244773 1.02395e-20)
(1.34213 0.229198 -3.22858e-22)
(1.31907 0.214275 3.71824e-21)
(0.166635 0.00659931 5.38757e-21)
(0.52755 0.0539307 -1.5121e-21)
(0.876837 0.140145 -4.00196e-21)
(1.14285 0.216062 -3.62416e-21)
(1.29804 0.26195 3.26549e-21)
(1.36216 0.278439 2.54511e-21)
(1.37146 0.275083 -2.34776e-21)
(1.35596 0.261772 8.52604e-22)
(1.33314 0.243943 1.19515e-21)
(1.30967 0.227782 -1.58511e-21)
(0.186984 0.0139571 2.86119e-21)
(0.571757 0.0766165 8.19782e-22)
(0.924142 0.172572 -4.91496e-21)
(1.17722 0.249713 -3.92211e-21)
(1.31481 0.291624 4.09132e-21)
(1.36483 0.302835 7.99635e-22)
(1.3659 0.295048 -1.87319e-21)
(1.34681 0.278545 1.76256e-21)
(1.32298 0.258506 9.84871e-22)
(1.29941 0.241027 -1.13264e-21)
(0.20736 0.0228224 -1.12665e-21)
(0.613657 0.102034 2.28786e-21)
(0.96611 0.206881 1.50814e-20)
(1.20503 0.283994 -6.68832e-21)
(1.32579 0.321168 -3.30309e-21)
(1.36336 0.326864 -3.72266e-21)
(1.35769 0.314673 7.63332e-21)
(1.33599 0.295039 5.1259e-21)
(1.31169 0.27282 4.10611e-21)
(1.28829 0.253951 2.23722e-21)
(0.227441 0.0331883 2.27734e-20)
(0.652592 0.129918 -1.25589e-20)
(1.00238 0.242659 -1.43671e-20)
(1.22642 0.318569 1.94811e-20)
(1.33136 0.350379 1.02485e-20)
(1.35811 0.350419 -6.87519e-22)
(1.34708 0.333888 -1.27276e-20)
(1.32363 0.311186 -9.20801e-21)
(1.29928 0.286802 -9.63512e-21)
(1.27633 0.266483 5.74777e-21)
(0.2469 0.0450085 -3.07581e-20)
(0.687982 0.15994 2.89585e-20)
(1.03271 0.279479 3.32663e-20)
(1.24156 0.35311 -3.2839e-20)
(1.33191 0.37906 -1.141e-20)
(1.34941 0.373387 7.33403e-21)
(1.33426 0.352612 1.33938e-20)
(1.30976 0.326903 2.11731e-21)
(1.28576 0.30035 -3.84681e-22)
(1.26349 0.278537 -7.8705e-21)
(0.265415 0.0581978 -4.36431e-21)
(0.719337 0.191725 -4.05785e-20)
(1.05698 0.316908 -4.34804e-20)
(1.25069 0.387298 4.87935e-20)
(1.32778 0.407019 -5.54131e-21)
(1.33755 0.395651 1.02285e-20)
(1.31937 0.370753 2.0362e-21)
(1.29447 0.342108 -5.74263e-21)
(1.2711 0.31338 3.08369e-21)
(1.24959 0.290028 -4.50283e-22)
(0.282677 0.0726346 8.89919e-21)
(0.746263 0.224854 2.50434e-20)
(1.07517 0.354509 1.42454e-20)
(1.25408 0.420823 -1.12138e-20)
(1.3193 0.434062 -1.73941e-20)
(1.32277 0.417084 -1.634e-20)
(1.30255 0.388207 -3.32368e-21)
(1.2778 0.356716 8.90639e-21)
(1.25535 0.325873 -1.88519e-21)
(1.23446 0.300946 4.36703e-21)
(0.2984 0.0881634 -3.34353e-20)
(0.768463 0.258888 -3.13212e-20)
(1.08731 0.391852 -4.92976e-21)
(1.25203 0.453387 -5.59323e-21)
(1.30681 0.460001 -1.27911e-20)
(1.3053 0.437551 7.90956e-21)
(1.28391 0.404854 -1.42992e-21)
(1.25979 0.37061 -7.84634e-21)
(1.23857 0.337853 7.12186e-21)
(1.21826 0.311391 -1.05009e-20)
(0.312327 0.104598 8.073e-21)
(0.78574 0.293369 2.65053e-20)
(1.09354 0.428517 2.30278e-20)
(1.24483 0.484699 2.51008e-20)
(1.29059 0.48465 5.11795e-22)
(1.28533 0.456916 2.22563e-20)
(1.26352 0.420568 1.52366e-21)
(1.24049 0.383637 -2.68034e-20)
(1.22068 0.349156 1.93996e-20)
(1.20144 0.321008 7.20875e-21)
(0.324238 0.121727 2.15815e-20)
(0.79798 0.327838 4.81985e-20)
(1.09404 0.464094 -6.42392e-21)
(1.2328 0.514482 -3.15514e-20)
(1.27092 0.507823 1.43188e-20)
(1.26303 0.47504 -1.50341e-20)
(1.24153 0.435232 -2.03502e-20)
(1.21999 0.395747 -1.89997e-21)
(1.20164 0.359577 -1.62817e-20)
(1.18396 0.329844 6.41645e-21)
(0.333949 0.139318 1.00795e-20)
(0.805154 0.361838 7.39502e-21)
(1.08902 0.498192 6.01224e-20)
(1.21628 0.54247 1.13665e-20)
(1.24809 0.529342 -9.97495e-21)
(1.23859 0.491772 -5.17592e-21)
(1.21805 0.448699 3.1314e-20)
(1.19833 0.406834 2.61347e-20)
(1.18158 0.369045 1.31975e-20)
(1.16573 0.337732 -1.85964e-21)
(0.341322 0.157127 2.13099e-21)
(0.807304 0.394925 -4.91571e-20)
(1.07878 0.530438 -7.06339e-20)
(1.19559 0.568412 2.26399e-21)
(1.22235 0.549024 1.42487e-20)
(1.21221 0.50696 -1.97544e-20)
(1.19318 0.460848 -4.61928e-20)
(1.1755 0.41678 -1.40123e-20)
(1.1606 0.377456 -8.74618e-22)
(1.14675 0.344618 7.36384e-21)
(0.346257 0.174903 -1.74518e-20)
(0.804551 0.42667 4.40175e-20)
(1.06364 0.56049 4.24226e-20)
(1.17108 0.592071 -3.94967e-20)
(1.19396 0.566692 6.01967e-21)
(1.18404 0.520456 4.84441e-20)
(1.16698 0.471553 -1.12947e-20)
(1.15163 0.425473 9.5217e-21)
(1.13875 0.384718 -5.00112e-21)
(1.12708 0.350425 -6.80706e-21)
(0.348705 0.192389 -3.91981e-20)
(0.797098 0.456661 -6.94573e-20)
(1.044 0.588053 -1.36832e-20)
(1.14296 0.613193 2.2581e-20)
(1.16317 0.582179 2.26744e-20)
(1.15425 0.532111 -4.85273e-20)
(1.1396 0.48069 2.72339e-20)
(1.1268 0.432806 -1.52224e-20)
(1.11611 0.390737 1.28858e-20)
(1.1068 0.355093 1.80736e-22)
(0.348671 0.209327 2.98937e-20)
(0.78523 0.484506 2.09134e-21)
(1.02013 0.612871 -6.66667e-21)
(1.11154 0.631581 -2.82079e-20)
(1.13026 0.595281 1.88809e-20)
(1.12302 0.541795 3.80495e-21)
(1.11116 0.488143 -1.63089e-20)
(1.10112 0.438679 2.28946e-21)
(1.09275 0.395418 -3.92739e-21)
(1.08598 0.35855 2.85884e-21)
(0.346211 0.22546 -8.20371e-21)
(0.769255 0.509886 -1.15636e-20)
(0.992104 0.634536 2.95253e-20)
(1.07736 0.647148 1.38589e-20)
(1.09554 0.605843 -1.93536e-20)
(1.09054 0.549374 2.89875e-20)
(1.08179 0.493805 1.80989e-21)
(1.07469 0.442997 1.75661e-21)
(1.06877 0.398665 -2.31614e-21)
(1.06473 0.360707 -1.95801e-22)
(0.341406 0.240505 5.33035e-20)
(0.749367 0.532626 4.1276e-20)
(0.960318 0.652779 -2.68249e-21)
(1.04085 0.659577 -6.71628e-21)
(1.05925 0.613816 -8.02256e-21)
(1.05699 0.554747 -4.11759e-21)
(1.05165 0.497577 1.54539e-21)
(1.04762 0.445682 2.31165e-21)
(1.04427 0.400386 2.67727e-21)
(1.04311 0.361464 -9.33333e-22)
(0.334308 0.254149 4.60497e-21)
(0.72572 0.552309 7.27629e-21)
(0.925565 0.667641 -3.92025e-20)
(1.00229 0.668686 1.78576e-20)
(1.02163 0.619057 6.1165e-21)
(1.02257 0.557814 -1.43472e-20)
(1.02088 0.499373 4.63263e-21)
(1.02004 0.446663 1.1077e-21)
(1.01937 0.400516 -2.34628e-21)
(1.02137 0.360777 1.65014e-21)
(0.324993 0.266165 -2.01812e-20)
(0.698643 0.568493 -1.49094e-20)
(0.888262 0.678859 1.31364e-20)
(0.961996 0.674443 4.12081e-21)
(0.982952 0.62147 -6.83112e-21)
(0.987478 0.558483 7.18443e-21)
(0.989611 0.499104 1.40526e-21)
(0.992043 0.445851 -3.09433e-21)
(0.994338 0.398992 1.30868e-20)
(1.00019 0.358692 5.99463e-21)
(0.313681 0.276408 -1.57708e-20)
(0.668676 0.581016 4.07754e-20)
(0.848745 0.68622 -2.67194e-20)
(0.920314 0.67676 -3.43995e-21)
(0.943471 0.620971 -5.83648e-21)
(0.951888 0.556679 2.15278e-21)
(0.95796 0.496692 -4.50714e-21)
(0.963743 0.44311 2.52788e-21)
(0.969601 0.39561 8.12224e-22)
(0.980365 0.355252 -2.23182e-21)
(0.300576 0.28476 -8.94953e-22)
(0.636251 0.589732 -1.20046e-20)
(0.807422 0.689572 7.4705e-21)
(0.877586 0.675561 -4.7595e-21)
(0.903451 0.617505 1.97859e-21)
(0.91599 0.552359 3.59551e-21)
(0.92605 0.492096 1.01591e-20)
(0.935334 0.438342 -8.48891e-21)
(0.945522 0.389968 -1.6466e-20)
(0.961147 0.349727 7.85218e-21)
(0.285858 0.29105 7.25475e-22)
(0.601805 0.594513 -1.42381e-21)
(0.764715 0.688826 7.95563e-22)
(0.83416 0.670793 2.26664e-21)
(0.863158 0.611036 -7.37478e-21)
(0.879982 0.545497 -1.48211e-20)
(0.894073 0.485325 -4.17234e-21)
(0.907097 0.431687 -1.93401e-21)
(0.922059 0.382284 2.39975e-20)
(0.939461 0.338187 -4.5697e-21)
(0.269754 0.295146 -3.41569e-21)
(0.565771 0.595257 -4.86559e-21)
(0.721048 0.683937 1.54519e-21)
(0.790383 0.662426 1.18596e-21)
(0.822857 0.601543 -7.34557e-21)
(0.844084 0.536074 2.99565e-20)
(0.862296 0.476353 -2.18777e-20)
(0.879259 0.423248 2.6302e-20)
(0.898037 0.374611 -1.8374e-20)
(0.915084 0.332036 -2.48295e-20)
(0.252511 0.296946 6.41756e-22)
(0.528579 0.591901 -2.10976e-21)
(0.676843 0.674893 9.68944e-22)
(0.746599 0.650459 1.13745e-20)
(0.782813 0.589023 -5.407e-21)
(0.808523 0.524074 8.08282e-21)
(0.830932 0.465128 1.26497e-20)
(0.851854 0.412721 -6.6844e-21)
(0.873941 0.364638 -1.86274e-20)
(0.891995 0.322328 2.54513e-20)
(0.234383 0.296378 8.83374e-21)
(0.490656 0.584417 1.1374e-20)
(0.632513 0.661711 -1.15864e-20)
(0.703144 0.634917 -1.00156e-20)
(0.743292 0.573497 3.8085e-20)
(0.773519 0.509518 -3.88721e-20)
(0.800127 0.451707 4.72545e-20)
(0.824884 0.40036 -1.16905e-20)
(0.849965 0.353404 1.25772e-20)
(0.869718 0.312309 2.39675e-20)
(0.215631 0.293397 -2.91576e-21)
(0.452427 0.572815 -1.17275e-20)
(0.588464 0.644443 -8.07046e-21)
(0.660349 0.615849 -4.08548e-21)
(0.704558 0.555002 5.45309e-21)
(0.739294 0.49243 -1.07224e-20)
(0.770054 0.436097 -1.40683e-20)
(0.798515 0.386093 -3.13831e-20)
(0.826467 0.340513 3.12432e-20)
(0.848346 0.300836 -9.86674e-21)
(0.196514 0.287988 2.41663e-20)
(0.414312 0.557145 -3.21937e-21)
(0.545089 0.623166 -1.13437e-20)
(0.618533 0.59333 1.41533e-20)
(0.666866 0.533601 -2.50721e-20)
(0.706056 0.472863 6.81437e-20)
(0.74088 0.418353 -3.63743e-20)
(0.772914 0.370009 3.29761e-20)
(0.80367 0.326116 -6.03923e-20)
(0.827891 0.288046 -1.60701e-20)
(0.177295 0.280164 -7.06809e-21)
(0.376716 0.537488 2.56572e-20)
(0.502769 0.597989 5.84189e-21)
(0.578007 0.567459 -1.32873e-20)
(0.630468 0.509373 -2.29968e-20)
(0.674011 0.450882 -5.35106e-22)
(0.712776 0.398529 1.21239e-20)
(0.748245 0.352143 -2.99264e-20)
(0.781731 0.310194 1.45486e-20)
(0.808392 0.273876 1.90328e-21)
(0.158228 0.269961 -4.28612e-20)
(0.340034 0.513964 -1.0438e-20)
(0.461866 0.56905 -2.97702e-21)
(0.539069 0.538358 3.48006e-20)
(0.595602 0.482417 -3.24625e-20)
(0.64336 0.426571 -8.26523e-21)
(0.685914 0.376699 -5.13061e-21)
(0.724669 0.33256 9.33712e-21)
(0.760789 0.292791 -1.19773e-20)
(0.789915 0.258364 -1.85894e-20)
(0.139565 0.257446 3.84236e-20)
(0.304642 0.486722 -2.19108e-20)
(0.422729 0.536512 9.83134e-22)
(0.502001 0.50617 -5.30197e-20)
(0.562499 0.452854 5.74973e-20)
(0.614293 0.400029 -1.81455e-20)
(0.660457 0.35295 1.08517e-20)
(0.702331 0.311327 9.43217e-21)
(0.740968 0.273952 2.73271e-20)
(0.772531 0.241561 -1.13248e-20)
(0.121545 0.242708 -1.55904e-20)
(0.270899 0.455944 4.55825e-20)
(0.385685 0.500566 2.57033e-20)
(0.467071 0.47106 4.21814e-20)
(0.531377 0.420822 -9.67977e-21)
(0.586994 0.371374 3.94395e-21)
(0.636563 0.327381 3.15247e-20)
(0.68137 0.288529 7.07193e-21)
(0.722383 0.253744 6.84557e-22)
(0.756316 0.223535 -1.35758e-20)
(0.104397 0.22586 -3.6417e-20)
(0.23914 0.42184 -2.6327e-21)
(0.35104 0.461425 -1.51646e-20)
(0.434531 0.433215 -6.81314e-20)
(0.502441 0.386474 -6.57843e-20)
(0.561636 0.340737 1.09556e-20)
(0.61438 0.300106 -2.6954e-20)
(0.661913 0.26426 1.72607e-20)
(0.705141 0.232246 9.35281e-21)
(0.741344 0.204369 1.94036e-20)
(0.0883371 0.207036 5.37896e-20)
(0.209678 0.384649 -4.39937e-20)
(0.319079 0.419328 -2.2342e-20)
(0.404612 0.392837 3.94343e-20)
(0.475882 0.349983 4.4883e-20)
(0.538379 0.308262 -1.49235e-20)
(0.594047 0.271248 -1.96074e-21)
(0.644082 0.238624 -5.36484e-20)
(0.689347 0.20955 -3.02994e-20)
(0.727687 0.184155 1.15579e-20)
(0.0735627 0.186392 -3.06455e-20)
(0.182799 0.34463 1.28988e-20)
(0.29006 0.374531 4.74627e-20)
(0.377527 0.35015 -2.13367e-20)
(0.451875 0.311535 1.71902e-21)
(0.517372 0.274111 6.00632e-20)
(0.575688 0.240945 2.73025e-21)
(0.627986 0.211739 5.15147e-20)
(0.675094 0.185758 2.14473e-20)
(0.715411 0.162989 -3.40901e-20)
(0.0602556 0.164101 4.26206e-20)
(0.158762 0.30207 4.7482e-21)
(0.264217 0.327311 3.11143e-21)
(0.353468 0.305389 4.33555e-20)
(0.430579 0.27133 -5.75314e-21)
(0.498748 0.238453 -3.77303e-20)
(0.559421 0.209345 1.84554e-20)
(0.613725 0.183732 -2.95072e-20)
(0.662471 0.16098 -1.23046e-20)
(0.704577 0.140977 1.24173e-20)
(0.0485772 0.140353 -2.65726e-20)
(0.137796 0.257272 -5.10789e-20)
(0.241757 0.277963 1.18127e-20)
(0.332606 0.258808 -2.30979e-20)
(0.412134 0.229581 -1.39115e-20)
(0.482628 0.201472 3.37313e-20)
(0.545348 0.176603 -8.15749e-21)
(0.601389 0.154737 7.49518e-21)
(0.651555 0.135336 -9.13079e-21)
(0.695241 0.118227 1.81481e-20)
(0.0386684 0.115353 9.64753e-21)
(0.120099 0.210557 3.44339e-20)
(0.22286 0.226795 -4.78284e-20)
(0.315087 0.21067 2.25706e-20)
(0.396661 0.186512 -1.02848e-20)
(0.469115 0.163357 -2.89116e-20)
(0.533557 0.142886 2.35996e-20)
(0.591057 0.124897 4.92822e-21)
(0.642416 0.108952 -7.61544e-22)
(0.687449 0.0948513 -2.10936e-20)
(0.0306478 0.0893175 3.16424e-21)
(0.105838 0.162263 1.11141e-20)
(0.207674 0.174128 4.33085e-20)
(0.301035 0.161251 -8.3061e-21)
(0.384265 0.142355 -6.54284e-21)
(0.458297 0.12431 2.4138e-21)
(0.524124 0.108366 1.08747e-21)
(0.582796 0.0943621 8.80718e-21)
(0.635112 0.0819598 -1.15724e-20)
(0.681242 0.0709678 -7.35436e-21)
(0.0246107 0.0624733 -7.90186e-21)
(0.0951474 0.112738 -1.35266e-20)
(0.19632 0.120294 -3.36975e-20)
(0.290549 0.110833 1.69521e-20)
(0.375026 0.0973513 1.38131e-20)
(0.450243 0.0845369 5.87459e-22)
(0.517109 0.07322 -2.30599e-20)
(0.576659 0.0632847 -1.02414e-20)
(0.629693 0.0544924 8.10327e-21)
(0.676653 0.0466855 8.67629e-21)
(0.0206289 0.0350554 1.37468e-21)
(0.0881261 0.0623408 -2.83495e-21)
(0.188889 0.0656318 6.39856e-21)
(0.283703 0.0597075 -4.33009e-21)
(0.369007 0.0517473 -3.81975e-21)
(0.445005 0.0442488 -2.58884e-21)
(0.512558 0.037631 4.74879e-21)
(0.572686 0.0318228 1.80878e-20)
(0.626191 0.0266842 2.61707e-21)
(0.673701 0.0221007 -4.63658e-21)
(0.280546 0.00816975 -3.67388e-21)
(0.366247 0.00579364 3.49644e-21)
(0.44262 0.00366143 1.57691e-21)
(0.5105 0.00178581 -1.57045e-21)
(0.570902 0.000142384 -7.15346e-21)
(0.624621 -0.00130559 2.35461e-21)
(0.67236 -0.00259272 -2.20124e-21)
(1.291 0.21227 -1.83864e-22)
(1.30004 0.201099 -1.80297e-21)
(1.3084 0.189653 -3.74673e-22)
(1.31607 0.177959 -1.08897e-21)
(1.32303 0.166036 6.19529e-21)
(1.32926 0.1539 -5.87325e-21)
(1.33469 0.14155 3.71442e-21)
(1.33922 0.128975 1.52681e-20)
(1.27557 0.200768 -4.55443e-23)
(1.28423 0.190796 1.54278e-21)
(1.29234 0.180575 1.33767e-21)
(1.29988 0.170118 -6.60318e-21)
(1.30686 0.159439 2.15255e-21)
(1.31327 0.148544 -1.33095e-21)
(1.31906 0.137434 3.70303e-21)
(1.32421 0.126106 -7.23102e-21)
(1.26099 0.189229 4.92203e-22)
(1.26896 0.180348 1.12186e-21)
(1.27651 0.171248 6.41361e-22)
(1.28365 0.161943 3.25473e-21)
(1.29036 0.152441 4.31915e-21)
(1.29666 0.142748 6.28612e-21)
(1.30251 0.132863 -1.81969e-22)
(1.3079 0.122784 1.18643e-21)
(1.24773 0.178183 -1.62832e-22)
(1.25495 0.170262 -1.92579e-21)
(1.26183 0.162164 -1.78052e-21)
(1.26839 0.153899 1.30128e-21)
(1.27464 0.145473 -4.87821e-21)
(1.28058 0.136888 -1.13395e-20)
(1.28622 0.128142 5.00024e-21)
(1.29153 0.119232 6.05904e-22)
(1.23563 0.167746 2.17981e-23)
(1.24216 0.160679 9.5541e-22)
(1.24841 0.153464 2.41154e-21)
(1.25439 0.146108 9.19412e-22)
(1.26011 0.138616 -1.9376e-22)
(1.26558 0.130989 2.76039e-21)
(1.27082 0.123223 2.10683e-21)
(1.27581 0.115317 -2.39031e-21)
(1.22437 0.157793 1.64195e-24)
(1.23031 0.151504 1.01804e-21)
(1.236 0.145086 -1.74503e-21)
(1.24145 0.138543 -1.32486e-21)
(1.24668 0.131879 8.42918e-22)
(1.25168 0.125094 1.84209e-21)
(1.25648 0.118188 -3.2273e-21)
(1.26107 0.111155 -1.53623e-21)
(1.21383 0.148253 9.89549e-23)
(1.21923 0.142677 -1.05844e-21)
(1.22442 0.136987 1.56899e-21)
(1.2294 0.131187 9.94548e-22)
(1.23418 0.125279 1.92707e-21)
(1.23875 0.119264 -7.98244e-22)
(1.24315 0.113142 -5.24844e-21)
(1.24735 0.106909 3.48267e-21)
(1.20385 0.139165 -2.34352e-22)
(1.20877 0.134221 -4.72624e-22)
(1.21351 0.129184 -5.19802e-22)
(1.21807 0.124055 -5.87087e-22)
(1.22246 0.118836 3.42972e-22)
(1.22666 0.113526 2.15906e-21)
(1.23071 0.108126 5.76342e-21)
(1.23458 0.102632 1.19431e-21)
(1.19439 0.130467 1.13251e-22)
(1.19888 0.126101 -3.40433e-23)
(1.20321 0.121658 -2.10316e-22)
(1.20739 0.117139 -9.77761e-22)
(1.21142 0.112546 -1.71748e-21)
(1.2153 0.107878 -2.25783e-21)
(1.21903 0.103137 -1.50816e-21)
(1.22262 0.0983172 -2.16632e-21)
(1.18541 0.122156 7.20825e-23)
(1.18951 0.118307 8.5483e-22)
(1.19347 0.114397 7.27736e-23)
(1.1973 0.110428 7.18406e-22)
(1.20101 0.106399 4.64519e-23)
(1.20459 0.102311 -3.18999e-21)
(1.20804 0.0981637 -2.12466e-22)
(1.21137 0.0939542 1.84115e-21)
(1.17685 0.114201 -1.73959e-22)
(1.1806 0.110819 2.22914e-22)
(1.18423 0.107391 -2.39535e-22)
(1.18776 0.103916 -4.67238e-22)
(1.19117 0.100394 -6.83456e-22)
(1.19448 0.0968271 2.14589e-21)
(1.19768 0.0932138 1.02356e-21)
(1.20077 0.0895531 -1.72643e-21)
(1.16873 0.106568 5.5945e-23)
(1.17215 0.103613 -7.3087e-22)
(1.17548 0.10062 3.95143e-22)
(1.17872 0.0975901 2.81383e-23)
(1.18187 0.0945246 7.48805e-22)
(1.18493 0.0914241 -7.7659e-22)
(1.1879 0.0882892 1.02428e-21)
(1.19078 0.0851193 1.35081e-21)
(1.16101 0.0992585 3.5609e-23)
(1.16414 0.0966803 2.96933e-22)
(1.1672 0.0940741 -7.07275e-22)
(1.17018 0.0914411 -1.285e-22)
(1.17309 0.088782 -7.85508e-22)
(1.17592 0.0860975 8.51973e-22)
(1.17868 0.0833882 -3.21412e-21)
(1.18136 0.0806541 -1.93162e-21)
(1.15366 0.0922551 -8.82984e-23)
(1.15654 0.0900122 9.59582e-23)
(1.15935 0.0877489 5.80202e-22)
(1.1621 0.0854665 -3.19671e-22)
(1.16478 0.083166 1.27817e-21)
(1.16741 0.0808482 -4.49158e-22)
(1.16997 0.0785137 6.38253e-22)
(1.17247 0.0761631 1.09552e-21)
(1.14668 0.0855214 8.59666e-23)
(1.14932 0.0835768 -3.34652e-23)
(1.15191 0.0816181 -4.71567e-22)
(1.15444 0.0796466 1.07164e-21)
(1.15693 0.0776632 -6.1397e-22)
(1.15937 0.0756688 5.24829e-22)
(1.16175 0.073664 5.40067e-22)
(1.16409 0.0716496 2.17081e-22)
(1.14004 0.0790395 4.71047e-23)
(1.14247 0.0773588 7.89823e-23)
(1.14486 0.0756689 2.22506e-22)
(1.1472 0.0739708 -7.94915e-22)
(1.14951 0.0722657 -5.10757e-22)
(1.15177 0.0705544 9.62474e-23)
(1.154 0.0688376 -4.84659e-22)
(1.15618 0.067116 5.46783e-22)
(1.15833 0.0653904 -2.12002e-21)
(1.13374 0.0727869 -6.90192e-23)
(1.13598 0.0713388 -2.08938e-23)
(1.13818 0.0698851 -9.29387e-25)
(1.14036 0.0684269 5.6549e-22)
(1.1425 0.0669652 3.75482e-22)
(1.1446 0.0655006 -2.3969e-22)
(1.14668 0.0640341 -4.49787e-22)
(1.14872 0.0625664 9.72471e-23)
(1.15073 0.061098 3.27544e-22)
(1.12775 0.0667414 5.07728e-23)
(1.12982 0.0654978 -9.75993e-24)
(1.13186 0.0642513 1.91088e-22)
(1.13388 0.0630027 -1.89041e-22)
(1.13587 0.061753 -3.14484e-23)
(1.13783 0.0605029 4.99635e-22)
(1.13977 0.0592531 2.08359e-22)
(1.14168 0.0580043 -6.38148e-22)
(1.14356 0.0567572 -2.80051e-22)
(1.12209 0.0608856 -5.13851e-23)
(1.124 0.0598203 -6.39165e-23)
(1.1259 0.0587542 -3.75376e-23)
(1.12777 0.0576878 -2.91012e-23)
(1.12962 0.056622 -3.11485e-22)
(1.13145 0.0555574 3.43757e-22)
(1.13326 0.0544945 -2.33977e-22)
(1.13505 0.053434 -5.35953e-22)
(1.13681 0.0523764 7.73005e-22)
(1.11672 0.0551946 -2.51175e-23)
(1.1185 0.0542858 6.64443e-23)
(1.12027 0.0533776 -1.96883e-23)
(1.12201 0.0524702 -7.80935e-23)
(1.12374 0.0515642 9.28655e-23)
(1.12544 0.0506601 -2.31605e-22)
(1.12713 0.0497584 3.9874e-22)
(1.1288 0.0488596 3.61898e-22)
(1.13046 0.0479642 -4.90411e-23)
(1.11169 0.049647 3.73809e-23)
(1.11334 0.0488767 -4.21426e-23)
(1.11498 0.048107 -2.04003e-23)
(1.11661 0.0473385 -9.36813e-23)
(1.11822 0.0465716 3.59716e-23)
(1.11981 0.0458067 9.29817e-23)
(1.12139 0.0450443 -3.61801e-23)
(1.12295 0.0442847 -4.2835e-22)
(1.1245 0.0435283 3.0129e-22)
(1.10698 0.0442322 2.29619e-24)
(1.10852 0.0435822 -3.95418e-23)
(1.11005 0.042933 -5.05463e-23)
(1.11157 0.0422851 3.2966e-23)
(1.11307 0.0416388 1.3889e-22)
(1.11456 0.0409945 -1.35136e-22)
(1.11603 0.0403525 -2.79073e-22)
(1.11749 0.0397128 3.23913e-22)
(1.11894 0.039076 -4.75335e-22)
(1.10261 0.0389297 -2.72915e-24)
(1.10405 0.0383852 -1.23499e-23)
(1.10548 0.0378416 5.92054e-23)
(1.1069 0.0372993 -1.70428e-23)
(1.10831 0.0367583 -1.25548e-22)
(1.1097 0.036219 1.70154e-22)
(1.11107 0.0356815 -2.12532e-22)
(1.11244 0.035146 -1.23804e-22)
(1.11379 0.0346125 3.85316e-22)
(1.09861 0.0337171 -1.33688e-23)
(1.09996 0.0332662 3.34454e-23)
(1.1013 0.0328161 3.42458e-23)
(1.10263 0.0323669 -4.21751e-23)
(1.10395 0.0319188 -4.6943e-24)
(1.10525 0.031472 -1.56769e-22)
(1.10654 0.0310264 -1.2208e-23)
(1.10781 0.0305822 1.69536e-22)
(1.10908 0.0301393 -2.69047e-22)
(1.095 0.0285722 2.05923e-25)
(1.09628 0.028205 5.33846e-24)
(1.09754 0.0278384 7.36076e-25)
(1.09879 0.0274725 2.92285e-23)
(1.10003 0.0271073 1.52605e-22)
(1.10125 0.026743 -1.14043e-22)
(1.10246 0.0263794 6.82928e-23)
(1.10365 0.0260165 2.70841e-25)
(1.10483 0.0256543 -1.75791e-22)
(1.09184 0.023468 8.38069e-24)
(1.09304 0.0231765 -1.99044e-23)
(1.09424 0.0228854 5.97183e-24)
(1.09542 0.0225948 -5.29341e-23)
(1.09658 0.0223047 1.96033e-23)
(1.09773 0.0220149 3.8264e-23)
(1.09887 0.0217254 9.13366e-23)
(1.1 0.0214362 1.62311e-23)
(1.1011 0.0211472 -1.9485e-23)
(1.08916 0.0183758 7.01397e-24)
(1.0903 0.0181544 -3.5393e-24)
(1.09144 0.0179333 -1.4678e-23)
(1.09256 0.0177124 4.0419e-23)
(1.09367 0.0174917 -7.12086e-23)
(1.09476 0.0172711 5.46685e-23)
(1.09584 0.0170505 3.32974e-23)
(1.0969 0.0168297 -1.15946e-22)
(1.09794 0.0166088 -7.6396e-23)
(1.08703 0.013246 7.19657e-25)
(1.08813 0.0130901 -1.70271e-23)
(1.08921 0.0129344 5.86876e-24)
(1.09029 0.0127788 -5.03531e-23)
(1.09135 0.0126232 5.37084e-23)
(1.09239 0.0124677 7.74286e-24)
(1.09342 0.012312 3.20827e-23)
(1.09443 0.0121561 -1.1561e-22)
(1.09542 0.0119998 1.92107e-22)
(1.08551 0.0080616 1.44415e-25)
(1.08658 0.0079692 3.88745e-24)
(1.08763 0.00787672 5.16468e-24)
(1.08867 0.00778413 -1.87884e-23)
(1.08969 0.00769134 3.6441e-23)
(1.0907 0.00759831 -4.32658e-23)
(1.09169 0.00750493 5.13601e-23)
(1.09267 0.00741114 -1.94207e-23)
(1.09363 0.00731683 -4.72416e-23)
(1.08471 0.00268615 3.18903e-25)
(1.08575 0.00265834 -1.09844e-23)
(1.08678 0.00263079 2.40594e-23)
(1.08779 0.00260339 2.64296e-23)
(1.08879 0.00257604 -1.50075e-23)
(1.08978 0.00254865 2.91387e-23)
(1.09074 0.0025211 -2.9493e-23)
(1.0917 0.00249331 -8.41728e-24)
(1.09264 0.00246515 -1.78428e-23)
(0.981386 0.321022 1.4482e-21)
(1.00138 0.320103 -1.01751e-21)
(1.01951 0.320061 2.55519e-21)
(1.03769 0.319814 -4.47708e-22)
(1.05653 0.318974 -5.18888e-23)
(1.07524 0.317568 1.58726e-22)
(1.09347 0.315526 -1.08219e-21)
(1.11125 0.312738 -1.40261e-21)
(1.12863 0.309161 2.6406e-22)
(1.14553 0.304799 -5.01991e-21)
(1.1619 0.299671 -3.46562e-21)
(1.17768 0.293805 3.30072e-21)
(1.19286 0.287245 -7.1856e-21)
(1.20732 0.279998 -1.80887e-21)
(1.22152 0.272095 3.39281e-21)
(1.23542 0.26319 -4.44093e-21)
(1.24814 0.253718 7.10895e-22)
(1.25988 0.243876 3.33375e-22)
(1.27091 0.233683 1.65237e-21)
(1.28129 0.22314 2.73596e-22)
(0.994636 0.304164 -2.47224e-21)
(1.01436 0.303084 1.45994e-21)
(1.03215 0.302853 -2.82829e-21)
(1.04829 0.302553 -1.25737e-21)
(1.0648 0.30151 -1.25522e-22)
(1.08146 0.299743 -1.87334e-22)
(1.09765 0.297335 6.9966e-22)
(1.11338 0.294244 3.56205e-21)
(1.12876 0.29044 -4.42944e-21)
(1.14377 0.285952 3.09663e-21)
(1.15835 0.280826 -7.53138e-22)
(1.17247 0.275094 -3.67881e-21)
(1.1861 0.268812 2.85005e-21)
(1.19928 0.261974 -1.8776e-21)
(1.21162 0.25474 4.91959e-22)
(1.22349 0.246602 -1.12222e-21)
(1.23515 0.237964 4.68186e-21)
(1.24619 0.229061 -8.89025e-22)
(1.25656 0.219907 -1.39212e-21)
(1.26634 0.210476 1.73029e-23)
(1.00811 0.285962 -1.20233e-21)
(1.02652 0.285493 -2.04554e-21)
(1.04371 0.285058 7.53819e-22)
(1.05842 0.284399 8.66612e-22)
(1.073 0.283032 1.46502e-22)
(1.08792 0.280907 5.39495e-23)
(1.10253 0.278181 1.11083e-21)
(1.11662 0.274898 3.05642e-21)
(1.13031 0.271037 6.02685e-21)
(1.14365 0.266607 -2.91035e-22)
(1.15659 0.261645 4.98723e-21)
(1.1691 0.256179 -7.57397e-22)
(1.18113 0.250223 -7.32035e-22)
(1.19271 0.243797 2.86998e-22)
(1.2037 0.23688 -4.48511e-21)
(1.21425 0.229714 -2.78e-21)
(1.22458 0.222208 -2.01691e-21)
(1.23444 0.214377 -4.99839e-22)
(1.24376 0.206259 -1.09391e-21)
(1.25259 0.197872 -5.19056e-22)
(1.0207 0.269377 -1.91974e-21)
(1.03749 0.26898 2.38638e-21)
(1.05357 0.26815 -4.68399e-22)
(1.067 0.266983 8.14371e-24)
(1.07986 0.265269 2.15025e-22)
(1.09311 0.262914 -1.04386e-21)
(1.10624 0.260023 -9.93165e-22)
(1.11888 0.256676 -5.30501e-21)
(1.13109 0.25287 -1.80285e-21)
(1.14297 0.2486 5.24596e-21)
(1.1545 0.243886 -2.66993e-21)
(1.16563 0.238759 4.44549e-21)
(1.17634 0.233238 -3.15511e-22)
(1.18663 0.227354 -2.63671e-21)
(1.19642 0.221118 6.88414e-21)
(1.20586 0.214618 2.88878e-21)
(1.21508 0.207825 -8.18022e-22)
(1.22388 0.200755 1.10182e-21)
(1.23223 0.193444 1.73662e-21)
(1.24016 0.185915 1.98764e-22)
(1.03219 0.253471 3.12653e-21)
(1.0473 0.252805 -1.67314e-21)
(1.06205 0.251568 5.13791e-22)
(1.07427 0.249975 8.20263e-23)
(1.08567 0.247991 -2.05253e-22)
(1.09738 0.245513 4.4513e-22)
(1.1091 0.242577 -7.94294e-22)
(1.12042 0.239258 2.7354e-21)
(1.13131 0.235572 -4.18823e-21)
(1.14188 0.231514 -6.20077e-21)
(1.15213 0.227094 -1.12765e-22)
(1.16204 0.22234 -1.82573e-21)
(1.17158 0.217272 9.79748e-22)
(1.18075 0.211926 -1.04879e-21)
(1.1895 0.206303 -2.0314e-21)
(1.19793 0.200497 9.69889e-23)
(1.20619 0.194374 -5.71659e-22)
(1.21412 0.187986 -1.89463e-21)
(1.22164 0.181404 -6.75239e-22)
(1.2288 0.174656 -7.98347e-23)
(1.0425 0.237802 -7.60949e-23)
(1.05598 0.236866 9.93831e-22)
(1.06927 0.235356 2.45561e-22)
(1.08032 0.233501 -2.53926e-22)
(1.09045 0.231357 1.89183e-23)
(1.10078 0.228843 -3.81962e-22)
(1.11119 0.225946 2.0386e-21)
(1.12129 0.22272 1.66776e-21)
(1.13099 0.219195 3.5806e-21)
(1.14037 0.215373 2.06132e-21)
(1.14949 0.211258 1.46949e-21)
(1.15832 0.206871 -1.00962e-22)
(1.16684 0.202232 5.33795e-22)
(1.17505 0.197369 2.1255e-21)
(1.18297 0.192288 -1.70384e-21)
(1.19051 0.187044 -4.90239e-22)
(1.19775 0.181557 1.29346e-21)
(1.20482 0.175844 1.44831e-21)
(1.21164 0.169965 -1.02639e-21)
(1.21815 0.163947 3.92414e-23)
(1.05161 0.222442 -1.31769e-21)
(1.06355 0.221307 -7.78811e-22)
(1.07534 0.219643 8.81925e-23)
(1.08524 0.217649 -2.53976e-22)
(1.09426 0.215429 9.0529e-22)
(1.10336 0.212931 2.20738e-21)
(1.11256 0.210122 1.62983e-21)
(1.12154 0.207033 -4.68001e-21)
(1.13016 0.203697 -1.31484e-21)
(1.1385 0.200125 -1.78573e-22)
(1.14659 0.196318 4.33156e-22)
(1.15445 0.19229 -9.13236e-22)
(1.16205 0.188055 -1.44266e-21)
(1.16938 0.183626 2.87078e-21)
(1.17645 0.179019 6.0723e-22)
(1.18322 0.174223 -1.17497e-21)
(1.18975 0.169305 -1.07944e-21)
(1.19612 0.164249 4.59809e-22)
(1.20229 0.159047 1.07455e-21)
(1.20819 0.153712 -1.42382e-22)
(1.05947 0.207537 1.07875e-21)
(1.06999 0.206257 5.75721e-23)