/*--------------------------------*- C++ -*----------------------------------*\
  =========                 |
  \\      /  F ield         | OpenFOAM: The Open Source CFD Toolbox
   \\    /   O peration     | Website:  https://openfoam.org
    \\  /    A nd           | Version:  7
     \\/     M anipulation  |
\*---------------------------------------------------------------------------*/
FoamFile
{
    version     2.0;
    format      ascii;
    class       surfaceScalarField;
    location    "25";
    object      phi;
}
// * * * * * * * * * * * * * * * * * * * * * * * * * * * * * * * * * * * * * //

dimensions      [0 3 -1 0 0 0 0];

internalField   nonuniform List<scalar> 
16735
(
-4.23256e-05
4.23256e-05
1.12522e-12
-0.000145021
0.000102696
-2.58172e-12
-0.000292246
0.000147225
-1.82236e-11
-0.000468578
0.000176332
-4.01869e-11
-0.000659467
0.000190889
-7.68897e-11
-0.000852001
0.000192534
-1.28643e-10
-0.00103592
0.000183915
-1.93894e-10
-0.00120504
0.000169119
-2.72042e-10
-0.00135819
0.000153157
-3.66085e-10
0.000142408
-4.74007e-10
-0.0015006
-4.15578e-05
8.38834e-05
-0.000142029
0.000203167
-0.000285442
0.000290638
-0.00045618
0.00034707
-0.000639419
0.000374127
-0.000821881
0.000374996
-0.000992843
0.000354878
-0.00114562
0.000321897
-0.0012786
0.000286139
0.000260329
-0.00139652
-4.00339e-05
0.000123917
-0.000136081
0.000299214
-0.000271913
0.000426471
-0.000431523
0.00050668
-0.00059954
0.000542144
-0.000761958
0.000537414
-0.000907144
0.000500063
-0.00102739
0.000442141
-0.00112017
0.00037892
0.000329438
-0.00118928
-3.77763e-05
0.000161694
-0.000127253
0.00038869
-0.000251813
0.000551031
-0.000394869
0.000649736
-0.000540245
0.000687519
-0.000672851
0.000670021
-0.000779691
0.000606903
-0.000851513
0.000513962
-0.000884396
0.000411804
0.000325631
-0.000880589
-3.48161e-05
0.00019651
-0.000115646
0.00046952
-0.000225355
0.000660739
-0.000346592
0.000770974
-0.000462124
0.00080305
-0.00055544
0.000763337
-0.000611732
0.000663195
-0.00061967
0.0005219
-0.000573729
0.000365863
0.000224805
-0.000472903
-3.11903e-05
0.0002277
-0.000101385
0.000539715
-0.000192797
0.000752151
-0.000287143
0.00086532
-0.000365898
0.000881805
-0.00041081
0.000808249
-0.000404821
0.000657206
-0.000333741
0.000450821
-0.000190272
0.000222394
1.94984e-05
1.50347e-05
-2.69385e-05
0.000254639
-8.46015e-05
0.000597378
-0.00015442
0.000821969
-0.000217019
0.000927919
-0.000252369
0.000917156
-0.000240177
0.000796058
-0.000160762
0.00057779
2.64995e-06
0.000287409
0.000263929
-3.88859e-05
-0.00033816
0.000621588
-2.20996e-05
0.000276738
-6.54276e-05
0.000640706
-0.000110506
0.000867047
-0.000136722
0.000954135
-0.000122365
0.000902799
-4.48436e-05
0.000718536
0.000118664
0.000414283
0.000389378
1.66955e-05
0.000782378
-0.000431886
-0.000857408
0.00130163
-1.67075e-05
0.000293446
-4.39819e-05
0.000667981
-6.13133e-05
0.000884379
-4.67266e-05
0.000939549
2.33169e-05
0.000832755
0.000173901
0.000567952
0.000431258
0.000156925
0.000820892
-0.000372938
0.00136301
-0.000974001
-0.00155886
0.00206445
-1.07887e-05
0.000304234
-2.03599e-05
0.000677552
-7.05558e-06
0.000871075
5.25632e-05
0.00087993
0.000183976
0.000701342
0.00041489
0.000337038
0.000775162
-0.000203347
0.00129522
-0.000892994
0.00200121
-0.00167999
-0.00246192
0.00290427
-4.36226e-06
0.000308597
5.37037e-06
0.000667819
5.20987e-05
0.000824346
0.000160838
0.00077119
0.000359066
0.000503115
0.000677161
1.89434e-05
0.00114871
-0.000674899
0.00180948
-0.00155376
0.0026926
-0.00256312
-0.00358454
0.00381522
2.58031e-06
0.000306016
3.31658e-05
0.000637234
0.000116058
0.000741454
0.000277897
0.000609351
0.000548208
0.000232804
0.000960011
-0.00039286
0.00155056
-0.00126544
0.00236109
-0.00236429
0.00343281
-0.00363483
-0.00494291
0.00479117
1.00173e-05
0.000295999
6.30243e-05
0.000584227
0.000184771
0.000619708
0.000403633
0.000390488
0.000751203
-0.000114766
0.00126304
-0.000904698
0.00197979
-0.00198219
0.00294799
-0.0033325
0.00421763
-0.00490447
-0.00655072
0.00582544
1.79754e-05
0.000278024
9.49418e-05
0.00050726
0.000258213
0.000456437
0.000537993
0.000110709
0.000967977
-0.00054475
0.00158613
-0.00152285
0.002436
-0.00283207
0.00356878
-0.00446528
0.00504333
-0.00637901
-0.00841823
0.00691084
2.64583e-05
0.000251565
0.000128913
0.000404806
0.000336344
0.000249006
0.000680905
-0.000233853
0.00119848
-0.00106232
0.00192931
-0.00225368
0.00291931
-0.00382207
0.00422302
-0.00576899
0.00590712
-0.00806311
-0.0105509
0.00803982
3.54664e-05
0.000216099
0.000164898
0.000275374
0.000419047
-5.1422e-06
0.000832169
-0.000646975
0.00144249
-0.00167265
0.00229256
-0.00310375
0.0034301
-0.0049596
0.00491138
-0.00725027
0.00680795
-0.00995969
-0.0129479
0.00920493
4.49836e-05
0.000171115
0.0002028
0.000117557
0.000506063
-0.000308405
0.000991319
-0.00113223
0.0016994
-0.00238073
0.0026754
-0.00407975
0.00396864
-0.00625284
0.00563547
-0.0089171
0.00774723
-0.0120715
-0.015601
0.0104004
5.49708e-05
0.000116144
0.000242431
-6.99033e-05
0.000596926
-0.000662899
0.00115747
-0.00169278
0.00196786
-0.00319112
0.00307632
-0.00518821
0.00453448
-0.007711
0.00639784
-0.0107805
0.00872913
-0.0144027
-0.0184989
0.011627
6.53607e-05
5.07837e-05
0.000283504
-0.000288047
0.000690913
-0.00107031
0.00132919
-0.00233105
0.00224544
-0.00410737
0.00349207
-0.00643485
0.00512551
-0.00934444
0.0072037
-0.0128586
0.00976806
-0.0169671
-0.0216306
0.0128998
7.60598e-05
-2.52761e-05
0.000325629
-0.000537616
0.000787034
-0.00153171
0.00150439
-0.0030484
0.00252824
-0.00513122
0.00391615
-0.00782276
0.00573365
-0.0111619
0.00805555
-0.0151806
0.010929
-0.0198406
-0.0249265
0.0142249
8.69567e-05
-0.000112233
0.000368348
-0.000819007
0.000884099
-0.00204746
0.00168045
-0.00384476
0.00281085
-0.00626162
0.0043375
-0.0093494
0.00633542
-0.0131598
0.00890513
-0.0177503
0.0122491
-0.0231845
-0.0297937
0.0171163
9.7938e-05
-0.000210171
0.000411186
-0.00113226
0.00098087
-0.00261715
0.00185463
-0.00471852
0.00308739
-0.00749437
0.00474285
-0.0110049
0.00689767
-0.0153147
0.00965222
-0.0205048
0.0131709
-0.0267033
-0.0342707
0.017648
0.000108904
-0.000319075
0.00045372
-0.00147707
0.00107625
-0.00323967
0.00202457
-0.00566684
0.00335323
-0.00882303
0.00512366
-0.0127753
0.00740543
-0.0175964
0.0102774
-0.0233768
0.0138291
-0.030255
-0.0385288
0.0180872
0.000119779
-0.000438854
0.000495607
-0.0018529
0.00116936
-0.00391343
0.00218854
-0.00668602
0.00360556
-0.0102401
0.00547653
-0.0146463
0.00785902
-0.0199789
0.0108055
-0.0263233
0.0143477
-0.0337972
-0.0426161
0.018435
0.00013051
-0.000569364
0.000536588
-0.00225898
0.00125956
-0.0046364
0.00234536
-0.00777181
0.00384278
-0.0117375
0.00580058
-0.0166041
0.00826237
-0.0224407
0.011256
-0.0293169
0.0147724
-0.0373136
-0.0465635
0.0187198
0.00014106
-0.000710423
0.000576458
-0.00269438
0.00134634
-0.00540629
0.00249414
-0.00891961
0.00406383
-0.0133072
0.00609553
-0.0186358
0.00861843
-0.0249636
0.0116385
-0.0323369
0.015118
-0.0407932
-0.0503892
0.0189438
0.000151397
-0.00086182
0.000615033
-0.00315801
0.00142923
-0.00622048
0.00263408
-0.0101245
0.00426773
-0.0149408
0.00636084
-0.0207289
0.00892828
-0.027531
0.0119569
-0.0353656
0.0153883
-0.0442246
-0.0540978
0.0190969
0.000161484
-0.0010233
0.000652114
-0.00364864
0.00150774
-0.00707611
0.00276431
-0.011381
0.00445331
-0.0166298
0.0065953
-0.0228709
0.00919123
-0.030127
0.0122112
-0.0383855
0.0155809
-0.0475943
-0.0576842
0.0191673
0.000171271
-0.00119457
0.000687462
-0.00416483
0.00158129
-0.00796994
0.00288381
-0.0126835
0.00461906
-0.0183651
0.00679707
-0.0250489
0.00940523
-0.0327351
0.0123987
-0.041379
0.0156906
-0.0508862
-0.0611375
0.0191438
0.000180688
-0.00137526
0.000720785
-0.00470493
0.00164921
-0.00889836
0.00299137
-0.0140257
0.00476317
-0.0201369
0.00696376
-0.0272495
0.00956736
-0.0353387
0.0125156
-0.0443272
0.0157118
-0.0540824
-0.0644429
0.0190173
0.00018965
-0.00156491
0.000751736
-0.00526702
0.00171071
-0.00985734
0.00308562
-0.0154006
0.00488363
-0.0219349
0.0070927
-0.0294585
0.00967435
-0.0379204
0.0125582
-0.047211
0.0156398
-0.0571641
-0.0675843
0.0187813
0.000198051
-0.00176296
0.000779916
-0.00584888
0.00176492
-0.0108423
0.00316508
-0.0168008
0.00497826
-0.0237481
0.00718113
-0.0316614
0.00972303
-0.0404623
0.0125229
-0.0500109
0.015471
-0.0601122
-0.0705455
0.0184321
0.000205772
-0.00196874
0.000804891
-0.006448
0.00181092
-0.0118484
0.00322822
-0.0182181
0.00504494
-0.0255648
0.00722644
-0.0338429
0.00971063
-0.0429465
0.0124074
-0.0527077
0.0152036
-0.0629083
-0.0733109
0.017969
0.000212684
-0.00218142
0.000826203
-0.00706152
0.00184777
-0.0128699
0.00327355
-0.0196438
0.00508165
-0.0273729
0.00722636
-0.0359876
0.00963507
-0.0453552
0.0122103
-0.055283
0.0148375
-0.0655355
-0.0758671
0.0173937
0.000218651
-0.00240007
0.000843389
-0.00768626
0.00187454
-0.0139011
0.00329963
-0.0210689
0.00508662
-0.0291599
0.00717908
-0.0380801
0.00949505
-0.0476712
0.0119315
-0.0577194
0.0143745
-0.0679785
-0.0782026
0.01671
0.000223539
-0.00262361
0.000855999
-0.00831872
0.00189036
-0.0149355
0.00330522
-0.0224838
0.00505839
-0.0309131
0.00708339
-0.0401051
0.00929019
-0.049878
0.0115721
-0.0600013
0.0138178
-0.0702242
-0.0803085
0.0159237
0.000227217
-0.00285083
0.00086361
-0.00895511
0.00189447
-0.0159663
0.00328925
-0.0238786
0.00499591
-0.0326197
0.00693869
-0.0420478
0.00902101
-0.0519603
0.0111344
-0.0621147
0.0131722
-0.072262
-0.0821782
0.0150419
0.000229561
-0.00308039
0.000865838
-0.00959139
0.00188618
-0.0169867
0.00325092
-0.0252433
0.00489854
-0.0342673
0.00674506
-0.0438944
0.00868893
-0.0539042
0.0106218
-0.0640476
0.0124433
-0.0740835
-0.0838079
0.0140729
0.000230459
-0.00331085
0.000862356
-0.0102233
0.00186498
-0.0179893
0.00318969
-0.026568
0.00476611
-0.0358438
0.00650323
-0.0456315
0.00829619
-0.0556971
0.0100386
-0.06579
0.0116377
-0.0756825
-0.0851957
0.0130255
0.000229814
-0.00354066
0.000852897
-0.0108464
0.0018305
-0.0189669
0.00310532
-0.0278428
0.00459891
-0.0373374
0.00621455
-0.0472471
0.00784577
-0.0573283
0.00938982
-0.0673341
0.0107626
-0.0770552
-0.086342
0.0119088
0.000227546
-0.00376821
0.000837263
-0.0114561
0.00178252
-0.0199121
0.00299784
-0.0290582
0.00439767
-0.0387372
0.00588095
-0.0487304
0.00734127
-0.0587887
0.00868099
-0.0686738
0.00982559
-0.0781998
-0.0872486
0.0107322
0.000223593
-0.0039918
0.000815336
-0.0120478
0.00172102
-0.0208178
0.00286762
-0.0302048
0.00416354
-0.0400331
0.00550488
-0.0500717
0.00678681
-0.0600706
0.00791811
-0.0698051
0.00883439
-0.0791161
-0.087919
0.00950481
0.000217913
-0.00420971
0.00078707
-0.012617
0.00164612
-0.0216769
0.00271527
-0.0312739
0.00389809
-0.0412159
0.00508924
-0.0512629
0.00618694
-0.0611683
0.00710739
-0.0707256
0.00779669
-0.0798054
-0.0883577
0.00823539
0.000210487
-0.0044202
0.000752505
-0.013159
0.00155813
-0.0224825
0.00254171
-0.0322575
0.00360321
-0.0422774
0.00463728
-0.0522969
0.00554646
-0.0620775
0.00625517
-0.0714343
0.00672003
-0.0802703
-0.0885701
0.00693237
0.000201317
-0.00462152
0.000711756
-0.0136694
0.00145751
-0.0232282
0.00234809
-0.0331481
0.00328111
-0.0432104
0.00415257
-0.0531684
0.0048704
-0.0627953
0.00536779
-0.0719317
0.00561174
-0.0805142
-0.0885619
0.00560359
0.000190427
-0.00481194
0.000665017
-0.014144
0.00134488
-0.0239081
0.00213578
-0.033939
0.00293425
-0.0440089
0.00363889
-0.053873
0.0041639
-0.0633203
0.00445149
-0.0722192
0.0044788
-0.0805415
-0.0883394
0.0042563
0.000177863
-0.00498981
0.000612555
-0.0145787
0.001221
-0.0245166
0.00190634
-0.0346243
0.00256532
-0.0446679
0.0031002
-0.0544079
0.0034321
-0.0636522
0.00351234
-0.0722995
0.00332778
-0.080357
-0.0879089
0.00289722
0.000163693
-0.0051535
0.000554704
-0.0149697
0.00108674
-0.0250486
0.0016615
-0.0351991
0.00217714
-0.0451835
0.00254055
-0.0547713
0.00268022
-0.0637919
0.00255629
-0.0721756
0.00216441
-0.0799651
-0.0872771
0.00153265
0.000148002
-0.0053015
0.000491859
-0.0153136
0.000943091
-0.0254998
0.00140312
-0.0356591
0.00177267
-0.0455531
0.00196407
-0.0549627
0.00191345
-0.0637413
0.00158957
-0.0718517
0.000994152
-0.0793697
-0.0864312
0.000148276
0.000130896
-0.0054324
0.000424469
-0.0156072
0.000791112
-0.0258665
0.00113316
-0.0360012
0.00135491
-0.0457748
0.00137484
-0.0549827
0.00113676
-0.0635032
0.000617845
-0.0713328
-0.000167849
-0.078584
-0.0854068
-0.00119228
0.000112495
-0.00554489
0.000353022
-0.0158477
0.000631938
-0.0261454
0.000853607
-0.0362228
0.000926901
-0.0458481
0.000776903
-0.0548327
0.000354979
-0.0630813
-0.000354853
-0.0706229
-0.00133598
-0.0776029
-0.0842028
-0.00254004
9.2933e-05
-0.00563783
0.000278045
-0.0160328
0.000466739
-0.0263341
0.000566505
-0.0363226
0.000491637
-0.0457733
0.000174263
-0.0545153
-0.000427132
-0.0624799
-0.00132222
-0.0697278
-0.00248878
-0.0764363
-0.0828174
-0.00387416
7.23574e-05
-0.00571018
0.000200084
-0.0161605
0.000296709
-0.0264307
0.000273867
-0.0362997
5.2172e-05
-0.0455516
-0.000429333
-0.0540338
-0.00120494
-0.0617043
-0.00227937
-0.0686534
-0.00362666
-0.075089
-0.0812544
-0.00518968
5.09288e-05
-0.00576111
0.000119697
-0.0162293
0.000123042
-0.026434
-2.21592e-05
-0.0361545
-0.000389006
-0.0451847
-0.00103019
-0.0533926
-0.00197403
-0.0607604
-0.00322137
-0.0674061
-0.00474478
-0.0735656
-0.0795164
-0.00648273
2.88613e-05
-0.00578997
3.74315e-05
-0.0162379
-5.31422e-05
-0.0263435
-0.000320262
-0.0358874
-0.000828981
-0.044676
-0.00162489
-0.0525967
-0.00273018
-0.0596551
-0.00414328
-0.065993
-0.00583808
-0.0718708
-0.0776049
-0.00774956
5.85475e-06
-0.00579583
-4.61978e-05
-0.0161858
-0.00023074
-0.0261589
-0.000618087
-0.0355001
-0.00126538
-0.0440287
-0.00221034
-0.0516517
-0.00346949
-0.058396
-0.00504012
-0.0644223
-0.00690115
-0.0700098
-0.0755192
-0.00898683
-1.72917e-05
-0.00577854
-0.000130608
-0.0160725
-0.000408635
-0.0258809
-0.000914214
-0.0349945
-0.00169606
-0.0432469
-0.00278386
-0.0505639
-0.0041885
-0.0569913
-0.00590709
-0.0627038
-0.00792814
-0.0679887
-0.0732559
-0.0101915
-4.06056e-05
-0.00573793
-0.000215284
-0.0158978
-0.000585863
-0.0255103
-0.00120717
-0.0343732
-0.00211915
-0.0423349
-0.00334323
-0.0493399
-0.00488433
-0.0554502
-0.00673966
-0.0608484
-0.00891198
-0.0658164
-0.0708106
-0.0113572
-6.41271e-05
-0.0056738
-0.00029977
-0.0156622
-0.000761507
-0.0250486
-0.00149564
-0.0336391
-0.0025331
-0.0412974
-0.0038868
-0.0479862
-0.00555499
-0.0537821
-0.00753347
-0.0588699
-0.00984004
-0.0635098
-0.0681725
-0.0124782
-8.76347e-05
-0.00558617
-0.000383592
-0.0153662
-0.000934708
-0.0244975
-0.00177844
-0.0327953
-0.00293663
-0.0401392
-0.00441366
-0.0465091
-0.00620017
-0.0519955
-0.00828596
-0.0567841
-0.010698
-0.0610978
-0.065302
-0.0135685
-0.000110978
-0.00547519
-0.000466295
-0.0150109
-0.00110465
-0.0238591
-0.00205449
-0.0318455
-0.00332869
-0.038865
-0.00492355
-0.0449143
-0.0068226
-0.0500965
-0.00900358
-0.0546032
-0.011427
-0.0586744
-0.0625983
-0.0141307
-0.000134016
-0.00534118
-0.00054744
-0.0145975
-0.00127053
-0.023136
-0.00232268
-0.0307933
-0.00370812
-0.0374796
-0.0054159
-0.0432065
-0.00742417
-0.0480882
-0.00970667
-0.0523207
-0.0122349
-0.0561462
-0.059803
-0.0150302
-0.000156613
-0.00518456
-0.0006266
-0.0141275
-0.00143159
-0.022331
-0.00258192
-0.029643
-0.00407349
-0.035988
-0.00588873
-0.0413912
-0.00800143
-0.0459755
-0.0103834
-0.0499387
-0.0130109
-0.0535188
-0.05693
-0.0158838
-0.000178637
-0.00500592
-0.000703365
-0.0136028
-0.00158707
-0.0214473
-0.00283114
-0.0283989
-0.0044234
-0.0343958
-0.00634006
-0.0394746
-0.00855083
-0.0437647
-0.0110256
-0.0474639
-0.0137404
-0.050804
-0.0539837
-0.0166867
-0.000199965
-0.00480596
-0.000777356
-0.0130254
-0.0017363
-0.0204884
-0.00306939
-0.0270659
-0.00475667
-0.0327085
-0.00676842
-0.0374628
-0.00907057
-0.0414626
-0.0116309
-0.0449036
-0.0144247
-0.0480101
-0.0509696
-0.0174388
-0.000220479
-0.00458548
-0.000848222
-0.0123976
-0.00187868
-0.0194579
-0.00329584
-0.0256487
-0.00507232
-0.030932
-0.00717283
-0.0353623
-0.00955977
-0.0390757
-0.0121991
-0.0422643
-0.0150654
-0.0451438
-0.0478918
-0.0181432
-0.000240075
-0.00434541
-0.000915648
-0.0117221
-0.00201365
-0.0183599
-0.00350979
-0.0241526
-0.00536959
-0.0290722
-0.00755259
-0.0331793
-0.010018
-0.0366102
-0.0127303
-0.0395519
-0.0156638
-0.0422104
-0.0447534
-0.0188022
-0.000258657
-0.00408675
-0.000979351
-0.0110014
-0.00214076
-0.0171985
-0.00371063
-0.0225827
-0.00564787
-0.027135
-0.0079072
-0.03092
-0.0104451
-0.0340724
-0.0132248
-0.0367721
-0.0162207
-0.0392146
-0.0415571
-0.019417
-0.000276136
-0.00381061
-0.00103908
-0.0102384
-0.00225957
-0.015978
-0.00389786
-0.0209444
-0.00590662
-0.0251262
-0.00823626
-0.0285903
-0.0108408
-0.0314679
-0.0136828
-0.0339302
-0.0167368
-0.0361606
-0.0383058
-0.019988
-0.000292434
-0.00351818
-0.0010946
-0.00943626
-0.00236973
-0.0147029
-0.00407101
-0.0192431
-0.0061454
-0.0230518
-0.0085394
-0.0261964
-0.0112049
-0.0288023
-0.0141041
-0.031031
-0.0172121
-0.0330526
-0.0350026
-0.0205153
-0.00030748
-0.0032107
-0.00114572
-0.00859803
-0.0024709
-0.0133777
-0.00422969
-0.0174843
-0.00636383
-0.0209177
-0.00881632
-0.0237439
-0.0115373
-0.0260813
-0.0144887
-0.0280796
-0.0176465
-0.0298948
-0.0316506
-0.0209985
-0.000321209
-0.00288949
-0.00119224
-0.00772699
-0.00256279
-0.0120071
-0.00437354
-0.0156736
-0.00656153
-0.0187297
-0.00906668
-0.0212387
-0.0118377
-0.0233103
-0.0148364
-0.0250809
-0.0180397
-0.0266916
-0.0282536
-0.0214367
-0.000333563
-0.00255593
-0.00123402
-0.00682654
-0.00264514
-0.010596
-0.00450224
-0.0138165
-0.00673818
-0.0164938
-0.00929018
-0.0186867
-0.0121058
-0.0204947
-0.0151469
-0.0220398
-0.0183911
-0.0234474
-0.0248156
-0.0218291
-0.000344489
-0.00221144
-0.00127089
-0.00590013
-0.00271772
-0.00914919
-0.00461551
-0.0119187
-0.00689347
-0.0142158
-0.00948652
-0.0160937
-0.0123413
-0.0176399
-0.0154196
-0.0189614
-0.0187002
-0.0201669
-0.0213409
-0.0221749
-0.000353942
-0.0018575
-0.00130274
-0.00495133
-0.00278031
-0.00767162
-0.00471309
-0.00998591
-0.00702712
-0.0119018
-0.00965542
-0.0134654
-0.0125438
-0.0147516
-0.0156543
-0.0158509
-0.0189665
-0.0168547
-0.0178342
-0.0224732
-0.000361881
-0.00149562
-0.00132946
-0.00398375
-0.00283276
-0.00616833
-0.00479476
-0.00802391
-0.0071389
-0.00955762
-0.00979661
-0.0108077
-0.0127131
-0.0118351
-0.0158506
-0.0127133
-0.0191893
-0.0135161
-0.0143004
-0.0227231
-0.000368274
-0.00112734
-0.00135094
-0.00300108
-0.00287489
-0.00464438
-0.00486032
-0.00603848
-0.00722859
-0.00718935
-0.00990986
-0.00812639
-0.0128489
-0.00889611
-0.0160081
-0.00955406
-0.0193682
-0.010156
-0.0107447
-0.0229239
-0.000373093
-0.000754249
-0.00136712
-0.00200705
-0.0029066
-0.0031049
-0.00490964
-0.00403544
-0.00729602
-0.00480297
-0.00999497
-0.00542743
-0.0129509
-0.00594016
-0.0161265
-0.00637848
-0.0195028
-0.00677967
-0.00717243
-0.0230751
-0.000376317
-0.000377932
-0.00137794
-0.00100543
-0.00292779
-0.00155504
-0.00494258
-0.00202066
-0.00734104
-0.00240451
-0.0100518
-0.00271667
-0.0130191
-0.00297291
-0.0162056
-0.00319198
-0.0195927
-0.00339255
-0.00358901
-0.0231761
-0.000377932
-5.38769e-13
-0.00138336
5.61834e-12
-0.0029384
9.35269e-12
-0.00495907
8.37559e-12
-0.00736358
8.54313e-12
-0.0100802
5.03968e-12
-0.0130532
-1.74927e-12
-0.0162451
-1.10001e-11
-0.0196377
-2.17299e-11
-3.29535e-11
-0.0232267
-0.000377932
0.000377932
-0.00138336
0.00100543
-0.0029384
0.00155504
-0.00495907
0.00202066
-0.00736358
0.00240451
-0.0100802
0.00271667
-0.0130532
0.00297291
-0.0162451
0.00319198
-0.0196377
0.00339255
0.00358901
-0.0232267
-0.000376317
0.000754249
-0.00137794
0.00200705
-0.00292779
0.0031049
-0.00494258
0.00403544
-0.00734104
0.00480297
-0.0100518
0.00542743
-0.0130191
0.00594016
-0.0162056
0.00637848
-0.0195927
0.00677967
0.00717243
-0.0231761
-0.000373093
0.00112734
-0.00136712
0.00300108
-0.0029066
0.00464438
-0.00490964
0.00603848
-0.00729602
0.00718935
-0.00999497
0.00812639
-0.0129509
0.00889611
-0.0161265
0.00955406
-0.0195028
0.010156
0.0107447
-0.0230751
-0.000368274
0.00149562
-0.00135094
0.00398375
-0.00287489
0.00616833
-0.00486032
0.00802391
-0.00722859
0.00955762
-0.00990986
0.0108077
-0.0128489
0.0118351
-0.0160081
0.0127133
-0.0193682
0.0135161
0.0143004
-0.0229239
-0.000361881
0.0018575
-0.00132946
0.00495133
-0.00283276
0.00767162
-0.00479476
0.00998591
-0.0071389
0.0119018
-0.00979661
0.0134654
-0.0127131
0.0147516
-0.0158506
0.0158509
-0.0191893
0.0168547
0.0178342
-0.0227231
-0.000353942
0.00221144
-0.00130274
0.00590013
-0.00278031
0.00914919
-0.00471309
0.0119187
-0.00702712
0.0142158
-0.00965542
0.0160937
-0.0125438
0.0176399
-0.0156543
0.0189614
-0.0189665
0.0201669
0.0213409
-0.0224732
-0.000344489
0.00255593
-0.00127089
0.00682654
-0.00271772
0.010596
-0.00461551
0.0138165
-0.00689347
0.0164938
-0.00948652
0.0186867
-0.0123413
0.0204947
-0.0154196
0.0220398
-0.0187002
0.0234474
0.0248156
-0.0221749
-0.000333563
0.00288949
-0.00123402
0.00772699
-0.00264514
0.0120071
-0.00450224
0.0156736
-0.00673818
0.0187297
-0.00929018
0.0212387
-0.0121058
0.0233103
-0.0151469
0.0250809
-0.0183911
0.0266916
0.0282536
-0.0218291
-0.000321209
0.0032107
-0.00119224
0.00859803
-0.00256279
0.0133777
-0.00437354
0.0174843
-0.00656153
0.0209177
-0.00906668
0.0237439
-0.0118377
0.0260813
-0.0148364
0.0280796
-0.0180397
0.0298948
0.0316506
-0.0214367
-0.00030748
0.00351818
-0.00114572
0.00943626
-0.0024709
0.0147029
-0.00422969
0.0192431
-0.00636383
0.0230518
-0.00881632
0.0261964
-0.0115373
0.0288023
-0.0144887
0.031031
-0.0176465
0.0330526
0.0350026
-0.0209985
-0.000292434
0.00381061
-0.0010946
0.0102384
-0.00236973
0.015978
-0.00407101
0.0209444
-0.0061454
0.0251262
-0.0085394
0.0285903
-0.0112049
0.0314679
-0.0141041
0.0339302
-0.0172121
0.0361606
0.0383058
-0.0205153
-0.000276136
0.00408675
-0.00103908
0.0110014
-0.00225957
0.0171985
-0.00389786
0.0225827
-0.00590662
0.027135
-0.00823626
0.03092
-0.0108408
0.0340724
-0.0136828
0.0367721
-0.0167368
0.0392146
0.0415571
-0.019988
-0.000258657
0.00434541
-0.000979351
0.0117221
-0.00214076
0.0183599
-0.00371063
0.0241526
-0.00564787
0.0290722
-0.0079072
0.0331793
-0.0104451
0.0366102
-0.0132248
0.0395519
-0.0162207
0.0422104
0.0447534
-0.019417
-0.000240075
0.00458548
-0.000915648
0.0123976
-0.00201365
0.0194579
-0.00350979
0.0256487
-0.00536959
0.030932
-0.00755259
0.0353623
-0.010018
0.0390757
-0.0127303
0.0422643
-0.0156638
0.0451438
0.0478918
-0.0188022
-0.000220479
0.00480596
-0.000848222
0.0130254
-0.00187868
0.0204884
-0.00329584
0.0270659
-0.00507232
0.0327085
-0.00717283
0.0374628
-0.00955977
0.0414626
-0.0121991
0.0449036
-0.0150654
0.0480101
0.0509696
-0.0181432
-0.000199965
0.00500592
-0.000777356
0.0136028
-0.0017363
0.0214473
-0.00306939
0.0283989
-0.00475667
0.0343958
-0.00676842
0.0394746
-0.00907057
0.0437647
-0.0116309
0.0474639
-0.0144247
0.050804
0.0539837
-0.0174388
-0.000178637
0.00518456
-0.000703365
0.0141275
-0.00158707
0.022331
-0.00283114
0.029643
-0.0044234
0.035988
-0.00634006
0.0413912
-0.00855083
0.0459755
-0.0110256
0.0499387
-0.0137404
0.0535188
0.05693
-0.0166867
-0.000156613
0.00534118
-0.0006266
0.0145975
-0.00143159
0.023136
-0.00258192
0.0307933
-0.00407349
0.0374796
-0.00588873
0.0432065
-0.00800143
0.0480882
-0.0103834
0.0523207
-0.0130109
0.0561462
0.059803
-0.0158838
-0.000134016
0.00547519
-0.00054744
0.0150109
-0.00127053
0.0238591
-0.00232268
0.0318455
-0.00370812
0.038865
-0.0054159
0.0449143
-0.00742417
0.0500965
-0.00970667
0.0546032
-0.0122349
0.0586744
0.0625983
-0.0150302
-0.000110978
0.00558617
-0.000466295
0.0153662
-0.00110465
0.0244975
-0.00205449
0.0327953
-0.00332869
0.0401392
-0.00492355
0.0465091
-0.0068226
0.0519955
-0.00900358
0.0567841
-0.011427
0.0610978
0.065302
-0.0141307
-8.76347e-05
0.0056738
-0.000383592
0.0156622
-0.000934708
0.0250486
-0.00177844
0.0336391
-0.00293663
0.0412974
-0.00441366
0.0479862
-0.00620017
0.0537821
-0.00828596
0.0588699
-0.010698
0.0635098
0.0681725
-0.0135685
-6.41271e-05
0.00573793
-0.00029977
0.0158978
-0.000761507
0.0255103
-0.00149564
0.0343732
-0.0025331
0.0423349
-0.0038868
0.0493399
-0.00555499
0.0554502
-0.00753347
0.0608484
-0.00984004
0.0658164
0.0708106
-0.0124782
-4.06056e-05
0.00577854
-0.000215284
0.0160725
-0.000585863
0.0258809
-0.00120717
0.0349945
-0.00211915
0.0432469
-0.00334323
0.0505639
-0.00488433
0.0569913
-0.00673966
0.0627038
-0.00891198
0.0679887
0.0732559
-0.0113572
-1.72916e-05
0.00579583
-0.000130608
0.0161858
-0.000408635
0.0261589
-0.000914214
0.0355001
-0.00169606
0.0440287
-0.00278386
0.0516517
-0.0041885
0.058396
-0.00590709
0.0644223
-0.00792814
0.0700098
0.0755192
-0.0101915
5.85475e-06
0.00578997
-4.61978e-05
0.0162379
-0.00023074
0.0263435
-0.000618087
0.0358874
-0.00126538
0.044676
-0.00221034
0.0525967
-0.00346949
0.0596551
-0.00504012
0.065993
-0.00690115
0.0718708
0.0776049
-0.00898683
2.88613e-05
0.00576111
3.74315e-05
0.0162293
-5.31422e-05
0.026434
-0.000320262
0.0361545
-0.000828981
0.0451847
-0.00162489
0.0533926
-0.00273018
0.0607604
-0.00414328
0.0674061
-0.00583808
0.0735656
0.0795164
-0.00774956
5.09288e-05
0.00571018
0.000119697
0.0161605
0.000123042
0.0264307
-2.21592e-05
0.0362997
-0.000389006
0.0455516
-0.00103019
0.0540338
-0.00197403
0.0617043
-0.00322137
0.0686534
-0.00474478
0.075089
0.0812544
-0.00648273
7.23574e-05
0.00563783
0.000200084
0.0160328
0.000296709
0.0263341
0.000273867
0.0363226
5.2172e-05
0.0457733
-0.000429333
0.0545153
-0.00120494
0.0624799
-0.00227937
0.0697278
-0.00362666
0.0764363
0.0828174
-0.00518968
9.2933e-05
0.00554489
0.000278045
0.0158477
0.000466739
0.0261454
0.000566505
0.0362228
0.000491637
0.0458481
0.000174263
0.0548327
-0.000427132
0.0630813
-0.00132222
0.0706229
-0.00248878
0.0776029
0.0842028
-0.00387416
0.000112495
0.0054324
0.000353022
0.0156072
0.000631938
0.0258665
0.000853607
0.0360012
0.000926901
0.0457748
0.000776903
0.0549827
0.000354979
0.0635032
-0.000354853
0.0713328
-0.00133598
0.078584
0.0854068
-0.00254004
0.000130896
0.0053015
0.000424469
0.0153136
0.000791112
0.0254998
0.00113316
0.0356591
0.00135491
0.0455531
0.00137484
0.0549627
0.00113676
0.0637413
0.000617845
0.0718517
-0.000167849
0.0793697
0.0864312
-0.00119228
0.000148002
0.0051535
0.000491859
0.0149697
0.000943091
0.0250486
0.00140312
0.0351991
0.00177267
0.0451835
0.00196407
0.0547713
0.00191345
0.0637919
0.00158957
0.0721756
0.000994152
0.0799651
0.0872771
0.000148276
0.000163693
0.00498981
0.000554704
0.0145787
0.00108674
0.0245166
0.0016615
0.0346243
0.00217714
0.0446679
0.00254055
0.0544079
0.00268022
0.0636522
0.00255629
0.0722995
0.00216441
0.080357
0.0879089
0.00153265
0.000177863
0.00481194
0.000612555
0.014144
0.001221
0.0239081
0.00190634
0.033939
0.00256532
0.0440089
0.0031002
0.053873
0.0034321
0.0633203
0.00351234
0.0722192
0.00332778
0.0805415
0.0883394
0.00289722
0.000190427
0.00462152
0.000665017
0.0136694
0.00134488
0.0232282
0.00213578
0.0331481
0.00293425
0.0432104
0.00363889
0.0531684
0.0041639
0.0627953
0.00445149
0.0719317
0.0044788
0.0805142
0.0885619
0.0042563
0.000201317
0.0044202
0.000711756
0.013159
0.00145751
0.0224825
0.00234809
0.0322575
0.00328111
0.0422774
0.00415257
0.0522969
0.0048704
0.0620775
0.00536779
0.0714343
0.00561174
0.0802703
0.0885701
0.00560359
0.000210487
0.00420971
0.000752505
0.012617
0.00155813
0.0216769
0.00254171
0.0312739
0.00360321
0.0412159
0.00463728
0.0512629
0.00554646
0.0611683
0.00625517
0.0707256
0.00672003
0.0798054
0.0883577
0.00693237
0.000217913
0.0039918
0.00078707
0.0120478
0.00164612
0.0208178
0.00271527
0.0302048
0.00389809
0.0400331
0.00508924
0.0500717
0.00618694
0.0600706
0.00710739
0.0698051
0.00779669
0.0791161
0.087919
0.00823539
0.000223593
0.00376821
0.000815336
0.0114561
0.00172102
0.0199121
0.00286762
0.0290582
0.00416354
0.0387372
0.00550488
0.0487304
0.00678681
0.0587887
0.00791811
0.0686738
0.00883439
0.0781998
0.0872486
0.00950481
0.000227546
0.00354066
0.000837263
0.0108464
0.00178252
0.0189669
0.00299784
0.0278428
0.00439767
0.0373374
0.00588095
0.0472471
0.00734127
0.0573283
0.00868099
0.0673341
0.00982559
0.0770552
0.086342
0.0107322
0.000229814
0.00331085
0.000852897
0.0102233
0.0018305
0.0179893
0.00310532
0.026568
0.00459891
0.0358438
0.00621455
0.0456315
0.00784577
0.0556971
0.00938982
0.06579
0.0107626
0.0756825
0.0851957
0.0119088
0.000230459
0.00308039
0.000862356
0.00959139
0.00186498
0.0169867
0.00318969
0.0252433
0.00476611
0.0342673
0.00650323
0.0438944
0.00829619
0.0539042
0.0100386
0.0640476
0.0116377
0.0740835
0.0838079
0.0130255
0.000229561
0.00285083
0.000865838
0.00895511
0.00188618
0.0159663
0.00325092
0.0238786
0.00489854
0.0326197
0.00674506
0.0420478
0.00868893
0.0519603
0.0106218
0.0621147
0.0124433
0.072262
0.0821782
0.0140729
0.000227217
0.00262361
0.00086361
0.00831872
0.00189447
0.0149355
0.00328925
0.0224838
0.00499591
0.0309131
0.00693869
0.0401051
0.00902101
0.049878
0.0111344
0.0600013
0.0131722
0.0702242
0.0803085
0.0150419
0.000223539
0.00240007
0.000855999
0.00768626
0.00189036
0.0139011
0.00330522
0.0210689
0.00505839
0.0291599
0.00708339
0.0380801
0.00929019
0.0476712
0.0115721
0.0577194
0.0138178
0.0679785
0.0782026
0.0159237
0.000218651
0.00218142
0.000843389
0.00706152
0.00187454
0.0128699
0.00329963
0.0196438
0.00508662
0.0273729
0.00717908
0.0359876
0.00949505
0.0453552
0.0119315
0.055283
0.0143745
0.0655355
0.0758671
0.01671
0.000212684
0.00196874
0.000826203
0.006448
0.00184777
0.0118484
0.00327355
0.0182181
0.00508165
0.0255648
0.00722636
0.0338429
0.00963507
0.0429465
0.0122103
0.0527077
0.0148375
0.0629083
0.0733109
0.0173937
0.000205772
0.00176296
0.000804891
0.00584888
0.00181092
0.0108423
0.00322822
0.0168008
0.00504494
0.0237481
0.00722644
0.0316614
0.00971063
0.0404623
0.0124074
0.0500109
0.0152036
0.0601122
0.0705455
0.017969
0.000198051
0.00156491
0.000779916
0.00526702
0.00176492
0.00985734
0.00316508
0.0154006
0.00497826
0.0219349
0.00718113
0.0294585
0.00972303
0.0379204
0.0125229
0.047211
0.015471
0.0571641
0.0675843
0.0184321
0.00018965
0.00137526
0.000751736
0.00470493
0.00171071
0.00889836
0.00308562
0.0140257
0.00488363
0.0201369
0.0070927
0.0272495
0.00967435
0.0353387
0.0125582
0.0443272
0.0156398
0.0540824
0.0644429
0.0187813
0.000180688
0.00119457
0.000720785
0.00416483
0.00164921
0.00796994
0.00299137
0.0126835