/*--------------------------------*- C++ -*----------------------------------*\
  =========                 |
  \\      /  F ield         | OpenFOAM: The Open Source CFD Toolbox
   \\    /   O peration     | Website:  https://openfoam.org
    \\  /    A nd           | Version:  7
     \\/     M anipulation  |
\*---------------------------------------------------------------------------*/
FoamFile
{
    version     2.0;
    format      ascii;
    class       volVectorField;
    location    "25";
    object      U;
}
// * * * * * * * * * * * * * * * * * * * * * * * * * * * * * * * * * * * * * //

dimensions      [0 1 -1 0 0 0 0];

internalField   nonuniform List<vector> 
8500
(
(-0.000760242 0.00060125 3.61909e-22)
(-0.0038423 0.0013099 -1.15872e-21)
(-0.00929053 0.00165786 -1.42781e-21)
(-0.0153855 0.00174084 1.49052e-21)
(-0.0213845 0.00163091 -1.43298e-21)
(-0.0267514 0.00139415 -7.92143e-22)
(-0.0311272 0.00109191 1.39431e-21)
(-0.0343767 0.000781647 1.77566e-21)
(-0.0365507 0.000510954 -2.95036e-22)
(-0.0377511 0.000323038 8.82419e-22)
(-0.000843729 0.00179045 -4.00688e-22)
(-0.00398045 0.00389775 1.37648e-21)
(-0.00936339 0.0049297 -3.42187e-21)
(-0.0153036 0.00517128 3.25832e-21)
(-0.0210709 0.00483763 1.53214e-22)
(-0.026139 0.00412612 2.58693e-21)
(-0.0301568 0.00322026 -4.63509e-21)
(-0.0329987 0.00229227 -6.94894e-21)
(-0.034724 0.00148572 -1.38077e-21)
(-0.0353887 0.000933087 3.17864e-21)
(-0.00100725 0.00294009 3.73427e-22)
(-0.00424843 0.00639045 3.03955e-21)
(-0.00949771 0.00807086 7.5485e-21)
(-0.0151266 0.00844915 -7.15944e-21)
(-0.0204293 0.00788036 -1.68389e-21)
(-0.0248993 0.00669054 -1.58472e-21)
(-0.0282014 0.00518367 8.40736e-21)
(-0.0302289 0.00364627 5.36317e-21)
(-0.0310587 0.00231976 1.31404e-21)
(-0.0306509 0.00143435 -9.85346e-21)
(-0.00124396 0.00402484 1.32492e-21)
(-0.00462969 0.00872693 -1.77767e-21)
(-0.00967071 0.0109974 -1.41139e-20)
(-0.0148276 0.0114766 1.30625e-21)
(-0.0194308 0.0106541 4.23069e-21)
(-0.0230029 0.0089804 -3.41051e-21)
(-0.0252321 0.00687704 -1.57101e-22)
(-0.0260394 0.00474378 -1.46276e-21)
(-0.0255314 0.00292254 3.38542e-21)
(-0.0235097 0.0017555 9.80729e-21)
(-0.00154383 0.00502094 9.26891e-22)
(-0.00509974 0.0108496 -5.79894e-21)
(-0.00984849 0.0136302 1.46307e-20)
(-0.0143666 0.0141614 -7.00322e-21)
(-0.0180318 0.0130603 -2.75216e-23)
(-0.020405 0.0108957 1.04284e-20)
(-0.0212047 0.00820254 -4.92413e-21)
(-0.020388 0.00549198 5.27719e-22)
(-0.0181078 0.00321279 -2.15274e-21)
(-0.0139251 0.0018527 7.74167e-22)
(-0.0018938 0.00590665 1.1159e-20)
(-0.00562646 0.0127054 1.49534e-20)
(-0.00998627 0.0158963 -4.00345e-21)
(-0.0136905 0.016419 8.02468e-21)
(-0.0161744 0.0150093 2.65644e-21)
(-0.0170457 0.0123464 -3.89708e-21)
(-0.0160599 0.00907277 -1.5777e-21)
(-0.0132159 0.00580867 -6.89319e-21)
(-0.00873011 0.00312133 1.56296e-21)
(-0.00187345 0.00175546 -9.07504e-21)
(-0.00227805 0.00666266 -1.07693e-20)
(-0.00617055 0.0142471 -7.80037e-21)
(-0.0100287 0.0177309 6.76239e-21)
(-0.0127329 0.018175 -1.22461e-20)
(-0.0137857 0.016423 1.4672e-21)
(-0.0128492 0.0132549 1.53967e-20)
(-0.00972238 0.00941417 -2.89812e-21)
(-0.00444884 0.0056286 1.90074e-20)
(0.00271211 0.00257531 -4.65506e-22)
(0.0126632 0.0013323 -7.98492e-21)
(-0.00267828 0.00727238 9.21361e-21)
(-0.00668594 0.0154335 -1.83105e-20)
(-0.00991034 0.0190783 -7.64478e-21)
(-0.0114148 0.0193661 9.29521e-21)
(-0.0107781 0.0172366 3.66331e-22)
(-0.00772379 0.0135594 -2.89814e-20)
(-0.00209865 0.00916904 -1.77821e-21)
(0.00599496 0.00489295 -1.51583e-20)
(0.0162664 0.00152166 -1.98699e-20)
(0.0298553 0.000484477 1.17418e-20)
(-0.00307395 0.00772203 -5.15665e-21)
(-0.00712033 0.0162309 2.72679e-21)
(-0.00955597 0.0198928 7.10816e-21)
(-0.00964476 0.0199423 -6.73931e-21)
(-0.00704974 0.0174015 -2.42426e-20)
(-0.00156268 0.0132162 8.5608e-21)
(0.00691714 0.0082996 1.23575e-21)
(0.0182248 0.00356774 2.28548e-20)
(0.0320233 -5.14049e-05 3.04692e-20)
(0.0497828 -0.000730765 -1.38639e-20)
(-0.00344248 0.00800075 8.32868e-21)
(-0.00741561 0.0166125 8.33379e-21)
(-0.00888132 0.0201402 -1.21182e-21)
(-0.00731942 0.0198679 3.33846e-20)
(-0.00248445 0.0168863 1.47577e-20)
(0.005757 0.0122029 1.1422e-20)
(0.0174486 0.00679455 1.65499e-20)
(0.0323607 0.00165329 -7.38912e-21)
(0.0500984 -0.00215511 -1.0182e-20)
(0.072541 -0.00229751 -1.69592e-20)
(-0.00375954 0.00810054 -6.18275e-22)
(-0.00750841 0.0165594 -1.32571e-20)
(-0.00779365 0.0197977 -9.98991e-21)
(-0.00432416 0.0191226 -1.65921e-20)
(0.00304746 0.015679 -1.35197e-20)
(0.0143735 0.0105202 1.42546e-20)
(0.0296356 0.00466962 -1.39547e-20)
(0.0485372 -0.000823536 -9.8119e-21)
(0.0706176 -0.00476665 1.33527e-21)
(0.0982438 -0.00419127 4.38566e-21)
(-0.00399903 0.00801602 -2.35165e-20)
(-0.00733069 0.0160602 1.22287e-20)
(-0.00619273 0.0188542 9.25439e-21)
(-0.000534387 0.0177017 6.56939e-21)
(0.00968798 0.0137872 -1.22787e-20)
(0.0244392 0.00819336 -1.0566e-20)
(0.0436331 0.00197054 1.57714e-20)
(0.066903 -0.00380051 -1.31833e-20)
(0.0937162 -0.00782296 -9.37618e-22)
(0.127012 -0.00635709 -1.41706e-20)
(-0.00413325 0.00774468 2.00687e-20)
(-0.00681021 0.0151114 8.91278e-21)
(-0.00397203 0.017311 4.68807e-22)
(0.0041829 0.0156165 -1.19754e-20)
(0.0175894 0.0112381 7.34292e-22)
(0.0361187 0.00527225 1.42152e-20)
(0.0596094 -0.00122501 -4.10411e-21)
(0.0876191 -0.00717443 -5.10567e-21)
(0.119538 -0.0112149 -1.15322e-20)
(0.158966 -0.00870323 2.13014e-20)
(-0.00413334 0.0072866 1.41129e-20)
(-0.0058715 0.0137169 -2.43514e-20)
(-0.00102026 0.0151812 -1.95494e-20)
(0.00996671 0.012894 8.86422e-21)
(0.0269116 0.00807841 1.84744e-20)
(0.0495859 0.00183052 1.61912e-20)
(0.0777436 -0.00480791 -1.74493e-20)
(0.110857 -0.0107983 3.4276e-20)
(0.148234 -0.0147774 -1.06358e-20)
(0.194213 -0.0110903 -2.542e-20)
(-0.00396923 0.00664444 -2.07776e-20)
(-0.00443698 0.0118885 1.36625e-20)
(0.00277646 0.0124899 -7.01696e-21)
(0.0169589 0.00957591 8.32764e-22)
(0.0378178 0.00437167 8.04859e-21)
(0.0650195 -0.00203777 -2.54466e-20)
(0.0982216 -0.00864145 2.2886e-20)
(0.136798 -0.0144823 -2.29282e-20)
(0.179961 -0.0182803 3.69135e-20)
(0.232845 -0.0133203 1.32819e-20)
(-0.00361012 0.00582371 4.70632e-21)
(-0.00242827 0.00964626 2.71696e-20)
(0.0075319 0.00927376 -7.3468e-21)
(0.0253001 0.00571787 7.45533e-21)
(0.050469 0.000196097 9.09577e-21)
(0.0825961 -0.00622351 -2.91023e-21)
(0.12123 -0.0125695 2.01133e-20)
(0.165628 -0.0180017 1.21215e-21)
(0.214894 -0.0214271 -2.33704e-20)
(0.274939 -0.0151292 3.21534e-20)
(-0.003025 0.00483307 -1.22727e-20)
(0.000232001 0.00701858 -2.60739e-20)
(0.0133564 0.00558151 2.33958e-20)
(0.0351243 0.00138841 1.23054e-20)
(0.0650165 -0.00435878 -5.76821e-20)
(0.102481 -0.0106098 4.84384e-20)
(0.146947 -0.0164297 -4.42225e-20)
(0.197531 -0.0211134 9.04078e-22)
(0.253217 -0.0238458 -1.00718e-20)
(0.320552 -0.0161233 -2.97006e-20)
(-0.00218337 0.00368473 1.10552e-20)
(0.00361803 0.00404286 -1.83228e-21)
(0.020353 0.0014738 -5.74208e-21)
(0.0465531 -0.00333169 -5.86412e-22)
(0.0815931 -0.00919529 -4.02287e-21)
(0.124817 -0.0150813 -1.51972e-20)
(0.175526 -0.0200743 6.35395e-21)
(0.23268 -0.0235799 -1.07487e-20)
(0.295097 -0.0250247 3.47134e-21)
(0.369571 -0.0155064 1.73471e-21)
(-0.00105617 0.00239484 -2.2696e-20)
(0.00779851 0.000766245 -2.00501e-21)
(0.0286133 -0.00297594 2.88711e-21)
(0.0596884 -0.00834927 1.31814e-21)
(0.100302 -0.0142099 1.91747e-20)
(0.149707 -0.0195352 -5.78398e-20)
(0.207091 -0.0234059 3.93559e-20)
(0.271281 -0.0252329 -3.0236e-20)
(0.340824 -0.0243101 2.51391e-20)
(0.421543 -0.0119397 2.66499e-20)
(0.000383258 0.000983951 -2.90732e-21)
(0.0128342 -0.00275372 1.36055e-20)
(0.0382134 -0.00768044 -1.75557e-20)
(0.0746056 -0.013557 -5.65107e-21)
(0.121203 -0.0192919 1.13288e-20)
(0.177187 -0.0238883 5.54276e-20)
(0.241691 -0.0264201 -1.11548e-20)
(0.313607 -0.026138 5.47303e-21)
(0.391477 -0.0215666 -3.0018e-20)
(0.477769 -0.00563478 1.46516e-20)
(0.00215832 -0.00052283 -8.66121e-21)
(0.0187761 -0.00644853 -7.21203e-21)
(0.0492107 -0.012537 1.99531e-21)
(0.0913479 -0.0188296 7.22035e-21)
(0.144297 -0.0243144 -2.22073e-20)
(0.207185 -0.0280599 -9.15891e-21)
(0.279146 -0.0291924 -2.95529e-20)
(0.359468 -0.02678 3.03043e-20)
(0.448212 -0.018557 3.31438e-20)
(0.54823 -0.00252384 -1.22253e-20)
(0.00428853 -0.00209587 -4.32846e-21)
(0.0256638 -0.0102386 1.80913e-20)
(0.0616427 -0.0174261 -2.04972e-20)
(0.109925 -0.0240181 -2.56734e-21)
(0.16953 -0.0291167 -1.04481e-20)
(0.239509 -0.0319131 2.29138e-20)
(0.318956 -0.0317105 2.98384e-20)
(0.407343 -0.0277872 -2.93314e-20)
(0.505405 -0.0187354 3.28261e-20)
(0.612854 -0.00950032 5.38596e-21)
(0.0067892 -0.00370147 -1.24506e-20)
(0.0335255 -0.0140339 -3.66379e-20)
(0.0755277 -0.0222118 3.69914e-20)
(0.130319 -0.0289484 5.44348e-21)
(0.196809 -0.0334931 7.96542e-21)
(0.273924 -0.0352093 5.35282e-21)
(0.360614 -0.0336604 2.32016e-20)
(0.456183 -0.0285148 1.72737e-20)
(0.561063 -0.0192732 -6.33084e-20)
(0.671631 -0.014386 -3.24385e-20)
(0.00967151 -0.00530267 -4.21743e-20)
(0.042378 -0.0177362 9.0206e-21)
(0.0908661 -0.0267448 -2.12205e-20)
(0.152489 -0.0334265 4.08792e-21)
(0.226019 -0.0372051 6.84105e-21)
(0.310205 -0.037648 -5.05153e-20)
(0.403741 -0.0346035 2.31546e-20)
(0.505525 -0.02812 -1.56472e-20)
(0.61522 -0.0182723 1.69336e-20)
(0.727052 -0.0148857 -6.74803e-21)
(0.0129426 -0.00686015 1.54631e-20)
(0.0522266 -0.0212406 1.78931e-20)
(0.107641 -0.0308666 -1.17657e-21)
(0.176375 -0.0372472 -5.91582e-21)
(0.257036 -0.0400026 6.68856e-23)
(0.348141 -0.038923 2.17857e-22)
(0.448053 -0.0341392 -3.50057e-20)
(0.555153 -0.0260294 4.87465e-21)
(0.668237 -0.0150381 4.66073e-20)
(0.780453 -0.011367 2.22048e-20)
(0.0166058 -0.00833312 -1.04743e-20)
(0.0630652 -0.0244392 -8.14903e-21)
(0.125818 -0.034415 3.62488e-20)
(0.201897 -0.0402035 8.83235e-22)
(0.289715 -0.0416404 -1.62038e-20)
(0.387519 -0.0387519 4.41034e-20)
(0.493293 -0.0319436 1.00164e-20)
(0.604871 -0.0218814 7.82318e-22)
(0.720236 -0.00927832 -2.02409e-20)
(0.832111 -0.00417849 -2.82828e-20)
(0.0206602 -0.00968004 2.2024e-20)
(0.0748754 -0.0272225 -6.51284e-21)
(0.145345 -0.0372282 -3.88662e-21)
(0.228949 -0.0420944 -1.57241e-20)
(0.323889 -0.0418899 2.60152e-20)
(0.428109 -0.0368895 -1.30969e-20)
(0.539191 -0.0277703 -1.52353e-20)
(0.654433 -0.0154599 -3.54217e-21)
(0.771113 -0.00089666 -1.19503e-20)
(0.881915 0.00631794 1.3836e-20)
(0.025101 -0.0108592 -8.17503e-21)
(0.0876264 -0.029482 -5.12579e-20)
(0.166147 -0.0391492 5.50014e-21)
(0.257402 -0.0427306 1.9335e-20)
(0.359363 -0.0405464 1.44014e-20)
(0.469652 -0.0331347 -4.89233e-20)
(0.585444 -0.021447 3.24383e-20)
(0.703542 -0.00666248 -1.51433e-20)
(0.820632 0.0100627 2.39566e-20)
(0.929603 0.0197155 6.83356e-21)
(0.0299188 -0.0118289 -8.86916e-21)
(0.101274 -0.0311118 1.82914e-20)
(0.188131 -0.0400289 2.44034e-20)
(0.287102 -0.0419393 -1.8009e-20)
(0.395913 -0.0374346 6.7954e-21)
(0.511859 -0.0273329 -4.31787e-20)
(0.631717 -0.0128693 -8.2174e-21)
(0.751852 0.00452362 7.27434e-21)
(0.868483 0.0234653 -1.8334e-20)
(0.974853 0.0356031 -1.96815e-20)
(0.0350991 -0.0125483 -1.13221e-20)
(0.115759 -0.0320103 -3.8266e-21)
(0.211181 -0.0397286 -4.40362e-20)
(0.317864 -0.0395677 -7.03454e-21)
(0.433285 -0.0324111 -6.67816e-22)
(0.554411 -0.0193761 2.66972e-21)
(0.677648 -0.00199422 4.48756e-21)
(0.798989 0.0180426 -2.32185e-20)
(0.914317 0.0391211 4.39894e-22)
(1.01733 0.0535825 1.37816e-20)
(0.0406219 -0.0129772 -2.85987e-21)
(0.131007 -0.0320811 1.50447e-20)
(0.235158 -0.038123 2.15729e-20)
(0.349479 -0.0354855 1.39109e-20)
(0.471197 -0.0253663 -4.23501e-21)
(0.596964 -0.00920169 -3.64425e-21)
(0.722853 0.0111677 3.75185e-20)
(0.844565 0.033785 5.43516e-21)
(0.957781 0.0568046 1.84523e-20)
(1.05674 0.073274 -8.21599e-21)
(0.0464613 -0.013077 2.81184e-20)
(0.146931 -0.031235 1.93115e-20)
(0.259903 -0.0351016 -2.02565e-20)
(0.381712 -0.0295875 -4.1245e-21)
(0.509343 -0.0162261 2.20976e-21)
(0.639154 0.00320907 -8.57567e-21)
(0.766938 0.0265578 -1.93865e-20)
(0.888196 0.0515991 -3.22534e-21)
(0.99854 0.0762677 1.70386e-22)
(1.09282 0.0943195 9.01866e-21)
(0.0525851 -0.012811 3.21292e-21)
(0.163425 -0.0293915 -1.05213e-20)
(0.285234 -0.0305712 2.57379e-20)
(0.414305 -0.0217948 1.7267e-20)
(0.547397 -0.00495141 4.95457e-22)
(0.680608 0.0178332 1.32932e-20)
(0.809513 0.0440754 2.01039e-21)
(0.929514 0.0712997 -1.54506e-20)
(1.0363 0.0972485 1.37034e-20)
(1.12537 0.116385 1.45554e-22)
(0.0589545 -0.0121452 -2.28461e-20)
(0.180371 -0.0264799 -7.14242e-21)
(0.310951 -0.0244578 -6.74657e-21)
(0.446982 -0.0120571 -1.20255e-20)
(0.585019 0.00846091 2.91297e-21)
(0.720947 0.0346084 7.98365e-23)
(0.850199 0.0635829 1.08124e-20)
(0.968184 0.0926756 -1.82728e-21)
(1.07079 0.119479 -1.41542e-20)
(1.15425 0.139164 -1.35649e-20)
(0.0655242 -0.0110489 1.81681e-21)
(0.197633 -0.0224416 1.13597e-20)
(0.336836 -0.0167081 5.60617e-21)
(0.47945 -0.000352921 -1.84431e-20)
(0.621864 0.0239788 -1.01082e-21)
(0.759801 0.0534356 -8.83237e-21)
(0.888639 0.084911 2.42242e-22)
(1.00391 0.115496 4.59871e-21)
(1.10182 0.14269 -5.36525e-21)
(1.17937 0.162373 1.53538e-20)
(0.0722424 -0.0094958 4.18693e-21)
(0.215064 -0.0172313 -1.09084e-20)
(0.362657 -0.00729159 -2.67224e-20)
(0.511409 0.0133088 2.57389e-20)
(0.657582 0.0415359 -2.0449e-21)
(0.796809 0.0741818 6.3659e-21)
(0.924503 0.107863 -9.64821e-22)
(1.03642 0.139518 6.85325e-21)
(1.12924 0.166618 -5.29227e-22)
(1.20071 0.18576 -1.1871e-20)
(0.0790513 -0.00746467 -8.33673e-21)
(0.232506 -0.0108192 1.39822e-20)
(0.388171 0.00379825 1.20916e-20)
(0.542551 0.0288885 -1.81857e-20)
(0.691833 0.0610322 -3.1728e-21)
(0.831632 0.0966835 1.29368e-21)
(0.957498 0.132222 1.38966e-20)
(1.06553 0.164489 7.62183e-22)
(1.15295 0.191007 2.97371e-21)
(1.2183 0.209094 -6.6264e-21)
(0.0858878 -0.00494023 6.29908e-21)
(0.24979 -0.00319194 -6.03992e-21)
(0.413126 0.0165426 -5.23185e-21)
(0.572568 0.046316 9.56886e-21)
(0.724285 0.0823365 3.54574e-21)
(0.863958 0.12075 2.86693e-21)
(0.987371 0.157751 -1.4138e-20)
(1.09107 0.190155 -5.13297e-21)
(1.1729 0.21561 -4.77374e-21)
(1.2322 0.232173 2.18548e-21)
(0.092684 -0.00191398 -3.0098e-21)
(0.266741 0.00564573 -6.39164e-23)
(0.437268 0.0308967 9.88284e-21)
(0.601157 0.0654907 -3.86269e-21)
(0.754625 0.105288 -1.79217e-21)
(0.893503 0.146168 -1.26932e-21)
(1.01391 0.184204 3.42847e-21)
(1.11292 0.216259 6.24756e-21)
(1.18909 0.240196 -1.98364e-22)
(1.24251 0.254816 2.40737e-21)
(0.0993685 0.00161515 2.09737e-21)
(0.283177 0.01567 -6.36374e-22)
(0.460342 0.0467892 -1.74385e-21)
(0.628026 0.0862828 -1.67305e-21)
(0.782562 0.129698 1.63332e-21)
(0.920021 0.172703 1.37586e-21)
(1.03695 0.211324 -1.3444e-21)
(1.13103 0.242553 5.22501e-22)
(1.20156 0.264546 7.56355e-22)
(1.24937 0.276861 -1.02044e-21)
(0.105867 0.00564019 1.07543e-21)
(0.298917 0.0268373 3.42892e-22)
(0.4821 0.0641223 -2.07461e-21)
(0.652898 0.108535 -1.7839e-21)
(0.807832 0.155355 2.01042e-21)
(0.943301 0.200107 4.19745e-22)
(1.05636 0.23885 -1.08244e-21)
(1.14538 0.268791 1.0635e-21)
(1.2104 0.288458 6.14488e-22)
(1.25294 0.298167 -7.08259e-22)
(0.112105 0.0101457 -4.38881e-22)
(0.313781 0.0390842 8.99302e-22)
(0.502301 0.0827729 6.24951e-21)
(0.675514 0.132063 -2.98738e-21)
(0.830203 0.182026 -1.64406e-21)
(0.963174 0.228119 -2.00199e-21)
(1.07207 0.266521 4.34853e-21)
(1.15597 0.29474 3.06046e-21)
(1.21569 0.311743 2.52925e-21)
(1.25337 0.318607 1.38182e-21)
(0.118005 0.0151077 8.1435e-21)
(0.327593 0.0523272 -4.79088e-21)
(0.520718 0.102593 -5.9553e-21)
(0.695641 0.15666 8.64378e-21)
(0.849475 0.209462 4.95884e-21)
(0.979508 0.25647 -3.67534e-22)
(1.08403 0.294078 -7.20652e-21)
(1.16287 0.320174 -5.50878e-21)
(1.21759 0.334226 -5.85492e-21)
(1.25084 0.338069 3.45404e-21)
(0.123495 0.0204932 -1.08693e-20)
(0.340185 0.0664634 1.0883e-20)
(0.537142 0.123412 1.3209e-20)
(0.713072 0.182099 -1.42889e-20)
(0.865485 0.237399 -5.49607e-21)
(0.992216 0.284888 3.83461e-21)
(1.09224 0.321267 7.56825e-21)
(1.16616 0.344881 1.22514e-21)
(1.21622 0.355748 -1.63925e-22)
(1.24555 0.356452 -4.56266e-21)
(0.128503 0.0262609 -1.45277e-21)
(0.3514 0.0813719 -1.49208e-20)
(0.551384 0.145038 -1.70864e-20)
(0.727632 0.208136 2.10852e-20)
(0.878108 0.265564 -2.56894e-21)
(1.00125 0.3131 5.25011e-21)
(1.09674 0.347843 1.12309e-21)
(1.16595 0.36866 -3.34052e-21)
(1.21176 0.37616 1.86624e-21)
(1.23768 0.373665 -1.01437e-22)
(0.132961 0.0323611 2.94387e-21)
(0.361096 0.0969145 8.92522e-21)
(0.563279 0.167263 5.5875e-21)
(0.739178 0.234511 -4.7085e-21)
(0.887257 0.293677 -7.89033e-21)
(1.00659 0.340835 -8.37289e-21)
(1.0976 0.373567 -1.80886e-21)
(1.16236 0.391323 4.8541e-21)
(1.20437 0.395325 -1.06905e-21)
(1.22741 0.389625 2.46314e-21)
(0.136807 0.0387363 -1.04281e-20)
(0.369146 0.112938 -1.07921e-20)
(0.572689 0.18986 -1.74148e-21)
(0.747601 0.260956 -2.17177e-21)
(0.892883 0.321457 -5.63911e-21)
(1.00827 0.367829 3.94052e-21)
(1.0949 0.398214 -7.88756e-22)
(1.15554 0.412693 -4.34844e-21)
(1.19425 0.413117 3.99292e-21)
(1.21495 0.404258 -5.20543e-21)
(0.139987 0.045322 2.97934e-21)
(0.375443 0.129276 9.05999e-21)
(0.579507 0.212594 8.39856e-21)
(0.752831 0.287196 1.0104e-20)
(0.894975 0.348624 4.07601e-22)
(1.00634 0.393825 1.06675e-20)
(1.08877 0.421571 5.99688e-22)
(1.14567 0.432609 -1.37746e-20)
(1.18155 0.429414 9.85694e-21)
(1.20041 0.417488 3.72419e-21)
(0.142452 0.0520478 6.49682e-21)
(0.3799 0.145751 1.51198e-20)
(0.583653 0.235219 -2.35117e-21)
(0.754832 0.312952 -1.23275e-20)
(0.893561 0.374901 6.33426e-21)
(1.00089 0.418577 -7.30938e-21)
(1.07935 0.44344 -9.97668e-21)
(1.1329 0.450926 -3.89337e-22)
(1.16644 0.444121 -7.53057e-21)
(1.18389 0.4292 2.68707e-21)
(0.144165 0.0588378 2.59271e-21)
(0.382453 0.162178 1.49943e-21)
(0.585083 0.257484 1.97414e-20)
(0.753604 0.337949 4.32482e-21)
(0.888703 0.400021 -3.93557e-21)
(0.99206 0.441852 -2.43511e-21)
(1.0668 0.463636 1.43072e-20)
(1.11742 0.467516 1.19658e-20)
(1.14914 0.457206 5.86562e-21)
(1.16569 0.439272 -5.6637e-22)
(0.145095 0.0656122 4.24196e-22)
(0.383062 0.178367 -1.48788e-20)
(0.583782 0.279137 -2.25136e-20)
(0.749185 0.361913 6.9402e-22)
(0.880496 0.423726 6.02585e-21)
(0.979981 0.463432 -8.24816e-21)
(1.05131 0.481988 -1.96347e-20)
(1.09944 0.482239 -5.88124e-21)
(1.12981 0.468546 -2.92549e-22)
(1.14604 0.447795 1.1484e-21)
(0.145223 0.0722886 -4.10761e-21)
(0.381711 0.194125 1.06259e-20)
(0.57977 0.299927 1.28395e-20)
(0.741648 0.38458 -1.30181e-20)
(0.86907 0.445771 2.27767e-21)
(0.96483 0.483115 1.81358e-20)
(1.03307 0.498346 -2.97146e-21)
(1.07912 0.494997 3.20996e-21)
(1.10859 0.478025 -5.89463e-22)
(1.12503 0.454673 -3.92013e-22)
(0.144543 0.078783 -7.93192e-21)
(0.378408 0.209257 -1.7141e-20)
(0.573097 0.319609 -3.88703e-21)
(0.731097 0.405696 7.11092e-21)
(0.854583 0.465928 7.28952e-21)
(0.946803 0.500715 -1.68597e-20)
(1.01229 0.512575 9.08402e-21)
(1.05667 0.505699 -2.90711e-21)
(1.08566 0.485588 1.09871e-21)
(1.10275 0.459816 6.37171e-22)
(0.143055 0.0850116 6.14283e-21)
(0.373187 0.223574 1.17979e-21)
(0.563847 0.337945 -1.36342e-21)
(0.717673 0.425021 -7.3695e-21)
(0.83722 0.483985 4.24448e-21)
(0.926117 0.516067 2.31514e-21)
(0.989199 0.524557 -2.85317e-21)
(1.03228 0.514269 2.12549e-21)
(1.06118 0.491181 1.01659e-21)
(1.07932 0.463154 -2.96204e-21)
(0.140773 0.0908921 -1.02011e-21)
(0.366104 0.23689 -7.62067e-22)
(0.552131 0.354707 5.42064e-21)
(0.701539 0.442328 3.26903e-21)
(0.817191 0.499747 -5.81423e-21)
(0.903011 0.529023 5.23732e-21)
(0.964025 0.534193 1.4668e-21)
(1.00617 0.520645 2.72049e-21)
(1.03529 0.49476 6.5514e-21)
(1.05487 0.464618 1.17573e-21)
(0.137717 0.0963419 5.32828e-21)
(0.357241 0.249032 5.65259e-21)
(0.538089 0.369683 -1.94341e-21)
(0.682888 0.457411 -5.76253e-22)
(0.794734 0.513042 -1.92932e-21)
(0.877739 0.539457 -1.0849e-21)
(0.937021 0.541403 2.63713e-21)
(0.978537 0.524788 1.4919e-23)
(1.00813 0.496297 -5.81782e-21)
(1.02947 0.464135 -7.30438e-21)
(0.133923 0.101279 -2.1907e-21)
(0.346703 0.259831 -7.91019e-22)
(0.521885 0.382677 -2.78396e-21)
(0.661939 0.470082 8.72117e-22)
(0.770101 0.523715 -3.00621e-21)
(0.85057 0.547259 6.77081e-21)
(0.908452 0.546125 -8.33567e-22)
(0.949607 0.526676 1.14147e-21)
(0.979793 0.495782 -5.51352e-21)
(1.00317 0.461622 8.68678e-21)
(0.129436 0.105633 -2.04452e-21)
(0.334608 0.269129 4.11306e-22)
(0.503707 0.393509 -1.65772e-21)
(0.638931 0.480175 -2.41246e-21)
(0.743562 0.531633 -1.84324e-21)
(0.821789 0.552338 -3.12574e-22)
(0.878599 0.548313 3.28787e-21)
(0.919619 0.526308 -1.51448e-20)
(0.9504 0.493219 3.24304e-20)
(0.976001 0.456953 1.32015e-20)
(0.12431 0.109337 4.72319e-22)
(0.321096 0.276788 -8.89284e-21)
(0.483762 0.40202 6.82968e-21)
(0.614119 0.487543 -1.37458e-21)
(0.715399 0.536682 3.41792e-21)
(0.791688 0.554622 -5.84692e-21)
(0.847758 0.547938 -1.12228e-20)
(0.88884 0.523713 5.91246e-21)
(0.920113 0.488664 -2.68777e-21)
(0.94792 0.450015 -6.45921e-21)
(0.118603 0.112329 -2.03059e-21)
(0.306323 0.282685 2.33499e-21)
(0.462275 0.408072 -4.48685e-21)
(0.587771 0.492066 4.61751e-21)
(0.685903 0.538772 8.78071e-21)
(0.760569 0.55405 5.64845e-21)
(0.816239 0.544979 1.94111e-20)
(0.857614 0.518944 -1.40937e-20)
(0.88935 0.482338 -2.80578e-20)
(0.918676 0.441212 1.15214e-20)
(0.112382 0.114556 -4.81171e-21)
(0.29046 0.286714 -4.50002e-21)
(0.439486 0.411551 1.60053e-21)
(0.560166 0.493645 1.40499e-20)
(0.655367 0.537829 -1.62622e-20)
(0.728722 0.550573 -2.22491e-20)
(0.784342 0.539393 -7.18369e-21)
(0.826378 0.511974 -9.48432e-22)
(0.859042 0.474515 3.53081e-20)
(0.887889 0.430972 -9.29238e-21)
(0.105723 0.11597 1.42978e-20)
(0.273688 0.288786 -4.93721e-22)
(0.415644 0.412366 -2.69283e-21)
(0.531589 0.492209 -1.33637e-22)
(0.624082 0.533807 -8.17832e-21)
(0.696422 0.544157 4.01238e-20)
(0.752329 0.531123 -2.76912e-20)
(0.795538 0.502557 3.47513e-20)
(0.830171 0.46471 -2.58625e-20)
(0.861114 0.421243 -3.49061e-20)
(0.098704 0.116534 -6.72594e-21)
(0.256198 0.288834 3.1149e-21)
(0.391007 0.410453 -1.26116e-21)
(0.502328 0.487714 1.33983e-20)
(0.592335 0.526686 -4.47354e-21)
(0.663924 0.534804 7.10394e-21)
(0.720381 0.520183 1.65962e-20)
(0.765028 0.490722 -9.09566e-21)
(0.801699 0.452647 -2.34668e-20)
(0.834381 0.409679 3.44067e-20)
(0.0914099 0.11622 1.34909e-20)
(0.23819 0.286811 1.90711e-20)
(0.365839 0.405774 -1.59406e-20)
(0.472676 0.480143 -1.40188e-20)
(0.560415 0.516474 4.14466e-20)
(0.631487 0.522544 -4.26866e-20)
(0.688702 0.506628 5.24777e-20)
(0.734945 0.476598 -1.42174e-20)
(0.773655 0.438602 1.59321e-20)
(0.808058 0.396474 2.9919e-20)
(0.0839284 0.11501 -6.34083e-21)
(0.219866 0.282693 -1.70871e-20)
(0.340409 0.398318 -6.94348e-21)
(0.442926 0.469507 -4.61127e-21)
(0.528609 0.503206 3.55435e-21)
(0.599374 0.507429 -1.02559e-20)
(0.657516 0.490528 -1.58062e-20)
(0.705475 0.460283 -3.52266e-20)
(0.746262 0.422734 3.65022e-20)
(0.782484 0.381769 -1.26705e-20)
(0.0763491 0.112894 2.33617e-20)
(0.201434 0.276473 -1.53511e-21)
(0.314986 0.388097 -9.13866e-21)
(0.413369 0.455843 1.34763e-20)
(0.497202 0.486935 -2.4726e-20)
(0.567843 0.489527 6.65481e-20)
(0.627053 0.471955 -3.70837e-20)
(0.676814 0.441848 3.5676e-20)
(0.719707 0.4051 -6.93339e-20)
(0.757824 0.36558 -1.91979e-20)
(0.0687631 0.109874 -9.70388e-21)
(0.1831 0.26817 2.50321e-20)
(0.289836 0.375154 6.63528e-21)
(0.384292 0.439212 -1.15714e-20)
(0.466473 0.467741 -2.075e-20)
(0.537151 0.468924 -1.27235e-21)
(0.597536 0.450992 1.2406e-20)
(0.649155 0.421364 -3.1628e-20)
(0.694165 0.385743 1.69055e-20)
(0.73422 0.347916 2.22164e-21)
(0.0612611 0.105961 -3.69598e-20)
(0.165069 0.257822 -9.99425e-21)
(0.265223 0.359551 -2.52714e-21)
(0.355976 0.4197 2.93392e-20)
(0.436694 0.445719 -2.80716e-20)
(0.507544 0.445718 -7.94548e-21)
(0.56918 0.427733 -4.92707e-21)
(0.622682 0.398907 9.84297e-21)
(0.669797 0.364714 -1.29508e-20)
(0.711804 0.328801 -2.143e-20)
(0.0539327 0.101175 3.05197e-20)
(0.147542 0.245486 -1.75391e-20)
(0.2414 0.341377 1.11746e-21)
(0.328691 0.397415 -4.41494e-20)
(0.408125 0.420989 4.95763e-20)
(0.479255 0.420025 -1.65418e-20)
(0.542189 0.402282 1.04641e-20)
(0.597571 0.374567 9.66473e-21)
(0.646752 0.342078 2.96176e-20)
(0.690695 0.308275 -1.24859e-20)
(0.0468651 0.095547 -1.23817e-20)
(0.130711 0.231242 3.64651e-20)
(0.218613 0.320745 2.05052e-20)
(0.302695 0.372489 3.37546e-20)
(0.381011 0.393686 -8.3655e-21)
(0.452507 0.391978 3.39193e-21)
(0.516754 0.374757 2.95905e-20)
(0.57398 0.348439 6.89392e-21)
(0.625163 0.31791 6.69752e-22)
(0.670995 0.2864 -1.4936e-20)
(0.0401422 0.0891162 -2.63093e-20)
(0.114764 0.215185 -2.10035e-21)
(0.197095 0.297787 -1.16329e-20)
(0.278233 0.345075 -5.3486e-20)
(0.355584 0.363968 -5.41698e-20)
(0.427506 0.361723 9.55211e-21)
(0.493054 0.345288 -2.495e-20)
(0.552059 0.320636 1.68698e-20)
(0.605153 0.292298 9.77443e-21)
(0.652798 0.263248 2.15615e-20)
(0.0338435 0.0819303 3.71076e-20)
(0.0998725 0.19743 -3.22154e-20)
(0.177063 0.272658 -1.64092e-20)
(0.255531 0.315343 3.08953e-20)
(0.33206 0.332007 3.65248e-20)
(0.404442 0.329421 -1.26736e-20)
(0.471249 0.314019 -1.63805e-21)
(0.531942 0.291278 -5.22972e-20)
(0.586829 0.265343 -3.13182e-20)
(0.636186 0.238909 1.26839e-20)
(0.0280434 0.0740452 -2.10332e-20)
(0.0862008 0.178108 9.4532e-21)
(0.158721 0.245532 3.50043e-20)
(0.2348 0.283487 -1.59837e-20)
(0.310635 0.297992 1.22754e-21)
(0.383491 0.295249 5.11611e-20)
(0.451488 0.281104 2.5458e-21)
(0.51375 0.260497 4.98837e-20)
(0.570292 0.237156 2.21359e-20)
(0.621232 0.21348 -3.70735e-20)
(0.0228101 0.0655245 2.80588e-20)
(0.0738968 0.157366 3.24356e-21)
(0.142251 0.2166 2.24972e-21)
(0.216229 0.249713 3.28221e-20)
(0.291488 0.262128 -4.6684e-21)
(0.364808 0.259395 -3.19833e-20)
(0.433904 0.24671 1.67463e-20)
(0.497592 0.228437 -2.81022e-20)
(0.555629 0.207859 -1.24515e-20)
(0.608003 0.187068 1.34789e-20)
(0.018205 0.0564383 -1.75272e-20)
(0.0630936 0.135364 -3.53644e-20)
(0.127819 0.186069 8.32787e-21)
(0.199989 0.214245 -1.71592e-20)
(0.274777 0.224633 -1.10525e-20)
(0.348533 0.222059 2.83247e-20)
(0.418612 0.211014 -7.20625e-21)
(0.483564 0.195249 7.2152e-21)
(0.542915 0.177583 -9.32442e-21)
(0.596556 0.159791 1.93234e-20)
(0.0142821 0.046863 6.2063e-21)
(0.0539077 0.112274 2.36514e-20)
(0.115568 0.154161 -3.37828e-20)
(0.186225 0.17732 1.67924e-20)
(0.260638 0.185738 -8.07863e-21)
(0.334785 0.183451 -2.42147e-20)
(0.405714 0.174199 2.10017e-20)
(0.471747 0.161093 4.79522e-21)
(0.532219 0.146465 -6.84188e-22)
(0.586939 0.13177 -2.26022e-20)
(0.0110873 0.0368802 1.97247e-21)
(0.0464379 0.0882794 7.46583e-21)
(0.105618 0.121109 3.03948e-20)
(0.175063 0.139187 -6.1088e-21)
(0.249187 0.145683 -5.10183e-21)
(0.323665 0.14379 2.0056e-21)
(0.395294 0.13646 8.77796e-22)
(0.46221 0.126136 8.31728e-21)
(0.523595 0.11465 -1.16012e-20)
(0.579196 0.103134 -7.79004e-21)
(0.00865806 0.0265757 -5.01214e-21)
(0.0407644 0.0635719 -9.13865e-21)
(0.0980693 0.0871561 -2.35246e-20)
(0.166603 0.100104 1.24203e-20)
(0.240516 0.104716 1.07368e-20)
(0.315253 0.103302 4.6075e-22)
(0.387419 0.097994 -2.04591e-20)
(0.455009 0.0905505 -9.67707e-21)
(0.517087 0.0822871 8.136e-21)
(0.573359 0.0740149 9.22098e-21)
(0.00702261 0.016039 8.7056e-22)
(0.036948 0.0383503 -1.89156e-21)
(0.092995 0.0525548 4.46392e-21)
(0.16092 0.0603378 -3.17704e-21)
(0.234697 0.0630931 -2.95621e-21)
(0.309612 0.0622204 -2.1245e-21)
(0.38214 0.0590063 4.1931e-21)
(0.450185 0.0545121 1.69782e-20)
(0.51273 0.0495306 2.60161e-21)
(0.569453 0.0445485 -4.91984e-21)
(0.00620009 0.005362 1.06903e-21)
(0.0350296 0.012818 -3.13088e-21)
(0.0904453 0.0175619 -3.68307e-21)
(0.158066 0.0201586 -2.68568e-21)
(0.231775 0.0210751 2.71911e-21)
(0.306781 0.02078 1.30449e-21)
(0.379493 0.0197038 -1.38086e-21)
(0.447766 0.0182011 -6.71678e-21)
(0.510546 0.0165367 2.34067e-21)
(0.567496 0.0148728 -2.32565e-21)
(0.00620009 -0.005362 -1.06903e-21)
(0.0350296 -0.012818 3.13088e-21)
(0.0904453 -0.0175619 3.68307e-21)
(0.158066 -0.0201586 -3.71022e-21)
(0.231775 -0.0210751 3.45978e-21)
(0.306781 -0.02078 1.84778e-21)
(0.379493 -0.0197038 -3.14747e-21)
(0.447766 -0.0182011 -3.88765e-21)
(0.510546 -0.0165367 6.14925e-22)
(0.567496 -0.0148728 -1.82068e-21)
(0.00702261 -0.016039 1.16294e-21)
(0.036948 -0.0383503 -3.73507e-21)
(0.092995 -0.0525548 8.70346e-21)
(0.16092 -0.0603378 -8.03239e-21)
(0.234697 -0.0630931 -3.90426e-22)
(0.309612 -0.0622204 -6.01958e-21)
(0.38214 -0.0590063 1.04311e-20)
(0.450185 -0.0545121 1.51139e-20)
(0.51273 -0.0495306 2.87967e-21)
(0.569453 -0.0445485 -6.52925e-21)
(0.00865806 -0.0265757 -1.01421e-21)
(0.0407644 -0.0635719 -7.94932e-21)
(0.0980693 -0.0871561 -1.91323e-20)
(0.166603 -0.100104 1.74048e-20)
(0.240516 -0.104716 3.8394e-21)
(0.315253 -0.103302 3.6047e-21)
(0.387419 -0.097994 -1.87555e-20)
(0.455009 -0.0905505 -1.17306e-20)
(0.517087 -0.0822871 -2.78933e-21)
(0.573359 -0.0740149 2.01777e-20)
(0.0110873 -0.0368802 -3.62e-21)
(0.0464379 -0.0882794 4.79691e-21)
(0.105618 -0.121109 3.491e-20)
(0.175063 -0.139187 -3.25759e-21)
(0.249187 -0.145683 -9.92965e-21)
(0.323665 -0.14379 7.6223e-21)
(0.395294 -0.13646 5.48055e-22)
(0.46221 -0.126136 3.05456e-21)
(0.523595 -0.11465 -7.04075e-21)
(0.579196 -0.103134 -1.97667e-20)
(0.0142821 -0.046863 -2.53573e-21)
(0.0539077 -0.112274 1.42502e-20)
(0.115568 -0.154161 -3.52967e-20)
(0.186225 -0.17732 1.61086e-20)
(0.260638 -0.185738 1.47873e-22)
(0.334785 -0.183451 -2.28923e-20)
(0.405714 -0.174199 1.07329e-20)
(0.471747 -0.161093 -1.12629e-21)
(0.532219 -0.146465 4.52312e-21)
(0.586939 -0.13177 -1.469e-21)
(0.018205 -0.0564383 -2.87389e-20)
(0.0630936 -0.135364 -3.61894e-20)
(0.127819 -0.186069 9.66001e-21)
(0.199989 -0.214245 -1.84407e-20)
(0.274777 -0.224633 -5.57195e-21)
(0.348533 -0.222059 8.67482e-21)
(0.418612 -0.211014 3.38616e-21)
(0.483564 -0.195249 1.37421e-20)
(0.542915 -0.177583 -3.08593e-21)
(0.596556 -0.159791 1.78316e-20)
(0.0228101 -0.0655245 2.75212e-20)
(0.0738968 -0.157366 1.85148e-20)
(0.142251 -0.2166 -1.48906e-20)
(0.216229 -0.249713 2.58752e-20)
(0.291488 -0.262128 -2.45421e-21)
(0.364808 -0.259395 -3.12574e-20)
(0.433904 -0.24671 5.76474e-21)
(0.497592 -0.228437 -3.75681e-20)
(0.555629 -0.207859 1.33556e-21)
(0.608003 -0.187068 1.5209e-20)
(0.0280434 -0.0740452 -2.12333e-20)
(0.0862008 -0.178108 3.99187e-20)
(0.158721 -0.245532 1.58208e-20)