/*--------------------------------*- C++ -*----------------------------------*\
  =========                 |
  \\      /  F ield         | OpenFOAM: The Open Source CFD Toolbox
   \\    /   O peration     | Website:  https://openfoam.org
    \\  /    A nd           | Version:  7
     \\/     M anipulation  |
\*---------------------------------------------------------------------------*/
FoamFile
{
    version     2.0;
    format      ascii;
    class       surfaceScalarField;
    location    "120";
    object      phi;
}
// * * * * * * * * * * * * * * * * * * * * * * * * * * * * * * * * * * * * * //

dimensions      [0 3 -1 0 0 0 0];

internalField   nonuniform List<scalar> 
4136
(
-0.000984466
0.000493202
-0.00300821
0.00101614
0.00124867
-0.000984634
0.00147784
-0.00300893
0.00304044
-0.00552496
0.0037647
-0.00824766
0.00404839
-0.0110837
0.0041843
-0.0140262
0.00430358
-0.01709
0.00443825
-0.0202927
0.0045922
-0.0236505
0.0047642
0.00495307
-0.0271793
-0.000980511
0.00245835
-0.00299911
0.00505904
-0.00551005
0.00627564
-0.00822839
0.00676672
-0.0110603
0.00701619
-0.0139986
0.00724194
-0.0170582
0.00749785
-0.0202565
0.00779049
-0.0236099
0.00811757
0.0084777
-0.0271345
-0.000972104
0.00343045
-0.00297877
0.00706571
-0.0054788
0.00877567
-0.00818766
0.00947557
-0.0110106
0.00983916
-0.01394
0.0101713
-0.0169904
0.0105483
-0.0201792
0.0109793
-0.0235229
0.0114612
0.011992
-0.0270371
-0.00095943
0.00438988
-0.00294792
0.0090542
-0.00543122
0.011259
-0.00812549
0.0121698
-0.0109347
0.0126484
-0.0138504
0.013087
-0.0168867
0.0135846
-0.020061
0.0141536
-0.0233897
0.0147899
0.0154904
-0.0268881
-0.000942513
0.00533239
-0.00290658
0.0110183
-0.00536731
0.0137197
-0.00804188
0.0148444
-0.0108326
0.0154391
-0.0137297
0.0159841
-0.0167471
0.016602
-0.0199018
0.0173084
-0.0232105
0.0180986
0.0189676
-0.0266877
-0.000921386
0.00625378
-0.00285479
0.0129517
-0.0052871
0.016152
-0.00793685
0.0174941
-0.0107042
0.0182065
-0.013578
0.0188579
-0.0165716
0.0195955
-0.0197019
0.0204387
-0.0229854
0.0213821
0.022418
-0.0264358
-0.00089609
0.00714987
-0.00279259
0.0148482
-0.00519061
0.01855
-0.00781041
0.0201139
-0.0105497
0.0209458
-0.0133955
0.0217036
-0.0163605
0.0225605
-0.0194613
0.0235396
-0.0227145
0.0246352
0.0258363
-0.0261328
-0.000866678
0.00801655
-0.00272003
0.0167015
-0.00507786
0.0209079
-0.00766257
0.0226986
-0.0103691
0.0236523
-0.0131821
0.0245167
-0.0161137
0.0254921
-0.0191803
0.0266061
-0.022398
0.027853
0.0292172
-0.0257789
-0.000833212
0.00884976
-0.00263717
0.0185055
-0.0049489
0.0232196
-0.00749337
0.0252431
-0.0101623
0.0263212
-0.012938
0.0272924
-0.0158315
0.0283856
-0.0188589
0.0296335
-0.0220364
0.0310305
0.0325553
-0.0253745
-0.000795766
0.00964553
-0.00254409
0.0202538
-0.00480374
0.0254792
-0.00730281
0.0277422
-0.00992949
0.0289479
-0.0126632
0.0300261
-0.015514
0.0312364
-0.0184976
0.0326171
-0.0216299
0.0341628
0.0358457
-0.0249203
-0.000754425
0.0104
-0.00244088
0.0219403
-0.00464243
0.0276808
-0.00709092
0.0301907
-0.00967068
0.0315276
-0.0123579
0.0327133
-0.0151613
0.0340399
-0.0180965
0.0355522
-0.021179
0.0372454
0.0390835
-0.0244169
-0.00070929
0.0111092
-0.00232766
0.0235586
-0.00446505
0.0298182
-0.00685773
0.0325834
-0.00938592
0.0340558
-0.0120221
0.0353495
-0.0147738
0.0367915
-0.0176559
0.0384344
-0.0206844
0.0402739
0.0422644
-0.0238653
-0.000660479
0.0117697
-0.00220454
0.0251027
-0.00427165
0.0318853
-0.00660328
0.034915
-0.00907527
0.0365278
-0.011656
0.0379303
-0.0143514
0.0394869
-0.0171761
0.0412591
-0.0201464
0.0432442
0.0453847
-0.0232667
-0.000608126
0.0123778
-0.00207169
0.0265663
-0.00406232
0.0338759
-0.0063276
0.0371803
-0.00873878
0.038939
-0.0112598
0.0404513
-0.0138944
0.0421215
-0.0166573
0.0440219
-0.0195657
0.0461527
0.0484414
-0.0226225
-0.000552382
0.0129302
-0.00192929
0.0279432
-0.00383718
0.0357838
-0.00603074
0.0393738
-0.00837653
0.0412848
-0.0108335
0.0429083
-0.013403
0.0446911
-0.0160993
0.0467182
-0.0189425
0.0489958
0.0514333
-0.0219344
-0.000493424
0.0134237
-0.00177756
0.0292273
-0.00359637
0.0376026
-0.00571277
0.0414902
-0.00798857
0.0435606
-0.0103773
0.045297
-0.0128775
0.0471913
-0.0155023
0.049343
-0.0182765
0.05177
0.0543615
-0.0212047
-0.000431445
0.0138551
-0.00161678
0.0304126
-0.00334005
0.0393259
-0.00537378
0.043524
-0.00757497
0.0457617
-0.00989132
0.0476133
-0.0123182
0.0496181
-0.0148653
0.0518901
-0.0175647
0.0544694
0.0572322
-0.0204354
-0.000366664
0.0142218
-0.00144724
0.0314932
-0.00306843
0.0409471
-0.00501389
0.0454694
-0.00713584
0.0478837
-0.00937582
0.0498533
-0.0117263
0.0519686
-0.0141912
0.054355
-0.0168065
0.0570848
0.0600579
-0.0196322
-0.00029932
0.0145211
-0.00126934
0.0324632
-0.00278176
0.0424595
-0.00463324
0.0473209
-0.00667128
0.0499217
-0.00883034
0.0520124
-0.0111004
0.0542387
-0.0134757
0.0567303
-0.0159737
0.0595827
0.0628643
-0.0187801
-0.000229686
0.0147508
-0.0010835
0.033317
-0.00248031
0.0438563
-0.00423204
0.0490726
-0.00618164
0.0518713
-0.00825569
0.0540864
-0.0104439
0.0564269
-0.0127459
0.0590323
-0.0151183
0.0619551
0.0656913
-0.0179453
-0.000158128
0.0149089
-0.000890197
0.0340491
-0.00216438
0.0451305
-0.00381053
0.0507188
-0.00566722
0.053728
-0.007652
0.0560712
-0.00974969
0.0585246
-0.0119737
0.0612563
-0.0143314
0.0643128
0.0679729
-0.016613
-8.53909e-05
0.0149943
-0.000689782
0.0346535
-0.00183428
0.046275
-0.00336901
0.0522535
-0.0051281
0.0554871
-0.00701979
0.0579629
-0.00902088
0.0605257
-0.011141
0.0633764
-0.0133802
0.066552
0.0703218
-0.0157291
-1.49599e-05
0.0150092
-0.000481939
0.0351205
-0.00149047
0.0472835
-0.00290794
0.053671
-0.00456462
0.0571438
-0.00635997
0.0597582
-0.00826269
0.0624284
-0.0102801
0.0653938
-0.0124281
0.0687
0.0725776
-0.0146839
6.53743e-05
0.0149439
-0.000264248
0.0354501
-0.00113377
0.0481531
-0.00242795
0.0549652
-0.00397739
0.0586932
-0.00567355
0.0614544
-0.00747743
0.0642323
-0.00939372
0.0673101
-0.0114395
0.0707458
0.0747207
-0.0135826
0.000142537
0.0148013
-1.74797e-05
0.0356101
-0.000766148
0.0489017
-0.001929
0.056128
-0.00336692
0.0601311
-0.00496106
0.0630486
-0.00666444
0.0659357
-0.00847821
0.0691239
-0.0104179
0.0726855
0.076755
-0.0124522
0.000213152
0.0145882
0.000177305
0.035646
-0.000391003
0.04947
-0.00141147
0.0571485
-0.0027343
0.061454
-0.00422283
0.0645371
-0.0058232
0.0675361
-0.00753203
0.0708327
-0.00936324
0.0745167
0.0786848
-0.011293
0.00028261
0.0143056
0.000394202
0.0355344
2.11297e-05
0.0498431
-0.000878035
0.0580477
-0.00208012
0.062656
-0.00345909
0.0659161
-0.00495396
0.0690309
-0.00655559
0.0724343
-0.00827517
0.0762363
0.0805046
-0.010095
0.000351634
0.0139539
0.000613004
0.035273
0.000390006
0.0500661
-0.000334969
0.0587726
-0.00140448
0.0637256
-0.00267049
0.0671821
-0.00405729
0.0704177
-0.00554951
0.0739266
-0.00715484
0.0778416
0.0822077
-0.00885797
0.000418421
0.0135355
0.000832559
0.0348589
0.000788474
0.0501102
0.000226371
0.0593347
-0.000708856
0.0646608
-0.00185796
0.0683312
-0.00313369
0.0716935
-0.0045142
0.0753071
-0.00600337
0.0793308
0.0837903
-0.00758588
0.000482094
0.0130534
0.00105155
0.0342894
0.00119261
0.0499691
0.000797711
0.0597296
1.42001e-06
0.0654571
-0.00102212
0.0693547
-0.00218381
0.0728551
-0.00345016
0.0765734
-0.00482191
0.0807026
0.0852498
-0.00628144
0.000541828
0.0125116
0.00126713
0.0335641
0.00159923
0.049637
0.00138354
0.0599453
0.000739238
0.0661014
-0.000165235
0.0702592
-0.00120878
0.0738987
-0.00235805
0.0777227
-0.00361198
0.0819565
0.0865844
-0.00494655
0.000596643
0.011915
0.00147651
0.0326842
0.00200589
0.0491076
0.00197811
0.0599731
0.00149033
0.0665892
0.000719244
0.0710303
-0.000212826
0.0748308
-0.00123939
0.0787492
-0.00237431
0.0830914
0.0877937
-0.00358368
0.000645606
0.0112693
0.00167705
0.0316528
0.00240923
0.0483755
0.00257871
0.0598036
0.00225684
0.066911
0.00162315
0.071664
0.000815481
0.0756384
-0.000106965
0.0796717
-0.00110641
0.0840909
0.0888853
-0.00219802
0.00068788
0.0105815
0.00186604
0.0304746
0.00280537
0.0474361
0.00318217
0.0594268
0.00303613
0.0670571
0.00254631
0.0721538
0.00186533
0.0763194
0.0010741
0.0804629
0.000201417
0.0849635
0.0898856
-0.000798807
0.000722713
0.00985875
0.00204063
0.0291567
0.00319008
0.0462867
0.00378442
0.0588325
0.00382521
0.0670163
0.00348702
0.072492
0.00293573
0.0768707
0.00226447
0.0811342
0.00150182
0.0857262
0.0907424
0.000645025
0.000749463
0.00910929
0.00219784
0.0277083
0.00355859
0.0449259
0.00438064
0.0580104
0.00462034
0.0667766
0.00444263
0.0726697
0.00402546
0.0772879
0.00347733
0.0816823
0.00284421
0.0863593
0.0914431
0.0021435
0.000767619
0.00834167
0.0023344
0.0261416
0.00390561
0.0433547
0.00496516
0.0569509
0.00541698
0.0663248
0.00541025
0.0726764
0.00513342
0.0775647
0.00471276
0.082103
0.00420753
0.0868645
0.0920117
0.00363891
0.000776866
0.00756481
0.00244726
0.0244712
0.00422535
0.0415766
0.00553144
0.0556448
0.00620962
0.0656466
0.0063862
0.0724998
0.00625712
0.0776938
0.00596679
0.0823933
0.00558717
0.0872442
0.0924545
0.00514432
0.0007771
0.00678771
0.00253373
0.0227145
0.00451166
0.0395987
0.00607193
0.0540845
0.00699161
0.0647269
0.0073657
0.0721258
0.00739323
0.0776662
0.00723645
0.0825501
0.0069825
0.0874981
0.0927722
0.00666487
0.000768426
0.00601928
0.00259142
0.0208915
0.00475805
0.0374321
0.00657807
0.0522645
0.00775494
0.06355
0.00834283
0.0715379
0.00853798
0.0774711
0.00851968
0.0825684
0.00839303
0.0876248
0.092965
0.00820014
0.000751163
0.00526812
0.00261849
0.0190242
0.00495794
0.0350926
0.00704028
0.0501822
0.00849016
0.0621002
0.00931034
0.0707177
0.00968683
0.0770946
0.00981409
0.0824411
0.00981729
0.0876216
0.0930338
0.00974854
0.00072585
0.00454227
0.00261382
0.0171362
0.00510492
0.0326015
0.00744809
0.047839
0.00918618
0.0603621
0.0102593
0.0696446
0.010834
0.0765199
0.0111164
0.0821588
0.0112531
0.0874848
0.0929776
0.0113093
0.000693243
0.00384902
0.00257723
0.0152523
0.00519319
0.0299856
0.00779034
0.0452418
0.00983024
0.0583222
0.0111788
0.068296
0.011972
0.0757268
0.0124221
0.0817087
0.012698
0.0872089
0.0927948
0.0128808
0.000654293
0.00319473
0.00250957
0.013397
0.00521802
0.0272771
0.00805552
0.0424043
0.0104079
0.0559698
0.0120557
0.0666481
0.0130913
0.0746912
0.0137255
0.0810744
0.0141487
0.0867857
0.0924828
0.0144607
0.000610115
0.00258462
0.00241282
0.0115943
0.00517635
0.0245136
0.00823235
0.0393483
0.010903
0.0532992
0.0128742
0.0646769
0.0141799
0.0733856
0.015019
0.0802353
0.0156009
0.0862039
0.0920373
0.0160463
0.000561934
0.00202268
0.00229001
0.00986621
0.00506733
0.0217363
0.00831051
0.0361052
0.0112983
0.0503114
0.013616
0.0623592
0.0152227
0.0717789
0.0162928
0.0791652
0.017049
0.0854477
0.0914518
0.0176345
0.000511029
0.00151165
0.00214509
0.00823214
0.0048928
0.0189886
0.0082816
0.0327164
0.0115761
0.0470169
0.0142599
0.0596754
0.0162014
0.0698373
0.0175339
0.0778327
0.0184855
0.0844961
0.0907162
0.0192211
0.000458657
0.001053
0.00198269
0.00670811
0.00465754
0.0163137
0.00814039
0.0292335
0.0117187
0.0434386
0.0147823
0.0566118
0.0170937
0.0675259
0.0187258
0.0762007
0.0199003
0.0833215
0.0208009
0.000405978
0.000647018
0.00180774
0.00530635
0.00436913
0.0137523
0.00788596
0.0257167
0.0117106
0.039614
0.015158
0.0531643
0.0178731
0.0648108
0.0198472
0.0742266
0.000353981
0.000293037
0.00162516
0.00403517
0.00403746
0.01134
0.00752283
0.0222313
0.0115397
0.0355971
0.0153611
0.049343
0.0185093
0.0616625
0.000303446
-1.04091e-05
0.00143947
0.00289914
0.00367389
0.0091056
0.00706144
0.0188438
0.0112001
0.0314584
0.0153668
0.000254958
-0.000265367
0.00125462
0.00189948
0.00329029
0.00706992
0.00651787
0.0156162
0.000208762
-0.000474129
0.00107391
0.00103433
0.00289816
0.00524568
0.000165155
-0.000639284
0.000900177
0.00029931
0.000124461
-0.000763745
-0.000312351
8.72142e-05
-0.000850959
0.0344302
-0.000652853
0.00157802
0.0334877
-0.00285565
0.00379816
0.0325205
-0.00563184
0.00659897
0.0315345
-0.00722617
0.00821222
0.0305205
-0.00969288
0.0107069
0.0294713
-0.0109936
0.0120428
0.0283738
-0.0135218
0.0146194
0.0272192
-0.0148913
0.0160458
0.0259984
-0.0177495
0.0189703
0.0247117
-0.0193075
0.0205943
0.023369
-0.0226216
0.0239643
0.0219938
-0.0241782
0.0255535
0.0206251
-0.0280335
0.0294021
0.0193971
-0.0290123
0.0302403
-0.0339042
0.035356
0.0345573
0.000145185
0.0337311
-0.00202946
0.0328687
-0.00476944
0.0319782
-0.00633571
0.0310487
-0.0087633
0.0300773
-0.0100223
0.0290469
-0.0124915
0.0279565
-0.0138009
0.0267882
-0.0165812
0.0255553
-0.0180746
0.0242451
-0.0213114
0.0229084
-0.0228416
0.0215123
-0.0266374
0.0202433
-0.0277433
-0.032441
0.0346793
0.000821186
0.0339664
-0.00131653
0.0332055
-0.00400849
0.0324101
-0.00554033
0.0315645
-0.00791769
0.0306729
-0.00913072
0.0297118
-0.0115303
0.0286882
-0.0127773
0.0275745
-0.0154675
0.0263949
-0.016895
0.0251166
-0.0200331
0.0238115
-0.0215365
0.0224027
-0.0252285
0.021099
-0.0264396
-0.0309742
0.0347958
0.00138075
0.0341911
-0.000711901
0.0335273
-0.00334465
0.0328232
-0.00483624
0.0320583
-0.00715281
0.0312437
-0.00831612
0.0303495
-0.010636
0.0293908
-0.0118187
0.0283302
-0.0144068
0.0272028
-0.0157676
0.0259568
-0.0187871
0.0246821
-0.0202618
0.0232709
-0.0238173
0.0219372
-0.0251059
-0.0294724
0.0349063
0.00182976
0.0344047
-0.000210317
0.0338332
-0.00277312
0.033216
-0.00421906
0.0325279
-0.00646465
0.0317866
-0.00757481
0.0309558
-0.00980524
0.030059
-0.010922
0.0290487
-0.0133965
0.0279712
-0.0146901
0.0267569
-0.0175728
0.0255096
-0.0190146
0.0241016
-0.0224094
0.0227414
-0.0237457
-0.0279357
0.0350108
0.00217425
0.0346068
0.000193748
0.0341226
-0.00228898
0.0335879
-0.00368434
0.0329724
-0.0058491
0.0323007
-0.00690309
0.0315299
-0.00903444
0.0306918
-0.0100839
0.029729
-0.0124337
0.0286981
-0.0136592
0.0275146
-0.0163893
0.0262913
-0.0177912
0.0248895
-0.0210076
0.0235071
-0.0223633
-0.026363
0.0351092
0.00242042
0.0347969
0.000505994
0.0343951
-0.00188715
0.0339382
-0.00322744
0.033391
-0.0053019
0.032785
-0.00629709
0.0320705
-0.00832001
0.0312877
-0.00930111
0.0303695
-0.0115155
0.0293817
-0.0126713
0.0282281
-0.0152357
0.0270257
-0.0165888
0.0256313
-0.0196132
0.0242304
-0.0209624
-0.024755
0.035201
0.00257472
0.034975
0.000732049
0.0346501
-0.00156225
0.0342662
-0.00284358
0.0337829
-0.0048186
0.0332385
-0.00575269
0.0325767
-0.00765821
0.0318454
-0.00856973
0.0309689
-0.0106391
0.0300205
-0.0117229
0.0288954
-0.0141106
0.0277115
-0.0154049
0.0263246
-0.0182262
0.0249083
-0.0195461
-0.0231135
0.0352864
0.00264367
0.0351406
0.000877864
0.0348872
-0.00130887
0.0345714
-0.00252781
0.0341475
-0.00439468
0.0336605
-0.00526566
0.0330475
-0.00704526
0.0323637
-0.00788592
0.0315261
-0.00980156
0.0306134
-0.0108102
0.0295152
-0.0130124
0.0283476
-0.0142374
0.0269678
-0.0168464
0.0255381
-0.0181165
-0.0214406
0.0353651
0.0026339
0.0352935
0.000949517
0.035106
-0.00112144
0.0348533
-0.00227504
0.0344841
-0.0040255
0.03405
-0.00483159
0.0334821
-0.00647734
0.0328418
-0.00724564
0.0320402
-0.00899995
0.0311596
-0.00992957
0.0300864
-0.0119392
0.0289331
-0.0130841
0.0275596
-0.0154728
0.0261183
-0.0166752
-0.0197392
0.0354371
0.00255218
0.0354334
0.000953211
0.0353062
-0.000994323
0.0351113
-0.00208004
0.0347922
-0.0037064
0.0344065
-0.00444598
0.0338798
-0.00595061
0.033279
-0.00664481
0.0325103
-0.0082313
0.0316582
-0.00907747
0.0306079
-0.0108888
0.0294673
-0.0119435
0.0280992
-0.0141047
0.0266475
-0.0152236
-0.0180119
0.0355021
0.00240541
0.0355601
0.000895269
0.0354875
-0.000921803
0.035345
-0.0019375
0.0350712
-0.00343263
0.0347295
-0.00410421
0.03424
-0.00546117
0.0336745
-0.00607933
0.0329358
-0.00749252
0.0321088
-0.0082505
0.031079
-0.00985907
0.0299493
-0.0108138
0.0285857
-0.0127411
0.0271247
-0.0137626
-0.0162617
0.0355602
0.00220056
0.0356733
0.000782137
0.0356496
-0.000898095
0.0355541
-0.00184197
0.0353209
-0.00319942
0.0350182
-0.00380159
0.0345622
-0.0050051
0.0340279
-0.00554507
0.0333159
-0.00678047
0.0325107
-0.00744536
0.0314991
-0.00884749
0.0303787
-0.00969331
0.0290186
-0.011381
0.0275491
-0.0122931
-0.0144915
0.0356112
0.00194472
0.035773
0.000620363
0.0357922
-0.000917359
0.0357382
-0.00178791
0.0355407
-0.00300194
0.0352724
-0.00353337
0.0348458
-0.00457844
0.0343387
-0.00503796
0.0336501
-0.00609192
0.0328636
-0.00665888
0.0318678
-0.0078516
0.030755
-0.00858054
0.0293976
-0.0100237
0.0279203
-0.0108158
-0.012704
0.035655
0.00164504
0.0358588
0.000416586
0.0359151
-0.000973699
0.0358969
-0.0017697
0.0357303
-0.00283532
0.0354917
-0.00329474
0.0350904
-0.00417715
0.0346064
-0.00455393
0.033938
-0.00542357
0.0331672
-0.00588802
0.0321845
-0.00686892
0.0310779
-0.00747392
0.0297223
-0.00866817
0.028238
-0.00933141
-0.0109018
0.0356917
0.00130872
0.0359307
0.000177528
0.0360182
-0.00106118
0.0360302
-0.00178166
0.0358895
-0.00269464
0.0356756
-0.00308088
0.0352956
-0.00379716
0.0348307
-0.00408897
0.0341792
-0.00477207
0.033421
-0.00512981
0.032449
-0.00589698
0.0313471
-0.00637199
0.0299927
-0.00731376
0.028502
-0.00784073
-0.00908749
0.0357211
0.000942999
0.0359886
-8.9973e-05
0.0361012
-0.00117383
0.0361376
-0.00181806
0.0360179
-0.00257498
0.035824
-0.00288692
0.0354612
-0.00343434
0.0350113
-0.00363913
0.0343733
-0.00413402
0.0336248
-0.00438136
0.0326612
-0.00493331
0.0315625
-0.00527336
0.0302086
-0.00595978
0.0287123
-0.00634451
-0.0072633
0.0357431
0.000555191
0.0360323
-0.000379094
0.0361641
-0.00130564
0.0362191
-0.00187309
0.0361155
-0.00247133
0.0359366
-0.00270802
0.0355867
-0.00308452
0.0351481
-0.00320046
0.03452
-0.00350598
0.0337786
-0.00363988
0.0328208
-0.00397554
0.0317241
-0.00417669
0.03037
-0.00460565
0.028869
-0.00484358
-0.00543137
0.0357579
0.000152622
0.0360618
-0.000682967
0.0362067
-0.00145053
0.0362745
-0.00194096
0.0361819
-0.00237869
0.0360132
-0.00253929
0.0356721
-0.00274349
0.0352407
-0.00276907
0.0346193
-0.00288453
0.033882
-0.00290255
0.0329278
-0.00302138
0.0318319
-0.00308075
0.030477
-0.00325084
0.0289721
-0.00333862
-0.00359382
0.0357653
0.036077
0.0362289
0.0363038
0.0362171
0.0360537
0.0357172
0.0352892
0.0346709
0.0339349
0.0329819
0.0318857
0.03053
0.0290217
0.202028
-0.000223753
0.202585
-0.000557809
0.203428
-0.000842221
0.204436
-0.00100802
0.205573
-0.00113758
0.206754
-0.00118084
0.207955
-0.00120122
0.209118
-0.00116288
0.210237
-0.00111866
0.211274
-0.00103762
0.21224
-0.000965282
0.213109
-0.000869522
0.213902
-0.000793031
0.214601
-0.000698514
-0.000629624
0.21523
0.192597
-0.000437092
0.193128
-0.00108827
0.193929
-0.00164374
0.19489
-0.00196846
0.195977
-0.00222466
0.197108
-0.00231205
0.198263
-0.00235621
0.199384
-0.00228414
0.200467
-0.00220108
0.201473
-0.00204384
0.202412
-0.001904
0.203258
-0.00171629
0.204032
-0.00156706
0.204715
-0.00138084
-0.00124703
0.205332
0.183607
-0.000640294
0.184105
-0.0015868
0.184867
-0.00240542
0.185782
-0.00288288
0.186825
-0.00326792
0.187914
-0.00340143
0.189034
-0.00347612
0.190125
-0.00337544
0.191185
-0.00326118
0.192174
-0.0030326
0.193102
-0.00283147
0.19394
-0.00255484
0.19471
-0.00233724
0.19539
-0.00206039
-0.00186395
0.196007
0.175036
-0.000833665
0.175501
-0.00205174
0.176223
-0.00312727
0.177092
-0.0037516
0.178094
-0.0042701
0.179145
-0.00445295
0.180237
-0.0045676
0.181306
-0.0044448
0.182354
-0.00430911
0.183336
-0.00401463
0.184264
-0.00375962
0.185106
-0.00339676
0.185884
-0.00311546
0.186572
-0.00274804
-0.00249191
0.1872
0.166865
-0.00101743
0.167294
-0.00248122
0.167976
-0.00380886
0.168798
-0.00457377
0.16976
-0.0052321
0.170775
-0.00546806
0.171842
-0.00563447
0.172894
-0.00549706
0.173937
-0.00535186
0.17492
-0.00499755
0.175858
-0.00469748
0.176712
-0.00425098
0.177508
-0.00391142
0.178213
-0.00345279
-0.00314018
0.178861
0.159075
-0.00119166
0.159467
-0.00287329
0.160108
-0.0044495
0.160881
-0.00534751
0.161803
-0.00615328
0.162781
-0.00644602
0.163824
-0.0066781
0.164861
-0.00653434
0.165903
-0.00639372
0.166892
-0.00598628
0.167846
-0.00565165
0.16872
-0.00512427
0.169541
-0.00473291
0.17027
-0.00418198
-0.0038166
0.170947
0.151648
-0.00135615
0.152001
-0.00322609
0.1526
-0.00504837
0.153322
-0.00607005
0.154201
-0.00703172
0.155139
-0.00738431
0.156159
-0.00769783
0.157181
-0.0075564
0.158224
-0.00743662
0.159221
-0.00698345
0.160196
-0.00662667
0.161093
-0.00602153
0.161946
-0.00558619
0.162706
-0.00494161
-0.00452799
0.163417
0.144567
-0.00151042
0.144879
-0.00353823
0.145435
-0.00560468
0.146103
-0.00673792
0.146936
-0.00786469
0.147831
-0.00827899
0.148824
-0.0086913
0.149829
-0.00856095
0.150873
-0.00848042
0.151879
-0.0079896
0.152877
-0.00762528
0.153802
-0.006946
0.154692
-0.00647613
0.155487
-0.00573655
-0.00528027
0.156239
0.137815
-0.00165357
0.138085
-0.0038091
0.138598
-0.00611757
0.139208
-0.00734728
0.139992
-0.00864897
0.140838
-0.00912507
0.141802
-0.00965487
0.142785
-0.00954394
0.143827
-0.0095232
0.144841
-0.00900339
0.145864
-0.00864852
0.146818
-0.00789941
0.147748
-0.00740637
0.148582
-0.00657064
-0.00607862
0.149381
0.131376
-0.00178433
0.131606
-0.00403915
0.132074
-0.00658595
0.132622
-0.00789446
0.133354
-0.0093812
0.134146
-0.00991683
0.135075
-0.0105839
0.13603
-0.0104998
0.137069
-0.0105614
0.138087
-0.0100218
0.139134
-0.00969588
0.140117
-0.00888208
0.14109
-0.00837943
0.141966
-0.00744677
-0.00692747
0.142815
0.125236
-0.00190112
0.125426
-0.00423005
0.125849
-0.00700834
0.126331
-0.00837654
0.127008
-0.010058
0.127739
-0.0106483
0.128628
-0.0114732
0.12955
-0.0114218
0.130579
-0.0115903
0.131598
-0.0110403
0.132667
-0.0107654
0.133678
-0.00989293
0.134695
-0.00939668
0.135616
-0.00836692
-0.00783062
0.136519
0.11938
-0.00200225
0.119534
-0.00438463
0.119909
-0.00738272
0.120324
-0.00879189
0.120942
-0.0106761
0.121607
-0.0113135
0.122451
-0.0123169
0.123331
-0.0123023
0.124345
-0.0126038
0.125357
-0.0120528
0.126446
-0.0118538
0.127482
-0.0109296
0.128544
-0.0104584
0.129509
-0.00933216
-0.00879116
0.13047
0.113795
-0.00208611
0.113916
-0.00450657
0.11424
-0.00770664
0.114589
-0.00914061
0.115145
-0.0112321
0.115739
-0.0119074
0.116531
-0.0131092
0.117362
-0.0131328
0.118353
-0.013595
0.119352
-0.0130522
0.120455
-0.0129563
0.121514
-0.0119883
0.122619
-0.0115638
0.12363
-0.0103427
-0.00981156
0.12465
0.108468
-0.00215148
0.108562
-0.00459999
0.108832
-0.00797747
0.109116
-0.00942465
0.109607
-0.0117222
0.110125
-0.0124262
0.11086
-0.0138439
0.111632
-0.0139052
0.112594
-0.0145564
0.113572
-0.01403
0.114682
-0.0140671
0.115758
-0.0130642
0.116905
-0.0127108
0.11796
-0.0113977
-0.0108936
0.119042
0.103389
-0.00219774
0.103458
-0.00466892
0.103673
-0.00819295
0.103896
-0.0096476
0.104317
-0.0121427
0.104758
-0.0128678
0.105429
-0.0145145
0.106135
-0.0146113
0.107059
-0.0154799
0.108006
-0.0149768
0.109117
-0.0151789
0.110204
-0.0141511
0.11139
-0.0138964
0.112488
-0.0124955
-0.0120382
0.113632
0.0985461
-0.002225
0.098594
-0.00471686
0.0987528
-0.00835175
0.0989194
-0.00981415
0.0992665
-0.0124899
0.0996312
-0.0132324
0.100231
-0.0151143
0.100864
-0.0152444
0.101741
-0.0163566
0.102647
-0.0158826
0.103751
-0.0162836
0.104842
-0.0152415
0.106061
-0.015116
0.107199
-0.0136336
-0.0132456
0.108407
0.0939292
-0.00223415
0.0939588
-0.00474645
0.094061
-0.00845397
0.0941764
-0.00992946
0.094447
-0.0127606
0.0947367
-0.0135222
0.0952584
-0.0156359
0.0958133
-0.0157993
0.0966339
-0.0171772
0.0974883
-0.016737
0.0985768
-0.0173721
0.0996619
-0.0163266
0.10091
-0.016364
0.102085
-0.0148081
-0.0145153
0.103354
0.0895287
-0.00222683
0.0895416
-0.00475938
0.089589
-0.0085014
0.089658
-0.00999845
0.0898501
-0.0129526
0.0900686
-0.0137406
0.0905049
-0.0160722
0.0909789
-0.0162734
0.0917329
-0.0179313
0.0925259
-0.0175299
0.0935882
-0.0184344
0.0946579
-0.0173963
0.0959275
-0.0176336
0.0971339
-0.0160146
-0.0158455
0.0984642
0.0853349
-0.00220517
0.085332
-0.00475646
0.0853281
-0.00849752
0.085355
-0.0100253
0.0854683
-0.0130659
0.0856199
-0.0138923
0.0859643
-0.0164166
0.0863568
-0.0166659
0.0870328
-0.0186073
0.0877556
-0.0182527
0.0887805
-0.0194592
0.0898234
-0.0184393
0.0911067
-0.0189169
0.0923392
-0.017247
-0.0172338
0.0937275
0.0813387
-0.00217163
0.08132
-0.00473777
0.0812698
-0.00844732
0.0812578
-0.0100133
0.0812943
-0.0131024
0.0813837
-0.0139816
0.0816309
-0.0166638
0.0819434
-0.0169784
0.082529
-0.0191929
0.0831751
-0.0188988
0.0841495
-0.0204336
0.0851536
-0.0194435
0.086442
-0.0202053
0.0876929
-0.018498
-0.0186768
0.0891359
0.077531
-0.00212872
0.0774963
-0.00470306
0.0774058
-0.00835682
0.0773571
-0.00996463
0.0773213
-0.0130666
0.077352
-0.0140124
0.0774994
-0.0168112
0.0777345
-0.0172135
0.0782173
-0.0196757
0.0787827
-0.0194643
0.0796913
-0.0213422
0.080645
-0.0203971
0.0819287
-0.021489
0.083189
-0.0197583
-0.0201703
0.0846824
0.0739029
-0.0020788
0.073852
-0.00465213
0.0737276
-0.00823245
0.0736437
-0.00988069
0.0735421
-0.012965
0.0735169
-0.0139872
0.0735652
-0.0168595
0.0737256
-0.0173739
0.0740944
-0.0200445
0.0745776
-0.0199475
0.0754023
-0.0221669
0.0762954
-0.0212902
0.0775631
-0.0227566
0.0788222
-0.0210173
-0.0217096
0.0803615
0.0704459
-0.00202385
0.070379
-0.00458522
0.0702269
-0.00808041
0.0701088
-0.00976259
0.0699496
-0.0128058
0.06987
-0.0139076
0.0698237
-0.0168133
0.0699109
-0.017461
0.0701578
-0.0202914
0.0705591
-0.0203487
0.0712795
-0.0228873
0.0721048
-0.0221155
0.0733418
-0.0239937
0.0745883
-0.0222639
-0.0232908
0.0761696
0.0671515
-0.00196537
0.0670694
-0.00450315
0.0668952
-0.00790622
0.0667445
-0.00961184
0.0665363
-0.0125976
0.0664031
-0.0137744
0.0662703
-0.0166805
0.0662841
-0.0174748
0.0664066
-0.0204139
0.0667258
-0.0206679
0.0673214
-0.023483
0.068075
-0.0228691
0.0692609
-0.0251795
0.0704827
-0.0234857
-0.0249146
0.0721065
0.0640117
-0.00190437
0.063916
-0.00440745
0.0637242
-0.00771441
0.0635432
-0.00943085
0.0632941
-0.0123485
0.0631089
-0.0135892
0.0628997
-0.0164713
0.0628388
-0.0174139
0.0628403
-0.0204153
0.0630749
-0.0209026
0.063529
-0.0239371
0.0642105
-0.0235506
0.0653173
-0.0262863
0.0665005
-0.0246689
-0.0265894
0.0681752
0.0610189
-0.00184145
0.0609116
-0.00430013
0.0607057
-0.00750849
0.0604979
-0.00922308
0.060215
-0.0120656
0.0599806
-0.0133548
0.0597057
-0.0161964
0.0595692
-0.0172774
0.0594585
-0.0203047
0.0596027
-0.0210467
0.0599052
-0.0242396
0.0605153
-0.0241607
0.0615103
-0.0272813
0.062643
-0.0258016
-0.028321
0.0643746
0.0581662
-0.00177699
0.0580495
-0.00418346
0.0578323
-0.00729124
0.057602
-0.00899284
0.057291
-0.0117545
0.0570125
-0.0130763
0.0566814
-0.0158653
0.0564706
-0.0170666
0.0562597
-0.0200937
0.0563056
-0.0210926
0.0564546
-0.0243886
0.0569874
-0.0246935
0.0578407
-0.0281347
0.0589278
-0.0268886
-0.0300814
0.0606882
0.0554468
-0.0017113
0.0553231
-0.0040597
0.055097
-0.00706518
0.0548489
-0.00874479
0.054515
-0.0114206
0.054199
-0.0127603
0.0538202
-0.0154864
0.0535399
-0.0167864
0.0532403
-0.0197941
0.0531813
-0.0210336
0.0531807
-0.024388
0.0536133
-0.0251261
0.0542951
-0.0288165
0.0553864
-0.02798
-0.031786
0.057091
0.0528547
-0.00164472
0.052726
-0.00393103
0.0524937
-0.00683286
0.0522326
-0.00848374
0.0518808
-0.0110688
0.0515347
-0.0124142
0.0511158
-0.0150675
0.0507737
-0.0164443
0.050395
-0.0194154
0.0502292
-0.0208678
0.0500832
-0.0242421
0.0503791
-0.025422
0.0508281
-0.0292655
0.0520022
-0.029154
-0.0334126
0.0536287
0.0503843
0.0502514
0.0500175
0.049746
0.0493841
0.0490126
0.0485645
0.048166
0.047721
0.0474475
0.0471697
0.0473012
0.0474378
0.0485241
0.0504676
0.213674
0.00155683
0.212178
0.00149525
0.210754
0.00142392
0.209404
0.00134997
0.208131
0.00127354
0.206936
0.00119478
0.205822
0.00111379
0.204792
0.00103071
0.203846
0.000945659
0.202987
0.000858758
0.202217
0.000770147
0.201537
0.000679963
0.200949
0.000588351
0.200453
0.000495454
0.200052
0.000401423
0.199745
0.000306406
0.199535
0.000210563
0.199421
0.000114054
0.199404
1.71238e-05
-8.04159e-05
0.199484
0.203845
0.0030443
0.202416
0.00292341
0.201057
0.00278333
0.199769
0.00263813
0.198554
0.00248814
0.197415
0.00233362
0.196354
0.00217482
0.195373
0.00201197
0.194474
0.0018453
0.193657
0.00167507
0.192926
0.00150154
0.192281
0.001325
0.191723
0.00114571
0.191255
0.000963949
0.190876
0.000780021
0.190589
0.000594215
0.190392
0.000406829
0.190288
0.000218167
0.190277
2.86049e-05
-0.000161815
0.190358
0.194588
0.00446292
0.193226
0.00428542
0.191931
0.00407906
0.190704
0.00386517
0.189547
0.00364434
0.188464
0.00341699
0.187455
0.00318345
0.186523
0.00294404
0.185669
0.0026991
0.184896
0.00244901
0.184203
0.00219416
0.183593
0.00193495
0.183067
0.00167177
0.182626
0.00140504
0.182271
0.00113518
0.182002
0.000862612
0.181821
0.000587783
0.181728
0.000311137
0.181724
3.3293e-05
-0.000245964
0.181808
0.185849
0.00581381
0.184552
0.00558267
0.183318
0.00531244
0.182151
0.00503236
0.181052
0.00474334
0.180023
0.00444596
0.179066
0.00414064
0.178182
0.00382775
0.177374
0.00350774
0.176642
0.00318109
0.175988
0.0028483
0.175413
0.00250991
0.174918
0.00216642
0.174505
0.00181836
0.174173
0.00146629
0.173925
0.00111075
0.173761
0.000752316
0.17368
0.000391556
0.173684
2.93445e-05
-0.000334818
0.173773
0.177577
0.00709795
0.176343
0.00681627
0.175171
0.00648457
0.174063
0.00614069
0.17302
0.00578601
0.172045
0.00542132
0.171139
0.00504705
0.170303
0.00466363
0.169539
0.00427159
0.168848
0.00387152
0.168233
0.00346404
0.167693
0.00304978
0.16723
0.00262938
0.166845
0.00220347
0.166538
0.00177271
0.166311
0.00133778
0.166164
0.000899365
0.166098
0.000458163
0.166111
1.54866e-05
-0.000430109
0.166207
0.169729
0.00831607
0.168558
0.00798706
0.167446
0.00759623
0.166396
0.00719089
0.165409
0.00677302
0.164487
0.00634363
0.16363
0.00590317
0.162842
0.00545207
0.162123
0.00499094
0.161474
0.00452047
0.160896
0.00404139
0.160392
0.00355444
0.159961
0.00306036
0.159604
0.00255989
0.159323
0.0020538
0.159118
0.00154286
0.15899
0.00102788
0.158938
0.000509695
0.158963
-9.73848e-06
-0.000533413
0.159067
0.162265
0.00946864
0.161156
0.00909554
0.160105
0.0086479
0.159112
0.0081834
0.15818
0.00770478
0.157311
0.00721326
0.156505
0.00670928
0.155763
0.00619326
0.155089
0.00566587
0.154481
0.00512792
0.153942
0.00458024
0.153473
0.00402366
0.153074
0.00345902
0.152747
0.00288717
0.152492
0.00230896
0.152309
0.0017253
0.1522
0.00113708
0.152165
0.000545251
0.152204
-4.87286e-05
-0.00064618
0.152316
0.155152
0.0105558
0.154105
0.0101419
0.153114
0.00963975
0.152179
0.00911841
0.151302
0.00858143