/*--------------------------------*- C++ -*----------------------------------*\
  =========                 |
  \\      /  F ield         | OpenFOAM: The Open Source CFD Toolbox
   \\    /   O peration     | Website:  https://openfoam.org
    \\  /    A nd           | Version:  7
     \\/     M anipulation  |
\*---------------------------------------------------------------------------*/
FoamFile
{
    version     2.0;
    format      ascii;
    class       surfaceScalarField;
    location    "385";
    object      phi;
}
// * * * * * * * * * * * * * * * * * * * * * * * * * * * * * * * * * * * * * //

dimensions      [0 3 -1 0 0 0 0];

internalField   nonuniform List<scalar> 
4148
(
0.0885152
0.0212504
0.0215269
0.0804582
0.0873338
0.0227082
0.0208358
0.0700273
0.0227196
0.0785744
0.0859313
0.0241221
0.0148105
0.0428183
0.018573
0.0557353
0.0215628
0.0670374
0.023809
0.0763282
0.0842664
0.0254738
0.010027
0.0254998
0.0144639
0.0383813
0.0186406
0.0515586
0.0220988
0.0635792
0.0247601
0.0736668
0.0822891
0.0267374
0.00544025
0.0118492
0.00933559
0.0216045
0.0139069
0.03381
0.0184581
0.0470074
0.0224023
0.059635
0.0255308
0.0705383
0.079938
0.0278819
0.00231527
0.00363934
0.00485331
0.0093112
0.00855617
0.0179016
0.0131537
0.0292125
0.0180081
0.042153
0.0224328
0.0552104
0.0260724
0.0668987
0.0771477
0.0288627
0.00200752
0.00234136
0.00428517
0.00703355
0.00772973
0.0144571
0.0122363
0.0247059
0.0172886
0.0371007
0.0221547
0.0503443
0.0263329
0.0627204
0.0738462
0.0296344
0.000605657
-0.000549747
0.00173953
0.00120748
0.00375999
0.0050131
0.00690126
0.0113158
0.0112037
0.0204035
0.016319
0.0319853
0.0215475
0.0451158
0.0262548
0.0580132
0.0699663
0.0301348
8.60872e-05
-0.000754398
0.000526299
-0.00098996
0.00151848
0.000215305
0.00329737
0.0032342
0.00611409
0.00849908
0.0101178
0.0163998
0.0151442
0.026959
0.0206106
0.0396493
0.0258032
0.0528206
0.0654766
0.0302929
7.86952e-05
-0.000833093
0.000472175
-0.00138344
0.00134778
-0.000660301
0.00291014
0.00167184
0.00540377
0.00600545
0.00904433
0.0127592
0.0138325
0.0221709
0.0193813
0.0341005
0.0249133
0.0472886
0.0602013
0.0301886
7.84578e-05
-0.000911551
0.00044184
-0.00174682
0.00122615
-0.00144461
0.00260241
0.000295585
0.00479287
0.00381499
0.00804035
0.00951175
0.0124669
0.0177443
0.0179365
0.0286308
0.0235552
0.0416699
0.0542339
0.0295225
8.42077e-05
-0.000995759
0.000431562
-0.00209417
0.00114728
-0.00216033
0.00236868
-0.000925813
0.00428761
0.00189606
0.00714422
0.00665513
0.0111349
0.0137536
0.0163381
0.0234276
0.0220462
0.0359618
0.0491088
0.0271714
9.41632e-05
-0.00108992
0.000435614
-0.00243563
0.00110037
-0.00282509
0.00219455
-0.00201999
0.00387764
0.000212977
0.00636912
0.00416364
0.00990122
0.0102215
0.0146739
0.018655
0.0203733
0.0302624
0.0436979
0.0257841
0.000106133
-0.00119606
0.000446973
-0.00277646
0.00107167
-0.00344978
0.00205915
-0.00300748
0.00353892
-0.00126679
0.00570263
0.00199993
0.00878932
0.00713486
0.0130324
0.0144119
0.018476
0.0248187
0.0381091
0.0240648
0.0001178
-0.00131386
0.000458245
-0.00311691
0.00104639
-0.00403793
0.00193866
-0.00389974
0.00323948
-0.00256762
0.00511252
0.000126894
0.00778315
0.00446424
0.0114693
0.0107258
0.0164497
0.0198383
0.0325285
0.0220303
0.000127003
-0.00144086
0.000462616
-0.00345252
0.00101092
-0.00458623
0.00181044
-0.00469926
0.00294621
-0.00370339
0.00455717
-0.00148406
0.00684379
0.00217762
0.00999491
0.00757471
0.0143863
0.0154469
0.0271681
0.0197467
0.000131968
-0.00157283
0.000454615
-0.00377517
0.000954429
-0.00508605
0.00165634
-0.00540117
0.00263096
-0.00467801
0.00399749
-0.00285059
0.00592743
0.000247672
0.00858723
0.00491492
0.0123467
0.0116874
0.0222165
0.0172983
0.000131455
-0.00170428
0.0004306
-0.00407431
0.000870014
-0.00552546
0.00146481
-0.00599597
0.00227535
-0.00548855
0.00340536
-0.0039806
0.00499965
-0.00134662
0.00721221
0.00270235
0.0103551
0.00854453
0.0178035
0.014768
0.000124816
-0.0018291
0.000388936
-0.00433843
0.000754976
-0.0058915
0.00123159
-0.00647258
0.00187195
-0.00612891
0.00276776
-0.00487641
0.00404263
-0.00262149
0.00584322
0.000901768
0.00841483
0.00597291
0.013992
0.0122264
0.000111985
-0.00194108
0.000329912
-0.00455636
0.000610537
-0.00617213
0.000958968
-0.00682101
0.00142349
-0.00659344
0.00208638
-0.0055393
0.00305562
-0.00359073
0.00447127
-0.000513883
0.00652632
0.00391787
0.0107939
0.00972438
9.34183e-05
-0.0020345
0.000255465
-0.00471841
0.000441113
-0.00635777
0.00065442
-0.00703432
0.000940372
-0.00687939
0.00137378
-0.0059727
0.00205118
-0.00426813
0.00310477
-0.00156748
0.00469508
0.00232757
0.00819484
0.00729415
7.00039e-05
-0.0021045
0.000168792
-0.0048172
0.000253395
-0.00644238
0.00032878
-0.00710971
0.00043762
-0.00698823
0.000648558
-0.00618364
0.00104934
-0.00466892
0.00176219
-0.00228033
0.00293166
0.0011581
0.00617336
0.00495315
4.2953e-05
-0.00214746
7.39785e-05
-0.00484822
5.54135e-05
-0.00642381
-5.42922e-06
-0.00704886
-6.73675e-05
-0.00692629
-6.765e-05
-0.00618336
7.45715e-05
-0.00481114
0.000457052
-0.00266281
0.00125342
0.000361732
0.00471604
0.00271074
1.36851e-05
-0.00216114
-2.44088e-05
-0.00481013
-0.000144294
-0.00630393
-0.000334954
-0.0068582
-0.000557067
-0.00670418
-0.000753298
-0.00598713
-0.000852584
-0.00471186
-0.000752762
-0.00276263
-0.00034252
-4.85109e-05
0.00381366
0.000559862
-1.63441e-05
-0.0021448
-0.000122126
-0.00470435
-0.000337475
-0.00608858
-0.000647967
-0.00654771
-0.00101613
-0.00633602
-0.00139076
-0.00561249
-0.00170901
-0.00439361
-0.0018869
-0.00258474
-0.0018506
-8.48098e-05
0.00335898
-0.00139592
-4.56119e-05
-0.00209919
-0.000214591
-0.00453537
-0.000516451
-0.00578672
-0.000933291
-0.00613087
-0.00143004
-0.00583927
-0.00196212
-0.00508042
-0.00247667
-0.00387906
-0.00290856
-0.00215285
-0.00319938
0.000206008
0.00337993
-0.00322033
-7.27616e-05
-0.00202643
-0.000298042
-0.00431009
-0.00067461
-0.00541015
-0.00118152
-0.00562396
-0.00178657
-0.00523421
-0.00245209
-0.0044149
-0.0031358
-0.00319534
-0.00379025
-0.0014984
-0.00437522
0.000790976
0.00383236
-0.00482764
-9.66189e-05
-0.00192981
-0.000369328
-0.00403738
-0.000806654
-0.00497282
-0.00138517
-0.00504545
-0.00207585
-0.00454354
-0.00284774
-0.00364301
-0.00366884
-0.00237424
-0.00450689
-0.000660358
-0.00533943
0.00162352
0.00464337
-0.00615044
-0.000116274
-0.00181353
-0.000426125
-0.00372753
-0.000908801
-0.00449015
-0.00153896
-0.00441528
-0.00229072
-0.00379179
-0.00313915
-0.00279457
-0.00406103
-0.00145236
-0.00503596
0.000314577
-0.00605565
0.00264321
0.00572003
-0.00713231
-0.000131131
-0.0016824
-0.000467038
-0.00339162
-0.000978933
-0.00397825
-0.00164001
-0.00375421
-0.00242711
-0.00300469
-0.00332024
-0.00190144
-0.00430204
-0.000470565
-0.00536088
0.00137342
-0.00649613
0.00377845
0.00695582
-0.00773192
-0.000140933
-0.000491658
-0.00101668
-0.00168795
-0.00248437
-0.00338918
-0.0043882
-0.00547343
-0.00664613
-0.00792805
0.205251
-0.00107679
0.20642
-0.0011696
0.207681
-0.00126092
0.209032
-0.00135061
0.21047
-0.00143851
0.211995
-0.00152447
0.213603
-0.00160836
0.215293
-0.00169001
0.217063
-0.00176938
0.218909
-0.00184607
-0.00192085
0.22083
0.195864
-0.00210689
0.196982
-0.00228802
0.198187
-0.00246622
0.199478
-0.00264123
0.200852
-0.00281274
0.202308
-0.00298046
0.203844
-0.00314415
0.205457
-0.00330346
0.207146
-0.0034583
0.208908
-0.00360793
-0.00375377
0.210741
0.187055
-0.00309462
0.188127
-0.00335992
0.189281
-0.00362095
0.190517
-0.00387727
0.191833
-0.00412848
0.193227
-0.00437413
0.194696
-0.00461388
0.19624
-0.00484721
0.197856
-0.00507399
0.199541
-0.00529314
-0.00550675
0.201294
0.178771
-0.00404402
0.179801
-0.00438963
0.18091
-0.00472966
0.182096
-0.00506356
0.183358
-0.00539079
0.184695
-0.0057108
0.186104
-0.00602309
0.187584
-0.00632703
0.189132
-0.00662243
0.190747
-0.00690792
-0.00718617
0.192427
0.170967
-0.00495848
0.171958
-0.00538073
0.173025
-0.00579618
0.174165
-0.00620413
0.175378
-0.00660393
0.176663
-0.0069949
0.178016
-0.00737644
0.179437
-0.0077478
0.180923
-0.00810868
0.182473
-0.00845749
-0.00879745
0.184084
0.163603
-0.00584101
0.164558
-0.00633645
0.165586
-0.0068239
0.166684
-0.00730255
0.167852
-0.00777164
0.169088
-0.00823037
0.170389
-0.00867805
0.171755
-0.00911377
0.173184
-0.00953717
0.174673
-0.00994645
-0.0103453
0.17622
0.156644
-0.00669435
0.157567
-0.00725967
0.158559
-0.00781587
0.159619
-0.00836204
0.160744
-0.00889728
0.161935
-0.00942071
0.163188
-0.00993152
0.164503
-0.0104287
0.165878
-0.0109117
0.16731
-0.0113788
-0.0118338
0.168798
0.150062
-0.00752103
0.150956
-0.00815307
0.151915
-0.0087749
0.152938
-0.00938551
0.154025
-0.00998391
0.155173
-0.0105691
0.156382
-0.0111402
0.157649
-0.011696
0.158973
-0.0122359
0.160353
-0.0127581
-0.0132667
0.161786
0.143832
-0.00832345
0.144698
-0.00901915
0.145627
-0.00970362
0.146617
-0.0103757
0.147667
-0.0110344
0.148777
-0.0116785
0.149944
-0.0123071
0.151167
-0.0129189
0.152444
-0.013513
0.153773
-0.0140878
-0.0146475
0.155154
0.13793
-0.00910393
0.138771
-0.00986036
0.139672
-0.0106046
0.140632
-0.0113354
0.141649
-0.0120515
0.142722
-0.0127519
0.14385
-0.0134352
0.145032
-0.0141005
0.146265
-0.0147462
0.147549
-0.0153711
-0.0159794
0.14888
0.132337
-0.00986473
0.133156
-0.0106791
0.134032
-0.0114803
0.134963
-0.012267
0.13595
-0.013038
0.13699
-0.0137919
0.138082
-0.0145275
0.139225
-0.0152437
0.140418
-0.0159385
0.141658
-0.0166113
-0.017266
0.142944
0.126292
-0.00972593
0.127035
-0.0106081
0.127834
-0.0114777
0.128687
-0.0123332
0.129593
-0.0131732
0.130551
-0.0139964
0.131561
-0.0148015
0.13262
-0.0155869
0.133728
-0.0163517
0.134883
-0.0170932
0.136083
-0.0178117
-0.0185106
0.137328
0.121279
-0.0104008
0.122007
-0.0113363
0.122788
-0.0122585
0.123621
-0.0131657
0.124504
-0.0140566
0.125437
-0.0149296
0.126419
-0.0157835
0.127449
-0.0166163
0.128524
-0.0174276
0.129645
-0.0182134
0.130809
-0.0189757
-0.0197168
0.132015
0.116523
-0.0110652
0.117239
-0.0120515
0.118004
-0.0130238
0.118819
-0.0139804
0.119682
-0.0149198
0.120592
-0.0158403
0.12155
-0.0167407
0.122552
-0.0176188
0.123599
-0.0184744
0.124688
-0.0193024
0.125819
-0.0201065
-0.020888
0.12699
0.11201
-0.0117213
0.112715
-0.012756
0.113467
-0.013776
0.114266
-0.0147796
0.115112
-0.0157652
0.116002
-0.0167311
0.116938
-0.0176759
0.117916
-0.0185972
0.118937
-0.0194954
0.119998
-0.0203636
0.1211
-0.021208
-0.0220284
0.12224
0.107726
-0.012371
0.108422
-0.0134518
0.109164
-0.0145173
0.10995
-0.0155658
0.11078
-0.0165955
0.111654
-0.0176047
0.11257
-0.0185921
0.113527
-0.0195548
0.114526
-0.0204938
0.115563
-0.0214006
0.116639
-0.022284
-0.0231423
0.117753
0.103659
-0.0130162
0.104348
-0.0141409
0.105081
-0.0152498
0.105856
-0.0163411
0.106674
-0.017413
0.107532
-0.0184636
0.108432
-0.0194918
0.109372
-0.0204941
0.11035
-0.0214726
0.111366
-0.0224163
0.112419
-0.0233374
-0.0242323
0.113509
0.0997959
-0.0136587
0.10048
-0.0148252
0.101206
-0.0159755
0.101972
-0.0171076
0.102779
-0.0182201
0.103626
-0.0193104
0.104512
-0.020378
0.105437
-0.0214185
0.1064
-0.0224353
0.107398
-0.0234147
0.108433
-0.024373
-0.0253048
0.109506
0.0961249
-0.0142999
0.096806
-0.0155063
0.0975267
-0.0166962
0.0982866
-0.0178675
0.0990853
-0.0190188
0.0999222
-0.0201473
0.100797
-0.0212532
0.10171
-0.0223309
0.10266
-0.0233855
0.103645
-0.0243998
0.104667
-0.0253951
-0.0263645
0.105727
0.0926346
-0.0149413
0.0933141
-0.0161857
0.0940315
-0.0174136
0.0947865
-0.0186225
0.0955792
-0.0198115
0.0964089
-0.020977
0.0972759
-0.0221203
0.0981792
-0.0232341
0.0991203
-0.0243266
0.100096
-0.0253754
0.101109
-0.0264085
-0.0274161
0.102161
0.0893146
-0.015584
0.0899936
-0.0168647
0.0907092
-0.0181291
0.091461
-0.0193744
0.0922498
-0.0206003
0.0930748
-0.021802
0.0939374
-0.0229828
0.0948353
-0.0241321
0.0957718
-0.025263
0.0967416
-0.0263453
0.0977509
-0.0274178
-0.0284632
0.0987979
0.086155
-0.0162291
0.086835
-0.0175447
0.0875505
-0.0188446
0.0883011
-0.0201249
0.0890881
-0.0213873
0.0899104
-0.0226242
0.0907712
-0.0238436
0.0916667
-0.0250276
0.0926031
-0.0261994
0.0935699
-0.0273121
0.094578
-0.0284259
-0.0295032
0.095618
0.0831477
-0.0168775
0.0838301
-0.0182271
0.0845473
-0.0195619
0.0852992
-0.0208768
0.0860876
-0.0221756
0.0869098
-0.0234465
0.0877708
-0.0247046
0.0886631
-0.0259199
0.0895984
-0.0271348
0.0905573
-0.0282709
0.0915602
-0.0294288
-0.03052
0.092577
0.0802865
-0.0175305
0.0809724
-0.018913
0.0816925
-0.0202819
0.0824466
-0.021631
0.0832372
-0.0229662
0.0840606
-0.0242699
0.0849225
-0.0255665
0.0858086
-0.0268059
0.0867356
-0.0280618
0.0876673
-0.0292026
0.0886435
-0.030405
-0.0314741
0.0895976
0.0775671
-0.018189
0.0782572
-0.0196031
0.0789793
-0.0210041
0.0797333
-0.0223849
0.0805199
-0.0237528
0.0813355
-0.0250855
0.0821854
-0.0264164
0.0830509
-0.0276714
0.0839515
-0.0289624
0.0848247
-0.0300758
0.0857323
-0.0313125
-0.0322922
0.0865504
0.0749796
-0.0188504
0.07567
-0.0202936
0.0763887
-0.0217227
0.0771347
-0.023131
0.0779052
-0.0245232
0.0786952
-0.0258756
0.0795027
-0.0272239
0.0803085
-0.0284773
0.0811289
-0.0297828
0.0818852
-0.0308321
0.0826538
-0.0320811
-0.032859
0.0832206
0.0725051
-0.0195051
0.0731829
-0.0209713
0.0738817
-0.0224215
0.0746002
-0.0238495
0.0753314
-0.0252544
0.0760705
-0.0266147
0.0767996
-0.027953
0.0775007
-0.0291783
0.0781571
-0.0304392
0.0786962
-0.0313712
0.0791884
-0.0325733
-0.0330192
0.0793486
0.0701134
-0.0201369
0.0707585
-0.0216164
0.0714127
-0.0230758
0.0720718
-0.0245086
0.0727238
-0.0259064
0.0733613
-0.0272522
0.0739523
-0.028544
0.0744845
-0.0297105
0.0748857
-0.0308405
0.075108
-0.0315934
0.0751188
-0.0325841
-0.0325878
0.0746874
0.0677534
-0.0207263
0.0683425
-0.0222054
0.0689231
-0.0236565
0.0694834
-0.0250688
0.070003
-0.026426
0.0704597
-0.0277089
0.0708064
-0.0288907
0.0710224
-0.0299265
0.070998
-0.0308161
0.0707528
-0.0313482
0.0700607
-0.0318921
-0.0314045
0.0688774
0.0653826
0.0658853
0.066351
0.066756
0.0670674
0.0672405
0.0672124
0.0669203
0.066239
0.0651837
0.0634802
0.0615982
0.221185
-0.000354914
0.221498
-0.000313559
0.221767
-0.000268636
0.221984
-0.000217556
0.222172
-0.000187312
0.222296
-0.00012414
0.222415
-0.000119367
0.222439
-2.34713e-05
0.222472
-3.32945e-05
0.222333
0.000138834
0.222154
0.000179267
0.221669
0.000484821
0.220983
0.000686228
0.219809
0.00117422
0.218209
0.00159992
0.216057
0.00215124
0.213309
0.00274876
0.210513
0.00279587
0.206978
0.00353483
0.204964
0.00201388
0.202444
0.00252045
0.203368
-0.000923993
0.20764
-0.00427211
0.21224
-0.00460044
0.21774
-0.00549945
0.218176
-0.000436943
0.218615
-0.000438814
0.213677
0.00493874
0.206794
0.00688248
-0.00236086
0.211073
-0.000687277
0.211364
-0.000603742
0.211609
-0.000514255
0.211805
-0.000413378
0.211974
-0.000356069
0.212084
-0.000234178
0.212196
-0.000231893
0.212222
-4.89487e-05
0.212268
-7.96231e-05
0.212158
0.000249117
0.212017
0.000319908
0.211588
0.000913902
0.21096
0.0013148
0.209849
0.00228441
0.208313
0.00313619
0.206208
0.00425652
0.20352
0.00543638
0.200734
0.00558199
0.197221
0.00704758
0.195167
0.00406836
0.192489
0.00519795
0.193369
-0.00180307
0.19784
-0.00874359
0.202625
-0.00938509
0.208086
-0.0109603
0.208572
-0.000923492
0.208892
-0.000759205
0.20381
0.010021
0.196776
0.0139166
-0.00449859
0.2016
-0.000993216
0.20186
-0.000863939
0.202075
-0.000728573
0.202239
-0.000577406
0.20238
-0.000497533
0.202467
-0.000321534
0.20257
-0.000334946
0.2026
-7.81246e-05
0.20267
-0.000150056
0.202606
0.000312869
0.202527
0.000398889
0.202183
0.00125822
0.20163
0.00186825
0.200595
0.00331939
0.199105
0.00462558
0.197009
0.00635236
0.194319
0.00812719
0.191456
0.00844497
0.18785
0.0106532
0.185643
0.00627569
0.182577
0.00826362
0.183388
-0.00261392
0.188418
-0.0137741
0.193701
-0.0146677
0.19929
-0.0165498
0.199884
-0.00151694
0.199996
-0.000871715
0.194496
0.0155214
0.186913
0.0214992
-0.00625564
0.192702
-0.00126835
0.192925
-0.00108697
0.193099
-0.000902824
0.193221
-0.000699159
0.193326
-0.0006024
0.193382
-0.000377343
0.193472
-0.000425494
0.193505
-0.000110932
0.193609
-0.000253722
0.193608
0.000313615
0.193613
0.00039382
0.193381
0.00148986
0.192921
0.00232797
0.191974
0.00426671
0.190518
0.00608225
0.188408
0.00846206
0.185658
0.0108769
0.182658
0.0114452
0.178878
0.014433
0.176405
0.00874846
0.172752
0.0119173
0.173408
-0.00327043
0.179345
-0.0197109
0.185397
-0.0207194
0.19129
-0.0224432
0.191983
-0.00220968
0.191805
-0.000694055
0.1858
0.0215269
0.17728
0.0300189
-0.00729667
0.184323
-0.00150778
0.184501
-0.00126511
0.184626
-0.00102759
0.184694
-0.000767235
0.184752
-0.000660252
0.184766
-0.00039142
0.184839
-0.000498343
0.184874
-0.000146046
0.185019
-0.000398793
0.185097
0.000235364
0.18521
0.000281563
0.18512
0.00157992
0.184775
0.00267282
0.183929
0.00511215
0.182492
0.0075191
0.180358
0.0105966
0.177497
0.0137377
0.174325
0.0146173
0.170321
0.0184375
0.167469
0.0115999
0.163039
0.0163475
0.1634
-0.00363196
0.170575
-0.0268851
0.177645
-0.0277899
0.184035
-0.0288328
0.184759
-0.00293375
0.184187
-0.00012199
0.177811
0.0279024
0.167961
0.0398689
-0.0070773
0.176419
-0.00170592
0.176543
-0.00138976
0.176608
-0.00109223
0.17661
-0.000768934
0.176608
-0.000658732
0.176568
-0.000351779
0.176616
-0.000546249
0.176651
-0.000180563
0.176844
-0.000592277
0.177018
6.18882e-05
0.177262
3.72124e-05
0.177345
0.00149759
0.177141
0.00287673
0.17641
0.00584257
0.174983
0.00894585
0.172819
0.0127607
0.1698
0.0167568
0.166441
0.017977
0.162194
0.0226842
0.158854
0.0149401
0.153457
0.021744
0.153325
-0.00350016
0.162007
-0.0355664
0.17036
-0.0361433
0.177474
-0.0359468
0.178116
-0.00357614
0.177029
0.000965822
0.170587
0.0343441
0.159065
0.0513913
-0.00499116
0.168949
-0.00185648
0.169011
-0.0014515
0.169003
-0.00108467
0.168924
-0.000690176
0.168849
-0.000583259
0.168742
-0.000244821
0.168755
-0.00055934
0.168785
-0.000210613
0.169032
-0.000839253
0.169318
-0.000224005
0.169721
-0.000366022
0.17001
0.00120882
0.16998
0.00290725
0.169373
0.00644893
0.167952
0.0103668
0.165752
0.0149607
0.162538
0.0199711
0.158985
0.0215302
0.154512
0.0271568
0.150596
0.0188562
0.144035
0.0283047
0.143115
-0.00257996
0.153394
-0.0458457
0.16335
-0.0460985
0.171481
-0.0440779
0.171956
-0.00405133
0.170264
0.00265734
0.164026
0.0405822
0.15072
0.0646972
-0.000650352
0.161882
-0.00195253
0.16187
-0.00144023
0.161777
-0.000991456
0.161602
-0.000515559
0.161436
-0.000417078
0.161246
-5.50046e-05
0.161212
-0.00052463
0.161232
-0.000230924
0.161538
-0.00114503
0.161953
-0.00063872
0.162543
-0.0009563
0.163078
0.000674025
0.163259
0.00272588
0.162781
0.00692738
0.161367
0.0117807
0.159117
0.0172107
0.155684
0.0234042
0.151935
0.0252791
0.147282
0.0318097
0.142756
0.0233816
0.134853
0.036208
0.132631
-0.000358176
0.144194
-0.0574086
0.156136
-0.0580401
0.165729
-0.0536715
0.166114
-0.00443554
0.163871
0.00490016
0.157962
0.0464907
0.14305
0.0796094
0.00591887
0.155188
-0.0019867
0.155093
-0.00134538
0.1549
-0.000797935
0.154613
-0.000228493
0.154337
-0.000141212
0.154047
0.000235119
0.153948
-0.000426129
0.153952
-0.000234303
0.154316
-0.00150955
0.154881
-0.00120341
0.155691
-0.00176678
0.156516
-0.000150471
0.156951
0.0022906
0.156601
0.00727763
0.155197
0.0131848
0.152873
0.0195345
0.149214
0.0270635
0.145267
0.0292258
0.140484
0.0365927
0.135426
0.0284392
0.126084
0.04555
0.121742
0.00398407
0.133617
-0.069283
0.147866
-0.0722898
0.159609
-0.0654141
0.160316
-0.00514301
0.157785
0.00743198
0.152227
0.0520488
0.136114
0.0957223
0.0143236
0.148845
-0.00195129
0.148656
-0.00115616
0.148347
-0.000488753
0.14793
0.000188577
0.147524
0.000263937
0.147112
0.00064752
0.146932
-0.000246088
0.146909
-0.000210807
0.147332
-0.00193258
0.148066
-0.00193805
0.149132
-0.00283237
0.150299
-0.00131806
0.151031
0.00155908
0.15081
0.00749865
0.149413
0.0145821
0.146983
0.021964
0.143105
0.0309417
0.138954
0.0333764
0.134083
0.0414643
0.128696
0.0338263
0.117972
0.056274
0.110708
0.0112475
0.121344
-0.0799185
0.137756
-0.0887018
0.152384
-0.0800431
0.154186
-0.00694468
0.151857
0.00976135
0.146668
0.0572378
0.129882
0.112508
0.0240099
0.142832
-0.00183867
0.142537
-0.000861337
0.142095
-4.64869e-05
0.141533
0.000750135
0.140975
0.000822141
0.140418
0.00120399
0.140136
3.65625e-05
0.140072
-0.00014703
0.140552
-0.00241271
0.141473
-0.00285878
0.142834
-0.00419352
0.144409
-0.00289273
0.145476
0.000491844
0.14539
0.00758498
0.143981
0.0159905
0.141411
0.0245343
0.137334
0.035019
0.132954
0.0377559
0.128047
0.0463718
0.122598
0.0392751
0.110776
0.0680961
0.100522
0.0215016
0.108524
-0.0879205
0.126005
-0.106183
0.143697
-0.0977351
0.147403
-0.0106509
0.145895
0.0112691
0.141173
0.06196
0.124253
0.129428
0.0344392
0.137131
-0.00164153
0.136719
-0.000449254
0.13613
0.000542073
0.135405
0.00147573
0.13467
0.00155674
0.133947
0.00192689
0.133535
0.000448771
0.133416
-2.78071e-05
0.133951
-0.0029477
0.135069
-0.00397672
0.136773
-0.00589765
0.138827
-0.00494736
0.140268
-0.000948655
0.140326
0.00752648
0.13887
0.017447
0.136127
0.027277
0.131874
0.0392725
0.127213
0.0424161
0.122371
0.0512139
0.117057
0.0445896
0.104644
0.0805089
0.0925532
0.0335925
0.0973759
-0.0927433
0.114013
-0.12282
0.133916
-0.117638
0.139913
-0.016648
0.13976
0.0114221
0.13567
0.0660496
0.119093
0.146005
0.0451645
0.131727
-0.00135369
0.131186
9.19576e-05
0.130439
0.0012889
0.129529
0.00238565
0.128594
0.0024916
0.12768
0.002841
0.127113
0.00101639
0.126918
0.000166403
0.127503
-0.00353282
0.128821
-0.00529413
0.130926
-0.00800329
0.133538
-0.00755859
0.135397
-0.00280747
0.135606
0.00731669
0.134046
0.019007
0.13111
0.030213
0.126686
0.0436963
0.121695
0.047407
0.117054
0.0558554
0.111923
0.0497209
0.0995283
0.0929032
0.0874024
0.0457185
0.0892727
-0.0946136
0.10324
-0.136787
0.123809
-0.138207
0.131955
-0.024794
0.133423
0.00995393
0.130129
0.0693437
0.114275
0.161859
0.0558432
0.126602
-0.000965636
0.125933
0.000760877
0.125008
0.00221369
0.123896
0.00349786
0.122736
0.00365152
0.121605
0.00397197
0.120856
0.0017652
0.120563
0.000459318
0.12119
-0.00415933
0.1227
-0.00680409
0.125279
-0.0105825
0.128531
-0.010811
0.130852
-0.00512798
0.131212
0.00695653
0.129484
0.0207353
0.126344
0.0333524
0.121722
0.0483187
0.116401
0.052728
0.112062
0.0601942
0.10706
0.0547227
0.0952528
0.104711
0.0843908
0.0565804
0.0838505
-0.0940733
0.0941753
-0.147111
0.113977
-0.158009
0.123848
-0.0346642
0.126943
0.00685898
0.124553
0.0717328
0.109697
0.176715
0.0662289
0.12175
-0.000475026
0.12094
0.00157051
0.119826
0.00332752
0.118495
0.00482852
0.117087
0.00506003
0.115715
0.0053442
0.11475
0.00272953
0.114343
0.000866837
0.114991
-0.00480738
0.116679
-0.00849177
0.119812
-0.0137163
0.123797
-0.0147961
0.126632
-0.00796227
0.127121
0.00646686
0.125163
0.0226934
0.121809
0.0367064
0.116933
0.0531945
0.111354
0.0583076
0.107319
0.0642287
0.102336
0.0597058
0.0915483
0.115499
0.0824223
0.0657063
0.0799986
-0.0916495
0.0866035
-0.153716
0.104717
-0.176123
0.115832
-0.0457789
0.120409
0.00228177
0.118971
0.0731704
0.10529
0.190396
0.0761538
0.117156
0.000121303
0.116198
0.00252901
0.114885
0.00464002
0.113321
0.00639256
0.111641
0.00674081
0.110004
0.00698106
0.10879
0.00394293
0.108252
0.00140518
0.108891
-0.00544659
0.110734
-0.0103345
0.11451
-0.0174924
0.119326
-0.0196119
0.122732
-0.0113682
0.12331
0.00588885
0.121071
0.0249323
0.117477
0.0403001
0.112292
0.0583798
0.106566
0.0640331
0.102742
0.0680528
0.0976782
0.0647699
0.0881827
0.124994
0.0807649
0.0731241
0.0769592
-0.0878438
0.080254
-0.157011
0.0961874
-0.192056
0.108078
-0.0576692
0.113913
-0.00355345
0.11342
0.0736637
0.101007
0.202809
0.085511
0.112814
0.000817011
0.111698
0.00364462
0.11018
0.00615856
0.108368
0.00820381
0.106394
0.00871514
0.10447
0.00890529
0.102974
0.00543833
0.102289
0.00209042
0.102878
-0.00603566
0.104847
-0.0123029
0.109341
-0.0219866
0.115093
-0.0253645
0.119135
-0.0154102
0.119748
0.00527592
0.117191
0.0274892
0.113315
0.0441762
0.107785
0.0639105
0.102023
0.0697947
0.0982718
0.071804
0.0931112
0.0699304
0.0850108
0.133095
0.0790705
0.0790644
0.0743583
-0.0831316
0.0749418
-0.157595
0.0884891
-0.205603
0.100718
-0.0698978
0.10754
-0.0103761
0.10794
0.0732636
0.0968259
0.213923
0.0942395
0.108704
0.00161886
0.107431
0.00491745
0.105704
0.00788602
0.103633
0.0102748
0.101346
0.0110022
0.0991139
0.0111371
0.0973034
0.0072489
0.0964559
0.00293792
0.0969438
-0.00652358
0.0989964
-0.0143555
0.104246
-0.0272363
0.111037
-0.0321556
0.115781
-0.0201544
0.116393
0.00466456
0.113498
0.0303837
0.10929
0.0483842
0.10341
0.0697912
0.0976889
0.0755155
0.093884
0.0756089
0.0886632
0.0751512
0.0819248
0.139833
0.0771923
0.0837969
0.0719678
-0.0779071
0.0704812
-0.156108
0.0816554
-0.216778
0.0938374
-0.0820799
0.101364
-0.0179024
0.102574
0.0720534
0.092735
0.223762
0.102312
0.10482
0.00252587
0.103391
0.0063458
0.101454
0.00982317
0.0991125
0.0126166
0.0964955
0.0136192
0.0939376
0.013695
0.0917841
0.00940238
0.0907491
0.00397289
0.0910809
-0.00685534
0.0931575
-0.0164321
0.0991014
-0.0331801
0.106982
-0.0400362
0.112527
-0.0256999
0.113159
0.00403338
0.109946
0.033596
0.105371
0.0529592
0.0991648
0.0759977
0.0935263
0.081154
0.0895779
0.0795572
0.0843509
0.0803782
0.0788536
0.14533
0.0750756
0.0875749
0.0696565
-0.072488
0.0666934
-0.153145
0.0756531
-0.225737
0.0874816
-0.0939084
0.0954358
-0.0258566
0.0973558
0.0701334
0.0887346
0.232383
0.109725
0.101152
0.00353527
0.0995726
0.00792486
0.0974273
0.0119685
0.0948038
0.0152401
0.0918416
0.0165814
0.0889401
0.0165965
0.0864201
0.0119224
0.0851602
0.0052328
0.085278
-0.00697308
0.0872765
-0.0184307
0.0936677
-0.0395713
0.102576
-0.0489447
0.109081
-0.0322048
0.109885
0.00322941
0.106457
0.0370245
0.101524
0.0578916
0.0950431
0.0824788
0.0895037
0.0866933
0.0853647
0.0836963
0.0801834
0.0855595
0.0757626
0.149751
0.0727357
0.0906018
0.0673662
-0.0671185
0.0634256
-0.149204
0.070408
-0.23272
0.0816604
-0.105161
0.0897937
-0.0339899
0.092315
0.0676121
0.0848298
0.239868
0.116496
0.0976884
0.00464476
0.0959663
0.009647
0.0936151
0.0143197
0.0906985
0.0181566
0.0873779
0.0199021
0.0841155
0.0198589
0.0812108
0.0148271
0.0796702
0.00677348
0.0795034
-0.00680631
0.0812365
-0.0201638
0.0875791
-0.0459139
0.0972817
-0.0586473
0.104991
-0.039914
0.106317
0.00190351
0.10291
0.0404308
0.0977075
0.0630945
0.0910306
0.0891557
0.0855988
0.0921252
0.081259
0.088036
0.0761653
0.0906532
0.0726446
0.153272
0.0702163
0.0930301
0.0650762
-0.0619783
0.0605527
-0.144681
0.0658264
-0.237993
0.076358
-0.115692
0.0844625
-0.0420944
0.0874734
0.0646012
0.081028
0.246314
0.12265
0.0944101
0.00585261
0.0925547
0.0115024
0.0899991
0.0168752
0.0867773
0.0213785
0.0830872
0.0235921
0.0794461
0.0235
0.0761447
0.0181285
0.0742545
0.0086637
0.0736836
-0.00623547
0.0748266
-0.0213068
0.0804325
-0.0515198
0.090548
-0.0687628
0.0997488
-0.0491148
0.102143
-0.000491102
0.0991555
0.0434187
0.0938678
0.0683823
0.0871079
0.0959157
0.0817969
0.0974361
0.077275
0.092558
0.0722994
0.0956288
0.0695093
0.156062
0.0675681
0.0949713
0.0627841
-0.0571943
0.0579784
-0.139875
0.0618127
-0.241828
0.0715415
-0.125421
0.0794526
-0.0500055
0.0828451
0.0612087
0.0773372
0.251822
0.128225
0.0912736
0.00715602
0.0892989
0.0134771
0.0865401
0.0196341
0.0830026
0.0249159
0.0789369
0.0276578
0.0748986
0.0275384
0.0711961
0.0218309
0.0688811
0.0109787
0.0676885
-0.00504288
0.0677886
-0.0214069
0.0720158
-0.0557469
0.0821403
-0.0788873
0.0930477
-0.0600221
0.0971112
-0.00455467
0.0950454
0.0454845
0.0899481
0.0734795
0.0832527
0.102611
0.0780893
0.102599
0.0734231
0.0972242
0.0685868
0.100465
0.0663756
0.158273
0.0648381
0.0965087
0.060494
-0.0528502
0.0556307
-0.135012
0.0582799
-0.244477
0.0671688
-0.13431
0.0747634
-0.0576002
0.0784376
0.0575345
0.073765
0.256494
0.133261
0.0882006
0.00855311
0.0861263
0.0155514
0.0831686
0.0225918
0.0793142
0.0287703
0.0748747
0.0320973
0.0704251
0.031988
0.0663281
0.0259279
0.0634947
0.0138121
0.0613569
-0.00290511
0.0599822
-0.0200323
0.0625462
-0.0583109
0.0723989
-0.08874
0.084997
-0.0726202
0.0911563
-0.010714
0.0904948
0.046146
0.0859037
0.0780706
0.0794448
0.10907
0.0744707
0.107574
0.0697104
0.101984
0.0650275
0.105148
0.0632666
0.160034
0.0620678
0.0977076
0.058211
-0.0489934
0.0534555
-0.130257
0.0551546
-0.246176
0.0631944
-0.14235
0.0703866
-0.0647924
0.0742529
0.0536682
0.0703178
0.26043
0.137801
0.0850694
0.0100341
0.082922
0.0176988
0.0797807
0.0257331
0.0756269
0.0329241
0.0708289
0.0368953
0.0659713
0.0368456
0.061492
0.0304072
0.0580076
0.0172965
0.054582
0.000520477
0.0515737
-0.0170239
0.0527035
-0.0594408
0.0621399
-0.0981763
0.0760889
-0.0865691
0.08446
-0.0190851
0.085518
0.045088
0.08172
0.0818686
0.0756716
0.115118
0.0709387
0.112307
0.0661404
0.106783
0.0616204
0.109668
0.0602058
0.161449
0.0592928
0.0986206
0.0559406
-0.0456411
0.0514118
-0.125728
0.0523714
-0.247135
0.0595719
-0.14955
0.0663087
-0.0715292
0.0702888
0.0496881
0.0669997
0.263719
0.141891
0.0816999
0.0115548
0.0795251
0.0198736
0.0762401
0.0290181
0.0718348
0.0373294
0.0667154
0.0420147
0.0614836
0.0420775
0.0566294
0.0352614
0.0523139
0.0216119
0.0474243
0.00541009
0.0430583
-0.0126579
0.0433688
-0.0597513
0.0522749
-0.107082
0.0669708
-0.101265
0.0773417
-0.029456
0.0802183
0.0422115
0.0774177
0.0846692
0.0719317
0.120604
0.0674938
0.116744
0.0627143
0.111562
0.0583635
0.114019
0.0572151
0.162597
0.0565438
0.0992919
0.0536893
-0.0427866
0.0494691
-0.121508
0.0498707
-0.247537
0.0562586
-0.155938
0.0625136
-0.0777842
0.0665401
0.0456617
0.0638131
0.266446
0.145573
0.0778523
0.013051
0.0757303
0.0219957
0.072385
0.0323633
0.0678197
0.0418947
0.0624495
0.0473849
0.0569168
0.0476102
0.0516784
0.0404998
0.0463828
0.0269076
0.0401147
0.0116782
0.0350694
-0.0076126
0.0352781
-0.0599599
0.043488
-0.115292
0.0581957
-0.115973
0.0701466
-0.0414069
0.0747478
0.0376103
0.0730463
0.0863707
0.0682345
0.125416
0.0641397
0.120839
0.0594313
0.116271
0.0552544
0.118196
0.0543126
0.163539
0.053846
0.0997584
0.0514656
-0.0404062
0.0476049
-0.117647
0.0475993
-0.247532
0.0532168
-0.161556
0.0589838
-0.0835512
0.0629996
0.0416458
0.0607583
0.268687
0.148889
0.0732742
0.0144642
0.0713073
0.0239625
0.0680444
0.0356263
0.0634648
0.0464743
0.0579603
0.0528893
0.0522354
0.0533351
0.0465919
0.0461432
0.0402683
0.0332311
0.0330331
0.0189134
0.028153
-0.00273246
0.0288292
-0.0606361