/*--------------------------------*- C++ -*----------------------------------*\
  =========                 |
  \\      /  F ield         | OpenFOAM: The Open Source CFD Toolbox
   \\    /   O peration     | Website:  https://openfoam.org
    \\  /    A nd           | Version:  7
     \\/     M anipulation  |
\*---------------------------------------------------------------------------*/
FoamFile
{
    version     2.0;
    format      ascii;
    class       volVectorField;
    location    "245";
    object      U;
}
// * * * * * * * * * * * * * * * * * * * * * * * * * * * * * * * * * * * * * //

dimensions      [0 1 -1 0 0 0 0];

internalField   nonuniform List<vector> 
2125
(
(1.32523 -0.163724 -8.55671e-21)
(1.30376 -0.153686 -2.53028e-20)
(1.32144 -0.151096 -4.2185e-21)
(1.21245 -0.125034 1.78184e-20)
(1.28404 -0.138467 -2.04257e-21)
(1.31355 -0.137897 2.0833e-20)
(0.807498 -0.0503148 5.17318e-20)
(1.01354 -0.0814844 -1.06813e-19)
(1.16465 -0.105866 2.14398e-20)
(1.25642 -0.122458 -1.62399e-20)
(1.30022 -0.123936 -2.21133e-20)
(0.492242 -0.0108981 1.08087e-20)
(0.719659 -0.0338143 -8.77382e-20)
(0.935045 -0.0618227 5.86917e-20)
(1.10587 -0.0862764 -4.48555e-20)
(1.2193 -0.105611 4.35647e-20)
(1.27977 -0.109024 -1.76067e-21)
(0.233917 0.00190175 -4.6019e-22)
(0.414591 -0.00398994 3.63836e-20)
(0.629665 -0.0198939 1.73138e-21)
(0.848244 -0.0433756 -4.75355e-20)
(1.03559 -0.0665241 -1.23897e-21)
(1.17111 -0.0879715 -1.87733e-20)
(1.2502 -0.0929787 2.17805e-20)
(0.072922 -0.00364636 6.93938e-21)
(0.183814 0.000791506 1.92865e-20)
(0.342136 0.000296278 -3.25004e-20)
(0.540158 -0.00874841 7.60911e-20)
(0.755146 -0.0266533 -3.83443e-22)
(0.954015 -0.0469909 -6.012e-21)
(1.11059 -0.0697035 -3.66231e-20)
(1.20916 -0.0757312 -4.7461e-21)
(0.0481512 -0.00768593 5.47393e-21)
(0.139964 -0.00122441 -1.40155e-20)
(0.276006 0.00255911 -1.61241e-20)
(0.453687 -0.000295705 -1.02643e-20)
(0.658488 -0.0120927 -7.64173e-21)
(0.862302 -0.0281597 8.91624e-21)
(1.03702 -0.0511304 3.5703e-20)
(1.15445 -0.0572659 2.53367e-20)
(-0.0104461 -0.0153531 2.96211e-20)
(0.0276504 -0.0113162 -6.83534e-20)
(0.10216 -0.00347693 3.81734e-20)
(0.216786 0.00353127 3.32726e-20)
(0.372361 0.00585411 -8.32332e-20)
(0.561418 8.22343e-05 2.19853e-20)
(0.762661 -0.010547 -1.39161e-21)
(0.950826 -0.0326919 1.47194e-20)
(1.08326 -0.0379889 -2.80599e-20)
(-0.0153577 -0.0122901 8.34349e-20)
(-0.0165283 -0.0180114 -2.30565e-20)
(0.0110089 -0.0141076 3.36939e-20)
(0.070011 -0.00534552 2.11815e-20)
(0.164589 0.00397828 -1.15115e-20)
(0.297634 0.010338 2.66755e-20)
(0.467006 0.00998106 -1.08034e-20)
(0.658252 0.00538486 6.00082e-20)
(0.853415 -0.0148189 -9.17893e-20)
(0.995669 -0.0186193 -2.95734e-20)
(-0.0154137 -0.0129461 -2.45996e-20)
(-0.0206765 -0.0196172 9.23554e-20)
(-0.00218629 -0.0156937 -7.2749e-20)
(0.0430341 -0.00629917 -2.09294e-21)
(0.119195 0.00460621 -3.35485e-20)
(0.230297 0.0139126 3.62656e-20)
(0.377789 0.0180566 3.87148e-20)
(0.552674 0.0193084 -1.85644e-20)
(0.748365 0.00222816 1.54071e-20)
(0.886731 -0.000243537 1.77395e-20)
(-0.0149135 -0.0130655 5.02376e-21)
(-0.0231112 -0.0199868 -2.54061e-20)
(-0.0123233 -0.0157884 3.16082e-20)
(0.0207258 -0.0059267 -2.96548e-20)
(0.0802016 0.0059934 -3.60473e-20)
(0.170608 0.0173108 -1.59007e-20)
(0.295514 0.0249757 -5.81618e-20)
(0.449715 0.0309897 3.522e-20)
(0.639254 0.0206943 6.07721e-20)
(0.762465 0.0055388 -1.68932e-20)
(-0.0139058 -0.0125682 1.55704e-20)
(-0.0240325 -0.0189772 1.2044e-20)
(-0.0197572 -0.0142024 -2.84534e-21)
(0.0026068 -0.00395462 -5.14691e-20)
(0.0471436 0.00855066 5.33029e-20)
(0.118488 0.0211281 5.90449e-20)
(0.221215 0.0313997 1.97411e-20)
(0.353086 0.0406038 -3.34232e-21)
(0.523937 0.0431307 -6.33508e-20)
(0.663594 0.00979491 1.9229e-20)
(-0.0124449 -0.0113939 -4.69142e-20)
(-0.0236334 -0.0164982 -5.99726e-21)
(-0.0248176 -0.0108414 1.26411e-20)
(-0.0117517 -0.000245298 4.00146e-21)
(0.0195646 0.0125104 1.61194e-20)
(0.0736872 0.0257602 -9.47254e-20)
(0.155456 0.0378435 5.55399e-20)
(0.265229 0.0491652 -6.3419e-20)
(0.410805 0.0630921 4.4658e-20)
(0.564656 0.0277511 4.83383e-20)
(-0.0105984 -0.00950572 2.06774e-20)
(-0.0221148 -0.0125229 -1.32926e-20)
(-0.0278055 -0.00570123 5.91407e-21)
(-0.0227376 0.00521344 -2.79712e-20)
(-0.00296235 0.0179466 3.72078e-21)
(0.0358872 0.0313892 -7.25782e-21)
(0.0985176 0.044583 -3.449e-20)
(0.187321 0.057451 1.78889e-20)
(0.306116 0.0781461 3.18062e-20)
(0.461513 0.0489153 -4.39056e-20)
(-0.00844914 -0.00689483 -2.85517e-20)
(-0.0196844 -0.00708198 -4.21368e-20)
(-0.0290137 0.00114676 3.31271e-20)
(-0.0307205 0.0123307 3.19909e-20)
(-0.0208516 0.0247982 -7.83547e-20)
(0.0047279 0.0380223 7.65527e-20)
(0.0503932 0.0516866 -8.35754e-20)
(0.119791 0.0655597 2.21706e-20)
(0.213167 0.0888125 -2.31146e-20)
(0.356588 0.0673571 -3.30202e-20)
(-0.00609416 -0.00358306 1.46146e-20)
(-0.016561 -0.000257888 3.37524e-20)
(-0.0287413 0.00956952 8.55771e-21)
(-0.0360737 0.0209495 9.22156e-21)
(-0.0345349 0.0329128 -4.45418e-22)
(-0.0202192 0.0455363 1.3477e-20)
(0.01084 0.0590608 2.57871e-20)
(0.0629249 0.0732867 4.63449e-20)
(0.133598 0.0961178 -4.47835e-20)
(0.256685 0.0813822 1.40348e-20)
(-0.0036408 0.000378917 -3.57346e-20)
(-0.0129734 0.00782461 9.01313e-22)
(-0.0272988 0.0193963 1.16521e-20)
(-0.039186 0.0308832 -2.05743e-20)
(-0.0444918 0.0420984 3.99752e-20)
(-0.0394921 0.053743 -9.31767e-20)
(-0.0205634 0.0665171 4.87189e-20)
(0.0166581 0.0803609 -4.29636e-20)
(0.0676546 0.100471 7.90806e-20)
(0.168102 0.0904739 1.84166e-20)
(-0.00120025 0.0049165 1.8655e-20)
(-0.00915444 0.0170094 -3.85848e-20)
(-0.0250044 0.0304321 -1.15436e-20)
(-0.0404804 0.0419296 1.70409e-20)
(-0.0512756 0.0521605 2.83944e-20)
(-0.0537654 0.0624488 4.3629e-21)
(-0.0445931 0.0738477 -1.63455e-20)
(-0.0199851 0.0863747 3.64801e-20)
(0.0147719 0.102061 -1.91427e-20)
(0.0947295 0.0950043 -2.15951e-21)
(0.00111896 0.00993774 5.19495e-20)
(-0.00533324 0.0271225 1.43174e-20)
(-0.022185 0.0424801 2.73399e-21)
(-0.040406 0.0538951 -3.79373e-20)
(-0.055497 0.0629352 3.36429e-20)
(-0.0638753 0.0715316 1.0753e-20)
(-0.0624309 0.0810115 5.3252e-21)
(-0.0482501 0.0913436 -1.14119e-20)
(-0.0253886 0.102066 1.19042e-20)
(0.0371702 0.0958752 1.86462e-20)
(0.003218 0.0153407 -3.92844e-20)
(-0.00172337 0.0379829 2.19235e-20)
(-0.0191545 0.0553524 -2.28224e-21)
(-0.039406 0.0666223 5.466e-20)
(-0.0577914 0.0743139 -5.92775e-20)
(-0.0707336 0.0809613 1.91633e-20)
(-0.0753399 0.0881155 -1.16763e-20)
(-0.0693933 0.0956318 -9.9902e-21)
(-0.0551022 0.10159 -2.87587e-20)
(-0.00852208 0.0938661 1.11387e-20)
(0.00501285 0.0210201 1.68484e-20)
(0.00148695 0.0494099 -4.34854e-20)
(-0.0161991 0.0688733 -2.44778e-20)
(-0.0378969 0.0799813 -3.83984e-20)
(-0.0587702 0.08624 9.98975e-21)
(-0.0752444 0.0907917 -3.42006e-21)
(-0.0846284 0.0953953 -3.0583e-20)
(-0.0852357 0.0997863 -6.46545e-21)
(-0.0779285 0.101281 -6.11209e-22)
(-0.0456268 0.0905241 1.28995e-20)
(0.0064372 0.0268711 3.09418e-20)
(0.00414249 0.0612267 3.07241e-21)
(-0.0135621 0.0828788 1.33103e-20)
(-0.0362394 0.0938636 5.86355e-20)
(-0.0589682 0.0986926 5.76451e-20)
(-0.0782037 0.10113 -9.94013e-21)
(-0.0914625 0.103163 2.50094e-20)
(-0.0974805 0.104462 -1.57665e-20)
(-0.0963369 0.102059 -8.9486e-21)
(-0.0763567 0.0885278 -1.88912e-20)
(0.00744365 0.0327911 -4.11303e-20)
(0.00612592 0.0732605 3.45509e-20)
(-0.0114325 0.0972111 1.75934e-20)
(-0.0347156 0.10817 -3.33513e-20)
(-0.0588012 0.111661 -3.77788e-20)
(-0.080221 0.11209 1.22477e-20)
(-0.0967117 0.111712 1.29513e-21)
(-0.107356 0.110228 4.95725e-20)
(-0.111846 0.104694 2.88343e-20)
(-0.102508 0.0891562 -1.11164e-20)
(0.00800326 0.0386798 2.26339e-20)
(0.00735931 0.0853397 -1.00528e-20)
(-0.00993959 0.111711 -3.62313e-20)
(-0.0335182 0.122793 1.57606e-20)
(-0.0585475 0.125115 -8.73984e-22)
(-0.0816866 0.123741 -4.99194e-20)
(-0.1009 0.121239 -2.57211e-21)
(-0.115553 0.117427 -4.67895e-20)
(-0.125195 0.109555 -2.03376e-20)
(-0.125024 0.0927237 3.28137e-20)
(0.0081043 0.0444371 -2.90259e-20)
(0.0078029 0.0972892 -2.82044e-21)
(-0.00915316 0.12621 -1.92845e-21)
(-0.0327514 0.137608 -3.3085e-20)
(-0.0583499 0.138987 4.71398e-21)
(-0.0827811 0.136077 3.08797e-20)
(-0.104231 0.131795 -1.59859e-20)
(-0.122283 0.126138 2.60123e-20)
(-0.136473 0.116613 1.12309e-20)
(-0.143997 0.098992 -1.20403e-20)
(0.00775063 0.0499614 1.82098e-20)
(0.00745173 0.108927 3.57111e-20)
(-0.00908946 0.140523 -8.19084e-21)
(-0.0324409 0.152458 1.67396e-20)
(-0.0582354 0.153156 1.07823e-20)
(-0.0835128 0.149001 -2.69849e-20)
(-0.106659 0.143286 6.64139e-21)
(-0.127402 0.136214 -6.68524e-21)
(-0.145316 0.125543 8.68379e-21)
(-0.158927 0.107411 -1.78471e-20)
(0.00696025 0.0551481 -6.19373e-21)
(0.00633142 0.120061 -2.36027e-20)
(-0.00971998 0.154446 3.32645e-20)
(-0.0325502 0.167154 -1.64869e-20)
(-0.0581439 0.167446 7.73076e-21)
(-0.0837699 0.162332 2.30494e-20)
(-0.107977 0.155486 -1.98627e-20)
(-0.13056 0.147328 -4.6109e-21)
(-0.151129 0.135832 4.64318e-22)
(-0.169038 0.117282 2.10757e-20)
(0.00576425 0.0598899 -2.02095e-21)
(0.00449365 0.13049 -7.48273e-21)
(-0.0109818 0.167754 -2.99543e-20)
(-0.0329996 0.181474 5.97057e-21)
(-0.0579614 0.181633 4.92764e-21)
(-0.0833744 0.175817 -1.86661e-21)
(-0.107906 0.168074 -8.87425e-22)
(-0.131337 0.159041 -7.87517e-21)
(-0.153283 0.146865 1.12236e-20)
(-0.173548 0.127864 7.49177e-21)
(0.00420605 0.0640783 5.06929e-21)
(0.00201196 0.140004 9.06584e-21)
(-0.0127881 0.180208 2.32399e-20)
(-0.033685 0.195171 -1.19841e-20)
(-0.0575504 0.195453 -1.02241e-20)
(-0.0821318 0.189154 -3.85958e-22)
(-0.106167 0.180672 1.97366e-20)
(-0.129351 0.170859 9.61469e-21)
(-0.151258 0.158007 -7.94061e-21)
(-0.171863 0.138445 -9.34895e-21)
(0.00234065 0.0676077 -8.86362e-22)
(-0.00102191 0.148391 1.9325e-21)
(-0.0150372 0.191557 -4.35123e-21)
(-0.0344941 0.207975 3.07763e-21)
(-0.0567761 0.208619 2.869e-21)
(-0.0798691 0.202012 2.01854e-21)
(-0.102539 0.192878 -4.0688e-21)
(-0.124335 0.182282 -1.67202e-20)
(-0.144733 0.168654 -2.5116e-21)
(-0.163668 0.148379 4.963e-21)
(0.000233695 0.0703805 1.37107e-21)
(-0.00450135 0.155447 -3.43745e-21)
(-0.0176204 0.201546 -2.75715e-21)
(-0.0353199 0.219612 1.93093e-21)
(-0.0555255 0.220833 -2.67591e-21)
(-0.0764619 0.214056 -1.27364e-21)
(-0.0968915 0.204301 1.33812e-21)
(-0.116172 0.192845 6.76272e-21)
(-0.133629 0.178267 -2.40348e-21)
(-0.148983 0.157098 2.47227e-21)
(1.10022 -0.00253434 -2.48367e-23)
(1.10116 -0.00248069 6.97684e-23)
(1.10207 -0.002425 -7.76288e-23)
(1.10295 -0.00236713 2.57732e-23)
(1.1038 -0.00230698 7.80925e-23)
(1.10463 -0.00224432 5.46498e-24)
(1.10542 -0.00217926 -3.8274e-23)
(1.10619 -0.00211109 -7.2022e-23)
(1.10693 -0.00204136 4.98767e-23)
(1.10762 -0.00196541 -2.27639e-23)
(1.10832 -0.00189559 1.68622e-23)
(1.10144 -0.00752377 -2.00339e-23)
(1.10241 -0.00735386 -9.19342e-24)
(1.10335 -0.00717919 1.68248e-23)
(1.10427 -0.00699951 4.83152e-23)
(1.10515 -0.00681468 -2.76726e-24)
(1.10601 -0.00662422 -1.14729e-23)
(1.10684 -0.00642859 -1.99011e-23)
(1.10764 -0.00622574 6.66607e-23)
(1.10841 -0.00602041 1.92631e-23)
(1.10913 -0.00579872 -1.8832e-23)
(1.10987 -0.00559785 -3.26206e-23)
(1.10366 -0.0124074 -3.95561e-23)
(1.10469 -0.0121301 -1.55954e-24)
(1.10569 -0.0118457 1.94268e-24)
(1.10667 -0.0115536 1.2048e-22)
(1.10761 -0.0112538 -1.70491e-22)
(1.10853 -0.0109453 4.6962e-23)
(1.10943 -0.010629 5.22244e-23)
(1.11029 -0.0103015 3.30005e-23)
(1.11113 -0.00997068 -3.4118e-23)
(1.11192 -0.00961338 -4.1449e-24)
(1.11275 -0.0092917 2.22046e-24)
(1.10676 -0.0173087 5.49953e-23)
(1.10788 -0.0169255 -3.53743e-23)
(1.10897 -0.016533 1.10958e-22)
(1.11003 -0.0161305 -4.21795e-23)
(1.11107 -0.015718 -2.67729e-23)
(1.11208 -0.0152944 -1.37126e-22)
(1.11307 -0.0148609 6.31555e-24)
(1.11403 -0.0144127 5.63457e-24)
(1.11497 -0.0139614 4.86209e-23)
(1.11586 -0.0134739 -4.31334e-23)
(1.11681 -0.0130388 6.14524e-23)
(1.11064 -0.0222598 5.33124e-23)
(1.11186 -0.0217734 -3.79687e-23)
(1.11306 -0.0212759 -2.89554e-23)
(1.11423 -0.0207668 -1.24979e-23)
(1.11539 -0.020246 6.88334e-23)
(1.11652 -0.0197121 1.07017e-22)
(1.11762 -0.019167 -1.02067e-24)
(1.1187 -0.0186042 9.70631e-23)
(1.11978 -0.0180395 -2.95452e-23)
(1.12079 -0.0174287 2.27536e-22)
(1.12189 -0.0168898 -1.13514e-22)
(1.11519 -0.0273243 -7.1476e-23)
(1.11654 -0.0267369 8.41595e-23)
(1.11787 -0.0261372 -6.72233e-23)
(1.11918 -0.0255244 -1.96363e-22)
(1.12047 -0.0248987 2.36236e-23)
(1.12173 -0.0242584 -1.49408e-22)
(1.12299 -0.0236062 7.72695e-23)
(1.12421 -0.0229337 2.76495e-22)
(1.12544 -0.0222617 -3.10227e-23)
(1.1266 -0.021533 -2.49245e-22)
(1.12789 -0.0208994 -8.68614e-23)
(1.12033 -0.032531 3.82864e-24)
(1.12183 -0.0318439 -7.47506e-23)
(1.1233 -0.0311435 2.14848e-22)
(1.12476 -0.0304293 1.05296e-22)
(1.12621 -0.0297014 4.21653e-23)
(1.12763 -0.0289581 8.0042e-23)
(1.12905 -0.028203 -2.28626e-22)
(1.13044 -0.0274253 -4.26803e-22)
(1.13184 -0.0266518 -1.91438e-22)
(1.13318 -0.0258103 4.69487e-24)
(1.13469 -0.0250913 3.92795e-23)
(1.12598 -0.037906 1.45774e-22)
(1.12764 -0.0371198 1.181e-22)
(1.12928 -0.0363201 1.577e-22)
(1.13091 -0.0355063 -2.99599e-22)
(1.13253 -0.0346787 3.65867e-22)
(1.13413 -0.0338353 -1.02859e-22)
(1.13573 -0.0329809 3.42746e-22)
(1.1373 -0.032102 -2.03274e-22)
(1.1389 -0.0312329 3.22772e-22)
(1.14043 -0.0302829 4.49061e-22)
(1.14217 -0.029488 1.75812e-22)
(1.13208 -0.0434618 1.39457e-22)
(1.13391 -0.0425765 1.83946e-23)
(1.13573 -0.0416778 -4.70613e-22)
(1.13754 -0.0407652 1.72233e-22)
(1.13935 -0.0398395 -5.46344e-23)
(1.14114 -0.038898 -5.12625e-23)
(1.14294 -0.0379473 2.89911e-22)
(1.14471 -0.0369704 -3.36645e-23)
(1.14652 -0.0360106 -3.37051e-22)
(1.14826 -0.034956 -6.97411e-22)
(1.15025 -0.0340941 7.07232e-23)
(1.13856 -0.0492058 -2.38565e-22)
(1.14058 -0.0482197 8.47458e-23)
(1.14259 -0.047221 6.27977e-22)
(1.1446 -0.0462091 4.14475e-22)
(1.1466 -0.0451854 -4.64804e-22)
(1.1486 -0.0441466 -2.30655e-22)
(1.15061 -0.0431014 -2.46316e-22)
(1.15259 -0.0420285 1.43649e-22)
(1.15463 -0.0409821 2.6641e-22)
(1.15658 -0.0398254 4.0845e-22)
(1.15885 -0.0389043 -1.41258e-22)
(1.14537 -0.0551346 5.29054e-23)
(1.14759 -0.0540446 -7.22811e-22)
(1.1498 -0.0529432 8.7839e-24)
(1.15202 -0.0518299 -5.8111e-22)
(1.15423 -0.0507069 3.82393e-22)
(1.15644 -0.04957 5.63371e-22)
(1.15867 -0.0484305 -8.68723e-23)
(1.16087 -0.0472621 -4.39294e-22)
(1.16314 -0.0461315 -2.29502e-22)
(1.16532 -0.0448741 2.6468e-22)
(1.16787 -0.0438996 -2.45269e-22)
(1.15005 -0.0624267 3.57196e-22)
(1.15247 -0.0612378 4.85322e-22)
(1.1549 -0.0600386 -3.78175e-23)
(1.15732 -0.0588297 -8.78659e-22)
(1.15975 -0.0576109 -5.03528e-22)
(1.16218 -0.056385 -4.14767e-22)
(1.16461 -0.0551469 7.14e-22)
(1.16705 -0.0539112 9.8011e-22)
(1.16948 -0.0526457 3.60814e-22)
(1.17199 -0.051431 2.9968e-23)
(1.17441 -0.0500726 -4.66086e-22)
(1.17724 -0.0490471 1.01604e-21)
(1.1572 -0.0688062 -2.13963e-22)
(1.15984 -0.0674983 -9.76638e-22)
(1.16247 -0.0661818 1.38465e-22)
(1.16511 -0.0648581 3.72281e-22)
(1.16775 -0.0635267 3.6852e-22)
(1.1704 -0.0621916 -5.03505e-22)
(1.17305 -0.0608467 -9.49018e-22)
(1.17572 -0.0595099 -1.87215e-22)
(1.17838 -0.0581428 4.73619e-22)
(1.18112 -0.0568409 1.01643e-21)
(1.18377 -0.0553785 -3.08797e-22)
(1.18689 -0.0542998 -1.41678e-21)
(1.16458 -0.0753317 6.50616e-22)
(1.16743 -0.073893 1.89201e-22)
(1.17028 -0.072448 3.90716e-22)
(1.17314 -0.0709985 -7.94809e-23)
(1.176 -0.0695441 -5.23765e-22)
(1.17886 -0.0680899 3.76891e-23)
(1.18173 -0.0666288 -1.58227e-22)
(1.18463 -0.0651822 -8.92026e-22)
(1.18751 -0.0637053 -1.6026e-21)
(1.19048 -0.0623087 -2.16017e-21)
(1.19336 -0.0607364 2.20613e-21)
(1.19675 -0.059596 3.97993e-23)
(1.17217 -0.0819723 9.98142e-22)
(1.17524 -0.0803881 -3.9092e-22)
(1.17831 -0.0787999 -3.50373e-22)
(1.18138 -0.0772103 8.2758e-23)
(1.18446 -0.0756188 5.32451e-22)
(1.18754 -0.0740317 1.06251e-21)
(1.19062 -0.072441 -6.83621e-22)
(1.19373 -0.0708716 1.25026e-21)
(1.19682 -0.0692728 -5.01989e-22)
(1.20001 -0.0677689 -6.05083e-22)
(1.20312 -0.066077 -2.48905e-21)
(1.20677 -0.0648585 -5.28611e-22)
(1.17997 -0.0887051 -7.70832e-22)
(1.18326 -0.0869547 6.69295e-22)
(1.18654 -0.0852031 1.19048e-21)
(1.18983 -0.0834532 6.60139e-22)
(1.19311 -0.0817049 -3.94615e-22)
(1.1964 -0.0799652 -1.62843e-21)
(1.19969 -0.0782256 2.60831e-21)
(1.203 -0.0765139 -7.06535e-22)
(1.20629 -0.0747751 1.63782e-21)
(1.20968 -0.073144 -1.24081e-21)
(1.213 -0.0713186 1.71017e-21)
(1.21688 -0.0699959 1.58866e-21)
(1.18798 -0.0954826 -1.27356e-22)
(1.19149 -0.0935421 -8.90845e-22)
(1.19498 -0.0916031 -1.15848e-21)
(1.19847 -0.0896688 2.42201e-22)
(1.20195 -0.0877398 2.0336e-21)
(1.20544 -0.0858235 -1.18913e-21)
(1.20892 -0.0839113 2.82188e-22)
(1.21241 -0.0820323 -3.93576e-21)
(1.21589 -0.08013 -6.11632e-22)
(1.21945 -0.0783439 2.79017e-21)
(1.22297 -0.0763654 4.79181e-23)
(1.22705 -0.0749013 -3.27963e-21)
(1.19621 -0.102271 4.63968e-23)
(1.19992 -0.100111 3.43916e-22)
(1.20362 -0.0979536 1.23751e-21)
(1.2073 -0.0958034 -9.52092e-22)
(1.21097 -0.0936622 -2.1722e-21)
(1.21464 -0.0915371 1.06727e-21)
(1.2183 -0.0894219 8.51507e-22)
(1.22196 -0.0873437 5.78569e-21)
(1.2256 -0.0852495 3.22783e-22)
(1.22932 -0.0832727 -2.8455e-21)
(1.233 -0.0811167 4.99731e-22)
(1.23727 -0.0794603 -7.24068e-22)
(1.20466 -0.109029 -2.38253e-22)
(1.20858 -0.106612 2.35026e-22)
(1.21248 -0.104201 -2.80806e-22)
(1.21635 -0.101798 1.52975e-21)
(1.2202 -0.0994071 4.15534e-21)
(1.22402 -0.0970324 4.29804e-21)
(1.22783 -0.094675 -6.51491e-21)
(1.23164 -0.0923532 1.00973e-21)
(1.23542 -0.0900317 3.48437e-21)
(1.23927 -0.0878172 7.07669e-21)
(1.24311 -0.085458 -1.14944e-21)
(1.24753 -0.0835434 1.7064e-21)
(1.21337 -0.115703 8.99308e-22)
(1.21749 -0.112985 5.86063e-22)
(1.22158 -0.110278 -2.02997e-21)
(1.22562 -0.107579 -1.29772e-21)
(1.22964 -0.1049 -1.60421e-21)
(1.23361 -0.102233 4.12178e-22)
(1.23757 -0.0995951 3.84463e-21)
(1.24149 -0.0969763 -3.33778e-21)
(1.2454 -0.0943853 -1.74285e-21)
(1.24933 -0.0918629 -7.57055e-21)
(1.25332 -0.0892684 2.21074e-21)
(1.25784 -0.0869986 8.26311e-21)
(1.22239 -0.122251 1.78361e-21)
(1.2267 -0.119183 -5.07465e-22)
(1.23096 -0.116128 1.21345e-21)
(1.23516 -0.113077 6.9353e-22)
(1.23934 -0.110058 -4.6021e-21)
(1.24344 -0.107042 -8.52191e-21)
(1.24756 -0.104085 6.08628e-21)
(1.25157 -0.101112 5.33389e-22)
(1.25564 -0.098223 -3.52857e-21)
(1.25958 -0.0953017 7.33587e-21)
(1.26371 -0.0924401 3.96759e-21)
(1.2682 -0.0896553 -2.24207e-21)
(1.23176 -0.128633 -5.19991e-22)
(1.23626 -0.125164 -1.1098e-21)
(1.24072 -0.121711 -8.13462e-22)
(1.24506 -0.118251 -1.44483e-21)
(1.24941 -0.114833 -2.95475e-21)
(1.25358 -0.111388 4.13281e-21)
(1.25787 -0.108045 -1.11371e-20)
(1.26188 -0.104619 -6.32968e-21)
(1.26616 -0.101393 3.27574e-21)
(1.26996 -0.097945 -7.5817e-21)
(1.27427 -0.0948066 -8.05985e-21)
(1.27833 -0.0912561 -1.06043e-20)
(1.24156 -0.134782 -3.1053e-21)
(1.24626 -0.130855 2.26332e-21)
(1.25093 -0.126951 2.18837e-21)
(1.25543 -0.123037 -1.35165e-21)
(1.25999 -0.119176 1.40319e-21)
(1.26422 -0.115244 5.71378e-21)
(1.2687 -0.111449 1.64097e-20)
(1.27249 -0.10743 1.37018e-20)
(1.27692 -0.103769 -8.97518e-21)
(1.28007 -0.0995449 6.3615e-21)
(1.28457 -0.0960882 1.15019e-21)
(1.28726 -0.0913563 7.65465e-21)
(1.25192 -0.140665 1.15946e-21)
(1.25681 -0.136203 -5.1722e-21)
(1.26166 -0.13176 -8.70145e-21)
(1.26629 -0.127306 -5.90995e-21)
(1.27103 -0.122917 1.56939e-20)
(1.27524 -0.118432 -6.87357e-21)
(1.27991 -0.114126 -1.32067e-20)
(1.28322 -0.109419 -7.97715e-21)
(1.28776 -0.105233 3.39211e-21)
(1.2893 -0.09991 1.8211e-21)
(1.29373 -0.0960067 -7.44172e-21)
(1.29306 -0.0894071 -7.08584e-21)
(1.26301 -0.146278 3.15248e-22)
(1.2681 -0.1412 1.092e-21)
(1.2731 -0.136112 5.29724e-21)
(1.27772 -0.130991 -3.52237e-22)
(1.28241 -0.125893 -5.53291e-21)
(1.28625 -0.120674 -9.4949e-21)
(1.29073 -0.115629 2.30888e-21)
(1.29294 -0.110072 -1.31531e-22)
(1.29726 -0.105198 8.87636e-21)
(1.29588 -0.0985271 3.31775e-21)
(1.29985 -0.0940456 9.31797e-21)
(1.29246 -0.0847396 4.58128e-22)
(1.27487 -0.151528 3.67327e-21)
(1.28009 -0.145758 2.08909e-22)
(1.2851 -0.139944 1.49763e-20)
(1.28958 -0.134069 1.20489e-20)
(1.29389 -0.128111 -1.07141e-20)
(1.2969 -0.121979 4.26667e-21)
(1.30032 -0.115825 -3.77301e-21)
(1.30023 -0.109082 3.4626e-21)
(1.30292 -0.102922 -4.76002e-21)
(1.29635 -0.0945324 4.80381e-21)
(1.29878 -0.0890516 -1.12764e-20)
(1.27992 -0.0762905 1.33801e-20)
(1.28717 -0.156124 -7.53935e-21)
(1.29223 -0.14951 5.59969e-21)
(1.29686 -0.142836 -1.27361e-20)
(1.30077 -0.136098 5.58036e-21)
(1.30414 -0.129197 2.04472e-20)
(1.3058 -0.122102 5.1121e-21)
(1.30713 -0.114665 8.73106e-21)
(1.30368 -0.106605 -3.07155e-21)
(1.30231 -0.09843 5.45548e-22)
(1.28749 -0.0879506 -8.29061e-21)
(1.28504 -0.0802132 1.51027e-20)
(1.2482 -0.063478 -7.74483e-21)
(1.2993 -0.159769 2.10173e-21)
(1.30364 -0.152049 -1.0514e-20)
(1.30717 -0.144231 7.2322e-22)
(1.30961 -0.136311 -1.87351e-20)
(1.31081 -0.128162 -1.19408e-20)
(1.30983 -0.119804 -6.64978e-21)
(1.30714 -0.110877 7.93163e-24)
(1.29889 -0.101455 -5.44094e-21)
(1.29034 -0.0910295 1.70215e-20)
(1.2652 -0.0789178 5.32038e-21)
(1.25253 -0.0676618 -1.10321e-20)
(1.19088 -0.0478728 -4.10644e-21)
(1.31045 -0.162547 7.12094e-21)
(1.31343 -0.153475 2.01635e-21)
(1.315 -0.144189 -8.18884e-21)
(1.31471 -0.134633 1.4252e-20)
(1.31198 -0.124672 -1.57268e-20)
(1.30587 -0.114282 -5.46098e-21)
(1.29574 -0.103128 3.21781e-21)
(1.27894 -0.0914856 -2.25057e-21)
(1.25761 -0.0784295 -2.22957e-20)
(1.21976 -0.0650551 -2.14309e-20)
(1.18962 -0.0502399 7.38503e-21)
(1.10133 -0.0316634 -7.71951e-21)
(1.31942 -0.16444 -2.22587e-21)
(1.32027 -0.153915 -1.08269e-21)
(1.31879 -0.143007 4.32054e-21)
(1.31422 -0.131584 -9.09105e-21)
(1.30548 -0.119483 2.29386e-20)
(1.29126 -0.106564 1.75807e-20)
(1.26989 -0.0926135 -1.13814e-20)
(1.23936 -0.077759 1.31995e-20)
(1.19848 -0.0615226 1.3787e-20)
(1.14201 -0.0455487 5.70824e-21)
(1.08235 -0.027532 2.48922e-21)
(0.972462 -0.0146379 2.08256e-20)
(1.10981 -0.00164709 0)
(1.11217 -0.00122283 0)
(1.11336 -0.000711703 0)
(1.11447 -0.000218506 0)
(1.11404 0.000401029 0)
(1.1132 0.000916673 0)
(1.11075 0.00163588 0)
(1.10709 0.00211369 0)
(1.10245 0.00287264 0)
(1.09512 0.00322097 0)
(1.08858 0.0038233 0)
(1.07746 0.0039695 0)
(1.06966 0.00401089 0)
(1.05704 0.00397871 0)
(1.04849 0.00293903 0)
(1.04081 0.00270326 0)
(1.03213 0.000530787 0)
(1.03812 -0.000208333 0)
(1.03222 -0.00270208 0)
(1.05725 -0.00311076 0)
(1.0532 -0.0033191 0)
(1.08408 -0.00165997 0)
(1.06492 0.0016856 0)
(1.07278 0.00141288 0)
(1.05329 0.00658014 0)
(1.0117 0.00452935 0)
(1.00915 0.00222555 0)
(0.990632 -0.000592218 0)
(1.02088 -0.0113861 0)
(1.10805 -0.00749168 0)
(1.11144 -0.00486834 0)
(1.11387 -0.00361277 0)
(1.11511 -0.00210048 0)
(1.11625 -0.000640334 0)
(1.11583 0.00119564 0)
(1.11496 0.00273103 0)
(1.11249 0.00487274 0)
(1.10872 0.00629999 0)
(1.10401 0.00856934 0)
(1.09639 0.00961357 0)
(1.08972 0.0114266 0)
(1.0781 0.011871 0)
(1.07011 0.0120115 0)
(1.05686 0.0119384 0)
(1.04798 0.00882403 0)
(1.0399 0.00814732 0)
(1.03067 0.00163946 0)
(1.03682 -0.000661287 0)
(1.03104 -0.00821217 0)
(1.05749 -0.00953013 0)
(1.05456 -0.0102018 0)
(1.087 -0.00499621 0)
(1.06718 0.00502774 0)
(1.07505 0.00421641 0)
(1.0554 0.0198589 0)
(1.01026 0.0137651 0)
(1.00734 0.00694525 0)
(0.986012 -0.00174853 0)
(1.01904 -0.0343107 0)
(1.10982 -0.0224006 0)
(1.11446 -0.00809331 0)
(1.11706 -0.00601752 0)
(1.1184 -0.00352133 0)
(1.11957 -0.00110412 0)
(1.11919 0.00193232 0)
(1.11828 0.00448284 0)
(1.11578 0.00804033 0)
(1.11178 0.0104246 0)
(1.10695 0.0142162 0)
(1.0988 0.0159744 0)
(1.09187 0.0190341 0)
(1.07933 0.0198043 0)
(1.07096 0.0200836 0)
(1.05654 0.0200355 0)
(1.04695 0.0148217 0)
(1.0382 0.0137787 0)
(1.02779 0.00290588 0)
(1.03427 -0.00124411 0)
(1.02865 -0.0140914 0)
(1.05786 -0.016634 0)
(1.05725 -0.017836 0)
(1.09251 -0.00842061 0)
(1.0717 0.00839884 0)
(1.07911 0.00702716 0)
(1.05969 0.0335891 0)
(1.00756 0.023661 0)
(1.00372 0.0125236 0)
(0.976965 -0.00283325 0)
(1.0151 -0.0580138 0)
(1.11273 -0.0373368 0)
(1.11874 -0.0113728 0)
(1.12155 -0.00847572 0)
(1.12304 -0.0049954 0)
(1.12427 -0.00161854 0)
(1.12395 0.00262331 0)
(1.12296 0.00620023 0)
(1.12046 0.0111944 0)
(1.11613 0.0145675 0)
(1.11114 0.0199283 0)
(1.10224 0.0224495 0)
(1.09495 0.0268262 0)
(1.0811 0.0279798 0)
(1.07215 0.0284445 0)
(1.05612 0.0285349 0)
(1.04537 0.0211196 0)
(1.03583 0.019842 0)
(1.02338 0.00448784 0)
(1.03039 -0.00202077 0)
(1.02485 -0.0206366 0)
(1.05822 -0.025011 0)
(1.0614 -0.0267299 0)
(1.10038 -0.0120679 0)
(1.07871 0.0119568 0)
(1.08436 0.0099462 0)
(1.06638 0.0480972 0)
(1.00387 0.0349234 0)
(0.998198 0.0195943 0)
(0.963292 -0.00379399 0)
(1.00739 -0.0832914 0)
(1.11532 -0.052704 0)
(1.12412 -0.0147539 0)
(1.12719 -0.0110292 0)
(1.12889 -0.00655382 0)
(1.13017 -0.00221122 0)
(1.12998 0.00325414 0)
(1.12887 0.00788263 0)
(1.12641 0.0143555 0)
(1.12165 0.0187744 0)
(1.1165 0.025775 0)
(1.10663 0.029145 0)
(1.09887 0.0349287 0)
(1.08341 0.0365612 0)
(1.07363 0.0372549 0)
(1.05566 0.0376594 0)
(1.04319 0.0278579 0)
(1.0329 0.0265846 0)
(1.01731 0.00656119 0)
(1.025 -0.00299452 0)
(1.01935 -0.0280886 0)
(1.05843 -0.0352753 0)
(1.06717 -0.0373029 0)
(1.11042 -0.0161051 0)
(1.08862 0.0158743 0)
(1.09017 0.0131008 0)
(1.07569 0.0634326 0)
(0.999716 0.0483078 0)
(0.990915 0.0287584 0)
(0.944515 -0.00425967 0)
(0.991527 -0.110434 0)
(1.11438 -0.0690179 0)
(1.13047 -0.0182853 0)
(1.13385 -0.0137206 0)
(1.13581 -0.00822993 0)
(1.13713 -0.00290787 0)
(1.13713 0.00381063 0)
(1.13587 0.00952361 0)
(1.13352 0.0175297 0)
(1.12825 0.0230752 0)
(1.12293 0.0317992 0)
(1.11195 0.0361426 0)
(1.10358 0.0434326 0)
(1.08626 0.0456754 0)
(1.07536 0.0466381 0)
(1.05519 0.0475918 0)
(1.04042 0.0351432 0)
(1.02947 0.0342543 0)
(1.00951 0.00935488 0)
(1.01778 -0.00408376 0)
(1.01176 -0.0366776 0)
(1.05836 -0.0481006 0)
(1.07478 -0.0498807 0)
(1.1226 -0.0207124 0)
(1.1018 0.0204082 0)
(1.09604 0.0166373 0)
(1.08758 0.0794142 0)
(0.996005 0.0644239 0)
(0.982559 0.0406869 0)
(0.920263 -0.00296163 0)
(0.960594 -0.139011 0)
(1.10485 -0.0870011 0)
(1.13768 -0.0219878 0)
(1.1414 -0.0165705 0)
(1.14368 -0.0100403 0)
(1.14505 -0.00373011 0)
(1.1453 0.00427461 0)
(1.14388 0.0111095 0)
(1.14171 0.0207102 0)
(1.13587 0.0274843 0)
(1.13038 0.0380227 0)
(1.11817 0.043502 0)
(1.10902 0.0524042 0)
(1.08967 0.0554145 0)
(1.07734 0.0566929 0)
(1.05472 0.0584676 0)
(1.03708 0.0430608 0)
(1.02557 0.0430796 0)
(1 0.0131686 0)
(1.0082 -0.00509804 0)
(1.00163 -0.0466732 0)
(1.05786 -0.0642062 0)
(1.08441 -0.0647318 0)
(1.1371 -0.0261048 0)
(1.11839 0.0258791 0)
(1.10184 0.0207252 0)
(1.10151 0.095719 0)
(0.993974 0.083515 0)
(0.97431 0.0560696 0)
(0.891179 0.00238238 0)
(0.910062 -0.167751 0)
(1.08216 -0.107461 0)
(1.14564 -0.0258813 0)
(1.14974 -0.0195986 0)
(1.15237 -0.0120043 0)
(1.15379 -0.00470321 0)
(1.15436 0.0046191 0)
(1.1528 0.0126141 0)
(1.15087 0.023874 0)
(1.14445 0.0319987 0)
(1.13878 0.0444499 0)
(1.12527 0.0512614 0)
(1.11515 0.0618938 0)
(1.09362 0.0658339 0)
(1.07957 0.0675016 0)
(1.05425 0.0703699 0)
(1.03329 0.0516772 0)
(1.02125 0.0532509 0)
(0.988966 0.018366 0)
(0.995562 -0.00571207 0)
(0.988502 -0.0584337 0)
(1.0567 -0.0843271 0)
(1.09626 -0.0821238 0)
(1.15434 -0.032474 0)
(1.13807 0.0326156 0)
(1.10803 0.0255664 0)
(1.11655 0.111941 0)
(0.994782 0.105401 0)
(0.967356 0.0754047 0)
(0.860046 0.0143889 0)
(0.844844 -0.194899 0)
(1.04651 -0.130861 0)
(1.15425 -0.0299699 0)
(1.15876 -0.0228102 0)
(1.16176 -0.0141342 0)
(1.16326 -0.00584443 0)
(1.1642 0.00481928 0)
(1.16254 0.0140065 0)
(1.16093 0.0269896 0)
(1.15395 0.0366013 0)
(1.14809 0.0510745 0)
(1.13325 0.0594406 0)
(1.12195 0.0719448 0)
(1.09811 0.0769552 0)
(1.08211 0.0791372 0)
(1.05373 0.0833252 0)
(1.02921 0.0610347 0)
(1.01655 0.0649006 0)
(0.97669 0.025425 0)
(0.979181 -0.00542572 0)
(0.9717 -0.0723925 0)
(1.05432 -0.109208 0)
(1.11044 -0.102406 0)
(1.17483 -0.0398293 0)
(1.16003 0.0409248 0)
(1.11553 0.031357 0)
(1.13162 0.127726 0)
(0.998945 0.129531 0)
(0.962743 0.0985629 0)
(0.831951 0.0340286 0)
(0.779161 -0.218955 0)
(1.00375 -0.15682 0)
(1.16342 -0.0342487 0)
(1.16836 -0.0262028 0)
(1.17173 -0.016437 0)
(1.17335 -0.00717558 0)
(1.1747 0.00483908 0)
(1.17304 0.015244 0)
(1.1718 0.0300129 0)
(1.16436 0.0412604 0)
(1.15826 0.0578817 0)
(1.14212 0.0680433 0)
(1.1294 0.0826001 0)
(1.1031 0.0887668 0)
(1.08502 0.0916713 0)
(1.05306 0.0973005 0)
(1.02507 0.0711443 0)
(1.01154 0.0780709 0)
(0.963542 0.0349266 0)
(0.958741 -0.00354438 0)
(0.950032 -0.0889063 0)
(1.04908 -0.139589 0)
(1.12649 -0.126111 0)
(1.19867 -0.048048 0)
(1.18323 0.0509522 0)
(1.12526 0.0382391 0)
(1.14586 0.142928 0)
(1.00608 0.155115 0)
(0.961358 0.124606 0)
(0.812315 0.0597835 0)
(0.727285 -0.238895 0)
(0.961289 -0.184004 0)
(1.17304 -0.0387001 0)
(1.17845 -0.0297618 0)
(1.18216 -0.0189147 0)
(1.18395 -0.00871551 0)
(1.18574 0.00463834 0)
(1.18421 0.0162776 0)
(1.1834 0.0328886 0)
(1.17566 0.0459326 0)
(1.16927 0.0648497 0)
(1.1519 0.0770626 0)
(1.13748 0.0939077 0)
(1.10857 0.101227 0)
(1.08836 0.105181 0)
(1.05213 0.112207 0)
(1.02115 0.0819675 0)
(1.00632 0.0927236 0)
(0.949975 0.0474099 0)
(0.934917 0.000738635 0)
(0.921329 -0.107815 0)
(1.03666 -0.176197 0)
(1.14177 -0.154096 0)
(1.22459 -0.0569752 0)
(1.20673 0.0626551 0)
(1.13758 0.0462728 0)
(1.15871 0.157692 0)
(1.01528 0.181327 0)
(0.963675 0.152186 0)
(0.803982 0.0894115 0)
(0.695705 -0.253933 0)
(0.924008 -0.210634 0)
(1.18305 -0.0432935 0)
(1.1889 -0.033461 0)
(1.19293 -0.0215645 0)
(1.19493 -0.010478 0)
(1.1972 0.00417362 0)
(1.19597 0.0170529 0)
(1.19567 0.0355479 0)
(1.18783 0.0505669 0)
(1.18107 0.0719469 0)
(1.16261 0.0864912 0)
(1.14612 0.105916 0)
(1.11454 0.114278 0)
(1.09206 0.119744 0)
(1.05091 0.127913 0)
(1.01765 0.0934141 0)
(1.00088 0.108717 0)
(0.936556 0.0631738 0)
(0.909896 0.00890558 0)
(0.882832 -0.127502 0)
(1.0086 -0.219392 0)
(1.14916 -0.18789 0)
(1.24886 -0.0670406 0)
(1.22927 0.0756348 0)
(1.15195 0.0554236 0)
(1.16994 0.172334 0)
(1.02558 0.207413 0)
(0.969479 0.179867 0)
(0.806458 0.120764 0)
(0.68366 -0.263751 0)
(0.893859 -0.23523 0)
(1.19335 -0.0479843 0)
(1.19964 -0.0372622 0)
(1.20392 -0.0243748 0)
(1.20616 -0.012478 0)