/*--------------------------------*- C++ -*----------------------------------*\
  =========                 |
  \\      /  F ield         | OpenFOAM: The Open Source CFD Toolbox
   \\    /   O peration     | Website:  https://openfoam.org
    \\  /    A nd           | Version:  7
     \\/     M anipulation  |
\*---------------------------------------------------------------------------*/
FoamFile
{
    version     2.0;
    format      ascii;
    class       volScalarField;
    location    "360";
    object      p;
}
// * * * * * * * * * * * * * * * * * * * * * * * * * * * * * * * * * * * * * //

dimensions      [0 2 -2 0 0 0 0];

internalField   nonuniform List<scalar> 
8500
(
-0.424819
-0.427118
-0.428019
-0.429357
-0.431644
-0.435041
-0.439577
-0.445257
-0.451895
-0.459561
-0.415943
-0.418673
-0.419569
-0.42064
-0.42234
-0.42476
-0.427866
-0.431583
-0.435572
-0.439848
-0.407275
-0.410372
-0.411248
-0.412045
-0.413152
-0.414587
-0.416244
-0.417967
-0.41925
-0.420005
-0.398944
-0.402346
-0.403192
-0.40372
-0.404247
-0.404715
-0.404943
-0.404695
-0.403307
-0.400527
-0.391064
-0.394713
-0.395524
-0.395797
-0.39577
-0.395311
-0.39416
-0.392012
-0.388066
-0.381827
-0.383735
-0.387579
-0.388352
-0.388387
-0.387844
-0.386513
-0.384058
-0.380112
-0.373782
-0.36422
-0.377046
-0.381037
-0.381771
-0.381588
-0.380567
-0.378428
-0.374759
-0.369138
-0.36064
-0.34791
-0.37107
-0.375165
-0.375858
-0.375474
-0.374018
-0.371141
-0.366355
-0.359193
-0.348767
-0.333
-0.365871
-0.370028
-0.370677
-0.370109
-0.368258
-0.364716
-0.358917
-0.350347
-0.338252
-0.319518
-0.361501
-0.365678
-0.366275
-0.365538
-0.363335
-0.359203
-0.352502
-0.342657
-0.329169
-0.307431
-0.358002
-0.362151
-0.362689
-0.361797
-0.359286
-0.354645
-0.347161
-0.336176
-0.321594
-0.296627
-0.355402
-0.359471
-0.359939
-0.358907
-0.356133
-0.351074
-0.342945
-0.330964
-0.315625
-0.287008
-0.353717
-0.357644
-0.35803
-0.35687
-0.353884
-0.348501
-0.339885
-0.32708
-0.31144
-0.27866
-0.352946
-0.35666
-0.356945
-0.35567
-0.352519
-0.346906
-0.337958
-0.324517
-0.309141
-0.272248
-0.353069
-0.35649
-0.356649
-0.355262
-0.351985
-0.34622
-0.337071
-0.323149
-0.307395
-0.268425
-0.354044
-0.357085
-0.357086
-0.355578
-0.352197
-0.346331
-0.337074
-0.323144
-0.306598
-0.266288
-0.355814
-0.358382
-0.358179
-0.356525
-0.35304
-0.347089
-0.337719
-0.32398
-0.306487
-0.265641
-0.358307
-0.360309
-0.359844
-0.357997
-0.354375
-0.348326
-0.338826
-0.325298
-0.306467
-0.266012
-0.361445
-0.36279
-0.361992
-0.359885
-0.356068
-0.349868
-0.340191
-0.326899
-0.306185
-0.267437
-0.36515
-0.365755
-0.364541
-0.362092
-0.357998
-0.351576
-0.341657
-0.328517
-0.305973
-0.273486
-0.369358
-0.369147
-0.36743
-0.364545
-0.360081
-0.35335
-0.343117
-0.32981
-0.306471
-0.288192
-0.374024
-0.372924
-0.370628
-0.367205
-0.362276
-0.355136
-0.344513
-0.330722
-0.307905
-0.29051
-0.379133
-0.377081
-0.374123
-0.370076
-0.364588
-0.356931
-0.345812
-0.331335
-0.309029
-0.290398
-0.384686
-0.381631
-0.377941
-0.373194
-0.36706
-0.358764
-0.347008
-0.331711
-0.309547
-0.289537
-0.390715
-0.386607
-0.382132
-0.376621
-0.369753
-0.360686
-0.348119
-0.331839
-0.309463
-0.287968
-0.397267
-0.392056
-0.386759
-0.380432
-0.372731
-0.36274
-0.349161
-0.331699
-0.308757
-0.285972
-0.404396
-0.398034
-0.391891
-0.384698
-0.376048
-0.364953
-0.350123
-0.33126
-0.307481
-0.283557
-0.412149
-0.40459
-0.397586
-0.389469
-0.37973
-0.367318
-0.350962
-0.330487
-0.30568
-0.280757
-0.420562
-0.411762
-0.403886
-0.394768
-0.383773
-0.369787
-0.35161
-0.329345
-0.303397
-0.277569
-0.429645
-0.419569
-0.410802
-0.400582
-0.388129
-0.372266
-0.351986
-0.327801
-0.300657
-0.273989
-0.439378
-0.427999
-0.418313
-0.406861
-0.392702
-0.374628
-0.352001
-0.32582
-0.297469
-0.269999
-0.449706
-0.437011
-0.426359
-0.413511
-0.397349
-0.376726
-0.351566
-0.323364
-0.293825
-0.265578
-0.460535
-0.446526
-0.434839
-0.420396
-0.401883
-0.378403
-0.35059
-0.320387
-0.289701
-0.260695
-0.471729
-0.456425
-0.443611
-0.427327
-0.406093
-0.379502
-0.348983
-0.316838
-0.285059
-0.255314
-0.483114
-0.466546
-0.45249
-0.434074
-0.409751
-0.379868
-0.346655
-0.312658
-0.279854
-0.249395
-0.494472
-0.476687
-0.461248
-0.440369
-0.412627
-0.379354
-0.343515
-0.307782
-0.27403
-0.242894
-0.505548
-0.486604
-0.469616
-0.44592
-0.414497
-0.377817
-0.339471
-0.30214
-0.267529
-0.235765
-0.516051
-0.496019
-0.477285
-0.450426
-0.415146
-0.375124
-0.334431
-0.295661
-0.260291
-0.227967
-0.525663
-0.504621
-0.483924
-0.45359
-0.414375
-0.371149
-0.328308
-0.288273
-0.252254
-0.219459
-0.534043
-0.512074
-0.489184
-0.455128
-0.412
-0.365774
-0.321016
-0.279904
-0.243362
-0.210205
-0.540834
-0.518028
-0.492716
-0.454779
-0.407857
-0.358893
-0.312474
-0.270489
-0.233563
-0.200178
-0.545682
-0.522127
-0.494186
-0.452306
-0.401803
-0.350411
-0.302608
-0.259967
-0.222817
-0.18936
-0.548236
-0.524021
-0.493285
-0.447505
-0.393715
-0.340243
-0.29135
-0.248281
-0.211091
-0.177745
-0.548165
-0.523376
-0.48974
-0.440206
-0.383495
-0.328322
-0.278643
-0.235379
-0.198347
-0.165292
-0.545163
-0.519884
-0.483321
-0.430277
-0.371068
-0.314596
-0.264445
-0.221224
-0.184518
-0.151841
-0.538963
-0.513278
-0.473846
-0.417624
-0.356385
-0.299034
-0.248735
-0.205801
-0.169546
-0.137101
-0.529338
-0.503338
-0.461179
-0.402189
-0.339421
-0.281619
-0.231502
-0.189121
-0.153482
-0.121022
-0.516112
-0.489902
-0.445231
-0.38395
-0.320177
-0.262349
-0.212742
-0.171195
-0.136427
-0.104644
-0.499163
-0.472861
-0.425962
-0.362921
-0.298678
-0.241245
-0.192489
-0.152082
-0.118224
-0.0877203
-0.478426
-0.452165
-0.403381
-0.339153
-0.274975
-0.218358
-0.170842
-0.131779
-0.0990125
-0.0700563
-0.453891
-0.427822
-0.377551
-0.312735
-0.249141
-0.193785
-0.147818
-0.110319
-0.0788896
-0.0516334
-0.425604
-0.399902
-0.348607
-0.283779
-0.221257
-0.167593
-0.123476
-0.0877796
-0.0579209
-0.0325175
-0.393663
-0.36854
-0.316747
-0.252359
-0.191435
-0.139868
-0.0979106
-0.0642493
-0.0361769
-0.0128101
-0.358232
-0.33394
-0.282082
-0.218542
-0.159868
-0.110744
-0.071229
-0.039823
-0.0137409
0.0073764
-0.319535
-0.296382
-0.244387
-0.182802
-0.1267
-0.0803625
-0.043556
-0.0146028
0.00930265
0.0279551
-0.277791
-0.256108
-0.204015
-0.145264
-0.0921361
-0.0488862
-0.0150277
0.0113048
0.0328671
0.0488354
-0.233188
-0.212824
-0.162073
-0.106142
-0.0563677
-0.0164847
0.0142201
0.0377988
0.0568105
0.069684
-0.186072
-0.167318
-0.118581
-0.0657127
-0.019601
0.0166715
0.04407
0.0647932
0.0808533
0.0896938
-0.137059
-0.119803
-0.0736728
-0.0242465
0.0179376
0.0504078
0.0744126
0.0921822
0.104659
0.108295
-0.086317
-0.0707946
-0.0276288
0.0179832
0.0560098
0.0845364
0.105088
0.11973
0.128128
0.127186
-0.0342653
-0.0207184
0.0192056
0.0606908
0.0943708
0.118848
0.135845
0.147044
0.151244
0.151162
0.0186514
0.030027
0.0664652
0.103579
0.132771
0.153116
0.16642
0.173995
0.174892
0.175197
0.0719892
0.0810366
0.113781
0.146345
0.170954
0.187112
0.19664
0.200646
0.198727
0.197923
0.1253
0.131899
0.160783
0.188681
0.208659
0.220605
0.226331
0.226874
0.222316
0.219664
0.178136
0.182199
0.207109
0.23028
0.245627
0.253375
0.255324
0.252499
0.24532
0.240415
0.230052
0.231527
0.252399
0.27084
0.2816
0.285204
0.28344
0.277343
0.267552
0.260206
0.280608
0.279478
0.296302
0.310066
0.316327
0.315881
0.310499
0.301231
0.288858
0.278996
0.329378
0.325658
0.338478
0.34767
0.349566
0.345199
0.336324
0.324002
0.309112
0.296727
0.375949
0.36969
0.378602
0.383377
0.381082
0.37296
0.360744
0.345509
0.328194
0.313326
0.419926
0.411212
0.416362
0.416923
0.410652
0.398973
0.383597
0.365611
0.345992
0.328717
0.460936
0.449882
0.451465
0.448061
0.438066
0.423059
0.40473
0.384177
0.362399
0.342827
0.49863
0.485383
0.483639
0.47656
0.463126
0.44505
0.424
0.401087
0.377312
0.355585
0.532685
0.517421
0.512631
0.502207
0.485652
0.464792
0.441275
0.416228
0.390639
0.366925
0.562809
0.54573
0.538214
0.524808
0.505478
0.482146
0.456438
0.429497
0.402292
0.376789
0.58874
0.570073
0.560184
0.54419
0.522459
0.496985
0.469381
0.440803
0.412197
0.385124
0.61025
0.590244
0.578364
0.560205
0.536465
0.5092
0.480011
0.450066
0.420285
0.391885
0.627147
0.606067
0.592604
0.572724
0.547389
0.518701
0.488251
0.457219
0.426501
0.397035
0.639272
0.617401
0.602781
0.581645
0.555142
0.525411
0.494036
0.462207
0.430799
0.400548
0.646508
0.624136
0.608804
0.586889
0.559658
0.529274
0.497318
0.464988
0.433147
0.402409
0.648772
0.6262
0.61061
0.588402
0.560891
0.530251
0.498065
0.465534
0.433518
0.402588
0.646021
0.623554
0.608164
0.586157
0.558817
0.528321
0.496259
0.46383
0.431897
0.401077
0.638253
0.616194
0.601464
0.58015
0.553434
0.523485
0.491899
0.459876
0.428286
0.397872
0.625501
0.604152
0.590536
0.570405
0.544763
0.515757
0.485001
0.453685
0.4227
0.392992
0.607841
0.587494
0.575439
0.55697
0.532844
0.505176
0.475594
0.445284
0.41516
0.386452
0.585386
0.566321
0.556259
0.53992
0.517742
0.491794
0.463726
0.434714
0.405699
0.378268
0.558284
0.54077
0.533112
0.519352
0.49954
0.475683
0.449458
0.422028
0.394363
0.368467
0.526723
0.511008
0.506143
0.495391
0.478343
0.456934
0.432866
0.407293
0.381207
0.357086
0.490925
0.477237
0.475523
0.46818
0.454277
0.435653
0.414043
0.390588
0.366297
0.34417
0.451146
0.439688
0.441452
0.43789
0.427485
0.411963
0.393092
0.372003
0.349711
0.329771
0.407675
0.398621
0.404152
0.40471
0.398129
0.386002
0.370132
0.351639
0.331532
0.313946
0.36083
0.354327
0.363873
0.368849
0.366388
0.357923
0.345293
0.329609
0.311855
0.296763
0.310956
0.30712
0.320883
0.330538
0.332457
0.327892
0.318716
0.306033
0.29078
0.278289
0.258426
0.257338
0.275474
0.290021
0.296546
0.296088
0.290555
0.281041
0.268412
0.258599
0.203634
0.205342
0.227955
0.24756
0.258876
0.262701
0.260971
0.254774
0.244863
0.237764
0.146993
0.15151
0.178651
0.20343
0.219682
0.227929
0.230137
0.22738
0.22025
0.215849
0.0889344
0.0962363
0.127903
0.157919
0.179208
0.191979
0.198229
0.199024
0.194699
0.192899
0.0299
0.0399284
0.0760631
0.111325
0.137705
0.155064
0.165431
0.169886
0.168368
0.168933
-0.0296577
-0.0169979
0.0234935
0.0639521
0.0954342
0.117402
0.13192
0.140155
0.141459
0.143887
-0.0892813
-0.0741217
-0.0294365
0.0161106
0.0526586
0.0792188
0.0978631
0.110011
0.114365
0.117786
-0.148512
-0.131022
-0.0823526
-0.0318874
0.00964438
0.0407494
0.0634351
0.0795774
0.0875904
0.0903026
-0.206892
-0.18728
-0.134877
-0.0797315
-0.0333468
0.00223152
0.0288095
0.0487417
0.0614673
0.0630037
-0.263967
-0.242484
-0.186635
-0.127117
-0.0760595
-0.0361001
-0.0057281
0.0176237
0.0349305
0.0417302
-0.319301
-0.296203
-0.237266
-0.173748
-0.118242
-0.0740291
-0.0399018
-0.0133133
0.00799837
0.0208458
-0.372589
-0.347957
-0.286463
-0.219341
-0.159647
-0.111362
-0.0735427
-0.0437953
-0.0191888
-0.00172857
-0.423361
-0.397397
-0.334054
-0.263613
-0.200038
-0.147922
-0.106548
-0.0737248
-0.046265
-0.025312
-0.471183
-0.443776
-0.380086
-0.306265
-0.239202
-0.183534
-0.138807
-0.103031
-0.0729384
-0.0489557
-0.515789
-0.487121
-0.423722
-0.347015
-0.276949
-0.218021
-0.17018
-0.131619
-0.0990639
-0.0722898
-0.556949
-0.527372
-0.463977
-0.385967
-0.313081
-0.251209
-0.200526
-0.159378
-0.124554
-0.0952273
-0.594417
-0.564258
-0.501182
-0.422527
-0.347343
-0.282945
-0.229714
-0.186202
-0.14932
-0.117679
-0.627985
-0.597514
-0.535344
-0.45635
-0.379639
-0.313094
-0.257624
-0.211992
-0.173274
-0.139526
-0.657505
-0.626939
-0.566245
-0.487481
-0.409784
-0.341525
-0.284152
-0.236654
-0.196343
-0.160658
-0.682886
-0.652405
-0.593687
-0.515829
-0.437668
-0.368185
-0.309211
-0.260102
-0.218471
-0.180995
-0.704092
-0.67385
-0.617551
-0.541271
-0.463217
-0.392982
-0.332794
-0.282257
-0.239593
-0.200509
-0.721143
-0.691273
-0.63778
-0.563717
-0.486363
-0.415832
-0.354836
-0.303169
-0.259558
-0.21928
-0.734117
-0.704732
-0.654368
-0.583121
-0.507062
-0.436694
-0.375254
-0.322762
-0.278161
-0.237628
-0.74315
-0.714343
-0.667355
-0.599473
-0.525293
-0.455558
-0.394031
-0.341027
-0.295766
-0.255178
-0.748433
-0.720282
-0.676835
-0.612795
-0.541061
-0.472432
-0.411182
-0.357972
-0.312287
-0.271387
-0.750208
-0.722779
-0.682947
-0.623144
-0.554392
-0.487342
-0.426731
-0.373589
-0.327647
-0.286361
-0.748764
-0.722117
-0.685878
-0.630611
-0.565336
-0.500324
-0.440707
-0.387896
-0.341891
-0.30036
-0.744427
-0.718623
-0.685862
-0.635327
-0.573967
-0.511433
-0.453158
-0.400944
-0.355094
-0.313537
-0.737551
-0.712655
-0.683177
-0.637458
-0.58038
-0.520738
-0.46415
-0.4128
-0.367318
-0.325948
-0.728512
-0.704589
-0.678144
-0.637204
-0.584693
-0.528324
-0.473757
-0.423532
-0.378613
-0.337624
-0.717693
-0.69481
-0.671111
-0.634799
-0.587042
-0.534284
-0.482057
-0.433212
-0.389034
-0.348596
-0.705476
-0.683699
-0.662448
-0.630501
-0.587581
-0.538716
-0.489132
-0.441917
-0.398649
-0.358911
-0.692231
-0.671622
-0.652531
-0.624597
-0.586479
-0.541729
-0.495068
-0.449727
-0.407535
-0.368628
-0.678307
-0.658922
-0.641724
-0.617386
-0.583921
-0.543433
-0.499948
-0.456724
-0.415773
-0.377819
-0.664024
-0.645912
-0.63037
-0.609179
-0.580107
-0.543942
-0.503855
-0.462987
-0.423447
-0.386563
-0.649665
-0.632867
-0.618775
-0.600287
-0.575245
-0.543374
-0.506865
-0.468591
-0.430638
-0.394942
-0.635473
-0.620021
-0.6072
-0.591002
-0.569556
-0.54185
-0.509052
-0.473602
-0.437427
-0.403043
-0.621651
-0.607566
-0.595863
-0.581588
-0.563259
-0.539493
-0.510479
-0.478079
-0.443888
-0.410958
-0.608362
-0.595647
-0.584933
-0.572268
-0.556577
-0.536435
-0.511208
-0.482069
-0.450088
-0.418781
-0.595731
-0.584372
-0.574539
-0.563212
-0.549714
-0.532812
-0.511298
-0.485608
-0.456082
-0.426605
-0.583854
-0.573812
-0.564769
-0.554547
-0.542854
-0.528773
-0.510811
-0.488723
-0.461912
-0.434532
-0.572805
-0.564014
-0.555682
-0.546362
-0.536146
-0.524468
-0.509819
-0.491433
-0.467606
-0.442656
-0.562643
-0.555008
-0.547314
-0.538724
-0.529707
-0.520051
-0.508414
-0.49376
-0.473166
-0.451099
-0.553414
-0.546813
-0.539685
-0.531687
-0.523632
-0.515671
-0.506711
-0.495729
-0.478599
-0.459928
-0.545158
-0.539445
-0.532815
-0.525302
-0.518013
-0.511468
-0.50485
-0.497389
-0.483859
-0.469355
-0.537901
-0.532911
-0.526716
-0.519616
-0.512947
-0.507582
-0.50299
-0.4988
-0.488984
-0.479228
-0.53165
-0.527211
-0.521398
-0.514673
-0.508534
-0.504156
-0.501299
-0.500061
-0.493932
-0.489813
-0.526382
-0.522325
-0.516857
-0.510505
-0.504864
-0.501332
-0.499952
-0.501305
-0.498687
-0.499826
-0.522036
-0.518206
-0.513064
-0.507114
-0.501994
-0.499234
-0.499159
-0.502512
-0.504389
-0.502996
-0.518516
-0.514777
-0.509957
-0.504464
-0.499934
-0.497936
-0.499094
-0.503793
-0.510765
-0.508195
-0.515684
-0.511929
-0.507441
-0.502477
-0.498631
-0.497449
-0.499827
-0.505432
-0.516966
-0.514685
-0.513373
-0.50953
-0.505394
-0.501033
-0.497977
-0.497702
-0.501299
-0.507671
-0.522732
-0.521056
-0.511395
-0.507434
-0.503673
-0.499982
-0.497811
-0.498542
-0.503341
-0.510574
-0.528032
-0.527349
-0.509556
-0.505487
-0.502125
-0.499154
-0.497937
-0.499749
-0.505712
-0.513993
-0.532821
-0.533952
-0.507666
-0.503535
-0.500594
-0.498371
-0.498139
-0.501059
-0.508121
-0.517606
-0.537035
-0.540826
-0.505549
-0.501434
-0.498929
-0.497456
-0.498195
-0.502196
-0.510269
-0.520998
-0.540564
-0.547518
-0.503048
-0.499046
-0.496987
-0.496238
-0.497894
-0.502889
-0.511857
-0.523744
-0.54322
-0.553249
-0.500032
-0.496251
-0.494636
-0.49456
-0.497038
-0.502896
-0.512612
-0.525478
-0.54477
-0.557568
-0.496396
-0.492943
-0.491761
-0.492286
-0.495462
-0.502013
-0.512303
-0.525909
-0.544984
-0.560143
-0.492064
-0.489042
-0.488267
-0.489304
-0.493031
-0.500086
-0.510754
-0.524827
-0.543648
-0.560643
-0.486993
-0.484487
-0.484086
-0.485533
-0.489654
-0.497012
-0.507844
-0.522096
-0.54058
-0.558851
-0.481173
-0.479251
-0.47918
-0.480931
-0.485283
-0.492738
-0.50351
-0.517643
-0.535648
-0.554617
-0.474625
-0.473333
-0.473544
-0.475491
-0.479914
-0.487267
-0.497747
-0.511464
-0.528788
-0.547839
-0.467403
-0.466768
-0.467204
-0.469244
-0.473588
-0.480647
-0.490608
-0.503616
-0.519988
-0.538509
-0.459591
-0.45962
-0.460215
-0.46226
-0.46639
-0.472977
-0.482203
-0.494236
-0.509273
-0.526718
-0.451292
-0.451952
-0.45269
-0.454643
-0.458436
-0.464396
-0.472682
-0.483458
-0.496837
-0.512622
-0.442638
-0.443894
-0.444725
-0.446519
-0.449878
-0.455076
-0.462245
-0.471511
-0.482915
-0.496451
-0.433765
-0.435571
-0.436453
-0.438037
-0.440886
-0.445219
-0.451124
-0.458674
-0.467811
-0.478605
-0.474814
-0.48766
-0.48548
-0.448959
-0.389216
-0.337429
-0.326619
-0.349317
-0.356576
-0.311226
-0.239134
-0.171296
-0.136332
-0.116666
-0.12384
-0.147282
-0.148565
-0.118879
-0.102309
-0.0807171
-0.074307
-0.0625728
-0.0594529
-0.0771422
-0.0835574
-0.0559977
-0.0424577
-0.0498259
-0.0385258
-0.00976288
-0.450288
-0.458157
-0.454254
-0.421113
-0.370773
-0.332026
-0.335058
-0.368241
-0.377511
-0.327542
-0.249424
-0.1762
-0.136299
-0.113582
-0.117641
-0.138432
-0.138582
-0.11307
-0.100128
-0.0804228
-0.0748678
-0.0642731
-0.0615706
-0.0783625
-0.0844995
-0.0563588
-0.0425012
-0.049924
-0.0385507
-0.00971271
-0.425788
-0.428184
-0.422254
-0.39218
-0.351022
-0.325246
-0.341739
-0.385215
-0.396165
-0.342126
-0.258503
-0.180523
-0.136069
-0.110501
-0.11153
-0.129655
-0.128482
-0.107141
-0.0977924
-0.0800768
-0.0754633
-0.0660912
-0.063763
-0.0795489
-0.0853723
-0.0566973
-0.0425203
-0.0500477
-0.0386305
-0.00966249
-0.401972
-0.398508
-0.390329
-0.362868
-0.330497
-0.317304
-0.346483
-0.399663
-0.412419
-0.354904
-0.266387
-0.184291
-0.135701
-0.107478
-0.105607
-0.121057
-0.118355
-0.10113
-0.0953087
-0.0796775
-0.0760943
-0.0680195
-0.066014
-0.0806979
-0.0861687
-0.0570106
-0.0425144
-0.0501983
-0.0387648
-0.00961275
-0.379392
-0.369881
-0.359347
-0.333945
-0.309749
-0.308182
-0.349246
-0.41117
-0.42593
-0.365803
-0.273103
-0.187534
-0.135248
-0.10456
-0.0999558
-0.112729
-0.108367
-0.0950831
-0.0926854
-0.0792232
-0.0767597
-0.0700496
-0.0683066
-0.0818025
-0.0868823
-0.0572959
-0.0424834
-0.050377
-0.0389525
-0.00956401
-0.358497
-0.342937
-0.330087
-0.306166
-0.28932
-0.298059
-0.349869
-0.419497
-0.436565
-0.374777
-0.27869
-0.190286
-0.134757
-0.101785
-0.0946457
-0.104759
-0.0986646
-0.0890508
-0.0899349
-0.0787118
-0.0774561
-0.0721716
-0.0706235
-0.0828576
-0.0875074
-0.0575507
-0.0424267
-0.0505843
-0.039192
-0.00951677
-0.339582
-0.318147
-0.303162
-0.280166
-0.269809
-0.287121
-0.34826
-0.424545
-0.444258
-0.381819
-0.283199
-0.192582
-0.134268
-0.0991832
-0.089725
-0.0972252
-0.0893788
-0.0830835
-0.0870736
-0.0781413
-0.0781784
-0.0743746
-0.0729473
-0.0838584
-0.0880387
-0.0577723
-0.042344
-0.0508206
-0.039481
-0.00947153
-0.322809
-0.295815
-0.278962
-0.2564
-0.251539
-0.275733
-0.344451
-0.426354
-0.44904
-0.386954
-0.286684
-0.194461
-0.133814
-0.0967781
-0.0852228
-0.0901914
-0.0806291
-0.0772391
-0.0841223
-0.077509
-0.0789194
-0.0766469
-0.0752608
-0.0848009
-0.0884719
-0.057958
-0.0422349
-0.0510853
-0.0398165
-0.00942877
-0.308282
-0.2761
-0.25765
-0.236263
-0.233921
-0.264104
-0.338586
-0.425079
-0.451014
-0.390233
-0.289209
-0.195959
-0.133423
-0.0945866
-0.0811507
-0.0837089
-0.0725176
-0.0715821
-0.0811061
-0.0768118
-0.0796701
-0.0789754
-0.077547
-0.085681
-0.0888032
-0.0581051
-0.042099
-0.0513775
-0.0401947
-0.00938891
-0.296137
-0.258947
-0.239278
-0.21885
-0.218242
-0.252448
-0.330904
-0.420974
-0.450351
-0.39173
-0.290837
-0.197114
-0.133114
-0.0926201
-0.0775052
-0.0778129
-0.0651174
-0.0661799
-0.0780535
-0.0760464
-0.0804199
-0.0813465
-0.0797894
-0.0864952
-0.0890296
-0.0582109
-0.0419359
-0.0516956
-0.0406113
-0.00935236
-0.286158
-0.244048
-0.224319
-0.203706
-0.204562
-0.240981
-0.321719
-0.414375
-0.447281
-0.391538
-0.291628
-0.197961
-0.132899
-0.090886
-0.0742718
-0.0725211
-0.0584711
-0.0610969
-0.0749962
-0.0752087
-0.0811567
-0.0837458
-0.0819723
-0.0872399
-0.0891488
-0.0582729
-0.0417453
-0.0520374
-0.0410609
-0.00931945
-0.278575
-0.233382
-0.210804
-0.191189
-0.192777
-0.22991
-0.311385
-0.405681
-0.442065
-0.389766
-0.291645
-0.198538
-0.13279
-0.0893922
-0.0714305
-0.0678333
-0.052594
-0.0563931
-0.0719684
-0.0742943
-0.0818675
-0.0861582
-0.0840809
-0.0879115
-0.0891593
-0.0582883
-0.0415268
-0.0524
-0.0415375
-0.00929046
-0.273256
-0.224912
-0.199807
-0.181035
-0.182808
-0.219425
-0.300274
-0.395312
-0.434981
-0.386544
-0.290956
-0.198893
-0.1328
-0.0881481
-0.0689582
-0.0637308
-0.04748
-0.0521211
-0.0690057
-0.0732981
-0.0825383
-0.0885685
-0.0861004
-0.0885064
-0.0890602
-0.0582543
-0.0412799
-0.05278
-0.0420337
-0.00926559
-0.269463
-0.219096
-0.191123
-0.172935
-0.174567
-0.20968
-0.288738
-0.383679
-0.426297
-0.382014
-0.289632
-0.199056
-0.13292
-0.087149
-0.0668237
-0.060172
-0.0431005
-0.0483311
-0.0661434
-0.0722147
-0.0831546
-0.0909615
-0.0880163
-0.0890208
-0.0888518
-0.058167
-0.0410038
-0.0531722
-0.0425415
-0.00924499
-0.267325
-0.219021
-0.184572
-0.166672
-0.167945
-0.200787
-0.277088
-0.371162
-0.416274
-0.376307
-0.287698
-0.198996
-0.133081
-0.0863512
-0.0649797
-0.0570892
-0.0393998
-0.045006
-0.0634179
-0.071038
-0.0837014
-0.0933221
-0.089815
-0.0894518
-0.0885366
-0.0580217
-0.0406978
-0.0535682
-0.0430516
-0.0092287
-0.26635
-0.215518
-0.179997
-0.162076
-0.162823
-0.192822
-0.265571
-0.358076
-0.405173
-0.369556
-0.285147
-0.198652
-0.133211
-0.0857178
-0.0633898
-0.0544234
-0.0363111
-0.0423217
-0.0608582
-0.069761
-0.0841636
-0.0956354
-0.0914879
-0.0897974
-0.0881165
-0.0578171
-0.0403626
-0.0539624
-0.0435537
-0.00921666
-0.266458
-0.214331
-0.177481
-0.159012
-0.159073
-0.185836
-0.254389
-0.344654
-0.393244
-0.361985
-0.282192
-0.198267
-0.133542
-0.0854152
-0.0621207
-0.0522064
-0.0338153
-0.0402052
-0.0584725
-0.0683748
-0.0845261
-0.0978857
-0.0930283
-0.0900512
-0.0875833
-0.0575622
-0.0399987
-0.0543663
-0.0440376
-0.00920868
-0.267472
-0.216073
-0.176916
-0.157411
-0.156549
-0.179797
-0.243637
-0.331113
-0.380386
-0.353831
-0.27947
-0.198562
-0.134669
-0.0858371
-0.0613324
-0.0505218
-0.0319406
-0.0386473
-0.0562943
-0.0668688
-0.0847719
-0.100053
-0.0943721
-0.0901899
-0.0869181
-0.0572691
-0.0396029
-0.0548033
-0.0444976
-0.00920493
-0.268281
-0.218526
-0.178017
-0.15742
-0.155236
-0.174595
-0.232907
-0.317179
-0.366025
-0.344696
-0.276663
-0.199149
-0.136107
-0.0866212
-0.0607841
-0.049042
-0.0304629
-0.0377181
-0.054436
-0.0652423
-0.0848919
-0.102109
-0.0953969
-0.0902081
-0.0861519
-0.0569015
-0.0391653
-0.055222
-0.044921
-0.00920701
-0.271205
-0.22309
-0.182551
-0.158779
-0.15552
-0.171426
-0.223641
-0.303158
-0.352126
-0.333441
-0.26998
-0.195805
-0.134221
-0.0852686
-0.0592211
-0.0466192
-0.0285183
-0.0365475
-0.0524117
-0.063478
-0.0848418
-0.104158
-0.0966094
-0.0903062
-0.0854732
-0.0563126
-0.0386806
-0.0553692
-0.0452266
-0.00920748
-0.256862
-0.21915
-0.180575
-0.158509
-0.156074
-0.170562
-0.220287
-0.297934
-0.341778
-0.320535
-0.25768
-0.186636
-0.127593
-0.0805368
-0.055932
-0.0426271
-0.0251655
-0.0324594
-0.0468448
-0.0592649
-0.084619
-0.108338
-0.100455
-0.0909113
-0.0850169
-0.0553369
-0.0380556
-0.0549515
-0.045407
-0.00915442
-0.248368
-0.215128
-0.179976
-0.160622
-0.159058
-0.172756
-0.216728
-0.281531
-0.32027
-0.298413
-0.240046
-0.174832
-0.120138
-0.0762251
-0.0527032
-0.0388224
-0.023216
-0.0308378
-0.0448085
-0.0569019
-0.0846234
-0.110852
-0.10321
-0.0897204
-0.0832619
-0.0538337
-0.0372608
-0.0544976
-0.0465643
-0.00908478
-0.239607
-0.210765
-0.179468
-0.162708
-0.162084
-0.175002
-0.212495
-0.266507
-0.296937
-0.275695
-0.222795
-0.163519
-0.112998
-0.0718747
-0.0494577
-0.0353023
-0.0213608
-0.0295235
-0.0438201
-0.0556685
-0.084764
-0.112248
-0.105334
-0.0880767
-0.0810323
-0.0521236
-0.0363281
-0.0539839
-0.0479514
-0.00892771
-0.230782
-0.20597
-0.178414
-0.1639
-0.163813
-0.175435
-0.206345
-0.249784
-0.272833
-0.252823
-0.20555
-0.152172
-0.105798
-0.0674523
-0.046197
-0.0319656
-0.019454
-0.0281157
-0.0424011
-0.0541556
-0.0845639
-0.113446
-0.107088
-0.0861349
-0.0782649
-0.0501205
-0.0352253
-0.0533959
-0.0492601
-0.00868385
-0.220921
-0.200202
-0.176276
-0.163651
-0.163703
-0.173661
-0.198164
-0.231895
-0.248709
-0.230373
-0.188727
-0.141041
-0.098657
-0.0629665
-0.0428987
-0.0287332
-0.0174123
-0.0266113
-0.0404795
-0.0520073
-0.0838237
-0.114406
-0.108197
-0.083763
-0.0748954
-0.0477908
-0.0339244
-0.0526892
-0.0504537
-0.00836876
-0.209648
-0.193239
-0.172801
-0.16176
-0.161683
-0.169873
-0.188539
-0.213796
-0.225493
-0.208984
-0.172612
-0.130209
-0.0916019
-0.058433
-0.0395428
-0.0255419
-0.0151478
-0.0248848
-0.038088
-0.0492632
-0.0823805
-0.114694
-0.108447
-0.0808769
-0.070888
-0.0450915
-0.032392
-0.0518114
-0.0515198
-0.00797886
-0.1974
-0.185161
-0.168024
-0.158345
-0.157986
-0.164453
-0.178124
-0.196295
-0.203853
-0.189036
-0.157378
-0.119761
-0.0846812
-0.0538737
-0.0361104
-0.0223233
-0.0125649
-0.0227695
-0.0351213
-0.0458914
-0.0799232
-0.113946
-0.107621
-0.0774228
-0.066219
-0.0419808
-0.0305906
-0.0506971
-0.0523962
-0.00749729
-0.184628
-0.176142
-0.162093
-0.15364
-0.152934
-0.157797
-0.167411
-0.179886
-0.184097
-0.170689
-0.143116
-0.109753
-0.0779243
-0.0493071
-0.0325837
-0.0190077
-0.00956809
-0.0200659
-0.031351
-0.0416756
-0.0760775
-0.111887
-0.105502
-0.0733497
-0.0608821
-0.0384179
-0.0284769
-0.0492605
-0.0529799
-0.006906
-0.171642
-0.166394
-0.155183
-0.147884
-0.146847
-0.150278
-0.156713
-0.164737
-0.166254
-0.153954
-0.129847
-0.100215
-0.0713544
-0.0447536
-0.0289505
-0.0155287
-0.0060638
-0.0165089
-0.0264316
-0.0362646
-0.070525
-0.108241
-0.101885
-0.0686149
-0.0548945
-0.0343669
-0.0260027
-0.0473922
-0.0531408
-0.00619028
-0.158716
-0.15614
-0.147477
-0.141285
-0.139983
-0.142224
-0.146205
-0.150812
-0.150198
-0.13875
-0.117551
-0.0911654
-0.0649891
-0.0402338
-0.0252074
-0.0118318
-0.00196947
-0.0117677
-0.0199091
-0.0292439
-0.0630418
-0.102741
-0.0966095
-0.0631939
-0.0483021
-0.0298011
-0.0231154
-0.0449582
-0.0527271
-0.00533921
-0.146034
-0.145577
-0.139146
-0.134017
-0.132545
-0.13382
-0.135958
-0.137995
-0.135742
-0.124958
-0.106184
-0.0826126
-0.0588432
-0.0357715
-0.0213636
-0.00788695
0.00276784
-0.00548691
-0.0112819
-0.0201932
-0.0535441
-0.095204
-0.0895898
-0.0570878
-0.0411821
-0.0247088
-0.0197606
-0.0418035
-0.0515651
-0.00434686
-0.133703
-0.134878
-0.130359
-0.126236
-0.1247
-0.125218
-0.125995
-0.126149
-0.122684
-0.112447
-0.0956927
-0.0745574
-0.05293
-0.0313949
-0.0174422
-0.00370442
0.00813817
0.00262488
-0.000135609
-0.00878117
-0.0421888
-0.0855917
-0.0808408
-0.0503291
-0.0336441
-0.0191006
-0.0158862
-0.0377609
-0.0494617
-0.00321531
-0.121804
-0.124197
-0.121277
-0.118087
-0.116591
-0.116539
-0.116333
-0.115152
-0.11084
-0.101087
-0.086021
-0.0669965
-0.0472621
-0.0271374
-0.0134804
0.000656318
0.0140174
0.012618
0.0136021
0.00503023
-0.0294755
-0.0740514
-0.070493
-0.0429863
-0.0258256
-0.0130178
-0.0114477
-0.0326632
-0.0462143
-0.00195865
-0.110403
-0.113665
-0.112055
-0.10971
-0.10834
-0.107885
-0.106994
-0.104905
-0.100052
-0.0907586
-0.0771119
-0.0599236
-0.0418539
-0.0230323
-0.00953371
0.0050845
0.0201271
0.0240174
0.0291792
0.0205712
-0.0162318
-0.0608809
-0.0588036
-0.0351692
-0.0178812
-0.00653948
-0.00641853
-0.0263578
-0.0416278
-0.00060716
-0.0995475
-0.103393
-0.102837
-0.101239
-0.100057
-0.0993457
-0.0979992
-0.0953347
-0.0901857
-0.081355
-0.0689122
-0.0533295
-0.0367245
-0.0191089
-0.00567546
0.00941163
0.0260478
0.0355934
0.0445233
0.0360628
-0.00333043
-0.0464616
-0.0461571
-0.027028
-0.00997418
0.000216567
-0.000803009
-0.0187455
-0.0355439
0.000790399
-0.0892759
-0.0934771
-0.0937502
-0.0927985
-0.0918429
-0.0909968
-0.089376
-0.086385
-0.0811343
-0.0727797
-0.0613738
-0.0472027
-0.0318953
-0.0153941
-0.00199224
0.0134215
0.0312871
0.0455943
0.0570047
0.049117
0.00869779
-0.031292
-0.0330796
-0.0187445
-0.00227523
0.00709663
0.0053498
-0.00983214
-0.0278867
0.00216923
-0.0796178
-0.0839941
-0.0849037
-0.0845008
-0.08379
-0.0829059
-0.0811497
-0.0780179
-0.072812
-0.0649495
-0.0544544
-0.0415308
-0.0273863
-0.011919
0.0014173
0.0169057
0.0354088
0.0525197
0.0648735
0.0581269
0.0196063
-0.0161827
-0.0202354
-0.0105264
0.0050492
0.0139145
0.011923
0.000221987
-0.0187281
0.00345919
-0.0705933
-0.0750058
-0.0763906
-0.076445
-0.0759808
-0.0751309
-0.0733445
-0.0702067
-0.0651529
-0.0577942
-0.0481171
-0.0363017
-0.0232136
-0.00872015
0.00444762
0.0197114
0.0381423
0.0555495
0.0680565
0.0629275
0.028995
-0.00224326
-0.0083073
-0.00258931
0.01185
0.020459
0.0186959
0.0110519
-0.00836231
0.00460602
-0.0622147
-0.0665604
-0.0682876
-0.0687154
-0.0684877
-0.0677227
-0.0659827
-0.0629339
-0.0581076
-0.0512566
-0.0423291
-0.0315048
-0.0193889
-0.00583389
0.00701767
0.0217772
0.0394731
0.0560134
0.0677968
0.0642982
0.0363433
0.0096176
0.00221459
0.00487403
0.0180035
0.026505
0.025351
0.0220312
0.00264402
0.00558822
-0.0544879
-0.0586937
-0.0606569
-0.0613836
-0.0613736
-0.0607249
-0.0590853
-0.056189
-0.0516398
-0.045292
-0.0370614
-0.0271317
-0.0159199
-0.00328667
0.00909269
0.0231287
0.0395784
0.0547567
0.0654011
0.0632715
0.0414133
0.0190192
0.0111192
0.0117163
0.0234227
0.0318347
0.0315028
0.0322817
0.0135088
0.00640011
-0.0474148
-0.0514319
-0.0535464
-0.0545079
-0.0546934
-0.0541772
-0.052672
-0.0499674
-0.0457243
-0.0398668
-0.0322888
-0.0231742
-0.0128105
-0.00108667
0.0106863
0.0238549
0.0387755
0.052479
0.0618694
0.0608237
0.0444602
0.0261038
0.0184239
0.0178337
0.0280776
0.0362815
0.0367642
0.0408052
0.0233378
0.00709255
-0.0409939
-0.0447937
-0.0469941
-0.0481366
-0.048494
-0.0481148
-0.0467621
-0.0442692
-0.0403445
-0.0349573
-0.027991
-0.0196236
-0.0100583
0.000776242
0.0118479
0.0240767
0.0373995
0.0496703
0.0579033
0.0577145
0.0459521
0.031249
0.0242731
0.0231543
0.0319785
0.0397687
0.0408634
0.0467665
0.0312526
0.00786107
-0.0352228
-0.0387932
-0.0410313
-0.0423097
-0.0428146
-0.0425688
-0.0413748
-0.0390991
-0.0354914
-0.0305479
-0.0241519
-0.0164703
-0.00765364
0.00232578
0.0126472
0.0239176
0.0357336
0.0466743
0.0539482
0.0544465
0.0463414
0.034872
0.0288607
0.0276462
0.0351473
0.0422994
0.0436674
0.0491799
0.0366756
0.0089275
-0.0301006
-0.0334424
-0.0356832
-0.0370614
-0.0376903
-0.0375689
-0.0365304
-0.0344663
-0.0311629
-0.0266305
-0.0207601
-0.0137041
-0.00558154
0.0035932
0.0131608
0.0234959
0.0339854
0.0437336
0.0502604
0.0513234
0.0460096
0.0373427
0.032385