/*--------------------------------*- C++ -*----------------------------------*\
  =========                 |
  \\      /  F ield         | OpenFOAM: The Open Source CFD Toolbox
   \\    /   O peration     | Website:  https://openfoam.org
    \\  /    A nd           | Version:  7
     \\/     M anipulation  |
\*---------------------------------------------------------------------------*/
FoamFile
{
    version     2.0;
    format      ascii;
    class       volVectorField;
    location    "360";
    object      U;
}
// * * * * * * * * * * * * * * * * * * * * * * * * * * * * * * * * * * * * * //

dimensions      [0 1 -1 0 0 0 0];

internalField   nonuniform List<vector> 
8500
(
(-4.72261e-06 -0.069237 1.09862e-21)
(-0.00555123 -0.149778 -3.15307e-21)
(-0.019771 -0.190527 -3.6796e-21)
(-0.0384494 -0.203505 3.6633e-21)
(-0.059526 -0.20029 -3.37192e-21)
(-0.0813313 -0.189586 -1.80853e-21)
(-0.102718 -0.176042 3.12024e-21)
(-0.123078 -0.160607 3.8597e-21)
(-0.141752 -0.141736 -6.31705e-22)
(-0.158552 -0.116028 1.91326e-21)
(0.00208816 -0.0661926 -1.21736e-21)
(-0.00206427 -0.14228 3.75022e-21)
(-0.0170101 -0.180112 -8.56199e-21)
(-0.0372168 -0.191497 7.76831e-21)
(-0.0601087 -0.187723 3.85213e-22)
(-0.0837944 -0.177155 5.82239e-21)
(-0.107131 -0.164171 -1.01286e-20)
(-0.129683 -0.14953 -1.48968e-20)
(-0.150913 -0.131546 -2.8466e-21)
(-0.170765 -0.106678 6.51645e-21)
(0.00393639 -0.0624806 1.04096e-21)
(0.000993274 -0.133639 7.8859e-21)
(-0.014538 -0.168563 1.87326e-20)
(-0.0359312 -0.178553 -1.69754e-20)
(-0.0601241 -0.174424 -3.74313e-21)
(-0.0849986 -0.16412 -3.49916e-21)
(-0.109381 -0.151726 1.77192e-20)
(-0.132964 -0.13782 1.13005e-20)
(-0.15528 -0.12059 2.93357e-21)
(-0.176208 -0.0964433 -1.99966e-20)
(0.00548253 -0.0582073 3.65877e-21)
(0.00352316 -0.124068 -4.68644e-21)
(-0.012467 -0.156142 -3.40785e-20)
(-0.034717 -0.164953 3.1092e-21)
(-0.0597147 -0.160699 9.44127e-21)
(-0.0851098 -0.150827 -7.19562e-21)
(-0.109653 -0.139111 -7.57735e-22)
(-0.133109 -0.125956 -2.85304e-21)
(-0.155032 -0.109421 6.73139e-21)
(-0.175001 -0.0859082 1.8993e-20)
(0.0066796 -0.0534813 2.46888e-21)
(0.00544025 -0.113777 -1.42271e-20)
(-0.0109053 -0.143096 3.46304e-20)
(-0.0337078 -0.150966 -1.5478e-20)
(-0.0590512 -0.14684 -1.09529e-22)
(-0.08435 -0.137613 2.14269e-20)
(-0.108233 -0.126736 -1.00256e-20)
(-0.130465 -0.114443 1.27706e-21)
(-0.150596 -0.0986463 -4.07936e-21)
(-0.1676 -0.0757214 8.81278e-22)
(0.00749114 -0.0484073 2.93934e-20)
(0.00667461 -0.102968 3.61729e-20)
(-0.00995058 -0.129656 -9.43648e-21)
(-0.0330343 -0.136835 1.78079e-20)
(-0.0583133 -0.133114 5.35164e-21)
(-0.0829714 -0.124791 -8.06455e-21)
(-0.105471 -0.114989 -3.00451e-21)
(-0.125503 -0.103779 -1.25323e-20)
(-0.142609 -0.0889012 2.69268e-21)
(-0.154759 -0.0665973 -1.6348e-20)
(0.00789082 -0.043083 -2.8266e-20)
(0.00717412 -0.0918211 -1.87471e-20)
(-0.00968109 -0.116029 1.48999e-20)
(-0.032808 -0.122771 -2.57004e-20)
(-0.0576635 -0.119743 2.65158e-21)
(-0.0812179 -0.11262 2.97953e-20)
(-0.101732 -0.104202 -5.29772e-21)
(-0.118748 -0.0944101 3.4537e-20)
(-0.131829 -0.0807949 -1.1528e-21)
(-0.137443 -0.0592662 -1.31609e-20)
(0.00786239 -0.0375971 2.28318e-20)
(0.00690788 -0.0805021 -4.1709e-20)
(-0.0101451 -0.102392 -1.65877e-20)
(-0.0331009 -0.108945 1.98423e-20)
(-0.0572154 -0.106897 3.41325e-22)
(-0.0792753 -0.101289 -5.54091e-20)
(-0.097321 -0.0946122 -2.92898e-21)
(-0.110674 -0.0866716 -2.65338e-20)
(-0.118994 -0.0748412 -3.32935e-20)
(-0.116617 -0.0544071 1.89552e-20)
(0.00740012 -0.0320302 -1.27047e-20)
(0.00587043 -0.0691569 6.28951e-21)
(-0.0113498 -0.0888955 1.52078e-20)
(-0.0339257 -0.095489 -1.30562e-20)
(-0.056998 -0.0946856 -4.68635e-20)
(-0.0772135 -0.0908947 1.63109e-20)
(-0.0923889 -0.0863289 2.52592e-21)
(-0.101559 -0.0807276 3.89777e-20)
(-0.104625 -0.07137 4.93414e-20)
(-0.0929838 -0.0525659 -2.16562e-20)
(0.00650997 -0.0264577 1.9378e-20)
(0.00408653 -0.0579192 1.77375e-20)
(-0.0132507 -0.0756679 -2.61317e-21)
(-0.0352154 -0.0824949 6.59806e-20)
(-0.056922 -0.0831548 2.80346e-20)
(-0.0749274 -0.0814363 2.08345e-20)
(-0.0868368 -0.0793062 2.87417e-20)
(-0.0913325 -0.0765107 -1.28383e-20)
(-0.0887936 -0.0704198 -1.62885e-20)
(-0.0666451 -0.0539875 -2.45087e-20)
(0.00521146 -0.0209534 -2.15487e-21)
(0.00161573 -0.0469156 -2.78179e-20)
(-0.015743 -0.0628214 -1.99937e-20)
(-0.0368092 -0.0700267 -3.22171e-20)
(-0.056753 -0.0722999 -2.5311e-20)
(-0.0720884 -0.072822 2.522e-20)
(-0.0802263 -0.0733434 -2.37846e-20)
(-0.0794188 -0.0736895 -1.61494e-20)
(-0.0708888 -0.0716267 2.03166e-21)
(-0.0368849 -0.0582311 7.066e-21)
(0.00353985 -0.0155934 -5.22116e-20)
(-0.00144431 -0.0362731 2.52472e-20)
(-0.0186582 -0.0504626 1.84732e-20)
(-0.0384462 -0.0581329 1.22009e-20)
(-0.0561002 -0.0620836 -2.20567e-20)
(-0.0681204 -0.0648977 -1.8525e-20)
(-0.071731 -0.0681215 2.63829e-20)
(-0.0646331 -0.0717031 -2.08898e-20)
(-0.0493362 -0.0742186 -1.59263e-21)
(-0.0018369 -0.063933 -1.93134e-20)
(0.00154793 -0.010459 4.31746e-20)
(-0.00495675 -0.0261253 1.76544e-20)
(-0.0217653 -0.0387032 1.10934e-21)
(-0.0397708 -0.0468633 -2.22418e-20)
(-0.0544272 -0.0524634 1.78369e-21)
(-0.0622202 -0.0574906 2.39926e-20)
(-0.0601706 -0.0632766 -6.62197e-21)
(-0.045239 -0.0698772 -7.67801e-21)
(-0.0215014 -0.0772876 -1.63548e-20)
(0.0412936 -0.0693955 2.97541e-20)
(-0.000693304 -0.00563707 2.86557e-20)
(-0.00874773 -0.0166155 -4.73401e-20)
(-0.0247798 -0.0276687 -3.64746e-20)
(-0.0403512 -0.0362863 1.58352e-20)
(-0.0510873 -0.0434201 3.21752e-20)
(-0.0534253 -0.0504571 2.67024e-20)
(-0.044151 -0.0584711 -2.79072e-20)
(-0.0193256 -0.0675321 5.24209e-20)
(0.0159813 -0.0801116 -1.54094e-20)
(0.0964097 -0.0725282 -3.32561e-20)
(-0.00309584 -0.00121781 -4.34212e-20)
(-0.012612 -0.00789717 2.63012e-20)
(-0.0273778 -0.0175037 -1.24382e-20)
(-0.0397066 -0.0265009 1.2867e-21)
(-0.0453751 -0.0349809 1.33802e-20)
(-0.0407055 -0.0437223 -4.23484e-20)
(-0.0222184 -0.0534523 3.65108e-20)
(0.0146147 -0.0640772 -3.48641e-20)
(0.0657055 -0.0813039 5.31165e-20)
(0.167017 -0.0716892 1.7782e-20)
(-0.00555807 0.00270998 9.05289e-21)
(-0.0163217 -0.000128233 5.07313e-20)
(-0.0292132 -0.00837159 -1.26648e-20)
(-0.0373391 -0.0176423 1.29345e-20)
(-0.0365847 -0.0272319 1.48661e-20)
(-0.023065 -0.0373093 -4.44701e-21)
(0.00708649 -0.0481329 3.13866e-20)
(0.0582706 -0.0594246 1.93843e-21)
(0.128623 -0.0796479 -3.3037e-20)
(0.253172 -0.065795 4.21564e-20)
(-0.0079704 0.00606635 -2.43234e-20)
(-0.0196371 0.00653791 -4.79332e-20)
(-0.0299357 -0.000446323 4.1727e-20)
(-0.0327634 -0.00987515 2.08836e-20)
(-0.0240587 -0.0203193 -9.66663e-20)
(0.000321907 -0.0313365 7.81669e-20)
(0.0447357 -0.0426289 -6.90797e-20)
(0.112991 -0.053898 1.29996e-21)
(0.205874 -0.0748146 -1.40336e-20)
(0.351387 -0.054255 -3.82124e-20)
(-0.010222 0.00878798 2.09894e-20)
(-0.0223167 0.0119653 -2.81408e-21)
(-0.029204 0.00610158 -1.02336e-20)
(-0.0255308 -0.00337675 -1.23458e-21)
(-0.00722058 -0.014401 -6.06021e-21)
(0.0301351 -0.0259314 -2.48241e-20)
(0.0913103 -0.0370382 1.01374e-20)
(0.178948 -0.0476023 -1.60724e-20)
(0.29745 -0.0662866 5.15012e-21)
(0.455519 -0.037567 1.44191e-21)
(-0.0122079 0.0108351 -4.28555e-20)
(-0.0241253 0.0160492 -3.08205e-21)
(-0.0266897 0.0111255 4.71579e-21)
(-0.0152218 0.00169586 1.92756e-21)
(0.0144247 -0.00961525 3.1646e-20)
(0.0668929 -0.0212064 -9.15733e-20)
(0.147169 -0.0314504 6.04154e-20)
(0.255936 -0.040733 -4.44437e-20)
(0.401749 -0.0529877 3.4758e-20)
(0.558478 -0.0175747 3.53866e-20)
(-0.0138339 0.012196 -5.23818e-21)
(-0.024838 0.0187288 2.39928e-20)
(-0.0220755 0.0145247 -3.02311e-20)
(-0.00143859 0.00523132 -9.50101e-21)
(0.0413256 -0.00604749 1.82805e-20)
(0.110984 -0.0171833 8.70695e-20)
(0.212331 -0.0258328 -1.70355e-20)
(0.343509 -0.033252 8.34208e-21)
(0.515343 -0.0343887 -4.11589e-20)
(0.657803 -0.000148667 1.74588e-20)
(-0.0150204 0.012888 -1.57052e-20)
(-0.0242385 0.0199962 -1.22554e-20)
(-0.0150456 0.0162663 3.01407e-21)
(0.0162183 0.00719973 1.1928e-20)
(0.0739075 -0.00367251 -3.53419e-20)
(0.162699 -0.0137326 -1.42588e-20)
(0.286453 -0.0199721 -4.41084e-20)
(0.440381 -0.0244595 4.33305e-20)
(0.631618 -0.0129519 4.37687e-20)
(0.756989 0.00342876 -1.7359e-20)
(-0.0157025 0.0129552 -7.49862e-21)
(-0.0221187 0.0199061 3.05677e-20)
(-0.00526863 0.0164007 -3.43444e-20)
(0.0381695 0.00768598 -3.99984e-21)
(0.112599 -0.00231458 -1.6195e-20)
(0.222235 -0.0105261 3.49781e-20)
(0.368876 -0.0134288 4.43298e-20)
(0.543975 -0.0133901 -4.13702e-20)
(0.74173 0.00473469 4.22684e-20)
(0.882505 0.00817392 5.53146e-21)
(-0.0158218 0.0124621 -2.17199e-20)
(-0.0182705 0.0185701 -6.18935e-20)
(0.00760888 0.0150746 6.05401e-20)
(0.0648708 0.00691264 8.75607e-21)
(0.157821 -0.00162469 1.28043e-20)
(0.289607 -0.00703682 7.63254e-21)
(0.45848 -0.0056095 3.37587e-20)
(0.650436 8.97956e-05 2.40974e-20)
(0.847858 0.0211787 -8.2434e-20)
(0.992783 0.0258241 -3.83866e-20)
(-0.0153216 0.0114869 -7.42684e-20)
(-0.0124692 0.0161513 1.49897e-20)
(0.0239671 0.0125359 -3.41985e-20)
(0.0968016 0.00524128 6.67506e-21)
(0.209937 -0.00108116 1.0772e-20)
(0.364501 -0.00258988 -7.61579e-20)
(0.553454 0.00410286 3.31386e-20)
(0.75585 0.0156895 -2.1638e-20)
(0.946393 0.0385911 2.22672e-20)
(1.08149 0.0446352 -7.52436e-21)
(-0.0141419 0.0101144 2.6883e-20)
(-0.00447498 0.0128569 2.90651e-20)
(0.0442101 0.00912173 -1.62498e-21)
(0.134424 0.00316383 -9.38087e-21)
(0.269136 -2.15096e-05 3.68499e-22)
(0.446098 0.00353181 6.6402e-22)
(0.651209 0.0161305 -5.03409e-20)
(0.856534 0.0330377 6.71733e-21)
(1.03364 0.0566604 5.94405e-20)
(1.15357 0.0633975 2.56616e-20)
(-0.0122098 0.00842864 -1.82271e-20)
(0.0059668 0.00892756 -1.35384e-20)
(0.068741 0.0052435 5.81849e-20)
(0.178116 0.00127515 1.47475e-21)
(0.335295 0.00229318 -2.42691e-20)
(0.532928 0.011946 6.49345e-20)
(0.748629 0.0305663 1.39765e-20)
(0.949256 0.0516463 6.17206e-22)
(1.10813 0.0749139 -2.62666e-20)
(1.20895 0.0814089 -3.29872e-20)
(-0.00943597 0.00651111 3.81398e-20)
(0.0191206 0.00462743 -1.06445e-20)
(0.0979267 0.00136658 -6.32737e-21)
(0.228084 0.000232353 -2.41545e-20)
(0.407833 0.00658636 3.95787e-20)
(0.622878 0.0230387 -1.93324e-20)
(0.842525 0.047177 -2.14858e-20)
(1.03176 0.0709821 -5.09395e-21)
(1.16942 0.0928935 -1.5174e-20)
(1.25047 0.098245 1.57411e-20)
(-0.0057152 0.0044413 -1.40463e-20)
(0.035247 0.000236719 -8.35051e-20)
(0.132053 -0.00201153 8.70585e-21)
(0.28427 0.000705207 2.99771e-20)
(0.485633 0.0134611 2.14837e-20)
(0.713386 0.0368962 -7.09361e-20)
(0.930115 0.0655194 4.49583e-20)
(1.10284 0.090551 -2.01342e-20)
(1.21821 0.110265 2.95648e-20)
(1.28035 0.113917 7.91405e-21)
(-0.00093087 0.00229961 -1.54014e-20)
(0.054583 -0.00395147 2.96459e-20)
(0.171277 -0.00438113 3.86525e-20)
(0.346279 0.00332211 -2.7736e-20)
(0.56706 0.0233103 1.02422e-20)
(0.80179 0.0533283 -6.2389e-20)
(1.00936 0.0850782 -1.17041e-20)
(1.16231 0.109964 9.4688e-21)
(1.25579 0.126858 -2.25734e-20)
(1.301 0.128488 -2.23846e-20)
(0.00503763 0.000171876 -1.99038e-20)
(0.0773197 -0.0076315 -6.71285e-21)
(0.215585 -0.00523774 -7.00302e-20)
(0.41334 0.00861609 -1.09424e-20)
(0.650106 0.0362745 -1.1422e-21)
(0.885688 0.0719613 3.74793e-21)
(1.07907 0.105371 6.38299e-21)
(1.21067 0.128958 -2.99455e-20)
(1.28375 0.142625 5.60868e-22)
(1.31445 0.142137 1.55648e-20)
(0.0123051 -0.00184588 -5.19653e-21)
(0.103578 -0.0104844 2.43337e-20)
(0.264756 -0.00409864 3.42355e-20)
(0.48432 0.0169781 2.13887e-20)
(0.732623 0.0522603 -6.32449e-21)
(0.963195 0.0923456 -5.20124e-21)
(1.13882 0.126004 5.10666e-20)
(1.24891 0.147385 6.66039e-21)
(1.30371 0.157612 2.23143e-20)
(1.32239 0.155051 -9.36336e-21)
(0.0209702 -0.0036441 4.97305e-20)
(0.133389 -0.0121787 3.21485e-20)
(0.318342 -0.000521607 -3.25591e-20)
(0.557793 0.0286285 -6.47411e-21)
(0.812566 0.0710039 3.36209e-21)
(1.03304 0.114038 -1.22239e-20)
(1.18878 0.146685 -2.62327e-20)
(1.27823 0.165192 -4.31045e-21)
(1.31716 0.17192 3.05248e-22)
(1.32617 0.167416 1.02079e-20)
(0.0311063 -0.00509833 6.1474e-21)
(0.166672 -0.0123741 -1.75404e-20)
(0.37567 0.00587327 4.151e-20)
(0.632165 0.0436145 2.69811e-20)
(0.888187 0.092147 8.0936e-22)
(1.09455 0.136647 1.89777e-20)
(1.22954 0.167218 2.7888e-21)
(1.2999 0.182392 -1.96303e-20)
(1.32542 0.185673 1.62687e-20)
(1.32684 0.179395 3.94549e-23)
(0.0427524 -0.00607025 -4.10461e-20)
(0.203226 -0.0107306 -1.20801e-20)
(0.435862 0.0153805 -1.09031e-20)
(0.705812 0.0618324 -1.89246e-20)
(0.95814 0.1153 4.44059e-21)
(1.14753 0.159851 9.0868e-23)
(1.26189 0.187484 1.44261e-20)
(1.31512 0.199041 -2.37875e-21)
(1.32956 0.199 -1.68267e-20)
(1.32513 0.191117 -1.52942e-20)
(0.0559076 -0.00641076 3.338e-21)
(0.242722 -0.00692236 1.95663e-20)
(0.497876 0.0281902 9.47088e-21)
(0.777207 0.083065 -2.95104e-20)
(1.0215 0.140081 -1.4596e-21)
(1.19215 0.183394 -1.25768e-20)
(1.28676 0.207423 3.18525e-22)
(1.32498 0.215214 5.79404e-21)
(1.33044 0.21202 -6.29674e-21)
(1.3216 0.202679 1.73605e-20)
(0.0705252 -0.00596494 7.85605e-21)
(0.284704 -0.000654411 -1.91629e-20)
(0.560571 0.0443788 -4.51824e-20)
(0.845021 0.10702 4.1541e-20)
(1.07771 0.166137 -3.08374e-21)
(1.22882 0.207081 9.10721e-21)
(1.30504 0.227015 -1.22261e-21)
(1.33039 0.230993 8.55573e-21)
(1.32874 0.224827 -6.76314e-22)
(1.3166 0.214142 -1.34313e-20)
(0.0865109 -0.00457818 -1.60126e-20)
(0.3286 0.00831863 2.49558e-20)
(0.622773 0.0639097 2.05653e-20)
(0.90817 0.133364 -2.96238e-20)
(1.12656 0.193154 -4.89656e-21)
(1.2581 0.230764 1.86186e-21)
(1.31761 0.246263 1.84427e-20)
(1.33213 0.246453 8.92488e-22)
(1.32493 0.237493 3.46732e-21)
(1.31038 0.22554 -7.44933e-21)
(0.103722 -0.00210315 1.21488e-20)
(0.373744 0.0201761 -1.09077e-20)
(0.683343 0.0866447 -9.28576e-21)
(0.965834 0.161743 1.58722e-20)
(1.16806 0.220848 5.45995e-21)
(1.2806 0.254332 4.09537e-21)
(1.32523 0.26518 -1.87882e-20)
(1.3308 0.261652 -6.33193e-21)
(1.31939 0.250062 -5.59037e-21)
(1.30311 0.236878 2.45457e-21)
(0.121969 0.00159297 -6.07095e-21)
(0.419399 0.0350187 -1.37683e-22)
(0.74123 0.11236 1.75746e-20)
(1.01744 0.191798 -6.42805e-21)
(1.20238 0.248972 -2.83329e-21)
(1.29694 0.277693 -1.85707e-21)
(1.32858 0.283776 4.53674e-21)
(1.32689 0.276628 7.73715e-21)
(1.31234 0.26255 -2.47505e-22)
(1.29488 0.248141 2.73325e-21)
(0.141019 0.00662132 4.27964e-21)
(0.46479 0.0528614 -1.19985e-21)
(0.795512 0.140764 -3.14973e-21)
(1.06263 0.223174 -2.8474e-21)
(1.22983 0.277301 2.55046e-21)
(1.30774 0.300771 1.97085e-21)
(1.32821 0.302055 -1.80867e-21)
(1.32075 0.291399 6.41362e-22)
(1.30396 0.274951 8.89492e-22)
(1.28573 0.259295 -1.16185e-21)
(0.160604 0.0130649 2.30536e-21)
(0.509135 0.0736318 6.556e-22)
(0.845415 0.171512 -3.91188e-21)
(1.10122 0.255524 -3.10916e-21)
(1.25077 0.305629 3.22431e-21)
(1.31354 0.323495 6.28225e-22)
(1.32459 0.320007 -1.43003e-21)
(1.31266 0.305957 1.33497e-21)
(1.29436 0.287231 7.30363e-22)
(1.27572 0.270293 -8.19435e-22)
(0.180426 0.0209733 -9.0122e-22)
(0.551676 0.0971736 1.82845e-21)
(0.890323 0.204224 1.2061e-20)
(1.13319 0.288508 -5.33692e-21)
(1.2656 0.333767 -2.59474e-21)
(1.31485 0.345792 -2.89027e-21)
(1.3181 0.337604 5.86725e-21)
(1.30282 0.320275 3.8659e-21)
(1.28361 0.299341 3.03568e-21)
(1.26485 0.281079 1.60908e-21)
(0.200166 0.0303587 1.84824e-20)
(0.591704 0.123254 -1.01281e-20)
(0.929771 0.238496 -1.14952e-20)
(1.15861 0.321797 1.55529e-20)
(1.27472 0.361531 8.11147e-21)
(1.31209 0.367581 -5.28814e-22)
(1.30903 0.354801 -9.74926e-21)
(1.29137 0.3343 -6.95443e-21)
(1.27176 0.311211 -7.05739e-21)
(1.25316 0.291587 4.09985e-21)
(0.219497 0.0411937 -2.5001e-20)
(0.628582 0.151574 2.34314e-20)
(0.963437 0.273905 2.68626e-20)
(1.17763 0.355071 -2.63278e-20)
(1.27853 0.388745 -9.03873e-21)
(1.30565 0.388776 5.70531e-21)
(1.29762 0.371536 1.02238e-20)
(1.2784 0.347962 1.56355e-21)
(1.25883 0.32275 -2.32619e-22)
(1.24065 0.301747 -5.49897e-21)
(0.238092 0.0534112 -3.59387e-21)
(0.661757 0.181776 -3.29525e-20)
(0.991123 0.310022 -3.51587e-20)
(1.19047 0.388019 3.91373e-20)
(1.27743 0.415235 -4.41579e-21)
(1.29587 0.40928 7.91509e-21)
(1.28407 0.387734 1.50091e-21)
(1.26399 0.361177 -4.28249e-21)
(1.24482 0.33386 2.28882e-21)
(1.22722 0.311488 -2.49923e-22)
(0.25563 0.0669055 7.29512e-21)
(0.690771 0.213462 2.04041e-20)
(1.01275 0.346417 1.15278e-20)
(1.19741 0.420341 -9.07061e-21)
(1.27176 0.440825 -1.38576e-20)
(1.28303 0.428988 -1.27245e-20)
(1.26852 0.403307 -2.51331e-21)
(1.24819 0.373861 6.46613e-21)
(1.22969 0.344467 -1.35771e-21)
(1.21269 0.320732 3.03903e-21)
(0.271812 0.0815353 -2.7536e-20)
(0.715265 0.246199 -2.55978e-20)
(1.02832 0.38266 -4.00809e-21)
(1.19871 0.451747 -4.54004e-21)
(1.26189 0.465342 -1.01107e-20)
(1.26737 0.44778 6.07454e-21)
(1.25111 0.418152 -1.11055e-21)
(1.23106 0.385934 -5.6331e-21)
(1.21347 0.354576 5.07497e-21)
(1.19691 0.329338 -6.90331e-21)
(0.286362 0.0971269 6.61464e-21)
(0.734982 0.279533 2.16674e-20)
(1.03792 0.41833 1.86784e-20)
(1.19471 0.481954 2.01595e-20)
(1.24814 0.48861 4.82855e-22)
(1.24913 0.465532 1.69829e-20)
(1.23196 0.432152 9.96032e-22)
(1.21266 0.397288 -1.89682e-20)
(1.19624 0.364212 1.32085e-20)
(1.18045 0.337193 4.77222e-21)
(0.299039 0.113479 1.78253e-20)
(0.749762 0.313003 3.95837e-20)
(1.04171 0.453019 -5.24375e-21)
(1.18572 0.510693 -2.53132e-20)
(1.2308 0.510458 1.13072e-20)
(1.2285 0.482112 -1.15279e-20)
(1.21117 0.445184 -1.48106e-20)
(1.19305 0.407786 -9.91263e-22)
(1.17796 0.373091 -1.06224e-20)
(1.16349 0.344462 3.93262e-21)
(0.309638 0.130366 8.28627e-21)
(0.759532 0.34615 6.00705e-21)
(1.0399 0.486333 4.87404e-20)
(1.17207 0.537701 8.96221e-21)
(1.21018 0.530712 -7.67903e-21)
(1.20566 0.497382 -3.90901e-21)
(1.18887 0.457123 2.22741e-20)
(1.1723 0.417354 1.77358e-20)
(1.15865 0.38109 8.51691e-21)
(1.14584 0.350921 -1.03985e-21)
(0.318 0.147548 1.70288e-21)
(0.7643 0.378522 -4.03301e-20)
(1.03275 0.517898 -5.71664e-20)
(1.15411 0.562732 1.62712e-21)
(1.18655 0.549203 1.0754e-20)
(1.18083 0.511198 -1.47007e-20)
(1.16517 0.46784 -3.19442e-20)
(1.15043 0.425874 -9.15414e-21)
(1.13844 0.388117 -5.15091e-22)
(1.12747 0.356475 3.4142e-21)
(0.324003 0.164774 -1.42985e-20)
(0.764149 0.409683 3.57769e-20)
(1.02057 0.547366 3.41844e-20)
(1.13219 0.585552 -3.08746e-20)
(1.16017 0.565756 4.7556e-21)
(1.15417 0.523417 3.42362e-20)
(1.14016 0.47721 -6.82447e-21)
(1.12751 0.433236 5.81151e-21)
(1.11737 0.394078 -2.23824e-21)
(1.10844 0.361034 -2.81069e-21)
(0.327575 0.181788 -3.19376e-20)
(0.759242 0.439212 -5.6481e-20)
(1.00374 0.574426 -1.09885e-20)
(1.10661 0.605939 1.77892e-20)
(1.13131 0.580204 1.67008e-20)
(1.12585 0.533891 -3.3627e-20)
(1.11395 0.485111 1.736e-20)
(1.10364 0.43933 -7.86063e-21)
(1.09552 0.398879 5.54777e-21)
(1.0888 0.364532 4.57891e-22)
(0.32869 0.198332 2.44032e-20)
(0.749819 0.466704 1.87778e-21)
(0.982609 0.598796 -5.38146e-21)
(1.07765 0.623672 -2.14475e-20)
(1.10025 0.59239 1.30168e-20)
(1.09606 0.54248 3.25057e-21)
(1.08667 0.491422 -8.87055e-21)
(1.07892 0.444054 2.2833e-21)
(1.07297 0.402426 -8.5792e-22)
(1.06865 0.366893 -5.89028e-22)
(0.327387 0.214163 -6.52158e-21)
(0.736193 0.491814 -8.82977e-21)
(0.957325 0.620134 2.28601e-20)
(1.04571 0.638606 1.04997e-20)
(1.06728 0.602138 -1.38696e-20)
(1.06498 0.549068 1.72341e-20)
(1.05846 0.496035 1.71587e-21)
(1.05346 0.447311 2.43642e-21)
(1.04981 0.404622 3.10656e-21)
(1.04807 0.368028 5.63002e-22)
(0.323753 0.22903 4.19386e-20)
(0.718672 0.514368 3.22718e-20)
(0.928103 0.638085 -2.68693e-21)
(1.01126 0.650512 -4.53496e-21)
(1.03267 0.609346 -5.4274e-21)
(1.03281 0.553537 -2.47717e-21)
(1.02946 0.498848 2.38648e-21)
(1.02736 0.449018 9.00764e-22)
(1.02611 0.405373 -2.54211e-21)
(1.02713 0.367843 -4.5079e-21)
(0.31786 0.242592 2.82819e-21)
(0.697373 0.534053 5.19948e-21)
(0.895687 0.652707 -2.81631e-20)
(0.974707 0.659155 1.19594e-20)
(0.996689 0.613899 1.58762e-21)
(0.999732 0.555786 -2.92492e-21)
(0.99982 0.499772 1.44099e-21)
(1.00074 0.449101 1.15632e-21)
(1.00201 0.404613 -4.25195e-21)
(1.00604 0.366285 5.61057e-21)
(0.309703 0.254578 -1.59453e-20)
(0.672535 0.550344 -1.10756e-20)
(0.860632 0.663786 8.15129e-21)
(0.936339 0.664509 1.25681e-21)
(0.959581 0.615696 -4.92509e-21)
(0.965944 0.555722 3.32053e-21)
(0.969669 0.498717 2.6946e-21)
(0.973695 0.447474 -1.07072e-20)
(0.977766 0.402279 2.47638e-20)
(0.98542 0.363385 9.72558e-21)
(0.299513 0.264778 -1.17013e-20)
(0.644674 0.562989 2.67894e-20)
(0.823244 0.6711 -1.6084e-20)
(0.896488 0.666492 -2.95022e-21)
(0.921614 0.614655 -1.30521e-21)
(0.931633 0.553265 -2.50977e-21)
(0.939126 0.495601 -9.07224e-21)
(0.946361 0.444006 4.7569e-21)
(0.953773 0.398187 -1.38376e-21)
(0.96595 0.359196 -4.54658e-21)
(0.287541 0.273177 -1.45348e-21)
(0.61423 0.571882 -8.10497e-21)
(0.783935 0.674461 3.13244e-21)
(0.855502 0.665024 -8.29066e-22)
(0.883053 0.610717 6.27685e-21)
(0.896985 0.548364 5.32766e-21)
(0.908319 0.490375 1.68098e-20)
(0.918926 0.438594 -1.23634e-20)
(0.930388 0.391974 -2.34896e-20)
(0.946934 0.353098 9.79318e-21)
(0.273916 0.279573 -1.25084e-21)
(0.581655 0.576893 -2.8046e-21)
(0.743129 0.673772 1.09173e-21)
(0.813733 0.660044 8.39156e-21)
(0.844164 0.60384 -1.34198e-20)
(0.862197 0.54099 -2.11185e-20)
(0.877434 0.483037 -6.37569e-21)
(0.891654 0.431353 -1.38554e-21)
(0.907607 0.38381 3.08418e-20)
(0.925622 0.341406 -6.94436e-21)
(0.258852 0.283819 2.64081e-21)
(0.547386 0.577917 -3.82666e-21)
(0.701256 0.668979 -9.0602e-23)
(0.77153 0.651516 6.24005e-22)
(0.805213 0.593998 -8.83847e-21)
(0.827486 0.531115 3.96399e-20)
(0.846724 0.473557 -2.73111e-20)
(0.864755 0.422364 3.26105e-20)
(0.884389 0.375543 -2.29548e-20)
(0.902244 0.334561 -3.019e-20)
(0.242597 0.285807 -1.97584e-21)
(0.511855 0.574879 -3.54226e-22)
(0.65874 0.660066 1.87977e-22)
(0.72924 0.639433 1.40627e-20)
(0.766467 0.581184 -5.51294e-21)
(0.793078 0.518722 8.4341e-21)
(0.816395 0.461884 1.61094e-20)
(0.838257 0.411362 -8.49017e-21)
(0.861085 0.365094 -2.16002e-20)
(0.879999 0.324418 3.00114e-20)
(0.225404 0.285457 1.18666e-20)
(0.475492 0.567744 1.58445e-20)
(0.616 0.647046 -1.49152e-20)
(0.687203 0.623815 -1.32818e-20)
(0.728193 0.565412 4.51993e-20)
(0.759192 0.503824 -4.57068e-20)
(0.7866 0.448065 5.44262e-20)
(0.812186 0.398565 -1.37151e-20)
(0.837931 0.353389 1.46816e-20)
(0.858558 0.313874 2.70623e-20)
(0.207532 0.282718 -4.56998e-21)
(0.438724 0.556512 -1.51722e-20)
(0.573446 0.629962 -8.62709e-21)
(0.645754 0.604707 -4.95103e-21)
(0.690655 0.546718 5.15026e-21)
(0.726048 0.486444 -1.16622e-20)
(0.757509 0.432107 -1.63193e-20)
(0.7867 0.383914 -3.50825e-20)
(0.815247 0.340076 3.47251e-20)
(0.837969 0.301926 -1.13384e-20)
(0.189241 0.277569 2.72384e-20)
(0.401973 0.541226 -3.1164e-21)
(0.531476 0.608888 -1.20627e-20)
(0.605215 0.582177 1.57739e-20)
(0.654111 0.525155 -2.83332e-20)
(0.693856 0.466628 7.50301e-20)
(0.72929 0.414058 -3.99054e-20)
(0.761966 0.367486 3.60821e-20)
(0.793251 0.325292 -6.62899e-20)
(0.818266 0.288697 -1.75339e-20)
(0.170794 0.270015 -8.99748e-21)
(0.36565 0.52196 2.88391e-20)
(0.490474 0.583928 6.90257e-21)
(0.565901 0.556321 -1.45078e-20)
(0.618812 0.5008 -2.49508e-20)
(0.662823 0.444437 -1.05274e-21)
(0.702116 0.39397 1.33163e-20)
(0.738147 0.349315 -3.23793e-20)
(0.772098 0.30902 1.603e-20)
(0.799497 0.27413 2.14398e-21)
(0.152448 0.260089 -4.68358e-20)
(0.330154 0.498826 -1.15779e-20)
(0.450811 0.555214 -3.13144e-21)
(0.528113 0.527254 3.71862e-20)
(0.585002 0.473749 -3.44171e-20)
(0.633148 0.41995 -9.03234e-21)
(0.676157 0.371913 -5.42121e-21)
(0.715401 0.329462 1.01138e-20)
(0.751927 0.291301 -1.26367e-20)
(0.781731 0.258261 -1.97473e-20)
(0.134453 0.24785 4.10495e-20)
(0.295866 0.471969 -2.3239e-20)
(0.412838 0.522903 1.20348e-21)
(0.492138 0.495117 -5.62626e-20)
(0.552911 0.444116 6.0909e-20)
(0.605026 0.393264 -1.92418e-20)
(0.651579 0.347968 1.1534e-20)
(0.693876 0.307993 9.97481e-21)
(0.732862 0.27218 2.89441e-20)
(0.765044 0.241139 -1.17966e-20)
(0.117054 0.233383 -1.67535e-20)
(0.26315 0.441564 4.81186e-20)
(0.376889 0.487183 2.70659e-20)
(0.458248 0.460071 4.40813e-20)
(0.522761 0.412035 -1.02404e-20)
(0.57864 0.364492 4.10058e-21)
(0.62854 0.322234 3.29525e-20)
(0.673708 0.284989 7.2944e-21)
(0.715018 0.251723 7.01043e-22)
(0.749514 0.222833 -1.4051e-20)
(0.100481 0.216797 -3.80378e-20)
(0.232347 0.407817 -2.83838e-21)
(0.343276 0.448263 -1.58045e-20)
(0.426698 0.422296 -7.06985e-20)
(0.49476 0.377657 -6.81977e-20)
(0.554165 0.33376 1.14126e-20)
(0.607188 0.294818 -2.79865e-20)
(0.655029 0.260541 1.77588e-20)
(0.698507 0.230007 9.65597e-21)
(0.735215 0.203421 2.02986e-20)
(0.0849533 0.198221 5.55177e-20)
(0.203777 0.370961 -4.53871e-20)
(0.312287 0.406376 -2.2979e-20)
(0.397723 0.381994 4.0851e-20)
(0.469101 0.341149 4.62917e-20)
(0.531764 0.301212 -1.52601e-20)
(0.587664 0.265844 -1.92999e-21)
(0.637958 0.234753 -5.53633e-20)
(0.683431 0.20712 -3.13058e-20)
(0.722221 0.182992 1.19077e-20)
(0.0706726 0.177807 -3.15276e-20)
(0.177731 0.331252 1.32935e-20)
(0.284189 0.361777 4.86858e-20)
(0.371542 0.339384 -2.17005e-20)
(0.445962 0.302696 1.65091e-21)
(0.511588 0.267003 6.15076e-20)
(0.570096 0.235445 2.87585e-21)
(0.622608 0.207739 5.28701e-20)
(0.669888 0.183164 2.2041e-20)
(0.710599 0.161643 -3.50129e-20)
(0.0578241 0.155726 4.33854e-20)
(0.154475 0.288972 4.74566e-21)
(0.25922 0.314739 3.12059e-21)
(0.348351 0.294699 4.42827e-20)
(0.425505 0.262494 -5.95003e-21)
(0.493774 0.231302 -3.85443e-20)
(0.554602 0.203767 1.88521e-20)
(0.60908 0.179624 -3.00904e-20)
(0.657964 0.158248 -1.26088e-20)
(0.700412 0.139475 1.27173e-20)
(0.0465735 0.132165 -2.70736e-20)
(0.134245 0.244421 -5.18624e-20)
(0.237594 0.265553 1.19284e-20)
(0.328323 0.248188 -2.33728e-20)
(0.407874 0.220754 -1.41563e-20)
(0.478443 0.194289 3.41741e-20)
(0.541284 0.170963 -8.27097e-21)
(0.597466 0.15054 7.6735e-21)
(0.64774 0.132488 -9.29582e-21)
(0.691714 0.116596 1.83996e-20)
(0.0370658 0.107324 9.72884e-21)
(0.117245 0.197918 3.4848e-20)
(0.219495 0.214525 -4.82999e-20)
(0.311612 0.200115 2.28521e-20)
(0.393195 0.177697 -1.03987e-20)
(0.465701 0.156152 -2.92384e-20)
(0.530236 0.137198 2.38193e-20)
(0.587845 0.12063 5.01416e-21)
(0.639287 0.10601 -7.75143e-22)
(0.684555 0.0931148 -2.1388e-20)
(0.0294243 0.0814194 3.16349e-21)
(0.103648 0.149799 1.11593e-20)
(0.20508 0.161975 4.36105e-20)
(0.298345 0.150751 -8.33679e-21)
(0.381573 0.133554 -6.56569e-21)
(0.45564 0.117091 2.44311e-21)
(0.521535 0.102642 1.03087e-21)
(0.580286 0.0900399 8.87791e-21)
(0.632664 0.0789434 -1.16426e-20)
(0.678976 0.0691471 -7.40662e-21)
(0.0237491 0.0546761 -7.93448e-21)
(0.093597 0.100409 -1.35869e-20)
(0.194474 0.108233 -3.37943e-20)
(0.288626 0.100378 1.69921e-20)
(0.373095 0.0885641 1.38658e-20)
(0.448331 0.0773097 5.87504e-22)
(0.515242 0.0674717 -2.31393e-20)
(0.574845 0.0589233 -1.02457e-20)
(0.62792 0.0514218 8.1476e-21)
(0.675011 0.0448034 8.69664e-21)
(0.0201165 0.0273276 1.37032e-21)
(0.0871969 0.0501047 -2.82386e-21)
(0.187774 0.0536368 6.42594e-21)
(0.282534 0.0492869 -4.35251e-21)
(0.367826 0.0429723 -3.80907e-21)
(0.443831 0.0370188 -2.58582e-21)
(0.511406 0.0318684 4.74911e-21)
(0.571564 0.0274371 1.80758e-20)
(0.625091 0.0235803 2.62507e-21)
(0.672679 0.020184 -4.64812e-21)
(0.0185783 -0.000386278 1.69638e-21)
(0.0845209 -0.000748822 -4.6645e-21)
(0.185045 -0.00146861 -5.28328e-21)
(0.280123 -0.00222889 -3.66508e-21)
(0.365811 -0.00297133 3.48793e-21)
(0.442178 -0.00356702 1.57307e-21)
(0.51006 -0.0039821 -1.56764e-21)
(0.570468 -0.00425487 -7.12763e-21)
(0.624193 -0.00442732 2.34483e-21)
(0.67196 -0.00453086 -2.19231e-21)
(0.0191615 -0.0282222 -1.6811e-21)
(0.0856069 -0.0517836 4.62414e-21)
(0.18632 -0.0567347 5.24355e-21)
(0.281421 -0.0538714 -5.01894e-21)
(0.367072 -0.049014 4.41592e-21)
(0.44339 -0.0442308 2.21008e-21)
(0.51122 -0.0398931 -3.5272e-21)
(0.571579 -0.0359923 -4.09267e-21)
(0.625268 -0.0324662 6.01912e-22)
(0.67298 -0.0292565 -1.70142e-21)
(0.0218678 -0.0559354 1.84431e-21)
(0.0904579 -0.102629 -5.50919e-21)
(0.191604 -0.111811 1.2279e-20)
(0.286429 -0.105342 -1.07828e-20)
(0.371611 -0.0949021 -5.18622e-22)
(0.44747 -0.0847549 -7.18437e-21)
(0.514887 -0.0756777 1.16618e-20)
(0.574892 -0.067615 1.58429e-20)
(0.628293 -0.0604044 2.82072e-21)
(0.675649 -0.0539282 -6.07512e-21)
(0.0266739 -0.0832821 -1.55891e-21)
(0.0990418 -0.152918 -1.15448e-20)
(0.200866 -0.16635 -2.69104e-20)
(0.295124 -0.156342 2.3299e-20)
(0.379409 -0.140382 4.78154e-21)
(0.454399 -0.124922 4.2475e-21)
(0.521045 -0.111148 -2.08897e-20)
(0.580394 -0.0989583 -1.23425e-20)
(0.633256 -0.0880897 -2.75954e-21)
(0.679963 -0.0783767 1.87489e-20)
(0.0335315 -0.110022 -5.48453e-21)
(0.111292 -0.202283 6.96585e-21)
(0.214048 -0.220006 4.85282e-20)
(0.307456 -0.206576 -4.3866e-21)
(0.390423 -0.185204 -1.24928e-20)
(0.464143 -0.164516 8.93233e-21)
(0.529665 -0.146118 6.79194e-22)
(0.588058 -0.129861 3.13724e-21)
(0.640134 -0.115381 -6.89919e-21)
(0.685915 -0.102486 -1.81991e-20)
(0.0423676 -0.13592 -3.67649e-21)
(0.127108 -0.250368 2.00616e-20)
(0.231058 -0.272438 -4.8655e-20)
(0.323351 -0.255754 2.10137e-20)
(0.404592 -0.229121 2.11312e-22)
(0.476647 -0.203327 -2.66963e-20)
(0.540698 -0.180405 1.18334e-20)
(0.59784 -0.160165 -1.1242e-21)
(0.648891 -0.142142 4.48407e-21)
(0.693481 -0.126144 -1.28705e-21)
(0.0530854 -0.16075 -4.19819e-20)
(0.146355 -0.296823 -5.03198e-20)
(0.251776 -0.323315 1.32845e-20)
(0.342708 -0.303593 -2.40855e-20)
(0.421832 -0.271892 -6.74056e-21)
(0.491841 -0.241147 1.0189e-20)
(0.554084 -0.213831 3.75761e-21)
(0.609688 -0.189716 1.38828e-20)
(0.659476 -0.168236 -2.98558e-21)
(0.702628 -0.149234 1.61862e-20)
(0.065565 -0.184294 4.01167e-20)
(0.168864 -0.341313 2.58416e-20)
(0.27605 -0.372316 -1.93987e-20)
(0.365403 -0.349817 3.27097e-20)
(0.442039 -0.313285 -2.70312e-21)
(0.509636 -0.277777 -3.54414e-20)
(0.569747 -0.246225 6.20118e-21)
(0.623532 -0.218365 -3.7732e-20)
(0.671831 -0.193532 1.51701e-21)
(0.713316 -0.17164 1.3635e-20)
(0.0796641 -0.206349 -2.93207e-20)
(0.194437 -0.383515 5.2671e-20)
(0.303702 -0.419134 2.07154e-20)
(0.391289 -0.394164 -2.5908e-20)
(0.465091 -0.353076 3.58606e-22)
(0.529929 -0.313026 6.512e-20)
(0.587597 -0.277422 2.87085e-21)
(0.639294 -0.245971 2.88195e-20)
(0.685885 -0.217904 3.50742e-20)
(0.725495 -0.193249 -1.96442e-20)
(0.0952197 -0.226726 1.6413e-20)