/*--------------------------------*- C++ -*----------------------------------*\
  =========                 |
  \\      /  F ield         | OpenFOAM: The Open Source CFD Toolbox
   \\    /   O peration     | Website:  https://openfoam.org
    \\  /    A nd           | Version:  7
     \\/     M anipulation  |
\*---------------------------------------------------------------------------*/
FoamFile
{
    version     2.0;
    format      ascii;
    class       volScalarField;
    location    "55";
    object      p;
}
// * * * * * * * * * * * * * * * * * * * * * * * * * * * * * * * * * * * * * //

dimensions      [0 2 -2 0 0 0 0];

internalField   nonuniform List<scalar> 
8500
(
-0.250392
-0.252346
-0.253263
-0.254001
-0.25463
-0.255174
-0.255656
-0.256091
-0.256454
-0.256798
-0.250582
-0.252516
-0.25342
-0.254145
-0.254761
-0.25529
-0.255756
-0.256174
-0.256516
-0.256827
-0.250963
-0.252855
-0.253734
-0.254434
-0.255023
-0.255523
-0.255956
-0.256339
-0.25664
-0.256882
-0.251529
-0.25336
-0.254202
-0.254863
-0.255411
-0.255867
-0.25625
-0.256579
-0.256817
-0.256945
-0.252272
-0.254025
-0.254817
-0.255426
-0.255917
-0.256313
-0.256627
-0.256879
-0.257035
-0.25699
-0.253182
-0.254841
-0.255571
-0.256114
-0.256534
-0.256852
-0.257077
-0.257227
-0.25728
-0.256981
-0.25425
-0.2558
-0.256456
-0.256918
-0.257251
-0.257474
-0.257586
-0.257606
-0.257541
-0.256873
-0.255465
-0.256894
-0.257463
-0.25783
-0.258059
-0.258168
-0.258145
-0.257999
-0.257809
-0.256609
-0.256817
-0.258115
-0.258585
-0.25884
-0.258948
-0.258925
-0.258744
-0.258391
-0.258086
-0.256093
-0.258298
-0.259454
-0.259812
-0.259941
-0.259909
-0.259738
-0.259378
-0.258776
-0.2584
-0.255245
-0.259902
-0.260908
-0.261139
-0.261124
-0.260937
-0.2606
-0.260047
-0.259144
-0.258772
-0.25435
-0.261625
-0.262471
-0.262562
-0.262385
-0.262023
-0.261507
-0.260749
-0.259496
-0.25889
-0.253451
-0.263468
-0.264145
-0.264077
-0.263718
-0.263165
-0.262453
-0.261489
-0.26
-0.258949
-0.252247
-0.265436
-0.265933
-0.265686
-0.265122
-0.264356
-0.263436
-0.262245
-0.260527
-0.259108
-0.250783
-0.267538
-0.26784
-0.267392
-0.266597
-0.265594
-0.264449
-0.263025
-0.261079
-0.259325
-0.249198
-0.26979
-0.26988
-0.269203
-0.268145
-0.266877
-0.265487
-0.263818
-0.261682
-0.259516
-0.247688
-0.272215
-0.27207
-0.27113
-0.269777
-0.268209
-0.266544
-0.264605
-0.262346
-0.25953
-0.246422
-0.274842
-0.274433
-0.273195
-0.271507
-0.2696
-0.267626
-0.265375
-0.263091
-0.259141
-0.245306
-0.277709
-0.276993
-0.275429
-0.273359
-0.271073
-0.268753
-0.266147
-0.263965
-0.258292
-0.24464
-0.280866
-0.279793
-0.277859
-0.275366
-0.27266
-0.269958
-0.266963
-0.26494
-0.257495
-0.248314
-0.284363
-0.282874
-0.280525
-0.277569
-0.274405
-0.271284
-0.267868
-0.265759
-0.257301
-0.26237
-0.288253
-0.286286
-0.283476
-0.28002
-0.276363
-0.272784
-0.268918
-0.266318
-0.257789
-0.261591
-0.2926
-0.290079
-0.286761
-0.282772
-0.278593
-0.274511
-0.270153
-0.266726
-0.2583
-0.258816
-0.297465
-0.294302
-0.290433
-0.28588
-0.281153
-0.276514
-0.271582
-0.267153
-0.258584
-0.256065
-0.302906
-0.299006
-0.294545
-0.289401
-0.284093
-0.278829
-0.2732
-0.267634
-0.258578
-0.253194
-0.308975
-0.30424
-0.299147
-0.293384
-0.28745
-0.281469
-0.27499
-0.268142
-0.258221
-0.250339
-0.315714
-0.310047
-0.304288
-0.297872
-0.291246
-0.284432
-0.27692
-0.268611
-0.2575
-0.247434
-0.323157
-0.316463
-0.310006
-0.302896
-0.295488
-0.287691
-0.278926
-0.268957
-0.256405
-0.244415
-0.331321
-0.323515
-0.316332
-0.308472
-0.300161
-0.291193
-0.280916
-0.269085
-0.254929
-0.241209
-0.340208
-0.331216
-0.323281
-0.314594
-0.305225
-0.294849
-0.282774
-0.268906
-0.253057
-0.237751
-0.349797
-0.339562
-0.330844
-0.321227
-0.31061
-0.298535
-0.284376
-0.268339
-0.250768
-0.233984
-0.360041
-0.348527
-0.338987
-0.328309
-0.316201
-0.302095
-0.285598
-0.267312
-0.248035
-0.229854
-0.370866
-0.358055
-0.347641
-0.335737
-0.321842
-0.305361
-0.286321
-0.265756
-0.244821
-0.22531
-0.382161
-0.368057
-0.356698
-0.343367
-0.327334
-0.308155
-0.286432
-0.263608
-0.241083
-0.220302
-0.39378
-0.378405
-0.366009
-0.351003
-0.332455
-0.310304
-0.285824
-0.260801
-0.23677
-0.21478
-0.405537
-0.388931
-0.375384
-0.358408
-0.336968
-0.311641
-0.284398
-0.25727
-0.231829
-0.208694
-0.417207
-0.399423
-0.384585
-0.365306
-0.340634
-0.312009
-0.282056
-0.252947
-0.226201
-0.201994
-0.428526
-0.409631
-0.393337
-0.371399
-0.343221
-0.311261
-0.278705
-0.247763
-0.219827
-0.194634
-0.439197
-0.419269
-0.401325
-0.376382
-0.344509
-0.309259
-0.274255
-0.241649
-0.212648
-0.186571
-0.448895
-0.42802
-0.40821
-0.379952
-0.344296
-0.305878
-0.26862
-0.234536
-0.204607
-0.177768
-0.457276
-0.435545
-0.413642
-0.381826
-0.342397
-0.301003
-0.261719
-0.22636
-0.195651
-0.16819
-0.463984
-0.441492
-0.417272
-0.381741
-0.338651
-0.294532
-0.253479
-0.217062
-0.185735
-0.15781
-0.468663
-0.445504
-0.418767
-0.379465
-0.332916
-0.286373
-0.243832
-0.206584
-0.174822
-0.146615
-0.470968
-0.447235
-0.417826
-0.374797
-0.325078
-0.276452
-0.232718
-0.194878
-0.162877
-0.134591
-0.470574
-0.446356
-0.414182
-0.367577
-0.315043
-0.26471
-0.220091
-0.1819
-0.149856
-0.121667
-0.467186
-0.442571
-0.407616
-0.35768
-0.302749
-0.251107
-0.205923
-0.167626
-0.135711
-0.107668
-0.460549
-0.435623
-0.397958
-0.345022
-0.288156
-0.235623
-0.190203
-0.152055
-0.120432
-0.0924002
-0.450452
-0.42531
-0.385084
-0.329558
-0.271251
-0.218251
-0.172917
-0.135193
-0.10409
-0.076006
-0.436736
-0.411484
-0.36892
-0.311278
-0.252044
-0.198989
-0.154062
-0.117072
-0.0866898
-0.0591586
-0.419299
-0.394056
-0.349444
-0.290208
-0.230564
-0.17785
-0.1337
-0.0978334
-0.0681461
-0.0417394
-0.398094
-0.372992
-0.326678
-0.266421
-0.206875
-0.154906
-0.112048
-0.0773361
-0.04862
-0.0236166
-0.373132
-0.348319
-0.300699
-0.240019
-0.181083
-0.130371
-0.0889493
-0.0556958
-0.028207
-0.00479317
-0.34448
-0.320131
-0.271668
-0.211095
-0.153286
-0.104227
-0.0645541
-0.0330016
-0.00698203
0.0146515
-0.312261
-0.288602
-0.239846
-0.17965
-0.12359
-0.0765793
-0.0389682
-0.00934903
0.0149791
0.0346121
-0.276656
-0.253967
-0.205359
-0.145852
-0.0921317
-0.0475663
-0.0123126
0.0151629
0.037599
0.0550041
-0.237899
-0.216458
-0.167652
-0.110484
-0.0591706
-0.0173442
0.015284
0.0404317
0.060797
0.0757361
-0.196209
-0.176223
-0.127675
-0.073343
-0.0249021
0.0139155
0.0436925
0.0663627
0.0844357
0.0964698
-0.151837
-0.133216
-0.0862108
-0.0346887
0.0104895
0.0460418
0.0728008
0.0928781
0.108243
0.116394
-0.105205
-0.0881203
-0.0432555
0.00518552
0.0467943
0.0788651
0.102505
0.119882
0.131895
0.13495
-0.0567403
-0.0412782
0.000990918
0.0459941
0.0837794
0.112202
0.132648
0.147145
0.155305
0.153872
-0.00676096
0.00686901
0.0462175
0.0874516
0.121202
0.145848
0.162983
0.174268
0.178439
0.177975
0.0443121
0.0559118
0.0920721
0.129265
0.158814
0.179579
0.193247
0.201116
0.202148
0.202231
0.0960401
0.105446
0.13819
0.171132
0.196362
0.213167
0.223268
0.227754
0.226116
0.225262
0.14798
0.155064
0.184204
0.212749
0.233584
0.246384
0.252871
0.254059
0.249918
0.247383
0.199687
0.204352
0.229751
0.253809
0.270222
0.27901
0.281889
0.279856
0.273217
0.268583
0.250718
0.252902
0.274471
0.29401
0.30602
0.310828
0.310143
0.304966
0.295829
0.288894
0.300635
0.300309
0.318012
0.333055
0.340726
0.341625
0.337452
0.329216
0.317598
0.308274
0.349012
0.34618
0.360033
0.370657
0.374096
0.371195
0.363639
0.352447
0.3384
0.326665
0.395434
0.390134
0.400207
0.406538
0.405896
0.399339
0.388534
0.374509
0.358115
0.343992
0.439507
0.431809
0.438221
0.440435
0.435901
0.425865
0.411974
0.395263
0.37663
0.360181
0.480856
0.470862
0.47378
0.472098
0.4639
0.450594
0.433805
0.414578
0.393836
0.375155
0.519131
0.506973
0.50661
0.501295
0.489695
0.473358
0.453885
0.432332
0.409632
0.388844
0.554007
0.539848
0.536458
0.527811
0.513104
0.494002
0.472082
0.448412
0.423924
0.401181
0.585192
0.569219
0.563094
0.551453
0.533963
0.512384
0.488275
0.462717
0.436625
0.412107
0.612422
0.594848
0.586314
0.572047
0.552122
0.52838
0.502359
0.475154
0.44766
0.421568
0.635471
0.616528
0.605941
0.589444
0.567455
0.54188
0.514241
0.485643
0.456959
0.42952
0.654145
0.634085
0.621824
0.603515
0.579853
0.552792
0.523842
0.494117
0.464468
0.435926
0.668288
0.647377
0.633844
0.61416
0.589229
0.561042
0.531098
0.50052
0.47014
0.440755
0.677782
0.656298
0.641908
0.621299
0.595516
0.566573
0.535963
0.504812
0.47394
0.443986
0.682549
0.660776
0.645955
0.624881
0.598671
0.569348
0.538403
0.506965
0.475846
0.445606
0.682549
0.660775
0.645955
0.624881
0.59867
0.569348
0.538402
0.506965
0.475846
0.445605
0.67778
0.656296
0.641906
0.621297
0.595515
0.566572
0.535961
0.504811
0.473939
0.443985
0.668285
0.647374
0.633841
0.614157
0.589226
0.56104
0.531096
0.500518
0.470138
0.440753
0.65414
0.63408
0.62182
0.603511
0.579849
0.552789
0.523838
0.494113
0.464465
0.435923
0.635465
0.616522
0.605935
0.589438
0.56745
0.541875
0.514236
0.485638
0.456955
0.429516
0.612415
0.594841
0.586307
0.572041
0.552116
0.528374
0.502354
0.475148
0.447654
0.421564
0.585183
0.56921
0.563085
0.551445
0.533955
0.512377
0.488269
0.46271
0.436619
0.412101
0.553997
0.539838
0.536448
0.527802
0.513096
0.493994
0.472074
0.448405
0.423917
0.401175
0.519119
0.506962
0.506599
0.501284
0.489685
0.473349
0.453876
0.432323
0.409624
0.388837
0.480843
0.470849
0.473768
0.472086
0.463889
0.450584
0.433796
0.414568
0.393827
0.375147
0.439492
0.431794
0.438207
0.440422
0.435889
0.425853
0.411963
0.395252
0.37662
0.360171
0.395418
0.390118
0.400192
0.406524
0.405882
0.399326
0.388522
0.374497
0.358104
0.343982
0.348993
0.346162
0.360016
0.370641
0.374081
0.371181
0.363626
0.352434
0.338388
0.326654
0.300615
0.300289
0.317993
0.333038
0.340709
0.341609
0.337437
0.329203
0.317585
0.308262
0.250696
0.25288
0.27445
0.293991
0.306002
0.310811
0.310127
0.304951
0.295814
0.288881
0.199663
0.204329
0.229729
0.253788
0.270203
0.278992
0.281872
0.27984
0.273202
0.268569
0.147954
0.155038
0.18418
0.212726
0.233563
0.246365
0.252853
0.254041
0.249901
0.247368
0.0960116
0.105419
0.138164
0.171108
0.196339
0.213146
0.223248
0.227735
0.226099
0.225246
0.0442814
0.0558819
0.0920442
0.129239
0.15879
0.179556
0.193226
0.201096
0.202129
0.202214
-0.00679398
0.00683687
0.0461875
0.0874238
0.121176
0.145824
0.16296
0.174247
0.17842
0.177957
-0.0567756
-0.0413126
0.000958773
0.0459643
0.0837518
0.112177
0.132624
0.147123
0.155284
0.153852
-0.105243
-0.088157
-0.0432898
0.00515383
0.0467649
0.0788378
0.102479
0.119859
0.131873
0.134929
-0.151877
-0.133255
-0.0862474
-0.0347224
0.0104583
0.0460128
0.0727738
0.092853
0.108219
0.116372
-0.196251
-0.176264
-0.127714
-0.0733787
-0.0249351
0.0138849
0.0436639
0.0663362
0.084411
0.0964469
-0.237944
-0.216502
-0.167694
-0.110521
-0.0592056
-0.0173766
0.0152539
0.0404037
0.0607711
0.0757121
-0.276704
-0.254014
-0.205403
-0.145891
-0.0921686
-0.0476005
-0.0123443
0.0151335
0.0375719
0.054979
-0.312312
-0.288652
-0.239892
-0.179693
-0.123629
-0.0766152
-0.0390015
-0.00937992
0.0149506
0.0345859
-0.344534
-0.320183
-0.271716
-0.21114
-0.153327
-0.104265
-0.0645891
-0.033034
-0.00701185
0.014624
-0.373188
-0.348374
-0.30075
-0.240066
-0.181126
-0.13041
-0.0889861
-0.0557297
-0.0282382
-0.00482177
-0.398152
-0.37305
-0.326731
-0.26647
-0.20692
-0.154947
-0.112086
-0.0773715
-0.0486525
-0.0236464
-0.41936
-0.394116
-0.3495
-0.29026
-0.230611
-0.177894
-0.133739
-0.0978703
-0.06818
-0.0417705
-0.4368
-0.411546
-0.368979
-0.311332
-0.252093
-0.199035
-0.154103
-0.11711
-0.086725
-0.0591909
-0.450518
-0.425374
-0.385145
-0.329615
-0.271303
-0.218298
-0.17296
-0.135233
-0.104126
-0.0760394
-0.460617
-0.43569
-0.398021
-0.345081
-0.288209
-0.235672
-0.190248
-0.152097
-0.12047
-0.0924347
-0.467256
-0.44264
-0.407682
-0.357741
-0.302804
-0.251158
-0.20597
-0.167669
-0.13575
-0.107704
-0.470646
-0.446428
-0.41425
-0.36764
-0.315101
-0.264763
-0.220139
-0.181944
-0.149897
-0.121705
-0.471042
-0.447308
-0.417896
-0.374862
-0.325138
-0.276507
-0.232768
-0.194924
-0.16292
-0.13463
-0.468738
-0.445579
-0.418839
-0.379532
-0.332978
-0.28643
-0.243884
-0.206632
-0.174866
-0.146655
-0.464061
-0.441568
-0.417345
-0.38181
-0.338715
-0.294591
-0.253533
-0.217111
-0.185781
-0.157851
-0.457354
-0.435623
-0.413717
-0.381897
-0.342463
-0.301064
-0.261775
-0.226412
-0.195698
-0.168232
-0.448974
-0.428098
-0.408286
-0.380025
-0.344363
-0.305941
-0.268677
-0.234589
-0.204656
-0.177812
-0.439277
-0.419348
-0.401402
-0.376456
-0.344578
-0.309324
-0.274314
-0.241703
-0.212698
-0.186617
-0.428606
-0.409711
-0.393415
-0.371475
-0.343291
-0.311327
-0.278766
-0.247819
-0.219879
-0.194681
-0.417288
-0.399503
-0.384664
-0.365383
-0.340706
-0.312077
-0.282119
-0.253005
-0.226254
-0.202043
-0.405618
-0.389011
-0.375463
-0.358485
-0.337041
-0.31171
-0.284463
-0.25733
-0.231884
-0.208745
-0.393861
-0.378486
-0.366088
-0.351081
-0.33253
-0.310375
-0.285891
-0.260863
-0.236828
-0.214833
-0.382242
-0.368137
-0.356777
-0.343445
-0.327409
-0.308227
-0.2865
-0.263672
-0.241142
-0.220357
-0.370947
-0.358135
-0.34772
-0.335816
-0.321918
-0.305434
-0.286391
-0.265822
-0.244883
-0.225367
-0.360122
-0.348607
-0.339067
-0.328387
-0.316278
-0.30217
-0.28567
-0.26738
-0.2481
-0.229914
-0.349877
-0.339642
-0.330923
-0.321305
-0.310687
-0.29861
-0.284449
-0.26841
-0.250835
-0.234047
-0.340288
-0.331295
-0.32336
-0.314672
-0.305303
-0.294925
-0.282849
-0.268979
-0.253126
-0.237817
-0.331401
-0.323594
-0.316411
-0.30855
-0.300238
-0.29127
-0.280992
-0.26916
-0.255001
-0.241278
-0.323236
-0.316542
-0.310084
-0.302974
-0.295565
-0.287769
-0.279004
-0.269034
-0.256481
-0.244488
-0.315793
-0.310126
-0.304365
-0.297949
-0.291324
-0.28451
-0.276999
-0.268691
-0.257579
-0.24751
-0.309054
-0.304318
-0.299225
-0.293461
-0.287527
-0.281548
-0.275071
-0.268224
-0.258304
-0.25042
-0.302985
-0.299084
-0.294622
-0.289478
-0.284171
-0.278908
-0.273281
-0.267718
-0.258664
-0.253279
-0.297544
-0.294379
-0.29051
-0.285957
-0.281231
-0.276594
-0.271665
-0.26724
-0.258674
-0.256155
-0.292679
-0.290156
-0.286837
-0.282848
-0.278671
-0.274592
-0.270237
-0.266815
-0.258394
-0.258911
-0.288332
-0.286364
-0.283552
-0.280097
-0.276441
-0.272865
-0.269003
-0.266409
-0.257886
-0.26169
-0.284442
-0.282951
-0.280602
-0.277646
-0.274484
-0.271366
-0.267955
-0.265852
-0.257402
-0.262474
-0.280944
-0.279869
-0.277935
-0.275442
-0.272738
-0.27004
-0.267051
-0.265035
-0.257599
-0.248424
-0.277786
-0.277069
-0.275505
-0.273435
-0.271152
-0.268836
-0.266236
-0.264062
-0.258398
-0.244752
-0.274918
-0.274507
-0.27327
-0.271582
-0.269679
-0.267709
-0.265464
-0.263189
-0.259249
-0.245419
-0.272289
-0.272143
-0.271203
-0.269851
-0.268287
-0.266626
-0.264695
-0.262444
-0.259638
-0.246536
-0.269862
-0.269951
-0.269274
-0.268218
-0.266954
-0.265568
-0.263907
-0.261779
-0.259623
-0.247801
-0.267608
-0.267909
-0.267461
-0.266668
-0.265669
-0.264529
-0.263112
-0.261175
-0.259431
-0.24931
-0.265503
-0.265998
-0.265752
-0.265191
-0.264429
-0.263513
-0.262329
-0.26062
-0.259211
-0.250893
-0.263532
-0.264208
-0.26414
-0.263784
-0.263234
-0.262528
-0.26157
-0.260089
-0.259048
-0.252353
-0.261685
-0.26253
-0.262621
-0.262447
-0.262089
-0.261577
-0.260826
-0.259581
-0.258985
-0.253552
-0.259957
-0.260962
-0.261195
-0.261182
-0.260998
-0.260666
-0.260119
-0.259224
-0.258862
-0.254446
-0.258349
-0.259505
-0.259863
-0.259994
-0.259966
-0.259799
-0.259445
-0.25885
-0.258482
-0.255337
-0.256863
-0.25816
-0.258631
-0.258889
-0.258999
-0.258981
-0.258805
-0.258459
-0.258161
-0.256177
-0.255505
-0.256935
-0.257505
-0.257874
-0.258105
-0.258218
-0.258199
-0.258059
-0.257877
-0.256685
-0.254285
-0.255836
-0.256493
-0.256956
-0.257291
-0.257518
-0.257634
-0.257659
-0.2576
-0.25694
-0.253212
-0.254871
-0.255602
-0.256146
-0.256569
-0.25689
-0.257118
-0.257273
-0.257331
-0.257038
-0.252296
-0.25405
-0.254842
-0.255452
-0.255946
-0.256344
-0.256661
-0.256917
-0.257077
-0.257038
-0.251548
-0.25338
-0.254222
-0.254884
-0.255433
-0.255891
-0.256277
-0.256608
-0.25685
-0.256983
-0.250977
-0.252869
-0.253749
-0.254449
-0.255039
-0.25554
-0.255975
-0.25636
-0.256664
-0.256909
-0.25059
-0.252524
-0.253428
-0.254154
-0.254771
-0.2553
-0.255767
-0.256187
-0.25653
-0.256843
-0.250395
-0.252349
-0.253266
-0.254004
-0.254634
-0.255177
-0.25566
-0.256095
-0.256459
-0.256803
-0.258296
-0.257364
-0.258758
-0.25819
-0.25845
-0.257649
-0.256756
-0.255027
-0.252715
-0.249452
-0.245178
-0.239623
-0.23255
-0.22389
-0.213087
-0.200589
-0.18526
-0.168937
-0.149369
-0.130536
-0.109055
-0.0900438
-0.0706201
-0.0535735
-0.0395573
-0.0256796
-0.0180004
-0.00751147
-0.00548044
0.00220691
-0.258414
-0.257389
-0.258812
-0.258233
-0.258498
-0.257705
-0.256822
-0.255111
-0.252819
-0.249578
-0.245321
-0.239758
-0.232671
-0.223973
-0.21311
-0.200545
-0.18516
-0.168811
-0.149272
-0.13052
-0.109128
-0.09023
-0.0708402
-0.0538046
-0.0397399
-0.0257271
-0.0179938
-0.00742425
-0.00537341
0.00222955
-0.258654
-0.257443
-0.258924
-0.25832
-0.25859
-0.257806
-0.256933
-0.255241
-0.252971
-0.249755
-0.245518
-0.239964
-0.232861
-0.22413
-0.213212
-0.200584
-0.18514
-0.168766
-0.149246
-0.130559
-0.109269
-0.0904639
-0.0711006
-0.054067
-0.0399488
-0.025796
-0.0180059
-0.00735249
-0.00527876
0.00224325
-0.259007
-0.257519
-0.259085
-0.258446
-0.258722
-0.257947
-0.257084
-0.255413
-0.253166
-0.249979
-0.245764
-0.240235
-0.233114
-0.224356
-0.213388
-0.200701
-0.185201
-0.168804
-0.149298
-0.130669
-0.109463
-0.0907463
-0.0714011
-0.0543582
-0.0401824
-0.0258859
-0.0180367
-0.00729739
-0.00519798
0.00224733
-0.259463
-0.257607
-0.259289
-0.258606
-0.258887
-0.258122
-0.257269
-0.255621
-0.253399
-0.250244
-0.246055
-0.240532
-0.233423
-0.224643
-0.213631
-0.200892
-0.185339
-0.168921
-0.149425
-0.13085
-0.109717
-0.0910747
-0.0717406
-0.0546758
-0.0404384
-0.0259968
-0.0180861
-0.00726023
-0.00513235
0.00224111
-0.26001
-0.257697
-0.259522
-0.25879
-0.259076
-0.258324
-0.25748
-0.255857
-0.253662
-0.250542
-0.246383
-0.24088
-0.233779
-0.224985
-0.213935
-0.201151
-0.185549
-0.169111
-0.149624
-0.131097
-0.110025
-0.0914463
-0.072116
-0.0550177
-0.0407153
-0.0261287
-0.0181544
-0.00724236
-0.00508297
0.00222399
-0.260631
-0.257777
-0.259771
-0.258989
-0.259279
-0.258542
-0.257708
-0.256112
-0.253946
-0.250864
-0.246739
-0.24127
-0.234173
-0.225373
-0.214292
-0.201471
-0.185824
-0.169371
-0.149889
-0.131407
-0.110387
-0.0918547
-0.0725244
-0.0553821
-0.0410117
-0.0262819
-0.0182418
-0.00724517
-0.00505065
0.00219546
-0.261316
-0.257836
-0.260022
-0.259192
-0.259485
-0.258766
-0.257943
-0.256377
-0.254241
-0.251201
-0.247112
-0.241616
-0.234596
-0.225798
-0.214693
-0.201843
-0.186159
-0.169694
-0.150215
-0.13177
-0.110801
-0.0922994
-0.0729638
-0.0557675
-0.0413269
-0.0264571
-0.0183486
-0.00727002
-0.00503597
0.0021551
-0.262073
-0.257853
-0.260261
-0.259389
-0.259682
-0.258986
-0.258175
-0.256641
-0.254539
-0.251543
-0.247494
-0.242139
-0.235042
-0.22625
-0.21513
-0.202259
-0.186543
-0.170074
-0.150596
-0.132182
-0.111258
-0.0927765
-0.0734323
-0.0561729
-0.0416605
-0.026655
-0.0184752
-0.00731819
-0.00503922
0.00210265
-0.262885
-0.257821
-0.260477
-0.259565
-0.25986
-0.259189
-0.258393
-0.256894
-0.254828
-0.251881
-0.247874
-0.242526
-0.235496
-0.22672
-0.215592
-0.202714
-0.186967
-0.170497
-0.151031
-0.132641
-0.111755
-0.0932823
-0.073928
-0.0565977
-0.0420126
-0.0268765
-0.0186222
-0.00739086
-0.00506047
0.00203796
-0.263465
-0.257837
-0.260641
-0.259709
-0.260006
-0.259365
-0.258587
-0.257127
-0.2551
-0.252203
-0.248242
-0.242957
-0.235949
-0.227197
-0.21607
-0.203188
-0.187432
-0.170961
-0.151508
-0.13314
-0.112289
-0.0938139
-0.0744494
-0.0570413
-0.0423835
-0.0271226
-0.0187902
-0.00748904
-0.00509952
0.00196102
-0.263961
-0.257915
-0.260673
-0.259844
-0.260101
-0.259506
-0.258746
-0.257329
-0.255343
-0.2525
-0.24859
-0.243359
-0.236394
-0.227673
-0.216558
-0.203682
-0.187921
-0.171459
-0.15202
-0.133671
-0.112856
-0.0943684
-0.0749949
-0.0575035
-0.0427736
-0.0273943
-0.0189797
-0.00761355
-0.00515601
0.00187197
-0.264449
-0.257949
-0.26065
-0.259918
-0.260143
-0.259595
-0.258859
-0.257489
-0.255549
-0.252763
-0.248911
-0.243736
-0.236818
-0.228138
-0.217043
-0.204186
-0.188429
-0.171982
-0.152564
-0.134231
-0.113452
-0.0949432
-0.0755633
-0.0579844
-0.0431835
-0.0276924
-0.0191912
-0.00776497
-0.00522938
0.00177108
-0.264896
-0.257951
-0.260558
-0.259917
-0.260118
-0.259623
-0.258917
-0.257599
-0.255708
-0.252982
-0.24914
-0.244075
-0.237215
-0.228582
-0.217518
-0.204691
-0.188949
-0.172524
-0.153134
-0.134814
-0.114074
-0.0955362
-0.0761534
-0.058484
-0.043614
-0.0280175
-0.0194249
-0.00794363
-0.00531897
0.00165872
-0.265264
-0.257939
-0.260376
-0.259831
-0.260013
-0.259578
-0.258909
-0.257648
-0.255811
-0.253151
-0.249456
-0.244371
-0.237573
-0.228999
-0.217975
-0.20519
-0.189473
-0.173078
-0.153724
-0.135415
-0.114718
-0.0961447
-0.0767637
-0.0590018
-0.044065
-0.0283699
-0.0196811
-0.0081495
-0.00542391
0.00153539
-0.265501
-0.257906
-0.260093
-0.259643
-0.259814
-0.259446
-0.258823
-0.257624
-0.255847
-0.253254
-0.249606
-0.244613
-0.237886
-0.229379
-0.218406
-0.205674
-0.189995
-0.173636
-0.154326
-0.136028
-0.115379
-0.096765
-0.0773912
-0.0595365
-0.0445357
-0.0287491
-0.0199592
-0.00838213
-0.00554326
0.00140168
-0.265484
-0.257816
-0.259706
-0.259342
-0.259511
-0.259221
-0.258651
-0.257522
-0.255808
-0.253285
-0.249709
-0.244796
-0.238143
-0.229713
-0.218801
-0.206134
-0.190504
-0.17419
-0.154934
-0.136647
-0.116052
-0.097395
-0.0780351
-0.0600883
-0.0450273
-0.0291556
-0.0202598
-0.00864132
-0.00567634
0.00125821
-0.265118
-0.25766
-0.259217
-0.258916
-0.259092
-0.258889
-0.258385
-0.257332
-0.255689
-0.253238
-0.249737
-0.244912
-0.238342
-0.230002
-0.219164
-0.206578
-0.191014
-0.174755
-0.155565
-0.137289
-0.116755
-0.0980513
-0.0787107
-0.0606697
-0.04555
-0.0295959
-0.0205873
-0.00892859
-0.00582333
0.00110547
-0.2647
-0.257368
-0.258543
-0.258281
-0.258479
-0.258388
-0.257973
-0.257018
-0.255465
-0.25311
-0.249685
-0.244961
-0.238492
-0.230263
-0.219521
-0.207037
-0.191556
-0.175363
-0.156249
-0.137982
-0.11751
-0.0987507
-0.07943
-0.0612887
-0.046108
-0.0300718
-0.0209414
-0.00924345
-0.00598298
0.000944072
-0.262237
-0.256124
-0.257495
-0.257293
-0.257576
-0.257644
-0.257351
-0.256516
-0.255071
-0.252814
-0.249498
-0.244889
-0.23852
-0.230396
-0.219745
-0.207353
-0.191956
-0.175822
-0.156794
-0.138536
-0.118143
-0.0993383
-0.080054
-0.0618378
-0.046611
-0.0305239
-0.0212802
-0.00956495
-0.00614353
0.000776404
-0.250291
-0.253594
-0.256321
-0.256244
-0.256622
-0.256851
-0.256675
-0.25595
-0.254609
-0.25251
-0.249189
-0.244592
-0.238253
-0.230159
-0.219547
-0.207191
-0.191874
-0.175789
-0.156899
-0.138687
-0.118454
-0.0996638
-0.0804901
-0.0622696
-0.0470423
-0.0309732
-0.0216272
-0.00994195
-0.00632792
0.000566695
-0.245369
-0.251009
-0.254094
-0.254103
-0.25464
-0.255119
-0.255117
-0.254522
-0.253255
-0.251142
-0.247929
-0.243423
-0.237138
-0.229109
-0.218579
-0.206323
-0.19117
-0.17522
-0.156581
-0.138495
-0.118534
-0.0998243
-0.0808559
-0.0626927
-0.047516
-0.0315182
-0.0220647
-0.0104298
-0.00657134
0.000304839
-0.242156
-0.247634
-0.250654
-0.250992
-0.251825
-0.252637
-0.252881
-0.252472
-0.25134
-0.249348
-0.246217
-0.241782
-0.235558
-0.227611
-0.217192
-0.205068
-0.190127
-0.174352
-0.156018
-0.138095
-0.118457
-0.0998651
-0.0811456
-0.0630808
-0.0479842
-0.0320943
-0.022536
-0.0109672
-0.00684066
2.56789e-05
-0.238613
-0.243038
-0.245805
-0.246761
-0.248073
-0.249311
-0.249894
-0.249752
-0.248826
-0.247017
-0.244014
-0.239692
-0.233575
-0.225755
-0.215497
-0.203552
-0.188876
-0.173316
-0.155335
-0.137606
-0.118327
-0.0998787
-0.0814348
-0.0634957
-0.0484904
-0.0327333
-0.0230571
-0.0115653
-0.0071366
-0.000270784
-0.23331
-0.237179
-0.239668
-0.241367
-0.243306
-0.24505
-0.246051
-0.246253
-0.245606
-0.244031
-0.241222
-0.237073
-0.231122
-0.223485
-0.213451
-0.201737
-0.187391
-0.172092
-0.154518
-0.13702
-0.118137
-0.0998654
-0.0817227
-0.063941
-0.0490366
-0.0334374
-0.023629
-0.0122236
-0.00745896
-0.000581934
-0.225987
-0.230187
-0.232527
-0.234931
-0.23757
-0.23987
-0.241339
-0.241941
-0.241627
-0.240343
-0.237785
-0.233878
-0.228153
-0.220758
-0.211016
-0.199593
-0.185643
-0.170658
-0.153545
-0.136321
-0.117873
-0.099816
-0.0819994
-0.0644104
-0.0496169
-0.0342005
-0.0242483
-0.0129365
-0.00780653
-0.000903802
-0.217163
-0.222256
-0.224697
-0.227702
-0.23103
-0.2339
-0.235852
-0.236879
-0.236934
-0.235982
-0.23373
-0.230116
-0.224677
-0.217579
-0.208194
-0.197121
-0.18363
-0.169012
-0.152411
-0.135508
-0.117528
-0.0997294
-0.08226
-0.0649
-0.0502263
-0.0350155
-0.0249103
-0.0136968
-0.00817758
-0.00123192
-0.207342
-0.213607
-0.216443
-0.219951
-0.223899
-0.227325
-0.229756
-0.231207
-0.231642
-0.231044
-0.229127
-0.225849
-0.220747
-0.213992
-0.205019
-0.194346
-0.181369
-0.16717
-0.151122
-0.134588
-0.117104
-0.0996069
-0.0825013
-0.0654056
-0.0508592
-0.0358734
-0.0256091
-0.0144955
-0.00856981
-0.00156156
-0.196974
-0.204471
-0.207947
-0.211904
-0.216377
-0.22033
-0.223225
-0.225089
-0.225901
-0.225661
-0.224088
-0.221139
-0.216444
-0.210066
-0.201547
-0.191316
-0.178893
-0.165157
-0.149693
-0.133572
-0.116605
-0.0994503
-0.0827204
-0.065921
-0.0515084
-0.036763
-0.0263375
-0.0153222
-0.00898033
-0.00188794
-0.186451
-0.195053
-0.199319
-0.203717
-0.208629
-0.213064
-0.21641
-0.218674
-0.219853
-0.219966
-0.218747
-0.216164
-0.211861
-0.205883
-0.197844
-0.188085
-0.176241
-0.163004
-0.148143
-0.132475
-0.116035
-0.0992618
-0.0829147
-0.0664393
-0.0521662
-0.0376719
-0.0270873
-0.0161653
-0.00940583
-0.00220658
-0.176025
-0.185517
-0.190631
-0.195487
-0.200772
-0.205638
-0.209419
-0.212074
-0.213613
-0.214071
-0.213212
-0.210989
-0.207085
-0.201523
-0.193981
-0.184711
-0.173458
-0.160745
-0.146494
-0.131311
-0.115404
-0.0990431
-0.0830819
-0.066953
-0.0528247
-0.0385877
-0.0278502
-0.0170137
-0.00984269
-0.00251356
-0.165843
-0.175998
-0.181938
-0.187272
-0.192888
-0.198134
-0.202328
-0.205367
-0.207261
-0.208059
-0.207558
-0.205694
-0.202194
-0.197056
-0.190013
-0.181243
-0.170581
-0.15841
-0.144767
-0.130094
-0.114719
-0.0987956
-0.0832206
-0.0674547
-0.0534763
-0.0394984
-0.0286179
-0.0178566
-0.0102872
-0.00280578
-0.156005
-0.166609
-0.173296
-0.179113
-0.185035
-0.190611
-0.195191
-0.198606
-0.200853
-0.201986
-0.20184
-0.200338
-0.197244
-0.19253
-0.185986
-0.17772
-0.167642
-0.156022
-0.142981
-0.128834
-0.113986
-0.0985201
-0.0833293
-0.0679377
-0.0541146
-0.0403935
-0.0293833
-0.0186845
-0.0107357
-0.00308103
-0.146581
-0.157443
-0.164763
-0.171047
-0.177259
-0.183122
-0.188051
-0.19183
-0.194426
-0.195893
-0.196098
-0.194958
-0.192269
-0.187982
-0.181929
-0.17417
-0.164665
-0.153601
-0.14115
-0.127541
-0.113213
-0.0982166
-0.0834073
-0.0683962
-0.0547341
-0.0412643
-0.03014
-0.0194898
-0.0111847
-0.00333801
-0.137615
-0.148576
-0.156404
-0.163115
-0.169599
-0.175711
-0.180952
-0.185074
-0.188014
-0.18981
-0.190362
-0.189584
-0.187297
-0.183436
-0.177868
-0.170614
-0.161669
-0.151161
-0.139288
-0.126221
-0.112405
-0.0978853
-0.0834542
-0.0688253
-0.0553304
-0.0421034
-0.0308826
-0.020266
-0.0116308
-0.00357625
-0.12914
-0.140073
-0.148281
-0.155362
-0.162095
-0.168423
-0.173936
-0.178375
-0.181647
-0.183769
-0.184662
-0.184241
-0.182351
-0.178914
-0.173822
-0.167069
-0.15867
-0.148715
-0.137404
-0.124881
-0.111567
-0.0975264
-0.0834703
-0.0692211
-0.0558999
-0.0429053
-0.0316063
-0.0210082
-0.0120708
-0.003796
-0.121182
-0.131981
-0.14045
-0.147833
-0.154786
-0.161301
-0.167047
-0.171773
-0.175359
-0.177798
-0.179024
-0.178956
-0.177457
-0.174438
-0.16981
-0.163551
-0.155683
-0.146273
-0.13551
-0.123526
-0.110705
-0.0971408
-0.0834561
-0.0695809
-0.0564398
-0.0436652
-0.0323071
-0.0217129
-0.0125014
-0.00399795
-0.113753
-0.12434
-0.132964
-0.140578
-0.147713
-0.154386
-0.16033
-0.165309
-0.169187
-0.171932
-0.17348
-0.173757
-0.172636
-0.17003
-0.165853
-0.160079
-0.152724
-0.143848
-0.133618
-0.122163
-0.109825
-0.0967302
-0.0834128
-0.0699025
-0.0569477
-0.0443798
-0.0329811
-0.0223773
-0.0129195
-0.00418311
-0.106863
-0.117178
-0.125865
-0.133641
-0.140919
-0.14772
-0.153827
-0.159027
-0.163171
-0.166206
-0.168063
-0.168673
-0.167919
-0.165713
-0.161974
-0.15667
-0.149812
-0.141455
-0.131739
-0.120802
-0.108933
-0.0962975
-0.0833422
-0.070185
-0.0574215
-0.0450461
-0.0336245
-0.0229997
-0.0133219
-0.00435255
-0.100513
-0.110516
-0.119192
-0.127065
-0.134444
-0.141345
-0.147584
-0.15297
-0.157352
-0.160658
-0.162809
-0.163739
-0.163336
-0.161517
-0.158197
-0.153348
-0.146966
-0.139109
-0.129889
-0.119451
-0.108038
-0.0958466
-0.0832464
-0.0704279
-0.0578594
-0.0456622
-0.0342335
-0.0235786
-0.0137054
-0.00450731
-0.0947019
-0.10437
-0.112976
-0.120889
-0.128331
-0.135301
-0.141643
-0.147186
-0.151776
-0.155329
-0.157756
-0.158989
-0.158919
-0.157469
-0.15455
-0.150134
-0.144208
-0.136828
-0.128083
-0.118123
-0.107149
-0.095383
-0.0831284
-0.070632
-0.0582596
-0.0462266
-0.0348046
-0.0241131
-0.0140669
-0.00464828
-0.0894276
-0.0987513
-0.107242
-0.115149
-0.122617
-0.129631
-0.136049
-0.141718
-0.146488
-0.150264
-0.152945
-0.154462
-0.154706
-0.153603
-0.151062
-0.147057
-0.141561
-0.134633
-0.126337
-0.11683
-0.106276
-0.0949132
-0.082992
-0.0707989
-0.0586209
-0.0467384
-0.035334
-0.0246025
-0.0144035
-0.00477613
-0.0846862
-0.0936682
-0.102014
-0.109879
-0.117343
-0.124375
-0.130846
-0.136616
-0.141537
-0.145508
-0.148421
-0.1502
-0.150735
-0.149956
-0.147767
-0.144146
-0.139052
-0.132546
-0.124672
-0.115589
-0.10543
-0.0944453
-0.0828414
-0.0709309
-0.0589424
-0.0471971
-0.0358183
-0.0250459
-0.0147126
-0.00489126
-0.0804758
-0.0891295
-0.0973138
-0.10511
-0.112546
-0.119577
-0.12608
-0.131926
-0.136972
-0.141113
-0.144232
-0.146249
-0.14705
-0.146567
-0.144703
-0.141433
-0.13671
-0.130593
-0.123109
-0.114417
-0.104625
-0.0939887
-0.082682
-0.0710312
-0.0592237
-0.0476025
-0.0362545
-0.0254424
-0.0149918
-0.00499383
-0.0767972
-0.0851455
-0.0931632
-0.100875
-0.108267
-0.115281
-0.121798
-0.1277
-0.132847
-0.137132
-0.140431
-0.142658
-0.143697
-0.143481
-0.141908
-0.138956
-0.134568
-0.128801
-0.121671
-0.113332
-0.103875
-0.0935543
-0.0825203
-0.0711038
-0.0594648
-0.0479545
-0.0366394
-0.0257907