/*--------------------------------*- C++ -*----------------------------------*\
  =========                 |
  \\      /  F ield         | OpenFOAM: The Open Source CFD Toolbox
   \\    /   O peration     | Website:  https://openfoam.org
    \\  /    A nd           | Version:  7
     \\/     M anipulation  |
\*---------------------------------------------------------------------------*/
FoamFile
{
    version     2.0;
    format      ascii;
    class       surfaceScalarField;
    location    "310";
    object      phi;
}
// * * * * * * * * * * * * * * * * * * * * * * * * * * * * * * * * * * * * * //

dimensions      [0 3 -1 0 0 0 0];

internalField   nonuniform List<scalar> 
4136
(
-0.000985467
0.000228333
-0.003011
0.000525053
0.000690404
-0.000984632
0.00121297
-0.00300904
0.00254946
-0.00552529
0.00320666
-0.00824827
0.00349065
-0.0110845
0.00364546
-0.0140273
0.0037884
-0.0170914
0.00394994
-0.0202943
0.00413338
-0.0236523
0.00433737
0.0045613
-0.0271818
-0.000979509
0.00219247
-0.00299654
0.00456649
-0.00550599
0.00571611
-0.00822303
0.00620769
-0.0110537
0.00647616
-0.0139909
0.0067256
-0.0170494
0.0070084
-0.0202466
0.00733056
-0.0235989
0.0076897
0.00808489
-0.0271225
-0.000970104
0.00316258
-0.00297352
0.00656991
-0.00547035
0.00821294
-0.00817634
0.00891368
-0.0109967
0.00929648
-0.0139235
0.00965243
-0.0169714
0.0100563
-0.0201578
0.010517
-0.0234991
0.011031
0.0115969
-0.0270111
-0.000956435
0.00411901
-0.00293999
0.00855346
-0.00541836
0.0106913
-0.00810819
0.0116035
-0.0109133
0.0121016
-0.013825
0.0125641
-0.0168575
0.0130888
-0.0200281
0.0136876
-0.0233533
0.0143562
0.015092
-0.0268484
-0.000938527
0.00505754
-0.00289596
0.0105109
-0.00535004
0.0131454
-0.00801859
0.0142721
-0.0108037
0.0148867
-0.0136954
0.0154558
-0.0167076
0.016101
-0.0198575
0.0168374
-0.0231614
0.0176602
0.0185648
-0.0266342
-0.000916414
0.00597395
-0.00284148
0.012436
-0.00526539
0.0155693
-0.00790753
0.0169142
-0.0106679
0.0176471
-0.0135349
0.0183229
-0.016522
0.019088
-0.019646
0.0199615
-0.0229236
0.0209377
0.0220098
-0.0263686
-0.000890138
0.00686409
-0.00277658
0.0143224
-0.00516443
0.0179571
-0.00777502
0.0195248
-0.0105058
0.0203779
-0.0133434
0.0211605
-0.0163005
0.0220451
-0.0193939
0.0230548
-0.0226399
0.0241838
0.0254217
-0.0260518
-0.000859752
0.00772384
-0.00270132
0.016164
-0.00504719
0.020303
-0.00762106
0.0220987
-0.0103175
0.0230743
-0.013121
0.023964
-0.0160434
0.0249675
-0.0191012
0.0261126
-0.0223107
0.0273933
0.0287951
-0.0256841
-0.000825321
0.00854917
-0.00261575
0.0179544
-0.00491368
0.0226009
-0.00744567
0.0246307
-0.0101031
0.0257318
-0.0128678
0.0267287
-0.0157508
0.0278505
-0.0187681
0.02913
-0.0219362
0.0305613
0.0321247
-0.0252659
-0.00078692
0.00933609
-0.00251994
0.0196874
-0.00476394
0.0248449
-0.00724885
0.0271156
-0.00986253
0.0283455
-0.0125839
0.02945
-0.0154227
0.0306893
-0.018395
0.0321022
-0.0215167
0.0336831
0.0354056
-0.0247976
-0.000744639
0.0100807
-0.002414
0.0213568
-0.004598
0.0270289
-0.00703062
0.0295482
-0.00959585
0.0309107
-0.0122692
0.0321234
-0.0150594
0.0334795
-0.0179819
0.0350247
-0.0210526
0.0367538
0.038633
-0.02428
-0.000698581
0.0107793
-0.00229804
0.0229562
-0.00441592
0.0291468
-0.00679099
0.0319233
-0.0093031
0.0334228
-0.0119241
0.0347444
-0.0146611
0.0362165
-0.0175292
0.0378928
-0.0205446
0.0397692
0.0418023
-0.0237139
-0.000648866
0.0114282
-0.00217218
0.0244796
-0.00421778
0.0311924
-0.00652999
0.0342355
-0.00898434
0.0358772
-0.0115484
0.0373085
-0.0142277
0.0388958
-0.0170371
0.0407022
-0.019993
0.042725
0.0449098
-0.0231005
-0.000595635
0.0120238
-0.00203658
0.0259205
-0.00400365
0.0331595
-0.00624765
0.0364795
-0.00863959
0.0382691
-0.0111424
0.0398113
-0.0137596
0.041513
-0.0165058
0.0434483
-0.0193983
0.0456176
0.0479524
-0.022441
-0.000539045
0.0125629
-0.00189145
0.0272729
-0.00377364
0.0350417
-0.00594402
0.0386498
-0.00826893
0.040594
-0.0107062
0.0422486
-0.013257
0.0440637
-0.0159352
0.0461265
-0.0187608
0.0484433
0.0509286
-0.021737
-0.000479276
0.0130421
-0.001737
0.0285306
-0.00352791
0.0368326
-0.00561916
0.0407411
-0.00787241
0.0428473
-0.01024
0.0446162
-0.01272
0.0465437
-0.0153252
0.0487318
-0.0180803
0.0511984
0.0538389
-0.0209905
-0.000416532
0.0134587
-0.00157351
0.0296876
-0.00326662
0.0385257
-0.00527315
0.0427476
-0.00745008
0.0450242
-0.00974374
0.0469098
-0.0121489
0.0489489
-0.0146753
0.0512582
-0.0173539
0.0538769
0.0566884
-0.0202034
-0.000351036
0.0138097
-0.00140132
0.0307379
-0.00298999
0.0401143
-0.00490612
0.0446638
-0.00700206
0.0471201
-0.00921778
0.0491256
-0.011545
0.0512761
-0.0139878
0.053701
-0.016581
0.0564701
0.0594889
-0.0193815
-0.000283036
0.0140927
-0.00122081
0.0316757
-0.00269826
0.0415918
-0.0045182
0.0464837
-0.00652843
0.0491304
-0.00866171
0.0512588
-0.0109071
0.0535214
-0.0132595
0.0560534
-0.0157361
0.0589468
0.0622654
-0.0185127
-0.000212819
0.0143056
-0.00103243
0.0324953
-0.00239173
0.0429511
-0.00410963
0.0482016
-0.00602956
0.0510503
-0.00807628
0.0533056
-0.010238
0.0556832
-0.0125146
0.0583299
-0.0148656
0.0612978
0.0650573
-0.0176574
-0.000140793
0.0144463
-0.000836654
0.0331911
-0.00207072
0.0441852
-0.00368064
0.0498115
-0.00550571
0.0528753
-0.00746162
0.0552615
-0.00953149
0.057753
-0.011728
0.0605265
-0.0140604
0.0636302
0.0673374
-0.0163405
-6.78971e-05
0.0145142
-0.000633742
0.033757
-0.00173556
0.045287
-0.00323157
0.0513075
-0.004957
0.0546008
-0.00681826
0.0571227
-0.00879051
0.0597253
-0.0108829
0.0626189
-0.0130976
0.0658449
0.0696696
-0.0154298
9.37929e-07
0.0145133
-0.000423046
0.034181
-0.00138684
0.0462508
-0.00276292
0.0526836
-0.00438378
0.0562216
-0.00614707
0.058886
-0.00801985
0.0615981
-0.010009
0.0646081
-0.0121319
0.0679677
0.0719043
-0.0143666
8.39849e-05
0.0144293
-0.000201096
0.0344661
-0.00102552
0.0470752
-0.00227525
0.0539333
-0.00378663
0.057733
-0.00544897
0.0605484
-0.00722158
0.0633707
-0.00910861
0.0664951
-0.0111278
0.0699869
0.0740247
-0.0132481
0.000159093
0.0142702
3.60733e-05
0.0345891
-0.000653403
0.0477647
-0.00176881
0.0550488
-0.00316616
0.0591304
-0.00472445
0.0621067
-0.00639505
0.0650413
-0.00817818
0.0682782
-0.0100896
0.0718983
0.0760336
-0.0120985
0.000229143
0.0140411
0.000235577
0.0345826
-0.000269667
0.0482699
-0.00124458
0.0560237
-0.00252324
0.060409
-0.0039738
0.0635572
-0.00553979
0.0666073
-0.00721644
0.0699549
-0.00901746
0.0736993
0.0779352
-0.010919
0.000298299
0.0137428
0.000454242
0.0344267
0.00012781
0.0485963
-0.000705652
0.0568571
-0.00185853
0.0615619
-0.00319739
0.0648961
-0.00465606
0.0680659
-0.00622384
0.0715227
-0.00791135
0.0753868
0.0797245
-0.00970067
0.000366663
0.0133761
0.000674467
0.0341189
0.00051393
0.0487569
-0.000150904
0.057522
-0.00117247
0.0625835
-0.00239578
0.0661194
-0.0037444
0.0694146
-0.00520099
0.0729793
-0.00677237
0.0769582
0.0813952
-0.00844305
0.000432483
0.0129436
0.000894433
0.0336569
0.000915236
0.0487361
0.00041489
0.0580223
-0.000466853
0.0634652
-0.00156966
0.0672222
-0.00280537
0.0706503
-0.00414842
0.0743223
-0.00560172
0.0784115
0.0829435
-0.00714998
0.00049475
0.0124489
0.0011124
0.0330393
0.00132129
0.0485272
0.000994551
0.058349
0.000258567
0.0642012
-0.000720054
0.0682008
-0.00183969
0.0717699
-0.00306672
0.0755493
-0.00440052
0.0797453
0.084367
-0.00582403
0.000552608
0.0118963
0.00132574
0.0322662
0.0017289
0.048124
0.00158569
0.0584923
0.00100291
0.064784
0.000150374
0.0690534
-0.000848778
0.072769
-0.00195683
0.0766574
-0.0031701
0.0809586
0.085664
-0.00446714
0.000605128
0.0112912
0.00153176
0.0313395
0.00213509
0.0475207
0.0021848
0.0584426
0.00176436
0.0652044
0.00104896
0.0697688
0.000163402
0.0736546
-0.000821321
0.0776421
-0.00191061
0.0820479
0.0868349
-0.0030815
0.000651411
0.0106397
0.00172772
0.0302632
0.00253629
0.0467121
0.0027888
0.05819
0.00254006
0.0654532
0.00196633
0.0703425
0.00121055
0.0744104
0.00033787
0.0785148
-0.000616286
0.0830021
0.0878923
-0.00167375
0.00069064
0.0099491
0.00191079
0.0290431
0.00292839
0.0456945
0.00339394
0.0577245
0.00332742
0.0655197
0.00290261
0.0707673
0.0022758
0.0750372
0.00153171
0.0792589
0.000694492
0.0838393
0.0888528
-0.000265971
0.000722096
0.009227
0.002078
0.0276872
0.00330682
0.0444657
0.00399571
0.0570356
0.00412307
0.0653923
0.00385561
0.0710348
0.00336232
0.0755305
0.00274227
0.0798789
0.00203141
0.0845501
0.0896447
0.00123955
0.000745181
0.00848182
0.0022262
0.0262062
0.00366644
0.0430255
0.00458877
0.0561133
0.00492282
0.0650583
0.00482262
0.071135
0.00446856
0.0758845
0.00397629
0.0803712
0.00339691
0.0851295
0.0902959
0.0027457
0.000759458
0.00772236
0.00235208
0.0246135
0.00400164
0.0413759
0.00516693
0.054948
0.00572156
0.0645036
0.00580023
0.0710563
0.00559236
0.0760924
0.0052314
0.0807322
0.00478135
0.0855796
0.0908145
0.0042627
0.000764706
0.00695766
0.0024528
0.0229254
0.00430632
0.0395224
0.00572299
0.0535313
0.00651307
0.0637136
0.00678407
0.0707853
0.00673068
0.0761458
0.00650437
0.0809585
0.00618334
0.0859006
0.0912029
0.00579499
0.000760911
0.00619675
0.00252573
0.0211606
0.00457402
0.0374741
0.00624874
0.0518566
0.00728986
0.0626725
0.00776866
0.0703065
0.00787994
0.0760345
0.00779268
0.0810458
0.00760181
0.0860915
0.0914618
0.00734288
0.000748272
0.00544848
0.00256871
0.0193402
0.00479808
0.0352447
0.0067349
0.0499198
0.00804298
0.0613644
0.00874724
0.0696022
0.00903584
0.0757459
0.00909391
0.0809877
0.00903541
0.08615
0.0915915
0.00890574
0.000727215
0.00472126
0.00258021
0.0174872
0.00497185
0.0328531
0.0071712
0.0477204
0.00876188
0.0597737
0.00971147
0.0686526
0.010193
0.0752644
0.010405
0.0807757
0.0104823
0.0860726
0.0915915
0.0104823
0.000698395
0.00402287
0.00255956
0.015626
0.0050891
0.0303235
0.00754656
0.045263
0.00943433
0.0578859
0.0106511
0.0674358
0.0113445
0.074571
0.0117219
0.0803983
0.0119401
0.0858544
0.0914602
0.0120714
0.000662678
0.00336019
0.00250712
0.0137816
0.00514446
0.0276862
0.00784937
0.042558
0.0100463
0.055689
0.0115537
0.0659284
0.0124814
0.0736433
0.0130392
0.0798405
0.0134056
0.085488
0.0911948
0.013671
0.00062112
0.00273907
0.00242434
0.0119784
0.005134
0.0249765
0.00806795
0.0396241
0.010582
0.053175
0.0124042
0.0641062
0.0135926
0.0724549
0.0143499
0.0790832
0.0148748
0.0849631
0.0907913
0.0152784
0.000574926
0.00216414
0.00231382
0.0102395
0.00505579
0.0222346
0.00819125
0.0364886
0.0110243
0.0503419
0.0131851
0.0619455
0.0146639
0.0709761
0.0156448
0.0781023
0.0163425
0.0842654
0.0902435
0.0168903
0.000525392
0.00163875
0.00217918
0.00858569
0.00491051
0.0195032
0.00820979
0.0331894
0.0113551
0.0471965
0.0138756
0.059425
0.0156778
0.0691739
0.0169117
0.0768684
0.0178014
0.0833756
0.089542
0.0185029
0.000473843
0.00116491
0.0020249
0.00703463
0.00470174
0.0168264
0.00811675
0.0297744
0.0115562
0.043757
0.0144526
0.0565287
0.0166128
0.0670136
0.0181351
0.0753461
0.0192421
0.0822686
0.0886733
0.0201108
0.000421563
0.000743342
0.00185594
0.00560025
0.00443607
0.0142463
0.00790927
0.0263012
0.0116107
0.0400556
0.0148906
0.0532488
0.0174434
0.0644608
0.0192947
0.0734948
0.0206516
0.0809117
0.0217071
0.000369712
0.00037363
0.00167746
0.00429251
0.0041227
0.011801
0.00758963
0.0228342
0.0115044
0.0361408
0.015163
0.0495902
0.0181397
0.0614841
0.0203653
0.0712692
0.000319253
5.43772e-05
0.00149434
0.00311742
0.00377272
0.00952265
0.00716605
0.0194409
0.0112285
0.0320784
0.0152435
0.0455752
0.0186676
0.05806
0.000270882
-0.000216504
0.00131088
0.00207742
0.00339802
0.00743551
0.00665261
0.0161863
0.0107816
0.0279494
0.0151088
0.000224981
-0.000441486
0.00113052
0.00117188
0.00301012
0.00555591
0.00606818
0.0131282
0.000181655
-0.00062314
0.000955718
0.00039782
0.00261924
0.00389239
0.000140797
-0.000763937
0.000788134
-0.000249517
0.000102259
-0.000866196
-0.000776239
6.60489e-05
-0.000932245
0.0344338
-0.000222273
0.00114383
0.0334957
-0.00183199
0.00277007
0.0325303
-0.00447527
0.00544066
0.0315417
-0.00606908
0.00705772
0.0305154
-0.00875814
0.00978437
0.0294517
-0.0102459
0.0113097
0.0283313
-0.0129982
0.0141186
0.0271546
-0.0145282
0.015705
0.0259058
-0.017503
0.0187518
0.0245929
-0.0191539
0.0204667
0.0232193
-0.0224851
0.0238588
0.0218137
-0.0240924
0.025498
0.0204091
-0.027893
0.0292976
0.0191364
-0.0289186
0.0301912
-0.0337003
0.0351793
0.0345609
0.000572191
0.0337392
-0.00101035
0.0328785
-0.00361452
0.0319857
-0.00517632
0.0310444
-0.00781678
0.030059
-0.00926058
0.0290066
-0.0119457
0.0278947
-0.0134164
0.0266994
-0.0163078
0.0254414
-0.0178958
0.0241019
-0.0211456
0.0227366
-0.0227271
0.0213098
-0.0264661
0.0200013
-0.0276101
-0.0322117
0.0346828
0.00124472
0.0339745
-0.000302011
0.0332151
-0.00285512
0.0324178
-0.00437904
0.031561
-0.00695996
0.0306563
-0.00835595
0.0296743
-0.0109637
0.0286305
-0.0123725
0.0274915
-0.0151688
0.0262879
-0.0166923
0.0249826
-0.0198402
0.02365
-0.0213945
0.0222142
-0.0250303
0.0208748
-0.0262707
-0.0307185
0.0347991
0.00180096
0.034199
0.000298048
0.0335367
-0.00219279
0.0328311
-0.00367339
0.0320556
-0.00618445
0.0312287
-0.00752912
0.0303148
-0.0100498
0.0293369
-0.0113946
0.0282525
-0.0140844
0.0271023
-0.015542
0.0258314
-0.0185693
0.0245303
-0.0200935
0.0230949
-0.0235949
0.0217294
-0.0249052
-0.0291925
0.0349095
0.00224676
0.0344124
0.000795228
0.0338424
-0.00162281
0.033224
-0.00305497
0.0325258
-0.00548625
0.031773
-0.00677639
0.0309237
-0.00920047
0.0300088
-0.0104797
0.0289763
-0.0130519
0.027877
-0.0144427
0.0266399
-0.0173322
0.0253675
-0.0188211
0.0239377
-0.0221652
0.0225491
-0.0235165
-0.027634
0.0350138
0.00258826
0.0346142
0.00119485
0.0341315
-0.00114013
0.0335959
-0.00251929
0.0329709
-0.00486126
0.0322885
-0.00609404
0.0315004
-0.00841236
0.0306452
-0.00962456
0.0296619
-0.0120686
0.0286102
-0.013391
0.027406
-0.016128
0.026159
-0.0175741
0.0247374
-0.0207435
0.0233294
-0.0221086
-0.0260415
0.0351119
0.0028317
0.0348042
0.00150257
0.0344037
-0.000739643
0.0339461
-0.00206169
0.0333901
-0.00430525
0.0327742
-0.00547817
0.0320437
-0.00768187
0.0312448
-0.00882561
0.0303077
-0.0111314
0.0293002
-0.0123836
0.0281276
-0.0149554
0.0269031
-0.0163496
0.0254906
-0.019331
0.0240667
-0.0206847
-0.0244158
0.0352036
0.00298342
0.034982
0.00172423
0.0346584
-0.00041604
0.034274
-0.00167734
0.0337825
-0.00381379
0.0332291
-0.00492468
0.0325524
-0.00700526
0.031806
-0.00807916
0.0309122
-0.0102377
0.0299454
-0.0114167
0.028803
-0.013813
0.0275986
-0.0151451
0.0261951
-0.0179275
0.024758
-0.0192476
-0.0227583
0.0352888
0.00304995
0.0351473
0.00186575
0.0348951
-0.000163869
0.034579
-0.00136122
0.0341476
-0.00338237
0.0336522
-0.00442929
0.0330257
-0.00637878
0.0323279
-0.00738132
0.0314746
-0.00938439
0.0305447
-0.0104869
0.0294308
-0.0126992
0.0282443
-0.0139587
0.0268494
-0.0165325
0.025401
-0.0177992
-0.0210712
0.0353674
0.00303792
0.0352998
0.00193329
0.0351135
2.24113e-05
0.0348606
-0.00110823
0.0344846
-0.00300639
0.0340429
-0.00398762
0.0334627
-0.0057986
0.0328095
-0.00672811
0.0319937
-0.00856856
0.0310972
-0.00959034
0.0300098
-0.0116118
0.0288394
-0.0127882
0.0274522
-0.0151454
0.025994
-0.016341
-0.0193572
0.0354391
0.00295412
0.0354396
0.00193278
0.0353129
0.000149117
0.0351182
-0.000913476
0.034793
-0.0026812
0.0344005
-0.00359515
0.0338628
-0.00526089
0.0332502
-0.00611547
0.0324688
-0.00778718
0.0316022
-0.00872374
0.0305392
-0.0105488
0.029383
-0.011632
0.0280026
-0.013765
0.0265359
-0.0148743
-0.0176189
0.035504
0.00280543
0.0355659
0.00187092
0.0354937
0.000221313
0.0353515
-0.000771251
0.0350723
-0.00240206
0.0347245
-0.00324728
0.0342253
-0.00476175
0.0336492
-0.00553933
0.0328992
-0.00703717
0.0320591
-0.0078837
0.0310181
-0.0095078
0.0298745
-0.0104884
0.0285
-0.0123905
0.0270256
-0.0133999
-0.0158591
0.0355619
0.00259884
0.0356786
0.00175425
0.0356553
0.000244615
0.0355601
-0.000676011
0.0353222
-0.00216422
0.0350142
-0.00293931
0.0345498
-0.00429726
0.0340061
-0.00499564
0.0332842
-0.00631533
0.0324675
-0.007067
0.0314461
-0.00848637
0.0303134
-0.00935568
0.0289438
-0.0110208
0.0274625
-0.0119187
-0.0140807
0.0356127
0.00234145
0.0357777
0.00158931
0.0357974
0.000224899
0.0357436
-0.000622221
0.0355422
-0.00196283
0.0352694
-0.0026665
0.0348356
-0.00386344
0.0343203
-0.00448033
0.0336234
-0.00561843
0.0328269
-0.00627052
0.0318225
-0.00748203
0.0306992
-0.00823235
0.0293336
-0.0096552
0.0278462
-0.0104313
-0.0122863
0.0356564
0.0020404
0.0358629
0.00138278
0.0359198
0.000168067
0.0359018
-0.000604258
0.035732
-0.00179303
0.0354895
-0.00242406
0.0350823
-0.00345624
0.0345914
-0.00398941
0.0339161
-0.00494313
0.0331369
-0.00549127
0.0321471
-0.0064923
0.0310317
-0.00711686
0.0296692
-0.00829272
0.0281763
-0.00893844
-0.0104786
0.0356928
0.0017029
0.0359343
0.00114136
0.0360222
8.0131e-05
0.0360344
-0.000616479
0.0358913
-0.00164988
0.0356744
-0.00220717
0.0352897
-0.00307158
0.0348192
-0.00351889
0.0341621
-0.00428608
0.0333972
-0.00472632
0.0324196
-0.00551472
0.0313105
-0.0060078
0.0299504
-0.00693263
0.0284528
-0.00744078
-0.00865997
0.035722
0.00133621
0.0359916
0.000871788
0.0361045
-3.27327e-05
0.0361412
-0.000653254
0.0360198
-0.00152843
0.0358236
-0.002011
0.0354574
-0.00270534
0.0350033
-0.00306481
0.0343611
-0.00364387
0.0336076
-0.00397284
0.0326397
-0.00454683
0.0315357
-0.00490378
0.0301773
-0.00557423
0.0286756
-0.00593909
-0.00683271
0.0357439
0.000947643
0.0360347
0.000580987
0.0361666
-0.000164674
0.0362221
-0.000708719
0.0361174
-0.00142367
0.035937
-0.00183069
0.035585
-0.00235333
0.0351435
-0.00262329
0.0345127
-0.00301305
0.0337679
-0.00322805
0.0328074
-0.00358627
0.0317071
-0.00380352
0.0303497
-0.00421688
0.0288449
-0.00443423
-0.00499896
0.0357585
0.000544529
0.0360636
0.000275872
0.0362086
-0.000309696
0.0362769
-0.000777039
0.0361838
-0.00133058
0.0360145
-0.00166138
0.0356725
-0.00201135
0.0352397
-0.00219041
0.0346168
-0.0023902
0.0338779
-0.00248916
0.0329224
-0.0026308
0.0318248
-0.00270589
0.0304677
-0.0028598
0.0289605
-0.00292702
-0.00316093
0.0357657
0.0360782
0.0362302
0.0363055
0.0362191
0.0360559
0.0357197
0.0352916
0.0346733
0.0339374
0.0329847
0.0318889
0.0305318
0.029022
0.202006
-0.000201778
0.202518
-0.000512355
0.20331
-0.000792412
0.204282
-0.000971467
0.2054
-0.00111854
0.206584
-0.00118317
0.207806
-0.00122206
0.209005
-0.00119978
0.210173
-0.00116758
0.211267
-0.00109448
0.212295
-0.00102747
0.213228
-0.000933232
0.214086
-0.000857489
0.214846
-0.000760428
-0.000689833
0.215536
0.192576
-0.000393797
0.193062
-0.000998613
0.193815
-0.0015453
0.194739
-0.00189577
0.195807
-0.00218629
0.196939
-0.00231546
0.198113
-0.00239606
0.199269
-0.00235547
0.200398
-0.00229625
0.201458
-0.00215471
0.202456
-0.00202565
0.203364
-0.00184109
0.2042
-0.00169364
0.204942
-0.00150259
-0.00136577
0.205618
0.183586
-0.000576044
0.184041
-0.00145361
0.184754
-0.00225874
0.185632
-0.00277359
0.186655
-0.00320897
0.187743
-0.00340382
0.18888
-0.00353246
0.190002
-0.0034782
0.191106
-0.00339962
0.192145
-0.00319447
0.19313
-0.00300996
0.194027
-0.00273837
0.194858
-0.00252412
0.195595
-0.00224049
-0.00204024
0.19627
0.175015
-0.000748639
0.175437
-0.00187518
0.17611
-0.0029322
0.176941
-0.00360457
0.177921
-0.00418871
0.178969
-0.00445155
0.180074
-0.00463741
0.181171
-0.00457547
0.182259
-0.00448754
0.183289
-0.00422424
0.184271
-0.00399228
0.185169
-0.00363667
0.186006
-0.00336099
0.186751
-0.00298526
-0.00272517
0.187436
0.166844
-0.000911708
0.16723
-0.00226118
0.167863
-0.00356501
0.168646
-0.00438736
0.169583
-0.00512605
0.170591
-0.00545965
0.171668
-0.00571434
0.172744
-0.00565168
0.173824
-0.00556664
0.174851
-0.00525127
0.17584
-0.00498137
0.176748
-0.00454471
0.177601
-0.00421383
0.178361
-0.00374586
-0.00342988
0.179066
0.159054
-0.00106528
0.159403
-0.00260947
0.159994
-0.00415645
0.160727
-0.0051198
0.161621
-0.0060202
0.162588
-0.00642707
0.163638
-0.00676432
0.164695
-0.00670854
0.165769
-0.00664081
0.166798
-0.00628009
0.1678
-0.00598342
0.168724
-0.00546885
0.1696
-0.00509007
0.170384
-0.00452933
-0.00416195
0.171116
0.151627
-0.00120918
0.151936
-0.00291814
0.152485
-0.00470585
0.153165
-0.00579896
0.154014
-0.00686931
0.154938
-0.00735111
0.15596
-0.00778648
0.156997
-0.00774547
0.158068
-0.0077116
0.1591
-0.00731282
0.160119
-0.00700243
0.161064
-0.00641347
0.161969
-0.00599539
0.162781
-0.00534118
-0.00492767
0.163547
0.144546
-0.001343
0.144814
-0.00318582
0.145321
-0.00521267
0.145943
-0.00642132
0.146745
-0.00767085
0.147621
-0.00822772
0.148613
-0.00877837
0.149628
-0.00875991
0.150694
-0.00877848
0.151731
-0.00834951
0.152769
-0.00804052
0.153737
-0.00738118
0.154676
-0.00693394
0.15552
-0.00618559
-0.00573224
0.156324
0.137794
-0.00146591
0.138021
-0.00341201
0.138484
-0.00567636
0.139046
-0.00698315
0.139797
-0.00842195
0.140621
-0.00905191
0.141579
-0.00973633
0.142567
-0.00974763
0.143628
-0.00983919
0.144667
-0.00938837
0.145724
-0.00909809
0.146716
-0.00837302
0.147691
-0.00790853
0.148571
-0.00706564
-0.00657993
0.149418
0.131356
-0.00157675
0.131541
-0.00359736
0.131961
-0.0060962
0.132459
-0.00748095
0.133157
-0.0091197
0.133923
-0.00981804
0.134842
-0.0106558
0.135798
-0.010703
0.136848
-0.0108899
0.137886
-0.010426
0.138962
-0.010174
0.139978
-0.00938865
0.14099
-0.00892082
0.141908
-0.00798339
-0.00747422
0.142802
0.125216
-0.00167403
0.125363
-0.00374379
0.125737
-0.00647101
0.126168
-0.0079121
0.12681
-0.0097612
0.127512
-0.0105202
0.128388
-0.0115318
0.129304
-0.0116193
0.13034
-0.0119257
0.131372
-0.0114575
0.132463
-0.0112658
0.133501
-0.0104264
0.134552
-0.00997134
0.135508
-0.00894
-0.00841789
0.136452
0.119361
-0.00175612
0.119471
-0.00385444
0.119799
-0.00679902
0.120162
-0.00827542
0.120745
-0.0103435
0.121377
-0.0111529
0.122204
-0.0123589
0.123074
-0.012489
0.124089
-0.0129403
0.125108
-0.0124767
0.126212
-0.0123697
0.127269
-0.0114834
0.128357
-0.0110596
0.129353
-0.00993579
-0.00941304
0.130348
0.113776
-0.00182149
0.113855
-0.00393333
0.114134
-0.00707791
0.11443
-0.00857156
0.11495
-0.0108635
0.115508
-0.0117112
0.116281
-0.0131315
0.117096
-0.0133039
0.118082
-0.013927
0.119082
-0.0134765
0.120193
-0.0134805
0.121265
-0.0125554
0.12239
-0.0121841
0.123424
-0.0109702
-0.0104612
0.124472
0.10845
-0.00186896
0.108502
-0.00398495
0.108729
-0.00730511
0.108961
-0.00880313
0.109415
-0.0113178
0.109896
-0.0121918
0.110608
-0.0138438
0.11136
-0.0140559
0.112311
-0.0148782
0.113283
-0.0144483
0.114395
-0.0145922
0.115477
-0.0136375
0.116635
-0.0133422
0.117707
-0.012042
-0.0115633
0.118809
0.103372
-0.00189797
0.1034
-0.00401368
0.103574
-0.00747832
0.103745
-0.00897443
0.10413
-0.0117026
0.104531
-0.0125935
0.105177
-0.0144899
0.105859
-0.0147375
0.106767
-0.0157863
0.107702
-0.0153832
0.108807
-0.0156975
0.109893
-0.0147232
0.111081
-0.0145305
0.112188
-0.013149
-0.0127196
0.113345
0.0985295
-0.0019087
0.0985392
-0.00402332
0.098657
-0.00759615
0.0987734
-0.00909085
0.0990849
-0.012014
0.0994084
-0.012917
0.0999816
-0.015063
0.100586
-0.0153423
0.101443
-0.0166428
0.102331
-0.0162714
0.103422
-0.0167884
0.104504
-0.0158051
0.105718
-0.0157442
0.106857
-0.0142883
-0.01393
0.108067
0.0939135
-0.00190214
0.0939069
-0.00401676
0.0939694
-0.00765861
0.0940367
-0.00915817
0.0942715
-0.0122488
0.0945199
-0.0131655
0.0950131
-0.0155562
0.0955367
-0.015866
0.0963327
-0.0174388
0.0971641
-0.0171028
0.0982317
-0.017856
0.0993014
-0.0168748
0.100535
-0.0169776
0.101703
-0.0154561
-0.0151932
0.102966
0.0895139
-0.00188001
0.0894929
-0.00399577
0.0895018
-0.00766749
0.0895254
-0.0091818
0.0896814
-0.0124048
0.0898592
-0.0133432
0.0902653
-0.0159623
0.0907057
-0.0163064
0.0914311
-0.0181642
0.0921963
-0.017868
0.0932311
-0.0188908
0.0942787
-0.0179224
0.095525
-0.018224
0.0967167
-0.0166478
-0.0165076
0.0980311
0.0853212
-0.00184461
0.0852866
-0.00396115
0.0852454
-0.00762634
0.0852299
-0.00916626
0.0853069
-0.0124818
0.0854192
-0.0134555
0.0857316
-0.0162747
0.0860891
-0.0166639
0.0867329
-0.018808
0.087424
-0.0185591
0.0884151
-0.0198819
0.0894298
-0.018937
0.0906815
-0.0194757
0.0918913
-0.0178576
-0.0178707
0.0932543
0.0813262
-0.00179854
0.0812779
-0.00391286
0.0811919
-0.00754033
0.0811405
-0.00911488
0.0811406
-0.012482
0.0811925
-0.0135074
0.0814062
-0.0164884
0.0816831
-0.0169408
0.0822335
-0.0193584
0.0828445
-0.0191702
0.0837797
-0.020817
0.0847499
-0.0199072
0.0859987
-0.0207245
0.0872194
-0.0190783
-0.019279
0.0886278
0.0775198
-0.00174445
0.0774574
-0.00385044
0.0773328
-0.00741571
0.0772477
-0.0090298
0.0771757
-0.0124099
0.0771712
-0.0135029
0.0772839
-0.0166011
0.0774835
-0.0171404
0.0779284
-0.0198033
0.0784562
-0.019698
0.0793207
-0.0216816
0.0802355
-0.0208219
0.0814722
-0.0219612
0.0826952
-0.0203013
-0.0207288
0.084145
0.0738932
-0.00168477
0.0738162
-0.00377349
0.0736597
-0.00725916
0.0735421
-0.00891225
0.0734049
-0.0122728
0.0733468
-0.0134448
0.0733596
-0.0166139
0.0734851
-0.0172658
0.0738141
-0.0201323
0.0742579
-0.0201419
0.0750345
-0.0224581
0.0758845
-0.0216719
0.0770982
-0.0231749
0.0783136
-0.0215167
-0.0222156
0.0798005
0.0704375
-0.00162147
0.0703462
-0.00368211
0.0701641
-0.00707706
0.0700149
-0.00876309
0.0698212
-0.012079
0.0697108
-0.0133345
0.0696288
-0.0165319
0.069682
-0.017319
0.069888
-0.0203382
0.0702486
-0.0205026
0.0709179
-0.0231274
0.0716964
-0.0224505
0.0728733
-0.0243517
0.0740703
-0.0227138
-0.0237362
0.0755908
0.0671444
-0.00155595
0.0670394
-0.00357711
0.0668374
-0.006875
0.0666579
-0.00858364
0.0664166
-0.0118377
0.0662549
-0.0131727
0.0660867
-0.0163637
0.0660677
-0.0173
0.0661488
-0.0204193
0.0664264
-0.0207802
0.0669693
-0.0236702
0.0676731
-0.0231543
0.0687935
-0.0254722
0.0699606
-0.0238809
-0.0252913
0.0715158
0.0640058
-0.00148905
0.0638887
-0.00346006
0.0636712
-0.00665745
0.0634638
-0.00837623
0.0631832
-0.0115572
0.0629714
-0.0129609
0.0627278
-0.0161201
0.0626353
-0.0172075
0.0625958
-0.0203798
0.0627883
-0.0209727
0.0631893
-0.0240713
0.0638181
-0.0237831
0.0648558
-0.0265099
0.0659798
-0.0250049
-0.0268891
0.0675776
0.061014
-0.00142116
0.060887
-0.00333307
0.0606573
-0.00642779
0.0604254
-0.00814431
0.0601127
-0.0112444
0.0598537
-0.0127019
0.0595455
-0.0158119
0.0593787
-0.0170407
0.0592282
-0.0202293
0.0593301
-0.0210746
0.0595806
-0.0243217
0.0601351
-0.0243376
0.0610595
-0.0274343
0.0621291
-0.0260744
-0.0285344
0.0637744
0.058162
-0.00135248
0.0580274
-0.00319849
0.0577882
-0.00618865
0.0575361
-0.00789212
0.0571969
-0.0109053
0.0568958
-0.0124008
0.0565328
-0.0154489
0.0562934
-0.0168013
0.0560439
-0.0199798
0.0560482
-0.0210789
0.0561469
-0.0244204
0.0566213
-0.024812
0.057405
-0.028218
0.0584244
-0.0270939
-0.0302005
0.0600905
0.0554432
-0.00128314
0.0553033
-0.00305863
0.0550571
-0.00594241
0.0547892
-0.00762426
0.0544289
-0.010545
0.0540921
-0.012064
0.053683
-0.0150399
0.0533759
-0.0164942
0.0530393
-0.0196432
0.05294
-0.0209797
0.0528911
-0.0243715
0.0532638
-0.0251846
0.0538784
-0.0288326
0.054895
-0.0281105
-0.0318091
0.0565036
0.0528515
-0.00121336
0.0527085
-0.00291561
0.0524576
-0.00569153
0.0521787
-0.00734535
0.0518024
-0.0101687
0.0514372
-0.0116987
0.05099
-0.0145927
0.0506228
-0.016127
0.0502089
-0.0192293
0.0500051
-0.0207759
0.0498131
-0.0241795
0.0500502
-0.0254217
0.0504354
-0.0292178
0.0515228
-0.0291979
-0.033344
0.0530577
0.0503814
0.0502359
0.049985
0.0496974
0.049313
0.0489239
0.0484498
0.0480278
0.0475503
0.0472412
0.0469204
0.0469967
0.0470766
0.0480699
0.0499052
0.213998
0.001538
0.212522
0.00147636
0.211117
0.00140493
0.209786
0.0013309
0.208531
0.0012544
0.207356
0.00117557
0.206261
0.00109452
0.20525
0.00101138
0.204324
0.000926267
0.203484
0.000839317
0.202734
0.000750664
0.202073
0.000660446
0.201504
0.000568808
0.201028
0.000475895
0.200647
0.000381859
0.20036
0.000286851
0.200169
0.000191032
0.200074
9.45699e-05
0.200076
-2.00013e-06
-9.97765e-05
0.200176
0.204149
0.00300756
0.202739
0.00288641
0.201398
0.00274606
0.200128
0.00260064
0.198932
0.00245043
0.197812
0.0022957
0.196769
0.0021367
0.195807
0.00197366
0.194927
0.00180682
0.19413
0.00163643
0.193417
0.00146276
0.192792
0.00128609
0.192254
0.00110669
0.191805
0.000924853
0.191446
0.000740868
0.191178
0.000555032
0.191001
0.00036765
0.190917
0.000179031
0.190925
-1.03116e-05
-0.000200779
0.191026
0.194869
0.00440872
0.193525
0.00423059
0.192247
0.0040237
0.191038
0.00380939
0.1899
0.00358815
0.188836
0.00336037
0.187846
0.00312642
0.186933
0.00288662
0.186099
0.00264132
0.185344
0.00239089
0.184671
0.00213572
0.184081
0.00187622
0.183575
0.00161278
0.183154
0.00134583
0.182819
0.00107579
0.182571
0.000803085
0.182411
0.000528165
0.182338
0.00025149
0.182354
-2.62471e-05
-0.000305548
0.182459
0.186102
0.00574228
0.184823
0.00550992
0.183608
0.00523886
0.182459
0.00495811
0.181379
0.00466841
0.180369
0.00437033
0.179431
0.00406431
0.178567
0.00375075
0.177778
0.00343011
0.177066
0.00310286
0.176432
0.00276951
0.175878
0.00243058
0.175404
0.0020866
0.175012
0.0017381
0.174702
0.00138564
0.174475
0.00102976
0.174332
0.000671047
0.174274
0.000310091
0.1743
-5.23777e-05
-0.000416541
0.174411
0.177799
0.00700902
0.176584
0.00672531
0.17543
0.00639239
0.174341
0.00604755
0.173317
0.00569188
0.172361
0.00532614
0.171475
0.00495081
0.170659
0.00456636
0.169916
0.00417334
0.169247
0.00377233
0.168652
0.00336395
0.168134
0.00294883
0.167693
0.00252761
0.16733
0.00210093
0.167046
0.00166947
0.166842
0.0012339
0.166718
0.000794905
0.166675
0.000353229
0.166713
-9.03791e-05
-0.00053585
0.166833
0.169915
0.00820955
0.168763
0.00787745
0.167671
0.00748495
0.16664
0.00707832
0.165673
0.00665911
0.164771
0.00622824
0.163935
0.00578627
0.163168
0.00533371
0.16247
0.00487116
0.161843
0.00439932
0.161288
0.00391892
0.160806
0.00343069
0.160398
0.00293537
0.160066
0.00243372
0.159809
0.00192651
0.159628
0.00141453
0.159524
0.000898583
0.159498
0.000379542
0.159549
-0.000141891
-0.000665293
0.159679
0.162412
0.00934429
0.161323
0.00896679
0.160291
0.00851696
0.159318
0.00805084
0.158407
0.00757045
0.157558
0.00707696
0.156774
0.00657094
0.156054
0.00605294
0.155402
0.00552362
0.154817
0.00498378
0.154302
0.00443425
0.153857
0.00387587
0.153483
0.00330946
0.153181
0.00273589
0.152951
0.00215602
0.152795
0.00157075
0.152712
0.000981007
0.152704
0.000387786
0.152771
-0.000208343
-0.00080651
0.152912
0.155255
0.0104134
0.154229
0.0099935
0.153257
0.00948863
0.152343
0.00896529
0.151487
0.00842609
0.150691