/*--------------------------------*- C++ -*----------------------------------*\
  =========                 |
  \\      /  F ield         | OpenFOAM: The Open Source CFD Toolbox
   \\    /   O peration     | Website:  https://openfoam.org
    \\  /    A nd           | Version:  7
     \\/     M anipulation  |
\*---------------------------------------------------------------------------*/
FoamFile
{
    version     2.0;
    format      ascii;
    class       volVectorField;
    location    "310";
    object      U;
}
// * * * * * * * * * * * * * * * * * * * * * * * * * * * * * * * * * * * * * //

dimensions      [0 1 -1 0 0 0 0];

internalField   nonuniform List<vector> 
2125
(
(0.0187492 0.00730445 1.69976e-21)
(0.0848402 0.0114355 -4.6748e-21)
(0.185438 0.0104882 -5.29705e-21)
(0.0189936 -0.0205357 -1.69654e-21)
(0.0853205 -0.0396086 4.66702e-21)
(0.185997 -0.0447884 5.29069e-21)
(0.281101 -0.0434822 -5.0637e-21)
(0.366768 -0.0402566 4.45724e-21)
(0.443103 -0.0370079 2.23146e-21)
(0.510951 -0.0341287 -3.56218e-21)
(0.571327 -0.0315964 -4.14053e-21)
(0.625027 -0.029343 6.10895e-22)
(0.672763 -0.0273114 -1.72297e-21)
(0.0213591 -0.0482204 1.86038e-21)
(0.0895631 -0.0904214 -5.55972e-21)
(0.190561 -0.0998481 1.24473e-20)
(0.285365 -0.0949493 -1.09296e-20)
(0.370565 -0.0861495 -5.16803e-22)
(0.446453 -0.0775416 -7.26849e-21)
(0.513908 -0.069926 1.18117e-20)
(0.573954 -0.0632349 1.60612e-20)
(0.627383 -0.0573008 2.87212e-21)
(0.674816 -0.0520042 -6.18348e-21)
(0.0258173 -0.0755062 -1.59204e-21)
(0.097529 -0.140634 -1.17382e-20)
(0.199096 -0.154342 -2.7311e-20)
(0.29331 -0.145934 2.36396e-20)
(0.377616 -0.131632 4.87367e-21)
(0.452648 -0.117722 4.31323e-21)
(0.519354 -0.105418 -2.12495e-20)
(0.578767 -0.0946078 -1.25279e-20)
(0.631676 -0.0850241 -2.78582e-21)
(0.678512 -0.0764949 1.91025e-20)
(0.0323151 -0.102153 -5.61032e-21)
(0.109145 -0.189884 7.06673e-21)
(0.211535 -0.207927 4.94668e-20)
(0.304881 -0.196141 -4.44588e-21)
(0.387875 -0.176455 -1.27119e-20)
(0.461651 -0.157336 9.12427e-21)
(0.527256 -0.14042 6.26655e-22)
(0.585738 -0.125554 3.21882e-21)
(0.637882 -0.112371 -7.04572e-21)
(0.683845 -0.100664 -1.86314e-20)
(0.0407748 -0.127929 -3.78339e-21)
(0.124302 -0.237813 2.05908e-20)
(0.227783 -0.260263 -4.97599e-20)
(0.319999 -0.245282 2.1561e-20)
(0.401276 -0.220373 2.04234e-22)
(0.473405 -0.196171 -2.73733e-20)
(0.537564 -0.17475 1.20985e-20)
(0.594824 -0.155917 -1.12595e-21)
(0.645963 -0.139207 4.59506e-21)
(0.690788 -0.124403 -1.38716e-21)
(0.0510949 -0.152607 -4.3295e-20)
(0.14286 -0.284074 -5.17854e-20)
(0.247712 -0.31102 1.35951e-20)
(0.338558 -0.293075 -2.46988e-20)
(0.417732 -0.263146 -6.98312e-21)
(0.487835 -0.234024 1.04302e-20)
(0.550215 -0.208232 3.87095e-21)
(0.605967 -0.185543 1.43885e-20)
(0.65587 -0.165395 -3.09973e-21)
(0.699309 -0.147598 1.66939e-20)
(0.0631509 -0.175974 4.1401e-20)
(0.164644 -0.328335 2.6622e-20)
(0.271165 -0.35988 -2.01321e-20)
(0.360431 -0.339246 3.39321e-20)
(0.437136 -0.304544 -2.89744e-21)
(0.504852 -0.270695 -3.67713e-20)
(0.565131 -0.240694 6.45295e-21)
(0.619098 -0.214285 -3.91348e-20)
(0.66754 -0.190808 1.50762e-21)
(0.709364 -0.170132 1.42203e-20)
(0.0767962 -0.197827 -3.06595e-20)
(0.189448 -0.370275 5.49603e-20)
(0.297957 -0.406536 2.15816e-20)
(0.385464 -0.383534 -2.6768e-20)
(0.459362 -0.344345 2.44411e-22)
(0.524348 -0.305997 6.7752e-20)
(0.582219 -0.271975 3.08488e-21)
(0.634137 -0.242001 3.01005e-20)
(0.680903 -0.21532 3.6678e-20)
(0.720905 -0.191896 -2.05728e-20)
(0.0918636 -0.21798 1.71769e-20)
(0.217034 -0.409594 -8.23823e-21)
(0.327874 -0.450697 -1.953e-20)
(0.413482 -0.42569 1.46891e-20)
(0.484265 -0.38234 5.66738e-20)
(0.546199 -0.339748 -1.99637e-20)
(0.601374 -0.301918 -3.27123e-21)
(0.65099 -0.26856 -4.34753e-20)
(0.695878 -0.238814 -5.38027e-20)
(0.733875 -0.212783 2.35515e-20)
(0.108167 -0.236263 -2.26911e-20)
(0.247137 -0.446012 -1.99405e-20)
(0.360676 -0.492091 3.38528e-21)
(0.444288 -0.46548 -7.74747e-20)
(0.511683 -0.41833 -3.29356e-20)
(0.570268 -0.37178 -2.41306e-20)
(0.622478 -0.33038 -3.17694e-20)
(0.669556 -0.293836 1.47221e-20)
(0.712375 -0.261181 1.76342e-20)
(0.748211 -0.23269 2.64465e-20)
(0.125501 -0.252525 4.75555e-21)
(0.279463 -0.479271 2.86101e-20)
(0.396097 -0.530463 2.1072e-20)
(0.477665 -0.502684 3.59077e-20)
(0.541436 -0.452133 2.83399e-20)
(0.596404 -0.401939 -2.70944e-20)
(0.645401 -0.357226 2.53449e-20)
(0.689721 -0.317716 1.74617e-20)
(0.730298 -0.282322 -2.05289e-21)
(0.763845 -0.251521 -7.89718e-21)
(0.143648 -0.266635 5.05128e-20)
(0.313693 -0.509139 -2.5003e-20)
(0.433847 -0.56558 -1.93295e-20)
(0.513374 -0.537103 -1.13619e-20)
(0.57333 -0.48358 2.12417e-20)
(0.624442 -0.43008 1.92737e-20)
(0.670004 -0.382334 -2.70078e-20)
(0.711365 -0.340097 2.08254e-20)
(0.749543 -0.302147 9.72296e-22)
(0.780705 -0.269187 1.95022e-20)
(0.162373 -0.278486 -3.51231e-20)
(0.349484 -0.535409 -1.32762e-20)
(0.473614 -0.597232 -1.94884e-21)
(0.551161 -0.568556 2.08026e-20)
(0.607155 -0.512522 -3.88909e-21)
(0.654208 -0.456077 -2.09538e-20)
(0.696134 -0.405596 5.89283e-21)
(0.734355 -0.360887 6.3821e-21)
(0.769998 -0.320581 1.52057e-20)
(0.798712 -0.28561 -2.9974e-20)
(0.181431 -0.287992 -1.37917e-20)
(0.38647 -0.557907 3.15007e-20)
(0.515063 -0.625234 2.49909e-20)
(0.590753 -0.596882 -1.15689e-20)
(0.642692 -0.538824 -2.62361e-20)
(0.685514 -0.479817 -1.9598e-20)
(0.723634 -0.426914 2.27544e-20)
(0.758553 -0.380007 -4.55604e-20)
(0.791548 -0.33756 1.17671e-20)
(0.817792 -0.300721 3.18997e-20)
(0.200569 -0.295095 2.78465e-20)
(0.424268 -0.576488 -1.68497e-20)
(0.557841 -0.649427 3.92338e-21)
(0.631861 -0.621941 2.37377e-22)
(0.679706 -0.562372 -6.53106e-21)
(0.718168 -0.501205 3.2644e-20)
(0.752336 -0.446207 -2.90888e-20)
(0.783811 -0.397391 2.8239e-20)
(0.814067 -0.353042 -4.31522e-20)
(0.837869 -0.314476 -1.6256e-20)
(0.219527 -0.299762 -7.12883e-22)
(0.462477 -0.591041 -1.88924e-20)
(0.601578 -0.669679 1.42174e-21)
(0.674185 -0.643618 -6.18932e-21)
(0.717953 -0.583071 -4.41925e-21)
(0.751967 -0.52016 4.79167e-22)
(0.782068 -0.463404 -1.90369e-20)
(0.809968 -0.412979 -1.27499e-21)
(0.837413 -0.366983 2.62465e-20)
(0.858875 -0.326837 -3.34872e-20)
(0.238039 -0.301987 7.40652e-21)
(0.500685 -0.601488 1.22065e-20)
(0.645887 -0.685888 -1.49957e-20)
(0.717409 -0.661819 -6.09047e-21)
(0.757183 -0.600846 4.94412e-20)
(0.786705 -0.536624 -4.14116e-20)
(0.812658 -0.478457 4.20438e-20)
(0.836857 -0.426742 7.34473e-22)
(0.861428 -0.379415 8.48824e-21)
(0.880765 -0.33788 3.08078e-20)
(0.255843 -0.301793 8.39472e-22)
(0.538467 -0.60779 -3.71106e-21)
(0.69037 -0.69798 3.83061e-21)
(0.761209 -0.676475 2.92026e-21)
(0.797134 -0.615641 -2.59447e-21)
(0.822169 -0.550549 1.6109e-20)
(0.843938 -0.491315 -8.87228e-21)
(0.864311 -0.43859 1.04417e-20)
(0.885886 -0.390173 -3.58791e-21)
(0.903508 -0.347445 -1.78453e-21)
(0.272673 -0.299231 -3.7074e-21)
(0.575392 -0.609945 -4.71278e-21)
(0.734615 -0.705911 2.21089e-21)
(0.805249 -0.687543 2.1085e-21)
(0.837541 -0.627425 -1.18626e-20)
(0.858138 -0.561915 3.11401e-20)
(0.875734 -0.501973 -2.64601e-20)
(0.892167 -0.4486 1.96527e-20)
(0.910438 -0.399671 -1.69082e-20)
(0.92699 -0.35672 -2.10798e-20)
(0.288272 -0.294381 -3.76202e-21)
(0.611028 -0.607988 1.53001e-21)
(0.778203 -0.709669 3.51161e-22)
(0.84919 -0.695005 1.39347e-21)
(0.878138 -0.636184 -2.78104e-21)
(0.894391 -0.570708 -2.30787e-20)
(0.907895 -0.510385 6.86013e-21)
(0.920405 -0.456535 -5.19669e-21)
(0.934844 -0.406891 1.79207e-20)
(0.951557 -0.362493 -5.6424e-21)
(0.302389 -0.287353 -8.46395e-21)
(0.644938 -0.601993 -7.30113e-21)
(0.820705 -0.70927 3.31587e-21)
(0.892683 -0.698871 -5.75957e-22)
(0.918656 -0.641926 1.24768e-21)
(0.9307 -0.576948 2.77438e-21)
(0.940215 -0.5166 8.20621e-21)
(0.949017 -0.462665 -1.37594e-20)
(0.95877 -0.41399 -1.47827e-20)
(0.973916 -0.373274 8.91081e-21)
(0.314803 -0.278297 -7.23092e-21)
(0.676677 -0.592065 1.5102e-20)
(0.861691 -0.704769 -1.03007e-20)
(0.935378 -0.699178 -2.8073e-21)
(0.958829 -0.644679 -3.99158e-21)
(0.966846 -0.580663 2.48167e-22)
(0.972433 -0.520655 -7.40386e-21)
(0.977783 -0.466927 7.72367e-21)
(0.983309 -0.419129 -7.1362e-21)
(0.993817 -0.378418 -4.13976e-23)
(0.325388 -0.267415 -1.91469e-20)
(0.705784 -0.57833 -3.59078e-20)
(0.900735 -0.696268 2.82996e-20)
(0.976925 -0.69599 1.65831e-21)
(0.998391 -0.644487 -1.73912e-21)
(1.00263 -0.581885 5.04642e-21)
(1.00435 -0.522553 -5.47297e-22)
(1.00642 -0.469199 -3.06263e-21)
(1.00847 -0.422073 1.6344e-20)
(1.01421 -0.381493 9.58587e-21)
(0.333879 -0.254711 1.76491e-20)
(0.731804 -0.560888 -8.06188e-21)
(0.937428 -0.683967 -2.19311e-20)
(1.01698 -0.689391 1.75084e-21)
(1.03708 -0.641409 5.98168e-22)
(1.03787 -0.580664 -8.82168e-21)
(1.03585 -0.522339 4.85264e-21)
(1.03472 -0.469573 2.31921e-21)
(1.03387 -0.423187 -2.86497e-21)
(1.03585 -0.383201 5.28441e-22)
(0.340036 -0.240395 2.28427e-20)
(0.754201 -0.539996 5.69615e-20)
(0.971459 -0.668089 -1.9115e-21)
(1.0552 -0.679458 -3.95527e-21)
(1.07463 -0.635533 -2.47959e-21)
(1.07237 -0.577083 -3.13758e-21)
(1.06681 -0.520097 -4.73525e-21)
(1.06257 -0.468184 3.10064e-21)
(1.05912 -0.42267 6.00541e-22)
(1.058 -0.383527 -2.77622e-21)
(0.343865 -0.224745 -1.71509e-20)
(0.772742 -0.516201 -9.68558e-21)
(1.00227 -0.64886 4.18955e-20)
(1.0913 -0.666215 6.3556e-22)
(1.11078 -0.626964 -1.50522e-20)
(1.10596 -0.571239 2.18527e-20)
(1.0971 -0.51592 4.46999e-21)
(1.08988 -0.465129 1.67606e-21)
(1.08395 -0.420595 -9.76752e-22)
(1.08002 -0.382431 -3.99006e-22)
(0.345287 -0.208114 4.10996e-20)
(0.787305 -0.489823 -9.01282e-21)
(1.02908 -0.626193 -2.78618e-20)
(1.1249 -0.649906 2.60585e-21)
(1.14528 -0.615825 1.77383e-20)
(1.13842 -0.563235 -5.84926e-21)
(1.12658 -0.509903 -6.43787e-21)
(1.11652 -0.460483 2.00747e-22)
(1.10824 -0.417033 -3.06055e-21)
(1.10168 -0.379963 4.72886e-22)
(0.344205 -0.190757 -1.46048e-20)
(0.797585 -0.461021 -9.03727e-20)
(1.05166 -0.600451 7.76701e-21)
(1.15552 -0.630787 3.11972e-20)
(1.17787 -0.602214 -1.16894e-21)
(1.16957 -0.553191 -3.56342e-20)
(1.1551 -0.502149 1.88785e-20)
(1.1424 -0.454335 -5.47832e-21)
(1.1319 -0.41208 6.27574e-21)
(1.12289 -0.376225 1.55738e-21)
(0.340569 -0.172926 -1.78555e-20)
(0.803248 -0.430139 3.16597e-20)
(1.06988 -0.572002 4.01039e-20)
(1.18272 -0.608997 -2.33736e-20)
(1.20824 -0.586309 5.67428e-21)
(1.19923 -0.541233 2.1653e-20)
(1.18252 -0.492772 8.86694e-21)
(1.16741 -0.446783 3.0356e-21)
(1.15484 -0.405837 -5.64997e-21)
(1.14358 -0.371311 -4.87995e-21)
(0.334395 -0.154882 -2.41645e-20)
(0.80403 -0.397588 -8.75422e-21)
(1.0834 -0.541125 -7.47393e-20)
(1.20623 -0.584755 -9.91295e-21)
(1.23612 -0.568285 1.57373e-21)
(1.22722 -0.527507 3.65997e-21)
(1.20873 -0.4819 -3.73118e-20)
(1.19144 -0.437935 -1.61628e-20)
(1.17698 -0.398405 4.22698e-22)
(1.16366 -0.365303 4.18048e-21)
(0.325749 -0.136888 -6.56981e-21)
(0.799743 -0.363795 2.86788e-20)
(1.09181 -0.508132 3.77734e-20)
(1.22576 -0.5583 2.12576e-20)
(1.26126 -0.54832 -4.41937e-21)
(1.25337 -0.512174 -4.07899e-21)
(1.23358 -0.469657 2.95523e-20)
(1.21441 -0.427904 2.75886e-20)
(1.19825 -0.389881 3.54409e-21)
(1.18306 -0.358268 -3.29845e-21)
(0.314742 -0.119201 6.28763e-20)
(0.79028 -0.329199 3.912e-20)
(1.0948 -0.473374 -3.74339e-20)
(1.24096 -0.529876 -6.56098e-21)
(1.28339 -0.526603 3.27155e-21)
(1.27753 -0.495379 -1.0131e-20)
(1.25703 -0.456178 -1.73767e-20)
(1.23622 -0.416808 -1.11668e-21)
(1.21859 -0.380365 -1.63885e-20)
(1.20173 -0.350297 6.98293e-21)
(0.301531 -0.10207 7.81333e-21)
(0.775605 -0.294259 -2.13789e-20)
(1.09207 -0.437236 4.91152e-20)
(1.25149 -0.49974 2.82713e-20)
(1.30224 -0.503316 1.30336e-21)
(1.29949 -0.477284 1.47749e-20)
(1.27899 -0.441594 1.47581e-21)
(1.25686 -0.404762 -1.24247e-20)
(1.23788 -0.369965 9.11795e-21)
(1.21969 -0.341475 1.04962e-21)
(0.286315 -0.0857294 -5.21676e-20)
(0.755764 -0.259445 -1.5208e-20)
(1.0834 -0.400117 -1.29568e-20)
(1.257 -0.468163 -1.98511e-20)
(1.31753 -0.478642 5.06056e-21)
(1.31906 -0.458039 -1.26752e-22)
(1.2993 -0.426045 1.06983e-20)
(1.27631 -0.391864 -2.81346e-21)
(1.25611 -0.358794 -1.06227e-20)
(1.23705 -0.331996 -8.21163e-21)
(0.269334 -0.07039 4.19004e-21)
(0.730886 -0.225229 2.42984e-20)
(1.0686 -0.362434 1.12413e-20)
(1.25717 -0.435428 -3.18889e-20)
(1.32897 -0.452767 -5.72035e-22)
(1.33607 -0.43779 -1.15919e-20)
(1.31785 -0.409667 2.0732e-22)
(1.29448 -0.378234 3.86486e-21)
(1.27329 -0.347085 -4.27977e-21)
(1.2537 -0.321787 1.21172e-20)
(0.250865 -0.0562364 9.67513e-21)
(0.701197 -0.19208 -2.35527e-20)
(1.04754 -0.324619 -5.33301e-20)
(1.25167 -0.401827 4.61528e-20)
(1.33623 -0.425882 -2.94354e-21)
(1.35031 -0.416677 8.33343e-21)
(1.33455 -0.392591 -1.0372e-21)
(1.3113 -0.364001 6.8668e-21)
(1.28941 -0.334893 -5.91794e-22)
(1.26924 -0.311003 -9.45222e-21)
(0.231214 -0.0434203 -1.93442e-20)
(0.667026 -0.160447 3.01735e-20)
(1.0202 -0.287111 2.42523e-20)
(1.2402 -0.367664 -3.28529e-20)
(1.33899 -0.398179 -5.16063e-21)
(1.36155 -0.394837 1.75373e-21)
(1.34931 -0.374936 1.75766e-20)
(1.32676 -0.349269 5.80744e-22)
(1.30443 -0.322235 3.12546e-21)
(1.28368 -0.299726 -6.24513e-21)
(0.210707 -0.0320579 1.46395e-20)
(0.628805 -0.130755 -1.30415e-20)
(0.986583 -0.250352 -1.07009e-20)
(1.22247 -0.33325 1.76821e-20)
(1.33688 -0.369847 5.74437e-21)
(1.36953 -0.372397 4.20199e-21)
(1.36197 -0.356809 -1.84536e-20)
(1.34079 -0.334134 -6.30229e-21)
(1.31836 -0.309177 -5.22535e-21)
(1.29718 -0.28802 2.04543e-21)
(0.189685 -0.0222267 -6.9883e-21)
(0.58707 -0.103383 -1.45791e-22)
(0.946849 -0.214785 2.01582e-20)
(1.19823 -0.298908 -7.2152e-21)
(1.32952 -0.341082 -3.13509e-21)
(1.37395 -0.349475 -1.99768e-21)
(1.37237 -0.338306 4.67071e-21)
(1.35335 -0.318689 7.68794e-21)
(1.33121 -0.295818 -3.91322e-22)
(1.30985 -0.275966 2.74506e-21)
(0.168491 -0.0139632 4.87772e-21)
(0.54245 -0.0786563 -1.35798e-21)
(0.901254 -0.180841 -3.57873e-21)
(1.16727 -0.264966 -3.18606e-21)
(1.31651 -0.312076 2.79566e-21)
(1.37444 -0.326183 2.14461e-21)
(1.38032 -0.319512 -1.94229e-21)
(1.36435 -0.303024 6.68618e-22)
(1.34299 -0.28226 9.44051e-22)
(1.3217 -0.263652 -1.23169e-21)
(0.147463 -0.00726277 2.47715e-21)
(0.495654 -0.0568371 7.23048e-22)
(0.850198 -0.148942 -4.29634e-21)
(1.12946 -0.231765 -3.47218e-21)
(1.29742 -0.283028 3.65947e-21)
(1.37059 -0.302623 7.36613e-22)
(1.38555 -0.300498 -1.70576e-21)
(1.3737 -0.287213 1.59516e-21)
(1.35368 -0.268592 9.03871e-22)
(1.33276 -0.251156 -1.04843e-21)
(0.126919 -0.00208117 -1.00629e-21)
(0.44746 -0.0381099 1.96996e-21)
(0.794232 -0.119483 1.30496e-20)
(1.08475 -0.199649 -5.98347e-21)
(1.27184 -0.254144 -2.96852e-21)
(1.36193 -0.278894 -3.43626e-21)
(1.38773 -0.281321 7.16587e-21)
(1.38124 -0.271311 5.10742e-21)
(1.36323 -0.254887 4.03539e-21)
(1.343 -0.238552 2.16238e-21)
(0.107155 0.00166203 1.90284e-20)
(0.398681 -0.0225747 -1.04982e-20)
(0.734074 -0.0928262 -1.24361e-20)
(1.03322 -0.16897 1.73075e-20)
(1.23934 -0.22564 9.55846e-21)
(1.34792 -0.255091 -6.79833e-22)
(1.38644 -0.262025 -1.27074e-20)
(1.38675 -0.255358 -8.93708e-21)
(1.37156 -0.241203 -9.90277e-21)
(1.35242 -0.225904 6.26636e-21)
(0.0884283 0.00407851 -2.5523e-20)
(0.350143 -0.0102407 2.39486e-20)
(0.670603 -0.069287 2.82758e-20)
(0.975114 -0.140085 -2.94377e-20)
(1.19955 -0.197746 -1.06586e-20)
(1.32796 -0.231315 7.42822e-21)
(1.38117 -0.24264 1.36187e-20)
(1.38993 -0.239374 2.44416e-21)
(1.37857 -0.227578 -6.90044e-22)
(1.361 -0.213268 -9.13443e-21)
(0.0709563 0.00530483 -3.47778e-21)
(0.302647 -0.00102566 -3.32598e-20)
(0.604856 -0.0491155 -3.68881e-20)
(0.910867 -0.113352 4.43593e-20)
(1.15219 -0.170713 -5.29635e-21)
(1.30139 -0.207674 1.1159e-20)
(1.37131 -0.223192 2.45338e-21)
(1.39037 -0.223361 -6.21596e-21)
(1.38407 -0.214033 3.4694e-21)
(1.36867 -0.200688 -1.45215e-21)
(0.0549081 0.00549524 7.1638e-21)
(0.256937 0.00524005 2.03237e-20)
(0.537992 -0.0324804 1.20819e-20)
(0.841163 -0.0891206 -9.64705e-21)
(1.09707 -0.144816 -1.70576e-20)
(1.26754 -0.184296 -1.71854e-20)
(1.35611 -0.203705 -3.8193e-21)
(1.38755 -0.207309 1.18778e-20)
(1.38778 -0.200571 -2.58851e-21)
(1.37535 -0.188193 5.50346e-21)
(0.0404035 0.00481446 -2.66797e-20)
(0.213669 0.00880375 -2.54172e-20)
(0.471247 -0.0194486 -4.42405e-21)
(0.766955 -0.0677268 -5.02775e-21)
(1.03423 -0.120358 -1.3524e-20)
(1.22574 -0.161335 9.16787e-21)
(1.33472 -0.184212 -1.32936e-21)
(1.38077 -0.191197 -1.00639e-20)
(1.38932 -0.187174 9.40304e-21)
(1.38088 -0.175799 -1.73902e-20)
(0.0275119 0.00343079 6.33301e-21)
(0.173387 0.00997559 2.18151e-20)
(0.405867 -0.00996993 2.05281e-20)
(0.689481 -0.0494685 2.40972e-20)
(0.963973 -0.0976677 -3.61072e-22)
(1.17541 -0.138984 2.76644e-20)
(1.3062 -0.164765 3.21874e-21)
(1.36921 -0.175 -4.02661e-20)
(1.38814 -0.173813 3.11449e-20)
(1.38499 -0.163498 1.10626e-20)
(0.0162555 0.00151042 1.72068e-20)
(0.136505 0.00911118 3.92663e-20)
(0.343033 -0.00386649 -5.36871e-21)
(0.610235 -0.0345798 -3.08359e-20)
(0.886956 -0.0771012 1.52086e-20)
(1.11613 -0.117482 -1.81383e-20)
(1.26955 -0.145447 -2.98362e-20)
(1.35183 -0.158701 -5.93839e-21)
(1.38352 -0.160442 -2.98278e-20)
(0.00661416 -0.000787008 8.4994e-21)
(0.103303 0.00659393 7.13597e-21)
(0.283784 -0.000835068 5.56947e-20)
(0.530895 -0.0231928 1.26597e-20)
(0.80426 -0.0590244 -1.25995e-20)
(1.04774 -0.0971253 -6.80088e-21)
(1.22378 -0.126394 5.10211e-20)
(1.32745 -0.142304 4.69654e-20)
(-0.00146714 -0.0033107 2.11624e-21)
(0.0739264 0.00281928 -4.119e-20)
(0.228958 -0.00046274 -6.67233e-20)
(0.453203 -0.0152959 3.91959e-21)
(0.717422 -0.0437883 1.93735e-20)
(0.97051 -0.0782668 -2.8613e-20)
(1.16801 -0.107802 -8.29685e-20)
(-0.00807013 -0.00591987 -1.54267e-20)
(0.0484033 -0.00181825 4.1321e-20)
(0.179156 -0.00225544 4.17515e-20)
(0.378811 -0.0107019 -4.6965e-20)
(0.6284 -0.0316833 6.72599e-21)
(-0.0132939 -0.00848419 -3.68788e-20)
(0.0266565 -0.00693758 -6.43296e-20)
(0.134732 -0.00567506 -1.38756e-20)
(0.309131 -0.00904541 2.59113e-20)
(-0.0172456 -0.0108834 2.77683e-20)
(0.00852815 -0.012183 3.24419e-22)
(0.0958171 -0.0101804 -6.7107e-21)
(-0.0200355 -0.0130089 -9.21874e-21)
(-0.00619857 -0.0172392 -1.61008e-20)
(-0.0217745 -0.0147684 6.36334e-20)
(-0.0177793 -0.0218483 5.03071e-20)
(-0.0225778 -0.0160945 1.22177e-20)
(0.998523 -0.00280163 -1.4592e-22)
(0.998813 -0.00752091 6.6058e-22)
(0.992183 -0.0164366 3.2748e-22)
(0.989218 -0.0236156 1.54838e-22)
(0.979517 -0.0362732 3.23355e-22)
(0.974151 -0.0463775 -1.39382e-21)
(0.961987 -0.0640138 -1.91534e-21)
(0.955197 -0.0786274 6.15298e-22)
(0.941656 -0.103606 2.00507e-21)
(0.935666 -0.124551 2.42726e-21)
(0.923186 -0.159887 4.23819e-21)
(0.922372 -0.187438 -9.64232e-22)
(0.915645 -0.236638 -6.16655e-21)
(0.926903 -0.266083 -1.64499e-21)
(0.937683 -0.339078 4.41295e-21)
(0.998569 -0.00266388 -8.33171e-22)
(0.998691 -0.00712985 3.17014e-22)
(0.992113 -0.0157443 -5.36171e-22)
(0.988813 -0.0225731 1.47495e-21)
(0.979087 -0.0348053 -1.32931e-21)
(0.97314 -0.044399 1.57753e-22)
(0.960765 -0.0614152 2.01627e-21)
(0.952971 -0.0753062 -3.21125e-21)
(0.938828 -0.0994691 1.46752e-21)
(0.931083 -0.119559 -5.42234e-21)
(0.917303 -0.154132 6.2358e-21)
(0.91344 -0.181184 -6.56908e-21)
(0.904379 -0.230323 -9.99772e-22)
(0.909845 -0.260752 7.84391e-21)
(0.915678 -0.333254 -1.82255e-21)
(0.998613 -0.00252295 1.10644e-21)
(0.998583 -0.00671474 7.78108e-22)
(0.992067 -0.0150106 9.50103e-22)
(0.988466 -0.0214735 -7.19243e-22)
(0.978733 -0.0332467 -7.54931e-22)
(0.972282 -0.0423119 2.83277e-21)
(0.959725 -0.0586562 -1.56725e-21)
(0.951075 -0.071795 4.43062e-21)
(0.936385 -0.0950312 -2.74246e-21)
(0.927134 -0.114179 -1.36206e-21)
(0.912142 -0.147665 -1.92486e-21)
(0.905578 -0.173952 1.62028e-21)
(0.894275 -0.222076 4.61538e-21)
(0.894981 -0.253309 -1.30394e-20)
(0.89614 -0.323483 1.46431e-20)
(0.998656 -0.00237981 1.58606e-22)
(0.998483 -0.00630822 -1.2901e-21)
(0.992033 -0.0142881 -2.42869e-21)
(0.988158 -0.0204143 4.28394e-22)
(0.978425 -0.0317384 -8.40215e-23)
(0.971521 -0.0403197 8.0242e-22)
(0.9588 -0.0560001 2.45611e-21)
(0.949386 -0.0684404 -1.65452e-21)
(0.93419 -0.0907223 2.16798e-21)
(0.923573 -0.108964 -4.38484e-21)
(0.907444 -0.141187 2.96342e-21)
(0.898369 -0.166666 2.03311e-21)
(0.884838 -0.213229 5.02115e-21)
(0.881244 -0.244878 -8.71814e-21)
(0.877812 -0.312891 1.7529e-22)
(0.998697 -0.00223283 -1.39888e-21)
(0.998389 -0.00592332 -3.37046e-22)
(0.992008 -0.0135606 -3.36764e-22)
(0.987878 -0.0193586 1.89305e-21)
(0.978152 -0.030221 3.57561e-23)
(0.970831 -0.0383273 -2.99928e-22)
(0.957962 -0.0533195 -1.72734e-21)
(0.947843 -0.065067 -1.55366e-22)
(0.93218 -0.0863414 5.51523e-21)
(0.920284 -0.103674 -6.45699e-21)
(0.903083 -0.134505 2.07188e-21)
(0.891643 -0.159128 3.20981e-21)
(0.875915 -0.203868 1.08694e-21)
(0.868311 -0.235503 -4.83749e-21)
(0.86046 -0.301345 1.28482e-22)
(0.998737 -0.00208242 2.5812e-22)
(0.998298 -0.00554672 2.31681e-22)
(0.991991 -0.0128219 8.02032e-22)
(0.987618 -0.018297 -1.05133e-21)
(0.977906 -0.0286807 2.98659e-22)
(0.970194 -0.0363169 -8.33166e-22)
(0.957195 -0.0505922 4.44232e-22)
(0.946412 -0.0616505 -1.919e-21)
(0.93032 -0.0818621 3.72629e-21)
(0.917214 -0.0982807 -7.03355e-23)
(0.899001 -0.127598 -6.81014e-21)
(0.885332 -0.151291 4.2794e-22)
(0.867463 -0.193996 7.417e-21)
(0.856093 -0.225221 2.23023e-22)
(0.844009 -0.288644 -8.75187e-21)
(0.998776 -0.0019296 2.23823e-22)
(0.998212 -0.00516131 -1.32532e-21)
(0.991981 -0.0120722 -1.00323e-21)
(0.987376 -0.0172331 1.2032e-21)
(0.977684 -0.0271228 -8.65866e-22)
(0.969601 -0.0342975 7.0302e-22)
(0.956489 -0.0478297 -3.7848e-22)
(0.945076 -0.058207 -4.30274e-22)
(0.928592 -0.0773039 2.84201e-21)
(0.914341 -0.0928018 -5.72798e-21)
(0.895172 -0.120497 4.61287e-21)
(0.879414 -0.143172 6.5268e-21)
(0.859481 -0.183658 -8.10177e-21)
(0.844568 -0.214117 -1.5379e-21)
(0.828453 -0.274829 -7.458e-21)
(0.998815 -0.00177398 -1.24492e-22)
(0.998129 -0.00477331 8.3071e-22)
(0.991976 -0.0113134 -9.16068e-22)
(0.987149 -0.0161696 2.14549e-21)
(0.977485 -0.0255498 -2.31883e-21)
(0.969047 -0.0322729 -2.37772e-21)
(0.955839 -0.0450359 -5.9556e-22)
(0.943828 -0.0547401 2.88749e-22)
(0.926983 -0.0726732 -2.23115e-21)
(0.911655 -0.0872395 2.5252e-21)
(0.891583 -0.113219 2.72792e-21)
(0.873878 -0.134777 -9.85647e-22)
(0.851979 -0.17289 -3.42505e-21)
(0.833741 -0.202268 7.15688e-21)
(0.81381 -0.259957 -6.97114e-21)
(0.998853 -0.00161544 -5.41294e-22)
(0.99805 -0.00438666 5.13279e-21)
(0.991978 -0.0105441 1.18988e-22)
(0.986934 -0.0151074 1.0648e-21)
(0.977307 -0.0239627 -1.92001e-22)
(0.96853 -0.0302437 3.20318e-21)
(0.955241 -0.0422117 5.0193e-22)
(0.942664 -0.0512496 5.30288e-23)
(0.925488 -0.0679739 -3.45215e-21)
(0.909156 -0.0815929 -6.27961e-22)
(0.888231 -0.105779 3.07656e-21)
(0.868724 -0.126119 -4.42416e-21)
(0.84497 -0.161722 -3.36559e-21)
(0.823627 -0.18974 4.02536e-21)
(0.800107 -0.244091 -3.50475e-21)
(0.998891 -0.00145417 1.3505e-21)
(0.997974 -0.00400271 -2.88102e-21)
(0.991985 -0.00973081 1.54363e-21)
(0.986733 -0.0140466 -2.20691e-21)
(0.977147 -0.0223623 -8.17886e-22)
(0.968049 -0.0282109 4.59234e-22)
(0.954692 -0.0393592 -1.68761e-21)
(0.941585 -0.0477361 2.98069e-21)
(0.924103 -0.0632113 1.62815e-21)
(0.906842 -0.0758627 -9.2922e-22)
(0.885118 -0.0981898 2.87897e-21)
(0.863954 -0.117209 -5.4386e-21)
(0.838469 -0.150181 9.49801e-21)
(0.814246 -0.176592 -6.65363e-21)
(0.787379 -0.227298 -3.41983e-21)
(0.998928 -0.00129033 -9.58586e-22)
(0.997906 -0.00362083 1.30131e-22)
(0.991996 -0.0089577 1.01232e-23)
(0.98654 -0.0129904 2.04044e-21)
(0.977006 -0.0207498 5.10815e-22)
(0.967605 -0.0261753 -9.46896e-22)
(0.954191 -0.0364808 1.09953e-21)
(0.940593 -0.0442001 -2.16372e-21)
(0.922828 -0.0583911 9.19799e-22)
(0.904716 -0.070051 6.11071e-22)
(0.882248 -0.0904633 -2.82548e-21)
(0.859571 -0.108065 2.14257e-21)
(0.832488 -0.138293 5.67046e-21)
(0.805619 -0.162878 -2.75719e-21)
(0.775659 -0.209651 -7.56241e-21)
(0.998964 -0.00112402 -1.08923e-21)
(0.997837 -0.00324105 -2.30625e-22)
(0.992011 -0.00823333 -9.98145e-22)
(0.986366 -0.0119397 -2.96837e-21)
(0.976882 -0.0191266 1.43943e-21)
(0.967199 -0.0241375 -1.39045e-21)
(0.953735 -0.0335789 1.87322e-21)
(0.939687 -0.0406421 2.79961e-21)
(0.921662 -0.053519 -1.83679e-21)
(0.902781 -0.0641609 3.78498e-21)
(0.879626 -0.0826115 -2.0371e-21)
(0.855581 -0.0987034 -3.14927e-21)
(0.827039 -0.126085 -2.01487e-21)
(0.797768 -0.148649 8.23209e-21)
(0.76498 -0.191228 -2.72019e-21)
(0.998998 -0.000955363 1.13214e-21)
(0.997771 -0.00286388 5.48069e-22)
(0.992029 -0.0074675 -7.95648e-23)
(0.986209 -0.0108935 1.19085e-21)
(0.976773 -0.017494 -1.90828e-21)
(0.966831 -0.0220979 -4.76217e-22)
(0.953325 -0.0306563 -4.30644e-23)
(0.938871 -0.0370629 -9.44155e-22)
(0.920606 -0.0486006 -2.79465e-21)
(0.901038 -0.0581965 -1.44921e-21)
(0.877258 -0.0746455 5.38189e-21)
(0.851991 -0.0891426 -8.3295e-22)
(0.822135 -0.113584 -8.78353e-22)
(0.79071 -0.133958 -7.40796e-22)
(0.755374 -0.172105 -3.53009e-21)
(0.999031 -0.000784441 6.84036e-22)
(0.997709 -0.00248936 -1.2638e-21)
(0.992048 -0.00668618 5.38177e-22)
(0.986069 -0.00985179 -1.45525e-21)
(0.976678 -0.0158534 -9.29321e-23)
(0.966503 -0.0200567 7.97209e-23)
(0.952959 -0.0277156 1.17631e-22)
(0.938144 -0.0334635 1.77341e-22)
(0.919663 -0.0436413 -1.29669e-21)
(0.89949 -0.0521631 1.68476e-21)
(0.875149 -0.0665764 -2.77439e-21)
(0.848806 -0.0794021 6.09779e-22)
(0.817785 -0.100819 1.89968e-21)
(0.784464 -0.118853 -1.29347e-22)
(0.746867 -0.152365 2.37451e-21)
(0.99906 -0.000611415 -6.65573e-22)
(0.997653 -0.00211729 1.53189e-21)
(0.992067 -0.00589653 -9.63825e-22)
(0.985945 -0.00881467 1.18799e-21)
(0.976598 -0.0142059 6.57402e-22)
(0.966217 -0.018014 -4.12925e-22)
(0.952638 -0.0247595 -7.48266e-23)
(0.937509 -0.0298451 -4.83924e-22)
(0.918835 -0.0386464 1.72809e-22)
(0.898139 -0.0460671 -1.44591e-21)
(0.873305 -0.0584156 6.78697e-22)
(0.846032 -0.0695019 -4.75482e-21)
(0.814 -0.0878211 6.7273e-21)
(0.779044 -0.103386 -2.03576e-21)
(0.739482 -0.132087 -4.44236e-21)
(0.999087 -0.000436496 -3.09493e-22)
(0.997604 -0.00174769 -4.73063e-22)
(0.992086 -0.00509574 3.29496e-22)
(0.985838 -0.00778105 8.21829e-23)
(0.97653 -0.0125527 9.0554e-22)
(0.965972 -0.0159698 -3.26942e-22)
(0.952361 -0.0217906 1.81606e-22)
(0.936966 -0.0262094 -7.48835e-23)
(0.918122 -0.0336208 5.33672e-22)
(0.896986 -0.0399154 1.0219e-21)
(0.87173 -0.0501745 1.49549e-21)
(0.843675 -0.0594628 -2.47936e-21)
(0.810788 -0.0746199 1.10534e-21)
(0.774461 -0.0876076 -1.45205e-21)
(0.733238 -0.111352 -4.16645e-21)
(0.999109 -0.000259928 1.09894e-21)
(0.997562 -0.00137998 -1.28813e-22)
(0.992103 -0.00430642 5.14037e-22)
(0.985749 -0.00675068 4.42716e-22)
(0.976474 -0.0108949 -1.41097e-21)
(0.965768 -0.0139238 5.37351e-23)
(0.952129 -0.0188112 2.2139e-22)
(0.936515 -0.0225581 1.38615e-22)
(0.917527 -0.0285699 -5.25971e-22)
(0.896033 -0.0337162 4.81019e-22)
(0.870429 -0.0418659 2.28072e-21)
(0.841741 -0.0493073 -9.12783e-22)
(0.808156 -0.0612486 2.13094e-21)
(0.770725 -0.0715711 -4.71369e-21)
(0.728152 -0.090243 5.995e-21)
(0.999128 -8.19701e-05 -7.84135e-22)
(0.997527 -0.00101445 1.47797e-23)
(0.992118 -0.00352899 -4.58331e-22)
(0.98568 -0.00572138 -2.29386e-22)
(0.976431 -0.0092332 5.02876e-22)
(0.965608 -0.0118754 -2.68661e-23)
(0.951941 -0.0158232 -9.17005e-22)
(0.936157 -0.0188931 5.32401e-22)
(0.917052 -0.0234985 -2.40728e-22)
(0.895282 -0.0274781 2.14539e-22)
(0.869405 -0.0335043 7.86388e-22)
(0.840233 -0.0390604 2.41749e-22)
(0.806111 -0.0477402 -1.38691e-21)
(0.767843 -0.0553265 1.78001e-22)
(0.724236 -0.0688393 -1.34841e-21)
(0.999141 9.70797e-05 3.81861e-22)
(0.997499 -0.000651282 -2.64023e-23)
(0.99213 -0.00273907 6.66135e-23)
(0.985631 -0.00469018 3.74063e-22)
(0.976398 -0.00756679 -6.8181e-23)
(0.96549 -0.00982177 -3.6898e-22)
(0.951798 -0.0128249 -2.3511e-22)
(0.935892 -0.0152108 2.85291e-22)
(0.916696 -0.0184047 -2.57882e-22)
(0.894732 -0.0212006 3.16307e-22)
(0.868659 -0.0250879 -8.15746e-22)
(0.839155 -0.028732 4.64443e-22)
(0.80466 -0.0341134 -1.04579e-21)
(0.765819 -0.038901 4.22461e-22)
(0.721495 -0.0471971 1.81682e-22)
(0.99915 0.000276929 -6.80546e-23)
(0.99748 -0.000290138 6.68238e-23)
(0.99214 -0.00194003 -8.658e-23)
(0.985602 -0.00365562 -1.2376e-22)
(0.976378 -0.00589374 1.16624e-22)
(0.965414 -0.00775743 1.86689e-22)
(0.9517 -0.00980958 1.30511e-22)
(0.93572 -0.0114999 -7.95696e-23)
(0.916463 -0.0132708 3.18515e-22)
(0.894387 -0.0148645 5.8957e-23)
(0.868196 -0.016587 1.52563e-22)
(0.838511 -0.0183026 2.15205e-22)
(0.803812 -0.0203932 -3.10107e-24)
(0.76466 -0.0223743 -1.58303e-22)
(0.719927 -0.0253929 -2.66474e-23)
(1.00001 -0.000250985 0)
(1.00189 -0.000705093 0)
(1.00522 -0.00120502 0)
(1.00963 -0.00163239 0)
(1.01483 -0.0020745 0)
(1.02053 -0.00242276 0)
(1.02649 -0.0027613 0)
(1.0325 -0.00299184 0)
(1.03839 -0.00321173 0)
(1.04402 -0.00332146 0)
(1.04932 -0.00343899 0)
(1.05421 -0.00344568 0)
(1.05868 -0.00349195 0)
(1.06272 -0.00341631 0)
(1.06636 -0.00342799 0)
(1.00001 -0.00074027 0)
(1.00188 -0.00207911 0)
(1.0052 -0.00355587 0)
(1.00959 -0.00481918 0)
(1.0148 -0.00613015 0)
(1.02051 -0.00716433 0)
(1.02652 -0.00817441 0)
(1.03258 -0.00886461 0)
(1.03855 -0.00952684 0)
(1.04425 -0.0098605 0)
(1.04965 -0.0102191 0)
(1.05462 -0.0102458 0)
(1.05921 -0.0103908 0)
(1.06332 -0.0101712 0)
(1.06708 -0.0102114 0)
(1.00002 -0.0012051 0)
(1.00186 -0.00337424 0)
(1.00515 -0.00578701 0)
(1.00952 -0.00784857 0)
(1.01474 -0.0100078 0)
(1.02047 -0.011711 0)
(1.02657 -0.0133934 0)
(1.0327 -0.0145448 0)
(1.03883 -0.0156661 0)
(1.04466 -0.0162348 0)
(1.05025 -0.0168579 0)
(1.05537 -0.0169164 0)
(1.06017 -0.0171851 0)
(1.06442 -0.0168293 0)
(1.0684 -0.0169236 0)
(1.00002 -0.00164611 0)
(1.00183 -0.00458075 0)
(1.00509 -0.00789586 0)
(1.0094 -0.0107191 0)
(1.01463 -0.0137204 0)
(1.02038 -0.016084 0)
(1.02658 -0.0184573 0)
(1.03283 -0.0200816 0)
(1.03916 -0.0216964 0)
(1.04518 -0.0225206 0)
(1.05103 -0.0234481 0)
(1.05636 -0.0235566 0)
(1.06146 -0.0239874 0)
(1.06592 -0.0235049 0)
(1.07022 -0.0236896 0)
(1.00003 -0.00206332 0)
(1.00178 -0.00569236 0)
(1.00499 -0.00988058 0)
(1.00922 -0.0134286 0)
(1.01445 -0.0172739 0)
(1.02021 -0.020293 0)
(1.02653 -0.0233879 0)
(1.03291 -0.0255042 0)
(1.03948 -0.0276622 0)
(1.04572 -0.0287706 0)
(1.05191 -0.0300575 0)
(1.05751 -0.0302403 0)
(1.06298 -0.0308852 0)