/*--------------------------------*- C++ -*----------------------------------*\
  =========                 |
  \\      /  F ield         | OpenFOAM: The Open Source CFD Toolbox
   \\    /   O peration     | Website:  https://openfoam.org
    \\  /    A nd           | Version:  7
     \\/     M anipulation  |
\*---------------------------------------------------------------------------*/
FoamFile
{
    version     2.0;
    format      ascii;
    class       volScalarField;
    location    "165";
    object      p;
}
// * * * * * * * * * * * * * * * * * * * * * * * * * * * * * * * * * * * * * //

dimensions      [0 2 -2 0 0 0 0];

internalField   nonuniform List<scalar> 
8500
(
-0.402922
-0.406264
-0.407501
-0.408628
-0.409912
-0.411355
-0.412851
-0.414201
-0.415047
-0.41534
-0.394194
-0.397443
-0.39842
-0.399049
-0.399558
-0.399926
-0.400044
-0.399717
-0.398562
-0.396569
-0.385998
-0.389086
-0.389801
-0.389953
-0.389725
-0.389071
-0.387874
-0.38596
-0.38293
-0.378698
-0.378357
-0.381239
-0.381696
-0.381401
-0.380481
-0.378872
-0.376443
-0.37305
-0.368323
-0.361949
-0.371278
-0.373928
-0.37414
-0.37343
-0.371871
-0.369376
-0.365807
-0.361051
-0.354837
-0.346436
-0.364754
-0.367166
-0.367149
-0.366061
-0.363916
-0.360606
-0.355987
-0.349978
-0.342496
-0.332172
-0.35877
-0.36096
-0.360734
-0.359301
-0.356618
-0.35256
-0.346981
-0.339819
-0.331275
-0.319099
-0.353313
-0.35531
-0.354897
-0.353149
-0.349973
-0.345227
-0.338773
-0.330552
-0.321114
-0.307206
-0.348373
-0.350219
-0.349639
-0.347603
-0.343971
-0.33859
-0.33134
-0.322164
-0.311987
-0.296662
-0.343951
-0.345693
-0.344963
-0.34266
-0.338606
-0.33264
-0.324667
-0.314611
-0.30369
-0.287265
-0.340061
-0.341742
-0.340876
-0.338325
-0.333882
-0.327384
-0.318766
-0.307931
-0.296366
-0.27876
-0.336732
-0.338387
-0.337393
-0.334609
-0.329812
-0.322841
-0.313653
-0.302135
-0.290132
-0.271138
-0.334008
-0.335652
-0.334536
-0.331533
-0.326419
-0.319048
-0.309385
-0.297312
-0.285113
-0.264441
-0.331902
-0.333566
-0.33233
-0.329124
-0.32374
-0.31605
-0.306035
-0.293561
-0.281445
-0.258802
-0.330546
-0.33217
-0.330804
-0.327413
-0.321811
-0.313893
-0.303655
-0.290982
-0.279166
-0.254477
-0.329957
-0.33149
-0.329983
-0.326424
-0.320658
-0.312605
-0.302269
-0.289623
-0.278112
-0.251769
-0.330181
-0.331548
-0.329879
-0.326167
-0.320289
-0.31218
-0.301842
-0.289459
-0.277893
-0.250782
-0.331249
-0.332351
-0.330491
-0.32663
-0.320673
-0.312577
-0.302291
-0.290383
-0.278023
-0.251147
-0.333166
-0.333889
-0.331798
-0.327777
-0.321756
-0.313706
-0.303498
-0.292215
-0.278304
-0.252876
-0.335918
-0.336139
-0.333761
-0.329547
-0.323454
-0.315448
-0.305314
-0.294618
-0.279118
-0.259184
-0.339473
-0.339067
-0.33633
-0.331872
-0.325665
-0.317669
-0.307576
-0.297079
-0.280796
-0.27378
-0.34379
-0.342634
-0.339463
-0.334689
-0.328303
-0.320247
-0.310133
-0.2994
-0.283407
-0.275324
-0.348833
-0.346805
-0.343124
-0.337951
-0.331311
-0.323092
-0.312838
-0.301585
-0.285697
-0.275017
-0.354567
-0.351573
-0.347293
-0.341643
-0.334662
-0.326158
-0.315591
-0.303628
-0.287405
-0.274411
-0.360981
-0.356934
-0.351982
-0.345781
-0.338363
-0.329428
-0.318341
-0.305443
-0.288521
-0.273281
-0.36808
-0.362904
-0.357223
-0.350404
-0.342437
-0.332899
-0.321048
-0.306955
-0.288984
-0.271799
-0.375883
-0.369511
-0.363063
-0.35556
-0.346914
-0.336569
-0.323662
-0.308092
-0.288823
-0.269903
-0.384412
-0.376791
-0.369549
-0.361291
-0.351808
-0.34041
-0.326109
-0.308798
-0.288065
-0.267604
-0.393685
-0.384771
-0.376717
-0.367617
-0.357109
-0.344355
-0.328302
-0.309028
-0.286746
-0.26489
-0.403704
-0.393466
-0.38458
-0.374527
-0.362766
-0.348297
-0.330145
-0.308753
-0.284897
-0.261755
-0.414444
-0.402864
-0.393119
-0.381971
-0.368678
-0.352099
-0.331549
-0.307944
-0.282533
-0.25819
-0.425851
-0.412923
-0.402273
-0.389855
-0.374691
-0.355603
-0.332424
-0.306573
-0.279655
-0.254176
-0.437828
-0.423565
-0.411941
-0.398038
-0.380609
-0.358647
-0.332686
-0.304607
-0.276249
-0.249689
-0.450241
-0.434667
-0.421978
-0.406324
-0.386208
-0.36107
-0.332251
-0.302006
-0.272287
-0.244698
-0.462909
-0.446065
-0.432191
-0.414467
-0.391249
-0.362718
-0.331035
-0.298721
-0.267729
-0.239165
-0.475611
-0.457548
-0.442342
-0.422187
-0.395494
-0.363441
-0.328955
-0.294696
-0.262528
-0.23305
-0.488084
-0.468865
-0.452151
-0.429176
-0.398709
-0.363099
-0.325923
-0.289867
-0.25663
-0.226308
-0.50003
-0.479727
-0.461298
-0.43512
-0.400674
-0.361557
-0.321854
-0.284168
-0.249978
-0.218899
-0.511118
-0.489812
-0.469432
-0.43971
-0.401184
-0.358692
-0.316663
-0.277532
-0.242513
-0.210782
-0.520996
-0.498773
-0.476192
-0.442651
-0.400053
-0.354387
-0.310267
-0.269889
-0.23418
-0.201923
-0.529299
-0.506245
-0.481215
-0.443671
-0.397111
-0.348535
-0.302588
-0.261176
-0.224928
-0.192292
-0.535655
-0.511861
-0.484151
-0.442527
-0.392214
-0.34104
-0.293551
-0.251334
-0.214719
-0.181871
-0.539705
-0.515255
-0.484681
-0.439007
-0.385235
-0.33182
-0.283091
-0.240306
-0.203516
-0.17065
-0.541104
-0.516081
-0.482522
-0.432937
-0.376075
-0.320805
-0.271149
-0.22804
-0.191278
-0.158588
-0.539537
-0.51402
-0.477433
-0.424179
-0.364658
-0.307944
-0.257686
-0.214497
-0.17794
-0.145536
-0.534724
-0.508792
-0.469227
-0.412635
-0.350932
-0.293205
-0.242679
-0.199667
-0.16346
-0.13125
-0.526431
-0.500169
-0.457762
-0.398247
-0.334873
-0.276571
-0.226117
-0.183558
-0.147896
-0.115688
-0.514474
-0.48798
-0.442943
-0.38099
-0.31648
-0.258039
-0.207995
-0.16618
-0.131331
-0.099561
-0.498722
-0.47211
-0.424728
-0.360876
-0.295777
-0.23763
-0.188344
-0.147576
-0.113567
-0.0829388
-0.479105
-0.452504
-0.403122
-0.337952
-0.272816
-0.215394
-0.167253
-0.127771
-0.0947597
-0.0656033
-0.455609
-0.429166
-0.378186
-0.312308
-0.247667
-0.191422
-0.144762
-0.106775
-0.0750238
-0.0475147
-0.428275
-0.402163
-0.350054
-0.284074
-0.220401
-0.165786
-0.120917
-0.0846712
-0.0544269
-0.028725
-0.3972
-0.371628
-0.318919
-0.253344
-0.191124
-0.138567
-0.0958105
-0.0615478
-0.0330373
-0.00933187
-0.362544
-0.33776
-0.284904
-0.220097
-0.160093
-0.109907
-0.0695511
-0.0374999
-0.0109361
0.010554
-0.324527
-0.300827
-0.247867
-0.18482
-0.127393
-0.0799497
-0.042264
-0.0126292
0.0117941
0.0308468
-0.283373
-0.261074
-0.208042
-0.147731
-0.0932379
-0.0488519
-0.0140855
0.0129582
0.0350679
0.0514568
-0.239282
-0.218345
-0.166432
-0.10899
-0.0578235
-0.0167837
0.0148494
0.0391632
0.0587449
0.0720508
-0.192583
-0.173239
-0.123242
-0.0688719
-0.0213579
0.0160833
0.0444242
0.0659016
0.082548
0.091821
-0.14388
-0.126037
-0.0785898
-0.0276542
0.0159323
0.0495743
0.0745295
0.0930671
0.106141
0.1102
-0.0933766
-0.0772465
-0.0327405
0.0143859
0.0538072
0.0835007
0.105003
0.120419
0.129412
0.128886
-0.0414777
-0.027302
0.0139664
0.0569611
0.0920208
0.117653
0.135595
0.14756
0.152341
0.152647
0.0113716
0.0233906
0.0611659
0.0997735
0.130322
0.151803
0.166039
0.174367
0.175832
0.176531
0.0647238
0.0744221
0.108487
0.142518
0.168453
0.185722
0.196162
0.200905
0.199543
0.199151
0.118128
0.125378
0.155558
0.184885
0.206152
0.219177
0.22579
0.227049
0.22304
0.220813
0.171132
0.175841
0.202012
0.226567
0.243157
0.251946
0.254753
0.252621
0.245978
0.2415
0.223288
0.225396
0.247487
0.267259
0.279209
0.283811
0.28287
0.277439
0.268167
0.261244
0.274152
0.273637
0.291629
0.306662
0.314056
0.314558
0.30996
0.301326
0.289452
0.280004
0.323294
0.320167
0.334096
0.344488
0.347452
0.343979
0.335844
0.324122
0.309706
0.29772
0.370297
0.364603
0.374558
0.380457
0.37916
0.371874
0.360351
0.345677
0.328808
0.31432
0.414762
0.406579
0.412701
0.414304
0.408956
0.39805
0.383315
0.365849
0.346645
0.329728
0.456312
0.445751
0.448228
0.445778
0.436627
0.422326
0.404582
0.384506
0.363107
0.343868
0.494593
0.481797
0.480863
0.474645
0.461972
0.444532
0.424009
0.401524
0.378093
0.356669
0.529278
0.514418
0.510349
0.500689
0.484808
0.464511
0.44146
0.416791
0.391505
0.368063
0.56007
0.543346
0.536457
0.523713
0.504967
0.482121
0.456816
0.430201
0.403258
0.377992
0.586703
0.568338
0.558978
0.543542
0.5223
0.497234
0.469967
0.441661
0.413274
0.3864
0.608943
0.589182
0.577731
0.560023
0.536676
0.509739
0.480819
0.451091
0.421483
0.393243
0.626593
0.6057
0.592562
0.573023
0.547984
0.519541
0.489291
0.458419
0.427828
0.398482
0.63949
0.617745
0.603345
0.582438
0.556132
0.526561
0.495317
0.46359
0.432261
0.402086
0.647509
0.625204
0.609985
0.588184
0.56105
0.530742
0.498845
0.466558
0.434745
0.404032
0.650565
0.627998
0.612412
0.590206
0.56269
0.532041
0.499842
0.467295
0.435256
0.404303
0.648609
0.626085
0.61059
0.58847
0.561025
0.530435
0.498288
0.465784
0.43378
0.402891
0.641633
0.619455
0.604513
0.582971
0.556049
0.52592
0.494178
0.462021
0.430314
0.399792
0.629666
0.608136
0.594202
0.573729
0.54778
0.51851
0.487526
0.456018
0.424869
0.395013
0.612777
0.592189
0.57971
0.560788
0.536256
0.508239
0.47836
0.4478
0.417464
0.388564
0.591074
0.571712
0.561122
0.544219
0.521538
0.495158
0.466724
0.437405
0.408131
0.380466
0.564702
0.546835
0.538548
0.524118
0.503705
0.479336
0.452677
0.424884
0.396915
0.370745
0.533843
0.517722
0.51213
0.500602
0.482862
0.460861
0.436293
0.410303
0.383869
0.359437
0.498714
0.484569
0.482035
0.473815
0.459128
0.439837
0.417663
0.393737
0.369057
0.346583
0.459566
0.447604
0.448459
0.443923
0.432647
0.416383
0.396887
0.375277
0.352555
0.332236
0.416683
0.407084
0.411622
0.411112
0.403576
0.390636
0.374083
0.355021
0.334447
0.316451
0.370379
0.363293
0.371767
0.375588
0.372092
0.362747
0.349378
0.33308
0.314823
0.299294
0.320995
0.316543
0.329161
0.337578
0.338387
0.33288
0.322912
0.309572
0.293783
0.280833
0.268899
0.267167
0.284092
0.297325
0.302669
0.30121
0.294837
0.284628
0.271433
0.26114
0.214482
0.215522
0.236865
0.255086
0.265158
0.267926
0.265312
0.258384
0.247882
0.240287
0.158152
0.161983
0.187803
0.211136
0.226084
0.233225
0.234508
0.23099
0.223247
0.218338
0.100336
0.106941
0.137243
0.165759
0.185691
0.197312
0.202602
0.202607
0.197652
0.195339
0.0414732
0.0508002
0.0855346
0.11925
0.144227
0.160398
0.169773
0.173415
0.171255
0.171311
-0.0179871
-0.0060272
0.0330367
0.0719111
0.101952
0.1227
0.136199
0.1436
0.144254
0.146189
-0.0775912
-0.0631226
-0.0198843
0.0240506
0.0591264
0.0844404
0.102047
0.113342
0.117036
0.119984
-0.136883
-0.120067
-0.0728571
-0.0240215
0.0160155
0.0458554
0.0674896
0.082765
0.0901037
0.0923524
-0.19541
-0.176444
-0.125508
-0.0719968
-0.0271206
0.0071802
0.0326996
0.0517565
0.0637929
0.0648415
-0.25272
-0.231843
-0.177464
-0.119572
-0.0700276
-0.0313511
-0.00203748
0.0204425
0.0370581
0.0433585
-0.308379
-0.285843
-0.228367
-0.166451
-0.112455
-0.0695224
-0.0364468
-0.0107178
0.00991103
0.0222417
-0.362051
-0.337982
-0.277901
-0.212352
-0.154156
-0.107141
-0.0703611
-0.0414563
-0.0175193
-0.000581556
-0.413328
-0.387873
-0.325867
-0.256997
-0.194896
-0.144029
-0.103678
-0.0716763
-0.0448665
-0.0244286
-0.461754
-0.434912
-0.372241
-0.3001
-0.234458
-0.180011
-0.136285
-0.101305
-0.0718354
-0.0483516
-0.507043
-0.478908
-0.416423
-0.341382
-0.272644
-0.214912
-0.168043
-0.130244
-0.0982797
-0.0719811
-0.548969
-0.519883
-0.457456
-0.380832
-0.309258
-0.248561
-0.198811
-0.158383
-0.124111
-0.0952294
-0.587297
-0.55758
-0.495409
-0.418035
-0.344068
-0.280809
-0.228457
-0.185616
-0.14924
-0.118008
-0.621815
-0.591738
-0.530357
-0.45254
-0.37702
-0.311519
-0.256861
-0.211843
-0.173576
-0.140196
-0.65237
-0.622154
-0.562131
-0.484434
-0.407853
-0.340553
-0.28392
-0.236972
-0.197043
-0.161686
-0.678868
-0.648699
-0.590537
-0.51362
-0.436467
-0.367846
-0.309549
-0.260919
-0.21958
-0.182398
-0.701269
-0.671305
-0.615443
-0.539966
-0.462798
-0.393326
-0.333722
-0.283607
-0.241124
-0.202297
-0.719588
-0.689967
-0.636788
-0.56338
-0.486782
-0.416905
-0.356396
-0.305055
-0.261549
-0.221443
-0.733897
-0.704736
-0.654563
-0.583815
-0.508373
-0.438542
-0.377486
-0.325232
-0.280704
-0.240078
-0.744323
-0.715723
-0.668806
-0.601259
-0.527549
-0.458222
-0.396968
-0.344103
-0.298839
-0.258072
-0.75105
-0.723094
-0.679603
-0.615734
-0.544312
-0.475956
-0.414857
-0.36167
-0.315879
-0.274742
-0.754309
-0.727069
-0.68709
-0.627292
-0.558687
-0.491765
-0.431175
-0.377933
-0.331768
-0.29016
-0.754378
-0.727919
-0.691444
-0.636022
-0.570725
-0.505687
-0.445954
-0.392913
-0.34656
-0.304594
-0.751571
-0.725959
-0.69289
-0.642049
-0.580495
-0.517777
-0.459242
-0.406663
-0.360333
-0.31821
-0.746232
-0.721532
-0.691697
-0.645533
-0.588093
-0.528105
-0.471106
-0.419247
-0.373145
-0.33107
-0.738722
-0.715002
-0.688171
-0.646667
-0.593632
-0.536754
-0.48162
-0.430736
-0.385047
-0.343203
-0.729412
-0.706739
-0.682649
-0.645676
-0.597245
-0.543818
-0.490867
-0.441206
-0.396098
-0.354641
-0.718673
-0.697112
-0.675485
-0.64281
-0.599082
-0.549398
-0.498933
-0.450737
-0.406369
-0.365433
-0.706865
-0.686474
-0.667038
-0.638343
-0.59931
-0.553602
-0.505905
-0.459414
-0.41594
-0.375642
-0.694326
-0.675158
-0.65766
-0.632563
-0.598109
-0.556542
-0.511875
-0.467327
-0.4249
-0.385342
-0.681367
-0.663467
-0.647678
-0.625767
-0.595671
-0.558335
-0.516931
-0.474565
-0.433338
-0.394616
-0.668267
-0.651669
-0.637386
-0.61825
-0.592199
-0.559102
-0.52116
-0.481212
-0.441348
-0.403556
-0.655266
-0.639992
-0.627038
-0.610294
-0.587904
-0.558964
-0.524646
-0.48735
-0.449021
-0.412255
-0.642566
-0.628626
-0.616846
-0.602149
-0.583002
-0.558051
-0.527464
-0.493054
-0.456448
-0.420815
-0.630333
-0.617715
-0.606976
-0.59403
-0.577702
-0.556494
-0.529691
-0.498391
-0.46371
-0.42934
-0.6187
-0.607372
-0.597561
-0.586109
-0.572207
-0.554433
-0.531397
-0.503416
-0.470883
-0.437937
-0.607769
-0.597674
-0.588695
-0.578515
-0.566696
-0.552013
-0.532656
-0.508177
-0.478028
-0.446719
-0.597619
-0.588673
-0.580447
-0.571351
-0.561322
-0.549387
-0.533549
-0.512712
-0.485191
-0.45579
-0.588306
-0.580402
-0.572861
-0.564696
-0.556209
-0.546703
-0.534165
-0.517056
-0.492392
-0.465276
-0.579867
-0.572875
-0.565964
-0.558614
-0.551462
-0.544104
-0.534609
-0.521238
-0.499643
-0.475238
-0.572312
-0.566092
-0.559766
-0.553155
-0.54717
-0.541716
-0.534993
-0.52529
-0.5069
-0.485853
-0.565622
-0.560029
-0.554258
-0.548349
-0.543414
-0.539651
-0.535432
-0.529236
-0.514189
-0.496908
-0.559744
-0.554642
-0.549411
-0.544202
-0.54025
-0.538001
-0.536024
-0.533106
-0.521455
-0.508571
-0.554587
-0.549855
-0.545163
-0.540682
-0.537698
-0.536826
-0.536851
-0.536934
-0.528705
-0.519372
-0.550021
-0.545564
-0.541422
-0.537716
-0.535722
-0.536139
-0.537987
-0.540572
-0.537073
-0.524181
-0.545883
-0.541638
-0.538066
-0.53519
-0.534229
-0.535888
-0.539444
-0.543945
-0.545967
-0.531402
-0.541986
-0.537925
-0.534947
-0.53295
-0.533066
-0.535947
-0.541119
-0.547076
-0.553963
-0.539651
-0.538132
-0.534264
-0.531899
-0.530813
-0.532031
-0.53612
-0.542794
-0.549959
-0.560557
-0.547071
-0.534124
-0.530491
-0.528751
-0.528582
-0.530894
-0.536161
-0.544176
-0.552462
-0.565641
-0.55343
-0.529783
-0.526451
-0.525333
-0.526054
-0.529408
-0.535771
-0.544944
-0.55433
-0.569087
-0.558899
-0.52495
-0.522002
-0.52149
-0.52304
-0.527339
-0.53467
-0.544791
-0.555226
-0.570743
-0.56334
-0.519503
-0.517025
-0.517086
-0.519373
-0.524478
-0.532603
-0.543439
-0.554801
-0.570499
-0.566364
-0.513357
-0.511429
-0.512015
-0.51492
-0.52066
-0.529371
-0.540688
-0.552768
-0.568301
-0.567543
-0.506467
-0.505156
-0.506202
-0.509591
-0.515776
-0.524844
-0.536409
-0.548937
-0.56414
-0.566536
-0.498834
-0.498182
-0.499614
-0.503341
-0.509775
-0.518967
-0.530549
-0.543219
-0.558053
-0.563123
-0.490495
-0.490522
-0.492257
-0.496176
-0.502664
-0.511753
-0.523135
-0.535628
-0.550073
-0.557181
-0.48153
-0.482226
-0.484177
-0.488152
-0.494511
-0.503281
-0.514165
-0.526361
-0.54018
-0.54869
-0.472043
-0.473371
-0.475458
-0.479356
-0.48542
-0.493675
-0.503869
-0.515447
-0.528185
-0.53782
-0.462169
-0.464067
-0.466211
-0.469916
-0.475538
-0.483107
-0.492421
-0.503071
-0.51464
-0.524525
-0.452054
-0.454444
-0.456568
-0.459981
-0.465039
-0.471776
-0.480034
-0.489498
-0.499718
-0.509077
-0.44185
-0.444637
-0.446676
-0.449717
-0.454112
-0.459899
-0.466953
-0.475015
-0.483669
-0.491908
-0.431707
-0.434788
-0.436684
-0.439291
-0.442953
-0.447703
-0.453439
-0.459929
-0.466811
-0.473463
-0.421762
-0.425032
-0.426739
-0.42887
-0.431752
-0.435412
-0.439755
-0.444565
-0.449508
-0.454227
-0.412135
-0.415489
-0.416973
-0.418604
-0.420686
-0.423234
-0.42615
-0.429229
-0.432134
-0.434695
-0.416634
-0.409533
-0.399746
-0.390575
-0.40473
-0.438654
-0.458703
-0.421917
-0.332356
-0.242001
-0.180083
-0.147245
-0.142693
-0.158728
-0.173893
-0.157378
-0.118723
-0.0943688
-0.0793084
-0.0703417
-0.0722713
-0.074631
-0.080127
-0.0822103
-0.0679914
-0.0349943
-0.0463049
-0.0590379
-0.0461717
0.00739571
-0.395925
-0.389242
-0.384363
-0.384883
-0.411107
-0.455492
-0.480386
-0.442136
-0.346883
-0.25007
-0.182048
-0.144868
-0.136077
-0.148896
-0.162615
-0.148196
-0.114405
-0.0934279
-0.0802165
-0.0725232
-0.0754792
-0.0779773
-0.0819324
-0.0827714
-0.0683339
-0.0353036
-0.046155
-0.0592986
-0.046178
0.00785283
-0.37658
-0.370248
-0.370046
-0.37915
-0.415845
-0.469359
-0.498714
-0.459622
-0.359545
-0.257043
-0.183595
-0.142303
-0.129477
-0.139076
-0.151161
-0.138638
-0.109865
-0.092348
-0.0811225
-0.0748343
-0.0788224
-0.0813588
-0.0836793
-0.083267
-0.0686473
-0.0356275
-0.0460174
-0.0595735
-0.046188
0.00829208
-0.358809
-0.352719
-0.356804
-0.373187
-0.418579
-0.479968
-0.513473
-0.474269
-0.370341
-0.262971
-0.184798
-0.139643
-0.123028
-0.129393
-0.139701
-0.128794
-0.105119
-0.0911222
-0.0820148
-0.0772598
-0.0822811
-0.0847511
-0.0853607
-0.0836947
-0.0689262
-0.0359616
-0.0458933
-0.059862
-0.0462043
0.0087108
-0.342698
-0.336685
-0.344571
-0.366836
-0.419148
-0.487093
-0.524642
-0.486033
-0.379299
-0.267919
-0.185722
-0.136978
-0.116845
-0.119977
-0.12841
-0.11877
-0.100186
-0.0897457
-0.0828792
-0.0797803
-0.0858332
-0.0881299
-0.0869702
-0.0840523
-0.0691648
-0.0363015
-0.0457831
-0.0601634
-0.0462291
0.00910636
-0.328226
-0.322092
-0.333329
-0.359889
-0.417521
-0.490696
-0.532185
-0.494926
-0.386472
-0.271957
-0.186429
-0.134392
-0.111027
-0.110953
-0.11746
-0.108688
-0.095091
-0.0882165
-0.0836992
-0.0823728
-0.0894535
-0.0914709
-0.088502
-0.0843378
-0.0693576
-0.0366424
-0.0456871
-0.0604763
-0.0462641
0.00947615
-0.315316
-0.309513
-0.322294
-0.352399
-0.413731
-0.490921
-0.536169
-0.501008
-0.391928
-0.275159
-0.186973
-0.131956
-0.105648
-0.102441
-0.107009
-0.0986827
-0.0898658
-0.0865359
-0.0844557
-0.0850109
-0.0931149
-0.0947489
-0.0899508
-0.0845497
-0.0694993
-0.0369792
-0.045605
-0.0607989
-0.0463101
0.00981758
-0.304062
-0.297939
-0.312077
-0.344429
-0.407953
-0.488051
-0.536829
-0.504387
-0.395753
-0.277602
-0.187399
-0.129733
-0.10076
-0.0945432
-0.097196
-0.0889059
-0.0845494
-0.0847092
-0.0851272
-0.087666
-0.0967887
-0.0979355
-0.0913113
-0.0846869
-0.0695848
-0.0373068
-0.045536
-0.0611288
-0.0463675
0.0101281
-0.293906
-0.287518
-0.302608
-0.336077
-0.400478
-0.482462
-0.534456
-0.505214
-0.398037
-0.279364
-0.187747
-0.127774
-0.0963926
-0.08734
-0.0881308
-0.0795125
-0.0791897
-0.0827455
-0.0856901
-0.0903081
-0.100445
-0.101002
-0.0925785
-0.0847487
-0.0696093
-0.0376198
-0.0454789
-0.0614629
-0.0464355
0.0104052
-0.284955
-0.278184
-0.293798
-0.327506
-0.39166
-0.474596
-0.5294
-0.503675
-0.398877
-0.280515
-0.188046
-0.126114
-0.0925557
-0.0808819
-0.0798954
-0.0706533
-0.0738428
-0.0806576
-0.0861192
-0.0929064
-0.104055
-0.103919
-0.0937483
-0.0847352
-0.0695686
-0.0379128
-0.0454321
-0.0617951
-0.0465129
0.0106464
-0.277214
-0.269844
-0.285644
-0.318921
-0.38188
-0.464912
-0.522037
-0.5
-0.398368
-0.281123
-0.188321
-0.124777
-0.0892439
-0.0751877
-0.0725404
-0.0625578
-0.0685698
-0.0784621
-0.0863881
-0.0954307
-0.107587
-0.106679
-0.0948186
-0.084647
-0.0694592
-0.0381806
-0.0453938
-0.0621249
-0.0465974
0.0108493
-0.2707
-0.262462
-0.278175
-0.310526
-0.371507
-0.453857
-0.512756
-0.494429
-0.396606
-0.281253
-0.188594
-0.123781
-0.0864443
-0.0702474
-0.066081
-0.0550999
-0.0634363
-0.0761797
-0.0864697
-0.0978522
-0.111011
-0.110502
-0.0957894
-0.0844852
-0.0692782
-0.0384183
-0.045362
-0.0624515
-0.0466858
0.0110113
-0.265458
-0.256056
-0.271427
-0.302505
-0.360877
-0.441836
-0.501925
-0.487191
-0.393713
-0.280982
-0.188898
-0.12314
-0.0841418
-0.0660275
-0.0605013
-0.048446
-0.0585158
-0.0738344
-0.0863363
-0.100144
-0.114285
-0.11301
-0.0966512
-0.0842517
-0.0690228
-0.0386211
-0.0453348
-0.0627687
-0.0467742
0.0111302
-0.261532
-0.250679
-0.265439
-0.295
-0.350263
-0.429188
-0.489857
-0.478489
-0.389824
-0.280374
-0.189246
-0.122846
-0.0823064
-0.0624687
-0.0557517
-0.0426789
-0.0538739
-0.0714521
-0.0859601
-0.102282
-0.117385
-0.115335
-0.0974004
-0.0839487
-0.06869
-0.0387837
-0.0453096
-0.0630721
-0.0468577
0.0112034
-0.258935
-0.246384
-0.260244
-0.288105
-0.339873
-0.416176
-0.476808
-0.468506
-0.385034
-0.279419
-0.189567
-0.122812
-0.0808656
-0.0594814
-0.0517428
-0.0377906
-0.0495608
-0.0690602
-0.0853131
-0.104245
-0.120289
-0.117472
-0.0980325
-0.0835789
-0.0682772
-0.0389004
-0.0452831
-0.0633563
-0.0469308
0.0112288
-0.257591
-0.243208
-0.255855
-0.281861
-0.329842
-0.402974
-0.463002
-0.457437
-0.379392
-0.278028
-0.189743
-0.122932
-0.079748
-0.0569835
-0.0483725
-0.0337163
-0.0456057
-0.066686
-0.0843676
-0.106017
-0.122977
-0.119409
-0.0985465
-0.0831437
-0.0677887
-0.0389706
-0.0452533
-0.0636146
-0.0469867
0.0112038
-0.257282
-0.241135
-0.252259
-0.276276
-0.320276
-0.389643
-0.448592
-0.445556
-0.373154
-0.276452
-0.190057
-0.123428
-0.0791024
-0.0550206
-0.0456212
-0.0304201
-0.0420165
-0.0643521
-0.0830943
-0.107583
-0.125431
-0.121138
-0.0989422
-0.0826444
-0.0672399
-0.0390064
-0.0452259
-0.0638422
-0.0470181
0.0111262
-0.257717
-0.240119
-0.249379
-0.271274
-0.311208
-0.376299
-0.433339
-0.433042
-0.367011
-0.275665
-0.191447
-0.124982
-0.0793633
-0.0537656
-0.0435454
-0.0279827
-0.0388511
-0.0620898
-0.0814685
-0.108925
-0.127611
-0.122578
-0.0992108
-0.082091
-0.066642
-0.0390195
-0.04521
-0.0640512
-0.0470168
0.010994
-0.258796
-0.240136
-0.247123
-0.266578
-0.302175
-0.363197
-0.416783
-0.41937
-0.360645
-0.275346
-0.19344
-0.12712
-0.0801816
-0.0529086
-0.0417969
-0.0262695
-0.0362588
-0.0600324
-0.0794311
-0.110064
-0.129441
-0.1236
-0.0993382
-0.0815092
-0.0659515
-0.0389528
-0.0451767
-0.0642719
-0.0469756
0.0108053
-0.259563
-0.240579
-0.245961
-0.262953
-0.294067
-0.349206
-0.401382
-0.404047
-0.350055
-0.269821
-0.190673
-0.125687
-0.0787778
-0.0508929
-0.0391018
-0.0240112
-0.0336148
-0.0578966
-0.0770984
-0.110852
-0.13129
-0.124777
-0.0993665
-0.0808996
-0.0650434
-0.0386209
-0.0450148
-0.0643001
-0.0468883
0.0105511
-0.249528
-0.239303
-0.245638
-0.261824
-0.29086
-0.343323
-0.38931
-0.388224
-0.333638
-0.256336
-0.180887
-0.118884
-0.0736375
-0.0468624
-0.0346146
-0.0189631
-0.0268177
-0.0513722
-0.0722529
-0.112714
-0.136344
-0.128717
-0.0995599
-0.080052
-0.0637707
-0.0378994
-0.0445746
-0.0632397
-0.0466116
0.01013
-0.247346
-0.239718
-0.245191
-0.260035
-0.285719
-0.3291
-0.366029
-0.361036
-0.309581
-0.238797
-0.16946
-0.11194
-0.0691852
-0.0432641
-0.0306155
-0.0159262
-0.0251674
-0.0473054
-0.0693156
-0.113513
-0.139257
-0.129912
-0.0984223
-0.0775974
-0.0617143
-0.0374101
-0.0444416
-0.0628753
-0.0469311
0.00971332
-0.244518
-0.238595
-0.242809
-0.25614
-0.278172
-0.312799
-0.340639
-0.333094
-0.286133
-0.2222
-0.158754
-0.105266
-0.0647786
-0.0397597
-0.026836
-0.0130261
-0.023349
-0.0444752
-0.0676992
-0.113517
-0.140626
-0.130183
-0.0967119
-0.0747399
-0.0593852
-0.0368069
-0.0442347
-0.0624005
-0.0473801
0.0093655
-0.239976
-0.235226
-0.237813
-0.249372
-0.267691
-0.294514
-0.314528
-0.305383
-0.263056
-0.205811
-0.148117
-0.0985795
-0.0604001
-0.0363144
-0.0231949
-0.00999556
-0.0207847
-0.0410309
-0.0655305
-0.112683
-0.141415
-0.129744
-0.094459
-0.0715052
-0.0566403
-0.036043
-0.0438877
-0.0617531
-0.0476803
0.00900955
-0.232803
-0.229433
-0.23048
-0.240105
-0.254988
-0.275047
-0.2886
-0.278545
-0.24084
-0.189972
-0.137745
-0.0919537
-0.0560256
-0.0328788
-0.0196205
-0.00674176
-0.0176278
-0.0366
-0.0621401
-0.110852
-0.141379
-0.128261
-0.0915484
-0.0678323
-0.0534681
-0.0350726
-0.0433696
-0.0609122
-0.0477733
0.00860887
-0.222985
-0.221489
-0.221395
-0.229061
-0.240812
-0.255303
-0.263712
-0.253231
-0.219841
-0.174799
-0.127653
-0.0854088
-0.0516476
-0.0294115
-0.016054
-0.00316364
-0.0138378
-0.0311654
-0.0574759
-0.107716
-0.140002
-0.125492
-0.0879103
-0.0636984
-0.049838
-0.0338448
-0.0426267
-0.0598019
-0.0476433
0.00815739
-0.211333
-0.211827
-0.211068
-0.216577
-0.225833
-0.235947
-0.240403
-0.229765
-0.200213
-0.160377
-0.117893
-0.0789838
-0.0472667
-0.0258794
-0.0124322
0.000817249
-0.00926601
-0.0246317
-0.0514486
-0.102907
-0.136958
-0.121282
-0.083493
-0.0590883
-0.0457326
-0.0323028
-0.0415928
-0.0583322
-0.0472218
0.00765275
-0.198529
-0.200854
-0.19991
-0.203727
-0.210601
-0.217367
-0.218863
-0.208221
-0.181998
-0.146748
-0.10849
-0.072702
-0.0428889
-0.0222616
-0.00869478
0.00526039
-0.00372631
-0.0167865
-0.043748
-0.0962093
-0.13202
-0.115515
-0.0782617
-0.0539979
-0.0411417
-0.0303815
-0.0401891
-0.0563899
-0.0463908
0.00708757
-0.185079
-0.188948
-0.188171
-0.190618
-0.195487
-0.199725
-0.199059
-0.188528
-0.165162
-0.133918
-0.0994648
-0.0665826
-0.0385309
-0.0185528
-0.00479549
0.0102139
0.00299428
-0.0073654
-0.0339896
-0.0876032
-0.124999
-0.108123
-0.0722087
-0.0484373
-0.0360655
-0.0280102
-0.038323
-0.0538421
-0.0450097
0.0064518
-0.171396
-0.176448
-0.176046
-0.177476
-0.180716
-0.183048
-0.180858
-0.170547
-0.149631
-0.121876
-0.0908301
-0.0606396
-0.0342193
-0.0147638
-0.000714284
0.0157041
0.0111053
0.00384305
-0.0219214
-0.0772338
-0.115795
-0.0991164
-0.0653609
-0.0424335
-0.0305154
-0.0251158
-0.0358897
-0.0505427
-0.04293
0.00573683
-0.157764
-0.163631
-0.163705
-0.164453
-0.166405
-0.167317
-0.164102
-0.154113
-0.135316
-0.110598
-0.0825984
-0.054885
-0.0299902
-0.0109225
0.00353027
0.021703
0.0206994
0.0168334
-0.00758944
-0.0654187
-0.104426
-0.0886042
-0.057787
-0.0360319
-0.0245123
-0.0216297
-0.0327759
-0.0463402
-0.0400007
0.00493896
-0.144363
-0.150734
-0.151304
-0.151642
-0.152621
-0.152496
-0.148642
-0.139069
-0.122127
-0.100055
-0.0747805
-0.049331
-0.0258834
-0.00707942
0.00787355
0.0280598
0.0315171
0.0311089
0.00842032
-0.0526052
-0.0910557
-0.0767941
-0.0495973
-0.0292988
-0.0180892
-0.0174946
-0.028866
-0.041092
-0.0360766
0.004063
-0.131337
-0.137955
-0.138985
-0.139125
-0.13941
-0.138552
-0.13435
-0.125271
-0.109976
-0.090216
-0.0673853
-0.0439944
-0.0219337
-0.00331228
0.0122077
0.0344293
0.0426671
0.0453446
0.024694
-0.039156
-0.0759464
-0.063994
-0.0409409
-0.0223213
-0.0112979
-0.0126711
-0.0240533
-0.0346854
-0.0310383
0.00312591
-0.118795
-0.125455
-0.126881
-0.126973
-0.126802
-0.125458
-0.121123
-0.112595
-0.0987805
-0.0810499
-0.0604172
-0.0389001
-0.0181654
0.000275855
0.0163817
0.0402861
0.0527264
0.0575489
0.0391979
-0.0251518
-0.0594
-0.0506172
-0.0320022
-0.0152047
-0.00421379
-0.00715028
-0.0182563
-0.0270664
-0.0248224
0.00215797
-0.106823
-0.113368
-0.115112
-0.115255
-0.11482
-0.113187
-0.108879
-0.100938
-0.0884677
-0.072529
-0.0538751
-0.0340788
-0.0145985
0.00357309
0.0201927
0.0450425
0.0603729
0.0660713
0.050236
-0.0106708
-0.0414943
-0.0371769
-0.0229916
-0.00806831
0.00306196
-0.00096722
-0.0114401
-0.0182728
-0.0174563
0.00119884
-0.0954832
-0.1018
-0.103778
-0.104036
-0.103484
-0.101717
-0.0975493
-0.090214
-0.0789705
-0.0646278
-0.0477554
-0.0295601
-0.0112623
0.00647878
0.0234112
0.0482035
0.0648772
0.0704765
0.0572168
0.00353581
-0.0244736
-0.0242988
-0.0141309
-0.00103974
0.0104018
0.00578207
-0.00364553
-0.00846575
-0.00909272
0.00029393
-0.0848235
-0.0908328
-0.0929577
-0.0933758
-0.0928125
-0.0910275
-0.0870797
-0.0803527
-0.070231
-0.0573226
-0.0420557
-0.0253658
-0.00820301
0.00891232
0.0258441
0.049546
0.0663457
0.0714354
0.0605148
0.0161611
-0.00905912
-0.0125143
-0.00562978
0.00575084
0.017648
0.0129256
0.00496409
0.00204694
-6.39665e-05
-0.00047458
-0.0748749
-0.080536
-0.0828187
-0.0833324
-0.082819
-0.0810999
-0.0774245
-0.0712963
-0.0622008
-0.050591
-0.0367762
-0.0215092
-0.00546945
0.0108325
0.0273903
0.0492071
0.0653497
0.0699546
0.0609695
0.0261312
0.00413113
-0.00213934
0.0023326
0.0121741
0.0246038
0.0202103
0.0140579
0.0127901
0.00910574
-0.000980772
-0.0656509
-0.0709285
-0.0732703
-0.0739269
-0.0735126
-0.0719173
-0.0685459
-0.0629974
-0.0548402
-0.0444117
-0.031919
-0.0179972
-0.00309236
0.0122457
0.0280664
0.0475912
0.0626044
0.0669366
0.0595587
0.0330881
0.0146245
0.00671581
0.00961681
0.0181072
0.0310268
0.0273047
0.0231341
0.0231244
0.0177521
-0.0010717
-0.0571587
-0.0620395
-0.064397
-0.0651875
-0.0649
-0.0634655
-0.0604129
-0.0554176
-0.0481175
-0.038765
-0.0274839
-0.0148299
-0.00107545
0.0131963
0.0280049
0.045166
0.0587954
0.0630823
0.0571434
0.0373594
0.019599
0.0140656
0.0161297
0.0234553
0.0366411
0.0338178
0.0315579
0.0323328
0.0251995
-0.000602633
-0.0493998
-0.0538868
-0.056227
-0.057135
-0.056987
-0.0557329
-0.0530008
-0.0485263
-0.0420074
-0.0336337
-0.023467
-0.0120014
0.000602386
0.0137535
0.0273915
0.0423281
0.0544982
0.0588863
0.0543323
0.0398795
0.026156
0.0202709
0.0218229
0.0281705
0.0412124
0.0393698
0.0386354
0.0397277
0.0309344
0.000519793
-0.0423712
-0.046479
-0.0487792
-0.0497859
-0.0497782
-0.0487108
-0.0462903
-0.0422998
-0.0364898
-0.0290031
-0.0198597
-0.00949959
0.00197858
0.0139998
0.026408
0.0393687
0.050153
0.0546805
0.051478
0.0411658
0.0308903
0.0253891
0.0266679
0.0322221
0.0446312
0.0437104
0.0437657
0.044795
0.0347634
0.00228885
-0.0360678
-0.0398198
-0.0420645
-0.0431521
-0.0432782
-0.0423938
-0.0402678
-0.0367208
-0.0315494
-0.0248608
-0.0166512
-0.0073081
0.00309678
0.0140222
0.025223
0.0364598
0.0460535
0.0506863
0.0487657
0.0416248
0.0341885
0.0295237
0.0306694
0.0355929
0.0468762
0.0467799
0.0467937
0.0474165
0.0368543
0.00453146
-0.0304854
-0.0339113
-0.0360917
-0.0372434
-0.0374922
-0.0367802
-0.0349255
-0.0317782
-0.0271759
-0.0211979
-0.0138301
-0.00540858
0.00400037
0.0139035
0.0239969
0.0336907
0.0423794
0.0470487
0.046287
0.0415681
0.036403
0.0327868
0.0338701
0.0382965
0.0480801
0.0487129
0.0481234
0.0480222
0.0375898
0.00688842
-0.025622
-0.0287567
-0.0308691