/*--------------------------------*- C++ -*----------------------------------*\
  =========                 |
  \\      /  F ield         | OpenFOAM: The Open Source CFD Toolbox
   \\    /   O peration     | Website:  https://openfoam.org
    \\  /    A nd           | Version:  7
     \\/     M anipulation  |
\*---------------------------------------------------------------------------*/
FoamFile
{
    version     2.0;
    format      ascii;
    class       volScalarField;
    location    "300";
    object      p;
}
// * * * * * * * * * * * * * * * * * * * * * * * * * * * * * * * * * * * * * //

dimensions      [0 2 -2 0 0 0 0];

internalField   nonuniform List<scalar> 
2125
(
-0.544427
-0.551206
-0.544581
-0.558663
-0.551164
-0.566841
-0.558364
-0.550818
-0.575754
-0.566198
-0.557825
-0.548353
-0.585377
-0.574658
-0.565404
-0.554595
-0.541313
-0.523987
-0.595657
-0.583709
-0.573502
-0.56118
-0.545547
-0.525035
-0.498701
-0.60651
-0.593289
-0.582036
-0.567991
-0.549687
-0.525716
-0.495948
-0.461982
-0.617819
-0.603301
-0.590891
-0.574876
-0.553546
-0.525887
-0.492708
-0.456194
-0.418293
-0.381719
-0.629435
-0.613617
-0.599917
-0.581643
-0.556919
-0.525408
-0.488897
-0.450021
-0.410873
-0.373564
-0.641171
-0.624068
-0.608923
-0.588061
-0.559596
-0.52414
-0.484426
-0.443382
-0.403116
-0.365128
-0.652804
-0.634444
-0.617678
-0.593868
-0.561363
-0.521951
-0.479204
-0.436194
-0.394935
-0.356323
-0.664076
-0.644499
-0.625911
-0.598782
-0.562017
-0.518714
-0.473138
-0.428367
-0.386238
-0.347069
-0.674693
-0.653951
-0.633318
-0.602516
-0.561359
-0.514304
-0.466131
-0.41981
-0.376939
-0.337287
-0.684335
-0.662488
-0.639568
-0.604784
-0.559205
-0.508601
-0.458089
-0.410435
-0.36695
-0.326907
-0.692659
-0.669775
-0.644316
-0.605316
-0.555385
-0.501494
-0.448922
-0.400154
-0.356193
-0.315871
-0.69931
-0.675459
-0.647219
-0.60386
-0.549743
-0.492877
-0.438539
-0.388887
-0.344597
-0.304129
-0.703929
-0.679185
-0.647946
-0.600188
-0.542141
-0.482653
-0.42686
-0.376559
-0.332104
-0.291652
-0.706163
-0.680599
-0.646191
-0.594101
-0.53246
-0.470735
-0.413807
-0.363097
-0.318665
-0.278424
-0.705675
-0.679365
-0.641683
-0.585433
-0.5206
-0.457051
-0.399311
-0.348433
-0.304222
-0.264406
-0.702154
-0.675172
-0.634192
-0.574053
-0.506487
-0.441543
-0.383322
-0.332514
-0.288704
-0.249458
-0.695324
-0.667746
-0.623534
-0.559865
-0.490066
-0.424172
-0.365809
-0.315327
-0.272075
-0.233309
-0.68495
-0.656862
-0.609568
-0.542807
-0.471308
-0.404912
-0.34675
-0.296889
-0.254439
-0.215786
-0.670845
-0.642349
-0.592197
-0.522853
-0.450204
-0.383751
-0.326126
-0.277192
-0.235914
-0.197341
-0.652875
-0.624089
-0.571376
-0.500008
-0.426771
-0.360696
-0.30395
-0.256208
-0.2159
-0.178652
-0.630961
-0.602019
-0.547105
-0.474313
-0.401051
-0.335787
-0.280297
-0.234032
-0.194775
-0.159246
-0.605078
-0.576135
-0.519433
-0.44585
-0.373107
-0.309099
-0.255237
-0.210614
-0.172702
-0.139038
-0.575259
-0.546491
-0.488473
-0.414736
-0.34301
-0.280724
-0.228777
-0.186037
-0.149742
-0.118054
-0.541589
-0.513207
-0.454408
-0.381062
-0.310861
-0.250718
-0.201005
-0.160387
-0.125943
-0.0963801
-0.504209
-0.476473
-0.417428
-0.344793
-0.276858
-0.219209
-0.172022
-0.133758
-0.101375
-0.0741234
-0.463323
-0.436538
-0.377507
-0.306287
-0.241091
-0.186327
-0.141946
-0.106247
-0.0761259
-0.0514038
-0.419159
-0.393653
-0.334472
-0.266024
-0.203793
-0.152225
-0.110905
-0.0779603
-0.0502824
-0.0283108
-0.371939
-0.347835
-0.289249
-0.22398
-0.16516
-0.11707
-0.0790407
-0.0490075
-0.0239327
-0.00493337
-0.321938
-0.29922
-0.242475
-0.180424
-0.125383
-0.0810378
-0.0464917
-0.0194879
0.00277726
0.018368
-0.2696
-0.248419
-0.194171
-0.135641
-0.0846741
-0.0443019
-0.0133722
0.0105206
0.0295543
0.0406812
-0.21533
-0.195805
-0.144536
-0.0899063
-0.0432659
-0.00703898
0.0202135
0.0409197
0.0560391
0.0613491
-0.159459
-0.141832
-0.0938832
-0.0435026
-0.00140141
0.0305599
0.0541009
0.0714536
0.0821174
0.0823478
-0.102416
-0.0869135
-0.0425656
0.00327792
0.0406704
0.0682805
0.0880223
0.101682
0.107781
0.109146
-0.0446446
-0.0314576
0.00904826
0.0501338
0.082697
0.105891
0.121697
0.131474
0.134022
0.136002
0.0134057
0.0241235
0.0605879
0.0967587
0.12442
0.14316
0.154954
0.160928
0.160497
0.161424
0.0712835
0.0794139
0.111685
0.142845
0.165577
0.179852
0.18762
0.189922
0.186726
0.185766
0.128538
0.133998
0.161975
0.188086
0.205908
0.215748
0.219528
0.218277
0.212336
0.209031
0.184725
0.187466
0.211103
0.232182
0.245156
0.25063
0.250501
0.245808
0.237133
0.231273
0.239406
0.239416
0.258719
0.27484
0.283072
0.284289
0.280361
0.272339
0.260964
0.252468
0.292159
0.289459
0.30449
0.315774
0.319417
0.316521
0.308931
0.29771
0.283703
0.272564
0.342576
0.337221
0.348093
0.354715
0.353959
0.34713
0.336043
0.321773
0.305235
0.291495
0.390268
0.382349
0.389223
0.391405
0.386479
0.375928
0.361537
0.34439
0.325448
0.309189
0.434869
0.424508
0.427596
0.425601
0.416771
0.40274
0.385262
0.365433
0.344238
0.325574
0.47604
0.46339
0.462945
0.457078
0.444643
0.427403
0.40708
0.384784
0.361507
0.340582
0.513467
0.49871
0.495026
0.485631
0.469921
0.449766
0.426863
0.402333
0.377162
0.354148
0.546869
0.530213
0.523622
0.511073
0.492445
0.469696
0.444495
0.417981
0.391121
0.366217
0.575996
0.557671
0.548536
0.533239
0.512075
0.487071
0.459876
0.43164
0.40331
0.376737
0.60063
0.58089
0.569603
0.551989
0.52869
0.501789
0.472915
0.443234
0.413665
0.385667
0.620591
0.599706
0.586682
0.567203
0.542188
0.513763
0.483541
0.452698
0.422132
0.392972
0.635734
0.613989
0.599661
0.578786
0.552489
0.522925
0.491694
0.459983
0.42867
0.398629
0.645954
0.623642
0.608458
0.586669
0.559533
0.529223
0.49733
0.46505
0.433247
0.40262
0.590808
0.563283
0.532625
0.500423
0.467876
0.435842
0.404925
-0.275606
-0.286696
-0.297214
-0.307192
-0.316675
-0.325711
-0.334354
-0.34266
-0.255043
-0.26533
-0.275127
-0.284464
-0.293377
-0.301905
-0.310088
-0.317968
-0.235654
-0.245111
-0.254154
-0.262812
-0.271115
-0.279093
-0.286779
-0.294208
-0.217444
-0.226128
-0.234473
-0.242499
-0.250231
-0.257692
-0.26491
-0.271914
-0.200383
-0.208351
-0.216034
-0.223451
-0.230619
-0.237556
-0.244284
-0.250827
-0.184389
-0.191678
-0.198721
-0.205537
-0.212138
-0.218537
-0.22475
-0.230792
-0.169392
-0.176031
-0.182459
-0.18869
-0.194733
-0.200598
-0.206295
-0.211837
-0.155317
-0.161346
-0.167192
-0.172867
-0.178376
-0.183728
-0.188931
-0.193995
-0.142105
-0.147567
-0.152871
-0.158024
-0.163031
-0.167899
-0.172635
-0.177245
-0.129719
-0.134661
-0.13946
-0.144125
-0.148662
-0.153075
-0.157368
-0.161548
-0.118106
-0.122571
-0.126908
-0.131124
-0.135225
-0.139215
-0.143097
-0.146875
-0.107264
-0.111286
-0.115193
-0.118994
-0.122692
-0.12629
-0.129792
-0.133199
-0.0971414
-0.100757
-0.104274
-0.107695
-0.111024
-0.114265
-0.117417
-0.120484
-0.0877033
-0.0909524
-0.0941139
-0.0971908
-0.100186
-0.103099
-0.105934
-0.108691
-0.0789243
-0.0818428
-0.0846838
-0.0874494
-0.0901412
-0.0927601
-0.0953072
-0.0977837
-0.0707796
-0.0733999
-0.0759525
-0.078438
-0.0808573
-0.0832107
-0.085499
-0.087723
-0.0898836
-0.0632375
-0.0655916
-0.0678871
-0.0701232
-0.0722994
-0.0744159
-0.0764729
-0.0784711
-0.0804111
-0.0562623
-0.0583919
-0.0604629
-0.062478
-0.0644384
-0.066344
-0.0681951
-0.069992
-0.0717354
-0.0498617
-0.0517841
-0.0536552
-0.0554748
-0.0572438
-0.0589627
-0.0606314
-0.0622503
-0.0638194
-0.0440224
-0.0457592
-0.0474502
-0.0490949
-0.0506936
-0.0522464
-0.0537533
-0.0552141
-0.0566291
-0.0387121
-0.040287
-0.0418204
-0.0433117
-0.0447608
-0.0461676
-0.0475319
-0.0488536
-0.0501328
-0.0339149
-0.035349
-0.0367451
-0.0381025
-0.039421
-0.0407003
-0.0419401
-0.0431403
-0.0443008
-0.0296195
-0.0309318
-0.0322089
-0.0334503
-0.0346555
-0.0358242
-0.036956
-0.0380506
-0.039108
-0.0258178
-0.0270255
-0.0282004
-0.029342
-0.0304498
-0.0315233
-0.0325621
-0.033566
-0.0345348
-0.0225057
-0.0236244
-0.0247125
-0.0257693
-0.0267942
-0.0277868
-0.0287466
-0.0296734
-0.0305668
-0.0196848
-0.0207293
-0.0217449
-0.0227309
-0.0236866
-0.0246117
-0.0255056
-0.0263681
-0.0271988
-0.0173621
-0.0183461
-0.0193026
-0.0202308
-0.0211302
-0.0220003
-0.0228406
-0.0236509
-0.0244309
-0.0155611
-0.0164981
-0.0174086
-0.0182919
-0.0191474
-0.0199749
-0.0207737
-0.0215436
-0.0222842
-0.0142969
-0.0152002
-0.0160779
-0.0169294
-0.0177543
-0.018552
-0.0193221
-0.0200643
-0.0207783
-0.0136498
-0.0145309
-0.0153868
-0.016217
-0.0170212
-0.0177989
-0.0185499
-0.019274
-0.0199707
0.0747874
0.0534326
0.0337165
0.014055
-0.00671688
-0.0277133
-0.0482939
-0.0684418
-0.0881815
-0.107427
-0.126087
-0.144113
-0.161467
-0.178128
-0.194125
-0.210053
-0.224925
-0.238684
-0.251625
-0.26392
0.0665645
0.0454732
0.0248711
0.00634535
-0.0125387
-0.0317947
-0.0505841
-0.0687692
-0.0864937
-0.103762
-0.12051
-0.136709
-0.152366
-0.167465
-0.18192
-0.19527
-0.208412
-0.221005
-0.232923
-0.244248
0.0571144
0.0370224
0.0166622
-0.000630262
-0.0173906
-0.0346042
-0.0515622
-0.0678955
-0.0837326
-0.0991615
-0.114139
-0.128612
-0.142557
-0.155936
-0.168709
-0.180892
-0.192938
-0.204476
-0.215392
-0.22576
0.0470951
0.0285054
0.00932454
-0.00659775
-0.0214252
-0.036659
-0.0518743
-0.0665482
-0.0807013
-0.0944651
-0.107841
-0.120776
-0.13324
-0.145208
-0.156658
-0.167594
-0.178563
-0.189024
-0.19894
-0.208393
0.0375517
0.0207387
0.00317811
-0.0113481
-0.0245198
-0.0379698
-0.0515524
-0.0647186
-0.0773745
-0.0896481
-0.101586
-0.113157
-0.124335
-0.135126
-0.145545
-0.155603
-0.165079
-0.174423
-0.183457
-0.1921
0.0289743
0.0139266
-0.0018683
-0.0150253
-0.0267787
-0.0386612
-0.0507332
-0.06251
-0.0738223
-0.0847637
-0.0954074
-0.105744
-0.11575
-0.125416
-0.134741
-0.143705
-0.152288
-0.160736
-0.168942
-0.176824
0.0214807
0.00806
-0.00595856
-0.0177725
-0.0282781
-0.0387904
-0.0494855
-0.0599812
-0.0700796
-0.0798317
-0.0893146
-0.098538
-0.107481
-0.116132
-0.12449
-0.132555
-0.140324
-0.147954
-0.155369
-0.162514
0.0150678
0.00311812
-0.009193
-0.0197053
-0.0290902
-0.0384061
-0.0478662
-0.0571911
-0.066191
-0.0748811
-0.0833279
-0.091552
-0.0995402
-0.107281
-0.114774
-0.122028
-0.129054
-0.135953
-0.142639
-0.149089
0.00970347
-0.000914586
-0.0116385
-0.0209201
-0.0292897
-0.0375585
-0.0459238
-0.0541907
-0.0621985
-0.0699401
-0.0774657
-0.0847994
-0.0919343
-0.0988576
-0.105558
-0.112035
-0.118307
-0.124605
-0.130655
-0.136474
0.00533808
-0.00407356
-0.0133595
-0.0215064
-0.0289563
-0.0363042
-0.0437048
-0.0510249
-0.05814
-0.0650335
-0.0717402
-0.0782831
-0.0846638
-0.0908784
-0.0969332
-0.102834
-0.108577
-0.113984
-0.119352
-0.124617
0.00190412
-0.00641751
-0.0144274
-0.0215498
-0.0281687
-0.0347026
-0.0412544
-0.0477326
-0.0540476
-0.0601818
-0.066157
-0.0719914
-0.0776875
-0.0832407
-0.0886472
-0.0939003
-0.0989895
-0.103917
-0.10876
-0.1135
-0.000681338
-0.00802338
-0.0149178
-0.0211293
-0.0270008
-0.0328118
-0.0386164
-0.0443493
-0.0499503
-0.0554052
-0.0607266
-0.0659267
-0.0710076
-0.0759657
-0.0807977
-0.0855013
-0.090076
-0.0945175
-0.0988691
-0.103124
-0.00250898
-0.00897575
-0.0149058
-0.0203172
-0.0255194
-0.0306873
-0.0358336
-0.040909
-0.0458758
-0.050725
-0.0554637
-0.0600988
-0.0646318
-0.0690603
-0.073382
-0.0775954
-0.0816995
-0.085693
-0.0896026
-0.093422
-0.00367139
-0.00936047
-0.0144645
-0.0191794
-0.0237857
-0.0283815
-0.0329477
-0.0374445
-0.0418504
-0.0461617
-0.0503823
-0.0545154
-0.0585612
-0.062518
-0.066384
-0.0701575
-0.0738379
-0.0774248
-0.0809357
-0.0843639
-0.0042598
-0.00926156
-0.0136637
-0.0177773
-0.0218556
-0.0259432
-0.0299983
-0.033987
-0.0378987
-0.0417341
-0.0454953
-0.049183
-0.0527964
-0.0563337
-0.0597936
-0.0631744
-0.0664753
-0.0696958
-0.0728488
-0.0759263
-0.00436228
-0.00875955
-0.0125692
-0.0161672
-0.0197805
-0.0234175
-0.0270231
-0.0305665
-0.0340441
-0.0374596
-0.0408147
-0.0441081
-0.0473383
-0.0505034
-0.0536024
-0.0566341
-0.059598
-0.0624935
-0.0653271
-0.0680894
-0.0040625
-0.00793061
-0.0112432
-0.0144019
-0.0176077
-0.0208468
-0.0240575
-0.0272114
-0.0303089
-0.0333556
-0.0363526
-0.039298
-0.0421895
-0.045025
-0.0478034
-0.0505233
-0.053186
-0.0557986
-0.0583438
-0.0608238
-0.00343902
-0.00684597
-0.00974347
-0.0125299
-0.0153806
-0.0182698
-0.0211345
-0.0239486
-0.0267143
-0.0294377
-0.0321203
-0.0347595
-0.0373526
-0.0398978
-0.0423938
-0.0448395
-0.0472312
-0.0495606
-0.0518376
-0.0540738
-0.00256476
-0.00557156
-0.00812399
-0.0105965
-0.0131396
-0.0157223
-0.0182848
-0.0208032
-0.02328
-0.0257215
-0.0281287
-0.0304992
-0.0328301
-0.0351191
-0.0373647
-0.0395652
-0.0417184
-0.0438222
-0.0458771
-0.0478908
-0.00150681
-0.00416798
-0.00643448
-0.00864328
-0.0109214
-0.0132374
-0.0155371
-0.017799
-0.0200253
-0.0222217
-0.0243891
-0.0265251
-0.0286268
-0.0306922
-0.0327195
-0.0347076
-0.036655
-0.0385602
-0.040421
-0.042242
-0.000326416
-0.00269054
-0.00472086
-0.00670916
-0.00876037
-0.0108456
-0.0129179
-0.0149582
-0.0169682
-0.0189526
-0.0209121
-0.0228446
-0.0247473
-0.0266182
-0.0284557
-0.0302585
-0.0320252
-0.0337544
-0.0354443
-0.0370972
0.00092085
-0.0011895
-0.00302533
-0.00483
-0.00668822
-0.00857525
-0.0104518
-0.0123018
-0.014126
-0.015928
-0.0177083
-0.019465
-0.0211955
-0.0228979
-0.0245706
-0.0262123
-0.0278217
-0.0293974
-0.0309378
-0.0324439
0.00218476
0.00028961
-0.00138666
-0.00303918
-0.0047345
-0.00645268
-0.00816222
-0.00984971
-0.0115152
-0.0131613
-0.0147882
-0.016394
-0.0179765
-0.0195338
-0.0210645
-0.0225672
-0.0240406
-0.0254833
-0.0268941
-0.0282732
0.00342
0.0017055
0.000159368
-0.00136797
-0.00292711
-0.00450297
-0.00607133
-0.00762138
-0.0091526
-0.0106665
-0.012163
-0.0136405
-0.0150968
-0.0165304
-0.0179397
-0.0193235
-0.0206804
-0.0220092
-0.0233086
-0.0245785
0.00458548
0.00302045
0.00157939
0.000153915
-0.00129292
-0.00275054
-0.00420119
-0.00563647
-0.00705539
-0.00845863
-0.00984577
-0.0112153
-0.0125655
-0.0138947
-0.0152015
-0.0164846
-0.0177429
-0.0189751
-0.02018
-0.0213571
0.00564359
0.0041995
0.00284174
0.00149758
0.00014146
-0.00121993
-0.00257442
-0.00391569
-0.00524245
-0.00655467
-0.0078517
-0.00913216
-0.0103945
-0.0116371
-0.0128589
-0.0140584
-0.0152346
-0.0163862
-0.0175123
-0.0186121
0.00655907
0.00520926
0.00391526
0.00263383
0.00134853
6.28397e-05
-0.00121557
-0.00248216
-0.00373547
-0.00497494
-0.00619971
-0.00740851
-0.00859995
-0.00977267
-0.0109254
-0.0120571
-0.0131665
-0.0142526
-0.0153144
-0.0163512
0.00729778
0.0060166
0.00476826
0.0035322
0.00229884
0.0010692
-0.000152513
-0.00136317
-0.00256122
-0.00374572
-0.00491571
-0.00606999
-0.00720732
-0.00832647
-0.00942628
-0.0105057
-0.0115635
-0.0125989
-0.0136107
-0.0145983
0.00782553
0.00658713
0.00536669
0.00415928
0.0029599
0.00176775
0.000584616
-0.000587446
-0.00174691
-0.00289265
-0.00402368
-0.00513893
-0.0062373
-0.00731772
-0.00837914
-0.00942058
-0.0104411
-0.0114398
-0.0124159
-0.0133685
0.00810928
0.00688689
0.0056739
0.00447407
0.00328553
0.00210698
0.000938951
-0.000217053
-0.00135954
-0.0024873
-0.00359931
-0.00469459
-0.00577217
-0.0068311
-0.00787046
-0.00888936
-0.00988698
-0.0108625
-0.0118151
-0.0127443
0.126669
0.129229
0.132273
0.137999
0.143704
0.151531
0.158688
0.167155
0.17345
0.179682
0.180775
0.179737
0.168221
0.151401
0.111781
0.125769
0.128199
0.131043
0.136385
0.141628
0.148721
0.154986
0.16218
0.166964
0.171141
0.170008
0.165857
0.151794
0.130712
0.095505
0.124787
0.127073
0.129687
0.134604
0.139328
0.145631
0.150941
0.15682
0.160086
0.162283
0.15917
0.152468
0.137019
0.114608
0.0834833
0.123719
0.125844
0.128216
0.132674
0.136854
0.142321
0.146657
0.15118
0.152976
0.15323
0.148391
0.139516
0.123336
0.100461
0.0714922
0.122561
0.124511
0.12663
0.1306
0.13422
0.138816
0.142179
0.145332
0.145736
0.144136
0.13782
0.127152
0.110503
0.0875208
0.0598983
0.121309
0.12307
0.124926
0.128381
0.131425
0.135123
0.137523
0.139316
0.138414
0.135103
0.127532
0.115472
0.0985053
0.075792
0.049455
0.11996
0.121516
0.123101
0.126015
0.128472
0.131253
0.132705
0.133173
0.131057
0.126218
0.117589
0.104525
0.0874119
0.065316
0.0403694
0.11851
0.119845
0.121153
0.123504
0.125367
0.127225
0.12775
0.126952
0.123719
0.117559
0.108055
0.0943438
0.0772786
0.056045
0.0325586
0.116957
0.118056
0.119082
0.120855
0.122119
0.12306
0.122688
0.120708
0.116456
0.109198
0.0989966
0.0849497
0.0681217
0.0478963
0.0258997
0.1153
0.116149
0.116889
0.118074
0.118738
0.118785
0.117551
0.114494
0.109327
0.101193
0.0904709
0.0763476
0.0599271
0.0407941
0.0202962
0.113538
0.114124
0.114576
0.115173
0.115238
0.114429
0.112372
0.10836
0.102388
0.093593
0.0825232
0.0685311
0.0526638
0.0346726
0.0156657
0.111672
0.111988
0.112146
0.112166
0.111636
0.110024
0.107192
0.102353
0.095695
0.0864334
0.0751845
0.0614867
0.0462905
0.0294675
0.0119258
0.109703
0.109745
0.109605
0.109068
0.107953
0.105602
0.102051
0.0965177
0.089297
0.0797422
0.0684711
0.055195
0.0407578
0.0251102
0.00899176
0.107636
0.107405
0.106963
0.105898
0.104212
0.101193
0.096991
0.090891
0.0832364
0.0735396
0.0623861
0.0496297
0.0360105
0.0215277
0.00677742
0.105476
0.10498
0.104231
0.102675
0.10044
0.0968305
0.092053
0.0855079
0.0775467
0.0678379
0.0569212
0.044757
0.0319893
0.0186445
0.00519708
0.103231
0.102485
0.101425
0.0994201
0.0966679
0.0925441
0.0872762
0.0803987
0.0722523
0.0626418
0.0520583
0.0405366
0.028632
0.0163848
0.00416698
0.100911
0.0999369
0.0985654
0.0961545
0.0929274
0.088365
0.0826959
0.0755896
0.0673686
0.0579484
0.0477719
0.0369227
0.0258749
0.0146738
0.00360629
0.0985311
0.0973533
0.0956756
0.0929022
0.0892507
0.0843234
0.0783429
0.0711013
0.062903
0.0537469
0.0440305
0.0338659
0.0236536
0.0134384
0.00343806
0.0961089
0.094755
0.0927829
0.0896888
0.0856698
0.0804487
0.0742433
0.0669496
0.0588556
0.0500204
0.040798
0.0313144
0.0219043
0.0126088
0.00358982
0.0936665
0.0921648
0.0899174
0.0865424
0.0822158
0.0767686
0.0704182
0.0631444
0.0552206
0.0467463
0.0380348
0.0292152
0.0205647
0.0121181
0.00399396
0.0912302
0.0896078
0.087111
0.0834935
0.0789185
0.0733088
0.0668845
0.0596908
0.051987
0.0438981
0.0356994
0.0275158
0.0195744
0.0119037
0.00458795
0.0888305
0.0871119
0.0843975
0.0805743
0.0758072
0.0700928
0.0636553
0.0565891
0.0491399
0.0414465
0.0337492
0.0261645
0.0188763
0.0119069
0.00531437
0.0865021
0.0847089
0.0818116
0.0778189
0.0729103
0.0671415
0.0607402
0.0538362
0.0466617
0.0393608
0.0321422
0.0251115
0.0184165
0.0120733
0.00612076
0.0842838
0.0824341
0.0793894
0.0752621
0.0702562
0.0644745
0.0581468
0.0514267
0.0445331
0.0376098
0.0308375
0.02431
0.0181448
0.0123531
0.00695941
0.0822185
0.0803272
0.077169
0.07294
0.0678734
0.0621105
0.0558813
0.049354
0.0427349
0.0361636
0.0297966
0.0237163
0.0180153
0.0127008
0.00778691
0.0803533
0.0784324
0.0751908
0.0708899
0.0657914
0.0600685
0.0539502
0.0476124
0.0412493
0.0349946
0.0289844
0.0232906
0.017986
0.0130748
0.0085636
0.0787392
0.0767982
0.0734988
0.069151
0.0640416
0.0583694
0.0523619
0.0461982
0.0400614
0.0340788
0.0283699
0.0229976
0.0180195
0.0134373
0.00925281
0.0774321
0.0754782
0.0721412
0.0677659
0.0626587
0.0570378
0.0511296
0.0451129
0.0391618
0.0333978
0.0279275
0.022807
0.0180824
0.0137539
0.00982007
0.0764932
0.0745315
0.0711719
0.0667821
0.0616826
0.0561045
0.0502726
0.0443651
0.0385488
0.0329407
0.0276389
0.0226946
0.0181465
0.0139938
0.0102325
0.0759883
0.0740233
0.0706521
0.0662562
0.061162
0.0556093
0.0498205
0.0439737
0.0382305
0.0327063
0.027494
0.0226429
0.0181877
0.0141276
0.0104578
0.1345
0.13774
0.141455
0.149179
0.156953
0.168584
0.18063
0.196537
0.21327
0.23392
0.255975
0.281702
0.309201
0.340226
0.372296
0.13434
0.137571
0.141272
0.14897
0.156714
0.168285
0.180277
0.196132
0.212691
0.233267
0.25526
0.280969
0.308101
0.338823
0.370468
0.134154
0.137371
0.141058
0.148724
0.156437
0.167932
0.179846
0.195595
0.212338
0.232535
0.254196
0.27954
0.306235
0.336452
0.36734
0.133942
0.137143
0.140815
0.14844
0.156123
0.167524
0.179479
0.195018
0.211427
0.231438
0.252745
0.27767
0.303736
0.333208
0.362968
0.133705
0.136886
0.140541
0.148118
0.155777
0.167028
0.178882
0.194203
0.210396
0.23016
0.250991
0.275368
0.300592
0.329081
0.357351
0.133442
0.136601
0.140239
0.147763
0.15536
0.166831
0.178191
0.193353
0.209237
0.228669
0.248917
0.272622
0.296798
0.324072
0.350495
0.133155
0.136288
0.139908
0.147375
0.154911
0.166148
0.177435
0.192401
0.207928
0.226956
0.246523
0.269435
0.292365
0.318197
0.342414
0.132844
0.135949
0.139549
0.146951
0.154347
0.165454
0.176607
0.191336
0.206467
0.22503
0.243815
0.265818
0.287303
0.31147
0.333129
0.132508
0.135583
0.139162
0.14649
0.153795
0.164733
0.175708
0.190166
0.204861
0.222894
0.240801
0.261777
0.281622
0.30391
0.322665
0.132149
0.135191
0.138749
0.145999
0.153212
0.16396
0.174737
0.188893
0.203112
0.220552
0.237488
0.257323
0.275335
0.295536
0.311051
0.131767
0.134775
0.138311
0.145491
0.15258
0.163137
0.173697
0.18752
0.201224
0.218009
0.233884
0.252465
0.268456
0.286372
0.298322
0.131362
0.134335
0.137848
0.144912
0.151905
0.162266
0.17259
0.186048
0.199203
0.215269
0.229999
0.247213
0.261001
0.276446
0.284518
0.130935
0.133874
0.137392
0.144274
0.151193
0.161348
0.171419
0.184482
0.197052
0.212336
0.225842
0.241576
0.252986
0.265785
0.269679
0.130487
0.133391
0.136867
0.143632
0.150449
0.160385
0.170185
0.182825
0.194777
0.209217
0.221425
0.235563
0.244433
0.254421
0.25385
0.130018
0.132883
0.13631
0.142967
0.149671
0.159377
0.168892
0.181081
0.192382
0.205915
0.216759
0.229184
0.235363
0.242386
0.23707
0.129529
0.13235
0.135737
0.142275
0.14886
0.158327
0.16754
0.179252
0.189871
0.202437
0.211854
0.222447
0.225806
0.22971
0.219373
0.129021
0.131823
0.135143
0.141558
0.148016
0.157234
0.166129
0.177337
0.187244
0.198783
0.206718
0.215358
0.215796
0.216429
0.200787
0.128494
0.131252
0.134531
0.140822
0.14715
0.156113
0.164679
0.175363
0.184529
0.194989
0.201386
0.207955
0.205388
0.202577
0.18134
0.127952
0.130665
0.133904
0.140076
0.146274
0.154988
0.163219
0.173372
0.181768
0.191101
0.19588
0.200234
0.194548
0.188081
0.160781
0.127386
0.130049
0.133227
0.139251
0.145286
0.153701
0.161542
0.171085
0.17863
0.18672
0.189805
0.191798
0.183101
0.172635
0.138568
)
;

boundaryField
{
    inlet
    {
        type            zeroGradient;
    }
    outlet
    {
        type            fixedValue;
        value           nonuniform 0();
    }
    cylinder
    {
        type            zeroGradient;
    }
    top
    {
        type            symmetryPlane;
    }
    bottom
    {
        type            symmetryPlane;
    }
    defaultFaces
    {
        type            empty;
    }
    procBoundary2to0
    {
        type            processor;
        value           nonuniform List<scalar> 
26
(
0.651183
0.628606
0.613021
0.613021
0.591183
0.563721
0.533117
0.50096
0.468449
0.436444
0.405538
0.134635
0.137881
0.141608
0.149345
0.157142
0.168813
0.180884
0.196816
0.213629
0.234298
0.25641
0.282222
0.309762
0.340825
0.372926
)
;
    }
    procBoundary2to3
    {
        type            processor;
        value           nonuniform List<scalar> 
50
(
-0.538243
-0.538574
-0.538574
-0.538589
-0.544407
-0.544407
-0.542539
-0.542539
-0.537146
-0.537146
-0.522719
-0.501052
-0.501052
-0.467455
-0.467455
-0.425464
-0.425464
-0.389683
-0.350691
-0.350691
-0.325589
-0.301415
-0.278735
-0.257203
-0.236675
-0.217231
-0.198928
-0.181735
-0.165617
-0.150553
-0.136515
-0.123468
-0.111372
-0.100191
-0.100191
-0.0919818
-0.0822936
-0.0734258
-0.0653394
-0.0579984
-0.0513694
-0.0454214
-0.0401281
-0.0354682
-0.0314268
-0.0279976
-0.0251802
-0.0229954
-0.0214639
-0.0206401
)
;
    }
}


// ************************************************************************* //
