/*--------------------------------*- C++ -*----------------------------------*\
  =========                 |
  \\      /  F ield         | OpenFOAM: The Open Source CFD Toolbox
   \\    /   O peration     | Website:  https://openfoam.org
    \\  /    A nd           | Version:  7
     \\/     M anipulation  |
\*---------------------------------------------------------------------------*/
FoamFile
{
    version     2.0;
    format      ascii;
    class       volVectorField;
    location    "290";
    object      U;
}
// * * * * * * * * * * * * * * * * * * * * * * * * * * * * * * * * * * * * * //

dimensions      [0 1 -1 0 0 0 0];

internalField   nonuniform List<vector> 
2125
(
(-0.0127531 0.0103507 -1.0846e-19)
(-0.0101995 0.00795763 3.9169e-20)
(0.0151351 0.00625836 4.21635e-20)
(-0.00689045 0.00555491 -2.64667e-20)
(0.0302684 -0.000152318 -1.971e-20)
(-0.00265265 0.00311737 5.51022e-20)
(0.0483945 -0.00618409 -1.54664e-20)
(0.160587 -0.014901 -9.19363e-21)
(0.00267823 0.000651213 -2.03338e-20)
(0.0697845 -0.0117268 -1.20577e-19)
(0.203301 -0.0198309 1.26242e-20)
(0.398666 -0.0217125 4.35751e-20)
(0.00924979 -0.00180266 -2.21608e-20)
(0.0946425 -0.0166069 4.2855e-20)
(0.25116 -0.0228818 5.5829e-20)
(0.469843 -0.0194622 -4.02432e-20)
(0.725151 -0.00377376 1.4946e-20)
(0.97096 0.0189057 -9.15558e-20)
(0.0171869 -0.00417004 -2.85119e-20)
(0.123089 -0.0205885 -9.54662e-21)
(0.303867 -0.0236991 -1.00984e-19)
(0.544598 -0.0137449 -1.58222e-20)
(0.809677 0.00915878 -1.78776e-21)
(1.04766 0.0365123 5.40355e-21)
(1.22172 0.0587515 9.66334e-21)
(0.0265873 -0.00634735 -7.38418e-21)
(0.155144 -0.0233816 3.50028e-20)
(0.360911 -0.0219116 4.93032e-20)
(0.621416 -0.00442135 3.0858e-20)
(0.89102 0.0253675 -9.2253e-21)
(1.1165 0.0561954 -7.50409e-21)
(1.26923 0.0786551 7.45968e-20)
(1.3514 0.0896295 9.68777e-21)
(0.0375178 -0.00820692 7.05915e-20)
(0.190717 -0.0246578 4.59824e-20)
(0.421572 -0.0171672 -4.66009e-20)
(0.698682 0.0085272 -9.28517e-21)
(0.967573 0.0444946 4.76726e-21)
(1.17699 0.0775311 -1.75397e-20)
(1.30799 0.0991826 -3.8071e-20)
(1.37104 0.108247 -6.43262e-21)
(1.38824 0.108096 5.49507e-22)
(1.38104 0.0986464 1.52544e-20)
(0.0500093 -0.00960296 8.50128e-21)
(0.229595 -0.0240702 -2.50074e-20)
(0.48494 -0.0091714 5.91979e-20)
(0.774799 0.0250041 3.86166e-20)
(1.03814 0.066161 1.04156e-21)
(1.22904 0.100151 2.73582e-20)
(1.3388 0.120112 4.08683e-21)
(1.38481 0.126807 -2.86058e-20)
(1.39132 0.124259 2.40639e-20)
(1.37877 0.11411 -3.23267e-23)
(0.0640531 -0.0103777 -5.78011e-20)
(0.271434 -0.0212761 -1.70826e-20)
(0.549957 0.00228275 -1.55339e-20)
(0.848307 0.0448176 -2.69944e-20)
(1.10193 0.0899902 6.2163e-21)
(1.2729 0.123745 1.45114e-22)
(1.36252 0.141285 2.08264e-20)
(1.39367 0.145281 -3.29654e-21)
(1.39153 0.140312 -2.47394e-20)
(1.37494 0.129407 -2.29078e-20)
(0.0795972 -0.0103676 4.66059e-21)
(0.31577 -0.0159592 2.75126e-20)
(0.615479 0.0172969 1.32968e-20)
(0.91795 0.067706 -4.17129e-20)
(1.15851 0.115623 -2.15223e-21)
(1.30901 0.148054 -1.78553e-20)
(1.38001 0.162585 4.66395e-22)
(1.39844 0.163663 8.42563e-21)
(1.38944 0.156288 -9.29186e-21)
(1.36985 0.144575 2.58581e-20)
(0.0965439 -0.00940959 1.08631e-20)
(0.362023 -0.00785124 -2.68049e-20)
(0.68034 0.0358641 -6.34154e-20)
(0.98272 0.0933609 5.84523e-20)
(1.2077 0.142725 -4.37195e-21)
(1.33792 0.172865 1.29484e-20)
(1.39205 0.183932 -1.77451e-21)
(1.39979 0.181955 1.239e-20)
(1.38545 0.172211 -9.30135e-22)
(1.36369 0.159635 -2.0033e-20)
(0.114749 -0.0073479 -2.20595e-20)
(0.40952 0.00325071 3.4731e-20)
(0.743416 0.0578761 2.88193e-20)
(1.04186 0.121446 -4.15057e-20)
(1.24957 0.170986 -6.84137e-21)
(1.36021 0.197999 2.6331e-21)
(1.39937 0.205265 2.62752e-20)
(1.39827 0.200156 1.33909e-21)
(1.37986 0.188092 5.12424e-21)
(1.35655 0.174584 -1.10505e-20)
(0.134022 -0.0040407 1.67305e-20)
(0.457521 0.017471 -1.51113e-20)
(0.803678 0.0831368 -1.28264e-20)
(1.09484 0.151609 2.20612e-20)
(1.28431 0.200122 7.64332e-21)
(1.3765 0.223308 5.76273e-21)
(1.40257 0.226533 -2.67208e-20)
(1.39429 0.21826 -9.17108e-21)
(1.37286 0.203923 -8.23475e-21)
(1.3485 0.189405 3.63173e-21)
(0.154133 0.000633015 -8.26535e-21)
(0.505247 0.0348483 -1.94628e-22)
(0.860222 0.111378 2.4258e-20)
(1.14134 0.183494 -8.92643e-21)
(1.31222 0.229872 -3.91786e-21)
(1.38735 0.248657 -2.58758e-21)
(1.40218 0.247687 6.45399e-21)
(1.38817 0.23625 1.11856e-20)
(1.36459 0.21968 -3.5318e-22)
(1.33957 0.204065 4.10242e-21)
(0.174813 0.00676713 5.81642e-21)
(0.551916 0.0553337 -1.6333e-21)
(0.912293 0.142274 -4.32857e-21)
(1.1812 0.216742 -3.92105e-21)
(1.33366 0.25999 3.53711e-21)
(1.39328 0.273926 2.76373e-21)
(1.3986 0.268675 -2.55268e-21)
(1.38016 0.254092 9.33246e-22)
(1.35513 0.235324 1.31336e-21)
(1.32978 0.218517 -1.75098e-21)
(0.195765 0.0144231 3.0855e-21)
(0.596766 0.0787932 8.84743e-22)
(0.959286 0.175458 -5.31393e-21)
(1.21439 0.250999 -4.24373e-21)
(1.349 0.290249 4.43242e-21)
(1.39476 0.298999 8.67397e-22)
(1.39219 0.289433 -2.04656e-21)
(1.37041 0.271738 1.92963e-21)
(1.34452 0.250796 1.08508e-21)
(1.31914 0.232703 -1.25727e-21)
(0.216672 0.0236259 -1.21522e-21)
(0.639084 0.105015 2.47299e-21)
(1.00074 0.210532 1.63029e-20)
(1.24098 0.285915 -7.23848e-21)
(1.35864 0.320428 -3.58108e-21)
(1.3922 0.323757 -4.05072e-21)
(1.38322 0.309892 8.33025e-21)
(1.35906 0.289126 5.6273e-21)
(1.3328 0.266019 4.53174e-21)
(1.30766 0.246561 2.48815e-21)
(0.237205 0.0343616 2.45595e-20)
(0.678226 0.133717 -1.35669e-20)
(1.03634 0.247074 -1.55312e-20)
(1.26112 0.32115 2.10779e-20)
(1.36296 0.350317 1.11173e-20)
(1.38596 0.348084 -7.51481e-22)
(1.3719 0.329968 -1.39211e-20)
(1.34616 0.306173 -1.01014e-20)
(1.31997 0.280901 -1.06671e-20)
(1.29533 0.26002 6.41221e-21)
(0.257034 0.0465769 -3.31717e-20)
(0.713631 0.164557 3.12785e-20)
(1.06588 0.284654 3.59627e-20)
(1.27503 0.356368 -3.55492e-20)
(1.36231 0.379709 -1.23776e-20)
(1.37633 0.371856 8.00079e-21)
(1.35841 0.34957 1.46685e-20)
(1.33179 0.322791 2.34309e-21)
(1.30603 0.29534 -4.49226e-22)
(1.28207 0.273003 -8.83124e-21)
(0.275835 0.0601796 -4.70371e-21)
(0.744827 0.197148 -4.38327e-20)
(1.08926 0.322831 -4.70101e-20)
(1.28294 0.391247 5.28593e-20)
(1.35705 0.408404 -6.01602e-21)
(1.36361 0.394943 1.11975e-20)
(1.34288 0.368596 2.25641e-21)
(1.31599 0.338891 -6.33396e-21)
(1.29094 0.30926 3.40758e-21)
(1.2677 0.285437 -5.36911e-22)
(0.293299 0.0750414 9.60012e-21)
(0.771445 0.231062 2.706e-20)
(1.10649 0.361166 1.54021e-20)
(1.28513 0.425471 -1.2121e-20)
(1.3475 0.4362 -1.89145e-20)
(1.34801 0.41721 -1.78474e-20)
(1.32543 0.386934 -3.65939e-21)
(1.29881 0.354381 9.92745e-21)
(1.27475 0.32265 -2.1057e-21)
(1.25209 0.297263 4.89896e-21)
(0.309143 0.0910002 -3.60967e-20)
(0.79321 0.265852 -3.38629e-20)
(1.11763 0.399225 -5.35281e-21)
(1.28189 0.458735 -6.06654e-21)
(1.33397 0.462899 -1.39731e-20)
(1.32974 0.438514 8.691e-21)
(1.30617 0.404454 -1.55898e-21)
(1.2803 0.369141 -8.75544e-21)
(1.25751 0.335524 7.96963e-21)
(1.23553 0.308448 -1.19969e-20)
(0.323115 0.107864 8.67797e-21)
(0.809946 0.301055 2.86727e-20)
(1.12282 0.436582 2.49834e-20)
(1.27353 0.490746 2.72991e-20)
(1.31676 0.48831 5.00022e-22)
(1.30899 0.458711 2.45545e-20)
(1.28518 0.421026 1.76287e-21)
(1.2605 0.383017 -3.01341e-20)
(1.23913 0.347672 2.20118e-20)
(1.21834 0.318891 8.22177e-21)
(0.334998 0.125415 2.33086e-20)
(0.821559 0.33621 5.22005e-20)
(1.12224 0.472829 -6.94965e-21)
(1.26037 0.521219 -3.43689e-20)
(1.29614 0.51224 1.56456e-20)
(1.28593 0.477655 -1.65525e-20)
(1.26258 0.436523 -2.27531e-20)
(1.23948 0.395963 -2.3132e-21)
(1.21959 0.358918 -1.86943e-20)
(1.20047 0.328513 7.4655e-21)
(0.344617 0.14342 1.09458e-20)
(0.828036 0.370857 8.12087e-21)
(1.11615 0.507571 6.54794e-20)
(1.24274 0.549883 1.24744e-20)
(1.27238 0.534503 -1.10361e-20)
(1.26076 0.495188 -5.73243e-21)
(1.23849 0.450804 3.5307e-20)
(1.21727 0.407858 2.97932e-20)
(1.19905 0.369184 1.52103e-20)
(1.1818 0.337174 -2.212e-21)
(0.351838 0.161628 2.34551e-21)
(0.829439 0.404551 -5.33265e-20)
(1.10484 0.540439 -7.70393e-20)
(1.22098 0.576487 2.57397e-21)
(1.24573 0.554907 1.58231e-20)
(1.23363 0.511156 -2.2062e-20)
(1.21299 0.463743 -5.25544e-20)
(1.19389 0.418586 -1.61435e-20)
(1.17757 0.378366 -1.03419e-21)
(1.16237 0.344806 9.07928e-21)
(0.356572 0.179786 -1.90117e-20)
(0.825905 0.43686 4.8151e-20)
(1.08865 0.57109 4.64038e-20)
(1.1954 0.600798 -4.36347e-20)
(1.21641 0.573271 6.61597e-21)
(1.20472 0.525401 5.50126e-20)
(1.18616 0.475209 -1.3375e-20)
(1.16946 0.428033 1.11851e-20)
(1.15521 0.38637 -6.23393e-21)
(1.14224 0.351336 -8.557e-21)
(0.358774 0.197632 -4.28972e-20)
(0.81765 0.467368 -7.59218e-20)
(1.06794 0.599217 -1.5006e-20)
(1.16623 0.62256 2.49138e-20)
(1.18473 0.589441 2.55431e-20)
(1.17419 0.537769 -5.54866e-20)
(1.15815 0.485076 3.17485e-20)
(1.14406 0.436092 -1.85629e-20)
(1.13205 0.393103 1.61702e-20)
(1.12147 0.356699 5.34326e-23)
(0.358459 0.214911 3.26854e-20)
(0.804961 0.495693 2.15489e-21)
(1.04296 0.62454 -7.33184e-21)
(1.1338 0.641571 -3.15846e-20)
(1.15097 0.603206 2.17963e-20)
(1.14222 0.548144 4.02334e-21)
(1.12906 0.493229 -1.97932e-20)
(1.1178 0.442661 2.27486e-21)
(1.10817 0.398471 -5.30699e-21)
(1.10018 0.360826 4.41184e-21)
(0.355692 0.231363 -9.10134e-21)
(0.788148 0.521556 -1.30595e-20)
(1.01382 0.646666 3.29876e-20)
(1.09863 0.657696 1.5561e-20)
(1.11539 0.614417 -2.20035e-20)
(1.109 0.556387 3.46638e-20)
(1.09904 0.499558 1.83649e-21)
(1.09078 0.447646 1.42037e-21)
(1.08366 0.402373 -4.81305e-21)
(1.07844 0.36362 -5.32655e-22)
(0.350554 0.24669 5.94305e-20)
(0.767392 0.544741 4.60559e-20)
(0.98101 0.665403 -2.61963e-21)
(1.06113 0.670638 -7.85625e-21)
(1.07824 0.622996 -9.2913e-21)
(1.07472 0.562393 -4.87716e-21)
(1.06825 0.503967 1.11113e-21)
(1.06313 0.450966 2.95202e-21)
(1.05862 0.40472 5.09472e-21)
(1.05633 0.364984 7.18099e-22)
(0.343088 0.260588 5.67538e-21)
(0.742854 0.564798 8.46071e-21)
(0.945254 0.680721 -4.51042e-20)
(1.02161 0.68025 2.09727e-20)
(1.03978 0.62881 8.47013e-21)
(1.03956 0.566059 -2.00957e-20)
(1.03682 0.506365 6.15372e-21)
(1.03496 0.452551 1.06281e-21)
(1.03318 0.405444 -1.44171e-21)
(1.03411 0.364873 -1.83791e-22)
(0.333395 0.272834 -2.24729e-20)
(0.714912 0.581327 -1.70619e-20)
(0.906951 0.692361 1.58689e-20)
(0.980372 0.686486 5.67148e-21)
(1.00027 0.631761 -7.77759e-21)
(1.00372 0.567293 9.09349e-21)
(1.00488 0.506667 7.59198e-22)
(1.00635 0.452309 6.18287e-22)
(1.00762 0.404478 7.48589e-21)
(1.01249 0.363339 4.22233e-21)
(0.3217 0.283294 -1.80533e-20)
(0.684085 0.594165 4.87693e-20)
(0.866449 0.700111 -3.27001e-20)
(0.937759 0.689256 -3.68168e-21)
(0.959953 0.631769 -8.21067e-21)
(0.967392 0.566022 4.54864e-21)
(0.972555 0.504791 -2.1788e-21)
(0.977427 0.450103 1.43249e-21)
(0.982353 0.40161 1.83635e-21)
(0.992288 0.360413 -1.14211e-21)
(0.308198 0.291841 -5.28932e-22)
(0.65081 0.603167 -1.42388e-20)
(0.824157 0.703821 9.92198e-21)
(0.894113 0.688484 -6.93875e-21)
(0.919108 0.62878 -3.41559e-22)
(0.930751 0.562201 2.67955e-21)
(0.93996 0.500699 6.7669e-21)
(0.948387 0.445835 -6.52213e-21)
(0.957761 0.39643 -1.30059e-20)
(0.972747 0.355312 6.88918e-21)
(0.293077 0.298305 1.95352e-21)
(0.615528 0.608205 -5.5469e-22)
(0.780499 0.703408 5.86366e-22)
(0.849784 0.684116 -1.23905e-21)
(0.877997 0.622759 -4.03395e-21)
(0.893998 0.555808 -1.14267e-20)
(0.907293 0.494405 -3.0384e-21)
(0.919518 0.439657 -2.19803e-21)
(0.933791 0.389183 2.05698e-20)
(0.950651 0.344087 -3.42502e-21)
(0.276568 0.302556 -7.16575e-21)
(0.578671 0.609181 -5.44355e-21)
(0.735899 0.698826 2.49567e-21)
(0.805118 0.676121 1.48285e-21)
(0.836883 0.613683 -6.46922e-21)
(0.857354 0.546824 2.46758e-20)
(0.874826 0.485879 -1.89678e-20)
(0.891053 0.431668 2.30469e-20)
(0.90922 0.381968 -1.60496e-20)
(0.925684 0.338421 -2.21402e-20)
(0.25892 0.304493 2.27493e-21)
(0.54067 0.606032 -3.16154e-21)
(0.690779 0.690063 1.42771e-21)
(0.760457 0.664501 9.74967e-21)
(0.796034 0.601552 -5.28538e-21)
(0.82105 0.535233 7.83764e-21)
(0.842773 0.47507 1.08194e-20)
(0.863024 0.421555 -5.74141e-21)
(0.88456 0.372392 -1.70868e-20)
(0.902022 0.329074 2.31387e-20)
(0.240388 0.304046 6.84018e-21)
(0.501954 0.598733 8.49886e-21)
(0.645552 0.67714 -9.46617e-21)
(0.716138 0.649279 -8.04003e-21)
(0.755713 0.586387 3.38889e-20)
(0.785305 0.521056 -3.50181e-20)
(0.811279 0.462038 4.32891e-20)
(0.835421 0.409585 -1.06234e-20)
(0.859991 0.361558 1.14776e-20)
(0.879149 0.319474 2.23532e-20)
(0.221234 0.301172 -1.8425e-21)
(0.462948 0.587297 -9.46503e-21)
(0.600622 0.660108 -7.65897e-21)
(0.67249 0.630508 -3.5574e-21)
(0.716185 0.568227 5.5911e-21)
(0.750341 0.504321 -1.01476e-20)
(0.78052 0.446788 -1.28298e-20)
(0.808416 0.395681 -2.93679e-20)
(0.835894 0.349035 2.93585e-20)
(0.857191 0.308389 -9.11404e-21)
(0.201721 0.295856 2.20005e-20)
(0.42407 0.571772 -3.26337e-21)
(0.556383 0.639046 -1.08344e-20)
(0.629833 0.608262 1.31022e-20)
(0.677706 0.547134 -2.31082e-20)
(0.716368 0.48508 6.40537e-20)
(0.750659 0.429378 -3.433e-20)
(0.782176 0.379936 3.12471e-20)
(0.812494 0.334988 -5.71812e-20)
(0.836158 0.295968 -1.52865e-20)
(0.182109 0.288111 -5.77349e-21)
(0.385727 0.552245 2.34552e-20)
(0.513213 0.614066 5.13677e-21)
(0.588477 0.582641 -1.25165e-20)
(0.640526 0.523188 -2.17855e-20)
(0.683592 0.463398 -2.58353e-22)
(0.72187 0.409862 1.14399e-20)
(0.756867 0.362384 -2.85324e-20)
(0.789951 0.319391 1.37508e-20)
(0.816085 0.282141 1.77675e-21)
(0.162656 0.277978 -3.99832e-20)
(0.348312 0.528835 -9.63206e-21)
(0.471475 0.585303 -2.85318e-21)
(0.548719 0.553767 3.32014e-20)
(0.604886 0.496491 -3.11717e-20)
(0.652212 0.439361 -7.80826e-21)
(0.694324 0.388315 -4.95322e-21)
(0.732649 0.34309 8.89334e-21)
(0.768404 0.302289 -1.15978e-20)
(0.797036 0.266946 -1.79454e-20)
(0.143612 0.265523 3.64557e-20)
(0.312203 0.501693 -2.0921e-20)
(0.431517 0.552925 8.45844e-22)
(0.51084 0.521785 -5.07969e-20)
(0.571014 0.467163 5.52456e-20)
(0.62242 0.413069 -1.74575e-20)
(0.668184 0.364824 1.04348e-20)
(0.70967 0.322124 9.11368e-21)
(0.747978 0.283728 2.63968e-20)
(0.779081 0.250432 -1.10376e-20)
(0.125216 0.250836 -1.47307e-20)
(0.277755 0.471003 4.36574e-20)
(0.393665 0.517121 2.47004e-20)
(0.47511 0.486862 4.08206e-20)
(0.53913 0.435342 -9.31824e-21)
(0.5944 0.384639 3.82832e-21)
(0.64361 0.339489 3.06209e-20)
(0.688069 0.299567 6.92556e-21)
(0.728786 0.263774 6.72235e-22)
(0.762296 0.23267 -1.3281e-20)
(0.107699 0.234031 -3.51324e-20)
(0.245304 0.436975 -2.48457e-21)
(0.358224 0.478107 -1.46844e-20)
(0.441777 0.449183 -6.62474e-20)
(0.509437 0.401184 -6.40876e-20)
(0.568323 0.354204 1.06428e-20)
(0.620748 0.312424 -2.62795e-20)
(0.667972 0.275516 1.69297e-20)
(0.710938 0.242506 9.16063e-21)
(0.746753 0.213742 1.8875e-20)
(0.0912747 0.215244 5.23441e-20)
(0.215161 0.399849 -4.28435e-20)
(0.325477 0.436122 -2.18329e-20)
(0.411073 0.408953 3.83799e-20)
(0.482126 0.364862 4.38604e-20)
(0.544352 0.32191 -1.46706e-20)
(0.599737 0.283755 -1.96823e-21)
(0.649501 0.250076 -5.25219e-20)
(0.694536 0.220016 -2.96553e-20)
(0.732525 0.193738 1.13349e-20)
(0.0761414 0.19463 -2.98902e-20)
(0.187612 0.359887 1.25656e-20)
(0.295682 0.391422 4.64429e-20)
(0.383211 0.366395 -2.10191e-20)
(0.457372 0.326562 1.75356e-21)
(0.522633 0.287917 5.89948e-20)
(0.580704 0.253617 2.63844e-21)
(0.632766 0.223363 5.05873e-20)
(0.679675 0.196405 2.10542e-20)
(0.719678 0.172759 -3.34824e-20)
(0.0624801 0.172365 4.18948e-20)
(0.162914 0.317375 4.7252e-21)
(0.269071 0.344287 3.08819e-21)
(0.358381 0.321747 4.25929e-20)
(0.435333 0.286485 -5.60924e-21)
(0.503301 0.252397 -3.71113e-20)
(0.563764 0.222161 1.81646e-20)
(0.617866 0.195506 -2.90749e-20)
(0.666442 0.171786 -1.20953e-20)
(0.708274 0.150909 1.22139e-20)
(0.0504519 0.148638 -2.6103e-20)
(0.141295 0.272616 -5.03158e-20)
(0.245852 0.29501 1.16865e-20)
(0.336752 0.275261 -2.28302e-20)
(0.416148 0.244845 -1.37088e-20)
(0.486475 0.215532 3.33436e-20)
(0.549018 0.189542 -8.06079e-21)
(0.604892 0.166639 7.37002e-21)
(0.654916 0.146277 -9.00786e-21)
(0.698367 0.128297 1.79428e-20)
(0.0401968 0.123654 9.54875e-21)
(0.122952 0.225934 3.39997e-20)
(0.2262 0.243901 -4.73149e-20)
(0.318472 0.227201 2.23022e-20)
(0.39994 0.201866 -1.01748e-20)
(0.472258 0.177514 -2.86096e-20)
(0.536557 0.155926 2.33844e-20)
(0.593922 0.136905 4.86284e-21)
(0.645166 0.120005 -7.51212e-22)
(0.690004 0.105035 -2.0854e-20)
(0.031833 0.0976315 3.15187e-21)
(0.108051 0.177666 1.10368e-20)
(0.210266 0.19128 4.29298e-20)
(0.303662 0.177844 -8.2541e-21)
(0.38681 0.15778 -6.50369e-21)
(0.460737 0.138544 2.38733e-21)
(0.526454 0.121486 1.11432e-21)
(0.585022 0.106454 8.73361e-21)
(0.637251 0.0931013 -1.14874e-20)
(0.683227 0.0812392 -7.29606e-21)
(0.0254552 0.070797 -7.84588e-21)
(0.0967243 0.12816 -1.34282e-20)
(0.198167 0.137481 -3.34969e-20)
(0.292421 0.127473 1.68591e-20)
(0.37684 0.11283 1.37268e-20)
(0.451982 0.0988278 5.8511e-22)
(0.518771 0.0864006 -2.29244e-20)
(0.578247 0.0754399 -1.01971e-20)
(0.631219 0.0657001 8.04603e-21)
(0.678066 0.057024 8.62738e-21)
(0.0211342 0.0433857 1.37223e-21)
(0.0890703 0.0777757 -2.8311e-21)
(0.189994 0.0828428 6.3543e-21)
(0.284823 0.0763792 -4.29876e-21)
(0.370091 0.067262 -3.81139e-21)
(0.446045 0.0585777 -2.58057e-21)
(0.513552 0.0508516 4.72978e-21)
(0.573636 0.0440208 1.80202e-20)
(0.627105 0.0379407 2.60202e-21)
(0.674546 0.0325065 -4.61022e-21)
(0.280914 0.0248574 -3.66516e-21)
(0.366603 0.0213261 3.48796e-21)
(0.442961 0.0180091 1.57298e-21)
(0.510827 0.0150254 -1.56582e-21)
(0.571217 0.0123592 -7.13774e-21)
(0.624933 0.00996821 2.34957e-21)
(0.672679 0.00781966 -2.19569e-21)
(1.30965 0.2024 -2.05393e-22)
(1.31903 0.190336 -2.00385e-21)
(1.32776 0.177995 -4.24558e-22)
(1.33583 0.165408 -1.18499e-21)
(1.34324 0.152603 6.82294e-21)
(1.34997 0.139602 -6.47062e-21)
(1.356 0.126417 4.07182e-21)
(1.36127 0.11305 1.68586e-20)
(1.29311 0.190518 -5.2526e-23)
(1.30206 0.179673 1.71464e-21)
(1.31048 0.16857 1.48023e-21)
(1.31837 0.157227 -7.33361e-21)
(1.32573 0.145659 2.38282e-21)
(1.33258 0.133879 -1.4739e-21)
(1.33888 0.121896 4.09242e-21)
(1.34463 0.109712 -8.01121e-21)
(1.2775 0.178607 5.51961e-22)
(1.2857 0.168875 1.25894e-21)
(1.29351 0.15891 7.1377e-22)
(1.30092 0.148727 3.6263e-21)
(1.30795 0.138336 4.82421e-21)
(1.3146 0.127744 7.02098e-21)
(1.32087 0.116952 -2.09637e-22)
(1.32674 0.105961 1.32021e-21)
(1.2632 0.167285 -1.83127e-22)
(1.27061 0.158524 -2.1666e-21)
(1.2777 0.149571 -2.00553e-21)
(1.28449 0.140434 1.46458e-21)
(1.29099 0.13112 -5.45622e-21)
(1.29721 0.121629 -1.26861e-20)
(1.30316 0.111959 5.59829e-21)
(1.30885 0.102107 6.8113e-22)
(1.25001 0.156559 2.49546e-23)
(1.2567 0.148685 1.07821e-21)
(1.26312 0.140643 2.71894e-21)
(1.26928 0.132437 1.04715e-21)
(1.2752 0.124073 -2.23518e-22)
(1.28089 0.115549 3.0875e-21)
(1.28637 0.106864 2.38952e-21)
(1.29164 0.0980108 -2.68562e-21)
(1.2377 0.14635 2.14131e-24)
(1.24375 0.139288 1.16227e-21)
(1.24955 0.132074 -1.98277e-21)
(1.25513 0.124712 -1.49214e-21)
(1.2605 0.117201 9.49728e-22)
(1.26566 0.109544 2.07992e-21)
(1.27064 0.101736 -3.62571e-21)
(1.27543 0.0937715 -1.74305e-21)
(1.22602 0.136682 1.14408e-22)
(1.23149 0.130349 -1.20842e-21)
(1.23676 0.123882 1.78928e-21)
(1.24182 0.117283 1.14189e-21)
(1.24669 0.110552 2.19702e-21)
(1.25137 0.103688 -9.04056e-22)
(1.25588 0.0966874 -5.96241e-21)
(1.26022 0.0895446 3.94458e-21)
(1.21492 0.127478 -2.70769e-22)
(1.21986 0.121813 -5.47456e-22)
(1.22463 0.116034 -5.96429e-22)
(1.22922 0.11014 -6.63022e-22)
(1.23364 0.104131 4.03924e-22)
(1.23789 0.0980037 2.47399e-21)
(1.24199 0.0917572 6.56825e-21)
(1.24593 0.0853848 1.36957e-21)
(1.20432 0.118752 1.31824e-22)
(1.20879 0.113697 -4.51297e-23)
(1.21311 0.108546 -2.44138e-22)
(1.21727 0.103297 -1.12411e-21)
(1.22128 0.0979498 -1.97064e-21)
(1.22515 0.0925021 -2.58337e-21)
(1.22888 0.0869519 -1.72467e-21)
(1.23246 0.0812934 -2.47649e-21)
(1.19421 0.110466 8.54351e-23)
(1.19825 0.105974 9.96987e-22)
(1.20215 0.1014 8.49271e-23)
(1.20592 0.096744 8.37021e-22)
(1.20956 0.0920047 5.42222e-23)
(1.21307 0.0871805 -3.69555e-21)
(1.21646 0.0822697 -2.45824e-22)
(1.21973 0.0772679 2.12388e-21)
(1.18457 0.102615 -2.05601e-22)
(1.18822 0.098635 2.65153e-22)
(1.19175 0.0945874 -2.81072e-22)
(1.19516 0.0904722 -5.44265e-22)
(1.19846 0.0862887 -8.00182e-22)
(1.20165 0.0820352 2.48597e-21)
(1.20473 0.0777104 1.19172e-21)
(1.2077 0.0733111 -1.99908e-21)
(1.17538 0.0952018 6.65268e-23)
(1.17867 0.0916852 -8.69666e-22)
(1.18186 0.088114 4.69438e-22)
(1.18495 0.0844886 3.32437e-23)
(1.18794 0.0808086 8.76899e-22)
(1.19083 0.0770728 -9.16405e-22)
(1.19363 0.0732802 1.21094e-21)
(1.19634 0.0694285 1.57512e-21)
(1.16663 0.0881794 4.30825e-23)
(1.16959 0.0850848 3.54022e-22)
(1.17247 0.0819473 -8.4684e-22)
(1.17527 0.0787675 -1.55395e-22)
(1.17798 0.0755451 -9.35729e-22)
(1.18062 0.0722793 1.00228e-21)
(1.18317 0.0689693 -3.78133e-21)
(1.18563 0.0656138 -2.27608e-21)
(1.15829 0.0815312 -1.08104e-22)
(1.16097 0.0788192 1.16368e-22)
(1.16358 0.0760742 6.99554e-22)
(1.16612 0.0732968 -3.8984e-22)
(1.16858 0.0704872 1.53062e-21)
(1.17098 0.067645 -5.39154e-22)
(1.1733 0.0647698 7.52675e-22)
(1.17556 0.0618607 1.28733e-21)
(1.15038 0.0752285 1.06017e-22)
(1.1528 0.0728616 -4.14902e-23)
(1.15517 0.0704704 -5.76453e-22)
(1.15747 0.0680555 1.29967e-21)
(1.15971 0.0656172 -7.3683e-22)
(1.1619 0.0631554 6.27071e-22)
(1.16402 0.06067 6.47113e-22)
(1.16609 0.0581606 2.57924e-22)
(1.14287 0.0692456 5.98399e-23)
(1.14507 0.0671882 9.78281e-23)
(1.14722 0.0651144 2.72917e-22)
(1.14932 0.0630242 -9.78815e-22)
(1.15136 0.0609178 -6.24762e-22)
(1.15336 0.0587955 1.1487e-22)
(1.15531 0.0566575 -5.84503e-22)
(1.1572 0.0545036 6.67261e-22)
(1.15904 0.0523336 -2.53858e-21)
(1.13575 0.0635438 -8.72867e-23)
(1.13775 0.0617659 -2.68955e-23)
(1.13972 0.0599769 -8.92741e-25)
(1.14163 0.0581773 7.02304e-22)
(1.14351 0.0563672 4.64106e-22)
(1.14534 0.0545471 -3.00133e-22)
(1.14713 0.0527174 -5.50481e-22)
(1.14887 0.0508781 1.31348e-22)
(1.15057 0.0490295 3.92939e-22)
(1.12904 0.0580947 6.62806e-23)
(1.13087 0.0565674 -1.30588e-23)
(1.13267 0.0550328 2.45068e-22)
(1.13442 0.0534918 -2.37025e-22)
(1.13614 0.0519448 -3.43873e-23)
(1.13783 0.0503924 6.18034e-22)
(1.13947 0.0488348 2.58498e-22)
(1.14108 0.0472726 -7.7559e-22)
(1.14265 0.045706 -3.49007e-22)
(1.12272 0.0528803 -6.7445e-23)
(1.1244 0.0515738 -8.39395e-23)
(1.12605 0.0502635 -4.51067e-23)
(1.12766 0.0489502 -3.66212e-23)
(1.12925 0.0476345 -3.92545e-22)
(1.1308 0.0463169 4.34836e-22)
(1.13232 0.0449979 -2.9344e-22)
(1.13381 0.0436777 -6.6801e-22)
(1.13527 0.042357 9.54062e-22)
(1.1168 0.0478643 -3.40622e-23)
(1.11834 0.0467536 8.89393e-23)
(1.11986 0.0456416 -2.43132e-23)
(1.12135 0.044529 -1.01855e-22)
(1.12281 0.0434165 1.22382e-22)
(1.12425 0.0423045 -2.98412e-22)
(1.12566 0.0411936 5.09897e-22)
(1.12704 0.0400841 4.58085e-22)
(1.1284 0.0389764 -6.061e-23)
(1.11127 0.0430187 5.17962e-23)
(1.11269 0.0420806 -5.7873e-23)
(1.1141 0.041143 -2.6394e-23)
(1.11548 0.0402066 -1.25463e-22)
(1.11684 0.0392719 4.86918e-23)
(1.11817 0.0383393 1.23704e-22)
(1.11948 0.0374094 -4.43047e-23)
(1.12077 0.0364825 -5.49864e-22)
(1.12203 0.035559 3.88724e-22)
(1.10614 0.0383158 3.49354e-24)
(1.10746 0.0375297 -5.70785e-23)
(1.10877 0.0367452 -6.97046e-23)
(1.11005 0.035963 4.53107e-23)
(1.11131 0.0351835 1.89985e-22)
(1.11256 0.034407 -1.80738e-22)
(1.11378 0.0336341 -3.69982e-22)
(1.11498 0.0328649 4.2854e-22)
(1.11616 0.0321 -6.21317e-22)
(1.10142 0.0337284 -3.81375e-24)
(1.10266 0.033076 -1.92886e-23)
(1.10387 0.0324259 8.4733e-23)
(1.10507 0.0317785 -2.55053e-23)
(1.10625 0.0311343 -1.75446e-22)
(1.10742 0.0304936 2.35152e-22)
(1.10856 0.0298567 -2.91481e-22)
(1.10968 0.0292238 -1.66505e-22)
(1.11079 0.0285954 5.10922e-22)
(1.09714 0.0292292 -2.07847e-23)
(1.09829 0.0286946 5.08619e-23)
(1.09944 0.0281625 5.01323e-23)
(1.10056 0.0276333 -6.34446e-23)
(1.10167 0.0271073 -7.69084e-24)
(1.10276 0.0265848 -2.21831e-22)
(1.10383 0.026066 -1.66136e-23)
(1.10489 0.0255511 2.33086e-22)
(1.10592 0.0250404 -3.67803e-22)
(1.09331 0.0247908 5.68203e-26)
(1.0944 0.0243603 9.09291e-24)
(1.09548 0.0239324 7.40218e-25)
(1.09654 0.0235072 4.32675e-23)
(1.09758 0.023085 2.27459e-22)
(1.09861 0.022666 -1.69689e-22)
(1.09962 0.0222503 9.92231e-23)
(1.10061 0.0218382 -1.58307e-24)
(1.10159 0.0214297 -2.50248e-22)
(1.08997 0.0203833 1.42045e-23)
(1.09101 0.0200456 -3.36886e-23)
(1.09203 0.0197101 9.31254e-24)
(1.09303 0.0193771 -8.43079e-23)
(1.09402 0.0190467 3.3187e-23)
(1.09499 0.018719 5.73204e-23)
(1.09595 0.0183941 1.35713e-22)
(1.09689 0.0180721 1.97513e-23)
(1.09781 0.0177531 -3.15519e-23)
(1.08717 0.015978 1.28197e-23)
(1.08815 0.0157242 -6.47367e-24)
(1.08913 0.0154723 -2.46234e-23)
(1.09009 0.0152225 6.69004e-23)
(1.09103 0.0149746 -1.15549e-22)
(1.09196 0.0147289 8.70085e-23)
(1.09287 0.0144854 4.97008e-23)
(1.09376 0.0142441 -1.7787e-22)
(1.09464 0.014005 -1.12771e-22)
(1.08495 0.0115285 1.47675e-24)
(1.0859 0.0113515 -3.15579e-23)
(1.08684 0.0111759 1.07112e-23)
(1.08776 0.0110018 -8.6805e-23)
(1.08866 0.0108292 9.22161e-23)
(1.08955 0.0106582 1.43516e-23)
(1.09043 0.0104888 5.16297e-23)
(1.09128 0.010321 -1.79328e-22)
(1.09212 0.0101547 2.98096e-22)
(1.08338 0.00702293 2.66785e-25)
(1.0843 0.00691863 7.30284e-24)
(1.08521 0.00681508 9.33006e-24)
(1.08611 0.00671228 -3.37299e-23)
(1.08698 0.00661024 6.39595e-23)
(1.08785 0.00650896 -7.33563e-23)
(1.08869 0.00640843 8.44166e-23)
(1.08953 0.00630864 -3.32064e-23)
(1.09034 0.00620959 -7.53464e-23)
(1.08254 0.00233823 6.70983e-25)
(1.08345 0.00230646 -2.16852e-23)
(1.08434 0.0022752 4.64464e-23)
(1.08522 0.00224435 4.70969e-23)
(1.08608 0.00221385 -2.86677e-23)
(1.08692 0.00218361 4.85812e-23)
(1.08775 0.00215356 -5.12917e-23)
(1.08857 0.00212364 -1.44649e-23)
(1.08936 0.00209379 -2.85261e-23)
(0.992686 0.325825 1.10135e-21)
(1.01316 0.324338 -7.29379e-22)
(1.03161 0.323703 1.42629e-21)
(1.05019 0.322838 -1.73932e-22)
(1.0695 0.32137 -1.00789e-22)
(1.08865 0.319329 2.66404e-22)
(1.10729 0.31664 -1.64573e-21)
(1.12548 0.313188 -1.93172e-21)
(1.14325 0.308926 3.42392e-22)
(1.16053 0.30386 -6.21166e-21)
(1.17727 0.298007 -4.16977e-21)
(1.19343 0.291393 3.89856e-21)
(1.20899 0.284062 -8.35918e-21)
(1.2239 0.276028 -2.06008e-21)
(1.2383 0.267288 3.85899e-21)
(1.25226 0.257615 -5.00698e-21)
(1.26537 0.247332 7.81593e-22)
(1.27753 0.23664 3.83612e-22)
(1.28891 0.225578 1.85064e-21)
(1.29961 0.214157 3.05907e-22)
(1.00589 0.308118 -1.97525e-21)
(1.02611 0.306423 9.58917e-22)
(1.0442 0.30561 -1.34372e-21)
(1.06067 0.304731 3.78465e-22)
(1.07758 0.3031 2.41057e-23)
(1.09462 0.300735 -4.2256e-22)
(1.11117 0.297714 1.11058e-21)
(1.12723 0.293989 4.8802e-21)
(1.14294 0.28953 -5.71302e-21)
(1.15827 0.284364 3.83743e-21)
(1.17315 0.278535 -9.21733e-22)
(1.18757 0.272078 -4.36787e-21)
(1.20149 0.265032 3.32784e-21)
(1.21492 0.257401 -2.16456e-21)
(1.2276 0.249255 5.63623e-22)
(1.23977 0.240397 -1.27233e-21)
(1.25166 0.231043 5.30072e-21)
(1.26294 0.221354 -9.94812e-22)
(1.27357 0.21137 -1.55938e-21)
(1.28361 0.201089 2.10143e-23)
(1.01926 0.289035 -9.16422e-22)
(1.03811 0.28801 -1.2711e-21)
(1.05558 0.287034 3.99471e-22)
(1.07056 0.285831 -3.94212e-22)
(1.08547 0.283897 5.7397e-22)
(1.10072 0.281186 6.66274e-23)
(1.11563 0.277857 1.67421e-21)
(1.13001 0.273954 4.16812e-21)
(1.14398 0.269453 7.78821e-21)
(1.1576 0.264366 -3.63078e-22)
(1.1708 0.258728 6.06642e-21)
(1.18355 0.252571 -9.22165e-22)
(1.19582 0.245907 -8.63361e-22)
(1.20762 0.238766 3.38001e-22)
(1.21885 0.231135 -5.19091e-21)
(1.22966 0.223186 -3.19305e-21)
(1.24024 0.21488 -2.29196e-21)
(1.25031 0.206238 -5.6405e-22)
(1.25984 0.197301 -1.238e-21)
(1.26888 0.188087 -5.83734e-22)
(1.03168 0.271667 -1.29719e-21)
(1.04885 0.270751 1.23877e-21)
(1.06518 0.269397 2.223e-22)
(1.07883 0.267696 -3.74137e-23)
(1.09197 0.265428 4.87465e-22)
(1.10549 0.262499 -1.81394e-21)
(1.11888 0.25902 -1.4707e-21)
(1.13176 0.25507 -7.23701e-21)
(1.14421 0.250646 -2.32425e-21)
(1.15632 0.245741 6.5992e-21)
(1.16806 0.240378 -3.26053e-21)
(1.1794 0.234591 5.34094e-21)
(1.19031 0.228397 -3.78464e-22)
(1.20079 0.221843 -3.09581e-21)
(1.21078 0.214931 7.99125e-21)
(1.22039 0.207787 3.32373e-21)
(1.22978 0.200225 -9.42716e-22)
(1.23879 0.192329 1.26116e-21)
(1.24733 0.184193 1.97111e-21)
(1.25546 0.175844 2.24337e-22)
(1.04293 0.25503 2.01131e-21)
(1.05839 0.253864 -7.93887e-22)
(1.07333 0.252111 1.6635e-22)
(1.08574 0.249992 5.03491e-22)
(1.09737 0.247469 -5.02599e-22)
(1.10931 0.244435 7.77585e-22)
(1.12124 0.240929 -1.17209e-21)
(1.13276 0.237026 3.73197e-21)
(1.14384 0.232744 -5.47584e-21)
(1.15459 0.228074 -7.8164e-21)
(1.16502 0.223029 -1.41172e-22)
(1.17511 0.217635 -2.20156e-21)
(1.18484 0.211912 1.16881e-21)
(1.19419 0.205895 -1.25913e-21)
(1.2032 0.19959 -2.36214e-21)
(1.21174 0.193065 1.18291e-22)
(1.21995 0.186225 -6.69149e-22)
(1.22798 0.179107 -2.16924e-21)
(1.23568 0.171774 -7.68373e-22)
(1.24302 0.164256 -9.1077e-23)
(1.05297 0.238655 -1.54756e-22)
(1.06673 0.237234 1.81952e-22)
(1.08018 0.235223 -1.56991e-23)
(1.09138 0.232856 -1.06901e-21)
(1.10169 0.23019 3.52553e-23)
(1.11221 0.227141 -6.25751e-22)
(1.12279 0.223695 2.99412e-21)
(1.13305 0.219907 2.30671e-21)
(1.14289 0.215808 4.69693e-21)
(1.15242 0.211398 2.6225e-21)
(1.16168 0.206682 1.82987e-21)
(1.17064 0.201677 -1.22878e-22)
(1.17929 0.196404 6.51025e-22)
(1.18761 0.190875 2.51202e-21)
(1.19563 0.185108 -2.00634e-21)
(1.20328 0.179098 -5.68881e-22)
(1.21065 0.17292 1.49342e-21)
(1.21784 0.166554 1.67439e-21)
(1.22477 0.159993 -1.18385e-21)
(1.23138 0.153254 4.46732e-23)
(1.06175 0.222617 -6.54092e-22)
(1.07392 0.221016 -1.28893e-22)
(1.08583 0.21887 -6.44202e-23)
(1.09585 0.216382 -6.24457e-22)
(1.10501 0.213659 1.74586e-21)
(1.11425 0.210647 3.61903e-21)
(1.12359 0.207313 2.41228e-21)
(1.13269 0.203686 -6.46418e-21)
(1.14142 0.1998 -1.74041e-21)
(1.14986 0.195665 -2.22477e-22)
(1.15806 0.191283 5.55333e-22)
(1.16601 0.186666 -1.12938e-21)
(1.17369 0.181829 -1.746e-21)
(1.1811 0.176784 3.45045e-21)
(1.18824 0.171546 7.18319e-22)
(1.19508 0.166122 -1.38976e-21)
(1.2017 0.16054 -1.27215e-21)
(1.20815 0.154817 5.45444e-22)
(1.21437 0.148927 1.24063e-21)
(1.22032 0.142878 -1.64913e-22)
(1.06924 0.207075 2.69883e-22)
(1.07995 0.205349 -6.03622e-23)