/*--------------------------------*- C++ -*----------------------------------*\
  =========                 |
  \\      /  F ield         | OpenFOAM: The Open Source CFD Toolbox
   \\    /   O peration     | Website:  https://openfoam.org
    \\  /    A nd           | Version:  7
     \\/     M anipulation  |
\*---------------------------------------------------------------------------*/
FoamFile
{
    version     2.0;
    format      ascii;
    class       volVectorField;
    location    "80";
    object      U;
}
// * * * * * * * * * * * * * * * * * * * * * * * * * * * * * * * * * * * * * //

dimensions      [0 1 -1 0 0 0 0];

internalField   nonuniform List<vector> 
2125
(
(1.30096 -0.216012 -7.38252e-21)
(1.26144 -0.203475 -2.12231e-20)
(1.29394 -0.205387 -3.60237e-21)
(1.14245 -0.168045 1.47253e-20)
(1.23477 -0.189237 -1.6856e-21)
(1.28164 -0.193976 1.80322e-20)
(0.705176 -0.0755461 4.09077e-20)
(0.916071 -0.115057 -8.56336e-20)
(1.08465 -0.14886 1.74616e-20)
(1.19864 -0.173909 -1.35735e-20)
(1.26238 -0.181507 -1.90377e-20)
(0.404576 -0.0316632 8.44581e-21)
(0.615598 -0.0598528 -6.91513e-20)
(0.83003 -0.0955036 4.69296e-20)
(1.01525 -0.129165 -3.65569e-20)
(1.15145 -0.157468 3.63596e-20)
(1.23413 -0.167713 -1.62164e-21)
(0.17573 -0.015471 -3.12289e-22)
(0.331837 -0.0261641 2.82178e-20)
(0.526395 -0.0472486 1.52973e-21)
(0.737597 -0.0776457 -3.77128e-20)
(0.934487 -0.109407 -1.07422e-21)
(1.09189 -0.140048 -1.58586e-20)
(1.19457 -0.152367 1.87258e-20)
(0.0408408 -0.0165344 5.34842e-21)
(0.13136 -0.0176004 1.50103e-20)
(0.265586 -0.0235436 -2.53629e-20)
(0.440353 -0.0379773 5.93662e-20)
(0.641709 -0.062219 -2.91818e-22)
(0.843629 -0.0902346 -4.95286e-21)
(1.0193 -0.122005 -3.08177e-20)
(1.14128 -0.135405 -4.27752e-21)
(0.0198753 -0.0212616 4.16041e-21)
(0.0933477 -0.0210063 -1.08223e-20)
(0.206656 -0.0233453 -1.25415e-20)
(0.359893 -0.0320009 -8.12264e-21)
(0.545841 -0.0498302 -5.89204e-21)
(0.745179 -0.0724501 7.32624e-21)
(0.934167 -0.103975 2.96553e-20)
(1.07222 -0.116967 2.19623e-20)
(-0.0229708 -0.0233736 2.29876e-20)
(0.00292681 -0.0261035 -5.28836e-20)
(0.0613982 -0.0252593 2.94626e-20)
(0.15538 -0.0250444 2.55825e-20)
(0.286805 -0.0290101 -6.43303e-20)
(0.453484 -0.0407819 1.7355e-20)
(0.642709 -0.0568931 -9.54453e-22)
(0.838537 -0.0867973 1.24737e-20)
(0.985803 -0.0978286 -2.45384e-20)
(-0.0181751 -0.0144122 6.48184e-20)
(-0.0276716 -0.026891 -1.78859e-20)
(-0.0104509 -0.0308391 2.59608e-20)
(0.0350558 -0.0299705 1.62526e-20)
(0.111669 -0.0280999 -8.9279e-21)
(0.222142 -0.0284921 2.06952e-20)
(0.367589 -0.0349703 -8.57646e-21)
(0.540389 -0.0443074 4.80241e-20)
(0.73587 -0.07134 -7.6275e-20)
(0.883396 -0.0791549 -2.61189e-20)
(-0.0180413 -0.0153913 -1.90838e-20)
(-0.0308256 -0.0300042 7.13567e-20)
(-0.0207161 -0.0352861 -5.60648e-20)
(0.0137627 -0.034797 -1.64219e-21)
(0.0751146 -0.0319903 -2.577e-20)
(0.166265 -0.0298189 2.79392e-20)
(0.29017 -0.0319223 3.01167e-20)
(0.442275 -0.0352141 -1.48962e-20)
(0.631128 -0.0578425 1.26093e-20)
(0.763846 -0.0644516 1.52356e-20)
(-0.017605 -0.0161782 3.86991e-21)
(-0.0326939 -0.0326688 -1.9645e-20)
(-0.0283175 -0.0392965 2.42959e-20)
(-0.00308836 -0.0394441 -2.27513e-20)
(0.045101 -0.0362381 -2.76129e-20)
(0.118983 -0.032331 -1.22764e-20)
(0.22222 -0.0309409 -4.55275e-20)
(0.351978 -0.0296559 2.78997e-20)
(0.527402 -0.0441494 5.01445e-20)
(0.63717 -0.0661239 -1.54811e-20)
(-0.016932 -0.0167742 1.2035e-20)
(-0.0335126 -0.0348574 9.24294e-21)
(-0.0336774 -0.0427536 -2.18798e-21)
(-0.0161092 -0.0436685 -3.94e-20)
(0.0209004 -0.0404301 4.08039e-20)
(0.0797192 -0.0354101 4.54121e-20)
(0.163941 -0.0312952 1.54885e-20)
(0.272147 -0.0268423 -2.47441e-21)
(0.422751 -0.0279381 -5.28229e-20)
(0.544047 -0.0647549 1.69481e-20)
(-0.0160828 -0.0171788 -3.6303e-20)
(-0.033489 -0.036548 -4.6498e-21)
(-0.0371761 -0.0455707 9.70733e-21)
(-0.0258838 -0.0472809 3.06816e-21)
(0.00175075 -0.044234 1.23113e-20)
(0.0476796 -0.0385424 -7.29091e-20)
(0.115033 -0.0323576 4.32591e-20)
(0.203836 -0.0255027 -5.11343e-20)
(0.326942 -0.0160544 3.67302e-20)
(0.458277 -0.0495181 4.30528e-20)
(-0.0151059 -0.0173979 1.60003e-20)
(-0.0327925 -0.0377266 -1.02382e-20)
(-0.0391523 -0.0476886 4.5511e-21)
(-0.0329486 -0.0501457 -2.13516e-20)
(-0.0130908 -0.047408 2.81728e-21)
(0.0219816 -0.0413549 -5.57372e-21)
(0.0748379 -0.0336905 -2.70636e-20)
(0.146691 -0.0248628 1.41787e-20)
(0.244503 -0.00982966 2.70151e-20)
(0.373267 -0.033125 -3.93129e-20)
(-0.0140355 -0.0174319 -2.19962e-20)
(-0.0315685 -0.038387 -3.22633e-20)
(-0.0399036 -0.0490752 2.53064e-20)
(-0.0377825 -0.0521796 2.44399e-20)
(-0.0243164 -0.0497975 -5.98225e-20)
(0.00172825 -0.0436074 5.89706e-20)
(0.0424059 -0.0349919 -6.52514e-20)
(0.0995721 -0.024678 1.79569e-20)
(0.175849 -0.00777827 -1.89698e-20)
(0.291322 -0.0214351 -2.96106e-20)
(-0.0128999 -0.0172811 1.13005e-20)
(-0.0299424 -0.0385301 2.58373e-20)
(-0.0396845 -0.0497172 6.45768e-21)
(-0.0408055 -0.0533454 7.03204e-21)
(-0.032551 -0.0513233 -2.97923e-22)
(-0.0139351 -0.0451688 1.03221e-20)
(0.0166748 -0.0360632 2.01477e-20)
(0.0612897 -0.0248825 3.74998e-20)
(0.12007 -0.00818178 -3.66336e-20)
(0.217315 -0.0146672 1.30977e-20)
(-0.0117236 -0.0169461 -2.73547e-20)
(-0.0280209 -0.0381643 5.76775e-22)
(-0.0387132 -0.0496179 8.74672e-21)
(-0.0423834 -0.0536391 -1.55953e-20)
(-0.0383486 -0.0519642 3.05228e-20)
(-0.0257925 -0.0459904 -7.15066e-20)
(-0.00340242 -0.0367953 3.78153e-20)
(0.0307182 -0.0254038 -3.46324e-20)
(0.0756276 -0.00993585 6.58047e-20)
(0.154058 -0.0120148 1.68589e-20)
(-0.0105286 -0.0164284 1.44357e-20)
(-0.0258962 -0.037302 -2.9225e-20)
(-0.0371785 -0.0487965 -8.79659e-21)
(-0.0428333 -0.0530806 1.28977e-20)
(-0.0421986 -0.0517371 2.15542e-20)
(-0.0345545 -0.0460725 3.45856e-21)
(-0.0188202 -0.0371352 -1.27435e-20)
(0.00670278 -0.0261168 2.9071e-20)
(0.0406569 -0.0124158 -1.62813e-20)
(0.102003 -0.0124588 -1.98766e-21)
(-0.00933512 -0.01573 3.94227e-20)
(-0.0236487 -0.0359589 1.08357e-20)
(-0.0352447 -0.0472806 2.01705e-21)
(-0.0424322 -0.0517054 -2.84358e-20)
(-0.0445304 -0.0506784 2.52226e-20)
(-0.04086 -0.0454359 8.2622e-21)
(-0.0304953 -0.0370422 4.1178e-21)
(-0.0119265 -0.0268239 -9.06876e-21)
(0.0132647 -0.0151977 1.0181e-20)
(0.0601626 -0.0147217 1.69956e-20)
(-0.00816224 -0.0148543 -2.95108e-20)
(-0.0213502 -0.0341529 1.62511e-20)
(-0.0330547 -0.0451025 -1.78641e-21)
(-0.0414201 -0.0495555 4.07772e-20)
(-0.045719 -0.0488292 -4.43896e-20)
(-0.045272 -0.0441011 1.45596e-20)
(-0.0392369 -0.0364637 -9.00242e-21)
(-0.0263272 -0.0273203 -7.92213e-21)
(-0.00827193 -0.0179318 -2.38219e-20)
(0.0269622 -0.0174942 9.00998e-21)
(-0.00702814 -0.0138058 1.26885e-20)
(-0.0190644 -0.0319044 -3.216e-20)
(-0.0307326 -0.0422969 -1.80744e-20)
(-0.040003 -0.0466747 -2.82378e-20)
(-0.0460846 -0.0462301 7.53809e-21)
(-0.0482705 -0.0420815 -2.48756e-21)
(-0.0457642 -0.0353393 -2.31419e-20)
(-0.0375753 -0.0274462 -4.84782e-21)
(-0.0252781 -0.0202193 -4.20058e-22)
(0.000749082 -0.0197705 1.05453e-20)
(-0.0059502 -0.0125899 2.27578e-20)
(-0.0168487 -0.0292352 2.29249e-21)
(-0.0283856 -0.0389004 9.73046e-21)
(-0.0383549 -0.043107 4.27057e-20)
(-0.0458947 -0.0429186 4.2155e-20)
(-0.0502577 -0.0393829 -7.34905e-21)
(-0.0506869 -0.0336006 1.86494e-20)
(-0.0464707 -0.0270065 -1.18228e-20)
(-0.0386794 -0.021586 -6.94952e-21)
(-0.0201785 -0.0212094 -1.58021e-20)
(-0.00494492 -0.0112139 -2.96759e-20)
(-0.0147539 -0.0261699 2.47855e-20)
(-0.0261047 -0.0349515 1.25702e-20)
(-0.0366194 -0.0388969 -2.42339e-20)
(-0.0453649 -0.0389317 -2.73216e-20)
(-0.0515504 -0.0360129 8.71218e-21)
(-0.0544528 -0.0311952 7.74344e-22)
(-0.0535516 -0.0258451 3.70019e-20)
(-0.0494303 -0.021832 2.19996e-20)
(-0.0373689 -0.0218429 -8.87103e-21)
(-0.0040279 -0.00968638 1.6234e-20)
(-0.0128245 -0.0227359 -7.16525e-21)
(-0.0239656 -0.0304917 -2.56818e-20)
(-0.0349115 -0.0340916 1.0943e-20)
(-0.0446625 -0.0343097 -4.48883e-22)
(-0.0523881 -0.0319886 -3.56084e-20)
(-0.0573931 -0.0281002 -2.00772e-21)
(-0.0592811 -0.0238963 -3.4315e-20)
(-0.0583311 -0.0210256 -1.53029e-20)
(-0.0516816 -0.0215272 2.54061e-20)
(-0.00321366 -0.00801871 -2.01817e-20)
(-0.0110995 -0.0189649 -1.80786e-21)
(-0.0220303 -0.025567 -1.25718e-21)
(-0.0333204 -0.028743 -2.32618e-20)
(-0.0439123 -0.0290993 3.45566e-21)
(-0.0529425 -0.0273405 2.18546e-20)
(-0.0597394 -0.0243216 -1.13976e-20)
(-0.0639876 -0.0211459 1.84454e-20)
(-0.0658087 -0.0192058 8.25492e-21)
(-0.0635929 -0.0200833 -9.17041e-21)
(-0.00251555 -0.00622489 1.27028e-20)
(-0.00961197 -0.0148939 2.44818e-20)
(-0.0203478 -0.0202293 -5.51005e-21)
(-0.0319126 -0.0229094 1.13767e-20)
(-0.0432024 -0.0233566 7.50705e-21)
(-0.0533287 -0.0221149 -1.84739e-20)
(-0.0616403 -0.019894 4.56294e-21)
(-0.0678736 -0.0176246 -4.86273e-21)
(-0.0720802 -0.0164408 6.21972e-21)
(-0.0734462 -0.0175654 -1.24797e-20)
(-0.0019454 -0.00432229 -4.14267e-21)
(-0.00838936 -0.0105656 -1.59841e-20)
(-0.0189557 -0.0145373 2.23633e-20)
(-0.0307355 -0.0166567 -1.12334e-20)
(-0.0425913 -0.0171479 5.23914e-21)
(-0.0536182 -0.0163744 1.56383e-20)
(-0.0631823 -0.0148783 -1.33364e-20)
(-0.0710527 -0.013404 -3.25169e-21)
(-0.077258 -0.0128422 3.28361e-22)
(-0.0814742 -0.0141309 1.48322e-20)
(-0.00151328 -0.00233177 -1.29194e-21)
(-0.00745352 -0.00602915 -4.89016e-21)
(-0.0178816 -0.00855662 -1.98833e-20)
(-0.0298206 -0.0100589 3.90669e-21)
(-0.0421142 -0.0105496 3.21805e-21)
(-0.0538497 -0.0101965 -1.27492e-21)
(-0.0644082 -0.00935744 -3.80141e-22)
(-0.0735795 -0.00858358 -5.2424e-21)
(-0.0813916 -0.00854403 7.35503e-21)
(-0.0878159 -0.00994895 4.94859e-21)
(-0.00122706 -0.000277674 3.31505e-21)
(-0.00682054 -0.0013397 5.93405e-21)
(-0.0171438 -0.00236005 1.51259e-20)
(-0.029187 -0.0031979 -7.78765e-21)
(-0.0417895 -0.00364796 -6.69006e-21)
(-0.0540397 -0.00367126 -2.4929e-22)
(-0.0653325 -0.00343047 1.27928e-20)
(-0.075471 -0.0032808 6.07187e-21)
(-0.084492 -0.00368995 -5.17681e-21)
(-0.0925428 -0.00518099 -5.9166e-21)
(-0.00109199 0.00181257 -5.56997e-22)
(-0.00650061 0.00344204 1.21397e-21)
(-0.0167528 0.00397355 -2.85219e-21)
(-0.0288433 0.00383797 2.02919e-21)
(-0.0416229 0.00346322 1.81359e-21)
(-0.0541897 0.00310141 1.28456e-21)
(-0.065952 0.0027919 -2.58721e-21)
(-0.0767217 0.00237612 -1.04996e-20)
(-0.0865476 0.00157262 -1.61329e-21)
(-0.09568 1.96267e-05 3.14453e-21)
(-0.00111039 0.00390911 8.6594e-22)
(-0.00649787 0.00825109 -2.176e-21)
(-0.0167115 0.0103604 -1.75081e-21)
(-0.0287905 0.0109549 1.22922e-21)
(-0.0416121 0.0106839 -1.69321e-21)
(-0.0542924 0.0100144 -8.02832e-22)
(-0.0662538 0.00919106 8.42863e-22)
(-0.0773142 0.00825219 4.16029e-21)
(-0.0875339 0.00709407 -1.45794e-21)
(-0.0972199 0.00550442 1.47898e-21)
(1.13503 -0.00434671 -1.77334e-22)
(1.13664 -0.00433433 4.7138e-22)
(1.13823 -0.00432121 -4.76306e-22)
(1.13981 -0.00430713 1.54115e-22)
(1.14137 -0.00429201 3.96512e-22)
(1.14291 -0.00427544 8.59981e-24)
(1.14443 -0.00425785 -1.88434e-22)
(1.14593 -0.0042376 -3.20695e-22)
(1.14742 -0.00421837 2.14486e-22)
(1.14888 -0.00419016 -9.48749e-23)
(1.15033 -0.00417829 6.88859e-23)
(1.13609 -0.0128534 -1.33158e-22)
(1.13774 -0.0127974 -4.16345e-23)
(1.13936 -0.012741 1.01617e-22)
(1.14097 -0.0126837 2.42816e-22)
(1.14255 -0.0126259 -1.61118e-23)
(1.14412 -0.0125665 -6.32296e-23)
(1.14567 -0.0125071 -8.79352e-23)
(1.1472 -0.0124432 2.79029e-22)
(1.1487 -0.012386 7.29607e-23)
(1.15018 -0.0123055 -7.23749e-23)
(1.15165 -0.012279 -1.23828e-22)
(1.13796 -0.0210802 -2.22793e-22)
(1.13966 -0.020991 8.96125e-24)
(1.14134 -0.0209017 1.90061e-23)
(1.143 -0.0208117 5.32284e-22)
(1.14464 -0.0207212 -7.22215e-22)
(1.14626 -0.0206289 1.85946e-22)
(1.14786 -0.0205371 2.02299e-22)
(1.14944 -0.0204382 1.18504e-22)
(1.15101 -0.0203509 -1.19908e-22)
(1.15254 -0.0202251 -6.60696e-24)
(1.15408 -0.0201896 8.22259e-24)
(1.14056 -0.0291687 2.50658e-22)
(1.14233 -0.0290441 -1.60071e-22)
(1.14409 -0.0289197 4.34809e-22)
(1.14583 -0.0287948 -1.83103e-22)
(1.14755 -0.0286697 -9.09661e-23)
(1.14925 -0.0285424 -4.90663e-22)
(1.15093 -0.0284168 1.4987e-23)
(1.15259 -0.0282818 1.69085e-23)
(1.15424 -0.0281642 1.57987e-22)
(1.15586 -0.0279936 -1.19637e-22)
(1.15749 -0.0279507 1.83492e-22)
(1.14377 -0.0371359 2.01363e-22)
(1.14564 -0.0369767 -1.5613e-22)
(1.1475 -0.0368183 -9.47268e-23)
(1.14933 -0.03666 -6.99324e-23)
(1.15116 -0.0365023 2.11714e-22)
(1.15296 -0.0363427 3.42595e-22)
(1.15474 -0.0361861 -2.36323e-24)
(1.15651 -0.0360184 2.95626e-22)
(1.15826 -0.0358746 -1.13936e-22)
(1.15998 -0.0356625 6.53074e-22)
(1.16174 -0.0356184 -3.30878e-22)
(1.14752 -0.0450578 -1.95241e-22)
(1.14951 -0.044864 2.42069e-22)
(1.15148 -0.0446718 -1.72456e-22)
(1.15343 -0.0444805 -5.71939e-22)
(1.15537 -0.0442908 5.66978e-23)
(1.15729 -0.0440996 -4.20729e-22)
(1.1592 -0.0439134 2.13466e-22)
(1.16109 -0.0437141 7.00556e-22)
(1.16297 -0.0435465 -1.19349e-22)
(1.16481 -0.0432946 -6.52854e-22)
(1.16672 -0.0432537 -2.00003e-22)
(1.15173 -0.0529596 4.99971e-23)
(1.15384 -0.0527301 -1.86713e-22)
(1.15594 -0.0525035 5.53745e-22)
(1.15803 -0.0522787 2.60719e-22)
(1.1601 -0.0520569 1.14208e-22)
(1.16216 -0.0518342 1.88192e-22)
(1.16421 -0.0516192 -5.13158e-22)
(1.16623 -0.0513891 -1.05612e-21)
(1.16826 -0.0511998 -4.51975e-22)
(1.17024 -0.0509087 4.21511e-23)
(1.17232 -0.0508756 1.17096e-22)
(1.15632 -0.0608745 3.42397e-22)
(1.15858 -0.0606076 2.63627e-22)
(1.16083 -0.0603449 3.12974e-22)
(1.16306 -0.0600854 -6.73384e-22)
(1.16528 -0.0598307 7.80867e-22)
(1.16749 -0.0595758 -2.2893e-22)
(1.16969 -0.0593319 7.90001e-22)
(1.17187 -0.0590708 -4.27374e-22)
(1.17406 -0.058861 6.95892e-22)
(1.17619 -0.0585305 9.53667e-22)
(1.17845 -0.058509 3.70544e-22)
(1.16125 -0.068816 2.659e-22)
(1.16366 -0.068509 1.9518e-23)
(1.16607 -0.0682078 -9.67826e-22)
(1.16846 -0.0679112 3.46706e-22)
(1.17084 -0.0676214 -1.69324e-22)
(1.17321 -0.0673327 -1.07881e-22)
(1.17557 -0.0670585 5.81978e-22)
(1.17792 -0.066765 -4.88369e-23)
(1.18028 -0.0665347 -6.61097e-22)
(1.18257 -0.0661631 -1.35117e-21)
(1.18504 -0.0661554 1.14409e-22)
(1.16647 -0.0767969 -4.61712e-22)
(1.16904 -0.0764455 1.50685e-22)
(1.17161 -0.0761018 1.14848e-21)
(1.17417 -0.0757644 7.26354e-22)
(1.17672 -0.0754362 -8.88607e-22)
(1.17926 -0.07511 -4.03708e-22)
(1.1818 -0.0748029 -4.5125e-22)
(1.18431 -0.0744738 2.57631e-22)
(1.18686 -0.0742215 5.03616e-22)
(1.18933 -0.0738055 7.88409e-22)
(1.192 -0.0738119 -2.73693e-22)
(1.17192 -0.0848212 9.07607e-23)
(1.17467 -0.0844195 -1.20865e-21)
(1.17741 -0.0840274 -2.80395e-23)
(1.18015 -0.0836434 -1.02019e-21)
(1.18288 -0.0832713 6.17114e-22)
(1.1856 -0.0829025 9.70483e-22)
(1.18832 -0.0825575 -1.3648e-22)
(1.19101 -0.0821878 -7.3658e-22)
(1.19374 -0.0819096 -3.71604e-22)
(1.19639 -0.0814439 4.58549e-22)
(1.19928 -0.081462 -4.14389e-22)
(1.17465 -0.0933558 5.4176e-22)
(1.17759 -0.0928853 7.48377e-22)
(1.18052 -0.0924254 5.03543e-24)
(1.18345 -0.0919772 -1.38812e-21)
(1.18637 -0.0915391 -7.64289e-22)
(1.18928 -0.0911157 -6.91673e-22)
(1.19218 -0.0906968 1.08686e-21)
(1.19509 -0.0903071 1.52795e-21)
(1.19797 -0.0898895 5.86817e-22)
(1.20089 -0.089579 7.681e-23)
(1.20372 -0.0890564 -7.26296e-22)
(1.20682 -0.0890801 1.58184e-21)
(1.18032 -0.101523 -3.45861e-22)
(1.18345 -0.100983 -1.44693e-21)
(1.18657 -0.100454 2.71127e-22)
(1.18968 -0.0999401 5.65554e-22)
(1.19279 -0.0994377 6.01574e-22)
(1.19589 -0.098953 -7.52575e-22)
(1.19898 -0.098474 -1.44126e-21)
(1.20208 -0.0980298 -3.42327e-22)
(1.20514 -0.0975543 6.70072e-22)
(1.20826 -0.0972023 1.52704e-21)
(1.21128 -0.0966129 -4.24448e-22)
(1.21459 -0.0966317 -2.15355e-21)
(1.18616 -0.109723 8.83023e-22)
(1.18948 -0.109099 2.85126e-22)
(1.1928 -0.10849 5.9061e-22)
(1.1961 -0.107897 -1.10751e-22)
(1.1994 -0.107318 -6.86562e-22)
(1.20269 -0.106759 6.40789e-23)
(1.20597 -0.106207 -1.93854e-22)
(1.20925 -0.105696 -1.29235e-21)
(1.21251 -0.10515 -2.29601e-21)
(1.21581 -0.104743 -3.05802e-21)
(1.21902 -0.104074 3.14052e-21)
(1.22255 -0.104073 9.38902e-23)
(1.19216 -0.117943 1.26266e-21)
(1.19568 -0.117221 -5.11247e-22)
(1.19919 -0.116515 -4.37944e-22)
(1.20269 -0.115827 1.24646e-22)
(1.20618 -0.115154 7.5878e-22)
(1.20967 -0.114506 1.41077e-21)
(1.21314 -0.113865 -8.74292e-22)
(1.21661 -0.11327 1.66463e-21)
(1.22004 -0.112637 -6.14532e-22)
(1.22354 -0.112159 -7.17116e-22)
(1.22693 -0.111396 -3.433e-21)
(1.23067 -0.111353 -6.79239e-22)
(1.19832 -0.126158 -1.00232e-21)
(1.20205 -0.125319 8.36696e-22)
(1.20576 -0.124498 1.51133e-21)
(1.20945 -0.123697 8.45237e-22)
(1.21314 -0.122913 -4.76334e-22)
(1.21681 -0.122156 -2.11769e-21)
(1.22046 -0.121407 3.39173e-21)
(1.22412 -0.120709 -9.63855e-22)
(1.22773 -0.119969 2.18103e-21)
(1.23141 -0.119399 -1.48784e-21)
(1.23498 -0.118524 2.27072e-21)
(1.23892 -0.118413 2.11192e-21)
(1.20465 -0.134357 -1.41731e-22)
(1.20858 -0.133379 -1.07905e-21)
(1.21249 -0.13242 -1.42816e-21)
(1.21638 -0.131483 2.78807e-22)
(1.22025 -0.130565 2.49136e-21)
(1.22411 -0.129675 -1.43754e-21)
(1.22795 -0.128795 3.08002e-22)
(1.23178 -0.127969 -4.86928e-21)
(1.23557 -0.1271 -7.6506e-22)
(1.23942 -0.126412 3.62665e-21)
(1.24317 -0.125403 3.44956e-23)
(1.24731 -0.125193 -4.1297e-21)
(1.21115 -0.1425 7.13752e-23)
(1.21529 -0.141357 4.06324e-22)
(1.21939 -0.140235 1.42625e-21)
(1.22348 -0.139136 -1.12962e-21)
(1.22754 -0.138058 -2.59129e-21)
(1.23158 -0.13701 1.30526e-21)
(1.2356 -0.135975 9.78773e-22)
(1.2396 -0.134996 7.03985e-21)
(1.24357 -0.133975 3.99527e-22)
(1.24758 -0.133139 -3.40269e-21)
(1.25151 -0.131976 5.81806e-22)
(1.25585 -0.131628 -7.64472e-22)
(1.21784 -0.150566 -2.5634e-22)
(1.22218 -0.149231 2.56101e-22)
(1.22649 -0.147918 -3.58561e-22)
(1.23076 -0.146627 1.73243e-21)
(1.23501 -0.145361 4.75785e-21)
(1.23922 -0.144122 4.90271e-21)
(1.24342 -0.142903 -7.5422e-21)
(1.24759 -0.141738 1.08901e-21)
(1.25173 -0.140541 4.05384e-21)
(1.25592 -0.139523 8.41852e-21)
(1.26002 -0.138189 -1.39287e-21)
(1.26457 -0.137654 2.14812e-21)
(1.22475 -0.158523 9.69099e-22)
(1.22929 -0.156961 6.20733e-22)
(1.2338 -0.155426 -2.23815e-21)
(1.23826 -0.153912 -1.4498e-21)
(1.2427 -0.152431 -1.8563e-21)
(1.24709 -0.150969 3.09526e-22)
(1.25147 -0.149541 4.45513e-21)
(1.2558 -0.148146 -3.86703e-21)
(1.26013 -0.146748 -2.08568e-21)
(1.26446 -0.145494 -8.73877e-21)
(1.26877 -0.143976 2.5361e-21)
(1.27348 -0.143177 9.57762e-21)
(1.2319 -0.166331 1.82932e-21)
(1.23665 -0.164505 -5.58868e-22)
(1.24136 -0.162712 1.30451e-21)
(1.246 -0.160937 7.54321e-22)
(1.25065 -0.159211 -4.97067e-21)
(1.25521 -0.157493 -9.36554e-21)
(1.25983 -0.155842 6.67352e-21)
(1.26429 -0.154177 5.6859e-22)
(1.26887 -0.152572 -3.94171e-21)
(1.27324 -0.150994 8.27406e-21)
(1.27778 -0.14928 4.3809e-21)
(1.28245 -0.148059 -2.68863e-21)
(1.23937 -0.173969 -5.88761e-22)
(1.24433 -0.171845 -1.14977e-21)
(1.24926 -0.169758 -8.41528e-22)
(1.25408 -0.16768 -1.50707e-21)
(1.25895 -0.165667 -2.99215e-21)
(1.26363 -0.163634 4.43073e-21)
(1.26851 -0.161724 -1.19458e-20)
(1.27301 -0.159716 -6.8141e-21)
(1.27793 -0.157905 3.58848e-21)
(1.2821 -0.155876 -8.32893e-21)
(1.28694 -0.153981 -8.98338e-21)
(1.29092 -0.152041 -1.17643e-20)
(1.24722 -0.181391 -3.11927e-21)
(1.2524 -0.178935 2.25418e-21)
(1.25758 -0.176526 2.22756e-21)
(1.2626 -0.174125 -1.34835e-21)
(1.26774 -0.171796 1.60574e-21)
(1.27248 -0.169398 5.85665e-21)
(1.27761 -0.167164 1.7219e-20)
(1.28184 -0.164674 1.44643e-20)
(1.28704 -0.162577 -9.49952e-21)
(1.29034 -0.159838 6.86935e-21)
(1.29546 -0.157759 1.26624e-21)
(1.29735 -0.154586 8.3981e-21)
(1.25554 -0.188548 1.14748e-21)
(1.26094 -0.185707 -5.1078e-21)
(1.26634 -0.182916 -8.58477e-21)
(1.27153 -0.180144 -5.81816e-21)
(1.27688 -0.17745 1.58419e-20)
(1.28161 -0.174661 -7.10056e-21)
(1.28691 -0.172048 -1.36448e-20)
(1.29047 -0.168975 -8.37368e-21)
(1.29567 -0.166447 3.67829e-21)
(1.29677 -0.162603 1.85195e-21)
(1.30175 -0.160184 -7.79992e-21)
(1.29883 -0.154911 -7.51052e-21)
(1.26449 -0.195422 2.99899e-22)
(1.27007 -0.192121 1.08276e-21)
(1.27557 -0.188845 5.2676e-21)
(1.28072 -0.185578 -1.68014e-22)
(1.28594 -0.182348 -5.62022e-21)
(1.29024 -0.179022 -9.3932e-21)
(1.2952 -0.175828 2.37855e-21)
(1.2974 -0.172069 -1.4926e-22)
(1.302 -0.168895 9.08444e-21)
(1.29915 -0.163651 3.31183e-21)
(1.3031 -0.160593 9.76238e-21)
(1.29093 -0.152122 5.95446e-22)
(1.27399 -0.201911 3.42169e-21)
(1.27962 -0.198075 2.084e-22)
(1.285 -0.194224 1.42309e-20)
(1.28983 -0.190343 1.16596e-20)
(1.29439 -0.186377 -1.03622e-20)
(1.29754 -0.182261 4.3053e-21)
(1.30089 -0.178038 -3.65266e-21)
(1.30029 -0.173225 3.38919e-21)
(1.30233 -0.168729 -4.8134e-21)
(1.29309 -0.16179 4.64994e-21)
(1.29412 -0.157469 -1.14111e-20)
(1.26689 -0.144954 1.3766e-20)
(1.28356 -0.207695 -6.96688e-21)
(1.28886 -0.203195 5.17371e-21)
(1.29365 -0.198664 -1.2042e-20)
(1.29763 -0.194073 5.16374e-21)
(1.30078 -0.18928 1.94029e-20)
(1.30199 -0.184238 4.93723e-21)
(1.30216 -0.178675 8.44949e-21)
(1.29706 -0.172423 -3.03816e-21)
(1.29297 -0.165589 5.42471e-22)
(1.27376 -0.156462 -8.39234e-21)
(1.26718 -0.14929 1.51514e-20)
(1.21818 -0.132555 -7.90334e-21)
(1.29235 -0.212394 1.96383e-21)
(1.29663 -0.206985 -9.61939e-21)
(1.29996 -0.201512 6.68729e-22)
(1.30198 -0.195922 -1.73553e-20)
(1.30231 -0.190042 -1.12819e-20)
(1.29994 -0.183795 -6.20104e-21)
(1.29471 -0.17672 -5.06146e-23)
(1.28308 -0.168848 -5.17273e-21)
(1.26879 -0.159325 1.62599e-20)
(1.23676 -0.148099 5.04377e-21)
(1.21517 -0.136375 -1.08064e-20)
(1.13847 -0.116933 -4.03521e-21)
(1.29933 -0.215853 6.34683e-21)
(1.30172 -0.209209 1.87685e-21)
(1.30238 -0.202358 -7.31064e-21)
(1.30071 -0.195186 1.2982e-20)
(1.29589 -0.187509 -1.421e-20)
(1.28676 -0.179179 -4.80269e-21)
(1.27213 -0.169822 2.84964e-21)
(1.24954 -0.159513 -1.96186e-21)
(1.21953 -0.147293 -2.11836e-20)
(1.17227 -0.134411 -2.04015e-20)
(1.12828 -0.118765 7.16098e-21)
(1.02454 -0.101696 -7.35683e-21)
(1.30313 -0.217652 -1.99981e-21)
(1.30247 -0.209449 -8.92134e-22)
(1.29886 -0.200785 3.93999e-21)
(1.29125 -0.191463 -8.07314e-21)
(1.27831 -0.181251 2.05108e-20)
(1.25836 -0.16992 1.58205e-20)
(1.22944 -0.15724 -1.02738e-20)
(1.18945 -0.143217 1.19809e-20)
(1.13682 -0.127659 1.25475e-20)
(1.06829 -0.112032 5.55043e-21)
(0.993518 -0.0947028 2.25892e-21)
(0.872723 -0.0856829 1.98797e-20)
(1.15394 -0.0040229 0)
(1.15949 -0.00373217 0)
(1.16495 -0.00340732 0)
(1.17005 -0.00304154 0)
(1.17489 -0.0026477 0)
(1.17909 -0.00221605 0)
(1.18287 -0.00175682 0)
(1.18567 -0.0012702 0)
(1.18794 -0.000761615 0)
(1.1888 -0.000259762 0)
(1.18917 0.000247791 0)
(1.18764 0.000677111 0)
(1.18608 0.00108716 0)
(1.18207 0.00130063 0)
(1.17941 0.00147362 0)
(1.17364 0.00130626 0)
(1.17197 0.00113413 0)
(1.16618 0.000567764 0)
(1.16848 0.000142858 0)
(1.16446 -0.000413184 0)
(1.17182 -0.000628278 0)
(1.16847 -0.000301684 0)
(1.17537 0.000313447 0)
(1.16594 0.00195354 0)
(1.16034 0.00254577 0)
(1.14256 0.00395949 0)
(1.1234 0.00258264 0)
(1.11655 0.0028434 0)
(1.09245 -0.000778383 0)
(1.12598 -0.00298149 0)
(1.15532 -0.0118315 0)
(1.16095 -0.0109806 0)
(1.16647 -0.0100264 0)
(1.17161 -0.00895056 0)
(1.17649 -0.00779055 0)
(1.18072 -0.00651635 0)
(1.18451 -0.00515884 0)
(1.18732 -0.00371704 0)
(1.18956 -0.00220905 0)
(1.19038 -0.000717224 0)
(1.19064 0.000792608 0)
(1.18899 0.00207489 0)
(1.18724 0.00329806 0)
(1.18303 0.00393839 0)
(1.18009 0.00445299 0)
(1.17408 0.00394438 0)
(1.17217 0.00342086 0)
(1.16623 0.00168975 0)
(1.1686 0.000403215 0)
(1.16468 -0.00131965 0)
(1.17257 -0.00197327 0)
(1.16961 -0.0010415 0)
(1.17714 0.00086842 0)
(1.16763 0.00578466 0)
(1.16185 0.00763777 0)
(1.14327 0.0118521 0)
(1.12345 0.00775428 0)
(1.11609 0.00861021 0)
(1.09068 -0.00238293 0)
(1.12614 -0.00897565 0)
(1.15788 -0.0194552 0)
(1.16366 -0.0180503 0)
(1.16929 -0.0164752 0)
(1.17453 -0.0147001 0)
(1.17947 -0.0127876 0)
(1.18377 -0.0106835 0)
(1.18758 -0.00844271 0)
(1.19041 -0.00605482 0)
(1.19259 -0.00355983 0)
(1.19334 -0.00107716 0)
(1.19341 0.00142971 0)
(1.19154 0.0035797 0)
(1.18941 0.00561561 0)
(1.18481 0.0067012 0)
(1.18135 0.00754726 0)
(1.17486 0.0066844 0)
(1.17251 0.00577241 0)
(1.16626 0.00278882 0)
(1.16875 0.000581628 0)
(1.16504 -0.00245899 0)
(1.17394 -0.00359228 0)
(1.17174 -0.00214015 0)
(1.18051 0.00124693 0)
(1.17085 0.00950555 0)
(1.16472 0.0128157 0)
(1.14458 0.0198132 0)
(1.12355 0.0130128 0)
(1.11514 0.0146685 0)
(1.08724 -0.00415628 0)
(1.12642 -0.0151416 0)
(1.16147 -0.0269264 0)
(1.16748 -0.0249661 0)
(1.17327 -0.0227718 0)
(1.17863 -0.0203008 0)
(1.18366 -0.0176423 0)
(1.18805 -0.0147118 0)
(1.1919 -0.0115945 0)
(1.19476 -0.0082563 0)
(1.19686 -0.00477473 0)
(1.19751 -0.00127942 0)
(1.19731 0.00223546 0)
(1.19513 0.00529631 0)
(1.19247 0.00815854 0)
(1.18731 0.0097325 0)
(1.18307 0.0108931 0)
(1.1759 0.00965751 0)
(1.17287 0.00827789 0)
(1.16617 0.00389457 0)
(1.1688 0.000645318 0)
(1.16541 -0.00395575 0)
(1.17579 -0.00566287 0)
(1.17476 -0.00378399 0)
(1.18537 0.00138075 0)
(1.17548 0.0131711 0)
(1.16884 0.0182503 0)
(1.14638 0.0280496 0)
(1.12372 0.0185207 0)
(1.11366 0.0212844 0)
(1.08215 -0.00622331 0)
(1.12671 -0.0216915 0)
(1.16596 -0.034301 0)
(1.17225 -0.0317783 0)
(1.17822 -0.0289603 0)
(1.18374 -0.0257918 0)
(1.18888 -0.0223883 0)
(1.19339 -0.0186297 0)
(1.1973 -0.0146355 0)
(1.20021 -0.0103339 0)
(1.20222 -0.00585485 0)
(1.20275 -0.00130915 0)
(1.20221 0.00324232 0)
(1.19965 0.00728353 0)
(1.1963 0.0110041 0)
(1.19042 0.0131362 0)
(1.18515 0.014595 0)
(1.17707 0.012971 0)
(1.17312 0.0110128 0)
(1.16584 0.00503758 0)
(1.16862 0.000567998 0)
(1.16563 -0.00591906 0)
(1.17798 -0.00835137 0)
(1.17859 -0.00615591 0)
(1.19166 0.00120981 0)
(1.18145 0.0168111 0)
(1.17413 0.0241017 0)
(1.14856 0.0366983 0)
(1.12398 0.024439 0)
(1.11152 0.0286855 0)
(1.07537 -0.00867109 0)
(1.12693 -0.0287993 0)
(1.17122 -0.0416338 0)
(1.17783 -0.0385344 0)
(1.18403 -0.0350804 0)
(1.18972 -0.0312081 0)
(1.195 -0.0270554 0)
(1.19965 -0.0224636 0)
(1.20363 -0.0175861 0)
(1.2066 -0.0123026 0)
(1.20853 -0.00680427 0)
(1.20893 -0.00115675 0)
(1.20802 0.00447587 0)
(1.205 0.00959095 0)
(1.20082 0.0142195 0)
(1.19405 0.0170073 0)
(1.1875 0.0187471 0)
(1.17829 0.0167298 0)
(1.17314 0.0140471 0)
(1.16513 0.00625904 0)
(1.16804 0.00033315 0)
(1.16554 -0.00844121 0)
(1.18035 -0.0118195 0)
(1.18316 -0.00943108 0)
(1.19936 0.00068099 0)
(1.18871 0.0204547 0)
(1.18054 0.0305226 0)
(1.151 0.0458467 0)
(1.12436 0.0309311 0)
(1.10863 0.0370544 0)
(1.06684 -0.0115658 0)
(1.12697 -0.0366098 0)
(1.17715 -0.0489412 0)
(1.18412 -0.0452484 0)
(1.19055 -0.0411435 0)
(1.19644 -0.0365621 0)
(1.20188 -0.0316552 0)
(1.20669 -0.0262281 0)
(1.21076 -0.0204595 0)
(1.21382 -0.0141761 0)
(1.21567 -0.00763321 0)
(1.21595 -0.000824305 0)
(1.21463 0.00595106 0)
(1.21109 0.0122531 0)
(1.20596 0.0178584 0)
(1.19812 0.0214267 0)
(1.19003 0.0234304 0)
(1.17945 0.021035 0)
(1.1728 0.0174453 0)
(1.16391 0.0076046 0)
(1.16689 -8.59159e-05 0)
(1.16496 -0.0115937 0)
(1.18274 -0.0162333 0)
(1.18845 -0.0137856 0)
(1.20846 -0.000263517 0)
(1.19726 0.0241301 0)
(1.18802 0.0376571 0)
(1.1536 0.0555372 0)
(1.12493 0.0381591 0)
(1.10484 0.0465352 0)
(1.05648 -0.0149591 0)
(1.12673 -0.0452459 0)
(1.18364 -0.056244 0)
(1.191 -0.051937 0)
(1.19768 -0.0471629 0)
(1.20377 -0.0418685 0)
(1.20937 -0.0362029 0)
(1.21437 -0.0299434 0)
(1.21856 -0.0232755 0)
(1.22173 -0.0159805 0)
(1.22353 -0.00835667 0)
(1.2237 -0.000341065 0)
(1.22197 0.00765785 0)
(1.21785 0.0152841 0)
(1.21166 0.0219611 0)
(1.20258 0.0264638 0)
(1.19267 0.0287181 0)
(1.18046 0.0259819 0)
(1.17197 0.02127 0)
(1.16203 0.00913273 0)
(1.16499 -0.000682098 0)
(1.16371 -0.0154337 0)
(1.18501 -0.0217675 0)
(1.19441 -0.0193841 0)
(1.219 -0.00164529 0)
(1.20711 0.0278732 0)
(1.19652 0.0456402 0)
(1.15627 0.0657743 0)
(1.12574 0.0462785 0)
(1.10002 0.0572468 0)
(1.04425 -0.0188756 0)
(1.12608 -0.0548079 0)
(1.19061 -0.0635411 0)
(1.19839 -0.0585967 0)
(1.20531 -0.0531349 0)
(1.2116 -0.0471285 0)
(1.21737 -0.0407038 0)
(1.22257 -0.0336234 0)
(1.22691 -0.0260521 0)
(1.23022 -0.0177399 0)
(1.23201 -0.00900301 0)
(1.23209 0.000293581 0)
(1.22998 0.00960117 0)
(1.22524 0.0186914 0)
(1.21788 0.0265615 0)
(1.20737 0.0321773 0)
(1.19536 0.0346777 0)
(1.18125 0.0316627 0)
(1.17055 0.0255825 0)
(1.15938 0.01091 0)
(1.16218 -0.00142708 0)
(1.16158 -0.0200047 0)
(1.18698 -0.0286006 0)
(1.20107 -0.0264056 0)
(1.23101 -0.0034857 0)
(1.21826 0.0317264 0)
(1.20596 0.0545956 0)
(1.15893 0.0765293 0)
(1.12684 0.0554328 0)
(1.09404 0.0692875 0)
(1.03016 -0.0233084 0)
(1.12482 -0.0653689 0)
(1.198 -0.0708262 0)
(1.20619 -0.0652186 0)
(1.21334 -0.0590515 0)
(1.21982 -0.0523394 0)
(1.22576 -0.045162 0)
(1.23118 -0.0372813 0)
(1.2357 -0.0288107 0)
(1.23919 -0.0194849 0)
(1.24103 -0.00960559 0)
(1.24107 0.00103944 0)
(1.23859 0.011764 0)
(1.23321 0.0224696 0)
(1.22461 0.0316869 0)
(1.21245 0.0386144 0)
(1.19807 0.0413725 0)
(1.18175 0.0381624 0)
(1.16843 0.0304416 0)
(1.15583 0.0130082 0)
(1.1583 -0.00230679 0)
(1.15837 -0.0253316 0)
(1.18849 -0.0369286 0)
(1.20843 -0.0350385 0)
(1.24456 -0.00579695 0)
(1.23076 0.0357438 0)
(1.21627 0.0646339 0)
(1.16155 0.0877505 0)
(1.12823 0.0657424 0)
(1.08683 0.0827271 0)
(1.01436 -0.0282192 0)
(1.12256 -0.0769547 0)
(1.20572 -0.07808 0)
(1.21432 -0.071781 0)
(1.22167 -0.0648949 0)
(1.22831 -0.0574906 0)
(1.23441 -0.0495761 0)
(1.24008 -0.0409273 0)
(1.2448 -0.0315706 0)
(1.24853 -0.0212525 0)
(1.25049 -0.0101998 0)
(1.25055 0.00182615 0)
(1.24778 0.0141038 0)
(1.24174 0.0265971 0)
(1.23183 0.0373573 0)
(1.21781 0.0458118 0)
(1.20077 0.0488631 0)
(1.1819 0.045556 0)
(1.16555 0.0359068 0)
(1.1513 0.0155021 0)
(1.15321 -0.00328125 0)
(1.15388 -0.0314281 0)
(1.18936 -0.0469541 0)
(1.21655 -0.0454659 0)
(1.25971 -0.00860519 0)
(1.24461 0.0399914 0)
(1.2273 0.0758452 0)
(1.16421 0.0993917 0)
(1.12972 0.0772835 0)
(1.07851 0.097579 0)
(0.997164 -0.0335024 0)
(1.11845 -0.0894969 0)
(1.21373 -0.0852745 0)
(1.22272 -0.0782542 0)
(1.23021 -0.0706411 0)
(1.23699 -0.062566 0)
(1.24324 -0.0539419 0)
(1.24916 -0.0445685 0)
(1.25412 -0.0343526 0)
(1.25815 -0.0230799 0)
(1.26029 -0.0108347 0)
(1.26048 0.00261255 0)
(1.25751 0.0165885 0)
(1.25082 0.0310482 0)
(1.23955 0.0435879 0)
(1.22343 0.0537961 0)
(1.20344 0.0572055 0)
(1.18166 0.0539079 0)
(1.16183 0.0420367 0)
(1.1457 0.0184685 0)
(1.14676 -0.00429313 0)
(1.14792 -0.0382905 0)
(1.18941 -0.0588795 0)