/*--------------------------------*- C++ -*----------------------------------*\
  =========                 |
  \\      /  F ield         | OpenFOAM: The Open Source CFD Toolbox
   \\    /   O peration     | Website:  https://openfoam.org
    \\  /    A nd           | Version:  7
     \\/     M anipulation  |
\*---------------------------------------------------------------------------*/
FoamFile
{
    version     2.0;
    format      ascii;
    class       surfaceScalarField;
    location    "260";
    object      phi;
}
// * * * * * * * * * * * * * * * * * * * * * * * * * * * * * * * * * * * * * //

dimensions      [0 3 -1 0 0 0 0];

internalField   nonuniform List<scalar> 
16735
(
-9.90851e-05
0.00230913
-0.00221004
-0.000374299
0.00520131
-0.00492609
-0.000812151
0.00689911
-0.00646126
-0.00139105
0.00765353
-0.00707463
-0.00208825
0.00776851
-0.00707132
-0.00288316
0.00749439
-0.00669947
-0.00375776
0.00694949
-0.00607489
-0.00469761
0.00610548
-0.00516563
-0.00569373
0.0048143
-0.00381817
0.002807
-0.00174436
-0.00675638
-7.66722e-05
0.0023858
-0.000307996
0.00543263
-0.000692441
0.00728356
-0.00121299
0.00817408
-0.00184532
0.00840085
-0.00256318
0.00821224
-0.00334023
0.00772654
-0.00415165
0.0069169
-0.00497751
0.00564015
0.00364472
-0.00581522
-5.11327e-05
0.00243693
-0.000230455
0.00561196
-0.000548811
0.00760191
-0.000993933
0.0086192
-0.00153963
0.00894655
-0.00215303
0.00882563
-0.00279783
0.00837134
-0.00343603
0.0075551
-0.0040332
0.00623733
0.0041724
-0.00456088
-2.32606e-05
0.00246019
-0.000143674
0.00573237
-0.000384485
0.00784272
-0.000738429
0.00897314
-0.00117758
0.00938571
-0.00166222
0.00931026
-0.00214538
0.00885451
-0.00257421
0.00798392
-0.00289845
0.00656157
0.00432331
-0.00304937
5.95077e-06
0.00245424
-5.03393e-05
0.00578866
-0.000204081
0.00799646
-0.000453109
0.00922217
-0.000768308
0.00970091
-0.00110355
0.00964551
-0.00140162
0.00915257
-0.00159416
0.00817646
-0.00161667
0.00658409
0.00405563
-0.00134899
3.52641e-05
0.00241898
4.60812e-05
0.00577784
-1.33622e-05
0.00805591
-0.000146367
0.00935518
-0.000323151
0.00987769
-0.000492164
0.00981452
-0.000587395
0.0092478
-0.000525728
0.00811479
-0.000220292
0.00627865
0.00338039
0.000454943
6.34585e-05
0.00235552
0.000141754
0.00569955
0.000180824
0.00801684
0.000171983
0.00936402
0.000144533
0.00990514
0.000154558
0.0098045
0.0002762
0.00912616
0.000599343
0.00779165
0.0012339
0.0056441
0.0022376
0.00237669
8.92692e-05
0.00226625
0.000233094
0.00555572
0.000371368
0.00787856
0.000491254
0.00924413
0.000621525
0.00977487
0.000821146
0.00960487
0.00116924
0.00877806
0.00176976
0.00719114
0.00272532
0.00468853
0.000630705
0.00433222
0.000111483
0.00215477
0.000315946
0.00535126
0.000550669
0.00764384
0.000799883
0.00899492
0.00109158
0.00948317
0.00148712
0.00920933
0.00207023
0.00819495
0.00295341
0.00630796
0.00423963
0.00340231
-0.00144783
0.00631816
0.000129038
0.00202573
0.000386662
0.00509364
0.000711363
0.00731914
0.00108639
0.00861989
0.00153944
0.00903012
0.00213424
0.00861453
0.0029589
0.00737029
0.00413389
0.00513298
0.00576371
0.00177249
-0.00401674
0.00833262
0.000141099
0.00188463
0.00044213
0.0047926
0.000846856
0.00691441
0.00134001
0.00812673
0.00195017
0.00841996
0.00274412
0.00782059
0.00381595
0.00629846
0.00529351
0.00365542
0.00729327
-0.000227263
-0.00710759
0.0103841
0.000147123
0.00173751
0.000480081
0.00445965
0.000951951
0.00644254
0.00155183
0.00752685
0.00231097
0.00766083
0.00330086
0.00683069
0.00462509
0.00497423
0.00641845
0.00186205
0.00883175
-0.00264056
-0.0107615
0.0124856
0.000146936
0.00159057
0.000499407
0.00410717
0.0010236
0.00591835
0.00171612
0.00683433
0.00261338
0.00676357
0.00379429
0.00564979
0.00537753
0.003391
0.00750524
-0.000265663
0.0103937
-0.00552907
-0.0150154
0.0146477
0.000140791
0.00144978
0.000500468
0.0037475
0.00106171
0.0053571
0.00183195
0.00606409
0.00285612
0.0057394
0.00422441
0.0042815
0.0060777
0.00153771
0.00856928
-0.00275725
0.0120082
-0.00896795
-0.0198781
0.0168709
0.000129438
0.00132034
0.000485341
0.00339159
0.00106982
0.00477262
0.00190466
0.00522925
0.00304763
0.00459643
0.00460554
0.00272358
0.00674879
-0.000605542
0.00964981
-0.00565827
0.0137127
-0.0130308
-0.0252976
0.0191321
0.000114147
0.0012062
0.000457948
0.00304779
0.00105547
0.0041751
0.00194673
0.00433799
0.00320775
0.00333541
0.00496849
0.000962845
0.00743308
-0.00307014
0.0108059
-0.00903107
0.0155341
-0.0177591
-0.0311372
0.0213737
9.66858e-05
0.00110951
0.000423969
0.00272051
0.00103012
0.00356895
0.00197763
0.00339048
0.00336707
0.00194597
0.00535849
-0.00102858
0.00818699
-0.00589864
0.0120969
-0.0129409
0.0174593
-0.0231215
-0.0371823
0.0235044
7.92223e-05
0.00103029
0.000390466
0.00240927
0.00100827
0.00295114
0.00202209
0.00237667
0.00356352
0.000404547
0.00582765
-0.00329271
0.00906854
-0.00913953
0.0135542
-0.0174266
0.0194148
-0.028982
-0.0431873
0.0254198
6.41214e-05
0.000966168
0.00036519
0.0021082
0.00100588
0.00231045
0.00210692
0.00127564
0.00383604
-0.00132458
0.00642323
-0.0058799
0.010119
-0.0128353
0.0151575
-0.0224651
0.0212802
-0.0351047
-0.0489391
0.027032
5.36607e-05
0.000912507
0.000355628
0.00180623
0.0010382
0.00162787
0.0022568
5.70412e-05
0.00421704
-0.00328482
0.00717468
-0.00883754
0.011344
-0.0170047
0.0168259
-0.0279471
0.0229287
-0.0412075
-0.0543259
0.0283156
4.97136e-05
0.000862793
0.000367991
0.00148795
0.00111755
0.000878315
0.00249014
-0.00131555
0.00472561
-0.00552029
0.00808451
-0.0121964
0.0127014
-0.0216216
0.0184421
-0.0336877
0.0243851
-0.0471505
-0.0605095
0.0305687
5.35072e-05
0.000809286
0.000406416
0.00113504
0.00125167
3.30586e-05
0.00281602
-0.00287989
0.00536347
-0.00806775
0.00912574
-0.0159587
0.0141064
-0.0266023
0.0198984
-0.0394798
0.0256747
-0.0529267
-0.0659472
0.0311124
6.55234e-05
0.000743763
0.000472564
0.000728003
0.00144282
-0.000937197
0.00323327
-0.00467034
0.00611426
-0.0109487
0.010246
-0.0200905
0.0154551
-0.0318114
0.0211262
-0.0451508
0.0264995
-0.0583
-0.0705493
0.0311016
8.5543e-05
0.00065822
0.000565741
0.000247806
0.00168813
-0.00205959
0.00373119
-0.0067134
0.00694613
-0.0141637
0.0113767
-0.0245211
0.0166555
-0.0370902
0.022047
-0.0505423
0.0268832
-0.0631362
-0.0745022
0.0308361
0.000112805
0.000545415
0.000683393
-0.000322782
0.00198072
-0.00335691
0.00429171
-0.0090244
0.00781655
-0.0176885
0.0124453
-0.0291499
0.0176363
-0.0422811
0.0226262
-0.0555322
0.0268934
-0.0674034
-0.0778491
0.0302403
0.000146257
0.000399158
0.00082185
-0.000998375
0.00231105
-0.00484611
0.00489176
-0.0116051
0.00867805
-0.0214748
0.0133869
-0.0338588
0.0183536
-0.0472478
0.0228688
-0.0600474
0.0265678
-0.0711024
-0.0806652
0.0293838
0.000184804
0.000214354
0.000976998
-0.00179057
0.00266814
-0.00653725
0.00550548
-0.0144425
0.00948385
-0.0254532
0.0141525
-0.0385274
0.0187912
-0.0518865
0.0227993
-0.0640555
0.0259657
-0.0742689
-0.0830291
0.0283297
0.000227464
-1.31096e-05
0.00114468
-0.00270779
0.00304029
-0.00843286
0.00610602
-0.0175082
0.0101928
-0.02954
0.0147118
-0.0430464
0.0189545
-0.0561291
0.022456
-0.067557
0.0251403
-0.0769532
-0.0850105
0.0271217
0.000273402
-0.000286512
0.00132084
-0.00375523
0.00341538
-0.0105274
0.00666714
-0.0207599
0.010773
-0.0336458
0.015053
-0.0473265
0.0188636
-0.0599397
0.0218816
-0.070575
0.0241404
-0.0792119
-0.0866739
0.0258037
0.000321934
-0.000608446
0.00150143
-0.00493473
0.00378098
-0.0128069
0.007165
-0.024144
0.0112032
-0.037684
0.0151789
-0.0513022
0.0185475
-0.0633083
0.0211187
-0.0731462
0.0230081
-0.0811013
-0.0880712
0.0244055
0.000372364
-0.00098081
0.00168224
-0.0062446
0.00412458
-0.0152493
0.0075797
-0.0275991
0.0114736
-0.0415779
0.0151028
-0.0549314
0.0180386
-0.0662442
0.0202061
-0.0753137
0.0217779
-0.0826731
-0.0892449
0.0229516
0.000423937
-0.00140475
0.00185879
-0.00767945
0.00443412
-0.0178246
0.00789663
-0.0310616
0.0115835
-0.0452647
0.0148446
-0.0581925
0.0173697
-0.0687693
0.0191781
-0.0771221
0.0204773
-0.0839723
-0.0902272
0.0214596
0.000475772
-0.00188052
0.00202633
-0.00923001
0.00469864
-0.0204969
0.00810704
-0.03447
0.0115401
-0.0486978
0.0144278
-0.0610801
0.0165714
-0.0709128
0.0180634
-0.0786141
0.0191278
-0.0850367
-0.0910421
0.0199426
0.000526848
-0.00240737
0.00218001
-0.0108832
0.00490908
-0.023226
0.00820791
-0.0377688
0.0113555
-0.0518454
0.0138765
-0.0636012
0.0156713
-0.0727076
0.0168855
-0.0798283
0.0177454
-0.0858967
-0.0917064
0.0184098
0.000576024
-0.00298339
0.00231511
-0.0126223
0.00505885
-0.0259697
0.00820121
-0.0409112
0.011045
-0.0546891
0.0132142
-0.0657704
0.0146933
-0.0741867
0.0156633
-0.0807984
0.0163426
-0.086576
-0.0922321
0.0168682
0.000622094
-0.00360548
0.00242733
-0.0144275
0.00514413
-0.0286865
0.00809279
-0.0438598
0.0106253
-0.0572216
0.0124627
-0.0676078
0.0136576
-0.0753817
0.0144118
-0.0815525
0.0149284
-0.0870926
-0.0926266
0.0153229
0.000663847
-0.00426933
0.00251312
-0.0162768
0.0051639
-0.0313373
0.00789119
-0.0465871
0.0101133
-0.0594437
0.0116413
-0.0691359
0.012581
-0.0763213
0.0131424
-0.082114
0.0135096
-0.0874598
-0.0928946
0.0137777
0.000700135
-0.00496947
0.00256984
-0.0181465
0.00511957
-0.033887
0.00760656
-0.0490741
0.00952521
-0.0613623
0.0107671
-0.0703778
0.0114769
-0.0770312
0.0118642
-0.0825012
0.0120914
-0.087687
-0.093039
0.0122358
0.000729925
-0.00569939
0.00259588
-0.0200124
0.00501457
-0.0363057
0.00724983
-0.0513094
0.00887606
-0.0629886
0.00985433
-0.071356
0.0103563
-0.0775332
0.0105838
-0.0827287
0.0106777
-0.0877809
-0.0930611
0.0106998
0.000752346
-0.00645174
0.00259069
-0.0218508
0.00485373
-0.0385688
0.00683197
-0.0532876
0.00817933
-0.0643359
0.00891521
-0.0720919
0.00922785
-0.0778458
0.00930664
-0.0828075
0.00927161
-0.0877459
-0.0929619
0.00917242
0.000766719
-0.00721846
0.00255471
-0.0236388
0.00464282
-0.0406569
0.00636358
-0.0550084
0.0074469
-0.0654193
0.00795973
-0.0726047
0.00809835
-0.0779844
0.0080367
-0.0827459
0.00787557
-0.0875847
-0.0927415
0.00765513
0.000772576
-0.00799103
0.0024892
-0.0253554
0.00438808
-0.0425557
0.00585455
-0.0564749
0.00668906
-0.0662538
0.00699611
-0.0729118
0.00697313
-0.0779614
0.00677706
-0.0825498
0.00649157
-0.0872993
-0.0923984
0.00614851
0.000769658
-0.00876069
0.00239609
-0.0269818
0.00409586
-0.0442555
0.00531388
-0.0576929
0.00591461
-0.0668545
0.00603105
-0.0730282
0.0058564
-0.0777868
0.00553005
-0.0822234
0.00512115
-0.0868904
-0.091931
0.00465373
0.000757911
-0.0095186
0.00227775
-0.0285017
0.00377235
-0.0457501
0.00474964
-0.0586702
0.005131
-0.0672359
0.00507004
-0.0729672
0.00475171
-0.0774684
0.00429775
-0.0817695
0.00376504
-0.0863576
-0.0913376
0.00317162
0.000737484
-0.0102561
0.00213688
-0.0299011
0.00342346
-0.0470367
0.00416891
-0.0594156
0.00434445
-0.0674114
0.00411754
-0.0727403
0.00366226
-0.0770132
0.00308316
-0.0811904
0.00242311
-0.0856976
-0.0906144
0.0016999
0.00070874
-0.0109648
0.00197661
-0.0311689
0.00305469
-0.0481148
0.00357786
-0.0599388
0.00356009
-0.0673936
0.003177
-0.0723573
0.00259041
-0.0764266
0.00188997
-0.0804899
0.00110074
-0.0849083
-0.0897217
0.000208032
0.000672204
-0.011637
0.00179997
-0.0322967
0.00267107
-0.0489859
0.0029818
-0.0602495
0.00278216
-0.067194
0.00225117
-0.0718263
0.00153728
-0.0757127
0.000715762
-0.0796684
-0.000176506
-0.0840161
-0.0887127
-0.00118544
0.000628528
-0.0122656
0.00160981
-0.033278
0.00227712
-0.0496532
0.00238528
-0.0603577
0.00201413
-0.0668228
0.00134238
-0.0711545
0.000503337
-0.0748736
-0.000438257
-0.0787268
-0.00146836
-0.082986
-0.0876085
-0.00257257
0.000578466
-0.012844
0.00140892
-0.0341084
0.00187689
-0.0501212
0.00179213
-0.0602729
0.00125877
-0.0662895
0.000452031
-0.0703478
-0.000505948
-0.0739156
-0.00156128
-0.0776715
-0.00271676
-0.0818305
-0.0863815
-0.00394381
0.000522861
-0.0133669
0.00119996
-0.0347855
0.00147404
-0.0503952
0.00120538
-0.0600042
0.000518594
-0.0656027
-0.000416649
-0.0694125
-0.0014894
-0.0728429
-0.00266386
-0.076497
-0.00393779
-0.0805566
-0.0850285
-0.00529076
0.000462597
-0.0138295
0.000985505
-0.0353084
0.00107179
-0.0504815
0.000627807
-0.0595603
-0.000204529
-0.0647704
-0.001262
-0.0683551
-0.00245058
-0.0716543
-0.00374058
-0.075207
-0.00513242
-0.0791647
-0.0835509
-0.00661
0.000398542
-0.014228
0.000768065
-0.035678
0.000672931
-0.0503864
6.76635e-05
-0.058955
-0.000907724
-0.063795
-0.00208606
-0.0671767
-0.00338713
-0.0703532
-0.0047902
-0.073804
-0.00629921
-0.0776557
-0.0819508
-0.0078993
0.000331582
-0.0145596
0.000549934
-0.0358963
0.00028223
-0.0501187
-0.000490423
-0.0581823
-0.00159358
-0.0626918
-0.00288711
-0.0658832
-0.00429799
-0.0689424
-0.00581189
-0.0722901
-0.00743663
-0.076031
-0.0802305
-0.00915694
0.000262977
-0.0148226
0.000332768
-0.0359661
-9.78601e-05
-0.0496881
-0.00102751
-0.0572527
-0.00225945
-0.0614599
-0.00366449
-0.0644782
-0.00518249
-0.0674244
-0.00680505
-0.0706675
-0.00854348
-0.0742925
-0.0783939
-0.0103801
0.000193471
-0.0150161
0.000123219
-0.0358959
-0.000493057
-0.0490718
-0.00155294
-0.0561928
-0.00290438
-0.0601084
-0.00441751
-0.062965
-0.0060401
-0.0658018
-0.00776917
-0.0689384
-0.00961863
-0.0724431
-0.076448
-0.0115645
0.000121187
-0.0151372
-8.94678e-05
-0.0356852
-0.000864957
-0.0482963
-0.00206231
-0.0549955
-0.00352796
-0.0586428
-0.00514554
-0.0613474
-0.00687026
-0.064077
-0.00870361
-0.0671051
-0.0106609
-0.0704858
-0.0743985
-0.0127105
4.38599e-05
-0.0151811
-0.000320619
-0.0353207
-0.00122782
-0.0473891
-0.00255377
-0.0536695
-0.00412954
-0.057067
-0.00584823
-0.0596287
-0.00767268
-0.0622526
-0.00960794
-0.0651698
-0.0116707
-0.068423
-0.0722411
-0.013828
-3.24544e-05
-0.0151486
-0.000534969
-0.0348182
-0.0015795
-0.0463445
-0.00302685
-0.0522222
-0.00470832
-0.0553856
-0.00652527
-0.0578118
-0.00844787
-0.06033
-0.0104837
-0.063134
-0.0126482
-0.0662585
-0.0699724
-0.0149169
-0.000103871
-0.0150448
-0.000740396
-0.0341817
-0.00191844
-0.0451665
-0.00348124
-0.0506594
-0.00526371
-0.0536031
-0.00717611
-0.0558994
-0.00919649
-0.0583096
-0.0113348
-0.0609957
-0.01359
-0.0640033
-0.0676132
-0.0159492
-0.000176024
-0.0148688
-0.000938525
-0.0334192
-0.00224386
-0.0438612
-0.0039163
-0.0489869
-0.00579506
-0.0517243
-0.00779966
-0.0538948
-0.00991611
-0.0561932
-0.0121584
-0.0587534
-0.0145329
-0.0616288
-0.0653292
-0.0168169
-0.000246837
-0.0146219
-0.00112949
-0.0325365
-0.00255527
-0.0424354
-0.00433156
-0.0472106
-0.00630199
-0.0497539
-0.00839494
-0.0518018
-0.0106012
-0.0539869
-0.0129208
-0.0564338
-0.0153094
-0.0592402
-0.0624774
-0.0181612
-0.000315693
-0.0143062
-0.00131294
-0.0315393
-0.00285232
-0.040896
-0.00472672
-0.0453362
-0.00678438
-0.0476962
-0.00896139
-0.0496248
-0.0112486
-0.0516997
-0.01364
-0.0540424
-0.0161536
-0.0567266
-0.0596506
-0.0189804
-0.000382243
-0.013924
-0.00148842
-0.0304331
-0.00313469
-0.0392497
-0.00510152
-0.0433694
-0.00724193
-0.0455558
-0.00949892
-0.0473678
-0.0118657
-0.0493329
-0.0143461
-0.0515619
-0.0169771
-0.0540957
-0.056808
-0.0198196
-0.000446214
-0.0134778
-0.00165552
-0.0292238
-0.0034021
-0.0375031
-0.00545573
-0.0413158
-0.00767423
-0.0433373
-0.0100067
-0.0450354
-0.0124489
-0.0468907
-0.0150109
-0.049
-0.0177251
-0.0513815
-0.0539224
-0.0206107
-0.000507367
-0.0129704
-0.00181388
-0.0279173
-0.00365431
-0.0356627
-0.00578919
-0.0391809
-0.00808121
-0.0410453
-0.0104851
-0.0426315
-0.0129999
-0.0443759
-0.0156387
-0.0463612
-0.0184268
-0.0485933
-0.0509807
-0.0213684
-0.000565486
-0.0124049
-0.00196319
-0.0265196
-0.00389109
-0.0337348
-0.00610178
-0.0369702
-0.0084627
-0.0386844
-0.0109339
-0.0401604
-0.0135171
-0.0417927
-0.0162267
-0.0436516
-0.0190828
-0.0457372
-0.0479765
-0.0220871
-0.000620377
-0.0117845
-0.00210319
-0.0250368
-0.00411227
-0.0317257
-0.00639338
-0.0346891
-0.00881864
-0.0362591
-0.0113529
-0.0376261
-0.0140004
-0.0391452
-0.0167757
-0.0408763
-0.0196963
-0.0428166
-0.0449082
-0.0227646
-0.000671869
-0.0111127
-0.00223367
-0.023475
-0.00431772
-0.0296417
-0.00666392
-0.0323429
-0.00914894
-0.0337741
-0.0117421
-0.035033
-0.0144494
-0.0364379
-0.0172857
-0.0380399
-0.0202673
-0.039835
-0.0417771
-0.0233983
-0.000719811
-0.0103929
-0.00235443
-0.0218403
-0.00450731
-0.0274888
-0.00691335
-0.0299368
-0.00945352
-0.0312339
-0.0121011
-0.0323854
-0.0148639
-0.0336752
-0.0177568
-0.035147
-0.0207957
-0.0367961
-0.0385862
-0.0239866
-0.00076407
-0.00962879
-0.00246533
-0.0201391
-0.00468095
-0.0252732
-0.0071416
-0.0274762
-0.00973232
-0.0286432
-0.01243
-0.0296877
-0.0152437
-0.0308615
-0.0181887
-0.032202
-0.0212809
-0.0337039
-0.0353391
-0.024528
-0.000804532
-0.00882426
-0.00256623
-0.0183774
-0.00483856
-0.0230009
-0.00734863
-0.0249661
-0.00998527
-0.0260066
-0.0127285
-0.0269444
-0.0155886
-0.0280014
-0.0185812
-0.0292094
-0.0217224
-0.0305627
-0.0320402
-0.0250213
-0.000841096
-0.00798316
-0.00265702
-0.0165615
-0.00498008
-0.0206778
-0.00753441
-0.0224118
-0.0102123
-0.0233287
-0.0129966
-0.0241601
-0.0158985
-0.0250995
-0.0189341
-0.0261737
-0.0221196
-0.0273773
-0.0286944
-0.0254654
-0.000873678
-0.00710948
-0.00273761
-0.0146975
-0.00510546
-0.01831
-0.00769889
-0.0198184
-0.0104133
-0.0206142
-0.0132341
-0.0213394
-0.0161731
-0.0221604
-0.019247
-0.0230999
-0.0224719
-0.0241523
-0.0253066
-0.0258597
-0.000902205
-0.00620728
-0.00280791
-0.0127918
-0.00521466
-0.0159032
-0.00784206
-0.017191
-0.0105883
-0.017868
-0.0134408
-0.0184869
-0.0164124
-0.0191889
-0.0195197
-0.0199926
-0.0227791
-0.0208929
-0.0218822
-0.0262035
-0.000926614
-0.00528066
-0.00286788
-0.0108506
-0.00530764
-0.0134635
-0.00796389
-0.0145347
-0.0107373
-0.0150946
-0.0136169
-0.0156073
-0.0166161
-0.0161896
-0.019752
-0.0168567
-0.0230408
-0.017604
-0.0184266
-0.0264965
-0.000946855
-0.00433381
-0.00291745
-0.00887997
-0.00538436
-0.0109966
-0.00806435
-0.0118547
-0.0108601
-0.0122989
-0.013762
-0.0127054
-0.0167841
-0.0131675
-0.0199436
-0.0136973
-0.0232568
-0.0142908
-0.0149451
-0.0267383
-0.000962885
-0.00337092
-0.00295657
-0.00688628
-0.00544481
-0.00850832
-0.00814342
-0.00915611
-0.0109567
-0.00948563
-0.0138762
-0.00978584
-0.0169164
-0.0101273
-0.0200944
-0.0105192
-0.0234269
-0.0109584
-0.0114432
-0.0269288
-0.000974673
-0.00239625
-0.00298522
-0.00487574
-0.00548895
-0.00600459
-0.00820108
-0.00644398
-0.0110271
-0.00665962
-0.0139594
-0.00685349
-0.0170128
-0.00707403
-0.0202044
-0.00732752
-0.0235509
-0.00761189
-0.00792626
-0.0270678
-0.000982193
-0.00141406
-0.00300336
-0.00285457
-0.00551678
-0.00349117
-0.00823732
-0.00372344
-0.0110713
-0.00382567
-0.0140116
-0.00391313
-0.0170732
-0.00401245
-0.0202735
-0.00412726
-0.0236288
-0.00425653
-0.00439974
-0.0271554
-0.000985432
-0.000428625
-0.00301098
-0.000829017
-0.00552827
-0.000973887
-0.00825212
-0.000999589
-0.0110892
-0.000988587
-0.0140328
-0.000969561
-0.0170977
-0.000947512
-0.0203015
-0.000923439
-0.0236606
-0.000897455
-0.000869081
-0.0271913
-0.000984381
0.000555755
-0.00300808
0.00119468
-0.00552342
0.00154145
-0.00824546
0.00172246
-0.0110809
0.00184681
-0.0140228
0.00197239
-0.0170862
0.00211587
-0.0202885
0.00227887
-0.0236461
0.00246019
0.00265917
-0.0271744
-0.00097904
0.0015348
-0.00299463
0.00321027
-0.00550221
0.00404903
-0.00821734
0.00443758
-0.0110462
0.0046757
-0.0139818
0.00490791
-0.0170387
0.00517282
-0.0202346
0.00547476
-0.0235858
0.00581144
0.00618202
-0.0271087
-0.000969419
0.00250421
-0.00297066
0.00521151
-0.00546465
0.00654303
-0.00816774
0.00714067
-0.0109853
0.00749327
-0.0139096
0.00783219
-0.0169552
0.00821842
-0.0201396
0.00865917
-0.0234793
0.00915116
0.00969299
-0.0269903
-0.000955533
0.00345975
-0.00293616
0.00719214
-0.00541072
0.00901759
-0.00809665
0.0098266
-0.0108981
0.0102947
-0.0138063
0.0107404
-0.0168357
0.0112478
-0.0200036
0.0118271
-0.0233266
0.0124742
0.0131866
-0.0268202
-0.00093741
0.00439716
-0.00289117
0.0091459
-0.00534044
0.0114669
-0.00800406
0.0124902
-0.0107845
0.0130751
-0.0136719
0.0136278
-0.0166801
0.014256
-0.0198265
0.0149735
-0.0231277
0.0157753
0.0166576
-0.0265986
-0.000915082
0.00531224
-0.00283571
0.0110665
-0.00525379
0.0138849
-0.00788997
0.0151264
-0.0106447
0.0158298
-0.0135064
0.0164896
-0.0164887
0.0172383
-0.0196085
0.0180933
-0.0228827
0.0190494
0.0201004
-0.0263255
-0.000888596
0.00620084
-0.00276982
0.0129478
-0.00515081
0.0162659
-0.00775436
0.01773
-0.0104785
0.0185539
-0.0133099
0.0193209
-0.0162613
0.0201897
-0.0193497
0.0211817
-0.0225917
0.0222914
0.0235097
-0.0260009
-0.000858005
0.00705884
-0.00269356
0.0147833
-0.00503149
0.0186038
-0.00759724
0.0202957
-0.010286
0.0212427
-0.0130823
0.0221172
-0.0159981
0.0231055
-0.0190501
0.0242337
-0.0222549
0.0254962
0.02688
-0.0256252
-0.000823376
0.00788222
-0.00260698
0.0165669
-0.00489587
0.0208927
-0.00741861
0.0228185
-0.0100673
0.0238914
-0.0128238
0.0248737
-0.0156992
0.0259809
-0.0187099
0.0272445
-0.0218725
0.0286588
0.0302061
-0.0251986
-0.000784789
0.00866701
-0.00251017
0.0182923
-0.00474398
0.0231265
-0.00721846
0.0252929
-0.00982228
0.0264952
-0.0125344
0.0275858
-0.0153647
0.0288112
-0.0183294
0.0302092
-0.0214449
0.0317743
0.0334829
-0.0247216
-0.000742337
0.00940934
-0.00240323
0.0199532
-0.00457585
0.0252992
-0.00699683
0.0277139
-0.00955105
0.0290494
-0.0122141
0.0302489
-0.0149948
0.0315919
-0.0179087
0.0331231
-0.0209723
0.0348379
0.0367053
-0.0241948
-0.000696129
0.0101055
-0.00228626
0.0215433
-0.00439156
0.0274044
-0.00675372
0.0300761
-0.00925364
0.0315493
-0.0118632
0.0328584
-0.0145895
0.0343182
-0.0174481
0.0359817
-0.0204553
0.0378451
0.039869
-0.023619
-0.000646292
0.0107518
-0.00215943
0.0230565
-0.00419117
0.0294362
-0.00648916
0.0323741
-0.00893007
0.0339903
-0.0114816
0.0354099
-0.0141491
0.0369858
-0.0169478
0.0387803
-0.0198944
0.0407917
0.0429699
-0.0229952
-0.000592972
0.0113447
-0.00202288
0.0244864
-0.00397478
0.0313881
-0.00620318
0.0346025
-0.00858042
0.0363675
-0.0110694
0.0378989
-0.0136737
0.0395901
-0.0164079
0.0415146
-0.0192899
0.0436737
0.0460047
-0.0223247
-0.000536338
0.0118811
-0.00187685
0.0258269
-0.00374252
0.0332537
-0.00589586
0.0367558
-0.00820473
0.0386764
-0.0106269
0.0403211
-0.0131635
0.0421266
-0.0158285
0.0441796
-0.0186421
0.0464873
0.0489714
-0.0216088
-0.000476583
0.0123577
-0.00172157
0.0270719
-0.00349455
0.0350267
-0.00556726
0.0388285
-0.00780307
0.0409122
-0.0101542
0.0426723
-0.0126187
0.0445911
-0.0152096
0.0467704
-0.0179509
0.0492286
0.05187
-0.0208495
-0.00041392
0.0127716
-0.00155734
0.0282153
-0.00323106
0.0367004
-0.00521749
0.040815
-0.00737551
0.0430702
-0.00965139
0.0449482
-0.0120397
0.0469795
-0.0145506
0.0492813
-0.017214
0.0518919
0.0547045
-0.0200485
-0.000348593
0.0131202
-0.00138452
0.0292512
-0.00295231
0.0382682
-0.00484669
0.0427093
-0.00692221
0.0451457
-0.00911869
0.0471446
-0.0114276
0.0492884
-0.0138536
0.0517074
-0.0164304
0.0544686
0.0574856
-0.0192115
-0.000280868
0.013401
-0.00120353
0.0301739
-0.00265859
0.0397233
-0.00445505
0.0445058
-0.00644327
0.0471339
-0.00855585
0.0492572
-0.0107813
0.0515138
-0.0131161
0.0540421
-0.0155781
0.0569306
0.0602396
-0.018332
-0.000211055
0.0136121
-0.00101485
0.0309777
-0.00235024
0.0410587
-0.00404282
0.0461984
-0.00593906
0.0490302
-0.00796361
0.0512818
-0.0101038
0.053654
-0.0123602
0.0562986
-0.0146977
0.0592681
0.063008
-0.0174661
-0.000139573
0.0137517
-0.000818984
0.0316571
-0.00202764
0.0422674
-0.00361031
0.047781
-0.00540989
0.0508298
-0.00734209
0.053214
-0.00938884
0.0557008
-0.0115623
0.058472
-0.0138734
0.0615793
0.0652873
-0.0161527
-6.73179e-05
0.013819
-0.000616279
0.032206
-0.00169123
0.0433423
-0.00315789
0.0492477
-0.00485592
0.0525278
-0.00669187
0.0550499
-0.00863973
0.0576486
-0.0107083
0.0605406
-0.0129014
0.0637724
0.0676032
-0.0152173
9.99015e-07
0.013818
-0.000406221
0.0326133
-0.00134169
0.0442778
-0.00268614
0.0505921
-0.00427758
0.0541192
-0.00601389
0.0567862
-0.007861
0.0594957
-0.00982556
0.0625051
-0.0119262
0.065873
0.0698175
-0.0141405
8.24568e-05
0.0137355
-0.000185514
0.0328812
-0.000980046
0.0450723
-0.00219566
0.0518078
-0.00367551
0.0555991
-0.00530907
0.0584198
-0.00705449
0.0612411
-0.00891546
0.0643661
-0.0109105
0.067868
0.0719162
-0.0130092
0.000155919
0.0135796
4.50426e-05
0.0329921
-0.000607977
0.0457253
-0.00168693
0.0528867
-0.0030504
0.0569626
-0.00457789
0.0599473
-0.00621956
0.0628828
-0.00797477
0.0661213
-0.00985932
0.0697526
0.0739002
-0.0118434
0.000224781
0.0133548
0.000246242
0.0329707
-0.000223378
0.0461949
-0.00116123
0.0538246
-0.00240308
0.0582044
-0.00382069
0.0613649
-0.00535584
0.064418
-0.0070025
0.067768
-0.00877389
0.071524
0.0757726
-0.0106462
0.000292513
0.0130623
0.000462657
0.0328005
0.000168005
0.0464896
-0.00062167
0.0546142
-0.00173423
0.059317
-0.003038
0.0626687
-0.00446373
0.0658437
-0.0059992
0.0693034
-0.00765418
0.0731789
0.0775288
-0.00941038
0.000359075
0.0127032
0.000679888
0.0324797
0.00055512
0.0466144
-6.34802e-05
0.0552328
-0.00104455
0.060298
-0.00223049
0.0638546
-0.00354383
0.067157
-0.00496562
0.0707252
-0.00650147
0.0747148
0.0791628
-0.00813548
0.000422704
0.0122805
0.000895905
0.0320065
0.000953051
0.0465572
0.000499129
0.0556868
-0.000336597
0.0611338
-0.00139895
0.064917
-0.00259685
0.0683549
-0.00390242
0.0720308
-0.00531718
0.0761295
0.0806709
-0.00682526
0.000482446
0.0117981
0.00110867
0.0313803
0.0013542
0.0463117
0.00107755
0.0559634
0.000390844
0.0618205
-0.000544823
0.0658526
-0.00162381
0.0694339
-0.00281038
0.0732174
-0.00410275
0.0774219
0.0820505
-0.00548239
0.00053745
0.0112606
0.0013156
0.0306021
0.00175532
0.045872
0.00166515
0.0560536
0.00113569
0.0623499
0.00033199
0.0666563
-0.000626605
0.0703925
-0.00169064
0.0742814
-0.00285958
0.0785909
0.0833
-0.00410901
0.000586818
0.0106738
0.00151393
0.029675
0.00215305
0.0452328
0.00225864
0.055948
0.0018957
0.0627129
0.00123173
0.0673203
0.000395731
0.0712285
-0.00054724
0.0752244
-0.00158738
0.079631
0.0844207
-0.00270808
0.000629696
0.0100441
0.00170089
0.0286038
0.00254351
0.0443902
0.0028546
0.0556369
0.00266801
0.0628995
0.00215008
0.0678382
0.00144455
0.0719341
0.000625131
0.0760438
-0.000274461
0.0805306
0.0854338
-0.00128762
0.00066532
0.00937881
0.00187359
0.0273956
0.00292233
0.0433415
0.00344883
0.0551104
0.00344949
0.0628988
0.00308548
0.0682022
0.00251309
0.0725064
0.00182133
0.0767355
0.00103552
0.0813164
0.0863373
0.000132037
0.000693041
0.00868576
0.00202905
0.0260595
0.00328468
0.0420858
0.00403631
0.0543587
0.00423619
0.0626989
0.00403522
0.0684032
0.00360095
0.0729407
0.00303747
0.077299
0.00238756
0.0819663
0.0870575
0.00166737
0.000712345
0.00797342
0.00216405
0.0246078
0.00362518
0.0406247
0.00461119
0.0533727
0.00502329
0.0622868
0.00499605
0.0684305
0.00470648
0.0732303
0.00427573
0.0777298
0.00376115
0.0824809
0.0876395
0.00317918
0.000722911
0.00725051
0.00227564
0.0230551
0.00393802
0.0389623
0.00516668
0.0521441
0.00580493
0.0616486
0.00596383
0.0682716
0.00582674
0.0733674
0.00553215
0.0780244
0.00515036
0.0828627
0.0880857
0.00470411
0.000724621
0.00652589
0.00236118
0.0214186
0.00421702
0.0371065
0.00569504
0.0506661
0.00657404
0.0607696
0.00693332
0.0679123
0.00695791
0.0733428
0.00680328
0.078179
0.00655489
0.0831111
0.0883966
0.006244
0.000717567
0.00580832
0.00241836
0.0197178
0.00445572
0.0350691
0.00618746
0.0489343
0.00732217
0.0596349
0.00789802
0.0673364
0.00809563
0.0731452
0.00808641
0.0781882
0.00797349
0.083224
0.0885724
0.00779766
0.000702059
0.00510626
0.00244546
0.0179744
0.00464763
0.032867
0.0066342
0.0469477
0.00803939
0.0582297
0.00885001
0.0665258
0.00923464
0.0727606
0.00937841
0.0780444
0.00940399
0.0831984
0.0886129
0.0093635
0.000678634
0.00442763
0.0024415
0.0162115
0.00478659
0.0305219
0.00702469
0.0447096
0.00871408
0.0565403
0.00977959
0.0654603
0.0103683
0.0721718
0.0106752
0.0777376
0.0108436
0.0830299
0.0885169
0.0109396
0.000648046
0.00377958
0.00240643
0.0144531
0.00486712
0.0280612
0.00734776
0.042229
0.00933299
0.0545551
0.010675
0.0641183
0.0114881
0.0713587
0.0119713
0.0772544
0.012289
0.0827122
0.0882819
0.012524
0.000611247
0.00316833
0.00234126
0.0127231
0.00488499
0.0255174
0.00759212
0.0395219
0.00988117
0.052266
0.0115219
0.0624776
0.0125832
0.0702974
0.0132597
0.0765779
0.0137357
0.0822363
0.087904
0.0141135
0.000569353
0.00259898
0.00224807
0.0110444
0.00483774
0.0229278
0.00774694
0.0366127
0.0103423
0.0496707
0.0123037
0.0605161
0.0136403
0.0689609
0.0145315
0.0756866
0.0151781
0.0815897
0.0873778
0.0157044
0.000523598
0.00207538
0.00213003
0.00943796
0.00472526
0.0203325
0.00780268
0.0335353
0.0106989
0.0467745
0.0130008
0.0582141
0.0146424
0.0673193
0.0157748
0.0745543
0.0166089
0.0807556
0.0866949
0.0172918
0.00047528
0.0016001
0.00199116
0.00792207
0.00455018
0.0177735
0.00775218
0.0303333
0.0109336
0.0435931
0.0135911
0.0555566
0.0155692
0.0653412
0.0169742
0.0731492
0.0180184
0.0797115
0.0858435
0.0188698
0.000425707
0.00117439
0.00183621
0.00651157
0.00431803
0.0152917
0.00759185
0.0270594
0.0110297
0.0401552
0.0140503
0.052536
0.0163962
0.0629953
0.0181104
0.0714351
0.0193932
0.0784286
0.0848062
0.0204305
0.000376134
0.000798261
0.00167026
0.00521744
0.00403708
0.0129249
0.00732282
0.0237737
0.0109734
0.0365046
0.0143528
0.0491566
0.0170947
0.0602534
0.0191586
0.0693712
0.0207162
0.076871
0.083559
0.0219634
0.000327702
0.000470559
0.00149843
0.00404671
0.00371776
0.0107056
0.00695184
0.0205396
0.0107553
0.0327011
0.0144734
0.0454386
0.0176322
0.0570946
0.0200885
0.0669149
0.0219642
0.0749953
0.0820693
0.0234539
0.000281371
0.000189188
0.00132548
0.0030026
0.00337175
0.00865929
0.0064914
0.01742
0.010373
0.0288195
0.0143892
0.0414223
0.0179734
0.0535104
0.0208632
0.064025
0.0231072
0.0727514
0.0802943
0.0248822
0.000237855
-4.86678e-05
0.00115551
0.00208495
0.00301086
0.00680394
0.005959
0.0144718
0.00983278
0.0249457
0.0140833
0.0371718
0.0180822
0.0495116
0.0214403
0.0606669
0.0241072
0.0700845
0.0781799
0.0262216
0.000197554
-0.000246222
0.00099164
0.00129086
0.00264582
0.00514976
0.00537521
0.0117424
0.00915103
0.0211699
0.0135481
0.0327747
0.017925
0.0451347
0.0217721
0.0568197
0.0249169
0.0669397
0.0756605
0.0274363
0.000160516
-0.000406738
0.000835781
0.000615596
0.00228529
0.00370026
0.00476124
0.00926649
0.00835302
0.0175781
0.0127889
0.0283389
0.0174753
0.0404483
0.0218091
0.0524859
0.0254801
0.0632687
0.0726608
0.0284799
0.000126442