/*--------------------------------*- C++ -*----------------------------------*\
  =========                 |
  \\      /  F ield         | OpenFOAM: The Open Source CFD Toolbox
   \\    /   O peration     | Website:  https://openfoam.org
    \\  /    A nd           | Version:  7
     \\/     M anipulation  |
\*---------------------------------------------------------------------------*/
FoamFile
{
    version     2.0;
    format      ascii;
    class       volVectorField;
    location    "260";
    object      U;
}
// * * * * * * * * * * * * * * * * * * * * * * * * * * * * * * * * * * * * * //

dimensions      [0 1 -1 0 0 0 0];

internalField   nonuniform List<vector> 
8500
(
(-0.00278458 0.0655765 1.13593e-21)
(-0.0117268 0.135915 -3.25229e-21)
(-0.0278258 0.165703 -3.78488e-21)
(-0.0472147 0.168725 3.76471e-21)
(-0.0683742 0.156915 -3.48244e-21)
(-0.0900296 0.138398 -1.87146e-21)
(-0.111159 0.116945 3.22805e-21)
(-0.131046 0.0929492 4.09056e-21)
(-0.149028 0.0649201 -6.99144e-22)
(-0.164987 0.0300748 2.03985e-21)
(-0.00506076 0.0680084 -1.25043e-21)
(-0.0155398 0.142301 3.86547e-21)
(-0.0308898 0.174991 -9.29635e-21)
(-0.0485352 0.179807 8.44344e-21)
(-0.0674354 0.168809 3.28768e-22)
(-0.086493 0.150337 6.19347e-21)
(-0.104644 0.128378 -1.094e-20)
(-0.120983 0.103524 -1.62975e-20)
(-0.134694 0.0744901 -3.34685e-21)
(-0.14524 0.0388389 7.67752e-21)
(-0.00741425 0.0696685 1.22334e-21)
(-0.0194679 0.14733 8.8077e-21)
(-0.0338592 0.18287 2.05749e-20)
(-0.0493753 0.189618 -1.86524e-20)
(-0.0654682 0.179575 -4.33792e-21)
(-0.0812274 0.161215 -3.91157e-21)
(-0.0955438 0.138718 2.02857e-20)
(-0.107311 0.112883 1.25904e-20)
(-0.115523 0.0826703 3.03514e-21)
(-0.118893 0.0460084 -2.39508e-20)
(-0.00976805 0.0704784 4.36674e-21)
(-0.0233973 0.150809 -5.1244e-21)
(-0.0366462 0.18908 -3.90822e-20)
(-0.0496857 0.197874 3.37135e-21)
(-0.0624674 0.188927 1.07356e-20)
(-0.0742851 0.170755 -8.59729e-21)
(-0.0840002 0.147697 -1.3918e-22)
(-0.0903018 0.120753 -3.67818e-21)
(-0.0920378 0.0891662 8.26779e-21)
(-0.0867216 0.0511215 2.47789e-20)
(-0.0120415 0.07039 3.10705e-21)
(-0.0272094 0.152587 -1.71527e-20)
(-0.039171 0.193399 4.0861e-20)
(-0.0494421 0.204311 -1.88293e-20)
(-0.0584684 0.1966 -4.05002e-23)
(-0.0657717 0.17871 2.64758e-20)
(-0.0702175 0.155099 -1.21887e-20)
(-0.0702893 0.126939 1.41527e-21)
(-0.0648701 0.0937883 -5.1485e-21)
(-0.0496316 0.0539167 2.29159e-21)
(-0.0141554 0.0693923 3.70644e-20)
(-0.0307863 0.152568 4.4413e-20)
(-0.0413624 0.195643 -1.12127e-20)
(-0.0486421 0.208698 2.15888e-20)
(-0.0535396 0.202352 7.00527e-21)
(-0.0558314 0.184862 -9.76029e-21)
(-0.0544374 0.160751 -3.84253e-21)
(-0.0476222 0.131332 -1.78307e-20)
(-0.0346002 0.096385 3.87696e-21)
(-0.00851371 0.0544654 -2.39904e-20)
(-0.0160371 0.0675136 -3.57602e-20)
(-0.0340192 0.150722 -2.32196e-20)
(-0.0431606 0.195682 1.91841e-20)
(-0.0473007 0.210838 -3.33191e-20)
(-0.0477758 0.205967 4.05555e-21)
(-0.0446341 0.189015 4.0106e-20)
(-0.0369093 0.164509 -7.28167e-21)
(-0.0226599 0.133887 4.96319e-20)
(-0.00164376 0.09696 -5.6095e-22)
(0.0359911 0.0526898 -2.14218e-20)
(-0.017626 0.0648212 3.05364e-20)
(-0.0368126 0.14708 -5.46689e-20)
(-0.0445211 0.193447 -2.17054e-20)
(-0.0454475 0.210574 2.52979e-20)
(-0.0412876 0.207244 1.06092e-21)
(-0.0323664 0.190973 -7.55058e-20)
(-0.0178741 0.166232 -4.81761e-21)
(0.00433521 0.134556 -3.92771e-20)
(0.0335456 0.0956549 -5.23171e-20)
(0.0840039 0.0484966 3.18213e-20)
(-0.01888 0.0614185 -1.71284e-20)
(-0.0390922 0.141744 8.08091e-21)
(-0.045415 0.188941 2.0101e-20)
(-0.0431284 0.207801 -1.82935e-20)
(-0.0342006 0.206006 -6.42374e-20)
(-0.0192177 0.19054 2.23494e-20)
(0.00242697 0.165756 3.26706e-21)
(0.0331886 0.133248 5.95166e-20)
(0.0706775 0.0925416 8.12671e-20)
(0.135684 0.0421517 -3.75345e-20)
(-0.0197795 0.0574411 2.72717e-20)
(-0.0408118 0.134884 2.46289e-20)
(-0.0458302 0.182237 -3.51285e-21)
(-0.0403967 0.202472 9.06327e-20)
(-0.0266432 0.202112 3.86746e-20)
(-0.00537686 0.187527 2.95111e-20)
(0.0237697 0.16288 4.32047e-20)
(0.0637715 0.129865 -1.93429e-20)
(0.109649 0.0875313 -2.7272e-20)
(0.191551 0.0339445 -4.67315e-20)
(-0.0203303 0.0530484 -2.36497e-21)
(-0.0419578 0.12673 -3.88348e-20)
(-0.0457701 0.173486 -2.79714e-20)
(-0.0373021 0.194611 -4.48992e-20)
(-0.0187264 0.195469 -3.60579e-20)
(0.00899739 0.181756 3.66466e-20)
(0.045984 0.157373 -3.61018e-20)
(0.0960152 0.124244 -2.57445e-20)
(0.150547 0.0803614 3.41719e-21)
(0.25244 0.0241267 1.20933e-20)
(-0.0205639 0.0484145 -7.53947e-20)
(-0.0425496 0.117562 3.56918e-20)
(-0.0452483 0.162912 2.59556e-20)
(-0.0338746 0.184319 1.73461e-20)
(-0.0105116 0.186049 -3.19638e-20)
(0.0238245 0.17309 -2.76211e-20)
(0.0690271 0.149003 4.06523e-20)
(0.129981 0.116181 -3.39354e-20)
(0.193811 0.0706403 -1.60115e-21)
(0.319404 0.0129378 -3.7944e-20)
(-0.0205362 0.0437173 6.31986e-20)
(-0.0426354 0.107691 2.54376e-20)
(-0.0442764 0.150807 1.48555e-21)
(-0.0300978 0.17179 -3.16744e-20)
(-0.00196256 0.173922 2.31559e-21)
(0.0391791 0.161481 3.59797e-20)
(0.0931068 0.137608 -1.05246e-20)
(0.165991 0.105498 -1.32096e-20)
(0.240518 0.057989 -3.14419e-20)
(0.393556 0.000677174 5.77536e-20)
(-0.0203214 0.039126 4.26739e-20)
(-0.0422814 0.0974414 -6.87516e-20)
(-0.0428449 0.137518 -5.2828e-20)
(-0.025873 0.157314 2.27922e-20)
(0.00711971 0.15928 4.68152e-20)
(0.0553961 0.147021 4.01809e-20)
(0.11884 0.12319 -4.38008e-20)
(0.204798 0.0921301 8.75548e-20)
(0.292677 0.0423453 -2.67835e-20)
(0.47576 -0.0121537 -6.79823e-20)
(-0.0200045 0.03479 -6.41425e-20)
(-0.041555 0.0871271 3.84072e-20)
(-0.0408979 0.123431 -1.82478e-20)
(-0.0209774 0.14127 1.90679e-21)
(0.0171676 0.142458 1.94765e-20)
(0.0731831 0.129989 -6.34082e-20)
(0.147406 0.106026 5.79092e-20)
(0.247779 0.0761811 -5.70956e-20)
(0.353222 0.0243253 9.62302e-20)
(0.565984 -0.0247591 3.59842e-20)
(-0.0196686 0.0308264 1.34917e-20)
(-0.0405024 0.0770302 7.42725e-20)
(-0.0383036 0.108943 -1.85752e-20)
(-0.015023 0.124115 1.88298e-20)
(0.0289068 0.123937 2.18996e-20)
(0.0937021 0.110888 -6.50062e-21)
(0.180569 0.0867417 4.88183e-20)
(0.296986 0.0580106 1.96426e-21)
(0.425371 0.0054421 -6.23112e-20)
(0.662505 -0.0360917 8.48063e-20)
(-0.0193817 0.0273112 -3.62184e-20)
(-0.0391242 0.0673788 -7.02898e-20)
(-0.0348279 0.0944393 6.08021e-20)
(-0.00743023 0.10636 3.0378e-20)
(0.0433792 0.104329 -1.41826e-19)
(0.11857 0.0904401 1.16457e-19)
(0.220551 0.0663258 -1.07514e-19)
(0.354924 0.0383724 1.20094e-21)
(0.511222 -0.0120346 -2.59709e-20)
(0.76147 -0.0450448 -7.88937e-20)
(-0.0191822 0.0242718 3.11517e-20)
(-0.0373532 0.0583299 -4.14379e-21)
(-0.0301186 0.0802625 -1.49475e-20)
(0.00257164 0.0885313 -1.78494e-21)
(0.0619018 0.0843365 -8.62361e-21)
(0.14973 0.0695468 -3.73365e-20)
(0.269658 0.0460242 1.65653e-20)
(0.423983 0.018544 -2.59005e-20)
(0.610117 -0.0255566 7.7693e-21)
(0.857414 -0.0508557 1.97704e-21)
(-0.0190669 0.0216858 -6.35485e-20)
(-0.0350401 0.0499597 -4.46326e-21)
(-0.0237069 0.0666889 6.84853e-21)
(0.0159053 0.0711284 2.76239e-21)
(0.0859492 0.064694 4.63001e-20)
(0.189177 0.0492113 -1.35672e-19)
(0.329769 0.0271457 9.31223e-20)
(0.505541 0.000386432 -7.04495e-20)
(0.717829 -0.0329995 6.18795e-20)
(0.945094 -0.0540754 7.03578e-20)
(-0.0189841 0.0194844 -7.60776e-21)
(-0.0319502 0.0422621 3.52242e-20)
(-0.0150305 0.0539099 -4.39795e-20)
(0.033569 0.0545884 -1.37409e-20)
(0.116973 0.0461079 2.65387e-20)
(0.238592 0.0304447 1.28867e-19)
(0.401808 0.0108529 -2.63576e-20)
(0.598996 -0.013857 1.30321e-20)
(0.827494 -0.0338113 -7.06214e-20)
(1.02227 -0.0577153 3.10316e-20)
(-0.0188338 0.017563 -2.30139e-20)
(-0.0277736 0.0351585 -1.78296e-20)
(-0.00347481 0.0420273 4.40379e-21)
(0.0565329 0.0392593 1.7341e-20)
(0.1562 0.0292048 -5.13365e-20)
(0.298973 0.0141789 -2.08776e-20)
(0.485359 -0.00192411 -6.64329e-20)
(0.701158 -0.0222714 6.98056e-20)
(0.931971 -0.0304405 7.47497e-20)
(1.0908 -0.0651782 -3.33711e-20)
(-0.0184747 0.0157968 -1.09105e-20)
(-0.0221455 0.0285183 4.4724e-20)
(0.0115794 0.0310636 -4.98553e-20)
(0.0856419 0.0253921 -5.82185e-21)
(0.204447 0.0145056 -2.35593e-20)
(0.370354 0.00119845 5.16885e-20)
(0.578507 -0.0104581 6.74233e-20)
(0.806609 -0.0244438 -6.50166e-20)
(1.02603 -0.0269577 6.90809e-20)
(1.17718 -0.0583123 8.8703e-21)
(-0.0177365 0.0140584 -3.16975e-20)
(-0.0146722 0.0221877 -9.02588e-20)
(0.0307086 0.0209889 8.80677e-20)
(0.121536 0.013161 1.26643e-20)
(0.262007 0.00243269 1.85782e-20)
(0.451715 -0.0079042 1.12537e-20)
(0.677948 -0.0142844 5.12696e-20)
(0.90947 -0.021613 3.79916e-20)
(1.11222 -0.0204878 -1.35456e-19)
(1.24667 -0.0449302 -6.58746e-20)
(-0.0164339 0.0122358 -1.08665e-19)
(-0.00495609 0.016024 2.18888e-20)
(0.0544129 0.0117624 -4.97827e-20)
(0.164601 0.00270836 9.70683e-21)
(0.32859 -0.00666113 1.55491e-20)
(0.541038 -0.0127597 -1.12578e-19)
(0.779505 -0.0133961 4.97596e-20)
(1.00573 -0.0147208 -3.40475e-20)
(1.18693 -0.0107798 3.58314e-20)
(1.29801 -0.030177 -1.22147e-20)
(-0.0143796 0.0102476 3.92919e-20)
(0.00738311 0.00992991 4.23969e-20)
(0.0830957 0.00337773 -2.42393e-21)
(0.21495 -0.00580501 -1.36404e-20)
(0.403319 -0.0124661 5.283e-22)
(0.635541 -0.0132434 1.15957e-21)
(0.879023 -0.00816903 -7.58487e-20)
(1.09246 -0.00453731 9.55283e-21)
(1.24894 0.00109945 9.4138e-20)
(1.33832 -0.0144558 4.2501e-20)
(-0.0113948 0.00805237 -2.65993e-20)
(0.0226934 0.00387925 -1.9737e-20)
(0.11705 -0.004096 8.48375e-20)
(0.272412 -0.0121575 2.18703e-21)
(0.484761 -0.0147158 -3.5673e-20)
(0.732033 -0.00946512 9.61216e-20)
(0.973005 0.000817993 2.10585e-20)
(1.168 0.00815506 1.00512e-21)
(1.29903 0.0145621 -4.13046e-20)
(1.36678 0.00155193 -5.31703e-20)
(-0.00731539 0.00565276 5.55774e-20)
(0.0412781 -0.00206674 -1.5521e-20)
(0.156447 -0.0104888 -9.27578e-21)
(0.336519 -0.0160515 -3.52809e-20)
(0.571018 -0.0132202 5.81127e-20)
(0.827339 -0.00172278 -2.85229e-20)
(1.05893 0.0129192 -3.21161e-20)
(1.23191 0.022711 -7.75017e-21)
(1.33801 0.0290245 -2.34273e-20)
(1.38683 0.0175197 2.54727e-20)
(-0.00199561 0.00309309 -2.04768e-20)
(0.063385 -0.00775634 -1.21787e-19)
(0.201312 -0.0155231 1.27138e-20)
(0.406479 -0.0171365 4.39911e-20)
(0.659871 -0.00790669 3.15282e-20)
(0.91867 0.00956476 -1.051e-19)
(1.1353 0.0275147 6.72322e-20)
(1.28453 0.0385892 -3.06032e-20)
(1.36746 0.0440983 4.59803e-20)
(1.39978 0.033394 1.25737e-20)
(0.00469254 0.000453015 -2.24192e-20)
(0.0891929 -0.0129546 4.32377e-20)
(0.251501 -0.0188295 5.64972e-20)
(0.481184 -0.0150616 -4.06459e-20)
(0.748988 0.00115961 1.51267e-20)
(1.00385 0.0239241 -9.24847e-20)
(1.20149 0.0440504 -1.74926e-20)
(1.32675 0.0553727 1.44305e-20)
(1.38882 0.0595245 -3.49385e-20)
(1.40746 0.04909 -3.52818e-20)
(0.0128557 -0.00215713 -2.89339e-20)
(0.118797 -0.017357 -9.77977e-21)
(0.306668 -0.0199792 -1.02376e-19)
(0.559235 -0.00954027 -1.6076e-20)
(0.836148 0.0137878 -1.77296e-21)
(1.08139 0.0408769 5.48466e-21)
(1.25755 0.062058 9.68196e-21)
(1.3597 0.0727515 -4.51795e-20)
(1.40359 0.0751423 8.13194e-22)
(1.41109 0.0646482 2.4323e-20)
(0.0225755 -0.00460447 -7.53186e-21)
(0.152191 -0.0206105 3.54629e-20)
(0.366248 -0.0185296 5.00197e-20)
(0.639032 -0.000398789 3.13362e-20)
(0.919424 0.0296944 -9.32988e-21)
(1.15045 0.0599715 -7.65411e-21)
(1.30398 0.081156 7.59895e-20)
(1.38464 0.0905084 1.00195e-20)
(1.41302 0.0908689 3.39467e-20)
(1.41169 0.0800908 -1.46254e-20)
(0.0339071 -0.00673964 7.19443e-20)
(0.189253 -0.0223341 4.67946e-20)
(0.429456 -0.0140735 -4.74821e-20)
(0.718894 0.0124037 -9.47285e-21)
(0.997291 0.0485416 4.90171e-21)
(1.2107 0.0808011 -1.79424e-20)
(1.34154 0.101046 -3.88828e-20)
(1.40277 0.1085 -6.51585e-21)
(1.41822 0.106667 5.34161e-22)
(1.41001 0.0954666 1.58045e-20)
(0.0468724 -0.00840088 8.7629e-21)
(0.229736 -0.0221406 -2.54952e-20)
(0.49531 -0.00628073 6.04088e-20)
(0.797193 0.0287834 3.94225e-20)
(1.06866 0.0699686 1.12035e-21)
(1.26223 0.10301 2.79239e-20)
(1.37114 0.1215 4.14305e-21)
(1.4152 0.126636 -2.93316e-20)
(1.42007 0.122529 2.48176e-20)
(1.40658 0.110809 -3.77736e-23)
(0.061454 -0.00941881 -5.90969e-20)
(0.273261 -0.0196585 -1.74685e-20)
(0.562686 0.00507261 -1.58607e-20)
(0.872466 0.0485558 -2.76078e-20)
(1.13284 0.0936144 6.40905e-21)
(1.30539 0.126296 1.49174e-22)
(1.3937 0.142349 2.1361e-20)
(1.42289 0.144866 -3.3869e-21)
(1.41924 0.138458 -2.55152e-20)
(1.40178 0.126144 -2.37874e-20)
(0.077591 -0.00962118 4.77911e-21)
(0.319321 -0.0145534 2.8204e-20)
(0.630381 0.0200918 1.36634e-20)
(0.94348 0.0714633 -4.28124e-20)
(1.1895 0.119131 -2.1865e-21)
(1.34071 0.150405 -1.83508e-20)
(1.41011 0.16347 4.78361e-22)
(1.42664 0.16316 8.65373e-21)
(1.41627 0.15446 -9.61189e-21)
(1.39585 0.14148 2.68615e-20)
(0.0951759 -0.00883834 1.11706e-20)
(0.367298 -0.00654747 -2.75339e-20)
(0.69719 0.0387658 -6.51633e-20)
(1.00927 0.0972005 6.00714e-20)
(1.23855 0.146191 -4.48922e-21)
(1.3688 0.175121 1.32884e-20)
(1.42119 0.184769 -1.83708e-21)
(1.42711 0.181499 1.27769e-20)
(1.41152 0.170534 -9.46143e-22)
(1.38894 0.156813 -2.08205e-20)
(0.114054 -0.00690929 -2.27165e-20)
(0.416479 0.00456497 3.57383e-20)
(0.761965 0.0609781 2.96325e-20)
(1.06912 0.125432 -4.27192e-20)
(1.28012 0.174489 -7.05532e-21)
(1.39029 0.200266 2.70455e-21)
(1.42763 0.206173 2.7122e-20)
(1.42483 0.199863 1.38637e-21)
(1.40525 0.186668 5.32573e-21)
(1.38113 0.172122 -1.14843e-20)
(0.134023 -0.00368839 1.72329e-20)
(0.466089 0.0189057 -1.55697e-20)
(0.823669 0.0865233 -1.32464e-20)
(1.12256 0.155807 2.27624e-20)
(1.31446 0.203742 7.8764e-21)
(1.40581 0.225684 5.95038e-21)
(1.43006 0.227617 -2.7605e-20)
(1.42018 0.218229 -9.50996e-21)
(1.39766 0.202838 -8.55446e-21)
(1.37247 0.187373 3.77322e-21)
(0.154841 0.000947825 -8.54154e-21)
(0.515322 0.0365071 -2.01824e-22)
(0.881406 0.115124 2.50582e-20)
(1.16931 0.187966 -9.21047e-21)
(1.3419 0.233686 -4.05317e-21)
(1.41593 0.251234 -2.67493e-21)
(1.42896 0.249042 6.67986e-21)
(1.41347 0.236564 1.15942e-20)
(1.38883 0.219007 -3.69327e-22)
(1.36298 0.202521 4.2805e-21)
(0.176227 0.00709436 6.01476e-21)
(0.563372 0.0573113 -1.68989e-21)
(0.934434 0.146446 -4.4768e-21)
(1.20926 0.22155 -4.05587e-21)
(1.36284 0.264074 3.65881e-21)
(1.42118 0.27679 2.862e-21)
(1.42476 0.270382 -2.64408e-21)
(1.40491 0.254822 9.691e-22)
(1.37886 0.23512 1.36754e-21)
(1.35266 0.217507 -1.82905e-21)
(0.197874 0.0148124 3.20163e-21)
(0.609462 0.0811739 9.16699e-22)
(0.98217 0.180114 -5.51529e-21)
(1.24239 0.2562 -4.40491e-21)
(1.37765 0.294671 4.60112e-21)
(1.42202 0.302224 9.01382e-22)
(1.41778 0.291564 -2.13026e-21)
(1.39466 0.272944 2.00976e-21)
(1.36777 0.251107 1.13372e-21)
(1.34152 0.232266 -1.31875e-21)
(0.219454 0.0241255 -1.2579e-21)
(0.65287 0.107871 2.56923e-21)
(1.02418 0.215723 1.69459e-20)
(1.26883 0.291564 -7.53468e-21)
(1.38676 0.325254 -3.71771e-21)
(1.41886 0.327413 -4.21329e-21)
(1.40828 0.312506 8.67574e-21)
(1.38283 0.290854 5.8805e-21)
(1.35558 0.266884 4.74421e-21)
(1.32955 0.246728 2.61334e-21)
(0.240628 0.0350174 2.55558e-20)
(0.692949 0.13711 -1.41263e-20)
(1.06015 0.252844 -1.61473e-20)
(1.28874 0.327295 2.19334e-20)
(1.39053 0.355606 1.15837e-20)
(1.41205 0.352229 -7.84924e-22)
(1.39645 0.333116 -1.4537e-20)
(1.36948 0.308462 -1.05477e-20)
(1.3423 0.282352 -1.11907e-20)
(1.31674 0.260817 6.75423e-21)
(0.261059 0.0474313 -3.45402e-20)
(0.72914 0.168539 3.26015e-20)
(1.08993 0.29104 3.75198e-20)
(1.30233 0.363054 -3.70822e-20)
(1.38934 0.385512 -1.29017e-20)
(1.40189 0.37654 8.36402e-21)
(1.38248 0.353293 1.53313e-20)
(1.35466 0.325673 2.46426e-21)
(1.3279 0.297406 -4.86386e-22)
(1.30299 0.274456 -9.33221e-21)
(0.280417 0.0612716 -4.91639e-21)
(0.760976 0.201756 -4.57555e-20)
(1.11341 0.329864 -4.90806e-20)
(1.30988 0.398512 5.52177e-20)
(1.38354 0.414765 -6.29258e-21)
(1.38863 0.400209 1.17533e-20)
(1.36648 0.372927 2.37722e-21)
(1.33841 0.342391 -6.64516e-21)
(1.31236 0.311966 3.58044e-21)
(1.28812 0.287565 -5.93238e-22)
(0.298387 0.0764058 1.00332e-20)
(0.788095 0.236327 2.82969e-20)
(1.13063 0.368871 1.60857e-20)
(1.31166 0.433349 -1.26527e-20)
(1.37346 0.443158 -1.98355e-20)
(1.37251 0.423093 -1.87037e-20)
(1.34856 0.3919 -3.84705e-21)
(1.32079 0.358522 1.0509e-20)
(1.2957 0.326018 -2.23092e-21)
(1.27203 0.300057 5.1825e-21)
(0.314684 0.0926676 -3.78413e-20)
(0.810235 0.271794 -3.54873e-20)
(1.14167 0.40762 -5.64101e-21)
(1.30798 0.467255 -6.37753e-21)
(1.35939 0.470487 -1.47247e-20)
(1.35373 0.445041 9.15524e-21)
(1.32883 0.410077 -1.62684e-21)
(1.30182 0.37394 -9.25174e-21)
(1.27799 0.339564 8.43877e-21)
(1.25504 0.31187 -1.28428e-20)
(0.329053 0.10986 9.0127e-21)
(0.827228 0.30769 3.00814e-20)
(1.14667 0.445683 2.62689e-20)
(1.29914 0.499929 2.8719e-20)
(1.34163 0.496551 4.63697e-22)
(1.33247 0.465905 2.59836e-20)
(1.30736 0.427322 1.9213e-21)
(1.28157 0.388489 -3.20916e-20)
(1.25914 0.352382 2.35244e-20)
(1.23741 0.322977 8.78184e-21)
(0.341277 0.127762 2.44775e-20)
(0.838993 0.343545 5.49626e-20)
(1.14583 0.482644 -7.28932e-21)
(1.28547 0.531083 -3.62373e-20)
(1.32045 0.521155 1.6488e-20)
(1.30889 0.48553 -1.74855e-20)
(1.28428 0.443499 -2.42307e-20)
(1.26008 0.402111 -2.5921e-21)
(1.23914 0.364301 -2.01233e-20)
(1.21906 0.333258 8.07159e-21)
(0.351182 0.146135 1.15809e-20)
(0.845526 0.378896 8.71307e-21)
(1.13942 0.518106 6.92708e-20)
(1.26731 0.560441 1.3236e-20)
(1.29612 0.544105 -1.17688e-20)
(1.28319 0.503754 -6.08343e-21)
(1.25971 0.458467 3.78508e-20)
(1.23739 0.414684 3.20583e-20)
(1.21813 0.375239 1.64236e-20)
(1.19992 0.342586 -2.42399e-21)
(0.358634 0.164725 2.51187e-21)
(0.846899 0.413293 -5.62833e-20)
(1.12772 0.551695 -8.16445e-20)
(1.24498 0.587748 2.80564e-21)
(1.26888 0.565205 1.68633e-20)
(1.25553 0.520417 -2.36232e-20)
(1.2337 0.472093 -5.66889e-20)
(1.21352 0.426089 -1.74818e-20)
(1.19616 0.38509 -1.13666e-21)
(1.18001 0.350878 1.01294e-20)
(0.363545 0.183275 -2.01943e-20)
(0.843257 0.446302 5.13447e-20)
(1.1111 0.583063 4.93335e-20)
(1.21882 0.612764 -4.66576e-20)
(1.23898 0.58427 7.04143e-21)
(1.22606 0.535357 5.95518e-20)
(1.20636 0.484244 -1.48276e-20)
(1.18859 0.436208 1.22737e-20)
(1.17331 0.393758 -7.0327e-21)
(1.15937 0.358061 -9.64749e-21)
(0.365876 0.201521 -4.58141e-20)
(0.834826 0.477501 -8.08706e-20)
(1.08992 0.611906 -1.5999e-20)
(1.18904 0.635228 2.66492e-20)
(1.20669 0.60114 2.76473e-20)
(1.19496 0.548418 -6.03775e-20)
(1.17781 0.49479 3.48092e-20)
(1.16268 0.444933 -2.07968e-20)
(1.14964 0.401147 1.83105e-20)
(1.13811 0.36407 -3.26746e-23)
(0.36564 0.219204 3.48808e-20)
(0.821902 0.506506 2.15845e-21)
(1.06444 0.637944 -7.87718e-21)
(1.15597 0.654935 -3.41874e-20)
(1.1723 0.615597 2.40359e-20)
(1.16241 0.559476 4.13076e-21)
(1.14818 0.503613 -2.22527e-20)
(1.1359 0.452159 2.24455e-21)
(1.12525 0.407161 -6.21241e-21)
(1.1163 0.368828 5.43442e-21)
(0.362909 0.236061 -9.85123e-21)
(0.804805 0.533031 -1.43512e-20)
(1.03475 0.660774 3.58138e-20)
(1.12014 0.67176 1.68984e-20)
(1.13608 0.627487 -2.39639e-20)
(1.1286 0.568392 3.88638e-20)
(1.1176 0.5106 1.83523e-21)
(1.10835 0.45779 1.16246e-21)
(1.10021 0.411697 -6.52442e-21)
(1.09405 0.372239 -7.48123e-22)
(0.357769 0.251795 6.4613e-20)
(0.78373 0.556876 5.00341e-20)
(1.00133 0.68018 -2.5131e-21)
(1.08196 0.685391 -8.79032e-21)
(1.09827 0.636737 -1.0245e-20)
(1.0937 0.575057 -5.4041e-21)
(1.08622 0.515653 7.57812e-22)
(1.08015 0.461744 3.38045e-21)
(1.07465 0.414661 6.76922e-21)
(1.07144 0.374199 1.85628e-21)
(0.350272 0.26609 6.69221e-21)
(0.758821 0.577595 9.52574e-21)
(0.964925 0.696169 -5.00712e-20)
(1.04174 0.695666 2.35579e-20)
(1.05914 0.643207 1.03919e-20)
(1.05791 0.579368 -2.4604e-20)
(1.0542 0.518681 7.25752e-21)
(1.0514 0.463947 1.00526e-21)
(1.04868 0.415986 -7.89087e-22)
(1.0487 0.374666 -1.45202e-21)
(0.340504 0.278722 -2.44195e-20)
(0.730443 0.594759 -1.89676e-20)
(0.925964 0.708472 1.82373e-20)
(0.999793 0.702548 6.99934e-21)
(1.01893 0.646798 -8.50334e-21)
(1.02142 0.581229 1.05525e-20)
(1.02165 0.519593 2.54289e-22)
(1.02221 0.464304 3.41033e-21)
(1.02256 0.415601 3.3769e-21)
(1.02659 0.373694 2.94252e-21)
(0.328698 0.28955 -2.00723e-20)
(0.699141 0.608203 5.599e-20)
(0.88478 0.716872 -3.80221e-20)
(0.956451 0.705949 -3.86426e-21)
(0.977917 0.647429 -1.01686e-20)
(0.984427 0.580566 6.4807e-21)
(0.988696 0.518309 -3.15117e-22)
(0.992687 0.462674 5.98776e-22)
(0.996748 0.413282 2.55403e-21)
(1.00593 0.371294 -3.66611e-22)
(0.315058 0.298459 -1.5433e-22)
(0.665355 0.617788 -1.62608e-20)
(0.841783 0.721211 1.21175e-20)
(0.91206 0.705791 -8.85406e-21)
(0.936352 0.645043 -2.32777e-21)
(0.947104 0.577334 1.91178e-21)
(0.955451 0.514793 4.04956e-21)
(0.963027 0.458966 -4.95501e-21)
(0.971603 0.408626 -1.03615e-20)
(0.985932 0.366647 6.1464e-21)
(0.29977 0.305277 3.15486e-21)
(0.62953 0.623387 3.07323e-22)
(0.797397 0.721401 3.60024e-22)
(0.866968 0.702015 -4.42977e-21)
(0.894504 0.639603 -1.09611e-21)
(0.909654 0.57151 -8.51651e-21)
(0.922119 0.509053 -2.11938e-21)
(0.933533 0.453333 -2.3916e-21)
(0.947084 0.401909 1.78864e-20)
(0.963302 0.355899 -2.57934e-21)
(0.283065 0.309871 -1.08217e-20)
(0.592104 0.624902 -5.94963e-21)
(0.752049 0.717399 3.37151e-21)
(0.821522 0.694592 1.72968e-21)
(0.852638 0.631087 -5.64612e-21)
(0.872297 0.563072 2.00843e-20)
(0.888975 0.501059 -1.64849e-20)
(0.904439 0.445861 2.03918e-20)
(0.921953 0.395202 -1.41957e-20)
(0.937795 0.350745 -2.00299e-20)
(0.265195 0.312139 3.87806e-21)
(0.553508 0.622268 -4.15776e-21)
(0.706161 0.70919 1.85447e-21)
(0.776066 0.683519 8.1845e-21)
(0.811021 0.619493 -5.11505e-21)
(0.835265 0.552003 7.56764e-21)
(0.856232 0.490758 9.28107e-21)
(0.875766 0.436239 -4.96127e-21)
(0.896698 0.386092 -1.58206e-20)
(0.913549 0.341816 2.12947e-20)
(0.246418 0.312008 4.79084e-21)
(0.514174 0.615461 5.59138e-21)
(0.660148 0.696796 -7.33511e-21)
(0.730935 0.668821 -6.13935e-21)
(0.769919 0.60484 2.99271e-20)
(0.798778 0.538325 -3.15319e-20)
(0.824036 0.47821 3.97693e-20)
(0.847503 0.424742 -9.72776e-21)
(0.871502 0.375725 1.05647e-20)
(0.890049 0.332692 2.10134e-20)
(0.226999 0.309437 -7.52265e-22)
(0.474529 0.604492 -7.13737e-21)
(0.614416 0.680266 -7.19382e-21)
(0.686462 0.650547 -3.04413e-21)
(0.729595 0.587166 5.67935e-21)
(0.763059 0.522064 -9.58154e-21)
(0.792562 0.46342 -1.17369e-20)
(0.819826 0.411284 -2.7603e-20)
(0.846763 0.363638 2.77187e-20)
(0.867456 0.322052 -8.50622e-21)
(0.207201 0.304409 1.96459e-20)
(0.434993 0.589409 -3.28613e-21)
(0.569359 0.659679 -1.02721e-20)
(0.642966 0.628772 1.20219e-20)
(0.690309 0.566532 -2.12118e-20)
(0.728319 0.50327 6.01377e-20)
(0.761976 0.446446 -3.24171e-20)
(0.7929 0.395964 2.9691e-20)
(0.822708 0.350012 -5.4363e-20)
(0.845787 0.310064 -1.46119e-20)
(0.187286 0.296937 -4.42154e-21)
(0.395973 0.570298 2.10872e-20)
(0.525356 0.635145 4.40239e-21)
(0.600759 0.603594 -1.17376e-20)
(0.652309 0.543019 -2.05783e-20)
(0.694765 0.482009 -2.45761e-23)
(0.73245 0.427339 1.08056e-20)
(0.766894 0.378811 -2.72471e-20)
(0.7995 0.334812 1.30599e-20)
(0.825075 0.296641 1.67074e-21)
(0.167514 0.28706 -3.67864e-20)
(0.357866 0.547278 -8.75172e-21)
(0.482773 0.606801 -2.70562e-21)
(0.560137 0.575135 3.15021e-20)
(0.615838 0.516727 -2.98102e-20)
(0.662597 0.458365 -7.36893e-21)
(0.704157 0.406176 -4.77686e-21)
(0.74197 0.359892 8.48221e-21)
(0.77728 0.318084 -1.12401e-20)
(0.805382 0.281825 -1.73613e-20)
(0.148136 0.274844 3.42121e-20)
(0.321047 0.520499 -1.97916e-20)
(0.441957 0.574812 7.10411e-22)
(0.521384 0.543539 -4.83914e-20)
(0.581125 0.487775 5.28703e-20)
(0.632007 0.432439 -1.6759e-20)
(0.677262 0.383041 1.00214e-20)
(0.718275 0.339274 8.80785e-21)
(0.756172 0.299871 2.55213e-20)
(0.786778 0.265662 -1.07495e-20)
(0.129393 0.260378 -1.37599e-20)
(0.285877 0.490143 4.14335e-20)
(0.403235 0.539368 2.35609e-20)
(0.484769 0.508972 3.9292e-20)
(0.54839 0.456301 -8.94313e-21)
(0.603179 0.404347 3.69548e-21)
(0.651922 0.358035 2.96878e-20)
(0.695949 0.31704 6.76742e-21)
(0.736291 0.280238 6.57603e-22)
(0.769337 0.248222 -1.29781e-20)
(0.111516 0.243777 -3.36052e-20)
(0.252691 0.456423 -2.31985e-21)
(0.366913 0.500684 -1.41287e-20)
(0.450542 0.471619 -6.40857e-20)
(0.517838 0.422461 -6.2188e-20)
(0.576287 0.37422 1.03006e-20)
(0.628288 0.33127 -2.55615e-20)
(0.67512 0.293283 1.65678e-20)
(0.717747 0.259264 8.9588e-21)
(0.753135 0.229587 1.83608e-20)
(0.0947203 0.225175 5.05588e-20)
(0.221801 0.419576 -4.14294e-20)
(0.333276 0.458997 -2.12137e-20)
(0.418936 0.431685 3.71581e-20)
(0.48966 0.386426 4.26845e-20)
(0.551492 0.342206 -1.43683e-20)
(0.606497 0.302872 -1.963e-21)
(0.65591 0.268109 -5.13066e-20)
(0.700641 0.237039 -2.89749e-20)
(0.738241 0.209848 1.10988e-20)
(0.0792057 0.204729 -2.89434e-20)
(0.193495 0.379864 1.21507e-20)
(0.302582 0.414565 4.51709e-20)
(0.390163 0.389392 -2.06049e-20)
(0.464032 0.348383 1.77795e-21)
(0.528943 0.308463 5.77339e-20)
(0.586677 0.272978 2.54476e-21)
(0.638429 0.241635 4.9547e-20)
(0.68507 0.213666 2.06239e-20)
(0.724725 0.189104 -3.28188e-20)
(0.0651542 0.18261 4.09222e-20)
(0.16803 0.337571 4.67503e-21)
(0.275065 0.367666 3.04632e-21)
(0.364416 0.344977 4.16378e-20)
(0.441111 0.308533 -5.44407e-21)
(0.508775 0.273162 -3.63646e-20)
(0.568944 0.241736 1.78203e-20)
(0.622778 0.213988 -2.85564e-20)
(0.671122 0.189256 -1.18588e-20)
(0.712646 0.167459 1.19857e-20)
(0.0527279 0.159011 -2.54785e-20)
(0.145636 0.293004 -4.92708e-20)
(0.250931 0.318593 1.15013e-20)
(0.341864 0.298693 -2.24565e-20)
(0.42104 0.267089 -1.34507e-20)
(0.491107 0.236486 3.28257e-20)
(0.553401 0.209301 -7.93363e-21)
(0.609047 0.185301 7.22653e-21)
(0.658874 0.163926 -8.85891e-21)
(0.702061 0.145022 1.76769e-20)
(0.0420682 0.134134 9.3984e-21)
(0.126512 0.246483 3.338e-20)
(0.23036 0.267656 -4.65619e-20)
(0.322655 0.250803 2.19315e-20)
(0.403941 0.224274 -1.00207e-20)
(0.476044 0.198628 -2.81928e-20)
(0.540137 0.17584 2.30755e-20)
(0.597315 0.155719 4.78258e-21)
(0.648398 0.137804 -7.386e-22)
(0.693018 0.121906 -2.05442e-20)
(0.0332943 0.108198 3.12403e-21)
(0.110823 0.198345 1.09032e-20)
(0.213501 0.215175 4.23374e-20)
(0.306912 0.201584 -8.16344e-21)
(0.389915 0.180322 -6.43491e-21)
(0.463673 0.159786 2.35132e-21)
(0.529228 0.141524 1.13111e-21)
(0.58765 0.125389 8.62461e-21)
(0.639753 0.11102 -1.13529e-20)
(0.685558 0.0982263 -7.20692e-21)
(0.026502 0.0814301 -7.7495e-21)
(0.0987045 0.148939 -1.32607e-20)
(0.200474 0.161483 -3.31317e-20)
(0.294734 0.151318 1.66855e-20)
(0.379046 0.135473 1.35774e-20)
(0.454064 0.120168 5.79958e-22)
(0.520735 0.106533 -2.26859e-20)
(0.580106 0.094467 -1.01033e-20)
(0.632987 0.0837101 7.95352e-21)
(0.679713 0.0741002 8.53627e-21)
(0.0217635 0.0540641 1.3632e-21)
(0.0902549 0.0986233 -2.8134e-21)
(0.191368 0.106919 6.2787e-21)
(0.286196 0.100297 -4.24736e-21)
(0.371395 0.0899744 -3.7845e-21)
(0.447272 0.0799842 -2.55993e-21)
(0.514704 0.071048 4.68819e-21)
(0.574724 0.0631102 1.78637e-20)
(0.628138 0.0560125 2.57501e-21)
(0.675507 0.0496426 -4.56136e-21)
(0.0191261 0.0263412 1.68254e-21)
(0.0855401 0.0477635 -4.62798e-21)
(0.186244 0.0518292 -5.24747e-21)
(0.281346 0.0488152 -3.63876e-21)
(0.367004 0.0440766 3.46256e-21)
(0.44333 0.0394513 1.56134e-21)
(0.511166 0.0352553 -1.55351e-21)
(0.571531 0.0314798 -7.08442e-21)
(0.625228 0.0280674 2.33165e-21)
(0.672954 0.0249672 -2.17763e-21)
(0.0186124 -0.00149495 -1.69691e-21)
(0.0845909 -0.00327187 4.66617e-21)
(0.185127 -0.0034378 5.28543e-21)
(0.280207 -0.00282849 -5.05532e-21)
(0.365891 -0.00196728 4.44925e-21)
(0.442255 -0.00121372 2.22626e-21)
(0.510134 -0.000657211 -3.55136e-21)
(0.570541 -0.000260138 -4.13092e-21)
(0.624269 2.292e-05 6.10186e-22)
(0.67205 0.000220702 -1.71638e-21)
(0.0202195 -0.0291995 1.85935e-21)
(0.0874031 -0.0541127 -5.55806e-21)
(0.188015 -0.0585321 1.25082e-20)
(0.282776 -0.0543353 -1.09722e-20)
(0.368054 -0.0479033 -5.09013e-22)
(0.444045 -0.0417929 -7.26674e-21)
(0.511609 -0.036502 1.18091e-20)
(0.571755 -0.0319474 1.60516e-20)
(0.625273 -0.0279818 2.87691e-21)
(0.672847 -0.024497 -6.18529e-21)
(0.0239197 -0.056529 -1.61747e-21)
(0.0939376 -0.10439 -1.185e-20)
(0.194872 -0.113105 -2.74858e-20)
(0.289024 -0.105407 2.37519e-20)
(0.37347 -0.0934788 4.91177e-21)
(0.448682 -0.0820694 4.32604e-21)
(0.515572 -0.0720922 -2.13335e-20)
(0.575157 -0.063421 -1.25382e-20)
(0.628214 -0.0558092 -2.77021e-21)
(0.675285 -0.0490911 1.91228e-20)
(0.0296603 -0.0832441 -5.7122e-21)
(0.104121 -0.153742 7.11622e-21)
(0.205633 -0.166812 5.00427e-20)
(0.298898 -0.155751 -4.46502e-21)
(0.382094 -0.138444 -1.28e-20)
(0.456126 -0.121829 9.20663e-21)
(0.521991 -0.107243 5.68182e-22)
(0.580717 -0.0945194 3.2492e-21)
(0.63307 -0.0833139 -7.0763e-21)
(0.679358 -0.0734184 -1.87155e-20)
(0.037364 -0.109111 -3.88221e-21)
(0.117844 -0.201809 2.10253e-20)
(0.2202 -0.219316 -5.05242e-20)
(0.312317 -0.205076 2.19389e-20)
(0.393859 -0.182554 1.96748e-22)
(0.466321 -0.160861 -2.77237e-20)
(0.530817 -0.141772 1.22004e-20)
(0.588393 -0.125085 -1.10659e-21)
(0.639804 -0.110358 4.63466e-21)
(0.685043 -0.0973657 -1.44836e-21)
(0.0469299 -0.133906 -4.45035e-20)
(0.134967 -0.248247 -5.30393e-20)
(0.238446 -0.270285 1.38164e-20)
(0.329177 -0.253101 -2.51098e-20)
(0.408679 -0.225569 -7.15645e-21)
(0.479193 -0.19896 1.05522e-20)
(0.541988 -0.175504 3.93852e-21)
(0.598129 -0.154966 1.46428e-20)
(0.648367 -0.136809 -3.15781e-21)
(0.692306 -0.12082 1.6855e-20)
(0.0582338 -0.157412 4.25889e-20)
(0.155314 -0.29272 2.72876e-20)
(0.260214 -0.319401 -2.07779e-20)
(0.349348 -0.299553 3.48979e-20)
(0.426446 -0.26726 -3.04852e-21)
(0.494652 -0.23593 -3.76148e-20)
(0.555425 -0.208268 6.61177e-21)
(0.609857 -0.184014 -3.98264e-20)
(0.658698 -0.162535 1.49908e-21)
(0.701106 -0.143669 1.44797e-20)
(0.0711299 -0.179431 -3.19871e-20)
(0.178679 -0.334911 5.71197e-20)
(0.285318 -0.366359 2.23222e-20)
(0.372679 -0.344171 -2.74224e-20)
(0.447036 -0.307405 1.3982e-22)
(0.512591 -0.271581 6.94734e-20)
(0.571037 -0.239902 3.22686e-21)
(0.623496 -0.212088 3.08111e-20)
(0.670728 -0.187414 3.74925e-20)
(0.711395 -0.165801 -2.10046e-20)
(0.0854517 -0.199773 1.79465e-20)
(0.204824 -0.37452 -8.55065e-21)
(0.313544 -0.410868 -2.03266e-20)
(0.398993 -0.386706 1.54631e-20)
(0.470303 -0.345794 5.86763e-20)
(0.532888 -0.305733 -2.04812e-20)
(0.588719 -0.27025 -3.28426e-21)
(0.638955 -0.239056 -4.4697e-20)
(0.684375 -0.211328 -5.52435e-20)
(0.723117 -0.187111 2.4123e-20)
(0.101013 -0.218271 -2.41825e-20)