/*--------------------------------*- C++ -*----------------------------------*\
  =========                 |
  \\      /  F ield         | OpenFOAM: The Open Source CFD Toolbox
   \\    /   O peration     | Website:  https://openfoam.org
    \\  /    A nd           | Version:  7
     \\/     M anipulation  |
\*---------------------------------------------------------------------------*/
FoamFile
{
    version     2.0;
    format      ascii;
    class       volVectorField;
    location    "390";
    object      U;
}
// * * * * * * * * * * * * * * * * * * * * * * * * * * * * * * * * * * * * * //

dimensions      [0 1 -1 0 0 0 0];

internalField   nonuniform List<vector> 
2125
(
(1.39301 -0.0944464 -1.28523e-20)
(1.39531 -0.0884349 -3.74819e-20)
(1.39393 -0.078703 -6.33351e-21)
(1.34119 -0.0688431 2.61864e-20)
(1.38507 -0.0721189 -3.03351e-21)
(1.39243 -0.0627387 3.168e-20)
(0.989358 -0.0187788 7.53193e-20)
(1.18367 -0.0389366 -1.5634e-19)
(1.30764 -0.0507269 3.16719e-20)
(1.36942 -0.055741 -2.4496e-20)
(1.38774 -0.0464745 -3.36541e-20)
(0.653381 0.0128425 1.56877e-20)
(0.90559 -0.00401192 -1.27605e-19)
(1.11784 -0.0217083 8.61249e-20)
(1.26495 -0.0330497 -6.68525e-20)
(1.34709 -0.0393582 6.57691e-20)
(1.3788 -0.0298495 -2.88761e-21)
(0.338872 0.0204149 -6.98864e-22)
(0.56701 0.018287 5.25061e-20)
(0.81624 0.00767965 2.51387e-21)
(1.04232 -0.00633867 -7.01212e-20)
(1.21208 -0.016106 -2.2685e-21)
(1.31667 -0.0231014 -2.872e-20)
(1.36437 -0.0127856 3.37491e-20)
(0.123937 0.00791183 9.94038e-21)
(0.276735 0.0164346 2.77235e-20)
(0.483527 0.0198568 -4.70211e-20)
(0.723541 0.0158183 1.1091e-19)
(0.957896 0.00661819 -7.47539e-22)
(1.14831 -0.000294622 -9.57235e-21)
(1.27676 -0.00719799 -5.70381e-20)
(1.34264 0.00468702 -7.52348e-21)
(0.0907063 7.27788e-05 7.84917e-21)
(0.221164 0.00985631 -2.01261e-20)
(0.405053 0.0176361 -2.33658e-20)
(0.630271 0.0200055 -1.51685e-20)
(0.866212 0.0165534 -1.14924e-20)
(1.0735 0.0138663 1.34593e-20)
(1.22598 0.00800627 5.53002e-20)
(1.31227 0.0225456 4.03811e-20)
(0.00112964 -0.0135155 4.25601e-20)
(0.0625497 -0.00887927 -9.80926e-20)
(0.172553 0.0010095 5.47968e-20)
(0.333339 0.0118677 4.80789e-20)
(0.539481 0.0200085 -1.21362e-19)
(0.769868 0.0228629 3.26742e-20)
(0.988334 0.0257659 -2.07079e-21)
(1.16367 0.0219824 2.39256e-20)
(1.27 0.0405511 -4.51117e-20)
(-0.0154796 -0.0130117 1.20567e-19)
(-0.00906187 -0.0204415 -3.32128e-20)
(0.0391278 -0.0188126 4.83328e-20)
(0.130959 -0.00978686 3.04241e-20)
(0.269606 0.00293225 -1.66078e-20)
(0.454098 0.0158466 3.89269e-20)
(0.672271 0.0250679 -1.65134e-20)
(0.894629 0.0346868 9.20226e-20)
(1.08938 0.0342414 -1.47515e-19)
(1.2166 0.0580056 -4.92451e-20)
(-0.0168143 -0.0153418 -3.54918e-20)
(-0.0171983 -0.0276989 1.33094e-19)
(0.0199874 -0.0296146 -1.04523e-19)
(0.0961277 -0.022206 -2.97539e-21)
(0.214459 -0.00867424 -4.84167e-20)
(0.376498 0.00784255 5.2908e-20)
(0.577236 0.0229705 5.7984e-20)
(0.795354 0.03997 -2.87591e-20)
(1.00456 0.0438976 2.37093e-20)
(1.14543 0.0746911 2.85391e-20)
(-0.0178454 -0.0178272 7.35395e-21)
(-0.0236517 -0.0353364 -3.66496e-20)
(0.00458989 -0.0411583 4.5402e-20)
(0.067526 -0.0358847 -4.26061e-20)
(0.167885 -0.0223543 -5.22074e-20)
(0.308185 -0.00338121 -2.36085e-20)
(0.488322 0.0168172 -8.81345e-20)
(0.694266 0.0408621 5.43568e-20)
(0.912875 0.0515107 9.95212e-20)
(1.05815 0.0856696 -3.18006e-20)
(-0.0187011 -0.0205493 2.27484e-20)
(-0.0287671 -0.0433782 1.73983e-20)
(-0.00765181 -0.0532724 -4.11802e-21)
(0.0443979 -0.0504009 -7.40654e-20)
(0.12931 -0.0374182 7.72622e-20)
(0.249655 -0.0169618 8.70933e-20)
(0.408053 0.0073269 3.00665e-20)
(0.596435 0.0364393 -4.17559e-21)
(0.812184 0.060137 -1.06874e-19)
(0.989122 0.0814385 3.21151e-20)
(-0.0194696 -0.0235668 -6.86306e-20)
(-0.0328398 -0.0517997 -8.64731e-21)
(-0.0173288 -0.0657231 1.81882e-20)
(0.0258469 -0.0652679 5.74776e-21)
(0.0977288 -0.0531044 2.34714e-20)
(0.200446 -0.0318797 -1.40285e-19)
(0.337583 -0.00452835 8.46891e-20)
(0.506093 0.0274259 -1.02295e-19)
(0.707044 0.065609 7.43586e-20)
(0.912473 0.0827578 9.03793e-20)
(-0.0201942 -0.0269026 3.02799e-20)
(-0.0360981 -0.0605122 -1.92207e-20)
(-0.0249905 -0.0782111 8.54346e-21)
(0.0109342 -0.0799482 -4.0431e-20)
(0.0718767 -0.0686182 5.42482e-21)
(0.159354 -0.0470536 -1.10345e-20)
(0.276777 -0.0176296 -5.3175e-20)
(0.42527 0.0159184 2.79687e-20)
(0.603059 0.0656218 5.66537e-20)
(0.825981 0.0860376 -8.28588e-20)
(-0.0208747 -0.0305346 -4.17021e-20)
(-0.0386964 -0.0693573 -6.0733e-20)
(-0.0311063 -0.0903818 4.76155e-20)
(-0.00122579 -0.093884 4.61278e-20)
(0.0504242 -0.0831844 -1.14097e-19)
(0.124767 -0.0614387 1.14476e-19)
(0.224532 -0.0307442 -1.29189e-19)
(0.353925 0.00413736 3.64953e-20)
(0.505312 0.0609248 -3.90385e-20)
(0.731104 0.088144 -6.40271e-20)
(-0.0214748 -0.0343941 2.14683e-20)
(-0.0407189 -0.0781124 4.86874e-20)
(-0.036043 -0.101846 1.21536e-20)
(-0.0113872 -0.106536 1.33036e-20)
(0.0321542 -0.0961049 -7.72865e-22)
(0.095018 -0.0741231 2.01069e-20)
(0.179218 -0.0426529 3.98937e-20)
(0.290741 -0.00625267 7.70636e-20)
(0.41683 0.0535461 -7.66016e-20)
(0.631833 0.0886083 2.85502e-20)
(-0.0219342 -0.0383687 -5.18026e-20)
(-0.0421923 -0.0865049 9.47365e-22)
(-0.0400595 -0.112209 1.64257e-20)
(-0.020129 -0.117421 -2.94643e-20)
(0.0160837 -0.10681 5.85761e-20)
(0.0686675 -0.0844014 -1.39479e-19)
(0.13912 -0.0523505 7.51426e-20)
(0.233991 -0.01428 -7.14315e-20)
(0.338194 0.0455995 1.39377e-19)
(0.532462 0.0880027 3.6607e-20)
(-0.0221829 -0.042312 2.75246e-20)
(-0.0431059 -0.0942335 -5.48038e-20)
(-0.0433174 -0.121099 -1.65256e-20)
(-0.0278452 -0.126148 2.4539e-20)
(0.0015211 -0.114894 4.1445e-20)
(0.0446618 -0.0918171 6.83358e-21)
(0.102801 -0.059192 -2.54698e-20)
(0.182161 -0.0195521 5.95906e-20)
(0.268268 0.0387861 -3.4899e-20)
(0.436373 0.086928 -4.51459e-21)
(-0.0221542 -0.0460553 7.41478e-20)
(-0.0434328 -0.100993 2.03098e-20)
(-0.0459023 -0.128194 3.69209e-21)
(-0.034763 -0.132435 -5.35606e-20)
(-0.0119399 -0.120126 4.79368e-20)
(0.0223624 -0.0961668 1.61924e-20)
(0.0692776 -0.0629236 8.25662e-21)
(0.134252 -0.0220623 -1.85294e-20)
(0.205326 0.0341449 2.18593e-20)
(0.345782 0.0858086 3.69731e-20)
(-0.0217963 -0.0494231 -5.50392e-20)
(-0.0431489 -0.106499 2.99876e-20)
(-0.0478487 -0.133241 -3.48758e-21)
(-0.0409791 -0.136121 7.64535e-20)
(-0.0244708 -0.122438 -8.42927e-20)
(0.00148816 -0.0974655 2.8423e-20)
(0.038046 -0.0636078 -1.79044e-20)
(0.0897835 -0.0220178 -1.63664e-20)
(0.147899 0.032011 -5.05915e-20)
(0.261932 0.0849432 1.89029e-20)
(-0.0210801 -0.0522478 2.37339e-20)
(-0.0422482 -0.110511 -5.92011e-20)
(-0.049165 -0.136074 -3.33265e-20)
(-0.0465017 -0.137157 -5.22776e-20)
(-0.0360782 -0.121899 1.45654e-20)
(-0.0179856 -0.0958853 -4.53322e-21)
(0.00897422 -0.0615103 -4.55992e-20)
(0.0486513 -0.0197039 -9.59989e-21)
(0.0950845 0.0321959 -7.77174e-22)
(0.185343 0.0846266 2.20864e-20)
(-0.0200032 -0.0543831 4.16483e-20)
(-0.0407512 -0.112851 4.26148e-21)
(-0.0498524 -0.136615 1.78227e-20)
(-0.0512881 -0.135593 7.84013e-20)
(-0.0466717 -0.118679 7.86362e-20)
(-0.0359324 -0.0916745 -1.38808e-20)
(-0.0178483 -0.0570066 3.62475e-20)
(0.0109509 -0.0153516 -2.34085e-20)
(0.046471 0.0342758 -1.42476e-20)
(0.116083 0.0853143 -3.35648e-20)
(-0.0185902 -0.0557162 -5.33006e-20)
(-0.0387076 -0.113412 4.43588e-20)
(-0.0499179 -0.134874 2.25153e-20)
(-0.0552816 -0.131569 -4.43764e-20)
(-0.0561171 -0.113025 -5.03306e-20)
(-0.0521939 -0.0851617 1.5968e-20)
(-0.0421998 -0.0504272 1.13464e-21)
(-0.0232661 -0.00931393 7.27491e-20)
(0.00193772 0.0377437 4.43894e-20)
(0.054034 0.0877789 -1.82847e-20)
(-0.0168901 -0.0561745 2.897e-20)
(-0.0361946 -0.112167 -1.27249e-20)
(-0.0493882 -0.130942 -4.55206e-20)
(-0.0584334 -0.125291 1.90927e-20)
(-0.064295 -0.105212 -4.86052e-22)
(-0.0665742 -0.0766825 -6.54374e-20)
(-0.0638971 -0.0420531 -4.05103e-21)
(-0.0540417 -0.00180427 -6.64342e-20)
(-0.0379479 0.0430163 -3.05329e-20)
(-0.00131479 0.0918454 5.14831e-20)
(-0.0149702 -0.0557311 -3.48618e-20)
(-0.0333115 -0.109164 -2.82796e-21)
(-0.0483051 -0.124982 -2.01034e-21)
(-0.0607051 -0.117001 -4.11768e-20)
(-0.0710929 -0.0955285 6.42553e-21)
(-0.0789044 -0.0665104 3.97925e-20)
(-0.0827729 -0.0321659 -2.12737e-20)
(-0.0809411 0.00707023 3.44309e-20)
(-0.0731712 0.0503716 1.60706e-20)
(-0.0506827 0.0972837 -1.83927e-20)
(-0.0129102 -0.0544059 2.20221e-20)
(-0.0301719 -0.104526 4.17588e-20)
(-0.0467258 -0.117216 -9.20912e-21)
(-0.062082 -0.106982 1.93449e-20)
(-0.0764289 -0.0842765 1.32778e-20)
(-0.0890547 -0.0549293 -3.24134e-20)
(-0.0986437 -0.0209908 8.07463e-21)
(-0.103761 0.0172298 -9.34578e-21)
(-0.103727 0.0592824 1.18826e-20)
(-0.0935741 0.104652 -2.34e-20)
(-0.0107948 -0.0522627 -6.84662e-21)
(-0.0268947 -0.0984401 -2.68832e-20)
(-0.0447211 -0.107917 3.73389e-20)
(-0.0625737 -0.0955456 -1.91803e-20)
(-0.0802566 -0.0717666 8.95264e-21)
(-0.096932 -0.0422235 2.71233e-20)
(-0.111357 -0.00875958 -2.31533e-20)
(-0.122348 0.0285096 -6.12239e-21)
(-0.129198 0.0695125 5.64573e-22)
(-0.129343 0.113997 2.80371e-20)
(-0.0087067 -0.0494035 -2.02137e-21)
(-0.0235965 -0.091145 -7.87639e-21)
(-0.0423709 -0.0973947 -3.26819e-20)
(-0.0622142 -0.0830228 6.33311e-21)
(-0.0825672 -0.0583171 5.24014e-21)
(-0.102486 -0.028683 -2.21474e-21)
(-0.120805 0.00426817 -1.57102e-22)
(-0.13654 0.0406701 -9.13796e-21)
(-0.14912 0.0808045 1.28e-20)
(-0.157428 0.124853 8.79154e-21)
(-0.00672057 -0.0459609 5.33554e-21)
(-0.0203849 -0.0829176 9.57461e-21)
(-0.0397618 -0.0859847 2.42328e-20)
(-0.0610615 -0.0697578 -1.24659e-20)
(-0.0833917 -0.0442545 -1.08954e-20)
(-0.105719 -0.0146083 -3.82064e-22)
(-0.126936 0.0178184 2.12431e-20)
(-0.146218 0.0534097 9.94255e-21)
(-0.163135 0.0927876 -8.97808e-21)
(-0.177385 0.136599 -1.01011e-20)
(-0.00489795 -0.0420877 -8.51696e-22)
(-0.0173528 -0.0740574 1.85158e-21)
(-0.0369833 -0.074036 -4.61206e-21)
(-0.0591974 -0.0561018 3.31937e-21)
(-0.0828028 -0.0299132 2.80539e-21)
(-0.106682 -0.000317216 2.02206e-21)
(-0.129777 0.0315696 -4.16663e-21)
(-0.151361 0.0663713 -1.69599e-20)
(-0.171064 0.105016 -2.72692e-21)
(-0.188984 0.148574 5.37484e-21)
(-0.00328437 -0.0379461 1.33289e-21)
(-0.0145758 -0.0648699 -3.35566e-21)
(-0.0341264 -0.0618975 -2.70828e-21)
(-0.0567272 -0.0424054 1.9114e-21)
(-0.0809191 -0.0156318 -2.63215e-21)
(-0.105505 0.0138585 -1.25498e-21)
(-0.129449 0.0451652 1.33437e-21)
(-0.15207 0.0791562 6.53572e-21)
(-0.172954 0.117005 -2.29491e-21)
(-0.192284 0.16012 2.35585e-21)
(1.08887 -0.00184206 -1.53624e-22)
(1.08955 -0.00180843 4.02108e-22)
(1.09021 -0.00177484 -3.95186e-22)
(1.09086 -0.00174126 1.27141e-22)
(1.09149 -0.00170771 3.06639e-22)
(1.0921 -0.00167409 -3.25737e-25)
(1.0927 -0.00164062 -1.44313e-22)
(1.09328 -0.00160671 -2.31251e-22)
(1.09385 -0.00157402 1.51487e-22)
(1.0944 -0.00153812 -6.47026e-23)
(1.09492 -0.0015108 4.66865e-23)
(1.08988 -0.00545143 -1.17379e-22)
(1.09057 -0.00534275 -3.18621e-23)
(1.09125 -0.00523518 8.85557e-23)
(1.09191 -0.00512869 1.97826e-22)
(1.09255 -0.0050234 -1.68666e-23)
(1.09317 -0.00491906 -4.99306e-23)
(1.09378 -0.00481635 -6.34649e-23)
(1.09437 -0.00471349 2.05637e-22)
(1.09494 -0.00461527 5.22287e-23)
(1.0955 -0.00450874 -5.17322e-23)
(1.09603 -0.0044282 -8.50469e-23)
(1.09172 -0.0088972 -2.00158e-22)
(1.09244 -0.00871456 1.42969e-23)
(1.09314 -0.008534 2.23021e-23)
(1.09382 -0.00835549 4.40593e-22)
(1.09448 -0.0081792 -5.8441e-22)
(1.09512 -0.00800472 1.58032e-22)
(1.09575 -0.00783314 1.62054e-22)
(1.09636 -0.00766158 9.2387e-23)
(1.09695 -0.00749769 -8.851e-23)
(1.09753 -0.00732078 -7.75573e-24)
(1.09809 -0.00718565 4.94265e-24)
(1.09433 -0.0122407 2.37666e-22)
(1.09508 -0.011977 -1.45723e-22)
(1.09581 -0.0117163 3.82534e-22)
(1.09652 -0.0114585 -1.58033e-22)
(1.09721 -0.011204 -7.66348e-23)
(1.09788 -0.0109522 -3.95895e-22)
(1.09854 -0.0107046 1.56245e-23)
(1.09918 -0.0104575 1.22813e-23)
(1.0998 -0.010221 1.17936e-22)
(1.10041 -0.00996768 -9.24336e-23)
(1.101 -0.00977025 1.35066e-22)
(1.09763 -0.015469 1.94019e-22)
(1.09842 -0.0151155 -1.46212e-22)
(1.09919 -0.0147658 -8.78547e-23)
(1.09994 -0.01442 -5.57504e-23)
(1.10067 -0.0140784 1.89232e-22)
(1.10138 -0.0137405 2.90805e-22)
(1.10207 -0.0134081 -1.5827e-25)
(1.10274 -0.0130766 2.3311e-22)
(1.1034 -0.0127586 -8.41626e-23)
(1.10405 -0.0124207 4.9965e-22)
(1.10469 -0.0121504 -2.45947e-22)
(1.10158 -0.0186083 -1.97212e-22)
(1.10241 -0.0181529 2.42103e-22)
(1.10322 -0.017702 -1.7475e-22)
(1.10402 -0.0172558 -5.25094e-22)
(1.10479 -0.0168146 5.24535e-23)
(1.10554 -0.0163778 -3.67556e-22)
(1.10628 -0.0159476 1.80658e-22)
(1.107 -0.0155188 5.90474e-22)
(1.1077 -0.0151057 -8.6853e-23)
(1.10839 -0.0146706 -5.15982e-22)
(1.10909 -0.0143112 -1.62642e-22)
(1.10612 -0.0216612 4.98896e-23)
(1.10701 -0.0210886 -1.87256e-22)
(1.10788 -0.0205209 5.52757e-22)
(1.10872 -0.0199582 2.56945e-22)
(1.10955 -0.019401 1.07788e-22)
(1.11035 -0.0188487 1.75861e-22)
(1.11113 -0.0183038 -4.70531e-22)
(1.1119 -0.0177605 -9.0058e-22)
(1.11264 -0.0172341 -3.79139e-22)
(1.11339 -0.0166852 2.33878e-23)
(1.11415 -0.0162146 8.52136e-23)
(1.11125 -0.024637 3.6787e-22)
(1.11219 -0.0239287 2.80603e-22)
(1.11312 -0.0232251 3.37465e-22)
(1.11402 -0.0225264 -6.71156e-22)
(1.1149 -0.0218332 7.77969e-22)
(1.11576 -0.0211449 -2.11773e-22)
(1.1166 -0.020464 7.16796e-22)
(1.11741 -0.0197847 -3.9191e-22)
(1.11821 -0.0191223 6.14491e-22)
(1.11901 -0.018438 8.26303e-22)
(1.11983 -0.0178281 3.14939e-22)
(1.11693 -0.0275414 3.1747e-22)
(1.11795 -0.0266751 2.67192e-23)
(1.11894 -0.0258129 -1.03856e-21)
(1.11991 -0.0249548 3.57978e-22)
(1.12085 -0.0241014 -1.4855e-22)
(1.12177 -0.0232522 -1.00899e-22)
(1.12266 -0.0224094 5.61165e-22)
(1.12353 -0.0215679 -5.21584e-23)
(1.12438 -0.0207411 -6.06306e-22)
(1.12525 -0.0198952 -1.22409e-21)
(1.12614 -0.0191108 1.12602e-22)
(1.12317 -0.0303806 -5.39716e-22)
(1.12427 -0.0293309 1.74641e-22)
(1.12533 -0.0282835 1.28269e-21)
(1.12637 -0.0272386 8.00304e-22)
(1.12738 -0.0261967 -9.20861e-22)
(1.12836 -0.0251572 -4.24617e-22)
(1.12932 -0.024122 -4.53309e-22)
(1.13025 -0.0230871 2.58563e-22)
(1.13115 -0.022062 4.75853e-22)
(1.13209 -0.0210231 7.1596e-22)
(1.13306 -0.0200216 -2.43528e-22)
(1.12997 -0.0331614 1.14246e-22)
(1.13115 -0.031899 -1.43927e-21)
(1.1323 -0.0306363 -5.92364e-24)
(1.13342 -0.0293733 -1.12917e-21)
(1.1345 -0.0281102 6.96644e-22)
(1.13556 -0.0268467 1.03205e-21)
(1.13658 -0.0255835 -1.46191e-22)
(1.13758 -0.024319 -7.5464e-22)
(1.13854 -0.0230558 -3.79933e-22)
(1.13955 -0.021787 4.41707e-22)
(1.14061 -0.0205183 -3.99715e-22)
(1.13601 -0.0373948 7.2035e-22)
(1.13733 -0.0358915 9.55931e-22)
(1.13861 -0.0343838 -3.65573e-23)
(1.13985 -0.0328717 -1.65887e-21)
(1.14106 -0.0313552 -9.0533e-22)
(1.14223 -0.029834 -7.63762e-22)
(1.14337 -0.0283082 1.23131e-21)
(1.14447 -0.0267764 1.66945e-21)
(1.14554 -0.0252413 6.11317e-22)
(1.14657 -0.0236941 5.89713e-23)
(1.14766 -0.0221536 -7.49797e-22)
(1.14881 -0.0205595 1.60692e-21)
(1.14384 -0.0403592 -4.4202e-22)
(1.14527 -0.0385797 -1.8793e-21)
(1.14666 -0.0367906 3.03204e-22)
(1.14801 -0.0349915 6.88659e-22)
(1.14932 -0.0331823 6.89714e-22)
(1.15059 -0.0313617 -8.78378e-22)
(1.15182 -0.029531 -1.63505e-21)
(1.153 -0.0276852 -3.4473e-22)
(1.15416 -0.0258334 7.66341e-22)
(1.15526 -0.0239504 1.64805e-21)
(1.15645 -0.0220913 -4.78031e-22)
(1.15771 -0.0201056 -2.22495e-21)
(1.15224 -0.0433296 1.22696e-21)
(1.15381 -0.0412362 3.64929e-22)
(1.15533 -0.0391263 7.45271e-22)
(1.1568 -0.0369989 -1.41211e-22)
(1.15823 -0.034854 -8.92542e-22)
(1.15961 -0.0326889 6.61562e-23)
(1.16094 -0.0305063 -2.53802e-22)
(1.16222 -0.0282964 -1.47672e-21)
(1.16347 -0.0260772 -2.59941e-21)
(1.16466 -0.0238006 -3.43562e-21)
(1.16596 -0.0215715 3.45852e-21)
(1.16735 -0.0191201 7.06029e-23)
(1.16125 -0.0463203 1.81977e-21)
(1.16297 -0.043872 -7.09201e-22)
(1.16463 -0.0413985 -6.00977e-22)
(1.16625 -0.0388982 1.57635e-22)
(1.1678 -0.036371 9.37624e-22)
(1.16931 -0.0338124 1.78091e-21)
(1.17076 -0.0312271 -1.11071e-21)
(1.17215 -0.0285982 2.02244e-21)
(1.17351 -0.025957 -7.83877e-22)
(1.1748 -0.0232231 -9.25798e-22)
(1.17623 -0.0205686 -3.87414e-21)
(1.17777 -0.0175693 -8.05906e-22)
(1.17087 -0.0493436 -1.42407e-21)
(1.17277 -0.0464971 1.17972e-21)
(1.1746 -0.043615 2.07264e-21)
(1.17637 -0.0406945 1.12682e-21)
(1.17808 -0.0377356 -6.55518e-22)
(1.17973 -0.0347312 -2.7028e-21)
(1.18132 -0.0316892 4.26613e-21)
(1.18284 -0.0285829 -1.1536e-21)
(1.18433 -0.0254614 2.60323e-21)
(1.18574 -0.0222022 -1.91994e-21)
(1.18732 -0.0190636 2.64493e-21)
(1.18905 -0.015427 2.43251e-21)
(1.18114 -0.0524134 -2.15956e-22)
(1.18323 -0.0491228 -1.56268e-21)
(1.18525 -0.0457843 -1.99573e-21)
(1.1872 -0.0423935 4.06034e-22)
(1.18908 -0.038951 3.37794e-21)
(1.1909 -0.0354458 -1.92658e-21)
(1.19265 -0.0318907 4.46865e-22)
(1.19432 -0.0282454 -6.26502e-21)
(1.19596 -0.0245838 -9.61488e-22)
(1.19752 -0.020728 4.36355e-21)
(1.19928 -0.0170481 7.47463e-23)
(1.20123 -0.0126841 -5.01401e-21)
(1.19206 -0.0555423 9.22921e-23)
(1.19437 -0.0517594 5.99369e-22)
(1.19661 -0.0479141 2.08052e-21)
(1.19876 -0.0440003 -1.58203e-21)
(1.20084 -0.0400197 -3.57035e-21)
(1.20284 -0.0359559 1.74439e-21)
(1.20478 -0.0318289 1.35695e-21)
(1.20662 -0.0275803 9.18639e-21)
(1.20844 -0.023316 5.09104e-22)
(1.21016 -0.0187871 -4.42053e-21)
(1.21212 -0.0145031 7.7292e-22)
(1.21434 -0.00930916 -1.1226e-21)
(1.20366 -0.0587392 -4.01317e-22)
(1.20622 -0.0544142 3.94526e-22)
(1.20869 -0.0500109 -4.85976e-22)
(1.21108 -0.0455202 2.5153e-21)
(1.21338 -0.0409459 6.75534e-21)
(1.2156 -0.0362638 6.89838e-21)
(1.21774 -0.0315049 -1.03835e-20)
(1.21979 -0.0265862 1.58561e-21)
(1.22183 -0.021657 5.4591e-21)
(1.22376 -0.0163783 1.10063e-20)
(1.22597 -0.011428 -1.77323e-21)
(1.22852 -0.00530559 2.59753e-21)
(1.21595 -0.0620105 1.51346e-21)
(1.21879 -0.0570918 9.62219e-22)
(1.22153 -0.0520784 -3.34827e-21)
(1.22417 -0.0469564 -2.12159e-21)
(1.22673 -0.0417345 -2.61556e-21)
(1.22919 -0.0363758 6.22809e-22)
(1.23159 -0.0309284 6.12553e-21)
(1.23388 -0.0252731 -5.26951e-21)
(1.23616 -0.0196196 -2.72726e-21)
(1.23835 -0.0135143 -1.17994e-20)
(1.24086 -0.0078439 3.43647e-21)
(1.24383 -0.000704167 1.27949e-20)
(1.22895 -0.0653599 2.93761e-21)
(1.23209 -0.0597953 -8.44221e-22)
(1.23513 -0.0541191 1.98564e-21)
(1.23806 -0.0483102 1.12326e-21)
(1.24091 -0.0423873 -7.38636e-21)
(1.24366 -0.0362941 -1.36033e-20)
(1.24636 -0.0301083 9.64666e-21)
(1.24893 -0.0236542 8.40026e-22)
(1.25153 -0.0172282 -5.54167e-21)
(1.25402 -0.0102154 1.14697e-20)
(1.2569 -0.00377523 6.22995e-21)
(1.26035 0.00449111 -3.42316e-21)
(1.24268 -0.0687845 -9.03993e-22)
(1.24615 -0.0625226 -1.81319e-21)
(1.24953 -0.0561334 -1.31104e-21)
(1.25278 -0.0495838 -2.3156e-21)
(1.25598 -0.0429086 -4.68147e-21)
(1.25903 -0.0360193 6.57369e-21)
(1.26211 -0.0290452 -1.76367e-20)
(1.26499 -0.0217235 -9.99421e-21)
(1.26802 -0.0144888 5.15536e-21)
(1.27082 -0.00648525 -1.19192e-20)
(1.27418 0.000754915 -1.26301e-20)
(1.27806 0.0102809 -1.66853e-20)
(1.25717 -0.072273 -5.05882e-21)
(1.26102 -0.0652643 3.64061e-21)
(1.26479 -0.0581153 3.51515e-21)
(1.2684 -0.0507784 -2.14576e-21)
(1.27202 -0.043309 2.27367e-21)
(1.27541 -0.0355696 9.04815e-21)
(1.27894 -0.0277611 2.59707e-20)
(1.2821 -0.0194858 2.16589e-20)
(1.28564 -0.0113945 -1.42039e-20)
(1.28862 -0.00227915 1.00451e-20)
(1.29258 0.00578039 1.80925e-21)
(1.29656 0.01674 1.21028e-20)
(1.27249 -0.0758229 1.8712e-21)
(1.27675 -0.068017 -8.28515e-21)
(1.28096 -0.0600567 -1.38359e-20)
(1.28497 -0.0518842 -9.35347e-21)
(1.28907 -0.0435754 2.48847e-20)
(1.29281 -0.0349426 -1.0891e-20)
(1.29691 -0.0262692 -2.09056e-20)
(1.30021 -0.016973 -1.26124e-20)
(1.30436 -0.00798652 5.33734e-21)
(1.30705 0.0024054 2.92671e-21)
(1.31165 0.0113271 -1.19647e-20)
(1.31483 0.0239889 -1.14102e-20)
(1.28874 -0.0794296 5.00789e-22)
(1.29346 -0.0707818 1.75414e-21)
(1.29813 -0.061957 8.44986e-21)
(1.30254 -0.0528973 -4.84409e-22)
(1.3071 -0.0436773 -8.7833e-21)
(1.31106 -0.0340891 -1.50187e-20)
(1.31567 -0.0244781 3.65503e-21)
(1.31881 -0.0141061 -2.04962e-22)
(1.32361 -0.00419994 1.4167e-20)
(1.32521 0.00758392 5.39224e-21)
(1.33044 0.0173835 1.49908e-20)
(1.33094 0.0320918 6.3293e-22)
(1.30597 -0.0830198 5.76832e-21)
(1.31113 -0.0734773 3.36434e-22)
(1.31623 -0.0637307 2.35189e-20)
(1.32095 -0.0537387 1.89851e-20)
(1.32582 -0.0435289 -1.68735e-20)
(1.32975 -0.0329282 6.76579e-21)
(1.33451 -0.0222297 -5.98314e-21)
(1.33678 -0.0106924 5.52513e-21)
(1.34179 0.000312504 -7.62601e-21)
(1.34087 0.0135734 7.88215e-21)
(1.34665 0.0242713 -1.8504e-20)
(1.34141 0.0412672 2.19084e-20)
(1.32403 -0.0863964 -1.17922e-20)
(1.32948 -0.075861 8.73061e-21)
(1.33475 -0.065102 -1.99694e-20)
(1.33955 -0.0541124 8.71493e-21)
(1.34432 -0.0428438 3.21232e-20)
(1.34785 -0.0312275 8.067e-21)
(1.35211 -0.0193332 1.38473e-20)
(1.35271 -0.00665825 -4.89657e-21)
(1.35675 0.00576854 8.79461e-22)
(1.35105 0.0205332 -1.34169e-20)
(1.35625 0.0324997 2.48609e-20)
(1.3406 0.0517948 -1.27298e-20)
(1.34249 -0.0894409 3.30609e-21)
(1.34789 -0.077793 -1.63376e-20)
(1.35288 -0.0659166 1.12755e-21)
(1.35723 -0.0538298 -2.92883e-20)
(1.36115 -0.0414292 -1.87469e-20)
(1.36361 -0.0287713 -1.05243e-20)
(1.3661 -0.0156548 4.28422e-23)
(1.36423 -0.00204975 -8.73962e-21)
(1.36525 0.0119101 2.76772e-20)
(1.35284 0.0276304 8.79617e-21)
(1.35463 0.0414681 -1.83021e-20)
(1.32219 0.062393 -6.81138e-21)
(1.36057 -0.0923709 1.09393e-20)
(1.36548 -0.0795868 3.15873e-21)
(1.36964 -0.0665822 -1.26447e-20)
(1.37283 -0.0533584 2.22299e-20)
(1.37486 -0.0398039 -2.46679e-20)
(1.37499 -0.026001 -8.65984e-21)
(1.37355 -0.0116341 5.17544e-21)
(1.36743 0.0029291 -3.71777e-21)
(1.3614 0.0183641 -3.63415e-20)
(1.34097 0.034169 -3.54433e-20)
(1.33407 0.0499532 1.2313e-20)
(1.28021 0.0698135 -1.30769e-20)
(1.37693 -0.0948972 -3.43501e-21)
(1.38075 -0.0810009 -1.5934e-21)
(1.38331 -0.06689 6.73948e-21)
(1.38423 -0.0525209 -1.40606e-20)
(1.38293 -0.0378047 3.58364e-20)
(1.37866 -0.0227309 2.7764e-20)
(1.37049 -0.00709354 -1.8172e-20)
(1.35675 0.00880639 2.13763e-20)
(1.33783 0.0256162 2.26477e-20)
(1.30631 0.0418569 9.52329e-21)
(1.27939 0.0592194 4.24574e-21)
(1.20584 0.0745864 3.51241e-20)
(1.0963 -0.0013827 0)
(1.09799 -0.00118942 0)
(1.09989 -0.000987018 0)
(1.10105 -0.000792344 0)
(1.10254 -0.000644675 0)
(1.10323 -0.000430628 0)
(1.10409 -0.00035212 0)
(1.1046 -5.15543e-05 0)
(1.10419 -5.79554e-06 0)
(1.10486 0.00046549 0)
(1.10189 0.000596477 0)
(1.10261 0.00130613 0)
(1.09514 0.00167605 0)
(1.09494 0.00258501 0)
(1.08077 0.00318146 0)
(1.07827 0.00397184 0)
(1.05672 0.00458169 0)
(1.05129 0.00439675 0)
(1.02763 0.00496963 0)
(1.0188 0.00247971 0)
(1.00915 0.00278382 0)
(0.998433 -0.00227116 0)
(1.02594 -0.00539632 0)
(1.04129 -0.00515101 0)
(1.07132 -0.00535635 0)
(1.09407 0.000308457 0)
(1.06684 8.32501e-05 0)
(1.09452 0.00545443 0)
(1.00707 0.00561841 0)
(1.03669 -0.00294834 0)
(1.09744 -0.00404799 0)
(1.0991 -0.00347289 0)
(1.10098 -0.00287269 0)
(1.10206 -0.00229853 0)
(1.10352 -0.00187063 0)
(1.10416 -0.00124494 0)
(1.10501 -0.00103331 0)
(1.10554 -0.00015867 0)
(1.10516 -5.35042e-05 0)
(1.10597 0.00133105 0)
(1.10306 0.0017025 0)
(1.10402 0.00380423 0)
(1.09657 0.00491596 0)
(1.09653 0.00763826 0)
(1.0822 0.00943593 0)
(1.07961 0.0118477 0)
(1.05753 0.0136557 0)
(1.05179 0.0132004 0)
(1.02725 0.014899 0)
(1.01772 0.00753605 0)
(1.00747 0.0085837 0)
(0.994775 -0.00683299 0)
(1.02497 -0.016469 0)
(1.0421 -0.0156721 0)
(1.07416 -0.016039 0)
(1.097 0.000860424 0)
(1.06922 0.000396914 0)
(1.09712 0.0165517 0)
(1.00459 0.0170412 0)
(1.03413 -0.00867023 0)
(1.09956 -0.0065518 0)
(1.10118 -0.00559292 0)
(1.103 -0.00460288 0)
(1.10393 -0.00366443 0)
(1.10531 -0.00298873 0)
(1.10585 -0.00198637 0)
(1.10668 -0.00170252 0)
(1.10726 -0.000308451 0)
(1.10692 -0.000219434 0)
(1.10804 0.00200986 0)
(1.10522 0.0025785 0)
(1.10667 0.00601483 0)
(1.09927 0.00790902 0)
(1.09952 0.0124462 0)
(1.08494 0.01552 0)
(1.08213 0.019655 0)
(1.05915 0.0226605 0)
(1.05267 0.0221567 0)
(1.0267 0.0249718 0)
(1.0156 0.0129389 0)
(1.00431 0.0151252 0)
(0.987519 -0.0115117 0)
(1.02289 -0.0285554 0)
(1.04383 -0.0269239 0)
(1.07951 -0.0267459 0)
(1.10272 0.0012353 0)
(1.07367 0.00111383 0)
(1.10201 0.0283445 0)
(1.00033 0.0291462 0)
(1.02867 -0.0139809 0)
(1.10258 -0.0088695 0)
(1.10412 -0.00750782 0)
(1.10582 -0.00612809 0)
(1.10653 -0.00483365 0)
(1.10778 -0.00395317 0)
(1.10816 -0.00261471 0)
(1.10893 -0.00235036 0)
(1.1096 -0.00050658 0)
(1.10929 -0.00055079 0)
(1.11089 0.00243372 0)
(1.10819 0.00314159 0)
(1.11042 0.00784677 0)
(1.10311 0.0106203 0)
(1.10382 0.016997 0)
(1.08893 0.0215239 0)
(1.08569 0.0275183 0)
(1.06164 0.0318101 0)
(1.05378 0.0315023 0)
(1.02625 0.0354865 0)
(1.0124 0.0190259 0)
(0.999862 0.0229604 0)
(0.976432 -0.0163736 0)
(1.01937 -0.0425849 0)
(1.0468 -0.0394869 0)
(1.08703 -0.0377257 0)
(1.11138 0.00139617 0)
(1.07973 0.00242648 0)
(1.10898 0.0412833 0)
(0.995504 0.0426571 0)
(1.01923 -0.0185626 0)
(1.10638 -0.0109635 0)
(1.10781 -0.00916748 0)
(1.10934 -0.00739382 0)
(1.10973 -0.00574696 0)
(1.11077 -0.00471712 0)
(1.11094 -0.0030884 0)
(1.11158 -0.00296868 0)
(1.11238 -0.000762661 0)
(1.11207 -0.00110563 0)
(1.11437 0.00252627 0)
(1.11182 0.00329454 0)
(1.11515 0.00919844 0)
(1.10801 0.012995 0)
(1.10935 0.0212639 0)
(1.09415 0.027517 0)
(1.09022 0.0355087 0)
(1.06509 0.0412933 0)
(1.05498 0.0413791 0)
(1.02624 0.0466582 0)
(1.00813 0.0261563 0)
(0.994199 0.0325954 0)
(0.961146 -0.021323 0)
(1.01389 -0.0594893 0)
(1.05132 -0.0538706 0)
(1.0964 -0.0492861 0)
(1.1234 0.00146552 0)
(1.08667 0.00449238 0)
(1.11794 0.0553536 0)
(0.991983 0.0584235 0)
(1.00435 -0.0216493 0)
(1.11092 -0.0128092 0)
(1.11218 -0.0105292 0)
(1.11344 -0.00834869 0)
(1.11342 -0.00634476 0)
(1.11413 -0.00522903 0)
(1.11404 -0.00336113 0)
(1.11444 -0.00354269 0)
(1.11542 -0.00107956 0)
(1.11506 -0.00193129 0)
(1.11829 0.00221343 0)
(1.11596 0.00293589 0)
(1.12076 0.00996168 0)
(1.11392 0.0149653 0)
(1.11606 0.0252188 0)
(1.10057 0.0335564 0)
(1.0957 0.0436628 0)
(1.06955 0.051287 0)
(1.05618 0.0518388 0)
(1.02692 0.0586321 0)
(1.00296 0.0347044 0)
(0.987297 0.04454 0)
(0.941271 -0.0261286 0)
(1.00565 -0.0801803 0)
(1.05737 -0.0705673 0)
(1.10747 -0.061783 0)
(1.13913 0.0017198 0)
(1.09382 0.00747251 0)
(1.12883 0.0700765 0)
(0.99161 0.0773623 0)
(0.983505 -0.0220567 0)
(1.11613 -0.0143592 0)
(1.11716 -0.0115293 0)
(1.11804 -0.00891984 0)
(1.11749 -0.00654808 0)
(1.11774 -0.00541728 0)
(1.11728 -0.00337036 0)
(1.11734 -0.00403888 0)
(1.11851 -0.0014518 0)
(1.11809 -0.00307114 0)
(1.12246 0.00141298 0)
(1.1205 0.00195314 0)
(1.12711 0.0100165 0)
(1.12085 0.0164434 0)
(1.12395 0.0288441 0)
(1.1082 0.0396755 0)
(1.10214 0.0520094 0)
(1.07499 0.0619382 0)
(1.05744 0.062877 0)
(1.02843 0.0714468 0)
(0.997323 0.0450508 0)
(0.979112 0.0593662 0)
(0.916436 -0.0303915 0)
(0.99315 -0.105408 0)
(1.06381 -0.0901696 0)
(1.12007 -0.0756309 0)
(1.15817 0.00251242 0)
(1.10113 0.0115166 0)
(1.14135 0.0847684 0)
(0.995107 0.100134 0)
(0.95859 -0.0186462 0)
(1.12198 -0.0155692 0)
(1.12272 -0.0121051 0)
(1.12307 -0.00903034 0)
(1.12185 -0.00627412 0)
(1.12146 -0.00520014 0)
(1.12052 -0.00304713 0)
(1.12011 -0.00441295 0)
(1.12145 -0.00187301 0)
(1.12095 -0.00456424 0)
(1.12666 4.71477e-05 0)
(1.12532 0.000240089 0)
(1.1341 0.00922789 0)
(1.12882 0.0173202 0)
(1.13299 0.032141 0)
(1.11702 0.0458808 0)
(1.10958 0.0605916 0)
(1.08131 0.0733476 0)
(1.05888 0.0744616 0)
(1.0307 0.0850249 0)
(0.99184 0.0575115 0)
(0.969977 0.0777122 0)
(0.886343 -0.0333531 0)
(0.972879 -0.135499 0)
(1.06686 -0.113553 0)
(1.13299 -0.0913911 0)
(1.17891 0.00407089 0)
(1.10932 0.0166306 0)
(1.15483 0.0989713 0)
(1.00184 0.126732 0)
(0.933693 -0.0109846 0)
(1.12847 -0.0163843 0)
(1.12882 -0.0121842 0)
(1.12848 -0.00858914 0)
(1.12638 -0.00542799 0)
(1.12518 -0.00447887 0)
(1.12358 -0.00230921 0)
(1.12256 -0.00460404 0)
(1.12399 -0.00233053 0)
(1.12347 -0.00644608 0)
(1.13067 -0.00201325 0)
(1.13031 -0.00236061 0)
(1.14158 0.00743408 0)
(1.13791 0.0174718 0)
(1.1432 0.0351312 0)
(1.12707 0.0521577 0)
(1.11806 0.0694856 0)
(1.08839 0.0855525 0)
(1.06072 0.0865646 0)
(1.03356 0.0991856 0)
(0.987094 0.0721686 0)
(0.961047 0.100227 0)
(0.851294 -0.0333597 0)
(0.938878 -0.169787 0)
(1.05891 -0.142052 0)
(1.14222 -0.110117 0)
(1.19845 0.00612766 0)
(1.11899 0.0225839 0)
(1.16825 0.11255 0)
(1.01069 0.156453 0)
(0.91295 0.000501625 0)
(1.13558 -0.0167476 0)
(1.13544 -0.0116921 0)
(1.13421 -0.007498 0)
(1.13103 -0.00390803 0)
(1.12881 -0.00314104 0)
(1.12631 -0.00106186 0)
(1.12454 -0.00453548 0)
(1.12591 -0.00280384 0)
(1.12542 -0.00874521 0)
(1.13424 -0.00489632 0)
(1.13535 -0.00601528 0)
(1.14951 0.00444217 0)
(1.1482 0.0167723 0)
(1.15461 0.0378432 0)
(1.13841 0.0584977 0)
(1.12751 0.0787924 0)
(1.09613 0.098532 0)
(1.06314 0.0991784 0)
(1.03669 0.113712 0)
(0.983679 0.0886331 0)
(0.953902 0.127342 0)
(0.813568 -0.0275656 0)
(0.887521 -0.205852 0)
(1.03111 -0.176912 0)
(1.14086 -0.133594 0)
(1.21288 0.00755988 0)
(1.12966 0.0288236 0)
(1.18044 0.125535 0)
(1.0208 0.188243 0)
(0.898623 0.014938 0)
(1.14334 -0.0165989 0)
(1.14258 -0.0105511 0)
(1.14025 -0.00565213 0)
(1.13572 -0.00161184 0)
(1.13225 -0.00106386 0)
(1.12856 0.000810318 0)
(1.12587 -0.00411507 0)
(1.12696 -0.00325881 0)
(1.12658 -0.0114778 0)
(1.13715 -0.00869376 0)
(1.14028 -0.0108722 0)
(1.15787 2.5561e-05 0)
(1.15975 0.0151074 0)
(1.16729 0.0402939 0)
(1.15111 0.0649361 0)
(1.13781 0.0886171 0)
(1.10454 0.112221 0)
(1.06623 0.112344 0)
(1.03961 0.128372 0)
(0.982599 0.106095 0)
(0.948922 0.158747 0)
(0.778934 -0.0135085 0)
(0.827123 -0.23984 0)
(0.981853 -0.217786 0)
(1.12323 -0.163588 0)
(1.2184 0.00662329 0)
(1.13965 0.0344553 0)
(1.19045 0.137936 0)
(1.03165 0.221005 0)
(0.890929 0.0313663 0)
(1.15178 -0.0158782 0)
(1.15026 -0.00868429 0)
(1.14658 -0.00294248 0)
(1.1404 0.00157626 0)
(1.13543 0.00188674 0)
(1.1302 0.00341393 0)
(1.12636 -0.0032427 0)
(1.12691 -0.00364418 0)
(1.12671 -0.0146656 0)
(1.13917 -0.0135057 0)
(1.14487 -0.0171402 0)
(1.1667 -0.00605988 0)
(1.17259 0.0123785 0)
(1.1814 0.0424826 0)
(1.16521 0.0715794 0)
(1.14876 0.0990419 0)
(1.1137 0.126536 0)
(1.06984 0.126187 0)
(1.04186 0.142839 0)
(0.985016 0.123693 0)
(0.944399 0.193341 0)