/*--------------------------------*- C++ -*----------------------------------*\
  =========                 |
  \\      /  F ield         | OpenFOAM: The Open Source CFD Toolbox
   \\    /   O peration     | Website:  https://openfoam.org
    \\  /    A nd           | Version:  7
     \\/     M anipulation  |
\*---------------------------------------------------------------------------*/
FoamFile
{
    version     2.0;
    format      ascii;
    class       surfaceScalarField;
    location    "290";
    object      phi;
}
// * * * * * * * * * * * * * * * * * * * * * * * * * * * * * * * * * * * * * //

dimensions      [0 3 -1 0 0 0 0];

internalField   nonuniform List<scalar> 
16735
(
-0.000153699
0.000688164
-0.000534465
-0.000521803
0.000858237
-0.000490133
-0.00106304
0.000213181
0.000328053
-0.00174891
-0.000955187
0.00164106
-0.00255639
-0.00244765
0.00325512
-0.00346304
-0.00420882
0.00511547
-0.00444776
-0.00630589
0.00729062
-0.00549686
-0.00885867
0.00990777
-0.00660783
-0.0119828
0.0130937
-0.015795
0.0169814
-0.00779422
-0.000161014
0.000849178
-0.000550122
0.00124735
-0.00112506
0.000788117
-0.00185489
-0.000225352
-0.0027147
-0.00158784
-0.00368218
-0.00324134
-0.00473874
-0.00524933
-0.00587538
-0.00772203
-0.00709792
-0.0107602
-0.0144551
-0.00843776
-0.000162863
0.00101204
-0.000561213
0.00164569
-0.00115327
0.00138017
-0.0019059
0.000527286
-0.00279175
-0.000701998
-0.003787
-0.00224608
-0.0048725
-0.00416384
-0.00603897
-0.00655556
-0.00729433
-0.00950485
-0.0130724
-0.00867708
-0.000158704
0.00117074
-0.000553355
0.00204035
-0.0011444
0.00197121
-0.00189719
0.00128008
-0.00278109
0.0001819
-0.00376937
-0.0012578
-0.00483894
-0.00309426
-0.00597481
-0.0054197
-0.00717995
-0.0082997
-0.0117667
-0.00848565
-0.000148355
0.0013191
-0.000525828
0.00241782
-0.00109703
0.00254241
-0.00182628
0.00200933
-0.00267965
0.00103526
-0.00362561
-0.000311837
-0.00463425
-0.00208562
-0.00567939
-0.00437457
-0.00675206
-0.00722703
-0.0106608
-0.00785793
-0.000132022
0.00145112
-0.000478969
0.00276477
-0.00101145
0.0030749
-0.00169353
0.00269141
-0.00248764
0.00182937
-0.00335639
0.000556916
-0.00426056
-0.00118145
-0.00515785
-0.00347727
-0.00602164
-0.00636325
-0.00987252
-0.00680993
-0.0001103
0.00156142
-0.000414204
0.00306867
-0.000889837
0.00355053
-0.00150176
0.00330334
-0.00220859
0.00253619
-0.00296651
0.00131484
-0.00372513
-0.00042283
-0.00442255
-0.00277985
-0.0050108
-0.005775
-0.00950526
-0.00537806
-8.41601e-05
0.00164558
-0.000334022
0.00331853
-0.00073622
0.00395273
-0.00125642
0.00382354
-0.00184942
0.00312919
-0.00246437
0.00192979
-0.00303945
0.000152248
-0.00349104
-0.00232826
-0.00374868
-0.00551736
-0.00963835
-0.00361559
-5.49011e-05
0.00170048
-0.00024189
0.00350552
-0.000556386
0.00426722
-0.000965481
0.00423263
-0.00142011
0.00358382
-0.00186189
0.00237158
-0.00221871
0.000509062
-0.00238334
-0.00216363
-0.00226378
-0.00563692
-0.0103099
-0.00159221
-2.4078e-05
0.00172456
-0.000142098
0.00362354
-0.000357692
0.00448282
-0.000639319
0.00451426
-0.000933867
0.00387837
-0.00117513
0.00261284
-0.00128166
0.000615591
-0.0011238
-0.00232148
-0.000548089
-0.00621263
-0.0114678
0.000609786
6.62441e-06
0.00171794
-3.94948e-05
0.00366966
-0.00014873
0.00459205
-0.000290335
0.00465586
-0.000406712
0.00399475
-0.000423016
0.00262914
-0.00024822
0.000440796
0.000226046
-0.00279575
0.0013022
-0.00728878
-0.0132963
0.00313068
3.54623e-05
0.00168247
6.07455e-05
0.00364438
6.10169e-05
0.00459178
6.7095e-05
0.00464978
0.000142086
0.00391976
0.000371274
0.00239996
0.000861785
-4.97153e-05
0.00175496
-0.00368893
0.00327849
-0.00881232
-0.0158035
0.00578575
6.08607e-05
0.00162161
0.000153851
0.00355139
0.000263032
0.0044826
0.000420918
0.0044919
0.000697052
0.00364362
0.00118827
0.00190874
0.00201516
-0.000876598
0.00333124
-0.00500501
0.00539395
-0.010875
-0.018972
0.00856243
8.15225e-05
0.00154009
0.000235556
0.00339735
0.000448436
0.00426972
0.000756323
0.00418401
0.00123666
0.00316329
0.00200003
0.00114537
0.00318658
-0.00206315
0.00495357
-0.00677199
0.00760491
-0.0135264
-0.0227741
0.011407
9.65868e-05
0.0014435
0.000302855
0.00319108
0.000611368
0.00396121
0.00106432
0.00373106
0.00174894
0.00247867
0.0027917
0.000102599
0.0043564
-0.00362785
0.00660498
-0.00902058
0.009877
-0.0167984
-0.0271432
0.0142461
0.000105774
0.00133773
0.000354475
0.00294238
0.000748973
0.00356671
0.00134045
0.00313958
0.00222823
0.00159089
0.00355788
-0.00122704
0.00551754
-0.00558751
0.00828024
-0.0117833
0.0121766
-0.0206947
-0.0319597
0.0169931
0.000109453
0.00122828
0.000391144
0.00266069
0.00086234
0.00309551
0.00158678
0.00241514
0.00267932
0.00049835
0.00430624
-0.00285397
0.00667833
-0.0079596
0.00998463
-0.0150896
0.0144619
-0.025172
-0.0370563
0.0195585
0.000108637
0.00111964
0.00041567
0.00235366
0.000956742
0.00255444
0.00181225
0.00155963
0.00311657
-0.000805967
0.00505856
-0.00479596
0.0078615
-0.0107625
0.0117242
-0.0189523
0.016673
-0.0301208
-0.0422443
0.021861
0.000104916
0.00101472
0.00043274
0.00202584
0.00104125
0.00194593
0.00203194
0.000568941
0.00356264
-0.00233667
0.00584455
-0.00707787
0.00909574
-0.0140137
0.0134911
-0.0233476
0.0187336
-0.0353634
-0.0473508
0.0238401
0.000100283
0.000914442
0.00044841
0.00167771
0.00112763
0.00126671
0.00226485
-0.000568273
0.00404393
-0.00411575
0.006693
-0.00972694
0.0104006
-0.0177214
0.0152461
-0.0281931
0.0205719
-0.0406892
-0.0522625
0.0254836
9.69077e-05
0.000817535
0.000469353
0.00130526
0.00122876
0.0005073
0.00253069
-0.0018702
0.00458456
-0.00616962
0.0076215
-0.0127639
0.0117675
-0.0218674
0.0169203
-0.0333459
0.0222528
-0.0460217
-0.0582225
0.0282129
9.68631e-05
0.000720672
0.000501963
0.000900163
0.00135662
-0.000347354
0.00284634
-0.00335992
0.0052005
-0.00852378
0.00862859
-0.016192
0.0131522
-0.026391
0.0184448
-0.0386385
0.0237955
-0.0513724
-0.0635278
0.0291009
0.000101867
0.000618804
0.000551516
0.000450514
0.00152052
-0.00131636
0.00322266
-0.00506206
0.00589491
-0.011196
0.00969073
-0.0199878
0.0144847
-0.0311849
0.0197623
-0.0439161
0.0248621
-0.0564722
-0.0680813
0.0294156
0.000113098
0.000505707
0.000621534
-5.79222e-05
0.00172581
-0.00242063
0.00366244
-0.00699868
0.00665604
-0.0141896
0.0107646
-0.0240964
0.0156919
-0.0361122
0.0207983
-0.0490225
0.0254769
-0.0611509
-0.0720431
0.0294387
0.000131116
0.00037459
0.0007135
-0.000640306
0.00197332
-0.00368046
0.00415974
-0.0091851
0.00745805
-0.017488
0.0117946
-0.0284329
0.0167085
-0.0410262
0.02151
-0.0538239
0.025703
-0.0653439
-0.0754355
0.0290954
0.000155903
0.000218687
0.000826927
-0.00131133
0.00225954
-0.00511307
0.00470065
-0.0116262
0.00826471
-0.021052
0.0127231
-0.0328912
0.0174871
-0.0457902
0.021892
-0.0582289
0.0255731
-0.069025
-0.0783171
0.0284547
0.000186981
3.17067e-05
0.000959712
-0.00208406
0.0025773
-0.00673066
0.00526499
-0.0143139
0.00903487
-0.0248219
0.0135008
-0.0373572
0.0180032
-0.0502926
0.0219595
-0.0621851
0.0251435
-0.072209
-0.080755
0.0275814
0.000223576
-0.000191869
0.00110859
-0.00296907
0.00291675
-0.00853882
0.00582862
-0.0172258
0.00972846
-0.0287217
0.0140931
-0.0417218
0.0182539
-0.0544533
0.0217446
-0.0656758
0.0244671
-0.0749315
-0.0828119
0.026524
0.000264777
-0.000456646
0.00126954
-0.00397383
0.00326622
-0.0105355
0.00636593
-0.0203255
0.0103115
-0.0326673
0.0144816
-0.0458919
0.0182523
-0.058224
0.0212864
-0.0687099
0.0235938
-0.077239
-0.0845482
0.0253301
0.000309624
-0.00076627
0.00143812
-0.00510233
0.00361301
-0.0127104
0.00685236
-0.0235648
0.0107594
-0.0365744
0.0146631
-0.0497956
0.0180223
-0.0615832
0.0206258
-0.0713135
0.022568
-0.0791812
-0.0860145
0.0240343
0.000357144
-0.00112341
0.0016096
-0.00635479
0.00394409
-0.0150449
0.00726655
-0.0268873
0.011058
-0.0403659
0.014646
-0.0533836
0.0175933
-0.0645305
0.0198019
-0.0735221
0.0214268
-0.0808061
-0.0872525
0.0226648
0.00040635
-0.00152976
0.00177907
-0.00772751
0.00424681
-0.0175126
0.00759199
-0.0302325
0.011203
-0.0439769
0.0144466
-0.0566271
0.0169965
-0.0670804
0.0188497
-0.0753752
0.0202002
-0.0821566
-0.0882948
0.0212425
0.000456209
-0.00198597
0.0019415
-0.0092128
0.00450964
-0.0200807
0.00781783
-0.0335407
0.0111982
-0.0473573
0.0140858
-0.0595147
0.016262
-0.0692567
0.0177992
-0.0769124
0.0189121
-0.0832695
-0.0891657
0.019783
0.000505624
-0.0024916
0.00209187
-0.010799
0.00472288
-0.0227118
0.00793904
-0.0367568
0.0110532
-0.0504714
0.0135862
-0.0620477
0.0154175
-0.0710879
0.0166755
-0.0781704
0.017581
-0.084175
-0.0898828
0.018298
0.000553437
-0.00304503
0.00222537
-0.012471
0.00487922
-0.0253656
0.00795569
-0.0398333
0.0107814
-0.0532972
0.0129707
-0.0642369
0.0144873
-0.0726046
0.0154988
-0.0791819
0.0162207
-0.0848969
-0.0904581
0.0167961
0.000598449
-0.00364348
0.00233762
-0.0142101
0.00497406
-0.028002
0.00787207
-0.0427313
0.0103984
-0.0558235
0.0122606
-0.0660991
0.0134925
-0.0738366
0.0142853
-0.0799746
0.0148419
-0.0854535
-0.0908998
0.0152836
0.000639464
-0.00428295
0.00242495
-0.0159956
0.00500554
-0.0305826
0.00769547
-0.0454213
0.00992019
-0.0580482
0.0114755
-0.0676545
0.0124505
-0.0748116
0.0130478
-0.0805719
0.0134526
-0.0858583
-0.0912126
0.0137654
0.000675343
-0.00495829
0.00248454
-0.0178048
0.0049743
-0.0330724
0.00743514
-0.0478821
0.0093627
-0.0599757
0.0106327
-0.0689245
0.0113757
-0.0755546
0.0117962
-0.0809924
0.0120589
-0.086121
-0.0913994
0.0122457
0.000705049
-0.00566334
0.00251456
-0.0196143
0.00488306
-0.0354409
0.00710136
-0.0501004
0.00874077
-0.0616152
0.0097469
-0.0699306
0.0102797
-0.0760875
0.010538
-0.0812506
0.0106654
-0.0862485
-0.0914618
0.0107278
0.000727697
-0.00639103
0.00251422
-0.0214009
0.00473608
-0.0376627
0.00670471
-0.052069
0.00806796
-0.0629784
0.00883073
-0.0706934
0.00917187
-0.0764286
0.00927926
-0.081358
0.00927596
-0.0862452
-0.0914007
0.00921483
0.000742582
-0.00713362
0.00248368
-0.023142
0.00453868
-0.0397177
0.00625558
-0.0537859
0.00735633
-0.0640792
0.00789468
-0.0712317
0.00805955
-0.0765935
0.00802455
-0.081323
0.00789344
-0.086114
-0.0912162
0.0077089
0.000749199
-0.00788282
0.00242398
-0.0248168
0.00429678
-0.0415905
0.00576377
-0.0552529
0.00661639
-0.0649318
0.00694738
-0.0715627
0.0069486
-0.0765947
0.00677743
-0.0811519
0.00652035
-0.085857
-0.0909069
0.00621115
0.000747253
-0.00863007
0.00233681
-0.0264063
0.00401651
-0.0432702
0.00523832
-0.0564747
0.00585723
-0.0655507
0.00599596
-0.0717014
0.00584362
-0.0764424
0.00554058
-0.0808488
0.0051586
-0.085475
-0.0904715
0.0047232
0.000736649
-0.00936672
0.00222439
-0.027894
0.00370397
-0.0447498
0.00468739
-0.0574581
0.00508657
-0.0659499
0.00504628
-0.0716611
0.00474854
-0.0761446
0.00431639
-0.0804167
0.00380916
-0.0849677
-0.0899083
0.00324594
0.000717491
-0.0100842
0.00208924
-0.0292658
0.00336496
-0.0460255
0.00411817
-0.0582114
0.0043109
-0.0661426
0.0041031
-0.0714533
0.00366685
-0.0757084
0.00310814
-0.079858
0.00247235
-0.084332
-0.0892127
0.00177677
0.000690097
-0.0107743
0.00193436
-0.0305101
0.003005
-0.0470962
0.00353698
-0.0587433
0.0035356
-0.0661412
0.00317016
-0.0710879
0.00260119
-0.0751394
0.00191992
-0.0791767
0.00115291
-0.0835649
-0.0883523
0.000292504
0.00065495
-0.0114293
0.00176271
-0.0316178
0.00262915
-0.0479626
0.0029493
-0.0590635
0.00276515
-0.0659571
0.00225043
-0.0705732
0.00155288
-0.0744419
0.000750062
-0.0783739
-0.000119323
-0.0826956
-0.0873615
-0.00111015
0.000612663
-0.0120419
0.00157714
-0.0325823
0.00224197
-0.0486274
0.00235984
-0.0591814
0.00200325
-0.0656005
0.00134652
-0.0699165
0.000522881
-0.0736182
-0.000402597
-0.0774484
-0.00141352
-0.0816846
-0.0862782
-0.00249681
0.000563961
-0.0126059
0.00138038
-0.0333987
0.00184759
-0.0490946
0.00177258
-0.0591063
0.00125287
-0.0650808
0.000460086
-0.0691237
-0.000484106
-0.072674
-0.00152387
-0.0764086
-0.00266207
-0.0805464
-0.0850713
-0.00386895
0.000509657
-0.0131155
0.0011751
-0.0340642
0.00144974
-0.0493693
0.00119072
-0.0588473
0.00051664
-0.0644067
-0.000405873
-0.0682012
-0.00146572
-0.0716142
-0.00262593
-0.0752484
-0.00388382
-0.0792885
-0.083737
-0.00521812
0.000450615
-0.0135662
0.000963902
-0.0345774
0.00105173
-0.0494571
0.000617125
-0.0584127
-0.000203373
-0.0635862
-0.00124913
-0.0671554
-0.00242577
-0.0704375
-0.00370275
-0.0739715
-0.00507978
-0.0779115
-0.0822765
-0.00654035
0.000387684
-0.0139538
0.000749285
-0.034939
0.00065645
-0.0493643
6.02023e-05
-0.0578165
-0.000904262
-0.0626217
-0.00207172
-0.0659879
-0.00336178
-0.0691475
-0.00475295
-0.0725803
-0.00624849
-0.076416
-0.0806917
-0.00783327
0.000321738
-0.0142756
0.00053353
-0.0351508
0.00026882
-0.0490996
-0.000495346
-0.0570523
-0.00158836
-0.0615287
-0.00287181
-0.0647045
-0.00427253
-0.0677467
-0.00577562
-0.0710772
-0.00738828
-0.0748033
-0.078985
-0.00909493
0.000254106
-0.0145297
0.00031839
-0.0352151
-0.00011049
-0.0486707
-0.00103065
-0.0561321
-0.00225291
-0.0603065
-0.00364864
-0.0633088
-0.0051573
-0.0662381
-0.00677006
-0.0694644
-0.00849777
-0.0730756
-0.0771604
-0.0103224
0.000185425
-0.0147151
0.000111251
-0.0351409
-0.000501889
-0.0480575
-0.00155436
-0.0550797
-0.00289692
-0.0589639
-0.00440144
-0.0618042
-0.00601545
-0.0646241
-0.00773565
-0.0677442
-0.0095757
-0.0712356
-0.0752246
-0.0115115
0.000113624
-0.0148287
-0.000102808
-0.0349245
-0.000872345
-0.047288
-0.00206234
-0.0538897
-0.00351989
-0.0575064
-0.00512952
-0.0601946
-0.00684636
-0.0629072
-0.0086717
-0.0659189
-0.0106208
-0.0692864
-0.0731831
-0.0126623
3.68083e-05
-0.0148655
-0.000330386
-0.0345573
-0.0012338
-0.0463846
-0.00255279
-0.0525707
-0.0041211
-0.055938
-0.00583249
-0.0584832
-0.00764968
-0.06109
-0.00957768
-0.0639909
-0.0116334
-0.0672307
-0.0710325
-0.013784
-3.79407e-05
-0.0148276
-0.000543033
-0.0340522
-0.00158424
-0.0453434
-0.00302519
-0.0511297
-0.00469976
-0.0542635
-0.00650997
-0.056673
-0.00842585
-0.0591742
-0.010455
-0.0619618
-0.0126134
-0.0650723
-0.0687703
-0.0148756
-0.000109168
-0.0147184
-0.000747323
-0.0334141
-0.00192218
-0.0441685
-0.0034791
-0.0495728
-0.00525523
-0.0524873
-0.00716142
-0.0547668
-0.00917553
-0.05716
-0.0113075
-0.0598298
-0.0135567
-0.0628231
-0.0664163
-0.0159107
-0.00018083
-0.0145376
-0.00094459
-0.0326503
-0.00224683
-0.0428663
-0.00391388
-0.0479058
-0.00578683
-0.0506144
-0.00778573
-0.0527679
-0.00989639
-0.0550494
-0.0121327
-0.0575935
-0.0145018
-0.060454
-0.0641321
-0.016786
-0.000251166
-0.0142864
-0.00113485
-0.0317666
-0.00255767
-0.0414435
-0.004329
-0.0461345
-0.00629411
-0.0486493
-0.00838183
-0.0506802
-0.0105829
-0.0528483
-0.0128979
-0.0552785
-0.0152849
-0.058067
-0.0612844
-0.0181326
-0.000319599
-0.0139668
-0.00131771
-0.0307685
-0.0028543
-0.0399069
-0.00472415
-0.0442646
-0.00677694
-0.0465965
-0.00894916
-0.048508
-0.0112317
-0.0505658
-0.0136193
-0.0528909
-0.0161305
-0.0555559
-0.0584627
-0.0189522
-0.000385781
-0.0135811
-0.00149269
-0.0296616
-0.00313636
-0.0382632
-0.00509903
-0.0423019
-0.00723501
-0.0444605
-0.00948766
-0.0462553
-0.0118502
-0.0482032
-0.0143271
-0.0504141
-0.0169544
-0.0529285
-0.055625
-0.0197921
-0.000449428
-0.0131316
-0.00165937
-0.0284517
-0.00340356
-0.036519
-0.00545339
-0.0402521
-0.00766788
-0.042246
-0.00999642
-0.0439268
-0.012435
-0.0457646
-0.0149938
-0.0478553
-0.0177048
-0.0502175
-0.0527429
-0.0205869
-0.000510294
-0.0126213
-0.00181737
-0.0271446
-0.00365561
-0.0346808
-0.00578706
-0.0381207
-0.00807546
-0.0399576
-0.0104759
-0.0415264
-0.0129874
-0.043253
-0.0156234
-0.0452194
-0.0184088
-0.047432
-0.0498031
-0.0213486
-0.000568156
-0.0120532
-0.00196637
-0.0257464
-0.00389229
-0.0327548
-0.00609989
-0.035913
-0.00845757
-0.0375999
-0.0109256
-0.0390583
-0.0135061
-0.0406726
-0.0162132
-0.0425123
-0.0190673
-0.044578
-0.0467996
-0.0220708
-0.000622813
-0.0114304
-0.0021061
-0.0242631
-0.00411341
-0.0307475
-0.00639176
-0.0336347
-0.00881413
-0.0351776
-0.0113457
-0.0365268
-0.0139907
-0.0380276
-0.016764
-0.039739
-0.019683
-0.0416589
-0.0437314
-0.0227512
-0.000674091
-0.0107563
-0.00223634
-0.0227009
-0.00431882
-0.0286651
-0.00666258
-0.0312909
-0.00914504
-0.0326951
-0.0117358
-0.033936
-0.014441
-0.0353223
-0.0172756
-0.0369044
-0.0202562
-0.0386783
-0.0406001
-0.0233875
-0.000721832
-0.0100344
-0.00235688
-0.0210658
-0.00450839
-0.0265136
-0.00691227
-0.0288871
-0.00945021
-0.0301572
-0.0120958
-0.0312905
-0.0148567
-0.0325614
-0.0177483
-0.0340128
-0.0207865
-0.0356401
-0.0374087
-0.023978
-0.000765903
-0.00926853
-0.00246758
-0.0193641
-0.00468202
-0.0242991
-0.00714079
-0.0264283
-0.00972957
-0.0275684
-0.0124255
-0.0285946
-0.0152377
-0.0297492
-0.0181816
-0.0310688
-0.0212734
-0.0325483
-0.0341609
-0.0245212
-0.000806186
-0.00846235
-0.00256829
-0.017602
-0.00483962
-0.0220278
-0.00734808
-0.0239198
-0.00998305
-0.0249334
-0.0127248
-0.0258528
-0.0155837
-0.0268904
-0.0185755
-0.028077
-0.0217164
-0.0294074
-0.0308612
-0.0250161
-0.000842578
-0.00761977
-0.0026589
-0.0157857
-0.00498113
-0.0197056
-0.00753409
-0.0213669
-0.0102106
-0.0222569
-0.0129936
-0.0230698
-0.0158945
-0.0239895
-0.0189295
-0.025042
-0.0221149
-0.026222
-0.0275145
-0.0254616
-0.000874992
-0.00674478
-0.00273931
-0.0139214
-0.0051065
-0.0173384
-0.00769881
-0.0187746
-0.0104121
-0.0195436
-0.0132318
-0.0202501
-0.0161701
-0.0210512
-0.0192435
-0.0219686
-0.0224685
-0.022997
-0.0241259
-0.0258571
-0.000903354
-0.00584142
-0.00280945
-0.0120153
-0.00521568
-0.0149321
-0.00784218
-0.0161481
-0.0105875
-0.0167983
-0.0134392
-0.0173984
-0.0164102
-0.0180802
-0.0195172
-0.0188616
-0.0227767
-0.0197375
-0.0207007
-0.0262019
-0.000927602
-0.00491382
-0.00286924
-0.0100736
-0.00530864
-0.0124927
-0.0079642
-0.0134925
-0.0107369
-0.0140256
-0.0136158
-0.0145194
-0.0166147
-0.0150814
-0.0197503
-0.0157259
-0.0230394
-0.0164484
-0.0172444
-0.0264958
-0.000947682
-0.00396614
-0.00291863
-0.0081027
-0.00538533
-0.010026
-0.00806483
-0.010813
-0.01086
-0.0112304
-0.0137616
-0.0116179
-0.0167834
-0.0120596
-0.0199428
-0.0125665
-0.0232562
-0.013135
-0.0137622
-0.0267384
-0.000963552
-0.00300259
-0.00295758
-0.00610867
-0.00544574
-0.00753787
-0.00814407
-0.00811467
-0.010957
-0.00841747
-0.0138763
-0.00869857
-0.0169163
-0.00901952
-0.0200944
-0.00938842
-0.0234271
-0.00980238
-0.0102598
-0.0269295
-0.000975181
-0.00202741
-0.00298605
-0.0040978
-0.00548984
-0.00503409
-0.00820188
-0.00540262
-0.0110278
-0.00559157
-0.0139601
-0.00576628
-0.0170134
-0.0059662
-0.0202052
-0.00619664
-0.0235519
-0.00645569
-0.00674248
-0.0270691
-0.000982542
-0.00104487
-0.00300402
-0.00207632
-0.00551762
-0.00252049
-0.00823826
-0.00268197
-0.0110723
-0.00275752
-0.0140128
-0.00282581
-0.0170745
-0.00290449
-0.0202749
-0.00299621
-0.0236305
-0.00310012
-0.00321578
-0.0271572
-0.000985621
-5.92438e-05
-0.00301147
-5.04771e-05
-0.00552906
-2.90138e-06
-0.0082532
4.2171e-05
-0.0110906
7.98491e-05
-0.0140344
0.000118029
-0.0170996
0.000160708
-0.0203037
0.00020785
-0.023663
0.000259222
0.000314572
-0.0271934
-0.000984411
0.000925167
-0.00300838
0.00197349
-0.00552416
0.00251288
-0.00824669
0.0027647
-0.0110826
0.00291573
-0.014025
0.00306043
-0.0170888
0.00322451
-0.0202915
0.00341057
-0.0236495
0.00361726
0.00384428
-0.0271792
-0.000978911
0.00190408
-0.00299476
0.00398934
-0.00550291
0.00502103
-0.00821872
0.00548051
-0.0110483
0.00574529
-0.0139844
0.00599657
-0.0170419
0.006282
-0.0202382
0.00660691
-0.0235899
0.00696889
0.00736726
-0.0271128
-0.00096913
0.00287321
-0.00297061
0.00599082
-0.0054653
0.00751572
-0.00816927
0.00818448
-0.0109877
0.00856372
-0.0139128
0.00892163
-0.016959
0.00932827
-0.020144
0.00979183
-0.023484
0.0103089
0.0108782
-0.0269949
-0.000955085
0.00382829
-0.00293595
0.00797168
-0.00541135
0.00999112
-0.00809835
0.0108715
-0.0109008
0.0113662
-0.01381
0.0118308
-0.0168402
0.0123584
-0.0200087
0.0129603
-0.023332
0.0136322
0.0143717
-0.0268256
-0.000936802
0.0047651
-0.00289078
0.00992567
-0.00534103
0.0124414
-0.00800595
0.0135364
-0.0107877
0.0141479
-0.0136762
0.0147194
-0.0166854
0.0153676
-0.0198325
0.0161074
-0.023134
0.0169337
0.0178425
-0.0266047
-0.000914313
0.00567941
-0.00283516
0.0118465
-0.00525438
0.0148606
-0.00789206
0.0161741
-0.0106482
0.0169041
-0.0135114
0.0175825
-0.0164947
0.018351
-0.0196154
0.0192281
-0.0228899
0.0202083
0.021285
-0.0263325
-0.000887665
0.00656707
-0.0027691
0.013728
-0.00515138
0.0172429
-0.00775668
0.0187794
-0.0104825
0.01963
-0.0133155
0.0204154
-0.0162682
0.0213037
-0.0193576
0.0223174
-0.0226
0.0234508
0.024694
-0.026009
-0.000856909
0.00742398
-0.00269268
0.0155637
-0.00503207
0.0195823
-0.00759981
0.0213471
-0.0102906
0.0223208
-0.0130887
0.0232135
-0.016006
0.024221
-0.0190591
0.0253705
-0.0222644
0.0266561
0.028064
-0.0256345
-0.000822113
0.00824609
-0.00260593
0.0173475
-0.00489647
0.0218728
-0.00742145
0.0238721
-0.0100724
0.0249717
-0.0128309
0.0259721
-0.0157081
0.0270982
-0.0187201
0.0283826
-0.0218834
0.0298194
0.0313898
-0.0252092
-0.000783353
0.00902945
-0.00250896
0.0190731
-0.00474461
0.0241085
-0.00722161
0.0263491
-0.00982795
0.027578
-0.0125423
0.0286865
-0.0153747
0.0299305
-0.0183409
0.0313488
-0.0214572
0.0329357
0.0346664
-0.0247338
-0.00074072
0.00977017
-0.00240184
0.0207343
-0.00457652
0.0262831
-0.0070003
0.0287729
-0.00955735
0.0301351
-0.012223
0.0313521
-0.0150059
0.0327134
-0.0179217
0.0342645
-0.0209864
0.0360005
0.0378889
-0.0242088
-0.000694323
0.0104645
-0.00228469
0.0223246
-0.00439225
0.0283907
-0.00675753
0.0311381
-0.0092606
0.0326381
-0.011873
0.0339646
-0.014602
0.0354424
-0.0174626
0.0371252
-0.0204713
0.0390091
0.0410527
-0.0236352
-0.000644283
0.0111088
-0.00215764
0.023838
-0.00419189
0.030425
-0.00649333
0.0334396
-0.00893774
0.0350825
-0.0114925
0.0365193
-0.0141629
0.0381128
-0.0169641
0.0399263
-0.0199124
0.0419575
0.0441541
-0.0230138
-0.000590745
0.0116995
-0.00202088
0.0252681
-0.00397552
0.0323796
-0.00620772
0.0356718
-0.00858882
0.0374636
-0.0110815
0.039012
-0.013689
0.0407204
-0.0164261
0.0426633
-0.0193103
0.0448417
0.0471899
-0.022346
-0.000533873
0.0122334
-0.00187458
0.0266088
-0.00374325
0.0342483
-0.00590076
0.0378293
-0.00821389
0.0397768
-0.0106401
0.0414382
-0.0131804
0.0432606
-0.0158486
0.0453316
-0.018665
0.047658
0.0501581
-0.0216332
-0.000473852
0.0127072
-0.001719
0.027854
-0.00349523
0.0360245
-0.00557252
0.0399066
-0.00781301
0.0420173
-0.0101686
0.0437938
-0.0126372
0.0457292
-0.0152318
0.0479261
-0.0179764
0.0504027
0.0530591
-0.0208774
-0.000410894
0.0131181
-0.00155442
0.0289975
-0.00323165
0.0377017
-0.00522307
0.041898
-0.00738623
0.0441804
-0.00966701
0.0460746
-0.0120599
0.0481221
-0.0145748
0.050441
-0.017242
0.0530699
0.0558973
-0.0200802
-0.000345232
0.0134634
-0.00138117
0.0300334
-0.00295273
0.0392733
-0.00485255
0.0437978
-0.00693368
0.0462616
-0.00913556
0.0482765
-0.0114496
0.0504361
-0.0138801
0.0528716
-0.0164611
0.0556509
0.0586837
-0.0192475
-0.000277131
0.0137405
-0.00119967
0.030956
-0.00265875
0.0407324
-0.00446112
0.0456002
-0.00645545
0.0482559
-0.00857394
0.050395
-0.0108051
0.0526673
-0.0131446
0.0552111
-0.0156099
0.0581161
0.0614436
-0.0183698
-0.000206898
0.0139474
-0.00101036
0.0317594
-0.00235001
0.042072
-0.004049
0.0472992
-0.00595191
0.0501588
-0.00798288
0.0524259
-0.0101294
0.0548138
-0.0123914
0.0574732
-0.0147314
0.060456
0.0642168
-0.0175046
-0.000134978
0.0140824
-0.00081372
0.0324382
-0.00202685
0.0432851
-0.00361649
0.0488888
-0.00542333
0.0519656
-0.0073625
0.0543651
-0.00941619
0.0568675
-0.0115967
0.0596537
-0.0139143
0.0627736
0.0664963
-0.0161937
-6.24086e-05
0.0141448
-0.000609983
0.0329858
-0.00168969
0.0443649
-0.00316393
0.0503631
-0.00486983
0.0536715
-0.00671335
0.0562086
-0.0086687
0.0588229
-0.0107448
0.0617297
-0.0129449
0.0649737
0.0688181
-0.0152666
7.66027e-06
0.0141371
-0.000398462
0.0333919
-0.00133918
0.0453056
-0.00269183
0.0517157
-0.00429181
0.0552715
-0.00603632
0.0579531
-0.00789144
0.060678
-0.00986389
0.0637022
-0.0119718
0.0670816
0.0710397
-0.0141934
8.90262e-05
0.0140481
-0.000175493
0.0336564
-0.000976382
0.0461065
-0.00220075
0.0529401
-0.00368986
0.0567606
-0.00533229
0.0595956
-0.00708634
0.062432
-0.00895584
0.0655717
-0.010959
0.0690847
0.0731461
-0.0130654
0.000163138
0.013885
5.47556e-05
0.0337648
-0.000603029
0.0467642
-0.00169111
0.0540282
-0.00306463
0.0581341
-0.00460173
0.0611327
-0.00625274
0.064083
-0.00801731
0.0673363
-0.00991126
0.0709787
0.0751393
-0.0119044
0.000232911
0.013652
0.000258434
0.0337393
-0.000215892
0.0472386
-0.00116413
0.0549764
-0.00241693
0.0593869
-0.00384493
0.0625607
-0.00539023
0.0656283
-0.00704718
0.0689932
-0.00882927
0.0727608
0.0770228
-0.0107128
0.000301617
0.0133504
0.000476767
0.0335641
0.000177358
0.047538
-0.00062304
0.0557768
-0.00174735
0.0605113
-0.00306237
0.0638757
-0.00449912
0.0670651
-0.00604592
0.07054
-0.00771298
0.0744278
0.0787921
-0.00948227
0.000369193
0.0129812
0.000696276
0.033237
0.000567051
0.0476672
-6.26781e-05
0.0564065
-0.0010565
0.0615051
-0.00225462
0.0650738
-0.00357996
0.0683904
-0.00501421
0.0719743
-0.00656355
0.0759772
0.080441
-0.00821242
0.000433958
0.0125473
0.000914996
0.032756
0.000968222
0.047614
0.000502601
0.0568721
-0.000346868
0.0623545
-0.00142242
0.0661494
-0.00263337
0.0696014
-0.00395264
0.0732935
-0.00538232
0.0774069
0.0819656
-0.00690695
0.000494942
0.0120523
0.00113093
0.03212
0.00137335
0.0473716
0.00108447
0.057161
0.000382913
0.0630561
-0.000567096
0.0670994
-0.00166025
0.0706945
-0.00286188
0.0744952
-0.00417057
0.0787156
0.0833633
-0.00556824
0.000551283
0.0115011
0.00134151
0.0313298
0.00177925
0.0469338
0.00167647
0.0572638
0.00113095
0.0636016
0.000311275
0.067919
-0.000662334
0.0716681
-0.00174294
0.0755758
-0.00292982
0.0799024
0.0846317
-0.00419821
0.000602065
0.010899
0.001544
0.0303878
0.00218267
0.0462951
0.0022754
0.0571711
0.00189516
0.0639819
0.00121397
0.0686002
0.000360739
0.0725214
-0.000599388
0.0765359
-0.00165986
0.0809629
0.0857705
-0.00279871
0.000646407
0.0102526
0.00173562
0.0292986
0.00257981
0.045451
0.00287802
0.0568729
0.00267283
0.064187
0.00213611
0.0691369
0.00141234
0.0732451
0.000572729
0.0773755
-0.000350217
0.0818859
0.0867988
-0.00137853
0.000683515
0.00956907
0.00191348
0.0280687
0.00296641
0.044398
0.00348031
0.056359
0.00346106
0.0642063
0.00307649
0.0695215
0.00248421
0.0738374
0.00177168
0.078088
0.000961077
0.0826965
0.0877489
1.10191e-05
0.000712705
0.00885637
0.00207457
0.0267068
0.00333771
0.0431349
0.00407745
0.0556192
0.00425614
0.0640276
0.0040327
0.069745
0.00357669
0.0742934
0.00299071
0.078674
0.00231522
0.083372
0.0884948
0.00156934
0.000733418
0.00812295
0.00221562
0.0252246
0.0036884
0.0416621
0.00466379
0.0546438
0.00505354
0.0636379
0.00500174
0.0697968
0.00468844
0.0746067
0.00423345
0.079129
0.00369232
0.0839131
0.0891077
0.00307936
0.000745284
0.00737766
0.00233353
0.0236363
0.00401266
0.039983
0.00523276
0.0534237
0.00584772
0.0630229
0.00597981
0.0696647
0.00581673
0.0747698
0.00549595
0.0794498
0.00508549
0.0843236
0.0895872
0.004606
0.000748142
0.00662952
0.0024255
0.021959
0.00430429
0.0381042
0.00577675
0.0519513
0.00663193
0.0621677
0.006962
0.0693346
0.00695804
0.0747738
0.00677501
0.0796328
0.00649572
0.0846028
0.0899334
0.00614957
0.000742038
0.00588748
0.00248907
0.020212
0.00455673
0.0360365
0.00628716
0.0502208
0.00739809
0.0610568
0.00794227
0.0687904
0.0081084
0.0746076
0.00806829
0.0796729
0.00792212
0.084749
0.090147
0.00770844
0.000727238
0.00516025
0.00252227
0.0184169
0.0047633
0.0337955
0.0067543
0.0482298
0.00813663
0.0596745
0.00891322
0.0680138
0.00926308
0.0742578
0.00937306
0.0795629
0.00936282
0.0847593
0.0902283
0.00928159
0.00070424
0.00445601
0.00252388
0.0165973
0.0049175
0.0314019
0.00716759
0.0459797
0.0088363
0.0580058
0.00986571
0.0669844
0.010416
0.0737075
0.0106857
0.0792932
0.0108155
0.0846295
0.0901761
0.0108677
0.000673764
0.00378224
0.00249357
0.0147775
0.00501341
0.028882
0.00751573
0.0434774
0.00948414
0.0560373
0.0107886
0.06568
0.0115594
0.0729366
0.0120016
0.0788511
0.0122773
0.0843537
0.0899883
0.0124651
0.000636742
0.0031455
0.00243207
0.0129822
0.00504619
0.0262679
0.00778705
0.0407366
0.0100654
0.053759
0.0116683
0.0640771
0.0126834
0.0719216
0.0133144
0.0782201
0.0137446
0.0839235
0.0896613
0.0140716
0.000594279
0.00255122
0.00234124
0.0112352
0.00501266
0.0235965
0.00797011
0.0377791
0.0105637
0.0511654
0.0124887
0.0621522
0.0137754
0.0706349
0.014616
0.0773794
0.0152125
0.083327
0.0891901
0.0156837
0.000547615
0.00200361
0.00222406
0.00955875
0.00491186
0.0209087
0.00805446
0.0346365
0.0109616
0.0482583
0.0132308
0.0598829
0.0148197
0.069046
0.015896
0.0763031
0.0166748
0.0825482
0.0885672
0.0172977
0.000498064
0.00150554
0.00208445
0.00797236
0.0047456
0.0182475
0.00803164
0.0313505
0.0112407
0.0450493
0.0138729
0.0572506
0.0157971
0.0671218
0.0171404
0.0749598
0.018123
0.0815657
0.0877813
0.0189088
0.000446956
0.00105859
0.00192711
0.00649221
0.00451866
0.015656
0.00789644
0.0279727
0.0113833
0.0415624
0.0143907
0.0542432
0.0166842
0.0648283
0.0183315
0.0733125
0.0195458
0.0803514
0.0868166
0.0205105
0.00039556
0.000663027
0.00175713
0.00513063
0.00423871
0.0131744
0.00764811
0.0245633
0.0113737
0.0378368
0.0147581
0.0508588
0.0174533
0.0621332
0.0194465
0.0713192
0.020928
0.0788699
0.0856504
0.0220941
0.000345017
0.000318011
0.00157968
0.00389597
0.00391582
0.0108383
0.00729144
0.0211877
0.0111999
0.0339284
0.0149485
0.0471101
0.0180724
0.0590094
0.0204571
0.0689344
0.0222491
0.077078
0.0842519
0.0236476
0.000296262
2.1748e-05
0.00139956
0.00279268
0.00356157
0.00867627
0.00683724
0.017912
0.0108562
0.0299094
0.0149367
0.0430297
0.018506
0.05544
0.0213286
0.0661119
0.0234823
0.0749243
0.0825798
0.0251544
0.000249963
-0.000228215
0.00122088
0.00182176
0.0031879
0.00670925
0.00630179
0.0147981
0.0103454
0.0258659
0.0147019
0.0386732
0.0187169
0.051425
0.0220198
0.062809
0.0245931
0.072351
0.0805813
0.0265915
0.00020644
-0.000434655
0.0010468
0.000981394
0.00280588
0.00495018
0.00570531
0.0118987
0.00968014
0.021891
0.0142314
0.0341219
0.0186682
0.0469881
0.0224838
0.0589934
0.0255378
0.069297
0.0781908
0.0279283
0.000165714
-0.000600369
0.000879371
0.000267737
0.00242482
0.00340472
0.00506961
0.00925388
0.00888343
0.0180772
0.0135247
0.0294807
0.0183285
0.0421843
0.02267
0.0546518
0.0262634
0.0657037
0.0753306
0.0291236