/*--------------------------------*- C++ -*----------------------------------*\
  =========                 |
  \\      /  F ield         | OpenFOAM: The Open Source CFD Toolbox
   \\    /   O peration     | Website:  https://openfoam.org
    \\  /    A nd           | Version:  7
     \\/     M anipulation  |
\*---------------------------------------------------------------------------*/
FoamFile
{
    version     2.0;
    format      ascii;
    class       volVectorField;
    location    "290";
    object      U;
}
// * * * * * * * * * * * * * * * * * * * * * * * * * * * * * * * * * * * * * //

dimensions      [0 1 -1 0 0 0 0];

internalField   nonuniform List<vector> 
8500
(
(-0.00300325 0.0175965 1.04659e-21)
(-0.0139772 0.0176527 -3.00916e-21)
(-0.0332537 -0.00231781 -3.50617e-21)
(-0.0556457 -0.0312381 3.48457e-21)
(-0.0796591 -0.0626055 -3.21434e-21)
(-0.103925 -0.0943123 -1.71677e-21)
(-0.127212 -0.126992 2.93498e-21)
(-0.148738 -0.161969 3.67887e-21)
(-0.16807 -0.200064 -6.1477e-22)
(-0.18531 -0.241797 1.77747e-21)
(-0.00406012 0.0220432 -1.15388e-21)
(-0.0159353 0.0272581 3.57558e-21)
(-0.0358335 0.010193 -8.59424e-21)
(-0.0586974 -0.0172464 7.80456e-21)
(-0.0831493 -0.0481477 3.08772e-22)
(-0.107839 -0.0801451 5.67787e-21)
(-0.131535 -0.113638 -9.94137e-21)
(-0.153494 -0.149672 -1.46281e-20)
(-0.173419 -0.188792 -2.93979e-21)
(-0.191552 -0.231228 6.64483e-21)
(-0.00538029 0.0265738 1.12206e-21)
(-0.0182389 0.03718 8.13008e-21)
(-0.0384341 0.0232198 1.90328e-20)
(-0.0612423 -0.00261904 -1.72465e-20)
(-0.0854449 -0.033 -4.00049e-21)
(-0.109722 -0.0652486 -3.57645e-21)
(-0.132817 -0.0994939 1.84825e-20)
(-0.153973 -0.136478 1.13346e-20)
(-0.172934 -0.176433 2.65065e-21)
(-0.189807 -0.219187 -2.0741e-20)
(-0.00694495 0.0310124 4.0032e-21)
(-0.0208413 0.047097 -4.72213e-21)
(-0.0409647 0.0364026 -3.61865e-20)
(-0.0631428 0.012286 3.11627e-21)
(-0.0863631 -0.017498 9.91367e-21)
(-0.109345 -0.0499454 -7.90786e-21)
(-0.130783 -0.0848921 -5.56094e-23)
(-0.149849 -0.122772 -3.31882e-21)
(-0.166217 -0.163451 7.31374e-21)
(-0.17951 -0.206267 2.137e-20)
(-0.00871483 0.0351756 2.84249e-21)
(-0.0236722 0.0566709 -1.58942e-20)
(-0.0433304 0.0493639 3.79108e-20)
(-0.0642768 0.0271008 -1.75385e-20)
(-0.0857546 -0.00198506 -2.41358e-23)
(-0.106537 -0.0345572 2.4503e-20)
(-0.125242 -0.0701617 -1.11455e-20)
(-0.140907 -0.108935 1.15462e-21)
(-0.153076 -0.150326 -4.65179e-21)
(-0.160354 -0.19312 2.16444e-21)
(-0.0106313 0.0388847 3.41389e-20)
(-0.0266382 0.0655639 4.12115e-20)
(-0.0454315 0.0617227 -1.03998e-20)
(-0.0645423 0.041455 2.00979e-20)
(-0.0835098 0.0131945 6.59824e-21)
(-0.101181 -0.0194006 -9.0369e-21)
(-0.116079 -0.055616 -3.59135e-21)
(-0.12704 -0.0953222 -1.63345e-20)
(-0.133515 -0.137514 3.58328e-21)
(-0.132281 -0.180421 -2.07297e-20)
(-0.0126194 0.0419777 -3.29648e-20)
(-0.0296281 0.0734554 -2.15865e-20)
(-0.0471689 0.073105 1.79867e-20)
(-0.0638568 0.0549756 -3.14033e-20)
(-0.0795572 0.0276966 3.92901e-21)
(-0.0932143 -0.00479151 3.76991e-20)
(-0.103247 -0.0415469 -6.89369e-21)
(-0.108216 -0.0822402 4.53817e-20)
(-0.107702 -0.125419 -5.59352e-22)
(-0.0954399 -0.16883 -1.90009e-20)
(-0.0145934 0.0443203 2.844e-20)
(-0.0325182 0.0800586 -5.12834e-20)
(-0.0484483 0.0831574 -2.05065e-20)
(-0.0621618 0.067297 2.37264e-20)
(-0.0738666 0.0411743 1.16601e-21)
(-0.0826226 0.00895802 -7.12953e-20)
(-0.0867587 -0.0282205 -4.66497e-21)
(-0.0844502 -0.0699356 -3.66081e-20)
(-0.0759229 -0.114347 -4.7767e-20)
(-0.0501325 -0.158853 2.83896e-20)
(-0.016463 0.0458165 -1.59061e-20)
(-0.0351808 0.0851361 7.59094e-21)
(-0.0491854 0.0915596 1.8965e-20)
(-0.0594255 0.0780672 -1.76855e-20)
(-0.0664475 0.0532796 -6.14206e-20)
(-0.0694402 0.0215309 2.11113e-20)
(-0.0666768 -0.0159134 2.89154e-21)
(-0.0557715 -0.0586012 5.60017e-20)
(-0.0384526 -0.104532 7.483e-20)
(0.00316461 -0.150412 -3.37488e-20)
(-0.0181414 0.0464152 2.56992e-20)
(-0.0374929 0.0885136 2.34285e-20)
(-0.0493107 0.0980376 -3.34105e-21)
(-0.0556445 0.0869551 8.7e-20)
(-0.0573531 0.0636624 3.721e-20)
(-0.0537606 0.0325896 2.83678e-20)
(-0.0431291 -0.00490063 4.1481e-20)
(-0.0222623 -0.0483319 -1.79721e-20)
(0.00481482 -0.0963813 -2.52221e-20)
(0.0639344 -0.142746 -4.24779e-20)
(-0.0195536 0.0461144 -2.07068e-21)
(-0.0393454 0.0900909 -3.72876e-20)
(-0.0487728 0.102377 -2.69996e-20)
(-0.050842 0.0936632 -4.33888e-20)
(-0.0466738 0.0719795 -3.49503e-20)
(-0.0357111 0.0417854 3.57382e-20)
(-0.0162655 0.00453204 -3.50513e-20)
(0.0156938 -0.0391255 -2.45137e-20)
(0.0542567 -0.0901294 3.3087e-21)
(0.132688 -0.135969 1.0785e-20)
(-0.0206427 0.0449623 -7.21158e-20)
(-0.0406502 0.0898502 3.42661e-20)
(-0.047538 0.104439 2.5089e-20)
(-0.0450608 0.097946 1.702e-20)
(-0.0345236 0.0779071 -3.15773e-20)
(-0.0154445 0.0487407 -2.70444e-20)
(0.0138688 0.0119878 3.97694e-20)
(0.057886 -0.0314483 -3.31202e-20)
(0.109291 -0.0854106 -2.03587e-21)
(0.210296 -0.130422 -3.57304e-20)
(-0.0213764 0.043053 6.09989e-20)
(-0.0413447 0.0878556 2.48175e-20)
(-0.0455827 0.104162 1.4323e-21)
(-0.0383416 0.0996173 -3.09919e-20)
(-0.0210157 0.0811525 2.04655e-21)
(0.00685217 0.053074 3.59762e-20)
(0.0470256 0.0169941 -1.04916e-20)
(0.104458 -0.0258706 -1.31876e-20)
(0.169761 -0.0821557 -3.01163e-20)
(0.296168 -0.12547 5.44678e-20)
(-0.0217495 0.0405179 4.1884e-20)
(-0.0413951 0.0842489 -6.71967e-20)
(-0.0428895 0.10158 -5.21673e-20)
(-0.0307015 0.09858 2.24787e-20)
(-0.00620352 0.0815054 4.66273e-20)
(0.0311019 0.0544832 4.0645e-20)
(0.083102 0.0192078 -4.40697e-20)
(0.155252 -0.0225588 8.70437e-20)
(0.236173 -0.0808657 -2.67743e-20)
(0.389209 -0.120678 -6.40911e-20)
(-0.0217839 0.0375146 -6.24968e-20)
(-0.0407903 0.0792411 3.75613e-20)
(-0.0394273 0.0968271 -1.83244e-20)
(-0.0221001 0.0948596 1.90366e-21)
(0.00996686 0.0788886 1.97494e-20)
(0.0574035 0.0528 -6.39648e-20)
(0.122308 0.0183871 5.83427e-20)
(0.210337 -0.0217905 -5.73468e-20)
(0.309387 -0.0814941 9.45036e-20)
(0.487697 -0.115824 3.42978e-20)
(-0.0215229 0.034212 1.34266e-20)
(-0.0395312 0.0730938 7.34651e-20)
(-0.0351266 0.0901284 -1.862e-20)
(-0.0123902 0.0886044 1.88936e-20)
(0.0277364 0.0733809 2.24274e-20)
(0.0861247 0.0480701 -6.73572e-21)
(0.165233 0.0145671 4.97807e-20)
(0.270185 -0.0237395 2.27494e-21)
(0.390473 -0.0832901 -6.07723e-20)
(0.589113 -0.110723 8.1438e-20)
(-0.021023 0.030774 -3.57516e-20)
(-0.0376157 0.0660957 -6.96942e-20)
(-0.0298571 0.0817874 6.05632e-20)
(-0.00127867 0.0800909 3.0591e-20)
(0.0476067 0.0652433 -1.43667e-19)
(0.118009 0.0405763 1.18661e-19)
(0.212883 0.0081583 -1.09538e-19)
(0.33574 -0.0282599 1.45187e-21)
(0.480136 -0.0848633 -2.55387e-20)
(0.690047 -0.105025 -7.51887e-20)
(-0.0203419 0.0273447 3.10279e-20)
(-0.0350202 0.0585375 -4.20451e-21)
(-0.0234051 0.0721647 -1.48967e-20)
(0.0116978 0.0697134 -1.6903e-21)
(0.07035 0.0549151 -8.76132e-21)
(0.154186 0.0308568 -3.80186e-20)
(0.266597 -3.33766e-05 1.67811e-20)
(0.408286 -0.0346631 -2.6322e-20)
(0.577822 -0.0843488 8.14088e-21)
(0.786391 -0.0982861 2.0821e-21)
(-0.0195249 0.0240354 -6.33318e-20)
(-0.0316801 0.0506873 -4.53597e-21)
(-0.0154594 0.0616511 6.88103e-21)
(0.027178 0.0579621 2.76953e-21)
(0.0969924 0.0430031 4.70237e-20)
(0.196059 0.0197083 -1.3849e-19)
(0.32778 -0.00891852 9.50724e-20)
(0.489 -0.0415449 -7.16658e-20)
(0.681032 -0.0798186 6.109e-20)
(0.874424 -0.090998 6.74001e-20)
(-0.0185916 0.0209165 -7.6417e-21)
(-0.027474 0.0427703 3.51528e-20)
(-0.00560866 0.0506391 -4.41471e-20)
(0.0459493 0.0453895 -1.38736e-20)
(0.128726 0.0302384 2.69322e-20)
(0.245102 0.00810607 1.31436e-19)
(0.397518 -0.0173123 -2.68616e-20)
(0.578188 -0.0468348 1.34438e-20)
(0.785442 -0.0704665 -7.02784e-20)
(0.952974 -0.0864986 2.98117e-20)
(-0.0175258 0.0180151 -2.30232e-20)
(-0.0222143 0.0349563 -1.78303e-20)
(0.0066454 0.0394968 4.35539e-21)
(0.0688882 0.0325723 1.74887e-20)
(0.166762 0.0174264 -5.19865e-20)
(0.302539 -0.00287851 -2.12774e-20)
(0.47616 -0.0240712 -6.75731e-20)
(0.674391 -0.0484054 7.02246e-20)
(0.885974 -0.0585352 7.38133e-20)
(1.0246 -0.0887232 -3.22718e-20)
(-0.0162694 0.0153184 -1.08958e-20)
(-0.0156483 0.0273557 4.46623e-20)
(0.0218588 0.0285493 -4.99956e-20)
(0.0968764 0.0200758 -5.82587e-21)
(0.212145 0.0053905 -2.37132e-20)
(0.369013 -0.0121724 5.2325e-20)
(0.562948 -0.0281455 6.83661e-20)
(0.774016 -0.0453354 -6.53441e-20)
(0.978142 -0.0483271 6.81496e-20)
(1.11497 -0.0764957 8.47697e-21)
(-0.0147233 0.0127837 -3.16114e-20)
(-0.00746745 0.0200268 -9.01823e-20)
(0.040605 0.0180703 8.81259e-20)
(0.130703 0.00842721 1.27384e-20)
(0.265575 -0.00507892 1.88972e-20)
(0.444321 -0.0188071 1.11141e-20)
(0.655823 -0.0286989 5.15866e-20)
(0.87241 -0.0383247 3.7983e-20)
(1.06397 -0.036785 -1.33905e-19)
(1.18942 -0.0582892 -6.37966e-20)
(-0.0127531 0.0103507 -1.0846e-19)
(0.00267366 0.0129916 2.18841e-20)
(0.0634301 0.00828687 -4.96866e-20)
(0.170975 -0.00189588 9.74793e-21)
(0.327249 -0.0132655 1.57528e-20)
(0.527301 -0.0220255 -1.1345e-19)
(0.751633 -0.0253337 4.9825e-20)
(0.965912 -0.0280054 -3.39871e-20)
(1.13976 -0.0230388 3.55342e-20)
(1.24591 -0.0396239 -1.18833e-20)
(-0.0101995 0.00795763 3.9169e-20)
(0.0151351 0.00625836 4.21635e-20)
(0.0908103 -0.000602819 -2.32301e-21)
(0.21804 -0.010462 -1.36654e-20)
(0.396766 -0.0185581 6.40918e-22)
(0.61589 -0.0213677 1.2914e-21)
(0.846791 -0.0181129 -7.6073e-20)
(1.0515 -0.0149533 9.59555e-21)
(1.20382 -0.00786683 9.26971e-20)
(1.29085 -0.0205943 4.11354e-20)
(-0.00689045 0.00555491 -2.64667e-20)
(0.0302684 -0.000152318 -1.971e-20)
(0.123117 -0.00840455 8.4485e-20)
(0.271937 -0.0168712 2.16547e-21)
(0.473099 -0.0204794 -3.54321e-20)
(0.707381 -0.0167 9.5983e-20)
(0.937932 -0.00742581 2.08541e-20)
(1.12717 0.000165913 7.69102e-22)
(1.2564 0.00830024 -4.07823e-20)
(1.32356 -0.00193243 -5.16326e-20)
(-0.00265265 0.00311737 5.51022e-20)
(0.0483945 -0.00618409 -1.54664e-20)
(0.160587 -0.014901 -9.19363e-21)
(0.332364 -0.020742 -3.50806e-20)
(0.554652 -0.0187143 5.80095e-20)
(0.79883 -0.00817661 -2.85796e-20)
(1.02237 0.00616987 -3.1982e-20)
(1.19207 0.0167673 -7.83828e-21)
(1.29802 0.0249674 -2.30252e-20)
(1.3472 0.0161485 2.4604e-20)
(0.00267823 0.000651213 -2.03338e-20)
(0.0697845 -0.0117268 -1.20577e-19)
(0.203301 -0.0198309 1.26242e-20)
(0.398666 -0.0217125 4.35751e-20)
(0.63941 -0.0131302 3.13177e-20)
(0.887457 0.00384595 -1.04186e-19)
(1.09832 0.0220837 6.6453e-20)
(1.24618 0.0343498 -3.02064e-20)
(1.32998 0.0418114 4.49193e-20)
(1.36319 0.0336406 1.21192e-20)
(0.00924979 -0.00180266 -2.21608e-20)
(0.0946425 -0.0166069 4.2855e-20)
(0.25116 -0.0228818 5.5829e-20)
(0.469843 -0.0194622 -4.02432e-20)
(0.725151 -0.00377376 1.4946e-20)
(0.97096 0.0189057 -9.15558e-20)
(1.16485 0.0397674 -1.74842e-20)
(1.29011 0.0525271 1.41587e-20)
(1.35364 0.0586245 -3.41302e-20)
(1.37337 0.0505412 -3.41137e-20)
(0.0171869 -0.00417004 -2.85119e-20)
(0.123089 -0.0205885 -9.54662e-21)
(0.303867 -0.0236991 -1.00984e-19)
(0.544598 -0.0137449 -1.58222e-20)
(0.809677 0.00915878 -1.78776e-21)
(1.04766 0.0365123 5.40355e-21)
(1.22172 0.0587515 9.66334e-21)
(1.3248 0.0710171 -4.42395e-20)
(1.37042 0.0752949 8.01052e-22)
(1.37905 0.0669503 2.35579e-20)
(0.0265873 -0.00634735 -7.38418e-21)
(0.155144 -0.0233816 3.50028e-20)
(0.360911 -0.0219116 4.93032e-20)
(0.621416 -0.00442135 3.0858e-20)
(0.89102 0.0253675 -9.2253e-21)
(1.1165 0.0561954 -7.50409e-21)
(1.26923 0.0786551 7.45968e-20)
(1.3514 0.0896295 9.68777e-21)
(1.38158 0.0917839 3.30458e-20)
(1.38134 0.0829525 -1.4119e-20)
(0.0375178 -0.00820692 7.05915e-20)
(0.190717 -0.0246578 4.59824e-20)
(0.421572 -0.0171672 -4.66009e-20)
(0.698682 0.0085272 -9.28517e-21)
(0.967573 0.0444946 4.76726e-21)
(1.17699 0.0775311 -1.75397e-20)
(1.30799 0.0991826 -3.8071e-20)
(1.37104 0.108247 -6.43262e-21)
(1.38824 0.108096 5.49507e-22)
(1.38104 0.0986464 1.52544e-20)
(0.0500093 -0.00960296 8.50128e-21)
(0.229595 -0.0240702 -2.50074e-20)
(0.48494 -0.0091714 5.91979e-20)
(0.774799 0.0250041 3.86166e-20)
(1.03814 0.066161 1.04156e-21)
(1.22904 0.100151 2.73582e-20)
(1.3388 0.120112 4.08683e-21)
(1.38481 0.126807 -2.86058e-20)
(1.39132 0.124259 2.40639e-20)
(1.37877 0.11411 -3.23267e-23)
(0.0640531 -0.0103777 -5.78011e-20)
(0.271434 -0.0212761 -1.70826e-20)
(0.549957 0.00228275 -1.55339e-20)
(0.848307 0.0448176 -2.69944e-20)
(1.10193 0.0899902 6.2163e-21)
(1.2729 0.123745 1.45114e-22)
(1.36252 0.141285 2.08264e-20)
(1.39367 0.145281 -3.29654e-21)
(1.39153 0.140312 -2.47394e-20)
(1.37494 0.129407 -2.29078e-20)
(0.0795972 -0.0103676 4.66059e-21)
(0.31577 -0.0159592 2.75126e-20)
(0.615479 0.0172969 1.32968e-20)
(0.91795 0.067706 -4.17129e-20)
(1.15851 0.115623 -2.15223e-21)
(1.30901 0.148054 -1.78553e-20)
(1.38001 0.162585 4.66395e-22)
(1.39844 0.163663 8.42563e-21)
(1.38944 0.156288 -9.29186e-21)
(1.36985 0.144575 2.58581e-20)
(0.0965439 -0.00940959 1.08631e-20)
(0.362023 -0.00785124 -2.68049e-20)
(0.68034 0.0358641 -6.34154e-20)
(0.98272 0.0933609 5.84523e-20)
(1.2077 0.142725 -4.37195e-21)
(1.33792 0.172865 1.29484e-20)
(1.39205 0.183932 -1.77451e-21)
(1.39979 0.181955 1.239e-20)
(1.38545 0.172211 -9.30135e-22)
(1.36369 0.159635 -2.0033e-20)
(0.114749 -0.0073479 -2.20595e-20)
(0.40952 0.00325071 3.4731e-20)
(0.743416 0.0578761 2.88193e-20)
(1.04186 0.121446 -4.15057e-20)
(1.24957 0.170986 -6.84137e-21)
(1.36021 0.197999 2.6331e-21)
(1.39937 0.205265 2.62752e-20)
(1.39827 0.200156 1.33909e-21)
(1.37986 0.188092 5.12424e-21)
(1.35655 0.174584 -1.10505e-20)
(0.134022 -0.0040407 1.67305e-20)
(0.457521 0.017471 -1.51113e-20)
(0.803678 0.0831368 -1.28264e-20)
(1.09484 0.151609 2.20612e-20)
(1.28431 0.200122 7.64332e-21)
(1.3765 0.223308 5.76273e-21)
(1.40257 0.226533 -2.67208e-20)
(1.39429 0.21826 -9.17108e-21)
(1.37286 0.203923 -8.23475e-21)
(1.3485 0.189405 3.63173e-21)
(0.154133 0.000633015 -8.26535e-21)
(0.505247 0.0348483 -1.94628e-22)
(0.860222 0.111378 2.4258e-20)
(1.14134 0.183494 -8.92643e-21)
(1.31222 0.229872 -3.91786e-21)
(1.38735 0.248657 -2.58758e-21)
(1.40218 0.247687 6.45399e-21)
(1.38817 0.23625 1.11856e-20)
(1.36459 0.21968 -3.5318e-22)
(1.33957 0.204065 4.10242e-21)
(0.174813 0.00676713 5.81642e-21)
(0.551916 0.0553337 -1.6333e-21)
(0.912293 0.142274 -4.32857e-21)
(1.1812 0.216742 -3.92105e-21)
(1.33366 0.25999 3.53711e-21)
(1.39328 0.273926 2.76373e-21)
(1.3986 0.268675 -2.55268e-21)
(1.38016 0.254092 9.33246e-22)
(1.35513 0.235324 1.31336e-21)
(1.32978 0.218517 -1.75098e-21)
(0.195765 0.0144231 3.0855e-21)
(0.596766 0.0787932 8.84743e-22)
(0.959286 0.175458 -5.31393e-21)
(1.21439 0.250999 -4.24373e-21)
(1.349 0.290249 4.43242e-21)
(1.39476 0.298999 8.67397e-22)
(1.39219 0.289433 -2.04656e-21)
(1.37041 0.271738 1.92963e-21)
(1.34452 0.250796 1.08508e-21)
(1.31914 0.232703 -1.25727e-21)
(0.216672 0.0236259 -1.21522e-21)
(0.639084 0.105015 2.47299e-21)
(1.00074 0.210532 1.63029e-20)
(1.24098 0.285915 -7.23848e-21)
(1.35864 0.320428 -3.58108e-21)
(1.3922 0.323757 -4.05072e-21)
(1.38322 0.309892 8.33025e-21)
(1.35906 0.289126 5.6273e-21)
(1.3328 0.266019 4.53174e-21)
(1.30766 0.246561 2.48815e-21)
(0.237205 0.0343616 2.45595e-20)
(0.678226 0.133717 -1.35669e-20)
(1.03634 0.247074 -1.55312e-20)
(1.26112 0.32115 2.10779e-20)
(1.36296 0.350317 1.11173e-20)
(1.38596 0.348084 -7.51481e-22)
(1.3719 0.329968 -1.39211e-20)
(1.34616 0.306173 -1.01014e-20)
(1.31997 0.280901 -1.06671e-20)
(1.29533 0.26002 6.41221e-21)
(0.257034 0.0465769 -3.31717e-20)
(0.713631 0.164557 3.12785e-20)
(1.06588 0.284654 3.59627e-20)
(1.27503 0.356368 -3.55492e-20)
(1.36231 0.379709 -1.23776e-20)
(1.37633 0.371856 8.00079e-21)
(1.35841 0.34957 1.46685e-20)
(1.33179 0.322791 2.34309e-21)
(1.30603 0.29534 -4.49226e-22)
(1.28207 0.273003 -8.83124e-21)
(0.275835 0.0601796 -4.70371e-21)
(0.744827 0.197148 -4.38327e-20)
(1.08926 0.322831 -4.70101e-20)
(1.28294 0.391247 5.28593e-20)
(1.35705 0.408404 -6.01602e-21)
(1.36361 0.394943 1.11975e-20)
(1.34288 0.368596 2.25641e-21)
(1.31599 0.338891 -6.33396e-21)
(1.29094 0.30926 3.40758e-21)
(1.2677 0.285437 -5.36911e-22)
(0.293299 0.0750414 9.60012e-21)
(0.771445 0.231062 2.706e-20)
(1.10649 0.361166 1.54021e-20)
(1.28513 0.425471 -1.2121e-20)
(1.3475 0.4362 -1.89145e-20)
(1.34801 0.41721 -1.78474e-20)
(1.32543 0.386934 -3.65939e-21)
(1.29881 0.354381 9.92745e-21)
(1.27475 0.32265 -2.1057e-21)
(1.25209 0.297263 4.89896e-21)
(0.309143 0.0910002 -3.60967e-20)
(0.79321 0.265852 -3.38629e-20)
(1.11763 0.399225 -5.35281e-21)
(1.28189 0.458735 -6.06654e-21)
(1.33397 0.462899 -1.39731e-20)
(1.32974 0.438514 8.691e-21)
(1.30617 0.404454 -1.55898e-21)
(1.2803 0.369141 -8.75544e-21)
(1.25751 0.335524 7.96963e-21)
(1.23553 0.308448 -1.19969e-20)
(0.323115 0.107864 8.67797e-21)
(0.809946 0.301055 2.86727e-20)
(1.12282 0.436582 2.49834e-20)
(1.27353 0.490746 2.72991e-20)
(1.31676 0.48831 5.00022e-22)
(1.30899 0.458711 2.45545e-20)
(1.28518 0.421026 1.76287e-21)
(1.2605 0.383017 -3.01341e-20)
(1.23913 0.347672 2.20118e-20)
(1.21834 0.318891 8.22177e-21)
(0.334998 0.125415 2.33086e-20)
(0.821559 0.33621 5.22005e-20)
(1.12224 0.472829 -6.94965e-21)
(1.26037 0.521219 -3.43689e-20)
(1.29614 0.51224 1.56456e-20)
(1.28593 0.477655 -1.65525e-20)
(1.26258 0.436523 -2.27531e-20)
(1.23948 0.395963 -2.3132e-21)
(1.21959 0.358918 -1.86943e-20)
(1.20047 0.328513 7.4655e-21)
(0.344617 0.14342 1.09458e-20)
(0.828036 0.370857 8.12087e-21)
(1.11615 0.507571 6.54794e-20)
(1.24274 0.549883 1.24744e-20)
(1.27238 0.534503 -1.10361e-20)
(1.26076 0.495188 -5.73243e-21)
(1.23849 0.450804 3.5307e-20)
(1.21727 0.407858 2.97932e-20)
(1.19905 0.369184 1.52103e-20)
(1.1818 0.337174 -2.212e-21)
(0.351838 0.161628 2.34551e-21)
(0.829439 0.404551 -5.33265e-20)
(1.10484 0.540439 -7.70393e-20)
(1.22098 0.576487 2.57397e-21)
(1.24573 0.554907 1.58231e-20)
(1.23363 0.511156 -2.2062e-20)
(1.21299 0.463743 -5.25544e-20)
(1.19389 0.418586 -1.61435e-20)
(1.17757 0.378366 -1.03419e-21)
(1.16237 0.344806 9.07928e-21)
(0.356572 0.179786 -1.90117e-20)
(0.825905 0.43686 4.8151e-20)
(1.08865 0.57109 4.64038e-20)
(1.1954 0.600798 -4.36347e-20)
(1.21641 0.573271 6.61597e-21)
(1.20472 0.525401 5.50126e-20)
(1.18616 0.475209 -1.3375e-20)
(1.16946 0.428033 1.11851e-20)
(1.15521 0.38637 -6.23393e-21)
(1.14224 0.351336 -8.557e-21)
(0.358774 0.197632 -4.28972e-20)
(0.81765 0.467368 -7.59218e-20)
(1.06794 0.599217 -1.5006e-20)
(1.16623 0.62256 2.49138e-20)
(1.18473 0.589441 2.55431e-20)
(1.17419 0.537769 -5.54866e-20)
(1.15815 0.485076 3.17485e-20)
(1.14406 0.436092 -1.85629e-20)
(1.13205 0.393103 1.61702e-20)
(1.12147 0.356699 5.34326e-23)
(0.358459 0.214911 3.26854e-20)
(0.804961 0.495693 2.15489e-21)
(1.04296 0.62454 -7.33184e-21)
(1.1338 0.641571 -3.15846e-20)
(1.15097 0.603206 2.17963e-20)
(1.14222 0.548144 4.02334e-21)
(1.12906 0.493229 -1.97932e-20)
(1.1178 0.442661 2.27486e-21)
(1.10817 0.398471 -5.30699e-21)
(1.10018 0.360826 4.41184e-21)
(0.355692 0.231363 -9.10134e-21)
(0.788148 0.521556 -1.30595e-20)
(1.01382 0.646666 3.29876e-20)
(1.09863 0.657696 1.5561e-20)
(1.11539 0.614417 -2.20035e-20)
(1.109 0.556387 3.46638e-20)
(1.09904 0.499558 1.83649e-21)
(1.09078 0.447646 1.42037e-21)
(1.08366 0.402373 -4.81305e-21)
(1.07844 0.36362 -5.32655e-22)
(0.350554 0.24669 5.94305e-20)
(0.767392 0.544741 4.60559e-20)
(0.98101 0.665403 -2.61963e-21)
(1.06113 0.670638 -7.85625e-21)
(1.07824 0.622996 -9.2913e-21)
(1.07472 0.562393 -4.87716e-21)
(1.06825 0.503967 1.11113e-21)
(1.06313 0.450966 2.95202e-21)
(1.05862 0.40472 5.09472e-21)
(1.05633 0.364984 7.18099e-22)
(0.343088 0.260588 5.67538e-21)
(0.742854 0.564798 8.46071e-21)
(0.945254 0.680721 -4.51042e-20)
(1.02161 0.68025 2.09727e-20)
(1.03978 0.62881 8.47013e-21)
(1.03956 0.566059 -2.00957e-20)
(1.03682 0.506365 6.15372e-21)
(1.03496 0.452551 1.06281e-21)
(1.03318 0.405444 -1.44171e-21)
(1.03411 0.364873 -1.83791e-22)
(0.333395 0.272834 -2.24729e-20)
(0.714912 0.581327 -1.70619e-20)
(0.906951 0.692361 1.58689e-20)
(0.980372 0.686486 5.67148e-21)
(1.00027 0.631761 -7.77759e-21)
(1.00372 0.567293 9.09349e-21)
(1.00488 0.506667 7.59198e-22)
(1.00635 0.452309 6.18287e-22)
(1.00762 0.404478 7.48589e-21)
(1.01249 0.363339 4.22233e-21)
(0.3217 0.283294 -1.80533e-20)
(0.684085 0.594165 4.87693e-20)
(0.866449 0.700111 -3.27001e-20)
(0.937759 0.689256 -3.68168e-21)
(0.959953 0.631769 -8.21067e-21)
(0.967392 0.566022 4.54864e-21)
(0.972555 0.504791 -2.1788e-21)
(0.977427 0.450103 1.43249e-21)
(0.982353 0.40161 1.83635e-21)
(0.992288 0.360413 -1.14211e-21)
(0.308198 0.291841 -5.28932e-22)
(0.65081 0.603167 -1.42388e-20)
(0.824157 0.703821 9.92198e-21)
(0.894113 0.688484 -6.93875e-21)
(0.919108 0.62878 -3.41559e-22)
(0.930751 0.562201 2.67955e-21)
(0.93996 0.500699 6.7669e-21)
(0.948387 0.445835 -6.52213e-21)
(0.957761 0.39643 -1.30059e-20)
(0.972747 0.355312 6.88918e-21)
(0.293077 0.298305 1.95352e-21)
(0.615528 0.608205 -5.5469e-22)
(0.780499 0.703408 5.86366e-22)
(0.849784 0.684116 -1.23905e-21)
(0.877997 0.622759 -4.03395e-21)
(0.893998 0.555808 -1.14267e-20)
(0.907293 0.494405 -3.0384e-21)
(0.919518 0.439657 -2.19803e-21)
(0.933791 0.389183 2.05698e-20)
(0.950651 0.344087 -3.42502e-21)
(0.276568 0.302556 -7.16575e-21)
(0.578671 0.609181 -5.44355e-21)
(0.735899 0.698826 2.49567e-21)
(0.805118 0.676121 1.48285e-21)
(0.836883 0.613683 -6.46922e-21)
(0.857354 0.546824 2.46758e-20)
(0.874826 0.485879 -1.89678e-20)
(0.891053 0.431668 2.30469e-20)
(0.90922 0.381968 -1.60496e-20)
(0.925684 0.338421 -2.21402e-20)
(0.25892 0.304493 2.27493e-21)
(0.54067 0.606032 -3.16154e-21)
(0.690779 0.690063 1.42771e-21)
(0.760457 0.664501 9.74967e-21)
(0.796034 0.601552 -5.28538e-21)
(0.82105 0.535233 7.83764e-21)
(0.842773 0.47507 1.08194e-20)
(0.863024 0.421555 -5.74141e-21)
(0.88456 0.372392 -1.70868e-20)
(0.902022 0.329074 2.31387e-20)
(0.240388 0.304046 6.84018e-21)
(0.501954 0.598733 8.49886e-21)
(0.645552 0.67714 -9.46617e-21)
(0.716138 0.649279 -8.04003e-21)
(0.755713 0.586387 3.38889e-20)
(0.785305 0.521056 -3.50181e-20)
(0.811279 0.462038 4.32891e-20)
(0.835421 0.409585 -1.06234e-20)
(0.859991 0.361558 1.14776e-20)
(0.879149 0.319474 2.23532e-20)
(0.221234 0.301172 -1.8425e-21)
(0.462948 0.587297 -9.46503e-21)
(0.600622 0.660108 -7.65897e-21)
(0.67249 0.630508 -3.5574e-21)
(0.716185 0.568227 5.5911e-21)
(0.750341 0.504321 -1.01476e-20)
(0.78052 0.446788 -1.28298e-20)
(0.808416 0.395681 -2.93679e-20)
(0.835894 0.349035 2.93585e-20)
(0.857191 0.308389 -9.11404e-21)
(0.201721 0.295856 2.20005e-20)
(0.42407 0.571772 -3.26337e-21)
(0.556383 0.639046 -1.08344e-20)
(0.629833 0.608262 1.31022e-20)
(0.677706 0.547134 -2.31082e-20)
(0.716368 0.48508 6.40537e-20)
(0.750659 0.429378 -3.433e-20)
(0.782176 0.379936 3.12471e-20)
(0.812494 0.334988 -5.71812e-20)
(0.836158 0.295968 -1.52865e-20)
(0.182109 0.288111 -5.77349e-21)
(0.385727 0.552245 2.34552e-20)
(0.513213 0.614066 5.13677e-21)
(0.588477 0.582641 -1.25165e-20)
(0.640526 0.523188 -2.17855e-20)
(0.683592 0.463398 -2.58353e-22)
(0.72187 0.409862 1.14399e-20)
(0.756867 0.362384 -2.85324e-20)
(0.789951 0.319391 1.37508e-20)
(0.816085 0.282141 1.77675e-21)
(0.162656 0.277978 -3.99832e-20)
(0.348312 0.528835 -9.63206e-21)
(0.471475 0.585303 -2.85318e-21)
(0.548719 0.553767 3.32014e-20)
(0.604886 0.496491 -3.11717e-20)
(0.652212 0.439361 -7.80826e-21)
(0.694324 0.388315 -4.95322e-21)
(0.732649 0.34309 8.89334e-21)
(0.768404 0.302289 -1.15978e-20)
(0.797036 0.266946 -1.79454e-20)
(0.143612 0.265523 3.64557e-20)
(0.312203 0.501693 -2.0921e-20)
(0.431517 0.552925 8.45844e-22)
(0.51084 0.521785 -5.07969e-20)
(0.571014 0.467163 5.52456e-20)
(0.62242 0.413069 -1.74575e-20)
(0.668184 0.364824 1.04348e-20)
(0.70967 0.322124 9.11368e-21)
(0.747978 0.283728 2.63968e-20)
(0.779081 0.250432 -1.10376e-20)
(0.125216 0.250836 -1.47307e-20)
(0.277755 0.471003 4.36574e-20)
(0.393665 0.517121 2.47004e-20)
(0.47511 0.486862 4.08206e-20)
(0.53913 0.435342 -9.31824e-21)
(0.5944 0.384639 3.82832e-21)
(0.64361 0.339489 3.06209e-20)
(0.688069 0.299567 6.92556e-21)
(0.728786 0.263774 6.72235e-22)
(0.762296 0.23267 -1.3281e-20)
(0.107699 0.234031 -3.51324e-20)
(0.245304 0.436975 -2.48457e-21)
(0.358224 0.478107 -1.46844e-20)
(0.441777 0.449183 -6.62474e-20)
(0.509437 0.401184 -6.40876e-20)
(0.568323 0.354204 1.06428e-20)
(0.620748 0.312424 -2.62795e-20)
(0.667972 0.275516 1.69297e-20)
(0.710938 0.242506 9.16063e-21)
(0.746753 0.213742 1.8875e-20)
(0.0912747 0.215244 5.23441e-20)
(0.215161 0.399849 -4.28435e-20)
(0.325477 0.436122 -2.18329e-20)
(0.411073 0.408953 3.83799e-20)
(0.482126 0.364862 4.38604e-20)
(0.544352 0.32191 -1.46706e-20)
(0.599737 0.283755 -1.96823e-21)
(0.649501 0.250076 -5.25219e-20)
(0.694536 0.220016 -2.96553e-20)
(0.732525 0.193738 1.13349e-20)
(0.0761414 0.19463 -2.98902e-20)
(0.187612 0.359887 1.25656e-20)
(0.295682 0.391422 4.64429e-20)
(0.383211 0.366395 -2.10191e-20)
(0.457372 0.326562 1.75356e-21)
(0.522633 0.287917 5.89948e-20)
(0.580704 0.253617 2.63844e-21)
(0.632766 0.223363 5.05873e-20)
(0.679675 0.196405 2.10542e-20)
(0.719678 0.172759 -3.34824e-20)
(0.0624801 0.172365 4.18948e-20)
(0.162914 0.317375 4.7252e-21)
(0.269071 0.344287 3.08819e-21)
(0.358381 0.321747 4.25929e-20)
(0.435333 0.286485 -5.60924e-21)
(0.503301 0.252397 -3.71113e-20)
(0.563764 0.222161 1.81646e-20)
(0.617866 0.195506 -2.90749e-20)
(0.666442 0.171786 -1.20953e-20)
(0.708274 0.150909 1.22139e-20)
(0.0504519 0.148638 -2.6103e-20)
(0.141295 0.272616 -5.03158e-20)
(0.245852 0.29501 1.16865e-20)
(0.336752 0.275261 -2.28302e-20)
(0.416148 0.244845 -1.37088e-20)
(0.486475 0.215532 3.33436e-20)
(0.549018 0.189542 -8.06079e-21)
(0.604892 0.166639 7.37002e-21)
(0.654916 0.146277 -9.00786e-21)
(0.698367 0.128297 1.79428e-20)
(0.0401968 0.123654 9.54875e-21)
(0.122952 0.225934 3.39997e-20)
(0.2262 0.243901 -4.73149e-20)
(0.318472 0.227201 2.23022e-20)
(0.39994 0.201866 -1.01748e-20)
(0.472258 0.177514 -2.86096e-20)
(0.536557 0.155926 2.33844e-20)
(0.593922 0.136905 4.86284e-21)
(0.645166 0.120005 -7.51212e-22)
(0.690004 0.105035 -2.0854e-20)
(0.031833 0.0976315 3.15187e-21)
(0.108051 0.177666 1.10368e-20)
(0.210266 0.19128 4.29298e-20)
(0.303662 0.177844 -8.2541e-21)
(0.38681 0.15778 -6.50369e-21)
(0.460737 0.138544 2.38733e-21)
(0.526454 0.121486 1.11432e-21)
(0.585022 0.106454 8.73361e-21)
(0.637251 0.0931013 -1.14874e-20)
(0.683227 0.0812392 -7.29606e-21)
(0.0254552 0.070797 -7.84588e-21)
(0.0967243 0.12816 -1.34282e-20)
(0.198167 0.137481 -3.34969e-20)
(0.292421 0.127473 1.68591e-20)
(0.37684 0.11283 1.37268e-20)
(0.451982 0.0988278 5.8511e-22)
(0.518771 0.0864006 -2.29244e-20)
(0.578247 0.0754399 -1.01971e-20)
(0.631219 0.0657001 8.04603e-21)
(0.678066 0.057024 8.62738e-21)
(0.0211342 0.0433857 1.37223e-21)
(0.0890703 0.0777757 -2.8311e-21)
(0.189994 0.0828428 6.3543e-21)
(0.284823 0.0763792 -4.29876e-21)
(0.370091 0.067262 -3.81139e-21)
(0.446045 0.0585777 -2.58057e-21)
(0.513552 0.0508516 4.72978e-21)
(0.573636 0.0440208 1.80202e-20)
(0.627105 0.0379407 2.60202e-21)
(0.674546 0.0325065 -4.61022e-21)
(0.0189165 0.0156385 1.69527e-21)
(0.0851534 0.0268777 -4.66288e-21)
(0.185803 0.0277116 -5.28512e-21)
(0.280914 0.0248574 -3.66516e-21)
(0.366603 0.0213261 3.48796e-21)
(0.442961 0.0180091 1.57298e-21)
(0.510827 0.0150254 -1.56582e-21)
(0.571217 0.0123592 -7.13774e-21)
(0.624933 0.00996821 2.34957e-21)
(0.672679 0.00781966 -2.19569e-21)
(0.0188231 -0.0122008 -1.70068e-21)
(0.0850032 -0.0241647 4.67784e-21)
(0.185622 -0.0275636 5.30105e-21)
(0.280718 -0.0267938 -5.07227e-21)
(0.366395 -0.0247238 4.46489e-21)
(0.442745 -0.0226607 2.23497e-21)
(0.510609 -0.0208906 -3.56702e-21)
(0.571002 -0.0193833 -4.14856e-21)
(0.624721 -0.0180786 6.12686e-22)
(0.672494 -0.0169336 -1.72561e-21)
(0.0208504 -0.0398874 1.86424e-21)
(0.0886145 -0.0749815 -5.57227e-21)
(0.189445 -0.082633 1.2509e-20)
(0.28423 -0.0782753 -1.09796e-20)
(0.369463 -0.0706341 -5.13962e-22)
(0.445395 -0.0632136 -7.28814e-21)
(0.512898 -0.0567089 1.18461e-20)
(0.57299 -0.0510444 1.61085e-20)
(0.62646 -0.0460594 2.88521e-21)
(0.673964 -0.0416439 -6.20808e-21)
(0.0249692 -0.0671779 -1.60856e-21)
(0.095947 -0.125204 -1.18229e-20)
(0.197237 -0.137148 -2.74675e-20)
(0.291421 -0.12929 2.37593e-20)
(0.375783 -0.116152 4.90784e-21)
(0.450889 -0.103433 4.33288e-21)
(0.517675 -0.0922419 -2.13606e-20)
(0.577164 -0.0824604 -1.25741e-20)
(0.630138 -0.0738277 -2.78673e-21)
(0.677086 -0.0661751 1.91874e-20)
(0.0311257 -0.093833 -5.67473e-21)
(0.106926 -0.17447 7.10834e-21)
(0.208931 -0.190765 4.98847e-20)
(0.302236 -0.179542 -4.46679e-21)
(0.38531 -0.161028 -1.2793e-20)
(0.45919 -0.143104 9.19591e-21)
(0.524906 -0.127305 5.95864e-22)
(0.583496 -0.113471 3.24714e-21)
(0.63573 -0.101243 -7.08856e-21)
(0.681846 -0.0904129 -1.8754e-20)
(0.0392415 -0.119619 -3.84199e-21)
(0.121441 -0.222421 2.08623e-20)
(0.224428 -0.243144 -5.02782e-20)
(0.316595 -0.228744 2.18153e-20)
(0.397976 -0.205016 2.003e-22)
(0.47024 -0.182016 -2.7645e-20)
(0.534543 -0.161716 1.21928e-20)
(0.591941 -0.143919 -1.11985e-21)
(0.643198 -0.128169 4.63309e-21)
(0.688217 -0.114244 -1.42909e-21)
(0.0492144 -0.144312 -4.40112e-20)
(0.139352 -0.268711 -5.25527e-20)
(0.243601 -0.293957 1.37429e-20)
(0.33439 -0.276613 -2.49794e-20)
(0.413694 -0.247879 -7.09634e-21)
(0.483965 -0.219965 1.05264e-20)
(0.546522 -0.1953 3.91927e-21)
(0.602444 -0.173652 1.45849e-20)
(0.652492 -0.154472 -3.14421e-21)
(0.696165 -0.137552 1.68576e-20)
(0.0609193 -0.167698 4.21032e-20)
(0.16048 -0.313008 2.70291e-20)
(0.266292 -0.342885 -2.05191e-20)
(0.355494 -0.322878 3.45363e-20)
(0.432357 -0.289385 -2.99103e-21)
(0.500274 -0.256754 -3.73517e-20)
(0.560764 -0.227886 6.56221e-21)
(0.614935 -0.202523 -3.9674e-20)
(0.66355 -0.18002 1.50367e-21)
(0.705648 -0.160224 1.44331e-20)
(0.0742091 -0.189574 -3.1417e-20)
(0.18462 -0.354992 5.62168e-20)
(0.292313 -0.389622 2.20291e-20)
(0.379753 -0.367276 -2.71855e-20)
(0.453837 -0.329314 1.84679e-22)
(0.519058 -0.292193 6.8917e-20)
(0.577176 -0.25931 3.1789e-21)
(0.629333 -0.230391 3.06187e-20)
(0.676302 -0.204692 3.72982e-20)
(0.716617 -0.182151 -2.09167e-20)
(0.088916 -0.209756 1.76133e-20)
(0.211533 -0.394363 -8.42021e-21)
(0.32145 -0.433878 -1.99964e-20)
(0.40699 -0.40956 1.51518e-20)
(0.477989 -0.367456 5.79377e-20)
(0.540195 -0.326103 -2.03125e-20)
(0.595654 -0.28942 -3.28801e-21)