/*--------------------------------*- C++ -*----------------------------------*\
  =========                 |
  \\      /  F ield         | OpenFOAM: The Open Source CFD Toolbox
   \\    /   O peration     | Website:  https://openfoam.org
    \\  /    A nd           | Version:  7
     \\/     M anipulation  |
\*---------------------------------------------------------------------------*/
FoamFile
{
    version     2.0;
    format      ascii;
    class       volVectorField;
    location    "95";
    object      U;
}
// * * * * * * * * * * * * * * * * * * * * * * * * * * * * * * * * * * * * * //

dimensions      [0 1 -1 0 0 0 0];

internalField   nonuniform List<vector> 
2125
(
(0.0185621 0.00902205 1.70039e-21)
(0.0840345 0.0154738 -4.67846e-21)
(0.183807 0.0156797 -5.3035e-21)
(0.0187404 -0.0185225 -1.6975e-21)
(0.0843791 -0.035115 4.67124e-21)
(0.184206 -0.0391857 5.29712e-21)
(0.278675 -0.0376249 -5.07243e-21)
(0.363861 -0.0344686 4.4676e-21)
(0.43983 -0.0313372 2.23861e-21)
(0.507413 -0.0285585 -3.57696e-21)
(0.567617 -0.0261123 -4.16093e-21)
(0.621234 -0.0239375 6.14642e-22)
(0.668973 -0.0219851 -1.73464e-21)
(0.0210158 -0.0459247 1.8615e-21)
(0.0884463 -0.0854908 -5.56465e-21)
(0.188569 -0.0938507 1.2465e-20)
(0.282741 -0.0887833 -1.0949e-20)
(0.367475 -0.0801281 -5.17679e-22)
(0.443011 -0.0716993 -7.29111e-21)
(0.510214 -0.0642394 1.18584e-20)
(0.570098 -0.0576844 1.61398e-20)
(0.623453 -0.0518732 2.8884e-21)
(0.670891 -0.0466922 -6.22238e-21)
(0.0253611 -0.0729413 -1.59489e-21)
(0.0961987 -0.135285 -1.17555e-20)
(0.196862 -0.147968 -2.73513e-20)
(0.29045 -0.139474 2.36855e-20)
(0.374307 -0.125391 4.88786e-21)
(0.449006 -0.111721 4.3278e-21)
(0.515475 -0.0996259 -2.13291e-20)
(0.57474 -0.0890005 -1.25854e-20)
(0.627587 -0.0795831 -2.80305e-21)
(0.674438 -0.0712048 1.92216e-20)
(0.0317242 -0.0993326 -5.62132e-21)
(0.107564 -0.184135 7.07514e-21)
(0.209021 -0.201192 4.9558e-20)
(0.301749 -0.189404 -4.45306e-21)
(0.384314 -0.170008 -1.2743e-20)
(0.457776 -0.151188 9.15375e-21)
(0.523162 -0.134535 6.30607e-22)
(0.581513 -0.119902 3.23369e-21)
(0.63361 -0.106929 -7.08337e-21)
(0.679603 -0.0954105 -1.87443e-20)
(0.0400285 -0.124865 -3.79362e-21)
(0.122435 -0.231683 2.06444e-20)
(0.224949 -0.253187 -4.98683e-20)
(0.316557 -0.238285 2.16167e-20)
(0.397429 -0.213737 2.03777e-22)
(0.469267 -0.189892 -2.74629e-20)
(0.533227 -0.168786 1.21444e-20)
(0.590374 -0.150232 -1.13409e-21)
(0.641486 -0.133775 4.61618e-21)
(0.686359 -0.119198 -1.39175e-21)
(0.0501731 -0.149314 -4.34325e-20)
(0.140672 -0.277582 -5.19389e-20)
(0.24452 -0.303622 1.36251e-20)
(0.334772 -0.285835 -2.47625e-20)
(0.413566 -0.256338 -7.00785e-21)
(0.483405 -0.22763 1.04626e-20)
(0.545609 -0.202204 3.88383e-21)
(0.601268 -0.179841 1.44547e-20)
(0.651163 -0.159988 -3.11386e-21)
(0.694672 -0.142452 1.67913e-20)
(0.0620342 -0.172463 4.15373e-20)
(0.162101 -0.321499 2.67032e-20)
(0.267579 -0.352179 -2.02126e-20)
(0.356265 -0.331783 3.40594e-20)
(0.43262 -0.297583 -2.9167e-21)
(0.500099 -0.264205 -3.69173e-20)
(0.560228 -0.234619 6.47941e-21)
(0.614126 -0.208581 -3.93203e-20)
(0.662583 -0.185439 1.51165e-21)
(0.704502 -0.165061 1.42974e-20)
(0.0754659 -0.194112 -3.08261e-20)
(0.186515 -0.363114 5.52354e-20)
(0.29394 -0.398552 2.1676e-20)
(0.380884 -0.375869 -2.68563e-20)
(0.454464 -0.33725 2.33445e-22)
(0.519244 -0.299429 6.80332e-20)
(0.576993 -0.265871 3.10395e-21)
(0.628868 -0.236314 3.02454e-20)
(0.675674 -0.210007 3.68665e-20)
(0.715798 -0.186916 -2.06846e-20)
(0.0903013 -0.214074 1.72733e-20)
(0.213679 -0.402127 -8.2788e-21)
(0.323389 -0.442452 -1.96321e-20)
(0.408454 -0.417843 1.47904e-20)
(0.478954 -0.375132 5.69478e-20)
(0.540716 -0.333124 -2.00468e-20)
(0.5958 -0.295806 -3.28111e-21)
(0.645402 -0.262907 -4.36954e-20)
(0.690356 -0.233575 -5.40882e-20)
(0.728506 -0.20791 2.36794e-20)
(0.106354 -0.232179 -2.28975e-20)
(0.243326 -0.438258 -2.01226e-20)
(0.355688 -0.483604 3.39864e-21)
(0.438779 -0.457472 -7.79474e-20)
(0.505929 -0.411033 -3.31168e-20)
(0.564379 -0.365121 -2.42571e-20)
(0.616532 -0.32428 -3.19401e-20)
(0.663625 -0.288239 1.4792e-20)
(0.706541 -0.256036 1.77291e-20)
(0.742563 -0.227943 2.65936e-20)
(0.123421 -0.248275 4.7347e-21)
(0.275163 -0.471248 2.89233e-20)
(0.390569 -0.521756 2.12673e-20)
(0.471641 -0.49454 3.61624e-20)
(0.535209 -0.444769 2.85106e-20)
(0.590081 -0.395268 -2.72695e-20)
(0.639058 -0.351161 2.54951e-20)
(0.683427 -0.312195 1.75576e-20)
(0.724131 -0.277291 -2.06552e-21)
(0.757901 -0.24692 -7.93918e-21)
(0.141283 -0.262233 5.1229e-20)
(0.30887 -0.500867 -2.53148e-20)
(0.427743 -0.556675 -1.95111e-20)
(0.506803 -0.528846 -1.14884e-20)
(0.566601 -0.476175 2.14297e-20)
(0.617661 -0.423423 1.94034e-20)
(0.66324 -0.376328 -2.71853e-20)
(0.704686 -0.334676 2.09618e-20)
(0.743025 -0.297253 9.83735e-22)
(0.774448 -0.264754 1.96213e-20)
(0.159705 -0.273945 -3.58183e-20)
(0.344104 -0.526908 -1.35495e-20)
(0.466897 -0.588152 -1.94167e-21)
(0.544009 -0.560211 2.10396e-20)
(0.599896 -0.505102 -3.87696e-21)
(0.646942 -0.44946 -2.11622e-20)
(0.688928 -0.399673 5.94311e-21)
(0.727272 -0.35559 6.43739e-21)
(0.763111 -0.315847 1.53107e-20)
(0.792126 -0.281367 -3.01619e-20)
(0.178444 -0.283326 -1.43972e-20)
(0.380499 -0.549197 3.23148e-20)
(0.507696 -0.616003 2.553e-20)
(0.582986 -0.588474 -1.17899e-20)
(0.634874 -0.531416 -2.65805e-20)
(0.677739 -0.473267 -1.98639e-20)
(0.715964 -0.421103 2.29826e-20)
(0.751047 -0.374859 -4.59349e-20)
(0.784273 -0.333012 1.1875e-20)
(0.810861 -0.296693 3.21043e-20)
(0.197245 -0.290319 2.86547e-20)
(0.417671 -0.56759 -1.73177e-20)
(0.549787 -0.640068 4.16565e-21)
(0.623447 -0.613498 1.97546e-22)
(0.6713 -0.555006 -6.72125e-21)
(0.709859 -0.494751 3.30455e-20)
(0.74418 -0.440535 -2.93818e-20)
(0.775863 -0.392421 2.85041e-20)
(0.806388 -0.348704 -4.35085e-20)
(0.830578 -0.310687 -1.63712e-20)
(0.21585 -0.294891 -9.58817e-22)
(0.45522 -0.581977 -1.99753e-20)
(0.592798 -0.660218 1.72103e-21)
(0.66509 -0.635168 -6.3948e-21)
(0.708933 -0.575776 -4.64693e-21)
(0.743102 -0.513833 5.52068e-22)
(0.773408 -0.457901 -1.93372e-20)
(0.801561 -0.408213 -1.29723e-21)
(0.829316 -0.362884 2.64624e-20)
(0.851209 -0.323314 -3.37591e-20)
(0.233995 -0.297038 7.9857e-21)
(0.492731 -0.592281 1.33251e-20)
(0.636342 -0.676351 -1.58164e-20)
(0.707599 -0.653391 -6.47376e-21)
(0.74752 -0.593653 5.0737e-20)
(0.77726 -0.530455 -4.23318e-20)
(0.803473 -0.473154 4.26986e-20)
(0.827976 -0.422209 7.11908e-22)
(0.852898 -0.375579 8.58619e-21)
(0.872707 -0.334646 3.10455e-20)
(0.251416 -0.296783 2.28953e-22)
(0.52978 -0.598465 -3.56971e-21)
(0.680021 -0.688394 4.03201e-21)
(0.75065 -0.668099 2.91776e-21)
(0.786801 -0.608584 -2.43677e-21)
(0.812122 -0.544572 1.63708e-20)
(0.834209 -0.486244 -8.94359e-21)
(0.854942 -0.434324 1.05841e-20)
(0.876913 -0.386633 -3.62882e-21)
(0.895048 -0.344529 -1.7882e-21)
(0.267852 -0.294179 -2.42849e-21)
(0.565937 -0.600526 -4.55293e-21)
(0.723421 -0.696304 2.05953e-21)
(0.793907 -0.67925 2.03146e-21)
(0.826513 -0.620538 -1.23349e-20)
(0.847468 -0.556165 3.23675e-20)
(0.865444 -0.49717 -2.71e-20)
(0.882297 -0.444632 2.00728e-20)
(0.901014 -0.396452 -1.71661e-20)
(0.918122 -0.354123 -2.13093e-20)
(0.283047 -0.289308 -3.55648e-21)
(0.600766 -0.598502 8.483e-22)
(0.766121 -0.700071 1.07358e-21)
(0.837029 -0.686828 1.57299e-21)
(0.866387 -0.6295 -3.10007e-21)
(0.883078 -0.565221 -2.43038e-20)
(0.897028 -0.505884 7.04319e-21)
(0.910026 -0.452899 -5.27931e-21)
(0.924984 -0.404025 1.82443e-20)
(0.942339 -0.360225 -5.74536e-21)
(0.296757 -0.282281 -7.8831e-21)
(0.633832 -0.592467 -6.84762e-21)
(0.807695 -0.699716 3.17034e-21)
(0.879669 -0.690841 -8.39718e-22)
(0.906156 -0.635482 1.9293e-21)
(0.918725 -0.571762 2.99787e-21)
(0.928753 -0.51244 8.78083e-21)
(0.938109 -0.459403 -1.41611e-20)
(0.948453 -0.411529 -1.51207e-20)
(0.964231 -0.371475 9.03365e-21)
(0.308769 -0.273247 -6.89819e-21)
(0.664689 -0.582526 1.39794e-20)
(0.847711 -0.695295 -9.33455e-21)
(0.921476 -0.691329 -2.6894e-21)
(0.945555 -0.63851 -3.63045e-21)
(0.95419 -0.575816 -3.26771e-22)
(0.96036 -0.516873 -7.95924e-21)
(0.966328 -0.464072 8.1622e-21)
(0.972515 -0.417088 -7.49471e-21)
(0.983701 -0.377049 -6.59766e-23)
(0.318921 -0.262375 -1.82048e-20)
(0.692884 -0.568806 -3.36301e-20)
(0.885747 -0.686922 2.63278e-20)
(0.962099 -0.688353 1.42793e-21)
(0.984315 -0.638628 -1.96834e-21)
(0.989276 -0.577415 4.86496e-21)
(0.991657 -0.519187 -1.0099e-21)
(0.994403 -0.466784 -3.30709e-21)
(0.997182 -0.420481 1.70433e-20)
(1.00367 -0.380601 9.82524e-21)
(0.326967 -0.249728 1.65313e-20)
(0.71794 -0.551432 -7.7043e-21)
(0.921407 -0.674785 -2.07118e-20)
(1.00119 -0.681991 1.60669e-21)
(1.02217 -0.635899 3.71049e-22)
(1.0238 -0.576613 -7.48077e-21)
(1.02252 -0.519429 4.32829e-21)
(1.02214 -0.467635 2.54631e-21)
(1.02209 -0.422082 -3.07706e-21)
(1.02487 -0.382824 5.7326e-22)
(0.332723 -0.235521 2.16844e-20)
(0.739391 -0.530709 5.40817e-20)
(0.954328 -0.659106 -1.92312e-21)
(1.03842 -0.672308 -3.6943e-21)
(1.05886 -0.630407 -2.43867e-21)
(1.05757 -0.573489 -3.08273e-21)
(1.05284 -0.517684 -3.97204e-21)
(1.04942 -0.466766 2.96401e-21)
(1.04684 -0.422092 2.85471e-23)
(1.0466 -0.383697 -2.93091e-21)
(0.336159 -0.220037 -1.63334e-20)
(0.757009 -0.507112 -9.14199e-21)
(0.983899 -0.640018 3.98368e-20)
(1.07349 -0.659379 6.15209e-22)
(1.09413 -0.622262 -1.43696e-20)
(1.0904 -0.568144 2.05281e-20)
(1.08248 -0.514045 4.23733e-21)
(1.07615 -0.464269 1.67727e-21)
(1.07117 -0.420584 -7.02159e-22)
(1.06818 -0.383185 -1.719e-22)
(0.337195 -0.203596 3.92794e-20)
(0.770625 -0.480916 -8.56261e-21)
(1.00949 -0.61757 -2.65736e-20)
(1.106 -0.643453 2.49457e-21)
(1.1277 -0.61156 1.67654e-20)
(1.12209 -0.560681 -5.44297e-21)
(1.11129 -0.508609 -6.05384e-21)
(1.10222 -0.460224 2.80216e-22)
(1.09495 -0.417629 -2.88908e-21)
(1.08939 -0.381338 3.84799e-22)
(0.335745 -0.186452 -1.39458e-20)
(0.779925 -0.452341 -8.64032e-20)
(1.03088 -0.59212 7.41414e-21)
(1.13542 -0.624699 2.98505e-20)
(1.15934 -0.598435 -1.13797e-21)
(1.15246 -0.551232 -3.40396e-20)
(1.13915 -0.501478 1.80535e-20)
(1.12751 -0.454717 -5.19698e-21)
(1.1181 -0.413323 5.98941e-21)
(1.11017 -0.378258 1.51172e-21)
(0.331774 -0.168859 -1.70916e-20)
(0.784598 -0.421737 3.02568e-20)
(1.04787 -0.563968 3.8408e-20)
(1.16138 -0.603301 -2.23834e-20)
(1.18875 -0.583083 5.44721e-21)
(1.18133 -0.539898 2.07133e-20)
(1.1659 -0.492765 8.59684e-21)
(1.15193 -0.447849 2.91576e-21)
(1.14053 -0.407769 -5.41938e-21)
(1.13041 -0.37404 -4.73894e-21)
(0.325308 -0.151078 -2.31497e-20)
(0.784399 -0.389517 -8.39851e-21)
(1.06012 -0.533416 -7.16354e-20)
(1.18365 -0.579502 -9.52713e-21)
(1.2156 -0.565637 1.51845e-21)
(1.2085 -0.52683 3.51762e-21)
(1.19142 -0.482594 -3.59304e-20)
(1.17537 -0.439727 -1.56247e-20)
(1.16217 -0.401066 4.10352e-22)
(1.15004 -0.368763 4.07033e-21)
(0.316423 -0.133372 -6.29722e-21)
(0.779161 -0.356106 2.74629e-20)
(1.06723 -0.500784 3.62076e-20)
(1.2019 -0.553513 2.04065e-20)
(1.23965 -0.54627 -4.23997e-21)
(1.23381 -0.512186 -3.93748e-21)
(1.2156 -0.471097 2.85339e-20)
(1.19774 -0.430466 2.67516e-20)
(1.18293 -0.393312 3.47896e-21)
(1.16899 -0.362498 -3.24001e-21)
(0.305239 -0.115997 6.02724e-20)
(0.768792 -0.321947 3.74791e-20)
(1.06888 -0.466426 -3.59139e-20)
(1.21576 -0.525569 -6.31142e-21)
(1.26065 -0.525165 3.16367e-21)
(1.25708 -0.496115 -9.79529e-21)
(1.23837 -0.4584 -1.68193e-20)
(1.21898 -0.420181 -1.05107e-21)
(1.20277 -0.384608 -1.60186e-20)
(1.18722 -0.355331 6.8784e-21)
(0.291922 -0.099199 7.48861e-21)
(0.753279 -0.287497 -2.04964e-20)
(1.0648 -0.430719 4.711e-20)
(1.22489 -0.495924 2.71836e-20)
(1.27832 -0.5025 1.26857e-21)
(1.27812 -0.47877 1.4269e-20)
(1.25959 -0.444641 1.41548e-21)
(1.23904 -0.408996 -1.20842e-20)
(1.22154 -0.375041 8.94362e-21)
(1.20479 -0.347382 1.04517e-21)
(0.27668 -0.083206 -5.00099e-20)
(0.732688 -0.253226 -1.4566e-20)
(1.05479 -0.394064 -1.24283e-20)
(1.22894 -0.464845 -1.91e-20)
(1.29237 -0.478455 4.88055e-21)
(1.29674 -0.460292 -1.17915e-22)
(1.27916 -0.429946 1.03935e-20)
(1.25788 -0.396976 -2.72933e-21)
(1.23924 -0.364769 -1.04112e-20)
(1.22181 -0.338804 -8.13563e-21)
(0.259761 -0.0682248 4.01619e-21)
(0.707177 -0.219602 2.32759e-20)
(1.03866 -0.356875 1.07822e-20)
(1.22758 -0.432609 -3.06889e-20)
(1.30248 -0.453207 -5.69072e-22)
(1.31274 -0.440819 -1.12301e-20)
(1.29695 -0.414447 2.0187e-22)
(1.27544 -0.384269 3.76575e-21)
(1.25592 -0.354038 -4.21414e-21)
(1.23804 -0.329585 1.20133e-20)
(0.241446 -0.0544325 9.27283e-21)
(0.676999 -0.187089 -2.25546e-20)
(1.01632 -0.319579 -5.11552e-20)
(1.2205 -0.399504 4.43826e-20)
(1.30833 -0.426938 -2.84676e-21)
(1.32591 -0.420485 8.06192e-21)
(1.31287 -0.39827 -1.01894e-21)
(1.29166 -0.370995 6.71104e-21)
(1.27152 -0.342843 -5.66052e-22)
(1.25309 -0.319784 -9.37915e-21)
(0.222047 -0.0419737 -1.85358e-20)
(0.642514 -0.156131 2.88969e-20)
(0.98775 -0.282613 2.32615e-20)
(1.20739 -0.365824 -3.16012e-20)
(1.30957 -0.399828 -4.98352e-21)
(1.336 -0.399414 1.69615e-21)
(1.32679 -0.381524 1.71142e-20)
(1.30648 -0.357244 5.7831e-22)
(1.28601 -0.331194 3.08793e-21)
(1.26704 -0.309505 -6.18193e-21)
(0.201891 -0.0309566 1.4027e-20)
(0.604185 -0.127138 -1.24883e-20)
(0.953019 -0.246415 -1.02572e-20)
(1.18797 -0.331877 1.70061e-20)
(1.30583 -0.372059 5.54515e-21)
(1.34271 -0.37772 4.07497e-21)
(1.33856 -0.364305 -1.79687e-20)
(1.31986 -0.343104 -6.1804e-21)
(1.29941 -0.319168 -5.15481e-21)
(1.28008 -0.298837 2.02279e-21)
(0.181318 -0.0214496 -6.695e-21)
(0.562575 -0.100477 -1.40301e-22)
(0.912309 -0.211421 1.93264e-20)
(1.16201 -0.297976 -6.93401e-21)
(1.29671 -0.34381 -3.02273e-21)
(1.34573 -0.355509 -1.93247e-21)
(1.34798 -0.346697 4.553e-21)
(1.33172 -0.328667 7.53397e-21)
(1.31172 -0.306871 -3.82966e-22)
(1.29231 -0.287864 2.72666e-21)
(0.160665 -0.0134806 4.67288e-21)
(0.518335 -0.0764586 -1.30061e-21)
(0.865933 -0.17806 -3.42992e-21)
(1.12934 -0.264447 -3.06126e-21)
(1.2818 -0.315264 2.69957e-21)
(1.34467 -0.332875 2.08132e-21)
(1.35483 -0.328773 -1.88922e-21)
(1.34197 -0.314012 6.56735e-22)
(1.32295 -0.294399 9.31707e-22)
(1.30373 -0.276666 -1.22437e-21)
(0.140264 -0.0070365 2.3743e-21)
(0.472194 -0.0553247 6.92687e-22)
(0.814345 -0.146747 -4.11946e-21)
(1.08984 -0.231623 -3.33895e-21)
(1.26068 -0.286607 3.53026e-21)
(1.33908 -0.309904 7.12223e-22)
(1.35882 -0.310587 -1.66667e-21)
(1.35049 -0.299203 1.56273e-21)
(1.33305 -0.281834 8.9203e-22)
(1.31432 -0.265319 -1.04398e-21)
(0.120422 -0.00206563 -9.64176e-22)
(0.424936 -0.0372393 1.88801e-21)
(0.758158 -0.11787 1.25125e-20)
(1.04353 -0.199846 -5.75521e-21)
(1.23293 -0.258034 -2.86819e-21)
(1.32846 -0.286678 -3.33738e-21)
(1.35957 -0.292177 6.98408e-21)
(1.35709 -0.28428 5.00644e-21)
(1.34195 -0.269239 3.9825e-21)
(1.32408 -0.253888 2.15492e-21)
(0.101421 0.00151847 1.82499e-20)
(0.377372 -0.0222802 -1.00677e-20)
(0.698152 -0.0917834 -1.19269e-20)
(0.990551 -0.169466 1.66346e-20)
(1.19814 -0.229751 9.22424e-21)
(1.31224 -0.263274 -6.62485e-22)
(1.35661 -0.273566 -1.2394e-20)
(1.3615 -0.269265 -8.75903e-21)
(1.34956 -0.256661 -9.79225e-21)
(1.33298 -0.242435 6.23935e-21)
(0.0835025 0.00383164 -2.44846e-20)
(0.330312 -0.0104344 2.29777e-20)
(0.635263 -0.0687879 2.71489e-20)
(0.931233 -0.140842 -2.83065e-20)
(1.15598 -0.201985 -1.02845e-20)
(1.2898 -0.239775 7.20913e-21)
(1.34939 -0.254764 1.32951e-20)
(1.36336 -0.254156 2.40301e-21)
(1.35573 -0.244122 -6.96344e-22)
(1.34098 -0.231009 -9.1293e-21)
(0.0668661 0.00501255 -3.34242e-21)
(0.284529 -0.00159873 -3.19373e-20)
(0.570571 -0.0491175 -3.54289e-20)
(0.86612 -0.114334 4.26846e-20)
(1.10622 -0.174984 -5.10567e-21)
(1.26047 -0.216276 1.08357e-20)
(1.33723 -0.23577 2.41005e-21)
(1.36222 -0.238932 -6.10702e-21)
(1.36023 -0.231627 3.40829e-21)
(1.34799 -0.219642 -1.43775e-21)
(0.0516626 0.00521556 6.88454e-21)
(0.240726 0.00441396 1.95361e-20)
(0.505259 -0.0329181 1.16061e-20)
(0.796015 -0.0902985 -9.26344e-21)
(1.04879 -0.149026 -1.64546e-20)
(1.22358 -0.192891 -1.66655e-20)
(1.31932 -0.216585 -3.72963e-21)
(1.35746 -0.223555 1.16732e-20)
(1.36271 -0.219153 -2.54488e-21)
(1.35389 -0.20835 5.48452e-21)
(0.037993 0.00460365 -2.56868e-20)
(0.199508 0.00786311 -2.44669e-20)
(0.440553 -0.0202293 -4.27309e-21)
(0.721996 -0.0690734 -4.84372e-21)
(0.98385 -0.124426 -1.30739e-20)
(1.17852 -0.16977 8.90948e-21)
(1.29479 -0.197218 -1.29867e-21)
(1.34832 -0.207972 -9.93882e-21)
(1.36271 -0.206655 9.29416e-21)
(1.35846 -0.197127 -1.73166e-20)
(0.0259099 0.00334187 6.06088e-21)
(0.161363 0.00906435 2.10144e-20)
(0.377659 -0.0109708 1.9801e-20)
(0.645414 -0.0509559 2.32545e-20)
(0.911878 -0.101531 -3.68535e-22)
(1.1248 -0.147108 2.68714e-20)
(1.26265 -0.177701 3.15859e-21)
(1.33386 -0.192125 -3.96049e-20)
(1.35959 -0.194069 3.08181e-20)
(1.36136 -0.185943 1.10645e-20)
(0.0154207 0.00159178 1.65827e-20)
(0.126646 0.00837114 3.79188e-20)
(0.317682 -0.00493787 -5.17007e-21)
(0.567837 -0.0361697 -2.97936e-20)
(0.833746 -0.0807207 1.47062e-20)
(1.06213 -0.125156 -1.76126e-20)
(1.22193 -0.158103 -2.91549e-20)
(1.31297 -0.175964 -5.85978e-21)
(1.3525 -0.181311 -2.95532e-20)
(0.00649287 -0.000492926 8.22997e-21)
(0.0955806 0.00615635 6.96417e-21)
(0.26156 -0.001811 5.39215e-20)
(0.49096 -0.0248253 1.22655e-20)
(0.750769 -0.0623902 -1.22306e-20)
(0.990592 -0.104237 -6.61121e-21)
(1.1717 -0.138554 4.98594e-20)
(1.28439 -0.159459 4.61596e-20)
(-0.000938472 -0.00276944 2.0638e-21)
(0.0682618 0.00279548 -3.98351e-20)
(0.21002 -0.00117992 -6.46591e-20)
(0.41647 -0.0168824 3.82622e-21)
(0.664699 -0.0469134 1.88139e-20)
(0.910755 -0.0847458 -2.78334e-20)
(1.11125 -0.11926 -8.11543e-20)
(-0.00696312 -0.005108 -1.49658e-20)
(0.0446717 -0.00134808 4.01672e-20)
(0.163548 -0.00257748 4.05208e-20)
(0.345895 -0.0121325 -4.56497e-20)
(0.577647 -0.0345909 6.52234e-21)
(-0.011688 -0.00739372 -3.58538e-20)
(0.024697 -0.00593671 -6.25077e-20)
(0.122404 -0.0055181 -1.34834e-20)
(0.280482 -0.0102135 2.51935e-20)
(-0.0152301 -0.00952788 2.69861e-20)
(0.00814942 -0.0106708 2.75071e-22)
(0.0866381 -0.00953515 -6.54132e-21)
(-0.0177123 -0.0114302 -8.99875e-21)
(-0.00521409 -0.0153006 -1.57654e-20)
(-0.0192612 -0.0130421 6.21768e-20)
(-0.0156742 -0.0196367 4.91536e-20)
(-0.0200074 -0.0143306 1.20344e-20)
(0.998558 -0.00316877 -1.4558e-22)
(0.998687 -0.00811515 6.5925e-22)
(0.992083 -0.0167199 3.27204e-22)
(0.988707 -0.0235607 1.54874e-22)
(0.978859 -0.0354868 3.23514e-22)
(0.972896 -0.0452647 -1.39428e-21)
(0.96038 -0.0622528 -1.91786e-21)
(0.952883 -0.0767942 6.14986e-22)
(0.938807 -0.101354 2.0082e-21)
(0.932037 -0.122486 2.43222e-21)
(0.918846 -0.157575 4.24878e-21)
(0.917198 -0.185496 -9.63958e-22)
(0.909501 -0.234509 -6.18492e-21)
(0.919914 -0.264412 -1.65544e-21)
(0.929144 -0.337313 4.44832e-21)
(0.998606 -0.0030261 -8.31713e-22)
(0.998562 -0.00772253 3.16737e-22)
(0.992007 -0.0160176 -5.35514e-22)
(0.988304 -0.022507 1.47462e-21)
(0.978423 -0.0340011 -1.32938e-21)
(0.971902 -0.043253 1.57605e-22)
(0.95916 -0.0596101 2.01963e-21)
(0.950691 -0.0733962 -3.21701e-21)
(0.936001 -0.0971258 1.47063e-21)
(0.927519 -0.117351 -5.4359e-21)
(0.913018 -0.151664 6.25293e-21)
(0.908383 -0.179003 -6.58902e-21)
(0.898351 -0.22796 -1.006e-21)
(0.903102 -0.258681 7.87822e-21)
(0.907456 -0.331145 -1.82834e-21)
(0.998652 -0.00287962 1.10459e-21)
(0.998451 -0.00730542 7.7759e-22)
(0.991955 -0.0152731 9.5009e-22)
(0.987962 -0.0213947 -7.19313e-22)
(0.978064 -0.0324239 -7.55831e-22)
(0.971061 -0.0411313 2.83657e-21)
(0.958129 -0.0568067 -1.56997e-21)
(0.948836 -0.0698074 4.44143e-21)
(0.933592 -0.0925982 -2.7496e-21)
(0.923646 -0.111829 -1.36627e-21)
(0.907933 -0.145048 -1.9314e-21)
(0.900658 -0.171536 1.62541e-21)
(0.888401 -0.219498 4.6344e-21)
(0.888472 -0.250874 -1.31011e-20)
(0.888274 -0.321096 1.47339e-20)
(0.998695 -0.00273292 1.58579e-22)
(0.998349 -0.00687739 -1.28882e-21)
(0.991915 -0.0145386 -2.42856e-21)
(0.987658 -0.0203209 4.28442e-22)
(0.977754 -0.0308963 -8.39789e-23)
(0.970321 -0.0391022 8.04428e-22)
(0.957218 -0.0541066 2.46329e-21)
(0.947191 -0.0663745 -1.65865e-21)
(0.93144 -0.0882036 2.17542e-21)
(0.920167 -0.106475 -4.40029e-21)
(0.903323 -0.138433 2.97407e-21)
(0.893593 -0.16403 2.04099e-21)
(0.879141 -0.210455 5.04353e-21)
(0.874963 -0.242114 -8.75941e-21)
(0.870295 -0.310199 1.6615e-22)
(0.998739 -0.00258174 -1.39813e-21)
(0.998254 -0.00648107 -3.37122e-22)
(0.991881 -0.0137997 -3.37236e-22)
(0.987383 -0.0192491 1.89451e-21)
(0.977477 -0.0293589 3.58288e-23)
(0.969651 -0.0370711 -3.00094e-22)
(0.956395 -0.0513819 -1.73274e-21)
(0.945693 -0.062922 -1.56346e-22)
(0.929476 -0.0837392 5.5358e-21)
(0.916962 -0.10105 -6.48214e-21)
(0.89906 -0.131618 2.0805e-21)
(0.887011 -0.156284 3.22375e-21)
(0.870406 -0.200903 1.09339e-21)
(0.862255 -0.232455 -4.85949e-21)
(0.853279 -0.298344 1.32713e-22)
(0.998779 -0.00242648 2.57712e-22)
(0.998163 -0.00611241 2.31571e-22)
(0.991856 -0.0130501 8.03136e-22)
(0.987129 -0.0181702 -1.05249e-21)
(0.977229 -0.0277982 2.99487e-22)
(0.969034 -0.0350208 -8.35265e-22)
(0.955644 -0.048611 4.45843e-22)
(0.944308 -0.0594268 -1.9262e-21)
(0.927665 -0.0791789 3.74258e-21)
(0.913976 -0.095524 -7.00647e-23)
(0.89508 -0.124584 -6.84105e-21)
(0.88084 -0.148254 4.29726e-22)
(0.862144 -0.190845 7.45282e-21)
(0.850258 -0.221923 2.25584e-22)
(0.837151 -0.285356 -8.79901e-21)
(0.998818 -0.00226943 2.23681e-22)
(0.998078 -0.00572199 -1.3266e-21)
(0.991838 -0.0122888 -1.00441e-21)
(0.986892 -0.0170878 1.20557e-21)
(0.977005 -0.0262197 -8.67786e-22)
(0.968461 -0.0329605 7.05359e-22)
(0.954954 -0.0458054 -3.79754e-22)
(0.943017 -0.0559051 -4.33106e-22)
(0.925987 -0.0745416 2.85547e-21)
(0.911185 -0.0899175 -5.75671e-21)
(0.891354 -0.11736 4.63589e-21)
(0.875057 -0.139955 6.55913e-21)
(0.854351 -0.180327 -8.14229e-21)
(0.838951 -0.210597 -1.54593e-21)
(0.821905 -0.27128 -7.50193e-21)
(0.998857 -0.00210957 -1.24707e-22)
(0.997997 -0.00532576 8.30698e-22)
(0.991826 -0.011518 -9.17812e-22)
(0.986671 -0.0160043 2.1511e-21)
(0.976803 -0.0246256 -2.32624e-21)
(0.967927 -0.0308938 -2.38706e-21)
(0.954321 -0.0429686 -5.98424e-22)
(0.941812 -0.0523605 2.90101e-22)
(0.924429 -0.0698335 -2.24272e-21)
(0.908578 -0.0842324 2.5387e-21)
(0.887869 -0.109963 2.7429e-21)
(0.869652 -0.131393 -9.90863e-22)
(0.847033 -0.169388 -3.44342e-21)
(0.828336 -0.198548 7.19485e-21)
(0.807558 -0.256173 -7.01053e-21)
(0.998894 -0.00194678 -5.42144e-22)
(0.997921 -0.00493097 5.14035e-21)
(0.99182 -0.0107367 1.1943e-22)
(0.986462 -0.0149208 1.06891e-21)
(0.976621 -0.0230168 -1.92573e-22)
(0.967427 -0.0288215 3.21661e-21)
(0.95374 -0.0401014 5.04337e-22)
(0.940689 -0.048793 5.34674e-23)
(0.922984 -0.0650579 -3.472e-21)
(0.906153 -0.0784675 -6.31631e-22)
(0.884619 -0.102405 3.09436e-21)
(0.864623 -0.122578 -4.4502e-21)
(0.840201 -0.158056 -3.38454e-21)
(0.818427 -0.185839 4.04772e-21)
(0.79414 -0.240094 -3.52391e-21)
(0.998931 -0.0017814 1.35266e-21)
(0.997849 -0.00453788 -2.88588e-21)
(0.991819 -0.00992998 1.54833e-21)
(0.986267 -0.0138379 -2.21361e-21)
(0.976459 -0.021394 -8.21411e-22)
(0.966963 -0.0267444 4.61917e-22)
(0.953207 -0.0372055 -1.69784e-21)
(0.939648 -0.0452031 2.99804e-21)
(0.92165 -0.0602197 1.6382e-21)
(0.90391 -0.0726236 -9.35209e-22)
(0.881605 -0.0947015 2.89685e-21)
(0.859973 -0.113523 -5.47194e-21)
(0.833869 -0.146359 9.5542e-21)
(0.809242 -0.172525 -6.69252e-21)
(0.781684 -0.223108 -3.43869e-21)
(0.998967 -0.00161357 -9.60499e-22)
(0.997783 -0.00414659 1.30492e-22)
(0.991823 -0.00913791 1.06662e-23)
(0.986082 -0.012757 2.04817e-21)
(0.976315 -0.0197582 5.1323e-22)
(0.966534 -0.0246635 -9.51253e-22)
(0.952722 -0.034283 1.10615e-21)
(0.93869 -0.0415915 -2.17712e-21)
(0.920423 -0.0553243 9.26076e-22)
(0.901851 -0.0667024 6.15354e-22)
(0.87883 -0.0868631 -2.84435e-21)
(0.855706 -0.104241 2.1566e-21)
(0.82805 -0.134325 5.70449e-21)
(0.800804 -0.158659 -2.77618e-21)
(0.770223 -0.205289 -7.60501e-21)
(0.999001 -0.00144346 -1.09233e-21)
(0.99772 -0.00375624 -2.31307e-22)
(0.99183 -0.00837994 -1.00124e-21)
(0.985913 -0.0116805 -2.98019e-21)
(0.976187 -0.0181107 1.4475e-21)
(0.966141 -0.0225795 -1.39873e-21)
(0.952282 -0.0313364 1.88498e-21)
(0.937817 -0.0379588 2.81942e-21)
(0.919304 -0.0503772 -1.85017e-21)
(0.899979 -0.0607066 3.81304e-21)
(0.8763 -0.0789019 -2.05201e-21)
(0.851826 -0.0947503 -3.17142e-21)
(0.822754 -0.121978 -2.02721e-21)
(0.793131 -0.144291 8.28245e-21)
(0.759791 -0.186712 -2.73645e-21)
(0.999034 -0.0012712 1.135e-21)
(0.997659 -0.00336731 5.49773e-22)
(0.991841 -0.00760565 -7.97822e-23)
(0.98576 -0.010608 1.19625e-21)
(0.976076 -0.0164528 -1.91867e-21)
(0.965785 -0.0204928 -4.78937e-22)
(0.951887 -0.0283679 -4.34194e-23)
(0.93703 -0.0343055 -9.50809e-22)
(0.918294 -0.0453837 -2.81673e-21)
(0.898296 -0.0546401 -1.46014e-21)
(0.874019 -0.0708292 5.42351e-21)
(0.84834 -0.0850669 -8.39708e-22)
(0.817995 -0.109348 -8.84289e-22)
(0.786243 -0.129472 -7.44256e-22)
(0.750417 -0.167452 -3.54872e-21)
(0.999064 -0.00109686 6.86282e-22)
(0.997603 -0.00298078 -1.26831e-21)
(0.991853 -0.0068115 5.40758e-22)
(0.985624 -0.00953873 -1.4629e-21)
(0.975979 -0.0147856 -9.36519e-23)
(0.965468 -0.0184036 8.01791e-23)
(0.951536 -0.0253803 1.18604e-22)
(0.936332 -0.0306327 1.78689e-22)
(0.917394 -0.0403492 -1.308e-21)
(0.896804 -0.0485078 1.69853e-21)
(0.871993 -0.062656 -2.79653e-21)
(0.845254 -0.0752096 6.15308e-22)
(0.813781 -0.0964622 1.9142e-21)
(0.780156 -0.11425 -1.30213e-22)
(0.742128 -0.147591 2.38827e-21)
(0.999092 -0.000920607 -6.68043e-22)
(0.997553 -0.00259606 1.53771e-21)
(0.991865 -0.00600959 -9.68478e-22)
(0.985504 -0.00847346 1.1938e-21)
(0.975896 -0.0131103 6.61774e-22)
(0.96519 -0.0163122 -4.15821e-22)
(0.951228 -0.022376 -7.55222e-23)
(0.935722 -0.0269415 -4.88107e-22)
(0.916607 -0.035279 1.73962e-22)
(0.895506 -0.0423155 -1.45914e-21)
(0.870227 -0.0543937 6.84745e-22)
(0.842574 -0.0651976 -4.79291e-21)
(0.810122 -0.0833501 6.77927e-21)
(0.774884 -0.0986763 -2.05124e-21)
(0.734948 -0.127206 -4.46937e-21)
(0.999116 -0.000742664 -3.10955e-22)
(0.997509 -0.00221336 -4.74907e-22)
(0.991877 -0.00519235 3.31154e-22)
(0.985401 -0.00741071 8.25967e-23)
(0.975826 -0.011428 9.12197e-22)
(0.964952 -0.0142184 -3.29524e-22)
(0.950964 -0.0193575 1.82941e-22)
(0.935202 -0.0232336 -7.59562e-23)
(0.915933 -0.0301781 5.38318e-22)
(0.894404 -0.0360701 1.03116e-21)
(0.868725 -0.0460536 1.50897e-21)
(0.840305 -0.0550515 -2.50065e-21)
(0.807028 -0.0700426 1.11465e-21)
(0.770439 -0.0828001 -1.46234e-21)
(0.728895 -0.106378 -4.19083e-21)
(0.999136 -0.000563277 1.1039e-21)
(0.997473 -0.00183175 -1.29358e-22)
(0.991888 -0.00438714 5.17007e-22)
(0.985314 -0.00635058 4.45493e-22)
(0.975768 -0.00973965 -1.42155e-21)
(0.964756 -0.0121223 5.43864e-23)
(0.950744 -0.0163274 2.23666e-22)
(0.934774 -0.0195107 1.39774e-22)
(0.915375 -0.025052 -5.3122e-22)
(0.893499 -0.0297795 4.85821e-22)
(0.867494 -0.0376483 2.30252e-21)
(0.838452 -0.0447934 -9.21415e-22)
(0.804506 -0.0565726 2.14835e-21)
(0.766831 -0.0666739 -4.74947e-21)
(0.723985 -0.0851878 6.03528e-21)
(0.999153 -0.000382691 -7.87983e-22)
(0.997443 -0.0014515 1.48465e-23)
(0.991897 -0.0035952 -4.60985e-22)
(0.985248 -0.0052908 -2.31027e-22)
(0.975723 -0.00804604 5.06912e-22)
(0.964601 -0.0100234 -2.69385e-23)
(0.950568 -0.0132879 -9.25887e-22)
(0.934436 -0.0157752 5.37555e-22)
(0.914934 -0.0199068 -2.43172e-22)
(0.892792 -0.0234534 2.16777e-22)
(0.866534 -0.0291897 7.94127e-22)
(0.83702 -0.0344435 2.43197e-22)
(0.802561 -0.0429724 -1.40017e-21)
(0.764067 -0.0503504 1.78979e-22)
(0.72023 -0.0637149 -1.35765e-21)
(0.999164 -0.000201202 3.83845e-22)
(0.99742 -0.00107306 -2.65609e-23)
(0.991903 -0.00278716 6.7082e-23)
(0.985201 -0.00422758 3.76641e-22)
(0.975688 -0.00634606 -6.88114e-23)
(0.964487 -0.00791865 -3.72276e-22)
(0.950435 -0.0102375 -2.37521e-22)
(0.934189 -0.0120243 2.88218e-22)
(0.914611 -0.0147385 -2.6073e-22)
(0.892286 -0.0170928 3.1964e-22)
(0.865852 -0.0206812 -8.24464e-22)
(0.836012 -0.0240098 4.69026e-22)
(0.8012 -0.0292614 -1.05548e-21)
(0.76215 -0.0338697 4.26339e-22)
(0.717639 -0.0420274 1.83061e-22)
(0.999171 -1.90623e-05 -6.8432e-23)
(0.997406 -0.000696388 6.72126e-23)
(0.991907 -0.00196967 -8.71511e-23)
(0.985173 -0.00315903 -1.24675e-22)
(0.975665 -0.00463668 1.17664e-22)
(0.964415 -0.00580105 1.88491e-22)
(0.950347 -0.00716695 1.3191e-22)
(0.934035 -0.00824478 -8.04903e-23)
(0.914407 -0.00952542 3.22113e-22)
(0.891982 -0.0106792 5.96077e-23)
(0.865449 -0.012132 1.54234e-22)
(0.83543 -0.0135309 2.17458e-22)
(0.800423 -0.0154747 -3.21301e-24)
(0.761083 -0.0172747 -1.59854e-22)
(0.716212 -0.0201842 -2.6781e-23)
(1.00002 -0.000272105 0)
(1.00204 -0.000745777 0)
(1.00557 -0.00126561 0)
(1.01019 -0.00169835 0)
(1.0156 -0.00215755 0)
(1.02151 -0.00251477 0)
(1.02771 -0.00287799 0)
(1.03396 -0.00312693 0)
(1.04013 -0.00338083 0)
(1.04607 -0.00351706 0)
(1.0517 -0.00367489 0)
(1.05693 -0.00371159 0)
(1.06177 -0.00380074 0)
(1.06618 -0.0037542 0)
(1.07019 -0.00380909 0)
(1.00002 -0.000802464 0)
(1.00203 -0.00219939 0)
(1.00554 -0.00373456 0)
(1.01014 -0.00501305 0)
(1.01555 -0.00637332 0)
(1.02147 -0.0074329 0)
(1.02771 -0.00851477 0)
(1.034 -0.00925872 0)
(1.04025 -0.0100208 0)
(1.04625 -0.0104327 0)
(1.05196 -0.0109101 0)
(1.05728 -0.0110259 0)
(1.06222 -0.0112976 0)
(1.0667 -0.0111649 0)
(1.07082 -0.0113329 0)
(1.00003 -0.00130618 0)
(1.002 -0.00356947 0)
(1.00549 -0.00607622 0)
(1.01004 -0.00815997 0)
(1.01546 -0.0103969 0)
(1.02138 -0.0121384 0)
(1.02769 -0.0139357 0)
(1.03405 -0.0151729 0)
(1.04043 -0.0164561 0)
(1.04655 -0.0171518 0)
(1.05244 -0.0179689 0)
(1.05789 -0.0181733 0)
(1.06302 -0.0186495 0)
(1.06764 -0.018437 0)
(1.07198 -0.0187413 0)
(1.00003 -0.00178386 0)
(1.00197 -0.00484484 0)
(1.00541 -0.00828574 0)
(1.0099 -0.0111345 0)
(1.0153 -0.0142379 0)
(1.02123 -0.0166483 0)
(1.02762 -0.0191757 0)
(1.03408 -0.0209141 0)
(1.04063 -0.0227493 0)
(1.04691 -0.023746 0)
(1.05304 -0.0249392 0)
(1.05869 -0.0252482 0)
(1.0641 -0.0259648 0)
(1.06892 -0.0256809 0)
(1.07355 -0.0261555 0)
(1.00004 -0.00223527 0)
(1.00192 -0.00601878 0)
(1.0053 -0.0103603 0)
(1.00969 -0.0139332 0)
(1.01506 -0.0179006 0)
(1.02098 -0.0209706 0)
(1.02746 -0.024254 0)
(1.03402 -0.0265089 0)
(1.04078 -0.0289411 0)
(1.04726 -0.0302643 0)
(1.0537 -0.0318848 0)
(1.0596 -0.0323208 0)