/*--------------------------------*- C++ -*----------------------------------*\
  =========                 |
  \\      /  F ield         | OpenFOAM: The Open Source CFD Toolbox
   \\    /   O peration     | Website:  https://openfoam.org
    \\  /    A nd           | Version:  7
     \\/     M anipulation  |
\*---------------------------------------------------------------------------*/
FoamFile
{
    version     2.0;
    format      ascii;
    class       volScalarField;
    location    "270";
    object      p;
}
// * * * * * * * * * * * * * * * * * * * * * * * * * * * * * * * * * * * * * //

dimensions      [0 2 -2 0 0 0 0];

internalField   nonuniform List<scalar> 
2125
(
-0.253418
-0.282196
-0.257429
-0.308966
-0.28464
-0.260986
-0.345545
-0.329163
-0.309425
-0.286576
-0.264107
-0.353477
-0.341903
-0.327247
-0.309397
-0.28799
-0.266803
-0.35751
-0.348869
-0.338373
-0.325095
-0.308917
-0.288852
-0.269078
-0.359293
-0.35259
-0.344669
-0.335013
-0.32279
-0.308027
-0.289124
-0.27094
-0.354235
-0.348186
-0.34086
-0.331847
-0.3204
-0.306782
-0.288777
-0.272374
-0.35383
-0.349705
-0.344246
-0.337406
-0.328871
-0.317966
-0.305246
-0.28778
-0.27343
-0.351138
-0.349163
-0.345665
-0.340723
-0.334276
-0.326075
-0.315515
-0.303484
-0.286189
-0.273918
-0.346137
-0.345063
-0.3421
-0.337595
-0.331455
-0.323465
-0.313085
-0.301567
-0.284014
-0.274023
-0.341817
-0.341528
-0.33902
-0.334868
-0.328962
-0.321073
-0.310758
-0.299485
-0.281535
-0.272164
-0.338212
-0.338589
-0.336461
-0.332583
-0.326853
-0.318975
-0.308661
-0.297223
-0.279995
-0.257277
-0.335366
-0.336294
-0.33447
-0.330797
-0.325087
-0.317277
-0.306931
-0.294958
-0.279299
-0.250921
-0.333322
-0.334683
-0.333105
-0.329603
-0.323994
-0.316135
-0.30573
-0.293177
-0.279069
-0.249243
-0.33211
-0.333795
-0.332417
-0.329066
-0.323545
-0.315671
-0.30522
-0.292207
-0.278938
-0.248899
-0.331742
-0.333652
-0.332441
-0.32924
-0.323826
-0.315993
-0.305543
-0.292245
-0.27914
-0.24985
-0.332209
-0.334264
-0.333198
-0.330153
-0.324888
-0.317172
-0.306826
-0.293431
-0.280187
-0.252495
-0.333485
-0.335625
-0.334688
-0.331815
-0.326749
-0.319241
-0.309141
-0.295835
-0.282491
-0.256773
-0.335531
-0.337718
-0.336901
-0.334217
-0.329401
-0.322188
-0.312385
-0.29956
-0.286244
-0.262432
-0.3383
-0.340521
-0.339819
-0.337341
-0.332822
-0.325996
-0.316648
-0.304414
-0.291425
-0.269264
-0.34175
-0.34401
-0.343436
-0.341166
-0.336985
-0.330626
-0.321861
-0.310414
-0.297859
-0.27716
-0.345841
-0.348159
-0.347705
-0.345671
-0.341866
-0.336039
-0.327948
-0.317375
-0.305549
-0.286143
-0.350545
-0.352948
-0.352626
-0.350844
-0.347452
-0.342215
-0.334885
-0.325274
-0.314073
-0.296566
-0.355846
-0.358363
-0.358187
-0.356677
-0.353736
-0.349151
-0.342675
-0.334144
-0.32382
-0.308404
-0.361734
-0.364391
-0.364376
-0.363165
-0.360719
-0.356851
-0.351327
-0.343985
-0.334745
-0.321432
-0.368207
-0.371018
-0.371182
-0.370301
-0.368399
-0.365319
-0.360845
-0.354802
-0.34687
-0.335714
-0.375264
-0.378229
-0.378589
-0.378072
-0.376768
-0.37455
-0.371226
-0.366602
-0.360223
-0.351344
-0.3829
-0.386001
-0.386571
-0.386454
-0.385801
-0.384522
-0.382449
-0.379373
-0.374791
-0.368346
-0.3911
-0.394301
-0.395089
-0.395404
-0.395455
-0.395188
-0.394459
-0.393055
-0.390492
-0.386631
-0.399833
-0.40308
-0.404089
-0.404861
-0.40566
-0.406467
-0.407161
-0.407535
-0.407162
-0.405993
-0.409049
-0.412271
-0.413495
-0.414741
-0.416319
-0.418242
-0.420415
-0.422635
-0.424557
-0.426116
-0.00233443
-0.00327919
-0.00420037
-0.00509754
-0.00597025
-0.00681816
-0.00764076
-0.00843808
-0.00920897
-0.00995552
-0.0106729
-0.00303278
-0.00400151
-0.0049457
-0.00586487
-0.00675853
-0.0076263
-0.00846766
-0.00928268
-0.0100702
-0.0108329
-0.0115664
-0.00430789
-0.00531608
-0.00629936
-0.00725729
-0.00818942
-0.00909548
-0.00997494
-0.0108282
-0.0116538
-0.0124563
-0.0132316
-0.0061107
-0.00717713
-0.00821857
-0.00923462
-0.0102249
-0.0111891
-0.0121269
-0.0130387
-0.0139232
-0.0147869
-0.0156266
-0.0084185
-0.00955969
-0.010676
-0.0117672
-0.0128329
-0.0138729
-0.0148869
-0.0158758
-0.016838
-0.0177827
-0.018708
-0.0112033
-0.0124358
-0.0136438
-0.0148272
-0.0159856
-0.0171192
-0.0182275
-0.0193121
-0.0203709
-0.0214168
-0.0224491
-0.0144558
-0.0157958
-0.0171121
-0.0184045
-0.0196728
-0.0209175
-0.022138
-0.0233365
-0.0245107
-0.0256776
-0.0268383
-0.0181686
-0.0196325
-0.0210736
-0.0224918
-0.0238872
-0.0252605
-0.0266109
-0.0279418
-0.0292503
-0.0305584
-0.0318698
-0.0223423
-0.0239463
-0.0255286
-0.0270895
-0.028629
-0.0301483
-0.0316467
-0.0331284
-0.0345903
-0.03606
-0.0375445
-0.0269801
-0.0287404
-0.0304804
-0.0322006
-0.0339014
-0.0355842
-0.0372484
-0.0388995
-0.0405337
-0.0421857
-0.0438664
-0.0320894
-0.0340222
-0.0359361
-0.0378322
-0.039711
-0.0415745
-0.0434221
-0.0452607
-0.0470862
-0.0489408
-0.0508409
-0.0355398
-0.0376791
-0.0398002
-0.0419042
-0.0439924
-0.0460657
-0.0481267
-0.0501747
-0.0522185
-0.0542535
-0.0563305
-0.0584729
-0.0414208
-0.0437623
-0.0460871
-0.0483963
-0.0506919
-0.0529751
-0.0552492
-0.0575136
-0.0597789
-0.0620405
-0.0643585
-0.0667652
-0.0477948
-0.0503531
-0.0528957
-0.0554243
-0.0579415
-0.0604488
-0.0629502
-0.0654453
-0.0679468
-0.0704499
-0.0730253
-0.0757164
-0.054679
-0.0574672
-0.0602403
-0.0630008
-0.0657517
-0.068495
-0.0712357
-0.0739737
-0.0767235
-0.0794807
-0.0823267
-0.0853192
-0.062091
-0.0651207
-0.0681356
-0.0711385
-0.074133
-0.0771214
-0.0801099
-0.0830985
-0.0861048
-0.0891247
-0.092251
-0.0955579
-0.0700507
-0.0733309
-0.0765955
-0.0798482
-0.0830935
-0.0863339
-0.0895759
-0.0928194
-0.0960842
-0.0993681
-0.102777
-0.106405
-0.0785799
-0.0821165
-0.085635
-0.0891398
-0.0926363
-0.0961287
-0.099625
-0.103125
-0.106649
-0.110195
-0.11388
-0.117825
-0.0876963
-0.0914937
-0.0952692
-0.0990271
-0.102772
-0.106509
-0.110246
-0.113989
-0.11776
-0.121561
-0.125516
-0.129768
-0.0974203
-0.101474
-0.105501
-0.109508
-0.113499
-0.117478
-0.121448
-0.125413
-0.129398
-0.133418
-0.137611
-0.142152
-0.107781
-0.112081
-0.116342
-0.120574
-0.124783
-0.128985
-0.133176
-0.13737
-0.141557
-0.145772
-0.150139
-0.154924
-0.118796
-0.123339
-0.127826
-0.132267
-0.136655
-0.141022
-0.145356
-0.149722
-0.154077
-0.15851
-0.163033
-0.168049
-0.130461
-0.135222
-0.139918
-0.144568
-0.149146
-0.153686
-0.158118
-0.162564
-0.166914
-0.171463
-0.176044
-0.181354
-0.142807
-0.147729
-0.15256
-0.157341
-0.162051
-0.16677
-0.17136
-0.175996
-0.180329
-0.184918
-0.189251
-0.194824
-0.155901
-0.160958
-0.16587
-0.170677
-0.175347
-0.180024
-0.184569
-0.18935
-0.193777
-0.198723
-0.202823
-0.208759
-0.169697
-0.174883
-0.179903
-0.184776
-0.189428
-0.193971
-0.198195
-0.20264
-0.206625
-0.211745
-0.21567
-0.222593
-0.184044
-0.189239
-0.194277
-0.199196
-0.203948
-0.208607
-0.21288
-0.217182
-0.22056
-0.225133
-0.227911
-0.235875
-0.199009
-0.203982
-0.208736
-0.213335
-0.217817
-0.222316
-0.22672
-0.231389
-0.235335
-0.240333
-0.242383
-0.251026
-0.214996
-0.219624
-0.223884
-0.227813
-0.231466
-0.234968
-0.238415
-0.242233
-0.246176
-0.251892
-0.255761
-0.266744
-0.231934
-0.236294
-0.24018
-0.243595
-0.246547
-0.249067
-0.251214
-0.25317
-0.255087
-0.258052
-0.261297
-0.272342
-0.0124529
-0.0148574
-0.0168235
-0.0182071
-0.0189583
-0.0189715
-0.0181668
-0.0164826
-0.0138661
-0.0103342
-0.00587725
-0.000632463
0.00531574
0.0117089
0.0183006
0.0247694
0.0306049
0.0354016
0.0384259
0.0397512
0.0399827
0.0401807
0.0409949
0.0432901
0.0465744
0.0478893
0.0463296
0.0423862
0.0339844
0.0131667
-0.0134096
-0.0158646
-0.0178344
-0.0192296
-0.0199683
-0.0199531
-0.0191036
-0.0173535
-0.0146446
-0.0109943
-0.00639135
-0.000981832
0.00515065
0.0117383
0.0185253
0.0251863
0.0311643
0.0360236
0.0389416
0.0400249
0.0400091
0.0399544
0.0406826
0.0430713
0.0466674
0.048121
0.0465929
0.0428894
0.0346078
0.0130647
-0.015212
-0.0177767
-0.019776
-0.0211736
-0.0218818
-0.0218117
-0.0208768
-0.0190028
-0.0161188
-0.012246
-0.00736762
-0.00164809
0.00483206
0.0117877
0.0189452
0.025977
0.0322384
0.0372186
0.0399271
0.0405328
0.0400267
0.0394706
0.0400542
0.0425915
0.0468108
0.0484897
0.047041
0.0438184
0.0356957
0.012788
-0.0178071
-0.020537
-0.0225986
-0.0239738
-0.0246287
-0.0244779
-0.0234203
-0.0213691
-0.0182344
-0.0140439
-0.00877265
-0.00261201
0.00436368
0.0118445
0.0195353
0.0271141
0.0338063
0.0389644
0.0413516
0.0412301
0.0399651
0.038661
0.0390665
0.041786
0.0469386
0.0488508
0.0475544
0.0450781
0.037046
0.0121955
-0.0211488
-0.0240871
-0.0262144
-0.0275662
-0.0281533
-0.0279007
-0.0266872
-0.02441
-0.0209546
-0.0163579
-0.0105862
-0.00386474
0.00374049
0.0118894
0.0202667
0.0285721
0.0358588
0.0412478
0.0431958
0.0420648
0.0397257
0.0374325
0.0376486
0.0405697
0.0469459
0.0490124
0.0480142
0.0465172
0.038392
0.0111316
-0.0252098
-0.0283963
-0.0305916
-0.0319136
-0.0324191
-0.0320466
-0.0306473
-0.0280993
-0.0242572
-0.0191707
-0.0127989
-0.00540677
0.0029489
0.0118936
0.0210975
0.0303229
0.0383899
0.0440532
0.0454494
0.0429665
0.0391724
0.0356727
0.0357027
0.0388556
0.046677
0.0487558
0.048258
0.0478615
0.039387
0.00950158
-0.0299774
-0.0334481
-0.035713
-0.0369921
-0.0374021
-0.0368937
-0.0352822
-0.0324219
-0.0281309
-0.0224743
-0.0154096
-0.00724553
0.00196713
0.0118169
0.0219689
0.0323263
0.0413824
0.0473499
0.0481041
0.043832
0.0381232
0.0332573
0.0331175
0.036566
0.0459223
0.0478518
0.0479895
0.0486167
0.0396095
0.00738317
-0.0354461
-0.0392325
-0.0415607
-0.0427833
-0.0430851
-0.0424286
-0.0405827
-0.0373721
-0.0325726
-0.0262678
-0.0184233
-0.00939306
0.000765919
0.0116077
0.0228017
0.0345196
0.044787
0.0510801
0.051145
0.0445063
0.0363432
0.0300467
0.0297818
0.0336363
0.0444458
0.0460859
0.0466276
0.0480267
0.0385729
0.00507419
-0.0416164
-0.0457436
-0.0481242
-0.0492724
-0.0494555
-0.0486436
-0.0465464
-0.0429517
-0.0375861
-0.0305557
-0.0218487
-0.0118642
-0.000688814
0.0112042
0.0234887
0.036808
0.0485048
0.0551455
0.0545297
0.0447537
0.0335459
0.0258901
0.0256042
0.0300173
0.0420433
0.043258
0.0434163
0.0452843
0.0357623
0.00301534
-0.0484915
-0.0529774
-0.0553895
-0.0564442
-0.0565022
-0.0555349
-0.053177
-0.0491691
-0.0431809
-0.0353469
-0.0256963
-0.0146738
-0.00243296
0.0105369
0.0238966
0.0390552
0.0523705
0.0593906
0.0581523
0.0442331
0.0293901
0.0206174
0.020524
0.0256922
0.0386121
0.0392284
0.0382094
0.0399473
0.0307982
0.00154682
-0.056075
-0.060927
-0.0633422
-0.0642817
-0.0642146
-0.0631016
-0.0604828
-0.0560391
-0.0493722
-0.040654
-0.0299769
-0.0178343
-0.00450019
0.00953528
0.0238792
0.0410583
0.0561046
0.0635766
0.0617802
0.0424843
0.0234765
0.0140402
0.0145143
0.0206816
0.0341605
0.0340409
0.031282
0.0321576
0.0236681
0.000772468
-0.0643684
-0.0695818
-0.0719602
-0.0727628
-0.0725801
-0.0713449
-0.0684773
-0.0635827
-0.0561805
-0.0464931
-0.0346992
-0.0213534
-0.00691679
0.00813714
0.0232879
0.0425242
0.0592909
0.0673441
0.0649612
0.0389327
0.0153926
0.00597325
0.00758757
0.0150284
0.0287527
0.0279029
0.0231338
0.0224566
0.0148025
0.000612693
-0.0733694
-0.078922
-0.0812129
-0.0818591
-0.0815836
-0.080267
-0.0771784
-0.0718282
-0.0636326
-0.0528841
-0.0398689
-0.0252334
-0.00969428
0.00629893
0.0219897
0.0430877
0.0613777
0.0701473
0.0669291
0.0330066
0.00478834
-0.00373509
-0.000206731
0.0087924
0.0225535
0.021144
0.0144027
0.0116061
0.00492304
0.000901014
-0.0830686
-0.0889188
-0.0910569
-0.0915319
-0.0912058
-0.0898718
-0.0866094
-0.0808121
-0.0717631
-0.0598512
-0.0454881
-0.0294713
-0.0128223
0.00400225
0.0199124
0.0423906
0.0616996
0.0711665
0.0666047
0.0244626
-0.00843052
-0.0151395
-0.00877604
0.00207441
0.0157799
0.0141152
0.00568129
0.000410453
-0.005169
0.00145442
-0.0934476
-0.0995278
-0.101435
-0.101734
-0.101424
-0.100164
-0.0967994
-0.0905799
-0.0806158
-0.0674224
-0.0515579
-0.0340605
-0.0162662
0.00125898
0.0170744
0.0402278
0.0595997
0.069264
0.0627956
0.0137337
-0.0238063
-0.028084
-0.017969
-0.00499681
0.00863582
0.00712274
-0.00256869
-0.0104292
-0.0147733
0.00212418
-0.104476
-0.110687
-0.112271
-0.112406
-0.112212
-0.111147
-0.107784
-0.101189
-0.0902457
-0.0756287
-0.0580811
-0.0389907
-0.0199756
-0.00188477
0.0135746
0.0366348
0.0547203
0.0632265
0.0545914
0.00168579
-0.0403373
-0.0421176
-0.027567
-0.0122839
0.00129767
0.000412186
-0.0100418
-0.0204135
-0.0234055
0.00282578
-0.116109
-0.122313
-0.123472
-0.12348
-0.123538
-0.122825
-0.119607
-0.112708
-0.100719
-0.0845039
-0.0650644
-0.0442462
-0.0239026
-0.00535675
0.00957192
0.0318576
0.0474127
0.0526304
0.0419815
-0.0109915
-0.0567934
-0.0565643
-0.0372994
-0.019648
-0.00607938
-0.00583916
-0.0165884
-0.02924
-0.030801
0.00351456
-0.128284
-0.134301
-0.134925
-0.134876
-0.135365
-0.135203
-0.132323
-0.125227
-0.112115
-0.0940841
-0.0725173
-0.049804
-0.0280154
-0.00907035
0.00525956
0.0262083
0.0386531
0.0386232
0.0263132
-0.0241422
-0.0722945
-0.0707367
-0.0468839
-0.0269545
-0.0133581
-0.0115221
-0.0221719
-0.0367723
-0.0368592
0.00414868
-0.140923
-0.146516
-0.146502
-0.146513
-0.147652
-0.14828
-0.146001
-0.13885
-0.124521
-0.104409
-0.0804487
-0.0556374
-0.0322967
-0.0129283
0.00083003
0.0199915
0.021736
0.0233699
0.00986205
-0.0376091
-0.0863735
-0.0840619
-0.0560611
-0.0340798
-0.0204202
-0.016585
-0.0268252
-0.0430059
-0.041609
0.00470036
-0.153921
-0.158797
-0.158057
-0.158301
-0.160344
-0.16206
-0.160728
-0.153709
-0.138038
-0.11552
-0.0888638
-0.0617216
-0.0367301
-0.0168421
-0.00354742
0.0141107
0.0133603
0.00934593
-0.00537723
-0.0507875
-0.0987591
-0.0960962
-0.0646136
-0.0409187
-0.0271682
-0.0210183
-0.0306247
-0.048029
-0.0451654
0.00516004
-0.167144
-0.170946
-0.169436
-0.170147
-0.173374
-0.17654
-0.176615
-0.169956
-0.152772
-0.127464
-0.0977631
-0.0680374
-0.0412916
-0.0207461
-0.00777254
0.00868197
0.00590354
-0.00260852
-0.0184404
-0.062875
-0.109232
-0.106527
-0.0723775
-0.0473868
-0.033527
-0.0248425
-0.0336702
-0.051984
-0.0476884
0.00553264
-0.180421
-0.18273
-0.180477
-0.181954
-0.186642
-0.191715
-0.193789
-0.187762
-0.168838
-0.140283
-0.107143
-0.0745701
-0.0459511
-0.0245994
-0.0117967
0.00373238
-0.000419729
-0.0124168
-0.0291575
-0.0732689
-0.117659
-0.115163
-0.0792437
-0.0534209
-0.0394406
-0.0280982
-0.0360699
-0.0550363
-0.0493531
0.00583139
-0.193484
-0.193875
-0.191004
-0.193539
-0.19998
-0.207557
-0.212384
-0.207302
-0.186346
-0.154017
-0.116997
-0.0813065
-0.050678
-0.0283795
-0.0156138
-0.000770364
-0.0056471
-0.0203444
-0.0377404
-0.0816731
-0.12404
-0.121932
-0.0851564
-0.058979
-0.0448674
-0.0308413
-0.0379298
-0.0573528
-0.0503313
0.00607279
-0.205939
-0.204049
-0.20081
-0.204672
-0.213131
-0.223973
-0.232489
-0.22872
-0.205388
-0.168691
-0.127312
-0.0882327
-0.0554451
-0.0320791
-0.0192521
-0.00487914
-0.0099234
-0.0267598
-0.0445651
-0.0880405
-0.128494
-0.126874
-0.0901091
-0.0640378
-0.0497813
-0.0331339
-0.0393477
-0.0590883
-0.0507844
0.00627334
-0.217318
-0.212891
-0.20963
-0.215003
-0.225713
-0.240722
-0.25407
-0.252071
-0.226003
-0.184305
-0.138066
-0.0953309
-0.0602296
-0.0357023
-0.0227621
-0.00864985
-0.0134165
-0.0320109
-0.0500249
-0.0925299
-0.131199
-0.130116
-0.0941347
-0.0685913
-0.0541717
-0.0350382
-0.0404098
-0.0603787
-0.050859
0.00644685
-0.22698
-0.220033
-0.217118
-0.224059
-0.237189
-0.257357
-0.27683
-0.277231
-0.248133
-0.200814
-0.149225
-0.10258
-0.0650144
-0.0392634
-0.0262072
-0.0121444
-0.0162886
-0.0363617
-0.0543747
-0.0954645
-0.13238
-0.13184
-0.0972937
-0.0726475
-0.058043
-0.036613
-0.0411895
-0.0613371
-0.0506729
0.00660135
-0.234198
-0.225117
-0.222832
-0.231261
-0.246989
-0.273181
-0.300118
-0.30377
-0.271561
-0.21811
-0.160725
-0.109939
-0.0697842
-0.0427833
-0.0296558
-0.0154347
-0.0187034
-0.0399552
-0.0576461
-0.0971919
-0.132407
-0.132262
-0.0996622
-0.0762254
-0.0614097
-0.0379111
-0.0417477
-0.0620545
-0.0502913
0.00673852
-0.239083
-0.228003
-0.226338
-0.235998
-0.254108
-0.287307
-0.322983
-0.330936
-0.29582
-0.236012
-0.172525
-0.117393
-0.0745334
-0.0462875
-0.0331727
-0.0186009
-0.0208762
-0.0428312
-0.0598278
-0.0979609
-0.131801
-0.131627
-0.101336
-0.0793542
-0.0643013
-0.0389808
-0.0421344
-0.0625972
-0.0497274
0.00686429
-0.242626
-0.228974
-0.227564
-0.238128
-0.258493
-0.299094
-0.344445
-0.358012
-0.320375
-0.254135
-0.184389
-0.124838
-0.0792702
-0.0498088
-0.0368308
-0.0216999
-0.0226318
-0.045219
-0.0615187
-0.0980701
-0.1307
-0.130344
-0.102433
-0.0821106
-0.066731
-0.0398676
-0.0423862
-0.0630067
-0.0490396
0.00701423
-0.24581
-0.228673
-0.227235
-0.238574
-0.261057
-0.308509
-0.363405
-0.383739
-0.345096
-0.27311
-0.196985
-0.132657
-0.0840541
-0.0533483
-0.0407166
-0.0249648
-0.0235258
-0.0485757
-0.0647082
-0.0980045
-0.128193
-0.128167
-0.102916
-0.0844357
-0.0688438
-0.0406219
-0.0425483
-0.0634278
-0.0485467
0.00725733
-0.256703
-0.230339
-0.227398
-0.238981
-0.263168
-0.313232
-0.372557
-0.397817
-0.361044
-0.287146
-0.207353
-0.139923
-0.089379
-0.057354
-0.04485
-0.0297408
-0.0295392
-0.054631
-0.0703056
-0.0976615
-0.12378
-0.123534
-0.102108
-0.0850923
-0.070054
-0.0414128
-0.0429469
-0.0641
-0.0487917
0.0075405
-0.255198
-0.228813
-0.22769
-0.241126
-0.269045
-0.324794
-0.387413
-0.413528
-0.372961
-0.293821
-0.210665
-0.141659
-0.0906898
-0.0591256
-0.0474437
-0.0320101
-0.0310492
-0.0563993
-0.0728673
-0.0974524
-0.122047
-0.122054
-0.101861
-0.0855751
-0.0710056
-0.0417888
-0.0431382
-0.0640042
-0.0488508
0.00771693
-0.253846
-0.22794
-0.229089
-0.244455
-0.276237
-0.336881
-0.403054
-0.428646
-0.381563
-0.295612
-0.209227
-0.139615
-0.0895239
-0.0595962
-0.0491561
-0.033472
-0.0333498
-0.058119
-0.0752141
-0.0969377
-0.120223
-0.120767
-0.101588
-0.0860445
-0.0718073
-0.0418982
-0.0432243
-0.0636568
-0.0488532
0.00784319
-0.253139
-0.228347
-0.231369
-0.24825
-0.283726
-0.348796
-0.417407
-0.442389
-0.389596
-0.297658
-0.208327
-0.138077
-0.0889004
-0.060435
-0.0511531
-0.0355063
-0.0365231
-0.0602245
-0.077249
-0.0962189
-0.118144
-0.11903
-0.101134
-0.086475
-0.0725173
-0.0419304
-0.0432832
-0.0633097
-0.0488183
0.00792454
-0.253149
-0.229978
-0.234517
-0.252712
-0.291848
-0.360949
-0.431372
-0.455374
-0.397419
-0.300269
-0.208402
-0.137538
-0.0891997
-0.0619438
-0.0537597
-0.038362
-0.0402138
-0.0625342
-0.0790062
-0.0952944
-0.115852
-0.117006
-0.100525
-0.0868415
-0.0731587
-0.0419402
-0.0433451
-0.0629661
-0.0487524
0.00796321
-0.254298
-0.232922
-0.238588
-0.257942
-0.300601
-0.373278
-0.445113
-0.467594
-0.404535
-0.302566
-0.208529
-0.137282
-0.0899381
-0.0639132
-0.0569054
-0.0419599
-0.0443794
-0.0649975
-0.0805042
-0.0941841
-0.113371
-0.11477
-0.0997883
-0.0871387
-0.0737258
-0.0419142
-0.043406
-0.0626011
-0.048664
0.00796112
-0.256818
-0.237199
-0.243599
-0.26396
-0.309894
-0.385687
-0.458385
-0.478792
-0.410685
-0.30431
-0.208433
-0.13707
-0.090939
-0.0662757
-0.060587
-0.0463272
-0.0490414
-0.0675905
-0.0817621
-0.0929052
-0.110721
-0.112324
-0.0989258
-0.0873669
-0.0742091
-0.0418402
-0.0434604
-0.0622159
-0.0485613
0.00792036
-0.260797
-0.242766
-0.249551
-0.270756
-0.319609
-0.398067
-0.471287
-0.488713
-0.415761
-0.305551
-0.208215
-0.137007
-0.092266
-0.0691015
-0.0648904
-0.0515444
-0.0541855
-0.0702796
-0.0827975
-0.0914766
-0.107921
-0.109682
-0.0979397
-0.0875253
-0.0746052
-0.0417185
-0.0435091
-0.0618182
-0.0484515
0.007843
-0.266235
-0.249588
-0.256452
-0.278282
-0.329549
-0.410195
-0.491293
-0.497137
-0.41963
-0.306276
-0.207931
-0.13718
-0.0939809
-0.0724719
-0.0699018
-0.0576616
-0.059766
-0.0730284
-0.0836279
-0.0899193
-0.104993
-0.106864
-0.0968342
-0.0876118
-0.0749146
-0.041554
-0.0435549
-0.0614135
-0.0483408
0.00773112
-0.273114
-0.257644
-0.264323
-0.286453
-0.339458
-0.421332
-0.499503
-0.503579
-0.422133
-0.306402
-0.20755
-0.137602
-0.0960973
-0.0764431
-0.0756742
-0.0646875
-0.0657162
-0.0758013
-0.0842709
-0.088256
-0.101961
-0.103893
-0.0956138
-0.0876247
-0.075139
-0.0413514
-0.0435995
-0.0610062
-0.0482346
0.00758677
-0.281424
-0.266967
-0.273205
-0.295164
-0.349046
-0.431135
-0.506071
-0.507911
-0.423132
-0.305845
-0.207028
-0.13826
-0.0986131
-0.0810546
-0.0822304
-0.0725943
-0.0719563
-0.0785644
-0.0847439
-0.0865106
-0.0988503
-0.100788
-0.0942835
-0.0875625
-0.0752798
-0.0411147
-0.0436447
-0.0606002
-0.0481372
0.00741199
-0.291159
-0.277662
-0.283172
-0.304301
-0.358003
-0.439218
-0.510904
-0.509947
-0.422513
-0.304536
-0.20633
-0.139145
-0.101527
-0.0863324
-0.0895671
-0.0813167
-0.0783992
-0.0812869
-0.0850642
-0.084708
-0.0956885
-0.097574
-0.0928476
-0.0874246
-0.075339
-0.0408481
-0.0436919
-0.0601988
-0.0480523
0.00720878
-0.302188
-0.289838
-0.294368
-0.31377
-0.366031
-0.445175
-0.513367
-0.509456
-0.420166
-0.302405
-0.205417
-0.140241
-0.104836
-0.0922823
-0.0976545
-0.0907528
-0.0849576
-0.0839422
-0.0852488
-0.0828735
-0.0925027
-0.0942723
-0.0913115
-0.0872106
-0.0753192
-0.0405562
-0.0437427
-0.0598054
-0.0479823
0.00697915
-0.315066
-0.303405
-0.306899
-0.323532
-0.372862
-0.448619
-0.512938
-0.50621
-0.415992
-0.299375
-0.204251
-0.141522
-0.108525
-0.0988825
-0.106436
-0.100756
-0.0915504
-0.086507
-0.0853143
-0.0810316
-0.0893197
-0.090908
-0.0896808
-0.086921
-0.0752235
-0.0402437
-0.0437986
-0.059423
-0.0479292
0.00672509
-0.329719
-0.319154
-0.320392
-0.333562
-0.378304
-0.449223
-0.509238
-0.500025
-0.409901
-0.295367
-0.202784
-0.142946
-0.11257
-0.10608
-0.115834
-0.111083
-0.0981027
-0.0889617
-0.0852759
-0.0792057
-0.0861659
-0.0875063
-0.0879622
-0.0865567
-0.0750561
-0.0399155
-0.0438608
-0.0590541
-0.0478937
0.00644855
-0.346215
-0.336709
-0.335435
-0.343743
-0.382289
-0.446758
-0.502025
-0.490775
-0.401818
-0.290303
-0.200968
-0.144463
-0.116932
-0.113794
-0.12575
-0.121666
-0.104552
-0.0912909
-0.0851479
-0.0774173
-0.083066
-0.0840926
-0.0861624
-0.0861196
-0.0748212
-0.0395762
-0.0439304
-0.058701
-0.0478757
0.00615149
-0.364586
-0.356095
-0.351982
-0.3542
-0.384794
-0.441155
-0.491189
-0.478404
-0.391688
-0.284107
-0.198752
-0.146008
-0.121558
-0.121916
-0.136069
-0.132373
-0.110851
-0.0934835
-0.0849432
-0.0756853
-0.080043
-0.0806914
-0.0842891
-0.0856116
-0.0745238
-0.0392306
-0.044008
-0.0583652
-0.0478746
0.00583587
-0.384758
-0.377249
-0.370005
-0.365015
-0.385817
-0.43254
-0.476752
-0.462931
-0.379485
-0.276714
-0.196083
-0.147505
-0.126379
-0.130321
-0.146657
-0.143025
-0.116962
-0.0955326
-0.0846733
-0.0740254
-0.0771177
-0.0773268
-0.0823504
-0.0850357
-0.0741692
-0.0388828
-0.0440938
-0.058048
-0.0478888
0.0055036
-0.406509
-0.399966
-0.389403
-0.376233
-0.385516
-0.421137
-0.458878
-0.444457
-0.365212
-0.268069
-0.192909
-0.148871
-0.131309
-0.138871
-0.15737
-0.153486
-0.122852
-0.0974348
-0.0843488
-0.0724499
-0.0743087
-0.0740226
-0.0803552
-0.0843949
-0.0737628
-0.0385371
-0.0441878
-0.0577499
-0.047916
0.00515664
-0.429474
-0.423892
-0.409941
-0.387795
-0.384128
-0.407243
-0.43791
-0.423166
-0.348906
-0.258131
-0.189177
-0.150016
-0.136252
-0.147427
-0.16806
-0.163629
-0.128494
-0.0991893
-0.0839788
-0.0709675
-0.0716321
-0.0708012
-0.0783137
-0.083693
-0.0733104
-0.0381973
-0.0442894
)
;

boundaryField
{
    inlet
    {
        type            zeroGradient;
    }
    outlet
    {
        type            fixedValue;
        value           uniform 0;
    }
    cylinder
    {
        type            zeroGradient;
    }
    top
    {
        type            symmetryPlane;
    }
    bottom
    {
        type            symmetryPlane;
    }
    defaultFaces
    {
        type            empty;
    }
    procBoundary1to0
    {
        type            processor;
        value           nonuniform List<scalar> 
50
(
-0.248931
-0.279244
-0.279244
-0.307992
-0.307992
-0.349196
-0.330752
-0.330752
-0.358487
-0.358487
-0.362991
-0.362991
-0.364929
-0.364929
-0.36486
-0.359055
-0.359055
-0.356771
-0.356771
-0.00136658
-0.00204006
-0.00327531
-0.00501978
-0.00725289
-0.0099468
-0.0130921
-0.0166819
-0.0207164
-0.025199
-0.0301372
-0.0301372
-0.0333813
-0.0390609
-0.0452188
-0.0518733
-0.0590434
-0.0667512
-0.0750209
-0.0838726
-0.0933339
-0.103435
-0.114197
-0.125634
-0.137789
-0.150709
-0.164359
-0.178675
-0.193778
-0.209979
-0.227095
)
;
    }
    procBoundary1to3
    {
        type            processor;
        value           nonuniform List<scalar> 
41
(
-0.418676
-0.421789
-0.423212
-0.424934
-0.427304
-0.430362
-0.434036
-0.43815
-0.442355
-0.446587
-0.453167
-0.448511
-0.431212
-0.399566
-0.381941
-0.391184
-0.414302
-0.399296
-0.330635
-0.246883
-0.184834
-0.150842
-0.141098
-0.155854
-0.178573
-0.173343
-0.133862
-0.100797
-0.0835713
-0.0695831
-0.0691017
-0.0676846
-0.076237
-0.0829337
-0.0728177
-0.0378668
-0.0443978
-0.0574712
-0.0479537
0.00479691
-0.0574712
)
;
    }
}


// ************************************************************************* //
