/*--------------------------------*- C++ -*----------------------------------*\
  =========                 |
  \\      /  F ield         | OpenFOAM: The Open Source CFD Toolbox
   \\    /   O peration     | Website:  https://openfoam.org
    \\  /    A nd           | Version:  7
     \\/     M anipulation  |
\*---------------------------------------------------------------------------*/
FoamFile
{
    version     2.0;
    format      ascii;
    class       volScalarField;
    location    "10";
    object      p;
}
// * * * * * * * * * * * * * * * * * * * * * * * * * * * * * * * * * * * * * //

dimensions      [0 2 -2 0 0 0 0];

internalField   nonuniform List<scalar> 
8500
(
-0.316299
-0.319034
-0.320366
-0.3216
-0.322923
-0.324449
-0.326301
-0.328596
-0.331387
-0.334981
-0.316616
-0.31929
-0.320597
-0.321811
-0.323115
-0.324622
-0.326452
-0.328721
-0.331475
-0.334999
-0.317237
-0.319793
-0.32105
-0.322224
-0.32349
-0.324957
-0.326739
-0.328954
-0.331633
-0.335012
-0.318138
-0.320525
-0.321708
-0.322819
-0.324026
-0.325429
-0.327136
-0.329265
-0.331834
-0.334979
-0.319285
-0.321459
-0.322546
-0.323573
-0.324695
-0.326008
-0.327607
-0.329612
-0.332037
-0.334842
-0.320637
-0.322567
-0.323536
-0.324455
-0.325466
-0.326658
-0.328111
-0.329947
-0.332202
-0.334537
-0.32215
-0.323817
-0.324649
-0.325435
-0.326305
-0.327341
-0.328607
-0.330222
-0.332292
-0.333986
-0.323783
-0.325178
-0.325857
-0.326485
-0.327182
-0.328025
-0.329061
-0.330395
-0.332279
-0.333072
-0.325497
-0.326624
-0.327134
-0.32758
-0.328071
-0.328684
-0.329448
-0.330435
-0.332147
-0.331736
-0.327262
-0.328133
-0.328462
-0.328702
-0.328957
-0.329304
-0.32976
-0.330328
-0.331807
-0.330585
-0.329057
-0.329691
-0.329829
-0.32984
-0.32983
-0.329879
-0.330005
-0.330138
-0.331173
-0.329127
-0.330873
-0.331294
-0.33123
-0.330993
-0.330692
-0.330416
-0.330169
-0.329894
-0.330476
-0.327268
-0.332715
-0.332944
-0.33267
-0.332166
-0.331553
-0.330937
-0.330312
-0.329603
-0.329804
-0.325102
-0.334599
-0.334656
-0.334161
-0.33337
-0.33243
-0.331465
-0.330466
-0.329332
-0.329212
-0.322734
-0.336555
-0.336452
-0.335718
-0.334628
-0.333346
-0.332027
-0.330664
-0.329152
-0.32874
-0.320323
-0.338622
-0.338362
-0.337369
-0.335963
-0.334326
-0.332652
-0.330933
-0.329123
-0.328346
-0.318103
-0.34085
-0.340409
-0.339156
-0.337405
-0.3354
-0.333368
-0.33129
-0.329289
-0.327889
-0.316268
-0.343297
-0.342649
-0.341105
-0.338989
-0.336601
-0.334204
-0.331749
-0.329695
-0.327131
-0.314741
-0.346023
-0.345127
-0.343259
-0.340753
-0.337965
-0.335192
-0.332341
-0.330388
-0.326018
-0.313874
-0.349098
-0.347888
-0.345661
-0.342739
-0.339531
-0.33637
-0.333106
-0.331296
-0.325038
-0.317447
-0.352589
-0.35098
-0.348357
-0.344989
-0.341341
-0.33777
-0.334078
-0.332119
-0.324687
-0.330675
-0.356538
-0.354465
-0.351393
-0.34755
-0.343436
-0.339426
-0.335288
-0.332743
-0.325133
-0.329339
-0.361016
-0.358383
-0.354816
-0.350465
-0.345862
-0.341369
-0.336736
-0.333273
-0.325562
-0.326189
-0.366078
-0.362781
-0.35867
-0.35378
-0.348657
-0.343623
-0.338398
-0.333849
-0.325725
-0.323152
-0.371769
-0.367702
-0.363
-0.357539
-0.351857
-0.346203
-0.340246
-0.334468
-0.32558
-0.320014
-0.378131
-0.373188
-0.367852
-0.361782
-0.355487
-0.349108
-0.342249
-0.335077
-0.325058
-0.316885
-0.385198
-0.379276
-0.373266
-0.366549
-0.359559
-0.352322
-0.344357
-0.335593
-0.324144
-0.313672
-0.392993
-0.385998
-0.37928
-0.371865
-0.364075
-0.35581
-0.346494
-0.335921
-0.322825
-0.310312
-0.401528
-0.393378
-0.385922
-0.377741
-0.369014
-0.359509
-0.348556
-0.335968
-0.321094
-0.306735
-0.410798
-0.401425
-0.393202
-0.384167
-0.374331
-0.363317
-0.350423
-0.33565
-0.31894
-0.302884
-0.420779
-0.410131
-0.401109
-0.391105
-0.379944
-0.367101
-0.351971
-0.334894
-0.316344
-0.298708
-0.431417
-0.419464
-0.409599
-0.39848
-0.385725
-0.370698
-0.353079
-0.333634
-0.313284
-0.294159
-0.442629
-0.429362
-0.418595
-0.40618
-0.391506
-0.373936
-0.353634
-0.331811
-0.309725
-0.289192
-0.454298
-0.439726
-0.427977
-0.414047
-0.397076
-0.376639
-0.35353
-0.329366
-0.305628
-0.283759
-0.466267
-0.450416
-0.437586
-0.421869
-0.402206
-0.378636
-0.352666
-0.326237
-0.300946
-0.277813
-0.478338
-0.461253
-0.447216
-0.429395
-0.406655
-0.379765
-0.350946
-0.322364
-0.295626
-0.271303
-0.490275
-0.472011
-0.456617
-0.436337
-0.410184
-0.379872
-0.348278
-0.31768
-0.28961
-0.264182
-0.501801
-0.482428
-0.465497
-0.442389
-0.412562
-0.378815
-0.344571
-0.312118
-0.282842
-0.256405
-0.51261
-0.492206
-0.47353
-0.447242
-0.413574
-0.37646
-0.339738
-0.305612
-0.275262
-0.247929
-0.522365
-0.501017
-0.480368
-0.450595
-0.413021
-0.372686
-0.333696
-0.298093
-0.266813
-0.238716
-0.530715
-0.508514
-0.485654
-0.452165
-0.410723
-0.367381
-0.326367
-0.289499
-0.257445
-0.228734
-0.537296
-0.514335
-0.489036
-0.451695
-0.406524
-0.360446
-0.317678
-0.279771
-0.247114
-0.217958
-0.541751
-0.518121
-0.490185
-0.448956
-0.400287
-0.351793
-0.307562
-0.268852
-0.235784
-0.206378
-0.543731
-0.519523
-0.4888
-0.443758
-0.391903
-0.341351
-0.295962
-0.256692
-0.223412
-0.193972
-0.542914
-0.518214
-0.484624
-0.435944
-0.381285
-0.329064
-0.282839
-0.243253
-0.209948
-0.180643
-0.539008
-0.5139
-0.477446
-0.4254
-0.368372
-0.314897
-0.268169
-0.228524
-0.19535
-0.166188
-0.531762
-0.506332
-0.467103
-0.41205
-0.353131
-0.298828
-0.251933
-0.2125
-0.179656
-0.150464
-0.520973
-0.495317
-0.453482
-0.395854
-0.335554
-0.280851
-0.234106
-0.195136
-0.162976
-0.133767
-0.506491
-0.480716
-0.436519
-0.376813
-0.31566
-0.260977
-0.214696
-0.176425
-0.14523
-0.116622
-0.488223
-0.462451
-0.416199
-0.354961
-0.293487
-0.239242
-0.193806
-0.156739
-0.126206
-0.0988652
-0.466131
-0.440501
-0.392558
-0.33037
-0.269095
-0.21573
-0.171575
-0.135813
-0.106227
-0.0803886
-0.440239
-0.414905
-0.365691
-0.303151
-0.242569
-0.190577
-0.147958
-0.113732
-0.0853896
-0.0612129
-0.410621
-0.38577
-0.335765
-0.273404
-0.214053
-0.163794
-0.123046
-0.0905913
-0.0637607
-0.0414252
-0.377414
-0.353277
-0.302998
-0.241145
-0.183665
-0.135527
-0.0969444
-0.0664937
-0.0414089
-0.0211332
-0.340812
-0.317666
-0.267446
-0.206626
-0.151534
-0.105912
-0.0697778
-0.0415424
-0.0184094
-0.000421585
-0.301046
-0.279175
-0.228832
-0.17043
-0.117902
-0.0751054
-0.0416794
-0.0158425
0.00515747
0.0206193
-0.258336
-0.237879
-0.188067
-0.132489
-0.0829679
-0.0432759
-0.012781
0.0105099
0.029154
0.0416488
-0.212961
-0.193924
-0.145754
-0.0930674
-0.0469249
-0.0105947
0.0168042
0.0374362
0.0533051
0.0618439
-0.16537
-0.147876
-0.10195
-0.0524551
-0.00998892
0.0227669
0.0469714
0.0648392
0.0772823
0.0806361
-0.115949
-0.100117
-0.05688
-0.0109359
0.0276042
0.0566239
0.0775622
0.0924841
0.100992
0.0997864
-0.0650446
-0.0510849
-0.010861
0.0312037
0.0656103
0.0907691
0.108326
0.119967
0.124405
0.124179
-0.0130813
-0.00119175
0.0357509
0.0736682
0.10378
0.124977
0.138999
0.147155
0.148394
0.148719
0.0394987
0.0491552
0.0825891
0.116155
0.141857
0.15902
0.169407
0.174119
0.172642
0.172011
0.0922494
0.0995443
0.129285
0.158358
0.179581
0.192667
0.199377
0.200733
0.196715
0.194373
0.144724
0.149561
0.175474
0.19997
0.216692
0.225697
0.228739
0.226824
0.220271
0.215795
0.196476
0.198795
0.220795
0.240688
0.252932
0.257894
0.257316
0.25221
0.243122
0.236309
0.247067
0.24684
0.264897
0.280214
0.288051
0.289044
0.284927
0.276718
0.265115
0.255876
0.29607
0.293303
0.307438
0.318262
0.321803
0.318942
0.311394
0.300188
0.286124
0.274437
0.34307
0.337801
0.348089
0.354554
0.353954
0.347387
0.336546
0.32247
0.306029
0.291921
0.387671
0.379974
0.386539
0.388825
0.384281
0.374189
0.360221
0.343425
0.324716
0.308251
0.429498
0.419478
0.422493
0.420827
0.412571
0.399168
0.382266
0.362923
0.342079
0.323354
0.468202
0.455993
0.455677
0.450328
0.438627
0.422155
0.402537
0.380841
0.358016
0.337158
0.503458
0.489225
0.485837
0.477113
0.462267
0.442997
0.420903
0.397067
0.372433
0.349596
0.534975
0.518907
0.512746
0.500989
0.483327
0.461552
0.437245
0.411498
0.385243
0.360609
0.562489
0.544802
0.536199
0.521784
0.501658
0.477696
0.451455
0.424044
0.39637
0.370146
0.585773
0.566703
0.556019
0.539347
0.517134
0.491319
0.463442
0.434623
0.405747
0.37816
0.604635
0.584436
0.572057
0.553551
0.529647
0.502329
0.473127
0.443169
0.413318
0.384615
0.618919
0.597861
0.584193
0.564295
0.539108
0.510652
0.480446
0.449627
0.419036
0.389482
0.628507
0.60687
0.592334
0.571501
0.545453
0.516233
0.485353
0.453955
0.422867
0.392738
0.633321
0.611392
0.59642
0.575117
0.548636
0.519032
0.487814
0.456127
0.424789
0.39437
0.633321
0.611392
0.59642
0.575117
0.548636
0.519032
0.487814
0.456127
0.424789
0.39437
0.628507
0.60687
0.592334
0.571501
0.545453
0.516233
0.485353
0.453955
0.422867
0.392738
0.618919
0.597861
0.584193
0.564295
0.539108
0.510652
0.480446
0.449627
0.419036
0.389482
0.604635
0.584436
0.572057
0.553551
0.529647
0.502329
0.473127
0.443169
0.413318
0.384615
0.585773
0.566703
0.556019
0.539347
0.517134
0.491319
0.463442
0.434623
0.405747
0.37816
0.562489
0.544802
0.536199
0.521784
0.501658
0.477696
0.451455
0.424044
0.39637
0.370146
0.534975
0.518907
0.512746
0.500989
0.483327
0.461552
0.437244
0.411498
0.385243
0.360609
0.503458
0.489225
0.485837
0.477113
0.462267
0.442997
0.420903
0.397067
0.372433
0.349596
0.468202
0.455993
0.455677
0.450328
0.438627
0.422155
0.402537
0.380841
0.358016
0.337158
0.429498
0.419478
0.422493
0.420827
0.412571
0.399167
0.382266
0.362923
0.342079
0.323354
0.387671
0.379974
0.386539
0.388825
0.384281
0.374189
0.360221
0.343425
0.324716
0.308251
0.34307
0.337801
0.348089
0.354554
0.353954
0.347387
0.336546
0.32247
0.306029
0.291921
0.29607
0.293303
0.307438
0.318262
0.321803
0.318942
0.311394
0.300188
0.286124
0.274437
0.247067
0.24684
0.264897
0.280214
0.288051
0.289044
0.284927
0.276718
0.265115
0.255876
0.196476
0.198795
0.220795
0.240688
0.252932
0.257894
0.257316
0.25221
0.243122
0.236309
0.144724
0.149561
0.175474
0.19997
0.216692
0.225697
0.228739
0.226824
0.220271
0.215795
0.0922494
0.0995442
0.129285
0.158358
0.179581
0.192667
0.199377
0.200733
0.196715
0.194373
0.0394986
0.0491552
0.0825891
0.116155
0.141857
0.15902
0.169407
0.174119
0.172642
0.172011
-0.0130813
-0.00119178
0.0357509
0.0736682
0.10378
0.124977
0.138999
0.147155
0.148394
0.148719
-0.0650446
-0.0510849
-0.010861
0.0312037
0.0656103
0.090769
0.108326
0.119967
0.124405
0.124179
-0.11595
-0.100117
-0.05688
-0.0109359
0.0276042
0.0566239
0.0775621
0.0924841
0.100992
0.0997864
-0.16537
-0.147876
-0.10195
-0.0524552
-0.00998896
0.0227669
0.0469713
0.0648392
0.0772823
0.0806361
-0.212961
-0.193924
-0.145754
-0.0930674
-0.0469249
-0.0105948
0.0168042
0.0374362
0.053305
0.0618438
-0.258336
-0.237879
-0.188067
-0.132489
-0.082968
-0.0432759
-0.012781
0.0105098
0.0291539
0.0416488
-0.301046
-0.279175
-0.228832
-0.17043
-0.117902
-0.0751054
-0.0416794
-0.0158426
0.00515741
0.0206193
-0.340812
-0.317666
-0.267446
-0.206626
-0.151534
-0.105912
-0.0697778
-0.0415425
-0.0184095
-0.000421648
-0.377414
-0.353277
-0.302998
-0.241145
-0.183665
-0.135527
-0.0969445
-0.0664938
-0.041409
-0.0211333
-0.410621
-0.38577
-0.335765
-0.273404
-0.214053
-0.163794
-0.123046
-0.0905913
-0.0637608
-0.0414253
-0.440239
-0.414905
-0.365691
-0.303151
-0.242569
-0.190577
-0.147958
-0.113732
-0.0853897
-0.0612129
-0.466132
-0.440501
-0.392558
-0.33037
-0.269095
-0.21573
-0.171575
-0.135814
-0.106227
-0.0803887
-0.488223
-0.462451
-0.416199
-0.354961
-0.293487
-0.239243
-0.193806
-0.156739
-0.126206
-0.0988653
-0.506491
-0.480716
-0.436519
-0.376813
-0.31566
-0.260978
-0.214696
-0.176425
-0.14523
-0.116623
-0.520973
-0.495317
-0.453482
-0.395854
-0.335554
-0.280851
-0.234106
-0.195136
-0.162976
-0.133768
-0.531762
-0.506332
-0.467103
-0.41205
-0.353131
-0.298828
-0.251933
-0.2125
-0.179656
-0.150464
-0.539008
-0.5139
-0.477446
-0.425401
-0.368372
-0.314897
-0.268169
-0.228524
-0.19535
-0.166188
-0.542914
-0.518214
-0.484624
-0.435944
-0.381285
-0.329064
-0.282839
-0.243253
-0.209948
-0.180643
-0.543731
-0.519523
-0.4888
-0.443758
-0.391903
-0.341351
-0.295962
-0.256692
-0.223412
-0.193972
-0.541751
-0.518121
-0.490185
-0.448956
-0.400287
-0.351793
-0.307562
-0.268852
-0.235784
-0.206378
-0.537296
-0.514335
-0.489036
-0.451695
-0.406524
-0.360446
-0.317678
-0.279771
-0.247114
-0.217958
-0.530715
-0.508514
-0.485654
-0.452165
-0.410723
-0.367381
-0.326367
-0.289499
-0.257445
-0.228734
-0.522366
-0.501017
-0.480368
-0.450595
-0.413021
-0.372686
-0.333696
-0.298093
-0.266813
-0.238716
-0.51261
-0.492206
-0.47353
-0.447242
-0.413574
-0.37646
-0.339738
-0.305612
-0.275262
-0.247929
-0.501801
-0.482428
-0.465497
-0.442389
-0.412562
-0.378815
-0.344571
-0.312118
-0.282842
-0.256405
-0.490275
-0.472011
-0.456617
-0.436337
-0.410184
-0.379872
-0.348278
-0.31768
-0.28961
-0.264182
-0.478338
-0.461253
-0.447216
-0.429395
-0.406655
-0.379765
-0.350946
-0.322364
-0.295626
-0.271303
-0.466267
-0.450417
-0.437586
-0.421869
-0.402206
-0.378636
-0.352666
-0.326237
-0.300946
-0.277813
-0.454298
-0.439726
-0.427977
-0.414047
-0.397076
-0.376639
-0.35353
-0.329366
-0.305628
-0.28376
-0.442629
-0.429362
-0.418595
-0.406181
-0.391506
-0.373936
-0.353635
-0.331811
-0.309725
-0.289192
-0.431417
-0.419464
-0.409599
-0.39848
-0.385726
-0.370698
-0.353079
-0.333634
-0.313284
-0.29416
-0.420779
-0.410131
-0.401109
-0.391105
-0.379944
-0.367101
-0.351971
-0.334894
-0.316344
-0.298708
-0.410798
-0.401425
-0.393202
-0.384168
-0.374331
-0.363317
-0.350423
-0.335651
-0.31894
-0.302884
-0.401528
-0.393378
-0.385922
-0.377741
-0.369014
-0.359509
-0.348556
-0.335969
-0.321094
-0.306735
-0.392993
-0.385998
-0.37928
-0.371865
-0.364075
-0.35581
-0.346494
-0.335921
-0.322825
-0.310312
-0.385198
-0.379276
-0.373266
-0.366549
-0.359559
-0.352322
-0.344357
-0.335593
-0.324144
-0.313672
-0.378131
-0.373188
-0.367852
-0.361782
-0.355487
-0.349108
-0.342249
-0.335077
-0.325058
-0.316886
-0.371769
-0.367702
-0.363
-0.357539
-0.351857
-0.346203
-0.340246
-0.334468
-0.32558
-0.320014
-0.366078
-0.362781
-0.35867
-0.35378
-0.348657
-0.343623
-0.338398
-0.333849
-0.325725
-0.323152
-0.361016
-0.358383
-0.354816
-0.350465
-0.345862
-0.341369
-0.336736
-0.333273
-0.325562
-0.326189
-0.356538
-0.354465
-0.351393
-0.34755
-0.343436
-0.339426
-0.335288
-0.332743
-0.325133
-0.329339
-0.352589
-0.35098
-0.348357
-0.34499
-0.341341
-0.33777
-0.334078
-0.332119
-0.324687
-0.330675
-0.349098
-0.347888
-0.345661
-0.342739
-0.339531
-0.33637
-0.333106
-0.331296
-0.325038
-0.317447
-0.346023
-0.345127
-0.343259
-0.340753
-0.337965
-0.335192
-0.332341
-0.330388
-0.326018
-0.313874
-0.343297
-0.342649
-0.341105
-0.338989
-0.336601
-0.334204
-0.331749
-0.329695
-0.327131
-0.314741
-0.34085
-0.340409
-0.339156
-0.337405
-0.3354
-0.333368
-0.33129
-0.329289
-0.327889
-0.316268
-0.338622
-0.338362
-0.337369
-0.335963
-0.334326
-0.332652
-0.330933
-0.329123
-0.328346
-0.318103
-0.336555
-0.336452
-0.335718
-0.334628
-0.333346
-0.332027
-0.330664
-0.329152
-0.32874
-0.320323
-0.334599
-0.334656
-0.334161
-0.33337
-0.33243
-0.331465
-0.330466
-0.329332
-0.329212
-0.322734
-0.332715
-0.332944
-0.33267
-0.332166
-0.331553
-0.330937
-0.330312
-0.329603
-0.329804
-0.325102
-0.330873
-0.331294
-0.33123
-0.330993
-0.330692
-0.330416
-0.330169
-0.329894
-0.330476
-0.327268
-0.329057
-0.329691
-0.329829
-0.32984
-0.32983
-0.329879
-0.330005
-0.330138
-0.331173
-0.329127
-0.327262
-0.328133
-0.328462
-0.328702
-0.328957
-0.329304
-0.32976
-0.330328
-0.331807
-0.330585
-0.325497
-0.326624
-0.327134
-0.32758
-0.328071
-0.328684
-0.329448
-0.330435
-0.332147
-0.331736
-0.323783
-0.325178
-0.325856
-0.326485
-0.327182
-0.328025
-0.329061
-0.330395
-0.332279
-0.333072
-0.32215
-0.323817
-0.324649
-0.325435
-0.326305
-0.327341
-0.328607
-0.330222
-0.332292
-0.333986
-0.320637
-0.322567
-0.323536
-0.324455
-0.325466
-0.326658
-0.328111
-0.329947
-0.332202
-0.334537
-0.319285
-0.321459
-0.322546
-0.323573
-0.324695
-0.326008
-0.327607
-0.329612
-0.332037
-0.334842
-0.318138
-0.320525
-0.321708
-0.322819
-0.324026
-0.325429
-0.327136
-0.329265
-0.331834
-0.334979
-0.317237
-0.319793
-0.32105
-0.322224
-0.32349
-0.324957
-0.326739
-0.328954
-0.331633
-0.335012
-0.316616
-0.31929
-0.320597
-0.321811
-0.323115
-0.324622
-0.326452
-0.328721
-0.331475
-0.334999
-0.316299
-0.319034
-0.320366
-0.3216
-0.322923
-0.324449
-0.326301
-0.328596
-0.331387
-0.334981
-0.343242
-0.353935
-0.371076
-0.389855
-0.411157
-0.430102
-0.442323
-0.440707
-0.417137
-0.362773
-0.277573
-0.177723
-0.085477
-0.0152911
0.0287932
0.0508804
0.0577158
0.0556327
0.0491467
0.0411121
0.0330788
0.0258508
0.0196962
0.0147332
0.0107989
0.00786456
0.00551844
0.00382132
0.00213184
0.000974843
-0.343444
-0.354032
-0.371233
-0.390081
-0.41149
-0.430594
-0.443012
-0.441656
-0.418416
-0.364297
-0.2791
-0.179029
-0.0864776
-0.016014
0.028284
0.0505243
0.0574681
0.0554614
0.0490291
0.0410317
0.0330237
0.0258129
0.0196697
0.0147141
0.0107848
0.00785404
0.00551085
0.00381612
0.00212886
0.000973026
-0.343814
-0.354195
-0.37151
-0.390487
-0.4121
-0.431511
-0.44431
-0.443456
-0.420864
-0.367235
-0.282065
-0.18159
-0.088458
-0.0174526
0.0272637
0.0498088
0.0569696
0.0551166
0.0487925
0.0408701
0.0329133
0.0257369
0.0196165
0.0146759
0.0107567
0.00783311
0.00549576
0.00380576
0.00212294
0.000969405
-0.34429
-0.354363
-0.371838
-0.390989
-0.412886
-0.432727
-0.446069
-0.445933
-0.424278
-0.371386
-0.286308
-0.18531
-0.0913749
-0.0195942
0.0257303
0.0487279
0.0562151
0.0545946
0.0484347
0.0406262
0.0327468
0.0256226
0.0195368
0.0146189
0.0107148
0.00780201
0.00547336
0.00379034
0.00211414
0.000964005
-0.344793
-0.354464
-0.372129
-0.391478
-0.413714
-0.434078
-0.448093
-0.448854
-0.428391
-0.376486
-0.291612
-0.190073
-0.0951469
-0.0224285
0.0236829
0.0472755
0.0551983
0.0538909
0.047953
0.0402984
0.0325236
0.0254698
0.0194305
0.0145432
0.0106595
0.00776103
0.00544388
0.00377003
0.00210255
0.000956867
-0.345232
-0.354415
-0.372282
-0.391834
-0.414436
-0.435383
-0.450169
-0.451965
-0.432912
-0.382237
-0.297735
-0.195756
-0.099688
-0.0259226
0.0211252
0.045447
0.0539139
0.0530016
0.0473448
0.0398853
0.0322431
0.0252781
0.0192978
0.0144491
0.0105911
0.00771058
0.00540765
0.00374499
0.00208831
0.000948045
-0.345527
-0.354142
-0.372207
-0.39194
-0.41491
-0.436469
-0.452085
-0.455017
-0.437548
-0.388341
-0.304476
-0.202102
-0.104961
-0.0300413
0.0180668
0.0432422
0.0523591
0.0519239
0.0466083
0.0393859
0.0319047
0.0250477
0.0191388
0.014337
0.0105101
0.00765108
0.00536502
0.00371545
0.00207154
0.000937607
-0.345648
-0.353577
-0.371827
-0.391699
-0.41501
-0.437181
-0.453656
-0.457788
-0.442039
-0.394551
-0.31164
-0.208876
-0.110871
-0.0347426
0.014524
0.0406664
0.0505349
0.0506577
0.0457432
0.0388
0.0315086
0.0247787
0.0189539
0.0142073
0.010417
0.00758302
0.00531637
0.00368165
0.0020524
0.000925635
-0.345586
-0.352675
-0.371095
-0.391038
-0.414645
-0.437399
-0.454737
-0.460099
-0.446171
-0.40067
-0.318752
-0.216118
-0.117303
-0.0399772
0.0105208
0.0377307
0.0484465
0.0492055
0.0447507
0.0381285
0.0310554
0.0244715
0.0187435
0.0140605
0.0103124
0.00750687
0.00526208
0.00364381
0.00203103
0.000912226
-0.344843
-0.351628
-0.36994
-0.389914
-0.413751
-0.437044
-0.455235
-0.461815
-0.449745
-0.406277
-0.325977
-0.223588
-0.124166
-0.0456895
0.00608844
0.0344523
0.0461035
0.0475727
0.043634
0.0373732
0.0305462
0.0241272
0.0185084
0.0138972
0.0101967
0.00742312
0.00520253
0.00360221
0.00200761
0.000897489
-0.343971
-0.35029
-0.368383
-0.388349
-0.412307
-0.436074
-0.455057
-0.46284
-0.452619
-0.411439
-0.332953
-0.231182
-0.131369
-0.0518188
0.00126413
0.0308538
0.0435197
0.0457676
0.0423981
0.0365372
0.029983
0.0237468
0.0182493
0.0137181
0.0100705
0.00733223
0.00513808
0.00355708
0.00198227
0.000881544
-0.343012
-0.348669
-0.366482
-0.386339
-0.410323
-0.434481
-0.454212
-0.463153
-0.454748
-0.415942
-0.339553
-0.238784
-0.138819
-0.0583008
-0.00391032
0.0269618
0.0407118
0.0438009
0.0410496
0.0356245
0.0293681
0.023332
0.0179674
0.013524
0.00993441
0.00723464
0.0050691
0.00350867
0.00195516
0.000864519
-0.341985
-0.346859
-0.364279
-0.383932
-0.407836
-0.43229
-0.452699
-0.46274
-0.456077
-0.419696
-0.345678
-0.246281
-0.14643
-0.0650722
-0.00939178
0.0228047
0.0376984
0.0416844
0.0395961
0.0346397
0.0287047
0.0228846
0.0176638
0.0133155
0.00978894
0.00713077
0.00499588
0.0034572
0.00192643
0.00084655
-0.340951
-0.34495
-0.361833
-0.381188
-0.404901
-0.429545
-0.450543
-0.461597
-0.456588
-0.422649
-0.351242
-0.253578
-0.154123
-0.0720749
-0.0151387
0.0184115
0.0344991
0.0394312
0.0380459
0.0335883
0.0279959
0.0224066
0.0173397
0.0130935
0.00963464
0.00702101
0.00491872
0.00340291
0.00189619
0.000827775
-0.339951
-0.343016
-0.359211
-0.378172
-0.401578
-0.426298
-0.447785
-0.459759
-0.456279
-0.424774
-0.356183
-0.260598
-0.161825
-0.0792447
-0.0211013
0.0138176
0.031138
0.0370566
0.0364083
0.0324759
0.0272452
0.0219003
0.0169966
0.0128588
0.009472
0.0069057
0.00483787
0.00334597
0.00186456
0.00080833
-0.338976
-0.341118
-0.356477
-0.374941
-0.39793
-0.422601
-0.444466
-0.457267
-0.455168
-0.426058
-0.360437
-0.267236
-0.169419
-0.0864773
-0.027202
0.0090743
0.0276469
0.0345803
0.0346949
0.0313091
0.0264566
0.0213678
0.0166358
0.0126122
0.00930147
0.00678513
0.00475353
0.00328656
0.00183162
0.000788349
-0.337932
-0.339277
-0.353692
-0.371557
-0.394022
-0.418518
-0.440633
-0.454169
-0.453302
-0.426508
-0.363954
-0.273399
-0.176812
-0.0937073
-0.033401
0.00420545
0.0240417
0.032014
0.0329165
0.030096
0.0256352
0.0208125
0.0162591
0.0123548
0.00912377
0.00665973
0.004666
0.00322488
0.00179749
0.000767961
-0.336664
-0.33749
-0.3509
-0.368059
-0.389901
-0.414096
-0.436344
-0.450404
-0.450702
-0.426201
-0.366904
-0.279355
-0.18433
-0.101225
-0.0399053
-0.000911638
0.0202602
0.0293312
0.031066
0.028838
0.024785
0.0202381
0.0158697
0.012089
0.0089404
0.00653051
0.00457585
0.00316131
0.00176233
0.000747304
-0.335459
-0.335658
-0.348012
-0.364301
-0.385376
-0.409115
-0.431413
-0.445828
-0.447218
-0.425185
-0.369571
-0.285512
-0.192356
-0.109312
-0.0468857
-0.00637077
0.0162521
0.0265029
0.0291196
0.0275204
0.0238983
0.0196414
0.0154665
0.0118144
0.00875146
0.00639763
0.00448325
0.003096
0.00172623
0.00072653
-0.332926
-0.333419
-0.34515
-0.360534
-0.38075
-0.403841
-0.425865
-0.440974
-0.442966
-0.422816
-0.370303
-0.289348
-0.198149
-0.115665
-0.0527497
-0.0112269
0.0125097
0.0237524
0.0271561
0.0261539
0.0229619
0.0190039
0.0150327
0.0115178
0.00854738
0.00625459
0.00438469
0.00302707
0.00168856
0.00070565
-0.320772
-0.330503
-0.343315
-0.358264
-0.377999
-0.400643
-0.422315
-0.436831
-0.438568
-0.418414
-0.366845
-0.287788
-0.19884
-0.118233
-0.0563574
-0.0150336
0.00906826
0.0209249
0.0249841
0.0245559
0.0218172
0.0181953
0.0144659
0.0111205
0.00827066
0.00605976
0.00425277
0.00293622
0.00164022
0.000679983
-0.316965
-0.328437
-0.341153
-0.355376
-0.374149
-0.395486
-0.415498
-0.428318
-0.428393
-0.40753
-0.35753
-0.282114
-0.197453
-0.120375
-0.0605662
-0.0199158
0.00445212
0.017025
0.0219101
0.0222403
0.0201277
0.0169898
0.013621
0.0105356
0.00787104
0.00578571
0.00406993
0.00281219
0.00157417
0.000645585
-0.314412
-0.325525
-0.337685
-0.351339
-0.369049
-0.388802
-0.406872
-0.417665
-0.415884
-0.39442
-0.346409
-0.275201
-0.195313
-0.122096
-0.0645719
-0.0247464
-0.000221525
0.0129969
0.0186754
0.0197632
0.0182946
0.0156667
0.0126858
0.00988474
0.00742547
0.00548067
0.00386668
0.00267519
0.00150094
0.000608667
-0.310964
-0.320913
-0.332179
-0.345358
-0.361984
-0.380065
-0.396091
-0.404899
-0.401464
-0.379709
-0.334031
-0.267386
-0.192588
-0.123479
-0.0684156
-0.0295331
-0.00492664
0.00889529
0.0153508
0.0171963
0.0163809
0.0142759
0.0116965
0.00919226
0.00694899
0.00515337
0.00364831
0.00252836
0.00142242
0.000570166
-0.305249
-0.314498
-0.324716
-0.337361
-0.352874
-0.36922
-0.383172
-0.390109
-0.385287
-0.363589
-0.320572
-0.258788
-0.189321
-0.124503
-0.0720484
-0.0342294
-0.00963066
0.0047394
0.0119456
0.0145424
0.014386
0.0128157
0.0106512
0.00845641
0.00644027
0.00480284
0.00341414
0.00237125
0.00133831
0.000530051
-0.297099
-0.306454
-0.315689
-0.327645
-0.342005
-0.356604
-0.368521
-0.373714
-0.367802
-0.346518
-0.306423
-0.249658
-0.185621
-0.125174
-0.075428
-0.0387813
-0.0142876
0.000560828
0.00847769
0.0118094
0.0123116
0.0112845
0.00954731
0.0076745
0.00589703
0.00442734
0.00316289
0.00220307
0.00124808
0.000488291
-0.287117
-0.297045
-0.305522
-0.316648
-0.329819
-0.34273
-0.352722
-0.356335
-0.349632
-0.329071
-0.292028
-0.240261
-0.181598
-0.125507
-0.0785219
-0.043143
-0.0188549
-0.00360738
0.00496984
0.00901156
0.0101659
0.00968628
0.00838615
0.00684657
0.00531868
0.00402615
0.00289389
0.00202341
0.00115146
0.000444962
-0.275869
-0.286561
-0.294571
-0.304803
-0.316776
-0.328119
-0.336366
-0.338593
-0.331373
-0.311759
-0.277766
-0.230822
-0.177348
-0.12552
-0.0813071
-0.0472775
-0.0232956
-0.007735
0.00144424
0.00616388
0.00795799
0.00802621
0.00717017
0.00597344
0.00470519
0.00359891
0.00260672
0.00183199
0.00104822
0.000400137
-0.263843
-0.275293
-0.283094
-0.292464
-0.303264
-0.313195
-0.319927
-0.320981
-0.313475
-0.294954
-0.26391
-0.221506
-0.172949
-0.12523
-0.08377
-0.0511565
-0.0275789
-0.0117949
-0.00207827
0.00328087
0.0056972
0.00630954
0.00590197
0.00505608
0.00405664
0.00314534
0.00230099
0.00162857
0.000938143
0.000353865
-0.251464
-0.263502
-0.271272
-0.279877
-0.28957
-0.298251
-0.30371
-0.303823
-0.296224
-0.278873
-0.25062
-0.212417
-0.168456
-0.124658
-0.0859044
-0.0547597
-0.0316791
-0.0157627
-0.00557789
0.000376917
0.00339299
0.00454196
0.00458458
0.00409582
0.00337339
0.00266537
0.00197644
0.00141296
0.000821059
0.000306184
-0.23901
-0.251402
-0.259235
-0.267205
-0.275887
-0.283476
-0.287894
-0.287302
-0.279769
-0.263619
-0.237972
-0.203616
-0.16391
-0.123822
-0.0877106
-0.0580731
-0.035575
-0.0196165
-0.00903565
-0.00253346
0.00105541
0.00272982
0.00322159
0.00309447
0.00265614
0.00215917
0.00163297
0.00118509
0.000696843
0.000257127
-0.226657
-0.239174
-0.247094
-0.254557
-0.262349
-0.268994
-0.272588
-0.2715
-0.264161
-0.249214
-0.225984
-0.195132
-0.15934
-0.122743
-0.0891939
-0.0610884
-0.0392496
-0.0233362
-0.0124331
-0.00543551
-0.00130488
0.000880189
0.00181732
0.00205445
0.00190608
0.00162725
0.00127071
0.000945
0.000565454
0.000206729
-0.214539
-0.226976
-0.234954
-0.242018
-0.24905
-0.254893
-0.257842
-0.256439
-0.249399
-0.235642
-0.21465
-0.186979
-0.154771
-0.121441
-0.0903638
-0.0638016
-0.0426892
-0.0269038
-0.0157525
-0.0083141
-0.00367644
-0.000998996
0.000376857
0.000978807
0.00112488
0.0010705
0.000890041
0.000692906
0.000426944
0.000155032
-0.202755
-0.214942
-0.222922
-0.229668
-0.236067
-0.241236
-0.243688
-0.24212
-0.235467
-0.222874
-0.203949
-0.179161
-0.150225
-0.11994
-0.0912332
-0.0662128
-0.045883
-0.0303029
-0.0189762
-0.0111538
-0.00604706
-0.00289886
-0.0010938
-0.000128614
0.000314845
0.000490236
0.000491659
0.000429214
0.000281485
0.000102093
-0.191383
-0.203185
-0.211102
-0.217584
-0.223464
-0.228076
-0.230153
-0.228541
-0.222342
-0.210878
-0.19386
-0.171684
-0.145723
-0.118264
-0.0918183
-0.0683254
-0.0488234
-0.0335188
-0.0220876
-0.0139389
-0.00840373
-0.00480955
-0.00258769
-0.00126313
-0.000521047
-0.000111678
7.66327e-05
0.000154564
0.000129393
4.79919e-05
-0.180488
-0.191805
-0.199592
-0.205843
-0.2113
-0.215461
-0.217265
-0.215701
-0.21
-0.199625
-0.184363
-0.164549
-0.141289
-0.11644
-0.092138
-0.0701462
-0.0515059
-0.0365392
-0.0250708
-0.0166536
-0.0107328
-0.00672021
-0.00409681
-0.00241913
-0.00137905
-0.000732805
-0.000353541
-0.000130131
-2.88556e-05
-7.15962e-06
-0.170122
-0.180884
-0.188483
-0.194521
-0.199633
-0.203435
-0.205048
-0.203598
-0.198424
-0.189089
-0.17544
-0.157762
-0.136944
-0.114494
-0.092214
-0.0716855
-0.053929
-0.0393538
-0.0279111
-0.0192822
-0.0130198
-0.00861903
-0.00561209
-0.00358999
-0.00225455
-0.00137004
-0.000796877
-0.000423643
-0.000192588
-6.32076e-05
-0.160326
-0.170489
-0.177853
-0.183687
-0.188514
-0.192035
-0.193525
-0.192236
-0.187597
-0.179249
-0.167078
-0.151325
-0.132711
-0.112456
-0.0920705
-0.0729565
-0.0560943
-0.0419549
-0.0305949
-0.0218093
-0.0152503
-0.0104933
-0.00712339
-0.00476805
-0.00314205
-0.00201955
-0.00125084
-0.000724379
-0.000360917
-0.000119944
-0.151134
-0.160675
-0.16777
-0.173402
-0.177991
-0.181296
-0.182716
-0.181618
-0.177509
-0.170087
-0.159265
-0.145247
-0.128614
-0.110356
-0.091734
-0.0739757
-0.0580067
-0.0443373
-0.0331105
-0.0242202
-0.017409
-0.0123295
-0.00861953
-0.00594456
-0.00403502
-0.00267668
-0.00171226
-0.00103033
-0.000532706
-0.000177093
-0.14257
-0.151486
-0.158288
-0.163723
-0.16811
-0.171248
-0.17264
-0.171749
-0.168153
-0.161592
-0.151996
-0.139533
-0.124676
-0.108227
-0.0912332
-0.0747623
-0.0596739
-0.0464985
-0.0354479
-0.0265007
-0.0194808
-0.0141135
-0.0100882
-0.00710964
-0.00492592
-0.00333591
-0.00217732
-0.00133904
-0.000706548
-0.0002343
-0.134654
-0.142959
-0.149457
-0.154696
-0.158909
-0.161919
-0.163312
-0.162635
-0.159525
-0.153757
-0.145268
-0.134194
-0.120921
-0.1061
-0.0905987
-0.0753382
-0.0611066
-0.0484386
-0.0375987
-0.0286375
-0.0214505
-0.0158301
-0.0115162
-0.00825222
-0.00580607
-0.00399077
-0.00264143
-0.00164753
-0.00088073
-0.000291114
-0.127401
-0.135121
-0.141314
-0.146363
-0.150424
-0.153335
-0.154749
-0.154284
-0.151626
-0.146579
-0.139081
-0.129243
-0.117375
-0.10401
-0.089863
-0.0757279
-0.062318
-0.05016
-0.0395566
-0.0306182
-0.0233029
-0.0174638
-0.012889
-0.00936006
-0.00666562
-0.00463377
-0.00309919
-0.00195225
-0.00105321
-0.000346977
-0.120826
-0.127999
-0.133893
-0.138762
-0.142688
-0.145522
-0.14697
-0.146706
-0.144462
-0.140061
-0.133445
-0.124696
-0.114066
-0.101989
-0.08906
-0.0759578
-0.0633238
-0.0516675
-0.0413169
-0.0324313
-0.0250226
-0.0189983
-0.0141912
-0.0104196
-0.00749349
-0.00525634
-0.00354435
-0.00224906
-0.00122157
-0.000401208
-0.114944
-0.121614
-0.127227
-0.131925
-0.135733
-0.138507
-0.139994
-0.139917
-0.138043
-0.134214
-0.128371
-0.120573
-0.111021
-0.100074
-0.0882249
-0.0760564
-0.0641419
-0.0529675
-0.0428761
-0.0340659
-0.0265945
-0.0204168
-0.0154064
-0.0114162
-0.00827729
-0.00584875
-0.00396973
-0.00253314
-0.00138303
-0.000452996
-0.109772
-0.115992
-0.121346