/*--------------------------------*- C++ -*----------------------------------*\
  =========                 |
  \\      /  F ield         | OpenFOAM: The Open Source CFD Toolbox
   \\    /   O peration     | Website:  https://openfoam.org
    \\  /    A nd           | Version:  7
     \\/     M anipulation  |
\*---------------------------------------------------------------------------*/
FoamFile
{
    version     2.0;
    format      ascii;
    class       surfaceScalarField;
    location    "175";
    object      phi;
}
// * * * * * * * * * * * * * * * * * * * * * * * * * * * * * * * * * * * * * //

dimensions      [0 3 -1 0 0 0 0];

internalField   nonuniform List<scalar> 
16735
(
-0.000147302
-0.000728579
0.000875881
-0.000497806
-0.000983603
0.00133411
-0.00100936
-0.000387894
0.00089945
-0.00165417
0.000779102
-0.000134296
-0.00241139
0.00229929
-0.00154206
-0.00326063
0.00408119
-0.00323195
-0.00418037
0.00616485
-0.00524511
-0.00515283
0.00867329
-0.00770083
-0.00616733
0.0117533
-0.0107388
0.0155787
-0.014527
-0.007219
-0.000136603
-0.000591976
-0.000458287
-0.000661919
-0.000923265
7.70832e-05
-0.00150468
0.00136051
-0.002182
0.00297661
-0.00293279
0.00483197
-0.0037296
0.00696166
-0.00454419
0.00948788
-0.0053513
0.0125604
0.0163438
-0.00611644
-0.000122996
-0.00046898
-0.000409511
-0.000375404
-0.00081838
0.000485952
-0.00132313
0.00186526
-0.00190269
0.00355618
-0.0025316
0.00546087
-0.00317505
0.00760512
-0.00379191
0.0101047
-0.00434043
0.013109
0.0167562
-0.00475275
-0.000107728
-0.000361252
-0.000355333
-0.000127799
-0.000702047
0.000832666
-0.00112097
0.00228418
-0.00158963
0.00402484
-0.00207886
0.00595011
-0.00254596
0.00807221
-0.00293557
0.0104944
-0.00318935
0.0133627
0.0167737
-0.00320686
-9.209e-05
-0.000269162
-0.000299793
7.99036e-05
-0.000582072
0.00111495
-0.000910574
0.00261268
-0.00126054
0.0043748
-0.00159873
0.0062883
-0.00187467
0.00834816
-0.00201849
0.0106382
-0.00195566
0.0132999
0.0163851
-0.00156707
-7.73402e-05
-0.000191822
-0.000246859
0.000249422
-0.000466262
0.00133435
-0.000704577
0.002851
-0.000933839
0.00460407
-0.00111655
0.00647102
-0.00119527
0.00842687
-0.00108613
0.010529
-0.000688743
0.0129025
0.0156332
6.31189e-05
-6.46132e-05
-0.000127209
-0.000200178
0.000384987
-0.000361933
0.0014961
-0.000515076
0.00300414
-0.000627571
0.00471656
-0.00065755
0.006501
-0.000541366
0.00831068
-0.000188637
0.0101763
0.000531301
0.0121826
0.0144197
0.00174486
-5.48549e-05
-7.23537e-05
-0.000162824
0.000492956
-0.000275382
0.00160866
-0.000352772
0.00308153
-0.000358066
0.00472186
-0.000244985
0.00638791
5.50879e-05
0.00801061
0.000643519
0.00958788
0.00164934
0.0111767
0.0127987
0.0032703
-4.8756e-05
-2.35977e-05
-0.00013706
0.00058126
-0.000211372
0.00168297
-0.000226026
0.00309618
-0.000138478
0.00463431
0.000101324
0.00614811
0.000566008
0.00754593
0.00136289
0.008791
0.00263152
0.00990811
0.0108074
0.00462283
-4.66906e-05
2.30929e-05
-0.000124117
0.000658687
-0.000172609
0.00173147
-0.000139847
0.00306342
2.24223e-05
0.00447204
0.000368877
0.00580166
0.000974578
0.00694023
0.00194977
0.00781581
0.00344175
0.00841614
0.00847464
0.00577451
-4.86675e-05
7.17603e-05
-0.000123998
0.000734017
-0.00015929
0.00176676
-9.51874e-05
0.00299932
0.000122906
0.00425394
0.000554316
0.00537025
0.00127624
0.0062183
0.00240031
0.00669174
0.00407926
0.00673719
0.00581891
0.00673499
-5.42785e-05
0.000126039
-0.000135326
0.000815065
-0.000168715
0.00180015
-8.75379e-05
0.00291814
0.000169211
0.0039972
0.000666753
0.00487271
0.00148573
0.00539932
0.00273974
0.00543773
0.00458983
0.00488711
0.00283805
0.00757069
-6.26779e-05
0.000188717
-0.000155273
0.000907659
-0.000195118
0.00183999
-0.000107578
0.0028306
0.000176639
0.00371298
0.000730035
0.00431931
0.0016408
0.00448856
0.00302884
0.00404968
0.00507743
0.00283852
-0.000499285
0.00841476
-7.25961e-05
0.000261313
-0.000179631
0.00101469
-0.000229721
0.00189008
-0.00013957
0.00274045
0.000169902
0.00340351
0.000782992
0.00370622
0.00180248
0.00346907
0.00336288
0.00248929
0.00569808
0.00050332
-0.00425241
0.0094512
-8.24225e-05
0.000343735
-0.000203093
0.00113537
-0.000261369
0.00194836
-0.000163943
0.00264303
0.000181339
0.00305823
0.00087652
0.00301104
0.00204907
0.00229652
0.00385861
0.000679749
0.0066265
-0.00226457
-0.00848523
0.0108593
-9.03647e-05
0.0004341
-0.00021976
0.00126476
-0.000277575
0.00200617
-0.000158313
0.00252376
0.000247441
0.00265247
0.00106696
0.00219152
0.00246314
0.000900345
0.00463012
-0.00148723
0.00799795
-0.00563241
-0.0132228
0.0127355
-9.46783e-05
0.000528778
-0.000223861
0.00139394
-0.000266044
0.00204836
-0.00010065
0.00235837
0.000403674
0.00214815
0.00140688
0.00118831
0.00311488
-0.000807662
0.00576177
-0.00413412
0.00985622
-0.00972686
-0.0184032
0.0150366
-9.39285e-05
0.000622707
-0.000210557
0.00151057
-0.000216406
0.0020542
2.72399e-05
0.00211472
0.000678726
0.00149666
0.00193551
-6.84714e-05
0.00404739
-0.00291954
0.00728837
-0.0073751
0.0121332
-0.0145717
-0.0238641
0.0175941
-8.72201e-05
0.000709927
-0.000176645
0.0016
-0.00012169
0.00199925
0.00023723
0.0017558
0.00108985
0.000644039
0.00267142
-0.00165004
0.00526785
-0.00551597
0.0091845
-0.0112918
0.014674
-0.0200612
-0.0293901
0.0202001
-7.43296e-05
0.000784257
-0.00012096
0.00164663
2.09938e-05
0.0018573
0.000533993
0.0012428
0.00164026
-0.000462229
0.00360996
-0.00361974
0.0067436
-0.00864961
0.0113475
-0.0158956
0.0173072
-0.026021
-0.0348045
0.0227216
-5.56981e-05
0.000839955
-4.4238e-05
0.00163517
0.000209718
0.00160334
0.000913985
0.000538539
0.00232075
-0.00186899
0.00472525
-0.00602425
0.00841101
-0.0123354
0.01359
-0.0210746
0.019757
-0.032188
-0.0428069
0.0277595
-3.2324e-05
0.000872279
5.06293e-05
0.00155221
0.000440344
0.00121362
0.00136844
-0.000389556
0.00311305
-0.0036136
0.00597703
-0.00888823
0.0101886
-0.016547
0.0157675
-0.0266535
0.022094
-0.0385145
-0.050135
0.0294221
-5.0758e-06
0.000877354
0.000160903
0.00138624
0.000706517
0.00066801
0.00188564
-0.00156868
0.00399398
-0.00572194
0.0073164
-0.0122106
0.0119791
-0.0212097
0.0177673
-0.0324417
0.024007
-0.0447542
-0.0566006
0.0304726
2.48966e-05
0.000852458
0.00028368
0.00112745
0.00100199
-5.03025e-05
0.00245332
-0.00302001
0.00493812
-0.00820673
0.00868962
-0.0159622
0.0136842
-0.0262043
0.0194897
-0.0382472
0.0253847
-0.0506493
-0.062253
0.0310371
5.66635e-05
0.000795794
0.000416457
0.000767659
0.00132147
-0.000955316
0.0030598
-0.00475834
0.00591841
-0.0110653
0.0100393
-0.020083
0.015216
-0.031381
0.0208489
-0.04388
0.0262491
-0.0560495
-0.0671134
0.0311096
9.01869e-05
0.000705607
0.0005579
0.000299946
0.00166093
-0.00205835
0.00369385
-0.00679126
0.00690538
-0.0142769
0.0113064
-0.024484
0.0165033
-0.0365779
0.0218075
-0.0491843
0.0266282
-0.0608702
-0.0712368
0.0307515
0.000125532
0.000580076
0.000707524
-0.000282046
0.00201715
-0.00336797
0.00434342
-0.00911753
0.00786625
-0.0177997
0.0124348
-0.0290526
0.0174983
-0.0416414
0.022364
-0.0540499
0.0265812
-0.0650874
-0.074708
0.0300524
0.000163052
0.000417023
0.000865246
-0.000984239
0.00238667
-0.0048894
0.00499408
-0.0117249
0.00876555
-0.0215712
0.0133778
-0.0336648
0.0181794
-0.046443
0.0225446
-0.0584151
0.0261769
-0.0687196
-0.0776153
0.0290842
0.000203158
0.000213866
0.0010308
-0.00181188
0.00276476
-0.00662335
0.00562814
-0.0145883
0.00956784
-0.0255109
0.0141024
-0.0381993
0.0185481
-0.0508887
0.0223923
-0.0622593
0.0254838
-0.0718112
-0.0800467
0.0279152
0.000246116
-3.22505e-05
0.00120323
-0.002769
0.00314456
-0.00856469
0.00622503
-0.0176688
0.0102417
-0.0295276
0.0145923
-0.0425499
0.0186237
-0.0549201
0.0219569
-0.0655926
0.0245648
-0.0744191
-0.0820802
0.0265983
0.00029192
-0.000324171
0.00138055
-0.00385763
0.00351698
-0.0107011
0.00676303
-0.0209148
0.0107636
-0.0335281
0.0148468
-0.0466331
0.018437
-0.0585104
0.0212894
-0.0684449
0.0234741
-0.0766037
-0.0837823
0.0251762
0.000340248
-0.000664418
0.00155966
-0.00507705
0.00387104
-0.0130125
0.00722174
-0.0242655
0.0111196
-0.037426
0.0148774
-0.0503909
0.0180243
-0.0616572
0.0204371
-0.0708578
0.0222563
-0.0784229
-0.0852065
0.0236806
0.000390437
-0.00105486
0.00173649
-0.0064231
0.00419482
-0.0154708
0.0075845
-0.0276552
0.0113063
-0.0411478
0.0147043
-0.0537888
0.0174228
-0.0643758
0.0194417
-0.0728767
0.0209469
-0.0799281
-0.0863949
0.0221353
0.000441557
-0.00149641
0.00190623
-0.00788778
0.0044767
-0.0180413
0.00784003
-0.0310186
0.0113286
-0.0446364
0.0143521
-0.0568123
0.0166683
-0.066692
0.0183386
-0.074547
0.0195736
-0.0811631
-0.087379
0.0205577
0.000492471
-0.00198888
0.00206375
-0.00945905
0.00470645
-0.020684
0.00798304
-0.0342951
0.011198
-0.0478513
0.0138475
-0.0594618
0.015793
-0.0686375
0.0171567
-0.0759107
0.0181573
-0.0821637
-0.0881819
0.0189602
0.000541912
-0.00253079
0.00220392
-0.0111211
0.00487623
-0.0233563
0.0080138
-0.0374327
0.0109297
-0.0507673
0.0132165
-0.0617486
0.014825
-0.070246
0.0159192
-0.0770049
0.0167138
-0.0829583
-0.0888203
0.0173521
0.000588553
-0.00311935
0.00232204
-0.0128546
0.00498102
-0.0260153
0.00793718
-0.0403889
0.0105415
-0.0533716
0.0124836
-0.0636906
0.013788
-0.0715504
0.0146444
-0.0778614
0.0152549
-0.0835688
-0.0893053
0.01574
0.000631081
-0.00375043
0.00241412
-0.0146376
0.00501881
-0.02862
0.00776136
-0.0431314
0.0100515
-0.0556618
0.0116706
-0.0653097
0.0127016
-0.0725814
0.0133465
-0.0785062
0.0137893
-0.0840116
-0.089645
0.014129
0.000668252
-0.00441868
0.00247712
-0.0164465
0.00499034
-0.0311332
0.00749664
-0.0456377
0.00947733
-0.0576425
0.0107969
-0.0666293
0.0115819
-0.0733664
0.0120364
-0.0789607
0.0123236
-0.0842988
-0.0898443
0.012523
0.000698952
-0.00511763
0.00250912
-0.0182566
0.00489863
-0.0335227
0.00715437
-0.0478935
0.00883537
-0.0593235
0.00987872
-0.0676726
0.0104417
-0.0739294
0.0107224
-0.0792414
0.0108626
-0.084439
-0.0899071
0.0109254
0.000722242
-0.00583988
0.00250931
-0.0200437
0.00474838
-0.0357618
0.00674619
-0.0498913
0.00814049
-0.0607178
0.00892983
-0.0684619
0.009291
-0.0742906
0.00941089
-0.0793613
0.00941024
-0.0844384
-0.0898356
0.00933872
0.000737387
-0.00657726
0.00247794
-0.0217843
0.00454544
-0.0378293
0.00628341
-0.0516292
0.00740581
-0.0618402
0.00796158
-0.0690177
0.00813785
-0.0744668
0.00810673
-0.0793302
0.00796942
-0.0843011
-0.0896307
0.00776457
0.000743878
-0.00732114
0.00241618
-0.0234566
0.00429626
-0.0397093
0.00577666
-0.0531096
0.00664267
-0.0627062
0.00698326
-0.0693583
0.00698843
-0.074472
0.00681367
-0.0791555
0.00654256
-0.08403
-0.0892926
0.00620441
0.000741436
-0.00806258
0.00232593
-0.0250411
0.0040075
-0.0413909
0.00523567
-0.0543378
0.00586079
-0.0633313
0.00600242
-0.0694999
0.00584762
-0.0743172
0.00553448
-0.0788423
0.00513155
-0.083627
-0.0888206
0.00465956
0.000730002
-0.00879258
0.00220964
-0.0265207
0.00368571
-0.042867
0.00466913
-0.0553212
0.00506834
-0.0637305
0.00502522
-0.0694568
0.00471948
-0.0740115
0.0042716
-0.0783944
0.00373729
-0.0830927
-0.0882148
0.00313153
0.000709726
-0.0095023
0.00207008
-0.0278811
0.00333712
-0.044134
0.00408471
-0.0560688
0.00427217
-0.063918
0.00405664
-0.0692413
0.00360762
-0.0735625
0.0030283
-0.0778151
0.00235938
-0.0824238
-0.0874742
0.00161875
0.000680965
-0.0101833
0.0019103
-0.0291104
0.00296756
-0.0451913
0.00348904
-0.0565903
0.0034779
-0.0639068
0.00310057
-0.068864
0.00251472
-0.0729766
0.00180836
-0.0771087
0.00100481
-0.0816203
-0.086543
7.36215e-05
0.000644268
-0.0108275
0.00173359
-0.0301997
0.00258238
-0.0460401
0.00288784
-0.0568958
0.00269014
-0.0637091
0.00216005
-0.0683339
0.0014422
-0.0722588
0.000608755
-0.0762753
-0.000307296
-0.0807042
-0.0855158
-0.00133454
0.000600312
-0.0114278
0.00154296
-0.0311424
0.00218637
-0.0466835
0.00228598
-0.0569954
0.00191266
-0.0633358
0.00123758
-0.0676588
0.000390055
-0.0714112
-0.000565103
-0.0753201
-0.00161996
-0.0796494
-0.0843806
-0.00275515
0.000549885
-0.0119777
0.00134131
-0.0319338
0.00178383
-0.047126
0.00168755
-0.0568991
0.00114843
-0.0627967
0.000334485
-0.0668448
-0.000634292
-0.0704425
-0.00170978
-0.0742447
-0.00289182
-0.0784673
-0.0831169
-0.0041555
0.000493864
-0.0124716
0.00113143
-0.0325713
0.00137857
-0.0473731
0.00109582
-0.0566163
0.000400167
-0.062101
-0.000544726
-0.0659
-0.00163311
-0.0693541
-0.00283009
-0.0730477
-0.00413424
-0.0771632
-0.0817239
-0.00552721
0.000433161
-0.0129048
0.000916045
-0.0330542
0.000973933
-0.047431
0.000513931
-0.0561563
-0.000329981
-0.0612571
-0.00140073
-0.0648292
-0.00260726
-0.0681475
-0.00392223
-0.0717327
-0.00534763
-0.0757378
-0.0802037
-0.00686781
0.000368637
-0.0132734
0.000697733
-0.0333833
0.000573089
-0.0473064
-5.07657e-05
-0.0555325
-0.00103996
-0.0602679
-0.0022337
-0.0636355
-0.00355492
-0.0668263
-0.00498517
-0.0703024
-0.00653052
-0.0741924
-0.078559
-0.00817528
0.000301255
-0.0135747
0.000478521
-0.0335606
0.000183189
-0.0470111
-0.000611976
-0.0547373
-0.00173139
-0.0591485
-0.00304227
-0.0623246
-0.00447517
-0.0653934
-0.00601824
-0.0687594
-0.00768161
-0.0725291
-0.0767934
-0.00944716
0.000232693
-0.0138073
0.000260401
-0.0335883
-0.000209401
-0.0465413
-0.00115321
-0.0537935
-0.00240158
-0.0579001
-0.00382568
-0.0609005
-0.00536736
-0.0638517
-0.00702084
-0.0671059
-0.00879955
-0.0707503
-0.0749132
-0.0106798
0.00016304
-0.0139704
5.64542e-05
-0.0334817
-0.000596776
-0.045888
-0.00168043
-0.0527099
-0.0030499
-0.0565307
-0.00458334
-0.059367
-0.00623096
-0.0622041
-0.00799228
-0.0653446
-0.00988314
-0.0688595
-0.0729229
-0.0118735
8.91017e-05
-0.0140595
-0.000173003
-0.0332196
-0.000970184
-0.0450908
-0.00219042
-0.0514896
-0.00367575
-0.0550453
-0.00531476
-0.057728
-0.00706562
-0.0604533
-0.00893207
-0.0634781
-0.0109324
-0.0668591
-0.070819
-0.0130363
8.01454e-06
-0.0140675
-0.000395897
-0.0328157
-0.00133308
-0.0441537
-0.0026819
-0.0501408
-0.00427836
-0.0534489
-0.00601966
-0.0559867
-0.00787176
-0.0586012
-0.00984132
-0.0615085
-0.0119466
-0.0647539
-0.0685997
-0.0141659
-6.21245e-05
-0.0140054
-0.000607393
-0.0322704
-0.00168375
-0.0430773
-0.00315442
-0.0486702
-0.00485705
-0.0517463
-0.00669756
-0.0541462
-0.00865002
-0.0566487
-0.0107233
-0.0594353
-0.0129209
-0.0625563
-0.0662797
-0.0152408
-0.000134619
-0.0138708
-0.000811147
-0.0315939
-0.00202111
-0.0418673
-0.00360744
-0.0470838
-0.00541122
-0.0499425
-0.00734757
-0.0522099
-0.00939852
-0.0545978
-0.0115763
-0.0572575
-0.0138914
-0.0602412
-0.0640003
-0.0161708
-0.000206484
-0.0136643
-0.00100783
-0.0307925
-0.0023445
-0.0405307
-0.00404042
-0.0453879
-0.00594049
-0.0480424
-0.00796881
-0.0501815
-0.0101127
-0.0524538
-0.0123724
-0.0549978
-0.0147106
-0.057903
-0.06123
-0.017481
-0.00027668
-0.0133876
-0.00119721
-0.029872
-0.0026535
-0.0390744
-0.00445301
-0.0435884
-0.00644471
-0.0460507
-0.00856072
-0.0480655
-0.0107895
-0.050225
-0.0131269
-0.0526604
-0.0155904
-0.0554395
-0.0584728
-0.0183476
-0.000344762
-0.0130428
-0.0013788
-0.028838
-0.00294776
-0.0375054
-0.00484493
-0.0416912
-0.00692361
-0.043972
-0.00912318
-0.045866
-0.011435
-0.0479132
-0.0138635
-0.0502319
-0.0164425
-0.0528605
-0.0556887
-0.0192266
-0.000410415
-0.0126324
-0.00155215
-0.0276963
-0.00322696
-0.0358306
-0.00521594
-0.0397022
-0.00737682
-0.0418112
-0.00965547
-0.0435873
-0.0120464
-0.0455223
-0.0145594
-0.0477189
-0.0172248
-0.0501951
-0.0528524
-0.0200611
-0.000473375
-0.012159
-0.00171684
-0.0264528
-0.00349084
-0.0340566
-0.00556587
-0.0376272
-0.00780426
-0.0395728
-0.0101579
-0.0412337
-0.0126247
-0.0430555
-0.0152174
-0.0451261
-0.0179604
-0.0474521
-0.0499528
-0.02086
-0.000533406
-0.0116256
-0.00187255
-0.0251136
-0.00373915
-0.03219
-0.0058946
-0.0354718
-0.00820579
-0.0372616
-0.0106302
-0.0388092
-0.0131687
-0.040517
-0.0158354
-0.0424594
-0.0186503
-0.0446373
-0.0469857
-0.0216174
-0.000590294
-0.0110353
-0.00201897
-0.023685
-0.00397172
-0.0302373
-0.00620203
-0.0332414
-0.00858135
-0.0348823
-0.0110723
-0.0363183
-0.0136783
-0.0379111
-0.0164139
-0.0397238
-0.0192968
-0.0417544
-0.043951
-0.0223316
-0.000643854
-0.0103915
-0.00215587
-0.0221729
-0.00418839
-0.0282047
-0.0064881
-0.0309417
-0.00893089
-0.0324395
-0.0114841
-0.033765
-0.0141531
-0.035242
-0.0169529
-0.036924
-0.0199002
-0.0388072
-0.0408505
-0.0230007
-0.000693918
-0.00969757
-0.00228305
-0.0205838
-0.00438905
-0.0260987
-0.00675275
-0.028578
-0.00925435
-0.0299379
-0.0118654
-0.031154
-0.014593
-0.0325144
-0.0174525
-0.0340645
-0.0204602
-0.0357995
-0.0376873
-0.0236233
-0.000740344
-0.00895722
-0.00240034
-0.0189238
-0.00457361
-0.0239255
-0.00699597
-0.0261557
-0.00955168
-0.0273822
-0.0122161
-0.0284896
-0.0149978
-0.0297326
-0.0179125
-0.0311498
-0.0209763
-0.0327357
-0.0344655
-0.0241982
-0.000783007
-0.00817422
-0.0025076
-0.0171992
-0.00474199
-0.0216911
-0.00721771
-0.02368
-0.00982285
-0.024777
-0.0125361
-0.0257763
-0.0153674
-0.0269013
-0.0183327
-0.0281846
-0.0214482
-0.0296202
-0.0311895
-0.0247243
-0.000821799
-0.00735242
-0.00260472
-0.0154163
-0.00489413
-0.0194017
-0.00741798
-0.0211561
-0.0100678
-0.0221272
-0.0128254
-0.0230187
-0.0157016
-0.0240251
-0.0187128
-0.0251734
-0.0218754
-0.0264576
-0.0278642
-0.0252008
-0.000856628
-0.00649579
-0.0026916
-0.0135813
-0.00503001
-0.0170633
-0.00759675
-0.0185894
-0.0102866
-0.0194373
-0.0130838
-0.0202215
-0.0160003
-0.0211086
-0.0190527
-0.022121
-0.0222574
-0.0232528
-0.0244945
-0.025627
-0.000887418
-0.00560837
-0.00276817
-0.0117006
-0.00514959
-0.0146819
-0.00775403
-0.0159849
-0.0104791
-0.0167123
-0.0133113
-0.0173894
-0.0162633
-0.0181566
-0.019352
-0.0190322
-0.022594
-0.0200108
-0.0210859
-0.0260026
-0.000914101
-0.00469427
-0.00283436
-0.00978029
-0.00525285
-0.0122634
-0.0078898
-0.013348
-0.0106453
-0.0139568
-0.0135078
-0.0145269
-0.0164905
-0.0151738
-0.0196107
-0.0159121
-0.0228848
-0.0167367
-0.0176437
-0.0263271
-0.000936625
-0.00375765
-0.00289013
-0.00782679
-0.00533977
-0.00981372
-0.00800409
-0.0106837
-0.0107853
-0.0111756
-0.0136733
-0.0116389
-0.016682
-0.0121651
-0.0198286
-0.0127654
-0.0231297
-0.0134356
-0.0141732
-0.0266002
-0.000954944
-0.0028027
-0.00293542
-0.00584632
-0.00541034
-0.0073388
-0.00809687
-0.00799715
-0.0108989
-0.0083736
-0.0138077
-0.00873011
-0.0168375
-0.00913533
-0.0200056
-0.00959727
-0.0233287
-0.0101126
-0.0106799
-0.026822
-0.000969025
-0.00183368
-0.00297022
-0.00384512
-0.00546456
-0.00484446
-0.00816817
-0.00529354
-0.0109863
-0.0055555
-0.013911
-0.00580536
-0.016957
-0.00608934
-0.0201417
-0.0064126
-0.0234815
-0.00677274
-0.00716911
-0.0269923
-0.000978841
-0.000854837
-0.0029945
-0.00182946
-0.00550242
-0.00233654
-0.00821799
-0.00257796
-0.0110473
-0.00272616
-0.0139833
-0.00286942
-0.0170406
-0.00303204
-0.0202367
-0.00321643
-0.0235882
-0.00342126
-0.00364627
-0.0271111
-0.000984376
0.000129539
-0.00300826
0.000194423
-0.00552392
0.000179126
-0.00824634
0.000144457
-0.0110821
0.00010961
-0.0140244
7.28766e-05
-0.0170881
3.16787e-05
-0.0202908
-1.37727e-05
-0.0236488
-6.3255e-05
-0.000116641
-0.0271784
-0.000985622
0.00111516
-0.00301147
0.00222027
-0.00552907
0.00269673
-0.00825322
0.00286861
-0.0110906
0.00294699
-0.0140345
0.00301673
-0.0170997
0.0030969
-0.0203038
0.00319032
-0.0236632
0.00329613
0.00341396
-0.0271938
-0.000982578
0.00209774
-0.00300416
0.00424185
-0.00551788
0.00521045
-0.00823865
0.00558938
-0.0110728
0.00578115
-0.0140134
0.00595732
-0.0170752
0.00615872
-0.0202758
0.00639086
-0.0236315
0.00665181
0.00694073
-0.0271582
-0.000975251
0.00307299
-0.00298632
0.00625292
-0.00549035
0.00771448
-0.00820264
0.00830167
-0.0110288
0.00860729
-0.0139613
0.00888983
-0.0170148
0.00921225
-0.0202068
0.00958282
-0.0235536
0.00999867
0.0104581
-0.027071
-0.000963658
0.00403665
-0.00295798
0.00824725
-0.0054465
0.010203
-0.0081452
0.0110004
-0.0109585
0.0114206
-0.0138781
0.0118095
-0.0169185
0.0122526
-0.0200968
0.0127612
-0.0234297
0.0133315
0.0139607
-0.0269323
-0.000947822
0.00498447
-0.00291916
0.0102186
-0.00538635
0.0126702
-0.00806634
0.0136804
-0.010862
0.0142163
-0.013764
0.0147114
-0.0167862
0.0152748
-0.019946
0.0159209
-0.0232597
0.0166452
0.0174431
-0.026742
-0.000927776
0.00591225
-0.0028699
0.0121607
-0.00530991
0.0151102
-0.00796609
0.0163365
-0.0107393
0.0169895
-0.0136189
0.017591
-0.0166182
0.0182742
-0.0197543
0.019057
-0.0230437
0.0199347
0.0208997
-0.0265004
-0.000903563
0.00681581
-0.00281024
0.0140674
-0.00521722
0.0175172
-0.00784446
0.0189638
-0.0105905
0.0197356
-0.0134429
0.0204433
-0.0164144
0.0212457
-0.019522
0.0221646
-0.022782
0.0231947
0.0243252
-0.0262075
-0.000875234
0.00769104
-0.00274024
0.0159324
-0.0051083
0.0198852
-0.00770147
0.021557
-0.0104156
0.0224497
-0.0132361
0.0232638
-0.0161751
0.0241847
-0.0192491
0.0252387
-0.0224746
0.0264201
0.0277141
-0.0258636
-0.000842852
0.0085339
-0.00265997
0.0177495
-0.0049832
0.0222085
-0.00753716
0.0241109
-0.0102146
0.0251271
-0.0129985
0.0260477
-0.0159003
0.0270865
-0.018936
0.0282744
-0.022122
0.0296061
0.0310612
-0.0254691
-0.000806491
0.00934039
-0.00256949
0.0195125
-0.00484196
0.0244809
-0.00735155
0.0266205
-0.0099876
0.0277631
-0.0127304
0.0287905
-0.0155902
0.0299463
-0.0185828
0.0312671
-0.0217245
0.0327478
0.0343613
-0.0250246
-0.000766238
0.0101066
-0.00246892
0.0212152
-0.00468463
0.0266966
-0.00714468
0.0290806
-0.00973467
0.0303531
-0.0124317
0.0314875
-0.0152449
0.0327595
-0.0181899
0.034212
-0.0212825
0.0358404
0.0376097
-0.0245309
-0.000722194
0.0108288
-0.00235835
0.0228514
-0.00451127
0.0288495
-0.00691658
0.0314859
-0.00945586
0.0328924
-0.0121027
0.0341343
-0.0148648
0.0355216
-0.0177575
0.0371047
-0.0207966
0.0388795
0.0408018
-0.0239888
-0.000674476
0.0115033
-0.00223794
0.0244148
-0.00432198
0.0309336
-0.00666731
0.0338312
-0.00915126
0.0353764
-0.0117434
0.0367265
-0.0144499
0.0382282
-0.0172858
0.0399405
-0.0202674
0.0418612
0.0439339
-0.0233995
-0.000623219
0.0121265
-0.00210783
0.0258994
-0.00411685
0.0329426
-0.00639693
0.0361113
-0.00882093
0.0378004
-0.011354
0.0392596
-0.0140005
0.0408747
-0.0167751
0.0427151
-0.0196954
0.0447815
0.047003
-0.0227645
-0.000568577
0.0126951
-0.00196822
0.0272991
-0.00389601
0.0348704
-0.00610551
0.0383208
-0.00846497
0.0401598
-0.0109347
0.0417293
-0.0135168
0.0434567
-0.0162254
0.0454237
-0.0190809
0.047637
0.0500076
-0.0220854
-0.000510726
0.0132058
-0.00181933
0.0286077
-0.00365961
0.0367107
-0.00579313
0.0404543
-0.00808346
0.0424502
-0.0104857
0.0441316
-0.012999
0.04597
-0.0156366
0.0480613
-0.0184236
0.050424
0.0529488
-0.0213648
-0.000449863
0.0136557
-0.00166144
0.0298192
-0.00340783
0.0384571
-0.0054599
0.0425064
-0.00767649
0.0446667
-0.010007
0.0464621
-0.0124475
0.0484105
-0.015008
0.0506218
-0.0177208
0.0531367
0.0558327
-0.0206048
-0.000386209
0.0140419
-0.00149485
0.0309279
-0.0031409
0.0401031
-0.00510598
0.0444715
-0.00724423
0.046805
-0.00949903
0.0487169
-0.0118637
0.0507751
-0.0143424
0.0531005
-0.0169717
0.055766
0.0586727
-0.0198116
-0.000320011
0.0143619
-0.00131995
0.0319278
-0.00285909
0.0416423
-0.00473155
0.0463439
-0.00678678
0.0488602
-0.00896131
0.0508914
-0.011246
0.0530599
-0.0136356
0.0554901
-0.0161485
0.0582789
0.061497
-0.0189728
-0.000251547
0.0146134
-0.00113715
0.0328134
-0.0025627
0.0430678
-0.00433685
0.0481181
-0.00630457
0.050828
-0.00839476
0.0529816
-0.0105982
0.0552634
-0.0129155
0.0578074
-0.015304
0.0606674
0.0643474
-0.0181545
-0.000181167
0.0147946
-0.000946929
0.0335792
-0.00225208
0.044373
-0.00392215
0.0497881
-0.00579791
0.0527037
-0.00779943
0.0549831
-0.00991266
0.0573766
-0.0121516
0.0600463
-0.014523
0.0630388
0.0666317
-0.0168072
-0.000109444
0.0149041
-0.000749669
0.0342194
-0.00192761
0.0455509
-0.00348778
0.0513483
-0.00526692
0.0544829
-0.00717591
0.0568921
-0.00919273
0.0593934
-0.0113273
0.0621809
-0.0135789
0.0652904
0.0689875
-0.0159347
-3.81453e-05
0.0149422
-0.000545347
0.0347266
-0.00158981
0.0465954
-0.00303425
0.0527927
-0.00471205
0.0561607
-0.00652523
0.0587053
-0.00844395
0.0613121
-0.0104758
0.0642127
-0.0126367
0.0674513
0.0712519
-0.0149011
3.66668e-05
0.0149055
-0.000332616
0.0350959
-0.00123947
0.0475022
-0.00256221
0.0541155
-0.00413398
0.0577324
-0.00584852
0.0604198
-0.00766871
0.0631323
-0.00959959
0.0661436
-0.011658
0.0695097
0.073405
-0.0138111
0.000113652
0.0147919
-0.000104944
0.0353145
-0.000878045
0.0482753
-0.0020721
0.0553095
-0.00353333
0.0591937
-0.00514631
0.0620328
-0.00686634
0.0648524
-0.00869475
0.067972
-0.0106469
0.0714618
0.0754492
-0.0126911
0.000185634
0.0146062
0.000109731
0.0353904
-0.000507572
0.0488926
-0.00156441
0.0563664
-0.00291089
0.0605401
-0.00441898
0.0635409
-0.00603638
0.0664698
-0.00775989
0.0696955
-0.00960321
0.0733051
0.0773883
-0.0115423
0.000254462
0.0143518
0.000316807
0.0353281
-0.000116468
0.0493259
-0.00104094
0.0572909
-0.00226736
0.0617666
-0.00366691
0.0649405
-0.00517918
0.067982
-0.00679548
0.0713118
-0.00852679
0.0750364
0.0792167
-0.0103551
0.000322261
0.0140295
0.000532234
0.0351181
0.000263672
0.0495945
-0.000505772
0.0580603
-0.00160321
0.062864
-0.00289078
0.066228
-0.00429536
0.0693866
-0.00580225
0.0728187
-0.00741881
0.076653
0.0809274
-0.00912953
0.000388425
0.0136411
0.000748366
0.0347581
0.000651377
0.0496915
5.04012e-05
0.0586613
-0.000919412
0.0638338
-0.00209133
0.0673999
-0.0033855
0.0706808
-0.00478076
0.074214
-0.00628051
0.0781528
0.0825166
-0.00786973
0.000451609
0.0131895
0.000963445
0.0342463
0.00104698
0.0496079
0.000606801
0.0591015
-0.000218868
0.0646595
-0.00126931
0.0684504
-0.00245036
0.0718618
-0.00373171
0.0754953
-0.00511323
0.0795343
0.083982
-0.00657864
0.000510935
0.0126786
0.00117523
0.033582
0.00144553
0.0493376
0.00118067
0.0593663
0.000500943
0.0653392
-0.0004265
0.0693778
-0.00149109
0.0729264
-0.00265602
0.0766603
-0.0039186
0.0807969
0.0853216
-0.00525816
0.000565559
0.012113
0.00138123
0.0327663
0.00184413
0.0488747
0.00176299
0.0594475
0.00123718
0.065865
0.000438911
0.0701761
-0.000510078
0.0738754
-0.00155505
0.0777052
-0.00269809
0.0819399
0.0865341
-0.00391062
0.000614616
0.0114984
0.00157886
0.0318021
0.00223949
0.0482141
0.00235092
0.059336
0.00198778
0.0662282
0.00132518
0.0708387
0.000496034
0.0747045
-0.000434374
0.0786357
-0.00145082
0.0829563
0.087623
-0.00253975
0.000657286
0.0108411
0.00176545
0.0306939
0.0026279
0.0473516
0.00294134
0.0590226
0.00275013
0.0664194
0.00222906
0.0713598
0.00152573
0.0754079
0.000716718
0.0794447
-0.000160252
0.0838333
0.0886167
-0.00115391
0.000692837
0.0101483
0.00193827
0.0294485
0.00300527
0.0462846
0.0035303
0.0584976
0.00352131
0.0664284
0.00314897
0.0717321
0.00257379
0.075983
0.00188643
0.080132
0.00111327
0.0846065
0.0894872
0.000242793
0.000720648
0.00942761
0.00209446
0.0280747
0.00336705
0.045012
0.00411315
0.0577515
0.00429771
0.0662438
0.0040824
0.0719474
0.00363946
0.076426
0.00307433
0.0806972
0.00243164
0.0852492
0.09019
0.00172879
0.000740225
0.00868738
0.00223108
0.0265838
0.00370821
0.0435349
0.00468446
0.0567752
0.00507491
0.0658533
0.00502643
0.0719959
0.00472143
0.076731
0.00428239
0.0811362
0.0037679
0.0857637
0.0907611
0.00319677
0.00075124
0.00793614
0.00234509
0.02499
0.00402327
0.0418567
0.00523799
0.0555605
0.00584759
0.0652437
0.00597739
0.0718661
0.00581713
0.0768912
0.00550668
0.0814466
0.00511701
0.0861533
0.0912048
0.0046733
0.000753575
0.00718257
0.00243394
0.0233096
0.0043064
0.0399843
0.00576657
0.0541003
0.00660937
0.0644009
0.00693059
0.0715449
0.00692314
0.0768987
0.00674399
0.0816258
0.00647874
0.0864186
0.0915229
0.00616073
0.000747313
0.00643526
0.00249538
0.0215616
0.00455151
0.0379281
0.00626212
0.0523897
0.00735261
0.0633105
0.0078803
0.0710172
0.00803565
0.0767433
0.00799199
0.0816695
0.00785215
0.0865584
0.0917168
0.00765819
0.000732739
0.00570252
0.00252765
0.0197666
0.00475245
0.0357033
0.00671565
0.0504265
0.00806833
0.0619578
0.00881951
0.070266
0.00915014
0.0764127
0.00924809
0.0815715
0.00923543
0.0865711
0.0917881
0.00916417
0.000710344
0.00499217
0.00252967
0.0179473
0.00490323
0.0333298
0.00711736
0.0482124
0.00874613
0.060329
0.00973973
0.0692724
0.0102609
0.0758915
0.0105088
0.0813236
0.0106262
0.0864537
0.0917366
0.0106777
0.000680823
0.00431135
0.00250119
0.016127
0.00499845
0.0308325
0.00745687
0.0457539
0.00937403
0.0584119
0.0106306
0.0680158
0.0113608
0.0751613
0.0117698
0.0809146
0.0120216
0.0862019
0.0915614
0.0121968
0.000645054
0.0036663
0.00244296
0.0143291
0.00503371
0.0282418
0.00772355
0.0430641
0.00993857
0.0561968
0.0114798
0.0664746
0.0124406
0.0742005
0.0130252
0.08033
0.0134181
0.085809
0.0912612
0.0137183
0.000604065
0.00306223
0.00235671
0.0125764
0.00500614
0.0255924
0.00790701
0.0401632
0.0104249
0.0536789
0.0122726
0.0646269
0.013489
0.0729841
0.0142676
0.0795514
0.0148111
0.0852655
0.0908331
0.0152391
0.000558992
0.00250324
0.00224521
0.0108902
0.0049149
0.0229227
0.00799782
0.0370803
0.0108172
0.0508595
0.012992
0.0624522
0.0144918
0.0714843
0.0154874
0.0785559
0.0161948
0.0845581
0.0902726
0.0167553
0.000511029
0.00199221
0.00211209
0.00928913
0.00476162
0.0202731
0.00798843
0.0338535
0.0110993
0.0477486
0.0136185
0.059933
0.0154318
0.069671
0.0166721
0.0773155
0.0175614
0.0836688
0.0895718
0.0182622
0.00046137
0.00153084
0.00196167
0.00778883
0.00455068
0.0176841
0.00787419
0.03053
0.0112554
0.0443674
0.0141308
0.0570576
0.0162885
0.0675133
0.0178062
0.0757978
0.0189009
0.0825741
0.088719
0.0197537
0.000411167
0.00111967
0.00179873
0.00640127
0.00428918
0.0151937
0.00765455
0.0271646
0.0112718
0.0407501
0.0145062
0.0538232
0.0170377
0.0649819
0.0188696
0.0739659
0.0201996
0.0812441
0.0876971
0.0212215
0.000361502
0.000758171
0.00162826
0.00513451
0.00398664
0.0128353
0.00733408
0.0238172
0.0111383
0.0369459
0.0147217
0.0502398
0.0176519
0.0620517
0.019838
0.0717797
0.0214399
0.0796422
0.0864821
0.0226548
0.000313382
0.000444789
0.00145523
0.00399266
0.00365446
0.0106361
0.00692307
0.0205486
0.0108503
0.0330187
0.014756
0.0463342
0.018101
0.0587066
0.0206816
0.0691991
0.0225985
0.0777254
0.0850423
0.0240383
0.000267768
0.000177021
0.00128453
0.00297591
0.00330519
0.00861538
0.0064376
0.0174162
0.0104114
0.0290449
0.0145921
0.0421535
0.0183539
0.0549448
0.0213661
0.0661869
0.0236461
0.0754454
0.0833361
0.0253523
0.000225607
-4.85859e-05
0.00112086
0.00208066
0.00295189
0.00678436
0.00589873
0.0144693
0.00983469
0.0251089
0.0142205
0.0377677
0.0183806