/*--------------------------------*- C++ -*----------------------------------*\
  =========                 |
  \\      /  F ield         | OpenFOAM: The Open Source CFD Toolbox
   \\    /   O peration     | Website:  https://openfoam.org
    \\  /    A nd           | Version:  7
     \\/     M anipulation  |
\*---------------------------------------------------------------------------*/
FoamFile
{
    version     2.0;
    format      ascii;
    class       volVectorField;
    location    "175";
    object      U;
}
// * * * * * * * * * * * * * * * * * * * * * * * * * * * * * * * * * * * * * //

dimensions      [0 1 -1 0 0 0 0];

internalField   nonuniform List<vector> 
8500
(
(-0.00210722 -0.0232375 1.01598e-21)
(-0.0124378 -0.0311895 -2.92213e-21)
(-0.0313871 -0.0163772 -3.41113e-21)
(-0.0535065 0.00974462 3.39132e-21)
(-0.0771691 0.0397236 -3.11176e-21)
(-0.101059 0.0704921 -1.65781e-21)
(-0.124035 0.102147 2.83284e-21)
(-0.145325 0.136043 3.46925e-21)
(-0.164338 0.173405 -5.57171e-22)
(-0.180932 0.215378 1.66797e-21)
(-0.00127533 -0.0191643 -1.12565e-21)
(-0.0107733 -0.0225486 3.47485e-21)
(-0.0288482 -0.0052743 -7.94193e-21)
(-0.0500151 0.0220632 7.1911e-21)
(-0.0725151 0.0524145 3.59928e-22)
(-0.0949901 0.0828879 5.33451e-21)
(-0.116269 0.113698 -9.19974e-21)
(-0.135507 0.146384 -1.33819e-20)
(-0.151899 0.182384 -2.52717e-21)
(-0.164721 0.222924 5.73583e-21)
(-0.000675674 -0.0154204 9.74383e-22)
(-0.00947237 -0.0146835 7.33444e-21)
(-0.0265265 0.00475421 1.73933e-20)
(-0.0464245 0.0331263 -1.57105e-20)
(-0.0672907 0.0637566 -3.44448e-21)
(-0.087726 0.0938728 -3.19699e-21)
(-0.106519 0.123741 1.61344e-20)
(-0.122741 0.155027 1.01818e-20)
(-0.135404 0.189374 2.57443e-21)
(-0.142867 0.22798 -1.76395e-20)
(-0.00028184 -0.0120827 3.43144e-21)
(-0.00852601 -0.00774458 -4.35399e-21)
(-0.0244963 0.0135123 -3.17013e-20)
(-0.0429118 0.0426992 2.88181e-21)
(-0.0617842 0.0734835 8.71176e-21)
(-0.0796717 0.103159 -6.59926e-21)
(-0.0953207 0.131975 -6.50818e-22)
(-0.107715 0.161659 -2.58525e-21)
(-0.115802 0.194052 6.02857e-21)
(-0.116612 0.23025 1.6936e-20)
(-6.37268e-05 -0.00919043 2.33578e-21)
(-0.00791936 -0.00181683 -1.33107e-20)
(-0.0228279 0.0208698 3.22623e-20)
(-0.0396562 0.0506021 -1.44032e-20)
(-0.0562966 0.0813686 -1.00364e-22)
(-0.0712597 0.110489 1.97044e-20)
(-0.0832545 0.138129 -9.14124e-21)
(-0.0911684 0.166002 1.11824e-21)
(-0.0940898 0.19613 -3.68813e-21)
(-0.0873075 0.229616 8.98555e-22)
(6.77702e-06 -0.00674516 2.77704e-20)
(-0.00763824 0.00308163 3.3903e-20)
(-0.0215884 0.0267678 -8.79603e-21)
(-0.0368323 0.0567188 1.65554e-20)
(-0.0511285 0.0872362 4.97154e-21)
(-0.0629308 0.115641 -7.41898e-21)
(-0.0709216 0.141962 -2.77178e-21)
(-0.0738758 0.167812 -1.14771e-20)
(-0.071214 0.195308 2.4755e-21)
(-0.0563612 0.226281 -1.48701e-20)
(-4.91613e-05 -0.00471354 -2.67119e-20)
(-0.00767508 0.0069971 -1.75669e-20)
(-0.0208415 0.0312201 1.39831e-20)
(-0.0346017 0.061004 -2.39901e-20)
(-0.046563 0.090972 2.46127e-21)
(-0.0551095 0.118444 2.7476e-20)
(-0.0589128 0.143271 -4.88005e-21)
(-0.0566321 0.166919 3.16312e-20)
(-0.0479167 0.191363 -9.65061e-22)
(-0.0248648 0.219711 -1.22578e-20)
(-0.000221599 -0.00303281 2.17075e-20)
(-0.00803337 0.0100324 -3.93042e-20)
(-0.0206463 0.0343098 -1.55377e-20)
(-0.0331032 0.0634868 1.85015e-20)
(-0.0428447 0.0925342 3.23338e-22)
(-0.0481714 0.11879 -5.11295e-20)
(-0.047748 0.141912 -2.70491e-21)
(-0.0401962 0.163159 -2.43606e-20)
(-0.025315 0.184245 -3.0834e-20)
(0.00626051 0.20915 1.77549e-20)
(-0.000514367 -0.00161841 -1.21236e-20)
(-0.00872975 0.0123355 5.89978e-21)
(-0.0210534 0.0361824 1.4307e-20)
(-0.0324393 0.0642717 -1.22028e-20)
(-0.0401538 0.0919637 -4.3521e-20)
(-0.0424073 0.116658 1.50594e-20)
(-0.0378555 0.137819 2.31888e-21)
(-0.0250876 0.156439 3.58589e-20)
(-0.0042747 0.173971 4.60271e-20)
(0.0360209 0.194615 -2.0478e-20)
(-0.000945508 -0.000372852 1.85239e-20)
(-0.00979223 0.0140844 1.6795e-20)
(-0.0220973 0.037033 -2.44043e-21)
(-0.0326594 0.0635344 6.16712e-20)
(-0.0385739 0.0893941 2.60676e-20)
(-0.0379615 0.112133 1.92699e-20)
(-0.0294738 0.131036 2.64357e-20)
(-0.0116249 0.146822 -1.18375e-20)
(0.014789 0.160512 -1.522e-20)
(0.0640242 0.176149 -2.38252e-20)
(-0.00154515 0.000803704 -2.01453e-21)
(-0.0112541 0.0154699 -2.62141e-20)
(-0.0237851 0.0370909 -1.87671e-20)
(-0.0337376 0.0615137 -3.0086e-20)
(-0.0380557 0.0850531 -2.34432e-20)
(-0.034773 0.105409 2.3269e-20)
(-0.0225357 0.121747 -2.1839e-20)
(0.000281735 0.134536 -1.49117e-20)
(0.0320134 0.144118 1.87527e-21)
(0.0909192 0.15391 6.63612e-21)
(-0.00235042 0.00200277 -4.97531e-20)
(-0.0131428 0.016676 2.387e-20)
(-0.0260796 0.0366008 1.73342e-20)
(-0.0355485 0.0584966 1.13663e-20)
(-0.0383757 0.0792545 -2.03381e-20)
(-0.0325041 0.0968167 -1.70455e-20)
(-0.0165523 0.110305 2.42185e-20)
(0.0113521 0.120023 -1.91874e-20)
(0.0484173 0.125325 -1.1751e-21)
(0.118858 0.128593 -1.88118e-20)
(-0.00339819 0.00329716 4.10216e-20)
(-0.0154657 0.0178618 1.65797e-20)
(-0.0288816 0.0358018 1.02506e-21)
(-0.0378434 0.0548019 -2.07549e-20)
(-0.039094 0.0723853 1.69773e-21)
(-0.0304716 0.0868111 2.19043e-20)
(-0.0104969 0.0972434 -6.03289e-21)
(0.0231162 0.103969 -7.0081e-21)
(0.066243 0.104934 -1.56308e-20)
(0.151775 0.101785 2.87892e-20)
(-0.00471568 0.00473125 2.69931e-20)
(-0.0181936 0.0191438 -4.44806e-20)
(-0.0320106 0.0349069 -3.39595e-20)
(-0.0402308 0.0507524 1.47549e-20)
(-0.0395314 0.0648823 2.96256e-20)
(-0.0276037 0.075949 2.42066e-20)
(-0.00274022 0.0832539 -2.52656e-20)
(0.0379704 0.0872739 4.78454e-20)
(0.0890915 0.0839567 -1.4018e-20)
(0.194919 0.076057 -3.28848e-20)
(-0.00631048 0.00631372 -4.10591e-20)
(-0.0212461 0.0205819 2.47338e-20)
(-0.0351948 0.0340806 -1.14462e-20)
(-0.0421675 0.0466461 1.19901e-21)
(-0.0387689 0.0571969 1.21687e-20)
(-0.0224569 0.0648438 -3.84109e-20)
(0.00889901 0.0691308 3.29862e-20)
(0.0589938 0.0709498 -3.15793e-20)
(0.121649 0.0635457 4.92655e-20)
(0.253347 0.0544461 1.7435e-20)
(-0.00816205 0.00801405 8.42479e-21)
(-0.0244824 0.0221703 4.72932e-20)
(-0.0380705 0.033421 -1.16703e-20)
(-0.042975 0.0427259 1.1876e-20)
(-0.0356897 0.0497473 1.33474e-20)
(-0.0133118 0.0541025 -3.95315e-21)
(0.0269456 0.0556903 2.81035e-20)
(0.0894828 0.0559562 1.55502e-21)
(0.168849 0.0449854 -3.11678e-20)
(0.3296 0.0394688 4.127e-20)
(-0.0102164 0.00976398 -2.27928e-20)
(-0.0276995 0.0238353 -4.46056e-20)
(-0.0401958 0.0329461 3.86232e-20)
(-0.0418786 0.0391509 1.91044e-20)
(-0.0290663 0.0428702 -8.77183e-20)
(0.00164954 0.0442581 7.03184e-20)
(0.05392 0.0436811 -6.1878e-20)
(0.13234 0.0430403 1.01663e-21)
(0.234654 0.0298613 -1.32547e-20)
(0.421716 0.0323827 -3.79608e-20)
(-0.0123859 0.0114645 1.94984e-20)
(-0.0306401 0.0254414 -2.56777e-21)
(-0.0410777 0.0325896 -9.47099e-21)
(-0.0380679 0.0359772 -1.2111e-21)
(-0.0176765 0.0367808 -5.4796e-21)
(0.0241227 0.0357084 -2.23472e-20)
(0.0919401 0.0337016 9.13461e-21)
(0.189587 0.0326429 -1.44174e-20)
(0.320729 0.0201412 4.36771e-21)
(0.523001 0.033191 1.12831e-21)
(-0.0145542 0.0129984 -3.97868e-20)
(-0.0330068 0.0268069 -2.80266e-21)
(-0.0402054 0.0322084 4.32746e-21)
(-0.0307653 0.0331559 1.76939e-21)
(-0.000423709 0.0315522 2.86296e-20)
(0.0554811 0.0286724 -8.21691e-20)
(0.14238 0.0261357 5.40278e-20)
(0.262176 0.02497 -3.9856e-20)
(0.425457 0.0177009 3.27232e-20)
(0.62471 0.0402806 3.5224e-20)
(-0.016586 0.0142453 -4.81713e-21)
(-0.0344812 0.0277258 2.22026e-20)
(-0.0370796 0.0316048 -2.77557e-20)
(-0.0192785 0.0305477 -8.65941e-21)
(0.0235627 0.0271344 1.65464e-20)
(0.0966236 0.02322 7.81869e-20)
(0.205634 0.0211494 -1.52735e-20)
(0.349798 0.0203462 7.31043e-21)
(0.543412 0.023063 -3.82429e-20)
(0.721807 0.0475804 1.7388e-20)
(-0.0183389 0.0150985 -1.45208e-20)
(-0.0347408 0.0279974 -1.13238e-20)
(-0.0312377 0.0305655 2.82628e-21)
(-0.00301818 0.0279658 1.08858e-20)
(0.0549028 0.0234196 -3.2066e-20)
(0.14794 0.0193493 -1.28233e-20)
(0.281093 0.018765 -3.96885e-20)
(0.450317 0.0195541 3.95845e-20)
(0.664931 0.0335576 4.1306e-20)
(0.817721 0.0458901 -1.70052e-20)
(-0.0196759 0.0154789 -6.9606e-21)
(-0.0334735 0.0274605 2.83056e-20)
(-0.0222536 0.0288995 -3.15796e-20)
(0.018499 0.0252399 -3.6859e-21)
(0.0939912 0.0203152 -1.48057e-20)
(0.209368 0.017086 3.17164e-20)
(0.367393 0.0190412 4.00604e-20)
(0.559624 0.0233596 -3.78908e-20)
(0.778906 0.0427026 4.00272e-20)
(0.942564 0.0433766 5.54436e-21)
(-0.0204683 0.0153426 -2.02037e-20)
(-0.0303854 0.0260149 -5.7281e-20)
(-0.0097299 0.0264812 5.58692e-20)
(0.0456804 0.0222847 8.01749e-21)
(0.141039 0.0178286 1.1538e-20)
(0.280418 0.0165764 7.16905e-21)
(0.46248 0.0221497 3.08826e-20)
(0.672106 0.0312829 2.22697e-20)
(0.888082 0.0525259 -7.77342e-20)
(1.05075 0.0549939 -3.7628e-20)
(-0.0205983 0.0146852 -6.89796e-20)
(-0.0251903 0.0236373 1.38635e-20)
(0.00670944 0.0232952 -3.16989e-20)
(0.0788824 0.0191495 6.12288e-21)
(0.196098 0.0161299 9.75679e-21)
(0.360167 0.0181151 -6.95268e-20)
(0.563536 0.0283043 3.05626e-20)
(0.782738 0.0424501 -2.00569e-20)
(0.9883 0.0648192 2.08789e-20)
(1.13581 0.0685229 -7.31649e-21)
(-0.0199628 0.0135404 2.50318e-20)
(-0.0176053 0.0203885 2.71502e-20)
(0.0274334 0.019455 -1.61697e-21)
(0.118413 0.0160483 -8.63874e-21)
(0.259022 0.0155727 2.28394e-22)
(0.44718 0.0220882 4.84559e-22)
(0.667084 0.0375575 -4.63019e-20)
(0.887268 0.0561258 6.1707e-21)
(1.0757 0.0786557 5.65012e-20)
(1.20404 0.082709 2.51798e-20)
(-0.0184665 0.0119675 -1.70264e-20)
(-0.00735376 0.0164113 -1.25402e-20)
(0.0528014 0.0152058 5.41516e-20)
(0.1645 0.0133624 1.38401e-21)
(0.329375 0.0166621 -2.26759e-20)
(0.539443 0.0288512 6.01593e-20)
(0.769402 0.0497069 1.31445e-20)
(0.982325 0.0715908 8.40131e-22)
(1.14926 0.0933142 -2.48454e-20)
(1.25538 0.096894 -3.2162e-20)
(-0.0160111 0.010045 3.58769e-20)
(0.00583452 0.0119218 -9.90154e-21)
(0.083139 0.0109099 -5.93819e-21)
(0.217222 0.0116128 -2.2538e-20)
(0.406301 0.0199682 3.66691e-20)
(0.634403 0.0385966 -1.77949e-20)
(0.867008 0.0643255 -2.00073e-20)
(1.06584 0.088188 -4.60146e-21)
(1.20889 0.10823 -1.44777e-20)
(1.29313 0.110558 1.54943e-20)
(-0.0124928 0.00786505 -1.31734e-20)
(0.0222177 0.00719157 -7.86908e-20)
(0.118699 0.00702137 8.14871e-21)
(0.27642 0.0114057 2.81674e-20)
(0.488444 0.0260045 2.00792e-20)
(0.729203 0.0512788 -6.65847e-20)
(0.957106 0.0808709 4.24547e-20)
(1.13695 0.105365 -1.90656e-20)
(1.25568 0.12301 2.85132e-20)
(1.31964 0.12367 7.80931e-21)
(-0.00780276 0.00552915 -1.45763e-20)
(0.0420266 0.00253344 2.78746e-20)
(0.159613 0.00405303 3.65304e-20)
(0.341609 0.0133593 -2.60879e-20)
(0.573968 0.0351129 9.67166e-21)
(0.82104 0.0666312 -5.87106e-20)
(1.03781 0.0987922 -1.08072e-20)
(1.19577 0.122707 9.0654e-21)
(1.29119 0.137443 -2.17712e-20)
(1.33736 0.136203 -2.19665e-20)
(-0.00182988 0.00314653 -1.89589e-20)
(0.0654439 -0.00171136 -6.50744e-21)
(0.205842 0.00254261 -6.64297e-20)
(0.411924 0.0180248 -1.04162e-20)
(0.660704 0.0474037 -1.03056e-21)
(0.907503 0.0842477 3.55748e-21)
(1.10816 0.117604 5.90386e-21)
(1.2431 0.13993 -2.87758e-20)
(1.31716 0.15144 5.33959e-22)
(1.34833 0.148268 1.52271e-20)
(0.00553251 0.000834636 -5.00299e-21)
(0.0925806 -0.00518252 2.30818e-20)
(0.257134 0.00301969 3.25301e-20)
(0.486133 0.0258174 2.03468e-20)
(0.746401 0.0627661 -5.95989e-21)
(0.986793 0.103676 -4.99252e-21)
(1.16795 0.136918 4.88707e-20)
(1.28012 0.15687 6.54171e-21)
(1.3353 0.165006 2.16465e-20)
(1.35418 0.159975 -9.20181e-21)
(0.0143767 -0.0012784 4.78353e-20)
(0.123454 -0.00750763 3.07762e-20)
(0.313 0.00597359 -3.12252e-20)
(0.562711 0.0369733 -6.21762e-21)
(0.828971 0.0809297 3.28334e-21)
(1.05777 0.124483 -1.1807e-20)
(1.21758 0.15645 -2.52368e-20)
(1.30819 0.173453 -4.08235e-21)
(1.34714 0.178197 2.66374e-22)
(1.35622 0.171448 1.0025e-20)
(0.0247705 -0.00305333 6.06158e-21)
(0.157966 -0.00831095 -1.68586e-20)
(0.372713 0.0118223 3.9952e-20)
(0.639971 0.0515456 2.59601e-20)
(0.906678 0.101539 8.62844e-22)
(1.11991 0.146293 1.82439e-20)
(1.25776 0.176004 2.64498e-21)
(1.32866 0.189669 -1.90073e-20)
(1.35399 0.191098 1.58737e-20)
(1.35541 0.182793 2.89745e-23)
(0.036749 -0.00434027 -3.97721e-20)
(0.195895 -0.00722338 -1.16947e-20)
(0.43533 0.0208853 -1.05068e-20)
(0.71622 0.0694292 -1.82817e-20)
(0.978224 0.124211 4.36682e-21)
(1.17314 0.168796 8.72829e-23)
(1.28942 0.195459 1.39874e-20)
(1.34276 0.205549 -2.32299e-21)
(1.35691 0.2038 -1.64231e-20)
(1.35245 0.194094 -1.5057e-20)
(0.0503068 -0.00498084 3.25657e-21)
(0.236883 -0.00389632 1.90459e-20)
(0.499745 0.0333647 9.25699e-21)
(0.789895 0.0904036 -2.87415e-20)
(1.04275 0.148575 -1.38407e-21)
(1.21775 0.191745 -1.22677e-20)
(1.31355 0.21475 3.0807e-22)
(1.35161 0.221147 5.62596e-21)
(1.35675 0.216385 -6.16764e-21)
(1.34783 0.205408 1.70843e-20)
(0.0653921 -0.0048123 7.71592e-21)
(0.280444 0.00198146 -1.87376e-20)
(0.564754 0.0493384 -4.41641e-20)
(0.859655 0.114174 4.05875e-20)
(1.0998 0.174286 -3.00395e-21)
(1.25424 0.214951 8.85992e-21)
(1.33111 0.233847 -1.20125e-21)
(1.35613 0.23652 8.3608e-21)
(1.35413 0.228922 -6.53937e-22)
(1.34189 0.216766 -1.32233e-20)
(0.0819042 -0.00367339 -1.57748e-20)
(0.325972 0.010666 2.44991e-20)
(0.629134 0.0687652 2.01299e-20)
(0.92443 0.140405 -2.90424e-20)
(1.1492 0.201035 -4.81796e-21)
(1.28323 0.238267 1.81586e-21)
(1.34299 0.252742 1.80969e-20)
(1.35707 0.251722 8.71681e-22)
(1.34953 0.241453 3.41414e-21)
(1.33484 0.228176 -7.33198e-21)
(0.0996924 -0.00141099 1.19737e-20)
(0.372767 0.0223421 -1.0741e-20)
(0.691708 0.0914993 -9.18228e-21)
(0.983424 0.168741 1.56493e-20)
(1.19103 0.228545 5.36383e-21)
(1.30538 0.261577 4.03069e-21)
(1.34997 0.271435 -1.84644e-20)
(1.35504 0.266792 -6.23451e-21)
(1.34327 0.254003 -5.50282e-21)
(1.32682 0.239624 2.41618e-21)
(0.118558 0.00211258 -6.02816e-21)
(0.420058 0.0371114 -1.36298e-22)
(0.751404 0.117308 1.73876e-20)
(1.0361 0.198825 -6.33975e-21)
(1.22554 0.256567 -2.80744e-21)
(1.32135 0.284787 -1.83473e-21)
(1.35273 0.289924 4.47012e-21)
(1.35051 0.281751 7.61624e-21)
(1.33559 0.26657 -2.46847e-22)
(1.3179 0.251077 2.69775e-21)
(0.138259 0.00701233 4.25522e-21)
(0.467041 0.0549863 -1.19357e-21)
(0.80729 0.14589 -3.12499e-21)
(1.08213 0.230299 -2.82398e-21)
(1.25304 0.284878 2.52494e-21)
(1.33176 0.307815 1.94935e-21)
(1.35183 0.308202 -1.78709e-21)
(1.34381 0.296601 6.3212e-22)
(1.32663 0.279131 8.77745e-22)
(1.30812 0.26249 -1.14751e-21)
(0.158515 0.013374 2.3107e-21)
(0.512907 0.075889 6.54684e-22)
(0.858594 0.176894 -3.9108e-21)
(1.12138 0.262815 -3.10475e-21)
(1.27396 0.313269 3.21455e-21)
(1.33717 0.330581 6.26581e-22)
(1.34771 0.326246 -1.41894e-21)
(1.33521 0.311321 1.32313e-21)
(1.31649 0.291642 7.23251e-22)
(1.29752 0.273803 -8.11079e-22)
(0.179019 0.0212486 -8.98815e-22)
(0.556877 0.0996562 1.83233e-21)
(0.904706 0.209933 1.20959e-20)
(1.15384 0.296029 -5.35754e-21)
(1.28869 0.341546 -2.5848e-21)
(1.3381 0.353005 -2.87741e-21)
(1.34077 0.344017 5.83631e-21)
(1.32489 0.325872 3.84493e-21)
(1.30523 0.304042 3.01196e-21)
(1.2861 0.284951 1.59346e-21)
(0.199443 0.0306487 1.86253e-20)
(0.598228 0.126047 -1.02016e-20)
(0.945175 0.244594 -1.15328e-20)
(1.17961 0.329611 1.56097e-20)
(1.29766 0.369522 8.13509e-21)
(1.33497 0.374999 -5.28247e-22)
(1.33127 0.361461 -9.72462e-21)
(1.31299 0.340191 -6.91183e-21)
(1.2929 0.316252 -7.00713e-21)
(1.27388 0.295859 4.06879e-21)
(0.219449 0.0415464 -2.52246e-20)
(0.636311 0.154751 2.36507e-20)
(0.979691 0.280449 2.71315e-20)
(1.19887 0.363235 -2.65333e-20)
(1.30129 0.397015 -9.07156e-21)
(1.32818 0.396469 5.72188e-21)
(1.31945 0.378505 1.02019e-20)
(1.29959 0.354197 1.56128e-21)
(1.27951 0.328175 -2.32721e-22)
(1.26084 0.306452 -5.45696e-21)
(0.2387 0.053873 -3.65384e-21)
(0.670568 0.185405 -3.33525e-20)
(1.00807 0.317064 -3.55548e-20)
(1.21185 0.396587 3.95185e-20)
(1.29997 0.423843 -4.4588e-21)
(1.31804 0.417309 7.97247e-21)
(1.3055 0.395067 1.502e-21)
(1.28476 0.367801 -4.27094e-21)
(1.26504 0.33971 2.28499e-21)
(1.2469 0.31665 -2.56951e-22)
(0.25687 0.0675206 7.40923e-21)
(0.700539 0.217599 2.07143e-20)
(1.03026 0.354 1.16644e-20)
(1.21884 0.42936 -9.16982e-21)
(1.29406 0.449827 -1.40403e-20)
(1.30484 0.437406 -1.28084e-20)
(1.28957 0.411049 -2.52308e-21)
(1.26855 0.380915 6.49541e-21)
(1.24946 0.350781 -1.36334e-21)
(1.23187 0.326361 3.02069e-21)
(0.273651 0.082345 -2.81039e-20)
(0.725867 0.250892 -2.60758e-20)
(1.04626 0.390825 -4.10673e-21)
(1.22013 0.46126 -4.63539e-21)
(1.28392 0.474784 -1.02929e-20)
(1.28883 0.456634 6.13931e-21)
(1.27179 0.426342 -1.11014e-21)
(1.25102 0.393452 -5.62719e-21)
(1.2328 0.361383 5.07751e-21)
(1.21567 0.335459 -6.90952e-21)
(0.288763 0.0981695 6.66314e-21)
(0.746299 0.284822 2.21031e-20)
(1.05618 0.42711 1.90731e-20)
(1.21604 0.492 2.05515e-20)
(1.26986 0.498535 4.48254e-22)
(1.27022 0.47486 1.72529e-20)
(1.25225 0.440823 1.02843e-21)
(1.23221 0.405294 -1.91256e-20)
(1.21514 0.371513 1.32783e-20)
(1.19876 0.34387 4.75921e-21)
(0.30196 0.114789 1.82436e-20)
(0.76168 0.318921 4.06101e-20)
(1.06018 0.462441 -5.34541e-21)
(1.2069 0.521303 -2.58773e-20)
(1.25221 0.520901 1.15088e-20)
(1.24921 0.491947 -1.1694e-20)
(1.23106 0.454363 -1.50315e-20)
(1.2122 0.416298 -1.04453e-21)
(1.19642 0.380914 -1.07111e-20)
(1.18131 0.351674 3.94022e-21)
(0.313035 0.131975 8.55602e-21)
(0.771943 0.352722 6.3061e-21)
(1.05849 0.496421 5.01723e-20)
(1.19305 0.548903 9.20721e-21)
(1.23124 0.541702 -7.90696e-21)
(1.22599 0.507753 -3.97892e-21)
(1.20836 0.46683 2.27395e-20)
(1.19103 0.426391 1.80339e-20)
(1.17667 0.389445 8.61667e-21)
(1.16319 0.358679 -1.05056e-21)
(0.321825 0.149483 1.77869e-21)
(0.777103 0.385769 -4.14943e-20)
(1.05138 0.528671 -5.89672e-20)
(1.17485 0.574546 1.7111e-21)
(1.20725 0.560764 1.10165e-20)
(1.20075 0.522125 -1.51251e-20)
(1.18426 0.478093 -3.27614e-20)
(1.16874 0.435451 -9.34036e-21)
(1.15601 0.397015 -5.30171e-22)
(1.14436 0.364784 3.47021e-21)
(0.32821 0.167059 -1.4832e-20)
(0.777251 0.417621 3.72531e-20)
(1.03915 0.558838 3.53832e-20)
(1.15264 0.597997 -3.20224e-20)
(1.18048 0.577903 4.90908e-21)
(1.17367 0.534917 3.54914e-20)
(1.15882 0.488023 -7.19647e-21)
(1.14539 0.443362 6.00523e-21)
(1.13449 0.403525 -2.34316e-21)
(1.12486 0.369895 -2.88784e-21)
(0.332114 0.184442 -3.33404e-20)
(0.772555 0.447852 -5.87343e-20)
(1.0222 0.586604 -1.1412e-20)
(1.12674 0.619035 1.84895e-20)
(1.15119 0.592948 1.74479e-20)
(1.14492 0.545974 -3.5046e-20)
(1.13218 0.496491 1.8063e-20)
(1.12108 0.450013 -8.27415e-21)
(1.11218 0.408879 5.84065e-21)
(1.10475 0.373944 4.50688e-22)
(0.333514 0.201371 2.54566e-20)
(0.763258 0.476054 1.84999e-21)
(1.00088 0.611676 -5.65477e-21)
(1.09742 0.637429 -2.25425e-20)
(1.11967 0.605752 1.38863e-20)
(1.11467 0.555147 3.25058e-21)
(1.10445 0.503373 -9.50545e-21)
(1.0959 0.455296 2.27833e-21)
(1.08917 0.41298 -9.71516e-22)
(1.08413 0.376852 -4.77032e-22)
(0.332446 0.217595 -6.90916e-21)
(0.749674 0.501875 -9.50526e-21)
(0.975379 0.633736 2.42243e-20)
(1.06505 0.653006 1.10856e-20)
(1.08624 0.616127 -1.45665e-20)
(1.08311 0.562327 1.85911e-20)
(1.07576 0.508558 1.70938e-21)
(1.06997 0.459113 2.38312e-21)
(1.06553 0.415726 2.84725e-21)
(1.06307 0.378527 5.54696e-22)
(0.328994 0.232862 4.4648e-20)
(0.732113 0.525107 3.42772e-20)
(0.94591 0.652427 -2.6057e-21)
(1.03014 0.665577 -4.95722e-21)
(1.05113 0.623951 -5.77054e-21)
(1.05044 0.567387 -2.60689e-21)
(1.04628 0.511943 2.27496e-21)
(1.04338 0.461378 9.72501e-22)
(1.04135 0.417023 -2.25675e-21)
(1.04164 0.37887 -4.35978e-21)
(0.323237 0.246846 3.4244e-21)
(0.710734 0.545466 5.78801e-21)
(0.913139 0.66773 -3.06102e-20)
(0.993089 0.674896 1.31591e-20)
(1.01462 0.629121 2.36448e-21)
(1.01685 0.570224 -4.52862e-21)
(1.01613 0.513433 1.73565e-21)
(1.01626 0.462014 1.12213e-21)
(1.01676 0.416801 -4.14595e-21)
(1.02007 0.377829 5.44723e-21)
(0.315191 0.259262 -1.69729e-20)
(0.685778 0.562466 -1.21127e-20)
(0.87766 0.679488 9.33466e-21)
(0.954193 0.680901 1.86575e-21)
(0.976959 0.631529 -5.21073e-21)
(0.982519 0.570741 3.81917e-21)
(0.985449 0.512937 2.5515e-21)
(0.988706 0.46093 -1.00013e-20)
(0.992016 0.414992 2.39758e-20)
(0.998982 0.375438 9.53767e-21)
(0.305062 0.269892 -1.28023e-20)
(0.657714 0.575806 3.0717e-20)
(0.839817 0.687481 -1.88603e-20)
(0.913785 0.683522 -3.03635e-21)
(0.938416 0.631089 -2.1156e-21)
(0.947645 0.568857 -1.79986e-21)
(0.954359 0.510371 -8.47722e-21)
(0.960835 0.457994 4.55146e-21)
(0.96751 0.411408 -1.254e-21)
(0.97904 0.371728 -4.4302e-21)
(0.293103 0.2787 -1.2328e-21)
(0.627009 0.585373 -9.21475e-21)
(0.800015 0.691518 4.25565e-21)
(0.872213 0.682679 -1.75096e-21)
(0.899256 0.62774 5.45092e-21)
(0.912413 0.564517 5.05788e-21)
(0.922983 0.505685 1.5981e-20)
(0.932845 0.453107 -1.1927e-20)
(0.943605 0.405695 -2.29331e-20)
(0.959537 0.366061 9.67335e-21)
(0.279456 0.285502 -5.5706e-22)
(0.594117 0.591038 -2.31586e-21)
(0.758676 0.691489 9.48917e-22)
(0.829828 0.678309 6.83755e-21)
(0.859743 0.621437 -1.21549e-20)
(0.87702 0.55769 -2.00304e-20)
(0.891512 0.498875 -6.09082e-21)
(0.905013 0.446383 -1.45388e-21)
(0.920308 0.398048 3.02829e-20)
(0.937688 0.354884 -6.79922e-21)
(0.264337 0.290149 5.27721e-22)
(0.559483 0.592694 -4.10355e-21)
(0.716232 0.687338 3.69162e-22)
(0.78698 0.670376 7.32354e-22)
(0.820146 0.612154 -8.47873e-21)
(0.841684 0.548347 3.7919e-20)
(0.860201 0.489904 -2.6502e-20)
(0.877547 0.437886 3.19375e-20)
(0.896581 0.390258 -2.25427e-20)
(0.913855 0.348502 -2.98317e-20)
(0.24799 0.29253 -1.04652e-21)
(0.523542 0.590268 -9.09706e-22)
(0.673109 0.679045 4.18315e-22)
(0.744018 0.658869 1.33093e-20)
(0.780731 0.59988 -5.41834e-21)
(0.80663 0.536467 8.33436e-21)
(0.829253 0.478724 1.56278e-20)
(0.850463 0.427357 -8.26435e-21)
(0.872728 0.380259 -2.13505e-20)
(0.891084 0.338771 2.97107e-20)
(0.23067 0.292562 1.06783e-20)
(0.486727 0.583721 1.42014e-20)
(0.629728 0.66662 -1.37565e-20)
(0.701284 0.643805 -1.23309e-20)
(0.741766 0.584628 4.34732e-20)
(0.77208 0.522064 -4.44171e-20)
(0.798823 0.465379 5.32998e-20)
(0.82379 0.415016 -1.34905e-20)
(0.849002 0.369 1.44748e-20)
(0.869077 0.328678 2.68442e-20)
(0.21264 0.290193 -3.93292e-21)
(0.449469 0.573053 -1.38417e-20)
(0.586501 0.650105 -8.37692e-21)
(0.65911 0.625228 -4.70263e-21)
(0.703516 0.566431 5.20984e-21)
(0.738254 0.505157 -1.14485e-20)
(0.769081 0.449873 -1.59701e-20)
(0.797685 0.400798 -3.465e-20)
(0.825726 0.356107 3.43684e-20)
(0.847909 0.317149 -1.12497e-20)
(0.194162 0.285399 2.58786e-20)
(0.412192 0.558304 -3.14135e-21)
(0.543829 0.629573 -1.17889e-20)
(0.617825 0.603203 1.5246e-20)
(0.66624 0.545342 -2.7534e-20)
(0.705362 0.485791 7.36042e-20)
(0.740196 0.432255 -3.93001e-20)
(0.772318 0.384785 3.57165e-20)
(0.803123 0.341728 -6.5744e-20)
(0.827616 0.304326 -1.7452e-20)
(0.175499 0.278184 -8.20325e-21)
(0.37531 0.539547 2.75201e-20)
(0.502097 0.605126 6.49492e-21)
(0.577741 0.577825 -1.41735e-20)
(0.630191 0.521436 -2.44781e-20)
(0.673613 0.464025 -9.61592e-22)
(0.712341 0.412574 1.31233e-20)
(0.747851 0.367006 -3.20725e-20)
(0.78135 0.325839 1.59068e-20)
(0.808247 0.290143 2.12347e-21)
(0.15691 0.268579 -4.50251e-20)
(0.339222 0.516893 -1.10825e-20)
(0.461678 0.576893 -3.04934e-21)
(0.539163 0.549208 3.64318e-20)
(0.595613 0.494806 -3.38762e-20)
(0.643207 0.439939 -8.87728e-21)
(0.685687 0.390899 -5.37599e-21)
(0.724445 0.347522 1.00092e-20)
(0.760548 0.308482 -1.26014e-20)
(0.789873 0.274636 -1.97147e-20)
(0.138649 0.256643 3.9808e-20)
(0.304315 0.490484 -2.26468e-20)
(0.422925 0.545032 1.13469e-21)
(0.502379 0.517491 -5.51924e-20)
(0.562738 0.465567 5.99751e-20)
(0.614339 0.413627 -1.90141e-20)
(0.6604 0.367313 1.14127e-20)
(0.702247 0.326398 9.92001e-21)
(0.740841 0.2897 2.88255e-20)
(0.77257 0.257851 -1.17743e-20)
(0.120961 0.242459 -1.62159e-20)
(0.270954 0.460495 4.69499e-20)
(0.386174 0.509728 2.6511e-20)
(0.467661 0.482833 4.34402e-20)
(0.531789 0.43385 -1.01077e-20)
(0.587193 0.3852 4.04466e-21)
(0.63664 0.341909 3.27308e-20)
(0.681396 0.303714 7.2758e-21)
(0.722345 0.269556 6.97973e-22)
(0.756417 0.239856 -1.40521e-20)
(0.104079 0.226133 -3.7243e-20)
(0.239482 0.427129 -2.75078e-21)
(0.351739 0.471189 -1.55535e-20)
(0.435267 0.445415 -6.98463e-20)
(0.502974 0.399805 -6.75742e-20)
(0.561947 0.354785 1.1297e-20)
(0.614557 0.314797 -2.78274e-20)
(0.662023 0.279559 1.77315e-20)
(0.705173 0.248128 9.65194e-21)
(0.741488 0.220728 2.02678e-20)
(0.0882235 0.207796 5.46509e-20)
(0.21022 0.390619 -4.47308e-20)
(0.319911 0.429648 -2.27341e-20)
(0.405434 0.405436 4.03683e-20)
(0.476489 0.3636 4.59259e-20)
(0.538763 0.322524 -1.52024e-20)
(0.594292 0.286098 -1.93914e-21)
(0.644249 0.254037 -5.5215e-20)
(0.689427 0.225503 -3.12571e-20)
(0.727857 0.200557 1.19207e-20)
(0.0735979 0.187596 -3.1078e-20)
(0.183463 0.35122 1.30974e-20)
(0.290956 0.385358 4.81733e-20)
(0.378381 0.363114 -2.15913e-20)
(0.452513 0.325418 1.67852e-21)
(0.517794 0.288572 6.12544e-20)
(0.575973 0.255945 2.84665e-21)
(0.628188 0.227261 5.27895e-20)
(0.675206 0.201781 2.20364e-20)
(0.715594 0.179438 -3.50497e-20)
(0.0603896 0.165704 4.30004e-20)
(0.159479 0.309212 4.74193e-21)
(0.265117 0.338592 3.11164e-21)
(0.354305 0.318682 4.39915e-20)
(0.431209 0.285453 -5.88979e-21)
(0.499177 0.253096 -3.84079e-20)
(0.55972 0.224483 1.88207e-20)
(0.613941 0.199355 -3.007e-20)
(0.662598 0.177071 -1.26002e-20)
(0.704759 0.157472 1.27373e-20)
(0.0487662 0.142306 -2.68206e-20)
(0.138505 0.264896 -5.151e-20)
(0.242608 0.289639 1.18917e-20)
(0.333384 0.272388 -2.33055e-20)
(0.412722 0.243917 -1.41051e-20)
(0.483037 0.216277 3.41434e-20)
(0.545637 0.191866 -8.2643e-21)
(0.601601 0.170452 7.66429e-21)
(0.651684 0.151488 -9.30972e-21)
(0.695411 0.134766 1.84496e-20)
(0.0388747 0.117602 9.6926e-21)
(0.120749 0.218589 3.46714e-20)
(0.223616 0.238805 -4.815e-20)
(0.315771 0.224495 2.27845e-20)
(0.397179 0.201029 -1.0383e-20)
(0.469479 0.178302 -2.92285e-20)
(0.533818 0.158256 2.38472e-20)
(0.591249 0.140692 5.01894e-21)
(0.642535 0.125158 -7.72174e-22)
(0.687598 0.11143 -2.14521e-20)
(0.0308404 0.0918075 3.16875e-21)
(0.106387 0.170625 1.11534e-20)
(0.208299 0.186409 4.35423e-20)
(0.301595 0.175275 -8.34449e-21)
(0.384689 0.157021 -6.5765e-21)
(0.458596 0.139369 2.44074e-21)
(0.52434 0.123823 1.04985e-21)
(0.582955 0.110222 8.89824e-21)
(0.635212 0.0982101 -1.16841e-20)
(0.681363 0.0875767 -7.4361e-21)
(0.0247653 0.0651462 -7.92635e-21)
(0.0955623 0.12135 -1.35753e-20)
(0.196785 0.13278 -3.38147e-20)
(0.290962 0.125009 1.70137e-20)
(0.375338 0.112131 1.38834e-20)
(0.450463 0.0996828 5.88536e-22)
(0.517268 0.0887448 -2.32072e-20)
(0.576775 0.0791958 -1.02911e-20)
(0.629765 0.0707776 8.17821e-21)
(0.676738 0.0633222 8.74094e-21)
(0.020728 0.0378517 1.37527e-21)
(0.0883832 0.0711211 -2.83584e-21)
(0.189172 0.0782577 6.42422e-21)
(0.283952 0.0739859 -4.3529e-21)
(0.369193 0.0666032 -3.82466e-21)
(0.445135 0.0594538 -2.59536e-21)
(0.51265 0.0532015 4.76765e-21)
(0.572753 0.0477692 1.81583e-20)
(0.626232 0.0429984 2.63579e-21)
(0.673751 0.0387808 -4.67139e-21)
(0.0187821 0.0101634 1.70129e-21)
(0.084925 0.0203018 -4.67937e-21)
(0.185528 0.023185 -5.30235e-21)
(0.280621 0.0225005 -3.67869e-21)
(0.3663 0.0206887 3.50208e-21)
(0.442653 0.0188962 1.57991e-21)
(0.510521 0.0173783 -1.57461e-21)
(0.570917 0.016103 -7.16619e-21)
(0.624639 0.0150124 2.35859e-21)
(0.672418 0.0140672 -2.20607e-21)
(0.0189569 -0.0176754 -1.69393e-21)
(0.0852282 -0.0307396 4.6593e-21)
(0.185889 -0.032089 5.28148e-21)
(0.280999 -0.0291496 -5.05409e-21)
(0.366683 -0.0253605 4.44711e-21)
(0.443036 -0.0217731 2.22575e-21)
(0.510897 -0.0185376 -3.55244e-21)
(0.571283 -0.0156398 -4.12423e-21)
(0.624998 -0.0130354 6.0713e-22)
(0.672743 -0.0106895 -1.71525e-21)
(0.021256 -0.0454199 1.85776e-21)
(0.089298 -0.081633 -5.55069e-21)
(0.190259 -0.0872146 1.24006e-20)
(0.285089 -0.0806655 -1.08841e-20)
(0.370346 -0.0712905 -5.19426e-22)
(0.446288 -0.062336 -7.24102e-21)
(0.513781 -0.0543583 1.17566e-20)
(0.573854 -0.0472963 1.59747e-20)
(0.627314 -0.0410033 2.84736e-21)
(0.674741 -0.0353747 -6.1315e-21)
(0.0256582 -0.0728263 -1.58289e-21)
(0.0971049 -0.132009 -1.1686e-20)
(0.198611 -0.141843 -2.71962e-20)
(0.292869 -0.131749 2.35269e-20)
(0.37727 -0.116848 4.83451e-21)
(0.452391 -0.102575 4.28648e-21)
(0.519159 -0.0898964 -2.10908e-20)
(0.578616 -0.0787044 -1.24501e-20)
(0.631572 -0.0687512 -2.7794e-21)
(0.678395 -0.0598795 1.89273e-20)
(0.0321172 -0.0996537 -5.5749e-21)
(0.108585 -0.181503 7.04263e-21)
(0.210889 -0.195628 4.91639e-20)
(0.304291 -0.182104 -4.42874e-21)
(0.387415 -0.161782 -1.26266e-20)
(0.461313 -0.142275 9.03565e-21)
(0.527001 -0.124966 6.63354e-22)
(0.585543 -0.109702 3.17425e-21)
(0.637749 -0.0961357 -6.96962e-21)
(0.68369 -0.084078 -1.83919e-20)
(0.0405622 -0.125667 -3.75205e-21)
(0.123639 -0.229757 2.04232e-20)
(0.227002 -0.24823 -4.93786e-20)
(0.319281 -0.231441 2.13429e-20)
(0.400719 -0.205846 2.10042e-22)
(0.473 -0.181224 -2.70466e-20)
(0.537262 -0.159384 1.19675e-20)
(0.594593 -0.140132 -1.12726e-21)
(0.645808 -0.123018 4.53568e-21)
(0.690602 -0.107852 -1.31663e-21)
(0.0508983 -0.150639 -4.28856e-20)
(0.142135 -0.27642 -5.13056e-20)
(0.246833 -0.299316 1.34881e-20)
(0.337743 -0.279475 -2.44521e-20)
(0.417102 -0.248799 -6.86645e-21)
(0.487384 -0.219215 1.0318e-20)
(0.549882 -0.192973 3.81416e-21)
(0.605713 -0.169838 1.40888e-20)
(0.655702 -0.149262 -3.03054e-21)
(0.699099 -0.131086 1.63834e-20)
(0.0630075 -0.174352 4.09967e-20)
(0.163908 -0.321156 2.63559e-20)
(0.270233 -0.348565 -1.98512e-20)
(0.359553 -0.32593 3.33927e-20)
(0.436461 -0.290407 -2.78705e-21)
(0.504376 -0.256048 -3.60582e-20)
(0.564785 -0.22556 6.3122e-21)
(0.618838 -0.198673 -3.82913e-20)
(0.667371 -0.174737 1.52778e-21)
(0.70914 -0.153665 1.38388e-20)
(0.0767496 -0.196601 -3.01908e-20)
(0.18876 -0.363643 5.41125e-20)
(0.297023 -0.395669 2.1215e-20)
(0.384565 -0.370543 -2.63985e-20)
(0.458675 -0.330447 3.17038e-22)
(0.523874 -0.291531 6.63244e-20)
(0.581884 -0.256979 2.94722e-21)
(0.633887 -0.226492 2.93129e-20)
(0.680746 -0.199317 3.56502e-20)
(0.720678 -0.175476 -1.99561e-20)
(0.0919635 -0.217195 1.69142e-20)
(0.216463 -0.403575 -8.11986e-21)
(0.326999 -0.440331 -1.91887e-20)
(0.412609 -0.413061 1.42386e-20)
(0.483604 -0.368705 5.53074e-20)
(0.545759 -0.325481 -1.95376e-20)
(0.601074 -0.287073 -3.24706e-21)
(0.650772 -0.253161 -4.21469e-20)