/*--------------------------------*- C++ -*----------------------------------*\
  =========                 |
  \\      /  F ield         | OpenFOAM: The Open Source CFD Toolbox
   \\    /   O peration     | Website:  https://openfoam.org
    \\  /    A nd           | Version:  7
     \\/     M anipulation  |
\*---------------------------------------------------------------------------*/
FoamFile
{
    version     2.0;
    format      ascii;
    class       volScalarField;
    location    "220";
    object      p;
}
// * * * * * * * * * * * * * * * * * * * * * * * * * * * * * * * * * * * * * //

dimensions      [0 2 -2 0 0 0 0];

internalField   nonuniform List<scalar> 
2125
(
-0.412712
-0.41376
-0.414098
-0.414802
-0.416445
-0.419389
-0.4239
-0.430343
-0.43907
-0.450545
-0.41621
-0.416506
-0.416555
-0.41708
-0.418685
-0.421794
-0.426738
-0.433964
-0.443976
-0.457132
-0.419499
-0.419052
-0.418802
-0.419106
-0.42061
-0.42379
-0.429037
-0.436857
-0.4479
-0.462252
-0.422465
-0.421317
-0.420743
-0.420794
-0.422114
-0.425255
-0.430652
-0.438852
-0.450603
-0.465938
-0.425029
-0.423241
-0.422331
-0.422071
-0.423122
-0.426097
-0.431479
-0.439838
-0.45201
-0.467801
-0.427136
-0.424788
-0.423535
-0.422909
-0.423595
-0.426268
-0.43146
-0.439752
-0.452098
-0.467825
-0.428762
-0.425948
-0.42435
-0.423308
-0.42353
-0.425759
-0.430586
-0.438585
-0.450897
-0.466123
-0.429911
-0.426741
-0.4248
-0.423296
-0.42296
-0.424607
-0.428902
-0.436391
-0.448503
-0.462837
-0.430612
-0.427206
-0.424934
-0.422929
-0.421948
-0.422886
-0.4265
-0.43328
-0.445081
-0.458157
-0.430922
-0.427402
-0.424816
-0.422283
-0.420588
-0.420708
-0.423519
-0.429416
-0.440856
-0.452314
-0.430919
-0.427404
-0.424527
-0.421452
-0.418995
-0.418219
-0.420137
-0.425009
-0.436116
-0.445582
-0.430703
-0.427299
-0.424158
-0.420541
-0.417301
-0.415584
-0.416564
-0.420313
-0.431196
-0.438284
-0.430391
-0.427187
-0.423806
-0.419662
-0.415649
-0.41299
-0.413031
-0.415618
-0.426446
-0.430806
-0.43012
-0.427175
-0.423578
-0.418936
-0.414188
-0.410632
-0.409776
-0.41124
-0.422161
-0.423692
-0.430041
-0.427381
-0.423586
-0.418487
-0.413072
-0.408708
-0.407027
-0.40751
-0.418484
-0.417524
-0.430316
-0.427927
-0.423946
-0.418444
-0.412456
-0.407408
-0.404988
-0.40475
-0.415353
-0.412795
-0.431108
-0.428941
-0.424778
-0.418932
-0.412484
-0.406902
-0.403828
-0.403216
-0.412569
-0.409537
-0.432576
-0.430539
-0.426193
-0.420067
-0.413277
-0.407314
-0.403665
-0.40299
-0.409972
-0.407207
-0.434863
-0.432822
-0.428287
-0.42194
-0.414915
-0.408703
-0.404551
-0.403916
-0.407601
-0.405612
-0.438071
-0.435873
-0.431131
-0.424603
-0.417426
-0.411043
-0.406436
-0.40558
-0.405714
-0.406495
-0.442276
-0.439741
-0.434763
-0.428071
-0.420784
-0.41424
-0.409161
-0.407466
-0.404601
-0.4106
-0.447519
-0.444445
-0.439187
-0.432319
-0.42492
-0.418153
-0.412488
-0.40936
-0.404295
-0.405288
-0.453778
-0.450001
-0.444387
-0.437304
-0.429744
-0.422628
-0.416155
-0.411214
-0.403536
-0.399091
-0.456397
-0.450344
-0.44298
-0.435163
-0.427522
-0.419965
-0.412863
-0.402304
-0.393233
-0.457039
-0.449311
-0.441097
-0.432712
-0.423759
-0.414154
-0.400632
-0.387423
-0.464469
-0.456276
-0.447484
-0.438093
-0.427384
-0.414994
-0.39847
-0.381816
-0.463861
-0.454276
-0.443562
-0.430706
-0.415311
-0.395865
-0.376242
-0.461421
-0.449005
-0.433604
-0.415076
-0.392837
-0.370668
-0.435981
-0.414272
-0.389416
-0.365019
-0.412893
-0.38561
-0.359243
-0.381415
-0.353281
-0.476163
-0.514895
-0.55808
-0.573982
-0.535764
-0.441777
-0.339284
-0.263214
-0.227809
-0.234654
-0.244655
-0.225195
-0.177309
-0.131445
-0.106688
-0.0974906
-0.102114
-0.122223
-0.118906
-0.0972717
-0.0873763
-0.0756869
-0.050079
-0.0532642
-0.0600593
-0.0672166
-0.0544984
-0.0463027
-0.0108101
-0.0152847
-0.486651
-0.530145
-0.578305
-0.597014
-0.557393
-0.456988
-0.346068
-0.2622
-0.21874
-0.219483
-0.22549
-0.210582
-0.167651
-0.127475
-0.106758
-0.100296
-0.107624
-0.129552
-0.126361
-0.10057
-0.0884678
-0.0760892
-0.0498607
-0.0524902
-0.0590878
-0.0664026
-0.0545348
-0.0465732
-0.0103631
-0.0152628
-0.495168
-0.542882
-0.594817
-0.616503
-0.57588
-0.469877
-0.351278
-0.260167
-0.209363
-0.204193
-0.206109
-0.195132
-0.157238
-0.123109
-0.106583
-0.103006
-0.113094
-0.136831
-0.133673
-0.103761
-0.0894547
-0.0764422
-0.0496691
-0.0517442
-0.0581594
-0.0655683
-0.0545374
-0.0468509
-0.00997688
-0.0152665
-0.501268
-0.552475
-0.607768
-0.632283
-0.591173
-0.480519
-0.355139
-0.257393
-0.199967
-0.188941
-0.186886
-0.178956
-0.146132
-0.118339
-0.106125
-0.105562
-0.118438
-0.143969
-0.140774
-0.106837
-0.0903356
-0.0767388
-0.0495011
-0.0510306
-0.0572802
-0.0647191
-0.0545062
-0.0471335
-0.00965323
-0.0152955
-0.504982
-0.55885
-0.617061
-0.644303
-0.603267
-0.489006
-0.357864
-0.254163
-0.190806
-0.173915
-0.168168
-0.162196
-0.134418
-0.113161
-0.105348
-0.107906
-0.123571
-0.150882
-0.147604
-0.109791
-0.0911099
-0.0769726
-0.0493532
-0.0503534
-0.0564554
-0.0638604
-0.0544407
-0.0474181
-0.00939404
-0.0153491
-0.506322
-0.56211
-0.622738
-0.652618
-0.612208
-0.495442
-0.359643
-0.250746
-0.182095
-0.159344
-0.15024
-0.145049
-0.122205
-0.107582
-0.10422
-0.109978
-0.128413
-0.157484
-0.154106
-0.112617
-0.091778
-0.0771379
-0.0492217
-0.0497163
-0.0556897
-0.0629976
-0.05434
-0.047701
-0.00920097
-0.0154265
-0.505409
-0.562461
-0.624982
-0.657377
-0.618081
-0.499939
-0.360645
-0.247385
-0.174008
-0.145489
-0.133329
-0.127852
-0.109621
-0.101616
-0.102716
-0.11172
-0.132888
-0.163699
-0.16023
-0.115306
-0.0923409
-0.0772303
-0.0491025
-0.0491222
-0.054987
-0.0621355
-0.0542032
-0.0479777
-0.00907557
-0.0155266
-0.502504
-0.560217
-0.62408
-0.658804
-0.621003
-0.50261
-0.361012
-0.24428
-0.16669
-0.132612
-0.1176
-0.110711
-0.0968255
-0.0952911
-0.100817
-0.113078
-0.136929
-0.16946
-0.165931
-0.117855
-0.0928008
-0.0772461
-0.0489911
-0.0485732
-0.0543505
-0.0612785
-0.0540288
-0.0482434
-0.00901926
-0.0156484
-0.497958
-0.555766
-0.620388
-0.657175
-0.621123
-0.503568
-0.360864
-0.241584
-0.160256
-0.120947
-0.10318
-0.0941896
-0.0840298
-0.0886469
-0.0985089
-0.114005
-0.140479
-0.174707
-0.171173
-0.120256
-0.0931604
-0.0771829
-0.0488827
-0.0480705
-0.0537819
-0.0604303
-0.0538152
-0.0484925
-0.00903331
-0.0157904
-0.492179
-0.549507
-0.614475
-0.652789
-0.61864
-0.50291
-0.360295
-0.239395
-0.154797
-0.110672
-0.0901587
-0.0788699
-0.0714595
-0.0817325
-0.0957861
-0.114457
-0.143493
-0.179394
-0.175925
-0.122504
-0.0934235
-0.0770389
-0.0487723
-0.0476144
-0.0532816
-0.0595937
-0.0535608
-0.048719
-0.0091188
-0.015951
-0.485585
-0.541817
-0.607439
-0.645946
-0.613773
-0.50073
-0.359381
-0.237761
-0.150375
-0.101891
-0.0785925
-0.0651107
-0.0593286
-0.0746083
-0.0926488
-0.114398
-0.145937
-0.183485
-0.180162
-0.124592
-0.0935942
-0.0768136
-0.0486545
-0.0472041
-0.0528486
-0.0587702
-0.0532635
-0.0489162
-0.00927659
-0.0161284
-0.478562
-0.533037
-0.59841
-0.6368
-0.60671
-0.497148
-0.358193
-0.236695
-0.147026
-0.0946375
-0.068499
-0.0530943
-0.0478458
-0.0673438
-0.089102
-0.1138
-0.147788
-0.186959
-0.183866
-0.126516
-0.0936778
-0.0765076
-0.0485239
-0.0468381
-0.0524804
-0.0579603
-0.0529213
-0.0490771
-0.00950734
-0.0163206
-0.471426
-0.523553
-0.584975
-0.625411
-0.597623
-0.492334
-0.356798
-0.236194
-0.144768
-0.0888899
-0.0598653
-0.0428782
-0.0372043
-0.0600112
-0.0851542
-0.112641
-0.149033
-0.189803
-0.187024
-0.12827
-0.0936802
-0.0761221
-0.0483748
-0.0465131
-0.0521734
-0.0571628
-0.0525322
-0.0491942
-0.00981139
-0.0165253
-0.464398
-0.513691
-0.571739
-0.612084
-0.586722
-0.486462
-0.355272
-0.236249
-0.14359
-0.0845803
-0.052646
-0.034397
-0.0275674
-0.0526769
-0.0808149
-0.110904
-0.149673
-0.192013
-0.189625
-0.129845
-0.0936061
-0.0756569
-0.0482002
-0.0462227
-0.0519222
-0.0563754
-0.0520941
-0.0492597
-0.0101888
-0.0167401
-0.457584
-0.503551
-0.557951
-0.597101
-0.57421
-0.479661
-0.353605
-0.236738
-0.143364
-0.0815552
-0.0467383
-0.0274659
-0.0190564
-0.0453952
-0.076093
-0.108577
-0.149716
-0.193592
-0.191665
-0.131223
-0.0934544
-0.07511
-0.0479924
-0.0459576
-0.0517168
-0.0555941
-0.051605
-0.0492655
-0.0106394
-0.0169624
-0.451017
-0.493514
-0.543654
-0.580742
-0.560304
-0.471966
-0.351613
-0.237373
-0.143818
-0.0795834
-0.0419966
-0.02182
-0.0117239
-0.0382041
-0.0709944
-0.10565
-0.149179
-0.194553
-0.193157
-0.132392
-0.0932243
-0.0744852
-0.0477477
-0.0457149
-0.0515441
-0.0548129
-0.0510626
-0.0492032
-0.0111629
-0.0171897
-0.444599
-0.48406
-0.528989
-0.563356
-0.54538
-0.46362
-0.349429
-0.238266
-0.145036
-0.0787052
-0.0384528
-0.0172966
-0.00557938
-0.0311207
-0.0655191
-0.102112
-0.148083
-0.194913
-0.194107
-0.133378
-0.0929488
-0.0738107
-0.0474758
-0.0455108
-0.0514105
-0.0540248
-0.0504648
-0.0490639
-0.0117583
-0.0174177
-0.438203
-0.469644
-0.513642
-0.545051
-0.530005
-0.45566
-0.348424
-0.240812
-0.148108
-0.0796536
-0.0365232
-0.0139825
-0.000723074
-0.0242077
-0.0596554
-0.097959
-0.146443
-0.194635
-0.194385
-0.134243
-0.0927103
-0.0731289
-0.0471902
-0.0453596
-0.0513669
-0.0532314
-0.0498131
-0.0488388
-0.0124199
-0.017638
-0.432073
-0.459239
-0.497088
-0.525229
-0.513788
-0.448047
-0.348692
-0.244994
-0.152867
-0.0822883
-0.0359424
-0.0114865
0.00289758
-0.0177245
-0.0534359
-0.0931351
-0.144359
-0.193595
-0.193777
-0.134874
-0.0924587
-0.0723794
-0.0468412
-0.0451758
-0.0513691
-0.052434
-0.0491193
-0.0485199
-0.013139
-0.017847
-0.427539
-0.448355
-0.481171
-0.504876
-0.494412
-0.434644
-0.341865
-0.242428
-0.152407
-0.0816931
-0.0334639
-0.00753596
0.00684247
-0.0111235
-0.0469044
-0.0878031
-0.141611
-0.19252
-0.193174
-0.134665
-0.0916213
-0.0712567
-0.0462485
-0.0447098
-0.0509242
-0.0514956
-0.0483161
-0.0481066
-0.0139734
-0.0180792
-0.413546
-0.439849
-0.467951
-0.486139
-0.471841
-0.412277
-0.323047
-0.228309
-0.142545
-0.074275
-0.0267345
-0.000293248
0.0152625
0.00214628
-0.0337341
-0.0793175
-0.140609
-0.195962
-0.195871
-0.133618
-0.0895819
-0.0694771
-0.0452586
-0.0436758
-0.0491747
-0.0498158
-0.0467275
-0.0473872
-0.0154091
-0.0184525
-0.405398
-0.425241
-0.444453
-0.454442
-0.43673
-0.380778
-0.299069
-0.212115
-0.132645
-0.0680816
-0.0214362
0.00552206
0.0213763
0.0110841
-0.0226315
-0.0716809
-0.136629
-0.193988
-0.193046
-0.130512
-0.0863354
-0.0665802
-0.0438455
-0.0427724
-0.048536
-0.0492422
-0.0448868
-0.0465585
-0.0167971
-0.0187095
-0.39199
-0.406886
-0.417756
-0.421074
-0.401921
-0.350843
-0.276926
-0.197396
-0.123531
-0.0623734
-0.0167607
0.0107575
0.0276762
0.0199789
-0.0130279
-0.0655582
-0.131653
-0.189331
-0.1881
-0.126605
-0.0827234
-0.0633581
-0.042258
-0.0417957
-0.0480423
-0.0489081
-0.0429048
-0.0455137
-0.0180675
-0.0188951
-0.37545
-0.385956
-0.389949
-0.388131
-0.368439
-0.322131
-0.255573
-0.183169
-0.114737
-0.0570271
-0.0126307
0.0154337
0.0343713
0.0302616
-0.00200336
-0.0587301
-0.12607
-0.183506
-0.181379
-0.121714
-0.078754
-0.0597438
-0.0404167
-0.0407336
-0.0474867
-0.0483559
-0.0406542
-0.0441325
-0.0194037
-0.019028
-0.355756
-0.363355
-0.362203
-0.356453
-0.336727
-0.294987
-0.235342
-0.169658
-0.106377
-0.0520088
-0.00898316
0.0195218
0.0411232
0.0414228
0.0107816
-0.0505142
-0.120038
-0.176156
-0.172555
-0.115764
-0.0744176
-0.0557487
-0.0382927
-0.0395418
-0.0468627
-0.0475854
-0.038116
-0.0423916
-0.0208124
-0.0190939
-0.333923
-0.339925
-0.335211
-0.326564
-0.307141
-0.269635
-0.21631
-0.156849
-0.0984575
-0.047292
-0.00575621
0.0230499
0.0476485
0.0528422
0.0246041
-0.0411429
-0.113499
-0.166882
-0.161586
-0.108734
-0.0697142
-0.0513847
-0.0358505
-0.0381858
-0.0461218
-0.0466263
-0.0352938
-0.0402599
-0.0222328
-0.0190825
-0.311193
-0.316274
-0.309343
-0.298719
-0.2798
-0.246113
-0.198501
-0.144759
-0.0909988
-0.0428889
-0.00290809
0.0260596
0.0536086
0.0639809
0.0385309
-0.0308894
-0.106333
-0.155581
-0.148584
-0.100638
-0.0646473
-0.0466749
-0.033056
-0.0366192
-0.0451868
-0.0454427
-0.0321791
-0.0376767
-0.0236088
-0.0189857
-0.28825
-0.292819
-0.284749
-0.272934
-0.254652
-0.224368
-0.181894
-0.133382
-0.0839987
-0.0388306
-0.000418481
0.0285579
0.0586372
0.0741879
0.0515808
-0.0199574
-0.0983049
-0.14224
-0.133776
-0.0915467
-0.0592249
-0.0416514
-0.0298755
-0.0347818
-0.0439637
-0.0439631
-0.0287614
-0.034586
-0.0248879
-0.0187926
-0.265593
-0.26988
-0.261451
-0.249099
-0.231568
-0.204307
-0.166443
-0.122707
-0.0774457
-0.0351517
0.00170251
0.030509
0.0624065
0.0826281
0.0627072
-0.00869772
-0.0888276
-0.126894
-0.117542
-0.081601
-0.0534608
-0.0363532
-0.0262771
-0.0325991
-0.0423392
-0.042106
-0.0250419
-0.0309617
-0.0260123
-0.0184875
-0.243594
-0.247688
-0.239424
-0.227055
-0.210388
-0.18582
-0.152087
-0.112716
-0.0713258
-0.0318697
0.00341289
0.0318628
0.0646668
0.0883811
0.0710207
0.00245779
-0.0770457
-0.108698
-0.100413
-0.071019
-0.047378
-0.0308214
-0.0222343
-0.0299799
-0.0401805
-0.0397873
-0.021041
-0.0268117
-0.0269111
-0.0180537
-0.222476
-0.226399
-0.218632
-0.206643
-0.190951
-0.168799
-0.138763
-0.103387
-0.0656299
-0.0289776
0.00465828
0.0325785
0.0653116
0.0907722
0.0762092
0.0132346
-0.0624598
-0.0902131
-0.0831103
-0.0600902
-0.0410133
-0.025095
-0.017729
-0.0268162
-0.0373355
-0.036918
-0.016798
-0.0221769
-0.027501
-0.0174749
-0.202377
-0.206128
-0.19905
-0.187724
-0.173102
-0.153138
-0.126414
-0.0946943
-0.0603525
-0.0264532
0.00540901
0.0326295
0.064359
0.0897943
0.0785926
0.023365
-0.0455997
-0.0714341
-0.0663645
-0.0491411
-0.0344178
-0.0192132
-0.0127553
-0.0229836
-0.0336356
-0.0334011
-0.0123716
-0.0171396
-0.0276877
-0.016737
-0.183391
-0.186958
-0.180663
-0.170185
-0.156702
-0.138741
-0.114985
-0.0866117
-0.0554862
-0.0242741
0.00567735
0.0319927
0.0617723
0.0860466
0.0785864
0.0321483
-0.0282571
-0.0534298
-0.0508114
-0.0384838
-0.0276582
-0.0132205
-0.00732518
-0.0183478
-0.0289003
-0.0291296
-0.00783986
-0.0118304
-0.0273683
-0.0158283
-0.165576
-0.168943
-0.163459
-0.153935
-0.141633
-0.125515
-0.104425
-0.0791121
-0.0510159
-0.0224186
0.00550453
0.0306633
0.0580756
0.080354
0.0763517
0.038669
-0.012515
-0.0370936
-0.0368618
-0.0283685
-0.0208184
-0.00716983
-0.00147589
-0.0127801
-0.0229506
-0.023988
-0.00329678
-0.00642418
-0.0264371
-0.0147401
-0.148959
-0.152114
-0.147423
-0.138898
-0.127787
-0.113377
-0.0946882
-0.0721697
-0.0469198
-0.0208631
0.00494766
0.0286716
0.0534556
0.0734288
0.0721002
0.0424532
0.000333898
-0.0229808
-0.0246734
-0.018967
-0.0139988
-0.0011269
0.00472285
-0.00617896
-0.0156348
-0.0178602
0.00115751
-0.00112432
-0.0247979
-0.0134675
-0.133546
-0.136481
-0.132538
-0.125013
-0.115076
-0.10225
-0.0857275
-0.0657593
-0.0431724
-0.0195763
0.0040785
0.0261282
0.0482222
0.0658628
0.0664068
0.0437565
0.00997118
-0.0112097
-0.0142146
-0.0103854
-0.00731323
0.00482389
0.0111587
0.00149965
-0.00688272
-0.0106584
0.00543132
0.00386443
-0.0223811
-0.0120103
-0.119328
-0.12204
-0.118783
-0.112224
-0.103423
-0.0920632
-0.0774994
-0.0598543
-0.0397468
-0.0185166
0.00297661
0.0231988
0.0427243
0.0581688
0.0600008
0.0432326
0.0167667
-0.00163985
-0.0053581
-0.00268508
-0.000880695
0.010574
0.0176635
0.0101791
0.00321546
-0.00237954
0.00946189
0.00836222
-0.0191172
-0.0103733
-0.106281
-0.10877
-0.106131
-0.100485
-0.0927608
-0.0827557
-0.0699625
-0.0544281
-0.0366156
-0.0176367
0.00172934
0.0200694
0.0372572
0.0507402
0.0534765
0.0415254
0.0213007
0.00596681
0.00205632
0.00410542
0.00518757
0.015993
0.0239974
0.0195756
0.0142967
0.00681277
0.0132351
0.0122318
-0.0151226
-0.00857089
-0.0943727
-0.0966461
-0.0945517
-0.0897501
-0.0830338
-0.0742724
-0.0630779
-0.049454
-0.0337516
-0.0168884
0.000426579
0.0169115
0.0320375
0.0438342
0.0472206
0.0391403
0.0241286
0.011876
0.00819216
0.00998853
0.010801
0.0209544
0.02985
0.029097
0.0256107
0.0164747
0.0167696
0.015413
-0.010611
-0.00664035
-0.083566
-0.085633
-0.0840137
-0.0799808
-0.0741933
-0.0665657
-0.05681
-0.0449068
-0.0311288
-0.0162269
-0.000848591
0.0138686
0.0272114
0.0375966
0.0414559
0.0364399
0.0257152
0.0163552
0.013207
0.0149948
0.0158909
0.0253748
0.0349141
0.0378286
0.0359479
0.0257963
0.0201062
0.0179344
-0.00581239
-0.00464369
-0.0738205
-0.0756938
-0.0744833
-0.0711401
-0.0661975
-0.059595
-0.0511277
-0.0407634
-0.0287243
-0.0156154
-0.00202803
0.0110547
0.0228635
0.032094
0.036292
0.0336744
0.0264284
0.019662
0.017248
0.0191765
0.0203986
0.0291991
0.0390036
0.0448086
0.0440685
0.0337708
0.0233134
0.0199021
-0.00103396
-0.00266823
-0.0650964
-0.0667911
-0.0659279
-0.0631952
-0.0590113
-0.0533266
-0.0460042
-0.0370055
-0.0265202
-0.0150267
-0.00306256
0.00854868
0.0190358
0.0273346
0.0317678
0.0310041
0.0265547
0.0220273
0.020452
0.0226005
0.024277
0.0323691
0.0420259
0.0494612
0.0493544
0.0396966
0.0264304
0.0214513
0.00340043
-0.000819012
-0.0573549
-0.0588876
-0.0583166
-0.0561175
-0.0526054
-0.0477334
-0.0414186
-0.0336195
-0.0245052
-0.0144459
-0.00392701
0.00637556
0.0157376
0.0232893
0.0278813
0.0285328
0.0262886
0.0236475
0.0229433
0.025343
0.0275046
0.0348637
0.0439924
0.0517466
0.0519181
0.0434815
0.0293325
0.0226732
0.00718827
0.000804676
-0.050567
-0.0519522
-0.0516233
-0.0498844
-0.0469582
-0.0427961
-0.0373566
-0.0305978
-0.0226752
-0.0138694
-0.00461415
0.00453955
0.0129564
0.0199095
0.0246042
0.0263175
0.0257024
0.0246893
0.0248365
0.027484
0.0300929
0.036722
0.0450381
0.052249
0.0525961
0.0454666
0.0317716
0.0236078
0.0101443
0.00213978
-0.0447068
-0.0459626
-0.0458315
-0.0444803
-0.042055
-0.0385027
-0.033811
-0.0279399
-0.0210343
-0.0133027
-0.00512956
0.00304019
0.0106656
0.0171397
0.0218947
0.0243983
0.0250804
0.0253168
0.0262384
0.0291067
0.0320859
0.0380316
0.0453876
0.0517045
0.0521646
0.0461321
0.0335751
0.024305
0.0122541
0.0031709
-0.0397523
-0.040903
-0.0409297
-0.0398978
-0.0378913
-0.0348505
-0.0307832
-0.0256527
-0.0195946
-0.012761
-0.00549051
0.00185902
0.00883095
0.0149218
0.019706
0.0227865
0.0244496
0.0256531
0.0272439
0.0302954
0.0335544
0.0389057
0.045283
0.0506771
0.0511696
0.0459706
0.0347479
0.0248226
0.0136373
0.00391655
-0.0357051
-0.0367692
-0.036918
-0.0361413
-0.0344731
-0.0318473
-0.0282843
-0.0237511
-0.0183751
-0.0122672
-0.00572347
0.00096762
0.00741431
0.0132022
0.0179928
0.0214836
0.0238652
0.0257971
0.0279361
0.0311317
0.0345853
0.0394565
0.0449389
0.0495197
0.0499941
0.0454029
0.0354136
0.0252031
0.0144673
0.00441449
-0.0325798
-0.0335763
-0.0338145
-0.033231
-0.0318217
-0.0295145
-0.0263366
-0.0222595
-0.0174028
-0.0118488
-0.00585878
0.000331922
0.00637877
0.0119362
0.0167206
0.02049
0.0233739
0.0258273
0.0283868
0.0316893
0.0352666
0.0397797
0.0445268
0.0484524
0.0488997
0.0447326
0.0357212
0.0254715
0.0149179
0.00471519
-0.0304146
-0.0313634
-0.0316606
-0.0312088
-0.0299776
-0.0278901
-0.0249768
-0.0212127
-0.0167116
-0.0115379
-0.00592688
-7.92161e-05
0.00569361
0.0110926
0.0158665
0.0198092
0.0230138
0.0258065
0.0286537
0.0320281
0.0356756
0.0399484
0.0441705
0.0476325
0.0480638
0.0441639
0.0358156
0.0256432
0.0151316
0.00487502
-0.0292682
-0.0301951
-0.030524
-0.0301421
-0.0290045
-0.027033
-0.0242579
-0.020658
-0.016342
-0.0113676
-0.00595327
-0.00028534
0.00534605
0.0106604
0.0154277
0.0194543
0.0228202
0.0257824
0.0287794
0.0321894
0.0358698
0.0400159
0.0439587
0.0471754
0.047605
0.0438369
0.0358241
0.0257304
0.0152044
0.00493992
-0.322036
-0.328939
-0.335675
-0.342304
-0.348892
-0.355523
-0.362293
-0.369441
-0.37704
-0.386399
-0.396293
-0.414014
-0.301765
-0.308929
-0.316025
-0.323137
-0.330344
-0.337821
-0.345619
-0.354264
-0.363259
-0.374575
-0.384225
-0.401132
-0.281992
-0.289268
-0.296547
-0.303924
-0.311434
-0.319267
-0.327258
-0.335932
-0.344203
-0.354156
-0.362187
-0.376812
-0.263131
-0.270361
-0.277605
-0.284934
-0.29231
-0.299888
-0.30739
-0.315372
-0.322961
-0.332216
-0.340811
-0.35422
-0.24494
-0.251943
-0.258943
-0.265996
-0.273055
-0.280289
-0.28752
-0.295291
-0.303034
-0.31205
-0.320806
-0.332438
-0.227375
-0.234054
-0.240737
-0.247483
-0.25428
-0.261276
-0.268363
-0.275848
-0.283322
-0.291435
-0.299592
-0.309792
-0.210548
-0.216872
-0.223216
-0.229629
-0.236103
-0.242714
-0.249381
-0.256247
-0.263154
-0.270493
-0.278267
-0.287572
-0.194502
-0.200435
-0.206387
-0.212384
-0.218421
-0.22454
-0.230722
-0.237063
-0.243561
-0.250389
-0.257711
-0.266135
-0.179221
-0.184732
-0.190256
-0.195811
-0.201408
-0.207078
-0.212836
-0.218721
-0.224757
-0.230989
-0.237665
-0.245253
-0.164712
-0.169798
-0.174895
-0.180021
-0.185187
-0.19041
-0.195702
-0.201074
-0.206564
-0.212202
-0.218257
-0.225114
-0.150985
-0.155652
-0.160327
-0.16502
-0.169741
-0.174499
-0.179309
-0.18418
-0.189158
-0.194264
-0.19973
-0.205881
-0.13803
-0.142286
-0.146544
-0.150811
-0.155097
-0.159409
-0.163763
-0.168166
-0.172654
-0.177239
-0.182118
-0.187585
-0.125836
-0.129698
-0.133557
-0.137418
-0.141289
-0.145178
-0.149095
-0.153044
-0.157053
-0.161137
-0.165463
-0.170292
-0.114393
-0.117883
-0.121363
-0.124839
-0.128318
-0.131803
-0.135303
-0.138823
-0.142387
-0.146005
-0.149821
-0.154056
-0.103684
-0.106824
-0.10995
-0.113066
-0.116176
-0.119285
-0.122399
-0.125523
-0.128674
-0.131862
-0.135206
-0.138895
-0.0965107
-0.099308
-0.10209
-0.10486
-0.107621
-0.11038
-0.113137
-0.115909
-0.118703
-0.121617
-0.124811
-0.086925
-0.0894203
-0.0918956
-0.0943539
-0.0967973
-0.0992302
-0.101654
-0.104082
-0.106518
-0.109045
-0.111796
-0.0780495
-0.0802696
-0.082466
-0.0846408
-0.0867958
-0.0889342
-0.0910572
-0.0931745
-0.0952906
-0.0974715
-0.0998265
-0.069867
-0.0718383
-0.0737828
-0.0757022
-0.0775978
-0.0794718
-0.0813252
-0.0831655
-0.0849959
-0.0868701
-0.0888764
-0.0623603
-0.0641083
-0.0658274
-0.0675185
-0.0691825
-0.0708212
-0.0724351
-0.0740299
-0.0756082
-0.0772127
-0.0789139
-0.0555135
-0.0570631
-0.0585819
-0.0600705
-0.0615297
-0.0629605
-0.0643634
-0.0657427
-0.0671002
-0.0684696
-0.0699061
-0.0493129
-0.0506874
-0.0520299
-0.0533408
-0.0546203
-0.0558693
-0.057088
-0.0582797
-0.0594455
-0.0606119
-0.0618209
-0.0437478
-0.0449695
-0.0461584
-0.0473145
-0.048438
-0.0495296
-0.0505891
-0.0516191
-0.0526203
-0.0536127
-0.054628
-0.0388111
-0.0399011
-0.0409577
-0.0419809
-0.0429708
-0.0439277
-0.0448516
-0.0457442
-0.046606
-0.0474518
-0.0483047
-0.0344999
-0.0354781
-0.0364226
-0.0373335
-0.0382106
-0.0390542
-0.0398642
-0.0406418
-0.0413873
-0.0421114
-0.0428299
-0.030821
-0.031706
-0.0325574
-0.033375
-0.0341589
-0.034909
-0.0356252
-0.0363083
-0.0369583
-0.0375828
-0.0381918
-0.0277836
-0.0285936
-0.0293704
-0.0301135
-0.030823
-0.0314987
-0.0321405
-0.032749
-0.0333239
-0.0338702
-0.0343935
-0.0254187
-0.0261714
-0.0268911
-0.0275777
-0.0282307
-0.0288503
-0.0294361
-0.0299885
-0.0305072
-0.0309953
-0.0314548
-0.0237571
-0.0244714
-0.0251531
-0.0258021
-0.026418
-0.0270006
-0.0275498
-0.0280656
-0.0285476
-0.0289977
-0.0294154
-0.0228639
-0.023556
-0.0242164
-0.0248449
-0.0254411
-0.0260048
-0.0265358
-0.027034
-0.027499
-0.0279318
-0.0283304
-0.0460412
-0.0113155
-0.0153324
)
;

boundaryField
{
    inlet
    {
        type            zeroGradient;
    }
    outlet
    {
        type            fixedValue;
        value           uniform 0;
    }
    cylinder
    {
        type            zeroGradient;
    }
    top
    {
        type            symmetryPlane;
    }
    bottom
    {
        type            symmetryPlane;
    }
    defaultFaces
    {
        type            empty;
    }
    procBoundary3to1
    {
        type            processor;
        value           nonuniform List<scalar> 
41
(
-0.409128
-0.410924
-0.411535
-0.412386
-0.414019
-0.416725
-0.420696
-0.426198
-0.433413
-0.442773
-0.464168
-0.497254
-0.534908
-0.547595
-0.511096
-0.424192
-0.330701
-0.262947
-0.236264
-0.249556
-0.263238
-0.238867
-0.186167
-0.135028
-0.106414
-0.0946437
-0.0966475
-0.114929
-0.111377
-0.0938746
-0.0861825
-0.0752426
-0.0503269
-0.0540615
-0.0610672
-0.0680048
-0.0544281
-0.0457894
-0.011877
-0.0154059
-0.0544281
)
;
    }
    procBoundary3to2
    {
        type            processor;
        value           nonuniform List<scalar> 
50
(
-0.461029
-0.461029
-0.463611
-0.463611
-0.471633
-0.47264
-0.47264
-0.472052
-0.472052
-0.46884
-0.454283
-0.454283
-0.437758
-0.437758
-0.41093
-0.41093
-0.376808
-0.347073
-0.347073
-0.314911
-0.29447
-0.274664
-0.255887
-0.237926
-0.22069
-0.20423
-0.188576
-0.173712
-0.159627
-0.146316
-0.133767
-0.121963
-0.110889
-0.100525
-0.0936949
-0.0936949
-0.0844075
-0.0758042
-0.067868
-0.0605824
-0.0539326
-0.047906
-0.042493
-0.0376877
-0.0334883
-0.0299027
-0.0269405
-0.0246333
-0.0230107
-0.0221406
)
;
    }
}


// ************************************************************************* //
