/*--------------------------------*- C++ -*----------------------------------*\
  =========                 |
  \\      /  F ield         | OpenFOAM: The Open Source CFD Toolbox
   \\    /   O peration     | Website:  https://openfoam.org
    \\  /    A nd           | Version:  7
     \\/     M anipulation  |
\*---------------------------------------------------------------------------*/
FoamFile
{
    version     2.0;
    format      ascii;
    class       surfaceScalarField;
    location    "30";
    object      phi;
}
// * * * * * * * * * * * * * * * * * * * * * * * * * * * * * * * * * * * * * //

dimensions      [0 3 -1 0 0 0 0];

internalField   nonuniform List<scalar> 
16735
(
-4.2325e-05
4.2325e-05
-1.71261e-11
-0.00014502
0.000102695
-4.10187e-11
-0.000292243
0.000147223
-6.40583e-11
-0.000468573
0.00017633
-8.09363e-11
-0.000659461
0.000190887
-9.5151e-11
-0.000851994
0.000192534
-1.07394e-10
-0.00103591
0.000183915
-1.16504e-10
-0.00120503
0.00016912
-1.21926e-10
-0.00135819
0.000153158
-1.20975e-10
0.000142409
-1.1271e-10
-0.0015006
-4.15573e-05
8.38823e-05
-0.000142027
0.000203164
-0.000285439
0.000290635
-0.000456176
0.000347067
-0.000639414
0.000374125
-0.000821874
0.000374994
-0.000992837
0.000354878
-0.00114562
0.000321898
-0.0012786
0.000286142
0.000260332
-0.00139652
-4.00334e-05
0.000123916
-0.00013608
0.00029921
-0.000271911
0.000426467
-0.000431519
0.000506676
-0.000599535
0.000542141
-0.000761954
0.000537413
-0.00090714
0.000500064
-0.00102739
0.000442144
-0.00112017
0.000378926
0.000329444
-0.00118928
-3.77759e-05
0.000161692
-0.000127251
0.000388686
-0.000251811
0.000551026
-0.000394867
0.000649731
-0.000540242
0.000687516
-0.000672849
0.00067002
-0.00077969
0.000606905
-0.000851515
0.000513969
-0.000884403
0.000411814
0.000325643
-0.000880602
-3.48157e-05
0.000196507
-0.000115645
0.000469516
-0.000225353
0.000660734
-0.000346591
0.000770969
-0.000462122
0.000803048
-0.00055544
0.000763338
-0.000611736
0.000663201
-0.000619678
0.000521911
-0.000573745
0.000365881
0.000224822
-0.000472924
-3.119e-05
0.000227697
-0.000101384
0.00053971
-0.000192796
0.000752145
-0.000287143
0.000865316
-0.000365899
0.000881804
-0.000410813
0.000808253
-0.000404829
0.000657216
-0.000333756
0.000450838
-0.000190298
0.000222422
1.95379e-05
1.49869e-05
-2.69384e-05
0.000254636
-8.46013e-05
0.000597373
-0.00015442
0.000821964
-0.00021702
0.000927916
-0.000252372
0.000917157
-0.000240185
0.000796066
-0.000160776
0.000577807
2.62395e-06
0.000287438
0.000263894
-3.88478e-05
-0.000338107
0.000621539
-2.20996e-05
0.000276735
-6.54278e-05
0.000640701
-0.000110507
0.000867043
-0.000136725
0.000954134
-0.000122372
0.000902803
-4.48552e-05
0.000718549
0.000118645
0.000414308
0.000389347
1.6735e-05
0.000782332
-0.000431832
-0.000857337
0.00130156
-1.67075e-05
0.000293443
-4.39825e-05
0.000667976
-6.13153e-05
0.000884376
-4.67313e-05
0.00093955
2.33079e-05
0.000832764
0.000173885
0.000567972
0.000431233
0.00015696
0.000820852
-0.000372885
0.00136295
-0.000973929
-0.00155876
0.00206437
-1.07889e-05
0.000304232
-2.0361e-05
0.000677548
-7.05859e-06
0.000871073
5.25568e-05
0.000879934
0.000183965
0.000701356
0.00041487
0.000337067
0.000775131
-0.000203301
0.00129517
-0.000892925
0.00200114
-0.0016799
-0.0024618
0.00290418
-4.36259e-06
0.000308594
5.36884e-06
0.000667817
5.20947e-05
0.000824347
0.00016083
0.000771199
0.000359051
0.000503135
0.000677136
1.89812e-05
0.00114867
-0.000674839
0.00180942
-0.00155367
0.00269252
-0.002563
-0.00358439
0.00381511
2.57987e-06
0.000306014
3.31638e-05
0.000637233
0.000116053
0.000741459
0.000277887
0.000609364
0.00054819
0.000232832
0.000959983
-0.000392811
0.00155051
-0.00126537
0.00236103
-0.00236419
0.00343272
-0.00363469
-0.00494272
0.00479105
1.00168e-05
0.000295998
6.30219e-05
0.000584228
0.000184765
0.000619716
0.000403621
0.000390508
0.000751183
-0.000114729
0.00126301
-0.000904637
0.00197974
-0.0019821
0.00294792
-0.00333237
0.00421753
-0.00490429
-0.0065505
0.0058253
1.79747e-05
0.000278023
9.49389e-05
0.000507263
0.000258206
0.000456449
0.000537979
0.000110735
0.000967954
-0.000544704
0.00158609
-0.00152277
0.00243595
-0.00283196
0.0035687
-0.00446512
0.00504322
-0.0063788
-0.00841797
0.00691069
2.64576e-05
0.000251565
0.000128909
0.000404812
0.000336336
0.000249022
0.00068089
-0.000233819
0.00119845
-0.00106227
0.00192927
-0.00225359
0.00291925
-0.00382194
0.00422293
-0.00576881
0.005907
-0.00806287
-0.0105506
0.00803966
3.54655e-05
0.0002161
0.000164895
0.000275382
0.000419038
-5.12087e-06
0.000832153
-0.000646934
0.00144247
-0.00167258
0.00229252
-0.00310364
0.00343003
-0.00495945
0.00491129
-0.00725006
0.00680783
-0.00995942
-0.0129476
0.00920476
4.49827e-05
0.000171117
0.000202796
0.000117569
0.000506053
-0.000308378
0.000991301
-0.00113218
0.00169937
-0.00238065
0.00267535
-0.00407963
0.00396857
-0.00625267
0.00563537
-0.00891686
0.0077471
-0.0120711
-0.0156006
0.0104002
5.49698e-05
0.000116147
0.000242427
-6.98889e-05
0.000596916
-0.000662867
0.00115745
-0.00169272
0.00196783
-0.00319102
0.00307628
-0.00518807
0.00453441
-0.0077108
0.00639774
-0.0107802
0.00872899
-0.0144024
-0.0184985
0.0116268
6.53596e-05
5.07878e-05
0.0002835
-0.000288029
0.000690903
-0.00107027
0.00132917
-0.00233098
0.0022454
-0.00410726
0.00349202
-0.00643469
0.00512544
-0.00934422
0.0072036
-0.0128584
0.00976792
-0.0169667
-0.0216302
0.0128996
7.60587e-05
-2.52708e-05
0.000325624
-0.000537595
0.000787023
-0.00153167
0.00150437
-0.00304832
0.00252821
-0.0051311
0.0039161
-0.00782259
0.00573357
-0.0111617
0.00805545
-0.0151802
0.0109289
-0.0198401
-0.024926
0.0142247
8.69555e-05
-0.000112226
0.000368343
-0.000818982
0.000884087
-0.00204741
0.00168043
-0.00384467
0.00281082
-0.00626149
0.00433744
-0.00934921
0.00633534
-0.0131596
0.00890503
-0.0177499
0.012249
-0.0231841
-0.0297931
0.0171161
9.79368e-05
-0.000210163
0.000411181
-0.00113223
0.000980858
-0.00261709
0.00185461
-0.00471842
0.00308735
-0.00749423
0.0047428
-0.0110047
0.00689759
-0.0153144
0.00965213
-0.0205045
0.0131708
-0.0267028
-0.0342702
0.0176479
0.000108903
-0.000319066
0.000453715
-0.00147704
0.00107623
-0.00323961
0.00202455
-0.00566674
0.0033532
-0.00882288
0.00512361
-0.0127751
0.00740536
-0.0175961
0.0102773
-0.0233764
0.013829
-0.0302545
-0.0385282
0.0180871
0.000119778
-0.000438844
0.000495602
-0.00185286
0.00116935
-0.00391336
0.00218852
-0.0066859
0.00360553
-0.0102399
0.00547648
-0.014646
0.00785895
-0.0199786
0.0108055
-0.0263229
0.0143476
-0.0337967
-0.0426155
0.0184349
0.000130508
-0.000569352
0.000536582
-0.00225894
0.00125955
-0.00463633
0.00234534
-0.00777169
0.00384274
-0.0117373
0.00580053
-0.0166038
0.00826231
-0.0224404
0.0112559
-0.0293165
0.0147723
-0.0373131
-0.0465629
0.0187197
0.000141058
-0.00071041
0.000576452
-0.00269433
0.00134633
-0.0054062
0.00249412
-0.00891947
0.0040638
-0.013307
0.00609549
-0.0186355
0.00861837
-0.0249633
0.0116384
-0.0323365
0.015118
-0.0407927
-0.0503886
0.0189437
0.000151395
-0.000861806
0.000615028
-0.00315796
0.00142922
-0.00622039
0.00263406
-0.0101243
0.0042677
-0.0149406
0.00636079
-0.0207286
0.00892822
-0.0275307
0.0119569
-0.0353651
0.0153883
-0.0442241
-0.0540972
0.0190968
0.000161483
-0.00102329
0.000652109
-0.00364859
0.00150773
-0.00707601
0.00276429
-0.0113809
0.00445328
-0.0166296
0.00659526
-0.0228706
0.00919118
-0.0301266
0.0122111
-0.0383851
0.0155808
-0.0475937
-0.0576836
0.0191673
0.000171269
-0.00119456
0.000687457
-0.00416478
0.00158128
-0.00796983
0.00288379
-0.0126834
0.00461903
-0.0183648
0.00679703
-0.0250486
0.00940519
-0.0327348
0.0123986
-0.0413785
0.0156905
-0.0508857
-0.0611369
0.0191438
0.000180687
-0.00137524
0.00072078
-0.00470487
0.0016492
-0.00889825
0.00299135
-0.0140255
0.00476315
-0.0201366
0.00696373
-0.0272492
0.00956732
-0.0353384
0.0125156
-0.0443268
0.0157118
-0.0540819
-0.0644423
0.0190173
0.000189649
-0.00156489
0.000751731
-0.00526695
0.0017107
-0.00985722
0.0030856
-0.0154004
0.0048836
-0.0219347
0.00709267
-0.0294582
0.00967432
-0.03792
0.0125581
-0.0472106
0.0156398
-0.0571636
-0.0675838
0.0187813
0.00019805
-0.00176294
0.000779912
-0.00584881
0.00176491
-0.0108422
0.00316506
-0.0168006
0.00497824
-0.0237478
0.0071811
-0.0316611
0.009723
-0.0404619
0.0125229
-0.0500105
0.015471
-0.0601116
-0.0705449
0.0184321
0.000205771
-0.00196871
0.000804887
-0.00644793
0.00181091
-0.0118482
0.00322821
-0.0182179
0.00504493
-0.0255645
0.00722642
-0.0338426
0.00971061
-0.0429461
0.0124074
-0.0527073
0.0152036
-0.0629078
-0.0733104
0.0179691
0.000212682
-0.0021814
0.000826199
-0.00706145
0.00184776
-0.0128698
0.00327353
-0.0196436
0.00508164
-0.0273726
0.00722634
-0.0359873
0.00963506
-0.0453548
0.0122103
-0.0552826
0.0148375
-0.065535
-0.0758666
0.0173937
0.00021865
-0.00240005
0.000843386
-0.00768618
0.00187453
-0.013901
0.00329962
-0.0210687
0.00508661
-0.0291596
0.00717907
-0.0380797
0.00949505
-0.0476708
0.0119315
-0.057719
0.0143745
-0.067978
-0.0782021
0.0167101
0.000223538
-0.00262359
0.000855996
-0.00831864
0.00189036
-0.0149353
0.00330521
-0.0224836
0.00505839
-0.0309128
0.00708338
-0.0401047
0.00929019
-0.0498776
0.0115721
-0.0600009
0.0138179
-0.0702238
-0.080308
0.0159238
0.000227216
-0.0028508
0.000863607
-0.00895503
0.00189446
-0.0159662
0.00328925
-0.0238784
0.0049959
-0.0326195
0.00693869
-0.0420475
0.00902102
-0.0519599
0.0111344
-0.0621143
0.0131722
-0.0722616
-0.0821778
0.015042
0.00022956
-0.00308036
0.000865836
-0.00959131
0.00188618
-0.0169865
0.00325092
-0.0252431
0.00489854
-0.0342671
0.00674506
-0.0438941
0.00868894
-0.0539038
0.0106218
-0.0640472
0.0124433
-0.0740831
-0.0838075
0.014073
0.000230458
-0.00331082
0.000862354
-0.0102232
0.00186498
-0.0179891
0.00318969
-0.0265678
0.00476611
-0.0358435
0.00650323
-0.0456312
0.00829621
-0.0556968
0.0100387
-0.0657897
0.0116377
-0.0756821
-0.0851954
0.0130256
0.000229814
-0.00354063
0.000852895
-0.0108463
0.0018305
-0.0189667
0.00310531
-0.0278426
0.00459891
-0.0373371
0.00621456
-0.0472468
0.00784579
-0.057328
0.00938986
-0.0673337
0.0107626
-0.0770549
-0.0863416
0.0119089
0.000227546
-0.00376818
0.000837262
-0.011456
0.00178252
-0.019912
0.00299784
-0.029058
0.00439767
-0.0387369
0.00588096
-0.0487301
0.00734129
-0.0587884
0.00868104
-0.0686735
0.00982565
-0.0781995
-0.0872483
0.0107323
0.000223593
-0.00399177
0.000815335
-0.0120477
0.00172102
-0.0208177
0.00286762
-0.0302046
0.00416355
-0.0400329
0.0055049
-0.0500715
0.00678684
-0.0600703
0.00791816
-0.0698048
0.00883446
-0.0791158
-0.0879187
0.0095049
0.000217913
-0.00420968
0.00078707
-0.0126169
0.00164612
-0.0216767
0.00271528
-0.0312737
0.0038981
-0.0412157
0.00508926
-0.0512626
0.00618697
-0.061168
0.00710744
-0.0707253
0.00779676
-0.0798051
-0.0883575
0.00823548
0.000210487
-0.00442017
0.000752506
-0.0131589
0.00155813
-0.0224824
0.00254172
-0.0322573
0.00360322
-0.0422772
0.0046373
-0.0522967
0.0055465
-0.0620772
0.00625523
-0.071434
0.00672011
-0.08027
-0.0885698
0.00693246
0.000201317
-0.00462149
0.000711757
-0.0136694
0.00145751
-0.0232281
0.0023481
-0.0331479
0.00328113
-0.0432102
0.00415259
-0.0531682
0.00487044
-0.0627951
0.00536784
-0.0719314
0.00561181
-0.080514
-0.0885617
0.00560369
0.000190427
-0.00481192
0.000665019
-0.014144
0.00134489
-0.023908
0.00213579
-0.0339388
0.00293427
-0.0440087
0.00363892
-0.0538728
0.00416394
-0.0633201
0.00445155
-0.072219
0.00447887
-0.0805413
-0.0883392
0.00425639
0.000177864
-0.00498978
0.000612557
-0.0145786
0.001221
-0.0245164
0.00190635
-0.0346241
0.00256534
-0.0446677
0.00310023
-0.0544077
0.00343214
-0.063652
0.0035124
-0.0722993
0.00332785
-0.0803568
-0.0879087
0.00289732
0.000163693
-0.00515347
0.000554706
-0.0149697
0.00108675
-0.0250485
0.00166151
-0.0351989
0.00217716
-0.0451833
0.00254058
-0.0547711
0.00268026
-0.0637917
0.00255635
-0.0721753
0.00216448
-0.0799649
-0.0872769
0.00153274
0.000148003
-0.00530147
0.000491862
-0.0153135
0.000943097
-0.0254997
0.00140314
-0.0356589
0.00177269
-0.0455529
0.0019641
-0.0549625
0.00191349
-0.0637411
0.00158963
-0.0718515
0.000994226
-0.0793695
-0.0864311
0.000148371
0.000130896
-0.00543237
0.000424471
-0.0156071
0.000791119
-0.0258663
0.00113317
-0.036001
0.00135493
-0.0457747
0.00137487
-0.0549825
0.00113681
-0.063503
0.000617903
-0.0713326
-0.000167776
-0.0785838
-0.0854067
-0.00119219
0.000112495
-0.00554487
0.000353025
-0.0158476
0.000631945
-0.0261453
0.00085362
-0.0362227
0.000926923
-0.045848
0.000776936
-0.0548325
0.000355024
-0.0630811
-0.000354796
-0.0706228
-0.00133591
-0.0776027
-0.0842026
-0.00253995
9.29338e-05
-0.0056378
0.000278048
-0.0160327
0.000466746
-0.026334
0.000566519
-0.0363224
0.00049166
-0.0457731
0.000174296
-0.0545151
-0.000427088
-0.0624797
-0.00132217
-0.0697277
-0.00248872
-0.0764361
-0.0828172
-0.00387408
7.23583e-05
-0.00571016
0.000200088
-0.0161605
0.000296717
-0.0264306
0.000273881
-0.0362996
5.21949e-05
-0.0455514
-0.0004293
-0.0540336
-0.0012049
-0.0617041
-0.00227932
-0.0686533
-0.0036266
-0.0750889
-0.0812542
-0.00518961
5.09297e-05
-0.00576109
0.000119701
-0.0162292
0.00012305
-0.0264339
-2.21444e-05
-0.0361544
-0.000388983
-0.0451846
-0.00103016
-0.0533925
-0.00197398
-0.0607603
-0.00322132
-0.0674059
-0.00474471
-0.0735655
-0.0795163
-0.00648265
2.88622e-05
-0.00578995
3.74351e-05
-0.0162378
-5.31338e-05
-0.0263434
-0.000320247
-0.0358873
-0.000828958
-0.0446759
-0.00162485
-0.0525966
-0.00273014
-0.059655
-0.00414322
-0.0659928
-0.00583802
-0.0718707
-0.0776048
-0.00774949
5.85577e-06
-0.00579581
-4.6194e-05
-0.0161858
-0.000230732
-0.0261588
-0.000618072
-0.0355
-0.00126536
-0.0440286
-0.00221031
-0.0516516
-0.00346945
-0.0583959
-0.00504007
-0.0644222
-0.00690109
-0.0700097
-0.0755192
-0.00898676
-1.72907e-05
-0.00577852
-0.000130604
-0.0160724
-0.000408627
-0.0258808
-0.000914199
-0.0349944
-0.00169604
-0.0432467
-0.00278383
-0.0505638
-0.00418846
-0.0569912
-0.00590704
-0.0627036
-0.00792808
-0.0679886
-0.0732558
-0.0101914
-4.06046e-05
-0.00573791
-0.000215281
-0.0158978
-0.000585855
-0.0255102
-0.00120716
-0.0343731
-0.00211913
-0.0423348
-0.0033432
-0.0493398
-0.00488429
-0.0554501
-0.00673962
-0.0608483
-0.00891193
-0.0658163
-0.0708106
-0.0113572
-6.41261e-05
-0.00567379
-0.000299766
-0.0156621
-0.000761499
-0.0250485
-0.00149563
-0.033639
-0.00253307
-0.0412973
-0.00388677
-0.0479861
-0.00555495
-0.0537819
-0.00753342
-0.0588698
-0.00983999
-0.0635097
-0.0681725
-0.0124781
-8.76337e-05
-0.00558615
-0.000383588
-0.0153662
-0.0009347
-0.0244974
-0.00177843
-0.0327952
-0.00293661
-0.0401391
-0.00441363
-0.046509
-0.00620014
-0.0519954
-0.00828592
-0.0567841
-0.0106979
-0.0610977
-0.065302
-0.0135684
-0.000110977
-0.00547517
-0.000466291
-0.0150109
-0.00110464
-0.023859
-0.00205447
-0.0318454
-0.00332867
-0.0388649
-0.00492352
-0.0449142
-0.00682257
-0.0500964
-0.00900353
-0.0546031
-0.0114269
-0.0586744
-0.0625983
-0.0141306
-0.000134015
-0.00534116
-0.000547436
-0.0145974
-0.00127053
-0.023136
-0.00232267
-0.0307933
-0.0037081
-0.0374795
-0.00541587
-0.0432064
-0.00742414
-0.0480881
-0.00970663
-0.0523206
-0.0122348
-0.0561462
-0.0598029
-0.0150302
-0.000156612
-0.00518455
-0.000626596
-0.0141275
-0.00143158
-0.022331
-0.00258191
-0.0296429
-0.00407347
-0.0359879
-0.00588871
-0.0413912
-0.00800139
-0.0459754
-0.0103834
-0.0499386
-0.0130108
-0.0535188
-0.05693
-0.0158838
-0.000178636
-0.00500591
-0.000703362
-0.0136027
-0.00158706
-0.0214473
-0.00283113
-0.0283989
-0.00442338
-0.0343957
-0.00634003
-0.0394745
-0.0085508
-0.0437647
-0.0110255
-0.0474639
-0.0137404
-0.0508039
-0.0539837
-0.0166867
-0.000199963
-0.00480595
-0.000777352
-0.0130253
-0.0017363
-0.0204883
-0.00306938
-0.0270658
-0.00475665
-0.0327084
-0.00676839
-0.0374628
-0.00907054
-0.0414625
-0.0116309
-0.0449035
-0.0144247
-0.0480101
-0.0509696
-0.0174388
-0.000220478
-0.00458547
-0.000848218
-0.0123976
-0.00187867
-0.0194579
-0.00329583
-0.0256486
-0.0050723
-0.0309319
-0.00717281
-0.0353623
-0.00955974
-0.0390756
-0.0121991
-0.0422642
-0.0150654
-0.0451438
-0.0478918
-0.0181432
-0.000240074
-0.00434539
-0.000915644
-0.011722
-0.00201365
-0.0183599
-0.00350978
-0.0241525
-0.00536958
-0.0290721
-0.00755257
-0.0331793
-0.010018
-0.0366102
-0.0127303
-0.0395519
-0.0156637
-0.0422104
-0.0447533
-0.0188022
-0.000258656
-0.00408674
-0.000979347
-0.0110013
-0.00214075
-0.0171985
-0.00371062
-0.0225826
-0.00564785
-0.0271349
-0.00790718
-0.0309199
-0.010445
-0.0340723
-0.0132248
-0.0367721
-0.0162207
-0.0392145
-0.0415571
-0.0194169
-0.000276135
-0.0038106
-0.00103907
-0.0102384
-0.00225957
-0.015978
-0.00389785
-0.0209444
-0.0059066
-0.0251262
-0.00823623
-0.0285903
-0.0108407
-0.0314678
-0.0136827
-0.0339301
-0.0167367
-0.0361605
-0.0383058
-0.019988
-0.000292433
-0.00351817
-0.0010946
-0.00943624
-0.00236972
-0.0147028
-0.004071
-0.0192431
-0.00614539
-0.0230518
-0.00853938
-0.0261963
-0.0112049
-0.0288023
-0.0141041
-0.031031
-0.017212
-0.0330526
-0.0350025
-0.0205153
-0.000307479
-0.00321069
-0.00114571
-0.00859801
-0.00247089
-0.0133777
-0.00422968
-0.0174843
-0.00636381
-0.0209176
-0.0088163
-0.0237438
-0.0115373
-0.0260813
-0.0144887
-0.0280795
-0.0176465
-0.0298948
-0.0316506
-0.0209984
-0.000321208
-0.00288948
-0.00119224
-0.00772697
-0.00256278
-0.0120071
-0.00437353
-0.0156736
-0.00656151
-0.0187297
-0.00906666
-0.0212387
-0.0118377
-0.0233102
-0.0148364
-0.0250808
-0.0180396
-0.0266916
-0.0282536
-0.0214366
-0.000333562
-0.00255592
-0.00123401
-0.00682652
-0.00264513
-0.010596
-0.00450223
-0.0138165
-0.00673816
-0.0164937
-0.00929016
-0.0186867
-0.0121058
-0.0204946
-0.0151468
-0.0220398
-0.018391
-0.0234474
-0.0248156
-0.0218291
-0.000344488
-0.00221143
-0.00127089
-0.00590012
-0.00271771
-0.00914918
-0.0046155
-0.0119187
-0.00689345
-0.0142158
-0.0094865
-0.0160936
-0.0123412
-0.0176399
-0.0154196
-0.0189614
-0.0187002
-0.0201668
-0.0213409
-0.0221749
-0.000353941
-0.00185749
-0.00130274
-0.00495132
-0.00278031
-0.00767161
-0.00471308
-0.00998589
-0.00702711
-0.0119017
-0.0096554
-0.0134653
-0.0125438
-0.0147515
-0.0156543
-0.0158508
-0.0189664
-0.0168547
-0.0178342
-0.0224731
-0.00036188
-0.00149561
-0.00132946
-0.00398374
-0.00283275
-0.00616831
-0.00479475
-0.00802389
-0.00713889
-0.00955761
-0.00979659
-0.0108076
-0.012713
-0.0118351
-0.0158506
-0.0127133
-0.0191893
-0.013516
-0.0143004
-0.022723
-0.000368273
-0.00112734
-0.00135094
-0.00300108
-0.00287489
-0.00464437
-0.00486031
-0.00603847
-0.00722858
-0.00718934
-0.00990984
-0.00812638
-0.0128488
-0.00889609
-0.0160081
-0.00955405
-0.0193682
-0.0101559
-0.0107447
-0.0229239
-0.000373092
-0.000754247
-0.00136712
-0.00200705
-0.0029066
-0.00310489
-0.00490963
-0.00403544
-0.007296
-0.00480297
-0.00999496
-0.00542742
-0.0129509
-0.00594016
-0.0161265
-0.00637847
-0.0195027
-0.00677967
-0.00717243
-0.023075
-0.000376316
-0.000377931
-0.00137794
-0.00100543
-0.00292779
-0.00155504
-0.00494257
-0.00202066
-0.00734103
-0.00240451
-0.0100518
-0.00271666
-0.013019
-0.00297291
-0.0162055
-0.00319197
-0.0195927
-0.00339255
-0.00358901
-0.0231761
-0.000377931
-1.3938e-11
-0.00138336
-3.93397e-11
-0.0029384
-6.1745e-11
-0.00495906
-8.03247e-11
-0.00736356
-9.45286e-11
-0.0100802
-1.04612e-10
-0.0130531
-1.11228e-10
-0.0162451
-1.15113e-10
-0.0196377
-1.17579e-10
-1.19274e-10
-0.0232267
-0.000377931
0.000377931
-0.00138336
0.00100543
-0.0029384
0.00155504
-0.00495906
0.00202066
-0.00736356
0.00240451
-0.0100802
0.00271666
-0.0130531
0.00297291
-0.0162451
0.00319197
-0.0196377
0.00339255
0.00358901
-0.0232267
-0.000376316
0.000754247
-0.00137794
0.00200705
-0.00292779
0.00310489
-0.00494257
0.00403544
-0.00734103
0.00480297
-0.0100518
0.00542742
-0.013019
0.00594016
-0.0162055
0.00637847
-0.0195927
0.00677967
0.00717242
-0.0231761
-0.000373092
0.00112734
-0.00136712
0.00300108
-0.0029066
0.00464437
-0.00490963
0.00603847
-0.007296
0.00718934
-0.00999496
0.00812638
-0.0129509
0.00889609
-0.0161265
0.00955405
-0.0195027
0.0101559
0.0107447
-0.023075
-0.000368273
0.00149561
-0.00135094
0.00398374
-0.00287489
0.00616831
-0.00486031
0.00802389
-0.00722858
0.0095576
-0.00990984
0.0108076
-0.0128488
0.0118351
-0.0160081
0.0127133
-0.0193682
0.013516
0.0143004
-0.0229239
-0.00036188
0.00185749
-0.00132946
0.00495132
-0.00283275
0.00767161
-0.00479475
0.00998589
-0.00713889
0.0119017
-0.00979659
0.0134653
-0.012713
0.0147515
-0.0158506
0.0158508
-0.0191893
0.0168547
0.0178342
-0.022723
-0.000353941
0.00221143
-0.00130274
0.00590012
-0.00278031
0.00914918
-0.00471308
0.0119187
-0.00702711
0.0142158
-0.0096554
0.0160936
-0.0125438
0.0176399
-0.0156543
0.0189614
-0.0189664
0.0201668
0.0213409
-0.0224731
-0.000344488
0.00255592
-0.00127089
0.00682652
-0.00271771
0.010596
-0.0046155
0.0138165
-0.00689345
0.0164937
-0.0094865
0.0186867
-0.0123412
0.0204946
-0.0154196
0.0220398
-0.0187002
0.0234474
0.0248156
-0.0221749
-0.000333562
0.00288948
-0.00123401
0.00772697
-0.00264513
0.0120071
-0.00450223
0.0156736
-0.00673816
0.0187297
-0.00929016
0.0212387
-0.0121058
0.0233102
-0.0151468
0.0250808
-0.018391
0.0266916
0.0282536
-0.0218291
-0.000321208
0.00321069
-0.00119224
0.00859801
-0.00256278
0.0133777
-0.00437353
0.0174843
-0.00656151
0.0209176
-0.00906666
0.0237438
-0.0118377
0.0260813
-0.0148364
0.0280795
-0.0180396
0.0298948
0.0316506
-0.0214366
-0.000307479
0.00351817
-0.00114571
0.00943624
-0.00247089
0.0147028
-0.00422968
0.0192431
-0.00636381
0.0230518
-0.0088163
0.0261963
-0.0115373
0.0288023
-0.0144887
0.031031
-0.0176465
0.0330526
0.0350025
-0.0209984
-0.000292433
0.0038106
-0.0010946
0.0102384
-0.00236972
0.015978
-0.004071
0.0209444
-0.00614539
0.0251262
-0.00853938
0.0285903
-0.0112049
0.0314678
-0.0141041
0.0339301
-0.017212
0.0361605
0.0383058
-0.0205153
-0.000276135
0.00408674
-0.00103907
0.0110013
-0.00225957
0.0171985
-0.00389785
0.0225826
-0.0059066
0.0271349
-0.00823623
0.0309199
-0.0108407
0.0340723
-0.0136827
0.0367721
-0.0167367
0.0392145
0.0415571
-0.019988
-0.000258656
0.00434539
-0.000979347
0.011722
-0.00214075
0.0183599
-0.00371062
0.0241525
-0.00564785
0.0290721
-0.00790718
0.0331793
-0.010445
0.0366102
-0.0132248
0.0395519
-0.0162207
0.0422104
0.0447533
-0.0194169
-0.000240074
0.00458547
-0.000915644
0.0123976
-0.00201365
0.0194579
-0.00350978
0.0256486
-0.00536958
0.0309319
-0.00755257
0.0353623
-0.010018
0.0390756
-0.0127303
0.0422642
-0.0156637
0.0451438
0.0478918
-0.0188022
-0.000220478
0.00480595
-0.000848218
0.0130253
-0.00187867
0.0204883
-0.00329583
0.0270658
-0.0050723
0.0327084
-0.00717281
0.0374628
-0.00955974
0.0414625
-0.0121991
0.0449035
-0.0150654
0.0480101
0.0509696
-0.0181432
-0.000199963
0.00500591
-0.000777352
0.0136027
-0.0017363
0.0214473
-0.00306938
0.0283989
-0.00475665
0.0343957
-0.00676839
0.0394745
-0.00907054
0.0437647
-0.0116309
0.0474639
-0.0144247
0.0508039
0.0539837
-0.0174388
-0.000178636
0.00518455
-0.000703362
0.0141275
-0.00158706
0.022331
-0.00283113
0.0296429
-0.00442338
0.0359879
-0.00634003
0.0413912
-0.0085508
0.0459754
-0.0110255
0.0499386
-0.0137404
0.0535188
0.05693
-0.0166867
-0.000156612
0.00534116
-0.000626596
0.0145974
-0.00143158
0.023136
-0.00258191
0.0307933
-0.00407347
0.0374795
-0.00588871
0.0432064
-0.00800139
0.0480881
-0.0103834
0.0523206
-0.0130108
0.0561462
0.0598029
-0.0158838
-0.000134015
0.00547517
-0.000547436
0.0150109
-0.00127053
0.023859
-0.00232267
0.0318454
-0.0037081
0.0388649
-0.00541587
0.0449142
-0.00742414
0.0500964
-0.00970663
0.0546031
-0.0122348
0.0586744
0.0625983
-0.0150302
-0.000110977
0.00558615
-0.000466291
0.0153662
-0.00110464
0.0244974
-0.00205447
0.0327952
-0.00332867
0.0401391
-0.00492352
0.046509
-0.00682257
0.0519954
-0.00900353
0.0567841
-0.0114269
0.0610977
0.065302
-0.0141306
-8.76337e-05
0.00567379
-0.000383588
0.0156621
-0.0009347
0.0250485
-0.00177843
0.033639
-0.00293661
0.0412973
-0.00441363
0.0479861
-0.00620014
0.0537819
-0.00828592
0.0588698
-0.0106979
0.0635097
0.0681725
-0.0135684
-6.41261e-05
0.00573791
-0.000299766
0.0158978
-0.000761499
0.0255102
-0.00149563
0.0343731
-0.00253307
0.0423348
-0.00388677
0.0493398
-0.00555495
0.0554501
-0.00753342
0.0608483
-0.00983999
0.0658163
0.0708106
-0.0124781
-4.06046e-05
0.00577852
-0.000215281
0.0160724
-0.000585855
0.0258808
-0.00120716
0.0349944
-0.00211913
0.0432467
-0.0033432
0.0505638
-0.00488429
0.0569912
-0.00673962
0.0627036
-0.00891193
0.0679886
0.0732558
-0.0113572
-1.72907e-05
0.00579581
-0.000130604
0.0161858
-0.000408627
0.0261588
-0.000914199
0.0355
-0.00169604
0.0440286
-0.00278383
0.0516516
-0.00418846
0.0583959
-0.00590704
0.0644222
-0.00792808
0.0700097
0.0755192
-0.0101914
5.85577e-06
0.00578995
-4.6194e-05
0.0162378
-0.000230732
0.0263434
-0.000618072
0.0358873
-0.00126536
0.0446759
-0.00221031
0.0525966
-0.00346945
0.059655
-0.00504007
0.0659928
-0.00690109
0.0718707
0.0776048
-0.00898676
2.88622e-05
0.00576109
3.74351e-05
0.0162292
-5.31338e-05
0.0264339
-0.000320247
0.0361544
-0.000828958
0.0451846
-0.00162485
0.0533925
-0.00273014
0.0607603
-0.00414322
0.0674059
-0.00583802
0.0735655
0.0795163
-0.00774949
5.09297e-05
0.00571016
0.000119701
0.0161605
0.00012305
0.0264306
-2.21444e-05
0.0362996
-0.000388983
0.0455514
-0.00103016
0.0540336
-0.00197398
0.0617041
-0.00322132
0.0686533
-0.00474471
0.0750889
0.0812542
-0.00648265
7.23583e-05
0.0056378
0.000200088
0.0160327
0.000296717
0.026334
0.000273881
0.0363224
5.21949e-05
0.0457731
-0.0004293
0.0545151
-0.0012049
0.0624797
-0.00227932
0.0697277
-0.0036266
0.0764361
0.0828172
-0.00518961
9.29338e-05
0.00554487
0.000278048
0.0158476
0.000466746
0.0261453
0.000566519
0.0362227
0.00049166
0.045848
0.000174296
0.0548325
-0.000427088
0.0630811
-0.00132217
0.0706228
-0.00248872
0.0776027
0.0842026
-0.00387408
0.000112495
0.00543237
0.000353025
0.0156071
0.000631945
0.0258663
0.00085362
0.036001
0.000926923
0.0457747
0.000776936
0.0549825
0.000355024
0.063503
-0.000354796
0.0713326
-0.00133591
0.0785838
0.0854067
-0.00253995
0.000130896
0.00530147
0.000424471
0.0153135
0.000791119
0.0254997
0.00113317
0.0356589
0.00135493
0.0455529
0.00137487
0.0549625
0.00113681
0.0637411
0.000617903
0.0718515
-0.000167776
0.0793695
0.0864311
-0.00119219
0.000148003
0.00515347
0.000491862
0.0149697
0.000943097
0.0250485
0.00140314
0.0351989
0.00177269
0.0451833
0.0019641
0.0547711
0.00191349
0.0637917
0.00158963
0.0721753
0.000994226
0.0799649
0.0872769
0.000148371
0.000163693
0.00498978
0.000554706
0.0145786
0.00108675
0.0245164
0.00166151
0.0346241
0.00217716
0.0446677
0.00254058
0.0544077
0.00268026
0.063652
0.00255635
0.0722993
0.00216448
0.0803568
0.0879087
0.00153274
0.000177864
0.00481192
0.000612557
0.014144
0.001221
0.023908
0.00190635
0.0339388
0.00256534
0.0440087
0.00310023
0.0538728
0.00343214
0.0633201
0.0035124
0.072219
0.00332785
0.0805413
0.0883392
0.00289732
0.000190427
0.00462149
0.000665019
0.0136694
0.00134489
0.0232281
0.00213579
0.0331479
0.00293427
0.0432102
0.00363892
0.0531682
0.00416394
0.0627951
0.00445155
0.0719314
0.00447887
0.080514
0.0885617
0.00425639
0.000201317
0.00442017
0.000711757
0.0131589
0.00145751
0.0224824
0.0023481
0.0322573
0.00328113
0.0422772
0.00415259
0.0522967
0.00487044
0.0620772
0.00536784
0.071434
0.00561181
0.08027
0.0885698
0.00560369
0.000210487
0.00420968
0.000752506
0.0126169
0.00155813
0.0216767
0.00254172
0.0312737
0.00360322
0.0412157
0.0046373
0.0512626
0.0055465
0.061168
0.00625523
0.0707253
0.00672011
0.0798051
0.0883575
0.00693246
0.000217913
0.00399177
0.00078707
0.0120477
0.00164612
0.0208177
0.00271528
0.0302046
0.0038981
0.0400329
0.00508926
0.0500715
0.00618697
0.0600703
0.00710744
0.0698048
0.00779676
0.0791158
0.0879187
0.00823548
0.000223593
0.00376818
0.000815335
0.011456
0.00172102
0.019912
0.00286762
0.029058
0.00416355
0.0387369
0.0055049
0.0487301
0.00678684
0.0587884
0.00791816
0.0686735
0.00883446
0.0781995
0.0872483
0.0095049
0.000227546
0.00354063
0.000837262
0.0108463
0.00178252
0.0189667
0.00299784
0.0278426
0.00439767
0.0373371
0.00588096
0.0472468
0.00734129
0.057328
0.00868104
0.0673337
0.00982565
0.0770549
0.0863416
0.0107323
0.000229814
0.00331082
0.000852895
0.0102232
0.0018305
0.0179891
0.00310531
0.0265678
0.00459891
0.0358435
0.00621456
0.0456312
0.00784579
0.0556968
0.00938986
0.0657897
0.0107626
0.0756821
0.0851954
0.0119089
0.000230458
0.00308036
0.000862354
0.00959131
0.00186498
0.0169865
0.00318969
0.0252431
0.00476611
0.0342671
0.00650323
0.0438941
0.00829621
0.0539038
0.0100387
0.0640472
0.0116377
0.0740831
0.0838075
0.0130256
0.00022956
0.0028508
0.000865836
0.00895503
0.00188618
0.0159662
0.00325092
0.0238784
0.00489854
0.0326195
0.00674506
0.0420475
0.00868894
0.0519599
0.0106218
0.0621143
0.0124433
0.0722616
0.0821778
0.014073
0.000227216
0.00262359
0.000863607
0.00831864
0.00189446
0.0149353
0.00328925
0.0224836
0.0049959
0.0309128
0.00693869
0.0401047
0.00902102
0.0498776
0.0111344
0.0600009
0.0131722
0.0702238
0.080308
0.015042
0.000223538
0.00240005
0.000855996
0.00768618
0.00189036
0.013901
0.00330521
0.0210687
0.00505839
0.0291596
0.00708338
0.0380797
0.00929019
0.0476708
0.0115721
0.057719
0.0138179
0.067978
0.0782021
0.0159238
0.00021865
0.0021814
0.000843386
0.00706145
0.00187453
0.0128698
0.00329962
0.0196436
0.00508661
0.0273726
0.00717907
0.0359873
0.00949505
0.0453548
0.0119315
0.0552826
0.0143745
0.065535
0.0758666
0.0167101
0.000212682
0.00196871
0.000826199
0.00644793
0.00184776
0.0118482
0.00327353
0.0182179
0.00508164
0.0255645
0.00722634
0.0338426
0.00963506
0.0429461
0.0122103
0.0527073
0.0148375
0.0629078
0.0733104
0.0173937
0.000205771
0.00176294
0.000804887
0.00584881
0.00181091
0.0108422
0.00322821
0.0168006
0.00504493
0.0237478
0.00722642
0.0316611
0.00971061
0.0404619
0.0124074
0.0500105
0.0152036
0.0601116
0.0705449
0.0179691
0.00019805
0.00156489
0.000779912
0.00526695
0.00176491
0.00985722
0.00316506
0.0154004
0.00497824
0.0219347
0.0071811
0.0294582
0.009723
0.03792
0.0125229
0.0472106
0.015471
0.0571636
0.0675838
0.0184321
0.000189649
0.00137524
0.000751731
0.00470487
0.0017107
0.00889825
0.0030856
0.0140255
0.0048836
0.0201366
0.00709267
0.0272492
0.00967432
0.0353384
0.0125581
0.0443268
0.0156398
0.0540819
0.0644423
0.0187813
0.000180687
0.00119456
0.00072078
0.00416478
0.0016492
0.00796983
0.00299135
0.0126834
0.00476315