/*--------------------------------*- C++ -*----------------------------------*\
  =========                 |
  \\      /  F ield         | OpenFOAM: The Open Source CFD Toolbox
   \\    /   O peration     | Website:  https://openfoam.org
    \\  /    A nd           | Version:  7
     \\/     M anipulation  |
\*---------------------------------------------------------------------------*/
FoamFile
{
    version     2.0;
    format      ascii;
    class       volVectorField;
    location    "30";
    object      U;
}
// * * * * * * * * * * * * * * * * * * * * * * * * * * * * * * * * * * * * * //

dimensions      [0 1 -1 0 0 0 0];

internalField   nonuniform List<vector> 
8500
(
(-0.000760231 0.000601243 3.61844e-22)
(-0.00384225 0.00130989 -1.15852e-21)
(-0.00929042 0.00165785 -1.42756e-21)
(-0.0153853 0.00174083 1.49026e-21)
(-0.0213842 0.0016309 -1.43273e-21)
(-0.0267512 0.00139414 -7.92003e-22)
(-0.031127 0.00109191 1.39406e-21)
(-0.0343765 0.000781652 1.77534e-21)
(-0.0365505 0.000510962 -2.94982e-22)
(-0.037751 0.000323045 8.82254e-22)
(-0.000843717 0.00179043 -4.00617e-22)
(-0.0039804 0.0038977 1.37624e-21)
(-0.00936329 0.00492965 -3.42127e-21)
(-0.0153035 0.00517124 3.25775e-21)
(-0.0210707 0.0048376 1.53187e-22)
(-0.0261388 0.00412611 2.58647e-21)
(-0.0301566 0.00322027 -4.63427e-21)
(-0.0329986 0.00229229 -6.94769e-21)
(-0.0347239 0.00148575 -1.38052e-21)
(-0.0353887 0.000933119 3.17805e-21)
(-0.00100723 0.00294005 3.73362e-22)
(-0.00424838 0.00639037 3.03902e-21)
(-0.0094976 0.00807078 7.54718e-21)
(-0.0151264 0.00844908 -7.15819e-21)
(-0.0204291 0.00788032 -1.68359e-21)
(-0.0248992 0.00669053 -1.58444e-21)
(-0.0282013 0.00518369 8.40587e-21)
(-0.0302288 0.00364631 5.36221e-21)
(-0.0310587 0.00231982 1.31379e-21)
(-0.030651 0.00143441 -9.85163e-21)
(-0.00124395 0.00402479 1.32469e-21)
(-0.00462964 0.00872684 -1.77736e-21)
(-0.00967061 0.0109973 -1.41114e-20)
(-0.0148275 0.0114765 1.30602e-21)
(-0.0194306 0.010654 4.22995e-21)
(-0.0230028 0.00898039 -3.40991e-21)
(-0.025232 0.00687707 -1.57068e-22)
(-0.0260394 0.00474385 -1.4625e-21)
(-0.0255316 0.00292264 3.38481e-21)
(-0.02351 0.00175558 9.80546e-21)
(-0.00154382 0.00502087 9.2673e-22)
(-0.00509968 0.0108495 -5.79794e-21)
(-0.00984841 0.0136301 1.46281e-20)
(-0.0143665 0.0141613 -7.00202e-21)
(-0.0180318 0.0130602 -2.7516e-23)
(-0.020405 0.0108957 1.04266e-20)
(-0.0212047 0.0082026 -4.92326e-21)
(-0.0203882 0.00549208 5.27617e-22)
(-0.0181081 0.00321294 -2.15236e-21)
(-0.0139256 0.00185282 7.74014e-22)
(-0.00189378 0.00590658 1.1157e-20)
(-0.00562641 0.0127053 1.49509e-20)
(-0.00998621 0.0158962 -4.00276e-21)
(-0.0136904 0.0164189 8.0233e-21)
(-0.0161744 0.0150093 2.65598e-21)
(-0.0170458 0.0123464 -3.8964e-21)
(-0.0160601 0.00907287 -1.57743e-21)
(-0.0132163 0.00580882 -6.89196e-21)
(-0.00873075 0.00312155 1.56268e-21)
(-0.00187428 0.00175569 -9.07334e-21)
(-0.00227803 0.00666259 -1.07674e-20)
(-0.0061705 0.0142469 -7.79904e-21)
(-0.0100287 0.0177308 6.76125e-21)
(-0.0127329 0.0181749 -1.2244e-20)
(-0.0137857 0.016423 1.46695e-21)
(-0.0128494 0.013255 1.53941e-20)
(-0.00972277 0.00941432 -2.89762e-21)
(-0.00444945 0.00562884 1.9004e-20)
(0.00271121 0.00257561 -4.65431e-22)
(0.012662 0.00133265 -7.98344e-21)
(-0.00267826 0.0072723 9.21207e-21)
(-0.0066859 0.0154334 -1.83074e-20)
(-0.00991032 0.0190781 -7.6435e-21)
(-0.0114148 0.019366 9.29363e-21)
(-0.0107783 0.0172366 3.66279e-22)
(-0.00772414 0.0135595 -2.89764e-20)
(-0.00209924 0.00916926 -1.7779e-21)
(0.00599409 0.00489327 -1.51556e-20)
(0.0162652 0.00152203 -1.98663e-20)
(0.0298537 0.000484902 1.17396e-20)
(-0.00307392 0.00772195 -5.15579e-21)
(-0.0071203 0.0162308 2.72633e-21)
(-0.00955598 0.0198927 7.10698e-21)
(-0.00964487 0.0199422 -6.7382e-21)
(-0.00705002 0.0174015 -2.42385e-20)
(-0.00156319 0.0132163 8.55933e-21)
(0.00691634 0.00829989 1.23553e-21)
(0.0182236 0.00356816 2.28508e-20)
(0.0320218 -5.09246e-05 3.04637e-20)
(0.0497807 -0.000730247 -1.38614e-20)
(-0.00344246 0.00800068 8.32733e-21)
(-0.00741559 0.0166124 8.33245e-21)
(-0.00888137 0.0201401 -1.21162e-21)
(-0.00731961 0.0198679 3.33791e-20)
(-0.00248484 0.0168864 1.47552e-20)
(0.00575632 0.0122031 1.14201e-20)
(0.0174475 0.00679493 1.6547e-20)
(0.0323592 0.00165381 -7.38781e-21)
(0.0500964 -0.0021545 -1.01801e-20)
(0.0725384 -0.00229687 -1.69561e-20)
(-0.00375952 0.00810048 -6.18145e-22)
(-0.00750841 0.0165593 -1.3255e-20)
(-0.00779375 0.0197976 -9.9883e-21)
(-0.00432444 0.0191226 -1.65894e-20)
(0.00304693 0.0156792 -1.35175e-20)
(0.0143726 0.0105206 1.42522e-20)
(0.0296343 0.0046701 -1.39523e-20)
(0.0485354 -0.0008229 -9.81018e-21)
(0.0706152 -0.0047659 1.33504e-21)
(0.0982406 -0.0041905 4.38484e-21)
(-0.00399901 0.00801597 -2.35128e-20)
(-0.00733071 0.0160601 1.22267e-20)
(-0.00619288 0.0188542 9.25291e-21)
(-0.000534757 0.0177018 6.56835e-21)
(0.0096873 0.0137874 -1.22767e-20)
(0.0244381 0.00819378 -1.05642e-20)
(0.0436315 0.00197114 1.57688e-20)
(0.0669008 -0.00379975 -1.3181e-20)
(0.0937134 -0.00782206 -9.37492e-22)
(0.127009 -0.00635616 -1.4168e-20)
(-0.00413323 0.00774463 2.00656e-20)
(-0.00681026 0.0151114 8.91141e-21)
(-0.00397224 0.0173111 4.68721e-22)
(0.00418242 0.0156167 -1.19735e-20)
(0.0175886 0.0112385 7.34144e-22)
(0.0361174 0.00527277 1.42129e-20)
(0.0596076 -0.00122429 -4.10342e-21)
(0.0876166 -0.00717353 -5.10479e-21)
(0.119535 -0.0112139 -1.15301e-20)
(0.158962 -0.00870213 2.12974e-20)
(-0.00413333 0.00728657 1.41109e-20)
(-0.00587158 0.0137169 -2.43478e-20)
(-0.00102055 0.0151813 -1.95464e-20)
(0.00996611 0.0128943 8.86286e-21)
(0.0269106 0.00807884 1.84715e-20)
(0.0495844 0.00183115 1.61886e-20)
(0.0777414 -0.00480707 -1.74464e-20)
(0.110854 -0.0107972 3.42701e-20)
(0.14823 -0.0147762 -1.0634e-20)
(0.194208 -0.011089 -2.54153e-20)
(-0.00396924 0.00664443 -2.07745e-20)
(-0.0044371 0.0118885 1.36605e-20)
(0.00277609 0.01249 -7.01594e-21)
(0.0169582 0.00957625 8.32651e-22)
(0.0378166 0.0043722 8.04737e-21)
(0.0650177 -0.00203702 -2.54425e-20)
(0.098219 -0.00864047 2.28822e-20)
(0.136795 -0.0144811 -2.29243e-20)
(0.179957 -0.018279 3.6907e-20)
(0.232839 -0.0133188 1.32794e-20)
(-0.00361014 0.00582371 4.70568e-21)
(-0.00242844 0.00964636 2.71656e-20)
(0.00753144 0.00927401 -7.34576e-21)
(0.0252992 0.00571829 7.45421e-21)
(0.0504676 0.000196731 9.09441e-21)
(0.082594 -0.00622264 -2.9098e-21)
(0.121227 -0.0125684 2.011e-20)
(0.165624 -0.0180004 1.21198e-21)
(0.214889 -0.0214255 -2.33661e-20)
(0.274933 -0.0151275 3.21473e-20)
(-0.00302503 0.0048331 -1.2271e-20)
(0.000231772 0.00701873 -2.60702e-20)
(0.0133558 0.00558183 2.33923e-20)
(0.0351233 0.00138892 1.23036e-20)
(0.0650149 -0.00435804 -5.76733e-20)
(0.102479 -0.0106089 4.84308e-20)
(0.146943 -0.0164284 -4.42153e-20)
(0.197527 -0.0211119 9.03965e-22)
(0.253211 -0.0238441 -1.00699e-20)
(0.320546 -0.0161215 -2.9695e-20)
(-0.00218342 0.00368477 1.10537e-20)
(0.00361774 0.00404306 -1.83207e-21)
(0.0203523 0.00147419 -5.74124e-21)
(0.0465519 -0.00333109 -5.86303e-22)
(0.0815912 -0.00919445 -4.02234e-21)
(0.124814 -0.0150802 -1.51947e-20)
(0.175522 -0.020073 6.35286e-21)
(0.232676 -0.0235782 -1.07469e-20)
(0.295092 -0.0250228 3.47082e-21)
(0.369564 -0.0155044 1.73462e-21)
(-0.00105625 0.00239491 -2.26929e-20)
(0.00779815 0.0007665 -2.00478e-21)
(0.0286125 -0.00297549 2.88673e-21)
(0.059687 -0.00834858 1.31798e-21)
(0.1003 -0.0142089 1.91718e-20)
(0.149704 -0.0195339 -5.78309e-20)
(0.207087 -0.0234044 3.93496e-20)
(0.271276 -0.0252312 -3.02311e-20)
(0.340818 -0.024308 2.51346e-20)
(0.421536 -0.0119375 2.66446e-20)
(0.000383152 0.000984038 -2.90696e-21)
(0.0128338 -0.00275342 1.36036e-20)
(0.0382124 -0.00767992 -1.75532e-20)
(0.0746041 -0.0135563 -5.65026e-21)
(0.1212 -0.0192909 1.13272e-20)
(0.177184 -0.023887 5.54192e-20)
(0.241687 -0.0264185 -1.1153e-20)
(0.313601 -0.0261361 5.47212e-21)
(0.39147 -0.0215645 -3.00129e-20)
(0.477762 -0.00563247 1.46492e-20)
(0.00215819 -0.000522724 -8.66013e-21)
(0.0187755 -0.00644818 -7.21111e-21)
(0.0492096 -0.0125364 1.99508e-21)
(0.0913461 -0.0188287 7.21933e-21)
(0.144295 -0.0243133 -2.22042e-20)
(0.207181 -0.0280585 -9.15755e-21)
(0.279141 -0.0291907 -2.95484e-20)
(0.359462 -0.026778 3.02994e-20)
(0.448205 -0.0185548 3.31382e-20)
(0.548222 -0.00252136 -1.22228e-20)
(0.00428836 -0.00209574 -4.32796e-21)
(0.0256631 -0.0102382 1.80889e-20)
(0.0616415 -0.0174254 -2.04945e-20)
(0.109923 -0.0240172 -2.56701e-21)
(0.169527 -0.0291155 -1.04466e-20)
(0.239505 -0.0319117 2.29105e-20)
(0.318951 -0.0317087 2.98338e-20)
(0.407337 -0.0277852 -2.93268e-20)
(0.505398 -0.018733 3.28208e-20)
(0.612846 -0.00949765 5.38518e-21)
(0.006789 -0.00370133 -1.24492e-20)
(0.0335248 -0.0140335 -3.66332e-20)
(0.0755263 -0.0222111 3.69866e-20)
(0.130317 -0.0289475 5.44274e-21)
(0.196805 -0.0334919 7.96426e-21)
(0.27392 -0.0352077 5.3521e-21)
(0.360609 -0.0336585 2.31981e-20)
(0.456176 -0.0285126 1.7271e-20)
(0.561056 -0.0192708 -6.32982e-20)
(0.671623 -0.0143833 -3.24333e-20)
(0.00967128 -0.00530251 -4.21693e-20)
(0.0423772 -0.0177357 9.01948e-21)
(0.0908646 -0.026744 -2.12178e-20)
(0.152487 -0.0334255 4.08736e-21)
(0.226016 -0.0372038 6.84008e-21)
(0.310201 -0.0376465 -5.0508e-20)
(0.403735 -0.0346016 2.31512e-20)
(0.505518 -0.0281178 -1.56448e-20)
(0.615212 -0.0182699 1.69309e-20)
(0.727044 -0.0148829 -6.74703e-21)
(0.0129424 -0.00685998 1.54613e-20)
(0.0522257 -0.0212401 1.7891e-20)
(0.107639 -0.0308658 -1.17647e-21)
(0.176373 -0.0372461 -5.91504e-21)
(0.257033 -0.0400013 6.68331e-23)
(0.348136 -0.0389215 2.17758e-22)
(0.448047 -0.0341373 -3.50005e-20)
(0.555146 -0.0260272 4.87399e-21)
(0.668229 -0.0150356 4.66e-20)
(0.780444 -0.0113641 2.22013e-20)
(0.0166055 -0.00833294 -1.04731e-20)
(0.0630642 -0.0244387 -8.14802e-21)
(0.125816 -0.0344142 3.62443e-20)
(0.201894 -0.0402024 8.83113e-22)
(0.289711 -0.0416391 -1.62017e-20)
(0.387514 -0.0387503 4.40973e-20)
(0.493287 -0.0319418 1.0015e-20)
(0.604863 -0.0218793 7.82194e-22)
(0.720228 -0.00927583 -2.02378e-20)
(0.832102 -0.00417565 -2.82783e-20)
(0.0206599 -0.00967986 2.20216e-20)
(0.0748743 -0.027222 -6.51206e-21)
(0.145343 -0.0372274 -3.88614e-21)
(0.228945 -0.0420933 -1.57221e-20)
(0.323885 -0.0418885 2.60117e-20)
(0.428104 -0.0368879 -1.30951e-20)
(0.539184 -0.0277685 -1.52331e-20)
(0.654426 -0.0154578 -3.54165e-21)
(0.771104 -0.00089421 -1.19485e-20)
(0.881906 0.00632075 1.38338e-20)
(0.0251006 -0.010859 -8.17413e-21)
(0.0876251 -0.0294815 -5.12521e-20)
(0.166145 -0.0391484 5.49948e-21)
(0.257399 -0.0427296 1.93326e-20)
(0.359358 -0.0405452 1.43996e-20)
(0.469647 -0.0331332 -4.89167e-20)
(0.585437 -0.0214452 3.24337e-20)
(0.703535 -0.00666042 -1.5141e-20)
(0.820624 0.0100651 2.39529e-20)
(0.929594 0.0197183 6.83241e-21)
(0.0299184 -0.0118287 -8.8682e-21)
(0.101272 -0.0311113 1.82893e-20)
(0.188129 -0.0400281 2.44005e-20)
(0.287098 -0.0419383 -1.80068e-20)
(0.395908 -0.0374334 6.79451e-21)
(0.511853 -0.0273315 -4.31729e-20)
(0.631711 -0.0128676 -8.21626e-21)
(0.751845 0.00452562 7.27325e-21)
(0.868475 0.0234676 -1.83312e-20)
(0.974844 0.0356058 -1.96783e-20)
(0.0350986 -0.0125481 -1.13208e-20)
(0.115757 -0.0320098 -3.82618e-21)
(0.211178 -0.0397278 -4.40311e-20)
(0.31786 -0.0395667 -7.03368e-21)
(0.43328 -0.0324099 -6.67672e-22)
(0.554405 -0.0193747 2.6694e-21)
(0.677641 -0.00199258 4.4869e-21)
(0.798982 0.0180445 -2.32151e-20)
(0.914309 0.0391234 4.39835e-22)
(1.01733 0.0535852 1.37794e-20)
(0.0406214 -0.012977 -2.85957e-21)
(0.131006 -0.0320806 1.50431e-20)
(0.235156 -0.0381222 2.15704e-20)
(0.349475 -0.0354846 1.39093e-20)
(0.471192 -0.0253652 -4.23446e-21)
(0.596958 -0.00920038 -3.64378e-21)
(0.722846 0.0111692 3.75133e-20)
(0.844558 0.0337869 5.43433e-21)
(0.957773 0.0568068 1.84494e-20)
(1.05674 0.0732766 -8.21462e-21)
(0.0464607 -0.0130768 2.81155e-20)
(0.146929 -0.0312346 1.93094e-20)
(0.2599 -0.0351009 -2.02543e-20)
(0.381708 -0.0295866 -4.12401e-21)
(0.509338 -0.0162251 2.20949e-21)
(0.639148 0.00321029 -8.57456e-21)
(0.766931 0.0265592 -1.93838e-20)
(0.888188 0.0516009 -3.22488e-21)
(0.998533 0.0762698 1.70365e-22)
(1.09281 0.0943221 9.01715e-21)
(0.0525845 -0.0128108 3.21261e-21)
(0.163424 -0.029391 -1.05201e-20)
(0.285231 -0.0305706 2.5735e-20)
(0.414301 -0.0217941 1.72649e-20)
(0.547392 -0.00495048 4.95401e-22)
(0.680602 0.0178343 1.32914e-20)
(0.809506 0.0440767 2.01012e-21)
(0.929507 0.0713014 -1.54484e-20)
(1.03629 0.0972505 1.37012e-20)
(1.12536 0.116388 1.45549e-22)
(0.0589539 -0.012145 -2.28438e-20)
(0.180369 -0.0264795 -7.14167e-21)
(0.310948 -0.0244572 -6.74582e-21)
(0.446977 -0.0120564 -1.20241e-20)
(0.585014 0.00846173 2.91263e-21)
(0.720941 0.0346094 7.98165e-23)
(0.850192 0.0635842 1.08109e-20)
(0.968177 0.0926772 -1.82706e-21)
(1.07078 0.119481 -1.41519e-20)
(1.15424 0.139166 -1.35626e-20)
(0.0655235 -0.0110488 1.81663e-21)
(0.197631 -0.0224412 1.13585e-20)
(0.336833 -0.0167076 5.60555e-21)
(0.479446 -0.000352338 -1.8441e-20)
(0.621858 0.0239796 -1.01067e-21)
(0.759794 0.0534365 -8.83122e-21)
(0.888632 0.0849121 2.42206e-22)
(1.0039 0.115498 4.59804e-21)
(1.10182 0.142692 -5.36437e-21)
(1.17936 0.162376 1.53511e-20)
(0.0722416 -0.00949569 4.18652e-21)
(0.215062 -0.017231 -1.09073e-20)
(0.362654 -0.00729121 -2.67195e-20)
(0.511405 0.0133093 2.5736e-20)
(0.657577 0.0415365 -2.04464e-21)
(0.796802 0.0741826 6.36508e-21)
(0.924496 0.107864 -9.64669e-22)
(1.03642 0.13952 6.85222e-21)
(1.12923 0.16662 -5.29177e-22)
(1.2007 0.185762 -1.18688e-20)
(0.0790505 -0.00746458 -8.33591e-21)
(0.232504 -0.010819 1.39807e-20)
(0.388167 0.00379853 1.20902e-20)
(0.542547 0.0288889 -1.81836e-20)
(0.691828 0.0610327 -3.1724e-21)
(0.831626 0.0966842 1.29352e-21)
(0.957492 0.132223 1.38947e-20)
(1.06552 0.164491 7.62048e-22)
(1.15294 0.191009 2.97319e-21)
(1.21829 0.209097 -6.62523e-21)
(0.085887 -0.00494017 6.29846e-21)
(0.249788 -0.00319179 -6.03929e-21)
(0.413122 0.0165428 -5.23128e-21)
(0.572563 0.0463162 9.56775e-21)
(0.72428 0.0823368 3.54531e-21)
(0.863952 0.120751 2.86655e-21)
(0.987365 0.157752 -1.4136e-20)
(1.09106 0.190156 -5.13215e-21)
(1.17289 0.215612 -4.77291e-21)
(1.23219 0.232176 2.1851e-21)
(0.0926832 -0.00191394 -3.0095e-21)
(0.266739 0.0056458 -6.39065e-23)
(0.437264 0.0308968 9.88175e-21)
(0.601153 0.0654908 -3.86224e-21)
(0.75462 0.105288 -1.79195e-21)
(0.893497 0.146168 -1.26916e-21)
(1.0139 0.184205 3.42798e-21)
(1.11292 0.21626 6.24658e-21)
(1.18908 0.240198 -1.98331e-22)
(1.24251 0.254818 2.4069e-21)
(0.0993677 0.00161516 2.09716e-21)
(0.283175 0.01567 -6.36308e-22)
(0.460339 0.0467891 -1.74366e-21)
(0.628022 0.0862828 -1.67285e-21)
(0.782557 0.129698 1.63312e-21)
(0.920015 0.172703 1.37568e-21)
(1.03694 0.211324 -1.34421e-21)
(1.13103 0.242554 5.22415e-22)
(1.20156 0.264548 7.56219e-22)
(1.24937 0.276863 -1.02023e-21)
(0.105866 0.00564017 1.07532e-21)
(0.298915 0.0268373 3.42857e-22)
(0.482096 0.0641222 -2.07438e-21)
(0.652893 0.108535 -1.78368e-21)
(0.807827 0.155355 2.01016e-21)
(0.943296 0.200107 4.19689e-22)
(1.05636 0.23885 -1.08226e-21)
(1.14537 0.268792 1.06333e-21)
(1.21039 0.28846 6.1437e-22)
(1.25293 0.298169 -7.08098e-22)
(0.112104 0.0101457 -4.38838e-22)
(0.313779 0.0390841 8.992e-22)
(0.502297 0.0827727 6.24878e-21)
(0.675509 0.132063 -2.987e-21)
(0.830198 0.182026 -1.64385e-21)
(0.963168 0.228119 -2.0017e-21)
(1.07206 0.266521 4.34785e-21)
(1.15597 0.294741 3.05992e-21)
(1.21569 0.311744 2.52874e-21)
(1.25336 0.318609 1.38149e-21)
(0.118004 0.0151076 8.14264e-21)
(0.32759 0.0523269 -4.79033e-21)
(0.520714 0.102593 -5.9546e-21)
(0.695636 0.15666 8.6427e-21)
(0.84947 0.209462 4.95816e-21)
(0.979503 0.25647 -3.67474e-22)
(1.08402 0.294078 -7.20534e-21)
(1.16287 0.320175 -5.50781e-21)
(1.21758 0.334227 -5.85366e-21)
(1.25084 0.338071 3.45315e-21)
(0.123494 0.0204931 -1.08682e-20)
(0.340182 0.0664631 1.08817e-20)
(0.537138 0.123412 1.32074e-20)
(0.713068 0.182099 -1.4287e-20)
(0.86548 0.237399 -5.49532e-21)
(0.992211 0.284888 3.83401e-21)
(1.09224 0.321268 7.56696e-21)
(1.16616 0.344882 1.22488e-21)
(1.21622 0.355749 -1.63826e-22)
(1.24555 0.356454 -4.56133e-21)
(0.128502 0.0262608 -1.45261e-21)
(0.351398 0.0813715 -1.4919e-20)
(0.55138 0.145038 -1.70842e-20)
(0.727628 0.208135 2.10823e-20)
(0.878103 0.265564 -2.56858e-21)
(1.00124 0.3131 5.24921e-21)
(1.09674 0.347843 1.12284e-21)
(1.16594 0.36866 -3.33985e-21)
(1.21175 0.376161 1.86585e-21)
(1.23767 0.373667 -1.01297e-22)
(0.13296 0.0323609 2.94353e-21)
(0.361094 0.096914 8.92411e-21)
(0.563276 0.167262 5.58679e-21)
(0.739173 0.23451 -4.7079e-21)
(0.887252 0.293677 -7.88913e-21)
(1.00658 0.340835 -8.37152e-21)
(1.09759 0.373567 -1.80851e-21)
(1.16235 0.391323 4.85289e-21)
(1.20437 0.395326 -1.06878e-21)
(1.22741 0.389627 2.4624e-21)
(0.136806 0.0387361 -1.04268e-20)
(0.369144 0.112937 -1.07907e-20)
(0.572686 0.189859 -1.7412e-21)
(0.747597 0.260955 -2.17144e-21)
(0.892878 0.321457 -5.63812e-21)
(1.00826 0.367829 3.93978e-21)
(1.09489 0.398214 -7.8863e-22)
(1.15554 0.412694 -4.34734e-21)
(1.19424 0.413118 3.99184e-21)
(1.21494 0.40426 -5.20327e-21)
(0.139986 0.0453218 2.97907e-21)
(0.375441 0.129275 9.05875e-21)
(0.579504 0.212593 8.39728e-21)
(0.752827 0.287195 1.01024e-20)
(0.894971 0.348623 4.07646e-22)
(1.00633 0.393824 1.06652e-20)
(1.08876 0.421571 5.99391e-22)
(1.14566 0.43261 -1.37706e-20)
(1.18154 0.429415 9.85344e-21)
(1.20041 0.417489 3.72272e-21)
(0.142452 0.0520475 6.49595e-21)
(0.379898 0.14575 1.51175e-20)
(0.58365 0.235218 -2.35084e-21)
(0.754828 0.312951 -1.23254e-20)
(0.893557 0.3749 6.33315e-21)
(1.00089 0.418576 -7.30792e-21)
(1.07934 0.443439 -9.974e-21)
(1.13289 0.450927 -3.88754e-22)
(1.16644 0.444122 -7.52723e-21)
(1.18389 0.429201 2.6855e-21)
(0.144164 0.0588375 2.59225e-21)
(0.382451 0.162178 1.49896e-21)
(0.58508 0.257483 1.97378e-20)
(0.7536 0.337948 4.32393e-21)
(0.888699 0.40002 -3.93462e-21)
(0.992056 0.441852 -2.43456e-21)
(1.0668 0.463636 1.43027e-20)
(1.11742 0.467517 1.19612e-20)
(1.14914 0.457207 5.86283e-21)
(1.16568 0.439273 -5.6583e-22)
(0.145094 0.0656119 4.24065e-22)
(0.38306 0.178367 -1.48763e-20)
(0.583779 0.279136 -2.25093e-20)
(0.749182 0.361912 6.93722e-22)
(0.880492 0.423725 6.02436e-21)
(0.979977 0.463431 -8.24583e-21)
(1.05131 0.481988 -1.96273e-20)
(1.09943 0.482239 -5.87848e-21)
(1.12981 0.468546 -2.92323e-22)
(1.14603 0.447795 1.14565e-21)
(0.145223 0.0722883 -4.10675e-21)
(0.381709 0.194124 1.06233e-20)
(0.579767 0.299926 1.28367e-20)
(0.741644 0.384579 -1.30147e-20)
(0.869066 0.44577 2.27717e-21)
(0.964826 0.483114 1.81287e-20)
(1.03307 0.498346 -2.96888e-21)
(1.07912 0.494997 3.20775e-21)
(1.10858 0.478026 -5.87591e-22)
(1.12502 0.454674 -3.89175e-22)
(0.144542 0.0787826 -7.92983e-21)
(0.378406 0.209256 -1.7137e-20)
(0.573095 0.319608 -3.8861e-21)
(0.731094 0.405695 7.10906e-21)
(0.85458 0.465927 7.28678e-21)
(0.946799 0.500714 -1.68521e-20)
(1.01229 0.512575 9.0785e-21)
(1.05667 0.505699 -2.90246e-21)
(1.08566 0.485589 1.09371e-21)
(1.10274 0.459817 6.37425e-22)
(0.143054 0.0850112 6.14127e-21)
(0.373185 0.223573 1.17979e-21)
(0.563845 0.337944 -1.36297e-21)
(0.71767 0.425019 -7.36662e-21)
(0.837217 0.483984 4.24156e-21)
(0.926114 0.516066 2.31498e-21)
(0.989196 0.524556 -2.84872e-21)
(1.03228 0.514269 2.12564e-21)
(1.06118 0.491182 1.01879e-21)
(1.07932 0.463154 -2.96472e-21)
(0.140773 0.0908918 -1.01957e-21)
(0.366102 0.23689 -7.60988e-22)
(0.552129 0.354706 5.41799e-21)
(0.701536 0.442327 3.26758e-21)
(0.817188 0.499746 -5.81162e-21)
(0.903008 0.529023 5.23075e-21)
(0.964022 0.534193 1.46684e-21)
(1.00617 0.520645 2.72113e-21)
(1.03529 0.49476 6.55563e-21)
(1.05487 0.464618 1.17635e-21)
(0.137717 0.0963416 5.32451e-21)
(0.35724 0.249031 5.64928e-21)
(0.538087 0.369682 -1.94356e-21)
(0.682885 0.45741 -5.75186e-22)
(0.794731 0.513041 -1.92801e-21)
(0.877736 0.539456 -1.08399e-21)
(0.937018 0.541403 2.63784e-21)
(0.978534 0.524788 1.39842e-23)
(1.00812 0.496298 -5.82184e-21)
(1.02946 0.464136 -7.30744e-21)
(0.133922 0.101279 -2.19146e-21)
(0.346701 0.25983 -7.91909e-22)
(0.521883 0.382675 -2.77905e-21)
(0.661937 0.470081 8.69212e-22)
(0.770099 0.523714 -3.00892e-21)
(0.850568 0.547258 6.77799e-21)
(0.90845 0.546125 -8.35626e-22)
(0.949605 0.526676 1.14157e-21)
(0.979791 0.495782 -5.51522e-21)
(1.00316 0.461623 8.69023e-21)
(0.129436 0.105632 -2.04311e-21)
(0.334607 0.269128 4.12869e-22)
(0.503705 0.393508 -1.66016e-21)
(0.638929 0.480174 -2.41409e-21)
(0.74356 0.531632 -1.84231e-21)
(0.821786 0.552338 -3.14883e-22)
(0.878597 0.548313 3.2889e-21)
(0.919617 0.526308 -1.51508e-20)
(0.950398 0.493219 3.24407e-20)
(0.975999 0.456954 1.3205e-20)
(0.124309 0.109336 4.73825e-22)
(0.321095 0.276787 -8.89916e-21)
(0.48376 0.402019 6.83495e-21)
(0.614117 0.487542 -1.37443e-21)
(0.715397 0.536681 3.42065e-21)
(0.791686 0.554621 -5.85005e-21)
(0.847756 0.547938 -1.12264e-20)
(0.888838 0.523713 5.91432e-21)
(0.920111 0.488664 -2.68949e-21)
(0.947918 0.450015 -6.46131e-21)
(0.118603 0.112329 -2.03091e-21)
(0.306322 0.282685 2.33673e-21)
(0.462274 0.408071 -4.48915e-21)
(0.587769 0.492065 4.61979e-21)
(0.685901 0.538771 8.78366e-21)
(0.760567 0.55405 5.64984e-21)
(0.816237 0.544978 1.94166e-20)
(0.857612 0.518944 -1.40971e-20)
(0.889348 0.482338 -2.80645e-20)
(0.918674 0.441212 1.15236e-20)
(0.112382 0.114556 -4.81269e-21)
(0.290459 0.286713 -4.50086e-21)
(0.439485 0.41155 1.60074e-21)
(0.560165 0.493644 1.40539e-20)
(0.655366 0.537828 -1.62665e-20)
(0.72872 0.550572 -2.22542e-20)
(0.78434 0.539393 -7.18553e-21)
(0.826376 0.511973 -9.48138e-22)
(0.85904 0.474515 3.53152e-20)
(0.887888 0.430972 -9.2947e-21)
(0.105723 0.11597 1.43008e-20)
(0.273687 0.288785 -4.93313e-22)
(0.415642 0.412365 -2.69375e-21)
(0.531587 0.492208 -1.33945e-22)
(0.62408 0.533806 -8.17964e-21)
(0.69642 0.544157 4.01321e-20)
(0.752327 0.531123 -2.76964e-20)
(0.795536 0.502557 3.47577e-20)
(0.830169 0.46471 -2.58674e-20)
(0.861112 0.421243 -3.49125e-20)
(0.0987037 0.116534 -6.72724e-21)
(0.256197 0.288833 3.11582e-21)
(0.391005 0.410452 -1.26159e-21)
(0.502327 0.487713 1.34005e-20)
(0.592334 0.526685 -4.47384e-21)
(0.663922 0.534803 7.10457e-21)
(0.720379 0.520182 1.65995e-20)
(0.765026 0.490721 -9.09743e-21)
(0.801697 0.452647 -2.34705e-20)
(0.83438 0.409679 3.44124e-20)
(0.0914097 0.11622 1.34927e-20)
(0.238189 0.286811 1.90741e-20)
(0.365838 0.405773 -1.5943e-20)
(0.472675 0.480142 -1.40213e-20)
(0.560413 0.516474 4.1453e-20)
(0.631486 0.522543 -4.26933e-20)
(0.6887 0.506628 5.24854e-20)
(0.734944 0.476598 -1.42197e-20)
(0.773654 0.438602 1.59346e-20)
(0.808057 0.396474 2.99233e-20)
(0.0839281 0.11501 -6.34176e-21)
(0.219865 0.282692 -1.70895e-20)
(0.340408 0.398317 -6.94412e-21)
(0.442925 0.469506 -4.61198e-21)
(0.528607 0.503205 3.55439e-21)
(0.599372 0.507428 -1.02571e-20)
(0.657515 0.490527 -1.58086e-20)
(0.705474 0.460283 -3.52313e-20)
(0.74626 0.422734 3.6507e-20)
(0.782483 0.381769 -1.26724e-20)
(0.0763489 0.112894 2.3364e-20)
(0.201433 0.276472 -1.53516e-21)
(0.314985 0.388097 -9.13951e-21)
(0.413368 0.455842 1.34779e-20)
(0.4972 0.486935 -2.47293e-20)
(0.567842 0.489527 6.65563e-20)
(0.627052 0.471954 -3.70882e-20)
(0.676813 0.441848 3.56804e-20)
(0.719706 0.4051 -6.93426e-20)
(0.757823 0.36558 -1.92004e-20)
(0.0687629 0.109874 -9.70508e-21)
(0.1831 0.26817 2.50348e-20)
(0.289836 0.375153 6.63613e-21)
(0.384291 0.439211 -1.15728e-20)
(0.466472 0.46774 -2.07523e-20)
(0.53715 0.468923 -1.27275e-21)
(0.597534 0.450992 1.24075e-20)
(0.649154 0.421363 -3.16317e-20)
(0.694163 0.385742 1.69077e-20)
(0.734219 0.347916 2.22197e-21)
(0.0612609 0.10596 -3.69631e-20)
(0.165069 0.257821 -9.99525e-21)
(0.265222 0.35955 -2.52734e-21)
(0.355975 0.419699 2.93421e-20)
(0.436693 0.445718 -2.80743e-20)
(0.507543 0.445717 -7.94642e-21)
(0.569178 0.427733 -4.92756e-21)
(0.622681 0.398907 9.84411e-21)
(0.669796 0.364714 -1.29522e-20)
(0.711803 0.328801 -2.14324e-20)
(0.0539326 0.101175 3.05222e-20)
(0.147541 0.245486 -1.75406e-20)
(0.2414 0.341377 1.11763e-21)
(0.32869 0.397415 -4.41536e-20)
(0.408124 0.420988 4.95811e-20)
(0.479254 0.420025 -1.65435e-20)
(0.542188 0.402282 1.04652e-20)
(0.59757 0.374566 9.66573e-21)
(0.646751 0.342078 2.96208e-20)
(0.690694 0.308275 -1.24871e-20)
(0.046865 0.0955468 -1.23828e-20)
(0.130711 0.231241 3.64681e-20)
(0.218613 0.320744 2.05069e-20)
(0.302695 0.372489 3.37575e-20)
(0.38101 0.393686 -8.36631e-21)
(0.452506 0.391978 3.39221e-21)
(0.516753 0.374757 2.95933e-20)
(0.573979 0.348439 6.89453e-21)
(0.625162 0.31791 6.69806e-22)
(0.670994 0.2864 -1.49374e-20)
(0.0401421 0.089116 -2.63112e-20)
(0.114763 0.215184 -2.10057e-21)
(0.197094 0.297787 -1.16339e-20)
(0.278232 0.345074 -5.34904e-20)
(0.355584 0.363967 -5.41744e-20)
(0.427505 0.361722 9.55294e-21)
(0.493053 0.345288 -2.49523e-20)
(0.552058 0.320636 1.68713e-20)
(0.605152 0.292298 9.77535e-21)
(0.652797 0.263248 2.15637e-20)
(0.0338435 0.0819301 3.71101e-20)
(0.0998723 0.197429 -3.22177e-20)
(0.177063 0.272658 -1.64104e-20)
(0.255531 0.315343 3.08978e-20)
(0.332059 0.332006 3.65278e-20)
(0.404441 0.329421 -1.26746e-20)
(0.471248 0.314018 -1.63814e-21)
(0.531941 0.291277 -5.23019e-20)
(0.586828 0.265342 -3.13211e-20)
(0.636185 0.238909 1.26851e-20)
(0.0280433 0.074045 -2.10346e-20)
(0.0862006 0.178108 9.45387e-21)
(0.158721 0.245532 3.50068e-20)
(0.234799 0.283486 -1.59849e-20)
(0.310635 0.297991 1.22758e-21)
(0.38349 0.295249 5.11651e-20)
(0.451488 0.281104 2.54604e-21)
(0.513749 0.260497 4.9888e-20)
(0.570291 0.237156 2.21379e-20)
(0.621231 0.21348 -3.70769e-20)
(0.02281 0.0655243 2.80605e-20)
(0.0738966 0.157366 3.24373e-21)
(0.142251 0.2166 2.24985e-21)
(0.216229 0.249712 3.28245e-20)
(0.291488 0.262127 -4.66878e-21)
(0.364808 0.259395 -3.19858e-20)
(0.433903 0.24671 1.67477e-20)
(0.497591 0.228437 -2.81045e-20)
(0.555628 0.207859 -1.24526e-20)
(0.608002 0.187068 1.34801e-20)
(0.0182049 0.0564382 -1.75283e-20)
(0.0630935 0.135363 -3.53667e-20)
(0.127819 0.186069 8.32841e-21)
(0.199988 0.214244 -1.71604e-20)
(0.274776 0.224633 -1.10533e-20)
(0.348533 0.222059 2.83268e-20)
(0.418612 0.211013 -7.2068e-21)
(0.483563 0.195249 7.21581e-21)
(0.542915 0.177582 -9.32523e-21)
(0.596555 0.159791 1.93251e-20)
(0.0142821 0.0468629 6.20665e-21)
(0.0539076 0.112274 2.36529e-20)
(0.115567 0.154161 -3.3785e-20)
(0.186225 0.17732 1.67936e-20)
(0.260637 0.185738 -8.07919e-21)
(0.334785 0.183451 -2.42164e-20)
(0.405713 0.174199 2.10033e-20)
(0.471746 0.161093 4.79562e-21)
(0.532218 0.146465 -6.84229e-22)
(0.586939 0.13177 -2.26042e-20)
(0.0110873 0.0368801 1.97258e-21)
(0.0464378 0.0882792 7.46628e-21)
(0.105618 0.121108 3.03967e-20)
(0.175063 0.139187 -6.10921e-21)
(0.249186 0.145682 -5.10218e-21)
(0.323664 0.14379 2.00574e-21)
(0.395293 0.136459 8.77839e-22)
(0.462209 0.126136 8.31794e-21)
(0.523594 0.11465 -1.16022e-20)
(0.579195 0.103134 -7.79071e-21)
(0.00865804 0.0265757 -5.01242e-21)
(0.0407643 0.0635718 -9.13921e-21)
(0.0980691 0.0871559 -2.35261e-20)
(0.166602 0.100104 1.24211e-20)
(0.240516 0.104716 1.07376e-20)
(0.315253 0.103302 4.60778e-22)
(0.387418 0.0979939 -2.04607e-20)
(0.455008 0.0905504 -9.67782e-21)
(0.517086 0.0822871 8.13667e-21)
(0.573358 0.0740149 9.22177e-21)
(0.0070226 0.016039 8.70607e-22)
(0.036948 0.0383502 -1.89167e-21)
(0.0929948 0.0525547 4.4642e-21)
(0.16092 0.0603377 -3.17725e-21)
(0.234696 0.063093 -2.95641e-21)
(0.309611 0.0622203 -2.12465e-21)
(0.38214 0.0590062 4.1934e-21)
(0.450185 0.0545121 1.69794e-20)
(0.512729 0.0495306 2.60182e-21)
(0.569452 0.0445485 -4.92026e-21)
(0.00620008 0.00536199 1.06909e-21)
(0.0350295 0.012818 -3.13107e-21)
(0.0904451 0.0175619 -3.6833e-21)
(0.158066 0.0201585 -2.68585e-21)
(0.231775 0.0210751 2.7193e-21)
(0.30678 0.02078 1.30458e-21)
(0.379492 0.0197038 -1.38096e-21)
(0.447766 0.0182011 -6.71729e-21)
(0.510545 0.0165367 2.34085e-21)
(0.567495 0.0148728 -2.32584e-21)
(0.00620008 -0.00536199 -1.06909e-21)
(0.0350295 -0.012818 3.13107e-21)
(0.0904451 -0.0175619 3.6833e-21)
(0.158066 -0.0201585 -3.71046e-21)
(0.231775 -0.0210751 3.46001e-21)
(0.30678 -0.02078 1.84791e-21)
(0.379492 -0.0197038 -3.1477e-21)
(0.447766 -0.0182011 -3.88794e-21)
(0.510545 -0.0165367 6.14976e-22)
(0.567495 -0.0148728 -1.82083e-21)
(0.0070226 -0.016039 1.163e-21)
(0.036948 -0.0383502 -3.73529e-21)
(0.0929948 -0.0525547 8.70401e-21)
(0.16092 -0.0603377 -8.03291e-21)
(0.234696 -0.063093 -3.9045e-22)
(0.309611 -0.0622203 -6.02e-21)
(0.38214 -0.0590062 1.04319e-20)
(0.450185 -0.0545121 1.5115e-20)
(0.512729 -0.0495306 2.87991e-21)
(0.569452 -0.0445485 -6.52981e-21)
(0.00865804 -0.0265757 -1.01427e-21)
(0.0407643 -0.0635718 -7.9498e-21)
(0.0980691 -0.0871559 -1.91335e-20)
(0.166602 -0.100104 1.74059e-20)
(0.240516 -0.104716 3.83967e-21)
(0.315253 -0.103302 3.60496e-21)
(0.387418 -0.0979939 -1.87568e-20)
(0.455008 -0.0905504 -1.17315e-20)
(0.517086 -0.0822871 -2.78956e-21)
(0.573358 -0.0740149 2.01794e-20)
(0.0110873 -0.0368801 -3.62022e-21)
(0.0464378 -0.0882792 4.7972e-21)
(0.105618 -0.121108 3.49123e-20)
(0.175063 -0.139187 -3.2578e-21)
(0.249186 -0.145682 -9.93033e-21)
(0.323664 -0.14379 7.62285e-21)
(0.395293 -0.136459 5.48086e-22)
(0.462209 -0.126136 3.0548e-21)
(0.523594 -0.11465 -7.04132e-21)
(0.579195 -0.103134 -1.97684e-20)
(0.0142821 -0.0468629 -2.53588e-21)
(0.0539076 -0.112274 1.42511e-20)
(0.115567 -0.154161 -3.5299e-20)
(0.186225 -0.17732 1.61097e-20)
(0.260637 -0.185738 1.47878e-22)
(0.334785 -0.183451 -2.2894e-20)
(0.405713 -0.174199 1.07337e-20)
(0.471746 -0.161093 -1.12638e-21)
(0.532218 -0.146465 4.52348e-21)
(0.586939 -0.13177 -1.46914e-21)
(0.0182049 -0.0564382 -2.87406e-20)
(0.0630935 -0.135363 -3.61917e-20)
(0.127819 -0.186069 9.66064e-21)
(0.199988 -0.214244 -1.84419e-20)
(0.274776 -0.224633 -5.57236e-21)
(0.348533 -0.222059 8.67545e-21)
(0.418612 -0.211013 3.38641e-21)
(0.483563 -0.195249 1.37433e-20)
(0.542915 -0.177582 -3.08619e-21)
(0.596555 -0.159791 1.78332e-20)
(0.02281 -0.0655243 2.75229e-20)
(0.0738966 -0.157366 1.85161e-20)
(0.142251 -0.2166 -1.48916e-20)
(0.216229 -0.249712 2.58771e-20)
(0.291488 -0.262127 -2.45444e-21)
(0.364808 -0.259395 -3.12598e-20)
(0.433903 -0.24671 5.7652e-21)
(0.497591 -0.228437 -3.75713e-20)
(0.555628 -0.207859 1.33562e-21)
(0.608002 -0.187068 1.52103e-20)
(0.0280433 -0.074045 -2.12347e-20)
(0.0862006 -0.178108 3.99215e-20)