/*--------------------------------*- C++ -*----------------------------------*\
  =========                 |
  \\      /  F ield         | OpenFOAM: The Open Source CFD Toolbox
   \\    /   O peration     | Website:  https://openfoam.org
    \\  /    A nd           | Version:  7
     \\/     M anipulation  |
\*---------------------------------------------------------------------------*/
FoamFile
{
    version     2.0;
    format      ascii;
    class       volVectorField;
    location    "340";
    object      U;
}
// * * * * * * * * * * * * * * * * * * * * * * * * * * * * * * * * * * * * * //

dimensions      [0 1 -1 0 0 0 0];

internalField   nonuniform List<vector> 
8500
(
(0.000472164 -0.0657679 1.08828e-21)
(-0.0029335 -0.154462 -3.11889e-21)
(-0.0138781 -0.211272 -3.6354e-21)
(-0.0294814 -0.242649 3.61591e-21)
(-0.0477219 -0.25727 -3.3296e-21)
(-0.0665621 -0.263304 -1.78586e-21)
(-0.0844784 -0.266206 3.08235e-21)
(-0.100724 -0.268023 3.83557e-21)
(-0.114646 -0.267902 -6.35701e-22)
(-0.125738 -0.26263 1.91851e-21)
(0.00233113 -0.0634407 -1.20441e-21)
(1.20139e-05 -0.148225 3.70917e-21)
(-0.0122763 -0.202133 -8.55258e-21)
(-0.0301422 -0.231788 7.75958e-21)
(-0.0509973 -0.24585 3.66398e-22)
(-0.0725319 -0.252228 5.78411e-21)
(-0.0932109 -0.256029 -1.00967e-20)
(-0.112492 -0.258989 -1.49051e-20)
(-0.129925 -0.260044 -2.89823e-21)
(-0.145398 -0.255848 6.65259e-21)
(0.00394163 -0.0601792 1.05473e-21)
(0.00245402 -0.140258 7.92294e-21)
(-0.0111363 -0.191123 1.87589e-20)
(-0.0310042 -0.219216 -1.69956e-20)
(-0.0540353 -0.23295 -3.79137e-21)
(-0.0776643 -0.239845 -3.51416e-21)
(-0.100325 -0.244597 1.78892e-20)
(-0.121637 -0.248616 1.13473e-20)
(-0.141292 -0.250625 2.91763e-21)
(-0.159449 -0.247204 -2.04828e-20)
(0.00522356 -0.0560607 3.71843e-21)
(0.00427952 -0.130743 -4.68709e-21)
(-0.0105341 -0.178482 -3.44477e-20)
(-0.0320992 -0.205194 3.10387e-21)
(-0.0568339 -0.218843 9.52361e-21)
(-0.0819354 -0.226445 -7.34097e-21)
(-0.105775 -0.232246 -6.17489e-22)
(-0.128071 -0.237309 -2.95984e-21)
(-0.148579 -0.240118 6.90749e-21)
(-0.167567 -0.237198 1.97846e-20)
(0.00610931 -0.0511883 2.53314e-21)
(0.00539828 -0.1199 -1.45381e-20)
(-0.0105257 -0.164471 3.52395e-20)
(-0.0334461 -0.18999 -1.58767e-20)
(-0.0593894 -0.203793 -9.11721e-23)
(-0.0853365 -0.21231 2.20546e-20)
(-0.109558 -0.219311 -1.02674e-20)
(-0.131795 -0.225497 1.27238e-21)
(-0.151785 -0.229054 -4.21298e-21)
(-0.169672 -0.226407 1.08767e-21)
(0.00654754 -0.0456862 3.02349e-20)
(0.0057488 -0.107973 3.71238e-20)
(-0.0111386 -0.149366 -9.6158e-21)
(-0.0350396 -0.173869 1.8251e-20)
(-0.0616786 -0.188051 5.60728e-21)
(-0.0878479 -0.197698 -8.25992e-21)
(-0.111679 -0.2061 -3.12394e-21)
(-0.132856 -0.21359 -1.33451e-20)
(-0.151022 -0.217979 2.87337e-21)
(-0.165867 -0.215455 -1.74385e-20)
(0.00650643 -0.0396959 -2.91037e-20)
(0.00530372 -0.0952253 -1.92892e-20)
(-0.0123645 -0.133448 1.55143e-20)
(-0.0368378 -0.157088 -2.68664e-20)
(-0.0636386 -0.171842 2.92928e-21)
(-0.0894064 -0.182822 3.14603e-20)
(-0.112103 -0.19286 -5.63526e-21)
(-0.131274 -0.201933 3.68616e-20)
(-0.146425 -0.207405 -1.04865e-21)
(-0.156308 -0.204968 -1.43933e-20)
(0.00597636 -0.0333727 2.38806e-20)
(0.0040742 -0.0819354 -4.36117e-20)
(-0.0141527 -0.117005 -1.73973e-20)
(-0.0387508 -0.139897 2.06194e-20)
(-0.0651468 -0.155363 5.36309e-22)
(-0.0898699 -0.167843 -5.87863e-20)
(-0.11069 -0.179752 -3.30938e-21)
(-0.12695 -0.190759 -2.86928e-20)
(-0.138023 -0.197733 -3.63041e-20)
(-0.141045 -0.195514 2.09128e-20)
(0.0049718 -0.0268817 -1.32885e-20)
(0.00211268 -0.0683916 6.55712e-21)
(-0.0164054 -0.100326 1.59762e-20)
(-0.0406328 -0.122533 -1.40916e-20)
(-0.0660043 -0.138787 -5.00241e-20)
(-0.0889859 -0.152867 1.73267e-20)
(-0.107146 -0.166835 2.58404e-21)
(-0.119566 -0.180138 4.2655e-20)
(-0.125595 -0.189173 5.45849e-20)
(-0.119819 -0.187488 -2.41248e-20)
(0.00353209 -0.0203938 2.06226e-20)
(-0.000486576 -0.0548882 1.8937e-20)
(-0.0189775 -0.0837026 -2.76492e-21)
(-0.0422796 -0.105236 7.06045e-20)
(-0.0659295 -0.122272 3.00715e-20)
(-0.0863736 -0.137956 2.25028e-20)
(-0.100976 -0.154069 3.15769e-20)
(-0.108505 -0.169952 -1.39055e-20)
(-0.108539 -0.181682 -1.81173e-20)
(-0.0918773 -0.180999 -2.80808e-20)
(0.00172072 -0.0140805 -2.09775e-21)
(-0.00359 -0.0417203 -2.99292e-20)
(-0.0216807 -0.0674325 -2.15833e-20)
(-0.0434348 -0.0882481 -3.47449e-20)
(-0.064564 -0.10598 -2.75016e-20)
(-0.0815289 -0.12316 2.76667e-20)
(-0.0914887 -0.141348 -2.63679e-20)
(-0.0928319 -0.159912 -1.7971e-20)
(-0.0858168 -0.174919 2.31457e-21)
(-0.0559009 -0.175707 7.81602e-21)
(-0.000377375 -0.00810818 -5.64611e-20)
(-0.0070304 -0.0291786 2.72424e-20)
(-0.0242927 -0.0518156 1.99783e-20)
(-0.0438028 -0.0718297 1.33797e-20)
(-0.061495 -0.0900952 -2.44094e-20)
(-0.0738566 -0.108549 -2.05278e-20)
(-0.0778381 -0.128558 2.95185e-20)
(-0.0713486 -0.14962 -2.37344e-20)
(-0.0559973 -0.16829 -1.79517e-21)
(-0.0102222 -0.170555 -2.26886e-20)
(-0.00266037 -0.00263051 4.71742e-20)
(-0.0106157 -0.0175407 1.93845e-20)
(-0.0265699 -0.0371536 1.17485e-21)
(-0.0430701 -0.0562602 -2.4352e-20)
(-0.0562898 -0.0748484 1.75238e-21)
(-0.0627304 -0.094265 2.70853e-20)
(-0.0591241 -0.115668 -7.59292e-21)
(-0.0427416 -0.138715 -9.04541e-21)
(-0.0172609 -0.161194 -1.93301e-20)
(0.0466621 -0.163581 3.48965e-20)
(-0.00501528 0.00221824 3.19089e-20)
(-0.0141392 -0.0070617 -5.21862e-20)
(-0.0282625 -0.0237418 -4.04924e-20)
(-0.0409276 -0.0418383 1.75277e-20)
(-0.0485359 -0.06052 3.59354e-20)
(-0.047569 -0.0805412 3.05253e-20)
(-0.0345385 -0.102793 -3.21544e-20)
(-0.00591054 -0.127032 6.09759e-20)
(0.0326609 -0.153442 -1.82578e-20)
(0.116043 -0.152978 -3.95739e-20)
(-0.00732618 0.0063335 -4.79366e-20)
(-0.017389 0.00203839 2.90459e-20)
(-0.0291235 -0.0118613 -1.40939e-20)
(-0.0370885 -0.0288701 1.46564e-21)
(-0.0378723 -0.0474312 1.52384e-20)
(-0.0278919 -0.0676985 -4.82128e-20)
(-0.00346951 -0.0902012 4.22804e-20)
(0.0395106 -0.114636 -4.06703e-20)
(0.095326 -0.144617 6.28747e-20)
(0.199469 -0.138725 2.12378e-20)
(-0.00948395 0.00964655 1.02304e-20)
(-0.0201631 0.00958619 5.67035e-20)
(-0.0289191 -0.00175816 -1.43607e-20)
(-0.0312888 -0.0176526 1.46031e-20)
(-0.0239966 -0.0359154 1.71902e-20)
(-0.0033326 -0.0561059 -5.20465e-21)
(0.0346022 -0.0783022 3.66409e-20)
(0.0936855 -0.102017 2.16748e-21)
(0.170062 -0.134036 -3.93998e-20)
(0.295867 -0.121589 5.06557e-20)
(-0.0113915 0.0121275 -2.72529e-20)
(-0.0222715 0.0154675 -5.37526e-20)
(-0.0274333 0.00637383 4.68807e-20)
(-0.0232891 -0.00843776 2.3699e-20)
(-0.00664823 -0.0262676 -1.10244e-19)
(0.0263415 -0.0461213 9.00146e-20)
(0.0798637 -0.0675126 -8.05973e-20)
(0.156874 -0.0898816 1.50412e-21)
(0.256094 -0.121484 -1.68016e-20)
(0.400432 -0.101963 -4.60041e-20)
(-0.0129696 0.0137866 2.37343e-20)
(-0.0235404 0.0196331 -3.25412e-21)
(-0.0244514 0.0124102 -1.15072e-20)
(-0.0128491 -0.00140031 -1.29221e-21)
(0.0144378 -0.0186968 -6.95935e-21)
(0.0613874 -0.0379667 -2.85979e-20)
(0.132351 -0.0580616 1.18988e-20)
(0.22877 -0.0786027 -1.8909e-20)
(0.352686 -0.106652 6.06811e-21)
(0.506856 -0.0802673 1.6857e-21)
(-0.0141592 0.0146704 -4.84861e-20)
(-0.0238098 0.0221019 -3.55771e-21)
(-0.0197518 0.0163107 5.36772e-21)
(0.000308066 0.00337625 2.19865e-21)
(0.0395794 -0.0132893 3.62201e-20)
(0.102123 -0.0316942 -1.05781e-19)
(0.192228 -0.0499633 7.0629e-20)
(0.309062 -0.0682475 -5.2279e-20)
(0.458125 -0.0884775 4.13212e-20)
(0.609241 -0.0577451 4.23823e-20)
(-0.0149201 0.0148547 -5.95909e-21)
(-0.0229275 0.0229582 2.71205e-20)
(-0.013088 0.0181253 -3.42842e-20)
(0.0165179 0.00593011 -1.08098e-20)
(0.0691898 -0.00996616 2.09174e-20)
(0.148961 -0.0271267 1.00587e-19)
(0.259633 -0.0429334 -1.99233e-20)
(0.397554 -0.0584001 9.85987e-21)
(0.569373 -0.0663404 -4.87308e-20)
(0.705839 -0.0397537 2.02446e-20)
(-0.0152252 0.0144343 -1.78192e-20)
(-0.0207416 0.0223439 -1.38852e-20)
(-0.0041723 0.0179993 3.39225e-21)
(0.036198 0.00643642 1.35817e-20)
(0.103787 -0.00846919 -4.04139e-20)
(0.202394 -0.0238589 -1.64167e-20)
(0.334558 -0.0364313 -5.11945e-20)
(0.493411 -0.0479273 5.08369e-20)
(0.681075 -0.0425445 5.14545e-20)
(0.801167 -0.0349231 -2.07524e-20)
(-0.0150526 0.0135126 -8.49295e-21)
(-0.0170877 0.0204458 3.46052e-20)
(0.00733052 0.0161706 -3.89709e-20)
(0.0598528 0.00520606 -4.55024e-21)
(0.143976 -0.00835943 -1.84715e-20)
(0.262886 -0.0212595 4.02441e-20)
(0.416705 -0.0296939 5.14875e-20)
(0.594482 -0.0356428 -4.81755e-20)
(0.786263 -0.0230278 4.9037e-20)
(0.919202 -0.0259354 6.2199e-21)
(-0.0143762 0.0121912 -2.4574e-20)
(-0.0117777 0.0174819 -7.00944e-20)
(0.0218071 0.0129586 6.86203e-20)
(0.0880517 0.00267894 9.94737e-21)
(0.190371 -0.00902959 1.46906e-20)
(0.33069 -0.0185216 8.62537e-21)
(0.505205 -0.0218678 3.89745e-20)
(0.697304 -0.021338 2.79731e-20)
(0.887011 -0.00510329 -9.59488e-20)
(1.02169 -0.00579605 -4.44086e-20)
(-0.0131564 0.0105621 -8.41046e-20)
(-0.00459421 0.0136888 1.69889e-20)
(0.0396871 0.00874668 -3.86987e-20)
(0.121384 -0.000596648 7.59851e-21)
(0.243487 -0.00973951 1.23112e-20)
(0.405631 -0.0147571 -8.73435e-20)
(0.598359 -0.0121791 3.79928e-20)
(0.798355 -0.00515932 -2.50746e-20)
(0.979769 0.0134646 2.58336e-20)
(1.10357 0.014817 -8.60152e-21)
(-0.0113334 0.00870421 3.04062e-20)
(0.00470932 0.00931056 3.28025e-20)
(0.0614189 0.0039638 -1.79258e-21)
(0.160388 -0.00399311 -1.06522e-20)
(0.303581 -0.00967445 4.86884e-22)
(0.486901 -0.0091292 8.78491e-22)
(0.693639 -0.000144963 -5.78443e-20)
(0.894258 0.0126412 7.60391e-21)
(1.06137 0.0324602 6.82117e-20)
(1.17001 0.0352757 2.93708e-20)
(-0.00882367 0.00668289 -2.05778e-20)
(0.0164026 0.00459137 -1.53305e-20)
(0.0874331 -0.000932972 6.57686e-20)
(0.205464 -0.00683993 1.67072e-21)
(0.370501 -0.00802211 -2.74595e-20)
(0.572966 -0.000994191 7.3964e-20)
(0.78802 0.014333 1.58903e-20)
(0.982095 0.0316377 5.68803e-22)
(1.13072 0.0515486 -3.01542e-20)
(1.22088 0.0548174 -3.75701e-20)
(-0.00552117 0.00455406 4.29056e-20)
(0.0307655 -0.000225677 -1.20337e-20)
(0.118101 -0.00547466 -7.13769e-21)
(0.256785 -0.00846232 -2.72879e-20)
(0.443565 -0.00406125 4.49586e-20)
(0.661636 0.0099956 -2.20643e-20)
(0.878466 0.031014 -2.44876e-20)
(1.05989 0.0513447 -5.91778e-21)
(1.18755 0.07033 -1.72538e-20)
(1.259 0.0731037 1.78594e-20)
(-0.00130278 0.00237037 -1.58258e-20)
(0.0480682 -0.00489575 -9.38647e-20)
(0.153687 -0.00919148 9.8198e-21)
(0.314214 -0.00821978 3.38067e-20)
(0.521527 0.00275274 2.42927e-20)
(0.750338 0.0238655 -8.03146e-20)
(0.962403 0.049456 5.09072e-20)
(1.12668 0.0713048 -2.2877e-20)
(1.23266 0.0885107 3.35037e-20)
(1.2864 0.0901608 8.91442e-21)
(0.0039634 0.000188618 -1.72723e-20)
(0.0685497 -0.00916604 3.33575e-20)
(0.19431 -0.0116197 4.34158e-20)
(0.377254 -0.0055445 -3.12492e-20)
(0.602651 0.0127281 1.15508e-20)
(0.836484 0.0403765 -7.05617e-20)
(1.03801 0.0691554 -1.33888e-20)
(1.18236 0.0911551 1.07084e-20)
(1.26731 0.105937 -2.55436e-20)
(1.3053 0.106063 -2.52287e-20)
(0.0104079 -0.00192333 -2.22468e-20)
(0.0923937 -0.0127688 -7.44484e-21)
(0.239903 -0.0123075 -7.85328e-20)
(0.445034 2.1095e-05 -1.22714e-20)
(0.684893 0.0259247 -1.33747e-21)
(0.917814 0.0591307 4.2026e-21)
(1.10426 0.0896453 7.32761e-21)
(1.22752 0.110646 -3.37026e-20)
(1.29301 0.122567 6.27293e-22)
(1.31757 0.120994 1.75262e-20)
(0.0181494 -0.00388145 -5.77459e-21)
(0.119707 -0.0154165 2.72665e-20)
(0.290188 -0.0108235 3.83561e-20)
(0.516347 0.00879245 2.39714e-20)
(0.766139 0.0421914 -7.13507e-21)
(0.992607 0.0796742 -5.81583e-21)
(1.16086 0.110543 5.73698e-20)
(1.26312 0.129635 7.40316e-21)
(1.31127 0.138442 2.50441e-20)
(1.32477 0.135139 -1.05129e-20)
(0.0272853 -0.00558308 5.52634e-20)
(0.150499 -0.0168013 3.5859e-20)
(0.344667 -0.00677148 -3.63069e-20)
(0.589733 0.0209256 -7.22194e-21)
(0.844438 0.0612334 3.71936e-21)
(1.05974 0.101569 -1.36185e-20)
(1.20805 0.131562 -2.93621e-20)
(1.29032 0.148063 -4.89067e-21)
(1.32349 0.153654 3.76829e-22)
(1.32811 0.148683 1.14331e-20)
(0.0378833 -0.00690714 6.72443e-21)
(0.184668 -0.0166008 -1.95222e-20)
(0.402625 0.000188266 4.61851e-20)
(0.663608 0.0364206 3.00615e-20)
(0.918158 0.0826822 8.44233e-22)
(1.11866 0.124429 2.1205e-20)
(1.24641 0.152505 3.14577e-21)
(1.31032 0.165937 -2.19466e-20)
(1.33087 0.16832 1.82127e-20)
(1.32855 0.161785 2.85621e-23)
(0.0499745 -0.00771674 -4.53986e-20)
(0.221989 -0.0144887 -1.33811e-20)
(0.463156 0.0103157 -1.21228e-20)
(0.736392 0.055145 -2.10382e-20)
(0.986072 0.106148 4.88106e-21)
(1.16923 0.147935 1.04861e-22)
(1.27675 0.173248 1.60779e-20)
(1.32424 0.1833 -2.6147e-21)
(1.3344 0.182559 -1.88028e-20)
(1.32677 0.174575 -1.71244e-20)
(0.0635481 -0.00786372 3.67452e-21)
(0.262109 -0.0101516 2.15995e-20)
(0.525211 0.0237718 1.04375e-20)
(0.806627 0.0768671 -3.26331e-20)
(1.04735 0.131255 -1.65013e-21)
(1.21167 0.171834 -1.39213e-20)
(1.29994 0.193721 3.56694e-22)
(1.3331 0.200217 6.46709e-21)
(1.33488 0.196478 -7.03403e-21)
(1.32324 0.187145 1.94101e-20)
(0.0785478 -0.00719449 8.60463e-21)
(0.304554 -0.00330757 -2.10905e-20)
(0.587657 0.0406094 -4.97891e-20)
(0.873061 0.10129 4.58259e-20)
(1.10153 0.157654 -3.41367e-21)
(1.24641 0.195925 1.00944e-20)
(1.31684 0.213894 -1.35797e-21)
(1.33776 0.216757 9.51587e-21)
(1.33291 0.210165 -7.44691e-22)
(1.3183 0.19956 -1.50203e-20)
(0.0948701 -0.00555667 -1.75018e-20)
(0.34874 0.00627466 2.73899e-20)
(0.649344 0.0607742 2.26414e-20)
(0.934684 0.128079 -3.26028e-20)
(1.14843 0.185031 -5.37881e-21)
(1.27399 0.220056 2.0588e-21)
(1.32827 0.233758 2.03893e-20)
(1.33892 0.232982 1.00277e-21)
(1.32894 0.223684 3.86763e-21)
(1.31218 0.211851 -8.31947e-21)
(0.112364 -0.00280629 1.32752e-20)
(0.393993 0.0187594 -1.19435e-20)
(0.709167 0.0841151 -1.0146e-20)
(0.990743 0.156884 1.73948e-20)
(1.1881 0.213104 6.00422e-21)
(1.29501 0.244105 4.50712e-21)
(1.33497 0.253313 -2.07494e-20)
(1.33715 0.248942 -7.02361e-21)
(1.32329 0.237075 -6.231e-21)
(1.305 0.224027 2.73911e-21)
(0.130832 0.00118505 -6.59536e-21)
(0.439577 0.0342322 -1.51509e-22)
(0.766117 0.1104 1.91956e-20)
(1.04072 0.187346 -7.04187e-21)
(1.22074 0.241622 -3.09531e-21)
(1.31007 0.267974 -2.03537e-21)
(1.33754 0.272559 5.00597e-21)
(1.33289 0.264666 8.57866e-21)
(1.31617 0.25035 -2.72202e-22)
(1.29686 0.236073 3.05989e-21)
(0.150038 0.00652312 4.64485e-21)
(0.484722 0.0526932 -1.30264e-21)
(0.819313 0.139331 -3.43258e-21)
(1.08429 0.219113 -3.10583e-21)
(1.24665 0.270357 2.78957e-21)
(1.31975 0.291578 2.163e-21)
(1.33654 0.291491 -1.98931e-21)
(1.32648 0.280164 7.12116e-22)
(1.30774 0.263499 9.91286e-22)
(1.2878 0.247958 -1.30198e-21)
(0.169708 0.0132849 2.48417e-21)
(0.52866 0.0740571 7.09043e-22)
(0.868024 0.170562 -4.23794e-21)
(1.12131 0.251837 -3.37467e-21)
(1.26618 0.299099 3.50881e-21)
(1.32458 0.314836 6.84404e-22)
(1.33237 0.310088 -1.57662e-21)
(1.31816 0.295422 1.47659e-21)
(1.29809 0.276488 8.14493e-22)
(1.27786 0.259636 -9.22581e-22)
(0.189545 0.0215137 -9.74876e-22)
(0.57065 0.0981565 1.97657e-21)
(0.911669 0.203712 1.30333e-20)
(1.15177 0.285177 -5.77125e-21)
(1.27973 0.327652 -2.82767e-21)
(1.32503 0.337667 -3.16402e-21)
(1.32541 0.328315 6.44845e-21)
(1.30811 0.310409 4.27962e-21)
(1.2873 0.289265 3.38799e-21)
(1.26706 0.271052 1.81559e-21)
(0.209231 0.0312151 1.98376e-20)
(0.610003 0.12475 -1.08981e-20)
(0.949817 0.238374 -1.24186e-20)
(1.17575 0.318803 1.68159e-20)
(1.28769 0.355829 8.80042e-21)
(1.32151 0.359983 -5.80458e-22)
(1.31593 0.346122 -1.07221e-20)
(1.29646 0.325069 -7.69567e-21)
(1.27539 0.301757 -7.9036e-21)
(1.25541 0.282141 4.63915e-21)
(0.22844 0.0423559 -2.68112e-20)
(0.646103 0.15353 2.5169e-20)
(0.982169 0.274127 2.88748e-20)
(1.19341 0.352394 -2.83929e-20)
(1.29044 0.383447 -9.80147e-21)
(1.3144 0.381692 6.23018e-21)
(1.30414 0.363442 1.12579e-20)
(1.28331 0.339329 1.74352e-21)
(1.26239 0.313877 -2.81278e-22)
(1.2429 0.29283 -6.27316e-21)
(0.246849 0.0548632 -3.82847e-21)
(0.678418 0.184137 -3.53259e-20)
(1.00855 0.310543 -3.7762e-20)
(1.20498 0.385638 4.21803e-20)
(1.28837 0.410326 -4.77079e-21)
(1.30401 0.402691 8.65176e-21)
(1.29024 0.380195 1.67406e-21)
(1.26871 0.353109 -4.75838e-21)
(1.24828 0.325534 2.54744e-21)
(1.22943 0.303043 -3.13549e-22)
(0.264143 0.0686266 7.78643e-21)
(0.706512 0.216167 2.18311e-20)
(1.0289 0.347189 1.23762e-20)
(1.21071 0.418232 -9.74237e-21)
(1.28183 0.43629 -1.49607e-20)
(1.29061 0.422869 -1.38777e-20)
(1.27437 0.39629 -2.7737e-21)
(1.25272 0.366326 7.2489e-21)
(1.23305 0.336673 -1.52683e-21)
(1.21484 0.312714 3.47075e-21)
(0.280028 0.0835008 -2.93052e-20)
(0.730046 0.249186 -2.73342e-20)
(1.04322 0.383639 -4.28261e-21)
(1.2109 0.449885 -4.85812e-21)
(1.27114 0.461157 -1.09352e-20)
(1.27444 0.442103 6.6538e-21)
(1.25665 0.411623 -1.21441e-21)
(1.23541 0.378892 -6.35061e-21)
(1.21675 0.347289 5.73746e-21)
(1.19913 0.321777 -8.07249e-21)
(0.294236 0.0993088 7.07537e-21)
(0.748783 0.282743 2.31274e-20)
(1.05163 0.419473 1.99916e-20)
(1.20585 0.480313 2.16656e-20)
(1.25664 0.484752 5.01531e-22)
(1.25571 0.460267 1.86254e-20)
(1.23718 0.426075 1.15769e-21)
(1.2168 0.390687 -2.14645e-20)
(1.19941 0.357336 1.51915e-20)
(1.1827 0.330106 5.5664e-21)
(0.306533 0.115846 1.89371e-20)
(0.762577 0.316378 4.21183e-20)
(1.05428 0.454283 -5.6016e-21)
(1.19588 0.509245 -2.71965e-20)
(1.2386 0.506899 1.22343e-20)
(1.23462 0.477227 -1.2624e-20)
(1.21607 0.439522 -1.65483e-20)
(1.19702 0.401599 -1.27214e-21)
(1.18101 0.366585 -1.24284e-20)
(1.16567 0.337756 4.73544e-21)
(0.316724 0.132887 8.79934e-21)
(0.771367 0.349634 6.38116e-21)
(1.05138 0.487677 5.20726e-20)
(1.18133 0.536421 9.68062e-21)
(1.21733 0.527428 -8.36578e-21)
(1.21133 0.492846 -4.30192e-21)
(1.19349 0.451832 2.50832e-20)
(1.17609 0.411537 2.03795e-20)
(1.16158 0.37494 1.00044e-20)
(1.14794 0.34455 -1.30221e-21)
(0.324653 0.15019 1.82268e-21)
(0.775172 0.382063 -4.28986e-20)
(1.04319 0.519283 -6.10816e-20)
(1.16253 0.561595 1.81207e-21)
(1.19309 0.546171 1.182e-20)
(1.18608 0.50697 -1.62302e-20)
(1.16952 0.462884 -3.63494e-20)
(1.154 0.420394 -1.06787e-20)
(1.14123 0.38229 -6.27432e-22)
(1.12949 0.350406 4.67245e-21)
(0.33021 0.167506 -1.51851e-20)
(0.774084 0.413234 3.8073e-20)
(1.03004 0.548754 3.6554e-20)
(1.13982 0.584528 -3.33806e-20)
(1.16614 0.562948 5.12706e-21)
(1.15903 0.519469 3.85168e-20)
(1.14423 0.472551 -8.17462e-21)
(1.13088 0.428057 6.96157e-21)
(1.12003 0.388543 -3.1026e-21)
(1.11036 0.355239 -4.0785e-21)
(0.333327 0.18458 -3.3933e-20)
(0.768276 0.44273 -6.01152e-20)
(1.01232 0.575791 -1.17548e-20)
(1.11349 0.604986 1.9166e-20)
(1.13675 0.577592 1.84469e-20)
(1.13034 0.530189 -3.80891e-20)
(1.11774 0.480716 2.03745e-20)
(1.10681 0.43442 -1.01323e-20)
(1.09804 0.393608 7.83952e-21)
(1.09063 0.358985 3.71294e-22)
(0.333986 0.201155 2.5914e-20)
(0.758008 0.470144 1.95382e-21)
(0.990368 0.600135 -5.73046e-21)
(1.08379 0.622759 -2.33605e-20)
(1.10519 0.589923 1.46933e-20)
(1.10019 0.538994 3.43116e-21)
(1.0902 0.48726 -1.1112e-20)
(1.08189 0.439381 2.28824e-21)
(1.07534 0.397391 -1.81741e-21)
(1.07039 0.361571 4.91102e-22)
(0.332236 0.216987 -6.96766e-21)
(0.743612 0.495139 -9.54953e-21)
(0.96425 0.621394 2.46726e-20)
(1.0512 0.637751 1.14393e-20)
(1.07176 0.599775 -1.54685e-20)
(1.06877 0.545758 2.06883e-20)
(1.06172 0.492074 1.74892e-21)
(1.05622 0.442848 2.23271e-21)
(1.05203 0.399795 1.4294e-21)
(1.04971 0.362908 3.21748e-22)
(0.328172 0.231821 4.4931e-20)
(0.725374 0.517596 3.46881e-20)
(0.934189 0.639207 -2.71154e-21)
(1.01618 0.649666 -5.13286e-21)
(1.03671 0.607078 -6.17985e-21)
(1.03627 0.550375 -2.9744e-21)
(1.03247 0.49506 2.14498e-21)
(1.02993 0.444736 1.33751e-21)
(1.02819 0.400729 -9.35967e-22)
(1.02867 0.3629 -3.39884e-21)
(0.321871 0.245291 3.25121e-21)
(0.703359 0.537149 5.71953e-21)
(0.901063 0.653746 -3.1105e-20)
(0.979092 0.658271 1.35606e-20)
(1.00032 0.611697 2.85137e-21)
(1.00288 0.552745 -6.20192e-21)
(1.00258 0.496127 2.39563e-21)
(1.00312 0.444976 1.14979e-21)
(1.00395 0.400127 -3.66842e-21)
(1.00749 0.361498 4.38237e-21)
(0.313323 0.25717 -1.70563e-20)
(0.677773 0.553204 -1.20544e-20)
(0.865377 0.664714 9.45922e-21)
(0.940227 0.663585 2.02603e-21)
(0.962838 0.61354 -5.46944e-21)
(0.968799 0.552775 4.44127e-21)
(0.9722 0.49519 2.31701e-21)
(0.975895 0.44348 -8.43993e-21)
(0.979573 0.397926 2.12205e-20)
(0.986808 0.358738 8.57993e-21)
(0.302758 0.267286 -1.27388e-20)
(0.64925 0.565632 3.03106e-20)
(0.827407 0.671877 -1.88125e-20)
(0.899915 0.665512 -3.08737e-21)
(0.924519 0.612523 -2.56106e-21)
(0.93421 0.550388 -1.18798e-21)
(0.941432 0.492167 -7.75653e-21)
(0.94838 0.440116 4.09368e-21)
(0.955467 0.39394 -7.10536e-22)
(0.967341 0.354674 -3.83447e-21)
(0.290404 0.275564 -1.33025e-21)
(0.618213 0.574296 -9.08322e-21)
(0.787561 0.675066 4.24664e-21)
(0.858505 0.663972 -1.86231e-21)
(0.88563 0.608589 5.10345e-21)
(0.899299 0.545535 4.84032e-21)
(0.910406 0.487011 1.48856e-20)
(0.920766 0.434784 -1.12324e-20)
(0.931985 0.387788 -2.13841e-20)
(0.948384 0.348655 9.20647e-21)
(0.27642 0.28182 -7.90692e-22)
(0.585099 0.579065 -2.48466e-21)
(0.746264 0.674191 1.03292e-21)
(0.816347 0.658905 6.81492e-21)
(0.846437 0.601699 -1.17978e-20)
(0.864263 0.53819 -1.93743e-20)
(0.87931 0.479726 -5.74131e-21)
(0.893319 0.427604 -1.54592e-21)
(0.909111 0.379651 2.87997e-20)
(0.927086 0.336881 -6.22197e-21)
(0.261027 0.285913 1.22693e-21)
(0.550341 0.579835 -4.09263e-21)
(0.703945 0.669203 3.19902e-22)
(0.77379 0.650278 7.77863e-22)
(0.807206 0.591829 -8.4521e-21)
(0.82932 0.528329 3.69732e-20)
(0.848403 0.470284 -2.57787e-20)
(0.866255 0.418672 3.07677e-20)
(0.885758 0.371459 -2.15983e-20)
(0.903492 0.33015 -2.85774e-20)
(0.24447 0.287738 -1.36917e-21)
(0.514366 0.576536 -7.79132e-22)
(0.661026 0.660088 3.81269e-22)
(0.731179 0.638086 1.33928e-20)
(0.768203 0.578974 -5.5049e-21)
(0.794697 0.515935 8.34979e-21)
(0.817892 0.458633 1.5125e-20)
(0.839608 0.407707 -7.97017e-21)
(0.862332 0.361054 -2.07202e-20)
(0.881104 0.320047 2.86415e-20)
(0.227002 0.287218 1.11952e-20)
(0.477604 0.569134 1.48263e-20)
(0.617925 0.646862 -1.41417e-20)
(0.688852 0.622352 -1.24754e-20)
(0.729694 0.563151 4.33623e-20)
(0.760613 0.501023 -4.38515e-20)
(0.787926 0.444825 5.2427e-20)
(0.813395 0.394938 -1.31276e-20)
(0.839055 0.34939 1.4065e-20)
(0.859533 0.309562 2.61397e-20)
(0.20888 0.284305 -4.20039e-21)
(0.44048 0.557636 -1.44051e-20)
(0.57505 0.629571 -8.5142e-21)
(0.647144 0.60312 -4.73693e-21)
(0.691944 0.544395 5.23483e-21)
(0.727287 0.48362 -1.14185e-20)
(0.758678 0.428867 -1.56904e-20)
(0.787777 0.380302 -3.40198e-20)
(0.816255 0.33611 3.37142e-20)
(0.838836 0.297664 -1.08955e-20)
(0.190367 0.278979 2.66029e-20)
(0.403414 0.542085 -3.14422e-21)
(0.532796 0.608291 -1.19047e-20)
(0.606375 0.580465 1.53913e-20)
(0.655209 0.522765 -2.74963e-20)
(0.694929 0.463771 7.32048e-20)
(0.730315 0.410809 -3.89396e-20)
(0.762919 0.363883 3.51938e-20)
(0.794151 0.321351 -6.45687e-20)
(0.819037 0.284476 -1.70955e-20)
(0.171721 0.271249 -8.58064e-21)
(0.366815 0.522559 2.81583e-20)
(0.491546 0.583128 6.66652e-21)
(0.566858 0.554481 -1.42048e-20)
(0.619739 0.498337 -2.4451e-20)
(0.663746 0.44154 -9.09618e-22)
(0.703009 0.390704 1.29874e-20)
(0.738987 0.345712 -3.16838e-20)
(0.772898 0.305096 1.55943e-20)
(0.800181 0.269942 2.07302e-21)
(0.1532 0.26115 -4.60301e-20)
(0.331079 0.499173 -1.13401e-20)
(0.451668 0.554215 -3.10352e-21)
(0.528893 0.525288 3.66224e-20)
(0.585777 0.471209 -3.39377e-20)
(0.633937 0.41701 -8.82837e-21)
(0.676931 0.368624 -5.34164e-21)
(0.716137 0.325854 9.89529e-21)
(0.752636 0.287389 -1.24413e-20)
(0.782338 0.254099 -1.93967e-20)
(0.135055 0.248742 4.05318e-20)
(0.296586 0.472074 -2.2969e-20)
(0.413511 0.521714 1.15043e-21)
(0.492765 0.493026 -5.55094e-20)
(0.553554 0.441499 6.007e-20)
(0.605695 0.390276 -1.89546e-20)
(0.652245 0.344653 1.13502e-20)
(0.694516 0.304376 9.81932e-21)
(0.733486 0.268275 2.84709e-20)
(0.76558 0.236996 -1.16577e-20)
(0.117526 0.234114 -1.65207e-20)
(0.263697 0.44144 4.76136e-20)
(0.377406 0.485812 2.67768e-20)
(0.458744 0.457859 4.36475e-20)
(0.523289 0.40934 -1.00976e-20)
(0.579203 0.361453 4.06571e-21)
(0.629109 0.318888 3.25641e-20)
(0.674263 0.281358 7.23123e-21)
(0.715566 0.24782 6.96808e-22)
(0.749985 0.218703 -1.39071e-20)
(0.100843 0.217374 -3.77294e-20)
(0.232752 0.407477 -2.7953e-21)
(0.343664 0.446721 -1.56673e-20)
(0.427084 0.419969 -7.01129e-20)
(0.495188 0.374886 -6.76048e-20)
(0.554635 0.330672 1.12992e-20)
(0.607671 0.291441 -2.7707e-20)
(0.655506 0.256894 1.76149e-20)
(0.698985 0.226102 9.56527e-21)
(0.735627 0.199299 2.00314e-20)
(0.0852249 0.198656 5.51984e-20)
(0.204066 0.370421 -4.51193e-20)
(0.31257 0.404676 -2.28437e-20)
(0.398018 0.379559 4.05316e-20)
(0.469444 0.338307 4.59485e-20)
(0.532153 0.298074 -1.51727e-20)
(0.588071 0.262435 -1.93842e-21)
(0.638365 0.231088 -5.4877e-20)
(0.683845 0.203211 -3.10118e-20)
(0.722578 0.178875 1.17999e-20)
(0.0708707 0.178112 -3.13674e-20)
(0.177928 0.33053 1.32203e-20)
(0.284388 0.359932 4.84381e-20)
(0.371763 0.336849 -2.16189e-20)
(0.446234 0.299786 1.66659e-21)
(0.511906 0.263818 6.11325e-20)
(0.570435 0.232005 2.83754e-21)
(0.622952 0.204056 5.24816e-20)
(0.670242 0.179249 2.18641e-20)
(0.710906 0.157528 -3.47297e-20)
(0.057964 0.155913 4.32503e-20)
(0.154602 0.288087 4.74891e-21)
(0.259355 0.312764 3.12091e-21)
(0.348513 0.292074 4.40738e-20)
(0.425718 0.259522 -5.90402e-21)
(0.494031 0.228074 -3.83329e-20)
(0.554881 0.200297 1.87413e-20)
(0.609368 0.175922 -2.99229e-20)
(0.658264 0.154325 -1.25198e-20)
(0.700673 0.13536 1.26242e-20)
(0.0466687 0.132248 -2.6985e-20)
(0.13432 0.243394 -5.17164e-20)
(0.237681 0.263464 1.19046e-20)
(0.32844 0.245484 -2.33098e-20)
(0.408039 0.217726 -1.4096e-20)
(0.478648 0.191021 3.40541e-20)
(0.541512 0.167466 -8.23981e-21)
(0.597702 0.146821 7.62237e-21)
(0.647991 0.128558 -9.24483e-21)
(0.691933 0.112479 1.83179e-20)
(0.0371279 0.107319 9.71495e-21)
(0.117285 0.196771 3.47708e-20)
(0.219548 0.212339 -4.82027e-20)
(0.311694 0.197342 2.2787e-20)
(0.39332 0.174621 -1.03701e-20)
(0.465863 0.152851 -2.91485e-20)
(0.530418 0.133677 2.3753e-20)
(0.588035 0.116896 4.98817e-21)
(0.639491 0.102072 -7.71692e-22)
(0.684736 0.088996 -2.12915e-20)
(0.0294628 0.081343 3.16346e-21)
(0.103667 0.148553 1.115e-20)
(0.205111 0.15971 4.35459e-20)
(0.298402 0.147922 -8.32817e-21)
(0.381666 0.130439 -6.55831e-21)
(0.455763 0.113761 2.43528e-21)
(0.521675 0.099101 1.04483e-21)
(0.580435 0.0862928 8.85474e-21)
(0.632825 0.0750006 -1.16165e-20)
(0.679122 0.0650298 -7.38711e-21)
(0.0237716 0.054545 -7.92863e-21)
(0.0936037 0.0990878 -1.3575e-20)
(0.194492 0.105907 -3.37702e-20)
(0.288666 0.0975064 1.69802e-20)
(0.373163 0.0854181 1.385e-20)
(0.448422 0.0739572 5.87425e-22)
(0.515346 0.0639147 -2.31081e-20)
(0.574955 0.055166 -1.02386e-20)
(0.628043 0.0474745 8.13054e-21)
(0.675128 0.0406821 8.68488e-21)
(0.0201283 0.0271593 1.37093e-21)
(0.0871996 0.0487326 -2.82542e-21)
(0.187786 0.0512688 6.41981e-21)
(0.282562 0.0463853 -4.34683e-21)
(0.367872 0.0398051 -3.81016e-21)
(0.443892 0.0336509 -2.58551e-21)
(0.511476 0.0283002 4.7467e-21)
(0.571638 0.0236717 1.80688e-20)
(0.625173 0.0196238 2.62131e-21)
(0.672762 0.0160237 -4.64171e-21)
(0.0185829 -0.000573975 1.6968e-21)
(0.0845242 -0.00214824 -4.66571e-21)
(0.185055 -0.00385899 -5.28486e-21)
(0.280142 -0.00514662 -3.66591e-21)
(0.365838 -0.00614994 3.48859e-21)
(0.442211 -0.00694289 1.57331e-21)
(0.510097 -0.00755536 -1.56757e-21)
(0.570505 -0.00802241 -7.13028e-21)
(0.62422 -0.00838187 2.34599e-21)
(0.671958 -0.00868158 -2.19329e-21)
(0.01916 -0.0284114 -1.68344e-21)
(0.0856126 -0.053186 4.63081e-21)
(0.18633 -0.059128 5.25121e-21)
(0.281432 -0.0567915 -5.02657e-21)
(0.367082 -0.0521942 4.42332e-21)
(0.443398 -0.0476073 2.21409e-21)
(0.511226 -0.0434655 -3.534e-21)
(0.571583 -0.0397567 -4.10257e-21)
(0.62526 -0.0364109 6.03926e-22)
(0.672957 -0.0333601 -1.70618e-21)
(0.0218593 -0.0561081 1.84676e-21)
(0.0904647 -0.104011 -5.51705e-21)
(0.191613 -0.114188 1.23076e-20)
(0.286432 -0.10825 -1.08092e-20)
(0.371603 -0.0980738 -5.18015e-22)
(0.447451 -0.0881248 -7.20074e-21)
(0.514862 -0.0792446 1.16926e-20)
(0.574863 -0.071375 1.58898e-20)
(0.628253 -0.0643468 2.83258e-21)
(0.675608 -0.0580295 -6.1005e-21)
(0.0266553 -0.0834206 -1.56418e-21)
(0.0990458 -0.154253 -1.15761e-20)
(0.20087 -0.168691 -2.69785e-20)
(0.295116 -0.159225 2.33616e-20)
(0.379381 -0.143536 4.80033e-21)
(0.454352 -0.128278 4.2611e-21)
(0.520987 -0.114704 -2.09667e-20)
(0.580329 -0.102711 -1.23825e-20)
(0.633179 -0.0920287 -2.76489e-21)
(0.679896 -0.0824821 1.88323e-20)
(0.0334976 -0.110109 -5.50457e-21)
(0.111286 -0.20355 6.98168e-21)
(0.214041 -0.222292 4.86913e-20)
(0.307433 -0.209421 -4.39692e-21)
(0.390371 -0.18833 -1.25356e-20)
(0.464064 -0.167852 8.97302e-21)
(0.529571 -0.149659 6.66397e-22)
(0.587955 -0.133603 3.15633e-21)
(0.640019 -0.119314 -6.93355e-21)
(0.685817 -0.106589 -1.83044e-20)
(0.0423112 -0.135938 -3.69351e-21)
(0.127083 -0.251542 2.015e-20)
(0.231032 -0.274651 -4.88506e-20)
(0.323306 -0.258548 2.11173e-20)
(0.404511 -0.23221 2.09363e-22)
(0.476533 -0.206636 -2.68412e-20)
(0.540566 -0.183927 1.1892e-20)
(0.597698 -0.163893 -1.12485e-21)
(0.648734 -0.146067 4.50982e-21)
(0.693349 -0.130244 -1.31315e-21)
(0.0529973 -0.160683 -4.21966e-20)
(0.146297 -0.297883 -5.0567e-20)
(0.25172 -0.325438 1.33393e-20)
(0.342632 -0.306323 -2.42025e-20)
(0.421714 -0.274937 -6.79092e-21)
(0.491686 -0.244424 1.02397e-20)
(0.553909 -0.21733 3.78206e-21)
(0.609502 -0.193429 1.40041e-20)
(0.659276 -0.172153 -3.01326e-21)
(0.70246 -0.153331 1.63139e-20)
(0.0654338 -0.184127 4.03275e-20)
(0.168759 -0.342237 2.59757e-20)
(0.275951 -0.374331 -1.95313e-20)
(0.365286 -0.352472 3.29499e-20)
(0.441877 -0.316277 -2.74693e-21)
(0.509433 -0.281016 -3.57373e-20)
(0.569523 -0.249697 6.25851e-21)
(0.623298 -0.222061 -3.80717e-20)
(0.671584 -0.19744 1.51159e-21)
(0.713107 -0.175735 1.37846e-20)
(0.0794767 -0.206068 -2.9549e-20)
(0.194267 -0.384283 5.30746e-20)
(0.303544 -0.421025 2.08805e-20)
(0.391118 -0.396733 -2.60754e-20)
(0.464875 -0.356009 3.31598e-22)
(0.529669 -0.316222 6.57077e-20)
(0.587317 -0.280864 2.92341e-21)
(0.639007 -0.249648 2.91307e-20)
(0.685587 -0.221805 3.5476e-20)
(0.725242 -0.197343 -1.98833e-20)
(0.0949611 -0.226316 1.65419e-20)
(0.222586 -0.423719 -7.96483e-21)