/*--------------------------------*- C++ -*----------------------------------*\
  =========                 |
  \\      /  F ield         | OpenFOAM: The Open Source CFD Toolbox
   \\    /   O peration     | Website:  https://openfoam.org
    \\  /    A nd           | Version:  7
     \\/     M anipulation  |
\*---------------------------------------------------------------------------*/
FoamFile
{
    version     2.0;
    format      ascii;
    class       volScalarField;
    location    "20";
    object      p;
}
// * * * * * * * * * * * * * * * * * * * * * * * * * * * * * * * * * * * * * //

dimensions      [0 2 -2 0 0 0 0];

internalField   nonuniform List<scalar> 
8500
(
-0.298624
-0.300602
-0.301531
-0.302282
-0.302927
-0.303491
-0.304002
-0.304476
-0.304889
-0.305302
-0.298821
-0.300777
-0.301693
-0.302431
-0.303062
-0.303613
-0.304107
-0.304564
-0.304955
-0.305333
-0.299211
-0.301124
-0.302014
-0.302726
-0.303331
-0.303852
-0.304314
-0.304734
-0.305083
-0.305388
-0.299789
-0.301639
-0.302491
-0.303163
-0.303726
-0.304203
-0.304614
-0.304978
-0.305262
-0.305447
-0.300547
-0.302315
-0.303115
-0.303735
-0.304241
-0.304656
-0.304997
-0.305283
-0.30548
-0.305484
-0.301473
-0.303143
-0.30388
-0.304433
-0.304866
-0.305203
-0.305451
-0.305633
-0.305724
-0.305463
-0.302558
-0.304115
-0.304777
-0.305247
-0.305591
-0.305831
-0.305965
-0.306013
-0.305981
-0.30534
-0.30379
-0.305222
-0.305795
-0.306168
-0.306406
-0.30653
-0.306526
-0.306404
-0.306244
-0.305055
-0.305158
-0.306455
-0.306927
-0.307187
-0.307302
-0.307291
-0.307125
-0.306793
-0.306515
-0.304509
-0.306654
-0.307806
-0.308164
-0.308295
-0.308268
-0.308106
-0.307758
-0.307173
-0.306817
-0.303627
-0.308271
-0.30927
-0.309499
-0.309484
-0.309299
-0.308968
-0.308423
-0.307538
-0.307156
-0.302756
-0.310005
-0.310843
-0.310929
-0.31075
-0.310388
-0.309874
-0.309122
-0.307895
-0.307265
-0.301828
-0.311858
-0.312525
-0.312451
-0.312087
-0.311531
-0.310819
-0.309856
-0.308381
-0.307334
-0.300594
-0.313834
-0.314319
-0.314065
-0.313494
-0.312722
-0.311799
-0.310608
-0.308896
-0.307497
-0.299105
-0.315943
-0.316233
-0.315775
-0.31497
-0.313959
-0.312809
-0.311384
-0.309441
-0.307718
-0.297501
-0.318201
-0.318279
-0.31759
-0.31652
-0.315241
-0.313843
-0.312173
-0.310039
-0.307914
-0.295979
-0.320632
-0.320475
-0.319523
-0.318154
-0.316572
-0.314897
-0.312955
-0.310699
-0.30793
-0.294708
-0.323266
-0.322845
-0.321594
-0.319887
-0.317964
-0.315977
-0.313721
-0.311441
-0.307539
-0.293596
-0.326142
-0.325413
-0.323834
-0.321744
-0.319439
-0.317104
-0.314491
-0.312315
-0.306682
-0.292945
-0.329309
-0.328222
-0.326272
-0.323757
-0.321031
-0.318312
-0.315306
-0.313287
-0.305874
-0.296639
-0.33282
-0.331316
-0.328949
-0.32597
-0.322784
-0.319644
-0.316215
-0.314102
-0.305665
-0.310642
-0.336726
-0.334743
-0.331912
-0.328433
-0.324753
-0.321154
-0.317272
-0.314658
-0.306147
-0.309838
-0.341093
-0.338553
-0.335213
-0.3312
-0.326997
-0.322894
-0.318517
-0.315065
-0.306645
-0.307046
-0.345982
-0.342796
-0.338904
-0.334327
-0.329575
-0.324912
-0.319956
-0.315494
-0.306908
-0.304276
-0.351449
-0.347524
-0.343038
-0.337868
-0.332534
-0.327243
-0.321584
-0.315974
-0.306879
-0.301383
-0.357547
-0.352785
-0.347666
-0.341875
-0.335913
-0.329901
-0.323383
-0.316479
-0.306495
-0.298502
-0.364319
-0.358621
-0.352834
-0.346389
-0.339733
-0.332882
-0.325319
-0.31694
-0.305745
-0.295567
-0.371798
-0.365068
-0.358582
-0.351442
-0.343999
-0.336157
-0.327328
-0.317272
-0.304619
-0.292514
-0.379999
-0.372154
-0.364941
-0.357048
-0.348695
-0.339672
-0.329316
-0.317382
-0.303109
-0.28927
-0.388925
-0.37989
-0.371924
-0.3632
-0.353783
-0.343338
-0.331166
-0.317179
-0.301202
-0.285772
-0.398554
-0.388274
-0.379523
-0.369864
-0.359189
-0.347028
-0.332755
-0.316585
-0.298878
-0.281964
-0.408839
-0.397277
-0.387702
-0.376976
-0.364797
-0.350588
-0.333958
-0.315527
-0.296107
-0.277791
-0.419704
-0.406843
-0.396391
-0.384431
-0.370449
-0.353846
-0.334658
-0.313938
-0.292854
-0.273204
-0.431037
-0.416883
-0.405481
-0.392084
-0.375947
-0.356626
-0.33474
-0.311754
-0.289076
-0.268154
-0.442692
-0.427266
-0.414823
-0.399739
-0.381066
-0.358754
-0.334101
-0.308909
-0.284723
-0.262588
-0.454481
-0.437823
-0.424223
-0.407154
-0.385569
-0.360065
-0.33264
-0.305339
-0.27974
-0.256459
-0.466178
-0.448342
-0.433444
-0.414054
-0.389217
-0.360402
-0.33026
-0.300975
-0.27407
-0.249716
-0.477517
-0.458571
-0.442207
-0.420141
-0.391779
-0.359617
-0.326867
-0.295749
-0.267654
-0.242313
-0.488201
-0.468222
-0.450198
-0.425106
-0.393034
-0.357575
-0.322373
-0.289591
-0.260432
-0.234208
-0.497903
-0.476977
-0.457076
-0.428651
-0.392781
-0.354148
-0.316692
-0.282433
-0.252347
-0.225361
-0.506279
-0.484497
-0.462489
-0.430489
-0.390837
-0.349225
-0.309743
-0.274211
-0.243347
-0.215741
-0.51297
-0.490428
-0.46609
-0.43036
-0.387039
-0.3427
-0.301453
-0.264865
-0.233386
-0.205319
-0.517623
-0.494413
-0.467545
-0.428031
-0.381248
-0.334487
-0.291753
-0.254338
-0.222427
-0.194083
-0.51989
-0.496106
-0.466554
-0.423304
-0.373348
-0.324507
-0.280585
-0.242581
-0.210436
-0.182017
-0.519448
-0.495178
-0.46285
-0.416017
-0.363248
-0.312704
-0.267902
-0.229552
-0.197366
-0.169049
-0.516002
-0.491333
-0.456215
-0.406047
-0.350885
-0.299039
-0.253679
-0.215227
-0.183171
-0.155002
-0.509297
-0.484316
-0.44648
-0.393313
-0.336221
-0.283493
-0.237902
-0.199602
-0.167845
-0.139687
-0.499122
-0.473924
-0.433523
-0.377767
-0.319244
-0.266057
-0.220557
-0.182685
-0.15146
-0.123264
-0.485321
-0.460012
-0.41727
-0.359402
-0.299962
-0.246728
-0.201635
-0.164512
-0.134015
-0.106382
-0.467792
-0.44249
-0.397699
-0.338245
-0.278403
-0.225511
-0.181202
-0.145238
-0.115427
-0.0889234
-0.446488
-0.421328
-0.374835
-0.314368
-0.25463
-0.202477
-0.159514
-0.124686
-0.0958569
-0.0707602
-0.421424
-0.39655
-0.348754
-0.287878
-0.228759
-0.177883
-0.136353
-0.102992
-0.0753992
-0.0518975
-0.392666
-0.368254
-0.319621
-0.258864
-0.200884
-0.151677
-0.111896
-0.0802441
-0.0541296
-0.0324147
-0.360338
-0.336619
-0.287706
-0.227317
-0.17111
-0.123965
-0.0862497
-0.0565393
-0.0321245
-0.0124171
-0.324623
-0.30188
-0.253137
-0.193406
-0.139569
-0.0948871
-0.059536
-0.0319766
-0.00946146
0.00801074
-0.285754
-0.264262
-0.215312
-0.157962
-0.10653
-0.0645998
-0.031883
-0.00665862
0.0137784
0.0287775
-0.24395
-0.22391
-0.175237
-0.120744
-0.0721872
-0.033276
-0.00341944
0.0193202
0.0374576
0.0495446
-0.199467
-0.180799
-0.133671
-0.0820098
-0.0367244
-0.00108758
0.0257425
0.045882
0.0613037
0.0694992
-0.152729
-0.135598
-0.090618
-0.0420555
-0.000350427
0.0317959
0.0554985
0.0729312
0.084993
0.0880819
-0.104157
-0.0886536
-0.0462782
-0.0011685
0.0367018
0.0651912
0.085692
0.100237
0.108437
0.10703
-0.0540745
-0.0404078
-0.00096252
0.0403649
0.0741894
0.0988927
0.116075
0.127401
0.131603
0.131166
-0.00290212
0.00872984
0.044977
0.0822507
0.111864
0.132677
0.146385
0.154287
0.155343
0.155455
0.048921
0.0583551
0.0911755
0.124188
0.14947
0.166316
0.17645
0.180962
0.179343
0.178516
0.100952
0.108059
0.137266
0.16587
0.186749
0.199582
0.206095
0.207302
0.203176
0.200664
0.152744
0.157429
0.182885
0.206992
0.223441
0.232254
0.235151
0.233132
0.226504
0.221889
0.203856
0.206055
0.227672
0.247251
0.259288
0.264114
0.263442
0.258274
0.249143
0.242223
0.253849
0.253534
0.271276
0.286351
0.29404
0.294951
0.290785
0.282553
0.270938
0.261625
0.302296
0.299471
0.313356
0.324003
0.327454
0.324558
0.317004
0.305811
0.291764
0.280034
0.348783
0.343486
0.353584
0.35993
0.359293
0.352736
0.341928
0.327898
0.3115
0.29738
0.392915
0.385217
0.391647
0.393869
0.389335
0.379293
0.365395
0.348675
0.330034
0.313585
0.434318
0.424321
0.427251
0.425571
0.417367
0.404051
0.387251
0.368011
0.347258
0.328574
0.472641
0.460478
0.460121
0.454802
0.443192
0.426841
0.407352
0.385784
0.363071
0.342276
0.50756
0.493393
0.490004
0.481349
0.466627
0.447507
0.425568
0.401881
0.377377
0.354625
0.538782
0.522799
0.51667
0.505017
0.487508
0.465909
0.441779
0.4162
0.390091
0.365561
0.566045
0.548459
0.539917
0.525635
0.505688
0.481922
0.455877
0.428649
0.401136
0.375031
0.589121
0.570164
0.559566
0.54305
0.521037
0.495436
0.467771
0.439149
0.410445
0.38299
0.607816
0.587741
0.575468
0.557137
0.533449
0.50636
0.477382
0.447631
0.417961
0.389401
0.621976
0.601049
0.587501
0.567793
0.542835
0.514618
0.484646
0.454042
0.423638
0.394235
0.631481
0.60998
0.595574
0.57494
0.549129
0.520156
0.489515
0.458338
0.427443
0.39747
0.636254
0.614463
0.599626
0.578527
0.552287
0.522934
0.491958
0.460494
0.42935
0.399091
0.636254
0.614463
0.599626
0.578527
0.552287
0.522934
0.491958
0.460494
0.42935
0.399091
0.631481
0.60998
0.595574
0.57494
0.549129
0.520156
0.489515
0.458338
0.427443
0.39747
0.621976
0.601049
0.587501
0.567793
0.542835
0.514618
0.484646
0.454042
0.423638
0.394235
0.607816
0.587741
0.575468
0.557137
0.533449
0.50636
0.477382
0.447631
0.417961
0.389401
0.589121
0.570164
0.559566
0.54305
0.521037
0.495436
0.467771
0.439149
0.410445
0.38299
0.566045
0.548459
0.539917
0.525635
0.505688
0.481922
0.455877
0.428649
0.401136
0.375031
0.538782
0.522799
0.51667
0.505017
0.487508
0.465909
0.441779
0.4162
0.390091
0.365561
0.50756
0.493393
0.490004
0.481349
0.466627
0.447507
0.425568
0.401881
0.377377
0.354625
0.472641
0.460478
0.460121
0.454802
0.443192
0.426841
0.407352
0.385784
0.363071
0.342276
0.434318
0.424321
0.427251
0.425571
0.417367
0.404051
0.387251
0.368011
0.347258
0.328574
0.392915
0.385217
0.391647
0.393869
0.389335
0.379293
0.365395
0.348675
0.330034
0.313585
0.348783
0.343486
0.353584
0.35993
0.359293
0.352736
0.341928
0.327898
0.3115
0.29738
0.302296
0.299471
0.313356
0.324003
0.327454
0.324558
0.317004
0.305811
0.291764
0.280034
0.253849
0.253534
0.271276
0.286351
0.29404
0.294951
0.290785
0.282553
0.270938
0.261625
0.203856
0.206055
0.227672
0.247251
0.259288
0.264114
0.263442
0.258274
0.249143
0.242223
0.152744
0.157429
0.182885
0.206992
0.223441
0.232254
0.235151
0.233132
0.226504
0.221889
0.100952
0.108059
0.137266
0.16587
0.186749
0.199582
0.206095
0.207302
0.203176
0.200664
0.0489209
0.0583551
0.0911755
0.124188
0.14947
0.166316
0.17645
0.180962
0.179343
0.178516
-0.00290214
0.00872982
0.0449769
0.0822507
0.111864
0.132677
0.146385
0.154287
0.155343
0.155455
-0.0540745
-0.0404079
-0.000962544
0.0403649
0.0741894
0.0988926
0.116075
0.127401
0.131603
0.131166
-0.104157
-0.0886536
-0.0462782
-0.00116853
0.0367018
0.0651911
0.0856919
0.100237
0.108437
0.10703
-0.152729
-0.135598
-0.0906181
-0.0420556
-0.00035045
0.0317959
0.0554985
0.0729312
0.084993
0.0880819
-0.199467
-0.180799
-0.133671
-0.0820098
-0.0367245
-0.0010876
0.0257425
0.045882
0.0613037
0.0694992
-0.24395
-0.22391
-0.175237
-0.120744
-0.0721872
-0.0332761
-0.00341946
0.0193202
0.0374576
0.0495446
-0.285754
-0.264263
-0.215312
-0.157962
-0.10653
-0.0645999
-0.031883
-0.00665865
0.0137783
0.0287775
-0.324623
-0.30188
-0.253137
-0.193406
-0.139569
-0.0948872
-0.0595361
-0.0319767
-0.00946148
0.00801072
-0.360338
-0.336619
-0.287706
-0.227317
-0.17111
-0.123966
-0.0862498
-0.0565393
-0.0321245
-0.0124171
-0.392666
-0.368254
-0.319621
-0.258864
-0.200884
-0.151677
-0.111896
-0.0802441
-0.0541296
-0.0324148
-0.421424
-0.39655
-0.348755
-0.287879
-0.228759
-0.177883
-0.136353
-0.102992
-0.0753992
-0.0518976
-0.446488
-0.421328
-0.374835
-0.314368
-0.25463
-0.202477
-0.159514
-0.124686
-0.0958569
-0.0707603
-0.467792
-0.44249
-0.397699
-0.338245
-0.278403
-0.225511
-0.181202
-0.145238
-0.115427
-0.0889234
-0.485321
-0.460012
-0.41727
-0.359402
-0.299962
-0.246728
-0.201635
-0.164512
-0.134015
-0.106382
-0.499122
-0.473924
-0.433523
-0.377767
-0.319244
-0.266057
-0.220557
-0.182685
-0.15146
-0.123264
-0.509297
-0.484316
-0.446481
-0.393313
-0.336221
-0.283493
-0.237902
-0.199602
-0.167845
-0.139687
-0.516002
-0.491333
-0.456215
-0.406047
-0.350885
-0.299039
-0.253679
-0.215227
-0.183171
-0.155002
-0.519448
-0.495179
-0.46285
-0.416017
-0.363248
-0.312704
-0.267902
-0.229552
-0.197366
-0.169049
-0.51989
-0.496106
-0.466554
-0.423304
-0.373348
-0.324507
-0.280585
-0.242581
-0.210436
-0.182017
-0.517623
-0.494413
-0.467546
-0.428031
-0.381248
-0.334487
-0.291753
-0.254338
-0.222428
-0.194083
-0.512971
-0.490428
-0.46609
-0.43036
-0.387039
-0.342701
-0.301453
-0.264865
-0.233386
-0.205319
-0.506279
-0.484497
-0.462489
-0.43049
-0.390837
-0.349225
-0.309744
-0.274211
-0.243347
-0.215741
-0.497904
-0.476977
-0.457076
-0.428651
-0.392781
-0.354149
-0.316692
-0.282433
-0.252347
-0.225361
-0.488201
-0.468222
-0.450198
-0.425107
-0.393034
-0.357575
-0.322373
-0.289591
-0.260432
-0.234208
-0.477517
-0.458571
-0.442207
-0.420141
-0.391779
-0.359617
-0.326867
-0.295749
-0.267654
-0.242313
-0.466178
-0.448342
-0.433444
-0.414055
-0.389217
-0.360402
-0.33026
-0.300975
-0.274071
-0.249716
-0.454481
-0.437823
-0.424223
-0.407154
-0.385569
-0.360065
-0.33264
-0.305339
-0.27974
-0.256459
-0.442692
-0.427266
-0.414823
-0.399739
-0.381066
-0.358754
-0.334101
-0.308909
-0.284723
-0.262589
-0.431037
-0.416883
-0.405481
-0.392084
-0.375947
-0.356626
-0.33474
-0.311754
-0.289076
-0.268154
-0.419704
-0.406844
-0.396391
-0.384431
-0.370449
-0.353846
-0.334658
-0.313938
-0.292854
-0.273204
-0.408839
-0.397277
-0.387702
-0.376976
-0.364797
-0.350588
-0.333959
-0.315527
-0.296107
-0.277791
-0.398554
-0.388274
-0.379523
-0.369864
-0.359189
-0.347028
-0.332755
-0.316585
-0.298878
-0.281964
-0.388925
-0.37989
-0.371924
-0.3632
-0.353783
-0.343338
-0.331166
-0.317179
-0.301203
-0.285773
-0.379999
-0.372154
-0.364941
-0.357048
-0.348695
-0.339672
-0.329316
-0.317382
-0.30311
-0.28927
-0.371798
-0.365068
-0.358582
-0.351442
-0.343999
-0.336157
-0.327328
-0.317272
-0.304619
-0.292514
-0.36432
-0.358621
-0.352834
-0.346389
-0.339733
-0.332882
-0.32532
-0.31694
-0.305745
-0.295567
-0.357547
-0.352785
-0.347666
-0.341875
-0.335913
-0.329902
-0.323383
-0.316479
-0.306496
-0.298503
-0.351449
-0.347524
-0.343038
-0.337868
-0.332534
-0.327243
-0.321584
-0.315974
-0.306879
-0.301383
-0.345982
-0.342796
-0.338905
-0.334327
-0.329575
-0.324912
-0.319956
-0.315494
-0.306908
-0.304276
-0.341093
-0.338553
-0.335214
-0.3312
-0.326997
-0.322894
-0.318517
-0.315066
-0.306645
-0.307046
-0.336726
-0.334743
-0.331913
-0.328433
-0.324753
-0.321154
-0.317272
-0.314658
-0.306148
-0.309838
-0.33282
-0.331316
-0.328949
-0.325971
-0.322784
-0.319644
-0.316215
-0.314102
-0.305665
-0.310642
-0.32931
-0.328222
-0.326272
-0.323758
-0.321031
-0.318312
-0.315306
-0.313287
-0.305874
-0.296639
-0.326142
-0.325413
-0.323834
-0.321744
-0.319439
-0.317104
-0.314491
-0.312315
-0.306682
-0.292946
-0.323266
-0.322845
-0.321594
-0.319887
-0.317964
-0.315977
-0.313721
-0.311441
-0.307539
-0.293596
-0.320632
-0.320475
-0.319523
-0.318154
-0.316573
-0.314897
-0.312955
-0.310699
-0.30793
-0.294709
-0.318201
-0.318279
-0.317591
-0.316521
-0.315241
-0.313843
-0.312173
-0.310039
-0.307914
-0.295979
-0.315943
-0.316233
-0.315775
-0.31497
-0.313959
-0.312809
-0.311385
-0.309441
-0.307719
-0.297501
-0.313834
-0.314319
-0.314065
-0.313494
-0.312722
-0.311799
-0.310608
-0.308896
-0.307498
-0.299106
-0.311858
-0.312525
-0.312451
-0.312087
-0.311531
-0.310819
-0.309856
-0.308381
-0.307334
-0.300594
-0.310005
-0.310843
-0.310929
-0.31075
-0.310388
-0.309874
-0.309122
-0.307895
-0.307265
-0.301829
-0.308271
-0.30927
-0.309499
-0.309484
-0.309299
-0.308969
-0.308424
-0.307538
-0.307156
-0.302756
-0.306654
-0.307806
-0.308164
-0.308295
-0.308268
-0.308106
-0.307758
-0.307173
-0.306817
-0.303627
-0.305158
-0.306455
-0.306927
-0.307187
-0.307302
-0.307291
-0.307125
-0.306793
-0.306515
-0.30451
-0.30379
-0.305222
-0.305795
-0.306168
-0.306407
-0.30653
-0.306526
-0.306404
-0.306245
-0.305055
-0.302558
-0.304115
-0.304777
-0.305247
-0.305592
-0.305831
-0.305965
-0.306013
-0.305981
-0.30534
-0.301473
-0.303143
-0.30388
-0.304433
-0.304866
-0.305203
-0.305451
-0.305633
-0.305724
-0.305463
-0.300547
-0.302315
-0.303115
-0.303735
-0.304241
-0.304657
-0.304997
-0.305283
-0.30548
-0.305484
-0.299789
-0.301639
-0.302491
-0.303163
-0.303726
-0.304203
-0.304614
-0.304978
-0.305262
-0.305447
-0.299211
-0.301124
-0.302014
-0.302726
-0.303331
-0.303852
-0.304314
-0.304734
-0.305083
-0.305388
-0.298821
-0.300777
-0.301693
-0.302431
-0.303062
-0.303613
-0.304107
-0.304564
-0.304955
-0.305333
-0.298624
-0.300602
-0.301531
-0.302282
-0.302927
-0.303491
-0.304002
-0.304476
-0.304889
-0.305302
-0.306953
-0.3063
-0.30816
-0.308326
-0.309714
-0.310642
-0.312331
-0.314371
-0.317372
-0.321213
-0.325781
-0.329982
-0.331531
-0.326679
-0.309823
-0.276874
-0.227094
-0.168628
-0.10961
-0.0594387
-0.0223051
0.00188606
0.0145145
0.0201562
0.0200148
0.018513
0.0145797
0.0116146
0.00674127
0.00386355
-0.307078
-0.306327
-0.308211
-0.308359
-0.309741
-0.310662
-0.312342
-0.314377
-0.317377
-0.32123
-0.325828
-0.330084
-0.331713
-0.326963
-0.310216
-0.277334
-0.227555
-0.169043
-0.109952
-0.0597029
-0.0225028
0.00174309
0.0144089
0.0200815
0.0199587
0.0184736
0.014551
0.0115945
0.00672851
0.00385667
-0.307321
-0.306377
-0.308311
-0.308424
-0.309793
-0.310699
-0.31236
-0.314384
-0.317383
-0.321259
-0.325914
-0.330277
-0.332061
-0.327511
-0.310978
-0.278229
-0.228458
-0.169859
-0.11063
-0.0602271
-0.0228979
0.0014563
0.0141967
0.0199311
0.0198461
0.0183943
0.0144933
0.0115544
0.00670301
0.00384286
-0.307676
-0.306442
-0.308452
-0.308514
-0.309865
-0.310749
-0.312382
-0.314389
-0.317384
-0.32129
-0.326025
-0.330538
-0.332545
-0.328284
-0.312062
-0.279515
-0.229766
-0.171053
-0.111633
-0.0610033
-0.0234893
0.00102413
0.0138761
0.0197032
0.0196758
0.0182741
0.0144064
0.0114937
0.00666479
0.00382203
-0.30813
-0.306515
-0.308626
-0.308623
-0.309949
-0.310806
-0.312402
-0.314385
-0.317371
-0.321311
-0.326142
-0.330841
-0.333124
-0.32923
-0.313406
-0.28113
-0.231429
-0.172591
-0.112935
-0.0620282
-0.0242757
0.000444642
0.0134449
0.0193954
0.0194465
0.018112
0.0142898
0.0114123
0.00661393
0.00379409
-0.308669
-0.306582
-0.308819
-0.308743
-0.310039
-0.310862
-0.312413
-0.314364
-0.317336
-0.321308
-0.326242
-0.33115
-0.33375
-0.330264
-0.314937
-0.283002
-0.233388
-0.174437
-0.114516
-0.0632892
-0.025255
-0.000284054
0.0129005
0.0190049
0.0191567
0.0179064
0.0141428
0.0113097
0.00655049
0.00375893
-0.309277
-0.306633
-0.309019
-0.308865
-0.310125
-0.310911
-0.312408
-0.31432
-0.317267
-0.321267
-0.326304
-0.331431
-0.334374
-0.331342
-0.316579
-0.285053
-0.235588
-0.176531
-0.116355
-0.0647769
-0.0264242
-0.00116329
0.0122408
0.018529
0.0188048
0.0176561
0.013965
0.0111854
0.00647458
0.00371646
-0.309942
-0.306656
-0.309213
-0.308981
-0.310198
-0.310944
-0.312381
-0.314245
-0.317159
-0.321175
-0.326307
-0.331653
-0.334952
-0.332512
-0.318256
-0.287215
-0.237974
-0.178813
-0.118425
-0.0664797
-0.0277793
-0.00219342
0.0114641
0.0179657
0.0183897
0.01736
0.0137559
0.0110392
0.00638636
0.00366663
-0.310678
-0.30663
-0.309388
-0.30908
-0.310251
-0.310956
-0.312326
-0.314137
-0.317004
-0.321023
-0.326235
-0.331788
-0.335441
-0.333517
-0.3199
-0.289423
-0.240422
-0.181296
-0.120693
-0.0683837
-0.0293144
-0.00337341
0.0105699
0.0173134
0.0179105
0.017017
0.0135153
0.0108708
0.00628599
0.00360948
-0.31147
-0.306553
-0.309535
-0.309154
-0.310276
-0.31094
-0.312241
-0.31399
-0.3168
-0.320806
-0.326076
-0.331814
-0.335807
-0.334405
-0.321451
-0.291562
-0.24297
-0.183896
-0.123134
-0.0704736
-0.0310223
-0.00470059
0.00955902
0.016572
0.0173671
0.0166269
0.0132429
0.0106803
0.00617372
0.0035451
-0.311986
-0.306543
-0.309615
-0.309197
-0.310268
-0.310888
-0.312121
-0.313801
-0.316546
-0.320519
-0.325823
-0.331718
-0.336024
-0.335128
-0.322842
-0.293638
-0.24552
-0.186583
-0.125721
-0.0727333
-0.0328939
-0.00617053
0.00843362
0.015742
0.0167599
0.0161898
0.0129392
0.0104677
0.00604983
0.00347367
-0.312448
-0.306574
-0.309584
-0.309225
-0.310206
-0.310805
-0.311962
-0.313576
-0.31624
-0.320163
-0.325473
-0.331489
-0.336074
-0.335661
-0.324053
-0.295582
-0.248028
-0.189324
-0.128429
-0.0751455
-0.0349186
-0.00777705
0.00719736
0.0148255
0.0160904
0.0157064
0.0126045
0.0102334
0.00591466
0.00339543
-0.31291
-0.306562
-0.309497
-0.309196
-0.310097
-0.310675
-0.311764
-0.313308
-0.315886
-0.31974
-0.325027
-0.331127
-0.335948
-0.335983
-0.325049
-0.297355
-0.250462
-0.192087
-0.131233
-0.0776928
-0.0370847
-0.00951262
0.00585514
0.0138255
0.0153604
0.0151779
0.0122396
0.009978
0.00576862
0.00331074
-0.313332
-0.306523
-0.309343
-0.309101
-0.309932
-0.310494
-0.311522
-0.312996
-0.315485
-0.319253
-0.324488
-0.330631
-0.335655
-0.336084
-0.32581
-0.298932
-0.252791
-0.194845
-0.13411
-0.080358
-0.0393797
-0.0113685
0.00441305
0.0127458
0.0145727
0.0146061
0.0118457
0.00970225
0.00561218
0.00321999
-0.313677
-0.306475
-0.309105
-0.308929
-0.309698
-0.310255
-0.31123
-0.31264
-0.315034
-0.318704
-0.323859
-0.330005
-0.335216
-0.33596
-0.326322
-0.300292
-0.25499
-0.197571
-0.137036
-0.0831211
-0.0417882
-0.0133332
0.00287915
0.011592
0.0137306
0.0139933
0.0114241
0.00940711
0.00544585
0.00312363
-0.313895
-0.306412
-0.308773
-0.308664
-0.309384
-0.309948
-0.310883
-0.312235
-0.314535
-0.318095
-0.323145
-0.329251
-0.334386
-0.335611
-0.32658
-0.30142
-0.257033
-0.200233
-0.139979
-0.0859533
-0.0442877
-0.0153912
0.00126397
0.0103708
0.0128387
0.0133423
0.0109765
0.00909367
0.00527021
0.00302216
-0.313861
-0.306296
-0.308345
-0.308297
-0.308982
-0.309568
-0.310475
-0.311778
-0.313985
-0.317428
-0.32235
-0.328377
-0.333607
-0.33504
-0.326583
-0.302302
-0.258898
-0.202807
-0.142916
-0.0888395
-0.0468681
-0.0175346
-0.000426421
0.00908722
0.0119004
0.0126561
0.0105048
0.00876326
0.00508591
0.00291611
-0.313479
-0.306117
-0.307821
-0.307811
-0.308471
-0.309092
-0.309987
-0.311251
-0.31337
-0.316691
-0.321467
-0.327399
-0.332617
-0.334237
-0.326338
-0.302972
-0.260646
-0.205378
-0.14594
-0.0918556
-0.0495826
-0.0197935
-0.00220647
0.00773641
0.0109152
0.011936
0.0100103
0.00841731
0.00489374
0.0028061
-0.31305
-0.305802
-0.307113
-0.307121
-0.307773
-0.308456
-0.309365
-0.31061
-0.312648
-0.315841
-0.320449
-0.32639
-0.331406
-0.333182
-0.325849
-0.303482
-0.262373
-0.208053
-0.149139
-0.0950608
-0.0524623
-0.0221819
-0.00408061
0.00631765
0.00988394
0.0111829
0.00949426
0.00805676
0.00469438
0.00269268
-0.310595
-0.304545
-0.30605
-0.306105
-0.306827
-0.307639
-0.308618
-0.30989
-0.311887
-0.314973
-0.319386
-0.324895
-0.330201
-0.332009
-0.325062
-0.303494
-0.263444
-0.210011
-0.151675
-0.0977593
-0.0550081
-0.0243925
-0.00587588
0.00491586
0.00884543
0.0104115
0.00896147
0.0076813
0.00448723
0.00257545
-0.298656
-0.302005
-0.304866
-0.305039
-0.305847
-0.306803
-0.30787
-0.309203
-0.311223
-0.31429
-0.318633
-0.324145
-0.329109
-0.330767
-0.323794
-0.302435
-0.262967
-0.210283
-0.152761
-0.0994777
-0.0570465
-0.0264688
-0.00774432
0.00333886
0.00762125
0.00946769
0.00829828
0.00720491
0.00422478
0.00242752
-0.293754
-0.29942
-0.30264
-0.302914
-0.3039
-0.305127
-0.306391
-0.307869
-0.309964
-0.313022
-0.317211
-0.322395
-0.326834
-0.327888
-0.320456
-0.299142
-0.26053
-0.209169
-0.153153
-0.101093
-0.0593801
-0.029041
-0.0101477
0.00126604
0.00599732
0.00821328
0.00741728
0.00657928
0.00388213
0.00224067
-0.290518
-0.296035
-0.2992
-0.299829
-0.301146
-0.302744
-0.304295
-0.305989
-0.308208
-0.311279
-0.315297
-0.320036
-0.323862
-0.324152
-0.316134
-0.294847
-0.257214
-0.207401
-0.153138
-0.102521
-0.0616797
-0.0316772
-0.0126604
-0.000933658
0.00425655
0.00685909
0.00646082
0.00589985
0.00350951
0.00204227
-0.28692
-0.291415
-0.294341
-0.295616
-0.297449
-0.299512
-0.301437
-0.303412
-0.305795
-0.308887
-0.312702
-0.316978
-0.320132
-0.319615
-0.311019
-0.289827
-0.253312
-0.205238
-0.152915
-0.103901
-0.0640307
-0.0344192
-0.0152928
-0.00325256
0.00241422
0.00542032
0.00544179
0.00517476
0.00311234
0.00183457
-0.281538
-0.285518
-0.288183
-0.290224
-0.292719
-0.295321
-0.297687
-0.299998
-0.302579
-0.3057
-0.309311
-0.313088
-0.315528
-0.314191
-0.305052
-0.284046
-0.248799
-0.202663
-0.152465
-0.105209
-0.0664087
-0.0372464
-0.0180301
-0.00568057
0.000476067
0.00390064
0.00436212
0.00440529
0.00269117
0.00161853
-0.274123
-0.278472
-0.281009
-0.283774
-0.286996
-0.290177
-0.293017
-0.295692
-0.298488
-0.301634
-0.305012
-0.308294
-0.310002
-0.30786
-0.298239
-0.277534
-0.243708
-0.199694
-0.151784
-0.106421
-0.0687811
-0.0401261
-0.0208472
-0.00819965
-0.00154755
0.00230635
0.00322479
0.00359335
0.00224647
0.00139539
-0.265201
-0.270474
-0.273133
-0.276511
-0.280438
-0.284197
-0.287505
-0.290538
-0.293543
-0.296699
-0.299849
-0.302611
-0.303597
-0.300696
-0.290686
-0.270406
-0.238135
-0.196392
-0.150892
-0.107524
-0.0711204
-0.0430268
-0.0237177
-0.0107892
-0.00364344
0.000646327
0.0020347
0.00274221
0.00177949
0.00116669
-0.255276
-0.261742
-0.264815
-0.2687
-0.27325
-0.277558
-0.281307
-0.284666
-0.28785
-0.290991
-0.293898
-0.296145
-0.296443
-0.292858
-0.282568
-0.262833
-0.232212
-0.192835
-0.149815
-0.108509
-0.0734002
-0.0459174
-0.026615
-0.0134279
-0.00579748
-0.00106969
0.000797552
0.00185575
0.00129176
0.00093398
-0.244797
-0.252509
-0.256231
-0.260564
-0.26563
-0.27044
-0.274594
-0.278239
-0.281566
-0.284664
-0.287316
-0.289066
-0.28873
-0.284555
-0.274096
-0.255005
-0.226083
-0.189105
-0.148586
-0.10937
-0.0755971
-0.048769
-0.0295135
-0.016095
-0.00799539
-0.00283169
-0.000480684
0.000938083
0.000784942
0.000698735
-0.234154
-0.242976
-0.247491
-0.252256
-0.257739
-0.262989
-0.267515
-0.27141
-0.274847
-0.277882
-0.280278
-0.281564
-0.280662
-0.276
-0.265478
-0.247102
-0.219881
-0.185279
-0.147234
-0.110104
-0.0776914
-0.0515559
-0.03239
-0.0187709
-0.0102233
-0.00462971
-0.0017939
-6.47702e-06
0.000260796
0.000462346
-0.223595
-0.233305
-0.238664
-0.243869
-0.249692
-0.255319
-0.260182
-0.264301
-0.267826
-0.270787
-0.27294
-0.273808
-0.272418
-0.267375
-0.256887
-0.239272
-0.213717
-0.181423
-0.145787
-0.110709
-0.0796675
-0.0542567
-0.0352238
-0.0214376
-0.0124679
-0.00645404
-0.00313593
-0.000973515
-0.000278799
0.000226063
-0.213266
-0.223632
-0.229803
-0.235462
-0.241573
-0.24751
-0.252674
-0.256999
-0.260599
-0.263489
-0.265423
-0.265929
-0.264136
-0.258815
-0.248445
-0.231617
-0.207668
-0.177583
-0.144264
-0.111186
-0.0815139
-0.056854
-0.037997
-0.024079
-0.0147168
-0.00829518
-0.00450061
-0.00195854
-0.000831855
-9.00516e-06
-0.203268
-0.214067
-0.220965
-0.227074
-0.233438
-0.239626
-0.245052
-0.249567
-0.253238
-0.256064
-0.257811
-0.258018
-0.255908
-0.250408
-0.240231
-0.224202
-0.201784
-0.173792
-0.142684
-0.111538
-0.0832228
-0.0593344
-0.0406946
-0.0266807
-0.016958
-0.0101439
-0.00588169
-0.00295695
-0.00139624
-0.000241899
-0.193666
-0.204706
-0.212209
-0.218744
-0.225336
-0.231722
-0.237366
-0.242053
-0.245794
-0.248573
-0.250167
-0.250139
-0.247797
-0.24221
-0.232288
-0.21706
-0.196094
-0.17007
-0.141057
-0.111768
-0.0847892
-0.0616875
-0.0433033
-0.0292293
-0.0191803
-0.0119909
-0.00727273
-0.00396401
-0.0019696
-0.000471783
-0.184508
-0.195623
-0.2036
-0.210514
-0.21731
-0.223849
-0.229666
-0.234503
-0.238315
-0.241064
-0.242541
-0.242341
-0.239846
-0.234252
-0.224639
-0.210207
-0.190614
-0.166432
-0.139396
-0.111882
-0.0862109
-0.0639051
-0.0458119
-0.0317127
-0.0213724
-0.0138269
-0.00866696
-0.00497475
-0.00254935
-0.000697922
-0.175825
-0.186883
-0.195201
-0.202432
-0.209402
-0.216057
-0.222003
-0.226965
-0.230847
-0.233584
-0.234979
-0.234664
-0.232088
-0.226558
-0.217297
-0.203652
-0.185354
-0.16289
-0.13771
-0.111885
-0.0874877
-0.0659814
-0.0482102
-0.0341191
-0.0235231
-0.0156423
-0.0100572
-0.00598388
-0.00313255
-0.000919632
-0.167644
-0.178536
-0.187072
-0.194548
-0.201658
-0.208394
-0.214431
-0.219492
-0.223438
-0.226179
-0.227526
-0.227147
-0.224553
-0.219145
-0.210272
-0.197401
-0.180322
-0.159455
-0.13601
-0.111785
-0.088621
-0.0679118
-0.050489
-0.0364374
-0.0256212
-0.017427
-0.0114356
-0.00698577
-0.0037159
-0.00113624
-0.159981
-0.170623
-0.179267
-0.186913
-0.194125
-0.200912
-0.207004
-0.212135
-0.21614
-0.218898
-0.220228
-0.21983
-0.21727
-0.212034
-0.203575
-0.191459
-0.175524
-0.156138
-0.134309
-0.111592
-0.0896142
-0.0696933
-0.0526405
-0.0386568
-0.0276551
-0.0191707
-0.0127939
-0.00797436
-0.00429571
-0.00134703
-0.152844
-0.163175
-0.171834
-0.179579
-0.18685
-0.193659
-0.199777
-0.204954
-0.209006
-0.211792
-0.213131
-0.212751
-0.21027
-0.205246
-0.197217
-0.185833
-0.170969
-0.15295
-0.13262
-0.111316
-0.0904718
-0.0713244
-0.0546573
-0.0407669
-0.0296133
-0.0208626
-0.0141231
-0.00894318
-0.00486786
-0.00155124
-0.146238
-0.156216
-0.164814
-0.172593
-0.179883
-0.186686
-0.192803
-0.198003
-0.202093
-0.204914
-0.206284
-0.205954
-0.203587
-0.198803
-0.191211
-0.180531
-0.166666
-0.149905
-0.130955
-0.110969
-0.0912003
-0.0728048
-0.0565333
-0.042758
-0.0314841
-0.0224915
-0.0154136
-0.0098853
-0.00542784
-0.00174798
-0.140167
-0.149766
-0.158244
-0.166
-0.173272
-0.180044
-0.18614
-0.191343
-0.195458
-0.198318
-0.199735
-0.199479
-0.197253
-0.192729
-0.185575
-0.175564
-0.162626
-0.147017
-0.129331
-0.110563
-0.0918072
-0.0741356
-0.0582634
-0.0446205
-0.0332557
-0.024046
-0.0166551
-0.0107933
-0.00597074
-0.00193623
-0.13463
-0.14384
-0.152154
-0.159844
-0.167066
-0.173785
-0.17984
-0.185031
-0.189162
-0.19206
-0.193535
-0.193373
-0.191305
-0.187051
-0.180326
-0.170947
-0.158862
-0.1443
-0.127764
-0.110114
-0.0923017
-0.075319
-0.059843
-0.0463455
-0.0349162
-0.025514
-0.0178369
-0.0116594
-0.00649125
-0.00211478
-0.129628
-0.138453
-0.146576
-0.154166
-0.161311
-0.167961
-0.173962
-0.179126
-0.183265
-0.186198
-0.187739
-0.187681
-0.185783
-0.181799
-0.175486
-0.166696
-0.155389
-0.141772
-0.126272
-0.109636
-0.092694
-0.0763584
-0.0612684
-0.0479245
-0.0364536
-0.0268833
-0.0189474
-0.012475
-0.00698371
-0.00228227
-0.125165
-0.13362
-0.141537
-0.149006
-0.156057
-0.162624
-0.16856
-0.17369
-0.177827
-0.180794
-0.182401
-0.182453
-0.180727
-0.177007
-0.171082
-0.162832
-0.152226
-0.139451
-0.124875
-0.109148
-0.0929956
-0.0772581
-0.0625365
-0.0493489
-0.0378557
-0.0281409
-0.0199746
-0.013231
-0.00744203
-0.00243708
-0.121248
-0.129358
-0.137067
-0.144403
-0.151352
-0.157829
-0.163696
-0.168784
-0.172915
-0.17591
-0.177583
-0.177743
-0.176184
-0.172713
-0.167146
-0.159381
-0.149396
-0.137361
-0.123593
-0.108667
-0.0932189
-0.0780228