/*--------------------------------*- C++ -*----------------------------------*\
  =========                 |
  \\      /  F ield         | OpenFOAM: The Open Source CFD Toolbox
   \\    /   O peration     | Website:  https://openfoam.org
    \\  /    A nd           | Version:  7
     \\/     M anipulation  |
\*---------------------------------------------------------------------------*/
FoamFile
{
    version     2.0;
    format      ascii;
    class       surfaceScalarField;
    location    "20";
    object      phi;
}
// * * * * * * * * * * * * * * * * * * * * * * * * * * * * * * * * * * * * * //

dimensions      [0 3 -1 0 0 0 0];

internalField   nonuniform List<scalar> 
16735
(
-7.41403e-05
7.414e-05
3.73593e-10
-0.000264239
0.000190098
5.6735e-10
-0.000550988
0.000286749
3.35963e-10
-0.000915519
0.000364531
-2.19673e-10
-0.00134091
0.000425393
-1.00821e-09
-0.00181399
0.000473079
-1.97337e-09
-0.00232749
0.000513502
-3.10632e-09
-0.0028829
0.000555422
-4.45628e-09
-0.00349273
0.000609829
-6.11722e-09
0.000690134
-8.2351e-09
-0.00418285
-7.32744e-05
0.000147414
-0.000261242
0.000378065
-0.000544686
0.000570193
-0.000904648
0.000724494
-0.0013239
0.00084465
-0.00178869
0.000937868
-0.00229084
0.00101564
-0.0028307
0.00109528
-0.00341976
0.00119889
0.00135349
-0.00408311
-7.15807e-05
0.000218995
-0.000255361
0.000561846
-0.000532291
0.000847122
-0.00088324
0.00107544
-0.00129039
0.0012518
-0.00173882
0.0013863
-0.00221852
0.00149535
-0.00272754
0.0016043
-0.0032753
0.00174664
0.0019632
-0.00388501
-6.91319e-05
0.000288127
-0.000246812
0.000739526
-0.000514207
0.00111452
-0.000851932
0.00141317
-0.0012413
0.00164117
-0.00166571
0.00181071
-0.00211241
0.00194205
-0.00257587
0.00206776
-0.0030622
0.00223298
0.00249218
-0.00359118
-6.60292e-05
0.000354156
-0.000235891
0.000909388
-0.000490986
0.00136961
-0.000811588
0.00173377
-0.00117792
0.0020075
-0.00157121
0.002204
-0.00197509
0.00234592
-0.00237903
0.0024717
-0.0027845
0.00263845
0.00291283
-0.00320516
-6.23937e-05
0.00041655
-0.000222953
0.00106995
-0.000463276
0.00160994
-0.000763209
0.0020337
-0.0011017
0.00234599
-0.0014574
0.0025597
-0.00180949
0.00269801
-0.00214097
0.00280318
-0.00244699
0.00294447
0.00319691
-0.00273107
-5.83564e-05
0.000474906
-0.000208374
0.00121997
-0.00043175
0.00183331
-0.000707803
0.00230975
-0.00101405
0.00265224
-0.00132628
0.00287193
-0.00161849
0.00299023
-0.0018656
0.00305028
-0.00205458
0.00313345
0.00331558
-0.00217325
-5.40476e-05
0.000528954
-0.000192521
0.00135844
-0.000397036
0.00203783
-0.000646242
0.00255896
-0.000916102
0.00292209
-0.00117934
0.00313517
-0.00140424
0.00321513
-0.00155593
0.00320197
-0.00161118
0.0031887
0.00324037
-0.00153597
-4.9588e-05
0.000578542
-0.000175717
0.00148457
-0.00035964
0.00222175
-0.00057913
0.00277845
-0.000808448
0.00315141
-0.0010171
0.00334382
-0.0011673
0.00336534
-0.00121272
0.0032474
-0.00111756
0.00309353
0.0029472
-0.000824387
-4.50813e-05
0.000623623
-0.000158218
0.0015977
-0.000319891
0.00238342
-0.00050667
0.00296523
-0.000690877
0.00333562
-0.000838617
0.00349156
-0.000905809
0.00343253
-0.000832675
0.00317426
-0.000564063
0.00282492
0.00244718
-6.40447e-05
-4.06101e-05
0.000664233
-0.000140192
0.00169729
-0.000277894
0.00252112
-0.00042858
0.00311592
-0.000562202
0.00346924
-0.000641122
0.00357048
-0.000614935
0.00340634
-0.000409695
0.00296902
8.29062e-05
0.00233232
0.00164997
0.000880115
-3.62342e-05
0.000700467
-0.000121717
0.00178277
-0.000233517
0.00263293
-0.000344053
0.00322645
-0.000420155
0.00354534
-0.000419724
0.00357005
-0.000285688
0.00327231
5.97068e-05
0.00262363
0.000763314
0.00162871
0.00048408
0.00192921
-3.19905e-05
0.000732458
-0.000102772
0.00185355
-0.000186392
0.00271654
-0.00025177
0.00329183
-0.000261404
0.00355498
-0.000167425
0.00347607
9.66565e-05
0.00300822
0.000627425
0.00209286
0.00158082
0.000675318
-0.00107073
0.00313563
-2.78929e-05
0.000760351
-8.32437e-05
0.0019089
-0.000135923
0.00276922
-0.000149981
0.00330589
-8.18145e-05
0.00348681
0.000124317
0.00326994
0.000544856
0.00258768
0.0012922
0.00134552
0.00256072
-0.000593204
-0.00305309
0.00454307
-2.39277e-05
0.000784279
-6.29065e-05
0.00194788
-8.12861e-05
0.0027876
-3.65216e-05
0.00326113
0.000123401
0.00332689
0.000465261
0.00292808
0.00107924
0.00197371
0.00209206
0.000332698
0.00375004
-0.00225118
-0.00549688
0.00619383
-2.00428e-05
0.000804321
-4.1397e-05
0.00196923
-2.13432e-05
0.00276755
9.11412e-05
0.00314864
0.000359518
0.00305851
0.00086542
0.00242217
0.00171742
0.00112171
0.00305749
-0.00100738
0.00519396
-0.00438765
-0.00841855
0.00811563
-1.61319e-05
0.000820453
-1.81286e-05
0.00197123
4.52244e-05
0.0027042
0.000236067
0.0029578
0.00063232
0.00266226
0.00133496
0.00171954
0.00247618
-1.95137e-05
0.00421493
-0.00274613
0.00691911
-0.00709183
-0.0118031
0.0103037
-1.20285e-05
0.000832482
7.68932e-06
0.00195151
0.000120395
0.00259149
0.000402002
0.00267619
0.000948312
0.00211595
0.00188412
0.00078373
0.00337002
-0.00150542
0.0055863
-0.00496241
0.00891863
-0.0104242
-0.0155962
0.0127117
-7.54071e-06
0.000840023
3.66721e-05
0.0019073
0.00020662
0.00242154
0.000593541
0.00228927
0.00131487
0.00139462
0.0025232
-0.000424603
0.00441035
-0.00339257
0.00718949
-0.00774154
0.0111523
-0.014387
-0.0197095
0.0152656
-2.02624e-06
0.000842049
7.08489e-05
0.00183442
0.000307043
0.00218535
0.000816152
0.00178016
0.00174006
0.000470711
0.00326145
-0.00194599
0.00560097
-0.00573209
0.00901473
-0.0111553
0.0135865
-0.0189587
-0.0240165
0.0178935
4.86693e-06
0.000837182
0.000111686
0.00172761
0.000425271
0.00187176
0.00107597
0.00112946
0.00223216
-0.000685472
0.00410564
-0.00381947
0.00693347
-0.00855993
0.0109734
-0.0151952
0.0160626
-0.0240479
-0.0316907
0.0237367
1.34642e-05
0.000823718
0.000161016
0.00158005
0.000565206
0.00146757
0.0013793
0.000315368
0.00279861
-0.00210479
0.00505855
-0.00607941
0.00839193
-0.0118933
0.012984
-0.0197872
0.0185444
-0.0296083
-0.0390234
0.0258771
2.45712e-05
0.000799146
0.000220765
0.00138386
0.000730649
0.00095769
0.00173171
-0.000685692
0.00344434
-0.00381742
0.00611563
-0.0087507
0.0099451
-0.0157228
0.0149743
-0.0248165
0.0208305
-0.0354645
-0.0458963
0.0277033
3.86894e-05
0.000760457
0.000292674
0.00112988
0.000924814
0.00032555
0.00213696
-0.00189784
0.0041693
-0.00584976
0.00726078
-0.0118422
0.0115384
-0.0200004
0.0168658
-0.0301439
0.0227587
-0.0413574
-0.0522106
0.0290731
5.62798e-05
0.000704177
0.000378139
0.000808017
0.00114984
-0.000446155
0.0025959
-0.00334389
0.00496622
-0.00822008
0.00846354
-0.0153395
0.0130983
-0.0246351
0.018549
-0.0355946
0.0242448
-0.0470532
-0.0578673
0.0299014
7.77002e-05
0.000626477
0.00047806
0.000407657
0.00140641
-0.00137451
0.00310554
-0.00504302
0.00581915
-0.0109337
0.00967882
-0.0191992
0.0145426
-0.0294989
0.01993
-0.040982
0.0252467
-0.0523699
-0.062822
0.0302014
0.000103183
0.000523294
0.000592755
-8.19143e-05
0.00169344
-0.00247519
0.00365855
-0.00700813
0.00670313
-0.0139783
0.0108509
-0.0233469
0.015794
-0.0344421
0.0209489
-0.0461368
0.0257701
-0.0571911
-0.0670903
0.0300384
0.000132829
0.000390465
0.000721898
-0.000670983
0.00200794
-0.00376123
0.00424291
-0.00924311
0.00758531
-0.0173207
0.0119207
-0.0276823
0.0167919
-0.0393133
0.0215843
-0.0509292
0.0258562
-0.061463
-0.070725
0.0294909
0.000166605
0.00022386
0.000864483
-0.00136886
0.00234485
-0.0052416
0.00484209
-0.0117403
0.00842775
-0.0209063
0.0128349
-0.0320894
0.0175005
-0.0439789
0.0218475
-0.0552762
0.0255651
-0.0651806
-0.0737991
0.0286392
0.000204339
1.95209e-05
0.00101879
-0.00218331
0.00269708
-0.00691989
0.00543567
-0.0144789
0.00919167
-0.0246623
0.013553
-0.0364507
0.0179096
-0.0483355
0.0217721
-0.0591388
0.0249635
-0.0683721
-0.0763908
0.0275552
0.000245707
-0.000226186
0.00118236
-0.00311997
0.00305553
-0.00879307
0.00600078
-0.0174242
0.00984215
-0.0285037
0.0140512
-0.0406598
0.0180299
-0.0523141
0.0214037
-0.0625126
0.0241154
-0.0710838
-0.0785738
0.0262985
0.000290239
-0.000516426
0.001352
-0.00418172
0.00340943
-0.0108505
0.00651402
-0.0205288
0.0103522
-0.0323419
0.0143228
-0.0446304
0.0178867
-0.055878
0.0207915
-0.0654174
0.0230777
-0.0733701
-0.0804128
0.0249167
0.000337281
-0.000853707
0.0015238
-0.00536824
0.00374685
-0.0130736
0.00695389
-0.0237358
0.0107049
-0.0360929
0.0143746
-0.0483001
0.0175131
-0.0590165
0.0199832
-0.0678874
0.0218979
-0.0752848
-0.0819611
0.0234462
0.000386006
-0.00123971
0.00169327
-0.0066755
0.0040555
-0.0154358
0.00730288
-0.0269832
0.010894
-0.039684
0.0142236
-0.0516296
0.0169454
-0.0617384
0.0190216
-0.0699637
0.0206146
-0.0768778
-0.0832609
0.0219144
0.000435422
-0.00167514
0.00185548
-0.00809556
0.00432369
-0.017904
0.00754889
-0.0302084
0.0109223
-0.0430574
0.0138927
-0.0546
0.0162189
-0.0640645
0.0179437
-0.0716885
0.0192579
-0.0781919
-0.0843442
0.0203411
0.000484397
-0.00215953
0.00200533
-0.00961649
0.0045413
-0.02044
0.00768582
-0.0333529
0.0107994
-0.046171
0.0134073
-0.0572078
0.0153661
-0.0660234
0.0167798
-0.0731023
0.0178508
-0.0792629
-0.0852345
0.0187411
0.000531693
-0.00269123
0.00213781
-0.0112226
0.00470053
-0.0230027
0.00771317
-0.0363655
0.0105398
-0.0489977
0.0127931
-0.0594611
0.0144157
-0.067646
0.0155546
-0.0742411
0.0164107
-0.080119
-0.0859488
0.017125
0.000576026
-0.00326725
0.00224837
-0.012895
0.00479639
-0.0255507
0.00763509
-0.0392042
0.0101603
-0.0515229
0.0120745
-0.0613753
0.0133923
-0.0689638
0.0142874
-0.0751363
0.0149507
-0.0807822
-0.086499
0.0155009
0.000616118
-0.00388337
0.00233317
-0.014612
0.00482679
-0.0280443
0.00745923
-0.0418367
0.00967853
-0.0537422
0.0112737
-0.0629704
0.0123161
-0.0700062
0.0129935
-0.0758136
0.0134805
-0.0812693
-0.0868932
0.0138747
0.000650763
-0.00453413
0.00238929
-0.0163505
0.00479234
-0.0304474
0.00719544
-0.0442398
0.009112
-0.0556588
0.0104099
-0.0642683
0.0112037
-0.0708
0.0116845
-0.0762944
0.0120075
-0.0815924
-0.0871372
0.0122515
0.000678878
-0.00521301
0.0024149
-0.0180866
0.0046959
-0.0327284
0.0068548
-0.0463987
0.00847708
-0.057281
0.00949999
-0.0652912
0.0100686
-0.0713686
0.0103693
-0.0765951
0.0105373
-0.0817603
-0.0872348
0.010635
0.000699556
-0.00591257
0.00240927
-0.0197963
0.00454202
-0.0348611
0.00644873
-0.0483054
0.00778864
-0.058621
0.00855793
-0.0660605
0.00892129
-0.071732
0.00905506
-0.0767289
0.00907427
-0.0817795
-0.0871885
0.00902797
0.000712094
-0.00662466
0.00237268
-0.0214569
0.00433641
-0.0368249
0.00598844
-0.0499574
0.00705988
-0.0596924
0.00759539
-0.0665961
0.00777022
-0.0719068
0.00774696
-0.0767056
0.00762182
-0.0816544
-0.0869996
0.00743288
0.000716017
-0.00734068
0.00230634
-0.0230472
0.00408541
-0.0386039
0.00548451
-0.0513565
0.00630228
-0.0605102
0.00662196
-0.0669157
0.00662199
-0.0719068
0.00644909
-0.0765327
0.00618267
-0.081388
-0.0866685
0.00585161
0.00071108
-0.00805176
0.00221216
-0.0245483
0.0037956
-0.0401874
0.00494662
-0.0525075
0.00552566
-0.0610892
0.00564548
-0.0670356
0.00548189
-0.0717432
0.00516472
-0.0762156
0.00475887
-0.0809821
-0.0861951
0.00428543
0.000697261
-0.00874902
0.00209258
-0.0259436
0.00347345
-0.0415683
0.00438349
-0.0534176
0.00473835
-0.0614441
0.00467235
-0.0669696
0.00435436
-0.0714253
0.00389712
-0.0757583
0.00335206
-0.0804371
-0.0855775
0.00273443
0.000674746
-0.00942377
0.00195034
-0.0272192
0.00312515
-0.0427431
0.00380277
-0.0540952
0.00394727
-0.0615886
0.00370769
-0.06673
0.00324314
-0.0709607
0.00265037
-0.0751655
0.00196467
-0.0797514
-0.0848065
0.00119366
0.000643933
-0.0100677
0.00178856
-0.0283638
0.00275649
-0.043711
0.00321113
-0.0545498
0.00315817
-0.0615356
0.00275548
-0.0663273
0.00215103
-0.0703562
0.00142731
-0.0744418
0.00060844
-0.0789325
-0.0838591
-0.000338888
0.0006054
-0.0106731
0.00161044
-0.0293688
0.00237278
-0.0444733
0.0026143
-0.0547914
0.00237572
-0.061297
0.00181898
-0.0657706
0.00108035
-0.0696176
0.00021983
-0.0735813
-0.000724478
-0.0779882
-0.0828079
-0.00177573
0.00055985
-0.0112329
0.00141899
-0.030228
0.00197884
-0.0450332
0.0020172
-0.0548297
0.00160366
-0.0608835
0.000901074
-0.065068
2.24539e-05
-0.068739
-0.000949871
-0.072609
-0.00203599
-0.0769021
-0.0816354
-0.00320846
0.000508088
-0.011741
0.0012171
-0.030937
0.00157906
-0.0453951
0.00142401
-0.0546747
0.000844726
-0.0603042
-3.85154e-06
-0.0642194
-0.000990426
-0.0677524
-0.00209618
-0.0715032
-0.00331172
-0.0756865
-0.0803304
-0.00461672
0.000451018
-0.0121921
0.00100755
-0.0314935
0.00117719
-0.0455648
0.000838049
-0.0543355
0.000103537
-0.0595697
-0.000868622
-0.0632472
-0.00198659
-0.0666345
-0.00321514
-0.0702747
-0.00455657
-0.0743451
-0.0788931
-0.00599388
0.000389639
-0.0125817
0.000793212
-0.0318971
0.000776098
-0.0455477
0.000263676
-0.0538231
-0.00061877
-0.0586872
-0.00171954
-0.0621465
-0.00295637
-0.0653976
-0.00430455
-0.0689265
-0.00577008
-0.0728796
-0.0773257
-0.00733745
0.000324873
-0.0129066
0.000577185
-0.0321494
0.000379144
-0.0453496
-0.00029952
-0.0531444
-0.00132205
-0.0576647
-0.00254609
-0.0609224
-0.00389849
-0.0640452
-0.00536343
-0.0674616
-0.00695099
-0.071292
-0.0756325
-0.00864426
0.000257498
-0.0131641
0.000361411
-0.0322533
1.06883e-05
-0.0449989
-0.000846
-0.0522878
-0.00200533
-0.0565054
-0.0033474
-0.0595804
-0.00481221
-0.0625804
-0.00639113
-0.0658826
-0.00809784
-0.0695853
-0.0738198
-0.00991052
0.000189108
-0.0133532
0.000147658
-0.0322119
-0.00039951
-0.0444517
-0.00138253
-0.0513047
-0.00266683
-0.0552211
-0.00412261
-0.0581246
-0.00569677
-0.0610063
-0.00738691
-0.0641925
-0.00920938
-0.0677628
-0.0718927
-0.0111364
0.000118417
-0.0134716
-6.01771e-05
-0.0320333
-0.000775029
-0.0437369
-0.00190228
-0.0501775
-0.00330588
-0.0538175
-0.00487102
-0.0565594
-0.00655173
-0.0593256
-0.00835028
-0.0623939
-0.0102857
-0.0658274
-0.0698488
-0.0123296
4.25475e-05
-0.0135141
-0.000290922
-0.0316998
-0.00114134
-0.0428865
-0.00240323
-0.0489156
-0.00392173
-0.052299
-0.00559238
-0.0548888
-0.00737742
-0.0575405
-0.00928226
-0.0604891
-0.0113257
-0.063784
-0.0676877
-0.0134869
-3.28286e-05
-0.0134813
-0.000504916
-0.0312277
-0.00149645
-0.0418949
-0.0028848
-0.0475272
-0.00451323
-0.0506706
-0.0062861
-0.0531159
-0.00817444
-0.0556522
-0.0101862
-0.0584774
-0.0123244
-0.0616458
-0.0654242
-0.0145878
-0.000103822
-0.0133775
-0.000710538
-0.030621
-0.00183867
-0.0407668
-0.00334663
-0.0460193
-0.00507966
-0.0489375
-0.00695116
-0.0512444
-0.0089408
-0.0536625
-0.0110605
-0.0563577
-0.0133204
-0.0593859
-0.0631971
-0.0155475
-0.000175279
-0.0132022
-0.000908999
-0.0298873
-0.00216705
-0.0395088
-0.00378812
-0.0443982
-0.00562051
-0.0471051
-0.00758651
-0.0492784
-0.00967169
-0.0515774
-0.011877
-0.0541524
-0.0141678
-0.057095
-0.0604713
-0.0168937
-0.000245384
-0.0129568
-0.0011002
-0.0290325
-0.00248098
-0.038128
-0.00420882
-0.0426704
-0.00613557
-0.0451784
-0.00819157
-0.0472224
-0.0103639
-0.0494051
-0.0126486
-0.0518676
-0.015063
-0.0546807
-0.0577604
-0.0177739
-0.000313541
-0.0126433
-0.00128368
-0.0280623
-0.00277999
-0.0366317
-0.00460836
-0.040842
-0.00662452
-0.0431622
-0.00876621
-0.0450807
-0.0110237
-0.0471476
-0.0134015
-0.0494898
-0.015933
-0.0521492
-0.0550202
-0.0186732
-0.000379369
-0.0122639
-0.00145891
-0.0269828
-0.00306369
-0.0350269
-0.00498643
-0.0389193
-0.00708697
-0.0410617
-0.00930964
-0.042858
-0.0116481
-0.0448092
-0.0141121
-0.0470257
-0.0167319
-0.0495293
-0.0522246
-0.0195275
-0.000442558
-0.0118214
-0.00162542
-0.0257999
-0.00333172
-0.0333206
-0.00534281
-0.0369082
-0.00752277
-0.0388817
-0.00982212
-0.0405587
-0.012238
-0.0423933
-0.0147835
-0.0444803
-0.0174829
-0.0468299
-0.0493632
-0.0203443
-0.000502838
-0.0113185
-0.00178283
-0.0245199
-0.00358382
-0.0315196
-0.00567731
-0.0348147
-0.00793174
-0.0366273
-0.0103034
-0.038187
-0.0127925
-0.0399041
-0.0154134
-0.0418594
-0.0181866
-0.0440567
-0.0464323
-0.0211175
-0.00055997
-0.0107585
-0.00193079
-0.0231491
-0.00381973
-0.0296307
-0.00598981
-0.0326446
-0.00831381
-0.0343033
-0.0107533
-0.0357476
-0.0133112
-0.0373463
-0.0160024
-0.0391682
-0.0188452
-0.0412139
-0.0434319
-0.0218455
-0.000613742
-0.0101448
-0.00206902
-0.0216938
-0.00403927
-0.0276604
-0.0062802
-0.0304037
-0.00866888
-0.0319146
-0.0111717
-0.0332448
-0.0137937
-0.0347242
-0.0165503
-0.0364116
-0.0194588
-0.0383054
-0.0403644
-0.0225264
-0.000663969
-0.00948084
-0.00219728
-0.0201605
-0.00424229
-0.0256154
-0.00654841
-0.0280975
-0.00899688
-0.0294661
-0.0115584
-0.0306832
-0.01424
-0.0320426
-0.0170573
-0.0335943
-0.0200273
-0.0353353
-0.0372331
-0.0231586
-0.00071049
-0.00877035
-0.00231538
-0.0185556
-0.00442866
-0.0235021
-0.00679439
-0.0257318
-0.00929774
-0.0269628
-0.0119133
-0.0280676
-0.0146497
-0.0293063
-0.017523
-0.030721
-0.0205502
-0.0323082
-0.0340423
-0.023741
-0.000753164
-0.00801718
-0.00242315
-0.0168856
-0.00459829
-0.021327
-0.00701808
-0.023312
-0.00957141
-0.0244094
-0.0122363
-0.0254027
-0.0150228
-0.0265198
-0.0179473
-0.0277965
-0.0210269
-0.0292286
-0.0307966
-0.0242726
-0.000791873
-0.00722531
-0.00252046
-0.0151571
-0.00475112
-0.0190963
-0.00721946
-0.0208437
-0.00981784
-0.0218111
-0.0125273
-0.0226932
-0.0153591
-0.0236881
-0.0183299
-0.0248257
-0.0214569
-0.0261015
-0.0275011
-0.0247525
-0.000826514
-0.0063988
-0.00260719
-0.0133764
-0.00488706
-0.0168164
-0.00739851
-0.0183322
-0.010037
-0.0191726
-0.0127862
-0.019944
-0.0156583
-0.020816
-0.0186705
-0.0218136
-0.02184
-0.022932
-0.0241611
-0.02518
-0.000856999
-0.0055418
-0.00268326
-0.0115501
-0.0050061
-0.0144936
-0.0075552
-0.0157831
-0.0102288
-0.016499
-0.0130129
-0.0171599
-0.0159205
-0.0179084
-0.018969
-0.0187651
-0.0221757
-0.0197253
-0.020782
-0.0255548
-0.000883255
-0.00465854
-0.00274859
-0.00968478
-0.00510819
-0.012134
-0.00768953
-0.0132018
-0.0103933
-0.0137953
-0.0132073
-0.0143458
-0.0161454
-0.0149704
-0.0192251
-0.0156853
-0.0224638
-0.0164866
-0.0173694
-0.0258764
-0.000905224
-0.00375332
-0.00280312
-0.00778689
-0.00519329
-0.00974384
-0.00780148
-0.0105936
-0.0105303
-0.0110664
-0.0133694
-0.0115067
-0.0163329
-0.0120069
-0.0194387
-0.0125796
-0.022704
-0.0132212
-0.0139289
-0.0261445
-0.000922854
-0.00283046
-0.00284679
-0.00586295
-0.0052614
-0.00732923
-0.00789104
-0.00796396
-0.01064
-0.00831745
-0.0134991
-0.0086476
-0.016483
-0.00902304
-0.0196096
-0.00945297
-0.0228963
-0.00993456
-0.0104661
-0.0263591
-0.00093611
-0.00189435
-0.00287958
-0.00391948
-0.00531249
-0.00489631
-0.00795821
-0.00531824
-0.0107223
-0.00555336
-0.0135965
-0.00577344
-0.0165956
-0.00602387
-0.0197379
-0.00631068
-0.0230406
-0.00663191
-0.00698665
-0.02652
-0.000944962
-0.000949392
-0.00290145
-0.001963
-0.00534656
-0.0024512
-0.008003
-0.0026618
-0.0107772
-0.0027792
-0.0136614
-0.00288923
-0.0166707
-0.00301449
-0.0198235
-0.00315795
-0.0231368
-0.00331862
-0.0034961
-0.0266273
-0.000949392
-9.52914e-12
-0.00291239
-6.28926e-11
-0.00536359
-1.07653e-10
-0.00802539
-1.30004e-10
-0.0108046
-1.46696e-10
-0.0136938
-1.72445e-10
-0.0167083
-2.049e-10
-0.0198663
-2.42963e-10
-0.0231849
-2.84984e-10
-3.30243e-10
-0.026681
-0.000949392
0.000949392
-0.00291239
0.001963
-0.00536359
0.0024512
-0.00802539
0.0026618
-0.0108046
0.0027792
-0.0136938
0.00288923
-0.0167083
0.00301449
-0.0198663
0.00315795
-0.0231849
0.00331862
0.0034961
-0.026681
-0.000944962
0.00189435
-0.00290145
0.00391948
-0.00534656
0.00489631
-0.008003
0.00531824
-0.0107772
0.00555336
-0.0136614
0.00577343
-0.0166707
0.00602387
-0.0198235
0.00631068
-0.0231368
0.00663191
0.00698664
-0.0266273
-0.00093611
0.00283046
-0.00287958
0.00586295
-0.00531249
0.00732923
-0.00795821
0.00796396
-0.0107223
0.00831745
-0.0135965
0.0086476
-0.0165956
0.00902304
-0.0197379
0.00945297
-0.0230406
0.00993456
0.0104661
-0.02652
-0.000922854
0.00375332
-0.00284679
0.00778689
-0.0052614
0.00974384
-0.00789104
0.0105936
-0.01064
0.0110664
-0.0134991
0.0115067
-0.016483
0.0120069
-0.0196096
0.0125796
-0.0228963
0.0132212
0.0139289
-0.0263591
-0.000905224
0.00465854
-0.00280312
0.00968478
-0.00519329
0.012134
-0.00780148
0.0132018
-0.0105303
0.0137953
-0.0133694
0.0143458
-0.0163329
0.0149704
-0.0194387
0.0156853
-0.022704
0.0164866
0.0173694
-0.0261445
-0.000883256
0.0055418
-0.00274859
0.0115501
-0.00510819
0.0144936
-0.00768953
0.0157831
-0.0103933
0.016499
-0.0132073
0.0171599
-0.0161454
0.0179084
-0.0192251
0.0187651
-0.0224638
0.0197253
0.020782
-0.0258764
-0.000856999
0.0063988
-0.00268326
0.0133764
-0.0050061
0.0168164
-0.0075552
0.0183322
-0.0102288
0.0191726
-0.0130129
0.019944
-0.0159205
0.020816
-0.018969
0.0218136
-0.0221757
0.022932
0.0241611
-0.0255548
-0.000826514
0.00722531
-0.00260719
0.0151571
-0.00488706
0.0190963
-0.00739851
0.0208437
-0.010037
0.0218111
-0.0127862
0.0226932
-0.0156583
0.0236881
-0.0186705
0.0248257
-0.02184
0.0261015
0.0275011
-0.02518
-0.000791873
0.00801718
-0.00252046
0.0168856
-0.00475112
0.021327
-0.00721946
0.023312
-0.00981784
0.0244094
-0.0125273
0.0254027
-0.0153591
0.0265198
-0.0183299
0.0277965
-0.0214569
0.0292286
0.0307966
-0.0247525
-0.000753164
0.00877035
-0.00242315
0.0185556
-0.00459829
0.0235021
-0.00701808
0.0257318
-0.00957141
0.0269628
-0.0122363
0.0280676
-0.0150228
0.0293063
-0.0179473
0.030721
-0.0210269
0.0323082
0.0340423
-0.0242726
-0.00071049
0.00948084
-0.00231538
0.0201605
-0.00442866
0.0256154
-0.00679439
0.0280975
-0.00929774
0.0294661
-0.0119133
0.0306832
-0.0146497
0.0320426
-0.017523
0.0335943
-0.0205502
0.0353353
0.0372331
-0.023741
-0.000663969
0.0101448
-0.00219728
0.0216938
-0.00424229
0.0276604
-0.00654841
0.0304037
-0.00899688
0.0319146
-0.0115584
0.0332448
-0.01424
0.0347242
-0.0170573
0.0364116
-0.0200273
0.0383054
0.0403644
-0.0231586
-0.000613742
0.0107585
-0.00206902
0.0231491
-0.00403927
0.0296307
-0.0062802
0.0326446
-0.00866888
0.0343033
-0.0111717
0.0357476
-0.0137937
0.0373463
-0.0165503
0.0391682
-0.0194588
0.0412139
0.0434319
-0.0225264
-0.00055997
0.0113185
-0.00193079
0.0245199
-0.00381973
0.0315196
-0.00598981
0.0348147
-0.00831381
0.0366273
-0.0107533
0.038187
-0.0133112
0.0399041
-0.0160024
0.0418594
-0.0188452
0.0440567
0.0464322
-0.0218455
-0.000502838
0.0118214
-0.00178283
0.0257999
-0.00358382
0.0333206
-0.00567731
0.0369082
-0.00793174
0.0388817
-0.0103034
0.0405587
-0.0127925
0.0423933
-0.0154134
0.0444803
-0.0181866
0.0468299
0.0493632
-0.0211175
-0.000442558
0.0122639
-0.00162542
0.0269828
-0.00333172
0.0350269
-0.00534281
0.0389193
-0.00752277
0.0410617
-0.00982212
0.042858
-0.012238
0.0448092
-0.0147835
0.0470257
-0.0174829
0.0495293
0.0522246
-0.0203443
-0.000379369
0.0126433
-0.00145891
0.0280623
-0.00306369
0.0366317
-0.00498643
0.040842
-0.00708697
0.0431622
-0.00930964
0.0450807
-0.0116481
0.0471476
-0.0141121
0.0494898
-0.0167319
0.0521492
0.0550202
-0.0195275
-0.000313541
0.0129568
-0.00128368
0.0290325
-0.00277999
0.038128
-0.00460836
0.0426704
-0.00662453
0.0451784
-0.00876621
0.0472224
-0.0110237
0.0494051
-0.0134015
0.0518676
-0.015933
0.0546807
0.0577604
-0.0186732
-0.000245385
0.0132022
-0.0011002
0.0298873
-0.00248098
0.0395088
-0.00420882
0.0443982
-0.00613557
0.0471051
-0.00819157
0.0492784
-0.0103639
0.0515774
-0.0126486
0.0541524
-0.015063
0.057095
0.0604713
-0.0177739
-0.000175279
0.0133775
-0.000908999
0.030621
-0.00216705
0.0407668
-0.00378812
0.0460193
-0.00562051
0.0489375
-0.00758651
0.0512444
-0.00967169
0.0536625
-0.011877
0.0563577
-0.0141678
0.0593859
0.0631971
-0.0168937
-0.000103822
0.0134813
-0.000710538
0.0312277
-0.00183867
0.0418949
-0.00334663
0.0475272
-0.00507966
0.0506706
-0.00695116
0.0531159
-0.0089408
0.0556522
-0.0110605
0.0584774
-0.0133204
0.0616458
0.0654242
-0.0155475
-3.28287e-05
0.0135141
-0.000504916
0.0316998
-0.00149645
0.0428865
-0.0028848
0.0489156
-0.00451323
0.052299
-0.0062861
0.0548888
-0.00817444
0.0575405
-0.0101862
0.0604891
-0.0123244
0.063784
0.0676877
-0.0145878
4.25474e-05
0.0134716
-0.000290922
0.0320333
-0.00114134
0.0437369
-0.00240323
0.0501775
-0.00392173
0.0538175
-0.00559238
0.0565594
-0.00737742
0.0593256
-0.00928226
0.0623939
-0.0113257
0.0658274
0.0698488
-0.0134869
0.000118417
0.0133532
-6.01772e-05
0.0322119
-0.000775029
0.0444517
-0.00190228
0.0513047
-0.00330588
0.0552211
-0.00487103
0.0581246
-0.00655173
0.0610063
-0.00835028
0.0641925
-0.0102857
0.0677628
0.0718927
-0.0123296
0.000189108
0.0131641
0.000147658
0.0322533
-0.000399511
0.0449989
-0.00138253
0.0522878
-0.00266683
0.0565054
-0.00412261
0.0595804
-0.00569677
0.0625804
-0.00738691
0.0658826
-0.00920938
0.0695853
0.0738198
-0.0111364
0.000257498
0.0129066
0.000361411
0.0321494
1.06881e-05
0.0453496
-0.000846001
0.0531444
-0.00200533
0.0576647
-0.00334741
0.0609224
-0.00481221
0.0640452
-0.00639113
0.0674616
-0.00809784
0.071292
0.0756325
-0.00991052
0.000324873
0.0125817
0.000577185
0.0318971
0.000379143
0.0455477
-0.00029952
0.0538231
-0.00132205
0.0586872
-0.00254609
0.0621465
-0.00389849
0.0653976
-0.00536343
0.0689265
-0.00695099
0.0728796
0.0773257
-0.00864426
0.000389639
0.0121921
0.000793212
0.0314935
0.000776098
0.0455648
0.000263676
0.0543355
-0.00061877
0.0595697
-0.00171954
0.0632472
-0.00295637
0.0666345
-0.00430455
0.0702747
-0.00577008
0.0743451
0.0788931
-0.00733745
0.000451018
0.011741
0.00100755
0.030937
0.00117719
0.0453951
0.000838049
0.0546747
0.000103536
0.0603042
-0.000868623
0.0642194
-0.00198659
0.0677524
-0.00321514
0.0715032
-0.00455657
0.0756865
0.0803304
-0.00599389
0.000508088
0.0112329
0.0012171
0.030228
0.00157906
0.0450332
0.00142401
0.0548297
0.000844726
0.0608835
-3.85209e-06
0.065068
-0.000990427
0.068739
-0.00209618
0.072609
-0.00331172
0.0769021
0.0816354
-0.00461672
0.00055985
0.0106731
0.00141899
0.0293688
0.00197884
0.0444733
0.0020172
0.0547914
0.00160366
0.061297
0.000901073
0.0657706
2.2453e-05
0.0696176
-0.000949872
0.0735813
-0.00203599
0.0779882
0.0828079
-0.00320846
0.0006054
0.0100677
0.00161044
0.0283638
0.00237278
0.043711
0.0026143
0.0545498
0.00237572
0.0615356
0.00181898
0.0663273
0.00108035
0.0703563
0.000219829
0.0744418
-0.000724479
0.0789325
0.0838591
-0.00177573
0.000643933
0.00942377
0.00178856
0.0272192
0.00275649
0.0427431
0.00321113
0.0540952
0.00315817
0.0615886
0.00275548
0.06673
0.00215103
0.0709607
0.00142731
0.0751655
0.000608439
0.0797514
0.0848065
-0.000338889
0.000674746
0.00874902
0.00195034
0.0259436
0.00312515
0.0415683
0.00380277
0.0534176
0.00394727
0.0614441
0.00370769
0.0669696
0.00324314
0.0714253
0.00265037
0.0757583
0.00196467
0.0804371
0.0855775
0.00119366
0.000697261
0.00805176
0.00209258
0.0245483
0.00347345
0.0401874
0.00438349
0.0525075
0.00473835
0.0610892
0.00467235
0.0670356
0.00435436
0.0717432
0.00389712
0.0762156
0.00335206
0.0809821
0.0861951
0.00273442
0.00071108
0.00734068
0.00221216
0.0230472
0.0037956
0.0386039
0.00494662
0.0513565
0.00552566
0.0605102
0.00564548
0.0669157
0.00548189
0.0719068
0.00516472
0.0765327
0.00475886
0.081388
0.0866685
0.00428543
0.000716017
0.00662466
0.00230634
0.0214569
0.00408541
0.0368249
0.00548451
0.0499574
0.00630228
0.0596924
0.00662196
0.0665961
0.00662199
0.0719068
0.00644909
0.0767056
0.00618267
0.0816544
0.0869996
0.00585161
0.000712094
0.00591257
0.00237268
0.0197963
0.00433641
0.0348611
0.00598844
0.0483054
0.00705988
0.058621
0.00759539
0.0660605
0.00777022
0.071732
0.00774696
0.0767289
0.00762182
0.0817795
0.0871885
0.00743288
0.000699556
0.00521301
0.00240927
0.0180866
0.00454202
0.0327284
0.00644873
0.0463987
0.00778864
0.0572811
0.00855793
0.0652912
0.00892129
0.0713686
0.00905506
0.0765951
0.00907427
0.0817603
0.0872348
0.00902797
0.000678878
0.00453413
0.0024149
0.0163505
0.0046959
0.0304474
0.0068548
0.0442398
0.00847708
0.0556588
0.00949999
0.0642683
0.0100686
0.0708
0.0103693
0.0762944
0.0105373
0.0815924
0.0871372
0.010635
0.000650763
0.00388337
0.00238929
0.014612
0.00479234
0.0280443
0.00719544
0.0418367
0.009112
0.0537422
0.0104099
0.0629704
0.0112037
0.0700062
0.0116845
0.0758136
0.0120075
0.0812693
0.0868932
0.0122515
0.000616119
0.00326725
0.00233317
0.012895
0.00482679
0.0255507
0.00745923
0.0392043
0.00967853
0.0515229
0.0112736
0.0613753
0.0123161
0.0689638
0.0129935
0.0751363
0.0134805
0.0807822
0.086499
0.0138747
0.000576026
0.00269123
0.00224837
0.0112226
0.00479639
0.0230027
0.00763509
0.0363656
0.0101603
0.0489977
0.0120745
0.0594611
0.0133923
0.067646
0.0142874
0.0742411
0.0149507
0.080119
0.0859488
0.0155009
0.000531693
0.00215953
0.00213781
0.0096165
0.00470053
0.02044
0.00771317
0.0333529
0.0105398
0.046171
0.0127931
0.0572078
0.0144157
0.0660234
0.0155546
0.0731023
0.0164107
0.0792629
0.0852345
0.017125
0.000484397
0.00167514
0.00200533
0.00809557
0.0045413
0.017904
0.00768582
0.0302084
0.0107994
0.0430574
0.0134073
0.0546
0.0153661
0.0640646
0.0167798
0.0716885
0.0178508
0.0781919
0.0843442
0.0187411
0.000435422
0.00123971
0.00185548
0.00667551
0.00432369
0.0154358
0.00754889
0.0269832
0.0109223
0.039684
0.0138927
0.0516296
0.0162189
0.0617384
0.0179437
0.0699637
0.0192579
0.0768778
0.0832609
0.0203411
0.000386006
0.000853708
0.00169327
0.00536824
0.0040555
0.0130736
0.00730288
0.0237358
0.010894
0.0360929
0.0142236
0.0483001
0.0169454
0.0590166
0.0190216
0.0678874
0.0206146
0.0752848
0.0819612
0.0219144
0.000337281
0.000516426
0.0015238
0.00418172
0.00374685
0.0108505
0.00695389
0.0205288
0.0107049
0.0323419
0.0143746
0.0446304
0.0175131
0.055878
0.0199832
0.0654174
0.0218979
0.0733701
0.0804128
0.0234462
0.00029024
0.000226187
0.001352
0.00311997
0.00340943
0.00879307
0.00651402
0.0174242
0.0103522
0.0285037
0.0143228
0.0406598
0.0178866
0.0523141
0.0207915
0.0625126
0.0230777
0.0710838
0.0785738
0.0249167
0.000245707
-1.95204e-05
0.00118236
0.00218331
0.00305553
0.0069199
0.00600078
0.0144789
0.00984215
0.0246623
0.0140512
0.0364507
0.0180299
0.0483355
0.0214037
0.0591388
0.0241154
0.0683721
0.0763908
0.0262985
0.000204339
-0.000223859
0.00101879
0.00136886
0.00269708
0.0052416
0.00543567
0.0117403
0.00919167
0.0209063
0.013553
0.0320894
0.0179096
0.0439789
0.0217721
0.0552762
0.0249635
0.0651806
0.0737991
0.0275552
0.000166605
-0.000390465
0.000864484
0.000670985
0.00234485
0.00376123
0.00484209
0.00924311
0.00842775
0.0173207
0.0128349
0.0276823
0.0175005
0.0393133
0.0218475
0.0509292
0.0255651
0.061463
0.070725
0.0286392
0.000132829
-0.000523294
0.000721898
8.19153e-05
0.00200794
0.00247519
0.00424291
0.00700814