/*--------------------------------*- C++ -*----------------------------------*\
  =========                 |
  \\      /  F ield         | OpenFOAM: The Open Source CFD Toolbox
   \\    /   O peration     | Website:  https://openfoam.org
    \\  /    A nd           | Version:  7
     \\/     M anipulation  |
\*---------------------------------------------------------------------------*/
FoamFile
{
    version     2.0;
    format      ascii;
    class       volVectorField;
    location    "20";
    object      U;
}
// * * * * * * * * * * * * * * * * * * * * * * * * * * * * * * * * * * * * * //

dimensions      [0 1 -1 0 0 0 0];

internalField   nonuniform List<vector> 
8500
(
(-0.0012167 0.00105364 7.81672e-22)
(-0.00676669 0.00242506 -2.24288e-21)
(-0.0171524 0.00323561 -2.61519e-21)
(-0.0294303 0.00362743 2.59911e-21)
(-0.0425061 0.00371039 -2.39048e-21)
(-0.0555222 0.00359218 -1.27424e-21)
(-0.0679242 0.00337596 2.17636e-21)
(-0.0795489 0.00315962 2.69667e-21)
(-0.0904697 0.00302844 -4.4264e-22)
(-0.101013 0.0030539 1.30152e-21)
(-0.00136872 0.0031442 -8.6347e-22)
(-0.0070791 0.00723936 2.66654e-21)
(-0.0174916 0.00966095 -6.25291e-21)
(-0.0297039 0.0108309 5.66911e-21)
(-0.0426363 0.0110761 2.52664e-22)
(-0.0554392 0.0107174 4.15872e-21)
(-0.067559 0.0100627 -7.22308e-21)
(-0.0788309 0.00940601 -1.05657e-20)
(-0.0893242 0.00900656 -2.06449e-21)
(-0.0993299 0.00908384 4.68023e-21)
(-0.00166922 0.00518526 7.9272e-22)
(-0.00769766 0.0119473 5.84559e-21)
(-0.0181642 0.0159498 1.37692e-20)
(-0.0302466 0.0178814 -1.24544e-20)
(-0.0428941 0.0182781 -2.80805e-21)
(-0.0552733 0.0176667 -2.55582e-21)
(-0.0668307 0.0165554 1.30494e-20)
(-0.0773981 0.0154349 8.1158e-21)
(-0.087038 0.0147486 1.98053e-21)
(-0.0959583 0.0148792 -1.45026e-20)
(-0.00211134 0.00714603 2.81042e-21)
(-0.00861008 0.0164816 -3.43346e-21)
(-0.0191583 0.022015 -2.5639e-20)
(-0.0310489 0.0246808 2.26874e-21)
(-0.0432738 0.0252108 7.03068e-21)
(-0.0550225 0.0243268 -5.46247e-21)
(-0.0657417 0.0227287 -2.86283e-22)
(-0.0752548 0.0211038 -2.21582e-21)
(-0.0836181 0.0200963 5.0262e-21)
(-0.0908817 0.0202781 1.44613e-20)
(-0.00268528 0.00899889 1.95438e-21)
(-0.00979833 0.0207806 -1.10121e-20)
(-0.0204557 0.027775 2.64756e-20)
(-0.0320955 0.0311362 -1.20306e-20)
(-0.0437637 0.0317747 -5.06138e-23)
(-0.0546804 0.0305908 1.66139e-20)
(-0.0642901 0.0284636 -7.62951e-21)
(-0.0724009 0.026275 8.68507e-22)
(-0.0790696 0.0248911 -3.13009e-21)
(-0.0840659 0.0251105 1.13737e-21)
(-0.00337883 0.0107203 2.33272e-20)
(-0.0112391 0.0247893 2.83025e-20)
(-0.0220315 0.0331555 -7.24179e-21)
(-0.0333628 0.0371623 1.38065e-20)
(-0.0443434 0.0378777 4.33432e-21)
(-0.0542302 0.0363608 -6.19256e-21)
(-0.062463 0.0336516 -2.38536e-21)
(-0.0688221 0.0308199 -1.03707e-20)
(-0.0733869 0.028977 2.24663e-21)
(-0.0754464 0.0291958 -1.34136e-20)
(-0.00417797 0.0122911 -2.24798e-20)
(-0.0129044 0.0284607 -1.47453e-20)
(-0.0238537 0.0380908 1.20101e-20)
(-0.0348178 0.042682 -2.078e-20)
(-0.0449794 0.0434375 2.36472e-21)
(-0.0536387 0.041551 2.43416e-20)
(-0.0602264 0.038199 -4.38504e-21)
(-0.0644765 0.0346258 2.87066e-20)
(-0.0665401 0.0322051 -5.8951e-22)
(-0.0649095 0.0323413 -1.16968e-20)
(-0.00506749 0.0136974 1.8814e-20)
(-0.0147619 0.0317563 -3.40056e-20)
(-0.025882 0.0425242 -1.35211e-20)
(-0.0364143 0.0476277 1.58599e-20)
(-0.0456195 0.0483826 5.26506e-22)
(-0.052846 0.0460899 -4.5676e-20)
(-0.0575117 0.0420326 -2.70869e-21)
(-0.0592743 0.0376061 -2.26379e-20)
(-0.0584534 0.0344465 -2.91805e-20)
(-0.0522706 0.0343654 1.72569e-20)
(-0.00603162 0.0149296 -1.05128e-20)
(-0.0167754 0.0346458 5.07082e-21)
(-0.0280675 0.046408 1.24806e-20)
(-0.0380907 0.0519415 -1.115e-20)
(-0.0461864 0.0526528 -3.91606e-20)
(-0.0517551 0.0499226 1.34893e-20)
(-0.0541974 0.0451048 1.95744e-21)
(-0.0530491 0.0397115 3.40258e-20)
(-0.0489624 0.0356114 4.47558e-20)
(-0.0372703 0.0352183 -2.02201e-20)
(-0.00705451 0.0159825 1.65292e-20)
(-0.0189052 0.0371067 1.50466e-20)
(-0.0303509 0.0497031 -2.16169e-21)
(-0.0397661 0.0555737 5.55504e-20)
(-0.0465712 0.0561984 2.36105e-20)
(-0.0502195 0.0530106 1.77201e-20)
(-0.0500895 0.0473957 2.51427e-20)
(-0.0455221 0.040936 -1.10547e-20)
(-0.0376874 0.035627 -1.49508e-20)
(-0.0195738 0.0351487 -2.47106e-20)
(-0.00812064 0.0168547 -1.55388e-21)
(-0.0211081 0.0391233 -2.37517e-20)
(-0.0326623 0.0523774 -1.71043e-20)
(-0.0413372 0.0584822 -2.74289e-20)
(-0.0466264 0.0589788 -2.17218e-20)
(-0.0480309 0.0553307 2.19133e-20)
(-0.0449039 0.0489162 -2.1045e-20)
(-0.036305 0.0413302 -1.45635e-20)
(-0.0238415 0.0343768 1.90749e-21)
(0.00162302 0.0341195 6.47495e-21)
(-0.00921509 0.0175478 -4.54771e-20)
(-0.0233375 0.0406852 2.17293e-20)
(-0.034919 0.054405 1.58473e-20)
(-0.0426751 0.0606303 1.06004e-20)
(-0.0461601 0.0609595 -1.93188e-20)
(-0.0449078 0.0568721 -1.63419e-20)
(-0.038242 0.0497109 2.36655e-20)
(-0.0249683 0.0410472 -1.93115e-20)
(-0.00666691 0.0320895 -1.10447e-21)
(0.0278745 0.0319175 -2.03205e-20)
(-0.0103237 0.0180654 3.80564e-20)
(-0.0255433 0.0417863 1.54734e-20)
(-0.037025 0.0557645 9.13986e-22)
(-0.0436227 0.0619853 -1.93198e-20)
(-0.0449299 0.0621089 1.37726e-21)
(-0.0404845 0.0576294 2.15045e-20)
(-0.029532 0.0498427 -6.11809e-21)
(-0.0107284 0.0402314 -7.47845e-21)
(0.0145716 0.0292513 -1.69661e-20)
(0.0606209 0.0289669 3.09863e-20)
(-0.0114331 0.0184131 2.57099e-20)
(-0.0276708 0.0424237 -4.17428e-20)
(-0.0388691 0.0564383 -3.21997e-20)
(-0.0439914 0.0625177 1.39239e-20)
(-0.0426407 0.0623967 2.84392e-20)
(-0.0343188 0.0575933 2.41628e-20)
(-0.0181268 0.0493629 -2.57327e-20)
(0.00745174 0.0390244 4.99483e-20)
(0.0412193 0.0261715 -1.50512e-20)
(0.10138 0.0263135 -3.64057e-20)
(-0.0125303 0.018597 -3.86423e-20)
(-0.0296595 0.042597 2.32753e-20)
(-0.0403223 0.0564133 -1.11604e-20)
(-0.0435586 0.062203 1.17014e-21)
(-0.0389395 0.0617959 1.19697e-20)
(-0.0258757 0.056757 -3.81245e-20)
(-0.00325257 0.0483401 3.39053e-20)
(0.0306453 0.0376845 -3.30289e-20)
(0.0749826 0.0231713 5.31271e-20)
(0.151763 0.0252223 1.93873e-20)
(-0.0136023 0.0186239 8.18128e-21)
(-0.0314413 0.0423075 4.52189e-20)
(-0.0412343 0.0556817 -1.13757e-20)
(-0.0420627 0.0610265 1.15304e-20)
(-0.0334129 0.0602898 1.34502e-20)
(-0.0145335 0.0551182 -4.04657e-21)
(0.0159972 0.0468336 2.91053e-20)
(0.0600128 0.0364219 1.46828e-21)
(0.117757 0.0207112 -3.41103e-20)
(0.212892 0.0269946 4.62754e-20)
(-0.0146345 0.0184998 -2.18839e-20)
(-0.0329364 0.041558 -4.28323e-20)
(-0.0414293 0.0542461 3.71867e-20)
(-0.0391967 0.0589892 1.86638e-20)
(-0.0255805 0.0578838 -8.66863e-20)
(0.000415806 0.0526994 7.07724e-20)
(0.040628 0.0449238 -6.40485e-20)
(0.0967508 0.035387 1.00076e-21)
(0.171491 0.0194535 -1.45388e-20)
(0.284551 0.0327481 -4.28752e-20)
(-0.0156104 0.0182298 1.89373e-20)
(-0.0340493 0.0403538 -2.56251e-21)
(-0.0406995 0.0521217 -9.13276e-21)
(-0.0346013 0.0561163 -1.06351e-21)
(-0.0148869 0.0546234 -5.4061e-21)
(0.0197694 0.0495762 -2.25573e-20)
(0.0717241 0.042752 9.63709e-21)
(0.142066 0.0346931 -1.52042e-20)
(0.237889 0.0205323 4.53634e-21)
(0.364228 0.0434327 1.25637e-21)
(-0.0165091 0.017817 -3.86614e-20)
(-0.0346671 0.038706 -2.78417e-21)
(-0.038795 0.0493356 4.22867e-21)
(-0.0278573 0.052467 1.72315e-21)
(-0.000696789 0.0506126 2.8408e-20)
(0.044411 0.0459069 -8.29222e-20)
(0.11041 0.040549 5.60044e-20)
(0.19726 0.0344463 -4.20462e-20)
(0.318106 0.0257039 3.54606e-20)
(0.447293 0.0590193 3.92106e-20)
(-0.0172989 0.0172604 -4.69823e-21)
(-0.0346541 0.0366263 2.15379e-20)
(-0.0354241 0.0459327 -2.70443e-20)
(-0.0184802 0.0481443 -8.47835e-21)
(0.0177008 0.0460289 1.63611e-20)
(0.0752785 0.0419582 7.88575e-20)
(0.157716 0.0386457 -1.5867e-20)
(0.263614 0.0349132 7.71379e-21)
(0.412027 0.0365335 -4.10634e-20)
(0.531513 0.0737758 1.90439e-20)
(-0.017935 0.0165555 -1.41252e-20)
(-0.0338407 0.0341286 -1.09894e-20)
(-0.0302502 0.0419823 2.70949e-21)
(-0.00592508 0.0432982 1.06782e-20)
(0.0410728 0.0411342 -3.16492e-20)
(0.113303 0.0381257 -1.28301e-20)
(0.214386 0.0375033 -4.04315e-20)
(0.341629 0.0368729 4.17567e-20)
(0.515353 0.0518368 4.41543e-20)
(0.623657 0.0747227 -1.85591e-20)
(-0.0183617 0.0156977 -6.73269e-21)
(-0.0320227 0.0312304 2.74626e-20)
(-0.0228881 0.0375741 -3.07354e-20)
(0.0104036 0.0381274 -3.58776e-21)
(0.0702083 0.036275 -1.45127e-20)
(0.159332 0.0349411 3.16887e-20)
(0.280812 0.0377686 4.09746e-20)
(0.430415 0.0416278 -3.93696e-20)
(0.618224 0.0647986 4.21054e-20)
(0.750013 0.0720226 6.02897e-21)
(-0.01851 0.0146785 -1.95251e-20)
(-0.028965 0.0279544 -5.55564e-20)
(-0.0129114 0.0328218 5.42602e-20)
(0.0311303 0.0328772 7.82017e-21)
(0.105862 0.0318712 1.14644e-20)
(0.213995 0.0330326 6.917e-21)
(0.356885 0.040188 3.13106e-20)
(0.527477 0.050047 2.31416e-20)
(0.722595 0.0777425 -8.18373e-20)
(0.870229 0.0860593 -4.07909e-20)
(-0.0182928 0.0134874 -6.68117e-20)
(-0.0244032 0.0243349 1.34594e-20)
(0.000133835 0.0278646 -3.06857e-20)
(0.056874 0.0278366 5.97808e-21)
(0.148677 0.0283975 9.60086e-21)
(0.277539 0.0330603 -6.90634e-20)
(0.441708 0.0454675 3.05444e-20)
(0.629278 0.0621296 -2.07759e-20)
(0.825497 0.0927988 2.17449e-20)
(0.97397 0.104478 -7.81879e-21)
(-0.0176073 0.0121176 2.41864e-20)
(-0.0180476 0.0204214 2.61563e-20)
(0.0167113 0.0228713 -1.4962e-21)
(0.0882028 0.0233359 -8.40472e-21)
(0.199084 0.0263635 3.26742e-22)
(0.349654 0.0356449 6.85757e-22)
(0.533347 0.0540861 -4.6488e-20)
(0.731764 0.0773459 5.93318e-21)
(0.921893 0.109732 5.86845e-20)
(1.06192 0.123504 2.71154e-20)
(-0.0163376 0.0105693 -1.64019e-20)
(-0.00959194 0.0162856 -1.21514e-20)
(0.037272 0.0180459 5.22945e-20)
(0.125582 0.0197453 1.33784e-21)
(0.257197 0.0262921 -2.19384e-20)
(0.429337 0.0412891 5.91057e-20)
(0.628895 0.0661523 1.30829e-20)
(0.830696 0.0949252 9.01951e-22)
(1.00812 0.127634 -2.55946e-20)
(1.13251 0.141881 -3.42205e-20)
(-0.0143573 0.00885338 3.43789e-20)
(0.00127548 0.0120289 -9.56365e-21)
(0.0622276 0.0136339 -5.71184e-21)
(0.169317 0.0174732 -2.17352e-20)
(0.322712 0.0286885 3.5723e-20)
(0.514845 0.0502946 -1.7477e-20)
(0.724857 0.0813607 -1.97945e-20)
(0.922375 0.113993 -4.57791e-21)
(1.08193 0.145611 -1.48444e-20)
(1.18715 0.158782 1.6669e-20)
(-0.0115335 0.00699529 -1.26471e-20)
(0.0148582 0.00778896 -7.53751e-20)
(0.09192 0.00992619 7.8424e-21)
(0.219492 0.0169577 2.71072e-20)
(0.394827 0.0339934 1.93996e-20)
(0.603784 0.0626951 -6.49828e-20)
(0.817702 0.099091 4.1978e-20)
(1.00416 0.133708 -1.92326e-20)
(1.14271 0.162986 2.96202e-20)
(1.22784 0.174033 8.39673e-21)
(-0.00773098 0.00503772 -1.39121e-20)
(0.0314363 0.00374437 2.67339e-20)
(0.126588 0.00725926 3.49467e-20)
(0.275911 0.0186486 -2.50581e-20)
(0.472219 0.0425211 9.36243e-21)
(0.693373 0.0782438 -5.72901e-20)
(0.904407 0.118584 -1.05818e-20)
(1.07464 0.153388 9.23377e-21)
(1.191 0.179372 -2.25549e-20)
(1.25699 0.187693 -2.34575e-20)
(-0.00281798 0.00304253 -1.80283e-20)
(0.0512487 0.000116248 -6.13694e-21)
(0.166332 0.00600914 -6.34201e-20)
(0.338054 0.0229744 -9.96751e-21)
(0.553099 0.0544012 -1.10958e-21)
(0.780809 0.096472 3.3783e-21)
(0.982789 0.139107 5.88068e-21)
(1.13349 0.172557 -2.90823e-20)
(1.22808 0.194619 5.17339e-22)
(1.27694 0.199988 1.61527e-20)
(0.00332933 0.00109121 -4.73121e-21)
(0.0744743 -0.00283355 2.20145e-20)
(0.211077 0.00657823 3.1017e-20)
(0.405047 0.0302981 1.9423e-20)
(0.635373 0.0695533 -5.74866e-21)
(0.863621 0.116797 -4.82986e-21)
(1.05159 0.160052 4.82739e-20)
(1.18123 0.190942 6.73714e-21)
(1.25553 0.208746 2.2303e-20)
(1.28976 0.211194 -9.84992e-21)
(0.0108194 -0.000714679 4.52308e-20)
(0.101212 -0.0048074 2.92112e-20)
(0.26055 0.00937422 -2.96341e-20)
(0.475689 0.0408702 -5.90958e-21)
(0.716859 0.0877091 3.13786e-21)
(0.93991 0.138629 -1.1443e-20)
(1.11039 0.180973 -2.48869e-20)
(1.21882 0.208428 -4.06696e-21)
(1.27501 0.221875 2.73759e-22)
(1.29716 0.221588 1.06972e-20)
(0.0197383 -0.00225555 5.66618e-21)
(0.131464 -0.00548186 -1.5966e-20)
(0.314252 0.0147818 3.78322e-20)
(0.54852 0.0547949 2.46741e-20)
(0.795518 0.108474 8.20865e-22)
(1.00842 0.161444 1.76837e-20)
(1.15936 0.201575 2.56986e-21)
(1.24751 0.225015 -1.91363e-20)
(1.28802 0.234177 1.65405e-20)
(1.30049 0.231421 -2.70007e-23)
(0.0301439 -0.00339641 -3.74719e-20)
(0.165118 -0.00452012 -1.10314e-20)
(0.371469 0.0231306 -9.94221e-21)
(0.621934 0.0720217 -1.73741e-20)
(0.869635 0.131398 4.15826e-21)
(1.06852 0.184815 1.12356e-22)
(1.19912 0.221689 1.38951e-20)
(1.26857 0.240774 -2.19822e-21)
(1.29588 0.24584 -1.69988e-20)
(1.30078 0.240897 -1.62296e-20)
(0.0420587 -0.00399022 3.05994e-21)
(0.201935 -0.00158777 1.79247e-20)
(0.431286 0.0346646 8.71185e-21)
(0.694318 0.0923652 -2.72602e-20)
(0.937907 0.156034 -1.38522e-21)
(1.12003 0.208418 -1.19355e-20)
(1.2305 0.241239 3.10876e-22)
(1.28323 0.255818 5.68228e-21)
(1.29969 0.257039 -6.46545e-21)
(1.29875 0.250171 1.83162e-20)
(0.055464 -0.00388259 7.23336e-21)
(0.24155 0.00362894 -1.76038e-20)
(0.492637 0.0495202 -4.15802e-20)
(0.764173 0.115541 3.83953e-20)
(0.999453 0.181967 -2.89418e-21)
(1.16318 0.232016 8.57251e-21)
(1.25443 0.260214 -1.24114e-21)
(1.29258 0.270271 8.48358e-21)
(1.30028 0.267923 -6.00788e-22)
(1.29495 0.25935 -1.42191e-20)
(0.070296 -0.00291728 -1.47818e-20)
(0.283471 0.0114038 2.29909e-20)
(0.55437 0.0677172 1.89417e-20)
(0.830206 0.141205 -2.74905e-20)
(1.05378 0.208836 -4.62023e-21)
(1.19841 0.255444 1.75159e-21)
(1.27185 0.278638 1.79911e-20)
(1.29754 0.284253 9.37655e-22)
(1.29832 0.278612 3.60889e-21)
(1.28971 0.268502 -7.79971e-21)
(0.0864428 -0.000942518 1.12188e-20)
(0.327097 0.0219525 -1.00705e-20)
(0.615311 0.089163 -8.62335e-21)
(0.891376 0.168986 1.48187e-20)
(1.10069 0.236328 5.13607e-21)
(1.22628 0.278591 3.93702e-21)
(1.2836 0.296556 -1.83499e-20)
(1.29886 0.297868 -6.38528e-21)
(1.2943 0.289188 -5.77734e-21)
(1.28328 0.277657 2.56406e-21)
(0.103745 0.0021822 -5.64358e-21)
(0.371736 0.0354172 -1.29633e-22)
(0.674334 0.113667 1.63391e-20)
(0.946908 0.198506 -5.98824e-21)
(1.14025 0.264179 -2.68555e-21)
(1.24745 0.301379 -1.77464e-21)
(1.29048 0.314015 4.46132e-21)
(1.29717 0.311195 7.77595e-21)
(1.28854 0.299702 -2.46022e-22)
(1.2758 0.286814 2.91115e-21)
(0.121996 0.00657911 3.98378e-21)
(0.416634 0.0518566 -1.11748e-21)
(0.730413 0.140958 -2.93429e-21)
(0.996273 0.229393 -2.67051e-21)
(1.17266 0.292158 2.4278e-21)
(1.26253 0.323752 1.91153e-21)
(1.29314 0.331055 -1.76863e-21)
(1.29292 0.324287 6.50961e-22)
(1.28129 0.310169 9.22498e-22)
(1.26736 0.295951 -1.24244e-21)
(0.14095 0.0123454 2.16512e-21)
(0.461009 0.071241 6.12915e-22)
(0.782659 0.170707 -3.6816e-21)
(1.03915 0.261288 -2.95466e-21)
(1.19825 0.320064 3.09304e-21)
(1.27215 0.345664 6.07866e-22)
(1.29214 0.3477 -1.43246e-21)
(1.28647 0.337167 1.34953e-21)
(1.27272 0.320579 7.6082e-22)
(1.25802 0.305027 -8.87107e-22)
(0.160326 0.0195471 -8.41364e-22)
(0.50408 0.0934531 1.72064e-21)
(0.830336 0.202538 1.13909e-20)
(1.07541 0.293846 -5.11781e-21)
(1.21739 0.347718 -2.50064e-21)
(1.27685 0.367069 -2.8395e-21)
(1.28794 0.363955 5.83784e-21)
(1.27808 0.349833 3.93758e-21)
(1.26292 0.330895 3.17253e-21)
(1.24781 0.313988 1.75143e-21)
(0.179815 0.0282146 1.74832e-20)
(0.545102 0.118294 -9.57715e-21)
(0.872868 0.23605 -1.08703e-20)
(1.10505 0.326737 1.48606e-20)
(1.23051 0.374951 7.86989e-21)
(1.27713 0.387915 -5.29262e-22)
(1.28091 0.379804 -9.77458e-21)
(1.26796 0.362256 -7.07336e-21)
(1.25197 0.341062 -7.45473e-21)
(1.23675 0.322772 4.47384e-21)
(0.199095 0.0383392 -2.36905e-20)
(0.583385 0.145493 2.22166e-20)
(0.909833 0.270823 2.56514e-20)
(1.12817 0.359642 -2.534e-20)
(1.238 0.401601 -8.77375e-21)
(1.27343 0.40814 5.65981e-21)
(1.27135 0.39521 1.02956e-20)
(1.25622 0.374383 1.62857e-21)
(1.23991 0.351001 -2.99894e-22)
(1.22486 0.331303 -6.13281e-21)
(0.217836 0.0498721 -3.44434e-21)
(0.61832 0.174716 -3.13878e-20)
(0.940949 0.306426 -3.36379e-20)
(1.14495 0.392255 3.78627e-20)
(1.24029 0.427513 -4.30968e-21)
(1.26612 0.42767 7.93393e-21)
(1.25948 0.410116 1.56663e-21)
(1.24298 0.386144 -4.42745e-21)
(1.22675 0.360617 2.37346e-21)
(1.21211 0.339496 -3.10934e-22)
(0.235711 0.0627242 6.9829e-21)
(0.649387 0.205579 1.95234e-20)
(0.96606 0.342429 1.10439e-20)
(1.15564 0.424281 -8.70957e-21)
(1.23777 0.452529 -1.36096e-20)
(1.25555 0.446421 -1.2666e-20)
(1.2455 0.424452 -2.56335e-21)
(1.2283 0.397458 6.81859e-21)
(1.21249 0.36982 -1.43147e-21)
(1.19841 0.347265 3.37646e-21)
(0.252408 0.076769 -2.65714e-20)
(0.676163 0.237661 -2.46469e-20)
(0.985117 0.378401 -3.94408e-21)
(1.16052 0.455434 -4.43634e-21)
(1.23079 0.47649 -1.00639e-20)
(1.24199 0.464294 6.13949e-21)
(1.22957 0.438131 -1.11474e-21)
(1.21225 0.408244 -6.0074e-21)
(1.19714 0.378555 5.46809e-21)
(1.18359 0.354548 -7.92188e-21)
(0.267635 0.0918454 6.23992e-21)
(0.69833 0.270514 2.09515e-20)
(0.998164 0.413921 1.82561e-20)
(1.15989 0.485439 1.98427e-20)
(1.21973 0.499234 3.7945e-22)
(1.22569 0.481179 1.72908e-20)
(1.21181 0.451052 1.1288e-21)
(1.19488 0.418409 -2.03256e-20)
(1.18073 0.38682 1.4609e-20)
(1.16767 0.361293 5.52056e-21)
(0.281131 0.107762 1.72793e-20)
(0.71567 0.303676 3.85331e-20)
(1.00532 0.448577 -5.08098e-21)
(1.15408 0.514032 -2.50263e-20)
(1.20489 0.5206 1.12649e-20)
(1.20688 0.496957 -1.16942e-20)
(1.19232 0.463097 -1.55356e-20)
(1.17626 0.427828 -1.28429e-21)
(1.1633 0.394557 -1.20658e-20)
(1.15108 0.367367 4.71934e-21)
(0.292671 0.124303 8.15994e-21)
(0.728063 0.336685 6.09102e-21)
(1.00677 0.481973 4.82127e-20)
(1.14343 0.540957 9.01597e-21)
(1.18659 0.540427 -7.83826e-21)
(1.18574 0.5115 -4.01052e-21)
(1.17123 0.47414 2.36776e-20)
(1.15652 0.436402 1.94295e-20)
(1.14484 0.401535 9.71254e-21)
(1.13393 0.372812 -1.30246e-21)
(0.302071 0.141232 1.71566e-21)
(0.735472 0.369083 -3.95189e-20)
(1.00275 0.513732 -5.67393e-20)
(1.12828 0.565974 1.75879e-21)
(1.16512 0.558563 1.10557e-20)
(1.16244 0.524673 -1.526e-20)
(1.14876 0.484057 -3.45043e-20)
(1.13566 0.444023 -1.02529e-20)
(1.12537 0.407659 -6.11903e-22)
(1.11611 0.377439 4.85135e-21)
(0.309191 0.158299 -1.41866e-20)
(0.73794 0.400426 3.57498e-20)
(0.993539 0.54349 3.41384e-20)
(1.10901 0.588858 -3.14068e-20)
(1.14076 0.574863 4.80081e-21)
(1.13728 0.536328 3.65659e-20)
(1.12496 0.492716 -7.92856e-21)
(1.11368 0.450599 6.73982e-21)
(1.10504 0.41281 -3.15481e-21)
(1.09763 0.381168 -4.27468e-21)
(0.313933 0.175251 -3.20014e-20)
(0.735584 0.430294 -5.62854e-20)
(0.979482 0.570917 -1.10263e-20)
(1.08595 0.609377 1.80582e-20)
(1.11381 0.589142 1.75415e-20)
(1.11041 0.546361 -3.63001e-20)
(1.09986 0.499995 1.95804e-20)
(1.09072 0.456005 -1.00095e-20)
(1.0839 0.416898 7.99736e-21)
(1.07853 0.383913 3.03427e-22)
(0.31625 0.191834 2.44192e-20)
(0.728613 0.458292 1.72275e-21)
(0.960998 0.595748 -5.44255e-21)
(1.05936 0.627291 -2.22731e-20)
(1.08452 0.601244 1.41917e-20)
(1.08197 0.554606 3.18673e-21)
(1.07366 0.505795 -1.08763e-20)
(1.06688 0.46014 2.11573e-21)
(1.06204 0.419822 -2.004e-21)
(1.0589 0.385597 8.27558e-22)
(0.316146 0.207788 -6.67848e-21)
(0.717328 0.48403 -9.27563e-21)
(0.938464 0.617781 2.3705e-20)
(1.02951 0.642404 1.0954e-20)
(1.05315 0.610973 -1.47946e-20)
(1.05215 0.560938 2.01481e-20)
(1.04646 0.509995 1.62692e-21)
(1.04225 0.462903 2.02471e-21)
(1.03953 0.421481 8.35498e-22)
(1.03882 0.386126 2.06091e-22)
(0.313684 0.222855 4.32521e-20)
(0.702055 0.507147 3.32374e-20)
(0.911898 0.636609 -2.42007e-21)
(0.996962 0.654732 -5.03516e-21)
(1.02007 0.618179 -5.96342e-21)
(1.02117 0.565226 -2.87673e-21)
(1.01843 0.512492 1.95214e-21)
(1.01695 0.464207 1.36399e-21)
(1.01647 0.421781 -4.26208e-22)
(1.01834 0.385402 -2.84343e-21)
(0.308949 0.236774 3.46141e-21)
(0.682995 0.527516 5.70969e-21)
(0.881626 0.651877 -3.04654e-20)
(0.96221 0.663958 1.33579e-20)
(0.985495 0.622857 3.11056e-21)
(0.989199 0.56738 -6.71814e-21)
(0.989696 0.513188 2.46821e-21)
(0.991084 0.463975 1.09243e-21)
(0.992973 0.420649 -3.29642e-21)
(0.997712 0.383369 3.72227e-21)
(0.302015 0.249235 -1.64572e-20)
(0.660342 0.544769 -1.18281e-20)
(0.848503 0.663726 9.55419e-21)
(0.925514 0.669874 2.2493e-21)
(0.949693 0.624867 -5.29754e-21)
(0.956442 0.567305 4.47415e-21)
(0.960396 0.511988 2.09083e-21)
(0.96475 0.462111 -7.42255e-21)
(0.96929 0.418013 1.91222e-20)
(0.977557 0.380051 7.76087e-21)
(0.292959 0.260014 -1.25409e-20)
(0.634416 0.558464 3.06565e-20)
(0.81297 0.671918 -1.92434e-20)
(0.887197 0.672467 -2.95045e-21)
(0.912923 0.624122 -2.85258e-21)
(0.923082 0.564922 -7.35571e-22)
(0.930638 0.508805 -7.00858e-21)
(0.938064 0.458477 3.71969e-21)
(0.945823 0.41368 -4.61225e-22)
(0.95856 0.375488 -3.39821e-21)
(0.282008 0.26897 -1.1053e-21)
(0.605766 0.568465 -9.15472e-21)
(0.775372 0.676262 4.63519e-21)
(0.847604 0.671667 -2.27229e-21)
(0.875448 0.620552 4.39508e-21)
(0.889302 0.560175 4.45196e-21)
(0.900546 0.503589 1.36308e-20)
(0.911209 0.452966 -1.03966e-20)
(0.922915 0.407273 -1.97721e-20)
(0.940015 0.369037 8.58311e-21)
(0.26937 0.275993 -3.31429e-22)
(0.574828 0.574643 -2.05369e-21)
(0.73612 0.676627 8.8903e-22)
(0.80709 0.667418 5.58449e-21)
(0.837537 0.614112 -1.05153e-20)
(0.855297 0.553029 -1.78535e-20)
(0.870301 0.496335 -5.28112e-21)
(0.884447 0.445693 -1.54205e-21)
(0.900554 0.398975 2.69096e-20)
(0.919185 0.356982 -5.66757e-21)
(0.255236 0.280928 -7.94251e-23)
(0.542042 0.57689 -4.02698e-21)
(0.695642 0.672947 5.71356e-22)
(0.766006 0.659681 8.03397e-22)
(0.799456 0.604773 -7.86481e-21)
(0.821281 0.543453 3.43051e-20)
(0.840155 0.487006 -2.41499e-20)
(0.857995 0.436737 2.89004e-20)
(0.877687 0.390649 -2.02628e-20)
(0.895994 0.350116 -2.68005e-20)
(0.239838 0.283655 -7.45595e-22)
(0.507846 0.575129 -1.06785e-21)
(0.654365 0.665197 5.03349e-22)
(0.724701 0.648445 1.23348e-20)
(0.761472 0.592523 -5.21879e-21)
(0.787479 0.531422 7.96622e-21)
(0.810314 0.475548 1.4139e-20)
(0.831885 0.425826 -7.45273e-21)
(0.854709 0.380178 -1.96117e-20)
(0.873992 0.339874 2.69856e-20)
(0.223425 0.284089 9.92967e-21)
(0.47267 0.569316 1.31213e-20)
(0.61271 0.653383 -1.27706e-20)
(0.683517 0.633724 -1.13212e-20)
(0.723851 0.577373 4.0477e-20)
(0.754109 0.516946 -4.12483e-20)
(0.780926 0.462 4.95932e-20)
(0.806131 0.413173 -1.24115e-20)
(0.831804 0.368508 1.33088e-20)
(0.852696 0.329304 2.48317e-20)
(0.206252 0.282173 -3.60072e-21)
(0.436944 0.55945 -1.29117e-20)
(0.57109 0.637546 -7.99551e-21)
(0.642788 0.615558 -4.3758e-21)
(0.686857 0.559352 5.09791e-21)
(0.721387 0.500042 -1.0853e-20)
(0.752162 0.446365 -1.48248e-20)
(0.780893 0.398713 -3.23952e-20)
(0.809307 0.355271 3.21555e-20)
(0.832196 0.317353 -1.03057e-20)
(0.188581 0.277879 2.45751e-20)
(0.40109 0.545562 -3.03792e-21)
(0.529905 0.617755 -1.12521e-20)
(0.602841 0.594013 1.44254e-20)
(0.650748 0.538509 -2.58911e-20)
(0.689523 0.480749 6.95283e-20)
(0.724187 0.428685 -3.71037e-20)
(0.756333 0.382519 3.36456e-20)
(0.787427 0.340604 -6.17244e-20)
(0.812518 0.30416 -1.63525e-20)
(0.170671 0.271207 -7.66499e-21)
(0.365523 0.527725 2.61129e-20)
(0.489543 0.594107 6.10111e-21)
(0.56399 0.569177 -1.34452e-20)
(0.615775 0.514915 -2.32392e-20)
(0.658722 0.459124 -7.83383e-22)
(0.697172 0.409007 1.23789e-20)
(0.732613 0.364619 -3.03512e-20)
(0.76632 0.324484 1.48953e-20)
(0.79371 0.289658 1.97012e-21)
(0.152779 0.262187 -4.29449e-20)
(0.330642 0.506046 -1.05408e-20)
(0.450376 0.566731 -2.92867e-21)
(0.526538 0.541163 3.47654e-20)
(0.582181 0.488662 -3.23767e-20)
(0.629183 0.435241 -8.39991e-21)
(0.671285 0.387394 -5.13478e-21)
(0.709888 0.34507 9.46942e-21)
(0.746122 0.306947 -1.20025e-20)
(0.775842 0.27388 -1.86842e-20)
(0.135158 0.250874 3.81071e-20)
(0.296832 0.480663 -2.16927e-20)
(0.412758 0.535782 1.05053e-21)
(0.490773 0.510105 -5.27685e-20)
(0.550197 0.459858 5.73344e-20)
(0.601099 0.409191 -1.81564e-20)
(0.646692 0.363925 1.0882e-20)
(0.688303 0.323933 9.46411e-21)
(0.726955 0.288035 2.74428e-20)
(0.758988 0.256869 -1.12913e-20)
(0.11805 0.237349 -1.54998e-20)
(0.264458 0.45175 4.50229e-20)
(0.377025 0.501442 2.54137e-20)
(0.456968 0.476162 4.17017e-20)
(0.520043 0.428633 -9.66289e-21)
(0.574652 0.381081 3.88929e-21)
(0.623547 0.33869 3.1398e-20)
(0.667996 0.301284 7.01551e-21)
(0.708935 0.267807 6.76417e-22)
(0.743226 0.238689 -1.35057e-20)
(0.101688 0.221717 -3.58004e-20)
(0.233865 0.419508 -2.62431e-21)
(0.34349 0.463917 -1.49458e-20)
(0.425377 0.439509 -6.71886e-20)
(0.491927 0.395132 -6.50276e-20)
(0.550016 0.351033 1.08517e-20)
(0.602 0.311793 -2.6765e-20)
(0.649093 0.277207 1.71145e-20)
(0.692171 0.246335 9.29859e-21)
(0.728628 0.219413 1.93847e-20)
(0.0862911 0.204107 5.26763e-20)
(0.205373 0.384167 -4.31144e-20)
(0.312445 0.423438 -2.19261e-20)
(0.396239 0.400344 3.88505e-20)
(0.466042 0.359519 4.42736e-20)
(0.527354 0.319185 -1.47082e-20)
(0.582188 0.283353 -1.90728e-21)
(0.631714 0.251804 -5.32384e-20)
(0.676763 0.223703 -3.01145e-20)
(0.715269 0.199126 1.14859e-20)
(0.0720617 0.184667 -2.99803e-20)
(0.179276 0.345982 1.2629e-20)
(0.284154 0.380255 4.6502e-20)
(0.369771 0.358881 -2.09097e-20)
(0.442565 0.321972 1.66318e-21)
(0.506815 0.285689 5.92336e-20)
(0.564239 0.253498 2.71898e-21)
(0.615971 0.225182 5.10273e-20)
(0.662809 0.200008 2.12841e-20)
(0.703214 0.17792 -3.38372e-20)
(0.0591857 0.163567 4.16073e-20)
(0.15584 0.305233 4.61529e-21)
(0.25886 0.334639 3.02629e-21)
(0.346168 0.31535 4.25405e-20)
(0.421659 0.282685 -5.66683e-21)
(0.488534 0.250707 -3.71767e-20)
(0.548269 0.222369 1.82294e-20)
(0.601963 0.197462 -2.91556e-20)
(0.650395 0.175352 -1.21877e-20)
(0.692525 0.155892 1.23155e-20)
(0.0478291 0.140991 -2.59438e-20)
(0.135301 0.262218 -4.98896e-20)
(0.236775 0.286878 1.15438e-20)
(0.325606 0.269997 -2.26201e-20)
(0.403465 0.241861 -1.36681e-20)
(0.472633 0.214415 3.31759e-20)
(0.534382 0.190114 -8.02913e-21)
(0.58978 0.168772 7.41638e-21)
(0.639599 0.149848 -9.03551e-21)
(0.683258 0.133143 1.79454e-20)
(0.0381373 0.117141 9.40956e-21)
(0.117866 0.217254 3.36205e-20)
(0.218083 0.237276 -4.67436e-20)
(0.308235 0.223079 2.21116e-20)
(0.388109 0.19972 -1.00887e-20)
(0.459217 0.176996 -2.84256e-20)
(0.522668 0.156893 2.32332e-20)
(0.579504 0.139247 4.87359e-21)
(0.630493 0.123616 -7.48496e-22)
(0.67546 0.109781 -2.08607e-20)
(0.0302333 0.0922304 3.08771e-21)
(0.103707 0.170675 1.08519e-20)
(0.202941 0.18615 4.23257e-20)
(0.294184 0.174867 -8.13151e-21)
(0.375697 0.156486 -6.41554e-21)
(0.448375 0.138645 2.3717e-21)
(0.513203 0.12287 1.05699e-21)
(0.571199 0.109031 8.68049e-21)
(0.623135 0.0967807 -1.14167e-20)
(0.669172 0.0859122 -7.26252e-21)
(0.0242169 0.0664834 -7.7095e-21)
(0.0929643 0.122827 -1.32054e-20)
(0.191474 0.133827 -3.29353e-20)
(0.283554 0.125637 1.65851e-20)
(0.366312 0.112394 1.35363e-20)
(0.44018 0.0995601 5.74208e-22)
(0.506049 0.0882179 -2.26852e-20)
(0.564922 0.0782714 -1.00864e-20)
(0.617573 0.0694708 7.99351e-21)
(0.664427 0.061649 8.56146e-21)
(0.0201637 0.0401331 1.34255e-21)
(0.0857435 0.0740636 -2.77057e-21)
(0.183776 0.0806422 6.2508e-21)
(0.276424 0.0756764 -4.23777e-21)
(0.360019 0.0676844 -3.74302e-21)
(0.434687 0.0599482 -2.53977e-21)
(0.501254 0.0531129 4.66935e-21)
(0.560714 0.0471202 1.78054e-20)
(0.613844 0.0418197 2.57979e-21)
(0.66125 0.0371028 -4.57465e-21)
(0.0181243 0.0134183 1.65987e-21)
(0.0821154 0.0247493 -4.56742e-21)
(0.179911 0.0269386 -5.17972e-21)
(0.272846 0.0252746 -3.59575e-21)
(0.356862 0.0226029 3.42797e-21)
(0.43193 0.0200182 1.54799e-21)
(0.498848 0.0177347 -1.54359e-21)
(0.558603 0.015733 -7.04025e-21)
(0.611973 0.0139628 2.31917e-21)
(0.659657 0.0123865 -2.16953e-21)
(0.0181243 -0.0134183 -1.65987e-21)
(0.0821154 -0.0247493 4.56742e-21)
(0.179911 -0.0269386 5.17972e-21)
(0.272846 -0.0252746 -4.96129e-21)
(0.356862 -0.0226029 4.37125e-21)
(0.43193 -0.0200182 2.19109e-21)
(0.498848 -0.0177347 -3.50168e-21)
(0.558603 -0.015733 -4.07383e-21)
(0.611973 -0.0139628 6.01614e-22)
(0.659657 -0.0123865 -1.69671e-21)
(0.0201637 -0.0401331 1.81997e-21)
(0.0857435 -0.0740636 -5.4409e-21)
(0.183776 -0.0806422 1.2201e-20)
(0.276424 -0.0756764 -1.07178e-20)
(0.360019 -0.0676844 -5.05553e-22)
(0.434687 -0.0599482 -7.13774e-21)
(0.501254 -0.0531129 1.16115e-20)
(0.560714 -0.0471202 1.58033e-20)
(0.613844 -0.0418197 2.82737e-21)
(0.66125 -0.0371028 -6.087e-21)
(0.0242169 -0.0664834 -1.56464e-21)
(0.0929643 -0.122827 -1.1516e-20)
(0.191474 -0.133827 -2.67793e-20)
(0.283554 -0.125637 2.31907e-20)
(0.366312 -0.112394 4.79008e-21)
(0.44018 -0.0995601 4.2387e-21)
(0.506049 -0.0882179 -2.08935e-20)
(0.564922 -0.0782714 -1.23246e-20)
(0.617573 -0.0694708 -2.74212e-21)
(0.664427 -0.061649 1.88037e-20)
(0.0302333 -0.0922304 -5.5177e-21)
(0.103707 -0.170675 6.92714e-21)
(0.202941 -0.18615 4.85721e-20)
(0.294184 -0.174867 -4.35899e-21)
(0.375697 -0.156486 -1.24838e-20)
(0.448375 -0.138645 8.97194e-21)
(0.513203 -0.12287 6.10862e-22)
(0.571199 -0.109031 3.16892e-21)
(0.623135 -0.0967807 -6.93586e-21)
(0.669172 -0.0859122 -1.8336e-20)
(0.0381373 -0.117141 -3.73112e-21)
(0.117866 -0.217254 2.0277e-20)
(0.218083 -0.237276 -4.89146e-20)
(0.308235 -0.223079 2.1214e-20)
(0.388109 -0.19972 1.97867e-22)
(0.459217 -0.176996 -2.69327e-20)
(0.522668 -0.156893 1.19027e-20)
(0.579504 -0.139247 -1.10655e-21)
(0.630493 -0.123616 4.52375e-21)
(0.67546 -0.10978 -1.36682e-21)
(0.0478291 -0.140991 -4.27391e-20)
(0.135301 -0.262218 -5.10544e-20)
(0.236775 -0.286878 1.33668e-20)
(0.325606 -0.269997 -2.42975e-20)
(0.403465 -0.241861 -6.88752e-21)
(0.472633 -0.214415 1.02593e-20)
(0.534382 -0.190114 3.81179e-21)
(0.58978 -0.168772 1.4177e-20)
(0.639599 -0.149848 -3.05478e-21)
(0.683258 -0.133143 1.64253e-20)
(0.0591857 -0.163567 4.08828e-20)
(0.15584 -0.305233 2.62514e-20)
(0.25886 -0.334639 -1.99047e-20)
(0.346168 -0.31535 3.3506e-20)
(0.421659 -0.282685 -2.88222e-21)
(0.488534 -0.250707 -3.62659e-20)
(0.548269 -0.222369 6.36647e-21)
(0.601963 -0.197462 -3.85605e-20)
(0.650395 -0.175352 1.48462e-21)
(0.692525 -0.155892 1.39979e-20)
(0.0720617 -0.184667 -3.04625e-20)
(0.179276 -0.345982 5.45088e-20)
(0.284154 -0.380255 2.13552e-20)
(0.369771 -0.358881 -2.63951e-20)
(0.442565 -0.321972 2.06427e-22)
(0.506815 -0.285689 6.68641e-20)
(0.564239 -0.253498 3.05825e-21)
(0.615971 -0.225182 2.96901e-20)
(0.662809 -0.200008 3.61498e-20)
(0.703214 -0.17792 -2.02547e-20)
(0.0862911 -0.204107 1.70792e-20)
(0.205373 -0.384167 -8.1667e-21)
(0.312445 -0.423438 -1.93783e-20)
(0.396239 -0.400344 1.46361e-20)