/*--------------------------------*- C++ -*----------------------------------*\
  =========                 |
  \\      /  F ield         | OpenFOAM: The Open Source CFD Toolbox
   \\    /   O peration     | Website:  https://openfoam.org
    \\  /    A nd           | Version:  7
     \\/     M anipulation  |
\*---------------------------------------------------------------------------*/
FoamFile
{
    version     2.0;
    format      ascii;
    class       volScalarField;
    location    "50";
    object      p;
}
// * * * * * * * * * * * * * * * * * * * * * * * * * * * * * * * * * * * * * //

dimensions      [0 2 -2 0 0 0 0];

internalField   nonuniform List<scalar> 
2125
(
-0.230366
-0.251285
-0.234498
-0.269426
-0.253575
-0.238267
-0.291716
-0.281438
-0.269606
-0.255448
-0.241727
-0.296011
-0.288214
-0.279449
-0.269479
-0.256926
-0.244935
-0.298395
-0.291769
-0.284955
-0.277443
-0.269135
-0.258023
-0.247956
-0.299671
-0.293906
-0.287972
-0.281992
-0.275514
-0.268666
-0.258746
-0.250863
-0.295067
-0.289923
-0.284615
-0.279351
-0.273723
-0.268159
-0.259105
-0.253721
-0.294825
-0.290955
-0.286402
-0.281675
-0.277037
-0.272106
-0.267679
-0.259113
-0.256594
-0.293124
-0.290601
-0.287283
-0.283293
-0.279115
-0.275034
-0.270678
-0.267253
-0.258831
-0.259349
-0.288777
-0.286809
-0.283998
-0.280542
-0.276885
-0.273307
-0.269442
-0.266846
-0.258321
-0.262126
-0.284886
-0.283396
-0.281047
-0.278091
-0.274927
-0.271807
-0.268393
-0.266288
-0.257835
-0.262908
-0.281389
-0.280315
-0.278381
-0.275887
-0.273181
-0.270481
-0.267489
-0.26547
-0.258031
-0.248855
-0.278232
-0.277515
-0.275951
-0.27388
-0.271595
-0.269276
-0.266674
-0.264496
-0.25883
-0.245183
-0.275364
-0.274955
-0.273717
-0.272028
-0.270122
-0.26815
-0.265902
-0.263623
-0.25968
-0.245849
-0.272737
-0.272591
-0.271651
-0.270298
-0.268731
-0.267068
-0.265132
-0.262878
-0.260068
-0.246965
-0.270311
-0.2704
-0.269723
-0.268666
-0.267399
-0.26601
-0.264346
-0.262214
-0.260055
-0.248232
-0.268058
-0.268359
-0.267911
-0.267116
-0.266115
-0.264973
-0.263552
-0.261611
-0.259864
-0.249741
-0.265955
-0.266451
-0.266204
-0.265641
-0.264876
-0.263958
-0.262771
-0.261058
-0.259645
-0.251326
-0.263986
-0.264662
-0.264594
-0.264236
-0.263684
-0.262975
-0.262014
-0.26053
-0.259484
-0.252788
-0.262141
-0.262986
-0.263077
-0.2629
-0.262541
-0.262026
-0.261272
-0.260025
-0.259423
-0.253991
-0.260416
-0.26142
-0.261652
-0.261638
-0.261452
-0.261118
-0.260568
-0.25967
-0.259302
-0.254888
-0.25881
-0.259965
-0.260323
-0.260452
-0.260422
-0.260253
-0.259897
-0.259299
-0.258928
-0.255779
-0.257326
-0.258623
-0.259093
-0.25935
-0.259458
-0.259438
-0.259259
-0.258911
-0.258611
-0.256623
-0.255971
-0.2574
-0.257969
-0.258337
-0.258566
-0.258678
-0.258657
-0.258515
-0.25833
-0.257135
-0.254753
-0.256303
-0.256959
-0.257422
-0.257756
-0.257981
-0.258095
-0.258118
-0.258057
-0.257395
-0.253682
-0.255341
-0.256071
-0.256614
-0.257036
-0.257355
-0.257582
-0.257736
-0.257792
-0.257497
-0.252768
-0.254521
-0.255314
-0.255923
-0.256416
-0.256813
-0.257129
-0.257383
-0.257542
-0.257501
-0.252022
-0.253854
-0.254696
-0.255357
-0.255905
-0.256362
-0.256747
-0.257078
-0.257319
-0.25745
-0.251453
-0.253345
-0.254224
-0.254925
-0.255514
-0.256015
-0.256449
-0.256834
-0.257137
-0.257381
-0.251069
-0.253002
-0.253906
-0.254632
-0.255248
-0.255778
-0.256245
-0.256664
-0.257007
-0.257319
-0.250875
-0.252829
-0.253746
-0.254485
-0.255114
-0.255658
-0.25614
-0.256576
-0.256939
-0.257284
-0.0433838
-0.0453729
-0.0473495
-0.0493128
-0.0512625
-0.0531981
-0.0551191
-0.0570253
-0.0589161
-0.0607917
-0.0626525
-0.0439323
-0.0459514
-0.0479557
-0.0499444
-0.0519166
-0.0538718
-0.0558092
-0.0577282
-0.0596282
-0.0615092
-0.0633712
-0.0448632
-0.0469249
-0.0489703
-0.0509986
-0.053009
-0.0550007
-0.0569731
-0.0589258
-0.0608577
-0.06277
-0.0646617
-0.0461521
-0.0482764
-0.0503832
-0.0524716
-0.0545408
-0.05659
-0.0586183
-0.0606254
-0.06261
-0.0645743
-0.0665159
-0.0477956
-0.0499983
-0.0521825
-0.0543472
-0.0564915
-0.0586147
-0.0607158
-0.0627947
-0.0648497
-0.0668845
-0.0688951
-0.0497731
-0.05207
-0.0543475
-0.0566047
-0.0588406
-0.0610546
-0.0632455
-0.0654137
-0.0675568
-0.0696803
-0.0717787
-0.0520856
-0.0544919
-0.0568781
-0.0592433
-0.0615865
-0.0639071
-0.066204
-0.0684777
-0.0707254
-0.0729547
-0.0751586
-0.0547322
-0.0572627
-0.0597724
-0.0622606
-0.0647262
-0.0671688
-0.0695871
-0.0719821
-0.0743504
-0.0767022
-0.0790293
-0.0577196
-0.0603887
-0.0630364
-0.0656621
-0.0682648
-0.0708442
-0.0733988
-0.0759303
-0.0784349
-0.0809251
-0.0833924
-0.0610563
-0.063878
-0.0666777
-0.069455
-0.0722088
-0.0749392
-0.0776447
-0.0803273
-0.0829828
-0.0856269
-0.0882514
-0.0647542
-0.067742
-0.0707072
-0.0736496
-0.0765682
-0.0794633
-0.0823332
-0.0851807
-0.0880013
-0.090814
-0.0936122
-0.0656377
-0.0688271
-0.071994
-0.0751376
-0.0782579
-0.0813541
-0.0844265
-0.0874737
-0.0904991
-0.093498
-0.0964929
-0.0994806
-0.0699085
-0.0732904
-0.0766487
-0.0799829
-0.0832929
-0.0865784
-0.0898399
-0.093076
-0.0962909
-0.0994799
-0.10267
-0.105862
-0.0745762
-0.078162
-0.0817227
-0.0852583
-0.0887688
-0.0922541
-0.0957149
-0.0991499
-0.102564
-0.105953
-0.109348
-0.112758
-0.0796574
-0.0834577
-0.0872309
-0.0909773
-0.0946974
-0.0983912
-0.10206
-0.105702
-0.109324
-0.112922
-0.11653
-0.120168
-0.0851745
-0.089198
-0.093192
-0.0971568
-0.101093
-0.105001
-0.108883
-0.112738
-0.116572
-0.120383
-0.124211
-0.128087
-0.0911457
-0.0953986
-0.0996189
-0.103808
-0.107966
-0.112093
-0.116191
-0.12026
-0.124307
-0.128331
-0.132378
-0.136496
-0.0975896
-0.102076
-0.106525
-0.110938
-0.115317
-0.119664
-0.12398
-0.128265
-0.132525
-0.136759
-0.141021
-0.145377
-0.104526
-0.10925
-0.113929
-0.118566
-0.123161
-0.127718
-0.132239
-0.13673
-0.141196
-0.145641
-0.150115
-0.154704
-0.111969
-0.116924
-0.121829
-0.126689
-0.131501
-0.136268
-0.140984
-0.145661
-0.1503
-0.154931
-0.159598
-0.164422
-0.11994
-0.125113
-0.130225
-0.135285
-0.140292
-0.145263
-0.150177
-0.155058
-0.159861
-0.164659
-0.169459
-0.174503
-0.128456
-0.133844
-0.139151
-0.144389
-0.149547
-0.154664
-0.159711
-0.164773
-0.169741
-0.174767
-0.179687
-0.184977
-0.137498
-0.143082
-0.148581
-0.15401
-0.159333
-0.164594
-0.169708
-0.174848
-0.179823
-0.185044
-0.190043
-0.195734
-0.147066
-0.152785
-0.158406
-0.16397
-0.169445
-0.174908
-0.180191
-0.185514
-0.190447
-0.19576
-0.200547
-0.206741
-0.157217
-0.163026
-0.168693
-0.174258
-0.179705
-0.185179
-0.190531
-0.196125
-0.201264
-0.207015
-0.211574
-0.218411
-0.167916
-0.173815
-0.179549
-0.185131
-0.190511
-0.195805
-0.200869
-0.206239
-0.211233
-0.217484
-0.222173
-0.230376
-0.178977
-0.184876
-0.190641
-0.196296
-0.201804
-0.207205
-0.212282
-0.217418
-0.221875
-0.227752
-0.231877
-0.241775
-0.190378
-0.196032
-0.201534
-0.206957
-0.21236
-0.217847
-0.223346
-0.229077
-0.234267
-0.240458
-0.244081
-0.254949
-0.202387
-0.207581
-0.212497
-0.217208
-0.221818
-0.226492
-0.231406
-0.236928
-0.242968
-0.250634
-0.256798
-0.269706
-0.214823
-0.219531
-0.223845
-0.227806
-0.231476
-0.234956
-0.238403
-0.242085
-0.246331
-0.252062
-0.258942
-0.272724
-0.0673216
-0.0747679
-0.0822195
-0.0895844
-0.096755
-0.103637
-0.110122
-0.11611
-0.121477
-0.126115
-0.129886
-0.132691
-0.134398
-0.134932
-0.134185
-0.132124
-0.128683
-0.123893
-0.117744
-0.110363
-0.101814
-0.0923276
-0.0820294
-0.0712321
-0.0600727
-0.048872
-0.0376892
-0.0267507
-0.0159388
-0.00533633
-0.0680801
-0.0755906
-0.0830887
-0.090485
-0.0976763
-0.104572
-0.111062
-0.117047
-0.122399
-0.127012
-0.130749
-0.133511
-0.135167
-0.135644
-0.134832
-0.132703
-0.129186
-0.124319
-0.118089
-0.110628
-0.101999
-0.0924395
-0.0820744
-0.0712241
-0.0600231
-0.0488008
-0.0376086
-0.0266825
-0.0158895
-0.00532139
-0.0694865
-0.0771331
-0.0847196
-0.0921731
-0.0994027
-0.106323
-0.112823
-0.1188
-0.124125
-0.128691
-0.132363
-0.135042
-0.136603
-0.136972
-0.136042
-0.133783
-0.130127
-0.125113
-0.118732
-0.11112
-0.102343
-0.0926457
-0.0821571
-0.0712063
-0.0599297
-0.0486648
-0.037458
-0.0265517
-0.015797
-0.00529065
-0.0715042
-0.0793396
-0.0870473
-0.094577
-0.101856
-0.108807
-0.115317
-0.12128
-0.126562
-0.131058
-0.134634
-0.137197
-0.138622
-0.138838
-0.13774
-0.135299
-0.131446
-0.126226
-0.119632
-0.111807
-0.102822
-0.0929297
-0.082268
-0.0711751
-0.0597937
-0.0484683
-0.037243
-0.0263635
-0.0156647
-0.00524538
-0.0740949
-0.0821655
-0.0900186
-0.0976359
-0.10497
-0.111953
-0.118468
-0.124405
-0.129628
-0.134031
-0.137483
-0.139896
-0.141148
-0.141172
-0.139862
-0.13719
-0.133091
-0.127612
-0.120751
-0.112658
-0.103412
-0.0932754
-0.0823974
-0.071126
-0.0596148
-0.048214
-0.0369676
-0.026122
-0.0154957
-0.00518681
-0.0772358
-0.0855807
-0.0935945
-0.101302
-0.108689
-0.115698
-0.122211
-0.128109
-0.133253
-0.137537
-0.140837
-0.14307
-0.144117
-0.143912
-0.142351
-0.139407
-0.135017
-0.129231
-0.122057
-0.113647
-0.104094
-0.0936677
-0.0825359
-0.0710539
-0.0593926
-0.047903
-0.0366354
-0.0258302
-0.0152928
-0.00511582
-0.0809151
-0.089565
-0.097745
-0.105537
-0.112967
-0.119993
-0.12649
-0.132331
-0.137373
-0.141514
-0.144635
-0.146658
-0.14747
-0.147004
-0.145157
-0.141903
-0.137183
-0.13105
-0.12352
-0.114749
-0.104849
-0.0940928
-0.082675
-0.0709537
-0.0591261
-0.0475361
-0.0362496
-0.0254906
-0.0150585
-0.00503302
-0.0851264
-0.0941043
-0.102445
-0.110305
-0.117762
-0.124788
-0.131253
-0.137016
-0.141932
-0.145902
-0.148818
-0.150605
-0.151155
-0.150398
-0.148235
-0.144637
-0.139554
-0.133036
-0.125114
-0.115944
-0.10566
-0.0945383
-0.0828072
-0.0708208
-0.0588146
-0.0471137
-0.035813
-0.0251049
-0.0147951
-0.00493877
-0.0898691
-0.0991884
-0.107673
-0.115575
-0.123035
-0.130041
-0.136452
-0.142113
-0.146877
-0.150649
-0.153334
-0.15486
-0.155123
-0.154049
-0.151543
-0.147572
-0.142097
-0.135162
-0.126816
-0.117211
-0.106513
-0.0949932
-0.0829256
-0.070651
-0.058458
-0.0466362
-0.0353288
-0.0246747
-0.0145052
-0.00483318
-0.095145
-0.104809
-0.113408
-0.121314
-0.128747
-0.135709
-0.142041
-0.147574
-0.152156
-0.155705
-0.158134
-0.159379
-0.159333
-0.157918
-0.155045
-0.150676
-0.144782
-0.137402
-0.128604
-0.118534
-0.107395
-0.0954476
-0.0830247
-0.0704408
-0.0580561
-0.046104
-0.0348003
-0.0242012
-0.0141915
-0.00471606
-0.100958
-0.110956
-0.119625
-0.12749
-0.13486
-0.14175
-0.147977
-0.153351
-0.157723
-0.161022
-0.163175
-0.164117
-0.163743
-0.161968
-0.158708
-0.153919
-0.147585
-0.139734
-0.130461
-0.119897
-0.108294
-0.0958933
-0.0830996
-0.0701876
-0.0576096
-0.0455178
-0.0342307
-0.0236855
-0.0138569
-0.00458695
-0.10731
-0.11762
-0.1263
-0.134067
-0.141334
-0.148122
-0.154215
-0.159399
-0.16353
-0.166556
-0.168413
-0.169037
-0.168317
-0.166165
-0.1625
-0.157275
-0.150481
-0.142139
-0.132369
-0.121288
-0.1092
-0.0963234
-0.0831464
-0.0698895
-0.0571196
-0.0448788
-0.0336238
-0.0231289
-0.0135045
-0.00444512
-0.114203
-0.124785
-0.133401
-0.141005
-0.148128
-0.154786
-0.160712
-0.165673
-0.169534
-0.172265
-0.173811
-0.174102
-0.173021
-0.170479
-0.166395
-0.160718
-0.15345
-0.144599
-0.134314
-0.122694
-0.110106
-0.0967321
-0.0831621
-0.0695455
-0.0565873
-0.0441885
-0.0329833
-0.0225326
-0.0131376
-0.00428957
-0.121635
-0.132429
-0.14089
-0.148262
-0.155201
-0.161699
-0.167425
-0.172128
-0.175691
-0.178112
-0.179333
-0.179278
-0.177824
-0.174882
-0.170368
-0.164229
-0.156471
-0.147099
-0.136281
-0.124108
-0.111002
-0.097115
-0.0831442
-0.0691554
-0.0560144
-0.0434493
-0.0323128
-0.0218982
-0.0127595
-0.00411917
-0.129598
-0.140525
-0.148724
-0.155793
-0.162511
-0.16882
-0.174309
-0.17872
-0.181963
-0.184061
-0.184944
-0.184536
-0.182697
-0.17935
-0.174394
-0.167788
-0.159528
-0.149625
-0.138261
-0.125519
-0.111884
-0.0974689
-0.0830911
-0.0687201
-0.055403
-0.0426641
-0.031616
-0.021228
-0.0123736
-0.00393271
-0.138077
-0.149034
-0.156852
-0.163551
-0.170018
-0.176108
-0.181321
-0.185409
-0.188313
-0.190078
-0.190614
-0.189845
-0.187615
-0.183858
-0.178453
-0.171377
-0.162605
-0.152165
-0.14024
-0.126923
-0.112744
-0.0977915
-0.0830017
-0.0682413
-0.0547555
-0.0418367
-0.0308967
-0.0205247
-0.0119829
-0.0037291
-0.147048
-0.157905
-0.165217
-0.171488
-0.177681
-0.183519
-0.188416
-0.192155
-0.194707
-0.196133
-0.196314
-0.195181
-0.192553
-0.188387
-0.182526
-0.17498
-0.165685
-0.154707
-0.142209
-0.128312
-0.113577
-0.0980818
-0.0828759
-0.0677217
-0.0540748
-0.0409717
-0.0301591
-0.0197919
-0.0115905
-0.00350748
-0.156478
-0.167078
-0.173756
-0.17956
-0.185462
-0.191011
-0.195553
-0.198921
-0.201114
-0.202196
-0.202015
-0.200515
-0.197486
-0.192913
-0.186591
-0.178579
-0.168752
-0.157241
-0.144157
-0.12968
-0.11438
-0.0983394
-0.0827141
-0.0671652
-0.0533649
-0.0400749
-0.0294074
-0.0190344
-0.0111995
-0.00326756
-0.166322
-0.176474
-0.182406
-0.187726
-0.193322
-0.198538
-0.202689
-0.205674
-0.207503
-0.208237
-0.207687
-0.20582
-0.202388
-0.19741
-0.190623
-0.182153
-0.171788
-0.159752
-0.146071
-0.131022
-0.115145
-0.0985646
-0.0825175
-0.0665771
-0.0526307
-0.0391536
-0.0286469
-0.0182579
-0.0108126
-0.00300968
-0.176511
-0.186001
-0.191107
-0.19595
-0.201214
-0.206048
-0.209781
-0.212373
-0.213834
-0.214214
-0.213291
-0.211057
-0.207221
-0.201842
-0.194591
-0.185674
-0.174766
-0.16222
-0.147934
-0.132328
-0.115869
-0.098758
-0.0822885
-0.0659641
-0.0518786
-0.0382165
-0.0278835
-0.0174692
-0.0104326
-0.00273503
-0.186944
-0.195546
-0.199804
-0.20419
-0.209081
-0.213482
-0.216775
-0.218967
-0.220054
-0.220072
-0.218772
-0.216167
-0.211932
-0.206159
-0.198449
-0.1891
-0.177652
-0.164619
-0.149727
-0.133587
-0.116542
-0.0989205
-0.0820306
-0.0653347
-0.0511167
-0.0372741
-0.027124
-0.0166767
-0.010062
-0.00244573
-0.197474
-0.204973
-0.208443
-0.212389
-0.216842
-0.220759
-0.223596
-0.225379
-0.226083
-0.22573
-0.224054
-0.221072
-0.216443
-0.210293
-0.202138
-0.19238
-0.180406
-0.166916
-0.151426
-0.134785
-0.117159
-0.0990529
-0.081748
-0.0646985
-0.050354
-0.0363379
-0.0263757
-0.0158892
-0.00970326
-0.00214477
-0.20785
-0.214118
-0.216951
-0.22045
-0.224378
-0.227768
-0.230135
-0.231496
-0.231808
-0.231077
-0.229034
-0.225707
-0.220668
-0.214162
-0.20559
-0.195454
-0.182979
-0.169073
-0.153003
-0.135904
-0.117711
-0.0991561
-0.081446
-0.0640659
-0.0496007
-0.0354204
-0.0256464
-0.0151162
-0.00935837
-0.00183595
-0.217679
-0.222777
-0.225217
-0.228216
-0.231527
-0.234359
-0.236244
-0.237171
-0.237087
-0.235981
-0.23358
-0.2299
-0.224516
-0.217687
-0.208735
-0.198263
-0.185325
-0.171053
-0.154435
-0.13693
-0.118191
-0.0992309
-0.0811302
-0.0634474
-0.0488668
-0.0345338
-0.0249437
-0.014367
-0.00902899
-0.00152365
-0.226512
-0.230719
-0.23306
-0.235462
-0.238086
-0.240349
-0.241747
-0.242241
-0.241774
-0.240313
-0.237582
-0.23359
-0.227911
-0.220798
-0.211519
-0.200758
-0.187411
-0.172826
-0.155704
-0.137849
-0.118595
-0.0992783
-0.0808066
-0.0628526
-0.0481619
-0.0336892
-0.0242744
-0.0136502
-0.00871635
-0.00121248
-0.233842
-0.23772
-0.240214
-0.241914
-0.243841
-0.24555
-0.24648
-0.246566
-0.245752
-0.243981
-0.240974
-0.236719
-0.230801
-0.223456
-0.213908
-0.202913
-0.189214
-0.174372
-0.156797
-0.13865
-0.118922
-0.099299
-0.0804805
-0.0622892
-0.047494
-0.032896
-0.023644
-0.0129731
-0.00842123
-0.000907016
-0.239153
-0.243588
-0.246364
-0.247325
-0.248628
-0.249833
-0.250344
-0.250081
-0.248979
-0.246955
-0.243732
-0.239281
-0.233184
-0.22566
-0.215905
-0.204724
-0.190735
-0.175688
-0.157716
-0.139331
-0.119175
-0.0992957
-0.0801581
-0.0617636
-0.0468701
-0.0321615
-0.0230573
-0.0123417
-0.00814407
-0.000611496
-0.242701
-0.248191
-0.251223
-0.25157
-0.252399
-0.253181
-0.253354
-0.252821
-0.251504
-0.24928
-0.245912
-0.241326
-0.235107
-0.227453
-0.217547
-0.206226
-0.192004
-0.176795
-0.158483
-0.139906
-0.119368
-0.0992777
-0.0798498
-0.0612841
-0.0462973
-0.0314922
-0.022518
-0.0117607
-0.00788515
-0.00032966
-0.245918
-0.251572
-0.254671
-0.254693
-0.255229
-0.255682
-0.255612
-0.254892
-0.253437
-0.251075
-0.247609
-0.242934
-0.236637
-0.228894
-0.218882
-0.207456
-0.19305
-0.177713
-0.159111
-0.140381
-0.119506
-0.0992441
-0.0795553
-0.0608478
-0.0457746
-0.0308866
-0.0220257
-0.0112306
-0.00764401
-6.38319e-05
-0.250841
-0.254159
-0.256904
-0.256842
-0.257223
-0.257429
-0.257187
-0.256339
-0.254812
-0.252474
-0.248862
-0.244083
-0.237718
-0.2299
-0.219806
-0.208296
-0.193743
-0.17831
-0.15947
-0.140631
-0.119478
-0.0990985
-0.0791989
-0.0603948
-0.0452618
-0.0303161
-0.021566
-0.0107408
-0.00741891
0.000186723
-0.262787
-0.25669
-0.25808
-0.257893
-0.258179
-0.258224
-0.257866
-0.256908
-0.255274
-0.252765
-0.249181
-0.244383
-0.237983
-0.230128
-0.219986
-0.208439
-0.193803
-0.178335
-0.159363
-0.140499
-0.119195
-0.0987907
-0.078787
-0.059961
-0.0448178
-0.0298523
-0.0211996
-0.0103536
-0.00724012
0.000389321
-0.265251
-0.257937
-0.25913
-0.258883
-0.259085
-0.258969
-0.258487
-0.257405
-0.255659
-0.253046
-0.249354
-0.244445
-0.237953
-0.23
-0.219775
-0.208139
-0.193414
-0.177887
-0.158815
-0.139944
-0.118558
-0.0981961
-0.0781708
-0.0594072
-0.0443116
-0.0293952
-0.0208497
-0.0100233
-0.00708068
0.000552204
-0.265671
-0.258232
-0.259807
-0.25952
-0.259698
-0.259469
-0.258893
-0.25771
-0.255869
-0.253158
-0.249398
-0.244389
-0.237808
-0.229752
-0.219439
-0.207702
-0.192885
-0.177286
-0.158118
-0.13924
-0.117786
-0.0974842
-0.0774584
-0.0587877
-0.0437582
-0.0289185
-0.0204865
-0.00969688
-0.00691758
0.000710091
-0.266039
-0.258389
-0.260297
-0.259947
-0.260116
-0.259797
-0.259154
-0.257891
-0.255979
-0.253198
-0.249367
-0.244277
-0.23762
-0.229479
-0.219093
-0.207271
-0.192377
-0.176714
-0.157465
-0.138582
-0.117068
-0.0968241
-0.076799
-0.0582161
-0.043247
-0.0284784
-0.0201488
-0.00939289
-0.00676159
0.000860772
-0.266057
-0.25848
-0.260684
-0.260247
-0.260416
-0.260018
-0.25932
-0.257987
-0.256011
-0.253164
-0.24926
-0.244103
-0.23738
-0.229164
-0.218714
-0.206817
-0.191858
-0.17614
-0.156824
-0.13794
-0.116381
-0.0961981
-0.0761806
-0.0576847
-0.0427747
-0.0280734
-0.0198369
-0.00911177
-0.00661345
0.00100394
-0.26582
-0.258512
-0.260965
-0.260433
-0.260611
-0.260144
-0.259399
-0.258004
-0.255971
-0.253064
-0.249173
-0.243877
-0.237091
-0.228807
-0.2183
-0.206334
-0.191317
-0.175549
-0.156177
-0.137298
-0.115706
-0.0955881
-0.0755873
-0.0571813
-0.042332
-0.0276982
-0.0195473
-0.00885232
-0.0064725
0.00113949
-0.265451
-0.258522
-0.261145
-0.260515
-0.260711
-0.260183
-0.259401
-0.25795
-0.255867
-0.252901
-0.248798
-0.243606
-0.236764
-0.228418
-0.217859
-0.20583
-0.190763
-0.174948
-0.15553
-0.136658
-0.115044
-0.0949958
-0.0750197
-0.0567062
-0.0419188
-0.0273528
-0.0192799
-0.00861493
-0.00633895
0.00126715
-0.265002
-0.258519
-0.261233
-0.260511
-0.260729
-0.260148
-0.259337
-0.257837
-0.255711
-0.252694
-0.248617
-0.243302
-0.236405
-0.228005
-0.2174
-0.205313
-0.190203
-0.174345
-0.154891
-0.136027
-0.114402
-0.094425
-0.0744812
-0.0562614
-0.041537
-0.0270385
-0.0190357
-0.00840027
-0.00621332
0.00138669
-0.264513
-0.258481
-0.261252
-0.260431
-0.260681
-0.260051
-0.259217
-0.257675
-0.255511
-0.252447
-0.248323
-0.242966
-0.236024
-0.227576
-0.216929
-0.204791
-0.189644
-0.173746
-0.154263
-0.135409
-0.113783
-0.0938778
-0.0739732
-0.0558478
-0.0411872
-0.0267558
-0.018815
-0.00820868
-0.00609608
0.00149796
-0.264014
-0.258399
-0.261215
-0.260289
-0.260577
-0.259903
-0.259054
-0.257474
-0.255277
-0.252173
-0.248012
-0.242609
-0.23563
-0.227139
-0.216456
-0.204273
-0.189091
-0.173157
-0.153653
-0.134809
-0.113188
-0.093356
-0.0734969
-0.0554657
-0.0408697
-0.0265045
-0.0186182
-0.0080402
-0.00598766
0.00160089
-0.263431
-0.258377
-0.261044
-0.260137
-0.260423
-0.25972
-0.258856
-0.257244
-0.25502
-0.251879
-0.247689
-0.242276
-0.235234
-0.226704
-0.215991
-0.203768
-0.188552
-0.172586
-0.153064
-0.13423
-0.112622
-0.0928617
-0.0730533
-0.0551153
-0.0405846
-0.0262846
-0.018445
-0.00789467
-0.00588843
0.00169546
-0.262614
-0.258404
-0.260821
-0.259953
-0.260237
-0.259509
-0.258635
-0.256996
-0.254748
-0.251577
-0.247359
-0.241844
-0.234842
-0.22628
-0.215541
-0.203276
-0.188042
-0.172041
-0.152503
-0.133678
-0.112088
-0.0923972
-0.0726435
-0.0547969
-0.0403318
-0.0260954
-0.0182954
-0.00777175
-0.00579874
0.00178171
-0.261851
-0.25838
-0.260575
-0.259747
-0.260031
-0.259283
-0.258402
-0.25674
-0.254473
-0.251274
-0.247034
-0.241515
-0.234467
-0.225877
-0.215115
-0.202817
-0.187561
-0.171526
-0.151981
-0.133161
-0.111589
-0.0919651
-0.0722689
-0.0545106
-0.0401114
-0.0259366
-0.0181693
-0.00767087
-0.00571892
0.00185973
-0.261161
-0.258314
-0.260315
-0.259535
-0.259817
-0.259053
-0.258167
-0.256486
-0.254203
-0.250982
-0.246723
-0.241183
-0.234116
-0.225504
-0.214724
-0.202397
-0.187121
-0.171053
-0.151501
-0.132683
-0.111127
-0.0915682
-0.0719306
-0.0542568
-0.0399231
-0.0258072
-0.0180662
-0.00759134
-0.00564922
0.00192961
-0.260533
-0.258227
-0.260057
-0.259327
-0.259605
-0.25883
-0.257941
-0.256244
-0.253949
-0.25071
-0.246437
-0.240882
-0.233799
-0.22517
-0.214377
-0.202024
-0.18673
-0.170631
-0.151068
-0.132244
-0.110714
-0.0912096
-0.0716301
-0.0540358
-0.0397668
-0.0257064
-0.0179857
-0.0075323
-0.00558987
0.00199147
-0.25998
-0.258129
-0.259815
-0.259133
-0.259408
-0.258624
-0.257733
-0.256024
-0.253719
-0.250465
-0.246182
-0.240618
-0.233525
-0.224884
-0.214082
-0.201707
-0.186396
-0.170266
-0.15069
-0.131859
-0.110346
-0.0908918
-0.0713688
-0.0538481
-0.0396424
-0.0256333
-0.0179275
-0.00749279
-0.00554102
0.00204539
-0.259517
-0.258032
-0.259602
-0.258964
-0.259235
-0.258444
-0.257552
-0.255833
-0.253521
-0.250258
-0.245968
-0.2404
-0.233302
-0.224655
-0.213847
-0.201455
-0.186127
-0.169966
-0.150373
-0.131531
-0.110029
-0.0906182
-0.0711483
-0.0536941
-0.0395497
-0.0255869
-0.0178909
-0.0074718
-0.00550275
0.00209146
-0.259156
-0.257948
-0.259431
-0.258828
-0.259095
-0.258299
-0.257406
-0.25568
-0.253364
-0.250094
-0.245802
-0.240237
-0.233137
-0.224488
-0.213679
-0.201273
-0.185929
-0.169737
-0.150123
-0.131265
-0.109767
-0.0903913
-0.0709707
-0.0535745
-0.0394885
-0.0255662
-0.0178754
-0.00746826
-0.00547507
0.00212971
-0.258909
-0.257886
-0.259311
-0.258731
-0.258995
-0.258196
-0.257301
-0.25557
-0.253251
-0.249978
-0.24569
-0.240119
-0.233035
-0.224391
-0.213583
-0.201168
-0.185808
-0.169585
-0.149944
-0.131064
-0.109563
-0.0902143
-0.0708369
-0.05349
-0.0394589
-0.0255704
-0.0178805
-0.00748117
-0.00545795
0.00216013
-0.258782
-0.257851
-0.259247
-0.258679
-0.25894
-0.258137
-0.257241
-0.255507
-0.253187
-0.249915
-0.24563
-0.240077
-0.233005
-0.224366
-0.213563
-0.20114
-0.185762
-0.169507
-0.149836
-0.130931
-0.109419
-0.0900894
-0.0707482
-0.053441
-0.0394604
-0.0255986
-0.0179056
)
;

boundaryField
{
    inlet
    {
        type            zeroGradient;
    }
    outlet
    {
        type            fixedValue;
        value           uniform 0;
    }
    cylinder
    {
        type            zeroGradient;
    }
    top
    {
        type            symmetryPlane;
    }
    bottom
    {
        type            symmetryPlane;
    }
    defaultFaces
    {
        type            empty;
    }
    procBoundary1to0
    {
        type            processor;
        value           nonuniform List<scalar> 
50
(
-0.22582
-0.24855
-0.24855
-0.268858
-0.268858
-0.295372
-0.283295
-0.283295
-0.300684
-0.300684
-0.30342
-0.30342
-0.304811
-0.304811
-0.304764
-0.29953
-0.29953
-0.297989
-0.297989
-0.0413825
-0.0418991
-0.042786
-0.0440112
-0.0455753
-0.0474578
-0.0496602
-0.0521819
-0.0550301
-0.0582137
-0.0617447
-0.0617447
-0.0624262
-0.0665033
-0.0709654
-0.0758298
-0.081121
-0.0868592
-0.0930642
-0.0997589
-0.106964
-0.114703
-0.122994
-0.131834
-0.141246
-0.151269
-0.161861
-0.172925
-0.184522
-0.196869
-0.209691
)
;
    }
    procBoundary1to3
    {
        type            processor;
        value           nonuniform List<scalar> 
41
(
-0.250874
-0.252829
-0.253746
-0.254484
-0.255114
-0.255657
-0.256139
-0.256575
-0.256938
-0.257283
-0.258781
-0.257849
-0.259243
-0.258673
-0.258932
-0.258127
-0.257229
-0.255494
-0.253175
-0.249909
-0.245635
-0.240099
-0.233037
-0.224407
-0.21362
-0.201198
-0.185804
-0.16952
-0.14981
-0.130872
-0.10934
-0.0900174
-0.0707049
-0.0534273
-0.0394926
-0.0256499
-0.0179501
-0.00750956
-0.00545126
0.00218267
-0.00750956
)
;
    }
}


// ************************************************************************* //
