2 	-3.8991 	9.71445e-17 	1.20115 	-0.00234342 	0
2 	-3.702 	6.93889e-17 	1.20263 	-0.00689448 	0
2 	-3.51411 	5.55112e-17 	1.20539 	-0.0112792 	0
2 	-3.33499 	5.55112e-17 	1.20924 	-0.015485 	0
2 	-3.16423 	8.32667e-17 	1.214 	-0.0195296 	0
2 	-3.00143 	1.11022e-16 	1.21953 	-0.0234244 	0
2 	-2.84624 	1.249e-16 	1.22566 	-0.0271705 	0
2 	-2.69829 	1.38778e-16 	1.23226 	-0.0307707 	0
2 	-2.55725 	1.52656e-16 	1.2392 	-0.0342222 	0
2 	-2.42279 	1.52656e-16 	1.24635 	-0.0375208 	0
2 	-2.29461 	1.80411e-16 	1.25361 	-0.0406598 	0
2 	-2.17241 	2.22045e-16 	1.26088 	-0.0436311 	0
2 	-2.05592 	2.22045e-16 	1.26806 	-0.0464256 	0
2 	-1.94486 	2.35922e-16 	1.27507 	-0.0490341 	0
2 	-1.83899 	2.498e-16 	1.28185 	-0.0514478 	0
2 	-1.73806 	2.35922e-16 	1.28835 	-0.0536576 	0
2 	-1.64184 	2.35922e-16 	1.29449 	-0.0556491 	0
2 	-1.55011 	2.22045e-16 	1.30008 	-0.057389 	0
2 	-1.46266 	1.94289e-16 	1.30458 	-0.0587971 	0
2 	-1.3793 	2.22045e-16 	1.30669 	-0.0597079 	0
2 	-1.29983 	2.22045e-16 	1.30395 	-0.0598337 	0
2 	-1.22406 	1.80411e-16 	1.29241 	-0.0587629 	0
2 	-1.15184 	1.80411e-16 	1.26678 	-0.0560315 	0
2 	-1.08298 	1.94289e-16 	1.22147 	-0.0512907 	0
2 	-1.01734 	1.80411e-16 	1.1524 	-0.0445373 	0
2 	-0.954763 	1.66533e-16 	1.05918 	-0.0362871 	0
2 	-0.895107 	1.66533e-16 	0.946221 	-0.027527 	0
2 	-0.838235 	1.66533e-16 	0.821891 	-0.0194002 	0
2 	-0.784018 	1.94289e-16 	0.695776 	-0.012786 	0
2 	-0.732332 	2.22045e-16 	0.575912 	-0.00779533 	0
2 	-0.692472 	2.35922e-16 	0.484414 	-0.00391189 	5.04394e-21
2 	-0.662767 	2.39392e-16 	0.40538 	-0.00270934 	-8.08144e-22
2 	-0.632206 	2.25514e-16 	0.331233 	-0.00214017 	4.95123e-21
2 	-0.600818 	2.35922e-16 	0.26266 	-0.00206495 	-1.84989e-22
2 	-0.568637 	2.22045e-16 	0.199932 	-0.00249003 	-3.7135e-21
2 	-0.5357 	2.22045e-16 	0.142974 	-0.00328957 	-4.35599e-21
2 	-0.509401 	2.498e-16 	0.0914815 	-0.00436316 	-1.86089e-22
2 	-0.492398 	2.63678e-16 	0.0910753 	-0.000832927 	4.18617e-21
2 	-0.467705 	2.77556e-16 	0.0444083 	-0.00108949 	-7.30424e-21
2 	-0.432729 	2.63678e-16 	0.00277597 	-0.00136383 	3.21704e-21
2 	-0.397158 	2.35922e-16 	-0.0343523 	-0.00157712 	3.78027e-21
2 	-0.361038 	2.22045e-16 	-0.0674235 	-0.00166637 	6.29732e-22
2 	-0.324414 	2.22045e-16 	-0.0967927 	-0.00155492 	-5.59933e-22
2 	-0.287337 	2.22045e-16 	-0.12271 	-0.00118538 	9.27381e-22
2 	-0.249855 	2.25948e-16 	-0.145341 	-0.000572343 	7.59888e-22
2 	-0.21202 	2.29417e-16 	-0.164735 	0.000427854 	-2.29973e-22
2 	-0.173884 	2.11636e-16 	-0.18087 	0.00186385 	1.31833e-21
2 	-0.135502 	1.8735e-16 	-0.193686 	0.00358662 	-1.00676e-21
2 	-0.0969254 	1.73472e-16 	-0.203094 	0.00558379 	1.21009e-21
2 	-0.0582107 	1.59595e-16 	-0.209002 	0.00783745 	-5.25302e-22
2 	-0.0194128 	1.45717e-16 	-0.211324 	0.0103148 	8.30186e-23
2 	0.0194128 	6.93889e-17 	-0.209996 	0.0129729 	2.3476e-23
2 	0.0582107 	6.245e-17 	-0.204974 	0.0157549 	3.1092e-22
2 	0.0969254 	7.63278e-17 	-0.196243 	0.0185923 	-7.22995e-22
2 	0.135502 	9.02056e-17 	-0.183814 	0.0214107 	7.14808e-22
2 	0.173884 	6.93889e-17 	-0.167718 	0.0241336 	-1.20696e-21
2 	0.21202 	6.93889e-17 	-0.148007 	0.0266848 	-3.34884e-22
2 	0.249855 	6.93889e-17 	-0.124739 	0.02899 	5.90653e-22
2 	0.287337 	5.55112e-17 	-0.0979751 	0.0309796 	-2.49902e-21
2 	0.324414 	2.77556e-17 	-0.0677589 	0.0325914 	6.31974e-22
2 	0.361038 	2.77556e-17 	-0.0341051 	0.0337708 	-2.59087e-21
2 	0.397158 	5.55112e-17 	0.00302126 	0.0344749 	-5.2813e-21
2 	0.432729 	8.32667e-17 	0.0437227 	0.0347043 	-2.87119e-21
2 	0.467705 	1.11022e-16 	0.0881958 	0.0344852 	1.78754e-21
2 	0.492398 	1.11022e-16 	0.136742 	0.0338489 	-3.73411e-21
2 	0.509401 	1.11022e-16 	0.146632 	0.0203293 	8.9637e-22
2 	0.5357 	1.38778e-16 	0.201706 	0.0197478 	5.26445e-21
2 	0.568637 	1.66533e-16 	0.261092 	0.0189219 	4.3061e-21
2 	0.600818 	1.45717e-16 	0.325059 	0.017977 	-2.99691e-22
2 	0.632206 	1.26635e-16 	0.393819 	0.0170786 	-5.644e-21
2 	0.662767 	1.47451e-16 	0.467437 	0.016626 	1.40912e-21
2 	0.692472 	1.66533e-16 	0.545708 	0.0168737 	-6.29366e-21
2 	0.732332 	1.66533e-16 	0.636409 	0.0156092 	0
2 	0.784018 	1.66533e-16 	0.754291 	0.0147751 	0
2 	0.838235 	1.66533e-16 	0.877421 	0.0160012 	0
2 	0.895107 	1.66533e-16 	0.997754 	0.0191788 	0
2 	0.954763 	1.66533e-16 	1.10563 	0.023655 	0
2 	1.01734 	1.66533e-16 	1.19287 	0.0284895 	0
2 	1.08298 	1.66533e-16 	1.25549 	0.0327982 	0
2 	1.15184 	1.66533e-16 	1.29447 	0.0360552 	0
2 	1.22406 	1.66533e-16 	1.31436 	0.0381535 	0
2 	1.29983 	1.38778e-16 	1.32096 	0.0392805 	0
2 	1.3793 	1.11022e-16 	1.31956 	0.0397273 	0
2 	1.46266 	1.11022e-16 	1.314 	0.0397548 	0
2 	1.55011 	1.11022e-16 	1.30661 	0.0395348 	0
2 	1.64184 	1.11022e-16 	1.29857 	0.0391443 	0
2 	1.73806 	1.11022e-16 	1.29036 	0.0385985 	0
2 	1.83899 	1.11022e-16 	1.28215 	0.0378825 	0
2 	1.94486 	8.32667e-17 	1.27397 	0.0369715 	0
2 	2.05592 	5.55112e-17 	1.26586 	0.0358413 	0
2 	2.17241 	5.55112e-17 	1.25786 	0.0344723 	0
2 	2.29461 	5.55112e-17 	1.25 	0.0328503 	0
2 	2.42279 	8.32667e-17 	1.24236 	0.0309659 	0
2 	2.55725 	1.11022e-16 	1.235 	0.0288136 	0
2 	2.69829 	8.32667e-17 	1.22799 	0.0263915 	0
2 	2.84624 	5.55112e-17 	1.22143 	0.0236999 	0
2 	3.00143 	5.55112e-17 	1.21541 	0.0207424 	0
2 	3.16423 	2.77556e-17 	1.21003 	0.0175212 	0
2 	3.33499 	0 	1.20543 	0.0140458 	0
2 	3.51411 	0 	1.20174 	0.0103197 	0
2 	3.702 	0 	1.1991 	0.00634608 	0
2 	3.8991 	-1.38778e-17 	1.19769 	0.0021643 	0
