/*--------------------------------*- C++ -*----------------------------------*\
  =========                 |
  \\      /  F ield         | OpenFOAM: The Open Source CFD Toolbox
   \\    /   O peration     | Website:  https://openfoam.org
    \\  /    A nd           | Version:  7
     \\/     M anipulation  |
\*---------------------------------------------------------------------------*/
FoamFile
{
    version     2.0;
    format      ascii;
    class       volScalarField;
    location    "150";
    object      p;
}
// * * * * * * * * * * * * * * * * * * * * * * * * * * * * * * * * * * * * * //

dimensions      [0 2 -2 0 0 0 0];

internalField   nonuniform List<scalar> 
8500
(
-0.418717
-0.421536
-0.422639
-0.424005
-0.426045
-0.428831
-0.432315
-0.436379
-0.440707
-0.445273
-0.409254
-0.412311
-0.413296
-0.414268
-0.415582
-0.417257
-0.419197
-0.421231
-0.422919
-0.424189
-0.400142
-0.403364
-0.404221
-0.404804
-0.405406
-0.405989
-0.406405
-0.406433
-0.40551
-0.403456
-0.391475
-0.394802
-0.395525
-0.395736
-0.395657
-0.395192
-0.39414
-0.392238
-0.388822
-0.383518
-0.383329
-0.38671
-0.387303
-0.387166
-0.38645
-0.385001
-0.382562
-0.378845
-0.373132
-0.364728
-0.375763
-0.379161
-0.379631
-0.379176
-0.377872
-0.375511
-0.371786
-0.366388
-0.358624
-0.347324
-0.368823
-0.372214
-0.372568
-0.371825
-0.369986
-0.366791
-0.361885
-0.354949
-0.345404
-0.331424
-0.362547
-0.365915
-0.366163
-0.365158
-0.362836
-0.358884
-0.352903
-0.344565
-0.333515
-0.317034
-0.356965
-0.360303
-0.360451
-0.35921
-0.35645
-0.351818
-0.344868
-0.335249
-0.322946
-0.304054
-0.352108
-0.355411
-0.355463
-0.354006
-0.350853
-0.345615
-0.337805
-0.327013
-0.313682
-0.292323
-0.348005
-0.351265
-0.351224
-0.349568
-0.346065
-0.3403
-0.33175
-0.319908
-0.30578
-0.281731
-0.344687
-0.34789
-0.347752
-0.345913
-0.342106
-0.335899
-0.326747
-0.314027
-0.299415
-0.272986
-0.342183
-0.345302
-0.345063
-0.343056
-0.338992
-0.332433
-0.322832
-0.309444
-0.294688
-0.265468
-0.340519
-0.343514
-0.343163
-0.341004
-0.336733
-0.329913
-0.320003
-0.306126
-0.291183
-0.259769
-0.339712
-0.342524
-0.342048
-0.33975
-0.335321
-0.328327
-0.318239
-0.304173
-0.289105
-0.255709
-0.339765
-0.342321
-0.341697
-0.339266
-0.334721
-0.327631
-0.317459
-0.3035
-0.288201
-0.253349
-0.340663
-0.342876
-0.342074
-0.339505
-0.334868
-0.327737
-0.317531
-0.303855
-0.288106
-0.252629
-0.342375
-0.344148
-0.343124
-0.340395
-0.335667
-0.328512
-0.318303
-0.305009
-0.28825
-0.253076
-0.344854
-0.346085
-0.344781
-0.341851
-0.337007
-0.329814
-0.319583
-0.30674
-0.288336
-0.254709
-0.348043
-0.34863
-0.346975
-0.343781
-0.338768
-0.331495
-0.321197
-0.308738
-0.288697
-0.261125
-0.351884
-0.351727
-0.349641
-0.346105
-0.340848
-0.333428
-0.323005
-0.310582
-0.289821
-0.276094
-0.356325
-0.35533
-0.352732
-0.348764
-0.34318
-0.335522
-0.3249
-0.312148
-0.291886
-0.278291
-0.361333
-0.359413
-0.356221
-0.351733
-0.345732
-0.33773
-0.3268
-0.313482
-0.293656
-0.278319
-0.36689
-0.363977
-0.36011
-0.355022
-0.348516
-0.340049
-0.328659
-0.314623
-0.294837
-0.277795
-0.373007
-0.369034
-0.36443
-0.358672
-0.351568
-0.3425
-0.330467
-0.31553
-0.295418
-0.276634
-0.379709
-0.374618
-0.369229
-0.362741
-0.354937
-0.34511
-0.332219
-0.316161
-0.295361
-0.275062
-0.387035
-0.38077
-0.374567
-0.367293
-0.358669
-0.347895
-0.333889
-0.316466
-0.294702
-0.273056
-0.395023
-0.387536
-0.380498
-0.372376
-0.362788
-0.350846
-0.335426
-0.316399
-0.293479
-0.27064
-0.4037
-0.39495
-0.387063
-0.378014
-0.367289
-0.353908
-0.336753
-0.315921
-0.29173
-0.267807
-0.413077
-0.403029
-0.394277
-0.384199
-0.372129
-0.356985
-0.337785
-0.314997
-0.289485
-0.264555
-0.423134
-0.411765
-0.402121
-0.390882
-0.377212
-0.359949
-0.33843
-0.313594
-0.286754
-0.260871
-0.433816
-0.421118
-0.410537
-0.397974
-0.382392
-0.362647
-0.338599
-0.311679
-0.283536
-0.256737
-0.445033
-0.431011
-0.419428
-0.405337
-0.387483
-0.364921
-0.338202
-0.309211
-0.27981
-0.252127
-0.45665
-0.441326
-0.428651
-0.412785
-0.392268
-0.36661
-0.337152
-0.306142
-0.275546
-0.247008
-0.468495
-0.451902
-0.438023
-0.420082
-0.396516
-0.367561
-0.33536
-0.30242
-0.270701
-0.241344
-0.480349
-0.462538
-0.447312
-0.426957
-0.399991
-0.367622
-0.332738
-0.297983
-0.265225
-0.235093
-0.491956
-0.472988
-0.456248
-0.433113
-0.402466
-0.366652
-0.329196
-0.292766
-0.259061
-0.228212
-0.503026
-0.48297
-0.464518
-0.438243
-0.403723
-0.364516
-0.324646
-0.286698
-0.252152
-0.22066
-0.513234
-0.492171
-0.471786
-0.442045
-0.403557
-0.361087
-0.318999
-0.27971
-0.244438
-0.212398
-0.522238
-0.500253
-0.477698
-0.44423
-0.401784
-0.356249
-0.312172
-0.271733
-0.235864
-0.20339
-0.529679
-0.506861
-0.481899
-0.44453
-0.398237
-0.349895
-0.304084
-0.262702
-0.226379
-0.193608
-0.535194
-0.511633
-0.484048
-0.442705
-0.39277
-0.341928
-0.294663
-0.252556
-0.215942
-0.183036
-0.53843
-0.514215
-0.483831
-0.438547
-0.385258
-0.332265
-0.28384
-0.24124
-0.204521
-0.171665
-0.53905
-0.514264
-0.480969
-0.431881
-0.375601
-0.320836
-0.271559
-0.228701
-0.192073
-0.159456
-0.536744
-0.511471
-0.475227
-0.422573
-0.363723
-0.307591
-0.257778
-0.214901
-0.178537
-0.146264
-0.531237
-0.505559
-0.466417
-0.410524
-0.349574
-0.292496
-0.242475
-0.199828
-0.163869
-0.131837
-0.522299
-0.496306
-0.454401
-0.395675
-0.333128
-0.275534
-0.225638
-0.183494
-0.148124
-0.11613
-0.509749
-0.483541
-0.439084
-0.378002
-0.314383
-0.256704
-0.207264
-0.165906
-0.131384
-0.0998973
-0.49346
-0.467153
-0.420425
-0.357517
-0.293365
-0.236025
-0.187384
-0.147112
-0.113466
-0.0831567
-0.473363
-0.447088
-0.398428
-0.334268
-0.270124
-0.213547
-0.166088
-0.127129
-0.0945193
-0.0657052
-0.449444
-0.423349
-0.373155
-0.308343
-0.24473
-0.189362
-0.143411
-0.105974
-0.0746552
-0.0475077
-0.421745
-0.396005
-0.344737
-0.279862
-0.217259
-0.163541
-0.119402
-0.0837294
-0.0539413
-0.0286181
-0.390364
-0.365185
-0.313368
-0.248912
-0.18782
-0.136167
-0.0941538
-0.0604822
-0.0324469
-0.00913396
-0.355459
-0.331091
-0.279165
-0.215515
-0.156638
-0.107378
-0.0677753
-0.036328
-0.0102538
0.0108346
-0.317252
-0.293992
-0.241959
-0.18014
-0.123825
-0.0773163
-0.0403906
-0.0113685
0.0125548
0.0312013
-0.275963
-0.25413
-0.20203
-0.142968
-0.0895912
-0.0461404
-0.012136
0.01429
0.0358931
0.051876
-0.231784
-0.211302
-0.160413
-0.104184
-0.0541293
-0.0140201
0.0168534
0.0405472
0.05962
0.0725267
-0.185048
-0.166187
-0.117237
-0.064061
-0.0176463
0.0188736
0.0464603
0.0673175
0.0834576
0.092351
-0.136384
-0.119012
-0.0726268
-0.0228728
0.0196316
0.0523662
0.0765752
0.0944947
0.107071
0.110784
-0.0859562
-0.0703016
-0.0268547
0.0191052
0.0574659
0.0862696
0.107037
0.121842
0.130355
0.129512
-0.0341803
-0.0204863
0.0197375
0.0615868
0.0956112
0.120375
0.137597
0.148967
0.153294
0.153288
0.0184988
0.0300336
0.0667852
0.104275
0.133818
0.154455
0.16799
0.175744
0.176775
0.177148
0.071636
0.0808517
0.113919
0.146865
0.171828
0.188281
0.198044
0.202233
0.200451
0.199721
0.124783
0.131555
0.160769
0.18905
0.209382
0.221622
0.227584
0.228311
0.223894
0.221322
0.177489
0.18173
0.20697
0.230522
0.246218
0.254257
0.256441
0.2538
0.246763
0.241943
0.229308
0.230962
0.252162
0.270978
0.282079
0.285969
0.284435
0.27852
0.268869
0.261612
0.279799
0.278847
0.295993
0.310122
0.316714
0.316543
0.311386
0.302295
0.29006
0.280289
0.328535
0.32499
0.338122
0.347664
0.349877
0.345775
0.337115
0.324965
0.310209
0.297914
0.3751
0.36901
0.378221
0.383329
0.381335
0.373463
0.361452
0.34638
0.329194
0.314415
0.419098
0.410545
0.415978
0.416852
0.410862
0.399418
0.384234
0.366401
0.346904
0.329715
0.460153
0.449251
0.451098
0.447984
0.438248
0.423457
0.405306
0.384896
0.36323
0.343739
0.497915
0.484809
0.483307
0.476492
0.463294
0.445414
0.424525
0.401742
0.37807
0.356418
0.53206
0.516923
0.51235
0.502162
0.485817
0.465133
0.441759
0.416827
0.39133
0.367684
0.562291
0.545325
0.537999
0.524798
0.505652
0.482472
0.456888
0.430047
0.402922
0.377478
0.588346
0.569776
0.560048
0.544228
0.522651
0.497305
0.469805
0.441311
0.412771
0.385747
0.609994
0.590066
0.578317
0.560299
0.536683
0.509521
0.480415
0.450537
0.420808
0.392447
0.627039
0.60602
0.592656
0.572883
0.54764
0.519028
0.48864
0.457656
0.426976
0.397539
0.639323
0.617492
0.602939
0.581874
0.555432
0.52575
0.494414
0.462614
0.431229
0.400996
0.646723
0.624372
0.609073
0.587192
0.55999
0.529627
0.497688
0.465368
0.433532
0.402795
0.649154
0.626584
0.610992
0.588783
0.561267
0.530621
0.498428
0.465888
0.433859
0.402914
0.646573
0.624087
0.608662
0.586615
0.559239
0.528709
0.496616
0.464159
0.432197
0.401348
0.638973
0.616875
0.602076
0.580686
0.553901
0.523889
0.49225
0.46018
0.428546
0.398093
0.626386
0.604978
0.59126
0.571016
0.545272
0.516177
0.485344
0.453962
0.422918
0.393162
0.608884
0.588459
0.576269
0.557652
0.533392
0.505607
0.475926
0.445532
0.415334
0.386567
0.586578
0.567418
0.557189
0.540667
0.518323
0.492233
0.464044
0.434929
0.405826
0.378324
0.559615
0.541987
0.534132
0.520157
0.500149
0.476124
0.449756
0.422206
0.394439
0.368461
0.528179
0.512334
0.507243
0.496243
0.478971
0.45737
0.433139
0.407429
0.381228
0.357016
0.49249
0.478657
0.47669
0.46907
0.454915
0.436075
0.414283
0.390676
0.366258
0.344031
0.452802
0.441185
0.442672
0.438804
0.428122
0.412362
0.393292
0.372036
0.349605
0.329557
0.409401
0.400178
0.40541
0.405635
0.398753
0.386368
0.370283
0.35161
0.331354
0.313653
0.362603
0.355922
0.365149
0.36977
0.366986
0.358245
0.345384
0.329509
0.311596
0.296384
0.312752
0.308731
0.322159
0.331438
0.333014
0.328157
0.318738
0.305852
0.290433
0.277819
0.260219
0.25894
0.276728
0.290881
0.297047
0.296283
0.290495
0.280771
0.267969
0.258031
0.205395
0.20691
0.229164
0.248362
0.259305
0.262812
0.260818
0.254403
0.244315
0.23709
0.148693
0.153015
0.179792
0.204153
0.22002
0.22794
0.229877
0.226898
0.219588
0.215061
0.0905409
0.0976504
0.12895
0.158542
0.179437
0.191875
0.197849
0.198419
0.193913
0.19199
0.0313803
0.0412206
0.0769893
0.111824
0.137806
0.154828
0.164917
0.169147
0.167448
0.167895
-0.028338
-0.0158592
0.0242712
0.0643037
0.0953871
0.117017
0.131257
0.139268
0.140395
0.142712
-0.0881578
-0.0731691
-0.0288365
0.0162904
0.0524425
0.0786669
0.0970367
0.108965
0.113144
0.116459
-0.147621
-0.130288
-0.0819605
-0.0319047
0.009238
0.0400128
0.0624299
0.0783585
0.086203
0.088803
-0.206272
-0.1868
-0.134725
-0.0799719
-0.0339652
0.00129189
0.0276096
0.0473364
0.0599046
0.0613094
-0.263656
-0.24229
-0.186755
-0.127607
-0.076912
-0.0372613
-0.00713786
0.0160201
0.0331859
0.0398724
-0.319339
-0.296334
-0.237691
-0.174514
-0.119351
-0.0754301
-0.0415362
-0.0151265
0.00606238
0.0188173
-0.372998
-0.348458
-0.287222
-0.220409
-0.161035
-0.113022
-0.075417
-0.0458307
-0.0213295
-0.0039447
-0.424194
-0.398294
-0.335159
-0.265013
-0.201728
-0.149857
-0.108678
-0.0759956
-0.0486224
-0.0277284
-0.472481
-0.445171
-0.38151
-0.308033
-0.241214
-0.185763
-0.141207
-0.10555
-0.0755225
-0.0515804
-0.517581
-0.488994
-0.425568
-0.349187
-0.279298
-0.220562
-0.172866
-0.134398
-0.101884
-0.0751298
-0.559265
-0.529749
-0.466369
-0.388507
-0.315783
-0.254082
-0.203514
-0.162428
-0.127619
-0.0982894
-0.597293
-0.567172
-0.504083
-0.42551
-0.350428
-0.28617
-0.233017
-0.189535
-0.152638
-0.12097
-0.631452
-0.600998
-0.538759
-0.459791
-0.383157
-0.316692
-0.261256
-0.215618
-0.176853
-0.143052
-0.661592
-0.631026
-0.570208
-0.49141
-0.413743
-0.345512
-0.288129
-0.240585
-0.200185
-0.164427
-0.687618
-0.657124
-0.598232
-0.520275
-0.442082
-0.372569
-0.313547
-0.264351
-0.222578
-0.185014
-0.70949
-0.679225
-0.622705
-0.546257
-0.468105
-0.397783
-0.337493
-0.28684
-0.243967
-0.20478
-0.727225
-0.697325
-0.643566
-0.569266
-0.491744
-0.421067
-0.359916
-0.308079
-0.264219
-0.223792
-0.740898
-0.711477
-0.660805
-0.589252
-0.512955
-0.442379
-0.38073
-0.328025
-0.283172
-0.242313
-0.750638
-0.721794
-0.674461
-0.606204
-0.531715
-0.461707
-0.399914
-0.346647
-0.301104
-0.260146
-0.756632
-0.728446
-0.684622
-0.620143
-0.548027
-0.479059
-0.417483
-0.363951
-0.317936
-0.276652
-0.759116
-0.731655
-0.691424
-0.631123
-0.561916
-0.494458
-0.433459
-0.379934
-0.333606
-0.291906
-0.758375
-0.7317
-0.695049
-0.639233
-0.573432
-0.507941
-0.447871
-0.394617
-0.348166
-0.306172
-0.754727
-0.728902
-0.695726
-0.644599
-0.582645
-0.519563
-0.460771
-0.408051
-0.361694
-0.319615
-0.748524
-0.723611
-0.693727
-0.647383
-0.589651
-0.529393
-0.472221
-0.420301
-0.37425
-0.332296
-0.740133
-0.7162
-0.689366
-0.647782
-0.594564
-0.537514
-0.482297
-0.431438
-0.385884
-0.344247
-0.729935
-0.707048
-0.682985
-0.646024
-0.597518
-0.544019
-0.491078
-0.441534
-0.396654
-0.355499
-0.718308
-0.69653
-0.674949
-0.642364
-0.598664
-0.549007
-0.498649
-0.450668
-0.406629
-0.366101
-0.705618
-0.68501
-0.665626
-0.63708
-0.59817
-0.552587
-0.505095
-0.458923
-0.415888
-0.376114
-0.692212
-0.672828
-0.655378
-0.630469
-0.596217
-0.554867
-0.510503
-0.466384
-0.424515
-0.385611
-0.678407
-0.660296
-0.644541
-0.622834
-0.593001
-0.555963
-0.514958
-0.473134
-0.432597
-0.394674
-0.664488
-0.647687
-0.633419
-0.614479
-0.588726
-0.555993
-0.518541
-0.479254
-0.440223
-0.403391
-0.650698
-0.635235
-0.622274
-0.605695
-0.583608
-0.555076
-0.521327
-0.484816
-0.447478
-0.411854
-0.637242
-0.623134
-0.611323
-0.596741
-0.577865
-0.553337
-0.523388
-0.489887
-0.454446
-0.420159
-0.624287
-0.611531
-0.600735
-0.587838
-0.571713
-0.550906
-0.524787
-0.494521
-0.4612
-0.428408
-0.611962
-0.600539
-0.590644
-0.579161
-0.565356
-0.547921
-0.525589
-0.498765
-0.467807
-0.436703
-0.600369
-0.590233
-0.581143
-0.570841
-0.55898
-0.544526
-0.525859
-0.502654
-0.47432
-0.445154
-0.58959
-0.580665
-0.572298
-0.562973
-0.552737
-0.540875
-0.525674
-0.506217
-0.480777
-0.453864
-0.579685
-0.571869
-0.56415
-0.555633
-0.546751
-0.537121
-0.525123
-0.50948
-0.48719
-0.462961
-0.5707
-0.563867
-0.556728
-0.548885
-0.541126
-0.533416
-0.524319
-0.512471
-0.493573
-0.472515
-0.56267
-0.55667
-0.55005
-0.542783
-0.53596
-0.5299
-0.523394
-0.515234
-0.499885
-0.482736
-0.555605
-0.550279
-0.544127
-0.537376
-0.531349
-0.52671
-0.522495
-0.517814
-0.506158
-0.493452
-0.549493
-0.544678
-0.538954
-0.532697
-0.527386
-0.523977
-0.52177
-0.520284
-0.512351
-0.504907
-0.544284
-0.539827
-0.53451
-0.528757
-0.524139
-0.52182
-0.521364
-0.522741
-0.518452
-0.515745
-0.539892
-0.535654
-0.53074
-0.525535
-0.521636
-0.520327
-0.521441
-0.525118
-0.525599
-0.520301
-0.536189
-0.532061
-0.527558
-0.522961
-0.519847
-0.519526
-0.522118
-0.527456
-0.533383
-0.526964
-0.533015
-0.528919
-0.524847
-0.520929
-0.518683
-0.519378
-0.523402
-0.529934
-0.540685
-0.534729
-0.530182
-0.52608
-0.522464
-0.519291
-0.517995
-0.519762
-0.525171
-0.532694
-0.54716
-0.542032
-0.527494
-0.523387
-0.520251
-0.517874
-0.51759
-0.52048
-0.527202
-0.535725
-0.552762
-0.54882
-0.524751
-0.520677
-0.518042
-0.516489
-0.517245
-0.521276
-0.529211
-0.538834
-0.557403
-0.555382
-0.521768
-0.517796
-0.515675
-0.514943
-0.516723
-0.521862
-0.530881
-0.541676
-0.560955
-0.561623
-0.518379
-0.514598
-0.512993
-0.513051
-0.515791
-0.521949
-0.531902
-0.543856
-0.563278
-0.567093
-0.514445
-0.510956
-0.509857
-0.510643
-0.514238
-0.521273
-0.531985
-0.544954
-0.56422
-0.571238
-0.509857
-0.506761
-0.506144
-0.507571
-0.511883
-0.519615
-0.530891
-0.544656
-0.56362
-0.573575
-0.50454
-0.501929
-0.501757
-0.50372
-0.508586
-0.516809
-0.528442
-0.54273
-0.561322
-0.573755
-0.498455
-0.496406
-0.496631
-0.499011
-0.504255
-0.512752
-0.524519
-0.539038
-0.557203
-0.571549
-0.491601
-0.490167
-0.490732
-0.493403
-0.498847
-0.5074
-0.519072
-0.533517
-0.551181
-0.566812
-0.48401
-0.483223
-0.484064
-0.486901
-0.492367
-0.500763
-0.512107
-0.526179
-0.54321
-0.559455
-0.47575
-0.475616
-0.476664
-0.479548
-0.484872
-0.492909
-0.503689
-0.517102
-0.533268
-0.549489
-0.466916
-0.467418
-0.468605
-0.471427
-0.476457
-0.483945
-0.493938
-0.506391
-0.521266
-0.537089
-0.457626
-0.458724
-0.459992
-0.462652
-0.467255
-0.474027
-0.483019
-0.494218
-0.507535
-0.52223
-0.448017
-0.449655
-0.450946
-0.453361
-0.457427
-0.463339
-0.471144
-0.480828
-0.492283
-0.505159
-0.438233
-0.440342
-0.441608
-0.443713
-0.447155
-0.452093
-0.458556
-0.466508
-0.475806
-0.486301
-0.42842
-0.430924
-0.432123
-0.433873
-0.43663
-0.440515
-0.445523
-0.451581
-0.458476
-0.466158
-0.454192
-0.455721
-0.442564
-0.405498
-0.367506
-0.357283
-0.380698
-0.399968
-0.366837
-0.288086
-0.210577
-0.156848
-0.132766
-0.126574
-0.148305
-0.162268
-0.144358
-0.108161
-0.0934095
-0.0745559
-0.0715948
-0.0646816
-0.0706101
-0.0827597
-0.0810214
-0.0463405
-0.0420015
-0.0538104
-0.0464899
-0.00186315
-0.428926
-0.427293
-0.41479
-0.383968
-0.358213
-0.362368
-0.397612
-0.421901
-0.385776
-0.30131
-0.217613
-0.158475
-0.130401
-0.12072
-0.139707
-0.151707
-0.136224
-0.104535
-0.092726
-0.075023
-0.0731866
-0.0672443
-0.0729314
-0.0837447
-0.0816979
-0.0466912
-0.0419959
-0.0540576
-0.0464156
-0.0016841
-0.404338
-0.399366
-0.387468
-0.362483
-0.348367
-0.365974
-0.412222
-0.440979
-0.402506
-0.312947
-0.223757
-0.159784
-0.127931
-0.114968
-0.131133
-0.141093
-0.12781
-0.100766
-0.091931
-0.075501
-0.0748839
-0.0699325
-0.0752557
-0.0846811
-0.0823063
-0.0470337
-0.0419836
-0.0543286
-0.0463725
-0.0015098
-0.381007
-0.372609
-0.361252
-0.341591
-0.338138
-0.367825
-0.424091
-0.456903
-0.416884
-0.322994
-0.229046
-0.16083
-0.125428
-0.109419
-0.122702
-0.130579
-0.119185
-0.0968713
-0.0910196
-0.075988
-0.0766782
-0.0727317
-0.0775673
-0.0855635
-0.082841
-0.0473649
-0.0419643
-0.0546239
-0.0463626
-0.00134122
-0.359404
-0.347561
-0.336703
-0.321728
-0.32772
-0.367735
-0.432832
-0.469491
-0.428822
-0.331472
-0.233525
-0.161665
-0.122961
-0.104161
-0.114528
-0.120313
-0.110429
-0.0928735
-0.0899876
-0.0764803
-0.0785589
-0.0756258
-0.0798513
-0.0863872
-0.0832964
-0.0476812
-0.0419376
-0.0549435
-0.0463868
-0.00117934
-0.339832
-0.324595
-0.31423
-0.303203
-0.317082
-0.365758
-0.438253
-0.478727
-0.438288
-0.338418
-0.237245
-0.162336
-0.120586
-0.099256
-0.106716
-0.110432
-0.101633
-0.0887989
-0.0888323
-0.076972
-0.0805133
-0.0785968
-0.0820938
-0.087148
-0.0836679
-0.047979
-0.0419026
-0.0552873
-0.0464457
-0.00102513
-0.322431
-0.303892
-0.294065
-0.286467
-0.306104
-0.361889
-0.440356
-0.484765
-0.445289
-0.343888
-0.240265
-0.162884
-0.118355
-0.0947491
-0.0993598
-0.101057
-0.0929026
-0.0846779
-0.087552
-0.0774553
-0.0825266
-0.0816252
-0.0842817
-0.0878423
-0.0839511
-0.0482547
-0.0418586
-0.0556545
-0.0465389
-0.000879572
-0.307207
-0.28547
-0.276286
-0.271349
-0.295228
-0.356218
-0.439292
-0.487446
-0.44987
-0.347949
-0.242643
-0.163342
-0.11631
-0.0906639
-0.0925327
-0.09229
-0.0843543
-0.0805447
-0.086147
-0.0779202
-0.0845827
-0.08469
-0.0864029
-0.0884674
-0.0841427
-0.0485044
-0.0418048
-0.056044
-0.0466649
-0.00074369
-0.294086
-0.269324
-0.260972
-0.257768
-0.284558
-0.348943
-0.435342
-0.487068
-0.452121
-0.350677
-0.244438
-0.163739
-0.114484
-0.0870076
-0.086289
-0.0842113
-0.0761114
-0.0764382
-0.084619
-0.0783547
-0.0866638
-0.0877691
-0.088446
-0.0890208
-0.0842395
-0.0487245
-0.0417401
-0.0564542
-0.0468218
-0.000618516
-0.283079
-0.255882
-0.247379
-0.245853
-0.274173
-0.340344
-0.428877
-0.483914
-0.45217
-0.352152
-0.245708
-0.164095
-0.1129
-0.0837739
-0.0806588
-0.0768754
-0.0682947
-0.0724008
-0.0829715
-0.0787448
-0.0887514
-0.0908397
-0.0904002
-0.0895006
-0.0842394
-0.0489114
-0.0416637
-0.056883
-0.0470066
-0.000505116
-0.274233
-0.244313
-0.2358
-0.235485
-0.264199
-0.330743
-0.420323
-0.478315
-0.450174
-0.352454
-0.246507
-0.164427
-0.111576
-0.0809475
-0.0756485
-0.0703136
-0.0610126
-0.0684767
-0.0812096
-0.0790751
-0.0908263
-0.0938784
-0.0922558
-0.0899054
-0.0841408
-0.0490618
-0.0415747
-0.0573278
-0.0472155
-0.000404581
-0.266782
-0.23471
-0.226024
-0.226539
-0.254774
-0.32048
-0.410124
-0.47062
-0.446328
-0.351662
-0.246891
-0.164751
-0.110527
-0.0785103
-0.0712437
-0.0645345
-0.0543513
-0.0647129
-0.0793403
-0.0793289
-0.0928694
-0.096862
-0.094004
-0.0902342
-0.0839427
-0.0491726
-0.0414726
-0.0577857
-0.0474437
-0.000318029
-0.261018
-0.226976
-0.217819
-0.218929
-0.246025
-0.309886
-0.398712
-0.461189
-0.440839
-0.349868
-0.246922
-0.16509
-0.109768
-0.0764442
-0.0674128
-0.0595255
-0.0483975
-0.0611562
-0.0773721
-0.0794885
-0.0948617
-0.0997679
-0.0956367
-0.090486
-0.0836446
-0.0492407
-0.0413564
-0.0582535
-0.0476856
-0.000246606
-0.256965
-0.221039
-0.211045
-0.212576
-0.238055
-0.299254
-0.386481
-0.450358
-0.433897
-0.347177
-0.246653
-0.165449
-0.109291
-0.0747209
-0.0641052
-0.0552461
-0.0431266
-0.0578529
-0.0753143
-0.0795352
-0.0967852
-0.102574
-0.0971461
-0.0906603
-0.0832467
-0.0492621
-0.0412248
-0.0587269
-0.0479348
-0.000191483
-0.254622
-0.216865
-0.205625
-0.207405
-0.23093
-0.288819
-0.373761
-0.438428
-0.425675
-0.343659
-0.246064
-0.165764
-0.10903
-0.0732837
-0.0612507
-0.0516204
-0.0385457
-0.0548464
-0.0731768
-0.07945
-0.0986228
-0.105259
-0.098526
-0.0907567
-0.0827503
-0.0492321
-0.0410762
-0.0591988
-0.0481837
-0.000153852
-0.25386
-0.214461
-0.201524
-0.203342
-0.224684
-0.278756
-0.360797
-0.425673
-0.416359
-0.339349
-0.245085
-0.165947
-0.108914
-0.0720861
-0.0587917
-0.0485654
-0.0346459
-0.0521648
-0.0709687
-0.0792131
-0.100358
-0.107807
-0.0997741
-0.0907749
-0.0821578
-0.0491499
-0.0409108
-0.0596619
-0.0484235
-0.000134914
-0.254473
-0.213797
-0.198726
-0.200309
-0.219324
-0.269204
-0.347752
-0.412285
-0.406196
-0.334471
-0.243966
-0.166258
-0.109151
-0.0712473
-0.0567637
-0.0460825
-0.0314017
-0.0498169
-0.0686958
-0.0788044
-0.101976
-0.110199
-0.100879
-0.0907106
-0.0814688
-0.0490272
-0.0407313
-0.0601224
-0.0486448
-0.000135832
-0.255903
-0.214648
-0.197242
-0.198199
-0.21478
-0.260212
-0.33475
-0.398043
-0.395313
-0.329627
-0.243542
-0.167445
-0.11029
-0.07107
-0.0552709
-0.0442469
-0.0288595
-0.0478791
-0.066363
-0.078203
-0.103461
-0.112384
-0.101782
-0.0905545
-0.0806782
-0.0488786
-0.0405353
-0.0606075
-0.0488391
-0.000157904
-0.256978
-0.216696
-0.197228
-0.196991
-0.210896
-0.25143
-0.32141
-0.382545
-0.383201
-0.324506
-0.243452
-0.169042
-0.111875
-0.071247
-0.0540502
-0.0427154
-0.0269373
-0.0465807
-0.0640233
-0.0773776
-0.104813
-0.114292
-0.102432
-0.0903254
-0.0797964
-0.0486562
-0.0403007
-0.0610851
-0.0489988
-0.000203491
-0.260881
-0.22098
-0.198413
-0.197021
-0.208595
-0.244147
-0.308344
-0.368225
-0.369614
-0.315577
-0.238811
-0.166674
-0.110488
-0.0697488
-0.0520271
-0.0401588
-0.0247825
-0.0452265
-0.0615467
-0.0763458
-0.105961
-0.116348
-0.103226
-0.0901286
-0.0788886
-0.0481743
-0.0399965
-0.0612853
-0.049076
-0.000271623
-0.246609
-0.218191
-0.198079
-0.197328
-0.208245
-0.241564
-0.30362
-0.357883
-0.355948
-0.301369
-0.227343
-0.158564
-0.104648
-0.0654581
-0.0486284
-0.0355694
-0.0205348
-0.0392144
-0.0555441
-0.0739221
-0.108425
-0.121318
-0.105567
-0.0899978
-0.0779367
-0.0472565
-0.0395536
-0.0608191
-0.0489922
-0.000350891
-0.241263
-0.216983
-0.199227
-0.198689
-0.209298
-0.238916
-0.291844
-0.33684
-0.331686
-0.28023
-0.212351
-0.149004
-0.0988108
-0.0617661
-0.0452156
-0.0316053
-0.0189323
-0.0376563
-0.0525869
-0.072507
-0.109842
-0.124479
-0.106606
-0.088123
-0.0758717
-0.0460634
-0.0391707
-0.0604602
-0.0498293
-0.000366287
-0.235574
-0.215098
-0.199402
-0.199205
-0.209428
-0.235069
-0.278451
-0.313716
-0.306431
-0.259476
-0.198034
-0.139938
-0.0931236
-0.0580254
-0.0419111
-0.0279044
-0.0175127
-0.0361628
-0.0510763
-0.0718418
-0.110429
-0.126478
-0.106948
-0.0857754
-0.0734085
-0.044705
-0.0386726
-0.0600752
-0.0509236
-0.000269266
-0.229204
-0.212013
-0.198011
-0.197866
-0.207285
-0.228912
-0.263003
-0.289623
-0.281041
-0.238872
-0.183776
-0.130855
-0.0873862
-0.0542611
-0.0386632
-0.0243708
-0.0159385
-0.0342022
-0.0490866
-0.0708229
-0.110494
-0.128147
-0.106775
-0.0830834
-0.0704248
-0.0431118
-0.0380294
-0.0596026
-0.0519286
-0.000100934
-0.221139
-0.207285
-0.194818
-0.194407
-0.202678
-0.219483
-0.246096
-0.265441
-0.256182
-0.218887
-0.169898
-0.121923
-0.0816438
-0.0504588
-0.0354217
-0.0209089
-0.0141569
-0.0319135
-0.0462486
-0.0690363
-0.109999
-0.129209
-0.105883
-0.079934
-0.0668904
-0.041245
-0.0372056
-0.0589959
-0.0527906
0.000110864
-0.211107
-0.200838
-0.189909
-0.189072
-0.196081
-0.209302
-0.228748
-0.242097
-0.232585
-0.199882
-0.156521
-0.113168
-0.0759184
-0.0466134
-0.0321402
-0.0174506
-0.0120377
-0.0292349
-0.0426232
-0.0663993
-0.108585
-0.129216
-0.104104
-0.0762757
-0.0627765
-0.0390599
-0.0361595
-0.0581936
-0.0535022
0.000364351
-0.199684
-0.192882
-0.183548
-0.182272
-0.187968
-0.198062
-0.211684
-0.220234
-0.210664
-0.182046
-0.143743
-0.104645
-0.0702463
-0.0427217
-0.0287739
-0.013922
-0.00943657
-0.0260084
-0.03817
-0.0627318
-0.105842
-0.127845
-0.101303
-0.0720767
-0.0580682
-0.0365105
-0.0348416
-0.057116
-0.0540024
0.000666004
-0.187411
-0.183692
-0.176013
-0.174393
-0.178763
-0.186269
-0.19535
-0.20013
-0.190565
-0.165456
-0.131618
-0.0963835
-0.0646537
-0.038783
-0.0252825
-0.0102477
-0.00620952
-0.0220005
-0.0326633
-0.0576763
-0.101496
-0.124815
-0.0973567
-0.0673133
-0.0527657
-0.0335485
-0.0331929
-0.0556602
-0.0541786
0.00101778
-0.17468
-0.173571
-0.16755
-0.165753
-0.168889
-0.174276
-0.179929
-0.181796
-0.172262
-0.150106
-0.120167
-0.0884078
-0.0591647
-0.0348022
-0.0216371
-0.00635555
-0.00220045
-0.0168729
-0.0257359
-0.0508322
-0.0953855
-0.119871
-0.092172
-0.0619762
-0.0468892
-0.0301262
-0.0311446
-0.0536968
-0.0538872
0.00141453
-0.161831
-0.16281
-0.158369
-0.156568
-0.158645
-0.162327
-0.165433
-0.165105
-0.155639
-0.135946
-0.109393
-0.0807359
-0.0538002
-0.0307906
-0.0178259
-0.0021891
0.00274458
-0.0102085
-0.0169554
-0.0418876
-0.0874335
-0.112824
-0.0856936
-0.0560749
-0.0404828
-0.0262004
-0.0286196
-0.0510722
-0.0529624
0.00184476
-0.149093
-0.151658
-0.148655
-0.147
-0.148226
-0.150565
-0.151808
-0.14988
-0.140541
-0.122904
-0.0992838
-0.073383
-0.0485794
-0.0267688
-0.0138589
0.00227173
0.00873162
-0.00153033
-0.00593056
-0.0307066
-0.0776955
-0.103572
-0.0779161
-0.0496397
-0.0336157
-0.0217382
-0.025534
-0.0476134
-0.0512184
0.00229071
-0.136611
-0.14033
-0.138583
-0.137188
-0.137779
-0.139074
-0.138987
-0.135945
-0.126808
-0.110902
-0.0898224
-0.0663634
-0.0435182
-0.0227702
-0.00977056
0.00698649
0.0157363
0.00955716
0.00751391
-0.0174644
-0.0663962
-0.0920812
-0.0689141
-0.0427251
-0.0263806
-0.0167257
-0.0218021
-0.0431391
-0.0484542
0.00272793
-0.124496
-0.129008
-0.12832
-0.127256
-0.127413
-0.12792
-0.12691
-0.123145
-0.11429
-0.0998636
-0.0809852
-0.0596918
-0.0386287
-0.0188433
-0.0056238
0.0118383
0.0234832
0.0229078
0.0230036
-0.00286472
-0.0538985
-0.0788572
-0.0588609
-0.0354123
-0.0188892
-0.0111771
-0.0173453
-0.037476
-0.0444659
0.00312566
-0.112836
-0.117848
-0.118023
-0.11732
-0.117218
-0.117155
-0.115533
-0.111348
-0.102853
-0.0897153
-0.0727462
-0.0533824
-0.0339233
-0.0150453
-0.00151515
0.0166329
0.031378
0.0371375
0.0391125
0.011757
-0.0405551
-0.0642039
-0.0480142
-0.0278097
-0.0112703
-0.00513891
-0.0121046
-0.0304885
-0.0390724
0.00345047
-0.101699
-0.106977
-0.107836
-0.107487
-0.107272
-0.106824
-0.104826
-0.100454
-0.0923827
-0.0803894
-0.0650786
-0.0474464
-0.0294221
-0.0114332
0.00242972
0.0211242
0.0386088
0.0498663
0.0534296
0.0248605
-0.0265985
-0.0486575
-0.0367236
-0.0200499
-0.00366949
0.00130537
-0.00605684
-0.0221153
-0.0321554
0.00367416
-0.0911384
-0.0965014
-0.0978887
-0.0978547
-0.0976459
-0.0969633
-0.0947679
-0.090379
-0.0827802
-0.0718233
-0.0579585
-0.0418905
-0.025157
-0.00805875
0.0060724
0.0250428
0.0444118
0.0590767
0.0638009
0.0354908
-0.0123571
-0.0329918
-0.0254225
-0.0122836
0.0037582
0.00802667
0.000759468
-0.0124189
-0.0237112
0.00378625
-0.0811938
-0.0865071
-0.088299
-0.0886577
-0.0884145
-0.0876046
-0.0853431
-0.0810618
-0.073965
-0.0639601
-0.0513663
-0.0367178
-0.0211673
-0.00496842
0.00928118
0.0281157
0.0482599
0.0637723
0.0693787
0.0434619
0.00136076
-0.0181629
-0.014575
-0.00467309
0.0108592
0.0148453
0.00821414
-0.00163184
-0.0139101
0.00380373
-0.0718925
-0.077053
-0.0791225
-0.0797326
-0.0796056
-0.0787699
-0.0765403
-0.0724529
-0.0658724
-0.0567493
-0.0452867
-0.03193
-0.0174892
-0.00220471
0.011949
0.0301582
0.0497213
0.0646923
0.0707641
0.0488741
0.0134474
-0.00499406
-0.004573
0.00261754
0.0174865
0.0215321
0.0160455
0.00998448
-0.00314389
0.00376447
-0.0632516
-0.0681878
-0.0704386
-0.0712689
-0.0712727
-0.0704794
-0.0683517
-0.0645148
-0.0584522
-0.0501481
-0.039707
-0.0275283
-0.0141474
0.000199262
0.01402
0.0311903
0.0493781
0.0631649
0.0691652
0.0518655
0.0231262
0.00604437
0.00434411
0.00943621
0.0234958
0.0278211
0.0238476
0.0214974
0.00797385
0.00370795
-0.0552808
-0.0599474
-0.062305
-0.0633187
-0.0634581
-0.0627514
-0.0607721
-0.057219
-0.0516657
-0.044122
-0.0346143
-0.0235131
-0.0111537
0.0022298
0.0154961
0.0313569
0.0477996
0.0602709
0.065791
0.0528232
0.0302499
0.0149201
0.0120803
0.0156611
0.0287556
0.0334317
0.0311224
0.0319029
0.0185865
0.00375718
-0.0479841
-0.0523563
-0.0547632
-0.055924
-0.056197
-0.0556025
-0.0537993
-0.0505449
-0.0454841
-0.038644
-0.0299955
-0.0198827
-0.00850825
0.00389486
0.016431
0.0308701
0.0454864
0.0567102
0.0616159
0.0523395
0.0351518
0.0218707
0.018633
0.0212099
0.03319
0.0381239
0.0373547
0.040288
0.0277414
0.00412424
-0.0413613
-0.0454308
-0.0478443
-0.0491198
-0.0495185
-0.0490479
-0.0474334
-0.0444786
-0.0398865
-0.0336939
-0.0258374
-0.0166318
-0.00620106
0.00522202
0.0169162
0.0299489
0.0428267
0.0529169
0.0572922
0.0509774
0.0383015
0.0272065
0.0240571
0.0260236
0.0367868
0.0417712
0.0421426
0.0460123
0.0346612
0.00502888
-0.0354109
-0.0391824
-0.041572
-0.042934
-0.043447
-0.0431023
-0.0416775
-0.0390125
-0.0348591
-0.0292573
-0.0221277
-0.0137524
-0.00421438
0.00625391
0.0170575
0.0287745
0.0400988
0.0491714
0.0531939
0.0491744
0.040141
0.0312263
0.0284425
0.0300753
0.0395544
0.0443662
0.0452946
0.0488323
0.0390103
0.00656015
-0.0301316
-0.0336204
-0.0359658
-0.0373908
-0.0380044
-0.0377806
-0.0365381
-0.0341446
-0.0303942
-0.0253253
-0.0188559
-0.0112341
-0.00252525
0.0070396
0.0169597
0.027489
0.0374817
0.0456618
0.0495051
0.0472367
0.0410488
0.0341926
0.0319032
0.0333822
0.041548