/*--------------------------------*- C++ -*----------------------------------*\
  =========                 |
  \\      /  F ield         | OpenFOAM: The Open Source CFD Toolbox
   \\    /   O peration     | Website:  https://openfoam.org
    \\  /    A nd           | Version:  7
     \\/     M anipulation  |
\*---------------------------------------------------------------------------*/
FoamFile
{
    version     2.0;
    format      ascii;
    class       surfaceScalarField;
    location    "150";
    object      phi;
}
// * * * * * * * * * * * * * * * * * * * * * * * * * * * * * * * * * * * * * //

dimensions      [0 3 -1 0 0 0 0];

internalField   nonuniform List<scalar> 
16735
(
-0.000118318
-0.00208519
0.00220351
-0.000429461
-0.00459499
0.00490613
-0.000908381
-0.00594895
0.00642787
-0.00152887
-0.00640831
0.0070288
-0.00226902
-0.00627389
0.00701404
-0.00311249
-0.00578747
0.00663094
-0.00404712
-0.00505957
0.0059942
-0.00506526
-0.00405288
0.00507102
-0.00616478
-0.00260805
0.00370757
-0.000424155
0.00161614
-0.00735676
-0.000133044
-0.00195215
-0.000470098
-0.00425794
-0.000975728
-0.00544332
-0.00161906
-0.00576498
-0.00237787
-0.00551508
-0.00323794
-0.0049274
-0.00418987
-0.00410764
-0.00522852
-0.00301424
-0.00635385
-0.00148272
0.000788702
-0.0075667
-0.000143971
-0.00180818
-0.000498581
-0.00390333
-0.00101887
-0.00492303
-0.00166898
-0.00511488
-0.00242501
-0.00475905
-0.0032726
-0.00407982
-0.00420184
-0.0031784
-0.00520571
-0.00201036
-0.00628015
-0.000408283
0.0019226
-0.00741405
-0.000151457
-0.00165672
-0.000516256
-0.00353853
-0.00104073
-0.00439855
-0.00168363
-0.00447198
-0.0024179
-0.00402477
-0.00322672
-0.003271
-0.00409657
-0.00230855
-0.00501425
-0.00109268
-0.00596732
0.000544784
0.0028821
-0.00692682
-0.000156077
-0.00150064
-0.000525061
-0.00316955
-0.00104532
-0.00387829
-0.00166977
-0.00384753
-0.00236684
-0.00332771
-0.00311511
-0.00252272
-0.00389459
-0.00152908
-0.004682
-0.000305268
-0.00545303
0.00131581
0.00358477
-0.0061557
-0.00015855
-0.00134209
-0.000527302
-0.00280079
-0.00103731
-0.00336828
-0.00163533
-0.00324952
-0.00228408
-0.00267896
-0.00295581
-0.00185099
-0.0036218
-0.000863096
-0.00424554
0.000318472
-0.00478735
0.00185762
0.00396636
-0.00516894
-0.000159639
-0.00118245
-0.000525372
-0.00243506
-0.00102152
-0.00287213
-0.00158848
-0.00268256
-0.00218248
-0.00208495
-0.00276827
-0.00126519
-0.00330689
-0.000324484
-0.00374624
0.000757825
-0.00402845
0.00213983
0.00398371
-0.00404579
-0.000160053
-0.0010224
-0.000521443
-0.00207367
-0.00100228
-0.00239129
-0.00153667
-0.00214817
-0.002074
-0.00154762
-0.00257093
-0.000768257
-0.00297774
8.23204e-05
-0.00322541
0.0010055
-0.0032355
0.00214991
0.0036159
-0.00286769
-0.000160339
-0.000862061
-0.000517161
-0.00171685
-0.000982878
-0.00192557
-0.00148556
-0.0016455
-0.00196781
-0.00106537
-0.00237832
-0.000357745
-0.0026569
0.000360894
-0.0027175
0.0010661
-0.00245893
0.00189134
0.00286462
-0.00170765
-0.000160795
-0.000701266
-0.00051337
-0.00136427
-0.000964936
-0.00147401
-0.00143795
-0.00117248
-0.0018686
-0.000634722
-0.00219799
-2.83526e-05
-0.00235636
0.000519268
-0.0022414
0.000951136
-0.00172635
0.0013763
0.00176246
-0.000624198
-0.000161406
-0.00053986
-0.000509931
-0.00101575
-0.000948047
-0.00103589
-0.00139304
-0.000727491
-0.00177499
-0.00025277
-0.0020278
0.000224457
-0.00207282
0.000564287
-0.00179226
0.000670577
-0.00102653
0.000610574
0.000279326
0.000456602
-0.000161824
-0.000378037
-0.000505645
-0.000671927
-0.000929592
-0.000611943
-0.001346
-0.000311086
-0.0016788
8.00331e-05
-0.00185444
0.000400099
-0.00178533
0.000495171
-0.00133756
0.000222814
-0.000281563
-0.000445426
-0.0015981
0.00159586
-0.000161399
-0.000216638
-0.000498355
-0.000334971
-0.000904893
-0.000205405
-0.00128818
7.22007e-05
-0.0015652
0.000357055
-0.00165346
0.000488352
-0.00145461
0.000296328
-0.000823943
-0.000407855
0.000497504
-0.00176687
-0.00393425
0.00283365
-0.000159273
-5.73642e-05
-0.000485216
-9.02841e-06
-0.000867764
0.000177144
-0.00120807
0.000412503
-0.00141416
0.000563144
-0.00139114
0.000465335
-0.00102702
-6.7787e-05
-0.000180865
-0.00125401
0.00149955
-0.00344729
-0.0067622
0.00432751
-0.000154519
9.71546e-05
-0.000463127
0.00029958
-0.000811399
0.000525415
-0.00109292
0.000694028
-0.00120363
0.000673854
-0.0010308
0.000292505
-0.000438302
-0.000660288
0.00074672
-0.00243904
0.00287034
-0.00557091
-0.0101056
0.00621378
-0.000146318
0.000243473
-0.000429253
0.000582515
-0.000729467
0.000825629
-0.000930914
0.000895475
-0.000913638
0.000656578
-0.000541744
-7.93876e-05
0.000350029
-0.00155206
0.00196275
-0.00405176
0.00467797
-0.00828613
-0.0139736
0.00854594
-0.000134123
0.000377596
-0.000381532
0.000829924
-0.000617163
0.00106126
-0.000712977
0.000991289
-0.000529217
0.000472818
9.76305e-05
-0.000706235
0.00136655
-0.00282098
0.00350354
-0.00618875
0.00691294
-0.0116955
-0.0183235
0.0112628
-0.000117778
0.000495374
-0.00031905
0.0010312
-0.000471988
0.0012142
-0.000434229
0.00095353
-4.31313e-05
8.172e-05
0.000896022
-0.00164539
0.00261619
-0.00454114
0.00536044
-0.00893301
0.00948251
-0.0158176
-0.0230478
0.0142069
-9.75609e-05
0.000592935
-0.000242172
0.00117581
-0.000294043
0.00126607
-9.44161e-05
0.000753902
0.000544391
-0.000557087
0.00184818
-0.00294917
0.00407762
-0.00677059
0.00748986
-0.0123452
0.0122453
-0.020573
-0.0279775
0.0171749
-7.41194e-05
0.000667054
-0.000152397
0.00125408
-8.57543e-05
0.00119943
0.000302527
0.000365621
0.00122574
-0.0014803
0.0029374
-0.00466083
0.00571049
-0.00954367
0.00980103
-0.0164358
0.0150658
-0.0258378
-0.0330029
0.0200912
-4.83272e-05
0.000715381
-5.18773e-05
0.00125763
0.000148933
0.000998616
0.000750004
-0.000235449
0.00198893
-0.00271923
0.00413921
-0.00681111
0.0074611
-0.0128656
0.0121396
-0.0211143
0.0177333
-0.0314315
-0.0407916
0.025522
-2.1119e-05
0.0007365
5.67333e-05
0.00117978
0.000405632
0.000649717
0.00124055
-0.00107037
0.00282017
-0.00429885
0.00542467
-0.00941561
0.00927013
-0.016711
0.0143924
-0.0262366
0.0202828
-0.0373219
-0.0479459
0.0274371
7.0976e-06
0.000729403
0.000171776
0.0010151
0.00068066
0.000140834
0.00176738
-0.00215708
0.00370559
-0.00623706
0.00676183
-0.0124718
0.0110689
-0.0210181
0.0164668
-0.0316345
0.0223979
-0.043253
-0.0543367
0.0287887
3.55239e-05
0.000693879
0.000292178
0.00075845
0.00097167
-0.000538658
0.00232511
-0.00351052
0.0046313
-0.00854325
0.00811495
-0.0159555
0.0127823
-0.0256854
0.0182785
-0.0371307
0.0239805
-0.048955
-0.059989
0.0296328
6.4583e-05
0.000629296
0.000417822
0.00040521
0.00127774
-0.00139858
0.00290936
-0.00514214
0.00558161
-0.0112155
0.00944249
-0.0198164
0.0143369
-0.0305798
0.0197461
-0.0425399
0.0250453
-0.0542543
-0.0649002
0.0299565
9.46358e-05
0.00053466
0.000549504
-4.9658e-05
0.00159891
-0.00244798
0.00351545
-0.00705868
0.00653677
-0.0142368
0.0106969
-0.0239765
0.0156671
-0.03555
0.0208266
-0.0476994
0.0256141
-0.0590418
-0.0691033
0.0298172
0.000126353
0.000408307
0.000688434
-0.000611739
0.00193516
-0.00369471
0.00413646
-0.00925998
0.0074713
-0.0175717
0.0118285
-0.0283337
0.0167237
-0.0404453
0.0215099
-0.0524856
0.0257394
-0.0632712
-0.072666
0.0293021
0.000160453
0.000247854
0.000835671
-0.00128696
0.00228529
-0.00514433
0.00476169
-0.0117364
0.00835437
-0.0211643
0.0127915
-0.0327708
0.0174794
-0.0451331
0.0218144
-0.0568206
0.0254863
-0.0669431
-0.0756663
0.0284866
0.000197513
5.0342e-05
0.000991599
-0.00208104
0.00264596
-0.0067987
0.00537588
-0.0144663
0.00915263
-0.0249411
0.0135509
-0.0371691
0.017929
-0.0495112
0.0217771
-0.0606688
0.0249225
-0.0700885
-0.078186
0.0274422
0.000237831
-0.000187489
0.00115553
-0.00299874
0.00301113
-0.0086543
0.00595985
-0.017415
0.00983458
-0.0288158
0.0140862
-0.0414207
0.018086
-0.053511
0.0214449
-0.0640277
0.0241123
-0.0727559
-0.0803006
0.0262269
0.000281361
-0.00046885
0.00132555
-0.00404294
0.00337214
-0.0107009
0.00649242
-0.0205353
0.0103749
-0.0326983
0.0143921
-0.0454379
0.0179771
-0.057096
0.0208675
-0.0669181
0.0231118
-0.0750002
-0.0820757
0.024887
0.000327704
-0.000796554
0.00149855
-0.00521378
0.00371824
-0.0129206
0.00695299
-0.0237701
0.0107573
-0.0365026
0.0144762
-0.0491568
0.0176357
-0.0602555
0.0200924
-0.0693748
0.0219683
-0.0768761
-0.0835655
0.0234581
0.000376147
-0.0011727
0.00167043
-0.00650806
0.00403765
-0.0152878
0.00732408
-0.0270565
0.0109755
-0.040154
0.0143556
-0.0525369
0.017098
-0.0629979
0.0191622
-0.0714391
0.02072
-0.0784338
-0.0848127
0.0219672
0.000425731
-0.00159843
0.00183642
-0.00791875
0.00431868
-0.0177701
0.00759317
-0.030331
0.0110318
-0.0435927
0.014053
-0.0555581
0.0163993
-0.0653442
0.0181137
-0.0731535
0.0193967
-0.0797168
-0.08585
0.0204339
0.000475316
-0.00207375
0.00199141
-0.00943485
0.00455089
-0.0203295
0.00775355
-0.0335336
0.0109356
-0.0467747
0.0135936
-0.0582161
0.0155721
-0.0673227
0.0169773
-0.0745587
0.0180215
-0.080761
-0.0867014
0.0188729
0.000523645
-0.00259739
0.00213031
-0.0110415
0.00472603
-0.0229253
0.00780406
-0.0366117
0.0107009
-0.0496715
0.0130032
-0.0605185
0.014645
-0.0689645
0.0157775
-0.0756912
0.0166118
-0.0815952
-0.0873842
0.0172945
0.000569411
-0.0031668
0.00224839
-0.0127205
0.00483854
-0.0255154
0.00774831
-0.0395214
0.0103441
-0.0522673
0.012306
-0.0624803
0.0136427
-0.0703012
0.0145341
-0.0765825
0.0151807
-0.0822418
-0.0879104
0.0157069
0.000611315
-0.00377812
0.0023416
-0.0144508
0.00488581
-0.0280596
0.00759347
-0.0422291
0.00988295
-0.0545568
0.011524
-0.0641214
0.0125855
-0.0713627
0.0132621
-0.0772591
0.013738
-0.0827177
-0.0882882
0.0141158
0.000648124
-0.00442624
0.0024068
-0.0162095
0.00486796
-0.0305208
0.00734907
-0.0447102
0.00933468
-0.0565424
0.0106769
-0.0654636
0.0114901
-0.072176
0.0119734
-0.0777424
0.0122911
-0.0830354
-0.0885231
0.012526
0.000678722
-0.00510496
0.00244188
-0.0179726
0.00478742
-0.0328663
0.00702595
-0.0469487
0.00871567
-0.0582321
0.00978138
-0.0665293
0.0103702
-0.0727648
0.0106771
-0.0780493
0.0108456
-0.0832039
-0.0886191
0.0109415
0.000702155
-0.00580712
0.00244586
-0.0197163
0.00464846
-0.0350689
0.00663541
-0.0489357
0.00804087
-0.0596376
0.00885167
-0.0673401
0.0092364
-0.0731495
0.0093802
-0.0781931
0.00940577
-0.0832295
-0.0885785
0.00936523
0.00071767
-0.00652479
0.00241877
-0.0214174
0.00445652
-0.0371067
0.00618861
-0.0506678
0.00732357
-0.0607725
0.00789956
-0.0679161
0.00809725
-0.0733472
0.00808806
-0.0781839
0.00797512
-0.0831165
-0.0884027
0.00779924
0.00072473
-0.00724952
0.00236159
-0.0230543
0.0042178
-0.0389629
0.00569613
-0.0521461
0.00657534
-0.0616517
0.00693475
-0.0682755
0.0069594
-0.0733718
0.0068048
-0.0780293
0.0065564
-0.0828681
-0.0880917
0.00624546
0.000723025
-0.00797254
0.00227605
-0.0246073
0.00393877
-0.0406256
0.00516771
-0.053375
0.00580614
-0.0622902
0.00596516
-0.0684345
0.00582812
-0.0732348
0.00553356
-0.0777347
0.00515176
-0.0824863
-0.0876454
0.00470546
0.000712463
-0.00868501
0.00216445
-0.0260593
0.00362589
-0.042087
0.00461215
-0.0543613
0.00502442
-0.0627024
0.00499728
-0.0684074
0.00470776
-0.0729453
0.00427704
-0.077304
0.00376245
-0.0819717
-0.0870634
0.00318043
0.000693161
-0.00937817
0.00202944
-0.0273956
0.00328536
-0.0433429
0.00403722
-0.0551132
0.00423725
-0.0629025
0.00403636
-0.0682065
0.00360214
-0.0725111
0.00303868
-0.0767406
0.00238877
-0.0813218
-0.0863432
0.00166853
0.000665441
-0.0100436
0.00187397
-0.0286041
0.00292298
-0.044392
0.00344968
-0.0556399
0.00345048
-0.0629033
0.00308654
-0.0678425
0.0025142
-0.0719387
0.00182247
-0.0760488
0.00103665
-0.080536
-0.0854398
0.000133247
0.000629817
-0.0106734
0.00170125
-0.0296755
0.00254412
-0.0452348
0.0028554
-0.0559511
0.00266893
-0.0627168
0.00215107
-0.0673247
0.00144559
-0.0712333
0.000626197
-0.0752294
-0.000273372
-0.0796364
-0.0844265
-0.00128663
0.000586938
-0.0112604
0.00151428
-0.0306029
0.00215363
-0.0458742
0.00225939
-0.0560569
0.00189655
-0.062354
0.00123265
-0.0666608
0.000396701
-0.0703973
-0.000546255
-0.0742865
-0.00158639
-0.0785963
-0.0833058
-0.00270712
0.000537568
-0.0117979
0.00131593
-0.0313812
0.00175587
-0.0463141
0.00166585
-0.0559669
0.00113649
-0.0618246
0.000332853
-0.0658571
-0.000625705
-0.0694387
-0.00168971
-0.0732225
-0.00285865
-0.0774274
-0.0820563
-0.0041081
0.000482562
-0.0122805
0.001109
-0.0320077
0.00135471
-0.0465598
0.00107821
-0.0556904
0.000391586
-0.061138
-0.000544021
-0.0649215
-0.00162296
-0.0683598
-0.0028095
-0.0720359
-0.00410187
-0.076135
-0.0806767
-0.00548152
0.000422817
-0.0127033
0.000896214
-0.0324811
0.000953537
-0.0466171
0.000499734
-0.0552366
-0.000335904
-0.0603023
-0.0013982
-0.0638592
-0.00259606
-0.0671619
-0.00390159
-0.0707304
-0.00531635
-0.0747202
-0.0791686
-0.00682443
0.000359185
-0.0130625
0.000680182
-0.0328021
0.000555578
-0.0464925
-6.28848e-05
-0.0546181
-0.00104389
-0.0593213
-0.00222978
-0.0626734
-0.00354308
-0.0658486
-0.00496484
-0.0693086
-0.00650067
-0.0731844
-0.0775346
-0.00813468
0.000292619
-0.0133551
0.000462935
-0.0329724
0.000168419
-0.046198
-0.000621143
-0.0538285
-0.00173362
-0.0582088
-0.00303734
-0.0613696
-0.00446303
-0.064423
-0.00599847
-0.0677732
-0.00765343
-0.0715295
-0.0757784
-0.00940961
0.000224882
-0.01358
0.000246505
-0.032994
-0.000222957
-0.0457286
-0.00116073
-0.0528908
-0.00240251
-0.0569671
-0.00382007
-0.0599521
-0.00535518
-0.0628878
-0.00700181
-0.0661266
-0.00877317
-0.0697581
-0.0739061
-0.0106455
0.000156014
-0.013736
4.52563e-05
-0.0328833
-0.000607601
-0.0450757
-0.00168646
-0.0518119
-0.00304986
-0.0556037
-0.0045773
-0.0584246
-0.00621893
-0.0612462
-0.0079741
-0.0643714
-0.00985863
-0.0678736
-0.071922
-0.0118427
8.2554e-05
-0.0138186
-0.000185254
-0.0326155
-0.00097969
-0.0442813
-0.00219521
-0.0505964
-0.00367501
-0.0541239
-0.00530852
-0.0567911
-0.00705389
-0.0595008
-0.00891483
-0.0625105
-0.0109098
-0.0658786
-0.0698234
-0.0130085
1.09106e-06
-0.0138197
-0.000405989
-0.0322084
-0.00134135
-0.0433459
-0.00268572
-0.049252
-0.0042771
-0.0525325
-0.00601337
-0.0550549
-0.00786043
-0.0576538
-0.00982496
-0.0605459
-0.0119256
-0.063778
-0.0676091
-0.0141399
-6.72335e-05
-0.0137524
-0.000616066
-0.0316595
-0.00169091
-0.0422711
-0.0031575
-0.0477854
-0.00485547
-0.0508345
-0.00669138
-0.053219
-0.00863919
-0.055706
-0.0107077
-0.0584774
-0.0129008
-0.0615849
-0.0652932
-0.0152167
-0.000139491
-0.0136129
-0.000818785
-0.0309802
-0.00202734
-0.0410625
-0.00360994
-0.0462028
-0.00540947
-0.049035
-0.00734163
-0.0512868
-0.00938833
-0.0536593
-0.0115617
-0.056304
-0.0138729
-0.0592738
-0.0630139
-0.0161521
-0.000210977
-0.013402
-0.00101466
-0.0301766
-0.00234996
-0.0397272
-0.00404247
-0.0445103
-0.00593867
-0.0471388
-0.00796318
-0.0492623
-0.0101033
-0.0515191
-0.0123597
-0.0540476
-0.0146971
-0.0569363
-0.0602455
-0.0174655
-0.000280794
-0.0131212
-0.00120335
-0.029254
-0.00265833
-0.0382722
-0.00445473
-0.0427139
-0.0064429
-0.0451506
-0.00855543
-0.0471498
-0.0107809
-0.0492937
-0.0131156
-0.0517129
-0.0155775
-0.0544744
-0.0574916
-0.0183314
-0.000348523
-0.0127726
-0.00138436
-0.0282182
-0.00295207
-0.0367045
-0.00484639
-0.0408196
-0.00692186
-0.0430751
-0.0091183
-0.0449533
-0.0114271
-0.0469848
-0.0138532
-0.0492869
-0.0164299
-0.0518977
-0.0547105
-0.0192109
-0.000413855
-0.0123588
-0.00155719
-0.0270748
-0.00323084
-0.0350309
-0.00521721
-0.0388332
-0.00737519
-0.0409172
-0.00965102
-0.0426775
-0.0120393
-0.0445965
-0.0145502
-0.0467761
-0.0172135
-0.0492344
-0.0518761
-0.0200479
-0.000476521
-0.0118823
-0.00172142
-0.0258299
-0.00349433
-0.033258
-0.005567
-0.0367606
-0.00780276
-0.0386814
-0.0101539
-0.0403264
-0.0126184
-0.042132
-0.0152092
-0.0441853
-0.0179504
-0.0464932
-0.0489775
-0.020849
-0.000536281
-0.011346
-0.00187672
-0.0244895
-0.00374232
-0.0313923
-0.00589562
-0.0346073
-0.00820444
-0.0363726
-0.0106266
-0.0379042
-0.0131631
-0.0395955
-0.0158281
-0.0415202
-0.0186417
-0.0436796
-0.0460109
-0.0216084
-0.000592919
-0.0107531
-0.00202276
-0.0230597
-0.0039746
-0.0294405
-0.00620296
-0.0323789
-0.00858015
-0.0339954
-0.0110691
-0.0354152
-0.0136734
-0.0369913
-0.0164075
-0.0387861
-0.0192895
-0.0407977
-0.0429761
-0.0223243
-0.000646242
-0.0101068
-0.00215931
-0.0215466
-0.004191
-0.0274088
-0.00648894
-0.030081
-0.00892983
-0.0315545
-0.0114813
-0.0328637
-0.0141488
-0.0343238
-0.0169474
-0.0359874
-0.019894
-0.0378511
-0.0398753
-0.0229948
-0.000696083
-0.00941074
-0.00228616
-0.0199565
-0.0043914
-0.0253036
-0.00675352
-0.0277189
-0.00925341
-0.0290546
-0.0118629
-0.0302543
-0.0145892
-0.0315974
-0.0174478
-0.0331289
-0.020455
-0.0348439
-0.0367116
-0.0236186
-0.000742295
-0.00866844
-0.00240313
-0.0182957
-0.00457571
-0.023131
-0.00699665
-0.0252979
-0.00955084
-0.0265004
-0.0122139
-0.0275912
-0.0149945
-0.0288168
-0.0179084
-0.030215
-0.020972
-0.0317803
-0.0334892
-0.0241944
-0.000784751
-0.00788369
-0.00251008
-0.0165704
-0.00474385
-0.0208972
-0.0072183
-0.0228235
-0.00982208
-0.0238966
-0.0125341
-0.0248792
-0.0153645
-0.0259865
-0.0183291
-0.0272503
-0.0214446
-0.0286649
-0.0302125
-0.0247213
-0.000823341
-0.00706035
-0.0026069
-0.0147868
-0.00489575
-0.0186084
-0.00741846
-0.0203007
-0.0100671
-0.021248
-0.0128236
-0.0221227
-0.015699
-0.0231111
-0.0187097
-0.0242396
-0.0218722
-0.0255023
-0.0268864
-0.0251983
-0.000857974
-0.00620238
-0.00269349
-0.0129513
-0.00503138
-0.0162705
-0.00759711
-0.017735
-0.0102859
-0.0185592
-0.0130821
-0.0193264
-0.0159979
-0.0201954
-0.0190499
-0.0211876
-0.0222546
-0.0222976
-0.0235161
-0.0256249
-0.000888568
-0.00531381
-0.00276976
-0.0110701
-0.00515071
-0.0138896
-0.00775424
-0.0151315
-0.0104783
-0.0158351
-0.0133097
-0.0164951
-0.0162611
-0.017244
-0.0193495
-0.0180993
-0.0225915
-0.0190556
-0.0201068
-0.0260007
-0.000915059
-0.00439875
-0.00283566
-0.00914948
-0.00525371
-0.0114715
-0.00788987
-0.0124953
-0.0106445
-0.0130805
-0.0135063
-0.0136333
-0.0164885
-0.0142617
-0.0196084
-0.0149794
-0.0228825
-0.0157815
-0.0166641
-0.0263253
-0.00093739
-0.00346136
-0.00289113
-0.00719575
-0.00534037
-0.00902225
-0.00800398
-0.00983173
-0.0107844
-0.0103
-0.0136718
-0.0107459
-0.01668
-0.0112535
-0.0198264
-0.011833
-0.0231275
-0.0124804
-0.0131931
-0.0265984
-0.000955517
-0.00250584
-0.00293613
-0.00521514
-0.00541067
-0.00654771
-0.00809658
-0.00714581
-0.010898
-0.00749863
-0.0138062
-0.00783773
-0.0168355
-0.00822417
-0.0200034
-0.00866514
-0.0233264
-0.00915738
-0.00969948
-0.0268201
-0.000969406
-0.00153643
-0.00297063
-0.00321392
-0.0054646
-0.00405374
-0.00816768
-0.00444274
-0.0109852
-0.00468107
-0.0139095
-0.00491346
-0.0169551
-0.00517857
-0.0201395
-0.00548074
-0.0234792
-0.00581767
-0.00618852
-0.0269902
-0.000979031
-0.000557404
-0.00299461
-0.00119834
-0.00550218
-0.00154617
-0.0082173
-0.00172762
-0.0110462
-0.00185219
-0.0139817
-0.00197795
-0.0170386
-0.00212163
-0.0202345
-0.00228486
-0.0235858
-0.00246643
-0.00266569
-0.0271086
-0.000984376
0.000426972
-0.00300806
0.000825349
-0.0055234
0.000969168
-0.00824543
0.000994419
-0.0110808
0.0009832
-0.0140228
0.000963992
-0.0170861
0.000941744
-0.0202884
0.000917448
-0.0236461
0.000891219
0.00086258
-0.0271744
-0.00098543
0.0014124
-0.00301098
0.0028509
-0.00552826
0.00348645
-0.0082521
0.00371826
-0.0110892
0.00382028
-0.0140327
0.00390755
-0.0170977
0.00400668
-0.0203015
0.00412126
-0.0236606
0.00425029
0.00439325
-0.0271912
-0.000982195
0.0023946
-0.00300336
0.00487207
-0.00551678
0.00599986
-0.00823732
0.0064388
-0.0110713
0.00665423
-0.0140116
0.00684792
-0.0170732
0.00706826
-0.0202735
0.00732153
-0.0236288
0.00760566
0.00791976
-0.0271554
-0.000974678
0.00336928
-0.00298523
0.00688262
-0.00548896
0.0085036
-0.00820109
0.00915093
-0.0110271
0.00948024
-0.0139595
0.00978027
-0.0170128
0.0101216
-0.0202044
0.0105132
-0.0235509
0.0109521
0.0114367
-0.0270678
-0.000962893
0.00433217
-0.00295659
0.00887631
-0.00544483
0.0109918
-0.00814345
0.0118495
-0.0109567
0.0122935
-0.0138762
0.0126998
-0.0169164
0.0131617
-0.0200945
0.0136913
-0.0234269
0.0142846
0.0149386
-0.0269288
-0.000946866
0.00527904
-0.00291747
0.0108469
-0.0053844
0.0134588
-0.00806439
0.0145295
-0.0108601
0.0150892
-0.013762
0.0156018
-0.0167842
0.0161839
-0.0199436
0.0168507
-0.0232569
0.0175978
0.0184201
-0.0267384
-0.000926629
0.00620566
-0.00286791
0.0127882
-0.00530768
0.0158985
-0.00796394
0.0171858
-0.0107373
0.0178626
-0.0136169
0.0184814
-0.0166162
0.0191831
-0.019752
0.0199866
-0.023041
0.0208867
0.0218758
-0.0264966
-0.000902223
0.00710789
-0.00280795
0.0146939
-0.00521471
0.0183053
-0.00784213
0.0198132
-0.0105884
0.0206089
-0.0134409
0.0213339
-0.0164125
0.0221547
-0.0195198
0.0230939
-0.0227793
0.0241462
0.0253002
-0.0262037
-0.0008737
0.00798159
-0.00273765
0.0165579
-0.00510553
0.0206732
-0.00769897
0.0224067
-0.0104134
0.0233233
-0.0132342
0.0241546
-0.0161733
0.0250938
-0.0192472
0.0261678
-0.0224721
0.0273711
0.028688
-0.0258599
-0.000841121
0.00882271
-0.00265707
0.0183738
-0.00498016
0.0229963
-0.0075345
0.024961
-0.0102124
0.0260012
-0.0129967
0.0269389
-0.0158986
0.0279957
-0.0189343
0.0292035
-0.0221197
0.0305566
0.0320338
-0.0254656
-0.00080456
0.00962727
-0.00256629
0.0201356
-0.00483865
0.0252686
-0.00734873
0.0274711
-0.00998539
0.0286379
-0.0127287
0.0296822
-0.0155888
0.0308558
-0.0185814
0.0321961
-0.0217226
0.0336977
0.0353327
-0.0250215
-0.000764102
0.0103914
-0.0024654
0.0218369
-0.00468104
0.0274843
-0.00714171
0.0299318
-0.00973246
0.0312286
-0.0124302
0.0323799
-0.0152438
0.0336695
-0.0181889
0.0351412
-0.0212811
0.03679
0.0385798
-0.0245283
-0.000719846
0.0111112
-0.00235451
0.0234715
-0.00450741
0.0296372
-0.00691348
0.0323378
-0.00945367
0.0337688
-0.0121013
0.0350275
-0.014864
0.0364322
-0.017757
0.0380341
-0.0207959
0.0398289
0.0417708
-0.0239869
-0.000671907
0.0117831
-0.00223375
0.0250334
-0.00431784
0.0317212
-0.00666407
0.0346841
-0.0091491
0.0362539
-0.0117422
0.0376207
-0.0144496
0.0391396
-0.0172859
0.0408704
-0.0202676
0.0428106
0.0449019
-0.0233986
-0.000620419
0.0124035
-0.00210329
0.0265162
-0.0041124
0.0337303
-0.00639354
0.0369652
-0.00881882
0.0386791
-0.0113531
0.040155
-0.0140006
0.0417871
-0.0167759
0.0436458
-0.0196965
0.0457312
0.0479702
-0.0227649
-0.000565531
0.0129691
-0.00196329
0.027914
-0.00389123
0.0356583
-0.00610195
0.0391759
-0.0084629
0.0410401
-0.0109341
0.0426261
-0.0135174
0.0443703
-0.016227
0.0463554
-0.0190831
0.0485873
0.0509745
-0.0220874
-0.000507415
0.0134765
-0.00181399
0.0292206
-0.00365446
0.0374988
-0.00578938
0.0413109
-0.00808142
0.0433321
-0.0104853
0.04503
-0.0130001
0.0468851
-0.015639
0.0489942
-0.0184271
0.0513755
0.0539162
-0.0213688
-0.000446266
0.0139228
-0.00165564
0.0304299
-0.00340227
0.0392454
-0.00545593
0.0433645
-0.00767446
0.0455507
-0.0100069
0.0473625
-0.0124492
0.0493274
-0.0150112
0.0515562
-0.0177254
0.0540897
0.0568019
-0.0206111
-0.000382298
0.0143051
-0.00148854
0.0315362
-0.00313487
0.0408917
-0.00510173
0.0453314
-0.00724217
0.0476911
-0.00949919
0.0496195
-0.011866
0.0516942
-0.0143464
0.0540367
-0.0169774
0.0567207
0.0596445
-0.01982
-0.000315752
0.0146208
-0.00131307
0.0325335
-0.00285251
0.0424312
-0.00472695
0.0472058
-0.00678463
0.0497488
-0.00896167
0.0517966
-0.0112489
0.0539814
-0.0136404
0.0564281
-0.016154
0.0592344
0.0624713
-0.0189808
-0.0002469
0.0148677
-0.00112963
0.0334162
-0.00255547
0.043857
-0.00433181
0.0489821
-0.00630226
0.0517192
-0.00839524
0.0538895
-0.0106016
0.0561877
-0.0129212
0.0587478
-0.0153098
0.061623
0.0653232
-0.0181617
-0.000176092
0.0150438
-0.000938677
0.0341788
-0.00224408
0.0451624
-0.00391656
0.0506546
-0.00579536
0.053598
-0.00779998
0.0558942
-0.00991646
0.0583042
-0.0121588
0.0609901
-0.0145333
0.0639975
0.0676072
-0.0168173
-0.000103942
0.0151477
-0.000740558
0.0348154
-0.00191868
0.0463405
-0.00348152
0.0522175
-0.00526402
0.0553805
-0.00717645
0.0578066
-0.00919685
0.0603246
-0.0113352
0.0631284
-0.0135904
0.0662527
0.0699664
-0.0159496
-3.25243e-05
0.0151803
-0.000535142
0.0353181
-0.00157975
0.0473851
-0.00302715
0.0536649
-0.00470865
0.057062
-0.00652563
0.0596236
-0.00844825
0.0622472
-0.0104841
0.0651642
-0.0126487
0.0684172
0.0722351
-0.0149174
4.37742e-05
0.0151365
-0.00032081
0.0356826
-0.00122809
0.0482924
-0.00255409
0.0549909
-0.00412989
0.0586379
-0.00584861
0.0613423
-0.00767309
0.0640717
-0.00960837
0.0670995
-0.0116711
0.07048
0.0743924
-0.0138285
0.000121101
0.0150154
-8.96983e-05
0.0358934
-0.000865242
0.049068
-0.00206266
0.0561883
-0.00352833
0.0601035
-0.00514594
0.0629599
-0.00687069
0.0657964
-0.00870406
0.0689329
-0.0106614
0.0724373
0.076442
-0.012711
0.000193386
0.014822
0.000123028
0.0359638
-0.000493358
0.0496843
-0.00155331
0.0572482
-0.00290478
0.061455
-0.00441795
0.0644731
-0.00604055
0.067419
-0.00776964
0.070662
-0.0096191
0.0742868
0.0783879
-0.011565
0.000262888
0.0145591
0.000332547
0.0358941
-9.82181e-05
0.0501151
-0.00102791
0.0581779
-0.00225988
0.062687
-0.00366495
0.0658781
-0.00518297
0.0689371
-0.00680554
0.0722845
-0.00854398
0.0760252
0.0802245
-0.0103806
0.000331488
0.0142276
0.0005497
0.0356759
0.000281896
0.0503829
-0.000490844
0.0589507
-0.00159404
0.0637902
-0.0028876
0.0671717
-0.0042985
0.070348
-0.00581241
0.0737985
-0.00743715
0.07765
0.0819448
-0.00915745
0.000398443
0.0138292
0.000767818
0.0353066
0.000672564
0.0504782
6.72324e-05
0.059556
-0.000908214
0.0647656
-0.00208658
0.06835
-0.00338767
0.071649
-0.00479075
0.0752015
-0.00629975
0.079159
0.0835449
-0.00789983
0.000462494
0.0133667
0.000985241
0.0347838
0.0010714
0.050392
0.000627324
0.0600001
-0.000205057
0.065598
-0.00126255
0.0694075
-0.00245115
0.0728376
-0.00374116
0.0764915
-0.00513299
0.0805508
0.0850224
-0.00661054
0.000522755
0.0128439
0.00119968
0.0341069
0.00147361
0.0501181
0.00120486
0.0602688
0.000518023
0.0662849
-0.000417246
0.0703428
-0.00149002
0.0739104
-0.00266448
0.077666
-0.00393839
0.0818247
0.0863754
-0.00529133
0.000578356
0.0122656
0.00140862
0.0332766
0.00187643
0.0496503
0.00179157
0.0603537
0.00125816
0.0668183
0.000451385
0.0711496
-0.000506604
0.0748684
-0.00156194
0.0787213
-0.0027174
0.0829802
0.0876024
-0.00394441
0.000628414
0.0116372
0.0016095
0.0322955
0.00227663
0.0489831
0.00238467
0.0602456
0.00201347
0.0671895
0.00134168
0.0718214
0.000502625
0.0757075
-0.000438957
0.0796629
-0.00146904
0.0840102
0.0887066
-0.0025732
0.000672089
0.0109651
0.00179963
0.031168
0.00267055
0.0481122
0.00298115
0.059935
0.00278144
0.0673892
0.00225042
0.0723524
0.00153651
0.0764214
0.000714994
0.0804844
-0.00017727
0.0849025
0.0897154
-0.00118611
0.000708623
0.0102565
0.00197627
0.0299003
0.00305413
0.0470344
0.00357716
0.059412
0.00355931
0.067407
0.00317619
0.0727355
0.00258958
0.077008
0.00188915
0.0811849
0.00109995
0.0856917
0.0906081
0.000207247
0.000737366
0.00951908
0.00213652
0.0285012
0.00342286
0.045748
0.00416816
0.0586667
0.00434361
0.0672316
0.00411666
0.0729625
0.00366136
0.0774633
0.00308228
0.081764
0.00242225
0.0863517
0.0913312
0.00169912
0.000757793
0.00876129
0.00227738
0.0269816
0.00377172
0.0442537
0.00474882
0.0576896
0.00513009
0.0668503
0.00506908
0.0730235
0.00475074
0.0777816
0.00429679
0.0822179
0.00376411
0.0868844
0.0919246
0.00317076
0.000769542
0.00799175
0.0023957
0.0253555
0.00409518
0.0425542
0.005313
0.0564718
0.00591362
0.0662497
0.00603001
0.0729071
0.00585534
0.0779563
0.00552899
0.0825442
0.00512014
0.0872933
0.0923919
0.0046528
0.000772462
0.00721929
0.0024888
0.0236391
0.00438737
0.0406556
0.0058536
0.0550055
0.00668799
0.0654153
0.00699498
0.0726001
0.00697197
0.0779793
0.00677591
0.0827403
0.00649046
0.0875787
0.0927349
0.00614748
0.000766609
0.00645268
0.00255431
0.0218514
0.00464207
0.0385678
0.00636257
0.053285
0.00744574
0.0643321
0.0079585
0.0720873
0.00809708
0.0778407
0.00803544
0.0828019
0.00787435
0.0877398
0.0929553
0.007654
0.00075224
0.00570044
0.00259029
0.0200134
0.00485295
0.0363052
0.0068309
0.0513071
0.00817808
0.062985
0.00891386
0.0713516
0.00922646
0.0775281
0.00930526
0.0827232
0.00927027
0.0877748
0.0930544
0.00917116
0.000729826
0.00497061
0.00259547
0.0181477
0.00501376
0.0338869
0.00724869
0.0490722
0.0088747
0.0613589
0.00985286
0.0703734
0.0103548
0.0770262
0.0105823
0.0824957
0.0106762
0.0876809
0.0930322
0.0106984
0.000700044
0.00427057
0.00256944
0.0162783
0.00511875
0.0313376
0.00760536
0.0465856
0.00952375
0.0594406
0.0107655
0.0691317
0.0114752
0.0763164
0.0118625
0.0821084
0.0120898
0.0874536
0.0928877
0.0122342
0.000663765
0.0036068
0.00251274
0.0144293
0.00516306
0.0286873
0.00788992
0.0438587
0.0101117
0.0572188
0.0116396
0.0676038
0.0125792
0.0753768
0.0131406
0.081547
0.0135078
0.0870864
0.0926196
0.0137759
0.00062202
0.00298478
0.00242697
0.0126244
0.0051433
0.0259709
0.00809148
0.0409105
0.0106236
0.0546867
0.0124608
0.0657666
0.0136557
0.074182
0.0144098
0.0807929
0.0149264
0.0865698
0.092225
0.0153209
0.00057596
0.00240882
0.00231477
0.0108856
0.00505804
0.0232277
0.00819986
0.0377687
0.0110432
0.0518433
0.0132122
0.0635976
0.0146911
0.072703
0.0156611
0.0798229
0.0163404
0.0858905
0.0916994
0.016866
0.000526795
0.00188203
0.00217971
0.00923266
0.0049083
0.0204991
0.00820654
0.0344705
0.0113536
0.0486962
0.0138743
0.0610769
0.0156689
0.0709084
0.016883
0.0786088
0.0177429
0.0850306
0.0910349
0.0184073
0.000475729
0.0014063
0.00202607
0.00768232
0.00469791
0.0178272
0.00810568
0.0310627
0.0115382
0.0452638
0.0144254
0.0581896
0.0165688
0.0687651
0.0180606
0.077117
0.019125
0.0839663
0.0902201
0.0199398
0.000423904
0.000982395
0.00185856
0.00624766
0.00443345
0.0152524
0.00789532
0.0276008
0.0115816
0.0415775
0.0148421
0.054929
0.0173669
0.0662404
0.0191751
0.0753087
0.0204742
0.0826671
0.0892378
0.0214565
0.000372342
0.000610053
0.00168206
0.00493794
0.004124
0.0128104
0.00757847
0.0241464
0.0114716
0.0376844
0.0151002
0.0513005
0.0180356
0.0633049
0.0202028
0.0731415
0.0217744
0.0810955
0.0880642
0.0229481
0.000321924
0.000288128
0.0015013
0.00375856
0.0037805
0.0105312
0.00716388
0.020763
0.0112013
0.033647
0.0151762
0.0473255
0.0185443
0.0599369
0.021115
0.0705707
0.0230042
0.0792064
0.0866669
0.0244014
0.000273407
1.47216e-05
0.00132078
0.00271119
0.00341503
0.00843697
0.00666619
0.0175118
0.0107711
0.029542
0.0150503
0.0430463
0.0188602
0.0561271
0.0218777
0.0675533
0.024136
0.076948
0.0850038
0.0257991