/*--------------------------------*- C++ -*----------------------------------*\
  =========                 |
  \\      /  F ield         | OpenFOAM: The Open Source CFD Toolbox
   \\    /   O peration     | Website:  https://openfoam.org
    \\  /    A nd           | Version:  7
     \\/     M anipulation  |
\*---------------------------------------------------------------------------*/
FoamFile
{
    version     2.0;
    format      ascii;
    class       volVectorField;
    location    "150";
    object      U;
}
// * * * * * * * * * * * * * * * * * * * * * * * * * * * * * * * * * * * * * //

dimensions      [0 1 -1 0 0 0 0];

internalField   nonuniform List<vector> 
8500
(
(-0.000668677 -0.062278 1.08175e-21)
(-0.00818503 -0.127844 -3.10846e-21)
(-0.024854 -0.15444 -3.62964e-21)
(-0.0456138 -0.155606 3.61389e-21)
(-0.0684883 -0.142969 -3.32396e-21)
(-0.0920299 -0.124343 -1.78008e-21)
(-0.115245 -0.103252 3.0637e-21)
(-0.137576 -0.079893 3.77304e-21)
(-0.15845 -0.0526007 -6.11765e-22)
(-0.177909 -0.0183491 1.84928e-21)
(0.00124984 -0.0586137 -1.1992e-21)
(-0.00491793 -0.119405 3.69705e-21)
(-0.0218928 -0.14316 -8.4198e-21)
(-0.0435731 -0.142875 7.63694e-21)
(-0.0675474 -0.12974 3.84955e-22)
(-0.0921857 -0.11122 5.71984e-21)
(-0.11649 -0.0906197 -9.91836e-21)
(-0.140019 -0.0679756 -1.45274e-20)
(-0.162227 -0.0414714 -2.749e-21)
(-0.183037 -0.0079183 6.26715e-21)
(0.00291507 -0.0545252 1.02081e-21)
(-0.00205254 -0.110312 7.74521e-21)
(-0.0191417 -0.131325 1.84127e-20)
(-0.0413598 -0.129792 -1.66774e-20)
(-0.0658851 -0.116338 -3.66084e-21)
(-0.0908942 -0.0980368 -3.42408e-21)
(-0.115345 -0.077979 1.72962e-20)
(-0.138865 -0.0560634 1.10169e-20)
(-0.160874 -0.0303415 2.84675e-21)
(-0.180952 0.00244872 -1.92176e-20)
(0.00429141 -0.0501323 3.58618e-21)
(0.000337878 -0.100792 -4.60703e-21)
(-0.0167121 -0.119201 -3.34233e-20)
(-0.0391268 -0.116642 3.05781e-21)
(-0.0637018 -0.103076 9.24998e-21)
(-0.0884086 -0.0851479 -7.01624e-21)
(-0.11212 -0.0657386 -7.69768e-22)
(-0.134478 -0.044638 -2.75653e-21)
(-0.154855 -0.0197759 6.4992e-21)
(-0.172161 0.0120817 1.81746e-20)
(0.00535334 -0.0455435 2.41744e-21)
(0.00219057 -0.0910437 -1.39278e-20)
(-0.014716 -0.107024 3.39159e-20)
(-0.037042 -0.103686 -1.51253e-20)
(-0.0612325 -0.0902478 -1.11643e-22)
(-0.0850451 -0.0728937 2.08585e-20)
(-0.107225 -0.0543034 -9.74892e-21)
(-0.127375 -0.0341852 1.23137e-21)
(-0.144858 -0.0103539 -3.94607e-21)
(-0.157509 0.0203933 8.32429e-22)
(0.00608326 -0.0408504 2.87684e-20)
(0.00345256 -0.081239 3.53857e-20)
(-0.0132609 -0.0949958 -9.2389e-21)
(-0.0352772 -0.0911481 1.74024e-20)
(-0.0587288 -0.0781112 5.20031e-21)
(-0.0811579 -0.0615836 -7.86312e-21)
(-0.101148 -0.0440506 -2.92024e-21)
(-0.118202 -0.0251678 -1.20502e-20)
(-0.131758 -0.00264868 2.59306e-21)
(-0.138112 0.0267567 -1.55778e-20)
(0.0064692 -0.0361246 -2.76606e-20)
(0.0040806 -0.0715117 -1.83274e-20)
(-0.0124432 -0.083275 1.45314e-20)
(-0.0339926 -0.0792072 -2.50175e-20)
(-0.056434 -0.0668762 2.54223e-21)
(-0.077103 -0.0514753 2.88377e-20)
(-0.0943954 -0.0353022 -5.1184e-21)
(-0.107657 -0.0179906 3.31788e-20)
(-0.116539 0.00281869 -1.14268e-21)
(-0.115249 0.0305684 -1.25354e-20)
(0.00650275 -0.0314174 2.22921e-20)
(0.00404221 -0.0619596 -4.06681e-20)
(-0.0123389 -0.0719772 -1.61471e-20)
(-0.0333184 -0.0679904 1.93361e-20)
(-0.054552 -0.0566909 2.95554e-22)
(-0.0731905 -0.042753 -5.35802e-20)
(-0.0874329 -0.0282938 -2.78534e-21)
(-0.0964016 -0.0129587 -2.54465e-20)
(-0.10016 0.00561657 -3.18406e-20)
(-0.0901957 0.0313074 1.8035e-20)
(0.00617811 -0.0267622 -1.24119e-20)
(0.00331844 -0.0526482 6.1319e-21)
(-0.0129927 -0.061175 1.48096e-20)
(-0.0333326 -0.05757 -1.26227e-20)
(-0.0532103 -0.0476324 -4.53465e-20)
(-0.0696261 -0.0355085 1.57688e-20)
(-0.0805892 -0.0231426 2.45232e-21)
(-0.0849282 -0.0102267 3.72918e-20)
(-0.0833673 0.00548082 4.7094e-20)
(-0.0639881 0.0286714 -2.06056e-20)
(0.00549243 -0.0221801 1.88694e-20)
(0.00190852 -0.0436183 1.72309e-20)
(-0.0144061 -0.0509044 -2.53698e-21)
(-0.0340382 -0.0479656 6.3911e-20)
(-0.052421 -0.0397018 2.71103e-20)
(-0.0664464 -0.0297271 2.00823e-20)
(-0.0739532 -0.0198205 2.75263e-20)
(-0.0733947 -0.00975053 -1.23133e-20)
(-0.0664183 0.00239997 -1.55364e-20)
(-0.0370873 0.0226943 -2.3279e-20)
(0.00444785 -0.0176866 -2.12807e-21)
(-0.000164024 -0.0348964 -2.69544e-20)
(-0.0165247 -0.0411743 -1.93453e-20)
(-0.035342 -0.0391505 -3.11476e-20)
(-0.0520441 -0.0328276 -2.43802e-20)
(-0.0634559 -0.0252848 2.42174e-20)
(-0.0672664 -0.0181405 -2.27352e-20)
(-0.061444 -0.0112619 -1.54034e-20)
(-0.0487384 -0.00341237 1.92907e-21)
(-0.00890226 0.0135517 6.7006e-21)
(0.00305489 -0.0132992 -5.06372e-20)
(-0.0028444 -0.0265072 2.44621e-20)
(-0.0192281 -0.0319793 1.78657e-20)
(-0.0370379 -0.0310653 1.17471e-20)
(-0.0517602 -0.0268775 -2.11452e-20)
(-0.0601812 -0.0219576 -1.77326e-20)
(-0.0598494 -0.0177615 2.51662e-20)
(-0.0481219 -0.0142826 -1.98286e-20)
(-0.028717 -0.0115516 -1.48186e-21)
(0.0227508 0.00185245 -1.83711e-20)
(0.00133683 -0.00904469 4.1752e-20)
(-0.00604022 -0.0184855 1.70155e-20)
(-0.0223235 -0.0233152 1.0753e-21)
(-0.0387999 -0.0236361 -2.14278e-20)
(-0.051059 -0.0216823 1.76511e-21)
(-0.055853 -0.0194493 2.28428e-20)
(-0.0505846 -0.0182127 -6.27203e-21)
(-0.0319583 -0.0180616 -7.21849e-21)
(-0.00404987 -0.0207212 -1.54703e-20)
(0.0617049 -0.0109081 2.82618e-20)
(-0.000666184 -0.00496425 2.75421e-20)
(-0.00961755 -0.0108869 -4.55866e-20)
(-0.0255468 -0.015194 -3.50058e-20)
(-0.040188 -0.0167968 1.52114e-20)
(-0.049252 -0.0170683 3.07714e-20)
(-0.0494246 -0.0174404 2.5311e-20)
(-0.0379115 -0.0189291 -2.63803e-20)
(-0.0108145 -0.0215365 4.94444e-20)
(0.0281187 -0.0293951 -1.44246e-20)
(0.11206 -0.0224645 -3.16605e-20)
(-0.0028942 -0.00111557 -4.18508e-20)
(-0.0134006 -0.00379374 2.53207e-20)
(-0.0285705 -0.00765705 -1.18485e-20)
(-0.0406706 -0.0105118 1.2265e-21)
(-0.0455172 -0.0128946 1.27028e-20)
(-0.0396467 -0.0156512 -4.01851e-20)
(-0.0199195 -0.0194492 3.44519e-20)
(0.01784 -0.0241299 -3.2839e-20)
(0.0709888 -0.0364673 4.9943e-20)
(0.177271 -0.0299483 1.69188e-20)
(-0.00526706 0.00242901 8.64707e-21)
(-0.0171763 0.00268351 4.86091e-20)
(-0.0310207 -0.000783189 -1.20622e-20)
(-0.0396604 -0.00479243 1.23274e-20)
(-0.0389744 -0.00908141 1.40187e-20)
(-0.0252631 -0.0138994 -4.17208e-21)
(0.00514651 -0.0194822 2.95072e-20)
(0.0565026 -0.0255192 1.81684e-21)
(0.12765 -0.0409147 -3.11289e-20)
(0.258427 -0.0311868 4.00212e-20)
(-0.00768671 0.00558832 -2.33161e-20)
(-0.020703 0.00841215 -4.58715e-20)
(-0.0324974 0.00531108 3.98747e-20)
(-0.0365551 0.00029634 1.98594e-20)
(-0.0287523 -0.00561814 -9.16868e-20)
(-0.00507762 -0.0120869 7.3828e-20)
(0.0387444 -0.0187981 -6.49557e-20)
(0.106725 -0.0253717 1.19944e-21)
(0.20018 -0.0420253 -1.32322e-20)
(0.353179 -0.0254611 -3.6378e-20)
(-0.0100426 0.00828103 2.00355e-20)
(-0.0237218 0.013248 -2.65899e-21)
(-0.0325959 0.0104798 -9.77731e-21)
(-0.0307743 0.00464071 -1.21664e-21)
(-0.0140619 -0.00256358 -5.72669e-21)
(0.0219194 -0.0102022 -2.34508e-20)
(0.0819959 -0.017329 9.53004e-21)
(0.169247 -0.0236824 -1.5081e-20)
(0.288967 -0.0388043 4.76541e-21)
(0.4555 -0.0131893 1.30528e-21)
(-0.0122192 0.0104359 -4.08959e-20)
(-0.0259686 0.0170517 -2.91084e-21)
(-0.0309224 0.0145646 4.4808e-21)
(-0.0217832 0.00809756 1.8291e-21)
(0.00577536 -1.84694e-05 2.99653e-20)
(0.0564824 -0.00828413 -8.63525e-20)
(0.135548 -0.0150716 5.67501e-20)
(0.244223 -0.0206333 -4.16975e-20)
(0.392501 -0.029964 3.28213e-20)
(0.557869 0.0037711 3.37576e-20)
(-0.0141036 0.0120011 -4.97976e-21)
(-0.0271834 0.0197065 2.28853e-20)
(-0.0271034 0.0174196 -2.8766e-20)
(-0.00910106 0.0105252 -9.0207e-21)
(0.0313166 0.00191463 1.73072e-20)
(0.0991201 -0.00637177 8.21057e-20)
(0.199497 -0.0120065 -1.60074e-20)
(0.331224 -0.0162077 7.78463e-21)
(0.507021 -0.0149782 -3.8804e-20)
(0.657153 0.019166 1.67918e-20)
(-0.0155923 0.0129516 -1.49589e-20)
(-0.0271151 0.0211362 -1.16747e-20)
(-0.0207821 0.0189406 2.88369e-21)
(0.00771189 0.0118261 1.13251e-20)
(0.0630177 0.0031899 -3.34769e-20)
(0.150119 -0.00442034 -1.34612e-20)
(0.273395 -0.00802693 -4.15483e-20)
(0.428727 -0.00979389 4.08182e-20)
(0.625101 0.00363768 4.14688e-20)
(0.756697 0.0214709 -1.65116e-20)
(-0.0165948 0.0132915 -7.14929e-21)
(-0.0255238 0.0213212 2.91413e-20)
(-0.0116074 0.0190918 -3.26765e-20)
(0.0290776 0.0119885 -3.8029e-21)
(0.101271 0.00387322 -1.53685e-20)
(0.209577 -0.00222862 3.30687e-20)
(0.35638 -0.00284277 4.17812e-20)
(0.53379 -0.000515115 -3.90633e-20)
(0.737012 0.0191748 4.02071e-20)
(0.883898 0.023713 5.36138e-21)
(-0.0170302 0.0130524 -2.07236e-20)
(-0.0221769 0.0203057 -5.89882e-20)
(0.00077784 0.0179286 5.76538e-20)
(0.055422 0.0111244 8.32206e-21)
(0.14642 0.00418835 1.21028e-20)
(0.277365 0.000589899 7.29493e-21)
(0.447106 0.00399205 3.19381e-20)
(0.642151 0.0116321 2.28102e-20)
(0.844987 0.0339532 -7.82833e-20)
(0.995828 0.0395746 -3.68011e-20)
(-0.0168251 0.0122922 -7.08298e-20)
(-0.0168346 0.0181968 1.42816e-20)
(0.0167447 0.0156127 -3.26074e-20)
(0.0871775 0.00949062 6.34159e-21)
(0.198734 0.00453635 1.02007e-20)
(0.353026 0.00458252 -7.21481e-20)
(0.543549 0.0129736 3.14547e-20)
(0.749579 0.026205 -2.05029e-20)
(0.945294 0.0500888 2.11394e-20)
(1.08567 0.0569283 -7.223e-21)
(-0.015911 0.0110835 2.5658e-20)
(-0.00924892 0.0151589 2.77724e-20)
(0.0366812 0.0124128 -1.58035e-21)
(0.124759 0.00749043 -8.92494e-21)
(0.258324 0.00548015 3.14545e-22)
(0.435619 0.0103691 5.80473e-22)
(0.642935 0.0244334 -4.77315e-20)
(0.852183 0.0427219 6.39124e-21)
(1.03404 0.0671193 5.67424e-20)
(1.15853 0.0743919 2.46728e-20)
(-0.0142105 0.00950644 -1.7415e-20)
(0.000836233 0.0114088 -1.29047e-20)
(0.0609757 0.00869243 5.5534e-20)
(0.168509 0.00565444 1.4086e-21)
(0.325011 0.00769056 -2.31723e-20)
(0.523589 0.0185056 6.17923e-20)
(0.742008 0.0384017 1.33447e-20)
(0.946605 0.0606268 6.69692e-22)
(1.10971 0.0844806 -2.50466e-20)
(1.21435 0.0912837 -3.17152e-20)
(-0.011635 0.00764624 3.65227e-20)
(0.0136837 0.00720201 -1.01585e-20)
(0.0899852 0.00489089 -6.05146e-21)
(0.218616 0.00460326 -2.30678e-20)
(0.398185 0.0118561 3.76913e-20)
(0.614755 0.0293467 -1.8365e-20)
(0.837471 0.054605 -2.04624e-20)
(1.03053 0.0793452 -4.79843e-21)
(1.17186 0.101676 -1.45303e-20)
(1.25607 0.107143 1.51794e-20)
(-0.00808333 0.00558995 -1.34376e-20)
(0.0295519 0.0028219 -8.00081e-20)
(0.123993 0.0014986 8.32274e-21)
(0.275019 0.00499554 2.86786e-20)
(0.476714 0.0185721 2.05178e-20)
(0.706502 0.0429651 -6.77771e-20)
(0.926478 0.0725763 4.30058e-20)
(1.10276 0.098359 -1.92538e-20)
(1.22126 0.118347 2.8398e-20)
(1.28598 0.121968 7.65008e-21)
(-0.00344343 0.00342689 -1.47777e-20)
(0.0486768 -0.00142779 2.83848e-20)
(0.163161 -0.000967332 3.70605e-20)
(0.33733 0.00746763 -2.65468e-20)
(0.558952 0.0282392 9.80742e-21)
(0.796117 0.0591657 -5.96565e-20)
(1.00695 0.0917873 -1.11167e-20)
(1.16311 0.117266 9.08604e-21)
(1.25923 0.134315 -2.16908e-20)
(1.30654 0.135804 -2.16097e-20)
(0.0024011 0.00125137 -1.91384e-20)
(0.0712496 -0.00522723 -6.48962e-21)
(0.207482 -0.00198641 -6.72216e-20)
(0.404788 0.0125713 -1.05098e-20)
(0.64287 0.0410106 -1.07316e-21)
(0.881157 0.0775725 3.59784e-21)
(1.0777 0.111749 6.0589e-21)
(1.21213 0.135795 -2.87918e-20)
(1.28742 0.149521 5.39061e-22)
(1.31982 0.148817 1.50198e-20)
(0.00956231 -0.000833571 -5.01471e-21)
(0.0973933 -0.00824293 2.33634e-20)
(0.256745 -0.00105641 3.28814e-20)
(0.476258 0.0207193 2.05445e-20)
(0.726292 0.0568034 -6.053e-21)
(0.959706 0.0977346 -5.00759e-21)
(1.13829 0.132064 4.90787e-20)
(1.25084 0.153793 6.45324e-21)
(1.30748 0.164005 2.15123e-20)
(1.32757 0.161177 -9.05083e-21)
(0.0181378 -0.00271307 4.79826e-20)
(0.127141 -0.0101302 3.09582e-20)
(0.310508 0.00228425 -3.13658e-20)
(0.550308 0.0321508 -6.2376e-21)
(0.807141 0.0753594 3.25692e-21)
(1.03048 0.119208 -1.17948e-20)
(1.18893 0.15244 -2.52621e-20)
(1.2805 0.171204 -4.12347e-21)
(1.32096 0.177862 2.80818e-22)
(1.33114 0.173063 9.87171e-21)
(0.028201 -0.0042589 5.98487e-21)
(0.160415 -0.0105378 -1.69137e-20)
(0.368098 0.00843246 4.00403e-20)
(0.625327 0.046926 2.60134e-20)
(0.88364 0.0963228 8.09992e-22)
(1.09279 0.141603 1.82803e-20)
(1.23021 0.172681 2.67246e-21)
(1.30238 0.18804 -1.89353e-20)
(1.32918 0.191213 1.5713e-20)
(1.33159 0.184624 3.91947e-23)
(0.0397923 -0.00532999 -3.97094e-20)
(0.197017 -0.00911667 -1.16798e-20)
(0.428634 0.0176963 -1.05214e-20)
(0.699666 0.0649488 -1.82708e-20)
(0.954418 0.119304 4.31512e-21)
(1.14645 0.164596 8.68272e-23)
(1.26297 0.192669 1.39299e-20)
(1.31774 0.204354 -2.3081e-21)
(1.33325 0.204181 -1.62602e-20)
(1.32967 0.195985 -1.4799e-20)
(0.0529119 -0.00577517 3.23766e-21)
(0.236617 -0.00553337 1.89549e-20)
(0.491065 0.0302761 9.18604e-21)
(0.771775 0.0860051 -2.85765e-20)
(1.01854 0.143923 -1.39776e-21)
(1.19165 0.187935 -1.21799e-20)
(1.28814 0.212345 3.07043e-22)
(1.32767 0.220221 5.59451e-21)
(1.33405 0.216881 -6.08964e-21)
(1.32593 0.207232 1.6802e-20)
(0.0675149 -0.00543766 7.6401e-21)
(0.278761 0.00051348 -1.85952e-20)
(0.554238 0.0462548 -4.38251e-20)
(0.840301 0.109804 4.02774e-20)
(1.07544 0.169827 -2.98548e-21)
(1.2288 0.211427 8.81192e-21)
(1.30666 0.231691 -1.18484e-21)
(1.33312 0.235722 8.27918e-21)
(1.33225 0.229404 -6.54695e-22)
(1.32074 0.218423 -1.29997e-20)
(0.0835081 -0.00416105 -1.55903e-20)
(0.322873 0.00927496 2.42532e-20)
(0.616964 0.0655999 1.99577e-20)
(0.904143 0.13601 -2.87597e-20)
(1.1249 0.196699 -4.75964e-21)
(1.25847 0.234924 1.80351e-21)
(1.3194 0.25071 1.78884e-20)
(1.33486 0.25093 8.61321e-22)
(1.32834 0.241818 3.35782e-21)
(1.31434 0.229585 -7.21139e-21)
(0.10075 -0.00179607 1.18301e-20)
(0.368283 0.0209354 -1.06136e-20)
(0.678088 0.0881753 -9.04763e-21)
(0.962468 0.164269 1.54438e-20)
(1.16694 0.22426 5.30407e-21)
(1.28129 0.258316 3.97925e-21)
(1.32715 0.269415 -1.82339e-20)
(1.33352 0.265902 -6.1405e-21)
(1.32269 0.254165 -5.4144e-21)
(1.3069 0.240719 2.37674e-21)
(0.11905 0.00179208 -5.92945e-21)
(0.414249 0.0355997 -1.33899e-22)
(0.736545 0.113758 1.71274e-20)
(1.01469 0.194222 -6.25559e-21)
(1.20174 0.252262 -2.76188e-21)
(1.29791 0.281514 -1.80771e-21)
(1.33059 0.287819 4.40615e-21)
(1.32958 0.280676 7.5037e-21)
(1.31554 0.26646 -2.41104e-22)
(1.29851 0.251806 2.64553e-21)
(0.138176 0.00671662 4.18204e-21)
(0.459988 0.0532861 -1.17248e-21)
(0.791398 0.142055 -3.07307e-21)
(1.06046 0.225514 -2.77724e-21)
(1.2296 0.280479 2.485e-21)
(1.30893 0.304444 1.91824e-21)
(1.33029 0.305924 -1.75905e-21)
(1.32342 0.295267 6.2192e-22)
(1.30707 0.278692 8.6189e-22)
(1.28923 0.262811 -1.12437e-21)
(0.157859 0.0130626 2.26065e-21)
(0.504711 0.0739247 6.41789e-22)
(0.841865 0.172723 -3.8284e-21)
(1.09959 0.257795 -3.04063e-21)
(1.25091 0.30871 3.15012e-21)
(1.31491 0.327035 6.1364e-22)
(1.32672 0.323721 -1.39103e-21)
(1.3153 0.309668 1.29717e-21)
(1.29738 0.290829 7.07986e-22)
(1.27908 0.273681 -7.92236e-22)
(0.177798 0.0208814 -8.81987e-22)
(0.547651 0.0973609 1.79131e-21)
(0.88732 0.205379 1.18189e-20)
(1.13204 0.290727 -5.22985e-21)
(1.26605 0.336763 -2.53369e-21)
(1.31637 0.349213 -2.81856e-21)
(1.32027 0.341183 5.71469e-21)
(1.30542 0.32385 3.75792e-21)
(1.28655 0.302817 2.94302e-21)
(1.2681 0.28436 1.55482e-21)
(0.197675 0.0301871 1.81618e-20)
(0.588092 0.123363 -9.9445e-21)
(0.927292 0.239618 -1.1266e-20)
(1.15789 0.32398 1.52408e-20)
(1.27545 0.364457 7.9404e-21)
(1.31374 0.3709 -5.15653e-22)
(1.31123 0.358263 -9.49891e-21)
(1.29393 0.33776 -6.76007e-21)
(1.27462 0.314587 -6.83612e-21)
(1.2563 0.294778 3.95959e-21)
(0.217158 0.0409536 -2.45785e-20)
(0.625389 0.151631 2.30266e-20)
(0.961454 0.275017 2.63967e-20)
(1.17732 0.357234 -2.58379e-20)
(1.27951 0.391615 -8.85051e-21)
(1.30742 0.392009 5.57524e-21)
(1.29985 0.3749 9.95859e-21)
(1.28093 0.351328 1.5179e-21)
(1.26161 0.326047 -2.20479e-22)
(1.24367 0.304862 -5.29861e-21)
(0.235918 0.0531151 -3.54466e-21)
(0.658982 0.181808 -3.24176e-20)
(0.989607 0.311146 -3.45647e-20)
(1.19052 0.390178 3.84299e-20)
(1.27862 0.418063 -4.33315e-21)
(1.29773 0.412444 7.73887e-21)
(1.28631 0.391018 1.45757e-21)
(1.26649 0.364468 -4.16046e-21)
(1.24752 0.337098 2.22291e-21)
(1.23015 0.314532 -2.35854e-22)
(0.253633 0.0665667 7.18999e-21)
(0.688407 0.213495 2.0095e-20)
(1.01167 0.347572 1.13356e-20)
(1.19778 0.422509 -8.91683e-21)
(1.27314 0.443626 -1.36098e-20)
(1.28497 0.432098 -1.24473e-20)
(1.27078 0.406528 -2.44936e-21)
(1.25066 0.377096 6.2746e-21)
(1.23234 0.347664 -1.31596e-21)
(1.21556 0.323706 2.92855e-21)
(0.269999 0.0811675 -2.71856e-20)
(0.713301 0.246257 -2.52397e-20)
(1.02764 0.383865 -3.95576e-21)
(1.19937 0.453939 -4.47596e-21)
(1.26344 0.468129 -9.93401e-21)
(1.26939 0.450853 5.93966e-21)
(1.25339 0.421327 -1.08423e-21)
(1.23351 0.38913 -5.45213e-21)
(1.21608 0.357738 4.91077e-21)
(1.19979 0.332284 -6.62615e-21)
(0.284738 0.0967442 6.50555e-21)
(0.733402 0.279639 2.13725e-20)
(1.03761 0.419603 1.8414e-20)
(1.19563 0.484183 1.98462e-20)
(1.24982 0.491398 4.71683e-22)
(1.25121 0.468581 1.66159e-20)
(1.23425 0.435296 9.61225e-22)
(1.21509 0.400455 -1.83704e-20)
(1.19881 0.367328 1.2727e-20)
(1.18325 0.340199 4.57754e-21)
(0.297606 0.113095 1.76161e-20)
(0.748548 0.313179 3.91198e-20)
(1.04174 0.454375 -5.17055e-21)
(1.18686 0.512971 -2.49349e-20)
(1.23261 0.513259 1.11079e-20)
(1.23063 0.485152 -1.12805e-20)
(1.21346 0.44831 -1.44125e-20)
(1.19546 0.410932 -9.31089e-22)
(1.1805 0.376193 -1.01895e-20)
(1.16617 0.347473 3.73812e-21)
(0.308397 0.129996 8.20354e-21)
(0.758662 0.346415 5.96516e-21)
(1.04024 0.487787 4.81471e-20)
(1.17342 0.540041 8.82357e-21)
(1.2121 0.533539 -7.54581e-21)
(1.20784 0.500427 -3.82222e-21)
(1.19116 0.460245 2.16504e-20)
(1.17468 0.420493 1.71266e-20)
(1.16114 0.384189 8.16466e-21)
(1.14843 0.353954 -9.77139e-22)
(0.316947 0.147204 1.6859e-21)
(0.763751 0.378893 -3.98826e-20)
(1.03336 0.519464 -5.64906e-20)
(1.15563 0.565143 1.59551e-21)
(1.18856 0.552066 1.05314e-20)
(1.18304 0.514261 -1.43901e-20)
(1.16747 0.470971 -3.09828e-20)
(1.15279 0.429019 -8.80589e-21)
(1.14088 0.391226 -4.89713e-22)
(1.12999 0.35953 3.11219e-21)
(0.323136 0.16447 -1.41677e-20)
(0.763898 0.410176 3.54552e-20)
(1.02143 0.549056 3.37952e-20)
(1.13387 0.588045 -3.04439e-20)
(1.16226 0.568665 4.6887e-21)
(1.1564 0.52651 3.33811e-20)
(1.14245 0.480363 -6.55195e-21)
(1.12985 0.436399 5.5582e-21)
(1.11976 0.397207 -2.04173e-21)
(1.11089 0.364119 -2.50987e-21)
(0.326886 0.181534 -3.16796e-20)
(0.759264 0.439841 -5.59568e-20)
(1.00481 0.576248 -1.08691e-20)
(1.10844 0.60853 1.75649e-20)
(1.13346 0.583167 1.63924e-20)
(1.1281 0.537023 -3.27555e-20)
(1.11624 0.488295 1.67286e-20)
(1.10595 0.442521 -7.3666e-21)
(1.09787 0.402038 5.02925e-21)
(1.09119 0.367652 4.78014e-22)
(0.328171 0.198139 2.42063e-20)
(0.750085 0.467483 1.8533e-21)
(0.983856 0.60075 -5.34162e-21)
(1.0796 0.626369 -2.11579e-20)
(1.10244 0.595426 1.27484e-20)
(1.09832 0.545658 3.2048e-21)
(1.08895 0.494646 -8.42156e-21)
(1.0812 0.447281 2.28069e-21)
(1.07527 0.405623 -6.39609e-22)
(1.07099 0.370054 -8.37153e-22)
(0.327027 0.214039 -6.47718e-21)
(0.736671 0.492752 -8.76688e-21)
(0.95875 0.62224 2.26448e-20)
(1.04774 0.641401 1.0366e-20)
(1.06952 0.605259 -1.35898e-20)
(1.06725 0.552304 1.6607e-20)
(1.06072 0.499308 1.70614e-21)
(1.0557 0.450584 2.47728e-21)
(1.05205 0.407862 3.47708e-21)
(1.05034 0.371234 6.21142e-22)
(0.323538 0.228983 4.16604e-20)
(0.719326 0.51545 3.20145e-20)
(0.929707 0.640365 -2.66548e-21)
(1.01337 0.653424 -4.45924e-21)
(1.03493 0.612551 -5.29873e-21)
(1.03507 0.55684 -2.37545e-21)
(1.0317 0.502178 2.42675e-21)
(1.02957 0.452343 8.04573e-22)
(1.02831 0.408664 -2.8908e-21)
(1.02933 0.371097 -4.75638e-21)
(0.317774 0.242642 2.82756e-21)
(0.698199 0.535283 5.17261e-21)
(0.897412 0.65513 -2.78568e-20)
(0.97686 0.662202 1.1769e-20)
(0.998956 0.617196 1.40843e-21)
(1.00198 0.559163 -2.38815e-21)
(1.00203 0.503165 1.25448e-21)
(1.0029 0.452484 1.1519e-21)
(1.00416 0.407959 -4.37766e-21)
(1.00818 0.369591 5.8857e-21)
(0.309741 0.254732 -1.5846e-20)
(0.673534 0.551759 -1.10115e-20)
(0.862443 0.666356 8.0326e-21)
(0.938526 0.667684 1.17176e-21)
(0.961848 0.619091 -4.83858e-21)
(0.968173 0.559177 3.12789e-21)
(0.971841 0.502179 2.76317e-21)
(0.975816 0.450919 -1.11465e-20)
(0.979853 0.405683 2.55029e-20)
(0.987493 0.366747 9.97567e-21)
(0.299662 0.265036 -1.16343e-20)
(0.64581 0.564586 2.65973e-20)
(0.825124 0.673829 -1.58897e-20)
(0.898694 0.669796 -2.93073e-21)
(0.923869 0.618152 -1.13394e-21)
(0.933834 0.556804 -2.71461e-21)
(0.941258 0.499137 -9.29468e-21)
(0.948433 0.447518 4.88537e-21)
(0.955798 0.401655 -1.52805e-21)
(0.967937 0.362611 -4.70222e-21)
(0.28779 0.27354 -1.44513e-21)
(0.615474 0.57366 -8.05477e-21)
(0.785867 0.677354 3.05172e-21)
(0.857713 0.668457 -7.33305e-22)
(0.885286 0.614317 6.42376e-21)
(0.899149 0.551991 5.40119e-21)
(0.910405 0.493989 1.71418e-20)
(0.920944 0.44218 -1.2567e-20)
(0.932344 0.395515 -2.39126e-20)
(0.948817 0.356571 9.91679e-21)
(0.274252 0.280045 -1.24336e-21)
(0.582983 0.578852 -2.79802e-21)
(0.745094 0.676831 1.08112e-21)
(0.815935 0.663608 8.5106e-21)
(0.846364 0.607546 -1.36006e-20)
(0.864316 0.544706 -2.136e-20)
(0.879469 0.486731 -6.483e-21)
(0.893617 0.435015 -1.35743e-21)
(0.909494 0.387436 3.12479e-20)
(0.927405 0.344992 -7.09752e-21)
(0.259264 0.284402 2.62139e-21)
(0.548777 0.580055 -3.80854e-21)
(0.703234 0.672203 -1.12085e-22)
(0.773708 0.655212 6.04616e-22)
(0.80737 0.59781 -8.87068e-21)
(0.829553 0.534922 3.99982e-20)
(0.848703 0.477331 -2.75479e-20)
(0.866659 0.426099 3.29474e-20)
(0.88622 0.379235 -2.32172e-20)
(0.904002 0.3382 -3.05243e-20)
(0.243071 0.286503 -1.96341e-21)
(0.513288 0.577195 -3.45953e-22)
(0.660715 0.663453 1.80296e-22)
(0.731381 0.64326 1.40959e-20)
(0.768571 0.585103 -5.49779e-21)
(0.795085 0.522621 8.4368e-21)
(0.818311 0.46574 1.62683e-20)
(0.840094 0.415172 -8.57905e-21)
(0.862848 0.368855 -2.17728e-20)
(0.8817 0.32812 3.02955e-20)
(0.225927 0.286265 1.18238e-20)
(0.476948 0.570233 1.58077e-20)
(0.617954 0.650592 -1.49028e-20)
(0.689295 0.627771 -1.33143e-20)
(0.730234 0.569438 4.53496e-20)
(0.761132 0.507814 -4.59382e-20)
(0.788446 0.452003 5.47209e-20)
(0.813952 0.402449 -1.38204e-20)
(0.839625 0.357219 1.47971e-20)
(0.860192 0.317641 2.72504e-20)
(0.208091 0.283638 -4.54955e-21)
(0.440186 0.559172 -1.51279e-20)
(0.575363 0.633664 -8.61051e-21)
(0.647783 0.608789 -4.96025e-21)
(0.692623 0.550848 5.13928e-21)
(0.727913 0.490525 -1.16844e-20)
(0.759279 0.436126 -1.6413e-20)
(0.788389 0.387871 -3.52675e-20)
(0.816864 0.343973 3.49105e-20)
(0.839527 0.305754 -1.14316e-20)
(0.189825 0.278598 2.71554e-20)
(0.403423 0.54405 -3.11366e-21)
(0.533341 0.61274 -1.2053e-20)
(0.60717 0.586383 1.57751e-20)
(0.655997 0.529387 -2.83988e-20)
(0.695638 0.470797 7.52277e-20)
(0.730978 0.418156 -4.0036e-20)
(0.763574 0.371515 3.62355e-20)
(0.794788 0.329254 -6.66155e-20)
(0.819743 0.292587 -1.76266e-20)
(0.171391 0.27115 -8.96072e-21)
(0.367072 0.524942 2.87744e-20)
(0.492273 0.587924 6.88904e-21)
(0.567771 0.560644 -1.45233e-20)
(0.620609 0.505131 -2.49902e-20)
(0.664516 0.448692 -1.0722e-21)
(0.703716 0.398145 1.33631e-20)
(0.739668 0.353413 -3.24955e-20)
(0.773549 0.313046 1.6115e-20)
(0.800888 0.27808 2.15784e-21)
(0.153047 0.261326 -4.67146e-20)
(0.331532 0.50196 -1.15491e-20)
(0.45253 0.559347 -3.12376e-21)
(0.529888 0.531691 3.71913e-20)
(0.5867 0.478174 -3.44389e-20)
(0.634745 0.424289 -9.05512e-21)
(0.677664 0.376161 -5.43261e-21)
(0.716831 0.333627 1.01489e-20)
(0.753289 0.295388 -1.26778e-20)
(0.783034 0.262269 -1.98264e-20)
(0.135044 0.249185 4.09574e-20)
(0.297187 0.475245 -2.32006e-20)
(0.414466 0.527166 1.20444e-21)
(0.493808 0.499661 -5.6258e-20)
(0.554503 0.448632 6.09494e-20)
(0.60652 0.397682 -1.92718e-20)
(0.652987 0.352288 1.15575e-20)
(0.69521 0.312223 1.0003e-20)
(0.73413 0.276326 2.90381e-20)
(0.766255 0.245202 -1.18261e-20)
(0.117627 0.234811 -1.67158e-20)
(0.2644 0.444974 4.80358e-20)
(0.378414 0.491567 2.70386e-20)
(0.459803 0.464715 4.40738e-20)
(0.52424 0.416635 -1.02518e-20)
(0.580025 0.368983 4.09918e-21)
(0.629843 0.32662 3.30076e-20)
(0.674942 0.289279 7.30625e-21)
(0.71619 0.255924 7.01509e-22)
(0.75063 0.226948 -1.40855e-20)
(0.101028 0.21831 -3.79728e-20)
(0.233515 0.411352 -2.83349e-21)
(0.344687 0.45276 -1.57935e-20)
(0.42813 0.427034 -7.06902e-20)
(0.496119 0.382336 -6.82313e-20)
(0.555437 0.338321 1.14198e-20)
(0.608383 0.299266 -2.8026e-20)
(0.656159 0.264888 1.77883e-20)
(0.699578 0.234259 9.67691e-21)
(0.736234 0.207584 2.03576e-20)
(0.0854653 0.199814 5.54422e-20)
(0.204852 0.374608 -4.53362e-20)
(0.313576 0.410976 -2.29684e-20)
(0.399026 0.386817 4.08433e-20)
(0.470334 0.345901 4.631e-20)
(0.532917 0.305836 -1.52707e-20)
(0.588746 0.270349 -1.9294e-21)
(0.63898 0.239152 -5.54537e-20)
(0.684399 0.211421 -3.13676e-20)
(0.72314 0.1872 1.19355e-20)
(0.0711423 0.179473 -3.14871e-20)
(0.178703 0.335002 1.32766e-20)
(0.285346 0.366469 4.86551e-20)
(0.372708 0.344284 -2.17007e-20)
(0.447064 0.307514 1.65183e-21)
(0.512617 0.271685 6.15526e-20)
(0.571061 0.240003 2.88004e-21)
(0.623519 0.212185 5.29483e-20)
(0.670749 0.187508 2.20822e-20)
(0.711415 0.165892 -3.50862e-20)
(0.0582447 0.157456 4.33499e-20)
(0.155335 0.292813 4.74416e-21)
(0.260239 0.319513 3.11889e-21)
(0.349374 0.299667 4.42813e-20)
(0.42647 0.26737 -5.95054e-21)
(0.494675 0.236036 -3.85706e-20)
(0.555446 0.20837 1.88728e-20)
(0.609877 0.184112 -3.01262e-20)
(0.658717 0.16263 -1.26283e-20)
(0.701124 0.14376 1.27427e-20)
(0.0469393 0.13395 -2.70503e-20)
(0.134985 0.248341 -5.18351e-20)
(0.238467 0.270398 1.19275e-20)
(0.329198 0.253216 -2.33757e-20)
(0.408699 0.225681 -1.41615e-20)
(0.479212 0.199067 3.41965e-20)
(0.542006 0.175607 -8.27705e-21)
(0.598146 0.155065 7.684e-21)
(0.648383 0.136904 -9.31008e-21)
(0.692321 0.120913 1.84269e-20)
(0.0373718 0.109157 9.72574e-21)
(0.11786 0.201904 3.48351e-20)
(0.220218 0.21943 -4.82962e-20)
(0.312335 0.205192 2.28554e-20)
(0.393875 0.182666 -1.04026e-20)
(0.466336 0.160968 -2.92574e-20)
(0.530831 0.141876 2.38391e-20)
(0.588406 0.125185 5.02102e-21)
(0.639817 0.110455 -7.75466e-22)
(0.685054 0.0974587 -2.1421e-20)
(0.0296664 0.0832907 3.1644e-21)
(0.104133 0.153838 1.11604e-20)
(0.205647 0.166928 4.36134e-20)
(0.298912 0.155868 -8.34002e-21)
(0.382107 0.138557 -6.56915e-21)
(0.456138 0.121937 2.44451e-21)
(0.522002 0.107347 1.03072e-21)
(0.580727 0.0946197 8.88657e-21)
(0.63308 0.0834107 -1.16553e-20)
(0.679367 0.0735119 -7.4159e-21)
(0.0239241 0.0565762 -7.93441e-21)
(0.0939461 0.104488 -1.35876e-20)
(0.194882 0.113221 -3.38032e-20)
(0.289034 0.105525 1.69984e-20)
(0.373479 0.0935928 1.38723e-20)
(0.44869 0.0821785 5.87696e-22)
(0.515579 0.072197 -2.31575e-20)
(0.575164 0.0635218 -1.02546e-20)
(0.628221 0.0559064 8.15648e-21)
(0.675291 0.049185 8.70641e-21)
(0.0202221 0.0292471 1.37104e-21)
(0.0874081 0.0542106 -2.82558e-21)
(0.188021 0.0586489 6.42702e-21)
(0.282781 0.0544538 -4.35384e-21)
(0.368059 0.0480177 -3.81141e-21)
(0.44405 0.0419024 -2.58746e-21)
(0.511613 0.0366071 4.75268e-21)
(0.571759 0.0320486 1.80906e-20)
(0.625276 0.0280793 2.62766e-21)
(0.67285 0.0245914 -4.65333e-21)
(0.0186132 0.00154281 1.69713e-21)
(0.0845924 0.00337021 -4.66679e-21)
(0.185129 0.00355498 -5.28616e-21)
(0.280208 0.00294734 -3.66719e-21)
(0.365892 0.00208196 3.49012e-21)
(0.442255 0.0013235 1.57414e-21)
(0.510135 0.000762508 -1.56879e-21)
(0.570542 0.000361409 -7.13321e-21)
(0.62427 7.47024e-05 2.34674e-21)
(0.672051 -0.000126351 -2.19423e-21)
(0.0191251 -0.0262932 -1.68279e-21)
(0.0855381 -0.047665 4.6287e-21)
(0.186241 -0.0517119 5.24829e-21)
(0.281343 -0.0486962 -5.02314e-21)
(0.367001 -0.0439618 4.41943e-21)
(0.443327 -0.0393414 2.21173e-21)
(0.511163 -0.03515 -3.52972e-21)
(0.571528 -0.0313785 -4.09544e-21)
(0.625226 -0.0279699 6.02265e-22)
(0.672952 -0.0248731 -1.70245e-21)
(0.0217607 -0.0540163 1.84609e-21)
(0.0902494 -0.0985249 -5.51457e-21)
(0.191362 -0.106802 1.22933e-20)
(0.286189 -0.100178 -1.07939e-20)
(0.371389 -0.0898598 -5.18902e-22)
(0.447265 -0.0798745 -7.18994e-21)
(0.514698 -0.0709428 1.16701e-20)
(0.574718 -0.063009 1.58532e-20)
(0.628132 -0.055915 2.82215e-21)
(0.675502 -0.0495486 -6.07796e-21)
(0.0264974 -0.0813825 -1.56186e-21)
(0.0986954 -0.148841 -1.15621e-20)
(0.200463 -0.161366 -2.69439e-20)
(0.294723 -0.1512 2.33232e-20)
(0.379035 -0.135359 4.78601e-21)
(0.454054 -0.120058 4.25076e-21)
(0.520726 -0.106428 -2.09047e-20)
(0.580096 -0.0943662 -1.23505e-20)
(0.632978 -0.083613 -2.76141e-21)
(0.679704 -0.0740065 1.87572e-20)
(0.0332878 -0.108151 -5.49563e-21)
(0.110811 -0.198247 6.97554e-21)
(0.213486 -0.215059 4.85999e-20)
(0.306897 -0.201466 -4.39142e-21)
(0.3899 -0.180208 -1.25053e-20)
(0.463659 -0.159677 8.93999e-21)
(0.529215 -0.14142 6.79517e-22)
(0.587637 -0.125289 3.13873e-21)
(0.639741 -0.110923 -6.90232e-21)
(0.685546 -0.098133 -1.82044e-20)
(0.04206 -0.134088 -3.68572e-21)
(0.126496 -0.246386 2.01039e-20)
(0.230341 -0.26754 -4.87342e-20)
(0.322636 -0.250686 2.10458e-20)
(0.403922 -0.224161 2.11581e-22)
(0.476026 -0.19852 -2.67208e-20)
(0.54012 -0.175736 1.18417e-20)
(0.597299 -0.155619 -1.12439e-21)
(0.648383 -0.137708 4.48636e-21)
(0.693004 -0.121813 -1.28558e-21)
(0.052718 -0.158965 -4.20894e-20)
(0.145617 -0.292908 -5.04335e-20)
(0.250908 -0.318479 1.33069e-20)
(0.341841 -0.298576 -2.41208e-20)
(0.421018 -0.266976 -6.75008e-21)
(0.491086 -0.236379 1.01987e-20)
(0.553381 -0.209198 3.76135e-21)
(0.609028 -0.185202 1.38876e-20)
(0.658856 -0.163831 -2.98632e-21)
(0.702044 -0.14493 1.61867e-20)
(0.0651427 -0.182565 4.0221e-20)
(0.168007 -0.337477 2.58995e-20)
(0.275037 -0.367553 -1.9446e-20)
(0.364389 -0.344862 3.27703e-20)
(0.441085 -0.308422 -2.70687e-21)
(0.50875 -0.273055 -3.54747e-20)
(0.56892 -0.241633 6.20614e-21)
(0.622755 -0.213889 -3.77423e-20)
(0.6711 -0.189161 1.52032e-21)
(0.712626 -0.167368 1.36316e-20)
(0.0791927 -0.204685 -2.94188e-20)
(0.193469 -0.379771 5.28268e-20)
(0.302551 -0.414453 2.07627e-20)
(0.390132 -0.389278 -2.59527e-20)
(0.464001 -0.348273 3.58021e-22)
(0.528915 -0.308357 6.51829e-20)
(0.58665 -0.272877 2.87092e-21)
(0.638404 -0.241538 2.88262e-20)
(0.685046 -0.213573 3.50712e-20)
(0.724702 -0.189013 -1.96366e-20)
(0.0947058 -0.225133 1.64702e-20)