/*--------------------------------*- C++ -*----------------------------------*\
  =========                 |
  \\      /  F ield         | OpenFOAM: The Open Source CFD Toolbox
   \\    /   O peration     | Website:  https://openfoam.org
    \\  /    A nd           | Version:  7
     \\/     M anipulation  |
\*---------------------------------------------------------------------------*/
FoamFile
{
    version     2.0;
    format      ascii;
    class       volScalarField;
    location    "250";
    object      p;
}
// * * * * * * * * * * * * * * * * * * * * * * * * * * * * * * * * * * * * * //

dimensions      [0 2 -2 0 0 0 0];

internalField   nonuniform List<scalar> 
8500
(
-0.433942
-0.435763
-0.436656
-0.438253
-0.441115
-0.44546
-0.451376
-0.458935
-0.468079
-0.478875
-0.442851
-0.444125
-0.44497
-0.44678
-0.450155
-0.45537
-0.462555
-0.471836
-0.483251
-0.496793
-0.451544
-0.452222
-0.452978
-0.454949
-0.458764
-0.464744
-0.473052
-0.483847
-0.497241
-0.513037
-0.459882
-0.459929
-0.460548
-0.462613
-0.466767
-0.473381
-0.482632
-0.494689
-0.509745
-0.527206
-0.467735
-0.467121
-0.467579
-0.469642
-0.474016
-0.481106
-0.491096
-0.504132
-0.520526
-0.539065
-0.474999
-0.473728
-0.473961
-0.475935
-0.480391
-0.487779
-0.498294
-0.512042
-0.529392
-0.548458
-0.481589
-0.479687
-0.479639
-0.481419
-0.485807
-0.493303
-0.504113
-0.518282
-0.536315
-0.555294
-0.48745
-0.484963
-0.484584
-0.486063
-0.490224
-0.497625
-0.508501
-0.522792
-0.541306
-0.55958
-0.492561
-0.489555
-0.488802
-0.489873
-0.493642
-0.500745
-0.511461
-0.525576
-0.544427
-0.561418
-0.49693
-0.493491
-0.49233
-0.49289
-0.496111
-0.502713
-0.513054
-0.526705
-0.545811
-0.560956
-0.5006
-0.49683
-0.495237
-0.495196
-0.49772
-0.503631
-0.513401
-0.526315
-0.54564
-0.558418
-0.503647
-0.499653
-0.497615
-0.4969
-0.498603
-0.503653
-0.512678
-0.524615
-0.544126
-0.55414
-0.506175
-0.502065
-0.499579
-0.49814
-0.498926
-0.502983
-0.511114
-0.521896
-0.541499
-0.548439
-0.508316
-0.504187
-0.501263
-0.499072
-0.498886
-0.501862
-0.508983
-0.518522
-0.537991
-0.541792
-0.510226
-0.506155
-0.502808
-0.499868
-0.498695
-0.500561
-0.506582
-0.514917
-0.533783
-0.534921
-0.51208
-0.508115
-0.504367
-0.500704
-0.498575
-0.499358
-0.504212
-0.511496
-0.528985
-0.528298
-0.514069
-0.510221
-0.506096
-0.501759
-0.498742
-0.498516
-0.502164
-0.508581
-0.523666
-0.521972
-0.516388
-0.512626
-0.508147
-0.503204
-0.499393
-0.498255
-0.500679
-0.506323
-0.517872
-0.515561
-0.519224
-0.515478
-0.510664
-0.505189
-0.50069
-0.498731
-0.499928
-0.504659
-0.511636
-0.509025
-0.522745
-0.518908
-0.51377
-0.507835
-0.502742
-0.500015
-0.499973
-0.503348
-0.505218
-0.503775
-0.527089
-0.523025
-0.517561
-0.51122
-0.505601
-0.502098
-0.500744
-0.502109
-0.499474
-0.500552
-0.532354
-0.527908
-0.522097
-0.515382
-0.50926
-0.504904
-0.502067
-0.500834
-0.494681
-0.490505
-0.5386
-0.533604
-0.52741
-0.520316
-0.513661
-0.508313
-0.503734
-0.499542
-0.489698
-0.479888
-0.545851
-0.540132
-0.533503
-0.525994
-0.518716
-0.512182
-0.505571
-0.498101
-0.484541
-0.469987
-0.5541
-0.547495
-0.540367
-0.532372
-0.524323
-0.516368
-0.507409
-0.496413
-0.479251
-0.460534
-0.563322
-0.555684
-0.547989
-0.539401
-0.530386
-0.520731
-0.509089
-0.494418
-0.473792
-0.451682
-0.573478
-0.564684
-0.556351
-0.54703
-0.536814
-0.525132
-0.510473
-0.492067
-0.468208
-0.443218
-0.584519
-0.574475
-0.56543
-0.555206
-0.54351
-0.529421
-0.511444
-0.489334
-0.462492
-0.435076
-0.596388
-0.585027
-0.575192
-0.563862
-0.550357
-0.533444
-0.511912
-0.486199
-0.456643
-0.427131
-0.609011
-0.596294
-0.585578
-0.572908
-0.557207
-0.53705
-0.511804
-0.482641
-0.450631
-0.419291
-0.622291
-0.608204
-0.596499
-0.582217
-0.563876
-0.540092
-0.511057
-0.478633
-0.444415
-0.411455
-0.636104
-0.620651
-0.607826
-0.591619
-0.570158
-0.542433
-0.509613
-0.474139
-0.437938
-0.403526
-0.650285
-0.633486
-0.619389
-0.600891
-0.575833
-0.543942
-0.507411
-0.469112
-0.431135
-0.395412
-0.664633
-0.64652
-0.630973
-0.60977
-0.580679
-0.544494
-0.504384
-0.463494
-0.42393
-0.387022
-0.678904
-0.659518
-0.642314
-0.617962
-0.584478
-0.543969
-0.500462
-0.457217
-0.416244
-0.378267
-0.692815
-0.672205
-0.653107
-0.625158
-0.58702
-0.54225
-0.495567
-0.450206
-0.407993
-0.369065
-0.706046
-0.684269
-0.66301
-0.631047
-0.588106
-0.539221
-0.489617
-0.442382
-0.399095
-0.359337
-0.718249
-0.695365
-0.671657
-0.635328
-0.587552
-0.534773
-0.482527
-0.433664
-0.389468
-0.349012
-0.729053
-0.705129
-0.678673
-0.637717
-0.585187
-0.528799
-0.474214
-0.423972
-0.379036
-0.33803
-0.738077
-0.713179
-0.68369
-0.637954
-0.580858
-0.521198
-0.464594
-0.413228
-0.36773
-0.326345
-0.744936
-0.71913
-0.686358
-0.635807
-0.574428
-0.511878
-0.453588
-0.40136
-0.355496
-0.313924
-0.749256
-0.722607
-0.686357
-0.631073
-0.565782
-0.500755
-0.441124
-0.388299
-0.342281
-0.300737
-0.750682
-0.723251
-0.683408
-0.623589
-0.554822
-0.487758
-0.427135
-0.37398
-0.328027
-0.286729
-0.748889
-0.720737
-0.677278
-0.613223
-0.541475
-0.472835
-0.411573
-0.358352
-0.312656
-0.271745
-0.743588
-0.714779
-0.66778
-0.599885
-0.525692
-0.455946
-0.394409
-0.341396
-0.296126
-0.255526
-0.734537
-0.705149
-0.654775
-0.583517
-0.507446
-0.437069
-0.37562
-0.323119
-0.27851
-0.237967
-0.721545
-0.691672
-0.63817
-0.564096
-0.486733
-0.416193
-0.355189
-0.303515
-0.259895
-0.219612
-0.704476
-0.674232
-0.617924
-0.541634
-0.463572
-0.39333
-0.333136
-0.282593
-0.23992
-0.200831
-0.683252
-0.652769
-0.594043
-0.516177
-0.438009
-0.368521
-0.309541
-0.260427
-0.218788
-0.181308
-0.657853
-0.627286
-0.566584
-0.487813
-0.410111
-0.341848
-0.28447
-0.236967
-0.196651
-0.160962
-0.628316
-0.597843
-0.535667
-0.456668
-0.379953
-0.313405
-0.257931
-0.212295
-0.173573
-0.139821
-0.594731
-0.564571
-0.50149
-0.42283
-0.347643
-0.283244
-0.23001
-0.186495
-0.149609
-0.117966
-0.557247
-0.52767
-0.46427
-0.386257
-0.313369
-0.251496
-0.200811
-0.159661
-0.124834
-0.0955051
-0.516072
-0.487403
-0.423999
-0.347292
-0.277225
-0.218296
-0.170455
-0.131892
-0.099335
-0.072559
-0.47145
-0.444043
-0.380349
-0.30653
-0.239466
-0.183798
-0.139071
-0.103295
-0.0732004
-0.0492164
-0.423614
-0.397649
-0.334305
-0.263865
-0.200291
-0.148176
-0.106802
-0.0739787
-0.0465181
-0.0255643
-0.372827
-0.348196
-0.286702
-0.219581
-0.159889
-0.111606
-0.073787
-0.0440398
-0.019433
-0.0019725
-0.319527
-0.296429
-0.237493
-0.173977
-0.118473
-0.0742625
-0.0401365
-0.0135487
0.00776291
0.02061
-0.264181
-0.242697
-0.186851
-0.127335
-0.0762808
-0.036324
-0.00595363
0.0173972
0.0347036
0.0415025
-0.207094
-0.187483
-0.135082
-0.0799398
-0.0335585
0.00201697
0.0285929
0.0485239
0.0612489
0.0627841
-0.148703
-0.131214
-0.0825474
-0.0320861
0.00944186
0.0405438
0.0632272
0.0793681
0.0873803
0.0900928
-0.0894619
-0.0743039
-0.0296219
0.015921
0.0524648
0.0790217
0.0976635
0.10981
0.114163
0.117585
-0.0298288
-0.0171709
0.023317
0.063771
0.0952488
0.117213
0.131728
0.139962
0.141265
0.143694
0.0297377
0.039764
0.0758948
0.111152
0.137528
0.154883
0.165247
0.169701
0.168181
0.168746
0.08878
0.0960798
0.127742
0.157754
0.179038
0.191805
0.198053
0.198846
0.194519
0.192719
0.146846
0.151361
0.178497
0.203271
0.219519
0.227762
0.229967
0.227209
0.220077
0.215676
0.203494
0.205199
0.227808
0.247408
0.25872
0.262541
0.260808
0.254609
0.244697
0.237598
0.258292
0.257202
0.275333
0.289875
0.296396
0.295934
0.290398
0.280882
0.268252
0.258439
0.310827
0.306989
0.320748
0.330398
0.332313
0.327744
0.318566
0.30588
0.290626
0.278135
0.360706
0.354201
0.363743
0.368715
0.366249
0.35778
0.345148
0.329462
0.311707
0.296614
0.407556
0.3985
0.404027
0.40458
0.397995
0.385865
0.369993
0.351498
0.33139
0.313804
0.451031
0.43957
0.441331
0.437765
0.427356
0.411831
0.392958
0.371867
0.349574
0.329633
0.490814
0.477123
0.475406
0.46806
0.454153
0.435526
0.413914
0.390457
0.366166
0.344038
0.526614
0.510898
0.50603
0.495274
0.478224
0.456812
0.432743
0.407168
0.38108
0.356959
0.558178
0.540663
0.533002
0.51924
0.499425
0.475566
0.449339
0.421908
0.394241
0.368345
0.585283
0.566217
0.556153
0.539811
0.517631
0.49168
0.463611
0.434599
0.405583
0.378151
0.607741
0.587392
0.575336
0.556864
0.532737
0.505067
0.475484
0.445174
0.415048
0.38634
0.625403
0.604052
0.590436
0.570302
0.544659
0.515653
0.484895
0.453579
0.422593
0.392885
0.638156
0.616097
0.601365
0.580051
0.553334
0.523384
0.491798
0.459774
0.428184
0.397769
0.645927
0.623459
0.608068
0.586061
0.558721
0.528225
0.496162
0.463733
0.431799
0.40098
0.648679
0.626108
0.610517
0.588309
0.560798
0.530158
0.497972
0.465441
0.433425
0.402495
0.646417
0.624046
0.608714
0.5868
0.559569
0.529185
0.49723
0.4649
0.433058
0.402321
0.639184
0.617312
0.602694
0.581559
0.555057
0.525326
0.493952
0.462123
0.430715
0.400465
0.62706
0.605981
0.592519
0.572641
0.547307
0.51862
0.488171
0.45714
0.426422
0.396956
0.610166
0.590161
0.578282
0.560126
0.536387
0.509124
0.479936
0.449992
0.420211
0.391811
0.588658
0.569993
0.560106
0.544114
0.522385
0.496913
0.46931
0.440733
0.412128
0.385055
0.562729
0.545652
0.538139
0.524735
0.505409
0.482078
0.456372
0.429432
0.402228
0.376725
0.532609
0.517346
0.51256
0.502139
0.485587
0.464729
0.441214
0.416168
0.39058
0.366867
0.498557
0.485312
0.483572
0.476496
0.463066
0.444992
0.423943
0.401033
0.377259
0.355532
0.460867
0.449815
0.451402
0.448002
0.43801
0.423006
0.404679
0.384128
0.362351
0.342779
0.419862
0.411149
0.416303
0.416869
0.410602
0.398925
0.383552
0.365567
0.34595
0.328675
0.37589
0.369633
0.378548
0.383327
0.381037
0.372918
0.360705
0.345471
0.328157
0.313289
0.329324
0.325606
0.33843
0.347626
0.349527
0.345163
0.336291
0.32397
0.309081
0.296696
0.28056
0.279432
0.29626
0.310028
0.316294
0.315851
0.310472
0.301205
0.288833
0.278971
0.23001
0.231488
0.252363
0.270809
0.281573
0.285181
0.283419
0.277324
0.267534
0.260187
0.178102
0.182167
0.20708
0.230256
0.245607
0.253358
0.25531
0.252487
0.245309
0.240403
0.125274
0.131874
0.160762
0.188664
0.208646
0.220596
0.226324
0.226868
0.222311
0.219659
0.0719716
0.0810206
0.113767
0.146336
0.170949
0.18711
0.19664
0.200648
0.198729
0.197925
0.0186433
0.0300199
0.0664605
0.103579
0.132774
0.153122
0.166428
0.174005
0.174903
0.175206
-0.034263
-0.020716
0.01921
0.0606986
0.0943821
0.118862
0.135861
0.147062
0.151262
0.15118
-0.0863032
-0.0707823
-0.0276149
0.0180002
0.05603
0.0845593
0.105112
0.119756
0.128154
0.127214
-0.137032
-0.119781
-0.0736489
-0.0242199
0.0179671
0.0504396
0.074446
0.0922166
0.104694
0.108331
-0.186029
-0.167287
-0.118546
-0.0656758
-0.0195617
0.0167126
0.0441123
0.0648362
0.0808964
0.0897372
-0.233136
-0.212777
-0.162027
-0.106094
-0.0563182
-0.0164339
0.0142717
0.0378506
0.056862
0.0697353
-0.277728
-0.256045
-0.203957
-0.145205
-0.092076
-0.0488254
-0.0149667
0.0113655
0.032927
0.0488947
-0.319459
-0.296307
-0.244316
-0.18273
-0.126629
-0.0802914
-0.0434853
-0.0145329
0.00937115
0.0280224
-0.358142
-0.333851
-0.281996
-0.218459
-0.159785
-0.110662
-0.0711485
-0.0397439
-0.0136637
0.00745175
-0.393558
-0.368436
-0.316647
-0.252263
-0.19134
-0.139775
-0.0978199
-0.0641608
-0.036091
-0.0127267
-0.425484
-0.399783
-0.348493
-0.283669
-0.22115
-0.167489
-0.123375
-0.0876816
-0.0578263
-0.0324259
-0.453756
-0.427687
-0.377423
-0.312612
-0.249022
-0.19367
-0.147706
-0.110211
-0.0787863
-0.0515338
-0.478274
-0.452014
-0.403237
-0.339016
-0.274843
-0.218231
-0.170719
-0.131662
-0.0989005
-0.069949
-0.498995
-0.472694
-0.425802
-0.36277
-0.298533
-0.241106
-0.192356
-0.151954
-0.118103
-0.0876059
-0.515926
-0.489718
-0.445055
-0.383783
-0.320019
-0.262198
-0.212598
-0.171057
-0.136297
-0.104524
-0.529135
-0.503137
-0.460987
-0.402007
-0.339249
-0.281455
-0.231346
-0.188973
-0.153342
-0.120898
-0.538743
-0.51306
-0.473637
-0.417427
-0.356198
-0.298857
-0.248567
-0.205642
-0.169396
-0.136962
-0.544927
-0.519649
-0.483096
-0.430065
-0.370867
-0.314407
-0.264266
-0.221054
-0.184357
-0.151691
-0.547912
-0.523124
-0.489498
-0.439978
-0.38328
-0.328119
-0.278452
-0.235199
-0.198177
-0.165133
-0.547967
-0.523753
-0.493026
-0.447261
-0.393485
-0.340027
-0.291147
-0.24809
-0.210912
-0.177578
-0.545397
-0.521843
-0.493911
-0.452046
-0.401559
-0.350181
-0.302393
-0.259765
-0.222628
-0.189184
-0.540534
-0.517728
-0.492425
-0.454503
-0.407598
-0.35865
-0.312247
-0.270276
-0.233364
-0.199994
-0.533728
-0.511759
-0.488878
-0.454837
-0.411726
-0.365517
-0.320776
-0.27968
-0.243153
-0.210013
-0.525335
-0.504292
-0.483603
-0.453283
-0.414086
-0.370878
-0.328056
-0.288038
-0.252036
-0.219257
-0.515709
-0.495678
-0.47695
-0.450104
-0.414843
-0.37484
-0.334166
-0.295415
-0.260062
-0.227757
-0.505193
-0.48625
-0.469267
-0.445584
-0.414179
-0.377519
-0.339192
-0.301882
-0.267291
-0.235546
-0.494106
-0.476321
-0.460887
-0.44002
-0.412295
-0.379042
-0.343224
-0.307511
-0.273781
-0.242666
-0.482738
-0.46617
-0.452118
-0.433712
-0.409405
-0.379542
-0.34635
-0.312375
-0.279594
-0.249158
-0.471344
-0.456039
-0.443228
-0.426953
-0.405733
-0.379161
-0.348665
-0.316542
-0.284788
-0.255068
-0.46014
-0.446132
-0.434446
-0.42001
-0.40151
-0.378048
-0.350257
-0.320078
-0.289418
-0.260439
-0.449304
-0.43661
-0.425958
-0.413116
-0.396964
-0.376357
-0.351218
-0.323041
-0.29353
-0.265312
-0.438969
-0.427591
-0.417905
-0.406456
-0.392305
-0.374245
-0.351639
-0.325483
-0.297161
-0.269722
-0.42923
-0.419155
-0.410388
-0.400169
-0.387721
-0.371869
-0.351608
-0.327448
-0.300334
-0.2737
-0.420142
-0.411343
-0.403466
-0.394347
-0.383355
-0.369377
-0.351216
-0.328976
-0.303059
-0.277268
-0.411725
-0.404167
-0.397161
-0.389041
-0.379302
-0.366894
-0.350551
-0.3301
-0.305326
-0.280441
-0.403968
-0.397608
-0.391462
-0.384264
-0.37561
-0.364516
-0.349695
-0.330855
-0.30711
-0.283226
-0.396837
-0.391628
-0.386327
-0.379994
-0.372285
-0.36229
-0.348717
-0.331274
-0.308366
-0.285626
-0.390284
-0.386178
-0.381698
-0.376178
-0.369298
-0.360223
-0.347657
-0.331392
-0.309051
-0.287604
-0.384256
-0.381203
-0.377506
-0.372747
-0.366599
-0.35829
-0.346528
-0.331243
-0.309113
-0.289153
-0.378705
-0.376655
-0.373689
-0.369628
-0.364121
-0.356445
-0.345316
-0.330845
-0.308571
-0.289994
-0.373602
-0.372503
-0.370196
-0.366757
-0.361805
-0.354641
-0.344001
-0.330211
-0.307422
-0.290087
-0.368943
-0.368732
-0.367004
-0.364099
-0.359608
-0.352848
-0.342591
-0.329278
-0.305961
-0.287748
-0.364747
-0.365351
-0.364124
-0.361652
-0.357528
-0.351071
-0.341121
-0.327965
-0.305435
-0.273002
-0.361058
-0.3624
-0.361587
-0.359455
-0.355604
-0.349365
-0.339651
-0.326332
-0.305621
-0.266917
-0.357941
-0.359937
-0.359456
-0.357582
-0.353922
-0.34783
-0.338287
-0.324724
-0.305882
-0.265464
-0.355472
-0.358032
-0.357811
-0.356129
-0.352605
-0.346607
-0.337189
-0.323406
-0.305889
-0.265073
-0.353729
-0.356759
-0.356742
-0.355206
-0.351785
-0.34587
-0.336562
-0.32258
-0.305993
-0.265707
-0.352783
-0.356192
-0.356334
-0.354918
-0.351601
-0.345787
-0.336583
-0.322602
-0.306786
-0.267835
-0.352693
-0.356393
-0.35666
-0.355356
-0.352167
-0.346506
-0.337503
-0.323997
-0.308535
-0.271663
-0.353497
-0.357409
-0.357777
-0.356591
-0.353568
-0.348138
-0.339467
-0.326597
-0.310884
-0.278056
-0.355215
-0.359268
-0.35972
-0.358662
-0.355855
-0.350751
-0.34257
-0.330525
-0.315118
-0.286403
-0.357848
-0.36198
-0.362503
-0.361589
-0.359046
-0.354364
-0.346832
-0.335788
-0.321145
-0.296091
-0.36138
-0.36554
-0.366123
-0.365366
-0.363135
-0.358966
-0.352221
-0.342325
-0.328788
-0.306992
-0.36578
-0.369923
-0.370559
-0.369973
-0.368098
-0.364524
-0.358687
-0.350074
-0.337944
-0.319175
-0.371009
-0.375091
-0.375775
-0.375376
-0.373899
-0.370995
-0.366177
-0.358981
-0.348532
-0.33275
-0.377013
-0.380994
-0.381721
-0.381526
-0.380488
-0.378328
-0.374632
-0.368986
-0.360473
-0.347741
-0.383731
-0.387568
-0.388336
-0.388363
-0.387806
-0.386458
-0.383984
-0.380018
-0.373679
-0.364119
-0.391087
-0.394733
-0.395541
-0.395809
-0.395774
-0.395303
-0.394138
-0.391976
-0.388023
-0.381786
-0.398995
-0.402398
-0.403244
-0.403771
-0.404294
-0.404754
-0.404973
-0.404717
-0.403324
-0.400542
-0.407356
-0.410457
-0.411336
-0.412135
-0.413242
-0.414675
-0.416328
-0.418047
-0.419327
-0.420078
-0.416054
-0.418792
-0.419694
-0.42077
-0.422474
-0.424897
-0.428004
-0.431722
-0.43571
-0.439983
-0.424962
-0.427273
-0.428182
-0.429529
-0.431825
-0.435229
-0.439772
-0.445456
-0.452097
-0.459761
-0.498871
-0.51614
-0.515478
-0.475344
-0.404235
-0.340628
-0.316747
-0.329464
-0.333636
-0.292499
-0.22664
-0.165122
-0.135794
-0.119637
-0.130382
-0.156421
-0.158298
-0.124276
-0.104147
-0.0808327
-0.0736985
-0.0609952
-0.0576346
-0.076041
-0.0825852
-0.0554563
-0.0423624
-0.0498212
-0.0387509
-0.00967613
-0.521369
-0.54245
-0.543126
-0.499351
-0.418302
-0.34281
-0.305495
-0.30793
-0.308936
-0.273113
-0.214001
-0.159061
-0.135295
-0.122587
-0.136478
-0.165122
-0.167642
-0.129708
-0.105983
-0.0810167
-0.0731858
-0.0595346
-0.0557003
-0.0747827
-0.0815335
-0.0550591
-0.0422716
-0.0497651
-0.0388367
-0.00972622
-0.541838
-0.566133
-0.568045
-0.520811
-0.429835
-0.34347
-0.293357
-0.28593
-0.282947
-0.252474
-0.200234
-0.152383
-0.134406
-0.125337
-0.142328
-0.173556
-0.176526
-0.134926
-0.107664
-0.0811534
-0.0726965
-0.0582073
-0.0538783
-0.0735215
-0.0804374
-0.0546467
-0.0421572
-0.0497284
-0.0389744
-0.00977475
-0.559705
-0.586667
-0.589761
-0.539528
-0.438694
-0.342673
-0.280677
-0.263736
-0.256204
-0.230803
-0.185395
-0.145084
-0.133061
-0.12781
-0.147825
-0.18161
-0.184869
-0.139902
-0.109193
-0.0812441
-0.0722235
-0.0570153
-0.0521768
-0.0722651
-0.0793059
-0.0542213
-0.0420191
-0.0497089
-0.0391619
-0.00982122
-0.57446
-0.60375
-0.607673
-0.553652
-0.44681
-0.340975
-0.267882
-0.241558
-0.229377
-0.208316
-0.169562
-0.137171
-0.131197
-0.129925
-0.152872
-0.189178
-0.192605
-0.144611
-0.110574
-0.08129
-0.0717589
-0.055959
-0.0506018
-0.0710243
-0.0781467
-0.0537847
-0.0418573
-0.049704
-0.0393967
-0.0098651
-0.586001
-0.617273
-0.62207
-0.565133
-0.452841
-0.338402
-0.255154
-0.219865
-0.203094
-0.185213
-0.152854
-0.12866
-0.128758
-0.131604
-0.157386
-0.196166
-0.199683
-0.149029
-0.111814
-0.0812925
-0.0712944
-0.0550368
-0.0491546
-0.0698083
-0.0769685
-0.0533385
-0.0416713
-0.0497111
-0.0396758
-0.00990588
-0.594504
-0.627234
-0.632944
-0.57397
-0.457064
-0.335079
-0.242993
-0.199065
-0.178094
-0.161744
-0.135436
-0.119585
-0.125694
-0.132771
-0.161299
-0.202497
-0.206066
-0.153138
-0.11292
-0.0812529
-0.0708215
-0.0542447
-0.0478335
-0.0686263
-0.0757799
-0.0528842
-0.0414608
-0.0497277
-0.0399957
-0.00994302
-0.600028
-0.633751
-0.640344
-0.580208
-0.459757
-0.331386
-0.232044
-0.179116
-0.154897
-0.139712
-0.117529
-0.109994
-0.121963
-0.133359
-0.16456
-0.208107
-0.211729
-0.156917
-0.113899
-0.0811728
-0.0703324
-0.0535764
-0.046635
-0.0674879
-0.0745878
-0.052423
-0.0412253
-0.049751
-0.0403526
-0.00997595
-0.602742
-0.637028
-0.644424
-0.583925
-0.461156
-0.327659
-0.222069
-0.160874
-0.133711
-0.11666
-0.0993978
-0.0999468
-0.117532
-0.13331
-0.167135
-0.212953
-0.216657
-0.160353
-0.114757
-0.0810539
-0.0698197
-0.0530233
-0.0455526
-0.0664016
-0.0733979
-0.0519559
-0.0409643
-0.0497782
-0.0407422
-0.0100041
-0.602851
-0.637346
-0.645399
-0.585212
-0.461416
-0.324195
-0.21347
-0.145447
-0.113909
-0.0951415
-0.0813546
-0.0895074
-0.112375
-0.132573
-0.169003
-0.217005
-0.220844
-0.16343
-0.115502
-0.0808978
-0.0692774
-0.0525745
-0.0445769
-0.0653773
-0.0722158
-0.0514835
-0.0406771
-0.0498066
-0.0411597
-0.0100268
-0.600657
-0.635047
-0.643488
-0.584196
-0.460647
-0.321207
-0.206419
-0.132183
-0.0964785
-0.0757648
-0.0636634
-0.0787446
-0.106474
-0.131109
-0.170159
-0.220252
-0.224292
-0.166138
-0.11614
-0.0807066
-0.0687007
-0.0522176
-0.043698
-0.064422
-0.0710459
-0.0510066
-0.0403631
-0.0498331
-0.0416002
-0.0100433
-0.597334
-0.630475
-0.638889
-0.581053
-0.458955
-0.318819
-0.201007
-0.121275
-0.0813081
-0.0587948
-0.0465849
-0.067731
-0.0998175
-0.128887
-0.170608
-0.222691
-0.227008
-0.168467
-0.116678
-0.0804833
-0.0680864
-0.051939
-0.0429073
-0.0635371
-0.06989
-0.0505255
-0.0400217
-0.049855
-0.0420584
-0.010053
-0.59151
-0.623769
-0.631818
-0.575923
-0.456478
-0.317088
-0.197281
-0.112762
-0.0683417
-0.0442736
-0.0304016
-0.0565305
-0.0923956
-0.125878
-0.170364
-0.224333
-0.229005
-0.170411
-0.117125
-0.0802315
-0.0674329
-0.0517233
-0.0421966
-0.0627221
-0.0687476
-0.0500402
-0.0396522
-0.0498692
-0.0425284
-0.0100549
-0.583188
-0.615014
-0.622497
-0.568982
-0.453342
-0.316033
-0.195242
-0.106601
-0.0575814
-0.0320559
-0.0153513
-0.0451893
-0.0841963
-0.122059
-0.169449
-0.225196
-0.230295
-0.171961
-0.117478
-0.0799519
-0.0667393
-0.0515503
-0.0415567
-0.0619799
-0.0676176
-0.049551
-0.039254
-0.0498726
-0.0430046
-0.0100481
-0.574089
-0.60444
-0.61117
-0.560408
-0.449631
-0.315584
-0.194766
-0.102636
-0.0490064
-0.0218566
-0.001693
-0.033737
-0.0752027
-0.117403
-0.167888
-0.225306
-0.230895
-0.173104
-0.117725
-0.0796372
-0.066005
-0.0513969
-0.0409758
-0.0613135
-0.0664979
-0.0490574
-0.0388267
-0.049862
-0.0434824
-0.0100319
-0.56442
-0.592285
-0.598076
-0.550345
-0.445282
-0.315444
-0.195478
-0.100533
-0.0424773
-0.0133403
0.00467034
-0.0222243
-0.0653927
-0.111883
-0.165711
-0.224691
-0.230836
-0.173832
-0.117855
-0.0792843
-0.0652318
-0.0512532
-0.0404468
-0.0607154
-0.0653838
-0.0485591
-0.0383699
-0.0498342
-0.0439562
-0.0100054
-0.554285
-0.578815
-0.58356
-0.539067
-0.440351
-0.315487
-0.197187
-0.100155
-0.0379612
-0.00620998
0.0149794
-0.0106395
-0.0547369
-0.105464
-0.162946
-0.223384
-0.230152
-0.174179
-0.117952
-0.078943
-0.0644328
-0.0511479
-0.039986
-0.0601809
-0.0642672
-0.0480551
-0.0378835
-0.0497857
-0.0444123
-0.00996812
-0.543922
-0.564418
-0.568121
-0.527388
-0.435971
-0.317013
-0.201088
-0.102436
-0.0360566
-0.00089532
0.023285
0.000735233
-0.0432036
-0.0981104
-0.159604
-0.221342
-0.228707
-0.17421
-0.118193
-0.0787211
-0.063631
-0.0511116
-0.0396209
-0.0597632
-0.0631455
-0.0475443
-0.0373665
-0.0497114
-0.0448238
-0.0099178
-0.533849
-0.54915
-0.551586
-0.515404
-0.432634
-0.32064
-0.207666
-0.107681
-0.0368035
0.00264541
0.0296929
0.0113356
-0.0308494
-0.0897385
-0.155799
-0.218376
-0.226165
-0.173789
-0.118395
-0.0785082
-0.062806
-0.0509939
-0.0392633
-0.0594951
-0.0620287
-0.0470297
-0.0368168
-0.0496066
-0.0451971
-0.00985056
-0.52367
-0.533339
-0.53271
-0.498839
-0.422776
-0.317143
-0.208039
-0.108851
-0.035341
0.00799101
0.0366373
0.0220147
-0.0179064
-0.0805286
-0.151249
-0.215474
-0.223544
-0.172333
-0.117279
-0.0775302
-0.0618177
-0.0503308
-0.0385911
-0.0588823
-0.0607481
-0.0465033
-0.0362575
-0.049512
-0.0456925
-0.00976451
-0.507839
-0.517411
-0.511998
-0.475545
-0.400921
-0.299429
-0.194971
-0.0994786
-0.0269937
0.0185785
0.0486392
0.041788
0.00431881
-0.0669311
-0.149199
-0.218373
-0.224659
-0.169961
-0.114062
-0.0751587
-0.0604581
-0.0488299
-0.0372607
-0.0566034
-0.058184
-0.0455919
-0.0356855
-0.0495648
-0.046724
-0.00965808
-0.485426
-0.490631
-0.477703
-0.439705
-0.370246
-0.277025
-0.180446
-0.0909834
-0.0204825
0.0266169
0.0580068
0.0564018
0.0241873
-0.0541996
-0.143807
-0.214937
-0.218373
-0.163448
-0.109381
-0.0723458
-0.057892
-0.047095
-0.0373733
-0.0553273
-0.0569218
-0.0446015
-0.0348266
-0.0487954
-0.0475599
-0.00948049
-0.46059
-0.461146
-0.442468
-0.4046
-0.341274
-0.256562
-0.167535
-0.0836799
-0.0153896
0.0326667
0.0663369
0.0705065
0.0412642
-0.0443125
-0.13817
-0.208656
-0.209611
-0.155819
-0.104277
-0.069252
-0.0550926
-0.0453209
-0.0375477
-0.0542191
-0.0560836
-0.0434344
-0.0337993
-0.0476556
-0.0481616
-0.00930323
-0.433769
-0.430715
-0.408233
-0.371098
-0.313623
-0.23708
-0.155428
-0.0771891
-0.0115719
0.036816
0.0732262
0.0840412
0.0581651
-0.0345599
-0.132414
-0.200824
-0.198843
-0.146943
-0.0985557
-0.065877
-0.052025
-0.0434249
-0.0376507
-0.0530255
-0.0550345
-0.0420632
-0.0326873
-0.0464135
-0.0485152
-0.00912103
-0.405171
-0.400181
-0.37561
-0.339595
-0.287583
-0.218795
-0.144248
-0.0715079
-0.00891404
0.0391441
0.0779502
0.0956063
0.0738936
-0.0242891
-0.126069
-0.190686
-0.18578
-0.136837
-0.0922666
-0.0622263
-0.0486915
-0.0413555
-0.0376628
-0.051778
-0.0537467
-0.0405576
-0.031534
-0.045061
-0.048551
-0.00892628
-0.37587
-0.370213
-0.34495
-0.310388
-0.26335
-0.201746
-0.133948
-0.0665765
-0.00724077
0.039838
0.0802138
0.103962
0.0863308
-0.0140755
-0.118371
-0.177656
-0.170567
-0.125653
-0.085461
-0.0582985
-0.0450895
-0.0390718
-0.0375238
-0.0504328
-0.052288
-0.0389419
-0.030332
-0.0435227
-0.048209
-0.00871137
-0.346882
-0.341237
-0.316361
-0.283534
-0.240965
-0.185916
-0.124472
-0.0623436
-0.00639416
0.0391299
0.0799259
0.108175
0.0938903
-0.00450897
-0.10854
-0.161592
-0.153565
-0.11362
-0.0782176
-0.0540949
-0.0412229
-0.0365212
-0.0371434
-0.0489162
-0.0506533
-0.037189
-0.0290642
-0.0417691
-0.0474366
-0.00846668
-0.318743
-0.313499
-0.289781
-0.25893
-0.220378
-0.171257
-0.115757
-0.0587451
-0.00625917
0.0372724
0.0772297
0.107807
0.0961821
0.00426074
-0.0959136
-0.142638
-0.135315
-0.101046
-0.0706369
-0.0496182
-0.0370987
-0.0336422
-0.0364128
-0.0471375
-0.0487752
-0.0352634
-0.0277308
-0.0397987
-0.0461853
-0.00818057
-0.291796
-0.287148
-0.265083
-0.236397
-0.201492
-0.15771
-0.107742
-0.0557006
-0.00675224
0.0344888
0.0726496
0.10328
0.0941248
0.0124269
-0.0803087
-0.121825
-0.116544
-0.0882965
-0.0628355
-0.0448741
-0.0327273
-0.0303657
-0.0352057
-0.0449803
-0.0465608
-0.0331431
-0.0263437
-0.0376083
-0.0444137
-0.00783959
-0.266267
-0.262265
-0.24213
-0.215742
-0.184191
-0.145208
-0.100377
-0.053124
-0.00779038
0.030968
0.0667405
0.0956894
0.0892515
0.0200182
-0.062606
-0.100333
-0.0980686
-0.0757491
-0.0549358
-0.0398725
-0.0281213
-0.0266169
-0.0333802
-0.0423166
-0.0439078
-0.0308126
-0.0249111
-0.0351915
-0.0420909
-0.00742879
-0.242253
-0.238886
-0.220799
-0.19678
-0.168346
-0.133683
-0.0936118
-0.0509337
-0.00927144
0.0268854
0.0599602
0.0862853
0.0827911
0.0264665
-0.0447433
-0.0796312
-0.0806263
-0.0637325
-0.0470546
-0.0346298
-0.0232969
-0.022317
-0.0307769
-0.0389359
-0.040697
-0.0282486
-0.0234296
-0.0325433
-0.0392017
-0.00693232
-0.219791
-0.217019
-0.200989
-0.179349
-0.153836
-0.12307
-0.0873981
-0.0490558
-0.0110762
0.0224026
0.0526478
0.0760775
0.075312
0.0309515
-0.0287182
-0.0608974
-0.0647356
-0.0524833
-0.0392961
-0.0291711
-0.0182762
-0.0173913
-0.0272235
-0.0346534
-0.0367794
-0.0254152
-0.0218811
-0.0296612
-0.0357517
-0.00633459
-0.198892
-0.196659
-0.18262
-0.163311
-0.140543
-0.113303
-0.0816842
-0.0474232
-0.0130779
0.0176746
0.0450705
0.0657182
0.0670647
0.0330446
-0.0157001
-0.04482
-0.0506483
-0.0421375
-0.0317521
-0.0235359
-0.013091
-0.0117877
-0.022544
-0.0292517
-0.0319687
-0.0222668
-0.0202251
-0.0265461
-0.0317733
-0.0056223
-0.179539
-0.177782
-0.165622
-0.148554
-0.12836
-0.104318
-0.0764179
-0.0459723
-0.0151546
0.0128518
0.0374732
0.0556141
0.0583941
0.0329637
-0.00592929
-0.0315452
-0.0384038
-0.0327506
-0.0245052
-0.0177822
-0.00778513
-0.00550252
-0.0165838
-0.0225151
-0.0260485
-0.0187558
-0.0183919
-0.023203
-0.02733
-0.00478791
-0.161699
-0.160353
-0.149931
-0.13498
-0.117188
-0.0960538
-0.0715483
-0.0446436
-0.0171958
0.00808155
0.0300885
0.0460496
0.0497502
0.0312905
0.000975416
-0.0208687
-0.0279179
-0.0243257
-0.0176336
-0.0119875
-0.00241846
0.0013998
-0.00925534
-0.0142752
-0.0188014
-0.0148497
-0.0162841
-0.019644
-0.0225179
-0.00383459
-0.145326
-0.14433
-0.135487
-0.122509
-0.106942
-0.0884499
-0.0670277
-0.0433844
-0.0191056
0.00351341
0.0231204
0.037222
0.041519
0.0286195
0.00558745
-0.0124516
-0.019052
-0.0168374
-0.0112139
-0.00624397
0.00292621
0.00876812
-0.000585939
-0.00450119
-0.0100843
-0.0105441
-0.0137905
-0.0158914
-0.0174645
-0.00278143
-0.130364
-0.12966
-0.122234
-0.11107
-0.0975484
-0.0814511
-0.0628135
-0.0421498
-0.0208063
-0.000686066
0.0167192
0.0292542
0.033949
0.0254284
0.00845952
-0.00593575
-0.0116507
-0.010247
-0.00531956
-0.000655587
0.008137
0.0163243
0.00921159
0.00659496
3.62124e-05
-0.00585872
-0.0108156
-0.0119795
-0.0123253
-0.00166634
-0.116748
-0.116286
-0.110116
-0.100601
-0.0889421
-0.0750077
-0.0588703
-0.0409042
-0.0222464
-0.00447679
0.0109721
0.0222033
0.0271685
0.0220599
0.0100565
-0.000981177
-0.00555489
-0.00451007
-8.59842e-06
0.00465888
0.0130749
0.023647
0.0196183
0.0184485
0.0111346
-0.000848493
-0.00731517
-0.00796167
-0.00727393
-0.000541877
-0.104409
-0.104146
-0.0990788
-0.0910471
-0.0810702
-0.0690771
-0.05517
-0.0396242
-0.0233935
-0.00777933
0.00592588
0.0160724
0.0212208
0.0187464
0.0107509
0.00270994
-0.000607852
0.000420935
0.00469217
0.00956958
0.0176138
0.0302253
0.0297324
0.0299619
0.0222694
0.00440914
-0.00331587
-0.00391295
-0.00250234
0.000539959
-0.0932902
-0.0931836
-0.0890763
-0.0823625
-0.0738881
-0.0636248
-0.0516937
-0.0382979
-0.024235
-0.0105623
0.00159182
0.0108286
0.0160968
0.0156337
0.0108311
0.00539116
0.00334313
0.00459743
0.00878451
0.0139617
0.0216719
0.0355918
0.0384137
0.039614
0.0320633
0.00985475
0.00109085
7.41711e-05
0.0017872
0.00153208
-0.083331
-0.0833532
-0.0800647
-0.0745051
-0.06736
-0.0586247
-0.0484304
-0.0369254
-0.0247771
-0.0128292
-0.00204731
0.00641652
0.0117535
0.0128054
0.010464
0.00727198
0.00644265
0.00807729
0.0122871
0.0177455
0.0251638
0.0394621
0.0448401
0.0462856
0.039322
0.0153903
0.00571388
0.00387665
0.00541575
0.00239885
-0.074464
-0.0745913
-0.0719973
-0.0674393
-0.0614582
-0.0540594
-0.0453775
-0.0355194
-0.0250421
-0.0146039
-0.00502953
0.00276679
0.00812899
0.0103083
0.00985306
0.00853621
0.008827
0.010924
0.015226
0.0208707
0.0280146
0.0416993
0.047171
0.0496872
0.0436494
0.0206831
0.0102146
0.00656871
0.00825644
0.00312525
-0.0666329
-0.0668381
-0.0648318
-0.0611359
-0.0561631
-0.0499204
-0.0425414
-0.0341016
-0.0250647
-0.0159289
-0.00741039
-0.00019944
0.00515022
0.00815615
0.00915622
0.00934511
0.0106218
0.013205
0.0176291
0.0233439
0.0302066
0.0426161
0.0485833
0.0507166
0.0455051
0.0252211
0.0142724
0.00939082
0.0103099
0.00371702
-0.0597964
-0.0600547
-0.0585406
-0.0555755
-0.0514629
-0.0462071
-0.0399367
-0.0327027
-0.0248905
-0.0168585
-0.00925984
-0.00256438
0.00274068
0.00634062
0.00844103
0.00982594
0.0119383
0.0149894
0.019533
0.025219
0.0317761
0.0425776
0.0485752
0.0503607
0.0457045
0.0286365