/*--------------------------------*- C++ -*----------------------------------*\
  =========                 |
  \\      /  F ield         | OpenFOAM: The Open Source CFD Toolbox
   \\    /   O peration     | Website:  https://openfoam.org
    \\  /    A nd           | Version:  7
     \\/     M anipulation  |
\*---------------------------------------------------------------------------*/
FoamFile
{
    version     2.0;
    format      ascii;
    class       surfaceScalarField;
    location    "250";
    object      phi;
}
// * * * * * * * * * * * * * * * * * * * * * * * * * * * * * * * * * * * * * //

dimensions      [0 3 -1 0 0 0 0];

internalField   nonuniform List<scalar> 
16735
(
-6.74381e-05
0.00249441
-0.00242697
-0.000281046
0.00590092
-0.00568731
-0.000644604
0.00819517
-0.00783161
-0.00114325
0.00955087
-0.00905223
-0.00175277
0.010245
-0.00963547
-0.00244711
0.0105503
-0.00985594
-0.00320167
0.0106349
-0.00988035
-0.00399466
0.0105168
-0.00972383
-0.00480773
0.0100671
-0.00925408
0.00900618
-0.00817907
-0.00563484
-3.98448e-05
0.00253426
-0.000195682
0.00605676
-0.000484991
0.00848448
-0.000899493
0.00996537
-0.00141451
0.01076
-0.00199781
0.0111336
-0.00261467
0.0112518
-0.00323024
0.0111324
-0.00381228
0.0106492
0.00953021
-0.00433632
-1.07631e-05
0.00254502
-0.000103562
0.00614956
-0.00030913
0.00869005
-0.000625773
0.010282
-0.00102827
0.0111625
-0.00147789
0.0115832
-0.00192892
0.0117028
-0.00233199
0.0115354
-0.00264021
0.0109574
0.00968966
-0.00279967
1.8943e-05
0.00252608
-6.92317e-06
0.00617542
-0.000121483
0.00880461
-0.000328555
0.0104891
-0.000603048
0.011437
-0.00090013
0.0118803
-0.00116332
0.011966
-0.00132809
0.0117002
-0.00133528
0.0109646
0.00944558
-0.0010912
4.79707e-05
0.00247811
8.97968e-05
0.0061336
7.23835e-05
0.00882202
-1.59687e-05
0.0105774
-0.000150039
0.0115711
-0.000279832
0.0120101
-0.000339477
0.0120256
-0.000249956
0.0116107
7.94379e-05
0.0106352
0.00880873
0.000716294
7.53626e-05
0.00240274
0.000184531
0.00602443
0.000265941
0.00874061
0.000302544
0.0105408
0.000317975
0.0115556
0.000365982
0.0119621
0.000520317
0.0118713
0.000870053
0.011261
0.00150615
0.00999912
0.00771738
0.0025975
9.99558e-05
0.00230279
0.000273173
0.00585121
0.000452701
0.00856108
0.000616738
0.0103768
0.000787183
0.0113852
0.00102003
0.0117292
0.00139419
0.0114971
0.00200928
0.0106459
0.00296041
0.00904799
0.0061958
0.00448199
0.00012069
0.0021821
0.000352142
0.00561976
0.000625556
0.00828767
0.000915843
0.0100865
0.00124294
0.0110581
0.0016638
0.0113084
0.00226076
0.0109002
0.00314133
0.00976528
0.00439996
0.00778936
0.00424622
0.00634955
0.000136661
0.00204544
0.000418184
0.00533824
0.000777785
0.00792807
0.00118914
0.00967516
0.00167059
0.0105767
0.00227936
0.0106996
0.00309979
0.0100798
0.00424607
0.00861901
0.00580705
0.00622838
0.00186449
0.00818878
0.000147164
0.00189827
0.000468536
0.00501686
0.000903356
0.00749325
0.00142662
0.00915189
0.00205605
0.00994722
0.00284922
0.00990643
0.00389238
0.00903659
0.00530571
0.00720568
0.00717325
0.00436083
-0.00096683
0.0100046
0.000151743
0.00174653
0.000501167
0.00466744
0.000997435
0.00699698
0.00161975
0.00852957
0.00238692
0.00918006
0.00335779
0.00893556
0.00462222
0.00777217
0.00630611
0.00552178
0.00849981
0.00216713
-0.00428424
0.0118172
0.000150237
0.00159629
0.000515015
0.00430266
0.00105699
0.00645501
0.00176266
0.00782391
0.00265418
0.00828853
0.00379378
0.00779596
0.00527875
0.0062872
0.00724071
0.00355982
0.0098004
-0.000392559
-0.00814199
0.0136582
0.000142836
0.00145346
0.000510246
0.00393525
0.00108145
0.0058838
0.00185337
0.007052
0.00285452
0.00728738
0.00415378
0.0064967
0.00586225
0.00457873
0.00811848
0.00130359
0.0111097
-0.00338376
-0.0125678
0.0155355
0.000130135
0.00132332
0.000488494
0.00357689
0.0010734
0.0052989
0.0018953
0.0062301
0.0029929
0.00618978
0.00444658
0.00504302
0.00638956
0.00263575
0.00897248
-0.00127934
0.0124891
-0.00690038
-0.0176132
0.0175346
0.000113187
0.00121014
0.00045305
0.00323703
0.00103906
0.00471289
0.00189845
0.0053707
0.00308487
0.00500336
0.00469675
0.00343114
0.00689829
0.000434211
0.00986238
-0.00424342
0.0140038
-0.0110418
-0.0232388
0.0196293
9.35245e-05
0.00111661
0.000408924
0.00292163
0.000988528
0.00413329
0.0018799
0.00447933
0.0031575
0.00372576
0.00494555
0.00164309
0.00744582
-0.00206606
0.010867
-0.00766456
0.0157001
-0.0158749
-0.0293116
0.0217729
7.31223e-05
0.00104349
0.000362661
0.00263209
0.00093538
0.00356057
0.00186309
0.00355162
0.0032478
0.00234105
0.0052476
-0.000356705
0.00810023
-0.00491869
0.0120605
-0.0116248
0.0175714
-0.0213857
-0.0356055
0.0238652
5.4269e-05
0.00098922
0.000321865
0.00236449
0.000895509
0.00298692
0.0018755
0.00257163
0.00339801
0.000818537
0.00566069
-0.00261938
0.00892574
-0.00818373
0.0134793
-0.0161784
0.0195347
-0.0274411
-0.0418508
0.02578
3.93294e-05
0.00094989
0.000294371
0.00210945
0.000885258
0.00239604
0.00194481
0.00151208
0.00364834
-0.000884992
0.00623285
-0.0052039
0.00996213
-0.011913
0.0150948
-0.0213111
0.0214468
-0.0337931
-0.0478163
0.0274122
3.04202e-05
0.00091947
0.000287218
0.00185266
0.000919123
0.00176413
0.00209449
0.00033671
0.00402904
-0.00281954
0.00698936
-0.00816423
0.0112063
-0.01613
0.0168086
-0.0269134
0.0231547
-0.0401392
-0.053383
0.0287214
2.90745e-05
0.000890396
0.000305674
0.00157606
0.00100763
0.00106218
0.0023399
-0.000995558
0.00455436
-0.005034
0.00792509
-0.011535
0.0126044
-0.0208092
0.0184813
-0.0327903
0.0246421
-0.0462999
-0.0598014
0.0310605
3.60804e-05
0.000854315
0.00035259
0.00125955
0.00115595
0.000258817
0.00268601
-0.00252562
0.00521989
-0.00756788
0.00900447
-0.0153195
0.01406
-0.0258648
0.0199919
-0.0387221
0.0259519
-0.05226
-0.0654406
0.0315911
5.14974e-05
0.000802818
0.000428248
0.000882796
0.00136367
-0.000676609
0.00312738
-0.00428932
0.00600341
-0.0104439
0.0101676
-0.0194838
0.0154599
-0.0311571
0.021265
-0.0445272
0.0267976
-0.0577926
-0.0702057
0.0315627
7.47203e-05
0.000728098
0.000530723
0.000426793
0.00162562
-0.0017715
0.00364987
-0.00631358
0.00686866
-0.0136627
0.0113407
-0.0239559
0.0167063
-0.0365226
0.0222212
-0.0500422
0.0271915
-0.0627628
-0.074286
0.0312718
0.000104698
0.0006234
0.000656601
-0.00012511
0.00193332
-0.00304822
0.00423321
-0.00861347
0.00777049
-0.0172
0.012448
-0.0286334
0.0177252
-0.0417998
0.0228251
-0.055142
0.0272034
-0.0671412
-0.077733
0.0306505
0.000140241
0.000483159
0.000801778
-0.000786647
0.0022765
-0.00452295
0.00485344
-0.0111904
0.00866026
-0.0210068
0.0134231
-0.0333962
0.0184724
-0.0468491
0.0230831
-0.0597528
0.0268729
-0.070931
-0.0806266
0.0297666
0.000180264
0.000302895
0.000962123
-0.00156851
0.00264419
-0.00620502
0.00548472
-0.0140309
0.00949092
-0.025013
0.0142163
-0.0381216
0.0189318
-0.0515646
0.0230212
-0.0638422
0.0262611
-0.074171
-0.0830507
0.0286851
0.000223897
7.89983e-05
0.00113375
-0.00247836
0.00302512
-0.00809639
0.00610063
-0.0171065
0.0102214
-0.0291337
0.0147978
-0.042698
0.0191098
-0.0558766
0.0226797
-0.0674121
0.0254229
-0.0769142
-0.0850783
0.0274505
0.000270475
-0.000191477
0.00131298
-0.00352086
0.00340773
-0.0101911
0.00667542
-0.0203741
0.0108197
-0.033278
0.0151558
-0.047034
0.0190278
-0.0597486
0.0221026
-0.0704869
0.0244082
-0.0792198
-0.0867772
0.0261071
0.000319452
-0.000510929
0.00149614
-0.00469754
0.00378012
-0.0124751
0.00718549
-0.0237795
0.011265
-0.0373575
0.0152937
-0.0510627
0.0187158
-0.0631708
0.0213337
-0.0731048
0.0232604
-0.0811465
-0.0882019
0.0246851
0.000370265
-0.000881194
0.00167933
-0.00600661
0.0041301
-0.0149259
0.00761105
-0.0272605
0.0115472
-0.0412937
0.0152254
-0.0547409
0.0182074
-0.0661527
0.0204132
-0.0753106
0.0220144
-0.0827477
-0.0893966
0.0232091
0.000422239
-0.00130343
0.00185824
-0.00744261
0.00444572
-0.0175134
0.0079374
-0.0307521
0.0116662
-0.0450226
0.0149717
-0.0580464
0.0175361
-0.0687171
0.0193757
-0.0771502
0.0206984
-0.0840703
-0.0903949
0.0216967
0.000474535
-0.00177797
0.00202822
-0.00899629
0.004716
-0.0202012
0.00815571
-0.0341918
0.0116291
-0.048496
0.0145565
-0.0609738
0.0167334
-0.0708939
0.0182509
-0.0786677
0.0193338
-0.0851533
-0.091222
0.0201609
0.000526143
-0.00230411
0.00218439
-0.0106545
0.00493178
-0.0229486
0.00826294
-0.037523
0.0114486
-0.0516816
0.0140047
-0.0635299
0.0158275
-0.0727168
0.0170625
-0.0799027
0.0179373
-0.086028
-0.0918958
0.0186111
0.000575914
-0.00288003
0.00232199
-0.0124006
0.00508632
-0.0257129
0.00826109
-0.0406978
0.0111401
-0.0545606
0.0133402
-0.0657299
0.0148429
-0.0742196
0.01583
-0.0808898
0.0165211
-0.0867191
-0.0924286
0.0170539
0.000622627
-0.00350265
0.00243667
-0.0142147
0.0051757
-0.0284519
0.00815609
-0.0436782
0.0107209
-0.0571254
0.0125852
-0.0675942
0.0138001
-0.0754345
0.0145683
-0.081658
0.0150944
-0.0872453
-0.0928286
0.0154944
0.000665052
-0.0041677
0.00252479
-0.0160744
0.00519883
-0.031126
0.00795663
-0.0464359
0.010208
-0.0593768
0.0117595
-0.0691457
0.012716
-0.0763911
0.0132892
-0.0822311
0.0136641
-0.0876202
-0.0931008
0.0139363
0.000702019
-0.00486972
0.00258363
-0.017956
0.00515713
-0.0336995
0.00767304
-0.0489519
0.00961809
-0.0613218
0.0108803
-0.0704079
0.0116045
-0.0771153
0.0120016
-0.0826282
0.0122352
-0.0878538
-0.0932484
0.0123828
0.000732477
-0.0056022
0.00261154
-0.0198351
0.00505402
-0.0361419
0.0073164
-0.0512142
0.00896633
-0.0629718
0.00996234
-0.071404
0.0104766
-0.0776296
0.0107125
-0.082864
0.0108117
-0.087953
-0.093273
0.0108363
0.000755539
-0.00635774
0.00260794
-0.0216875
0.0048944
-0.0384284
0.00689787
-0.0532177
0.00826645
-0.0643403
0.00901784
-0.0721553
0.00934114
-0.0779529
0.00942713
-0.08295
0.00939657
-0.0879224
-0.0931757
0.0092993
0.000770512
-0.00712825
0.00257325
-0.0234902
0.00468412
-0.0405393
0.00642821
-0.0549618
0.00753052
-0.0654427
0.00805697
-0.0726818
0.00820491
-0.0781008
0.00814955
-0.0828947
0.00799225
-0.0877651
-0.0929568
0.00777336
0.000776917
-0.00790517
0.00250872
-0.025222
0.00442949
-0.04246
0.00591744
-0.0564497
0.00676895
-0.0662942
0.00708804
-0.0730009
0.00707331
-0.0780861
0.00688285
-0.0827042
0.0066007
-0.087483
-0.0926151
0.00625899
0.000774485
-0.00867965
0.0024163
-0.0268638
0.00413696
-0.0441807
0.0053747
-0.0576875
0.00599068
-0.0669102
0.00611784
-0.073128
0.00595058
-0.0779188
0.00562931
-0.0823829
0.0052234
-0.0870771
-0.0921491
0.00475737
0.000763159
-0.00944281
0.0022984
-0.0283991
0.00381278
-0.0456951
0.00480815
-0.0586829
0.00520323
-0.0673052
0.00515189
-0.0730767
0.00484029
-0.0776072
0.00439097
-0.0819336
0.00386105
-0.0865472
-0.0915572
0.00326915
0.00074308
-0.0101859
0.00215771
-0.0298137
0.00346294
-0.0470003
0.00422497
-0.0594449
0.00441289
-0.0674932
0.0041947
-0.0728585
0.00374561
-0.0771581
0.00317079
-0.0813588
0.00251354
-0.0858899
-0.0908352
0.00179157
0.000714609
-0.0109005
0.0019974
-0.0310965
0.003093
-0.0480959
0.00363137
-0.0599832
0.00362482
-0.0674866
0.00324971
-0.0724834
0.00266891
-0.0765773
0.00197262
-0.0806625
0.0011855
-0.0851028
-0.0899499
0.000300143
0.000678273
-0.0115788
0.00182053
-0.0322387
0.00270805
-0.0489834
0.00303273
-0.0603079
0.00284331
-0.0672972
0.00231963
-0.0719597
0.00161117
-0.0758689
0.000794619
-0.0798459
-9.14422e-05
-0.0842167
-0.0889354
-0.0011059
0.000634728
-0.0122135
0.00163
-0.033234
0.00231266
-0.0496661
0.00243364
-0.0604289
0.00207184
-0.0669354
0.00140686
-0.0712947
0.000573148
-0.0750351
-0.000365545
-0.0789073
-0.0013931
-0.0831892
-0.0878325
-0.00249605
0.000584731
-0.0127982
0.00142862
-0.0340779
0.0019109
-0.0501484
0.00183796
-0.060356
0.00131323
-0.0664107
0.00051289
-0.0704944
-0.000440791
-0.0740815
-0.00149185
-0.0778562
-0.00264547
-0.0820355
-0.0866074
-0.00387058
0.000529125
-0.0133274
0.00121905
-0.0347678
0.00150648
-0.0504358
0.00124878
-0.0600983
0.000569938
-0.0657318
-0.00035972
-0.0695647
-0.00142759
-0.0730136
-0.00259826
-0.0766855
-0.00386991
-0.0807639
-0.0852563
-0.00522092
0.000468809
-0.0137962
0.00100388
-0.0353029
0.00110261
-0.0505345
0.000668865
-0.0596645
-0.000156306
-0.0649066
-0.00120809
-0.068513
-0.00239214
-0.0718296
-0.00367851
-0.0753992
-0.00506775
-0.0793746
-0.0837808
-0.00654332
0.000404683
-0.0142009
0.000785689
-0.0356839
0.000701975
-0.0504508
0.000105111
-0.0590677
-0.000862299
-0.0639392
-0.00203513
-0.0673401
-0.00333185
-0.0705328
-0.00473134
-0.0739997
-0.00623757
-0.0778684
-0.0821828
-0.00783559
0.000337629
-0.0145385
0.000566905
-0.0359132
0.000309004
-0.0501929
-0.000453592
-0.0583051
-0.00155053
-0.0628423
-0.00283898
-0.0660517
-0.00424565
-0.0691262
-0.00575601
-0.0724893
-0.00737787
-0.0762466
-0.0804647
-0.00909597
0.000268798
-0.0148073
0.00034911
-0.0359935
-6.82724e-05
-0.0497755
-0.000992332
-0.057381
-0.00221878
-0.0616158
-0.00361903
-0.0646514
-0.00513292
-0.0676123
-0.00675195
-0.0708703
-0.00848743
-0.0745111
-0.0786304
-0.0103217
0.000199133
-0.0150064
0.000137479
-0.0359319
-0.000468227
-0.0491698
-0.00151992
-0.0563293
-0.00286595
-0.0602698
-0.00437455
-0.0631428
-0.00599313
-0.0659937
-0.0077187
-0.0691447
-0.00956516
-0.0726646
-0.0766869
-0.0115086
0.000127076
-0.0151335
-7.18729e-05
-0.0357329
-0.000841142
-0.0484006
-0.00203137
-0.0551391
-0.0034917
-0.0588095
-0.00510491
-0.0615296
-0.00682574
-0.0642729
-0.00865562
-0.0673148
-0.0106099
-0.0707103
-0.0746398
-0.012657
4.98075e-05
-0.0151833
-0.000305978
-0.0353771
-0.00120522
-0.0475013
-0.0025247
-0.0538196
-0.00409537
-0.0572388
-0.00580983
-0.0598152
-0.00763048
-0.0624522
-0.0095623
-0.065383
-0.011622
-0.0686506
-0.0724849
-0.0137769
-2.75652e-05
-0.0151557
-0.000521394
-0.0348833
-0.00155818
-0.0464645
-0.00299948
-0.0523783
-0.00467612
-0.0555622
-0.00648897
-0.0580023
-0.00840786
-0.0605333
-0.0104403
-0.0633506
-0.0126018
-0.066489
-0.0702183
-0.0148684
-9.88529e-05
-0.0150569
-0.000727596
-0.0342545
-0.00189836
-0.0452938
-0.00345547
-0.0508212
-0.00523337
-0.0537843
-0.0071418
-0.0560939
-0.00915854
-0.0585166
-0.0112935
-0.0612156
-0.0135457
-0.0642368
-0.0678608
-0.0159033
-0.000171204
-0.0148857
-0.000926411
-0.0334993
-0.00222497
-0.0439952
-0.00389206
-0.0491541
-0.00576649
-0.0519098
-0.00776726
-0.0540931
-0.00988012
-0.0564037
-0.0121189
-0.0589768
-0.0144903
-0.0618655
-0.0655773
-0.0167738
-0.000242252
-0.0146434
-0.00111804
-0.0326236
-0.00253751
-0.0425757
-0.00430879
-0.0473828
-0.00627511
-0.0499435
-0.00836438
-0.0520039
-0.0105672
-0.0542009
-0.0128833
-0.0566607
-0.0152683
-0.0594805
-0.0627308
-0.0181148
-0.000311346
-0.0143321
-0.00130213
-0.0316328
-0.00283565
-0.0410422
-0.00470536
-0.0455131
-0.00675913
-0.0478897
-0.00893262
-0.0498304
-0.0112164
-0.0519171
-0.0136047
-0.0542725
-0.0161149
-0.0569702
-0.0599081
-0.0189376
-0.000378132
-0.0139539
-0.00147825
-0.0305326
-0.00311907
-0.0394014
-0.00508151
-0.0435507
-0.00721824
-0.045753
-0.00947187
-0.0475767
-0.0118354
-0.0495536
-0.0143127
-0.0517952
-0.0169405
-0.0543424
-0.0570689
-0.0197797
-0.000442338
-0.0135116
-0.00164599
-0.029329
-0.0033875
-0.0376599
-0.00543703
-0.0415011
-0.00765206
-0.043538
-0.00998129
-0.0452475
-0.0124204
-0.0471144
-0.0149794
-0.0492363
-0.0176905
-0.0516313
-0.0541862
-0.0205732
-0.000503725
-0.0130079
-0.00180497
-0.0280278
-0.00364068
-0.0358242
-0.00577176
-0.03937
-0.00806051
-0.0412492
-0.0104613
-0.0428467
-0.0129732
-0.0446026
-0.0156091
-0.0466004
-0.0183943
-0.048846
-0.0512475
-0.021333
-0.000562077
-0.0124458
-0.00195489
-0.0266349
-0.00387843
-0.0339007
-0.00608558
-0.0371629
-0.00844344
-0.0388914
-0.0109117
-0.0403784
-0.0134922
-0.0420222
-0.016199
-0.0438936
-0.0190523
-0.0459927
-0.0482461
-0.0220538
-0.000617201
-0.0118286
-0.0020955
-0.0251566
-0.00410055
-0.0318956
-0.00637838
-0.0348851
-0.00880077
-0.036469
-0.0113323
-0.0378468
-0.0139772
-0.0393773
-0.0167498
-0.0411209
-0.0196678
-0.0430747
-0.0451805
-0.0227334
-0.000668927
-0.0111597
-0.00222657
-0.023599
-0.00430692
-0.0298153
-0.0066501
-0.0325419
-0.00913245
-0.0339866
-0.011723
-0.0352562
-0.0144279
-0.0366725
-0.0172617
-0.0382871
-0.0202408
-0.0400956
-0.0420521
-0.0233693
-0.000717102
-0.0104426
-0.00234792
-0.0219682
-0.00449741
-0.0276658
-0.00690067
-0.0301386
-0.00943839
-0.0314489
-0.0120836
-0.032611
-0.014844
-0.0339121
-0.0177346
-0.0353965
-0.0207712
-0.037059
-0.0388636
-0.0239597
-0.000761594
-0.00968098
-0.00245939
-0.0202704
-0.00467194
-0.0254532
-0.00713006
-0.0276805
-0.00971853
-0.0288604
-0.012414
-0.0299155
-0.0152255
-0.0311006
-0.0181684
-0.0324536
-0.0212584
-0.033969
-0.0356187
-0.0245033
-0.000802289
-0.00887869
-0.00256087
-0.0185118
-0.00483043
-0.0231836
-0.00733821
-0.0251727
-0.00997279
-0.0262258
-0.0127141
-0.0271742
-0.0155722
-0.0282425
-0.0185628
-0.029463
-0.0217019
-0.0308299
-0.032322
-0.0249987
-0.000839087
-0.0080396
-0.00265222
-0.0166987
-0.00497282
-0.0208631
-0.00752509
-0.0226205
-0.0102011
-0.0235498
-0.0129836
-0.0243917
-0.0158837
-0.0253424
-0.0189175
-0.0264292
-0.0221011
-0.0276463
-0.028978
-0.0254451
-0.000871904
-0.0071677
-0.00273338
-0.0148372
-0.00509906
-0.0184974
-0.00769068
-0.0200288
-0.0104035
-0.020837
-0.0132226
-0.0215726
-0.0161601
-0.0224049
-0.0192323
-0.0233569
-0.0224556
-0.024423
-0.025592
-0.0258416
-0.000900664
-0.00626704
-0.00280425
-0.0129336
-0.00520911
-0.0160925
-0.00783494
-0.017403
-0.0105798
-0.0180921
-0.0134309
-0.0187215
-0.016401
-0.0194348
-0.0195069
-0.020251
-0.0227649
-0.021165
-0.0221692
-0.0261877
-0.000925309
-0.00534173
-0.00286478
-0.0109941
-0.00530294
-0.0136544
-0.00795784
-0.0147481
-0.01073
-0.01532
-0.0136084
-0.0158431
-0.0166064
-0.0164368
-0.019741
-0.0171164
-0.0230286
-0.0178774
-0.0187148
-0.026483
-0.000945784
-0.00439594
-0.0029149
-0.00902503
-0.0053805
-0.0111888
-0.00805938
-0.0120692
-0.0108541
-0.0125253
-0.013755
-0.0129422
-0.0167761
-0.0134157
-0.0199345
-0.013958
-0.0232467
-0.0145653
-0.0152344
-0.0267271
-0.000962051
-0.00343389
-0.00295458
-0.0070325
-0.00544179
-0.00870155
-0.00813953
-0.00937149
-0.010952
-0.00971288
-0.0138707
-0.0100234
-0.0169101
-0.0103763
-0.0200873
-0.0107808
-0.0234188
-0.0112337
-0.0117334
-0.0269199
-0.000974075
-0.00245982
-0.00298379
-0.00502278
-0.00548678
-0.00619856
-0.00819826
-0.00666001
-0.0110237
-0.00688747
-0.0139554
-0.00709168
-0.0170081
-0.0073236
-0.0201992
-0.00758972
-0.023545
-0.00788791
-0.00821714
-0.0270612
-0.000981832
-0.00147799
-0.00300249
-0.00300212
-0.00551544
-0.00368561
-0.00823558
-0.00393987
-0.0110691
-0.00405391
-0.0140091
-0.0041517
-0.0170703
-0.00426243
-0.0202701
-0.00438989
-0.023625
-0.00453302
-0.00469112
-0.027151
-0.000985308
-0.000492678
-0.00301067
-0.000976756
-0.00552777
-0.00116851
-0.00825145
-0.0012162
-0.0110884
-0.00121699
-0.0140317
-0.00120831
-0.0170965
-0.00119769
-0.0203001
-0.00118631
-0.0236588
-0.00117428
-0.001161
-0.0271889
-0.000984493
0.000491816
-0.00300832
0.00104707
-0.00552376
0.00134692
-0.00824587
0.00150591
-0.0110813
0.00161845
-0.0140233
0.00173367
-0.0170867
0.0018657
-0.0202889
0.00201595
-0.0236465
0.00218324
0.0023663
-0.0271738
-0.00097939
0.00147121
-0.00299544
0.00306312
-0.0055034
0.00385488
-0.00821882
0.00422133
-0.011048
0.0044476
-0.0139837
0.00466944
-0.017041
0.0049229
-0.0202371
0.00521211
-0.0235887
0.00553479
0.00588991
-0.0271123
-0.000970006
0.00244121
-0.00297203
0.00506514
-0.00546668
0.00634954
-0.0081703
0.00692496
-0.0109883
0.00726564
-0.0139131
0.00759418
-0.0169592
0.00796898
-0.0201441
0.00839702
-0.0234843
0.00887506
0.00940165
-0.0269961
-0.000956359
0.00339757
-0.00293809
0.00704688
-0.0054136
0.00882504
-0.0081003
0.00961166
-0.0109024
0.0100677
-0.0138113
0.0105031
-0.0168414
0.010999
-0.02001
0.0115656
-0.0233337
0.0121988
0.0128962
-0.0268282
-0.000938472
0.00433604
-0.00289367
0.00900207
-0.00534416
0.0112755
-0.00800879
0.0122763
-0.0107902
0.0128491
-0.0136784
0.0133914
-0.0166875
0.0140082
-0.0198348
0.0147129
-0.0231369
0.0155009
0.0163682
-0.026609
-0.000916382
0.00525243
-0.00283877
0.0109245
-0.00525837
0.0136951
-0.00789579
0.0149137
-0.0106516
0.0156049
-0.0135144
0.0162542
-0.0164978
0.0169915
-0.0196188
0.0178339
-0.0228941
0.0187762
0.0198123
-0.0263381
-0.000890133
0.00614256
-0.00277345
0.0128078
-0.00515624
0.0160779
-0.00776128
0.0175187
-0.0104867
0.0183304
-0.0133194
0.0190869
-0.0162721
0.0199442
-0.0193618
0.0209236
-0.0226052
0.0220196
0.023223
-0.0260159
-0.000859779
0.00700234
-0.00269776
0.0146458
-0.00503779
0.018418
-0.00760526
0.0200862
-0.0102956
0.0210207
-0.0130933
0.0218846
-0.0160106
0.0228615
-0.0190641
0.0239771
-0.0222705
0.0252259
0.0265949
-0.0256424
-0.000825387
0.00782772
-0.00261175
0.0164321
-0.00490304
0.0207093
-0.00742774
0.0226109
-0.0100782
0.0236711
-0.0128363
0.0246428
-0.0157134
0.0257386
-0.0187259
0.0269896
-0.0218902
0.0283902
0.0299229
-0.0252181
-0.000787038
0.00861476
-0.00251553
0.0181606
-0.00475203
0.0229458
-0.00722873
0.0250876
-0.00983448
0.0262768
-0.0125484
0.0273568
-0.0153806
0.0285708
-0.0183472
0.0299561
-0.0214646
0.0315076
0.0332016
-0.0247433
-0.000744823
0.00935958
-0.00240917
0.019825
-0.00458481
0.0251214
-0.00700823
0.027511
-0.0095646
0.0288332
-0.0122297
0.0300219
-0.0150124
0.0313535
-0.0179284
0.0328721
-0.0209941
0.0345732
0.0364262
-0.0242187
-0.000698852
0.0100584
-0.00229279
0.0214189
-0.00440142
0.02723
-0.00676628
0.0298759
-0.00926855
0.0313355
-0.0118803
0.0326337
-0.0146089
0.034082
-0.0174696
0.0357329
-0.0204791
0.0375827
0.0395922
-0.0236451
-0.000649252
0.0107077
-0.00216656
0.0229362
-0.00420196
0.0292654
-0.00650289
0.0321768
-0.00894637
0.033779
-0.0115003
0.0351876
-0.0141702
0.0367519
-0.0169712
0.0385339
-0.0199202
0.0405317
0.0426955
-0.0230234
-0.000596171
0.0113039
-0.00203062
0.0243706
-0.00398651
0.0312213
-0.00621813
0.0344084
-0.00859812
0.036159
-0.0110897
0.0376792
-0.0136965
0.0393587
-0.0164332
0.0412706
-0.0193177
0.0434161
0.0457328
-0.022355
-0.000539776
0.0118436
-0.00188521
0.0257161
-0.00375522
0.0330913
-0.00591204
0.0365653
-0.00822386
0.0384708
-0.0106488
0.0401042
-0.0131881
0.041898
-0.0158558
0.0439383
-0.018672
0.0462324
0.0487021
-0.0216413
-0.000480259
0.0123239
-0.00173056
0.0269664
-0.00350824
0.034869
-0.0055847
0.0386417
-0.00782368
0.0407097
-0.0101778
0.0424583
-0.0126451
0.0443653
-0.0152387
0.0465319
-0.0179828
0.0489764
0.0516035
-0.0208841
-0.000417836
0.0127417
-0.00156697
0.0281155
-0.00324578
0.0365478
-0.00523624
0.0406322
-0.00739763
0.0428711
-0.0096766
0.0447372
-0.0120679
0.0467566
-0.0145817
0.0490457
-0.017248
0.0516427
0.0544409
-0.0200854
-0.000352749
0.0130945
-0.00139481
0.0291576
-0.00296808
0.0381211
-0.00486679
0.0425309
-0.00694589
0.0449502
-0.00914562
0.046937
-0.0114576
0.0490686
-0.0138867
0.0514747
-0.0164665
0.0542225
0.0572253
-0.0192509
-0.000285266
0.0133797
-0.0012145
0.0300868
-0.00267546
0.039582
-0.00447654
0.044332
-0.00646856
0.0469423
-0.00858455
0.0490529
-0.0108133
0.0512973
-0.0131511
0.0538126
-0.0156163
0.0566877
0.0599833
-0.0183744
-0.000215691
0.0135954
-0.00102652
0.0308976
-0.00236824
0.0409238
-0.00406577
0.0460295
-0.00596603
0.0488425
-0.00799415
0.0510811
-0.0101377
0.0534409
-0.0123975
0.0560724
-0.0147385
0.0590287
0.0627573
-0.0175125
-0.000144426
0.0137399
-0.000831402
0.0315846
-0.00204682
0.0421392
-0.00363477
0.0476174
-0.0054386
0.0506464
-0.00737452
0.053017
-0.00942473
0.0554911
-0.0116015
0.0582492
-0.0139158
0.0613429
0.0650368
-0.0161953
-7.22857e-05
0.0138121
-0.000629532
0.0321419
-0.00171164
0.0432213
-0.00318392
0.0490897
-0.00488644
0.0523489
-0.00672625
0.0548568
-0.00867762
0.0574425
-0.0107494
0.060321
-0.0129453
0.0635388
0.0673542
-0.0152627
-4.38001e-06
0.0138165
-0.000420523
0.032558
-0.00136334
0.0441641
-0.00271381
0.0504402
-0.00431001
0.0539451
-0.00605033
0.0565971
-0.00790101
0.0592932
-0.0098688
0.0622888
-0.0119722
0.0656423
0.0695704
-0.0141884
7.6838e-05
0.0137397
-0.000201414
0.0328363
-0.00100289
0.0449656
-0.00222509
0.0516624
-0.00370996
0.05543
-0.00534768
0.0582348
-0.00709675
0.0610422
-0.00896096
0.064153
-0.0109587
0.06764
0.0716712
-0.0130595
0.000150541
0.0135891
3.23572e-05
0.0329544
-0.00063198
0.0456299
-0.00171819
0.0527486
-0.00308696
0.0567987
-0.00461881
0.0597667
-0.00626421
0.0626876
-0.00802267
0.0659115
-0.00990995
0.0695273
0.0736574
-0.0118961
0.000219097
0.0133701
0.000230337
0.0329432
-0.000250061
0.0461103
-0.0011943
0.0536928
-0.00244192
0.0580463
-0.00386408
0.0611888
-0.00540304
0.0642266
-0.00705296
0.0675614
-0.00882702
0.0713014
0.0755318
-0.0107014
0.000286538
0.0130835
0.000445983
0.0327838
0.000142001
0.0464143
-0.000656442
0.0544913
-0.00177556
0.0591655
-0.00308401
0.0624973
-0.00451365
0.0656562
-0.00605238
0.0691001
-0.00770995
0.0729589
0.0772899
-0.00946806
0.000352957
0.0127306
0.000662425
0.0324743
0.000526408
0.0465503
-0.000102006
0.0551197
-0.00108857
0.060152
-0.00227929
0.063688
-0.00359667
0.0669736
-0.00502172
0.0705252
-0.00656002
0.0744972
0.0789257
-0.00819579
0.000416491
0.0123141
0.000877677
0.0320131
0.000922853
0.0465052
0.000459773
0.0555828
-0.000383138
0.0609949
-0.00145076
0.0647556
-0.00265283
0.0681757
-0.00396168
0.071834
-0.00537872
0.0759143
0.0804353
-0.00688835
0.00047618
0.0118379
0.00108979
0.0313995
0.00132248
0.0462725
0.00103556
0.0558697
0.000341319
0.0616892
-0.000599745
0.0656967
-0.00168313
0.0692591
-0.00287308
0.073024
-0.00416749
0.0772087
0.0818162
-0.00554838
0.000531179
0.0113067
0.00129613
0.0306345
0.00172202
0.0458466
0.00162064
0.0559711
0.001083
0.0622268
0.000273195
0.0665065
-0.000689383
0.0702216
-0.00175709
0.0740917
-0.00292788
0.0783795
0.0830663
-0.00417799
0.000580593
0.0107261
0.00149394
0.0297212
0.00211818
0.0452223
0.00221155
0.0558777
0.00183969
0.0625987
0.00116938
0.0671768
0.000328366
0.0710627
-0.000617361
0.0750374
-0.00165989
0.079422
0.084186
-0.00277958
0.000623574
0.0101025
0.00168048
0.0286643
0.00250713
0.0443957
0.00280486
0.05558
0.00260852
0.062795
0.00208373
0.0677016
0.00137326
0.0717731
0.000549644
0.075861
-0.000353712
0.0803254
0.0851936
-0.00136132
0.000659363
0.00944318
0.00185289
0.0274708
0.00288454
0.043364
0.0033964
0.0550681
0.00338632
0.0628051
0.00301483
0.0680731
0.00243716
0.0723508
0.00174176
0.0765564
0.000953166
0.081114
0.0861105
3.62835e-05
0.000687316
0.00875586
0.00200823
0.0261498
0.0032456
0.0421267
0.00398119
0.0543325
0.00416919
0.0626171
0.00396001
0.0682823
0.00352006
0.0727908
0.00295276
0.0771237
0.0023007
0.081766
0.0868293
0.00158188
0.000706921
0.00804894
0.00214331
0.0247135
0.003585
0.040685
0.00455342
0.0533641
0.00495232
0.0622182
0.004916
0.0683186
0.00462029
0.0730865
0.00418554
0.0775585
0.00366916
0.0822824
0.0874113
0.0030871
0.000717854
0.00733108
0.0022552
0.0231761
0.00389698
0.0390432
0.00510638
0.0521547
0.00572989
0.0615947
0.00587866
0.0681698
0.00573482
0.0732303
0.00543593
0.0778574
0.00505212
0.0826662
0.0878576
0.00460584
0.000719996
0.00661109
0.00234128
0.0215548
0.00417543
0.037209
0.00563238
0.0506977
0.00649488
0.0607322
0.00684273
0.067822
0.00685979
0.0732133
0.00670042
0.0780167
0.00644973
0.0829169
0.0881684
0.00613896
0.000713432
0.00589766
0.00239927
0.019869
0.00441398
0.0351943
0.00612273
0.048989
0.00723893
0.059616
0.00780176
0.0672591
0.00799083
0.0730242
0.00797629
0.0780313
0.00786072
0.0830325
0.0883442
0.00768493
0.000698467
0.00519919
0.00242747
0.01814
0.00460623
0.0330156
0.0065678
0.0470274
0.00795217
0.0582316
0.00874789
0.0664634
0.0091227
0.0726494
0.00926038
0.0778936
0.00928285
0.08301
0.0883849
0.00924218
0.000675628
0.00452356
0.00242489
0.0163907
0.00474607
0.0306944
0.00695714
0.0448163
0.00862316
0.0565656
0.00967149
0.0654151
0.0102488
0.0720721
0.0105485
0.0775939
0.0107133
0.0828453
0.0882894
0.0108087
0.000645656
0.00387791
0.00239148
0.0146449
0.00482812
0.0282578
0.00727977
0.0423647
0.00923877
0.0546066
0.0105609
0.0640929
0.0113606
0.0712724
0.0118353
0.0771191
0.0121484
0.0825321
0.0880553
0.0123825
0.000609489
0.00326842
0.00232821
0.0129262
0.00484818
0.0257378
0.00752455
0.0396883
0.00978429
0.0523469
0.0114021
0.0624752
0.0124474
0.0702271
0.0131137
0.0764528
0.013584
0.0820619
0.0876791
0.0139603
0.000568229
0.00270019
0.00223713
0.0112573
0.00480385
0.0231711
0.00768082
0.0368113
0.0102436
0.0497841
0.0121784
0.0605403
0.0134959
0.0689096
0.0143748
0.0755739
0.0150142
0.0814224
0.0871553
0.015538
0.000523092
0.00217709
0.00212133
0.00965904
0.00469498
0.0205974
0.00773921
0.0337671
0.0105996
0.0469238
0.0128707
0.0582692
0.0144894
0.0672908
0.0156066
0.0744567
0.0164317
0.0805973
0.0864761
0.0171108
0.000475367
0.00170173
0.00198479
0.00814962
0.00452414
0.0180581
0.00769269
0.0305986
0.0108351
0.0437814
0.0134571
0.0556472
0.0154079
0.0653401
0.016794
0.0730706
0.0178265
0.0795648
0.08563
0.0186727
0.00042635
0.00127538
0.00183219
0.00674378
0.00429677
0.0155935
0.00753775
0.0273576
0.0109338
0.0403853
0.0139139
0.0526671
0.016227
0.063027
0.0179178
0.0713798
0.0191856
0.078297
0.0846002
0.0202154
0.0003773
0.000898078
0.00166859
0.00545249
0.00402101
0.0132411
0.00727553
0.0241031
0.0108822
0.0367786
0.0142158
0.0493335
0.0169186
0.0603243
0.0189533
0.069345
0.0204916
0.0767588
0.0833634
0.0217283
0.000329376
0.000568701
0.0014991
0.00428276
0.00370721
0.011033
0.00691269
0.0208976
0.0106712
0.03302
0.0143383
0.0456665
0.0174506
0.0572119
0.0198707
0.066925
0.0217214
0.074908
0.0818881
0.0231967
0.000283577
0.000285125
0.00132857
0.00323777
0.00336699
0.00899456
0.00646161
0.017803
0.0102985
0.0291831
0.014259
0.041706
0.0177886
0.0536823
0.0206336
0.06408
0.0228454
0.0726963
0.0801327
0.0246007
0.000240678
4.44471e-05
0.00116121
0.00231723
0.00301221
0.00714356
0.00593962
0.0148755
0.00977056
0.0253522
0.0139615
0.0375151
0.0178972
0.0497466
0.0212002
0.0607769
0.0238257
0.0700708
0.0780451
0.0259134
0.000201163
-0.000156716
0.00100032
0.00151807
0.00265377
0.00549011
0.00536723
0.0121621
0.00910352
0.0216159
0.0134387
0.0331799
0.0177437
0.0454416
0.0215238
0.0569968
0.0246158
0.0669789
0.0755618
0.027099
0.000165169
-0.000321885
0.000847996
0.000835247
0.00230054
0.00403756
0.00476561
0.00969702
0.00832248
0.018059
0.0126961
0.0288063
0.0173027
0.0408349
0.021556
0.0527435
0.0251602
0.0633747
0.0726106
0.0281114
0.00013246
-0.000454346
0.000705062
0.000262646
0.00195874
0.00278388
0.00415395
0.00750181
0.00745857
0.0147544
0.011754
0.0245109
0.0165613