/*--------------------------------*- C++ -*----------------------------------*\
  =========                 |
  \\      /  F ield         | OpenFOAM: The Open Source CFD Toolbox
   \\    /   O peration     | Website:  https://openfoam.org
    \\  /    A nd           | Version:  7
     \\/     M anipulation  |
\*---------------------------------------------------------------------------*/
FoamFile
{
    version     2.0;
    format      ascii;
    class       volVectorField;
    location    "250";
    object      U;
}
// * * * * * * * * * * * * * * * * * * * * * * * * * * * * * * * * * * * * * //

dimensions      [0 1 -1 0 0 0 0];

internalField   nonuniform List<vector> 
8500
(
(-0.00228476 0.0714566 1.14859e-21)
(-0.00940233 0.155662 -3.28286e-21)
(-0.0228053 0.19906 -3.81809e-21)
(-0.039667 0.21359 3.79655e-21)
(-0.0584627 0.21094 -3.51094e-21)
(-0.0777486 0.200048 -1.88847e-21)
(-0.0963561 0.185788 3.2645e-21)
(-0.113476 0.169298 4.1404e-21)
(-0.128282 0.149196 -7.10128e-22)
(-0.140277 0.122321 2.08651e-21)
(-0.00465637 0.0729089 -1.26428e-21)
(-0.0134096 0.160302 3.90239e-21)
(-0.0258181 0.206479 -9.34221e-21)
(-0.0405072 0.222909 8.47932e-21)
(-0.0564991 0.22117 3.36055e-22)
(-0.0725785 0.210328 6.23629e-21)
(-0.0875478 0.195466 -1.10238e-20)
(-0.100386 0.177935 -1.64611e-20)
(-0.110071 0.156562 -3.38347e-21)
(-0.115573 0.128481 7.79853e-21)
(-0.00704943 0.073462 1.22617e-21)
(-0.0174945 0.163253 8.84085e-21)
(-0.0288018 0.21204 2.06561e-20)
(-0.0410422 0.230474 -1.87106e-20)
(-0.0537884 0.2298 -4.33149e-21)
(-0.0660676 0.21909 -3.92435e-21)
(-0.0766663 0.203594 2.03279e-20)
(-0.0843599 0.184877 1.26857e-20)
(-0.0879521 0.162026 3.10869e-21)
(-0.0855819 0.132431 -2.42938e-20)
(-0.0093811 0.0730875 4.37333e-21)
(-0.0215298 0.164396 -5.15538e-21)
(-0.031665 0.215557 -3.90978e-20)
(-0.0412368 0.236048 3.38721e-21)
(-0.0503574 0.236578 1.07372e-20)
(-0.058317 0.226093 -8.56806e-21)
(-0.0639173 0.209949 -2.17977e-22)
(-0.0657455 0.189918 -3.66179e-21)
(-0.0625573 0.165399 8.31067e-21)
(-0.0512241 0.13394 2.50049e-20)
(-0.0115721 0.0717937 3.10339e-21)
(-0.0253893 0.163676 -1.71052e-20)
(-0.0343228 0.216876 4.0769e-20)
(-0.0410784 0.239427 -1.87144e-20)
(-0.0462667 0.241282 -5.13722e-23)
(-0.0494713 0.231125 2.62799e-20)
(-0.0495543 0.214359 -1.21449e-20)
(-0.0449277 0.192928 1.46337e-21)
(-0.0345032 0.166463 -5.13042e-21)
(-0.013483 0.133064 2.17418e-21)
(-0.0135474 0.069626 3.69369e-20)
(-0.0289605 0.161094 4.4221e-20)
(-0.036707 0.215902 -1.1183e-20)
(-0.0405674 0.240442 2.14622e-20)
(-0.0416027 0.243716 6.90098e-21)
(-0.0397033 0.234007 -9.70217e-21)
(-0.0338543 0.216691 -3.79488e-21)
(-0.0223565 0.193848 -1.75707e-20)
(-0.00431152 0.165309 3.80286e-21)
(0.0269871 0.129663 -2.40246e-20)
(-0.0152463 0.0666633 -3.56213e-20)
(-0.0321411 0.15671 -2.30898e-20)
(-0.038762 0.212607 1.89828e-20)
(-0.0397226 0.238972 -3.28753e-20)
(-0.0364685 0.243711 3.9249e-21)
(-0.0292008 0.234576 3.94167e-20)
(-0.0170854 0.216833 -7.13035e-21)
(0.00167996 0.192667 4.89081e-20)
(0.0274163 0.162127 -5.93436e-22)
(0.0697662 0.123588 -2.11719e-20)
(-0.0166258 0.0630179 3.02304e-20)
(-0.0348501 0.150651 -5.40539e-20)
(-0.0404461 0.207029 -2.14064e-20)
(-0.0385762 0.23495 2.50155e-20)
(-0.0309797 0.241131 9.62463e-22)
(-0.0181574 0.232679 -7.40709e-20)
(0.000490255 0.21467 -4.64148e-21)
(0.0269186 0.189348 -3.84406e-20)
(0.060296 0.156909 -5.1344e-20)
(0.1147 0.11508 3.13481e-20)
(-0.0176644 0.0588303 -1.69651e-20)
(-0.0370352 0.143111 7.99672e-21)
(-0.0417351 0.199273 1.9831e-20)
(-0.0371678 0.228366 -1.78554e-20)
(-0.0252541 0.235875 -6.28678e-20)
(-0.0067615 0.228173 2.1914e-20)
(0.0186284 0.210069 3.26213e-21)
(0.0531579 0.183842 5.80092e-20)
(0.0940815 0.14969 7.94157e-20)
(0.162001 0.104326 -3.68536e-20)
(-0.0183645 0.0542617 2.68436e-20)
(-0.0386769 0.134335 2.41932e-20)
(-0.0426235 0.189517 -3.44919e-21)
(-0.0355383 0.219276 8.87286e-20)
(-0.0193989 0.227887 3.77935e-20)
(0.00482039 0.22093 2.87671e-20)
(0.0371255 0.202871 4.1943e-20)
(0.0802747 0.176056 -1.8927e-20)
(0.12868 0.1404 -2.66003e-20)
(0.21229 0.0914945 -4.55956e-20)
(-0.018754 0.0494854 -2.4002e-21)
(-0.0397909 0.124616 -3.80449e-20)
(-0.043122 0.17801 -2.73487e-20)
(-0.0337195 0.207812 -4.38503e-20)
(-0.0134878 0.217169 -3.50842e-20)
(0.0164768 0.210853 3.55496e-20)
(0.0558656 0.192905 -3.49366e-20)
(0.108261 0.165859 -2.49648e-20)
(0.16424 0.128813 3.2913e-21)
(0.266628 0.0767384 1.18821e-20)
(-0.0188848 0.0446769 -7.38312e-20)
(-0.0404257 0.11427 3.49499e-20)
(-0.04325 0.165059 2.53605e-20)
(-0.031715 0.194184 1.68732e-20)
(-0.00752656 0.203807 -3.09478e-20)
(0.0282072 0.197906 -2.672e-20)
(0.0749111 0.180028 3.92442e-20)
(0.137317 0.153121 -3.2681e-20)
(0.201356 0.114582 -1.44607e-21)
(0.326485 0.0602261 -3.66637e-20)
(-0.0188294 0.0400042 6.17103e-20)
(-0.040655 0.103628 2.47886e-20)
(-0.0430208 0.15102 1.45047e-21)
(-0.0294724 0.178688 -3.08293e-20)
(-0.00140083 0.187988 2.29993e-21)
(0.0402066 0.182162 3.46429e-20)
(0.094644 0.164196 -1.01001e-20)
(0.168009 0.137785 -1.26231e-20)
(0.241417 0.0973949 -3.0256e-20)
(0.393338 0.0422894 5.57399e-20)
(-0.0186737 0.0356167 4.1467e-20)
(-0.0405636 0.0930066 -6.69524e-20)
(-0.0424198 0.136282 -5.12987e-20)
(-0.0268459 0.161699 2.21486e-20)
(0.00518911 0.170022 4.52746e-20)
(0.052974 0.163845 3.85927e-20)
(0.115933 0.145553 -4.19785e-20)
(0.201467 0.119941 8.38657e-20)
(0.287038 0.0772713 -2.55839e-20)
(0.469738 0.0240469 -6.56488e-20)
(-0.0185072 0.0316352 -6.24623e-20)
(-0.0402263 0.0826934 3.73868e-20)
(-0.0413759 0.121243 -1.76419e-20)
(-0.0235535 0.143663 1.85125e-21)
(0.0127975 0.150349 1.87747e-20)
(0.0674204 0.143367 -6.09427e-20)
(0.14027 0.124524 5.54462e-20)
(0.239513 0.0998663 -5.46091e-20)
(0.341884 0.0548744 9.22142e-20)
(0.556243 0.0063691 3.46365e-20)
(-0.01841 0.0281424 1.30685e-20)
(-0.0396838 0.0729227 7.21065e-20)
(-0.0397305 0.106286 -1.79772e-20)
(-0.0191376 0.125071 1.82064e-20)
(0.0222859 0.129537 2.10399e-20)
(0.0849336 0.121348 -6.23703e-21)
(0.169766 0.101887 4.66988e-20)
(0.284661 0.0780804 1.84736e-21)
(0.409948 0.031846 -5.9772e-20)
(0.651449 -0.00939435 8.16398e-20)
(-0.018439 0.0251755 -3.51496e-20)
(-0.0389172 0.0638602 -6.82028e-20)
(-0.0372122 0.091754 5.89367e-20)
(-0.0129443 0.106437 2.93602e-20)
(0.0348315 0.108245 -1.36603e-19)
(0.107352 0.0985971 1.11807e-19)
(0.206958 0.078739 -1.02862e-19)
(0.339802 0.05543 1.14034e-21)
(0.493915 0.0106506 -2.4927e-20)
(0.751148 -0.0219631 -7.60706e-20)
(-0.0186139 0.0227216 3.01794e-20)
(-0.0378282 0.05559 -4.00371e-21)
(-0.0334255 0.0779234 -1.44838e-20)
(-0.00413436 0.0882486 -1.74849e-21)
(0.0518617 0.0871769 -8.34787e-21)
(0.136781 0.0760486 -3.58106e-20)
(0.254368 0.056368 1.58106e-20)
(0.407554 0.0332095 -2.47407e-20)
(0.593245 -0.00601883 7.34342e-21)
(0.849088 -0.0305505 1.85749e-21)
(-0.0189076 0.0207188 -6.15628e-20)
(-0.0362294 0.0481105 -4.31625e-21)
(-0.0278603 0.0649844 6.63377e-21)
(0.00826262 0.0709358 2.68495e-21)
(0.0749118 0.0670194 4.45937e-20)
(0.175286 0.0546731 -1.30343e-19)
(0.313913 0.0360501 8.91845e-20)
(0.489288 0.0132222 -6.74327e-20)
(0.703254 -0.0160505 5.95048e-20)
(0.93922 -0.0357518 6.80327e-20)
(-0.0192421 0.0190634 -7.37084e-21)
(-0.0338478 0.0413388 3.41319e-20)
(-0.0199245 0.0530297 -4.25695e-20)
(0.0252593 0.0548319 -1.32807e-20)
(0.105427 0.0483795 2.55986e-20)
(0.224501 0.035385 1.23883e-19)
(0.386379 0.0188417 -2.52596e-20)
(0.584151 -0.00239914 1.24055e-20)
(0.816197 -0.0190121 -6.78618e-20)
(1.01868 -0.0407311 3.02173e-20)
(-0.0194931 0.0176231 -2.23036e-20)
(-0.0303413 0.0351267 -1.72915e-20)
(-0.00899015 0.042058 4.2871e-21)
(0.0478057 0.0401601 1.67605e-20)
(0.144561 0.0317496 -4.95626e-20)
(0.285281 0.0189748 -2.00939e-20)
(0.471099 0.00552244 -6.38698e-20)
(0.688508 -0.0118636 6.70856e-20)
(0.92395 -0.0173986 7.21241e-20)
(1.08911 -0.0491533 -3.22332e-20)
(-0.0195009 0.0162553 -1.05918e-20)
(-0.025323 0.0292859 4.33662e-20)
(0.00555601 0.0319946 -4.83056e-20)
(0.0766957 0.027044 -5.64873e-21)
(0.193021 0.0175032 -2.28022e-20)
(0.357484 0.00607278 4.98628e-20)
(0.565883 -0.00332851 6.4862e-20)
(0.796473 -0.0148479 -6.26304e-20)
(1.02065 -0.0152818 6.6902e-20)
(1.17764 -0.0448026 8.7191e-21)
(-0.0190847 0.0148242 -3.07746e-20)
(-0.0183895 0.0236216 -8.75442e-20)
(0.024272 0.0227295 8.53889e-20)
(0.112506 0.0155445 1.22599e-20)
(0.250988 0.00592672 1.79073e-20)
(0.439917 -0.00286484 1.09658e-20)
(0.667184 -0.00736161 4.94883e-20)
(0.901785 -0.0126702 3.66714e-20)
(1.1091 -0.00997557 -1.31011e-19)
(1.24873 -0.0329723 -6.40669e-20)
(-0.0180559 0.0132189 -1.05434e-19)
(-0.00914381 0.01797 2.12236e-20)
(0.0476349 0.0141657 -4.83177e-20)
(0.155566 0.00571668 9.40313e-21)
(0.318084 -0.0027305 1.50172e-20)
(0.530444 -0.00756385 -1.08798e-19)
(0.77064 -0.00664212 4.81653e-20)
(1.00025 -0.00634393 -3.28927e-20)
(1.18566 -0.00120973 3.46598e-20)
(1.3011 -0.0195555 -1.19021e-20)
(-0.0162302 0.0113668 3.81477e-20)
(0.00278809 0.0122306 4.12052e-20)
(0.0760287 0.00626829 -2.38702e-21)
(0.205958 -0.00233023 -1.32235e-20)
(0.393388 -0.00821698 4.71454e-22)
(0.626205 -0.00794849 1.06358e-21)
(0.871968 -0.00158603 -7.33515e-20)
(1.08886 0.00333281 9.27044e-21)
(1.24909 0.00986333 9.14274e-20)
(1.34212 -0.00496896 4.14439e-20)
(-0.0134359 0.00924028 -2.5847e-20)
(0.0177461 0.00638931 -1.91494e-20)
(0.109738 -0.000897247 8.24124e-20)
(0.263503 -0.00839037 2.12822e-21)
(0.47546 -0.0102817 -3.46795e-20)
(0.723964 -0.00414139 9.32247e-20)
(0.967601 0.00721334 2.04709e-20)
(1.16594 0.015562 1.0633e-21)
(1.30025 0.022623 -4.00906e-20)
(1.37099 0.0100847 -5.18684e-20)
(-0.00951779 0.0068576 5.4089e-20)
(0.0360272 0.000528826 -1.50726e-20)
(0.148934 -0.00714454 -9.02563e-21)
(0.327744 -0.0121532 -3.42913e-20)
(0.562408 -0.00871903 5.63906e-20)
(0.820512 0.00356679 -2.76294e-20)
(1.05498 0.0191092 -3.11653e-20)
(1.23109 0.0296899 -7.46433e-21)
(1.34 0.0364666 -2.28075e-20)
(1.39126 0.0252309 2.48944e-20)
(-0.00433772 0.0042774 -1.99155e-20)
(0.0578755 -0.00517354 -1.18579e-19)
(0.193653 -0.012168 1.23636e-20)
(0.397917 -0.0132366 4.28132e-20)
(0.652016 -0.00342721 3.06515e-20)
(0.91303 0.0147715 -1.02224e-19)
(1.13259 0.0334855 6.5438e-20)
(1.28467 0.0451704 -2.97732e-20)
(1.36998 0.0509904 4.4849e-20)
(1.4043 0.040403 1.23114e-20)
(0.00222576 0.0015916 -2.18466e-20)
(0.0834695 -0.0104578 4.20797e-20)
(0.243765 -0.0155651 5.50442e-20)
(0.472928 -0.0112519 -3.95664e-20)
(0.741943 0.00555852 1.4734e-20)
(0.999314 0.0290131 -8.99998e-20)
(1.19982 0.0497934 -1.69486e-20)
(1.32762 0.061583 1.407e-20)
(1.3917 0.065926 -3.40898e-20)
(1.41198 0.0554928 -3.45209e-20)
(0.010276 -0.00108158 -2.82327e-20)
(0.112906 -0.0149985 -9.57729e-21)
(0.298939 -0.0168758 -9.98165e-20)
(0.551389 -0.00587671 -1.56858e-20)
(0.829946 0.0180707 -1.70983e-21)
(1.07786 0.0458242 5.34997e-21)
(1.25673 0.0675684 9.37833e-21)
(1.36111 0.0786151 -4.41127e-20)
(1.40668 0.081104 7.94204e-22)
(1.41553 0.0705277 2.37953e-20)
(0.019895 -0.00360417 -7.36592e-21)
(0.146184 -0.0184259 3.45737e-20)
(0.358617 -0.0156305 4.87848e-20)
(0.631691 0.00309074 3.05714e-20)
(0.914067 0.0338417 -9.08467e-21)
(1.1478 0.0647613 -7.48106e-21)
(1.30383 0.086433 7.41862e-20)
(1.38644 0.0960482 9.83178e-21)
(1.41623 0.096436 3.32014e-20)
(1.41603 0.0855162 -1.43256e-20)
(0.0311388 -0.00582345 7.0347e-20)
(0.183184 -0.0203464 4.57079e-20)
(0.422016 -0.0114 -4.63986e-20)
(0.712136 0.0157104 -9.26042e-21)
(0.992756 0.0525435 4.80943e-21)
(1.20882 0.0854238 -1.75605e-20)
(1.34193 0.106091 -3.80083e-20)
(1.40484 0.113737 -6.34131e-21)
(1.42148 0.11188 5.07168e-22)
(1.41421 0.100498 1.54894e-20)
(0.0440311 -0.00757591 8.61642e-21)
(0.223663 -0.0203636 -2.49245e-20)
(0.488152 -0.00383821 5.90748e-20)
(0.791072 0.0319101 3.85523e-20)
(1.0649 0.0738219 1.12298e-21)
(1.261 0.107461 2.73007e-20)
(1.37195 0.126319 4.03749e-21)
(1.41744 0.131592 -2.87009e-20)
(1.42332 0.127422 2.4304e-20)
(1.41065 0.115496 -3.28944e-23)
(0.058557 -0.00869098 -5.78789e-20)
(0.267243 -0.0180988 -1.71041e-20)
(0.55589 0.00729016 -1.55145e-20)
(0.867008 0.0515116 -2.70223e-20)
(1.1298 0.0973198 6.29849e-21)
(1.30472 0.130575 1.45423e-22)
(1.39483 0.146949 2.09162e-20)
(1.42524 0.14956 -3.32736e-21)
(1.42246 0.143065 -2.4997e-20)
(1.4057 0.130532 -2.33254e-20)
(0.0746581 -0.00899532 4.68804e-21)
(0.313418 -0.0132114 2.765e-20)
(0.624015 0.0220981 1.3408e-20)
(0.938691 0.0742608 -4.19817e-20)
(1.18711 0.122692 -2.13185e-21)
(1.3405 0.154512 -1.80004e-20)
(1.41149 0.16786 4.67939e-22)
(1.42906 0.167613 8.47318e-21)
(1.41943 0.15881 -9.42291e-21)
(1.39962 0.145608 2.63513e-20)
(0.0922287 -0.00831796 1.09755e-20)
(0.361566 -0.00541795 -2.70212e-20)
(0.691305 0.0405792 -6.39469e-20)
(1.00513 0.0998537 5.89488e-20)
(1.23675 0.149614 -4.40256e-21)
(1.36898 0.179063 1.30271e-20)
(1.42274 0.188959 -1.80342e-21)
(1.42957 0.185729 1.25293e-20)
(1.41461 0.174654 -9.27272e-22)
(1.39257 0.160714 -2.04261e-20)
(0.111115 -0.0064963 -2.23363e-20)
(0.410973 0.00549209 3.51063e-20)
(0.756596 0.06262 2.90888e-20)
(1.06562 0.127956 -4.19551e-20)
(1.27884 0.177781 -6.93566e-21)
(1.39079 0.204049 2.65312e-21)
(1.42933 0.210176 2.6634e-20)
(1.42729 0.203891 1.35796e-21)
(1.40827 0.190584 5.22789e-21)
(1.38463 0.175826 -1.12705e-20)
(0.131116 -0.00338283 1.69463e-20)
(0.460857 0.0196451 -1.53059e-20)
(0.818837 0.0880167 -1.30357e-20)
(1.11965 0.158217 2.23862e-20)
(1.31364 0.206911 7.7398e-21)
(1.40658 0.229317 5.8489e-21)
(1.43185 0.231448 -2.71185e-20)
(1.42264 0.222074 -9.34143e-21)
(1.4006 0.206574 -8.3979e-21)
(1.37585 0.190907 3.70328e-21)
(0.151989 0.00114796 -8.41545e-21)
(0.510406 0.037077 -1.98634e-22)
(0.877117 0.116492 2.46631e-20)
(1.16696 0.190277 -9.05876e-21)
(1.34149 0.236743 -3.99124e-21)
(1.41692 0.254729 -2.63207e-21)
(1.43084 0.252715 6.56577e-21)
(1.41591 0.240245 1.13887e-20)
(1.3917 0.222584 -3.64087e-22)
(1.36624 0.205908 4.20264e-21)
(0.173454 0.00719315 5.928e-21)
(0.558804 0.0577331 -1.66562e-21)
(0.930685 0.147713 -4.40932e-21)
(1.20741 0.223778 -3.99469e-21)
(1.36277 0.26703 3.60207e-21)
(1.42235 0.280158 2.81641e-21)
(1.42669 0.273911 -2.60098e-21)
(1.40733 0.258357 9.52042e-22)
(1.38166 0.238559 1.34326e-21)
(1.35581 0.22077 -1.79592e-21)
(0.1952 0.014816 3.16243e-21)
(0.605268 0.0814711 9.04508e-22)
(0.978947 0.181304 -5.44299e-21)
(1.24102 0.258362 -4.3461e-21)
(1.3779 0.297539 4.53757e-21)
(1.42335 0.305478 8.88958e-22)
(1.41976 0.294966 -2.0967e-21)
(1.39706 0.276351 1.97712e-21)
(1.3705 0.254428 1.11431e-21)
(1.34457 0.235423 -1.29503e-21)
(0.2169 0.0240419 -1.24084e-21)
(0.649068 0.108069 2.53703e-21)
(1.02146 0.216856 1.67377e-20)
(1.26789 0.293674 -7.4441e-21)
(1.38728 0.328046 -3.66545e-21)
(1.42033 0.330567 -4.15202e-21)
(1.41029 0.315797 8.54528e-21)
(1.3852 0.294152 5.78827e-21)
(1.35825 0.270106 4.66438e-21)
(1.3325 0.249797 2.56618e-21)
(0.238211 0.0348562 2.52791e-20)
(0.689549 0.137234 -1.39686e-20)
(1.05793 0.253944 -1.59505e-20)
(1.28819 0.329369 2.16685e-20)
(1.3913 0.358334 1.14395e-20)
(1.41363 0.355297 -7.73769e-22)
(1.3985 0.336311 -1.43246e-20)
(1.37183 0.311669 -1.03812e-20)
(1.34491 0.285492 -1.10006e-20)
(1.3196 0.263813 6.63396e-21)
(0.258794 0.0472036 -3.41772e-20)
(0.726143 0.168614 3.2256e-20)
(1.08815 0.292127 3.71279e-20)
(1.30214 0.365107 -3.66718e-20)
(1.39032 0.388192 -1.27433e-20)
(1.40356 0.379536 8.25501e-21)
(1.38454 0.356408 1.51067e-20)
(1.35699 0.328805 2.42575e-21)
(1.33045 0.30048 -4.76368e-22)
(1.30578 0.277389 -9.1613e-21)
(0.278316 0.0609894 -4.87533e-21)
(0.75838 0.201808 -4.5304e-20)
(1.11207 0.330959 -4.85834e-20)
(1.31001 0.400559 5.463e-20)
(1.38471 0.41741 -6.22428e-21)
(1.39039 0.403149 1.16079e-20)
(1.36856 0.375979 2.34094e-21)
(1.34072 0.345465 -6.54174e-21)
(1.31485 0.314985 3.52465e-21)
(1.29087 0.290439 -5.83132e-22)
(0.296461 0.076082 9.94534e-21)
(0.785891 0.23638 2.80394e-20)
(1.12969 0.369992 1.59252e-20)
(1.31209 0.435404 -1.25247e-20)
(1.37479 0.445781 -1.96334e-20)
(1.37435 0.425989 -1.8474e-20)
(1.35067 0.394904 -3.79388e-21)
(1.32307 0.361555 1.03508e-20)
(1.29815 0.328988 -2.19684e-21)
(1.27474 0.302894 5.09092e-21)
(0.312939 0.0923155 -3.75564e-20)
(0.808411 0.271871 -3.51946e-20)
(1.1411 0.408786 -5.6007e-21)
(1.30867 0.469332 -6.32688e-21)
(1.36087 0.473101 -1.4584e-20)
(1.35563 0.447909 9.04524e-21)
(1.33095 0.413047 -1.60453e-21)
(1.3041 0.376943 -9.10075e-21)
(1.28043 0.3425 8.30051e-21)
(1.25765 0.31472 -1.26035e-20)
(0.327493 0.109493 8.91805e-21)
(0.825767 0.307812 2.9843e-20)
(1.14644 0.446909 2.60598e-20)
(1.30007 0.502042 2.84703e-20)
(1.34324 0.49917 4.51906e-22)
(1.33443 0.468756 2.569e-20)
(1.3095 0.430268 1.89441e-21)
(1.28383 0.391464 -3.16033e-20)
(1.26155 0.355312 2.31302e-20)
(1.23992 0.325828 8.61341e-21)
(0.339904 0.127395 2.43105e-20)
(0.837875 0.343732 5.46007e-20)
(1.14592 0.483945 -7.2306e-21)
(1.28661 0.533244 -3.59414e-20)
(1.32217 0.523791 1.63293e-20)
(1.3109 0.488377 -1.72865e-20)
(1.28643 0.446438 -2.39113e-20)
(1.26232 0.405074 -2.54699e-21)
(1.2415 0.367226 -1.97711e-20)
(1.22152 0.336128 7.90835e-21)
(0.349994 0.145778 1.15203e-20)
(0.844732 0.379165 8.69076e-21)
(1.13979 0.519495 6.88269e-20)
(1.26863 0.562663 1.31313e-20)
(1.29794 0.546771 -1.16687e-20)
(1.28523 0.506611 -6.01446e-21)
(1.26186 0.461408 3.73599e-20)
(1.23961 0.417647 3.15729e-20)
(1.22044 0.378171 1.61389e-20)
(1.20232 0.345475 -2.37294e-21)
(0.357628 0.164393 2.50104e-21)
(0.846404 0.41366 -5.59438e-20)
(1.12834 0.553182 -8.11475e-20)
(1.24647 0.590041 2.78419e-21)
(1.27079 0.567916 1.66908e-20)
(1.25761 0.523295 -2.33869e-20)
(1.23586 0.475048 -5.59417e-20)
(1.21573 0.429064 -1.72064e-20)
(1.19844 0.388039 -1.11686e-21)
(1.18235 0.353793 9.88683e-21)
(0.362716 0.182979 -2.01035e-20)
(0.843036 0.446781 5.11316e-20)
(1.11194 0.584655 4.90559e-20)
(1.22045 0.615135 -4.63508e-20)
(1.24096 0.58704 6.99266e-21)
(1.22817 0.53827 5.89154e-20)
(1.20852 0.487223 -1.46274e-20)
(1.19078 0.439206 1.20782e-20)
(1.17554 0.396732 -6.88026e-21)
(1.16166 0.361006 -9.40854e-21)
(0.365215 0.201275 -4.56518e-20)
(0.834851 0.478111 -8.05157e-20)
(1.09097 0.613618 -1.59157e-20)
(1.1908 0.63768 2.64922e-20)
(1.20873 0.603973 2.74321e-20)
(1.19709 0.551379 -5.97398e-20)
(1.17996 0.497804 3.43334e-20)
(1.16485 0.447963 -2.04216e-20)
(1.15184 0.404154 1.79098e-20)
(1.14034 0.367051 -1.74389e-23)
(0.365138 0.219018 3.47557e-20)
(0.822151 0.507255 2.13422e-21)
(1.0657 0.639802 -7.8582e-21)
(1.15782 0.657471 -3.39992e-20)
(1.17438 0.618497 2.38619e-20)
(1.16455 0.562491 4.09094e-21)
(1.15032 0.506671 -2.19269e-20)
(1.13804 0.455228 2.23967e-21)
(1.1274 0.410206 -6.04467e-21)
(1.11849 0.371849 5.24445e-21)
(0.362554 0.235946 -9.83118e-21)
(0.805263 0.533905 -1.43366e-20)
(1.0362 0.66279 3.57007e-20)
(1.12206 0.674412 1.68157e-20)
(1.13819 0.630454 -2.37711e-20)
(1.13074 0.571466 3.84337e-20)
(1.11973 0.51371 1.82523e-21)
(1.11046 0.460906 1.18887e-21)
(1.10232 0.414787 -6.24947e-21)
(1.09618 0.375305 -7.02876e-22)
(0.357553 0.251768 6.4505e-20)
(0.784392 0.557896 4.99182e-20)
(1.00289 0.682318 -2.49201e-21)
(1.08395 0.688172 -8.75074e-21)
(1.10041 0.639785 -1.01584e-20)
(1.09584 0.578197 -5.32916e-21)
(1.08833 0.51882 7.80082e-22)
(1.08223 0.464912 3.30756e-21)
(1.07671 0.417801 6.51289e-21)
(1.07351 0.377312 1.67305e-21)
(0.350196 0.266156 6.72317e-21)
(0.759671 0.578793 9.53275e-21)
(0.966578 0.69845 -4.9938e-20)
(1.04379 0.698564 2.34655e-20)
(1.06129 0.646343 1.02963e-20)
(1.06004 0.582579 -2.42757e-20)
(1.05628 0.521911 7.12668e-21)
(1.05345 0.467172 9.98276e-22)
(1.0507 0.419182 -8.77544e-22)
(1.05072 0.377829 -1.24951e-21)
(0.340548 0.278884 -2.43831e-20)
(0.731435 0.596129 -1.89681e-20)
(0.927702 0.710908 1.82037e-20)
(1.00187 0.705568 6.9678e-21)
(1.02108 0.650028 -8.44698e-21)
(1.02353 0.584518 1.04275e-20)
(1.02371 0.522891 2.96743e-22)
(1.02421 0.467591 3.11807e-21)
(1.02453 0.418854 3.88657e-21)
(1.02855 0.376911 3.11851e-21)
(0.328846 0.289804 -2.00712e-20)
(0.700252 0.609743 5.60446e-20)
(0.886585 0.719469 -3.80167e-20)
(0.958553 0.709093 -3.85061e-21)
(0.980059 0.650757 -1.00815e-20)
(0.986511 0.583937 6.36542e-21)
(0.990712 0.52168 -4.44184e-22)
(0.994642 0.466027 6.82489e-22)
(0.998657 0.416597 2.44924e-21)
(1.00781 0.374561 -4.77774e-22)
(0.315304 0.298812 -1.32901e-22)
(0.666562 0.619499 -1.62787e-20)
(0.843636 0.723971 1.21179e-20)
(0.914168 0.709061 -8.83337e-21)
(0.938474 0.648472 -2.26931e-21)
(0.949155 0.580791 1.94737e-21)
(0.957425 0.51824 4.24227e-21)
(0.964933 0.46239 -5.07536e-21)
(0.973449 0.412011 -1.06361e-20)
(0.987713 0.369966 6.2265e-21)
(0.3001 0.305734 3.2032e-21)
(0.630813 0.625269 3.4496e-22)
(0.79928 0.724323 3.41891e-22)
(0.869068 0.705413 -4.43944e-21)
(0.896595 0.643135 -1.14671e-21)
(0.911664 0.575055 -8.61704e-21)
(0.924046 0.512579 -2.17958e-21)
(0.935387 0.456831 -2.372e-21)
(0.948865 0.405377 1.81395e-20)
(0.964989 0.359324 -2.68434e-21)
(0.283466 0.310434 -1.09645e-20)
(0.593444 0.626955 -5.94772e-21)
(0.753944 0.72048 3.38242e-21)
(0.8236 0.698119 1.72032e-21)
(0.854689 0.634724 -5.63983e-21)
(0.874258 0.566705 2.02178e-20)
(0.890849 0.504664 -1.65918e-20)
(0.906238 0.449431 2.05803e-20)
(0.92368 0.398733 -1.43526e-20)
(0.939454 0.354225 -2.02396e-20)
(0.265655 0.312809 3.94483e-21)
(0.554886 0.624491 -4.18416e-21)
(0.708051 0.712429 1.86206e-21)
(0.778108 0.687173 8.14939e-21)
(0.813022 0.623234 -5.09129e-21)
(0.83717 0.555727 7.55423e-21)
(0.858046 0.494443 9.35909e-21)
(0.877502 0.439882 -5.00824e-21)
(0.898362 0.38969 -1.59175e-20)
(0.915153 0.345356 2.14677e-20)
(0.246925 0.312786 4.67379e-21)
(0.515573 0.617851 5.44639e-21)
(0.662018 0.700189 -7.23899e-21)
(0.732931 0.672601 -6.09268e-21)
(0.77186 0.608685 2.98903e-20)
(0.800619 0.542139 -3.15845e-20)
(0.825784 0.481975 3.98716e-20)
(0.849173 0.428458 -9.78176e-21)
(0.873099 0.37939 1.06269e-20)
(0.891588 0.336296 2.11179e-20)
(0.22754 0.310321 -6.93624e-22)
(0.475932 0.607044 -7.00621e-21)
(0.616251 0.683809 -7.15617e-21)
(0.688398 0.65445 -3.03085e-21)
(0.731468 0.591113 5.6684e-21)
(0.764829 0.525966 -9.57277e-21)
(0.794239 0.467265 -1.17711e-20)
(0.821423 0.415072 -2.76823e-20)
(0.848288 0.367369 2.78032e-20)
(0.868921 0.325718 -8.56181e-21)
(0.207765 0.305398 1.94705e-20)
(0.436383 0.592119 -3.28168e-21)
(0.571143 0.663367 -1.02344e-20)
(0.644832 0.632794 1.19733e-20)
(0.692104 0.570579 -2.11832e-20)
(0.730011 0.507259 6.01215e-20)
(0.763575 0.450368 -3.24374e-20)
(0.79442 0.399822 2.97477e-20)
(0.824156 0.353808 -5.45094e-20)
(0.847175 0.313791 -1.46591e-20)
(0.187863 0.298027 -4.33609e-21)
(0.397337 0.57316 2.0925e-20)
(0.527077 0.638972 4.35962e-21)
(0.602543 0.607731 -1.17132e-20)
(0.654019 0.547163 -2.05523e-20)
(0.696372 0.486082 -3.34703e-23)
(0.733966 0.431337 1.08155e-20)
(0.768331 0.382737 -2.72819e-20)
(0.800866 0.33867 1.31009e-20)
(0.826382 0.300427 1.67821e-21)
(0.168093 0.288249 -3.65321e-20)
(0.359187 0.550285 -8.68655e-21)
(0.484418 0.610761 -2.69108e-21)
(0.56183 0.579382 3.14181e-20)
(0.617454 0.520964 -2.97549e-20)
(0.664112 0.46252 -7.36719e-21)
(0.705584 0.410246 -4.77664e-21)
(0.74332 0.363884 8.49172e-21)
(0.778561 0.322002 -1.12545e-20)
(0.806605 0.285668 -1.73967e-20)
(0.148706 0.276127 3.40201e-20)
(0.322314 0.523643 -1.96992e-20)
(0.443514 0.578898 7.05811e-22)
(0.522977 0.547891 -4.82587e-20)
(0.582641 0.4921 5.27752e-20)
(0.633425 0.436671 -1.67463e-20)
(0.678594 0.38718 1.0019e-20)
(0.719534 0.343329 8.81451e-21)
(0.757365 0.303846 2.55525e-20)
(0.787914 0.269559 -1.0756e-20)
(0.129946 0.26175 -1.36796e-20)
(0.287075 0.493417 4.12432e-20)
(0.404693 0.543571 2.34748e-20)
(0.486253 0.513422 3.91959e-20)
(0.549798 0.46071 -8.93219e-21)
(0.604494 0.408652 3.68622e-21)
(0.653155 0.36224 2.96776e-20)
(0.697112 0.321154 6.76625e-21)
(0.737392 0.284268 6.5689e-22)
(0.770384 0.25217 -1.29864e-20)
(0.112043 0.245232 -3.3463e-20)
(0.25381 0.459816 -2.30744e-21)
(0.368263 0.504996 -1.40864e-20)
(0.451909 0.476161 -6.39439e-20)
(0.519131 0.426947 -6.20948e-20)
(0.577493 0.378594 1.02857e-20)
(0.629417 0.335537 -2.55484e-20)
(0.676184 0.297452 1.65661e-20)
(0.718752 0.263345 8.96213e-21)
(0.754088 0.233583 1.83791e-20)
(0.095214 0.226706 5.03823e-20)
(0.222831 0.423078 -4.12955e-20)
(0.334508 0.463409 -2.11627e-20)
(0.420179 0.436311 3.70743e-20)
(0.490833 0.390984 4.26205e-20)
(0.552584 0.346642 -1.43538e-20)
(0.607518 0.307196 -1.96028e-21)
(0.656871 0.27233 -5.12974e-20)
(0.701548 0.241167 -2.89795e-20)
(0.7391 0.213887 1.11048e-20)
(0.0796587 0.206329 -2.88473e-20)
(0.194426 0.383466 1.21095e-20)
(0.303688 0.419068 4.50562e-20)
(0.391275 0.394093 -2.05708e-20)
(0.465078 0.353006 1.77768e-21)
(0.529917 0.312956 5.76758e-20)
(0.587586 0.277353 2.54308e-21)
(0.639284 0.245903 4.95337e-20)
(0.685875 0.217836 2.06261e-20)
(0.725486 0.193182 -3.28295e-20)
(0.06556 0.184273 4.08173e-20)
(0.168854 0.341261 4.66698e-21)
(0.276038 0.37225 3.04017e-21)
(0.365391 0.349746 4.15637e-20)
(0.442028 0.313214 -5.4339e-21)
(0.509626 0.277707 -3.63276e-20)
(0.569738 0.246156 1.78097e-20)
(0.623523 0.218297 -2.85427e-20)
(0.671823 0.193464 -1.18568e-20)
(0.713308 0.171572 1.19886e-20)
(0.053081 0.160727 -2.54115e-20)
(0.146345 0.29677 -4.91609e-20)
(0.251765 0.323247 1.14825e-20)
(0.342697 0.303521 -2.24239e-20)
(0.421822 0.27182 -1.34335e-20)
(0.491832 0.241076 3.27953e-20)
(0.554076 0.213761 -7.92682e-21)
(0.60968 0.189647 7.22405e-21)
(0.659469 0.168167 -8.85764e-21)
(0.702622 0.149166 1.76738e-20)
(0.0423638 0.135897 9.38087e-21)
(0.1271 0.250314 3.33131e-20)
(0.231049 0.272369 -4.64851e-20)
(0.323342 0.255681 2.19e-20)
(0.404584 0.229048 -1.00088e-20)
(0.47664 0.203255 -2.81671e-20)
(0.540691 0.180334 2.3059e-20)
(0.597834 0.160095 4.7812e-21)
(0.648885 0.142073 -7.37785e-22)
(0.693476 0.126076 -2.05417e-20)
(0.0335285 0.109998 3.12044e-21)
(0.111286 0.202228 1.08878e-20)
(0.214041 0.219936 4.22754e-20)
(0.307449 0.206502 -8.15456e-21)
(0.390417 0.185131 -6.42883e-21)
(0.464137 0.164444 2.34901e-21)
(0.529659 0.146047 1.12989e-21)
(0.588053 0.129791 8.61959e-21)
(0.64013 0.115312 -1.13475e-20)
(0.685911 0.102417 -7.20434e-21)
(0.0266717 0.0832574 -7.73787e-21)
(0.0990374 0.152862 -1.32412e-20)
(0.200861 0.16628 -3.30911e-20)
(0.295119 0.156267 1.66672e-20)
(0.379405 0.140309 1.35637e-20)
(0.454395 0.124849 5.79324e-22)
(0.521042 0.111076 -2.26696e-20)
(0.580391 0.098888 -1.00968e-20)
(0.633253 0.0880203 7.94967e-21)
(0.67996 0.0783081 8.5323e-21)
(0.0218665 0.0559103 1.36196e-21)
(0.0904552 0.102573 -2.81096e-21)
(0.191601 0.11174 6.27039e-21)
(0.286426 0.105267 -4.24238e-21)
(0.371609 0.0948281 -3.78139e-21)
(0.447467 0.0846823 -2.55784e-21)
(0.514885 0.0756062 4.68477e-21)
(0.57489 0.0675446 1.78515e-20)
(0.628291 0.0603349 2.57357e-21)
(0.675647 0.0538595 -4.55921e-21)
(0.019161 0.0281969 1.68085e-21)
(0.085606 0.0517268 -4.62342e-21)
(0.186319 0.0566634 -5.24271e-21)
(0.28142 0.0537965 -3.6356e-21)
(0.367071 0.0489399 3.45975e-21)
(0.44339 0.0441581 1.56014e-21)
(0.511219 0.0398216 -1.55237e-21)
(0.571579 0.0359217 -7.07939e-21)
(0.625268 0.0323965 2.33003e-21)
(0.67298 0.0291878 -2.17621e-21)
(0.0185787 0.000360983 -1.69614e-21)
(0.0845218 0.0006921 4.66382e-21)
(0.185046 0.00139735 5.28248e-21)
(0.280124 0.00215399 -5.05225e-21)
(0.365812 0.00289713 4.44639e-21)
(0.442179 0.00349423 2.22471e-21)
(0.510061 0.00391051 -3.54872e-21)
(0.570469 0.00418426 -4.12759e-21)
(0.624194 0.00435752 6.09618e-22)
(0.671961 0.00446162 -1.71482e-21)
(0.0201178 -0.0273527 1.85841e-21)
(0.0871996 -0.0501612 -5.55524e-21)
(0.187777 -0.0537078 1.25041e-20)
(0.282537 -0.0493617 -1.09674e-20)
(0.367829 -0.0430464 -5.0858e-22)
(0.443834 -0.0370914 -7.26183e-21)
(0.511409 -0.0319399 1.18002e-20)
(0.571566 -0.0275077 1.60381e-20)
(0.625093 -0.0236501 2.874e-21)
(0.672681 -0.0202533 -6.17867e-21)
(0.0237513 -0.0547008 -1.61791e-21)
(0.0936014 -0.100465 -1.18491e-20)
(0.194479 -0.108304 -2.74785e-20)
(0.288631 -0.100453 2.37415e-20)
(0.373099 -0.0886379 4.90906e-21)
(0.448335 -0.0773821 4.32301e-21)
(0.515246 -0.067543 -2.13173e-20)
(0.574849 -0.0589936 -1.25278e-20)
(0.627924 -0.0514913 -2.76792e-21)
(0.675014 -0.0448722 1.91017e-20)
(0.0294273 -0.0814436 -5.71434e-21)
(0.103655 -0.149854 7.11519e-21)
(0.205087 -0.162045 5.00384e-20)
(0.298352 -0.150824 -4.46336e-21)
(0.381579 -0.133628 -1.27938e-20)
(0.455645 -0.117163 9.20069e-21)
(0.52154 -0.102713 5.67929e-22)
(0.580291 -0.09011 3.24578e-21)
(0.632669 -0.0790127 -7.06875e-21)
(0.678981 -0.0692157 -1.86918e-20)
(0.0370695 -0.107347 -3.8851e-21)
(0.117252 -0.197973 2.10333e-20)
(0.219504 -0.214595 -5.05252e-20)
(0.311621 -0.200188 2.1937e-20)
(0.393203 -0.17777 1.96796e-22)
(0.465709 -0.156224 -2.77065e-20)
(0.530243 -0.137269 1.21906e-20)
(0.587852 -0.1207 -1.10519e-21)
(0.639293 -0.106079 4.62998e-21)
(0.684561 -0.0931831 -1.44451e-21)
(0.0465778 -0.132187 -4.45364e-20)
(0.134254 -0.244474 -5.30651e-20)
(0.237605 -0.265621 1.38173e-20)
(0.328334 -0.248261 -2.51064e-20)
(0.407884 -0.220827 -7.15443e-21)
(0.478452 -0.19436 1.05462e-20)
(0.541293 -0.171033 3.9362e-21)
(0.597474 -0.15061 1.46246e-20)
(0.647748 -0.132557 -3.15361e-21)
(0.691721 -0.116664 1.68292e-20)
(0.057829 -0.155748 4.26213e-20)
(0.154486 -0.289023 2.73002e-20)
(0.259233 -0.314806 -2.07891e-20)
(0.348363 -0.29477 3.49002e-20)
(0.425516 -0.262566 -3.04648e-21)
(0.493784 -0.231372 -3.75879e-20)
(0.554611 -0.203836 6.60606e-21)
(0.609089 -0.179693 -3.9774e-20)
(0.657973 -0.158316 1.50044e-21)
(0.70042 -0.139543 1.4453e-20)
(0.070678 -0.177828 -3.20253e-20)
(0.177743 -0.331302 5.71703e-20)
(0.284203 -0.361842 2.23303e-20)
(0.371556 -0.339454 -2.74227e-20)
(0.445975 -0.302766 1.40384e-22)
(0.5116 -0.267072 6.94232e-20)
(0.570107 -0.235514 3.22093e-21)
(0.622619 -0.207808 3.07678e-20)
(0.669897 -0.183232 3.74287e-20)
(0.710609 -0.16171 -2.09628e-20)
(0.084959 -0.19824 1.79699e-20)
(0.20379 -0.371009 -8.55834e-21)
(0.312303 -0.40644 -2.03422e-20)
(0.397739 -0.382063 1.54655e-20)
(0.469115 -0.341219 5.86556e-20)
(0.531778 -0.30128 -2.04666e-20)
(0.587677 -0.265912 -3.28191e-21)
(0.63797 -0.234821 -4.46267e-20)
(0.683442 -0.207187 -5.51358e-20)
(0.722232 -0.183059 2.40713e-20)
(0.100487 -0.216814 -2.42248e-20)
(0.232361 -0.407863 -2.1273e-20)