/*--------------------------------*- C++ -*----------------------------------*\
  =========                 |
  \\      /  F ield         | OpenFOAM: The Open Source CFD Toolbox
   \\    /   O peration     | Website:  https://openfoam.org
    \\  /    A nd           | Version:  7
     \\/     M anipulation  |
\*---------------------------------------------------------------------------*/
FoamFile
{
    version     2.0;
    format      ascii;
    class       volScalarField;
    location    "90";
    object      p;
}
// * * * * * * * * * * * * * * * * * * * * * * * * * * * * * * * * * * * * * //

dimensions      [0 2 -2 0 0 0 0];

internalField   nonuniform List<scalar> 
8500
(
-0.344214
-0.346476
-0.347466
-0.348235
-0.348883
-0.349443
-0.349932
-0.350356
-0.350684
-0.351011
-0.345456
-0.347886
-0.348975
-0.349852
-0.350622
-0.351306
-0.351907
-0.35241
-0.352751
-0.352974
-0.346979
-0.349542
-0.350713
-0.351686
-0.352567
-0.353365
-0.354066
-0.354635
-0.354967
-0.355036
-0.348801
-0.351453
-0.352689
-0.353745
-0.354725
-0.355628
-0.356419
-0.357039
-0.35734
-0.357197
-0.35093
-0.353625
-0.354905
-0.356029
-0.357098
-0.358096
-0.358965
-0.359621
-0.35987
-0.359435
-0.353367
-0.356054
-0.357357
-0.358533
-0.359678
-0.360762
-0.361697
-0.362369
-0.362545
-0.361699
-0.356103
-0.358729
-0.360032
-0.361242
-0.36245
-0.363609
-0.364595
-0.36526
-0.365348
-0.36391
-0.35912
-0.361632
-0.36291
-0.364135
-0.36539
-0.366612
-0.367634
-0.368258
-0.368259
-0.365968
-0.362393
-0.364736
-0.365962
-0.367179
-0.368464
-0.369736
-0.370778
-0.371319
-0.371257
-0.367738
-0.365886
-0.36801
-0.369154
-0.370338
-0.371631
-0.372938
-0.373984
-0.374387
-0.374331
-0.369004
-0.369561
-0.371417
-0.372448
-0.373568
-0.374841
-0.376163
-0.3772
-0.377401
-0.377505
-0.369575
-0.373373
-0.374919
-0.375801
-0.37682
-0.378038
-0.379347
-0.380361
-0.380292
-0.380711
-0.370227
-0.377279
-0.378479
-0.379174
-0.380045
-0.381162
-0.382415
-0.383393
-0.38306
-0.383389
-0.370651
-0.381241
-0.382064
-0.382528
-0.383198
-0.384154
-0.385291
-0.386179
-0.385723
-0.385763
-0.370577
-0.385228
-0.385651
-0.385837
-0.38624
-0.386965
-0.387918
-0.388628
-0.388018
-0.387797
-0.370115
-0.389222
-0.389228
-0.389085
-0.389152
-0.389558
-0.390237
-0.390679
-0.389864
-0.38922
-0.369475
-0.393223
-0.392792
-0.392274
-0.391928
-0.391928
-0.392231
-0.392284
-0.391247
-0.389728
-0.368734
-0.397249
-0.39637
-0.395422
-0.394589
-0.394096
-0.393922
-0.393448
-0.392193
-0.389052
-0.367669
-0.40134
-0.399995
-0.398566
-0.397181
-0.396114
-0.395372
-0.394244
-0.392755
-0.387171
-0.366587
-0.405554
-0.403719
-0.401765
-0.39977
-0.398062
-0.396673
-0.394794
-0.392908
-0.384604
-0.368799
-0.409967
-0.407609
-0.40509
-0.40244
-0.400037
-0.397931
-0.395224
-0.392516
-0.382214
-0.377706
-0.41467
-0.411739
-0.40862
-0.405281
-0.402146
-0.399251
-0.39564
-0.391678
-0.38052
-0.374854
-0.419755
-0.416192
-0.412442
-0.408391
-0.404487
-0.400724
-0.396089
-0.390593
-0.378514
-0.369854
-0.425316
-0.421045
-0.416636
-0.411855
-0.407146
-0.402416
-0.396594
-0.38938
-0.376081
-0.36453
-0.431437
-0.426373
-0.421281
-0.415749
-0.410182
-0.404365
-0.397166
-0.388049
-0.373292
-0.358935
-0.438191
-0.432241
-0.426441
-0.420132
-0.413629
-0.406576
-0.397789
-0.386586
-0.370138
-0.353356
-0.44563
-0.438699
-0.432167
-0.425039
-0.417492
-0.409026
-0.398415
-0.384948
-0.366664
-0.347767
-0.453786
-0.445783
-0.438493
-0.430482
-0.421751
-0.411661
-0.398967
-0.383087
-0.362895
-0.342164
-0.462667
-0.453511
-0.445431
-0.43645
-0.426359
-0.414391
-0.399348
-0.380949
-0.358848
-0.336499
-0.472257
-0.461881
-0.452973
-0.4429
-0.431239
-0.417096
-0.399455
-0.378484
-0.35452
-0.330719
-0.48251
-0.470866
-0.461077
-0.449763
-0.436272
-0.419629
-0.399186
-0.37564
-0.349893
-0.324766
-0.493351
-0.48041
-0.469674
-0.456935
-0.441303
-0.421832
-0.398439
-0.372365
-0.344934
-0.318578
-0.50467
-0.490425
-0.478655
-0.464269
-0.446138
-0.423542
-0.397121
-0.368602
-0.339594
-0.31209
-0.516322
-0.500785
-0.487871
-0.471574
-0.450562
-0.424602
-0.395137
-0.364288
-0.333819
-0.305239
-0.528124
-0.511322
-0.497135
-0.478615
-0.454348
-0.424859
-0.392395
-0.359357
-0.327543
-0.297958
-0.539854
-0.521829
-0.506214
-0.485123
-0.457269
-0.424166
-0.388805
-0.353738
-0.3207
-0.290183
-0.55125
-0.532058
-0.514834
-0.490805
-0.459102
-0.422386
-0.384275
-0.347355
-0.313218
-0.281853
-0.562018
-0.541726
-0.522685
-0.495361
-0.459638
-0.419388
-0.378715
-0.340132
-0.305027
-0.272909
-0.571836
-0.550516
-0.529431
-0.498495
-0.458679
-0.415049
-0.372038
-0.331994
-0.296058
-0.263301
-0.580357
-0.558092
-0.534721
-0.499927
-0.456046
-0.409256
-0.364157
-0.322867
-0.286248
-0.252984
-0.587226
-0.564099
-0.538207
-0.499394
-0.451579
-0.401906
-0.354994
-0.312682
-0.27554
-0.241922
-0.592083
-0.56818
-0.539554
-0.496664
-0.445137
-0.392904
-0.344475
-0.301375
-0.263888
-0.230091
-0.594575
-0.56998
-0.538453
-0.491535
-0.4366
-0.38217
-0.332531
-0.288888
-0.251255
-0.217477
-0.59437
-0.569166
-0.534632
-0.48384
-0.425874
-0.369636
-0.319106
-0.275167
-0.237596
-0.204033
-0.591162
-0.565429
-0.527864
-0.473449
-0.412885
-0.355255
-0.304159
-0.260171
-0.222842
-0.189591
-0.584681
-0.558501
-0.517968
-0.460271
-0.397587
-0.338994
-0.287669
-0.243889
-0.206942
-0.173869
-0.574701
-0.548165
-0.504808
-0.444249
-0.379958
-0.320839
-0.269624
-0.226331
-0.189953
-0.156822
-0.561047
-0.534258
-0.488299
-0.425365
-0.359999
-0.300791
-0.250022
-0.207507
-0.171962
-0.139332
-0.543597
-0.516674
-0.468402
-0.403635
-0.337738
-0.278868
-0.228896
-0.18747
-0.152779
-0.121341
-0.522286
-0.495363
-0.445129
-0.379109
-0.313227
-0.255125
-0.206343
-0.166228
-0.132559
-0.102632
-0.497106
-0.470335
-0.418544
-0.35188
-0.28654
-0.229658
-0.18239
-0.143802
-0.111413
-0.0831678
-0.468104
-0.441663
-0.388784
-0.322066
-0.257756
-0.202536
-0.15709
-0.120273
-0.0894102
-0.0630047
-0.43538
-0.409483
-0.356048
-0.289749
-0.226988
-0.173845
-0.130537
-0.0957295
-0.0666186
-0.042243
-0.399099
-0.374
-0.320452
-0.254972
-0.194446
-0.143722
-0.102839
-0.0702672
-0.0431198
-0.0209958
-0.359486
-0.335491
-0.281803
-0.218208
-0.160259
-0.112308
-0.0741218
-0.0439876
-0.0189963
0.000649737
-0.316763
-0.294196
-0.240409
-0.179622
-0.124635
-0.079765
-0.0445214
-0.0169968
0.00566708
0.0226037
-0.271123
-0.249889
-0.197337
-0.139405
-0.0877687
-0.0462635
-0.0141727
0.0106077
0.030729
0.0445185
-0.222901
-0.203271
-0.152693
-0.0978351
-0.0498657
-0.0119735
0.0168111
0.0387475
0.0559073
0.0655369
-0.172728
-0.154575
-0.106599
-0.0551867
-0.0111533
0.0229311
0.0483252
0.0673247
0.0808617
0.0850547
-0.12077
-0.104329
-0.0593264
-0.0117351
0.0281291
0.0582624
0.0802091
0.0960968
0.10549
0.104917
-0.0674446
-0.0529624
-0.011218
0.0322333
0.0677355
0.09381
0.112206
0.124646
0.129772
0.130239
-0.0131977
-0.000876479
0.0373606
0.0764212
0.107416
0.129346
0.144044
0.152838
0.154626
0.155663
0.041525
0.0515229
0.0860395
0.120524
0.146913
0.16464
0.175551
0.180756
0.179721
0.179756
0.096275
0.103823
0.13445
0.164236
0.185966
0.199461
0.206554
0.208275
0.204606
0.202852
0.150603
0.155611
0.182226
0.207248
0.224315
0.233587
0.236884
0.23522
0.228929
0.224949
0.204063
0.206475
0.22901
0.24926
0.261703
0.266803
0.266364
0.261407
0.252499
0.246089
0.256218
0.256011
0.27445
0.289975
0.297879
0.298896
0.294813
0.286663
0.275163
0.266239
0.30664
0.303827
0.318209
0.329108
0.3326
0.329661
0.322056
0.310826
0.296796
0.285342
0.354918
0.349546
0.35996
0.366382
0.365634
0.3589
0.347921
0.33375
0.317278
0.30333
0.400659
0.392807
0.399394
0.401538
0.396759
0.386423
0.372248
0.355294
0.3365
0.320127
0.443492
0.433271
0.436221
0.434328
0.425764
0.412053
0.394884
0.37533
0.354353
0.33566
0.483071
0.470624
0.470168
0.464523
0.452456
0.435623
0.415688
0.393737
0.370738
0.34986
0.519075
0.504575
0.500987
0.491913
0.476654
0.456981
0.434531
0.410404
0.385561
0.362661
0.551217
0.53486
0.528454
0.516306
0.498196
0.475987
0.451293
0.425228
0.398738
0.374005
0.579238
0.561248
0.552367
0.537534
0.516938
0.492519
0.465872
0.438122
0.410194
0.38384
0.602917
0.583536
0.572555
0.555449
0.532755
0.506471
0.478175
0.449005
0.419862
0.392123
0.622064
0.601553
0.58887
0.569928
0.54554
0.517752
0.488126
0.457812
0.427687
0.398817
0.636529
0.615164
0.601196
0.580871
0.55521
0.52629
0.495664
0.46449
0.433625
0.403896
0.646199
0.624265
0.609446
0.588205
0.561701
0.532032
0.500743
0.468999
0.437643
0.407338
0.650998
0.628791
0.613561
0.591881
0.564972
0.534942
0.503332
0.471313
0.439717
0.409127
0.650892
0.628708
0.613515
0.591875
0.565002
0.535002
0.503418
0.471418
0.439838
0.409258
0.645884
0.62402
0.60931
0.588189
0.561793
0.532215
0.501001
0.469318
0.438008
0.407733
0.636018
0.614766
0.60098
0.580853
0.555371
0.526602
0.4961
0.465026
0.43424
0.404562
0.621376
0.601021
0.588588
0.569921
0.545781
0.518202
0.488748
0.458572
0.428558
0.39976
0.602079
0.582895
0.572229
0.555471
0.533092
0.507073
0.478994
0.45
0.420996
0.393348
0.578285
0.56053
0.552025
0.537609
0.517392
0.493291
0.466904
0.439363
0.411603
0.385356
0.55019
0.534103
0.528129
0.516463
0.49879
0.476949
0.452556
0.426733
0.400435
0.375822
0.518024
0.503823
0.500719
0.492185
0.477418
0.458157
0.436045
0.412188
0.38756
0.364791
0.482052
0.469931
0.47
0.464949
0.453422
0.437043
0.417478
0.395822
0.373056
0.352318
0.442569
0.432694
0.436205
0.43495
0.426969
0.413747
0.396976
0.377739
0.35701
0.338461
0.399902
0.39241
0.399585
0.402404
0.398243
0.388427
0.374671
0.358051
0.339516
0.323287
0.354402
0.3494
0.360419
0.367543
0.367442
0.36125
0.350708
0.336881
0.320677
0.306868
0.306447
0.304007
0.319001
0.33062
0.334779
0.332398
0.32524
0.314362
0.300601
0.289279
0.256436
0.256599
0.275646
0.291898
0.300478
0.302063
0.298432
0.290633
0.279401
0.270596
0.204784
0.207556
0.230683
0.251656
0.264777
0.270445
0.270455
0.265845
0.257197
0.250889
0.151924
0.157276
0.184457
0.210184
0.227921
0.237752
0.241487
0.240158
0.234116
0.230215
0.0982967
0.106167
0.13732
0.167781
0.190162
0.204198
0.211711
0.213749
0.210313
0.208613
0.044352
0.0546423
0.0896346
0.124752
0.151759
0.17
0.181306
0.186801
0.185978
0.186042
-0.0094587
0.0031206
0.0417697
0.081404
0.112973
0.135382
0.15044
0.15949
0.161462
0.162516
-0.0626847
-0.0479831
-0.00590408
0.0380471
0.0740687
0.100575
0.119289
0.13194
0.137212
0.137722
-0.114879
-0.0982576
-0.053016
-0.00501403
0.0353023
0.0658107
0.0880262
0.104076
0.113552
0.113089
-0.165607
-0.14729
-0.0992049
-0.047482
-0.00307471
0.0313159
0.0569193
0.0760264
0.08957
0.0937851
-0.214496
-0.194638
-0.144141
-0.0890688
-0.0408159
-0.00269946
0.0262237
0.0482029
0.0652922
0.0748389
-0.261214
-0.239878
-0.187583
-0.129493
-0.077682
-0.0360478
-0.00389957
0.0208493
0.0408259
0.0544505
-0.305264
-0.282546
-0.229434
-0.16847
-0.11345
-0.0685556
-0.0333451
-0.00593506
0.016507
0.0332051
-0.346339
-0.322296
-0.26927
-0.205728
-0.147916
-0.100051
-0.0619996
-0.0320725
-0.00738725
0.0119429
-0.384221
-0.359156
-0.306177
-0.241195
-0.180881
-0.130365
-0.08973
-0.0574669
-0.0307177
-0.00899238
-0.418679
-0.392878
-0.340137
-0.2745
-0.212122
-0.159338
-0.116401
-0.0820135
-0.0534017
-0.0295104
-0.449504
-0.423209
-0.37119
-0.305255
-0.241542
-0.186833
-0.141887
-0.105611
-0.0753613
-0.0495241
-0.476544
-0.449956
-0.399174
-0.333475
-0.268922
-0.212709
-0.166081
-0.128163
-0.0965226
-0.0689214
-0.499712
-0.472998
-0.423907
-0.359056
-0.294151
-0.236901
-0.18889
-0.149576
-0.116824
-0.0876073
-0.518974
-0.492278
-0.44527
-0.381875
-0.317153
-0.259314
-0.210296
-0.169763
-0.136189
-0.105553
-0.534353
-0.507802
-0.463212
-0.401847
-0.337859
-0.279864
-0.23022
-0.18877
-0.154441
-0.122852
-0.54593
-0.519636
-0.477735
-0.418929
-0.356223
-0.298508
-0.248584
-0.206494
-0.171364
-0.13982
-0.553846
-0.527904
-0.48889
-0.433114
-0.372222
-0.315226
-0.265365
-0.22294
-0.187329
-0.155927
-0.558294
-0.532788
-0.496781
-0.444433
-0.385859
-0.330021
-0.28057
-0.23811
-0.202251
-0.170673
-0.559517
-0.534528
-0.501556
-0.45295
-0.397162
-0.342913
-0.29421
-0.251979
-0.21604
-0.184202
-0.557803
-0.533411
-0.503417
-0.458771
-0.406187
-0.353935
-0.306306
-0.264548
-0.228721
-0.196787
-0.553474
-0.529763
-0.50261
-0.462039
-0.413011
-0.363139
-0.316898
-0.275858
-0.240352
-0.208558
-0.546878
-0.523935
-0.499427
-0.462937
-0.417739
-0.370593
-0.326044
-0.285964
-0.250979
-0.219537
-0.538381
-0.516295
-0.494197
-0.461683
-0.420499
-0.376383
-0.333813
-0.294926
-0.260639
-0.229726
-0.528352
-0.507211
-0.487272
-0.458527
-0.421441
-0.380604
-0.340276
-0.302804
-0.269375
-0.239148
-0.517155
-0.497044
-0.479016
-0.453747
-0.420738
-0.383364
-0.34551
-0.30966
-0.277238
-0.247836
-0.505141
-0.486138
-0.46979
-0.447642
-0.418581
-0.38478
-0.349598
-0.315562
-0.284285
-0.255828
-0.492632
-0.474808
-0.459938
-0.440524
-0.415178
-0.384978
-0.352624
-0.320578
-0.290577
-0.263166
-0.479922
-0.463336
-0.449772
-0.432707
-0.410754
-0.384095
-0.354674
-0.324775
-0.296172
-0.269897
-0.467264
-0.451965
-0.439562
-0.424491
-0.405546
-0.382274
-0.355836
-0.328216
-0.301127
-0.27607
-0.454873
-0.440895
-0.429537
-0.416151
-0.399792
-0.379668
-0.356195
-0.330959
-0.305494
-0.281733
-0.442921
-0.430281
-0.419875
-0.407917
-0.393731
-0.376439
-0.355842
-0.333058
-0.309319
-0.286933
-0.431538
-0.420239
-0.410713
-0.399972
-0.387582
-0.372753
-0.354869
-0.334562
-0.312638
-0.291714
-0.42082
-0.410841
-0.402144
-0.392448
-0.381533
-0.36878
-0.353373
-0.335516
-0.315477
-0.296117
-0.410825
-0.40213
-0.394222
-0.38543
-0.375731
-0.364683
-0.351459
-0.335967
-0.317853
-0.300182
-0.401589
-0.39412
-0.386968
-0.378968
-0.370274
-0.360607
-0.34924
-0.335965
-0.319769
-0.303945
-0.393122
-0.386806
-0.380377
-0.373081
-0.36522
-0.356669
-0.346831
-0.335575
-0.321225
-0.307448
-0.385422
-0.380171
-0.374427
-0.367766
-0.360597
-0.352948
-0.344344
-0.334872
-0.322214
-0.310741
-0.378479
-0.374191
-0.369088
-0.363005
-0.356417
-0.349496
-0.341873
-0.333947
-0.32274
-0.313862
-0.372274
-0.36884
-0.364326
-0.358772
-0.352682
-0.346347
-0.339494
-0.332896
-0.322809
-0.31691
-0.366788
-0.364092
-0.360112
-0.355041
-0.349389
-0.34353
-0.337264
-0.331805
-0.322495
-0.319755
-0.361992
-0.359923
-0.356418
-0.35179
-0.346533
-0.341068
-0.335247
-0.330743
-0.321812
-0.322653
-0.357845
-0.356312
-0.353219
-0.348998
-0.344106
-0.338977
-0.333521
-0.329653
-0.320985
-0.323859
-0.354335
-0.353214
-0.350486
-0.346646
-0.342099
-0.337273
-0.332156
-0.328455
-0.321082
-0.311377
-0.351407
-0.350603
-0.348192
-0.344709
-0.340494
-0.33596
-0.331175
-0.327264
-0.321881
-0.307249
-0.349003
-0.348424
-0.346315
-0.343159
-0.33927
-0.33503
-0.330569
-0.326439
-0.322922
-0.307469
-0.347067
-0.346647
-0.344805
-0.34196
-0.338396
-0.334458
-0.330312
-0.326117
-0.323721
-0.308628
-0.345535
-0.345226
-0.343622
-0.341075
-0.337836
-0.334209
-0.330367
-0.326272
-0.324311
-0.310423
-0.344343
-0.344113
-0.342724
-0.340463
-0.337548
-0.334243
-0.330707
-0.326849
-0.324951
-0.312973
-0.343429
-0.343263
-0.342073
-0.340084
-0.337493
-0.334519
-0.331304
-0.327782
-0.325845
-0.316069
-0.342739
-0.342633
-0.341632
-0.3399
-0.337632
-0.334998
-0.332124
-0.328999
-0.327075
-0.319413
-0.342221
-0.342187
-0.341375
-0.339873
-0.337931
-0.335641
-0.333124
-0.330425
-0.328617
-0.322782
-0.341836
-0.341891
-0.341236
-0.34001
-0.33836
-0.336409
-0.334258
-0.331989
-0.330393
-0.326041
-0.341555
-0.341722
-0.341231
-0.340253
-0.338893
-0.337272
-0.335483
-0.333628
-0.332308
-0.329116
-0.341356
-0.341664
-0.341338
-0.34059
-0.339509
-0.338204
-0.336761
-0.335292
-0.334282
-0.331962
-0.34123
-0.341707
-0.341546
-0.341015
-0.340196
-0.339186
-0.338067
-0.336948
-0.336278
-0.334542
-0.341175
-0.341848
-0.34185
-0.341524
-0.340948
-0.340211
-0.339386
-0.338596
-0.338254
-0.336856
-0.3412
-0.34209
-0.342252
-0.342118
-0.341767
-0.341278
-0.340718
-0.340205
-0.339973
-0.33922
-0.341319
-0.342441
-0.342761
-0.342807
-0.342662
-0.342396
-0.342072
-0.341793
-0.341691
-0.341457
-0.341554
-0.342918
-0.343389
-0.343603
-0.343646
-0.343581
-0.343464
-0.343382
-0.343411
-0.343504
-0.341932
-0.343538
-0.344154
-0.344524
-0.344739
-0.344854
-0.344918
-0.345
-0.345142
-0.345422
-0.34248
-0.344322
-0.345075
-0.345589
-0.345962
-0.346239
-0.346462
-0.346679
-0.346909
-0.347277
-0.343231
-0.345294
-0.346172
-0.346819
-0.347336
-0.347761
-0.348124
-0.348455
-0.348746
-0.349124
-0.352887
-0.352814
-0.357734
-0.3647
-0.37878
-0.397062
-0.411704
-0.402107
-0.361103
-0.302393
-0.249106
-0.220807
-0.226631
-0.236294
-0.221303
-0.182743
-0.137838
-0.113784
-0.100457
-0.0962412
-0.102863
-0.102678
-0.0888589
-0.0855853
-0.0684798
-0.0325984
-0.0575342
-0.0790623
-0.0529916
0.0175087
-0.354484
-0.352946
-0.355535
-0.358601
-0.367251
-0.37915
-0.388719
-0.37786
-0.340766
-0.289235
-0.244149
-0.225086
-0.23868
-0.252359
-0.233975
-0.19089
-0.140135
-0.112567
-0.0964053
-0.0900828
-0.095996
-0.0975583
-0.0876302
-0.0855565
-0.0692135
-0.0336827
-0.0583466
-0.0794244
-0.0528808
0.0169593
-0.356345
-0.353228
-0.35347
-0.35253
-0.355589
-0.360864
-0.364987
-0.352454
-0.318859
-0.274409
-0.237836
-0.228544
-0.250244
-0.267546
-0.245706
-0.198327
-0.142205
-0.111233
-0.0925033
-0.0842416
-0.089445
-0.0924905
-0.0863427
-0.0854417
-0.0700087
-0.034867
-0.0591713
-0.0797702
-0.0527468
0.0163894
-0.35851
-0.353731
-0.351658
-0.346674
-0.344066
-0.34257
-0.340923
-0.326238
-0.29568
-0.257963
-0.230193
-0.231105
-0.261178
-0.281703
-0.256452
-0.205039
-0.144064
-0.109817
-0.0887878
-0.0787597
-0.0832625
-0.0875175
-0.0849998
-0.0852398
-0.0708712
-0.0361571
-0.0600072
-0.0800982
-0.0525887
0.0158028
-0.360997
-0.354507
-0.350199
-0.341199
-0.33293
-0.324616
-0.316964
-0.299659
-0.271511
-0.240094
-0.22128
-0.232704
-0.271306
-0.294706
-0.266186
-0.211025
-0.145726
-0.108351
-0.0852866
-0.073665
-0.0774884
-0.0826792
-0.0836051
-0.0849506
-0.0718051
-0.0375578
-0.0608521
-0.0804062
-0.0524053
0.0152027
-0.363802
-0.355587
-0.349173
-0.336252
-0.322407
-0.307333
-0.293545
-0.273225
-0.246739
-0.221088
-0.211192
-0.233285
-0.280438
-0.306456
-0.27489
-0.216294
-0.147205
-0.106865
-0.0820192
-0.0689712
-0.0721506
-0.0780109
-0.0821626
-0.0845738
-0.0728127
-0.0390727
-0.0617039
-0.0806919
-0.0521957
0.0145929
-0.36689
-0.356978
-0.348633
-0.331952
-0.312695
-0.291019
-0.271075
-0.247477
-0.221825
-0.201302
-0.200069
-0.2328
-0.288383
-0.31686
-0.282554
-0.220862
-0.148509
-0.105388
-0.0789974
-0.064679
-0.067265
-0.0735433
-0.0806766
-0.0841097
-0.0738948
-0.0407039
-0.0625592
-0.0809525
-0.0519587
0.0139768
-0.370192
-0.358652
-0.348602
-0.328386
-0.303952
-0.275926
-0.249911
-0.222917
-0.197255
-0.181148
-0.188096
-0.231209
-0.294962
-0.325842
-0.289173
-0.224751
-0.149648
-0.103944
-0.0762262
-0.0607777
-0.0628371
-0.0693014
-0.0791511
-0.0835591
-0.0750499
-0.0424523
-0.0634135
-0.0811844
-0.051693
0.0133579
-0.373626
-0.360555
-0.349059
-0.325599
-0.296297
-0.262255
-0.230328
-0.199734
-0.173501
-0.161072
-0.175487
-0.228491
-0.300028
-0.33334
-0.294748
-0.227987
-0.15063
-0.102557
-0.0737051
-0.0572474
-0.0588629
-0.0653046
-0.0775901
-0.0829229
-0.0762751
-0.0443175
-0.0642612
-0.0813841
-0.0513971
0.0127398
-0.377128
-0.362587
-0.349942
-0.323594
-0.289802
-0.250151
-0.21255
-0.180636
-0.15106
-0.141536
-0.162475
-0.224645
-0.303473
-0.339363
-0.299282
-0.230599
-0.151459
-0.101244
-0.0714288
-0.0540614
-0.0553295
-0.0615659
-0.0759969
-0.0822026
-0.0775655
-0.0462973
-0.0650961
-0.0815479
-0.0510697
0.012126
-0.380566
-0.36461
-0.351157
-0.32232
-0.284494
-0.23971
-0.196714
-0.159621
-0.130848
-0.122562
-0.149293
-0.219695
-0.30523
-0.34385
-0.302784
-0.232616
-0.152142
-0.100022
-0.0693892
-0.051189
-0.0522163
-0.0580922
-0.0743739
-0.0813999
-0.0789146
-0.0483877
-0.0659125
-0.081672
-0.0507092
0.0115202
-0.383249
-0.366635
-0.352577
-0.321668
-0.28036
-0.230992
-0.183075
-0.141341
-0.11287
-0.1049
-0.136164
-0.213696
-0.305285
-0.346718
-0.305262
-0.234071
-0.152689
-0.0989055
-0.0675766
-0.0485982
-0.049496
-0.0548882
-0.0727222
-0.0805165
-0.0803142
-0.050583
-0.0667048
-0.0817528
-0.0503141
0.0109258
-0.385385
-0.368653
-0.353927
-0.32148
-0.277313
-0.22399
-0.171721
-0.125748
-0.0973066
-0.0888438
-0.123294
-0.206733
-0.303664
-0.348002
-0.306732
-0.235001
-0.15311
-0.0979077
-0.0659805
-0.0462567
-0.0471336
-0.0519404
-0.0710414
-0.0795543
-0.0817548
-0.0528756
-0.0674668
-0.0817865
-0.0498828
0.0103464
-0.387019
-0.370312
-0.355111
-0.321693
-0.275121
-0.218594
-0.162595
-0.114147
-0.0832387
-0.074557
-0.110873
-0.198916
-0.300439
-0.347739
-0.307216
-0.235439
-0.153408
-0.0970295
-0.0645826
-0.0441318
-0.0450854
-0.0490546
-0.0693275
-0.0785145
-0.0832253
-0.0552563
-0.0681914
-0.0817696
-0.049413
0.00978571
-0.388049
-0.371494
-0.355958
-0.322064
-0.273946
-0.214909
-0.155711
-0.104658
-0.0717964
-0.0621674
-0.0990665
-0.190377
-0.295718
-0.345994
-0.306737
-0.235396
-0.153551
-0.0962463
-0.0633515
-0.0421906
-0.0433014
-0.0466773
-0.0675721
-0.0773979
-0.0847136
-0.0577142
-0.0688711
-0.0816992
-0.048903
0.00924733
-0.388396
-0.372114
-0.356318
-0.322373
-0.273413
-0.212752
-0.151015
-0.0977033
-0.0629004
-0.0517432
-0.088016
-0.181265
-0.28964
-0.342876
-0.30533
-0.234875
-0.153521
-0.0955398
-0.0622674
-0.040413
-0.041733
-0.0445487
-0.0657595
-0.0762044
-0.0862057
-0.0602379
-0.0694995
-0.081572
-0.0483536
0.00873415
-0.387985
-0.372055
-0.356061
-0.322452
-0.273334
-0.211852
-0.148301
-0.0930217
-0.0564488
-0.0433026
-0.0778426
-0.171743
-0.282379
-0.338498
-0.303072
-0.234
-0.153486
-0.0950219
-0.0613992
-0.0388153
-0.0403645
-0.0426412
-0.0638692
-0.0749321
-0.0876863
-0.0628125
-0.070072
-0.0813804
-0.0477707
0.00824663
-0.386648
-0.371232
-0.355183
-0.322298
-0.273706
-0.212193
-0.147513
-0.0904985
-0.0522614
-0.0368617
-0.0686207
-0.161956
-0.274072
-0.332739
-0.300023
-0.2331
-0.153837
-0.0949474
-0.0608922
-0.0374258
-0.0391878
-0.0410308
-0.0618882
-0.0735776
-0.0891373
-0.0654014
-0.0705704
-0.0811139
-0.0471588
0.00778561
-0.384629
-0.369745
-0.353793
-0.32212
-0.274895
-0.214244
-0.149136
-0.0905565
-0.0502243
-0.0325619
-0.0604278
-0.151831
-0.264456
-0.325312
-0.296005
-0.232021
-0.154252
-0.0950569
-0.060541
-0.0361178
-0.0380289
-0.0397642
-0.059823
-0.0721421
-0.0905442
-0.0679552
-0.0709462
-0.0807866
-0.0465024
0.00736655
-0.382436
-0.366624
-0.350663
-0.320189
-0.274621
-0.215423
-0.150767
-0.0916851
-0.0527375
-0.0300195
-0.0542226
-0.142412
-0.254683
-0.317988
-0.290699
-0.228734
-0.152265
-0.0935826
-0.0592058
-0.0344757
-0.0364298
-0.0380873
-0.05743
-0.0705849
-0.0918737
-0.0707045
-0.0713109
-0.0804861
-0.0457489
0.00702916
-0.367308
-0.360502
-0.344958
-0.314162
-0.268569
-0.209815
-0.145583
-0.0867381
-0.0473086
-0.0261825
-0.0484828
-0.136495
-0.25057
-0.31396
-0.284425
-0.221885
-0.146618
-0.0894474
-0.0561092
-0.0321277
-0.0337302
-0.0338124
-0.0528415
-0.0676681
-0.0935612
-0.0754949
-0.0722663
-0.0802134
-0.0447515
0.00668341
-0.355737
-0.348663
-0.331729
-0.301128
-0.25717
-0.201144
-0.139974
-0.0841084
-0.0476769
-0.0281115
-0.0492296
-0.133372
-0.241963
-0.301168
-0.271296
-0.210633
-0.139157
-0.0848969
-0.0528926
-0.0295493
-0.0309894
-0.0310769
-0.0500219
-0.0652071
-0.0947728
-0.0805846
-0.072263
-0.0790246
-0.043318
0.00612565
-0.342247
-0.334454
-0.316388
-0.28677
-0.245329
-0.192927
-0.135752
-0.0835312
-0.0497761
-0.0330181
-0.0537936
-0.132672
-0.232402
-0.286028
-0.256439
-0.198764
-0.131575
-0.0802783
-0.0496135
-0.0269325
-0.0280636
-0.028287
-0.0476994
-0.0632219
-0.0954647
-0.0854657
-0.0722535
-0.0774547
-0.0417267
0.0055398
-0.327599
-0.319074
-0.300188
-0.272124
-0.233848
-0.185706
-0.133147
-0.0849279
-0.0540294
-0.0398045
-0.0595669
-0.131886
-0.221536
-0.268944
-0.240181
-0.186164
-0.123597
-0.0755047
-0.0462551
-0.0242315
-0.0248928
-0.0250574
-0.044749
-0.0611
-0.0958416
-0.0904388
-0.0721009
-0.0755143
-0.0399045
0.00494552
-0.311275
-0.302697
-0.28363
-0.257483
-0.222776
-0.179292
-0.131757
-0.08788
-0.059844
-0.0478265
-0.0658457
-0.130309
-0.209023
-0.249953
-0.222781
-0.17311
-0.115406
-0.0706227
-0.0428116
-0.0214154
-0.0214258
-0.0214166
-0.0410472
-0.0586827
-0.0959401
-0.0953629
-0.0717035
-0.0731298
-0.0378387
0.00434834
-0.29346
-0.28577
-0.267196
-0.243133
-0.212135
-0.173441
-0.131061
-0.091757
-0.066408
-0.056275
-0.0720561
-0.12772
-0.194984
-0.22959
-0.204772
-0.159907
-0.107128
-0.0656688
-0.0392782
-0.0184524
-0.0176343
-0.0172873
-0.0366524
-0.055997
-0.0956126
-0.0999533
-0.0709904
-0.0702564
-0.0355047
0.00376093
-0.274979
-0.268709
-0.251244
-0.22929
-0.201932
-0.167932
-0.130607
-0.0957838
-0.0729999
-0.0643642
-0.0775723
-0.124071
-0.179836
-0.208699
-0.186751
-0.146852
-0.0989045
-0.060691
-0.0356517
-0.0153133
-0.013494
-0.0125624
-0.0315525
-0.0530116
-0.0946618
-0.10392
-0.0699058
-0.0668602
-0.0328837
0.00319817
-0.256423
-0.251781
-0.235898
-0.216195
-0.192143
-0.162576
-0.130054
-0.0994954
-0.0790745
-0.0715306
-0.0819918
-0.119595
-0.164675
-0.18823
-0.169284
-0.134205
-0.0908514
-0.055736
-0.0319301
-0.0119751
-0.00898664
-0.00712853
-0.0256679
-0.0495881
-0.092952
-0.106939
-0.0683883
-0.0629192
-0.029959
0.00267703
-0.238188
-0.235184
-0.221183
-0.203623
-0.182728
-0.157239
-0.129161
-0.102565
-0.0842893
-0.0774656
-0.0852245
-0.11469
-0.150215
-0.16899
-0.152809
-0.122164
-0.0830607
-0.0508476
-0.0281159
-0.00842615
-0.00410118
-0.000862379
-0.0188956
-0.0455333
-0.0904
-0.10864
-0.0663702
-0.0584286
-0.0267188
0.00221558
-0.220569
-0.219067
-0.207087
-0.191663
-0.173627
-0.151841
-0.127794
-0.104799
-0.0884729
-0.0820927
-0.0873733
-0.109729
-0.136957
-0.151473
-0.137595
-0.110855
-0.0755974
-0.0460622
-0.0242191
-0.00467153
0.0011645
0.00636605
-0.0111455
-0.0406522
-0.0869273
-0.108632
-0.0637836
-0.053406
-0.0231573
0.00183178
-0.203734
-0.203533
-0.193587
-0.180261
-0.164819
-0.146336
-0.125893
-0.106127
-0.0915835
-0.0854687
-0.0885855
-0.104932
-0.125154
-0.135877
-0.123754
-0.100342
-0.0685039
-0.0414065
-0.0202609
-0.000736548
0.00679122
0.0146643
-0.00236444
-0.0347786
-0.0824488
-0.106574
-0.0605655
-0.0478969
-0.0192774
0.00154261
-0.187765
-0.188654
-0.180661
-0.169364
-0.156272
-0.140708
-0.123454
-0.106559
-0.0936459
-0.0877006
-0.0889907
-0.100548
-0.114808
-0.122168
-0.111283
-0.0906445
-0.0618071
-0.0368991
-0.0162792
0.00333222
0.0127245
0.0240665
0.00744336
-0.027817
-0.0768832
-0.102199
-0.0566646
-0.0419776
-0.0150975
0.00136594
-0.172706
-0.174483
-0.1683
-0.158926
-0.147964
-0.134965
-0.120504
-0.106144
-0.0947188
-0.088909
-0.0886816
-0.0962712
-0.105762
-0.110194
-0.10012
-0.0817517
-0.0555253
-0.0325543
-0.0123367
0.00746625
0.0188653
0.0344917
0.0181696
-0.0198167
-0.0701562
-0.0953712
-0.0520497
-0.0357565
-0.0106567
0.00132007
-0.158578
-0.16106
-0.156506
-0.14892
-0.139879
-0.129125
-0.11709
-0.104951
-0.0948801
-0.0892165
-0.0877529
-0.0921772
-0.0978262
-0.0997534
-0.0901703
-0.0736373
-0.0496751
-0.0283879
-0.00852338
0.0115685
0.025037
0.0456298
0.0295383
-0.0110648
-0.0621959
-0.0861288
-0.0467217
-0.0293698
-0.00601838
0.0014227
-0.145384
-0.148407
-0.145286
-0.13933
-0.132011
-0.123214
-0.113271
-0.103064
-0.0942185
-0.0887462
-0.0862887
-0.0882181
-0.0908193
-0.0906432
-0.0813329
-0.0662657
-0.0442746
-0.0244216
-0.00494241
0.0155021
0.0309742
0.0577836
0.0409944
-0.00208397
-0.052921
-0.0747228
-0.0407275
-0.022974
-0.00127048
0.0016891
-0.133116
-0.136539
-0.134652
-0.130153
-0.124363
-0.117266
-0.109117
-0.100574
-0.0928247
-0.0876281
-0.0843659
-0.0843583
-0.0845845
-0.0826768
-0.0735057
-0.0595987
-0.0393409
-0.0206844
-0.0016876
0.0190894
0.0362973
0.0671083
0.051589
0.00664131
-0.0422738
-0.0616633
-0.0341788
-0.0167302
0.00347497
0.00212946
-0.12176
-0.12546
-0.124615
-0.121395
-0.116948
-0.11132
-0.104703
-0.0975842
-0.0907859
-0.0854993
-0.0820413
-0.0805785
-0.0789928
-0.0756916
-0.0665912
-0.0535981
-0.0348836
-0.0172152
0.00117547
0.0221427
0.0406965
0.0731732
0.0603852
0.0150007
-0.030432
-0.0477565
-0.0272705
-0.0107862
0.00808494
0.00274633
-0.111295
-0.115168
-0.115186
-0.113071
-0.10979
-0.105422
-0.100109
-0.094207
-0.0882889
-0.0833395
-0.0794503
-0.0768811
-0.0739426
-0.0695487
-0.0604977
-0.0482271
-0.0308997
-0.0140628
0.00361322
0.0245047
0.0438454
0.0750885
0.066673
0.023008
-0.0181174
-0.0340344
-0.0202651
-0.00527165
0.0124121
0.00353168
-0.101696
-0.105656
-0.106375
-0.105197
-0.102915
-0.0996214
-0.0954141
-0.0905483
-0.0854212
-0.0807839
-0.0766548
-0.0732766
-0.0693553
-0.0641324
-0.0551401
-0.0434509
-0.0273737
-0.0112765
0.00561831
0.0260774
0.0455011
0.0734432
0.0699909
0.0302346
-0.00646905
-0.0214632
-0.013439
-0.000295061
0.0162987
0.00446457
-0.0929348
-0.0969134
-0.0981896
-0.0977931
-0.0963586
-0.0939714
-0.0906981
-0.0867094
-0.0822817
-0.0779506
-0.0737237
-0.0697818
-0.0651723
-0.0593476
-0.0504405
-0.0392356
-0.0242828
-0.00889138
0.00720082
0.0268444
0.0456476
0.0695501
0.0702257
0.0360332
0.00357731
-0.0106462
-0.00702735
0.00407004
0.0195696
0.00551172
-0.0849861
-0.088929
-0.0906378
-0.0908821
-0.090156
-0.0885266
-0.0860375
-0.0827886
-0.0789749
-0.0749454
-0.0707239
-0.0664182
-0.0613525
-0.0551179
-0.0463295
-0.0355474
-0.0216023
-0.00691952
0.00837662
0.0268733
0.0445423
0.0646031
0.0678791
0.0400116
0.0116039
-0.00175148
-0.00119447
0.00779722
0.0220331
0.00672202
-0.077824
-0.0816912
-0.0837269
-0.0844876
-0.0843458
-0.0833432
-0.0815076
-0.0788788
-0.0756037
-0.0718651
-0.0677226
-0.0632115
-0.0578694
-0.051383
-0.0427466
-0.0323517
-0.0193071
-0.00534914
0.00916366
0.0263005
0.0425807
0.0593735
0.0638504
0.0422336
0.0176865
0.00536052
0.00395366
0.0109157
0.0235252
0.00780075
-0.0714266
-0.0751904
-0.0774654
-0.0786347
-0.0789678
-0.0784779
-0.0771812
-0.0750666
-0.0722243
-0.0687972
-0.0647862
-0.0601909
-0.0547087
-0.0480966
-0.039641
-0.0296131
-0.0173718
-0.00414886
0.00959214
0.0252953
0.0401326
0.0542842
0.0590346
0.0430182
0.0221233
0.0109319
0.00835147
0.0134767
0.0239801
0.00872533
-0.0657765
-0.0694203
-0.0718638
-0.0733503
-0.0740636
-0.0739881
-0.0731314
-0.071447
-0.0690023
-0.0658369
-0.0619817
-0.0573891
-0.0518668
-0.0452247
-0.0369714
-0.027296
-0.0157692
-0.00327275
0.00971221
0.0240282
0.0374832
0.0495579
0.0541157
0.0427305
0.0252584
0.0152113
0.0119747
0.0155069
0.0234653
0.00941495
-0.0608628
-0.0643804