/*--------------------------------*- C++ -*----------------------------------*\
  =========                 |
  \\      /  F ield         | OpenFOAM: The Open Source CFD Toolbox
   \\    /   O peration     | Website:  https://openfoam.org
    \\  /    A nd           | Version:  7
     \\/     M anipulation  |
\*---------------------------------------------------------------------------*/
FoamFile
{
    version     2.0;
    format      ascii;
    class       surfaceScalarField;
    location    "90";
    object      phi;
}
// * * * * * * * * * * * * * * * * * * * * * * * * * * * * * * * * * * * * * //

dimensions      [0 3 -1 0 0 0 0];

internalField   nonuniform List<scalar> 
16735
(
-8.78205e-05
-0.000111903
0.000199724
-0.000309531
-0.000531508
0.000753218
-0.000641712
-0.00109157
0.00142375
-0.00106234
-0.00171939
0.00214002
-0.00155102
-0.00237775
0.00286643
-0.00209019
-0.00307278
0.00361195
-0.00266768
-0.00384428
0.00442177
-0.00328125
-0.00474595
0.00535951
-0.00394272
-0.00582919
0.00649066
-0.00713811
0.00787761
-0.00468222
-9.46124e-05
-1.72911e-05
-0.000332358
-0.000293762
-0.000687523
-0.000736405
-0.00113628
-0.00127063
-0.00165714
-0.00185689
-0.0022322
-0.00249772
-0.00284979
-0.00322669
-0.00350921
-0.00408652
-0.00422566
-0.00511274
-0.00632812
-0.00503566
-9.98675e-05
8.25765e-05
-0.000349984
-4.36462e-05
-0.000722661
-0.000363728
-0.00119233
-0.000800965
-0.0017361
-0.00131311
-0.00233502
-0.00189881
-0.00297644
-0.00258527
-0.00365909
-0.00340387
-0.00439906
-0.00437277
-0.00549053
-0.00523665
-0.000103315
0.000185891
-0.000361571
0.00021461
-0.000745572
2.02721e-05
-0.00122814
-0.000318396
-0.00178478
-0.000756473
-0.0023947
-0.00128889
-0.00304278
-0.00193719
-0.00372467
-0.00272198
-0.00445447
-0.00364297
-0.00467258
-0.00527242
-0.000104736
0.000290628
-0.000366438
0.000476312
-0.00075496
0.000408794
-0.00124173
0.000168379
-0.00180048
-0.000197726
-0.00240789
-0.000681488
-0.00304477
-0.00130031
-0.00370094
-0.00206581
-0.004385
-0.00295892
-0.00392625
-0.00513132
-0.000103976
0.000394604
-0.00036407
0.000736406
-0.000749801
0.000794525
-0.00123147
0.000650045
-0.00178088
0.000351686
-0.00237158
-9.07883e-05
-0.00297883
-0.00069306
-0.00358362
-0.00146101
-0.00418507
-0.00235748
-0.00330871
-0.00480261
-0.000100948
0.000495552
-0.000354143
0.0009896
-0.000729362
0.00116974
-0.00119601
0.00111669
-0.00172389
0.000879572
-0.00228291
0.000468229
-0.00284145
-0.000134525
-0.00336864
-0.000933814
-0.00384991
-0.00187621
-0.00288194
-0.00427668
-9.56478e-05
0.0005912
-0.000336546
0.0012305
-0.000693228
0.00152643
-0.00113437
0.00155783
-0.00162766
0.00137286
-0.00213893
0.000979498
-0.00262871
0.000355254
-0.00305139
-0.000511134
-0.0033747
-0.00155289
-0.00271088
-0.00354576
-8.81612e-05
0.000679361
-0.000311416
0.00145375
-0.000641362
0.00185637
-0.00104596
0.00196243
-0.00149053
0.00181743
-0.00193644
0.00142542
-0.00233581
0.00075462
-0.00262589
-0.00022105
-0.00275317
-0.00142561
-0.00285898
-0.00260507
-7.86789e-05
0.00075804
-0.000279172
0.00165425
-0.000574181
0.00215138
-0.000930705
0.00231895
-0.00131124
0.00219796
-0.00167212
0.0017863
-0.00195674
0.00103924
-0.00208367
-9.41244e-05
-0.00197502
-0.00153425
-0.003378
-0.001456
-6.75037e-05
0.000825544
-0.000240551
0.00182729
-0.000492636
0.00240347
-0.000789243
0.00261556
-0.00108919
0.00249791
-0.00134284
0.00203995
-0.00148459
0.00118099
-0.00141292
-0.000165795
-0.00101465
-0.00193252
-0.00425286
-0.000139789
-5.50511e-05
0.000880595
-0.000196617
0.00196886
-0.000398282
0.00260513
-0.000623082
0.00284036
-0.000824887
0.00269972
-0.000946463
0.00216153
-0.000913033
0.00114756
-0.000607095
-0.000471733
0.000191844
-0.00273146
-0.00561275
0.00155173
-4.18354e-05
0.00092243
-0.000148736
0.00207576
-0.000293262
0.00274966
-0.000434699
0.00298179
-0.000520244
0.00278526
-0.000482584
0.00212387
-0.000234614
0.000899592
0.000341192
-0.00104754
0.00150954
-0.00389981
-0.0075881
0.00348489
-2.84348e-05
0.000950865
-9.8485e-05
0.00214581
-0.000180184
0.00283136
-0.000227417
0.00302903
-0.000178654
0.0027365
4.4407e-05
0.00190081
0.000550473
0.000393525
0.00147878
-0.00197585
0.00309772
-0.00551874
-0.010174
0.00568366
-1.54282e-05
0.000966293
-4.74914e-05
0.00217787
-6.18194e-05
0.00284568
-5.10037e-06
0.00297231
0.00019588
0.00253552
0.000637007
0.00145968
0.00144079
-0.000410261
0.00276743
-0.00330248
0.0049334
-0.00768471
-0.0133752
0.00813457
-3.3287e-06
0.000969622
3.3293e-06
0.00217122
5.93411e-05
0.00278967
0.00022881
0.00280284
0.000598564
0.00216576
0.00128363
0.000774613
0.00243116
-0.00155779
0.00421303
-0.00508435
0.00700003
-0.0104717
-0.01716
0.0107848
7.43431e-06
0.000962188
5.14401e-05
0.00212721
0.000181444
0.00265967
0.000471841
0.00251244
0.00102648
0.00161113
0.00198304
-0.000181947
0.0035159
-0.00309065
0.00581046
-0.00737891
0.00925973
-0.013921
-0.0214439
0.0135436
1.68196e-05
0.000945368
9.81795e-05
0.00204585
0.000304368
0.00245348
0.000724027
0.00209278
0.0014803
0.000854852
0.00273601
-0.00143765
0.00469286
-0.00504751
0.00755471
-0.0102408
0.0116495
-0.0180157
-0.026092
0.0162976
2.49997e-05
0.000920368
0.000143608
0.00192724
0.000429572
0.00216752
0.000988292
0.00153406
0.00196488
-0.000121737
0.00354866
-0.00302143
0.00596386
-0.00746271
0.00943813
-0.013715
0.0140906
-0.0226682
-0.0309335
0.0189322
3.24598e-05
0.000887909
0.000189331
0.00177037
0.000560406
0.00179644
0.00127051
0.000823956
0.00248899
-0.00134021
0.00443084
-0.00496328
0.00733105
-0.0103629
0.011424
-0.017808
0.0165098
-0.027754
-0.0358348
0.021411
3.99727e-05
0.000847936
0.000237796
0.00157255
0.000701821
0.00133242
0.00157889
-5.31087e-05
0.00306362
-0.00282495
0.00539198
-0.00729165
0.0087889
-0.0137598
0.0134214
-0.0224404
0.0188075
-0.0331401
-0.0431596
0.0261322
4.85086e-05
0.000799427
0.000292023
0.00132903
0.000859721
0.000764717
0.00192254
-0.00111593
0.00369922
-0.00460162
0.00643548
-0.0100279
0.0103173
-0.0176416
0.0153621
-0.0274852
0.021052
-0.0388301
-0.0499046
0.0277971
5.91162e-05
0.000740311
0.000355221
0.00103293
0.00104013
7.98044e-05
0.00230971
-0.00238551
0.0044022
-0.00669412
0.00755318
-0.0131789
0.0118699
-0.0219584
0.0171768
-0.0327921
0.0229196
-0.0445729
-0.0559426
0.0289576
7.27929e-05
0.000667518
0.000430353
0.00067537
0.00124816
-0.000738006
0.00274587
-0.00388321
0.00517154
-0.00911979
0.00872167
-0.016729
0.0133806
-0.0266173
0.0187821
-0.0381936
0.0243143
-0.0501051
-0.061309
0.0296808
9.03705e-05
0.000577148
0.000519754
0.000245986
0.00148715
-0.0017054
0.00323206
-0.00562812
0.0059963
-0.011884
0.00990138
-0.0206341
0.0147742
-0.0314902
0.0200908
-0.0435101
0.0252419
-0.0552562
-0.0659924
0.0299252
0.000112432
0.000464716
0.000624828
-0.00026641
0.00175806
-0.00283864
0.00376384
-0.00763389
0.00685484
-0.014975
0.0110402
-0.0248195
0.0159786
-0.0364286
0.0210508
-0.0485823
0.0257118
-0.0599172
-0.0700167
0.0297361
0.000139276
0.00032544
0.00074591
-0.000873044
0.00205912
-0.00415185
0.00433083
-0.0099056
0.00771599
-0.0183602
0.0120814
-0.0291849
0.0169373
-0.0412845
0.0216436
-0.0532886
0.0257673
-0.0640409
-0.0734404
0.029191
0.000170922
0.000154518
0.000882249
-0.00158437
0.00238579
-0.0056554
0.0049171
-0.0124369
0.00854243
-0.0219855
0.012973
-0.0336154
0.0176169
-0.0459284
0.0218808
-0.0575526
0.0254661
-0.0676261
-0.0763334
0.0283591
0.000207141
-5.26225e-05
0.00103207
-0.0024093
0.00273095
-0.00735428
0.00550217
-0.0152081
0.00929539
-0.0257787
0.0136751
-0.0379952
0.0180076
-0.0502609
0.0217943
-0.0613392
0.0248701
-0.070702
-0.0787711
0.0273077
0.000247499
-0.000300122
0.00119272
-0.00335452
0.00308522
-0.00924678
0.00606282
-0.0181857
0.0099398
-0.0296557
0.0141644
-0.0422198
0.0181198
-0.0542163
0.0214268
-0.0646462
0.0240392
-0.0733144
-0.0808234
0.0260915
0.000291399
-0.00059152
0.00136073
-0.00442385
0.00343751
-0.0113236
0.00657524
-0.0213234
0.0104484
-0.0335289
0.0144336
-0.046205
0.0179772
-0.0577599
0.0208249
-0.0674938
0.0230265
-0.075516
-0.0825518
0.0247549
0.000338089
-0.00092961
0.00153202
-0.00561778
0.00377561
-0.0135672
0.00701757
-0.0245654
0.0108039
-0.0373152
0.0144888
-0.0498899
0.0176113
-0.0608824
0.0200334
-0.069916
0.0218768
-0.0773594
-0.0840069
0.023332
0.000386688
-0.0013163
0.00170197
-0.00693306
0.00408702
-0.0159522
0.00737193
-0.0278503
0.0109996
-0.0409429
0.014346
-0.0532363
0.0170563
-0.0635926
0.0190931
-0.0719528
0.0206265
-0.0788927
-0.085229
0.0218486
0.000436183
-0.00175248
0.00186561
-0.00836248
0.00435991
-0.0184465
0.00762585
-0.0311163
0.0110376
-0.0443546
0.0140269
-0.0562256
0.0163459
-0.0659117
0.0180391
-0.073646
0.0193042
-0.0801578
-0.0862485
0.0203237
0.000485451
-0.00223793
0.00201783
-0.00989486
0.00458395
-0.0210126
0.00777277
-0.0343051
0.0109267
-0.0475086
0.0135556
-0.0588545
0.0155114
-0.0678675
0.0169005
-0.075035
0.017932
-0.0811893
-0.087088
0.0187714
0.00053328
-0.00277121
0.00215363
-0.0115152
0.00475114
-0.0236102
0.00781168
-0.0373656
0.0106806
-0.0503775
0.0129571
-0.061131
0.0145805
-0.0694909
0.0157009
-0.0761555
0.0165265
-0.0820149
-0.0877633
0.0172018
0.00057841
-0.00334962
0.00226841
-0.0132052
0.00485618
-0.0261979
0.00774624
-0.0402557
0.0103155
-0.0529468
0.0122547
-0.0630702
0.0135766
-0.0708128
0.0144593
-0.0770382
0.0151004
-0.082656
-0.0882854
0.0156225
0.000619585
-0.00396921
0.00235827
-0.0149439
0.00489666
-0.0287363
0.00758354
-0.0429425
0.00984831
-0.0552115
0.01147
-0.0646919
0.0125198
-0.0718626
0.0131902
-0.0777087
0.013663
-0.0831287
-0.0886618
0.0140394
0.000655605
-0.00462481
0.00242016
-0.0167084
0.00487283
-0.031189
0.007333
-0.0454027
0.0092961
-0.0571746
0.0106219
-0.0660176
0.011426
-0.0726668
0.0119052
-0.0781878
0.0122215
-0.083445
-0.0888974
0.0124571
0.000685383
-0.0053102
0.0024521
-0.0184752
0.00478721
-0.0335241
0.00700527
-0.0476208
0.0086748
-0.0588442
0.00972672
-0.0670696
0.0103085
-0.0732486
0.0106129
-0.0784921
0.0107812
-0.0836133
-0.0889956
0.0108794
0.000707992
-0.00601819
0.00245316
-0.0202203
0.00464403
-0.035715
0.00661146
-0.0495882
0.00799902
-0.0602317
0.00879834
-0.0678689
0.00917775
-0.073628
0.0093201
-0.0786345
0.00934651
-0.0836397
-0.0889584
0.00930937
0.000722696
-0.00674088
0.00242345
-0.0219211
0.00444874
-0.0377403
0.00616252
-0.051302
0.00728175
-0.0613509
0.00784824
-0.0684354
0.00804192
-0.0738217
0.00803207
-0.0786246
0.00792062
-0.0835283
-0.0887867
0.00774892
0.000728975
-0.00746986
0.00236397
-0.0235561
0.00420744
-0.0395837
0.00566884
-0.0527634
0.00653433
-0.0622164
0.0068859
-0.068787
0.00690755
-0.0738433
0.00675281
-0.0784699
0.00650628
-0.0832818
-0.0884803
0.00619988
0.000726531
-0.00819639
0.00227648
-0.025106
0.00392653
-0.0412338
0.00514
-0.0539768
0.00576651
-0.0628429
0.00591908
-0.0689395
0.00577977
-0.073704
0.00548537
-0.0781755
0.00510562
-0.082902
-0.0880385
0.00466377
0.000715281
-0.00891167
0.00216325
-0.026554
0.00361238
-0.0426829
0.00458462
-0.0549491
0.0049866
-0.0632449
0.00495414
-0.0689071
0.00466288
-0.0734127
0.00423245
-0.0777451
0.00371986
-0.0823894
-0.0874605
0.00314186
0.000695352
-0.00960702
0.00202691
-0.0278856
0.00327109
-0.0439271
0.00401035
-0.0556884
0.00420153
-0.0634361
0.00399626
-0.0687018
0.0035607
-0.0729772
0.00299759
-0.077182
0.00234915
-0.081741
-0.0867439
0.00163255
0.000667076
-0.0102741
0.00187046
-0.0290889
0.00290839
-0.044965
0.00342386
-0.0562038
0.00341706
-0.0634293
0.00304952
-0.0683342
0.00247617
-0.0724038
0.00178494
-0.0764908
0.00100016
-0.0809562
-0.085836
9.22557e-05
0.000630969
-0.0109051
0.00169704
-0.030155
0.00252958
-0.0457976
0.0028309
-0.0565051
0.00263796
-0.0632364
0.00211713
-0.0678134
0.00141089
-0.0716976
0.00059168
-0.0756715
-0.000306521
-0.080058
-0.0848256
-0.00131691
0.000587682
-0.0114927
0.00150961
-0.0310769
0.00213944
-0.0464274
0.00223643
-0.0566021
0.0018681
-0.062868
0.00120177
-0.0671471
0.000365072
-0.0708609
-0.000576987
-0.0747295
-0.00161632
-0.0790187
-0.0837072
-0.00273468
0.000537974
-0.0120307
0.001311
-0.03185
0.00174228
-0.0468587
0.0016446
-0.0565045
0.0011106
-0.062334
0.000304877
-0.0663414
-0.000653752
-0.0699023
-0.00171716
-0.0736661
-0.00288542
-0.0778504
-0.0824595
-0.00413314
0.0004827
-0.0125134
0.001104
-0.0324713
0.00134192
-0.0470966
0.00105878
-0.0562213
0.000368296
-0.0616436
-0.000568782
-0.0654043
-0.00164787
-0.0688232
-0.00283371
-0.0724802
-0.00412539
-0.0765587
-0.081081
-0.00550387
0.000422756
-0.0129362
0.000891317
-0.0329398
0.000941674
-0.0471469
0.000482342
-0.055762
-0.000356582
-0.0608046
-0.00142004
-0.0643408
-0.00261784
-0.0676254
-0.00392256
-0.0711755
-0.00533657
-0.0751447
-0.0795736
-0.00684396
0.000358989
-0.0132952
0.00067557
-0.0332564
0.000544789
-0.0470162
-7.90067e-05
-0.0551382
-0.00106209
-0.0598215
-0.00224872
-0.0631542
-0.00356178
-0.0663123
-0.00498259
-0.0697547
-0.00651754
-0.0736098
-0.07794
-0.00815116
0.000292356
-0.0135875
0.00045875
-0.0334228
0.000159401
-0.0467168
-0.000634467
-0.0543443
-0.00174918
-0.0587068
-0.00305341
-0.06185
-0.0044787
-0.064887
-0.00601302
-0.0682204
-0.00766688
-0.0719559
-0.0761841
-0.00942273
0.000224662
-0.0138122
0.000242884
-0.033441
-0.000231554
-0.0462424
-0.00117215
-0.0534037
-0.00241546
-0.0574635
-0.00383331
-0.0604321
-0.00536787
-0.0633525
-0.00701323
-0.066575
-0.00878318
-0.070186
-0.0743126
-0.0106547
0.000155897
-0.0139681
4.30207e-05
-0.0333281
-0.000614516
-0.0455848
-0.00169588
-0.0523224
-0.00306024
-0.0560992
-0.0045877
-0.0589047
-0.00622867
-0.0617115
-0.0079825
-0.0648212
-0.00986523
-0.0683032
-0.0723305
-0.0118473
8.24198e-05
-0.0140505
-0.000188016
-0.0330577
-0.000985217
-0.0447876
-0.00220253
-0.0511051
-0.0036828
-0.0546189
-0.00531607
-0.0572714
-0.00706072
-0.0599668
-0.00892032
-0.0629616
-0.0109131
-0.0663104
-0.070235
-0.0130087
1.05261e-06
-0.0140516
-0.000408122
-0.0326485
-0.00134545
-0.0438503
-0.00269085
-0.0497597
-0.00428224
-0.0530275
-0.00601804
-0.0555356
-0.00786439
-0.0581205
-0.00982788
-0.0609981
-0.0119263
-0.064212
-0.0680247
-0.0141365
-6.71512e-05
-0.0139844
-0.000617435
-0.0320983
-0.00169347
-0.0427743
-0.00316034
-0.0482928
-0.00485784
-0.05133
-0.00669305
-0.0537004
-0.00864035
-0.0561732
-0.0107087
-0.0589298
-0.0128999
-0.0620208
-0.0657164
-0.0152082
-0.000139248
-0.0138452
-0.000819287
-0.0314182
-0.00202822
-0.0415653
-0.00361037
-0.0467106
-0.0054089
-0.0495315
-0.00734007
-0.0517692
-0.00938646
-0.0541268
-0.011561
-0.0567553
-0.0138727
-0.0597091
-0.0634579
-0.0161312
-0.000210512
-0.0136346
-0.0010142
-0.0306145
-0.00234904
-0.0402305
-0.00404035
-0.0450193
-0.00593496
-0.0476368
-0.00795808
-0.0497461
-0.0100977
-0.0519872
-0.0123547
-0.0544983
-0.0146917
-0.0573721
-0.0606753
-0.0174742
-0.00028005
-0.0133546
-0.00120184
-0.0296927
-0.00265547
-0.0387769
-0.00444987
-0.0432249
-0.00643583
-0.0456509
-0.00854648
-0.0476354
-0.0107707
-0.049763
-0.0131042
-0.0521648
-0.0155649
-0.0549114
-0.0579128
-0.0183274
-0.000347446
-0.0130071
-0.00138168
-0.0286585
-0.00294712
-0.0372114
-0.00483862
-0.0413334
-0.00691121
-0.0435783
-0.0091052
-0.0454414
-0.0114123
-0.0474559
-0.013837
-0.04974
-0.016414
-0.0523344
-0.0551271
-0.0191997
-0.000412392
-0.0125948
-0.00155325
-0.0275176
-0.00322365
-0.035541
-0.00520633
-0.0393508
-0.00736069
-0.0414239
-0.00963341
-0.0431687
-0.0120193
-0.04507
-0.0145283
-0.047231
-0.0171914
-0.0496713
-0.0522907
-0.0200278
-0.00047462
-0.0121201
-0.00171611
-0.0262762
-0.00348474
-0.0337724
-0.0055528
-0.0372827
-0.00778415
-0.0391926
-0.0101314
-0.0408214
-0.0125928
-0.0426087
-0.0151813
-0.0446424
-0.0179217
-0.0469309
-0.0493919
-0.0208205
-0.000533887
-0.0115862
-0.00186991
-0.0249401
-0.00373016
-0.0319121
-0.00587787
-0.035135
-0.00818142
-0.036889
-0.010599
-0.0384039
-0.0131317
-0.040076
-0.0157938
-0.0419804
-0.0186056
-0.0441191
-0.0464261
-0.0215714
-0.000589978
-0.0109963
-0.00201434
-0.0235158
-0.00395968
-0.0299668
-0.00618143
-0.0329132
-0.00855244
-0.034518
-0.0110359
-0.0359204
-0.0136356
-0.0374764
-0.0163661
-0.0392498
-0.0192456
-0.0412396
-0.043393
-0.0222787
-0.000642698
-0.0103536
-0.00214915
-0.0220093
-0.00417314
-0.0279428
-0.00646338
-0.030623
-0.00889709
-0.0320843
-0.0114422
-0.0333753
-0.0141042
-0.0348143
-0.0168984
-0.0364556
-0.0198417
-0.0382963
-0.0402944
-0.0229403
-0.000691878
-0.0096617
-0.00227413
-0.0204271
-0.0043704
-0.0258466
-0.00672366
-0.0282697
-0.00921532
-0.0295927
-0.0118174
-0.0307732
-0.0145374
-0.0320944
-0.0173907
-0.0336023
-0.0203938
-0.0352931
-0.0371337
-0.0235545
-0.000737369
-0.00892433
-0.00238909
-0.0187753
-0.00455135
-0.0236843
-0.00696221
-0.0258589
-0.00950706
-0.0270478
-0.0121617
-0.0281186
-0.0149349
-0.0293211
-0.0178427
-0.0306946
-0.0209014
-0.0322344
-0.0339149
-0.0241202
-0.000779043
-0.00814528
-0.00249389
-0.0170605
-0.00471592
-0.0214623
-0.007179
-0.0233958
-0.00977224
-0.0244546
-0.0124747
-0.0254161
-0.0152967
-0.0264992
-0.0182542
-0.0277371
-0.0213639
-0.0291246
-0.0306425
-0.0246363
-0.000816789
-0.0073285
-0.0025884
-0.0152889
-0.00486401
-0.0191866
-0.00737397
-0.0208858
-0.0100108
-0.0218177
-0.0127565
-0.0226703
-0.0156224
-0.0236333
-0.0186249
-0.0247345
-0.0217809
-0.0259687
-0.0273215
-0.0251019
-0.000850512
-0.00647798
-0.00267252
-0.0134669
-0.0049956
-0.0168636
-0.00754712
-0.0183343
-0.0102227
-0.0191421
-0.013007
-0.0198861
-0.015912
-0.0207283
-0.0189547
-0.0216918
-0.0221519
-0.0227715
-0.0239571
-0.0255163
-0.000880132
-0.00559785
-0.00274618
-0.0116008
-0.00511062
-0.0144991
-0.00769842
-0.0157465
-0.0104079
-0.0164326
-0.0132259
-0.0170681
-0.0161653
-0.017789
-0.0192432
-0.0186139
-0.0224765
-0.0195382
-0.0205546
-0.025879
-0.00090558
-0.00469227
-0.00280928
-0.00969712
-0.00520906
-0.0120993
-0.00782785
-0.0131277
-0.0105664
-0.0136941
-0.0134133
-0.0142212
-0.0163821
-0.0148201
-0.0194903
-0.0155058
-0.0227546
-0.0162739
-0.0171196
-0.0261896
-0.000926801
-0.00376547
-0.00286179
-0.00776213
-0.00529087
-0.00967026
-0.00793539
-0.0104832
-0.0106981
-0.0109314
-0.0135691
-0.0113502
-0.0165625
-0.0118268
-0.0196957
-0.0123725
-0.0229858
-0.0129838
-0.0136576
-0.0264479
-0.000943748
-0.00282172
-0.00290364
-0.00580224
-0.00535604
-0.00721787
-0.00802105
-0.0078182
-0.010803
-0.00814938
-0.0136933
-0.00845998
-0.0167062
-0.00881381
-0.0198595
-0.00921919
-0.0231702
-0.00967316
-0.010174
-0.0266537
-0.000956386
-0.00186534
-0.00293482
-0.0038238
-0.00540455
-0.00474813
-0.0080848
-0.00513795
-0.0108811
-0.00535304
-0.0137857
-0.00555543
-0.0168133
-0.00578626
-0.0199816
-0.00605087
-0.0233075
-0.00634726
-0.00667449
-0.026807
-0.000964688
-0.000900649
-0.00295528
-0.00183321
-0.00543639
-0.00226703
-0.00812665
-0.00244769
-0.0109324
-0.00254726
-0.0138464
-0.00264144
-0.0168836
-0.00274909
-0.0200618
-0.00287271
-0.0233977
-0.00301132
-0.00316445
-0.0269077
-0.000968638
6.79889e-05
-0.00296502
0.000163173
-0.00545154
0.000219498
-0.00814659
0.000247358
-0.0109569
0.000263039
-0.0138754
0.000277075
-0.0169172
0.000292702
-0.0201001
0.000310187
-0.0234409
0.000329463
0.000350331
-0.0269556
-0.000968227
0.00103622
-0.00296402
0.00215897
-0.00545001
0.00270549
-0.00814461
0.00294195
-0.0109545
0.00307293
-0.0138726
0.0031952
-0.016914
0.00333412
-0.0200966
0.00349274
-0.023437
0.00366991
0.00386531
-0.026952
-0.000963454
0.00199967
-0.00295229
0.0041478
-0.00543179
0.005185
-0.0081207
0.00563086
-0.0109253
0.00587749
-0.0138381
0.00610802
-0.0168741
0.00637016
-0.0200512
0.0066698
-0.0233861
0.00700481
0.00737438
-0.0268952
-0.000954328
0.002954
-0.00292982
0.00612329
-0.00539688
0.00765206
-0.00807488
0.00830886
-0.0108692
0.00867179
-0.0137718
0.00901063
-0.0167974
0.00939581
-0.0199639
0.00983626
-0.023288
0.0103289
0.0108721
-0.0267857
-0.000940865
0.00389486
-0.00289663
0.00807906
-0.00534528
0.0101007
-0.00800712
0.0109707
-0.0107863
0.0114509
-0.0136737
0.0118981
-0.016684
0.0124061
-0.0198348
0.012987
-0.0231428
0.013637
0.0143532
-0.0266238
-0.000923091
0.00481795
-0.00285275
0.0100087
-0.005277
0.012525
-0.00791744
0.0136111
-0.0106765
0.01421
-0.013544
0.0147656
-0.0165339
0.0153961
-0.0196639
0.0161169
-0.0229507
0.0169238
0.0178119
-0.0264094
-0.000901042
0.005719
-0.00279821
0.0119059
-0.00519204
0.0149188
-0.00780582
0.0162249
-0.0105399
0.016944
-0.0133825
0.0176082
-0.0163472
0.0183607
-0.0194512
0.019221
-0.0227116
0.0201841
0.0212429
-0.0261426
-0.000874762
0.00659376
-0.00273305
0.0137642
-0.00509043
0.0172762
-0.00767228
0.0188068
-0.0103765
0.0196482
-0.0131894
0.0204211
-0.0161238
0.0212952
-0.019197
0.0222941
-0.0224256
0.0234127
0.0246407
-0.0258234
-0.000844308
0.00743807
-0.00265732
0.0155772
-0.00497218
0.019591
-0.00751681
0.0213514
-0.0101863
0.0223177
-0.0129647
0.0231996
-0.015864
0.0241945
-0.0189012
0.0253313
-0.0220931
0.0266045
0.0279998
-0.0254522
-0.000809747
0.00824781
-0.00257109
0.0173385
-0.00483733
0.0218573
-0.00733942
0.0238535
-0.00996928
0.0249475
-0.0127084
0.0259387
-0.0155679
0.027054
-0.0185642
0.0283277
-0.0217141
0.0297545
0.0313149
-0.0250292
-0.00077116
0.00901897
-0.00247444
0.0190418
-0.0046859
0.0240687
-0.00714013
0.0263077
-0.00972555
0.027533
-0.0124207
0.0286338
-0.0152355
0.0298688
-0.0181861
0.0312783
-0.0212892
0.0328575
0.0345807
-0.024555
-0.000728642
0.00974761
-0.00236747
0.0206806
-0.00451793
0.0262192
-0.00691893
0.0287087
-0.00945511
0.0300691
-0.0121016
0.0312803
-0.014867
0.0326343
-0.0177672
0.0341785
-0.0208186
0.0359089
0.0377924
-0.0240303
-0.000682304
0.0104299
-0.00225031
0.0222486
-0.0043335
0.0283024
-0.00667587
0.0310511
-0.009158
0.0325513
-0.0117512
0.0338735
-0.0144626
0.0353457
-0.0173077
0.0370235
-0.0203029
0.0389042
0.0409454
-0.0234559
-0.000632275
0.0110622
-0.00212309
0.0237395
-0.00413268
0.030312
-0.00641095
0.0333294
-0.00883426
0.0349746
-0.0113696
0.0364089
-0.0140225
0.0379985
-0.0168078
0.0398088
-0.0197425
0.0418389
0.0440357
-0.0228328
-0.000578705
0.0116409
-0.001986
0.0251468
-0.00391556
0.0322415
-0.00612423
0.035538
-0.00848395
0.0373343
-0.010957
0.038882
-0.0135467
0.0405881
-0.0162677
0.0425298
-0.019138
0.0447092
0.0470601
-0.0221624
-0.000521765
0.0121627
-0.00183924
0.0264642
-0.00368228
0.0340846
-0.00581576
0.0376715
-0.00810711
0.0396256
-0.0105134
0.0412883
-0.0130355
0.0431102
-0.0156874
0.0451818
-0.0184894
0.0475113
0.0500166
-0.0214459
-0.000461653
0.0126243
-0.00168308
0.0276857
-0.00343299
0.0358345
-0.00548561
0.0397241
-0.00770382
0.0418439
-0.0100391
0.0436236
-0.0124891
0.0455602
-0.0150668
0.0477595
-0.0177968
0.0502412
0.0529054
-0.0206855
-0.000398588
0.0130229
-0.0015178
0.0288049
-0.0031679
0.0374846
-0.00513388
0.0416901
-0.00727414
0.0439841
-0.00953407
0.0458835
-0.0119079
0.047934
-0.0144055
0.0502571
-0.0170574
0.0528931
0.0557309
-0.0198829
-0.000332822
0.0133557
-0.00134378
0.0298158
-0.00288725
0.039028
-0.00476072
0.0435636
-0.00681822
0.0460416
-0.00899862
0.0480639
-0.011293
0.0502283
-0.0137057
0.0526698
-0.0162708
0.0554583
0.0585043
-0.0190443
-0.000264638
0.0136204
-0.00116142
0.0307126
-0.00259133
0.0404579
-0.00436631
0.0453386
-0.00633614
0.0480115
-0.0084324
0.0501602
-0.0106432
0.0524391
-0.0129641
0.0549907
-0.0154125
0.0579067
0.0612517
-0.0181599
-0.000194382
0.0138147
-0.000971216
0.0314894
-0.00228048
0.0417672
-0.00395091
0.047009
-0.0058283
0.0498888
-0.00783619
0.0521681
-0.00996155
0.0545645
-0.0122049
0.057234
-0.0145289
0.0602307
0.0640153
-0.0172924
-0.000122567
0.0139373
-0.000773602
0.0321405
-0.00195509
0.0429487
-0.00351483
0.0485687
-0.00529499
0.051669
-0.0072101
0.0540832
-0.00924165
0.056596
-0.011402
0.0593944
-0.0137009
0.0625296
0.0662714
-0.015957
-5.05033e-05
0.0139878
-0.000568747
0.0326587
-0.00161566
0.0439956
-0.00305846
0.0500115
-0.00473634
0.0533469
-0.00655468
0.0559015
-0.00848663
0.058528
-0.0105408
0.0614486
-0.0127198
0.0647086
0.0685721
-0.0150205
2.27221e-05
0.0139651
-0.000355789
0.0330372
-0.00126292
0.0449027
-0.00258235
0.051331
-0.0041528
0.0549173
-0.00587087
0.0576196
-0.00770131
0.0603584
-0.00965037
0.0633977
-0.0117362
0.0667944
0.0707731
-0.0139371
0.000101048
0.013864
-0.000130106
0.0332684
-0.000898173
0.0456708
-0.00208703
0.0525198
-0.00354503
0.0563753
-0.00515966
0.0592342
-0.00688772
0.0620865
-0.00873244
0.0652424
-0.0107123
0.0687742
0.0728584
-0.0127976
0.000174071
0.01369
9.11279e-05
0.0333513
-0.000523221
0.0462852
-0.00157308
0.0535697
-0.00291385
0.0577161
-0.00442155
0.0607419
-0.00604519
0.0637101
-0.00778362
0.0669808
-0.00965301
0.0706436
0.0748295
-0.0116242
0.000243626
0.0134464
0.00029993
0.033295
-0.000129784
0.0467149
-0.00104207
0.054482
-0.00226001
0.058934
-0.00365685
0.0621388
-0.00517332
0.0652266
-0.00680274
0.0686103
-0.00855894
0.0723998
0.0766897
-0.0104191
0.000312058
0.0131343
0.000518145
0.0330889
0.00025754
0.0469755
-0.000497709
0.0552372
-0.00158408
0.0600204
-0.00286611
0.0634208
-0.00427244
0.0666329
-0.00579024
0.0701281
-0.00742998
0.0740395
0.0784338
-0.00917415
0.000378876
0.0127554
0.00073712
0.0327307
0.000651374
0.0470612
6.66722e-05
0.0558219
-0.000887011
0.0609741
-0.00205002
0.0645838
-0.00334312
0.067926
-0.00474676
0.0715317
-0.00626735
0.0755601
0.0800555
-0.00788899
0.000442599
0.0123128
0.000954842
0.0322185
0.00105335
0.0469627
0.000635125
0.0562402
-0.000171409
0.0617806
-0.00120936
0.0656217
-0.00238603
0.0691027
-0.00367283
0.0728185
-0.00507246
0.0769598
0.0815504
-0.0065674
0.000502289
0.0118105
0.00116897
0.0315518
0.00145827
0.0466734
0.0012202
0.0564782
0.000564756
0.0624361
-0.000346012
0.0665325
-0.00140227
0.0701589
-0.002569
0.0739852
-0.00384674
0.0782375
0.0829159
-0.00521225
0.00055705
0.0112535
0.00137686
0.030732
0.00186299
0.0461873
0.0018142
0.056527
0.00131844
0.0629318
0.000542476
0.0673085
-0.000394513
0.0710959
-0.00143641
0.0750271
-0.00259127
0.0793924
0.0841505
-0.00382584
0.000605972
0.0106475
0.00157576
0.0297622
0.00226397
0.0454991
0.00241402
0.056377
0.00208745
0.0632584
0.0014529
0.067943
0.000642297
0.0719065
-0.000282486
0.0759519
-0.00130444
0.0804143
0.0852589
-0.00241279
0.000648196
0.00999931
0.00176282
0.0286476
0.00265718
0.0446047
0.00301614
0.056018
0.002869
0.0634056
0.00238284
0.0684292
0.00170373
0.0725856
0.00090993
0.0767457
3.96769e-05
0.0812846
0.0862804
-0.00098189
0.000682958
0.00931635
0.00193506
0.0273955
0.00303815
0.0435016
0.00361618
0.05544
0.00365981
0.0633619
0.00333036
0.0687586
0.00278644
0.0731296
0.00211868
0.0774135
0.00135176
0.0820515
0.0871491
0.000483063
0.000709609
0.00860674
0.00208943
0.0260156
0.00340186
0.0421892
0.00420894
0.0546329
0.00445575
0.0631151
0.00429252
0.0689219
0.00388894
0.0735331
0.00335074
0.0779517
0.00272279
0.0826794
0.0878503
0.00202166
0.000727646
0.0078791
0.0022226
0.0245207
0.00374276
0.040669
0.00478834
0.0535873
0.0052518
0.0626517
0.00526601
0.0689077
0.0050099
0.0737893
0.00460675
0.0783548
0.00411561
0.0831706
0.0884101
0.00355578
0.000736771
0.00714232
0.00233162
0.0229258
0.00405486
0.0389458
0.00534734
0.0522948
0.0060419
0.0619571
0.00624662
0.0687029
0.00614633
0.0738896
0.00588199
0.0786192
0.00552555
0.083527
0.0888334
0.00510228
0.000736892
0.00640543
0.00241379
0.0212489
0.00433177
0.0370278
0.00587788
0.0507487
0.00681869
0.0610163
0.00722887
0.0682928
0.00729424
0.0738242
0.00717284
0.0787406
0.006952
0.0837479
0.0891201
0.00666531
0.000728136
0.0056773
0.00246684
0.0195102
0.00456686
0.0349278
0.00637084
0.0489447
0.00757333
0.0598138
0.00820597
0.0676601
0.0084491
0.0735811
0.00847661
0.078713
0.0083939
0.0838306
0.0892698
0.00824412
0.000710855
0.00496644
0.00248906
0.017732
0.00475349
0.0326634
0.00681609
0.0468821
0.00829545
0.0583344
0.00916962
0.0667859
0.00960546
0.0731452
0.00979019
0.0785283
0.00984918
0.0837716
0.0892821
0.00983691
0.000685631
0.00428081
0.0024796
0.0159381
0.00488538
0.0302576
0.00720269
0.0445648
0.00897295
0.0565642
0.0101097
0.0656492
0.0107564
0.0724985
0.0111094
0.0781753
0.011315
0.0835659
0.0891554
0.0114418
0.000653272
0.00362754
0.00243853
0.0141528
0.00495704
0.0277391
0.00751913
0.0420027
0.00959198
0.0544913
0.0110138
0.0642274
0.0118929
0.0716194
0.0124286
0.0776397
0.012788
0.0832065
0.0888865
0.0130568
0.000614777
0.00301276
0.00236705
0.0124005
0.00496434
0.0251418
0.00775381
0.0392133
0.010137
0.0521081
0.0118671
0.0624973
0.0130039
0.0704826
0.0137405
0.0769031
0.0142637
0.0826833
0.0884712
0.0146791
0.000571306
0.00244146
0.00226747
0.0107044
0.00490504
0.0225042
0.00789571
0.0362226
0.010591
0.0494128
0.0126519
0.0604364
0.014075
0.0690595
0.0150357
0.0759423
0.0157365
0.0819825
0.0879029
0.0163047
0.000524124
0.00191733
0.00214314
0.00908533
0.0047794
0.019868
0.00793526
0.0330667
0.0109361
0.046412
0.013348
0.0580245
0.0150886
0.0673189
0.0163018
0.0747292
0.0171987
0.0810857
0.0871724
0.0179291
0.000474539
0.00144279
0.00199831
0.00756156
0.00459052
0.0172758
0.00786553
0.0297917
0.0111542
0.0431234
0.0139321
0.0552466
0.0160234
0.0652276
0.0175227
0.0732299
0.0186401
0.0799683
0.0862663
0.0195462
0.000423839
0.00101895
0.00183783
0.00614757
0.00434449
0.0147691
0.00768343
0.0264528
0.0112286
0.0395782
0.0143791
0.0520961
0.0168535
0.0627532
0.018678
0.0714054
0.0200472
0.0785991
0.0851655
0.021148
0.000373226
0.000645728
0.00166682
0.00485398
0.00405011
0.0123858
0.00739094
0.0231119
0.0111455
0.0358237
0.0146625
0.048579
0.0175489
0.0598668
0.0197415
0.0692128
0.0214015
0.0769392
0.0838433
0.0227236
0.000323758
0.00032197
0.00149035
0.00368738
0.00371827
0.0101579
0.00699594
0.0198343
0.0108962
0.0319235
0.0147566
0.0447185
0.0180757
0.0565477
0.0206813
0.0666072
0.0226787
0.0749418
0.0822642
0.0242579
0.000276303
4.56678e-05
0.00131312
0.00265056
0.00336102
0.00810999
0.00651228
0.016683
0.0104797
0.0279561
0.0146387
0.0405595
0.0183973
0.0527891
0.0214589
0.0635456
0.0238473
0.0725534
0.0803815
0.02573
0.000231516
-0.000185848
0.00113921
0.00174287
0.00299051
0.00625868
0.00595893
0.0137146
0.00990466
0.0240103
0.0142929
0.0361713
0.0184769
0.048605
0.0220296
0.0599929
0.024867
0.069716
0.0781366
0.0271118
0.000189831
-0.00037568
0.000971929
0.000960776
0.00261807
0.00461254
0.00535817
0.0109745
0.00919045
0.020178
0.0137141
0.0316477
0.0182813
0.0440379
0.0223442
0.05593
0.0256879
0.0663723
0.075459
0.0283655
0.000151505
-0.000527185
0.000813855
0.000298426
0.00225349
0.0031729
0.00473333