/*--------------------------------*- C++ -*----------------------------------*\
  =========                 |
  \\      /  F ield         | OpenFOAM: The Open Source CFD Toolbox
   \\    /   O peration     | Website:  https://openfoam.org
    \\  /    A nd           | Version:  7
     \\/     M anipulation  |
\*---------------------------------------------------------------------------*/
FoamFile
{
    version     2.0;
    format      ascii;
    class       volVectorField;
    location    "90";
    object      U;
}
// * * * * * * * * * * * * * * * * * * * * * * * * * * * * * * * * * * * * * //

dimensions      [0 1 -1 0 0 0 0];

internalField   nonuniform List<vector> 
8500
(
(-0.00135207 -0.00459178 9.02497e-22)
(-0.0075765 -0.0174994 -2.58988e-21)
(-0.0193324 -0.0317752 -3.01861e-21)
(-0.0332406 -0.0452081 2.99903e-21)
(-0.0480525 -0.0569609 -2.75888e-21)
(-0.0627252 -0.0673152 -1.4703e-21)
(-0.076511 -0.0771405 2.50995e-21)
(-0.0891151 -0.0873534 3.11497e-21)
(-0.100557 -0.0986002 -5.12445e-22)
(-0.111228 -0.111238 1.50127e-21)
(-0.00144403 -0.00199998 -9.96602e-22)
(-0.00784814 -0.0116438 3.07876e-21)
(-0.0200239 -0.0240427 -7.25399e-21)
(-0.0344346 -0.0366037 6.57772e-21)
(-0.0497988 -0.0482315 2.86347e-22)
(-0.0650335 -0.0589691 4.81191e-21)
(-0.0793594 -0.069449 -8.36516e-21)
(-0.092481 -0.0803386 -1.22395e-20)
(-0.104453 -0.0920409 -2.40146e-21)
(-0.115742 -0.104691 5.43532e-21)
(-0.00173195 0.000751611 9.24389e-22)
(-0.00849194 -0.00544974 6.79813e-21)
(-0.0210686 -0.0158893 1.59935e-20)
(-0.035842 -0.0275573 -1.44678e-20)
(-0.0515234 -0.0390744 -3.28023e-21)
(-0.0670022 -0.0502231 -2.97179e-21)
(-0.0814631 -0.0613836 1.52062e-20)
(-0.0945958 -0.072958 9.42056e-21)
(-0.106463 -0.0850809 2.27592e-21)
(-0.117522 -0.097627 -1.68666e-20)
(-0.00222359 0.00360399 3.28123e-21)
(-0.00951246 0.000963272 -3.9834e-21)
(-0.0224507 -0.00745803 -2.99134e-20)
(-0.0374219 -0.018217 2.63125e-21)
(-0.0531594 -0.0296351 8.19677e-21)
(-0.0685391 -0.0412232 -6.40099e-21)
(-0.0827041 -0.0531017 -2.68568e-22)
(-0.0953106 -0.065397 -2.60985e-21)
(-0.1064 -0.0779423 5.87411e-21)
(-0.116291 -0.0902952 1.69175e-20)
(-0.00291844 0.00649133 2.29018e-21)
(-0.0108997 0.00746417 -1.29108e-20)
(-0.0241397 0.00109757 3.09904e-20)
(-0.0391196 -0.00873786 -1.41413e-20)
(-0.0546269 -0.0200618 -4.96265e-23)
(-0.0695386 -0.0321125 1.95597e-20)
(-0.0829501 -0.0447549 -8.95187e-21)
(-0.0944596 -0.0578364 9.8849e-22)
(-0.104061 -0.0708512 -3.68126e-21)
(-0.111731 -0.0829632 1.41885e-21)
(-0.00380704 0.0093435 2.73963e-20)
(-0.0126278 0.0139141 3.32495e-20)
(-0.0260891 0.00961629 -8.48143e-21)
(-0.0408653 0.000719993 1.62224e-20)
(-0.0558296 -0.0105031 5.15067e-21)
(-0.0698763 -0.0230291 -7.27445e-21)
(-0.0820451 -0.0364837 -2.82425e-21)
(-0.091847 -0.0504446 -1.23719e-20)
(-0.0992187 -0.0640305 2.68958e-21)
(-0.103459 -0.0759188 -1.5832e-20)
(-0.00487068 0.0120886 -2.64153e-20)
(-0.0146548 0.0201705 -1.73464e-20)
(-0.0282357 0.0179324 1.42158e-20)
(-0.042572 0.00999298 -2.46614e-20)
(-0.0566519 -0.00110752 2.88082e-21)
(-0.0694025 -0.0141042 2.90329e-20)
(-0.0798001 -0.0284128 -5.25338e-21)
(-0.0872307 -0.0433672 3.427e-20)
(-0.0916067 -0.057689 -6.44285e-22)
(-0.0910151 -0.0694671 -1.39976e-20)
(-0.00608177 0.014656 2.22843e-20)
(-0.016923 0.026091 -4.03187e-20)
(-0.0305 0.0258787 -1.6069e-20)
(-0.0441355 0.0189151 1.87642e-20)
(-0.0569562 0.00797608 7.12053e-22)
(-0.0679365 -0.00546254 -5.46187e-20)
(-0.0759816 -0.020647 -3.33205e-21)
(-0.0803036 -0.0367149 -2.72477e-20)
(-0.080905 -0.0520035 -3.51141e-20)
(-0.0738457 -0.063917 2.07333e-20)
(-0.00740482 0.0169791 -1.24465e-20)
(-0.0193608 0.0315383 6.00616e-21)
(-0.0327877 0.0332891 1.4837e-20)
(-0.0454347 0.0273182 -1.34453e-20)
(-0.0565824 0.0165962 -4.69877e-20)
(-0.0652625 0.00277469 1.61392e-20)
(-0.0703034 -0.0132715 2.28385e-21)
(-0.0706736 -0.0305485 4.12041e-20)
(-0.0667187 -0.047089 5.42163e-20)
(-0.0512921 -0.0595236 -2.44083e-20)
(-0.00879811 0.0189985 1.97437e-20)
(-0.0218849 0.0363839 1.80184e-20)
(-0.034992 0.0400018 -2.58177e-21)
(-0.0463341 0.0350318 6.67014e-20)
(-0.0553488 0.0245951 2.83994e-20)
(-0.0611281 0.0104828 2.13879e-20)
(-0.0624192 -0.0063573 3.05769e-20)
(-0.0578434 -0.0248716 -1.33053e-20)
(-0.0485338 -0.0429765 -1.81632e-20)
(-0.0226473 -0.056242 -3.01151e-20)
(-0.0102161 0.0206652 -1.76767e-21)
(-0.0244045 0.0405136 -2.85608e-20)
(-0.0369976 0.0458624 -2.06111e-20)
(-0.046687 0.0418837 -3.30622e-20)
(-0.0530558 0.0318046 -2.62992e-20)
(-0.0552475 0.0175235 2.66603e-20)
(-0.0519251 2.29292e-05 -2.57222e-20)
(-0.0412036 -0.0196491 -1.77805e-20)
(-0.0255224 -0.0397162 2.36063e-21)
(0.01274 -0.053356 7.80032e-21)
(-0.0116123 0.0219434 -5.47616e-20)
(-0.0268251 0.0438313 2.6156e-20)
(-0.038684 0.0507281 1.91145e-20)
(-0.0463391 0.0477017 1.28769e-20)
(-0.0494918 0.0380436 -2.36005e-20)
(-0.0473095 0.0237351 -1.99788e-20)
(-0.0383764 0.00577771 2.90523e-20)
(-0.0201471 -0.0148213 -2.38433e-20)
(0.00372943 -0.0374829 -1.49162e-21)
(0.0561554 -0.0505255 -2.51181e-20)
(-0.0129424 0.0228127 4.60557e-20)
(-0.0290528 0.0462645 1.87825e-20)
(-0.0399288 0.0544734 1.09519e-21)
(-0.0451311 0.0523188 -2.34472e-20)
(-0.0444368 0.0431205 1.58459e-21)
(-0.0369871 0.0289326 2.65322e-20)
(-0.021277 0.0107758 -7.59979e-21)
(0.0057632 -0.0103515 -9.38928e-21)
(0.0401873 -0.0358912 -2.11659e-20)
(0.109844 -0.0478637 3.82689e-20)
(-0.0141676 0.0232699 3.13952e-20)
(-0.0309981 0.0477674 -5.07522e-20)
(-0.0406086 0.056996 -3.93074e-20)
(-0.0428975 0.055582 1.69741e-20)
(-0.0376609 0.0468448 3.48727e-20)
(-0.0239526 0.032915 2.99856e-20)
(-6.58762e-05 0.0148305 -3.2061e-20)
(0.0373109 -0.00635064 6.23872e-20)
(0.0842516 -0.0343414 -1.9061e-20)
(0.174812 -0.0447102 -4.51466e-20)
(-0.0152566 0.0233289 -4.69964e-20)
(-0.0325767 0.0483236 2.83208e-20)
(-0.040598 0.0582262 -1.37498e-20)
(-0.0394595 0.0573663 1.4403e-21)
(-0.0289061 0.049041 1.48034e-20)
(-0.00785401 0.0354504 -4.72258e-20)
(0.0257219 0.017712 4.23428e-20)
(0.0753164 -0.00304689 -4.13281e-20)
(0.137044 -0.0329137 6.69714e-20)
(0.251022 -0.0399759 2.41207e-20)
(-0.0161876 0.0230188 1.00602e-20)
(-0.0337063 0.0479441 5.53258e-20)
(-0.0397635 0.0581365 -1.40105e-20)
(-0.034615 0.0575885 1.41915e-20)
(-0.017885 0.0495731 1.6757e-20)
(0.0117297 0.0363569 -5.06956e-21)
(0.0566242 0.0192493 3.64858e-20)
(0.120318 -0.000532361 1.779e-21)
(0.199828 -0.0315975 -4.30176e-20)
(0.337364 -0.0330163 5.78675e-20)
(-0.0169494 0.0223811 -2.68011e-20)
(-0.0343106 0.0466797 -5.24788e-20)
(-0.0379448 0.0567391 4.56209e-20)
(-0.0281162 0.0562244 2.30179e-20)
(-0.00423415 0.0483917 -1.07323e-19)
(0.0352947 0.035577 8.80956e-20)
(0.0933067 0.0193656 -8.0269e-20)
(0.172848 0.00106905 1.23765e-21)
(0.273694 -0.0298019 -1.83894e-20)
(0.431085 -0.023625 -5.34643e-20)
(-0.0175333 0.0214676 2.32931e-20)
(-0.034311 0.0446036 -3.17985e-21)
(-0.0349538 0.054091 -1.12095e-20)
(-0.0196425 0.0533292 -1.26204e-21)
(0.0125227 0.0455562 -6.69504e-21)
(0.0634874 0.0331945 -2.80921e-20)
(0.136574 0.0182013 1.21094e-20)
(0.233584 0.00170384 -1.91266e-20)
(0.359209 -0.0261775 5.83466e-21)
(0.527546 -0.0117127 1.58793e-21)
(-0.0179324 0.0203292 -4.75654e-20)
(-0.0336058 0.0418002 -3.45212e-21)
(-0.0305572 0.0503063 5.213e-21)
(-0.00878661 0.04904 2.12275e-21)
(0.0329961 0.041252 3.5219e-20)
(0.097125 0.0294783 -1.03332e-19)
(0.187336 0.0161558 7.02205e-20)
(0.303434 0.00159801 -5.27887e-20)
(0.455841 -0.0188336 4.46654e-20)
(0.621494 0.00195831 4.88894e-20)
(-0.0181358 0.0190128 -5.79203e-21)
(-0.0320703 0.0383696 2.64819e-20)
(-0.0244606 0.0455386 -3.33149e-20)
(0.00495688 0.0435756 -1.04675e-20)
(0.0579296 0.0357973 2.0271e-20)
(0.137156 0.0248921 9.82513e-20)
(0.246456 0.0138523 -1.98834e-20)
(0.383252 0.00158269 9.76158e-21)
(0.561098 -0.00651433 -5.16854e-20)
(0.71101 0.0125155 2.29638e-20)
(-0.018121 0.0175564 -1.73935e-20)
(-0.0295468 0.0344156 -1.35129e-20)
(-0.0163055 0.0399752 3.31435e-21)
(0.0221868 0.03723 1.31859e-20)
(0.0881638 0.0296322 -3.91861e-20)
(0.184554 0.020073 -1.59553e-20)
(0.314524 0.0120747 -5.04799e-20)
(0.472933 0.00324624 5.22058e-20)
(0.669265 0.0089134 5.50448e-20)
(0.799789 0.0111536 -2.33882e-20)
(-0.0178477 0.0159854 -8.27618e-21)
(-0.0258377 0.0300392 3.37655e-20)
(-0.00567388 0.0338295 -3.78452e-20)
(0.043568 0.0303602 -4.4227e-21)
(0.124564 0.0232979 -1.79343e-20)
(0.240145 0.01579 3.93626e-20)
(0.39166 0.0117225 5.11214e-20)
(0.570598 0.00817486 -4.89774e-20)
(0.772536 0.0215319 5.17938e-20)
(0.917047 0.0142753 6.95944e-21)
(-0.0172538 0.0143128 -2.39861e-20)
(-0.0207037 0.0253349 -6.83002e-20)
(0.00789929 0.0273326 6.67485e-20)
(0.069789 0.02337 9.63837e-21)
(0.167916 0.0174058 1.42259e-20)
(0.304385 0.0128746 8.48259e-21)
(0.477187 0.0136905 3.88513e-20)
(0.672515 0.016655 2.86425e-20)
(0.873459 0.0339979 -1.01174e-19)
(1.02107 0.0302382 -4.91858e-20)
(-0.0162533 0.0125411 -8.21431e-20)
(-0.0138683 0.020392 1.65598e-20)
(0.0249032 0.020728 -3.76907e-20)
(0.101503 0.0166946 7.3775e-21)
(0.218797 0.0126051 1.18877e-20)
(0.377145 0.0121356 -8.55742e-20)
(0.569342 0.0187004 3.77259e-20)
(0.774661 0.0283414 -2.56834e-20)
(0.968087 0.0484036 2.68821e-20)
(1.10503 0.0478801 -9.31271e-21)
(-0.0147379 0.0106675 2.97069e-20)
(-0.00502648 0.0153001 3.20521e-20)
(0.0458229 0.0142707 -1.79654e-21)
(0.139259 0.0107898 -1.03521e-20)
(0.277447 0.0095458 4.51332e-22)
(0.457543 0.0142598 9.19445e-22)
(0.665319 0.0271004 -5.75025e-20)
(0.873048 0.0427033 7.29996e-21)
(1.05238 0.0641915 7.13178e-20)
(1.17359 0.06582 3.22405e-20)
(-0.0125805 0.00869016 -2.01119e-20)
(0.00614202 0.0101573 -1.49369e-20)
(0.0711064 0.00823083 6.41612e-20)
(0.183433 0.00612329 1.64379e-21)
(0.343649 0.00883931 -2.69224e-20)
(0.543891 0.0197122 7.27995e-20)
(0.761681 0.0388048 1.59728e-20)
(0.964129 0.0590463 8.41834e-22)
(1.12462 0.0807089 -3.12579e-20)
(1.22626 0.0832383 -4.05738e-20)
(-0.00964086 0.00661524 4.20146e-20)
(0.019956 0.00508157 -1.17392e-20)
(0.101129 0.00290057 -6.99412e-21)
(0.23416 0.00316832 -2.66537e-20)
(0.416645 0.0110117 4.39778e-20)
(0.633802 0.0286665 -2.15998e-20)
(0.854945 0.0533758 -2.43282e-20)
(1.04542 0.0766565 -5.80804e-21)
(1.18416 0.0973586 -1.78664e-20)
(1.2657 0.0996328 1.95222e-20)
(-0.00577307 0.00446354 -1.54812e-20)
(0.0367148 0.000220871 -9.20001e-20)
(0.13616 -0.00139963 9.60318e-21)
(0.291278 0.00239254 3.31741e-20)
(0.495119 0.0164484 2.37984e-20)
(0.724479 0.0409963 -7.9508e-20)
(0.942128 0.0701926 5.10556e-20)
(1.11557 0.0949052 -2.3305e-20)
(1.23159 0.113709 3.52042e-20)
(1.29399 0.114983 9.69947e-21)
(-0.000832638 0.00227532 -1.6949e-20)
(0.0566787 -0.00423848 3.26653e-20)
(0.176324 -0.0043175 4.26205e-20)
(0.354287 0.00423707 -3.06473e-20)
(0.577272 0.025345 1.14256e-20)
(0.813104 0.0563369 -6.99781e-20)
(1.02108 0.0886073 -1.31649e-20)
(1.17432 0.11331 1.10433e-20)
(1.26812 0.129523 -2.67706e-20)
(1.31341 0.129324 -2.72079e-20)
(0.00531628 0.000113231 -2.18842e-20)
(0.0800492 -0.0080676 -7.38407e-21)
(0.221576 -0.00547252 -7.72185e-20)
(0.422328 0.00908288 -1.21218e-20)
(0.660989 0.0376879 -1.36738e-21)
(0.897196 0.0741889 4.12208e-21)
(1.09056 0.108046 7.30159e-21)
(1.22212 0.131541 -3.46131e-20)
(1.29528 0.144706 6.2167e-22)
(1.32592 0.142824 1.87615e-20)
(0.0127936 -0.00193666 -5.70534e-21)
(0.10695 -0.0109957 2.67885e-20)
(0.271667 -0.00446887 3.77321e-20)
(0.494207 0.0172106 2.36256e-20)
(0.744069 0.0532767 -7.03168e-21)
(0.974846 0.0940196 -5.81398e-21)
(1.15012 0.128051 5.79531e-20)
(1.25993 0.149405 7.75902e-21)
(1.31462 0.159267 2.61269e-20)
(1.33315 0.155658 -1.13124e-20)
(0.0216964 -0.00376612 5.45573e-20)
(0.137408 -0.0127165 3.53672e-20)
(0.326129 -0.000918705 -3.58627e-20)
(0.56847 0.0287682 -7.14962e-21)
(0.824456 0.07178 3.73618e-21)
(1.04479 0.115332 -1.3678e-20)
(1.19994 0.148285 -2.97102e-20)
(1.28893 0.166811 -4.95781e-21)
(1.32762 0.173279 3.9686e-22)
(1.3364 0.168003 1.22304e-20)
(0.032093 -0.00524753 6.70678e-21)
(0.17134 -0.0128999 -1.92856e-20)
(0.384277 0.00552715 4.56734e-20)
(0.643514 0.0437587 2.97956e-20)
(0.900412 0.0927988 8.97654e-22)
(1.10635 0.137699 2.12405e-20)
(1.24058 0.16852 3.13784e-21)
(1.31037 0.183745 -2.25407e-20)
(1.33554 0.186846 1.9149e-20)
(1.33667 0.180014 -3.96841e-23)
(0.0440167 -0.00623777 -4.49465e-20)
(0.208536 -0.0112073 -1.32517e-20)
(0.445221 0.0151471 -1.19943e-20)
(0.717716 0.0620535 -2.09067e-20)
(0.970611 0.115919 4.90801e-21)
(1.15937 0.160772 1.2235e-22)
(1.27286 0.18861 1.63938e-20)
(1.32544 0.20024 -2.59726e-21)
(1.33945 0.200079 -1.96801e-20)
(1.33467 0.191814 -1.84169e-20)
(0.0574605 -0.00658321 3.64823e-21)
(0.248661 -0.00731059 2.14419e-20)
(0.507918 0.0281226 1.03928e-20)
(0.789563 0.0834211 -3.25599e-20)
(1.03414 0.140742 -1.66673e-21)
(1.20401 0.184279 -1.40793e-20)
(1.29767 0.208475 3.66458e-22)
(1.33519 0.216352 6.6608e-21)
(1.34017 0.21308 -7.4186e-21)
(1.33092 0.203492 2.07498e-20)
(0.0723731 -0.00612533 8.56698e-21)
(0.291252 -0.000912683 -2.09771e-20)
(0.571222 0.0445244 -4.95847e-20)
(0.857737 0.107561 4.57465e-20)
(1.09049 0.166907 -3.43313e-21)
(1.2407 0.20801 1.01679e-20)
(1.31593 0.228079 -1.42093e-21)
(1.34055 0.232148 9.84432e-21)
(1.33836 0.225933 -7.29185e-22)
(1.32577 0.215105 -1.60825e-20)
(0.0886559 -0.00470711 -1.7453e-20)
(0.33573 0.00823292 2.72934e-20)
(0.633959 0.0643117 2.25621e-20)
(0.921171 0.134133 -3.26198e-20)
(1.13942 0.194087 -5.42543e-21)
(1.26999 0.231805 2.07329e-21)
(1.3285 0.247411 2.09006e-20)
(1.34225 0.24769 1.06864e-21)
(1.33449 0.238698 4.09641e-21)
(1.31945 0.226681 -8.84295e-21)
(0.106163 -0.00217978 1.32415e-20)
(0.381423 0.0203051 -1.19171e-20)
(0.694992 0.0873422 -1.016e-20)
(0.979055 0.16278 1.74609e-20)
(1.18098 0.221995 6.04712e-21)
(1.2925 0.255541 4.5866e-21)
(1.33613 0.266471 -2.12796e-20)
(1.34092 0.263025 -7.31757e-21)
(1.3289 0.25141 -6.57432e-21)
(1.31211 0.23822 2.90827e-21)
(0.124701 0.00159013 -6.60342e-21)
(0.427589 0.0354027 -1.53189e-22)
(0.753274 0.113388 1.92328e-20)
(1.03083 0.193139 -7.06186e-21)
(1.21534 0.250375 -3.12948e-21)
(1.30886 0.279122 -2.06528e-21)
(1.33949 0.285263 5.15016e-21)
(1.33701 0.278182 8.9226e-21)
(1.32183 0.264079 -2.80469e-22)
(1.30382 0.249705 3.2749e-21)
(0.144035 0.00671384 4.6542e-21)
(0.473449 0.0535378 -1.30597e-21)
(0.807886 0.142154 -3.44335e-21)
(1.07614 0.224851 -3.12537e-21)
(1.24282 0.279 2.82578e-21)
(1.31967 0.302463 2.21035e-21)
(1.33914 0.303779 -2.04088e-21)
(1.33088 0.293172 7.44097e-22)
(1.31344 0.276692 1.04687e-21)
(1.29464 0.261097 -1.39566e-21)
(0.163895 0.013274 2.5002e-21)
(0.518219 0.0746347 7.1212e-22)
(0.85806 0.173292 -4.27339e-21)
(1.11482 0.257566 -3.41744e-21)
(1.26376 0.307658 3.56802e-21)
(1.32548 0.325485 6.98658e-22)
(1.33554 0.322003 -1.6364e-21)
(1.3228 0.307981 1.53943e-21)
(1.30383 0.289212 8.61611e-22)
(1.28459 0.272347 -9.9401e-22)
(0.183979 0.0213196 -9.78072e-22)
(0.561137 0.0985337 1.99331e-21)
(0.903186 0.206419 1.3166e-20)
(1.14684 0.290942 -5.87004e-21)
(1.27859 0.336154 -2.88136e-21)
(1.32678 0.348111 -3.2535e-21)
(1.32906 0.339903 6.6717e-21)
(1.31297 0.322574 4.4786e-21)
(1.29307 0.301582 3.5894e-21)
(1.2737 0.283395 1.96113e-21)
(0.203969 0.0308619 2.00416e-20)
(0.601497 0.124998 -1.10169e-20)
(0.942802 0.241128 -1.25523e-20)
(1.17229 0.324646 1.70759e-20)
(1.28769 0.364304 8.99896e-21)
(1.32401 0.370257 -6.02436e-22)
(1.31999 0.357427 -1.11365e-20)
(1.30151 0.336898 -8.04772e-21)
(1.2812 0.313728 -8.41725e-21)
(1.26199 0.294174 5.01709e-21)
(0.223534 0.0418725 -2.71115e-20)
(0.638659 0.153725 2.54775e-20)
(0.976592 0.276993 2.93281e-20)
(1.19131 0.358355 -2.89358e-20)
(1.29147 0.391925 -1.00254e-20)
(1.31756 0.39183 6.43978e-21)
(1.30857 0.374511 1.17186e-20)
(1.28852 0.350877 1.84557e-21)
(1.26824 0.325558 -3.29433e-22)
(1.24944 0.30461 -6.85509e-21)
(0.242346 0.0542832 -3.89249e-21)
(0.672073 0.184356 -3.5841e-20)
(1.00436 0.313584 -3.83925e-20)
(1.20413 0.391757 4.30957e-20)
(1.29032 0.418841 -4.89476e-21)
(1.30774 0.412732 8.99321e-21)
(1.29498 0.391075 1.77443e-21)
(1.27407 0.364425 -5.01705e-21)
(1.25418 0.33697 2.69072e-21)
(1.23597 0.314627 -3.62426e-22)
(0.260084 0.067987 7.91459e-21)
(0.701281 0.216486 2.22025e-20)
(1.02603 0.350466 1.25906e-20)
(1.21102 0.424549 -9.91852e-21)
(1.2846 0.444874 -1.5402e-20)
(1.29485 0.432853 -1.4374e-20)
(1.2794 0.407029 -2.90756e-21)
(1.25822 0.377456 7.72926e-21)
(1.23899 0.347891 -1.62867e-21)
(1.22138 0.324144 3.78787e-21)
(0.276446 0.0828413 -2.9915e-20)
(0.725928 0.24968 -2.78891e-20)
(1.04162 0.387209 -4.41796e-21)
(1.21226 0.456438 -4.99272e-21)
(1.27464 0.469847 -1.13414e-20)
(1.27912 0.452072 6.94957e-21)
(1.26193 0.422267 -1.26036e-21)
(1.24103 0.389887 -6.80056e-21)
(1.22272 0.358324 6.17172e-21)
(1.20555 0.333051 -8.93663e-21)
(0.291155 0.0986712 7.13216e-21)
(0.745758 0.283484 2.36463e-20)
(1.0512 0.423389 2.05512e-20)
(1.20816 0.48714 2.2345e-20)
(1.26079 0.493584 4.53224e-22)
(1.2608 0.470261 1.95474e-20)
(1.2427 0.436671 1.28962e-21)
(1.22255 0.401605 -2.3101e-20)
(1.20541 0.368287 1.65937e-20)
(1.18895 0.341265 6.17982e-21)
(0.303971 0.115273 1.93769e-20)
(0.760614 0.317434 4.32349e-20)
(1.05495 0.458597 -5.73196e-21)
(1.19906 0.516382 -2.81247e-20)
(1.24334 0.515908 1.2694e-20)
(1.24006 0.487287 -1.3218e-20)
(1.2218 0.450113 -1.76472e-20)
(1.20285 0.41247 -1.51403e-21)
(1.18703 0.377515 -1.37672e-20)
(1.17183 0.34886 5.36377e-21)
(0.314689 0.132422 9.09194e-21)
(0.770424 0.351068 6.71629e-21)
(1.05306 0.492438 5.39211e-20)
(1.18528 0.543903 1.01118e-20)
(1.22258 0.536648 -8.81532e-21)
(1.2171 0.503011 -4.53545e-21)
(1.19938 0.462468 2.69822e-20)
(1.18198 0.422413 2.22384e-20)
(1.16759 0.385868 1.11144e-20)
(1.15403 0.355654 -1.51076e-21)
(0.323147 0.149875 1.91387e-21)
(0.775198 0.383933 -4.41958e-20)
(1.0458 0.524535 -6.33872e-20)
(1.16716 0.569451 1.97734e-21)
(1.1988 0.55563 1.24957e-20)
(1.19212 0.517285 -1.72682e-20)
(1.17555 0.473606 -3.94833e-20)
(1.15998 0.431317 -1.17965e-20)
(1.14722 0.393258 -7.15331e-22)
(1.1355 0.36154 5.73523e-21)
(0.329227 0.167381 -1.57664e-20)
(0.775023 0.415593 3.97265e-20)
(1.03349 0.554541 3.80851e-20)
(1.14506 0.592794 -3.5156e-20)
(1.17225 0.572677 5.3697e-21)
(1.16529 0.529967 4.17165e-20)
(1.15038 0.483402 -9.29362e-21)
(1.13691 0.439068 7.85728e-21)
(1.12599 0.399586 -3.82923e-21)
(1.11629 0.366431 -5.15661e-21)
(0.332855 0.18468 -3.54658e-20)
(0.77006 0.445625 -6.26297e-20)
(1.01649 0.582141 -1.22889e-20)
(1.1193 0.613711 2.017e-20)
(1.14318 0.587621 1.9823e-20)
(1.13679 0.540905 -4.15563e-20)
(1.124 0.491729 2.27349e-20)
(1.11287 0.445555 -1.20121e-20)
(1.10396 0.404759 9.77629e-21)
(1.09646 0.370259 2.81822e-22)
(0.334005 0.201516 2.70581e-20)
(0.760552 0.473625 1.91383e-21)
(0.995172 0.60705 -6.02612e-21)
(1.09012 0.631976 -2.49807e-20)
(1.1119 0.600309 1.62184e-20)
(1.10679 0.549958 3.48877e-21)
(1.09653 0.498468 -1.30289e-20)
(1.08796 0.450675 2.23947e-21)
(1.08121 0.408679 -2.65871e-21)
(1.0761 0.372949 1.46568e-21)
(0.332716 0.21764 -7.40132e-21)
(0.74681 0.499245 -1.0338e-20)
(0.969685 0.628937 2.63835e-20)
(1.05793 0.647436 1.22775e-20)
(1.07869 0.610563 -1.67888e-20)
(1.07548 0.557011 2.37676e-20)
(1.0681 0.503508 1.73454e-21)
(1.06229 0.45433 1.99568e-21)
(1.05783 0.411248 -1.31322e-22)
(1.0553 0.374408 1.00051e-22)
(0.329076 0.232804 4.7988e-20)
(0.729139 0.522297 3.70126e-20)
(0.94025 0.647449 -2.58224e-21)
(1.02321 0.659877 -5.76277e-21)
(1.04382 0.618271 -6.84299e-21)
(1.04305 0.561943 -3.37848e-21)
(1.03886 0.506748 1.85578e-21)
(1.03597 0.456435 1.7099e-21)
(1.0339 0.41237 5.56948e-22)
(1.03412 0.374536 -2.33925e-21)
(0.323156 0.246674 3.94675e-21)
(0.707676 0.542482 6.41373e-21)
(0.907572 0.662608 -3.43393e-20)
(0.986364 0.669063 1.53023e-20)
(1.00755 0.623325 4.26436e-21)
(1.0097 0.564655 -9.59415e-21)
(1.00896 0.508096 3.27462e-21)
(1.00911 0.456915 1.11492e-21)
(1.00957 0.411976 -3.0826e-21)
(1.0128 0.373283 3.19827e-21)
(0.314959 0.25897 -1.82103e-20)
(0.682661 0.559296 -1.32464e-20)
(0.872222 0.67423 1.10727e-20)
(0.947681 0.67495 2.98089e-21)
(0.970126 0.625622 -5.96757e-21)
(0.975614 0.565048 5.53575e-21)
(0.978527 0.50746 1.90378e-21)
(0.981795 0.455679 -6.12773e-21)
(0.985077 0.409998 1.76436e-20)
(0.99201 0.370686 7.42208e-21)
(0.304708 0.269477 -1.40145e-20)
(0.654586 0.572458 3.50972e-20)
(0.83452 0.682095 -2.24242e-20)
(0.907494 0.677465 -3.19194e-21)
(0.931824 0.625079 -3.99552e-21)
(0.940979 0.563046 2.8348e-22)
(0.947673 0.504757 -6.27928e-21)
(0.954158 0.452588 3.4013e-21)
(0.96084 0.406236 -6.82796e-23)
(0.972481 0.36678 -3.1283e-21)
(0.292659 0.278181 -1.04675e-21)
(0.623898 0.581865 -1.04163e-20)
(0.794877 0.686011 5.78213e-21)
(0.866147 0.676529 -3.23482e-21)
(0.892903 0.621636 3.60363e-21)
(0.90598 0.558598 4.23736e-21)
(0.916521 0.49994 1.27118e-20)
(0.926381 0.44754 -9.96429e-21)
(0.937215 0.400301 -1.91508e-20)
(0.953488 0.360872 8.57104e-21)
(0.278939 0.284884 6.82687e-23)
(0.591054 0.587391 -1.85174e-21)
(0.753712 0.685878 8.66964e-22)
(0.823993 0.672081 4.46218e-21)
(0.853628 0.615253 -9.5727e-21)
(0.870813 0.551675 -1.71151e-20)
(0.885259 0.493013 -5.00743e-21)
(0.898739 0.440663 -1.70947e-21)
(0.914175 0.392397 2.65736e-20)
(0.932098 0.349151 -5.4687e-21)
(0.263764 0.289439 -1.36779e-21)
(0.556493 0.58893 -4.41666e-21)
(0.711455 0.681644 9.45143e-22)
(0.78138 0.664087 9.56196e-22)
(0.814265 0.605904 -7.81678e-21)
(0.835697 0.54225 3.34077e-20)
(0.854147 0.483942 -2.3829e-20)
(0.871454 0.432048 2.86361e-20)
(0.890603 0.384485 -2.00866e-20)
(0.908183 0.342737 -2.68223e-20)
(0.24738 0.291737 -2.23161e-22)
(0.520646 0.586409 -1.48065e-21)
(0.668531 0.67329 6.85687e-22)
(0.738654 0.652538 1.21966e-20)
(0.775082 0.593582 -5.37229e-21)
(0.800857 0.530304 8.14686e-21)
(0.823395 0.472674 1.39078e-20)
(0.844556 0.421406 -7.34394e-21)
(0.866934 0.37434 -1.97238e-20)
(0.885505 0.332838 2.71431e-20)
(0.230042 0.291699 9.66561e-21)
(0.483945 0.579793 1.26714e-20)
(0.625358 0.66083 -1.25381e-20)
(0.696155 0.637453 -1.1036e-20)
(0.736343 0.578301 4.03186e-20)
(0.766512 0.515852 -4.11607e-20)
(0.79315 0.459258 4.97175e-20)
(0.818055 0.408971 -1.24258e-20)
(0.84336 0.362965 1.33478e-20)
(0.863586 0.322628 2.51161e-20)
(0.21201 0.289274 -3.39487e-21)
(0.446816 0.569085 -1.26664e-20)
(0.582344 0.644309 -8.14869e-21)
(0.654215 0.618879 -4.34422e-21)
(0.698312 0.560095 5.30834e-21)
(0.732882 0.498915 -1.09943e-20)
(0.763584 0.443698 -1.48444e-20)
(0.792112 0.394673 -3.26988e-20)
(0.820228 0.349971 3.25056e-20)
(0.84252 0.310993 -1.04134e-20)
(0.193544 0.284442 2.47846e-20)
(0.409681 0.554326 -3.15353e-21)
(0.539887 0.6238 -1.14644e-20)
(0.613159 0.596883 1.45612e-20)
(0.661247 0.539019 -2.60429e-20)
(0.700176 0.479538 7.02576e-20)
(0.734863 0.426044 -3.75219e-20)
(0.766893 0.378596 3.40748e-20)
(0.797757 0.335506 -6.2554e-20)
(0.822326 0.298073 -1.66288e-20)
(0.174906 0.277208 -7.55624e-21)
(0.37295 0.535593 2.63443e-20)
(0.498371 0.599409 6.10224e-21)
(0.573298 0.571561 -1.36111e-20)
(0.625398 0.515149 -2.35444e-20)
(0.6686 0.457782 -7.1678e-22)
(0.707159 0.406344 1.25173e-20)
(0.742561 0.360769 -3.07833e-20)
(0.776103 0.319545 1.50974e-20)
(0.803047 0.283804 1.99021e-21)
(0.156353 0.267606 -4.35444e-20)
(0.337021 0.512998 -1.06618e-20)
(0.458164 0.571266 -2.98935e-21)
(0.534933 0.543029 3.53357e-20)
(0.591007 0.488579 -3.29352e-20)
(0.638353 0.433726 -8.49966e-21)
(0.680641 0.384669 -5.22505e-21)
(0.719275 0.341253 9.60237e-21)
(0.755403 0.302131 -1.2242e-20)
(0.784752 0.268221 -1.9069e-20)
(0.138137 0.255698 3.87799e-20)
(0.302275 0.486688 -2.20996e-20)
(0.419619 0.539532 1.04523e-21)
(0.498349 0.511426 -5.36969e-20)
(0.558305 0.459425 5.83266e-20)
(0.609628 0.407466 -1.84628e-20)
(0.655474 0.3611 1.10633e-20)
(0.697179 0.320114 9.63265e-21)
(0.735781 0.283306 2.7956e-20)
(0.767512 0.251369 -1.1528e-20)
(0.1205 0.241567 -1.57633e-20)
(0.269074 0.456839 4.58988e-20)
(0.383065 0.504392 2.5908e-20)
(0.463817 0.476914 4.25262e-20)
(0.527511 0.427819 -9.83063e-21)
(0.582608 0.379113 3.9685e-21)
(0.631815 0.335733 3.19893e-20)
(0.676412 0.297429 7.16086e-21)
(0.717352 0.263133 6.90157e-22)
(0.751404 0.233316 -1.38077e-20)
(0.103673 0.225324 -3.65466e-20)
(0.237758 0.423657 -2.66869e-21)
(0.348813 0.466058 -1.52537e-20)
(0.431591 0.439673 -6.85719e-20)
(0.498832 0.393913 -6.63387e-20)
(0.557465 0.348794 1.10643e-20)
(0.609812 0.308676 -2.72906e-20)
(0.657101 0.273291 1.74772e-20)
(0.700225 0.241687 9.49865e-21)
(0.736503 0.214139 1.97907e-20)
(0.087873 0.2071 5.38436e-20)
(0.208644 0.387377 -4.40704e-20)
(0.317151 0.424762 -2.24083e-20)
(0.401904 0.399906 3.9662e-20)
(0.472459 0.357873 4.5193e-20)
(0.534363 0.316652 -1.50229e-20)
(0.589603 0.280051 -1.95565e-21)
(0.639368 0.2478 -5.43344e-20)
(0.684502 0.219057 -3.07451e-20)
(0.722879 0.193927 1.1749e-20)
(0.073301 0.187048 -3.06534e-20)
(0.182023 0.348257 1.29126e-20)
(0.288342 0.38076 4.7545e-20)
(0.374973 0.357828 -2.13811e-20)
(0.44857 0.319882 1.70815e-21)
(0.513449 0.282841 6.04901e-20)
(0.571316 0.249991 2.76882e-21)
(0.623321 0.22107 5.21093e-20)
(0.670277 0.195342 2.17466e-20)
(0.7106 0.172774 -3.46099e-20)
(0.0601409 0.165338 4.25714e-20)
(0.158156 0.306578 4.7289e-21)
(0.262622 0.334325 3.10038e-21)
(0.350991 0.313675 4.34837e-20)
(0.427323 0.280137 -5.78589e-21)
(0.494859 0.247529 -3.79744e-20)
(0.555067 0.218639 1.86201e-20)
(0.609062 0.193225 -2.97861e-20)
(0.65764 0.170648 -1.24501e-20)
(0.699728 0.150781 1.26007e-20)
(0.0485567 0.142159 -2.65441e-20)
(0.137277 0.262643 -5.1052e-20)
(0.240202 0.285749 1.18125e-20)
(0.330131 0.267696 -2.31351e-20)
(0.408861 0.238847 -1.39692e-20)
(0.478713 0.210894 3.39094e-20)
(0.540958 0.186149 -8.20591e-21)
(0.596681 0.164395 7.57513e-21)
(0.646668 0.145093 -9.24071e-21)
(0.690316 0.128055 1.83669e-20)
(0.0386915 0.117713 9.63013e-21)
(0.119588 0.216771 3.44074e-20)
(0.221264 0.235337 -4.78302e-20)
(0.312541 0.220151 2.26132e-20)
(0.393308 0.196232 -1.03157e-20)
(0.465116 0.173125 -2.90571e-20)
(0.529079 0.152682 2.37526e-20)
(0.586256 0.134721 4.98262e-21)
(0.637431 0.118797 -7.62621e-22)
(0.682414 0.104703 -2.13586e-20)
(0.0306665 0.0922167 3.16008e-21)
(0.105259 0.169297 1.11068e-20)
(0.205961 0.183408 4.3311e-20)
(0.298348 0.171313 -8.3184e-21)
(0.380768 0.152523 -6.56146e-21)
(0.454156 0.134418 2.42425e-21)
(0.519507 0.118408 1.08446e-21)
(0.577856 0.104348 8.87727e-21)
(0.629988 0.0918908 -1.16837e-20)
(0.676062 0.0808382 -7.43635e-21)
(0.0245793 0.0658946 -7.88999e-21)
(0.0944269 0.120569 -1.35157e-20)
(0.194415 0.130293 -3.37029e-20)
(0.287653 0.121462 1.69684e-20)
(0.371323 0.107956 1.38453e-20)
(0.445905 0.0949759 5.87281e-22)
(0.512302 0.0835018 -2.32008e-20)
(0.571534 0.0734269 -1.03211e-20)
(0.624388 0.0645047 8.18174e-21)
(0.671291 0.0565725 8.77247e-21)
(0.0205036 0.0389812 1.37367e-21)
(0.0871946 0.0709433 -2.83529e-21)
(0.186719 0.0763291 6.39696e-21)
(0.280532 0.0708874 -4.33524e-21)
(0.365038 0.0627753 -3.82908e-21)
(0.440416 0.0550082 -2.59777e-21)
(0.507511 0.0481427 4.77604e-21)
(0.567331 0.0421139 1.82188e-20)
(0.620665 0.0367754 2.64009e-21)
(0.668126 0.032021 -4.68725e-21)
(0.0184885 0.0117166 1.69846e-21)
(0.0836303 0.0207845 -4.67422e-21)
(0.182934 0.0218606 -5.30026e-21)
(0.277034 0.0198815 -3.67888e-21)
(0.361954 0.0172293 3.5066e-21)
(0.437724 0.0147271 1.58344e-21)
(0.505164 0.0125139 -1.57896e-21)
(0.565275 0.0105676 -7.20528e-21)
(0.618846 0.00884349 2.37486e-21)
(0.666582 0.00730891 -2.22386e-21)
(0.0185578 -0.0156559 -1.69787e-21)
(0.0837673 -0.0295394 4.67296e-21)
(0.18309 -0.0327651 5.29953e-21)
(0.277186 -0.0312594 -5.07581e-21)
(0.362092 -0.0284317 4.47208e-21)
(0.437848 -0.0256527 2.24183e-21)
(0.505277 -0.0232002 -3.58369e-21)
(0.565379 -0.0210529 -4.17114e-21)
(0.618945 -0.019154 6.16715e-22)
(0.666682 -0.0174605 -1.74038e-21)
(0.02071 -0.0428919 1.86177e-21)
(0.0876037 -0.0796588 -5.56657e-21)
(0.187185 -0.0871996 1.24815e-20)
(0.280984 -0.0822384 -1.09647e-20)
(0.36545 -0.0739561 -5.17027e-22)
(0.440786 -0.0659159 -7.30348e-21)
(0.507848 -0.0588143 1.18847e-20)
(0.567643 -0.0525873 1.61837e-20)
(0.620956 -0.0470781 2.89881e-21)
(0.668405 -0.0421763 -6.24583e-21)
(0.0249183 -0.0697482 -1.59941e-21)
(0.0951022 -0.129206 -1.17778e-20)
(0.195186 -0.141095 -2.73937e-20)
(0.288403 -0.13276 2.3725e-20)
(0.372005 -0.119093 4.90128e-21)
(0.446519 -0.105848 4.33797e-21)
(0.512862 -0.0941434 -2.13875e-20)
(0.572051 -0.083875 -1.26203e-20)
(0.624869 -0.0747859 -2.81048e-21)
(0.671747 -0.0667084 1.92961e-20)
(0.0311308 -0.0959854 -5.6393e-21)
(0.106191 -0.177816 7.08505e-21)
(0.207029 -0.194109 4.96787e-20)
(0.299388 -0.18253 -4.45917e-21)
(0.381714 -0.163596 -1.27725e-20)
(0.45501 -0.145236 9.18275e-21)
(0.520285 -0.129005 6.23703e-22)
(0.578575 -0.114758 3.24745e-21)
(0.630657 -0.10214 -7.11081e-21)
(0.676695 -0.0909453 -1.8827e-20)
(0.0392709 -0.12137 -3.81099e-21)
(0.120763 -0.225134 2.07267e-20)
(0.222617 -0.245903 -5.00238e-20)
(0.313861 -0.231263 2.16976e-20)
(0.394512 -0.207221 2.02258e-22)
(0.466202 -0.183874 -2.75658e-20)
(0.53007 -0.16322 1.21868e-20)
(0.587173 -0.145082 -1.13603e-21)
(0.638284 -0.129005 4.63505e-21)
(0.683223 -0.114774 -1.40563e-21)
(0.049238 -0.145677 -4.36544e-20)
(0.138677 -0.270813 -5.21774e-20)
(0.241824 -0.296149 1.36694e-20)
(0.331718 -0.278677 -2.48526e-20)
(0.410311 -0.249732 -7.0465e-21)
(0.480023 -0.221556 1.04987e-20)
(0.542154 -0.196614 3.90121e-21)
(0.597789 -0.174695 1.4536e-20)
(0.6477 -0.155249 -3.13202e-21)
(0.691296 -0.138082 1.68796e-20)
(0.0609082 -0.168691 4.17566e-20)
(0.15976 -0.314519 2.68307e-20)
(0.264494 -0.344528 -2.03403e-20)
(0.352831 -0.324502 3.4262e-20)
(0.429007 -0.290898 -2.95061e-21)
(0.496382 -0.25809 -3.71294e-20)
(0.55646 -0.229019 6.51941e-21)
(0.610353 -0.203453 -3.95466e-20)
(0.658845 -0.180745 1.51104e-21)
(0.700874 -0.160757 1.43912e-20)
(0.0741356 -0.190212 -3.10838e-20)
(0.183805 -0.355934 5.56619e-20)
(0.290442 -0.390735 2.18272e-20)
(0.377048 -0.368477 -2.6994e-20)
(0.450474 -0.330503 2.10947e-22)
(0.515173 -0.293286 6.84569e-20)
(0.572896 -0.260275 3.1388e-21)
(0.624788 -0.231218 3.04501e-20)
(0.671648 -0.205371 3.71219e-20)
(0.711908 -0.18269 -2.08313e-20)
(0.0887535 -0.210053 1.74222e-20)
(0.210577 -0.394757 -8.34052e-21)
(0.319454 -0.434481 -1.97921e-20)