/*--------------------------------*- C++ -*----------------------------------*\
  =========                 |
  \\      /  F ield         | OpenFOAM: The Open Source CFD Toolbox
   \\    /   O peration     | Website:  https://openfoam.org
    \\  /    A nd           | Version:  7
     \\/     M anipulation  |
\*---------------------------------------------------------------------------*/
FoamFile
{
    version     2.0;
    format      ascii;
    class       volScalarField;
    location    "30";
    object      p;
}
// * * * * * * * * * * * * * * * * * * * * * * * * * * * * * * * * * * * * * //

dimensions      [0 2 -2 0 0 0 0];

internalField   nonuniform List<scalar> 
2125
(
-0.292825
-0.298339
-0.300184
-0.300483
-0.299467
-0.297216
-0.293899
-0.289689
-0.284697
-0.278899
-0.29359
-0.298978
-0.300741
-0.300965
-0.299879
-0.297563
-0.294186
-0.289925
-0.284886
-0.278968
-0.295114
-0.300252
-0.301851
-0.301925
-0.300699
-0.298254
-0.294756
-0.290394
-0.285261
-0.279098
-0.297387
-0.302152
-0.303507
-0.303356
-0.30192
-0.29928
-0.295599
-0.291083
-0.285814
-0.279262
-0.300393
-0.304665
-0.305697
-0.305246
-0.30353
-0.30063
-0.296704
-0.291979
-0.286524
-0.279356
-0.304113
-0.307778
-0.308407
-0.307584
-0.305516
-0.30229
-0.298054
-0.29306
-0.287375
-0.279247
-0.308525
-0.311472
-0.311621
-0.310352
-0.307864
-0.304245
-0.299633
-0.294293
-0.288348
-0.279669
-0.313604
-0.315727
-0.315322
-0.313535
-0.310557
-0.306479
-0.301427
-0.295715
-0.289327
-0.279871
-0.319327
-0.320523
-0.31949
-0.317116
-0.31358
-0.308977
-0.303417
-0.297256
-0.290388
-0.279886
-0.325668
-0.325838
-0.324107
-0.321077
-0.316918
-0.311726
-0.305591
-0.29891
-0.291511
-0.279726
-0.332602
-0.33165
-0.329153
-0.325403
-0.320558
-0.314716
-0.307942
-0.30067
-0.292668
-0.279352
-0.340106
-0.337937
-0.33461
-0.330078
-0.324489
-0.317943
-0.310469
-0.302537
-0.293849
-0.278725
-0.348153
-0.34468
-0.340459
-0.335088
-0.328704
-0.321403
-0.313178
-0.304518
-0.295056
-0.277812
-0.35672
-0.351853
-0.346681
-0.340421
-0.333197
-0.325103
-0.316082
-0.306638
-0.296303
-0.276593
-0.36578
-0.359433
-0.353259
-0.346066
-0.337965
-0.329049
-0.319208
-0.308935
-0.297629
-0.275092
-0.375301
-0.367395
-0.360171
-0.352009
-0.343006
-0.333255
-0.322587
-0.311471
-0.299114
-0.273426
-0.385248
-0.375709
-0.367396
-0.358238
-0.34832
-0.337735
-0.326262
-0.314323
-0.300828
-0.271682
-0.395578
-0.384342
-0.37491
-0.364738
-0.353903
-0.342507
-0.330291
-0.317589
-0.302665
-0.269459
-0.406243
-0.393258
-0.382684
-0.371491
-0.359749
-0.347591
-0.334776
-0.321496
-0.304823
-0.267099
-0.417186
-0.402414
-0.390686
-0.37847
-0.365841
-0.352992
-0.339803
-0.326443
-0.309718
-0.274793
-0.428343
-0.411762
-0.398875
-0.385641
-0.372139
-0.358647
-0.345228
-0.332229
-0.319712
-0.317314
-0.439648
-0.421251
-0.407209
-0.392961
-0.378587
-0.364431
-0.350685
-0.337714
-0.326375
-0.33105
-0.451026
-0.430822
-0.41564
-0.400387
-0.385134
-0.370263
-0.356012
-0.342619
-0.330628
-0.335444
-0.440415
-0.424114
-0.407873
-0.391737
-0.376105
-0.361204
-0.347139
-0.334112
-0.337545
-0.432574
-0.415366
-0.398349
-0.381915
-0.366246
-0.351322
-0.337076
-0.338064
-0.440954
-0.422808
-0.40491
-0.387636
-0.37109
-0.355129
-0.339467
-0.337385
-0.430126
-0.411352
-0.393194
-0.375669
-0.358511
-0.34128
-0.335842
-0.417588
-0.398505
-0.379902
-0.361412
-0.342504
-0.333614
-0.383699
-0.363762
-0.343104
-0.33078
-0.365481
-0.343025
-0.327361
-0.3422
-0.323337
-0.292825
-0.298339
-0.300184
-0.273477
-0.265178
-0.256431
-0.246428
-0.235477
-0.223702
-0.211248
-0.198291
-0.185003
-0.171553
-0.1581
-0.144784
-0.131732
-0.119052
-0.106835
-0.0951504
-0.084069
-0.0736044
-0.0638461
-0.0546892
-0.046374
-0.0384491
-0.0317275
-0.0246897
-0.019978
-0.0128905
-0.011461
-0.0019152
-0.00735756
0.0108038
-0.273951
-0.265454
-0.256688
-0.246655
-0.235678
-0.223884
-0.211413
-0.198442
-0.185142
-0.171682
-0.158218
-0.144893
-0.131832
-0.119142
-0.106917
-0.0952235
-0.0841339
-0.0736618
-0.0638962
-0.0547327
-0.0464114
-0.0384813
-0.031754
-0.024713
-0.0199951
-0.0129083
-0.0114687
-0.00193272
-0.00735252
0.0107742
-0.274889
-0.265997
-0.257197
-0.247104
-0.236076
-0.224244
-0.211741
-0.198743
-0.185419
-0.171938
-0.158454
-0.14511
-0.13203
-0.119322
-0.107079
-0.0953692
-0.0842636
-0.0737762
-0.0639963
-0.0548197
-0.046486
-0.0385455
-0.0318071
-0.0247597
-0.0200294
-0.0129439
-0.011484
-0.0019677
-0.00734251
0.010715
-0.276283
-0.266794
-0.257951
-0.247766
-0.236662
-0.224775
-0.212224
-0.199187
-0.18583
-0.172317
-0.158804
-0.145432
-0.132325
-0.119591
-0.107322
-0.0955869
-0.0844573
-0.0739472
-0.064146
-0.0549499
-0.0465976
-0.0386416
-0.0318865
-0.0248296
-0.0200807
-0.0129973
-0.011507
-0.00201999
-0.00732765
0.0106267
-0.278223
-0.267803
-0.258927
-0.248627
-0.237423
-0.225464
-0.212854
-0.199767
-0.186367
-0.172815
-0.159265
-0.145857
-0.132715
-0.119946
-0.107643
-0.0958754
-0.0847142
-0.0741741
-0.0643447
-0.0551227
-0.0467459
-0.0387693
-0.031992
-0.0249224
-0.020149
-0.0130681
-0.0115377
-0.00208939
-0.00730815
0.0105097
-0.280902
-0.268917
-0.260096
-0.249668
-0.238344
-0.226299
-0.213618
-0.200474
-0.187023
-0.173426
-0.159832
-0.146381
-0.133197
-0.120386
-0.108042
-0.0962332
-0.0850331
-0.0744561
-0.0645917
-0.0553377
-0.0469304
-0.0389283
-0.0321234
-0.025038
-0.0202341
-0.0131564
-0.0115762
-0.00217563
-0.00728427
0.0103648
-0.283092
-0.270603
-0.261453
-0.250869
-0.239404
-0.227261
-0.214502
-0.201295
-0.187789
-0.174141
-0.160499
-0.146999
-0.133766
-0.120907
-0.108514
-0.0966585
-0.0854126
-0.0747918
-0.0648861
-0.055594
-0.0471505
-0.039118
-0.0322804
-0.0251761
-0.0203359
-0.0132617
-0.0116224
-0.00227838
-0.0072563
0.0101929
-0.285882
-0.272375
-0.262953
-0.252204
-0.240583
-0.228333
-0.215491
-0.202218
-0.188654
-0.174953
-0.161258
-0.147706
-0.134419
-0.121505
-0.109059
-0.0971492
-0.085851
-0.0751802
-0.0652268
-0.0558909
-0.0474055
-0.0393379
-0.0324623
-0.0253362
-0.020454
-0.0133839
-0.0116764
-0.00239725
-0.0072246
0.0099948
-0.289079
-0.274274
-0.264578
-0.253648
-0.241855
-0.229494
-0.216568
-0.203228
-0.189607
-0.175852
-0.162104
-0.148496
-0.135152
-0.122178
-0.109672
-0.0977028
-0.0863463
-0.0756194
-0.0656126
-0.0562273
-0.0476947
-0.0395874
-0.0326689
-0.025518
-0.0205883
-0.0135225
-0.0117382
-0.00253178
-0.00718957
0.00977178
-0.292549
-0.276312
-0.2663
-0.255171
-0.243198
-0.230723
-0.217715
-0.204312
-0.190637
-0.176829
-0.163027
-0.149362
-0.135957
-0.122921
-0.11035
-0.0983167
-0.0868964
-0.0761079
-0.0660421
-0.0566022
-0.0480171
-0.0398658
-0.0328994
-0.025721
-0.0207385
-0.0136773
-0.0118078
-0.00268149
-0.00715162
0.00952505
-0.296225
-0.278469
-0.268084
-0.256741
-0.244586
-0.231999
-0.218914
-0.205454
-0.19173
-0.177874
-0.164019
-0.150298
-0.136832
-0.12373
-0.111091
-0.0989879
-0.087499
-0.0766437
-0.0665136
-0.0570141
-0.0483716
-0.0401721
-0.0331533
-0.0259446
-0.0209043
-0.0138477
-0.0118853
-0.00284583
-0.00711121
0.00925598
-0.300048
-0.280721
-0.269896
-0.258328
-0.245994
-0.233302
-0.220149
-0.206641
-0.192875
-0.178976
-0.165073
-0.151296
-0.137768
-0.124599
-0.111889
-0.0997135
-0.0881514
-0.0772247
-0.0670255
-0.0574618
-0.0487572
-0.0405055
-0.0334298
-0.0261882
-0.0210852
-0.0140333
-0.0119707
-0.00302421
-0.0070688
0.00896602
-0.303923
-0.283043
-0.271704
-0.2599
-0.247399
-0.234611
-0.221403
-0.207859
-0.194062
-0.180127
-0.166181
-0.152352
-0.138763
-0.125525
-0.112742
-0.10049
-0.0888512
-0.0778489
-0.0675761
-0.0579439
-0.0491727
-0.0408651
-0.0337282
-0.0264512
-0.0212809
-0.0142336
-0.0120639
-0.00321601
-0.00702487
0.0086567
-0.307719
-0.285407
-0.273478
-0.261425
-0.248777
-0.23591
-0.222662
-0.209095
-0.195278
-0.181317
-0.167334
-0.153457
-0.139808
-0.126503
-0.113645
-0.101315
-0.0895959
-0.0785141
-0.0681637
-0.0584588
-0.0496169
-0.0412497
-0.0340476
-0.0267329
-0.021491
-0.0144481
-0.012165
-0.00342059
-0.00697989
0.00832959
-0.31125
-0.287769
-0.275187
-0.262869
-0.250106
-0.237182
-0.223911
-0.210338
-0.196513
-0.182536
-0.168524
-0.154603
-0.140899
-0.127527
-0.114594
-0.102184
-0.0903816
-0.0792171
-0.0687854
-0.0590043
-0.0500878
-0.0416579
-0.0343868
-0.0270321
-0.0217146
-0.0146761
-0.0122736
-0.00363723
-0.00693423
0.00798632
-0.31421
-0.290025
-0.276791
-0.264195
-0.25136
-0.238407
-0.225133
-0.21157
-0.197752
-0.183769
-0.169737
-0.155779
-0.142023
-0.128586
-0.115579
-0.103088
-0.0912011
-0.0799518
-0.0694361
-0.059576
-0.0505818
-0.0420867
-0.0347435
-0.0273471
-0.0219505
-0.0149163
-0.0123895
-0.00386508
-0.0068882
0.00762853
-0.31614
-0.292084
-0.278299
-0.265398
-0.252535
-0.239585
-0.226329
-0.212791
-0.198993
-0.185016
-0.170971
-0.156983
-0.143179
-0.129681
-0.1166
-0.104027
-0.0920549
-0.0807187
-0.0701164
-0.0601745
-0.0510997
-0.0425367
-0.0351184
-0.0276783
-0.0221995
-0.015169
-0.0125135
-0.00410349
-0.00684305
0.00725789
-0.316774
-0.294043
-0.27981
-0.266534
-0.253674
-0.24076
-0.227544
-0.21405
-0.200286
-0.186327
-0.17228
-0.158268
-0.14442
-0.130859
-0.117703
-0.105045
-0.0929808
-0.0815511
-0.0708551
-0.0608243
-0.051662
-0.0430243
-0.035525
-0.0280356
-0.0224701
-0.0154387
-0.0126509
-0.00435313
-0.00680203
0.00687593
-0.315374
-0.295276
-0.281088
-0.267479
-0.254682
-0.241868
-0.228735
-0.215316
-0.201617
-0.1877
-0.17367
-0.159647
-0.145763
-0.132144
-0.118911
-0.106163
-0.094001
-0.082469
-0.0716697
-0.0615401
-0.0522801
-0.0435587
-0.0359696
-0.0284236
-0.0227642
-0.0157273
-0.0128009
-0.00461493
-0.00676288
0.00648362
-0.304881
-0.292691
-0.281142
-0.26757
-0.255002
-0.242389
-0.229389
-0.216075
-0.202463
-0.188613
-0.174626
-0.160624
-0.146737
-0.133094
-0.119819
-0.107017
-0.0947892
-0.0831871
-0.0723127
-0.0621121
-0.0527761
-0.0439958
-0.0363299
-0.0287525
-0.0230011
-0.0159897
-0.0129114
-0.00487873
-0.00669456
0.00608166
-0.270072
-0.285175
-0.280686
-0.267574
-0.255261
-0.242807
-0.22984
-0.216505
-0.202854
-0.188961
-0.174932
-0.160893
-0.146977
-0.133311
-0.120019
-0.107203
-0.0949646
-0.0833568
-0.0724729
-0.0622736
-0.0529228
-0.0441572
-0.0364575
-0.0289267
-0.0230924
-0.0162022
-0.0129275
-0.00518229
-0.00654663
0.00557892
-0.258706
-0.276218
-0.275082
-0.262845
-0.251278
-0.23953
-0.227097
-0.214205
-0.200953
-0.187419
-0.173714
-0.159964
-0.146301
-0.132853
-0.119744
-0.10708
-0.0949618
-0.0834499
-0.0726343
-0.0624903
-0.0531644
-0.0444322
-0.0367149
-0.0292234
-0.0233107
-0.0165172
-0.0130424
-0.0055633
-0.00643763
0.00496464
-0.253415
-0.267813
-0.267881
-0.256597
-0.245775
-0.234795
-0.223014
-0.210688
-0.197958
-0.184905
-0.171642
-0.158294
-0.14499
-0.131859
-0.119024
-0.106592
-0.0946678
-0.0833147
-0.0726221
-0.0625783
-0.0533164
-0.0446463
-0.0369386
-0.0295001
-0.0235296
-0.0168316
-0.0131758
-0.00594901
-0.00635081
0.00432846
-0.249218
-0.25939
-0.260129
-0.249962
-0.239828
-0.229584
-0.218486
-0.206766
-0.194594
-0.182061
-0.169275
-0.156363
-0.143452
-0.13067
-0.118139
-0.10597
-0.0942645
-0.0830939
-0.0725454
-0.0626199
-0.0534375
-0.044842
-0.0371545
-0.0297766
-0.0237544
-0.0171566
-0.0133202
-0.00635225
-0.00626802
0.00366263
-0.244353
-0.250718
-0.251625
-0.242649
-0.233238
-0.22374
-0.213383
-0.202336
-0.190787
-0.178831
-0.166579
-0.154154
-0.141683
-0.129291
-0.117103
-0.105229
-0.0937724
-0.0828093
-0.0724262
-0.0626361
-0.0535477
-0.0450371
-0.0373788
-0.0300662
-0.0239969
-0.0175002
-0.0134831
-0.00677641
-0.00619304
0.00296973
-0.238299
-0.241566
-0.242189
-0.234412
-0.225817
-0.217102
-0.207553
-0.197258
-0.186408
-0.175105
-0.163456
-0.151582
-0.13961
-0.127663
-0.115866
-0.10433
-0.0931599
-0.0824365
-0.0722463
-0.0626138
-0.0536382
-0.0452257
-0.0376087
-0.0303668
-0.0242582
-0.0178616
-0.0136677
-0.00721897
-0.00613152
0.0022581
-0.230591
-0.231669
-0.231772
-0.225169
-0.217514
-0.209634
-0.200952
-0.191485
-0.181411
-0.170834
-0.159859
-0.148604
-0.137193
-0.125749
-0.114395
-0.103244
-0.0924022
-0.0819546
-0.0719885
-0.0625392
-0.0536982
-0.0453995
-0.0378384
-0.0306741
-0.0245358
-0.0182382
-0.0138743
-0.00767669
-0.00608734
0.00153779
-0.220988
-0.22082
-0.220387
-0.214927
-0.208292
-0.201334
-0.193575
-0.185004
-0.175776
-0.165996
-0.155764
-0.145194
-0.134406
-0.123523
-0.112667
-0.10195
-0.0914801
-0.0813471
-0.0716388
-0.0624006
-0.0537183
-0.0455513
-0.0380622
-0.0309837
-0.024827
-0.0186272
-0.0141024
-0.00814615
-0.00606365
0.000820174
-0.209503
-0.208926
-0.2081
-0.203743
-0.198231
-0.19223
-0.18544
-0.177822
-0.169502
-0.160582
-0.151156
-0.141333
-0.131229
-0.120965
-0.11066
-0.100427
-0.0903754
-0.0805974
-0.0711826
-0.0621857
-0.0536883
-0.0456726
-0.0382737
-0.0312905
-0.0251284
-0.0190253
-0.0143512
-0.00862324
-0.00606332
0.000117932
-0.196358
-0.196014
-0.195035
-0.191734
-0.187383
-0.182394
-0.176601
-0.169977
-0.162613
-0.154603
-0.146036
-0.137015
-0.127651
-0.11806
-0.108358
-0.098659
-0.0890708
-0.0796892
-0.0706051
-0.0618813
-0.0535967
-0.0457539
-0.0384651
-0.0315882
-0.0254351
-0.0194283
-0.0146184
-0.00910306
-0.00608855
-0.000555302
-0.18193
-0.182236
-0.181371
-0.179078
-0.175883
-0.171934
-0.167152
-0.161537
-0.155159
-0.148094
-0.140427
-0.132252
-0.123674
-0.114803
-0.105753
-0.0966332
-0.0875526
-0.0786082
-0.0698923
-0.0614743
-0.0534316
-0.0457849
-0.0386274
-0.0318693
-0.0257412
-0.0198307
-0.0149009
-0.00957992
-0.00614058
-0.00118571
-0.166685
-0.167844
-0.167333
-0.165994
-0.163907
-0.16099
-0.157215
-0.152605
-0.147218
-0.141116
-0.134372
-0.127073
-0.119315
-0.111203
-0.102844
-0.094345
-0.0858123
-0.0773439
-0.0690323
-0.0609527
-0.0531815
-0.0457549
-0.0387511
-0.0321256
-0.0260395
-0.0202263
-0.0151943
-0.0100475
-0.00621944
-0.00176021
-0.15111
-0.15315
-0.153165
-0.152716
-0.151654
-0.149731
-0.146931
-0.143303
-0.138893
-0.133749
-0.127934
-0.121524
-0.114608
-0.107281
-0.0996431
-0.0917983
-0.0838482
-0.0758903
-0.0680166
-0.0603065
-0.0528357
-0.0456535
-0.0388261
-0.0323481
-0.0263221
-0.0206081
-0.0154933
-0.0104988
-0.00632373
-0.00226749
-0.135646
-0.138479
-0.13911
-0.139472
-0.139329
-0.138331
-0.136457
-0.133766
-0.130298
-0.126088
-0.121191
-0.115667
-0.109598
-0.103069
-0.0961729
-0.0890061
-0.0816659
-0.0742474
-0.066841
-0.0595288
-0.0523856
-0.0454713
-0.0388429
-0.0325279
-0.0265805
-0.0209685
-0.0157916
-0.0109268
-0.00645052
-0.00269908
-0.120649
-0.124126
-0.125387
-0.126467
-0.127124
-0.126963
-0.125944
-0.12413
-0.121553
-0.118239
-0.114227
-0.109574
-0.104343
-0.0986128
-0.0924656
-0.0859905
-0.0792787
-0.0724215
-0.0655064
-0.0586165
-0.0518253
-0.0452009
-0.0387931
-0.0326564
-0.0268061
-0.0212998
-0.0160824
-0.0113247
-0.00659549
-0.00305008
-0.106379
-0.11033
-0.112177
-0.113875
-0.115211
-0.115785
-0.115539
-0.114528
-0.112779
-0.110308
-0.107141
-0.103324
-0.0989097
-0.0939645
-0.0885619
-0.0827816
-0.0767075
-0.0704255
-0.0640192
-0.057571
-0.0511521
-0.0448371
-0.0386697
-0.032726
-0.0269912
-0.0215944
-0.0163586
-0.0116861
-0.00675317
-0.00331969
-0.0929954
-0.0972625
-0.0996157
-0.101829
-0.103727
-0.10493
-0.105368
-0.10508
-0.104087
-0.102395
-0.100021
-0.096996
-0.0933654
-0.0891817
-0.0845085
-0.0794159
-0.0739794
-0.0682784
-0.0623913
-0.0563982
-0.0503677
-0.044378
-0.0384682
-0.032731
-0.0271287
-0.0218455
-0.0166133
-0.0120057
-0.00691728
-0.00351137
-0.0805848
-0.0850342
-0.0878001
-0.0904288
-0.0927799
-0.0945112
-0.0955397
-0.0958912
-0.0955774
-0.0945959
-0.0929531
-0.0906702
-0.0877797
-0.0843246
-0.080356
-0.0759346
-0.0711269
-0.0660045
-0.0606397
-0.055109
-0.0494775
-0.0438251
-0.038187
-0.0326675
-0.0272132
-0.0220476
-0.0168402
-0.0122797
-0.00708114
-0.00363249
-0.0691779
-0.0737054
-0.0767909
-0.0797431
-0.0824518
-0.0846151
-0.0861451
-0.0870521
-0.0873391
-0.0869959
-0.0860198
-0.0844212
-0.082222
-0.0794539
-0.0761573
-0.0723825
-0.0681864
-0.0636325
-0.058786
-0.0537186
-0.0484912
-0.0431834
-0.0378273
-0.0325343
-0.0272415
-0.0221969
-0.0170338
-0.012506
-0.00723826
-0.00369351
-0.0587721
-0.0633014
-0.0666225
-0.0698179
-0.0728007
-0.0753101
-0.0772572
-0.0786392
-0.0794497
-0.0796722
-0.0792956
-0.0783204
-0.0767582
-0.07463
-0.0719664
-0.0688066
-0.0651979
-0.0611952
-0.0568562
-0.0522465
-0.0474227
-0.0424619
-0.0373939
-0.0323331
-0.0272124
-0.0222917
-0.0171902
-0.0126844
-0.0073828
-0.00370682
-0.0493474
-0.0538253
-0.0573113
-0.060682
-0.0638684
-0.0666486
-0.0689361
-0.0707172
-0.0719774
-0.0726943
-0.0728494
-0.0724348
-0.0714524
-0.0699134
-0.0678382
-0.0652558
-0.0622041
-0.0587288
-0.05488
-0.0507164
-0.0462896
-0.0416733
-0.036895
-0.0320687
-0.0271275
-0.0223325
-0.017307
-0.0128167
-0.00751007
-0.00368531
-0.0408764
-0.0452681
-0.0488625
-0.0523532
-0.0556848
-0.0586714
-0.0612313
-0.063342
-0.0649826
-0.0661254
-0.066746
-0.0668288
-0.0663673
-0.0653635
-0.0638283
-0.061781
-0.0592502
-0.0562728
-0.0528906
-0.0491557
-0.0451138
-0.0408341
-0.0363423
-0.031749
-0.0269912
-0.0223223
-0.0173839
-0.0129061
-0.00761689
-0.00364119
-0.0333317
-0.0376164
-0.0412755
-0.0448428
-0.0482726
-0.0514117
-0.0541848
-0.0565632
-0.0585204
-0.0600247
-0.0610468
-0.0615647
-0.0615645
-0.0610398
-0.0599928
-0.0584348
-0.0563842
-0.0538697
-0.0509252
-0.0475953
-0.0439205
-0.0399643
-0.0357508
-0.0313852
-0.0268104
-0.0222667
-0.0174224
-0.0129576
-0.00770177
-0.00358485
-0.0266893
-0.0308573
-0.0345488
-0.0381594
-0.0416508
-0.0448987
-0.0478348
-0.0504264
-0.0526426
-0.0544486
-0.0558115
-0.056704
-0.0571058
-0.0570035
-0.0563914
-0.0552724
-0.053657
-0.0515654
-0.049024
-0.0460703
-0.0427391
-0.0390878
-0.0351392
-0.0309916
-0.0265951
-0.0221735
-0.0174266
-0.012977
-0.00776499
-0.00352434
-0.0209323
-0.0249823
-0.0286834
-0.0323133
-0.0358386
-0.0391606
-0.0422182
-0.0449759
-0.0473999
-0.0494531
-0.0510998
-0.0523088
-0.0530542
-0.0533169
-0.0530842
-0.0523516
-0.0511224
-0.0494093
-0.0472314
-0.0446192
-0.0416022
-0.0382318
-0.0345293
-0.0305854
-0.026358
-0.0220529
-0.0174023
-0.0129711
-0.00780841
-0.0034652
-0.0160522
-0.0199902
-0.0236861
-0.027319
-0.030859
-0.0342285
-0.0373738
-0.0402578
-0.0428446
-0.0450956
-0.0469732
-0.0484429
-0.049475
-0.0500451
-0.0501349
-0.0497337
-0.0488383
-0.0474545
-0.0455951
-0.0432842
-0.0405464
-0.037427
-0.0339461
-0.0301868
-0.0261143
-0.0219167
-0.0173575
-0.0129471
-0.0078352
-0.00341078
-0.0120549
-0.0158924
-0.0195746
-0.0232008
-0.0267427
-0.0301404
-0.0333466
-0.0363236
-0.0390338
-0.041438
-0.0434972
-0.0451747
-0.0464376
-0.0472575
-0.0476117
-0.0474841
-0.0468663
-0.0457581
-0.044167
-0.0421114
-0.0396114
-0.0367072
-0.0334173
-0.0298181
-0.0258811
-0.0217786
-0.0173016
-0.0129126
-0.00784939
-0.00336268
-0.0089572
-0.0127126
-0.0163788
-0.0199945
-0.023532
-0.0269449
-0.0301915
-0.0332337
-0.0360331
-0.03855
-0.0407447
-0.042579
-0.0440177
-0.0450294
-0.0455879
-0.0456733
-0.0452727
-0.0443815
-0.0430027
-0.04115
-0.0388402
-0.0361087
-0.032973
-0.0295037
-0.0256775
-0.0216532
-0.0172451
-0.0128757
-0.00785555
-0.00332117
-0.00681157
-0.0105049
-0.014156
-0.0177607
-0.0212915
-0.024711
-0.0279815
-0.0310651
-0.0339228
-0.0365147
-0.0388005
-0.0407414
-0.0423003
-0.0434442
-0.0441443
-0.044378
-0.0441294
-0.0433907
-0.0421618
-0.0404529
-0.0382783
-0.0356701
-0.0326451
-0.029269
-0.0255233
-0.0215554
-0.0171993
-0.0128434
-0.00786021
-0.00328489
-0.00566745
-0.00933246
-0.0129769
-0.0165769
-0.0201046
-0.0235276
-0.0268102
-0.0299149
-0.0328025
-0.0354329
-0.037766
-0.0397621
-0.0413839
-0.0425969
-0.0433715
-0.0436834
-0.0435152
-0.0428574
-0.0417081
-0.0400759
-0.0379737
-0.0354313
-0.0324661
-0.0291394
-0.0254387
-0.0214986
-0.0171759
-0.0128196
-0.00787268
-0.00325332
-0.278001
-0.28167
-0.28486
-0.287719
-0.290403
-0.293078
-0.29593
-0.299168
-0.302865
-0.307551
-0.318357
-0.336219
-0.261229
-0.266552
-0.271601
-0.276515
-0.281446
-0.286566
-0.292081
-0.298217
-0.304987
-0.312786
-0.32617
-0.341296
-0.244821
-0.251228
-0.257386
-0.263388
-0.269337
-0.275348
-0.281566
-0.288141
-0.295003
-0.302464
-0.314652
-0.327956
-0.226699
-0.233645
-0.240381
-0.246979
-0.253523
-0.260107
-0.266856
-0.273895
-0.281174
-0.289004
-0.300986
-0.313697
-0.208692
-0.215996
-0.223152
-0.230219
-0.237268
-0.244375
-0.25164
-0.259158
-0.266867
-0.275019
-0.286574
-0.298446
-0.191124
-0.19859
-0.205953
-0.213261
-0.220567
-0.227932
-0.235432
-0.243137
-0.250992
-0.259212
-0.270216
-0.281404
-0.173998
-0.181434
-0.188799
-0.19613
-0.20347
-0.210869
-0.218387
-0.226081
-0.233911
-0.242066
-0.252477
-0.262988
-0.157452
-0.164721
-0.171939
-0.179137
-0.18635
-0.193618
-0.200991
-0.208513
-0.216157
-0.224088
-0.233798
-0.243531
-0.141599
-0.1486
-0.155563
-0.162511
-0.169472
-0.176478
-0.183568
-0.190778
-0.198091
-0.205649
-0.214567
-0.223437
-0.126498
-0.133164
-0.139796
-0.146413
-0.153035
-0.159688
-0.1664
-0.173201
-0.180082
-0.18716
-0.195234
-0.203196
-0.11219
-0.11848
-0.124737
-0.130974
-0.137206
-0.143451
-0.149732
-0.156068
-0.162459
-0.168995
-0.17622
-0.183284
-0.0987014
-0.104596
-0.110455
-0.116289
-0.122107
-0.127922
-0.133749
-0.139603
-0.145483
-0.151459
-0.157877
-0.164108
-0.0860441
-0.091539
-0.0969968
-0.102423
-0.107824
-0.113209
-0.118586
-0.123965
-0.129347
-0.134781
-0.140468
-0.145965
-0.0742207
-0.0793243
-0.0843887
-0.0894172
-0.0944136
-0.0993824
-0.104329
-0.109259
-0.114173
-0.119104
-0.124155
-0.129032
-0.0632255
-0.0679538
-0.0726417
-0.0772906
-0.0819025
-0.0864797
-0.0910248
-0.0955401
-0.100028
-0.104505
-0.109016
-0.11338
-0.0574189
-0.0617523
-0.0660452
-0.0702982
-0.0745121
-0.0786879
-0.0828264
-0.0869291
-0.091005
-0.095062
-0.099004
-0.0477033
-0.051707
-0.0556697
-0.0595913
-0.0634718
-0.067311
-0.071109
-0.074867
-0.078588
-0.0822628
-0.085852
-0.038783
-0.0424831
-0.0461425
-0.0497606
-0.0533369
-0.0568708
-0.0603621
-0.0638115
-0.0672184
-0.0705671
-0.073855
-0.0306313
-0.0340537
-0.0374362
-0.0407779
-0.0440781
-0.047336
-0.0505512
-0.0537239
-0.0568519
-0.0599179
-0.0629423
-0.0232182
-0.0263884
-0.0295197
-0.0326113
-0.035662
-0.0386711
-0.041638
-0.0445629
-0.0474423
-0.0502605
-0.0530505
-0.0165145
-0.0194571
-0.0223621
-0.0252284
-0.0280549
-0.0308408
-0.0335853
-0.0362885
-0.0389466
-0.041546
-0.044126
-0.0104921
-0.0132311
-0.0159336
-0.0185986
-0.0212249
-0.0238117
-0.0263583
-0.0288644
-0.0313261
-0.0337328
-0.0361246
-0.00512648
-0.00768469
-0.0102077
-0.0126943
-0.0151436
-0.0175545
-0.0199264
-0.0222588
-0.0245481
-0.026786
-0.0290105
-0.000397395
-0.002797
-0.00516267
-0.00749325
-0.0097877
-0.0120451
-0.0142648
-0.0164461
-0.0185859
-0.0206779
-0.0227556
0.00370984
0.0014472
-0.000782781
-0.002979
-0.00514045
-0.0072662
-0.00935556
-0.0114079
-0.0134204
-0.0153887
-0.0173401
0.00720254
0.00505584
0.00294044
0.000857395
-0.00119231
-0.00320781
-0.00518838
-0.00713334
-0.00904054
-0.0109069
-0.0127529
0.0100777
0.00802563
0.00600342
0.00401214
0.00205271
0.000125974
-0.00176735
-0.00362658
-0.00545008
-0.00723591
-0.0089976
0.0123269
0.0103488
0.00839901
0.00647849
0.00458807
0.00272856
0.000900646
-0.000894983
-0.00265718
-0.00438482
-0.00608534
0.0139029
0.0119754
0.0100748
0.00820206
0.00635795
0.00454322
0.00275854
0.00100453
-0.00071802
-0.00240856
-0.00406983
0.014812
0.0129144
0.0110413
0.00919344
0.00737149
0.00557618
0.00380815
0.00206807
0.000356574
-0.00132596
-0.00297998
)
;

boundaryField
{
    inlet
    {
        type            zeroGradient;
    }
    outlet
    {
        type            fixedValue;
        value           uniform 0;
    }
    cylinder
    {
        type            zeroGradient;
    }
    top
    {
        type            symmetryPlane;
    }
    bottom
    {
        type            symmetryPlane;
    }
    defaultFaces
    {
        type            empty;
    }
    procBoundary3to1
    {
        type            processor;
        value           nonuniform List<scalar> 
41
(
-0.300483
-0.299467
-0.297216
-0.293899
-0.289689
-0.284697
-0.278899
-0.29359
-0.298978
-0.300741
-0.300483
-0.273477
-0.265178
-0.256431
-0.246428
-0.235477
-0.223702
-0.211248
-0.198291
-0.185003
-0.171553
-0.1581
-0.144784
-0.131732
-0.119052
-0.106835
-0.0951504
-0.084069
-0.0736044
-0.0638461
-0.0546892
-0.046374
-0.0384491
-0.0317275
-0.0246897
-0.019978
-0.0128905
-0.011461
-0.0019152
-0.00735756
0.0108038
)
;
    }
    procBoundary3to2
    {
        type            processor;
        value           nonuniform List<scalar> 
50
(
-0.462402
-0.462402
-0.449962
-0.449962
-0.459389
-0.449179
-0.449179
-0.437237
-0.437237
-0.423523
-0.40347
-0.40347
-0.386957
-0.386957
-0.366476
-0.366476
-0.340548
-0.318663
-0.318663
-0.27372
-0.255505
-0.238079
-0.219477
-0.201185
-0.183513
-0.166455
-0.150106
-0.134537
-0.119782
-0.105855
-0.0927644
-0.0805071
-0.0690753
-0.0584557
-0.0530447
-0.0530447
-0.043659
-0.0350431
-0.0271701
-0.0200103
-0.0135353
-0.00771792
-0.00253429
0.00203495
0.00600395
0.00937941
0.0121587
0.0143323
0.0158564
0.0167332
)
;
    }
}


// ************************************************************************* //
