/*--------------------------------*- C++ -*----------------------------------*\
  =========                 |
  \\      /  F ield         | OpenFOAM: The Open Source CFD Toolbox
   \\    /   O peration     | Website:  https://openfoam.org
    \\  /    A nd           | Version:  7
     \\/     M anipulation  |
\*---------------------------------------------------------------------------*/
FoamFile
{
    version     2.0;
    format      ascii;
    class       surfaceScalarField;
    location    "30";
    object      phi;
}
// * * * * * * * * * * * * * * * * * * * * * * * * * * * * * * * * * * * * * //

dimensions      [0 3 -1 0 0 0 0];

internalField   nonuniform List<scalar> 
4147
(
-4.2325e-05
4.2325e-05
-1.71261e-11
-0.00014502
0.000102695
-4.10187e-11
-0.000292243
0.000147223
-6.40583e-11
-0.000468573
0.00017633
-0.000659461
0.000190887
-0.000851994
0.000192534
-0.00103591
0.000183915
-0.00120503
0.00016912
-0.00135819
0.000153158
0.000142409
-0.0015006
-4.15573e-05
8.38823e-05
-0.000142027
0.000203164
-0.000285439
0.000290635
-0.000456176
0.000347067
-0.000639414
0.000374125
-0.000821874
0.000374994
-0.000992837
0.000354878
-0.00114562
0.000321898
-0.0012786
0.000286142
0.000260332
-0.00139652
-4.00334e-05
0.000123916
-0.00013608
0.00029921
-0.000271911
0.000426467
-0.000431519
0.000506676
-0.000599535
0.000542141
-0.000761954
0.000537413
-0.00090714
0.000500064
-0.00102739
0.000442144
-0.00112017
0.000378926
0.000329444
-0.00118928
-3.77759e-05
0.000161692
-0.000127251
0.000388686
-0.000251811
0.000551026
-0.000394867
0.000649731
-0.000540242
0.000687516
-0.000672849
0.00067002
-0.00077969
0.000606905
-0.000851515
0.000513969
-0.000884403
0.000411814
0.000325643
-0.000880602
-3.48157e-05
0.000196507
-0.000115645
0.000469516
-0.000225353
0.000660734
-0.000346591
0.000770969
-0.000462122
0.000803048
-0.00055544
0.000763338
-0.000611736
0.000663201
-0.000619678
0.000521911
-0.000573745
0.000365881
0.000224822
-0.000472924
-3.119e-05
0.000227697
-0.000101384
0.00053971
-0.000192796
0.000752145
-0.000287143
0.000865316
-0.000365899
0.000881804
-0.000410813
0.000808253
-0.000404829
0.000657216
-0.000333756
0.000450838
-0.000190298
0.000222422
1.95379e-05
1.49869e-05
-2.69384e-05
0.000254636
-8.46013e-05
0.000597373
-0.00015442
0.000821964
-0.00021702
0.000927916
-0.000252372
0.000917157
-0.000240185
0.000796066
-0.000160776
0.000577807
2.62395e-06
0.000287438
0.000263894
-3.88478e-05
-0.000338107
0.000621539
-2.20996e-05
0.000276735
-6.54278e-05
0.000640701
-0.000110507
0.000867043
-0.000136725
0.000954134
-0.000122372
0.000902803
-4.48552e-05
0.000718549
0.000118645
0.000414308
0.000389347
1.6735e-05
0.000782332
-0.000431832
-0.000857337
0.00130156
-1.67075e-05
0.000293443
-4.39825e-05
0.000667976
-6.13153e-05
0.000884376
-4.67313e-05
0.00093955
2.33079e-05
0.000832764
0.000173885
0.000567972
0.000431233
0.00015696
0.000820852
-0.000372885
0.00136295
-0.000973929
-0.00155876
0.00206437
-1.07889e-05
0.000304232
-2.0361e-05
0.000677548
-7.05859e-06
0.000871073
5.25568e-05
0.000879934
0.000183965
0.000701356
0.00041487
0.000337067
0.000775131
-0.000203301
0.00129517
-0.000892925
0.00200114
-0.0016799
-0.0024618
0.00290418
-4.36259e-06
0.000308594
5.36884e-06
0.000667817
5.20947e-05
0.000824347
0.00016083
0.000771199
0.000359051
0.000503135
0.000677136
1.89812e-05
0.00114867
-0.000674839
0.00180942
-0.00155367
0.00269252
-0.002563
-0.00358439
0.00381511
2.57987e-06
0.000306014
3.31638e-05
0.000637233
0.000116053
0.000741459
0.000277887
0.000609364
0.00054819
0.000232832
0.000959983
-0.000392811
0.00155051
-0.00126537
0.00236103
-0.00236419
0.00343272
-0.00363469
-0.00494272
0.00479105
1.00168e-05
0.000295998
6.30219e-05
0.000584228
0.000184765
0.000619716
0.000403621
0.000390508
0.000751183
-0.000114729
0.00126301
-0.000904637
0.00197974
-0.0019821
0.00294792
-0.00333237
0.00421753
-0.00490429
-0.0065505
0.0058253
1.79747e-05
0.000278023
9.49389e-05
0.000507263
0.000258206
0.000456449
0.000537979
0.000110735
0.000967954
-0.000544704
0.00158609
-0.00152277
0.00243595
-0.00283196
0.0035687
-0.00446512
0.00504322
-0.0063788
-0.00841797
0.00691069
2.64576e-05
0.000251565
0.000128909
0.000404812
0.000336336
0.000249022
0.00068089
-0.000233819
0.00119845
-0.00106227
0.00192927
-0.00225359
0.00291925
-0.00382194
0.00422293
-0.00576881
0.005907
-0.00806287
-0.0105506
0.00803966
3.54655e-05
0.0002161
0.000164895
0.000275382
0.000419038
-5.12087e-06
0.000832153
-0.000646934
0.00144247
-0.00167258
0.00229252
-0.00310364
0.00343003
-0.00495945
0.00491129
-0.00725006
0.00680783
-0.00995942
-0.0129476
0.00920476
4.49827e-05
0.000171117
0.000202796
0.000117569
0.000506053
-0.000308378
0.000991301
-0.00113218
0.00169937
-0.00238065
0.00267535
-0.00407963
0.00396857
-0.00625267
0.00563537
-0.00891686
0.0077471
-0.0120711
-0.0156006
0.0104002
5.49698e-05
0.000116147
0.000242427
-6.98889e-05
0.000596916
-0.000662867
0.00115745
-0.00169272
0.00196783
-0.00319102
0.00307628
-0.00518807
0.00453441
-0.0077108
0.00639774
-0.0107802
0.00872899
-0.0144024
-0.0184985
0.0116268
6.53596e-05
5.07878e-05
0.0002835
-0.000288029
0.000690903
-0.00107027
0.00132917
-0.00233098
0.0022454
-0.00410726
0.00349202
-0.00643469
0.00512544
-0.00934422
0.0072036
-0.0128584
0.00976792
-0.0169667
-0.0216302
0.0128996
7.60587e-05
-2.52708e-05
0.000325624
-0.000537595
0.000787023
-0.00153167
0.00150437
-0.00304832
0.00252821
-0.0051311
0.0039161
-0.00782259
0.00573357
-0.0111617
0.00805545
-0.0151802
0.0109289
-0.0198401
-0.024926
0.0142247
8.69555e-05
-0.000112226
0.000368343
-0.000818982
0.000884087
-0.00204741
0.00168043
-0.00384467
0.00281082
-0.00626149
0.00433744
-0.00934921
0.00633534
-0.0131596
0.00890503
-0.0177499
0.012249
-0.0231841
-0.0297931
0.0171161
9.79368e-05
-0.000210163
0.000411181
-0.00113223
0.000980858
-0.00261709
0.00185461
-0.00471842
0.00308735
-0.00749423
0.0047428
-0.0110047
0.00689759
-0.0153144
0.00965213
-0.0205045
0.0131708
-0.0267028
-0.0342702
0.0176479
0.000108903
0.000453715
-0.00147704
0.00107623
-0.00323961
0.00202455
-0.00566674
0.0033532
-0.00882288
0.00512361
-0.0127751
0.00740536
-0.0175961
0.0102773
-0.0233764
0.013829
-0.0302545
-0.0385282
0.0180871
0.000495602
0.00116935
-0.00391336
0.00218852
-0.0066859
0.00360553
-0.0102399
0.00547648
-0.014646
0.00785895
-0.0199786
0.0108055
-0.0263229
0.0143476
-0.0337967
-0.0426155
0.0184349
0.00125955
-0.00463633
0.00234534
-0.00777169
0.00384274
-0.0117373
0.00580053
-0.0166038
0.00826231
-0.0224404
0.0112559
-0.0293165
0.0147723
-0.0373131
-0.0465629
0.0187197
0.00134633
0.00249412
-0.00891947
0.0040638
-0.013307
0.00609549
-0.0186355
0.00861837
-0.0249633
0.0116384
-0.0323365
0.015118
-0.0407927
-0.0503886
0.0189437
0.00263406
0.0042677
-0.0149406
0.00636079
-0.0207286
0.00892822
-0.0275307
0.0119569
-0.0353651
0.0153883
-0.0442241
-0.0540972
0.0190968
0.00445328
0.00659526
0.00919118
-0.0301266
0.0122111
-0.0383851
0.0155808
-0.0475937
-0.0576836
0.0191673
0.00940519
0.0123986
-0.0413785
0.0156905
-0.0508857
-0.0611369
0.0191438
0.0125156
0.0157118
-0.0540819
-0.0644423
0.0190173
0.0156398
0.0187813
-4.2325e-05
-0.00014502
-0.0015502
4.9603e-05
-0.00153798
-1.22142e-05
-0.00145164
-8.63482e-05
-0.00127686
-0.000174779
-0.00100726
-0.000269601
-0.000642804
-0.000364452
-0.000187545
-0.000455259
0.000351561
-0.000539106
0.000965958
-0.000614398
0.0016464
-0.000680444
0.00238358
-0.000737179
0.00316847
-0.000784897
0.00399255
-0.000824079
0.00484783
-0.000855275
0.00572687
-0.000879046
0.00662278
-0.000895911
0.00752918
-0.000906397
0.00844007
-0.000910893
0.00935008
-0.000910009
0.0102538
-0.000903746
0.0111472
-0.000893414
0.0120247
-0.000877418
0.012885
-0.00086037
0.0137189
-0.000833881
0.0145352
-0.000816256
0.0153074
-0.000772221
0.0160789
-0.00077149
0.016763
-0.000684103
0.0175051
-0.000742083
-0.000570134
-0.00144248
9.55626e-05
-0.00142594
-2.87577e-05
-0.00133571
-0.000176579
-0.00115783
-0.000352658
-0.000886125
-0.000541306
-0.00052073
-0.000729848
-6.57271e-05
-0.000910262
0.000471979
-0.00107681
0.00108397
-0.00122639
0.00176117
-0.00135765
0.00249446
-0.00147046
0.00327497
-0.00156541
0.00409434
-0.00164344
0.00494469
-0.00170563
0.00581871
-0.00175307
0.00670959
-0.00178679
0.00761101
-0.00180782
0.00851705
-0.00181693
0.00942236
-0.00181532
0.0103216
-0.001803
0.0112108
-0.00178258
0.0120842
-0.00175084
0.0129409
-0.00171704
0.0137714
-0.00166436
0.0145845
-0.00162944
0.015354
-0.00154172
0.0161231
-0.00154058
0.0168053
-0.0013663
0.0175456
-0.00148236
-0.00113978
-0.00122804
0.000134318
-0.00120299
-5.38025e-05
-0.0011051
-0.000274474
-0.000921108
-0.000536646
-0.000645289
-0.000817125
-0.000278095
-0.00109704
0.000176312
-0.00136467
0.000711163
-0.00161166
0.00131831
-0.00183354
0.00198902
-0.00202836
0.00271453
-0.00219597
0.00348632
-0.0023372
0.0042963
-0.00245343
0.00513688
-0.0025462
0.00600093
-0.00261713
0.00688183
-0.00266768
0.00777339
-0.00269938
0.0086698
-0.00271334
0.00956583
-0.00271135
0.0104562
-0.00269337
0.0113369
-0.00266332
0.0122025
-0.00261638
0.0130518
-0.00256638
0.0138756
-0.00248812
0.0146827
-0.00243654
0.0154468
-0.00230583
0.0162112
-0.00230493
0.0168896
-0.00204474
0.0176263
-0.00221909
-0.00170848
-0.000908796
0.000162512
-0.000871424
-9.11745e-05
-0.000762241
-0.000383657
-0.000569322
-0.000729565
-0.000287564
-0.00109888
8.21108e-05
-0.00146672
0.00053542
-0.00181798
0.00106584
-0.00214208
0.00166563
-0.00243333
0.00232659
-0.00268931
0.00304046
-0.00290984
0.00379924
-0.00309598
0.00459528
-0.00324947
0.00542135
-0.00337227
0.00627064
-0.00346642
0.00713677
-0.00353381
0.00801376
-0.00357638
0.00889597
-0.00359555
0.00977829
-0.00359367
0.0106556
-0.00357065
0.0115239
-0.00353168
0.0123778
-0.00347029
0.0132164
-0.00340497
0.0140303
-0.00330202
0.0148285
-0.00323475
0.0155848
-0.00306207
0.0163422
-0.00306237
0.0170152
-0.00271772
0.0177467
-0.00295065
-0.0022759
-0.000487892
0.00017748
-0.000434322
-0.000144745
-0.000310675
-0.000507305
-0.000106296
-0.000933943
0.000182902
-0.00138808
0.000555431
-0.00183925
0.00100693
-0.00226948
0.00153117
-0.00266632
0.00212099
-0.00302315
0.00276888
-0.0033372
0.00346731
-0.00360826
0.0042089
-0.00383758
0.00498659
-0.00402716
0.00579362
-0.0041793
0.00662358
-0.00429638
0.0074704
-0.00438062
0.00832838
-0.00443435
0.00919207
-0.00445924
0.0100565
-0.00445815
0.0109168
-0.00443089
0.0117691
-0.00438395
0.0126079
-0.00430914
0.0134325
-0.00422962
0.0142337
-0.00410315
0.0150204
-0.00402145
0.0157665
-0.00380816
0.016515
-0.00381091
0.017181
-0.00338374
0.017906
-0.00367564
-0.00284181
4.01861e-05
0.000152281
0.00010447
-0.000209029
0.000244878
-0.000647712
0.000462875
-0.00115194
0.000760695
-0.0016859
0.00113613
-0.00221468
0.00158476
-0.00271811
0.00210082
-0.00318239
0.00267792
-0.00360025
0.00330941
-0.0039687
0.00398863
-0.00428748
0.004709
-0.00455795
0.00546413
-0.00478229
0.00624784
-0.00496301
0.00705418
-0.00510273
0.00787747
-0.00520392
0.00871232
-0.0052692
0.00955353
-0.00530045
0.0103964
-0.00530101
0.011236
-0.00527052
0.0120689
-0.00521678
0.0128895
-0.00512981
0.0136974
-0.00503748
0.0144832
-0.00488895
0.0152561
-0.00479437
0.0159901
-0.00454214
0.0167281
-0.00454888
0.0173859
-0.00404156
0.0181031
-0.00439289
-0.00340618
0.00064516
0.00012866
0.00073822
-0.000302089
0.000898955
-0.000808447
0.00113224
-0.00138523
0.00143931
-0.00199297
0.00181717
-0.00259254
0.00226147
-0.00316241
0.00276707
-0.00368799
0.00332853
-0.00416171
0.00394024
-0.00458041
0.00459657
-0.0049438
0.00529185
-0.00525323
0.00602047
-0.0055109
0.00677688
-0.00571942
0.00755569
-0.00588154
0.00835163
-0.00599985
0.00915965
-0.00607723
0.00997485
-0.00611564
0.0107927
-0.00611889
0.0116086
-0.00608641
0.0124191
-0.00602724
0.0132189
-0.00592962
0.0140075
-0.00582613
0.0147758
-0.00565724
0.0155331
-0.00555162
0.0162533
-0.0052624
0.0169794
-0.00527492
0.0176281
-0.00469026
0.0183367
-0.00510155
-0.00396917
0.001347
8.32229e-05
0.00146304
-0.000418126
0.00164529
-0.000990696
0.00189492
-0.00163487
0.00221121
-0.00230926
0.00259042
-0.00297174
0.00302841
-0.0036004
0.00352091
-0.00418048
0.00406361
-0.00470441
0.00465215
-0.00516895
0.00528201
-0.00557367
0.00594855
-0.00591976
0.00664699
-0.00620935
0.00737252
-0.00644494
0.00812028
-0.00662931
0.00888549
-0.00676506
0.00966348
-0.00685522
0.0104496
-0.00690178
0.0112397
-0.00690894
0.0120292
-0.00687589
0.0128148
-0.00681292
0.0135916
-0.00670636
0.014359
-0.00659359
0.0151081
-0.00640631
0.0158482
-0.00629171
0.0165535
-0.00596775
0.0172667
-0.00598807
0.0179057
-0.00532929
0.0186053
-0.00580111
-0.00453121
0.00213202
1.55757e-05
0.00227235
-0.000558457
0.00247707
-0.00119541
0.00274329
-0.00190109
0.00306794
-0.00263391
0.00344665
-0.00335045
0.00387578
-0.00402953
0.00435215
-0.00465685
0.0048728
-0.00522506
0.00543473
-0.00573088
0.00603468
-0.00617362
0.00666908
-0.00655416
0.00733405
-0.00687432
0.00802551
-0.0071364
0.00873921
-0.00734301
0.00947083
-0.00749669
0.0102161
-0.00760048
0.0109707
-0.00765637
0.0117306
-0.00766888
0.0124916
-0.00763688
0.0132506
-0.00757192
0.0140026
-0.00745837
0.0147474
-0.00733842
0.0154761
-0.00713492
0.016198
-0.00701366
0.0168877
-0.00665747
0.0175875
-0.00668783
0.0182167
-0.00595852
0.0189071
-0.00649148
-0.00509301
0.00299446
-7.4704e-05
0.00315954
-0.000723539
0.00338697
-0.00142284
0.00366906
-0.00218319
0.00400022
-0.00296507
0.00437574
-0.00372598
0.00479279
-0.00444658
0.00524957
-0.00511362
0.00574468
-0.00572017
0.00627659
-0.0062628
0.00684336
-0.00674039
0.00744252
-0.00715332
0.00807112
-0.00750292
0.00872581
-0.00779109
0.00940295
-0.00802015
0.0100987
-0.00819243
0.0108091
-0.00831092
0.0115303
-0.00837751
0.0122584
-0.008397
0.0129894
-0.00836788
0.0137204
-0.00830294
0.0144466
-0.00818454
0.0151679
-0.00805974
0.0158754
-0.00784241
0.0165787
-0.00771701
0.0172526
-0.00733131
0.0179389
-0.00737412
0.0185586
-0.00657825
0.0192401
-0.00717298
-0.00565556
0.00392818
-0.000187775
0.00411789
-0.000913248
0.00436728
-0.00167223
0.00466336
-0.00247927
0.00499802
-0.00329973
0.00536666
-0.00409462
0.00576769
-0.00484761
0.00620101
-0.00554694
0.00666692
-0.00618609
0.00716547
-0.00676134
0.00769601
-0.00727093
0.0082572
-0.00771451
0.00884698
-0.0080927
0.00946272
-0.00840683
0.0101014
-0.00865879
0.0107595
-0.00885059
0.0114337
-0.00898508
0.0121201
-0.00906394
0.0128154
-0.00909225
0.0135155
-0.00906802
0.0142179
-0.00900533
0.0149178
-0.0088844
0.0156153
-0.00875724
0.0163015
-0.00852865
0.0169863
-0.00840183
0.0176446
-0.00798958
0.0183179
-0.00804741
0.0189289
-0.00718926
0.0196023
-0.00784641
-0.0062202
0.00492687
-0.000323599
0.00514062
-0.00112699
0.00541002
-0.00194164
0.0057168
-0.00278604
0.00605057
-0.0036335
0.00640754
-0.00445159
0.0067879
-0.00522797
0.0071935
-0.00595254
0.00762648
-0.00661906
0.00808841
-0.00722327
0.00857998
-0.0077625
0.00910087
-0.0082354
0.00964988
-0.00864172
0.0102251
-0.00898202
0.0108239
-0.00925763
0.0114434
-0.00947012
0.0120805
-0.00962213
0.0127316
-0.00971507
0.0133936
-0.00975422
0.0140627
-0.0097371
0.0147364
-0.00967904
0.01541
-0.00955808
0.016084
-0.00943123
0.0167495
-0.00919414
0.0174165
-0.00906876
0.01806
-0.00863311
0.0187212
-0.00870866
0.0193248
-0.00779283
0.0199914
-0.00851303
-0.00678859
0.00598418
-0.000482481
0.00622097
-0.00136378
0.00650699
-0.00222767
0.00681939
-0.00309844
0.00714635
-0.00396046
0.00748573
-0.00479097
0.00784007
-0.00558231
0.00821339
-0.00632585
0.00860966
-0.00701533
0.00903196
-0.00764557
0.00948215
-0.0082127
0.0099609
-0.00871415
0.0104678
-0.00914858
0.0110014
-0.00951564
0.0115597
-0.00981598
0.0121402
-0.0100506
0.01274
-0.0102219
0.0133559
-0.010331
0.0139849
-0.0103832
0.0146233
-0.0103756
0.015269
-0.0103247
0.0159173
-0.0102063
0.0165687
-0.0100826
0.0172144
-0.00983993
0.0178647
-0.00971902
0.0184949
-0.00926329
0.0191456
-0.00935936
0.0197435
-0.00839071
0.020405
-0.00917462
-0.00736275
0.0070938
-0.00066559
0.00735235
-0.00162233
0.00764973
-0.00252505
0.00796053
-0.00340924
0.008273
-0.00427293
0.00858775
-0.00510571
0.00891013
-0.00590469
0.00924644
-0.00666216
0.00960236
-0.00737125
0.00998231
-0.00802552
0.0103892
-0.00861959
0.0108245
-0.00914944
0.0112884
-0.00961249
0.0117801
-0.0100073
0.012298
-0.0103338
0.0128397
-0.0105924
0.0134028
-0.010785
0.0139842
-0.0109124
0.0145811
-0.0109801
0.01519
-0.0109845
0.0158088
-0.0109435
0.0164331
-0.0108306
0.0170634
-0.010713
0.0176912
-0.0104677
0.0183265
-0.0103544
0.0189453
-0.00988205
0.0195874
-0.0100015
0.0201819
-0.00898518
0.0208407
-0.0098334
-0.00794503
0.00824976
-0.000875689
0.00852855
-0.00190112
0.00882948
-0.00282597
0.00912877
-0.00370854
0.00941725
-0.00456141
0.00969932
-0.00538778
0.00998343
-0.00618881
0.010278
-0.00695673
0.0105902
-0.00768346
0.0109255
-0.00836085
0.0112877
-0.00898176
0.0116788
-0.00954058
0.0120997
-0.0100333
0.0125497
-0.0104574
0.0130278
-0.0108119
0.0135317
-0.0110964
0.0140593
-0.0113126
0.0146076
-0.0114607
0.015174
-0.0115465
0.0157552
-0.0115656
0.0163491
-0.0115374
0.0169513
-0.0114328
0.0175626
-0.0113243
0.0181745
-0.0110796
0.0187973
-0.0109772
0.0194071
-0.0104918
0.0200432
-0.0106376
0.020637
-0.00957898
0.0212957
-0.0104921
-0.00853813
0.00944728
-0.00111821
0.0097438
-0.00219764
0.0100368
-0.00311894
0.0103115
-0.00398325
0.0105647
-0.00481462
0.0108053
-0.0056284
0.0110448
-0.00642824
0.0112932
-0.00720514
0.0115588
-0.00794905
0.0118478
-0.00864985
0.0121645
-0.00929846
0.0125114
-0.00988751
0.0128897
-0.0104116
0.0132991
-0.0108668
0.0137386
-0.0112514
0.0142065
-0.0115642
0.0147004
-0.0118065
0.0152177
-0.011978
0.0157558
-0.0120846
0.0163115
-0.0121213
0.0168829
-0.0121088
0.0174656
-0.0120155
0.0180607
-0.0119194
0.0186595
-0.0116785
0.0192726
-0.0115902
0.0198764
-0.0110956
0.0205095
-0.0112707
0.0211058
-0.0101753
0.0217677
-0.011154
-0.00914508
0.0106829
-0.00140096
0.0109916
-0.00250631
0.0112605
-0.00338779
0.0114942
-0.00421699
0.0116995
-0.00501989
0.0118897
-0.0058186
0.0120784
-0.00661692
0.0122767
-0.0074035
0.0124935
-0.00816582
0.0127352
-0.00889156
0.0130064
-0.00956964
0.0133098
-0.0101909
0.0136467
-0.0107485
0.0140172
-0.0112373
0.0144203
-0.0116545
0.0148543
-0.0119982
0.015317
-0.0122693
0.015806
-0.0124669
0.0163187
-0.0125973
0.0168518
-0.0126545
0.0174038
-0.0126607
0.0179701
-0.0125819
0.0185521
-0.0125014
0.0191412
-0.0122676
0.0197478
-0.0121968
0.020349
-0.0116969
0.0209826
-0.0119042
0.0215851
-0.0107779
0.0222537
-0.0118226
-0.00976922
0.0119541
-0.00172818
0.0122645
-0.00281673
0.0124874
-0.00361073
0.0126604
-0.00439003
0.0128043
-0.00516376
0.0129355
-0.00594975
0.0130681
-0.00674951
0.0132134
-0.0075488
0.0133799
-0.00833239
0.0135742
-0.00908581
0.0138006
-0.00979607
0.014062
-0.0104523
0.0143596
-0.0110461
0.0146935
-0.0115712
0.0150628
-0.0120238
0.0154659
-0.0124013
0.0159007
-0.0127041
0.0163646
-0.0129308
0.0168552
-0.0130879
0.0173693
-0.0131686
0.0179054
-0.0131967
0.018459
-0.0131355
0.0190315
-0.0130739
0.0196146
-0.0128506
0.0202186
-0.0128009
0.0208212
-0.0122995
0.0214591
-0.012542
0.0220719
-0.0113908
0.0227514
-0.012502
-0.0104142
0.013277
-0.00210557
0.0135623
-0.00310207
0.0137052
-0.00375362
0.013794
-0.0044788
0.0138628
-0.00523262
0.0139273
-0.00601418
0.0139996
-0.00682182
0.0140899
-0.00763908
0.0142058
-0.00844834
0.0143533
-0.00923329
0.0145364
-0.00997923
0.0147579
-0.0106737
0.0150187
-0.0113069
0.015319
-0.0118715
0.0156578
-0.0123626
0.0160335
-0.012777
0.0164439
-0.0131145
0.0168865
-0.0133734
0.0173589
-0.0135603
0.0178579
-0.0136677
0.0183821
-0.0137208
0.018927
-0.0136804
0.0194942
-0.0136411
0.0200753
-0.0134317
0.0206809
-0.0134065
0.0212891
-0.0129077
0.0219356
-0.0131885
0.0225632
-0.0120184
0.0232579
-0.0131967
-0.0110839
0.0147339
-0.00261473
0.014887
-0.00325521
0.0148968
-0.00376341
0.0148771
-0.00445914
0.0148591
-0.00521461
0.0148514
-0.00600649
0.0148614
-0.00683175
0.0148964
-0.00767413
0.0149627
-0.00851468
0.0150653
-0.00933581
0.0152075
-0.0101215
0.0153917
-0.0108579
0.0156189
-0.0115341
0.0158888
-0.0121414
0.0162006
-0.0126743
0.0165523
-0.0131288
0.0169421
-0.0135042
0.0173672
-0.0137985
0.0178252
-0.0140183
0.0183132
-0.0141556
0.0188294
-0.0142371
0.0193699
-0.0142209
0.0199358
-0.0142071
0.0205196
-0.0140154
0.0211309
-0.0140178
0.0217497
-0.0135265
0.0224085
-0.0138473
0.0230569
-0.0126668
0.0237695
-0.0139093
-0.0117838
0.0323218
-0.00175865
-0.0331779
0.0319188
-0.0028522
0.0316884
-0.00353301
0.0315015
-0.00427231
0.0313444
-0.00505751
0.0312083
-0.00587032
0.0310888
-0.00671233
0.0309868
-0.00757214
0.0309048
-0.00843268
0.0308463
-0.00927722
0.0308148
-0.01009
0.0308138
-0.010857
0.0308461
-0.0115664
0.0309136
-0.0122089
0.0310171
-0.0127779
0.0311568
-0.0132685
0.031332
-0.0136794
0.0315411
-0.0140077
0.0317822
-0.0142594
0.0320532
-0.0144265
0.032351
-0.0145349
0.0326735
-0.0145434
0.0330173
-0.0145509
0.0333805
-0.0143786
0.0337612
-0.0143985
0.0341547
-0.01392
0.0345672
-0.0142599
0.0349833
-0.0130829
0.0354247
-0.0143506
-0.0122325
0.0390343
-0.00091255
-0.0398804
0.0382315
-0.00204943
0.0376439
-0.00294538
0.0371675
-0.0037959
0.0367695
-0.00465954
0.03643
-0.00553088
0.0361344
-0.00641666
0.0358756
-0.00731336
0.0356513
-0.00820839
0.0354615
-0.00908738
0.0353074
-0.0099359
0.0351907
-0.0107404
0.0351132
-0.0114889
0.035076
-0.0121717
0.0350796
-0.0127814
0.0351236
-0.0133126
0.0352072
-0.0137629
0.0353286
-0.0141292
0.0354858
-0.0144165
0.0356764
-0.0146172
0.0358971
-0.0147556
0.0361462
-0.0147925
0.0364191
-0.0148239
0.0367157
-0.0146752
0.0370304
-0.0147132
0.0373648
-0.0142544
0.037714
-0.014609
0.0380821
-0.013451
0.0384577
-0.0147263
-0.0126446
0.0459718
1.25785e-05
-0.0468969
0.0450057
-0.00108336
0.0441712
-0.00211087
0.0434455
-0.00307018
0.0428139
-0.00402795
0.0422626
-0.00497962
0.0417759
-0.00592995
0.0413434
-0.00688084
0.0409594
-0.00782437
0.040621
-0.00874904
0.0403275
-0.00964237
0.0400789
-0.0104918
0.0398759
-0.0112858
0.0397188
-0.0120145
0.0396075
-0.0126701
0.0395414
-0.0132465
0.0395194
-0.0137408
0.0395397
-0.0141495
0.0395998
-0.0144766
0.0396974
-0.0147148
0.039829
-0.0148871
0.0399928
-0.0149563
0.0401838
-0.0150149
0.0404025
-0.0148938
0.0406414
-0.0149521
0.0409058
-0.0145188
0.0411831
-0.0148864
0.0414918
-0.0137596
0.0417958
-0.0150303
-0.0130091
0.0532151
0.00100947
-0.054212
0.0521527
-2.10036e-05
0.0511547
-0.00111288
0.0502389
-0.00215436
0.0494068
-0.00319588
0.0486575
-0.00423027
0.0479818
-0.00525428
0.0473709
-0.00626998
0.0468188
-0.00727221
0.0463215
-0.00825172
0.0458769
-0.00919779
0.0454842
-0.0100991
0.045143
-0.0109447
0.0448532
-0.0117247
0.0446142
-0.0124312
0.0444254
-0.0130577
0.0442852
-0.0136006
0.0441918
-0.0140561
0.0441426
-0.0144274
0.0441354
-0.0147076
0.0441662
-0.014918
0.0442334
-0.0150235
0.0443315
-0.0151129
0.0444617
-0.015024
0.0446145
-0.0151049
0.0447989
-0.0147032
0.0449946
-0.0150821
0.0452346
-0.0139996
0.0454574
-0.0152531
-0.0133175
0.060697
0.00206898
-0.0617565
0.0595783
0.00109769
0.058482
-1.65557e-05
0.0574368
-0.00110919
0.0564521
-0.00221113
0.0555369
-0.00331509
0.0546916
-0.00440893
0.0539123
-0.00549067
0.0531954
-0.0065553
0.052538
-0.00759437
0.0519383
-0.00859812
0.0513953
-0.00955609
0.0509085
-0.0104578
0.0504775
-0.0112937
0.0501016
-0.0120554
0.0497802
-0.0127363
0.0495117
-0.0133321
0.0492943
-0.0138387
0.0491254
-0.0142586
0.0490027
-0.0145849
0.0489224
-0.0148376
0.0488828
-0.0149839
0.0488779
-0.015108
0.0489096
-0.0150557
0.0489667
-0.015162
0.0490617
-0.0147983
0.0491665
-0.0151868
0.0493289
-0.014162
0.0494615
-0.0153857
-0.0135607
0.068311
0.00316194
-0.069404
0.0671753
0.00223343
0.0660348
0.00112391
0.0649176
7.95332e-06
0.0638342
-0.00112767
0.062798
-0.00227893
0.0618171
-0.00342799
0.0608938
-0.00456736
0.0600286
-0.00569017
0.0592216
-0.00678736
0.0584726
-0.00784907
0.0577815
-0.00886499
0.0571485
-0.00982481
0.0565736
-0.0107188
0.0560568
-0.0115386
0.0555973
-0.0122768
0.0551941
-0.0129289
0.0548456
-0.0134902
0.0545494
-0.0139623
0.0543033
-0.0143389
0.0541036
-0.0146379
0.0539487
-0.0148291
0.0538324
-0.0149917
0.0537572
-0.0149806
0.05371
-0.0151149
0.0537073
-0.0147955
0.0537128
-0.0151924
0.0537894
-0.0142386
0.0538237
-0.01542
-0.0137302
0.0759345
0.00424108
-0.0770137
0.0748233
0.00334463
0.0736882
0.00225906
0.0725529
0.00114328
0.0714252
-5.62111e-08
0.0703196
-0.00117333
0.0692477
-0.00235603
0.0682171
-0.00353676
0.0672328
-0.00470593
0.0662985
-0.00585305
0.0654167
-0.00696728
0.0645895
-0.00803776
0.0638185
-0.00905379
0.0631049
-0.0100052
0.0624495
-0.0108832
0.0618526
-0.0116798
0.0613135
-0.0123898
0.0608313
-0.013008
0.0604041
-0.0135352
0.0600302
-0.0139649
0.0597059
-0.0143136
0.0594301
-0.0145532
0.0591963
-0.0147579
0.0590078
-0.0147921
0.05885
-0.0149571
0.0587427
-0.0146882
0.0586422
-0.0150919
0.0586257
-0.0142222
0.0585554
-0.0153497
-0.0138177
0.0834372
0.0052512
-0.0844473
0.0823963
0.00438556
0.0813147
0.00334058
0.0802109
0.0022471
0.0790931
0.00111778
0.0779708
-5.10351e-05
0.0768581
-0.00124332
0.0757655
-0.00244414
0.0747014
-0.0036419
0.073673
-0.00482464
0.0726859
-0.0059802
0.0717448
-0.00709666
0.0708535
-0.00816247
0.070015
-0.00916675
0.0692316
-0.0100998
0.0685048
-0.010953
0.0678351
-0.0117201
0.0672225
-0.0123954
0.0666659
-0.0129786
0.0661642
-0.0134632
0.0657143
-0.0138637
0.0653155
-0.0141545
0.0649615
-0.0144039
0.0646564
-0.0144869
0.064384
-0.0146847
0.0641677
-0.0144719
0.0639567
-0.0148809
0.0638418
-0.0141072
0.0636626
-0.0151705
-0.0138163
0.0906995
0.00613842
-0.0915867
0.0897743
0.00531075
0.0887924
0.00432246
0.0877677
0.00327185
0.0867078
0.00217766
0.0856207
0.00103601
0.0845185
-0.000141133
0.0834132
-0.00133879
0.0823151
-0.00254386
0.081234
-0.00374345
0.080178
-0.00492427
0.0791546
-0.00607328
0.07817
-0.00717785
0.0772294
-0.00822608
0.0763368
-0.00920722
0.0754956
-0.0101118
0.0747078
-0.0109323
0.0739748
-0.0116624
0.0732964
-0.0123002
0.0726726
-0.0128394
0.0721012
-0.0132922
0.071582
-0.0136353
0.0711092
-0.0139311
0.0706877
-0.0140654
0.0703004
-0.0142974
0.0699737
-0.0141452
0.0696507
-0.0145578
0.0694341
-0.0138906
0.0691443
-0.0148807
-0.0137205
0.0976308
0.00685908
-0.0983514
0.09686
0.00608154
0.0960177
0.00516477
0.0951134
0.00417606
0.0941552
0.00313586
0.0931495
0.00204175
0.0921063
0.000902057
0.0910369
-0.000269395
0.0899526
-0.00145951
0.088864
-0.00265492
0.0877815
-0.00384178
0.0867144
-0.00500618
0.0856711
-0.00613455
0.084659
-0.00721392
0.0836842
-0.00823244
0.0827519
-0.00917946
0.081866
-0.0100464
0.0810294
-0.0108257
0.0802435
-0.0115143
0.0795094
-0.0121053
0.0788261
-0.0126089
0.0781944
-0.0130036
0.077609
-0.0133457
0.0770758
-0.0135322
0.0765772
-0.0137988
0.0761425
-0.0137106
0.0757094
-0.0141247
0.0753907
-0.013572
0.0749921
-0.0144821
-0.0135268
0.104183
0.00738612
-0.10471
0.103593
0.0066718
0.102919
0.00583849
0.102167
0.00492748
0.101346
0.0039573
0.10046
0.00292778
0.0995172
0.00184477
0.0985278
0.000720043
0.0975022
-0.000433903
0.0964514
-0.0016041
0.0953862
-0.00277665
0.0943174
-0.00393733
0.0932547
-0.0050719
0.0922074
-0.00616658
0.0911835
-0.0072085
0.0901899
-0.00818591
0.0892325
-0.00908902
0.0883158
-0.00990903
0.087443
-0.0106416
0.0866167
-0.011279
0.085837
-0.0118293
0.0851061
-0.0122727
0.0844195
-0.0126592
0.0837843
-0.012897
0.0831825
-0.013197
0.0826462
-0.0131742
0.0821089
-0.0135875
0.0816912
-0.0131543
0.081189
-0.0139799
-0.0132344
0.110356
0.00771169
-0.110681
0.109956
0.00707118
0.109466
0.00632882
0.108887
0.00550643
0.108226
0.0046184
0.107487
0.00366651
0.106677
0.00265524
0.105803
0.00159417
0.104874
0.000494628
0.103901
-0.000631215
0.102895
-0.00177006
0.101865
-0.00290783
0.100823
-0.00403012
0.0997795
-0.00512269
0.0987429
-0.00617194
0.0977222
-0.0071652
0.0967248
-0.00809154
0.0957568
-0.00894106
0.0948231
-0.0097079
0.0939279
-0.0103838
0.0930728
-0.0109742
0.0922613
-0.0114611
0.0914899
-0.0118878
0.0907671
-0.0121741
0.0900749
-0.0125048
0.0894476
-0.0125469
0.0888165
-0.0129564
0.0883063
-0.0126441
0.0877097
-0.0133833
-0.0128458
0.116195
0.00784576
-0.116329
0.115981
0.0072851
0.115674
0.00663608
0.115273
0.00590749
0.114783
0.00510881
0.114206
0.00424297
0.113548
0.00331374
0.112813
0.00232872
0.11201
0.00129775
0.111147
0.000231982
0.110233
-0.000856351
0.109279
-0.0019538
0.108295
-0.00304619
0.107292
-0.0041193
0.106279
-0.00515919
0.105266
-0.00615257
0.104262
-0.00708761
0.103275
-0.00795348
0.10231
-0.00874294
0.101373
-0.00944696
0.100468
-0.0100688
0.0995983
-0.0105918
0.098763
-0.0110525
0.0979712
-0.0113823
0.0972057
-0.0117392
0.0965021
-0.0118433
0.0957914
-0.0122457
0.095199
-0.0120517
0.0945208
-0.0127051
-0.0123665
0.121781
0.00781154
-0.121747
0.121735
0.00733163
0.121597
0.00677358
0.121366
0.00613848
0.121044
0.00543126
0.120632
0.00465505
0.120132
0.00381324
0.119549
0.0029118
0.118888
0.00195897
0.118156
0.000964546
0.117359
-6.00769e-05
0.116508
-0.00110299
0.115612
-0.00215024
0.114681
-0.00318818
0.113725
-0.00420291
0.112753
-0.0051809
0.111776
-0.00610977
0.1108
-0.00697798
0.109834
-0.00777713
0.108885
-0.00849761
0.107957
-0.00914038
0.107055
-0.00969027
0.106179
-0.010177
0.105341
-0.0105435
0.104522
-0.0109207
0.10376
-0.0110815
0.102988
-0.0114732
0.102327
-0.0113906
0.101583
-0.0119614
-0.0118055
0.127214
0.00763928
-0.127042
0.127309
0.00723653
0.127319
0.00676347
0.12724
0.00621719
0.127073
0.00559907
0.126816
0.00491176
0.126471
0.00415828
0.126039
0.00334329
0.125525
0.00247352
0.124932
0.00155742
0.124267
0.000604956
0.123537
-0.000372713
0.122749
-0.00136307
0.121914
-0.00235295
0.12104
-0.0033289
0.120137
-0.00427754
0.119213
-0.00518627
0.118278
-0.00604316
0.11734
-0.00683897
0.116406
-0.00756363
0.115482
-0.00821606
0.114574
-0.0087825
0.113683
-0.00928611
0.112821
-0.00968084
0.111971
-0.0100715
0.111172
-0.0102816
0.110357
-0.010659
0.109644
-0.010677
0.108853
-0.0111705
-0.0111751
0.132596
0.00736031
-0.132317
0.132804
0.00702807
0.132936
0.0066318
0.132986
0.00616692
0.132953
0.00563235
0.132835
0.0050299
0.132631
0.00436212
0.132342
0.00363263
0.131968
0.00284681
0.131514
0.00201177
0.130983
0.00113617
0.13038
0.000230079
0.129712
-0.00069528
0.128987
-0.00162761
0.128212
-0.00255414
0.127397
-0.00346194
0.126549