/*--------------------------------*- C++ -*----------------------------------*\
  =========                 |
  \\      /  F ield         | OpenFOAM: The Open Source CFD Toolbox
   \\    /   O peration     | Website:  https://openfoam.org
    \\  /    A nd           | Version:  7
     \\/     M anipulation  |
\*---------------------------------------------------------------------------*/
FoamFile
{
    version     2.0;
    format      ascii;
    class       volVectorField;
    location    "30";
    object      U;
}
// * * * * * * * * * * * * * * * * * * * * * * * * * * * * * * * * * * * * * //

dimensions      [0 1 -1 0 0 0 0];

internalField   nonuniform List<vector> 
2125
(
(-0.000760231 0.000601243 3.61844e-22)
(-0.00384225 0.00130989 -1.15852e-21)
(-0.00929042 0.00165785 -1.42756e-21)
(-0.0153853 0.00174083 1.49026e-21)
(-0.0213842 0.0016309 -1.43273e-21)
(-0.0267512 0.00139414 -7.92003e-22)
(-0.031127 0.00109191 1.39406e-21)
(-0.0343765 0.000781652 1.77534e-21)
(-0.0365505 0.000510962 -2.94982e-22)
(-0.037751 0.000323045 8.82254e-22)
(-0.000843717 0.00179043 -4.00617e-22)
(-0.0039804 0.0038977 1.37624e-21)
(-0.00936329 0.00492965 -3.42127e-21)
(-0.0153035 0.00517124 3.25775e-21)
(-0.0210707 0.0048376 1.53187e-22)
(-0.0261388 0.00412611 2.58647e-21)
(-0.0301566 0.00322027 -4.63427e-21)
(-0.0329986 0.00229229 -6.94769e-21)
(-0.0347239 0.00148575 -1.38052e-21)
(-0.0353887 0.000933119 3.17805e-21)
(-0.00100723 0.00294005 3.73362e-22)
(-0.00424838 0.00639037 3.03902e-21)
(-0.0094976 0.00807078 7.54718e-21)
(-0.0151264 0.00844908 -7.15819e-21)
(-0.0204291 0.00788032 -1.68359e-21)
(-0.0248992 0.00669053 -1.58444e-21)
(-0.0282013 0.00518369 8.40587e-21)
(-0.0302288 0.00364631 5.36221e-21)
(-0.0310587 0.00231982 1.31379e-21)
(-0.030651 0.00143441 -9.85163e-21)
(-0.00124395 0.00402479 1.32469e-21)
(-0.00462964 0.00872684 -1.77736e-21)
(-0.00967061 0.0109973 -1.41114e-20)
(-0.0148275 0.0114765 1.30602e-21)
(-0.0194306 0.010654 4.22995e-21)
(-0.0230028 0.00898039 -3.40991e-21)
(-0.025232 0.00687707 -1.57068e-22)
(-0.0260394 0.00474385 -1.4625e-21)
(-0.0255316 0.00292264 3.38481e-21)
(-0.02351 0.00175558 9.80546e-21)
(-0.00154382 0.00502087 9.2673e-22)
(-0.00509968 0.0108495 -5.79794e-21)
(-0.00984841 0.0136301 1.46281e-20)
(-0.0143665 0.0141613 -7.00202e-21)
(-0.0180318 0.0130602 -2.7516e-23)
(-0.020405 0.0108957 1.04266e-20)
(-0.0212047 0.0082026 -4.92326e-21)
(-0.0203882 0.00549208 5.27617e-22)
(-0.0181081 0.00321294 -2.15236e-21)
(-0.0139256 0.00185282 7.74014e-22)
(-0.00189378 0.00590658 1.1157e-20)
(-0.00562641 0.0127053 1.49509e-20)
(-0.00998621 0.0158962 -4.00276e-21)
(-0.0136904 0.0164189 8.0233e-21)
(-0.0161744 0.0150093 2.65598e-21)
(-0.0170458 0.0123464 -3.8964e-21)
(-0.0160601 0.00907287 -1.57743e-21)
(-0.0132163 0.00580882 -6.89196e-21)
(-0.00873075 0.00312155 1.56268e-21)
(-0.00187428 0.00175569 -9.07334e-21)
(-0.00227803 0.00666259 -1.07674e-20)
(-0.0061705 0.0142469 -7.79904e-21)
(-0.0100287 0.0177308 6.76125e-21)
(-0.0127329 0.0181749 -1.2244e-20)
(-0.0137857 0.016423 1.46695e-21)
(-0.0128494 0.013255 1.53941e-20)
(-0.00972277 0.00941432 -2.89762e-21)
(-0.00444945 0.00562884 1.9004e-20)
(0.00271121 0.00257561 -4.65431e-22)
(0.012662 0.00133265 -7.98344e-21)
(-0.00267826 0.0072723 9.21207e-21)
(-0.0066859 0.0154334 -1.83074e-20)
(-0.00991032 0.0190781 -7.6435e-21)
(-0.0114148 0.019366 9.29363e-21)
(-0.0107783 0.0172366 3.66279e-22)
(-0.00772414 0.0135595 -2.89764e-20)
(-0.00209924 0.00916926 -1.7779e-21)
(0.00599409 0.00489327 -1.51556e-20)
(0.0162652 0.00152203 -1.98663e-20)
(0.0298537 0.000484902 1.17396e-20)
(-0.00307392 0.00772195 -5.15579e-21)
(-0.0071203 0.0162308 2.72633e-21)
(-0.00955598 0.0198927 7.10698e-21)
(-0.00964487 0.0199422 -6.7382e-21)
(-0.00705002 0.0174015 -2.42385e-20)
(-0.00156319 0.0132163 8.55933e-21)
(0.00691634 0.00829989 1.23553e-21)
(0.0182236 0.00356816 2.28508e-20)
(0.0320218 -5.09246e-05 3.04637e-20)
(0.0497807 -0.000730247 -1.38614e-20)
(-0.00344246 0.00800068 8.32733e-21)
(-0.00741559 0.0166124 8.33245e-21)
(-0.00888137 0.0201401 -1.21162e-21)
(-0.00731961 0.0198679 3.33791e-20)
(-0.00248484 0.0168864 1.47552e-20)
(0.00575632 0.0122031 1.14201e-20)
(0.0174475 0.00679493 1.6547e-20)
(0.0323592 0.00165381 -7.38781e-21)
(0.0500964 -0.0021545 -1.01801e-20)
(0.0725384 -0.00229687 -1.69561e-20)
(-0.00375952 0.00810048 -6.18145e-22)
(-0.00750841 0.0165593 -1.3255e-20)
(-0.00779375 0.0197976 -9.9883e-21)
(-0.00432444 0.0191226 -1.65894e-20)
(0.00304693 0.0156792 -1.35175e-20)
(0.0143726 0.0105206 1.42522e-20)
(0.0296343 0.0046701 -1.39523e-20)
(0.0485354 -0.0008229 -9.81018e-21)
(0.0706152 -0.0047659 1.33504e-21)
(0.0982406 -0.0041905 4.38484e-21)
(-0.00399901 0.00801597 -2.35128e-20)
(-0.00733071 0.0160601 1.22267e-20)
(-0.00619288 0.0188542 9.25291e-21)
(-0.000534757 0.0177018 6.56835e-21)
(0.0096873 0.0137874 -1.22767e-20)
(0.0244381 0.00819378 -1.05642e-20)
(0.0436315 0.00197114 1.57688e-20)
(0.0669008 -0.00379975 -1.3181e-20)
(0.0937134 -0.00782206 -9.37492e-22)
(0.127009 -0.00635616 -1.4168e-20)
(-0.00413323 0.00774463 2.00656e-20)
(-0.00681026 0.0151114 8.91141e-21)
(-0.00397224 0.0173111 4.68721e-22)
(0.00418242 0.0156167 -1.19735e-20)
(0.0175886 0.0112385 7.34144e-22)
(0.0361174 0.00527277 1.42129e-20)
(0.0596076 -0.00122429 -4.10342e-21)
(0.0876166 -0.00717353 -5.10479e-21)
(0.119535 -0.0112139 -1.15301e-20)
(0.158962 -0.00870213 2.12974e-20)
(-0.00413333 0.00728657 1.41109e-20)
(-0.00587158 0.0137169 -2.43478e-20)
(-0.00102055 0.0151813 -1.95464e-20)
(0.00996611 0.0128943 8.86286e-21)
(0.0269106 0.00807884 1.84715e-20)
(0.0495844 0.00183115 1.61886e-20)
(0.0777414 -0.00480707 -1.74464e-20)
(0.110854 -0.0107972 3.42701e-20)
(0.14823 -0.0147762 -1.0634e-20)
(0.194208 -0.011089 -2.54153e-20)
(-0.00396924 0.00664443 -2.07745e-20)
(-0.0044371 0.0118885 1.36605e-20)
(0.00277609 0.01249 -7.01594e-21)
(0.0169582 0.00957625 8.32651e-22)
(0.0378166 0.0043722 8.04737e-21)
(0.0650177 -0.00203702 -2.54425e-20)
(0.098219 -0.00864047 2.28822e-20)
(0.136795 -0.0144811 -2.29243e-20)
(0.179957 -0.018279 3.6907e-20)
(0.232839 -0.0133188 1.32794e-20)
(-0.00361014 0.00582371 4.70568e-21)
(-0.00242844 0.00964636 2.71656e-20)
(0.00753144 0.00927401 -7.34576e-21)
(0.0252992 0.00571829 7.45421e-21)
(0.0504676 0.000196731 9.09441e-21)
(0.082594 -0.00622264 -2.9098e-21)
(0.121227 -0.0125684 2.011e-20)
(0.165624 -0.0180004 1.21198e-21)
(0.214889 -0.0214255 -2.33661e-20)
(0.274933 -0.0151275 3.21473e-20)
(-0.00302503 0.0048331 -1.2271e-20)
(0.000231772 0.00701873 -2.60702e-20)
(0.0133558 0.00558183 2.33923e-20)
(0.0351233 0.00138892 1.23036e-20)
(0.0650149 -0.00435804 -5.76733e-20)
(0.102479 -0.0106089 4.84308e-20)
(0.146943 -0.0164284 -4.42153e-20)
(0.197527 -0.0211119 9.03965e-22)
(0.253211 -0.0238441 -1.00699e-20)
(0.320546 -0.0161215 -2.9695e-20)
(-0.00218342 0.00368477 1.10537e-20)
(0.00361774 0.00404306 -1.83207e-21)
(0.0203523 0.00147419 -5.74124e-21)
(0.0465519 -0.00333109 -5.86303e-22)
(0.0815912 -0.00919445 -4.02234e-21)
(0.124814 -0.0150802 -1.51947e-20)
(0.175522 -0.020073 6.35286e-21)
(0.232676 -0.0235782 -1.07469e-20)
(0.295092 -0.0250228 3.47082e-21)
(0.369564 -0.0155044 1.73462e-21)
(-0.00105625 0.00239491 -2.26929e-20)
(0.00779815 0.0007665 -2.00478e-21)
(0.0286125 -0.00297549 2.88673e-21)
(0.059687 -0.00834858 1.31798e-21)
(0.1003 -0.0142089 1.91718e-20)
(0.149704 -0.0195339 -5.78309e-20)
(0.207087 -0.0234044 3.93496e-20)
(0.271276 -0.0252312 -3.02311e-20)
(0.340818 -0.024308 2.51346e-20)
(0.421536 -0.0119375 2.66446e-20)
(0.000383152 0.000984038 -2.90696e-21)
(0.0128338 -0.00275342 1.36036e-20)
(0.0382124 -0.00767992 -1.75532e-20)
(0.0746041 -0.0135563 -5.65026e-21)
(0.1212 -0.0192909 1.13272e-20)
(0.177184 -0.023887 5.54192e-20)
(0.241687 -0.0264185 -1.1153e-20)
(0.313601 -0.0261361 5.47212e-21)
(0.39147 -0.0215645 -3.00129e-20)
(0.477762 -0.00563247 1.46492e-20)
(0.00215819 -0.000522724 -8.66013e-21)
(0.0187755 -0.00644818 -7.21111e-21)
(0.0492096 -0.0125364 1.99508e-21)
(0.0913461 -0.0188287 7.21933e-21)
(0.144295 -0.0243133 -2.22042e-20)
(0.207181 -0.0280585 -9.15755e-21)
(0.279141 -0.0291907 -2.95484e-20)
(0.359462 -0.026778 3.02994e-20)
(0.448205 -0.0185548 3.31382e-20)
(0.548222 -0.00252136 -1.22228e-20)
(0.00428836 -0.00209574 -4.32796e-21)
(0.0256631 -0.0102382 1.80889e-20)
(0.0616415 -0.0174254 -2.04945e-20)
(0.109923 -0.0240172 -2.56701e-21)
(0.169527 -0.0291155 -1.04466e-20)
(0.239505 -0.0319117 2.29105e-20)
(0.318951 -0.0317087 2.98338e-20)
(0.407337 -0.0277852 -2.93268e-20)
(0.505398 -0.018733 3.28208e-20)
(0.612846 -0.00949765 5.38518e-21)
(0.006789 -0.00370133 -1.24492e-20)
(0.0335248 -0.0140335 -3.66332e-20)
(0.0755263 -0.0222111 3.69866e-20)
(0.130317 -0.0289475 5.44274e-21)
(0.196805 -0.0334919 7.96426e-21)
(0.27392 -0.0352077 5.3521e-21)
(0.360609 -0.0336585 2.31981e-20)
(0.456176 -0.0285126 1.7271e-20)
(0.561056 -0.0192708 -6.32982e-20)
(0.671623 -0.0143833 -3.24333e-20)
(0.0423772 -0.0177357 9.01948e-21)
(0.0908646 -0.026744 -2.12178e-20)
(0.152487 -0.0334255 4.08736e-21)
(0.226016 -0.0372038 6.84008e-21)
(0.310201 -0.0376465 -5.0508e-20)
(0.403735 -0.0346016 2.31512e-20)
(0.505518 -0.0281178 -1.56448e-20)
(0.615212 -0.0182699 1.69309e-20)
(0.727044 -0.0148829 -6.74703e-21)
(0.107639 -0.0308658 -1.17647e-21)
(0.176373 -0.0372461 -5.91504e-21)
(0.257033 -0.0400013 6.68331e-23)
(0.348136 -0.0389215 2.17758e-22)
(0.448047 -0.0341373 -3.50005e-20)
(0.555146 -0.0260272 4.87399e-21)
(0.668229 -0.0150356 4.66e-20)
(0.780444 -0.0113641 2.22013e-20)
(0.125816 -0.0344142 3.62443e-20)
(0.201894 -0.0402024 8.83113e-22)
(0.289711 -0.0416391 -1.62017e-20)
(0.387514 -0.0387503 4.40973e-20)
(0.493287 -0.0319418 1.0015e-20)
(0.604863 -0.0218793 7.82194e-22)
(0.720228 -0.00927583 -2.02378e-20)
(0.832102 -0.00417565 -2.82783e-20)
(0.228945 -0.0420933 -1.57221e-20)
(0.323885 -0.0418885 2.60117e-20)
(0.428104 -0.0368879 -1.30951e-20)
(0.539184 -0.0277685 -1.52331e-20)
(0.654426 -0.0154578 -3.54165e-21)
(0.771104 -0.00089421 -1.19485e-20)
(0.881906 0.00632075 1.38338e-20)
(0.359358 -0.0405452 1.43996e-20)
(0.469647 -0.0331332 -4.89167e-20)
(0.585437 -0.0214452 3.24337e-20)
(0.703535 -0.00666042 -1.5141e-20)
(0.820624 0.0100651 2.39529e-20)
(0.929594 0.0197183 6.83241e-21)
(0.631711 -0.0128676 -8.21626e-21)
(0.751845 0.00452562 7.27325e-21)
(0.868475 0.0234676 -1.83312e-20)
(0.974844 0.0356058 -1.96783e-20)
(0.798982 0.0180445 -2.32151e-20)
(0.914309 0.0391234 4.39835e-22)
(1.01733 0.0535852 1.37794e-20)
(0.957773 0.0568068 1.84494e-20)
(1.05674 0.0732766 -8.21462e-21)
(-0.000760231 -0.000601242 -3.61844e-22)
(-0.00384225 -0.00130988 1.15852e-21)
(-0.00929042 -0.00165784 1.42756e-21)
(-0.0390192 0.000325983 1.58971e-22)
(-0.0399077 -6.97441e-05 -3.78568e-22)
(-0.0387011 -0.00051503 2.92218e-23)
(-0.0354695 -0.000996445 1.65085e-22)
(-0.0298126 -0.00146641 -2.07804e-24)
(-0.0216675 -0.00189125 2.69331e-23)
(-0.0110836 -0.00225417 2.2483e-23)
(0.00180832 -0.00254728 -1.64517e-22)
(0.0168173 -0.00277073 6.24048e-23)
(0.0337272 -0.00292925 -1.47181e-22)
(0.0523129 -0.00303004 1.28065e-22)
(0.0723535 -0.0030811 -1.35192e-22)
(0.093638 -0.00309031 4.53295e-23)
(0.11597 -0.00306494 2.69202e-23)
(0.139164 -0.00301141 -5.31763e-23)
(0.163054 -0.00293528 -3.75825e-23)
(0.187475 -0.00284144 -2.97679e-23)
(0.212301 -0.00273374 1.04901e-23)
(0.237359 -0.00261622 1.15706e-23)
(0.262603 -0.0024907 5.86416e-24)
(0.287766 -0.00236217 -3.35663e-23)
(0.313044 -0.00222781 4.54858e-24)
(0.337771 -0.00209958 -1.36603e-23)
(0.362937 -0.00195914 5.48337e-24)
(0.386482 -0.00184651 -1.08025e-23)
(0.411977 -0.00168959 2.36803e-24)
(0.432783 -0.00162475 6.25338e-24)
(0.460672 -0.00141018 -3.81285e-25)
(0.474703 -0.00145728 4.98022e-24)
(0.51101 -0.00113128 9.26097e-24)
(-0.036347 0.000951247 3.02809e-22)
(-0.0371539 -0.000241644 7.77546e-22)
(-0.0357491 -0.00157153 -1.15566e-21)
(-0.0323472 -0.00300997 3.05005e-22)
(-0.0265433 -0.00441334 1.57474e-22)
(-0.0182841 -0.00568101 -5.86187e-22)
(-0.00762547 -0.00676332 9.31306e-22)
(0.00530139 -0.00763704 -7.84428e-22)
(0.020308 -0.00830288 -2.22665e-23)
(0.0371827 -0.00877509 4.28599e-22)
(0.0557058 -0.00907514 -6.28271e-23)
(0.075662 -0.00922689 -1.25789e-22)
(0.0968452 -0.00925384 -9.43291e-23)
(0.119063 -0.00917754 1.51153e-22)
(0.142134 -0.00901721 2.71498e-23)
(0.165896 -0.00878933 1.47996e-22)
(0.190184 -0.00850853 -8.49221e-23)
(0.214875 -0.00818628 4.43013e-23)
(0.239799 -0.00783464 1.633e-23)
(0.264909 -0.00745904 -4.9152e-23)
(0.289941 -0.00707442 -6.12465e-23)
(0.315089 -0.00667227 5.03944e-24)
(0.339691 -0.00628853 -2.74859e-24)
(0.364734 -0.00586812 2.54485e-23)
(0.388162 -0.00553107 -2.56486e-24)
(0.41354 -0.00506116 -6.95468e-25)
(0.434244 -0.0048673 -3.69775e-24)
(0.462017 -0.00422458 -1.57891e-24)
(0.47597 -0.00436597 2.05185e-24)
(0.512143 -0.0033902 -1.08967e-23)
(-0.0309944 0.0015001 1.88414e-21)
(-0.0316405 -0.0005091 -1.70446e-21)
(-0.0298414 -0.00270669 5.0891e-22)
(-0.026103 -0.00508469 -1.88712e-21)
(-0.0200088 -0.00740186 8.08377e-22)
(-0.0115255 -0.00949188 1.85565e-21)
(-0.000721641 -0.0112743 9.4079e-23)
(0.0122712 -0.0127119 -1.27326e-21)
(0.0272696 -0.0138068 5.34903e-23)
(0.0440714 -0.0145827 3.5423e-22)
(0.0624677 -0.0150752 -2.92271e-22)
(0.0822539 -0.0153235 1.29785e-22)
(0.103234 -0.0153661 3.41065e-22)
(0.125224 -0.0152384 2.06908e-22)
(0.14805 -0.014972 -8.15156e-23)
(0.171554 -0.014594 -4.22595e-22)
(0.195578 -0.0141284 2.29535e-22)
(0.220002 -0.0135941 -2.25679e-22)
(0.244657 -0.0130111 1.50068e-22)
(0.269502 -0.0123883 -7.43165e-23)
(0.294271 -0.0117505 1.79592e-22)
(0.319163 -0.0110834 1.21833e-23)
(0.343516 -0.0104469 -8.09554e-24)
(0.368313 -0.00974914 -3.47011e-23)
(0.391511 -0.00919022 -1.93259e-24)
(0.416655 -0.00840983 -2.9864e-23)
(0.437155 -0.00808899 4.04993e-24)
(0.464697 -0.0070211 2.73048e-24)
(0.478497 -0.00725715 -8.49251e-24)
(0.514401 -0.00563823 -7.04825e-24)
(-0.0229433 0.00193238 -2.59349e-21)
(-0.0233571 -0.000932518 1.34537e-21)
(-0.020971 -0.00397069 -1.49898e-21)
(-0.0167365 -0.00725891 1.60139e-21)
(-0.010217 -0.0104572 -1.92468e-21)
(-0.00140809 -0.0133357 -1.63437e-22)
(0.00960298 -0.0157862 2.18742e-21)
(0.022685 -0.0177603 -1.18654e-22)
(0.0376631 -0.0192623 -7.39989e-22)
(0.0543493 -0.0203258 7.6197e-24)
(0.072551 -0.0209997 -2.3926e-23)
(0.0920797 -0.0213379 4.4266e-22)
(0.112754 -0.0213929 -7.23814e-23)
(0.134402 -0.0212134 -7.65507e-22)
(0.156861 -0.0208422 5.14784e-22)
(0.179981 -0.0203168 -1.06124e-22)
(0.203611 -0.01967 6.75427e-23)
(0.227636 -0.0189279 1.59e-23)
(0.251893 -0.0181181 -6.96085e-23)
(0.276342 -0.0172527 1.43333e-23)
(0.300722 -0.0163665 6.17494e-23)
(0.325231 -0.0154391 2.20835e-23)
(0.349213 -0.0145545 -1.49516e-23)
(0.373647 -0.0135839 -3.99558e-24)
(0.396501 -0.0128073 4.69774e-23)
(0.421299 -0.0117206 1.26873e-23)
(0.441496 -0.0112761 -4.56116e-24)
(0.468694 -0.00978799 3.59941e-24)
(0.482269 -0.0101193 -5.98252e-24)
(0.517772 -0.00786816 3.01512e-23)
(-0.0121662 0.0021843 5.42391e-21)
(-0.012289 -0.00156151 -1.73199e-21)
(-0.00912549 -0.00540743 2.03713e-21)
(-0.00424614 -0.00956685 -1.43221e-22)
(0.00282122 -0.0136008 -1.84631e-21)
(0.012044 -0.0172206 9.74449e-22)
(0.0233114 -0.0202953 1.62095e-22)
(0.0364943 -0.0227683 -1.21407e-21)
(0.0514301 -0.0246476 -6.63527e-23)
(0.0679505 -0.0259768 6.23835e-22)
(0.0858847 -0.0268174 -3.90622e-22)
(0.105065 -0.0272367 -6.75431e-23)
(0.125329 -0.0273003 4.04609e-22)
(0.146522 -0.0270683 -1.67069e-22)
(0.168493 -0.0265945 4.40297e-23)
(0.191104 -0.0259255 -3.20708e-22)
(0.214214 -0.0251027 1.41968e-22)
(0.237712 -0.0241588 4.89096e-23)
(0.261443 -0.0231286 6.60903e-24)
(0.28537 -0.0220274 -3.3555e-24)
(0.309237 -0.0208994 -2.92696e-22)
(0.333243 -0.0197182 -2.42748e-23)
(0.356738 -0.0185919 -1.71152e-23)
(0.380693 -0.0173544 6.22545e-23)
(0.403096 -0.0163659 -5.40889e-23)
(0.427438 -0.0149788 -4.28707e-24)
(0.447237 -0.0144153 3.13091e-23)
(0.473983 -0.0125138 1.23026e-23)
(0.487261 -0.0129411 2.55925e-23)
(0.522238 -0.0100728 -1.52957e-23)
(0.00136382 0.00206987 1.27301e-21)
(0.00160176 -0.00239059 1.76572e-22)
(0.00571087 -0.00704989 -3.25459e-22)
(0.0113715 -0.012037 -1.09861e-21)
(0.0190927 -0.0168488 4.5914e-21)
(0.0287995 -0.02115 -1.40692e-21)
(0.0403547 -0.0247935 -9.49382e-22)
(0.0536342 -0.0277185 -6.73857e-22)
(0.0684931 -0.0299384 1.09909e-21)
(0.0847881 -0.0315066 2.59087e-22)
(0.102375 -0.0324964 -5.14423e-22)
(0.121113 -0.0329866 -5.71751e-22)
(0.140862 -0.0330541 3.3519e-22)
(0.161485 -0.0327696 -1.36547e-22)
(0.18285 -0.0321963 2.08307e-22)
(0.204831 -0.0313891 1.26686e-22)
(0.227295 -0.0303971 -1.15017e-22)
(0.250144 -0.029259 1.98171e-22)
(0.273226 -0.0280166 -3.58571e-22)
(0.29651 -0.0266879 -3.69937e-23)
(0.319747 -0.0253266 -3.94063e-23)
(0.343133 -0.0239 -2.77222e-23)
(0.366029 -0.02254 1.12384e-22)
(0.389396 -0.0210435 -6.9377e-23)
(0.411245 -0.0198505 -8.19135e-23)
(0.435027 -0.0181701 -5.66352e-23)
(0.454337 -0.0174935 -4.08637e-23)
(0.480529 -0.0151873 2.71896e-24)
(0.493444 -0.0157116 -1.89691e-23)
(0.527772 -0.0122452 -4.42164e-24)
(0.0176691 0.00168164 -3.17836e-22)
(0.0184269 -0.00349052 -1.40089e-21)
(0.0235416 -0.00894071 2.31634e-21)
(0.0301217 -0.0146921 -3.4313e-21)
(0.0385828 -0.020211 3.22679e-22)
(0.0488202 -0.0251212 1.48341e-21)
(0.0606721 -0.0292673 2.52238e-24)
(0.0740244 -0.032589 -2.1328e-21)
(0.0887559 -0.035107 2.47736e-21)
(0.104754 -0.0368841 -1.35419e-21)
(0.121907 -0.0380033 1.09943e-21)
(0.140103 -0.0385534 8.3192e-22)
(0.159229 -0.0386207 -7.48228e-22)
(0.17917 -0.0382844 -6.26751e-22)
(0.199812 -0.0376159 1.11108e-22)
(0.221044 -0.0366772 -1.7823e-22)
(0.242745 -0.0355244 -6.62865e-23)
(0.264826 -0.0342016 -9.20143e-23)
(0.287142 -0.0327571 -1.29989e-22)
(0.30967 -0.0312111 2.72037e-22)
(0.332163 -0.0296268 1.80395e-22)
(0.354821 -0.0279647 -1.28428e-23)
(0.377013 -0.0263808 -9.10223e-23)
(0.399688 -0.0246346 1.92791e-22)
(0.420887 -0.0232458 1.2187e-23)
(0.44401 -0.0212812 4.93633e-23)
(0.462749 -0.0204983 -5.80576e-23)
(0.488287 -0.0177979 -4.76418e-24)
(0.50078 -0.0184203 5.72782e-24)
(0.534344 -0.0143784 1.43842e-23)
(0.0368339 0.00115017 4.35485e-21)
(0.0381813 -0.00495178 -1.01389e-22)
(0.0444236 -0.0111045 1.00686e-21)
(0.0520195 -0.0175455 -5.74801e-22)
(0.0612764 -0.0236884 3.90915e-22)
(0.0720612 -0.0291231 2.92266e-21)
(0.0841908 -0.0336965 -1.94431e-21)
(0.0975684 -0.0373532 -1.79267e-21)
(0.112103 -0.0401226 -1.57496e-22)
(0.12772 -0.0420758 -2.82061e-22)
(0.144343 -0.0433039 1.69328e-21)
(0.161893 -0.0439031 -1.17764e-21)
(0.180287 -0.0439665 5.76925e-22)
(0.199435 -0.0435803 -1.07096e-21)
(0.21924 -0.0428224 -3.18051e-22)
(0.239609 -0.0417608 6.13775e-22)
(0.260434 -0.0404574 2.47762e-22)
(0.281634 -0.0389612 5.03728e-23)
(0.303076 -0.0373264 1.88759e-22)
(0.324739 -0.0355751 -1.26018e-22)
(0.346385 -0.0337797 -3.06978e-22)
(0.368213 -0.0318937 1.89314e-22)
(0.389603 -0.0300973 8.8053e-23)
(0.411491 -0.0281121 -1.42185e-22)
(0.43195 -0.0265377 1.56733e-22)
(0.454326 -0.024299 4.02428e-23)
(0.472415 -0.0234179 2.53217e-23)
(0.49721 -0.0203355 5.31904e-24)
(0.509224 -0.0210571 -1.22102e-23)
(0.541918 -0.0164656 -4.51131e-23)
(0.0589343 0.000340482 -2.86597e-21)
(0.0609277 -0.00674355 2.9718e-21)
(0.0684067 -0.0135477 4.21851e-22)
(0.0770839 -0.0205999 -1.69559e-21)
(0.0871575 -0.0272711 -2.36175e-21)
(0.0984698 -0.0331357 1.09681e-21)
(0.110825 -0.0380531 1.05516e-22)
(0.124153 -0.0419784 -2.11443e-21)
(0.138401 -0.0449502 -3.77851e-22)
(0.153537 -0.0470463 1.45689e-21)
(0.169524 -0.0483631 1.3493e-22)
(0.186321 -0.0490013 3.93098e-22)
(0.203873 -0.0490588 -5.71911e-22)
(0.222116 -0.0486263 1.11375e-21)
(0.240975 -0.0477866 -4.01233e-22)
(0.260372 -0.0466123 -6.72964e-22)
(0.280214 -0.0451704 5.81254e-22)
(0.30043 -0.0435138 4.63018e-22)
(0.320895 -0.0417023 -3.98805e-22)
(0.341594 -0.0397593 -7.69046e-23)
(0.362297 -0.0377664 4.25831e-23)
(0.383202 -0.0356697 -3.45494e-23)
(0.403702 -0.0336734 -5.83807e-23)
(0.424715 -0.0314614 1.59279e-22)
(0.444355 -0.0297129 -1.07937e-22)
(0.465899 -0.0272115 -1.0209e-22)
(0.48327 -0.0262411 -8.40284e-24)
(0.507239 -0.0227905 8.20395e-25)
(0.518727 -0.0236126 1.07923e-23)
(0.550451 -0.0185002 -4.46162e-23)
(0.0840537 -0.0007716 2.16827e-21)
(0.08676 -0.00886202 2.29098e-21)
(0.0955507 -0.0162708 -3.38348e-21)
(0.10534 -0.0238454 -1.92449e-21)
(0.116208 -0.0309371 4.58836e-21)
(0.127984 -0.0371275 7.16052e-22)
(0.140475 -0.0423008 -2.47558e-21)
(0.153647 -0.046426 1.63331e-21)
(0.167497 -0.0495509 -1.43269e-21)
(0.182037 -0.0517576 1.01288e-21)
(0.197275 -0.0531445 3.34334e-22)
(0.213205 -0.0538139 7.96878e-22)
(0.229805 -0.0538655 -4.29206e-22)
(0.247036 -0.0533925 -6.23246e-22)
(0.264843 -0.0524806 7.02516e-22)
(0.283166 -0.051206 1.68097e-22)
(0.301925 -0.0496396 -4.83755e-22)
(0.32106 -0.0478374 4.22928e-22)
(0.340454 -0.0458645 -1.48872e-22)
(0.3601 -0.0437451 3.03934e-22)
(0.379773 -0.0415697 2.15611e-22)
(0.399671 -0.0392767 4.6601e-23)
(0.4192 -0.0370946 -2.71978e-22)
(0.439263 -0.0346692 8.77787e-23)
(0.45801 -0.0327591 4.69974e-23)
(0.47865 -0.0300079 6.9142e-23)
(0.495242 -0.0289578 9.03574e-23)
(0.518311 -0.0251543 -2.17371e-23)
(0.529232 -0.026078 -4.1966e-23)
(0.559898 -0.020476 6.44649e-23)
(0.112289 -0.00217144 3.32892e-21)
(0.115792 -0.0113016 2.68008e-21)
(0.125932 -0.0192623 -7.83247e-21)
(0.13682 -0.0272575 -3.08049e-21)
(0.148407 -0.0346498 9.67458e-21)
(0.160531 -0.0410552 -8.30379e-21)
(0.173022 -0.0463935 3.93412e-21)
(0.185902 -0.0506506 1.72729e-21)
(0.199218 -0.0538818 -7.4158e-22)
(0.213033 -0.0561699 2.0791e-22)
(0.227399 -0.0576115 -1.28141e-21)
(0.242347 -0.0583073 1.12032e-21)
(0.257884 -0.0583558 1.02107e-21)
(0.273997 -0.0578505 -1.1938e-21)
(0.290653 -0.0568786 4.5104e-22)
(0.307806 -0.055518 -3.62938e-23)
(0.325391 -0.053843 8.37394e-22)
(0.343358 -0.0519119 6.31836e-22)
(0.361598 -0.0497945 -1.76985e-22)
(0.38011 -0.0475154 7.05557e-23)
(0.398677 -0.0451739 3.44458e-23)
(0.417494 -0.0427004 -4.17833e-22)
(0.435984 -0.0403478 2.0822e-22)
(0.455027 -0.0377234 -2.68575e-22)
(0.47282 -0.0356652 9.80043e-24)
(0.492493 -0.0326779 -2.8815e-23)
(0.508253 -0.0315586 -2.83146e-23)
(0.530358 -0.0274187 -7.66254e-25)
(0.540679 -0.0284453 6.71573e-23)
(0.570207 -0.0223867 1.75475e-23)
(0.143753 -0.0038425 -1.08617e-21)
(0.148161 -0.014045 8.54894e-21)
(0.159646 -0.0224938 -2.969e-21)
(0.171557 -0.0307936 -1.00139e-20)
(0.183722 -0.0383559 1.27102e-20)
(0.196018 -0.0448618 -5.75375e-21)
(0.208331 -0.0502758 2.32616e-22)
(0.220746 -0.054601 -4.74797e-21)
(0.23337 -0.0578965 2.46176e-21)
(0.246318 -0.0602417 1.16898e-21)
(0.259682 -0.0617274 -2.26704e-21)
(0.27353 -0.0624486 7.99752e-22)
(0.287896 -0.0625004 1.16275e-23)
(0.302792 -0.0619741 1.1602e-22)
(0.318202 -0.0609566 -9.5399e-22)
(0.334099 -0.0595269 7.93258e-22)
(0.350428 -0.0577611 2.86779e-22)
(0.367148 -0.0557195 -7.08442e-22)
(0.384161 -0.0534759 -5.14815e-22)
(0.401469 -0.0510551 1.28161e-22)
(0.418863 -0.0485653 3.37267e-22)
(0.436537 -0.0459281 -2.72416e-22)
(0.453928 -0.0434213 2.43107e-22)
(0.471894 -0.0406133 -2.20765e-24)
(0.488681 -0.0384214 -4.59905e-23)
(0.507333 -0.0352128 -5.60275e-23)
(0.522219 -0.034035 6.50724e-23)
(0.543305 -0.0295767 6.91758e-24)
(0.553002 -0.0307072 -3.8921e-24)
(0.581325 -0.0242267 -2.06013e-23)
(0.178569 -0.00577094 1.43052e-20)
(0.184035 -0.0170641 -1.40979e-23)
(0.196805 -0.0259186 -1.36038e-20)
(0.209584 -0.034391 1.17393e-20)
(0.222105 -0.041984 4.63878e-22)
(0.234333 -0.0484764 -4.13272e-21)
(0.246239 -0.0538827 3.10285e-21)
(0.257986 -0.0582201 2.04335e-21)
(0.26974 -0.0615461 -1.8007e-21)
(0.281666 -0.0639312 -2.92118e-21)
(0.293895 -0.065456 8.52381e-22)
(0.306524 -0.0662067 5.88784e-23)
(0.319615 -0.0662721 -4.25183e-22)
(0.333199 -0.0657393 7.61261e-22)
(0.347279 -0.0646937 -4.32109e-22)
(0.36184 -0.0632136 4.27492e-22)
(0.37684 -0.0613768 -2.33861e-22)
(0.392248 -0.0592445 6.10391e-22)
(0.407971 -0.0568947 1.72098e-22)
(0.424016 -0.0543515 -2.25495e-22)
(0.440182 -0.051732 -4.66603e-22)
(0.456661 -0.048949 2.76671e-22)
(0.472904 -0.046305 -1.41917e-22)
(0.489747 -0.0433298 -8.77478e-24)
(0.505487 -0.0410193 9.52556e-23)
(0.523074 -0.0376047 -2.89209e-23)
(0.537054 -0.0363798 -6.70184e-23)
(0.557077 -0.031622 -1.75582e-24)
(0.566133 -0.0328573 -2.79086e-23)
(0.593193 -0.0259905 7.5943e-23)
(0.216885 -0.0079478 3.09144e-21)
(0.223621 -0.0203223 -3.77256e-21)
(0.237536 -0.0294682 5.64134e-21)
(0.250919 -0.0379625 2.01019e-21)
(0.263482 -0.0454423 2.0119e-21)
(0.27533 -0.051814 -3.20769e-21)
(0.286555 -0.057141 -4.82027e-21)
(0.2974 -0.0614468 3.89175e-21)
(0.308092 -0.0647801 2.82215e-21)
(0.318834 -0.0671968 -4.94421e-21)
(0.329791 -0.068763 5.67512e-22)
(0.341086 -0.0695529 1.25092e-21)
(0.352803 -0.0696465 -7.97451e-22)
(0.364989 -0.0691253 2.19758e-21)
(0.377662 -0.0680715 -8.82623e-22)
(0.39082 -0.0665622 -6.22719e-23)
(0.40443 -0.0646759 9.72278e-23)
(0.418467 -0.0624745 4.82289e-22)
(0.432849 -0.0600393 -2.85063e-22)
(0.447583 -0.0573941 5.61159e-22)
(0.462479 -0.0546644 -5.30812e-22)
(0.477721 -0.0517543 -1.10834e-22)
(0.49278 -0.0489909 -1.59108e-22)
(0.508463 -0.0458653 7.57311e-23)
(0.523125 -0.0434517 -9.95103e-23)
(0.539616 -0.0398474 1.46177e-22)
(0.552666 -0.0385867 5.94081e-23)
(0.571591 -0.0335493 -2.11134e-23)
(0.579999 -0.03489 1.61817e-23)
(0.605751 -0.027673 -6.77818e-23)
(0.258877 -0.0103819 -5.47115e-21)
(0.267177 -0.0237749 7.28541e-21)
(0.281977 -0.0330443 2.3656e-22)
(0.295554 -0.0413904 -3.37335e-21)
(0.307739 -0.0486168 4.73368e-21)
(0.318827 -0.054776 -1.1294e-21)
(0.329053 -0.0599701 2.92744e-22)
(0.338742 -0.064217 4.36184e-21)
(0.348166 -0.0675478 -6.98731e-21)
(0.35756 -0.0699983 5.72257e-21)
(0.367113 -0.0716161 -2.03445e-21)
(0.376965 -0.072461 -1.8802e-21)
(0.387215 -0.0726021 3.09812e-22)
(0.397926 -0.0721141 -2.2208e-22)
(0.409126 -0.0710748 8.50525e-22)
(0.420823 -0.0695596 4.26578e-22)
(0.432992 -0.0676469 -1.39402e-21)
(0.445615 -0.065399 -9.34183e-23)
(0.458615 -0.0629006 9.22962e-22)
(0.472004 -0.0601744 -4.30361e-22)
(0.485596 -0.0573549 4.12723e-22)
(0.499572 -0.0543368 4.01522e-23)
(0.51342 -0.0514723 5.12154e-23)
(0.527919 -0.0482136 -1.07194e-22)
(0.541482 -0.0457128 5.65308e-23)
(0.556854 -0.0419355 -5.31345e-23)
(0.568962 -0.0406506 9.95023e-24)
(0.586766 -0.0353543 -1.70799e-23)
(0.594527 -0.0368007 -8.30089e-24)
(0.618935 -0.0292695 4.99926e-23)
(0.304791 -0.0131026 -8.41333e-22)
(0.315019 -0.0273503 -1.03639e-20)
(0.330259 -0.0365021 2.96238e-22)
(0.343431 -0.0445183 5.6958e-21)
(0.354701 -0.0513692 3.22029e-22)
(0.364586 -0.0572507 -5.16862e-22)
(0.373468 -0.062283 -2.0134e-21)
(0.381733 -0.0664638 5.42006e-21)
(0.389683 -0.0697977 -3.82042e-21)
(0.397569 -0.0722955 -5.48362e-22)
(0.40559 -0.0739838 3.34725e-21)
(0.413898 -0.0749056 -2.52318e-21)
(0.422601 -0.0751184 -3.3159e-22)
(0.431771 -0.0746886 1.49938e-21)
(0.441443 -0.0736895 1.46949e-21)
(0.451633 -0.0721936 -1.13467e-21)
(0.462322 -0.0702794 -1.69677e-22)
(0.473498 -0.0680089 3.61737e-22)
(0.485088 -0.0654704 -1.90948e-22)
(0.497107 -0.0626852 -1.89267e-22)
(0.509375 -0.0597969 9.71239e-23)
(0.522066 -0.0566905 -2.80539e-22)
(0.534688 -0.0537437 1.6356e-22)
(0.54799 -0.0503699 3.57082e-22)
(0.560443 -0.047798 -1.68409e-22)
(0.574685 -0.0438649 4.01541e-23)
(0.585848 -0.0425672 -3.28785e-24)
(0.602517 -0.0370335 1.03187e-23)
(0.609639 -0.0385855 -2.14302e-23)
(0.632681 -0.0307758 -4.71086e-23)
(0.355022 -0.016144 9.30029e-21)
(0.367531 -0.0309473 -7.89095e-21)
(0.382471 -0.0396538 9.60364e-21)
(0.394407 -0.0471578 -9.50248e-21)
(0.404117 -0.0535463 3.18667e-21)
(0.412315 -0.0591225 3.79793e-21)
(0.419492 -0.0639945 1.4081e-21)
(0.426067 -0.0681245 -2.02588e-21)
(0.432343 -0.0714832 -4.41152e-21)
(0.43857 -0.0740534 3.65658e-21)
(0.444945 -0.075839 -2.88712e-21)
(0.45162 -0.076866 4.56996e-21)
(0.458707 -0.0771789 -3.68883e-21)
(0.466281 -0.0768358 7.40818e-22)
(0.474383 -0.0759048 6.3055e-22)
(0.483033 -0.0744555 4.73255e-22)
(0.492217 -0.072566 -8.96872e-22)
(0.501925 -0.0702982 -2.53748e-22)
(0.51209 -0.0677434 5.37422e-22)
(0.522724 -0.0649219 2.07527e-22)
(0.533658 -0.0619863 -5.527e-22)
(0.545058 -0.0588119 2.42654e-22)
(0.55645 -0.0558019 -8.50905e-23)
(0.56855 -0.0523309 -1.07512e-22)
(0.579894 -0.0497044 1.70825e-22)
(0.593005 -0.0456329 1.61006e-23)
(0.603229 -0.0443338 6.0407e-24)
(0.618758 -0.0385847 -3.89222e-24)
(0.625259 -0.0402419 2.83236e-23)
(0.646924 -0.0321882 1.65584e-23)
(0.410258 -0.0197058 1.19686e-21)
(0.425136 -0.0345437 -9.88384e-21)
(0.438594 -0.0423054 -3.89495e-22)
(0.448213 -0.0491165 1.92582e-21)
(0.455635 -0.0550092 -5.87001e-21)
(0.461651 -0.0603 -9.19479e-22)
(0.466775 -0.0650476 3.94812e-21)
(0.47141 -0.069166 -3.14638e-23)
(0.47583 -0.0725877 5.4666e-21)
(0.480263 -0.0752668 -7.62896e-21)
(0.484893 -0.0771845 4.52575e-21)
(0.489862 -0.0783496 -2.89438e-21)
(0.49528 -0.0787943 1.87581e-21)
(0.501219 -0.0785679 -1.53735e-22)
(0.507723 -0.0777335 5.34018e-22)
(0.514812 -0.0763577 -3.15514e-22)
(0.522476 -0.0745185 1.5175e-22)
(0.530708 -0.0722772 -1.66251e-21)
(0.539442 -0.069729 7.27845e-22)
(0.548692 -0.0668924 -1.4566e-22)
(0.558293 -0.0639297 -2.52873e-22)
(0.568404 -0.060706 2.36429e-22)
(0.578571 -0.0576508 1.00847e-22)
(0.589476 -0.0540994 -1.37615e-22)
(0.599722 -0.0514341 1.48016e-22)
(0.61171 -0.0472402 -6.76586e-23)
(0.621009 -0.045951 -8.17966e-24)
(0.635407 -0.040007 -6.92102e-24)
(0.641311 -0.0417694 9.42867e-24)
(0.661595 -0.0335032 -1.69313e-23)
(0.471707 -0.0244605 -6.93626e-21)
(0.488233 -0.0379956 -1.37508e-21)
(0.498419 -0.0441103 5.62652e-21)
(0.504408 -0.0501369 -2.18007e-21)
(0.508794 -0.0556022 2.12408e-21)
(0.512166 -0.0606961 -4.44662e-21)
(0.514926 -0.0653994 6.97352e-21)
(0.517403 -0.0695753 -1.1153e-21)
(0.519813 -0.0731193 -2.46174e-21)
(0.522343 -0.0759585 5.01238e-21)
(0.525149 -0.078053 -3.01404e-21)
(0.528358 -0.0793956 2.55675e-21)
(0.532069 -0.0800068 -2.51905e-21)
(0.536349 -0.079928 -4.5773e-22)
(0.541241 -0.0792176 -4.02534e-22)
(0.546763 -0.0779399 1.89198e-21)
(0.552907 -0.0761731 -1.5287e-21)
(0.559665 -0.0739784 8.6856e-22)
(0.566975 -0.0714552 -5.35958e-22)
(0.574849 -0.0686205 5.71906e-22)