/*--------------------------------*- C++ -*----------------------------------*\
  =========                 |
  \\      /  F ield         | OpenFOAM: The Open Source CFD Toolbox
   \\    /   O peration     | Website:  https://openfoam.org
    \\  /    A nd           | Version:  7
     \\/     M anipulation  |
\*---------------------------------------------------------------------------*/
FoamFile
{
    version     2.0;
    format      ascii;
    class       volScalarField;
    location    "75";
    object      p;
}
// * * * * * * * * * * * * * * * * * * * * * * * * * * * * * * * * * * * * * //

dimensions      [0 2 -2 0 0 0 0];

internalField   nonuniform List<scalar> 
8500
(
-0.253274
-0.255214
-0.256124
-0.256855
-0.257477
-0.258012
-0.258487
-0.258917
-0.259277
-0.259624
-0.253471
-0.255374
-0.256262
-0.256973
-0.257575
-0.258091
-0.258548
-0.258962
-0.259309
-0.259641
-0.253854
-0.255699
-0.256555
-0.257234
-0.257802
-0.258283
-0.258704
-0.259084
-0.259397
-0.259674
-0.254415
-0.256185
-0.256996
-0.257629
-0.258149
-0.25858
-0.258947
-0.259271
-0.259529
-0.259705
-0.255144
-0.256824
-0.257578
-0.258151
-0.258607
-0.258972
-0.259265
-0.259511
-0.259689
-0.259702
-0.25603
-0.257605
-0.258291
-0.258791
-0.259169
-0.259449
-0.259645
-0.259787
-0.259864
-0.259628
-0.257062
-0.258522
-0.259127
-0.25954
-0.259822
-0.259998
-0.260075
-0.260081
-0.260041
-0.259438
-0.25823
-0.259563
-0.260078
-0.260388
-0.260557
-0.26061
-0.260543
-0.260378
-0.260211
-0.259069
-0.259523
-0.260723
-0.261135
-0.261327
-0.261366
-0.261278
-0.261043
-0.260666
-0.26038
-0.258439
-0.260934
-0.261995
-0.262291
-0.26235
-0.262241
-0.261993
-0.26157
-0.26094
-0.260562
-0.257542
-0.262459
-0.263374
-0.263541
-0.263451
-0.263178
-0.262753
-0.262125
-0.261196
-0.2607
-0.256634
-0.264097
-0.264859
-0.264884
-0.264626
-0.264171
-0.263556
-0.262713
-0.261472
-0.260696
-0.255565
-0.26585
-0.266453
-0.266318
-0.265874
-0.265219
-0.264399
-0.263333
-0.261823
-0.260692
-0.254205
-0.267726
-0.26816
-0.267848
-0.267195
-0.26632
-0.265283
-0.263984
-0.262214
-0.260765
-0.25261
-0.269739
-0.26999
-0.269478
-0.268591
-0.267474
-0.266206
-0.264668
-0.262655
-0.260896
-0.250909
-0.271907
-0.271958
-0.27122
-0.270069
-0.268683
-0.267163
-0.265378
-0.263167
-0.261015
-0.249303
-0.274257
-0.274085
-0.273087
-0.271641
-0.269954
-0.268156
-0.266097
-0.263762
-0.260974
-0.247965
-0.27682
-0.276395
-0.275102
-0.273323
-0.271298
-0.269191
-0.266819
-0.264461
-0.260547
-0.246803
-0.279635
-0.278913
-0.277298
-0.275141
-0.27274
-0.27029
-0.267565
-0.265314
-0.259678
-0.246123
-0.282755
-0.281682
-0.279702
-0.277128
-0.274311
-0.271485
-0.268375
-0.266288
-0.25888
-0.24981
-0.286231
-0.284743
-0.282354
-0.279324
-0.276057
-0.272818
-0.269292
-0.267122
-0.258696
-0.263841
-0.290113
-0.288149
-0.285303
-0.281779
-0.278028
-0.274339
-0.270371
-0.267708
-0.259212
-0.263044
-0.294465
-0.291945
-0.288595
-0.284545
-0.280281
-0.276098
-0.271644
-0.268152
-0.259752
-0.260272
-0.299345
-0.296181
-0.292282
-0.287676
-0.282871
-0.278139
-0.273116
-0.268621
-0.260061
-0.257535
-0.304811
-0.300905
-0.296416
-0.291223
-0.285844
-0.280493
-0.274777
-0.269144
-0.260079
-0.254679
-0.31091
-0.306165
-0.301045
-0.295236
-0.289237
-0.283175
-0.27661
-0.269689
-0.25974
-0.251836
-0.317686
-0.312001
-0.306215
-0.299757
-0.29307
-0.286176
-0.278578
-0.27019
-0.259031
-0.248934
-0.325168
-0.31845
-0.311966
-0.304815
-0.297346
-0.289471
-0.280616
-0.270559
-0.257942
-0.245909
-0.333374
-0.325538
-0.318326
-0.310425
-0.302053
-0.293004
-0.282629
-0.2707
-0.256464
-0.242689
-0.342304
-0.333277
-0.325311
-0.316581
-0.30715
-0.296686
-0.284504
-0.270526
-0.254583
-0.239211
-0.351937
-0.341663
-0.332913
-0.32325
-0.312564
-0.300391
-0.286114
-0.269956
-0.25228
-0.235416
-0.362226
-0.350669
-0.341094
-0.330365
-0.31818
-0.303965
-0.287336
-0.268918
-0.249527
-0.231254
-0.373096
-0.360239
-0.349787
-0.337826
-0.323841
-0.307236
-0.288052
-0.267346
-0.246288
-0.226674
-0.384435
-0.370283
-0.358881
-0.345485
-0.329348
-0.310028
-0.288149
-0.265176
-0.24252
-0.221628
-0.396096
-0.380672
-0.368229
-0.353146
-0.334476
-0.312169
-0.287523
-0.262343
-0.238175
-0.216065
-0.407893
-0.391235
-0.377636
-0.36057
-0.338989
-0.313491
-0.286072
-0.258782
-0.233198
-0.209937
-0.419598
-0.401762
-0.386865
-0.36748
-0.342648
-0.313838
-0.283702
-0.254426
-0.227533
-0.203193
-0.430948
-0.412
-0.395638
-0.373576
-0.34522
-0.313063
-0.280318
-0.249205
-0.221119
-0.195789
-0.441643
-0.421662
-0.40364
-0.378553
-0.346486
-0.31103
-0.275831
-0.243052
-0.213899
-0.187681
-0.451358
-0.430429
-0.41053
-0.38211
-0.346244
-0.307613
-0.270157
-0.235899
-0.205815
-0.178833
-0.459747
-0.437962
-0.415956
-0.383961
-0.34431
-0.302697
-0.263214
-0.22768
-0.196816
-0.169209
-0.466454
-0.443907
-0.419571
-0.383844
-0.340522
-0.296181
-0.254929
-0.218336
-0.186855
-0.158785
-0.471122
-0.447908
-0.421041
-0.381528
-0.334741
-0.287974
-0.245234
-0.207812
-0.175896
-0.147546
-0.473406
-0.449616
-0.420064
-0.376813
-0.326851
-0.278001
-0.234069
-0.196057
-0.163904
-0.135477
-0.47298
-0.448705
-0.416375
-0.369538
-0.31676
-0.266204
-0.22139
-0.183029
-0.150835
-0.122507
-0.469551
-0.444876
-0.409755
-0.35958
-0.304405
-0.252545
-0.20717
-0.168705
-0.136639
-0.108458
-0.462862
-0.437874
-0.400034
-0.346856
-0.289749
-0.237003
-0.191395
-0.153081
-0.121312
-0.0931409
-0.452704
-0.427498
-0.38709
-0.331321
-0.27278
-0.219573
-0.174051
-0.136164
-0.104925
-0.0767124
-0.438918
-0.4136
-0.370849
-0.312964
-0.253505
-0.200249
-0.155132
-0.11799
-0.0874791
-0.0598269
-0.421403
-0.396093
-0.35129
-0.291815
-0.23195
-0.179033
-0.134707
-0.0987123
-0.0688888
-0.0423655
-0.400113
-0.374943
-0.328436
-0.267945
-0.20818
-0.155995
-0.113024
-0.0781637
-0.0493163
-0.0242
-0.375061
-0.350176
-0.302364
-0.241461
-0.182311
-0.131405
-0.0898595
-0.0564704
-0.0288567
-0.00533476
-0.346313
-0.32189
-0.273238
-0.212451
-0.154438
-0.105203
-0.0653993
-0.0337221
-0.00758531
0.0141506
-0.313993
-0.290263
-0.241326
-0.180909
-0.124667
-0.0774925
-0.0397511
-0.0100158
0.0144219
0.0341507
-0.278285
-0.255529
-0.206757
-0.147005
-0.0931274
-0.0484141
-0.0130357
0.0145488
0.0370873
0.0545811
-0.239421
-0.217916
-0.168938
-0.111559
-0.0600885
-0.0181258
0.0146193
0.0398692
0.0603298
0.0753505
-0.197621
-0.177569
-0.128862
-0.0743381
-0.0257446
0.0131998
0.0430853
0.0658508
0.084012
0.0961201
-0.15314
-0.134457
-0.0872965
-0.0356011
0.00972074
0.045391
0.0722502
0.092416
0.107861
0.116077
-0.1064
-0.0892548
-0.0442419
0.00435669
0.0460983
0.0782779
0.10201
0.119469
0.131554
0.134661
-0.0578264
-0.0423075
0.000101078
0.0452481
0.0831549
0.111677
0.132207
0.146779
0.155002
0.153611
-0.0077396
0.0059432
0.0454217
0.0867868
0.120648
0.145384
0.162595
0.173947
0.178172
0.177753
0.0434389
0.0550874
0.0913675
0.128679
0.158328
0.179173
0.19291
0.200838
0.201916
0.202047
0.0952699
0.104721
0.137574
0.170623
0.195941
0.212819
0.22298
0.227518
0.225921
0.225114
0.14731
0.154434
0.183674
0.212314
0.233227
0.246091
0.252631
0.253863
0.249758
0.247267
0.199114
0.203815
0.229302
0.253445
0.269927
0.27877
0.281694
0.279699
0.273092
0.268497
0.250238
0.252453
0.2741
0.293714
0.305783
0.310637
0.309991
0.304846
0.295736
0.288836
0.300244
0.299945
0.317716
0.332824
0.340544
0.341482
0.337341
0.329132
0.317536
0.308242
0.348706
0.345896
0.359809
0.370487
0.373967
0.371097
0.363567
0.352395
0.338367
0.326657
0.395209
0.389926
0.40005
0.406426
0.405816
0.399283
0.388498
0.374488
0.358109
0.344007
0.439358
0.431673
0.438127
0.440377
0.435868
0.42585
0.411972
0.395271
0.376648
0.360216
0.480778
0.470793
0.473745
0.47209
0.46391
0.450616
0.433835
0.414613
0.393878
0.37521
0.519118
0.506966
0.50663
0.501334
0.489745
0.473414
0.453944
0.432392
0.409695
0.388917
0.554056
0.539898
0.536527
0.527893
0.513191
0.494089
0.472167
0.448495
0.424006
0.40127
0.585296
0.569321
0.563209
0.551574
0.534083
0.512499
0.488384
0.46282
0.436725
0.41221
0.612577
0.594998
0.58647
0.572204
0.552272
0.52852
0.50249
0.475275
0.447775
0.421684
0.635671
0.61672
0.606134
0.589631
0.567631
0.542043
0.51439
0.48578
0.457088
0.429647
0.654385
0.634314
0.62205
0.60373
0.580052
0.552974
0.524007
0.494268
0.464609
0.436061
0.668562
0.647637
0.634097
0.614397
0.589447
0.56124
0.531277
0.500683
0.47029
0.440899
0.678084
0.656584
0.642183
0.621555
0.59575
0.566784
0.536152
0.504984
0.474098
0.444136
0.682873
0.661083
0.646248
0.625152
0.598916
0.569568
0.538599
0.507143
0.476009
0.44576
0.682889
0.661097
0.64626
0.625162
0.598924
0.569574
0.538604
0.507146
0.476012
0.445762
0.678131
0.656627
0.642219
0.621584
0.595772
0.566801
0.536165
0.504994
0.474106
0.444143
0.668638
0.647708
0.634155
0.614444
0.589484
0.561268
0.531298
0.500699
0.470303
0.44091
0.654491
0.634411
0.622131
0.603795
0.580103
0.553013
0.524037
0.494291
0.464627
0.436076
0.635806
0.616843
0.606237
0.589713
0.567695
0.542092
0.514427
0.485809
0.457112
0.429665
0.61274
0.595146
0.586594
0.572302
0.552348
0.528579
0.502534
0.47531
0.447803
0.421706
0.585484
0.569493
0.563352
0.551688
0.53417
0.512566
0.488435
0.462859
0.436757
0.412235
0.554267
0.540091
0.536689
0.528021
0.513289
0.494163
0.472223
0.448539
0.424041
0.401298
0.519351
0.507179
0.506807
0.501474
0.489853
0.473495
0.454005
0.432439
0.409733
0.388947
0.481029
0.471023
0.473936
0.472241
0.464025
0.450703
0.4339
0.414663
0.393917
0.375243
0.439625
0.431917
0.43833
0.440536
0.435989
0.42594
0.41204
0.395322
0.376689
0.36025
0.395489
0.390182
0.400262
0.406592
0.405942
0.399377
0.388567
0.37454
0.35815
0.344042
0.348995
0.34616
0.360027
0.370656
0.374094
0.371191
0.363636
0.352446
0.338408
0.326692
0.300538
0.300213
0.317938
0.332995
0.340672
0.341575
0.337408
0.329181
0.317575
0.308276
0.250533
0.252722
0.274322
0.293883
0.305908
0.310727
0.310055
0.304892
0.295772
0.288868
0.199405
0.20408
0.22952
0.25361
0.270047
0.278854
0.281753
0.27974
0.273125
0.268527
0.147593
0.154691
0.183884
0.212471
0.23334
0.246168
0.252683
0.253898
0.249786
0.247294
0.0955395
0.104965
0.137772
0.17077
0.196043
0.212886
0.223023
0.227545
0.225942
0.225137
0.0436896
0.0553141
0.0915492
0.128811
0.158416
0.179228
0.192942
0.200855
0.201929
0.202064
-0.00751357
0.00614694
0.045582
0.0869
0.120719
0.145423
0.162614
0.173953
0.178174
0.177762
-0.0576311
-0.0421321
0.000234971
0.0453385
0.0832063
0.111699
0.13221
0.146772
0.154993
0.153609
-0.106242
-0.0891135
-0.0441402
0.00442032
0.0461262
0.0782792
0.101995
0.119447
0.131533
0.134649
-0.153023
-0.134357
-0.0872327
-0.035568
0.00972171
0.0453686
0.0722151
0.0923771
0.107827
0.116054
-0.197554
-0.177513
-0.128841
-0.0743389
-0.0257743
0.0131508
0.0430278
0.0657936
0.0839629
0.0960853
-0.239411
-0.217921
-0.168958
-0.111597
-0.0601531
-0.0182048
0.0145371
0.0397918
0.0602646
0.075303
-0.278336
-0.255594
-0.206836
-0.147084
-0.0932318
-0.0485263
-0.0131447
0.0144493
0.0370045
0.0545204
-0.314112
-0.290392
-0.241459
-0.181046
-0.124817
-0.0776418
-0.0398885
-0.0101393
0.01432
0.0340761
-0.346505
-0.322091
-0.273432
-0.212647
-0.154636
-0.105394
-0.0655652
-0.0338719
-0.00770788
0.0140614
-0.375332
-0.350455
-0.302628
-0.241717
-0.18256
-0.131645
-0.0900518
-0.0566506
-0.0290015
-0.00543913
-0.40047
-0.375304
-0.328776
-0.268265
-0.208482
-0.15629
-0.11324
-0.0783806
-0.0494838
-0.0243202
-0.421849
-0.396543
-0.351711
-0.292205
-0.232306
-0.179358
-0.134973
-0.0989718
-0.0690786
-0.0425025
-0.439458
-0.414144
-0.371357
-0.313428
-0.253923
-0.200624
-0.155463
-0.11827
-0.0876918
-0.0599806
-0.453342
-0.428139
-0.387688
-0.331864
-0.273268
-0.220008
-0.174432
-0.136475
-0.105163
-0.0768801
-0.463601
-0.438616
-0.400726
-0.347484
-0.29031
-0.237498
-0.191822
-0.15343
-0.121576
-0.0933202
-0.470392
-0.44572
-0.410545
-0.360295
-0.305042
-0.253102
-0.207646
-0.169093
-0.136933
-0.108657
-0.473925
-0.449653
-0.417265
-0.370344
-0.317475
-0.266828
-0.221919
-0.18346
-0.151161
-0.122729
-0.474454
-0.450668
-0.421057
-0.377713
-0.327649
-0.278694
-0.234655
-0.196532
-0.164264
-0.13572
-0.472273
-0.449063
-0.422136
-0.382524
-0.335625
-0.28874
-0.245879
-0.208334
-0.17629
-0.147809
-0.467705
-0.445163
-0.420769
-0.384939
-0.341494
-0.297023
-0.255638
-0.218908
-0.187285
-0.15907
-0.461096
-0.439316
-0.417255
-0.385154
-0.345373
-0.303618
-0.263989
-0.228305
-0.197285
-0.169518
-0.452801
-0.431876
-0.411926
-0.383402
-0.347399
-0.308617
-0.271002
-0.23658
-0.206326
-0.179167
-0.443175
-0.423198
-0.405129
-0.379943
-0.347735
-0.31212
-0.276751
-0.243794
-0.214455
-0.188043
-0.432563
-0.413619
-0.397217
-0.37506
-0.346564
-0.314242
-0.281316
-0.250012
-0.221724
-0.196181
-0.421292
-0.403458
-0.388527
-0.369055
-0.344087
-0.315108
-0.284782
-0.255302
-0.22819
-0.20362
-0.409658
-0.393002
-0.379374
-0.362231
-0.340522
-0.314855
-0.287241
-0.259734
-0.233915
-0.210402
-0.397927
-0.382502
-0.370036
-0.354888
-0.3361
-0.313629
-0.288784
-0.263377
-0.238957
-0.216575
-0.386326
-0.372171
-0.360752
-0.347301
-0.33106
-0.311586
-0.289509
-0.2663
-0.243376
-0.222189
-0.375041
-0.362178
-0.351713
-0.33971
-0.325638
-0.308892
-0.289515
-0.268569
-0.247226
-0.227295
-0.36422
-0.352654
-0.34307
-0.33231
-0.320057
-0.30572
-0.288909
-0.270249
-0.250559
-0.231945
-0.353976
-0.343689
-0.334932
-0.325249
-0.314515
-0.302244
-0.287802
-0.271404
-0.253417
-0.236189
-0.344382
-0.335339
-0.32737
-0.31863
-0.309171
-0.298636
-0.286311
-0.272103
-0.255839
-0.240078
-0.33549
-0.327633
-0.320419
-0.31252
-0.30414
-0.295049
-0.28456
-0.272415
-0.257851
-0.243668
-0.327319
-0.320574
-0.314089
-0.306951
-0.299497
-0.29161
-0.282672
-0.272421
-0.259475
-0.247014
-0.319868
-0.314151
-0.308367
-0.301932
-0.295281
-0.288407
-0.280761
-0.272206
-0.260723
-0.250181
-0.313119
-0.308335
-0.303222
-0.297449
-0.291508
-0.285496
-0.27892
-0.271863
-0.261601
-0.253238
-0.307039
-0.303091
-0.298614
-0.293471
-0.288172
-0.282902
-0.277212
-0.271475
-0.262115
-0.256246
-0.301584
-0.298374
-0.294495
-0.289954
-0.285252
-0.280631
-0.275671
-0.271104
-0.262275
-0.259263
-0.296699
-0.294135
-0.290814
-0.286847
-0.282709
-0.278666
-0.274309
-0.270777
-0.262136
-0.262145
-0.292326
-0.290321
-0.287515
-0.284092
-0.280491
-0.27697
-0.273131
-0.270458
-0.261752
-0.265016
-0.288401
-0.286878
-0.284545
-0.281633
-0.278537
-0.275493
-0.272124
-0.269977
-0.261368
-0.265864
-0.284864
-0.283756
-0.281849
-0.279411
-0.276786
-0.274176
-0.271248
-0.269219
-0.261661
-0.252014
-0.281645
-0.280914
-0.279382
-0.277375
-0.275182
-0.272965
-0.270442
-0.268278
-0.26253
-0.248391
-0.278708
-0.278298
-0.277101
-0.275483
-0.273677
-0.271814
-0.269657
-0.267403
-0.263408
-0.249067
-0.276003
-0.275871
-0.274976
-0.2737
-0.272237
-0.270689
-0.268849
-0.266626
-0.263784
-0.25017
-0.273491
-0.273608
-0.272981
-0.272004
-0.270843
-0.269569
-0.268002
-0.2659
-0.263721
-0.251399
-0.271145
-0.271488
-0.271095
-0.270382
-0.269484
-0.268453
-0.267127
-0.265208
-0.263451
-0.252854
-0.268945
-0.269497
-0.269308
-0.268826
-0.268161
-0.267347
-0.266253
-0.264541
-0.263134
-0.254374
-0.266879
-0.267624
-0.267615
-0.267335
-0.266876
-0.266265
-0.265407
-0.263878
-0.26286
-0.25576
-0.26494
-0.265864
-0.266014
-0.265912
-0.265638
-0.265209
-0.264528
-0.263298
-0.262654
-0.256884
-0.263126
-0.264218
-0.264508
-0.264563
-0.264454
-0.264194
-0.2637
-0.262823
-0.26236
-0.257756
-0.26144
-0.262687
-0.263101
-0.263294
-0.263332
-0.263227
-0.262916
-0.26233
-0.261872
-0.258647
-0.259887
-0.261276
-0.2618
-0.262114
-0.262281
-0.262314
-0.262172
-0.261829
-0.261454
-0.259374
-0.258474
-0.259993
-0.260612
-0.26103
-0.26131
-0.261465
-0.261472
-0.261329
-0.26108
-0.259785
-0.25721
-0.258845
-0.259545
-0.260052
-0.260428
-0.260688
-0.260823
-0.26084
-0.260723
-0.259965
-0.256105
-0.25784
-0.258609
-0.259189
-0.259645
-0.259992
-0.260232
-0.260377
-0.260384
-0.260002
-0.255169
-0.256988
-0.257812
-0.258451
-0.25897
-0.259387
-0.259712
-0.259956
-0.260072
-0.259954
-0.254411
-0.256295
-0.257161
-0.257845
-0.258413
-0.258883
-0.259273
-0.259592
-0.259798
-0.259865
-0.253838
-0.255767
-0.256664
-0.257379
-0.25798
-0.258489
-0.258924
-0.259298
-0.259573
-0.259768
-0.253457
-0.25541
-0.256323
-0.257057
-0.257678
-0.25821
-0.258675
-0.259085
-0.259408
-0.259688
-0.253268
-0.255226
-0.256143
-0.256882
-0.25751
-0.258051
-0.258529
-0.258957
-0.259309
-0.259639
-0.261148
-0.260273
-0.261803
-0.261452
-0.262064
-0.261711
-0.261355
-0.260198
-0.258185
-0.254577
-0.249264
-0.24253
-0.235399
-0.228953
-0.222467
-0.213466
-0.197838
-0.176663
-0.153137
-0.137383
-0.131119
-0.125527
-0.108573
-0.0907487
-0.0629138
-0.0294812
-0.0366525
-0.0443975
-0.0341941
0.0110873
-0.261309
-0.26045
-0.262194
-0.262124
-0.263156
-0.263357
-0.26365
-0.263102
-0.261478
-0.257794
-0.251658
-0.243168
-0.233371
-0.223725
-0.214257
-0.203597
-0.188395
-0.17008
-0.151533
-0.141027
-0.138994
-0.134738
-0.114577
-0.0942646
-0.0617069
-0.0247604
-0.0316382
-0.0392503
-0.0323928
0.0105683
-0.261579
-0.260642
-0.262624
-0.262815
-0.26426
-0.265008
-0.26594
-0.266003
-0.264785
-0.26104
-0.254098
-0.243868
-0.231419
-0.218578
-0.206095
-0.193688
-0.178821
-0.163337
-0.149813
-0.144572
-0.146572
-0.143418
-0.120066
-0.0972523
-0.0602601
-0.020094
-0.0265496
-0.0337402
-0.030316
0.00999414
-0.261945
-0.260833
-0.263074
-0.263504
-0.265351
-0.266634
-0.268195
-0.26887
-0.268069
-0.264288
-0.256568
-0.244635
-0.22958
-0.213579
-0.198079
-0.183861
-0.169234
-0.156523
-0.148012
-0.148001
-0.153816
-0.15153
-0.125052
-0.0997377
-0.0586146
-0.0155218
-0.021414
-0.0278819
-0.0279637
0.00936635
-0.262392
-0.261009
-0.263527
-0.264172
-0.266405
-0.268206
-0.270381
-0.271667
-0.271295
-0.267505
-0.259051
-0.245474
-0.227882
-0.208794
-0.190306
-0.174239
-0.159756
-0.149728
-0.146166
-0.151294
-0.160692
-0.159061
-0.129557
-0.101758
-0.0568166
-0.0110837
-0.0162601
-0.021702
-0.0253462
0.00868646
-0.262903
-0.261154
-0.263963
-0.264799
-0.267395
-0.269694
-0.272463
-0.274357
-0.274424
-0.270659
-0.261524
-0.246382
-0.226352
-0.204278
-0.182867
-0.164937
-0.150502
-0.143037
-0.144305
-0.154431
-0.167171
-0.166046
-0.13361
-0.103359
-0.0549147
-0.00681795
-0.0111185
-0.0152401
-0.0224843
0.00795555
-0.263461
-0.261254
-0.264363
-0.265367
-0.2683
-0.27107
-0.274409
-0.276901
-0.277417
-0.273713
-0.263962
-0.247353
-0.225008
-0.200081
-0.175841
-0.156059
-0.141581
-0.136528
-0.142455
-0.157392
-0.173229
-0.172469
-0.137241
-0.104591
-0.052958
-0.00276011
-0.006022
-0.0085491
-0.0194102
0.00717427
-0.264057
-0.261292
-0.264709
-0.265859
-0.269096
-0.272308
-0.276188
-0.279262
-0.280233
-0.276632
-0.266337
-0.248376
-0.223865
-0.196247
-0.169298
-0.147699
-0.133087
-0.130271
-0.140637
-0.160151
-0.178845
-0.178313
-0.140477
-0.105504
-0.0509935
0.00105791
-0.00100579
-0.00169401
-0.0161664
0.00634284
-0.264705
-0.26124
-0.264989
-0.266258
-0.269766
-0.273385
-0.27777
-0.281406
-0.282836
-0.279377
-0.268618
-0.249436
-0.222929
-0.192806
-0.163299
-0.139935
-0.125101
-0.124322
-0.13886
-0.162688
-0.183997
-0.183596
-0.143346
-0.106149
-0.0490651
0.00460863
0.00389292
0.00524914
-0.0128041
0.00546111
-0.265366
-0.261103
-0.265191
-0.266553
-0.270295
-0.274282
-0.279133
-0.283303
-0.285195
-0.281908
-0.270771
-0.250515
-0.222201
-0.189784
-0.157887
-0.132831
-0.11768
-0.118746
-0.137121
-0.164982
-0.188671
-0.188321
-0.145872
-0.106573
-0.0472124
0.0078694
0.00863537
0.0121957
-0.00938141
0.0045288
-0.265709
-0.261094
-0.265227
-0.266756
-0.270663
-0.274986
-0.280257
-0.284931
-0.287282
-0.284185
-0.27276
-0.25159
-0.221669
-0.187195
-0.153095
-0.126425
-0.110875
-0.113575
-0.135427
-0.167012
-0.19285
-0.192501
-0.148077
-0.106818
-0.0454698
0.0108227
0.0131823
0.0190552
-0.00596044
0.00354579
-0.26606
-0.261025
-0.265153
-0.266845
-0.270866
-0.275483
-0.281117
-0.286255
-0.289041
-0.286182
-0.274588
-0.25265
-0.221314
-0.185052
-0.14894
-0.120737
-0.10479
-0.10879
-0.133795
-0.168761
-0.196525
-0.196147
-0.149981
-0.106922
-0.0438666
0.0134563
0.0174952
0.0257352
-0.00260389
0.00251254
-0.266417
-0.260883
-0.264988
-0.266807
-0.270909
-0.275769
-0.281719
-0.287273
-0.290471
-0.287864
-0.276197
-0.25367
-0.221206
-0.183319
-0.145442
-0.115846
-0.0993343
-0.10445
-0.13222
-0.170213
-0.19969
-0.199273
-0.151604
-0.106917
-0.042427
0.0157625
0.0215377
0.0321446
0.000628063
0.00143054
-0.266736
-0.26071
-0.26472
-0.266643
-0.27079
-0.275843
-0.282053
-0.287973
-0.291542
-0.28922
-0.277567
-0.254623
-0.221256
-0.182037
-0.142618
-0.111698
-0.0946001
-0.100563
-0.130694
-0.171357
-0.202341
-0.201894
-0.152961
-0.106831
-0.0411687
0.0177389
0.0252769
0.0381977
0.00368095
0.000302727
-0.266989
-0.260529
-0.264347
-0.266352
-0.270508
-0.275705
-0.282118
-0.288345
-0.292243
-0.290234
-0.278682
-0.255494
-0.221457
-0.181176
-0.140443
-0.108321
-0.090593
-0.0971165
-0.129213
-0.172187
-0.204479
-0.204025
-0.154069
-0.106682
-0.0400997
0.0193893
0.0286859
0.0438175
0.00650862
-0.000866124
-0.267131
-0.260337
-0.263872
-0.265932
-0.270063
-0.275359
-0.281916
-0.28839
-0.292581
-0.290895
-0.279527
-0.256266
-0.221791
-0.180706
-0.138887
-0.105698
-0.0872931
-0.0941029
-0.127774
-0.172701
-0.206113
-0.205684
-0.154936
-0.106479
-0.0392214
0.0207227
0.0317436
0.0489388
0.00907525
-0.00206911
-0.267042
-0.260109
-0.263301
-0.265383
-0.269462
-0.274813
-0.281458
-0.288118
-0.292583
-0.291202
-0.280094
-0.256917
-0.222228
-0.180591
-0.137911
-0.103786
-0.0846816
-0.0915164
-0.126375
-0.172901
-0.207263
-0.206892
-0.15559
-0.106257
-0.0385581
0.0217395
0.0344293
0.0535102
0.0113568
-0.00329667
-0.266622
-0.259842
-0.262645
-0.264701
-0.268702
-0.274064
-0.28074
-0.287522
-0.292233
-0.291156
-0.2804
-0.257492
-0.222829
-0.180896
-0.137563
-0.102603
-0.0827539
-0.089341
-0.124989
-0.172757
-0.207937
-0.207671
-0.156094
-0.106097
-0.0381845
0.022416
0.0367167
0.0574902
0.0133422
-0.00453564
-0.26617
-0.259445
-0.261832
-0.263809
-0.267704
-0.273034
-0.279682
-0.286525
-0.291433
-0.290709
-0.280459
-0.25807
-0.223726
-0.18177
-0.137975
-0.102248
-0.0815893
-0.0875724
-0.123566
-0.172197
-0.208081
-0.208035
-0.156464
-0.105985
-0.0380626
0.0227773
0.0386158
0.0608496
0.0150325
-0.00577226
-0.263725
-0.258161
-0.26072
-0.262669
-0.266509
-0.271836
-0.278444
-0.285302
-0.290227
-0.289854
-0.280007
-0.258075
-0.224061
-0.182206
-0.138206
-0.102054
-0.0810838
-0.0863073
-0.12248
-0.171706
-0.207913
-0.208016
-0.156338
-0.105373
-0.0375939
0.0231395
0.0402956
0.0636291
0.0164247
-0.00700845
-0.251807
-0.255695
-0.259601
-0.261663
-0.265596
-0.271058
-0.277732
-0.28462
-0.289711
-0.289
-0.278872
-0.256615
-0.222313
-0.180278
-0.136252
-0.100166
-0.0791849
-0.0851377
-0.122293
-0.17245
-0.208736
-0.207766
-0.155333
-0.103617
-0.0361453
0.023888
0.0422725
0.0665002
0.0177672
-0.00852064
-0.247116
-0.253342
-0.257644
-0.259817
-0.263875
-0.269455
-0.27601
-0.282533
-0.286869
-0.285673
-0.275068
-0.252667
-0.218635
-0.17726
-0.134184
-0.0991738
-0.0795196
-0.085922
-0.12331
-0.172925
-0.207471
-0.205411
-0.152845
-0.100944
-0.0345974
0.0241565
0.043784
0.0684114
0.01857
-0.0101968
-0.244122
-0.25024
-0.25454
-0.257065
-0.261347
-0.267038
-0.273405
-0.279448
-0.283122
-0.281192
-0.270135
-0.247799
-0.214404
-0.174147
-0.132508
-0.0989738
-0.0806416
-0.0878372
-0.12496
-0.173083
-0.205448
-0.20189
-0.149674
-0.0979969
-0.0332305
0.0239821
0.0445911
0.0691243
0.0187965
-0.0117419
-0.240759
-0.245887
-0.24997
-0.253087
-0.257704
-0.263505
-0.269672
-0.27522
-0.278265
-0.275681
-0.264373
-0.242408
-0.210036
-0.171308
-0.131481
-0.0996506
-0.0827203
-0.0903815
-0.126615
-0.172612
-0.202385
-0.197378
-0.145983
-0.0948926
-0.0321016
0.0233327
0.0446771
0.0686583
0.0186361
-0.0130572
-0.235581
-0.240208
-0.244008
-0.247786
-0.252814
-0.25872
-0.264679
-0.269733
-0.272036
-0.269114
-0.257793
-0.236524
-0.205575
-0.16878
-0.131126
-0.101199
-0.0856961
-0.093423
-0.128072
-0.171332
-0.198155
-0.191852
-0.141796
-0.0916747
-0.0312211
0.0222046
0.0440317
0.0670627
0.0182074
-0.0140403
-0.228327
-0.233317
-0.236927
-0.24128
-0.246734
-0.252729
-0.258471
-0.263057
-0.264851
-0.261595
-0.250497
-0.230231
-0.201064
-0.166553
-0.131377
-0.103499
-0.0893824
-0.0968117
-0.129204
-0.169157
-0.192765
-0.185371
-0.13718
-0.0884014
-0.0305919
0.0206244
0.0426829
0.0644597
0.01762
-0.0146008
-0.219515
-0.225405
-0.229045
-0.233829
-0.239659
-0.245721
-0.251241
-0.255404
-0.256765
-0.253333
-0.24268
-0.22367
-0.196567
-0.164601
-0.13212
-0.106368
-0.0935408
-0.100342
-0.129879
-0.166067
-0.186327
-0.178078
-0.132231
-0.0851371
-0.0302108
0.0186379
0.040692
0.0610236
0.0169862
-0.014674
-0.209649
-0.216694
-0.220636
-0.225728
-0.231843
-0.237953
-0.243263
-0.247055
-0.248073
-0.244603
-0.234569
-0.216992
-0.192131
-0.162863
-0.133195
-0.109582
-0.0979107
-0.103807
-0.130018
-0.162072
-0.17904
-0.170181
-0.127062
-0.0819441
-0.0300685
0.016305
0.0381455
0.0569525
0.0163964
-0.014237
-0.199181
-0.207422
-0.211891
-0.217225
-0.223529
-0.229674
-0.234808
-0.238296
-0.239064
-0.235675
-0.226377
-0.210325
-0.187782
-0.161257
-0.134418
-0.112906
-0.10224
-0.107037
-0.129631
-0.157396
-0.171182
-0.161931
-0.121797
-0.0788783
-0.0301492
0.0136942
0.0351465
0.0524436
0.0158968
-0.0133187
-0.188508
-0.1978
-0.202936
-0.208499
-0.214916
-0.221085
-0.226093
-0.229356
-0.229971
-0.226758
-0.218269
-0.203765
-0.183527
-0.159698
-0.135615
-0.116126
-0.106316
-0.109912
-0.128793
-0.152283
-0.163075
-0.153596
-0.116555
-0.075985
-0.0304317
0.010875
0.0318047
0.047673
0.0154827
-0.0120007
-0.177885
-0.187999
-0.193854
-0.199667
-0.20615
-0.212334
-0.217269
-0.220391
-0.220957
-0.218001
-0.210349
-0.197373
-0.17936
-0.158113
-0.136649
-0.119073
-0.109986
-0.112364
-0.127619
-0.146995
-0.155028
-0.14542
-0.111444
-0.0732969
-0.0308893
0.00791249
0.0282266
0.042784
0.0151043
-0.0104059
-0.167462
-0.178162
-0.184712
-0.190804
-0.197335
-0.203526
-0.208438
-0.211504
-0.212112
-0.20948
-0.202675
-0.191176
-0.175269
-0.156451
-0.137425
-0.121635
-0.113153
-0.114369
-0.126228
-0.141753
-0.147291
-0.137599
-0.106551
-0.0708339
-0.0314919
0.00486279
0.0245073
0.0378861
0.0146858
-0.0086772
-0.157346
-0.168411
-0.175577
-0.181964
-0.188544
-0.19474
-0.199666
-0.202753
-0.203486
-0.201234
-0.195276
-0.185182
-0.171241
-0.154679
-0.137889
-0.123747
-0.115778
-0.115932
-0.124715
-0.136716
-0.140031
-0.130266
-0.101937
-0.068605
-0.0322082
0.00177293
0.0207255
0.0330597
0.0141481
-0.0069525
-0.147611
-0.158848
-0.166521
-0.1732
-0.179839
-0.18604
-0.191008
-0.194177
-0.195104
-0.193281
-0.188158
-0.179389
-0.167265
-0.152778
-0.138019
-0.125385
-0.117861
-0.117071
-0.123143
-0.13198
-0.13334
-0.123494
-0.0976379
-0.0666103
-0.0330077
-0.00131795
0.0169435
0.0283646
0.0134297
-0.00534427
-0.138308
-0.149557
-0.157617
-0.164563
-0.171272
-0.177482
-0.182511
-0.185808
-0.186984
-0.185623
-0.181325
-0.173794
-0.163335
-0.150744
-0.137814
-0.12655
-0.119423
-0.117813
-0.12156
-0.127594
-0.127246
-0.117313
-0.0936734
-0.064844
-0.033863
-0.00437642
0.013209
0.0238466
0.0124978
-0.00392887
-0.129476
-0.140609
-0.148939
-0.156111
-0.162893
-0.169118
-0.174217
-0.177675
-0.179138
-0.17826
-0.174757
-0.168391
-0.159448
-0.148579
-0.137291
-0.127259
-0.120495
-0.118189
-0.119965
-0.123561
-0.121738
-0.111719
-0.0900476
-0.0632959
-0.0347503
-0.00737249
0.00956013
0.0195417
0.0113498
-0.00274747
-0.121145
-0.132062
-0.140552
-0.1479
-0.154751
-0.160997
-0.166173
-0.169808
-0.171582
-0.171199
-0.168458
-0.163175
-0.155608
-0.146294
-0.136471
-0.127543
-0.121108
-0.118217
-0.118364
-0.119867
-0.116784
-0.106692
-0.086756
-0.0619534
-0.0356499
-0.0102781
0.00602776
0.0154775
0.0100091
-0.0018117
-0.113337
-0.123963
-0.132516
-0.139987
-0.146895
-0.153165
-0.15842
-0.16224
-0.164334
-0.164445
-0.162428
-0.15815
-0.151823
-0.143903
-0.135385
-0.127446
-0.121335
-0.11796
-0.11676
-0.116492
-0.112346
-0.102202
-0.0837885
-0.0608023
-0.0365456
-0.0130666
0.00263771
0.0116748
0.00851575
-0.00111199
-0.106065
-0.116347
-0.124885
-0.132424
-0.139371
-0.145666
-0.150998
-0.155002
-0.157415
-0.15801
-0.156673
-0.153312
-0.148104
-0.141428
-0.134069
-0.127011
-0.121209
-0.117445
-0.115159
-0.113415
-0.108384
-0.0982174
-0.0811316
-0.0598266
-0.0374242
-0.0157134
-0.000587484
0.00814749
0.00691865
-0.00062682
-0.0993377
-0.109242
-0.1177
-0.12526
-0.132225
-0.13854
-0.143946
-0.148129
-0.150848
-0.151905
-0.151202
-0.148676
-0.144469
-0.138895
-0.132561
-0.126285
-0.120782
-0.116717
-0.113567
-0.110614
-0.104859
-0.0947023
-0.0787701
-0.0590098
-0.0382752
-0.018196
-0.00362778
0.00490304
0.0052692
-0.000329664
-0.0931599
-0.10267
-0.111
-0.118539
-0.125501
-0.131829
-0.137303
-0.141652
-0.14466
-0.14615
-0.14603
-0.144259
-0.140939
-0.136336
-0.130905
-0.12532
-0.120108
-0.115819
-0.111998
-0.108074
-0.101737
-0.0916219
-0.0766878
-0.0583343
-0.0390898
-0.0204956
-0.00646539
0.00194445
0.00361663
-0.000193837
-0.0875336
-0.0966474
-0.104815
-0.1123
-0.119239
-0.125571
-0.131103
-0.135605
-0.138878
-0.140766
-0.141177
-0.140079
-0.137542
-0.133789
-0.129151
-0.124173
-0.119241
-0.114799
-0.110464
-0.10578
-0.0989865
-0.0889423
-0.0748678
-0.0577826
-0.0398605
-0.0225974
-0.00908509
-0.000727604
0.00200611
-0.000209032
-0.0824606
-0.0911883
-0.0991727
-0.106578
-0.113479
-0.119805
-0.125386
-0.130023
-0.133534
-0.13578
-0.136666
-0.136164
-0.134313
-0.131297
-0.127347
-0.122901
-0.118237
-0.113702
-0.108987
-0.103721
-0.0965796
-0.0866308
-0.0732935
-0.0573376
-0.0405803
-0.0244905
-0.0114728
-0.00311434
0.000476736
-0.000311566
-0.0779436
-0.0863058
-0.0940987
-0.101409
-0.108258
-0.114569
-0.120187
-0.124941
-0.128663
-0.131225
-0.132529
-0.132546
-0.131289
-0.128899
-0.125548
-0.121566
-0.117152
-0.112574
-0.107587
-0.101891
-0.0944931
-0.0846578
-0.0719487
-0.0569833
-0.0412425
-0.0261682
-0.0136159
-0.00522835
-0.000939837
-0.000480649
-0.0739879
-0.082014
-0.0896175
-0.0968244
-0.103614
-0.109903
-0.115549
-0.120401
-0.124303
-0.127137
-0.128803
-0.129265
-0.128514
-0.126657
-0.123812
-0.120228
-0.116046
-0.111462
-0.106289
-0.100285
-0.0927086
-0.0829966
-0.0708185
-0.056705
-0.0418401
-0.0276268
-0.0155037
-0.00706997
-0.0022149
-0.000691164
-0.0706045
-0.0783314
-0.085757
-0.0928607
-0.0995886
-0.105851
-0.111515
-0.116446
-0.120499
-0.123562
-0.125531
-0.126366
-0.126039
-0.124625
-0.1222