/*--------------------------------*- C++ -*----------------------------------*\
  =========                 |
  \\      /  F ield         | OpenFOAM: The Open Source CFD Toolbox
   \\    /   O peration     | Website:  https://openfoam.org
    \\  /    A nd           | Version:  7
     \\/     M anipulation  |
\*---------------------------------------------------------------------------*/
FoamFile
{
    version     2.0;
    format      ascii;
    class       surfaceScalarField;
    location    "75";
    object      phi;
}
// * * * * * * * * * * * * * * * * * * * * * * * * * * * * * * * * * * * * * //

dimensions      [0 3 -1 0 0 0 0];

internalField   nonuniform List<scalar> 
16735
(
-7.2575e-05
0.000102833
-3.02578e-05
-0.000258857
0.000276059
-8.97769e-05
-0.000539805
0.0004324
-0.000151452
-0.000896591
0.000569932
-0.000213146
-0.00131209
0.000690239
-0.000274737
-0.00177266
0.000799003
-0.000338436
-0.00227024
0.000905919
-0.000408335
-0.0028052
0.00102461
-0.000489645
-0.0033885
0.00117129
-0.000587997
0.00136463
-0.000709183
-0.00404394
-7.1055e-05
0.000173888
-0.000253663
0.000458666
-0.000529081
0.000707819
-0.00087854
0.00091939
-0.00128468
0.00109638
-0.00173326
0.00124758
-0.0022152
0.00138787
-0.00272954
0.00153895
-0.00328594
0.00172768
0.00198572
-0.00390703
-6.87989e-05
0.000242687
-0.000245876
0.000635743
-0.000512837
0.00097478
-0.000850876
0.00125743
-0.00124213
0.00148763
-0.00167121
0.00167666
-0.0021272
0.00184386
-0.00260671
0.00201846
-0.00311715
0.00223812
0.0025477
-0.00367914
-6.58969e-05
0.000308584
-0.000235767
0.000805613
-0.000491576
0.00123059
-0.000814384
0.00158024
-0.00118556
0.00185881
-0.0015881
0.0020792
-0.00200837
0.00226413
-0.00243939
0.00244948
-0.00288524
0.00268397
0.00302549
-0.00336303
-6.24626e-05
0.000371046
-0.000223672
0.000966823
-0.000465924
0.00147284
-0.000770039
0.00188435
-0.00111639
0.00220516
-0.0014859
0.00244871
-0.0018614
0.00263963
-0.00223102
0.0028191
-0.00259419
0.00304714
0.00339334
-0.00296205
-5.86245e-05
0.000429671
-0.000209972
0.00111817
-0.000436578
0.00169945
-0.000718909
0.00216668
-0.00103615
0.0025224
-0.00136676
0.00277932
-0.00168927
0.00296214
-0.00198548
0.00311531
-0.00224859
0.00331024
0.00362472
-0.00247997
-5.45167e-05
0.000484187
-0.000195055
0.00125871
-0.000404238
0.00190863
-0.000662038
0.00242448
-0.000946289
0.00280665
-0.00123271
0.00306574
-0.00149483
0.00322426
-0.00170655
0.00332703
-0.00185299
0.00345668
0.00369253
-0.00192079
-5.02685e-05
0.000534456
-0.000179288
0.00138773
-0.000369533
0.00209887
-0.000600311
0.00265526
-0.000847957
0.00305429
-0.00108523
0.00330302
-0.00128013
0.00341916
-0.00139704
0.00344394
-0.00141083
0.00347047
0.0035704
-0.0012887
-4.59957e-05
0.000580452
-0.000162982
0.00150471
-0.000332956
0.00226885
-0.00053431
0.00285662
-0.000741718
0.0032617
-0.000924817
0.00348612
-0.0010457
0.00354004
-0.00105748
0.00345572
-0.000921648
0.00333464
0.00323905
-0.000590298
-4.17932e-05
0.000622245
-0.000146369
0.00160929
-0.000294795
0.00241727
-0.000464197
0.00302602
-0.000627319
0.00342482
-0.000750491
0.00360929
-0.000789702
0.00357925
-0.000685031
0.00335105
-0.000372501
0.00302211
0.00269185
0.000174692
-3.77307e-05
0.000659976
-0.000129581
0.00170114
-0.000255097
0.00254279
-0.000389607
0.00316053
-0.000503485
0.0035387
-0.000559389
0.00366519
-0.000507121
0.00352698
-0.000275304
0.00311923
0.000241658
0.00250515
0.00184196
0.00109155
-3.38503e-05
0.000693826
-0.000112643
0.00177993
-0.000213638
0.00264379
-0.00030961
0.0032565
-0.000367795
0.00359689
-0.000346454
0.00364385
-0.00018832
0.00336885
0.000187181
0.00274373
0.000913875
0.00177846
0.000641703
0.00211413
-3.01667e-05
0.000723993
-9.54671e-05
0.00184523
-0.000169926
0.00271824
-0.000222715
0.00330929
-0.00021671
0.00359088
-0.000104495
0.00353164
0.000179717
0.00308464
0.000732592
0.00219086
0.00170995
0.000801099
-0.000939843
0.0032915
-2.66664e-05
0.000750659
-7.78544e-05
0.00189642
-0.000123208
0.0027636
-0.000126924
0.00331301
-4.57582e-05
0.00350971
0.00017558
0.0033103
0.000612985
0.00264723
0.00137777
0.00142607
0.00266516
-0.000486288
-0.00294228
0.0046676
-2.3304e-05
0.000773963
-5.94813e-05
0.0019326
-7.24674e-05
0.00277658
-1.97488e-05
0.00326029
0.000150311
0.00333966
0.000504041
0.00295657
0.00113105
0.00202023
0.00215705
0.000400071
0.00382878
-0.00215802
-0.00540022
0.00628672
-1.99937e-05
0.000793957
-3.98771e-05
0.00195248
-1.63348e-05
0.00275304
0.000101642
0.00314231
0.000377277
0.00306402
0.000891711
0.00244213
0.00175296
0.00115897
0.0031022
-0.000949167
0.00524802
-0.00430384
-0.00833101
0.00817881
-1.65951e-05
0.000810552
-1.83558e-05
0.00195424
4.66642e-05
0.00268802
0.000240723
0.00294825
0.000641505
0.00266324
0.00134956
0.00173408
0.00249665
1.1882e-05
0.0042412
-0.00269371
0.00695156
-0.00701419
-0.0117208
0.0103413
-1.29079e-05
0.00082346
6.04429e-06
0.00193529
0.000118786
0.00257528
0.000401572
0.00266547
0.000950028
0.00211478
0.00188862
0.000795486
0.00337767
-0.00147717
0.0055973
-0.00491335
0.00893418
-0.0103511
-0.0155161
0.0127295
-8.71235e-06
0.000832172
3.38495e-05
0.00189273
0.000202596
0.00240653
0.000589058
0.002279
0.00131064
0.0013932
0.00251977
-0.000413642
0.00440818
-0.00336558
0.00718926
-0.00769443
0.0111565
-0.0143183
-0.0196297
0.0152701
-3.49726e-06
0.000835669
6.72646e-05
0.00182197
0.000301345
0.00217245
0.000808806
0.00177154
0.00173165
0.000470361
0.00325253
-0.00193453
0.00559229
-0.00570534
0.00900764
-0.0111098
0.0135849
-0.0188956
-0.023936
0.0178911
3.4777e-06
0.000832192
0.00010775
0.00171769
0.000418654
0.00186155
0.00106697
0.00112322
0.00222131
-0.000683971
0.00409364
-0.00380686
0.00692137
-0.00853307
0.0109632
-0.0151516
0.0160585
-0.0239908
-0.031617
0.0237395
1.20828e-05
0.000820109
0.000157062
0.00157271
0.000558351
0.00146026
0.00136974
0.000311833
0.00278689
-0.00210112
0.0050455
-0.00606547
0.0083789
-0.0118665
0.0129734
-0.0197462
0.0185398
-0.0295572
-0.03896
0.0258828
2.33163e-05
0.000796792
0.000217068
0.00137896
0.000724104
0.000953225
0.00172246
-0.000686523
0.00343295
-0.00381161
0.00610305
-0.00873557
0.00993294
-0.0156964
0.0149653
-0.0247786
0.020828
-0.0354198
-0.0458448
0.0277127
3.76193e-05
0.000759173
0.000289421
0.00112716
0.000918951
0.000323696
0.0021286
-0.00189618
0.00415901
-0.00584202
0.00724964
-0.0118262
0.0115282
-0.0199749
0.0168595
-0.0301099
0.0227594
-0.0413197
-0.0521709
0.0290856
5.54161e-05
0.000703757
0.000375419
0.000807158
0.00114485
-0.000445738
0.00258873
-0.00334005
0.00495745
-0.00821074
0.00845432
-0.0153231
0.0130906
-0.0246112
0.0185458
-0.0355651
0.0242489
-0.0470228
-0.0578383
0.0299163
7.70353e-05
0.000626722
0.000475878
0.000408315
0.00140233
-0.00137219
0.00309964
-0.00503737
0.00581202
-0.0109231
0.00967171
-0.0191828
0.0145377
-0.0294772
0.0199299
-0.0409574
0.0252538
-0.0523467
-0.0628024
0.0302178
0.000102689
0.000524033
0.000591054
-8.00499e-05
0.00169019
-0.00247133
0.00365384
-0.00700102
0.00669759
-0.0139669
0.0108459
-0.023331
0.0157917
-0.034423
0.0209516
-0.0461173
0.0257795
-0.0571746
-0.0670787
0.0300558
0.000132468
0.000391565
0.000720592
-0.000668174
0.00200539
-0.00375613
0.00423925
-0.00923488
0.00758124
-0.0173089
0.0119177
-0.0276675
0.016792
-0.0392973
0.0215894
-0.0509147
0.0258673
-0.0614524
-0.0707198
0.0295084
0.000166338
0.000225227
0.000863476
-0.00136531
0.00234288
-0.00523553
0.00483934
-0.0117313
0.00842505
-0.0208946
0.0128337
-0.0320761
0.0175027
-0.0439662
0.0218544
-0.0552664
0.0255773
-0.0651753
-0.0737992
0.0286566
0.000204132
2.1095e-05
0.001018
-0.00217918
0.00269556
-0.00691309
0.00543373
-0.0144695
0.00919024
-0.0246511
0.0135535
-0.0364394
0.0179135
-0.0483263
0.0217804
-0.0591332
0.0249762
-0.0683712
-0.076395
0.0275721
0.000245537
-0.000224442
0.00118173
-0.00311538
0.0030544
-0.00878576
0.00599956
-0.0174147
0.00984189
-0.0284934
0.0140533
-0.0406508
0.0180352
-0.0523082
0.0214128
-0.0625108
0.0241283
-0.0710867
-0.0785814
0.0263147
0.000290092
-0.000514534
0.0013515
-0.00417678
0.00340864
-0.0108429
0.00651351
-0.0205195
0.010353
-0.0323329
0.014326
-0.0446238
0.017893
-0.0558752
0.0208011
-0.0654189
0.0230904
-0.0733759
-0.080423
0.024932
0.00033715
-0.000851683
0.00152341
-0.00536304
0.00374639
-0.0130659
0.00695405
-0.0237272
0.0107067
-0.0360855
0.0143788
-0.048296
0.0175203
-0.0590166
0.0199931
-0.0678918
0.0219103
-0.0752931
-0.0819734
0.0234607
0.00038589
-0.00123757
0.001693
-0.00667015
0.00405538
-0.0154283
0.00730367
-0.0269755
0.0108966
-0.0396785
0.0142286
-0.051628
0.016953
-0.061741
0.0190316
-0.0699704
0.0206266
-0.0768881
-0.0832748
0.0219279
0.000435326
-0.0016729
0.00185533
-0.00809016
0.00432391
-0.0178969
0.00755028
-0.0302018
0.0109256
-0.0430538
0.0138982
-0.0546006
0.0162267
-0.0640694
0.0179535
-0.0716972
0.0192693
-0.0782039
-0.0843593
0.0203538
0.000484324
-0.00215722
0.00200531
-0.00961115
0.00454186
-0.0204334
0.00768773
-0.0333477
0.0108033
-0.0461694
0.0134132
-0.0572105
0.015374
-0.0660302
0.0167893
-0.0731126
0.0178616
-0.0792762
-0.0852507
0.0187529
0.00053165
-0.00268887
0.00213794
-0.0112174
0.00470142
-0.0229969
0.00771553
-0.0363618
0.0105441
-0.0489979
0.0127992
-0.0594657
0.0144235
-0.0676545
0.0155638
-0.0742528
0.0164209
-0.0801333
-0.0859658
0.0171361
0.000576016
-0.00326489
0.00224865
-0.0128901
0.00479759
-0.0255458
0.00763782
-0.0392021
0.0101648
-0.0515249
0.0120808
-0.0613816
0.0133999
-0.0689737
0.0142962
-0.075149
0.0149603
-0.0807974
-0.0865166
0.0155111
0.000616146
-0.00388104
0.0023336
-0.0146075
0.00482826
-0.0280405
0.00746224
-0.041836
0.00968323
-0.0537459
0.0112799
-0.0629782
0.0123235
-0.0700173
0.0130018
-0.0758274
0.0134895
-0.0812852
-0.0869114
0.0138843
0.000650831
-0.00453187
0.00238986
-0.0163466
0.00479404
-0.0304447
0.00719867
-0.0442407
0.00911678
-0.055664
0.010416
-0.0642775
0.0112108
-0.0708122
0.0116923
-0.0763088
0.012016
-0.0816088
-0.0871558
0.0122604
0.000678987
-0.00521085
0.00241561
-0.0180832
0.00469779
-0.0327268
0.00685816
-0.046401
0.00848185
-0.0572877
0.00950591
-0.0653015
0.0100754
-0.0713816
0.0103768
-0.0766102
0.0105452
-0.0817773
-0.0872538
0.0106432
0.000699706
-0.00591056
0.00241009
-0.0197936
0.00454405
-0.0348608
0.00645216
-0.0483091
0.00779335
-0.0586289
0.00856364
-0.0660718
0.00892772
-0.0717457
0.00906204
-0.0767445
0.00908164
-0.0817969
-0.0872078
0.00903563
0.000712283
-0.00662284
0.00237361
-0.0214549
0.00433855
-0.0368257
0.00599189
-0.0499625
0.00706447
-0.0597015
0.00760085
-0.0666082
0.0077763
-0.0719211
0.00775349
-0.0767217
0.00762869
-0.0816721
-0.0870191
0.00744
0.000716244
-0.00733909
0.00230735
-0.023046
0.00408761
-0.038606
0.00548793
-0.0513628
0.00630671
-0.0605203
0.00662716
-0.0669286
0.00662771
-0.0719217
0.0064552
-0.0765492
0.00618907
-0.081406
-0.0866882
0.0058582
0.000711341
-0.00805043
0.00221324
-0.0245479
0.00379783
-0.0401906
0.00494997
-0.0525149
0.00552991
-0.0611002
0.0056504
-0.0670491
0.00548725
-0.0717586
0.00517042
-0.0762324
0.00476482
-0.0810004
-0.0862149
0.00429154
0.000697551
-0.00874798
0.0020937
-0.025944
0.00347567
-0.0415726
0.00438674
-0.053426
0.0047424
-0.0614559
0.00467698
-0.0669837
0.00435937
-0.0714409
0.00390243
-0.0757755
0.00335759
-0.0804555
-0.0855974
0.0027401
0.000675061
-0.00942304
0.00195149
-0.0272205
0.00312735
-0.0427484
0.0038059
-0.0541046
0.00395112
-0.0616011
0.00371203
-0.0667446
0.00324781
-0.0709767
0.00265528
-0.0751829
0.00196979
-0.07977
-0.0848267
0.00119901
0.000644268
-0.0100673
0.00178972
-0.0283659
0.00275863
-0.0437173
0.00321412
-0.0545601
0.0031618
-0.0615487
0.00275954
-0.0663424
0.00215538
-0.0703726
0.00143185
-0.0744594
0.000613078
-0.0789513
-0.0838792
-0.000334356
0.000605748
-0.0106731
0.0016116
-0.0293718
0.00237485
-0.0444806
0.00261713
-0.0548023
0.00237914
-0.0613107
0.00182279
-0.065786
0.00108434
-0.0696341
0.000224116
-0.0735992
-0.000720059
-0.0780071
-0.0828279
-0.00177134
0.000560207
-0.0112333
0.00142013
-0.0302317
0.00198082
-0.0450413
0.00201986
-0.0548414
0.00160682
-0.0608977
0.000904759
-0.065084
2.65814e-05
-0.0687559
-0.000945952
-0.0726266
-0.00203199
-0.076921
-0.0816555
-0.0032044
0.000508449
-0.0117417
0.00121821
-0.0309415
0.00158095
-0.045404
0.00142651
-0.0546869
0.000847567
-0.0603188
-1.2461e-06
-0.0642351
-0.000987179
-0.06777
-0.00209257
-0.0715213
-0.00330804
-0.0757056
-0.0803506
-0.004613
0.000451379
-0.0121931
0.00100862
-0.0314987
0.00117899
-0.0455744
0.000840393
-0.0543483
0.000106247
-0.0595846
-0.000865478
-0.0632634
-0.00198351
-0.066652
-0.00321184
-0.0702929
-0.00455318
-0.0743642
-0.0789133
-0.00599048
0.000389991
-0.0125831
0.000794235
-0.0319029
0.000777799
-0.045558
0.000265849
-0.0538364
-0.000616262
-0.0587025
-0.00171672
-0.062163
-0.00295349
-0.0654152
-0.00430154
-0.0689449
-0.00576698
-0.0728988
-0.0773459
-0.00733435
0.000325209
-0.0129083
0.000578138
-0.0321559
0.00038076
-0.0453606
-0.00029749
-0.0531581
-0.00131973
-0.0576803
-0.00254354
-0.0609392
-0.00389584
-0.0640629
-0.00536067
-0.06748
-0.00694816
-0.0713113
-0.0756526
-0.00864143
0.00025782
-0.0131661
0.000362272
-0.0322603
1.1782e-05
-0.0450101
-0.000844205
-0.0523022
-0.00200321
-0.0565213
-0.00334509
-0.0595973
-0.00480978
-0.0625982
-0.00638862
-0.0659012
-0.00809528
-0.0696046
-0.07384
-0.00990796
0.000189422
-0.0133555
0.000148448
-0.0322193
-0.000398053
-0.0444636
-0.00138084
-0.0513194
-0.00266489
-0.0552372
-0.00412051
-0.0581416
-0.00569457
-0.0610241
-0.00738464
-0.0642111
-0.00920706
-0.0677822
-0.0719129
-0.0111341
0.00011874
-0.0134743
-5.92204e-05
-0.0320414
-0.000773708
-0.0437491
-0.00190071
-0.0501924
-0.00330411
-0.0538338
-0.00486913
-0.0565766
-0.00654975
-0.0593435
-0.00834823
-0.0624127
-0.0102836
-0.0658468
-0.069869
-0.0123275
4.28673e-05
-0.0135171
-0.000290157
-0.0317084
-0.00114015
-0.0428991
-0.00240179
-0.0489307
-0.00392013
-0.0523155
-0.00559068
-0.0549061
-0.00737564
-0.0575586
-0.00928044
-0.0605079
-0.0113239
-0.0638034
-0.0677078
-0.0134851
-3.25657e-05
-0.0134846
-0.000504221
-0.0312367
-0.00149538
-0.0419079
-0.0028835
-0.0475426
-0.0045118
-0.0506872
-0.00628458
-0.0531333
-0.00817286
-0.0556703
-0.0101846
-0.0584962
-0.0123227
-0.0616652
-0.0654443
-0.0145862
-0.000103564
-0.013381
-0.000709901
-0.0306304
-0.0018377
-0.0407801
-0.00334546
-0.0460348
-0.00507838
-0.0489543
-0.0069498
-0.0512619
-0.0089394
-0.0536807
-0.0110591
-0.0563764
-0.013319
-0.0594053
-0.0632173
-0.0155461
-0.000175039
-0.013206
-0.000908418
-0.029897
-0.00216618
-0.0395224
-0.00378707
-0.044414
-0.00561936
-0.047122
-0.00758531
-0.0492959
-0.00967046
-0.0515955
-0.0118758
-0.0541711
-0.0141666
-0.0571145
-0.0604913
-0.0168926
-0.000245164
-0.0129608
-0.00109968
-0.0290425
-0.0024802
-0.0381418
-0.00420789
-0.0426863
-0.00613456
-0.0451953
-0.00819052
-0.04724
-0.0103628
-0.0494232
-0.0126476
-0.0518864
-0.0150619
-0.0547001
-0.0577803
-0.0177729
-0.000313341
-0.0126475
-0.0012832
-0.0280726
-0.0027793
-0.0366457
-0.00460755
-0.040858
-0.00662364
-0.0431792
-0.0087653
-0.0450983
-0.0110228
-0.0471658
-0.0134006
-0.0495086
-0.0159322
-0.0521685
-0.05504
-0.0186725
-0.000379188
-0.0122683
-0.00145848
-0.0269933
-0.00306308
-0.0350411
-0.00498572
-0.0389354
-0.00708621
-0.0410787
-0.00930886
-0.0428757
-0.0116473
-0.0448274
-0.0141113
-0.0470445
-0.0167312
-0.0495487
-0.0522444
-0.0195269
-0.000442396
-0.0118259
-0.00162505
-0.0258107
-0.0033312
-0.033335
-0.0053422
-0.0369244
-0.00752212
-0.0388988
-0.00982147
-0.0405763
-0.0122374
-0.0424114
-0.0147829
-0.044499
-0.0174824
-0.0468492
-0.049383
-0.0203438
-0.000502695
-0.0113232
-0.00178251
-0.0245308
-0.00358336
-0.0315341
-0.00567679
-0.034831
-0.0079312
-0.0366444
-0.0103028
-0.0382047
-0.012792
-0.0399223
-0.0154129
-0.0418781
-0.0181861
-0.0440759
-0.0464519
-0.0211171
-0.000559845
-0.0107633
-0.00193051
-0.0231602
-0.00381934
-0.0296453
-0.00598938
-0.0326609
-0.00831337
-0.0343204
-0.0107529
-0.0357652
-0.0133108
-0.0373644
-0.016002
-0.0391869
-0.0188449
-0.0412331
-0.0434516
-0.0218453
-0.000613635
-0.0101497
-0.00206878
-0.021705
-0.00403895
-0.0276751
-0.00627985
-0.03042
-0.00866854
-0.0319317
-0.0111714
-0.0332624
-0.0137934
-0.0347423
-0.0165501
-0.0364302
-0.0194587
-0.0383245
-0.040384
-0.0225262
-0.00066388
-0.00948583
-0.00219709
-0.0201718
-0.00424203
-0.0256302
-0.00654814
-0.0281139
-0.00899662
-0.0294832
-0.0115582
-0.0307008
-0.0142398
-0.0320607
-0.0170571
-0.0336129
-0.0200272
-0.0353544
-0.0372527
-0.0231586
-0.000710418
-0.00877541
-0.00231523
-0.018567
-0.00442847
-0.023517
-0.00679419
-0.0257482
-0.00929757
-0.0269798
-0.0119132
-0.0280852
-0.0146496
-0.0293243
-0.017523
-0.0307395
-0.0205502
-0.0323271
-0.0340618
-0.0237411
-0.000753109
-0.0080223
-0.00242304
-0.0168971
-0.00459816
-0.0213418
-0.00701796
-0.0233284
-0.00957132
-0.0244265
-0.0122363
-0.0254202
-0.0150228
-0.0265378
-0.0179474
-0.027815
-0.021027
-0.0292475
-0.030816
-0.0242728
-0.000791833
-0.00723047
-0.00252038
-0.0151685
-0.00475103
-0.0191112
-0.00721941
-0.02086
-0.00981782
-0.0218281
-0.0125274
-0.0227107
-0.0153592
-0.023706
-0.01833
-0.0248441
-0.0214572
-0.0261204
-0.0275204
-0.0247528
-0.000826489
-0.00640398
-0.00260715
-0.0133879
-0.00488703
-0.0168313
-0.00739852
-0.0183485
-0.010037
-0.0191896
-0.0127863
-0.0199614
-0.0156585
-0.0208338
-0.0186708
-0.0218318
-0.0218403
-0.0229508
-0.0241803
-0.0251805
-0.000856989
-0.00554699
-0.00268326
-0.0115616
-0.00500612
-0.0145084
-0.00755527
-0.0157994
-0.0102289
-0.0165159
-0.0130131
-0.0171772
-0.0159207
-0.0179261
-0.0189693
-0.0187833
-0.0221761
-0.019744
-0.0208011
-0.0255553
-0.00088326
-0.00466373
-0.00274862
-0.00969626
-0.00510825
-0.0121488
-0.00768965
-0.013218
-0.0103934
-0.0138121
-0.0132076
-0.014363
-0.0161457
-0.014988
-0.0192255
-0.0157035
-0.0224643
-0.0165052
-0.0173884
-0.025877
-0.000905242
-0.00375849
-0.00280317
-0.00779833
-0.00519341
-0.00975857
-0.00780166
-0.0106097
-0.0105306
-0.0110832
-0.0133698
-0.0115239
-0.0163333
-0.0120245
-0.0194392
-0.0125976
-0.0227046
-0.0132397
-0.0139478
-0.0261452
-0.000922887
-0.0028356
-0.00284688
-0.00587433
-0.00526156
-0.00734389
-0.00789128
-0.00798001
-0.0106404
-0.0083341
-0.0134996
-0.00866466
-0.0164835
-0.00904052
-0.0196102
-0.0094709
-0.022897
-0.00995295
-0.010485
-0.0263599
-0.000936155
-0.00189944
-0.0028797
-0.00393079
-0.00531269
-0.00491089
-0.00795851
-0.0053342
-0.0107227
-0.00556991
-0.013597
-0.0057904
-0.0165962
-0.00604126
-0.0197386
-0.00632852
-0.0230414
-0.0066502
-0.0070054
-0.0265209
-0.000945021
-0.000954424
-0.0029016
-0.00197421
-0.0053468
-0.00246569
-0.00800334
-0.00267766
-0.0107776
-0.00279565
-0.0136619
-0.00290609
-0.0166714
-0.00303177
-0.0198242
-0.00317568
-0.0231376
-0.0033368
-0.00351475
-0.0266283
-0.000949465
-4.95931e-06
-0.00291257
-1.11105e-05
-0.00536388
-1.43735e-05
-0.00802579
-1.57545e-05
-0.0108051
-1.63415e-05
-0.0136944
-1.67564e-05
-0.016709
-1.71798e-05
-0.0198671
-1.76257e-05
-0.0231858
-1.80837e-05
-1.85344e-05
-0.026682
-0.000949478
0.000944518
-0.0029126
0.00195201
-0.00536392
0.00243695
-0.00802584
0.00264616
-0.0108052
0.00276297
-0.0136945
0.00287258
-0.0167091
0.00299742
-0.0198671
0.00314043
-0.0231859
0.00330063
0.00347765
-0.0266821
-0.00094506
0.00188958
-0.00290169
0.00390864
-0.00534693
0.0048822
-0.0080035
0.00530273
-0.0107778
0.00553726
-0.0136621
0.00575691
-0.0166716
0.00600691
-0.0198244
0.00629327
-0.0231378
0.00661403
0.0069683
-0.0266285
-0.000936222
0.0028258
-0.00287985
0.00585226
-0.00531291
0.00731526
-0.00795877
0.00794859
-0.010723
0.00830147
-0.0135973
0.00863119
-0.0165966
0.00900619
-0.0197389
0.00943566
-0.0230417
0.00991678
0.0104478
-0.0265212
-0.00092298
0.00374878
-0.00284709
0.00777637
-0.00526186
0.00973003
-0.00789165
0.0105784
-0.0106408
0.0110506
-0.0135
0.0114904
-0.016484
0.0119902
-0.0196107
0.0125624
-0.0228975
0.0132035
0.0139107
-0.0263604
-0.000905363
0.00465414
-0.00280345
0.00967446
-0.0051938
0.0121204
-0.00780214
0.0131867
-0.0105311
0.0137796
-0.0133704
0.0143296
-0.0163339
0.0149538
-0.0194398
0.0156683
-0.0227053
0.016469
0.0173513
-0.0261458
-0.00088341
0.00553755
-0.00274896
0.01154
-0.00510874
0.0144802
-0.00769025
0.0157682
-0.0103941
0.0164835
-0.0132083
0.0171438
-0.0161465
0.0178919
-0.0192263
0.0187481
-0.0224651
0.0197078
0.020764
-0.0258778
-0.000857168
0.00639472
-0.00268366
0.0133665
-0.00500671
0.0168032
-0.00755599
0.0183175
-0.0102297
0.0191572
-0.013014
0.0199281
-0.0159217
0.0207996
-0.0189703
0.0217967
-0.0221771
0.0229146
0.0241431
-0.0255562
-0.000826699
0.00722142
-0.00260763
0.0151474
-0.00488772
0.0190833
-0.00739936
0.0208291
-0.010038
0.0217958
-0.0127874
0.0226775
-0.0156596
0.0236718
-0.0186719
0.0248089
-0.0218415
0.0260842
0.0274832
-0.0251816
-0.000792075
0.00801349
-0.00252094
0.0168763
-0.00475183
0.0213142
-0.00722038
0.0232977
-0.00981892
0.0243944
-0.0125286
0.0253871
-0.0153604
0.0265037
-0.0183313
0.0277799
-0.0214585
0.0292113
0.0307788
-0.024754
-0.000753384
0.00876688
-0.00242367
0.0185466
-0.00459907
0.0234896
-0.00701907
0.0257177
-0.00957258
0.0269479
-0.0122377
0.0280522
-0.0150242
0.0292903
-0.0179488
0.0307044
-0.0210285
0.032291
0.0340246
-0.0242742
-0.000710728
0.00947761
-0.00231594
0.0201518
-0.00442951
0.0256032
-0.00679546
0.0280836
-0.009299
0.0294514
-0.0119147
0.0306679
-0.0146513
0.0320268
-0.0175246
0.0335778
-0.0205519
0.0353182
0.0372154
-0.0237427
-0.000664227
0.0101418
-0.00219789
0.0216855
-0.0042432
0.0276485
-0.00654957
0.03039
-0.00899824
0.0319001
-0.0115599
0.0332296
-0.0142416
0.0347085
-0.017059
0.0363952
-0.0200291
0.0382883
0.0403467
-0.0231604
-0.000614022
0.0107559
-0.00206968
0.0231411
-0.00404027
0.0296191
-0.00628146
0.0326312
-0.00867035
0.034289
-0.0111733
0.0357326
-0.0137955
0.0373306
-0.0165522
0.0391519
-0.0194607
0.0411969
0.0434142
-0.0225282
-0.000560273
0.0113161
-0.00193151
0.0245124
-0.00382081
0.0315084
-0.00599117
0.0348016
-0.0083154
0.0366132
-0.0107551
0.0381723
-0.0133131
0.0398886
-0.0160043
0.0418432
-0.0188472
0.0440397
0.0464145
-0.0218475
-0.000503166
0.0118193
-0.00178361
0.0257928
-0.00358499
0.0333098
-0.00567879
0.0368954
-0.00793346
0.0388679
-0.0103053
0.0405441
-0.0127946
0.0423779
-0.0154155
0.0444641
-0.0181887
0.0468129
0.0493454
-0.0211196
-0.000442912
0.0122622
-0.00162627
0.0269762
-0.00333301
0.0350165
-0.00534442
0.0389068
-0.00752463
0.0410481
-0.00982419
0.0428436
-0.0122402
0.044794
-0.0147858
0.0470097
-0.0174852
0.0495124
0.0522067
-0.0203466
-0.000379751
0.012642
-0.00145983
0.0280562
-0.00306508
0.0366217
-0.00498818
0.0408299
-0.007089
0.0431489
-0.00931188
0.0450665
-0.0116504
0.0471325
-0.0141146
0.0494738
-0.0167344
0.0521322
0.0550022
-0.01953
-0.000313954
0.0129559
-0.00128468
0.029027
-0.00278151
0.0381186
-0.00461027
0.0426586
-0.00662673
0.0451654
-0.00876864
0.0472084
-0.0110263
0.0493901
-0.0134042
0.0518517
-0.0159357
0.0546638
0.0577424
-0.0186759
-0.000245829
0.0132017
-0.00110129
0.0298824
-0.00248263
0.0394999
-0.0042109
0.0443869
-0.00613797
0.0470924
-0.00819421
0.0492647
-0.0103667
0.0515626
-0.0126515
0.0541366
-0.0150659
0.0570782
0.0604534
-0.0177769
-0.000175758
0.0133775
-0.000910177
0.0306168
-0.00216885
0.0407586
-0.00379039
0.0460084
-0.00562313
0.0489252
-0.00758939
0.0512309
-0.00967475
0.053648
-0.0118802
0.056342
-0.0141711
0.0593691
0.0631794
-0.0168971
-0.000104334
0.0134818
-0.000711812
0.0312243
-0.00184064
0.0418874
-0.00334911
0.0475169
-0.00508252
0.0506586
-0.00695429
0.0531027
-0.00894412
0.0556378
-0.011064
0.0584618
-0.0133239
0.061629
0.0654063
-0.0155507
-3.33484e-05
0.0135152
-0.000506298
0.0316973
-0.00149861
0.0428797
-0.00288752
0.0489058
-0.00451635
0.0522874
-0.00628952
0.0548759
-0.00817804
0.0575263
-0.0101899
0.0604736
-0.0123281
0.0637672
0.0676695
-0.0145913
4.19147e-05
0.0134733
-0.000292441
0.0320316
-0.0011437
0.043731
-0.00240619
0.0501683
-0.00392513
0.0538063
-0.0055961
0.0565468
-0.00738134
0.0593116
-0.00928627
0.0623786
-0.0113297
0.0658106
0.0698305
-0.0134907
0.000117772
0.0133555
-6.20563e-05
0.0322115
-0.000777618
0.0444466
-0.00190552
0.0512962
-0.0033096
0.0552104
-0.00487509
0.0581123
-0.00655601
0.0609925
-0.00835464
0.0641772
-0.01029
0.067746
0.0718742
-0.0123337
0.000188469
0.013167
0.000146056
0.0322539
-0.000402332
0.0449949
-0.00138606
0.0522799
-0.00267091
0.0564953
-0.00412706
0.0595685
-0.00570145
0.0625669
-0.00739167
0.0658674
-0.00921408
0.0695684
0.073801
-0.0111409
0.000256828
0.0129102
0.000359596
0.0321511
7.87738e-06
0.0453467
-0.000849809
0.0531376
-0.00200979
0.0576553
-0.00335228
0.060911
-0.00481732
0.0640319
-0.00639633
0.0674464
-0.00810298
0.071275
0.0756135
-0.00991539
0.000324161
0.012586
0.000575209
0.0319001
0.000375927
0.0455459
-0.000303722
0.0538173
-0.00132692
0.0586785
-0.00255145
0.0621355
-0.00390408
0.0653845
-0.00536912
0.0689115
-0.00695661
0.0728625
0.0773064
-0.00864959
0.00038889
0.0121971
0.000791084
0.0314979
0.000772596
0.0455644
0.000259144
0.0543307
-0.000624077
0.0595617
-0.0017255
0.0632369
-0.00296245
0.0666215
-0.0043108
0.0702598
-0.00577627
0.074328
0.0788735
-0.00734331
0.00045024
0.0117469
0.00100528
0.0309428
0.00117341
0.0453963
0.000833082
0.054671
9.77341e-05
0.060297
-0.000875285
0.06421
-0.00199314
0.0677394
-0.00322203
0.0714887
-0.00456338
0.0756693
0.0803105
-0.00600035
0.000507287
0.0112396
0.0012147
0.0302354
0.00157499
0.045036
0.00141862
0.0548274
0.000838523
0.0608771
-9.81971e-06
0.0650583
-0.000997421
0.068727
-0.00210382
0.0725951
-0.00331923
0.0768848
0.0816151
-0.00462388
0.000559035
0.0106806
0.00141646
0.029378
0.00197448
0.044478
0.00201135
0.0547905
0.00159671
0.0612918
0.000893004
0.065762
1.32156e-05
0.0696067
-0.000958321
0.0735666
-0.00204431
0.0779707
0.0827872
-0.00321641
0.00060458
0.010076
0.0016078
0.0283748
0.00236812
0.0437177
0.00260794
0.0545507
0.00236809
0.0615316
0.00181045
0.0663196
0.00107152
0.0703457
0.000210452
0.0744277
-0.000733818
0.078915
0.0838379
-0.00178455
0.000643119
0.00943289
0.00178582
0.0272321
0.00275154
0.042752
0.00320428
0.054098
0.00314989
0.061586
0.00274624
0.0667233
0.00214121
0.0709507
0.00141718
0.0751517
0.000598392
0.0797338
0.0847846
-0.000348291
0.000673949
0.00875894
0.00194754
0.0259585
0.00311994
0.0415795
0.00379543
0.0534225
0.00393831
0.0614431
0.00369759
0.066964
0.00323234
0.071416
0.00263915
0.0757449
0.00195333
0.0804196
0.0855556
0.00118238
0.000696494
0.00806244
0.00208974
0.0245652
0.003468
0.0402013
0.00437565
0.0525148
0.00472865
0.0610901
0.00466134
0.0670313
0.00434251
0.0717348
0.00388472
0.0762027
0.00333947
0.0809649
0.0861729
0.00272209
0.000710356
0.00735209
0.00220933
0.0230663
0.00378995
0.0386207
0.0049383
0.0513665
0.00551521
0.0605132
0.0056335
0.066913
0.00546889
0.0718994
0.00515105
0.0765206
0.00474494
0.081371
0.0866462
0.00427173
0.000715348
0.00663674
0.00230355
0.0214781
0.00407963
0.0368446
0.00547574
0.0499704
0.00629107
0.0596979
0.00660896
0.0665951
0.00660777
0.0719006
0.00643405
0.0766943
0.00616726
0.0816378
0.0869771
0.00583632
0.000711493
0.00592525
0.00236999
0.0198196
0.00433055
0.034884
0.00597928
0.0483217
0.00704792
0.0586292
0.00758134
0.0660617
0.00775469
0.0717272
0.00773042
0.0767185
0.00760476
0.0817635
0.087166
0.00741582
0.000699034
0.00522621
0.00240673
0.0181119
0.00453618
0.0327546
0.00643924
0.0464186
0.00777596
0.0572925
0.00854279
0.0652949
0.00890438
0.0713656
0.00903692
0.076586
0.0090554
0.081745
0.0872125
0.00900894
0.000678445
0.00454777
0.00241257
0.0163777
0.00469017
0.030477
0.0068451
0.0442637
0.00846374
0.0556739
0.00948377
0.0642749
0.0100502
0.0707992
0.0103495
0.0762868
0.0105165
0.081578
0.0871152
0.0106138
0.000650426
0.00389734
0.00238721
0.014641
0.00478685
0.0280773
0.00718566
0.0418649
0.00909811
0.0537614
0.0103926
0.0629803
0.0111839
0.0700079
0.0116627
0.0758079
0.0119846
0.0812562
0.0868719
0.0122279
0.000615882
0.00328146
0.00233139
0.0129255
0.00482166
0.0255871
0.00744954
0.039237
0.00966422
0.0515467
0.0112554
0.0613892
0.0122947
0.0689685
0.0129698
0.0751328
0.0134552
0.0807707
0.0864786
0.0138485
0.000575892
0.00270557
0.00224693
0.0112544
0.00479175
0.0230422
0.0076257
0.036403
0.0101457
0.0490267
0.0120554
0.0594796
0.0133694
0.0676545
0.0142618
0.0742405
0.0149229
0.0801096
0.0859298
0.0154718
0.000531661
0.00217391
0.00213674
0.00964933
0.00469651
0.0204825
0.00770429
0.0333952
0.0105253
0.0462057
0.0127733
0.0572316
0.0143915
0.0660363
0.0155269
0.0731051
0.0163803
0.0792561
0.0852173
0.0170928
0.000484461
0.00168945
0.00200464
0.00812916
0.004538
0.0179491
0.00767772
0.0302555
0.0107853
0.0430981
0.013387
0.0546299
0.0153405
0.0640827
0.01675
0.0716956
0.0178177
0.0781885
0.0843294
0.0187055
0.000435576
0.00125387
0.00185517
0.00670956
0.00432121
0.0154831
0.00754181
0.0270349
0.0109088
0.0397312
0.0138723
0.0516664
0.0161922
0.0617628
0.0179119
0.069976
0.0192219
0.0768784
0.0832493
0.020302
0.00038624
0.00086763
0.00169334
0.00540246
0.00405389
0.0131225
0.00729707
0.0237917
0.0108816
0.0361466
0.0142036
0.0483444
0.0169181
0.0590483
0.018988
0.0679061
0.0205758
0.0752906
0.0819537
0.0218714
0.000337587
0.000530043
0.00152423
0.00421582
0.00374615
0.0109006
0.00694956
0.0205883
0.0106941
0.0324021
0.0143555
0.044683
0.0174856
0.0559183
0.0199479
0.0654437
0.0218562
0.0733823
0.0804106
0.0233993
0.000290611
0.000239432
0.00135277
0.00315366
0.00340964
0.00884372
0.00651132
0.0174867
0.0103433
0.0285701
0.0143052
0.0407211
0.0178594
0.052364
0.0207551
0.0625481
0.0230333
0.0711041
0.0785783
0.0248656
0.000246145
-6.71314e-06
0.00118348
0.00221633
0.00305665
0.00697054
0.00599982
0.0145435
0.00983572
0.0247342
0.0140359
0.0365209
0.0180038
0.0483961
0.0213668
0.0591852
0.0240688
0.0684021
0.0764037
0.0262433
0.000204861
-0.000211575
0.00102027
0.00140093
0.00269912
0.00529169
0.00543653
0.0118061
0.00918797
0.0209827
0.0135406
0.0321682
0.0178856
0.0440511
0.0217356
0.0553352
0.0249151
0.0652225
0.0738229
0.027496
0.000167224
-0.000378799
0.000866357
0.000701793
0.00234784
0.00381021
0.00484479
0.00930913
0.00842703
0.0174005
0.0128262
0.027769
0.0174798
0.0393976
0.0218125
0.0510025
0.0255159
0.0615191
0.0707622
0.0285765
0.000133575
-0.000512373
0.00072423
0.000111138
0.00201193
0.00252251
0.00424749