/*--------------------------------*- C++ -*----------------------------------*\
  =========                 |
  \\      /  F ield         | OpenFOAM: The Open Source CFD Toolbox
   \\    /   O peration     | Website:  https://openfoam.org
    \\  /    A nd           | Version:  7
     \\/     M anipulation  |
\*---------------------------------------------------------------------------*/
FoamFile
{
    version     2.0;
    format      ascii;
    class       volScalarField;
    location    "255";
    object      p;
}
// * * * * * * * * * * * * * * * * * * * * * * * * * * * * * * * * * * * * * //

dimensions      [0 2 -2 0 0 0 0];

internalField   nonuniform List<scalar> 
2125
(
-0.431917
-0.434059
-0.43509
-0.436755
-0.439567
-0.443695
-0.44917
-0.455986
-0.464001
-0.473231
-0.441361
-0.443025
-0.444065
-0.446017
-0.449436
-0.454542
-0.461398
-0.470047
-0.480428
-0.492469
-0.450674
-0.451798
-0.452806
-0.454994
-0.458951
-0.464945
-0.473052
-0.483345
-0.495815
-0.510194
-0.459711
-0.460243
-0.461173
-0.463528
-0.467927
-0.474691
-0.483878
-0.495579
-0.509821
-0.525956
-0.468339
-0.468236
-0.469038
-0.471474
-0.476189
-0.48359
-0.493654
-0.506489
-0.522187
-0.539399
-0.476432
-0.475675
-0.476293
-0.478711
-0.483583
-0.491491
-0.502195
-0.515872
-0.532704
-0.550524
-0.483888
-0.482484
-0.482855
-0.485157
-0.490103
-0.498173
-0.509349
-0.523596
-0.541249
-0.559068
-0.490634
-0.488611
-0.488675
-0.490745
-0.495577
-0.503652
-0.515042
-0.529563
-0.547829
-0.565011
-0.496624
-0.494032
-0.493738
-0.495456
-0.499995
-0.507882
-0.519249
-0.533741
-0.552489
-0.568446
-0.50185
-0.498761
-0.498062
-0.499313
-0.503385
-0.510878
-0.521997
-0.536159
-0.555301
-0.569532
-0.506334
-0.502838
-0.501699
-0.502378
-0.505819
-0.512715
-0.523371
-0.536911
-0.55638
-0.568294
-0.510137
-0.506336
-0.504731
-0.504747
-0.507413
-0.513523
-0.523522
-0.536174
-0.555897
-0.564956
-0.51335
-0.50935
-0.507267
-0.506551
-0.508323
-0.513489
-0.522657
-0.534217
-0.55406
-0.559909
-0.516095
-0.511996
-0.509435
-0.507944
-0.508742
-0.512849
-0.521038
-0.531385
-0.551077
-0.553743
-0.518521
-0.514407
-0.511378
-0.509098
-0.508884
-0.511873
-0.518963
-0.528107
-0.547122
-0.547079
-0.520802
-0.516731
-0.513252
-0.510197
-0.508978
-0.510845
-0.516724
-0.524793
-0.542328
-0.540384
-0.523126
-0.519123
-0.515217
-0.511426
-0.509252
-0.510046
-0.514658
-0.52178
-0.536804
-0.533733
-0.52569
-0.52174
-0.517432
-0.512966
-0.509918
-0.509714
-0.513014
-0.519243
-0.530618
-0.526794
-0.528689
-0.524737
-0.520049
-0.514979
-0.511151
-0.510025
-0.511988
-0.517152
-0.523806
-0.519569
-0.532301
-0.528252
-0.5232
-0.517597
-0.513081
-0.511075
-0.511672
-0.515315
-0.516666
-0.513518
-0.536674
-0.532405
-0.526991
-0.520916
-0.515779
-0.512877
-0.512026
-0.513499
-0.510183
-0.509517
-0.54192
-0.537284
-0.531497
-0.524986
-0.519253
-0.515378
-0.512902
-0.511629
-0.504701
-0.498997
-0.548114
-0.542948
-0.536758
-0.529815
-0.52346
-0.518472
-0.514112
-0.509746
-0.499082
-0.487899
-0.549427
-0.542788
-0.535383
-0.528319
-0.522026
-0.515496
-0.507733
-0.49334
-0.477539
-0.549583
-0.541648
-0.533733
-0.525901
-0.516892
-0.505505
-0.487516
-0.467661
-0.557129
-0.548563
-0.539603
-0.529958
-0.518147
-0.503009
-0.481574
-0.458423
-0.556074
-0.545836
-0.534056
-0.519125
-0.500199
-0.475557
-0.449613
-0.552329
-0.538044
-0.519711
-0.497047
-0.469456
-0.441162
-0.519816
-0.493531
-0.463261
-0.432942
-0.489625
-0.456938
-0.424855
-0.450442
-0.416795
-0.489944
-0.500885
-0.493392
-0.449903
-0.387535
-0.341955
-0.3373
-0.353577
-0.343445
-0.284748
-0.214506
-0.159075
-0.134883
-0.124091
-0.143283
-0.165756
-0.157605
-0.117963
-0.0992836
-0.0773556
-0.071544
-0.0609848
-0.0628345
-0.0793373
-0.082227
-0.0507889
-0.0417655
-0.0515903
-0.0432665
-0.00595644
-0.513729
-0.527884
-0.520863
-0.472183
-0.399115
-0.339859
-0.321681
-0.328942
-0.319399
-0.266729
-0.203664
-0.154807
-0.135586
-0.128328
-0.150467
-0.175328
-0.166127
-0.122343
-0.100379
-0.0772345
-0.0706515
-0.0591271
-0.0606818
-0.0781675
-0.0812969
-0.0504142
-0.0417057
-0.0514509
-0.0433945
-0.0060615
-0.535763
-0.55258
-0.545983
-0.492134
-0.408849
-0.336684
-0.305235
-0.303613
-0.293876
-0.247358
-0.191787
-0.149996
-0.135912
-0.132365
-0.15735
-0.184553
-0.174173
-0.126526
-0.101349
-0.0770878
-0.0698306
-0.0574166
-0.0586203
-0.0769801
-0.0803165
-0.0500317
-0.0416305
-0.0513321
-0.0435603
-0.00616624
-0.555448
-0.574374
-0.568266
-0.5094
-0.416554
-0.332556
-0.288377
-0.278149
-0.26696
-0.226819
-0.178908
-0.144604
-0.135787
-0.136099
-0.163829
-0.193306
-0.18169
-0.130494
-0.102198
-0.0769153
-0.0690752
-0.0558582
-0.0566637
-0.075784
-0.0792934
-0.0496434
-0.0415396
-0.0512321
-0.0437608
-0.00626999
-0.572373
-0.592833
-0.587341
-0.523793
-0.422229
-0.327608
-0.271412
-0.252959
-0.239162
-0.205341
-0.16507
-0.138599
-0.135138
-0.13943
-0.169812
-0.201479
-0.188637
-0.134233
-0.102933
-0.0767164
-0.0683775
-0.0544549
-0.0548234
-0.0745879
-0.0782353
-0.0492513
-0.0414326
-0.0511494
-0.0439928
-0.00637206
-0.585503
-0.608071
-0.602631
-0.535546
-0.4265
-0.321993
-0.254764
-0.228333
-0.211128
-0.183179
-0.150352
-0.131961
-0.133898
-0.142265
-0.175223
-0.20898
-0.194978
-0.13773
-0.103562
-0.076491
-0.0677276
-0.053208
-0.0531078
-0.0734011
-0.0771496
-0.0488567
-0.0413089
-0.0510821
-0.0442522
-0.00647173
-0.595613
-0.619804
-0.614576
-0.544703
-0.429237
-0.315901
-0.238891
-0.204759
-0.183497
-0.160624
-0.134878
-0.124683
-0.132006
-0.144519
-0.179999
-0.215738
-0.200689
-0.140974
-0.104092
-0.0762391
-0.0671144
-0.0521167
-0.0515225
-0.072233
-0.0760434
-0.0484609
-0.0411678
-0.0510284
-0.044535
-0.00656825
-0.602701
-0.628128
-0.623185
-0.551375
-0.430733
-0.310009
-0.223764
-0.18251
-0.157298
-0.138023
-0.118816
-0.116768
-0.129407
-0.146122
-0.184096
-0.221698
-0.205754
-0.143955
-0.104531
-0.0759611
-0.0665262
-0.051178
-0.0500686
-0.0710925
-0.0749231
-0.048065
-0.0410082
-0.0509865
-0.0448368
-0.00666084
-0.607067
-0.633239
-0.628532
-0.555671
-0.431204
-0.304253
-0.210083
-0.161955
-0.133162
-0.115734
-0.102367
-0.108228
-0.126051
-0.147019
-0.18748
-0.226824
-0.21016
-0.146664
-0.104887
-0.0756577
-0.0659506
-0.0503866
-0.0487429
-0.069988
-0.0737942
-0.0476696
-0.0408293
-0.0509545
-0.0451529
-0.00674868
-0.609832
-0.635333
-0.630798
-0.557711
-0.430844
-0.299042
-0.198581
-0.142815
-0.111389
-0.0942128
-0.0857317
-0.0990813
-0.121894
-0.14717
-0.190133
-0.231101
-0.213905
-0.149095
-0.105167
-0.0753299
-0.0653758
-0.0497348
-0.0475392
-0.0689267
-0.0726612
-0.0472754
-0.0406298
-0.0509303
-0.0454783
-0.00683091
-0.608846
-0.634531
-0.63018
-0.557615
-0.429795
-0.294631
-0.188895
-0.12614
-0.0919044
-0.073615
-0.0691184
-0.0893551
-0.116897
-0.146548
-0.192045
-0.234529
-0.216989
-0.151242
-0.105379
-0.0749791
-0.0647906
-0.0492125
-0.0464492
-0.0679146
-0.0715274
-0.0468827
-0.0404085
-0.0509119
-0.0458079
-0.00690661
-0.605423
-0.631029
-0.626844
-0.555538
-0.428186
-0.291177
-0.181219
-0.111913
-0.0749812
-0.0546421
-0.0527789
-0.0790819
-0.111021
-0.145137
-0.193217
-0.237115
-0.219419
-0.153098
-0.10553
-0.0746076
-0.0641853
-0.048808
-0.0454632
-0.0669567
-0.0703948
-0.0464918
-0.0401643
-0.0508971
-0.0461362
-0.00697481
-0.599547
-0.625052
-0.620991
-0.55163
-0.426142
-0.288759
-0.175598
-0.100393
-0.0604458
-0.0381319
-0.0369135
-0.0682854
-0.104231
-0.142931
-0.193657
-0.238875
-0.221201
-0.154661
-0.10563
-0.0742184
-0.0635518
-0.0485076
-0.0445707
-0.0660561
-0.069264
-0.0461029
-0.039896
-0.0508833
-0.0464577
-0.00703446
-0.592192
-0.616871
-0.612849
-0.546056
-0.423766
-0.287401
-0.172028
-0.0916056
-0.0481371
-0.0241381
-0.0216898
-0.0569822
-0.0964874
-0.139928
-0.193382
-0.239826
-0.22234
-0.155924
-0.105679
-0.0738119
-0.0628832
-0.0482921
-0.0437601
-0.0652134
-0.0681341
-0.0457158
-0.0396023
-0.0508683
-0.0467669
-0.00708441
-0.583578
-0.606734
-0.602643
-0.538979
-0.421108
-0.287019
-0.170398
-0.0854213
-0.0379511
-0.0123975
-0.00733035
-0.0451788
-0.0877493
-0.136129
-0.192411
-0.239988
-0.222847
-0.156868
-0.105663
-0.0733818
-0.0621743
-0.0481369
-0.0430181
-0.0644265
-0.0670026
-0.0453305
-0.0392821
-0.0508492
-0.0470596
-0.00712354
-0.573998
-0.59491
-0.590603
-0.530507
-0.418048
-0.287281
-0.170349
-0.081508
-0.0297756
-0.00253777
0.00591114
-0.032882
-0.0779724
-0.131532
-0.190765
-0.239396
-0.222743
-0.157481
-0.105577
-0.0729257
-0.0614242
-0.0480303
-0.0423332
-0.0636852
-0.0658654
-0.0449466
-0.0389346
-0.0508235
-0.0473306
-0.00715107
-0.563774
-0.58175
-0.577068
-0.520862
-0.414566
-0.287987
-0.171655
-0.0796776
-0.0236482
0.00569385
0.0178372
-0.0201245
-0.0671077
-0.126137
-0.188466
-0.238093
-0.222057
-0.157817
-0.105507
-0.0724876
-0.06064
-0.0480037
-0.0417156
-0.0629537
-0.0647164
-0.0445635
-0.0385589
-0.0507877
-0.0475661
-0.00716656
-0.553308
-0.567699
-0.56263
-0.510916
-0.4118
-0.290374
-0.175414
-0.0807411
-0.0201983
0.0120396
0.0281414
-0.00705426
-0.0551194
-0.119917
-0.185529
-0.235976
-0.220704
-0.158008
-0.105635
-0.0721587
-0.0598302
-0.0480968
-0.0412011
-0.0620927
-0.0635504
-0.0441802
-0.0381529
-0.0507349
-0.0477416
-0.00716842
-0.543039
-0.552853
-0.547247
-0.500925
-0.41038
-0.295138
-0.182176
-0.0850223
-0.0195177
0.016629
0.0365841
0.0058453
-0.0419488
-0.112896
-0.181959
-0.232738
-0.21843
-0.157902
-0.105776
-0.0718412
-0.0589676
-0.0481497
-0.0407218
-0.0614751
-0.0623737
-0.0437986
-0.0377117
-0.0506599
-0.0478666
-0.00715121
-0.532167
-0.537037
-0.529022
-0.485913
-0.402293
-0.292991
-0.183316
-0.0858878
-0.0170052
0.0229222
0.0449577
0.0189487
-0.0280414
-0.104969
-0.177826
-0.229675
-0.215698
-0.156479
-0.104635
-0.0708819
-0.0579645
-0.0476213
-0.0399131
-0.0610269
-0.061085
-0.0434206
-0.0372708
-0.050628
-0.0480885
-0.00710523
-0.515653
-0.520463
-0.507823
-0.462844
-0.381277
-0.276296
-0.17113
-0.0767115
-0.00805876
0.0346306
0.0597796
0.0415949
-0.00551797
-0.0948667
-0.178435
-0.232535
-0.214633
-0.153363
-0.101354
-0.0687424
-0.0566939
-0.0461193
-0.0382809
-0.0579795
-0.0586135
-0.0428249
-0.0369526
-0.0508259
-0.0487143
-0.00703198
-0.49156
-0.492436
-0.473017
-0.427673
-0.35209
-0.255521
-0.158008
-0.0688289
-0.00130036
0.0434907
0.0708288
0.0602695
0.0147355
-0.0840087
-0.174726
-0.227467
-0.207243
-0.146935
-0.0970516
-0.0661153
-0.0543401
-0.0446197
-0.0384693
-0.0571206
-0.0572999
-0.0420039
-0.0363298
-0.0501789
-0.0490601
-0.0069182
-0.46517
-0.461922
-0.437596
-0.393432
-0.324665
-0.236674
-0.146481
-0.062378
0.00367611
0.0501168
0.0808249
0.0767474
0.0310131
-0.075162
-0.169822
-0.219367
-0.197692
-0.139687
-0.0924228
-0.0632309
-0.0517851
-0.0431135
-0.0387959
-0.0557572
-0.0563798
-0.0409316
-0.0355266
-0.0491846
-0.0491614
-0.00680921
-0.437065
-0.430702
-0.403348
-0.360811
-0.298529
-0.218833
-0.135846
-0.0570088
0.007023
0.0544443
0.0890855
0.0919797
0.0461852
-0.0664455
-0.164328
-0.209324
-0.186218
-0.131395
-0.0873281
-0.0601059
-0.0489608
-0.0415525
-0.0390381
-0.0543131
-0.0552636
-0.0396811
-0.0346561
-0.0481082
-0.0489874
-0.00669674
-0.407447
-0.399571
-0.370818
-0.330179
-0.273946
-0.202175
-0.126178
-0.0526336
0.00887794
0.0564147
0.0944967
0.104469
0.0596683
-0.0572189
-0.157345
-0.196552
-0.172791
-0.122137
-0.0818101
-0.0567414
-0.0458675
-0.0398695
-0.0392158
-0.0528145
-0.0539024
-0.0383441
-0.0337564
-0.0469162
-0.0484783
-0.00657321
-0.377353
-0.369164
-0.340323
-0.301814
-0.251089
-0.18671
-0.11741
-0.0491263
0.00946532
0.0562486
0.0965464
0.112612
0.0697477
-0.0476779
-0.147725
-0.180996
-0.157685
-0.11205
-0.075905
-0.0531348
-0.0424937
-0.0380191
-0.0392707
-0.0511834
-0.0523705
-0.0369373
-0.0328047
-0.0455307
-0.047586
-0.00642997
-0.347754
-0.339885
-0.311953
-0.27576
-0.229987
-0.172398
-0.109465
-0.0463842
0.00901857
0.0542825
0.0952635
0.115407
0.0754145
-0.0379386
-0.134756
-0.16291
-0.141323
-0.101336
-0.0696671
-0.0492839
-0.0388345
-0.0359394
-0.0391053
-0.0493519
-0.0506668
-0.0354319
-0.0317767
-0.0439222
-0.0462691
-0.00625633
-0.319155
-0.311956
-0.285629
-0.25191
-0.210589
-0.159182
-0.102254
-0.0443096
0.0077313
0.0508805
0.0909979
0.112881
0.0769719
-0.0277948
-0.118251
-0.142846
-0.124255
-0.0902513
-0.0631621
-0.0451857
-0.034888
-0.0335569
-0.0386014
-0.0472293
-0.0487195
-0.0338029
-0.03067
-0.0420776
-0.0444905
-0.00603955
-0.291872
-0.285505
-0.261213
-0.230088
-0.192805
-0.146993
-0.0957002
-0.0427961
0.00575057
0.046407
0.0844366
0.10611
0.075621
-0.0170732
-0.0988317
-0.121715
-0.107119
-0.0790851
-0.056464
-0.0408368
-0.0306568
-0.0307866
-0.0376211
-0.0446992
-0.0464305
-0.0320415
-0.0294886
-0.0399795
-0.0422207
-0.00576513
-0.266102
-0.260595
-0.238559
-0.210104
-0.176521
-0.135763
-0.0897358
-0.0417311
0.00321334
0.0411819
0.076356
0.0966655
0.0725196
-0.00624844
-0.0781281
-0.100692
-0.0905457
-0.0681224
-0.0496485
-0.0362348
-0.0261477
-0.0275315
-0.0360029
-0.0416242
-0.043691
-0.03014
-0.0282285
-0.0376088
-0.039441
-0.0054172
-0.241927
-0.237245
-0.217539
-0.191773
-0.161616
-0.125422
-0.0843011
-0.0410046
0.000264712
0.0354546
0.0674239
0.0859619
0.0681897
0.00351275
-0.0582668
-0.0809233
-0.0750451
-0.0576044
-0.0427881
-0.0313823
-0.0213742
-0.0236821
-0.033563
-0.0378462
-0.0403738
-0.0280761
-0.026872
-0.0349506
-0.0361486
-0.00497939
-0.219365
-0.215451
-0.198047
-0.174936
-0.147972
-0.115905
-0.0793378
-0.0405168
-0.00294536
0.0294246
0.0581438
0.0749095
0.0626925
0.0111045
-0.0408875
-0.0632182
-0.0609357
-0.0477046
-0.0359508
-0.0262909
-0.0163611
-0.0191203
-0.0300998
-0.0331873
-0.0363185
-0.0258094
-0.0253841
-0.0319958
-0.0323613
-0.0044366
-0.198415
-0.195196
-0.179994
-0.159455
-0.135475
-0.107146
-0.0747862
-0.0401799
-0.00626441
0.0233209
0.0488862
0.0639972
0.0561614
0.0160616
-0.0267461
-0.0479612
-0.0483494
-0.0385293
-0.029202
-0.0209873
-0.0111492
-0.0137453
-0.0253975
-0.0274566
-0.0313291
-0.0232855
-0.0237073
-0.0287432
-0.0281193
-0.00377762
-0.179049
-0.176445
-0.163307
-0.145216
-0.12402
-0.0990818
-0.0705877
-0.0399166
-0.00955184
0.0172751
0.0399316
0.0535324
0.0490062
0.0186217
-0.0158124
-0.0351815
-0.0372921
-0.0301295
-0.0226089
-0.0155209
-0.00579414
-0.00750852
-0.0192663
-0.020471
-0.0251878
-0.0204429
-0.0217621
-0.0252031
-0.0234909
-0.00299918
-0.161226
-0.159158
-0.147917
-0.132123
-0.113511
-0.0916508
-0.0666871
-0.0396596
-0.0126825
0.0114501
0.0315022
0.0437546
0.041717
0.0193276
-0.0076281
-0.0247017
-0.027699
-0.022518
-0.0162435
-0.00996782
-0.000368063
-0.000429279
-0.0115976
-0.012106
-0.0177016
-0.0172189
-0.0194491
-0.0213979
-0.0185779
-0.0021116
-0.14489
-0.143284
-0.13376
-0.120093
-0.103865
-0.0847952
-0.0630339
-0.0393524
-0.0155537
0.00599429
0.0237577
0.0348324
0.0346777
0.0187232
-0.00161463
-0.0162703
-0.0194752
-0.0156841
-0.0101873
-0.00442564
0.00503211
0.00738004
-0.00241853
-0.00237815
-0.00880463
-0.0135407
-0.016669
-0.0173663
-0.0135084
-0.00114308
-0.129979
-0.128763
-0.120777
-0.109057
-0.0950083
-0.0784621
-0.0595865
-0.0389506
-0.0180866
0.00102759
0.0167928
0.0268613
0.0281303
0.0172306
0.00279614
-0.00964263
-0.0125153
-0.0096043
-0.00453184
0.000995093
0.0102837
0.0156375
0.00801767
0.00847375
0.00132476
-0.00933893
-0.013354
-0.0131572
-0.00843111
-0.000136399
-0.11642
-0.115533
-0.108909
-0.0989515
-0.0868798
-0.0726047
-0.0563122
-0.0384227
-0.02023
-0.0033677
0.0106513
0.0198757
0.0222104
0.0151041
0.00294776
-0.0046387
-0.00670433
-0.00424908
0.000634649
0.00617071
0.0152469
0.0238404
0.0191193
0.0198916
0.01214
-0.00457741
-0.00948996
-0.00874249
-0.00352223
0.000862786
-0.104156
-0.103535
-0.0981058
-0.0897247
-0.0794287
-0.0671847
-0.053188
-0.0377517
-0.0219601
-0.00714591
0.00533977
0.0138609
0.0170037
0.0129506
0.00490657
-0.000715848
-0.00190609
0.000414177
0.0052516
0.0109662
0.0197819
0.0313192
0.0299676
0.0308436
0.022648
0.000731527
-0.00513224
-0.00445807
0.00101915
0.00181109
-0.0931167
-0.0927205
-0.0883193
-0.0813295
-0.0726138
-0.0621721
-0.050201
-0.0369356
-0.0232766
-0.0102965
0.000837245
0.00876817
0.0125194
0.0108617
0.00602212
0.00229217
0.00200402
0.0044197
0.00929327
0.0152581
0.023806
0.0374014
0.0390895
0.0399334
0.0315981
0.0065243
-0.000396459
-0.000338581
0.00500008
0.0026701
-0.0832304
-0.0830192
-0.0794978
-0.0737257
-0.0664026
-0.0575469
-0.0473489
-0.0359838
-0.0241996
-0.0128405
-0.00290003
0.00452637
0.00872478
0.00890443
0.00654678
0.00454837
0.0051424
0.00780521
0.0127581
0.0189448
0.0272302
0.0416921
0.0455082
0.046136
0.0380714
0.0125777
0.00450066
0.00348265
0.00826508
0.00341022
-0.0744342
-0.0743622
-0.0715943
-0.0668795
-0.0607717
-0.0532973
-0.0446371
-0.0349202
-0.0247643
-0.0148221
-0.00593114
0.00105061
0.00556408
0.00713395
0.00667987
0.00619504
0.00761807
0.0106132
0.0156604
0.0219689
0.0299688
0.0440629
0.049025
0.0493533
0.0419141
0.0183662
0.009218
0.00686605
0.0107277
0.00402069
-0.0666802
-0.0667336
-0.0645805
-0.060767
-0.0557055
-0.0494201
-0.0420795
-0.033777
-0.0250202
-0.016302
-0.00832776
-0.00174949
0.00296922
0.00558768
0.00656452
0.00735918
0.00953229
0.0128923
0.0180239
0.0243352
0.031996
0.0448107
0.0503174
0.0503857
0.0436181
0.0232779
0.013419
0.00970279
0.01239
0.00450893
-0.0599074
-0.060061
-0.0584217
-0.0553677
-0.0511947
-0.0459215
-0.0396996
-0.0325944
-0.0250254
-0.0173523
-0.0101705
-0.00396342
0.00086133
0.00409229
0.00629509
0.00815121
0.0109776
0.0146961
0.0198849
0.0261004
0.0333576
0.0444682
0.050111
0.0501205
0.043898
0.0269558
0.016899
0.0119822
0.0133407
0.00488606
-0.054084
-0.0543172
-0.0530942
-0.0506714
-0.0472414
-0.042815
-0.037526
-0.0314201
-0.0248402
-0.0180459
-0.0115413
-0.00567205
-0.000792565
0.00298945
0.00597721
0.00866792
0.0120383
0.0160823
0.0212953
0.0273482
0.0341623
0.043533
0.0490106
0.049173
0.0433986
0.0294229
0.0196158
0.0137626
0.0137286
0.00515515
-0.0491825
-0.0494737
-0.0486014
-0.0466819
-0.0438556
-0.0401206
-0.0355936
-0.0303044
-0.0245333
-0.0184622
-0.0125234
-0.00695769
-0.0020681
0.00208851
0.00565475
0.00898656
0.0127909
0.01711
0.0223194
0.0281761
0.0345468
0.0423738
0.0474887
0.0479183
0.0425805
0.0309318
0.0216244
0.0151318
0.0137289
0.00531033
-0.0451899
-0.0455235
-0.0449182
-0.0433995
-0.0410523
-0.0378671
-0.0339434
-0.0293004
-0.0241725
-0.0186863
-0.0131953
-0.0078981
-0.00299684
0.00138816
0.00536105
0.00916827
0.013303
0.0178392
0.0230281
0.0286827
0.0346497
0.0412331
0.0458977
0.0466006
0.0417248
0.0317687
0.0230174
0.016172
0.013515
0.00535338
-0.0421147
-0.0424778
-0.0420674
-0.0408461
-0.0388602
-0.0360909
-0.0326208
-0.0284639
-0.0238237
-0.0187691
-0.0136167
-0.00848115
-0.00365722
0.000873355
0.00511844
0.00926086
0.0136328
0.0183267
0.0234902
0.0289606
0.0345945
0.0402615
0.0444879
0.0454049
0.0409882
0.0321773
0.0239068
0.01694
0.0132303
0.00531217
-0.039988
-0.0403703
-0.0400919
-0.0390807
-0.0373229
-0.0348427
-0.0316777
-0.0278468
-0.0235275
-0.0187748
-0.0138644
-0.00888405
-0.00408717
0.000530264
0.00494313
0.00930042
0.0138268
0.0186222
0.0237641
0.0290913
0.0344846
0.0395498
0.0434347
0.0444887
0.040452
0.0323411
0.0244163
0.0174581
0.0129749
0.00523875
-0.0388664
-0.0392607
-0.0390536
-0.0381597
-0.0365635
-0.0341937
-0.0311747
-0.0275046
-0.023332
-0.0187564
-0.0139775
-0.00908107
-0.00430132
0.000354627
0.00485025
0.00931261
0.0139181
0.0187622
0.0238926
0.0291374
0.0344026
0.0391621
0.0428577
0.0439823
0.040168
0.0323874
0.0246499
0.0177278
0.0128197
0.00518086
-0.378919
-0.387435
-0.395928
-0.404486
-0.413208
-0.422207
-0.431591
-0.441614
-0.45229
-0.464961
-0.478378
-0.500519
-0.354651
-0.363063
-0.371486
-0.380017
-0.388741
-0.397837
-0.407338
-0.417786
-0.428658
-0.442039
-0.454205
-0.474289
-0.330927
-0.339084
-0.347268
-0.355574
-0.364039
-0.372863
-0.381896
-0.39171
-0.401307
-0.41279
-0.422929
-0.440035
-0.308387
-0.316217
-0.324064
-0.332007
-0.340023
-0.348285
-0.356556
-0.36539
-0.373991
-0.384279
-0.394272
-0.409348
-0.2868
-0.294198
-0.301591
-0.309045
-0.316525
-0.324197
-0.331901
-0.340128
-0.34837
-0.357834
-0.3673
-0.380032
-0.26608
-0.272979
-0.279867
-0.286803
-0.293776
-0.30092
-0.308138
-0.315715
-0.323313
-0.331565
-0.340053
-0.350969
-0.246305
-0.25269
-0.259066
-0.265477
-0.27192
-0.278468
-0.285057
-0.291832
-0.29866
-0.305931
-0.313696
-0.323327
-0.22752
-0.233388
-0.23924
-0.245105
-0.250981
-0.256911
-0.262879
-0.268979
-0.275199
-0.281739
-0.288772
-0.297223
-0.209725
-0.215077
-0.220408
-0.225736
-0.231071
-0.236442
-0.241858
-0.247365
-0.252974
-0.258779
-0.265005
-0.272413
-0.192914
-0.197769
-0.2026
-0.207422
-0.212244
-0.217084
-0.221951
-0.226864
-0.231848
-0.236975
-0.242474
-0.24899
-0.177083
-0.181465
-0.18582
-0.190157
-0.194483
-0.19881
-0.203147
-0.207512
-0.211932
-0.216467
-0.221306
-0.227006
-0.162215
-0.166152
-0.170056
-0.173935
-0.177796
-0.181649
-0.185502
-0.189369
-0.193271
-0.197255
-0.201477
-0.206429
-0.14829
-0.151812
-0.155297
-0.158753
-0.162186
-0.165602
-0.169008
-0.172413
-0.175834
-0.179312
-0.182977
-0.187257
-0.135287
-0.138426
-0.141526
-0.144593
-0.147631
-0.150645
-0.15364
-0.156625
-0.159611
-0.162636
-0.165803
-0.169481
-0.123179
-0.125968
-0.128716
-0.131428
-0.134107
-0.136756
-0.139381
-0.141987
-0.144584
-0.147201
-0.149924
-0.153066
-0.114412
-0.116842
-0.119233
-0.121587
-0.123908
-0.1262
-0.128466
-0.130714
-0.132969
-0.1353
-0.137969
-0.10373
-0.105873
-0.107975
-0.110039
-0.112067
-0.114061
-0.116025
-0.117965
-0.1199
-0.121886
-0.124141
-0.0938926
-0.0957792
-0.0976245
-0.0994299
-0.101197
-0.102928
-0.104626
-0.106294
-0.107948
-0.109633
-0.111527
-0.0848707
-0.08653
-0.0881476
-0.0897248
-0.0912626
-0.0927623
-0.0942262
-0.0956576
-0.0970686
-0.0984945
-0.100079
-0.0766365
-0.0780956
-0.0795131
-0.0808899
-0.0822266
-0.0835243
-0.0847846
-0.0860099
-0.0872095
-0.0884112
-0.0897295
-0.0691642
-0.0704482
-0.071691
-0.0728931
-0.0740552
-0.0751778
-0.0762622
-0.0773102
-0.078329
-0.0793404
-0.080434
-0.0624307
-0.0635628
-0.0646544
-0.0657058
-0.0667175
-0.0676899
-0.0686239
-0.0695209
-0.0703861
-0.0712362
-0.0721402
-0.0564158
-0.0574173
-0.0583793
-0.0593018
-0.0601851
-0.0610296
-0.061836
-0.0626053
-0.0633414
-0.0640568
-0.0648038
-0.0511038
-0.0519942
-0.052846
-0.0536592
-0.054434
-0.0551706
-0.0558695
-0.0565315
-0.0571594
-0.0577623
-0.0583787
-0.0464846
-0.0472818
-0.0480413
-0.0487632
-0.0494476
-0.0500946
-0.0507045
-0.051278
-0.0518171
-0.0523281
-0.0528387
-0.042557
-0.0432776
-0.0439616
-0.0446089
-0.0452196
-0.0457937
-0.0463316
-0.0468336
-0.0473012
-0.0477386
-0.0481645
-0.0393262
-0.0399859
-0.0406099
-0.0411982
-0.0417507
-0.0422676
-0.0427491
-0.0431953
-0.0436073
-0.0439876
-0.0443483
-0.0368188
-0.0374322
-0.0380108
-0.0385546
-0.0390635
-0.0395376
-0.0399769
-0.0403817
-0.0407527
-0.041091
-0.0414036
-0.0350631
-0.0356459
-0.0361947
-0.0367093
-0.0371899
-0.0376362
-0.0380484
-0.0384266
-0.0387711
-0.0390823
-0.0393637
-0.0341245
-0.0346896
-0.0352217
-0.0357207
-0.0361864
-0.0366188
-0.0370179
-0.0373836
-0.0377163
-0.0380155
-0.0382831
-0.0517517
-0.0431788
-0.00585175
)
;

boundaryField
{
    inlet
    {
        type            zeroGradient;
    }
    outlet
    {
        type            fixedValue;
        value           uniform 0;
    }
    cylinder
    {
        type            zeroGradient;
    }
    top
    {
        type            symmetryPlane;
    }
    bottom
    {
        type            symmetryPlane;
    }
    defaultFaces
    {
        type            empty;
    }
    procBoundary3to1
    {
        type            processor;
        value           nonuniform List<scalar> 
41
(
-0.422486
-0.425038
-0.426028
-0.427373
-0.429536
-0.432628
-0.436633
-0.441486
-0.446929
-0.452992
-0.465074
-0.472284
-0.464244
-0.425783
-0.374364
-0.342892
-0.351693
-0.376788
-0.365707
-0.301262
-0.224287
-0.162834
-0.133882
-0.119752
-0.135911
-0.155969
-0.148671
-0.113405
-0.0980564
-0.0774516
-0.0725118
-0.0629837
-0.0650628
-0.0804813
-0.0830991
-0.0511536
-0.0418099
-0.0519367
-0.0431337
-0.00574808
-0.0418099
)
;
    }
    procBoundary3to2
    {
        type            processor;
        value           nonuniform List<scalar> 
50
(
-0.555291
-0.555291
-0.556728
-0.556728
-0.564846
-0.565409
-0.565409
-0.564121
-0.564121
-0.558963
-0.541768
-0.541768
-0.519364
-0.519364
-0.485298
-0.485298
-0.443709
-0.408663
-0.408663
-0.370295
-0.346177
-0.322739
-0.30054
-0.279384
-0.259159
-0.239897
-0.221627
-0.204341
-0.188025
-0.172664
-0.158239
-0.144728
-0.132105
-0.120346
-0.111941
-0.111941
-0.101545
-0.0919634
-0.0831688
-0.0751352
-0.0678387
-0.061258
-0.0553746
-0.0501747
-0.0456499
-0.0417998
-0.0386309
-0.0361707
-0.0344466
-0.0335266
)
;
    }
}


// ************************************************************************* //
