/*--------------------------------*- C++ -*----------------------------------*\
  =========                 |
  \\      /  F ield         | OpenFOAM: The Open Source CFD Toolbox
   \\    /   O peration     | Website:  https://openfoam.org
    \\  /    A nd           | Version:  7
     \\/     M anipulation  |
\*---------------------------------------------------------------------------*/
FoamFile
{
    version     2.0;
    format      ascii;
    class       surfaceScalarField;
    location    "80";
    object      phi;
}
// * * * * * * * * * * * * * * * * * * * * * * * * * * * * * * * * * * * * * //

dimensions      [0 3 -1 0 0 0 0];

internalField   nonuniform List<scalar> 
4136
(
-0.000953232
-3.38814e-05
-0.00292287
-6.6522e-05
-7.9121e-05
-0.000953149
0.000919267
-0.00292263
0.00190296
-0.00538071
0.00237895
-0.008049
0.00258639
-0.0108343
0.00270399
-0.0137293
0.00281521
-0.0167492
0.00294209
-0.0199121
0.00308752
-0.0232352
0.00325051
0.00343073
-0.0267351
-0.000948646
0.00186791
-0.0029115
0.00386581
-0.00536334
0.0048308
-0.00802615
0.0052492
-0.0108063
0.00548413
-0.0136961
0.00570507
-0.0167108
0.00595677
-0.0198684
0.00624511
-0.0231861
0.00656816
0.00692506
-0.0266804
-0.000939735
0.00280765
-0.00288946
0.00581554
-0.00532901
0.00727035
-0.00798099
0.00790118
-0.010751
0.00825409
-0.0136307
0.00858478
-0.016635
0.00896113
-0.0197821
0.00939217
-0.023089
0.00987508
0.0104082
-0.0265722
-0.000926433
0.00373408
-0.00285655
0.00774566
-0.00527771
0.00969151
-0.00791353
0.010537
-0.0106683
0.0110089
-0.0135329
0.0114494
-0.0165219
0.0119501
-0.0196532
0.0125235
-0.0229441
0.013166
0.0138746
-0.0264105
-0.000908767
0.00464285
-0.00281279
0.00964968
-0.00520946
0.0120882
-0.00782376
0.0131513
-0.0105584
0.0137435
-0.0134028
0.0142939
-0.0163714
0.0149186
-0.0194818
0.0156339
-0.0227513
0.0164355
0.0173187
-0.0261954
-0.000886776
0.00552962
-0.00275821
0.0115211
-0.00512426
0.0144542
-0.00771169
0.0157387
-0.0104211
0.0164529
-0.0132405
0.0171133
-0.0161836
0.0178617
-0.0192679
0.0187182
-0.0225107
0.0196783
0.0207349
-0.0259269
-0.000860507
0.00639013
-0.00269286
0.0133535
-0.00502215
0.0167835
-0.00757732
0.0182939
-0.0102566
0.0191321
-0.013046
0.0199027
-0.0159586
0.0207742
-0.0190117
0.0217713
-0.0222225
0.0228891
0.0241176
-0.0256052
-0.000830021
0.00722015
-0.0026168
0.0151403
-0.00490315
0.0190699
-0.00742067
0.0208114
-0.0100648
0.0217763
-0.0128194
0.0226573
-0.0156965
0.0236513
-0.0187132
0.0247881
-0.0218869
0.0260628
0.0274612
-0.0252305
-0.000795389
0.00801554
-0.00253012
0.016875
-0.00476729
0.021307
-0.00724175
0.0232859
-0.0098458
0.0243803
-0.0125606
0.0253721
-0.0153974
0.0264881
-0.0183728
0.0277635
-0.021504
0.029194
0.0307603
-0.0248031
-0.000756699
0.00877224
-0.00243288
0.0185512
-0.00461461
0.0234888
-0.00704056
0.0257118
-0.00959961
0.0269394
-0.0122699
0.0280424
-0.0150614
0.0292796
-0.0179905
0.0306926
-0.0210743
0.0322777
0.0340097
-0.0243237
-0.000714051
0.00948629
-0.00232522
0.0201623
-0.00444518
0.0256087
-0.00681715
0.0280838
-0.00932628
0.0294485
-0.0119473
0.0306635
-0.0146888
0.032021
-0.0175667
0.0335706
-0.0205982
0.0353091
0.0372042
-0.0237927
-0.000667565
0.0101539
-0.00220725
0.021702
-0.00425906
0.0276605
-0.00657153
0.0303963
-0.00902585
0.0319028
-0.0115929
0.0332305
-0.0142796
0.0347077
-0.0171017
0.0363927
-0.020076
0.0382835
0.0403393
-0.0232111
-0.000617378
0.0107712
-0.00207915
0.0231638
-0.00405634
0.0296377
-0.00630375
0.0326437
-0.00869839
0.0342975
-0.0112068
0.0357388
-0.013834
0.037335
-0.0165955
0.0391542
-0.0195085
0.0411965
0.0434107
-0.0225798
-0.000563651
0.0113349
-0.00194111
0.0245413
-0.00383716
0.0315338
-0.00601386
0.0348204
-0.00834394
0.0366275
-0.0107891
0.038184
-0.0133523
0.0398982
-0.0160485
0.0418503
-0.0188959
0.0440439
0.046415
-0.0219002
-0.000506567
0.0118415
-0.00179335
0.025828
-0.00360165
0.0333421
-0.00570194
0.0369207
-0.00796259
0.0388882
-0.01034
0.0405614
-0.0128346
0.0423928
-0.0154606
0.0444763
-0.0182385
0.0468217
0.0493501
-0.0211736
-0.000446335
0.0122878
-0.00163616
0.0270179
-0.00335
0.0350559
-0.00536809
0.0389388
-0.00755442
0.0410745
-0.00985972
0.0428667
-0.0122812
0.0448143
-0.0148319
0.047027
-0.0175362
0.0495261
0.0522158
-0.0204019
-0.000383193
0.012671
-0.00146988
0.0281046
-0.00308244
0.0366685
-0.00501243
0.0408688
-0.00711953
0.0431816
-0.00934829
0.0450955
-0.0116924
0.0471585
-0.0141619
0.0494964
-0.0167868
0.052151
0.055016
-0.019587
-0.000317409
0.0129884
-0.00129489
0.029082
-0.00279927
0.0381728
-0.00463514
0.0427046
-0.00665807
0.0452045
-0.00880603
0.0472435
-0.0110694
0.0494219
-0.0134528
0.0518798
-0.0159896
0.0546878
0.0577612
-0.0187348
-0.000249288
0.0132377
-0.00111165
0.0299444
-0.0025008
0.039562
-0.00423643
0.0444403
-0.00617018
0.0471383
-0.00823265
0.0493059
-0.0104111
0.0516003
-0.0127015
0.0541703
-0.0151213
0.0571076
0.0604776
-0.0178377
-0.000179208
0.0134169
-0.000920673
0.0306859
-0.00218744
0.0408288
-0.00381662
0.0460694
-0.00565627
0.0489779
-0.00762895
0.0512786
-0.00972044
0.0536918
-0.0119317
0.0563815
-0.0142279
0.0594038
0.0632093
-0.0169596
-0.000107746
0.0135246
-0.000722428
0.0313005
-0.00185966
0.041966
-0.00337608
0.0475859
-0.00511666
0.0507185
-0.00699505
0.053157
-0.00899122
0.0556879
-0.0111171
0.0585075
-0.0133829
0.0616696
0.0654414
-0.015615
-3.65758e-05
0.0135612
-0.000517031
0.031781
-0.00151805
0.042967
-0.00291524
0.048983
-0.00455153
0.0523548
-0.00633155
0.054937
-0.00822663
0.057583
-0.0102448
0.0605256
-0.0123892
0.0638139
0.0677105
-0.0146583
3.82982e-05
0.0135229
-0.000303369
0.0321227
-0.00116355
0.0438272
-0.00243467
0.0502542
-0.00396139
0.0538815
-0.00563947
0.0566151
-0.00743148
0.059375
-0.00934301
0.0624372
-0.0113928
0.0658638
0.0698776
-0.0135599
0.000114436
0.0134085
-7.42955e-05
0.0323114
-0.000797806
0.0445507
-0.00193478
0.0513911
-0.00334697
0.0552937
-0.00491983
0.058188
-0.00660777
0.0610629
-0.00841324
0.0642426
-0.0103552
0.0678058
0.0719275
-0.0124052
0.000185507
0.013223
0.000136223
0.0323607
-0.000422717
0.0451096
-0.00141612
0.0523845
-0.00270938
0.056587
-0.00417323
0.0596518
-0.00575488
0.0626446
-0.00745218
0.0659399
-0.0092815
0.0696351
0.0738608
-0.0112148
0.000254021
0.0129689
0.000349072
0.0322656
-1.38871e-05
0.0454726
-0.000880558
0.0532512
-0.00204935
0.0577558
-0.00339992
0.0610024
-0.00487247
0.0641171
-0.00645879
0.0675263
-0.00817262
0.0713489
0.0756801
-0.00999188
0.000321479
0.0126475
0.0005649
0.0320222
0.000355765
0.0456817
-0.000335
0.053942
-0.00136752
0.0587883
-0.00260061
0.0622355
-0.00396098
0.0654775
-0.00543357
0.0689988
-0.00702853
0.0729439
0.0773803
-0.00872872
0.000386446
0.012261
0.00078106
0.0316276
0.000751999
0.0457108
0.000227734
0.0544662
-0.000665559
0.0596816
-0.00177628
0.0633462
-0.00302112
0.0667224
-0.00437723
0.070355
-0.00585049
0.0744171
0.0789549
-0.00742516
0.000448077
0.0118129
0.000995617
0.0310801
0.00115285
0.0455536
0.000800946
0.0548181
5.50208e-05
0.0604275
-0.00092777
0.064329
-0.00205359
0.0678482
-0.00329044
0.0715918
-0.00463996
0.0757667
0.0804
-0.006085
0.000505448
0.0113075
0.00120556
0.0303799
0.00155471
0.0452044
0.00138625
0.0549866
0.000795533
0.0610182
-6.01767e-05
0.0651847
-0.00105969
0.0688477
-0.00217404
0.0727062
-0.00339825
0.0769909
0.0817131
-0.00471139
0.000557569
0.0107499
0.00140802
0.0295295
0.0019547
0.0446578
0.0019789
0.0549624
0.00155254
0.0614446
0.000838231
0.065899
-4.80114e-05
0.0697339
-0.00103005
0.0736882
-0.00212592
0.0780867
0.082894
-0.00330677
0.000603532
0.0101464
0.00160023
0.0285328
0.00234907
0.0439089
0.00257559
0.0547359
0.00232316
0.061697
0.00175447
0.0664677
0.00100493
0.0704835
0.000133652
0.0745595
-0.000818921
0.0790393
0.0839525
-0.00187746
0.000642531
0.00950386
0.00177931
0.027396
0.00273353
0.0429547
0.00317233
0.0542971
0.00310453
0.0617648
0.00268908
0.0668831
0.00207363
0.0710989
0.00134048
0.0752926
0.000513418
0.0798664
0.0849063
-0.000440428
0.000673857
0.00883001
0.00194227
0.0261276
0.00310331
0.0417936
0.00376428
0.0536361
0.00389285
0.0616363
0.00363952
0.0671365
0.0031634
0.071575
0.00256016
0.0758958
0.00186384
0.0805627
0.0856903
0.00107985
0.000696924
0.00813308
0.00208594
0.0247386
0.00345314
0.0404264
0.00434574
0.0527435
0.00468347
0.0612985
0.0046026
0.0672173
0.00427209
0.0719056
0.00380353
0.0763644
0.00324731
0.0811189
0.0863188
0.00261881
0.000711322
0.00742176
0.00220717
0.0232427
0.00377727
0.0388563
0.00491015
0.0516106
0.00547076
0.0607379
0.00557439
0.0671137
0.00539719
0.0720828
0.00506798
0.0766936
0.00465066
0.0815362
0.0868032
0.00416629
0.00071685
0.00670491
0.0023032
0.0216564
0.00406956
0.03709
0.00544992
0.0502303
0.00624789
0.0599399
0.00654989
0.0668117
0.00653508
0.0720976
0.00634932
0.0768794
0.0060709
0.0818147
0.0871458
0.0057283
0.000713516
0.00599139
0.00237157
0.0199983
0.00432354
0.035138
0.00595645
0.0485974
0.00700668
0.0588897
0.00752283
0.0662956
0.00768137
0.071939
0.00764421
0.0769165
0.00750633
0.0819525
0.087347
0.00730519
0.000701549
0.00528984
0.00241032
0.0182896
0.00453267
0.0330157
0.00642015
0.0467099
0.00773746
0.0575724
0.00848549
0.0655475
0.00883085
0.0715937
0.00894945
0.0767979
0.00895501
0.081947
0.0874062
0.00889581
0.000681409
0.00460844
0.0024182
0.0165528
0.00469057
0.0307433
0.00683053
0.0445699
0.0084289
0.055974
0.00942847
0.064548
0.00997705
0.0710451
0.0102611
0.0765139
0.0104143
0.0817937
0.0873222
0.0104983
0.00065378
0.00395466
0.00239484
0.0148117
0.00479149
0.0283466
0.00717644
0.042185
0.00906798
0.0540825
0.0103403
0.0632756
0.0111118
0.0702736
0.0115739
0.0760518
0.0118809
0.0814867
0.087093
0.0121102
0.000619556
0.0033351
0.0023409
0.0130904
0.00483076
0.0258568
0.00744647
0.0395693
0.00963999
0.051889
0.0112072
0.0617084
0.0122246
0.0692563
0.0128811
0.0753953
0.0133505
0.0810173
0.0867146
0.0137288
0.000579807
0.00275529
0.00225813
0.0114121
0.00480539
0.0233095
0.00762953
0.0367451
0.0101287
0.0493898
0.0120128
0.0598242
0.0133025
0.0679666
0.0141739
0.0745238
0.0148176
0.0803736
0.0861817
0.0153505
0.000535731
0.00221956
0.00214935
0.00979843
0.00471457
0.0207443
0.00771564
0.0337441
0.0105168
0.0465887
0.0127379
0.0576031
0.0143291
0.0663754
0.015441
0.0734119
0.0162749
0.0795397
0.0854864
0.0169703
0.000488603
0.00173096
0.00201836
0.00826867
0.00456015
0.0182025
0.00769696
0.0306072
0.0107865
0.0434991
0.0133606
0.0550291
0.0152845
0.0644516
0.0166675
0.0720289
0.0177131
0.078494
0.0846173
0.0185823
0.00043971
0.00129125
0.00186966
0.00683873
0.00434691
0.0157252
0.00756899
0.0273852
0.0109211
0.040147
0.0138569
0.0520933
0.0161446
0.0621638
0.0178343
0.0703392
0.0191194
0.077209
0.083558
0.0201786
0.000390298
0.000900949
0.00170822
0.0055208
0.00408242
0.013351
0.00733182
0.0241358
0.0109058
0.0365731
0.0142011
0.0487979
0.0168813
0.0594836
0.0189176
0.0683029
0.0204768
0.0756498
0.0822858
0.021749
0.000341512
0.000559437
0.00153918
0.00432314
0.00377665
0.0111136
0.00699106
0.0209213
0.0107304
0.0328337
0.0143679
0.0451605
0.0174624
0.0563891
0.0198874
0.0658779
0.0217629
0.0737743
0.0232791
0.000294361
0.000265076
0.00136747
0.00325003
0.00344117
0.00903988
0.00655826
0.0178043
0.0103916
0.0290004
0.0143339
0.0412181
0.0178527
0.0528703
0.0207076
0.0630231
0.000249688
1.53878e-05
0.00119763
0.00230209
0.00308825
0.00714925
0.00605048
0.014842
0.00989467
0.0251562
0.0140817
0.0370311
0.0180163
0.0489357
0.000208159
-0.000192771
0.0010336
0.00147664
0.00272984
0.00545301
0.0054889
0.012083
0.00925549
0.0213896
0.0136032
0.000170238
-0.000363009
0.000878586
0.000768294
0.00237675
0.00395485
0.00489669
0.00956303
0.000136232
-0.00049924
0.000735003
0.000169523
0.00203804
0.00265182
0.000106277
-0.000605517
0.000604496
-0.000328696
8.03568e-05
-0.000685874
-0.000736296
5.83168e-05
-0.000744191
0.0344268
-0.000427189
0.00135572
0.0334789
-0.00198857
0.00293644
0.0324991
-0.00424745
0.00522726
0.0314958
-0.00558782
0.00659112
0.0304509
-0.00788331
0.00892828
0.0293603
-0.00931883
0.0104094
0.0282078
-0.0118755
0.013028
0.0269857
-0.0135345
0.0147565
0.0256878
-0.0164464
0.0177443
0.0243099
-0.0182983
0.0196762
0.0228714
-0.021602
0.0230405
0.0213803
-0.0234099
0.024901
0.0198993
-0.0271567
0.0286377
0.0185021
-0.0283449
0.0297421
-0.0330544
0.0345968
0.034554
0.000374197
0.0337223
-0.00115691
0.032847
-0.00337217
0.0319388
-0.00467964
0.0309784
-0.00692286
0.0299654
-0.00830585
0.028881
-0.0107911
0.0277235
-0.012377
0.0264806
-0.0152035
0.0251585
-0.0169762
0.023758
-0.0202015
0.0223096
-0.0219615
0.0208152
-0.0256624
0.0193969
-0.0269265
-0.0314952
0.034676
0.00105353
0.0339574
-0.000438322
0.0331836
-0.00259832
0.0323702
-0.00386625
0.0314943
-0.00604699
0.0305615
-0.00737303
0.0295481
-0.00977776
0.028459
-0.0112878
0.0272741
-0.0140186
0.0260079
-0.01571
0.0246453
-0.0188389
0.0232334
-0.0205496
0.021735
-0.024164
0.0203003
-0.0254917
-0.0299297
0.0347924
0.00161642
0.0341819
0.000172213
0.0335052
-0.00192163
0.0327828
-0.00314383
0.0319883
-0.00525245
0.0311327
-0.00651752
0.030188
-0.00883305
0.0291652
-0.010265
0.0280367
-0.0128901
0.0268254
-0.0144987
0.0255004
-0.0175139
0.0241244
-0.0191735
0.0226298
-0.0226695
0.0211812
-0.0240431
-0.0283355
0.0349031
0.00206866
0.0343951
0.000680216
0.0338109
-0.00133739
0.033175
-0.00250797
0.0324578
-0.0045352
0.0316759
-0.00573564
0.0307964
-0.00795352
0.0298368
-0.00930545
0.0287617
-0.011815
0.0276032
-0.0133401
0.0263147
-0.0162254
0.024972
-0.0178309
0.0234857
-0.0211832
0.0220242
-0.0225817
-0.0267132
0.0350076
0.0024164
0.0345969
0.00109095
0.0341
-0.000840515
0.0335462
-0.00195418
0.0329021
-0.00389113
0.0321902
-0.00502367
0.0313723
-0.00713566
0.0304729
-0.00840603
0.0294483
-0.0107904
0.0283393
-0.0122311
0.0270858
-0.0149719
0.0257733
-0.0165183
0.0242973
-0.0197072
0.022825
-0.0211093
-0.0250618
0.0351059
0.00266583
0.0347868
0.0014101
0.0343721
-0.000425879
0.0338957
-0.00147771
0.0333204
-0.00331591
0.0326745
-0.00437769
0.0319145
-0.00637575
0.0310718
-0.00756326
0.0300946
-0.00981321
0.0290318
-0.0111684
0.0278117
-0.0137518
0.0265262
-0.0152328
0.0250615
-0.0182425
0.0235799
-0.0196278
-0.0233821
0.0351979
0.00282327
0.0349644
0.00164361
0.0346267
-8.82061e-05
0.0342227
-0.00107368
0.0337118
-0.00280505
0.0331277
-0.0037936
0.0324219
-0.00566993
0.0316321
-0.00677342
0.0306991
-0.00888021
0.0296789
-0.0101482
0.0284903
-0.0125633
0.0272291
-0.0139715
0.0257758
-0.0167892
0.0242865
-0.0181385
-0.0216754
0.0352834
0.00289523
0.0351298
0.00179719
0.0348629
0.00017865
0.0345267
-0.000737463
0.0340756
-0.00235389
0.0335491
-0.0032671
0.0328934
-0.00501425
0.0321526
-0.00603262
0.0312607
-0.00798827
0.0302793
-0.00916688
0.0291205
-0.0114044
0.0278809
-0.0127319
0.0264386
-0.0153469
0.0249427
-0.0166426
-0.0199438
0.0353622
0.00288835
0.0352822
0.00187719
0.035081
0.000379821
0.0348072
-0.000463615
0.0344111
-0.00195777
0.0339378
-0.00279379
0.0333282
-0.00440473
0.0326325
-0.00533685
0.0317784
-0.00713419
0.0308323
-0.00822076
0.029701
-0.0102732
0.0284807
-0.0115116
0.0270486
-0.0139147
0.025547
-0.015141
-0.0181896
0.0354342
0.00280947
0.0354215
0.00188988
0.0352805
0.000520881
0.0350637
-0.000246809
0.0347178
-0.00161188
0.0342931
-0.00236911
0.0337257
-0.00383737
0.0330709
-0.00468202
0.0322515
-0.00631478
0.0313369
-0.0073062
0.030231
-0.00916724
0.0290277
-0.0103084
0.0276048
-0.0124918
0.0260981
-0.0136344
-0.0164151
0.0354993
0.0026655
0.0355477
0.00184153
0.0354609
0.000607613
0.0352957
-8.16242e-05
0.0349952
-0.00131131
0.0346145
-0.0019884
0.0340852
-0.00330812
0.0334672
-0.00406398
0.0326792
-0.00552677
0.0317926
-0.00641964
0.0307096
-0.00808418
0.0295213
-0.00912014
0.0281065
-0.0110769
0.0265953
-0.0121232
-0.0146229
0.0355574
0.00246345
0.0356604
0.00173854
0.035622
0.000645952
0.0355029
3.75196e-05
0.0352429
-0.00105127
0.0349014
-0.00164697
0.0344062
-0.00281289
0.0338208
-0.00347857
0.0330609
-0.00476685
0.0321989
-0.00555764
0.0311362
-0.0070215
0.0299609
-0.00794487
0.0285531
-0.0096691
0.0270379
-0.010608
-0.0128155
0.0356084
0.0022104
0.0357594
0.00158751
0.0357638
0.000641517
0.0356846
0.000116748
0.0354604
-0.000827078
0.0351534
-0.00133997
0.0346881
-0.00234757
0.0341312
-0.00292165
0.033396
-0.00403165
0.0325552
-0.00471686
0.0315104
-0.00597664
0.0303462
-0.00678069
0.0289443
-0.00826726
0.0274254
-0.00908912
-0.0109953
0.0356522
0.00191351
0.0358446
0.00139511
0.0358854
0.000600703
0.0358414
0.000160844
0.0356475
-0.000633258
0.0353702
-0.00106263
0.0349306
-0.001908
0.034398
-0.00238906
0.0336841
-0.00331775
0.0328613
-0.00389405
0.0318317
-0.00494701
0.0306768
-0.00562579
0.0292799
-0.00687036
0.0277577
-0.00756694
-0.00916442
0.0356889
0.00157998
0.0359158
0.00116817
0.0359872
0.000529321
0.0359723
0.000175775
0.035804
-0.000464955
0.0355513
-0.000810021
0.0351333
-0.00148997
0.034621
-0.00187672
0.0339249
-0.00262169
0.0331169
-0.00308609
0.0321
-0.00393003
0.0309526
-0.00447845
0.0295597
-0.00547743
0.0280347
-0.00604191
-0.00732514
0.0357182
0.00121709
0.0359729
0.000913528
0.0360688
0.000433406
0.0360773
0.000167259
0.0359294
-0.000317058
0.0356966
-0.000577219
0.0352959
-0.00108925
0.0347997
-0.00138053
0.034118
-0.00193997
0.0333218
-0.00228992
0.0323149
-0.00292314
0.0311735
-0.00333704
0.0297836
-0.00408758
0.0282563
-0.00451452
-0.00547937
0.0357403
0.000832133
0.0360158
0.000638065
0.0361301
0.000319048
0.0361563
0.000141098
0.0360237
-0.000184493
0.0358058
-0.000359302
0.0354181
-0.00070156
0.034934
-0.000896456
0.0342631
-0.00126904
0.0334757
-0.00150256
0.0324764
-0.00192381
0.0313394
-0.00220003
0.0299518
-0.00269998
0.0284226
-0.00298533
-0.00362892
0.035755
0.000432454
0.0360444
0.000348705
0.0361711
0.000192365
0.036209
0.000103135
0.0360867
-6.21717e-05
0.0358787
-0.000151338
0.0354998
-0.000322611
0.0350238
-0.000420473
0.0343601
-0.000605373
0.0335787
-0.000721086
0.0325844
-0.000929541
0.0314503
-0.00106594
0.0300642
-0.00131389
0.0285338
-0.00145494
-0.00177547
0.0357624
0.0360587
0.0361916
0.0362355
0.0361183
0.0359153
0.0355408
0.0350689
0.0344089
0.0336305
0.0326388
0.0315062
0.030121
0.02859
0.202048
-0.000244092
0.202634
-0.000586511
0.203538
-0.000903071
0.20463
-0.0010928
0.205901
-0.0012709
0.207252
-0.00135095
0.208676
-0.00142354
0.210095
-0.00141945
0.211513
-0.00141793
0.212872
-0.00135882
0.214186
-0.00131423
0.215412
-0.0012255
0.216574
-0.00116254
0.217636
-0.00106177
-0.000994865
0.218631
0.192616
-0.000476054
0.193173
-0.00114319
0.194029
-0.00175909
0.195065
-0.00212878
0.196272
-0.00247823
0.197558
-0.00263671
0.198916
-0.0027823
0.200274
-0.00277727
0.201634
-0.00277796
0.20294
-0.00266427
0.204205
-0.00257936
0.205386
-0.00240631
0.206507
-0.00228434
0.207533
-0.00208691
-0.00195792
0.208496
0.183623
-0.000695234
0.184142
-0.00166184
0.184948
-0.00256514
0.185924
-0.0031052
0.18707
-0.00362447
0.188294
-0.00386022
0.189595
-0.00408307
0.190898
-0.00408049
0.19221
-0.00408985
0.193472
-0.00392615
0.194699
-0.00380715
0.195847
-0.00355371
0.19694
-0.00337789
0.19794
-0.0030865
-0.00289911
0.198881
0.175049
-0.000901419
0.175526
-0.00213949
0.176281
-0.00331915
0.177195
-0.00401993
0.17828
-0.00470927
0.179442
-0.00502218
0.180688
-0.00532897
0.181941
-0.00533365
0.183211
-0.00536025
0.184437
-0.00515199
0.185637
-0.00500648
0.18676
-0.00467668
0.187834
-0.00445273
0.188818
-0.00406959
-0.00382826
0.189747
0.166874
-0.00109448
0.167309
-0.00257375
0.168009
-0.00401959
0.16886
-0.00487062
0.169882
-0.00573165
0.170982
-0.0061221
0.172175
-0.00652155
0.17338
-0.00653931
0.174614
-0.00659368
0.175809
-0.00634707
0.176986
-0.00618399
0.178092
-0.00578204
0.179155
-0.00551646
0.180129
-0.00504348
-0.00475302
0.181054
0.159081
-0.00127425
0.159469
-0.00296262
0.160115
-0.00466531
0.160899
-0.0056548
0.161858
-0.00669008
0.162894
-0.00715846
0.164033
-0.00766093
0.165193
-0.00769834
0.166392
-0.00779277
0.167559
-0.00751476
0.16872
-0.00734444
0.169813
-0.00687491
0.170871
-0.00657505
0.171842
-0.00601394
-0.00567958
0.172768
0.15165
-0.00144043
0.151992
-0.00330465
0.152582
-0.00525561
0.153297
-0.00636985
0.15419
-0.00758258
0.15516
-0.00812888
0.156245
-0.00874601
0.157357
-0.00881011
0.158523
-0.00895849
0.159665
-0.00865676
0.160811
-0.00849101
0.161895
-0.00795891
0.162953
-0.00763312
0.163925
-0.00698554
-0.00661304
0.164858
0.144565
-0.00159256
0.144859
-0.00359911
0.145394
-0.00579012
0.146037
-0.00701318
0.146861
-0.00840696
0.147763
-0.00903036
0.148791
-0.0097747
0.149854
-0.00987269
0.150986
-0.0100904
0.152102
-0.00977333
0.153237
-0.00962548
0.154314
-0.0090364
0.155375
-0.00869415
0.156352
-0.0079619
-0.00755765
0.157296
0.137809
-0.00172991
0.138056
-0.0038462
0.138534
-0.00626863
0.139104
-0.00758244
0.139858
-0.00916105
0.140687
-0.00985941
0.141656
-0.0107441
0.142667
-0.0108831
0.143763
-0.0111868
0.144853
-0.0108634
0.145976
-0.0107484
0.147048
-0.0101086
0.148115
-0.00976073
0.149099
-0.00894582
-0.00851705
0.150058
0.131367
-0.0018515
0.131568
-0.00404726
0.13199
-0.00669095
0.132483
-0.0080758
0.133165
-0.00984287
0.133918
-0.0106124
0.134825
-0.0116509
0.135779
-0.0118373
0.136838
-0.012245
0.137899
-0.0119248
0.13901
-0.0118594
0.140077
-0.0111759
0.141151
-0.0108346
0.142145
-0.00993946
-0.0094944
0.143122
0.125223
-0.00195619
0.125381
-0.00420478
0.125747
-0.00705666
0.126163
-0.00849238
0.126771
-0.0104508
0.127444
-0.0112856
0.128285
-0.0124915
0.129178
-0.0127308
0.130195
-0.0132614
0.131224
-0.0129542
0.132322
-0.0129568
0.133383
-0.0122375
0.134465
-0.0119168
0.13547
-0.0109444
-0.0104924
0.136468
0.119365
-0.00204278
0.119483
-0.00432232
0.119791
-0.00736503
0.120131
-0.00883259
0.120664
-0.0109833
0.121254
-0.0118758
0.122024
-0.013262
0.122852
-0.0135583
0.123822
-0.0142314
0.124815
-0.0139475
0.125897
-0.0140381
0.126951
-0.0132918
0.128042
-0.0130076
0.129059
-0.0119616
-0.0115135
0.13008
0.113778
-0.00211029
0.11386
-0.00440413
0.11411
-0.00761508
0.114376
-0.00909846
0.114832
-0.0114392
0.115336
-0.0123804
0.116033
-0.0139588
0.116789
-0.0143145
0.117708
-0.0151503
0.11866
-0.0148995
0.119722
-0.0151001
0.120767
-0.0143365
0.121866
-0.0141066
0.122896
-0.0129916
-0.0125597
0.123942
0.108451
-0.00215811
0.108501
-0.00445479
0.108692
-0.00780584
0.108887
-0.00929364
0.109265
-0.0118171
0.109683
-0.0127982
0.110302
-0.0145783
0.110982
-0.0149938
0.111844
-0.0160126
0.112749
-0.0158045
0.113787
-0.0161384
0.114819
-0.0153681
0.115925
-0.0152128
0.116968
-0.0140342
-0.0136329
0.118041
0.103371
-0.00218622
0.103395
-0.00447866
0.103526
-0.00793681
0.103655
-0.00942308
0.103954
-0.0121156
0.104285
-0.0131294
0.104823
-0.0151167
0.105421
-0.0155912
0.106221
-0.0168127
0.107072
-0.0166556
0.108081
-0.0171479
0.109096
-0.0163824
0.110207
-0.0163243
0.111262
-0.0150889
-0.0147346
0.112364
0.0985278
-0.00219526
0.0985287
-0.00447956
0.0986004
-0.00800844
0.0986699
-0.00949258
0.0988879
-0.0123337
0.0991347
-0.0133763
0.0995881
-0.01557
0.1001
-0.0161026
0.100831
-0.0175446
0.101622
-0.017446
0.102597
-0.0181227
0.103589
-0.0173744
0.104703
-0.0174382
0.105768
-0.0161544
-0.0158657
0.106899
0.0939114
-0.00218657
0.0938923
-0.00446046
0.0939063
-0.00802247
0.0939219
-0.00950813
0.0940587
-0.0124705
0.0942248
-0.0135423
0.0945892
-0.0159344
0.095012
-0.0165255
0.0956694
-0.018202
0.0963915
-0.0181681
0.0973253
-0.0190565
0.0982886
-0.0183376
0.0994013
-0.0185509
0.100476
-0.0172287
-0.017027
0.101637
0.0895115
-0.00216205
0.0894745
-0.00442343
0.0894341
-0.00798211
0.0894014
-0.00947538
0.0894576
-0.0125268
0.0895477
-0.0136324
0.0898193
-0.0162061
0.0901527
-0.0168589
0.0907285
-0.0187778
0.0913753
-0.0188149
0.0922607
-0.0199419
0.093188
-0.0192648
0.094295
-0.0196579
0.0953754
-0.018309
-0.0182184
0.0965668
0.0853186
-0.00212404
0.0852649
-0.00436974
0.0851747
-0.00789197
0.0850986
-0.00939923
0.0850763
-0.0125045
0.0850958
-0.0136519
0.0852715
-0.0163818
0.0855165
-0.0171038
0.0860029
-0.0192642
0.0865683
-0.0193803
0.0873972
-0.0207709
0.08828
-0.0201476
0.089376
-0.020754
0.0904587
-0.0193917
-0.0194394
0.0916797
0.0813233
-0.00207504
0.0812535
-0.00429998
0.0811194
-0.00775784
0.0810038
-0.00928362
0.0809069
-0.0124076
0.0808611
-0.0136061
0.0809391
-0.0164598
0.0810981
-0.0172628
0.081487
-0.0196531
0.0819664
-0.0198597
0.0827293
-0.0215338
0.0835585
-0.0209768
0.0846376
-0.021833
0.0857176
-0.0204718
-0.0206888
0.0869671
0.0775164
-0.00201755
0.0774309
-0.00421449
0.0772593
-0.00758617
0.0771072
-0.0091316
0.0769416
-0.012242
0.0768351
-0.0134996
0.0768158
-0.0164405
0.0768922
-0.0173391
0.0771755
-0.0199365
0.0775664
-0.0202506
0.078252
-0.0222194
0.0790187
-0.0217435
0.080074
-0.0228883
0.0811449
-0.0215427
-0.021965
0.0824211
0.0738891
-0.00195381
0.0737883
-0.00411373
0.0735857
-0.00738351
0.0733996
-0.0089455
0.0731727
-0.0120151
0.0730093
-0.0133361
0.0728957
-0.016327
0.0728929
-0.0173363
0.0730639
-0.0201074
0.0733656
-0.0205524
0.0739605
-0.0228143
0.0746568
-0.0224398
0.0756801
-0.0239115
0.076734
-0.0225966
-0.023266
0.0780351
0.0704327
-0.00188563
0.0703174
-0.00399847
0.07009
-0.00715605
0.0698719
-0.00872744
0.0695923
-0.0117355
0.0693747
-0.0131186
0.069173
-0.0161252
0.0690937
-0.0172571
0.0691482
-0.020162
0.0693615
-0.0207656
0.0698505
-0.0233033
0.0704707
-0.02306
0.0714511
-0.0248919
0.0724796
-0.0236251
-0.0245907
0.0738042
0.0671387
-0.00181435
0.0670103
-0.00387006
0.0667634
-0.00690921
0.0665159
-0.0084799
0.0661921
-0.0114117
0.065923
-0.0128494
0.0656416
-0.0158439
0.0654873
-0.0171028
0.0654257
-0.0201003
0.065551
-0.0208909
0.0659195
-0.0236718
0.0664604
-0.0236009
0.067382
-0.0258136
0.0683756
-0.0246187
-0.0259417
0.0697266
0.0639992
-0.00174083
0.0638594
-0.00373031
0.0635977
-0.00664745
0.0633238
-0.00820609
0.0629638
-0.0110517
0.0626462
-0.0125317
0.0622953
-0.0154931
0.0620669
-0.0168744
0.0618941
-0.0199275
0.0619303
-0.0209272
0.0621665
-0.0239079
0.0626275
-0.0240619
0.0634687
-0.0266548
0.0644159
-0.0255659
-0.0273281
0.0658023
0.0610066
-0.00166561
0.0608577
-0.00358138
0.0605846
-0.00637434
0.0602884
-0.00790994
0.0598991
-0.0106624
0.0595373
-0.0121699
0.059127
-0.0150828
0.0588263
-0.0165737
0.0585511
-0.0196523
0.058495
-0.0208711
0.0585926
-0.0240054
0.0589739
-0.0244433
0.0597093
-0.0273901
0.060599
-0.0264556
-0.0287572
0.0620281
0.0581541
-0.00158907
0.0579982
-0.00342554
0.0577167
-0.00609282
0.0574027
-0.0075959
0.05699
-0.0102497
0.0565899
-0.0117698
0.0561295
-0.0146225
0.0557603
-0.0162045
0.0553937
-0.0192857
0.0552414
-0.0207189
0.0551995
-0.0239635
0.0554961
-0.0247399
0.0561026
-0.0279966
0.0569369
-0.02729
-0.0302081
0.0583879
0.055435
-0.00151155
0.0552744
-0.00326494
0.0549872
-0.00580562
0.0546599
-0.00726862
0.0542293
-0.00981905
0.0537978
-0.0113384
0.0532961
-0.0141207
0.0528648
-0.0157732
0.0524178
-0.0188386
0.052167
-0.020468
0.0519887
-0.0237852
0.0521815
-0.0249327
0.0526336
-0.0284487
0.0534529
-0.0281092
-0.0316148
0.0548595
0.0528432
-0.00143348
0.0526799
-0.00310165
0.0523898
-0.00551552
0.052054
-0.00693278
0.0516109
-0.00937601
0.0511557
-0.0108831
0.0506207
-0.0135857
0.0501359
-0.0152884
0.049618
-0.0183208
0.04927
-0.02012
0.0489586
-0.0234739
0.0490188
-0.0249928
0.0492575
-0.0286875
0.0501257
-0.0289773
-0.0329672
0.0514781
0.0503732
0.050208
0.0499197
0.0495781
0.0491303
0.0486566
0.048099
0.0475671
0.0469906
0.0465468
0.0461134
0.0460216
0.0459718
0.0467366
0.0483661
0.217182
0.00144862
0.215796
0.00138602
0.214485
0.00131163
0.21325
0.00123454
0.212095
0.00115485
0.211023
0.00107266
0.210034
0.0009881
0.209133
0.000901279
0.208321
0.000812318
0.207599
0.00072134
0.206971
0.000628472
0.206437
0.000533847
0.206
0.000437602
0.20566
0.000339881
0.205419
0.000240837
0.205278
0.000140642
0.205239
3.96312e-05
0.205301
-6.2917e-05
0.205468
-0.000166097
-0.000269644
0.205737
0.207109
0.00283534
0.205783
0.00271191
0.204529
0.00256551
0.20335
0.00241389
0.202247
0.0022572
0.201224
0.00209565
0.200283
0.00192951
0.199425
0.00175898
0.198653
0.00158433
0.197969
0.00140579
0.197374
0.00122361
0.19687
0.00103805
0.196458
0.000849379
0.19614
0.000657875
0.195917
0.000463827
0.19579
0.000267548
0.19576
6.95473e-05
0.195828
-0.000130935
0.195994
-0.000332532
-0.000534983
0.19626
0.197557
0.00415906
0.196292
0.00397688
0.195097
0.0037608
0.193974
0.00353712
0.192925
0.00330605
0.191953
0.00306794
0.191059
0.00282315
0.190246
0.00257204
0.189515
0.00231496
0.188869
0.00205225
0.188308
0.00178428
0.187835
0.00151144
0.18745
0.00123412
0.187155
0.000952723
0.186951
0.000667683
0.186839
0.000379462
0.18682
8.89254e-05
0.186895
-0.000205503
0.187064
-0.000501359
-0.000798402
0.187327
0.188486
0.00541988
0.187282
0.00518121
0.186144
0.00489782
0.185077
0.00460459
0.184081
0.00430177
0.183159
0.00398985
0.182313
0.00366932
0.181545
0.00334065
0.180855
0.00300428
0.180247
0.00266067
0.179721
0.0023103
0.179279
0.00195366
0.178921
0.00159127
0.178651
0.00122366
0.178467
0.000851364
0.178371
0.000475011
0.178364
9.58125e-05
0.178448
-0.000288693
0.178621
-0.000674756
-0.00106233
0.178885
0.179856
0.006618
0.178712
0.00632524
0.177633
0.00597689
0.176621
0.00561661
0.175678
0.00524464
0.174806
0.0048616
0.174007
0.00446814
0.173283
0.00406484
0.172635
0.00365224
0.172065
0.00323089
0.171574
0.00280138
0.171163
0.00236429
0.170834
0.00192026
0.170588
0.00146993
0.170425
0.00101397
0.170347
0.00055316
0.170354
8.92463e-05
0.170447
-0.000381862
0.170627
-0.000854355
-0.00132864
0.170893
0.171633
0.00775364
0.170549
0.00740925
0.169527
0.00699835
0.16857
0.00657353
0.16768
0.00613496
0.166858
0.00568346
0.166106
0.00521985
0.165426
0.00474481
0.16482
0.00425896
0.164288
0.00376295
0.163831
0.00325744
0.163453
0.00274315
0.163152
0.00222079
0.162931
0.00169113
0.16279
0.00115496
0.16273
0.000613201
0.162751
6.84309e-05
0.162855
-0.000486138
0.163042
-0.00104146
-0.00159882
0.163312
0.163785
0.00882697
0.162761
0.00843346
0.161797
0.00796245
0.160895
0.00747561
0.160056
0.00697304
0.159284
0.00645572
0.158579
0.00592468
0.157943
0.00538073
0.157378
0.00482457
0.156884
0.0042569
0.156463
0.00367848
0.156116
0.00309012
0.155844
0.00249264
0.155648
0.00188691
0.155529
0.00127384
0.155488
0.0006545
0.155523
3.30828e-05
0.15564
-0.000602439
0.155835
-0.0012371
-0.00187405
0.156111
0.156285
0.00983805
0.155321
0.009398
0.154414
0.00886935