/*--------------------------------*- C++ -*----------------------------------*\
  =========                 |
  \\      /  F ield         | OpenFOAM: The Open Source CFD Toolbox
   \\    /   O peration     | Website:  https://openfoam.org
    \\  /    A nd           | Version:  7
     \\/     M anipulation  |
\*---------------------------------------------------------------------------*/
FoamFile
{
    version     2.0;
    format      ascii;
    class       volScalarField;
    location    "135";
    object      p;
}
// * * * * * * * * * * * * * * * * * * * * * * * * * * * * * * * * * * * * * //

dimensions      [0 2 -2 0 0 0 0];

internalField   nonuniform List<scalar> 
2125
(
-0.396538
-0.43643
-0.404217
-0.473605
-0.442327
-0.411781
-0.522944
-0.501884
-0.476789
-0.447988
-0.419321
-0.532496
-0.518634
-0.501046
-0.479517
-0.453448
-0.426931
-0.535797
-0.525628
-0.514064
-0.49969
-0.481807
-0.458731
-0.434699
-0.536669
-0.528083
-0.519039
-0.509386
-0.497906
-0.483677
-0.463832
-0.442742
-0.529002
-0.520976
-0.51282
-0.504747
-0.495812
-0.485152
-0.468753
-0.451123
-0.52869
-0.522096
-0.514521
-0.507058
-0.500285
-0.493549
-0.486284
-0.473447
-0.460051
-0.526949
-0.522132
-0.515965
-0.508765
-0.501846
-0.496137
-0.49128
-0.48714
-0.477953
-0.469374
-0.520666
-0.51642
-0.510622
-0.503754
-0.497286
-0.492448
-0.489178
-0.48783
-0.482228
-0.479364
-0.515389
-0.51154
-0.506069
-0.499524
-0.493473
-0.489367
-0.487427
-0.488499
-0.486258
-0.488756
-0.511069
-0.507457
-0.502285
-0.496087
-0.490474
-0.487027
-0.486254
-0.489149
-0.491191
-0.490941
-0.50762
-0.504103
-0.499221
-0.493421
-0.488312
-0.485521
-0.485853
-0.489916
-0.496819
-0.495207
-0.504918
-0.501377
-0.496792
-0.491458
-0.486951
-0.484878
-0.486318
-0.491131
-0.502416
-0.500901
-0.502805
-0.499156
-0.494883
-0.490091
-0.486297
-0.485052
-0.487615
-0.493078
-0.507748
-0.506632
-0.501101
-0.497299
-0.493359
-0.489179
-0.486204
-0.485899
-0.489598
-0.49585
-0.51279
-0.51249
-0.499613
-0.495657
-0.492073
-0.488562
-0.486489
-0.48722
-0.492043
-0.499319
-0.517545
-0.519012
-0.498154
-0.49408
-0.490875
-0.48807
-0.486947
-0.488767
-0.49468
-0.503171
-0.521982
-0.526469
-0.496548
-0.492425
-0.489619
-0.487532
-0.487366
-0.49027
-0.497214
-0.506976
-0.525918
-0.533469
-0.494635
-0.490554
-0.488162
-0.486782
-0.487538
-0.491466
-0.49935
-0.510316
-0.52919
-0.53978
-0.492276
-0.488346
-0.486373
-0.485664
-0.487267
-0.49211
-0.50081
-0.512822
-0.531573
-0.544917
-0.48936
-0.485691
-0.484135
-0.484039
-0.486383
-0.491992
-0.501354
-0.514191
-0.532814
-0.548467
-0.4858
-0.4825
-0.481347
-0.481788
-0.484743
-0.490943
-0.500786
-0.514193
-0.532661
-0.55011
-0.48154
-0.478706
-0.47793
-0.47882
-0.482239
-0.488842
-0.498963
-0.512666
-0.530902
-0.549623
-0.476554
-0.474265
-0.473835
-0.475076
-0.478808
-0.485615
-0.495799
-0.509513
-0.527377
-0.546823
-0.470847
-0.469164
-0.469041
-0.470532
-0.474423
-0.48124
-0.491261
-0.504696
-0.521988
-0.54158
-0.464458
-0.46342
-0.463559
-0.465201
-0.469105
-0.475742
-0.485374
-0.498238
-0.514694
-0.533828
-0.457454
-0.457079
-0.457432
-0.459133
-0.462917
-0.469197
-0.478217
-0.490227
-0.505506
-0.523599
-0.449929
-0.450212
-0.450732
-0.45242
-0.455959
-0.461722
-0.469925
-0.480801
-0.494559
-0.511133
-0.441994
-0.442919
-0.443568
-0.44517
-0.448365
-0.453475
-0.460677
-0.470165
-0.48207
-0.496507
-0.433788
-0.435316
-0.43606
-0.437521
-0.440294
-0.444642
-0.450691
-0.458576
-0.468321
-0.480093
-0.032755
-0.0333476
-0.033907
-0.0344333
-0.034926
-0.0353853
-0.0358109
-0.0362029
-0.0365613
-0.0368861
-0.0371783
-0.0336915
-0.0343031
-0.0348806
-0.0354239
-0.0359329
-0.0364075
-0.0368477
-0.0372536
-0.0376254
-0.0379636
-0.0382711
-0.035442
-0.0360866
-0.0366965
-0.0372715
-0.0378116
-0.0383168
-0.0387871
-0.0392227
-0.0396241
-0.0399928
-0.040335
-0.0379401
-0.0386344
-0.0392933
-0.0399165
-0.0405042
-0.0410564
-0.0415731
-0.0420546
-0.0425019
-0.0429179
-0.0433133
-0.0411558
-0.0419154
-0.0426387
-0.0433258
-0.0439766
-0.0445911
-0.0451697
-0.0457128
-0.0462217
-0.0467012
-0.0471687
-0.0450619
-0.0459031
-0.0467074
-0.0474746
-0.0482049
-0.0488982
-0.049555
-0.0501759
-0.0507625
-0.0513221
-0.05188
-0.049652
-0.0505926
-0.0514955
-0.0523608
-0.0531886
-0.0539792
-0.0547329
-0.0554508
-0.0561351
-0.0567965
-0.0574703
-0.0549254
-0.0559842
-0.0570049
-0.0579875
-0.0589324
-0.0598399
-0.0607105
-0.0615456
-0.0623486
-0.0631339
-0.0639497
-0.0608895
-0.062087
-0.063246
-0.0643669
-0.06545
-0.0664959
-0.0675054
-0.0684802
-0.0694247
-0.0703583
-0.0713441
-0.0675571
-0.0689151
-0.0702347
-0.0715163
-0.0727606
-0.0739684
-0.0751407
-0.0762802
-0.0773926
-0.0785032
-0.0796933
-0.0749452
-0.0764874
-0.0779914
-0.0794581
-0.0808883
-0.0822831
-0.083644
-0.0849743
-0.0862817
-0.0875982
-0.0890295
-0.0812842
-0.0830746
-0.0848265
-0.086541
-0.0882192
-0.0898625
-0.0914724
-0.0930509
-0.0946024
-0.096137
-0.0976957
-0.0994101
-0.089942
-0.0919685
-0.0939573
-0.09591
-0.0978281
-0.0997136
-0.101569
-0.103396
-0.105201
-0.106996
-0.108834
-0.110876
-0.0993604
-0.101651
-0.103906
-0.106126
-0.108315
-0.110474
-0.112606
-0.114715
-0.116808
-0.118902
-0.12106
-0.12348
-0.109564
-0.112149
-0.1147
-0.117219
-0.119709
-0.122174
-0.124618
-0.127044
-0.129463
-0.131895
-0.134418
-0.137271
-0.120577
-0.123487
-0.126365
-0.129214
-0.13204
-0.134845
-0.137636
-0.140417
-0.143202
-0.146014
-0.148951
-0.152294
-0.132424
-0.13569
-0.138927
-0.14214
-0.145335
-0.148516
-0.15169
-0.154864
-0.158055
-0.161292
-0.164693
-0.16859
-0.145129
-0.148781
-0.152408
-0.156017
-0.159614
-0.163207
-0.166803
-0.170411
-0.174051
-0.177757
-0.181673
-0.186187
-0.158712
-0.162781
-0.166829
-0.170865
-0.174896
-0.178932
-0.182985
-0.187065
-0.191199
-0.195423
-0.199913
-0.205107
-0.173194
-0.177707
-0.182205
-0.186699
-0.191197
-0.195711
-0.200251
-0.204834
-0.209494
-0.214278
-0.219396
-0.225342
-0.188589
-0.193568
-0.198538
-0.203513
-0.208505
-0.213531
-0.218601
-0.223734
-0.228959
-0.234337
-0.240118
-0.246874
-0.204913
-0.210378
-0.215836
-0.221307
-0.226801
-0.232349
-0.237963
-0.243684
-0.249532
-0.255584
-0.262086
-0.269715
-0.222166
-0.22813
-0.234094
-0.240086
-0.246105
-0.252193
-0.258338
-0.264631
-0.271073
-0.277846
-0.285141
-0.293784
-0.240348
-0.246804
-0.253267
-0.259782
-0.266345
-0.273031
-0.279773
-0.286714
-0.293726
-0.301189
-0.309173
-0.318944
-0.259461
-0.266395
-0.273331
-0.28033
-0.287381
-0.294624
-0.30196
-0.309675
-0.317423
-0.325825
-0.334462
-0.345432
-0.279459
-0.28685
-0.294245
-0.30171
-0.309209
-0.316911
-0.324656
-0.332947
-0.34127
-0.350836
-0.360385
-0.373078
-0.30026
-0.308033
-0.31583
-0.323732
-0.33171
-0.339936
-0.348164
-0.356955
-0.365501
-0.375756
-0.385692
-0.400611
-0.321935
-0.329965
-0.338027
-0.346217
-0.354573
-0.363293
-0.372221
-0.381919
-0.391364
-0.402662
-0.412522
-0.429246
-0.344706
-0.352893
-0.361085
-0.369377
-0.377855
-0.3867
-0.395949
-0.406144
-0.416759
-0.429854
-0.44162
-0.461091
-0.367982
-0.376162
-0.384292
-0.392457
-0.400749
-0.409277
-0.418149
-0.427622
-0.437725
-0.44981
-0.462632
-0.483948
-0.0378281
-0.0383107
-0.0381843
-0.0373341
-0.0357615
-0.0334182
-0.0303716
-0.0266237
-0.0223278
-0.0175517
-0.0125458
-0.00744229
-0.00248853
0.00222702
0.00662147
0.0107712
0.0148991
0.0191753
0.0237736
0.0285779
0.0335233
0.0382834
0.042128
0.0442355
0.0420055
0.0347363
0.0263053
0.0181803
0.0123133
0.00466488
-0.0389671
-0.0394424
-0.0392391
-0.0383066
-0.0366169
-0.0341324
-0.0309269
-0.0270031
-0.0225266
-0.0175749
-0.0124187
-0.00720359
-0.00219757
0.00250211
0.0068177
0.0108455
0.0148594
0.0190524
0.0236209
0.0284767
0.0335018
0.0385455
0.0426052
0.0447662
0.0424208
0.0347773
0.0261051
0.0179036
0.0123615
0.00467584
-0.0411294
-0.0416035
-0.041292
-0.0401644
-0.0382395
-0.0354814
-0.0319692
-0.0277071
-0.0228806
-0.0175928
-0.0121465
-0.00672273
-0.00161917
0.00303978
0.0071956
0.0109741
0.014764
0.0187899
0.0233021
0.0282454
0.0334162
0.0390166
0.0434682
0.0457331
0.0432015
0.0347827
0.0256557
0.0173718
0.0124024
0.0046638
-0.0442558
-0.0447282
-0.0442447
-0.0428357
-0.0405662
-0.0374065
-0.0334429
-0.0286831
-0.0233417
-0.0175617
-0.0116912
-0.00596851
-0.000734284
0.00384803
0.00774402
0.0111305
0.0145763
0.018349
0.022778
0.0278302
0.033194
0.0396387
0.0446118
0.0470142
0.0442748
0.0346166
0.0248497
0.016584
0.0123579
0.00458843
-0.0483104
-0.0487833
-0.0480588
-0.0462772
-0.0435533
-0.0398637
-0.035302
-0.0298824
-0.0238571
-0.0174258
-0.0109969
-0.00489004
0.000500556
0.00495396
0.00845539
0.0112801
0.0142463
0.017677
0.0219946
0.027158
0.0327443
0.0403276
0.045888
0.0484621
0.0455206
0.0340876
0.0235649
0.0155204
0.0121178
0.00440615
-0.0532693
-0.0536873
-0.0527094
-0.0504675
-0.0471755
-0.0428226
-0.0375096
-0.0312604
-0.0243744
-0.017127
-0.010001
-0.00342617
0.00213762
0.00638589
0.00932006
0.0113782
0.0137103
0.0167112
0.0208885
0.0261438
0.0319622
0.0409496
0.0471273
0.0498956
0.0467169
0.0329466
0.0216862
0.0141332
0.0115381
0.00409207
-0.059179
-0.059597
-0.0582317
-0.0554087
-0.0514219
-0.0462639
-0.0400363
-0.0327773
-0.024842
-0.0166048
-0.00863626
-0.00150759
0.00424342
0.00818238
0.0103256
0.011365
0.0128911
0.0153829
0.0193947
0.0246967
0.0307396
0.0413034
0.0486688
0.0510434
0.047476
0.0309169
0.0191156
0.0123517
0.0104603
0.00363996
-0.0660468
-0.0664382
-0.0646182
-0.0611017
-0.0562895
-0.0501762
-0.0428596
-0.0343981
-0.0252115
-0.0158001
-0.0068339
0.00093897
0.00689134
0.0103854
0.0114732
0.01116
0.0116979
0.0136184
0.0174531
0.0227282
0.0289749
0.0410199
0.0484254
0.0513767
0.0471928
0.0277957
0.0158008
0.0101075
0.00873628
0.00304914
-0.0739032
-0.0742514
-0.0718907
-0.0675599
-0.061785
-0.0545571
-0.0459645
-0.036094
-0.0254412
-0.0146581
-0.00452939
0.00398788
0.0101581
0.0130284
0.0126505
0.0106505
0.0100246
0.0113407
0.0150137
0.0201642
0.0265968
0.0398153
0.0467832
0.050176
0.0450568
0.0236358
0.0118272
0.00737688
0.00625576
0.00231411
-0.0827988
-0.0830888
-0.0800846
-0.0748075
-0.067924
-0.0594127
-0.0493447
-0.0378438
-0.0254977
-0.0131324
-0.00166795
0.00771043
0.0141244
0.0161448
0.0138199
0.00970396
0.0077507
0.00846792
0.012038
0.0169552
0.0235771
0.0374399
0.0431823
0.0464034
0.0402261
0.0187444
0.00745436
0.00421771
0.00298637
0.00142716
-0.0927862
-0.0930059
-0.089241
-0.082874
-0.0747293
-0.0647567
-0.0530012
-0.0396346
-0.0253569
-0.0111935
0.0017875
0.0121692
0.0188678
0.0197517
0.0148875
0.00815627
0.00474087
0.00491605
0.00849285
0.0130906
0.019942
0.0337924
0.0373093
0.0392775
0.0323331
0.0134686
0.00305959
0.000759072
-0.00100658
0.000389838
-0.103925
-0.104046
-0.0993995
-0.0917963
-0.082232
-0.0706113
-0.0569422
-0.0414634
-0.0250087
-0.00883059
0.00585366
0.0174149
0.0244547
0.0238436
0.0157099
0.00580119
0.000843566
0.000601746
0.00434227
0.00860828
0.015766
0.0289511
0.0293716
0.0291963
0.0219735
0.0079725
-0.00105612
-0.00286358
-0.00557767
-0.000774327
-0.116264
-0.116259
-0.110603
-0.101616
-0.0904704
-0.0770067
-0.0611853
-0.0433376
-0.0244572
-0.00605623
0.0105198
0.0234793
0.0309306
0.0283746
0.0160899
0.00239034
-0.00410522
-0.0045547
-0.000450517
0.0035843
0.0111321
0.0230699
0.0201066
0.0173244
0.0104995
0.00233261
-0.00474493
-0.00654384
-0.0105368
-0.00201975
-0.129871
-0.129707
-0.1229
-0.11238
-0.0994913
-0.0839815
-0.0657554
-0.0452755
-0.0237236
-0.00291225
0.0157427
0.0303648
0.0383037
0.0332342
0.015767
-0.00233861
-0.0102762
-0.0106291
-0.00591315
-0.00187809
0.00611885
0.0164612
0.0105164
0.00528241
-0.000694669
-0.00329303
-0.00795165
-0.0102065
-0.015679
-0.00328823
-0.144808
-0.144446
-0.136343
-0.124144
-0.109351
-0.0915816
-0.0706828
-0.0473052
-0.0228466
0.00052783
0.0214391
0.0380316
0.0465235
0.0382133
0.0144101
-0.00848802
-0.0178522
-0.0176964
-0.012052
-0.00765725
0.000840379
0.00951881
0.00140595
-0.00582076
-0.0107578
-0.00870297
-0.0106864
-0.0137994
-0.0208131
-0.00451834
-0.161133
-0.160528
-0.150984
-0.13697
-0.120114
-0.0998594
-0.0760055
-0.0494632
-0.0218789
0.00416306
0.0274773
0.0463814
0.0554566
0.0429588
0.0115632
-0.0138062
-0.027029
-0.0258301
-0.0188442
-0.0136373
-0.00456945
0.00258517
-0.00675696
-0.0154514
-0.0193617
-0.0137403
-0.0130231
-0.0172891
-0.0257642
-0.00566246
-0.178894
-0.177997
-0.166876
-0.150927
-0.131857
-0.108873
-0.0817652
-0.0517922
-0.0208902
0.00787177
0.0336778
0.0552454
0.0648565
0.0469398
0.00634854
-0.0246639
-0.0382645
-0.0351002
-0.0262445
-0.0197179
-0.0099951
-0.00409047
-0.0137659
-0.0236
-0.0265069
-0.0183177
-0.0150753
-0.020659
-0.0303772
-0.00669142
-0.198131
-0.19689
-0.184074
-0.166095
-0.144668
-0.118684
-0.0880071
-0.0543402
-0.0199627
0.0115247
0.0398312
0.0643757
0.0743661
0.0494955
-0.0017264
-0.0384913
-0.0516754
-0.0455448
-0.0341916
-0.0258106
-0.0153529
-0.0103471
-0.0195758
-0.0299891
-0.0323503
-0.0224151
-0.0169561
-0.023899
-0.0345259
-0.00759356
-0.218866
-0.217233
-0.202636
-0.18257
-0.158646
-0.129357
-0.0947788
-0.0571576
-0.0191863
0.0149912
0.0457238
0.0734368
0.0835871
0.0500072
-0.0128771
-0.0552855
-0.0672897
-0.0571564
-0.0426095
-0.031836
-0.0205875
-0.0160968
-0.0242523
-0.0350322
-0.0371039
-0.0260624
-0.0187496
-0.0269986
-0.0381217
-0.00837068
-0.241105
-0.239036
-0.222625
-0.200464
-0.173902
-0.140957
-0.102128
-0.0602953
-0.018657
0.0181431
0.0511575
0.0819823
0.0921322
0.0482805
-0.0265684
-0.0746463
-0.0849375
-0.0698537
-0.051402
-0.0377279
-0.0256638
-0.0213055
-0.027915
-0.0389634
-0.0409718
-0.0293097
-0.0205045
-0.0299443
-0.0411141
-0.00903277
-0.264822
-0.262295
-0.244116
-0.219914
-0.190557
-0.153553
-0.110103
-0.063805
-0.0184744
0.020866
0.0559654
0.0893847
0.0994185
0.0446699
-0.0413716
-0.0955356
-0.104141
-0.0834415
-0.0604458
-0.0434338
-0.0305576
-0.0259824
-0.0307086
-0.0420128
-0.0441278
-0.0322087
-0.0222399
-0.032721
-0.0434869
-0.00959391
-0.289966
-0.286984
-0.267201
-0.241082
-0.208741
-0.167212
-0.118748
-0.0677411
-0.0187357
0.0230653
0.0610832
0.0948131
0.104319
0.039648
-0.0554041
-0.116271
-0.124111
-0.0975899
-0.069587
-0.0489118
-0.0352514
-0.0301655
-0.0327768
-0.0443858
-0.0467131
-0.0348034
-0.0239558
-0.0353137
-0.0452511
-0.0100696
-0.316415
-0.313053
-0.291994
-0.264155
-0.228586
-0.182005
-0.128107
-0.0721655
-0.0195246
0.0245357
0.0637995
0.0972742
0.105285
0.0332423
-0.0674454
-0.135282
-0.143897
-0.111864
-0.0786472
-0.0541278
-0.039732
-0.0339037
-0.034254
-0.0462583
-0.0488441
-0.0371274
-0.0256404
-0.0377097
-0.0464386
-0.0104749
-0.343919
-0.340398
-0.318622
-0.289328
-0.250216
-0.198001
-0.138224
-0.0771459
-0.0208939
0.0251975
0.0650879
0.0961558
0.101108
0.0251152
-0.0774727
-0.151573
-0.162584
-0.125794
-0.0874407
-0.0590556
-0.0439874
-0.0372485
-0.0352659
-0.0477745
-0.0506241
-0.0392097
-0.0272746
-0.0398983
-0.0470956
-0.0108241
-0.372106
-0.368845
-0.347197
-0.316777
-0.273735
-0.215259
-0.149147
-0.0827474
-0.022882
0.0249323
0.0647331
0.0913874
0.0916691
0.0151559
-0.0860809
-0.164822
-0.179448
-0.138946
-0.0957955
-0.0636771
-0.0480056
-0.0402502
-0.0359253
-0.0490491
-0.0521464
-0.041086
-0.0288414
-0.0418669
-0.0472781
-0.0111297
-0.400405
-0.398124
-0.377762
-0.346601
-0.299193
-0.233816
-0.160923
-0.0890209
-0.0255432
0.0235929
0.0626034
0.083462
0.0780067
0.00380342
-0.0937779
-0.175159
-0.194011
-0.150977
-0.103569
-0.0679806
-0.0517756
-0.0429544
-0.0363292
-0.050171
-0.0534821
-0.0427996
-0.0303382
-0.0436083
-0.0470468
-0.0114025
-0.427756
-0.427783
-0.410176
-0.378724
-0.326543
-0.253677
-0.17359
-0.0959953
-0.0289693
0.021015
0.0586756
0.0730213
0.0618471
-0.00800334
-0.100835
-0.183038
-0.20602
-0.161644
-0.110655
-0.0719598
-0.0552893
-0.0454013
-0.0365565
-0.0512096
-0.0546478
-0.0443746
-0.0317755
-0.0451528
-0.0464655
-0.0116514
-0.453048
-0.457121
-0.444053
-0.412828
-0.355563
-0.274775
-0.187181
-0.103697
-0.0332895
0.0170316
0.053111
0.0604662
0.0451678
-0.0193527
-0.107392
-0.189355
-0.215541
-0.170801
-0.116985
-0.075614
-0.0585436
-0.0476262
-0.0366677
-0.0522064
-0.0555844
-0.0457785
-0.0331484
-0.0465686
-0.0456055
-0.0118832
-0.476064
-0.48524
-0.478697
-0.448481
-0.385947
-0.296855
-0.201536
-0.112065
-0.0385977
0.0115169
0.0464708
0.0455383
0.0289902
-0.0306928
-0.113804
-0.194789
-0.223143
-0.178515
-0.122511
-0.078935
-0.0615377
-0.0496621
-0.0367023
-0.0531588
-0.0563098
-0.0469626
-0.0344142
-0.0478429
-0.0445415
-0.0121061
-0.496542
-0.510431
-0.512016
-0.48461
-0.417942
-0.320881
-0.217566
-0.121536
-0.0450467
0.00428795
0.0391674
0.0504313
0.0112854
-0.0450818
-0.120789
-0.198085
-0.229213
-0.184798
-0.127472
-0.0819477
-0.0642751
-0.0516207
-0.0367368
-0.0542544
-0.0574589
-0.0480541
-0.0355198
-0.0487276
-0.0432674
-0.0123221
-0.51157
-0.52549
-0.53191
-0.507819
-0.440461
-0.339588
-0.231607
-0.131456
-0.0530956
-0.00524347
0.0290631
0.0268822
-0.00943912
-0.0611338
-0.12576
-0.195991
-0.223662
-0.18611
-0.130464
-0.0844748
-0.0657527
-0.0531548
-0.0378513
-0.0562538
-0.0600158
-0.049234
-0.0363431
-0.0488315
-0.0418835
-0.0124411
-0.520891
-0.540888
-0.55105
-0.525701
-0.452082
-0.344527
-0.232217
-0.130417
-0.0537712
-0.00958831
0.0234161
0.0184803
-0.0209445
-0.0711053
-0.130975
-0.198998
-0.226487
-0.187567
-0.131567
-0.0854263
-0.0667193
-0.0539614
-0.0384197
-0.0568081
-0.061224
-0.0498947
-0.0370135
-0.0489956
-0.0411518
-0.0125498
-0.530498
-0.556134
-0.568393
-0.53953
-0.457465
-0.342264
-0.226202
-0.124667
-0.0518302
-0.0120964
0.0189212
0.00980781
-0.0320459
-0.0803231
-0.135449
-0.201743
-0.229298
-0.188307
-0.131387
-0.0855058
-0.0674734
-0.0542653
-0.0386933
-0.0569886
-0.0622203
-0.0505277
-0.0376639
-0.0491391
-0.0405624
-0.0126476
-0.540356
-0.570398
-0.58453
-0.552797
-0.46359
-0.341844
-0.222597
-0.121653
-0.0523993
-0.0165384
0.0129529
-0.000290798
-0.0427957
-0.0884586
-0.139441
-0.203775
-0.2307
-0.188424
-0.131084
-0.0855947
-0.068228
-0.0544612
-0.0389559
-0.0572893
-0.0632377
-0.0511535
-0.0382814
-0.0492401
-0.0399511
-0.0127286
-0.549886
-0.583678
-0.599764
-0.565561
-0.470106
-0.342738
-0.220967
-0.121129
-0.0554321
-0.0229643
0.00515954
-0.0110976
-0.0529944
-0.0956369
-0.142845
-0.20517
-0.231386
-0.188064
-0.13083
-0.0858116
-0.0690041
-0.0546845
-0.0392987
-0.0577262
-0.0642665
-0.0517677
-0.0388658
-0.049303
-0.039316
-0.0127955
-0.558166
-0.595853
-0.613687
-0.577079
-0.475921
-0.343615
-0.220032
-0.122064
-0.0602918
-0.0308444
-0.00452206
-0.0223316
-0.0626394
-0.101899
-0.145659
-0.205923
-0.23144
-0.187236
-0.13047
-0.0860337
-0.069764
-0.0549106
-0.0397033
-0.0582392
-0.0653028
-0.0523716
-0.0394172
-0.0493321
-0.0386844
-0.0128515
-0.57241
-0.60675
-0.625907
-0.587027
-0.480906
-0.344531
-0.219932
-0.124559
-0.0670598
-0.0401909
-0.0163127
-0.0339108
-0.0717415
-0.107297
-0.147854
-0.206005
-0.230788
-0.185922
-0.129934
-0.0862055
-0.070489
-0.0551128
-0.0401532
-0.0588198
-0.0663551
-0.0529667
-0.0399352
-0.0493315
-0.038069
-0.0128975
-0.578297
-0.615947
-0.636164
-0.595219
-0.485072
-0.345736
-0.221042
-0.128949
-0.075955
-0.051242
-0.0299358
-0.0457387
-0.0803046
-0.111874
-0.149403
-0.20539
-0.229389
-0.18412
-0.129232
-0.0863304
-0.0711759
-0.0552982
-0.0406525
-0.0594773
-0.06743
-0.0535537
-0.0404198
-0.0493053
-0.0374751
-0.0129343
-0.584193
-0.623507
-0.644248
-0.601461
-0.488309
-0.347272
-0.22349
-0.135385
-0.0870355
-0.0642364
-0.0452856
-0.0577021
-0.0883167
-0.11567
-0.150284
-0.204054
-0.22722
-0.181841
-0.12838
-0.0864165
-0.0718237
-0.0554873
-0.0412101
-0.0602159
-0.0685311
-0.0541327
-0.0408711
-0.0492576
-0.0369074
-0.0129626
-0.588976
-0.62922
-0.649916
-0.605561
-0.490472
-0.349105
-0.227279
-0.143934
-0.100242
-0.0793846
-0.0621719
-0.0697295
-0.0957567
-0.11872
-0.150481
-0.201981
-0.22425
-0.179091
-0.127382
-0.0864626
-0.0724298
-0.0556989
-0.0418336
-0.0610348
-0.06966
-0.0547039
-0.041289
-0.0491923
-0.0363712
-0.0129834
-0.591997
-0.632752
-0.65291
-0.607356
-0.491418
-0.351181
-0.232361
-0.15463
-0.115481
-0.0968041
-0.0802049
-0.0817473
-0.102602
-0.121062
-0.149985
-0.199163
-0.220428
-0.175881
-0.126232
-0.0864644
-0.0729915
-0.055948
-0.0425296
-0.0619311
-0.0708163
-0.0552668
-0.0416739
-0.0491134
-0.035872
-0.0129975
-0.593016
-0.633775
-0.652992
-0.606655
-0.491056
-0.353403
-0.238622
-0.167454
-0.132654
-0.116439
-0.099006
-0.0936567
-0.108834
-0.122733
-0.148799
-0.195599
-0.21554
-0.172225
-0.124927
-0.0864182
-0.0735076
-0.0562489
-0.0433054
-0.0629007
-0.0719979
-0.0558207
-0.042026
-0.0490247
-0.0354145
-0.0130055
-0.591736
-0.631959
-0.649949
-0.603273
-0.489314
-0.355607
-0.24587
-0.182283
-0.151674
-0.138016
-0.118179
-0.105346
-0.114443
-0.123773
-0.146939
-0.191313
-0.209701
-0.168144
-0.123463
-0.0863215
-0.0739779
-0.0566154
-0.0441691
-0.0639386
-0.0732015
-0.0563648
-0.0423457
-0.0489303
-0.0350032
-0.0130083
-0.587852
-0.62698
-0.643566
-0.597085
-0.486076
-0.357576
-0.253842
-0.198846
-0.172478
-0.161062
-0.13737
-0.116699
-0.119429
-0.124227
-0.144437
-0.186341
-0.203748
-0.163662
-0.121836
-0.0861721
-0.0744033
-0.0570603
-0.0451286
-0.0650385
-0.0744215
-0.0568978
-0.0426332
-0.0488338
-0.034642
-0.0130064
-0.581133
-0.618576
-0.63366
-0.587983
-0.481178
-0.359046
-0.262212
-0.216566
-0.195125
-0.184983
-0.156268
-0.127612
-0.123806
-0.124144
-0.141336
-0.180726
-0.197057
-0.158797
-0.12004
-0.0859681
-0.0747858
-0.0575954
-0.046192
-0.0661924
-0.0756512
-0.0574185
-0.042889
-0.0487391
-0.0343342
-0.0130003
-0.5715
-0.606531
-0.620141
-0.575866
-0.474429
-0.359725
-0.270548
-0.23584
-0.218659
-0.209081
-0.174592
-0.137999
-0.127597
-0.123579
-0.1377
-0.174526
-0.189612
-0.15357
-0.118072
-0.0857077
-0.0751285
-0.0582301
-0.047366
-0.067391
-0.0768827
-0.0579251
-0.0431133
-0.0486499
-0.0340829
-0.0129907
-0.558987
-0.590706
-0.60303
-0.560657
-0.465647
-0.359315
-0.280099
-0.254192
-0.243186
-0.230722
-0.19209
-0.147794
-0.130834
-0.122593
-0.133602
-0.167811
-0.181468
-0.148005
-0.115927
-0.085389
-0.0754353
-0.0589718
-0.0486558
-0.0686248
-0.0781077
-0.058416
-0.0433063
-0.0485696
-0.0338905
-0.0129781
-0.542604
-0.572069
-0.582404
-0.542305
-0.454691
-0.35747
-0.289127
-0.272591
-0.268274
-0.253465
-0.20863
-0.156944
-0.133557
-0.121248
-0.129129
-0.160661
-0.172709
-0.142136
-0.113604
-0.0850106
-0.0757109
-0.0598259
-0.0500642
-0.0698846
-0.0793169
-0.0588891
-0.0434683
-0.0485019
-0.0337588
-0.0129629
-0.523647
-0.549869
-0.558282
-0.521024
-0.441215
-0.353827
-0.297343
-0.290729
-0.293316
-0.275225
-0.224096
-0.165413
-0.135816
-0.119607
-0.124377
-0.153167
-0.163439
-0.135996
-0.111101
-0.0845706
-0.0759605
-0.0607955
-0.0515916
-0.07116
-0.0805006
-0.0593423
-0.0435993
-0.0484499
-0.0336892
-0.0129456
-0.50259
-0.524749
-0.531168
-0.496646
-0.424981
-0.348382
-0.304554
-0.308296
-0.317662
-0.295799
-0.238399
-0.173181
-0.137663
-0.117732
-0.119447
-0.145427
-0.153772
-0.129624
-0.10842
-0.0840676
-0.0761896
-0.0618815
-0.0532357
-0.0724404
-0.0816492
-0.0597735
-0.0436994
)
;

boundaryField
{
    inlet
    {
        type            zeroGradient;
    }
    outlet
    {
        type            fixedValue;
        value           uniform 0;
    }
    cylinder
    {
        type            zeroGradient;
    }
    top
    {
        type            symmetryPlane;
    }
    bottom
    {
        type            symmetryPlane;
    }
    defaultFaces
    {
        type            empty;
    }
    procBoundary1to0
    {
        type            processor;
        value           nonuniform List<scalar> 
50
(
-0.388656
-0.430248
-0.430248
-0.469944
-0.469944
-0.526842
-0.502129
-0.502129
-0.53953
-0.53953
-0.544069
-0.544069
-0.545081
-0.545081
-0.544322
-0.536091
-0.536091
-0.534253
-0.534253
-0.0321295
-0.0330462
-0.0347628
-0.0372105
-0.0403601
-0.0441836
-0.0486738
-0.0538283
-0.0596533
-0.0661601
-0.0733641
-0.0733641
-0.0794544
-0.0878764
-0.0970311
-0.106942
-0.117631
-0.129125
-0.141446
-0.154616
-0.168657
-0.18359
-0.199431
-0.216192
-0.233885
-0.252517
-0.272061
-0.292481
-0.313879
-0.336451
-0.359674
)
;
    }
    procBoundary1to3
    {
        type            processor;
        value           nonuniform List<scalar> 
41
(
-0.42545
-0.427535
-0.428345
-0.429626
-0.431923
-0.43543
-0.440212
-0.446327
-0.45366
-0.462353
-0.479998
-0.497316
-0.501584
-0.46962
-0.406227
-0.340939
-0.310593
-0.324898
-0.34073
-0.314967
-0.251456
-0.18023
-0.139151
-0.115687
-0.114438
-0.137541
-0.143836
-0.12306
-0.105565
-0.0835
-0.0764033
-0.0630832
-0.0549913
-0.0737162
-0.0827535
-0.0601803
-0.0437685
-0.0484167
-0.0336825
-0.0129268
-0.0484167
)
;
    }
}


// ************************************************************************* //
