/*--------------------------------*- C++ -*----------------------------------*\
  =========                 |
  \\      /  F ield         | OpenFOAM: The Open Source CFD Toolbox
   \\    /   O peration     | Website:  https://openfoam.org
    \\  /    A nd           | Version:  7
     \\/     M anipulation  |
\*---------------------------------------------------------------------------*/
FoamFile
{
    version     2.0;
    format      ascii;
    class       volScalarField;
    location    "330";
    object      p;
}
// * * * * * * * * * * * * * * * * * * * * * * * * * * * * * * * * * * * * * //

dimensions      [0 2 -2 0 0 0 0];

internalField   nonuniform List<scalar> 
2125
(
-0.408996
-0.410798
-0.411413
-0.412265
-0.413897
-0.4166
-0.420565
-0.426059
-0.433265
-0.442617
-0.405516
-0.408039
-0.408913
-0.409892
-0.411483
-0.413901
-0.417253
-0.421691
-0.427198
-0.4341
-0.40225
-0.405448
-0.406563
-0.407654
-0.409184
-0.411285
-0.413972
-0.417269
-0.420928
-0.425122
-0.39935
-0.40316
-0.404498
-0.405691
-0.40715
-0.408921
-0.410917
-0.413025
-0.414741
-0.416047
-0.396964
-0.401304
-0.402847
-0.404136
-0.405523
-0.406967
-0.408269
-0.409173
-0.408905
-0.407204
-0.395223
-0.399997
-0.401723
-0.403104
-0.404429
-0.405562
-0.406187
-0.405899
-0.403658
-0.398866
-0.394234
-0.399335
-0.40122
-0.402691
-0.403967
-0.404818
-0.404799
-0.403356
-0.399197
-0.391228
-0.394079
-0.399386
-0.401405
-0.402964
-0.404209
-0.404816
-0.404202
-0.401657
-0.395682
-0.384406
-0.394801
-0.400188
-0.402311
-0.403955
-0.405191
-0.405601
-0.404452
-0.400871
-0.393233
-0.378446
-0.396407
-0.401742
-0.403935
-0.405661
-0.406909
-0.407175
-0.405563
-0.401015
-0.391929
-0.373338
-0.398863
-0.404015
-0.406238
-0.408035
-0.409315
-0.409488
-0.407492
-0.402038
-0.391782
-0.368995
-0.402109
-0.406939
-0.409147
-0.410995
-0.412313
-0.412438
-0.410137
-0.40382
-0.392725
-0.365127
-0.406026
-0.410421
-0.412556
-0.41442
-0.415765
-0.415864
-0.413328
-0.406185
-0.394731
-0.361353
-0.410497
-0.414344
-0.416343
-0.418166
-0.419498
-0.419558
-0.416826
-0.408909
-0.397532
-0.358641
-0.415387
-0.418589
-0.420372
-0.422077
-0.423323
-0.42328
-0.420352
-0.411836
-0.399616
-0.357494
-0.420557
-0.423038
-0.424516
-0.426001
-0.427057
-0.426799
-0.423588
-0.414839
-0.401096
-0.357174
-0.425887
-0.427589
-0.428668
-0.429812
-0.430546
-0.429956
-0.42627
-0.417217
-0.401852
-0.357224
-0.43128
-0.432168
-0.432749
-0.433425
-0.4337
-0.432608
-0.428279
-0.418797
-0.401373
-0.35703
-0.436675
-0.436734
-0.436724
-0.436798
-0.436467
-0.434727
-0.42959
-0.419567
-0.39944
-0.356647
-0.442071
-0.441264
-0.440589
-0.439949
-0.438878
-0.436352
-0.430273
-0.419507
-0.396553
-0.359323
-0.447471
-0.445801
-0.444387
-0.442935
-0.441013
-0.437576
-0.430447
-0.418595
-0.393871
-0.368685
-0.452934
-0.450397
-0.44819
-0.445852
-0.442988
-0.438522
-0.43024
-0.417035
-0.392007
-0.368102
-0.458547
-0.455132
-0.452094
-0.448816
-0.444933
-0.43932
-0.429754
-0.41505
-0.389768
-0.364879
-0.460097
-0.456203
-0.45195
-0.446977
-0.440089
-0.429084
-0.412761
-0.386975
-0.3608
-0.460625
-0.455368
-0.449228
-0.440921
-0.428302
-0.41022
-0.383707
-0.356117
-0.465454
-0.459165
-0.451759
-0.441872
-0.427445
-0.407463
-0.379994
-0.35122
-0.463403
-0.454609
-0.442957
-0.426508
-0.404495
-0.375923
-0.346143
-0.457778
-0.444148
-0.425453
-0.401305
-0.371547
-0.340932
-0.424218
-0.397873
-0.366904
-0.335562
-0.394166
-0.362001
-0.330004
-0.356822
-0.324212
-0.464006
-0.49714
-0.534809
-0.547917
-0.511882
-0.425108
-0.33136
-0.263147
-0.235791
-0.2487
-0.262316
-0.238947
-0.186592
-0.135333
-0.10648
-0.0945661
-0.0962951
-0.114634
-0.111209
-0.093867
-0.0861681
-0.0753359
-0.050405
-0.0539644
-0.0608667
-0.0679292
-0.0545005
-0.0460788
-0.0112485
-0.0152343
-0.451059
-0.477689
-0.509168
-0.518625
-0.48436
-0.405101
-0.320734
-0.261277
-0.24321
-0.263053
-0.2799
-0.251652
-0.194676
-0.138595
-0.106077
-0.091763
-0.0909921
-0.107489
-0.103657
-0.0903499
-0.0848597
-0.0748472
-0.0506759
-0.0547741
-0.0618995
-0.0686907
-0.0543958
-0.0458276
-0.0118101
-0.0153099
-0.437603
-0.456981
-0.481523
-0.486869
-0.454253
-0.382788
-0.307977
-0.257673
-0.249424
-0.276743
-0.296238
-0.263282
-0.201915
-0.141495
-0.105547
-0.0890108
-0.0858821
-0.100541
-0.0962741
-0.0867561
-0.0834565
-0.0743307
-0.0509801
-0.0555975
-0.0629552
-0.069417
-0.0542564
-0.045586
-0.0124248
-0.0154113
-0.42419
-0.435692
-0.452547
-0.453275
-0.421788
-0.358218
-0.292968
-0.252147
-0.254174
-0.289489
-0.311049
-0.273775
-0.208308
-0.14405
-0.104925
-0.0863473
-0.081026
-0.0938582
-0.0889556
-0.0830989
-0.0819635
-0.0737933
-0.0513193
-0.0564296
-0.0640266
-0.0701032
-0.0540817
-0.0453535
-0.0130894
-0.0155377
-0.411328
-0.414488
-0.422936
-0.418382
-0.387587
-0.331287
-0.275634
-0.24456
-0.257244
-0.300963
-0.324093
-0.283085
-0.213865
-0.14628
-0.104246
-0.0838036
-0.0764731
-0.087502
-0.0818673
-0.0793964
-0.080387
-0.0732412
-0.0516944
-0.0572658
-0.0651059
-0.0707453
-0.053871
-0.0451291
-0.0138003
-0.0156879
-0.399413
-0.393946
-0.393463
-0.382664
-0.352101
-0.302395
-0.255976
-0.234834
-0.258461
-0.310824
-0.335231
-0.291183
-0.218603
-0.148204
-0.103538
-0.0814043
-0.0722591
-0.0815245
-0.0750863
-0.0756698
-0.0787348
-0.0726797
-0.0521059
-0.0581012
-0.0661852
-0.0713391
-0.0536235
-0.044911
-0.0145534
-0.0158607
-0.388769
-0.374615
-0.364931
-0.347258
-0.316009
-0.271972
-0.234128
-0.222979
-0.257712
-0.318764
-0.347403
-0.298049
-0.222546
-0.149841
-0.102826
-0.0791675
-0.068406
-0.0759679
-0.0686833
-0.0719455
-0.0770158
-0.0721132
-0.0525532
-0.0589311
-0.0672566
-0.0718808
-0.0533387
-0.0446971
-0.0153439
-0.0160539
-0.379641
-0.356971
-0.33807
-0.31306
-0.280111
-0.240558
-0.210402
-0.209116
-0.254945
-0.324448
-0.354734
-0.3036
-0.225722
-0.15121
-0.102134
-0.0771051
-0.064922
-0.0708637
-0.0627217
-0.0682542
-0.0752407
-0.0715448
-0.0530355
-0.059751
-0.0683118
-0.0723666
-0.053016
-0.0444848
-0.0161667
-0.0162653
-0.372176
-0.341378
-0.313495
-0.280809
-0.245271
-0.208862
-0.185298
-0.193491
-0.25018
-0.327723
-0.359926
-0.307828
-0.228163
-0.152329
-0.10148
-0.0752235
-0.0618025
-0.0662314
-0.0572539
-0.0646314
-0.0734214
-0.0709765
-0.0535509
-0.060556
-0.0693429
-0.072793
-0.052655
-0.0442713
-0.0170158
-0.0164919
-0.366424
-0.328077
-0.291681
-0.251146
-0.212373
-0.17774
-0.159488
-0.176467
-0.243503
-0.328529
-0.362982
-0.310731
-0.229905
-0.153213
-0.100877
-0.0735242
-0.0590319
-0.062078
-0.0523186
-0.0611156
-0.0715713
-0.0704095
-0.0540968
-0.0613416
-0.0703421
-0.0731566
-0.0522555
-0.0440535
-0.0178848
-0.0167303
-0.362346
-0.317192
-0.272953
-0.224602
-0.182274
-0.148115
-0.133773
-0.1585
-0.235063
-0.326883
-0.363906
-0.312327
-0.230986
-0.153877
-0.100337
-0.0720053
-0.0565866
-0.0583973
-0.0479398
-0.0577468
-0.0697046
-0.0698434
-0.0546701
-0.0621031
-0.0713014
-0.0734541
-0.0518174
-0.0438282
-0.0187668
-0.0169767
-0.359881
-0.308756
-0.257496
-0.201579
-0.155601
-0.120894
-0.109015
-0.140108
-0.225063
-0.322882
-0.362767
-0.312648
-0.231445
-0.154339
-0.0998699
-0.0706644
-0.0544387
-0.0551704
-0.0441261
-0.0545634
-0.0678368
-0.069277
-0.055267
-0.062836
-0.0722123
-0.0736819
-0.0513405
-0.043592
-0.0196547
-0.0172267
-0.358888
-0.302651
-0.245383
-0.182241
-0.132055
-0.0968992
-0.0860422
-0.121824
-0.213747
-0.316697
-0.359671
-0.311734
-0.231327
-0.15462
-0.0994874
-0.0694983
-0.0525578
-0.0523655
-0.0408723
-0.0516
-0.0659834
-0.0687081
-0.0558831
-0.063536
-0.0730663
-0.0738364
-0.0508249
-0.0433414
-0.0205407
-0.0174757
-0.358383
-0.298492
-0.236482
-0.16652
-0.122461
-0.0768365
-0.0655498
-0.104156
-0.201391
-0.308559
-0.354752
-0.309633
-0.230673
-0.15473
-0.0991854
-0.0684945
-0.05091
-0.0499361
-0.0381587
-0.0488846
-0.0641604
-0.068133
-0.0565137
-0.0641988
-0.0738556
-0.0739147
-0.0502711
-0.0430718
-0.0214168
-0.0177185
-0.358035
-0.296411
-0.230244
-0.153901
-0.104774
-0.0602319
-0.0479848
-0.0875394
-0.188292
-0.298732
-0.348164
-0.306395
-0.229495
-0.154632
-0.0989239
-0.0676199
-0.0494563
-0.0478231
-0.0359458
-0.0464351
-0.0623827
-0.0675472
-0.0571538
-0.0648198
-0.0745746
-0.0739152
-0.0496796
-0.0427791
-0.0222736
-0.0179499
-0.357975
-0.296104
-0.22697
-0.147021
-0.0904598
-0.0475893
-0.0335818
-0.0723197
-0.174746
-0.287497
-0.340108
-0.302104
-0.227789
-0.154293
-0.0986706
-0.066854
-0.0481714
-0.045976
-0.0341832
-0.0442541
-0.0606631
-0.0669445
-0.0577982
-0.065395
-0.075221
-0.0738365
-0.0490505
-0.042463
-0.0231032
-0.0181645
-0.357876
-0.296667
-0.225924
-0.143675
-0.0822277
-0.0386818
-0.0224076
-0.0587453
-0.161051
-0.275163
-0.330819
-0.296912
-0.225716
-0.153918
-0.0985793
-0.066301
-0.0470886
-0.0443852
-0.0328664
-0.0423369
-0.0590095
-0.0663168
-0.0584415
-0.0659193
-0.0757899
-0.0736696
-0.0483825
-0.0421291
-0.023905
-0.0183577
-0.357427
-0.297778
-0.226764
-0.143409
-0.0779148
-0.0332348
-0.0144255
-0.0469316
-0.147462
-0.261999
-0.320186
-0.290923
-0.223694
-0.153998
-0.099007
-0.0661781
-0.0462752
-0.0430415
-0.0320638
-0.0407412
-0.0574464
-0.0656536
-0.0590768
-0.0663776
-0.0762426
-0.0733885
-0.0476764
-0.0417801
-0.0246827
-0.0185269
-0.357132
-0.299849
-0.229995
-0.14679
-0.0777091
-0.0314238
-0.00974166
-0.0369214
-0.133869
-0.247638
-0.307621
-0.283739
-0.221462
-0.154129
-0.0996006
-0.0662171
-0.0455664
-0.041733
-0.0316254
-0.0395803
-0.0560483
-0.0649442
-0.0596916
-0.0667456
-0.0765293
-0.0729956
-0.0469447
-0.0413902
-0.0254028
-0.018667
-0.355467
-0.300057
-0.232433
-0.151058
-0.0807806
-0.0337782
-0.00792347
-0.0301359
-0.121633
-0.233403
-0.295527
-0.274817
-0.216411
-0.151285
-0.098029
-0.0648969
-0.0443077
-0.039961
-0.0306367
-0.0382109
-0.0544839
-0.0641954
-0.0603382
-0.0671997
-0.0769967
-0.0726644
-0.0462052
-0.0408915
-0.0259419
-0.0187521
-0.339261
-0.291124
-0.224896
-0.145017
-0.0747723
-0.0292717
-0.00507965
-0.0248421
-0.115208
-0.227783
-0.288167
-0.265058
-0.207189
-0.144207
-0.0932108
-0.0613943
-0.0421362
-0.0374009
-0.0278272
-0.0332273
-0.0500869
-0.0625331
-0.0620022
-0.0687608
-0.0787997
-0.0726852
-0.0452826
-0.0401355
-0.0263477
-0.0187945
-0.31988
-0.275273
-0.212321
-0.13838
-0.0730715
-0.0316661
-0.00989294
-0.0280723
-0.111604
-0.215661
-0.269735
-0.24719
-0.193016
-0.134965
-0.0878945
-0.0580497
-0.0398372
-0.0347303
-0.0265266
-0.0339445
-0.0476014
-0.0621137
-0.063388
-0.0693923
-0.0789239
-0.0719046
-0.0435865
-0.0389809
-0.0271753
-0.0191635
-0.300862
-0.25924
-0.20052
-0.133688
-0.0742102
-0.0367496
-0.0181565
-0.0356076
-0.110399
-0.202392
-0.249298
-0.228208
-0.178813
-0.12591
-0.0825813
-0.0546459
-0.0374841
-0.0321179
-0.0254303
-0.0339429
-0.046095
-0.0623414
-0.0644085
-0.0695059
-0.078565
-0.0707631
-0.0416967
-0.0376654
-0.0280046
-0.0196032
-0.282255
-0.243867
-0.190041
-0.130716
-0.0778027
-0.0438108
-0.0279444
-0.0437735
-0.108702
-0.18796
-0.22762
-0.20851
-0.164373
-0.11665
-0.0771045
-0.0511736
-0.0350528
-0.0294842
-0.0244085
-0.03367
-0.0444763
-0.0624932
-0.065412
-0.0695733
-0.0779638
-0.069234
-0.0395983
-0.036134
-0.0287663
-0.0200242
-0.26339
-0.229026
-0.180493
-0.128531
-0.0820214
-0.0516714
-0.0380422
-0.0514419
-0.105778
-0.171635
-0.205122
-0.188584
-0.15003
-0.107413
-0.0715367
-0.0476273
-0.0325165
-0.026772
-0.023381
-0.0333306
-0.0426089
-0.0624405
-0.0665217
-0.0695691
-0.0768949
-0.0672534
-0.0372626
-0.034369
-0.0294244
-0.0204208
-0.244321
-0.214646
-0.171566
-0.126633
-0.0861852
-0.0592547
-0.0474083
-0.0579748
-0.101733
-0.155334
-0.182831
-0.169125
-0.136081
-0.0983154
-0.0659165
-0.0440025
-0.0298466
-0.0239349
-0.0222526
-0.0328817
-0.0405645
-0.0622141
-0.0676267
-0.0693263
-0.0752788
-0.0647653
-0.0346656
-0.0323418
-0.0299272
-0.0207807
-0.225563
-0.200683
-0.163013
-0.124365
-0.0896548
-0.0658689
-0.0553684
-0.0630154
-0.0969597
-0.139513
-0.161737
-0.150701
-0.122755
-0.0894693
-0.060294
-0.0402954
-0.0270141
-0.02092
-0.0209123
-0.0323437
-0.0383236
-0.0617012
-0.0685305
-0.0687307
-0.0730303
-0.061713
-0.0317829
-0.030022
-0.0302122
-0.021071
-0.207421
-0.187108
-0.154667
-0.121639
-0.0920573
-0.0711472
-0.0616357
-0.0665628
-0.0919356
-0.124892
-0.142507
-0.133681
-0.110203
-0.0809524
-0.0547117
-0.0364998
-0.0239895
-0.0176691
-0.0192165
-0.0315549
-0.0357419
-0.0606219
-0.069041
-0.0676892
-0.0700631
-0.0580415
-0.0285918
-0.0273748
-0.0302077
-0.0212461
-0.19006
-0.173918
-0.146407
-0.118337
-0.0932522
-0.0749735
-0.0662153
-0.0688054
-0.0870036
-0.111887
-0.12544
-0.118236
-0.0985101
-0.0728154
-0.0492077
-0.0326102
-0.0207448
-0.014123
-0.016978
-0.0299914
-0.0325691
-0.0586042
-0.0689533
-0.0660789
-0.0662966
-0.0537032
-0.0250733
-0.024361
-0.0298325
-0.0212514
-0.173603
-0.161125
-0.138151
-0.114447
-0.0932651
-0.0773768
-0.0692414
-0.0699521
-0.0827198
-0.100572
-0.11053
-0.10438
-0.0877038
-0.0650881
-0.0438153
-0.0286251
-0.0172573
-0.0102291
-0.013973
-0.0275947
-0.02847
-0.0552185
-0.0680203
-0.063749
-0.0616718
-0.0486655
-0.0212143
-0.0209387
-0.0289964
-0.0210234
-0.1581
-0.148749
-0.129866
-0.110006
-0.0921922
-0.0784567
-0.0708815
-0.0701179
-0.0783538
-0.0907679
-0.0975969
-0.0920357
-0.0777778
-0.0577871
-0.0385628
-0.0245512
-0.013516
-0.00594944
-0.00993858
-0.0240588
-0.0230177
-0.0499866
-0.0659569
-0.0605438
-0.0561653
-0.0429187
-0.017011
-0.0170644
-0.027602
-0.0204901
-0.143545
-0.136815
-0.121552
-0.105069
-0.0901591
-0.0783457
-0.0713074
-0.0694363
-0.0741914
-0.0822467
-0.086398
-0.0810791
-0.0687019
-0.0509212
-0.033475
-0.0204073
-0.00953241
-0.00127333
-0.00459619
-0.0177937
-0.0156984
-0.0424327
-0.0624677
-0.0563259
-0.0498023
-0.0364865
-0.0124731
-0.0126975
-0.0255487
-0.0195737
-0.129921
-0.125352
-0.113238
-0.0997097
-0.0873008
-0.0771912
-0.070685
-0.0680232
-0.0701507
-0.0747713
-0.0766803
-0.0713719
-0.0604321
-0.044495
-0.0285748
-0.0162284
-0.00534424
0.00376285
0.00221224
-0.00906687
-0.00602989
-0.0322124
-0.0572931
-0.0510012
-0.0426674
-0.0294357
-0.00762738
-0.00780761
-0.0227414
-0.0181951
-0.117205
-0.114388
-0.10497
-0.0940084
-0.0837534
-0.0751481
-0.0691735
-0.0659831
-0.0661671
-0.0681364
-0.0682107
-0.0627769
-0.0529174
-0.038511
-0.0238848
-0.0120691
-0.00101722
0.00906415
0.0104434
0.00253225
0.00630255
-0.0193018
-0.0502885
-0.0445443
-0.0349048
-0.0218846
-0.00252118
-0.00238311
-0.0191035
-0.0162824
-0.105368
-0.103948
-0.0968059
-0.088055
-0.0796513
-0.0723684
-0.0669262
-0.0634204
-0.0622035
-0.0621737
-0.0607853
-0.0551649
-0.0461046
-0.0329708
-0.0194263
-0.00800055
0.00334824
0.0144713
0.0196902
0.0167924
0.0211247
-0.00422432
-0.0415047
-0.0370125
-0.0266995
-0.014004
0.0027755
0.00355745
-0.0145924
-0.0137841
-0.0943838
-0.0940558
-0.0888068
-0.0819433
-0.0751261
-0.0690014
-0.0640813
-0.0604358
-0.0582459
-0.0567514
-0.0542308
-0.048418
-0.0399425
-0.0278737
-0.0152221
-0.00409487
0.00761178
0.0197502
0.0290979
0.0321696
0.0371851
0.0117414
-0.0311183
-0.0284252
-0.0182641
-0.0060114
0.00817001
0.00994846
-0.00922101
-0.0106858
-0.0842237
-0.0847296
-0.0810353
-0.0757668
-0.0703051
-0.0651959
-0.0607822
-0.0571243
-0.0542968
-0.0517693
-0.0484035
-0.0424304
-0.0343839
-0.0232139
-0.0112992
-0.000412344
0.011611
0.0246251
0.0375535
0.04591
0.0518864
0.0267316
-0.0193092
-0.0192066
-0.00985619
0.00184214
0.0135443
0.0166645
-0.00307814
-0.0070306
-0.0748605
-0.0759857
-0.0735502
-0.0696164
-0.0653069
-0.0610828
-0.0571571
-0.0535838
-0.050374
-0.0471541
-0.0431873
-0.0371086
-0.0293856
-0.018979
-0.00768853
0.00299421
0.0151946
0.0288425
0.0441413
0.0561212
0.0626563
0.0390851
-0.0064459
-0.00963986
-0.00175485
0.0092958
0.0187392
0.0235198
0.00379944
-0.00293834
-0.0662674
-0.0678359
-0.0664056
-0.0635765
-0.0602403
-0.0567825
-0.0533223
-0.0499069
-0.0465046
-0.0428554
-0.0384913
-0.0323712
-0.0249085
-0.0151533
-0.00442026
0.00607282
0.0182378
0.0321822
0.0483733
0.061707
0.0684363
0.0480393
0.00647857
-0.000229553
0.00577317
0.016118
0.0235775
0.0302183
0.0109636
0.00137531
-0.058419
-0.060289
-0.0596498
-0.0577246
-0.055205
-0.052408
-0.0493844
-0.0461756
-0.042721
-0.0388419
-0.0342466
-0.0281497
-0.0209161
-0.0117215
-0.00151564
0.00877582
0.0206741
0.0345209
0.0503372
0.063461
0.0700225
0.0536447
0.0180703
0.00849913
0.0125301
0.0221386
0.0278947
0.0363292
0.0178315
0.00558269
-0.0512912
-0.0533511
-0.0533249
-0.0521309
-0.0502911
-0.0480601
-0.0454403
-0.0424664
-0.0390593
-0.0350977
-0.0304028
-0.0243877
-0.017375
-0.00867023
0.00101919
0.0110676
0.0225072
0.0358771
0.0505712
0.0627347
0.0689025
0.0564057
0.0273578
0.0162038
0.0184255
0.0272631
0.0315788
0.0413295
0.0238567
0.00930137
-0.0448624
-0.0470265
-0.0474673
-0.0468583
-0.0455794
-0.0438289
-0.041577
-0.0388498
-0.0355581
-0.031619
-0.0269255
-0.0210413
-0.0142539
-0.00598759
0.0031928
0.0129376
0.0237917
0.0363915
0.0496849
0.0606171
0.0663034
0.0570872
0.0341096
0.0227205
0.0234582
0.0314558
0.0345924
0.044755
0.0285769
0.0121977
-0.0391146
-0.0413192
-0.0421094
-0.0419629
-0.0411425
-0.0397951
-0.037873
-0.0353917
-0.0322574
-0.028412
-0.023793
-0.0180778
-0.0115243
-0.00366083
0.00502475
0.0144024
0.0246117
0.0362713
0.0481598
0.0578456
0.0630415
0.056456
0.0386976
0.028046
0.0276688
0.0347237
0.0369462
0.0463475
0.0317637
0.0141066
-0.0340339
-0.0362343
-0.0372804
-0.037495
-0.0370454
-0.0360306
-0.0344009
-0.0321542
-0.0291983
-0.0254903
-0.0209948
-0.0154744
-0.00916044
-0.00167405
0.00654149
0.0155019
0.0250615
0.0357293
0.0463318
0.0548889
0.0596218
0.0551057
0.0416517
0.0322561
0.0311183
0.0371183
0.0386857
0.0461699
0.0334063
0.0151346
-0.0296125
-0.0317795
-0.0330085
-0.0335014
-0.033349
-0.0326109
-0.0312292
-0.0291964
-0.026423
-0.0228743
-0.0185298
-0.013217
-0.00714126
-8.05402e-06
0.00777266
0.0162916
0.0252318
0.0349521
0.0444261
0.0520382
0.0563556
0.0534526
0.0434379
0.0354779
0.0338787
0.0387447
0.0398675
0.0447362
0.0338033
0.0155467
-0.0258505
-0.0279677
-0.0293238
-0.0300268
-0.0301091
-0.0295999
-0.0284214
-0.0265756
-0.0239751
-0.0205897
-0.0164054
-0.0112991
-0.00545123
0.00135768
0.00874833
0.0168324
0.0252082
0.0340874
0.0426077
0.0494694
0.0534378
0.051771
0.0444265
0.0378567
0.0360253
0.0397535
0.0405546
0.0427231
0.0333572
0.0155841
-0.0227564
-0.0248186
-0.0262595
-0.027117
-0.027378
-0.0270441
-0.0260352
-0.0243476
-0.0219009
-0.018668
-0.0146372
-0.00972244
-0.00408111
0.0024418
0.00949666
0.0171833
0.0250699
0.0332508
0.0410003
0.0472902
0.0509885
0.0502384
0.0449013
0.0395376
0.0376332
0.0403146
0.0408425
0.0406977
0.0324181
0.0154045
-0.020353
-0.0223634
-0.0238582
-0.0248244
-0.025215
-0.0250102
-0.0241327
-0.0225708
-0.0202505
-0.0171469
-0.013249
-0.0084971
-0.00302932
0.00325803
0.010042
0.0173965
0.0248874
0.0325312
0.0396912
0.0455708
0.049079
0.0489717
0.0450746
0.0406562
0.0387736
0.0405886
0.040861
0.0390078
0.0313018
0.0151238
-0.0186793
-0.020649
-0.0221752
-0.0232117
-0.023689
-0.0235724
-0.0227834
-0.0213095
-0.0190806
-0.0160726
-0.0122745
-0.00764341
-0.00230392
0.00381209
0.0104017
0.0175135
0.024721
0.0319971
0.0387543
0.0443647
0.0477564
0.0480562
0.0451009
0.0413307
0.0395049
0.0407026
0.0407562
0.0378086
0.0303173
0.01485
-0.0177893
-0.0197393
-0.0212804
-0.0223519
-0.0228735
-0.0228025
-0.0220621
-0.0206353
-0.0184559
-0.0155
-0.0117573
-0.00719273
-0.00192367
0.00409886
0.0105845
0.0175636
0.0246203
0.0317036
0.0382558
0.0437257
0.0470647
0.0475652
0.0450884
0.0416511
0.0398652
0.040737
0.0406639
0.037179
0.0297206
0.0146814
-0.290211
-0.296082
-0.301575
-0.306713
-0.311521
-0.316032
-0.320283
-0.324425
-0.32848
-0.33357
-0.338752
-0.352879
-0.267961
-0.273564
-0.278811
-0.283742
-0.288401
-0.292909
-0.297333
-0.302133
-0.307057
-0.314007
-0.319528
-0.333122
-0.246885
-0.252366
-0.257582
-0.262595
-0.267443
-0.27228
-0.27702
-0.282095
-0.286591
-0.292341
-0.295508
-0.305669
-0.227287
-0.232655
-0.237809
-0.242793
-0.247576
-0.252252
-0.256556
-0.260888
-0.264321
-0.268852
-0.271791
-0.28036
-0.208731
-0.213851
-0.218746
-0.223438
-0.227858
-0.232101
-0.235959
-0.23991
-0.243335
-0.247783
-0.251234
-0.258214
-0.191073
-0.195864
-0.200437
-0.204818
-0.208973
-0.213023
-0.216843
-0.220782
-0.224327
-0.228345
-0.2316
-0.237132
-0.174427
-0.178914
-0.183222
-0.187386
-0.191384
-0.195292
-0.198991
-0.202646
-0.205923
-0.209377
-0.212511
-0.217281
-0.158847
-0.163053
-0.167111
-0.171035
-0.174802
-0.17844
-0.181874
-0.185216
-0.188335
-0.191572
-0.194736
-0.198999
-0.144272
-0.148186
-0.151964
-0.155613
-0.15912
-0.162509
-0.165758
-0.168935
-0.171978
-0.175043
-0.178074
-0.181895
-0.130647
-0.134272
-0.137779
-0.141176
-0.144462
-0.147651
-0.150733
-0.15373
-0.156605
-0.159448
-0.162301
-0.165802
-0.117956
-0.12131
-0.124565
-0.127727
-0.130794
-0.13377
-0.136647
-0.139437
-0.142133
-0.144804
-0.14751
-0.150747
-0.106166
-0.109262
-0.112273
-0.1152
-0.118043
-0.120804
-0.123485
-0.126094
-0.128632
-0.131144
-0.133686
-0.136663
-0.0952307
-0.0980817
-0.100858
-0.103561
-0.106193
-0.108756
-0.111252
-0.113685
-0.116055
-0.118397
-0.120764
-0.123494
-0.0851111
-0.087733
-0.0902898
-0.0927834
-0.0952148
-0.0975861
-0.0998975
-0.102153
-0.104355
-0.10653
-0.10873
-0.111226
-0.0757689
-0.0781771
-0.080528
-0.082823
-0.0850631
-0.0872498
-0.0893844
-0.09147
-0.0935102
-0.0955247
-0.0975601
-0.0998328
-0.0693749
-0.0715332
-0.0736419
-0.075702
-0.0777149
-0.0796819
-0.0816052
-0.0834885
-0.085346
-0.0872201
-0.0892818
-0.0612874
-0.0632673
-0.0652027
-0.0670946
-0.0689439
-0.070752
-0.0725203
-0.0742528
-0.0759597
-0.0776789
-0.0795436
-0.0538783
-0.0556935
-0.0574683
-0.0592034
-0.0608997
-0.0625585
-0.0641808
-0.0657704
-0.0673343
-0.068906
-0.0705878
-0.0471134
-0.0487773
-0.050404
-0.0519942
-0.0535486
-0.0550682
-0.0565538
-0.0580089
-0.0594381
-0.0608705
-0.0623838
-0.0409609
-0.0424865
-0.0439776
-0.0454347
-0.0468582
-0.0482491
-0.0496078
-0.0509375
-0.0522412
-0.0535435
-0.0549027
-0.0353922
-0.0367924
-0.0381601
-0.0394957
-0.0407995
-0.0420723
-0.0433144
-0.0445285
-0.0457162
-0.0468984
-0.0481179
-0.0303825
-0.0316697
-0.0329261
-0.0341518
-0.0353472
-0.0365128
-0.0376487
-0.0387573
-0.0398392
-0.0409119
-0.0420058
-0.0259121
-0.0270984
-0.0282552
-0.0293826
-0.0304806
-0.0315499
-0.0325903
-0.0336038
-0.0345905
-0.0355645
-0.036547
-0.0219639
-0.0230613
-0.0241303
-0.0251709
-0.026183
-0.0271671
-0.028123
-0.0290522
-0.0299546
-0.0308412
-0.0317262
-0.0185304
-0.0195504
-0.0205429
-0.0215078
-0.0224451
-0.023355
-0.0242373
-0.0250931
-0.0259222
-0.026733
-0.0275343
-0.0156082
-0.0165625
-0.0174901
-0.0183908
-0.0192647
-0.0201117
-0.0209316
-0.0217254
-0.0224925
-0.0232393
-0.0239704
-0.0131993
-0.0140996
-0.014974
-0.0158224
-0.0166444
-0.0174403
-0.0182096
-0.0189531
-0.0196702
-0.0203652
-0.0210402
-0.0113258
-0.0121839
-0.0130168
-0.0138243
-0.0146062
-0.0153624
-0.0160928
-0.0167977
-0.0174766
-0.0181324
-0.0187651
-0.0100061
-0.0108357
-0.0116408
-0.0124213
-0.0131768
-0.0139072
-0.0146123
-0.0152922
-0.0159465
-0.0165767
-0.0171818
-0.00928792
-0.0100995
-0.0108878
-0.0116524
-0.0123932
-0.0131101
-0.0138029
-0.0144716
-0.0151158
-0.0157365
-0.016332
-0.0463395
-0.0107427
-0.0151847
)
;

boundaryField
{
    inlet
    {
        type            zeroGradient;
    }
    outlet
    {
        type            fixedValue;
        value           uniform 0;
    }
    cylinder
    {
        type            zeroGradient;
    }
    top
    {
        type            symmetryPlane;
    }
    bottom
    {
        type            symmetryPlane;
    }
    defaultFaces
    {
        type            empty;
    }
    procBoundary3to1
    {
        type            processor;
        value           nonuniform List<scalar> 
41
(
-0.412536
-0.413591
-0.413931
-0.414634
-0.416273
-0.419209
-0.423708
-0.430136
-0.438847
-0.450305
-0.475914
-0.514729
-0.557875
-0.574263
-0.536565
-0.442755
-0.340009
-0.263496
-0.227454
-0.233904
-0.243809
-0.225226
-0.177676
-0.131693
-0.106718
-0.0973762
-0.101721
-0.1219
-0.118761
-0.0972955
-0.0873773
-0.0757891
-0.0501656
-0.0531732
-0.059864
-0.0671372
-0.0545712
-0.0466088
-0.0102951
-0.0151613
-0.0545712
)
;
    }
    procBoundary3to2
    {
        type            processor;
        value           nonuniform List<scalar> 
50
(
-0.464415
-0.464415
-0.465387
-0.465387
-0.471092
-0.470766
-0.470766
-0.46811
-0.46811
-0.461229
-0.445374
-0.445374
-0.422724
-0.422724
-0.390143
-0.390143
-0.351333
-0.318132
-0.318132
-0.283939
-0.261978
-0.241106
-0.221685
-0.203396
-0.186076
-0.169763
-0.154493
-0.140225
-0.126906
-0.114502
-0.102982
-0.0923035
-0.0824226
-0.0733022
-0.0671656
-0.0671656
-0.0592618
-0.0520218
-0.0454117
-0.0394002
-0.0339593
-0.0290643
-0.0246962
-0.0208381
-0.0174831
-0.0146275
-0.0122733
-0.0104428
-0.00915237
-0.00845315
)
;
    }
}


// ************************************************************************* //
