/*--------------------------------*- C++ -*----------------------------------*\
  =========                 |
  \\      /  F ield         | OpenFOAM: The Open Source CFD Toolbox
   \\    /   O peration     | Website:  https://openfoam.org
    \\  /    A nd           | Version:  7
     \\/     M anipulation  |
\*---------------------------------------------------------------------------*/
FoamFile
{
    version     2.0;
    format      ascii;
    class       volScalarField;
    location    "230";
    object      p;
}
// * * * * * * * * * * * * * * * * * * * * * * * * * * * * * * * * * * * * * //

dimensions      [0 2 -2 0 0 0 0];

internalField   nonuniform List<scalar> 
8500
(
-0.425105
-0.426088
-0.426487
-0.427474
-0.429676
-0.433448
-0.439026
-0.446723
-0.456804
-0.469642
-0.430672
-0.430937
-0.43111
-0.432027
-0.434361
-0.438531
-0.444832
-0.453651
-0.465383
-0.48034
-0.435929
-0.435471
-0.435402
-0.436195
-0.438587
-0.443045
-0.449918
-0.459645
-0.472734
-0.489286
-0.440759
-0.439601
-0.439253
-0.439883
-0.442233
-0.446848
-0.454118
-0.46451
-0.47863
-0.496394
-0.445074
-0.443261
-0.442607
-0.443003
-0.445208
-0.449834
-0.457307
-0.468111
-0.482929
-0.501386
-0.448813
-0.446406
-0.445426
-0.445515
-0.447459
-0.451935
-0.459412
-0.470367
-0.4856
-0.504192
-0.451946
-0.449024
-0.447701
-0.44741
-0.448972
-0.453132
-0.46041
-0.471256
-0.486666
-0.504878
-0.454471
-0.45113
-0.449451
-0.448714
-0.449773
-0.453451
-0.460336
-0.470821
-0.48622
-0.50358
-0.456414
-0.452765
-0.450727
-0.449481
-0.449923
-0.452963
-0.459275
-0.469161
-0.484423
-0.500486
-0.45783
-0.453991
-0.451597
-0.449795
-0.449521
-0.45178
-0.457364
-0.466434
-0.481499
-0.495831
-0.458799
-0.454887
-0.452151
-0.449757
-0.448691
-0.450054
-0.454785
-0.46285
-0.477731
-0.489897
-0.459423
-0.45555
-0.452489
-0.449487
-0.44758
-0.447965
-0.451759
-0.458674
-0.473444
-0.48302
-0.459823
-0.456086
-0.452724
-0.449115
-0.44635
-0.445721
-0.448534
-0.454219
-0.46898
-0.475642
-0.460143
-0.456615
-0.452974
-0.448779
-0.445174
-0.443543
-0.445374
-0.449835
-0.464622
-0.468298
-0.460541
-0.457262
-0.453365
-0.44862
-0.444229
-0.441659
-0.442537
-0.445899
-0.460525
-0.461611
-0.461188
-0.45816
-0.454027
-0.448783
-0.443692
-0.44029
-0.440264
-0.442775
-0.456672
-0.456101
-0.462261
-0.459444
-0.455091
-0.449413
-0.443729
-0.439636
-0.438757
-0.440738
-0.45294
-0.451798
-0.463933
-0.461246
-0.456681
-0.450639
-0.444485
-0.439848
-0.438177
-0.439881
-0.449239
-0.448116
-0.46634
-0.463699
-0.458911
-0.452572
-0.446061
-0.44101
-0.438606
-0.440053
-0.44562
-0.444848
-0.469636
-0.466879
-0.461866
-0.455283
-0.448509
-0.44312
-0.440018
-0.440876
-0.442341
-0.443717
-0.473918
-0.470855
-0.465599
-0.458805
-0.451821
-0.446101
-0.442269
-0.441898
-0.439826
-0.445242
-0.479228
-0.475669
-0.470131
-0.463129
-0.455942
-0.449824
-0.445126
-0.442923
-0.438126
-0.438214
-0.485554
-0.481354
-0.47546
-0.46822
-0.460784
-0.454137
-0.448332
-0.443912
-0.436032
-0.430433
-0.492904
-0.487889
-0.481568
-0.474031
-0.46625
-0.458887
-0.451688
-0.444698
-0.433546
-0.423124
-0.501252
-0.495262
-0.488437
-0.480519
-0.472247
-0.463937
-0.455022
-0.445138
-0.430706
-0.416012
-0.51056
-0.503458
-0.496058
-0.487652
-0.478698
-0.469166
-0.458174
-0.445151
-0.427469
-0.409249
-0.520792
-0.512471
-0.504427
-0.495402
-0.485537
-0.474455
-0.461002
-0.444674
-0.423887
-0.402645
-0.531911
-0.52229
-0.513541
-0.503741
-0.492697
-0.479674
-0.463387
-0.443681
-0.419971
-0.396155
-0.543875
-0.532902
-0.523384
-0.512625
-0.500084
-0.484677
-0.465235
-0.442157
-0.415742
-0.389687
-0.556632
-0.544276
-0.533918
-0.521984
-0.507567
-0.489312
-0.46647
-0.440095
-0.411197
-0.383172
-0.5701
-0.556354
-0.545069
-0.531709
-0.514974
-0.493431
-0.467031
-0.437482
-0.406321
-0.376538
-0.58417
-0.569046
-0.556722
-0.541643
-0.522099
-0.496888
-0.466861
-0.434297
-0.40108
-0.369712
-0.598696
-0.582217
-0.568719
-0.551572
-0.528715
-0.499548
-0.465903
-0.430509
-0.395429
-0.362621
-0.613484
-0.595688
-0.580854
-0.561235
-0.534593
-0.501278
-0.464096
-0.426072
-0.38931
-0.35519
-0.628302
-0.609232
-0.592871
-0.570336
-0.539503
-0.501954
-0.461373
-0.420932
-0.382657
-0.347346
-0.642874
-0.622583
-0.604469
-0.578559
-0.543225
-0.501454
-0.45766
-0.415024
-0.375401
-0.339017
-0.656884
-0.635433
-0.615308
-0.585584
-0.545549
-0.499659
-0.45288
-0.408277
-0.367468
-0.330135
-0.669986
-0.64744
-0.625019
-0.591096
-0.546281
-0.496457
-0.446951
-0.400615
-0.358784
-0.320635
-0.681811
-0.658238
-0.633221
-0.594801
-0.545242
-0.491737
-0.43979
-0.391965
-0.349277
-0.310463
-0.691972
-0.667444
-0.639535
-0.596424
-0.54227
-0.485398
-0.431318
-0.382252
-0.338885
-0.299573
-0.700081
-0.674668
-0.643599
-0.595721
-0.537222
-0.477345
-0.421457
-0.371409
-0.327552
-0.287936
-0.705756
-0.679524
-0.645078
-0.592478
-0.529973
-0.467491
-0.410134
-0.359366
-0.315231
-0.275534
-0.708632
-0.681645
-0.643679
-0.586518
-0.520423
-0.455765
-0.397283
-0.346058
-0.301868
-0.262336
-0.708372
-0.680692
-0.639152
-0.577699
-0.50849
-0.442109
-0.382854
-0.331438
-0.287394
-0.248203
-0.704675
-0.676364
-0.631299
-0.565921
-0.494121
-0.426483
-0.366818
-0.315487
-0.271767
-0.232852
-0.697286
-0.668416
-0.619965
-0.551116
-0.477283
-0.408863
-0.349152
-0.298207
-0.255032
-0.216129
-0.686
-0.656659
-0.605047
-0.533256
-0.457969
-0.389235
-0.329832
-0.279569
-0.237258
-0.198475
-0.670666
-0.640961
-0.586492
-0.512345
-0.436194
-0.367605
-0.308862
-0.259569
-0.218248
-0.180361
-0.651195
-0.621251
-0.564296
-0.488423
-0.411998
-0.344004
-0.286324
-0.238411
-0.19799
-0.161569
-0.627552
-0.597515
-0.538498
-0.461572
-0.385439
-0.318517
-0.262343
-0.215934
-0.176706
-0.141983
-0.599765
-0.569798
-0.509198
-0.431907
-0.356597
-0.291282
-0.236868
-0.19222
-0.154473
-0.121606
-0.567912
-0.538217
-0.476593
-0.39952
-0.32563
-0.262278
-0.209988
-0.167358
-0.131349
-0.10051
-0.532128
-0.502973
-0.440987
-0.364364
-0.29261
-0.231659
-0.181808
-0.141443
-0.107404
-0.0787991
-0.492612
-0.464327
-0.402458
-0.326655
-0.257658
-0.199556
-0.152446
-0.114576
-0.0827243
-0.056592
-0.449619
-0.422588
-0.360251
-0.287246
-0.221061
-0.166122
-0.122033
-0.086863
-0.0573951
-0.0339767
-0.403385
-0.377948
-0.315353
-0.245866
-0.183028
-0.131534
-0.0907109
-0.0584122
-0.031504
-0.0110402
-0.354118
-0.329902
-0.269101
-0.202807
-0.143734
-0.0959697
-0.0586164
-0.0293194
-0.00519414
0.0118544
-0.302239
-0.279541
-0.221223
-0.158381
-0.103388
-0.0596018
-0.0258621
0.000343678
0.0212472
0.0337825
-0.248295
-0.22713
-0.171845
-0.112869
-0.0622238
-0.022607
0.00744791
0.0304778
0.0474593
0.054084
-0.192536
-0.173174
-0.121269
-0.0665523
-0.020488
0.0148229
0.0411453
0.0608112
0.0732999
0.0747738
-0.135397
-0.118103
-0.0698574
-0.019725
0.021568
0.0524725
0.0749578
0.0908897
0.0987457
0.10132
-0.0773372
-0.0623279
-0.0179904
0.0273082
0.0636892
0.0901081
0.108604
0.120596
0.124845
0.128079
-0.0188132
-0.00626396
0.0339525
0.0742364
0.105614
0.127493
0.141908
0.150036
0.151268
0.153503
0.039715
0.0496679
0.0855947
0.120746
0.147075
0.16439
0.174697
0.179084
0.177518
0.177903
0.0977887
0.105046
0.136565
0.166526
0.187809
0.200575
0.206801
0.207561
0.203211
0.201253
0.154954
0.159453
0.186499
0.21127
0.227555
0.235829
0.238043
0.235278
0.228144
0.223609
0.210767
0.21248
0.235043
0.254679
0.266058
0.269937
0.268238
0.262055
0.252158
0.244949
0.264793
0.26373
0.281853
0.296462
0.303074
0.302691
0.297208
0.287728
0.275127
0.265226
0.316617
0.312821
0.326602
0.336342
0.338366
0.333891
0.324781
0.312145
0.296933
0.284373
0.36584
0.359389
0.368976
0.374055
0.37171
0.363345
0.350792
0.335166
0.317462
0.302316
0.412088
0.403094
0.408683
0.409353
0.402895
0.390874
0.375087
0.356659
0.336609
0.318983
0.45501
0.443615
0.445448
0.442004
0.431723
0.416309
0.397523
0.376503
0.354271
0.334302
0.494283
0.480659
0.479021
0.471795
0.458013
0.439494
0.417969
0.394583
0.370353
0.348207
0.529615
0.513962
0.509173
0.498532
0.481599
0.46029
0.436303
0.410797
0.38477
0.360638
0.560744
0.543288
0.535702
0.522045
0.502336
0.47857
0.452419
0.425053
0.397443
0.371542
0.587443
0.568429
0.558432
0.542183
0.520095
0.494227
0.466225
0.43727
0.408306
0.380874
0.609521
0.589215
0.577215
0.55882
0.534769
0.507167
0.477641
0.44738
0.4173
0.388597
0.626822
0.605503
0.59193
0.571855
0.54627
0.517315
0.486603
0.455327
0.424379
0.394682
0.639227
0.617188
0.602485
0.581209
0.554531
0.524616
0.493062
0.461068
0.42951
0.399113
0.646658
0.624198
0.60882
0.58683
0.559508
0.52903
0.496986
0.464576
0.432669
0.401873
0.649074
0.626496
0.610902
0.588691
0.561178
0.530538
0.498356
0.465833
0.433833
0.402924
0.646472
0.624081
0.608731
0.586792
0.559539
0.529138
0.497173
0.464839
0.432997
0.402287
0.63889
0.616987
0.602335
0.581156
0.554611
0.524847
0.49345
0.461607
0.430186
0.399956
0.626404
0.605282
0.591773
0.571833
0.546438
0.517703
0.487218
0.456163
0.425425
0.395983
0.609127
0.589069
0.577133
0.558898
0.535083
0.507757
0.478523
0.448547
0.418742
0.390371
0.587212
0.568486
0.558533
0.54245
0.520631
0.495084
0.467427
0.438811
0.410176
0.383139
0.560846
0.543703
0.536119
0.522614
0.503187
0.479773
0.454006
0.427022
0.399786
0.374325
0.530253
0.514921
0.510065
0.499536
0.482876
0.46193
0.43835
0.413258
0.387636
0.363974
0.495689
0.482374
0.480568
0.473385
0.459843
0.441678
0.420564
0.397608
0.373802
0.352136
0.457441
0.446323
0.447855
0.444351
0.434249
0.419154
0.400765
0.380174
0.358368
0.338869
0.415829
0.407057
0.412172
0.412643
0.406273
0.394512
0.379083
0.361065
0.341426
0.324238
0.371197
0.36489
0.373789
0.378491
0.376109
0.367916
0.355659
0.340402
0.323077
0.308312
0.323915
0.32016
0.332997
0.34214
0.343966
0.339545
0.330643
0.318316
0.303427
0.291166
0.274373
0.273226
0.290103
0.30385
0.310065
0.309586
0.304198
0.294943
0.282589
0.272872
0.222982
0.224461
0.245431
0.263894
0.274639
0.278237
0.276492
0.270432
0.260679
0.253502
0.170166
0.174258
0.199318
0.222557
0.237928
0.245702
0.247701
0.244943
0.237823
0.233114
0.116362
0.123019
0.152113
0.180134
0.200182
0.212194
0.218006
0.218649
0.214175
0.211743
0.0620138
0.071152
0.104173
0.136926
0.161658
0.177928
0.187583
0.191731
0.189922
0.189355
0.00756834
0.0190712
0.0558611
0.093238
0.122614
0.143123
0.156602
0.164366
0.165409
0.165946
-0.0465271
-0.0328118
0.00754478
0.0493766
0.0833118
0.108011
0.125235
0.136679
0.141077
0.141178
-0.0998292
-0.0840914
-0.0404068
0.00564599
0.0440061
0.0728209
0.0936546
0.108597
0.117273
0.116436
-0.151897
-0.134369
-0.0876266
-0.0376563
0.00494721
0.0377795
0.0621287
0.0802539
0.0930978
0.0969539
-0.202314
-0.183233
-0.133762
-0.0802435
-0.0336198
0.00309747
0.0309111
0.0520514
0.0685613
0.0777628
-0.250826
-0.230218
-0.178513
-0.121844
-0.0714562
-0.031037
0.000162621
0.0242277
0.0437629
0.0570997
-0.296924
-0.275062
-0.221728
-0.16219
-0.108334
-0.0644492
-0.0300086
-0.00311364
0.019044
0.0355561
-0.340217
-0.316799
-0.263595
-0.200996
-0.144045
-0.0969688
-0.0594854
-0.0298874
-0.00531161
0.0139633
-0.380507
-0.35587
-0.302897
-0.237991
-0.178407
-0.128424
-0.0881309
-0.0559926
-0.0291605
-0.00733935
-0.417577
-0.392057
-0.339025
-0.273218
-0.211222
-0.158647
-0.115808
-0.0813218
-0.0524155
-0.0282618
-0.451191
-0.425062
-0.372397
-0.306099
-0.242284
-0.187492
-0.142391
-0.105772
-0.0749906
-0.048717
-0.481176
-0.454663
-0.40292
-0.336496
-0.271447
-0.214828
-0.167769
-0.129247
-0.0967998
-0.0685933
-0.507422
-0.480709
-0.430367
-0.364373
-0.298596
-0.24056
-0.191846
-0.151657
-0.117769
-0.0877922
-0.529873
-0.503116
-0.454588
-0.38963
-0.323643
-0.264666
-0.214519
-0.172923
-0.137832
-0.106252
-0.548526
-0.521865
-0.475509
-0.412174
-0.346503
-0.286998
-0.235874
-0.192954
-0.156901
-0.123981
-0.563434
-0.536993
-0.493112
-0.431943
-0.36712
-0.307495
-0.255742
-0.21186
-0.17483
-0.141111
-0.574706
-0.548593
-0.507424
-0.448916
-0.38547
-0.326145
-0.274076
-0.229521
-0.191715
-0.15775
-0.582504
-0.556817
-0.518521
-0.463108
-0.401547
-0.34295
-0.290889
-0.24592
-0.207546
-0.173257
-0.587042
-0.561865
-0.526529
-0.474566
-0.415373
-0.357926
-0.306196
-0.26106
-0.222263
-0.187524
-0.588574
-0.563993
-0.531616
-0.483376
-0.426989
-0.371103
-0.320022
-0.274953
-0.235892
-0.200752
-0.587395
-0.563494
-0.533996
-0.489659
-0.436466
-0.382529
-0.332404
-0.287634
-0.24849
-0.213112
-0.583827
-0.560691
-0.533929
-0.493573
-0.443895
-0.392268
-0.343396
-0.299153
-0.260106
-0.224671
-0.578212
-0.555927
-0.531709
-0.495311
-0.449392
-0.400401
-0.353067
-0.309569
-0.27078
-0.235445
-0.5709
-0.549551
-0.527658
-0.495095
-0.453093
-0.407023
-0.361493
-0.318946
-0.280555
-0.245451
-0.562241
-0.54191
-0.522116
-0.493176
-0.455154
-0.412238
-0.368755
-0.327353
-0.289483
-0.25472
-0.552576
-0.533338
-0.515424
-0.489825
-0.45575
-0.416159
-0.374941
-0.334864
-0.297626
-0.263289
-0.542226
-0.524147
-0.507911
-0.485329
-0.455071
-0.418911
-0.380142
-0.341558
-0.30505
-0.271202
-0.531484
-0.514618
-0.499885
-0.479978
-0.453322
-0.420622
-0.384452
-0.347512
-0.311823
-0.27851
-0.520612
-0.505002
-0.491621
-0.47406
-0.450717
-0.421432
-0.387966
-0.352805
-0.318014
-0.285267
-0.509833
-0.495508
-0.48335
-0.467839
-0.447478
-0.421483
-0.390778
-0.35751
-0.323688
-0.291525
-0.499334
-0.486307
-0.475268
-0.461552
-0.443824
-0.420924
-0.392981
-0.361697
-0.328904
-0.297338
-0.489261
-0.477527
-0.467524
-0.455392
-0.439965
-0.419907
-0.394669
-0.365427
-0.333715
-0.302756
-0.479719
-0.469259
-0.460231
-0.449508
-0.436088
-0.418582
-0.39593
-0.368756
-0.33816
-0.307825
-0.470778
-0.461557
-0.453462
-0.444008
-0.432345
-0.417094
-0.396853
-0.371731
-0.342264
-0.312585
-0.46247
-0.454441
-0.447254
-0.438957
-0.428848
-0.415572
-0.397523
-0.37439
-0.346032
-0.31707
-0.454789
-0.447901
-0.441607
-0.434385
-0.42566
-0.414114
-0.398016
-0.376764
-0.349447
-0.321297
-0.447702
-0.441901
-0.436492
-0.430287
-0.422803
-0.412779
-0.398393
-0.378879
-0.352468
-0.325278
-0.441147
-0.436384
-0.431849
-0.426619
-0.42026
-0.411581
-0.398689
-0.380749
-0.355039
-0.328965
-0.435044
-0.431277
-0.427601
-0.423311
-0.417982
-0.410492
-0.398904
-0.382379
-0.357081
-0.332319
-0.429308
-0.426501
-0.423657
-0.420266
-0.415886
-0.40945
-0.398999
-0.383746
-0.35858
-0.334973
-0.423852
-0.42198
-0.419926
-0.417381
-0.413871
-0.408367
-0.398911
-0.384815
-0.359482
-0.336708
-0.41861
-0.417648
-0.416329
-0.414556
-0.411832
-0.407144
-0.398568
-0.385478
-0.360019
-0.335771
-0.413538
-0.413463
-0.412805
-0.411715
-0.409674
-0.40569
-0.397904
-0.385558
-0.361415
-0.323961
-0.408624
-0.409407
-0.409327
-0.408813
-0.407339
-0.403943
-0.396851
-0.384932
-0.363204
-0.319827
-0.403893
-0.405495
-0.405906
-0.405845
-0.404815
-0.401885
-0.395378
-0.383728
-0.364415
-0.319416
-0.399406
-0.401775
-0.402583
-0.402864
-0.402151
-0.399559
-0.393517
-0.382052
-0.364626
-0.319334
-0.395252
-0.398321
-0.399437
-0.399955
-0.399449
-0.397087
-0.391402
-0.380016
-0.364153
-0.319577
-0.391542
-0.395231
-0.396574
-0.397233
-0.396855
-0.394633
-0.389129
-0.378094
-0.363496
-0.320791
-0.388398
-0.392611
-0.394108
-0.394855
-0.394545
-0.392421
-0.38713
-0.376814
-0.362603
-0.323527
-0.385937
-0.390571
-0.392169
-0.392958
-0.392695
-0.390675
-0.38566
-0.376119
-0.361995
-0.328409
-0.384266
-0.389211
-0.390862
-0.39167
-0.391462
-0.389589
-0.384948
-0.376276
-0.362741
-0.334402
-0.383467
-0.388607
-0.390276
-0.391095
-0.390966
-0.389306
-0.385157
-0.377463
-0.364952
-0.341075
-0.383591
-0.388813
-0.390468
-0.391299
-0.391282
-0.389912
-0.386369
-0.379762
-0.36862
-0.348694
-0.384659
-0.389849
-0.391465
-0.392312
-0.392443
-0.391435
-0.388603
-0.383194
-0.373708
-0.357439
-0.386655
-0.391706
-0.39326
-0.394127
-0.394439
-0.393858
-0.391829
-0.387721
-0.380125
-0.367345
-0.389531
-0.394342
-0.395812
-0.396704
-0.397224
-0.397127
-0.395977
-0.393266
-0.387744
-0.37838
-0.393209
-0.397685
-0.399052
-0.399972
-0.400725
-0.401157
-0.400947
-0.399713
-0.396409
-0.390449
-0.397585
-0.40164
-0.402886
-0.403836
-0.40484
-0.405835
-0.406612
-0.406913
-0.405931
-0.403381
-0.402535
-0.406089
-0.407199
-0.408178
-0.409443
-0.411023
-0.412813
-0.414684
-0.416074
-0.416921
-0.407915
-0.410901
-0.411859
-0.412863
-0.414391
-0.416562
-0.419368
-0.422806
-0.426558
-0.430732
-0.413575
-0.415934
-0.416724
-0.417743
-0.419525
-0.422273
-0.426071
-0.431033
-0.437066
-0.444414
-0.419356
-0.421043
-0.421648
-0.422664
-0.424676
-0.427966
-0.4327
-0.439096
-0.447261
-0.45753
-0.496458
-0.532891
-0.563432
-0.556797
-0.495579
-0.398922
-0.311781
-0.261675
-0.25529
-0.268949
-0.258664
-0.207409
-0.155922
-0.121269
-0.105745
-0.109525
-0.123478
-0.133112
-0.118573
-0.0927414
-0.0840173
-0.0689126
-0.0469286
-0.0594396
-0.0703699
-0.0681538
-0.050061
-0.0455403
-0.0171397
-0.0179757
-0.511366
-0.552513
-0.586926
-0.581236
-0.515567
-0.410464
-0.314543
-0.254822
-0.239851
-0.248499
-0.240146
-0.195177
-0.149271
-0.120015
-0.107427
-0.114413
-0.131077
-0.141126
-0.124394
-0.0946468
-0.084472
-0.0688547
-0.046234
-0.0583615
-0.0691675
-0.0675173
-0.0500347
-0.0458038
-0.0168114
-0.0179868
-0.524022
-0.569146
-0.607003
-0.602297
-0.532735
-0.419877
-0.315729
-0.247251
-0.224132
-0.227997
-0.220648
-0.182078
-0.142002
-0.118451
-0.108915
-0.119165
-0.138589
-0.148944
-0.130011
-0.0964538
-0.0848355
-0.0688194
-0.0456045
-0.0573125
-0.0679829
-0.0668477
-0.0499686
-0.0460833
-0.0165551
-0.0180072
-0.533931
-0.582509
-0.623443
-0.619851
-0.547097
-0.427358
-0.315641
-0.239284
-0.208409
-0.207827
-0.20049
-0.168189
-0.134131
-0.116539
-0.110163
-0.123694
-0.14591
-0.156477
-0.135391
-0.0981609
-0.0851096
-0.0687973
-0.0450364
-0.0562998
-0.0668255
-0.0661488
-0.0498621
-0.0463751
-0.0163728
-0.0180363
-0.541073
-0.59241
-0.636118
-0.633837
-0.558699
-0.433115
-0.314598
-0.231221
-0.192988
-0.188277
-0.179622
-0.153606
-0.125686
-0.114244
-0.111121
-0.127915
-0.15294
-0.163634
-0.140504
-0.0997672
-0.0852966
-0.0687782
-0.0445255
-0.05533
-0.065704
-0.0654245
-0.0497145
-0.046675
-0.0162661
-0.018073
-0.545451
-0.598876
-0.645035
-0.644273
-0.567611
-0.437347
-0.312907
-0.22333
-0.178192
-0.169554
-0.158517
-0.138456
-0.116715
-0.111539
-0.111745
-0.13175
-0.159583
-0.170341
-0.145324
-0.101272
-0.0853991
-0.0687518
-0.0440674
-0.0544095
-0.0646264
-0.0646785
-0.049525
-0.0469784
-0.0162365
-0.0181164
-0.547176
-0.602084
-0.650329
-0.651236
-0.573917
-0.440232
-0.310851
-0.21586
-0.164341
-0.151805
-0.137796
-0.122902
-0.10729
-0.108398
-0.111989
-0.135131
-0.16575
-0.176533
-0.149831
-0.102677
-0.0854203
-0.0687081
-0.0436576
-0.0535441
-0.0635997
-0.0639149
-0.0492927
-0.0472798
-0.016285
-0.0181655
-0.546497
-0.602319
-0.652219
-0.654862
-0.577718
-0.441925
-0.308676
-0.209031
-0.151718
-0.135157
-0.118025
-0.107142
-0.097504
-0.104806
-0.11181
-0.138001
-0.171364
-0.182155
-0.154008
-0.103981
-0.0853637
-0.0686371
-0.0432916
-0.0527387
-0.0626297
-0.0631373
-0.0490164
-0.0475737
-0.0164125
-0.0182191
-0.543748
-0.599948
-0.650979
-0.655351
-0.579117
-0.442543
-0.306582
-0.203036
-0.140531
-0.119738
-0.0996824
-0.0914132
-0.0874695
-0.100749
-0.111171
-0.140315
-0.176364
-0.187172
-0.15784
-0.105187
-0.0852329
-0.0685295
-0.0429647
-0.0519973
-0.0617208
-0.062349
-0.048695
-0.047854
-0.0166192
-0.0182759
-0.539309
-0.595372
-0.646941
-0.652934
-0.578234
-0.442176
-0.30471
-0.198026
-0.130907
-0.105682
-0.0831221
-0.0760055
-0.0773153
-0.0962239
-0.110037
-0.142042
-0.180702
-0.191544
-0.161317
-0.106297
-0.0850321
-0.0683771
-0.0426721
-0.0513229
-0.0608757
-0.061553
-0.0483274
-0.048114
-0.016905
-0.0183345
-0.533581
-0.588956
-0.640452
-0.647841
-0.575228
-0.440896
-0.303144
-0.194096
-0.122891
-0.0931168
-0.0685494
-0.0612481
-0.0671702
-0.0912361
-0.108378
-0.143165
-0.184347
-0.195223
-0.164429
-0.107311
-0.0847658
-0.0681727
-0.0424091
-0.0507172
-0.0600956
-0.0607515
-0.0479127
-0.0483472
-0.0172694
-0.0183935
-0.526935
-0.580986
-0.63186
-0.640296
-0.570292
-0.438794
-0.301918
-0.191292
-0.116465
-0.0821488
-0.056011
-0.0474606
-0.0571566
-0.0857968
-0.10617
-0.143677
-0.187289
-0.198152
-0.167168
-0.108233
-0.0844392
-0.0679104
-0.0421706
-0.0501809
-0.0593799
-0.0599461
-0.0474498
-0.0485465
-0.0177113
-0.0184511
-0.519662
-0.572128
-0.621519
-0.630545
-0.563602
-0.435995
-0.301051
-0.189619
-0.111591
-0.0728594
-0.0454217
-0.034973
-0.0473789
-0.0799225
-0.10339
-0.143583
-0.189525
-0.20033
-0.169535
-0.109066
-0.0840586
-0.0675848
-0.041951
-0.0497137
-0.0587262
-0.0591375
-0.0469378
-0.0487047
-0.0182291
-0.0185057
-0.511927
-0.563913
-0.609677
-0.618808
-0.555351
-0.432623
-0.300557
-0.189051
-0.108215
-0.0652845
-0.0366037
-0.0240573
-0.037926
-0.0736314
-0.100019
-0.142898
-0.191063
-0.202053
-0.171537
-0.10981
-0.0836288
-0.0671896
-0.0417426
-0.0493121
-0.0581303
-0.0583253
-0.0463762
-0.0488144
-0.0188208
-0.0185554
-0.503826
-0.548306
-0.596258
-0.605265
-0.545718
-0.428748
-0.300361
-0.189436
-0.106205
-0.0593604
-0.0293102
-0.014618
-0.0288816
-0.0669387
-0.0960357
-0.14164
-0.191933
-0.204869
-0.173164
-0.110453
-0.0831501
-0.0667174
-0.0415367
-0.0489676
-0.0575849
-0.0575083
-0.0457643
-0.0488682
-0.0194841
-0.0185984
-0.495949
-0.537553
-0.581494
-0.590141
-0.534849
-0.424283
-0.300188
-0.190429
-0.105308
-0.0549108
-0.0232764
-0.00681587
-0.0203003
-0.0598491
-0.0914172
-0.139831
-0.192152
-0.209322
-0.174398
-0.110986
-0.0826236
-0.0661696
-0.0413298
-0.0486743
-0.0570784
-0.0566837
-0.0451018
-0.0488585
-0.0202168
-0.0186328
-0.488659
-0.525355
-0.565546
-0.573832
-0.52305
-0.419368
-0.300084
-0.192043
-0.105556
-0.0519344
-0.0184269
-0.000542753
-0.0122046
-0.0523556
-0.0861344
-0.137499
-0.191698
-0.213403
-0.175222
-0.111465
-0.0820802
-0.065572
-0.0411327
-0.0484519
-0.0566052
-0.0558472
-0.0443885
-0.0487778
-0.0210151
-0.0186558
-0.480904
-0.512812
-0.548549
-0.556723
-0.511151
-0.415241
-0.301471
-0.195568
-0.10789
-0.0510024
-0.0150777
0.00421174
-0.0047564
-0.0444438
-0.0801663
-0.134644
-0.190523
-0.217807
-0.175585
-0.112019
-0.0815926
-0.064953
-0.0409543
-0.0483365
-0.0561979
-0.0549976
-0.0436254
-0.0486183
-0.0218624
-0.0186609
-0.472016
-0.499492
-0.530179
-0.538319
-0.499041
-0.412095
-0.304591
-0.201062
-0.112294
-0.0519655
-0.0129774
0.00778963
0.00151886
-0.0362282
-0.0734153
-0.131356
-0.188491
-0.217623
-0.175302
-0.112529
-0.0811165
-0.0642301
-0.040725
-0.0482422
-0.0558916
-0.0541409
-0.0428195
-0.0483742
-0.0227422
-0.018645
-0.465451
-0.486554
-0.511962
-0.517814
-0.482268
-0.402182
-0.300512
-0.200235
-0.112541
-0.0504401
-0.00917243
0.0122754
0.00770623
-0.0276107
-0.0661375
-0.127385
-0.186068
-0.212997
-0.174286
-0.112008
-0.0801795
-0.0631201
-0.0402416
-0.047788
-0.055348
-0.0531966
-0.0419457
-0.048043
-0.0237689
-0.0186332
-0.452278
-0.475133
-0.495491
-0.496409
-0.458896
-0.380807
-0.283568
-0.187825
-0.104018
-0.0428866
-0.00138722
0.020588
0.0241016
-0.0113579
-0.0535591
-0.123255
-0.188342
-0.217485
-0.173558
-0.109806
-0.0782336
-0.0614283
-0.0393612
-0.0464537
-0.0514854
-0.0515049
-0.0404856
-0.0475258
-0.0255798
-0.0186728
-0.438195
-0.455955
-0.467072
-0.461538
-0.424024
-0.351969
-0.262836
-0.174436
-0.0962622
-0.0368738
0.00456688
0.0269803
0.0286898
0.0019958
-0.0422745
-0.116957
-0.186108
-0.206773
-0.168923
-0.106331
-0.0751381
-0.0588288
-0.0385459
-0.0456252
-0.0517087
-0.0505278
-0.0387266
-0.0465604
-0.0274338
-0.0185744
-0.421055
-0.433295
-0.436117
-0.425984
-0.390183
-0.324978
-0.243911
-0.162358
-0.0891515
-0.0316844
0.00953003
0.0332148
0.0383962
0.0142304
-0.0331883
-0.110638
-0.181817
-0.200528
-0.162968
-0.102365
-0.0717325
-0.056
-0.0376175
-0.0448037
-0.0513448
-0.0497039
-0.0368162
-0.0452402
-0.0291879
-0.0184367
-0.40092
-0.408494
-0.404934
-0.391522
-0.357793
-0.299089
-0.22571
-0.150802
-0.0824251
-0.0272143
0.0136185
0.03922
0.0496597
0.0280282
-0.0236059
-0.103732
-0.176914
-0.192872
-0.155465
-0.0977656
-0.0680476
-0.0528302
-0.0365204
-0.043956
-0.0507821
-0.0486574
-0.0346997
-0.0436174
-0.0309455
-0.0182673
-0.377955
-0.382574
-0.374519
-0.358779
-0.327205
-0.274628
-0.208503
-0.139927
-0.0761334
-0.0233797
0.0169072
0.0445373
0.0603345
0.0430812
-0.0129769
-0.0960335
-0.171007
-0.183126
-0.146359
-0.0925211
-0.0640787
-0.0493253
-0.0352095
-0.0430456
-0.0501014
-0.0473855
-0.0323896
-0.041709
-0.0326505
-0.0180537
-0.353302
-0.356348
-0.345414
-0.328167
-0.298717
-0.251749
-0.192312
-0.129707
-0.0702845
-0.0200824
0.0194831
0.0488911
0.0701241
0.0581572
-0.00190294
-0.0875633
-0.163296
-0.171217
-0.135732
-0.0866296
-0.0598293
-0.0454785
-0.0336402
-0.0420284
-0.0492808
-0.0459297
-0.0299037
-0.0394725
-0.0342243
-0.0177869
-0.328137
-0.330358
-0.317878
-0.299843
-0.272407
-0.230473
-0.177147
-0.120136
-0.064905
-0.0172554
0.0214036
0.0521189
0.0786347
0.0718979
0.00894876
-0.0783577
-0.153219
-0.15725
-0.123745
-0.0801124
-0.0553056
-0.0412944
-0.0317624
-0.0408483
-0.048255
-0.044268
-0.0272454
-0.0368591
-0.0355942
-0.0174579
-0.303114
-0.30496
-0.291964
-0.273757
-0.248214
-0.210758
-0.162988
-0.111189
-0.0600046
-0.0148737
0.0226956
0.0541232
0.0852226
0.0829538
0.0191011
-0.0684147
-0.140356
-0.14144
-0.11066
-0.0730206
-0.050515
-0.0367829
-0.0295192
-0.03943
-0.0469318
-0.0423405
-0.0244182
-0.0338564
-0.0366829
-0.0170558
-0.278691
-0.280416
-0.267626
-0.249753
-0.226017
-0.192529
-0.149799
-0.10284
-0.055574
-0.0129504
0.0233692
0.0548757
0.0891663
0.0901855
0.028172
-0.0574792
-0.124479
-0.124183
-0.096848
-0.0654392
-0.0454658
-0.0319598
-0.0268486
-0.0376764
-0.0452016
-0.040081
-0.0214392
-0.0304866
-0.0374054
-0.0165686
-0.255194
-0.256903
-0.244786
-0.227645
-0.205665
-0.1757
-0.137537
-0.0950624
-0.0515883
-0.011505
0.0234234
0.0544354
0.0899826
0.0931591
0.0359804
-0.04508
-0.105841
-0.106078
-0.0827607
-0.0574865
-0.0401678
-0.0268422
-0.0236872
-0.0354683
-0.0429387
-0.037424
-0.0183406
-0.0267931
-0.0376712
-0.0159834
-0.232809
-0.234532
-0.22337
-0.207253
-0.187006
-0.160182
-0.126153
-0.0878368
-0.0480165
-0.010533
0.0228561
0.0529466
0.0877244
0.0924517
0.0425624
-0.0311863
-0.0853345
-0.0878516
-0.0688807
-0.0493064
-0.0346353
-0.0214482
-0.0199725
-0.0326638
-0.040001
-0.0343001
-0.0151644
-0.0228391
-0.0373897
-0.0152869
-0.211641
-0.21338
-0.20332
-0.188423
-0.169891
-0.145891
-0.115601
-0.0811403
-0.0448288
-0.00999951
0.0216808
0.0505523
0.0829333
0.0891368
0.0477553
-0.0168266
-0.0644766
-0.0702858
-0.0556494
-0.0410525
-0.0288906
-0.0158046
-0.0156425
-0.029098
-0.0362309
-0.0306299
-0.0119592
-0.0187119
-0.0364748
-0.0144659
-0.191757
-0.193498
-0.184592
-0.171026
-0.154189
-0.132744
-0.105833
-0.0749473
-0.0419948
-0.00984902
0.0199413
0.0472287
0.0763733
0.0840006
0.0510345
-0.0036879
-0.045403
-0.054088
-0.0433977
-0.0328692
-0.022969
-0.00995417
-0.0106459
-0.0245862
-0.0314583
-0.0263219
-0.00877574
-0.0145197
-0.0348538
-0.0135078
-0.173189
-0.174912
-0.167149
-0.154958
-0.139779
-0.120664
-0.0968087
-0.0692295
-0.0394807
-0.0100164
0.0177304
0.0431905
0.0687817
0.0774139
0.0519967
0.00693747
-0.0290578
-0.0396842
-0.0323102
-0.0248842
-0.0169237
-0.00395892
-0.00496001
-0.0189352
-0.0255097
-0.021276
-0.00565819
-0.0103791
-0.032478
-0.0124015
-0.155945
-0.157629
-0.150957
-0.140132
-0.126558
-0.109575
-0.0884844
-0.0639571
-0.0372472
-0.010434
0.0151537
0.038567
0.0607585
0.0697574
0.0507777
0.0146128
-0.015852
-0.0272045
-0.0224476
-0.0172096
-0.010831
0.00209888
0.00139191
-0.0119771
-0.0182316
-0.0153984
-0.00263003
-0.00639914
-0.0293384
-0.0111403
-0.140012
-0.141639
-0.13598
-0.126476
-0.114435
-0.0994093
-0.0808193
-0.0590989
-0.0352519
-0.0110331
0.0123309
0.0335958
0.0527607
0.0615914
0.0479714
0.0196509
-0.00554817
-0.0166039
-0.0137918
-0.00994616
-0.00479141
0.00810687
0.00832737
-0.00362233
-0.009537
-0.00863814
0.000319559
-0.00266296
-0.0254815
-0.00972399
-0.125365
-0.126919
-0.122182
-0.113926
-0.103332
-0.0901012
-0.0737733
-0.0546235
-0.0334522
-0.0117402
0.00939315
0.0285248
0.0451059
0.0534733
0.0442228
0.0226181
0.00229115
-0.0077506
-0.00628126
-0.00318932
0.00107829
0.0139124
0.0156666
0.00607153
0.000515001
-0.00105266
0.003244
0.000785517
-0.0210191
-0.00816367
-0.111966
-0.113436
-0.109523
-0.102428
-0.0931817
-0.0815924
-0.0673076
-0.0505003
-0.031808
-0.0124801
0.00647097
0.02357
0.0379959
0.0458065
0.0400396
0.0240605
0.00812101
-0.000476389
0.000168437
0.00296999
0.00666061
0.0193348
0.0230696
0.0167804
0.0116138
0.00711516
0.00623063
0.00393873
-0.0161288
-0.00648663
-0.0997705
-0.101151
-0.0979653
-0.0919304
-0.0839266
-0.0738312
-0.0613866
-0.0467001
-0.0302842
-0.0131863
0.00368237
0.0189047
0.0315507
0.0388252
0.0357823
0.0244287
0.0123456
0.00539846
0.00565249
0.00846012
0.0118525
0.0242051
0.0300277
0.0277501
0.0230543
0.0153839
0.00936105
0.0068183
-0.0110398
-0.00474111
-0.0887304
-0.0900189
-0.0874672
-0.0823894
-0.0755171
-0.0667723
-0.0559776
-0.0431974
-0.0288513
-0.0138067
0.00111998
0.0146453
0.0258262
0.0326361
0.0316875
0.0240731
0.0153147
0.0100578
0.0102673
0.0132424
0.0165714
0.0284174
0.0360092
0.0377456
0.0336313
0.0230544
0.0126878
0.00946328
-0.00600591
-0.00299782
-0.0787966
-0.0799939
-0.0779888
-0.0737639
-0.0679109
-0.0603773
-0.0510528
-0.0399725
-0.0274872
-0.0143036
-0.00115174
0.010861
0.0208334
0.0272644
0.0279001
0.0232615
0.0173173
0.0136812
0.0141034
0.0173081
0.0207425
0.0319187
0.0406659
0.0454743
0.0420421
0.0294657
0.0162212
0.0119046
-0.00127687
-0.00134264
-0.069919
-0.0710294
-0.0694917
-0.0660182
-0.0610725
-0.0546153
-0.0465897
-0.0370107
-0.0261789
-0.014658
-0.00309668
0.00758275
0.0165537
0.0226819
0.0245007
0.0221962
0.0185892
0.0164381
0.017244
0.020677
0.024305
0.0346547
0.0438293
0.050282
0.0475746
0.0343268
0.0198431
0.014127
0.00291573
0.000143375
-0.0620521
-0.063084
-0.0619424
-0.0591221
-0.0549735
-0.0494624
-0.0425725
-0.034305
-0.0249228
-0.0148644
-0.00470504
0.00481074
0.012948
0.0188333
0.0215225
0.0210245
0.0193239
0.0184854
0.0197656
0.0233944
0.0272324
0.0366256
0.0455826
0.0523931
0.0503366
0.0377088
0.0232428
0.0160716
0.00636904
0.00140908
-0.0551896
-0.0561306
-0.0553151
-0.0530518
-0.0495925
-0.0449018
-0.0389922
-0.0318558
-0.0237249
-0.0149333
-0.00598771
0.00252467
0.00996472
0.0156517
0.0189711
0.019851
0.0196755
0.0199623
0.0217423
0.0255221
0.0295401
0.0379044
0.0462059
0.0526776
0.0510676
0.0397996
0.0260889
0.0176835