/*--------------------------------*- C++ -*----------------------------------*\
  =========                 |
  \\      /  F ield         | OpenFOAM: The Open Source CFD Toolbox
   \\    /   O peration     | Website:  https://openfoam.org
    \\  /    A nd           | Version:  7
     \\/     M anipulation  |
\*---------------------------------------------------------------------------*/
FoamFile
{
    version     2.0;
    format      ascii;
    class       surfaceScalarField;
    location    "230";
    object      phi;
}
// * * * * * * * * * * * * * * * * * * * * * * * * * * * * * * * * * * * * * //

dimensions      [0 3 -1 0 0 0 0];

internalField   nonuniform List<scalar> 
16735
(
-3.08686e-05
0.00232905
-0.00229818
-0.000163905
0.00597905
-0.00584602
-0.000422708
0.00891098
-0.00865218
-0.000803101
0.0111237
-0.0107434
-0.00127936
0.0127774
-0.0123011
-0.00181485
0.0141149
-0.0135794
-0.00237191
0.0153504
-0.0147933
-0.00291726
0.0165839
-0.0160385
-0.00342281
0.0177642
-0.0172587
0.0186618
-0.0182179
-0.0038667
1.06434e-06
0.00232798
-5.87459e-05
0.00603886
-0.000217582
0.00906981
-0.000479983
0.0113861
-0.000822871
0.0131203
-0.00120496
0.014497
-0.00157773
0.0157231
-0.00189218
0.0168984
-0.00210316
0.0179752
0.0187249
-0.00216631
3.21357e-05
0.00229585
4.51165e-05
0.00602588
-9.84737e-06
0.00912478
-0.000147238
0.0115235
-0.000345557
0.0133186
-0.000559455
0.0147109
-0.0007297
0.0158934
-0.000791044
0.0169597
-0.000680177
0.0178643
0.0183868
-0.000342089
6.07529e-05
0.0022351
0.000144566
0.00594207
0.000193375
0.00907597
0.00018611
0.0115308
0.000140351
0.0133644
0.000105104
0.0147462
0.000149251
0.0158492
0.000352689
0.0167563
0.000798655
0.0174184
0.0176139
0.00157156
8.62241e-05
0.00214887
0.000236538
0.00579176
0.000387027
0.00892548
0.000510506
0.0114073
0.000621444
0.0132534
0.000770763
0.0145968
0.00103494
0.0155851
0.00150704
0.0162842
0.00228103
0.0166444
0.0164085
0.00348644
0.000107656
0.00204121
0.000317816
0.0055816
0.000564391
0.00867891
0.000815928
0.0111558
0.00108365
0.0129857
0.0014189
0.0142616
0.00190308
0.0151009
0.00263939
0.0155479
0.00373019
0.0155536
0.0147891
0.00534963
0.000124313
0.0019169
0.000385597
0.00532031
0.000719443
0.00834506
0.00109243
0.0107828
0.00151284
0.0125653
0.00203101
0.0137434
0.00273047
0.0144014
0.00372151
0.0145568
0.00510798
0.0141671
0.0127769
0.00712018
0.000135639
0.00178126
0.000437513
0.00501844
0.00084677
0.0079358
0.00133067
0.0102989
0.00189542
0.0120005
0.00258936
0.0130495
0.00349565
0.0134951
0.00472878
0.0133237
0.00638642
0.0125095
0.0103926
0.00877068
0.000141271
0.00163999
0.000471786
0.00468792
0.000941913
0.00746567
0.00152251
0.0097183
0.00221908
0.011304
0.00307774
0.0121908
0.00417962
0.0123932
0.00564121
0.0118621
0.00754711
0.0106036
0.00764828
0.0102914
0.000141059
0.00149893
0.000487353
0.00434163
0.00100174
0.00695129
0.00166164
0.0090584
0.00247377
0.0104918
0.00348263
0.011182
0.00476709
0.0111088
0.0064445
0.0101847
0.0085835
0.00846456
0.0045388
0.011693
0.000135079
0.00136385
0.000484003
0.00399271
0.00102484
0.00641045
0.00174439
0.00833884
0.00265294
0.00958331
0.003795
0.0100399
0.00524888
0.0096549
0.00713292
0.00830064
0.00950635
0.00609114
0.00103467
0.0130105
0.000123664
0.00124019
0.000462531
0.00365384
0.00101197
0.00586102
0.00177072
0.00758009
0.00275532
0.00859871
0.00401312
0.0087821
0.00562609
0.00804193
0.00771519
0.00621153
0.0103526
0.00345371
-0.00292146
0.0143087
0.000107447
0.00113274
0.000424913
0.00333637
0.000966549
0.00531938
0.00174527
0.00680137
0.00278703
0.00755695
0.0041462
0.00742293
0.00591563
0.0062725
0.00822266
0.0039045
0.0111961
0.00048027
-0.0074042
0.0156788
8.74203e-05
0.00104532
0.000374489
0.0030493
0.00089513
0.00479874
0.00167852
0.00601798
0.00276374
0.00647173
0.00421814
0.00596853
0.00615562
0.00433501
0.00871665
0.00134347
0.0121439
-0.00294693
-0.0124808
0.0172205
6.49925e-05
0.000980331
0.000316079
0.00279822
0.000807662
0.00430716
0.00158737
0.00523828
0.0027121
0.00534699
0.00426991
0.00441072
0.00640739
0.00219753
0.00928988
-0.00153902
0.0133151
-0.00697212
-0.0181652
0.0189994
4.19912e-05
0.000938339
0.000255933
0.00258428
0.000717373
0.00384572
0.00149501
0.00446064
0.00266935
0.00417265
0.00435824
0.00272184
0.00675075
-0.00019499
0.0100523
-0.00484058
0.014799
-0.0117188
-0.0243653
0.020999
2.06071e-05
0.000917732
0.000201419
0.00240346
0.000639944
0.00340719
0.00142923
0.00367136
0.00268001
0.00292187
0.00454881
0.000853046
0.00727015
-0.00291634
0.0111017
-0.00867214
0.0166046
-0.0172217
-0.0308752
0.0231145
3.45505e-06
0.000914277
0.000160295
0.00224662
0.000591904
0.00297558
0.00141916
0.0028441
0.00278945
0.00155157
0.00490426
-0.00126176
0.00803488
-0.00604696
0.0124848
-0.013122
0.01864
-0.0233769
-0.0373798
0.0251446
-8.55973e-06
0.000922837
0.000139606
0.00209846
0.000588435
0.00252675
0.00149086
0.00194167
0.00303561
6.82394e-06
0.00546941
-0.00369556
0.00907874
-0.00965629
0.0141651
-0.0182084
0.0207314
-0.0299432
-0.0436165
0.0269681
-1.2611e-05
0.000935448
0.000145012
0.00194083
0.000641109
0.00203066
0.001663
0.000919781
0.00344156
-0.00177174
0.00625961
-0.0065136
0.0103842
-0.0137809
0.0160183
-0.0238425
0.0226806
-0.0366055
-0.0494536
0.0285176
-7.62953e-06
0.000943078
0.0001797
0.00175351
0.000756233
0.00145412
0.00194401
-0.000268001
0.00401159
-0.00383932
0.00725682
-0.00975882
0.0118812
-0.0184052
0.0178653
-0.0298266
0.0243635
-0.0431036
-0.0564656
0.0313754
6.21339e-06
0.000936864
0.000244102
0.00151562
0.000934327
0.000763899
0.00233157
-0.00166525
0.00473151
-0.00623925
0.00841395
-0.0134413
0.0134602
-0.0234515
0.0195604
-0.0359267
0.0258613
-0.0494046
-0.0626538
0.0320495
2.69261e-05
0.000909938
0.000336179
0.00120636
0.00117084
-7.07601e-05
0.00281418
-0.00330859
0.00557202
-0.0089971
0.00966348
-0.0175327
0.0149956
-0.0287836
0.0210108
-0.041942
0.0268922
-0.0552859
-0.0678974
0.0321358
5.47479e-05
0.00085519
0.000452533
0.00080858
0.00145774
-0.00107597
0.00337401
-0.00522486
0.00649342
-0.0121165
0.0109275
-0.0219668
0.0163796
-0.0342357
0.0221314
-0.0476937
0.027436
-0.0605906
-0.0723772
0.0319158
8.80372e-05
0.000767153
0.00058895
0.000307667
0.00178533
-0.00227235
0.00398978
-0.00742931
0.0074502
-0.0155769
0.012128
-0.0266446
0.0175313
-0.039639
0.0228779
-0.0530404
0.0275638
-0.0652764
-0.0761577
0.0313443
0.000125574
0.000641579
0.000741321
-0.00030808
0.00214363
-0.00367466
0.00463859
-0.00992427
0.00839493
-0.0193333
0.0131963
-0.0314459
0.0184002
-0.0448429
0.0232541
-0.0578943
0.0273179
-0.0693402
-0.0793245
0.0304847
0.000166496
0.000475083
0.000906131
-0.00104771
0.00252294
-0.00529147
0.00529674
-0.0126981
0.00928166
-0.0233182
0.01408
-0.0362443
0.0189667
-0.0497296
0.0232856
-0.0622132
0.0267634
-0.0728179
-0.081971
0.0294099
0.000210282
0.000264801
0.00108044
-0.00191787
0.00291376
-0.00712479
0.00593998
-0.0157243
0.0100694
-0.0274476
0.0147461
-0.0409211
0.0192349
-0.0542183
0.0230144
-0.0659928
0.0259605
-0.075764
-0.0841788
0.0281682
0.00025662
8.18008e-06
0.00126155
-0.0029228
0.00330624
-0.00916947
0.00654398
-0.018962
0.010725
-0.0316286
0.0151803
-0.0453764
0.0192259
-0.058264
0.0224876
-0.0692544
0.0249639
-0.0782402
-0.0860232
0.0268083
0.000305208
-0.000297028
0.00144666
-0.00406426
0.00368973
-0.0114125
0.0070855
-0.0223578
0.0112257
-0.0357687
0.0153841
-0.0495348
0.0189706
-0.0618506
0.021752
-0.0720358
0.023821
-0.0803093
-0.0875658
0.0253636
0.000355834
-0.000652863
0.00163247
-0.00534089
0.00405275
-0.0138328
0.00754414
-0.0258492
0.0115595
-0.039784
0.0153708
-0.0533461
0.0185041
-0.0649839
0.020851
-0.0743827
0.0225705
-0.0820288
-0.0888564
0.0238611
0.000407898
-0.00106076
0.00181503
-0.00674802
0.00438346
-0.0164013
0.00790403
-0.0293698
0.0117246
-0.0436046
0.0151611
-0.0567825
0.0178621
-0.067685
0.0198225
-0.076343
0.0212432
-0.0834495
-0.0899334
0.0223203
0.000460616
-0.00152138
0.00198979
-0.00827719
0.00467054
-0.019082
0.00815492
-0.0328541
0.0117274
-0.0471771
0.0147798
-0.0598349
0.0170782
-0.0699834
0.0186983
-0.0779632
0.019863
-0.0846142
-0.0908257
0.0207553
0.000512995
-0.00203437
0.00215185
-0.00991605
0.00490418
-0.0218343
0.00829255
-0.0362425
0.01158
-0.0504646
0.0142527
-0.0625077
0.0161826
-0.0719133
0.0175047
-0.0792853
0.0184479
-0.0855573
-0.0915542
0.0191764
0.000563874
-0.00259825
0.00229629
-0.0116485
0.00507688
-0.0246149
0.00831799
-0.0394836
0.0112981
-0.0534447
0.0136052
-0.0648148
0.0152015
-0.0735095
0.0162626
-0.0803465
0.0170115
-0.0863062
-0.0921335
0.0175908
0.000611994
-0.00321024
0.00241849
-0.013455
0.00518397
-0.0273804
0.00823661
-0.0425363
0.0108992
-0.0561073
0.0128606
-0.0667762
0.014157
-0.0748059
0.0149885
-0.081178
0.0155639
-0.0868817
-0.0925734
0.0160039
0.000656078
-0.00386632
0.00251453
-0.0153134
0.00522369
-0.0300896
0.00805688
-0.0453694
0.0104012
-0.0584516
0.01204
-0.068415
0.0130674
-0.0758333
0.0136949
-0.0818055
0.0141125
-0.0872993
-0.0928805
0.0144196
0.000694901
-0.00456122
0.00258141
-0.0171999
0.00519698
-0.0327051
0.00778917
-0.0479616
0.00982125
-0.0604836
0.0111616
-0.0697554
0.0119476
-0.0766193
0.0123919
-0.0822498
0.0126629
-0.0875703
-0.0930588
0.0128411
0.000727355
-0.00528857
0.00261717
-0.0190897
0.00510696
-0.0351949
0.00744479
-0.0502995
0.00917541
-0.0622143
0.0102411
-0.0708211
0.0108095
-0.0771877
0.0110867
-0.082527
0.0112191
-0.0877027
-0.0931108
0.0112711
0.000752493
-0.00604107
0.00262101
-0.0209583
0.00495839
-0.0375323
0.00703521
-0.0523763
0.00847806
-0.0636571
0.00929157
-0.0716346
0.0096625
-0.0775586
0.00978518
-0.0826497
0.00978439
-0.0877019
-0.0930382
0.00971183
0.000769566
-0.00681063
0.00259313
-0.0227818
0.00475712
-0.0396963
0.00657158
-0.0541908
0.0077419
-0.0648274
0.0083238
-0.0722165
0.00851401
-0.0777488
0.00849161
-0.0826273
0.00836133
-0.0875716
-0.0928418
0.00816493
0.000778041
-0.00758867
0.00253468
-0.0245385
0.00450953
-0.0416711
0.00606434
-0.0557456
0.00697796
-0.065741
0.00734667
-0.0725852
0.00736979
-0.0777719
0.0072093
-0.0824668
0.006952
-0.0873143
-0.0925209
0.00663111
0.000777603
-0.00836628
0.0024475
-0.0262084
0.00422223
-0.0434459
0.00552302
-0.0570464
0.00619563
-0.0664137
0.00636738
-0.0727569
0.00623433
-0.0776389
0.0059406
-0.0821731
0.00555787
-0.0869316
-0.092075
0.00511194
0.000768155
-0.00913443
0.00233401
-0.0277742
0.00390167
-0.0450135
0.00495616
-0.0581008
0.00540286
-0.0668604
0.00539179
-0.0727459
0.00511136
-0.0773585
0.00468755
-0.0817493
0.0041794
-0.0864234
-0.0915035
0.00360791
0.000749803
-0.00988424
0.00219689
-0.0292213
0.00355402
-0.0463707
0.00437126
-0.0589181
0.00460628
-0.0670954
0.00442465
-0.0725642
0.0040042
-0.076938
0.00345312
-0.0811982
0.00281706
-0.0857874
-0.0908003
0.00211383
0.00072287
-0.0106071
0.00203922
-0.0305377
0.00318502
-0.0475165
0.00377484
-0.0595079
0.00381133
-0.0671319
0.00346959
-0.0722225
0.0029153
-0.0763837
0.00224133
-0.0805242
0.00147569
-0.0850217
-0.0899399
0.000615329
0.000687868
-0.011295
0.00186426
-0.031714
0.00279997
-0.0484522
0.00317252
-0.0598804
0.00302254
-0.0669819
0.00252951
-0.0717294
0.00184578
-0.0757
0.00105192
-0.0797303
0.000177999
-0.0841478
-0.0889371
-0.000824785
0.000645445
-0.0119404
0.00167496
-0.0327436
0.0024036
-0.0491808
0.00256912
-0.060046
0.00224362
-0.0666564
0.00160699
-0.0710928
0.000796812
-0.0748898
-0.00012718
-0.0788063
-0.00112995
-0.083145
-0.0878441
-0.00222293
0.000596351
-0.0125368
0.00147419
-0.0336214
0.00200015
-0.0497068
0.00196866
-0.0600145
0.00147751
-0.0661652
0.000703738
-0.0703191
-0.000230385
-0.0739557
-0.0012595
-0.0777772
-0.00239644
-0.0820081
-0.0866331
-0.00360746
0.000541427
-0.0130782
0.00126466
-0.0343446
0.00159346
-0.0500356
0.00137435
-0.0597954
0.000726733
-0.0655176
-0.000179842
-0.0694125
-0.00122571
-0.0729098
-0.00237715
-0.0766258
-0.00363292
-0.0807523
-0.0852968
-0.00496919
0.000481604
-0.0135598
0.00104897
-0.034912
0.00118688
-0.0501735
0.000788949
-0.0593974
-8.89645e-06
-0.0647198
-0.00103601
-0.0683854
-0.00219994
-0.0717459
-0.00346827
-0.0753575
-0.00484177
-0.0793788
-0.0838357
-0.00630294
0.000417868
-0.0139777
0.000829914
-0.035324
0.000782805
-0.0501264
0.00021785
-0.0588325
-0.000720379
-0.0637815
-0.0018713
-0.0672344
-0.00314904
-0.0704682
-0.00453137
-0.0739751
-0.0060222
-0.077888
-0.0822516
-0.00760626
0.000351055
-0.0143287
0.000610389
-0.0355834
0.000384434
-0.0499004
-0.000343322
-0.0581047
-0.00141532
-0.0627095
-0.00268323
-0.0659665
-0.00407186
-0.0690795
-0.00556579
-0.0724812
-0.00717268
-0.0762811
-0.0805471
-0.00887726
0.00028201
-0.0146107
0.000391705
-0.0356931
1.69863e-05
-0.0495257
-0.000885804
-0.0572019
-0.00209038
-0.061505
-0.00347121
-0.0645857
-0.00496779
-0.067583
-0.00657103
-0.070878
-0.00829207
-0.07456
-0.0787259
-0.0101133
0.000212502
-0.0148232
0.00017491
-0.0356555
-0.000396512
-0.0489543
-0.00141906
-0.0561794
-0.00274404
-0.06018
-0.00423435
-0.0630954
-0.00583632
-0.065981
-0.00754665
-0.0691676
-0.00937924
-0.0727275
-0.0767949
-0.0113102
0.000141807
-0.014965
-2.0422e-05
-0.0354933
-0.000771356
-0.0482033
-0.00193629
-0.0550144
-0.00337615
-0.0587401
-0.00497198
-0.0614995
-0.00667688
-0.0642761
-0.00849206
-0.0673524
-0.0104331
-0.0707865
-0.0747595
-0.0124685
6.45588e-05
-0.0150296
-0.000266907
-0.0351618
-0.00113872
-0.0473315
-0.00243491
-0.0537183
-0.00398614
-0.0571889
-0.00568389
-0.0598018
-0.00748922
-0.0624708
-0.00940684
-0.0654348
-0.0114538
-0.0687395
-0.0726153
-0.0135979
-1.56369e-05
-0.015014
-0.000484459
-0.034693
-0.00149516
-0.0463208
-0.00291456
-0.0522989
-0.00457292
-0.0555306
-0.00636975
-0.058005
-0.00827385
-0.0605667
-0.0102925
-0.0634162
-0.0124417
-0.0665903
-0.0703586
-0.0146985
-8.61443e-05
-0.0149278
-0.000692211
-0.0340869
-0.00183872
-0.0451743
-0.00337529
-0.0507623
-0.00513595
-0.0537699
-0.00702905
-0.0561119
-0.00903145
-0.0585643
-0.0111528
-0.0612949
-0.0133931
-0.06435
-0.0680088
-0.0157428
-0.000158871
-0.0147689
-0.000892541
-0.0333532
-0.0021686
-0.0438983
-0.00381647
-0.0491144
-0.00567465
-0.0519117
-0.00766077
-0.0541257
-0.00975969
-0.0564654
-0.0119849
-0.0590697
-0.0143436
-0.0619912
-0.0657267
-0.0166258
-0.000230409
-0.0145385
-0.00108575
-0.0324979
-0.00248432
-0.0424997
-0.00423766
-0.0473611
-0.00618867
-0.0499607
-0.00826398
-0.0520504
-0.0104534
-0.054276
-0.0127564
-0.0567666
-0.0151296
-0.0596181
-0.0628987
-0.0179576
-0.000300021
-0.0142385
-0.0012715
-0.0315264
-0.00278556
-0.0409856
-0.00463855
-0.0455081
-0.00667792
-0.0479214
-0.00883818
-0.0498902
-0.0111094
-0.0520048
-0.0134857
-0.0543903
-0.0159845
-0.0571193
-0.0600913
-0.0187918
-0.000367343
-0.0138712
-0.00144931
-0.0304444
-0.00307204
-0.0393629
-0.00501892
-0.0435612
-0.00714212
-0.0457981
-0.00938323
-0.0476491
-0.0117348
-0.0496532
-0.0142006
-0.0519245
-0.0168168
-0.0545031
-0.0572648
-0.0196433
-0.0004321
-0.0134391
-0.00161874
-0.0292578
-0.00334347
-0.0376382
-0.00537853
-0.0415261
-0.0075809
-0.0435958
-0.00989833
-0.0453316
-0.0123262
-0.0472254
-0.0148742
-0.0493765
-0.0175744
-0.0518029
-0.0543933
-0.0204459
-0.000494054
-0.012945
-0.00177944
-0.0279724
-0.00359961
-0.035818
-0.00571727
-0.0394085
-0.00799419
-0.0413189
-0.0103839
-0.0429419
-0.0128851
-0.0447242
-0.0155107
-0.0467509
-0.0182857
-0.0490279
-0.0514645
-0.0212145
-0.000552989
-0.012392
-0.00193108
-0.0265943
-0.00384026
-0.0339088
-0.006035
-0.0372137
-0.00838185
-0.038972
-0.0108398
-0.0404839
-0.0134102
-0.0421538
-0.0161073
-0.0440538
-0.0189512
-0.046184
-0.0484721
-0.0219436
-0.000608708
-0.0117833
-0.00207339
-0.0251296
-0.00406524
-0.031917
-0.00633163
-0.0349473
-0.00874383
-0.0365598
-0.0112658
-0.037962
-0.0139012
-0.0395183
-0.0166648
-0.0412902
-0.019574
-0.0432749
-0.0454148
-0.0226312
-0.000661038
-0.0111223
-0.00220616
-0.0235845
-0.00427442
-0.0298487
-0.00660711
-0.0326147
-0.00908005
-0.0340869
-0.0116617
-0.0353804
-0.0143579
-0.0368221
-0.0171833
-0.0384648
-0.0201542
-0.040304
-0.0422941
-0.023275
-0.000709827
-0.0104125
-0.0023292
-0.0219652
-0.00446768
-0.0277102
-0.00686137
-0.030221
-0.00939047
-0.0315578
-0.0120275
-0.0327433
-0.0147799
-0.0340697
-0.0176627
-0.035582
-0.0206918
-0.0372749
-0.0391127
-0.0238732
-0.00075494
-0.00965752
-0.00244236
-0.0202777
-0.00464494
-0.0255076
-0.00709439
-0.0277715
-0.00967501
-0.0289771
-0.012363
-0.0300553
-0.0151672
-0.0312655
-0.018103
-0.0326462
-0.0211861
-0.0341918
-0.0358744
-0.0244244
-0.000796261
-0.00886126
-0.0025455
-0.0185285
-0.00480613
-0.023247
-0.00730612
-0.0252715
-0.00993362
-0.0263496
-0.0126681
-0.0273208
-0.0155196
-0.0284141
-0.0185038
-0.029662
-0.0216366
-0.0310589
-0.0325836
-0.0249274
-0.00083369
-0.00802757
-0.00263852
-0.0167237
-0.00495119
-0.0209344
-0.00749653
-0.0227262
-0.0101663
-0.0236799
-0.0129427
-0.0245444
-0.0158368
-0.0255199
-0.0188649
-0.026634
-0.0220428
-0.0278809
-0.0292451
-0.0253813
-0.00086714
-0.00716043
-0.00272133
-0.0148695
-0.00508006
-0.0185756
-0.00766561
-0.0201406
-0.0103728
-0.0209727
-0.0131866
-0.0217307
-0.0161188
-0.0225877
-0.019186
-0.0235669
-0.0224042
-0.0246627
-0.0258639
-0.0257854
-0.000896538
-0.00626389
-0.00279384
-0.0129722
-0.00519273
-0.0161767
-0.00781333
-0.01752
-0.0105534
-0.0182326
-0.0133998
-0.0188842
-0.0163654
-0.0196221
-0.0194668
-0.0204655
-0.0227204
-0.021409
-0.0224452
-0.0261391
-0.000921821
-0.00534207
-0.00285601
-0.011038
-0.00528915
-0.0137436
-0.00793967
-0.0148695
-0.0107078
-0.0154645
-0.0135822
-0.0160098
-0.0165764
-0.0166279
-0.0197072
-0.0173346
-0.0229911
-0.0181251
-0.0189944
-0.026442
-0.000942938
-0.00439913
-0.00290776
-0.00907315
-0.0053693
-0.0112821
-0.00804461
-0.0121942
-0.010836
-0.0126732
-0.0137337
-0.013112
-0.0167517
-0.01361
-0.019907
-0.0141793
-0.0232161
-0.014816
-0.0155169
-0.0266936
-0.000959846
-0.00343928
-0.00294907
-0.00708392
-0.00543315
-0.00879798
-0.00812815
-0.00949922
-0.0109381
-0.00986325
-0.0138543
-0.0101958
-0.0168912
-0.0105731
-0.020066
-0.0110045
-0.0233951
-0.0114869
-0.0120181
-0.0268939
-0.000972514
-0.00246677
-0.0029799
-0.00507653
-0.0054807
-0.00629718
-0.00819026
-0.00678965
-0.0110139
-0.00703963
-0.0139439
-0.00726576
-0.0169949
-0.0075221
-0.0201841
-0.00781523
-0.0235282
-0.00814284
-0.0085035
-0.0270428
-0.000980916
-0.00148585
-0.00300023
-0.00305721
-0.00551192
-0.0037855
-0.00823095
-0.00407062
-0.0110635
-0.00420709
-0.0140024
-0.00432681
-0.0170626
-0.00446196
-0.0202614
-0.00461646
-0.0236151
-0.00478908
-0.00497856
-0.0271401
-0.000985037
-0.000500816
-0.00301003
-0.00103222
-0.0055268
-0.00126873
-0.00825019
-0.00134723
-0.0110868
-0.00137046
-0.0140299
-0.00138371
-0.0170943
-0.00139757
-0.0202975
-0.00141329
-0.0236557
-0.00143088
-0.00144959
-0.0271846
-0.000984869
0.000484052
-0.0030093
0.000992215
-0.00552534
0.00124731
-0.00824798
0.00137541
-0.0110839
0.00146547
-0.0140263
0.0015587
-0.0170901
0.00166619
-0.0202926
0.00178924
-0.0236504
0.0019269
0.00207544
-0.0271754
-0.000980412
0.00146446
-0.00299804
0.00300985
-0.00550753
0.0037568
-0.00822431
0.00409218
-0.0110547
0.00429586
-0.0139917
0.00449567
-0.01705
0.00472454
-0.0202473
0.00498651
-0.0235998
0.00527937
0.00560201
-0.0271263
-0.000971674
0.00243614
-0.00297626
0.00501443
-0.00547338
0.00625392
-0.00817918
0.00679799
-0.0109992
0.0071159
-0.0139259
0.00742234
-0.0169739
0.00777251
-0.0201606
0.00817326
-0.0235027
0.00862148
0.00911585
-0.0270166
-0.000958672
0.00339481
-0.00294396
0.00699972
-0.00542287
0.00873284
-0.00811257
0.00948769
-0.0109174
0.00992077
-0.013829
0.0103339
-0.0168616
0.0108051
-0.0200328
0.0113444
-0.023359
0.0119477
0.0126129
-0.026856
-0.000941431
0.00433624
-0.00290117
0.00895945
-0.00535603
0.0111877
-0.00802449
0.0121562
-0.0108094
0.0127057
-0.013701
0.0132256
-0.0167135
0.0138176
-0.019864
0.0144949
-0.0231693
0.015253
0.016088
-0.0266444
-0.000919986
0.00525623
-0.00284792
0.0108874
-0.00527284
0.0136126
-0.00791494
0.0147982
-0.010675
0.0154657
-0.013542
0.0160925
-0.0165294
0.0168049
-0.0196543
0.0176198
-0.0229334
0.0185321
0.0195357
-0.0263812
-0.000894381
0.00615061
-0.00278426
0.0127773
-0.00517334
0.0160017
-0.0077839
0.0174088
-0.0105144
0.0181962
-0.0133519
0.0189301
-0.0163094
0.0197624
-0.0194037
0.0207142
-0.0226516
0.02178
0.0229507
-0.0260666
-0.00086467
0.00701528
-0.00271023
0.0146228
-0.00505755
0.018349
-0.0076314
0.0199827
-0.0103275
0.0208924
-0.0131309
0.0217334
-0.0160536
0.0226851
-0.0191124
0.023773
-0.0223239
0.0249915
0.0263276
-0.0257008
-0.000830919
0.0078462
-0.0026259
0.0164178
-0.00492548
0.0206486
-0.00745744
0.0225146
-0.0101144
0.0235494
-0.0128789
0.0244979
-0.0157622
0.0255683
-0.0187806
0.0267914
-0.0219506
0.0281615
0.0296611
-0.0252841
-0.000793208
0.00863941
-0.00253137
0.018156
-0.0047772
0.0228944
-0.00726203
0.0249994
-0.00987516
0.0261625
-0.0125962
0.0272189
-0.0154352
0.0284074
-0.0184084
0.0297645
-0.0215321
0.0312853
0.0329459
-0.024817
-0.000751627
0.00939103
-0.00242671
0.0198311
-0.00461273
0.0250805
-0.0070452
0.0274319
-0.00960973
0.0287271
-0.0122826
0.0298918
-0.0150728
0.0311976
-0.0179961
0.0326878
-0.0210688
0.034358
0.0361772
-0.0243001
-0.000706287
0.0100973
-0.00231206
0.0214368
-0.00443215
0.0272005
-0.00680698
0.0298067
-0.0093182
0.0312383
-0.0119384
0.032512
-0.0146752
0.0339343
-0.0175439
0.0355565
-0.020561
0.0373751
0.0393504
-0.0237343
-0.000657312
0.0107546
-0.00218755
0.0229671
-0.00423553
0.0292485
-0.00654739
0.0321186
-0.00900063
0.0336915
-0.0115637
0.0350752
-0.0142426
0.0366132
-0.0170522
0.0383661
-0.0200094
0.0403324
0.0424615
-0.0231205
-0.000604847
0.0113595
-0.00205337
0.0244156
-0.00402299
0.0312182
-0.00626651
0.0343621
-0.00865707
0.0360821
-0.0111586
0.0375767
-0.013775
0.0392295
-0.016521
0.0411121
-0.0194144
0.0432258
0.0455072
-0.0224601
-0.000549061
0.0119085
-0.00190972
0.0257762
-0.00379465
0.0331031
-0.00596438
0.0365318
-0.00828761
0.0384053
-0.0107233
0.0400124
-0.0132727
0.041779
-0.0159503
0.0437897
-0.0187762
0.0460516
0.0484856
-0.0217546
-0.000490142
0.0123987
-0.00175684
0.0270429
-0.00355069
0.0348969
-0.00564111
0.0386223
-0.00789233
0.0406565
-0.0102578
0.0423779
-0.0127361
0.0442573
-0.0153403
0.0463938
-0.0180947
0.048806
0.0513969
-0.0210059
-0.000428306
0.012827
-0.00159504
0.0282097
-0.0032913
0.0365932
-0.0052968
0.0406278
-0.00747131
0.042831
-0.00976243
0.044669
-0.0121654
0.0466602
-0.0146903
0.0489188
-0.0173676
0.0514834
0.0542453
-0.0202161
-0.000363795
0.0131908
-0.00142468
0.0292706
-0.00301675
0.0381853
-0.00493162
0.0425426
-0.00702473
0.0449241
-0.00923736
0.0468816
-0.0115617
0.0489845
-0.0140025
0.0513596
-0.016594
0.0540749
0.0570425
-0.0193912
-0.000296876
0.0134877
-0.00124616
0.0302199
-0.00272732
0.0396664
-0.00454577
0.0443611
-0.0065527
0.0469311
-0.00868233
0.0490112
-0.010924
0.0512262
-0.0132741
0.0537097
-0.0157511
0.0565519
0.0598162
-0.0185248
-0.000227856
0.0137155
-0.00105999
0.031052
-0.00242337
0.0410298
-0.00413949
0.0460772
-0.00605563
0.0488472
-0.00809815
0.0510538
-0.0102555
0.0533836
-0.0125287
0.0559829
-0.0148819
0.0589051
0.0626094
-0.0176751
-0.000157124
0.0138726
-0.000866699
0.0317616
-0.00210529
0.0422684
-0.00371312
0.047685
-0.00553382
0.0506679
-0.00748488
0.0530048
-0.00954946
0.0554482
-0.0117403
0.0581737
-0.0140675
0.0612323
0.0648901
-0.0163482
-8.53833e-05
0.013958
-0.000666739
0.0323429
-0.0017735
0.0433751
-0.00326701
0.0491785
-0.00498745
0.0523884
-0.00684315
0.0548605
-0.00880932
0.0574143
-0.0108951
0.0602595
-0.0131033
0.0634405
0.0672153
-0.0154285
-1.5699e-05
0.0139737
-0.000460006
0.0327872
-0.00142855
0.0443437
-0.00280174
0.0505517
-0.00441701
0.0540036
-0.00617397
0.0566175
-0.00803994
0.0592803
-0.0100219
0.0622415
-0.0121379
0.0655565
0.0694414
-0.014364
6.24273e-05
0.0139113
-0.00024448
0.0330941
-0.00107128
0.0451705
-0.00231806
0.0517985
-0.00382316
0.0555087
-0.00547835
0.0582727
-0.0072433
0.0610452
-0.0091221
0.0641203
-0.0111329
0.0675673
0.0715529
-0.0132444
0.000137326
0.013774
-3.8762e-06
0.0332353
-0.000703482
0.0458701
-0.00181629
0.0529113
-0.00320654
0.056899
-0.00475682
0.059823
-0.00641874
0.0627072
-0.00819231
0.0658938
-0.0100931
0.0694681
0.0735507
-0.012091
0.000205812
0.0135682
0.00018871
0.0332524
-0.000327787
0.0463866
-0.00129726
0.0538808
-0.00256815
0.0581699
-0.00400978
0.0612646
-0.00556594
0.0642633
-0.00723153
0.0675594
-0.00901973
0.0712563
0.0754376
-0.0109066
0.000272988
0.0132952
0.000402656
0.0331228
6.88856e-05
0.0467204
-0.000763799
0.0547135
-0.00190885
0.0593149
-0.00323769
0.0625934
-0.00468531
0.0657109
-0.00624034
0.0691145
-0.00791261
0.0729286
0.0772088
-0.00968379
0.000339477
0.0129557
0.000617662
0.0328446
0.000444819
0.0468932
-0.000217653
0.055376
-0.00122919
0.0603265
-0.0024413
0.0638055
-0.00377753
0.0670472
-0.00521954
0.0705565
-0.00677309
0.0744822
0.0788581
-0.00842241
0.000403265
0.0125524
0.000831857
0.032416
0.000838285
0.0468868
0.000340861
0.0558734
-0.00053092
0.0611982
-0.00162146
0.0648961
-0.00284335
0.0682691
-0.00416987
0.071883
-0.00560264
0.0759149
0.0803818
-0.00712635
0.000463399
0.012089
0.00104352
0.0318359
0.00123528
0.046695
0.000910547
0.0561981
0.000185508
0.0619233
-0.000779262
0.0658609
-0.00188367
0.0693735
-0.00309218
0.0730915
-0.0044027
0.0772254
0.0817775
-0.00579839
0.000519052
0.01157
0.00124992
0.031105
0.00163247
0.0463125
0.00149032
0.0563403
0.000919208
0.0624944
8.14449e-05
0.0666986
-0.000900029
0.0703549
-0.00198767
0.0741792
-0.00317484
0.0784126
0.0830435
-0.00444078
0.000569326
0.0110006
0.0014483
0.030226
0.00202684
0.0457339
0.00207625
0.0562908
0.00166823
0.0629024
0.000969533
0.0673973
0.000102613
0.0712219
-0.000859048
0.0751408
-0.00191959
0.0794731
0.0841799
-0.00305605
0.00061337
0.0103873
0.00163596
0.0292034
0.00241469
0.0449552
0.00266503
0.0560405
0.0024293
0.0631381
0.00187384
0.0679528
0.00113893
0.0719568
0.000291533
0.0759882
-0.000631574
0.0803963
0.0851994
-0.00165108
0.000650425
0.00973685
0.00181014
0.0280437
0.00279183
0.0439735
0.00325263
0.0555797
0.00319952
0.0631913
0.00279464
0.0683576
0.00219063
0.0725608
0.00147373
0.0767051
0.000670413
0.0811996
0.0861188
-0.000248928
0.000679842
0.00905701
0.00196795
0.0267556
0.00315362
0.0427878
0.00383428
0.054899
0.00397513
0.0630504
0.00372935
0.0686034
0.00326096
0.0730292
0.00267048
0.0772956
0.00199714
0.0818729
0.0868634
0.00125253
0.000701094
0.00835592
0.00210638
0.0253503
0.00349492
0.0413993
0.00440443
0.0539895
0.00475157
0.0627033
0.00467482
0.0686802
0.00434796
0.073356
0.00388782
0.0777557
0.00334895
0.0824118
0.0874649
0.00274739
0.000713823
0.0076421
0.00222241
0.0238417
0.00381019
0.0398115
0.00495666
0.0528431
0.00552329
0.0621366
0.00562713
0.0685763
0.00544893
0.0735342
0.00512261
0.078082
0.00471578
0.0828186
0.0879303
0.00425038
0.000717879
0.00692422
0.00231345
0.0222462
0.00409349
0.0380315
0.00548361
0.0514529
0.00628363
0.0613366
0.00658135
0.0682786
0.00656024
0.0735553
0.0063711
0.0782712
0.00609607
0.0830936
0.0882613
0.00576514
0.000713314
0.0062109
0.00237719
0.0205823
0.00433865
0.03607
0.00597698
0.0498146
0.00702464
0.060289
0.00753134
0.0677719
0.00767766
0.073409
0.0076303
0.0783186
0.00748837
0.0832356
0.0884586
0.00729102
0.000700387
0.00551052
0.00241187
0.0188708
0.00453941
0.0339425
0.00642752
0.0479265
0.00773697
0.0589795
0.00846964
0.0670393
0.00879614
0.0730825
0.00889713
0.0782176
0.00889061
0.0832421
0.0885227
0.00882657
0.000679578
0.00483094
0.00241639
0.017134
0.00468978
0.0316691
0.00682521
0.0457911
0.00840973
0.057395
0.00938718
0.0660618
0.00990941
0.0725603
0.0101676
0.0779593
0.0103001
0.0831096
0.088453
0.0103698
0.000651573
0.00417937
0.0023905
0.0153951
0.00478433
0.0292753
0.00715944
0.0434159
0.00903046
0.055524
0.0102729
0.0648193
0.0110095
0.0718237
0.0114367
0.0775322
0.0117134
0.082833
0.0882478
0.0119186
0.000617257
0.00356211
0.00233496
0.0136774
0.00481874
0.0267915
0.0074194
0.0408153
0.00958514
0.0533582
0.0111137
0.0632907
0.0120865
0.070851
0.0126977
0.0769209
0.0131261
0.0824046
0.0879042
0.0134697
0.000577677
0.00298443
0.00225157
0.0120035
0.00479032
0.0242527
0.00759463
0.038011
0.0100584
0.0508945
0.0118939
0.0614552
0.0131277
0.0696171
0.0139422
0.0761064
0.014533
0.0818137
0.0874179
0.0150193
0.000534005
0.00245043
0.00214314
0.0103943
0.00469845
0.0216974
0.00767578
0.0350336
0.0104338
0.0481365
0.0125953
0.0592937
0.0141177
0.0680947
0.0151591
0.075065
0.0159269
0.0810459
0.0867825
0.0165623
0.000487488
0.00196294
0.00201342
0.0088684
0.00454512
0.0191657
0.00765557
0.0319232
0.0106948
0.0450972
0.0131974
0.0567912
0.0150376
0.0662545
0.0163343
0.0737684
0.0172985
0.0800817
0.0859882
0.0180928
0.000439404
0.00152353
0.00186687
0.00744094
0.00433508
0.0166975
0.00752992
0.0287284
0.0108256
0.0418015
0.0136775
0.0539394
0.0158648
0.0640671
0.0174498
0.0721834
0.0186356
0.0788959
0.0850206
0.0196032
0.000391012
0.00113252
0.00170843
0.00612352
0.00407582
0.0143301
0.00729905
0.0255051
0.0108124
0.0382881
0.0140117
0.0507401
0.0165729
0.0615059
0.0184829
0.0702734
0.019922
0.0774567
0.0838596
0.0210831
0.000343507
0.000789016
0.00154325
0.00492378
0.00377715
0.0120962
0.00696846
0.0223138
0.0106458
0.0346108
0.0141762
0.0472097
0.0171318
0.0585504
0.0194058
0.0679994
0.0211365
0.075726
0.0824773
0.0225188
0.000297985
0.000491031
0.00137634
0.00384542
0.00345051
0.0100221
0.00654927
0.0192151
0.0103224
0.0308377
0.0141494
0.0433826
0.0175089
0.0551908
0.0201847
0.0653236
0.0222516
0.0736592
0.0808373
0.0238915
0.000255383
0.000235648
0.00121232
0.00288848
0.00310797
0.00812641
0.00605784
0.0162652
0.00984696
0.0270486
0.0139146
0.039315
0.0176708
0.0514346
0.0207807
0.0622137
0.0232323
0.0712076
0.0788931
0.0251765
0.000216427
1.9221e-05
0.00105511
0.0020498
0.00276116
0.00642036
0.00551431
0.013512
0.0092338
0.0233291
0.0134634
0.0350854
0.0175859
0.047312
0.0211501
0.0586496
0.0240356
0.0683221
0.0765882
0.0263405
0.000181557
-0.000162336
0.000907612
0.00132374
0.00242017
0.0049078
0.00494035
0.0109919
0.00850633
0.0197631
0.0127991
0.0307926
0.0172288
0.0428824
0.0212471
0.0546313
0.0246103
0.0649589
0.0738577
0.0273409
0.000150852
-0.000313188
0.000771474
0.000703117
0.00209262
0.00358665
0.00435644
0.00872806
0.00769483
0.0164247
0.0119395
0.026548
0.0165854
0.0382364
0.0210282