/*--------------------------------*- C++ -*----------------------------------*\
  =========                 |
  \\      /  F ield         | OpenFOAM: The Open Source CFD Toolbox
   \\    /   O peration     | Website:  https://openfoam.org
    \\  /    A nd           | Version:  7
     \\/     M anipulation  |
\*---------------------------------------------------------------------------*/
FoamFile
{
    version     2.0;
    format      ascii;
    class       surfaceScalarField;
    location    "10";
    object      phi;
}
// * * * * * * * * * * * * * * * * * * * * * * * * * * * * * * * * * * * * * //

dimensions      [0 3 -1 0 0 0 0];

internalField   nonuniform List<scalar> 
4148
(
0.0678463
0.0184278
0.0156501
0.0543264
0.0647127
0.0187837
0.0125341
0.0415906
0.0157277
0.0511327
0.0614137
0.0190268
0.00681435
0.0230049
0.00942601
0.0302981
0.0124212
0.0385954
0.0157121
0.0478418
0.0579652
0.0191606
0.00446718
0.0150364
0.00661409
0.020858
0.00921454
0.0276977
0.0122376
0.0355723
0.015608
0.0444715
0.0543818
0.0191914
0.00264361
0.00898202
0.00428229
0.0133977
0.00638096
0.0187594
0.00895388
0.0251248
0.011987
0.0325391
0.0154208
0.0410377
0.0506742
0.0191284
0.00135184
0.00467257
0.00250389
0.00782996
0.00407893
0.0118226
0.00611678
0.0167215
0.00864609
0.0225955
0.011672
0.0295132
0.0151557
0.037554
0.0468474
0.0189825
0.00126508
0.00394651
0.00235526
0.00673979
0.0038583
0.0103196
0.00582276
0.014757
0.00829182
0.0201264
0.0112926
0.0265124
0.014815
0.0340316
0.0428966
0.0187658
0.000498014
0.00149222
0.00117486
0.00326966
0.0021985
0.00571615
0.00362136
0.00889675
0.00549943
0.012879
0.00788998
0.0177358
0.010845
0.0235575
0.014395
0.0304815
0.0388035
0.0184882
0.000109494
0.000213758
0.000456084
0.00114563
0.00108169
0.00264406
0.00203451
0.00476333
0.00336916
0.0075621
0.00514707
0.0111011
0.00743761
0.0154453
0.0103192
0.0206758
0.0138808
0.02692
0.0345366
0.0181476
9.85092e-05
0.000115249
0.000413493
0.000830648
0.000986217
0.00207133
0.00186448
0.00388507
0.00310331
0.00632326
0.00476653
0.00943785
0.00693075
0.0132811
0.00969616
0.0179104
0.0132267
0.0233894
0.0300475
0.0177159
8.75065e-05
2.77424e-05
0.000370581
0.000547573
0.00088931
0.0015526
0.00169012
0.00308427
0.00282663
0.00518675
0.00436121
0.00790327
0.006369
0.0112733
0.00895056
0.0153289
0.0123082
0.0200317
0.0251641
0.0171916
7.65851e-05
-4.88428e-05
0.000327775
0.000296383
0.00079207
0.00108831
0.00151379
0.00236255
0.0025437
0.00415683
0.00393962
0.00650736
0.00576727
0.00944563
0.00810169
0.0129945
0.0109902
0.0171432
0.0218507
0.0143036
6.58583e-05
-0.000114701
0.000285548
7.66936e-05
0.000695733
0.000678124
0.00133824
0.00172005
0.00226043
0.00323463
0.00351502
0.00525277
0.0051587
0.00780194
0.00724971
0.0109035
0.00982968
0.0145632
0.0187005
0.0129799
5.54371e-05
-0.000170138
0.000244357
-0.000112226
0.000601492
0.000320989
0.00116609
0.00115545
0.00198224
0.00241849
0.00309848
0.00413653
0.00456679
0.00633364
0.00644302
0.00902723
0.00879022
0.012216
0.0157834
0.0117073
4.54151e-05
-0.000215553
0.000204592
-0.000271403
0.000510336
1.52456e-05
0.000999436
0.000666345
0.00171302
0.0017049
0.00269654
0.00315301
0.00399969
0.00503049
0.00567924
0.00734768
0.00780696
0.0100883
0.0131107
0.0104796
3.58594e-05
-0.000251413
0.000166542
-0.000402086
0.000422991
-0.000241203
0.00083971
0.000249626
0.00145523
0.00108938
0.00231247
0.00229578
0.00345955
0.00388341
0.00495322
0.00585401
0.00686553
0.00817598
0.0106943
0.00928199
2.68094e-05
-0.000278222
0.000130394
-0.000505671
0.000339926
-0.000450734
0.000687804
-9.82532e-05
0.00121022
0.000566964
0.00194779
0.00155821
0.00294685
0.00288434
0.00426247
0.0045384
0.00596184
0.00647661
0.00854252
0.00811362
1.8281e-05
-0.000296503
9.62477e-05
-0.000583637
0.000261402
-0.000615889
0.000544193
-0.000381044
0.00097862
0.000132537
0.00160301
0.000933818
0.00246139
0.00202597
0.00360542
0.00339437
0.00509454
0.00498748
0.00665667
0.00698038
1.02744e-05
-0.000306778
6.41433e-05
-0.000637506
0.000187541
-0.000739287
0.000409085
-0.000602587
0.000760663
-0.000219042
0.0012782
0.000416278
0.00200278
0.00130139
0.00298146
0.00241569
0.00426477
0.00370417
0.0050316
0.00588985
2.78571e-06
-0.000309563
3.4088e-05
-0.000668808
0.000118388
-0.000823587
0.000282561
-0.00076676
0.000556418
-0.000492898
0.000973332
-6.36007e-07
0.00157098
0.000703743
0.00239109
0.00159557
0.00347539
0.00261987
0.0036573
0.00484969
-4.2102e-06
-0.000305353
6.08797e-06
-0.000679107
5.39743e-05
-0.000871474
0.000164686
-0.000877472
0.000365976
-0.000694188
0.00068856
-0.00032322
0.00116642
0.000225881
0.00183577
0.000926221
0.00273026
0.00172538
0.0025203
0.00386726
-1.06914e-05
-0.000294662
-1.98491e-05
-0.000669949
-5.64188e-06
-0.000885681
5.55818e-05
-0.000938695
0.000189563
-0.000828169
0.000424321
-0.000557977
0.000790076
-0.000139874
0.00131766
0.00039864
0.00203368
0.00100936
0.00160454
0.00294944
-1.66654e-05
-0.000277996
-4.36792e-05
-0.000642935
-6.03623e-05
-0.000868998
-4.45358e-05
-0.000954522
2.75812e-05
-0.000900286
0.000181358
-0.000711754
0.000443354
-0.00040187
0.000839406
2.58798e-06
0.00139016
0.000458611
0.000892286
0.00210241
-2.2112e-05
-0.000255884
-6.53286e-05
-0.000599719
-0.000110006
-0.000824321
-0.000135339
-0.000929188
-0.000119393
-0.000916232
-3.93153e-05
-0.000791832
0.000128002
-0.000569187
0.000403986
-0.000273397
0.000804292
5.83054e-05
0.000364191
0.00133239
-2.70033e-05
-0.000228881
-8.46968e-05
-0.000542025
-0.00015435
-0.000754668
-0.000216405
-0.000867133
-0.000250628
-0.000882009
-0.000236495
-0.000805965
-0.000154031
-0.000651651
1.41096e-05
-0.000441537
0.000280835
-0.000208421
-5.72314e-08
0.000645083
-3.13036e-05
-0.000197577
-0.00010166
-0.000471669
-0.000193123
-0.000663205
-0.00028724
-0.000773017
-0.000365297
-0.000803952
-0.000408842
-0.00076242
-0.000400609
-0.000659884
-0.000326309
-0.000515837
-0.000177958
-0.000356772
-0.000214167
3.6152e-05
-3.49728e-05
-0.000162605
-0.000116081
-0.00039056
-0.000226034
-0.000553252
-0.00034732
-0.000651731
-0.000462536
-0.000688735
-0.000555002
-0.000669954
-0.000609745
-0.000605141
-0.000615312
-0.00051027
-0.000566018
-0.000406065
-0.00031863
-0.000461555
-3.79699e-05
-0.000124635
-0.000127823
-0.000300707
-0.000252789
-0.000428286
-0.000396129
-0.000508391
-0.000541511
-0.000543353
-0.000673703
-0.000537763
-0.000779572
-0.000499272
-0.00084978
-0.000440062
-0.000880332
-0.000375513
-0.000325229
-0.000873732
-4.02564e-05
-8.43782e-05
-0.000136757
-0.000204206
-0.000273122
-0.000291921
-0.000433197
-0.000348316
-0.000601473
-0.000375077
-0.000763814
-0.000375422
-0.000908479
-0.000354607
-0.0010277
-0.000320846
-0.0011189
-0.000284305
-0.000258041
-0.00118609
-4.18002e-05
-0.000142777
-0.00028681
-0.00045814
-0.000176986
-0.00064181
-0.000191407
-0.000824426
-0.000192806
-0.000995176
-0.000183857
-0.00114733
-0.000168694
-0.00127926
-0.000152371
-0.000141421
-0.00139588
-0.000470682
-0.00066209
-0.000854897
-0.00103876
-0.00120745
-0.00135983
-0.00150125
0.217577
-0.00132096
0.218997
-0.00142005
0.220515
-0.00151762
0.222128
-0.0016135
0.223836
-0.00170752
0.225635
-0.00179951
0.227524
-0.00188929
0.229501
-0.00197667
0.231563
-0.00206143
0.233706
-0.00214328
-0.00222159
0.235927
0.207691
-0.00258757
0.209052
-0.00278081
0.210505
-0.00297107
0.21205
-0.00315801
0.213684
-0.00334131
0.215405
-0.00352063
0.217211
-0.00369564
0.2191
-0.00386597
0.22107
-0.00403117
0.223118
-0.00419066
-0.0043432
0.225239
0.19845
-0.00380842
0.19976
-0.00409144
0.201159
-0.00437006
0.202645
-0.00464382
0.204216
-0.00491221
0.20587
-0.00517477
0.207605
-0.00543099
0.20942
-0.00568034
0.211311
-0.00592218
0.213276
-0.0061556
-0.00637874
0.215311
0.189784
-0.00498997
0.191051
-0.0053588
0.192403
-0.0057219
0.193838
-0.00607862
0.195354
-0.00642836
0.19695
-0.00677047
0.198623
-0.00710433
0.200372
-0.00742923
0.202194
-0.00774432
0.204087
-0.00804841
-0.00833896
0.206047
0.181633
-0.0061376
0.182863
-0.00658863
0.184174
-0.00703263
0.185564
-0.00746885
0.187032
-0.00789653
0.188577
-0.0083149
0.190195
-0.00872319
0.191887
-0.00912051
0.193648
-0.00950585
0.195478
-0.00987771
-0.0102328
0.197371
0.173947
-0.00725569
0.175144
-0.00778558
0.176419
-0.00830722
0.17777
-0.00881974
0.179196
-0.00932225
0.180694
-0.00981385
0.182265
-0.0102936
0.183905
-0.0107606
0.185613
-0.0112134
0.187385
-0.0116504
-0.0120674
0.18922
0.166683
-0.0083479
0.167851
-0.00895354
0.169093
-0.00954978
0.170409
-0.0101356
0.171797
-0.0107101
0.173255
-0.0112721
0.174782
-0.0118207
0.176376
-0.0123546
0.178035
-0.0128724
0.179757
-0.0133721
-0.0138487
0.181538
0.159802
-0.0094173
0.160945
-0.0100957
0.162159
-0.0107637
0.163443
-0.0114201
0.164797
-0.0120638
0.166218
-0.0126936
0.167706
-0.0133084
0.169258
-0.0139068
0.170873
-0.0144873
0.172548
-0.0150474
-0.0155812
0.174281
0.153274
-0.0104664
0.154394
-0.0112149
0.155582
-0.0119519
0.156838
-0.0126761
0.15816
-0.0133864
0.159548
-0.0140816
0.161
-0.0147601
0.162514
-0.0154208
0.164088
-0.0160616
0.165721
-0.0166798
-0.0172687
0.167408
0.147071
-0.0114975
0.14817
-0.0123133
0.149334
-0.0131166
0.150565
-0.0139062
0.151859
-0.0146806
0.153216
-0.0154386
0.154634
-0.0161785
0.156112
-0.016899
0.157649
-0.0175978
0.159241
-0.0182719
-0.0189136
0.160886
0.141169
-0.0125122
0.142249
-0.0133927
0.143392
-0.0142598
0.144598
-0.0151122
0.145866
-0.0159482
0.147194
-0.0167665
0.148581
-0.0175654
0.150025
-0.0183432
0.151524
-0.0190975
0.153077
-0.0198249
-0.0205168
0.154681
0.134548
-0.0125568
0.135548
-0.013512
0.13661
-0.0144547
0.137733
-0.015383
0.138916
-0.0162955
0.140158
-0.0171906
0.141458
-0.0180665
0.142815
-0.0189216
0.144225
-0.0197538
0.145688
-0.0205606
0.147202
-0.0213381
-0.0220772
0.148762
0.129201
-0.0134825
0.130187
-0.014498
0.131233
-0.0155
0.132337
-0.0164868
0.133498
-0.0174567
0.134715
-0.0184078
0.135987
-0.0193383
0.137311
-0.0202462
0.138687
-0.0211292
0.140111
-0.0219845
0.14158
-0.0228078
-0.0235896
0.143093
0.124099
-0.0143975
0.125071
-0.0154703
0.1261
-0.0165288
0.127184
-0.017571
0.128322
-0.0185949
0.129513
-0.0195984
0.130754
-0.0205795
0.132043
-0.0215357
0.133379
-0.0224645
0.134757
-0.0233627
0.136175
-0.0242257
-0.0250438
0.137629
0.119223
-0.0153012
0.120181
-0.0164281
0.121192
-0.0175396
0.122254
-0.0186333
0.123366
-0.019707
0.124526
-0.0207582
0.125731
-0.0217844
0.126978
-0.0227828
0.128264
-0.0237503
0.129584
-0.0246832
0.130935
-0.0255765
-0.0264218
0.132313
0.114558
-0.0161919
0.115499
-0.0173689
0.116488
-0.0185289
0.117524
-0.0196691
0.118604
-0.0207868
0.119724
-0.021879
0.120883
-0.0229426
0.122074
-0.0239741
0.123294
-0.02497
0.124536
-0.025926
0.125797
-0.0268366
-0.0276959
0.127071
0.110084
-0.0170657
0.111002
-0.0182875
0.111963
-0.0194898
0.112964
-0.0206695
0.114
-0.0218231
0.115068
-0.0229468
0.116162
-0.0240368
0.117277
-0.025089
0.118406
-0.0260991
0.119542
-0.0270621
0.120678
-0.0279723
-0.028828
0.12181
0.105778
-0.0179153
0.106665
-0.0191746
0.107586
-0.0204109
0.108537
-0.0216203
0.109512
-0.0227984
0.110506
-0.0239406
0.111512
-0.0250423
0.112521
-0.0260983
0.113525
-0.0271037
0.114516
-0.0280531
0.115484
-0.0289402
-0.0297701
0.116426
0.101613
-0.0187295
0.102454
-0.0200162
0.103318
-0.0212749
0.104199
-0.0225006
0.105088
-0.0236881
0.105979
-0.0248316
0.106863
-0.0259255
0.107728
-0.026964
0.108566
-0.0279416
0.109366
-0.0288524
0.110115
-0.0296899
-0.0304684
0.110814
0.0975526
-0.0194914
0.0983286
-0.0207922
0.0991116
-0.022058
0.0998937
-0.0232827
0.100666
-0.0244601
0.101418
-0.0255835
0.102138
-0.0266463
0.102816
-0.027642
0.10344
-0.0285651
0.103997
-0.0294097
0.104476
-0.0301688
-0.0308689
0.104877
0.0935554
-0.0201785
0.0942393
-0.0214761
0.0949111
-0.0227297
0.0955606
-0.0239323
0.0961769
-0.0250764
0.0967482
-0.0261547
0.097262
-0.0271601
0.0977057
-0.0280857
0.0980669
-0.0289263
0.0983338
-0.0296766
0.0984944
-0.0303294
-0.0309252
0.0985507
0.089572
-0.0207624
0.090132
-0.0220361
0.0906571
-0.0232549
0.0911357
-0.0244109
0.0915554
-0.0254961
0.0919034
-0.0265027
0.0921666
-0.0274233
0.0923326
-0.0282517
0.0923897
-0.0289834
0.0923272
-0.0296141
0.0921339
-0.0301361
-0.0306058
0.0918146
0.0855495
-0.0212107
0.0859504
-0.0224369
0.0862916
-0.0235961
0.0865605
-0.0246798
0.0867442
-0.0256798
0.08683
-0.0265885
0.0868057
-0.027399
0.0866602
-0.0281061
0.0863838
-0.028707
0.0859682
-0.0291986
0.0854042
-0.0295721
-0.0298998
0.0846982
0.0814366
-0.0214897
0.0816434
-0.0226437
0.0817654
-0.0237181
0.08179
-0.0247044
0.0817051
-0.0255948
0.0814991
-0.0263826
0.0811623
-0.0270622
0.0806861
-0.0276299
0.0800643
-0.0280853
0.079292
-0.0284263
0.0783617
-0.0286417
-0.0288187
0.0772805
0.0771899
-0.0215679
0.077172
-0.0226258
0.077046
-0.0235921
0.0768005
-0.0244589
0.0764253
-0.0252196
0.0759117
-0.025869
0.0752531
-0.0264036
0.0744451
-0.0268219
0.0734858
-0.027126
0.0723739
-0.0273143
0.0711032
-0.027371
-0.0273943
0.0696788
0.0727814
-0.0214202
0.0725163
-0.0223608
0.0721236
-0.0231994
0.0715942
-0.0239295
0.0709209
-0.0245463
0.0700989
-0.025047
0.069126
-0.0254307
0.0680028
-0.0256987
0.0667322
-0.0258553
0.0653166
-0.0258987
0.0637503
-0.0258047
-0.0256755
0.0620315
0.0682051
-0.0210313
0.0676821
-0.0218378
0.0670172
-0.0225344
0.0662044
-0.0231167
0.0652405
-0.0235823
0.0641248
-0.0239313
0.0628601
-0.024166
0.0614521
-0.0242908
0.059909
-0.0243122
0.0582374
-0.0242271
0.0564322
-0.0239995
-0.023723
0.0544796
0.0634733
-0.0203974
0.0626941
-0.0210586
0.0617651
-0.0216054
0.0606841
-0.0220358
0.059452
-0.0223502
0.0580727
-0.022552
0.0565536
-0.0226468
0.0549049
-0.0226421
0.0531388
-0.022546
0.0512651
-0.0223535
0.0492798
-0.0220141
-0.0215955
0.0471523
0.058612
-0.019523
0.0575861
-0.0200327
0.0564079
-0.0204272
0.0550795
-0.0207074
0.053606
-0.0208767
0.0519957
-0.0209417
0.0502602
-0.0209114
0.0484142
-0.020796
0.0464734
-0.0206053
0.0444532
-0.0203333
0.0423564
-0.0199173
-0.0193564
0.0401173
0.0537156
0.0524666
0.0510661
0.0495193
0.0478341
0.0460207
0.0440918
0.0420616
0.0399445
0.0377588
0.0355575
0.0333927
0.236536
-0.000608962
0.237139
-0.000603114
0.237732
-0.000592815
0.23831
-0.00057749
0.238866
-0.000556436
0.239395
-0.000529089
0.23989
-0.000495002
0.240344
-0.000453795
0.240749
-0.000405147
0.241098
-0.000348836
0.241383
-0.000284765
0.241596
-0.00021298
0.241729
-0.000133672
0.241777
-4.71816e-05
0.241731
4.59739e-05
0.241585
0.000145212
0.241336
0.00024981
0.240977
0.000359034
0.240505
0.000472043
0.239916
0.000588391
0.239209
0.000706985
0.23838
0.000828803
0.23743
0.000950811
0.23635
0.00107936
0.235149
0.00120173
0.233806
0.00134288
0.23235
0.00145596
0.23073
0.00161946
0.229027
0.00170331
0.00189075
0.225825
-0.00119467
0.226404
-0.00118252
0.226973
-0.0011615
0.227526
-0.00113051
0.228058
-0.00108816
0.228562
-0.0010334
0.229032
-0.000965389
0.229462
-0.000883408
0.229844
-0.000786867
0.23017
-0.00067537
0.230434
-0.000548767
0.230629
-0.000407189
0.230746
-0.000251053
0.23078
-8.10562e-05
0.230724
0.000101754
0.230573
0.000296218
0.230322
0.000500904
0.229967
0.000714361
0.229504
0.000934993
0.22893
0.00116184
0.228244
0.00139305
0.227443
0.00162996
0.226526
0.00186809
0.225488
0.00211687
0.224332
0.00235783
0.223048
0.00262733
0.221646
0.00285794
0.220105
0.00316007
0.218454
0.00335465
0.00368795
0.215879
-0.00176204
0.216438
-0.00174221
0.216986
-0.00170915
0.217517
-0.00166119
0.218025
-0.00159632
0.218504
-0.00151303
0.218949
-0.00141013
0.219352
-0.00128666
0.219707
-0.0011418
0.220007
-0.000975058
0.220244
-0.000786312
0.220413
-0.000575839
0.220506
-0.000344343
0.220518
-9.29283e-05
0.220443
0.00017679
0.220276
0.000463068
0.220014
0.000763762
0.219651
0.00107673
0.219187
0.00139967
0.218617
0.00173114
0.217942
0.00206868
0.217158
0.00241391
0.216264
0.00276127
0.215258
0.00312289
0.214141
0.0034755
0.212902
0.00386574
0.211553
0.00420748
0.210071
0.00464218
0.208486
0.00493954
0.00541871
0.2066
-0.00231493
0.207143
-0.00228549
0.207673
-0.00223836
0.208183
-0.00217135
0.208668
-0.00208186
0.209123
-0.001968
0.209541
-0.00182832
0.209916
-0.00166166
0.210242
-0.0014671
0.210511
-0.00124413
0.210717
-0.000992742
0.210855
-0.000713456
0.210918
-0.000407337
0.210901
-7.59463e-05
0.210799
0.00027845
0.210609
0.000653541
0.210326
0.00104645
0.209948
0.00145437
0.209474
0.00187438
0.2089
0.00230457
0.208227
0.00274206
0.207452
0.00318868
0.206575
0.00363827
0.205593
0.00410503
0.204506
0.00456244
0.203306
0.00506525
0.202002
0.00551238
0.200572
0.00607225
0.199043
0.00646769
0.00709063
0.197912
-0.00285599
0.198441
-0.0028144
0.198954
-0.00275055
0.199444
-0.00266174
0.199907
-0.00254484
0.200337
-0.00239763
0.200727
-0.00221853
0.201071
-0.00200627
0.201364
-0.00175992
0.201599
-0.00147906
0.20177
-0.00116392
0.201872
-0.00081534
0.2019
-0.000434858
0.201848
-2.45078e-05
0.201714
0.00041266
0.201494
0.000873817
0.201185
0.00135534
0.200786
0.00185378
0.200294
0.00236567
0.19971
0.00288872
0.199032
0.00341978
0.19826
0.00396082
0.197393
0.00450567
0.196428
0.00506982
0.195365
0.00562529
0.194198
0.00623234
0.192931
0.00677947
0.191546
0.00745677
0.190068
0.00794642
0.00871031
0.189751
-0.00338679
0.190266
-0.00332998
0.190762
-0.0032462
0.191232
-0.00313224
0.191672
-0.0029845
0.192075
-0.00280057
0.192435
-0.00257882
0.192747
-0.00231798
0.193004
-0.00201722
0.193202
-0.00167635
0.193333
-0.00129591
0.193395
-0.000877195
0.193383
-0.000422267
0.193292
6.61167e-05
0.19312
0.0005845
0.192865
0.0011291
0.192525
0.00169574
0.192098
0.00228038
0.191585
0.00287907
0.190984
0.00348916
0.190296
0.00410755
0.189521
0.0047361
0.188657
0.00536945
0.187704
0.00602316
0.186659
0.0066704
0.185518
0.00737287
0.184282
0.00801552
0.182938
0.00880115
0.181502
0.00938261
0.0102827
0.182059
-0.00390797
0.182562
-0.00383232
0.18304
-0.0037248
0.18349
-0.00358179
0.183905
-0.00339925
0.184279
-0.00317471
0.184607
-0.00290658
0.184882
-0.00259375
0.185101
-0.0022356
0.185257
-0.00183225
0.185345
-0.0013847
0.185363
-0.000894784
0.185306
-0.00036518
0.185171
0.000200666
0.184957
0.000798654
0.184662
0.00142423
0.184285
0.00207263
0.183826
0.00273924
0.183286
0.00341977
0.182664
0.00411123
0.18196
0.00481085
0.181176
0.0055201
0.18031
0.00623543
0.179363
0.00697077
0.178329
0.007704
0.17721
0.00849227
0.175998
0.00922717
0.174689
0.0101098
0.173289
0.0107827
0.0118107
0.174792
-0.00441925
0.17528
-0.00432053
0.175741
-0.00418493
0.176167
-0.00400839
0.176554
-0.00378658
0.176897
-0.00351705
0.177189
-0.00319844
0.177425
-0.00282985
0.1776
-0.00241101
0.17771
-0.00194248
0.177752
-0.00142579
0.17772
-0.000863433
0.177614
-0.000258759
0.17743
0.00038406
0.177169
0.00106019
0.176829
0.0017644
0.17641
0.0024913
0.175913
0.00323575
0.17534
0.00399328
0.174691
0.00476053
0.173966
0.00553542
0.173168
0.00631856
0.172294
0.00710951
0.171346
0.00791826
0.170318
0.0087321
0.169215
0.0095954
0.168022
0.0104204
0.166746
0.0113856
0.165376
0.0121521
0.0132951
0.167908
-0.00491928
0.16838
-0.00479263
0.168819
-0.00462399
0.16922
-0.0044089
0.169576
-0.00414283
0.169883
-0.00382352
0.170134
-0.00344991
0.170326
-0.00302148
0.170453
-0.00253838
0.170512
-0.00200172
0.1705
-0.00141368
0.170414
-0.000777469
0.170253
-9.71918e-05
0.170015
0.000622206
0.1697
0.00137514
0.169308
0.00215567
0.168842
0.00295787
0.168301
0.00377609
0.167689
0.00460578
0.167006
0.00544318
0.166254
0.00628729
0.165436
0.00713733
0.164548
0.00799743
0.163595
0.00887083
0.162567
0.00975991
0.161477
0.010686
0.160297
0.0116001
0.159053
0.0126298
0.15771
0.0134947
0.0147338
0.161372
-0.00540539
0.161824
-0.00524523
0.162238
-0.00503794
0.162608
-0.00477867
0.162928
-0.0044628
0.163193
-0.00408842
0.163398
-0.00365492
0.163539
-0.00316222
0.163611
-0.00261099
0.163612
-0.00200302
0.16354
-0.00134123
0.163392
-0.000629609
0.163168
0.000126895
0.162868
0.00092252
0.162492
0.0017509
0.162042
0.00260539
0.161521
0.00347953
0.160929
0.00436723
0.160271
0.00526395
0.159549
0.00616551
0.158764
0.00707239
0.157919
0.00798175
0.157013
0.008904
0.156051
0.00983238
0.15502
0.010791
0.15394
0.0117659
0.152772
0.0127683
0.151561
0.0138408
0.150244
0.0148115
0.0161218
0.155148
-0.00587299
0.155576
-0.00567296
0.155959
-0.00542065
0.156291
-0.00511086
0.156567
-0.00473905
0.156783
-0.00430382
0.156933
-0.00380511
0.157014
-0.00324334
0.157023
-0.00261985
0.156957
-0.00193718
0.156815
-0.00119912
0.156596
-0.000410532
0.1563
0.000422754
0.155928
0.00129406
0.155483
0.00219622
0.154967
0.00312189
0.154382
0.00406411
0.153733
0.00501635
0.153023
0.00597426
0.152255
0.00693315
0.151432
0.00789543
0.150558
0.00885559
0.14963
0.00983198
0.148658
0.0108045
0.147623
0.0118259
0.146555
0.0128339
0.145399
0.0139242
0.144226
0.015014
0.142937
0.0161004
0.0174506
0.149204
-0.00631471
0.149598
-0.00606761
0.149941
-0.00576312
0.150225
-0.00539568
0.150448
-0.00496114
0.150603
-0.00445879
0.150687
-0.00388915
0.150697
-0.00325325
0.15063
-0.0025532
0.150485
-0.00179245
0.150262
-0.000975728
0.14996
-0.000108936
0.149582
0.000801217
0.149129
0.001747
0.148605
0.00272047
0.148013
0.00371357
0.147358
0.0047189
0.146645
0.00572957
0.145878
0.00674153
0.145061
0.00774961
0.144198
0.00875857
0.143294
0.0097596
0.142345
0.0107807
0.141365
0.0117851
0.140329
0.0128616
0.139277
0.0138853
0.138139
0.0150625
0.137012
0.0161411
0.135757
0.0173552
0.0187089
0.143497
-0.00671925
0.143847
-0.00641715
0.144136
-0.00605247
0.14436
-0.00561951
0.144514
-0.00511493
0.144594
-0.00453885
0.144597
-0.0038924
0.144521
-0.00317732
0.144365
-0.00239663
0.144127
-0.00155485
0.143809
-0.000657781
0.143412
0.000287634
0.14294
0.00127353
0.142396
0.00229128
0.141784
0.00333208
0.141111
0.00438722
0.140381
0.00544896
0.1396
0.00651013
0.138774
0.00756721
0.137909
0.00861458
0.137008
0.00965975
0.136078
0.0106902
0.135113
0.0117451
0.13413
0.0127679
0.133102
0.0138902
0.132076
0.0149111
0.130965
0.0161736
0.129895
0.0172108
0.128684
0.0185659
0.0198831
0.13798
-0.00707015
0.138268
-0.00670475
0.138486
-0.00627128
0.138631
-0.00576441
0.138699
-0.00518231
0.138686
-0.00452602
0.138591
-0.00379723
0.138412
-0.00299852
0.138149
-0.00213403
0.137804
-0.00120947
0.137378
-0.000231851
0.136875
0.000790806
0.136299
0.00184941
0.135656
0.00293443
0.134952
0.00403631
0.134193
0.00514578
0.133387
0.00625492
0.132541
0.00735645
0.13166
0.0084476
0.130752
0.00952243
0.129821
0.0105916
0.128872
0.0116385
0.127903
0.0127148
0.126929
0.0137416
0.12592
0.0148992
0.124932
0.0158989
0.123862
0.0172439
0.122863
0.0182093
0.12171
0.0197189
0.020958
0.132588
-0.00734508
0.132792
-0.00690848
0.132918
-0.00639752
0.132962
-0.00580851
0.132922
-0.00514204
0.132796
-0.00440001
0.132583
-0.00358457
0.132284
-0.00269933
0.1319
-0.00174976
0.131433
-0.000742897
0.130888
0.000313081
0.13027
0.00140886
0.129585
0.0025343
0.128841
0.00367903
0.128044
0.00483286
0.127204
0.00598617
0.126328
0.00713111
0.125424
0.0082605
0.124499
0.00937262
0.12356
0.0104613
0.12261
0.0115408
0.121659
0.0125901
0.120699
0.0136745
0.11975
0.0146907
0.118777
0.0158724
0.117843
0.0168328
0.11683
0.0182564
0.115919
0.0191211
0.114839
0.0207983
0.0219183
0.127242
-0.00751622
0.127335
-0.00700209
0.127344
-0.00640586
0.127263
-0.00572773
0.127093
-0.00497185
0.126833
-0.00414062
0.126485
-0.00323658
0.126051
-0.00226459
0.125533
-0.00123165
0.124936
-0.000146219
0.124266
0.000982522
0.123531
0.00214381
0.122739
0.00332676
0.121898
0.00452028
0.121017
0.00571381
0.120105
0.00689768
0.119172
0.00806436
0.118225
0.00920711
0.117273
0.0103255
0.116321
0.0114134
0.115373
0.0124887
0.114437
0.0135261
0.113506
0.0146049
0.112601
0.0155964
0.111682
0.0167907
0.11082
0.0176955
0.109883
0.0191929
0.109073
0.0199308
0.108085
0.0217869
0.0227501
0.121846
-0.00755245
0.121802
-0.00695756
0.121666
-0.00627047
0.121437
-0.00549901
0.121117
-0.00465187
0.120708
-0.0037313
0.120212
-0.00274019
0.119632
-0.00168507
0.118975
-0.0005745
0.118247
0.000581918
0.117456
0.00177356
0.116611
0.00298893
0.115721
0.00421639
0.114797
0.00544448
0.113848
0.00666264
0.112884
0.00786144
0.111915
0.00903404
0.110947
0.0101744
0.109989
0.0112836
0.109047
0.0123556
0.108123
0.0134124
0.107225
0.014424
0.106346
0.0154844
0.105504
0.0164382
0.104661
0.0176342
0.103887
0.0184695
0.103045
0.0200347
0.102351
0.0206246
0.10147
0.0226677
0.0234413
0.116298
-0.00742358
0.116089
-0.00674918
0.115788
-0.00596927
0.115394
-0.00510458
0.114911
-0.00416878
0.114342
-0.00316301
0.113693
-0.00209084
0.112969
-0.000960749
0.112177
0.000217245
0.111326
0.00143245
0.110427
0.00267315
0.109488
0.00392737
0.108522
0.00518309
0.107537
0.0064289
0.106545
0.00765458
0.105555
0.00885133
0.104576
0.0100133
0.103615
0.0111353
0.102679
0.0122202
0.101772
0.0132621
0.100897
0.0142871
0.100061
0.0152606
0.0992541
0.016291
0.0984961
0.0171962
0.0977466
0.0183837
0.0970774
0.0191387
0.0963471
0.020765
0.0957809
0.0211908
0.0950234
0.0234252
0.0239833
0.110496
-0.00710626
0.110106
-0.0063588
0.109625
-0.00548882
0.109057
-0.00453647
0.108408
-0.00351967
0.107683
-0.0024376
0.106887
-0.00129514
0.106029
-0.000103136
0.105119
0.00112765
0.104166
0.00238518
0.103182
0.00365751
0.102177
0.00493235
0.101162
0.00619787
0.100148
0.00744306
0.0991441
0.00865846
0.0981593
0.00983613
0.0972012
0.0109714
0.0962763
0.0120602
0.0953893
0.0131071
0.0945449
0.0141065
0.0937436
0.0150884
0.0929908
0.0160134
0.0922776
0.0170043
0.0916216
0.0178522
0.0909826
0.0190227
0.0904314
0.0196898
0.0898269
0.0213695
0.0893964
0.0216213
0.0887753
0.0240463
0.0243709
0.104361
-0.0065902
0.103782
-0.00578066
0.103122
-0.00482845
0.102385
-0.0037997
0.10158
-0.00271441
0.100712
-0.0015695
0.099789
-0.00037232
0.0988214
0.000864504
0.09782
0.00212907
0.0967957
0.00340942
0.0957598
0.0046934
0.0947231
0.00596907
0.0936958
0.00722517
0.0926874
0.00845151
0.0917063
0.00963959
0.0907598
0.0107825
0.0898543
0.011877
0.0889947
0.0129198
0.0881843
0.0139175
0.0874265
0.0148643
0.0867207
0.0157943
0.0860712
0.0166629
0.0854684
0.0176071
0.0849289
0.0183917
0.0844133
0.0195382
0.08399
0.0201132
0.0835215
0.021838
0.0832312
0.0219116
0.082756
0.0245215
0.024603
0.0978432
-0.00588275
0.0970872
-0.00502463
0.0962611
-0.00400238
0.0953748
-0.00291335
0.0944363
-0.00177594
0.0934524
-0.000585616
0.0924332
0.000646863
0.0913903
0.00190745
0.090335
0.00318441
0.0892782
0.00446614
0.0882306
0.005741
0.0872018
0.00699786
0.0862006
0.00822638
0.0852348
0.00941734
0.0843111
0.0105633
0.0834351
0.0116585
0.0826114
0.0127007
0.0818434
0.0136878
0.081133
0.0146279
0.0804824
0.015515
0.0798897
0.0163869
0.0793585
0.0171941
0.0788788
0.0180867
0.078466
0.0188045
0.0780825
0.0199217
0.0777925
0.0204032
0.0774661
0.0221644
0.0773165
0.0220612
0.0769931
0.0248449
0.0246819
0.0909423
-0.00501041
0.0900339
-0.00411625
0.0890706
-0.00303907
0.0880663
-0.00190906
0.0870289
-0.000738541
0.0859667
0.000476584
0.0848918
0.0017217
0.0838164
0.00298293
0.082751
0.00424976
0.0817056
0.00551156
0.0806888
0.00675775
0.0797084
0.00797826
0.0787711
0.00916375
0.0778825
0.0103059
0.0770474
0.0113984
0.0762698
0.0124361
0.0755523
0.0134182
0.0748971
0.014343
0.0743048
0.0152202
0.0737764
0.0160434
0.0733093
0.016854
0.0729063
0.0175971
0.0725574
0.0184356
0.0722767
0.0190853
0.0720292
0.0201692
0.0718739
0.0205585
0.0716915
0.0223468
0.0716796
0.0220731
0.0715096
0.0250148
0.0246132
0.0837041
-0.00401631
0.0826814
-0.0030936
0.0816201
-0.00197776
0.0805388
-0.000827677
0.0794452
0.000355048
0.0783501
0.00157165
0.0772669
0.00280488
0.0762066
0.00404331
0.0751777
0.00527857
0.0741878
0.00650147
0.0732429
0.00770267
0.0723481
0.00887307
0.0715077
0.0100041
0.0707255
0.0110882
0.0700043
0.0121196
0.0693463
0.0130941
0.0687531
0.0140115
0.0682254
0.0148706
0.067763
0.0156827
0.0673659
0.0164404
0.0670312
0.0171888
0.0667609
0.0178673
0.0665455
0.0186511
0.0663976
0.0192332
0.0662857
0.0202811
0.0662626
0.0205815
0.066222
0.0223874
0.0663417
0.0219535
0.0663233
0.0250332
0.0244054
0.0762181
-0.00295391
0.0751261
-0.00200161
0.0740122
-0.000863879
0.0729002
0.000284373
0.0717988
0.0014564
0.0707213
0.00264912
0.0696802
0.00384602
0.0686832
0.0050403
0.0677356
0.00622612
0.0668415
0.00739565
0.0660037
0.00854043
0.0652249
0.00965188
0.0645073
0.0107217
0.0638527
0.0117427
0.0632628
0.0127095
0.0627384
0.0136184
0.0622801
0.0144698
0.0618879
0.0152628
0.0615606
0.01601
0.0612982
0.0167028
0.061097
0.0173899
0.0609591
0.0180053
0.0608752
0.018735
0.0608569
0.0192515
0.0608764
0.0202617
0.0609796
0.0204782
0.0610754
0.0222916
0.0613178
0.021711
0.0614458
0.0249052
0.0240688
0.0686031
-0.00187819
0.0674871
-0.000885572
0.0663683
0.000254889
0.0652753
0.00137739
0.0642183
0.00251341
0.0632108
0.00365658
0.0622612
0.00479567
0.061372
0.00592947
0.0605442
0.00705392
0.0597781
0.00816174
0.059074
0.00924452
0.0584325
0.0102934
0.0578542
0.0113
0.05734
0.0122569
0.0568905
0.0131591
0.056506
0.0140029
0.0561862
0.0147896
0.0559309
0.0155182
0.0557384
0.0162024
0.0556084
0.0168328
0.0555374
0.017461
0.0555271
0.0180156
0.055569
0.018693
0.0556735
0.019147
0.055817
0.0201182
0.0560382
0.020257
0.0562619
0.0220679
0.0566165
0.0213564
0.0568828
0.024639
0.0236154
0.0609898
-0.000836528
0.0598908
0.00021341
0.0588162
0.00132946
0.0577951
0.00239851
0.0568366
0.00347189
0.05595
0.00454319
0.0551359
0.00560983
0.0543907
0.00667467
0.0537111
0.00773347
0.0530948
0.00877806
0.0525403
0.00979901
0.0520472
0.0107865
0.0516156
0.0117316
0.0512458
0.0126267
0.0509381
0.0134667
0.0506927
0.0142484
0.0505089
0.0149733
0.0503863
0.0156407
0.0503233
0.0162655
0.0503193
0.0168367
0.0503711
0.0174092
0.0504802
0.0179064
0.0506394
0.0185339
0.0508574
0.018929
0.0511152
0.0198604
0.0514439
0.0199283
0.0517853
0.0217266
0.0522403
0.0209014
0.0526345
0.0242448
0.0230582
0.0535015
0.000141567
0.052458
0.00125695
0.0514815
0.00230597
0.0505892
0.00329078
0.0497828
0.00427826
0.0490615
0.00526449
0.0484165
0.00625482
0.0478393
0.00725191
0.0473241
0.0082487
0.0468674
0.00923474
0.0464676
0.0101988
0.0461245
0.0111297
0.0458382
0.0120179
0.0456095
0.0128554
0.0454386
0.0136376
0.0453257
0.0143613
0.0452703
0.0150287
0.0452721
0.015639
0.0453293
0.0162083
0.0454417
0.0167243
0.0456061
0.0172448
0.0458242
0.0176883
0.0460898
0.0182684
0.0464102
0.0186086
0.046771
0.0194995
0.0471957
0.0195037
0.0476429
0.0212793
0.0481858