/*--------------------------------*- C++ -*----------------------------------*\
  =========                 |
  \\      /  F ield         | OpenFOAM: The Open Source CFD Toolbox
   \\    /   O peration     | Website:  https://openfoam.org
    \\  /    A nd           | Version:  7
     \\/     M anipulation  |
\*---------------------------------------------------------------------------*/
FoamFile
{
    version     2.0;
    format      ascii;
    class       volVectorField;
    location    "10";
    object      U;
}
// * * * * * * * * * * * * * * * * * * * * * * * * * * * * * * * * * * * * * //

dimensions      [0 1 -1 0 0 0 0];

internalField   nonuniform List<vector> 
2125
(
(1.09636 -0.0931145 -7.92873e-21)
(0.961445 -0.0557648 -2.17141e-20)
(1.0604 -0.0720404 -3.93835e-21)
(0.802505 -0.017132 1.43877e-20)
(0.918042 -0.0380456 -1.69052e-21)
(1.02111 -0.0523208 1.90636e-20)
(0.514514 0.0280217 3.67295e-20)
(0.634839 0.0136781 -7.97846e-20)
(0.755358 -0.00357626 1.68828e-20)
(0.872249 -0.0223562 -1.35658e-20)
(0.978721 -0.034314 -2.02308e-20)
(0.361408 0.0411469 7.25927e-21)
(0.472217 0.0338499 -6.22145e-20)
(0.588497 0.0222864 4.36199e-20)
(0.707016 0.007642 -3.50831e-20)
(0.824418 -0.00892326 3.63395e-20)
(0.933549 -0.0184004 -1.47522e-21)
(0.230379 0.0425889 -1.18645e-22)
(0.325828 0.0425031 2.4659e-20)
(0.430571 0.0376235 1.44464e-21)
(0.542159 0.0286332 -3.48535e-20)
(0.657856 0.0164654 -8.41702e-22)
(0.774895 0.00206163 -1.58438e-20)
(0.885917 -0.00497987 1.95918e-20)
(0.126695 0.034783 4.41218e-21)
(0.203228 0.0406978 1.27856e-20)
(0.291543 0.0422587 -2.21159e-20)
(0.389868 0.0394964 5.31163e-20)
(0.496161 0.0328217 -1.56613e-22)
(0.608221 0.0229052 -4.4704e-21)
(0.723992 0.0104619 -3.03173e-20)
(0.836146 0.00553379 -4.73942e-21)
(0.10844 0.0312254 3.31488e-21)
(0.177606 0.0377344 -9.09892e-21)
(0.258747 0.0406178 -1.08777e-20)
(0.350367 0.0396692 -7.18983e-21)
(0.450805 0.035023 -5.19665e-21)
(0.558411 0.0270617 6.95341e-21)
(0.671944 0.0162308 2.89455e-20)
(0.784498 0.0127298 2.25746e-20)
(0.0427558 0.0179506 1.80181e-20)
(0.0915881 0.0270894 -4.29397e-20)
(0.153618 0.0339002 2.48128e-20)
(0.227611 0.0378093 2.18233e-20)
(0.312301 0.0383864 -5.68477e-20)
(0.406365 0.0354827 1.58625e-20)
(0.508673 0.0291497 -7.49515e-22)
(0.618853 0.0194616 1.19954e-20)
(0.731082 0.016241 -2.48155e-20)
(0.0068814 0.00376634 4.78542e-20)
(0.0338566 0.0142336 -1.41487e-20)
(0.0761746 0.0225377 2.07857e-20)
(0.131347 0.0294023 1.33655e-20)
(0.198278 0.0340784 -7.87268e-21)
(0.275884 0.0359307 1.84153e-20)
(0.363099 0.0345243 -7.54247e-21)
(0.459203 0.0295291 4.42222e-20)
(0.5646 0.0204437 -7.28272e-20)
(0.675622 0.0157121 -2.58933e-20)
(0.00436529 0.00215337 -1.39736e-20)
(0.0259504 0.010421 5.54534e-20)
(0.062217 0.0177291 -4.51449e-20)
(0.110854 0.0244465 -1.52322e-21)
(0.170877 0.0296759 -2.19994e-20)
(0.241329 0.0326087 2.44683e-20)
(0.321291 0.0325483 2.67554e-20)
(0.410218 0.0287731 -1.34724e-20)
(0.508821 0.0198701 1.24174e-20)
(0.616781 0.0107685 1.55587e-20)
(0.00222079 0.000572288 2.60687e-21)
(0.0190209 0.00661159 -1.53622e-20)
(0.0497155 0.0128137 1.92821e-20)
(0.0921805 0.0192276 -1.87392e-20)
(0.145522 0.024841 -2.30718e-20)
(0.208861 0.0287216 -1.03818e-20)
(0.281323 0.0299944 -3.99847e-20)
(0.362182 0.0277252 2.49719e-20)
(0.451479 0.0196407 4.6707e-20)
(0.552051 0.00370565 -1.29732e-20)
(0.00043263 -0.000943052 8.38545e-21)
(0.01304 0.0028958 6.80478e-21)
(0.0386522 0.00792807 -1.7196e-21)
(0.075345 0.0139205 -3.1908e-20)
(0.122308 0.0197803 3.39215e-20)
(0.178719 0.0245092 3.85257e-20)
(0.243704 0.0271781 1.35189e-20)
(0.316144 0.0270336 -2.58084e-21)
(0.394564 0.022592 -4.75471e-20)
(0.481418 0.0067358 1.61996e-20)
(-0.00101863 -0.00236285 -2.55066e-20)
(0.00796837 -0.000646308 -3.72799e-21)
(0.0289902 0.00319233 7.65118e-21)
(0.0603386 0.00867502 2.52777e-21)
(0.10129 0.0146559 9.96165e-21)
(0.151094 0.0201098 -6.14329e-20)
(0.208936 0.0241139 3.72095e-20)
(0.273631 0.0260733 -4.45062e-20)
(0.343708 0.0252734 3.30602e-20)
(0.424991 0.0129648 3.74578e-20)
(-0.00215636 -0.00366179 1.12007e-20)
(0.00375516 -0.00394573 -7.75979e-21)
(0.0206723 -0.00128998 3.61365e-21)
(0.0471187 0.00361755 -1.67198e-20)
(0.0824682 0.00959575 2.14255e-21)
(0.126063 0.0156057 -4.36607e-21)
(0.177201 0.0207275 -2.31854e-20)
(0.234836 0.0243605 1.25272e-20)
(0.297768 0.0259225 2.33803e-20)
(0.372801 0.0164564 -3.47924e-20)
(-0.0030072 -0.00481917 -1.48085e-20)
(0.000339735 -0.00694439 -2.35467e-20)
(0.0136228 -0.0054308 1.92445e-20)
(0.0356107 -0.00114361 1.93902e-20)
(0.0657837 0.00471175 -4.82975e-20)
(0.103589 0.0110811 4.87515e-20)
(0.148454 0.0170245 -5.51356e-20)
(0.19949 0.0218302 1.54235e-20)
(0.255666 0.0246733 -1.67525e-20)
(0.323548 0.0169944 -2.55471e-20)
(-0.00360021 -0.00581861 7.734e-21)
(-0.00234655 -0.00959465 1.88164e-20)
(0.00775007 -0.00915593 4.66052e-21)
(0.0257127 -0.00551428 5.49772e-21)
(0.051134 0.000108612 8.60664e-23)
(0.0835713 0.00664023 8.37362e-21)
(0.122573 0.0131037 1.7034e-20)
(0.167391 0.0186515 3.19001e-20)
(0.217118 0.0221796 -3.19975e-20)
(0.277688 0.0159177 1.11332e-20)
(-0.00396589 -0.00664772 -1.78376e-20)
(-0.00437792 -0.0118586 2.07881e-22)
(0.00295123 -0.0124039 6.22901e-21)
(0.0173035 -0.00941271 -1.19664e-20)
(0.0383868 -0.00411485 2.4252e-20)
(0.0658678 0.00239961 -5.80803e-20)
(0.0994043 0.00911383 3.1571e-20)
(0.138367 0.0150629 -2.93057e-20)
(0.18196 0.0189549 5.68325e-20)
(0.23534 0.0140242 1.47413e-20)
(-0.00413528 -0.00729764 9.70724e-21)
(-0.00583182 -0.0137072 -2.05973e-20)
(-0.000884108 -0.0151254 -6.62115e-21)
(0.0102492 -0.0127694 9.69697e-21)
(0.0273912 -0.00786803 1.67932e-20)
(0.0503141 -0.00152263 2.92822e-21)
(0.0787727 0.00521869 -1.05973e-20)
(0.112238 0.0113092 2.46288e-20)
(0.150009 0.0153728 -1.39617e-20)
(0.196452 0.0117096 -1.39318e-21)
(-0.00413926 -0.00776264 2.52051e-20)
(-0.00678673 -0.0151201 7.62141e-21)
(-0.00386984 -0.0172828 1.44851e-21)
(0.00440914 -0.015528 -2.12403e-20)
(0.0179862 -0.0110717 1.94926e-20)
(0.0367339 -0.00501624 6.67547e-21)
(0.0604921 0.00157571 3.35117e-21)
(0.0888173 0.00761654 -7.71671e-21)
(0.121094 0.011732 8.53874e-21)
(0.160947 0.00924013 1.47578e-20)
(-0.00400797 -0.00803992 -1.85233e-20)
(-0.00732045 -0.016085 1.10486e-20)
(-0.00612007 -0.0188506 -1.32827e-21)
(-0.000358709 -0.0176457 3.03518e-20)
(0.0100088 -0.0136613 -3.4273e-20)
(0.024949 -0.00798608 1.15671e-20)
(0.0443773 -0.0016771 -7.40657e-21)
(0.0679262 0.00417643 -6.59004e-21)
(0.0950595 0.00826452 -2.02183e-20)
(0.128739 0.00681558 7.88863e-21)
(-0.00377038 -0.00812919 7.98195e-21)
(-0.00750866 -0.0165976 -2.18157e-20)
(-0.00774633 -0.019815 -1.28225e-20)
(-0.00419355 -0.0190952 -2.07441e-20)
(0.00329901 -0.0155895 5.75166e-21)
(0.0147856 -0.0103576 -2.01619e-21)
(0.0302497 -0.00442948 -1.87513e-20)
(0.0493943 0.00113727 -3.98976e-21)
(0.0717563 0.00513698 -3.70673e-22)
(0.0997228 0.00457681 9.0429e-21)
(-0.00345431 -0.00803286 1.38886e-20)
(-0.00742388 -0.0166611 1.57206e-21)
(-0.00885546 -0.0201746 6.8115e-21)
(-0.0072286 -0.0198645 3.11127e-20)
(-0.00229555 -0.0168284 3.18411e-20)
(0.00607933 -0.0120799 -5.83216e-21)
(0.0179417 -0.00660277 1.50614e-20)
(0.0330615 -0.00139647 -9.63913e-21)
(0.0510427 0.00245975 -5.79348e-21)
(0.073781 0.00261675 -1.35339e-20)
(-0.00308599 -0.00775619 -1.77614e-20)
(-0.00713447 -0.0162866 1.63137e-20)
(-0.00954804 -0.0199399 8.64767e-21)
(-0.00958875 -0.0199579 -1.76288e-20)
(-0.00691699 -0.0173698 -2.05513e-20)
(-0.00132203 -0.0131275 6.71701e-21)
(0.00729908 -0.00815054 5.87791e-22)
(0.0187802 -0.00336142 3.04751e-20)
(0.0327852 0.000296792 1.85734e-20)
(0.0507948 0.000993228 -7.48608e-21)
(-0.00268993 -0.00730714 9.65883e-21)
(-0.00670412 -0.0154931 -4.71281e-21)
(-0.00991715 -0.0191335 -1.76275e-20)
(-0.0113889 -0.0193957 7.75446e-21)
(-0.0106951 -0.0172258 -2.68778e-22)
(-0.00755656 -0.0134993 -2.75031e-20)
(-0.00181756 -0.00905685 -1.65566e-21)
(0.00641683 -0.00473062 -2.80679e-20)
(0.0168603 -0.0013283 -1.27777e-20)
(0.0306547 -0.000269779 2.1535e-20)
(-0.00228885 -0.00669654 -1.17361e-20)
(-0.00619128 -0.014307 -1.11002e-21)
(-0.0100475 -0.0177899 -8.24705e-22)
(-0.0127327 -0.0182134 -1.65907e-20)
(-0.0137462 -0.0164275 2.62183e-21)
(-0.012747 -0.0132177 1.68407e-20)
(-0.00953146 -0.00933339 -9.01326e-21)
(-0.0041482 -0.00550703 1.50793e-20)
(0.0031552 -0.00242471 6.96618e-21)
(0.0132629 -0.00116498 -7.72688e-21)
(-0.00190347 -0.00593821 7.40188e-21)
(-0.0056486 -0.0127626 1.56645e-20)
(-0.0100145 -0.0159547 -3.67922e-21)
(-0.0137119 -0.0164613 7.99814e-21)
(-0.0161722 -0.0150238 5.54337e-21)
(-0.0170002 -0.0123263 -1.40572e-20)
(-0.0159492 -0.00901704 3.61982e-21)
(-0.013021 -0.00572185 -3.97342e-21)
(-0.00842201 -0.00300837 5.12843e-21)
(-0.00145902 -0.00163876 -1.04565e-20)
(-0.00155226 -0.00504883 -2.353e-21)
(-0.00512247 -0.010901 -1.01587e-20)
(-0.00988407 -0.013684 1.49401e-20)
(-0.0144057 -0.0142029 -7.89818e-21)
(-0.0180608 -0.0130797 3.83799e-21)
(-0.0204073 -0.0108874 1.18767e-20)
(-0.021162 -0.00816555 -1.04305e-20)
(-0.0202835 -0.00543011 -2.60127e-21)
(-0.0179203 -0.00313193 3.12369e-22)
(-0.0136548 -0.00177498 1.23993e-20)
(-0.00125118 -0.00404788 -7.21063e-22)
(-0.00465249 -0.00876989 -3.06451e-21)
(-0.00971178 -0.0110432 -1.32176e-20)
(-0.0148805 -0.0115134 2.70903e-21)
(-0.0194846 -0.010674 2.33094e-21)
(-0.0230438 -0.00897915 -9.74662e-22)
(-0.0252444 -0.00685372 -2.75995e-22)
(-0.0260086 -0.00470111 -4.21058e-21)
(-0.0254416 -0.00286559 6.01953e-21)
(-0.0233556 -0.00169896 4.11686e-21)
(-0.00101343 -0.00295729 1.86725e-21)
(-0.00427104 -0.00642278 3.71885e-21)
(-0.00954268 -0.00810571 9.98782e-21)
(-0.0151897 -0.0084779 -5.40316e-21)
(-0.0205018 -0.00789728 -4.85714e-21)
(-0.0249694 -0.0066925 -1.94229e-22)
(-0.0282555 -0.00517001 9.92543e-21)
(-0.0302542 -0.00361883 4.81536e-21)
(-0.0310425 -0.00228207 -4.22317e-21)
(-0.0305873 -0.00139552 -4.87612e-21)
(-0.000849156 -0.00180108 -3.093e-22)
(-0.00400282 -0.00391782 7.52915e-22)
(-0.00941086 -0.00495149 -1.88679e-21)
(-0.0153736 -0.00518953 1.41061e-21)
(-0.0211559 -0.00484887 1.30703e-21)
(-0.0262286 -0.00412844 9.66906e-22)
(-0.0302388 -0.00321327 -2.00501e-21)
(-0.0330618 -0.00227706 -8.35357e-21)
(-0.0347574 -0.00146437 -1.3226e-21)
(-0.0353871 -0.000910645 2.59489e-21)
(-0.0154588 -0.00174709 1.15223e-21)
(-0.0214757 -0.00163483 -1.21781e-21)
(-0.0268508 -0.0013951 -6.00397e-22)
(-0.0312234 -0.00108976 6.53171e-22)
(-0.0344587 -0.000776764 3.29563e-21)
(-0.0366089 -0.00050403 -1.18215e-21)
(-0.0377808 -0.000315694 1.21308e-21)
(1.15328 -0.00437872 -1.93224e-23)
(1.15491 -0.00433904 5.84369e-23)
(1.15652 -0.00429821 -7.22469e-23)
(1.1581 -0.0042561 2.44725e-23)
(1.15966 -0.0042126 8.56184e-23)
(1.16119 -0.00416753 9.2881e-24)
(1.16269 -0.00412066 -4.26643e-23)
(1.16417 -0.00407153 -8.68016e-23)
(1.16562 -0.00401924 6.1407e-23)
(1.16703 -0.00396183 -2.89478e-23)
(1.16842 -0.00389481 2.2854e-23)
(1.15469 -0.0128996 -1.55499e-23)
(1.15635 -0.012777 -1.0335e-23)
(1.15799 -0.012653 1.41526e-23)
(1.1596 -0.0125272 4.91214e-23)
(1.16118 -0.0123994 -1.28583e-24)
(1.16274 -0.0122693 -1.20063e-23)
(1.16427 -0.0121361 -2.38594e-23)
(1.16577 -0.0119986 7.83047e-23)
(1.16724 -0.0118539 2.32801e-23)
(1.16868 -0.0116952 -2.27566e-23)
(1.17009 -0.0115076 -4.32991e-23)
(1.15722 -0.0211783 -3.2218e-23)
(1.15894 -0.0209749 -4.93991e-24)
(1.16064 -0.0207694 -9.63469e-25)
(1.16232 -0.0205616 1.23093e-22)
(1.16396 -0.0203509 -1.80498e-22)
(1.16558 -0.0201368 4.74025e-23)
(1.16718 -0.0199183 5.65307e-23)
(1.16874 -0.0196929 3.69467e-23)
(1.17027 -0.0194558 -4.00882e-23)
(1.17178 -0.0191957 -3.8118e-24)
(1.17325 -0.0188866 3.22799e-24)
(1.16075 -0.0292779 4.52064e-23)
(1.16256 -0.02899 -3.12696e-23)
(1.16435 -0.0286996 1.08266e-22)
(1.16612 -0.0284065 -4.09024e-23)
(1.16785 -0.0281102 -2.82134e-23)
(1.16957 -0.0278098 -1.49076e-22)
(1.17125 -0.0275038 5.87879e-24)
(1.1729 -0.0271891 6.69415e-24)
(1.17453 -0.0268584 5.65663e-23)
(1.17612 -0.0264956 -4.90738e-23)
(1.17769 -0.0260632 7.65224e-23)
(1.16515 -0.0372744 4.68402e-23)
(1.16708 -0.0368983 -3.34276e-23)
(1.16899 -0.0365194 -2.80608e-23)
(1.17086 -0.0361373 -1.26316e-23)
(1.17272 -0.0357516 6.99816e-23)
(1.17455 -0.0353613 1.12789e-22)
(1.17635 -0.0349643 -1.76467e-24)
(1.17812 -0.0345566 1.0867e-22)
(1.17986 -0.0341285 -3.42818e-23)
(1.18158 -0.0336586 2.59539e-22)
(1.18327 -0.033097 -1.40033e-22)
(1.17034 -0.0452192 -6.76726e-23)
(1.1724 -0.0447486 7.87777e-23)
(1.17444 -0.044275 -6.44676e-23)
(1.17646 -0.0437978 -1.97641e-22)
(1.17845 -0.0433165 2.45205e-23)
(1.18042 -0.04283 -1.5695e-22)
(1.18236 -0.042336 8.31029e-23)
(1.18427 -0.0418291 3.00595e-22)
(1.18616 -0.0412975 -3.61432e-23)
(1.18802 -0.0407135 -2.78876e-22)
(1.18985 -0.0400137 -1.02194e-22)
(1.17621 -0.0531547 -1.07881e-24)
(1.17843 -0.0525819 -7.31668e-23)
(1.18063 -0.0520056 2.08618e-22)
(1.1828 -0.0514253 1.04266e-22)
(1.18496 -0.0508404 4.20939e-23)
(1.18708 -0.0502497 8.28265e-23)
(1.18919 -0.0496503 -2.40692e-22)
(1.19126 -0.049036 -4.60883e-22)
(1.19331 -0.048392 -2.09099e-22)
(1.19534 -0.0476843 7.38934e-24)
(1.19735 -0.0468341 4.85041e-23)
(1.1827 -0.0611139 1.37893e-22)
(1.1851 -0.0604292 1.14313e-22)
(1.18747 -0.0597402 1.56325e-22)
(1.18983 -0.0590465 -3.01619e-22)
(1.19216 -0.0583476 3.72149e-22)
(1.19446 -0.057642 -1.08083e-22)
(1.19675 -0.0569265 3.60818e-22)
(1.19901 -0.0561935 -2.15148e-22)
(1.20124 -0.0554255 3.45715e-22)
(1.20346 -0.0545814 4.83679e-22)
(1.20565 -0.0535651 2.02733e-22)
(1.18975 -0.069122 1.31369e-22)
(1.19234 -0.0683134 1.91058e-23)
(1.19491 -0.0674996 -4.63293e-22)
(1.19746 -0.0666801 1.74325e-22)
(1.19999 -0.0658543 -5.5101e-23)
(1.20249 -0.0650205 -5.3872e-23)
(1.20498 -0.064175 3.0194e-22)
(1.20744 -0.0633091 -3.52281e-23)
(1.20987 -0.0624021 -3.58145e-22)
(1.21229 -0.0614051 -7.42097e-22)
(1.21468 -0.0602029 7.87603e-23)
(1.19731 -0.0771978 -2.26923e-22)
(1.20011 -0.0762513 8.33223e-23)
(1.20289 -0.075298 6.24467e-22)
(1.20565 -0.0743375 4.19261e-22)
(1.2084 -0.0733689 -4.73416e-22)
(1.21112 -0.0723903 -2.376e-22)
(1.21382 -0.0713974 -2.55579e-22)
(1.21649 -0.0703801 1.49245e-22)
(1.21914 -0.0693144 2.80219e-22)
(1.22177 -0.0681432 4.32952e-22)
(1.22438 -0.06673 -1.59868e-22)
(1.20532 -0.0853544 5.00786e-23)
(1.20836 -0.0842533 -7.13695e-22)
(1.21137 -0.0831431 9.08455e-24)
(1.21436 -0.0820231 -5.8549e-22)
(1.21734 -0.0808921 3.89483e-22)
(1.22029 -0.0797477 5.78536e-22)
(1.22321 -0.0785849 -9.05699e-23)
(1.22611 -0.077392 -4.57838e-22)
(1.22898 -0.0761413 -2.39954e-22)
(1.23183 -0.074767 2.77754e-22)
(1.23466 -0.0731106 -2.7346e-22)
(1.21048 -0.0948624 3.43328e-22)
(1.21378 -0.0935989 4.74033e-22)
(1.21706 -0.0923234 -3.9337e-23)
(1.22031 -0.0910351 -8.79341e-22)
(1.22355 -0.0897329 -5.11483e-22)
(1.22677 -0.0884148 -4.22463e-22)
(1.22995 -0.0870776 7.34919e-22)
(1.23311 -0.0857151 1.01453e-21)
(1.23624 -0.0843135 3.7528e-22)
(1.23933 -0.0828414 3.17817e-23)
(1.24238 -0.0812243 -4.85798e-22)
(1.24541 -0.0792818 1.12607e-21)
(1.21907 -0.103388 -2.05252e-22)
(1.22263 -0.101931 -9.58166e-22)
(1.22617 -0.100457 1.32955e-22)
(1.22969 -0.0989649 3.73354e-22)
(1.23318 -0.0974515 3.70799e-22)
(1.23664 -0.0959142 -5.15245e-22)
(1.24006 -0.094348 -9.75767e-22)
(1.24345 -0.0927448 -1.9112e-22)
(1.24679 -0.0910882 4.91804e-22)
(1.25007 -0.089343 1.05599e-21)
(1.2533 -0.0874265 -3.21597e-22)
(1.25648 -0.0851401 -1.56523e-21)
(1.22803 -0.112019 6.35478e-22)
(1.23186 -0.110341 1.85708e-22)
(1.23567 -0.108639 3.8489e-22)
(1.23945 -0.106908 -8.01916e-23)
(1.24319 -0.105146 -5.33218e-22)
(1.24688 -0.103345 3.91095e-23)
(1.25053 -0.1015 -1.63624e-22)
(1.25412 -0.0995985 -9.21911e-22)
(1.25763 -0.0976211 -1.66194e-21)
(1.26105 -0.0955283 -2.2452e-21)
(1.26436 -0.0932322 2.29293e-21)
(1.26759 -0.0905231 4.25089e-23)
(1.23731 -0.120736 9.80457e-22)
(1.24142 -0.118802 -3.86633e-22)
(1.24549 -0.116831 -3.54418e-22)
(1.24952 -0.114817 8.08029e-23)
(1.25349 -0.112752 5.37774e-22)
(1.25739 -0.110629 1.08803e-21)
(1.2612 -0.108434 -7.06325e-22)
(1.26492 -0.106152 1.2941e-21)
(1.26851 -0.10376 -5.24081e-22)
(1.27195 -0.101215 -6.35235e-22)
(1.2752 -0.0984275 -2.58615e-21)
(1.27828 -0.0951918 -5.85688e-22)
(1.24688 -0.129498 -7.53426e-22)
(1.25125 -0.12726 6.66827e-22)
(1.25556 -0.124965 1.19491e-21)
(1.25979 -0.122604 6.69229e-22)
(1.26393 -0.120165 -4.02096e-22)
(1.26795 -0.117632 -1.6689e-21)
(1.27184 -0.114989 2.68428e-21)
(1.27555 -0.112213 -7.265e-22)
(1.27905 -0.109278 1.69821e-21)
(1.28231 -0.106139 -1.30065e-21)
(1.28525 -0.102712 1.77862e-21)
(1.28784 -0.0988198 1.75073e-21)
(1.25664 -0.138231 -1.26989e-22)
(1.26123 -0.135621 -8.82803e-22)
(1.26571 -0.132925 -1.16173e-21)
(1.27006 -0.130128 2.43756e-22)
(1.27426 -0.12721 2.07105e-21)
(1.27826 -0.12415 -1.22458e-21)
(1.28202 -0.120923 2.91935e-22)
(1.2855 -0.117502 -4.07777e-21)
(1.28865 -0.113856 -6.36375e-22)
(1.29141 -0.109943 2.89306e-21)
(1.29363 -0.105696 5.24819e-23)
(1.29525 -0.101 -3.63524e-21)
(1.26645 -0.146809 4.48087e-23)
(1.27116 -0.143733 3.39451e-22)
(1.27569 -0.140527 1.2417e-21)
(1.28001 -0.137169 -9.65315e-22)
(1.28406 -0.133633 -2.21307e-21)
(1.28779 -0.129888 1.09061e-21)
(1.29114 -0.125903 8.78694e-22)
(1.29404 -0.121646 5.9846e-21)
(1.29642 -0.117087 3.33876e-22)
(1.29821 -0.112192 -2.97674e-21)
(1.29917 -0.106927 5.27138e-22)
(1.29914 -0.101278 -8.32584e-22)
(1.27606 -0.155039 -2.35242e-22)
(1.28073 -0.151365 2.32823e-22)
(1.28511 -0.147502 -2.81858e-22)
(1.28913 -0.143419 1.54391e-21)
(1.29273 -0.139081 4.22645e-21)
(1.29583 -0.134455 4.40133e-21)
(1.29834 -0.129502 -6.70312e-21)
(1.30016 -0.124192 1.049e-21)
(1.30121 -0.118498 3.62414e-21)
(1.3014 -0.112409 7.3777e-21)
(1.3004 -0.105939 -1.19963e-21)
(1.29787 -0.0992234 1.87362e-21)
(1.28511 -0.162644 8.84818e-22)
(1.28948 -0.158197 5.82685e-22)
(1.29338 -0.153484 -2.02943e-21)
(1.29673 -0.148469 -1.30653e-21)
(1.29944 -0.143114 -1.62545e-21)
(1.30139 -0.137379 4.19296e-22)
(1.30247 -0.131231 3.94231e-21)
(1.30257 -0.124644 -3.44125e-21)
(1.30158 -0.117608 -1.80447e-21)
(1.29942 -0.110145 -7.88632e-21)
(1.29564 -0.102336 2.32304e-21)
(1.28965 -0.0945124 9.23941e-21)
(1.29305 -0.16925 1.74467e-21)
(1.29673 -0.163812 -5.04146e-22)
(1.29971 -0.158021 1.20671e-21)
(1.30187 -0.151837 6.96183e-22)
(1.3031 -0.145225 -4.63427e-21)
(1.30325 -0.138151 -8.64455e-21)
(1.3022 -0.130592 6.20898e-21)
(1.2998 -0.122537 5.48592e-22)
(1.29596 -0.114008 -3.63963e-21)
(1.2906 -0.105069 7.61496e-21)
(1.28316 -0.0958892 4.1643e-21)
(1.27273 -0.0870248 -2.48128e-21)
(1.29912 -0.174399 -5.07696e-22)
(1.3016 -0.167719 -1.08822e-21)
(1.30308 -0.160597 -8.03385e-22)
(1.3034 -0.153001 -1.43574e-21)
(1.30244 -0.144905 -2.93094e-21)
(1.30003 -0.13629 4.16261e-21)
(1.29603 -0.127156 -1.12696e-20)
(1.29031 -0.117523 -6.44026e-21)
(1.28276 -0.10745 3.35981e-21)
(1.27338 -0.0970596 -7.81638e-21)
(1.26143 -0.086616 -8.40335e-21)
(1.2457 -0.0769103 -1.18233e-20)
(1.30237 -0.177573 -3.00257e-21)
(1.30302 -0.16939 2.19325e-21)
(1.30229 -0.160694 2.14056e-21)
(1.30003 -0.151468 -1.32003e-21)
(1.29608 -0.141708 1.42908e-21)
(1.29029 -0.131426 5.65474e-21)
(1.28252 -0.120654 1.64223e-20)
(1.27264 -0.109453 1.3786e-20)
(1.26061 -0.0979317 -9.07916e-21)
(1.24647 -0.0862727 6.50008e-21)
(1.22935 -0.0748297 1.19234e-21)
(1.20764 -0.0646076 8.48948e-21)
(1.30167 -0.17825 1.11422e-21)
(1.29976 -0.168327 -4.97388e-21)
(1.29607 -0.157858 -8.38577e-21)
(1.29043 -0.146854 -5.69987e-21)
(1.28269 -0.135343 1.5306e-20)
(1.27273 -0.12338 -6.78213e-21)
(1.26041 -0.111043 -1.30618e-20)
(1.24567 -0.0984414 -7.96526e-21)
(1.22852 -0.0857356 3.4598e-21)
(1.20909 -0.0731608 1.79003e-21)
(1.18636 -0.0611326 -7.54553e-21)
(1.15832 -0.0508066 -7.72192e-21)
(1.29584 -0.175962 2.96789e-22)
(1.2906 -0.164126 1.04635e-21)
(1.28317 -0.151769 5.09383e-21)
(1.27338 -0.138942 -2.38011e-22)
(1.26112 -0.125722 -5.39187e-21)
(1.24629 -0.112212 -9.09439e-21)
(1.22884 -0.0985459 2.27042e-21)
(1.20872 -0.084886 -1.38828e-22)
(1.18606 -0.0714367 8.69423e-21)
(1.16108 -0.0584599 3.17864e-21)
(1.13261 -0.0463758 9.37796e-21)
(1.09823 -0.0363775 5.95912e-22)
(1.28369 -0.170364 3.40234e-21)
(1.27441 -0.156531 2.00446e-22)
(1.26252 -0.142279 1.39405e-20)
(1.24793 -0.12771 1.13224e-20)
(1.23055 -0.112958 -1.00285e-20)
(1.21036 -0.098186 4.13569e-21)
(1.18736 -0.0835873 -3.50611e-21)
(1.16161 -0.0693774 3.23891e-21)
(1.13331 -0.0557903 -4.58786e-21)
(1.10285 -0.043071 4.40503e-21)
(1.06884 -0.031546 -1.09391e-20)
(1.02846 -0.022261 1.39766e-20)
(1.26431 -0.16136 -6.89707e-21)
(1.25035 -0.145567 5.09818e-21)
(1.23346 -0.129541 -1.17244e-20)
(1.21358 -0.113443 5.02137e-21)
(1.19069 -0.0974681 1.86675e-20)
(1.16483 -0.0818444 4.71843e-21)
(1.13612 -0.0668288 8.03161e-21)
(1.1047 -0.0526872 -2.88647e-21)
(1.0709 -0.0396679 5.14531e-22)
(1.03521 -0.0279502 -7.92756e-21)
(0.99614 -0.0176399 1.43766e-20)
(0.95043 -0.00935354 -7.9328e-21)
(1.23702 -0.14905 1.93516e-21)
(1.21797 -0.131482 -9.4042e-21)
(1.19573 -0.113963 6.4876e-22)
(1.17032 -0.0967163 -1.66844e-20)
(1.14181 -0.0799986 -1.077e-20)
(1.11032 -0.0641039 -5.85608e-21)
(1.07604 -0.0493497 -5.87862e-23)
(1.03921 -0.0360468 -4.80761e-21)
(1.00026 -0.0244375 1.49701e-20)
(0.959807 -0.0145766 4.5308e-21)
(0.916241 -0.0061718 -1.00218e-20)
(0.865912 0.00108167 -3.88944e-21)
(1.20133 -0.133071 6.1862e-21)
(1.17687 -0.113936 1.83614e-21)
(1.14908 -0.0952386 -6.95656e-21)
(1.11805 -0.0772685 1.23142e-20)
(1.08395 -0.0603534 -1.32649e-20)
(1.047 -0.0448578 -4.36617e-21)
(1.0075 -0.0311691 2.56656e-21)
(0.965777 -0.0196568 -1.72208e-21)
(0.922346 -0.0105765 -1.92473e-20)
(0.877952 -0.00387012 -1.82123e-20)
(0.831004 0.00129606 6.50515e-21)
(0.777205 0.00719762 -6.716e-21)
(1.15759 -0.113724 -1.91194e-21)
(1.12754 -0.0931565 -9.361e-22)
(1.09405 -0.0734491 3.64881e-21)
(1.0573 -0.0549529 -7.6373e-21)
(1.01753 -0.0380572 1.91463e-20)
(0.97505 -0.0231866 1.45866e-20)
(0.930219 -0.0107916 -9.39673e-21)
(0.883429 -0.00131434 1.08249e-20)
(0.835209 0.00490218 1.12023e-20)
(0.786406 0.00777969 4.83388e-21)
(0.736373 0.00807153 1.95288e-21)
(0.68162 0.00996252 1.79709e-20)
(1.17064 -0.00375164 0)
(1.17365 -0.00354107 0)
(1.17662 -0.00331793 0)
(1.17952 -0.00308158 0)
(1.18234 -0.00283133 0)
(1.18503 -0.00256757 0)
(1.18758 -0.00229137 0)
(1.18994 -0.00200416 0)
(1.19207 -0.00170763 0)
(1.19395 -0.00140378 0)
(1.19553 -0.00109494 0)
(1.19677 -0.000783736 0)
(1.19763 -0.000473005 0)
(1.19808 -0.000165695 0)
(1.19809 0.000135209 0)
(1.19762 0.000426841 0)
(1.19665 0.0007065 0)
(1.19514 0.000971981 0)
(1.19308 0.00122119 0)
(1.19044 0.00145354 0)
(1.18725 0.00166697 0)
(1.1834 0.00186485 0)
(1.17907 0.00204092 0)
(1.17386 0.00221041 0)
(1.16854 0.00234685 0)
(1.16158 0.00250196 0)
(1.15585 0.00258571 0)
(1.14599 0.00274384 0)
(1.14168 0.00275113 0)
(1.12556 0.00290754 0)
(1.17235 -0.0110903 0)
(1.17538 -0.01047 0)
(1.17837 -0.00981001 0)
(1.18129 -0.00910904 0)
(1.18411 -0.00836556 0)
(1.18681 -0.00758118 0)
(1.18935 -0.0067596 0)
(1.1917 -0.00590538 0)
(1.19381 -0.0050238 0)
(1.19566 -0.00412102 0)
(1.1972 -0.00320413 0)
(1.1984 -0.00228104 0)
(1.19922 -0.00136021 0)
(1.19962 -0.000450422 0)
(1.19956 0.000439494 0)
(1.19903 0.00130109 0)
(1.19798 0.00212646 0)
(1.19641 0.00290912 0)
(1.19428 0.00364317 0)
(1.19158 0.00432662 0)
(1.18832 0.00495436 0)
(1.18441 0.00553477 0)
(1.18003 0.00605315 0)
(1.17476 0.00654727 0)
(1.16941 0.00695346 0)
(1.16238 0.0073979 0)
(1.15665 0.00766293 0)
(1.1467 0.00809827 0)
(1.14241 0.00816773 0)
(1.1262 0.00858644 0)
(1.17558 -0.018193 0)
(1.17866 -0.0171593 0)
(1.18167 -0.0160608 0)
(1.18461 -0.0148953 0)
(1.18745 -0.0136604 0)
(1.19015 -0.0123593 0)
(1.19268 -0.0109984 0)
(1.195 -0.0095855 0)
(1.19707 -0.00812963 0)
(1.19886 -0.00664117 0)
(1.20033 -0.00513203 0)
(1.20145 -0.00361533 0)
(1.20217 -0.00210507 0)
(1.20246 -0.000615654 0)
(1.20229 0.00083849 0)
(1.20163 0.00224369 0)
(1.20046 0.00358729 0)
(1.19876 0.0048589 0)
(1.1965 0.00604946 0)
(1.19367 0.00715565 0)
(1.19029 0.00817071 0)
(1.18626 0.00910628 0)
(1.18178 0.00994405 0)
(1.17641 0.0107357 0)
(1.17098 0.0113979 0)
(1.16385 0.0120999 0)
(1.15808 0.0125531 0)
(1.14801 0.0132196 0)
(1.14374 0.0133948 0)
(1.12736 0.014023 0)
(1.18014 -0.0250885 0)
(1.18328 -0.023633 0)
(1.18632 -0.0220883 0)
(1.18929 -0.0204515 0)
(1.19214 -0.0187196 0)
(1.19484 -0.0168977 0)
(1.19735 -0.0149956 0)
(1.19962 -0.0130247 0)
(1.20163 -0.0109981 0)
(1.20334 -0.00893064 0)
(1.20471 -0.0068393 0)
(1.20569 -0.00474253 0)
(1.20627 -0.00265981 0)
(1.20641 -0.000611028 0)
(1.20607 0.00138407 0)
(1.20524 0.00330701 0)
(1.20388 0.00514085 0)
(1.20199 0.0068719 0)
(1.19955 0.00848858 0)
(1.19654 0.00998676 0)
(1.19299 0.0113589 0)
(1.1888 0.01262 0)
(1.18417 0.0137497 0)
(1.17865 0.0148117 0)
(1.17311 0.0157081 0)
(1.16584 0.0166441 0)
(1.16001 0.0172719 0)
(1.14977 0.0181535 0)
(1.1455 0.0184268 0)
(1.12889 0.0192634 0)
(1.18586 -0.0318283 0)
(1.18908 -0.0299316 0)
(1.19215 -0.0279223 0)
(1.19515 -0.0257968 0)
(1.19802 -0.0235523 0)
(1.20071 -0.0211965 0)
(1.20318 -0.0187428 0)
(1.20539 -0.0162071 0)
(1.20731 -0.0136066 0)
(1.2089 -0.0109613 0)
(1.21012 -0.0082932 0)
(1.21095 -0.00562631 0)
(1.21134 -0.00298555 0)
(1.21127 -0.000396178 0)
(1.21071 0.00211751 0)
(1.20965 0.0045324 0)
(1.20806 0.00682789 0)
(1.20593 0.00898767 0)
(1.20326 0.0109985 0)
(1.20002 0.0128561 0)
(1.19625 0.0145533 0)
(1.19184 0.0161081 0)
(1.18702 0.0175007 0)
(1.18131 0.0188039 0)
(1.17563 0.0199111 0)
(1.16817 0.0210563 0)
(1.16226 0.0218433 0)
(1.1518 0.0229239 0)
(1.14753 0.0232853 0)
(1.13063 0.0243339 0)
(1.19263 -0.0384336 0)
(1.19593 -0.0360694 0)
(1.19903 -0.0335703 0)
(1.20205 -0.0309324 0)
(1.20493 -0.0281535 0)
(1.2076 -0.0252447 0)
(1.21001 -0.022224 0)
(1.21213 -0.0191117 0)
(1.21393 -0.0159304 0)
(1.21536 -0.012705 0)
(1.2164 -0.00946318 0)
(1.21702 -0.00623433 0)
(1.21717 -0.00304877 0)
(1.21685 6.32928e-05 0)
(1.21602 0.00307297 0)
(1.21468 0.00595339 0)
(1.2128 0.00868112 0)
(1.21038 0.0112379 0)
(1.20742 0.01361 0)
(1.2039 0.0157932 0)
(1.19986 0.0177823 0)
(1.1952 0.0195977 0)
(1.19015 0.0212233 0)
(1.1842 0.0227372 0)
(1.17833 0.0240323 0)
(1.17066 0.0253587 0)
(1.16463 0.026292 0)
(1.15392 0.0275496 0)
(1.14961 0.0279948 0)
(1.13238 0.0292521 0)
(1.20032 -0.0449195 0)
(1.20371 -0.0420542 0)
(1.20684 -0.0390331 0)
(1.20987 -0.0358528 0)
(1.21274 -0.0325119 0)
(1.21536 -0.029026 0)
(1.21769 -0.0254184 0)
(1.21969 -0.0217148 0)
(1.22132 -0.0179429 0)
(1.22256 -0.0141334 0)
(1.22337 -0.0103195 0)
(1.22373 -0.00653618 0)
(1.2236 -0.00281887 0)
(1.22296 0.000797702 0)
(1.22181 0.00428032 0)
(1.22012 0.00759926 0)
(1.2179 0.0107291 0)
(1.21514 0.0136505 0)
(1.21183 0.0163499 0)
(1.20798 0.0188241 0)
(1.20362 0.0210715 0)
(1.19865 0.0231138 0)
(1.19331 0.0249427 0)
(1.18709 0.0266351 0)
(1.18099 0.0280962 0)
(1.17305 0.0295722 0)
(1.16686 0.0306423 0)
(1.15586 0.0320471 0)
(1.15151 0.0325776 0)
(1.1339 0.0340305 0)
(1.20885 -0.0512879 0)
(1.21231 -0.0478811 0)
(1.21545 -0.0443002 0)
(1.21848 -0.0405418 0)
(1.22132 -0.036607 0)
(1.22387 -0.0325162 0)
(1.22608 -0.028299 0)
(1.22791 -0.0239869 0)
(1.22934 -0.0196134 0)
(1.23033 -0.0152149 0)
(1.23085 -0.0108305 0)
(1.23089 -0.00650032 0)
(1.23041 -0.00226478 0)
(1.2294 0.00183722 0)
(1.22786 0.00576923 0)
(1.22577 0.00949914 0)
(1.22314 0.0130003 0)
(1.21996 0.0162531 0)
(1.21625 0.0192455 0)
(1.21199 0.0219757 0)
(1.20726 0.0244472 0)
(1.20192 0.0266817 0)
(1.19624 0.028684 0)
(1.18969 0.0305209 0)
(1.18331 0.0321268 0)
(1.17506 0.0337165 0)
(1.16868 0.034917 0)
(1.15736 0.0364297 0)
(1.15292 0.0370534 0)
(1.13493 0.0386749 0)
(1.21813 -0.0575297 0)
(1.22165 -0.0535344 0)
(1.22478 -0.0493497 0)
(1.22778 -0.0449732 0)
(1.23056 -0.0404083 0)
(1.23299 -0.035682 0)
(1.23502 -0.0308305 0)
(1.23663 -0.0258916 0)
(1.23779 -0.0209047 0)
(1.23847 -0.0159123 0)
(1.23864 -0.010959 0)
(1.23829 -0.00609026 0)
(1.23738 -0.00135071 0)
(1.23593 0.00321701 0)
(1.23391 0.0075739 0)
(1.23134 0.0116862 0)
(1.22822 0.0155269 0)
(1.22455 0.019077 0)
(1.22036 0.0223271 0)
(1.21563 0.0252769 0)
(1.21044 0.0279375 0)
(1.20466 0.030328 0)
(1.19858 0.0324727 0)
(1.19164 0.0344174 0)
(1.18493 0.0361471 0)
(1.17634 0.0378082 0)
(1.16971 0.0391361 0)
(1.15806 0.0407049 0)
(1.15351 0.0414379 0)
(1.13515 0.0431841 0)
(1.22807 -0.0636215 0)
(1.23164 -0.058984 0)
(1.23471 -0.0541462 0)
(1.23764 -0.0491067 0)
(1.2403 -0.0438724 0)
(1.24255 -0.0384775 0)
(1.24435 -0.0329656 0)
(1.24567 -0.0273809 0)
(1.24648 -0.0217689 0)
(1.24676 -0.016178 0)
(1.24649 -0.0106583 0)
(1.24565 -0.00526002 0)
(1.24422 -3.18717e-05 0)
(1.24222 0.00498049 0)
(1.23963 0.00973611 0)
(1.23648 0.0142004 0)
(1.23277 0.018347 0)
(1.22851 0.0221582 0)
(1.22375 0.0256286 0)
(1.21846 0.0287594 0)
(1.21274 0.0315715 0)
(1.20646 0.034079 0)
(1.19991 0.0363326 0)
(1.19253 0.0383444 0)
(1.18542 0.0401751 0)
(1.17647 0.0418588 0)
(1.16956 0.0433131 0)
(1.15759 0.0448728 0)
(1.1529 0.0457396 0)
(1.13423 0.0475473 0)
(1.2386 -0.0695214 0)
(1.24216 -0.064181 0)
(1.24512 -0.0586352 0)
(1.2479 -0.0528834 0)
(1.25037 -0.0469372 0)
(1.25237 -0.0408388 0)
(1.25383 -0.0346396 0)
(1.25475 -0.0283899 0)
(1.25511 -0.0221415 0)
(1.25488 -0.0159484 0)
(1.25405 -0.0098663 0)
(1.2526 -0.00394971 0)
(1.25053 0.0017492 0)
(1.24786 0.00718223 0)
(1.24458 0.0123073 0)
(1.24072 0.0170897 0)
(1.23631 0.0215048 0)
(1.23136 0.025537 0)
(1.22592 0.0291858 0)
(1.21999 0.0324545 0)
(1.21365 0.0353762 0)
(1.2068 0.0379568 0)
(1.19971 0.0402817 0)
(1.19186 0.0423146 0)
(1.18432 0.0442205 0)
(1.17501 0.0458704 0)
(1.16779 0.0474513 0)
(1.15554 0.0489234 0)
(1.1507 0.0499576 0)
(1.13184 0.0517441 0)
(1.24957 -0.0751594 0)
(1.25305 -0.0690493 0)
(1.25581 -0.0627352 0)
(1.25836 -0.0562176 0)
(1.26053 -0.0495143 0)
(1.26214 -0.0426766 0)
(1.26314 -0.0357632 0)
(1.26353 -0.0288305 0)
(1.26329 -0.0219361 0)
(1.2624 -0.0151402 0)
(1.26085 -0.00850308 0)
(1.25864 -0.00208346 0)
(1.25578 0.00406334 0)
(1.25228 0.00988745 0)
(1.24817 0.0153465 0)
(1.24347 0.0204066 0)
(1.23823 0.0250459 0)
(1.23248 0.0292518 0)
(1.22626 0.0330305 0)
(1.2196 0.0363872 0)
(1.21257 0.0393697 0)
(1.20509 0.0419734 0)
(1.19744 0.044326 0)
(1.1891 0.0463283 0)
(1.18112 0.0482793 0)