/*--------------------------------*- C++ -*----------------------------------*\
  =========                 |
  \\      /  F ield         | OpenFOAM: The Open Source CFD Toolbox
   \\    /   O peration     | Website:  https://openfoam.org
    \\  /    A nd           | Version:  7
     \\/     M anipulation  |
\*---------------------------------------------------------------------------*/
FoamFile
{
    version     2.0;
    format      ascii;
    class       volScalarField;
    location    "335";
    object      p;
}
// * * * * * * * * * * * * * * * * * * * * * * * * * * * * * * * * * * * * * //

dimensions      [0 2 -2 0 0 0 0];

internalField   nonuniform List<scalar> 
8500
(
-0.414494
-0.416201
-0.416798
-0.417729
-0.419563
-0.422594
-0.427006
-0.433052
-0.440888
-0.450912
-0.409846
-0.412257
-0.413079
-0.414078
-0.41578
-0.418399
-0.422037
-0.426835
-0.432751
-0.44008
-0.405355
-0.408426
-0.409456
-0.410506
-0.412052
-0.414224
-0.417031
-0.420491
-0.424332
-0.428704
-0.401179
-0.40485
-0.40607
-0.40716
-0.408539
-0.410249
-0.412198
-0.414271
-0.415943
-0.417187
-0.397469
-0.401666
-0.403059
-0.404184
-0.405396
-0.406646
-0.407734
-0.408408
-0.407882
-0.405899
-0.394365
-0.399001
-0.400549
-0.401705
-0.402759
-0.403567
-0.403814
-0.40311
-0.400411
-0.395149
-0.391989
-0.396965
-0.398647
-0.399834
-0.400744
-0.401141
-0.400586
-0.398549
-0.393753
-0.385168
-0.390434
-0.395644
-0.397437
-0.398656
-0.399443
-0.39947
-0.398167
-0.394864
-0.388089
-0.376108
-0.389766
-0.395094
-0.396973
-0.398224
-0.398915
-0.398624
-0.396643
-0.392154
-0.383567
-0.368047
-0.390015
-0.39534
-0.397276
-0.398561
-0.399184
-0.398636
-0.396059
-0.390476
-0.380301
-0.361003
-0.391173
-0.396371
-0.398332
-0.39965
-0.400232
-0.399492
-0.396415
-0.38983
-0.378357
-0.354921
-0.393197
-0.398143
-0.400092
-0.401433
-0.401998
-0.401127
-0.39765
-0.390151
-0.377738
-0.349578
-0.396011
-0.400583
-0.402474
-0.403817
-0.404373
-0.403419
-0.399636
-0.391303
-0.37844
-0.344653
-0.399506
-0.403593
-0.405369
-0.406677
-0.407209
-0.406186
-0.402161
-0.393032
-0.380343
-0.340701
-0.403561
-0.40706
-0.408653
-0.409865
-0.410328
-0.409207
-0.404952
-0.395002
-0.381947
-0.338896
-0.408046
-0.410869
-0.412198
-0.413229
-0.413548
-0.412254
-0.407751
-0.39766
-0.382873
-0.338206
-0.412835
-0.414911
-0.415887
-0.416624
-0.416704
-0.415126
-0.410232
-0.399934
-0.383441
-0.338166
-0.417822
-0.419098
-0.419625
-0.419933
-0.419686
-0.417663
-0.412222
-0.401601
-0.383097
-0.338151
-0.422929
-0.423368
-0.423357
-0.423167
-0.422339
-0.419782
-0.413648
-0.402613
-0.381538
-0.338197
-0.428115
-0.427691
-0.427057
-0.426229
-0.424725
-0.421485
-0.414534
-0.402908
-0.379214
-0.341636
-0.433376
-0.432073
-0.430737
-0.429162
-0.42688
-0.422831
-0.414957
-0.402415
-0.377186
-0.352273
-0.438746
-0.436551
-0.434448
-0.43204
-0.428886
-0.423912
-0.415019
-0.4013
-0.375994
-0.352502
-0.44429
-0.441186
-0.438268
-0.434964
-0.430859
-0.424841
-0.414808
-0.399763
-0.374429
-0.350058
-0.450095
-0.446057
-0.442292
-0.438046
-0.432916
-0.425729
-0.414408
-0.397921
-0.372283
-0.346711
-0.456258
-0.451251
-0.446619
-0.441397
-0.435163
-0.42667
-0.413889
-0.395821
-0.369625
-0.342703
-0.462873
-0.456853
-0.451343
-0.445113
-0.43768
-0.427722
-0.41329
-0.39349
-0.366477
-0.338417
-0.470025
-0.462938
-0.456543
-0.449264
-0.440513
-0.428909
-0.412611
-0.390932
-0.362924
-0.333891
-0.477774
-0.469563
-0.462272
-0.453884
-0.443669
-0.43021
-0.411814
-0.388133
-0.35902
-0.329172
-0.486152
-0.476759
-0.468557
-0.458973
-0.447121
-0.43156
-0.41084
-0.38507
-0.354806
-0.324244
-0.495156
-0.484534
-0.47539
-0.464494
-0.450796
-0.432858
-0.409611
-0.381714
-0.350293
-0.319084
-0.504752
-0.492863
-0.48273
-0.470375
-0.454578
-0.433973
-0.408044
-0.378022
-0.345472
-0.313651
-0.514865
-0.501686
-0.490499
-0.476505
-0.458312
-0.43476
-0.406051
-0.373948
-0.340313
-0.307899
-0.525384
-0.51091
-0.49858
-0.482728
-0.461807
-0.435071
-0.403542
-0.369432
-0.334772
-0.301777
-0.536157
-0.520401
-0.506818
-0.488849
-0.464854
-0.434754
-0.400425
-0.36441
-0.328791
-0.29523
-0.546996
-0.529985
-0.515016
-0.494628
-0.467235
-0.433664
-0.396606
-0.358811
-0.322307
-0.2882
-0.557672
-0.539448
-0.522937
-0.499799
-0.468732
-0.431659
-0.39199
-0.352557
-0.31525
-0.28063
-0.567921
-0.548539
-0.530305
-0.504077
-0.469131
-0.428602
-0.386482
-0.345568
-0.307551
-0.272463
-0.577448
-0.556972
-0.536811
-0.507171
-0.468233
-0.424365
-0.379987
-0.337765
-0.299138
-0.263648
-0.58593
-0.564433
-0.542125
-0.508799
-0.465848
-0.418825
-0.372414
-0.329069
-0.289943
-0.254137
-0.593025
-0.570589
-0.545905
-0.508692
-0.461805
-0.41187
-0.363676
-0.319403
-0.279904
-0.243892
-0.598384
-0.575092
-0.547816
-0.506604
-0.455951
-0.403395
-0.353688
-0.308698
-0.268967
-0.232883
-0.601657
-0.577594
-0.547537
-0.502314
-0.448152
-0.393309
-0.342377
-0.296888
-0.257088
-0.22109
-0.602503
-0.577753
-0.544778
-0.495635
-0.438293
-0.38153
-0.329674
-0.283915
-0.244224
-0.208495
-0.600603
-0.57525
-0.539284
-0.486411
-0.426286
-0.367996
-0.315524
-0.269727
-0.230325
-0.195024
-0.595666
-0.569793
-0.530845
-0.474526
-0.412063
-0.352659
-0.299891
-0.254292
-0.215333
-0.1805
-0.587439
-0.561133
-0.519296
-0.459897
-0.395583
-0.335493
-0.282754
-0.237597
-0.199237
-0.16474
-0.575714
-0.549072
-0.504517
-0.442478
-0.376829
-0.316481
-0.264089
-0.219634
-0.182099
-0.147893
-0.560332
-0.533464
-0.486434
-0.422258
-0.355804
-0.295614
-0.243876
-0.20043
-0.163908
-0.13054
-0.541188
-0.514221
-0.465025
-0.399261
-0.332533
-0.272896
-0.222162
-0.180146
-0.144571
-0.11257
-0.518235
-0.491308
-0.440312
-0.37355
-0.30707
-0.24839
-0.199208
-0.158573
-0.12424
-0.0938642
-0.491477
-0.464749
-0.412369
-0.345225
-0.279514
-0.222313
-0.174801
-0.135858
-0.103001
-0.0744202
-0.460976
-0.434632
-0.381356
-0.31438
-0.249951
-0.194628
-0.149094
-0.112082
-0.0809214
-0.0543001
-0.426844
-0.401116
-0.347511
-0.281034
-0.218494
-0.165432
-0.122185
-0.0873348
-0.0580774
-0.0336028
-0.389259
-0.36443
-0.310926
-0.245338
-0.185278
-0.134858
-0.0941873
-0.0617125
-0.0345555
-0.0124404
-0.348457
-0.324865
-0.271104
-0.207938
-0.150528
-0.103055
-0.0652255
-0.0353177
-0.0104421
0.00910009
-0.304656
-0.282629
-0.228762
-0.168721
-0.114439
-0.0701928
-0.0354367
-0.00825797
0.0141755
0.0309285
-0.258059
-0.237282
-0.185103
-0.12797
-0.0771924
-0.0364439
-0.0049581
0.019366
0.0391536
0.0527031
-0.209068
-0.189807
-0.139914
-0.0859727
-0.0389946
-0.00197926
0.0260933
0.0474698
0.0642073
0.0735837
-0.158172
-0.140477
-0.0933496
-0.0429977
-7.44082e-05
0.0330265
0.0576098
0.0759507
0.088993
0.0929708
-0.10564
-0.0897508
-0.0457137
0.00068185
0.0393289
0.0683847
0.0894304
0.104569
0.113411
0.112652
-0.0518901
-0.038037
0.00264
0.0447787
0.0789699
0.103885
0.1213
0.132918
0.137451
0.137658
0.0026374
0.014265
0.0513442
0.0889947
0.118598
0.139299
0.152949
0.160866
0.162023
0.162686
0.0574986
0.066749
0.10003
0.133025
0.157958
0.174397
0.184205
0.188485
0.186777
0.18634
0.112246
0.119003
0.148329
0.176564
0.196789
0.20895
0.214895
0.215654
0.211271
0.208965
0.166433
0.170614
0.19588
0.219306
0.234831
0.242736
0.244851
0.242194
0.235155
0.230563
0.219615
0.221173
0.242324
0.26095
0.271829
0.27554
0.273896
0.267925
0.258241
0.251173
0.271357
0.270278
0.287314
0.301203
0.307534
0.307151
0.30185
0.292671
0.280378
0.270759
0.321234
0.317538
0.330513
0.339779
0.341704
0.337365
0.328537
0.316275
0.301439
0.289265
0.368837
0.36258
0.371598
0.376405
0.374107
0.365984
0.353789
0.338588
0.321307
0.306621
0.413775
0.405045
0.410261
0.410822
0.404522
0.39282
0.377444
0.359472
0.33987
0.322752
0.45568
0.444597
0.446215
0.442785
0.432742
0.417696
0.399351
0.378797
0.357022
0.337585
0.494208
0.480922
0.479189
0.472067
0.458573
0.440448
0.41937
0.396445
0.372663
0.351051
0.529042
0.513734
0.508936
0.498458
0.481837
0.460922
0.437371
0.412304
0.386702
0.363086
0.559895
0.54277
0.535234
0.521769
0.502372
0.478983
0.453238
0.426274
0.399053
0.373632
0.586511
0.567799
0.557884
0.541832
0.520036
0.494508
0.466868
0.438266
0.409643
0.382638
0.608669
0.588621
0.576713
0.558501
0.534703
0.507391
0.478168
0.448202
0.418405
0.390059
0.626183
0.605067
0.591578
0.571653
0.54627
0.517542
0.487065
0.456017
0.425284
0.39586
0.638901
0.617001
0.60236
0.58119
0.554651
0.524891
0.493498
0.461658
0.430238
0.40002
0.646711
0.62432
0.608974
0.587037
0.559785
0.529384
0.497419
0.465086
0.433243
0.40254
0.649539
0.626958
0.611362
0.589147
0.561629
0.530986
0.4988
0.466275
0.434273
0.403367
0.647349
0.624883
0.609495
0.587495
0.560164
0.529679
0.497627
0.465212
0.433302
0.402503
0.640144
0.618096
0.603376
0.582083
0.555392
0.525466
0.493901
0.461899
0.430335
0.399928
0.627966
0.606636
0.593038
0.57294
0.547337
0.518367
0.48764
0.456352
0.425396
0.395681
0.610897
0.590576
0.578544
0.56012
0.536044
0.508422
0.478878
0.448602
0.41851
0.389782
0.589056
0.570024
0.559985
0.543699
0.521582
0.495688
0.467664
0.43869
0.409711
0.382248
0.5626
0.545121
0.537485
0.523782
0.504037
0.48024
0.454062
0.426672
0.399044
0.373105
0.531721
0.516042
0.511191
0.500496
0.483519
0.462172
0.438153
0.412619
0.386569
0.362392
0.496649
0.482993
0.481281
0.473991
0.460156
0.441594
0.420029
0.396609
0.372352
0.350154
0.457645
0.446212
0.447959
0.444439
0.434096
0.41863
0.399798
0.378737
0.356473
0.336444
0.415004
0.405965
0.411454
0.412035
0.405504
0.393423
0.377581
0.359106
0.339017
0.321323
0.369049
0.362546
0.372017
0.376992
0.374563
0.366127
0.35351
0.337828
0.32008
0.304858
0.320132
0.316276
0.329923
0.339543
0.34147
0.336912
0.327728
0.315027
0.299763
0.287118
0.268629
0.267496
0.285467
0.299937
0.306437
0.305958
0.30039
0.290835
0.278174
0.268179
0.214938
0.216572
0.238961
0.258439
0.269689
0.273457
0.271661
0.265392
0.255426
0.248113
0.159476
0.163886
0.190734
0.215326
0.231462
0.239611
0.241712
0.23885
0.231638
0.226988
0.102678
0.109834
0.141131
0.170889
0.192003
0.204626
0.210724
0.211373
0.206935
0.204852
0.044988
0.0548278
0.0905056
0.125427
0.151565
0.168717
0.17888
0.183141
0.181477
0.18173
-0.0131395
-0.000716339
0.0392224
0.0792468
0.110409
0.132105
0.146358
0.154342
0.155466
0.157567
-0.071246
-0.0563764
-0.0123471
0.0326606
0.0687995
0.0950136
0.113327
0.125157
0.129284
0.132388
-0.128872
-0.111732
-0.0638263
-0.0140188
0.0270031
0.0576793
0.0799619
0.0957089
0.103423
0.105887
-0.185559
-0.166367
-0.114835
-0.0604807
-0.0147187
0.0203386
0.0464375
0.0658971
0.0782123
0.0796029
-0.240849
-0.219873
-0.164995
-0.106421
-0.0561112
-0.016775
0.0130343
0.0358379
0.052613
0.0591111
-0.294308
-0.271815
-0.213943
-0.151548
-0.0969233
-0.0534463
-0.019977
0.00598132
0.0266487
0.039004
-0.345705
-0.321676
-0.261383
-0.19558
-0.136909
-0.0894834
-0.0524283
-0.0234023
0.000461269
0.0172918
-0.394468
-0.369207
-0.307196
-0.238239
-0.175833
-0.124709
-0.084215
-0.052213
-0.0255906
-0.00537313
-0.440191
-0.41335
-0.351607
-0.279216
-0.213487
-0.158952
-0.115224
-0.0803786
-0.0512212
-0.0280754
-0.482669
-0.454598
-0.393282
-0.318221
-0.249689
-0.192032
-0.145319
-0.107803
-0.0762877
-0.0504546
-0.521666
-0.492745
-0.43137
-0.355436
-0.284232
-0.223775
-0.174358
-0.134378
-0.100703
-0.0724238
-0.556926
-0.527474
-0.466505
-0.390113
-0.316856
-0.254027
-0.202212
-0.159998
-0.124383
-0.0938958
-0.588256
-0.55853
-0.498608
-0.422053
-0.347432
-0.282654
-0.228762
-0.184562
-0.147242
-0.114754
-0.615523
-0.585723
-0.527403
-0.451268
-0.375854
-0.309536
-0.253909
-0.207972
-0.169211
-0.134894
-0.638651
-0.608941
-0.552697
-0.477664
-0.402003
-0.33467
-0.277551
-0.230139
-0.190234
-0.154247
-0.65762
-0.628143
-0.574396
-0.501128
-0.42579
-0.357907
-0.29977
-0.250975
-0.210225
-0.172807
-0.672466
-0.643346
-0.59246
-0.521583
-0.447152
-0.379167
-0.32042
-0.270718
-0.228915
-0.190687
-0.683284
-0.654627
-0.606898
-0.53899
-0.466056
-0.398425
-0.339411
-0.289076
-0.24643
-0.208073
-0.690228
-0.66212
-0.617765
-0.553348
-0.482486
-0.415678
-0.356742
-0.306056
-0.262907
-0.224492
-0.693508
-0.66602
-0.625171
-0.564689
-0.496452
-0.430938
-0.372444
-0.321702
-0.27826
-0.23959
-0.693383
-0.666577
-0.629272
-0.573081
-0.507986
-0.444231
-0.386543
-0.336021
-0.292461
-0.253502
-0.690156
-0.664096
-0.630272
-0.578631
-0.517147
-0.4556
-0.399068
-0.349032
-0.305557
-0.266476
-0.684167
-0.658918
-0.628424
-0.581482
-0.524015
-0.465101
-0.41007
-0.360783
-0.317614
-0.278646
-0.675784
-0.651413
-0.624028
-0.581815
-0.528695
-0.472808
-0.419612
-0.371336
-0.328684
-0.29005
-0.66539
-0.641968
-0.61742
-0.579849
-0.531313
-0.478808
-0.427768
-0.380759
-0.338813
-0.300704
-0.653373
-0.630973
-0.608965
-0.575831
-0.532015
-0.483197
-0.434616
-0.389119
-0.348054
-0.310636
-0.640119
-0.618811
-0.599045
-0.570038
-0.530965
-0.486077
-0.440236
-0.39649
-0.35647
-0.319891
-0.625996
-0.605848
-0.588041
-0.562771
-0.528344
-0.487558
-0.444708
-0.402945
-0.364131
-0.328523
-0.61135
-0.59242
-0.576321
-0.554344
-0.524352
-0.487757
-0.448115
-0.408557
-0.371108
-0.336594
-0.596491
-0.578834
-0.564223
-0.545081
-0.519199
-0.486793
-0.450534
-0.413396
-0.377473
-0.344169
-0.581692
-0.565354
-0.552044
-0.535297
-0.513109
-0.484789
-0.452038
-0.417523
-0.383293
-0.351318
-0.567183
-0.5522
-0.540035
-0.525288
-0.506315
-0.481872
-0.452693
-0.420991
-0.38863
-0.358109
-0.553151
-0.539548
-0.5284
-0.515313
-0.49905
-0.478178
-0.452561
-0.423843
-0.393536
-0.364612
-0.539739
-0.527527
-0.517291
-0.505579
-0.491539
-0.473844
-0.4517
-0.426107
-0.398052
-0.370896
-0.527051
-0.516225
-0.506819
-0.49624
-0.483987
-0.469018
-0.450167
-0.427802
-0.402205
-0.377024
-0.515162
-0.505693
-0.497052
-0.487398
-0.476563
-0.463852
-0.448026
-0.428938
-0.406005
-0.383065
-0.504121
-0.495957
-0.488024
-0.479119
-0.469391
-0.458495
-0.445353
-0.42952
-0.409449
-0.389076
-0.493963
-0.487028
-0.479744
-0.471438
-0.462556
-0.453088
-0.442244
-0.429564
-0.412511
-0.395141
-0.484721
-0.47891
-0.472209
-0.464377
-0.456119
-0.447756
-0.43882
-0.429098
-0.415175
-0.4013
-0.47643
-0.47161
-0.46542
-0.457956
-0.450136
-0.442609
-0.435219
-0.428189
-0.41739
-0.40773
-0.469126
-0.465136
-0.459381
-0.452202
-0.444676
-0.43776
-0.431598
-0.426924
-0.419203
-0.41428
-0.46284
-0.459503
-0.45411
-0.447155
-0.439825
-0.43334
-0.428124
-0.425454
-0.420578
-0.421225
-0.457545
-0.454753
-0.449629
-0.442861
-0.435682
-0.429497
-0.424995
-0.423945
-0.421523
-0.427344
-0.453298
-0.450836
-0.445946
-0.43936
-0.432334
-0.426385
-0.422473
-0.422443
-0.423276
-0.424429
-0.450049
-0.447728
-0.443049
-0.43667
-0.429845
-0.424141
-0.420795
-0.421156
-0.425808
-0.424545
-0.447713
-0.445372
-0.440895
-0.434769
-0.428232
-0.422851
-0.420115
-0.420569
-0.428755
-0.426915
-0.446169
-0.443681
-0.439403
-0.433595
-0.427457
-0.422531
-0.420471
-0.421087
-0.431869
-0.42986
-0.445259
-0.442553
-0.438473
-0.433048
-0.427431
-0.423112
-0.4218
-0.422862
-0.435103
-0.433629
-0.444827
-0.441857
-0.437984
-0.433006
-0.428021
-0.424457
-0.423963
-0.42581
-0.438587
-0.438733
-0.444704
-0.441462
-0.437812
-0.433335
-0.429074
-0.426383
-0.426778
-0.429666
-0.442486
-0.445147
-0.444722
-0.44124
-0.437835
-0.433897
-0.430424
-0.428685
-0.430022
-0.434088
-0.446842
-0.452394
-0.444726
-0.44107
-0.437932
-0.434561
-0.431906
-0.431149
-0.433452
-0.438722
-0.451511
-0.459879
-0.444576
-0.440838
-0.437993
-0.435198
-0.433358
-0.433568
-0.436819
-0.443235
-0.456202
-0.467062
-0.444151
-0.44044
-0.437911
-0.435685
-0.434628
-0.435744
-0.439879
-0.447324
-0.460567
-0.47352
-0.443349
-0.439784
-0.43759
-0.43591
-0.435576
-0.437501
-0.442417
-0.450727
-0.46427
-0.478919
-0.44209
-0.438792
-0.436944
-0.435773
-0.436078
-0.438691
-0.444248
-0.45323
-0.467021
-0.482972
-0.440316
-0.437401
-0.435904
-0.435193
-0.436039
-0.439196
-0.445231
-0.454667
-0.468586
-0.485437
-0.437998
-0.43557
-0.43442
-0.434113
-0.435391
-0.438941
-0.445273
-0.454928
-0.468798
-0.486114
-0.435132
-0.433281
-0.432469
-0.432504
-0.434104
-0.437893
-0.444332
-0.453962
-0.467555
-0.484853
-0.431744
-0.430542
-0.430053
-0.430366
-0.432184
-0.436062
-0.44242
-0.451778
-0.464825
-0.481549
-0.42789
-0.42739
-0.427208
-0.427733
-0.429673
-0.433503
-0.439599
-0.448447
-0.460635
-0.476215
-0.423651
-0.42389
-0.42398
-0.424686
-0.426655
-0.430313
-0.435983
-0.444089
-0.455095
-0.469334
-0.419144
-0.420121
-0.420474
-0.421311
-0.423239
-0.426624
-0.431723
-0.438885
-0.448431
-0.460792
-0.473221
-0.506124
-0.539187
-0.541856
-0.494157
-0.405221
-0.317995
-0.261823
-0.250396
-0.268347
-0.272742
-0.230647
-0.174075
-0.127871
-0.10487
-0.0978721
-0.105849
-0.121161
-0.113094
-0.0927411
-0.0852982
-0.0722246
-0.0484576
-0.0567596
-0.0661291
-0.0691205
-0.052429
-0.0453619
-0.0136482
-0.0172171
-0.457745
-0.484252
-0.511701
-0.511723
-0.467624
-0.387147
-0.309223
-0.26276
-0.261021
-0.28554
-0.290022
-0.242215
-0.180866
-0.12986
-0.10369
-0.0941044
-0.0994804
-0.113345
-0.106082
-0.0899731
-0.0843492
-0.0720191
-0.0489895
-0.0577333
-0.0672818
-0.0697818
-0.0523436
-0.0451106
-0.0141855
-0.0172485
-0.441673
-0.461059
-0.482254
-0.479185
-0.438535
-0.366724
-0.298205
-0.262054
-0.270472
-0.301861
-0.305815
-0.25272
-0.186915
-0.131578
-0.102412
-0.0904299
-0.093305
-0.105694
-0.0990548
-0.0871185
-0.0833033
-0.0718211
-0.0495731
-0.0587197
-0.0684421
-0.070402
-0.0522202
-0.0448766
-0.0147824
-0.0172981
-0.425602
-0.437252
-0.451529
-0.444816
-0.407132
-0.343989
-0.284844
-0.259491
-0.278514
-0.316875
-0.320044
-0.262119
-0.192233
-0.133052
-0.101076
-0.0868979
-0.0873948
-0.0982896
-0.092079
-0.0841862
-0.0821628
-0.0716368
-0.0502096
-0.059713
-0.0696009
-0.0709775
-0.0520584
-0.0446603
-0.0154359
-0.0173657
-0.410079
-0.413517
-0.420254
-0.409318
-0.373944
-0.318911
-0.26914
-0.254907
-0.284928
-0.330174
-0.332568
-0.27038
-0.196836
-0.134307
-0.099718
-0.0835487
-0.0818119
-0.0912056
-0.0852231
-0.081188
-0.0809314
-0.0714712
-0.0508991
-0.0607076
-0.0707491
-0.0715051
-0.0518577
-0.0444611
-0.0161422
-0.0174508
-0.395532
-0.390464
-0.389216
-0.373535
-0.339441
-0.291857
-0.251188
-0.248215
-0.289509
-0.341414
-0.343265
-0.277478
-0.200749
-0.135369
-0.0983711
-0.0804129
-0.0766061
-0.0845068
-0.0785591
-0.0781377
-0.0796139
-0.071328
-0.0516407
-0.0616979
-0.0718769
-0.0719818
-0.0516173
-0.0442779
-0.0168974
-0.0175528
-0.382323
-0.368683
-0.359179
-0.338495
-0.304292
-0.263322
-0.231229
-0.239439
-0.292079
-0.350335
-0.352038
-0.283402
-0.204
-0.136261
-0.0970628
-0.077512
-0.0718136
-0.0782476
-0.0721586
-0.075053
-0.0782165
-0.0712097
-0.0524325
-0.0626785
-0.0729705
-0.0724046
-0.0513369
-0.0441091
-0.0176966
-0.0176706
-0.370732
-0.348676
-0.330808
-0.305983
-0.26932
-0.233931
-0.209673
-0.228719
-0.292501
-0.356764
-0.358819
-0.288154
-0.206624
-0.137004
-0.0958167
-0.0748588
-0.0674559
-0.0724717
-0.0660949
-0.0719546
-0.0767468
-0.0711173
-0.0532714
-0.0636439
-0.0740151
-0.0727706
-0.0510161
-0.0439522
-0.0185347
-0.0178027
-0.360939
-0.330828
-0.304608
-0.273174
-0.235379
-0.204443
-0.187092
-0.216312
-0.2907
-0.360616
-0.36358
-0.291744
-0.208655
-0.137616
-0.094652
-0.0724579
-0.0635398
-0.0672101
-0.0604455
-0.0688677
-0.0752134
-0.0710506
-0.0541533
-0.064589
-0.0750277
-0.0730772
-0.0506545
-0.0438046
-0.0194055
-0.0179473
-0.35303
-0.315409
-0.281176
-0.242447
-0.203429
-0.175697
-0.16417
-0.202559
-0.286682
-0.361888
-0.366327
-0.294197
-0.21013
-0.138112
-0.0935832
-0.0703076
-0.0600576
-0.0624797
-0.0552383
-0.0658217
-0.0736263
-0.0710081
-0.0550731
-0.0655085
-0.0759882
-0.0733215
-0.050252
-0.0436632
-0.0203024
-0.0181021
-0.347013
-0.302589
-0.260988
-0.215687
-0.174144
-0.148586
-0.141644
-0.187862
-0.280546
-0.360643
-0.3671
-0.295543
-0.211086
-0.138504
-0.0926218
-0.0684012
-0.0569893
-0.0582845
-0.050539
-0.0628488
-0.0719962
-0.0709874
-0.0560249
-0.0663969
-0.0768877
-0.0735008
-0.0498088
-0.0435247
-0.0212183
-0.0182643
-0.342855
-0.29244
-0.244256
-0.192994
-0.147853
-0.123927
-0.120252
-0.172643
-0.27247
-0.357011
-0.365978
-0.295821
-0.211564
-0.138806
-0.0917786
-0.06673
-0.0543056
-0.054615
-0.0463805
-0.0599815
-0.0703341
-0.0709851
-0.0570018
-0.0672493
-0.0777188
-0.0736122
-0.0493249
-0.0433857
-0.0221452
-0.0184307
-0.340479
-0.284888
-0.230986
-0.174167
-0.126035
-0.101941
-0.100635
-0.157312
-0.262702
-0.351183
-0.363072
-0.295077
-0.211606
-0.139034
-0.0910646
-0.0652839
-0.0519702
-0.051447
-0.0427783
-0.0572524
-0.0686513
-0.0709966
-0.0579967
-0.0680604
-0.0784747
-0.0736527
-0.0488007
-0.0432418
-0.0230753
-0.0185977
-0.339201
-0.279605
-0.22101
-0.158918
-0.108453
-0.0834247
-0.0832252
-0.142244
-0.251533
-0.343404
-0.35852
-0.293361
-0.211252
-0.139189
-0.0904773
-0.0640435
-0.0499393
-0.0487387
-0.0397315
-0.0546913
-0.0669591
-0.0710168
-0.0590017
-0.0688252
-0.0791497
-0.0736196
-0.0482368
-0.043088
-0.0239997
-0.0187613
-0.338393
-0.276806
-0.214014
-0.147875
-0.0947613
-0.0685709
-0.0682946
-0.127764
-0.239286
-0.333947
-0.352463
-0.290714
-0.210498
-0.139223
-0.0899805
-0.0629716
-0.0481626
-0.0464304
-0.037216
-0.0523221
-0.0652676
-0.0710392
-0.0600089
-0.0695389
-0.0797402
-0.0735111
-0.0476338
-0.0429188
-0.0249089
-0.0189172
-0.338243
-0.276153
-0.21022
-0.140142
-0.085107
-0.0572272
-0.0559804
-0.114138
-0.22629
-0.323082
-0.345074
-0.287193
-0.209325
-0.139095
-0.0895446
-0.062044
-0.046604
-0.0444653
-0.0351877
-0.0501567
-0.0635856
-0.0710567
-0.0610104
-0.070197
-0.0802446
-0.0733259
-0.0469922
-0.0427335
-0.0257936
-0.0190608
-0.338339
-0.276761
-0.208915
-0.13607
-0.0784853
-0.0492305
-0.0462849
-0.101573
-0.212878
-0.31109
-0.336568
-0.282958
-0.207912
-0.139016
-0.0893149
-0.0613492
-0.0452822
-0.0428294
-0.0336327
-0.0481992
-0.0619178
-0.0710603
-0.0619981
-0.0707938
-0.0806507
-0.0730574
-0.0463113
-0.0425401
-0.026651
-0.0191876
-0.338273
-0.278204
-0.209675
-0.135148
-0.0826938
-0.0444764
-0.0390933
-0.0901839
-0.199329
-0.29826
-0.326919
-0.278266
-0.206763
-0.139484
-0.0896252
-0.0610724
-0.0442422
-0.0415165
-0.0326303
-0.0464998
-0.0602742
-0.0710391
-0.0629597
-0.0713092
-0.0809147
-0.0726873
-0.0455928
-0.0423433
-0.0274843
-0.0192953
-0.338433
-0.280802
-0.21294
-0.137421
-0.0793198
-0.0428654
-0.0344539
-0.0799139
-0.185369
-0.284235
-0.31558
-0.272797
-0.205584
-0.14006
-0.090143
-0.060958
-0.0433106
-0.0402925
-0.0320953
-0.0451395
-0.0587038
-0.0709821
-0.06387
-0.0717147
-0.0810277
-0.072218
-0.0448471
-0.0421064
-0.0282611
-0.0193801
-0.337481
-0.281974
-0.216109
-0.141461
-0.0823034
-0.0441112
-0.0327807
-0.0723104
-0.172354
-0.269894
-0.303828
-0.26498
-0.20132
-0.137658
-0.0886798
-0.0596451
-0.0418985
-0.0385488
-0.0311032
-0.0435631
-0.0569986
-0.0708893
-0.0648346
-0.0722305
-0.0813496
-0.0717616
-0.0440828
-0.0417252
-0.028855
-0.0194186
-0.321684
-0.273999
-0.209767
-0.136048
-0.0765249
-0.0419176
-0.0307002
-0.067724
-0.166774
-0.264082
-0.295086
-0.254588
-0.192429
-0.131049
-0.0841698
-0.0563998
-0.0396925
-0.0358025
-0.0279746
-0.0391867
-0.0526296
-0.0703279
-0.0673143
-0.0739085
-0.0828438
-0.071472
-0.0431169
-0.0410392
-0.0293288
-0.0193986
-0.303824
-0.260073
-0.199536
-0.13136
-0.0768478
-0.0457551
-0.0359051
-0.0698828
-0.160754
-0.249158
-0.27594
-0.237195
-0.179503
-0.122893
-0.0795194
-0.0533071
-0.0373669
-0.033236
-0.0268754
-0.0383864
-0.049983
-0.0705053
-0.0694741
-0.0744814
-0.0826233
-0.070364
-0.0414538
-0.0400154
-0.0303602
-0.0196528
-0.286527
-0.246093
-0.190075
-0.128653
-0.0794115
-0.0518843
-0.0441874
-0.0753031
-0.155477
-0.232717
-0.254868
-0.219223
-0.166748
-0.114955
-0.0748445
-0.0501745
-0.0350259
-0.0307474
-0.0260386
-0.0381884
-0.0483764
-0.0710052
-0.0711824
-0.0744898
-0.0819131
-0.0689269
-0.0396084
-0.0388515
-0.03142
-0.0199627
-0.269941
-0.232742
-0.181767
-0.127437
-0.0836877
-0.0593161
-0.0532198
-0.0805281
-0.149259
-0.214715
-0.232661
-0.200786
-0.153831
-0.106854
-0.0700413
-0.0469978
-0.0326235
-0.0282613
-0.0252523
-0.0377356
-0.0466479
-0.0713526
-0.0729128
-0.0744087
-0.080876
-0.0671174
-0.037555
-0.0375044
-0.0324075
-0.0202461
-0.252762
-0.219761
-0.174114
-0.126883
-0.0885095
-0.066921
-0.0618736
-0.0846471
-0.141599
-0.195549
-0.210007
-0.182355
-0.141056
-0.098772
-0.0651513
-0.0437614
-0.0301256
-0.0256983
-0.0244581
-0.0371083
-0.0446023
-0.0714557
-0.0747694
-0.0741809
-0.0793469
-0.0648688
-0.0352695
-0.0359518
-0.0332936
-0.0204975
-0.235245
-0.20698
-0.166752
-0.126108
-0.0928983
-0.0737747
-0.0693278
-0.0873334
-0.13287
-0.176282
-0.187871
-0.16448
-0.128634
-0.0907886
-0.0601985
-0.0404523
-0.0274967
-0.0229973
-0.0235543
-0.0363228
-0.0423197
-0.0712705
-0.0765726
-0.0736373
-0.0772094
-0.0621293
-0.0327286
-0.0341636
-0.0340295
-0.0207039
-0.217853
-0.194397
-0.159485
-0.124795
-0.0962835
-0.0793376
-0.0751164
-0.0885723
-0.123757
-0.157891
-0.167062
-0.14757
-0.116729
-0.0829895
-0.0552164
-0.0370569
-0.0247
-0.0200867
-0.0224145
-0.0352674
-0.0397943
-0.0705898
-0.0780873
-0.0726714
-0.0743863
-0.058847
-0.0299085
-0.0321046
-0.0345503
-0.0208329
-0.200897
-0.181994
-0.152163
-0.122719
-0.0983885
-0.0833899
-0.0791516
-0.0885936
-0.114884
-0.141041
-0.148081
-0.131883
-0.10545
-0.0754332
-0.0502345
-0.0335594
-0.0216981
-0.0168869
-0.0208786
-0.033747
-0.036878
-0.0690765
-0.0790947
-0.0711884
-0.0708063
-0.0549725
-0.0267865
-0.0297319
-0.0347797
-0.0208406
-0.184549
-0.169775
-0.144685
-0.119829
-0.099168
-0.0859295
-0.0815679
-0.0876642
-0.106619
-0.126054
-0.131118
-0.117528
-0.0948578
-0.0681602
-0.0452818
-0.0299446
-0.018456
-0.0133159
-0.018736
-0.0314797
-0.033314
-0.0663512
-0.0793466
-0.0690681
-0.0664114
-0.0504647
-0.0233431
-0.0269953
-0.0346291
-0.020675
-0.16895
-0.157779
-0.137015
-0.116168
-0.0986978
-0.0870565
-0.0825689
-0.0859885
-0.0990746
-0.112933
-0.116136
-0.10451
-0.0849777
-0.0611965
-0.0403861
-0.0262011
-0.0149444
-0.00929888
-0.015719
-0.0280798
-0.0287685
-0.0620168
-0.0785402
-0.0661763
-0.0611717
-0.0452975
-0.0195641
-0.0238372
-0.0339985
-0.0202765
-0.154169
-0.146049
-0.129156
-0.111813
-0.0971073
-0.0869144
-0.0823568
-0.0837026
-0.0921901
-0.101491
-0.102974
-0.0927696
-0.0758109
-0.054559
-0.0355734
-0.0223266
-0.0111478
-0.00478309
-0.0115136
-0.0230619
-0.0228356
-0.0556769
-0.0763319
-0.0623867
-0.0550966
-0.0394683
-0.0154432
-0.0201954
-0.0327773
-0.0195785
-0.140219
-0.134632
-0.12114
-0.106855
-0.0945439
-0.0856619
-0.0811127
-0.0809042
-0.0858449
-0.091487
-0.0914262
-0.0822156
-0.0673422
-0.0482596
-0.030868
-0.0183335
-0.00707583
0.000243738
-0.00580489
-0.0159002
-0.0150466
-0.0470143
-0.0723795
-0.0575946
-0.048246
-0.0330069
-0.0109861
-0.0160069
-0.0308495
-0.0185106
-0.127095
-0.123575
-0.113022
-0.101396
-0.091158
-0.0834576
-0.0789996
-0.0776538
-0.0799179
-0.0826789
-0.0812801
-0.0727463
-0.0595451
-0.0423074
-0.0262935
-0.0142542
-0.00277287
0.00573275
0.00163564
-0.00612891
-0.00494434
-0.0359291
-0.0664182
-0.0517084
-0.0407294
-0.0259849
-0.00621418
-0.0112135
-0.0281038
-0.0170041
-0.114791
-0.112926
-0.10487
-0.0955424
-0.0870982
-0.0804607
-0.0761647
-0.0740262
-0.0743108
-0.0748547
-0.0723387
-0.0642587
-0.0523867
-0.0367111
-0.0218751
-0.0101473
0.00167896
0.0115528
0.0108122
0.00648064
0.00772626
-0.0226918
-0.0583561
-0.0447643
-0.032702
-0.018522
-0.00116956
-0.00576991
-0.0244403
-0.0150027
-0.103291
-0.102724
-0.0967617
-0.0894042
-0.082509
-0.0768306
-0.0727513
-0.0700904
-0.0689536
-0.0678385
-0.0644268
-0.0566544
-0.0458312
-0.0314801
-0.0176385
-0.0060976
0.00615838
0.0174761
0.0212771
0.0215124
0.0226459
-0.00807522
-0.0483079
-0.03684
-0.0243647
-0.0107881
0.00408338
0.000333622
-0.0197643
-0.0124724
-0.0925777
-0.0930086
-0.0887746
-0.0830908
-0.0775291
-0.072712
-0.0688963
-0.0659247
-0.063804
-0.0614891
-0.0573921
-0.0498415
-0.0398435
-0.0266248
-0.0136124
-0.00219943
0.0105031
0.0231841
0.0319717
0.0372071
0.0383351
0.00666427
-0.0365204
-0.0281138
-0.015939
-0.00299435
0.00945804
0.00704513
-0.01406
-0.00938094
-0.0826355
-0.0838105
-0.0809836
-0.0767082
-0.0722886
-0.06824
-0.0647219
-0.0616082
-0.0588406
-0.0556965
-0.0511054
-0.0437366
-0.0343914
-0.0221524
-0.00983174
0.00146557
0.0145258
0.0283402
0.0414165
0.0507806
0.0521878
0.0201815
-0.0233374
-0.018832
-0.00765754
0.00462218
0.0148414
0.0142392
-0.0074072
-0.00578861
-0.0734459
-0.0751562
-0.0734581
-0.0703556
-0.0669079
-0.0635423
-0.0603429
-0.0572149
-0.0540577
-0.0503772
-0.0454603
-0.0382648
-0.0294463
-0.0180639
-0.00633851
0.00482886
0.0180551
0.032644
0.0484146
0.0602324
0.0619647
0.0315635
-0.00942718
-0.0093606
0.000233605
0.0118212
0.0200746
0.0217135
-1.38155e-05
-0.00183798
-0.0649901
-0.0670667
-0.0662606
-0.0641242
-0.0614985
-0.0587346
-0.055864
-0.0528145
-0.049461
-0.0454706
-0.0403714
-0.0333608
-0.0249827
-0.0143551
-0.00317403
0.00782878
0.020958
0.0358511
0.0524583
0.0649088
0.0670497
0.0403933
0.00398866
-0.000170355
0.00750778
0.0183912
0.0249661
0.0291412
0.00776241
0.00223796
-0.0572491
-0.059558
-0.0594452
-0.058096
-0.0561617
-0.0539193
-0.0513801
-0.048473
-0.0450648
-0.0409354
-0.0357727
-0.0289684
-0.0209769
-0.0110194
-0.000369107
0.0104174
0.0231733
0.0378701
0.053909
0.0658879
0.0683588
0.0465515
0.0156514
0.00831708
0.0140085
0.0241739
0.0293356
0.0360191
0.0154008
0.00612793
-0.0502049
-0.0526422
-0.0530591
-0.0523439
-0.0509891
-0.0492242
-0.0469801
-0.0442525
-0.0408895
-0.0367465
-0.031615
-0.0250411
-0.0174062
-0.00804936
0.0020637
0.0125675
0.0247245
0.0387801
0.0535631
0.0645273
0.0672195
0.0502086
0.0248527
0.0158308
0.0196686
0.0290795
0.0330539
0.0417145
0.0222649
0.0095003
-0.0438405
-0.0463281
-0.0471416
-0.0469303
-0.0460516
-0.0446781
-0.0427339
-0.0402098
-0.0369602
-0.0328915
-0.0278637
-0.0215412
-0.0142481
-0.00543687
0.004131
0.0142772
0.0256973
0.0387828
0.0517214
0.0618524
0.0647192
0.0518842
0.0316007
0.0222214
0.0244901
0.0330725
0.0360735
0.0456564
0.0277995
0.0120873
-0.0381417
-0.0406234
-0.041727
-0.0419113
-0.0414218
-0.040383
-0.038712
-0.036399
-0.0333048
-0.029369
-0.0244959
-0.0184401
-0.01148
-0.00317144
0.00585443
0.0155729
0.0262061
0.0381881
0.049657
0.0586239
0.0616027
0.0521987
0.0362976
0.0271351
0.028514
0.0361597
0.038399
0.047526
0.0317032
0.0137917
-0.0330979
-0.0355359
-0.0368462
-0.0373367
-0.0371621
-0.0364052
-0.0349788
-0.032872
-0.0299545
-0.0261857
-0.0214989
-0.0157172
-0.00908037
-0.00123857
0.00726442
0.0165041
0.0263646