/*--------------------------------*- C++ -*----------------------------------*\
  =========                 |
  \\      /  F ield         | OpenFOAM: The Open Source CFD Toolbox
   \\    /   O peration     | Website:  https://openfoam.org
    \\  /    A nd           | Version:  7
     \\/     M anipulation  |
\*---------------------------------------------------------------------------*/
FoamFile
{
    version     2.0;
    format      ascii;
    class       surfaceScalarField;
    location    "335";
    object      phi;
}
// * * * * * * * * * * * * * * * * * * * * * * * * * * * * * * * * * * * * * //

dimensions      [0 3 -1 0 0 0 0];

internalField   nonuniform List<scalar> 
16735
(
-6.44517e-05
-0.00208663
0.00215108
-0.000268596
-0.00539017
0.00559431
-0.000620309
-0.00808064
0.00843235
-0.00110626
-0.0101641
0.01065
-0.00169733
-0.0118021
0.0123931
-0.00235871
-0.0132351
0.0138964
-0.00305975
-0.0146738
0.0153748
-0.00377955
-0.0162181
0.0169379
-0.00450586
-0.0178249
0.0185513
-0.0192795
0.0200072
-0.0052335
-9.69314e-05
-0.00198969
-0.000371081
-0.00511602
-0.000814284
-0.00763744
-0.00140324
-0.00957514
-0.00210553
-0.0110998
-0.00288921
-0.0124514
-0.0037312
-0.0138318
-0.00462194
-0.0153274
-0.00556349
-0.0168834
-0.0182765
-0.0065665
-0.000127853
-0.00186184
-0.000466794
-0.00477708
-0.000992399
-0.00711183
-0.00167149
-0.00889605
-0.00246808
-0.0103032
-0.00335166
-0.0115678
-0.0043038
-0.0128796
-0.00532229
-0.0143089
-0.00641976
-0.0157859
-0.0170775
-0.00761875
-0.000156265
-0.00170558
-0.000553188
-0.00438015
-0.00115055
-0.00651447
-0.00190569
-0.00814091
-0.0027787
-0.00943016
-0.00373877
-0.0106077
-0.00476862
-0.0118498
-0.00586843
-0.0132091
-0.00705633
-0.014598
-0.0157714
-0.00836248
-0.000181296
-0.00152428
-0.000627992
-0.00393346
-0.00128519
-0.00585727
-0.00210138
-0.00732472
-0.00303246
-0.00849909
-0.00404552
-0.00959468
-0.00512075
-0.0107745
-0.00625504
-0.0120748
-0.00746581
-0.0133873
-0.0144516
-0.0087856
-0.000202155
-0.00132213
-0.000689187
-0.00344642
-0.00139319
-0.00515327
-0.0022547
-0.00646322
-0.00322523
-0.00752855
-0.00426826
-0.00855165
-0.00535791
-0.00968489
-0.00648194
-0.0109508
-0.00764977
-0.0122194
-0.0132117
-0.00888966
-0.000218139
-0.00110399
-0.000734978
-0.00292959
-0.0014717
-0.00441654
-0.00236198
-0.00557294
-0.00335297
-0.00653756
-0.00440337
-0.00750125
-0.00547839
-0.00860988
-0.006551
-0.00987816
-0.00761485
-0.0111556
-0.0121427
-0.00868386
-0.000228645
-0.000875341
-0.000763789
-0.00239444
-0.00151811
-0.00366222
-0.00241956
-0.00467149
-0.0034111
-0.00554602
-0.00444595
-0.0064664
-0.00547848
-0.00757735
-0.0064622
-0.00889444
-0.00736732
-0.0102505
-0.011331
-0.00817896
-0.000233191
-0.000642149
-0.000774307
-0.00185333
-0.00153003
-0.00290649
-0.00242367
-0.00377785
-0.0033941
-0.0045756
-0.00438875
-0.00547174
-0.00535027
-0.00661583
-0.00620943
-0.00803528
-0.00690671
-0.00955318
-0.0108575
-0.00738025
-0.000231462
-0.000410687
-0.000765593
-0.0013192
-0.00150549
-0.00216659
-0.00237065
-0.0029127
-0.0032957
-0.00365054
-0.00422199
-0.00454545
-0.00508043
-0.00575738
-0.00577754
-0.00733818
-0.00622017
-0.00911055
-0.0107957
-0.00628199
-0.000223369
-0.000187318
-0.000737246
-0.000805318
-0.00144326
-0.00146057
-0.00225748
-0.00209848
-0.00310966
-0.00279837
-0.00393427
-0.00372084
-0.00465094
-0.00504071
-0.00514223
-0.00684688
-0.00528008
-0.0089727
-0.0112088
-0.00486694
-0.000209122
2.18033e-05
-0.000689608
-0.000324832
-0.00134328
-0.000806904
-0.00208265
-0.0013591
-0.00283123
-0.00204979
-0.00351498
-0.00303709
-0.0040422
-0.00451349
-0.00427351
-0.00661558
-0.00404634
-0.00919986
-0.0121397
-0.00311542
-0.000189342
0.000211145
-0.000623929
0.000109755
-0.00120706
-0.000223773
-0.00184703
-0.000719132
-0.00245903
-0.00143779
-0.0029577
-0.00253841
-0.00323882
-0.00423237
-0.00314235
-0.00671206
-0.00246639
-0.00987582
-0.0135644
-0.00104174
-0.000164785
0.00037593
-0.000542465
0.000487435
-0.001038
0.000271764
-0.00155454
-0.00020259
-0.00199654
-0.000995799
-0.0022638
-0.00227115
-0.00223774
-0.00425843
-0.00173853
-0.00721127
-0.000429091
-0.0111853
-0.0155159
0.00152246
-0.000136765
0.000512695
-0.000448354
0.000799025
-0.00084132
0.00066473
-0.00121233
0.000168421
-0.00145267
-0.000755463
-0.00144355
-0.00228026
-0.0010502
-0.00465179
-0.000126779
-0.00813469
0.00180096
-0.013113
-0.0182577
0.00454269
-0.000106724
0.000619419
-0.000345494
0.00103779
-0.000623621
0.000942857
-0.000830078
0.000374879
-0.000840718
-0.000744823
-0.000515242
-0.00260574
0.000308576
-0.0054756
0.00181176
-0.00963787
0.00434218
-0.0156434
-0.0217019
0.00778637
-7.61651e-05
0.000695584
-0.000238012
0.00119964
-0.000392242
0.00109709
-0.00041864
0.000401277
-0.000176782
-0.000986682
0.000498303
-0.00328082
0.00179123
-0.00676853
0.00388996
-0.0117366
0.00709978
-0.0188532
-0.0257171
0.011115
-4.64709e-05
0.000742054
-0.000129757
0.00128293
-0.000154093
0.00112142
9.85571e-06
0.000237328
0.000525052
-0.00150188
0.00157545
-0.00433122
0.00336764
-0.00856072
0.00608819
-0.0144572
0.00993789
-0.0227029
-0.0301453
0.0143661
-1.87179e-05
0.000760772
-2.37328e-05
0.00128794
8.57413e-05
0.00101195
0.000452384
-0.000129314
0.00125354
-0.00230304
0.00269926
-0.00577694
0.00500805
-0.0108695
0.00836311
-0.0178122
0.0127387
-0.0270786
-0.0348081
0.0174016
6.46423e-06
0.000754308
7.80334e-05
0.00121637
0.000323883
0.0007661
0.000899583
-0.000705015
0.00200237
-0.00340582
0.00386033
-0.0076349
0.00669082
-0.0137
0.0106528
-0.0217742
0.0154206
-0.0318464
-0.0395526
0.0201651
2.89543e-05
0.000725354
0.000175377
0.00106995
0.000559672
0.000381804
0.00135292
-0.00149827
0.00277103
-0.00482393
0.00505338
-0.00991726
0.00839341
-0.01704
0.0128611
-0.0262419
0.0179209
-0.0369062
-0.0465187
0.024887
4.92238e-05
0.00067613
0.000269377
0.000849797
0.000795453
-0.000144271
0.00181577
-0.00251859
0.00356245
-0.00657061
0.00627307
-0.0126279
0.0100871
-0.0208541
0.0149261
-0.0310809
0.0202838
-0.0422639
-0.0528215
0.0265867
6.8182e-05
0.000607948
0.000362534
0.000555445
0.00103563
-0.000817367
0.00229392
-0.00377688
0.00438017
-0.00865685
0.00750902
-0.0157567
0.0117285
-0.0250736
0.0167851
-0.0361375
0.0221595
-0.0476383
-0.0583957
0.0277336
8.70663e-05
0.000520882
0.000458202
0.00018431
0.00128577
-0.00164494
0.00279354
-0.00528465
0.00522451
-0.0110878
0.00874135
-0.0192736
0.0132625
-0.0295947
0.0183713
-0.0412464
0.023511
-0.0527779
-0.0633242
0.0284395
0.000107235
0.000413647
0.000559978
-0.000268434
0.00155133
-0.00263629
0.00331875
-0.00705206
0.00608894
-0.013858
0.00993813
-0.0231227
0.0146303
-0.0342868
0.0196239
-0.0462399
0.024383
-0.057537
-0.0676129
0.0286718
0.00012996
0.000283687
0.000671062
-0.000809536
0.00183631
-0.00380154
0.00386938
-0.00908513
0.00695766
-0.0169463
0.0110574
-0.0272225
0.0157777
-0.0390072
0.0205141
-0.0509763
0.0248031
-0.0618261
-0.0712959
0.028486
0.000156252
0.000127435
0.000793699
-0.00144698
0.00214215
-0.00514999
0.00443944
-0.0113824
0.0078057
-0.0203126
0.0120535
-0.0314703
0.0166647
-0.0436184
0.0210393
-0.0553509
0.0248245
-0.0656113
-0.074432
0.0279606
0.00018674
-5.93047e-05
0.000928803
-0.00218905
0.00246704
-0.00668822
0.00501672
-0.0139321
0.00860166
-0.0238975
0.0128849
-0.0357535
0.0172705
-0.048004
0.0212201
-0.0593005
0.0245067
-0.0688978
-0.0770869
0.0271616
0.000221627
-0.000280932
0.00107581
-0.00304323
0.00280583
-0.00841824
0.00558359
-0.0167099
0.00931228
-0.0276262
0.0135212
-0.0399625
0.0175941
-0.0520769
0.0210925
-0.0627989
0.0239105
-0.0717159
-0.0793294
0.026153
0.000260719
-0.000541651
0.00123275
-0.00401526
0.00315031
-0.0103358
0.00611902
-0.0196786
0.00990756
-0.0314147
0.0139459
-0.0440008
0.0176504
-0.0557813
0.0206995
-0.065848
0.0230929
-0.0741094
-0.0812223
0.0249858
0.000303481
-0.000845132
0.00139643
-0.00510821
0.00348999
-0.0124294
0.00660114
-0.0227897
0.0103647
-0.0351783
0.0141567
-0.0477928
0.017465
-0.0590896
0.0200861
-0.0684691
0.0221035
-0.0761268
-0.0828201
0.0237013
0.000349121
-0.00119425
0.00156277
-0.00632186
0.00381299
-0.0146796
0.00701
-0.0259867
0.0106704
-0.0388387
0.0141624
-0.0512848
0.0170692
-0.0619964
0.019295
-0.0706949
0.0209841
-0.0778158
-0.0841676
0.0223315
0.000396659
-0.00159091
0.00172703
-0.00765223
0.0041072
-0.0170598
0.00732965
-0.0292092
0.0108203
-0.0423294
0.0139801
-0.0544446
0.0164962
-0.0645125
0.0183644
-0.0725631
0.0197684
-0.0792199
-0.0852997
0.0209006
0.000444982
-0.00203589
0.00188413
-0.00909138
0.00436126
-0.0195369
0.00754945
-0.0323974
0.0108185
-0.0455985
0.0136315
-0.0572575
0.015778
-0.066659
0.0173268
-0.0741119
0.0184831
-0.0803762
-0.0862429
0.0194264
0.000492884
-0.00252878
0.00202896
-0.0106275
0.00456558
-0.0220735
0.00766441
-0.0354962
0.0106748
-0.0486089
0.0131401
-0.0597228
0.0149439
-0.0684627
0.0162095
-0.0753776
0.0171488
-0.0813155
-0.0870165
0.0179224
0.000539109
-0.00306789
0.00215662
-0.012245
0.0047129
-0.0246298
0.00767467
-0.038458
0.010403
-0.0513372
0.0125296
-0.0618494
0.0140197
-0.0699528
0.0150345
-0.0763924
0.015781
-0.0820619
-0.0876341
0.0163985
0.000582389
-0.00365028
0.0022627
-0.0139253
0.00479873
-0.0271658
0.00758461
-0.0412439
0.0100187
-0.0537713
0.0118221
-0.0636529
0.0130276
-0.0711582
0.0138192
-0.077184
0.0143916
-0.0826344
-0.0881047
0.0148622
0.000621487
-0.00427176
0.00234355
-0.0156473
0.00482134
-0.0296436
0.00740166
-0.0438242
0.00953861
-0.0559082
0.011038
-0.0651523
0.0119858
-0.0721061
0.0125773
-0.0777755
0.0129897
-0.0830468
-0.0884344
0.0133194
0.000655245
-0.00492701
0.00239645
-0.0173885
0.00478151
-0.0320287
0.00713521
-0.0461779
0.00897879
-0.0577518
0.0101949
-0.0663684
0.0109097
-0.0728208
0.0113196
-0.0781854
0.011582
-0.0833092
-0.0886272
0.0117748
0.000682635
-0.00560964
0.0024197
-0.0191256
0.00468209
-0.034291
0.0067957
-0.0482915
0.00835443
-0.0593106
0.0093082
-0.0673221
0.00981123
-0.0733239
0.0100542
-0.0784284
0.010174
-0.083429
-0.0886857
0.0102325
0.000702789
-0.00631243
0.00241263
-0.0208355
0.00452747
-0.0364059
0.00639388
-0.0501579
0.00767933
-0.060596
0.00839076
-0.0680336
0.00870029
-0.0736334
0.00878774
-0.0785159
0.0087697
-0.0834109
-0.0886115
0.00869542
0.000715039
-0.00702747
0.00237554
-0.022496
0.00432309
-0.0383534
0.00594023
-0.051775
0.00696572
-0.0616215
0.00745337
-0.0685212
0.0075846
-0.0737646
0.00752505
-0.0784563
0.00737255
-0.0832584
-0.0884047
0.00716576
0.000718925
-0.0077464
0.0023096
-0.0240866
0.00407497
-0.0401188
0.00544466
-0.0531447
0.00622429
-0.0624011
0.00650492
-0.0688018
0.00647029
-0.07373
0.00627
-0.078256
0.00598518
-0.0829736
-0.088065
0.00564551
0.000714201
-0.0084606
0.0022166
-0.025589
0.0037893
-0.0416915
0.0049163
-0.0542717
0.00546424
-0.0629491
0.00555271
-0.0688903
0.00536229
-0.0735396
0.00502564
-0.0779194
0.00460955
-0.0825575
-0.0875915
0.00413601
0.00070083
-0.00916143
0.00209887
-0.0269871
0.00347223
-0.0430649
0.00436331
-0.0551628
0.00469334
-0.0632791
0.00460272
-0.0687997
0.00426476
-0.0732016
0.00379501
-0.0774496
0.00324716
-0.0820097
-0.0869817
0.00263744
0.000678975
-0.0098404
0.001959
-0.0282671
0.00312962
-0.0442355
0.00379294
-0.0558261
0.00391814
-0.0634043
0.0036598
-0.0685414
0.00318124
-0.0727231
0.00258196
-0.0768503
0.00190013
-0.0813278
-0.0862268
0.00114519
0.000649008
-0.0104894
0.00180004
-0.0294181
0.00276696
-0.0452024
0.0032115
-0.0562707
0.00314406
-0.0633369
0.00272773
-0.068125
0.00211434
-0.0721097
0.00138934
-0.0761253
0.000579645
-0.0805181
-0.0853036
-0.000343549
0.00061146
-0.0111009
0.00162495
-0.0304316
0.00238932
-0.0459668
0.00262447
-0.0565058
0.00237557
-0.063088
0.00180957
-0.067559
0.00106624
-0.0713663
0.00020922
-0.0752683
-0.000720847
-0.0795881
-0.0842786
-0.00174584
0.00056699
-0.0116679
0.00143662
-0.0313012
0.0020013
-0.0465314
0.00203653
-0.056541
0.00161634
-0.0626678
0.000907917
-0.0668506
2.96636e-05
-0.0704881
-0.000936196
-0.0743025
-0.00200371
-0.0785205
-0.0831356
-0.00314672
0.000516359
-0.0121842
0.00123779
-0.0320227
0.00160706
-0.0469007
0.0014517
-0.0563857
0.000869109
-0.0620852
2.0238e-05
-0.0660017
-0.000966061
-0.0695018
-0.00206131
-0.0732072
-0.00325494
-0.0773269
-0.0818634
-0.00452714
0.000460421
-0.0126446
0.00103113
-0.0325934
0.00121024
-0.0470798
0.000873198
-0.0560486
0.000137721
-0.0613497
-0.000834756
-0.0650293
-0.00194678
-0.0683898
-0.00316227
-0.0719917
-0.00447905
-0.0760101
-0.0804618
-0.00588063
0.000400083
-0.0130447
0.000819402
-0.0330127
0.000813763
-0.0470742
0.000305128
-0.05554
-0.000576318
-0.0604683
-0.00167454
-0.063931
-0.00290353
-0.0671608
-0.00423658
-0.0706587
-0.00567537
-0.0745713
-0.0789325
-0.00720464
0.000336174
-0.0133809
0.000605397
-0.0332819
0.000420958
-0.0468898
-0.000252357
-0.0548667
-0.00127249
-0.0594481
-0.00249192
-0.0627116
-0.00383483
-0.0658179
-0.00528303
-0.0692105
-0.00684232
-0.0730121
-0.0772779
-0.00849692
0.000269623
-0.0136505
0.00039079
-0.0334031
4.83269e-05
-0.0465473
-0.000796275
-0.0540221
-0.00195006
-0.0582943
-0.0032859
-0.0613758
-0.00473982
-0.0643639
-0.00630073
-0.0676496
-0.00797845
-0.0713343
-0.0755018
-0.00975465
0.000202409
-0.0138529
0.000177368
-0.0333781
-0.000350847
-0.0460191
-0.00132861
-0.0530443
-0.00260734
-0.0570156
-0.00405561
-0.0599275
-0.00561777
-0.0628018
-0.00728895
-0.0659784
-0.0090823
-0.069541
-0.0736102
-0.0109739
0.000133755
-0.0139867
-1.54456e-05
-0.0332289
-0.000725053
-0.0453095
-0.0018463
-0.0519231
-0.00324376
-0.0556181
-0.00480034
-0.0583709
-0.00646799
-0.0611341
-0.00824688
-0.0641995
-0.0101526
-0.0676353
-0.0716081
-0.0121547
5.85653e-05
-0.0140452
-0.000256523
-0.0329138
-0.00109188
-0.0444741
-0.00234662
-0.0506683
-0.00385849
-0.0541063
-0.00551964
-0.0567098
-0.00729005
-0.0593637
-0.00917395
-0.0623156
-0.0111893
-0.0656199
-0.0694927
-0.0133048
-1.89616e-05
-0.0140263
-0.0004713
-0.0324614
-0.00144817
-0.0434972
-0.00282883
-0.0492877
-0.00445047
-0.0524846
-0.00621309
-0.0549472
-0.00808431
-0.0574925
-0.0100712
-0.0603287
-0.0121916
-0.0634995
-0.067263
-0.0144212
-8.8926e-05
-0.0139374
-0.000677505
-0.0318728
-0.00179214
-0.0423826
-0.00329265
-0.0477872
-0.00501909
-0.0507582
-0.00688017
-0.0530861
-0.0088514
-0.0555213
-0.010942
-0.0582381
-0.0131545
-0.061287
-0.064935
-0.0154825
-0.000160598
-0.0137768
-0.000876984
-0.0311565
-0.00212296
-0.0411366
-0.00373733
-0.0461728
-0.00556368
-0.0489318
-0.00751986
-0.0511299
-0.00958934
-0.0534518
-0.011785
-0.0560425
-0.0141166
-0.0589554
-0.0626539
-0.0163977
-0.000231221
-0.0135455
-0.00106979
-0.0303179
-0.00244007
-0.0397664
-0.00416231
-0.0444506
-0.00608375
-0.0470104
-0.00813113
-0.0490825
-0.0102932
-0.0512898
-0.0125709
-0.0537647
-0.014928
-0.0565983
-0.0598545
-0.0177274
-0.000300114
-0.0132454
-0.00125547
-0.0293625
-0.00274306
-0.0382788
-0.00456721
-0.0426264
-0.00657913
-0.0449985
-0.00871335
-0.0469483
-0.0109594
-0.0490437
-0.0133136
-0.0514105
-0.0157944
-0.0541175
-0.0570756
-0.0185733
-0.000366895
-0.0128785
-0.00143349
-0.0282959
-0.00303154
-0.0366807
-0.00495173
-0.0407062
-0.00704951
-0.0429007
-0.00926647
-0.0447313
-0.0115949
-0.0467152
-0.0140396
-0.0489658
-0.0166351
-0.051522
-0.0542741
-0.0194366
-0.00043126
-0.0124473
-0.00160334
-0.0271239
-0.00330516
-0.0349789
-0.00531559
-0.0386958
-0.00749448
-0.0407218
-0.00978967
-0.0424361
-0.0121965
-0.0443084
-0.0147251
-0.0464372
-0.0174061
-0.048841
-0.051422
-0.0202583
-0.000492941
-0.0119543
-0.00176463
-0.0258522
-0.00356362
-0.0331799
-0.00565862
-0.0366008
-0.00791392
-0.0384665
-0.0102832
-0.0400668
-0.0127651
-0.0418265
-0.0153728
-0.0438295
-0.0181306
-0.0460831
-0.0485075
-0.0210451
-0.000551699
-0.0114026
-0.00191699
-0.0244869
-0.00380668
-0.0312902
-0.00598064
-0.0344268
-0.00830766
-0.0361395
-0.0107469
-0.0376276
-0.0132998
-0.0392736
-0.0159806
-0.0411487
-0.0188096
-0.0432541
-0.0455262
-0.021791
-0.000607319
-0.0107953
-0.00206013
-0.0230341
-0.00403413
-0.0293162
-0.00628154
-0.0321794
-0.00867562
-0.0337454
-0.0111805
-0.0351228
-0.0138
-0.0366541
-0.016549
-0.0383997
-0.0194454
-0.0403578
-0.0424778
-0.0224938
-0.000659613
-0.0101357
-0.0021938
-0.0214999
-0.00424579
-0.0272642
-0.00656123
-0.029864
-0.0090177
-0.031289
-0.0115839
-0.0325566
-0.0142656
-0.0339723
-0.0170781
-0.0355872
-0.020038
-0.0373979
-0.0393642
-0.0231515
-0.000708414
-0.00942729
-0.0023178
-0.0198905
-0.00444154
-0.0251405
-0.00681963
-0.0274859
-0.00933383
-0.0287748
-0.0119569
-0.0299335
-0.0146964
-0.0312328
-0.0175677
-0.0327159
-0.0205872
-0.0343783
-0.0361888
-0.0237627
-0.000753577
-0.00867371
-0.00243194
-0.0182121
-0.00462127
-0.0229512
-0.00705671
-0.0250504
-0.00962394
-0.0262075
-0.0122994
-0.0272581
-0.0150921
-0.0284402
-0.0180177
-0.0297903
-0.0210926
-0.0313034
-0.0329554
-0.024326
-0.000794978
-0.00787873
-0.00253609
-0.016471
-0.0047849
-0.0207024
-0.0072724
-0.0225629
-0.00988797
-0.023592
-0.0126113
-0.0245348
-0.0154526
-0.0255989
-0.0184279
-0.0268149
-0.0215537
-0.0281776
-0.0296687
-0.0248404
-0.000832509
-0.00704622
-0.00263013
-0.0146734
-0.00493236
-0.0184001
-0.00746669
-0.0200286
-0.0101259
-0.0209328
-0.0128925
-0.0217682
-0.0157777
-0.0227136
-0.018798
-0.0237946
-0.0219699
-0.0250057
-0.0263336
-0.025305
-0.000866077
-0.00618015
-0.00271396
-0.0128255
-0.0050636
-0.0160505
-0.00763955
-0.0174527
-0.0103376
-0.0182347
-0.0131428
-0.018963
-0.0160673
-0.0197891
-0.0191278
-0.0207341
-0.0223409
-0.0217925
-0.0229553
-0.0257193
-0.000895605
-0.00528454
-0.00278749
-0.0109336
-0.00517859
-0.0136594
-0.00779097
-0.0148403
-0.0105231
-0.0155025
-0.0133623
-0.0161238
-0.0163213
-0.0168301
-0.0194171
-0.0176383
-0.0226664
-0.0185433
-0.019539
-0.0260827
-0.000921026
-0.00436352
-0.00285066
-0.00900398
-0.00527729
-0.0112327
-0.00792093
-0.0121967
-0.0106824
-0.012741
-0.0135508
-0.0132555
-0.0165395
-0.0138415
-0.0196657
-0.0145121
-0.022946
-0.0152629
-0.0160901
-0.0263949
-0.000942287
-0.00342123
-0.00290342
-0.00704285
-0.00535968
-0.00877649
-0.00802942
-0.00952692
-0.0108155
-0.00995496
-0.0137083
-0.0103627
-0.0167218
-0.0108279
-0.0198734
-0.0113605
-0.0231796
-0.0119567
-0.012614
-0.0266557
-0.000959342
-0.00246189
-0.00294573
-0.00505646
-0.00542574
-0.00629647
-0.00811644
-0.00683622
-0.0109222
-0.00714916
-0.0138347
-0.00745025
-0.0168682
-0.00779443
-0.0200402
-0.00818858
-0.0233672
-0.00862964
-0.00911627
-0.0268649
-0.000972158
-0.00148973
-0.00297754
-0.00305108
-0.00547546
-0.00379855
-0.008182
-0.00412968
-0.0110027
-0.00432844
-0.01393
-0.00452292
-0.0169786
-0.00474583
-0.020166
-0.00500123
-0.0235087
-0.00528694
-0.00560186
-0.0270231
-0.000980711
-0.000509018
-0.00299884
-0.00103295
-0.00550884
-0.00128855
-0.00822609
-0.00141244
-0.0110569
-0.00149761
-0.0139943
-0.00158554
-0.0170531
-0.00168707
-0.0202507
-0.00180357
-0.0236035
-0.00193414
-0.00207471
-0.0271307
-0.000984982
0.000475964
-0.00300962
0.000991684
-0.00552587
0.0012277
-0.00824871
0.0013104
-0.0110848
0.0013385
-0.0140274
0.00135705
-0.0170913
0.00137685
-0.020294
0.00139911
-0.0236519
0.00142379
0.00145019
-0.0271768
-0.000984965
0.00146093
-0.00300986
0.00301658
-0.00552655
0.00374439
-0.00824988
0.00403373
-0.0110865
0.00417508
-0.0140295
0.00430008
-0.0170938
0.00444117
-0.0202969
0.0046022
-0.023655
0.00478191
0.004979
-0.0271838
-0.000980658
0.00244159
-0.00299958
0.0050355
-0.00551089
0.0062557
-0.0082296
0.00675243
-0.0110618
0.00700732
-0.0140005
0.00723874
-0.0170603
0.00750102
-0.0202588
0.00780068
-0.0236123
0.00813538
0.00850365
-0.0271369
-0.000972071
0.00341366
-0.00297877
0.0070422
-0.0054789
0.00875583
-0.00818787
0.0094614
-0.0110109
0.00983039
-0.0139404
0.0101682
-0.0169908
0.0105515
-0.0201796
0.0109895
-0.0235232
0.0114789
0.0120178
-0.0270373
-0.000959218
0.00437288
-0.00294746
0.00903044
-0.00543057
0.0112389
-0.00812471
0.0121555
-0.0109338
0.0126395
-0.0138493
0.0130837
-0.0168854
0.0135876
-0.0200595
0.0141635
-0.0233879
0.0148074
0.0155159
-0.0268861
-0.000942125
0.005315
-0.00290566
0.010994
-0.00536594
0.0136992
-0.00804012
0.0148297
-0.0108305
0.0154298
-0.0137272
0.0159804
-0.0167442
0.0166046
-0.0198985
0.0173179
-0.0232067
0.0181156
0.0189926
-0.0266834
-0.000920824
0.00623582
-0.00285342
0.0129266
-0.005285
0.0161308
-0.00793412
0.0174788
-0.0107009
0.0181967
-0.0135741
0.0188536
-0.0165671
0.0195975
-0.0196968
0.0204475
-0.0229796
0.0213984
0.0224424
-0.0264294
-0.000895357
0.00713118
-0.00279077
0.014822
-0.00518778
0.0185278
-0.00780672
0.0200978
-0.0105452
0.0209352
-0.0133902
0.0216986
-0.0163543
0.0225617
-0.0194544
0.0235476
-0.0227067
0.0246507
0.0258598
-0.0261242
-0.000865776
0.00799696
-0.00271776
0.016674
-0.00507432
0.0208844
-0.00765792
0.0226814
-0.0103634
0.0236406
-0.0131754
0.0245107
-0.016106
0.0254923
-0.0191715
0.0266131
-0.0223883
0.0278674
0.0292397
-0.0257681
-0.000832145
0.0088291
-0.00263446
0.0184763
-0.00494463
0.0231945
-0.00748776
0.0252245
-0.0101554
0.0263083
-0.0129299
0.0272851
-0.0158222
0.0283845
-0.0188484
0.0296393
-0.0220247
0.0310436
0.0325766
-0.0253616
-0.000794535
0.00962364
-0.00254094
0.0202227
-0.00479876
0.0254524
-0.00729624
0.027722
-0.00992146
0.0289335
-0.0126538
0.0300174
-0.0155031
0.0312339
-0.0184853
0.0326215
-0.0216162
0.0341746
0.0358656
-0.0249052
-0.000753035
0.0103767
-0.0024373
0.021907
-0.00463674
0.0276518
-0.0070834
0.0301686
-0.00966148
0.0315116
-0.0123471
0.032703
-0.0151489
0.0340358
-0.0180824
0.035555
-0.0211634
0.0372556
0.0391019
-0.0243998
-0.000707745
0.0110844
-0.00232364
0.0235229
-0.00445864
0.0297868
-0.00684925
0.0325593
-0.00937554
0.0340379
-0.0120099
0.0353374
-0.0147598
0.0367856
-0.0176401
0.0384353
-0.0206668
0.0402823
0.0422812
-0.0238461
-0.000658782
0.0117432
-0.0022001
0.0250642
-0.00426453
0.0318512
-0.00659383
0.0348886
-0.00906371
0.0365078
-0.0116425
0.0379161
-0.0143358
0.039479
-0.0171586
0.0412581
-0.020127
0.0432507
0.0453996
-0.0232454
-0.000606281
0.0123495
-0.00206682
0.0265247
-0.00405449
0.0338389
-0.00631718
0.0371512
-0.00872605
0.0389166
-0.0112448
0.0404349
-0.0138773
0.0421114
-0.016638
0.0440188
-0.0195443
0.046157
0.0484543
-0.022599
-0.000550394
0.0128999
-0.001924
0.0278983
-0.00382863
0.0357435
-0.00601935
0.039342
-0.0083626
0.0412599
-0.0108171
0.0428895
-0.0133843
0.0446786
-0.0160783
0.0467127
-0.0189191
0.0489979
0.051444
-0.0219088
-0.000491298
0.0133912
-0.00177185
0.0291789
-0.00358709
0.0375588
-0.0057004
0.0414553
-0.00797344
0.0435329
-0.0103596
0.0452756
-0.0128573
0.0471763
-0.0154795
0.049335
-0.0182512
0.0517695
0.0543696
-0.0211768
-0.000429187
0.0138204
-0.00161065
0.0303603
-0.00333005
0.0392782
-0.00536041
0.0434856
-0.00755862
0.0457312
-0.00987217
0.0475891
-0.0122963
0.0496004
-0.0148407
0.0518794
-0.0175374
0.0544662
0.0572375
-0.0204052
-0.000364279
0.0141846
-0.0014407
0.0314367
-0.0030577
0.0408952
-0.00499951
0.0454274
-0.00711828
0.0478499
-0.00935525
0.0498261
-0.0117028
0.051948
-0.0141649
0.0543415
-0.0167773
0.0570786
0.0600598
-0.0195995
-0.000296813
0.0144815
-0.0012624
0.0324023
-0.00277029
0.0424031
-0.00461784
0.047275
-0.00665247
0.0498845
-0.00880836
0.051982
-0.0110754
0.054215
-0.0134477
0.0567138
-0.0159428
0.0595737
0.0628621
-0.0187452
-0.000227065
0.0147085
-0.00107616
0.0332514
-0.0024681
0.043795
-0.00421561
0.0490225
-0.00616158
0.0518305
-0.00823227
0.0540527
-0.0104172
0.0563999
-0.0127159
0.0590126
-0.0150854
0.0619431
0.0656841
-0.0179073
-0.000155403
0.0148639
-0.000882472
0.0339785
-0.00215141
0.045064
-0.00379305
0.0506642
-0.00564588
0.0536833
-0.00762713
0.0560339
-0.00972137
0.0584942
-0.011942
0.0612332
-0.0142965
0.0642976
0.0679659
-0.0165783
-8.25984e-05
0.0149465
-0.000681666
0.0345776
-0.00182055
0.0462028
-0.00335047
0.0521941
-0.00510547
0.0554383
-0.00699345
0.0579219
-0.00899101
0.0604917
-0.0111077
0.0633499
-0.013344
0.0665338
0.0703129
-0.015691
-1.24701e-05
0.014959
-0.000473381
0.0350385
-0.00147597
0.0472054
-0.00288834
0.0536064
-0.00454069
0.0570907
-0.00633214
0.0597134
-0.00823122
0.0623908
-0.0102452
0.0653638
-0.0123902
0.0686789
0.0725662
-0.0146435
6.84689e-05
0.0148905
-0.00025504
0.035362
-0.00111848
0.0480689
-0.00240728
0.0548952
-0.00395213
0.0586355
-0.00564419
0.0614054
-0.00744429
0.0641909
-0.00935705
0.0672766
-0.0113996
0.0707215
0.0747066
-0.01354
0.0001454
0.0147451
-8.63132e-06
0.035516
-0.000750035
0.0488103
-0.00190729
0.0560525
-0.00334031
0.0600686
-0.00493011
0.0629952
-0.00662955
0.0658903
-0.00843966
0.0690867
-0.010376
0.0726578
0.0767379
-0.0124073
0.000215891
0.0145292
0.00018587
0.035546
-0.00037363
0.0493698
-0.00138883
0.0570677
-0.00270629
0.061386
-0.00419024
0.0644792
-0.00578649
0.0674866
-0.00749153
0.0707918
-0.00931922
0.0744855
0.0786644
-0.0112457
0.000285332
0.0142439
0.000403192
0.0354282
3.51036e-05
0.0497378
-0.000854708
0.0579575
-0.0020507
0.062582
-0.00342481
0.0658533
-0.00491537
0.0689771
-0.00651304
0.0723894
-0.00822894
0.0762014
0.0804808
-0.0100454
0.000354342
0.0138896
0.000622482
0.03516
0.000407953
0.0499524
-0.000309761
0.0586752
-0.00137374
0.063646
-0.00263446
0.067114
-0.00401672
0.0703594
-0.00550482
0.0738775
-0.00710634
0.0778029
0.0821804
-0.00880591
0.000421108
0.0134684
0.000842342
0.0347388
0.00080694
0.0499878
0.000252443
0.0592297
-0.000676859
0.0645753
-0.00181997
0.0682571
-0.00309107
0.0716305
-0.00446727
0.0752537
-0.00595252
0.0792882
0.0837593
-0.0075314
0.000484691
0.0129838
0.00106142
0.0341621
0.00121159
0.0498376
0.00082533
0.059616
3.76291e-05
0.065363
-0.000982009
0.0692768
-0.00213906
0.0727875
-0.00340088
0.0765156
-0.00476863
0.0806559
0.0852151
-0.00622448
0.000544261
0.0124395
0.00127692
0.0334294
0.00161863
0.0494959
0.00141189
0.0598227
0.000774432
0.0660005
-0.000124132
0.0701753
-0.00116194
0.0738254
-0.00230626
0.0776599
-0.00355618
0.0819059
0.086546
-0.00488707
0.000598858
0.0118406
0.00148611
0.0325422
0.00202556
0.0489565
0.00200733
0.0598409
0.00152739
0.0664804
0.000762899
0.0709398
-0.000164605
0.0747529
-0.00118506
0.0786803
-0.00231584
0.0830366
0.0877517
-0.00352153
0.000647556
0.0111931
0.00168634
0.0315034
0.00242901
0.0482138
0.00260881
0.0596611
0.00229549
0.0667937
0.00166877
0.0715665
0.000866683
0.0755549
-5.3457e-05
0.0796005
-0.00104476
0.084028
0.08884
-0.00213303
0.000689517
0.0105036
0.00187488
0.030318
0.00282511
0.0472636
0.00321301
0.0592732
0.0030763
0.0669304
0.00259395
0.0720489
0.00191904
0.0762299
0.00113363
0.0803859
0.000262968
0.0848986
0.0898347
-0.000731706
0.000723993
0.00977957
0.00204885
0.0289931
0.00320956
0.0461028
0.00381582
0.058667
0.00386681
0.0668794
0.00353671
0.072379
0.00299195
0.0767746
0.00232641
0.0810514
0.00156923
0.0856558
0.0906842
0.000719685
0.000750343
0.00902923
0.00220527
0.0275382
0.00357755
0.0447306
0.00441236
0.0578322
0.00466322
0.0666286
0.00449433
0.0725479
0.00408419
0.0771847
0.00354219
0.0815934
0.00291483
0.0862831
0.0913809
0.00221815
0.000768063
0.00826116
0.00234082
0.0259655
0.00392374
0.0431476
0.0049969
0.056759
0.00546091
0.0661646
0.00546386
0.0725449
0.00519463
0.077454
0.00478039
0.0820077
0.00428079
0.0867827
0.0919453
0.00371641
0.000776847
0.00748432
0.0024525
0.0242898
0.00424232
0.0413578
0.00556283
0.0554385
0.00625434
0.0654731
0.00644158
0.0723577
0.00632077
0.0775748
0.00603721
0.0822912
0.00566344
0.0871565
0.092383
0.00522566
0.000776601
0.00670772
0.0025376
0.0225288
0.00452707
0.0393683
0.00610253
0.0538631
0.00703676
0.0645388
0.00742265
0.0719718
0.00745928
0.0775382
0.00730979
0.0824407
0.00706208
0.0874042
0.0926951
0.00674998
0.000767438
0.00594028
0.00259374
0.0207025
0.00477148
0.0371906
0.00660734
0.0520272
0.00780007
0.0633461
0.00840109
0.0713708
0.00860634
0.0773329
0.00859601
0.082451
0.00847607
0.0875242
0.0928821
0.00828915
0.000749689
0.00519059
0.00261911
0.0188331
0.00496892
0.0348408
0.00706761
0.0499285
0.00853469
0.061879
0.00936953
0.070536
0.00975735
0.0769451
0.00989343
0.082315
0.00990394
0.0875137
0.0929443
0.00984171
0.000723907
0.00446668
0.00261263
0.0169444
0.00511301
0.0323404
0.00747278
0.0475687
0.00922943
0.0601224
0.0103189
0.0694465
0.0109064
0.0763576
0.0111987
0.0820227
0.0113435
0.0873688
0.092881
0.0114068
0.000690859
0.00377582
0.00257418
0.015061
0.00519794
0.0297167
0.00781161
0.0449551
0.00987136
0.0580626
0.0112382
0.0680797
0.0120459
0.0755499
0.0125072
0.0815614
0.0127922
0.0870838
0.0926903
0.0129829
0.000651511
0.00312431
0.00250466
0.0132079
0.00521905
0.0270023
0.00807253
0.0421016
0.0104458
0.0556893
0.0121139
0.0664116
0.0131661
0.0744977
0.0138132
0.0809143
0.0142467
0.0866504
0.0923694
0.0145675
0.000606991
0.00251732
0.00240611
0.0114088
0.00517336
0.024235
0.00824424
0.0390307
0.0109367
0.0529969
0.0129303
0.064418
0.0142549
0.0731731
0.0151089
0.0800602
0.0157026
0.0860568
0.091914
0.0161581
0.000558535
0.00195879
0.00228165
0.00968566
0.00506015
0.0214565
0.00831643
0.0357744
0.0113264
0.0499869
0.0136685
0.0620759
0.0152969
0.0715447
0.0163843
0.0789728
0.0171542
0.0852868
0.091317
0.0177512
0.000507433
0.00145135
0.0021353
0.00805779
0.00488144
0.0187104
0.00828082
0.032375
0.0115972
0.0466706
0.0143072
0.0593659
0.0162734
0.0695786
0.0176261
0.07762
0.0185939
0.084319
0.0905679
0.0193429
0.000454952
0.0009964
0.00197173
0.00654101
0.00464221
0.0160399
0.00813233
0.0288849
0.0117313
0.0430716
0.0148226
0.0562745
0.0171617
0.0672395
0.0188174
0.0759643
0.0200111
0.0831253
0.0896515
0.0209275
0.000402258
0.000594142
0.00179593
0.00514734
0.00435022
0.0134856
0.00787031
0.0253648
0.0117133
0.0392286
0.0151892
0.0527986
0.017935
0.0644937
0.0199367
0.0739627
0.0213919
0.0816701
0.0885458
0.0224976
0.000350343
0.000243799
0.0016128
0.00388488
0.0040155
0.0110829
0.00749962
0.0218807
0.0115312
0.035197
0.0153808
0.0489491
0.0185625
0.0613119
0.0209569
0.0715683
0.0227174
0.0799096
0.0872208
0.0240423
0.00029997
-5.61713e-05
0.00142685
0.002758
0.00364951
0.00886026
0.00703104
0.0184992
0.0111795
0.0310486
0.0153726
0.0447559
0.01901
0.0576745
0.0218453
0.0687331
0.0239629
0.077792
0.0856366
0.0255471
0.000251649
-0.00030782
0.00124194
0.0017677
0.00326404
0.00683816
0.00648093
0.0152823
0.0106606
0.0268689
0.0151443
0.0402722
0.0192413
0.0535776
0.0225629
0.0654114
0.0250964
0.0752586
0.0837415
0.0269915
0.000205659
-0.000513479
0.00106122
0.000912138
0.0028704