/*--------------------------------*- C++ -*----------------------------------*\
  =========                 |
  \\      /  F ield         | OpenFOAM: The Open Source CFD Toolbox
   \\    /   O peration     | Website:  https://openfoam.org
    \\  /    A nd           | Version:  7
     \\/     M anipulation  |
\*---------------------------------------------------------------------------*/
FoamFile
{
    version     2.0;
    format      ascii;
    class       volVectorField;
    location    "335";
    object      U;
}
// * * * * * * * * * * * * * * * * * * * * * * * * * * * * * * * * * * * * * //

dimensions      [0 1 -1 0 0 0 0];

internalField   nonuniform List<vector> 
8500
(
(0.000350199 -0.0616274 1.07783e-21)
(-0.00315821 -0.147916 -3.0891e-21)
(-0.0140386 -0.205976 -3.6e-21)
(-0.0294977 -0.240549 3.57976e-21)
(-0.0475506 -0.259137 -3.29622e-21)
(-0.0661142 -0.269336 -1.76708e-21)
(-0.0835881 -0.276491 3.04766e-21)
(-0.0991899 -0.282776 3.7956e-21)
(-0.112292 -0.28754 -6.301e-22)
(-0.12237 -0.287805 1.89695e-21)
(0.00203149 -0.0592581 -1.19245e-21)
(-0.000556794 -0.141656 3.67348e-21)
(-0.0128907 -0.196836 -8.4999e-21)
(-0.0306955 -0.2297 7.71148e-21)
(-0.0514387 -0.247761 3.58688e-22)
(-0.0727656 -0.258379 5.73395e-21)
(-0.0930587 -0.266539 -1.00119e-20)
(-0.111733 -0.274074 -1.47794e-20)
(-0.128365 -0.280094 -2.88388e-21)
(-0.142876 -0.281493 6.61573e-21)
(0.00345574 -0.0559334 1.0534e-21)
(0.00152469 -0.133606 7.88949e-21)
(-0.0122259 -0.185735 1.86602e-20)
(-0.032118 -0.217033 -1.69035e-20)
(-0.0551163 -0.234794 -3.78383e-21)
(-0.0786172 -0.246004 -3.49493e-21)
(-0.100971 -0.255228 1.78152e-20)
(-0.121747 -0.263935 1.12679e-20)
(-0.140665 -0.270991 2.87896e-21)
(-0.157964 -0.273201 -2.03924e-20)
(0.00454293 -0.051731 3.71781e-21)
(0.00297927 -0.123952 -4.65943e-21)
(-0.0121017 -0.172917 -3.43781e-20)
(-0.0337651 -0.20281 3.08419e-21)
(-0.0585374 -0.220501 9.4935e-21)
(-0.0835903 -0.232489 -7.34066e-21)
(-0.107214 -0.242872 -5.62811e-22)
(-0.129072 -0.25274 -2.97026e-21)
(-0.148946 -0.260676 6.89633e-21)
(-0.167229 -0.263402 1.98034e-20)
(0.0052268 -0.0467587 2.5421e-21)
(0.00372559 -0.112921 -1.4566e-20)
(-0.0125517 -0.158652 3.52516e-20)
(-0.0356196 -0.187303 -1.59251e-20)
(-0.0616477 -0.205144 -8.40257e-23)
(-0.0876108 -0.2181 2.2125e-20)
(-0.111707 -0.229781 -1.02733e-20)
(-0.133617 -0.240881 1.25223e-21)
(-0.153096 -0.249641 -4.22169e-21)
(-0.170466 -0.252638 1.16208e-21)
(0.00545922 -0.0411501 3.03735e-20)
(0.00371415 -0.100775 3.72542e-20)
(-0.0135784 -0.14323 -9.62364e-21)
(-0.0376369 -0.170786 1.83002e-20)
(-0.0643696 -0.18897 5.66432e-21)
(-0.0905866 -0.203078 -8.27378e-21)
(-0.114359 -0.216235 -3.14586e-21)
(-0.13531 -0.228732 -1.35167e-20)
(-0.153088 -0.238387 2.91472e-21)
(-0.167608 -0.241486 -1.76004e-20)
(0.00521394 -0.0350606 -2.92479e-20)
(0.0029325 -0.0877989 -1.93741e-20)
(-0.0151467 -0.126955 1.56488e-20)
(-0.0397358 -0.153533 -2.71291e-20)
(-0.0665852 -0.17221 3.01023e-21)
(-0.0923791 -0.187631 3.18384e-20)
(-0.115033 -0.202457 -5.71759e-21)
(-0.134038 -0.216598 3.7358e-20)
(-0.14889 -0.227371 -1.0027e-21)
(-0.158595 -0.230515 -1.46796e-20)
(0.00448928 -0.0286622 2.41417e-20)
(0.00140887 -0.0743 -4.40625e-20)
(-0.0171798 -0.110143 -1.75907e-20)
(-0.0417903 -0.135814 2.07768e-20)
(-0.0681217 -0.155077 6.03805e-22)
(-0.0927752 -0.17192 -5.95935e-20)
(-0.11349 -0.188595 -3.42159e-21)
(-0.129562 -0.204679 -2.92258e-20)
(-0.140352 -0.216942 -3.70511e-20)
(-0.143234 -0.220224 2.13991e-20)
(0.00330981 -0.0221386 -1.34368e-20)
(-0.000786382 -0.0605972 6.61614e-21)
(-0.0195575 -0.0931141 1.61662e-20)
(-0.0436263 -0.117899 -1.43829e-20)
(-0.0687418 -0.137768 -5.08496e-20)
(-0.0914665 -0.156069 1.75725e-20)
(-0.109352 -0.174708 2.58233e-21)
(-0.121445 -0.193029 4.36255e-20)
(-0.127094 -0.207276 5.59962e-20)
(-0.121039 -0.210956 -2.47774e-20)
(0.00172631 -0.0156782 2.0979e-20)
(-0.00354199 -0.0470159 1.92723e-20)
(-0.0221182 -0.076198 -2.80367e-21)
(-0.0450235 -0.100063 7.18595e-20)
(-0.0681441 -0.120478 3.06207e-20)
(-0.0880433 -0.140173 2.29542e-20)
(-0.102079 -0.160786 3.23609e-20)
(-0.108992 -0.181545 -1.41736e-20)
(-0.108418 -0.198323 -1.86226e-20)
(-0.0911065 -0.20279 -2.91323e-20)
(-0.000186455 -0.00946685 -2.0652e-21)
(-0.00671033 -0.03388 -3.05247e-20)
(-0.0246664 -0.0597276 -2.20327e-20)
(-0.0457254 -0.0825939 -3.54496e-20)
(-0.0659765 -0.103418 -2.81124e-20)
(-0.0820104 -0.124337 2.83592e-20)
(-0.0909877 -0.146776 -2.7101e-20)
(-0.091269 -0.169987 -1.84848e-20)
(-0.0832957 -0.18979 2.39958e-21)
(-0.052121 -0.195413 8.00802e-21)
(-0.00233494 -0.00367805 -5.77231e-20)
(-0.0101156 -0.0215025 2.78163e-20)
(-0.0269831 -0.0440379 2.04061e-20)
(-0.0454553 -0.0657966 1.37186e-20)
(-0.0618615 -0.0868318 -2.50856e-20)
(-0.0728276 -0.108705 -2.11029e-20)
(-0.07531 -0.132654 3.04252e-20)
(-0.0671745 -0.15805 -2.45685e-20)
(-0.0504449 -0.181183 -1.85965e-21)
(-0.0026396 -0.187842 -2.37446e-20)
(-0.00460822 0.00152497 4.83731e-20)
(-0.0135643 -0.0101771 1.9889e-20)
(-0.0288395 -0.0294595 1.19194e-21)
(-0.0439364 -0.0499948 -2.49595e-20)
(-0.055431 -0.0710119 1.73943e-21)
(-0.0599692 -0.093502 2.79823e-20)
(-0.0542939 -0.118499 -7.87877e-21)
(-0.035587 -0.14551 -9.45759e-21)
(-0.0082891 -0.172094 -2.02773e-20)
(0.0583628 -0.178209 3.64872e-20)
(-0.00688719 0.00601549 3.28831e-20)
(-0.0168491 -0.00016084 -5.36073e-20)
(-0.030009 -0.016308 -4.16587e-20)
(-0.0409105 -0.0355242 1.8018e-20)
(-0.0463596 -0.0562954 3.70199e-20)
(-0.0429891 -0.0790436 3.1628e-20)
(-0.0273363 -0.104541 -3.33933e-20)
(0.00429257 -0.132341 6.35245e-20)
(0.0452341 -0.16265 -1.91517e-20)
(0.131662 -0.164965 -4.16186e-20)
(-0.00906338 0.00970677 -4.92895e-20)
(-0.0197732 0.00833532 2.98555e-20)
(-0.0302766 -0.00486908 -1.45695e-20)
(-0.0361474 -0.0227164 1.51723e-21)
(-0.0343808 -0.0430472 1.57653e-20)
(-0.0215522 -0.0657162 -4.98997e-20)
(0.00596033 -0.0911306 4.39608e-20)
(0.0523674 -0.118662 -4.23746e-20)
(0.111268 -0.152476 6.59587e-20)
(0.218575 -0.148601 2.23622e-20)
(-0.0110329 0.0125467 1.05754e-20)
(-0.0221507 0.0151606 5.84405e-20)
(-0.0294439 0.00461881 -1.48454e-20)
(-0.0294414 -0.0118746 1.5079e-20)
(-0.0192785 -0.0316213 1.78412e-20)
(0.00458597 -0.0539245 -5.41332e-21)
(0.0459965 -0.0786932 3.81418e-20)
(0.108703 -0.105194 2.208e-21)
(0.188432 -0.1408 -4.14404e-20)
(0.317442 -0.130131 5.34778e-20)
(-0.0127096 0.0145291 -2.81207e-20)
(-0.0238117 0.0202313 -5.54399e-20)
(-0.0273245 0.0119837 4.83612e-20)
(-0.0205984 -0.00323844 2.44927e-20)
(-0.000857054 -0.0223111 -1.14095e-19)
(0.0355821 -0.0440395 9.33669e-20)
(0.0927916 -0.067752 -8.38913e-20)
(0.173565 -0.0927403 1.54266e-21)
(0.276067 -0.127477 -1.76795e-20)
(0.423134 -0.109863 -4.86301e-20)
(-0.0140289 0.0156898 2.45324e-20)
(-0.0246032 0.023537 -3.37698e-21)
(-0.0237309 0.0171383 -1.18737e-20)
(-0.00941413 0.00305589 -1.31376e-21)
(0.0211236 -0.0153136 -7.20206e-21)
(0.0716475 -0.0362647 -2.96752e-20)
(0.146385 -0.0584874 1.24196e-20)
(0.246498 -0.0814545 -1.97378e-20)
(0.373467 -0.112237 6.31921e-21)
(0.529556 -0.0881379 1.73967e-21)
(-0.0149475 0.0160994 -5.01201e-20)
(-0.0243842 0.0251383 -3.6882e-21)
(-0.0184494 0.0200903 5.55003e-21)
(0.00438009 0.00695586 2.27313e-21)
(0.0469718 -0.0106606 3.75073e-20)
(0.113125 -0.0305771 -1.09756e-19)
(0.206971 -0.0508024 7.35312e-20)
(0.327286 -0.0713516 -5.45376e-20)
(0.478896 -0.0939151 4.33768e-20)
(0.631186 -0.0660406 4.47454e-20)
(-0.0154398 0.015853 -6.1613e-21)
(-0.0230205 0.0251593 2.80176e-20)
(-0.011242 0.0209327 -3.54279e-20)
(0.021148 0.00855158 -1.11747e-20)
(0.0771349 -0.00819135 2.1651e-20)
(0.160492 -0.026726 1.04361e-19)
(0.27478 -0.0443148 -2.07466e-20)
(0.415849 -0.0618779 1.02883e-20)
(0.589346 -0.0718299 -5.10476e-20)
(0.726504 -0.0486716 2.11799e-20)
(-0.0154905 0.0150595 -1.84212e-20)
(-0.0203709 0.0237753 -1.43456e-20)
(-0.00181795 0.0198621 3.50066e-21)
(0.0413269 0.00809075 1.40451e-20)
(0.112198 -0.00758768 -4.1824e-20)
(0.214327 -0.0242212 -1.70159e-20)
(0.349906 -0.0383885 -5.31864e-20)
(0.511442 -0.0517584 5.30441e-20)
(0.699684 -0.0482402 5.38349e-20)
(0.819933 -0.0440642 -2.18773e-20)
(-0.0150858 0.0138293 -8.77487e-21)
(-0.0162749 0.0211982 3.57561e-20)
(0.0101711 0.017162 -4.02699e-20)
(0.0654573 0.00594159 -4.70404e-21)
(0.152826 -0.00834141 -1.91059e-20)
(0.275168 -0.0223519 4.17166e-20)
(0.432121 -0.0321852 5.35157e-20)
(0.611948 -0.0397581 -5.01572e-20)
(0.803379 -0.0288919 5.11074e-20)
(0.935309 -0.0341845 6.44625e-21)
(-0.0142031 0.0122639 -2.53881e-20)
(-0.0105442 0.0176617 -7.24207e-20)
(0.0251299 0.0131849 7.09001e-20)
(0.0941461 0.00259147 1.028e-20)
(0.199683 -0.00978516 1.52116e-20)
(0.343309 -0.0202496 8.91033e-21)
(0.520562 -0.0248035 4.04651e-20)
(0.713911 -0.025696 2.91123e-20)
(0.902483 -0.0110539 -1.00072e-19)
(1.03509 -0.0137154 -4.63635e-20)
(-0.0128015 0.0104507 -8.6914e-20)
(-0.00295705 0.0134075 1.75563e-20)
(0.0435043 0.00833546 -3.9974e-20)
(0.128009 -0.00137646 7.85657e-21)
(0.253307 -0.011136 1.27357e-20)
(0.418566 -0.0169896 -9.04879e-20)
(0.61349 -0.0154568 3.93814e-20)
(0.813852 -0.00972305 -2.60866e-20)
(0.993433 0.00746162 2.6906e-20)
(1.11451 0.00709312 -8.94198e-21)
(-0.0108164 0.00845969 3.14145e-20)
(0.00674033 0.00867515 3.38733e-20)
(0.0657542 0.00305093 -1.84565e-21)
(0.167596 -0.005316 -1.10091e-20)
(0.313945 -0.0115578 5.15597e-22)
(0.500083 -0.0117283 9.36786e-22)
(0.708331 -0.00367718 -5.99895e-20)
(0.908448 0.00790924 7.84807e-21)
(1.0732 0.026417 7.0875e-20)
(1.17889 0.0277588 3.05656e-20)
(-0.00815775 0.00634623 -2.12521e-20)
(0.0188252 0.00369827 -1.58386e-20)
(0.0923148 -0.00221509 6.7928e-20)
(0.213298 -0.00855418 1.72729e-21)
(0.381404 -0.0102385 -2.83743e-20)
(0.586258 -0.00383985 7.65387e-20)
(0.802044 0.0106087 1.64506e-20)
(0.994865 0.0267709 5.69256e-22)
(1.14084 0.0454938 -3.13237e-20)
(1.22805 0.0475071 -3.90213e-20)
(-0.00471242 0.00415618 4.42838e-20)
(0.0335832 -0.00129449 -1.24295e-20)
(0.123553 -0.00700566 -7.3712e-21)
(0.265261 -0.0104269 -2.81831e-20)
(0.454944 -0.00647612 4.64858e-20)
(0.674845 0.00699145 -2.28364e-20)
(0.891622 0.0271397 -2.53528e-20)
(1.07123 0.0463776 -6.14986e-21)
(1.19613 0.0642973 -1.78819e-20)
(1.26483 0.0660214 1.85413e-20)
(-0.00035114 0.00193365 -1.63385e-20)
(0.0512876 -0.00607324 -9.6867e-20)
(0.159724 -0.0108677 1.01395e-20)
(0.323313 -0.0103135 3.49128e-20)
(0.533256 0.000243211 2.50983e-20)
(0.763248 0.0207591 -8.30306e-20)
(0.974557 0.0454644 5.26519e-20)
(1.13665 0.0662758 -2.3691e-20)
(1.23994 0.0825397 3.47156e-20)
(1.2912 0.0833293 9.23637e-21)
(0.0050623 -0.000270845 -1.78178e-20)
(0.0721769 -0.0103985 3.44299e-20)
(0.200927 -0.0133555 4.48021e-20)
(0.386913 -0.00767045 -3.22648e-20)
(0.614558 0.0101937 1.19321e-20)
(0.848898 0.0372017 -7.29369e-20)
(1.0491 0.0650781 -1.38691e-20)
(1.19109 0.0861065 1.10825e-20)
(1.27353 0.100069 -2.64558e-20)
(1.30935 0.0995028 -2.6133e-20)
(0.0116607 -0.00239338 -2.29363e-20)
(0.0964313 -0.0140129 -7.66667e-21)
(0.247077 -0.0140336 -8.10209e-20)
(0.455152 -0.00206578 -1.26626e-20)
(0.696787 0.0234061 -1.39253e-21)
(0.929578 0.0559107 4.33555e-21)
(1.1143 0.0855163 7.59929e-21)
(1.23517 0.105622 -3.48379e-20)
(1.29837 0.116839 6.46682e-22)
(1.32107 0.114722 1.81449e-20)
(0.0195629 -0.00435187 -5.94755e-21)
(0.124151 -0.0166361 2.81246e-20)
(0.297875 -0.0124845 3.95649e-20)
(0.526792 0.00679249 2.47305e-20)
(0.777837 0.0397098 -7.37045e-21)
(1.00363 0.0764294 -5.99912e-21)
(1.16991 0.106399 5.92501e-20)
(1.26986 0.124676 7.63602e-21)
(1.31597 0.132888 2.58844e-20)
(1.32787 0.129166 -1.08781e-20)
(0.028865 -0.00604414 5.69159e-20)
(0.15534 -0.0179648 3.69598e-20)
(0.352802 -0.0083238 -3.74218e-20)
(0.60036 0.019041 -7.44488e-21)
(0.855784 0.0588 3.82883e-21)
(1.06998 0.0983211 -1.40384e-20)
(1.2162 0.12744 -3.03019e-20)
(1.29631 0.143211 -5.06247e-21)
(1.32769 0.148303 3.97781e-22)
(1.33095 0.143015 1.18204e-20)
(0.0396321 -0.00734879 6.9048e-21)
(0.189884 -0.0176791 -2.01137e-20)
(0.411129 -0.00122177 4.75837e-20)
(0.674268 0.0346658 3.09825e-20)
(0.929037 0.0803049 8.59216e-22)
(1.12811 0.121202 2.18709e-20)
(1.25378 0.148442 3.25072e-21)
(1.3157 0.161225 -2.26523e-20)
(1.33469 0.163194 1.88173e-20)
(1.33121 0.156424 2.32846e-23)
(0.0518922 -0.00812832 -4.67141e-20)
(0.22755 -0.015455 -1.37739e-20)
(0.471936 0.00907245 -1.24884e-20)
(0.746949 0.0535257 -2.16741e-20)
(0.99641 0.103836 5.01783e-21)
(1.17795 0.144756 1.09175e-22)
(1.28344 0.169278 1.65805e-20)
(1.32914 0.178757 -2.68623e-21)
(1.33795 0.177674 -1.94163e-20)
(1.3293 0.169518 -1.7706e-20)
(0.0656309 -0.00823407 3.77746e-21)
(0.267978 -0.0109812 2.22192e-20)
(0.534168 0.0227118 1.07343e-20)
(0.816966 0.0753843 -3.35853e-20)
(1.05711 0.129017 -1.70609e-21)
(1.2197 0.168726 -1.43328e-20)
(1.30604 0.189874 3.68316e-22)
(1.33762 0.195866 6.67311e-21)
(1.33822 0.191845 -7.26469e-21)
(1.32569 0.182388 2.00586e-20)
(0.0807883 -0.00751225 8.83653e-21)
(0.310683 -0.00397878 -2.1683e-20)
(0.596691 0.0397416 -5.12035e-20)
(0.88309 0.0999431 4.71398e-20)
(1.1107 0.155502 -3.5143e-21)
(1.25382 0.192913 1.0395e-20)
(1.32246 0.210196 -1.40032e-21)
(1.34197 0.212617 9.81291e-21)
(1.3361 0.20579 -7.64987e-22)
(1.3207 0.195095 -1.55236e-20)
(0.0972572 -0.00581071 -1.7966e-20)
(0.355077 0.00577977 2.81436e-20)
(0.658361 0.0601019 2.32805e-20)
(0.944337 0.126868 -3.35219e-20)
(1.15703 0.182976 -5.52859e-21)
(1.28084 0.217162 2.11899e-21)
(1.33349 0.23023 2.09933e-20)
(1.34289 0.229065 1.0372e-21)
(1.33202 0.219569 3.99389e-21)
(1.31454 0.20767 -8.59404e-21)
(0.114883 -0.00298616 1.36267e-20)
(0.40048 0.0184543 -1.22662e-20)
(0.71808 0.083637 -1.04162e-20)
(0.999976 0.155806 1.78697e-20)
(1.19614 0.211159 6.17275e-21)
(1.30137 0.241348 4.6353e-21)
(1.33985 0.249973 -2.13596e-20)
(1.34093 0.245256 -7.24055e-21)
(1.32627 0.233219 -6.43267e-21)
(1.30734 0.220119 2.82889e-21)
(0.133467 0.00108867 -6.76169e-21)
(0.446153 0.0341253 -1.55852e-22)
(0.774853 0.110111 1.97052e-20)
(1.0495 0.186403 -7.23347e-21)
(1.22826 0.239798 -3.17788e-21)
(1.316 0.26537 -2.09123e-21)
(1.34214 0.269419 5.15274e-21)
(1.33652 0.261216 8.84235e-21)
(1.31909 0.246749 -2.80086e-22)
(1.29918 0.232426 3.16353e-21)
(0.152769 0.00651807 4.76106e-21)
(0.49133 0.0527883 -1.33538e-21)
(0.827811 0.139225 -3.52207e-21)
(1.09262 0.218304 -3.18745e-21)
(1.25368 0.268664 2.86479e-21)
(1.3253 0.289139 2.22342e-21)
(1.3409 0.288558 -2.04605e-21)
(1.32998 0.276949 7.3436e-22)
(1.3106 0.260146 1.02345e-21)
(1.2901 0.244561 -1.34649e-21)
(0.172515 0.0133773 2.54228e-21)
(0.535242 0.0743533 7.26235e-22)
(0.876236 0.170631 -4.34299e-21)
(1.12919 0.251161 -3.45988e-21)
(1.27276 0.297545 3.59976e-21)
(1.3298 0.312572 7.02379e-22)
(1.33653 0.307367 -1.62316e-21)
(1.32155 0.292442 1.5215e-21)
(1.3009 0.273377 8.41225e-22)
(1.28014 0.256477 -9.55457e-22)
(0.192404 0.0217075 -9.98495e-22)
(0.577153 0.0986487 2.02462e-21)
(0.91956 0.203946 1.33491e-20)
(1.1592 0.284634 -5.91258e-21)
(1.2859 0.326243 -2.902e-21)
(1.32995 0.335583 -3.25136e-21)
(1.32939 0.325808 6.63375e-21)
(1.3114 0.307658 4.41175e-21)
(1.29005 0.286386 3.5003e-21)
(1.26932 0.268119 1.88148e-21)
(0.21212 0.0315125 2.02851e-20)
(0.616379 0.125429 -1.11517e-20)
(0.957362 0.238762 -1.27189e-20)
(1.18274 0.318391 1.72267e-20)
(1.29348 0.354568 9.02397e-21)
(1.32618 0.358083 -5.97077e-22)
(1.31974 0.343826 -1.10342e-20)
(1.29966 0.322541 -7.93209e-21)
(1.27809 0.299101 -8.17385e-21)
(1.25764 0.279421 4.81174e-21)
(0.231337 0.0427568 -2.74112e-20)
(0.652311 0.154386 2.5745e-20)
(0.989353 0.274659 2.95422e-20)
(1.19999 0.352111 -2.90724e-20)
(1.29589 0.382337 -1.00494e-20)
(1.31883 0.379976 6.40048e-21)
(1.30781 0.361354 1.15899e-20)
(1.28641 0.337017 1.80147e-21)
(1.26502 0.311432 -2.97076e-22)
(1.2451 0.290309 -6.52136e-21)
(0.249731 0.0553658 -3.90841e-21)
(0.684425 0.185155 -3.61195e-20)
(1.01537 0.311206 -3.86288e-20)
(1.21116 0.38548 4.3187e-20)
(1.2935 0.409367 -4.88812e-21)
(1.30821 0.401158 8.89318e-21)
(1.29377 0.378311 1.73003e-21)
(1.27172 0.351005 -4.91126e-21)
(1.25085 0.323291 2.63064e-21)
(1.23159 0.300704 -3.34056e-22)
(0.266991 0.0692273 7.95298e-21)
(0.712289 0.217333 2.2313e-20)
(1.03534 0.347974 1.26591e-20)
(1.21652 0.418195 -9.96567e-21)
(1.28665 0.435478 -1.53287e-20)
(1.29461 0.421514 -1.42551e-20)
(1.27777 0.394604 -2.85835e-21)
(1.25565 0.364424 7.50333e-21)
(1.23556 0.334626 -1.58176e-21)
(1.21694 0.310549 3.60914e-21)
(0.282821 0.0841945 -2.99159e-20)
(0.735573 0.250483 -2.79276e-20)
(1.0493 0.384533 -4.37787e-21)
(1.21635 0.449963 -4.96717e-21)
(1.27569 0.46049 -1.12134e-20)
(1.27825 0.440921 6.84502e-21)
(1.25992 0.410127 -1.24799e-21)
(1.23823 0.377181 -6.58172e-21)
(1.2192 0.345433 5.95099e-21)
(1.20119 0.319797 -8.44792e-21)
(0.296958 0.100089 7.22755e-21)
(0.754044 0.284155 2.36286e-20)
(1.05735 0.420463 2.04421e-20)
(1.21096 0.4805 2.21779e-20)
(1.26093 0.484223 5.05188e-22)
(1.25935 0.459249 1.9173e-20)
(1.24032 0.424761 1.21142e-21)
(1.21953 0.389152 -2.22812e-20)
(1.2018 0.355648 1.58369e-20)
(1.18474 0.328304 5.8211e-21)
(0.309169 0.116706 1.93252e-20)
(0.767562 0.317889 4.30073e-20)
(1.05964 0.455358 -5.72396e-21)
(1.20067 0.509534 -2.78422e-20)
(1.24265 0.506501 1.2547e-20)
(1.23807 0.476368 -1.29889e-20)
(1.21906 0.438377 -1.71225e-20)
(1.19968 0.400236 -1.36744e-21)
(1.18333 0.365054 -1.30181e-20)
(1.16766 0.336116 4.9947e-21)
(0.319261 0.133817 8.98361e-21)
(0.776072 0.351228 6.52242e-21)
(1.05639 0.488827 5.32454e-20)
(1.18581 0.536806 9.92886e-21)
(1.22114 0.527155 -8.60247e-21)
(1.2146 0.492138 -4.43303e-21)
(1.19636 0.450844 2.60205e-20)
(1.17866 0.410325 2.1255e-20)
(1.16383 0.373564 1.04922e-20)
(1.14987 0.343057 -1.3876e-21)
(0.327081 0.151183 1.86647e-21)
(0.779594 0.383725 -4.3808e-20)
(1.04788 0.520495 -6.24676e-20)
(1.16672 0.562069 1.87735e-21)
(1.19667 0.546024 1.21808e-20)
(1.18919 0.506397 -1.6751e-20)
(1.17229 0.46204 -3.78263e-20)
(1.15648 0.419327 -1.11843e-20)
(1.1434 0.381056 -6.64756e-22)
(1.13135 0.34905 5.08317e-21)
(0.33252 0.168553 -1.55083e-20)
(0.778224 0.41495 3.89158e-20)
(1.03442 0.550016 3.74003e-20)
(1.14374 0.585083 -3.42668e-20)
(1.16951 0.562917 5.25729e-21)
(1.16199 0.519028 3.99802e-20)
(1.14687 0.471837 -8.63491e-21)
(1.13326 0.427124 7.34607e-21)
(1.12212 0.387444 -3.38896e-21)
(1.11216 0.354011 -4.49361e-21)
(0.335514 0.185673 -3.46745e-20)
(0.772141 0.444489 -6.14435e-20)
(1.0164 0.577096 -1.20309e-20)
(1.11714 0.605609 1.96577e-20)
(1.13992 0.577668 1.90602e-20)
(1.13315 0.529868 -3.96223e-20)
(1.12027 0.480125 2.13943e-20)
(1.10908 0.433611 -1.08936e-20)
(1.10004 0.392632 8.59969e-21)
(1.09237 0.357876 3.4272e-22)
(0.336047 0.202288 2.64749e-20)
(0.761612 0.471935 1.9766e-21)
(0.99417 0.601485 -5.86242e-21)
(1.08718 0.623437 -2.40512e-20)
(1.10816 0.59009 1.52922e-20)
(1.10285 0.538784 3.48931e-21)
(1.0926 0.486782 -1.18776e-20)
(1.08406 0.438688 2.28955e-21)
(1.07727 0.39653 -2.13509e-21)
(1.07206 0.360573 8.47706e-22)
(0.334172 0.218149 -7.13845e-21)
(0.746972 0.496945 -9.8271e-21)
(0.96777 0.622778 2.53524e-20)
(1.05435 0.638494 1.17818e-20)
(1.07455 0.600016 -1.60308e-20)
(1.07129 0.545647 2.18932e-20)
(1.06401 0.491701 1.75916e-21)
(1.0583 0.44226 2.16346e-21)
(1.05387 0.399039 8.7036e-22)
(1.05132 0.362013 2.43155e-22)
(0.329983 0.232999 4.60836e-20)
(0.72849 0.519415 3.56042e-20)
(0.937426 0.640606 -2.71372e-21)
(1.01911 0.650462 -5.35435e-21)
(1.03934 0.607393 -6.44551e-21)
(1.03865 0.550353 -3.14346e-21)
(1.03464 0.494781 2.05974e-21)
(1.03191 0.444246 1.48334e-21)
(1.02995 0.40007 -3.98296e-22)
(1.03021 0.3621 -3.0307e-21)
(0.323556 0.246473 3.42822e-21)
(0.706231 0.538965 5.92822e-21)
(0.90405 0.655164 -3.22232e-20)
(0.981822 0.65911 1.41587e-20)
(1.00278 0.612078 3.31111e-21)
(1.00512 0.552802 -7.36605e-21)
(1.00464 0.495935 2.72328e-21)
(1.005 0.444575 1.14552e-21)
(1.00564 0.399557 -3.47304e-21)
(1.00896 0.360785 3.97465e-21)
(0.314884 0.25835 -1.74856e-20)
(0.680405 0.555 -1.24414e-20)
(0.868129 0.666141 9.96215e-21)
(0.942758 0.66446 2.31527e-21)
(0.965132 0.613979 -5.6643e-21)
(0.970906 0.552903 4.83617e-21)
(0.974147 0.495075 2.18575e-21)
(0.977681 0.443159 -7.66174e-21)
(0.981179 0.397437 2.00249e-20)
(0.98823 0.358106 8.19761e-21)
(0.3042 0.268465 -1.3149e-20)
(0.651659 0.567406 3.17162e-20)
(0.829937 0.673303 -1.98826e-20)
(0.902258 0.666415 -3.1376e-21)
(0.926658 0.613013 -3.02053e-21)
(0.936187 0.550579 -7.14309e-22)
(0.943267 0.49212 -7.29289e-21)
(0.95007 0.439867 3.86622e-21)
(0.956999 0.39352 -4.84525e-22)
(0.96873 0.354117 -3.59681e-21)
(0.291726 0.276733 -1.27547e-21)
(0.620413 0.576044 -9.47508e-21)
(0.789882 0.676484 4.6825e-21)
(0.86067 0.664898 -2.25798e-21)
(0.887621 0.609123 4.66991e-21)
(0.90115 0.545782 4.66541e-21)
(0.91213 0.487025 1.42105e-20)
(0.922358 0.434597 -1.08391e-20)
(0.933449 0.387424 -2.06685e-20)
(0.949757 0.348154 9.00931e-21)
(0.277627 0.282973 -5.94948e-22)
(0.587104 0.580782 -2.34838e-21)
(0.748388 0.675596 1.00427e-21)
(0.818342 0.659847 6.20183e-21)
(0.848285 0.60227 -1.11904e-20)
(0.865991 0.538485 -1.87402e-20)
(0.880925 0.479795 -5.51799e-21)
(0.894814 0.427474 -1.60235e-21)
(0.910508 0.379331 2.81049e-20)
(0.928425 0.33639 -5.97917e-21)
(0.262124 0.287046 6.26644e-22)
(0.552161 0.581515 -4.1976e-21)
(0.705884 0.670591 4.83537e-22)
(0.775625 0.65123 8.3484e-22)
(0.808918 0.592431 -8.30392e-21)
(0.830929 0.528666 3.60004e-20)
(0.849911 0.470401 -2.52322e-20)
(0.867657 0.418594 3.01302e-20)
(0.887076 0.371197 -2.11343e-20)
(0.90473 0.329727 -2.80342e-20)
(0.245463 0.288847 -1.1101e-21)
(0.516014 0.578175 -9.54073e-22)
(0.662792 0.661455 4.59308e-22)
(0.732862 0.639045 1.31268e-20)
(0.769784 0.579602 -5.49634e-21)
(0.79619 0.516308 8.31662e-21)
(0.819296 0.458792 1.47763e-20)
(0.84092 0.407675 -7.78785e-21)
(0.863572 0.360838 -2.0421e-20)
(0.882258 0.319667 2.81807e-20)
(0.227897 0.288299 1.08984e-20)
(0.479091 0.570729 1.43873e-20)
(0.61953 0.648205 -1.38146e-20)
(0.690393 0.623311 -1.21518e-20)
(0.731151 0.563798 4.2657e-20)
(0.761995 0.501427 -4.31701e-20)
(0.78923 0.445021 5.17111e-20)
(0.814618 0.394947 -1.29241e-20)
(0.840213 0.349219 1.38533e-20)
(0.860605 0.309233 2.58292e-20)
(0.209684 0.285357 -4.03797e-21)
(0.441817 0.559186 -1.40682e-20)
(0.576503 0.630888 -8.46153e-21)
(0.648549 0.604079 -4.65147e-21)
(0.693281 0.545059 5.26668e-21)
(0.728561 0.484049 -1.13265e-20)
(0.759885 0.429095 -1.54655e-20)
(0.788913 0.380348 -3.36509e-20)
(0.817333 0.335979 3.3367e-20)
(0.839831 0.29738 -1.07472e-20)
(0.191085 0.279999 2.63073e-20)
(0.404612 0.543587 -3.15526e-21)
(0.534107 0.60958 -1.18363e-20)
(0.607652 0.581419 1.52335e-20)
(0.656432 0.52344 -2.71749e-20)
(0.6961 0.464222 7.25269e-20)
(0.731428 0.411064 -3.85911e-20)
(0.76397 0.363959 3.48859e-20)
(0.795151 0.321257 -6.39824e-20)
(0.819959 0.284234 -1.695e-20)
(0.172359 0.272237 -8.39256e-21)
(0.367884 0.524015 2.78513e-20)
(0.492725 0.584388 6.56321e-21)
(0.568015 0.555428 -1.40858e-20)
(0.620854 0.49902 -2.42603e-20)
(0.664818 0.442009 -8.57309e-22)
(0.704031 0.390983 1.28695e-20)
(0.739954 0.345817 -3.14419e-20)
(0.773821 0.305035 1.54467e-20)
(0.801032 0.269738 2.04888e-21)
(0.153765 0.262104 -4.56507e-20)
(0.332028 0.500582 -1.12307e-20)
(0.452723 0.555446 -3.08922e-21)
(0.529936 0.526226 3.63931e-20)
(0.586788 0.471898 -3.375e-20)
(0.634913 0.417492 -8.75298e-21)
(0.677864 0.368923 -5.31351e-21)
(0.717023 0.325984 9.81872e-21)
(0.753484 0.287357 -1.23772e-20)
(0.78312 0.253929 -1.92834e-20)
(0.135551 0.249664 4.02839e-20)
(0.297425 0.473437 -2.28439e-20)
(0.414451 0.522916 1.12872e-21)
(0.493701 0.493954 -5.51996e-20)
(0.554466 0.442191 5.97425e-20)
(0.606578 0.39077 -1.88486e-20)
(0.653093 0.344968 1.1284e-20)
(0.695324 0.304526 9.76655e-21)
(0.734262 0.268269 2.83133e-20)
(0.766295 0.236856 -1.16127e-20)
(0.117959 0.235004 -1.64105e-20)
(0.264434 0.442758 4.7376e-20)
(0.378239 0.486985 2.66486e-20)
(0.459579 0.458775 4.34689e-20)
(0.524106 0.410033 -1.00437e-20)
(0.579997 0.361956 4.05112e-21)
(0.629874 0.319218 3.24276e-20)
(0.674994 0.281527 7.21051e-21)
(0.71627 0.247837 6.95328e-22)
(0.750633 0.218589 -1.38625e-20)
(0.10122 0.218234 -3.75796e-20)
(0.233395 0.408753 -2.77572e-21)
(0.344396 0.447866 -1.56078e-20)
(0.427822 0.420874 -6.98742e-20)
(0.495915 0.375579 -6.73793e-20)
(0.555344 0.33118 1.1256e-20)
(0.608356 0.291782 -2.76095e-20)
(0.656162 0.257078 1.75689e-20)
(0.699618 0.226139 9.53697e-21)
(0.736211 0.199209 1.99454e-20)
(0.0855481 0.199486 5.50424e-20)
(0.204621 0.371657 -4.49934e-20)
(0.313208 0.405794 -2.27862e-20)
(0.398666 0.380452 4.04004e-20)
(0.470084 0.338997 4.58185e-20)
(0.53278 0.298587 -1.51426e-20)
(0.588678 0.262785 -1.94209e-21)
(0.638949 0.231285 -5.47172e-20)
(0.684409 0.203266 -3.09177e-20)
(0.723099 0.178805 1.17676e-20)
(0.0711453 0.178915 -3.12886e-20)
(0.178403 0.33173 1.31848e-20)
(0.284938 0.361025 4.83291e-20)
(0.372324 0.33773 -2.1588e-20)
(0.446791 0.300473 1.67384e-21)
(0.512454 0.264335 6.10023e-20)
(0.570967 0.232362 2.82349e-21)
(0.623464 0.204264 5.23579e-20)
(0.670739 0.179318 2.18096e-20)
(0.711365 0.157475 -3.46455e-20)
(0.0581938 0.156692 4.31859e-20)
(0.155002 0.289254 4.75041e-21)
(0.259821 0.313835 3.12085e-21)
(0.348992 0.292944 4.39923e-20)
(0.426196 0.260206 -5.88575e-21)
(0.494502 0.228592 -3.82606e-20)
(0.555339 0.200659 1.87061e-20)
(0.60981 0.17614 -2.98718e-20)
(0.658695 0.154407 -1.24923e-20)
(0.70107 0.135321 1.25973e-20)
(0.0468572 0.133005 -2.69424e-20)
(0.13465 0.244532 -5.16522e-20)
(0.238068 0.264515 1.18961e-20)
(0.32884 0.246343 -2.32883e-20)
(0.408439 0.218407 -1.4075e-20)
(0.479044 0.19154 3.40183e-20)
(0.541898 0.167833 -8.2305e-21)
(0.598076 0.147046 7.60629e-21)
(0.648355 0.128649 -9.23069e-21)
(0.69227 0.112451 1.82978e-20)
(0.0372781 0.108058 9.70934e-21)
(0.117549 0.197884 3.47387e-20)
(0.219861 0.213373 -4.81681e-20)
(0.312019 0.198192 2.27646e-20)
(0.393646 0.175299 -1.03613e-20)
(0.466186 0.15337 -2.91231e-20)
(0.530733 0.134047 2.37372e-20)
(0.588342 0.117126 4.98084e-21)
(0.639791 0.102172 -7.70478e-22)
(0.685013 0.088978 -2.1268e-20)
(0.0295771 0.0820669 3.16431e-21)
(0.103869 0.149645 1.11484e-20)
(0.205352 0.160729 4.35269e-20)
(0.298653 0.148765 -8.32723e-21)
(0.38192 0.131113 -6.55773e-21)
(0.456015 0.11428 2.43295e-21)
(0.521921 0.0994735 1.05091e-21)
(0.580674 0.0865276 8.85008e-21)
(0.63306 0.0751072 -1.16128e-20)
(0.679341 0.06502 -7.38409e-21)
(0.0238518 0.0552572 -7.92738e-21)
(0.0937469 0.100164 -1.35725e-20)
(0.194664 0.106915 -3.37691e-20)
(0.288846 0.098343 1.69805e-20)
(0.373345 0.0860895 1.38483e-20)
(0.448604 0.074476 5.87566e-22)
(0.515524 0.0642886 -2.31066e-20)
(0.57513 0.0554039 -1.02413e-20)
(0.628215 0.047586 8.12851e-21)
(0.675288 0.0406776 8.68568e-21)
(0.020176 0.0278634 1.37171e-21)
(0.0872856 0.049798 -2.82724e-21)
(0.18789 0.0522685 6.41871e-21)
(0.282672 0.0472172 -4.34569e-21)
(0.367985 0.0404742 -3.81225e-21)
(0.444005 0.0341691 -2.58652e-21)
(0.511587 0.0286747 4.74802e-21)
(0.571747 0.0239112 1.80755e-20)
(0.625282 0.0197372 2.62128e-21)
(0.672863 0.0160178 -4.64205e-21)
(0.0185988 0.000125753 1.69756e-21)
(0.0845542 -0.00108904 -4.66793e-21)
(0.185093 -0.00286414 -5.28759e-21)
(0.280183 -0.00431776 -3.66774e-21)
(0.365881 -0.00548253 3.49038e-21)
(0.442256 -0.00642538 1.57413e-21)
(0.510141 -0.00718074 -1.5683e-21)
(0.570549 -0.007782 -7.1351e-21)
(0.624263 -0.00826669 2.34775e-21)
(0.671997 -0.00868529 -2.19497e-21)
(0.0191445 -0.0277122 -1.6854e-21)
(0.0855869 -0.052128 4.63628e-21)
(0.186302 -0.0581346 5.25731e-21)
(0.281405 -0.0559639 -5.03242e-21)
(0.367056 -0.0515277 4.42872e-21)
(0.443374 -0.0470904 2.2169e-21)
(0.511204 -0.0430912 -3.53864e-21)
(0.571562 -0.0395161 -4.10879e-21)
(0.62524 -0.0362945 6.05067e-22)
(0.672938 -0.0333582 -1.70904e-21)
(0.0218122 -0.0554057 1.84883e-21)
(0.0903833 -0.102949 -5.52351e-21)
(0.191518 -0.113193 1.23277e-20)
(0.286336 -0.107422 -1.08269e-20)
(0.371509 -0.0974077 -5.17952e-22)
(0.447359 -0.0876087 -7.21138e-21)
(0.514773 -0.0788713 1.17115e-20)
(0.574778 -0.0711358 1.59173e-20)
(0.628169 -0.0642322 2.8389e-21)
(0.675532 -0.0580288 -6.11399e-21)
(0.0265758 -0.0827112 -1.56791e-21)
(0.0989075 -0.153183 -1.15986e-20)
(0.200709 -0.167691 -2.70259e-20)
(0.294951 -0.158395 2.34024e-20)
(0.379217 -0.14287 4.81114e-21)
(0.454192 -0.127763 4.26909e-21)
(0.520832 -0.114333 -2.101e-20)
(0.58018 -0.102474 -1.24055e-20)
(0.633033 -0.0919177 -2.76855e-21)
(0.679762 -0.0824859 1.8876e-20)
(0.0333843 -0.109389 -5.51863e-21)
(0.111089 -0.202466 6.99358e-21)
(0.213811 -0.221283 4.87991e-20)
(0.307197 -0.208587 -4.40406e-21)
(0.390137 -0.187663 -1.25615e-20)
(0.463835 -0.167338 8.99539e-21)
(0.529349 -0.14929 6.61099e-22)
(0.58774 -0.13337 3.16584e-21)
(0.639809 -0.119208 -6.95115e-21)
(0.685625 -0.106599 -1.83563e-20)
(0.0421624 -0.135204 -3.70523e-21)
(0.126824 -0.250441 2.02088e-20)
(0.230732 -0.27363 -4.89756e-20)
(0.322998 -0.257708 2.11789e-20)
(0.404205 -0.231542 2.08651e-22)
(0.476233 -0.206123 -2.69188e-20)
(0.540275 -0.183561 1.19231e-20)
(0.597418 -0.163665 -1.12547e-21)
(0.648461 -0.145967 4.52281e-21)
(0.693099 -0.130261 -1.32417e-21)
(0.0528106 -0.159931 -4.23404e-20)
(0.145974 -0.296759 -5.07288e-20)
(0.251346 -0.324402 1.33743e-20)
(0.34225 -0.305477 -2.42718e-20)
(0.421335 -0.274267 -6.81785e-21)
(0.491314 -0.243912 1.02675e-20)
(0.553549 -0.216968 3.79486e-21)
(0.609155 -0.193207 1.40615e-20)
(0.658939 -0.172061 -3.02619e-21)
(0.70215 -0.153357 1.63733e-20)
(0.0652063 -0.183355 4.04679e-20)
(0.168368 -0.341086 2.60618e-20)
(0.2755 -0.373278 -1.96114e-20)
(0.364827 -0.351618 3.30845e-20)
(0.441422 -0.315605 -2.76806e-21)
(0.508988 -0.280507 -3.5886e-20)
(0.569092 -0.24934 6.28659e-21)
(0.622884 -0.221847 -3.82311e-20)
(0.671182 -0.197359 1.51079e-21)
(0.712738 -0.175773 1.38513e-20)
(0.0792051 -0.205273 -2.96931e-20)
(0.193802 -0.383102 5.33225e-20)
(0.303011 -0.419952 2.09751e-20)
(0.390578 -0.39587 -2.61707e-20)
(0.464342 -0.355336 3.19577e-22)
(0.529148 -0.315716 6.60008e-20)
(0.586814 -0.280514 2.94692e-21)
(0.638525 -0.249443 2.92745e-20)
(0.68512 -0.221736 3.56569e-20)
(0.724813 -0.197396 -1.99886e-20)
(0.0946417 -0.225495 1.6624e-20)
(0.222043 -0.422504 -8.00068e-21)
(0.333669 -0.46413 -1.89186e-20)
(0.419331 -0.437981 1.40716e-20)