/*--------------------------------*- C++ -*----------------------------------*\
  =========                 |
  \\      /  F ield         | OpenFOAM: The Open Source CFD Toolbox
   \\    /   O peration     | Website:  https://openfoam.org
    \\  /    A nd           | Version:  7
     \\/     M anipulation  |
\*---------------------------------------------------------------------------*/
FoamFile
{
    version     2.0;
    format      ascii;
    class       volVectorField;
    location    "205";
    object      U;
}
// * * * * * * * * * * * * * * * * * * * * * * * * * * * * * * * * * * * * * //

dimensions      [0 1 -1 0 0 0 0];

internalField   nonuniform List<vector> 
2125
(
(-0.00182215 0.0365199 1.03354e-21)
(-0.00848169 0.100385 -2.95617e-21)
(-0.0207555 0.154297 -3.43984e-21)
(-0.0361557 0.19586 3.41409e-21)
(-0.0532625 0.226684 -3.13798e-21)
(-0.0702984 0.250861 -1.67612e-21)
(-0.0855903 0.27251 2.8778e-21)
(-0.0980622 0.294067 3.5841e-21)
(-0.106917 0.315853 -5.97509e-22)
(-0.111233 0.336361 1.78369e-21)
(-0.00281076 0.0380663 -1.14085e-21)
(-0.0099429 0.104481 3.51516e-21)
(-0.0206531 0.160542 -8.18718e-21)
(-0.033522 0.203634 7.40666e-21)
(-0.0475013 0.235083 3.36283e-22)
(-0.0610544 0.258879 5.45531e-21)
(-0.0725488 0.279286 -9.50917e-21)
(-0.0807427 0.299048 -1.40238e-20)
(-0.0846344 0.318822 -2.77795e-21)
(-0.0824599 0.337239 6.39841e-21)
(-0.00387254 0.0387038 1.04183e-21)
(-0.0116476 0.106662 7.6598e-21)
(-0.0209061 0.164424 1.80097e-20)
(-0.0312011 0.208947 -1.62427e-20)
(-0.0418356 0.241107 -3.63615e-21)
(-0.051534 0.264637 -3.33904e-21)
(-0.0587376 0.283828 1.70456e-20)
(-0.0620518 0.301667 1.07241e-20)
(-0.0603426 0.31916 2.70584e-21)
(-0.0507881 0.335243 -1.98047e-20)
(-0.00493298 0.0384844 3.69335e-21)
(-0.0134878 0.106965 -4.51483e-21)
(-0.0214767 0.165896 -3.33798e-20)
(-0.0292643 0.211668 2.96674e-21)
(-0.0364548 0.244576 9.12799e-21)
(-0.0420405 0.267937 -7.06354e-21)
(-0.04458 0.285945 -4.73957e-22)
(-0.0425579 0.301762 -2.88867e-21)
(-0.0347593 0.316693 6.69972e-21)
(-0.0172559 0.330232 1.97413e-20)
(-0.00592679 0.0374985 2.56984e-21)
(-0.0153631 0.105502 -1.4308e-20)
(-0.0223247 0.164996 3.4331e-20)
(-0.0277706 0.211737 -1.548e-20)
(-0.0315391 0.245351 -8.23873e-23)
(-0.0328791 0.268608 2.13267e-20)
(-0.0305012 0.285481 -9.88293e-21)
(-0.0228378 0.299211 1.24005e-21)
(-0.00866562 0.311363 -4.08017e-21)
(0.0171944 0.321958 1.30461e-21)
(-0.00680526 0.0358685 3.04756e-20)
(-0.0171876 0.102452 3.66952e-20)
(-0.0234097 0.161844 -9.3879e-21)
(-0.0267728 0.209164 1.77682e-20)
(-0.027255 0.243342 5.47892e-21)
(-0.0243372 0.266516 -7.95949e-21)
(-0.0169185 0.282307 -3.02914e-21)
(-0.00343061 0.293922 -1.32697e-20)
(0.0171524 0.303163 2.84333e-21)
(0.0516172 0.310362 -1.81781e-20)
(-0.00753932 0.0337387 -2.93429e-20)
(-0.0189007 0.0980534 -1.90639e-20)
(-0.0246978 0.156631 1.53694e-20)
(-0.0263105 0.204035 -2.63666e-20)
(-0.0237473 0.238525 2.87153e-21)
(-0.0166778 0.261562 3.06425e-20)
(-0.00422004 0.276312 -5.4692e-21)
(0.0151636 0.285837 3.67742e-20)
(0.0420131 0.292087 -7.56482e-22)
(0.0851744 0.295518 -1.5329e-20)
(-0.00812201 0.0312684 2.42894e-20)
(-0.020473 0.0925881 -4.35318e-20)
(-0.0261682 0.149621 -1.71483e-20)
(-0.0264104 0.196515 2.02197e-20)
(-0.0211281 0.230948 5.15862e-22)
(-0.0101206 0.253703 -5.72366e-20)
(0.00725938 0.267418 -3.25634e-21)
(0.0325148 0.274919 -2.84266e-20)
(0.0653528 0.278178 -3.72823e-20)
(0.117245 0.277461 2.24015e-20)
(-0.00856952 0.0286223 -1.36192e-20)
(-0.0219094 0.0863696 6.48333e-21)
(-0.0278152 0.141136 1.58727e-20)
(-0.0270843 0.186847 -1.37731e-20)
(-0.0194647 0.220737 -4.8712e-20)
(-0.00481672 0.242957 1.68917e-20)
(0.0172722 0.255591 2.59074e-21)
(0.048309 0.26116 4.22492e-20)
(0.0867601 0.261519 5.6555e-20)
(0.147544 0.256198 -2.60376e-20)
(-0.00892049 0.0259628 2.10898e-20)
(-0.0232486 0.0797224 1.89892e-20)
(-0.0296467 0.131539 -2.71408e-21)
(-0.0283222 0.175348 6.9156e-20)
(-0.0187622 0.208104 2.92312e-20)
(-0.000816439 0.22943 2.18259e-20)
(0.0257111 0.240856 3.07119e-20)
(0.062424 0.244593 -1.39203e-20)
(0.106064 0.242228 -1.8795e-20)
(0.176327 0.231749 -3.12269e-20)
(-0.00923313 0.0234409 -2.10981e-21)
(-0.0245582 0.0729646 -2.96685e-20)
(-0.0316773 0.121217 -2.12232e-20)
(-0.0300793 0.162392 -3.39066e-20)
(-0.0189374 0.193354 -2.65843e-20)
(0.00197865 0.213327 2.65718e-20)
(0.0326887 0.223332 -2.5411e-20)
(0.0750542 0.225333 -1.78193e-20)
(0.123518 0.220459 2.28251e-21)
(0.204768 0.204278 8.41577e-21)
(-0.00957995 0.0211889 -5.70987e-20)
(-0.0259228 0.0663896 2.71556e-20)
(-0.0339129 0.110559 1.96291e-20)
(-0.0322545 0.148401 1.29147e-20)
(-0.0197822 0.176879 -2.32021e-20)
(0.00388102 0.194976 -1.96583e-20)
(0.0386533 0.203272 2.83257e-20)
(0.0868909 0.203638 -2.29813e-20)
(0.140118 0.196417 -1.07089e-21)
(0.235426 0.174333 -2.45687e-20)
(-0.0100399 0.0193125 4.73039e-20)
(-0.0274267 0.0602495 1.89932e-20)
(-0.0363276 0.0999355 1.12903e-21)
(-0.0346596 0.133824 -2.3604e-20)
(-0.0209157 0.159159 1.84297e-21)
(0.00550012 0.174838 2.53127e-20)
(0.0445328 0.1811 -7.1418e-21)
(0.0993299 0.179978 -8.59335e-21)
(0.158021 0.170386 -2.02155e-20)
(0.272493 0.143158 3.73754e-20)
(-0.0106878 0.0178839 3.13402e-20)
(-0.0291321 0.0547396 -5.11364e-20)
(-0.0388343 0.0896767 -3.89537e-20)
(-0.036982 0.119116 1.68836e-20)
(-0.02173 0.140741 3.39188e-20)
(0.00782806 0.153515 2.80558e-20)
(0.0518741 0.157446 -2.9764e-20)
(0.114622 0.155068 5.79322e-20)
(0.180913 0.142809 -1.73436e-20)
(0.321264 0.112779 -4.36666e-20)
(-0.0115817 0.0169345 -4.75137e-20)
(-0.0310545 0.0499862 2.84937e-20)
(-0.0412563 0.0800558 -1.32253e-20)
(-0.0387508 0.104718 1.40257e-21)
(-0.021348 0.122218 1.39918e-20)
(0.0122951 0.131727 -4.4407e-20)
(0.0629034 0.133151 3.90468e-20)
(0.135837 0.129837 -3.78903e-20)
(0.213958 0.114485 6.21393e-20)
(0.386411 0.0856294 2.29522e-20)
(-0.0127502 0.0164517 9.80482e-21)
(-0.03314 0.0460338 5.46139e-20)
(-0.0433062 0.0712703 -1.35119e-20)
(-0.0393199 0.0910222 1.36653e-20)
(-0.018617 0.10419 1.54542e-20)
(0.020747 0.110272 -4.58331e-21)
(0.080414 0.109229 3.31105e-20)
(0.166535 0.105317 1.48187e-21)
(0.262977 0.0868851 -4.00152e-20)
(0.469481 0.0638268 5.44307e-20)
(-0.0141828 0.0163735 -2.64893e-20)
(-0.0352456 0.042834 -5.15804e-20)
(-0.0445848 0.0634338 4.45261e-20)
(-0.0378838 0.0783423 2.20222e-20)
(-0.0121635 0.0872064 -1.0111e-19)
(0.0353027 0.0899495 8.14833e-20)
(0.107422 0.0867834 -7.29244e-20)
(0.210189 0.0824736 9.79723e-22)
(0.332749 0.062332 -1.69187e-20)
(0.567027 0.0486285 -5.06479e-20)
(-0.0158271 0.0165931 2.26773e-20)
(-0.0371502 0.0402731 -3.00295e-21)
(-0.0445796 0.0565491 -1.09256e-20)
(-0.033532 0.0668749 -1.36575e-21)
(-0.0005179 0.0717051 -6.33161e-21)
(0.0580936 0.0714653 -2.59377e-20)
(0.146627 0.0668484 1.09353e-20)
(0.269517 0.0621183 -1.72335e-20)
(0.424822 0.0436087 5.04519e-21)
(0.671007 0.0403254 1.27686e-21)
(-0.0175802 0.0169742 -4.62715e-20)
(-0.0385673 0.0381605 -3.26388e-21)
(-0.0427214 0.0505065 5.01335e-21)
(-0.0253232 0.0566868 2.05651e-21)
(0.0177155 0.0579674 3.30341e-20)
(0.0909435 0.0553433 -9.53373e-20)
(0.199829 0.0502215 6.36583e-20)
(0.345889 0.0450341 -4.75445e-20)
(0.535894 0.0329098 4.11783e-20)
(0.772178 0.0376806 4.64861e-20)
(-0.0193023 0.0173571 -5.58322e-21)
(-0.0391364 0.0362345 2.5736e-20)
(-0.0384377 0.0451278 -3.20681e-20)
(-0.0123868 0.0477126 -9.98005e-21)
(0.0436881 0.0461009 1.90928e-20)
(0.135083 0.0418923 9.08028e-20)
(0.267517 0.0373444 -1.80445e-20)
(0.438694 0.032253 8.61445e-21)
(0.657809 0.030515 -4.73715e-20)
(0.865406 0.0362073 2.20004e-20)
(-0.02084 0.0175821 -1.68613e-20)
(-0.0384923 0.0342459 -1.3124e-20)
(-0.031148 0.0401553 3.28968e-21)
(0.00601195 0.0397778 1.25727e-20)
(0.0782012 0.0360761 -3.70565e-20)
(0.190999 0.0312542 -1.48383e-20)
(0.348801 0.0283542 -4.65289e-20)
(0.544677 0.0250112 4.77512e-20)
(0.779299 0.0335965 5.1213e-20)
(0.951978 0.0291137 -2.21624e-20)
(-0.0220206 0.0175184 -8.08074e-21)
(-0.0362809 0.0319439 3.28411e-20)
(-0.0203393 0.0353028 -3.65454e-20)
(0.0304583 0.0326794 -4.28969e-21)
(0.121683 0.0278049 -1.71745e-20)
(0.258421 0.0235033 3.69698e-20)
(0.441637 0.0233064 4.7197e-20)
(0.658108 0.023851 -4.53163e-20)
(0.890239 0.0368194 4.88318e-20)
(1.06378 0.0255814 6.76592e-21)
(-0.022665 0.0170515 -2.34661e-20)
(-0.0321374 0.0291155 -6.64361e-20)
(-0.00557212 0.0303589 6.47399e-20)
(0.0613737 0.0262467 9.25842e-21)
(0.17422 0.0212333 1.3316e-20)
(0.336371 0.0187381 8.41323e-21)
(0.542969 0.0222862 3.64552e-20)
(0.772084 0.0276831 2.67083e-20)
(0.99402 0.0422272 -9.4984e-20)
(1.15673 0.0344762 -4.68692e-20)
(-0.0257103 0.0256429 1.6084e-20)
(0.0135532 0.0251911 -3.67721e-20)
(0.0990513 0.0204114 7.10438e-21)
(0.235593 0.0164256 1.12553e-20)
(0.423237 0.0171205 -8.11635e-20)
(0.648881 0.0252782 3.59676e-20)
(0.881376 0.0353575 -2.4049e-20)
(1.08638 0.0510042 2.5294e-20)
(1.22712 0.0453188 -8.91736e-21)
(0.0374043 0.0198 -1.9113e-21)
(0.143672 0.0152657 -1.00197e-20)
(0.305272 0.013608 2.47064e-22)
(0.5168 0.0188327 6.00347e-22)
(0.755118 0.0320308 -5.45381e-20)
(0.982017 0.0460424 7.10985e-21)
(1.16463 0.0618878 6.81044e-20)
(1.28265 0.0574449 3.09481e-20)
(0.0663055 0.0143362 6.29128e-20)
(0.195286 0.0110822 1.62575e-21)
(0.382358 0.0131482 -2.64778e-20)
(0.614324 0.0239829 7.04179e-20)
(0.857701 0.0420901 1.55245e-20)
(1.07134 0.0589417 1.04413e-21)
(1.22892 0.0741744 -2.98553e-20)
(1.32304 0.0701456 -3.90968e-20)
(0.253753 0.00829507 -2.62193e-20)
(0.465507 0.0154689 4.27661e-20)
(0.712761 0.032522 -2.07854e-20)
(0.953384 0.0548889 -2.35295e-20)
(1.14813 0.0733878 -5.43785e-21)
(1.27983 0.0872698 -1.72802e-20)
(1.35199 0.0828914 1.88723e-20)
(0.552916 0.0209272 2.34239e-20)
(0.809084 0.044222 -7.8069e-20)
(1.03991 0.0698428 4.99979e-20)
(1.21226 0.0888362 -2.26042e-20)
(1.31892 0.100762 3.4152e-20)
(1.37149 0.0956205 9.44525e-21)
(1.11602 0.0864126 -1.2706e-20)
(1.26438 0.104875 1.07664e-20)
(1.34788 0.114407 -2.60271e-20)
(1.38383 0.10822 -2.64768e-20)
(1.30562 0.121214 -3.40428e-20)
(1.36847 0.128064 6.21427e-22)
(1.39067 0.120731 1.82887e-20)
(1.38228 0.141682 2.57099e-20)
(1.39343 0.133187 -1.10551e-20)
(-0.119303 0.362736 -1.48453e-22)
(-0.103525 0.373143 2.84008e-23)
(-0.0512682 0.304055 2.18648e-22)
(0.0265892 0.143142 -2.37089e-22)
(0.124371 -0.110207 6.66138e-23)
(0.237021 -0.387733 1.65903e-22)
(0.334519 -0.594346 -5.67985e-24)
(0.396414 -0.688883 -8.1502e-23)
(0.411599 -0.702711 -5.17424e-23)
(0.335422 -0.715391 -4.57924e-23)
(0.282824 -0.586258 1.52046e-23)
(0.430904 -0.22536 -8.96442e-23)
(0.618573 0.14947 5.49352e-23)
(0.755092 0.441387 -1.54109e-23)
(0.822864 0.515206 -7.40735e-24)
(0.856548 0.562315 -6.84902e-24)
(0.77747 0.576226 4.1111e-23)
(0.656135 0.543052 7.79488e-23)
(0.672152 0.298967 7.79442e-24)
(0.809288 -0.0876033 4.03305e-23)
(0.90905 -0.207059 -1.57003e-23)
(0.936432 -0.428254 -1.19252e-23)
(0.900756 -0.451352 -3.71474e-24)
(0.898042 -0.455579 -1.26629e-23)
(0.907743 -0.338444 -1.49702e-23)
(0.940823 0.0941282 -1.05127e-23)
(0.961861 0.186634 8.20568e-24)
(0.994423 0.522918 4.51457e-23)
(0.9734 0.461995 2.13807e-24)
(0.961167 -0.000901869 -2.01216e-24)
(-0.0806313 0.361559 7.37042e-23)
(-0.0544892 0.363365 -4.95294e-22)
(0.00825033 0.288538 -1.05721e-22)
(0.0905303 0.123768 6.27888e-22)
(0.187506 -0.131542 -1.00514e-22)
(0.298556 -0.409895 -7.76339e-22)
(0.38907 -0.611306 4.30341e-22)
(0.439389 -0.697285 -4.1299e-22)
(0.44733 -0.69769 1.59948e-22)
(0.37106 -0.702859 -3.02596e-22)
(0.286274 -0.592756 5.27737e-22)
(0.406233 -0.25306 -5.17559e-22)
(0.589689 0.122466 3.25229e-24)
(0.731416 0.424277 3.25058e-22)
(0.809641 0.506644 -4.09036e-23)
(0.847069 0.565242 -4.40602e-23)
(0.769324 0.588445 -1.43432e-22)
(0.650444 0.549981 1.32984e-22)
(0.67696 0.290919 1.2329e-22)
(0.817345 -0.100219 -1.64893e-22)
(0.916429 -0.213642 -4.0533e-23)
(0.944408 -0.427437 6.96534e-23)
(0.906561 -0.449777 -4.88561e-24)
(0.906085 -0.45586 -4.71376e-23)
(0.912107 -0.340337 2.83571e-23)
(0.938222 0.091919 1.01766e-22)
(0.959577 0.184474 -1.9768e-25)
(0.988916 0.522605 -8.55992e-23)
(0.969246 0.462824 -9.14726e-25)
(0.961588 -0.000443854 1.11191e-23)
(-0.0384758 0.357003 3.48875e-21)
(-0.00233375 0.351522 -2.78785e-21)
(0.0699152 0.272386 2.19752e-21)
(0.155363 0.106234 -2.09562e-21)
(0.252003 -0.150248 -7.97663e-22)
(0.361918 -0.429188 4.14113e-21)
(0.445479 -0.625437 -1.33955e-21)
(0.483873 -0.703712 -9.39429e-22)
(0.483151 -0.692248 4.65583e-22)
(0.408473 -0.68827 -2.19067e-23)
(0.296428 -0.595235 1.01126e-22)
(0.384787 -0.279654 -4.53909e-23)
(0.562345 0.0940601 -1.97149e-23)
(0.708724 0.405316 1.22388e-22)
(0.797322 0.496899 2.49242e-23)
(0.837903 0.567707 -9.3155e-23)
(0.761527 0.60041 3.0372e-22)
(0.64644 0.556575 1.24859e-22)
(0.683229 0.283034 -5.74043e-23)
(0.826206 -0.112367 -1.11529e-22)
(0.924389 -0.21994 6.1497e-23)
(0.952575 -0.426326 9.27214e-23)
(0.912336 -0.448175 -1.32225e-22)
(0.914004 -0.456162 3.99579e-23)
(0.916747 -0.342063 -8.18026e-23)
(0.935812 0.0897349 -1.16025e-22)
(0.95747 0.182308 1.98605e-23)
(0.98334 0.522288 1.48311e-22)
(0.965097 0.463503 -7.49234e-24)
(0.96201 -9.55861e-05 -8.10972e-24)
(0.00559154 0.349109 -3.84126e-21)
(0.0515832 0.337565 1.96658e-21)
(0.132206 0.25601 -2.25477e-22)
(0.219961 0.0904527 6.14246e-22)
(0.317095 -0.166445 -8.35658e-22)
(0.426535 -0.445683 -2.61594e-21)
(0.503176 -0.636756 1.40476e-21)
(0.529618 -0.708063 -9.16379e-23)
(0.51889 -0.686476 5.72355e-22)
(0.446786 -0.672204 9.53629e-22)
(0.313203 -0.59371 -2.77925e-22)
(0.367331 -0.304547 3.30893e-22)
(0.536822 0.0644194 -3.7274e-22)
(0.687194 0.384514 -3.21962e-22)
(0.785985 0.48596 5.6157e-23)
(0.829054 0.569665 -1.24307e-22)
(0.754122 0.612013 -2.7727e-22)
(0.644093 0.562817 -7.0374e-23)
(0.690828 0.27542 1.75932e-22)
(0.835829 -0.123995 -4.7937e-23)
(0.932874 -0.22594 -1.64397e-22)
(0.960889 -0.424909 -1.10373e-23)
(0.918105 -0.446526 4.81873e-23)
(0.921765 -0.45649 5.39439e-24)
(0.92162 -0.343636 3.08033e-23)
(0.933601 0.0875807 3.78269e-23)
(0.955519 0.180144 2.01055e-23)
(0.977702 0.521971 4.62644e-23)
(0.960976 0.464028 2.6597e-23)
(0.962443 0.00014327 -1.91361e-24)
(0.0500863 0.338136 2.55752e-21)
(0.105867 0.321715 3.39232e-21)
(0.193762 0.239546 2.56985e-21)
(0.283329 0.0762519 -2.14783e-21)
(0.38212 -0.180293 -2.55838e-22)
(0.491882 -0.459463 -1.60975e-21)
(0.561595 -0.645307 -2.11241e-21)
(0.576307 -0.71026 -3.60562e-22)
(0.554432 -0.680404 2.37953e-22)
(0.485257 -0.655254 -2.00047e-23)
(0.336151 -0.588367 -3.54591e-22)
(0.354735 -0.327147 1.17341e-22)
(0.513471 0.0337984 6.47596e-22)
(0.667029 0.361897 -3.33715e-22)
(0.775695 0.473823 2.73113e-22)
(0.820523 0.57107 1.53997e-23)
(0.747148 0.623145 6.51316e-22)
(0.643328 0.568696 -8.52534e-23)
(0.699621 0.26818 -2.7113e-22)
(0.846169 -0.135051 -6.37316e-23)
(0.941833 -0.23163 -2.46129e-22)
(0.969309 -0.423178 -3.12201e-22)
(0.92389 -0.444814 -4.08938e-24)
(0.929339 -0.45685 1.0962e-22)
(0.926676 -0.345067 1.48129e-24)
(0.931594 0.0854605 3.4568e-23)
(0.953705 0.177992 -9.36508e-23)
(0.972006 0.521658 -2.13419e-22)
(0.956904 0.464396 -4.92201e-23)
(0.962898 0.000273545 1.78861e-23)
(0.0937512 0.324222 1.64433e-21)
(0.159198 0.304242 4.5983e-21)
(0.253386 0.223032 2.38176e-21)
(0.344643 0.0634162 -8.06628e-21)
(0.44655 -0.192016 8.005e-21)
(0.557496 -0.470628 -3.53295e-21)
(0.620195 -0.651155 -3.66076e-22)
(0.623561 -0.710261 -5.4818e-22)
(0.589709 -0.67402 -5.49687e-23)
(0.523268 -0.637985 1.56831e-21)
(0.364511 -0.579558 -4.01343e-22)
(0.347845 -0.346932 -9.62157e-22)
(0.492725 0.00284913 -3.90437e-23)
(0.648459 0.337517 4.42151e-22)
(0.7665 0.460491 -4.90382e-22)
(0.812315 0.571875 5.82383e-22)
(0.740638 0.633705 -6.89134e-22)
(0.644037 0.574209 5.03776e-22)
(0.709463 0.26141 8.9788e-23)
(0.857171 -0.145489 4.83929e-22)
(0.951212 -0.236996 1.74086e-22)
(0.977791 -0.421129 1.34358e-22)
(0.929717 -0.443021 1.7375e-23)
(0.936696 -0.457239 1.20665e-22)
(0.931859 -0.346372 6.53486e-23)
(0.929795 0.083377 -3.819e-23)
(0.952004 0.175862 2.8076e-22)
(0.966255 0.52135 -1.94066e-22)
(0.952904 0.464605 7.10913e-23)
(0.963385 0.00029622 -2.84206e-23)
(0.135581 0.307541 -3.5542e-21)
(0.210444 0.285323 5.02508e-22)
(0.310096 0.20648 8.03802e-22)
(0.403305 0.051653 -1.26949e-21)
(0.510038 -0.20191 1.26239e-21)
(0.622976 -0.479282 1.4913e-21)
(0.678479 -0.654374 6.54684e-22)
(0.670954 -0.708058 -1.14613e-21)
(0.624684 -0.667274 -7.70843e-22)
(0.560315 -0.620902 4.46159e-22)
(0.397303 -0.567778 1.4003e-22)
(0.347358 -0.36348 7.94744e-22)
(0.475102 -0.0284614 -7.64681e-22)
(0.631685 0.311447 -3.07173e-22)
(0.758432 0.44598 4.85231e-22)
(0.804437 0.572029 2.08493e-22)
(0.734616 0.643599 -1.74942e-23)
(0.64608 0.579362 1.79312e-23)
(0.720206 0.255196 -1.98681e-22)
(0.868776 -0.155268 -7.81485e-22)
(0.960964 -0.242025 -5.03843e-24)
(0.9863 -0.418762 -1.63397e-22)
(0.935603 -0.44113 -7.51325e-23)
(0.943813 -0.457655 -6.89178e-23)
(0.937108 -0.347566 -1.10512e-22)
(0.928203 0.0813318 -2.50423e-23)
(0.950393 0.173764 -2.63171e-22)
(0.960449 0.521048 2.20748e-22)
(0.948992 0.464653 -6.81312e-23)
(0.963914 0.000212722 2.85699e-23)
(0.174936 0.288365 3.69317e-21)
(0.258773 0.265085 6.52301e-22)
(0.363199 0.18984 -1.74867e-22)
(0.45901 0.0405628 -4.62834e-22)
(0.572444 -0.210349 -1.1828e-21)
(0.687979 -0.485528 6.24079e-21)
(0.735995 -0.655034 -4.72741e-21)
(0.718035 -0.703684 -1.20325e-21)
(0.659342 -0.660098 -2.57829e-22)
(0.596005 -0.604423 5.675e-22)
(0.433429 -0.553627 9.75078e-22)
(0.353488 -0.37653 -2.76657e-22)
(0.461157 -0.0600304 -6.32695e-22)
(0.617023 0.283811 8.64433e-22)
(0.751505 0.430316 -1.00212e-21)
(0.796903 0.571478 2.56839e-22)
(0.729094 0.652744 5.83561e-23)
(0.649302 0.584167 4.3494e-22)
(0.731697 0.249615 -7.42656e-22)
(0.880914 -0.164351 9.088e-22)
(0.97104 -0.246704 -4.76918e-23)
(0.994805 -0.41608 7.85091e-22)
(0.941565 -0.439126 1.09399e-22)
(0.950669 -0.45809 -3.09276e-22)
(0.942361 -0.348666 2.92658e-23)
(0.926811 0.0793249 -8.8875e-23)
(0.94885 0.171706 4.16468e-23)
(0.954588 0.520749 -1.82292e-22)
(0.945186 0.464535 4.16725e-23)
(0.964496 2.48606e-05 -2.32832e-23)
(0.211662 0.267026 -2.71849e-21)
(0.303786 0.243638 1.73915e-21)
(0.412383 0.172993 3.63438e-21)
(0.511819 0.0296622 1.19452e-21)
(0.63385 -0.217743 -7.45877e-21)
(0.75221 -0.489451 6.80183e-22)
(0.792331 -0.653194 8.5821e-22)
(0.764351 -0.697209 -2.45197e-21)
(0.693665 -0.65241 -3.23411e-22)
(0.630051 -0.588871 2.04078e-21)
(0.471766 -0.537767 -1.39544e-22)
(0.366087 -0.385969 5.01692e-22)
(0.451419 -0.0908981 -8.59164e-22)
(0.604724 0.254788 4.48131e-22)
(0.745718 0.413536 -4.10695e-22)
(0.789724 0.570168 7.14884e-22)
(0.724076 0.661067 7.18459e-23)
(0.653534 0.588642 -6.28357e-22)
(0.743788 0.244725 1.35716e-21)
(0.893514 -0.172707 -6.93466e-22)
(0.981393 -0.251024 2.84964e-22)
(1.00328 -0.413088 -1.25272e-22)
(0.947609 -0.436991 -3.68518e-22)
(0.957242 -0.458532 3.43101e-22)
(0.947551 -0.34969 -4.04951e-23)
(0.925609 0.0773546 3.39102e-22)
(0.94735 0.169699 -2.99034e-22)
(0.948667 0.520453 3.40778e-22)
(0.941503 0.464249 -4.81558e-23)
(0.96514 -0.000265485 3.21626e-25)
(0.246227 0.243849 5.10713e-23)
(0.345677 0.221101 7.22725e-21)
(0.457838 0.155776 -9.94605e-21)
(0.562234 0.0182641 -2.10107e-21)
(0.694544 -0.224476 9.63881e-21)
(0.815405 -0.49111 1.285e-21)
(0.847102 -0.648892 -4.06315e-21)
(0.809471 -0.688735 -2.30373e-22)
(0.727625 -0.644127 1.26488e-21)
(0.662278 -0.574459 9.67671e-22)
(0.511226 -0.520866 -7.41649e-23)
(0.384636 -0.391842 -4.23676e-23)
(0.44627 -0.120528 2.90144e-22)
(0.594991 0.224603 -2.95798e-22)
(0.741047 0.395685 2.25968e-22)
(0.782916 0.568047 -2.78844e-22)
(0.719556 0.668508 -1.19182e-22)
(0.658603 0.592809 9.22253e-22)
(0.756337 0.240575 -1.91089e-21)
(0.906497 -0.18031 9.52118e-22)
(0.991975 -0.254974 -2.36421e-22)
(1.01172 -0.409795 -4.93754e-22)
(0.953731 -0.434711 6.26988e-23)
(0.963519 -0.458966 -8.39655e-23)
(0.952611 -0.350653 2.07759e-22)
(0.92458 0.0754175 -1.59252e-22)
(0.945872 0.167751 -8.3002e-23)
(0.942682 0.520154 -1.57801e-22)
(0.937959 0.46379 -2.23557e-23)
(0.965855 -0.000655914 9.09145e-25)
(0.279911 0.219134 -5.11212e-21)
(0.385389 0.19762 9.35657e-21)
(0.500339 0.137995 -2.16094e-21)
(0.611227 0.0060532 -1.50712e-20)
(0.755005 -0.230765 1.71952e-20)
(0.87731 -0.490561 2.59534e-21)
(0.899945 -0.64215 -9.48245e-21)
(0.853004 -0.678392 -9.16577e-23)
(0.761168 -0.635171 -1.41895e-21)
(0.692619 -0.561296 4.37876e-22)
(0.550812 -0.503565 -7.06355e-22)
(0.408344 -0.394337 6.89756e-22)
(0.445829 -0.148507 -7.07178e-23)
(0.587949 0.19351 1.03297e-22)
(0.737443 0.37682 4.01319e-22)
(0.776492 0.565058 -1.00985e-21)
(0.715521 0.675017 7.43909e-22)
(0.664336 0.59669 -6.00906e-22)
(0.769212 0.237213 4.14303e-22)
(0.919788 -0.187139 7.26874e-22)
(1.00274 -0.258548 -1.09663e-22)
(1.0201 -0.406212 -1.98189e-22)
(0.959919 -0.432269 7.6586e-22)
(0.969486 -0.459376 -2.67576e-22)
(0.957475 -0.351572 4.27899e-23)
(0.9237 0.0735085 -2.59458e-22)
(0.94439 0.165871 5.99773e-22)
(0.936629 0.519848 4.23523e-22)
(0.93457 0.463156 4.11764e-23)
(0.966652 -0.00114485 -4.42993e-23)
(0.314997 0.193206 -2.92021e-21)
(0.424724 0.173396 1.27132e-20)
(0.541448 0.119535 -3.05385e-21)
(0.66024 -0.00543233 -5.0111e-21)
(0.815715 -0.236646 1.46552e-20)
(0.937626 -0.487855 -1.10689e-20)
(0.950512 -0.633005 -3.38026e-21)
(0.894615 -0.666339 1.28278e-21)
(0.794207 -0.625486 4.74198e-21)
(0.721109 -0.549401 -3.2642e-22)
(0.589659 -0.486449 -3.03622e-22)
(0.436289 -0.393757 6.73694e-23)
(0.449891 -0.17447 2.33759e-22)
(0.583597 0.161787 -3.42466e-22)
(0.734826 0.357005 3.63999e-22)
(0.770458 0.561147 -1.33095e-23)
(0.711947 0.680558 3.38512e-22)
(0.67056 0.60031 -8.81536e-23)
(0.782303 0.234666 1.13516e-21)
(0.933313 -0.193178 -1.28109e-21)
(1.01363 -0.261742 -3.13897e-22)
(1.02842 -0.40235 4.35618e-22)
(0.966153 -0.429652 -4.08405e-22)
(0.975135 -0.459744 1.32175e-22)
(0.962085 -0.352462 -1.77066e-22)
(0.922944 0.071621 -7.71751e-23)
(0.94288 0.164067 -1.02525e-22)
(0.930502 0.519528 -4.31938e-22)
(0.931352 0.462341 2.638e-24)
(0.967541 -0.00172982 8.24056e-23)
(0.354773 0.166549 -1.2597e-21)
(0.466301 0.148735 7.19722e-21)
(0.583751 0.100495 -1.00931e-20)
(0.711038 -0.017171 1.15102e-20)
(0.87675 -0.242227 5.7435e-21)
(0.995972 -0.482969 -6.44567e-21)
(0.998472 -0.621542 2.11756e-21)
(0.934039 -0.652771 -2.90192e-21)
(0.826626 -0.615059 2.40479e-21)
(0.747872 -0.538726 -3.44114e-21)
(0.627065 -0.470036 5.55372e-22)
(0.467517 -0.390481 4.37248e-22)
(0.457954 -0.198132 -2.62066e-22)
(0.581767 0.129716 3.07999e-22)
(0.733072 0.336301 -5.55181e-22)
(0.764811 0.556258 3.02394e-22)
(0.708806 0.685103 -7.26774e-22)
(0.677113 0.603692 5.3944e-22)
(0.795517 0.232939 -4.99528e-22)
(0.947009 -0.198416 -4.62653e-22)
(1.02462 -0.264553 2.77876e-22)
(1.03669 -0.398225 -6.61747e-22)
(0.972404 -0.426844 8.58349e-22)
(0.980461 -0.460048 -2.96468e-22)
(0.966393 -0.353339 -2.89328e-22)
(0.92228 0.0697474 -1.31118e-22)
(0.94132 0.162345 4.67079e-23)
(0.924297 0.519188 4.61959e-24)
(0.928323 0.461342 -3.61389e-23)
(0.968531 -0.0024074 -7.51272e-23)
(0.40307 0.13996 6.68019e-21)
(0.513208 0.124105 -4.3083e-21)
(0.629727 0.0808542 3.29502e-21)
(0.765416 -0.0307721 -3.11167e-22)
(0.938466 -0.247232 7.1316e-21)
(1.05188 -0.475824 -5.77251e-21)
(1.0435 -0.607892 -4.73813e-21)
(0.971087 -0.637918 2.66296e-21)
(0.858281 -0.603925 2.36885e-21)
(0.773098 -0.529174 1.62902e-21)
(0.662516 -0.454757 -1.31012e-21)
(0.501084 -0.38493 1.14784e-21)
(0.469355 -0.219273 2.0576e-22)
(0.582108 0.0975737 -8.78862e-23)
(0.732009 0.314761 4.19195e-23)
(0.759537 0.550331 -2.84945e-22)
(0.706061 0.688634 -1.31804e-23)
(0.68384 0.606856 2.55306e-22)
(0.808789 0.232045 -1.99483e-22)
(0.960824 -0.202839 1.94474e-22)
(1.03564 -0.266983 -3.64264e-22)
(1.04489 -0.39385 1.4774e-22)
(0.978645 -0.423832 -6.4815e-22)
(0.985462 -0.460269 -2.82844e-23)
(0.970365 -0.354213 2.03797e-22)
(0.921676 0.0678788 3.04303e-22)
(0.939685 0.16071 -6.3063e-23)
(0.918009 0.518818 2.99232e-23)
(0.9255 0.460153 9.53308e-23)
(0.969633 -0.00317485 1.60098e-23)
(0.463197 0.114598 -6.35099e-21)
(0.568371 0.100154 8.77517e-21)
(0.682062 0.0609361 -2.15087e-21)
(0.824903 -0.0451027 -5.02955e-21)
(1.0007 -0.251205 6.99255e-21)
(1.10477 -0.466309 6.03204e-22)
(1.08531 -0.592172 -1.67719e-21)
(1.00565 -0.621944 4.90676e-21)
(0.88902 -0.592049 -5.95904e-21)
(0.797021 -0.52051 3.029e-21)
(0.695679 -0.440875 -3.98767e-22)
(0.536063 -0.377497 -7.20578e-22)
(0.483456 -0.237697 -1.76732e-22)
(0.584111 0.0656314 1.89206e-22)
(0.731405 0.292421 -7.94529e-23)
(0.754604 0.543305 6.20067e-22)
(0.703672 0.691138 -7.67834e-22)
(0.690593 0.609812 6.18045e-22)
(0.822084 0.231996 4.65438e-22)
(0.974724 -0.206435 3.45079e-23)
(1.04667 -0.269024 3.3496e-22)
(1.05303 -0.389232 -9.14752e-23)
(0.984847 -0.4206 2.79123e-22)
(0.990134 -0.460384 -4.73528e-23)
(0.97399 -0.355085 2.52079e-22)
(0.921098 0.0660081 3.44115e-23)
(0.937951 0.159167 2.54071e-22)
(0.911634 0.518408 -2.35787e-22)
(0.922904 0.45877 -7.82629e-23)
(0.970854 -0.00402923 4.00429e-23)
(0.536642 0.09177 -2.08687e-22)
(0.633863 0.0776279 -3.51464e-21)
(0.743042 0.0413149 -8.96331e-21)
(0.890347 -0.0595111 4.30944e-21)
(1.06278 -0.253611 4.16977e-21)
(1.15399 -0.454289 -2.18451e-21)
(1.12365 -0.574388 -5.47692e-22)
(1.03768 -0.604796 4.22747e-21)
(0.918687 -0.579219 -3.97042e-21)
(0.81989 -0.512315 -4.23604e-22)
(0.726382 -0.428443 1.17622e-22)
(0.571572 -0.368528 -8.4634e-23)
(0.499773 -0.253212 6.08063e-22)
(0.587179 0.0341794 -3.20054e-22)
(0.730975 0.269298 5.17615e-22)
(0.749959 0.535107 -3.89585e-22)
(0.701592 0.692608 -1.2316e-23)
(0.697235 0.612566 -8.58561e-22)
(0.835414 0.232751 4.32698e-22)
(0.988698 -0.209215 -1.08678e-21)
(1.05764 -0.270665 2.81847e-22)
(1.06109 -0.384381 3.80986e-22)
(0.990987 -0.417131 -2.25118e-22)
(0.994478 -0.460377 1.66998e-22)
(0.977277 -0.355955 -4.24754e-22)
(0.920516 0.0641326 3.07308e-22)
(0.936095 0.157721 -4.47347e-22)
(0.905171 0.517949 2.72626e-22)
(0.920556 0.457188 1.99344e-23)
(0.972207 -0.00496805 1.11569e-23)
(0.622409 0.0724286 -7.62031e-22)
(0.71062 0.057208 -4.58666e-21)
(0.814135 0.0219089 1.60065e-20)
(0.961557 -0.0734566 -1.62199e-20)
(1.12354 -0.254017 1.16204e-20)
(1.19884 -0.439802 -8.68617e-21)
(1.15837 -0.55472 3.9912e-21)
(1.06723 -0.586658 1.7329e-22)
(0.947134 -0.565579 -6.39333e-22)
(0.841928 -0.504475 1.02866e-21)
(0.754568 -0.417645 8.18164e-22)
(0.606812 -0.358538 1.59757e-22)
(0.517989 -0.265824 4.93622e-22)
(0.590747 0.00353558 -3.37925e-22)
(0.730389 0.24544 6.64134e-22)
(0.745534 0.525665 6.67451e-22)
(0.699773 0.693037 -1.19702e-21)
(0.70364 0.615113 2.62562e-22)
(0.848859 0.234207 1.35436e-21)
(1.00277 -0.211209 3.51456e-22)
(1.06852 -0.271921 -1.31119e-21)
(1.06906 -0.379336 2.71443e-22)
(0.997046 -0.413433 1.79465e-22)
(0.998495 -0.460248 -7.56619e-23)
(0.980255 -0.356871 2.00422e-22)
(0.919903 0.0622463 -2.93457e-22)
(0.934094 0.156382 -7.47095e-23)
(0.898618 0.517427 3.57491e-22)
(0.918479 0.455401 1.16861e-23)
(0.973699 -0.00598754 -2.08603e-23)
(0.718096 0.0569154 6.35185e-22)
(0.798804 0.0390859 -1.12223e-21)
(0.895695 0.00411824 -7.94232e-21)
(1.03715 -0.0855084 8.72482e-21)
(1.18125 -0.251783 -1.41783e-20)
(1.23866 -0.423366 6.82623e-22)
(1.18943 -0.534466 1.1233e-20)
(1.09439 -0.569175 -6.03641e-21)
(0.974262 -0.552737 1.23727e-21)
(0.863359 -0.498111 -1.96116e-22)
(0.78031 -0.409424 1.47068e-21)
(0.641156 -0.348552 -4.1105e-22)
(0.537894 -0.276061 1.65423e-22)
(0.594463 -0.0260372 6.09089e-23)
(0.729297 0.22092 3.25262e-22)
(0.741237 0.514885 3.93069e-22)
(0.698146 0.692408 -1.11878e-21)
(0.709679 0.61749 1.20163e-21)
(0.862632 0.236427 9.49365e-23)
(1.01698 -0.2123 -6.41266e-22)
(1.07924 -0.272874 2.87953e-22)
(1.07692 -0.374197 -2.30504e-22)
(1.00301 -0.409545 1.38575e-22)
(1.00219 -0.459994 -1.52138e-22)
(0.982967 -0.357952 2.04723e-22)
(0.91925 0.0602995 1.52407e-22)
(0.931922 0.155131 -1.24435e-22)
(0.891974 0.51683 -9.90385e-23)
(0.916699 0.453405 -7.17937e-23)
(0.975342 -0.00707362 -9.94642e-24)
(0.823548 0.044238 -3.33122e-21)
(0.899243 0.0233373 9.09899e-21)
(0.986817 -0.00962214 -4.35441e-21)
(1.11411 -0.0928803 -6.66582e-21)
(1.23369 -0.245071 2.81265e-21)
(1.27273 -0.405035 -6.51654e-21)
(1.21674 -0.514746 8.06346e-21)
(1.11926 -0.553668 1.01012e-21)
(1.00009 -0.541765 -3.41789e-21)
(0.884476 -0.493811 1.58654e-21)
(0.803869 -0.404266 -5.98385e-22)
(0.674233 -0.339186 3.32664e-23)
(0.55932 -0.284158 4.49355e-22)
(0.598352 -0.0549414 -3.74812e-23)
(0.727367 0.194937 -3.67406e-22)
(0.736935 0.502812 9.52235e-22)
(0.696728 0.690792 -1.8147e-21)
(0.715178 0.619327 8.90314e-22)
(0.877293 0.240233 -1.40517e-21)
(1.03141 -0.212085 1.08735e-21)
(1.08971 -0.273564 4.99658e-23)
(1.08466 -0.368992 -2.65625e-22)
(1.00889 -0.405455 1.14711e-22)
(1.00556 -0.459571 -2.84018e-24)
(0.985454 -0.359176 -3.81881e-23)
(0.918588 0.0582315 -1.42273e-22)
(0.929553 0.153848 6.00342e-23)
(0.885237 0.516142 -1.85779e-23)
(0.915248 0.45121 1.85037e-23)
(0.977145 -0.00820171 2.14466e-23)
(0.947333 0.0288712 -1.15276e-20)
(1.01313 0.0105095 2.17994e-21)
(1.08449 -0.018004 -5.08788e-21)
(1.18815 -0.0955985 1.59662e-20)
(1.27845 -0.232993 -7.87212e-21)
(1.30039 -0.381444 7.2189e-21)
(1.24023 -0.489289 1.8894e-21)
(1.14189 -0.532343 -7.53056e-21)
(1.02455 -0.525178 5.62209e-22)
(0.905394 -0.485011 1.81969e-21)
(0.825507 -0.397378 -7.97221e-22)
(0.705804 -0.327633 -8.11016e-22)
(0.581967 -0.287306 1.52433e-22)
(0.602616 -0.0820914 2.23024e-22)
(0.724514 0.166892 3.53871e-22)
(0.732258 0.486719 5.14794e-22)
(0.695094 0.687624 -1.08353e-22)
(0.720374 0.623247 -4.33736e-22)
(0.89449 0.245319 -5.93482e-22)
(1.04616 -0.211022 9.3052e-22)
(1.09978 -0.273493 -5.68499e-22)
(1.09226 -0.363288 -9.76069e-23)
(1.01467 -0.400903 1.22664e-22)
(1.00864 -0.458845 1.13885e-22)
(0.987747 -0.35986 -1.64774e-22)
(0.917994 0.0564154 1.74173e-22)
(0.926941 0.152644 3.86181e-23)
(0.878393 0.51519 -5.49659e-23)
(0.914189 0.448834 -5.36908e-24)
(0.979117 -0.00942683 -7.75928e-24)
(1.12306 0.0172824 0)
(1.14615 -0.00406751 0)
(1.18974 -0.0361285 0)
(1.26183 -0.109033 0)
(1.32054 -0.223963 0)
(1.32718 -0.348972 0)
(1.26515 -0.445743 0)
(1.16699 -0.490015 0)
(1.05243 -0.48892 0)