# vtk DataFile Version 2.0
"blockTopology.obj"
ASCII
DATASET POLYDATA
POINTS 64 float
0.5 0 -0.5
0.353553 0.353553 -0.5
0 0.5 -0.5
-0.353553 0.353553 -0.5
-0.5 0 -0.5
-0.353553 -0.353553 -0.5
0 -0.5 -0.5
0.353553 -0.353553 -0.5
1 0 -0.5
0.707107 0.707107 -0.5
0 1 -0.5
-0.707107 0.707107 -0.5
-1 0 -0.5
-0.707107 -0.707107 -0.5
0 -1 -0.5
0.707107 -0.707107 -0.5
6 0 -0.5
6 0.707107 -0.5
6 4 -0.5
0.707107 4 -0.5
0 4 -0.5
-0.707107 4 -0.5
-4 4 -0.5
-4 0.707107 -0.5
-4 0 -0.5
-4 -0.707107 -0.5
-4 -4 -0.5
-0.707107 -4 -0.5
0 -4 -0.5
0.707107 -4 -0.5
6 -4 -0.5
6 -0.707107 -0.5
0.5 0 0.5
0.353553 0.353553 0.5
0 0.5 0.5
-0.353553 0.353553 0.5
-0.5 0 0.5
-0.353553 -0.353553 0.5
0 -0.5 0.5
0.353553 -0.353553 0.5
1 0 0.5
0.707107 0.707107 0.5
0 1 0.5
-0.707107 0.707107 0.5
-1 0 0.5
-0.707107 -0.707107 0.5
0 -1 0.5
0.707107 -0.707107 0.5
6 0 0.5
6 0.707107 0.5
6 4 0.5
0.707107 4 0.5
0 4 0.5
-0.707107 4 0.5
-4 4 0.5
-4 0.707107 0.5
-4 0 0.5
-4 -0.707107 0.5
-4 -4 0.5
-0.707107 -4 0.5
0 -4 0.5
0.707107 -4 0.5
6 -4 0.5
6 -0.707107 0.5
VERTICES 64 128
1 0
1 1
1 2
1 3
1 4
1 5
1 6
1 7
1 8
1 9
1 10
1 11
1 12
1 13
1 14
1 15
1 16
1 17
1 18
1 19
1 20
1 21
1 22
1 23
1 24
1 25
1 26
1 27
1 28
1 29
1 30
1 31
1 32
1 33
1 34
1 35
1 36
1 37
1 38
1 39
1 40
1 41
1 42
1 43
1 44
1 45
1 46
1 47
1 48
1 49
1 50
1 51
1 52
1 53
1 54
1 55
1 56
1 57
1 58
1 59
1 60
1 61
1 62
1 63
LINES 136 408
2 8 40
2 9 41
2 10 42
2 11 43
2 12 44
2 13 45
2 14 46
2 15 47
2 0 1
2 0 7
2 0 8
2 0 32
2 1 2
2 1 9
2 1 33
2 2 3
2 2 10
2 2 34
2 3 4
2 3 11
2 3 35
2 4 5
2 4 12
2 4 36
2 5 6
2 5 13
2 5 37
2 6 7
2 6 14
2 6 38
2 7 15
2 7 39
2 8 9
2 8 15
2 8 16
2 9 10
2 9 17
2 9 19
2 10 11
2 10 20
2 11 12
2 11 21
2 11 23
2 12 13
2 12 24
2 13 14
2 13 25
2 13 27
2 14 15
2 14 28
2 15 29
2 15 31
2 16 17
2 16 31
2 16 48
2 17 18
2 17 49
2 18 19
2 18 50
2 19 20
2 19 51
2 20 21
2 20 52
2 21 22
2 21 53
2 22 23
2 22 54
2 23 24
2 23 55
2 24 25
2 24 56
2 25 26
2 25 57
2 26 27
2 26 58
2 27 28
2 27 59
2 28 29
2 28 60
2 29 30
2 29 61
2 30 31
2 30 62
2 31 63
2 32 33
2 32 39
2 32 40
2 33 34
2 33 41
2 34 35
2 34 42
2 35 36
2 35 43
2 36 37
2 36 44
2 37 38
2 37 45
2 38 39
2 38 46
2 39 47
2 40 41
2 40 47
2 40 48
2 41 42
2 41 49
2 41 51
2 42 43
2 42 52
2 43 44
2 43 53
2 43 55
2 44 45
2 44 56
2 45 46
2 45 57
2 45 59
2 46 47
2 46 60
2 47 61
2 47 63
2 48 49
2 48 63
2 49 50
2 50 51
2 51 52
2 52 53
2 53 54
2 54 55
2 55 56
2 56 57
2 57 58
2 58 59
2 59 60
2 60 61
2 61 62
2 62 63
POLYGONS 0 0
POINT_DATA 64
SCALARS pointID float 1
LOOKUP_TABLE default
0 1
2 3 4 5 6 7 8 9 10 11
12 13 14 15 16 17 18 19 20 21
22 23 24 25 26 27 28 29 30 31
32 33 34 35 36 37 38 39 40 41
42 43 44 45 46 47 48 49 50 51
52 53 54 55 56 57 58 59 60 61
62 63 