/*--------------------------------*- C++ -*----------------------------------*\
  =========                 |
  \\      /  F ield         | OpenFOAM: The Open Source CFD Toolbox
   \\    /   O peration     | Website:  https://openfoam.org
    \\  /    A nd           | Version:  7
     \\/     M anipulation  |
\*---------------------------------------------------------------------------*/
FoamFile
{
    version     2.0;
    format      ascii;
    class       volScalarField;
    location    "370";
    object      p;
}
// * * * * * * * * * * * * * * * * * * * * * * * * * * * * * * * * * * * * * //

dimensions      [0 2 -2 0 0 0 0];

internalField   nonuniform List<scalar> 
2125
(
-0.419446
-0.422246
-0.423341
-0.424708
-0.426762
-0.429577
-0.433111
-0.437247
-0.441678
-0.446385
-0.409986
-0.413032
-0.414014
-0.414991
-0.416323
-0.41803
-0.420019
-0.422123
-0.423906
-0.425305
-0.400873
-0.404092
-0.404949
-0.405541
-0.406163
-0.40678
-0.407245
-0.407338
-0.406497
-0.404548
-0.3922
-0.395531
-0.39626
-0.396482
-0.396426
-0.395996
-0.39499
-0.393146
-0.389798
-0.384575
-0.384046
-0.387439
-0.38804
-0.387918
-0.387227
-0.385811
-0.383416
-0.379747
-0.374085
-0.365738
-0.376471
-0.379889
-0.380369
-0.379931
-0.378654
-0.376326
-0.37264
-0.367281
-0.359546
-0.348279
-0.369524
-0.37294
-0.373308
-0.372583
-0.370772
-0.36761
-0.362738
-0.355832
-0.346294
-0.33232
-0.363242
-0.36664
-0.366904
-0.365921
-0.363626
-0.359707
-0.353757
-0.345441
-0.334372
-0.317871
-0.357659
-0.361031
-0.361197
-0.359979
-0.357248
-0.352647
-0.345726
-0.336122
-0.323778
-0.304835
-0.352805
-0.356144
-0.356216
-0.354783
-0.35166
-0.346454
-0.338671
-0.327893
-0.314499
-0.29304
-0.34871
-0.352007
-0.351986
-0.350356
-0.346885
-0.341152
-0.332628
-0.320801
-0.306598
-0.282345
-0.345405
-0.348644
-0.348528
-0.346717
-0.342942
-0.336767
-0.32764
-0.314939
-0.300267
-0.273613
-0.34292
-0.346073
-0.345856
-0.343879
-0.339848
-0.333322
-0.323743
-0.310368
-0.295578
-0.266103
-0.341278
-0.344304
-0.343976
-0.341848
-0.337612
-0.330826
-0.320936
-0.307061
-0.292072
-0.260438
-0.340496
-0.343335
-0.342882
-0.340616
-0.336224
-0.329267
-0.319197
-0.305122
-0.290001
-0.2564
-0.340574
-0.343153
-0.342553
-0.340154
-0.335648
-0.328595
-0.318445
-0.304473
-0.289107
-0.254055
-0.341498
-0.34373
-0.34295
-0.340414
-0.335816
-0.328721
-0.318537
-0.304848
-0.289019
-0.253347
-0.343235
-0.345021
-0.344018
-0.341321
-0.336631
-0.329512
-0.319321
-0.306009
-0.289164
-0.253801
-0.345734
-0.346974
-0.34569
-0.34279
-0.337983
-0.330821
-0.320604
-0.307738
-0.289243
-0.25543
-0.348939
-0.349531
-0.347894
-0.344729
-0.339748
-0.332502
-0.322213
-0.309723
-0.289586
-0.261847
-0.352791
-0.352636
-0.350566
-0.347055
-0.341827
-0.334429
-0.324008
-0.311548
-0.290687
-0.276794
-0.357238
-0.356243
-0.353659
-0.349712
-0.344151
-0.33651
-0.325884
-0.313089
-0.292728
-0.278992
-0.362248
-0.360327
-0.357146
-0.352676
-0.346693
-0.338702
-0.327761
-0.314396
-0.294475
-0.279014
-0.364888
-0.36103
-0.355956
-0.349463
-0.341001
-0.329594
-0.315509
-0.295632
-0.27848
-0.365342
-0.359595
-0.3525
-0.34343
-0.331375
-0.316387
-0.29619
-0.277306
-0.370132
-0.363652
-0.355852
-0.346018
-0.3331
-0.31699
-0.29611
-0.275721
-0.36819
-0.359565
-0.34878
-0.334743
-0.317267
-0.29543
-0.273702
-0.363665
-0.351706
-0.336253
-0.317175
-0.294187
-0.271273
-0.337555
-0.316672
-0.29242
-0.26843
-0.315726
-0.290157
-0.265167
-0.287411
-0.261473
-0.455593
-0.457582
-0.445053
-0.407737
-0.3686
-0.35676
-0.379106
-0.398492
-0.366192
-0.288092
-0.210708
-0.156646
-0.132422
-0.125695
-0.147241
-0.161775
-0.144714
-0.108476
-0.0937363
-0.0747439
-0.0716414
-0.0645325
-0.0702443
-0.0826377
-0.0812268
-0.0466886
-0.0419523
-0.0536444
-0.0462873
-0.00215202
-0.430284
-0.429052
-0.416994
-0.38582
-0.358848
-0.361387
-0.395689
-0.420382
-0.385343
-0.301548
-0.217919
-0.158412
-0.130147
-0.119955
-0.138727
-0.151248
-0.136488
-0.104771
-0.093006
-0.0751791
-0.0731917
-0.0670646
-0.0725667
-0.083633
-0.0819127
-0.0470391
-0.0419497
-0.0538878
-0.0462135
-0.00197924
-0.405626
-0.400973
-0.389361
-0.363915
-0.34854
-0.364581
-0.410011
-0.439433
-0.402264
-0.313397
-0.224224
-0.159852
-0.127764
-0.114318
-0.130238
-0.140679
-0.127984
-0.100924
-0.0921623
-0.0756222
-0.0748457
-0.0697225
-0.0748955
-0.0845803
-0.0825301
-0.0473809
-0.0419397
-0.054155
-0.046172
-0.00181095
-0.382203
-0.374027
-0.362817
-0.342584
-0.337869
-0.366063
-0.421648
-0.455343
-0.416808
-0.323634
-0.229658
-0.161023
-0.125346
-0.108884
-0.121892
-0.130219
-0.119272
-0.0969523
-0.0912003
-0.0760714
-0.0765953
-0.0724921
-0.0772142
-0.0854742
-0.0830732
-0.0477108
-0.0419221
-0.0544467
-0.0461644
-0.00164809
-0.360493
-0.348768
-0.337937
-0.322278
-0.327072
-0.365623
-0.430209
-0.467922
-0.428885
-0.332279
-0.234267
-0.161974
-0.122959
-0.103735
-0.113804
-0.120015
-0.110434
-0.0928802
-0.0901164
-0.0765233
-0.0784304
-0.0753577
-0.0795077
-0.0863097
-0.0835365
-0.0480254
-0.0418963
-0.0547628
-0.0461919
-0.00149162
-0.340809
-0.325581
-0.315146
-0.303324
-0.316105
-0.363353
-0.43549
-0.477106
-0.438462
-0.339368
-0.238102
-0.162751
-0.120662
-0.0989348
-0.106078
-0.1102
-0.101565
-0.0887343
-0.0889081
-0.0769721
-0.0803384
-0.0783017
-0.0817619
-0.0870828
-0.0839154
-0.048321
-0.0418616
-0.0551033
-0.0462547
-0.00134247
-0.3233
-0.304662
-0.294692
-0.286284
-0.304764
-0.359248
-0.437486
-0.483278
-0.445549
-0.344957
-0.24122
-0.163393
-0.118505
-0.0945238
-0.0988068
-0.100895
-0.0927713
-0.0845458
-0.0875745
-0.0774104
-0.0823051
-0.081305
-0.0839634
-0.0877898
-0.0842056
-0.0485941
-0.0418172
-0.0554674
-0.0463524
-0.00120162
-0.30798
-0.28603
-0.276666
-0.270901
-0.293593
-0.353395
-0.436335
-0.485912
-0.450187
-0.349113
-0.24368
-0.163934
-0.116528
-0.0905254
-0.0920629
-0.0921982
-0.0841727
-0.0803498
-0.0861163
-0.0778286
-0.0843144
-0.0843469
-0.0860997
-0.0884279
-0.0844035
-0.0488409
-0.0417623
-0.0558541
-0.0464837
-0.00107005
-0.294775
-0.269667
-0.261195
-0.257059
-0.282699
-0.345987
-0.432317
-0.485488
-0.45247
-0.351912
-0.245542
-0.164402
-0.114766
-0.0869463
-0.0858993
-0.0841856
-0.0758935
-0.0761857
-0.084536
-0.0782149
-0.086349
-0.0874055
-0.0881593
-0.0889944
-0.0845062
-0.0490577
-0.0416959
-0.0562617
-0.0466463
-0.000948761
-0.283687
-0.25617
-0.247363
-0.244933
-0.272153
-0.337297
-0.425801
-0.482292
-0.452528
-0.353434
-0.246863
-0.164817
-0.113243
-0.0837802
-0.0803446
-0.0769107
-0.068055
-0.0720966
-0.082838
-0.0785559
-0.0883907
-0.0904584
-0.090131
-0.0894877
-0.0845114
-0.0492411
-0.0416172
-0.0566884
-0.0468374
-0.000838794
-0.274878
-0.244496
-0.23559
-0.23441
-0.262068
-0.327642
-0.41721
-0.47665
-0.450522
-0.353761
-0.2477
-0.165197
-0.111975
-0.0810126
-0.0754041
-0.0704034
-0.0607641
-0.0681279
-0.0810283
-0.0788366
-0.0904205
-0.0934824
-0.0920049
-0.0899061
-0.0844177
-0.0493877
-0.0415254
-0.0571314
-0.0470529
-0.000741208
-0.267379
-0.234812
-0.225668
-0.225353
-0.25258
-0.317356
-0.406987
-0.468914
-0.44665
-0.352973
-0.248107
-0.165559
-0.110976
-0.0786263
-0.0710625
-0.0646721
-0.0541043
-0.0643265
-0.079115
-0.0790406
-0.0924195
-0.0964546
-0.0937721
-0.0902484
-0.084224
-0.0494945
-0.0414199
-0.057588
-0.0472882
-0.000657088
-0.2616
-0.227028
-0.217349
-0.217667
-0.243806
-0.306764
-0.395564
-0.459446
-0.441123
-0.351163
-0.248148
-0.165926
-0.110263
-0.0766045
-0.0672877
-0.0597042
-0.0482599
-0.0607396
-0.0771075
-0.0791505
-0.094369
-0.0993524
-0.0954241
-0.0905137
-0.0839297
-0.0495584
-0.0412997
-0.0580548
-0.0475376
-0.000587544
-0.257551
-0.221065
-0.21049
-0.211267
-0.235841
-0.296156
-0.383332
-0.448586
-0.434133
-0.348436
-0.247876
-0.166306
-0.109827
-0.0749198
-0.0640294
-0.055457
-0.0429732
-0.0574126
-0.0750163
-0.0791481
-0.0962511
-0.102154
-0.0969529
-0.0907012
-0.0835352
-0.0495755
-0.0411636
-0.0585275
-0.0477944
-0.000533711
-0.255222
-0.216886
-0.205012
-0.20607
-0.228748
-0.285765
-0.370624
-0.436636
-0.425855
-0.344867
-0.247273
-0.166632
-0.109601
-0.0735164
-0.0612181
-0.0518543
-0.0383992
-0.0543917
-0.0728524
-0.0790146
-0.0980488
-0.104838
-0.0983525
-0.0908106
-0.0830419
-0.0495409
-0.0410101
-0.0589992
-0.0480513
-0.000496742
-0.254482
-0.214495
-0.200877
-0.202001
-0.222554
-0.275761
-0.357683
-0.423875
-0.416477
-0.340493
-0.246272
-0.166821
-0.109515
-0.0723486
-0.0587971
-0.048814
-0.0345174
-0.0517046
-0.0706255
-0.0787304
-0.0997461
-0.107389
-0.0996202
-0.0908414
-0.082452
-0.0494539
-0.0408393
-0.0594625
-0.0482993
-0.000477796
-0.255131
-0.213864
-0.198068
-0.198979
-0.217263
-0.266285
-0.344676
-0.410492
-0.406249
-0.33554
-0.24512
-0.167131
-0.109776
-0.0715376
-0.056803
-0.0463399
-0.0312972
-0.0493575
-0.0683424
-0.0782756
-0.101327
-0.109786
-0.100745
-0.0907892
-0.0817649
-0.0493261
-0.0406538
-0.0599238
-0.0485287
-0.000477993
-0.256632
-0.214771
-0.196598
-0.196896
-0.2128
-0.257384
-0.331727
-0.396257
-0.395282
-0.330594
-0.244649
-0.168311
-0.110937
-0.0713897
-0.0553416
-0.0445077
-0.0287799
-0.0474266
-0.066009
-0.0776294
-0.102777
-0.111982
-0.101666
-0.0906441
-0.0809748
-0.0491723
-0.0404511
-0.0604103
-0.0487315
-0.000498596
-0.257631
-0.216833
-0.196626
-0.195739
-0.209016
-0.248719
-0.318434
-0.380793
-0.383059
-0.325347
-0.244498
-0.169896
-0.112536
-0.0715967
-0.0541514
-0.0429728
-0.0268763
-0.0461473
-0.0636819
-0.0767603
-0.104096
-0.113907
-0.102332
-0.0904244
-0.0800936
-0.0489445
-0.0402095
-0.0608887
-0.0488996
-0.000541954
-0.261734
-0.221273
-0.197889
-0.195819
-0.206822
-0.241587
-0.305475
-0.366482
-0.369433
-0.316344
-0.239811
-0.167514
-0.111148
-0.0701129
-0.0521571
-0.0404117
-0.0247304
-0.044818
-0.0612193
-0.0756884
-0.105212
-0.115973
-0.103148
-0.0902391
-0.079191
-0.0484582
-0.0398995
-0.0610891
-0.0489841
-0.000606864
-0.247174
-0.21841
-0.197517
-0.196124
-0.20652
-0.239054
-0.300734
-0.356287
-0.355893
-0.302173
-0.228322
-0.159386
-0.105295
-0.0658159
-0.0487842
-0.0358368
-0.020526
-0.0387167
-0.0552239
-0.0731744
-0.107587
-0.120939
-0.105556
-0.0901324
-0.0782531
-0.047536
-0.0394517
-0.0606269
-0.0489087
-0.000679823
-0.241761
-0.217101
-0.198651
-0.197528
-0.207674
-0.236597
-0.28971
-0.335502
-0.331713
-0.280991
-0.213254
-0.149771
-0.0994206
-0.0621209
-0.0453946
-0.0318656
-0.0189225
-0.0373265
-0.0522946
-0.0717075
-0.10896
-0.124104
-0.10666
-0.0882796
-0.0761944
-0.046328
-0.0390559
-0.0602675
-0.049759
-0.00068938
-0.235962
-0.215139
-0.198839
-0.198124
-0.207951
-0.232956
-0.276595
-0.312623
-0.306494
-0.260166
-0.198854
-0.140654
-0.0937023
-0.0583761
-0.0421075
-0.028162
-0.0175015
-0.0358656
-0.0508018
-0.0710151
-0.109536
-0.126106
-0.107065
-0.0859527
-0.0737345
-0.0449533
-0.0385441
-0.0598801
-0.050867
-0.000586673
-0.229506
-0.212008
-0.197493
-0.196898
-0.205994
-0.226979
-0.261457
-0.288746
-0.281119
-0.239485
-0.184515
-0.131516
-0.087933
-0.0546064
-0.0388734
-0.0246301
-0.0159341
-0.033934
-0.0488318
-0.0699763
-0.109591
-0.127788
-0.106959
-0.0832831
-0.0707526
-0.0433415
-0.0378864
-0.059406
-0.0518868
-0.000411447
-0.22138
-0.207258
-0.194368
-0.193576
-0.20161
-0.218515
-0.244885
-0.264744
-0.256259
-0.219419
-0.170555
-0.122532
-0.0821606
-0.0507979
-0.0356433
-0.0211748
-0.0141631
-0.0316904
-0.0460252
-0.0681763
-0.109083
-0.128885
-0.106136
-0.0801563
-0.0672175
-0.0414543
-0.0370475
-0.0587995
-0.0527649
-0.000191094
-0.211309
-0.200807
-0.189535
-0.18838
-0.195208
-0.20848
-0.2278
-0.241543
-0.232651
-0.200338
-0.157104
-0.113728
-0.0764072
-0.0469457
-0.0323718
-0.0177285
-0.0120594
-0.0290685
-0.0424426
-0.0655387
-0.107663
-0.128947
-0.104423
-0.0765193
-0.0631002
-0.0392472
-0.035986
-0.0579992
-0.0534941
7.28069e-05
-0.199863
-0.192858
-0.183249
-0.181713
-0.187264
-0.197364
-0.210937
-0.219796
-0.21072
-0.182436
-0.14426
-0.105159
-0.0707093
-0.0430478
-0.0290151
-0.014217
-0.00947976
-0.0259132
-0.0380412
-0.0618913
-0.10492
-0.127648
-0.101683
-0.0723395
-0.0583857
-0.0366741
-0.0346528
-0.0569253
-0.0540133
0.0003871
-0.187576
-0.183684
-0.175785
-0.173955
-0.178201
-0.18569
-0.194766
-0.199788
-0.190616
-0.165791
-0.132077
-0.0968555
-0.0650933
-0.0391037
-0.0255344
-0.0105648
-0.00628042
-0.0219989
-0.0325946
-0.0568812
-0.100576
-0.124702
-0.0977887
-0.0675926
-0.0530741
-0.0336872
-0.0329897
-0.0554753
-0.0542105
0.000754328
-0.17484
-0.173583
-0.167386
-0.165418
-0.168442
-0.173812
-0.179479
-0.181536
-0.172314
-0.150397
-0.120578
-0.0888421
-0.059583
-0.0351186
-0.0219013
-0.00669944
-0.00230937
-0.016973
-0.0257351
-0.0501055
-0.0944657
-0.119853
-0.0926398
-0.0622679
-0.0471861
-0.0302395
-0.0309289
-0.0535209
-0.0539423
0.00117
-0.161991
-0.162844
-0.158262
-0.156323
-0.158308
-0.161969
-0.165095
-0.164915
-0.155697
-0.136203
-0.109763
-0.081137
-0.0541991
-0.0311041
-0.0181039
-0.00256312
0.00258148
-0.0104171
-0.0170277
-0.0412397
-0.0865098
-0.112913
-0.0861795
-0.0563741
-0.0407657
-0.0262883
-0.0283942
-0.0509088
-0.0530431
0.00162327
-0.149257
-0.151716
-0.148599
-0.146834
-0.147984
-0.1503
-0.151565
-0.149751
-0.140608
-0.123136
-0.0996207
-0.0737552
-0.04896
-0.0270811
-0.0141514
0.00186618
0.00849945
-0.00185277
-0.00607615
-0.0301278
-0.0767584
-0.103799
-0.0784053
-0.0499412
-0.0338827
-0.0218018
-0.0253026
-0.0474663
-0.0513275
0.00209694
-0.13678
-0.14041
-0.138572
-0.137091
-0.137619
-0.138892
-0.138823
-0.13587
-0.126887
-0.111117
-0.0901317
-0.0667109
-0.0438814
-0.0230828
-0.0100775
0.00655033
0.015424
0.00912645
0.00730491
-0.0169228
-0.0654363
-0.0919289
-0.0693817
-0.0430236
-0.0266309
-0.0167665
-0.0215696
-0.0430112
-0.0485939
0.00256689
-0.124672
-0.12911
-0.128349
-0.127219
-0.127323
-0.127809
-0.126813
-0.123116
-0.114382
-0.100066
-0.0812719
-0.060018
-0.0389757
-0.0191563
-0.0059449
0.0113757
0.0230875
0.0223904
0.0227573
-0.00230307
-0.0529464
-0.0787896
-0.0592921
-0.0357025
-0.0191237
-0.0111976
-0.0171173
-0.0373688
-0.0446379
0.00300233
-0.11302
-0.11797
-0.118088
-0.117336
-0.117186
-0.117103
-0.115492
-0.11136
-0.102959
-0.0899099
-0.0730145
-0.0536901
-0.0342551
-0.015358
-0.00184903
0.0161514
0.0309086
0.0365776
0.0388747
0.012402
-0.0396549
-0.0641971
-0.0483946
-0.0280866
-0.0114912
-0.00514402
-0.011888
-0.0304001
-0.039276
0.00336896
-0.10189
-0.107116
-0.107931
-0.107553
-0.107289
-0.106821
-0.104831
-0.100499
-0.0925007
-0.0805794
-0.0653319
-0.0477381
-0.0297395
-0.0117446
0.00208762
0.0206331
0.038089
0.0493239
0.0532479
0.0256071
-0.0257907
-0.0486757
-0.0370408
-0.0203093
-0.00387901
0.00130865
-0.00586165
-0.0220409
-0.0323868
0.00363673
-0.0913349
-0.0966548
-0.0980063
-0.0979746
-0.0977006
-0.0970003
-0.094811
-0.0904526
-0.08291
-0.0720109
-0.0581995
-0.0421679
-0.0254609
-0.00836655
0.00572922
0.0245576
0.0438716
0.0586231
0.0637015
0.036286
-0.01166
-0.0329974
-0.0256678
-0.0125222
0.00355703
0.00803181
0.000922829
-0.0123558
-0.0239636
0.00379222
-0.0813955
-0.0866704
-0.0884221
-0.0887126
-0.0884869
-0.0876725
-0.0854171
-0.0811591
-0.0741054
-0.0641466
-0.0515973
-0.0369821
-0.0214585
-0.00526896
0.00894581
0.0276561
0.0477324
0.0634298
0.069358
0.0442246
0.00195874
-0.0181302
-0.0147482
-0.00488909
0.0106632
0.0148458
0.00834052
-0.00158347
-0.0141781
0.00384931
-0.0720993
-0.0772269
-0.0792627
-0.0798351
-0.0797029
-0.0788641
-0.0766398
-0.0725701
-0.0660224
-0.0569355
-0.0455095
-0.0321821
-0.0177673
-0.00249411
0.011629
0.0297448
0.0494341
0.0644508
0.0708038
0.04955
0.0139676
-0.00491443
-0.00468285
0.00242439
0.0172928
0.0215224
0.0161291
0.00987332
-0.0034207
0.00384444
-0.0634636
-0.0683722
-0.070596
-0.0714017
-0.0713941
-0.0705966
-0.0684723
-0.0646483
-0.0586102
-0.0503344
-0.0399227
-0.0277689
-0.0144118
-7.61239e-05
0.0137195
0.0308172
0.0490448
0.0629873
0.069245
0.0524372
0.0235812
0.00616224
0.00428375
0.00926554
0.0233019
0.0277988
0.0238864
0.0214257
0.00770945
0.00381517
-0.0554977
-0.0601412
-0.0624773
-0.0634728
-0.0636004
-0.0628882
-0.0609102
-0.0573661
-0.0518306
-0.0443084
-0.0348238
-0.0237428
-0.0114041
0.00197089
0.015217
0.0310286
0.0475079
0.0601372
0.0658914
0.0532917
0.0306429
0.0150591
0.0120543
0.0155127
0.0285613
0.0333957
0.0311195
0.0318616
0.0183589
0.00387754
-0.0482056
-0.0525584
-0.054948
-0.0560945
-0.0563564
-0.0557555
-0.0539517
-0.050703
-0.0456546
-0.0388303
-0.0301994
-0.0201019
-0.00874411
0.00365347
0.0161747
0.0305874
0.0452446
0.0566081
0.0617204
0.0527144
0.0354854
0.022015
0.0186282
0.0210828
0.0329994
0.0380734
0.0373213
0.040272
0.0275684
0.00424147
-0.0415869
-0.0456402
-0.0480393
-0.0493027
-0.0496914
-0.0492141
-0.0475974
-0.0446456
-0.0400616
-0.0338798
-0.0260359
-0.0168412
-0.00642242
0.00499796
0.0166837
0.0297082
0.0426278
0.0528368
0.0573892
0.0512729
0.0385795
0.0273442
0.0240635
0.0259151
0.0366062
0.0417087
0.0420887
0.0460178
0.0345508
0.00512964
-0.0356401
-0.0393979
-0.0417751
-0.0431264
-0.0436301
-0.0432789
-0.0418508
-0.0391866
-0.0350375
-0.0294425
-0.0223211
-0.0139525
-0.00442183
0.00604672
0.0168485
0.0285699
0.0399343
0.0491069
0.0532768
0.0494044
0.0403687
0.0313499
0.0284538
0.0299822
0.039389
0.0442993
0.0452352
0.0488451
0.0389579
0.00663815
-0.0303639
-0.0338408
-0.0361752
-0.0375904
-0.0381955
-0.0379654
-0.0367188
-0.0343242
-0.0305752
-0.0255097
-0.0190445
-0.0114256
-0.00272
0.00684827
0.0167726
0.0273142
0.0373444
0.0456077
0.0495711
0.047414
0.0412323
0.0342979
0.0319152
0.0333023
0.041401
0.0459544
0.0468829
0.0492784
0.0409991
0.00858587
-0.0257596
-0.0289783
-0.0312579
-0.0327181
-0.03341
-0.0332914
-0.0322122
-0.030063
-0.0266738
-0.0220782
-0.0161993
-0.00925014
-0.001293
0.00745023
0.0165478
0.0260538
0.0349778
0.0424644
0.0463495
0.0454993
0.0414805
0.0364114
0.0345759
0.0359322
0.0427537
0.0468407
0.047428
0.0482638
0.0412457
0.0105577
-0.021834
-0.0248239
-0.0270444
-0.0285347
-0.0292986
-0.0292784
-0.0283478
-0.0264145
-0.0233397
-0.019151
-0.0137827
-0.00741763
-0.000119231
0.00789439
0.0162514
0.0248776
0.0329159
0.0397561
0.043635
0.0437819
0.0413588
0.0378702
0.0365649
0.0379447
0.0435961
0.0471494
0.0473097
0.0466607
0.0403548
0.0121811
-0.018601
-0.0213972
-0.0235604
-0.0250701
-0.0258917
-0.0259546
-0.0251499
-0.0233988
-0.0205877
-0.016739
-0.0117988
-0.00592426
0.000818396
0.00821547
0.0159434
0.0238517
0.0312043
0.0375322
0.0414313
0.0423323
0.0410543
0.0388282
0.0380045
0.0394162
0.044078
0.0470802
0.0468711
0.045022
0.0389118
0.0132927
-0.0160873
-0.0187296
-0.0208429
-0.0223635
-0.0232291
-0.0233582
-0.0226537
-0.0210466
-0.0184435
-0.0148624
-0.0102598
-0.00477296
0.00152987
0.0084394
0.0156688
0.0230254
0.0298735
0.0358214
0.0397418
0.041192
0.040706
0.0394178
0.039
0.0404265
0.0443259
0.0468242
0.0463415
0.0436346
0.0373835
0.013933
-0.014336
-0.0168701
-0.0189463
-0.0204732
-0.0213678
-0.0215434
-0.0209097
-0.0194041
-0.0169473
-0.0135543
-0.00918951
-0.00397617
0.00201635
0.00858267
0.0154615
0.0224379
0.0289497
0.0346448
0.0385795
0.0403936
0.040413
0.0397465
0.039629
0.0410519
0.0444347
0.0465482
0.0458756
0.0426335
0.0361242
0.0142415
-0.0134029
-0.0158824
-0.0179388
-0.0194694
-0.0203809
-0.0205826
-0.0199867
-0.0185356
-0.0161563
-0.0128637
-0.00862552
-0.0035578
0.0022694
0.00865361
0.0153468
0.0221238
0.0284639
0.0340297
0.0379729
0.0399722
0.0402461
0.0398907
0.0399405
0.0413481
0.0444694
0.0463722
0.0456017
0.0420977
0.0353953
0.0143598
-0.234985
-0.239336
-0.243192
-0.246555
-0.249431
-0.251843
-0.253847
-0.255615
-0.257286
-0.259931
-0.262819
-0.273696
-0.217387
-0.221908
-0.226026
-0.229776
-0.233206
-0.236438
-0.239569
-0.243021
-0.246577
-0.25189
-0.255466
-0.266301
-0.200839
-0.205647
-0.210199
-0.214557
-0.218758
-0.222934
-0.226984
-0.23126
-0.234814
-0.239372
-0.24099
-0.249238
-0.185416
-0.190416
-0.195226
-0.199882
-0.204338
-0.208661
-0.212564
-0.216436
-0.219339
-0.223344
-0.225501
-0.23294
-0.170689
-0.17566
-0.180435
-0.185028
-0.189362
-0.193539
-0.197348
-0.201308
-0.204754
-0.20928
-0.212567
-0.218949
-0.156571
-0.1614
-0.166053
-0.170564
-0.174898
-0.179193
-0.183314
-0.187623
-0.191536
-0.195934
-0.199414
-0.204782
-0.143213
-0.147902
-0.152471
-0.156957
-0.16134
-0.165696
-0.169888
-0.174087
-0.177932
-0.181992
-0.18571
-0.190709
-0.130662
-0.135195
-0.139638
-0.144009
-0.148278
-0.152478
-0.156532
-0.160562
-0.164443
-0.168492
-0.1725
-0.17727
-0.118845
-0.123171
-0.127418
-0.131595
-0.135692
-0.139739
-0.143719
-0.1477
-0.151629
-0.155611
-0.159622
-0.164135
-0.107721
-0.111817
-0.115854
-0.119841
-0.123781
-0.127691
-0.131563
-0.135412
-0.139219
-0.143031
-0.146938
-0.151265
-0.0972916
-0.101157
-0.104979
-0.108763
-0.112512
-0.11623
-0.119915
-0.123574
-0.12722
-0.130882
-0.13467
-0.138805
-0.0875327
-0.0911596
-0.0947507
-0.0983094
-0.101839
-0.105343
-0.108829
-0.112301
-0.115779
-0.119268
-0.122874
-0.126771
-0.0784114
-0.0817957
-0.0851503
-0.0884788
-0.0917858
-0.0950751
-0.0983529
-0.10162
-0.104891
-0.10817
-0.111557
-0.115195
-0.0699014
-0.0730471
-0.076168
-0.0792672
-0.0823484
-0.0854139
-0.0884687
-0.0915131
-0.0945632
-0.0976207
-0.100778
-0.104146
-0.0619801
-0.0648932
-0.0677841
-0.0706551
-0.0735094
-0.0763489
-0.0791789
-0.0819998
-0.0848261
-0.087657
-0.0905743
-0.0936644
-0.0573103
-0.0599779
-0.0626267
-0.0652595
-0.0678779
-0.0704865
-0.0730851
-0.0756864
-0.0782879
-0.0809627
-0.0837766
-0.0502782
-0.0527321
-0.0551675
-0.0575866
-0.0599907
-0.0623834
-0.0647645
-0.0671451
-0.069522
-0.0719591
-0.0745053
-0.0437764
-0.0460279
-0.0482606
-0.0504761
-0.0526754
-0.0548616
-0.0570343
-0.0592028
-0.0613637
-0.0635721
-0.0658634
-0.0377863
-0.039848
-0.0418902
-0.0439142
-0.0459205
-0.0479118
-0.0498874
-0.0518553
-0.0538117
-0.0558034
-0.0578559
-0.032291
-0.0341766
-0.0360419
-0.0378876
-0.0397143
-0.0415238
-0.0433156
-0.0450961
-0.0468616
-0.0486516
-0.0504833
-0.0272762
-0.0289999
-0.0307023
-0.032384
-0.0340452
-0.0356873
-0.0373098
-0.0389178
-0.0405078
-0.0421124
-0.0437429
-0.0227287
-0.0243054
-0.0258598
-0.0273924
-0.0289032
-0.0303932
-0.0318618
-0.033313
-0.0347438
-0.0361804
-0.0376298
-0.0186408
-0.0200853
-0.0215068
-0.0229054
-0.0242811
-0.0256345
-0.0269651
-0.0282758
-0.0295641
-0.0308507
-0.0321394
-0.0150072
-0.0163344
-0.0176381
-0.0189182
-0.0201744
-0.0214071
-0.0226158
-0.0238027
-0.0249655
-0.0261204
-0.0272686
-0.0118268
-0.013052
-0.0142531
-0.01543
-0.0165823
-0.0177104
-0.0188135
-0.0198933
-0.0209479
-0.0219894
-0.0230172
-0.00910509
-0.0102434
-0.0113574
-0.0124469
-0.0135114
-0.0145509
-0.015565
-0.0165547
-0.0175182
-0.0184646
-0.0193918
-0.00685029
-0.00791725
-0.00895992
-0.00997792
-0.0109708
-0.0119385
-0.0128804
-0.0137972
-0.0146875
-0.0155574
-0.016404
-0.005089
-0.00610022
-0.00708731
-0.00804983
-0.00898736
-0.00989965
-0.0107862
-0.0116474
-0.0124819
-0.013294
-0.0140798
-0.00384261
-0.00481595
-0.00576557
-0.00669098
-0.00759171
-0.00846743
-0.00931759
-0.0101423
-0.0109404
-0.0117146
-0.0124605
-0.00315878
-0.00410884
-0.00503614
-0.00594025
-0.00682075
-0.00767732
-0.00850945
-0.00931719
-0.0100994
-0.0108581
-0.0115887
-0.0534242
-0.0463909
-0.00232836
)
;

boundaryField
{
    inlet
    {
        type            zeroGradient;
    }
    outlet
    {
        type            fixedValue;
        value           uniform 0;
    }
    cylinder
    {
        type            zeroGradient;
    }
    top
    {
        type            symmetryPlane;
    }
    bottom
    {
        type            symmetryPlane;
    }
    defaultFaces
    {
        type            empty;
    }
    procBoundary3to1
    {
        type            processor;
        value           nonuniform List<scalar> 
41
(
-0.429137
-0.431614
-0.432802
-0.434548
-0.437315
-0.441226
-0.446279
-0.452409
-0.459411
-0.467245
-0.480871
-0.485804
-0.472794
-0.429032
-0.377563
-0.350897
-0.360802
-0.374181
-0.34499
-0.273057
-0.202567
-0.154498
-0.134511
-0.131425
-0.155661
-0.172109
-0.152597
-0.112023
-0.0943585
-0.0743168
-0.0702005
-0.0621386
-0.0679449
-0.0816004
-0.0804787
-0.0463323
-0.0419477
-0.0532262
-0.0465215
-0.0025073
-0.0419477
)
;
    }
    procBoundary3to2
    {
        type            processor;
        value           nonuniform List<scalar> 
50
(
-0.367803
-0.367803
-0.36994
-0.36994
-0.375515
-0.375459
-0.375459
-0.373258
-0.373258
-0.368147
-0.354745
-0.354745
-0.338562
-0.338562
-0.314302
-0.314302
-0.284178
-0.25733
-0.25733
-0.230137
-0.212447
-0.195741
-0.180212
-0.165536
-0.151579
-0.138401
-0.126039
-0.114442
-0.103561
-0.0933777
-0.0838664
-0.0749939
-0.0667275
-0.059042
-0.0546218
-0.0546218
-0.0478041
-0.0415047
-0.0357041
-0.0303844
-0.0255308
-0.0211297
-0.0171734
-0.0136565
-0.010578
-0.00794293
-0.00575949
-0.00405414
-0.00284605
-0.00218641
)
;
    }
}


// ************************************************************************* //
