/*--------------------------------*- C++ -*----------------------------------*\
  =========                 |
  \\      /  F ield         | OpenFOAM: The Open Source CFD Toolbox
   \\    /   O peration     | Website:  https://openfoam.org
    \\  /    A nd           | Version:  7
     \\/     M anipulation  |
\*---------------------------------------------------------------------------*/
FoamFile
{
    version     2.0;
    format      ascii;
    class       surfaceScalarField;
    location    "370";
    object      phi;
}
// * * * * * * * * * * * * * * * * * * * * * * * * * * * * * * * * * * * * * //

dimensions      [0 3 -1 0 0 0 0];

internalField   nonuniform List<scalar> 
4147
(
-0.000117373
-0.00209866
-0.00042688
-0.00463532
-0.000904035
-0.00601589
-0.00152277
-0.00649999
-0.00226109
-0.00638858
-0.00310252
-0.00592502
-0.00403477
-0.00522199
-0.00505014
-0.00424392
-0.00614649
-0.00283179
-0.000685986
-0.00733387
-0.000132436
-0.00196622
-0.000468619
-0.00429913
-0.000973534
-0.00551098
-0.00161637
-0.00585716
-0.00237481
-0.00563014
-0.00323454
-0.00506528
-0.00418618
-0.00427035
-0.00522468
-0.00320542
-0.00634992
-0.00170654
0.000528178
-0.00756409
-0.000143719
-0.0018225
-0.000498242
-0.00394461
-0.00101888
-0.00499033
-0.00166977
-0.00520627
-0.0024269
-0.00487301
-0.00327586
-0.00421632
-0.00420691
-0.0033393
-0.00521326
-0.00219908
-0.00629148
-0.000628322
0.00166778
-0.00743108
-0.000151564
-0.00167094
-0.00051705
-0.00357913
-0.00104293
-0.00446446
-0.00168785
-0.00456135
-0.00242466
-0.0041362
-0.00323655
-0.00340443
-0.00411023
-0.00246562
-0.00503303
-0.00127627
-0.00599295
0.000331594
0.00263743
-0.00696259
-0.000156529
-0.00151441
-0.000526938
-0.00320872
-0.00104959
-0.0039418
-0.00167727
-0.00393368
-0.00237825
-0.00343521
-0.00313118
-0.00265151
-0.00391635
-0.00168045
-0.00471112
-0.000481506
-0.00549188
0.00111236
0.00335392
-0.00620838
-0.00015932
-0.00135509
-0.000530171
-0.00283787
-0.00104349
-0.00342848
-0.00164582
-0.00333134
-0.00229976
-0.00278127
-0.00297762
-0.00197365
-0.00365096
-0.0010071
-0.00428395
0.000151482
-0.00483774
0.00166615
0.00375216
-0.00523598
-0.000160687
-0.0011944
-0.000529103
-0.00246945
-0.00102935
-0.00292823
-0.00160159
-0.0027591
-0.00220193
-0.00218094
-0.00279514
-0.00138045
-0.00334254
-0.000459701
-0.00379266
0.000601605
-0.00408839
0.00196188
0.00378795
-0.00412418
-0.000161325
-0.00103308
-0.00052587
-0.00210491
-0.00101146
-0.00244265
-0.00155194
-0.00221862
-0.00209655
-0.00163632
-0.002602
-0.000874993
-0.00301878
-4.29278e-05
-0.00327836
0.000861192
-0.00330285
0.00198637
0.00343918
-0.00295408
-0.000161772
-0.000871306
-0.000522087
-0.00174459
-0.000993024
-0.00197171
-0.0015024
-0.00170925
-0.00199268
-0.00114604
-0.00241257
-0.000455102
-0.00270203
0.000246534
-0.00277535
0.000934506
-0.00253147
0.0017425
0.00270596
-0.00179825
-0.000162317
-0.000708989
-0.000518576
-0.00138833
-0.000975632
-0.00151465
-0.0014557
-0.00122918
-0.00189485
-0.000706893
-0.00223419
-0.000115756
-0.00240408
0.000416421
-0.00230237
0.000832797
-0.00180208
0.00124221
0.00161704
-0.000713165
-0.00016294
-0.000546049
-0.000515177
-0.00103609
-0.000958836
-0.00107099
-0.00141098
-0.00077704
-0.00180157
-0.000316296
-0.00206454
0.000147212
-0.00212133
0.000473213
-0.00185434
0.000565806
-0.00110419
0.000492064
0.000158836
0.000354009
-0.000163292
-0.000382757
-0.000510691
-0.000688696
-0.000940005
-0.000641679
-0.00136336
-0.000353682
-0.00170461
2.49467e-05
-0.00189015
0.00033276
-0.00183251
0.000415568
-0.00139818
0.000131472
-0.000361891
-0.00054422
-0.00170629
0.00150323
-0.000162728
-0.000220028
-0.000502972
-0.000348453
-0.000914484
-0.000230167
-0.00130424
3.60789e-05
-0.00158912
0.000309826
-0.00168653
0.000430162
-0.0014982
0.000227243
-0.000878561
-0.000488167
0.000435156
-0.00185794
-0.00402094
0.00274981
-0.000160398
-5.96298e-05
-0.000489206
-1.96457e-05
-0.000876144
0.000156772
-0.00122219
0.000382127
-0.00143525
0.00052288
-0.00142022
0.000415138
-0.00106507
-0.000127906
-0.000226369
-0.00132687
0.00144265
-0.00352696
-0.00683263
0.00425434
-0.000155393
9.57631e-05
-0.000466343
0.000291304
-0.000818277
0.000508706
-0.00110463
0.000668485
-0.00122121
0.000639455
-0.00105525
0.000249175
-0.000470348
-0.000712805
0.000705294
-0.00250251
0.0028218
-0.00564346
-0.0101628
0.00615196
-0.000146916
0.000242679
-0.000431612
0.000576
-0.000734681
0.000811775
-0.000939943
0.000873747
-0.000927303
0.000626815
-0.000560806
-0.000117322
0.000325108
-0.00159872
0.00193063
-0.00410803
0.00463815
-0.00835099
-0.0140195
0.00849487
-0.000134443
0.000377122
-0.000383028
0.000824585
-0.000620695
0.00104944
-0.000719309
0.000972361
-0.000539002
0.000446507
8.38272e-05
-0.000740151
0.00134802
-0.00286291
0.00347923
-0.00623924
0.00688072
-0.0117525
-0.0183597
0.0112209
-0.000117845
0.000494967
-0.000319747
0.00102649
-0.000473964
0.00120366
-0.000438085
0.000936482
-4.94064e-05
5.78289e-05
0.000886788
-0.00167635
0.00260316
-0.00457928
0.00534218
-0.00897827
0.00945588
-0.0158662
-0.0230763
0.0141725
-9.74182e-05
0.000592385
-0.000242197
0.00117127
-0.000294707
0.00125617
-9.62039e-05
0.000737979
0.000540974
-0.000579349
0.00184249
-0.00297786
0.00406859
-0.00680538
0.0074756
-0.0123853
0.0122222
-0.0206128
-0.0279992
0.0171451
-7.38238e-05
0.000666209
-0.000151915
0.00124936
-8.54253e-05
0.00118968
0.000302271
0.000350283
0.00122436
-0.00150144
0.0029341
-0.0046876
0.00570392
-0.0095752
0.00978887
-0.0164702
0.0150446
-0.0258685
-0.0330212
0.0200667
-4.79395e-05
0.000714149
-5.10685e-05
0.00125249
0.000149908
0.000988702
0.00075072
-0.00025053
0.00198877
-0.00273948
0.00413717
-0.00683601
0.00745563
-0.0128937
0.0121283
-0.0211429
0.0177137
-0.0314539
-0.0408033
0.0254957
-2.06958e-05
0.000734844
5.76937e-05
0.0011741
0.000406926
0.00063947
0.00124173
-0.00108533
0.0028205
-0.00431825
0.005423
-0.00943851
0.00926477
-0.0167354
0.0143811
-0.0262592
0.0202645
-0.0373373
-0.0479511
0.0274123
7.50221e-06
0.000172752
0.00100885
0.000682004
0.000130219
0.0017686
-0.00217193
0.00370587
-0.00625552
0.00675989
-0.0124925
0.011063
-0.0210386
0.0164553
-0.0316515
0.0223804
-0.0432624
-0.0543366
0.0287659
0.000293064
0.000972868
-0.000549585
0.00232608
-0.00352514
0.00463115
-0.00856058
0.00811237
-0.0159737
0.0127758
-0.0257019
0.0182668
-0.0371425
0.0239638
-0.0489594
-0.0599849
0.0296121
0.00127868
-0.0014097
0.00290993
-0.00515639
0.00558085
-0.0112315
0.00943912
-0.019832
0.0143297
-0.0305925
0.0197343
-0.0425472
0.0250296
-0.0542546
-0.064893
0.0299378
0.00159953
0.00351551
-0.00707238
0.00653532
-0.0142513
0.0106928
-0.0239895
0.0156593
-0.0355591
0.0208151
-0.0477029
0.0255995
-0.059039
-0.0690941
0.0298005
0.00413602
0.00746918
-0.0175845
0.0118237
-0.028344
0.0167157
-0.0404511
0.0214988
-0.052486
0.0257259
-0.0632661
-0.0726554
0.0292872
0.00835165
0.0127862
0.0174713
-0.0451361
0.0218038
-0.0568186
0.0254739
-0.0669362
-0.0756547
0.0284733
0.0179209
0.0217672
-0.0606648
0.0249113
-0.0700804
-0.0781737
0.0274304
0.0214357
0.0241022
-0.0727468
-0.0802879
0.0262163
0.0231027
0.0248776
-0.00870694
0.0064273
-0.00915964
0.0263118
-0.00875938
0.0523836
-0.0074594
0.0826555
-0.00526467
0.106214
-0.00110318
0.111756
0.00557654
0.0867973
0.0128057
0.0290275
0.0192809
-0.0420032
0.0239146
-0.0991533
0.0262889
-0.137846
0.0269897
-0.146494
0.0246636
-0.153357
0.0210545
-0.160298
0.0214983
-0.13284
0.0261141
-0.0477999
0.0307898
0.0666238
0.0338517
0.112442
0.0333579
0.157274
0.030467
0.171107
0.0292309
0.180893
0.0311644
0.128521
0.0333103
0.000495941
0.0345653
-0.0509719
0.0349387
-0.200898
0.0346356
-0.208171
0.0343041
-0.165142
0.0348233
-0.120424
0.119905
0.0350002
0.189655
-0.189832
0.189671
-0.189093
-0.00892709
0.0077903
-0.00926903
0.0266538
-0.00862136
0.0517359
-0.00680534
0.0808395
-0.00379479
0.103203
0.0011998
0.106761
0.00795635
0.0800408
0.0146773
0.0223066
0.020559
-0.0478849
0.0246045
-0.103199
0.0264468
-0.139688
0.0268933
-0.146941
0.0245547
-0.151018
0.0207477
-0.156491
0.0208565
-0.132949
0.0255299
-0.0524732
0.030536
0.0616177
0.0338397
0.109138
0.0334598
0.157654
0.0305261
0.17404
0.0292385
0.18218
0.0312174
0.126542
0.0333765
-0.00166322
0.0346005
-0.0521959
0.0349352
-0.201233
0.0346389
-0.207875
0.0343204
-0.164823
0.0347857
-0.120889
0.034911
0.18953
0.190247
-0.00870155
0.00906077
-0.00888321
0.0268354
-0.00794928
0.050802
-0.00561629
0.0785065
-0.00184896
0.0994361
0.00377564
0.101137
0.010385
0.0734314
0.0165387
0.0161528
0.0217938
-0.05314
0.0252578
-0.106663
0.0265874
-0.141018
0.0267812
-0.147135
0.0244577
-0.148695
0.0205086
-0.152542
0.0202726
-0.132713
0.0249449
-0.0571456
0.0302631
0.0562995
0.0338117
0.10559
0.0335521
0.157914
0.0305834
0.177009
0.02925
0.183514
0.0312672
0.124525
0.0334346
-0.00383067
0.034623
-0.0533843
0.0349127
-0.201522
0.0346245
-0.207587
0.0343275
-0.164526
0.0347443
-0.121306
0.0348173
0.189457
0.19082
-0.00805694
0.0101551
-0.00802873
0.0268072
-0.00679086
0.0495641
-0.00396522
0.0756809
0.000481317
0.0949895
0.00650782
0.0951102
0.0128221
0.0671172
0.018366
0.0106089
0.0229756
-0.0577496
0.0258678
-0.109555
0.0267075
-0.141857
0.0266517
-0.147079
0.0243678
-0.146411
0.0203366
-0.148511
0.0197561
-0.132132
0.0243657
-0.0617553
0.0299731
0.0506922
0.0337682
0.101794
0.0336354
0.158047
0.0306414
0.180003
0.0292676
0.184888
0.0313133
0.122479
0.0334838
-0.00600118
0.0346321
-0.0545326
0.034871
-0.201761
0.0345923
-0.207308
0.0343249
-0.164259
0.0346985
-0.12168
0.0347191
0.189436
0.191389
-0.00704988
0.0109966
-0.00676421
0.0265215
-0.00521256
0.0480125
-0.00194745
0.0724158
0.00310437
0.0899377
0.00930638
0.0889082
0.0152231
0.0612005
0.0201349
0.00569707
0.0240951
-0.0617097
0.0264283
-0.111888
0.0268036
-0.142233
0.0265029
-0.146778
0.0242795
-0.144188
0.0202269
-0.144459
0.0193139
-0.131219
0.0237995
-0.0662409
0.0296678
0.0448239
0.0337095
0.0977527
0.03371
0.158046
0.0307024
0.183011
0.0292928
0.186297
0.031355
0.120417
0.0335232
-0.00816933
0.034627
-0.0556364
0.0348099
-0.201944
0.0345424
-0.207041
0.034312
-0.164028
0.034648
-0.122016
0.0346164
0.189468
0.191952
-0.00576022
0.0115208
-0.00517573
0.025937
-0.00330853
0.0461453
0.000344997
0.0687622
0.00585775
0.084425
0.0120804
0.0826855
0.0175401
0.0557408
0.0218243
0.00141286
0.0251428
-0.0650282
0.0269333
-0.113679
0.0268718
-0.142171
0.0263325
-0.146239
0.024187
-0.142042
0.0201716
-0.140443
0.0189491
-0.129997
0.0232551
-0.070547
0.0293494
0.0387296
0.0336355
0.0934666
0.0337761
0.157906
0.0307683
0.186018
0.0293265
0.187739
0.0313918
0.118352
0.0335521
-0.0103297
0.0346072
-0.0566915
0.0347298
-0.202067
0.0344753
-0.206786
0.0342884
-0.163841
0.0345922
-0.12232
0.0345092
0.189551
0.192507
-0.00428246
0.0116791
-0.00337044
0.025025
-0.00120265
0.0439775
0.00287767
0.0646819
0.00863773
0.0786649
0.0147511
0.0765721
0.0197315
0.0507605
0.0234123
-0.00226802
0.0261103
-0.0677261
0.0273774
-0.114946
0.0269086
-0.141702
0.0261383
-0.145469
0.0240845
-0.139988
0.0201594
-0.136518
0.0186605
-0.128498
0.0227412
-0.0746277
0.0290205
0.0324503
0.0335457
0.0889414
0.033834
0.157617
0.0308406
0.189012
0.0293692
0.189211
0.0314226
0.116298
0.0335698
-0.0124769
0.034572
-0.0576937
0.0346307
-0.202126
0.0343915
-0.206547
0.0342538
-0.163704
0.0345306
-0.122597
0.0343974
0.189684
0.193054
-0.00271551
0.0114406
-0.00147569
0.0237852
0.00107805
0.0414237
0.00542788
0.0603321
0.0113411
0.0727517
0.0172523
0.070661
0.0217581
0.0462546
0.0248829
-0.00539278
0.0269904
-0.0698337
0.0277559
-0.115711
0.0269101
-0.140856
0.0259181
-0.144477
0.023966
-0.138036
0.0201772
-0.132729
0.0184425
-0.126763
0.0222655
-0.0784506
0.0286835
0.0260323
0.0334391
0.0841858
0.0338833
0.157173
0.0309202
0.191975
0.0294206
0.19071
0.0314465
0.114272
0.0335754
-0.0146059
0.034521
-0.0586393
0.0345132
-0.202118
0.0342917
-0.206325
0.034208
-0.16362
0.0344626
-0.122851
0.034281
0.189865
0.193588
-0.00115612
0.0107984
0.00044691
0.0221822
0.0033644
0.0385063
0.00790744
0.055789
0.0138787
0.0667804
0.0195291
0.0650105
0.0235891
0.0421946
0.0262226
-0.00802628
0.0277776
-0.0713887
0.0280645
-0.115998
0.0268729
-0.139665
0.0256698
-0.143274
0.0238259
-0.136192
0.0202106
-0.129114
0.0182852
-0.124838
0.0218322
-0.0819977
0.0283407
0.0195238
0.0333145
0.079212
0.033924
0.156564
0.0310075
0.194891
0.0294803
0.192237
0.0314626
0.11229
0.0335683
-0.0167116
0.0344538
-0.0595248
0.0343777
-0.202042
0.0341768
-0.206125
0.0341509
-0.163594
0.0343875
-0.123088
0.03416
0.190093
0.194109
0.000364927
0.00972033
0.00239209
0.020155
0.00552115
0.0353772
0.0102187
0.0510915
0.016174
0.0608252
0.0215381
0.0596464
0.025203
0.0385298
0.0274238
-0.0102471
0.0284679
-0.0724328
0.0282996
-0.11583
0.0267938
-0.138159
0.0253917
-0.141871
0.0236591
-0.13446
0.0202457
-0.1257
0.0181751
-0.122767
0.0214417
-0.0852643
0.0279934
0.012972
0.0331703
0.0740352
0.0339551
0.155779
0.0311024
0.197744
0.029547
0.193793
0.0314697
0.110368
0.0335476
-0.0187896
0.03437
-0.0603472
0.034225
-0.201897
0.0340479
-0.205947
0.0340823
-0.163629
0.0343049
-0.12331
0.0340344
0.190363
0.194614
0.0018152
0.00825913
0.00412845
0.0178418
0.00747682
0.0320288
0.0122818
0.0462865
0.0181665
0.0549405
0.0232479
0.054565
0.0265891
0.0351885
0.0284832
-0.0121411
0.0290588
-0.0730084
0.0284584
-0.11523
0.0266699
-0.13637
0.025082
-0.140284
0.0234605
-0.132838
0.02027
-0.12251
0.0180963
-0.120593
0.021089
-0.088257
0.0276418
0.00641919
0.0330043
0.0686727
0.0339759
0.154807
0.0312043
0.200516
0.0296194
0.195378
0.0314667
0.10852
0.0335125
-0.0208354
0.0342696
-0.0611043
0.034056
-0.201683
0.0339059
-0.205797
0.0340021
-0.163725
0.034214
-0.123522
0.0339041
0.190673
0.195099
0.00314231
0.00662005
0.00566894
0.0153151
0.009186
0.0285118
0.0140439
0.0414286
0.0198161
0.0491682
0.0246417
0.0497394
0.0277484
0.0320818
0.0293982
-0.013791
0.0295485
-0.0731587
0.0285379
-0.114219
0.0264984
-0.134331
0.0247395
-0.138525
0.0232258
-0.131325
0.0202731
-0.119557
0.0180323
-0.118353
0.0207646
-0.0909893
0.0272841
-0.000100283
0.032814
0.0631428
0.0339849
0.153636
0.0313117
0.203189
0.0296957
0.196994
0.0314526
0.106763
0.0334623
-0.0228451
0.0341524
-0.0617944
0.0338716
-0.201402
0.0337518
-0.205678
0.0339104
-0.163883
0.0341144
-0.123726
0.0337691
0.191019
0.195563
0.00443055
0.00493932
0.00704698
0.0126987
0.0106478
0.0249109
0.0154901
0.0365864
0.0211104
0.0435479
0.025723
0.0451269
0.0286943
0.0291105
0.0301691
-0.0152658
0.0299352
-0.0729248
0.0285358
-0.11282
0.0262769
-0.132072
0.024363
-0.136611
0.022951
-0.129913
0.0202468
-0.116853
0.0179676
-0.116073
0.0204552
-0.0934769
0.0269158
-0.00656093
0.032596
0.0574627
0.0339802
0.152252
0.0314231
0.205746
0.0297736
0.198643
0.0314263
0.105111
0.0333962
-0.0248151
0.0340187
-0.0624169
0.0336725
-0.201056
0.0335861
-0.205591
0.0338068
-0.164104
0.0340053
-0.123925
0.0336296
0.191394
0.196
0.005793
0.00340066
0.00834566
0.010146
0.0119141
0.0213425
0.0166524
0.0318481
0.0220729
0.0381275
0.0265205
0.0406793
0.0294534
0.0261776
0.0308052
-0.0166176
0.0302143
-0.0723339
0.0284515
-0.111057
0.0260044
-0.129625
0.0239528
-0.134559
0.0226338
-0.128594
0.0201854
-0.114405
0.0178889
-0.113777
0.0201458
-0.0957338
0.0265299
-0.012945
0.0323464
0.0516461
0.0339596
0.150639
0.031536
0.20817
0.0298512
0.200328
0.0313869
0.103575
0.0333137
-0.0267419
0.0338685
-0.0629717
0.0334596
-0.200647
0.0334091
-0.205541
0.0336909
-0.164386
0.0338863
-0.12412
0.0334854
0.191795
0.196409
0.00736685
0.00218576
0.00968753
0.00782536
0.0130864
0.0179436
0.0176125
0.027322
0.0227704
0.0329695
0.0270926
0.0363571
0.0300642
0.023206
0.0313178
-0.0178712
0.0303853
-0.0714015
0.0282863
-0.108958
0.025682
-0.127021
0.0235109
-0.132388
0.0222733
-0.127356
0.0200851
-0.112216
0.0177865
-0.111478
0.0198209
-0.0977682
0.0261184
-0.0192425
0.0320602
0.0457044
0.0339202
0.148779
0.0316479
0.210442
0.0299262
0.20205
0.031334
0.102167
0.0332142
-0.028622
0.0337021
-0.0634596
0.0332336
-0.200179
0.0332209
-0.205528
0.0335622
-0.164727
0.0337567
-0.124315
0.0333368
0.192215
0.196784
0.0092505
0.00143013
0.0112076
0.00586824
0.0143001
0.0148511
0.0184946
0.0231276
0.023312
0.0281521
0.0275255
0.0321436
0.0305724
0.020159
0.0317159
-0.0190146
0.0304463
-0.0701319
0.028039
-0.10655
0.0253072
-0.124289
0.0230349
-0.130116
0.0218666
-0.126188
0.0199414
-0.110291
0.0176527
-0.10919
0.0194681
-0.0995836
0.0256711
-0.0254455
0.0317321
0.0396434
0.0338586
0.146652
0.0317557
0.212545
0.0299965
0.203809
0.0312674
0.100896
0.0330973
-0.0304519
0.0335198
-0.0638822
0.032995
-0.199654
0.033021
-0.205554
0.0334199
-0.165126
0.0336158
-0.124511
0.0331837
0.192647
0.197123
0.011492
0.00115901
0.0130225
0.00433778
0.0156979
0.0121757
0.0194454
0.0193801
0.0238364
0.0237611
0.0279223
0.0280577
0.031025
0.0170564
0.0320066
-0.0199963
0.0303897
-0.0685151
0.0276963
-0.103857
0.0248623
-0.121455
0.0225095
-0.127763
0.0214022
-0.12508
0.019746
-0.108635
0.0174809
-0.106924
0.0190763
-0.101179
0.0251773
-0.0315465
0.0313558
0.0334649
0.0337711
0.144237
0.0318559
0.21446
0.0300608
0.205604
0.031188
0.099769
0.0329632
-0.0322271
0.0333219
-0.0642409
0.032744
-0.199076
0.0328087
-0.205619
0.0332632
-0.16558
0.0334632
-0.124711
0.0330262
0.193084
0.197419
0.0140908
0.00124071
0.0152043
0.00322431
0.0173935
0.00998642
0.0206052
0.0161684
0.0244928
0.0198735
0.0283926
0.0241579
0.0314653
0.0139837
0.0322059
-0.0207369
0.0302178
-0.066527
0.0272515
-0.100891
0.0243372
-0.118541
0.021928
-0.125354
0.0208762
-0.124029
0.0194945
-0.107253
0.0172706
-0.1047
0.0186393
-0.102548
0.0246242
-0.0375314
0.0309225
0.0271666
0.0336533
0.141506
0.031945
0.216168
0.0301192
0.20743
0.0310995
0.0987887
0.032813
-0.0339406
0.0331087
-0.0645366
0.0324813
-0.198449
0.0325834
-0.205721
0.0330914
-0.166088
0.0332981
-0.124917
0.0328643
0.193518
0.197669
0.0170074
0.00137841
0.0177559
0.0024758
0.0194343
0.008308
0.0220568
0.013546
0.0253935
0.0165368
0.0290367
0.0205147
0.031926
0.0110944
0.0323205
-0.0211315
0.0299746
-0.0641811
0.0267859
-0.0977019
0.0238222
-0.115577
0.0213688
-0.1229
0.0203435
-0.123003
0.0192129
-0.106123
0.0170445
-0.102532
0.0181739
-0.103677
0.0240072
-0.0433647
0.0304227
0.0207511
0.0334989
0.13843
0.0320185
0.217649
0.030173
0.209275
0.0310068
0.0979549
0.0326463
-0.0355801
0.0328796
-0.06477
0.0322075
-0.197776
0.0323456
-0.205859
0.0329049
-0.166648
0.0331211
-0.125133
0.0326983
0.193941
0.197868
0.020409
0.00103609
0.0206914
0.00219337
0.0218126
0.00718687
0.0237889
0.0115696
0.0265134
0.0138122
0.0297641
0.0172641
0.0323035
0.00855505
0.0322612
-0.0210892
0.0296944
-0.0616143
0.0264189
-0.0944263
0.0234487
-0.112607
0.0209405
-0.120392
0.0198874
-0.12195
0.0189561
-0.105191
0.01684
-0.100416
0.0177221
-0.104559
0.0233694
-0.049012
0.0298787
0.0142418
0.0333026
0.135006
0.0320751
0.218876
0.0302265
0.211124
0.0309005
0.097281
0.032456
-0.0371356
0.0326392
-0.0649532
0.0319147
-0.197052
0.0320989
-0.206043
0.0327145
-0.167263
0.0329344
-0.125353
0.0325263
0.194349
0.198009
0.0448484
0.00449417
-0.0483064
0.0426733
0.00436843
0.0423114
0.00754881
0.043839
0.010042
0.0469676
0.0106837
0.0523612
0.0118705
0.0594406
0.00147564
0.0646197
-0.0262683
0.0656038
-0.0625984
0.0629968
-0.0918194
0.0584731
-0.108083
0.0531424
-0.115062
0.0486123
-0.11742
0.0444259
-0.101005
0.0394159
-0.095406
0.0367802
-0.101923
0.0395032
-0.051735
0.0422965
0.0114485
0.0411441
0.136158
0.0381875
0.221833
0.0399521
0.209359
0.0472842
0.0899489
0.0524825
-0.0423338
0.0542267
-0.0666974
0.0534485
-0.196274
0.0517811
-0.204376
0.0505471
-0.166029
0.0477564
-0.122563
0.0458154
0.19629
0.197805
0.0556404
0.00711452
-0.0582608
0.0533582
0.00665066
0.052592
0.00831504
0.0534697
0.00916424
0.0559419
0.00821144
0.0605688
0.00724364
0.0664913
-0.00444693
0.0702984
-0.0300754
0.0701685
-0.0624685
0.0667025
-0.0883534
0.0616622
-0.103043
0.0560782
-0.109478
0.0513384
-0.11268
0.0471532
-0.0968199
0.0422051
-0.090458
0.0393585
-0.0990768
0.0417077
-0.0540841
0.0442719
0.00888426
0.043073
0.137357
0.040325
0.224581
0.042705
0.206979
0.0505277
0.0821262
0.0557989
-0.047605
0.0574221
-0.0683206
0.0563516
-0.195203
0.0544578
-0.202482
0.0530448
-0.164616
0.0498874
-0.119405
0.0476964
0.198481
0.197473
0.0647647
0.00912832
-0.0667784
0.0630735
0.00834179
0.0624573
0.00893128
0.0630827
0.0085388
0.0650597
0.00623449
0.0688803
0.00342303
0.0734821
-0.00904878
0.0758412
-0.0324345
0.0745527
-0.0611799
0.0703669
-0.0841676
0.0649878
-0.0976636
0.05924
-0.10373
0.0542739
-0.107714
0.0500462
-0.0925922
0.0451802
-0.0855919
0.0421134
-0.0960101
0.0439831
-0.0559538
0.046314
0.00655331
0.0450698
0.138601
0.042643
0.227008
0.0458111
0.203811
0.0541187
0.0738186
0.0593856
-0.0528719
0.0608233
-0.0697583
0.0594024
-0.193782
0.0572492
-0.200329
0.055619
-0.162986
0.0520729
-0.115859
0.0496565
0.200898
0.197016
0.0723635
0.0105073
-0.0737424
0.0713463
0.00935894
0.0711159
0.00916171
0.0717714
0.00788325
0.0734497
0.00455625
0.0765332
0.000339499
0.0798458
-0.0123614
0.0808462
-0.0334349
0.0785876
-0.0589213
0.0738827
-0.0794626
0.0682886
-0.0920695
0.0624659
-0.0979073
0.0573271
-0.102575
0.0530618
-0.088327
0.0483179
-0.0808479
0.045038
-0.0927302
0.0463355
-0.0572513
0.048403
0.00448587
0.0471563
0.139848
0.0451974
0.228967
0.04932
0.199689
0.0580814
0.0650571
0.0632448
-0.0580353
0.0644238
-0.0709373
0.0626027
-0.191961
0.0601504
-0.197876
0.058264
-0.1611
0.0542976
-0.111893
0.0516704
0.203525
0.196401
0.0786633
0.0113569
-0.0795129
0.0781808
0.00984137
0.0783335
0.00900905
0.0791163
0.00710044
0.0806035
0.00306908
0.0830551
-0.00211209
0.0852594
-0.0145657
0.0851859
-0.0333614
0.0822708
-0.0560061
0.077287
-0.0744789
0.071612
-0.0863945
0.0657939
-0.0920892
0.0605241
-0.0973054
0.0562082
-0.0840111
0.0516124
-0.0762522
0.0481416
-0.0892594
0.0487778
-0.0578875
0.0505225
0.00274116
0.0493362
0.141034
0.0480434
0.230259
0.053286
0.194446
0.062445
0.0558981
0.0673798
-0.0629701
0.0682242
-0.0717816
0.0659529
-0.18969
0.0631566
-0.19508
0.0609679
-0.158911
0.056546
-0.107471
0.053737
0.206334
0.195588
0.083926
0.0117902
-0.0843593
0.083838
0.00992937
0.084275
0.00857201
0.0851619
0.00621355
0.0864944
0.00173657
0.0883913
-0.00400896
0.0897443
-0.0159188
0.0889442
-0.0325612
0.0856806
-0.0527426
0.0806266
-0.0694248
0.0749777
-0.0807456
0.0692263
-0.0863377
0.0638712
-0.0919503
0.0594919
-0.0796318
0.0550566
-0.0718169
0.0514273
-0.0856301
0.0513247
-0.0577849
0.0526556
0.00141022
0.0516029
0.142087
0.0512365
0.230626
0.0577686
0.187914
0.0672308
0.0464359
0.0717911
-0.0675304
0.0722213
-0.0722118
0.0694507
-0.186919
0.0662597
-0.191889
0.0637156
-0.156367
0.0588002
-0.102556
0.0558541
0.20928
0.194523
0.0884849
0.0118801
-0.0885748
0.0886664
0.00974787
0.0892742
0.0079642
0.0902012
0.00528654
0.0913754
0.000562392
0.0928031
-0.00543665
0.0935402
-0.0166559
0.0923103
-0.0313313
0.0889329
-0.0493652
0.0839604
-0.0644523
0.0784156
-0.0752009
0.0727726
-0.0806947
0.0673769
-0.0865546
0.0629241
-0.075179
0.0586447
-0.0675376
0.054892
-0.0818774
0.0539788
-0.0568716
0.0547729
0.000616045
0.0539384
0.142921
0.0548274
0.229737
0.0628189
0.179923
0.0724492
0.0368055
0.0764714
-0.0715526
0.076408
-0.0721484
0.0730918
-0.183603
0.0694492
-0.188246
0.0664883
-0.153406
0.0610383
-0.0971056
0.0580197
0.212299
0.193135
0.092645
0.0117111
-0.092476
0.0929934
0.00939944
0.0936797
0.00727791
0.0945869
0.00437941
0.0955978
-0.00044858
0.0966371
-0.00647595
0.0969386
-0.0169574
0.0954855
-0.0298782
0.0921404
-0.0460201
0.0873413
-0.0596532
0.0819527
-0.0698122
0.0764406
-0.0751827
0.0710477
-0.0811617
0.0665191
-0.0706504
0.0623742
-0.0633926
0.0585262
-0.0780293
0.0567225
-0.055068
0.0568233
0.000515202
0.0563187
0.143426
0.0588649
0.227191
0.0684698
0.170318
0.0780963
0.027179
0.0814028
-0.0748591
0.080772
-0.0715175
0.0768694
-0.1797
0.0727116
-0.184089
0.0692639
-0.149958
0.0632345
-0.0910762
0.0602337
0.215299
0.191337
0.096629
0.0113607
-0.0962786
0.0970783
0.00895012
0.0977805
0.00657572
0.0986286
0.00353134
0.0994726
-0.00129257
0.100197
-0.00720025
0.100185
-0.0169451
0.0986314
-0.028325
0.0953929
-0.0427816
0.0908105
-0.0550708
0.0856126
-0.0646143
0.0802388
-0.0698089
0.0748878
-0.0758107
0.0702953
-0.066058
0.0662465
-0.0593438
0.0623135
-0.0740964
0.0595194
-0.0522738
0.0587363
0.00129829
0.0587277
0.143435
0.0634019
0.222516
0.0747362
0.158983
0.0841494
0.0177659
0.0865546
-0.0772644
0.0852954
-0.0702583
0.0807744
-0.175179
0.0760307
-0.179345
0.072017
-0.145945
0.0653615
-0.0844207
0.0625
0.218161
0.189019
0.100589
0.0108808
-0.100109
0.101099
0.00843978
0.101781
0.00589425
0.102544
0.00276794
0.10323
-0.00197794
0.103696
-0.00766647
0.103447
-0.0166967
0.101857
-0.0267343
0.0987533
-0.0396781
0.0943974
-0.050715
0.0894144
-0.0596313
0.084177
-0.0645715
0.078899
-0.0705327
0.0742745
-0.0614334
0.0702684
-0.0553377
0.066233
-0.070061
0.0623288
-0.0483696
0.060445
0.00318211
0.0611804
0.142699
0.068506
0.215191
0.0816122
0.145877
0.0905631
0.00881497
0.091882
-0.0785833
0.0899553
-0.0683316
0.0847953
-0.170019
0.0793882
-0.173938
0.0747205
-0.141277
0.0673922
-0.0770925
0.0648287
0.220724
0.186051
0.104615
0.0103096
-0.104044
0.105161
0.007894
0.105804
0.00525165
0.106471
0.00210057
0.107008
-0.00251529
0.107262
-0.00791994
0.106827
-0.0162616
0.105225
-0.0251327
0.102262
-0.0367147
0.0981228
-0.0465759
0.093372
-0.0548805
0.0882686
-0.0594681
0.0830811
-0.0653453
0.0784799
-0.0568321
0.074454
-0.0513118
0.0702617
-0.0658687
0.0651378
-0.0432457
0.0619352
0.00638469
0.0637509
0.140884
0.0742668
0.204675
0.0890668
0.131077
0.0972651
0.000616654
0.0973256
-0.0786438
0.0947236
-0.0657296
0.0889184
-0.164214
0.0827646
-0.167784
0.0773472
-0.135859
0.0693036
-0.0690489
0.06724
0.222788
0.18228
0.108749
0.00967685
-0.108116
0.109315
0.00732809
0.109913
0.00465398
0.110482
0.00153098
0.110883
-0.00291611
0.11096
-0.00799721
0.110374
-0.0156754
0.10877
-0.0235284
0.105943
-0.0338878
0.102004
-0.0426368
0.0974942
-0.050371
0.0925308
-0.0545048
0.0874339
-0.0602484
0.0829313
-0.0523295
0.0788281
-0.0472086
0.0743819
-0.0614225
0.0680188
-0.0368826
0.0633429
0.0110605
0.0666331
0.137593
0.0808129
0.190495
0.097046
0.114844
0.104148
-0.00648578
0.102813
-0.0773081
0.0995691
-0.0624859
0.0931268
-0.157772
0.0861417
-0.160799
0.0798735
-0.129591
0.0710816
-0.060257
0.0697688
0.224101
0.177532
0.113008
0.0090042
-0.112336
0.113584
0.00675218
0.114136
0.00410197
0.114613
0.00105446
0.11489
-0.00319295
0.114821
-0.00792828
0.114113
-0.0149676
0.112508
-0.0219237
0.109811
-0.0311909
0.106057
-0.0388829
0.101786
-0.0460994
0.0969833
-0.0497022
0.0919628
-0.0552279
0.0876366
-0.0480032
0.0834263
-0.0429983
0.0786008
-0.0565971
0.0711963
-0.0294781
0.0651662
0.0170906
0.0703619
0.132398
0.0883775
0.17248
0.10546
0.0977609
0.111072
-0.0120973
0.108261
-0.0744972
0.10446
-0.0586846
0.0974018
-0.150714
0.0895056
-0.152903
0.0822839
-0.12237
0.0727301
-0.0507032
0.0724733
0.224358
0.171618
0.117405
0.00830911
-0.11671
0.117982
0.00617499
0.118489
0.00359478
0.118881
0.000662757
0.119047
-0.00335908
0.118857
-0.0077385
0.118055
-0.0141649
0.116452
-0.0203214
0.113877
-0.0286155
0.110302
-0.0353082
0.106252
-0.042049
0.101643
-0.045093
0.0966851
-0.0502703
0.0925864
-0.0439045
0.0882908
-0.0387028
0.0829717
-0.0512779
0.0750601
-0.0215665
0.0684606
0.0236902
0.0760466
0.124812
0.0972835
0.151243
0.114136
0.0809088
0.117853
-0.0158145
0.113586
-0.0702308
0.109368
-0.0544667
0.101732
-0.143078
0.0928502
-0.144021
0.0845794
-0.114099
0.0742856
-0.0404094
0.0754459
0.223197
0.16435
0.12195
0.00760667
-0.121248
0.122521
0.00560442
0.122985
0.00313114
0.123301
0.000346644
0.12337
-0.00342831
0.123081
-0.00745007
0.122207
-0.0132905
0.120613
-0.0187277
0.118149
-0.0261514
0.114756
-0.031915
0.110903
-0.0381955
0.106518
-0.0407086
0.101633
-0.0453851
0.0977595
-0.040031
0.0934587
-0.034402
0.0876274
-0.0454466
0.0799947
-0.0139339
0.0744269
0.029258
0.0848074
0.114431
0.107528
0.128523
0.122702
0.0657341
0.124268
-0.0173803
0.118721
-0.0646833
0.114279
-0.050025
0.106114
-0.134912
0.0961846
-0.134092
0.0867883
-0.104702
0.0758365
-0.0294577
0.0788243
0.22021
0.15557
0.126658
0.00690942
-0.125961
0.127215
0.00504783
0.127636
0.00270963
0.127886
9.6903e-05
0.127872
-0.00341426
0.127505
-0.00708298
0.126579
-0.0123645
0.125004
-0.0171522
0.12264
-0.0237879
0.119434
-0.0287088
0.115756
-0.0345175
0.111613
-0.0365654
0.106846
-0.0406184
0.103143
-0.0363281
0.0989522
-0.0302112
0.0927551
-0.0392495
0.0861634
-0.0073421
0.0832905
0.0321309
0.0963477
0.101374
0.118234
0.106636
0.130562
0.0534059
0.130112
-0.0169299
0.123638
-0.0582091
0.119189
-0.0455765
0.110552
-0.126275
0.0995396
-0.12308
0.0889797
-0.0941426
0.077549
-0.018027
0.0828018
0.214957
0.145185
0.131545
0.00622756
-0.130864
0.132082
0.0045112
0.132463
0.00232912
0.132654
-9.47249e-05
0.13257
-0.00333025
0.132142
-0.00665514
0.131182
-0.0114039
0.129635
-0.0156057
0.127365
-0.0215176
0.124348
-0.0256916
0.120835
-0.0310053
0.11693
-0.0326598
0.112355
-0.0360438
0.108749
-0.0327219
0.104784
-0.026246
0.0985448
-0.0330105
0.0934397
-0.00223693
0.0938363
0.0317342
0.108555
0.0866549
0.127883
0.0873086
0.137164
0.044125
0.13531
-0.0150762
0.128381
-0.0512799
0.124115
-0.04131
0.115063
-0.117223
0.10298
-0.110997
0.0912954
-0.082458
0.0796951
-0.00642667
0.0876267
0.207025
0.133212
0.136631
0.00556907
-0.135972
0.137142
0.00399981
0.137483
0.00198859
0.137625
-0.000237265
0.137483
-0.00318829
0.13701
-0.00618221
0.13603
-0.0104234
0.134522
-0.0140975
0.132342
-0.019338
0.12951
-0.0228591
0.126166
-0.0276613
0.122483
-0.0289773
0.118172
-0.0317327
0.114618
-0.0291682
0.110962
-0.0225897
0.105073
-0.0271217
0.101525
0.00131181
0.104426
0.0288328
0.119202
0.0718785
0.13546
0.0710514
0.142419
0.0371661
0.139996
-0.0126534
0.133062
-0.0443463
0.129088
-0.0373358
0.119675
-0.107811
0.106618
-0.0979398
0.0940129
-0.0698527
0.0826913
0.00489491
0.0935817
0.196135
0.119807
0.141935
0.00493994
-0.141306
0.142418
0.00351747
0.14272
0.00168592
0.142821
-0.000337472
0.142632
-0.00300025
0.142128
-0.00567746
0.141141
-0.00943673
0.139678
-0.012635
0.137591
-0.0172508
0.134935
-0.0202031
0.131767
-0.0244935
0.128297
-0.0255064
0.124293
-0.0277291
0.1208