/*--------------------------------*- C++ -*----------------------------------*\
  =========                 |
  \\      /  F ield         | OpenFOAM: The Open Source CFD Toolbox
   \\    /   O peration     | Website:  https://openfoam.org
    \\  /    A nd           | Version:  7
     \\/     M anipulation  |
\*---------------------------------------------------------------------------*/
FoamFile
{
    version     2.0;
    format      ascii;
    class       surfaceScalarField;
    location    "20";
    object      phi;
}
// * * * * * * * * * * * * * * * * * * * * * * * * * * * * * * * * * * * * * //

dimensions      [0 3 -1 0 0 0 0];

internalField   nonuniform List<scalar> 
4137
(
-0.000438929
0.00013052
-0.000569449
-0.00225927
0.00014107
-0.000710518
-0.0026947
0.000151407
-0.000861926
0.000615073
-0.00315837
-0.00622116
0.000161494
-0.00102342
0.000652153
-0.00364903
0.00150782
-0.00707683
-0.0113821
0.000171281
-0.0011947
0.000687501
-0.00416525
0.00158138
-0.0079707
0.00288395
-0.0126847
0.00461927
-0.0183667
-0.0250511
0.000180699
-0.0013754
0.000720823
-0.00470537
0.00164929
-0.00889917
0.0029915
-0.0140269
0.00476337
-0.0201386
0.00696402
-0.0272517
-0.0353416
0.00018966
-0.00156506
0.000751772
-0.00526748
0.00171079
-0.00985818
0.00308574
-0.0154019
0.00488381
-0.0219367
0.00709293
-0.0294609
0.0096746
-0.0379233
-0.0472144
0.000198061
-0.00176312
0.000779951
-0.00584937
0.00176499
-0.0108432
0.0031652
-0.0168021
0.00497842
-0.0237499
0.00718132
-0.0316638
0.00972323
-0.0404652
0.0125231
-0.0500143
0.0154711
-0.0601159
-0.0705495
0.000205781
-0.0019689
0.000804924
-0.00644852
0.00181099
-0.0118493
0.00322833
-0.0182194
0.00504508
-0.0255667
0.0072266
-0.0338453
0.00971078
-0.0429493
0.0124075
-0.052711
0.0152036
-0.062912
-0.0733148
0.0179689
0.000212692
-0.00218159
0.000826233
-0.00706206
0.00184783
-0.0128709
0.00327364
-0.0196452
0.00508177
-0.0273748
0.00722648
-0.03599
0.00963517
-0.045358
0.0122104
-0.0552862
0.0148374
-0.065539
-0.0758709
0.0173934
0.000218659
-0.00240025
0.000843417
-0.00768681
0.00187459
-0.0139021
0.00329971
-0.0210704
0.00508672
-0.0291618
0.00717917
-0.0380824
0.0094951
-0.047674
0.0119315
-0.0577226
0.0143743
-0.0679819
-0.0782062
0.0167097
0.000223547
-0.0026238
0.000856024
-0.00831929
0.00189041
-0.0149364
0.00330528
-0.0224852
0.00505847
-0.030915
0.00708344
-0.0401074
0.00929019
-0.0498807
0.011572
-0.0600044
0.0138176
-0.0702275
-0.0803118
0.0159233
0.000227223
-0.00285102
0.000863631
-0.0089557
0.0018945
-0.0159673
0.0032893
-0.02388
0.00499596
-0.0326216
0.00693871
-0.0420502
0.00902097
-0.051963
0.0111342
-0.0621177
0.0131719
-0.0722651
-0.0821814
0.0150415
0.000229567
-0.00308059
0.000865857
-0.00959199
0.00188621
-0.0169877
0.00325096
-0.0252448
0.00489857
-0.0342692
0.00674505
-0.0438966
0.00868885
-0.0539068
0.0106216
-0.0640504
0.0124429
-0.0740864
-0.0838109
0.0140724
0.000230464
-0.00331105
0.000862371
-0.0102239
0.00186501
-0.0179903
0.00318972
-0.0265695
0.00476611
-0.0358456
0.00650318
-0.0456337
0.00829606
-0.0556997
0.0100384
-0.0657928
0.0116372
-0.0756853
-0.0851985
0.0130249
0.000229819
-0.00354087
0.000852908
-0.010847
0.00183051
-0.0189679
0.00310532
-0.0278443
0.00459889
-0.0373392
0.00621447
-0.0472493
0.0078456
-0.0573308
0.00938953
-0.0673367
0.0107621
-0.0770579
-0.0863446
0.0119082
0.000227549
-0.00376842
0.000837271
-0.0114567
0.00178253
-0.0199132
0.00299783
-0.0290596
0.00439762
-0.038739
0.00588084
-0.0487325
0.00734107
-0.058791
0.00868067
-0.0686763
0.00982511
-0.0782023
-0.087251
0.0107316
0.000223595
-0.00399202
0.00081534
-0.0120485
0.00172102
-0.0208189
0.0028676
-0.0302062
0.00416348
-0.0400349
0.00550475
-0.0500738
0.00678659
-0.0600728
0.00791776
-0.0698074
0.00883388
-0.0791185
-0.0879213
0.00950413
0.000217914
-0.00420993
0.000787071
-0.0126176
0.00164611
-0.0216779
0.00271524
-0.0312753
0.00389801
-0.0412177
0.00508909
-0.0512649
0.00618669
-0.0611704
0.00710701
-0.0707278
0.00779616
-0.0798076
-0.0883598
0.0082347
0.000210487
-0.00442042
0.000752502
-0.0131596
0.00155811
-0.0224835
0.00254167
-0.0322589
0.00360311
-0.0422791
0.00463711
-0.0522989
0.00554619
-0.0620795
0.00625477
-0.0714364
0.00671949
-0.0802723
-0.088572
0.00693167
0.000201316
-0.00462173
0.00071175
-0.0136701
0.00145749
-0.0232292
0.00234804
-0.0331494
0.003281
-0.0432121
0.00415238
-0.0531702
0.00487011
-0.0627973
0.00536738
-0.0719336
0.00561119
-0.0805161
-0.0885637
0.0056029
0.000190426
-0.00481216
0.000665008
-0.0141446
0.00134485
-0.0239091
0.00213571
-0.0339403
0.00293413
-0.0440105
0.00363869
-0.0538748
0.00416359
-0.0633222
0.00445107
-0.0722211
0.00447825
-0.0805433
-0.0883411
0.00425561
0.000177861
-0.00499002
0.000612543
-0.0145793
0.00122096
-0.0245175
0.00190626
-0.0346256
0.00256518
-0.0446694
0.00309998
-0.0544096
0.00343179
-0.063654
0.00351191
-0.0723012
0.00332722
-0.0803586
-0.0879104
0.00289655
0.00016369
-0.00515371
0.000554689
-0.0149703
0.0010867
-0.0250495
0.00166142
-0.0352003
0.00217699
-0.045185
0.00254032
-0.0547729
0.00267989
-0.0637935
0.00255586
-0.0721772
0.00216386
-0.0799666
-0.0872786
0.00153199
0.000147998
-0.00530171
0.000491842
-0.0153142
0.000943046
-0.0255007
0.00140303
-0.0356603
0.00177251
-0.0455545
0.00196383
-0.0549642
0.00191312
-0.0637428
0.00158913
-0.0718532
0.000993606
-0.0793711
-0.0864325
0.000147574
0.000130892
-0.0054326
0.000424449
-0.0156077
0.000791063
-0.0258673
0.00113306
-0.0360023
0.00135475
-0.0457762
0.0013746
-0.0549841
0.00113643
-0.0635046
0.000617411
-0.0713342
-0.000168397
-0.0785853
-0.085408
-0.0011929
0.00011249
-0.00554509
0.000353001
-0.0158482
0.000631885
-0.0261462
0.000853507
-0.0362239
0.000926738
-0.0458494
0.000776661
-0.054834
0.000354648
-0.0630826
-0.00035528
-0.0706243
-0.0013365
-0.0776041
-0.0842039
-0.00254065
9.29275e-05
-0.00563802
0.000278022
-0.0160333
0.000466683
-0.0263349
0.000566402
-0.0363236
0.000491471
-0.0457745
0.00017402
-0.0545166
-0.000427461
-0.0624812
-0.00132264
-0.0697291
-0.00248929
-0.0764374
-0.0828184
-0.00387476
7.23515e-05
-0.00571037
0.00020006
-0.016161
0.000296651
-0.0264315
0.000273761
-0.0363007
5.20034e-05
-0.0455527
-0.000429576
-0.054035
-0.00120527
-0.0617055
-0.00227978
-0.0686546
-0.00362716
-0.0750901
-0.0812553
-0.00519026
5.09225e-05
-0.00576129
0.000119671
-0.0162298
0.000122982
-0.0264348
-2.22682e-05
-0.0361555
-0.000389176
-0.0451858
-0.00103043
-0.0533937
-0.00197435
-0.0607615
-0.00322177
-0.0674071
-0.00474526
-0.0735666
-0.0795173
-0.00648328
2.88547e-05
-0.00579015
3.74045e-05
-0.0162383
-5.32035e-05
-0.0263442
-0.000320372
-0.0358883
-0.000829151
-0.044677
-0.00162512
-0.0525977
-0.00273049
-0.0596562
-0.00414366
-0.065994
-0.00583854
-0.0718717
-0.0776057
-0.00775009
5.84725e-06
-0.00579599
-4.62255e-05
-0.0161863
-0.000230803
-0.0261596
-0.000618197
-0.0355009
-0.00126555
-0.0440296
-0.00221057
-0.0516527
-0.0034698
-0.058397
-0.0050405
-0.0644233
-0.00690159
-0.0700106
-0.07552
-0.00898734
-1.72988e-05
-0.0057787
-0.000130636
-0.0160729
-0.000408698
-0.0258815
-0.000914324
-0.0349953
-0.00169623
-0.0432477
-0.00278409
-0.0505649
-0.0041888
-0.0569922
-0.00590746
-0.0627046
-0.00792857
-0.0679895
-0.0732566
-0.010192
-4.0613e-05
-0.00573808
-0.000215313
-0.0158982
-0.000585927
-0.0255109
-0.00120728
-0.0343739
-0.00211932
-0.0423357
-0.00334346
-0.0493407
-0.00488462
-0.0554511
-0.00674002
-0.0608492
-0.00891239
-0.0658171
-0.0708113
-0.0113577
-6.41347e-05
-0.00567395
-0.000299799
-0.0156626
-0.00076157
-0.0250491
-0.00149575
-0.0336398
-0.00253326
-0.0412982
-0.00388702
-0.047987
-0.00555527
-0.0537828
-0.00753381
-0.0588707
-0.00984043
-0.0635105
-0.0681731
-0.0124786
-8.76423e-05
-0.00558631
-0.000383621
-0.0153666
-0.000934771
-0.024498
-0.00177855
-0.032796
-0.00293679
-0.04014
-0.00441387
-0.0465099
-0.00620044
-0.0519963
-0.00828629
-0.0567848
-0.0106983
-0.0610984
-0.0653026
-0.0135689
-0.000110986
-0.00547532
-0.000466324
-0.0150112
-0.00110471
-0.0238596
-0.00205459
-0.0318461
-0.00332884
-0.0388657
-0.00492376
-0.044915
-0.00682287
-0.0500972
-0.00900389
-0.0546038
-0.0114273
-0.058675
-0.0625988
-0.0141311
-0.000134024
-0.0053413
-0.000547469
-0.0145978
-0.0012706
-0.0231365
-0.00232278
-0.0307939
-0.00370827
-0.0374802
-0.0054161
-0.0432071
-0.00742442
-0.0480888
-0.00970697
-0.0523213
-0.0122352
-0.0561468
-0.0598035
-0.0150306
-0.000156621
-0.00518467
-0.000626628
-0.0141278
-0.00143165
-0.0223315
-0.00258202
-0.0296435
-0.00407364
-0.0359886
-0.00588893
-0.0413918
-0.00800167
-0.0459761
-0.0103837
-0.0499392
-0.0130112
-0.0535193
-0.0569305
-0.0158842
-0.000178645
-0.00500603
-0.000703393
-0.013603
-0.00158713
-0.0214477
-0.00283124
-0.0283994
-0.00442355
-0.0343963
-0.00634025
-0.0394751
-0.00855107
-0.0437653
-0.0110258
-0.0474644
-0.0137408
-0.0508044
-0.0539841
-0.0166871
-0.000199972
-0.00480606
-0.000777383
-0.0130256
-0.00173636
-0.0204887
-0.00306948
-0.0270663
-0.0047568
-0.032709
-0.0067686
-0.0374633
-0.00907079
-0.0414631
-0.0116312
-0.044904
-0.014425
-0.0480105
-0.05097
-0.0174392
-0.000220486
-0.00458557
-0.000848249
-0.0123979
-0.00187873
-0.0194583
-0.00329593
-0.0256491
-0.00507245
-0.0309325
-0.00717301
-0.0353628
-0.00955998
-0.0390761
-0.0121994
-0.0422647
-0.0150657
-0.0451442
-0.0478921
-0.0181435
-0.000240082
-0.00434549
-0.000915674
-0.0117223
-0.00201371
-0.0183602
-0.00350988
-0.0241529
-0.00536972
-0.0290726
-0.00755276
-0.0331797
-0.0100182
-0.0366106
-0.0127306
-0.0395523
-0.015664
-0.0422108
-0.0447537
-0.0188025
-0.000258664
-0.00408683
-0.000979377
-0.0110016
-0.00214081
-0.0171988
-0.00371072
-0.022583
-0.00564799
-0.0271353
-0.00790737
-0.0309204
-0.0104453
-0.0340727
-0.0132251
-0.0367725
-0.016221
-0.0392149
-0.0415574
-0.0194173
-0.000276143
-0.00381068
-0.0010391
-0.0102386
-0.00225963
-0.0159783
-0.00389794
-0.0209447
-0.00590674
-0.0251266
-0.00823642
-0.0285907
-0.010841
-0.0314682
-0.013683
-0.0339305
-0.016737
-0.0361608
-0.0383061
-0.0199883
-0.000292441
-0.00351824
-0.00109462
-0.00943642
-0.00236978
-0.0147031
-0.00407109
-0.0192434
-0.00614552
-0.0230521
-0.00853956
-0.0261967
-0.0112051
-0.0288026
-0.0141043
-0.0310313
-0.0172123
-0.0330528
-0.0350028
-0.0205156
-0.000307487
-0.00321075
-0.00114574
-0.00859817
-0.00247095
-0.0133779
-0.00422977
-0.0174846
-0.00636394
-0.020918
-0.00881646
-0.0237441
-0.0115375
-0.0260816
-0.014489
-0.0280798
-0.0176467
-0.0298951
-0.0316508
-0.0209987
-0.000321216
-0.00288954
-0.00119227
-0.00772712
-0.00256284
-0.0120073
-0.00437362
-0.0156738
-0.00656164
-0.0187299
-0.00906682
-0.021239
-0.0118379
-0.0233105
-0.0148367
-0.0250811
-0.0180399
-0.0266918
-0.0282538
-0.0214369
-0.000333569
-0.00255597
-0.00123404
-0.00682665
-0.00264519
-0.0105962
-0.00450232
-0.0138167
-0.00673829
-0.016494
-0.00929032
-0.0186869
-0.012106
-0.0204949
-0.0151471
-0.02204
-0.0183913
-0.0234476
-0.0248157
-0.0218294
-0.000344495
-0.00221147
-0.00127092
-0.00590023
-0.00271776
-0.00914933
-0.00461559
-0.0119188
-0.00689357
-0.014216
-0.00948666
-0.0160938
-0.0123414
-0.0176401
-0.0154198
-0.0189616
-0.0187004
-0.020167
-0.021341
-0.0221751
-0.000353948
-0.00185753
-0.00130277
-0.00495141
-0.00278036
-0.00767174
-0.00471316
-0.00998604
-0.00702723
-0.0119019
-0.00965555
-0.0134655
-0.0125439
-0.0147517
-0.0156545
-0.015851
-0.0189667
-0.0168548
-0.0178343
-0.0224734
-0.000361887
-0.00149564
-0.00132948
-0.00398381
-0.0028328
-0.00616841
-0.00479483
-0.00802401
-0.00713901
-0.00955774
-0.00979674
-0.0108078
-0.0127132
-0.0118352
-0.0158508
-0.0127134
-0.0191895
-0.0135161
-0.0143005
-0.0227233
-0.00036828
-0.00112736
-0.00135096
-0.00300113
-0.00287494
-0.00464444
-0.0048604
-0.00603856
-0.00722869
-0.00718944
-0.00990999
-0.00812647
-0.012849
-0.00889619
-0.0160083
-0.00955414
-0.0193684
-0.010156
-0.0107448
-0.0229241
-0.000373099
-0.000754261
-0.00136714
-0.00200708
-0.00290665
-0.00310494
-0.00490971
-0.0040355
-0.00729611
-0.00480303
-0.0099951
-0.00542749
-0.0129511
-0.00594022
-0.0161267
-0.00637853
-0.019503
-0.00677972
-0.00717247
-0.0230753
-0.000376323
-0.00137796
-0.00292784
-0.00494265
-0.00202069
-0.00734114
-0.00240454
-0.0100519
-0.0027167
-0.0130192
-0.00297294
-0.0162057
-0.003192
-0.0195929
-0.00339257
-0.00358903
-0.0231763
-0.00495914
-0.00736367
-0.0100804
-0.0130533
-0.0162453
-0.0196379
-0.0232269
0.0583404
0.0119388
-0.058371
0.0582028
0.0131625
0.0579492
0.0143259
0.0575709
0.0154198
0.0570595
0.0164347
0.0564077
0.0173614
0.0556094
0.0181918
0.0189183
0.0617478
0.0118451
-0.0616541
0.0617506
0.0131596
0.0616532
0.0144234
0.0614457
0.0156272
0.061119
0.0167614
0.0606639
0.0178165
0.0600725
0.0187832
0.0196529
0.0650718
0.0116353
-0.064862
0.0652094
0.013022
0.0652651
0.0143677
0.065229
0.0156634
0.0650907
0.0168997
0.0648401
0.0180671
0.0644673
0.0191559
0.0201569
0.0683282
0.0113262
-0.0680191
0.0685847
0.0127655
0.0687792
0.0141731
0.0689018
0.0155408
0.0689418
0.0168597
0.0688885
0.0181205
0.0687307
0.0193137
0.0204299
0.07155
0.0109388
-0.0711626
0.0719044
0.0124111
0.0722172
0.0138603
0.072479
0.015279
0.0726795
0.0166591
0.0728079
0.0179921
0.0728527
0.0192689
0.0204803
0.0747769
0.0104945
-0.0743326
0.0752064
0.0119816
0.0756138
0.013453
0.0759907
0.014902
0.0763281
0.0163218
0.0766155
0.0177046
0.0768421
0.0190423
0.0203264
0.0780481
0.0100128
-0.0775664
0.0785308
0.0114989
0.0790089
0.0129749
0.0794754
0.0144355
0.0799226
0.0158746
0.0803416
0.0172856
0.0807223
0.0186616
0.0199948
0.0813992
0.0095099
-0.0808963
0.0819163
0.0109819
0.0824432
0.012448
0.082975
0.0139037
0.0835054
0.0153442
0.0840271
0.0167639
0.0845319
0.0181569
0.0195166
0.0848594
0.00899791
-0.0843474
0.0853959
0.0104454
0.085954
0.0118898
0.0865302
0.0133275
0.0871199
0.0147545
0.0877176
0.0161662
0.0883168
0.0175577
0.0189236
0.0884515
0.00848524
-0.0879389
0.0889966
0.0099003
0.0895724
0.011314
0.0901766
0.0127234
0.090806
0.014125
0.091457
0.0155153
0.0921245
0.0168901
0.0182452
0.0921933
0.00797737
-0.0916854
0.0927397
0.00935393
0.0933236
0.0107301
0.0939438
0.0121032
0.0945982
0.0134706
0.0952844
0.0148291
0.0959991
0.0161755
0.0175062
0.0960987
0.00747775
-0.0955991
0.0966416
0.00881102
0.0972274
0.0101443
0.0978554
0.0114753
0.0985243
0.0128016
0.0992328
0.0141206
0.0999787
0.0154296
0.0167257
0.100179
0.00698839
-0.0996899
0.100716
0.00827442
0.1013
0.00956058
0.10193
0.0108448
0.102607
0.0121249
0.103329
0.0133987
0.104095
0.0146637
0.0159175
0.104445
0.00651033
-0.103967
0.104974
0.00774571
0.105553
0.0089812
0.106183
0.0102149
0.106863
0.0114447
0.107593
0.0126688
0.108372
0.0138849
0.0150909
0.108906
0.00604401
-0.10844
0.109426
0.00722563
0.11
0.00840727
0.110628
0.00958712
0.111309
0.0107633
0.112044
0.0119341
0.112832
0.0130974
0.0142513
0.113572
0.00558948
-0.113118
0.114084
0.00671438
0.114652
0.00783921
0.115277
0.00896225
0.115958
0.0100818
0.116696
0.0111961
0.11749
0.0123033
0.11834
0.0134016
0.0144893
0.118454
0.00514632
-0.118011
0.118956
0.00621165
0.119519
0.00727682
0.120141
0.00834022
0.120822
0.00940022
0.121563
0.0104552
0.122363
0.0115034
0.123222
0.0125432
0.013573
0.123563
0.0047142
-0.12313
0.124057
0.00571708
0.124614
0.00671975
0.125234
0.00772068
0.125916
0.00871834
0.12666
0.00971118
0.127465
0.0106976
0.128332
0.0116761
0.0126451
0.128911
0.00429243
-0.128489
0.129398
0.00522997
0.12995
0.00616727
0.130568
0.00710291
0.131251
0.00803544
0.131999
0.00896339
0.132811
0.00988532
0.133688
0.0107997
0.0117052
0.134513
0.00388022
-0.134101
0.134994
0.0047495
0.135543
0.00561853
0.136159
0.00648599
0.136844
0.00735054
0.137597
0.0082108
0.138417
0.00906543
0.139304
0.00991305
0.0107523
0.140386
0.00347668
-0.139983
0.140861
0.00427469
0.141407
0.00507249
0.142024
0.00586883
0.142712
0.00666247
0.143471
0.00745216
0.1443
0.00823665
0.145198
0.00901468
0.00978498
0.146548
0.00308078
-0.146152
0.147018
0.00380445
0.147563
0.00452794
0.148181
0.00525012
0.148874
0.00596986
0.14964
0.00668601
0.150479
0.00739743
0.151391
0.00810296
0.00880146
0.15302
0.00269133
-0.15263
0.153487
0.00333749
0.154031
0.00398352
0.154653
0.0046284
0.155352
0.00527111
0.156127
0.00591063
0.156978
0.00654592
0.157905
0.00717596
0.0077997
0.159827
0.00230702
-0.159442
0.160292
0.00287236
0.160838
0.00343764
0.161464
0.00400194
0.162171
0.00456437
0.162958
0.00512403
0.163823
0.00568001
0.164768
0.00623139
0.00677727
0.166997
0.00192629
-0.166616
0.167462
0.00240737
0.168011
0.00288844
0.168644
0.00336873
0.169361
0.00384746
0.170161
0.00432386
0.171044
0.00479715
0.172009
0.00526655
0.00573128
0.174563
0.00154735
-0.174184
0.17503
0.00194054
0.175585
0.00233377
0.176227
0.00272641
0.176957
0.00311781
0.177773
0.00350735
0.178676
0.00389437
0.179664
0.00427825
0.00465833
0.182564
0.00116806
-0.182185
0.183035
0.00146951
0.183598
0.00177103
0.184252
0.00207215
0.184997
0.00237236
0.185834
0.00267117
0.18676
0.0029681
0.187775
0.00326264
0.00355429
0.191042
0.00078596
-0.19066
0.19152
0.000991528
0.192094
0.00119719
0.192764
0.00140261
0.193529
0.00160745
0.194388
0.00181138
0.195342
0.00201404
0.19639
0.0022151
0.00241422
0.200051
0.000397846
-0.199663
0.200539
0.000503095
0.201128
0.000608417
0.201817
0.00071364
0.202606
0.000818585
0.203494
0.000923083
0.204481
0.00102695
0.205566
0.00113002
0.00123211
0.209643
-0.209246
0.210147
0.210755
0.211469
0.212287
0.21321
0.214237
0.215367
0.0483524
-0.0142415
-0.0476797
0.0490645
-0.0131907
0.0497975
-0.0120908
0.0505286
-0.0109231
0.0512508
-0.00970949
0.0519613
-0.0084606
0.052657
-0.00717892
0.0533344
-0.00586768
0.0539903
-0.00453068
0.0546214
-0.00317175
0.0552238
-0.00179531
0.0557815
-0.000410088
0.0563127
0.00100073
0.056796
0.00241323
0.0572278
0.00382388
0.0576017
0.00522897
0.0579108
0.00662256
0.0581475
0.00799798
0.0583038
0.00934788
0.0106643
0.0519382
-0.0148855
-0.0512942
0.0525644
-0.0138169
0.0531939
-0.0127202
0.0538253
-0.0115545
0.054455
-0.0103392
0.0550823
-0.00908782
0.0557052
-0.0078019
0.0563213
-0.0064837
0.0569272
-0.00513663
0.0575196
-0.00376412
0.058094
-0.00236976
0.0586427
-0.00095871
0.0591751
0.00046828
0.0596722
0.00191615
0.0601325
0.00336358
0.0605502
0.0048112
0.0609188
0.00625399
0.061231
0.00768584
0.0614788
0.0091
0.0104891
0.0555999
-0.0154212
-0.0550643
0.0561342
-0.0143513
0.0566685
-0.0132545
0.0572069
-0.0120929
0.0577491
-0.0108814
0.0582944
-0.00963314
0.0588421
-0.00834959
0.0593905
-0.0070321
0.0599374
-0.00568351
0.0604801
-0.00430681
0.0610152
-0.00290488
0.0615369
-0.00148034
0.0620593
-5.41494e-05
0.0625533
0.00142213
0.063027
0.00288989
0.0634737
0.00436452
0.0638874
0.00584032
0.0642615
0.00731166
0.064589
0.00877251
0.0102162
0.0593751
-0.0158595
-0.0589368
0.0598192
-0.0147954
0.0602643
-0.0136996
0.0607148
-0.0125434
0.0611719
-0.0113385
0.0616355
-0.0100967
0.0621055
-0.00881967
0.0625817
-0.00750825
0.063063
-0.00616483
0.0635483
-0.00479208
0.0640361
-0.0033927
0.0645256
-0.00196983
0.0650006
-0.000529118
0.0654845
0.000938226
0.0659569
0.0024174
0.0664163
0.00390514
0.066858
0.0053986
0.0672766
0.00689306
0.067666
0.00838318
0.00986307
0.0632546
-0.0162085
-0.0629056
0.0636117
-0.0151525
0.0639717
-0.0140596
0.0643385
-0.0129102
0.0647141
-0.011714
0.0650987
-0.0104814
0.065493
-0.00921397
0.0658973
-0.00791254
0.0663116
-0.00657913
0.0667356
-0.00521606
0.0671686
-0.00382569
0.0676093
-0.00241053
0.068054
-0.000973879
0.0685095
0.000482792
0.0689657
0.00196114
0.0694216
0.00344928
0.0698738
0.00494636
0.0703182
0.00644867
0.0707498
0.00795165
0.00945024
0.0672396
-0.0164701
-0.066978
0.0675112
-0.0154241
0.0677881
-0.0143365
0.0680739
-0.0131961
0.0683709
-0.012011
0.0686798
-0.0107903
0.0690015
-0.00953562
0.0693366
-0.00824767
0.0696858
-0.00692827
0.0700492
-0.00557949
0.0704269
-0.00420339
0.0708184
-0.00280207
0.0712222
-0.00137767
0.0716475
5.75366e-05
0.0720779
0.00153071
0.0725195
0.00300772
0.0729691
0.00449674
0.0734238
0.00599402
0.0738797
0.00749566
0.0089974
0.0713354
-0.0166447
-0.0711608
0.0715223
-0.015611
0.0717177
-0.0145319
0.0719248
-0.0134032
0.072146
-0.0122322
0.0723822
-0.0110265
0.0726344
-0.0097878
0.0729035
-0.00851681
0.0731905
-0.00721524
0.073496
-0.00588502
0.0738207
-0.00452808
0.0741651
-0.00314643
0.0745297
-0.00174233
0.0749075
-0.000320215
0.0753115
0.00112666
0.0757328
0.00258646
0.076171
0.00405856
0.0766243
0.00554064
0.0770905
0.00702948
0.00852152
0.075549
-0.0167334
-0.0754603
0.0756523
-0.0157143
0.0757677
-0.0146473
0.0758981
-0.0135336
0.0760458
-0.0123799
0.0762119
-0.0111926
0.0763973
-0.00997326
0.0766032
-0.00872273
0.0768306
-0.00744263
0.0770804
-0.00613478
0.0773533
-0.00480102
0.0776501
-0.00344321
0.0779711
-0.00206334
0.078315
-0.000664074
0.0786864
0.000755218
0.0790823
0.00219059
0.0795023
0.00363857
0.0799456
0.00509731
0.0804109
0.00656416
0.00803613
0.0798888
-0.0167375
-0.0798847
0.07991
-0.0157355
0.0799471
-0.0146843
0.0800026
-0.0135891
0.0800789
-0.0124562
0.080177
-0.0112907
0.080298
-0.0100942
0.080443
-0.00886773
0.0806131
-0.00761271
0.0808092
-0.00633094
0.0810324
-0.00502415
0.0812833
-0.00369412
0.0815626
-0.0023427
0.0818706
-0.000972062
0.0822097
0.000416145
0.0825782
0.00182212
0.0829766
0.00324016
0.0834047
0.00466918
0.083862
0.00610689
0.00755073
0.0843641
-0.0166584
-0.0844432
0.0843049
-0.0156763
0.0842653
-0.0146447
0.0842478
-0.0135717
0.0842545
-0.0124629
0.0842866
-0.0113227
0.084345
-0.0101527
0.084431
-0.00895375
0.0845457
-0.00772741
0.0846901
-0.00647534
0.0848652
-0.0051992
0.0850717
-0.00390069
0.0853106
-0.00258155
0.0855822
-0.00124365
0.0858899
0.000108412
0.0862301
0.00148192
0.0866052
0.00286509
0.0870151
0.00425924
0.0874598
0.0056622
0.00707167
0.0889841
-0.0164977
-0.0891448
0.0888462
-0.0155385
0.0887317
-0.0145302
0.088643
-0.0134829
0.0885818
-0.0124017
0.0885495
-0.0112904
0.0885471
-0.0101503
0.0885759
-0.00898249
0.0886368
-0.00778838
0.0887311
-0.00656958
0.0888596
-0.00532771
0.0890233
-0.0040644
0.0892231
-0.00278133
0.0894597
-0.0014803
0.0897329
-0.000164812
0.0900456
0.00116927
0.0903968
0.00251389
0.0907871
0.00386897
0.0912166
0.00523265
0.00660285
0.0937578
-0.016257
-0.0939985
0.0935431
-0.0153238
0.0933554
-0.0143425
0.093197
-0.0133245
0.0930696
-0.0122744
0.0929746
-0.0111953
0.0929129
-0.0100887
0.0928858
-0.0089554
0.0928944
-0.00779698
0.0929398
-0.00661492
0.0930228
-0.00541078
0.0931446
-0.00418614
0.0933059
-0.00294262
0.0935075
-0.00168193
0.093749
-0.000406282
0.0940336
0.000884611
0.0943605
0.00218702
0.0947301
0.00349934
0.0951429
0.00481986
0.00614667
0.098694
-0.0159382
-0.0990129
0.0984042
-0.0150339
0.098145
-0.0140833
0.0979186
-0.0130981
0.0977266
-0.0120824
0.0975702
-0.011039
0.0974507
-0.00996911
0.0973691
-0.00887379
0.0973265
-0.00775441
0.097324
-0.00661244
0.0973626
-0.00544937
0.0974432
-0.00426671
0.0975666
-0.00306604
0.0977337
-0.00184898
0.0979448
-0.000617372
0.0982015
0.000627876
0.0985039
0.00188464
0.0988525
0.00315075
0.0992477
0.00442464
0.00570448
0.103801
-0.0155428
-0.104197
0.103438
-0.0146708
0.103109
-0.0137543
0.102816
-0.0128052
0.102561
-0.0118272
0.102345
-0.0108228
0.102169
-0.00979294
0.102034
-0.00873884
0.101941
-0.00766178
0.101892
-0.00656315
0.101887
-0.00544439
0.101927
-0.00430696
0.102013
-0.00315237
0.102147
-0.00198217
0.102327
-0.000798035
0.102557
0.000398601
0.102835
0.00160656
0.103162
0.00282326
0.103539
0.00404729
0.00527691
0.109089
-0.0150728
-0.109559
0.108654
-0.014236
0.108257
-0.013357
0.107899
-0.0124473
0.107582
-0.0115102
0.107307
-0.0105479
0.107076
-0.00956136
0.106888
-0.00855166
0.106747
-0.00752009
0.106651
-0.00646797
0.106604
-0.00539669
0.106604
-0.00430764
0.106654
-0.00320226
0.106754
-0.00208205
0.106905
-0.000948594
0.107107
0.00019624
0.107361
0.00135254
0.107668
0.00251677
0.108027
0.00368785
0.00486417
0.114566
-0.0145299
-0.115109
0.114061
-0.0137314
0.113597
-0.012893
0.113176
-0.0120259
0.112798
-0.0111328
0.112466
-0.0102157
0.11218
-0.00927547
0.111942
-0.00831327
0.111752
-0.00733026
0.111612
-0.00632774
0.111522
-0.00530699
0.111484
-0.00426938
0.111498
-0.00321626
0.111565
-0.00214905
0.111685
-0.00106919
0.111862
1.92438e-05
0.112092
0.00112241
0.112378
0.002231
0.11272
0.00334614
0.00446618
0.120242
-0.0139157
-0.120856
0.119669
-0.0131585
0.11914
-0.0123639
0.118656
-0.0115422
0.11822
-0.0106961
0.117831
-0.00982717
0.117492
-0.00893634
0.117204
-0.00802464
0.116967
-0.00709324
0.116782
-0.00614335
0.116651
-0.00517621
0.116575
-0.0041931
0.116554
-0.00319533
0.116589
-0.00218426
0.116681
-0.0011613
0.116829
-0.000128335
0.117036
0.000914956
0.117302
0.00196525
0.117627
0.00302156
0.00408243
0.12613
-0.013232
-0.126814
0.12549
-0.0125189
0.124897
-0.0117709
0.124353
-0.0109976
0.123858
-0.0102013
0.123414
-0.00938346
0.123023
-0.00854489
0.122685
-0.00768663
0.122401
-0.00680977
0.122173
-0.00591545
0.122002
-0.00500487
0.121888
-0.00407922
0.121832
-0.00313974
0.121836
-0.00218773
0.121899
-0.00122451
0.122022
-0.000251556
0.122207
0.000730372
0.122453
0.00171927
0.122761
0.00271382
0.00371261
0.132241
-0.0124803
-0.132993
0.131536
-0.0118139
0.130881
-0.0111153
0.130276
-0.0103932
0.129725
-0.00964949
0.129227
-0.00888548
0.128784
-0.00810202
0.128397
-0.00730005
0.128068
-0.00648061
0.127797
-0.00564478
0.127586
-0.00479367
0.127435
-0.00392842
0.127346
-0.00305019
0.127318
-0.0021602
0.127353
-0.00125968
0.127452
-0.00034997
0.127614
0.000567939
0.127841
0.00149247
0.128133
0.00242229
0.00335607
0.138592
-0.0116619
-0.13941
0.137823
-0.0110449
0.137106
-0.0103983
0.136442
-0.00972997
0.135834
-0.00904154
0.135283
-0.00833411
0.13479
-0.00760851
0.134355
-0.00686564
0.133981
-0.00610646
0.133668
-0.00533199
0.133418
-0.00454326
0.133231
-0.00374133
0.133108
-0.0029273
0.13305
-0.00210229
0.133058
-0.00126746
0.133132
-0.00042403
0.133273
0.00042694
0.133481
0.00128414
0.133757
0.00214625
0.00301204
0.145197
-0.0107782
-0.146081
0.144365
-0.010213
0.143588
-0.00962098
0.142867
-0.00900894
0.142204
-0.00837833
0.1416
-0.00773012
0.141056
-0.00706509
0.140575
-0.00638407
0.140156
-0.00568796
0.139802
-0.00497769
0.139513
-0.00425422
0.13929
-0.00351854
0.139134
-0.00277165
0.139047
-0.0020146
0.139028
-0.00124847
0.139078
-0.000474358
0.139198
0.000306678
0.139389
0.00109352
0.13965
0.0018849
0.00267968
0.152077
-0.00983021
-0.153025
0.151183
-0.00931926
0.150346
-0.00878414
0.149568
-0.00823085
0.14885
-0.00766059
0.148194
-0.00707419
0.147602
-0.00647239
0.147074
-0.00585595
0.146611
-0.00522568
0.146216
-0.00458245
0.145889
-0.00392713
0.145631
-0.00326062
0.145443
-0.00258385
0.145326
-0.00189778
0.145281
-0.00120337
0.145309
-0.00050164
0.145409
0.000206398
0.145583
0.000919799
0.14583
0.00163736
0.00235804
0.159253
-0.00881884
-0.160264
0.158298
-0.00836439
0.157402
-0.00788853
0.156568
-0.00739637
0.155796
-0.00688891
0.155089
-0.00636687
0.154448
-0.00583093
0.153873
-0.00528177
0.153368
-0.00472013
0.152932
-0.00414678
0.152567
-0.00356252
0.152275
-0.00296814
0.152056
-0.00236449
0.15191
-0.00175243
0.15184
-0.00113284
0.151845
-0.000506622
0.151926
0.000125275
0.152084
0.00076208
0.152318
0.00140264
0.00204605
0.16675
-0.00774478
-0.167824
0.165735
-0.00734904
0.164781
-0.00693468
0.163891
-0.00650598
0.163066
-0.00606374
0.162307
-0.0056086
0.161617
-0.00514113
0.160998
-0.00466196
0.160449
-0.00417174
0.159974
-0.00367114
0.159572
-0.00316087
0.159245
-0.00264163
0.158995
-0.00211417
0.158822
-0.00157924
0.158727
-0.00103762
0.15871
-0.000490117
0.158773
6.23972e-05
0.158916
0.000619365
0.159139
0.00117965
0.00174249
0.174598
-0.0066085
-0.175734
0.173522
-0.00627362
0.17251
-0.00592297
0.171564
-0.00556002
0.170686
-0.00518541
0.169877
-0.00479967
0.169139
-0.00440331
0.168474
-0.00399686
0.167883
-0.00358087
0.167368
-0.00315594
0.16693
-0.00272265
0.16657
-0.00228161
0.166289
-0.00183348
0.166089
-0.00137888
0.16597
-0.000918494
0.165933
-0.000453002
0.165978
1.66958e-05
0.166107
0.000490527
0.16632
0.000967118
0.00144595
0.182827
-0.00541028
-0.184025
0.181692
-0.00513838
0.180623
-0.00485359
0.179621
-0.00455867
0.17869
-0.0042541
0.177831
-0.0039403
0.177045
-0.0036177
0.176335
-0.00328673
0.175702
-0.00294785
0.175147
-0.00260155
0.174673
-0.00224831
0.17428
-0.00188864
0.17397
-0.00152306
0.173743
-0.00115211
0.173601
-0.000776337
0.173544
-0.000396304
0.173573
-1.27501e-05
0.17369
0.000374256
0.173893
0.000763593
0.00115483
0.191476
-0.00415023
-0.192736
0.190281
-0.00394337
0.189154
-0.00372661
0.188097
-0.003502
0.187113
-0.00326988
0.186204
-0.00303059
0.18537
-0.00278444
0.184615
-0.00253178
0.18394
-0.00227297
0.183347
-0.00200836
0.182837
-0.00173834
0.182412
-0.0014633
0.182073
-0.00118365
0.18182
-0.000899791
0.181656
-0.000612159
0.181581
-0.000321181
0.181596
-2.73571e-05
0.181701
0.000269032
0.181897
0.000567351
0.000867186
0.200587
-0.00282839
-0.201909
0.199332
-0.00268858
0.198148
-0.00254199
0.197036
-0.00238997
0.195998
-0.00223276
0.195038
-0.00207058
0.194158
-0.00190364
0.193358
-0.00173219
0.192642
-0.00155647
0.19201
-0.00137672
0.191465
-0.0011932
0.191008
-0.0010062
0.19064
-0.000815984
0.190363
-0.000622833
0.190178
-0.000427044
0.190086
-0.000228917
0.190087
-2.8774e-05
0.190183
0.000173141
0.190374
0.000376438
0.00058082
0.210205
-0.00144474
-0.211589
0.208891
-0.00137398
0.207649
-0.0012997
0.206481
-0.00122261
0.205391
-0.00114281
0.204381
-0.00106041
0.203453
-0.000975532
0.202609
-0.000888292
0.201851
-0.000798816
0.201182
-0.000707232
0.200602
-0.000613676
0.200114
-0.000518286
0.19972
-0.000421207
0.199419
-0.000322584
0.199215
-0.000222571
0.199107
-0.00012132
0.199098
-1.90085e-05
0.199186
8.42572e-05
0.199375
0.000188258
0.000292844
0.220388
-0.221833
0.219014
0.217715
0.216492
0.215349
0.214289
0.213313
0.212425
0.211626
0.210919
0.210305
0.209787
0.209366
0.209043
0.208821
0.208699
0.20868
0.208765
0.208953
0.0503662
0.00161128
-0.00152654
0.050143
0.00435615
-0.00413293
0.0498049
0.00683424
-0.00649617
0.0493681
0.00922121
-0.00878439
0.048847
0.0116749
-0.0111537
0.0482582
0.0142603
-0.0136716
0.0476254
0.0170198
-0.016387
0.0469809
0.0199665
-0.019322
0.0463713
0.023082
-0.0224724
0.0458559
0.0263199
-0.0258044
0.0455131
0.0295945
-0.0292517
0.0454256
0.03277
-0.0326824
0.0456847
0.0356865
-0.0359456
0.0463289
0.0380124
-0.0386566
0.0393896
-0.0407405
0.0528368