/*--------------------------------*- C++ -*----------------------------------*\
  =========                 |
  \\      /  F ield         | OpenFOAM: The Open Source CFD Toolbox
   \\    /   O peration     | Website:  https://openfoam.org
    \\  /    A nd           | Version:  7
     \\/     M anipulation  |
\*---------------------------------------------------------------------------*/
FoamFile
{
    version     2.0;
    format      ascii;
    class       volVectorField;
    location    "20";
    object      U;
}
// * * * * * * * * * * * * * * * * * * * * * * * * * * * * * * * * * * * * * //

dimensions      [0 1 -1 0 0 0 0];

internalField   nonuniform List<vector> 
2125
(
(0.00967322 -0.00530378 -4.22106e-20)
(0.0129446 -0.00686136 1.54761e-20)
(0.0522334 -0.0212442 1.79084e-20)
(0.0166081 -0.0083344 -1.0483e-20)
(0.0630728 -0.0244429 -8.15638e-21)
(0.0206628 -0.00968138 2.20417e-20)
(0.0748838 -0.0272263 -6.51854e-21)
(0.14536 -0.0372341 -3.89014e-21)
(0.0251039 -0.0108605 -8.18162e-21)
(0.0876356 -0.0294858 -5.13006e-20)
(0.166163 -0.0391551 5.50497e-21)
(0.257427 -0.0427383 1.93527e-20)
(0.029922 -0.0118303 -8.87613e-21)
(0.101284 -0.0311157 1.83067e-20)
(0.188149 -0.0400346 2.44241e-20)
(0.287128 -0.0419468 -1.80252e-20)
(0.395947 -0.0374438 6.8019e-21)
(0.511902 -0.0273438 -4.32213e-20)
(0.0351026 -0.0125496 -1.13308e-20)
(0.115769 -0.032014 -3.82971e-21)
(0.2112 -0.0397342 -4.40735e-20)
(0.317891 -0.0395749 -7.0408e-21)
(0.433321 -0.0324198 -6.68872e-22)
(0.554455 -0.0193865 2.67203e-21)
(0.677699 -0.00200648 4.49237e-21)
(0.0406257 -0.0129785 -2.86207e-21)
(0.131019 -0.0320847 1.50568e-20)
(0.235178 -0.0381283 2.15909e-20)
(0.349508 -0.0354923 1.3923e-20)
(0.471234 -0.0253746 -4.23898e-21)
(0.597009 -0.00921147 -3.64769e-21)
(0.722904 0.0111561 3.75565e-20)
(0.844622 0.0337712 5.44118e-21)
(0.0464655 -0.0130783 2.81393e-20)
(0.146944 -0.0312384 1.9327e-20)
(0.259924 -0.0351065 -2.02732e-20)
(0.381742 -0.0295937 -4.12807e-21)
(0.509381 -0.0162337 2.21175e-21)
(0.6392 0.00319998 -8.58377e-21)
(0.76699 0.0265469 -1.94059e-20)
(0.888252 0.051586 -3.2287e-21)
(0.998598 0.0762517 1.70541e-22)
(1.09288 0.0943003 9.02968e-21)
(0.0525896 -0.0128122 3.2152e-21)
(0.163439 -0.0293946 -1.05296e-20)
(0.285256 -0.0305757 2.57587e-20)
(0.414336 -0.0218006 1.72817e-20)
(0.547436 -0.00495832 4.95868e-22)
(0.680654 0.0178249 1.33058e-20)
(0.809565 0.0440652 2.01234e-21)
(0.929569 0.0712872 -1.5467e-20)
(1.03635 0.0972331 1.37193e-20)
(1.12543 0.116367 1.45589e-22)
(0.0589593 -0.0121463 -2.28627e-20)
(0.180384 -0.0264827 -7.14793e-21)
(0.310974 -0.0244618 -6.75202e-21)
(0.447013 -0.0120621 -1.20359e-20)
(0.585059 0.00845476 2.91547e-21)
(0.720994 0.0346009 7.99826e-23)
(0.850251 0.0635736 1.08234e-20)
(0.968238 0.0926638 -1.82887e-21)
(1.07085 0.119464 -1.41703e-20)
(1.1543 0.139145 -1.35822e-20)
(0.0655292 -0.0110499 1.81811e-21)
(0.197647 -0.022444 1.13684e-20)
(0.33686 -0.0167115 5.61065e-21)
(0.479483 -0.000357228 -1.84588e-20)
(0.621904 0.0239735 -1.01193e-21)
(0.759847 0.0534289 -8.84075e-21)
(0.888689 0.0849024 2.425e-22)
(1.00396 0.115485 4.6036e-21)
(1.10188 0.142676 -5.37166e-21)
(1.17942 0.162355 1.53737e-20)
(0.0722477 -0.00949662 4.18988e-21)
(0.215079 -0.0172333 -1.09168e-20)
(0.362682 -0.00729438 -2.67438e-20)
(0.511442 0.0133053 2.57606e-20)
(0.657623 0.0415314 -2.04678e-21)
(0.796855 0.074176 6.37183e-21)
(0.924553 0.107856 -9.65931e-22)
(1.03647 0.139508 6.86071e-21)
(1.12929 0.166605 -5.2959e-22)
(1.20076 0.185742 -1.18865e-20)
(0.0790568 -0.00746532 -8.34267e-21)
(0.232522 -0.0108208 1.39929e-20)
(0.388196 0.00379614 1.21013e-20)
(0.542585 0.0288858 -1.82011e-20)
(0.691874 0.0610287 -3.17565e-21)
(0.831678 0.0966786 1.29487e-21)
(0.957547 0.132215 1.39109e-20)
(1.06558 0.16448 7.63166e-22)
(1.153 0.190994 2.97752e-21)
(1.21834 0.209078 -6.63493e-21)
(0.0858935 -0.00494069 6.30358e-21)
(0.249806 -0.00319299 -6.04452e-21)
(0.413151 0.0165412 -5.23605e-21)
(0.572602 0.0463141 9.57698e-21)
(0.724326 0.0823338 3.54891e-21)
(0.864003 0.120746 2.86969e-21)
(0.987419 0.157745 -1.41526e-20)
(1.09111 0.190146 -5.13893e-21)
(1.17294 0.215598 -4.77977e-21)
(1.23224 0.232157 2.18825e-21)
(0.0926899 -0.00191423 -3.01197e-21)
(0.266757 0.00564521 -6.39886e-23)
(0.437293 0.0308961 9.8908e-21)
(0.601191 0.0654897 -3.86592e-21)
(0.754665 0.105286 -1.79377e-21)
(0.893548 0.146165 -1.27051e-21)
(1.01396 0.184199 3.43209e-21)
(1.11297 0.216251 6.25473e-21)
(1.18913 0.240184 -1.98611e-22)
(1.24255 0.2548 2.41082e-21)
(0.0993745 0.00161511 2.0989e-21)
(0.283193 0.01567 -6.3685e-22)
(0.460368 0.0467893 -1.74525e-21)
(0.62806 0.0862827 -1.67446e-21)
(0.782602 0.129697 1.63481e-21)
(0.920065 0.172701 1.37723e-21)
(1.03699 0.211319 -1.34578e-21)
(1.13108 0.242545 5.23129e-22)
(1.2016 0.264535 7.5735e-22)
(1.24941 0.276846 -1.02195e-21)
(0.105873 0.00564038 1.07621e-21)
(0.298934 0.0268379 3.43144e-22)
(0.482126 0.0641232 -2.07634e-21)
(0.652931 0.108535 -1.78548e-21)
(0.807871 0.155355 2.01229e-21)
(0.943344 0.200105 4.20154e-22)
(1.05641 0.238846 -1.08369e-21)
(1.14542 0.268784 1.0648e-21)
(1.21044 0.288448 6.1535e-22)
(1.25297 0.298152 -7.09434e-22)
(0.112111 0.0101461 -4.39192e-22)
(0.313798 0.0390854 9.00043e-22)
(0.502326 0.0827746 6.25479e-21)
(0.675547 0.132064 -2.99014e-21)
(0.830241 0.182027 -1.64564e-21)
(0.963215 0.228118 -2.00411e-21)
(1.07211 0.266518 4.35345e-21)
(1.15602 0.294733 3.06443e-21)
(1.21573 0.311733 2.53295e-21)
(1.2534 0.318593 1.38421e-21)
(0.118012 0.0151083 8.14977e-21)
(0.327609 0.0523289 -4.79485e-21)
(0.520743 0.102595 -5.96036e-21)
(0.695673 0.156663 8.6516e-21)
(0.849512 0.209464 4.96375e-21)
(0.979548 0.25647 -3.6797e-22)
(1.08407 0.294075 -7.21516e-21)
(1.16291 0.320168 -5.51581e-21)
(1.21762 0.334217 -5.8641e-21)
(1.25088 0.338056 3.46047e-21)
(0.123501 0.0204941 -1.08778e-20)
(0.340201 0.0664657 1.08921e-20)
(0.537167 0.123415 1.32209e-20)
(0.713104 0.182103 -1.43024e-20)
(0.865521 0.237402 -5.50153e-21)
(0.992255 0.284889 3.839e-21)
(1.09228 0.321266 7.57759e-21)
(1.1662 0.344876 1.22704e-21)
(1.21626 0.355739 -1.64642e-22)
(1.24558 0.35644 -4.5723e-21)
(0.128509 0.026262 -1.45396e-21)
(0.351416 0.0813747 -1.49337e-20)
(0.551408 0.145042 -1.71019e-20)
(0.727663 0.20814 2.11058e-20)
(0.878143 0.265567 -2.57162e-21)
(1.00128 0.313102 5.25669e-21)
(1.09678 0.347841 1.12487e-21)
(1.16598 0.368655 -3.34537e-21)
(1.21179 0.376152 1.86902e-21)
(1.23771 0.373654 -1.02453e-22)
(0.132967 0.0323624 2.94636e-21)
(0.361112 0.0969178 8.93328e-21)
(0.563303 0.167267 5.59261e-21)
(0.739208 0.234516 -4.71283e-21)
(0.88729 0.293681 -7.89905e-21)
(1.00662 0.340837 -8.38285e-21)
(1.09763 0.373566 -1.8114e-21)
(1.16239 0.391319 4.86289e-21)
(1.20441 0.395318 -1.07103e-21)
(1.22744 0.389615 2.46856e-21)
(0.136813 0.0387378 -1.04378e-20)
(0.369162 0.112942 -1.08024e-20)
(0.572713 0.189865 -1.74354e-21)
(0.74763 0.260961 -2.17415e-21)
(0.892915 0.321462 -5.64625e-21)
(1.0083 0.367832 3.94595e-21)
(1.09493 0.398213 -7.89672e-22)
(1.15558 0.41269 -4.35647e-21)
(1.19428 0.41311 4.0008e-21)
(1.21497 0.404249 -5.22108e-21)
(0.139993 0.0453238 2.98137e-21)
(0.375458 0.12928 9.06901e-21)
(0.57953 0.2126 8.4079e-21)
(0.752859 0.287202 1.01157e-20)
(0.895006 0.348629 4.07275e-22)
(1.00637 0.393828 1.06837e-20)
(1.0888 0.421571 6.01837e-22)
(1.1457 0.432606 -1.38042e-20)
(1.18157 0.429408 9.88234e-21)
(1.20044 0.417479 3.73487e-21)
(0.142458 0.0520497 6.5031e-21)
(0.379915 0.145756 1.51364e-20)
(0.583675 0.235225 -2.35354e-21)
(0.754858 0.312959 -1.23427e-20)
(0.893591 0.374906 6.34231e-21)
(1.00093 0.41858 -7.31999e-21)
(1.07938 0.44344 -9.99611e-21)
(1.13293 0.450924 -3.93566e-22)
(1.16647 0.444116 -7.55477e-21)
(1.18392 0.429192 2.69846e-21)
(0.14417 0.0588399 2.59609e-21)
(0.382467 0.162184 1.50289e-21)
(0.585104 0.257491 1.97677e-20)
(0.75363 0.337956 4.33129e-21)
(0.888731 0.400027 -3.9425e-21)
(0.992089 0.441856 -2.43913e-21)
(1.06683 0.463637 1.43403e-20)
(1.11745 0.467515 1.19993e-20)
(1.14917 0.457201 5.88583e-21)
(1.16571 0.439264 -5.70281e-22)
(0.1451 0.0656144 4.25146e-22)
(0.383075 0.178373 -1.48966e-20)
(0.583802 0.279144 -2.25454e-20)
(0.74921 0.361921 6.96183e-22)
(0.880523 0.423732 6.03663e-21)
(0.980008 0.463437 -8.26505e-21)
(1.05134 0.48199 -1.96887e-20)
(1.09946 0.482237 -5.90124e-21)
(1.12983 0.468541 -2.94185e-22)
(1.14606 0.447788 1.16841e-21)
(0.145229 0.072291 -4.11383e-21)
(0.381724 0.19413 1.06448e-20)
(0.579789 0.299935 1.28596e-20)
(0.741671 0.384588 -1.30426e-20)
(0.869095 0.445778 2.2813e-21)
(0.964856 0.483119 1.81869e-20)
(1.0331 0.498348 -2.9902e-21)
(1.07914 0.494996 3.22594e-21)
(1.10861 0.478022 -6.03029e-22)
(1.12505 0.454667 -4.12591e-22)
(0.144547 0.0787855 -7.94709e-21)
(0.37842 0.209263 -1.71703e-20)
(0.573115 0.319617 -3.89379e-21)
(0.731119 0.405704 7.12441e-21)
(0.854607 0.465936 7.30943e-21)
(0.946827 0.50072 -1.69145e-20)
(1.01232 0.512577 9.12402e-21)
(1.05669 0.505699 -2.94076e-21)
(1.08568 0.485585 1.13495e-21)
(1.10277 0.45981 6.35332e-22)
(0.143059 0.0850142 6.15419e-21)
(0.373199 0.22358 1.17977e-21)
(0.563864 0.337953 -1.36673e-21)
(0.717694 0.425029 -7.39035e-21)
(0.837242 0.483992 4.26569e-21)
(0.92614 0.516072 2.31626e-21)
(0.989221 0.524559 -2.88541e-21)
(1.03231 0.514269 2.12437e-21)
(1.0612 0.491179 1.0006e-21)
(1.07934 0.463149 -2.94261e-21)
(0.140778 0.0908948 -1.02403e-21)
(0.366115 0.236897 -7.69887e-22)
(0.552147 0.354715 5.43987e-21)
(0.701558 0.442337 3.27954e-21)
(0.817212 0.499755 -5.8332e-21)
(0.903033 0.529029 5.28496e-21)
(0.964046 0.534196 1.46647e-21)
(1.00619 0.520646 2.71582e-21)
(1.03531 0.494758 6.52078e-21)
(1.05489 0.464613 1.17117e-21)
(0.137722 0.0963446 5.35558e-21)
(0.357251 0.249039 5.67664e-21)
(0.538104 0.369691 -1.94234e-21)
(0.682906 0.45742 -5.83991e-22)
(0.794754 0.51305 -1.93879e-21)
(0.87776 0.539463 -1.09149e-21)
(0.937041 0.541407 2.63203e-21)
(0.978556 0.524789 2.16953e-23)
(1.00814 0.496295 -5.78869e-21)
(1.02948 0.464131 -7.28215e-21)
(0.133926 0.101282 -2.1852e-21)
(0.346712 0.259837 -7.84563e-22)
(0.521899 0.382685 -2.81955e-21)
(0.661956 0.470091 8.93181e-22)
(0.77012 0.523723 -2.98656e-21)
(0.850589 0.547265 6.71873e-21)
(0.908471 0.546129 -8.18644e-22)
(0.949626 0.526677 1.14075e-21)
(0.97981 0.495781 -5.50117e-21)
(1.00318 0.461619 8.66176e-21)
(0.12944 0.105635 -2.05469e-21)
(0.334617 0.269136 3.99981e-22)
(0.50372 0.393517 -1.64004e-21)
(0.638947 0.480183 -2.40065e-21)
(0.74358 0.53164 -1.84998e-21)
(0.821807 0.552344 -2.95836e-22)
(0.878617 0.548317 3.28043e-21)
(0.919636 0.526309 -1.51011e-20)
(0.950416 0.493218 3.23559e-20)
(0.976016 0.45695 1.31757e-20)
(0.124313 0.10934 4.61398e-22)
(0.321104 0.276795 -8.84703e-21)
(0.483774 0.402028 6.79151e-21)
(0.614134 0.487552 -1.37569e-21)
(0.715416 0.53669 3.39815e-21)
(0.791705 0.554628 -5.82422e-21)
(0.847775 0.547942 -1.11968e-20)
(0.888856 0.523715 5.89897e-21)
(0.920128 0.488663 -2.67534e-21)
(0.947934 0.450012 -6.444e-21)
(0.118606 0.112332 -2.02826e-21)
(0.306331 0.282692 2.3224e-21)
(0.462286 0.408081 -4.47019e-21)
(0.587785 0.492074 4.60099e-21)
(0.685918 0.538779 8.75936e-21)
(0.760584 0.554056 5.63838e-21)
(0.816254 0.544983 1.93718e-20)
(0.857629 0.518946 -1.40686e-20)
(0.889364 0.482337 -2.8009e-20)
(0.918689 0.44121 1.15055e-20)
(0.112385 0.114559 -4.80459e-21)
(0.290467 0.28672 -4.49393e-21)
(0.439496 0.411559 1.59902e-21)
(0.560179 0.493653 1.40211e-20)
(0.655381 0.537837 -1.62306e-20)
(0.728737 0.550579 -2.22119e-20)
(0.784356 0.539397 -7.17031e-21)
(0.826392 0.511975 -9.50565e-22)
(0.859055 0.474515 3.52567e-20)
(0.887902 0.430971 -9.27556e-21)
(0.105725 0.115973 1.42764e-20)
(0.273694 0.288792 -4.96677e-22)
(0.415653 0.412374 -2.68614e-21)
(0.531601 0.492217 -1.31405e-22)
(0.624095 0.533814 -8.16874e-21)
(0.696435 0.544163 4.00641e-20)
(0.752343 0.531127 -2.76539e-20)
(0.795551 0.502559 3.47047e-20)
(0.830183 0.46471 -2.58272e-20)
(0.861125 0.421242 -3.48604e-20)
(0.0987062 0.116537 -6.71648e-21)
(0.256204 0.28884 3.10822e-21)
(0.391015 0.410461 -1.25803e-21)
(0.502339 0.487722 1.33825e-20)
(0.592347 0.526693 -4.47133e-21)
(0.663937 0.53481 7.09934e-21)
(0.720394 0.520186 1.65728e-20)
(0.76504 0.490724 -9.08283e-21)
(0.801711 0.452648 -2.34405e-20)
(0.834393 0.409678 3.43654e-20)
(0.0914119 0.116223 1.34777e-20)
(0.238195 0.286817 1.90499e-20)
(0.365847 0.405781 -1.59229e-20)
(0.472686 0.48015 -1.40009e-20)
(0.560426 0.516481 4.14e-20)
(0.631499 0.522549 -4.26382e-20)
(0.688714 0.506632 5.24213e-20)
(0.734957 0.476601 -1.4201e-20)
(0.773666 0.438603 1.59141e-20)
(0.808069 0.396473 2.98876e-20)
(0.0839301 0.115012 -6.33409e-21)
(0.219871 0.282698 -1.70701e-20)
(0.340416 0.398324 -6.93892e-21)
(0.442935 0.469514 -4.60608e-21)
(0.528618 0.503212 3.55406e-21)
(0.599384 0.507434 -1.02475e-20)
(0.657527 0.490531 -1.57888e-20)
(0.705486 0.460285 -3.51923e-20)
(0.746272 0.422734 3.64675e-20)
(0.782494 0.381768 -1.26562e-20)
(0.0763507 0.112896 2.33452e-20)
(0.201438 0.276478 -1.53469e-21)
(0.314992 0.388104 -9.13247e-21)
(0.413377 0.45585 1.34647e-20)
(0.497211 0.486942 -2.47022e-20)
(0.567853 0.489532 6.64893e-20)
(0.627063 0.471959 -3.70511e-20)
(0.676824 0.44185 3.56444e-20)
(0.719717 0.405101 -6.92708e-20)
(0.757834 0.36558 -1.91803e-20)
(0.0687645 0.109876 -9.69522e-21)
(0.183104 0.268175 2.50126e-20)
(0.289842 0.37516 6.62912e-21)
(0.384299 0.439219 -1.15619e-20)
(0.466482 0.467747 -2.07331e-20)
(0.53716 0.468929 -1.26953e-21)
(0.597545 0.450996 1.2395e-20)
(0.649164 0.421366 -3.16015e-20)
(0.694174 0.385743 1.68898e-20)
(0.734229 0.347916 2.21926e-21)
(0.0612623 0.105963 -3.69359e-20)
(0.165072 0.257826 -9.98702e-21)
(0.265228 0.359557 -2.52572e-21)
(0.355983 0.419706 2.9318e-20)
(0.436702 0.445725 -2.80518e-20)
(0.507552 0.445722 -7.93868e-21)
(0.569188 0.427737 -4.92349e-21)
(0.622691 0.398909 9.83473e-21)
(0.669806 0.364715 -1.29408e-20)
(0.711813 0.3288 -2.14124e-20)
(0.0539337 0.101177 3.05017e-20)
(0.147545 0.245491 -1.75282e-20)
(0.241405 0.341383 1.1162e-21)
(0.328697 0.397421 -4.41191e-20)
(0.408132 0.420994 4.95416e-20)
(0.479263 0.42003 -1.65298e-20)
(0.542197 0.402285 1.04563e-20)
(0.597579 0.374569 9.6575e-21)
(0.64676 0.342079 2.95947e-20)
(0.690703 0.308275 -1.2477e-20)
(0.046866 0.0955487 -1.2374e-20)
(0.130714 0.231246 3.64435e-20)
(0.218617 0.32075 2.04924e-20)
(0.302701 0.372495 3.37335e-20)
(0.381017 0.393691 -8.35958e-21)
(0.452514 0.391982 3.38989e-21)
(0.516762 0.37476 2.95705e-20)
(0.573988 0.348441 6.88952e-21)
(0.625171 0.317911 6.69367e-22)
(0.671003 0.2864 -1.49254e-20)
(0.0401429 0.0891177 -2.62954e-20)
(0.114766 0.215188 -2.09882e-21)
(0.197098 0.297792 -1.1626e-20)
(0.278238 0.345079 -5.34542e-20)
(0.35559 0.363972 -5.41367e-20)
(0.427512 0.361726 9.54606e-21)
(0.493061 0.345291 -2.49339e-20)
(0.552066 0.320638 1.6859e-20)
(0.60516 0.292299 9.76782e-21)
(0.652805 0.263249 2.15455e-20)
(0.0338442 0.0819317 3.70895e-20)
(0.0998743 0.197433 -3.21987e-20)
(0.177067 0.272663 -1.64002e-20)
(0.255535 0.315348 3.08772e-20)
(0.332065 0.332011 3.65034e-20)
(0.404448 0.329425 -1.26664e-20)
(0.471256 0.314021 -1.63739e-21)
(0.531949 0.291279 -5.22637e-20)
(0.586836 0.265343 -3.12974e-20)
(0.636193 0.238909 1.2675e-20)
(0.0280439 0.0740464 -2.10232e-20)
(0.0862023 0.178111 9.44838e-21)
(0.158724 0.245536 3.4986e-20)
(0.234804 0.283491 -1.59755e-20)
(0.31064 0.297995 1.22718e-21)
(0.383496 0.295252 5.11317e-20)
(0.451494 0.281106 2.54406e-21)
(0.513756 0.260499 4.98526e-20)
(0.570299 0.237157 2.21214e-20)
(0.621239 0.21348 -3.70482e-20)
(0.0228105 0.0655255 2.80464e-20)
(0.0738981 0.157368 3.24234e-21)
(0.142254 0.216603 2.24883e-21)
(0.216233 0.249716 3.28047e-20)
(0.291493 0.262131 -4.66569e-21)
(0.364814 0.259398 -3.19653e-20)
(0.43391 0.246712 1.67365e-20)
(0.497598 0.228438 -2.80855e-20)
(0.555635 0.20786 -1.24437e-20)
(0.60801 0.187068 1.34698e-20)
(0.0182053 0.0564392 -1.75194e-20)
(0.0630946 0.135366 -3.53479e-20)
(0.127821 0.186072 8.32396e-21)
(0.199992 0.214248 -1.71507e-20)
(0.274781 0.224636 -1.10466e-20)
(0.348538 0.222061 2.83095e-20)
(0.418618 0.211015 -7.20233e-21)
(0.48357 0.19525 7.2108e-21)
(0.542922 0.177583 -9.31855e-21)
(0.596562 0.159791 1.93111e-20)
(0.0142823 0.0468638 6.20375e-21)
(0.0539086 0.112276 2.36406e-20)
(0.11557 0.154163 -3.37669e-20)
(0.186228 0.177322 1.6784e-20)
(0.260642 0.18574 -8.07452e-21)
(0.33479 0.183453 -2.42018e-20)
(0.405719 0.174201 2.09903e-20)
(0.471752 0.161094 4.79227e-21)
(0.532225 0.146465 -6.83886e-22)
(0.586945 0.13177 -2.25876e-20)
(0.0110875 0.0368808 1.97168e-21)
(0.0464387 0.0882807 7.46254e-21)
(0.10562 0.12111 3.03807e-20)
(0.175066 0.139189 -6.10589e-21)
(0.24919 0.145684 -5.09932e-21)
(0.323669 0.143791 2.00455e-21)
(0.395299 0.136461 8.77487e-22)
(0.462216 0.126137 8.31257e-21)
(0.5236 0.11465 -1.15944e-20)
(0.579202 0.103134 -7.78521e-21)
(0.0086582 0.0265762 -5.01011e-21)
(0.0407651 0.0635729 -9.13466e-21)
(0.0980708 0.0871573 -2.35139e-20)
(0.166605 0.100106 1.24145e-20)
(0.24052 0.104717 1.07316e-20)
(0.315258 0.103303 4.60547e-22)
(0.387424 0.0979948 -2.04482e-20)
(0.455014 0.090551 -9.67164e-21)
(0.517093 0.0822874 8.13116e-21)
(0.573364 0.074015 9.21524e-21)
(0.00702273 0.0160393 8.70219e-22)
(0.0369486 0.0383508 -1.89075e-21)
(0.0929964 0.0525555 4.46189e-21)
(0.160923 0.0603386 -3.17553e-21)
(0.2347 0.0630939 -2.9548e-21)
(0.309616 0.062221 -2.12345e-21)
(0.382145 0.0590067 4.19088e-21)
(0.45019 0.0545124 1.69688e-20)
(0.512735 0.0495308 2.60011e-21)
(0.569459 0.0445486 -4.91679e-21)
(0.158068 0.0201588 -2.68444e-21)
(0.231778 0.0210753 2.71779e-21)
(0.306785 0.0207802 1.30384e-21)
(0.379497 0.019704 -1.38014e-21)
(0.447771 0.0182012 -6.71307e-21)
(0.510551 0.0165367 2.33932e-21)
(0.567502 0.0148728 -2.32422e-21)
(1.26989 0.279978 -1.07549e-22)
(1.26694 0.261021 -1.0842e-21)
(1.26097 0.241318 -2.01172e-22)
(1.25184 0.220976 -7.23788e-22)
(1.23937 0.200124 3.8672e-21)
(1.22346 0.178914 -3.63635e-21)
(1.204 0.157525 2.33343e-21)
(1.18094 0.136164 9.24573e-21)
(1.27991 0.279771 -2.18557e-23)
(1.27981 0.263606 9.2602e-22)
(1.27714 0.246688 8.16451e-22)
(1.27172 0.229086 -3.9814e-21)
(1.26337 0.210886 1.30692e-21)
(1.25197 0.192194 -8.05718e-22)
(1.23736 0.173135 2.23168e-21)
(1.21947 0.153864 -4.34525e-21)
(1.28465 0.276587 2.83984e-22)
(1.28699 0.263023 6.49242e-22)
(1.2872 0.248738 3.86476e-22)
(1.2851 0.233765 1.96316e-21)
(1.28052 0.218147 2.60461e-21)
(1.27328 0.201944 3.81527e-21)
(1.26322 0.185232 -1.12383e-22)
(1.25021 0.168107 7.2423e-22)
(1.28504 0.27069 -9.31793e-23)
(1.28928 0.259441 -1.10965e-21)
(1.29183 0.247532 -1.03131e-21)
(1.29251 0.234969 7.63989e-22)
(1.29113 0.221762 -2.95572e-21)
(1.28753 0.207933 -6.91671e-21)
(1.28154 0.193518 3.06697e-21)
(1.27297 0.178569 3.72487e-22)
(1.28216 0.262588 1.1198e-23)
(1.28776 0.253344 5.46159e-22)
(1.29205 0.243533 1.40107e-21)
(1.2949 0.233141 5.1918e-22)
(1.29612 0.222155 -1.05081e-22)
(1.29555 0.21057 1.69902e-21)
(1.29302 0.198389 1.27018e-21)
(1.28835 0.185627 -1.48485e-21)
(1.27703 0.252819 2.12506e-25)
(1.28346 0.245244 5.5024e-22)
(1.28895 0.237212 -9.83862e-22)
(1.29335 0.228695 -7.86748e-22)
(1.29652 0.219668 5.08552e-22)
(1.29833 0.210107 1.113e-21)
(1.29859 0.199992 -1.9997e-21)
(1.29714 0.18931 -9.45527e-22)
(1.27048 0.241891 4.87273e-23)
(1.27732 0.235659 -5.75523e-22)
(1.2835 0.229077 8.74431e-22)
(1.2889 0.222114 5.45855e-22)
(1.29343 0.21474 1.11268e-21)
(1.29694 0.20692 -4.81424e-22)
(1.2993 0.198623 -3.18251e-21)
(1.30035 0.189818 2.16352e-21)
(1.26314 0.230247 -1.16851e-22)
(1.27007 0.225071 -2.37153e-22)
(1.27655 0.219639 -2.81346e-22)
(1.2825 0.213923 -3.48404e-22)
(1.28784 0.207893 1.74168e-22)
(1.29247 0.201514 1.25444e-21)
(1.29628 0.19475 3.48066e-21)
(1.29914 0.187564 7.22737e-22)
(1.25544 0.218241 5.38288e-23)
(1.26223 0.213886 -1.10018e-24)
(1.26872 0.20935 -1.07809e-22)
(1.27487 0.204612 -5.40264e-22)
(1.28062 0.199645 -9.75808e-22)
(1.28588 0.19442 -1.32789e-21)
(1.29059 0.188902 -9.07574e-22)
(1.29464 0.183054 -1.32481e-21)
(1.24763 0.206123 3.00799e-23)
(1.25415 0.202409 4.15085e-22)
(1.26048 0.19857 3.61134e-23)
(1.26658 0.19459 3.69999e-22)
(1.27243 0.19045 2.38064e-23)
(1.27797 0.186127 -1.78278e-21)
(1.28314 0.181592 -1.24874e-22)
(1.28787 0.176814 1.09467e-21)
(1.23989 0.194061 -7.47129e-23)
(1.24606 0.190857 9.37834e-23)
(1.2521 0.187565 -1.16012e-22)
(1.25801 0.184176 -2.4247e-22)
(1.26375 0.180678 -3.52195e-22)
(1.2693 0.177054 1.20488e-21)
(1.27462 0.173282 5.74453e-22)
(1.27967 0.169339 -1.0164e-21)
(1.23227 0.182163 2.31221e-23)
(1.23806 0.179373 -3.08766e-22)
(1.24377 0.176521 1.74144e-22)
(1.24939 0.173602 1.32115e-23)
(1.25491 0.170607 3.89506e-22)
(1.26031 0.167527 -3.93059e-22)
(1.26556 0.164347 5.29058e-22)
(1.27065 0.16105 7.72217e-22)
(1.22483 0.170496 1.24342e-23)
(1.23023 0.168051 1.24527e-22)
(1.23557 0.165561 -2.93868e-22)
(1.24086 0.163024 -4.90034e-23)
(1.24609 0.160434 -3.63313e-22)
(1.25124 0.157785 4.42812e-22)
(1.25631 0.155069 -1.7153e-21)
(1.26127 0.152274 -1.04621e-21)
(1.21757 0.159096 -2.69994e-23)
(1.22259 0.156946 3.36817e-23)
(1.22757 0.154762 2.27797e-22)
(1.23251 0.152543 -1.17563e-22)
(1.23742 0.150287 5.71509e-22)
(1.24227 0.14799 -2.03709e-22)
(1.24708 0.145647 3.36096e-22)
(1.25182 0.143252 6.01313e-22)
(1.2105 0.147979 2.39554e-23)
(1.21515 0.146086 -8.46879e-24)
(1.21978 0.144167 -1.61887e-22)
(1.22438 0.142221 4.16442e-22)
(1.22895 0.140248 -2.69774e-22)
(1.2335 0.138246 2.4772e-22)
(1.23801 0.136212 2.5928e-22)
(1.24248 0.134142 1.13214e-22)
(1.20362 0.137153 7.40111e-24)
(1.20792 0.135486 2.21866e-23)
(1.21221 0.133799 7.48249e-23)
(1.21648 0.132092 -2.62592e-22)
(1.22074 0.130364 -1.90186e-22)
(1.22497 0.128615 4.67906e-23)
(1.22918 0.126844 -2.20755e-22)
(1.23336 0.125047 2.27008e-22)
(1.23751 0.123224 -1.07584e-21)
(1.19691 0.126612 -1.22091e-23)
(1.2009 0.125146 -2.39376e-24)
(1.20488 0.123666 -1.46112e-24)
(1.20884 0.12217 1.67993e-22)
(1.21278 0.120658 1.24015e-22)
(1.21672 0.119131 -7.09071e-23)
(1.22063 0.117587 -1.80244e-22)
(1.22452 0.116026 -5.69587e-25)
(1.22839 0.114446 1.60621e-22)
(1.19041 0.116343 2.07099e-24)
(1.1941 0.11506 3.34948e-25)
(1.19778 0.113764 2.9016e-23)
(1.20145 0.112456 -4.92255e-23)
(1.20511 0.111137 -2.73376e-23)
(1.20876 0.109806 1.7007e-22)
(1.21239 0.108463 7.1377e-23)
(1.216 0.107108 -2.82704e-22)
(1.2196 0.10574 -1.00576e-22)
(1.1841 0.106338 -8.65603e-25)
(1.18752 0.105217 -2.46811e-24)
(1.19094 0.104087 -1.68525e-23)
(1.19434 0.102948 -7.63285e-24)
(1.19773 0.1018 -8.05594e-23)
(1.20111 0.100644 8.55672e-23)
(1.20448 0.0994797 -7.1796e-23)
(1.20783 0.0983061 -1.83408e-22)
(1.21117 0.0971234 3.04568e-22)
(1.17802 0.0965729 3.16728e-24)
(1.18119 0.0955984 -3.89727e-24)
(1.18436 0.0946174 -5.79224e-24)
(1.18751 0.0936303 -7.94762e-24)
(1.19066 0.092637 5.72906e-24)
(1.1938 0.0916376 -4.07572e-23)
(1.19692 0.0906319 8.90908e-23)
(1.20003 0.08962 1.01806e-22)
(1.20312 0.0886018 -1.93477e-23)
(1.17218 0.0870265 -8.54368e-24)
(1.17513 0.0861846 7.57489e-24)
(1.17807 0.0853384 -2.48669e-24)
(1.181 0.0844879 1.98557e-24)
(1.18392 0.083633 -2.35304e-24)
(1.18683 0.082774 2.75193e-24)
(1.18973 0.0819106 -1.51821e-23)
(1.19261 0.0810429 -9.61526e-23)
(1.19548 0.0801707 6.2914e-23)
(1.16662 0.0776718 -1.61106e-24)
(1.16936 0.0769503 1.65946e-23)
(1.1721 0.076226 8.82379e-24)
(1.17483 0.0754987 -5.29054e-24)
(1.17754 0.0747687 -1.41566e-23)
(1.18025 0.0740358 -8.20146e-25)
(1.18294 0.0733001 -1.99268e-23)
(1.18562 0.0725614 2.84582e-23)
(1.18828 0.0718196 -7.56869e-23)
(1.16138 0.0684791 7.28359e-25)
(1.16394 0.0678671 9.8759e-24)
(1.16649 0.0672533 -2.09828e-23)
(1.16904 0.0666378 1.05893e-23)
(1.17157 0.0660205 2.62011e-23)
(1.17409 0.0654014 -2.22079e-23)
(1.17659 0.0647805 1.85147e-23)
(1.17908 0.0641576 -2.84936e-24)
(1.18155 0.0635326 3.78519e-23)
(1.15651 0.0594132 1.10063e-23)
(1.15891 0.0589012 -2.30598e-23)
(1.1613 0.0583883 -1.59034e-23)
(1.16368 0.0578744 2.48978e-23)
(1.16604 0.0573595 4.78132e-24)
(1.1684 0.0568436 3.82026e-23)
(1.17073 0.0563264 -9.04506e-25)
(1.17305 0.055808 -1.43578e-23)
(1.17536 0.0552881 9.48436e-24)
(1.15206 0.0504345 7.48224e-25)
(1.15432 0.0500144 -7.00566e-24)
(1.15657 0.0495939 9.19669e-25)
(1.15881 0.0491731 -1.47192e-23)
(1.16103 0.0487517 -7.86513e-23)
(1.16323 0.0483297 5.66881e-23)
(1.16542 0.0479071 -2.46165e-23)
(1.16759 0.0474835 6.5303e-24)
(1.16975 0.0470589 3.85484e-23)
(1.14812 0.0414945 -1.09878e-23)
(1.15025 0.0411597 2.57069e-23)
(1.15238 0.0408248 -4.6207e-24)
(1.15449 0.0404899 4.6871e-23)
(1.15659 0.0401548 -2.41564e-23)
(1.15867 0.0398194 -1.99408e-23)
(1.16073 0.0394836 -4.12739e-23)
(1.16277 0.0391471 9.24085e-24)
(1.16479 0.0388098 1.7451e-23)
(1.14475 0.0325394 -1.24683e-23)
(1.14678 0.0322843 6.18973e-24)
(1.14881 0.0320294 1.72854e-23)
(1.15081 0.0317746 -4.47377e-23)
(1.1528 0.0315198 6.90974e-23)
(1.15478 0.0312648 -4.59786e-23)
(1.15673 0.0310094 -1.51641e-23)
(1.15867 0.0307535 7.07536e-23)
(1.16058 0.0304969 2.90248e-23)
(1.14204 0.023497 -1.83187e-24)
(1.144 0.0233183 3.12787e-23)
(1.14594 0.0231399 -1.02727e-23)
(1.14786 0.0229616 6.66819e-23)
(1.14977 0.0227833 -7.02378e-23)
(1.15166 0.0226048 -1.37308e-23)
(1.15353 0.0224261 -2.84826e-23)
(1.15537 0.0222468 7.48624e-23)
(1.1572 0.0220669 -1.24783e-22)
(1.14011 0.0142977 -2.46282e-25)
(1.14201 0.0141914 -7.41773e-24)
(1.14389 0.0140852 -8.43692e-24)
(1.14575 0.013979 2.94629e-23)
(1.1476 0.0138727 -5.1672e-23)
(1.14942 0.0137662 5.15429e-23)
(1.15123 0.0136594 -5.03371e-23)
(1.15301 0.0135522 2.41238e-23)
(1.15478 0.0134444 3.76857e-23)
(1.13904 0.0048166 -8.7796e-25)
(1.1409 0.00478559 2.46691e-23)
(1.14274 0.00475455 -4.99919e-23)
(1.14457 0.00472338 -3.9853e-23)
(1.14638 0.00469197 3.00461e-23)
(1.14817 0.00466019 -3.095e-23)
(1.14994 0.00462796 3.95467e-23)
(1.15169 0.00459515 1.05573e-23)
(1.15343 0.00456166 1.41274e-23)
(0.954507 0.413806 2.76395e-21)
(0.979171 0.419481 -1.99214e-21)
(1.00273 0.424537 6.40372e-21)
(1.02573 0.428256 -1.35407e-21)
(1.04863 0.430494 1.4053e-22)
(1.07117 0.431252 -2.39704e-22)
(1.09314 0.430518 9.31012e-22)
(1.11445 0.428298 4.97864e-22)
(1.13497 0.424618 -1.81354e-23)
(1.15461 0.419513 -7.67082e-22)
(1.17322 0.413022 -9.54661e-22)
(1.19057 0.405162 1.17638e-21)
(1.20666 0.395908 -3.02021e-21)
(1.22139 0.385401 -9.25713e-22)
(1.23449 0.373673 1.75476e-21)
(1.2458 0.360751 -2.41333e-21)
(1.25519 0.346681 4.47585e-22)
(1.26247 0.331511 1.59259e-22)
(1.26747 0.315297 9.49655e-22)
(1.27 0.298096 1.59139e-22)
(0.977505 0.395803 -4.31032e-21)
(1.00054 0.399513 3.1945e-21)
(1.02211 0.402698 -7.99541e-21)
(1.0426 0.405021 -7.05071e-21)
(1.06303 0.406311 -6.11914e-22)
(1.08326 0.406526 6.14238e-22)
(1.10311 0.405633 -7.07807e-22)
(1.12249 0.403609 -1.14651e-21)
(1.1413 0.400445 2.33204e-22)
(1.15946 0.396146 4.52199e-22)
(1.17684 0.390715 -1.10293e-22)
(1.19328 0.384161 -1.20306e-21)
(1.20875 0.376562 1.14473e-21)
(1.22316 0.367941 -8.71525e-22)
(1.23626 0.358271 2.40954e-22)
(1.24795 0.347572 -5.8979e-22)
(1.25809 0.335876 2.47419e-21)
(1.26653 0.323215 -5.13451e-22)
(1.27309 0.30962 -7.97925e-22)
(1.27761 0.295125 4.6405e-24)
(0.998907 0.378449 -2.26277e-21)
(1.01954 0.381251 -4.76201e-21)
(1.03895 0.383208 2.01809e-21)
(1.05725 0.384378 5.41288e-21)
(1.07548 0.384718 -1.40404e-21)
(1.09361 0.38422 1.9311e-24)
(1.11145 0.382886 -9.53448e-22)
(1.12894 0.380705 -1.05842e-21)
(1.14601 0.377672 -4.54355e-22)
(1.16258 0.373786 -2.57569e-23)
(1.17858 0.369051 1.03184e-21)
(1.19386 0.363484 -1.43061e-22)
(1.20848 0.357131 -2.53469e-22)
(1.22231 0.349869 1.00787e-22)
(1.23511 0.341786 -1.94045e-21)
(1.24682 0.332902 -1.30649e-21)
(1.25734 0.323215 -1.04386e-21)
(1.26653 0.31273 -2.73689e-22)
(1.27425 0.301456 -5.8819e-22)
(1.28034 0.289404 -2.92918e-22)
(1.01847 0.361099 -4.21197e-21)
(1.03695 0.362808 6.44577e-21)
(1.05434 0.363724 -3.00433e-21)
(1.07071 0.363986 1.77168e-22)
(1.08696 0.363595 -8.01218e-22)
(1.10314 0.362549 1.81128e-21)
(1.11908 0.360861 7.89375e-22)
(1.13473 0.358533 1.88103e-21)
(1.15005 0.355569 1.13882e-22)
(1.16501 0.35197 2.10849e-22)
(1.17956 0.347742 -4.98491e-22)
(1.19363 0.342897 1.1601e-21)
(1.20706 0.337455 -8.4882e-23)
(1.2199 0.331307 -9.72892e-22)
(1.23214 0.32454 2.91588e-21)
(1.24358 0.31716 1.34849e-21)
(1.25411 0.309152 -3.76247e-22)
(1.26365 0.300506 5.41654e-22)
(1.27207 0.291218 9.21407e-22)
(1.27925 0.281281 1.1049e-22)
(1.0357 0.343625 7.30819e-21)
(1.05224 0.344416 -4.82604e-21)
(1.0678 0.344542 1.77959e-21)
(1.08245 0.344136 -1.51188e-21)
(1.09698 0.343214 9.04856e-22)
(1.11142 0.341774 -7.94299e-22)
(1.12566 0.339828 6.46544e-22)
(1.13964 0.33739 -1.01199e-21)
(1.15336 0.334468 6.56068e-22)
(1.16679 0.331068 -1.78096e-22)
(1.17991 0.327195 -5.55355e-24)
(1.19267 0.322846 -4.45912e-22)
(1.20499 0.318021 2.89273e-22)
(1.21689 0.312774 -2.75895e-22)
(1.22833 0.307079 -8.53894e-22)
(1.23919 0.300905 1.92008e-23)
(1.24941 0.294247 -2.27252e-22)
(1.25892 0.287098 -9.37545e-22)
(1.26762 0.279449 -3.54182e-22)
(1.2754 0.271284 -4.15598e-23)
(1.05074 0.325936 2.30798e-22)
(1.06552 0.326058 3.96546e-21)
(1.0794 0.32563 1.21735e-21)
(1.09252 0.324768 2.86488e-21)
(1.1055 0.323491 -4.56887e-23)
(1.11841 0.3218 5.5135e-22)
(1.13113 0.319707 -1.58461e-21)
(1.14363 0.317228 -7.7604e-22)
(1.15591 0.314375 -6.34972e-22)
(1.16796 0.311159 -4.81019e-23)
(1.17976 0.30759 1.22427e-22)
(1.19128 0.303674 -1.99985e-23)
(1.20249 0.299423 1.00852e-22)
(1.21342 0.294857 7.26949e-22)
(1.22402 0.289923 -6.18958e-22)
(1.23418 0.284645 -2.14878e-22)
(1.24389 0.279023 5.92502e-22)
(1.2531 0.273046 6.6844e-22)
(1.26175 0.266698 -4.91359e-22)
(1.26976 0.259963 2.08148e-23)
(1.06374 0.308211 -3.88903e-21)
(1.07692 0.307845 -3.18016e-21)
(1.08929 0.30703 6.65068e-22)
(1.10101 0.305864 1.19482e-21)
(1.11262 0.304366 -2.35228e-21)
(1.12416 0.302536 -3.22152e-21)
(1.13554 0.300388 -1.37815e-21)
(1.14674 0.297935 2.1431e-21)
(1.15775 0.295191 3.05806e-22)
(1.16858 0.292166 -1.48183e-23)
(1.1792 0.288872 -2.76188e-23)
(1.18963 0.285319 -1.09789e-22)
(1.19983 0.28152 -3.29821e-22)
(1.20975 0.277484 7.67192e-22)
(1.21942 0.273166 2.0912e-22)
(1.22886 0.268601 -4.14805e-22)
(1.23798 0.263794 -4.09659e-22)
(1.24675 0.258734 1.68548e-22)