/*--------------------------------*- C++ -*----------------------------------*\
  =========                 |
  \\      /  F ield         | OpenFOAM: The Open Source CFD Toolbox
   \\    /   O peration     | Website:  https://openfoam.org
    \\  /    A nd           | Version:  7
     \\/     M anipulation  |
\*---------------------------------------------------------------------------*/
FoamFile
{
    version     2.0;
    format      ascii;
    class       volScalarField;
    location    "140";
    object      p;
}
// * * * * * * * * * * * * * * * * * * * * * * * * * * * * * * * * * * * * * //

dimensions      [0 2 -2 0 0 0 0];

internalField   nonuniform List<scalar> 
8500
(
-0.425001
-0.427324
-0.428242
-0.429596
-0.431895
-0.435295
-0.439822
-0.445472
-0.452045
-0.459599
-0.416083
-0.41883
-0.419739
-0.42082
-0.422524
-0.424941
-0.428033
-0.43172
-0.435654
-0.439844
-0.407378
-0.410483
-0.411367
-0.412169
-0.413275
-0.414701
-0.41634
-0.418035
-0.419278
-0.419974
-0.399011
-0.402414
-0.403263
-0.403791
-0.404311
-0.404765
-0.404973
-0.404702
-0.40329
-0.400483
-0.391096
-0.394739
-0.395548
-0.395816
-0.395778
-0.3953
-0.394128
-0.391959
-0.388007
-0.381778
-0.383733
-0.387564
-0.388331
-0.388356
-0.387795
-0.386441
-0.383962
-0.379998
-0.373679
-0.364161
-0.377008
-0.380979
-0.381704
-0.381505
-0.380462
-0.378296
-0.374598
-0.368959
-0.360482
-0.347823
-0.370994
-0.375064
-0.375743
-0.37534
-0.373856
-0.370946
-0.366126
-0.35894
-0.348537
-0.33285
-0.365753
-0.369881
-0.370512
-0.36992
-0.368036
-0.364454
-0.358615
-0.350013
-0.337929
-0.31926
-0.361337
-0.365482
-0.366058
-0.365293
-0.363052
-0.358873
-0.352123
-0.342233
-0.328737
-0.307027
-0.357787
-0.361903
-0.362418
-0.361493
-0.358938
-0.354244
-0.346703
-0.335659
-0.321043
-0.296036
-0.355133
-0.35917
-0.359612
-0.358542
-0.35572
-0.3506
-0.342407
-0.330356
-0.314962
-0.286256
-0.353392
-0.357288
-0.357645
-0.356445
-0.353404
-0.347956
-0.339269
-0.326388
-0.310677
-0.277902
-0.352562
-0.356248
-0.356503
-0.355184
-0.351974
-0.346291
-0.33727
-0.323749
-0.308264
-0.271519
-0.352626
-0.356023
-0.356151
-0.354718
-0.351379
-0.34554
-0.336317
-0.322319
-0.306504
-0.267658
-0.353545
-0.356565
-0.356535
-0.35498
-0.351535
-0.345595
-0.336266
-0.322272
-0.305695
-0.265503
-0.355263
-0.357815
-0.357581
-0.355879
-0.35233
-0.346306
-0.336867
-0.323075
-0.305576
-0.264843
-0.357708
-0.359699
-0.359205
-0.357311
-0.353627
-0.347508
-0.337945
-0.324376
-0.305558
-0.265213
-0.360804
-0.362143
-0.361318
-0.359167
-0.355292
-0.349028
-0.339296
-0.325975
-0.305292
-0.266655
-0.364475
-0.365077
-0.363839
-0.36135
-0.357203
-0.350725
-0.34076
-0.327606
-0.305108
-0.272742
-0.368657
-0.368445
-0.366708
-0.363787
-0.359276
-0.352497
-0.342229
-0.328922
-0.30564
-0.287495
-0.373303
-0.372205
-0.369891
-0.366437
-0.361468
-0.354288
-0.343641
-0.329862
-0.307109
-0.289833
-0.378397
-0.376349
-0.373376
-0.369303
-0.363782
-0.356094
-0.344961
-0.330505
-0.308268
-0.289743
-0.383941
-0.38089
-0.377188
-0.372419
-0.366259
-0.357942
-0.346181
-0.330914
-0.30882
-0.288909
-0.389965
-0.385861
-0.381376
-0.375848
-0.36896
-0.35988
-0.347319
-0.331075
-0.30877
-0.287368
-0.396515
-0.391308
-0.386003
-0.379664
-0.371949
-0.361953
-0.348389
-0.330968
-0.308097
-0.285398
-0.403644
-0.397285
-0.391136
-0.383935
-0.375278
-0.364186
-0.349378
-0.330562
-0.306851
-0.283008
-0.4114
-0.403843
-0.396835
-0.388713
-0.378974
-0.366572
-0.350245
-0.329819
-0.305079
-0.280231
-0.419817
-0.41102
-0.40314
-0.394021
-0.383031
-0.369063
-0.35092
-0.328706
-0.302822
-0.277064
-0.428906
-0.418832
-0.410064
-0.399846
-0.387404
-0.371565
-0.351323
-0.32719
-0.300106
-0.273503
-0.438647
-0.427269
-0.417584
-0.406137
-0.391995
-0.37395
-0.351365
-0.325235
-0.296942
-0.269532
-0.448985
-0.436291
-0.42564
-0.412802
-0.396661
-0.376072
-0.350956
-0.322803
-0.293319
-0.265128
-0.459825
-0.445817
-0.434133
-0.419703
-0.401217
-0.377773
-0.350005
-0.31985
-0.289215
-0.260261
-0.471033
-0.455729
-0.44292
-0.426653
-0.405449
-0.378897
-0.348423
-0.316324
-0.284593
-0.254896
-0.482433
-0.465865
-0.451817
-0.433421
-0.40913
-0.379288
-0.346119
-0.312165
-0.279406
-0.248992
-0.493809
-0.476024
-0.460595
-0.439738
-0.412031
-0.378799
-0.343002
-0.30731
-0.2736
-0.242505
-0.504904
-0.485961
-0.468984
-0.445313
-0.413927
-0.377287
-0.338981
-0.301689
-0.267117
-0.235391
-0.515429
-0.495398
-0.476677
-0.449845
-0.414602
-0.374619
-0.333964
-0.295231
-0.259896
-0.227607
-0.525065
-0.504023
-0.483341
-0.453036
-0.413857
-0.370668
-0.327863
-0.287862
-0.251876
-0.219113
-0.533469
-0.511501
-0.488628
-0.454602
-0.411509
-0.365318
-0.320593
-0.279513
-0.243001
-0.209874
-0.540287
-0.517482
-0.492188
-0.454281
-0.407393
-0.358462
-0.312074
-0.270118
-0.233218
-0.199861
-0.545163
-0.52161
-0.493687
-0.451837
-0.401366
-0.350004
-0.302229
-0.259614
-0.222489
-0.189057
-0.547747
-0.523534
-0.492817
-0.447065
-0.393305
-0.339861
-0.290993
-0.247947
-0.21078
-0.177456
-0.547706
-0.522919
-0.489302
-0.439796
-0.383112
-0.327963
-0.278307
-0.235064
-0.198051
-0.165017
-0.544735
-0.519458
-0.482915
-0.429897
-0.370711
-0.314262
-0.26413
-0.220928
-0.184238
-0.151581
-0.538566
-0.512884
-0.473471
-0.417272
-0.356054
-0.298723
-0.248441
-0.205524
-0.169284
-0.136861
-0.528973
-0.502976
-0.460835
-0.401865
-0.339116
-0.281331
-0.231229
-0.188863
-0.153238
-0.120809
-0.515779
-0.489572
-0.444917
-0.383655
-0.319898
-0.262084
-0.21249
-0.170955
-0.136201
-0.104437
-0.498863
-0.472563
-0.425679
-0.362654
-0.298424
-0.241002
-0.192257
-0.151859
-0.118014
-0.0875221
-0.478157
-0.451898
-0.403128
-0.338913
-0.274745
-0.218137
-0.170629
-0.131575
-0.0988179
-0.0698696
-0.453653
-0.427585
-0.377326
-0.31252
-0.248934
-0.193585
-0.147624
-0.110132
-0.0787099
-0.0514598
-0.425395
-0.399695
-0.34841
-0.283589
-0.221073
-0.167413
-0.123301
-0.0876093
-0.0577562
-0.0323575
-0.393484
-0.368362
-0.316576
-0.252195
-0.191272
-0.139708
-0.0977537
-0.0640956
-0.0360272
-0.012664
-0.358081
-0.333789
-0.281937
-0.218402
-0.159727
-0.110603
-0.07109
-0.0396857
-0.0136062
0.00750882
-0.31941
-0.296257
-0.244269
-0.182683
-0.12658
-0.0802413
-0.0434343
-0.0144815
0.00942253
0.0280739
-0.277691
-0.256006
-0.203922
-0.145166
-0.0920358
-0.0487832
-0.014923
0.0114103
0.0329723
0.0489406
-0.233111
-0.21275
-0.162001
-0.106065
-0.0562863
-0.0163993
0.0143084
0.0378889
0.0569013
0.0697757
-0.186014
-0.167272
-0.118529
-0.0656555
-0.0195377
0.0167399
0.0441423
0.0648682
0.0809298
0.0897722
-0.137027
-0.119774
-0.0736404
-0.0242075
0.0179837
0.05046
0.0744695
0.0922425
0.104722
0.10836
-0.0863072
-0.0707848
-0.0276145
0.0180051
0.0560397
0.0845731
0.10513
0.119776
0.128176
0.127238
-0.0342756
-0.0207266
0.019203
0.0606966
0.0943853
0.11887
0.135873
0.147076
0.151279
0.151198
0.018623
0.0300019
0.0664467
0.10357
0.132771
0.153124
0.166434
0.174014
0.174914
0.175219
0.0719444
0.080996
0.113747
0.146322
0.17094
0.187107
0.196641
0.200652
0.198736
0.197932
0.125241
0.131844
0.160737
0.188644
0.208633
0.220587
0.22632
0.226867
0.222313
0.219662
0.178064
0.182131
0.20705
0.230231
0.245588
0.253345
0.255301
0.252481
0.245306
0.240401
0.229967
0.231447
0.252328
0.27078
0.28155
0.285163
0.283406
0.277314
0.267526
0.260181
0.280513
0.279388
0.296221
0.309996
0.316267
0.315829
0.310455
0.301191
0.288822
0.278962
0.329274
0.325559
0.338388
0.347591
0.349497
0.345138
0.33627
0.323953
0.309066
0.296683
0.375837
0.369583
0.378504
0.383289
0.381004
0.372889
0.360681
0.34545
0.328139
0.313272
0.419807
0.411097
0.416256
0.416827
0.410566
0.398894
0.383525
0.365543
0.345928
0.328655
0.460811
0.449762
0.451353
0.447959
0.437972
0.422972
0.404649
0.384101
0.362326
0.342756
0.498499
0.485257
0.483521
0.476451
0.463025
0.444956
0.423911
0.401003
0.377231
0.355506
0.532551
0.517291
0.512509
0.502092
0.485545
0.464691
0.441179
0.416136
0.390549
0.366838
0.562672
0.545597
0.538088
0.524688
0.505366
0.482038
0.456335
0.429397
0.402196
0.376694
0.5886
0.569938
0.560054
0.544066
0.522341
0.496871
0.469271
0.440697
0.412093
0.385021
0.610109
0.590106
0.578231
0.560077
0.536342
0.509081
0.479895
0.449953
0.420174
0.391775
0.627005
0.605928
0.592468
0.572593
0.547261
0.518576
0.488129
0.4571
0.426383
0.396918
0.63913
0.61726
0.602643
0.58151
0.55501
0.525281
0.493908
0.462081
0.430674
0.400425
0.646365
0.623995
0.608664
0.586751
0.559522
0.529139
0.497185
0.464856
0.433016
0.402279
0.648629
0.626058
0.610468
0.588261
0.560751
0.530111
0.497926
0.465396
0.43338
0.40245
0.645879
0.623412
0.60802
0.586013
0.558673
0.528177
0.496115
0.463686
0.431753
0.400933
0.63811
0.616051
0.601319
0.580003
0.553287
0.523336
0.49175
0.459726
0.428135
0.397721
0.625359
0.604008
0.59039
0.570255
0.544611
0.515604
0.484846
0.453529
0.422543
0.392836
0.6077
0.58735
0.575291
0.556818
0.532689
0.505017
0.475434
0.445122
0.414997
0.386289
0.585244
0.566177
0.55611
0.539765
0.517582
0.49163
0.46356
0.434546
0.405529
0.378097
0.558142
0.540624
0.53296
0.519194
0.499376
0.475515
0.449286
0.421854
0.394186
0.368289
0.52658
0.510861
0.505989
0.495229
0.478175
0.45676
0.432688
0.407112
0.381023
0.356901
0.490781
0.477088
0.475366
0.468015
0.454104
0.435473
0.413859
0.3904
0.366107
0.343978
0.451
0.439536
0.441292
0.43772
0.427306
0.411777
0.392901
0.371808
0.349513
0.329571
0.407526
0.398467
0.403989
0.404535
0.397945
0.38581
0.369934
0.351437
0.331327
0.313739
0.360678
0.354169
0.363705
0.36867
0.366198
0.357724
0.345088
0.329399
0.311641
0.296547
0.3108
0.306958
0.32071
0.330352
0.332261
0.327686
0.318504
0.305815
0.290558
0.278065
0.258265
0.257171
0.275295
0.289829
0.296342
0.295875
0.290334
0.280815
0.268181
0.258367
0.203467
0.205169
0.227769
0.24736
0.258665
0.26248
0.260742
0.254538
0.244623
0.237522
0.14682
0.15133
0.178458
0.203223
0.219462
0.227699
0.229898
0.227136
0.220001
0.215598
0.0887529
0.0960483
0.127702
0.157704
0.178979
0.191739
0.197981
0.19877
0.19444
0.192638
0.0297096
0.0397314
0.0758531
0.1111
0.137467
0.154815
0.165173
0.169622
0.168099
0.168662
-0.0298583
-0.0172048
0.0232736
0.0637171
0.0951856
0.117143
0.131651
0.13988
0.141179
0.143606
-0.0894932
-0.0743397
-0.0296675
0.0158647
0.0523989
0.0789477
0.097583
0.109724
0.114073
0.117493
-0.148736
-0.131252
-0.0825955
-0.0321451
0.00937284
0.0404664
0.0631431
0.0792786
0.0872866
0.0899965
-0.20713
-0.187524
-0.135133
-0.080002
-0.0336309
0.00193606
0.0285051
0.0484303
0.0611508
0.0626825
-0.264221
-0.242741
-0.186905
-0.127401
-0.0763569
-0.0364087
-0.00604553
0.0172994
0.0346011
0.0413962
-0.319571
-0.296477
-0.237552
-0.174047
-0.118553
-0.0743514
-0.0402327
-0.0136508
0.00765606
0.0204992
-0.372876
-0.348248
-0.286765
-0.219655
-0.159973
-0.111699
-0.0738876
-0.0441464
-0.0195444
-0.00208785
-0.423667
-0.397706
-0.334372
-0.263944
-0.20038
-0.148274
-0.106908
-0.0740899
-0.0466341
-0.0256843
-0.471509
-0.444106
-0.38042
-0.306613
-0.23956
-0.183901
-0.139181
-0.103411
-0.0733212
-0.0493411
-0.516137
-0.487472
-0.424075
-0.347381
-0.277324
-0.218404
-0.17057
-0.132013
-0.0994607
-0.0726884
-0.557319
-0.527745
-0.464353
-0.386351
-0.313473
-0.251609
-0.200932
-0.159787
-0.124965
-0.0956393
-0.59481
-0.564653
-0.50158
-0.422931
-0.347753
-0.283363
-0.230136
-0.186627
-0.149745
-0.118105
-0.628403
-0.597934
-0.535764
-0.456775
-0.38007
-0.31353
-0.258062
-0.212432
-0.173714
-0.139965
-0.657949
-0.627384
-0.566689
-0.487927
-0.410234
-0.341979
-0.284608
-0.23711
-0.196798
-0.161112
-0.683357
-0.652876
-0.594156
-0.516298
-0.43814
-0.368659
-0.309685
-0.260575
-0.21894
-0.181463
-0.70459
-0.674348
-0.618045
-0.541763
-0.46371
-0.393475
-0.333286
-0.282747
-0.240078
-0.200991
-0.721669
-0.691799
-0.6383
-0.564233
-0.486878
-0.416345
-0.355346
-0.303676
-0.260058
-0.219777
-0.734672
-0.705286
-0.654915
-0.583663
-0.507599
-0.437228
-0.375784
-0.323287
-0.278679
-0.238137
-0.743734
-0.714927
-0.66793
-0.60004
-0.525854
-0.456113
-0.39458
-0.34157
-0.296301
-0.255702
-0.749046
-0.720896
-0.677438
-0.613388
-0.541645
-0.47301
-0.411752
-0.358533
-0.312838
-0.271927
-0.750851
-0.723422
-0.683579
-0.623763
-0.555001
-0.487941
-0.427321
-0.374168
-0.328215
-0.286917
-0.749437
-0.722789
-0.686539
-0.631258
-0.56597
-0.500946
-0.441317
-0.388494
-0.342476
-0.300931
-0.745129
-0.719325
-0.686552
-0.636002
-0.574626
-0.512078
-0.45379
-0.401562
-0.355697
-0.314123
-0.738283
-0.713386
-0.683897
-0.638161
-0.581066
-0.521408
-0.464804
-0.413437
-0.367939
-0.32655
-0.729272
-0.705349
-0.678892
-0.637935
-0.585405
-0.529018
-0.474432
-0.424189
-0.379251
-0.338242
-0.71848
-0.695598
-0.671888
-0.635557
-0.58778
-0.535002
-0.482755
-0.43389
-0.389691
-0.34923
-0.70629
-0.684514
-0.663253
-0.631288
-0.588346
-0.539459
-0.489854
-0.442616
-0.399325
-0.359562
-0.693071
-0.672463
-0.653363
-0.625411
-0.58727
-0.542498
-0.495813
-0.450449
-0.408231
-0.369297
-0.679172
-0.659788
-0.642582
-0.618227
-0.58474
-0.544227
-0.500718
-0.457468
-0.41649
-0.378506
-0.664912
-0.646801
-0.631253
-0.610047
-0.580952
-0.544763
-0.50465
-0.463755
-0.424184
-0.387268
-0.650576
-0.633779
-0.619681
-0.601179
-0.576117
-0.544222
-0.507687
-0.469383
-0.431398
-0.395666
-0.636405
-0.620954
-0.608129
-0.591919
-0.570454
-0.542725
-0.5099
-0.47442
-0.438211
-0.403788
-0.622603
-0.608518
-0.596813
-0.582528
-0.564183
-0.540396
-0.511356
-0.478925
-0.444698
-0.411725
-0.609333
-0.596618
-0.585902
-0.573229
-0.557526
-0.537366
-0.512115
-0.482945
-0.450925
-0.419571
-0.59672
-0.58536
-0.575525
-0.564194
-0.550688
-0.533772
-0.512237
-0.486516
-0.456949
-0.427422
-0.58486
-0.574816
-0.565772
-0.555548
-0.543852
-0.529762
-0.511783
-0.489666
-0.462811
-0.435377
-0.573829
-0.565034
-0.556701
-0.547382
-0.537167
-0.525487
-0.510827
-0.492414
-0.468541
-0.443532
-0.563683
-0.556043
-0.548348
-0.539761
-0.530751
-0.5211
-0.50946
-0.494782
-0.474141
-0.452009
-0.55447
-0.547862
-0.540734
-0.532742
-0.5247
-0.516752
-0.507796
-0.496796
-0.479618
-0.460875
-0.546229
-0.540507
-0.533878
-0.526374
-0.519104
-0.512581
-0.505977
-0.498505
-0.484927
-0.470344
-0.538987
-0.533986
-0.527793
-0.520706
-0.514062
-0.508728
-0.50416
-0.499968
-0.490105
-0.480262
-0.532748
-0.528297
-0.522488
-0.51578
-0.509674
-0.505336
-0.502513
-0.501283
-0.495111
-0.490896
-0.527489
-0.523419
-0.517957
-0.511628
-0.506027
-0.502545
-0.50121
-0.502582
-0.499929
-0.500959
-0.52315
-0.519305
-0.514172
-0.50825
-0.503179
-0.500478
-0.500458
-0.503844
-0.505699
-0.504202
-0.519629
-0.515876
-0.511069
-0.50561
-0.501136
-0.499207
-0.500431
-0.505175
-0.512142
-0.509477
-0.516792
-0.513024
-0.508552
-0.503629
-0.499847
-0.498742
-0.501194
-0.506856
-0.518398
-0.516035
-0.514468
-0.510615
-0.506499
-0.502185
-0.499199
-0.499009
-0.502688
-0.509126
-0.524204
-0.522463
-0.51247
-0.508502
-0.504766
-0.501127
-0.499031
-0.499852
-0.504737
-0.512043
-0.529526
-0.528798
-0.510603
-0.506532
-0.503199
-0.500284
-0.499146
-0.501051
-0.507102
-0.515457
-0.534316
-0.535417
-0.508677
-0.504551
-0.501642
-0.499479
-0.499328
-0.502341
-0.50949
-0.519045
-0.538501
-0.542262
-0.506517
-0.502413
-0.499945
-0.498533
-0.499355
-0.503446
-0.511602
-0.522393
-0.541974
-0.548844
-0.503966
-0.499983
-0.497963
-0.497276
-0.499013
-0.504096
-0.513141
-0.525081
-0.544557
-0.554484
-0.500894
-0.497138
-0.495564
-0.495551
-0.498108
-0.504048
-0.513835
-0.526745
-0.546023
-0.558695
-0.497197
-0.493776
-0.492636
-0.493223
-0.496473
-0.503102
-0.513457
-0.527098
-0.546147
-0.561172
-0.4928
-0.489814
-0.489083
-0.490179
-0.493977
-0.501104
-0.511832
-0.525936
-0.544721
-0.561567
-0.487661
-0.485197
-0.484838
-0.486342
-0.490529
-0.497953
-0.508842
-0.523125
-0.541571
-0.559647
-0.481771
-0.479894
-0.479865
-0.481669
-0.486082
-0.493599
-0.504426
-0.5186
-0.536582
-0.555248
-0.475154
-0.473908
-0.47416
-0.476155
-0.480634
-0.488042
-0.498579
-0.512358
-0.529734
-0.548225
-0.467864
-0.467273
-0.467751
-0.469834
-0.474227
-0.481335
-0.491349
-0.504447
-0.521125
-0.538472
-0.459987
-0.460056
-0.460695
-0.462776
-0.466946
-0.473574
-0.48284
-0.494922
-0.509998
-0.526881
-0.451628
-0.452327
-0.4531
-0.455085
-0.458911
-0.464901
-0.473212
-0.484
-0.497333
-0.512809
-0.442918
-0.44421
-0.445068
-0.44689
-0.450274
-0.455492
-0.462672
-0.471927
-0.483262
-0.496599
-0.433994
-0.435831
-0.436735
-0.438341
-0.441207
-0.445552
-0.451456
-0.458981
-0.468047
-0.478696
-0.474642
-0.487134
-0.484577
-0.447854
-0.387643
-0.337262
-0.327855
-0.350776
-0.356211
-0.309339
-0.23735
-0.170244
-0.135916
-0.116661
-0.124584
-0.147927
-0.148736
-0.118521
-0.102057
-0.0805161
-0.0742003
-0.0626007
-0.0598889
-0.0774566
-0.0836384
-0.0556901
-0.0424287
-0.0500111
-0.0389518
-0.00948901
-0.450105
-0.457641
-0.453374
-0.420057
-0.369527
-0.332188
-0.336601
-0.369939
-0.377031
-0.32575
-0.247569
-0.175034
-0.135784
-0.113487
-0.118284
-0.138995
-0.138783
-0.112784
-0.0999363
-0.080246
-0.0747915
-0.0643303
-0.062021
-0.0786707
-0.0845693
-0.0560494
-0.0424715
-0.0501175
-0.0389714
-0.00943581
-0.42562
-0.427712
-0.421451
-0.391262
-0.350102
-0.325759
-0.343598
-0.387131
-0.396846
-0.34043
-0.256591
-0.179257
-0.135461
-0.110323
-0.112069
-0.130138
-0.128711
-0.106929
-0.0976628
-0.0799257
-0.0754206
-0.0661783
-0.0642257
-0.0798513
-0.0854305
-0.0563866
-0.0424904
-0.0502494
-0.0390453
-0.00938263
-0.401845
-0.39811
-0.389655
-0.362172
-0.329908
-0.318166
-0.348656
-0.401739
-0.413012
-0.353265
-0.26443
-0.18294
-0.135007
-0.107224
-0.106042
-0.12146
-0.11861
-0.10099
-0.0952409
-0.0795536
-0.0760883
-0.0681373
-0.0664867
-0.0809921
-0.086215
-0.056699
-0.042485
-0.0504081
-0.0391729
-0.00933001
-0.379331
-0.369572
-0.358846
-0.333545
-0.309493
-0.309383
-0.351708
-0.413368
-0.426436
-0.364195
-0.271111
-0.186112
-0.134475
-0.104237
-0.100289
-0.113058
-0.108615
-0.0950106
-0.0926789
-0.079128
-0.0767931
-0.0701983
-0.068787
-0.0820874
-0.0869164
-0.056984
-0.042455
-0.0505947
-0.0393535
-0.00927847
-0.358508
-0.342713
-0.329795
-0.306123
-0.289377
-0.299589
-0.352583
-0.421786
-0.437006
-0.373188
-0.276674
-0.188807
-0.133912
-0.1014
-0.0948799
-0.105018
-0.0988809
-0.0890391
-0.0899887
-0.0786468
-0.0775313
-0.0723514
-0.0711093
-0.0831323
-0.087529
-0.0572389
-0.0423998
-0.0508099
-0.0395854
-0.00922852
-0.339635
-0.317978
-0.303104
-0.280534
-0.270121
-0.288974
-0.351183
-0.426903
-0.444662
-0.380248
-0.281169
-0.19106
-0.133358
-0.0987426
-0.089866
-0.097416
-0.0895531
-0.0831288
-0.0871859
-0.0781077
-0.0782975
-0.0745855
-0.0734361
-0.0841223
-0.0880477
-0.057461
-0.0423191
-0.0510537
-0.0398663
-0.00918069
-0.322822
-0.295646
-0.279157
-0.257237
-0.25204
-0.277875
-0.347539
-0.428766
-0.44943
-0.385404
-0.284652
-0.192907
-0.132849
-0.0962886
-0.085278
-0.0903186
-0.0807571
-0.0773369
-0.0842906
-0.0775078
-0.0790841
-0.0768883
-0.0757503
-0.0850532
-0.0884682
-0.0576475
-0.0422124
-0.0513257
-0.0401933
-0.00913545
-0.308136
-0.275852
-0.258125
-0.237211
-0.234893
-0.266491
-0.341796
-0.427535
-0.451411
-0.388713
-0.287186
-0.194386
-0.132411
-0.0940542
-0.0811282
-0.0837771
-0.0725946
-0.0717264
-0.0813267
-0.0768438
-0.0798818
-0.0792468
-0.0780347
-0.0859214
-0.0887868
-0.0577958
-0.0420795
-0.0516251
-0.0405627
-0.00909326
-0.29581
-0.258535
-0.240106
-0.219913
-0.21958
-0.255028
-0.334201
-0.423466
-0.450774
-0.390251
-0.288834
-0.195531
-0.132062
-0.0920499
-0.0774138
-0.0778271
-0.0651405
-0.0663631
-0.078322
-0.0761119
-0.0806797
-0.0816469
-0.0802731
-0.0867232
-0.0890006
-0.0579031
-0.0419198
-0.0519501
-0.0409702
-0.00905453
-0.285517
-0.243566
-0.225445
-0.204947
-0.206164
-0.243703
-0.325071
-0.416898
-0.447744
-0.390111
-0.289656
-0.196379
-0.131816
-0.0902825
-0.0741202
-0.0724864
-0.0584395
-0.0613115
-0.0753072
-0.0753079
-0.0814655
-0.0840737
-0.0824499
-0.0874552
-0.0891074
-0.0579668
-0.0417331
-0.0522985
-0.0414105
-0.00901963
-0.27781
-0.233095
-0.211864
-0.19254
-0.194565
-0.232728
-0.314765
-0.408229
-0.442581
-0.388404
-0.289716
-0.196967
-0.131684
-0.0887592
-0.0712267
-0.0677549
-0.0525102
-0.0566321
-0.0723156
-0.0744266
-0.0822257
-0.0865121
-0.08455
-0.0881139
-0.0891056
-0.0579843
-0.041519
-0.0526676
-0.0418775
-0.00898886
-0.272375
-0.225083
-0.200798
-0.182438
-0.184719
-0.222295
-0.303658
-0.397881
-0.43556
-0.385259
-0.289081
-0.19734
-0.131678
-0.0874887
-0.0687097
-0.0636144
-0.0473473
-0.0523775
-0.0693817
-0.0734626
-0.0829463
-0.0889463
-0.0865582
-0.0886956
-0.0889943
-0.0579526
-0.0412768
-0.0530539
-0.0423641
-0.00896246
-0.268648
-0.219867
-0.192016
-0.174358
-0.176549
-0.212562
-0.292108
-0.38626
-0.426947
-0.380816
-0.287822
-0.197529
-0.131791
-0.0864659
-0.066537
-0.0600231
-0.0429229
-0.0486002
-0.0665402
-0.0724098
-0.0836125
-0.091361
-0.0884609
-0.0891967
-0.088774
-0.0578679
-0.0410059
-0.0534521
-0.0428621
-0.00894062
-0.266507
-0.217532
-0.185277
-0.168091
-0.169956
-0.203649
-0.280428
-0.373744
-0.416995
-0.375205
-0.285965
-0.197501
-0.131951
-0.0856471
-0.0646603
-0.056913
-0.0391821
-0.0453168
-0.0638264
-0.0712616
-0.0842093
-0.0937408
-0.0902444
-0.0896147
-0.0884471
-0.0577255
-0.0407055
-0.053854
-0.0433624
-0.00892343
-0.265561
-0.214928
-0.180564
-0.163476
-0.164829
-0.195636
-0.268865
-0.360648
-0.405965
-0.368558
-0.283497
-0.197195
-0.132087
-0.0849954
-0.0630429
-0.0542242
-0.0360584
-0.0424856
-0.0612687
-0.0700102
-0.0847215
-0.0960703
-0.0918981
-0.0899477
-0.0880156
-0.057524
-0.0403762
-0.0542539
-0.0438547
-0.00891088
-0.265617
-0.213301
-0.177934
-0.160384
-0.161051
-0.188581
-0.257624
-0.347196
-0.394104
-0.361097
-0.280634
-0.196853
-0.132429
-0.0846759
-0.0617502
-0.051988
-0.0335337
-0.0403402
-0.058877
-0.0686462
-0.085134
-0.098334
-0.093417
-0.0901886
-0.0874715
-0.0572727
-0.0400186
-0.0546632
-0.0443288
-0.00890283
-0.266627
-0.215233
-0.177292
-0.158741
-0.158476
-0.182455
-0.246802
-0.333615
-0.38132
-0.353072
-0.278022
-0.197202
-0.133573
-0.08508
-0.0609402
-0.0502874
-0.0316368
-0.0387609
-0.0566839
-0.0671584
-0.0854298
-0.100512
-0.0947408
-0.0903152
-0.0867964
-0.0569837
-0.0396295
-0.0551053
-0.0447788
-0.0088995
-0.267415
-0.217828
-0.178369
-0.158683
-0.157087
-0.177143
-0.235977
-0.319704
-0.36704
-0.344092
-0.275344
-0.197847
-0.135032
-0.0858479
-0.0603717
-0.0487933
-0.0301461
-0.0378307
-0.0548004
-0.0655437
-0.0856007
-0.102571
-0.0957396
-0.0903245
-0.0860211
-0.0566201
-0.0391984
-0.0555294
-0.0451922
-0.00890254
-0.270476
-0.222479
-0.182657
-0.159946
-0.1573
-0.173852
-0.226588
-0.305527
-0.353138
-0.332926
-0.268754
-0.194554
-0.133172
-0.0844953
-0.0587997
-0.046351
-0.0281936
-0.0366719
-0.0527533
-0.0637901
-0.0855993
-0.10463
-0.096918
-0.090412
-0.0853295
-0.0560332
-0.0387199
-0.0556809
-0.0454892
-0.00890474
-0.256119
-0.218633
-0.180783
-0.159706
-0.157837
-0.172944
-0.223219
-0.300074
-0.342679
-0.319962
-0.25648
-0.185432
-0.126576
-0.0797815
-0.0555185
-0.0423253
-0.0248145
-0.0325432
-0.0471607
-0.0596127
-0.085477
-0.10886
-0.100737
-0.0909828
-0.084849
-0.0550556
-0.038102
-0.0552633
-0.0456597
-0.00885505
-0.247801
-0.214791
-0.180304
-0.161802
-0.160765
-0.175018
-0.219507
-0.284159
-0.321039
-0.297854
-0.238944
-0.173722
-0.119187
-0.0755027
-0.0522905
-0.0384972
-0.0228797
-0.030925
-0.0450784
-0.0572586
-0.0855378
-0.111415
-0.103361
-0.0897656
-0.0830755
-0.053558
-0.0373226
-0.0548144
-0.0468078
-0.0087856
-0.239176
-0.210575
-0.179865
-0.163845
-0.163705
-0.177092
-0.21501
-0.268707
-0.297594
-0.275189
-0.221806
-0.162505
-0.112109
-0.0711834
-0.0490485
-0.034957
-0.0210418
-0.0296105
-0.0440622
-0.0560281
-0.0857002
-0.112848
-0.105691
-0.088097
-0.0808298
-0.0518551
-0.0364057
-0.0543067
-0.0481882
-0.00862687
-0.230459
-0.20589
-0.178842
-0.164962
-0.165311
-0.177315
-0.208564
-0.25162
-0.273404
-0.252384
-0.204677
-0.151255
-0.104972
-0.066794
-0.0457929
-0.0316032
-0.0191496
-0.0281889
-0.0426133
-0.0545181
-0.0855115
-0.114083
-0.107358
-0.0861262
-0.0780461
-0.0498611
-0.0353195
-0.0537246
-0.0494898
-0.00838115
-0.220689
-0.200202
-0.176707
-0.164615
-0.165051
-0.175313
-0.199943
-0.233415
-0.249208
-0.230011
-0.187969
-0.140216
-0.0978909
-0.062342
-0.0425009
-0.028356
-0.0171209
-0.0266671
-0.0406483
-0.0523676
-0.084778
-0.11507
-0.108377
-0.0837223
-0.0746612
-0.0475422
-0.0340355
-0.0530234
-0.0506752
-0.00806449
-0.209488
-0.193293
-0.173217
-0.162615
-0.16287
-0.171306
-0.190052
-0.215054
-0.225935
-0.208699
-0.171962
-0.129472
-0.0908938
-0.0578423
-0.0391518
-0.0251515
-0.0148658
-0.0249195
-0.0382003
-0.0496137
-0.0833302
-0.115374
-0.108533
-0.0808021
-0.0706398
-0.0448557
-0.0325203
-0.0521505
-0.0517323
-0.00767346
-0.197293
-0.185248
-0.168412
-0.159091
-0.159015
-0.165676
-0.179395
-0.197337
-0.204246
-0.188819
-0.156825
-0.119106
-0.0840281
-0.0533157
-0.035726
-0.0219214
-0.012286
-0.0227798
-0.0351668
-0.0462226
-0.0808505
-0.114632
-0.107612
-0.077313
-0.0659588
-0.0417594
-0.0307356
-0.0510395
-0.0525991
-0.00719156
-0.184559
-0.176247
-0.162446
-0.154284
-0.153816
-0.158816
-0.168467
-0.180748
-0.184444
-0.170527
-0.142646
-0.10917
-0.0773231
-0.0487802
-0.0322053
-0.0185953
-0.00928466
-0.0200463
-0.0313195
-0.0419747
-0.0769658
-0.112567
-0.1054
-0.0732053
-0.0606123
-0.0382124
-0.0286377
-0.0496041
-0.0531717
-0.00660134
-0.171602
-0.166506
-0.1555
-0.148434
-0.147596
-0.151137
-0.157585
-0.165447
-0.166555
-0.153833
-0.129448
-0.0996973
-0.0708016
-0.0442555
-0.0285769
-0.0151061
-0.00576929
-0.016449
-0.0263107
-0.0365152
-0.0713645
-0.108897
-0.101695
-0.0684377
-0.0546182
-0.0341785
-0.0261778
-0.0477339
-0.0533196
-0.00588891
-0.158694
-0.15625
-0.147756
-0.14175
-0.14061
-0.142939
-0.146921
-0.151393
-0.150455
-0.138659
-0.117209
-0.0907049
-0.064481
-0.0397625
-0.0248373
-0.0113979
-0.00165775
-0.0116523
-0.0196842
-0.0294288
-0.0638321
-0.103359
-0.0963439
-0.0629877
-0.0480223
-0.0296304
-0.0233024
-0.045294
-0.05289
-0.00504429
-0.146024
-0.14568
-0.139388
-0.134407
-0.133063
-0.134408
-0.136541
-0.138465
-0.135954
-0.124885
-0.10589
-0.0822014
-0.0583762
-0.0353246
-0.0209956
-0.00744033
0.00310539
-0.00530057
-0.0109392
-0.0203001
-0.0542947
-0.0957695
-0.0892656
-0.0568584
-0.0409022
-0.0245559
-0.0199557
-0.0421284
-0.0517084
-0.00406273
-0.133699
-0.134971
-0.130564
-0.126558
-0.125126
-0.125697
-0.126464
-0.126524
-0.122854
-0.112383
-0.0954371
-0.0741886
-0.0525005
-0.0309702
-0.0170748
-0.0032452
0.00851368
0.00289775
0.000328049
-0.00880857
-0.042922
-0.0860977
-0.0804774
-0.0500834
-0.0333673
-0.0189648
-0.016084
-0.0380672
-0.049581
-0.00294756
-0.121804
-0.124277
-0.121448
-0.11835
-0.116935
-0.116924
-0.116707
-0.115447
-0.110971
-0.101027
-0.0857956
-0.066664
-0.0468665
-0.026733
-0.013113
0.00112537
0.0144433
0.0129965
0.0141646
0.00506263
-0.030224
-0.0744939
-0.0701148
-0.0427328
-0.0255546
-0.0128977
-0.0116426
-0.03294
-0.0463038
-0.00171418
-0.110402
-0.113731
-0.112195
-0.109921
-0.108613
-0.108189
-0.107285
-0.105133
-0.100147
-0.090699
-0.0769102
-0.0596221
-0.0414888
-0.0226475
-0.00916644
0.00555888
0.0206042
0.02451
0.0297866
0.0206104
-0.017017
-0.0612583
-0.05844
-0.0349175
-0.0176183
-0.00643261
-0.00660493
-0.0265971
-0.0416808
-0.00039391
-0.0995448
-0.103445
-0.102948
-0.101405
-0.100269
-0.0995806
-0.0982217
-0.0955041
-0.0902495
-0.0812922
-0.0687288
-0.0530546
-0.0363862
-0.0187436
-0.00531047
0.00988557
0.0265611
0.0361829
0.045099
0.0360348
-0.00414145
-0.0467754
-0.0458301
-0.0267863
-0.00972108
0.000313773
-0.000972415
-0.0189459
-0.0355542
0.00096403
-0.0892697
-0.0935152
-0.0938342
-0.0929248
-0.0920039
-0.0911742
-0.0895411
-0.0865058
-0.0811701
-0.0727123
-0.0612043
-0.0469508
-0.031581
-0.0150484
-0.00163335
0.0138874
0.0318128
0.0462128
0.0574841
0.0489739
0.00790709
-0.0315441
-0.0328036
-0.0185184
-0.00203279
0.00718802
0.00520909
-0.00999224
-0.0278522
0.0022952
-0.0796072
-0.0840187
-0.084964
-0.0845935
-0.0839079
-0.0830346
-0.0812668
-0.078098
-0.0728235
-0.0648768
-0.0542954
-0.0412988
-0.0270942
-0.0115932
0.00176607
0.0173555
0.0359166
0.0529397
0.0652309
0.0578808
0.0188923
-0.0163912
-0.0200249
-0.0103212
0.00528083
0.0140041
0.0118199
0.000105846
-0.0186509
0.00353174
-0.0705777
-0.0750182
-0.0764306
-0.0765087
-0.0760622
-0.0752191
-0.0734218
-0.070253
-0.0651437
-0.0577161
-0.0479663
-0.0360869
-0.0229423
-0.00841461
0.00478196
0.0201374
0.0386237
0.056025
0.0683246
0.0626338
0.0283847
-0.00244165
-0.00817004
-0.00240763
0.0120712
0.0205506
0.0186333
0.0109797
-0.00824638
0.00462402
-0.062194
-0.0665616
-0.0683098
-0.0687547
-0.0685389
-0.0677775
-0.0660273
-0.0629523
-0.0580808
-0.0511735
-0.0421848
-0.0313052
-0.0191374
-0.00554886
0.00733311
0.0221715
0.0399113
0.0564136
0.0679984
0.0640076
0.0358325
0.00941373
0.00228571
0.00503226
0.0182152
0.0266008
0.025329
0.0219948
0.00279172
0.00555538
-0.0544624
-0.0586848
-0.0606633
-0.0614023
-0.0614006
-0.0607528
-0.0591032
-0.0561845
-0.0515985
-0.0452045
-0.0369226
-0.0269455
-0.0156877
-0.00302229
0.00938597
0.0234847
0.0399623
0.0550814
0.0655525
0.0630117
0.0409885
0.018814
0.0111443
0.0118532
0.0236256
0.0319352
0.0315212
0.0322623
0.0136778
0.00632277
-0.0473845
-0.0514139
-0.0535393
-0.0545098
-0.0547008
-0.0541833
-0.0526683
-0.0499444
-0.0456711
-0.0397757
-0.032155
-0.0230002
-0.0125964
-0.00084351
0.0109555
0.024171
0.0391028
0.0527408
0.0619814
0.0606067
0.0441112
0.0259121
0.0184233
0.0179521
0.0282711
0.0363861
0.0368193
0.0407806
0.0235113
0.00698609
-0.0409593
-0.044768
-0.046976
-0.0481245
-0.0484847
-0.0481028
-0.0467409
-0.0442313
-0.0402817
-0.0348634
-0.0278618
-0.0194608
-0.00986091
0.000998329
0.0120922
0.0243534
0.0376745
0.0498816
0.0579859
0.0575428
0.0456727
0.0310771
0.0242583
0.0232563
0.0321607
0.0398755
0.0409461
0.0467153
0.0314175
0.00774686
-0.0351844
-0.038761
-0.0410041
-0.0422857
-0.0427911
-0.0425419
-0.0413396
-0.0390495
-0.0354212
-0.0304521
-0.024027
-0.0163176
-0.00747201
0.00252784
0.0128672
0.0241571
0.0359636
0.0468474
0.0540106
0.0543164
0.0461228
0.0347231
0.0288399
0.0277346
0.0353156
0.0424067
0.043773
0.0492976
0.0368235
0.00882562
-0.0300587
-0.0334045
-0.0356485
-0.0370275
-0.0376555
-0.0375302
-0.0364842
-0.0344075
-0.031087
-0.0265336
-0.0206393
-0.0135606
-0.00541443
0.00377676
0.0133581
0.023703
0.0341781
0.0438764
0.0503099
0.0512289
0.0458427
0.0372188
0.0323642
0.031402