/*--------------------------------*- C++ -*----------------------------------*\
  =========                 |
  \\      /  F ield         | OpenFOAM: The Open Source CFD Toolbox
   \\    /   O peration     | Website:  https://openfoam.org
    \\  /    A nd           | Version:  7
     \\/     M anipulation  |
\*---------------------------------------------------------------------------*/
FoamFile
{
    version     2.0;
    format      ascii;
    class       volScalarField;
    location    "50";
    object      p;
}
// * * * * * * * * * * * * * * * * * * * * * * * * * * * * * * * * * * * * * //

dimensions      [0 2 -2 0 0 0 0];

internalField   nonuniform List<scalar> 
2125
(
-0.297988
-0.303429
-0.299528
-0.309498
-0.304763
-0.316237
-0.31057
-0.30481
-0.32368
-0.316986
-0.310529
-0.303418
-0.331845
-0.324038
-0.316855
-0.308995
-0.300682
-0.291714
-0.340732
-0.331739
-0.323804
-0.315116
-0.305747
-0.29537
-0.283292
-0.350321
-0.340086
-0.331368
-0.32175
-0.311131
-0.299054
-0.284893
-0.268853
-0.360566
-0.349051
-0.339511
-0.328832
-0.316722
-0.302614
-0.286114
-0.267824
-0.248544
-0.230358
-0.371391
-0.358579
-0.348164
-0.33626
-0.322362
-0.305879
-0.286836
-0.266267
-0.245328
-0.225813
-0.382686
-0.368582
-0.357221
-0.343889
-0.327854
-0.308672
-0.286945
-0.264117
-0.241588
-0.220803
-0.394305
-0.37893
-0.366533
-0.351526
-0.332975
-0.31082
-0.286337
-0.261309
-0.237274
-0.21528
-0.406062
-0.389455
-0.375907
-0.35893
-0.337487
-0.312156
-0.284909
-0.257777
-0.232331
-0.209193
-0.417732
-0.399947
-0.385109
-0.365827
-0.341152
-0.312523
-0.282566
-0.253453
-0.226702
-0.202492
-0.42905
-0.410155
-0.39386
-0.37192
-0.343737
-0.311774
-0.279213
-0.248267
-0.220327
-0.195131
-0.439721
-0.419793
-0.401847
-0.376901
-0.345024
-0.309771
-0.274762
-0.242152
-0.213148
-0.187067
-0.449419
-0.428543
-0.408732
-0.380471
-0.34481
-0.306388
-0.269125
-0.235038
-0.205105
-0.178263
-0.457799
-0.436068
-0.414162
-0.382343
-0.34291
-0.301512
-0.262224
-0.226861
-0.196148
-0.168683
-0.464506
-0.442013
-0.417791
-0.382257
-0.339162
-0.295039
-0.253982
-0.217561
-0.186231
-0.158302
-0.469184
-0.446025
-0.419285
-0.379979
-0.333426
-0.286879
-0.244334
-0.207082
-0.175317
-0.147107
-0.471487
-0.447754
-0.418342
-0.37531
-0.325586
-0.276956
-0.233218
-0.195375
-0.163371
-0.135082
-0.471092
-0.446874
-0.414697
-0.368088
-0.31555
-0.265212
-0.22059
-0.182395
-0.150349
-0.122157
-0.467703
-0.443087
-0.408129
-0.358189
-0.303254
-0.251608
-0.206421
-0.168121
-0.136203
-0.108157
-0.461064
-0.436137
-0.398469
-0.34553
-0.288659
-0.236123
-0.190699
-0.152549
-0.120923
-0.0928883
-0.450965
-0.425822
-0.385593
-0.330064
-0.271753
-0.218749
-0.173412
-0.135685
-0.10458
-0.0764934
-0.437247
-0.411994
-0.369428
-0.311781
-0.252544
-0.199486
-0.154555
-0.117563
-0.0871787
-0.0596454
-0.419808
-0.394564
-0.349949
-0.29071
-0.231062
-0.178346
-0.134192
-0.0983237
-0.0686341
-0.0422254
-0.398601
-0.373499
-0.327181
-0.26692
-0.207371
-0.155399
-0.112539
-0.0778253
-0.0491071
-0.0241017
-0.373637
-0.348823
-0.3012
-0.240517
-0.181578
-0.130863
-0.0894396
-0.056184
-0.0286931
-0.00527745
-0.344983
-0.320632
-0.272167
-0.211591
-0.153779
-0.104718
-0.065043
-0.0334887
-0.00746721
0.014168
-0.312762
-0.289102
-0.240344
-0.180144
-0.124082
-0.0770688
-0.0394559
-0.00983501
0.0144948
0.0341294
-0.277155
-0.254465
-0.205854
-0.146344
-0.0926219
-0.0480546
-0.0127991
0.0146779
0.0371157
0.0545222
-0.238395
-0.216953
-0.168146
-0.110974
-0.0596593
-0.0178312
0.0147986
0.0399478
0.0603145
0.0752549
-0.196703
-0.176716
-0.128166
-0.0738321
-0.0253893
0.0134299
0.0432082
0.0658798
0.083954
0.0959894
-0.152329
-0.133707
-0.0867005
-0.0351763
0.0100036
0.0455573
0.0723176
0.0923962
0.107762
0.115914
-0.105696
-0.0886099
-0.0437434
0.00469945
0.0463097
0.0783818
0.102023
0.119401
0.131415
0.134471
-0.0572287
-0.0417659
0.000504694
0.0455095
0.0832961
0.11172
0.132167
0.146665
0.154826
0.153394
-0.00724754
0.00638298
0.0457329
0.0869684
0.12072
0.145367
0.162503
0.173789
0.177961
0.177497
0.0438273
0.0554275
0.0915891
0.128783
0.158334
0.179099
0.192768
0.200637
0.20167
0.201754
0.0955569
0.104964
0.137708
0.170652
0.195882
0.212688
0.222789
0.227276
0.225639
0.224786
0.147499
0.154582
0.183724
0.212269
0.233106
0.245907
0.252394
0.253582
0.249441
0.246907
0.199207
0.203872
0.229272
0.253331
0.269745
0.278533
0.281413
0.27938
0.272742
0.268108
0.250239
0.252424
0.273993
0.293533
0.305544
0.310352
0.309667
0.304491
0.295354
0.288419
0.300158
0.299832
0.317535
0.332579
0.34025
0.34115
0.336977
0.328742
0.317124
0.3078
0.348536
0.345704
0.359558
0.370182
0.373621
0.370721
0.363165
0.351973
0.337927
0.326191
0.39496
0.389659
0.399733
0.406064
0.405422
0.398865
0.388061
0.374035
0.357642
0.343519
0.439034
0.431335
0.437748
0.439962
0.435428
0.425392
0.411501
0.39479
0.376157
0.359708
0.480383
0.470389
0.473308
0.471626
0.463428
0.450122
0.433333
0.414105
0.393364
0.374683
0.518659
0.506501
0.506139
0.500823
0.489224
0.472887
0.453414
0.43186
0.40916
0.388373
0.553536
0.539377
0.535987
0.52734
0.512634
0.493531
0.471611
0.447941
0.423453
0.400711
0.584721
0.568749
0.562623
0.550983
0.533492
0.511914
0.487805
0.462246
0.436155
0.411636
0.611953
0.594378
0.585844
0.571578
0.551652
0.52791
0.501889
0.474684
0.447189
0.421098
0.635002
0.616059
0.605472
0.588975
0.566986
0.541411
0.513771
0.485173
0.45649
0.429051
0.653677
0.633617
0.621356
0.603047
0.579385
0.552323
0.523373
0.493647
0.463999
0.435456
0.66782
0.646909
0.633376
0.613692
0.588761
0.560574
0.53063
0.500052
0.469671
0.440286
0.677315
0.655831
0.641441
0.620831
0.595049
0.566106
0.535494
0.504344
0.473472
0.443518
0.624414
0.598204
0.568881
0.537935
0.506497
0.475378
0.445137
-0.15974
-0.168556
-0.176771
-0.184408
-0.191492
-0.198047
-0.204102
-0.209682
-0.146825
-0.155355
-0.163387
-0.170944
-0.178048
-0.18472
-0.190983
-0.196859
-0.134944
-0.143122
-0.150895
-0.158288
-0.165321
-0.17202
-0.178407
-0.184511
-0.124028
-0.13187
-0.139391
-0.146612
-0.153552
-0.160234
-0.166679
-0.172914
-0.114086
-0.121594
-0.128846
-0.13586
-0.142651
-0.149236
-0.155631
-0.16185
-0.105028
-0.112191
-0.119149
-0.125913
-0.132496
-0.138909
-0.14516
-0.151257
-0.0967491
-0.103561
-0.110207
-0.116695
-0.123034
-0.129232
-0.135296
-0.141234
-0.0891788
-0.0956415
-0.101969
-0.108168
-0.114246
-0.12021
-0.126065
-0.131822
-0.0822663
-0.0883839
-0.0943922
-0.100297
-0.106103
-0.111815
-0.11744
-0.122982
-0.0759635
-0.0817423
-0.0874328
-0.093039
-0.0985645
-0.104013
-0.109387
-0.114692
-0.0702117
-0.0756625
-0.0810413
-0.0863512
-0.0915945
-0.096774
-0.101892
-0.106953
-0.064964
-0.0700994
-0.075176
-0.0801959
-0.085161
-0.0900733
-0.094935
-0.0997485
-0.0601855
-0.0650182
-0.0698033
-0.0745416
-0.0792343
-0.0838831
-0.0884894
-0.0930544
-0.0558307
-0.0603766
-0.0648834
-0.0693512
-0.0737809
-0.0781734
-0.0825295
-0.0868502
-0.0518593
-0.0561364
-0.0603793
-0.0645897
-0.0687679
-0.0729143
-0.0770291
-0.0811128
-0.0482585
-0.0522804
-0.0562729
-0.0602378
-0.0641755
-0.0680856
-0.0719679
-0.0758226
-0.0796498
-0.045002
-0.048782
-0.0525377
-0.05627
-0.0599788
-0.0636635
-0.0673237
-0.0709592
-0.0745697
-0.042048
-0.0456031
-0.049138
-0.0526526
-0.0561466
-0.0596193
-0.06307
-0.0664981
-0.0699032
-0.0393818
-0.042728
-0.0460571
-0.0493685
-0.0526615
-0.0559354
-0.0591891
-0.062422
-0.0656334
-0.0369808
-0.0401339
-0.0432723
-0.0463951
-0.0495014
-0.0525901
-0.0556604
-0.0587112
-0.0617417
-0.0348267
-0.0378025
-0.0407653
-0.0437143
-0.0466483
-0.0495661
-0.0524666
-0.0553488
-0.0582117
-0.0329044
-0.0357183
-0.0385207
-0.0413107
-0.0440868
-0.0468479
-0.0495928
-0.0523203
-0.0550293
-0.0312013
-0.0338685
-0.0365255
-0.0391711
-0.041804
-0.0444227
-0.0470261
-0.049613
-0.0521821
-0.0297072
-0.0322429
-0.0347696
-0.0372857
-0.0397899
-0.0422808
-0.0447571
-0.0472177
-0.0496613
-0.0284127
-0.0308329
-0.0332444
-0.0356459
-0.0380363
-0.0404141
-0.0427781
-0.0451271
-0.0474599
-0.0273166
-0.0296368
-0.0319484
-0.0342506
-0.0365422
-0.038822
-0.0410887
-0.0433412
-0.0455782
-0.026419
-0.0286534
-0.0308801
-0.0330978
-0.0353057
-0.0375025
-0.039687
-0.0418582
-0.0440148
-0.0257323
-0.0278975
-0.0300553
-0.0322047
-0.0343448
-0.0364745
-0.0385926
-0.0406981
-0.04279
-0.0252376
-0.0273506
-0.029457
-0.0315559
-0.0336464
-0.0357273
-0.0377978
-0.0398568
-0.0419035
-0.0250134
-0.0270891
-0.0291578
-0.0312189
-0.0332717
-0.0353156
-0.0373499
-0.039374
-0.0413871
0.145636
0.126599
0.108612
0.0909261
0.0723917
0.053675
0.0353653
0.0175083
8.2489e-05
-0.0168442
-0.0332089
-0.0489853
-0.0641743
-0.0786782
-0.0928114
-0.105935
-0.118083
-0.129473
-0.140206
-0.150295
0.136981
0.118185
0.0992566
0.0824527
0.0655273
0.048271
0.0314272
0.0151647
-0.000637294
-0.0159924
-0.0308443
-0.0451348
-0.0587867
-0.071645
-0.0842678
-0.0962449
-0.107486
-0.118112
-0.128207
-0.137779
0.127115
0.109191
0.0903424
0.074498
0.0593679
0.0438393
0.0285115
0.0137671
-0.000487993
-0.0143361
-0.0277328
-0.0406065
-0.0529096
-0.0646571
-0.0762315
-0.0873448
-0.0978529
-0.107812
-0.117298
-0.12634
0.11656
0.0999133
0.0819793
0.0672322
0.0537349
0.0398858
0.0260069
0.0126185
-0.000269935
-0.0127825
-0.0249289
-0.0366718
-0.0479887
-0.0588637
-0.0691157
-0.0792586
-0.0890579
-0.0983956
-0.107309
-0.115846
0.106213
0.0910833
0.0744625
0.0608466
0.0487424
0.0364002
0.0238736
0.0117081
2.24283e-05
-0.011302
-0.0223156
-0.0329881
-0.0432799
-0.0531672
-0.062641
-0.0720245
-0.0811395
-0.0898748
-0.0982481
-0.106309
0.0965379
0.0829175
0.0677418
0.0552336
0.0443115
0.0332847
0.0220037
0.0109596
0.000346666
-0.00992038
-0.0199162
-0.0296333
-0.0390408
-0.0481307
-0.0569072
-0.0656015
-0.0740541
-0.082195
-0.0900472
-0.0976507
0.0876495
0.0754124
0.0616933
0.0502679
0.0403741
0.0304889
0.0203389
0.0103246
0.000673325
-0.00865915
-0.017753
-0.0266185
-0.0352279
-0.043568
-0.0516611
-0.0597661
-0.0676347
-0.0752309
-0.0825954
-0.0897629
0.079544
0.0685454
0.0562288
0.045853
0.0368744
0.0279794
0.0188408
0.00976503
0.000978718
-0.00752799
-0.0158303
-0.0239553
-0.0318946
-0.039639
-0.0471873
-0.0545194
-0.0617748
-0.0688854
-0.075815
-0.0825737
0.0721928
0.062304
0.0512957
0.0419153
0.0337608
0.0257274
0.0174835
0.00925571
0.00124992
-0.00652001
-0.0141155
-0.0215688
-0.0288766
-0.0360247
-0.0429998
-0.049762
-0.0564969
-0.063151
-0.0696649
-0.0760314
0.0655579
0.0566669
0.0468516
0.0383933
0.0309822
0.0237028
0.0162471
0.00878009
0.00147935
-0.00562793
-0.0125875
-0.0194299
-0.0261552
-0.0327511
-0.0392085
-0.0455167
-0.0517936
-0.0580045
-0.0641061
-0.0700889
0.0595907
0.0515962
0.0428521
0.0352325
0.0284908
0.0218752
0.0151137
0.00832632
0.001661
-0.00484958
-0.011238
-0.017531
-0.0237319
-0.0298321
-0.0358261
-0.0417105
-0.047565
-0.0533604
-0.0590684
-0.0646832
0.0542349
0.0470437
0.0392516
0.0323857
0.0262451
0.020217
0.0140683
0.00788636
0.00179224
-0.00418104
-0.010056
-0.0158549
-0.0215822
-0.0272319
-0.0327998
-0.0382862
-0.0437513
-0.0491625
-0.0545011
-0.0597664
0.0494327
0.0429584
0.0360064
0.0298126
0.0242108
0.0187043
0.0130977
0.00745481
0.00187349
-0.00361538
-0.00902684
-0.0143787
-0.019676
-0.0249156
-0.0300957
-0.0352174
-0.0403271
-0.0453823
-0.0503723
-0.0553044
0.045128
0.0392915
0.0330773
0.0274795
0.0223596
0.0173172
0.0121907
0.00702725
0.00190495
-0.00314847
-0.00814226
-0.0130891
-0.0179915
-0.022844
-0.0276443
-0.0324026
-0.0372074
-0.0419492
-0.0466225
-0.0512464
0.0412695
0.0359986
0.0304299
0.0253588
0.0206695
0.0160406
0.0113404
0.00660322
0.0018911
-0.00277247
-0.00739395
-0.0119847
-0.0165495
-0.021089
-0.0255993
-0.030068
-0.0344293
-0.0388091
-0.0431913
-0.0475448
0.0378107
0.0330402
0.028035
0.0234284
0.0191238
0.0148642
0.0105434
0.00618672
0.00184327
-0.00246688
-0.0067471
-0.0110048
-0.0152421
-0.0194561
-0.0236412
-0.0277914
-0.0318972
-0.0360081
-0.0401173
-0.0442042
0.0347108
0.0303821
0.0258681
0.0216706
0.0177092
0.0137797
0.00979721
0.00578052
0.00176831
-0.00222242
-0.00619306
-0.0101487
-0.0140907
-0.0180173
-0.0219248
-0.0258095
-0.0296641
-0.0335176
-0.0373658
-0.0411962
0.0319339
0.0279944
0.0239079
0.0200701
0.0164146
0.0127802
0.00909917
0.00538575
0.00167027
-0.00203312
-0.00572454
-0.00940737
-0.0130824
-0.0167477
-0.0204004
-0.0240372
-0.0276541
-0.0312689
-0.0348778
-0.0384724
0.0294488
0.0258513
0.0221365
0.0186145
0.0152311
0.0118597
0.00844718
0.00500395
0.0015538
-0.00189152
-0.00533134
-0.00876767
-0.0122007
-0.0156287
-0.019049
-0.022459
-0.0258558
-0.0292508
-0.0326405
-0.0360187
0.0272286
0.0239309
0.0205385
0.0172932
0.0141512
0.011014
0.00783991
0.00463692
0.00142354
-0.00179057
-0.0050042
-0.00821835
-0.0114328
-0.0146457
-0.0178548
-0.0210577
-0.024252
-0.0274453
-0.0306341
-0.0338136
0.0252506
0.0222146
0.0191014
0.0160977
0.0131691
0.0102393
0.00727658
0.00428662
0.00128385
-0.00172378
-0.00473472
-0.00774924
-0.0107667
-0.0137854
-0.0168031
-0.0198176
-0.0228269
-0.0258359
-0.0288413
-0.0318391
0.0234959
0.0206871
0.0178145
0.015021
0.0122799
0.00953328
0.00675682
0.0039549
0.00113866
-0.00168541
-0.00451558
-0.00735153
-0.0101924
-0.0130364
-0.0158815
-0.0187257
-0.0215671
-0.0244089
-0.0272478
-0.0300804
0.0219488
0.0193359
0.0166693
0.0140575
0.01148
0.00889378
0.0062805
0.0036435
0.000991359
-0.00167061
-0.00434059
-0.0070179
-0.00970143
-0.0123895
-0.0150801
-0.0177714
-0.0204617
-0.0231532
-0.025842
-0.0285253
0.0205973
0.0181511
0.0156594
0.0132029
0.0107667
0.00831941
0.0058476
0.00335384
0.000844723
-0.00167542
-0.00420479
-0.00674238
-0.00928695
-0.0118368
-0.0143901
-0.0169451
-0.0195003
-0.0220585
-0.0246137
-0.0271637
0.0194323
0.0171256
0.01478
0.0124542
0.010138
0.00780913
0.00545807
0.00308684
0.000700477
-0.00169751
-0.00410536
-0.00652193
-0.0089459
-0.0113756
-0.0138094
-0.0162453
-0.0186815
-0.0211174
-0.0235527
-0.0259853
0.0184483
0.0162554
0.0140286
0.0118102
0.00959339
0.00736299
0.00511264
0.00284394
0.0005607
-0.00173424
-0.00403925
-0.00635311
-0.00867453
-0.011002
-0.0133337
-0.0156678
-0.0180014
-0.0203287
-0.0226586
-0.0249895
0.0176437
0.0155392
0.0134053
0.0112714
0.00913364
0.00698215
0.00481296
0.0026274
0.000428395
-0.00178175
-0.00400148
-0.00622954
-0.00846459
-0.0107052
-0.0129497
-0.0151964
-0.0174435
-0.019688
-0.0219335
-0.0241782
0.0170207
0.0149792
0.0129123
0.0108399
0.00876031
0.00666738
0.00455888
0.00243598
0.000300914
-0.00184442
-0.00399861
-0.00616041
-0.00832854
-0.0105016
-0.0126782
-0.0148566
-0.017035
-0.0192108
-0.0213866
-0.0235613
0.0165871
0.0145822
0.0125559
0.010522
0.00847993
0.00642603
0.00435907
0.00228001
0.000190552
-0.00190777
-0.00401373
-0.0061262
-0.00824403
-0.010366
-0.012491
-0.0146177
-0.0167449
-0.0188712
-0.0209965
-0.0231191
0.0163591
0.0143625
0.0123451
0.0103181
0.00828317
0.00623856
0.00418369
0.0021194
4.71761e-05
-0.0020316
-0.00411571
-0.00620407
-0.00829561
-0.0103892
-0.0124836
-0.0145777
-0.01667
-0.0187588
-0.0208462
-0.0229318
0.159904
0.162837
0.166764
0.173562
0.180714
0.190141
0.199176
0.209635
0.218183
0.226731
0.230506
0.232215
0.224179
0.211207
0.177415
0.159074
0.161883
0.165604
0.172023
0.178707
0.187415
0.195564
0.204784
0.211848
0.218418
0.220029
0.218798
0.208292
0.191344
0.161316
0.158157
0.160825
0.164307
0.170301
0.176453
0.184374
0.191558
0.199478
0.205024
0.209664
0.209306
0.205629
0.193685
0.175427
0.149091
0.157147
0.159659
0.162882
0.168416
0.174003
0.181085
0.187275
0.193846
0.197904
0.200633
0.198528
0.192731
0.179966
0.161193
0.136799
0.15604
0.15838
0.161332
0.166371
0.171372
0.177575
0.182763
0.187961
0.190595
0.19148
0.187853
0.180262
0.166923
0.147918
0.124669
0.154829
0.156982
0.15965
0.164164
0.168557
0.173846
0.178032
0.181854
0.183137
0.182294
0.177344
0.168303
0.154518
0.135585
0.113381
0.153511
0.15546
0.157831
0.16179
0.165559
0.169905
0.173095
0.175558
0.175566
0.173144
0.167046
0.156889
0.142796
0.124234
0.103142
0.152081
0.153809
0.155873
0.159249
0.162379
0.165764
0.167971
0.169113
0.167927
0.164099
0.157012
0.14605
0.131809
0.113826
0.0938888
0.150535
0.152026
0.153773
0.156543
0.159022
0.161442
0.162683
0.162568
0.160269
0.155226
0.147299
0.135805
0.121572
0.104288
0.0855104
0.14887
0.150107
0.151529
0.153678
0.155498
0.156961
0.157259
0.15597
0.152644
0.146578
0.13796
0.126161
0.112078
0.0955547
0.0779229
0.147085
0.148054
0.149143
0.15066
0.151817
0.152346
0.151729
0.149365
0.145103
0.1382
0.129039
0.117115
0.103303
0.0875731
0.071061
0.145177
0.145867
0.146616
0.147503
0.147993
0.147625
0.146128
0.142799
0.137697
0.130128
0.120568
0.10866
0.0952174
0.080296
0.0648651
0.143149
0.143552
0.143952
0.144218
0.144043
0.142828
0.140493
0.136312
0.130474
0.122392
0.112568
0.100788
0.0877884
0.0736761
0.0592777
0.141002
0.141115
0.141159
0.140824
0.139989
0.137985
0.134864
0.129942
0.123477
0.115016
0.10505
0.0934847
0.0809799
0.0676653
0.0542435
0.138742
0.138568
0.138248
0.137337
0.135857
0.133128
0.129283
0.123726
0.116745
0.108021
0.0980197
0.0867348
0.0747549
0.0622161
0.049711
0.136375
0.135923
0.135233
0.133779
0.131676
0.128287
0.123788
0.117698
0.110307
0.101421
0.091473
0.080518
0.0690772
0.0572835
0.0456329
0.133913
0.133197
0.132134
0.130173
0.127478
0.123497
0.11842
0.11189
0.10419
0.095227
0.0854032
0.0748119
0.0639113
0.0528253
0.0419665
0.131369
0.130408
0.128975
0.126544
0.123299
0.118791
0.113216
0.106331
0.0984132
0.0894456
0.0798001
0.069593
0.0592233
0.0488033
0.0386737
0.128763
0.127578
0.125783
0.12292
0.119172
0.114203
0.108209
0.101048
0.0929919
0.0840793
0.0746518
0.0648375
0.0549814
0.0451828
0.035721
0.126117
0.124733
0.122591
0.119334
0.115136
0.109769
0.103431
0.0960669
0.0879388
0.0791279
0.0699453
0.0605228
0.0511565
0.0419327
0.0330791
0.123461
0.1219
0.119434
0.11582
0.111229
0.105525
0.0989142
0.0914084
0.0832638
0.0745896
0.0656676
0.0566275
0.0477225
0.0390261
0.0307228
0.120827
0.119114
0.116352
0.112418
0.107488
0.101506
0.0946861
0.0870929
0.0789757
0.0704622
0.0618064
0.0531327
0.0446564
0.0364397
0.0286309
0.118255
0.116411
0.113386
0.10917
0.103954
0.0977486
0.0907755
0.0831396
0.0750829
0.0667439
0.0583513
0.0500222
0.0419389
0.0341541
0.026786
0.115789
0.113834
0.110581
0.106123
0.10067
0.0942899
0.0872111
0.0795679
0.0715943
0.0634346
0.0552945
0.0472832
0.0395549
0.0321541
0.0251743
0.113479
0.111432
0.107988
0.103325
0.0976802
0.0911688
0.0840229
0.0763986
0.0685211
0.0605371
0.052632
0.0449072
0.0374935
0.0304284
0.0237856
0.111382
0.109259
0.105658
0.100829
0.0950337
0.0884268
0.0812438
0.0736554
0.0658781
0.0580583
0.0503645
0.0428908
0.0357488
0.0289706
0.0226138
0.109558
0.107375
0.103651
0.0986913
0.0927826
0.0861098
0.0789112
0.0713668
0.063685
0.0560108
0.0484987
0.0412365
0.0343206
0.0277793
0.0216573
0.108074
0.105846
0.102031
0.0969743
0.0909844
0.0842693
0.0770687
0.0695684
0.0619696
0.0544153
0.0470491
0.0399544
0.033216
0.0268591
0.0209193
0.107006
0.104747
0.100869
0.0957471
0.0897043
0.0829648
0.0757688
0.0683051
0.0607691
0.0533021
0.0460402
0.039064
0.0324502
0.0262225
0.0204095
0.10643
0.104156
0.100244
0.0950885
0.0890183
0.0822679
0.0750762
0.0676346
0.0601336
0.0527146
0.0455087
0.0385957
0.032048
0.0258892
0.0201446
0.165852
0.169322
0.173737
0.182153
0.190941
0.203512
0.216691
0.23356
0.251464
0.272955
0.295863
0.322242
0.35006
0.381144
0.413005
0.165822
0.169289
0.173703
0.182111
0.190892
0.203448
0.216606
0.233446
0.2513
0.272731
0.295535
0.321792
0.349417
0.380274
0.41179
0.165763
0.169223
0.173635
0.182027
0.190793
0.203319
0.216435
0.233217
0.250972
0.272283
0.294882
0.320894
0.348135
0.378536
0.409363
0.165676
0.169125
0.173534
0.181901
0.190646
0.203126
0.21618
0.232876
0.250482
0.271613
0.293905
0.319551
0.346215
0.375936
0.40573
0.165559
0.168994
0.1734
0.181735
0.19045
0.202869
0.215841
0.232421
0.249831
0.270723
0.292607
0.317767
0.343664
0.372482
0.400898
0.165413
0.168832
0.173234
0.181516
0.190204
0.20255
0.215421
0.231855
0.249022
0.269615
0.290992
0.315549
0.34049
0.368184
0.394882
0.165238
0.168639
0.173036
0.181284
0.189909
0.202169
0.214919
0.231179
0.248057
0.268293
0.289066
0.312905
0.3367
0.363056
0.387698
0.165035
0.168414
0.172807
0.181003
0.189566
0.201727
0.214338
0.230395
0.246941
0.26676
0.286834
0.309841
0.332306
0.357114
0.379367
0.164804
0.16816
0.172544
0.180671
0.189179
0.201226
0.21368
0.229504
0.245676
0.265021
0.284303
0.306368
0.327319
0.350377
0.369917
0.164546
0.167877
0.172247
0.180305
0.188749
0.200666
0.212947
0.228509
0.244268
0.263078
0.281481
0.302494
0.321752
0.342866
0.359379
0.16426
0.167566
0.171906
0.1799
0.188275
0.20005
0.212141
0.227413
0.24272
0.260937
0.278376
0.298231
0.315621
0.334607
0.347791
0.163947
0.167229
0.171575
0.179456
0.187759
0.199379
0.211265
0.226217
0.241037
0.258603
0.274998
0.293587
0.308942
0.325626
0.335193
0.163609
0.166864
0.171187
0.178976
0.187202
0.198655
0.210319
0.224926
0.239224
0.25608
0.271356
0.288573
0.301732
0.315953
0.32163
0.163244
0.166471
0.170764
0.178465
0.186606
0.19788
0.209308
0.223542
0.237286
0.253374
0.267462
0.2832
0.294014
0.305618
0.307148
0.162855
0.166048
0.170316
0.177923
0.185971
0.197056
0.208234
0.222069
0.235228
0.25049
0.263325
0.277477
0.285809
0.294655
0.29179
0.162442
0.165594
0.169839
0.177349
0.185298
0.196184
0.207097
0.22051
0.233052
0.247434
0.258957
0.271412
0.277146
0.283093
0.275595
0.162006
0.16515
0.169334
0.176745
0.184588
0.195264
0.205898
0.218863
0.230759
0.244205
0.254363
0.265014
0.268055
0.270962
0.258595
0.161547
0.164652
0.168808
0.17612
0.183854
0.194315
0.204658
0.217157
0.228378
0.240839
0.249577
0.258315
0.258585
0.258292
0.240817
0.161065
0.164139
0.168264
0.175482
0.18311
0.193363
0.203414
0.215443
0.225965
0.237399
0.244645
0.251345
0.248736
0.245037
0.222145
0.160558
0.163589
0.16766
0.174751
0.182235
0.192229
0.201931
0.213418
0.223168
0.233478
0.239165
0.243697
0.238284
0.230984
0.202179
)
;

boundaryField
{
    inlet
    {
        type            zeroGradient;
    }
    outlet
    {
        type            fixedValue;
        value           nonuniform 0();
    }
    cylinder
    {
        type            zeroGradient;
    }
    top
    {
        type            symmetryPlane;
    }
    bottom
    {
        type            symmetryPlane;
    }
    defaultFaces
    {
        type            empty;
    }
    procBoundary2to0
    {
        type            processor;
        value           nonuniform List<scalar> 
26
(
0.682083
0.660309
0.645488
0.645488
0.624414
0.598203
0.568881
0.537935
0.506497
0.475378
0.445137
0.165852
0.169322
0.173737
0.182153
0.190941
0.203512
0.216691
0.23356
0.251464
0.272955
0.295863
0.322241
0.35006
0.381144
0.413004
)
;
    }
    procBoundary2to3
    {
        type            processor;
        value           nonuniform List<scalar> 
50
(
-0.293122
-0.294823
-0.294823
-0.295066
-0.299669
-0.299669
-0.298394
-0.298394
-0.29601
-0.29601
-0.288213
-0.281435
-0.281435
-0.269422
-0.269422
-0.251279
-0.251279
-0.23449
-0.214813
-0.214813
-0.202377
-0.190368
-0.178966
-0.167904
-0.157205
-0.147054
-0.137486
-0.128444
-0.119928
-0.111958
-0.104515
-0.0975793
-0.0911362
-0.0851659
-0.0851659
-0.0834498
-0.0781552
-0.0732849
-0.0688228
-0.0647511
-0.0610544
-0.0577188
-0.0547325
-0.0520869
-0.0497754
-0.0477987
-0.0461558
-0.0448674
-0.0439369
-0.0433886
)
;
    }
}


// ************************************************************************* //
