/*--------------------------------*- C++ -*----------------------------------*\
  =========                 |
  \\      /  F ield         | OpenFOAM: The Open Source CFD Toolbox
   \\    /   O peration     | Website:  https://openfoam.org
    \\  /    A nd           | Version:  7
     \\/     M anipulation  |
\*---------------------------------------------------------------------------*/
FoamFile
{
    version     2.0;
    format      ascii;
    class       surfaceScalarField;
    location    "50";
    object      phi;
}
// * * * * * * * * * * * * * * * * * * * * * * * * * * * * * * * * * * * * * //

dimensions      [0 3 -1 0 0 0 0];

internalField   nonuniform List<scalar> 
4137
(
0.000759401
5.58547e-05
0.000703547
0.000812863
7.71329e-05
0.000626414
0.000414992
0.000102464
0.000523949
0.000589129
-7.16726e-05
-0.0024454
0.000131955
0.000391994
0.000717705
-0.000657423
0.00199702
-0.00372471
-0.00917123
0.000165577
0.000226417
0.000859749
-0.00135159
0.00233293
-0.00519789
0.00481957
-0.0116579
0.00839398
-0.0207777
-0.0319194
0.000203161
2.32554e-05
0.00101356
-0.002162
0.00268435
-0.00686868
0.0054128
-0.0143863
0.00915977
-0.0245247
0.0135184
-0.0362781
-0.0481469
0.000244389
-0.000221134
0.00117671
-0.00309431
0.00304228
-0.00873425
0.00597828
-0.0173223
0.00981325
-0.0283597
0.0140232
-0.040488
0.0180103
-0.052134
-0.0623377
0.000288792
-0.000509926
0.00134601
-0.00415153
0.00339598
-0.0107842
0.00649263
-0.020419
0.0103272
-0.0321942
0.0143015
-0.0444623
0.0178752
-0.0557077
0.0207927
-0.0652551
0.0230914
-0.0732173
-0.0802655
0.000335721
-0.000845646
0.00151758
-0.00533339
0.00373356
-0.0130002
0.0069343
-0.0236197
0.0106843
-0.0359442
0.0143599
-0.0481379
0.0175089
-0.0588568
0.0199909
-0.0677371
0.0219167
-0.0751431
-0.0818236
0.0234748
0.000384354
-0.00123
0.00168695
-0.00663599
0.00404274
-0.015356
0.00728564
-0.0268626
0.0108781
-0.0395366
0.014215
-0.0514747
0.0169473
-0.0615892
0.0190345
-0.0698243
0.0206373
-0.0767459
-0.083132
0.0219457
0.000433705
-0.00166371
0.00184921
-0.00805149
0.00431182
-0.0178186
0.0075344
-0.0300852
0.010911
-0.0429132
0.0138895
-0.0544532
0.0162259
-0.0639256
0.0179606
-0.0715591
0.0192834
-0.0780687
-0.084223
0.0203744
0.000482643
-0.00214635
0.00199924
-0.00956809
0.00453063
-0.02035
0.00767429
-0.0332289
0.0107925
-0.0460315
0.0134088
-0.0570695
0.0153772
-0.065894
0.0167998
-0.0729817
0.0178785
-0.0791473
-0.0851203
0.0187758
0.000529936
-0.00267628
0.00213206
-0.0111702
0.00469132
-0.0229093
0.00770464
-0.0362422
0.0105369
-0.0488637
0.0127986
-0.0593312
0.0144301
-0.0675255
0.0155769
-0.0741285
0.0164399
-0.0800103
-0.0858412
0.0171608
0.000574301
-0.00325058
0.00224308
-0.012839
0.00478879
-0.025455
0.00762948
-0.0390829
0.0101609
-0.0513951
0.0120833
-0.0612536
0.0134092
-0.0688514
0.0143115
-0.0750308
0.014981
-0.0806799
-0.0863974
0.0155372
0.000614459
-0.00386504
0.00232846
-0.014553
0.00482089
-0.0279474
0.00745635
-0.0417183
0.00968218
-0.0536209
0.0112851
-0.0628565
0.0123349
-0.0699012
0.0130187
-0.0757146
0.0135115
-0.0811727
-0.0867973
0.0139114
0.000649203
-0.00451425
0.00238525
-0.016289
0.00478814
-0.0303503
0.00719505
-0.0441252
0.00911823
-0.0555441
0.0104235
-0.0641617
0.011224
-0.0707017
0.0117105
-0.0762011
0.0120389
-0.0815011
-0.0870467
0.0122883
0.000677447
-0.00519169
0.00241159
-0.0180232
0.00469334
-0.032632
0.00685661
-0.0462885
0.00848542
-0.0571729
0.00951515
-0.0651915
0.0100898
-0.0712764
0.0103959
-0.0765072
0.0105689
-0.0816741
-0.0871495
0.0106717
0.000698279
-0.00588997
0.00240672
-0.0197316
0.00454101
-0.0347663
0.00645245
-0.0481999
0.0077987
-0.0585192
0.00857429
-0.0659671
0.0089432
-0.0716453
0.00908189
-0.0766459
0.00910582
-0.081698
-0.0871082
0.00906446
0.000710992
-0.00660096
0.00237091
-0.0213915
0.00433681
-0.0367322
0.00599377
-0.0498569
0.00707128
-0.0595967
0.00761261
-0.0665084
0.00779253
-0.0718253
0.00777384
-0.0766272
0.0076532
-0.0815774
-0.0869239
0.00746899
0.000715105
-0.00731607
0.00230531
-0.0229818
0.00408707
-0.038514
0.00549117
-0.051261
0.00631471
-0.0604202
0.00663975
-0.0668334
0.00664446
-0.07183
0.00647587
-0.0764586
0.00621375
-0.0813152
-0.0865974
0.00588721
0.000710368
-0.00802644
0.00221184
-0.0244832
0.00379835
-0.0401005
0.00495436
-0.052417
0.00553884
-0.0610047
0.0056636
-0.0669582
0.00550435
-0.0716707
0.00519128
-0.0761455
0.00478957
-0.0809135
-0.0861283
0.00432045
0.000696753
-0.00872319
0.00209292
-0.0258794
0.00347714
-0.0414847
0.00439208
-0.053332
0.00475205
-0.0613647
0.00469061
-0.0668968
0.00437666
-0.0713568
0.00392331
-0.0756922
0.00338231
-0.0803725
-0.0855149
0.00276894
0.000674441
-0.00939763
0.00195129
-0.0271563
0.00312963
-0.042663
0.00381201
-0.0540143
0.0039613
-0.061514
0.00372592
-0.0666614
0.00326517
-0.070896
0.00267602
-0.075103
0.00199422
-0.0796907
-0.0847488
0.00122813
0.000643825
-0.0100415
0.00179003
-0.0283025
0.00276161
-0.0436346
0.00322085
-0.0544736
0.00317236
-0.0614655
0.0027736
-0.0662626
0.00217268
-0.0702951
0.00145237
-0.0743827
0.000636698
-0.0788751
-0.0838042
-0.000307947
0.000605476
-0.0106469
0.00161237
-0.0293093
0.00237841
-0.0444007
0.00262435
-0.0547195
0.00238997
-0.0612311
0.0018369
-0.0657095
0.0011014
-0.0695596
0.000244952
-0.0735263
-0.000696017
-0.0779341
-0.082756
-0.00174419
0.000560097
-0.011207
0.0014213
-0.0301706
0.00198487
-0.0449642
0.00202746
-0.0547621
0.00161791
-0.0608216
0.000918673
-0.0650103
4.49645e-05
-0.0686859
-0.000925731
-0.0725556
-0.00200866
-0.0768512
-0.0815869
-0.00317774
0.000508486
-0.0117155
0.00121972
-0.0308818
0.00158537
-0.0453299
0.00143435
-0.0546111
0.000859014
-0.0602462
1.51592e-05
-0.0641665
-0.00097026
-0.0677005
-0.00207273
-0.0714531
-0.00328523
-0.0756387
-0.0802852
-0.00458698
0.000451546
-0.0121671
0.0010104
-0.0314406
0.00118367
-0.0455031
0.000848373
-0.0542758
0.000117417
-0.0595153
-0.000852154
-0.0631969
-0.00196691
-0.0665857
-0.00319242
-0.0702276
-0.00453088
-0.0743002
-0.0788509
-0.00596516
0.000390264
-0.0125573
0.000796231
-0.0318466
0.000782696
-0.0454896
0.000273837
-0.0537669
-0.000605323
-0.0586361
-0.00170336
-0.0620989
-0.00293725
-0.0653518
-0.00428255
-0.0688823
-0.00574523
-0.0728375
-0.0772864
-0.00730974
0.000325558
-0.0128829
0.000580243
-0.0321013
0.000385848
-0.0452952
-0.00028945
-0.0530916
-0.00130896
-0.0576166
-0.00253027
-0.0608775
-0.00387994
-0.0640022
-0.00534214
-0.0674201
-0.00692698
-0.0712527
-0.0755958
-0.00861755
0.000258239
-0.0131411
0.000364387
-0.0322074
1.55939e-05
-0.0449464
-0.000836471
-0.0522396
-0.00199259
-0.0564605
-0.00333201
-0.0595381
-0.00479423
-0.0625399
-0.00637055
-0.0658438
-0.00807467
-0.0695486
-0.0737857
-0.00988483
0.000189928
-0.0133311
0.000150603
-0.0321681
-0.000392635
-0.0444032
-0.00137301
-0.0512592
-0.00265445
-0.055179
-0.00410767
-0.0580849
-0.00567937
-0.0609683
-0.00736703
-0.0641561
-0.00918704
-0.0677285
-0.071861
-0.0111117
0.000119381
-0.0134504
-5.63592e-05
-0.0319924
-0.000768382
-0.0436912
-0.00189291
-0.0501347
-0.00329387
-0.0537781
-0.00485657
-0.0565222
-0.0065349
-0.0592899
-0.00833109
-0.0623599
-0.0102642
-0.0657955
-0.0698192
-0.0123059
4.36078e-05
-0.013494
-0.000287547
-0.0316612
-0.00113492
-0.0428438
-0.0023941
-0.0488755
-0.0039101
-0.0522621
-0.00557841
-0.0548539
-0.00736117
-0.0575072
-0.00926376
-0.0604574
-0.011305
-0.0637542
-0.0676602
-0.0134641
-3.18716e-05
-0.0134622
-0.000501583
-0.0311915
-0.00149024
-0.0418551
-0.00287594
-0.0474898
-0.00450199
-0.050636
-0.00627261
-0.0530833
-0.00815876
-0.055621
-0.0101683
-0.0584478
-0.0123044
-0.0616181
-0.0653987
-0.0145659
-0.000102801
-0.0133594
-0.00070724
-0.0305871
-0.00183265
-0.0407297
-0.00333806
-0.0459844
-0.0050688
-0.0489053
-0.00693815
-0.0512139
-0.00892568
-0.0536335
-0.0110433
-0.0563302
-0.0133012
-0.0593603
-0.0631731
-0.0155268
-0.000174245
-0.0131851
-0.000905748
-0.0298556
-0.00216121
-0.0394743
-0.00377984
-0.0443658
-0.00561003
-0.0470751
-0.00757397
-0.04925
-0.00965714
-0.0515503
-0.0118605
-0.0541268
-0.0141496
-0.0570712
-0.0604493
-0.0168733
-0.000244349
-0.0129408
-0.00109701
-0.0290029
-0.00247532
-0.0380959
-0.00420083
-0.0426402
-0.00612547
-0.0451504
-0.00817949
-0.047196
-0.0103499
-0.0493799
-0.0126328
-0.0518439
-0.0150453
-0.0546587
-0.0577404
-0.0177543
-0.000312511
-0.0126283
-0.00128056
-0.0280349
-0.00277451
-0.036602
-0.00460066
-0.0408141
-0.0066148
-0.0431363
-0.00875458
-0.0450562
-0.0110102
-0.0471243
-0.0133862
-0.0494679
-0.015916
-0.0521289
-0.055002
-0.0186545
-0.000378348
-0.0122499
-0.00145586
-0.0269573
-0.00305838
-0.0349995
-0.00497901
-0.0388935
-0.00707761
-0.0410377
-0.00929845
-0.0428353
-0.0116351
-0.0447877
-0.0140974
-0.0470055
-0.0167156
-0.0495107
-0.052208
-0.0195096
-0.000441552
-0.0118084
-0.00162246
-0.0257764
-0.0033266
-0.0332953
-0.00533565
-0.0368844
-0.00751375
-0.0388596
-0.00981134
-0.0405377
-0.0122256
-0.0423734
-0.0147694
-0.0444617
-0.0174672
-0.0468129
-0.0493481
-0.0203271
-0.000501849
-0.0113065
-0.00177995
-0.0244983
-0.00357886
-0.0314964
-0.00567041
-0.0347929
-0.00792305
-0.036607
-0.010293
-0.0381678
-0.0127805
-0.0398859
-0.0153998
-0.0418424
-0.0181715
-0.0440412
-0.0464185
-0.0211011
-0.000559
-0.0107475
-0.00192799
-0.0231293
-0.00381494
-0.0296095
-0.00598315
-0.0326247
-0.00830543
-0.0342847
-0.0107433
-0.0357299
-0.0132996
-0.0373296
-0.0159893
-0.0391527
-0.0188307
-0.0411998
-0.0434195
-0.0218297
-0.000612792
-0.0101347
-0.0020663
-0.0216758
-0.00403464
-0.0276411
-0.00627378
-0.0303855
-0.0086608
-0.0318977
-0.011162
-0.0332287
-0.0137826
-0.0347091
-0.0165377
-0.0363975
-0.0194449
-0.0382926
-0.0403532
-0.0225112
-0.00066304
-0.00947168
-0.00219464
-0.0201442
-0.00423781
-0.025598
-0.0065422
-0.0280811
-0.00898907
-0.0294508
-0.0115491
-0.0306687
-0.0142292
-0.032029
-0.0170451
-0.0335816
-0.0200139
-0.0353238
-0.0372231
-0.023144
-0.000709582
-0.0087621
-0.00231282
-0.018541
-0.00442432
-0.0234865
-0.00678838
-0.0257171
-0.00929019
-0.026949
-0.0119043
-0.0280546
-0.0146393
-0.029294
-0.0175113
-0.0307097
-0.0205372
-0.0322979
-0.0340333
-0.0237269
-0.000752278
-0.00800982
-0.00242066
-0.0168726
-0.00459409
-0.021313
-0.00701226
-0.0232989
-0.00956409
-0.0243972
-0.0122276
-0.0253911
-0.0150127
-0.0265089
-0.0179359
-0.0277864
-0.0210143
-0.0292195
-0.0307887
-0.024259
-0.000791006
-0.00721882
-0.00251804
-0.0151456
-0.00474703
-0.0190841
-0.00721381
-0.0208321
-0.00981072
-0.0218002
-0.0125188
-0.022683
-0.0153493
-0.0236784
-0.0183189
-0.0248168
-0.0214448
-0.0260935
-0.0274941
-0.0247393
-0.000825665
-0.00639315
-0.00260483
-0.0133664
-0.00488308
-0.0168058
-0.00739301
-0.0183222
-0.0100301
-0.0191632
-0.0127779
-0.0199351
-0.0156488
-0.0208076
-0.0186598
-0.0218058
-0.0218282
-0.0229251
-0.024155
-0.0251673
-0.000856167
-0.00553698
-0.00268095
-0.0115416
-0.00500221
-0.0144845
-0.00754983
-0.0157746
-0.010222
-0.016491
-0.0130048
-0.0171523
-0.0159112
-0.0179013
-0.0189585
-0.0187585
-0.0221642
-0.0197194
-0.0207769
-0.0255424
-0.000882439
-0.00465455
-0.00274633
-0.00967773
-0.00510438
-0.0121265
-0.00768427
-0.0131947
-0.0103866
-0.0137886
-0.0131994
-0.0143395
-0.0161362
-0.0149645
-0.0192148
-0.0156799
-0.0224525
-0.0164817
-0.0173651
-0.0258643
-0.000904419
-0.00375013
-0.00280089
-0.00778126
-0.00518956
-0.00973783
-0.00779632
-0.0105879
-0.0105238
-0.0110611
-0.0133617
-0.0115017
-0.016324
-0.0120022
-0.0194286
-0.0125752
-0.022693
-0.0132173
-0.0139255
-0.0261326
-0.00092206
-0.00282807
-0.0028446
-0.00585872
-0.00525772
-0.0073247
-0.00788596
-0.00795968
-0.0106336
-0.00831343
-0.0134915
-0.0086438
-0.0164742
-0.00901947
-0.0195998
-0.00944968
-0.0228855
-0.00993161
-0.0104635
-0.0263474
-0.000935324
-0.00189274
-0.00287741
-0.00391664
-0.00530885
-0.00489326
-0.00795319
-0.00531534
-0.010716
-0.00555064
-0.0135889
-0.00577085
-0.0165869
-0.00602145
-0.0197282
-0.00630845
-0.0230299
-0.0066299
-0.0069849
-0.0265085
-0.000944181
-0.0028993
-0.00534295
-0.00799801
-0.00266028
-0.0107709
-0.00277776
-0.0136539
-0.00288786
-0.0166621
-0.0030132
-0.0198138
-0.00315676
-0.0231262
-0.00331754
-0.00349515
-0.0266159
-0.00802042
-0.0107983
-0.0136864
-0.0166997
-0.0198566
-0.0231743
-0.0266696
0.0579308
0.0118214
-0.0574639
0.0583951
0.0134472
0.0588547
0.0150776
0.0593072
0.0167083
0.0597483
0.0183347
0.0601714
0.0199514
0.0605659
0.0215512
0.0231248
0.0602866
0.0113415
-0.0598067
0.0607712
0.0129626
0.0612596
0.0145892
0.0617503
0.0162176
0.0622409
0.0178441
0.0627278
0.0194645
0.0632052
0.0210738
0.0226661
0.0627433
0.0108622
-0.0622641
0.0632356
0.0124704
0.0637405
0.0140843
0.0642572
0.0157009
0.0647843
0.017317
0.0653196
0.0189291
0.0658599
0.0205335
0.0221256
0.0653476
0.0103921
-0.0648774
0.0658368
0.0119812
0.0663454
0.0135757
0.0668735
0.0151727
0.0674209
0.0167696
0.0679868
0.0183633
0.0685696
0.0199507
0.0215281
0.0681165
0.00993189
-0.0676563
0.0685997
0.0114981
0.0691066
0.0130687
0.0696381
0.0146412
0.0701947
0.016213
0.0707765
0.0177815
0.0713834
0.0193438
0.0208972
0.0710479
0.00947974
-0.0705958
0.0715261
0.0110199
0.0720312
0.0125636
0.072564
0.0141084
0.0731252
0.0156518
0.0737154
0.0171913
0.0743349
0.0187244
0.0202487
0.0741401
0.00903436
-0.0736947
0.0746146
0.0105454
0.0751187
0.0120594
0.0756532
0.0135739
0.0762187
0.0150864
0.0768155
0.0165944
0.0774443
0.0180957
0.0195877
0.077393
0.00859475
-0.0769534
0.0778646
0.0100738
0.0783687
0.0115553
0.0789059
0.0130367
0.0794766
0.0145157
0.0800811
0.0159898
0.08072
0.0174568
0.0189141
0.080812
0.008161
-0.0803782
0.0812807
0.00960505
0.081785
0.011051
0.0823252
0.0124965
0.0829016
0.0139393
0.0835145
0.015377
0.0841641
0.0168072
0.0182276
0.084401
0.00773309
-0.0839731
0.084867
0.00913904
0.0853715
0.0105465
0.0859147
0.0119533
0.0864969
0.0133571
0.0871182
0.0147557
0.0877786
0.0161468
0.0175281
0.0881653
0.00731091
-0.0877431
0.0886285
0.0086758
0.0891331
0.0100419
0.0896793
0.0114071
0.0902672
0.0127692
0.0908969
0.014126
0.0915683
0.0154753
0.016815
0.0921109
0.00689441
-0.0916944
0.0925714
0.00821531
0.0930762
0.0095372
0.0936253
0.010858
0.0942189
0.0121756
0.0948571
0.0134878
0.0955397
0.0147927
0.0160881
0.0962449
0.00648358
-0.0958341
0.0967026
0.00775758
0.0972074
0.00903237
0.0977595
0.0103059
0.0983588
0.0115762
0.0990054
0.0128413
0.099699
0.0140991
0.0153476
0.100575
0.00607826
-0.10017
0.10103
0.00730252
0.101535
0.00852737
0.10209
0.0097509
0.102695
0.0109712
0.10335
0.0121863
0.104055
0.0133944
0.0145934
0.105107
0.00567784
-0.104707
0.10556
0.00684958
0.106066
0.00802176
0.106624
0.00919255
0.107235
0.0103601
0.107899
0.0115227
0.108615
0.0126783
0.0138252
0.109855
0.00528274
-0.10946
0.110305
0.00639907
0.110811
0.00751572
0.111373
0.00863096
0.11199
0.00974303
0.112663
0.0108502
0.11339
0.0119507
0.114172
0.0130429
0.0141249
0.114825
0.00489269
-0.114435
0.115273
0.0059507
0.11578
0.00700894
0.116345
0.00806577
0.116969
0.00911953
0.11765
0.0101686
0.11839
0.0112113
0.119187
0.012246
0.013271
0.120028
0.00450734
-0.119643
0.120475
0.0055041
0.120983
0.00650103
0.121552
0.00749657
0.122182
0.00848918
0.122873
0.00947731
0.123625
0.0104594
0.124437
0.0114339
0.0123992
0.125477
0.00412633
-0.125096
0.125922
0.00505886
0.126431
0.00599152
0.127005
0.00692286
0.127643
0.00785143
0.128344
0.00877577
0.129109
0.00969443
0.129937
0.0106059
0.0115089
0.131183
0.00374922
-0.130806
0.131628
0.00461449
0.132139
0.00547988
0.132718
0.00634402
0.133364
0.00720558
0.134077
0.00806321
0.134855
0.00891554
0.1357
0.00976124
0.0105989
0.137163
0.00337548
-0.136789
0.137607
0.00417039
0.138122
0.00496541
0.138706
0.00575929
0.139361
0.00655081
0.140086
0.00733871
0.140879
0.00812175
0.141742
0.00889867
0.00966824
0.143432
0.00300448
-0.143061
0.143877
0.00372583
0.144395
0.0044473
0.144986
0.00516777
0.145651
0.0058861
0.146389
0.00660116
0.147198
0.00731183
0.14808
0.00801696
0.00871541
0.150009
0.00263547
-0.14964
0.150455
0.00327996
0.150978
0.00392459
0.151577
0.00456836
0.152253
0.00521025
0.153005
0.00584925
0.153833
0.00648434
0.154735
0.00711451
0.00773873
0.156916
0.00226752
-0.156549
0.157365
0.00283173
0.157893
0.0033961
0.158502
0.00395976
0.15919
0.00452182
0.159958
0.00508138
0.160805
0.00563756
0.16173
0.00618946
0.00673618
0.164177
0.0018995
-0.163809
0.164629
0.00237985
0.165165
0.00286039
0.165784
0.00334038
0.166487
0.00381904
0.167273
0.00429563
0.168141
0.00476938
0.169091
0.00523952
0.0057053
0.171819
0.00153005
-0.17145
0.172276
0.00192278
0.172821
0.00231574
0.173453
0.00270829
0.174172
0.00309982
0.174978
0.00348969
0.17587
0.00387729
0.176848
0.00426199
0.00464315
0.179875
0.00115759
-0.179502
0.180339
0.00145876
0.180894
0.00176014
0.181541
0.00206127
0.18228
0.00236166
0.183108
0.00266083
0.184027
0.0029583
0.185036
0.00325359
0.00354622
0.188381
0.000780134
-0.188003
0.188854
0.000985522
0.189423
0.0011911
0.190088
0.00139656
0.190848
0.00160155
0.191703
0.00180575
0.192652
0.00200884
0.193695
0.00221048
0.00241034
0.197376
0.000395068
-0.196991
0.197861
0.000500146
0.198447
0.000605361
0.199133
0.000710544
0.199919
0.000815524
0.200804
0.000920136
0.201789
0.00102421
0.202872
0.00112757
0.00123005
0.206911
-0.206516
0.207411
0.208017
0.208727
0.209543
0.210463
0.211487
0.212615
0.0485272
-0.0157809
-0.0482731
0.0489337
-0.0149725
0.0493914
-0.0139217
0.0498603
-0.0127749
0.0503307
-0.0115821
0.0508039
-0.010358
0.0512785
-0.00909221
0.0517532
-0.00778442
0.0522279
-0.00643988
0.0527032
-0.00506232
0.05318
-0.00365453
0.0536586
-0.00222277
0.0541327
-0.000782005
0.0546338
0.000726995
0.0551107
0.00229202
0.0555838
0.00384739
0.0560554
0.0054156
0.0565258
0.00699856
0.0569954
0.00859494
0.0102032
0.0517754
-0.0161728
-0.0513835
0.052127
-0.015324
0.0525113
-0.014306
0.0529139
-0.0131774
0.05331
-0.0119782
0.0537038
-0.0107518
0.0541025
-0.00949091
0.0545066
-0.00818858
0.0549158
-0.00684907
0.0553306
-0.00547708
0.0557513
-0.00407523
0.0561749
-0.00264639
0.0565903
-0.00119743
0.0570444
0.000272897
0.0574917
0.00184474
0.057943
0.00339608
0.0584002
0.00495838
0.0588634
0.00653544
0.0593322
0.00812611
0.0097287
0.0551025
-0.0165127
-0.0547626
0.0554101
-0.0156316
0.0557239
-0.0146199
0.0560585
-0.013512
0.056395
-0.0123147
0.0567291
-0.0110859
0.0570681
-0.00982998
0.0574149
-0.00853538
0.0577686
-0.00720274
0.0581287
-0.00583721
0.0584954
-0.00444186
0.0588671
-0.00301817
0.059242
-0.00157232
0.0596484
-0.000133478
0.0600574
0.00143577
0.0604753
0.00297814
0.0609042
0.0045295
0.0613449
0.00609476
0.061798
0.00767296
0.00926262
0.058552
-0.0167754
-0.0582894
0.058801
-0.0158806
0.0590502
-0.0148691
0.059317
-0.0137788
0.0595936
-0.0125912
0.0598718
-0.0113641
0.0601555
-0.0101136
0.0604486
-0.00882855
0.0607515
-0.00750556
0.0610635
-0.00614928
0.0613855
-0.0047638
0.0617187
-0.00335137
0.0620628
-0.00191641
0.0623999
-0.000470643
0.0627823
0.00105343
0.0631711
0.00258934
0.0635732
0.00412742
0.063991
0.00567688
0.0644255
0.00723847
0.00881073
0.062122
-0.0169683
-0.061929
0.0623128
-0.0160714
0.0625022
-0.0150585
0.0627048
-0.0139814
0.0629208
-0.0128072
0.0631433
-0.0115866
0.0633728
-0.0103431
0.0636133
-0.00906897
0.0638661
-0.00775838
0.0641312
-0.00641443
0.0644089
-0.0050415
0.0646998
-0.00364222
0.0650029
-0.00221951
0.0653143
-0.00078211
0.065664
0.000703777
0.0660257
0.00222766
0.0664039
0.00374921
0.0668009
0.00527984
0.0672181
0.00682127
0.00837252
0.0658297
-0.0170943
-0.0657038
0.065961
-0.0162027
0.0660906
-0.0151881
0.0662302
-0.0141211
0.066385
-0.012962
0.0665508
-0.0117524
0.0667265
-0.0105188
0.066915
-0.0092575
0.0671186
-0.00796195
0.0673377
-0.00663354
0.0675726
-0.00527643
0.0678241
-0.00389365
0.0680924
-0.00248782
0.068375
-0.00106474
0.0686954
0.000383322
0.0690309
0.00189216
0.0693873
0.00339282
0.0697663
0.00490089
0.0701688
0.00641871
0.00794556
0.0696864
-0.0171508
-0.0696298
0.069754
-0.0162703
0.0698219
-0.015256
0.0698987
-0.0141978
0.069992
-0.0130552
0.0701005
-0.011861
0.0702228
-0.0106411
0.0703605
-0.00939523
0.0705161
-0.0081175
0.0706905
-0.00680798
0.0708842
-0.00547016
0.0710977
-0.00410711
0.0713309
-0.00272098
0.0715826
-0.00131645
0.0718802
8.57168e-05
0.0721895
0.00158285
0.0725257
0.00305663
0.0728883
0.00453827
0.0732777
0.00602931
0.00752854
0.0736958
-0.0171358
-0.0737108
0.0736961
-0.0162705
0.0737005
-0.0152605
0.0737148
-0.0142121
0.0737471
-0.0130876
0.0737986
-0.0119125
0.0738679
-0.0107104
0.0739559
-0.0094832
0.0740647
-0.00822633
0.0741958
-0.00693915
0.0743502
-0.00562452
0.0745286
-0.00428553
0.0747322
-0.00292457
0.0749612
-0.00154545
0.0752119
-0.000164995
0.075503
0.00129179
0.0758208
0.00273886
0.0761678
0.00419122
0.0765452
0.00565194
0.00712033
0.0778598
-0.0170489
-0.0779466
0.077791
-0.0162018
0.077731
-0.0152005
0.0776832
-0.0141643
0.0776557
-0.0130601
0.0776508
-0.0119076
0.0776677
-0.0107272
0.0777068
-0.00952236
0.0777701
-0.00828957
0.077859
-0.00702809
0.0779747
-0.00574024
0.0781181
-0.00442889
0.07829
-0.00309649
0.0784906
-0.00174607
0.0787133
-0.00038768
0.0789825
0.00102261
0.0792821
0.0024393
0.0796138
0.00385943
0.079979
0.00528678
0.00672112
0.0821813
-0.0168908
-0.0823395
0.0820433
-0.0160637
0.0819187
-0.0150759
0.0818097
-0.0140553
0.0817235
-0.0129739
0.0816631
-0.0118472
0.0816283
-0.0106925
0.0816195
-0.00951355
0.0816381
-0.00830815
0.0816856
-0.00707563
0.0817633
-0.00581788
0.0818719
-0.00453747
0.0820121
-0.00323677
0.0821844
-0.00191837
0.0823859
-0.000589175
0.0826322
0.000776296
0.0829131
0.00215844
0.0832297
0.00354282
0.0835828
0.00493367
0.00633087
0.0866658
-0.0166624
-0.0868942
0.0864591
-0.015857
0.0862702
-0.014887
0.0861007
-0.0138858
0.085957
-0.0128302
0.0858423
-0.0117324
0.0857567
-0.010607
0.0857007
-0.00945756
0.0856755
-0.0082829
0.0856825
-0.00708258
0.0857228
-0.0058582
0.0857974
-0.00461207
0.085907
-0.00334639
0.0860522
-0.00206354
0.0862315
-0.000768491
0.0864563
0.000551471
0.0867187
0.00189603
0.0870203
0.00324122
0.0873616
0.0045924
0.00594937
0.0913199
-0.0163646
-0.0916176
0.0910454
-0.0155825
0.090793
-0.0146347
0.090564
-0.0136567
0.0903638
-0.01263
0.0901957
-0.0115643
0.0900603
-0.0104715
0.0899579
-0.00935515
0.0898895
-0.00821458
0.0898567
-0.00704971
0.0898604
-0.00586195
0.0899017
-0.00465336
0.0899813
-0.00342598
0.0900998
-0.002182
0.0902565
-0.000925251
0.0904609
0.000347047
0.0907053
0.00165168
0.090992
0.00295451
0.0913216
0.00426283
0.00557652
0.0961515
-0.0159987
-0.0965175
0.0958103
-0.0152413
0.0954954
-0.0143197
0.0952076
-0.013369
0.094952
-0.0123744
0.0947315
-0.0113439
0.094547
-0.010287
0.0943988
-0.00920701
0.0942881
-0.00810384
0.094216
-0.00697761
0.0941837
-0.00582962
0.0941921
-0.00466176
0.0942421
-0.00347596
0.0943343
-0.00227427
0.0944687
-0.00105967
0.0946537
0.000162142
0.0948802
0.00142515
0.095152
0.00268268
0.0954699
0.003945
0.00521232
0.101169
-0.0155654
-0.101603
0.100763
-0.0148346
0.100386
-0.013943
0.10004
-0.0130234
0.0997303
-0.0120643
0.0994583
-0.0110719
0.0992254
-0.0100541
0.0990322
-0.00901383
0.0988797
-0.00795132
0.098769
-0.00686689
0.0987012
-0.00576177
0.098677
-0.00463761
0.0986972
-0.00349612
0.0987619
-0.00233904
0.0988715
-0.00116921
0.0990415
-7.91632e-06
0.0992494
0.00121729
0.099507
0.00242502
0.0998139
0.00363815
0.00485639
0.106383
-0.0150659
-0.106882
0.105912
-0.0143634
0.105474
-0.0135056
0.105072
-0.0126209
0.104708
-0.0117003
0.104385
-0.0107491
0.104104
-0.00977354
0.103867
-0.00877621
0.103673
-0.0077576
0.103524
-0.00671823
0.103422
-0.0056593
0.103367
-0.00458238
0.10336
-0.00348917
0.103402
-0.00238143
0.103494
-0.0012614
0.103624
-0.00013761
0.103819
0.0010227
0.104063
0.00218067
0.104359
0.00334234
0.00450836
0.111802
-0.0145009
-0.112367
0.111267
-0.0138288
0.11077
-0.0130084
0.110311
-0.0121621
0.109894
-0.0112833
0.109521
-0.0103762
0.109193
-0.00944582
0.108912
-0.00849453
0.108677
-0.00752293
0.10849
-0.00653168
0.108353
-0.00552192
0.108266
-0.00449512
0.108229
-0.00345279
0.108244
-0.00239654
0.108311
-0.00132832
0.108428
-0.000254248
0.108604
0.000846521
0.108835
0.00195009
0.10912
0.00305725
0.00416843
0.117437
-0.0138713
-0.118066
0.11684
-0.0132317
0.116283
-0.012452
0.115769
-0.0116475
0.115299
-0.0108136
0.114876
-0.00995347
0.114502
-0.0090713
0.114176
-0.00816907
0.113901
-0.00724752
0.113677
-0.00630741
0.113505
-0.00534982
0.113386
-0.00437613
0.11332
-0.00338773
0.11331
-0.00238613
0.113355
-0.00137309
0.113453
-0.00035281
0.113612
0.000687519
0.113829
0.00173373
0.114103
0.0027832
0.0038365
0.123299
-0.0131779
-0.123993
0.12264
-0.0125729
0.122026
-0.0118371
0.121456
-0.0110778
0.120934
-0.0102917
0.120462
-0.00948141
0.120041
-0.0086503
0.119672
-0.00780009
0.119356
-0.0069316
0.119094
-0.00604562
0.118888
-0.00514321
0.118737
-0.00422563
0.118644
-0.00329418
0.118608
-0.00235026
0.11863
-0.00139544
0.11871
-0.000432902
0.118852
0.000545156
0.119055
0.00153108
0.119318
0.00251986
0.00351224
0.129401
-0.0124212
-0.130158
0.128682
-0.0118533
0.128009
-0.0111644
0.127385
-0.0104534
0.126811
-0.00971794
0.12629
-0.00896029
0.125822
-0.00818307
0.12541
-0.00738781
0.125054
-0.00657534
0.124755
-0.00574647
0.124514
-0.00490222
0.124332
-0.00404375
0.12421
-0.00317228
0.124149
-0.00228908
0.124149
-0.00139559
0.12421
-0.000494308
0.124336
0.000419141
0.124526
0.00134179
0.124779
0.00226686
0.00319533
0.135757
-0.0116017
-0.136577
0.134977
-0.0110733
0.134247
-0.0104342
0.133568
-0.0097745
0.132943
-0.00909259
0.132373
-0.00839031
0.13186
-0.00766979
0.131404
-0.00693236
0.131008
-0.00617885
0.130671
-0.00541006
0.130396
-0.00462695
0.130183
-0.00383061
0.130033
-0.00302215
0.129946
-0.00220273
0.129924
-0.00137368
0.129967
-0.000537005
0.130077
0.000309211
0.130253
0.00116557
0.130496
0.00202387
0.00288536
0.142382
-0.0107199
-0.143263
0.141542
-0.0102335
0.140755
-0.00964699
0.140021
-0.00904142
0.139345
-0.0084158
0.138726
-0.00777161
0.138167
-0.00711058
0.137668
-0.00643384
0.137232
-0.0057422
0.136858
-0.00503644
0.136549
-0.00431748
0.136304
-0.00358628
0.136126
-0.00284388
0.136015
-0.00209135
0.135971
-0.00132985
0.135995
-0.000561082
0.136089
0.000215084
0.136252
0.00100207
0.136486
0.0017905
0.00258188
0.149291
-0.00977612
-0.150235
0.148392
-0.00933413
0.147548
-0.00880295
0.146761
-0.0082543
0.146033
-0.00768767
0.145365
-0.00710427
0.14476
-0.00650547
0.144219
-0.00589226
0.143742
-0.00526541
0.143331
-0.00462566
0.142988
-0.00397383
0.142712
-0.00331082
0.142506
-0.00263757
0.142369
-0.00195504
0.142304
-0.00126428
0.14231
-0.000566701
0.142388
0.000136415
0.142539
0.000850918
0.142764
0.00156627
0.00228434
0.156506
-0.00877052
-0.157511
0.155547
-0.00837552
0.154646
-0.00790221
0.153805
-0.00741317
0.153026
-0.00690819
0.15231
-0.00638825
0.151659
-0.00585443
0.151074
-0.00530761
0.150557
-0.00474846
0.150109
-0.00417768
0.149731
-0.00359603
0.149425
-0.0030043
0.14919
-0.00240333
0.149029
-0.00179398
0.148942
-0.00117718
0.14893
-0.000554104
0.148993
7.27733e-05
0.149133
0.000711653
0.149348
0.00135064
0.00199211
0.164046
-0.00770321
-0.165113
0.163028
-0.00735771
0.16207
-0.00694478
0.161175
-0.00651798
0.160344
-0.00607727
0.159579
-0.00562345
0.158882
-0.00515738
0.158255
-0.00467978
0.157697
-0.00419128
0.157212
-0.00369249
0.1568
-0.00318408
0.156463
-0.00266676
0.156201
-0.00214125
0.156015
-0.00160831
0.155906
-0.00106874
0.155876
-0.000523551
0.155925
2.35067e-05
0.156053
0.00058374
0.156261
0.00114293
0.00170436
0.171935
-0.00657416
-0.173064
0.170858
-0.00628063
0.169844
-0.00593056
0.168894
-0.00556857
0.168012
-0.00519475
0.167198
-0.00480973
0.166455
-0.00441417
0.165784
-0.00400868
0.165186
-0.00359379
0.164664
-0.00317005
0.164218
-0.00273802
0.163849
-0.00229831
0.16356
-0.00185154
0.16335
-0.00139835
0.16322
-0.000939431
0.163172
-0.000475604
0.163207
-1.07938e-05
0.163324
0.000466349
0.163525
0.000942231
0.0014201
0.180201
-0.00538328
-0.181392
0.179065
-0.00514414
0.177993
-0.00485934
0.176989
-0.0045647
0.176055
-0.00426038
0.175192
-0.00394684
0.174403
-0.00362461
0.173688
-0.00329415
0.17305
-0.00295591
0.172491
-0.00261034
0.17201
-0.00225791
0.171611
-0.00189912
0.171294
-0.00153448
0.17106
-0.00116452
0.170911
-0.000789789
0.170846
-0.00041094
0.170865
-3.015e-05
0.170973
0.000358569
0.171168
0.000747536
0.00113814
0.188873
-0.00413041
-0.190126
0.187677
-0.00394797
0.186549
-0.00373083
0.18549
-0.00350608
0.184504
-0.00327386
0.183591
-0.00303453
0.182755
-0.00278845
0.181997
-0.00253599
0.181319
-0.00227747
0.180722
-0.00201326
0.180207
-0.00174372
0.179777
-0.00146922
0.179433
-0.00119017
0.179176
-0.000906961
0.179006
-0.000620033
0.178925
-0.000329875
0.178932
-3.79115e-05
0.179031
0.000259577
0.179221
0.000557687
0.000857113
0.197986
-0.0028154
-0.199301
0.19673
-0.00269185
0.195544
-0.00254476
0.19443
-0.00239242
0.193391
-0.00223497
0.192429
-0.00207261
0.191546
-0.0019056
0.190745
-0.00173417
0.190026
-0.00155856
0.189391
-0.00137901
0.188843
-0.00119576
0.188383
-0.00100908
0.188012
-0.000819234
0.187732
-0.000626496
0.187543
-0.00043116
0.187447
-0.000233548
0.187443
-3.44384e-05
0.187535
0.000168015
0.187721
0.000371169
0.000575266
0.207575
-0.00143821
-0.208952
0.206259
-0.00137558
0.205015
-0.00130083
0.203846
-0.00122339
0.202754
-0.00114332
0.201742
-0.00106073
0.200812
-0.000975745
0.199967
-0.000888472
0.199207
-0.000799034
0.198536
-0.000707551
0.197954
-0.000614151
0.197464
-0.000518964
0.197067
-0.000422129
0.196764
-0.000323788
0.196557
-0.000224098
0.196447
-0.000123243
0.196434
-2.17328e-05
0.19652
8.19345e-05
0.196706
0.000185889
0.000290278
0.217681
-0.219119
0.216305
0.215004
0.213781
0.212638
0.211577
0.210601
0.209713
0.208914
0.208206
0.207592
0.207073
0.206651
0.206327
0.206103
0.20598
0.205958
0.20604
0.206226
0.0503722
0.00148084
-0.00140212
0.0502044
0.00321594
-0.00304811
0.0499127
0.0056525
-0.00536078
0.0495661
0.00709326
-0.0067467
0.0491133
0.00953859
-0.00908582
0.0486334
0.0110602
-0.0105803
0.04807
0.0137606
-0.0131972
0.0475314
0.0154747
-0.014936
0.046949
0.0185014
-0.017919
0.0464979
0.0203083
-0.0198572
0.0460585
0.0236505
-0.0232111
0.0459583
0.0251734
-0.0250732
0.0459018
0.0288484
-0.0287919
0.0466553
0.0291413
-0.0298948
0.0331047
-0.0347224
0.0528422
0.00155986
0.0526763
0.00338186
0.0523828
0.00594603
0.052042
0.00743407
0.0515939
0.00998668
0.0511324