/*--------------------------------*- C++ -*----------------------------------*\
  =========                 |
  \\      /  F ield         | OpenFOAM: The Open Source CFD Toolbox
   \\    /   O peration     | Website:  https://openfoam.org
    \\  /    A nd           | Version:  7
     \\/     M anipulation  |
\*---------------------------------------------------------------------------*/
FoamFile
{
    version     2.0;
    format      ascii;
    class       volScalarField;
    location    "260";
    object      p;
}
// * * * * * * * * * * * * * * * * * * * * * * * * * * * * * * * * * * * * * //

dimensions      [0 2 -2 0 0 0 0];

internalField   nonuniform List<scalar> 
2125
(
-0.256884
-0.286934
-0.261023
-0.315212
-0.289671
-0.264711
-0.354177
-0.337004
-0.316147
-0.291925
-0.267968
-0.363077
-0.351126
-0.335689
-0.316637
-0.293682
-0.270805
-0.367591
-0.358967
-0.348187
-0.334166
-0.316716
-0.294915
-0.273227
-0.36953
-0.363046
-0.355244
-0.345413
-0.332508
-0.316424
-0.295584
-0.275239
-0.364734
-0.358982
-0.351882
-0.342814
-0.33077
-0.315807
-0.295652
-0.276818
-0.36428
-0.360418
-0.355337
-0.348838
-0.340373
-0.328974
-0.314914
-0.295082
-0.277984
-0.361638
-0.359717
-0.35653
-0.352052
-0.34606
-0.338064
-0.327128
-0.313786
-0.293913
-0.278513
-0.356627
-0.355632
-0.353042
-0.349085
-0.343512
-0.335863
-0.325239
-0.312465
-0.292153
-0.278488
-0.352182
-0.352027
-0.349949
-0.346426
-0.341184
-0.333775
-0.323353
-0.310911
-0.2901
-0.27629
-0.348336
-0.348925
-0.34728
-0.3441
-0.339103
-0.331844
-0.321551
-0.309076
-0.288987
-0.261332
-0.345138
-0.346374
-0.34508
-0.342165
-0.33734
-0.330163
-0.319938
-0.307084
-0.288635
-0.254915
-0.342648
-0.344428
-0.343415
-0.340702
-0.335993
-0.328856
-0.318656
-0.305353
-0.288552
-0.253284
-0.340923
-0.343145
-0.342355
-0.339802
-0.335185
-0.328072
-0.317878
-0.304195
-0.288407
-0.252833
-0.340011
-0.342579
-0.341967
-0.339553
-0.335027
-0.327956
-0.317795
-0.303829
-0.288497
-0.253547
-0.339945
-0.342771
-0.342307
-0.340024
-0.335614
-0.328639
-0.31856
-0.30449
-0.289396
-0.255899
-0.340739
-0.343749
-0.343411
-0.341267
-0.337014
-0.330211
-0.32031
-0.306435
-0.29147
-0.259948
-0.342391
-0.345528
-0.3453
-0.343308
-0.339261
-0.332718
-0.323128
-0.309747
-0.294974
-0.26563
-0.344886
-0.348107
-0.34798
-0.346155
-0.342364
-0.336173
-0.327033
-0.314323
-0.299682
-0.273142
-0.348197
-0.351476
-0.351444
-0.349801
-0.346314
-0.340565
-0.332028
-0.320194
-0.306028
-0.281882
-0.352295
-0.355617
-0.355679
-0.354234
-0.351095
-0.345873
-0.338076
-0.327291
-0.313927
-0.29252
-0.357151
-0.360506
-0.360663
-0.359433
-0.356687
-0.35207
-0.345135
-0.335522
-0.323197
-0.30428
-0.362733
-0.366117
-0.366372
-0.365378
-0.363069
-0.359133
-0.353167
-0.344838
-0.333778
-0.317286
-0.369012
-0.372415
-0.372776
-0.372042
-0.370217
-0.367037
-0.362147
-0.355225
-0.345682
-0.331703
-0.375956
-0.379364
-0.379838
-0.379391
-0.3781
-0.375755
-0.372048
-0.366668
-0.358917
-0.347631
-0.383526
-0.386913
-0.38751
-0.38738
-0.386676
-0.385242
-0.382824
-0.379129
-0.373439
-0.365061
-0.391677
-0.395006
-0.395731
-0.395947
-0.395879
-0.395431
-0.3944
-0.392525
-0.389141
-0.383874
-0.400347
-0.403568
-0.404424
-0.405011
-0.405622
-0.406221
-0.40666
-0.406718
-0.405834
-0.403829
-0.40946
-0.412511
-0.413494
-0.414468
-0.41579
-0.41748
-0.419444
-0.421511
-0.423244
-0.424575
-0.418922
-0.421731
-0.42283
-0.424196
-0.426242
-0.429041
-0.432549
-0.436647
-0.441024
-0.445658
-0.00289052
-0.00384167
-0.00477006
-0.00567527
-0.00655686
-0.00741452
-0.00824776
-0.00905659
-0.0098399
-0.0105997
-0.0113314
-0.0035739
-0.00454835
-0.00549906
-0.00642558
-0.00732743
-0.00820425
-0.00905553
-0.00988135
-0.0106805
-0.0114558
-0.0122029
-0.00481946
-0.0058318
-0.00682001
-0.00778366
-0.00872233
-0.00963576
-0.0105235
-0.0113858
-0.0122214
-0.0130346
-0.0138216
-0.00657956
-0.00764767
-0.0086915
-0.00971066
-0.0107048
-0.0116736
-0.0126167
-0.0135347
-0.0144261
-0.0152973
-0.016145
-0.00883285
-0.00997234
-0.0110876
-0.0121782
-0.013244
-0.0142847
-0.0153001
-0.016291
-0.0172558
-0.0182034
-0.0191319
-0.0115528
-0.0127792
-0.0139815
-0.0151597
-0.0163133
-0.0174427
-0.0185471
-0.0196283
-0.0206842
-0.0217271
-0.0227562
-0.0147311
-0.0160596
-0.0173646
-0.018646
-0.0199036
-0.0211376
-0.0223477
-0.0235361
-0.0247003
-0.0258567
-0.0270064
-0.0183624
-0.0198083
-0.0212312
-0.0226312
-0.0240083
-0.0253632
-0.0266953
-0.0280076
-0.0292974
-0.0305857
-0.031876
-0.0224478
-0.0240259
-0.0255818
-0.0271159
-0.0286283
-0.0301198
-0.0315901
-0.0330429
-0.0344755
-0.0359139
-0.0373651
-0.0269925
-0.0287178
-0.0304217
-0.032105
-0.0337679
-0.0354118
-0.037036
-0.0386458
-0.0402378
-0.0418443
-0.0434769
-0.0320044
-0.0338917
-0.0357585
-0.037606
-0.0394345
-0.0412458
-0.0430396
-0.0448221
-0.0465898
-0.048382
-0.050216
-0.0354127
-0.0374966
-0.03956
-0.041604
-0.0436298
-0.0456381
-0.0476314
-0.0496092
-0.0515793
-0.0535379
-0.0555322
-0.0575872
-0.04121
-0.0434834
-0.0457367
-0.0479713
-0.0501888
-0.0523902
-0.0545786
-0.0567536
-0.0589246
-0.0610881
-0.0632991
-0.0655933
-0.0475058
-0.0499818
-0.0524376
-0.0548751
-0.0572963
-0.0597027
-0.0620978
-0.0644814
-0.0668646
-0.0692443
-0.0716844
-0.0742338
-0.0543199
-0.0570103
-0.05968
-0.0623311
-0.0649662
-0.0675871
-0.0701983
-0.0727996
-0.0754039
-0.0780085
-0.0806866
-0.0835038
-0.0616744
-0.0645896
-0.0674827
-0.0703562
-0.073213
-0.0760553
-0.0788882
-0.0817121
-0.0845417
-0.087376
-0.0902971
-0.0933909
-0.0695916
-0.0727397
-0.0758631
-0.0789649
-0.082049
-0.0851174
-0.0881754
-0.0912233
-0.0942771
-0.0973385
-0.1005
-0.103873
-0.0780974
-0.0814842
-0.0848415
-0.088173
-0.0914831
-0.0947758
-0.0980572
-0.101328
-0.104603
-0.107886
-0.111278
-0.114922
-0.0872142
-0.0908438
-0.0944378
-0.0979998
-0.101533
-0.105041
-0.108531
-0.112007
-0.11549
-0.118984
-0.122596
-0.126498
-0.0969681
-0.100837
-0.104662
-0.10845
-0.112202
-0.115924
-0.119614
-0.123277
-0.126929
-0.130597
-0.134391
-0.138532
-0.107391
-0.111491
-0.115531
-0.119522
-0.123466
-0.127381
-0.131258
-0.135113
-0.138926
-0.142744
-0.146659
-0.150992
-0.118509
-0.122839
-0.12709
-0.131271
-0.135372
-0.139424
-0.143409
-0.147397
-0.151332
-0.155322
-0.15934
-0.163861
-0.13032
-0.134856
-0.139303
-0.143678
-0.147951
-0.152157
-0.156216
-0.160253
-0.164141
-0.168198
-0.172216
-0.176993
-0.142862
-0.147555
-0.152127
-0.156618
-0.161005
-0.165367
-0.169565
-0.173771
-0.177624
-0.181692
-0.185419
-0.190427
-0.156212
-0.161044
-0.1657
-0.170215
-0.174554
-0.178855
-0.182981
-0.187298
-0.191218
-0.195626
-0.199114
-0.204491
-0.17032
-0.175293
-0.180071
-0.184667
-0.189006
-0.193187
-0.197002
-0.20097
-0.204424
-0.208958
-0.212255
-0.218644
-0.185035
-0.190037
-0.194849
-0.199509
-0.203968
-0.208295
-0.212202
-0.21608
-0.21899
-0.223002
-0.225167
-0.232614
-0.200445
-0.205254
-0.209808
-0.214168
-0.218372
-0.222552
-0.226606
-0.230886
-0.234444
-0.239007
-0.240629
-0.24888
-0.216979
-0.221499
-0.225618
-0.229368
-0.232799
-0.236033
-0.239167
-0.242622
-0.246182
-0.251499
-0.255077
-0.26591
-0.23456
-0.238908
-0.242763
-0.246124
-0.248997
-0.251408
-0.253411
-0.255178
-0.25685
-0.259497
-0.262387
-0.273265
-0.0131484
-0.0156325
-0.0176937
-0.0192294
-0.0201466
-0.0203542
-0.0197646
-0.0183203
-0.0159484
-0.0126639
-0.00843472
-0.00337715
0.0024388
0.00880975
0.0154881
0.0222471
0.0285663
0.0341071
0.0380221
0.039997
0.0402589
0.0399064
0.0399659
0.0413891
0.0445156
0.0464073
0.0456237
0.0421142
0.0353832
0.0143421
-0.0140813
-0.0166199
-0.0187011
-0.0202332
-0.0211334
-0.0213149
-0.0206875
-0.0191886
-0.0167391
-0.0133541
-0.00899805
-0.00379466
0.00218686
0.00874016
0.0156043
0.0225626
0.0290531
0.0347221
0.0386267
0.040415
0.0404223
0.0397599
0.0396537
0.0410935
0.044483
0.0465844
0.0458984
0.0426495
0.0361109
0.0142238
-0.015832
-0.0184792
-0.0205975
-0.0221234
-0.0229947
-0.0231297
-0.0224315
-0.0208308
-0.0182349
-0.0146613
-0.0100671
-0.00458982
0.0017025
0.00859937
0.0158146
0.023153
0.029979
0.0358986
0.0397856
0.041207
0.0407087
0.0394266
0.0390234
0.0404699
0.0443785
0.0468618
0.0463645
0.043649
0.0373684
0.0139151
-0.0183451
-0.0211464
-0.0233149
-0.0248299
-0.0256572
-0.025726
-0.0249276
-0.0231827
-0.0203784
-0.0165369
-0.0116044
-0.00573883
0.000994081
0.00837896
0.0160936
0.023984
0.0313132
0.0376097
0.0414699
0.0423375
0.0410469
0.0388307
0.0380261
0.0394622
0.0441372
0.0471197
0.0468934
0.0450331
0.0388957
0.0132745
-0.0215775
-0.0245727
-0.0267987
-0.0282946
-0.0290643
-0.02905
-0.0281255
-0.0261983
-0.0231297
-0.0189476
-0.0135863
-0.00722933
6.03979e-05
0.00806247
0.0164071
0.0250163
0.0330305
0.0398346
0.0436671
0.0437736
0.041338
0.0378643
0.0365845
0.0379939
0.0436633
0.0471909
0.0473326
0.0466667
0.0403403
0.012162
-0.0255023
-0.0287267
-0.0310122
-0.0324782
-0.0331761
-0.0330634
-0.0319901
-0.0298466
-0.0264631
-0.0218732
-0.0160003
-0.00905843
-0.00110869
0.00762401
0.0167101
0.0262008
0.0351005
0.0425451
0.046374
0.0454734
0.0414427
0.0363964
0.0345937
0.0359852
0.0428309
0.0468829
0.0474544
0.0482633
0.0412372
0.0105359
-0.0301059
-0.033589
-0.0359297
-0.0373511
-0.0379623
-0.0377382
-0.0364973
-0.034108
-0.030364
-0.0253032
-0.0188429
-0.01123
-0.00253038
0.00702865
0.0169435
0.0274724
0.0374772
0.0456912
0.0495868
0.0473663
0.0411739
0.0342722
0.0319312
0.0333602
0.0414886
0.0459966
0.0469136
0.0492718
0.0410031
0.00855797
-0.0353813
-0.0391461
-0.0415301
-0.0428878
-0.0433981
-0.0430529
-0.0416304
-0.0389709
-0.0348259
-0.0292345
-0.0221167
-0.0137526
-0.0042263
0.00623432
0.0170296
0.0287423
0.0400802
0.0491948
0.0532832
0.0493296
0.0402867
0.0313134
0.0284689
0.0300462
0.0394853
0.0443413
0.0452671
0.0488339
0.0389825
0.00660043
-0.0413275
-0.0453887
-0.0477953
-0.0490657
-0.0494611
-0.04899
-0.0473786
-0.044431
-0.0398498
-0.0336704
-0.0258286
-0.0166369
-0.00622051
0.00519317
0.0168755
0.0298976
0.0427904
0.0529316
0.0573875
0.0511643
0.038471
0.0272991
0.0240798
0.0259863
0.0367095
0.0417488
0.0421168
0.0460059
0.0346032
0.005081
-0.0479456
-0.0523075
-0.0547058
-0.05586
-0.0561291
-0.0555342
-0.0537352
-0.0504899
-0.0454431
-0.0386196
-0.029989
-0.019893
-0.00853578
0.00385622
0.0163774
0.0307966
0.0454282
0.0567127
0.0617139
0.0525649
0.0353475
0.0219647
0.018649
0.0211626
0.0331071
0.0381079
0.0373389
0.0402662
0.0276509
0.00418498
-0.0552373
-0.0598914
-0.0622377
-0.0632426
-0.0633771
-0.0626705
-0.0606968
-0.0571553
-0.0516198
-0.0440966
-0.0346105
-0.0235293
-0.0111896
0.00218093
0.0154296
0.0312592
0.0477167
0.060256
0.0658858
0.053094
0.0304733
0.0150092
0.0120844
0.0156025
0.0286707
0.0334232
0.0311222
0.0318634
0.0184681
0.00381959
-0.0632028
-0.0681237
-0.07036
-0.0711779
-0.0711764
-0.0703835
-0.068263
-0.0644408
-0.0584006
-0.0501217
-0.0397064
-0.0275507
-0.0141916
0.000140405
0.0139408
0.0310684
0.049276
0.0631259
0.0692484
0.0521864
0.0233784
0.00611998
0.0043297
0.00936609
0.0234113
0.0278197
0.0238695
0.0214376
0.00783771
0.00376361
-0.0718381
-0.0769799
-0.0790312
-0.0796227
-0.0794915
-0.0786564
-0.0764357
-0.0723669
-0.0658146
-0.056722
-0.04529
-0.0319592
-0.0175418
-0.00227242
0.0118576
0.0300133
0.0496399
0.0646184
0.0708254
0.0492457
0.0137298
-0.00494086
-0.00461323
0.00253602
0.0174024
0.0215372
0.0160915
0.00991382
-0.00328318
0.00380622
-0.0811339
-0.0864247
-0.0881941
-0.0885216
-0.088281
-0.0874708
-0.0852196
-0.0809617
-0.0739002
-0.0639325
-0.0513743
-0.0367545
-0.0212283
-0.00504376
0.00917957
0.0279434
0.0480336
0.0636436
0.0694074
0.0438759
0.00167982
-0.0181374
-0.0146478
-0.00476608
0.0107742
0.0148555
0.00828372
-0.00158267
-0.0140407
0.00382806
-0.091073
-0.0964099
-0.0977738
-0.097732
-0.0974938
-0.0968052
-0.0946219
-0.0902626
-0.0827082
-0.0717962
-0.0579726
-0.0419354
-0.0252262
-0.00814
0.00596448
0.0248549
0.0441823
0.0588886
0.0637874
0.0359202
-0.0119902
-0.032991
-0.0255318
-0.0123877
0.00367089
0.00803922
0.000849542
-0.0123633
-0.0238307
0.00379067
-0.101628
-0.106875
-0.107705
-0.107333
-0.107091
-0.106636
-0.104653
-0.100318
-0.0923033
-0.0803639
-0.0651003
-0.0475005
-0.0295002
-0.0115186
0.00232003
0.020931
0.03839
0.04963
0.0533718
0.0252644
-0.0261776
-0.04867
-0.0368689
-0.0201641
-0.00376079
0.00131745
-0.00594999
-0.022055
-0.0322616
0.00365691
-0.11276
-0.117734
-0.117872
-0.117135
-0.117003
-0.11693
-0.115328
-0.111192
-0.102767
-0.0896931
-0.0727774
-0.0534468
-0.034011
-0.0151335
-0.00162296
0.0164427
0.0311848
0.0368892
0.0390242
0.0121088
-0.0400882
-0.0642129
-0.0481902
-0.0279322
-0.011367
-0.00513042
-0.0119862
-0.030422
-0.0391634
0.00341123
-0.124414
-0.128882
-0.128147
-0.127037
-0.127156
-0.12765
-0.126666
-0.122964
-0.114196
-0.0998471
-0.0810281
-0.059768
-0.0387266
-0.0189337
-0.00572731
0.0116562
0.0233266
0.0226795
0.0229098
-0.00255495
-0.0534039
-0.0788476
-0.0590601
-0.0355408
-0.0189923
-0.0111756
-0.0172199
-0.0374015
-0.0445407
0.00306552
-0.136525
-0.140191
-0.138387
-0.136932
-0.137473
-0.138749
-0.138698
-0.135738
-0.126709
-0.110894
-0.0898796
-0.0664531
-0.0436267
-0.0228627
-0.00986869
0.00681662
0.0156208
0.00937251
0.0074385
-0.0171637
-0.0658937
-0.0920443
-0.0691279
-0.042857
-0.026491
-0.0167337
-0.0216737
-0.0430561
-0.0485124
0.00264896
-0.149005
-0.151508
-0.148434
-0.146703
-0.147864
-0.150172
-0.151467
-0.149644
-0.140439
-0.122909
-0.0993583
-0.0734882
-0.0486993
-0.0268636
-0.0139512
0.00211603
0.00865542
-0.0016589
-0.00597372
-0.0303863
-0.0771973
-0.103598
-0.0781359
-0.0497723
-0.0337338
-0.0217573
-0.0254053
-0.0475218
-0.051261
0.00219539
-0.161742
-0.162649
-0.158123
-0.156227
-0.158217
-0.161851
-0.165031
-0.164839
-0.155537
-0.135967
-0.109488
-0.0808588
-0.0539319
-0.0308883
-0.0179123
-0.00233027
0.00270256
-0.010278
-0.0169608
-0.0415326
-0.0869382
-0.112795
-0.0859092
-0.0562056
-0.0406085
-0.0262313
-0.0284932
-0.0509731
-0.0529906
0.00173559
-0.174592
-0.173401
-0.167277
-0.165365
-0.168388
-0.173695
-0.179459
-0.181499
-0.172163
-0.150149
-0.120287
-0.0885508
-0.0593089
-0.0349034
-0.0217184
-0.00648233
-0.00221517
-0.0168873
-0.0257037
-0.0504375
-0.0948911
-0.119799
-0.092376
-0.0621024
-0.0470216
-0.0301695
-0.0310228
-0.0535919
-0.0539024
0.00129385
-0.187328
-0.183516
-0.175714
-0.173958
-0.178189
-0.185553
-0.194807
-0.199802
-0.190473
-0.165527
-0.131766
-0.0965489
-0.0648113
-0.0388883
-0.0253594
-0.0103611
-0.00620528
-0.021965
-0.0325964
-0.0572467
-0.101001
-0.124702
-0.0975413
-0.0674327
-0.0529037
-0.0336042
-0.0330772
-0.0555512
-0.0541822
0.00088764
-0.199611
-0.192702
-0.183221
-0.181786
-0.187322
-0.197169
-0.211065
-0.219873
-0.210585
-0.182152
-0.143925
-0.104835
-0.0704183
-0.0428317
-0.0288469
-0.0140249
-0.00941861
-0.0259277
-0.0380724
-0.062279
-0.105346
-0.127694
-0.101461
-0.0721876
-0.0582105
-0.0365785
-0.0347331
-0.0570044
-0.0539954
0.000528137
-0.211048
-0.20066
-0.189555
-0.18854
-0.195369
-0.208157
-0.228059
-0.241701
-0.232523
-0.200027
-0.156741
-0.113385
-0.076106
-0.0467284
-0.0322095
-0.0175459
-0.0120087
-0.0291179
-0.0424991
-0.065936
-0.108089
-0.129034
-0.104232
-0.0763768
-0.0629217
-0.0391396
-0.0360586
-0.0580803
-0.0534857
0.00022016
-0.221102
-0.207115
-0.194438
-0.193835
-0.201939
-0.217971
-0.245347
-0.265002
-0.256139
-0.219077
-0.170159
-0.122167
-0.0818478
-0.050579
-0.0354872
-0.0209991
-0.0141195
-0.0317672
-0.0461028
-0.0685732
-0.109506
-0.129004
-0.105979
-0.0800244
-0.0670372
-0.0413356
-0.0371125
-0.0588817
-0.0527654
-3.85509e-05
-0.2292
-0.211858
-0.19761
-0.197261
-0.206597
-0.228781
-0.262235
-0.289126
-0.281011
-0.23911
-0.184083
-0.131128
-0.0876076
-0.0543862
-0.0387242
-0.0244583
-0.0158953
-0.0340326
-0.0489251
-0.0703664
-0.110007
-0.127927
-0.106837
-0.0831625
-0.0705719
-0.0432126
-0.0379439
-0.0594884
-0.0518955
-0.00025465
-0.235615
-0.21497
-0.198988
-0.19857
-0.20871
-0.234562
-0.277603
-0.313136
-0.306405
-0.259759
-0.198386
-0.140242
-0.0933632
-0.0581549
-0.0419663
-0.0279915
-0.0174657
-0.0359779
-0.0509049
-0.0713954
-0.109948
-0.126254
-0.106978
-0.0858435
-0.0735546
-0.0448151
-0.0385944
-0.0599621
-0.0508833
-0.000426453
-0.241359
-0.216896
-0.198814
-0.19803
-0.208523
-0.238127
-0.290902
-0.336155
-0.331653
-0.280555
-0.212748
-0.149337
-0.0990681
-0.0618992
-0.0452631
-0.0316944
-0.0188852
-0.0374546
-0.0524069
-0.0720744
-0.109367
-0.124255
-0.106605
-0.0881808
-0.0760162
-0.0461817
-0.0390994
-0.0603486
-0.0497824
-0.000526345
-0.24674
-0.218156
-0.197678
-0.196656
-0.207417
-0.240562
-0.302192
-0.357079
-0.355884
-0.301722
-0.227782
-0.158927
-0.104926
-0.0655942
-0.0486654
-0.0356627
-0.0204868
-0.0389334
-0.0553506
-0.0735158
-0.107973
-0.121093
-0.105534
-0.0900448
-0.078078
-0.0473823
-0.0394889
-0.0607079
-0.0489389
-0.000513907
-0.261153
-0.220983
-0.198033
-0.196352
-0.207735
-0.243054
-0.306934
-0.367354
-0.369495
-0.315917
-0.239264
-0.167048
-0.110774
-0.0698892
-0.0520519
-0.0402453
-0.0247123
-0.0449858
-0.0613499
-0.0759849
-0.105554
-0.116126
-0.103161
-0.0901637
-0.079023
-0.0483024
-0.0399344
-0.0611722
-0.0490186
-0.000437834
-0.257153
-0.216623
-0.19681
-0.196297
-0.209973
-0.250216
-0.319954
-0.381672
-0.383107
-0.324887
-0.243931
-0.169426
-0.112163
-0.0713814
-0.0540615
-0.0428046
-0.0268621
-0.0463279
-0.0638199
-0.0770372
-0.104423
-0.114066
-0.102356
-0.0903549
-0.0799282
-0.0487866
-0.0402415
-0.0609721
-0.0489379
-0.000371343
-0.256114
-0.214567
-0.196803
-0.197477
-0.213797
-0.258904
-0.333274
-0.397157
-0.39528
-0.330075
-0.244055
-0.167837
-0.110573
-0.0711908
-0.055268
-0.0443383
-0.0287735
-0.0476171
-0.0661536
-0.0778849
-0.103087
-0.112151
-0.101699
-0.0905795
-0.0808098
-0.0490118
-0.0404797
-0.0604943
-0.0487742
-0.000326899
-0.254649
-0.213688
-0.198279
-0.19957
-0.218289
-0.267822
-0.346249
-0.411402
-0.40621
-0.334974
-0.244505
-0.166656
-0.109425
-0.0713547
-0.056746
-0.0461731
-0.0313006
-0.0495515
-0.0684871
-0.0785091
-0.101621
-0.109961
-0.100787
-0.0907303
-0.0816003
-0.049163
-0.0406792
-0.0600087
-0.0485758
-0.000305591
-0.254017
-0.214334
-0.20108
-0.202592
-0.223602
-0.277314
-0.359275
-0.424793
-0.41641
-0.339894
-0.245645
-0.166349
-0.109178
-0.0721808
-0.058758
-0.0486528
-0.0345287
-0.0518991
-0.0707656
-0.0789413
-0.100022
-0.107568
-0.0996731
-0.0907888
-0.0822885
-0.0492884
-0.0408618
-0.0595481
-0.0483506
-0.00030506
-0.254767
-0.21673
-0.205195
-0.206652
-0.229811
-0.287328
-0.372225
-0.437555
-0.425762
-0.34424
-0.246638
-0.166165
-0.109281
-0.0733646
-0.061199
-0.0517019
-0.038417
-0.0545838
-0.0729836
-0.0792023
-0.0983059
-0.10502
-0.0984157
-0.0907645
-0.0828798
-0.0493731
-0.04103
-0.0590851
-0.0481069
-0.000324028
-0.257101
-0.220905
-0.210639
-0.211829
-0.236908
-0.297725
-0.384937
-0.449499
-0.434018
-0.347788
-0.247237
-0.165847
-0.109526
-0.074786
-0.0640327
-0.0553173
-0.0429957
-0.0575991
-0.0751349
-0.0793122
-0.0964888
-0.102336
-0.0970266
-0.0906618
-0.0833747
-0.0494056
-0.0411812
-0.0586135
-0.0478542
-0.000361353
-0.261149
-0.226851
-0.21745
-0.218197
-0.244864
-0.308331
-0.397166
-0.46035
-0.440989
-0.350501
-0.247511
-0.16548
-0.109984
-0.076491
-0.0673164
-0.0595816
-0.0482817
-0.0609166
-0.07721
-0.0792905
-0.0945866
-0.099533
-0.0955081
-0.0904812
-0.0837711
-0.0493865
-0.0413152
-0.0581407
-0.0476014
-0.000415855
-0.266917
-0.234608
-0.225706
-0.225836
-0.253613
-0.318911
-0.408581
-0.469807
-0.446502
-0.352308
-0.247479
-0.165129
-0.110722
-0.0785359
-0.0711201
-0.0645716
-0.0542168
-0.0644903
-0.0791985
-0.0791564
-0.0926164
-0.0966321
-0.0938663
-0.0902229
-0.0840675
-0.0493206
-0.0414335
-0.0576737
-0.0473559
-0.00048636
-0.274389
-0.244248
-0.235548
-0.234829
-0.263057
-0.329173
-0.41879
-0.47753
-0.450367
-0.353103
-0.247087
-0.164789
-0.111747
-0.0809485
-0.075494
-0.070328
-0.0608764
-0.068274
-0.0810904
-0.0789281
-0.090596
-0.093655
-0.0921091
-0.0898876
-0.0842635
-0.049212
-0.0415375
-0.0572167
-0.0471244
-0.000571717
-0.283217
-0.255865
-0.247216
-0.245264
-0.273074
-0.338789
-0.42736
-0.483161
-0.452374
-0.352794
-0.246273
-0.164436
-0.113045
-0.0837463
-0.0804701
-0.0768635
-0.06816
-0.0722212
-0.0828767
-0.0786232
-0.0885443
-0.0906244
-0.0902449
-0.0894762
-0.0843599
-0.0490637
-0.041628
-0.0567731
-0.0469124
-0.000670796
-0.294262
-0.269335
-0.260919
-0.257274
-0.283526
-0.347422
-0.433848
-0.486348
-0.452327
-0.351301
-0.244981
-0.164052
-0.1146
-0.086947
-0.0860632
-0.0841697
-0.0759855
-0.076285
-0.0845501
-0.0782582
-0.0864803
-0.0875635
-0.0882825
-0.0889899
-0.0843575
-0.0488788
-0.0417057
-0.0563457
-0.0467247
-0.000782497
-0.307423
-0.285583
-0.276306
-0.270974
-0.294292
-0.354751
-0.437829
-0.486764
-0.450066
-0.348543
-0.243157
-0.163622
-0.116396
-0.0905654
-0.0922673
-0.0922162
-0.0842448
-0.0804206
-0.0861048
-0.0778485
-0.0844231
-0.0844954
-0.0862317
-0.0884302
-0.0842579
-0.0486605
-0.0417714
-0.055937
-0.0465652
-0.000905743
-0.322693
-0.304104
-0.294202
-0.286215
-0.3053
-0.360499
-0.438933
-0.484124
-0.445462
-0.34444
-0.240742
-0.163125
-0.118408
-0.0946077
-0.0990532
-0.100949
-0.0928168
-0.0845854
-0.0875369
-0.0774077
-0.0823912
-0.0814429
-0.0841034
-0.087799
-0.0840634
-0.0484125
-0.041826
-0.0555493
-0.0464368
-0.00103949
-0.340146
-0.32491
-0.314504
-0.303093
-0.316439
-0.364471
-0.43688
-0.477906
-0.438423
-0.338917
-0.237677
-0.162533
-0.120603
-0.0990672
-0.106368
-0.110289
-0.101577
-0.0887403
-0.0888444
-0.0769476
-0.0804019
-0.0784278
-0.0819092
-0.0870986
-0.0837769
-0.0481384
-0.0418703
-0.0551839
-0.0463416
-0.0011827
-0.359773
-0.347983
-0.337127
-0.321815
-0.327226
-0.366579
-0.431528
-0.468726
-0.428911
-0.331906
-0.233903
-0.161811
-0.12294
-0.10392
-0.114136
-0.120137
-0.110409
-0.0928506
-0.0900268
-0.076478
-0.0784714
-0.0754711
-0.0796613
-0.0863319
-0.083402
-0.0478419
-0.0419053
-0.0548421
-0.0462809
-0.00133439
-0.381428
-0.373132
-0.361832
-0.341884
-0.337815
-0.366825
-0.42288
-0.456169
-0.416916
-0.323353
-0.229363
-0.160919
-0.125368
-0.109124
-0.122268
-0.130372
-0.119204
-0.0968855
-0.0910852
-0.0760067
-0.0766143
-0.072592
-0.077373
-0.0855026
-0.0829428
-0.0475267
-0.0419318
-0.0545245
-0.0462553
-0.00149358
-0.404803
-0.39998
-0.388202
-0.362979
-0.348243
-0.365138
-0.411132
-0.440278
-0.402471
-0.313218
-0.224006
-0.159813
-0.127829
-0.114616
-0.130656
-0.140858
-0.127872
-0.100818
-0.0920224
-0.0755393
-0.074843
-0.0698083
-0.0750583
-0.0846148
-0.0824042
-0.0471965
-0.0419504
-0.0542313
-0.0462643
-0.0016593
-0.429426
-0.427981
-0.415668
-0.384655
-0.358295
-0.361714
-0.396675
-0.421238
-0.385663
-0.301483
-0.217785
-0.158441
-0.130256
-0.120311
-0.139187
-0.15145
-0.13633
-0.104627
-0.0928423
-0.0750795
-0.0731681
-0.067136
-0.072732
-0.0836733
-0.0817916
-0.0468546
-0.0419618
-0.0539625
-0.0463068
-0.0018306
-0.454713
-0.456457
-0.443572
-0.40636
-0.367789
-0.356828
-0.379941
-0.39935
-0.366636
-0.288151
-0.210665
-0.156746
-0.132576
-0.126107
-0.147742
-0.161995
-0.144509
-0.108292
-0.0935498
-0.0746291
-0.0715979
-0.0645894
-0.0704102
-0.0826834
-0.0811107
-0.0465042
-0.0419661
)
;

boundaryField
{
    inlet
    {
        type            zeroGradient;
    }
    outlet
    {
        type            fixedValue;
        value           uniform 0;
    }
    cylinder
    {
        type            zeroGradient;
    }
    top
    {
        type            symmetryPlane;
    }
    bottom
    {
        type            symmetryPlane;
    }
    defaultFaces
    {
        type            empty;
    }
    procBoundary1to0
    {
        type            processor;
        value           nonuniform List<scalar> 
50
(
-0.252271
-0.283708
-0.283708
-0.3138
-0.3138
-0.357243
-0.338024
-0.338024
-0.367569
-0.367569
-0.372667
-0.372667
-0.374863
-0.374863
-0.374915
-0.369335
-0.369335
-0.367194
-0.367194
-0.00191708
-0.00257626
-0.00378349
-0.00548763
-0.00766952
-0.0103028
-0.0133791
-0.0168937
-0.0208474
-0.0252456
-0.0300962
-0.0300962
-0.0333076
-0.0389152
-0.0450081
-0.0516065
-0.0587343
-0.0664156
-0.0746776
-0.0835454
-0.0930515
-0.103229
-0.114104
-0.125693
-0.138048
-0.151217
-0.165165
-0.17983
-0.195347
-0.212039
-0.229715
)
;
    }
    procBoundary1to3
    {
        type            processor;
        value           nonuniform List<scalar> 
41
(
-0.42862
-0.43111
-0.432303
-0.43405
-0.436811
-0.440708
-0.445737
-0.45183
-0.458776
-0.46653
-0.479984
-0.484657
-0.471168
-0.427464
-0.3765
-0.350689
-0.361472
-0.375026
-0.345575
-0.273249
-0.20262
-0.15467
-0.134712
-0.131891
-0.156203
-0.172342
-0.152347
-0.111799
-0.0941502
-0.0741882
-0.070138
-0.062181
-0.0681111
-0.0816514
-0.0803678
-0.0461485
-0.0419635
-0.0537175
-0.0463811
-0.00200653
-0.0537175
)
;
    }
}


// ************************************************************************* //
