/*--------------------------------*- C++ -*----------------------------------*\
  =========                 |
  \\      /  F ield         | OpenFOAM: The Open Source CFD Toolbox
   \\    /   O peration     | Website:  https://openfoam.org
    \\  /    A nd           | Version:  7
     \\/     M anipulation  |
\*---------------------------------------------------------------------------*/
FoamFile
{
    version     2.0;
    format      ascii;
    class       surfaceScalarField;
    location    "90";
    object      phi;
}
// * * * * * * * * * * * * * * * * * * * * * * * * * * * * * * * * * * * * * //

dimensions      [0 3 -1 0 0 0 0];

internalField   nonuniform List<scalar> 
4136
(
-0.000968638
6.79889e-05
-0.00296502
0.000163173
0.000219498
-0.000968227
0.00103622
-0.00296402
0.00215897
-0.00545001
0.00270549
-0.00814461
0.00294195
-0.0109545
0.00307293
-0.0138726
0.0031952
-0.016914
0.00333412
-0.0200966
0.00349274
-0.023437
0.00366991
0.00386531
-0.026952
-0.000963454
0.00199967
-0.00295229
0.0041478
-0.00543179
0.005185
-0.0081207
0.00563086
-0.0109253
0.00587749
-0.0138381
0.00610802
-0.0168741
0.00637016
-0.0200512
0.0066698
-0.0233861
0.00700481
0.00737438
-0.0268952
-0.000954328
0.002954
-0.00292982
0.00612329
-0.00539688
0.00765206
-0.00807488
0.00830886
-0.0108692
0.00867179
-0.0137718
0.00901063
-0.0167974
0.00939581
-0.0199639
0.00983626
-0.023288
0.0103289
0.0108721
-0.0267857
-0.000940865
0.00389486
-0.00289663
0.00807906
-0.00534528
0.0101007
-0.00800712
0.0109707
-0.0107863
0.0114509
-0.0136737
0.0118981
-0.016684
0.0124061
-0.0198348
0.012987
-0.0231428
0.013637
0.0143532
-0.0266238
-0.000923091
0.00481795
-0.00285275
0.0100087
-0.005277
0.012525
-0.00791744
0.0136111
-0.0106765
0.01421
-0.013544
0.0147656
-0.0165339
0.0153961
-0.0196639
0.0161169
-0.0229507
0.0169238
0.0178119
-0.0264094
-0.000901042
0.005719
-0.00279821
0.0119059
-0.00519204
0.0149188
-0.00780582
0.0162249
-0.0105399
0.016944
-0.0133825
0.0176082
-0.0163472
0.0183607
-0.0194512
0.019221
-0.0227116
0.0201841
0.0212429
-0.0261426
-0.000874762
0.00659376
-0.00273305
0.0137642
-0.00509043
0.0172762
-0.00767228
0.0188068
-0.0103765
0.0196482
-0.0131894
0.0204211
-0.0161238
0.0212952
-0.019197
0.0222941
-0.0224256
0.0234127
0.0246407
-0.0258234
-0.000844308
0.00743807
-0.00265732
0.0155772
-0.00497218
0.019591
-0.00751681
0.0213514
-0.0101863
0.0223177
-0.0129647
0.0231996
-0.015864
0.0241945
-0.0189012
0.0253313
-0.0220931
0.0266045
0.0279998
-0.0254522
-0.000809747
0.00824781
-0.00257109
0.0173385
-0.00483733
0.0218573
-0.00733942
0.0238535
-0.00996928
0.0249475
-0.0127084
0.0259387
-0.0155679
0.027054
-0.0185642
0.0283277
-0.0217141
0.0297545
0.0313149
-0.0250292
-0.00077116
0.00901897
-0.00247444
0.0190418
-0.0046859
0.0240687
-0.00714013
0.0263077
-0.00972555
0.027533
-0.0124207
0.0286338
-0.0152355
0.0298688
-0.0181861
0.0312783
-0.0212892
0.0328575
0.0345807
-0.024555
-0.000728642
0.00974761
-0.00236747
0.0206806
-0.00451793
0.0262192
-0.00691893
0.0287087
-0.00945511
0.0300691
-0.0121016
0.0312803
-0.014867
0.0326343
-0.0177672
0.0341785
-0.0208186
0.0359089
0.0377924
-0.0240303
-0.000682304
0.0104299
-0.00225031
0.0222486
-0.0043335
0.0283024
-0.00667587
0.0310511
-0.009158
0.0325513
-0.0117512
0.0338735
-0.0144626
0.0353457
-0.0173077
0.0370235
-0.0203029
0.0389042
0.0409454
-0.0234559
-0.000632275
0.0110622
-0.00212309
0.0237395
-0.00413268
0.030312
-0.00641095
0.0333294
-0.00883426
0.0349746
-0.0113696
0.0364089
-0.0140225
0.0379985
-0.0168078
0.0398088
-0.0197425
0.0418389
0.0440357
-0.0228328
-0.000578705
0.0116409
-0.001986
0.0251468
-0.00391556
0.0322415
-0.00612423
0.035538
-0.00848395
0.0373343
-0.010957
0.038882
-0.0135467
0.0405881
-0.0162677
0.0425298
-0.019138
0.0447092
0.0470601
-0.0221624
-0.000521765
0.0121627
-0.00183924
0.0264642
-0.00368228
0.0340846
-0.00581576
0.0376715
-0.00810711
0.0396256
-0.0105134
0.0412883
-0.0130355
0.0431102
-0.0156874
0.0451818
-0.0184894
0.0475113
0.0500166
-0.0214459
-0.000461653
0.0126243
-0.00168308
0.0276857
-0.00343299
0.0358345
-0.00548561
0.0397241
-0.00770382
0.0418439
-0.0100391
0.0436236
-0.0124891
0.0455602
-0.0150668
0.0477595
-0.0177968
0.0502412
0.0529054
-0.0206855
-0.000398588
0.0130229
-0.0015178
0.0288049
-0.0031679
0.0374846
-0.00513388
0.0416901
-0.00727414
0.0439841
-0.00953407
0.0458835
-0.0119079
0.047934
-0.0144055
0.0502571
-0.0170574
0.0528931
0.0557309
-0.0198829
-0.000332822
0.0133557
-0.00134378
0.0298158
-0.00288725
0.039028
-0.00476072
0.0435636
-0.00681822
0.0460416
-0.00899862
0.0480639
-0.011293
0.0502283
-0.0137057
0.0526698
-0.0162708
0.0554583
0.0585043
-0.0190443
-0.000264638
0.0136204
-0.00116142
0.0307126
-0.00259133
0.0404579
-0.00436631
0.0453386
-0.00633614
0.0480115
-0.0084324
0.0501602
-0.0106432
0.0524391
-0.0129641
0.0549907
-0.0154125
0.0579067
0.0612517
-0.0181599
-0.000194382
0.0138147
-0.000971216
0.0314894
-0.00228048
0.0417672
-0.00395091
0.047009
-0.0058283
0.0498888
-0.00783619
0.0521681
-0.00996155
0.0545645
-0.0122049
0.057234
-0.0145289
0.0602307
0.0640153
-0.0172924
-0.000122567
0.0139373
-0.000773602
0.0321405
-0.00195509
0.0429487
-0.00351483
0.0485687
-0.00529499
0.051669
-0.0072101
0.0540832
-0.00924165
0.056596
-0.011402
0.0593944
-0.0137009
0.0625296
0.0662714
-0.015957
-5.05033e-05
0.0139878
-0.000568747
0.0326587
-0.00161566
0.0439956
-0.00305846
0.0500115
-0.00473634
0.0533469
-0.00655468
0.0559015
-0.00848663
0.058528
-0.0105408
0.0614486
-0.0127198
0.0647086
0.0685721
-0.0150205
2.27221e-05
0.0139651
-0.000355789
0.0330372
-0.00126292
0.0449027
-0.00258235
0.051331
-0.0041528
0.0549173
-0.00587087
0.0576196
-0.00770131
0.0603584
-0.00965037
0.0633977
-0.0117362
0.0667944
0.0707731
-0.0139371
0.000101048
0.013864
-0.000130106
0.0332684
-0.000898173
0.0456708
-0.00208703
0.0525198
-0.00354503
0.0563753
-0.00515966
0.0592342
-0.00688772
0.0620865
-0.00873244
0.0652424
-0.0107123
0.0687742
0.0728584
-0.0127976
0.000174071
0.01369
9.11279e-05
0.0333513
-0.000523221
0.0462852
-0.00157308
0.0535697
-0.00291385
0.0577161
-0.00442155
0.0607419
-0.00604519
0.0637101
-0.00778362
0.0669808
-0.00965301
0.0706436
0.0748295
-0.0116242
0.000243626
0.0134464
0.00029993
0.033295
-0.000129784
0.0467149
-0.00104207
0.054482
-0.00226001
0.058934
-0.00365685
0.0621388
-0.00517332
0.0652266
-0.00680274
0.0686103
-0.00855894
0.0723998
0.0766897
-0.0104191
0.000312058
0.0131343
0.000518145
0.0330889
0.00025754
0.0469755
-0.000497709
0.0552372
-0.00158408
0.0600204
-0.00286611
0.0634208
-0.00427244
0.0666329
-0.00579024
0.0701281
-0.00742998
0.0740395
0.0784338
-0.00917415
0.000378876
0.0127554
0.00073712
0.0327307
0.000651374
0.0470612
6.66722e-05
0.0558219
-0.000887011
0.0609741
-0.00205002
0.0645838
-0.00334312
0.067926
-0.00474676
0.0715317
-0.00626735
0.0755601
0.0800555
-0.00788899
0.000442599
0.0123128
0.000954842
0.0322185
0.00105335
0.0469627
0.000635125
0.0562402
-0.000171409
0.0617806
-0.00120936
0.0656217
-0.00238603
0.0691027
-0.00367283
0.0728185
-0.00507246
0.0769598
0.0815504
-0.0065674
0.000502289
0.0118105
0.00116897
0.0315518
0.00145827
0.0466734
0.0012202
0.0564782
0.000564756
0.0624361
-0.000346012
0.0665325
-0.00140227
0.0701589
-0.002569
0.0739852
-0.00384674
0.0782375
0.0829159
-0.00521225
0.00055705
0.0112535
0.00137686
0.030732
0.00186299
0.0461873
0.0018142
0.056527
0.00131844
0.0629318
0.000542476
0.0673085
-0.000394513
0.0710959
-0.00143641
0.0750271
-0.00259127
0.0793924
0.0841505
-0.00382584
0.000605972
0.0106475
0.00157576
0.0297622
0.00226397
0.0454991
0.00241402
0.056377
0.00208745
0.0632584
0.0014529
0.067943
0.000642297
0.0719065
-0.000282486
0.0759519
-0.00130444
0.0804143
0.0852589
-0.00241279
0.000648196
0.00999931
0.00176282
0.0286476
0.00265718
0.0446047
0.00301614
0.056018
0.002869
0.0634056
0.00238284
0.0684292
0.00170373
0.0725856
0.00090993
0.0767457
3.96769e-05
0.0812846
0.0862804
-0.00098189
0.000682958
0.00931635
0.00193506
0.0273955
0.00303815
0.0435016
0.00361618
0.05544
0.00365981
0.0633619
0.00333036
0.0687586
0.00278644
0.0731296
0.00211868
0.0774135
0.00135176
0.0820515
0.0871491
0.000483063
0.000709609
0.00860674
0.00208943
0.0260156
0.00340186
0.0421892
0.00420894
0.0546329
0.00445575
0.0631151
0.00429252
0.0689219
0.00388894
0.0735331
0.00335074
0.0779517
0.00272279
0.0826794
0.0878503
0.00202166
0.000727646
0.0078791
0.0022226
0.0245207
0.00374276
0.040669
0.00478834
0.0535873
0.0052518
0.0626517
0.00526601
0.0689077
0.0050099
0.0737893
0.00460675
0.0783548
0.00411561
0.0831706
0.0884101
0.00355578
0.000736771
0.00714232
0.00233162
0.0229258
0.00405486
0.0389458
0.00534734
0.0522948
0.0060419
0.0619571
0.00624662
0.0687029
0.00614633
0.0738896
0.00588199
0.0786192
0.00552555
0.083527
0.0888334
0.00510228
0.000736892
0.00640543
0.00241379
0.0212489
0.00433177
0.0370278
0.00587788
0.0507487
0.00681869
0.0610163
0.00722887
0.0682928
0.00729424
0.0738242
0.00717284
0.0787406
0.006952
0.0837479
0.0891201
0.00666531
0.000728136
0.0056773
0.00246684
0.0195102
0.00456686
0.0349278
0.00637084
0.0489447
0.00757333
0.0598138
0.00820597
0.0676601
0.0084491
0.0735811
0.00847661
0.078713
0.0083939
0.0838306
0.0892698
0.00824412
0.000710855
0.00496644
0.00248906
0.017732
0.00475349
0.0326634
0.00681609
0.0468821
0.00829545
0.0583344
0.00916962
0.0667859
0.00960546
0.0731452
0.00979019
0.0785283
0.00984918
0.0837716
0.0892821
0.00983691
0.000685631
0.00428081
0.0024796
0.0159381
0.00488538
0.0302576
0.00720269
0.0445648
0.00897295
0.0565642
0.0101097
0.0656492
0.0107564
0.0724985
0.0111094
0.0781753
0.011315
0.0835659
0.0891554
0.0114418
0.000653272
0.00362754
0.00243853
0.0141528
0.00495704
0.0277391
0.00751913
0.0420027
0.00959198
0.0544913
0.0110138
0.0642274
0.0118929
0.0716194
0.0124286
0.0776397
0.012788
0.0832065
0.0888865
0.0130568
0.000614777
0.00301276
0.00236705
0.0124005
0.00496434
0.0251418
0.00775381
0.0392133
0.010137
0.0521081
0.0118671
0.0624973
0.0130039
0.0704826
0.0137405
0.0769031
0.0142637
0.0826833
0.0884712
0.0146791
0.000571306
0.00244146
0.00226747
0.0107044
0.00490504
0.0225042
0.00789571
0.0362226
0.010591
0.0494128
0.0126519
0.0604364
0.014075
0.0690595
0.0150357
0.0759423
0.0157365
0.0819825
0.0879029
0.0163047
0.000524124
0.00191733
0.00214314
0.00908533
0.0047794
0.019868
0.00793526
0.0330667
0.0109361
0.046412
0.013348
0.0580245
0.0150886
0.0673189
0.0163018
0.0747292
0.0171987
0.0810857
0.0871724
0.0179291
0.000474539
0.00144279
0.00199831
0.00756156
0.00459052
0.0172758
0.00786553
0.0297917
0.0111542
0.0431234
0.0139321
0.0552466
0.0160234
0.0652276
0.0175227
0.0732299
0.0186401
0.0799683
0.0862663
0.0195462
0.000423839
0.00101895
0.00183783
0.00614757
0.00434449
0.0147691
0.00768343
0.0264528
0.0112286
0.0395782
0.0143791
0.0520961
0.0168535
0.0627532
0.018678
0.0714054
0.0200472
0.0785991
0.0851655
0.021148
0.000373226
0.000645728
0.00166682
0.00485398
0.00405011
0.0123858
0.00739094
0.0231119
0.0111455
0.0358237
0.0146625
0.048579
0.0175489
0.0598668
0.0197415
0.0692128
0.0214015
0.0769392
0.0227236
0.000323758
0.00032197
0.00149035
0.00368738
0.00371827
0.0101579
0.00699594
0.0198343
0.0108962
0.0319235
0.0147566
0.0447185
0.0180757
0.0565477
0.0206813
0.0666072
0.000276303
4.56678e-05
0.00131312
0.00265056
0.00336102
0.00810999
0.00651228
0.016683
0.0104797
0.0279561
0.0146387
0.0405595
0.0183973
0.0527891
0.000231516
-0.000185848
0.00113921
0.00174287
0.00299051
0.00625868
0.00595893
0.0137146
0.00990466
0.0240103
0.0142929
0.000189831
-0.00037568
0.000971929
0.000960776
0.00261807
0.00461254
0.00535817
0.0109745
0.000151505
-0.000527185
0.000813855
0.000298426
0.00225349
0.0031729
0.000116668
-0.000643852
0.000666883
-0.00025179
8.53919e-05
-0.000729244
-0.000698819
5.77591e-05
-0.000787003
0.03443
-0.000356012
0.00128136
0.033488
-0.00193481
0.00287676
0.0325167
-0.00433981
0.00531119
0.0315233
-0.00575389
0.00674724
0.0304906
-0.00817829
0.00921097
0.0294162
-0.00960892
0.0106834
0.0282822
-0.0122255
0.0133594
0.0270838
-0.0138211
0.0150196
0.0258109
-0.016757
0.0180299
0.0244636
-0.0185293
0.0198766
0.0230553
-0.0218568
0.0232651
0.0216017
-0.023592
0.0250456
0.0201541
-0.0273823
0.0288299
0.0188095
-0.0285139
0.0298585
-0.0332814
0.0347985
0.0345571
0.000442228
0.0337314
-0.00110914
0.0328646
-0.00347299
0.0319666
-0.00485589
0.0310185
-0.00723019
0.0300219
-0.00861227
0.0289559
-0.0111596
0.027822
-0.0126873
0.0266034
-0.0155384
0.0253115
-0.0172374
0.0239394
-0.0204847
0.0225276
-0.0221802
0.0210628
-0.0259175
0.0196908
-0.027142
-0.0317505
0.0346791
0.00111849
0.0339665
-0.000396608
0.0332011
-0.00270751
0.0323981
-0.00405287
0.0315344
-0.00636656
0.030618
-0.00769587
0.0296227
-0.0101643
0.028557
-0.0116215
0.0273956
-0.014377
0.0261589
-0.0160007
0.0248231
-0.019149
0.0234462
-0.0208033
0.0219751
-0.0244464
0.0205808
-0.0257476
-0.0302139
0.0347954
0.00167839
0.034191
0.000207797
0.0335226
-0.00203911
0.0328108
-0.003341
0.0320283
-0.00558412
0.0311893
-0.00685684
0.0302623
-0.00923724
0.0292626
-0.0106218
0.0281567
-0.0132712
0.0269743
-0.0148182
0.0256747
-0.0178494
0.0243319
-0.0194605
0.0228631
-0.0229776
0.0214499
-0.0243344
-0.028647
0.034906
0.00212775
0.0344042
0.00070956
0.0338282
-0.00146308
0.0332031
-0.00271588
0.0324978
-0.00487888
0.0317325
-0.00609151
0.0308703
-0.00837505
0.0299337
-0.00968518
0.0288805
-0.012218
0.0277499
-0.0136876
0.0264857
-0.0165852
0.0251743
-0.0181491
0.0237126
-0.0215159
0.0222822
-0.022904
-0.0270503
0.0350104
0.0024727
0.034606
0.00111397
0.0341172
-0.000974335
0.0335744
-0.00217302
0.0329422
-0.00424672
0.0322469
-0.00539615
0.031446
-0.00757422
0.0305692
-0.00880841
0.0295659
-0.0112146
0.0284841
-0.0126059
0.0272539
-0.0153549
0.0259707
-0.016866
0.0245183
-0.0200636
0.0230736
-0.0214592
-0.0254227
0.0351086
0.00271946
0.0347959
0.00142669
0.0343893
-0.000567744
0.033924
-0.00170775
0.0333606
-0.00368335
0.0327313
-0.00476686
0.0319882
-0.00683105
0.0311678
-0.00798802
0.0302112
-0.0102581
0.0291748
-0.0115694
0.0279771
-0.0141572
0.0267191
-0.015608
0.0252771
-0.0186216
0.0238203
-0.0200024
-0.0237647
0.0352004
0.00287437
0.0349736
0.00165355
0.0346438
-0.000238009
0.0342512
-0.00131513
0.0337522
-0.0031843
0.0331849
-0.00419954
0.0324956
-0.00614177
0.0317278
-0.00722029
0.030815
-0.00934525
0.0298203
-0.0105747
0.0286536
-0.0129905
0.0274181
-0.0143725
0.0259865
-0.01719
0.0245197
-0.0185356
-0.0220779
0.0352858
0.00294388
0.0351387
0.0018007
0.0348805
2.0183e-05
0.0345555
-0.00099015
0.0341162
-0.00274499
0.0336066
-0.00368991
0.0329673
-0.00550248
0.0322483
-0.00650135
0.0313762
-0.0084731
0.0304195
-0.00961802
0.0292819
-0.0118529
0.0280665
-0.0131571
0.0266449
-0.0157684
0.0251695
-0.0170602
-0.0203643
0.0353646
0.00293466
0.0352916
0.0018737
0.0350982
0.00021357
0.0348363
-0.000728295
0.0344521
-0.00236074
0.0339957
-0.00323357
0.0334025
-0.00490929
0.0327284
-0.00582719
0.0318938
-0.00763855
0.0309715
-0.00869573
0.029861
-0.0107424
0.0286636
-0.0119596
0.0272511
-0.0143559
0.0257683
-0.0155774
-0.0186262
0.0354365
0.00285348
0.0354308
0.00187937
0.0352978
0.000346657
0.0350931
-0.000523649
0.0347592
-0.00202686
0.0343517
-0.002826
0.0338006
-0.00435825
0.0331672
-0.00519374
0.0323671
-0.00683846
0.0314756
-0.00780426
0.03039
-0.00965672
0.0292084
-0.0107781
0.0278042
-0.0129517
0.0263149
-0.0140881
-0.0168664
0.0355016
0.00270727
0.0355569
0.00182401
0.0354783
0.000425286
0.0353256
-0.000370917
0.0350372
-0.00173854
0.0346738
-0.00246255
0.0341609
-0.00384539
0.0335641
-0.00459688
0.0327953
-0.00606965
0.0319311
-0.00694014
0.030868
-0.00859355
0.0297003
-0.00961042
0.0283033
-0.0115548
0.0268082
-0.012593
-0.0150874
0.0355596
0.00250304
0.0356696
0.00171398
0.0356396
0.000455325
0.0355332
-0.000264597
0.0352856
-0.00149091
0.0349616
-0.00213853
0.0344829
-0.00336668
0.0339185
-0.00403251
0.0331777
-0.00532886
0.0323376
-0.00610002
0.0312944
-0.0075504
0.0301389
-0.00845489
0.0287481
-0.010164
0.0272478
-0.0110927
-0.0132917
0.0356105
0.00224787
0.0357686
0.00155584
0.0357813
0.00044264
0.0357158
-0.000199086
0.035504
-0.00127909
0.0352146
-0.00184915
0.034766
-0.00291808
0.03423
-0.00349652
0.0335139
-0.00461277
0.0326946
-0.00528064
0.0316689
-0.00652474
0.0305237
-0.00730971
0.0291381
-0.00877833
0.0276331
-0.00958767
-0.011482
0.0356543
0.0019489
0.0358539
0.00135626
0.0359034
0.000393158
0.035873
-0.000168728
0.0356921
-0.00109816
0.0354325
-0.0015896
0.0350099
-0.00249548
0.0344982
-0.00298483
0.0338035
-0.003918
0.0330017
-0.00447889
0.031991
-0.00551405
0.0308545
-0.00617319
0.0294731
-0.00739695
0.0279639
-0.00807849
-0.0096607
0.0356909
0.00161336
0.0359251
0.001122
0.0360054
0.000312864
0.0360045
-0.000167832
0.0358495
-0.000943137
0.0356149
-0.00135502
0.0352142
-0.00209474
0.0347228
-0.00249341
0.0340459
-0.00324111
0.0332587
-0.00369171
0.0322604
-0.00451578
0.031131
-0.00504373
0.029753
-0.00601893
0.0282402
-0.00656571
-0.00782994
0.0357202
0.00124849
0.0359823
0.000859901
0.0360874
0.000207775
0.0361102
-0.000190674
0.0359761
-0.000808996
0.0357616
-0.00114052
0.0353785
-0.00171167
0.0349034
-0.00201824
0.0342409
-0.00257864
0.0334654
-0.00291616
0.032477
-0.00352745
0.0313531
-0.00391981
0.0299777
-0.00464348
0.0284619
-0.00504996
-0.00599189
0.0357422
0.000861596
0.0360253
0.000576844
0.0361491
8.39602e-05
0.0361899
-0.000231509
0.0360716
-0.000690685
0.0358723
-0.000941223
0.0355027
-0.00134207
0.0350398
-0.00155534
0.0343883
-0.00192708
0.0336215
-0.00214939
0.0326406
-0.00254657
0.0315208
-0.00280001
0.0301472
-0.00326987
0.0286292
-0.00353191
-0.00414849
0.0357569
0.000460006
0.0360541
0.000279693
0.0361904
-5.23811e-05
0.0362435
-0.000284608
0.036136
-0.000583126
0.0359469
-0.000752197
0.0355866
-0.000981706
0.035132
-0.00110077
0.0344878
-0.00128284
0.033727
-0.00138859
0.0327511
-0.00157072
0.0316341
-0.00168297
0.0302617
-0.00189747
0.0287421
-0.00201231
-0.00230158
0.0357643
0.0360685
0.0362114
0.0362709
0.036169
0.0359853
0.0356299
0.0351799
0.0345393
0.0337816
0.0328084
0.0316928
0.030321
0.0288006
0.202028
-0.000224182
0.202578
-0.00054957
0.203423
-0.00084559
0.204449
-0.0010261
0.205635
-0.00118595
0.206891
-0.00125563
0.208201
-0.00130986
0.209496
-0.00129562
0.210775
-0.00127844
0.211987
-0.00121236
0.213144
-0.00115679
0.21421
-0.00106578
0.215206
-0.00099677
0.216105
-0.000898462
-0.000829893
0.216935
0.192597
-0.00043743
0.193119
-0.00107138
0.193922
-0.00164815
0.194896
-0.00200066
0.196025
-0.00231524
0.197224
-0.00245381
0.198478
-0.00256406
0.199721
-0.00253925
0.200952
-0.00250951
0.202122
-0.00238202
0.203241
-0.00227561
0.204273
-0.00209779
0.20524
-0.00196384
0.206112
-0.0017708
-0.00163827
0.206921
0.183606
-0.000639472
0.184093
-0.00155854
0.184851
-0.00240631
0.185773
-0.00292261
0.18685
-0.00339216
0.187996
-0.00359963
0.189203
-0.00377148
0.190404
-0.00374019
0.1916
-0.00370519
0.192739
-0.00352104
0.193834
-0.00337043
0.194845
-0.00310941
0.195797
-0.00291573
0.196656
-0.00262999
-0.00243688
0.197455
0.175033
-0.000830278
0.175483
-0.00200851
0.176196
-0.00311884
0.177064
-0.00379069
0.178089
-0.00441758
0.179185
-0.00469509
0.18035
-0.00493678
0.181515
-0.00490449
0.182683
-0.00487384
0.183801
-0.00463856
0.184882
-0.00445179
0.185884
-0.00411115
0.186832
-0.0038635
0.187688
-0.00348639
-0.00323694
0.188488
0.166861
-0.00100985
0.167271
-0.00241901
0.167937
-0.0037846
0.168749
-0.00460306
0.169723
-0.00539127
0.170768
-0.00574039
0.171894
-0.00606244
0.173025
-0.00603562
0.174172
-0.00602103
0.175275
-0.00574085
0.17635
-0.00552744
0.17735
-0.00511083
0.178302
-0.00481583
0.179164
-0.00434825
-0.00404704
0.179974
0.159069
-0.00117812
0.159438
-0.00278799
0.160056
-0.00440262
0.16081
-0.00535734
0.161731
-0.00631196
0.162725
-0.00673418
0.163811
-0.00714897
0.16491
-0.00713476
0.166039
-0.00714992
0.16713
-0.00683174
0.168206
-0.00660276
0.169209
-0.00611412
0.170172
-0.00577937
0.171046
-0.00522194
-0.00487408
0.171873
0.15164
-0.00133483
0.151966
-0.00311376
0.152536
-0.00497216
0.153229
-0.00605074
0.154095
-0.00717764
0.155034
-0.00767383
0.156081
-0.00819526
0.157147
-0.00820117
0.158259
-0.00826157
0.15934
-0.00791298
0.160418
-0.00768117
0.161429
-0.00712484
0.162409
-0.00675909
0.163299
-0.00611235
-0.00572359
0.164149
0.144557
-0.00147949
0.144839
-0.0033953
0.145359
-0.00549272
0.145989
-0.00668011
0.146797
-0.00798582
0.147679
-0.00855575
0.148682
-0.00919885
0.149714
-0.00923244
0.150807
-0.0093553
0.151879
-0.00898452
0.152962
-0.00876435
0.153982
-0.00814525
0.154982
-0.00775856
0.155893
-0.00702314
-0.00660008
0.156769
0.137803
-0.00161129
0.13804
-0.00363248
0.138512
-0.00596385
0.139074
-0.00724235
0.139822
-0.00873388
0.140642
-0.00937564
0.141599
-0.0101563
0.142592
-0.0102248
0.143665
-0.0104289
0.144725
-0.0100447
0.145813
-0.00985249
0.146844
-0.0091762
0.147866
-0.00878012
0.1488
-0.00795697
-0.00750718
0.149707
0.131363
-0.00172911
0.131557
-0.00382632
0.131978
-0.00638498
0.13247
-0.00773481
0.133156
-0.00941923
0.133909
-0.0101288
0.134816
-0.0110635
0.135765
-0.0111733
0.136815
-0.0114788
0.13786
-0.0110905
0.138952
-0.0109444
0.139993
-0.0102173
0.141038
-0.00982511
0.141997
-0.00891558
-0.00844781
0.142938
0.125221
-0.00183162
0.125374
-0.00397904
0.125744
-0.00675521
0.126165
-0.00815576
0.126785
-0.0100394
0.127467
-0.0108105
0.128319
-0.0119158
0.129218
-0.0120722
0.13024
-0.0125004
0.131267
-0.0121176
0.13236
-0.0120379
0.13341
-0.0112672
0.134479
-0.0108939
0.135464
-0.00989997
-0.00942427
0.13644
0.119364
-0.00191741
0.119479
-0.00409399
0.119797
-0.0070732
0.120146
-0.00850488
0.120699
-0.0105922
0.121305
-0.0114163
0.122098
-0.0127085
0.12294
-0.0129151
0.123928
-0.0134883
0.124931
-0.0131206
0.126023
-0.0131293
0.127079
-0.0123232
0.128171
-0.011986
0.129181
-0.0109104
-0.0104384
0.130195
0.113778
-0.00198521
0.11386
-0.00417529
0.114124
-0.00733725
0.114402
-0.00878353
0.114885
-0.0110752
0.115412
-0.0119425
0.11614
-0.0134368
0.11692
-0.0136951
0.117868
-0.0144363
0.118841
-0.0140933
0.119926
-0.0142143
0.120984
-0.0133819
0.122098
-0.0131001
0.123135
-0.0119466
-0.0114915
0.124188
0.108452
-0.00203416
0.108504
-0.00422745
0.108712
-0.00754558
0.108924
-0.00899484
0.109334
-0.0114861
0.109779
-0.0123869
0.110438
-0.0140959
0.111148
-0.0144055
0.11205
-0.0153379
0.112985
-0.0150284
0.114058
-0.0152872
0.115115
-0.0144388
0.116249
-0.014234
0.11731
-0.0130074
-0.0125846
0.118403
0.103373
-0.00206396
0.1034
-0.00425479
0.103551
-0.00769682
0.1037
-0.0091434
0.104036
-0.0118223
0.104398
-0.0127489
0.104983
-0.0146808
0.105617
-0.01504
0.106465
-0.0161861
0.107355
-0.015918
0.10841
-0.0163419
0.109459
-0.0154884
0.11061
-0.0153848
0.111694
-0.0140912
-0.0137182
0.112828
0.0985299
-0.00207507
0.0985362
-0.00426109
0.0986299
-0.00779054
0.0987213
-0.00923475
0.0989803
-0.0120813
0.0992614
-0.01303
0.0997669
-0.0151863
0.10032
-0.0155933
0.101108
-0.0169737
0.101944
-0.0167536
0.102973
-0.0173711
0.104009
-0.0165243
0.105172
-0.0165485
0.106277
-0.0151957
-0.0148923
0.107451
0.0939136
-0.00206864
0.0939018
-0.00424923
0.093939
-0.00782773
0.0939789
-0.00927469
0.094159
-0.0122614
0.0943624
-0.0132334
0.094783
-0.015607
0.0952517
-0.0160619
0.095971
-0.0176931
0.096744
-0.0175265
0.09774
-0.0183672
0.0987548
-0.0175391
0.0999265
-0.0177202
0.101049
-0.0163179
-0.0161066
0.102263
0.0895139
-0.0020465
0.0894858
-0.00422111
0.089469
-0.00781095
0.089463
-0.00926867
0.0895634
-0.0123619
0.0896936
-0.0133636
0.0900241
-0.0159375
0.0904065
-0.0164444
0.0910491
-0.0183356
0.0917511
-0.0182286
0.0927055
-0.0193216
0.0936906
-0.0185242
0.0948646
-0.0188942
0.0960007
-0.017454
-0.0173601
0.0972541
0.085321
-0.00201096
0.0852777
-0.00417777
0.0852111
-0.00774434
0.0851637
-0.00922132
0.0851857
-0.0123839
0.0852478
-0.0134256
0.0854835
-0.0161732
0.0857802
-0.0167411
0.0863368
-0.0188921
0.0869608
-0.0188527
0.0878641
-0.0202249
0.0888098
-0.0194698
0.0899797
-0.0200641
0.0911248
-0.0185992
-0.0186509
0.0924157
0.0813258
-0.00196453
0.0812676
-0.00411952
0.0811566
-0.00763341
0.0810716
-0.00913623
0.0810182
-0.0123305
0.0810172
-0.0134247
0.081155
-0.016311
0.0813682
-0.0169543
0.0818289
-0.0193528
0.0823697
-0.0193934
0.0832111
-0.0210663
0.0841071
-0.0203658
0.0852657
-0.0212227
0.0864139
-0.0197473
-0.019977
0.0877399
0.0775191
-0.00190977
0.0774459
-0.00404632
0.077297
-0.0074845
0.0771768
-0.009016
0.0770534
-0.0122071
0.0769937
-0.0133649
0.0770328
-0.0163502
0.0771657
-0.0170871
0.0775209
-0.019708
0.0779754
-0.0198479
0.078742
-0.0218329
0.0795784
-0.0212022
0.0807178
-0.0223621
0.0818614
-0.0208909
-0.0213356
0.0832199
0.0738921
-0.00184897
0.073804
-0.00395826
0.0736237
-0.00730418
0.0734701
-0.00886245
0.073284
-0.0120209
0.0731687
-0.0132496
0.0731114
-0.0162929
0.0731671
-0.0171428
0.0734084
-0.0199494
0.0737758
-0.0202153
0.0744526
-0.0225097
0.0752208
-0.0219704
0.0763316
-0.0234729
0.0774618
-0.0220212
-0.0227236
0.0788498
0.0704359
-0.001784
0.0703334
-0.00385584
0.070128
-0.0070987
0.0699426
-0.00867713
0.0697022
-0.0117805
0.0695336
-0.013081
0.0693855
-0.0161448
0.0693663
-0.0171236
0.0694885
-0.0200715
0.0697692
-0.0204961
0.0703393
-0.0230798
0.071033
-0.0226641
0.072103
-0.0245428
0.0732103
-0.0231285
-0.0241389
0.0746256
0.0671421
-0.0017162
0.0670264
-0.00374013
0.0668013
-0.00687353
0.0665861
-0.008462
0.0663002
-0.0114946
0.06608
-0.0128607
0.0658497
-0.0159145
0.0657563
-0.0170303
0.0657587
-0.020074
0.0659532
-0.0206906
0.0664001
-0.0235266
0.0670159
-0.0232799
0.0680277
-0.0255546
0.0691017
-0.0242025
-0.0255835
0.0705463
0.0640029
-0.0016464
0.0638756
-0.00361284
0.0636352
-0.00663312
0.0633931
-0.00821988
0.0630697
-0.0111712
0.0628001
-0.0125912
0.0624979
-0.0156123
0.0623305
-0.0168628
0.0622178
-0.0199613
0.0623243
-0.0207971
0.0626347
-0.023837
0.0631721
-0.0238173
0.064102
-0.0264846
0.0651304
-0.0252309
-0.0270661
0.066613
0.0610106
-0.00157511
0.0608738
-0.00347607
0.0606216
-0.00638095
0.0603562
-0.00795447
0.0600023
-0.0108173
0.0596872
-0.0122761
0.0593234
-0.0152485
0.0590826
-0.016622
0.0588638
-0.0197425
0.0588783
-0.0208117
0.0590448
-0.0240034
0.0595042
-0.0242767
0.0603248
-0.0273052
0.0612964
-0.0262025
-0.0285932
0.0628235
0.0581581
-0.0015026
0.0580141
-0.00333208
0.057753
-0.00611985
0.0574687
-0.00767011
0.0570901
-0.0104387
0.056735
-0.0119211
0.0563191
-0.0148326
0.0560079
-0.0163107
0.0556943
-0.0194289
0.0556116
-0.020729
0.0556332
-0.024025
0.0560092
-0.0246527
0.0566956
-0.0279915
0.0576134
-0.0271203
-0.0301415
0.0591617
0.0554391
-0.00142917
0.05529
-0.00318305
0.0550226
-0.00585241
0.0547239
-0.00737136
0.054326
-0.0100408
0.0539376
-0.0115327
0.0534783
-0.0143733
0.0531024
-0.0159348
0.0527055
-0.019032
0.0525218
-0.0205452
0.052402
-0.0239052
0.0526745
-0.0249253
0.0531999
-0.0285169
0.0541073
-0.0280277
-0.0316399
0.0556056
0.0528472
-0.00135515
0.0526952
-0.00303105
0.0524241
-0.00558129
0.0521157
-0.0070629
0.0517038
-0.00962898
0.0512896
-0.0111185
0.0507949
-0.0138787
0.0503625
-0.0155024
0.049892
-0.0185615
0.0496076
-0.0202609
0.0493502
-0.0236477
0.0494884
-0.0250635
0.0497932
-0.0288217
0.0507584
-0.0289929
-0.0330755
0.0521941
0.0503772
0.0502229
0.0499528
0.0496371
0.0492191
0.048784
0.0482648
0.047782
0.0472505
0.0468662
0.0464835
0.0464656
0.0464739
0.0473394
0.0490624
0.215438
0.00149665
0.214004
0.0014346
0.212642
0.0013618
0.211355
0.00128637
0.210147
0.00120841
0.209019
0.00112804
0.207974
0.00104539
0.207013
0.000960585
0.206139
0.000873736
0.205354
0.000784972
0.20466
0.000694427
0.204058
0.000602236
0.203549
0.000508541
0.203136
0.000413485
0.202818
0.00031722
0.202598
0.000219897
0.202477
0.000121691
0.202454
2.29133e-05
0.202531
-7.69819e-05
-0.00017707
0.202708
0.20549
0.00292769
0.204119
0.00280554
0.202818
0.0026624
0.20159
0.00251412
0.200438
0.00236093
0.199363
0.00220308
0.198367
0.00204082
0.197454
0.00187438
0.196623
0.00170399
0.195878
0.00152992
0.19522
0.00135241
0.194651
0.00117174
0.194171
0.000988192
0.193783
0.000802032
0.193486
0.000613557
0.193283
0.000423063
0.193174
0.000230861
0.19316
3.74238e-05
0.19324
-0.000157685
-0.00035329
0.193416
0.19609
0.0042925
0.194783
0.00411261
0.193544
0.00390146
0.192375
0.0036828
0.191279
0.00345702
0.190258
0.00322449
0.189313
0.00298557
0.188447
0.0027406
0.187661
0.00248992
0.186957
0.00223391
0.186336
0.00197294
0.185801
0.00170741
0.185351
0.00143772
0.184989
0.00116427
0.184715
0.000887492
0.18453
0.000607818
0.184435
0.000325714
0.184431
4.20229e-05
0.184518
-0.000244449
-0.000531424
0.184696
0.187189
0.00559146
0.185945
0.00535637
0.184767
0.00507956
0.183657
0.00479298
0.182617
0.00449718
0.181649
0.00419269
0.180754
0.00387998
0.179935
0.00355947
0.179194
0.00323161
0.178531
0.00289687
0.177948
0.00255576
0.177447
0.00220877
0.177028
0.00185643
0.176693
0.00149926
0.176442
0.00113783
0.176278
0.000772686
0.176199
0.000404435
0.176207
3.43548e-05
0.176302
-0.000339744
-0.000714195
0.176485
0.178741
0.00682503
0.17756
0.0065374
0.176442
0.00619725
0.17539
0.00584514
0.174405
0.00548183
0.17349
0.00510803
0.172646
0.00472428
0.171874
0.0043311
0.171177
0.00392902
0.170555
0.00351863
0.17001
0.00310052
0.169543
0.00267531
0.169156
0.00224364
0.168849
0.00180614
0.168624
0.00136349
0.16848
0.00091637
0.168419
0.000465518
0.16844
1.32339e-05
0.168546
-0.000445496
-0.00090378
0.168735
0.170705
0.00799361
0.169586
0.00765617
0.168528
0.00725498
0.167533
0.00683972
0.166604
0.00641137
0.165741
0.00597082
0.164947
0.00551872
0.164222
0.00505566
0.163569
0.00458225
0.162988
0.00409916
0.162482
0.0036071
0.16205
0.00310678
0.161695
0.00259895
0.161417
0.00208436
0.161217
0.00156378
0.161095
0.00103801
0.161052
0.000507949
0.16109
-2.39091e-05
0.161207
-0.000563153
-0.00110183
0.161405
0.163045
0.00909749
0.161988
0.00871299
0.16099
0.00825309
0.160052
0.00777705
0.159178
0.00728611
0.158367
0.00678134
0.157622
0.00626352
0.156945
0.0057333
0.156336
0.00519135
0.155796
0.00463844
0.155328
0.00407538
0.154932
0.00350296
0.154609
0.00292205
0.15436
0.00233347
0.154185
0.00173813
0.154086
0.00113692
0.154064
0.000530882
0.154118
-7.83069e-05
0.154249
-0.000694001
-0.00130994
0.154457
0.15573
0.0101368
0.154735
0.00970801
0.153796
0.00919174
0.152916
0.00865733
0.152096
0.00810624
0.151337