/*--------------------------------*- C++ -*----------------------------------*\
  =========                 |
  \\      /  F ield         | OpenFOAM: The Open Source CFD Toolbox
   \\    /   O peration     | Website:  https://openfoam.org
    \\  /    A nd           | Version:  7
     \\/     M anipulation  |
\*---------------------------------------------------------------------------*/
FoamFile
{
    version     2.0;
    format      ascii;
    class       surfaceScalarField;
    location    "35";
    object      phi;
}
// * * * * * * * * * * * * * * * * * * * * * * * * * * * * * * * * * * * * * //

dimensions      [0 3 -1 0 0 0 0];

internalField   nonuniform List<scalar> 
16735
(
-4.23249e-05
4.23249e-05
-1.40723e-11
-0.000145019
0.000102695
-2.61701e-11
-0.000292242
0.000147223
-3.43052e-11
-0.000468572
0.00017633
-3.92298e-11
-0.00065946
0.000190887
-4.28024e-11
-0.000851993
0.000192533
-4.39553e-11
-0.00103591
0.000183915
-4.23417e-11
-0.00120503
0.00016912
-3.80473e-11
-0.00135819
0.000153158
-3.13094e-11
0.000142409
-2.25829e-11
-0.00150059
-4.15572e-05
8.38821e-05
-0.000142027
0.000203164
-0.000285439
0.000290635
-0.000456175
0.000347067
-0.000639413
0.000374125
-0.000821873
0.000374994
-0.000992836
0.000354878
-0.00114562
0.000321899
-0.0012786
0.000286142
0.000260333
-0.00139652
-4.00334e-05
0.000123915
-0.000136079
0.00029921
-0.00027191
0.000426466
-0.000431518
0.000506675
-0.000599534
0.00054214
-0.000761953
0.000537413
-0.000907139
0.000500064
-0.00102738
0.000442144
-0.00112017
0.000378927
0.000329446
-0.00118928
-3.77758e-05
0.000161691
-0.000127251
0.000388685
-0.00025181
0.000551025
-0.000394866
0.000649731
-0.000540241
0.000687515
-0.000672849
0.00067002
-0.00077969
0.000606906
-0.000851515
0.00051397
-0.000884404
0.000411816
0.000325645
-0.000880604
-3.48157e-05
0.000196507
-0.000115645
0.000469515
-0.000225353
0.000660733
-0.00034659
0.000770968
-0.000462122
0.000803047
-0.00055544
0.000763338
-0.000611736
0.000663201
-0.000619679
0.000521913
-0.000573747
0.000365884
0.000224825
-0.000472928
-3.119e-05
0.000227697
-0.000101384
0.000539709
-0.000192796
0.000752144
-0.000287143
0.000865315
-0.000365899
0.000881804
-0.000410814
0.000808254
-0.00040483
0.000657218
-0.000333758
0.000450841
-0.000190302
0.000222427
1.95444e-05
1.49792e-05
-2.69384e-05
0.000254635
-8.46012e-05
0.000597372
-0.00015442
0.000821963
-0.00021702
0.000927915
-0.000252373
0.000917157
-0.000240186
0.000796067
-0.000160779
0.00057781
2.61977e-06
0.000287443
0.000263888
-3.88416e-05
-0.000338099
0.000621531
-2.20995e-05
0.000276735
-6.54278e-05
0.0006407
-0.000110507
0.000867042
-0.000136725
0.000954134
-0.000122373
0.000902804
-4.48571e-05
0.000718551
0.000118641
0.000414312
0.000389343
1.67413e-05
0.000782325
-0.000431824
-0.000857325
0.00130155
-1.67076e-05
0.000293442
-4.39826e-05
0.000667975
-6.13156e-05
0.000884375
-4.6732e-05
0.00093955
2.33065e-05
0.000832765
0.000173882
0.000567975
0.000431229
0.000156965
0.000820846
-0.000372876
0.00136294
-0.000973917
-0.00155875
0.00206436
-1.07889e-05
0.000304231
-2.03612e-05
0.000677548
-7.05907e-06
0.000871073
5.25557e-05
0.000879935
0.000183963
0.000701358
0.000414867
0.000337071
0.000775126
-0.000203294
0.00129516
-0.000892914
0.00200113
-0.00167988
-0.00246178
0.00290416
-4.36264e-06
0.000308594
5.36859e-06
0.000667816
5.2094e-05
0.000824347
0.000160829
0.0007712
0.000359048
0.000503139
0.000677132
1.89872e-05
0.00114867
-0.000674829
0.00180941
-0.00155366
0.00269251
-0.00256298
-0.00358436
0.00381509
2.5798e-06
0.000306014
3.31635e-05
0.000637233
0.000116052
0.000741459
0.000277886
0.000609367
0.000548188
0.000232837
0.000959978
-0.000392804
0.00155051
-0.00126536
0.00236102
-0.00236417
0.0034327
-0.00363466
-0.00494269
0.00479103
1.00167e-05
0.000295998
6.30215e-05
0.000584228
0.000184764
0.000619717
0.000403619
0.000390511
0.000751179
-0.000114723
0.001263
-0.000904627
0.00197973
-0.00198209
0.00294791
-0.00333235
0.00421751
-0.00490426
-0.00655046
0.00582528
1.79746e-05
0.000278023
9.49385e-05
0.000507264
0.000258205
0.000456451
0.000537977
0.000110739
0.00096795
-0.000544696
0.00158608
-0.00152276
0.00243594
-0.00283194
0.00356869
-0.0044651
0.0050432
-0.00637877
-0.00841793
0.00691066
2.64574e-05
0.000251565
0.000128909
0.000404812
0.000336335
0.000249025
0.000680888
-0.000233814
0.00119845
-0.00106226
0.00192926
-0.00225357
0.00291924
-0.00382192
0.00422292
-0.00576878
0.00590698
-0.00806283
-0.0105506
0.00803964
3.54654e-05
0.0002161
0.000164894
0.000275383
0.000419037
-5.11756e-06
0.00083215
-0.000646928
0.00144246
-0.00167257
0.00229251
-0.00310363
0.00343002
-0.00495943
0.00491127
-0.00725003
0.00680781
-0.00995937
-0.0129475
0.00920473
4.49826e-05
0.000171118
0.000202796
0.00011757
0.000506052
-0.000308374
0.000991298
-0.00113217
0.00169937
-0.00238064
0.00267535
-0.00407961
0.00396856
-0.00625264
0.00563536
-0.00891683
0.00774708
-0.0120711
-0.0156006
0.0104002
5.49696e-05
0.000116148
0.000242427
-6.98866e-05
0.000596915
-0.000662862
0.00115745
-0.00169271
0.00196782
-0.00319101
0.00307627
-0.00518805
0.0045344
-0.00771077
0.00639772
-0.0107802
0.00872897
-0.0144023
-0.0184984
0.0116268
6.53595e-05
5.07885e-05
0.000283499
-0.000288026
0.000690901
-0.00107026
0.00132916
-0.00233097
0.0022454
-0.00410724
0.00349201
-0.00643467
0.00512543
-0.00934419
0.00720359
-0.0128583
0.0097679
-0.0169667
-0.0216301
0.0128996
7.60585e-05
-2.527e-05
0.000325624
-0.000537591
0.000787022
-0.00153166
0.00150436
-0.00304831
0.0025282
-0.00513108
0.0039161
-0.00782256
0.00573356
-0.0111617
0.00805543
-0.0151802
0.0109289
-0.0198401
-0.0249259
0.0142247
8.69553e-05
-0.000112225
0.000368342
-0.000818978
0.000884086
-0.00204741
0.00168043
-0.00384466
0.00281081
-0.00626147
0.00433744
-0.00934918
0.00633533
-0.0131595
0.00890502
-0.0177499
0.012249
-0.023184
-0.029793
0.0171161
9.79366e-05
-0.000210162
0.000411181
-0.00113222
0.000980856
-0.00261708
0.00185461
-0.00471841
0.00308735
-0.0074942
0.00474279
-0.0110046
0.00689758
-0.0153143
0.00965211
-0.0205044
0.0131708
-0.0267027
-0.0342701
0.0176478
0.000108903
-0.000319065
0.000453714
-0.00147703
0.00107623
-0.0032396
0.00202454
-0.00566672
0.00335319
-0.00882285
0.0051236
-0.012775
0.00740534
-0.0175961
0.0102772
-0.0233763
0.013829
-0.0302544
-0.0385281
0.018087
0.000119777
-0.000438842
0.000495601
-0.00185286
0.00116935
-0.00391335
0.00218851
-0.00668588
0.00360552
-0.0102399
0.00547647
-0.014646
0.00785894
-0.0199785
0.0108054
-0.0263228
0.0143476
-0.0337966
-0.0426154
0.0184349
0.000130508
-0.00056935
0.000536581
-0.00225893
0.00125955
-0.00463631
0.00234533
-0.00777167
0.00384274
-0.0117373
0.00580052
-0.0166038
0.0082623
-0.0224403
0.0112559
-0.0293164
0.0147723
-0.037313
-0.0465628
0.0187197
0.000141058
-0.000710408
0.000576452
-0.00269432
0.00134633
-0.00540619
0.00249411
-0.00891945
0.00406379
-0.0133069
0.00609548
-0.0186355
0.00861836
-0.0249632
0.0116384
-0.0323364
0.015118
-0.0407926
-0.0503885
0.0189437
0.000151395
-0.000861803
0.000615027
-0.00315796
0.00142922
-0.00622038
0.00263405
-0.0101243
0.0042677
-0.0149406
0.00636078
-0.0207286
0.00892821
-0.0275306
0.0119569
-0.0353651
0.0153883
-0.044224
-0.0540971
0.0190968
0.000161482
-0.00102329
0.000652108
-0.00364858
0.00150772
-0.00707599
0.00276428
-0.0113808
0.00445327
-0.0166296
0.00659525
-0.0228705
0.00919117
-0.0301265
0.0122111
-0.038385
0.0155808
-0.0475937
-0.0576835
0.0191672
0.000171269
-0.00119455
0.000687456
-0.00416477
0.00158128
-0.00796982
0.00288378
-0.0126834
0.00461902
-0.0183648
0.00679702
-0.0250485
0.00940518
-0.0327347
0.0123986
-0.0413784
0.0156905
-0.0508856
-0.0611368
0.0191438
0.000180687
-0.00137524
0.00072078
-0.00470486
0.0016492
-0.00889823
0.00299134
-0.0140255
0.00476314
-0.0201366
0.00696372
-0.0272491
0.00956731
-0.0353383
0.0125156
-0.0443267
0.0157118
-0.0540818
-0.0644422
0.0190173
0.000189649
-0.00156489
0.00075173
-0.00526694
0.0017107
-0.0098572
0.0030856
-0.0154004
0.0048836
-0.0219346
0.00709267
-0.0294582
0.00967431
-0.0379199
0.0125581
-0.0472105
0.0156398
-0.0571635
-0.0675837
0.0187813
0.00019805
-0.00176294
0.000779911
-0.0058488
0.00176491
-0.0108422
0.00316506
-0.0168006
0.00497824
-0.0237478
0.0071811
-0.031661
0.009723
-0.0404618
0.0125229
-0.0500104
0.015471
-0.0601116
-0.0705448
0.0184321
0.000205771
-0.00196871
0.000804886
-0.00644792
0.00181091
-0.0118482
0.00322821
-0.0182178
0.00504492
-0.0255645
0.00722641
-0.0338425
0.00971061
-0.042946
0.0124074
-0.0527072
0.0152036
-0.0629077
-0.0733103
0.0179691
0.000212682
-0.00218139
0.000826198
-0.00706144
0.00184776
-0.0128698
0.00327353
-0.0196436
0.00508164
-0.0273726
0.00722634
-0.0359872
0.00963505
-0.0453548
0.0122103
-0.0552825
0.0148375
-0.0655349
-0.0758665
0.0173937
0.00021865
-0.00240004
0.000843385
-0.00768617
0.00187453
-0.0139009
0.00329962
-0.0210687
0.00508661
-0.0291596
0.00717907
-0.0380797
0.00949505
-0.0476707
0.0119315
-0.057719
0.0143745
-0.0679779
-0.0782021
0.0167101
0.000223538
-0.00262358
0.000855996
-0.00831863
0.00189036
-0.0149353
0.00330521
-0.0224836
0.00505838
-0.0309128
0.00708338
-0.0401047
0.00929019
-0.0498775
0.0115721
-0.0600009
0.0138179
-0.0702237
-0.080308
0.0159238
0.000227216
-0.0028508
0.000863607
-0.00895502
0.00189446
-0.0159662
0.00328924
-0.0238783
0.0049959
-0.0326194
0.00693869
-0.0420475
0.00902102
-0.0519599
0.0111344
-0.0621143
0.0131722
-0.0722615
-0.0821777
0.015042
0.00022956
-0.00308036
0.000865836
-0.0095913
0.00188618
-0.0169865
0.00325092
-0.0252431
0.00489854
-0.0342671
0.00674506
-0.043894
0.00868895
-0.0539038
0.0106218
-0.0640472
0.0124433
-0.074083
-0.0838074
0.014073
0.000230458
-0.00331082
0.000862354
-0.0102232
0.00186498
-0.0179891
0.00318969
-0.0265678
0.00476611
-0.0358435
0.00650323
-0.0456311
0.00829621
-0.0556967
0.0100387
-0.0657896
0.0116377
-0.0756821
-0.0851953
0.0130256
0.000229814
-0.00354063
0.000852895
-0.0108463
0.0018305
-0.0189667
0.00310531
-0.0278426
0.00459891
-0.0373371
0.00621456
-0.0472468
0.00784579
-0.057328
0.00938986
-0.0673337
0.0107626
-0.0770548
-0.0863416
0.0119089
0.000227546
-0.00376817
0.000837262
-0.011456
0.00178252
-0.019912
0.00299784
-0.0290579
0.00439767
-0.0387369
0.00588096
-0.0487301
0.0073413
-0.0587883
0.00868104
-0.0686734
0.00982566
-0.0781995
-0.0872482
0.0107323
0.000223593
-0.00399177
0.000815335
-0.0120477
0.00172102
-0.0208177
0.00286762
-0.0302045
0.00416355
-0.0400328
0.0055049
-0.0500714
0.00678685
-0.0600703
0.00791817
-0.0698047
0.00883447
-0.0791158
-0.0879187
0.00950492
0.000217913
-0.00420968
0.00078707
-0.0126169
0.00164612
-0.0216767
0.00271528
-0.0312737
0.0038981
-0.0412157
0.00508926
-0.0512626
0.00618698
-0.061168
0.00710745
-0.0707252
0.00779677
-0.0798051
-0.0883574
0.0082355
0.000210487
-0.00442017
0.000752506
-0.0131589
0.00155813
-0.0224823
0.00254172
-0.0322573
0.00360323
-0.0422772
0.00463731
-0.0522967
0.0055465
-0.0620772
0.00625523
-0.0714339
0.00672012
-0.08027
-0.0885698
0.00693248
0.000201317
-0.00462148
0.000711757
-0.0136693
0.00145751
-0.0232281
0.0023481
-0.0331479
0.00328113
-0.0432102
0.0041526
-0.0531681
0.00487045
-0.062795
0.00536785
-0.0719314
0.00561183
-0.0805139
-0.0885616
0.0056037
0.000190427
-0.00481191
0.000665019
-0.0141439
0.00134489
-0.023908
0.00213579
-0.0339388
0.00293427
-0.0440087
0.00363892
-0.0538728
0.00416394
-0.06332
0.00445156
-0.072219
0.00447889
-0.0805413
-0.0883392
0.00425641
0.000177864
-0.00498977
0.000612557
-0.0145786
0.00122101
-0.0245164
0.00190635
-0.0346241
0.00256534
-0.0446677
0.00310023
-0.0544077
0.00343215
-0.063652
0.00351241
-0.0722992
0.00332786
-0.0803567
-0.0879086
0.00289733
0.000163693
-0.00515347
0.000554707
-0.0149696
0.00108675
-0.0250484
0.00166151
-0.0351989
0.00217716
-0.0451833
0.00254058
-0.0547711
0.00268027
-0.0637916
0.00255636
-0.0721753
0.00216449
-0.0799649
-0.0872769
0.00153275
0.000148003
-0.00530147
0.000491862
-0.0153135
0.000943098
-0.0254997
0.00140314
-0.0356589
0.00177269
-0.0455529
0.0019641
-0.0549625
0.0019135
-0.063741
0.00158964
-0.0718514
0.000994237
-0.0793695
-0.086431
0.000148385
0.000130897
-0.00543237
0.000424472
-0.0156071
0.00079112
-0.0258663
0.00113317
-0.036001
0.00135494
-0.0457746
0.00137488
-0.0549824
0.00113681
-0.063503
0.000617912
-0.0713325
-0.000167764
-0.0785838
-0.0854066
-0.00119218
0.000112495
-0.00554486
0.000353026
-0.0158476
0.000631946
-0.0261452
0.000853622
-0.0362227
0.000926927
-0.0458479
0.000776941
-0.0548325
0.000355031
-0.0630811
-0.000354787
-0.0706227
-0.0013359
-0.0776027
-0.0842026
-0.00253994
9.29339e-05
-0.0056378
0.000278049
-0.0160327
0.000466747
-0.0263339
0.000566521
-0.0363224
0.000491664
-0.0457731
0.000174301
-0.0545151
-0.000427081
-0.0624797
-0.00132216
-0.0697277
-0.0024887
-0.0764361
-0.0828172
-0.00387407
7.23584e-05
-0.00571015
0.000200088
-0.0161605
0.000296718
-0.0264306
0.000273884
-0.0362996
5.21985e-05
-0.0455514
-0.000429295
-0.0540336
-0.00120489
-0.0617041
-0.00227931
-0.0686532
-0.00362659
-0.0750888
-0.0812542
-0.00518959
5.09298e-05
-0.00576108
0.000119701
-0.0162292
0.000123051
-0.0264339
-2.21421e-05
-0.0361544
-0.00038898
-0.0451846
-0.00103015
-0.0533924
-0.00197398
-0.0607603
-0.00322131
-0.0674059
-0.0047447
-0.0735654
-0.0795163
-0.00648264
2.88624e-05
-0.00578995
3.74357e-05
-0.0162378
-5.31325e-05
-0.0263434
-0.000320245
-0.0358873
-0.000828955
-0.0446758
-0.00162485
-0.0525965
-0.00273013
-0.059655
-0.00414321
-0.0659928
-0.00583801
-0.0718707
-0.0776048
-0.00774947
5.85593e-06
-0.0057958
-4.61934e-05
-0.0161858
-0.000230731
-0.0261588
-0.000618069
-0.0354999
-0.00126536
-0.0440286
-0.0022103
-0.0516516
-0.00346944
-0.0583958
-0.00504006
-0.0644222
-0.00690108
-0.0700096
-0.0755191
-0.00898675
-1.72905e-05
-0.00577851
-0.000130603
-0.0160724
-0.000408625
-0.0258808
-0.000914197
-0.0349944
-0.00169604
-0.0432467
-0.00278382
-0.0505638
-0.00418845
-0.0569912
-0.00590704
-0.0627036
-0.00792807
-0.0679886
-0.0732558
-0.0101914
-4.06045e-05
-0.00573791
-0.00021528
-0.0158978
-0.000585854
-0.0255102
-0.00120715
-0.0343731
-0.00211913
-0.0423347
-0.00334319
-0.0493397
-0.00488429
-0.0554501
-0.00673961
-0.0608483
-0.00891192
-0.0658163
-0.0708105
-0.0113572
-6.41259e-05
-0.00567378
-0.000299765
-0.0156621
-0.000761497
-0.0250485
-0.00149562
-0.033639
-0.00253307
-0.0412973
-0.00388677
-0.047986
-0.00555494
-0.0537819
-0.00753342
-0.0588698
-0.00983998
-0.0635097
-0.0681724
-0.0124781
-8.76335e-05
-0.00558615
-0.000383587
-0.0153662
-0.000934699
-0.0244974
-0.00177843
-0.0327952
-0.00293661
-0.0401391
-0.00441363
-0.046509
-0.00620013
-0.0519954
-0.00828591
-0.056784
-0.0106979
-0.0610977
-0.065302
-0.0135684
-0.000110977
-0.00547517
-0.000466291
-0.0150109
-0.00110464
-0.023859
-0.00205447
-0.0318454
-0.00332866
-0.0388649
-0.00492352
-0.0449142
-0.00682256
-0.0500964
-0.00900353
-0.0546031
-0.0114269
-0.0586744
-0.0625982
-0.0141306
-0.000134015
-0.00534116
-0.000547436
-0.0145974
-0.00127053
-0.0231359
-0.00232267
-0.0307932
-0.00370809
-0.0374795
-0.00541587
-0.0432064
-0.00742413
-0.0480881
-0.00970663
-0.0523206
-0.0122348
-0.0561462
-0.0598029
-0.0150302
-0.000156612
-0.00518454
-0.000626595
-0.0141275
-0.00143158
-0.022331
-0.00258191
-0.0296429
-0.00407347
-0.0359879
-0.0058887
-0.0413911
-0.00800139
-0.0459754
-0.0103834
-0.0499386
-0.0130108
-0.0535187
-0.05693
-0.0158837
-0.000178636
-0.00500591
-0.000703361
-0.0136027
-0.00158706
-0.0214473
-0.00283113
-0.0283989
-0.00442338
-0.0343957
-0.00634003
-0.0394745
-0.0085508
-0.0437647
-0.0110255
-0.0474638
-0.0137404
-0.0508039
-0.0539837
-0.0166867
-0.000199963
-0.00480594
-0.000777352
-0.0130253
-0.0017363
-0.0204883
-0.00306937
-0.0270658
-0.00475664
-0.0327084
-0.00676839
-0.0374628
-0.00907053
-0.0414625
-0.0116308
-0.0449035
-0.0144247
-0.0480101
-0.0509696
-0.0174388
-0.000220478
-0.00458547
-0.000848218
-0.0123976
-0.00187867
-0.0194579
-0.00329583
-0.0256486
-0.0050723
-0.0309319
-0.0071728
-0.0353623
-0.00955973
-0.0390756
-0.0121991
-0.0422642
-0.0150654
-0.0451438
-0.0478918
-0.0181432
-0.000240074
-0.00434539
-0.000915644
-0.011722
-0.00201365
-0.0183599
-0.00350977
-0.0241525
-0.00536957
-0.0290721
-0.00755257
-0.0331793
-0.010018
-0.0366102
-0.0127303
-0.0395519
-0.0156637
-0.0422104
-0.0447533
-0.0188022
-0.000258655
-0.00408674
-0.000979347
-0.0110013
-0.00214075
-0.0171985
-0.00371062
-0.0225826
-0.00564785
-0.0271349
-0.00790718
-0.0309199
-0.010445
-0.0340723
-0.0132248
-0.0367721
-0.0162207
-0.0392145
-0.0415571
-0.0194169
-0.000276135
-0.0038106
-0.00103907
-0.0102384
-0.00225957
-0.015978
-0.00389785
-0.0209443
-0.0059066
-0.0251262
-0.00823623
-0.0285903
-0.0108407
-0.0314678
-0.0136827
-0.0339301
-0.0167367
-0.0361605
-0.0383058
-0.019988
-0.000292433
-0.00351817
-0.0010946
-0.00943624
-0.00236972
-0.0147028
-0.004071
-0.0192431
-0.00614539
-0.0230518
-0.00853938
-0.0261963
-0.0112049
-0.0288023
-0.0141041
-0.0310309
-0.017212
-0.0330526
-0.0350025
-0.0205153
-0.000307479
-0.00321069
-0.00114571
-0.008598
-0.00247089
-0.0133777
-0.00422968
-0.0174843
-0.00636381
-0.0209176
-0.00881629
-0.0237438
-0.0115373
-0.0260813
-0.0144887
-0.0280795
-0.0176464
-0.0298948
-0.0316506
-0.0209984
-0.000321208
-0.00288948
-0.00119224
-0.00772697
-0.00256278
-0.0120071
-0.00437353
-0.0156735
-0.00656151
-0.0187297
-0.00906666
-0.0212387
-0.0118377
-0.0233102
-0.0148364
-0.0250808
-0.0180396
-0.0266916
-0.0282536
-0.0214366
-0.000333562
-0.00255592
-0.00123401
-0.00682652
-0.00264513
-0.010596
-0.00450223
-0.0138164
-0.00673816
-0.0164937
-0.00929016
-0.0186867
-0.0121058
-0.0204946
-0.0151468
-0.0220398
-0.018391
-0.0234474
-0.0248156
-0.0218291
-0.000344488
-0.00221143
-0.00127089
-0.00590012
-0.00271771
-0.00914917
-0.0046155
-0.0119187
-0.00689345
-0.0142158
-0.0094865
-0.0160936
-0.0123412
-0.0176399
-0.0154196
-0.0189614
-0.0187002
-0.0201668
-0.0213409
-0.0221749
-0.000353941
-0.00185749
-0.00130274
-0.00495132
-0.00278031
-0.00767161
-0.00471308
-0.00998589
-0.00702711
-0.0119017
-0.0096554
-0.0134653
-0.0125438
-0.0147515
-0.0156543
-0.0158508
-0.0189664
-0.0168547
-0.0178342
-0.0224731
-0.00036188
-0.00149561
-0.00132945
-0.00398374
-0.00283275
-0.00616831
-0.00479475
-0.00802389
-0.00713889
-0.0095576
-0.00979659
-0.0108076
-0.012713
-0.0118351
-0.0158506
-0.0127133
-0.0191893
-0.013516
-0.0143004
-0.022723
-0.000368273
-0.00112734
-0.00135094
-0.00300108
-0.00287489
-0.00464437
-0.00486031
-0.00603846
-0.00722858
-0.00718934
-0.00990984
-0.00812637
-0.0128488
-0.00889609
-0.0160081
-0.00955405
-0.0193682
-0.0101559
-0.0107447
-0.0229239
-0.000373092
-0.000754247
-0.00136712
-0.00200705
-0.0029066
-0.00310489
-0.00490962
-0.00403544
-0.007296
-0.00480296
-0.00999495
-0.00542742
-0.0129509
-0.00594016
-0.0161265
-0.00637847
-0.0195027
-0.00677967
-0.00717242
-0.023075
-0.000376316
-0.000377931
-0.00137794
-0.00100543
-0.00292779
-0.00155504
-0.00494257
-0.00202066
-0.00734102
-0.00240451
-0.0100518
-0.00271666
-0.013019
-0.00297291
-0.0162055
-0.00319197
-0.0195926
-0.00339255
-0.00358901
-0.0231761
-0.000377931
-1.97907e-11
-0.00138336
-4.61886e-11
-0.0029384
-6.73445e-11
-0.00495906
-8.59825e-11
-0.00736356
-1.00214e-10
-0.0100802
-1.10466e-10
-0.0130531
-1.17556e-10
-0.0162451
-1.22271e-10
-0.0196377
-1.25345e-10
-1.27501e-10
-0.0232267
-0.000377931
0.000377931
-0.00138336
0.00100543
-0.0029384
0.00155504
-0.00495906
0.00202066
-0.00736356
0.0024045
-0.0100802
0.00271666
-0.0130531
0.00297291
-0.0162451
0.00319197
-0.0196377
0.00339255
0.00358901
-0.0232267
-0.000376316
0.000754247
-0.00137794
0.00200705
-0.00292779
0.00310489
-0.00494257
0.00403544
-0.00734102
0.00480296
-0.0100518
0.00542742
-0.013019
0.00594016
-0.0162055
0.00637847
-0.0195926
0.00677967
0.00717242
-0.0231761
-0.000373092
0.00112734
-0.00136712
0.00300108
-0.0029066
0.00464437
-0.00490962
0.00603846
-0.007296
0.00718934
-0.00999495
0.00812637
-0.0129509
0.00889609
-0.0161265
0.00955405
-0.0195027
0.0101559
0.0107447
-0.023075
-0.000368273
0.00149561
-0.00135094
0.00398374
-0.00287489
0.00616831
-0.00486031
0.00802389
-0.00722858
0.0095576
-0.00990984
0.0108076
-0.0128488
0.0118351
-0.0160081
0.0127133
-0.0193682
0.013516
0.0143004
-0.0229239
-0.00036188
0.00185749
-0.00132945
0.00495132
-0.00283275
0.00767161
-0.00479475
0.00998589
-0.00713889
0.0119017
-0.00979659
0.0134653
-0.012713
0.0147515
-0.0158506
0.0158508
-0.0191893
0.0168547
0.0178342
-0.022723
-0.000353941
0.00221143
-0.00130274
0.00590012
-0.00278031
0.00914917
-0.00471308
0.0119187
-0.00702711
0.0142158
-0.0096554
0.0160936
-0.0125438
0.0176399
-0.0156543
0.0189614
-0.0189664
0.0201668
0.0213409
-0.0224731
-0.000344488
0.00255592
-0.00127089
0.00682652
-0.00271771
0.010596
-0.0046155
0.0138164
-0.00689345
0.0164937
-0.0094865
0.0186867
-0.0123412
0.0204946
-0.0154196
0.0220398
-0.0187002
0.0234474
0.0248156
-0.0221749
-0.000333562
0.00288948
-0.00123401
0.00772697
-0.00264513
0.0120071
-0.00450223
0.0156735
-0.00673816
0.0187297
-0.00929016
0.0212387
-0.0121058
0.0233102
-0.0151468
0.0250808
-0.018391
0.0266916
0.0282536
-0.0218291
-0.000321208
0.00321069
-0.00119224
0.008598
-0.00256278
0.0133777
-0.00437353
0.0174843
-0.00656151
0.0209176
-0.00906666
0.0237438
-0.0118377
0.0260813
-0.0148364
0.0280795
-0.0180396
0.0298948
0.0316506
-0.0214366
-0.000307479
0.00351817
-0.00114571
0.00943624
-0.00247089
0.0147028
-0.00422968
0.0192431
-0.00636381
0.0230518
-0.00881629
0.0261963
-0.0115373
0.0288023
-0.0144887
0.0310309
-0.0176464
0.0330526
0.0350025
-0.0209984
-0.000292433
0.0038106
-0.0010946
0.0102384
-0.00236972
0.015978
-0.004071
0.0209443
-0.00614539
0.0251262
-0.00853938
0.0285903
-0.0112049
0.0314678
-0.0141041
0.0339301
-0.017212
0.0361605
0.0383058
-0.0205153
-0.000276135
0.00408674
-0.00103907
0.0110013
-0.00225957
0.0171985
-0.00389785
0.0225826
-0.0059066
0.0271349
-0.00823623
0.0309199
-0.0108407
0.0340723
-0.0136827
0.0367721
-0.0167367
0.0392145
0.0415571
-0.019988
-0.000258655
0.00434539
-0.000979347
0.011722
-0.00214075
0.0183599
-0.00371062
0.0241525
-0.00564785
0.0290721
-0.00790718
0.0331793
-0.010445
0.0366102
-0.0132248
0.0395519
-0.0162207
0.0422104
0.0447533
-0.0194169
-0.000240074
0.00458547
-0.000915644
0.0123976
-0.00201365
0.0194579
-0.00350977
0.0256486
-0.00536957
0.0309319
-0.00755257
0.0353623
-0.010018
0.0390756
-0.0127303
0.0422642
-0.0156637
0.0451438
0.0478918
-0.0188022
-0.000220478
0.00480594
-0.000848218
0.0130253
-0.00187867
0.0204883
-0.00329583
0.0270658
-0.0050723
0.0327084
-0.0071728
0.0374628
-0.00955973
0.0414625
-0.0121991
0.0449035
-0.0150654
0.0480101
0.0509696
-0.0181432
-0.000199963
0.00500591
-0.000777352
0.0136027
-0.0017363
0.0214473
-0.00306937
0.0283989
-0.00475664
0.0343957
-0.00676839
0.0394745
-0.00907053
0.0437647
-0.0116308
0.0474638
-0.0144247
0.0508039
0.0539837
-0.0174388
-0.000178636
0.00518454
-0.000703361
0.0141275
-0.00158706
0.022331
-0.00283113
0.0296429
-0.00442338
0.0359879
-0.00634003
0.0413911
-0.0085508
0.0459754
-0.0110255
0.0499386
-0.0137404
0.0535187
0.05693
-0.0166867
-0.000156612
0.00534116
-0.000626595
0.0145974
-0.00143158
0.0231359
-0.00258191
0.0307932
-0.00407347
0.0374795
-0.0058887
0.0432064
-0.00800139
0.0480881
-0.0103834
0.0523206
-0.0130108
0.0561462
0.0598029
-0.0158837
-0.000134015
0.00547517
-0.000547436
0.0150109
-0.00127053
0.023859
-0.00232267
0.0318454
-0.00370809
0.0388649
-0.00541587
0.0449142
-0.00742413
0.0500964
-0.00970663
0.0546031
-0.0122348
0.0586744
0.0625982
-0.0150302
-0.000110977
0.00558615
-0.000466291
0.0153662
-0.00110464
0.0244974
-0.00205447
0.0327952
-0.00332866
0.0401391
-0.00492352
0.046509
-0.00682256
0.0519954
-0.00900353
0.056784
-0.0114269
0.0610977
0.065302
-0.0141306
-8.76335e-05
0.00567378
-0.000383587
0.0156621
-0.000934699
0.0250485
-0.00177843
0.033639
-0.00293661
0.0412973
-0.00441363
0.047986
-0.00620013
0.0537819
-0.00828591
0.0588698
-0.0106979
0.0635097
0.0681724
-0.0135684
-6.41259e-05
0.00573791
-0.000299765
0.0158978
-0.000761497
0.0255102
-0.00149562
0.0343731
-0.00253307
0.0423347
-0.00388677
0.0493397
-0.00555494
0.0554501
-0.00753342
0.0608483
-0.00983998
0.0658163
0.0708105
-0.0124781
-4.06045e-05
0.00577851
-0.00021528
0.0160724
-0.000585854
0.0258808
-0.00120715
0.0349944
-0.00211913
0.0432467
-0.00334319
0.0505638
-0.00488429
0.0569912
-0.00673961
0.0627036
-0.00891192
0.0679886
0.0732558
-0.0113572
-1.72905e-05
0.0057958
-0.000130603
0.0161858
-0.000408625
0.0261588
-0.000914197
0.0354999
-0.00169604
0.0440286
-0.00278382
0.0516516
-0.00418845
0.0583958
-0.00590704
0.0644222
-0.00792807
0.0700096
0.0755191
-0.0101914
5.85593e-06
0.00578995
-4.61934e-05
0.0162378
-0.000230731
0.0263434
-0.000618069
0.0358873
-0.00126536
0.0446758
-0.0022103
0.0525965
-0.00346944
0.059655
-0.00504006
0.0659928
-0.00690108
0.0718707
0.0776048
-0.00898675
2.88624e-05
0.00576108
3.74357e-05
0.0162292
-5.31325e-05
0.0264339
-0.000320245
0.0361544
-0.000828955
0.0451846
-0.00162485
0.0533924
-0.00273013
0.0607603
-0.00414321
0.0674059
-0.00583801
0.0735654
0.0795163
-0.00774947
5.09298e-05
0.00571015
0.000119701
0.0161605
0.000123051
0.0264306
-2.21421e-05
0.0362996
-0.00038898
0.0455514
-0.00103015
0.0540336
-0.00197398
0.0617041
-0.00322131
0.0686532
-0.0047447
0.0750888
0.0812542
-0.00648264
7.23584e-05
0.0056378
0.000200088
0.0160327
0.000296718
0.0263339
0.000273884
0.0363224
5.21984e-05
0.0457731
-0.000429295
0.0545151
-0.00120489
0.0624797
-0.00227931
0.0697277
-0.00362659
0.0764361
0.0828172
-0.00518959
9.29339e-05
0.00554486
0.000278049
0.0158476
0.000466747
0.0261452
0.000566521
0.0362227
0.000491664
0.0458479
0.000174301
0.0548325
-0.000427081
0.0630811
-0.00132216
0.0706227
-0.00248871
0.0776027
0.0842026
-0.00387407
0.000112495
0.00543237
0.000353026
0.0156071
0.000631946
0.0258663
0.000853622
0.036001
0.000926927
0.0457746
0.000776941
0.0549824
0.000355031
0.063503
-0.000354787
0.0713325
-0.0013359
0.0785838
0.0854066
-0.00253994
0.000130897
0.00530147
0.000424472
0.0153135
0.00079112
0.0254997
0.00113317
0.0356589
0.00135494
0.0455529
0.00137488
0.0549625
0.00113681
0.063741
0.000617912
0.0718514
-0.000167764
0.0793695
0.086431
-0.00119218
0.000148003
0.00515347
0.000491862
0.0149696
0.000943098
0.0250484
0.00140314
0.0351989
0.00177269
0.0451833
0.0019641
0.0547711
0.0019135
0.0637916
0.00158964
0.0721753
0.000994237
0.0799649
0.0872769
0.000148385
0.000163693
0.00498977
0.000554707
0.0145786
0.00108675
0.0245164
0.00166151
0.0346241
0.00217716
0.0446677
0.00254058
0.0544077
0.00268027
0.063652
0.00255636
0.0722992
0.00216449
0.0803567
0.0879086
0.00153275
0.000177864
0.00481191
0.000612557
0.0141439
0.00122101
0.023908
0.00190635
0.0339388
0.00256534
0.0440087
0.00310023
0.0538728
0.00343215
0.06332
0.00351241
0.072219
0.00332786
0.0805413
0.0883392
0.00289733
0.000190427
0.00462148
0.000665019
0.0136693
0.00134489
0.0232281
0.00213579
0.0331479
0.00293427
0.0432102
0.00363892
0.0531681
0.00416394
0.062795
0.00445156
0.0719314
0.00447889
0.0805139
0.0885616
0.00425641
0.000201317
0.00442017
0.000711757
0.0131589
0.00145751
0.0224823
0.0023481
0.0322573
0.00328113
0.0422772
0.0041526
0.0522967
0.00487045
0.0620772
0.00536785
0.0714339
0.00561183
0.08027
0.0885698
0.0056037
0.000210487
0.00420968
0.000752506
0.0126169
0.00155813
0.0216767
0.00254172
0.0312737
0.00360323
0.0412157
0.00463731
0.0512626
0.0055465
0.061168
0.00625523
0.0707252
0.00672012
0.0798051
0.0883574
0.00693248
0.000217913
0.00399177
0.00078707
0.0120477
0.00164612
0.0208177
0.00271528
0.0302045
0.0038981
0.0400328
0.00508926
0.0500714
0.00618698
0.0600703
0.00710745
0.0698047
0.00779677
0.0791158
0.0879187
0.0082355
0.000223593
0.00376817
0.000815335
0.011456
0.00172102
0.019912
0.00286762
0.0290579
0.00416355
0.0387369
0.0055049
0.0487301
0.00678685
0.0587883
0.00791817
0.0686734
0.00883447
0.0781995
0.0872482
0.00950492
0.000227546
0.00354063
0.000837262
0.0108463
0.00178252
0.0189667
0.00299784
0.0278426
0.00439767
0.0373371
0.00588096
0.0472468
0.0073413
0.057328
0.00868104
0.0673337
0.00982566
0.0770548
0.0863416
0.0107323
0.000229814
0.00331082
0.000852895
0.0102232
0.0018305
0.0179891
0.00310531
0.0265678
0.00459891
0.0358435
0.00621456
0.0456311
0.00784579
0.0556967
0.00938986
0.0657896
0.0107626
0.0756821
0.0851953
0.0119089
0.000230458
0.00308036
0.000862354
0.0095913
0.00186498
0.0169865
0.00318969
0.0252431
0.00476611
0.0342671
0.00650323
0.043894
0.00829621
0.0539038
0.0100387
0.0640472
0.0116377
0.074083
0.0838074
0.0130256
0.00022956
0.0028508
0.000865836
0.00895502
0.00188618
0.0159662
0.00325092
0.0238783
0.00489854
0.0326194
0.00674506
0.0420475
0.00868895
0.0519599
0.0106218
0.0621143
0.0124433
0.0722615
0.0821777
0.014073
0.000227216
0.00262358
0.000863607
0.00831863
0.00189446
0.0149353
0.00328924
0.0224836
0.0049959
0.0309128
0.00693869
0.0401047
0.00902102
0.0498775
0.0111344
0.0600009
0.0131722
0.0702237
0.080308
0.015042
0.000223538
0.00240004
0.000855996
0.00768617
0.00189036
0.0139009
0.00330521
0.0210687
0.00505838
0.0291596
0.00708338
0.0380797
0.00929019
0.0476707
0.0115721
0.057719
0.0138179
0.0679779
0.0782021
0.0159238
0.00021865
0.00218139
0.000843385
0.00706144
0.00187453
0.0128698
0.00329962
0.0196436
0.00508661
0.0273726
0.00717907
0.0359872
0.00949505
0.0453548
0.0119315
0.0552825
0.0143745
0.0655349
0.0758665
0.0167101
0.000212682
0.00196871
0.000826198
0.00644792
0.00184776
0.0118482
0.00327353
0.0182178
0.00508164
0.0255645
0.00722634
0.0338425
0.00963505
0.042946
0.0122103
0.0527072
0.0148375
0.0629077
0.0733103
0.0173937
0.000205771
0.00176294
0.000804886
0.0058488
0.00181091
0.0108422
0.00322821
0.0168006
0.00504492
0.0237478
0.00722641
0.031661
0.00971061
0.0404618
0.0124074
0.0500104
0.0152036
0.0601116
0.0705448
0.0179691
0.00019805
0.00156489
0.000779911
0.00526694
0.00176491
0.0098572
0.00316506
0.0154004
0.00497824
0.0219346
0.0071811
0.0294582
0.009723
0.0379199
0.0125229
0.0472105
0.015471
0.0571635
0.0675837
0.0184321
0.000189649
0.00137524
0.00075173
0.00470486
0.0017107
0.00889824
0.0030856
0.0140255
0.0048836
0.0201366
0.00709267
0.0272491
0.00967431
0.0353383
0.0125581
0.0443267
0.0156398
0.0540818
0.0644422
0.0187813
0.000180687
0.00119455
0.00072078
0.00416477
0.0016492
0.00796982
0.00299134
0.0126834
0.00476314