/*--------------------------------*- C++ -*----------------------------------*\
  =========                 |
  \\      /  F ield         | OpenFOAM: The Open Source CFD Toolbox
   \\    /   O peration     | Website:  https://openfoam.org
    \\  /    A nd           | Version:  7
     \\/     M anipulation  |
\*---------------------------------------------------------------------------*/
FoamFile
{
    version     2.0;
    format      ascii;
    class       volVectorField;
    location    "35";
    object      U;
}
// * * * * * * * * * * * * * * * * * * * * * * * * * * * * * * * * * * * * * //

dimensions      [0 1 -1 0 0 0 0];

internalField   nonuniform List<vector> 
8500
(
(-0.00076023 0.000601242 3.61835e-22)
(-0.00384224 0.00130988 -1.15849e-21)
(-0.0092904 0.00165784 -1.42753e-21)
(-0.0153853 0.00174082 1.49022e-21)
(-0.0213842 0.0016309 -1.43269e-21)
(-0.0267512 0.00139414 -7.91983e-22)
(-0.0311269 0.00109191 1.39402e-21)
(-0.0343765 0.000781652 1.7753e-21)
(-0.0365505 0.000510963 -2.94974e-22)
(-0.037751 0.000323046 8.82231e-22)
(-0.000843715 0.00179043 -4.00606e-22)
(-0.0039804 0.0038977 1.37621e-21)
(-0.00936327 0.00492964 -3.42118e-21)
(-0.0153034 0.00517123 3.25767e-21)
(-0.0210706 0.0048376 1.53183e-22)
(-0.0261387 0.00412611 2.58641e-21)
(-0.0301565 0.00322027 -4.63415e-21)
(-0.0329985 0.0022923 -6.94751e-21)
(-0.0347239 0.00148576 -1.38048e-21)
(-0.0353887 0.000933124 3.17796e-21)
(-0.00100723 0.00294004 3.73352e-22)
(-0.00424837 0.00639036 3.03894e-21)
(-0.00949759 0.00807077 7.547e-21)
(-0.0151264 0.00844907 -7.15801e-21)
(-0.0204291 0.00788031 -1.68355e-21)
(-0.0248991 0.00669053 -1.5844e-21)
(-0.0282012 0.00518369 8.40566e-21)
(-0.0302288 0.00364632 5.36207e-21)
(-0.0310587 0.00231983 1.31376e-21)
(-0.030651 0.00143442 -9.85137e-21)
(-0.00124395 0.00402478 1.32465e-21)
(-0.00462963 0.00872682 -1.77732e-21)
(-0.0096706 0.0109973 -1.41111e-20)
(-0.0148275 0.0114765 1.30599e-21)
(-0.0194306 0.010654 4.22985e-21)
(-0.0230028 0.00898038 -3.40982e-21)
(-0.025232 0.00687707 -1.57063e-22)
(-0.0260394 0.00474386 -1.46246e-21)
(-0.0255316 0.00292265 3.38472e-21)
(-0.02351 0.00175559 9.8052e-21)
(-0.00154381 0.00502086 9.26706e-22)
(-0.00509968 0.0108495 -5.7978e-21)
(-0.0098484 0.01363 1.46278e-20)
(-0.0143665 0.0141612 -7.00185e-21)
(-0.0180318 0.0130602 -2.75152e-23)
(-0.020405 0.0108957 1.04263e-20)
(-0.0212047 0.0082026 -4.92313e-21)
(-0.0203882 0.0054921 5.27602e-22)
(-0.0181082 0.00321296 -2.1523e-21)
(-0.0139257 0.00185284 7.73992e-22)
(-0.00189378 0.00590657 1.11568e-20)
(-0.0056264 0.0127053 1.49505e-20)
(-0.0099862 0.0158962 -4.00266e-21)
(-0.0136904 0.0164189 8.0231e-21)
(-0.0161744 0.0150093 2.65592e-21)
(-0.0170458 0.0123464 -3.89631e-21)
(-0.0160601 0.00907288 -1.57739e-21)
(-0.0132164 0.00580884 -6.89179e-21)
(-0.00873085 0.00312159 1.56264e-21)
(-0.00187442 0.00175573 -9.07309e-21)
(-0.00227803 0.00666258 -1.07672e-20)
(-0.00617049 0.0142469 -7.79885e-21)
(-0.0100287 0.0177308 6.76109e-21)
(-0.0127329 0.0181749 -1.22437e-20)
(-0.0137858 0.016423 1.46692e-21)
(-0.0128494 0.013255 1.53937e-20)
(-0.00972283 0.00941434 -2.89755e-21)
(-0.00444954 0.00562888 1.90035e-20)
(0.00271106 0.00257566 -4.6542e-22)
(0.0126618 0.00133271 -7.98322e-21)
(-0.00267825 0.00727229 9.21185e-21)
(-0.0066859 0.0154334 -1.8307e-20)
(-0.00991031 0.0190781 -7.64332e-21)
(-0.0114148 0.019366 9.2934e-21)
(-0.0107783 0.0172366 3.66271e-22)
(-0.00772419 0.0135595 -2.89757e-20)
(-0.00209933 0.00916929 -1.77786e-21)
(0.00599395 0.00489333 -1.51552e-20)
(0.016265 0.00152209 -1.98658e-20)
(0.0298534 0.000484973 1.17393e-20)
(-0.00307392 0.00772194 -5.15566e-21)
(-0.0071203 0.0162308 2.72627e-21)
(-0.00955598 0.0198927 7.10681e-21)
(-0.00964489 0.0199422 -6.73805e-21)
(-0.00705006 0.0174015 -2.4238e-20)
(-0.00156327 0.0132163 8.55912e-21)
(0.00691621 0.00829994 1.2355e-21)
(0.0182234 0.00356822 2.28502e-20)
(0.0320215 -5.08462e-05 3.04629e-20)
(0.0497803 -0.000730161 -1.3861e-20)
(-0.00344245 0.00800067 8.32714e-21)
(-0.00741559 0.0166124 8.33225e-21)
(-0.00888138 0.0201401 -1.21159e-21)
(-0.00731964 0.0198679 3.33783e-20)
(-0.0024849 0.0168865 1.47549e-20)
(0.00575621 0.0122032 1.14198e-20)
(0.0174473 0.00679499 1.65466e-20)
(0.032359 0.00165389 -7.38763e-21)
(0.0500961 -0.00215441 -1.01799e-20)
(0.072538 -0.00229677 -1.69556e-20)
(-0.00375951 0.00810047 -6.18126e-22)
(-0.00750841 0.0165593 -1.32547e-20)
(-0.00779377 0.0197976 -9.98807e-21)
(-0.00432448 0.0191226 -1.6589e-20)
(0.00304685 0.0156792 -1.35172e-20)
(0.0143725 0.0105206 1.42519e-20)
(0.0296341 0.00467018 -1.3952e-20)
(0.0485351 -0.000822798 -9.80993e-21)
(0.0706148 -0.00476578 1.335e-21)
(0.0982401 -0.00419037 4.38472e-21)
(-0.00399901 0.00801596 -2.35122e-20)
(-0.00733071 0.0160601 1.22264e-20)
(-0.0061929 0.0188542 9.25269e-21)
(-0.000534816 0.0177018 6.5682e-21)
(0.00968719 0.0137874 -1.22764e-20)
(0.024438 0.00819384 -1.0564e-20)
(0.0436313 0.00197124 1.57684e-20)
(0.0669004 -0.00379962 -1.31807e-20)
(0.0937129 -0.00782192 -9.37474e-22)
(0.127008 -0.00635601 -1.41677e-20)
(-0.00413323 0.00774463 2.00651e-20)
(-0.00681026 0.0151114 8.91122e-21)
(-0.00397227 0.0173111 4.68708e-22)
(0.00418234 0.0156167 -1.19732e-20)
(0.0175884 0.0112385 7.34123e-22)
(0.0361172 0.00527285 1.42125e-20)
(0.0596073 -0.00122418 -4.10332e-21)
(0.0876162 -0.00717338 -5.10466e-21)
(0.119534 -0.0112137 -1.15298e-20)
(0.158961 -0.00870196 2.12969e-20)
(-0.00413333 0.00728657 1.41106e-20)
(-0.00587159 0.0137169 -2.43472e-20)
(-0.00102059 0.0151814 -1.9546e-20)
(0.00996601 0.0128943 8.86266e-21)
(0.0269104 0.00807891 1.84711e-20)
(0.0495841 0.00183125 1.61882e-20)
(0.077741 -0.00480693 -1.7446e-20)
(0.110854 -0.0107971 3.42693e-20)
(0.148229 -0.014776 -1.06337e-20)
(0.194207 -0.0110888 -2.54146e-20)
(-0.00396924 0.00664443 -2.07741e-20)
(-0.00443712 0.0118886 1.36602e-20)
(0.00277604 0.0124901 -7.01579e-21)
(0.0169581 0.0095763 8.32635e-22)
(0.0378164 0.00437228 8.0472e-21)
(0.0650174 -0.0020369 -2.54419e-20)
(0.0982186 -0.00864031 2.28816e-20)
(0.136794 -0.0144809 -2.29238e-20)
(0.179956 -0.0182787 3.6906e-20)
(0.232839 -0.0133186 1.3279e-20)
(-0.00361015 0.00582372 4.70558e-21)
(-0.00242847 0.00964638 2.7165e-20)
(0.00753137 0.00927404 -7.34561e-21)
(0.0252991 0.00571836 7.45405e-21)
(0.0504674 0.000196831 9.09421e-21)
(0.0825937 -0.0062225 -2.90974e-21)
(0.121227 -0.0125682 2.01096e-20)
(0.165624 -0.0180002 1.21196e-21)
(0.214888 -0.0214253 -2.33655e-20)
(0.274932 -0.0151273 3.21465e-20)
(-0.00302504 0.0048331 -1.22707e-20)
(0.000231736 0.00701875 -2.60697e-20)
(0.0133557 0.00558187 2.33918e-20)
(0.0351231 0.001389 1.23034e-20)
(0.0650146 -0.00435793 -5.7672e-20)
(0.102478 -0.0106087 4.84297e-20)
(0.146943 -0.0164282 -4.42143e-20)
(0.197527 -0.0211116 9.03949e-22)
(0.253211 -0.0238438 -1.00697e-20)
(0.320545 -0.0161212 -2.96942e-20)
(-0.00218343 0.00368478 1.10535e-20)
(0.00361769 0.0040431 -1.83204e-21)
(0.0203522 0.00147425 -5.74112e-21)
(0.0465517 -0.003331 -5.86287e-22)
(0.0815909 -0.00919431 -4.02226e-21)
(0.124814 -0.0150801 -1.51944e-20)
(0.175521 -0.0200728 6.35271e-21)
(0.232675 -0.023578 -1.07466e-20)
(0.295091 -0.0250225 3.47074e-21)
(0.369563 -0.0155041 1.73461e-21)
(-0.00105626 0.00239492 -2.26925e-20)
(0.00779809 0.000766539 -2.00475e-21)
(0.0286123 -0.00297541 2.88668e-21)
(0.0596868 -0.00834847 1.31796e-21)
(0.100299 -0.0142088 1.91714e-20)
(0.149703 -0.0195338 -5.78297e-20)
(0.207086 -0.0234042 3.93487e-20)
(0.271275 -0.0252309 -3.02304e-20)
(0.340817 -0.0243077 2.5134e-20)
(0.421535 -0.0119372 2.66439e-20)
(0.000383136 0.000984051 -2.90691e-21)
(0.0128337 -0.00275337 1.36034e-20)
(0.0382123 -0.00767983 -1.75528e-20)
(0.0746038 -0.0135562 -5.65014e-21)
(0.1212 -0.0192907 1.13269e-20)
(0.177183 -0.0238868 5.5418e-20)
(0.241686 -0.0264182 -1.11527e-20)
(0.313601 -0.0261358 5.47199e-21)
(0.391469 -0.0215641 -3.00121e-20)
(0.47776 -0.0056321 1.46489e-20)
(0.00215817 -0.000522708 -8.65998e-21)
(0.0187755 -0.00644813 -7.21098e-21)
(0.0492094 -0.0125363 1.99504e-21)
(0.0913458 -0.0188286 7.21918e-21)
(0.144294 -0.0243131 -2.22037e-20)
(0.207181 -0.0280583 -9.15735e-21)
(0.27914 -0.0291904 -2.95477e-20)
(0.359461 -0.0267777 3.02987e-20)
(0.448204 -0.0185544 3.31374e-20)
(0.548221 -0.00252095 -1.22225e-20)
(0.00428834 -0.00209572 -4.32789e-21)
(0.025663 -0.0102381 1.80886e-20)
(0.0616413 -0.0174253 -2.04941e-20)
(0.109923 -0.024017 -2.56696e-21)
(0.169527 -0.0291153 -1.04464e-20)
(0.239505 -0.0319114 2.291e-20)
(0.318951 -0.0317084 2.98331e-20)
(0.407336 -0.0277848 -2.93262e-20)
(0.505397 -0.0187326 3.28201e-20)
(0.612845 -0.00949722 5.38507e-21)
(0.00678897 -0.00370131 -1.2449e-20)
(0.0335247 -0.0140334 -3.66326e-20)
(0.0755261 -0.022211 3.69859e-20)
(0.130316 -0.0289473 5.44263e-21)
(0.196805 -0.0334917 7.96409e-21)
(0.273919 -0.0352075 5.352e-21)
(0.360608 -0.0336582 2.31976e-20)
(0.456175 -0.0285123 1.72706e-20)
(0.561055 -0.0192704 -6.32967e-20)
(0.671621 -0.0143828 -3.24326e-20)
(0.00967124 -0.00530249 -4.21686e-20)
(0.0423771 -0.0177356 9.01931e-21)
(0.0908643 -0.0267439 -2.12174e-20)
(0.152486 -0.0334253 4.08728e-21)
(0.226015 -0.0372036 6.83994e-21)
(0.3102 -0.0376462 -5.0507e-20)
(0.403734 -0.0346013 2.31507e-20)
(0.505517 -0.0281175 -1.56444e-20)
(0.615211 -0.0182695 1.69305e-20)
(0.727042 -0.0148824 -6.74689e-21)
(0.0129423 -0.00685996 1.5461e-20)
(0.0522256 -0.0212401 1.78907e-20)
(0.107639 -0.0308657 -1.17646e-21)
(0.176372 -0.037246 -5.91492e-21)
(0.257032 -0.0400011 6.68256e-23)
(0.348136 -0.0389212 2.17744e-22)
(0.448046 -0.034137 -3.49998e-20)
(0.555145 -0.0260268 4.87389e-21)
(0.668228 -0.0150352 4.6599e-20)
(0.780443 -0.0113636 2.22008e-20)
(0.0166054 -0.00833292 -1.0473e-20)
(0.063064 -0.0244386 -8.14787e-21)
(0.125816 -0.0344141 3.62437e-20)
(0.201893 -0.0402023 8.83096e-22)
(0.28971 -0.0416389 -1.62014e-20)
(0.387514 -0.03875 4.40964e-20)
(0.493286 -0.0319415 1.00147e-20)
(0.604862 -0.0218789 7.82176e-22)
(0.720227 -0.00927543 -2.02373e-20)
(0.832101 -0.00417519 -2.82777e-20)
(0.0206598 -0.00967983 2.20213e-20)
(0.0748741 -0.0272219 -6.51195e-21)
(0.145342 -0.0372273 -3.88607e-21)
(0.228945 -0.0420932 -1.57219e-20)
(0.323884 -0.0418883 2.60112e-20)
(0.428103 -0.0368877 -1.30949e-20)
(0.539183 -0.0277682 -1.52328e-20)
(0.654425 -0.0154574 -3.54158e-21)
(0.771103 -0.000893818 -1.19482e-20)
(0.881905 0.0063212 1.38335e-20)
(0.0251006 -0.0108589 -8.174e-21)
(0.0876249 -0.0294814 -5.12512e-20)
(0.166144 -0.0391483 5.49938e-21)
(0.257398 -0.0427294 1.93323e-20)
(0.359358 -0.040545 1.43993e-20)
(0.469646 -0.0331329 -4.89157e-20)
(0.585436 -0.0214449 3.2433e-20)
(0.703533 -0.00666009 -1.51407e-20)
(0.820623 0.0100654 2.39523e-20)
(0.929593 0.0197187 6.83224e-21)
(0.0299183 -0.0118287 -8.86806e-21)
(0.101272 -0.0311112 1.8289e-20)
(0.188128 -0.0400279 2.44001e-20)
(0.287098 -0.0419382 -1.80065e-20)
(0.395908 -0.0374332 6.79438e-21)
(0.511853 -0.0273312 -4.3172e-20)
(0.63171 -0.0128674 -8.21609e-21)
(0.751844 0.00452594 7.27309e-21)
(0.868473 0.023468 -1.83308e-20)
(0.974843 0.0356063 -1.96778e-20)
(0.0350985 -0.012548 -1.13207e-20)
(0.115757 -0.0320097 -3.82611e-21)
(0.211178 -0.0397277 -4.40304e-20)
(0.31786 -0.0395666 -7.03355e-21)
(0.43328 -0.0324097 -6.67651e-22)
(0.554404 -0.0193745 2.66936e-21)
(0.67764 -0.00199232 4.4868e-21)
(0.798981 0.0180448 -2.32146e-20)
(0.914307 0.0391237 4.39826e-22)
(1.01732 0.0535856 1.37791e-20)
(0.0406213 -0.012977 -2.85953e-21)
(0.131006 -0.0320805 1.50428e-20)
(0.235155 -0.0381221 2.157e-20)
(0.349475 -0.0354844 1.3909e-20)
(0.471192 -0.0253651 -4.23438e-21)
(0.596957 -0.00920017 -3.64371e-21)
(0.722845 0.0111695 3.75125e-20)
(0.844557 0.0337872 5.43421e-21)
(0.957772 0.0568072 1.8449e-20)
(1.05673 0.073277 -8.21442e-21)
(0.0464607 -0.0130768 2.81151e-20)
(0.146929 -0.0312345 1.93091e-20)
(0.2599 -0.0351008 -2.02539e-20)
(0.381707 -0.0295865 -4.12394e-21)
(0.509337 -0.0162249 2.20945e-21)
(0.639147 0.00321048 -8.5744e-21)
(0.76693 0.0265595 -1.93834e-20)
(0.888187 0.0516012 -3.22482e-21)
(0.998532 0.0762702 1.70362e-22)
(1.09281 0.0943225 9.01693e-21)
(0.0525844 -0.0128108 3.21256e-21)
(0.163423 -0.029391 -1.05199e-20)
(0.285231 -0.0305705 2.57346e-20)
(0.4143 -0.021794 1.72646e-20)
(0.547391 -0.00495033 4.95393e-22)
(0.680601 0.0178345 1.32912e-20)
(0.809505 0.044077 2.01008e-21)
(0.929506 0.0713017 -1.54481e-20)
(1.03629 0.0972509 1.37009e-20)
(1.12536 0.116388 1.45548e-22)
(0.0589538 -0.012145 -2.28435e-20)
(0.180368 -0.0264794 -7.14156e-21)
(0.310948 -0.0244571 -6.74572e-21)
(0.446977 -0.0120563 -1.20239e-20)
(0.585013 0.00846187 2.91258e-21)
(0.72094 0.0346096 7.98136e-23)
(0.850191 0.0635844 1.08106e-20)
(0.968175 0.0926775 -1.82703e-21)
(1.07078 0.119481 -1.41516e-20)
(1.15424 0.139167 -1.35622e-20)
(0.0655234 -0.0110487 1.8166e-21)
(0.19763 -0.0224412 1.13583e-20)
(0.336832 -0.0167076 5.60546e-21)
(0.479445 -0.000352246 -1.84407e-20)
(0.621857 0.0239797 -1.01065e-21)
(0.759793 0.0534366 -8.83105e-21)
(0.888631 0.0849123 2.42201e-22)
(1.0039 0.115498 4.59795e-21)
(1.10181 0.142693 -5.36424e-21)
(1.17936 0.162376 1.53507e-20)
(0.0722415 -0.00949567 4.18647e-21)
(0.215062 -0.017231 -1.09071e-20)
(0.362653 -0.00729115 -2.6719e-20)
(0.511404 0.0133093 2.57355e-20)
(0.657576 0.0415366 -2.0446e-21)
(0.796802 0.0741827 6.36497e-21)
(0.924495 0.107865 -9.64647e-22)
(1.03641 0.13952 6.85207e-21)
(1.12923 0.166621 -5.2917e-22)
(1.2007 0.185762 -1.18685e-20)
(0.0790504 -0.00746457 -8.33579e-21)
(0.232504 -0.010819 1.39805e-20)
(0.388167 0.00379858 1.20901e-20)
(0.542546 0.0288889 -1.81833e-20)
(0.691827 0.0610328 -3.17235e-21)
(0.831625 0.0966843 1.2935e-21)
(0.957491 0.132223 1.38944e-20)
(1.06552 0.164491 7.62028e-22)
(1.15294 0.191009 2.97311e-21)
(1.21829 0.209097 -6.62506e-21)
(0.0858869 -0.00494016 6.29837e-21)
(0.249788 -0.00319177 -6.03919e-21)
(0.413122 0.0165429 -5.23119e-21)
(0.572563 0.0463163 9.56759e-21)
(0.724279 0.0823369 3.54525e-21)
(0.863951 0.120751 2.86649e-21)
(0.987364 0.157752 -1.41357e-20)
(1.09106 0.190156 -5.13204e-21)
(1.17289 0.215612 -4.77279e-21)
(1.23219 0.232176 2.18504e-21)
(0.0926831 -0.00191394 -3.00946e-21)
(0.266738 0.00564582 -6.39051e-23)
(0.437264 0.0308968 9.88159e-21)
(0.601152 0.0654908 -3.86218e-21)
(0.754619 0.105288 -1.79192e-21)
(0.893497 0.146168 -1.26914e-21)
(1.0139 0.184205 3.4279e-21)
(1.11292 0.21626 6.24644e-21)
(1.18908 0.240198 -1.98326e-22)
(1.24251 0.254818 2.40683e-21)
(0.0993675 0.00161516 2.09713e-21)
(0.283174 0.01567 -6.36299e-22)
(0.460338 0.0467891 -1.74363e-21)
(0.628021 0.0862828 -1.67283e-21)
(0.782556 0.129698 1.63309e-21)
(0.920014 0.172704 1.37565e-21)
(1.03694 0.211324 -1.34418e-21)
(1.13103 0.242554 5.22402e-22)
(1.20156 0.264548 7.56199e-22)
(1.24937 0.276863 -1.0202e-21)
(0.105866 0.00564016 1.0753e-21)
(0.298914 0.0268373 3.42852e-22)
(0.482096 0.0641222 -2.07434e-21)
(0.652892 0.108535 -1.78365e-21)
(0.807826 0.155355 2.01012e-21)
(0.943295 0.200107 4.19681e-22)
(1.05636 0.23885 -1.08224e-21)
(1.14537 0.268792 1.0633e-21)
(1.21039 0.28846 6.14353e-22)
(1.25293 0.298169 -7.08074e-22)
(0.112104 0.0101457 -4.38832e-22)
(0.313778 0.039084 8.99185e-22)
(0.502297 0.0827726 6.24868e-21)
(0.675509 0.132062 -2.98695e-21)
(0.830197 0.182026 -1.64382e-21)
(0.963167 0.228119 -2.00166e-21)
(1.07206 0.266521 4.34775e-21)
(1.15597 0.294741 3.05984e-21)
(1.21569 0.311744 2.52867e-21)
(1.25336 0.318609 1.38144e-21)
(0.118004 0.0151076 8.14252e-21)
(0.32759 0.0523269 -4.79025e-21)
(0.520714 0.102593 -5.9545e-21)
(0.695635 0.15666 8.64255e-21)
(0.849469 0.209462 4.95806e-21)
(0.979502 0.25647 -3.67466e-22)
(1.08402 0.294078 -7.20517e-21)
(1.16287 0.320175 -5.50767e-21)
(1.21758 0.334228 -5.85348e-21)
(1.25084 0.338071 3.45303e-21)
(0.123494 0.0204931 -1.0868e-20)
(0.340182 0.0664631 1.08815e-20)
(0.537138 0.123411 1.32072e-20)
(0.713067 0.182099 -1.42867e-20)
(0.865479 0.237399 -5.49521e-21)
(0.99221 0.284888 3.83392e-21)
(1.09224 0.321268 7.56678e-21)
(1.16616 0.344882 1.22485e-21)
(1.21622 0.355749 -1.63812e-22)
(1.24555 0.356454 -4.56114e-21)
(0.128502 0.0262607 -1.45258e-21)
(0.351398 0.0813715 -1.49188e-20)
(0.55138 0.145038 -1.70839e-20)
(0.727627 0.208135 2.10819e-20)
(0.878102 0.265564 -2.56852e-21)
(1.00124 0.3131 5.24908e-21)
(1.09674 0.347843 1.12281e-21)
(1.16594 0.368661 -3.33976e-21)
(1.21175 0.376161 1.8658e-21)
(1.23767 0.373667 -1.01277e-22)
(0.13296 0.0323609 2.94348e-21)
(0.361094 0.0969139 8.92395e-21)
(0.563275 0.167262 5.58669e-21)
(0.739173 0.23451 -4.70781e-21)
(0.887251 0.293677 -7.88895e-21)
(1.00658 0.340835 -8.37133e-21)
(1.09759 0.373567 -1.80846e-21)
(1.16235 0.391323 4.85271e-21)
(1.20437 0.395327 -1.06874e-21)
(1.22741 0.389627 2.46229e-21)
(0.136806 0.038736 -1.04266e-20)
(0.369144 0.112937 -1.07905e-20)
(0.572686 0.189859 -1.74116e-21)
(0.747597 0.260955 -2.1714e-21)
(0.892877 0.321456 -5.63798e-21)
(1.00826 0.367829 3.93967e-21)
(1.09489 0.398214 -7.88611e-22)
(1.15554 0.412694 -4.34718e-21)
(1.19424 0.413118 3.99168e-21)
(1.21494 0.40426 -5.20296e-21)
(0.139986 0.0453218 2.97903e-21)
(0.375441 0.129275 9.05857e-21)
(0.579503 0.212593 8.39709e-21)
(0.752827 0.287195 1.01021e-20)
(0.89497 0.348623 4.07652e-22)
(1.00633 0.393824 1.06649e-20)
(1.08876 0.421571 5.99349e-22)
(1.14566 0.43261 -1.377e-20)
(1.18154 0.429415 9.85294e-21)
(1.20041 0.41749 3.7225e-21)
(0.142451 0.0520475 6.49583e-21)
(0.379898 0.14575 1.51172e-20)
(0.58365 0.235218 -2.35079e-21)
(0.754827 0.312951 -1.23251e-20)
(0.893556 0.3749 6.33299e-21)
(1.00089 0.418576 -7.30771e-21)
(1.07934 0.443439 -9.97362e-21)
(1.13289 0.450927 -3.8867e-22)
(1.16644 0.444122 -7.52676e-21)
(1.18389 0.429201 2.68527e-21)
(0.144164 0.0588374 2.59218e-21)
(0.382451 0.162178 1.49889e-21)
(0.58508 0.257483 1.97373e-20)
(0.7536 0.337948 4.3238e-21)
(0.888698 0.40002 -3.93448e-21)
(0.992055 0.441851 -2.43448e-21)
(1.06679 0.463636 1.4302e-20)
(1.11742 0.467517 1.19605e-20)
(1.14914 0.457207 5.86243e-21)
(1.16568 0.439273 -5.65753e-22)
(0.145094 0.0656118 4.24047e-22)
(0.38306 0.178367 -1.4876e-20)
(0.583779 0.279136 -2.25086e-20)
(0.749181 0.361912 6.93679e-22)
(0.880492 0.423725 6.02415e-21)
(0.979976 0.463431 -8.2455e-21)
(1.05131 0.481988 -1.96262e-20)
(1.09943 0.482239 -5.87808e-21)
(1.12981 0.468546 -2.92291e-22)
(1.14603 0.447796 1.14525e-21)
(0.145223 0.0722882 -4.10663e-21)
(0.381709 0.194124 1.0623e-20)
(0.579767 0.299926 1.28363e-20)
(0.741644 0.384579 -1.30142e-20)
(0.869066 0.44577 2.2771e-21)
(0.964826 0.483114 1.81277e-20)
(1.03307 0.498346 -2.96851e-21)
(1.07912 0.494997 3.20744e-21)
(1.10858 0.478026 -5.87323e-22)
(1.12502 0.454674 -3.88768e-22)
(0.144542 0.0787826 -7.92953e-21)
(0.378406 0.209256 -1.71364e-20)
(0.573094 0.319608 -3.88597e-21)
(0.731094 0.405695 7.10879e-21)
(0.854579 0.465927 7.28639e-21)
(0.946799 0.500714 -1.6851e-20)
(1.01229 0.512574 9.07771e-21)
(1.05666 0.505699 -2.9018e-21)
(1.08566 0.485589 1.09299e-21)
(1.10274 0.459817 6.37461e-22)
(0.143054 0.0850112 6.14104e-21)
(0.373185 0.223573 1.1798e-21)
(0.563844 0.337943 -1.3629e-21)
(0.71767 0.425019 -7.36621e-21)
(0.837216 0.483984 4.24114e-21)
(0.926113 0.516066 2.31496e-21)
(0.989195 0.524556 -2.84808e-21)
(1.03228 0.514269 2.12566e-21)
(1.06118 0.491182 1.01911e-21)
(1.07932 0.463154 -2.9651e-21)
(0.140772 0.0908917 -1.01949e-21)
(0.366102 0.236889 -7.60833e-22)
(0.552129 0.354706 5.41761e-21)
(0.701536 0.442327 3.26737e-21)
(0.817188 0.499746 -5.81124e-21)
(0.903008 0.529023 5.2298e-21)
(0.964021 0.534192 1.46685e-21)
(1.00617 0.520645 2.72122e-21)
(1.03529 0.494761 6.55623e-21)
(1.05487 0.464618 1.17644e-21)
(0.137717 0.0963415 5.32397e-21)
(0.357239 0.249031 5.6488e-21)
(0.538087 0.369681 -1.94358e-21)
(0.682885 0.45741 -5.75033e-22)
(0.794731 0.513041 -1.92782e-21)
(0.877736 0.539456 -1.08386e-21)
(0.937018 0.541403 2.63794e-21)
(0.978534 0.524788 1.38502e-23)
(1.00812 0.496298 -5.82242e-21)
(1.02946 0.464136 -7.30788e-21)
(0.133922 0.101279 -2.19157e-21)
(0.346701 0.25983 -7.92037e-22)
(0.521883 0.382675 -2.77834e-21)
(0.661937 0.470081 8.68795e-22)
(0.770098 0.523714 -3.00931e-21)
(0.850567 0.547258 6.77903e-21)
(0.908449 0.546125 -8.35922e-22)
(0.949605 0.526676 1.14159e-21)
(0.97979 0.495782 -5.51546e-21)
(1.00316 0.461623 8.69073e-21)
(0.129436 0.105632 -2.04291e-21)
(0.334607 0.269128 4.13093e-22)
(0.503705 0.393508 -1.66051e-21)
(0.638929 0.480173 -2.41432e-21)
(0.743559 0.531631 -1.84218e-21)
(0.821786 0.552338 -3.15214e-22)
(0.878596 0.548313 3.28905e-21)
(0.919616 0.526308 -1.51516e-20)
(0.950397 0.493219 3.24422e-20)
(0.975999 0.456954 1.32055e-20)
(0.124309 0.109336 4.74041e-22)
(0.321095 0.276787 -8.90007e-21)
(0.48376 0.402019 6.8357e-21)
(0.614117 0.487542 -1.3744e-21)
(0.715397 0.536681 3.42104e-21)
(0.791686 0.554621 -5.8505e-21)
(0.847756 0.547938 -1.12269e-20)
(0.888838 0.523713 5.91459e-21)
(0.920111 0.488664 -2.68973e-21)
(0.947918 0.450015 -6.46161e-21)
(0.118602 0.112329 -2.03096e-21)
(0.306322 0.282684 2.33698e-21)
(0.462274 0.408071 -4.48948e-21)
(0.587769 0.492065 4.62012e-21)
(0.685901 0.538771 8.78408e-21)
(0.760566 0.554049 5.65004e-21)
(0.816236 0.544978 1.94173e-20)
(0.857611 0.518944 -1.40976e-20)
(0.889348 0.482338 -2.80655e-20)
(0.918674 0.441212 1.1524e-20)
(0.112382 0.114555 -4.81283e-21)
(0.290459 0.286713 -4.50098e-21)
(0.439484 0.41155 1.60077e-21)
(0.560164 0.493644 1.40544e-20)
(0.655365 0.537828 -1.62672e-20)
(0.72872 0.550572 -2.22549e-20)
(0.78434 0.539393 -7.1858e-21)
(0.826376 0.511973 -9.48096e-22)
(0.85904 0.474515 3.53162e-20)
(0.887887 0.430972 -9.29503e-21)
(0.105723 0.11597 1.43012e-20)
(0.273687 0.288785 -4.93254e-22)
(0.415642 0.412365 -2.69388e-21)
(0.531587 0.492208 -1.33989e-22)
(0.62408 0.533806 -8.17983e-21)
(0.69642 0.544156 4.01332e-20)
(0.752327 0.531123 -2.76971e-20)
(0.795536 0.502557 3.47586e-20)
(0.830169 0.46471 -2.58681e-20)
(0.861112 0.421243 -3.49134e-20)
(0.0987036 0.116534 -6.72743e-21)
(0.256197 0.288833 3.11595e-21)
(0.391005 0.410452 -1.26165e-21)
(0.502327 0.487713 1.34008e-20)
(0.592333 0.526685 -4.47389e-21)
(0.663922 0.534803 7.10466e-21)
(0.720379 0.520182 1.65999e-20)
(0.765026 0.490721 -9.09769e-21)
(0.801697 0.452647 -2.3471e-20)
(0.83438 0.409679 3.44132e-20)
(0.0914096 0.11622 1.3493e-20)
(0.238189 0.286811 1.90745e-20)
(0.365838 0.405773 -1.59433e-20)
(0.472675 0.480142 -1.40217e-20)
(0.560413 0.516473 4.14539e-20)
(0.631486 0.522543 -4.26943e-20)
(0.6887 0.506628 5.24866e-20)
(0.734943 0.476598 -1.422e-20)
(0.773654 0.438602 1.5935e-20)
(0.808056 0.396474 2.99239e-20)
(0.0839281 0.11501 -6.34189e-21)
(0.219865 0.282692 -1.70898e-20)
(0.340408 0.398316 -6.94421e-21)
(0.442925 0.469506 -4.61209e-21)
(0.528607 0.503205 3.5544e-21)
(0.599372 0.507428 -1.02573e-20)
(0.657515 0.490527 -1.5809e-20)
(0.705474 0.460283 -3.5232e-20)
(0.74626 0.422734 3.65077e-20)
(0.782483 0.381769 -1.26727e-20)
(0.0763489 0.112894 2.33643e-20)
(0.201433 0.276472 -1.53517e-21)
(0.314985 0.388096 -9.13964e-21)
(0.413367 0.455842 1.34781e-20)
(0.4972 0.486934 -2.47297e-20)
(0.567842 0.489527 6.65574e-20)
(0.627052 0.471954 -3.70889e-20)
(0.676813 0.441848 3.5681e-20)
(0.719705 0.4051 -6.93438e-20)
(0.757823 0.36558 -1.92007e-20)
(0.0687629 0.109874 -9.70525e-21)
(0.1831 0.268169 2.50352e-20)
(0.289835 0.375153 6.63625e-21)
(0.384291 0.439211 -1.1573e-20)
(0.466472 0.46774 -2.07526e-20)
(0.53715 0.468923 -1.2728e-21)
(0.597534 0.450992 1.24077e-20)
(0.649153 0.421363 -3.16322e-20)
(0.694163 0.385742 1.6908e-20)
(0.734219 0.347916 2.22202e-21)
(0.0612609 0.10596 -3.69635e-20)
(0.165069 0.257821 -9.99539e-21)
(0.265222 0.35955 -2.52737e-21)
(0.355975 0.419699 2.93425e-20)
(0.436693 0.445718 -2.80747e-20)
(0.507543 0.445717 -7.94655e-21)
(0.569178 0.427733 -4.92764e-21)
(0.622681 0.398907 9.84427e-21)
(0.669796 0.364714 -1.29524e-20)
(0.711803 0.328801 -2.14327e-20)
(0.0539325 0.101175 3.05225e-20)
(0.147541 0.245486 -1.75408e-20)
(0.241399 0.341377 1.11766e-21)
(0.32869 0.397415 -4.41542e-20)
(0.408124 0.420988 4.95818e-20)
(0.479254 0.420025 -1.65437e-20)
(0.542188 0.402282 1.04653e-20)
(0.597569 0.374566 9.66588e-21)
(0.646751 0.342078 2.96212e-20)
(0.690694 0.308275 -1.24873e-20)
(0.046865 0.0955468 -1.2383e-20)
(0.130711 0.231241 3.64685e-20)
(0.218613 0.320744 2.05072e-20)
(0.302695 0.372489 3.37579e-20)
(0.38101 0.393686 -8.36643e-21)
(0.452506 0.391977 3.39225e-21)
(0.516753 0.374756 2.95937e-20)
(0.573979 0.348439 6.89461e-21)
(0.625162 0.31791 6.69813e-22)
(0.670994 0.2864 -1.49376e-20)
(0.0401421 0.0891159 -2.63115e-20)
(0.114763 0.215184 -2.1006e-21)
(0.197094 0.297786 -1.1634e-20)
(0.278232 0.345074 -5.34911e-20)
(0.355583 0.363967 -5.4175e-20)
(0.427505 0.361722 9.55306e-21)
(0.493053 0.345288 -2.49526e-20)
(0.552058 0.320636 1.68715e-20)
(0.605151 0.292298 9.77548e-21)
(0.652797 0.263248 2.15641e-20)
(0.0338435 0.08193 3.71105e-20)
(0.0998723 0.197429 -3.2218e-20)
(0.177063 0.272658 -1.64106e-20)
(0.255531 0.315343 3.08982e-20)
(0.332059 0.332006 3.65282e-20)
(0.404441 0.329421 -1.26747e-20)
(0.471248 0.314018 -1.63816e-21)
(0.531941 0.291277 -5.23025e-20)
(0.586828 0.265342 -3.13215e-20)
(0.636185 0.238909 1.26853e-20)
(0.0280433 0.074045 -2.10348e-20)
(0.0862006 0.178107 9.45396e-21)
(0.158721 0.245532 3.50071e-20)
(0.234799 0.283486 -1.5985e-20)
(0.310635 0.297991 1.22759e-21)
(0.38349 0.295249 5.11657e-20)
(0.451487 0.281104 2.54608e-21)
(0.513749 0.260497 4.98886e-20)
(0.570291 0.237156 2.21382e-20)
(0.621231 0.21348 -3.70774e-20)
(0.02281 0.0655243 2.80608e-20)
(0.0738966 0.157366 3.24376e-21)
(0.142251 0.2166 2.24986e-21)
(0.216229 0.249712 3.28248e-20)
(0.291488 0.262127 -4.66883e-21)
(0.364808 0.259395 -3.19861e-20)
(0.433903 0.24671 1.67479e-20)
(0.497591 0.228437 -2.81048e-20)
(0.555628 0.207859 -1.24528e-20)
(0.608002 0.187068 1.34803e-20)
(0.0182049 0.0564382 -1.75285e-20)
(0.0630934 0.135363 -3.5367e-20)
(0.127819 0.186069 8.32849e-21)
(0.199988 0.214244 -1.71606e-20)
(0.274776 0.224633 -1.10534e-20)
(0.348532 0.222059 2.83271e-20)
(0.418612 0.211013 -7.20687e-21)
(0.483563 0.195249 7.2159e-21)
(0.542915 0.177582 -9.32535e-21)
(0.596555 0.159791 1.93253e-20)
(0.0142821 0.0468629 6.2067e-21)
(0.0539076 0.112274 2.36531e-20)
(0.115567 0.15416 -3.37853e-20)
(0.186225 0.17732 1.67938e-20)
(0.260637 0.185738 -8.07928e-21)
(0.334784 0.183451 -2.42167e-20)
(0.405713 0.174199 2.10036e-20)
(0.471746 0.161093 4.79568e-21)
(0.532218 0.146465 -6.84235e-22)
(0.586938 0.13177 -2.26045e-20)
(0.0110873 0.0368801 1.9726e-21)
(0.0464378 0.0882792 7.46635e-21)
(0.105618 0.121108 3.0397e-20)
(0.175063 0.139187 -6.10926e-21)
(0.249186 0.145682 -5.10223e-21)
(0.323664 0.14379 2.00576e-21)
(0.395293 0.136459 8.77845e-22)
(0.462209 0.126136 8.31803e-21)
(0.523594 0.11465 -1.16023e-20)
(0.579195 0.103134 -7.7908e-21)
(0.00865804 0.0265757 -5.01246e-21)
(0.0407643 0.0635718 -9.13928e-21)
(0.098069 0.0871559 -2.35263e-20)
(0.166602 0.100104 1.24212e-20)
(0.240516 0.104716 1.07377e-20)
(0.315253 0.103302 4.60782e-22)
(0.387418 0.0979939 -2.04609e-20)
(0.455008 0.0905504 -9.67793e-21)
(0.517086 0.0822871 8.13677e-21)
(0.573358 0.0740149 9.22189e-21)
(0.0070226 0.016039 8.70614e-22)
(0.0369479 0.0383502 -1.89169e-21)
(0.0929947 0.0525546 4.46424e-21)
(0.16092 0.0603377 -3.17728e-21)
(0.234696 0.063093 -2.95644e-21)
(0.309611 0.0622203 -2.12467e-21)
(0.38214 0.0590062 4.19345e-21)
(0.450184 0.0545121 1.69796e-20)
(0.512729 0.0495306 2.60185e-21)
(0.569452 0.0445485 -4.92032e-21)
(0.00620008 0.00536199 1.0691e-21)
(0.0350295 0.012818 -3.13109e-21)
(0.0904451 0.0175619 -3.68333e-21)
(0.158066 0.0201585 -2.68588e-21)
(0.231775 0.0210751 2.71932e-21)
(0.30678 0.02078 1.3046e-21)
(0.379492 0.0197038 -1.38097e-21)
(0.447766 0.0182011 -6.71737e-21)
(0.510545 0.0165367 2.34088e-21)
(0.567495 0.0148728 -2.32587e-21)
(0.00620008 -0.00536198 -1.0691e-21)
(0.0350295 -0.012818 3.13109e-21)
(0.0904451 -0.0175618 3.68333e-21)
(0.158066 -0.0201585 -3.71049e-21)
(0.231775 -0.021075 3.46004e-21)
(0.30678 -0.02078 1.84793e-21)
(0.379492 -0.0197038 -3.14773e-21)
(0.447766 -0.0182011 -3.88798e-21)
(0.510545 -0.0165367 6.14983e-22)
(0.567495 -0.0148728 -1.82085e-21)
(0.0070226 -0.016039 1.16301e-21)
(0.0369479 -0.0383502 -3.73532e-21)
(0.0929947 -0.0525546 8.70409e-21)
(0.16092 -0.0603377 -8.03298e-21)
(0.234696 -0.063093 -3.90454e-22)
(0.309611 -0.0622203 -6.02006e-21)
(0.38214 -0.0590062 1.0432e-20)
(0.450184 -0.0545121 1.51152e-20)
(0.512729 -0.0495306 2.87994e-21)
(0.569452 -0.0445485 -6.52989e-21)
(0.00865804 -0.0265757 -1.01428e-21)
(0.0407643 -0.0635718 -7.94987e-21)
(0.098069 -0.0871559 -1.91337e-20)
(0.166602 -0.100104 1.74061e-20)
(0.240516 -0.104716 3.83971e-21)
(0.315253 -0.103302 3.605e-21)
(0.387418 -0.0979939 -1.8757e-20)
(0.455008 -0.0905504 -1.17317e-20)
(0.517086 -0.0822871 -2.78959e-21)
(0.573358 -0.0740149 2.01797e-20)
(0.0110873 -0.0368801 -3.62025e-21)
(0.0464378 -0.0882792 4.79724e-21)
(0.105618 -0.121108 3.49126e-20)
(0.175063 -0.139187 -3.25783e-21)
(0.249186 -0.145682 -9.93042e-21)
(0.323664 -0.14379 7.62293e-21)
(0.395293 -0.136459 5.4809e-22)
(0.462209 -0.126136 3.05484e-21)
(0.523594 -0.11465 -7.04141e-21)
(0.579195 -0.103134 -1.97687e-20)
(0.0142821 -0.0468629 -2.5359e-21)
(0.0539076 -0.112274 1.42512e-20)
(0.115567 -0.15416 -3.52993e-20)
(0.186225 -0.17732 1.61099e-20)
(0.260637 -0.185738 1.47879e-22)
(0.334784 -0.183451 -2.28943e-20)
(0.405713 -0.174199 1.07338e-20)
(0.471746 -0.161093 -1.1264e-21)
(0.532218 -0.146465 4.52353e-21)
(0.586938 -0.13177 -1.46915e-21)
(0.0182049 -0.0564382 -2.87409e-20)
(0.0630934 -0.135363 -3.61921e-20)
(0.127819 -0.186069 9.66073e-21)
(0.199988 -0.214244 -1.84421e-20)
(0.274776 -0.224633 -5.57242e-21)
(0.348532 -0.222059 8.67554e-21)
(0.418612 -0.211013 3.38644e-21)
(0.483563 -0.195249 1.37434e-20)
(0.542915 -0.177582 -3.08622e-21)
(0.596555 -0.159791 1.78334e-20)
(0.02281 -0.0655243 2.75231e-20)
(0.0738966 -0.157366 1.85162e-20)
(0.142251 -0.2166 -1.48918e-20)
(0.216229 -0.249712 2.58774e-20)
(0.291488 -0.262127 -2.45447e-21)
(0.364808 -0.259395 -3.12602e-20)
(0.433903 -0.24671 5.76527e-21)
(0.497591 -0.228437 -3.75717e-20)
(0.555628 -0.207859 1.33563e-21)
(0.608002 -0.187068 1.52105e-20)
(0.0280433 -0.074045 -2.12349e-20)
(0.0862006 -0.178107 3.99219e-20)
(0.158721 -0.245532 1.58222e-20)