/*--------------------------------*- C++ -*----------------------------------*\
  =========                 |
  \\      /  F ield         | OpenFOAM: The Open Source CFD Toolbox
   \\    /   O peration     | Website:  https://openfoam.org
    \\  /    A nd           | Version:  7
     \\/     M anipulation  |
\*---------------------------------------------------------------------------*/
FoamFile
{
    version     2.0;
    format      ascii;
    class       surfaceScalarField;
    location    "20";
    object      phi;
}
// * * * * * * * * * * * * * * * * * * * * * * * * * * * * * * * * * * * * * //

dimensions      [0 3 -1 0 0 0 0];

internalField   nonuniform List<scalar> 
4147
(
-4.23299e-05
4.23298e-05
5.3975e-11
-0.000145035
0.000102705
1.53299e-10
-0.000292272
0.000147236
2.52676e-10
-0.000468616
0.000176344
-0.000659515
0.000190899
-0.000852056
0.000192541
-0.00103597
0.000183917
-0.00120509
0.000169115
-0.00135824
0.000153147
0.000142397
-0.00150064
-4.15619e-05
8.38918e-05
-0.000142042
0.000203185
-0.000285466
0.000290661
-0.000456216
0.000347093
-0.000639463
0.000374146
-0.00082193
0.000375007
-0.000992892
0.000354879
-0.00114566
0.000321887
-0.00127863
0.000286117
0.000260303
-0.00139654
-4.00378e-05
0.00012393
-0.000136093
0.00029924
-0.000271935
0.000426503
-0.000431553
0.000506711
-0.000599576
0.000542169
-0.000761996
0.000537427
-0.000907176
0.000500059
-0.00102741
0.000442118
-0.00112017
0.000378877
0.000329388
-0.00118925
-3.77797e-05
0.000161709
-0.000127263
0.000388723
-0.00025183
0.000551071
-0.000394893
0.000649774
-0.00054027
0.000687546
-0.000672873
0.00067003
-0.000779699
0.000606886
-0.000851499
0.000513918
-0.000884349
0.000411727
0.000325544
-0.000880505
-3.48188e-05
0.000196528
-0.000115654
0.000469558
-0.000225367
0.000660784
-0.000346607
0.000771014
-0.000462135
0.000803074
-0.00055544
0.000763334
-0.00061171
0.000663156
-0.000619613
0.000521822
-0.00057362
0.000365734
0.000224672
-0.000472748
-3.11923e-05
0.00022772
-0.00010139
0.000539756
-0.000192803
0.000752197
-0.000287147
0.000865358
-0.000365892
0.000881819
-0.000410784
0.000808226
-0.000404761
0.000657133
-0.000333635
0.000450697
-0.000190084
0.000222182
1.92046e-05
1.53835e-05
-2.69397e-05
0.00025466
-8.46037e-05
0.00059742
-0.00015442
0.000822014
-0.000217011
0.000927949
-0.000252345
0.000917153
-0.000240123
0.000796005
-0.00016066
0.000577669
2.83871e-06
0.000287198
0.000264189
-3.91686e-05
-0.000338552
0.000621946
-2.20999e-05
0.00027676
-6.54266e-05
0.000640746
-0.000110499
0.000867086
-0.000136702
0.000954152
-0.000122321
0.000902771
-4.47593e-05
0.000718443
0.000118808
0.000414102
0.000389601
1.64054e-05
0.000782719
-0.000432286
-0.00085794
0.00130211
-1.67069e-05
0.000293467
-4.39775e-05
0.000668017
-6.1299e-05
0.000884408
-4.66932e-05
0.000939546
2.33827e-05
0.000832696
0.000174016
0.000567809
0.000431447
0.000156671
0.000821181
-0.000373328
0.00136343
-0.000974539
-0.00155956
0.00206505
-1.07872e-05
0.000304254
-2.03521e-05
0.000677582
-7.03367e-06
0.000871089
5.26103e-05
0.000879902
0.000184064
0.000701242
0.000415039
0.000336835
0.000775398
-0.000203688
0.00129557
-0.000893503
0.00200172
-0.00168069
-0.00246282
0.00290499
-4.35989e-06
0.000308614
5.38163e-06
0.00066784
5.21282e-05
0.000824343
0.000160899
0.000771131
0.000359175
0.000502966
0.000677341
1.86681e-05
0.00114899
-0.00067534
0.00180989
-0.0015544
0.0026932
-0.002564
-0.00358567
0.00381605
2.58357e-06
0.00030603
3.31804e-05
0.000637244
0.000116095
0.000741429
0.000277971
0.000609254
0.000548339
0.000232599
0.000960224
-0.000393217
0.00155088
-0.001266
0.00236157
-0.00236509
0.00343349
-0.00363592
-0.0049443
0.00479211
1.00214e-05
0.000296009
6.30422e-05
0.000584223
0.000184815
0.000619656
0.00040372
0.000390349
0.000751354
-0.000115035
0.00126328
-0.000905146
0.00198016
-0.00198287
0.00294853
-0.00333347
0.00421838
-0.00490577
-0.00655239
0.00582647
1.79803e-05
0.000278029
9.49627e-05
0.00050724
0.000258264
0.000456355
0.000538092
0.000110521
0.000968148
-0.000545091
0.0015864
-0.00152339
0.00243641
-0.00283289
0.00356937
-0.00446642
0.00504415
-0.00638055
-0.00842019
0.00691196
2.6464e-05
0.000251565
0.000128936
0.000404768
0.000336401
0.00024889
0.000681016
-0.000234093
0.00119867
-0.00106274
0.00192961
-0.00225433
0.00291975
-0.00382303
0.00422365
-0.00577033
0.005908
-0.0080649
-0.0105532
0.00804101
3.54727e-05
0.000216092
0.000164925
0.000275316
0.00041911
-5.29532e-06
0.000832291
-0.000647274
0.0014427
-0.00167315
0.00229288
-0.00310452
0.00343057
-0.00496072
0.00491205
-0.00725181
0.00680888
-0.00996173
-0.0129505
0.00920617
4.49906e-05
0.000171101
0.000202829
0.000117477
0.000506131
-0.000308598
0.000991449
-0.00113259
0.00169962
-0.00238132
0.00267574
-0.00408064
0.00396914
-0.00625412
0.00563617
-0.00891884
0.0077482
-0.0120738
-0.0156039
0.0104016
5.49783e-05
0.000116123
0.000242463
-7.0007e-05
0.000597
-0.000663135
0.00115761
-0.0016932
0.00196809
-0.0031918
0.00307668
-0.00518923
0.004535
-0.00771244
0.00639856
-0.0107824
0.00873011
-0.0144053
-0.0185021
0.0116283
6.53688e-05
5.07544e-05
0.000283537
-0.000288175
0.000690991
-0.00107059
0.00132933
-0.00233154
0.00224568
-0.00410815
0.00349244
-0.00643599
0.00512605
-0.00934604
0.00720445
-0.0128608
0.00976905
-0.0169699
-0.0216341
0.0129011
7.60683e-05
-2.53139e-05
0.000325664
-0.000537771
0.000787116
-0.00153204
0.00150454
-0.00304897
0.00252849
-0.0051321
0.00391653
-0.00782404
0.00573419
-0.0111637
0.00805629
-0.0151829
0.01093
-0.0198436
-0.0249303
0.0142261
8.69656e-05
-0.000112279
0.000368384
-0.000819189
0.000884183
-0.00204784
0.00168061
-0.00384539
0.00281111
-0.0062626
0.00433788
-0.00935081
0.00633596
-0.0131618
0.00890586
-0.0177528
0.0122501
-0.0231878
-0.0297977
0.0171175
9.79472e-05
-0.000210227
0.000411224
-0.00113247
0.000980956
-0.00261757
0.00185479
-0.00471923
0.00308764
-0.00749545
0.00474323
-0.0110064
0.0068982
-0.0153167
0.00965294
-0.0205076
0.0131718
-0.0267067
-0.034275
0.0176491
0.000108914
0.000453758
-0.00147731
0.00107633
-0.00324015
0.00202473
-0.00566762
0.00335349
-0.00882421
0.00512404
-0.0127769
0.00740595
-0.0175987
0.010278
-0.0233796
0.0138299
-0.0302586
-0.0385332
0.0180882
0.000495646
0.00116945
-0.00391395
0.0021887
-0.00668687
0.00360582
-0.0102413
0.0054769
-0.014648
0.00785952
-0.0199813
0.0108062
-0.0263263
0.0143485
-0.033801
-0.0426206
0.0184359
0.00125965
-0.00463698
0.00234552
-0.00777274
0.00384303
-0.0117388
0.00580094
-0.0166059
0.00826285
-0.0224432
0.0112566
-0.02932
0.0147731
-0.0373175
-0.0465681
0.0187206
0.00134643
0.00249429
-0.0089206
0.00406407
-0.0133086
0.00609588
-0.0186377
0.00861888
-0.0249662
0.011639
-0.0323402
0.0151187
-0.0407971
-0.0503938
0.0189444
0.00263423
0.00426797
-0.0149424
0.00636116
-0.0207309
0.00892869
-0.0275337
0.0119574
-0.0353689
0.0153889
-0.0442286
-0.0541024
0.0190974
0.00445353
0.0065956
0.00919161
-0.0301297
0.0122116
-0.0383889
0.0155813
-0.0475982
-0.0576887
0.0191677
0.00940557
0.012399
-0.0413824
0.0156909
-0.0508901
-0.0611419
0.0191441
0.0125159
0.0157121
-0.0540863
-0.0644472
0.0190174
0.01564
0.0187813
-4.23299e-05
-0.000145035
-0.00155022
4.95853e-05
-0.00153799
-1.22309e-05
-0.00145162
-8.63786e-05
-0.00127679
-0.000174826
-0.00100712
-0.00026967
-0.000642573
-0.00036455
-0.000187183
-0.000455391
0.000352095
-0.000539278
0.000966712
-0.000614616
0.00164743
-0.000680716
0.00238494
-0.000737511
0.00317025
-0.000785298
0.00399481
-0.000824557
0.00485065
-0.00085584
0.00573037
-0.000879707
0.00662706
-0.000896682
0.00753437
-0.000907293
0.00844631
-0.000911929
0.00935753
-0.000911208
0.0102627
-0.000905125
0.0111577
-0.000895017
0.0120369
-0.000879246
0.0128995
-0.000862528
0.0137358
-0.000836294
0.014555
-0.000819226
0.0153304
-0.000775392
0.0161061
-0.000775727
0.0167945
-0.000688369
0.0175427
-0.000748237
-0.000577367
-0.00144248
9.55246e-05
-0.00142592
-2.87922e-05
-0.00133566
-0.000176641
-0.00115773
-0.000352753
-0.000885952
-0.000541446
-0.000520457
-0.000730044
-6.53209e-05
-0.000910527
0.00047256
-0.00107716
0.00108477
-0.00122683
0.00176226
-0.0013582
0.00249588
-0.00147113
0.0032768
-0.00156622
0.00409665
-0.00164441
0.00494757
-0.00170677
0.00582227
-0.0017544
0.00671393
-0.00178834
0.00761626
-0.00180962
0.00852334
-0.00181901
0.00942987
-0.00181774
0.0103305
-0.00180577
0.0112213
-0.00178579
0.0120966
-0.00175451
0.0129554
-0.00172136
0.0137883
-0.00166919
0.0146044
-0.00163537
0.0153771
-0.00154805
0.0161504
-0.00154904
0.0168368
-0.00137481
0.0175832
-0.00149464
-0.00115422
-0.00122798
0.000134252
-0.00120291
-5.38597e-05
-0.00110498
-0.000274574
-0.000920937
-0.000536795
-0.000645041
-0.000817342
-0.000277742
-0.00109734
0.000176805
-0.00136507
0.000711836
-0.00161219
0.00131921
-0.00183421
0.00199021
-0.00202919
0.00271605
-0.00219698
0.00348825
-0.00233842
0.00429873
-0.00245488
0.00513988
-0.00254792
0.00600461
-0.00261913
0.00688628
-0.00267002
0.00777876
-0.0027021
0.00867622
-0.00271648
0.00957346
-0.00271497
0.0104652
-0.00269753
0.0113476
-0.00266815
0.0122149
-0.00262187
0.0130665
-0.00257287
0.0138926
-0.00249536
0.0147027
-0.00244545
0.01547
-0.00231532
0.0162386
-0.00231762
0.0169212
-0.0020575
0.0176641
-0.0022375
-0.00173014
-0.000908661
0.000162408
-0.000871259
-9.12617e-05
-0.000762031
-0.000383802
-0.000569049
-0.000729776
-0.000287207
-0.00109918
8.2582e-05
-0.00146713
0.000536039
-0.00181853
0.00106665
-0.0021428
0.00166668
-0.00243423
0.00232792
-0.00269043
0.00304214
-0.0029112
0.00380133
-0.00309762
0.00459787
-0.00325141
0.00542452
-0.00337456
0.00627449
-0.00346911
0.0071414
-0.00353693
0.00801931
-0.00358
0.00890256
-0.00359973
0.0097861
-0.00359851
0.0106648
-0.0035762
0.0115347
-0.00353812
0.0123905
-0.00347763
0.0132312
-0.00341362
0.0140475
-0.00331167
0.0148487
-0.00324662
0.0156081
-0.00307472
0.0163698
-0.00307928
0.017047
-0.00273474
0.0177847
-0.00297519
-0.00230476
-0.000487654
0.000177314
-0.000434048
-0.000144867
-0.000310346
-0.000507504
-0.000105895
-0.000934228
0.0001834
-0.00138848
0.000556053
-0.00183979
0.00100771
-0.00227019
0.00153215
-0.00266724
0.00212222
-0.0030243
0.0027704
-0.00333862
0.00346918
-0.00360998
0.0042112
-0.00383964
0.00498939
-0.0040296
0.005797
-0.00418218
0.00662764
-0.00429975
0.00747525
-0.00438454
0.00833414
-0.00443889
0.00919888
-0.00446447
0.0100646
-0.0044642
0.0109262
-0.00443783
0.0117801
-0.00439201
0.0126208
-0.00431831
0.0134476
-0.00424043
0.0142511
-0.00411522
0.0150408
-0.00403629
0.0157901
-0.00382398
0.0165428
-0.00383205
0.0172131
-0.00340502
0.0179442
-0.0037063
-0.00287786
4.05077e-05
0.00015219
0.000104871
-0.00020923
0.000245346
-0.00064798
0.000463428
-0.00115231
0.000761358
-0.00168641
0.00113693
-0.00221535
0.00158573
-0.00271899
0.002102
-0.00318351
0.00267936
-0.00360165
0.00331115
-0.00397042
0.00399073
-0.00428956
0.00471153
-0.00456044
0.00546717
-0.00478524
0.00625146
-0.00496647
0.00705849
-0.00510678
0.00788258
-0.00520862
0.00871834
-0.00527466
0.00956061
-0.00530674
0.0104047
-0.00530827
0.0112457
-0.00527886
0.0120801
-0.00522645
0.0129027
-0.00514081
0.0137127
-0.00505046
0.0145009
-0.00490343
0.0152768
-0.00481219
0.0160139
-0.00456113
0.0167561
-0.00457425
0.0174182
-0.00406712
0.0181416
-0.00442966
-0.00344941
0.000645646
0.00012849
0.000738765
-0.000302349
0.000899579
-0.000808794
0.00113297
-0.0013857
0.00144016
-0.0019936
0.00181817
-0.00259337
0.00226265
-0.00316348
0.00276848
-0.00368933
0.0033302
-0.00416337
0.00394223
-0.00458245
0.00459893
-0.00494626
0.00529465
-0.00525615
0.00602378
-0.00551436
0.00678079
-0.00572348
0.00756028
-0.00588627
0.00835702
-0.00600535
0.00916596
-0.0060836
0.00998221
-0.00612299
0.0108013
-0.00612737
0.0116186
-0.00609614
0.0124307
-0.00603853
0.0132323
-0.00594246
0.0140231
-0.00584127
0.0147938
-0.00567414
0.0155541
-0.00557241
0.0162775
-0.00528457
0.0170078
-0.00530453
0.0176608
-0.0047201
0.0183755
-0.00514442
-0.00401957
0.00134762
8.29745e-05
0.00146373
-0.000418462
0.00164608
-0.000991138
0.00189583
-0.00163545
0.00221226
-0.00231003
0.00259163
-0.00297273
0.00302982
-0.00360167
0.00352255
-0.00418206
0.00406553
-0.00470636
0.0046544
-0.00517131
0.00528464
-0.0055765
0.00595162
-0.00592314
0.00665059
-0.00621333
0.00737671
-0.00644961
0.00812517
-0.00663474
0.00889118
-0.00677136
0.00967009
-0.0068625
0.0104573
-0.00691018
0.0112486
-0.00691864
0.0120394
-0.00688701
0.0128267
-0.00682581
0.0136053
-0.00672104
0.0143749
-0.00661091
0.0151264
-0.00642563
0.0158695
-0.00631549
0.016578
-0.0059931
0.0172954
-0.00602194
0.0179388
-0.00536343
0.0186444
-0.00585009
-0.00458877
0.00213279
1.524e-05
0.00227321
-0.000558882
0.00247803
-0.00119596
0.00274439
-0.00190181
0.00306919
-0.00263483
0.00344808
-0.00335163
0.00387742
-0.00403101
0.00435404
-0.00465868
0.00487498
-0.0052273
0.00543725
-0.00573359
0.00603759
-0.00617685
0.00667244
-0.00655799
0.00733794
-0.00687883
0.00803
-0.00714167
0.00874441
-0.00734914
0.00947683
-0.00750379
0.010223
-0.00760869
0.0109787
-0.00766583
0.0117398
-0.0076798
0.0125022
-0.00764939
0.0132628
-0.00758643
0.0140167
-0.00747488
0.0147637
-0.00735791
0.0154947
-0.00715666
0.0162196
-0.00704043
0.0169125
-0.006686
0.0176166
-0.00672595
0.0182501
-0.00599698
0.0189466
-0.00654655
-0.00515772
0.00299536
-7.5135e-05
0.00316055
-0.000724069
0.00338811
-0.00142352
0.00367034
-0.00218404
0.00400167
-0.00296616
0.00437739
-0.00372735
0.00479466
-0.00444828
0.0052517
-0.00511571
0.00574711
-0.00572271
0.00627937
-0.00626585
0.00684655
-0.00674402
0.00744617
-0.00715761
0.0080753
-0.00750796
0.0087306
-0.00779697
0.00940844
-0.00802698
0.010105
-0.00820033
0.0108164
-0.00832006
0.0115386
-0.00838803
0.0122679
-0.00840914
0.0130003
-0.00838179
0.0137329
-0.00831908
0.0144609
-0.0082029
0.0151844
-0.0080814
0.0158943
-0.00786657
0.0166007
-0.00774678
0.0172777
-0.00736305
0.0179683
-0.00741652
0.0185924
-0.00662104
0.01928
-0.00723416
-0.0057274
0.00392923
-0.000188313
0.00411906
-0.000913896
0.00436858
-0.00167305
0.00466483
-0.00248028
0.00499967
-0.003301
0.00536851
-0.00409619
0.00576979
-0.00484955
0.00620338
-0.0055493
0.0066696
-0.00618894
0.0071685
-0.00676475
0.00769946
-0.00727497
0.00826111
-0.00771927
0.00885143
-0.00809828
0.00946779
-0.00841333
0.0101071
-0.00866633
0.0107661
-0.0088593
0.0114412
-0.00899514
0.0121287
-0.00907552
0.0128251
-0.0091056
0.0135267
-0.00908333
0.0142307
-0.00902308
0.0149324
-0.0089046
0.0156321
-0.00878108
0.0163207
-0.00855525
0.0170086
-0.0084346
0.0176701
-0.00802452
0.0183476
-0.00809409
0.018963
-0.00723642
0.0196425
-0.00791369
-0.00629917
0.00492805
-0.000324254
0.00514193
-0.00112777
0.00541149
-0.0019426
0.00571843
-0.00278723
0.0060524
-0.00363497
0.0064096
-0.00445339
0.00679021
-0.00523016
0.00719609
-0.00595518
0.00762938
-0.00662223
0.00809168
-0.00722705
0.00858366
-0.00776695
0.00910503
-0.00824063
0.00965458
-0.00864783
0.0102304
-0.00898913
0.0108299
-0.00926587
0.0114503
-0.00947964
0.0120882
-0.00963311
0.0127404
-0.0097277
0.0134036
-0.00976879
0.0140741
-0.0097538
0.0147494
-0.00969841
0.0154249
-0.00958011
0.0161011
-0.00945726
0.016769
-0.00922317
0.017439
-0.00910455
0.0180857
-0.00867128
0.0187513
-0.00875964
0.0193592
-0.00784437
0.020032
-0.00858642
-0.00687468
0.00598548
-0.000483263
0.00622241
-0.0013647
0.0065086
-0.00222879
0.00682118
-0.00309981
0.00714835
-0.00396213
0.00748796
-0.004793
0.00784256
-0.00558476
0.00821617
-0.00632879
0.00861276
-0.00701883
0.00903543
-0.00764971
0.00948605
-0.00821757
0.00996527
-0.00871986
0.0104727
-0.00915523
0.0110069
-0.00952337
0.011566
-0.00982493
0.0121473
-0.010061
0.012748
-0.0102338
0.013365
-0.0103447
0.0139951
-0.010399
0.014635
-0.0103936
0.0152822
-0.0103457
0.0159324
-0.0102302
0.0165859
-0.0101108
0.0172342
-0.0098714
0.0178875
-0.00975784
0.0185209
-0.00930469
0.0191759
-0.00941465
0.0197782
-0.00844667
0.0204459
-0.00925411
-0.00745594
0.0070952
-0.00066651
0.00735391
-0.0016234
0.00765146
-0.00252635
0.00796246
-0.00341081
0.00827514
-0.00427482
0.00859013
-0.00510798
0.00891278
-0.00590741
0.00924938
-0.00666539
0.00960563
-0.00737508
0.00998595
-0.00803004
0.0103933
-0.00862488
0.010829
-0.00915563
0.0112935
-0.00961969
0.0117858
-0.0100157
0.0123044
-0.0103435
0.0128469
-0.0106035
0.0134109
-0.0107978
0.0139934
-0.0109271
0.0145915
-0.0109971
0.0152018
-0.011004
0.0158223
-0.0109661
0.0164483
-0.0108563
0.0170809
-0.0107434
0.0177111
-0.0105016
0.0183495
-0.0103962
0.0189715
-0.00992669
0.0196179
-0.0100611
0.0202168
-0.00904558
0.0208817
-0.00991902
-0.00804531
0.00825125
-0.000876753
0.00853021
-0.00190236
0.00883131
-0.00282745
0.00913081
-0.0037103
0.00941951
-0.00456352
0.00970181
-0.00539029
0.00998619
-0.00619179
0.0102811
-0.00696026
0.0105936
-0.00768762
0.0109293
-0.00836573
0.0112919
-0.00898748
0.0116835
-0.00954724
0.0121049
-0.010041
0.0125556
-0.0104664
0.0130343
-0.0108222
0.0135391
-0.0111083
0.0140676
-0.0113263
0.0146169
-0.0114765
0.0151846
-0.0115647
0.0157671
-0.0115865
0.0163626
-0.0115616
0.0169666
-0.0114603
0.0175802
-0.0113569
0.0181945
-0.011116
0.0188204
-0.0110221
0.0194334
-0.0105397
0.0200739
-0.0107016
0.0206722
-0.00964386
0.021337
-0.0105839
-0.0086455
0.00944884
-0.00111943
0.00974553
-0.00219905
0.0100387
-0.00312061
0.0103136
-0.00398522
0.010567
-0.00481695
0.0108079
-0.00563116
0.0110476
-0.00643149
0.0112963
-0.00720896
0.0115622
-0.00795354
0.0118516
-0.00865511
0.0121687
-0.0093046
0.0125161
-0.00989465
0.0128949
-0.0104198
0.013305
-0.0108764
0.0137452
-0.0112625
0.0142138
-0.011577
0.0147087
-0.0118212
0.015227
-0.0119948
0.0157664
-0.012104
0.0163234
-0.0121436
0.0168964
-0.0121346
0.017481
-0.0120449
0.0180783
-0.0119542
0.0186796
-0.0117173
0.0192957
-0.0116382
0.0199027
-0.0111468
0.0205402
-0.011339
0.021141
-0.0102447
0.021809
-0.0112519
-0.00925953
0.0106846
-0.00140234
0.0109934
-0.00250789
0.0112624
-0.00338965
0.0114964
-0.00421916
0.0117019
-0.00502244
0.0118923
-0.0058216
0.0120813
-0.00662044
0.0122799
-0.00740762
0.012497
-0.00817064
0.0127391
-0.00889718
0.0130107
-0.00957619
0.0133146
-0.0101985
0.013652
-0.0107573
0.0140231
-0.0112475
0.0144269
-0.0116662
0.0148616
-0.0120117
0.0153253
-0.0122849
0.0158153
-0.0124848
0.0163292
-0.0126179
0.0168637
-0.0126781
0.0174173
-0.0126881
0.0179855
-0.0126131
0.0185696
-0.0125384
0.0191611
-0.0123088
0.0197709
-0.0122479
0.0203754
-0.0117514
0.0210133
-0.0119769
0.0216204
-0.0108518
0.0222952
-0.0119266
-0.00989074
0.0119557
-0.00172972
0.0122663
-0.00281848
0.0124894
-0.00361277
0.0126626
-0.0043924
0.0128067
-0.00516653
0.0129381
-0.00595298
0.013071
-0.00675329
0.0132165
-0.00755321
0.0133834
-0.00833753
0.0135781
-0.0090918
0.0138049
-0.00980302
0.0140667
-0.0104604
0.0143648
-0.0110554
0.0146993
-0.011582
0.0150693
-0.0120362
0.0154732
-0.0124156
0.0159089
-0.0127205
0.0163738
-0.0129497
0.0168656
-0.0131097
0.0173811
-0.0131936
0.0179188
-0.0132258
0.0184742
-0.0131686
0.019049
-0.0131131
0.0196344
-0.0128943
0.0202416
-0.012855
0.0208475
-0.0123573
0.0214897
-0.0126191
0.0221071
-0.0114693
0.0227927
-0.0126122
-0.0105428
0.0132786
-0.00210728
0.0135641
-0.003104
0.0137072
-0.00375584
0.0137962
-0.00448136
0.0138652
-0.0052356
0.0139299
-0.00601764
0.0140024
-0.00682585
0.014093
-0.00764376
0.0142093
-0.00845379
0.0143571
-0.00923962
0.0145406
-0.00998657
0.0147625
-0.0106822
0.0150239
-0.0113168
0.0153248
-0.0118829
0.0156642
-0.0123757
0.0160407
-0.0127921
0.016452
-0.0131319
0.0168956
-0.0133934
0.0173692
-0.0135833
0.0178696
-0.013694
0.0183953
-0.0137515
0.018942
-0.0137153
0.0195114
-0.0136825
0.020095
-0.0134779
0.0207037
-0.0134637
0.0213152
-0.0129688
0.021966
-0.01327
0.0225983
-0.0121015
0.0232991
-0.0133131
-0.0112195
0.0147355
-0.00261661
0.0148888
-0.00325732
0.0148987
-0.0037658
0.0148793
-0.00446189
0.0148614
-0.00521779
0.014854
-0.00601017
0.0148641
-0.00683602
0.0148995
-0.00767908
0.0149661
-0.00852043
0.015069
-0.00934248
0.0152116
-0.0101292
0.0153962
-0.0108669
0.0156239
-0.0115444
0.0158944
-0.0121534
0.0162068
-0.0126881
0.0165593
-0.0131446
0.0169499
-0.0135225
0.017376
-0.0138194
0.0178352
-0.0140425
0.0183245
-0.0141833
0.0188424
-0.0142693
0.0193846
-0.0142576
0.0199528
-0.0142506
0.0205389
-0.014064
0.0211533
-0.0140781
0.0217755
-0.0135909
0.0224387
-0.0139332
0.0230917
-0.0127546
0.0238104
-0.0140318
-0.0119265
0.032326
-0.00176085
-0.0331818
0.0319233
-0.00285464
0.0316933
-0.00353576
0.0315068
-0.00427544
0.0313502
-0.00506111
0.0312145
-0.00587446
0.0310955
-0.00671711
0.0309941
-0.00757765
0.0309127
-0.00843904
0.0308548
-0.00928456
0.0308241
-0.0100985
0.0308239
-0.0108667
0.0308571
-0.0115776
0.0309256
-0.0122218
0.0310303
-0.0127928
0.0311712
-0.0132856
0.0313478
-0.013699
0.0315585
-0.0140302
0.0318014
-0.0142854
0.0320744
-0.0144563
0.0323745
-0.0145694
0.0326996
-0.0145827
0.0330465
-0.0145975
0.0334131
-0.0144307
0.0337978
-0.0144627
0.0341958
-0.0139889
0.0346137
-0.0143511
0.0350358
-0.0131767
0.0354842
-0.0144802
-0.0123834
0.0390389
-0.000915116
-0.0398847
0.0382365
-0.00205218
0.0376492
-0.00294849
0.0371732
-0.00379943
0.0367757
-0.00466359
0.0364367
-0.00553551
0.0361416
-0.00642196
0.0358834
-0.00731945
0.0356597
-0.00821539
0.0354706
-0.00909542
0.0353172
-0.00994514
0.0352015
-0.010751
0.0351249
-0.0115011
0.0350888
-0.0121857
0.0350935
-0.0127975
0.0351388
-0.0133309
0.0352238
-0.013784
0.0353469
-0.0141533
0.0355059
-0.0144444
0.0356986
-0.014649
0.0359217
-0.0147925
0.0361735
-0.0148345
0.0364496
-0.0148735
0.0367497
-0.0147308
0.0370685
-0.0147816
0.0374076
-0.014328
0.0377622
-0.0147057
0.0381366
-0.0135511
0.0385193
-0.0148629
-0.0128039
0.0459768
9.52383e-06
-0.0469015
0.045011
-0.00108637
0.0441769
-0.00211436
0.0434516
-0.00307413
0.0428205
-0.00403246
0.0422697
-0.00498475
0.0417835
-0.0059358
0.0413516
-0.00688753
0.0409682
-0.00783202
0.0406306
-0.0087578
0.0403379
-0.0096524
0.0400902
-0.0105033
0.0398882
-0.011299
0.0397321
-0.0120296
0.039622
-0.0126874
0.0395573
-0.0132663
0.0395368
-0.0137634
0.0395587
-0.0141753
0.0396207
-0.0145063
0.0397205
-0.0147488
0.0398545
-0.0149265
0.0400212
-0.0150011
0.0402153
-0.0150677
0.0404377
-0.0149531
0.0406807
-0.0150246
0.04095
-0.0145972
0.0412328
-0.0149885
0.0415479
-0.0138662
0.041859
-0.0151739
-0.0131768
0.0532202
0.00100623
-0.0542169
0.0521583
-2.44347e-05
0.0511607
-0.00111677
0.0502453
-0.00215874
0.0494137
-0.00320088
0.0486649
-0.00423592
0.0479898
-0.00526069
0.0473795
-0.00627728
0.046828
-0.00728053
0.0463314
-0.00826122
0.0458877
-0.00920863
0.0454958
-0.0101115
0.0451557
-0.0109588
0.0448669
-0.0117409
0.0446292
-0.0124497
0.0444418
-0.0130788
0.0443031
-0.0136248
0.0442114
-0.0140837
0.0441642
-0.0144591
0.0441591
-0.0147438
0.0441924
-0.0149598
0.0442625
-0.0150712
0.0443638
-0.015169
0.0444977
-0.015087
0.0446547
-0.0151817
0.0448441
-0.0147866
0.0450453
-0.0151898
0.045292
-0.0141129
0.0455217
-0.0154036
-0.0134936
0.0607023
0.0020655
-0.0617616
0.059584
0.00109386
0.0584881
-2.0855e-05
0.0574434
-0.00111399
0.0564591
-0.00221665
0.0555445
-0.00332126
0.0546997
-0.00441591
0.053921
-0.00549859
0.0532048
-0.00656431
0.0525482
-0.00760461
0.0519494
-0.00860979
0.0514073
-0.00956937
0.0509214
-0.010473
0.0504915
-0.0113109
0.0501169
-0.0120751
0.0497968
-0.0127587
0.0495299
-0.0133578
0.0493142
-0.013868
0.0491473
-0.0142922
0.0490268
-0.0146233
0.048949
-0.014882
0.0489123
-0.0150345
0.0489106
-0.0151673
0.0489461
-0.0151225
0.0490074
-0.0152429
0.0491074
-0.0148867
0.0492177
-0.0153
0.0493868
-0.014282
0.0495262
-0.015543
-0.0137451
0.0683163
0.00315816
-0.069409
0.067181
0.00222923
0.0660409
0.0011192
0.0649241
2.7821e-06
0.0638413
-0.00113378
0.0628056
-0.00228561
0.0618252
-0.00343554
0.0609026
-0.0045759
0.0600381
-0.00569985
0.0592318
-0.00679835
0.0584836
-0.00786155
0.0577934
-0.00887918
0.0571614
-0.00984095
0.0565877
-0.0107372
0.056072
-0.0115595
0.0556139
-0.0123006
0.0552123
-0.0129561
0.0548655
-0.0135212
0.0545712
-0.0139979
0.0543274
-0.0143795
0.0541301
-0.0146847
0.0539781
-0.0148825
0.053865
-0.0150542
0.0537935
-0.015051
0.0537506
-0.0152
0.0537528
-0.0148889
0.0537637
-0.0153109
0.053847
-0.0143653
0.053888
-0.0155839
-0.0139226
0.0759397
0.004237
-0.0770186
0.0748289
0.00334008
0.0736941
0.00225399
0.0725592
0.0011377
0.0714322
-6.83761e-06
0.070327
-0.00118044
0.0692556
-0.00236414
0.0682257
-0.00354592
0.0672421
-0.00471629
0.0663085
-0.00586478
0.0654275
-0.00698057
0.0646012
-0.00805284
0.0638312
-0.00907091
0.0631187
-0.0100247
0.0624645
-0.0109053
0.0618688
-0.011705
0.0613313
-0.0124185
0.0608508
-0.0130408
0.0604255
-0.0135726
0.0600538
-0.0140077
0.0597319
-0.0143628
0.0594589
-0.0146095
0.0592282
-0.0148236
0.0590434
-0.0148663
0.0588897
-0.0150463
0.0587873
-0.0147865
0.058692
-0.0152155
0.0586822
-0.0143556
0.0586182
-0.0155199
-0.0140179
0.0834421
0.00524683
-0.0844519
0.0824015
0.00438067
0.0813203
0.00333513
0.0802171
0.00224098
0.0790995
0.00111077
0.0779778
-5.87473e-05
0.0768656
-0.00125199
0.0757736
-0.0024539
0.0747102
-0.00365292
0.0736825
-0.00483708
0.0726962
-0.00599427
0.071756
-0.00711259
0.0708656
-0.00818053
0.0700281
-0.00918724
0.0692459
-0.010123
0.0685203
-0.0109794
0.0678521
-0.0117503
0.0672411
-0.0124298
0.0666864
-0.0130179
0.0661867
-0.0135081
0.0657392
-0.0139153
0.0653431
-0.0142134
0.0649921
-0.0144726
0.0646905
-0.0145646
0.0644221
-0.0147778
0.0642106
-0.014575
0.0640045
-0.0150094
0.063896
-0.0142471
0.0637226
-0.0153465
-0.0140238
0.0907039
0.00613377
-0.0915909
0.0897791
0.00530555
0.0887975
0.00431664
0.0877732
0.00326533
0.0867137
0.00217032
0.0856271
0.00102782
0.0845254
-0.000150319
0.0834206
-0.00134911
0.0823232
-0.00255549
0.0812427
-0.00375656
0.0801875
-0.00493908
0.0791649
-0.00609001
0.0781812
-0.00719679
0.0772415
-0.00824755
0.07635
-0.00923158
0.07551
-0.0101394
0.0747236
-0.0109638
0.073992
-0.0116982
0.0733154
-0.0123412
0.0726935
-0.0128862
0.0721243
-0.013346
0.0716077
-0.0136968
0.0711377
-0.0140027
0.0707195
-0.0141464
0.0703359
-0.0143942
0.0700138
-0.0142529
0.0696952
-0.0146909
0.0694847
-0.0140366
0.0692003
-0.0150621
-0.0139347
0.0976347
0.00685418
-0.0983551
0.0968642
0.00607606
0.0960221
0.00515865
0.0951183
0.00416921
0.0941604
0.00312817
0.0931551
0.00203314
0.0921123
0.000892419
0.0910435
-0.000280219
0.0899597
-0.00147169
0.0888717
-0.00266862
0.0877899
-0.00385724
0.0867235
-0.00502364
0.085681
-0.00615428
0.0846697
-0.00723627
0.0836959
-0.00825778
0.0827647
-0.00920823
0.08188
-0.0100792
0.0810448
-0.010863
0.0802604
-0.0115569
0.0795281
-0.0121539
0.0788468
-0.0126647
0.0782174
-0.0130674
0.0776346
-0.0134199
0.0771045
-0.0136163
0.0766091
-0.0138988
0.0761786
-0.0138224
0.0757495
-0.0142618
0.0754365
-0.0137236
0.0750425
-0.0146681
-0.013747
0.104186
0.00738101
-0.104713
0.103596
0.00666609
0.102923
0.00583211
0.102171
0.00492034
0.10135
0.00394931
0.100465
0.00291884
0.0995223
0.00183476
0.0985332
0.000708804
0.0975081
-0.000446533
0.0964578
-0.00161831
0.0953932
-0.00279267
0.094325
-0.0039554
0.093263
-0.00509232
0.0922164
-0.00618968
0.0911933
-0.00723468
0.0902007
-0.00821562
0.0892443
-0.00912279
0.0883288
-0.00994747
0.0874574
-0.0106854
0.0866326
-0.0113291
0.0858546
-0.0118868
0.0851257
-0.0123384
0.0844414
-0.0127355
0.0838088
-0.0129838
0.0832099
-0.0132999
0.0826772
-0.0132897
0.0821434
-0.0137279
0.0817307
-0.0133109
0.0812323
-0.0141697
-0.0134598
0.110358
0.00770643
-0.110684
0.109959
0.0070653
0.109469
0.00632225
0.10889
0.00549909
0.108229
0.00461018
0.107491
0.00365731
0.106681
0.00264494
0.105807
0.00158261
0.104879
0.000481649
0.103906
-0.000645815
0.1029
-0.00178651
0.101871
-0.00292638
0.10083
-0.00405107
0.0997865
-0.00514638
0.0987506
-0.00619878
0.0977307
-0.00719565
0.096734
-0.00812615
0.095767
-0.00898045
0.0948344
-0.00975286
0.0939404
-0.0104351
0.0930867
-0.0110331
0.0922768
-0.0115285
0.0915073
-0.011966
0.0907866
-0.0122632
0.0900967
-0.01261
0.0894725
-0.0126654
0.088844
-0.0130995
0.088338
-0.0128049
0.0877442
-0.0135759
-0.0130752
0.116197
0.0078404
-0.116331
0.115983
0.00727911
0.115676
0.0066294
0.115275
0.00590003
0.114785
0.00510046
0.114209
0.00423361
0.11355
0.00330326
0.112816
0.00231696
0.112013
0.00128454
0.11115
0.000217132
0.110237
-0.000873091
0.109283
-0.00197266
0.108299
-0.00306749
0.107296
-0.0041434
0.106284
-0.00518648
0.105272
-0.00618353
0.104269
-0.0071228
0.103282
-0.00799353
0.102318
-0.00878865
0.101382
-0.00949916
0.100477
-0.0101287
0.0996091
-0.0106604
0.0987751
-0.011132
0.0979849
-0.011473
0.097221
-0.011846
0.0965197
-0.0119642
0.0958108
-0.0123905
0.0952216
-0.0122157
0.0945451
-0.0128995
-0.0125986
0.121783
0.00780614
-0.121748
0.121736
0.0073256
0.121599
0.00676686
0.121368
0.00613097
0.121045
0.00542285
0.120633
0.00464563
0.120134
0.00380269
0.119551
0.00289996
0.11889
0.00194567
0.118157
0.000949596
0.117361
-7.69542e-05
0.116511
-0.00112199
0.115615
-0.0021717
0.114684
-0.00321246
0.113728
-0.00423042
0.112756
-0.00521211
0.111779
-0.00614525
0.110804
-0.00701836
0.109838
-0.00782324
0.108889
-0.00855027
0.107961
-0.00920084
0.10706
-0.00975946
0.106186
-0.0102572
0.105348
-0.0106351
0.10453
-0.0110283
0.10377
-0.0112038
0.102998
-0.0116188
0.102339
-0.0115566
0.101596
-0.0121562
-0.012039
0.127214
0.0076339
-0.127042
0.127309
0.00723052
0.12732
0.00675677
0.127241
0.0062097
0.127073
0.0055907
0.126816
0.00490239
0.126471
0.00414778
0.12604
0.0033315
0.125525
0.00246027
0.124932
0.00154251
0.124267
0.000588148
0.123537
-0.000391663
0.122749
-0.00138448
0.121914
-0.00237717
0.12104
-0.00335635
0.120137
-0.0043087
0.119213
-0.0052217
0.118278
-0.00608352
0.11734
-0.00688506
0.116406
-0.00761629
0.115482
-0.00827653
0.114574
-0.00885176
0.113683
-0.00936628
0.112821
-0.00977263
0.111971
-0.010179
0.111172
-0.0104043
0.110357
-0.0108042
0.109644
-0.0108437
0.108853
-0.0113644
-0.0114082
0.132596
0.007355
-0.132317
0.132804
0.00702214
0.132936
0.00662519
0.132986
0.00615954
0.132952
0.0056241
0.132834
0.00502067
0.13263
0.00435177
0.132341
0.00362101
0.131967
0.00283374
0.131513
0.00199706
0.130981
0.00111959
0.130378
0.000211375
0.12971
-0.000716424
0.128985
-0.00165154
0.128209
-0.00258127
0.127393
-0.00349274
0.126545
-0.00437357
0.125674
-0.00521184
0.124786
-0.00599787
0.123892