/*--------------------------------*- C++ -*----------------------------------*\
  =========                 |
  \\      /  F ield         | OpenFOAM: The Open Source CFD Toolbox
   \\    /   O peration     | Website:  https://openfoam.org
    \\  /    A nd           | Version:  7
     \\/     M anipulation  |
\*---------------------------------------------------------------------------*/
FoamFile
{
    version     2.0;
    format      ascii;
    class       volVectorField;
    location    "20";
    object      U;
}
// * * * * * * * * * * * * * * * * * * * * * * * * * * * * * * * * * * * * * //

dimensions      [0 1 -1 0 0 0 0];

internalField   nonuniform List<vector> 
2125
(
(-0.000760328 0.00060131 3.62381e-22)
(-0.00384268 0.00131002 -1.1602e-21)
(-0.00929137 0.00165799 -1.42963e-21)
(-0.0153867 0.00174095 1.49242e-21)
(-0.0213861 0.00163098 -1.43481e-21)
(-0.0267533 0.00139417 -7.9316e-22)
(-0.0311291 0.00109188 1.39612e-21)
(-0.0343785 0.000781577 1.77799e-21)
(-0.0365521 0.000510847 -2.95431e-22)
(-0.0377522 0.000322929 8.83615e-22)
(-0.000843821 0.00179063 -4.01209e-22)
(-0.00398084 0.00389809 1.37825e-21)
(-0.00936422 0.00493008 -3.42621e-21)
(-0.0153049 0.00517161 3.26246e-21)
(-0.0210724 0.00483786 1.53408e-22)
(-0.0261407 0.00412621 2.59025e-21)
(-0.0301584 0.0032202 -4.6411e-21)
(-0.0330002 0.00229209 -6.95806e-21)
(-0.0347251 0.00148543 -1.38261e-21)
(-0.0353893 0.000932797 3.18294e-21)
(-0.00100735 0.00294038 3.73904e-22)
(-0.00424882 0.00639101 3.04341e-21)
(-0.00949849 0.00807148 7.55807e-21)
(-0.0151277 0.00844968 -7.16851e-21)
(-0.0204306 0.00788071 -1.68603e-21)
(-0.0249007 0.00669067 -1.58676e-21)
(-0.0282026 0.00518355 8.41821e-21)
(-0.0302297 0.00364594 5.37018e-21)
(-0.0310589 0.00231925 1.3158e-21)
(-0.0306505 0.00143387 -9.8668e-21)
(-0.00124409 0.00402523 1.32661e-21)
(-0.00463008 0.00872768 -1.77995e-21)
(-0.00967143 0.0109982 -1.41317e-20)
(-0.0148286 0.0114773 1.30791e-21)
(-0.0194318 0.0106545 4.23606e-21)
(-0.0230038 0.00898051 -3.41486e-21)
(-0.0252326 0.00687681 -1.57341e-22)
(-0.0260393 0.00474326 -1.46467e-21)
(-0.0255305 0.00292177 3.38991e-21)
(-0.0235079 0.00175485 9.82058e-21)
(-0.00154398 0.00502141 9.28068e-22)
(-0.00510013 0.0108505 -5.80619e-21)
(-0.00984913 0.0136312 1.4649e-20)
(-0.0143674 0.0141621 -7.01197e-21)
(-0.0180325 0.0130607 -2.75627e-23)
(-0.0204053 0.0108957 1.04416e-20)
(-0.0212043 0.00820214 -4.93046e-21)
(-0.0203867 0.00549122 5.28459e-22)
(-0.0181052 0.00321167 -2.15554e-21)
(-0.0139214 0.0018518 7.7528e-22)
(-0.00189397 0.00590719 1.1173e-20)
(-0.00562685 0.0127064 1.49721e-20)
(-0.0099868 0.0158974 -4.00847e-21)
(-0.0136909 0.0164199 8.03472e-21)
(-0.0161746 0.0150097 2.65973e-21)
(-0.0170452 0.0123462 -3.90202e-21)
(-0.0160583 0.00907211 -1.57969e-21)
(-0.0132132 0.00580756 -6.90214e-21)
(-0.00872551 0.00311967 1.56495e-21)
(-0.00186738 0.00175369 -9.08741e-21)
(-0.00227824 0.00666325 -1.07828e-20)
(-0.00617092 0.0142481 -7.81007e-21)
(-0.0100291 0.017732 6.77069e-21)
(-0.012733 0.0181758 -1.22612e-20)
(-0.0137852 0.0164233 1.46898e-21)
(-0.0128478 0.0132545 1.54161e-20)
(-0.00971955 0.00941313 -2.90175e-21)
(-0.00444442 0.00562688 1.90321e-20)
(0.00271878 0.00257311 -4.66052e-22)
(0.0126724 0.00132965 -7.99572e-21)
(-0.00267849 0.00727298 9.22485e-21)
(-0.00668628 0.0154346 -1.83328e-20)
(-0.00991053 0.0190793 -7.65409e-21)
(-0.0114145 0.0193668 9.30672e-21)
(-0.0107769 0.0172367 3.66711e-22)
(-0.00772132 0.0135586 -2.90177e-20)
(-0.00209438 0.0091675 -1.78044e-21)
(0.00600139 0.00489053 -1.51778e-20)
(0.0162755 0.00151889 -1.98959e-20)
(0.0298677 0.000481288 1.17578e-20)
(-0.00307416 0.00772262 -5.16294e-21)
(-0.00712061 0.0162319 2.73011e-21)
(-0.00955593 0.0198938 7.11676e-21)
(-0.00964399 0.0199427 -6.74733e-21)
(-0.00704778 0.0174012 -2.42723e-20)
(-0.00155903 0.013215 8.5715e-21)
(0.00692303 0.00829749 1.23738e-21)
(0.0182334 0.00356468 2.28841e-20)
(0.0320352 -5.49819e-05 3.05091e-20)
(0.0497987 -0.000734643 -1.38826e-20)
(-0.0034427 0.00800132 8.33851e-21)
(-0.0074158 0.0166134 8.34361e-21)
(-0.008881 0.020141 -1.21331e-21)
(-0.0073181 0.0198681 3.34247e-20)
(-0.00248159 0.0168857 1.47755e-20)
(0.00576196 0.0122012 1.1436e-20)
(0.0174562 0.00679178 1.65706e-20)
(0.0323716 0.00164948 -7.39863e-21)
(0.0501132 -0.00215963 -1.01953e-20)
(0.0725606 -0.00230227 -1.69822e-20)
(-0.00375974 0.00810105 -6.1922e-22)
(-0.00750848 0.0165601 -1.32725e-20)
(-0.007793 0.0197981 -1.00016e-20)
(-0.00432221 0.0191224 -1.66119e-20)
(0.00305133 0.0156779 -1.35361e-20)
(0.0143799 0.0105179 1.42719e-20)
(0.0296452 0.00466609 -1.3972e-20)
(0.0485507 -0.000828236 -9.82442e-21)
(0.0706355 -0.00477221 1.33697e-21)
(0.0982672 -0.00419707 4.39165e-21)
(-0.0039992 0.00801646 -2.35433e-20)
(-0.00733059 0.0160607 1.22428e-20)
(-0.00619167 0.0188544 9.26522e-21)
(-0.00053171 0.017701 6.57697e-21)
(0.00969295 0.0137854 -1.22932e-20)
(0.0244472 0.00819035 -1.05789e-20)
(0.0436448 0.00196617 1.57909e-20)
(0.0669191 -0.00380619 -1.31999e-20)
(0.0937375 -0.00782966 -9.38532e-22)
(0.12704 -0.00636404 -1.41896e-20)
(-0.00413337 0.00774501 2.0091e-20)
(-0.0068099 0.0151117 8.92275e-21)
(-0.0039705 0.0173108 4.69439e-22)
(0.00418638 0.0156153 -1.19892e-20)
(0.0175956 0.0112357 7.35361e-22)
(0.0361284 0.00526846 1.42321e-20)
(0.0596234 -0.00123029 -4.10914e-21)
(0.0876381 -0.00718116 -5.11209e-21)
(0.119563 -0.0112228 -1.15475e-20)
(0.158998 -0.00871142 2.13305e-20)
(-0.0041334 0.00728683 1.41279e-20)
(-0.00587094 0.0137168 -2.43783e-20)
(-0.00101819 0.0151805 -1.95712e-20)
(0.00997109 0.0128922 8.87414e-21)
(0.0269192 0.00807532 1.84957e-20)
(0.0495974 0.0018259 1.62101e-20)
(0.0777599 -0.00481416 -1.74705e-20)
(0.110879 -0.0108061 3.43189e-20)
(0.148262 -0.0147866 -1.06492e-20)
(0.194249 -0.0110998 -2.54542e-20)
(-0.00396921 0.00664454 -2.08002e-20)
(-0.00443611 0.0118881 1.36775e-20)
(0.00277915 0.0124887 -7.02443e-21)
(0.0169643 0.00957354 8.33581e-22)
(0.0378268 0.00436783 8.05748e-21)
(0.0650329 -0.00204325 -2.54765e-20)
(0.0982403 -0.00864868 2.29138e-20)
(0.136823 -0.0144912 -2.29566e-20)
(0.179993 -0.0182908 3.69609e-20)
(0.232885 -0.0133311 1.33003e-20)
(-0.00361 0.00582367 4.71102e-21)
(-0.00242704 0.00964555 2.71984e-20)
(0.00753528 0.00927206 -7.35437e-21)
(0.0253066 0.00571484 7.46348e-21)
(0.0504795 0.00019149 9.10572e-21)
(0.0826116 -0.00622988 -2.91336e-21)
(0.121252 -0.0125777 2.01371e-20)
(0.165656 -0.0180118 1.21339e-21)
(0.214929 -0.0214388 -2.34011e-20)
(0.274983 -0.0151414 3.21975e-20)
(-0.00302474 0.00483289 -1.22854e-20)
(0.000233643 0.0070175 -2.61012e-20)
(0.0133605 0.00557927 2.34207e-20)
(0.035132 0.00138471 1.23186e-20)
(0.0650287 -0.00436417 -5.77466e-20)
(0.102499 -0.0106171 4.84936e-20)
(0.146971 -0.0164389 -4.4275e-20)
(0.197563 -0.0211245 9.04902e-22)
(0.253256 -0.0238587 -1.00849e-20)
(0.3206 -0.0161369 -2.97417e-20)
(-0.00218297 0.0036844 1.1066e-20)
(0.00362014 0.00404141 -1.83382e-21)
(0.020358 0.00147102 -5.74821e-21)
(0.046562 -0.00333606 -5.87205e-22)
(0.081607 -0.00920145 -4.02679e-21)
(0.124837 -0.0150894 -1.52148e-20)
(0.175552 -0.0200845 6.36188e-21)
(0.232715 -0.023592 -1.07617e-20)
(0.29514 -0.0250387 3.47512e-21)
(0.369623 -0.0155213 1.73538e-21)
(-0.0010556 0.00239437 -2.2718e-20)
(0.00780115 0.000764429 -2.00665e-21)
(0.0286192 -0.00297925 2.88985e-21)
(0.0596987 -0.00835428 1.3193e-21)
(0.100318 -0.0142168 1.91958e-20)
(0.149729 -0.0195441 -5.79043e-20)
(0.20712 -0.023417 3.94017e-20)
(0.271319 -0.0252461 -3.02719e-20)
(0.34087 -0.0243252 2.51714e-20)
(0.421599 -0.0119558 2.66879e-20)
(0.000384014 0.000983333 -2.90991e-21)
(0.0128374 -0.0027559 1.3619e-20)
(0.0382203 -0.00768426 -1.75736e-20)
(0.0746173 -0.0135627 -5.657e-21)
(0.12122 -0.0192995 1.13409e-20)
(0.177211 -0.023898 5.54889e-20)
(0.241723 -0.026432 -1.11677e-20)
(0.313648 -0.026152 5.47958e-21)
(0.391526 -0.0215828 -3.00551e-20)
(0.477828 -0.00565217 1.4669e-20)
(0.00215929 -0.000523587 -8.66906e-21)
(0.0187799 -0.00645105 -7.21873e-21)
(0.0492187 -0.0125413 1.99701e-21)
(0.0913611 -0.0188358 7.2278e-21)
(0.144317 -0.0243227 -2.22305e-20)
(0.207212 -0.0280703 -9.16884e-21)
(0.27918 -0.0292049 -2.95859e-20)
(0.359511 -0.0267948 3.03401e-20)
(0.448264 -0.0185741 3.3184e-20)
(0.548291 -0.00254251 -1.2243e-20)
(0.00428972 -0.00209676 -4.33207e-21)
(0.0256683 -0.0102414 1.81081e-20)
(0.0616518 -0.0174308 -2.05172e-20)
(0.10994 -0.0240248 -2.56975e-21)
(0.169552 -0.0291255 -1.04586e-20)
(0.239538 -0.0319241 2.29383e-20)
(0.318994 -0.0317236 2.98718e-20)
(0.407389 -0.0278028 -2.93651e-20)
(0.50546 -0.0187533 3.28642e-20)
(0.612917 -0.00952035 5.39165e-21)
(0.00679064 -0.00370248 -1.24611e-20)
(0.0335307 -0.0140371 -3.66717e-20)
(0.075538 -0.0222169 3.70264e-20)
(0.130335 -0.0289555 5.44887e-21)
(0.196832 -0.0335023 7.97389e-21)
(0.273956 -0.0352206 5.358e-21)
(0.360654 -0.033674 2.3227e-20)
(0.456231 -0.0285308 1.72935e-20)
(0.56112 -0.0192917 -6.33828e-20)
(0.671695 -0.014407 -3.24762e-20)
(0.042384 -0.0177395 9.02882e-21)
(0.0908776 -0.0267502 -2.124e-20)
(0.152507 -0.033434 4.09203e-21)
(0.226045 -0.0372146 6.84807e-21)
(0.310239 -0.0376597 -5.05684e-20)
(0.403783 -0.0346173 2.31793e-20)
(0.505575 -0.0281362 -1.56651e-20)
(0.615278 -0.0182911 1.69533e-20)
(0.727117 -0.0149072 -6.75535e-21)
(0.107654 -0.0308723 -1.17731e-21)
(0.176395 -0.0372548 -5.92154e-21)
(0.257064 -0.0400123 6.72677e-23)
(0.348177 -0.0389348 2.18576e-22)
(0.448097 -0.0341531 -3.50433e-20)
(0.555205 -0.0260457 4.87946e-21)
(0.668297 -0.015057 4.66606e-20)
(0.780518 -0.0113885 2.22304e-20)
(0.125832 -0.0344208 3.62816e-20)
(0.201918 -0.0402113 8.84126e-22)
(0.289744 -0.0416502 -1.62191e-20)
(0.387557 -0.0387636 4.41482e-20)
(0.493339 -0.0319575 1.00269e-20)
(0.604924 -0.0218977 7.83217e-22)
(0.720296 -0.00929707 -2.0264e-20)
(0.832176 -0.00419998 -2.83154e-20)
(0.228971 -0.0421022 -1.57384e-20)
(0.32392 -0.0418996 2.60406e-20)
(0.428149 -0.0369011 -1.31102e-20)
(0.539238 -0.027784 -1.5251e-20)
(0.654488 -0.0154758 -3.54594e-21)
(0.771173 -0.000915139 -1.19637e-20)
(0.881979 0.0062967 1.38522e-20)
(0.359396 -0.0405559 1.44149e-20)
(0.469693 -0.033146 -4.89717e-20)
(0.585493 -0.0214603 3.24716e-20)
(0.703598 -0.00667802 -1.51596e-20)
(0.820693 0.0100446 2.39839e-20)
(0.929666 0.0196946 6.84194e-21)
(0.631768 -0.0128822 -8.22575e-21)
(0.751909 0.00450858 7.28233e-21)
(0.868543 0.0234476 -1.83548e-20)
(0.974915 0.0355826 -1.97047e-20)
(0.799046 0.0180281 -2.32434e-20)
(0.914377 0.039104 4.40328e-22)
(1.01739 0.0535624 1.37975e-20)
(0.95784 0.0567881 1.8473e-20)
(1.0568 0.0732543 -8.22599e-21)
(-0.000760328 -0.000601314 -3.62381e-22)
(-0.00384268 -0.00131002 1.1602e-21)
(-0.00929137 -0.001658 1.42963e-21)
(-0.0390201 0.000325862 1.59222e-22)
(-0.0399082 -6.98611e-05 -3.79178e-22)
(-0.0387011 -0.000515221 2.92619e-23)
(-0.0354685 -0.000996718 1.65363e-22)
(-0.0298102 -0.00146679 -2.08049e-24)
(-0.021663 -0.00189176 2.69855e-23)
(-0.0110762 -0.00225482 2.2531e-23)
(0.00181967 -0.00254809 -1.64853e-22)
(0.0168338 -0.00277171 6.254e-23)
(0.0337501 -0.00293042 -1.47516e-22)
(0.0523437 -0.00303139 1.28382e-22)
(0.072394 -0.00308265 -1.3554e-22)
(0.0936903 -0.00309208 4.54529e-23)
(0.116036 -0.00306693 2.70058e-23)
(0.139247 -0.00301364 -5.3344e-23)
(0.163156 -0.00293776 -3.7714e-23)
(0.1876 -0.00284419 -2.98878e-23)
(0.212452 -0.00273678 1.05305e-23)
(0.23754 -0.00261958 1.1626e-23)
(0.262821 -0.0024944 5.89403e-24)
(0.288023 -0.00236628 -3.37576e-23)
(0.313352 -0.00223229 4.57412e-24)
(0.338128 -0.00210464 -1.37592e-23)
(0.363369 -0.00196457 5.52615e-24)
(0.386969 -0.00185288 -1.09017e-23)
(0.412584 -0.00169612 2.3899e-24)
(0.433439 -0.00163302 6.3331e-24)
(0.46154 -0.00141822 -3.86349e-25)
(0.475578 -0.00146819 5.06155e-24)
(0.512275 -0.00114361 9.3804e-24)
(-0.0363471 0.000950895 3.03289e-22)
(-0.0371536 -0.000241978 7.78824e-22)
(-0.0357482 -0.00157209 -1.15756e-21)
(-0.0323453 -0.00301079 3.05518e-22)
(-0.0265399 -0.00441448 1.57759e-22)
(-0.0182784 -0.00568254 -5.8729e-22)
(-0.00761681 -0.00676529 9.33108e-22)
(0.00531405 -0.0076395 -7.86031e-22)
(0.0203258 -0.00830586 -2.23654e-23)
(0.037207 -0.00877863 4.29543e-22)
(0.0557382 -0.00907927 -6.29966e-23)
(0.0757042 -0.00923164 -1.26146e-22)
(0.0968992 -0.00925924 -9.46337e-23)
(0.119131 -0.00918362 1.51588e-22)
(0.142219 -0.00902401 2.72472e-23)
(0.166 -0.0087969 1.48539e-22)
(0.190311 -0.00851691 -8.52357e-23)
(0.215029 -0.00819554 4.44861e-23)
(0.239982 -0.00784486 1.64126e-23)
(0.265129 -0.00747025 -4.93918e-23)
(0.2902 -0.00708685 -6.15925e-23)
(0.315399 -0.0066858 5.06955e-24)
(0.340051 -0.00630375 -2.76761e-24)
(0.365168 -0.00588438 2.56467e-23)
(0.388652 -0.00555013 -2.58379e-24)
(0.41415 -0.00508066 -7.04163e-25)
(0.434902 -0.004892 -3.74821e-24)
(0.462887 -0.00424856 -1.59647e-24)
(0.476848 -0.00439856 2.08506e-24)
(0.513409 -0.00342707 -1.10369e-23)
(-0.0309931 0.00149944 1.8871e-21)
(-0.0316387 -0.000509696 -1.70718e-21)
(-0.0298389 -0.00270767 5.09746e-22)
(-0.0260992 -0.00508609 -1.89039e-21)
(-0.0200034 -0.00740382 8.09726e-22)
(-0.0115176 -0.00949449 1.85909e-21)
(-0.000710592 -0.0112776 9.43671e-23)
(0.0122864 -0.0127161 -1.2758e-21)
(0.0272902 -0.0138118 5.35978e-23)
(0.0440987 -0.0145887 3.55045e-22)
(0.0625032 -0.0150821 -2.92984e-22)
(0.0822995 -0.0153314 1.30094e-22)
(0.103291 -0.0153751 3.42014e-22)
(0.125296 -0.0152486 2.07562e-22)
(0.148138 -0.0149834 -8.17519e-23)
(0.171662 -0.0146067 -4.241e-22)
(0.195709 -0.0141424 2.30414e-22)
(0.220159 -0.0136096 -2.26615e-22)
(0.244845 -0.0130282 1.50761e-22)
(0.269726 -0.012407 -7.46967e-23)
(0.294535 -0.0117712 1.80589e-22)
(0.319477 -0.0111059 1.22603e-23)
(0.343879 -0.0104722 -8.15087e-24)
(0.368751 -0.00977624 -3.49631e-23)
(0.392005 -0.00922195 -1.94145e-24)
(0.417269 -0.00844228 -3.01483e-23)
(0.437818 -0.00813009 4.09424e-24)
(0.465571 -0.00706099 2.76319e-24)
(0.47938 -0.00731136 -8.62962e-24)
(0.51567 -0.00569958 -7.14039e-24)
(-0.0229401 0.00193122 -2.59752e-21)
(-0.023353 -0.000933447 1.34753e-21)
(-0.0209661 -0.00397218 -1.50146e-21)
(-0.0167301 -0.00726099 1.60413e-21)
(-0.0102086 -0.0104601 -1.92811e-21)
(-0.00139702 -0.0133394 -1.63828e-22)
(0.00961755 -0.015791 2.19166e-21)
(0.0227041 -0.0177662 -1.18805e-22)
(0.0376878 -0.0192694 -7.41559e-22)
(0.054381 -0.0203342 7.63125e-24)
(0.0725912 -0.0210095 -2.39746e-23)
(0.0921301 -0.0213491 4.43859e-22)
(0.112816 -0.0214057 -7.24915e-23)
(0.134479 -0.0212277 -7.6781e-22)
(0.156954 -0.0208582 5.16441e-22)
(0.180094 -0.0203345 -1.06454e-22)
(0.203748 -0.0196896 6.78264e-23)
(0.227799 -0.0189496 1.5988e-23)
(0.252086 -0.018142 -6.9936e-23)
(0.276572 -0.017279 1.43756e-23)
(0.300992 -0.0163955 6.20847e-23)
(0.325551 -0.0154707 2.22284e-23)
(0.349583 -0.01459 -1.50532e-23)
(0.374092 -0.0136218 -4.03683e-24)
(0.397002 -0.0128517 4.74008e-23)
(0.42192 -0.011766 1.28085e-23)
(0.442165 -0.0113336 -4.61296e-24)
(0.469575 -0.00984376 3.63989e-24)
(0.483158 -0.010195 -6.08501e-24)
(0.519047 -0.00795388 3.05422e-23)
(-0.0121606 0.00218248 5.43232e-21)
(-0.012282 -0.00156285 -1.73472e-21)
(-0.00911747 -0.00540952 2.04053e-21)
(-0.00423625 -0.00956971 -1.43358e-22)
(0.00283344 -0.0136046 -1.84952e-21)
(0.0120593 -0.0172256 9.76296e-22)
(0.0233305 -0.0203016 1.62504e-22)
(0.0365183 -0.0227761 -1.2165e-21)
(0.0514601 -0.0246569 -6.65002e-23)
(0.0679879 -0.0259877 6.25284e-22)
(0.0859309 -0.0268301 -3.91534e-22)
(0.105122 -0.0272513 -6.77147e-23)
(0.125399 -0.0273167 4.05753e-22)
(0.146606 -0.0270867 -1.67542e-22)
(0.168594 -0.0266151 4.41968e-23)
(0.191225 -0.0259484 -3.21846e-22)
(0.214358 -0.0251281 1.42465e-22)
(0.237883 -0.0241867 4.90947e-23)
(0.261644 -0.0231594 6.65783e-24)
(0.285608 -0.022061 -3.30802e-24)
(0.309515 -0.0209367 -2.94315e-22)
(0.333572 -0.0197588 -2.44312e-23)
(0.357117 -0.0186375 -1.72271e-23)
(0.381146 -0.0174031 6.27543e-23)
(0.403606 -0.0164229 -5.45667e-23)
(0.428067 -0.015037 -4.32479e-24)
(0.447915 -0.0144891 3.17178e-23)
(0.474872 -0.0125854 1.24305e-23)
(0.488158 -0.0130383 2.6019e-23)
(0.523518 -0.0101828 -1.54922e-23)
(0.00137254 0.00206811 1.27496e-21)
(0.0016124 -0.00239265 1.76844e-22)
(0.00572267 -0.00705275 -3.26005e-22)
(0.0113856 -0.0120408 -1.10055e-21)
(0.0191095 -0.0168538 4.59952e-21)
(0.0288198 -0.0211564 -1.40939e-21)
(0.0403794 -0.0248015 -9.51187e-22)
(0.0536642 -0.0277281 -6.75277e-22)
(0.0685296 -0.0299499 1.10141e-21)
(0.0848323 -0.0315201 2.59709e-22)
(0.102429 -0.032512 -5.15662e-22)
(0.121177 -0.0330044 -5.73299e-22)
(0.140939 -0.0330743 3.36066e-22)
(0.161577 -0.0327922 -1.36949e-22)
(0.182959 -0.0322216 2.08987e-22)
(0.20496 -0.0314171 1.27131e-22)
(0.227449 -0.030428 -1.15449e-22)
(0.250324 -0.0292931 1.99029e-22)
(0.273437 -0.0280542 -3.60214e-22)
(0.296758 -0.026729 -3.7197e-23)
(0.320035 -0.0253721 -3.96227e-23)
(0.343472 -0.0239495 -2.78754e-23)
(0.366418 -0.0225957 1.13198e-22)
(0.389859 -0.0211029 -6.98822e-23)
(0.411765 -0.01992 -8.26524e-23)
(0.435665 -0.0182412 -5.71695e-23)
(0.455026 -0.0175835 -4.13932e-23)
(0.481427 -0.0152746 2.75966e-24)
(0.494351 -0.0158301 -1.92852e-23)
(0.52906 -0.0123792 -4.4774e-24)
(0.0176816 0.00167991 -3.183e-22)
(0.0184413 -0.00349349 -1.40309e-21)
(0.0235579 -0.00894446 2.32016e-21)
(0.0301407 -0.0146969 -3.43708e-21)
(0.038605 -0.0202173 3.2318e-22)
(0.0488464 -0.025129 1.48615e-21)
(0.0607031 -0.029277 2.58953e-24)
(0.0740613 -0.0326007 -2.13717e-21)
(0.0887997 -0.0351209 2.48264e-21)
(0.104806 -0.0369003 -1.35723e-21)
(0.121969 -0.0380219 1.10211e-21)
(0.140176 -0.0385746 8.34238e-22)
(0.159315 -0.0386446 -7.50126e-22)
(0.179272 -0.0383112 -6.28597e-22)
(0.199931 -0.0376458 1.1147e-22)
(0.221184 -0.0367103 -1.78827e-22)
(0.242909 -0.035561 -6.65624e-23)
(0.265017 -0.0342418 -9.23949e-23)
(0.287364 -0.0328015 -1.30579e-22)
(0.309929 -0.0312596 2.73426e-22)
(0.332462 -0.0296805 1.81449e-22)
(0.355171 -0.0280231 -1.29224e-23)
(0.377413 -0.0264465 -9.16934e-23)
(0.400163 -0.0247046 1.94252e-22)
(0.421419 -0.0233279 1.22849e-23)
(0.444661 -0.021365 4.9832e-23)
(0.46345 -0.0206045 -5.8806e-23)
(0.489197 -0.0179009 -4.79815e-24)
(0.501699 -0.0185599 5.8265e-24)
(0.535641 -0.0145362 1.45723e-23)
(0.0368506 0.00114749 4.36147e-21)
(0.0382001 -0.00495563 -1.01563e-22)
(0.0444448 -0.0111093 1.00849e-21)
(0.0520438 -0.0175515 -5.75791e-22)
(0.0613045 -0.023696 3.91549e-22)
(0.0720939 -0.0291327 2.92809e-21)
(0.0842289 -0.0337081 -1.94791e-21)
(0.0976128 -0.037367 -1.79634e-21)
(0.112155 -0.0401389 -1.57943e-22)
(0.12778 -0.0420948 -2.82791e-22)
(0.144413 -0.0433257 1.69744e-21)
(0.161976 -0.0439278 -1.18054e-21)
(0.180383 -0.0439943 5.78634e-22)
(0.199547 -0.0436114 -1.07407e-21)
(0.21937 -0.042857 -3.1918e-22)
(0.23976 -0.041799 6.15785e-22)
(0.260609 -0.0404996 2.48689e-22)
(0.281837 -0.0390075 5.05989e-23)
(0.30331 -0.0373775 1.89641e-22)
(0.32501 -0.035631 -1.26626e-22)
(0.346696 -0.0338416 -3.08731e-22)
(0.368576 -0.0319609 1.90489e-22)
(0.390016 -0.0301729 8.87085e-23)
(0.411979 -0.0281927 -1.43293e-22)
(0.432495 -0.0266322 1.58189e-22)
(0.454989 -0.0243954 4.06365e-23)
(0.473129 -0.0235401 2.56648e-23)
(0.498131 -0.0204541 5.37433e-24)
(0.510156 -0.0212177 -1.24274e-23)
(0.543224 -0.0166469 -4.56962e-23)
(0.0589555 0.000336698 -2.87035e-21)
(0.0609512 -0.00674844 2.97642e-21)
(0.0684332 -0.0135537 4.22646e-22)
(0.0771141 -0.0206073 -1.69832e-21)
(0.0871921 -0.0272804 -2.36587e-21)
(0.0985096 -0.033147 1.09878e-21)
(0.110871 -0.0380668 1.05766e-22)
(0.124206 -0.0419946 -2.11874e-21)
(0.138462 -0.0449691 -3.78862e-22)
(0.153607 -0.0470681 1.46003e-21)
(0.169605 -0.048388 1.35176e-22)
(0.186414 -0.0490295 3.94076e-22)
(0.20398 -0.0490904 -5.73546e-22)
(0.222239 -0.0486616 1.11703e-21)
(0.241117 -0.0478258 -4.02521e-22)
(0.260535 -0.0466556 -6.75414e-22)
(0.280401 -0.0452182 5.83401e-22)
(0.300645 -0.0435663 4.65008e-22)
(0.321142 -0.0417602 -4.00571e-22)
(0.341878 -0.0398226 -7.72816e-23)
(0.362622 -0.0378364 4.2843e-23)
(0.383578 -0.0357457 -3.47454e-23)
(0.404128 -0.0337589 -5.87799e-23)
(0.425217 -0.0315525 1.60545e-22)
(0.444913 -0.0298197 -1.08916e-22)
(0.466575 -0.0273206 -1.03057e-22)
(0.483997 -0.0263793 -8.51021e-24)
(0.508173 -0.0229246 8.20716e-25)
(0.519672 -0.0237939 1.09782e-23)
(0.551767 -0.0187048 -4.51983e-23)
(0.0840796 -0.00077658 2.17158e-21)
(0.0867886 -0.00886814 2.29465e-21)
(0.0955829 -0.0162782 -3.38889e-21)
(0.105377 -0.0238545 -1.92786e-21)
(0.11625 -0.0309481 4.59628e-21)
(0.128031 -0.0371408 7.17474e-22)
(0.140528 -0.0423166 -2.48032e-21)
(0.153709 -0.0464445 1.63651e-21)
(0.167567 -0.0495724 -1.43583e-21)
(0.182117 -0.0517823 1.01502e-21)
(0.197366 -0.0531726 3.3508e-22)
(0.213309 -0.0538456 7.98913e-22)
(0.229923 -0.053901 -4.30428e-22)
(0.24717 -0.053432 -6.25235e-22)
(0.264996 -0.0525244 7.04692e-22)
(0.283341 -0.0512544 1.68709e-22)
(0.302125 -0.0496929 -4.85629e-22)
(0.321288 -0.047896 4.2471e-22)
(0.340714 -0.045929 -1.49546e-22)
(0.360398 -0.0438156 3.05435e-22)
(0.380111 -0.0416477 2.16829e-22)
(0.400061 -0.0393614 4.68697e-23)
(0.419641 -0.0371899 -2.73981e-22)
(0.439778 -0.0347707 8.84689e-23)
(0.458583 -0.0328781 4.74646e-23)
(0.479341 -0.0301293 6.97998e-23)
(0.495984 -0.0291118 9.15388e-23)
(0.519258 -0.0253036 -2.1984e-23)
(0.530192 -0.0262798 -4.26939e-23)
(0.561224 -0.0207034 6.52994e-23)
(0.11232 -0.00217776 3.33389e-21)
(0.115826 -0.0113091 2.68431e-21)
(0.125971 -0.0192712 -7.84506e-21)
(0.136863 -0.0272682 -3.08599e-21)
(0.148455 -0.0346627 9.69119e-21)
(0.160585 -0.0410706 -8.31894e-21)
(0.173084 -0.0464115 3.94135e-21)
(0.185972 -0.0506717 1.73076e-21)
(0.199297 -0.053906 -7.43148e-22)
(0.213123 -0.0561975 2.08349e-22)
(0.2275 -0.0576429 -1.28461e-21)
(0.242461 -0.0583425 1.12304e-21)
(0.258013 -0.0583952 1.02395e-21)
(0.274144 -0.0578942 -1.19737e-21)
(0.290818 -0.056927 4.52304e-22)
(0.307994 -0.0555714 -3.65663e-23)
(0.325604 -0.0539018 8.40493e-22)
(0.343599 -0.0519765 6.34563e-22)
(0.361872 -0.0498655 -1.7768e-22)
(0.380421 -0.047593 7.09136e-23)
(0.399029 -0.0452598 3.46877e-23)
(0.417898 -0.0427936 -4.2042e-22)
(0.436439 -0.0404527 2.09685e-22)
(0.455556 -0.0378351 -2.70694e-22)
(0.473407 -0.0357963 9.84272e-24)
(0.493197 -0.0328117 -2.91036e-23)
(0.509009 -0.0317281 -2.87002e-23)
(0.531318 -0.0275832 -7.99316e-25)
(0.541653 -0.0286673 6.83316e-23)
(0.571543 -0.0226367 1.77809e-23)
(0.143789 -0.00385024 -1.08775e-21)
(0.1482 -0.0140541 8.56214e-21)
(0.15969 -0.0225044 -2.97347e-21)
(0.171607 -0.0308062 -1.00306e-20)
(0.183777 -0.0383709 1.27321e-20)
(0.19608 -0.0448793 -5.76394e-21)
(0.208402 -0.0502962 2.33015e-22)
(0.220825 -0.0546246 -4.75768e-21)
(0.233459 -0.0579235 2.46665e-21)
(0.246417 -0.0602724 1.17156e-21)
(0.259794 -0.0617619 -2.27256e-21)
(0.273655 -0.0624874 8.01614e-22)
(0.288037 -0.0625436 1.1585e-23)
(0.30295 -0.062022 1.16364e-22)
(0.31838 -0.0610096 -9.57113e-22)
(0.334299 -0.0595852 7.9594e-22)
(0.350653 -0.0578253 2.87989e-22)
(0.367403 -0.0557899 -7.11279e-22)
(0.384448 -0.0535534 -5.17198e-22)
(0.401794 -0.0511398 1.28787e-22)
(0.419229 -0.048659 3.39257e-22)
(0.436955 -0.0460298 -2.74121e-22)
(0.454397 -0.0435357 2.44762e-22)
(0.472437 -0.0407352 -2.27575e-24)
(0.489283 -0.0385645 -4.64757e-23)
(0.508051 -0.0353587 -5.66115e-23)
(0.52299 -0.03422 6.58949e-23)
(0.544278 -0.0297562 6.99698e-24)
(0.553991 -0.0309491 -3.95385e-24)
(0.58267 -0.0244988 -2.0876e-23)
(0.178611 -0.00578021 1.43264e-20)
(0.18408 -0.0170748 -1.35456e-23)
(0.196855 -0.0259311 -1.36254e-20)
(0.20964 -0.0344056 1.17586e-20)
(0.222168 -0.0420011 4.65013e-22)
(0.234403 -0.0484962 -4.13995e-21)
(0.246318 -0.0539055 3.10885e-21)
(0.258073 -0.0582462 2.04782e-21)
(0.269838 -0.0615758 -1.80407e-21)
(0.281775 -0.0639648 -2.92762e-21)
(0.294017 -0.0654938 8.5432e-22)
(0.30666 -0.066249 5.89612e-23)
(0.319766 -0.0663191 -4.26496e-22)
(0.333368 -0.0657914 7.63397e-22)
(0.347468 -0.0647511 -4.3362e-22)
(0.362053 -0.0632769 4.28822e-22)
(0.377078 -0.0614464 -2.34837e-22)
(0.392515 -0.0593208 6.12857e-22)
(0.40827 -0.0569786 1.72879e-22)
(0.424354 -0.0544432 -2.26616e-22)
(0.440562 -0.0518334 -4.69307e-22)
(0.457092 -0.049059 2.78299e-22)
(0.473387 -0.0464289 -1.42964e-22)
(0.490304 -0.0434617 -8.8382e-24)
(0.506102 -0.0411741 9.61724e-23)
(0.523806 -0.0377627 -2.92477e-23)
(0.537839 -0.03658 -6.79481e-23)
(0.558062 -0.0318163 -1.77771e-24)
(0.567135 -0.0331188 -2.84119e-23)
(0.594546 -0.0262843 7.69391e-23)
(0.216932 -0.00795871 3.09615e-21)
(0.223672 -0.0203348 -3.77869e-21)
(0.237592 -0.0294826 5.65001e-21)
(0.250982 -0.0379792 2.01353e-21)
(0.263552 -0.0454616 2.01552e-21)
(0.275408 -0.0518361 -3.21331e-21)
(0.286642 -0.0571662 -4.82956e-21)
(0.297496 -0.0614756 3.89919e-21)
(0.308198 -0.0648126 2.82813e-21)
(0.318952 -0.0672335 -4.95534e-21)
(0.329923 -0.068804 5.68407e-22)
(0.341233 -0.0695987 1.25382e-21)
(0.352965 -0.0696973 -7.99868e-22)
(0.365169 -0.0691815 2.20391e-21)
(0.377863 -0.0681334 -8.85377e-22)
(0.391044 -0.0666303 -6.25299e-23)
(0.404679 -0.0647507 9.74299e-23)
(0.418746 -0.0625565 4.84208e-22)
(0.43316 -0.0601295 -2.86372e-22)
(0.447934 -0.0574925 5.64061e-22)
(0.462871 -0.0547733 -5.3378e-22)
(0.478165 -0.0518724 -1.11583e-22)
(0.493275 -0.049124 -1.60256e-22)
(0.509033 -0.0460069 7.63006e-23)
(0.523753 -0.0436181 -1.00464e-22)
(0.54036 -0.0400171 1.47584e-22)
(0.553464 -0.0388019 6.01683e-23)
(0.572587 -0.0337582 -2.14028e-23)
(0.581014 -0.0351707 1.64748e-23)
(0.60711 -0.027988 -6.86769e-23)
(0.258929 -0.0103946 -5.47903e-21)
(0.267233 -0.0237893 7.2959e-21)
(0.28204 -0.0330607 2.36863e-22)
(0.295624 -0.0414092 -3.37906e-21)
(0.307816 -0.0486383 4.74162e-21)
(0.318912 -0.0548004 -1.13139e-21)
(0.329147 -0.0599978 2.93289e-22)
(0.338846 -0.0642483 4.3707e-21)
(0.348281 -0.0675831 -7.00182e-21)
(0.357688 -0.0700379 5.73535e-21)
(0.367254 -0.0716603 -2.03887e-21)
(0.377121 -0.0725101 -1.88492e-21)
(0.387387 -0.0726566 3.10497e-22)
(0.398117 -0.0721742 -2.22879e-22)
(0.409337 -0.0711411 8.53163e-22)
(0.421057 -0.0696323 4.28159e-22)
(0.433252 -0.0677268 -1.39927e-21)
(0.445905 -0.0654865 -9.39953e-23)
(0.458938 -0.0629968 9.27142e-22)
(0.472365 -0.0602795 -4.32492e-22)
(0.485999 -0.0574712 4.15085e-22)
(0.500027 -0.0544629 4.05168e-23)
(0.513927 -0.0516144 5.16288e-23)
(0.5285 -0.0483649 -1.08039e-22)
(0.542122 -0.0458907 5.70612e-23)
(0.557609 -0.0421168 -5.3687e-23)
(0.569772 -0.0408806 1.00528e-23)
(0.587771 -0.0355776 -1.72998e-23)
(0.595552 -0.0371003 -8.45574e-24)
(0.6203 -0.0296052 5.06551e-23)
(0.304847 -0.0131171 -8.42645e-22)
(0.315081 -0.0273666 -1.03795e-20)
(0.330328 -0.0365206 2.96257e-22)
(0.343507 -0.0445392 5.70483e-21)
(0.354785 -0.0513928 3.2255e-22)
(0.364679 -0.0572774 -5.17803e-22)
(0.37357 -0.0623132 -2.01728e-21)
(0.381845 -0.0664977 5.43078e-21)
(0.389806 -0.0698357 -3.82825e-21)
(0.397704 -0.072338 -5.49772e-22)
(0.405739 -0.074031 3.35508e-21)
(0.414063 -0.0749581 -2.52956e-21)
(0.422782 -0.0751764 -3.32787e-22)
(0.43197 -0.0747526 1.50356e-21)
(0.441663 -0.0737599 1.47426e-21)
(0.451876 -0.0722709 -1.13839e-21)
(0.462592 -0.0703643 -1.7036e-22)
(0.473798 -0.0681019 3.63232e-22)
(0.485421 -0.0655725 -1.91715e-22)
(0.497478 -0.0627968 -1.9019e-22)
(0.509788 -0.0599203 9.76752e-23)
(0.522532 -0.0568244 -2.82386e-22)
(0.535206 -0.0538947 1.64593e-22)
(0.548581 -0.0505306 3.59889e-22)
(0.561094 -0.0479871 -1.69957e-22)
(0.57545 -0.0440576 4.06011e-23)
(0.586668 -0.0428117 -3.27667e-24)
(0.60353 -0.0372711 1.04406e-23)
(0.610674 -0.0389037 -2.18508e-23)
(0.63405 -0.0311318 -4.77289e-23)
(0.355083 -0.0161603 9.31386e-21)
(0.367599 -0.0309656 -7.90273e-21)
(0.382546 -0.0396743 9.61852e-21)
(0.394489 -0.0471809 -9.51793e-21)
(0.404207 -0.0535721 3.19178e-21)
(0.412414 -0.0591515 3.80463e-21)
(0.419601 -0.064027 1.41092e-21)
(0.426186 -0.0681608 -2.02965e-21)
(0.432474 -0.0715238 -4.42082e-21)
(0.438713 -0.0740987 3.66442e-21)
(0.445101 -0.0758893 -2.89405e-21)
(0.451792 -0.0769216 4.58144e-21)
(0.458896 -0.0772404 -3.69869e-21)
(0.466489 -0.0769035 7.42768e-22)
(0.474612 -0.0759792 6.32514e-22)
(0.483285 -0.0745372 4.75011e-22)
(0.492495 -0.0726557 -9.00133e-22)
(0.502233 -0.0703963 -2.54883e-22)
(0.512431 -0.0678513 5.39792e-22)
(0.523105 -0.0650398 2.08711e-22)
(0.534081 -0.0621167 -5.55783e-22)
(0.545533 -0.0589534 2.44075e-22)
(0.556976 -0.0559615 -8.57548e-23)
(0.56915 -0.0525008 -1.08488e-22)
(0.580554 -0.0499045 1.72338e-22)
(0.593778 -0.0458367 1.62788e-23)
(0.604057 -0.0445925 6.1408e-24)
(0.619777 -0.0388362 -3.93608e-24)
(0.626302 -0.0405782 2.88629e-23)
(0.648293 -0.0325638 1.6784e-23)
(0.410324 -0.019724 1.19813e-21)
(0.425209 -0.034564 -9.89801e-21)
(0.438674 -0.0423279 -3.90179e-22)
(0.4483 -0.0491415 1.92891e-21)
(0.455731 -0.0550371 -5.88006e-21)
(0.461756 -0.0603311 -9.2151e-22)
(0.46689 -0.0650823 3.95515e-21)
(0.471535 -0.0692047 -3.16437e-23)
(0.475967 -0.0726308 5.47811e-21)
(0.480413 -0.0753147 -7.64556e-21)
(0.485056 -0.0772376 4.53625e-21)
(0.490041 -0.0784082 -2.90154e-21)
(0.495475 -0.078859 1.88084e-21)
(0.501433 -0.0786391 -1.53999e-22)
(0.507958 -0.0778117 5.35951e-22)
(0.515072 -0.0764436 -3.16271e-22)
(0.522762 -0.0746127 1.52688e-22)
(0.531024 -0.0723804 -1.66918e-21)
(0.539791 -0.0698424 7.31103e-22)
(0.54908 -0.0670163 -1.46335e-22)
(0.558723 -0.0640669 -2.54339e-22)
(0.568886 -0.0608548 2.37871e-22)
(0.579105 -0.0578189 1.01632e-22)
(0.590083 -0.0542782 -1.38724e-22)
(0.600388 -0.0516448 1.49361e-22)
(0.612489 -0.0474549 -6.83745e-23)
(0.621843 -0.0462236 -8.33962e-24)
(0.636429 -0.0402721 -7.00638e-24)
(0.642359 -0.0421234 9.61074e-24)
(0.662963 -0.0338979 -1.71499e-23)
(0.471777 -0.0244806 -6.94623e-21)
(0.488311 -0.0380177 -1.37754e-21)
(0.498504 -0.0441347 5.63496e-21)
(0.504501 -0.0501637 -2.18369e-21)
(0.508895 -0.0556321 2.12753e-21)
(0.512276 -0.0607292 -4.45468e-21)
(0.515046 -0.0654362 6.98627e-21)
(0.517533 -0.0696162 -1.11733e-21)
(0.519955 -0.0731647 -2.46687e-21)
(0.522498 -0.0760087 5.02339e-21)
(0.525318 -0.0781087 -3.02082e-21)
(0.528543 -0.0794571 2.56333e-21)
(0.53227 -0.0800746 -2.52552e-21)
(0.53657 -0.0800025 -4.59085e-22)
(0.541482 -0.0792995 -4.03938e-22)
(0.547028 -0.0780298 1.89844e-21)
(0.553198 -0.0762717 -1.53435e-21)
(0.559986 -0.0740864 8.71981e-22)
(0.56733 -0.071574 -5.38469e-22)
(0.575243 -0.0687502 5.74685e-22)