/*--------------------------------*- C++ -*----------------------------------*\
  =========                 |
  \\      /  F ield         | OpenFOAM: The Open Source CFD Toolbox
   \\    /   O peration     | Website:  https://openfoam.org
    \\  /    A nd           | Version:  7
     \\/     M anipulation  |
\*---------------------------------------------------------------------------*/
FoamFile
{
    version     2.0;
    format      ascii;
    class       volScalarField;
    location    "5";
    object      p;
}
// * * * * * * * * * * * * * * * * * * * * * * * * * * * * * * * * * * * * * //

dimensions      [0 2 -2 0 0 0 0];

internalField   nonuniform List<scalar> 
2125
(
-0.534626
-0.546269
-0.521661
-0.55772
-0.531416
-0.56888
-0.540944
-0.520929
-0.579641
-0.550148
-0.529201
-0.508714
-0.589883
-0.55892
-0.537103
-0.515787
-0.494655
-0.473904
-0.599474
-0.567139
-0.544519
-0.522411
-0.500388
-0.478577
-0.456642
-0.608269
-0.574674
-0.551323
-0.528461
-0.50554
-0.482619
-0.459282
-0.434966
-0.616112
-0.581384
-0.557378
-0.5338
-0.509975
-0.485895
-0.461087
-0.435007
-0.40733
-0.383621
-0.622835
-0.587118
-0.562538
-0.538282
-0.513546
-0.488265
-0.46193
-0.434056
-0.404485
-0.377889
-0.628264
-0.591716
-0.566646
-0.541753
-0.516102
-0.489581
-0.461679
-0.432003
-0.400587
-0.37133
-0.632216
-0.595011
-0.569543
-0.544053
-0.517484
-0.489696
-0.460202
-0.428738
-0.395548
-0.363864
-0.634506
-0.596836
-0.571061
-0.545017
-0.517533
-0.48846
-0.457368
-0.424155
-0.389282
-0.355411
-0.634948
-0.597016
-0.571032
-0.54448
-0.51609
-0.485726
-0.453053
-0.418153
-0.38171
-0.345896
-0.633358
-0.59538
-0.569287
-0.542277
-0.512998
-0.481355
-0.447136
-0.410639
-0.372761
-0.335251
-0.629556
-0.591762
-0.565663
-0.538248
-0.508108
-0.475214
-0.439511
-0.401529
-0.362373
-0.323419
-0.623372
-0.585998
-0.56
-0.532239
-0.501277
-0.467181
-0.430081
-0.390755
-0.350497
-0.310352
-0.614649
-0.577938
-0.552149
-0.524106
-0.492376
-0.457148
-0.418764
-0.378259
-0.337096
-0.296017
-0.603243
-0.567442
-0.541971
-0.513721
-0.481292
-0.445025
-0.405496
-0.364
-0.322146
-0.280391
-0.589029
-0.554387
-0.529346
-0.50097
-0.467927
-0.430738
-0.390229
-0.347953
-0.305639
-0.263463
-0.571903
-0.538666
-0.514169
-0.485757
-0.452205
-0.414234
-0.372933
-0.330108
-0.287579
-0.245237
-0.551787
-0.520196
-0.496357
-0.46801
-0.43407
-0.395481
-0.3536
-0.310473
-0.267984
-0.225732
-0.528626
-0.498917
-0.475852
-0.447679
-0.413492
-0.374468
-0.332238
-0.289071
-0.246891
-0.20498
-0.502396
-0.474795
-0.452619
-0.424741
-0.390464
-0.351211
-0.308877
-0.265941
-0.224341
-0.182985
-0.473101
-0.447821
-0.426652
-0.3992
-0.365006
-0.325745
-0.283569
-0.241141
-0.200366
-0.159636
-0.440777
-0.41802
-0.397974
-0.371086
-0.337163
-0.298131
-0.256385
-0.214748
-0.175029
-0.134913
-0.405491
-0.385442
-0.366634
-0.340459
-0.307009
-0.268455
-0.227417
-0.186847
-0.14846
-0.109861
-0.367343
-0.350171
-0.332715
-0.307408
-0.274643
-0.236825
-0.196772
-0.157536
-0.120636
-0.0838357
-0.326462
-0.312318
-0.296327
-0.27205
-0.24019
-0.203368
-0.164574
-0.126941
-0.0917754
-0.0568677
-0.283012
-0.272025
-0.25761
-0.234529
-0.203802
-0.16822
-0.130977
-0.0951909
-0.0619891
-0.0291194
-0.23718
-0.229461
-0.21673
-0.195013
-0.165629
-0.13158
-0.0961354
-0.0624316
-0.0313942
-0.000739972
-0.189167
-0.184838
-0.173881
-0.15369
-0.125888
-0.0936154
-0.0602267
-0.0288237
-0.000130697
0.0281109
-0.139168
-0.138417
-0.129286
-0.110784
-0.0847816
-0.0545315
-0.0234432
0.00546018
0.0316517
0.0572463
-0.0876336
-0.0903173
-0.0831772
-0.0665275
-0.0425364
-0.0145451
0.014012
0.0402488
0.0638202
0.0863937
-0.0347172
-0.0408952
-0.0358205
-0.0211715
0.000607275
0.0261159
0.0519264
0.0753784
0.0962397
0.115118
0.0192763
0.00956284
0.0125089
0.0250189
0.0443985
0.0672154
0.0900815
0.110654
0.128555
0.14278
0.0740138
0.0607627
0.0615221
0.0717675
0.0885804
0.10852
0.128273
0.145805
0.159883
0.167934
0.129159
0.112391
0.110917
0.11879
0.132894
0.149813
0.166345
0.180632
0.189457
0.189858
0.184368
0.164125
0.160384
0.165795
0.177077
0.190874
0.204125
0.215194
0.220733
0.219615
0.23929
0.215631
0.209605
0.212487
0.220858
0.231457
0.241375
0.249146
0.251739
0.249279
0.293573
0.266577
0.258261
0.258567
0.263965
0.271315
0.277864
0.282278
0.281862
0.277584
0.346863
0.316626
0.306034
0.303739
0.30613
0.310206
0.313375
0.314432
0.311012
0.304618
0.39881
0.365445
0.352607
0.347712
0.347092
0.347899
0.347708
0.345439
0.33906
0.330383
0.449072
0.412709
0.397671
0.390202
0.386595
0.384171
0.38067
0.375136
0.365862
0.354819
0.497314
0.458098
0.440925
0.430932
0.424396
0.418811
0.412081
0.403375
0.391292
0.37786
0.543215
0.501306
0.482081
0.46964
0.460262
0.451617
0.441772
0.430018
0.415239
0.399444
0.586466
0.542039
0.520861
0.506073
0.49397
0.482399
0.469584
0.454933
0.437598
0.419506
0.626779
0.580019
0.557004
0.539997
0.525314
0.51098
0.495369
0.478001
0.458271
0.437987
0.663881
0.614986
0.590268
0.571189
0.554101
0.537196
0.51899
0.499107
0.477166
0.454825
0.697523
0.646702
0.620428
0.599448
0.580155
0.560896
0.540319
0.518147
0.494197
0.469962
0.727477
0.674948
0.647281
0.624591
0.603314
0.581943
0.559243
0.535027
0.509284
0.483343
0.753541
0.699531
0.670644
0.646454
0.623436
0.600215
0.57566
0.549661
0.522357
0.494916
0.775537
0.720281
0.69036
0.664895
0.640398
0.615607
0.58948
0.561973
0.533352
0.504634
0.793316
0.737055
0.706296
0.679793
0.654095
0.62803
0.600628
0.571901
0.542215
0.512459
0.806757
0.749739
0.718343
0.691053
0.664443
0.63741
0.609043
0.579393
0.548901
0.518357
0.815769
0.758243
0.72642
0.6986
0.671377
0.643695
0.614679
0.58441
0.553378
0.522304
0.702387
0.674854
0.646846
0.617505
0.586925
0.555622
0.524281
-0.278174
-0.289738
-0.300164
-0.309479
-0.317726
-0.32496
-0.331251
-0.336687
-0.255182
-0.266501
-0.276919
-0.28647
-0.295196
-0.303154
-0.310414
-0.317059
-0.233858
-0.244923
-0.255309
-0.265043
-0.274158
-0.282695
-0.290705
-0.298246
-0.213909
-0.22454
-0.23465
-0.244259
-0.253391
-0.262078
-0.270356
-0.278266
-0.195371
-0.205498
-0.215226
-0.22457
-0.233553
-0.242199
-0.250539
-0.258607
-0.178214
-0.187805
-0.197091
-0.206088
-0.214813
-0.223289
-0.231539
-0.239594
-0.162343
-0.171376
-0.180177
-0.188759
-0.197136
-0.205327
-0.213353
-0.221235
-0.147661
-0.156129
-0.164418
-0.172539
-0.180506
-0.188332
-0.196034
-0.203631
-0.134068
-0.141974
-0.149741
-0.157379
-0.164898
-0.172308
-0.179624
-0.186859
-0.121478
-0.128833
-0.136079
-0.143224
-0.150274
-0.157239
-0.164129
-0.170955
-0.109808
-0.11663
-0.123365
-0.130018
-0.136594
-0.143101
-0.149545
-0.155936
-0.0989923
-0.105302
-0.111541
-0.117712
-0.12382
-0.129868
-0.135863
-0.141809
-0.0889675
-0.094791
-0.100555
-0.106262
-0.111914
-0.117514
-0.123065
-0.128572
-0.0796824
-0.0850474
-0.0903614
-0.0956257
-0.100841
-0.10601
-0.111134
-0.116216
-0.0710923
-0.0760284
-0.08092
-0.0857673
-0.0905708
-0.095331
-0.100049
-0.104726
-0.063157
-0.0676953
-0.0721937
-0.0766521
-0.08107
-0.0854474
-0.0897844
-0.0940813
-0.0983385
-0.055843
-0.0600143
-0.0641496
-0.0682479
-0.0723084
-0.0763307
-0.0803142
-0.0842587
-0.0881638
-0.0491177
-0.0529532
-0.0567555
-0.0605232
-0.0642555
-0.0679512
-0.0716096
-0.0752299
-0.0788115
-0.0429549
-0.0464846
-0.0499834
-0.0534498
-0.0568824
-0.0602801
-0.0636417
-0.0669661
-0.0702526
-0.0373285
-0.0405818
-0.0438061
-0.0469996
-0.0501608
-0.0532884
-0.0563809
-0.0594374
-0.0624566
-0.0322181
-0.0352232
-0.0382005
-0.0411485
-0.0440654
-0.0469498
-0.0498003
-0.0526156
-0.0553945
-0.0276059
-0.0303893
-0.0331462
-0.0358747
-0.0385734
-0.0412405
-0.0438747
-0.0464746
-0.0490389
-0.0234786
-0.0260655
-0.0286268
-0.0311609
-0.0336661
-0.0361407
-0.0385833
-0.0409924
-0.0433669
-0.0198246
-0.0222393
-0.0246293
-0.0269929
-0.0293284
-0.0316343
-0.0339089
-0.0361511
-0.0383594
-0.0166393
-0.018905
-0.0211467
-0.0233628
-0.0255516
-0.0277115
-0.0298412
-0.0319392
-0.0340042
-0.0139247
-0.0160637
-0.0181794
-0.0202701
-0.0223342
-0.0243703
-0.026377
-0.0283529
-0.0302967
-0.0116861
-0.0137207
-0.0157324
-0.0177199
-0.0196815
-0.0216159
-0.0235217
-0.0253976
-0.0272425
-0.0099482
-0.0118992
-0.013828
-0.015733
-0.0176129
-0.0194664
-0.0212923
-0.0230893
-0.0248564
-0.00872804
-0.0106202
-0.0124906
-0.0143379
-0.0161608
-0.017958
-0.0197285
-0.0214711
-0.0231846
-0.00809199
-0.00994226
-0.0117713
-0.013578
-0.0153613
-0.0171203
-0.0188539
-0.0205612
-0.0222413
0.163346
0.132501
0.102764
0.0758239
0.0490919
0.0225314
-0.00350895
-0.0289486
-0.0537416
-0.0778285
-0.101219
-0.123979
-0.144843
-0.165303
-0.184753
-0.203106
-0.220383
-0.236551
-0.25158
-0.265457
0.150146
0.122263
0.0937863
0.0689535
0.0446143
0.0203558
-0.00336841
-0.0264532
-0.0488974
-0.0706578
-0.0916796
-0.111869
-0.1308
-0.149868
-0.167777
-0.18465
-0.20061
-0.215656
-0.229769
-0.242943
0.132862
0.106871
0.080702
0.0583032
0.036667
0.0151152
-0.00595506
-0.0264258
-0.0463245
-0.0656423
-0.0843552
-0.102505
-0.120171
-0.136515
-0.152526
-0.167886
-0.182516
-0.196426
-0.20962
-0.222095
0.116968
0.0934467
0.0700484
0.0500156
0.0307534
0.0115648
-0.00721659
-0.0254611
-0.0431964
-0.0604293
-0.0771407
-0.0933253
-0.108992
-0.123903
-0.1385
-0.152505
-0.165906
-0.178741
-0.191019
-0.202739
0.102813
0.0817765
0.0610629
0.0432242
0.0260797
0.00900374
-0.0077311
-0.0240002
-0.0398262
-0.0552218
-0.0701761
-0.0846749
-0.0986747
-0.112026
-0.125512
-0.138337
-0.150618
-0.162455
-0.173858
-0.184828
0.0905343
0.0717317
0.0534466
0.0375818
0.0223157
0.00711882
-0.00779058
-0.0223047
-0.0364436
-0.0502259
-0.0636514
-0.0767233
-0.0894883
-0.102028
-0.113729
-0.125301
-0.136579
-0.147498
-0.15807
-0.168306
0.0799618
0.0631637
0.0470605
0.0329762
0.0193845
0.00585586
-0.00743303
-0.0203928
-0.0330398
-0.0453921
-0.057451
-0.0692137
-0.0806846
-0.0918769
-0.102689
-0.11331
-0.123669
-0.13374
-0.143534
-0.153065
0.0708969
0.055911
0.0417494
0.0292594
0.0171574
0.00510616
-0.00674801
-0.0183324
-0.0296608
-0.0407489
-0.0515994
-0.0622121
-0.0725889
-0.0827313
-0.092615
-0.102344
-0.111837
-0.121101
-0.130154
-0.139006
0.063184
0.049834
0.0373821
0.0263056
0.0155232
0.00477648
-0.00581071
-0.0161799
-0.0263427
-0.0363125
-0.046092
-0.0556817
-0.0650832
-0.0742908
-0.083281
-0.0922076
-0.100923
-0.109449
-0.117811
-0.126016
0.0566699
0.0447884
0.0338322
0.024001
0.0143841
0.00478773
-0.00468183
-0.0139778
-0.0231104
-0.0320913
-0.0409233
-0.0496079
-0.0581487
-0.0665595
-0.0748608
-0.0828953
-0.0908548
-0.0987022
-0.106419
-0.114008
0.0512051
0.0406358
0.0309833
0.0222458
0.013657
0.00507519
-0.00340775
-0.0117543
-0.0199731
-0.0280733
-0.036057
-0.0439246
-0.0516769
-0.0593165
-0.0668476
-0.0742452
-0.0815582
-0.0887737
-0.0958844
-0.102894
0.0466532
0.0372522
0.028734
0.0209553
0.0132728
0.00558588
-0.00202573
-0.00953178
-0.0169396
-0.0242562
-0.0314829
-0.0386198
-0.0456673
-0.0526269
-0.0594994
-0.0662781
-0.0729846
-0.0796078
-0.0861478
-0.0926083
0.0428938
0.0345291
0.0269967
0.0200578
0.013174
0.00627645
-0.000565251
-0.0073267
-0.0140139
-0.0206323
-0.0271821
-0.0336631
-0.0400751
-0.0464187
-0.0526926
-0.0588914
-0.0650453
-0.0711254
-0.0771361
-0.0830829
0.0398209
0.0323726
0.025696
0.0194923
0.013312
0.00711091
0.000949725
-0.00515178
-0.0111985
-0.0171942
-0.0231387
-0.029031
-0.0348708
-0.0406576
-0.0463912
-0.0520693
-0.0576989
-0.0632748
-0.0687968
-0.0742658
0.0373413
0.0307013
0.0247671
0.0192065
0.0136457
0.00805895
0.00249932
-0.00301715
-0.00849432
-0.0139348
-0.0193377
-0.024702
-0.0300265
-0.0353107
-0.0405557
-0.0457635
-0.0509049
-0.0560146
-0.0610853
-0.0661114
0.0353731
0.0294447
0.0241536
0.0191552
0.0141397
0.00909483
0.00406698
-0.000930711
-0.00590118
-0.0108459
-0.0157637
-0.0206528
-0.0255117
-0.0303391
-0.0351342
-0.0398961
-0.044618
-0.0493079
-0.0539627
-0.0585794
0.0338439
0.0285408
0.0238061
0.0192986
0.0147624
0.0101951
0.00563697
0.00109881
-0.00342148
-0.00792457
-0.0124088
-0.0168722
-0.021313
-0.0257297
-0.0301207
-0.0344845
-0.0388177
-0.0431223
-0.0473959
-0.0516365
0.032689
0.0279345
0.0236805
0.0196009
0.0154855
0.0113385
0.00719462
0.00306296
-0.00105793
-0.00516804
-0.00926546
-0.013348
-0.0174137
-0.0214607
-0.0254872
-0.0294914
-0.0334705
-0.0374251
-0.0413523
-0.0452503
0.0318504
0.0275765
0.0237367
0.0200293
0.0162825
0.0125045
0.00872526
0.00495239
0.00118502
-0.00257634
-0.00632957
-0.0100724
-0.0138026
-0.0175183
-0.0212175
-0.024898
-0.0285572
-0.0321956
-0.035809
-0.0393958
0.0312761
0.027422
0.0239384
0.0205536
0.0171288
0.0136741
0.010215
0.00675795
0.0033027
-0.00014991
-0.00359765
-0.00703812
-0.0104691
-0.0138885
-0.0172941
-0.0206831
-0.0240522
-0.0274097
-0.0307417
-0.0340479
0.0309185
0.0274298
0.0242514
0.0211454
0.0180004
0.0148277
0.0116484
0.0084682
0.00528711
0.00210633
-0.00107191
-0.00424523
-0.00741139
-0.0105682
-0.0137134
-0.0168456
-0.0199633
-0.0230559
-0.0261316
-0.0291869
0.0307346
0.0275629
0.0246448
0.0217782
0.0188756
0.0159476
0.0130119
0.0100733
0.00713217
0.00418993
0.00124884
-0.00168876
-0.00462062
-0.0075445
-0.0104582
-0.0133597
-0.0162471
-0.0191156
-0.0219667
-0.0247977
0.0306854
0.0277863
0.0250889
0.0224267
0.0197323
0.0170152
0.01429
0.0115606
0.00882779
0.00609317
0.0033589
0.000627272
-0.0020995
-0.00481922
-0.0075297
-0.0102288
-0.0129144
-0.0155837
-0.0182357
-0.020868
0.030735
0.0280684
0.0255562
0.0230667
0.0205493
0.0180123
0.0154672
0.0129173
0.0103639
0.00780835
0.00525293
0.0026998
0.000151124
-0.00239098
-0.00492436
-0.00744693
-0.00995658
-0.012451
-0.0149285
-0.017387
0.0308513
0.0283799
0.026021
0.0236753
0.0213063
0.0189208
0.0165277
0.0141299
0.0117286
0.00932555
0.00692274
0.00452226
0.00212619
-0.000263429
-0.00264453
-0.00501508
-0.00737304
-0.00971629
-0.012043
-0.0143513
0.0310042
0.0286923
0.0264573
0.0242285
0.0219811
0.0197202
0.0174526
0.0151807
0.0129061
0.0106303
0.00835516
0.00608279
0.0038151
0.00155406
-0.000698389
-0.00294029
-0.0051697
-0.00738465
-0.00958337
-0.011764
0.0311689
0.028983
0.0268444
0.0247074
0.0225561
0.0203944
0.0182271
0.0160566
0.0138841
0.0117113
0.00954006
0.00737215
0.00520943
0.00305375
0.000906948
-0.00122915
-0.00335272
-0.00546192
-0.00755505
-0.00963034
0.0313161
0.029221
0.0271514
0.0250806
0.0229997
0.0209113
0.0188191
0.0167248
0.0146299
0.012536
0.0104448
0.00835793
0.00627713
0.00420412
0.00214057
8.81904e-05
-0.00195134
-0.00397634
-0.00598521
-0.00797635
0.0314368
0.0293999
0.0273737
0.0253456
0.023311
0.021272
0.0192308
0.0171891
0.0151481
0.0131094
0.0110745
0.00904486
0.00702208
0.00500772
0.00300331
0.00101042
-0.00096941
-0.00293466
-0.00488383
-0.00681544
0.0314868
0.0294646
0.0274471
0.0254291
0.0234086
0.0213871
0.0193663
0.0173477
0.0153326
0.0133223
0.0113183
0.00932176
0.00733411
0.00535665
0.00339071
0.00143756
-0.000501494
-0.00242519
-0.00433227
-0.00622161
0.195605
0.198096
0.203463
0.210758
0.219869
0.230277
0.24145
0.25264
0.262693
0.270313
0.27335
0.270203
0.256875
0.234571
0.184483
0.194554
0.196916
0.201988
0.208838
0.217295
0.226797
0.236748
0.246327
0.254326
0.259412
0.259492
0.253082
0.236536
0.211634
0.163248
0.193401
0.195629
0.200388
0.206761
0.214533
0.223112
0.231855
0.23991
0.246067
0.249034
0.246868
0.238334
0.220236
0.195062
0.150556
0.192131
0.194207
0.198618
0.204467
0.211491
0.21907
0.226521
0.232969
0.237213
0.238025
0.233638
0.22306
0.203642
0.177978
0.136395
0.190736
0.192648
0.196686
0.201975
0.208208
0.214744
0.220864
0.225682
0.228029
0.226756
0.220296
0.207884
0.187438
0.161365
0.122524
0.189212
0.190948
0.19459
0.199292
0.204704
0.21017
0.214951
0.218165
0.2187
0.215503
0.207237
0.19334
0.172287
0.146226
0.110179
0.187553
0.189103
0.192329
0.196416
0.200981
0.20536
0.208807
0.210463
0.209292
0.20436
0.194564
0.179536
0.158255
0.132593
0.0992784
0.185753
0.187107
0.189896
0.193346
0.197043
0.200326
0.202458
0.202617
0.199862
0.19339
0.182334
0.166497
0.145291
0.120314
0.0896053
0.183808
0.184956
0.187292
0.190085
0.192901
0.195092
0.19594
0.19468
0.190478
0.182669
0.170612
0.15426
0.133373
0.109307
0.0810604
0.181715
0.182649
0.184517
0.186639
0.188569
0.189681
0.189294
0.186709
0.181209
0.172271
0.159461
0.142858
0.122491
0.0995072
0.0735712
0.179472
0.180184
0.181576
0.183017
0.184066
0.184126
0.182564
0.178761
0.172123
0.162262
0.14893
0.132308
0.112619
0.0908341
0.0670548
0.177079
0.177566
0.178472
0.179233
0.179413
0.178459
0.175797
0.170894
0.16328
0.152698
0.139053
0.122609
0.103718
0.0832004
0.0614241
0.17454
0.174797
0.175217
0.175301
0.174636
0.172718
0.169041
0.163164
0.154739
0.143624
0.129854
0.11375
0.0957385
0.0765173
0.0565939
0.171859
0.171885
0.171823
0.171243
0.169765
0.166942
0.162344
0.155624
0.146547
0.135075
0.121343
0.105706
0.088627
0.0706979
0.0524819
0.169046
0.168842
0.168305
0.167081
0.16483
0.161172
0.155754
0.148323
0.138748
0.127077
0.113517
0.098445
0.082325
0.0656584
0.0490095
0.166112
0.165681
0.164684
0.162842
0.159869
0.15545
0.149318
0.141307
0.131375
0.119643
0.106368
0.0919285
0.0767713
0.0613189
0.046103
0.163072
0.162422
0.160982
0.158557
0.154917
0.149821
0.143081
0.134613
0.124455
0.11278
0.0998767
0.0861133
0.0719046
0.0576047
0.0436938
0.159948
0.159085
0.157228
0.154258
0.150014
0.144325
0.137082
0.128275
0.118006
0.106486
0.0940191
0.0809532
0.0676639
0.0544458
0.0417189
0.156763
0.155699
0.153452
0.149984
0.1452
0.139005
0.13136
0.122321
0.112039
0.100754
0.0887659
0.0764007
0.0639903
0.0517777
0.0401207
0.153547
0.152295
0.14969
0.145772
0.140519
0.133901
0.125949
0.116773
0.106562
0.0955681
0.084085
0.0724085
0.0608273
0.0495409
0.0388464
0.150334
0.14891
0.145982
0.141666
0.13601
0.129052
0.12088
0.111649
0.101574
0.0909124
0.0799427
0.06893
0.058122
0.047681
0.0378481
0.147165
0.145584
0.142371
0.13771
0.131719
0.124497
0.116181
0.106962
0.0970722
0.086767
0.0763048
0.065921
0.0558251
0.0461485
0.0370823
0.144084
0.142364
0.138904
0.133952
0.127689
0.120271
0.111876
0.102723
0.0930518
0.0831114
0.0731386
0.06334
0.0538914
0.0448987
0.0365095
0.141143
0.139302
0.135634
0.13044
0.123965
0.11641
0.10799
0.0989407
0.089507
0.0799259
0.0704132
0.0611493
0.0522805
0.0438918
0.0360942
0.138398
0.136456
0.132615
0.127229
0.120593
0.112952
0.104546
0.0956256
0.0864328
0.077193
0.0681015
0.0593155
0.0509564
0.0430925
0.0358045
0.135914
0.133887
0.12991
0.124375
0.117624
0.109935
0.101571
0.0927889
0.0838275
0.0748992
0.0661812
0.0578107
0.0498888
0.0424703
0.0356121
0.133761
0.131666
0.127585
0.121939
0.115109
0.107402
0.0990944
0.0904469
0.0816942
0.0730368
0.0646362
0.0566132
0.0490528
0.0419998
0.0354927
0.132014
0.129868
0.125711
0.119989
0.113109
0.105401
0.0971515
0.0886226
0.080044
0.0716062
0.0634584
0.055709
0.0484306
0.0416604
0.0354235
0.130757
0.128575
0.12437
0.118599
0.111691
0.10399
0.0957888
0.08735
0.0788989
0.070619
0.0626505
0.0550933
0.048012
0.0414392
0.035392
0.130082
0.127878
0.123649
0.117855
0.110935
0.103239
0.0950667
0.0866783
0.0782969
0.0701019
0.0622292
0.0547738
0.0477961
0.0413255
0.035374
0.203073
0.205865
0.212179
0.220963
0.232443
0.246455
0.26305
0.282336
0.304267
0.329028
0.356433
0.386608
0.419073
0.453837
0.48949
0.203036
0.205827
0.212138
0.220916
0.232386
0.246384
0.262957
0.282209
0.304089
0.328777
0.356073
0.386095
0.418342
0.452809
0.488064
0.202963
0.205752
0.212055
0.220822
0.232273
0.246242
0.26277
0.281956
0.303735
0.328276
0.355353
0.38507
0.416882
0.450755
0.485218
0.202854
0.205639
0.211931
0.220681
0.232104
0.24603
0.262491
0.281577
0.303204
0.327525
0.354274
0.383535
0.414697
0.447683
0.480963
0.202709
0.205488
0.211766
0.220493
0.231879
0.245747
0.26212
0.281072
0.302497
0.326526
0.35284
0.381495
0.411791
0.443601
0.475316
0.202528
0.205301
0.211561
0.220259
0.231599
0.245395
0.261658
0.280444
0.301618
0.325281
0.351052
0.378953
0.408171
0.438523
0.468299
0.202311
0.205077
0.211315
0.21998
0.231264
0.244975
0.261106
0.279694
0.300566
0.323793
0.348915
0.375916
0.403845
0.432463
0.459938
0.202059
0.204817
0.211024
0.219656
0.230875
0.244487
0.260466
0.278822
0.299346
0.322064
0.346432
0.37239
0.398823
0.425439
0.450261
0.201772
0.204522
0.210686
0.219287
0.230434
0.243932
0.259738
0.277832
0.297958
0.320099
0.343609
0.368383
0.393113
0.417474
0.439302
0.20145
0.204192
0.210364
0.218874
0.229941
0.243313
0.258926
0.276724
0.296408
0.317901
0.340451
0.363904
0.386729
0.40859
0.427092
0.201094
0.203828
0.209954
0.218419
0.229398
0.24263
0.258029
0.275503
0.294696
0.315473
0.336965
0.358961
0.37968
0.398814
0.413663
0.200705
0.203429
0.209511
0.217924
0.228805
0.241885
0.257051
0.274169
0.292828
0.312822
0.333157
0.353564
0.371979
0.388172
0.399041
0.200283
0.202998
0.209039
0.217388
0.228164
0.241081
0.255995
0.272727
0.290808
0.309951
0.329035
0.347722
0.363639
0.376694
0.383249
0.199829
0.202534
0.208534
0.216814
0.227478
0.240218
0.254862
0.271181
0.288641
0.306868
0.32461
0.341446
0.354678
0.36441
0.366298
0.199343
0.20204
0.207994
0.216202
0.226745
0.239298
0.253653
0.26953
0.286327
0.303573
0.319884
0.334739
0.345104
0.351341
0.348189
0.198827
0.201517
0.207421
0.21555
0.225965
0.238317
0.252363
0.267765
0.283852
0.300047
0.314835
0.327572
0.334893
0.337466
0.328871
0.19828
0.200962
0.206817
0.214866
0.225146
0.237286
0.251004
0.265904
0.281238
0.296315
0.30949
0.319969
0.324078
0.322804
0.308295
0.197705
0.200386
0.206198
0.214173
0.224328
0.236268
0.249673
0.26408
0.27867
0.292619
0.304154
0.312287
0.313063
0.307747
0.286779
0.197104
0.199788
0.205562
0.213473
0.223516
0.235277
0.248395
0.262343
0.27622
0.289067
0.298972
0.304701
0.302037
0.292397
0.264432
0.19646
0.199112
0.204787
0.21255
0.222363
0.233783
0.246397
0.259601
0.2724
0.283693
0.291439
0.294174
0.287529
0.272932
0.236605
)
;

boundaryField
{
    inlet
    {
        type            zeroGradient;
    }
    outlet
    {
        type            fixedValue;
        value           nonuniform 0();
    }
    cylinder
    {
        type            zeroGradient;
    }
    top
    {
        type            symmetryPlane;
    }
    bottom
    {
        type            symmetryPlane;
    }
    defaultFaces
    {
        type            empty;
    }
    procBoundary2to0
    {
        type            processor;
        value           nonuniform List<scalar> 
26
(
0.82029
0.76251
0.730473
0.730473
0.702387
0.674854
0.646846
0.617505
0.586925
0.555622
0.524281
0.203073
0.205865
0.212179
0.220963
0.232443
0.246455
0.26305
0.282336
0.304267
0.329028
0.356433
0.386608
0.419073
0.453837
0.48949
)
;
    }
    procBoundary2to3
    {
        type            processor;
        value           nonuniform List<scalar> 
50
(
-0.522882
-0.511768
-0.511768
-0.503673
-0.512389
-0.512389
-0.501308
-0.501308
-0.48847
-0.48847
-0.468726
-0.453292
-0.453292
-0.434038
-0.434038
-0.40921
-0.40921
-0.3886
-0.341371
-0.341371
-0.323186
-0.305383
-0.28586
-0.266444
-0.247485
-0.229002
-0.211145
-0.194032
-0.17773
-0.162281
-0.147713
-0.134038
-0.121257
-0.109362
-0.109362
-0.102557
-0.0920296
-0.0823539
-0.0735003
-0.0654376
-0.0581358
-0.0515665
-0.0457054
-0.0405326
-0.0360351
-0.0322074
-0.0290553
-0.0265925
-0.0248683
-0.0238933
)
;
    }
}


// ************************************************************************* //
