/*--------------------------------*- C++ -*----------------------------------*\
  =========                 |
  \\      /  F ield         | OpenFOAM: The Open Source CFD Toolbox
   \\    /   O peration     | Website:  https://openfoam.org
    \\  /    A nd           | Version:  7
     \\/     M anipulation  |
\*---------------------------------------------------------------------------*/
FoamFile
{
    version     2.0;
    format      ascii;
    class       volVectorField;
    location    "5";
    object      U;
}
// * * * * * * * * * * * * * * * * * * * * * * * * * * * * * * * * * * * * * //

dimensions      [0 1 -1 0 0 0 0];

internalField   nonuniform List<vector> 
2125
(
(0.0104817 -0.00582652 -4.87556e-20)
(0.0138936 -0.00743406 1.78255e-20)
(0.0554785 -0.022925 2.06695e-20)
(0.0177037 -0.00894763 -1.2057e-20)
(0.0667207 -0.0262093 -9.47103e-21)
(0.0219102 -0.010325 2.52586e-20)
(0.0789423 -0.0290493 -7.54115e-21)
(0.15275 -0.0400374 -4.51976e-21)
(0.026507 -0.0115238 -9.37892e-21)
(0.0921082 -0.0313356 -5.90223e-20)
(0.174175 -0.0419671 6.37249e-21)
(0.269324 -0.0464282 2.2504e-20)
(0.0314832 -0.012502 -1.01474e-20)
(0.10617 -0.0329614 2.10676e-20)
(0.19677 -0.0428091 2.81754e-20)
(0.299763 -0.0455535 -2.09197e-20)
(0.412725 -0.0418487 7.95821e-21)
(0.53274 -0.0325778 -5.07567e-20)
(0.0368229 -0.0132181 -1.29339e-20)
(0.121064 -0.0338246 -4.39303e-21)
(0.220412 -0.0424256 -5.08019e-20)
(0.331223 -0.043043 -8.16585e-21)
(0.450809 -0.0366317 -8.46551e-22)
(0.575909 -0.0243829 3.08932e-21)
(0.702649 -0.00790415 5.33465e-21)
(0.0425043 -0.0136318 -3.26257e-21)
(0.136712 -0.0338291 1.72576e-20)
(0.244954 -0.0406922 2.48563e-20)
(0.363485 -0.0387695 1.60927e-20)
(0.489353 -0.0293389 -4.94775e-21)
(0.618967 -0.0139192 -4.26006e-21)
(0.748117 0.00556593 4.42469e-20)
(0.872216 0.0270924 6.47559e-21)
(0.0484996 -0.0137042 3.19713e-20)
(0.15302 -0.0328861 2.2143e-20)
(0.270229 -0.0375006 -2.32908e-20)
(0.396306 -0.0326316 -4.77075e-21)
(0.528043 -0.019902 2.56789e-21)
(0.661546 -0.00117619 -1.0024e-20)
(0.792328 0.0212976 -2.28287e-20)
(0.915621 0.0452311 -3.81984e-21)
(1.02683 0.0685277 2.02394e-22)
(1.12067 0.0849924 1.08785e-20)
(0.0547748 -0.0133988 3.63202e-21)
(0.169879 -0.0309158 -1.20438e-20)
(0.29605 -0.0327601 2.95408e-20)
(0.429422 -0.0245552 1.99461e-20)
(0.566547 -0.00828882 5.68915e-22)
(0.70327 0.0138151 1.55501e-20)
(0.834894 0.0391813 2.36018e-21)
(0.956581 0.0652702 -1.83086e-20)
(1.06385 0.0898014 1.64259e-20)
(1.15217 0.107294 1.51751e-22)
(0.061289 -0.0126816 -2.59106e-20)
(0.187164 -0.0278492 -8.1512e-21)
(0.322211 -0.0263995 -7.74046e-21)
(0.462548 -0.0144946 -1.38954e-20)
(0.604522 0.00549729 3.36382e-21)
(0.74376 0.0309843 1.03845e-22)
(0.875443 0.0590717 1.27502e-20)
(0.994771 0.0869924 -2.11568e-21)
(1.09753 0.112328 -1.69287e-20)
(1.17994 0.130314 -1.64551e-20)
(0.0679951 -0.0115226 2.05686e-21)
(0.204738 -0.0236295 1.29553e-20)
(0.348487 -0.0183694 6.42334e-21)
(0.49539 -0.00243398 -2.12877e-20)
(0.641618 0.0214174 -1.20637e-21)
(0.782648 0.050225 -1.03244e-20)
(0.913625 0.0807925 2.87334e-22)
(1.02991 0.110162 5.45159e-21)
(1.12767 0.135837 -6.45354e-21)
(1.20394 0.153773 1.86618e-20)
(0.0748393 -0.00989601 4.72898e-21)
(0.222448 -0.0182138 -1.24369e-20)
(0.374642 -0.00864321 -3.06252e-20)
(0.52764 0.011612 2.96558e-20)
(0.677487 0.0393981 -2.38173e-21)
(0.819578 0.0713973 7.42612e-21)
(0.949123 0.104142 -1.15456e-21)
(1.06175 0.134532 8.14449e-21)
(1.15414 0.160062 -6.00454e-22)
(1.22415 0.177418 -1.44552e-20)
(0.0817623 -0.00778148 -9.42576e-21)
(0.240133 -0.0115748 1.59358e-20)
(0.40043 0.00278088 1.38575e-20)
(0.55899 0.0275979 -2.0963e-20)
(0.711788 0.059333 -3.68359e-21)
(0.854218 0.0943313 1.50651e-21)
(0.981654 0.128896 1.63889e-20)
(1.09012 0.159848 9.27125e-22)
(1.17687 0.184748 3.61065e-21)
(1.24062 0.201022 -8.04943e-21)
(0.0886993 -0.00516483 7.12413e-21)
(0.257621 -0.00370261 -6.87837e-21)
(0.425595 0.0158793 -5.99228e-21)
(0.589132 0.0454473 1.10327e-20)
(0.744194 0.081084 4.11348e-21)
(0.886262 0.118831 3.35598e-21)
(1.01098 0.154817 -1.66768e-20)
(1.11485 0.185853 -6.14791e-21)
(1.19582 0.20965 -5.78515e-21)
(1.25342 0.224383 2.64893e-21)
(0.0955813 -0.00203878 -3.40467e-21)
(0.274733 0.00539476 -7.67501e-23)
(0.449883 0.030602 1.13243e-20)
(0.617763 0.0650536 -4.44615e-21)
(0.774395 0.104484 -2.07806e-21)
(0.915435 0.144677 -1.47955e-21)
(1.0369 0.181652 4.05582e-21)
(1.13586 0.212291 7.47166e-21)
(1.21101 0.234535 -2.39846e-22)
(1.26267 0.247321 2.9731e-21)
(0.102336 0.00159632 2.37423e-21)
(0.291288 0.0156898 -7.22702e-22)
(0.473037 0.0468726 -1.99787e-21)
(0.644592 0.0862811 -1.92761e-21)
(0.802106 0.12934 1.89883e-21)
(0.9415 0.171631 1.61536e-21)
(1.05925 0.209145 -1.58501e-21)
(1.1531 0.238911 6.28753e-22)
(1.22249 0.259185 9.22048e-22)
(1.26851 0.269674 -1.26671e-21)
(0.108887 0.00573201 1.2166e-21)
(0.307103 0.0271351 3.8844e-22)
(0.49481 0.064588 -2.38443e-21)
(0.669346 0.108966 -2.06536e-21)
(0.827069 0.155435 2.34182e-21)
(0.964257 0.199441 4.91503e-22)
(1.07794 0.237031 -1.29616e-21)
(1.16655 0.265469 1.28188e-21)
(1.23035 0.283399 7.5683e-22)
(1.27109 0.2913 -8.97917e-22)
(0.115161 0.0103513 -4.95209e-22)
(0.321997 0.0396633 1.03211e-21)
(0.514962 0.08362 7.19223e-21)
(0.691769 0.132921 -3.47357e-21)
(0.849059 0.18253 -1.9208e-21)
(0.983545 0.227844 -2.36817e-21)
(1.09287 0.265048 5.19089e-21)
(1.17625 0.291729 3.7251e-21)
(1.23469 0.306987 3.13758e-21)
(1.27058 0.312072 1.76671e-21)
(0.12108 0.0154285 9.25911e-21)
(0.335795 0.0531872 -5.49739e-21)
(0.533268 0.103816 -6.85744e-21)
(0.711634 0.157932 1.00289e-20)
(0.867884 0.210373 5.81666e-21)
(0.999244 0.256567 -4.41505e-22)
(1.10404 0.292937 -8.67014e-21)
(1.18225 0.317468 -6.68828e-21)
(1.23565 0.329775 -7.35195e-21)
(1.26716 0.331875 4.48396e-21)
(0.12657 0.0209292 -1.23757e-20)
(0.34833 0.0676001 1.25022e-20)
(0.549523 0.125 1.52975e-20)
(0.72874 0.183769 -1.66602e-20)
(0.883389 0.238697 -6.44951e-21)
(1.01127 0.285337 4.58355e-21)
(1.11144 0.320442 9.14541e-21)
(1.18465 0.342471 1.53576e-21)
(1.23339 0.351601 -2.73002e-22)
(1.26102 0.350606 -6.08859e-21)
(0.131562 0.0268103 -1.66146e-21)
(0.359448 0.0827775 -1.71995e-20)
(0.563541 0.146977 -1.98236e-20)
(0.742916 0.210182 2.46927e-20)
(0.895457 0.267225 -3.03231e-21)
(1.01959 0.313879 6.35991e-21)
(1.11512 0.347317 1.4146e-21)
(1.18356 0.366537 -4.14151e-21)
(1.22806 0.372318 2.32475e-21)
(1.25235 0.368171 -2.57314e-22)
(0.135987 0.0330207 3.38014e-21)
(0.369007 0.0985779 1.03381e-20)
(0.575162 0.169534 6.48697e-21)
(0.754027 0.23691 -5.47109e-21)
(0.904009 0.295676 -9.38813e-21)
(1.0242 0.341922 -1.00652e-20)
(1.11515 0.373324 -2.23189e-21)
(1.17911 0.389479 6.27923e-21)
(1.21985 0.391786 -1.38942e-21)
(1.24132 0.384486 3.32113e-21)
(0.139784 0.0395014 -1.20901e-20)
(0.376884 0.114845 -1.25889e-20)
(0.584252 0.192442 -2.09189e-21)
(0.76197 0.263682 -2.58074e-21)
(0.909003 0.323766 -6.84463e-21)
(1.02513 0.369199 4.84757e-21)
(1.11162 0.398236 -9.43612e-22)
(1.17146 0.411119 -5.64418e-21)
(1.20892 0.409878 5.25723e-21)
(1.22813 0.399469 -7.65654e-21)
(0.1429 0.0461869 3.34445e-21)
(0.382975 0.13141 1.06184e-20)
(0.590709 0.215462 9.99901e-21)
(0.766682 0.290219 1.21065e-20)
(0.910437 0.351214 3.67434e-22)
(1.02244 0.395454 1.33561e-20)
(1.10468 0.421842 9.37463e-22)
(1.16077 0.431294 -1.85163e-20)
(1.19546 0.426473 1.38777e-20)
(1.2129 0.413044 5.39016e-21)
(0.145288 0.0530053 7.57229e-21)
(0.387196 0.148094 1.79559e-20)
(0.594459 0.238346 -2.76298e-21)
(0.768133 0.316244 -1.49053e-20)
(0.908343 0.377744 7.69409e-21)
(1.01623 0.420441 -9.0739e-21)
(1.09445 0.443942 -1.31292e-20)
(1.14722 0.449859 -1.04018e-21)
(1.17963 0.441479 -1.13288e-20)
(1.19572 0.425111 4.45602e-21)
(0.146911 0.0598798 3.15743e-21)
(0.389487 0.164709 2.06139e-21)
(0.595462 0.260842 2.41556e-20)
(0.76633 0.341476 5.40357e-21)
(0.902792 0.403086 -5.07564e-21)
(1.00663 0.443926 -3.09645e-21)
(1.08112 0.464351 1.96197e-20)
(1.13099 0.466683 1.72784e-20)
(1.16162 0.454847 9.03424e-21)
(1.17692 0.435533 -1.17097e-21)
(0.14774 0.0667301 5.80986e-22)
(0.389811 0.181064 -1.78961e-20)
(0.59371 0.282696 -2.7825e-20)
(0.761317 0.365645 1.03992e-21)
(0.893885 0.426984 7.79438e-21)
(0.993786 0.465692 -1.09971e-20)
(1.06486 0.482899 -2.8244e-20)
(1.11226 0.481635 -9.03592e-21)
(1.14161 0.466451 -5.47519e-22)
(1.15671 0.444392 4.20215e-21)
(0.147759 0.0734731 -5.13705e-21)
(0.388156 0.196964 1.37312e-20)
(0.589228 0.303657 1.61838e-20)
(0.753173 0.388483 -1.70419e-20)
(0.881756 0.449193 2.88028e-21)
(0.977886 0.485536 2.63263e-20)
(1.04587 0.499436 -5.90585e-21)
(1.09123 0.494608 5.71133e-21)
(1.11976 0.476192 -2.671e-21)
(1.13513 0.451588 -3.52563e-21)
(0.14696 0.0800245 -1.04028e-20)
(0.384535 0.212215 -2.19765e-20)
(0.582071 0.323479 -5.00141e-21)
(0.742008 0.409739 9.32627e-21)
(0.86657 0.469484 1.04976e-20)
(0.959122 0.503275 -2.56082e-20)
(1.02436 0.513825 1.53866e-20)
(1.0681 0.505512 -8.1172e-21)
(1.09623 0.484006 6.65505e-21)
(1.11231 0.457036 3.65684e-22)
(0.145349 0.086301 7.99428e-21)
(0.378983 0.226626 1.19284e-21)
(0.572326 0.341923 -1.90069e-21)
(0.727966 0.42917 -1.07347e-20)
(0.848514 0.487646 7.61042e-21)
(0.937716 0.518742 2.52117e-21)
(1.00057 0.525949 -7.87326e-21)
(1.04307 0.514268 1.98429e-21)
(1.07117 0.489837 -1.41158e-21)
(1.08838 0.460666 -3.95538e-23)
(0.142938 0.0922203 -1.64409e-21)
(0.37156 0.240015 -1.99632e-21)
(0.560111 0.358763 8.50737e-21)
(0.711216 0.446553 4.95906e-21)
(0.827804 0.503486 -8.85131e-21)
(0.91391 0.531791 1.27035e-20)
(0.974716 0.53571 1.43571e-21)
(1.01633 0.520816 2.03966e-21)
(1.04473 0.493641 1.94924e-21)
(1.06344 0.462408 5.01169e-22)
(0.139744 0.0976953 9.65151e-21)
(0.362357 0.252208 9.49788e-21)
(0.545571 0.373788 -1.80302e-21)
(0.691957 0.461682 -1.79379e-21)
(0.80468 0.516831 -3.43052e-21)
(0.887958 0.542295 -2.11749e-21)
(0.94706 0.543028 1.88046e-21)
(0.988097 0.525116 1.05375e-21)
(1.01703 0.49539 -1.42622e-21)
(1.03757 0.462189 -4.00142e-21)
(0.135813 0.102642 -1.3607e-21)
(0.35148 0.263029 2.06912e-22)
(0.52887 0.386804 -8.39496e-21)
(0.67041 0.474371 4.17861e-21)
(0.779396 0.527529 1.67164e-23)
(0.860133 0.550146 -1.23382e-21)
(0.917865 0.54784 1.4595e-21)
(0.958595 0.527146 1.03999e-21)
(0.988188 0.495072 -3.688e-21)
(1.01082 0.459924 4.97111e-21)
(0.131194 0.107 -3.65453e-21)
(0.339044 0.272326 -1.35773e-21)
(0.510201 0.39763 1.09125e-21)
(0.646817 0.484453 -5.9717e-22)
(0.752227 0.535447 -2.91507e-21)
(0.83072 0.555254 2.27966e-21)
(0.887412 0.5501 2.17703e-21)
(0.92806 0.526904 -8.60336e-21)
(0.95831 0.492692 2.13749e-20)
(0.983234 0.455485 9.41239e-21)
(0.125935 0.1107 -1.22587e-21)
(0.325196 0.279964 -1.82689e-21)
(0.489776 0.406108 9.33713e-22)
(0.621436 0.491786 -1.56594e-21)
(0.723455 0.540474 3.78857e-22)
(0.800013 0.557547 -2.39278e-21)
(0.855999 0.54978 -7.33987e-21)
(0.896761 0.524422 3.90284e-21)
(0.927557 0.488303 -8.1688e-22)
(0.954744 0.448754 -4.21186e-21)
(0.120096 0.113678 -1.68831e-21)
(0.310093 0.285821 3.92473e-22)
(0.467823 0.412103 -1.93219e-21)
(0.594537 0.496249 2.09048e-21)
(0.693374 0.542518 5.55929e-21)
(0.768314 0.556965 4.15129e-21)
(0.823934 0.54686 1.35534e-20)
(0.865038 0.519751 -1.03771e-20)
(0.89635 0.482133 -2.08793e-20)
(0.925119 0.44014 9.20471e-21)
(0.113746 0.115882 -3.75223e-21)
(0.293909 0.289791 -3.59601e-21)
(0.444581 0.415502 1.38005e-21)
(0.566403 0.497745 9.71215e-21)
(0.662278 0.541511 -1.15305e-20)
(0.735915 0.553459 -1.67345e-20)
(0.79152 0.541299 -5.19686e-21)
(0.833334 0.512868 -1.28512e-21)
(0.865632 0.474467 2.77916e-20)
(0.89401 0.430121 -6.82828e-21)
(0.10696 0.117266 1.11107e-20)
(0.276827 0.291787 -9.5991e-22)
(0.420304 0.416217 -1.67777e-21)
(0.537318 0.496205 2.11698e-22)
(0.630458 0.537404 -6.77545e-21)
(0.70309 0.546998 3.13032e-20)
(0.759017 0.533035 -2.22136e-20)
(0.802055 0.503519 2.79373e-20)
(0.836393 0.464795 -2.07124e-20)
(0.866973 0.420575 -2.82566e-20)
(0.0998191 0.117793 -5.32279e-21)
(0.25904 0.291744 2.10685e-21)
(0.395251 0.414183 -7.85938e-22)
(0.507574 0.491586 1.10851e-20)
(0.598204 0.53018 -4.17301e-21)
(0.670095 0.537582 6.46069e-21)
(0.726606 0.522085 1.3157e-20)
(0.771131 0.491732 -7.21365e-21)
(0.807571 0.452838 -1.96527e-20)
(0.839969 0.40916 2.84253e-20)
(0.0924083 0.117435 1.15749e-20)
(0.240747 0.289615 1.59415e-20)
(0.369688 0.409367 -1.33491e-20)
(0.477464 0.483874 -1.13647e-20)
(0.565804 0.519849 3.46404e-20)
(0.637189 0.525244 -3.56282e-20)
(0.69449 0.508505 4.42954e-20)
(0.740657 0.47764 -1.18366e-20)
(0.77919 0.438876 1.33129e-20)
(0.813369 0.396081 2.53945e-20)
(0.0848157 0.116174 -5.35576e-21)
(0.222155 0.285377 -1.45936e-20)
(0.343884 0.401757 -6.29962e-21)
(0.447281 0.473081 -3.85091e-21)
(0.533547 0.506445 3.54188e-21)
(0.604634 0.510035 -9.04072e-21)
(0.662893 0.492364 -1.32774e-20)
(0.710817 0.461339 -3.02939e-20)
(0.751474 0.423074 3.15048e-20)
(0.78752 0.381483 -1.06031e-20)
(0.0771316 0.114002 2.1011e-20)
(0.203469 0.279026 -1.4835e-21)
(0.318109 0.391368 -8.26315e-21)
(0.417318 0.459244 1.18113e-20)
(0.501717 0.490025 -2.12759e-20)
(0.572691 0.492027 5.80919e-20)
(0.632044 0.473737 -3.23925e-20)
(0.681808 0.442904 3.11428e-20)
(0.724612 0.40549 -6.02881e-20)
(0.762592 0.365387 -1.66776e-20)
(0.0694473 0.110922 -8.45204e-21)
(0.184898 0.270582 2.22392e-20)
(0.29263 0.378244 5.74101e-21)
(0.387863 0.442428 -1.01954e-20)
(0.470594 0.470668 -1.83338e-20)
(0.541614 0.471304 -8.50964e-22)
(0.602167 0.452708 1.08229e-20)
(0.653822 0.422406 -2.78423e-20)
(0.69878 0.386168 1.46467e-20)
(0.738732 0.347801 1.87665e-21)
(0.0618538 0.106943 -3.35831e-20)
(0.166647 0.260084 -8.96308e-21)
(0.267712 0.362449 -2.328e-21)
(0.359196 0.422718 2.63308e-20)
(0.440449 0.448472 -2.52699e-20)
(0.511649 0.447966 -6.97008e-21)
(0.573477 0.429369 -4.41991e-21)
(0.627046 0.399923 8.66383e-21)
(0.674141 0.365162 -1.15386e-20)
(0.716073 0.32875 -1.89312e-20)
(0.054441 0.102089 2.80037e-20)
(0.148916 0.24759 -1.60047e-20)
(0.243607 0.344074 9.34323e-22)
(0.331587 0.400225 -3.98483e-20)
(0.411543 0.423557 4.46465e-20)
(0.483031 0.422132 -1.48371e-20)
(0.546178 0.403828 9.3562e-21)
(0.601653 0.375545 8.63696e-21)
(0.650843 0.342536 2.63614e-20)
(0.694736 0.308276 -1.1228e-20)
(0.047296 0.0963901 -1.12963e-20)
(0.1319 0.23318 3.34382e-20)
(0.220563 0.323231 1.87058e-20)
(0.305296 0.375082 3.07954e-20)
(0.384121 0.396061 -7.52623e-21)
(0.455982 0.393932 3.10642e-21)
(0.520461 0.376202 2.676e-20)
(0.577805 0.349369 6.27532e-21)
(0.629021 0.318366 6.15926e-22)
(0.674825 0.286441 -1.3444e-20)
(0.040503 0.0898852 -2.43805e-20)
(0.115783 0.216953 -1.88213e-21)
(0.198811 0.300055 -1.06676e-20)
(0.280565 0.347442 -4.90256e-20)
(0.358415 0.36614 -4.95304e-20)
(0.430708 0.363517 8.70173e-21)
(0.496503 0.346623 -2.26789e-20)
(0.555649 0.321506 1.5359e-20)
(0.608798 0.292742 8.84062e-21)
(0.656434 0.263319 1.92914e-20)
(0.0341414 0.082623 3.46049e-20)
(0.100741 0.199022 -2.99041e-20)
(0.178571 0.274702 -1.51705e-20)
(0.257622 0.317478 2.83672e-20)
(0.33464 0.333968 3.35281e-20)
(0.407399 0.331047 -1.16733e-20)
(0.474468 0.315235 -1.54908e-21)
(0.53532 0.29208 -4.75774e-20)
(0.590282 0.265766 -2.83802e-20)
(0.639647 0.238999 1.14277e-20)
(0.0282856 0.0746599 -1.96672e-20)
(0.0869355 0.179521 8.78591e-21)
(0.160043 0.247347 3.24815e-20)
(0.236678 0.285384 -1.48555e-20)
(0.312994 0.299737 1.18258e-21)
(0.38623 0.296699 4.70686e-20)
(0.454503 0.282195 2.30036e-21)
(0.51694 0.261224 4.55189e-20)
(0.573574 0.237549 2.00914e-20)
(0.624537 0.21358 -3.35089e-20)
(0.0230037 0.0660597 2.63702e-20)
(0.0745148 0.158597 3.07989e-21)
(0.143411 0.218181 2.12923e-21)
(0.217921 0.251366 3.0416e-20)
(0.293653 0.263651 -4.28957e-21)
(0.367357 0.260664 -2.94762e-20)
(0.436739 0.247669 1.53687e-20)
(0.500617 0.229081 -2.57739e-20)
(0.55876 0.208215 -1.13579e-20)
(0.611171 0.187171 1.21947e-20)
(0.0183572 0.0568929 -1.64637e-20)
(0.063612 0.136409 -3.31036e-20)
(0.128841 0.187412 7.79254e-21)
(0.201521 0.215651 -1.59909e-20)
(0.276775 0.22593 -1.0236e-20)
(0.35092 0.223141 2.62162e-20)
(0.421294 0.211834 -6.66068e-21)
(0.486447 0.195805 6.59822e-21)
(0.545917 0.177895 -8.49834e-21)
(0.599605 0.15989 1.76002e-20)
(0.0143999 0.0472361 5.86206e-21)
(0.0543434 0.113132 2.21789e-20)
(0.116474 0.155263 -3.16102e-20)
(0.187626 0.178475 1.56378e-20)
(0.262498 0.186804 -7.51198e-21)
(0.337036 0.184342 -2.24326e-20)
(0.408268 0.174877 1.94066e-20)
(0.474512 0.161555 4.38208e-21)
(0.535113 0.146728 -6.43299e-22)
(0.58989 0.131859 -2.05521e-20)
(0.0111777 0.037171 1.86576e-21)
(0.0468076 0.0889482 7.01798e-21)
(0.106433 0.121968 2.84672e-20)
(0.176358 0.140088 -5.71005e-21)
(0.250937 0.146515 -4.75574e-21)
(0.325808 0.144487 1.86059e-21)
(0.397745 0.136991 8.36833e-22)
(0.464881 0.1265 7.66039e-21)
(0.526402 0.114859 -1.06377e-20)
(0.582067 0.103208 -7.11132e-21)
(0.00872797 0.0267838 -4.73747e-21)
(0.0410848 0.0640504 -8.59526e-21)
(0.0988159 0.0877713 -2.20632e-20)
(0.167819 0.100749 1.16274e-20)
(0.242184 0.105312 1.0018e-20)
(0.317316 0.103802 4.33158e-22)
(0.389794 0.0983756 -1.89358e-20)
(0.45761 0.0908124 -8.92016e-21)
(0.51983 0.0824391 7.45769e-21)
(0.576171 0.0740703 8.41308e-21)
(0.00707889 0.016164 8.247e-22)
(0.0372356 0.0386377 -1.78112e-21)
(0.093696 0.0529244 4.18818e-21)
(0.162084 0.0607253 -2.96979e-21)
(0.23631 0.0634514 -2.76245e-21)
(0.31162 0.0625208 -1.98004e-21)
(0.384464 0.059236 3.88622e-21)
(0.452739 0.0546702 1.5673e-20)
(0.51543 0.0496228 2.39128e-21)
(0.572226 0.0445828 -4.49074e-21)
(0.159203 0.0202877 -2.51613e-21)
(0.233361 0.0211945 2.53789e-21)
(0.308762 0.0208802 1.21408e-21)
(0.381791 0.0197804 -1.28113e-21)
(0.450296 0.0182538 -6.20081e-21)
(0.513224 0.0165675 2.1518e-21)
(0.570249 0.0148843 -2.12548e-21)
(1.28724 0.271394 -1.39712e-22)
(1.28527 0.252121 -1.37689e-21)
(1.28034 0.232119 -2.77421e-22)
(1.27229 0.211499 -8.49331e-22)
(1.26097 0.190389 4.72372e-21)
(1.24623 0.16894 -4.43961e-21)
(1.22797 0.147329 2.79918e-21)
(1.20613 0.12576 1.13149e-20)
(1.29577 0.270096 -3.31347e-23)
(1.29659 0.253598 1.17559e-21)
(1.2949 0.236368 1.01836e-21)
(1.29052 0.218476 -5.0189e-21)
(1.28329 0.200009 1.62564e-21)
(1.27305 0.181072 -1.00104e-21)
(1.25967 0.161791 2.74932e-21)
(1.24303 0.142317 -5.36668e-21)
(1.29898 0.265867 3.74922e-22)
(1.30215 0.251946 8.56999e-22)
(1.30326 0.237325 4.92254e-22)
(1.30213 0.222039 2.50142e-21)
(1.29859 0.206135 3.33234e-21)
(1.29246 0.18967 4.85809e-21)
(1.2836 0.172722 -1.53253e-22)
(1.27185 0.155387 9.0515e-22)
(1.29787 0.259008 -1.24621e-22)
(1.30283 0.247368 -1.48081e-21)
(1.30617 0.235089 -1.37632e-21)
(1.3077 0.22218 1.01135e-21)
(1.30728 0.208653 -3.79981e-21)
(1.30471 0.194532 -8.85516e-21)
(1.29983 0.179853 3.91611e-21)
(1.29246 0.164669 4.79643e-22)
(1.29355 0.250055 1.64262e-23)
(1.29975 0.240381 7.38754e-22)
(1.30471 0.230159 1.87775e-21)
(1.30829 0.219378 7.2171e-22)
(1.31034 0.208029 -1.53785e-22)
(1.31068 0.196108 2.17256e-21)
(1.30915 0.18362 1.69644e-21)
(1.30558 0.170583 -1.90475e-21)
(1.28706 0.239555 1.18713e-24)
(1.29398 0.231514 7.86931e-22)
(1.3 0.22303 -1.36525e-21)
(1.30501 0.21408 -1.04426e-21)
(1.30888 0.204641 6.70709e-22)
(1.31145 0.194692 1.47371e-21)
(1.31257 0.184218 -2.5809e-21)
(1.31209 0.173208 -1.25584e-21)
(1.27925 0.228025 7.5388e-23)
(1.28646 0.221296 -8.23223e-22)
(1.29306 0.214225 1.23451e-21)
(1.29895 0.206787 7.90731e-22)
(1.30402 0.198952 1.54646e-21)
(1.30815 0.190693 -6.44792e-22)
(1.31122 0.18198 -4.28579e-21)
(1.31308 0.172787 2.8558e-21)
(1.2707 0.215907 -1.79946e-22)
(1.27791 0.21021 -3.67497e-22)
(1.28471 0.20426 -4.10146e-22)
(1.29102 0.198033 -4.66941e-22)
(1.29678 0.191502 2.83355e-22)
(1.3019 0.184636 1.76911e-21)
(1.30627 0.177403 4.7501e-21)
(1.30977 0.169769 1.00378e-21)
(1.26185 0.203539 8.69434e-23)
(1.26884 0.198651 -2.52246e-23)
(1.27556 0.19358 -1.67202e-22)
(1.28198 0.188306 -7.87555e-22)
(1.28803 0.182807 -1.39761e-21)
(1.29365 0.177056 -1.85857e-21)
(1.29878 0.171024 -1.25612e-21)
(1.30332 0.164677 -1.81835e-21)
(1.25293 0.191163 5.5296e-23)
(1.25958 0.186914 6.70828e-22)
(1.26606 0.182532 5.80237e-23)
(1.27234 0.178005 5.81846e-22)
(1.2784 0.173315 3.7798e-23)
(1.28419 0.168441 -2.65878e-21)
(1.28965 0.16336 -1.81689e-22)
(1.29474 0.158042 1.56874e-21)
(1.24408 0.178938 -1.34275e-22)
(1.25033 0.175205 1.74806e-22)
(1.25646 0.171375 -1.92504e-22)
(1.26248 0.167438 -3.80465e-22)
(1.26835 0.163383 -5.65091e-22)
(1.27406 0.159197 1.79624e-21)
(1.27958 0.15486 8.72521e-22)
(1.28485 0.150353 -1.4846e-21)
(1.23538 0.16697 4.34515e-23)
(1.24119 0.163664 -5.7656e-22)
(1.24693 0.160283 3.17088e-22)
(1.2526 0.156824 2.28561e-23)
(1.25819 0.153278 6.24084e-22)
(1.26367 0.149636 -6.56904e-22)
(1.26904 0.145887 8.84277e-22)
(1.27427 0.142015 1.17302e-21)
(1.22685 0.155318 2.75282e-23)
(1.23223 0.152375 2.35625e-22)
(1.23756 0.149374 -5.70018e-22)
(1.24285 0.146311 -1.03899e-22)
(1.24809 0.143184 -6.57602e-22)
(1.25326 0.139984 7.23988e-22)
(1.25837 0.136706 -2.77776e-21)
(1.2634 0.13334 -1.69678e-21)
(1.21851 0.144017 -6.83556e-23)
(1.22346 0.141392 7.54399e-23)
(1.22839 0.138718 4.69774e-22)
(1.23329 0.135996 -2.65455e-22)
(1.23816 0.133222 1.0774e-21)
(1.24299 0.130393 -3.86509e-22)
(1.24778 0.127504 5.53076e-22)
(1.25252 0.12455 9.58848e-22)
(1.21035 0.133086 6.66807e-23)
(1.21491 0.130742 -2.57729e-23)
(1.21945 0.128358 -3.83748e-22)
(1.22397 0.125934 8.91308e-22)
(1.22847 0.123467 -5.1799e-22)
(1.23294 0.120957 4.52333e-22)
(1.23738 0.118401 4.77613e-22)
(1.2418 0.115794 1.94157e-22)
(1.2024 0.122532 3.64017e-23)
(1.20659 0.120441 6.32546e-23)
(1.21075 0.118317 1.82959e-22)
(1.21491 0.116158 -6.63425e-22)
(1.21904 0.113966 -4.36366e-22)
(1.22316 0.111737 8.40023e-23)
(1.22727 0.109471 -4.2971e-22)
(1.23135 0.107165 4.90714e-22)
(1.23541 0.104816 -1.93984e-21)
(1.19466 0.112355 -5.35331e-23)
(1.19849 0.110493 -1.65801e-23)
(1.20231 0.108603 -1.19032e-24)
(1.20612 0.106685 4.73615e-22)
(1.20992 0.104738 3.2134e-22)
(1.2137 0.102762 -2.11838e-22)
(1.21747 0.100754 -4.02667e-22)
(1.22122 0.0987147 9.13725e-23)
(1.22496 0.0966412 2.95355e-22)
(1.18712 0.102545 3.93821e-23)
(1.19064 0.100892 -8.04711e-24)
(1.19414 0.0992168 1.57712e-22)
(1.19763 0.0975176 -1.59197e-22)
(1.20111 0.0957942 -2.93286e-23)
(1.20457 0.094046 4.36614e-22)
(1.20803 0.0922721 1.8654e-22)
(1.21147 0.0904718 -5.82687e-22)
(1.21489 0.0886438 -2.65972e-22)
(1.17983 0.0930893 -3.98894e-23)
(1.18304 0.0916291 -5.19528e-23)
(1.18625 0.0901495 -3.22746e-23)
(1.18944 0.0886504 -2.53251e-23)
(1.19263 0.087131 -2.71548e-22)
(1.1958 0.085591 3.02925e-22)
(1.19896 0.0840297 -2.13594e-22)
(1.20211 0.0824463 -4.95936e-22)
(1.20524 0.08084 7.25611e-22)
(1.17279 0.083972 -1.96728e-23)
(1.17574 0.0826883 5.28785e-23)
(1.17867 0.0813887 -1.55925e-23)
(1.1816 0.0800729 -6.74881e-23)
(1.18451 0.0787405 8.12542e-23)
(1.18741 0.0773909 -2.07373e-22)
(1.1903 0.0760236 3.65888e-22)
(1.19317 0.074638 3.39384e-22)
(1.19603 0.0732333 -4.65602e-23)
(1.16604 0.07517 2.92141e-23)
(1.16874 0.0740491 -3.33788e-23)
(1.17144 0.0729154 -1.70935e-23)
(1.17411 0.0717684 -8.0778e-23)
(1.17678 0.0706077 3.13595e-23)
(1.17944 0.0694329 8.33108e-23)
(1.18207 0.0682433 -3.36042e-23)
(1.1847 0.0670386 -4.06512e-22)
(1.1873 0.065818 2.89623e-22)
(1.15963 0.0666571 1.78893e-24)
(1.16211 0.065687 -3.16086e-23)
(1.16458 0.0647065 -4.22625e-23)
(1.16704 0.0637152 2.74381e-23)
(1.16948 0.0627128 1.24441e-22)
(1.17191 0.0616988 -1.21285e-22)
(1.17432 0.0606727 -2.62701e-22)
(1.17672 0.0596339 3.0865e-22)
(1.17909 0.058582 -4.66182e-22)
(1.1536 0.0584057 -2.14026e-24)
(1.15589 0.0575751 -1.06383e-23)
(1.15816 0.0567364 4.97168e-23)
(1.16041 0.055889 -1.30773e-23)
(1.16266 0.0550326 -1.11758e-22)
(1.16488 0.0541668 1.59049e-22)
(1.16709 0.0532911 -2.01003e-22)
(1.16928 0.0524051 -1.20928e-22)
(1.17145 0.0515081 3.8223e-22)
(1.14801 0.0503786 -1.02935e-23)
(1.15012 0.049678 2.67062e-23)
(1.15222 0.048971 2.90395e-23)
(1.1543 0.0482573 -3.70059e-23)
(1.15636 0.0475363 -4.50232e-24)
(1.15841 0.0468078 -1.47383e-22)
(1.16043 0.0460713 -1.45392e-23)
(1.16244 0.0453263 1.64803e-22)
(1.16442 0.0445723 -2.72931e-22)
(1.14292 0.0425359 1.49687e-25)
(1.14488 0.0419569 4.42693e-24)
(1.14683 0.041373 7.80643e-25)
(1.14875 0.0407838 2.57646e-23)
(1.15066 0.040189 1.41543e-22)
(1.15255 0.0395882 -1.07702e-22)
(1.15441 0.038981 6.62503e-23)
(1.15626 0.038367 -3.55565e-25)
(1.15808 0.0377456 -1.83409e-22)
(1.13842 0.0348277 6.46185e-24)
(1.14025 0.0343632 -1.57844e-23)
(1.14206 0.0338951 5.3446e-24)
(1.14386 0.033423 -4.78334e-23)
(1.14563 0.0329465 1.78592e-23)
(1.14738 0.0324655 3.69593e-23)
(1.14911 0.0319794 9.29638e-23)
(1.15082 0.0314879 1.90959e-23)
(1.1525 0.0309905 -2.06944e-23)
(1.13458 0.0271987 5.35547e-24)
(1.13631 0.0268429 -2.93782e-24)
(1.13801 0.0264844 -1.33856e-23)
(1.13969 0.026123 3.61861e-23)
(1.14136 0.0257584 -6.69253e-23)
(1.143 0.0253904 5.35381e-23)
(1.14461 0.0250185 3.5203e-23)
(1.1462 0.0246424 -1.20061e-22)
(1.14777 0.0242617 -8.32618e-23)
(1.13151 0.0195747 5.68881e-25)
(1.13315 0.0193238 -1.39335e-23)
(1.13477 0.0190711 4.65413e-24)
(1.13636 0.0188164 -4.72311e-23)
(1.13794 0.0185595 4.94623e-23)
(1.13949 0.0183001 7.29655e-24)
(1.14102 0.018038 3.22621e-23)
(1.14252 0.0177727 -1.24796e-22)
(1.14399 0.0175041 2.07019e-22)
(1.12932 0.0118827 1.48635e-25)
(1.1309 0.0117328 3.27997e-24)
(1.13246 0.0115818 4.60094e-24)
(1.13399 0.0114295 -1.76963e-23)
(1.1355 0.0112759 3.50412e-23)
(1.13699 0.0111207 -4.31782e-23)
(1.13845 0.0109637 5.43173e-23)
(1.13989 0.0108047 -1.93087e-23)
(1.1413 0.0106435 -5.10556e-23)
(1.12812 0.00399713 2.30717e-25)
(1.12966 0.00395104 -9.16786e-24)
(1.13118 0.00390452 2.0831e-23)
(1.13268 0.00385745 2.56291e-23)
(1.13415 0.0038097 -1.31413e-23)
(1.1356 0.00376114 3.08925e-23)
(1.13703 0.00371166 -2.96093e-23)
(1.13843 0.00366112 -8.6987e-24)
(1.13981 0.0036094 -2.0017e-23)
(0.96068 0.411932 2.03451e-21)
(0.985693 0.417388 -1.42858e-21)
(1.0096 0.422198 4.21385e-21)
(1.03296 0.425649 -8.42742e-22)
(1.05624 0.427604 3.72282e-23)
(1.07918 0.428062 -3.29425e-23)
(1.10157 0.427013 -9.62204e-23)
(1.1233 0.424464 -4.59516e-22)
(1.14428 0.420441 1.26684e-22)
(1.16439 0.414979 -2.80295e-21)
(1.18351 0.408115 -2.13394e-21)
(1.20138 0.399875 2.16514e-21)
(1.21803 0.390238 -4.91848e-21)
(1.23337 0.379366 -1.3096e-21)
(1.24709 0.367263 2.47496e-21)
(1.25907 0.353962 -3.28421e-21)
(1.26917 0.339513 5.44843e-22)
(1.27722 0.323972 2.4191e-22)
(1.28303 0.307396 1.25e-21)
(1.28643 0.289846 2.07724e-22)
(0.983594 0.39326 -3.28289e-21)
(1.00694 0.396706 2.20046e-21)
(1.0288 0.399613 -5.09895e-21)
(1.04961 0.401643 -3.90065e-21)
(1.07035 0.402624 -3.35554e-22)
(1.09093 0.402516 1.87639e-22)
(1.11113 0.401287 2.32804e-23)
(1.13087 0.398913 1.19249e-21)
(1.15007 0.395389 -2.0244e-21)
(1.16863 0.390721 1.72112e-21)
(1.18642 0.384916 -4.07935e-22)
(1.20329 0.377995 -2.35584e-21)
(1.21926 0.370069 1.92535e-21)
(1.23423 0.361001 -1.32815e-21)
(1.24787 0.350893 3.53949e-22)
(1.26013 0.339783 -8.24522e-22)
(1.2709 0.327687 3.44281e-21)
(1.28002 0.314636 -6.72711e-22)
(1.28731 0.300661 -1.0505e-21)
(1.29262 0.2858 1.11544e-23)
(1.0049 0.375323 -1.65675e-21)
(1.0258 0.37784 -3.20411e-21)
(1.04546 0.379496 1.32177e-21)
(1.06402 0.380351 2.95768e-21)
(1.08253 0.380361 -5.86032e-22)
(1.10095 0.379519 3.09928e-23)
(1.11909 0.377826 8.54984e-23)
(1.13688 0.375274 9.84542e-22)
(1.15428 0.371858 2.70817e-21)
(1.1712 0.367579 -1.53638e-22)
(1.18758 0.362443 2.9151e-21)
(1.20331 0.356467 -4.38172e-22)
(1.21823 0.349696 -4.77834e-22)
(1.23238 0.341998 1.88512e-22)
(1.24568 0.333488 -3.11683e-21)
(1.25792 0.324183 -1.98434e-21)
(1.26899 0.314078 -1.48271e-21)
(1.27878 0.303181 -3.7396e-22)
(1.28714 0.291503 -8.15551e-22)
(1.29393 0.279059 -3.92691e-22)
(1.02434 0.357425 -2.86508e-21)
(1.04305 0.358831 4.099e-21)
(1.06065 0.35943 -1.60798e-21)
(1.07724 0.35936 8.60954e-23)
(1.09373 0.358624 -2.6523e-22)
(1.11015 0.357218 3.29411e-22)
(1.12634 0.355156 -1.18519e-22)
(1.14224 0.352441 -1.71261e-21)
(1.15783 0.349076 -8.27876e-22)
(1.17307 0.345062 2.67837e-21)
(1.1879 0.340401 -1.54723e-21)
(1.20227 0.335093 2.7374e-21)
(1.21607 0.329138 -1.95547e-22)
(1.2293 0.322579 -1.76146e-21)
(1.2419 0.315417 4.78724e-21)
(1.25373 0.307614 2.07074e-21)
(1.2647 0.29917 -5.85751e-22)
(1.27472 0.290087 8.05539e-22)
(1.28367 0.280367 1.29847e-21)
(1.29143 0.270008 1.50739e-22)
(1.04141 0.339414 4.86804e-21)
(1.05815 0.339892 -3.0086e-21)
(1.07388 0.339691 1.0816e-21)
(1.08873 0.338945 -6.5958e-22)
(1.10345 0.337668 3.1798e-22)
(1.11809 0.335859 -1.48884e-22)
(1.13253 0.333532 -9.94677e-23)
(1.14672 0.330699 8.79958e-22)
(1.16066 0.327369 -1.7722e-21)
(1.17431 0.323551 -3.15957e-21)
(1.18766 0.319251 -5.94276e-23)
(1.20064 0.314476 -1.11677e-21)
(1.21322 0.309238 6.25254e-22)
(1.22544 0.303562 -6.63295e-22)
(1.23722 0.297367 -1.41672e-21)
(1.2484 0.290696 5.9279e-23)
(1.25897 0.283556 -3.99537e-22)
(1.26886 0.275933 -1.39581e-21)
(1.27799 0.267817 -5.06404e-22)
(1.28626 0.259196 -6.00374e-23)
(1.05624 0.3212 5.31255e-23)
(1.07119 0.321003 2.2573e-21)
(1.08522 0.320244 6.8416e-22)
(1.09848 0.319037 1.19537e-21)
(1.11163 0.317402 -1.09875e-23)
(1.1247 0.31534 5.87073e-23)
(1.13759 0.312862 2.85925e-22)
(1.15026 0.309986 4.85461e-22)
(1.16272 0.306723 1.49705e-21)
(1.17495 0.303085 1.01395e-21)
(1.18695 0.299083 8.00001e-22)
(1.19869 0.294727 -6.01418e-23)
(1.21015 0.290031 3.21205e-22)
(1.22123 0.285006 1.41362e-21)
(1.23199 0.279581 -1.1574e-21)
(1.24243 0.273808 -3.49775e-22)
(1.25245 0.267696 9.35583e-22)
(1.26198 0.261229 1.0577e-21)
(1.27098 0.254394 -7.60306e-22)
(1.27937 0.247175 2.97442e-23)
(1.069 0.302966 -2.40377e-21)
(1.08231 0.30228 -1.80353e-21)
(1.09479 0.301133 3.49428e-22)
(1.10664 0.299621 4.10578e-22)
(1.11838 0.297765 -6.10435e-22)
(1.13004 0.295565 -3.42554e-22)
(1.14156 0.293033 2.05176e-22)
(1.15288 0.290184 -1.39115e-21)
(1.16404 0.287029 -5.29733e-22)
(1.175 0.283581 -9.57126e-23)
(1.18578 0.27985 2.15444e-22)
(1.19635 0.275843 -5.21483e-22)
(1.20671 0.271563 -8.94954e-22)
(1.21682 0.267017 1.84347e-21)
(1.22668 0.262244 4.10571e-22)
(1.2363 0.257217 -8.06321e-22)
(1.24564 0.251927 -7.58957e-22)
(1.25464 0.246373 3.25401e-22)
(1.26327 0.240546 7.99993e-22)