/*--------------------------------*- C++ -*----------------------------------*\
  =========                 |
  \\      /  F ield         | OpenFOAM: The Open Source CFD Toolbox
   \\    /   O peration     | Website:  https://openfoam.org
    \\  /    A nd           | Version:  7
     \\/     M anipulation  |
\*---------------------------------------------------------------------------*/
FoamFile
{
    version     2.0;
    format      ascii;
    class       volScalarField;
    location    "315";
    object      p;
}
// * * * * * * * * * * * * * * * * * * * * * * * * * * * * * * * * * * * * * //

dimensions      [0 2 -2 0 0 0 0];

internalField   nonuniform List<scalar> 
8500
(
-0.394944
-0.397406
-0.398246
-0.398995
-0.400072
-0.401706
-0.404047
-0.407298
-0.411619
-0.417494
-0.395491
-0.398628
-0.399799
-0.400844
-0.402163
-0.403922
-0.406189
-0.409049
-0.412475
-0.416786
-0.39648
-0.400228
-0.401714
-0.40305
-0.40461
-0.406488
-0.408665
-0.411093
-0.413527
-0.416069
-0.398023
-0.402297
-0.404077
-0.405702
-0.407506
-0.40951
-0.411593
-0.413569
-0.414944
-0.415555
-0.400216
-0.404907
-0.406959
-0.408867
-0.410922
-0.413067
-0.415068
-0.416588
-0.416866
-0.415403
-0.403123
-0.40811
-0.410403
-0.412589
-0.414904
-0.417208
-0.419144
-0.420218
-0.419391
-0.415699
-0.406778
-0.411925
-0.414425
-0.416878
-0.419461
-0.421944
-0.42384
-0.424481
-0.42257
-0.416447
-0.411176
-0.416338
-0.419003
-0.421707
-0.42456
-0.427244
-0.429122
-0.429347
-0.426414
-0.417569
-0.416268
-0.421301
-0.424083
-0.427014
-0.430131
-0.433029
-0.434913
-0.434728
-0.430889
-0.418928
-0.421973
-0.426733
-0.429575
-0.432695
-0.436057
-0.439174
-0.441078
-0.44047
-0.435911
-0.420321
-0.428173
-0.432525
-0.435363
-0.438619
-0.442189
-0.445507
-0.447439
-0.446365
-0.441349
-0.421366
-0.43473
-0.438553
-0.441309
-0.444631
-0.448344
-0.451822
-0.453766
-0.452161
-0.447184
-0.421529
-0.44149
-0.444683
-0.447271
-0.450564
-0.454332
-0.457885
-0.459791
-0.457579
-0.453235
-0.421407
-0.448305
-0.450788
-0.453115
-0.456263
-0.459956
-0.463457
-0.465253
-0.462465
-0.457112
-0.422387
-0.455039
-0.45676
-0.458725
-0.461595
-0.46506
-0.468343
-0.469861
-0.466703
-0.460034
-0.422897
-0.461586
-0.462517
-0.464018
-0.466465
-0.469538
-0.472424
-0.473436
-0.469788
-0.461785
-0.422888
-0.467882
-0.468011
-0.468956
-0.470836
-0.473338
-0.475631
-0.475915
-0.471627
-0.461936
-0.42227
-0.473899
-0.473238
-0.473541
-0.47472
-0.476489
-0.478003
-0.477332
-0.472271
-0.460179
-0.42062
-0.479659
-0.478231
-0.477819
-0.478184
-0.479081
-0.479656
-0.477829
-0.471828
-0.456465
-0.418148
-0.485229
-0.483056
-0.481876
-0.481337
-0.481252
-0.480753
-0.477619
-0.470392
-0.451406
-0.417796
-0.490711
-0.487806
-0.485823
-0.484322
-0.48317
-0.481478
-0.476916
-0.468063
-0.44643
-0.422528
-0.496229
-0.492593
-0.489786
-0.487288
-0.485007
-0.482009
-0.475892
-0.465105
-0.442301
-0.418788
-0.501925
-0.497541
-0.493899
-0.490386
-0.486924
-0.482495
-0.474662
-0.461781
-0.437869
-0.41275
-0.507937
-0.502766
-0.498288
-0.49375
-0.489048
-0.48305
-0.473319
-0.458207
-0.433034
-0.406172
-0.514391
-0.508374
-0.503061
-0.497487
-0.491467
-0.48374
-0.471918
-0.454438
-0.42789
-0.399262
-0.52139
-0.514457
-0.508305
-0.501668
-0.494222
-0.48459
-0.470471
-0.450514
-0.422468
-0.392395
-0.529007
-0.521078
-0.514077
-0.506327
-0.497319
-0.48558
-0.468951
-0.446436
-0.416854
-0.385568
-0.537284
-0.528277
-0.520405
-0.511463
-0.500724
-0.486649
-0.467304
-0.442197
-0.411087
-0.3788
-0.546226
-0.536066
-0.52729
-0.517041
-0.50437
-0.487702
-0.46546
-0.437772
-0.405187
-0.372043
-0.555803
-0.544429
-0.534695
-0.522993
-0.508152
-0.488614
-0.46334
-0.433123
-0.399144
-0.365242
-0.565953
-0.553319
-0.542557
-0.529222
-0.511927
-0.489248
-0.460859
-0.428205
-0.392922
-0.358327
-0.576576
-0.562657
-0.550775
-0.535592
-0.515521
-0.489457
-0.457933
-0.422959
-0.38647
-0.351226
-0.587539
-0.572327
-0.559211
-0.541928
-0.518734
-0.489098
-0.454472
-0.417318
-0.379722
-0.343862
-0.598669
-0.582178
-0.567693
-0.548014
-0.521358
-0.488026
-0.450385
-0.411207
-0.372603
-0.336159
-0.60976
-0.592015
-0.576005
-0.5536
-0.523177
-0.486104
-0.445579
-0.404544
-0.365033
-0.328042
-0.620565
-0.601607
-0.583891
-0.55841
-0.523981
-0.483196
-0.439958
-0.397245
-0.35693
-0.319438
-0.630806
-0.610687
-0.591062
-0.56216
-0.523568
-0.479174
-0.433425
-0.389223
-0.348212
-0.310279
-0.640173
-0.618955
-0.597198
-0.564565
-0.521748
-0.473914
-0.425886
-0.38039
-0.338799
-0.300501
-0.648334
-0.626087
-0.601961
-0.565349
-0.518341
-0.467299
-0.417248
-0.370663
-0.328615
-0.29005
-0.654942
-0.63174
-0.605011
-0.564255
-0.513188
-0.459221
-0.407422
-0.359962
-0.317592
-0.278882
-0.659642
-0.635564
-0.606016
-0.561048
-0.506144
-0.449579
-0.396326
-0.348213
-0.305674
-0.266966
-0.662085
-0.637209
-0.604668
-0.555524
-0.497084
-0.438284
-0.383882
-0.335348
-0.292812
-0.254281
-0.661934
-0.636339
-0.600687
-0.547506
-0.485903
-0.425262
-0.370023
-0.321302
-0.278956
-0.240802
-0.658876
-0.632641
-0.593836
-0.536855
-0.472521
-0.410451
-0.354699
-0.306025
-0.264042
-0.226417
-0.652631
-0.625835
-0.583919
-0.523466
-0.456877
-0.393809
-0.337875
-0.289494
-0.248025
-0.210898
-0.642957
-0.615686
-0.570787
-0.50727
-0.438938
-0.37531
-0.319524
-0.271701
-0.230941
-0.194091
-0.62966
-0.602015
-0.554334
-0.488233
-0.418692
-0.354938
-0.299623
-0.252626
-0.212867
-0.176351
-0.612597
-0.584692
-0.534505
-0.466353
-0.396152
-0.332698
-0.278179
-0.232272
-0.193621
-0.158139
-0.591677
-0.563645
-0.511289
-0.441666
-0.371352
-0.308618
-0.255264
-0.210814
-0.173208
-0.13926
-0.566869
-0.538856
-0.484723
-0.414246
-0.344352
-0.282775
-0.230988
-0.188127
-0.15182
-0.119621
-0.538193
-0.510364
-0.454899
-0.384201
-0.315233
-0.255282
-0.205324
-0.164286
-0.129534
-0.099233
-0.505726
-0.47828
-0.421995
-0.351616
-0.284102
-0.22617
-0.178357
-0.139375
-0.106411
-0.0781661
-0.469597
-0.442787
-0.386252
-0.316463
-0.251089
-0.195562
-0.150188
-0.113488
-0.0825239
-0.0565233
-0.429997
-0.404128
-0.347716
-0.279
-0.216307
-0.163588
-0.120932
-0.086725
-0.0579591
-0.0344196
-0.387157
-0.362546
-0.305942
-0.239907
-0.180011
-0.130396
-0.0907178
-0.0591911
-0.0328044
-0.0119433
-0.341295
-0.318126
-0.261899
-0.199029
-0.142396
-0.0961559
-0.0596836
-0.0309957
-0.0071479
0.0108163
-0.292668
-0.270856
-0.216359
-0.156624
-0.103643
-0.0610429
-0.027968
-0.0022393
0.0188654
0.0335069
-0.241697
-0.221423
-0.169308
-0.112984
-0.0639601
-0.0252292
0.00431308
0.026997
0.0449451
0.0552476
-0.188813
-0.170173
-0.12093
-0.0683869
-0.0235754
0.0111098
0.0370537
0.0566128
0.0707388
0.0754051
-0.13433
-0.117557
-0.0715276
-0.0231141
0.0172696
0.0477846
0.070091
0.0863604
0.0961398
0.0958744
-0.0786703
-0.0639888
-0.0214527
0.022543
0.0583271
0.0845826
0.103163
0.115814
0.12114
0.121942
-0.0222751
-0.00987329
0.028929
0.0682844
0.0993455
0.121274
0.135993
0.144841
0.146694
0.148041
0.0344089
0.0443799
0.0792487
0.113805
0.140067
0.157628
0.168411
0.17353
0.172453
0.172723
0.0909327
0.0983566
0.129139
0.158797
0.180231
0.193412
0.200242
0.201757
0.197955
0.196343
0.146848
0.151643
0.178237
0.202957
0.219578
0.228406
0.231321
0.229345
0.222838
0.218905
0.201709
0.203829
0.226187
0.245983
0.257851
0.262394
0.26147
0.256111
0.246911
0.240457
0.255082
0.254514
0.272641
0.287583
0.294802
0.295166
0.29051
0.281879
0.27002
0.260969
0.306543
0.303309
0.317263
0.327472
0.33019
0.326517
0.318265
0.30649
0.292042
0.280388
0.355684
0.349841
0.359733
0.36538
0.363786
0.356253
0.344567
0.329796
0.312859
0.298646
0.402117
0.393754
0.399745
0.401047
0.395368
0.384184
0.369256
0.35166
0.33236
0.315669
0.445475
0.434714
0.437012
0.434232
0.424731
0.410137
0.392181
0.371954
0.35044
0.331386
0.485417
0.472412
0.471268
0.464709
0.451682
0.433946
0.413203
0.390558
0.367001
0.345727
0.52163
0.506561
0.502269
0.49227
0.476046
0.455462
0.432194
0.407363
0.38195
0.358629
0.553829
0.536905
0.529794
0.51673
0.497664
0.474549
0.449039
0.42227
0.395205
0.370035
0.581764
0.563215
0.553647
0.537921
0.516393
0.491086
0.463635
0.435189
0.406691
0.379895
0.605216
0.585296
0.57366
0.555702
0.532112
0.50497
0.475893
0.446046
0.416344
0.388166
0.624003
0.602981
0.589692
0.569953
0.544719
0.516113
0.485739
0.454774
0.42411
0.394812
0.63798
0.616139
0.601629
0.580577
0.554132
0.524446
0.493115
0.461324
0.429947
0.399813
0.647037
0.624673
0.609389
0.587504
0.56029
0.529918
0.497975
0.465658
0.433827
0.403159
0.651105
0.628518
0.612916
0.590689
0.563156
0.532494
0.500292
0.467749
0.435727
0.404816
0.650153
0.627648
0.612187
0.59011
0.56271
0.532162
0.500054
0.467589
0.435629
0.404778
0.644188
0.622068
0.607207
0.585773
0.558958
0.528924
0.497264
0.465179
0.433541
0.40304
0.633257
0.611822
0.598015
0.57771
0.551927
0.522803
0.491941
0.460537
0.429481
0.399633
0.617446
0.596987
0.584675
0.565976
0.541666
0.513841
0.484121
0.453695
0.423476
0.394574
0.596879
0.577674
0.567283
0.550653
0.528242
0.502098
0.473856
0.444696
0.415561
0.387881
0.571716
0.554029
0.545965
0.531848
0.511749
0.487651
0.46121
0.433597
0.405784
0.379584
0.542156
0.52623
0.520874
0.509689
0.492295
0.470594
0.446266
0.420469
0.394202
0.369722
0.50843
0.494488
0.492191
0.484331
0.470013
0.45104
0.429118
0.405394
0.380886
0.358341
0.470805
0.459045
0.460121
0.455949
0.445052
0.429115
0.409875
0.388465
0.365915
0.345496
0.429578
0.420169
0.424896
0.424738
0.417579
0.404964
0.388658
0.369787
0.349375
0.331246
0.385076
0.378159
0.386773
0.390916
0.387779
0.378742
0.365602
0.349475
0.331362
0.315659
0.337653
0.333336
0.346026
0.354716
0.35585
0.350621
0.340852
0.327652
0.31198
0.298807
0.287689
0.286047
0.302954
0.31639
0.322008
0.320781
0.314562
0.30445
0.291336
0.280764
0.235583
0.236658
0.257871
0.276203
0.286477
0.289416
0.286898
0.280011
0.269545
0.261606
0.181755
0.185553
0.211108
0.234436
0.249495
0.256728
0.258032
0.254488
0.246726
0.241403
0.126638
0.13313
0.163009
0.19138
0.211309
0.222925
0.228146
0.228043
0.223007
0.220206
0.0706794
0.0798011
0.113931
0.147334
0.172173
0.188223
0.197421
0.200856
0.198547
0.198048
0.0143321
0.0259826
0.0642388
0.102606
0.132349
0.15284
0.166039
0.173113
0.173543
0.174882
-0.0419459
-0.0279042
0.0143028
0.0575075
0.0920992
0.117002
0.134167
0.144994
0.148363
0.150733
-0.0976967
-0.0814401
-0.0355006
0.0123502
0.0516904
0.0809428
0.101982
0.116624
0.123481
0.125301
-0.152464
-0.134212
-0.0847931
-0.0325566
0.0113827
0.0448983
0.0696582
0.087914
0.0992286
0.100079
-0.205791
-0.185812
-0.1332
-0.0769109
-0.0285701
0.00909967
0.0374702
0.0589823
0.0746099
0.0803705
-0.257244
-0.235795
-0.180367
-0.120423
-0.0679185
-0.0262398
0.00568168
0.0302593
0.0496508
0.0610262
-0.306667
-0.28361
-0.226016
-0.162814
-0.106418
-0.060929
-0.025541
0.00200666
0.0244863
0.0401672
-0.3534
-0.329047
-0.27004
-0.203806
-0.143836
-0.0947913
-0.0560911
-0.0256729
-0.000533215
0.018413
-0.397085
-0.371232
-0.31246
-0.243101
-0.179963
-0.127654
-0.0858549
-0.0527034
-0.0251268
-0.00336237
-0.437527
-0.410533
-0.352041
-0.280464
-0.214608
-0.159342
-0.114696
-0.0789885
-0.0491532
-0.0248091
-0.474492
-0.446704
-0.3883
-0.315839
-0.247559
-0.189684
-0.142476
-0.104421
-0.0725261
-0.04584
-0.507739
-0.479437
-0.421579
-0.348687
-0.278629
-0.218532
-0.169066
-0.128898
-0.0951608
-0.0663687
-0.537086
-0.508503
-0.451779
-0.378884
-0.307649
-0.24575
-0.194354
-0.152322
-0.116973
-0.0862821
-0.562417
-0.533741
-0.47867
-0.406373
-0.334503
-0.271246
-0.218239
-0.174603
-0.137888
-0.10548
-0.58367
-0.555059
-0.502091
-0.431049
-0.359097
-0.294993
-0.240631
-0.195656
-0.15784
-0.123902
-0.600839
-0.57243
-0.52196
-0.452807
-0.381341
-0.316841
-0.261611
-0.215398
-0.176739
-0.141556
-0.613978
-0.585888
-0.53825
-0.471583
-0.401177
-0.336719
-0.281004
-0.233953
-0.194432
-0.158578
-0.623199
-0.595527
-0.550984
-0.48735
-0.418574
-0.354611
-0.298756
-0.251188
-0.211025
-0.175089
-0.628672
-0.6015
-0.560235
-0.500115
-0.433528
-0.37052
-0.314875
-0.267082
-0.226529
-0.190474
-0.630618
-0.604017
-0.566127
-0.509924
-0.446055
-0.384464
-0.329383
-0.281642
-0.240882
-0.204591
-0.629312
-0.603348
-0.568832
-0.516856
-0.456194
-0.396471
-0.342304
-0.294879
-0.254094
-0.217622
-0.625067
-0.599808
-0.56857
-0.521032
-0.46401
-0.406585
-0.353675
-0.306825
-0.266218
-0.229752
-0.61823
-0.593748
-0.565612
-0.522609
-0.469592
-0.414868
-0.363546
-0.317531
-0.277313
-0.241067
-0.609173
-0.585543
-0.560272
-0.521784
-0.473055
-0.421397
-0.371982
-0.327055
-0.287424
-0.2516
-0.598279
-0.575579
-0.552897
-0.518788
-0.474532
-0.426262
-0.379057
-0.335462
-0.296598
-0.261371
-0.585935
-0.564243
-0.54386
-0.513882
-0.47418
-0.429563
-0.384849
-0.342817
-0.304887
-0.270412
-0.572518
-0.551911
-0.533543
-0.507355
-0.472172
-0.431408
-0.389436
-0.349191
-0.312349
-0.278764
-0.558389
-0.538935
-0.522324
-0.499518
-0.468703
-0.431913
-0.392901
-0.354652
-0.319049
-0.286474
-0.543878
-0.525641
-0.510559
-0.490693
-0.46398
-0.431198
-0.395324
-0.35927
-0.32505
-0.293596
-0.52928
-0.512316
-0.49857
-0.481204
-0.458229
-0.429392
-0.396784
-0.363108
-0.330416
-0.300187
-0.514853
-0.499207
-0.486636
-0.471365
-0.451684
-0.426627
-0.397354
-0.366222
-0.335203
-0.306304
-0.500806
-0.486515
-0.474989
-0.461458
-0.444585
-0.423042
-0.397105
-0.368659
-0.339461
-0.312
-0.487308
-0.474394
-0.463809
-0.451724
-0.437171
-0.418782
-0.396101
-0.370453
-0.343227
-0.317327
-0.474481
-0.462954
-0.453232
-0.442348
-0.429664
-0.413999
-0.394408
-0.371628
-0.346526
-0.322334
-0.462412
-0.452263
-0.443347
-0.433461
-0.422257
-0.408848
-0.392092
-0.372199
-0.349367
-0.327063
-0.451151
-0.442355
-0.4342
-0.425142
-0.415096
-0.403485
-0.389227
-0.372173
-0.351742
-0.331554
-0.440728
-0.433238
-0.425806
-0.417433
-0.408278
-0.398051
-0.3859
-0.371561
-0.353631
-0.335839
-0.431157
-0.424905
-0.418152
-0.410345
-0.401856
-0.392665
-0.382213
-0.370384
-0.354996
-0.33997
-0.422452
-0.417347
-0.411215
-0.403873
-0.395859
-0.38742
-0.378281
-0.368685
-0.355813
-0.343965
-0.414633
-0.410556
-0.404975
-0.398009
-0.390311
-0.382386
-0.374224
-0.366544
-0.35604
-0.347968
-0.407723
-0.404539
-0.399428
-0.392756
-0.385249
-0.377641
-0.370167
-0.364064
-0.355736
-0.351832
-0.401735
-0.399327
-0.394585
-0.388137
-0.38073
-0.37328
-0.366244
-0.361402
-0.354876
-0.355866
-0.396739
-0.394919
-0.390462
-0.384193
-0.376831
-0.369428
-0.362639
-0.358695
-0.353525
-0.35881
-0.392736
-0.391344
-0.387077
-0.380972
-0.373642
-0.366228
-0.359601
-0.355979
-0.352985
-0.350765
-0.38971
-0.388524
-0.384506
-0.378519
-0.37124
-0.363824
-0.357357
-0.353495
-0.353266
-0.347095
-0.387625
-0.386508
-0.382667
-0.376838
-0.369673
-0.362324
-0.356072
-0.351811
-0.354178
-0.346584
-0.386402
-0.385236
-0.381515
-0.375904
-0.368944
-0.361784
-0.35582
-0.351351
-0.355401
-0.347226
-0.385925
-0.384563
-0.38104
-0.375657
-0.369003
-0.362174
-0.35659
-0.352261
-0.356929
-0.349203
-0.386065
-0.384453
-0.381095
-0.376004
-0.369759
-0.363404
-0.358312
-0.354467
-0.35904
-0.352973
-0.386677
-0.384796
-0.38159
-0.376842
-0.371097
-0.365345
-0.360864
-0.357763
-0.362021
-0.358394
-0.387619
-0.385478
-0.382433
-0.378066
-0.372894
-0.367849
-0.36409
-0.361891
-0.365968
-0.364949
-0.388758
-0.386401
-0.383533
-0.379578
-0.37503
-0.370761
-0.367807
-0.366584
-0.370741
-0.372098
-0.389972
-0.387475
-0.384807
-0.381288
-0.37739
-0.373931
-0.371824
-0.371589
-0.376052
-0.37942
-0.391161
-0.388623
-0.386182
-0.383111
-0.37987
-0.377217
-0.375956
-0.37667
-0.381571
-0.386606
-0.392243
-0.389777
-0.387594
-0.384975
-0.382375
-0.380492
-0.380034
-0.381618
-0.386998
-0.39341
-0.393157
-0.390885
-0.388987
-0.386817
-0.384824
-0.38365
-0.38392
-0.386262
-0.392089
-0.399621
-0.393864
-0.391909
-0.390321
-0.388586
-0.387153
-0.386609
-0.387508
-0.390473
-0.396665
-0.405066
-0.394352
-0.392826
-0.391568
-0.39025
-0.389322
-0.389319
-0.390734
-0.394171
-0.40061
-0.409604
-0.394629
-0.393635
-0.392721
-0.391797
-0.391316
-0.391763
-0.393577
-0.39733
-0.403876
-0.41313
-0.394731
-0.394353
-0.393794
-0.393238
-0.393149
-0.39396
-0.396059
-0.399973
-0.406466
-0.415599
-0.394719
-0.395021
-0.394815
-0.394612
-0.394864
-0.39596
-0.398238
-0.402169
-0.408373
-0.417149
-0.39468
-0.395698
-0.395846
-0.395975
-0.396528
-0.397846
-0.400212
-0.404023
-0.40975
-0.41791
-0.394716
-0.396462
-0.39696
-0.397405
-0.39823
-0.399722
-0.402103
-0.405679
-0.410774
-0.417952
-0.432373
-0.458933
-0.499926
-0.5348
-0.54093
-0.481514
-0.383738
-0.288932
-0.227101
-0.203331
-0.214216
-0.230792
-0.21754
-0.170178
-0.119637
-0.0990793
-0.0815533
-0.0905734
-0.0978264
-0.092234
-0.0853196
-0.083622
-0.0612426
-0.0531107
-0.0493839
-0.0562414
-0.0583198
-0.0516749
-0.0125923
-0.00444811
-0.428159
-0.448144
-0.481375
-0.509262
-0.512767
-0.456129
-0.366639
-0.280645
-0.226324
-0.209838
-0.22642
-0.245691
-0.229
-0.17724
-0.122398
-0.0984801
-0.0791629
-0.0859925
-0.0912634
-0.0864409
-0.0827786
-0.0823447
-0.0608875
-0.053384
-0.0499421
-0.057141
-0.0582681
-0.051501
-0.0129709
-0.00480149
-0.424002
-0.436728
-0.461257
-0.481427
-0.481881
-0.428328
-0.347588
-0.270731
-0.224214
-0.215417
-0.238097
-0.259744
-0.239496
-0.18362
-0.124881
-0.0977906
-0.0768613
-0.0816078
-0.0849836
-0.0807001
-0.080179
-0.0809742
-0.0605159
-0.0536556
-0.050537
-0.0580504
-0.0581965
-0.0513085
-0.0133801
-0.00519604
-0.420285
-0.425236
-0.440266
-0.451886
-0.448812
-0.398325
-0.326634
-0.259027
-0.220582
-0.219837
-0.249113
-0.272759
-0.248982
-0.189313
-0.127098
-0.0970379
-0.0746693
-0.0774603
-0.0790377
-0.0750594
-0.0775358
-0.0795175
-0.0601299
-0.0539233
-0.0511657
-0.0589623
-0.0581036
-0.0510956
-0.0138173
-0.0056282
-0.417321
-0.414188
-0.419114
-0.421298
-0.413877
-0.366325
-0.303759
-0.245385
-0.215262
-0.222892
-0.259302
-0.284567
-0.25742
-0.194321
-0.129062
-0.0962467
-0.0726017
-0.0735813
-0.0734673
-0.069569
-0.0748656
-0.0779827
-0.0597317
-0.0541848
-0.0518252
-0.0598695
-0.057988
-0.0508601
-0.0142792
-0.00609383
-0.415314
-0.40399
-0.39845
-0.390443
-0.377708
-0.332848
-0.278937
-0.229694
-0.208113
-0.224403
-0.268466
-0.295032
-0.26478
-0.198652
-0.130785
-0.0954392
-0.0706674
-0.0699913
-0.0683048
-0.0642799
-0.0721867
-0.0763786
-0.059323
-0.0544376
-0.0525123
-0.0607645
-0.0578484
-0.0505996
-0.0147625
-0.00658828
-0.41437
-0.394975
-0.3789
-0.360097
-0.341381
-0.298386
-0.252206
-0.211913
-0.199024
-0.224225
-0.276383
-0.304037
-0.271044
-0.202317
-0.132282
-0.0946349
-0.0688711
-0.0667
-0.0635735
-0.0592399
-0.0695195
-0.0747147
-0.0589053
-0.0546793
-0.0532235
-0.06164
-0.0576832
-0.0503119
-0.0152631
-0.00710637
-0.414493
-0.38737
-0.361011
-0.330987
-0.305649
-0.263442
-0.223682
-0.192076
-0.18792
-0.222255
-0.282818
-0.311504
-0.276209
-0.205334
-0.133565
-0.0938507
-0.0672134
-0.0637066
-0.0592877
-0.0545033
-0.0668866
-0.0730009
-0.05848
-0.0549071
-0.053955
-0.0624887
-0.057491
-0.0499944
-0.0157765
-0.00764243
-0.415577
-0.381277
-0.345206
-0.30378
-0.271135
-0.229029
-0.193388
-0.170301
-0.174791
-0.218441
-0.287561
-0.317519
-0.280276
-0.20772
-0.134644
-0.0931006
-0.0656922
-0.061001
-0.0554522
-0.0501083
-0.0643119
-0.0712477
-0.0580482
-0.0551183
-0.0547023
-0.0633034
-0.0572704
-0.049645
-0.0162981
-0.00819038
-0.41744
-0.376664
-0.331763
-0.27907
-0.238464
-0.195319
-0.16237
-0.146802
-0.159715
-0.212781
-0.290435
-0.32208
-0.283249
-0.209499
-0.13553
-0.0923959
-0.0643031
-0.0585652
-0.0520631
-0.0460846
-0.0618206
-0.0694652
-0.0576108
-0.0553104
-0.0554612
-0.0640772
-0.0570201
-0.0492613
-0.0168226
-0.0087438
-0.419886
-0.373396
-0.320798
-0.257342
-0.208214
-0.162062
-0.131464
-0.1219
-0.142874
-0.205331
-0.291314
-0.3248
-0.285132
-0.210691
-0.136231
-0.0917457
-0.0630406
-0.0563759
-0.0491079
-0.0424532
-0.0594376
-0.0676633
-0.0571687
-0.0554806
-0.0562266
-0.0648034
-0.0567388
-0.0488413
-0.0173446
-0.0092961
-0.422705
-0.371183
-0.312287
-0.23893
-0.181005
-0.140164
-0.10159
-0.0960802
-0.124562
-0.196196
-0.29014
-0.325773
-0.285937
-0.211325
-0.136758
-0.0911598
-0.0618999
-0.0544071
-0.0465655
-0.0392227
-0.057188
-0.0658512
-0.0567225
-0.0556264
-0.0569934
-0.0654756
-0.0564251
-0.0483833
-0.0178589
-0.00984059
-0.425039
-0.369506
-0.306202
-0.224032
-0.157186
-0.109414
-0.0734482
-0.0699724
-0.105171
-0.185534
-0.286917
-0.325019
-0.285686
-0.211431
-0.137124
-0.0906474
-0.0608767
-0.0526318
-0.0444065
-0.0363919
-0.0550961
-0.0640368
-0.0562726
-0.0557453
-0.0577564
-0.0660876
-0.056078
-0.0478855
-0.0183597
-0.0103708
-0.426048
-0.368525
-0.302439
-0.212715
-0.137558
-0.083566
-0.047864
-0.0443849
-0.0851758
-0.173542
-0.281709
-0.322579
-0.284404
-0.211032
-0.137331
-0.0902047
-0.0599609
-0.0510215
-0.0425897
-0.0339522
-0.0531834
-0.0622264
-0.0558193
-0.0558347
-0.0585101
-0.0666337
-0.0556965
-0.0473466
-0.0188409
-0.0108804
-0.426387
-0.369158
-0.298929
-0.204755
-0.122336
-0.0625878
-0.025596
-0.0202385
-0.0651057
-0.160454
-0.274639
-0.318514
-0.282116
-0.210131
-0.13735
-0.0897983
-0.0591293
-0.0495472
-0.0410611
-0.0318825
-0.051467
-0.0604243
-0.0553626
-0.0558923
-0.059249
-0.0671103
-0.0552801
-0.0467661
-0.0192961
-0.0113636
-0.425939
-0.369426
-0.297202
-0.200055
-0.111145
-0.0473162
-0.00645812
0.00159827
-0.0455045
-0.146524
-0.265878
-0.312933
-0.278868
-0.208724
-0.137153
-0.0894067
-0.0583687
-0.0481924
-0.0397747
-0.0301547
-0.0499535
-0.0586318
-0.0549022
-0.0559155
-0.0599679
-0.0675151
-0.0548281
-0.0461441
-0.0197218
-0.0118149
-0.424582
-0.369193
-0.296374
-0.198376
-0.104848
-0.035906
0.00817816
0.0204102
-0.0268929
-0.132018
-0.25564
-0.305993
-0.274769
-0.206958
-0.136904
-0.0891694
-0.0577514
-0.0469776
-0.0387361
-0.0287688
-0.0486456
-0.0568455
-0.0544376
-0.0559019
-0.0606604
-0.0678339
-0.0543358
-0.045479
-0.0201225
-0.0122308
-0.422328
-0.368563
-0.29641
-0.199248
-0.102702
-0.0293199
0.0183102
0.0356515
-0.00971029
-0.117202
-0.244125
-0.297537
-0.269868
-0.20518
-0.136988
-0.0893839
-0.0574261
-0.0459351
-0.0379655
-0.0277796
-0.0476198
-0.0550612
-0.0539674
-0.0558474
-0.0613097
-0.0680209
-0.0537957
-0.0447673
-0.0205044
-0.0126091
-0.419952
-0.36821
-0.298082
-0.203512
-0.10547
-0.0279616
0.02429
0.046786
0.00571321
-0.102139
-0.231052
-0.286898
-0.263807
-0.203116
-0.137076
-0.0897177
-0.0571967
-0.0449438
-0.037233
-0.0271086
-0.0470333
-0.0532921
-0.0534935
-0.0557458
-0.061895
-0.0680717
-0.0532215
-0.0440156
-0.0208354
-0.0129387
-0.415707
-0.365
-0.297063
-0.206207
-0.108628
-0.0291784
0.019937
0.0541422
0.017846
-0.0878453
-0.217617
-0.276416
-0.256224
-0.198532
-0.134699
-0.0881615
-0.0559759
-0.0436094
-0.0358529
-0.0261508
-0.0461734
-0.051402
-0.0530131
-0.0556439
-0.0625986
-0.0683099
-0.0526854
-0.0432578
-0.0210013
-0.013187
-0.398101
-0.353111
-0.285327
-0.196498
-0.10022
-0.0206864
0.0341643
0.0634341
0.0298412
-0.078058
-0.212256
-0.271357
-0.247996
-0.190364
-0.128715
-0.0837158
-0.0531063
-0.0416918
-0.033338
-0.0238667
-0.0414179
-0.0476263
-0.0521702
-0.0559798
-0.0643613
-0.069518
-0.0521196
-0.0423791
-0.0209567
-0.0134315
-0.374503
-0.331685
-0.265581
-0.182732
-0.0926348
-0.0175413
0.0332764
0.0621577
0.0312299
-0.0716125
-0.199757
-0.254957
-0.231535
-0.177559
-0.120634
-0.0788532
-0.050354
-0.0391973
-0.0310018
-0.0237119
-0.0405154
-0.0460502
-0.0515072
-0.0558892
-0.0648086
-0.0700065
-0.0506292
-0.0409116
-0.0209576
-0.0140844
-0.350485
-0.309627
-0.246528
-0.170707
-0.0881453
-0.0182004
0.0292909
0.0550095
0.0254063
-0.0693167
-0.186
-0.236134
-0.213782
-0.164459
-0.11255
-0.0739436
-0.0474677
-0.0366521
-0.0287748
-0.0237865
-0.0396428
-0.0454719
-0.050931
-0.0554989
-0.0646688
-0.070063
-0.0489033
-0.0392161
-0.020917
-0.014798
-0.32657
-0.288183
-0.229054
-0.16065
-0.0863133
-0.0219855
0.0215854
0.0443786
0.0171976
-0.0676032
-0.171014
-0.215584
-0.195162
-0.150881
-0.104157
-0.0688582
-0.0444631
-0.034017
-0.0265802
-0.0238833
-0.0386689
-0.0448171
-0.0502845
-0.0550492
-0.0644855
-0.0697852
-0.0469896
-0.037219
-0.0208022
-0.0154938
-0.302512
-0.267499
-0.213081
-0.152024
-0.0861736
-0.0287232
0.0114566
0.031657
0.00808018
-0.065338
-0.15459
-0.193598
-0.176041
-0.137164
-0.0956484
-0.063651
-0.041337
-0.0312737
-0.0243327
-0.0239791
-0.0377408
-0.0440058
-0.0496014
-0.0546215
-0.0641938
-0.0690718
-0.0448334
-0.034908
-0.0205721
-0.0161661
-0.278609
-0.247707
-0.198472
-0.144406
-0.08679
-0.0355587
0.000447937
0.0182895
-0.00103844
-0.0623578
-0.137306
-0.171104
-0.157058
-0.12364
-0.0871439
-0.0583562
-0.0380835
-0.0284005
-0.0219687
-0.0239916
-0.036854
-0.0431894
-0.0489014
-0.0541399
-0.0636185
-0.0678372
-0.0424032
-0.0322604
-0.0201819
-0.0167981
-0.255482
-0.228879
-0.185044
-0.137477
-0.087545
-0.0423821
-0.010343
0.00547881
-0.00938308
-0.058861
-0.120076
-0.149212
-0.138807
-0.110589
-0.0787669
-0.053016
-0.0346975
-0.0253762
-0.0194134
-0.0238048
-0.0359241
-0.0424031
-0.0481028
-0.0534964
-0.0626615
-0.0660094
-0.0396696
-0.0292587
-0.0195826
-0.0173565
-0.233469
-0.211006
-0.172585
-0.13099
-0.0880267
-0.0486021
-0.020213
-0.00602365
-0.016585
-0.0552767
-0.104235
-0.128893
-0.121751
-0.0982191
-0.0706165
-0.0476671
-0.0311725
-0.0221777
-0.0165826
-0.0232781
-0.0348036
-0.0415388
-0.0470582
-0.0526138
-0.0612414
-0.0635126
-0.0366031
-0.0258868
-0.0187196
-0.0177977
-0.212721
-0.19431
-0.160916
-0.124761
-0.087978
-0.053854
-0.0287734
-0.0158794
-0.0226404
-0.0519944
-0.0903075
-0.110756
-0.106169
-0.0866595
-0.0627672
-0.0423447
-0.0275025
-0.0187814
-0.0133827
-0.0222311
-0.0332718
-0.0403885
-0.0455946
-0.0514145
-0.0592517
-0.0602715
-0.0331771
-0.0221334
-0.0175334
-0.0180706
-0.193289
-0.178334
-0.149881
-0.118665
-0.087295
-0.0579605
-0.0358758
-0.0240385
-0.0276578
-0.0492109
-0.0785384
-0.0950081
-0.0921632
-0.0759714
-0.0552719
-0.0370825
-0.0236843
-0.0151631
-0.00972096
-0.020423
-0.0310105
-0.0386566
-0.0435077
-0.0497835
-0.0565712
-0.0562216
-0.0293716
-0.0179943
-0.0159612
-0.0181156
-0.175193
-0.163271
-0.139327
-0.112619
-0.0859618
-0.0608887
-0.0415149
-0.0305806
-0.0317206
-0.0469133
-0.068785
-0.0815612
-0.0797146
-0.0661703
-0.0481664
-0.0319148
-0.0197213
-0.0113001
-0.00552238
-0.0175485
-0.0275766
-0.0359352
-0.0405515
-0.0475677
-0.0530862
-0.0513183
-0.0251763
-0.0134745
-0.0139399
-0.0178657
-0.158396
-0.149093
-0.129206
-0.106567
-0.0840046
-0.0626821
-0.0457534
-0.0356291
-0.0348765
-0.0449836
-0.0607578
-0.0701821
-0.0687346
-0.0572436
-0.0414747
-0.0268764
-0.015627
-0.00718192
-0.000745901
-0.0132708
-0.0224065
-0.0316733
-0.0364641
-0.0445925
-0.0487081
-0.0455498
-0.0205958
-0.00859184
-0.0114105
-0.0172482
-0.142848
-0.135776
-0.119477
-0.100476
-0.0814738
-0.0634237
-0.0486909
-0.0393202
-0.0371666
-0.043389
-0.0541416
-0.060588
-0.0591007
-0.0491623
-0.0352131
-0.0220031
-0.0114277
-0.00282573
0.00459925
-0.00727307
-0.0149062
-0.0251931
-0.031031
-0.0406865
-0.0433909
-0.0389477
-0.0156547
-0.00338105
-0.00832469
-0.0161887
-0.128492
-0.123293
-0.110121
-0.0943446
-0.0784339
-0.0632197
-0.050448
-0.0417957
-0.0386357
-0.0417906
-0.0486232
-0.0524981
-0.0506802
-0.0418876
-0.0293921
-0.0173307
-0.00716836
0.00171355
0.0104205
0.000671126
-0.00455823
-0.0157996
-0.02417
-0.0357179
-0.0371478
-0.0315972
-0.0104026
0.00209936
-0.00465465
-0.0146183
-0.115267
-0.111621
-0.101139
-0.0881912
-0.0749581
-0.0621892
-0.0511585
-0.0432019
-0.0393599
-0.0401868
-0.0439461
-0.0456585
-0.0433412
-0.0353731
-0.0240177
-0.0128917
-0.0029211
0.00634575
0.0165102
0.0105143
0.00887744
-0.00302703
-0.0160249
-0.0296426
-0.029944
-0.0236514
-0.00491679
0.00775964
-0.000407158
-0.0124831
-0.103116
-0.100738
-0.0925419
-0.0820483
-0.0711262
-0.0604582
-0.0509645
-0.0436863
-0.0394208
-0.038525
-0.0399095
-0.0398495
-0.0369583
-0.0295658
-0.0190933
-0.00871053
0.00121491
0.0109515
0.0225609
0.0216595
0.024923
0.0129255
-0.00703265
-0.0225426
-0.022162
-0.0153363
0.000697037
0.0134806
0.00435725
-0.00975914
-0.0919802
-0.0906228
-0.0843462
-0.0759597
-0.0670233
-0.0581534
-0.0500108
-0.0433944
-0.0389092
-0.0367756
-0.0363594
-0.0348849
-0.0314151
-0.0244083
-0.0146204
-0.00480474
0.00513426
0.0153818
0.0282317
0.0328325
0.0415041
0.030523
0.00223457
-0.0145719
-0.0140025
-0.00693487
0.00630635
0.0191228
0.00950946
-0.00647262
-0.0818071
-0.0812564
-0.0765731
-0.0699759
-0.0627363
-0.0554008
-0.048439
-0.042461
-0.0379147
-0.0349296
-0.0331804
-0.0306089
-0.0266052
-0.0198419
-0.0105973
-0.00119336
0.00874735
0.019466
0.0332073
0.0424747
0.0554058
0.0468408
0.0114715
-0.00591999
-0.00576862
0.00123247
0.0117585
0.0245248
0.0148431
-0.0027203
-0.0725455
-0.0726199
-0.0692444
-0.0641506
-0.0583515
-0.052322
-0.046392
-0.041005
-0.0365236
-0.0329935
-0.0302893
-0.0268941
-0.022433
-0.0158119
-0.00701655
0.00209741
0.0119816
0.023033
0.0372084
0.0495172
0.0645054
0.0591464
0.020663
0.0030752
0.00218288
0.00885312
0.0168823
0.0294878
0.0200665
0.00131346
-0.0641484
-0.064696
-0.0623815
-0.0585376
-0.0539535
-0.0490315
-0.0439986
-0.0391741
-0.0348318
-0.030988
-0.0276282
-0.0236388
-0.0188143
-0.0122703
-0.00386356
0.00503557
0.0147826
0.0259464
0.0400514
0.0536122
0.0682895
0.0663241
0.0294507
0.0118141
0.00950644
0.0156711
0.0215087
0.0337699
0.0248109
0.0053477
-0.0565729
-0.0574688
-0.0560048
-0.0531894
-0.0496221
-0.0456342
-0.0413754
-0.0370754
-0.0329307
-0.0289429
-0.0251607
-0.0207656
-0.0156761
-0.00917648
-0.00111718
0.00759272
0.0171237
0.0281534
0.0417435
0.0551903
0.0683541
0.0689803
0.0369962
0.0196464
0.0159401
0.0215192
0.025524
0.0371196
0.028683
0.0090232
-0.0497809
-0.0509243
-0.0501338
-0.0481558
-0.0454322
-0.0422274
-0.0386334
-0.0348131
-0.0309029
-0.0268937
-0.0228672
-0.0182181
-0.0129567
-0.00649589
0.00124795
0.00975621
0.0190068
0.0296849
0.0424368
0.0550245
0.066393
0.0684821
0.0426177
0.026185
0.0213799
0.0263282
0.0288757
0.0393562
0.0313636
0.0119812
-0.0437403
-0.0450515
-0.0447873
-0.0434837
-0.0414535
-0.0389
-0.0358706
-0.0324845
-0.0288267
-0.0248806
-0.0207416
-0.0159578
-0.0106058
-0.00419719
0.00325838
0.0115354
0.0204595
0.0306268
0.0423607
0.0536137
0.0634892
0.06616
0.0462268
0.0313445
0.0258731
0.0301101
0.0315587
0.0404003
0.0327106
0.0139735
-0.0384255
-0.0398431
-0.0399843
-0.0392176
-0.0377512
-0.0357349
-0.0331846
-0.0301802
-0.026776
-0.0229469
-0.0187885
-0.0139611
-0.00858392
-0.00225052
0.00494154
0.0129579
0.0215269