/*--------------------------------*- C++ -*----------------------------------*\
  =========                 |
  \\      /  F ield         | OpenFOAM: The Open Source CFD Toolbox
   \\    /   O peration     | Website:  https://openfoam.org
    \\  /    A nd           | Version:  7
     \\/     M anipulation  |
\*---------------------------------------------------------------------------*/
FoamFile
{
    version     2.0;
    format      ascii;
    class       surfaceScalarField;
    location    "315";
    object      phi;
}
// * * * * * * * * * * * * * * * * * * * * * * * * * * * * * * * * * * * * * //

dimensions      [0 3 -1 0 0 0 0];

internalField   nonuniform List<scalar> 
16735
(
-0.000102714
-0.00110415
0.00120686
-0.000371949
-0.00333553
0.00360477
-0.00079498
-0.0055835
0.00600653
-0.00135293
-0.00770213
0.00826008
-0.00201604
-0.00969736
0.0103605
-0.00274731
-0.0117035
0.0124347
-0.00351123
-0.0138942
0.0146581
-0.00428283
-0.0163939
0.0171655
-0.00504975
-0.019232
0.0199989
-0.0223323
0.02309
-0.00580745
-0.000132005
-0.000972144
-0.000466411
-0.00300113
-0.000978061
-0.00507185
-0.00163975
-0.00704044
-0.00241864
-0.00891848
-0.00327989
-0.0108422
-0.00419454
-0.0129796
-0.00514782
-0.0154406
-0.00614117
-0.0182386
-0.0212827
-0.00719078
-0.000158405
-0.000813739
-0.000550488
-0.00260904
-0.00113899
-0.00448335
-0.00188875
-0.00629068
-0.00276389
-0.00804334
-0.00373087
-0.00987523
-0.00476479
-0.0119456
-0.00585714
-0.0143482
-0.00701917
-0.0170766
-0.0200187
-0.00828314
-0.000180609
-0.00063313
-0.000620535
-0.00216912
-0.00127152
-0.00383236
-0.00209114
-0.00547106
-0.00304048
-0.007094
-0.00408611
-0.0088296
-0.00520422
-0.0108275
-0.00638778
-0.0131647
-0.00765262
-0.0158118
-0.0186303
-0.00904098
-0.000197462
-0.000435668
-0.000673375
-0.00169321
-0.00137027
-0.00313546
-0.00223936
-0.00460196
-0.00323869
-0.00609468
-0.00433357
-0.00773471
-0.00549812
-0.00966298
-0.00672147
-0.0119413
-0.00801762
-0.0145156
-0.0172175
-0.00943043
-0.000208024
-0.000227645
-0.000706441
-0.00119479
-0.00143085
-0.00241105
-0.00232719
-0.00370563
-0.00335034
-0.00507152
-0.00446311
-0.00662195
-0.0056344
-0.00849169
-0.00684401
-0.0107317
-0.00809689
-0.0132627
-0.0158874
-0.00942698
-0.00021163
-1.60141e-05
-0.000717897
-0.000688521
-0.00145006
-0.00167888
-0.00234985
-0.00280585
-0.00336891
-0.00405246
-0.0044663
-0.00552456
-0.00560309
-0.00735489
-0.00674437
-0.00959045
-0.00787872
-0.0121284
-0.0147521
-0.00901405
-0.000207957
0.000191943
-0.00070678
-0.000189698
-0.00142606
-0.000959608
-0.00230429
-0.00192762
-0.00328965
-0.0030671
-0.00433643
-0.00447778
-0.00539589
-0.00629543
-0.00641377
-0.00857257
-0.00735575
-0.0111864
-0.0139247
-0.00818317
-0.00019706
0.000389003
-0.000673123
0.000286365
-0.00135857
-0.000274164
-0.00218946
-0.00109672
-0.00311006
-0.0021465
-0.00406889
-0.00351894
-0.00500628
-0.00535804
-0.00584519
-0.00773366
-0.00652377
-0.0105078
-0.013513
-0.00693545
-0.000179417
0.00056842
-0.000618071
0.000725019
-0.00124916
0.000356929
-0.00200679
-0.000339096
-0.00283053
-0.00132277
-0.00366202
-0.00268745
-0.00443025
-0.00458982
-0.00503401
-0.0071299
-0.00538111
-0.0101607
-0.01361
-0.00528408
-0.000155944
0.000724364
-0.000543912
0.00111299
-0.00110142
0.000914438
-0.00176057
0.00032005
-0.00245519
-0.000628145
-0.00311845
-0.00202419
-0.00366786
-0.0040404
-0.00397903
-0.00681873
-0.00392863
-0.0102111
-0.0142792
-0.00325947
-0.000127951
0.000852315
-0.000454105
0.00143914
-0.000920921
0.00138125
-0.00145832
0.000857451
-0.00199267
-9.37935e-05
-0.0024467
-0.00157016
-0.00272589
-0.00376122
-0.00268323
-0.00686138
-0.00216056
-0.0107338
-0.0155015
-0.000938271
-9.70686e-05
0.000949384
-0.000353045
0.00169512
-0.000715204
0.00174341
-0.00111053
0.00125278
-0.00145643
0.000252106
-0.00166248
-0.00136411
-0.00162211
-0.00380159
-0.00117044
-0.00731305
6.57709e-05
-0.01197
-0.0172323
0.00179654
-6.51128e-05
0.0010145
-0.000245767
0.00187577
-0.000493091
0.00199074
-0.000730112
0.0014898
-0.000864033
0.000386027
-0.00078771
-0.00144043
-0.000379613
-0.00420969
0.000498585
-0.00819125
0.002242
-0.0137134
-0.019855
0.00486476
-3.39105e-05
0.00104841
-0.000137466
0.00197933
-0.000263921
0.00211719
-0.0003312
0.00155708
-0.000234905
0.000289732
0.000147444
-0.00182278
0.000969535
-0.00503178
0.00239015
-0.00961186
0.00473692
-0.0160602
-0.0231943
0.00807618
-5.13345e-06
0.00105354
-3.28837e-05
0.00200708
-3.64971e-05
0.00212081
7.20898e-05
0.00144849
0.000413224
-5.14024e-05
0.00113068
-0.00254023
0.00238959
-0.0062907
0.00436368
-0.011586
0.00737181
-0.0190683
-0.0271394
0.0113169
2.01735e-05
0.00103337
6.42078e-05
0.00196304
0.000182592
0.00200242
0.000471943
0.00115914
0.00106554
-0.000645
0.00212901
-0.00360369
0.00385047
-0.00801216
0.00640302
-0.0141385
0.0100514
-0.0227167
-0.0315425
0.0144545
4.1047e-05
0.00099232
0.00015162
0.00185247
0.000388926
0.00176512
0.000859704
0.00068836
0.0017138
-0.00149909
0.00313733
-0.00502723
0.00533496
-0.0102098
0.00848035
-0.0172839
0.0126863
-0.0269227
-0.0362279
0.0173717
5.75839e-05
0.000934736
0.000228938
0.00168111
0.00058188
0.00141218
0.00123607
3.41734e-05
0.00235941
-0.00262244
0.00415745
-0.00682526
0.00683961
-0.0128919
0.0105701
-0.0210144
0.0151926
-0.0315452
-0.0410173
0.019982
7.03517e-05
0.000864384
0.000297715
0.00145375
0.00076442
0.000945471
0.00160649
-0.000807898
0.00301078
-0.00402673
0.00519888
-0.00901337
0.00836709
-0.0160602
0.0126305
-0.0252778
0.0175089
-0.0364236
-0.0457694
0.022261
8.05111e-05
0.000783873
0.00036121
0.00117305
0.000942843
0.000363839
0.00198059
-0.00184564
0.00368083
-0.00572697
0.00627205
-0.0116046
0.00991177
-0.0196999
0.0145917
-0.0299576
0.0196468
-0.0414788
-0.0521744
0.0260518
8.96231e-05
0.00069425
0.000423898
0.000838777
0.00112532
-0.000337586
0.00237061
-0.00309093
0.00438283
-0.00773918
0.00738069
-0.0146025
0.0114489
-0.0237681
0.016402
-0.0349107
0.0216536
-0.0467304
-0.0579237
0.0274029
9.94373e-05
0.000594813
0.000490789
0.000447425
0.00132079
-0.00116759
0.00278835
-0.00455849
0.00512572
-0.0100766
0.008516
-0.0179927
0.0129309
-0.028183
0.0180057
-0.0399854
0.0231687
-0.0518934
-0.0629414
0.0281864
0.000111645
0.000483168
0.000566702
-7.63225e-06
0.0015373
-0.00213818
0.00324239
-0.00626358
0.00590981
-0.012744
0.00965365
-0.0217366
0.0142992
-0.0328285
0.0193345
-0.0450207
0.0241889
-0.0567478
-0.0673504
0.0285978
0.000127635
0.000355534
0.000655637
-0.000535635
0.00178055
-0.00326309
0.00373576
-0.0082188
0.00672404
-0.0157323
0.0107547
-0.0257672
0.0154936
-0.0375675
0.020336
-0.0498631
0.0247718
-0.0611836
-0.0711648
0.0285863
0.000148481
0.000207053
0.000759955
-0.00114711
0.0020529
-0.00455603
0.0042645
-0.0104304
0.00754584
-0.0190136
0.0117714
-0.0299927
0.0164631
-0.0422592
0.0209923
-0.0543923
0.0249478
-0.0651391
-0.0744291
0.028212
0.000174658
3.23948e-05
0.000880586
-0.00185304
0.0023529
-0.00602835
0.00481741
-0.0128949
0.0083437
-0.0225399
0.0126562
-0.0343052
0.017174
-0.046777
0.0213086
-0.0585269
0.0247719
-0.0686024
-0.0772045
0.0275473
0.000206195
-0.0001738
0.00101673
-0.00266357
0.00267542
-0.00768704
0.00537709
-0.0155966
0.00908194
-0.0262447
0.0133699
-0.0385932
0.0176134
-0.0510204
0.0213109
-0.0622245
0.0243004
-0.0715919
-0.0795539
0.0266498
0.000242728
-0.000416528
0.00116614
-0.00358699
0.00301216
-0.00953306
0.00592191
-0.0185063
0.00972622
-0.030049
0.013887
-0.042754
0.0177862
-0.0549197
0.0210361
-0.0654744
0.0235888
-0.0741446
-0.0815406
0.0255755
0.000283595
-0.000700123
0.00132546
-0.00462885
0.00335247
-0.0115601
0.00642858
-0.0215824
0.0102482
-0.0338687
0.0141964
-0.0467022
0.0177114
-0.0584346
0.0205262
-0.0682892
0.0226877
-0.0763062
-0.0832203
0.0243675
0.000327935
-0.00102806
0.0014905
-0.00579141
0.00368424
-0.0137538
0.00687489
-0.0247731
0.0106285
-0.0376223
0.0143005
-0.0503742
0.017416
-0.0615501
0.0198231
-0.0706963
0.0216408
-0.0781239
-0.0846406
0.0230611
0.000374757
-0.00140282
0.00165653
-0.00707318
0.00399487
-0.0160922
0.00724199
-0.0280202
0.0108576
-0.041238
0.0142114
-0.053728
0.0169309
-0.0642696
0.0189655
-0.0727309
0.0204842
-0.0796426
-0.0858394
0.021683
0.000422981
-0.0018258
0.0018185
-0.0084687
0.00427225
-0.0185459
0.00751599
-0.0312639
0.0109348
-0.0446568
0.0139477
-0.0567409
0.0162878
-0.0666096
0.0179877
-0.0744308
0.0192468
-0.0809016
-0.086846
0.0202533
0.000471458
-0.00229725
0.00197128
-0.00996852
0.00450564
-0.0210803
0.00768866
-0.0344469
0.0108665
-0.0478347
0.0135314
-0.0594057
0.0155162
-0.0685945
0.0169185
-0.0758331
0.0179513
-0.0819344
-0.087682
0.0187873
0.000518984
-0.00281624
0.00210983
-0.0115594
0.00468639
-0.0236568
0.00775724
-0.0375178
0.0106641
-0.0507416
0.0129854
-0.061727
0.0146432
-0.0702522
0.0157818
-0.0769717
0.0166152
-0.0827677
-0.0883629
0.017296
0.000564326
-0.00338056
0.00222946
-0.0132245
0.00480842
-0.0262358
0.00772373
-0.0404331
0.010342
-0.0533598
0.0123321
-0.0637172
0.013692
-0.0716121
0.0145967
-0.0778765
0.0152517
-0.0834227
-0.0888992
0.015788
0.00060625
-0.00398681
0.00232611
-0.0149444
0.00486843
-0.0287781
0.00759379
-0.0431585
0.00991602
-0.0556821
0.0115925
-0.0653936
0.0126824
-0.072702
0.0133785
-0.0785726
0.013871
-0.0839152
-0.0892977
0.0142695
0.000643568
-0.00463038
0.00239651
-0.0166973
0.00486575
-0.0312473
0.00737563
-0.0456684
0.00940224
-0.0577087
0.010785
-0.0667764
0.0116308
-0.0735477
0.0121389
-0.0790807
0.0124806
-0.0842569
-0.0895628
0.0127457
0.000675186
-0.00530557
0.00243835
-0.0184605
0.00480203
-0.033611
0.00707898
-0.0479453
0.00881611
-0.0594458
0.00992612
-0.0678864
0.0105507
-0.0741724
0.0108873
-0.0794172
0.0110865
-0.0844561
-0.0896971
0.0112208
0.000700143
-0.00600571
0.00245034
-0.0202107
0.00468076
-0.0358415
0.00671429
-0.0499788
0.00817194
-0.0609034
0.00902969
-0.0687442
0.00945294
-0.0745956
0.00963082
-0.0795951
0.00969338
-0.0845187
-0.0897023
0.00969858
0.000717652
-0.00672336
0.00243221
-0.0219252
0.00450673
-0.037916
0.00629204
-0.0517642
0.00748264
-0.062094
0.00810745
-0.069369
0.00834606
-0.0748342
0.0083751
-0.0796242
0.0083048
-0.0844484
-0.0895792
0.00818168
0.000727121
-0.00745048
0.00238457
-0.0235827
0.00428556
-0.039817
0.00582236
-0.053301
0.00675959
-0.0630313
0.00716915
-0.0697785
0.00723694
-0.074902
0.00712446
-0.0795117
0.00692381
-0.0842477
-0.0893273
0.00667188
0.000728168
-0.00817865
0.00230884
-0.0251633
0.00402329
-0.0415314
0.00531471
-0.0545924
0.00601267
-0.0637292
0.00622281
-0.0699887
0.00613099
-0.0748102
0.00588218
-0.0792629
0.00555273
-0.0839183
-0.0889458
0.00517124
0.000720618
-0.00889927
0.002207
-0.0266497
0.00372603
-0.0430504
0.00477769
-0.055644
0.00525035
-0.0642019
0.00527506
-0.0700134
0.00503269
-0.0745678
0.00465099
-0.0788812
0.00419306
-0.0834604
-0.0884336
0.0036809
0.000704499
-0.00960377
0.00208144
-0.0280267
0.00339975
-0.0443687
0.00421899
-0.0564633
0.00447978
-0.0644627
0.00433131
-0.0698649
0.00394593
-0.0741824
0.00343418
-0.0783694
0.00284605
-0.0828722
-0.0877862
0.0021986
0.000680041
-0.0102838
0.0019349
-0.0292815
0.0030501
-0.0454839
0.0036454
-0.0570586
0.00370695
-0.0645242
0.00339582
-0.0695538
0.0028738
-0.0736604
0.0022361
-0.0777317
0.00151547
-0.0821516
-0.0869839
0.000713133
0.00064767
-0.0109315
0.00177044
-0.0304043
0.00268236
-0.0463959
0.00306283
-0.057439
0.00293684
-0.0643983
0.00247203
-0.069089
0.00181803
-0.0730064
0.00105808
-0.0769718
0.000221481
-0.081315
-0.0860313
-0.000731114
0.000607955
-0.0115394
0.00159094
-0.0313873
0.00230135
-0.0471063
0.00247638
-0.0576141
0.00217361
-0.0640955
0.00156298
-0.0684783
0.000780296
-0.0722237
-0.000112787
-0.0760787
-0.00107614
-0.0803516
-0.0849807
-0.00212671
0.000561578
-0.012101
0.00139917
-0.0322249
0.00191142
-0.0476185
0.00189039
-0.057593
0.0014206
-0.0636257
0.000670766
-0.0677285
-0.000237923
-0.071315
-0.00123845
-0.0750782
-0.00234017
-0.0792499
-0.083809
-0.00351189
0.000509319
-0.0126103
0.00119784
-0.0329134
0.00151654
-0.0479372
0.00130842
-0.0573849
0.00068061
-0.0629979
-0.000203571
-0.0668443
-0.00122676
-0.0702918
-0.00235168
-0.0739533
-0.00357569
-0.0780259
-0.0825087
-0.00487593
0.000452046
-0.0130624
0.000989568
-0.0334509
0.00112015
-0.0480678
0.000733526
-0.0569983
-4.48179e-05
-0.0622195
-0.00105298
-0.0658361
-0.0021959
-0.0691489
-0.00344009
-0.0727091
-0.004785
-0.076681
-0.0810804
-0.00621333
0.000390679
-0.0134531
0.000777067
-0.0338373
0.000724982
-0.0480157
0.000171229
-0.0564445
-0.000750433
-0.0612979
-0.00188287
-0.0647037
-0.00314125
-0.0678905
-0.00450178
-0.0713485
-0.00596706
-0.0752157
-0.0795258
-0.00752163
0.000326064
-0.0137791
0.000563066
-0.0340743
0.000334947
-0.0477876
-0.000383388
-0.0557262
-0.00143959
-0.0602417
-0.00269053
-0.0634528
-0.00406145
-0.0665196
-0.00553581
-0.0698742
-0.00712012
-0.0736314
-0.0778473
-0.0087986
0.000259174
-0.0140383
0.000349218
-0.0341644
-3.34559e-05
-0.0474049
-0.000920959
-0.0548387
-0.00210988
-0.0590528
-0.00347517
-0.0620875
-0.00495565
-0.0650391
-0.00654142
-0.0682884
-0.00824273
-0.0719301
-0.0760487
-0.0100413
0.000191252
-0.0142295
0.00013915
-0.0341123
-0.000435137
-0.0468306
-0.00144898
-0.0538249
-0.00275978
-0.057742
-0.00423578
-0.0606115
-0.00582315
-0.0634518
-0.00751794
-0.0665936
-0.00933349
-0.0701145
-0.0741365
-0.0112457
0.000120828
-0.0143504
-6.74737e-05
-0.033924
-0.00080661
-0.0460915
-0.0019615
-0.05267
-0.00338879
-0.0563147
-0.00497158
-0.0590287
-0.00666324
-0.0617601
-0.0084646
-0.0647923
-0.0103911
-0.068188
-0.0721158
-0.0124118
4.51433e-05
-0.0143955
-0.000297981
-0.0335808
-0.00116964
-0.0452198
-0.0024564
-0.0513832
-0.00399622
-0.0547749
-0.00568219
-0.0573427
-0.00747552
-0.0599668
-0.00938086
-0.0628869
-0.0114158
-0.0661531
-0.0699836
-0.013548
-3.04294e-05
-0.0143651
-0.000511365
-0.0330999
-0.00152218
-0.044209
-0.0029332
-0.0499722
-0.00458107
-0.053127
-0.00636721
-0.0555566
-0.00826037
-0.0580736
-0.0102679
-0.0608794
-0.0124068
-0.0640142
-0.0677384
-0.0146519
-0.00010112
-0.014264
-0.000716391
-0.0324846
-0.00186254
-0.0430629
-0.00339156
-0.0484432
-0.0051427
-0.0513758
-0.0070261
-0.0536732
-0.00901844
-0.0560813
-0.0111293
-0.0587686
-0.0133596
-0.0617839
-0.065398
-0.0157
-0.000172647
-0.0140913
-0.00091454
-0.0317427
-0.0021898
-0.0417876
-0.00383084
-0.0468021
-0.00568042
-0.0495263
-0.00765778
-0.0516958
-0.00974758
-0.0539915
-0.0119632
-0.0565529
-0.0143133
-0.0594338
-0.0631153
-0.016596
-0.000242985
-0.0138483
-0.00110584
-0.0308799
-0.00250339
-0.0403901
-0.0042505
-0.045055
-0.00619375
-0.047583
-0.00826117
-0.0496284
-0.0104425
-0.0518101
-0.0127389
-0.0542566
-0.0151114
-0.0570612
-0.0602912
-0.0179355
-0.000311521
-0.0135368
-0.00128988
-0.0299015
-0.00280286
-0.0388771
-0.00465017
-0.0432077
-0.00668254
-0.0455506
-0.00883567
-0.0474753
-0.0110999
-0.0495459
-0.0134708
-0.0518857
-0.015967
-0.0545649
-0.057491
-0.0187673
-0.000377886
-0.0131589
-0.00146615
-0.0288132
-0.00308784
-0.0372554
-0.00502955
-0.041266
-0.00714648
-0.0434337
-0.00938124
-0.0452405
-0.0117267
-0.0472005
-0.0141875
-0.0494249
-0.0167989
-0.0519535
-0.0546717
-0.0196182
-0.000441785
-0.0127171
-0.00163421
-0.0276208
-0.00335797
-0.0355316
-0.00538838
-0.0392356
-0.00758514
-0.041237
-0.00989701
-0.0429286
-0.0123197
-0.0447777
-0.0148635
-0.0468812
-0.0175595
-0.0492574
-0.0518046
-0.0204266
-0.000502957
-0.0122142
-0.00179365
-0.0263301
-0.00361297
-0.0337123
-0.00572647
-0.0371221
-0.00799841
-0.038965
-0.0103833
-0.0405437
-0.0128801
-0.0422809
-0.015502
-0.0442593
-0.0182737
-0.0464857
-0.0488772
-0.0212012
-0.00056117
-0.011653
-0.00194414
-0.0249472
-0.0038526
-0.0318038
-0.00604365
-0.0349311
-0.00838612
-0.0366225
-0.0108398
-0.03809
-0.0134066
-0.0397142
-0.0161008
-0.0415651
-0.0189425
-0.043644
-0.0458843
-0.0219354
-0.000616217
-0.0110368
-0.00208539
-0.023478
-0.00407666
-0.0298126
-0.00633981
-0.0326679
-0.00874816
-0.0342142
-0.0112665
-0.0355717
-0.0138989
-0.0370818
-0.0166602
-0.0388038
-0.0195682
-0.040736
-0.0428255
-0.022627
-0.000667913
-0.0103689
-0.00221717
-0.0219287
-0.00428498
-0.0277447
-0.00661484
-0.0303381
-0.00908445
-0.0317446
-0.011663
-0.0329931
-0.0143567
-0.0343881
-0.0171805
-0.03598
-0.0201511
-0.0377654
-0.0397025
-0.0232741
-0.000716097
-0.00965279
-0.00233927
-0.0203056
-0.00447744
-0.0256066
-0.00686868
-0.0279468
-0.00939491
-0.0292184
-0.0120294
-0.0303586
-0.0147798
-0.0316377
-0.0176615
-0.0330983
-0.0206907
-0.0347361
-0.0365184
-0.0238748
-0.00076063
-0.00889216
-0.00245152
-0.0186147
-0.00465391
-0.0234042
-0.00710127
-0.0254994
-0.00967945
-0.0266402
-0.0123653
-0.0276728
-0.0151679
-0.0288351
-0.018103
-0.0301633
-0.0211868
-0.0316523
-0.0332773
-0.024428
-0.000801388
-0.00809077
-0.00255379
-0.0168623
-0.00481433
-0.0211436
-0.00731256
-0.0230012
-0.00993801
-0.0240147
-0.0126707
-0.0249401
-0.015521
-0.0259848
-0.0185049
-0.0271794
-0.0216386
-0.0285186
-0.0299835
-0.0249324
-0.000838268
-0.0072525
-0.00264596
-0.0150546
-0.00495863
-0.018831
-0.00750251
-0.0204573
-0.0101705
-0.0213467
-0.0129455
-0.0221651
-0.0158388
-0.0230915
-0.0188668
-0.0241515
-0.0220458
-0.0253395
-0.026642
-0.0253873
-0.000871178
-0.00638132
-0.00272793
-0.0131978
-0.00508674
-0.0164722
-0.0076711
-0.017873
-0.010377
-0.0186409
-0.0131896
-0.0193524
-0.0161212
-0.0201599
-0.0191885
-0.0210842
-0.0224079
-0.0221201
-0.023258
-0.0257919
-0.000900043
-0.00548128
-0.00279961
-0.0112983
-0.00519864
-0.0140731
-0.0078183
-0.0152533
-0.0105572
-0.0159019
-0.0134028
-0.0165068
-0.016368
-0.0171947
-0.0194697
-0.0179825
-0.0227245
-0.0188654
-0.0198367
-0.0261457
-0.000924797
-0.00455648
-0.00286094
-0.00936213
-0.00529428
-0.0116398
-0.00794409
-0.0126035
-0.0107113
-0.0131347
-0.0135852
-0.013633
-0.0165791
-0.0142007
-0.0197103
-0.0148513
-0.0229953
-0.0155804
-0.0163836
-0.0264484
-0.000945388
-0.0036111
-0.00291186
-0.00739566
-0.00537363
-0.00917801
-0.00804845
-0.00992869
-0.0108392
-0.0103439
-0.0137366
-0.0107356
-0.0167545
-0.0111828
-0.0199102
-0.0116956
-0.0232203
-0.0122703
-0.0129041
-0.0266998
-0.000961771
-0.00264933
-0.00295234
-0.0054051
-0.00543668
-0.00669367
-0.00813138
-0.00723399
-0.0109409
-0.00753432
-0.013857
-0.00781961
-0.0168939
-0.00814589
-0.0200691
-0.00852042
-0.0233991
-0.00894023
-0.00940368
-0.0268996
-0.000973914
-0.00167541
-0.00298233
-0.00339668
-0.00548341
-0.00419259
-0.00819287
-0.00452453
-0.0110163
-0.00471086
-0.0139463
-0.00488966
-0.0169974
-0.00509478
-0.0201871
-0.0053307
-0.023532
-0.00559538
-0.00588764
-0.027048
-0.000981792
-0.00069362
-0.00300181
-0.00137666
-0.0055138
-0.0016806
-0.0082329
-0.00180542
-0.0110655
-0.00187828
-0.0140045
-0.00195061
-0.0170649
-0.00203443
-0.020264
-0.00213155
-0.0236183
-0.00224109
-0.00236106
-0.0271449
-0.000985388
0.000291769
-0.00301077
0.000648724
-0.00552785
0.000836472
-0.00825149
0.000918214
-0.0110884
0.000958588
-0.0140317
0.000992726
-0.0170963
0.00103022
-0.0202998
0.00107187
-0.0236584
0.00111753
0.00116659
-0.027186
-0.000984695
0.00127646
-0.00300921
0.00267323
-0.00552556
0.00335283
-0.00824862
0.00364127
-0.011085
0.00379494
-0.0140278
0.00393554
-0.0170919
0.00409435
-0.0202949
0.00427481
-0.0236529
0.00447559
0.00469591
-0.0271822
-0.000979714
0.00225618
-0.00299711
0.00469063
-0.00550692
0.00586264
-0.0082243
0.00635865
-0.0110553
0.00662595
-0.0139928
0.00687303
-0.0170515
0.00715308
-0.0202489
0.00747224
-0.0236015
0.00782812
0.00821967
-0.0271252
-0.000970451
0.00322663
-0.00297448
0.00669466
-0.00547195
0.00836011
-0.00817852
0.00906522
-0.0109994
0.0094468
-0.0139267
0.00980037
-0.0169751
0.0102015
-0.020162
0.0106591
-0.0235037
0.0111699
0.0117321
-0.0270161
-0.000956924
0.00418355
-0.00294135
0.00867908
-0.00542063
0.0108394
-0.0081113
0.0117559
-0.0109172
0.0122527
-0.0138296
0.0127128
-0.0168628
0.0132347
-0.020034
0.0138303
-0.0233598
0.0144957
0.0152277
-0.0268555
-0.000939158
0.00512271
-0.00289772
0.0106376
-0.00535298
0.0132946
-0.00802262
0.0144255
-0.0108088
0.0150388
-0.0137015
0.0156055
-0.0167146
0.0162478
-0.0198652
0.016981
-0.02317
0.0178004
0.0187012
-0.0266434
-0.000917185
0.0060399
-0.00284365
0.0125641
-0.00526901
0.01572
-0.0079125
0.017069
-0.0106741
0.0178004
-0.0135423
0.0184737
-0.0165305
0.0192359
-0.0196556
0.0201061
-0.0229341
0.0210789
0.0221471
-0.02638
-0.00089105
0.00693095
-0.00277915
0.0144522
-0.00516874
0.0181096
-0.00778094
0.0196812
-0.0105132
0.0205327
-0.0133523
0.0213127
-0.0163107
0.0221944
-0.0194053
0.0232008
-0.0226525
0.0243261
0.02556
-0.0260654
-0.000860804
0.00779175
-0.00270429
0.0162957
-0.00505219
0.0204575
-0.00762794
0.022257
-0.0103262
0.0232309
-0.0131313
0.0241179
-0.0160553
0.0251183
-0.0191145
0.02626
-0.0223254
0.027537
0.0289345
-0.0256999
-0.000826511
0.00861826
-0.00261913
0.0180883
-0.00491939
0.0227578
-0.00745353
0.0247911
-0.0101129
0.0258904
-0.0128795
0.0268845
-0.0157643
0.0280031
-0.0187833
0.029279
-0.0219529
0.0307066
0.0322655
-0.0252839
-0.000788248
0.00940651
-0.00252374
0.0198238
-0.00477036
0.0250044
-0.0072577
0.0272785
-0.00987361
0.0285063
-0.0125971
0.0296079
-0.0154379
0.0308439
-0.0184121
0.0322532
-0.0215355
0.03383
0.0355479
-0.0248179
-0.000746101
0.0101526
-0.00241821
0.0214959
-0.00460514
0.0271913
-0.00704047
0.0297138
-0.00960819
0.031074
-0.0122839
0.0322837
-0.0150764
0.0336364
-0.0180009
0.0351777
-0.0210736
0.0369027
0.0387768
-0.0243026
-0.000700175
0.0108528
-0.00230266
0.0230984
-0.0044238
0.0293124
-0.00680187
0.0320918
-0.00931673
0.0335889
-0.0119403
0.0349072
-0.0146798
0.0363758
-0.0175502
0.0380482
-0.0205677
0.0399202
0.041948
-0.0237389
-0.000650589
0.0115034
-0.00217722
0.024625
-0.0042264
0.0313616
-0.00654191
0.0344074
-0.00899927
0.0360462
-0.0115662
0.0374741
-0.0142482
0.0390579
-0.0170602
0.0408602
-0.0200184
0.0428784
0.0450575
-0.0231279
-0.000597481
0.0121009
-0.00204204
0.0260696
-0.00401302
0.0333326
-0.00626064
0.036655
-0.00865587
0.0384415
-0.0111618
0.0399801
-0.013782
0.041678
-0.0165309
0.0436091
-0.0194261
0.0457736
0.0481024
-0.022471
-0.000541008
0.0126419
-0.00189732
0.0274259
-0.00378378
0.0352191
-0.0059581
0.0388293
-0.00828658
0.0407699
-0.0107272
0.0424207
-0.0132811
0.0442319
-0.0159624
0.0462903
-0.018791
0.0486022
0.0510811
-0.0217696
-0.00048135
0.0131232
-0.00174328
0.0286878
-0.00353882
0.0370146
-0.00563434
0.0409248
-0.00789145
0.043027
-0.0102626
0.0447919
-0.012746
0.0467153
-0.0153546
0.0488989
-0.0181128
0.0513604
0.0539942
-0.021026
-0.000418707
0.0135419
-0.0015802
0.0298493
-0.00327831
0.0387127
-0.00528946
0.042936
-0.00747054
0.0452081
-0.00976809
0.0470895
-0.0121769
0.0491242
-0.0147068
0.0514287
-0.0173889
0.0540425
0.0568473
-0.0202419
-0.000353301
0.0138952
-0.0014084
0.0309044
-0.00300246
0.0403068
-0.00492357
0.0448571
-0.00702397
0.0473085
-0.00924385
0.0493094
-0.011575
0.0514554
-0.0140216
0.0538753
-0.0166185
0.0566394
0.059652
-0.0194233
-0.000285376
0.0141806
-0.00122827
0.0318473
-0.00271152
0.04179
-0.00453682
0.0466824
-0.00655182
0.0493235
-0.00868954
0.0514471
-0.0109391
0.053705
-0.0132954
0.0562316
-0.0157756
0.0591196
0.0624336
-0.0185572
-0.000215215
0.0143958
-0.00104027
0.0326724
-0.00240577
0.0431555
-0.00412941
0.048406
-0.00605445
0.0512486
-0.00810588
0.0534985
-0.0102722
0.0558713
-0.0125531
0.0585125
-0.0149076
0.0614742
0.0652312
-0.0177052
-0.000143214
0.014539
-0.000844853
0.033374
-0.00208552
0.0443962
-0.00370161
0.0500221
-0.00553214
0.0530791
-0.00749304
0.0554594
-0.00956771
0.057946
-0.011769
0.0607138
-0.0141057
0.0638109
0.0675117
-0.0163862
-7.02754e-05
0.0146093
-0.000642314
0.033946
-0.00175111
0.045505
-0.00325372
0.0515247
-0.00498498
0.0548104
-0.00685152
0.0573259
-0.00882877
0.0599232
-0.010926
0.062811
-0.013145
0.0660299
0.0698469
-0.0154802
-1.56452e-06
0.0146109
-0.000432044
0.0343765
-0.00140308
0.046476
-0.00278625
0.0529079
-0.00441334
0.0564374
-0.00618219
0.0590948
-0.00806019
0.0618012
-0.0100543
0.0648051
-0.0121816
0.0681571
0.0720853
-0.0144201
8.15943e-05
0.0145293
-0.0002107
0.0346688
-0.00104235
0.0473077
-0.00229979
0.0541653
-0.00381779
0.0579554
-0.00548601
0.060763
-0.00726408
0.0635793
-0.00915625
0.0666973
-0.0111801
0.070181
0.0742097
-0.0133045
0.000157063
0.0143722
2.92521e-05
0.0347966
-0.000670753
0.0480077
-0.00179451
0.0552891
-0.00319891
0.0593598
-0.00476344
0.0623276
-0.00643979
0.0652556
-0.00822832
0.0684858
-0.0101447
0.0720975
0.0762232
-0.0121582
0.000227117
0.0141451
0.000226775
0.034797
-0.000288398
0.0485229
-0.00127131
0.056272
-0.00255761
0.0606461
-0.0040148
0.0637847
-0.00558683
0.0668276
-0.0072692
0.0701682
-0.00907562
0.0739039
0.0781298
-0.0109823
0.000296329
0.0138488
0.000445382
0.0346479
0.000110566
0.0488577
-0.000733262
0.0571158
-0.00189458
0.0618074
-0.00324042
0.0651306
-0.00470547
0.0682927
-0.00627929
0.071742
-0.00797259
0.0755972
0.0799247
-0.00976749
0.000364868
0.0134839
0.000665627
0.0343472
0.00049501
0.0490283
-0.000180262
0.0577911
-0.0012102
0.0628374
-0.00244086
0.0663613
-0.00379623
0.0696481
-0.00525924
0.073205
-0.00683681
0.0771748
0.0816014
-0.00851346
0.000430937
0.013053
0.000885745
0.0338924
0.000896033
0.049018
0.000385094
0.058302
-0.000506146
0.0637286
-0.0016168
0.0674719
-0.00285967
0.0708909
-0.00420953
0.0745549
-0.00566941
0.0786346
0.0831561
-0.00722407
0.000493518
0.0125594
0.00110408
0.0332818
0.00130202
0.0488201
0.000963704
0.0586404
0.000217528
0.0644748
-0.000769198
0.0684586
-0.00189645
0.0720182
-0.00313077
0.0757892
-0.00447154
0.0799754
0.0845864
-0.00590188
0.000551762
0.0120077
0.00131802
0.0325155
0.00170975
0.0484283
0.00155416
0.0587959
0.000960318
0.0650686
9.77995e-05
0.0693212
-0.000907915
0.0730239
-0.00202387
0.0769052
-0.00324448
0.081196
0.0858908
-0.00454886
0.000604737
0.0114029
0.00152483
0.0315954
0.00211635
0.0478368
0.00215283
0.0587595
0.00172053
0.065501
0.000995238
0.0700464
9.95348e-05
0.0739196
-0.000891145
0.0778958
-0.00198853
0.0822934
0.0870694
-0.00316717
0.000651541
0.0107514
0.00172182
0.0305252
0.00251829
0.0470403
0.00275669
0.0585211
0.00249511
0.0657625
0.0019107
0.0706309
0.00114598
0.0746843
0.000263427
0.0787784
-0.000698763
0.0832556
0.0881338
-0.00176314
0.00069135
0.01006
0.00190617
0.0293103
0.00291153
0.046035
0.00336207
0.0580705
0.0032816
0.065843
0.00284521
0.0710672
0.00220865
0.0753209
0.00145587
0.0795312
0.000611108
0.0841004
0.0891
-0.000355096
0.000723437
0.00933661
0.00207492
0.0279589
0.00329152
0.0448184
0.00396451
0.0573975
0.00407669
0.0657308
0.0037966
0.0713473
0.00329275
0.0758247
0.00266326
0.0801607
0.00194257
0.0848211
0.0899039
0.00113867
0.000747195
0.00858942
0.00222495
0.0264811
0.00365321
0.0433901
0.00455878
0.056492
0.00487631
0.0654133
0.00476223
0.0714614
0.00439666
0.0761903
0.00389405
0.0806633
0.00330436
0.0854107
0.0905654
0.00264286
0.000762169
0.00782725
0.00235294
0.0248903
0.00399101
0.041752
0.00513879
0.0553442
0.00567546
0.0648766
0.0057388
0.0713981
0.00551833
0.0764108
0.00514628
0.0810353
0.0046857
0.0858713
0.0910943
0.00415678
0.000768122
0.00705913
0.00245601
0.0232025
0.0042989
0.0399091
0.00569746
0.0539456
0.00646806
0.064106
0.00672209
0.071144
0.00665484
0.076478
0.0064166
0.0812736
0.00608451
0.0862034
0.0914935
0.00568532
0.000765023
0.0062941
0.0025315
0.021436
0.00457045
0.0378702
0.00622669
0.0522894
0.00724676
0.063086
0.00770676
0.070684
0.00780268
0.0763821
0.00770244
0.0813738
0.00749967
0.0864062
0.091764
0.00722919
0.000753052
0.00554105
0.00257721
0.0196118
0.00479901
0.0356484
0.00671732
0.0503711
0.00800281
0.0618005
0.00868621
0.0700006
0.00895765
0.0761107
0.00900144
0.08133
0.00893005
0.0864776
0.091906
0.008788
0.000732618
0.00480843
0.00259153
0.0177529
0.00497792
0.033262
0.00715919
0.0481898
0.00872585
0.0602338
0.0096523
0.0690742
0.0101145
0.0756484
0.0103107
0.0811339
0.010374
0.0864143
0.0919195
0.0103605
0.000704353
0.00410408
0.00257372
0.0158835
0.0051009
0.0307348
0.00754132
0.0457494
0.00940383
0.0583713
0.010595
0.067883
0.0112666
0.0749768
0.0116263
0.0807742
0.011829
0.0862115
0.0918028
0.0119457
0.000669105
0.00343497
0.00252401
0.0140286
0.00516246
0.0280964
0.00785214
0.0430597
0.010023
0.0562005
0.0115023
0.0664037
0.0124054
0.0740737
0.012943
0.0802365
0.0132923
0.0858623
0.0915534
0.0135416
0.000627915
0.00280706
0.00244376
0.0122128
0.00515849
0.0253816
0.00807996
0.0401382
0.0105677
0.0537128
0.0123593
0.0646121
0.0135198
0.0729132
0.0142542
0.0795022
0.0147598
0.0853566
0.0911676
0.0151457
0.000581971
0.00222509
0.00233545
0.0104593
0.00508685
0.0226302
0.00821365
0.0370114
0.011021
0.0509054
0.0131489
0.0624842
0.0145963
0.0714658
0.0155508
0.0785477
0.0162266
0.0846808
0.0906395
0.0167547
0.000532563
0.00169253
0.0022026
0.00878928
0.00494787
0.019885
0.00824348
0.0337158
0.011365
0.0477839
0.0138507
0.0599984
0.0156177
0.0696988
0.0168213
0.0773441
0.0176859
0.0838162
0.0899603
0.0183651
0.000481012
0.00121151
0.00204961
0.00722067
0.00474483
0.0171897
0.00816228
0.0302984
0.0115813
0.0443649
0.014442
0.0571377
0.0165633
0.0675776
0.0180505
0.0758568
0.0191284
0.0827383
0.089117
0.0199717
0.000428599
0.000782915
0.00188141
0.00576787
0.00448399
0.0145872
0.00796668
0.0268157
0.0116528
0.0406788
0.0148975
0.0538929
0.0174079
0.0650672
0.0192191
0.0740456
0.0205419
0.0814154
0.0880909
0.021568
0.000376491
0.000406423
0.0017031
0.00444126
0.00417427
0.012116
0.0076583
0.0233317
0.011565
0.0367721
0.0151908
0.0502671
0.0181223
0.0621357
0.0203024
0.0718655
0.0219097
0.079808
0.0868561
0.0231446
0.000325656
8.07679e-05
0.00151962
0.0032473
0.00382658
0.00980902
0.00724464
0.0199136
0.0113083
0.0327085
0.0152954
0.0462801
0.0186731
0.058758
0.0212699
0.0692687
0.0232097
0.0778682
0.0853772
0.0246886
0.000276802
-0.000196034
0.00133528
0.00218881
0.00345276
0.00769155
0.00673912
0.0166273
0.0108803
0.0285673
0.0151876
0.0419728
0.0190241
0.0549215
0.0220851
0.0662077
0.024413
0.0755404
0.0836082
0.026182
0.000230335
-0.000426369
0.00115362
0.00126553
0.0030644
0.00578077
0.00616013
0.0135315
0.0102878
0.0244396
0.0148494
0.0374113
0.0191379
0.050633
0.022705
0.0626406
0.0254824
0.0727629
0.0814901
0.0276005
0.000186387
-0.000612756
0.000977218
0.000474699
0.00267194
0.00408604
0.00552924
0.0106742
0.00954833
0.0204205
0.0142725
0.0326871
0.0189795