/*--------------------------------*- C++ -*----------------------------------*\
  =========                 |
  \\      /  F ield         | OpenFOAM: The Open Source CFD Toolbox
   \\    /   O peration     | Website:  https://openfoam.org
    \\  /    A nd           | Version:  7
     \\/     M anipulation  |
\*---------------------------------------------------------------------------*/
FoamFile
{
    version     2.0;
    format      ascii;
    class       volVectorField;
    location    "315";
    object      U;
}
// * * * * * * * * * * * * * * * * * * * * * * * * * * * * * * * * * * * * * //

dimensions      [0 1 -1 0 0 0 0];

internalField   nonuniform List<vector> 
8500
(
(-0.00100305 -0.0337104 1.03423e-21)
(-0.00742848 -0.0937032 -2.96908e-21)
(-0.0213459 -0.144943 -3.45914e-21)
(-0.039164 -0.184937 3.43656e-21)
(-0.0591041 -0.21533 -3.16392e-21)
(-0.0791785 -0.240121 -1.69071e-21)
(-0.0976941 -0.263161 2.89989e-21)
(-0.113739 -0.286529 3.61661e-21)
(-0.126742 -0.310234 -6.00961e-22)
(-0.136407 -0.332645 1.77906e-21)
(-0.000408231 -0.0303444 -1.14261e-21)
(-0.00678325 -0.0859483 3.52934e-21)
(-0.0222443 -0.134367 -8.30938e-21)
(-0.0421766 -0.172814 7.53836e-21)
(-0.0644787 -0.202838 3.26594e-22)
(-0.0869834 -0.228244 5.53426e-21)
(-0.107983 -0.252558 -9.65923e-21)
(-0.126711 -0.277474 -1.42128e-20)
(-0.14279 -0.302682 -2.80402e-21)
(-0.156373 -0.326388 6.38393e-21)
(-0.000111234 -0.0261732 1.0546e-21)
(-0.00665776 -0.0766199 7.7838e-21)
(-0.0235271 -0.121978 1.83222e-20)
(-0.0452165 -0.15891 -1.65872e-20)
(-0.0693601 -0.188694 -3.77217e-21)
(-0.0936443 -0.214816 -3.42335e-21)
(-0.116342 -0.240421 1.75494e-20)
(-0.136795 -0.266792 1.09202e-20)
(-0.15475 -0.293281 2.67787e-21)
(-0.170658 -0.31789 -1.97889e-20)
(-0.00016496 -0.0213168 3.7418e-21)
(-0.00709982 -0.0659639 -4.55906e-21)
(-0.025162 -0.10807 -3.42817e-20)
(-0.0481633 -0.143523 3.01302e-21)
(-0.0735476 -0.17317 9.41381e-21)
(-0.0988895 -0.20009 -7.37958e-21)
(-0.122427 -0.227006 -3.03446e-22)
(-0.143557 -0.25478 -3.02552e-21)
(-0.162068 -0.282377 6.83072e-21)
(-0.178509 -0.307527 1.97193e-20)
(-0.000601874 -0.0159319 2.60567e-21)
(-0.00812462 -0.0542785 -1.47965e-20)
(-0.0270906 -0.0929754 3.55446e-20)
(-0.0508809 -0.126969 -1.6258e-20)
(-0.0768346 -0.156551 -5.11309e-23)
(-0.102449 -0.18432 2.25826e-20)
(-0.125904 -0.21257 -1.0347e-20)
(-0.146592 -0.24174 1.14392e-21)
(-0.164252 -0.270343 -4.27219e-21)
(-0.179248 -0.295728 1.56214e-21)
(-0.00142996 -0.0102044 3.12725e-20)
(-0.00971113 -0.0419031 3.8122e-20)
(-0.0292274 -0.0770618 -9.7257e-21)
(-0.0532176 -0.109586 1.86518e-20)
(-0.0790061 -0.139123 5.96583e-21)
(-0.104046 -0.167754 -8.38831e-21)
(-0.126434 -0.197355 -3.26838e-21)
(-0.145496 -0.227959 -1.43733e-20)
(-0.160852 -0.257555 3.12891e-21)
(-0.172237 -0.282948 -1.82542e-20)
(-0.00263045 -0.00434018 -3.01637e-20)
(-0.0118008 -0.0292052 -1.99051e-20)
(-0.0314607 -0.0607173 1.6378e-20)
(-0.0550073 -0.0917249 -2.85179e-20)
(-0.079838 -0.12118 3.39877e-21)
(-0.103394 -0.150633 3.37763e-20)
(-0.123666 -0.18158 -6.1338e-21)
(-0.139847 -0.213687 3.98181e-20)
(-0.151432 -0.244361 -7.82712e-22)
(-0.156834 -0.269645 -1.60495e-20)
(-0.00415768 0.00144547 2.55591e-20)
(-0.0142995 -0.0165668 -4.645e-20)
(-0.0336565 -0.0443451 -1.85896e-20)
(-0.0560739 -0.0737493 2.16478e-20)
(-0.0791011 -0.103026 9.06473e-22)
(-0.100198 -0.133199 -6.36645e-20)
(-0.117227 -0.165439 -3.95479e-21)
(-0.129185 -0.199124 -3.18412e-20)
(-0.13555 -0.231059 -4.07213e-20)
(-0.132372 -0.256255 2.37509e-20)
(-0.0059412 0.00693974 -1.42498e-20)
(-0.0170816 -0.00436933 6.92715e-21)
(-0.0356644 -0.0283539 1.71439e-20)
(-0.0562388 -0.0560355 -1.57653e-20)
(-0.0765695 -0.0849788 -5.48991e-20)
(-0.0941615 -0.115702 1.88135e-20)
(-0.106731 -0.149113 2.60181e-21)
(-0.113008 -0.184405 4.83251e-20)
(-0.112752 -0.217867 6.29196e-20)
(-0.0981657 -0.243153 -2.79594e-20)
(-0.00789046 0.0119448 2.27834e-20)
(-0.0199975 0.00702103 2.09123e-20)
(-0.0373267 -0.0131495 -3.00036e-21)
(-0.0553318 -0.0389709 7.79103e-20)
(-0.0720351 -0.0673805 3.32612e-20)
(-0.0850046 -0.0984175 2.51241e-20)
(-0.0918022 -0.132782 3.6087e-20)
(-0.0907908 -0.169609 -1.55126e-20)
(-0.0825924 -0.204899 -2.11028e-20)
(-0.0535616 -0.230567 -3.4309e-20)
(-0.00990192 0.0162901 -1.95836e-21)
(-0.0228835 0.0172706 -3.33345e-20)
(-0.0384868 0.000876497 -2.4135e-20)
(-0.0532027 -0.0229513 -3.87705e-20)
(-0.0653255 -0.0506041 -3.09891e-20)
(-0.0724926 -0.0816674 3.15648e-20)
(-0.0721113 -0.116671 -3.05135e-20)
(-0.0620259 -0.154781 -2.09401e-20)
(-0.0446675 -0.192153 2.79917e-21)
(0.00185883 -0.218269 8.96823e-21)
(-0.0118673 0.0198432 -6.3759e-20)
(-0.0255729 0.0260941 3.05238e-20)
(-0.039 0.0133602 2.24032e-20)
(-0.0497302 -0.00837455 1.52306e-20)
(-0.0563212 -0.0350521 -2.80943e-20)
(-0.0564637 -0.0658363 -2.37404e-20)
(-0.0474233 -0.101083 3.45806e-20)
(-0.026274 -0.140009 -2.83853e-20)
(0.00161333 -0.179806 -2.10427e-21)
(0.0679083 -0.205071 -2.8828e-20)
(-0.0136828 0.0225186 5.39269e-20)
(-0.0279063 0.0332693 2.21399e-20)
(-0.038741 0.023982 1.28207e-21)
(-0.0448285 0.0043783 -2.76911e-20)
(-0.0449615 -0.0211457 1.76281e-21)
(-0.0368496 -0.0513675 3.18658e-20)
(-0.0176536 -0.0864159 -9.13227e-21)
(0.0165628 -0.125499 -1.12688e-20)
(0.0576548 -0.168838 -2.46737e-20)
(0.14425 -0.189658 4.4115e-20)
(-0.0152583 0.0242829 3.71552e-20)
(-0.0297401 0.0386493 -5.98961e-20)
(-0.0376019 0.0324834 -4.66939e-20)
(-0.03844 0.0149628 2.01419e-20)
(-0.0312327 -0.00930406 4.16846e-20)
(-0.013661 -0.0387234 3.62307e-20)
(0.0171761 -0.073148 -3.86978e-20)
(0.0657102 -0.111685 7.47797e-20)
(0.123813 -0.158446 -2.28729e-20)
(0.23238 -0.173156 -5.14769e-20)
(-0.0165247 0.0251551 -5.53597e-20)
(-0.0309526 0.0421705 3.34369e-20)
(-0.0354898 0.0386848 -1.65102e-20)
(-0.0305184 0.0230991 1.7219e-21)
(-0.0151344 0.000111593 1.78768e-20)
(0.0130506 -0.0283322 -5.69883e-20)
(0.057124 -0.0617971 5.11455e-20)
(0.121268 -0.0990548 -4.97791e-20)
(0.198192 -0.147692 7.94366e-20)
(0.330678 -0.156812 2.77111e-20)
(-0.0174383 0.0252022 1.20113e-20)
(-0.0314443 0.0438549 6.5794e-20)
(-0.0323122 0.042503 -1.68032e-20)
(-0.0209959 0.0286076 1.70315e-20)
(0.00338788 0.00683012 2.03662e-20)
(0.0432843 -0.020586 -6.18726e-21)
(0.102071 -0.0528349 4.42657e-20)
(0.183336 -0.0883565 2.33666e-21)
(0.280901 -0.137187 -5.0511e-20)
(0.435138 -0.140086 6.64655e-20)
(-0.0179803 0.0245278 -3.18354e-20)
(-0.031134 0.0438059 -6.25034e-20)
(-0.0279555 0.0439556 5.44928e-20)
(-0.00974412 0.0314125 2.76848e-20)
(0.0244711 0.0107127 -1.29608e-19)
(0.0772354 -0.0156663 1.06799e-19)
(0.15213 -0.0464061 -9.7345e-20)
(0.251625 -0.0797771 1.60259e-21)
(0.371911 -0.126633 -2.1513e-20)
(0.54139 -0.123094 -6.08592e-20)
(-0.0181527 0.0232629 2.78229e-20)
(-0.0299496 0.0421937 -3.83891e-21)
(-0.0222729 0.0431599 -1.33944e-20)
(0.00347313 0.0315791 -1.45756e-21)
(0.0484364 0.0118228 -8.089e-21)
(0.115301 -0.0134579 -3.40567e-20)
(0.207743 -0.0423454 1.46331e-20)
(0.326203 -0.0733088 -2.31511e-20)
(0.470481 -0.114828 7.30066e-21)
(0.644632 -0.105784 1.93087e-21)
(-0.017974 0.0215483 -5.68334e-20)
(-0.0278143 0.0392371 -4.16892e-21)
(-0.0150588 0.040335 6.25841e-21)
(0.0190132 0.029325 2.54525e-21)
(0.075822 0.0104099 4.25882e-20)
(0.158175 -0.0135999 -1.25314e-19)
(0.269572 -0.0401084 8.50669e-20)
(0.407514 -0.0684435 -6.36026e-20)
(0.574777 -0.100139 5.2175e-20)
(0.740671 -0.0887921 5.54511e-20)
(-0.0174653 0.0195189 -6.94904e-21)
(-0.0246335 0.0351852 3.16661e-20)
(-0.00603355 0.0357811 -3.99846e-20)
(0.0373728 0.0250033 -1.26112e-20)
(0.107366 0.00691594 2.45014e-20)
(0.206772 -0.0154816 1.19057e-19)
(0.338307 -0.0388709 -2.40169e-20)
(0.495913 -0.063887 1.19905e-20)
(0.681619 -0.0817372 -6.07702e-20)
(0.828513 -0.0762865 2.53201e-20)
(-0.016639 0.0172921 -2.08194e-20)
(-0.0202782 0.0302942 -1.61658e-20)
(0.00516548 0.0298591 3.93528e-21)
(0.0591841 0.0190768 1.58712e-20)
(0.143949 0.0019493 -4.72972e-20)
(0.262048 -0.0182798 -1.93359e-20)
(0.414372 -0.0376556 -6.0957e-20)
(0.590751 -0.057799 6.19938e-20)
(0.786356 -0.0618065 6.38616e-20)
(0.911789 -0.0740249 -2.68803e-20)
(-0.0154874 0.0149589 -9.88546e-21)
(-0.0145765 0.0248086 4.03639e-20)
(0.0189727 0.0229635 -4.53833e-20)
(0.0851713 0.0120947 -5.29842e-21)
(0.186489 -0.00374455 -2.15659e-20)
(0.324762 -0.0210213 4.74301e-20)
(0.497589 -0.0354136 6.14756e-20)
(0.689634 -0.048899 -5.81098e-20)
(0.883839 -0.0453386 5.97085e-20)
(1.01515 -0.061692 7.41808e-21)
(-0.0139744 0.0125806 -2.86231e-20)
(-0.0073071 0.0189485 -8.16622e-20)
(0.0358759 0.0155041 7.99084e-20)
(0.116076 0.00466993 1.15828e-20)
(0.235787 -0.00933197 1.72187e-20)
(0.395191 -0.0226776 1.00399e-20)
(0.586834 -0.0311618 4.63493e-20)
(0.788797 -0.0372992 3.37135e-20)
(0.976063 -0.0294262 -1.17188e-19)
(1.10277 -0.0411514 -5.48353e-20)
(-0.012031 0.0101906 -9.81088e-20)
(0.00179702 0.0129044 1.9811e-20)
(0.0563862 0.00788761 -4.50266e-20)
(0.152577 -0.00256002 8.86071e-21)
(0.29236 -0.013951 1.43694e-20)
(0.472906 -0.0222867 -1.02743e-19)
(0.67992 -0.0241882 4.48674e-20)
(0.884765 -0.0233075 -3.01771e-20)
(1.05936 -0.0123219 3.13083e-20)
(1.17119 -0.0205269 -1.03868e-20)
(-0.00955707 0.00780155 3.54354e-20)
(0.0130305 0.00684472 3.81495e-20)
(0.0809961 0.000507121 -2.07187e-21)
(0.195202 -0.00896315 -1.2408e-20)
(0.356279 -0.0167763 6.09658e-22)
(0.556646 -0.0190883 1.15248e-21)
(0.773899 -0.0141992 -6.84603e-20)
(0.974363 -0.00727407 8.78374e-21)
(1.13132 0.00552027 8.18742e-20)
(1.22628 0.000113235 3.57023e-20)
(-0.00642342 0.00541699 -2.39456e-20)
(0.0267085 0.000918434 -1.78536e-20)
(0.110135 -0.00626558 7.65051e-20)
(0.244237 -0.0139352 1.95261e-21)
(0.427054 -0.0170855 -3.20163e-20)
(0.644374 -0.0126253 8.67064e-20)
(0.865585 -0.00130296 1.87068e-20)
(1.05512 0.010289 6.15964e-22)
(1.19153 0.0237789 -3.61213e-20)
(1.26763 0.0199725 -4.51901e-20)
(-0.00248376 0.00303795 4.98244e-20)
(0.0431452 -0.00473122 -1.40034e-20)
(0.144132 -0.0120679 -8.30587e-21)
(0.299659 -0.0169141 -3.17458e-20)
(0.503596 -0.0143218 5.25075e-20)
(0.733528 -0.00277713 -2.58643e-20)
(0.952087 0.014112 -2.8795e-20)
(1.1256 0.0288676 -7.055e-21)
(1.24014 0.0420381 -2.0467e-20)
(1.29822 0.0388133 2.14724e-20)
(0.0024149 0.000677452 -1.83929e-20)
(0.0626196 -0.00994258 -1.08965e-19)
(0.183172 -0.0165396 1.14175e-20)
(0.361089 -0.0173959 3.93482e-20)
(0.58428 -0.00814171 2.83069e-20)
(0.821401 0.010285 -9.39028e-20)
(1.0312 0.0315322 5.96932e-20)
(1.18531 0.0480004 -2.70009e-20)
(1.27819 0.0600116 3.97718e-20)
(1.31976 0.056656 1.06215e-20)
(0.00842227 -0.00163194 -2.00252e-20)
(0.0853616 -0.0145268 3.87405e-20)
(0.227268 -0.0193149 5.04052e-20)
(0.427779 -0.0149536 -3.63436e-20)
(0.667103 0.00156834 1.34682e-20)
(0.905511 0.0261956 -8.24728e-20)
(1.10153 0.0504359 -1.57637e-20)
(1.23451 0.0673275 1.2623e-20)
(1.30699 0.0775343 -3.0258e-20)
(1.33424 0.07355 -2.99938e-20)
(0.0156747 -0.00383336 -2.57473e-20)
(0.11153 -0.0182583 -8.59185e-21)
(0.276239 -0.0200202 -9.11197e-20)
(0.498635 -0.00926206 -1.42549e-20)
(0.74992 0.0147149 -1.60488e-21)
(0.983868 0.0444986 4.87493e-21)
(1.16245 0.0703606 8.67659e-21)
(1.27394 0.0865945 -3.95227e-20)
(1.32798 0.0945391 7.24886e-22)
(1.34324 0.0896469 2.07728e-20)
(0.0242865 -0.00584392 -6.66205e-21)
(0.141192 -0.0208723 3.16072e-20)
(0.329687 -0.0182833 4.44814e-20)
(0.572285 -0.000121492 2.78199e-20)
(0.830669 0.0310497 -8.3171e-21)
(1.05508 0.0647267 -6.75109e-21)
(1.21396 0.0909305 6.69474e-20)
(1.30466 0.105642 8.62507e-21)
(1.34253 0.111035 2.94005e-20)
(1.34804 0.10509 -1.24389e-20)
(0.0343434 -0.00755609 6.37312e-20)
(0.174312 -0.0220697 4.14765e-20)
(0.387004 -0.0137549 -4.20056e-20)
(0.647186 0.0125319 -8.36212e-21)
(0.907565 0.0502317 4.28761e-21)
(1.11834 0.0864476 -1.57742e-20)
(1.25647 0.111859 -3.41718e-20)
(1.3278 0.124388 -5.75943e-21)
(1.35189 0.127076 4.80432e-22)
(1.34968 0.120028 1.34725e-20)
(0.0458964 -0.00884147 7.67445e-21)
(0.210732 -0.0215303 -2.25521e-20)
(0.447378 -0.00613597 5.33588e-20)
(0.721744 0.0286327 3.47802e-20)
(0.979196 0.0718791 9.35212e-22)
(1.17333 0.109286 2.46078e-20)
(1.29069 0.132939 3.67545e-21)
(1.34449 0.142808 -2.55874e-20)
(1.35708 0.142737 2.13681e-20)
(1.34889 0.134585 -2.79917e-24)
(0.0589572 -0.00955593 -5.21896e-20)
(0.250172 -0.0189294 -1.54082e-20)
(0.509831 0.00479397 -1.40004e-20)
(0.794443 0.0480075 -2.43083e-20)
(1.04456 0.0956064 5.59762e-21)
(1.22012 0.132927 1.26963e-22)
(1.31742 0.154031 1.86714e-20)
(1.35574 0.16091 -2.98464e-21)
(1.35897 0.1581 -2.20032e-20)
(1.34622 0.148862 -2.01959e-20)
(0.0734944 -0.00954576 4.20977e-21)
(0.292226 -0.0139591 2.48156e-20)
(0.573271 0.0191578 1.19841e-20)
(0.86393 0.0704038 -3.75694e-20)
(1.10303 0.121045 -1.93207e-21)
(1.25903 0.157115 -1.60557e-20)
(1.33752 0.175042 4.16649e-22)
(1.36246 0.178725 7.53326e-21)
(1.3582 0.173239 -8.24298e-21)
(1.34205 0.162931 2.28318e-20)
(0.0894309 -0.00865426 9.81968e-21)
(0.336371 -0.006349 -2.41802e-20)
(0.636555 0.0369728 -5.71593e-20)
(0.929085 0.0955165 5.26619e-20)
(1.15429 0.147854 -3.93477e-21)
(1.29053 0.181644 1.1649e-20)
(1.35182 0.195917 -1.58028e-21)
(1.36542 0.196288 1.10644e-20)
(1.35528 0.18821 -8.47984e-22)
(1.33664 0.176835 -1.76777e-20)
(0.106643 -0.00672875 -1.99429e-20)
(0.381981 0.00411445 3.13382e-20)
(0.698553 0.0581543 2.59767e-20)
(0.989031 0.12301 -3.74018e-20)
(1.1983 0.175721 -6.16333e-21)
(1.31521 0.206348 2.37076e-21)
(1.36106 0.21662 2.35476e-20)
(1.36522 0.213632 1.18291e-21)
(1.35057 0.203053 4.53362e-21)
(1.33014 0.190594 -9.76758e-21)
(0.12496 -0.00362767 1.51247e-20)
(0.428353 0.0175729 -1.36401e-20)
(0.758203 0.082527 -1.1573e-20)
(1.04313 0.152533 1.98907e-20)
(1.23516 0.204365 6.88542e-21)
(1.33364 0.231091 5.17914e-21)
(1.36591 0.237125 -2.39461e-20)
(1.36235 0.230778 -8.16535e-21)
(1.34432 0.217786 -7.29394e-21)
(1.32266 0.204204 3.21254e-21)
(0.144169 0.000772371 -7.47917e-21)
(0.474734 0.0340862 -1.74416e-22)
(0.814558 0.10984 2.18887e-20)
(1.09098 0.18373 -8.04943e-21)
(1.26513 0.233528 -3.53183e-21)
(1.34641 0.255756 -2.32952e-21)
(1.36693 0.257408 5.77752e-21)
(1.35718 0.247732 9.9657e-21)
(1.3367 0.232404 -3.14335e-22)
(1.31425 0.217645 3.60882e-21)
(0.164018 0.00656994 5.26351e-21)
(0.520353 0.0536286 -1.47708e-21)
(0.866804 0.139783 -3.90723e-21)
(1.13233 0.216245 -3.53807e-21)
(1.28854 0.262975 3.1867e-21)
(1.35407 0.280239 2.48187e-21)
(1.36459 0.277436 -2.2885e-21)
(1.34999 0.264483 8.29381e-22)
(1.32783 0.246883 1.16134e-21)
(1.30494 0.23088 -1.53799e-21)
(0.184223 0.0138331 2.79734e-21)
(0.56445 0.0760894 8.01151e-22)
(0.914278 0.171998 -4.80097e-21)
(1.1671 0.24973 -3.83019e-21)
(1.30575 0.292487 3.99377e-21)
(1.35711 0.304442 7.80317e-22)
(1.35927 0.297171 -1.82375e-21)
(1.34099 0.281001 1.71492e-21)
(1.31778 0.26118 9.56453e-22)
(1.29476 0.243858 -1.09751e-21)
(0.204479 0.0225948 -1.10117e-21)
(0.606301 0.101278 2.2352e-21)
(0.956467 0.206098 1.47347e-20)
(1.19532 0.283839 -6.53291e-21)
(1.31714 0.321855 -3.22357e-21)
(1.35595 0.328263 -3.62919e-21)
(1.35129 0.316557 7.43512e-21)
(1.33032 0.297238 4.98411e-21)
(1.30659 0.275232 3.98594e-21)
(1.28372 0.256523 2.16657e-21)
(0.224463 0.0328502 2.22712e-20)
(0.645245 0.128934 -1.22752e-20)
(0.992996 0.24167 -1.4037e-20)
(1.2171 0.318239 1.90295e-20)
(1.3231 0.35088 1.00035e-20)
(1.351 0.351601 -6.69488e-22)
(1.34088 0.335528 -1.23905e-20)
(1.31809 0.313128 -8.95493e-21)
(1.29429 0.288957 -9.34476e-21)
(1.27183 0.268805 5.56117e-21)
(0.243849 0.0445549 -3.00813e-20)
(0.680698 0.158732 2.83086e-20)
(1.02362 0.27829 3.25129e-20)
(1.23264 0.352601 -3.20799e-20)
(1.32401 0.379369 -1.11374e-20)
(1.34257 0.374347 7.14704e-21)
(1.32824 0.354006 1.30346e-20)
(1.30436 0.328592 2.05431e-21)
(1.28087 0.302259 -3.669e-22)
(1.25906 0.280621 -7.60088e-21)
(0.262315 0.0576261 -4.2709e-21)
(0.712162 0.1903 -3.96729e-20)
(1.0482 0.315524 -4.2497e-20)
(1.24216 0.386609 4.76604e-20)
(1.32022 0.40713 -5.40929e-21)
(1.33096 0.396385 9.95947e-21)
(1.31353 0.371901 1.97498e-21)
(1.2892 0.343547 -5.5769e-21)
(1.26633 0.315054 2.99337e-21)
(1.24524 0.291893 -4.26358e-22)
(0.279553 0.0719438 8.70576e-21)
(0.739235 0.223222 2.44861e-20)
(1.06671 0.352938 1.39236e-20)
(1.24593 0.419954 -1.09611e-20)
(1.31207 0.433973 -1.69746e-20)
(1.31642 0.41759 -1.59203e-20)
(1.29689 0.389111 -3.23033e-21)
(1.27266 0.35791 8.62433e-21)
(1.25068 0.327314 -1.82412e-21)
(1.23024 0.302591 4.21379e-21)
(0.295274 0.0873545 -3.27098e-20)
(0.761615 0.257061 -3.06247e-20)
(1.07919 0.390102 -4.81559e-21)
(1.24424 0.452339 -5.46446e-21)
(1.29988 0.459713 -1.24686e-20)
(1.29918 0.43783 7.69416e-21)
(1.27841 0.405518 -1.39362e-21)
(1.25478 0.371567 -7.59366e-21)
(1.234 0.339049 6.88703e-21)
(1.21418 0.312756 -1.00891e-20)
(0.309221 0.103674 7.90251e-21)
(0.779097 0.29136 2.59135e-20)
(1.08576 0.426596 2.24958e-20)
(1.2374 0.483476 2.45015e-20)
(1.28395 0.484163 5.12145e-22)
(1.27942 0.456974 2.16285e-20)
(1.25819 0.421001 1.45951e-21)
(1.2356 0.384369 -2.58886e-20)
(1.21623 0.350121 1.86821e-20)
(1.19745 0.322134 6.93182e-21)
(0.32117 0.120691 2.1114e-20)
(0.791563 0.32566 4.712e-20)
(1.08659 0.462011 -6.28018e-21)
(1.22571 0.513087 -3.07879e-20)
(1.26456 0.507142 1.39567e-20)
(1.25734 0.474882 -1.46182e-20)
(1.23635 0.435445 -1.96945e-20)
(1.21524 0.396255 -1.79041e-21)
(1.19733 0.360319 -1.56232e-20)
(1.18006 0.330751 6.13107e-21)
(0.330937 0.138175 9.84946e-21)
(0.798976 0.359505 7.20776e-21)
(1.08192 0.495957 5.86894e-20)
(1.20952 0.540909 1.10692e-20)
(1.242 0.528472 -9.69104e-21)
(1.2331 0.491406 -5.0244e-21)
(1.21304 0.448698 3.02327e-20)
(1.19373 0.407128 2.51409e-20)
(1.17739 0.369572 1.265e-20)
(1.16193 0.338433 -1.76434e-21)
(0.33838 0.155884 2.07487e-21)
(0.801376 0.392451 -4.80411e-20)
(1.072 0.528058 -6.8927e-20)
(1.18916 0.566691 2.18301e-21)
(1.21652 0.547974 1.3824e-20)
(1.20693 0.506394 -1.91356e-20)
(1.18834 0.460642 -4.44787e-20)
(1.17105 0.416869 -1.34356e-20)
(1.15654 0.37778 -8.31729e-22)
(1.14306 0.345124 6.90195e-21)
(0.343399 0.173566 -1.70411e-20)
(0.798876 0.42407 4.2935e-20)
(1.05719 0.557971 4.13682e-20)
(1.16496 0.590194 -3.84028e-20)
(1.18838 0.56547 5.86105e-21)
(1.17896 0.5197 4.66943e-20)
(1.16231 0.47115 -1.07439e-20)
(1.14732 0.425366 9.07577e-21)
(1.13481 0.384848 -4.67159e-21)
(1.12351 0.350745 -6.33732e-21)
(0.345942 0.190967 -3.8235e-20)
(0.791679 0.453953 -6.77601e-20)
(1.03786 0.585407 -1.33346e-20)
(1.13714 0.611161 2.19666e-20)
(1.15784 0.580792 2.19189e-20)
(1.14937 0.531174 -4.6681e-20)
(1.1351 0.4801 2.60301e-20)
(1.12264 0.432512 -1.43326e-20)
(1.1123 0.390683 1.20089e-20)
(1.10333 0.355235 2.14025e-22)
(0.346009 0.207829 2.91662e-20)
(0.78007 0.4817 2.07022e-21)
(1.01434 0.610125 -6.49598e-21)
(1.106 0.629396 -2.73269e-20)
(1.12517 0.593731 1.81223e-20)
(1.11834 0.540685 3.74251e-21)
(1.10682 0.487377 -1.53895e-20)
(1.0971 0.438207 2.2906e-21)
(1.08907 0.395189 -3.56048e-21)
(1.08264 0.358523 2.44712e-21)
(0.343657 0.223891 -7.97401e-21)
(0.764361 0.506974 -1.11854e-20)
(0.98665 0.631705 2.8636e-20)
(1.07209 0.644841 1.34169e-20)
(1.09068 0.604131 -1.86576e-20)
(1.08605 0.548099 2.75025e-20)
(1.07763 0.492871 1.80059e-21)
(1.07082 0.442358 1.84213e-21)
(1.06523 0.39827 -1.65941e-21)
(1.06151 0.360518 -1.06419e-22)
(0.338965 0.238879 5.17419e-20)
(0.744742 0.529623 4.00526e-20)
(0.955148 0.649839 -2.69349e-21)
(1.03585 0.657165 -6.42448e-21)
(1.05462 0.611959 -7.691e-21)
(1.0527 0.553317 -3.91624e-21)
(1.04765 0.496486 1.65507e-21)
(1.04391 0.444885 2.14146e-21)
(1.04086 0.399835 2.04212e-21)
(1.04001 0.361124 -1.36575e-21)
(0.33199 0.252472 4.34277e-21)
(0.721364 0.549241 6.98057e-21)
(0.920674 0.664609 -3.7701e-20)
(0.997556 0.666167 1.70631e-20)
(1.01723 0.617066 5.51661e-21)
(1.01848 0.556238 -1.28684e-20)
(1.01705 0.498134 4.23462e-21)
(1.01648 0.445716 1.11726e-21)
(1.01609 0.399819 -2.58047e-21)
(1.01838 0.360294 2.1296e-21)
(0.322796 0.264445 -1.95977e-20)
(0.694542 0.565366 -1.43691e-20)
(0.883651 0.675745 1.24483e-20)
(0.957526 0.671822 3.73025e-21)
(0.978773 0.619354 -6.58468e-21)
(0.983574 0.556772 6.68964e-21)
(0.985955 0.497727 1.57026e-21)
(0.988633 0.444765 -4.05226e-21)
(0.991192 0.398157 1.45339e-20)
(0.997308 0.358073 6.45243e-21)
(0.311605 0.274648 -1.51976e-20)
(0.664823 0.577837 3.87848e-20)
(0.844408 0.683036 -2.5225e-20)
(0.916094 0.674043 -3.37622e-21)
(0.939512 0.61874 -5.23293e-21)
(0.948177 0.554844 1.54185e-21)
(0.954476 0.495187 -5.09929e-21)
(0.960488 0.441895 2.80918e-21)
(0.966585 0.39465 5.43962e-22)
(0.977562 0.354507 -2.51478e-21)
(0.298621 0.282967 -9.81793e-22)
(0.632639 0.58651 -1.14484e-20)
(0.80335 0.686323 6.86019e-21)
(0.873611 0.672757 -4.21477e-21)
(0.899707 0.615168 2.5603e-21)
(0.91247 0.550407 3.82537e-21)
(0.92274 0.490472 1.10203e-20)
(0.932238 0.437008 -8.98771e-21)
(0.94263 0.3889 -1.73496e-20)
(0.958412 0.348879 8.09578e-21)
(0.284024 0.28923 4.28509e-22)
(0.598428 0.591255 -1.63251e-21)
(0.760899 0.685521 8.4422e-22)
(0.830422 0.667908 3.13146e-21)
(0.859625 0.608601 -8.20509e-21)
(0.876652 0.543439 -1.56679e-20)
(0.890937 0.48359 -4.4591e-21)
(0.904159 0.43024 -1.86471e-21)
(0.91929 0.381115 2.48654e-20)
(0.936818 0.337273 -4.86392e-21)
(0.26804 0.293305 -2.50742e-21)
(0.562622 0.591971 -4.71996e-21)
(0.717481 0.680582 1.31091e-21)
(0.786877 0.659468 1.11056e-21)
(0.819532 0.599017 -7.55787e-21)
(0.840941 0.533917 3.12669e-20)
(0.859333 0.474515 -2.26012e-20)
(0.876476 0.421695 2.71184e-20)
(0.895403 0.373333 -1.89597e-20)
(0.912592 0.331004 -2.55068e-20)
(0.250914 0.295089 2.47292e-22)
(0.52565 0.588592 -1.8525e-21)
(0.673517 0.671493 8.56144e-22)
(0.743319 0.647434 1.17659e-20)
(0.779692 0.586415 -5.43105e-21)
(0.805567 0.521826 8.13755e-21)
(0.82814 0.463195 1.31067e-20)
(0.849225 0.411073 -6.92056e-21)
(0.871445 0.363266 -1.90105e-20)
(0.889644 0.321212 2.60301e-20)
(0.232901 0.294509 9.30566e-21)
(0.48794 0.58109 1.20585e-20)
(0.629421 0.658273 -1.20913e-20)
(0.700084 0.631831 -1.04927e-20)
(0.740372 0.570813 3.90994e-20)
(0.770747 0.507186 -3.98135e-20)
(0.797504 0.449686 4.82253e-20)
(0.82241 0.398621 -1.19553e-20)
(0.847612 0.351939 1.28504e-20)
(0.867513 0.311094 2.4366e-20)
(0.21426 0.291521 -3.17126e-21)
(0.449917 0.569477 -1.22624e-20)
(0.585598 0.640971 -8.16311e-21)
(0.657503 0.612709 -4.21224e-21)
(0.701835 0.55225 5.41483e-21)
(0.736704 0.490022 -1.08581e-20)
(0.7676 0.433995 -1.43722e-20)
(0.796196 0.384272 -3.18752e-20)
(0.824259 0.338962 3.17032e-20)
(0.846281 0.299529 -1.0054e-20)
(0.195252 0.286107 2.46658e-20)
(0.412 0.553797 -3.20643e-21)
(0.542442 0.619665 -1.14592e-20)
(0.615896 0.590141 1.43997e-20)
(0.664337 0.530786 -2.55417e-20)
(0.703646 0.470386 6.91195e-20)
(0.738593 0.416178 -3.68643e-20)
(0.770749 0.368111 3.33935e-20)
(0.801607 0.324486 -6.11717e-20)
(0.825964 0.286653 -1.62602e-20)
(0.176138 0.27828 -7.37255e-21)
(0.374596 0.534135 2.61667e-20)
(0.500334 0.594463 6.00737e-21)
(0.575575 0.564227 -1.34683e-20)
(0.628129 0.506502 -2.32817e-20)
(0.671779 0.448342 -6.04479e-22)
(0.710655 0.396287 1.22883e-20)
(0.746234 0.350176 -3.02599e-20)
(0.779812 0.30849 1.47429e-20)
(0.806601 0.272403 1.93453e-21)
(0.157174 0.268078 -4.35175e-20)
(0.338099 0.510608 -1.06232e-20)
(0.459638 0.565503 -3.00425e-21)
(0.536836 0.535086 3.51681e-20)
(0.59345 0.479496 -3.27587e-20)
(0.641303 0.423973 -8.37395e-21)
(0.683957 0.374396 -5.17181e-21)
(0.72281 0.330528 9.44324e-21)
(0.759014 0.291018 -1.2066e-20)
(0.788259 0.256819 -1.87415e-20)
(0.138609 0.255565 3.88661e-20)
(0.302887 0.483366 -2.21326e-20)
(0.420701 0.532947 1.01592e-21)
(0.499963 0.502864 -5.35263e-20)
(0.560531 0.449888 5.80138e-20)
(0.612409 0.397381 -1.8305e-20)
(0.658662 0.350592 1.0949e-20)
(0.700624 0.309238 9.50667e-21)
(0.739336 0.272116 2.75456e-20)
(0.771009 0.239949 -1.139e-20)
(0.120684 0.24083 -1.57847e-20)
(0.269317 0.45259 4.60113e-20)
(0.383852 0.496986 2.59275e-20)
(0.465225 0.467724 4.24851e-20)
(0.529591 0.417816 -9.76298e-21)
(0.585282 0.36868 3.96948e-21)
(0.63493 0.324974 3.17308e-20)
(0.679814 0.286387 7.10415e-21)
(0.720893 0.251852 6.87169e-22)
(0.754928 0.221863 -1.36413e-20)
(0.103629 0.223986 -3.66987e-20)
(0.237726 0.418489 -2.66634e-21)
(0.349397 0.457834 -1.52705e-20)
(0.432872 0.429853 -6.85463e-20)
(0.500833 0.383433 -6.616e-20)
(0.560092 0.338002 1.10257e-20)
(0.612906 0.297654 -2.71053e-20)
(0.660508 0.26207 1.73328e-20)
(0.703795 0.230303 9.39524e-21)
(0.740089 0.202644 1.9525e-20)
(0.0876579 0.205167 5.4099e-20)
(0.208426 0.381301 -4.42399e-20)
(0.317621 0.415726 -2.24507e-20)
(0.403137 0.389453 3.96654e-20)
(0.47445 0.346911 4.51059e-20)
(0.537003 0.305493 -1.49767e-20)
(0.592731 0.268758 -1.95751e-21)
(0.642826 0.236393 -5.38967e-20)
(0.688142 0.207562 -3.0442e-20)
(0.726565 0.182382 1.16065e-20)
(0.0729702 0.184529 -3.08055e-20)
(0.181706 0.341288 1.29697e-20)
(0.288783 0.370921 4.76776e-20)
(0.376233 0.346746 -2.14007e-20)
(0.450617 0.308437 1.70956e-21)
(0.516161 0.271311 6.02899e-20)
(0.57453 0.238421 2.75144e-21)
(0.626879 0.209471 5.1714e-20)
(0.674031 0.183729 2.15322e-20)
(0.714421 0.161175 -3.42205e-20)
(0.0597473 0.162243 4.2767e-20)
(0.157822 0.298732 4.75068e-21)
(0.263118 0.323695 3.11493e-21)
(0.352352 0.301969 4.35139e-20)
(0.429492 0.268209 -5.78471e-21)
(0.497701 0.235627 -3.78597e-20)
(0.558419 0.206792 1.85161e-20)
(0.612766 0.181432 -2.95962e-20)
(0.661549 0.158917 -1.23491e-20)
(0.703719 0.139127 1.24601e-20)
(0.048151 0.1385 -2.66679e-20)
(0.137007 0.253938 -5.12295e-20)
(0.240832 0.274342 1.18359e-20)
(0.331665 0.255375 -2.31488e-20)
(0.411217 0.226442 -1.39526e-20)
(0.481744 0.198623 3.38059e-20)
(0.5445 0.174026 -8.17629e-21)
(0.600577 0.152411 7.52171e-21)
(0.650774 0.133243 -9.1555e-21)
(0.694514 0.116346 1.81869e-20)
(0.0383224 0.113504 9.66529e-21)
(0.119457 0.207228 3.45166e-20)
(0.222106 0.223171 -4.79228e-20)
(0.31432 0.207226 2.2622e-20)
(0.395912 0.183357 -1.03054e-20)
(0.468392 0.160491 -2.8968e-20)
(0.532863 0.140289 2.36379e-20)
(0.590392 0.122549 4.94131e-21)
(0.641775 0.106835 -7.63707e-22)
(0.686854 0.0929457 -2.1139e-20)
(0.0303803 0.0874723 3.16536e-21)
(0.105342 0.158938 1.11259e-20)
(0.20709 0.170501 4.33735e-20)
(0.300439 0.157798 -8.31371e-21)
(0.383682 0.139189 -6.5484e-21)
(0.457734 0.12143 2.41884e-21)
(0.523584 0.105752 1.07996e-21)
(0.582277 0.0919962 8.81964e-21)
(0.634613 0.0798234 -1.15855e-20)
(0.680778 0.0690425 -7.36362e-21)
(0.0244207 0.0606311 -7.91055e-21)
(0.0947936 0.109416 -1.3542e-20)
(0.195903 0.116665 -3.37257e-20)
(0.290123 0.107375 1.69644e-20)
(0.374609 0.0941767 1.38257e-20)
(0.44984 0.0816459 5.87684e-22)
(0.516722 0.0705948 -2.30784e-20)
(0.576287 0.0609059 -1.02453e-20)
(0.629335 0.0523415 8.11183e-21)
(0.676321 0.0447427 8.68192e-21)
(0.0205153 0.0332155 1.37447e-21)
(0.0879139 0.0590205 -2.83418e-21)
(0.188638 0.0620024 6.40539e-21)
(0.283447 0.0562457 -4.3351e-21)
(0.368755 0.0485673 -3.81941e-21)
(0.444762 0.0413512 -2.58923e-21)
(0.512323 0.0349983 4.75034e-21)
(0.57246 0.0294358 1.80919e-20)
(0.625972 0.0245236 2.61897e-21)
(0.673495 0.0201434 -4.6397e-21)
(0.0187115 0.00546575 1.69984e-21)
(0.0847687 0.00811663 -4.67487e-21)
(0.185353 0.00685881 -5.29675e-21)
(0.280458 0.00470655 -3.67377e-21)
(0.36616 0.00261133 3.49632e-21)
(0.442535 0.000760903 1.57686e-21)
(0.510417 -0.000850181 -1.57055e-21)
(0.570821 -0.00224816 -7.15223e-21)
(0.624539 -0.00346952 2.35408e-21)
(0.672278 -0.00455079 -2.20085e-21)
(0.0190317 -0.0223742 -1.69456e-21)
(0.0853894 -0.0429269 4.66162e-21)
(0.186077 -0.048417 5.28496e-21)
(0.281182 -0.0469446 -5.05845e-21)
(0.366845 -0.0434382 4.45249e-21)
(0.443176 -0.0399077 2.22908e-21)
(0.51102 -0.036764 -3.55842e-21)
(0.571392 -0.0339861 -4.13534e-21)
(0.625086 -0.0315051 6.09918e-22)
(0.672813 -0.0292615 -1.72077e-21)
(0.0214731 -0.0500596 1.85837e-21)
(0.0897726 -0.09374 -5.55338e-21)
(0.190806 -0.103475 1.24246e-20)
(0.285614 -0.0984088 -1.09105e-20)
(0.370807 -0.0893274 -5.17215e-22)
(0.446684 -0.0804371 -7.25864e-21)
(0.514129 -0.0725566 1.17945e-20)
(0.574164 -0.0656196 1.60368e-20)
(0.627583 -0.0594576 2.86629e-21)
(0.674999 -0.0539478 -6.17154e-21)
(0.0260078 -0.0773471 -1.58708e-21)
(0.09788 -0.143954 -1.17105e-20)
(0.199507 -0.157967 -2.72561e-20)
(0.293728 -0.149388 2.3595e-20)
(0.378022 -0.134803 4.86176e-21)
(0.453039 -0.12061 4.30524e-21)
(0.519727 -0.10804 -2.12059e-20)
(0.579123 -0.0969832 -1.25066e-20)
(0.632017 -0.0871709 -2.7833e-21)
(0.678828 -0.0784293 1.90631e-20)
(0.0325829 -0.103997 -5.59132e-21)
(0.109638 -0.193206 7.05245e-21)
(0.212114 -0.211549 4.93336e-20)
(0.305469 -0.199588 -4.43802e-21)
(0.388447 -0.179616 -1.26832e-20)
(0.462201 -0.160212 9.09967e-21)
(0.527781 -0.143029 6.34226e-22)
(0.58624 -0.127916 3.20888e-21)
(0.638364 -0.114503 -7.02867e-21)
(0.684292 -0.102584 -1.8582e-20)
(0.0411211 -0.129776 -3.76687e-21)
(0.124941 -0.241137 2.05115e-20)
(0.228531 -0.26388 -4.96012e-20)
(0.320758 -0.24872 2.14837e-20)
(0.402014 -0.223521 2.05194e-22)
(0.474115 -0.199032 -2.72849e-20)
(0.538242 -0.177343 1.20654e-20)
(0.595472 -0.15826 -1.12644e-21)
(0.646586 -0.141318 4.58155e-21)
(0.691366 -0.126303 -1.37473e-21)
(0.0515212 -0.154458 -4.30933e-20)
(0.143646 -0.287402 -5.15648e-20)
(0.248631 -0.314633 1.35502e-20)
(0.33949 -0.2965 -2.46128e-20)
(0.418638 -0.266278 -6.94959e-21)
(0.488706 -0.236866 1.03986e-20)
(0.551047 -0.210803 3.8559e-21)
(0.606761 -0.187863 1.43253e-20)
(0.656633 -0.167483 -3.0855e-21)
(0.700017 -0.149473 1.66347e-20)
(0.063659 -0.177829 4.12037e-20)
(0.16558 -0.331666 2.65051e-20)
(0.272257 -0.363486 -2.00229e-20)
(0.361538 -0.342657 3.37575e-20)
(0.438211 -0.307656 -2.87086e-21)
(0.505885 -0.273514 -3.65949e-20)
(0.566118 -0.24324 6.41983e-21)
(0.62004 -0.216578 -3.89606e-20)
(0.668444 -0.192865 1.50829e-21)
(0.710204 -0.171977 1.41502e-20)
(0.0773884 -0.199687 -3.04527e-20)
(0.190537 -0.37361 5.46128e-20)
(0.299226 -0.410135 2.1455e-20)
(0.386748 -0.386927 -2.66456e-20)
(0.460608 -0.347433 2.60295e-22)
(0.525544 -0.308788 6.74015e-20)
(0.583361 -0.274491 3.05725e-21)
(0.635226 -0.244262 2.9939e-20)
(0.681948 -0.217342 3.64807e-20)
(0.721876 -0.193705 -2.04611e-20)
(0.0925423 -0.219845 1.70582e-20)
(0.218281 -0.412933 -8.1878e-21)
(0.329324 -0.454287 -1.94007e-20)
(0.414946 -0.429063 1.45602e-20)