/*--------------------------------*- C++ -*----------------------------------*\
  =========                 |
  \\      /  F ield         | OpenFOAM: The Open Source CFD Toolbox
   \\    /   O peration     | Website:  https://openfoam.org
    \\  /    A nd           | Version:  7
     \\/     M anipulation  |
\*---------------------------------------------------------------------------*/
FoamFile
{
    version     2.0;
    format      ascii;
    class       surfaceScalarField;
    location    "30";
    object      phi;
}
// * * * * * * * * * * * * * * * * * * * * * * * * * * * * * * * * * * * * * //

dimensions      [0 3 -1 0 0 0 0];

internalField   nonuniform List<scalar> 
4148
(
0.0784477
0.0249351
0.0241198
0.0682304
0.0762547
0.0263128
0.0217584
0.0551184
0.0249612
0.0650275
0.0736517
0.0275642
0.0128027
0.0275541
0.0174699
0.0391585
0.0218252
0.0507631
0.0255546
0.0612981
0.0705647
0.0286415
0.00755803
0.0138968
0.0118851
0.023227
0.0167543
0.0342893
0.0215525
0.0459649
0.0258357
0.057015
0.066916
0.0294844
0.00364279
0.00500354
0.00667645
0.0108631
0.0108133
0.0190902
0.0157504
0.0293521
0.0209074
0.0408079
0.0257382
0.0521842
0.0626329
0.0300213
0.00139972
0.000432396
0.00309132
0.00331194
0.00579393
0.00816048
0.00964087
0.0152433
0.0144946
0.0244984
0.0198793
0.0354233
0.0252024
0.0468611
0.0576639
0.0301713
0.00114416
-0.000335562
0.00258338
0.00187272
0.0049431
0.00580076
0.00842673
0.0117596
0.0130479
0.0198772
0.0184907
0.0299805
0.024188
0.0411639
0.0519952
0.0298566
0.000291137
-0.00138439
0.000920077
-0.000964502
0.00212617
0.000666624
0.00414867
0.00377826
0.00722634
0.00868196
0.011488
0.0156155
0.0168024
0.0246661
0.0226906
0.0352758
0.0456732
0.0290126
2.44341e-05
-0.000822403
0.000219575
-0.00157953
0.000726759
-0.00147169
0.00172255
-0.000329166
0.00342629
0.00207452
0.00608433
0.00602393
0.0098968
0.011803
0.0149089
0.019654
0.0207537
0.0294309
0.0387992
0.0276277
1.33882e-05
-0.000835791
0.000160096
-0.00172624
0.000562013
-0.0018736
0.00137156
-0.00113871
0.002783
0.000663071
0.00503069
0.00377624
0.00834713
0.00848656
0.0129193
0.0150818
0.0184633
0.023887
0.0314734
0.025789
4.8248e-06
-0.000840616
0.000110944
-0.00183236
0.000422592
-0.00218525
0.00106937
-0.00178549
0.00221865
-0.000486213
0.00408109
0.00191381
0.00689284
0.0056748
0.0109116
0.011063
0.0159814
0.0188172
0.0238116
0.0236433
-2.068e-06
-0.000838548
7.01921e-05
-0.00190462
0.000304683
-0.00241974
0.00081036
-0.00229117
0.00172823
-0.00140408
0.00323978
0.000402248
0.0055645
0.00335009
0.00895736
0.00767014
0.0135054
0.0142692
0.0195263
0.0177906
-7.5942e-06
-0.000830954
3.60144e-05
-0.00194823
0.000204399
-0.00258813
0.000588247
-0.00267501
0.00130423
-0.00212006
0.00250388
-0.000797403
0.00437771
0.00147626
0.00713762
0.00491023
0.0110754
0.0103314
0.0154382
0.0151635
-1.21266e-05
-0.000818827
6.9792e-06
-0.00196733
0.000118165
-0.00269931
0.000396943
-0.00295379
0.000938465
-0.00266158
0.0018666
-0.00172554
0.00334079
2.08234e-06
0.00554023
0.00271079
0.00884857
0.00702302
0.0116725
0.0126143
-1.62886e-05
-0.000802539
-1.8983e-05
-0.00196464
4.2884e-05
-0.00276118
0.000231059
-0.00314197
0.000622962
-0.00305349
0.00131883
-0.00242141
0.00244984
-0.00112893
0.00417416
0.000986463
0.00685682
0.00434037
0.0083156
0.0102138
-2.02609e-05
-0.000782278
-4.23794e-05
-0.00194252
-2.38441e-05
-0.00277972
8.60942e-05
-0.0032519
0.00035047
-0.00331786
0.000850338
-0.00292127
0.00169349
-0.00197208
0.00302125
-0.000341302
0.00513914
0.00222248
0.0054205
0.00803425
-2.4202e-05
-0.000758076
-6.40082e-05
-0.00190271
-8.39128e-05
-0.00275981
-4.16009e-05
-0.00329422
0.00011462
-0.00347408
0.00045107
-0.00325772
0.00105733
-0.00257834
0.00205955
-0.00134352
0.0037015
0.000580533
0.00300167
0.00612033
-2.82099e-05
-0.000729866
-8.44236e-05
-0.0018465
-0.000138606
-0.00270563
-0.000154989
-0.00327783
-9.02334e-05
-0.00353884
0.00011102
-0.00345898
0.00052473
-0.00299205
0.00126276
-0.00208155
0.00251702
-0.000673726
0.00104275
0.00447594
-3.23284e-05
-0.000697538
-0.000103964
-0.00177486
-0.000189007
-0.00262059
-0.000256527
-0.00321031
-0.000269252
-0.00352611
-0.000179635
-0.00354859
7.84616e-05
-0.00325015
0.000600759
-0.00260385
0.0015409
-0.00161387
-0.000489908
0.00307355
-3.65655e-05
-0.000660972
-0.000122834
-0.00168859
-0.000235902
-0.00250752
-0.000348312
-0.0030979
-0.000427112
-0.00344731
-0.000430518
-0.00354519
-0.000302103
-0.00337857
3.38252e-05
-0.00293978
0.000727056
-0.0023071
-0.00163469
0.00187184
-4.09033e-05
-0.000620069
-0.000141139
-0.00158836
-0.000279863
-0.00236879
-0.000432053
-0.00294572
-0.000567865
-0.0033115
-0.000649982
-0.00346307
-0.000628483
-0.00340006
-0.000429525
-0.00313874
5.42022e-05
-0.00279082
-0.00240848
0.000827991
-4.53039e-05
-0.000574765
-0.000158893
-0.00147477
-0.000321252
-0.00220643
-0.000509053
-0.00275791
-0.000694815
-0.00312574
-0.000844959
-0.00331293
-0.000915883
-0.00332914
-0.000848585
-0.00320604
-0.000591066
-0.00304834
-0.00289838
-0.000101162
-4.97091e-05
-0.000525056
-0.000176029
-0.00134845
-0.000360215
-0.00202225
-0.000580136
-0.00253799
-0.000810238
-0.00289564
-0.00102033
-0.00310284
-0.00117311
-0.00317636
-0.00122306
-0.00315609
-0.00113614
-0.00313526
-0.00317842
-0.000856109
-5.40411e-05
-0.000471015
-0.00019239
-0.0012101
-0.000396674
-0.00181796
-0.000645629
-0.00228904
-0.000915375
-0.00262589
-0.0011789
-0.00283932
-0.00140491
-0.00295035
-0.00155924
-0.00300175
-0.00161996
-0.00307454
-0.00324381
-0.00155456
-5.82037e-05
-0.000412811
-0.000207746
-0.00106056
-0.00043035
-0.00159536
-0.000705404
-0.00201398
-0.00101054
-0.00232075
-0.00132175
-0.00252811
-0.00161335
-0.00265875
-0.00186075
-0.00275435
-0.00205183
-0.00288346
-0.00312001
-0.00217564
-6.20856e-05
-0.000350725
-0.000221804
-0.00090084
-0.000460795
-0.00135637
-0.00075896
-0.00171582
-0.00109531
-0.0019844
-0.0014486
-0.00217481
-0.00179817
-0.00230917
-0.00212731
-0.00242522
-0.00243161
-0.00257916
-0.00283629
-0.00271533
-6.55674e-05
-0.000285158
-0.000234232
-0.000732175
-0.000487453
-0.00110315
-0.000805538
-0.00139774
-0.00116872
-0.00162122
-0.00155821
-0.00178532
-0.00195764
-0.00190975
-0.0023565
-0.00202636
-0.00275627
-0.00217939
-0.00242181
-0.00317076
-6.85295e-05
-0.000216629
-0.000244689
-0.000556015
-0.000509722
-0.000838115
-0.000844252
-0.0010632
-0.00122955
-0.00123592
-0.00164889
-0.00136598
-0.00208934
-0.00146929
-0.00254511
-0.00157059
-0.00302196
-0.00170254
-0.00190459
-0.00353917
-7.08617e-05
-0.000145767
-0.000252857
-0.00037402
-0.000527021
-0.00056395
-0.00087422
-0.000716006
-0.00127653
-0.000833614
-0.00171882
-0.000923686
-0.00219076
-0.000997361
-0.00268988
-0.00107147
-0.00322491
-0.00116751
-0.00131145
-0.00381806
-7.2472e-05
-7.32948e-05
-0.000258465
-0.000188028
-0.000538857
-0.000283557
-0.000894674
-0.00036019
-0.00130855
-0.000419741
-0.00176643
-0.000465798
-0.00225971
-0.000504085
-0.00278807
-0.00054311
-0.00336204
-0.000593534
-0.000668206
-0.00400528
-7.32945e-05
-0.00026132
-0.00054487
-0.000905049
-0.00132477
-0.00179055
-0.0022946
-0.00283768
-0.00343116
-0.00409931
0.215121
-0.00132964
0.21655
-0.00142978
0.218079
-0.00152854
0.219705
-0.00162574
0.221426
-0.00172124
0.223241
-0.00181484
0.225147
-0.00190644
0.227143
-0.00199576
0.229226
-0.00208296
0.231393
-0.00216708
-0.00225152
0.233645
0.205277
-0.00260452
0.206647
-0.00279969
0.20811
-0.00299209
0.209666
-0.0031814
0.211312
-0.00336731
0.213046
-0.00354946
0.214868
-0.00372764
0.216773
-0.0039013
0.218761
-0.00407075
0.220828
-0.0042341
-0.0043979
0.222974
0.196011
-0.00383053
0.197327
-0.00411618
0.198733
-0.00439772
0.200226
-0.00467467
0.201805
-0.0049466
0.203469
-0.00521296
0.205215
-0.00547347
0.207041
-0.00572729
0.208945
-0.00597492
0.210924
-0.00621353
-0.00645292
0.212979
0.187273
-0.00501354
0.188543
-0.00538551
0.189897
-0.00575207
0.191335
-0.0061126
0.192855
-0.00646652
0.194455
-0.00681315
0.196134
-0.0071521
0.197889
-0.00748226
0.199718
-0.00780435
0.201619
-0.00811456
-0.00842605
0.203592
0.179016
-0.00615802
0.180243
-0.00661247
0.181552
-0.00706026
0.18294
-0.00750063
0.184406
-0.00793289
0.185949
-0.00835618
0.187567
-0.00877004
0.189258
-0.00917312
0.19102
-0.00956633
0.19285
-0.00994485
-0.0103255
0.194749
0.171198
-0.00726778
0.172386
-0.00780114
0.173653
-0.00832665
0.174996
-0.00884342
0.176413
-0.00935062
0.177904
-0.00984726
0.179467
-0.0103328
0.1811
-0.0108056
0.1828
-0.0112669
0.184566
-0.0117108
-0.0121579
0.186399
0.163781
-0.00834597
0.164935
-0.0089549
0.166163
-0.00955484
0.167465
-0.0101448
0.168838
-0.0107238
0.170281
-0.0112907
0.171793
-0.0118449
0.173372
-0.0123846
0.175017
-0.0129111
0.176723
-0.0134175
-0.0139286
0.178494
0.156736
-0.00939521
0.157858
-0.0100765
0.159051
-0.0107478
0.160314
-0.0114079
0.161646
-0.0120557
0.163045
-0.0126899
0.16451
-0.0133101
0.166039
-0.0139138
0.167631
-0.014503
0.169283
-0.0150692
-0.0156422
0.170997
0.150035
-0.0104177
0.151126
-0.0111684
0.152287
-0.0119081
0.153514
-0.0126353
0.154808
-0.0133492
0.156166
-0.014048
0.157587
-0.0147314
0.15907
-0.0153965
0.160613
-0.0160459
0.162213
-0.0166695
-0.0173023
0.163873
0.143653
-0.0114152
0.144717
-0.0122324
0.145847
-0.0130376
0.147041
-0.0138294
0.148298
-0.0146065
0.149617
-0.0153673
0.150997
-0.0161113
0.152436
-0.0168354
0.153933
-0.0175425
0.155484
-0.0182212
-0.0189118
0.157094
0.137571
-0.0123892
0.138609
-0.0132702
0.139709
-0.0141382
0.140872
-0.0149917
0.142095
-0.0158295
0.143377
-0.0166498
0.144718
-0.017452
0.146115
-0.0182326
0.147568
-0.0189952
0.149073
-0.0197266
-0.0204732
0.150634
0.130818
-0.0123868
0.131769
-0.0133411
0.132782
-0.014283
0.133855
-0.0152112
0.134987
-0.016124
0.136178
-0.0170199
0.137425
-0.0178971
0.138728
-0.0187551
0.140086
-0.0195899
0.141496
-0.0204057
0.142957
-0.0211876
-0.0219882
0.144472
0.125302
-0.0132583
0.126233
-0.0142717
0.127222
-0.0152721
0.128268
-0.0162578
0.129372
-0.0172272
0.130531
-0.0181789
0.131744
-0.0191106
0.133011
-0.020022
0.13433
-0.0209088
0.1357
-0.0217755
0.137118
-0.0226059
-0.0234585
0.138588
0.120036
-0.0141121
0.120947
-0.015182
0.121913
-0.0162381
0.122934
-0.0172789
0.124009
-0.0183025
0.125138
-0.0193074
0.126318
-0.0202913
0.12755
-0.0212539
0.128832
-0.0221903
0.130162
-0.0231058
0.131539
-0.0239824
-0.0248852
0.132965
0.115008
-0.0149488
0.115898
-0.0160725
0.116842
-0.0171819
0.117838
-0.0182752
0.118886
-0.0193506
0.119985
-0.0204064
0.121134
-0.0214401
0.122331
-0.0224515
0.123577
-0.0234354
0.124868
-0.0243975
0.126204
-0.0253183
-0.0262692
0.127588
0.110204
-0.0157688
0.111075
-0.0169437
0.111997
-0.0181039
0.112969
-0.0192473
0.113991
-0.0203719
0.11506
-0.0214762
0.116178
-0.0225575
0.117342
-0.0236156
0.118551
-0.0246447
0.119805
-0.0256512
0.121101
-0.0266143
-0.0276113
0.122443
0.105615
-0.0165723
0.106467
-0.017796
0.107368
-0.0190044
0.108316
-0.0201954
0.109311
-0.021367
0.110352
-0.0225174
0.111439
-0.023644
0.11257
-0.0247464
0.113744
-0.0258188
0.11496
-0.0268677
0.116217
-0.0278712
-0.0289123
0.117518
0.101231
-0.0173595
0.102065
-0.0186294
0.102944
-0.0198836
0.103868
-0.0211198
0.104837
-0.0223361
0.10585
-0.0235304
0.106907
-0.0247002
0.108005
-0.0258448
0.109145
-0.0269586
0.110325
-0.0280478
0.111544
-0.0290901
-0.0301735
0.112805
0.0970436
-0.0181307
0.0978585
-0.0194443
0.0987167
-0.0207418
0.0996176
-0.0220208
0.100561
-0.0232795
0.101546
-0.0245153
0.102572
-0.0257267
0.103639
-0.0269115
0.104746
-0.0280656
0.105891
-0.0291928
0.107074
-0.030273
-0.0313953
0.108296
0.0930438
-0.0188857
0.0938401
-0.0202406
0.0946777
-0.0215794
0.0955559
-0.022899
0.0964747
-0.0241983
0.0974327
-0.0254733
0.0984307
-0.0267247
0.0994659
-0.0279467
0.100541
-0.0291408
0.101651
-0.0303025
0.102799
-0.0314208
-0.032575
0.103978
0.0892256
-0.0196246
0.0900034
-0.0210184
0.0908203
-0.0223963
0.0916759
-0.0237545
0.0925709
-0.0250934
0.0935035
-0.0264058
0.0944757
-0.0276969
0.0954812
-0.0289522
0.0965261
-0.0301856
0.0975968
-0.0313732
0.0987056
-0.0325296
-0.0336988
0.0998294
0.085584
-0.0203484
0.0863446
-0.021779
0.0871422
-0.0231939
0.0879758
-0.0245881
0.0888468
-0.0259644
0.0897521
-0.0273111
0.0906965
-0.0286412
0.0916689
-0.0299247
0.0926807
-0.0311974
0.0937013
-0.0323939
0.094757
-0.0335853
-0.0347304
0.0957886
0.0821131
-0.0210575
0.0828576
-0.0225235
0.0836376
-0.0239739
0.0844519
-0.0254024
0.0853003
-0.0268127
0.0861772
-0.028188
0.0870862
-0.0295503
0.0880102
-0.0308487
0.0889668
-0.032154
0.0899031
-0.0333301
0.0908662
-0.0345484
-0.0355945
0.0917302
0.0788101
-0.0217512
0.0795364
-0.0232498
0.0802949
-0.0247325
0.0810847
-0.0261922
0.081904
-0.0276321
0.0827457
-0.0290298
0.0836072
-0.0304117
0.0844619
-0.0317034
0.0853225
-0.0330146
0.0861094
-0.034117
0.0868948
-0.0353337
-0.036163
0.0874633
0.0756724
-0.0224284
0.0763765
-0.023954
0.0771047
-0.0254607
0.077854
-0.0269414
0.0786184
-0.0283965
0.0793909
-0.0298023
0.0801605
-0.0311814
0.0808987
-0.0324415
0.0815964
-0.0337123
0.0821479
-0.0346686
0.0826235
-0.0358093
-0.0362517
0.0827123
0.07268
-0.0230819
0.0733523
-0.0246262
0.0740372
-0.0261456
0.0747268
-0.027631
0.0754061
-0.0290758
0.0760606
-0.0304567
0.0766612
-0.0317821
0.0771808
-0.0329611
0.077577
-0.0341086
0.0777516
-0.0348432
0.077722
-0.0357797
-0.0356334
0.0771036
0.0697889
-0.0236909
0.0704034
-0.0252407
0.0710141
-0.0267563
0.071608
-0.0282249
0.0721615
-0.0296292
0.0726462
-0.0309415
0.0730062
-0.032142
0.0731964
-0.0331512
0.0731152
-0.0340274
0.0727004
-0.0344283
0.0718748
-0.0349541
-0.0340822
0.0703236
0.066948
-0.024225
0.0674645
-0.0257572
0.0679476
-0.0272394
0.0683746
-0.0286519
0.0687116
-0.0299662
0.0689149
-0.0311448
0.0689117
-0.0321388
0.0686335
-0.0328731
0.0679256
-0.0333195
0.0667379
-0.0332406
0.0648457
-0.0330619
-0.0314607
0.0622241
0.0641055
-0.0246523
0.0644804
-0.0261321
0.0647738
-0.0275328
0.0649446
-0.0288227
0.0649377
-0.0299594
0.064683
-0.03089
0.0640913
-0.0315472
0.0630742
-0.031856
0.0614941
-0.0317393
0.0593309
-0.0310774
0.0562835
-0.0300145
-0.0278358
0.0526587
0.0612136
0.0613943
0.0614258
0.0612446
0.0607696
0.0599009
0.0585251
0.0565257
0.053799
0.0503493
0.0461238
0.0419312
0.234933
-0.00128819
0.236216
-0.00128355
0.23748
-0.00126377
0.23871
-0.00122986
0.23989
-0.00118051
0.241006
-0.00111522
0.242037
-0.00103113
0.242965
-0.000928493
0.24377
-0.000804532
0.244431
-0.00066132
0.244927
-0.000495906
0.245239
-0.000312126
0.245345
-0.000105879
0.245229
0.000116013
0.24487
0.000359423
0.244255
0.000614201
0.243367
0.000888336
0.242203
0.00116403
0.240749
0.00145379
0.23902
0.0017289
0.237012
0.00200834
0.234764
0.0022484
0.232287
0.00247694
0.229654
0.00263295
0.226887
0.00276629
0.224086
0.00280195
0.221248
0.002838
0.218467
0.00278034
0.215667
0.00279976
0.0027431
0.224212
-0.00252622
0.225445
-0.0025162
0.226657
-0.00247601
0.227836
-0.00240892
0.228967
-0.00231101
0.230034
-0.00218202
0.231018
-0.00201577
0.231904
-0.00181393
0.232669
-0.00156986
0.233297
-0.00128922
0.233765
-0.000964275
0.234058
-0.000604908
0.234152
-0.000200046
0.234035
0.000233298
0.233683
0.000710985
0.23309
0.00120797
0.232232
0.00174623
0.231113
0.00228329
0.229713
0.00285309
0.228054
0.00338833
0.226123
0.00393935
0.223967
0.0044046
0.221586
0.00485743
0.219063
0.00515568
0.216406
0.00542351
0.213727
0.00548119
0.211007
0.00555801
0.208359
0.00542851
0.205691
0.00546777
0.00534655
0.21418
-0.00372707
0.215373
-0.00370944
0.216544
-0.00364705
0.217681
-0.00354511
0.218767
-0.00339775
0.21979
-0.00320503
0.220732
-0.00295728
0.221576
-0.00265788
0.222302
-0.00229625
0.222895
-0.00188208
0.223333
-0.00140246
0.223602
-0.000873779
0.223679
-0.000277427
0.223554
0.000359041
0.223202
0.00106249
0.222619
0.00179155
0.221781
0.00258389
0.220693
0.00337116
0.219336
0.00421056
0.217729
0.0049947
0.215861
0.00580743
0.213779
0.00648722
0.211481
0.00715531
0.20905
0.00758593
0.206494
0.00797952
0.203924
0.00805129
0.201322
0.00816069
0.198796
0.00795445
0.196258
0.00800552
0.00781743
0.204764
-0.00489925
0.205926
-0.0048706
0.207062
-0.00478304
0.20816
-0.00464385
0.209208
-0.00444514
0.21019
-0.00418758
0.211091
-0.00385786
0.211895
-0.00346152
0.212582
-0.00298383
0.213139
-0.00243905
0.213545
-0.00180863
0.213787
-0.00111603
0.213844
-0.000334156
0.213705
0.000497948
0.213348
0.00141956
0.212768
0.0023715
0.211943
0.00340904
0.210878
0.00443621
0.209553
0.00553612
0.207988
0.00655878
0.206171
0.00762479
0.204149
0.00850889
0.201921
0.00938414
0.19957
0.00993641
0.197103
0.0104466
0.194632
0.0105219
0.192139
0.0106544
0.18973
0.0103633
0.187318
0.0104171
0.0101579
0.195899
-0.00604918
0.197034
-0.00600533
0.19814
-0.00588865
0.199205
-0.00570896
0.200216
-0.0054562
0.20116
-0.00513192
0.202021
-0.004719
0.202785
-0.00422558
0.203434
-0.00363258
0.203955
-0.00295948
0.204327
-0.00218145
0.204541
-0.00132974
0.204575
-0.000367602
0.204419
0.000653306
0.204053
0.0017863
0.203472
0.00295248
0.202653
0.00422731
0.201605
0.00548466
0.200304
0.0068372
0.198774
0.0080886
0.196998
0.00940083
0.195027
0.0104793
0.192857
0.0115547
0.190576
0.0122171
0.188188
0.0128349
0.185809
0.0129007
0.183417
0.0130465
0.181121
0.0126595
0.178831
0.0127066
0.0123705
0.187531
-0.00718132
0.188643
-0.0071173
0.189721
-0.00696679
0.190755
-0.00674264
0.191731
-0.00643257
0.192638
-0.00603921
0.193461
-0.00554134
0.194185
-0.00495029
0.194795
-0.00424228
0.195278
-0.00344287
0.195617
-0.00251998
0.195801
-0.00151363
0.195809
-0.000375902
0.195635
0.000827315
0.195256
0.00216555
0.194671
0.00353761
0.193855
0.00504267
0.192819
0.00652082
0.191537
0.00811928
0.190036
0.0095899
0.188294
0.0111428
0.186367
0.0124058
0.184246
0.0136757
0.182028
0.0144354
0.17971
0.0151528
0.177417
0.0151939
0.17512
0.0153431
0.172933
0.0148469
0.170762
0.0148778
0.0144577
0.179611
-0.00829848
0.180702
-0.00820854
0.181754
-0.00801881
0.182758
-0.00774582
0.1837
-0.00737486
0.18457
-0.00690982
0.185354
-0.00632497
0.186039
-0.00563553
0.18661
-0.00481264
0.187056
-0.00388886
0.187359
-0.00282365
0.187513
-0.00166698
0.187495
-0.000357903
0.187301
0.00102126
0.186907
0.00255908
0.186316
0.00412878
0.185501
0.00585776
0.184474
0.0075474
0.183207
0.00938616
0.181731
0.0110665
0.180018
0.012856
0.17813
0.0142934
0.176052
0.0157539
0.17389
0.0165972
0.171636
0.0174072
0.169423
0.017406
0.167216
0.0175501
0.165135
0.0169286
0.163078
0.0169346
0.0164221
0.1721
-0.00940202
0.173171
-0.00927965
0.174197
-0.00904481
0.17517
-0.00871834
0.176078
-0.0082828
0.176911
-0.00774344
0.177656
-0.0070695
0.178301
-0.00628091
0.178832
-0.00534332
0.17924
-0.00429725
0.179509
-0.00309222
0.179631
-0.00178949
0.179587
-0.000313069
0.179372
0.0012357
0.178963
0.0029678
0.178365
0.0047269
0.177549
0.0066741
0.17653
0.00856591
0.175276
0.0106403
0.173822
0.0125209
0.172133
0.0145446
0.170281
0.016146
0.16824
0.0177949
0.166131
0.0187063
0.163934
0.0196039
0.1618
0.0195403
0.159677
0.0196725
0.157699
0.0189072
0.155752
0.018881
0.0182663
0.164963
-0.010492
0.166013
-0.01033
0.167012
-0.0100438
0.167953
-0.00965919
0.168826
-0.00915552
0.169622
-0.00853926
0.170326
-0.0077742
0.170931
-0.00688587
0.171422
-0.00583406
0.171793
-0.00466802
0.172026
-0.00332578
0.172118
-0.00188125
0.172046
-0.0002414
0.171812
0.00147059
0.171387
0.00339188
0.170782
0.0053321
0.169964
0.00749228
0.168953
0.00957685
0.16771
0.0118832
0.166277
0.0139543
0.16461
0.0162112
0.162791
0.0179657
0.160783
0.0198028
0.158723
0.0207656
0.15658
0.0217477
0.154521
0.0215992
0.152478
0.021715
0.150601
0.0207846
0.148761
0.020721
0.0199927
0.158169
-0.0115673
0.159197
-0.0113577
0.160167
-0.0110138
0.161075
-0.0105667
0.161911
-0.0099917
0.162668
-0.00929615
0.163332
-0.00843816
0.163896
-0.00744983
0.164346
-0.00628478
0.16468
-0.00500141
0.164879
-0.00352471
0.16494
-0.00194264
0.164842
-0.000143391
0.164587
0.00172543
0.164148
0.00383085
0.163536
0.00594395
0.162716
0.00831218
0.161713
0.01058
0.160481
0.0131152
0.159069
0.015367
0.157422
0.0178576
0.155634
0.019754
0.153656
0.0217807
0.151644
0.022777
0.14955
0.0238425
0.147564
0.0235844
0.145598
0.0236818
0.14382
0.0225626
0.142082
0.022459
0.021604
0.151693
-0.0126257
0.152695
-0.0123602
0.153634
-0.0119524
0.154506
-0.0114387
0.155304
-0.0107898
0.15602
-0.0100127
0.156643
-0.00906043
0.157165
-0.0079723
0.157576
-0.00669571
0.157872
-0.00529785
0.158037
-0.00368966
0.158069
-0.00197438
0.157946
-2.00348e-05
0.157672
0.00199942
0.157219
0.00428374
0.156601
0.00656167
0.15578
0.009133
0.154786
0.0115747
0.153565
0.014336
0.152173
0.0167587
0.150546
0.0194847
0.148788
0.0215116
0.146838
0.0237309
0.144873
0.0247419
0.142824
0.0258914
0.140912
0.0254972
0.139017
0.0255768
0.137336
0.0242428
0.135696
0.0240991
0.0231028
0.14551
-0.0136639
0.146484
-0.0133337
0.147388
-0.0128564
0.148222
-0.0122729
0.14898
-0.0115481
0.149655
-0.0106875
0.150235
-0.00964011
0.150716
-0.00845301
0.151087
-0.0070674
0.151347
-0.00555797
0.151479
-0.00382162
0.151482
-0.00197716
0.151335
0.000126948
0.151043
0.00229161
0.150578
0.0047491
0.149955
0.00718427
0.149135
0.00995347
0.148149
0.01256
0.146941
0.0155447
0.14557
0.018129
0.143962
0.0210928
0.142235
0.0232389
0.140311
0.0256551
0.138392
0.0266609
0.136386
0.027897
0.134545
0.0273386
0.132718
0.0274033
0.131135
0.0258267
0.129588
0.0256457
0.0244917
0.139602
-0.0146778
0.140543
-0.014274
0.141409
-0.0137224
0.142203
-0.013067
0.14292
-0.0122649
0.143551
-0.0113191
0.144088
-0.0101766
0.144527
-0.00889209
0.14486
-0.00740078
0.145085
-0.00578254
0.145185
-0.00392197
0.14516
-0.00195238
0.144991
0.000296335
0.144682
0.00260059
0.144206
0.00522529
0.143579
0.00781075
0.142761
0.010772
0.141786
0.0135349
0.14059
0.0167401
0.139242
0.019477
0.137654
0.0226816
0.135957
0.0249358
0.134058
0.0275542
0.132184
0.0285347
0.13022
0.029861
0.128449
0.0291099
0.126688
0.0291641
0.125198
0.027316
0.123741
0.0271032
0.0257737
0.13395
-0.0156622
0.134852
-0.0151765
0.135677
-0.0145473
0.136429
-0.013819
0.137103
-0.0129389
0.13769
-0.0119061
0.138183
-0.0106697
0.138581
-0.00929016
0.138877
-0.0076971
0.139067
-0.00597257
0.139138
-0.00399229
0.139087
-0.0019012
0.138897
0.000486276
0.138572
0.00292548
0.138086
0.00571065
0.137457
0.00844051
0.136642
0.0115869
0.135678
0.0144989
0.134497
0.0179207
0.133172
0.0208025
0.131603
0.0242506
0.129936
0.0266025
0.128062
0.0294285
0.126233
0.0303639
0.124309
0.0317844
0.122607
0.0308119
0.12091
0.0308616
0.119513
0.0287129
0.11814
0.0284757
0.0269517
0.128537
-0.0166113
0.129397
-0.016036
0.130178
-0.0153282
0.130886
-0.0145273
0.131516
-0.0135684
0.132057
-0.0124475
0.132507
-0.01112
0.132865
-0.00964822
0.133126
-0.00795763
0.133282
-0.00612894
0.133324
-0.00403393
0.133247
-0.00182434
0.133038
0.000695558
0.132697
0.00326631
0.132203
0.00620433
0.13157
0.00907402
0.130759
0.0123972
0.129806
0.0154523
0.128641
0.0190852
0.127338
0.0221053
0.12579
0.0257986
0.124154
0.0282389
0.122305
0.0312776
0.120521
0.0321484
0.118638
0.0336673
0.117004
0.0324457
0.115368
0.0324972
0.114062
0.0300194
0.112771
0.029767
0.0280288
0.12335
-0.0175189
0.124162
-0.0168479
0.124897
-0.0160632
0.125561
-0.0151909
0.126145
-0.0141523
0.12664
-0.0129429
0.127048
-0.0115281
0.127367
-0.00996704
0.127592
-0.00818287
0.127715
-0.00625148
0.127728
-0.00404676
0.127624
-0.00172078
0.127395
0.000925102
0.127036
0.0036253
0.126533
0.0067075
0.125893
0.00971372
0.125087
0.0132035
0.124142
0.0163968
0.122995
0.0202325
0.121715
0.0233856
0.12019
0.0273236
0.118585
0.0298438
0.116763
0.033099
0.115024
0.033887
0.113184
0.0355076
0.111619
0.0340111
0.110046
0.0340704
0.108827
0.0312376
0.107615
0.0309797
0.0290078
0.118377
-0.0183779
0.119138
-0.0176082
0.119826
-0.0167515
0.120444
-0.0158088
0.12098
-0.0146889
0.121429
-0.0133917
0.121795
-0.0118938
0.122073
-0.0102453
0.12226
-0.00837038
0.122346
-0.00633664
0.122326
-0.00402666
0.12219
-0.00158519
0.121935
0.0011803
0.121551
0.00400868
0.121034
0.00722486
0.120383
0.0103647
0.119579
0.0140075
0.118641
0.0173344
0.117513
0.0213606
0.116257
0.024642
0.11476
0.0288208
0.11319
0.0314136
0.111402
0.0348869
0.109714
0.0355756
0.107921
0.0373
0.106426
0.0355059
0.104918
0.0355785
0.103788
0.0323683
0.102653
0.0321149
0.0298906
0.113608
-0.0191805
0.114314
-0.0183141
0.114955
-0.0173925
0.115524
-0.0163781
0.116009
-0.0151742
0.116408
-0.0137902
0.116726
-0.0122121
0.116957
-0.0104759
0.117097
-0.00851077
0.117134
-0.00637344
0.117069
-0.0039616
0.116888
-0.00140479
0.116595
0.00147349
0.116176
0.004428
0.115636
0.0077651
0.114966
0.0110342
0.114162
0.0148114
0.113231
0.018266
0.112127
0.0224642
0.1109
0.0258687
0.109442
0.0302794
0.107917
0.0329383
0.106175
0.0366285
0.104546
0.0372045
0.102813
0.0390335
0.101395
0.036924
0.0999588
0.0370145
0.0989169
0.0334101
0.0978613
0.0331705
0.0306784
0.109033
-0.0199175
0.109681
-0.0189622
0.110271
-0.0179825
0.110783
-0.0168905
0.111207
-0.0155979
0.111543
-0.0141267
0.111799
-0.0124676
0.111962
-0.0106396
0.112034
-0.00858207
0.111999
-0.00633869
0.111865
-0.00382789
0.111618
-0.00115713
0.111266
0.00182469
0.110795
0.0048992
0.110221
0.00833888
0.109528
0.0117278
0.108725
0.0156139
0.107805
0.019186
0.106739
0.0235306
0.105557
0.0270512
0.104157
0.031679
0.102697
0.0343987
0.101023
0.0383019
0.0994722
0.0387556
0.097816
0.0406897
0.0964862
0.0382537
0.0951342
0.0383665
0.0941857
0.0343587
0.093215
0.0341412
0.0313701
0.104635
-0.0205739
0.105218
-0.0195454
0.105743
-0.018508
0.106177
-0.0173246
0.106515
-0.0159357
0.106762
-0.0143734
0.106921
-0.0126263
0.10698
-0.0106991
0.106943
-0.00854495
0.106798
-0.00619418
0.10656
-0.0035897
0.106215
-0.000812022
0.105782
0.00225758
0.105244
0.00543721
0.104631
0.00895256
0.103915
0.0124432
0.103125
0.0164037
0.102234
0.0200771
0.101231
0.0245342
0.10012
0.0281617
0.0988135
0.0329857
0.0974496
0.0357626
0.0958788
0.0398727
0.0944335
0.0402009
0.0928823
0.042241
0.0916594
0.0394766
0.0904095
0.0396164
0.0895627
0.0352055
0.0886866
0.0350173
0.0319626
0.100377
-0.0211219
0.100875
-0.0200429
0.101302
-0.0189349
0.101615
-0.0176376
0.10182
-0.0161409
0.101924
-0.0144774
0.101928
-0.0126302
0.101825
-0.0105959
0.101623
-0.00834328
0.10132
-0.00589085
0.100936
-0.00320589
0.100465
-0.000340629
0.0999329
0.00278916
0.0993245
0.00604564
0.0986784
0.00959862
0.0979599
0.0131617
0.0972102
0.0171534
0.0963824
0.0209049
0.0954826
0.0254339
0.0944874
0.0291569
0.0933212
0.0341519
0.0920986
0.0369852
0.0906765
0.0412948
0.0893752
0.0415022
0.0879652
0.0436509
0.0868743
0.0405676
0.0857506
0.0407401
0.0850181
0.035938
0.0842501
0.0357853
0.0324504
0.096182
-0.0215153
0.0965467
-0.0204075
0.0968089
-0.0191971
0.0969284
-0.0177572
0.096925
-0.0161374
0.096806
-0.0143584
0.0965754
-0.0123996
0.0962373
-0.0102578
0.0958099
-0.00791589
0.0953026
-0.00538348
0.094744
-0.0026473
0.0941345
0.000268806
0.0935092
0.00341447
0.0928502
0.00670464
0.0922022
0.0102467
0.0915213
0.0138426
0.0908581
0.0178166
0.090145
0.021618
0.0894038
0.0261751
0.0885794
0.0299812
0.0876118
0.0351195
0.0865848
0.0380123
0.0853655
0.0425141
0.0842531
0.0426145
0.0830271
0.0448769
0.0820983
0.0414964
0.0811291
0.0417092
0.0805266
0.0365405
0.0798837
0.0364282
0.0328258
0.0918989
-0.021684
0.0920478
-0.0205564
0.0920411
-0.0191904
0.0918646
-0.0175807
0.0915507
-0.0158235
0.0911113
-0.013919
0.0905624
-0.0118507
0.0899256
-0.00962103
0.0892316
-0.0072219
0.0885035
-0.00465538
0.0877754
-0.00191919
0.0870521
0.000992165
0.0863719
0.00409466
0.0857126
0.00736387
0.085118
0.0108412
0.0845356
0.0144251
0.0840191
0.0183331
0.0834827
0.0221544
0.0829605
0.0266973
0.0823668
0.0305749
0.0816574
0.0358289
0.0808818
0.0387878
0.0799207
0.0434753
0.079044
0.0434913
0.0780461
0.0458747
0.0773111
0.0422314
0.0765265
0.0424938
0.0760714
0.0369957
0.075572
0.0369275
0.0330803
0.0872982
-0.0215188
0.0871039
-0.0203621
0.086693
-0.0187796
0.086101
-0.0169887
0.0853701
-0.0150926
0.0845262
-0.0130751
0.0836066
-0.0109311
0.0826522
-0.00866666
0.0817037
-0.00627338
0.0807923
-0.00374395
0.0799501
-0.00107697
0.0791828
0.0017594
0.0785199
0.00475763
0.0779358
0.00794798
0.0774656
0.0113114
0.0770505
0.0148402
0.0767423
0.0186414
0.0764419
0.0224547
0.0761921
0.0269471
0.0758814
0.0308857
0.0754807
0.0362296
0.0750046
0.039264
0.0743497
0.0441302
0.0737498
0.0440912
0.0730203
0.0466041
0.0725085
0.0427433
0.0719369
0.0430654
0.0716458
0.0372868
0.071308
0.0372653
0.0332055
0.0820836
-0.0208901
0.0813753
-0.0196538
0.0804202
-0.0178245
0.0793111
-0.0158795
0.0780964
-0.0138779
0.0768273
-0.011806
0.0755619
-0.00966576
0.0743511
-0.00745592
0.0732347
-0.00515697
0.0722396
-0.00274887
0.0713869
-0.000224179
0.0706757
0.00247053
0.0701204
0.00531292
0.0696921
0.00837628
0.0694141
0.0115894
0.0692252
0.0150291
0.0691723
0.0186942
0.0691504
0.0224766
0.0692074
0.0268901
0.0692133
0.0308799
0.0691527
0.0362901
0.0690075
0.0394092
0.068692
0.0444456
0.0683986
0.0443846
0.0679685
0.0470343
0.067703
0.0430088
0.0673676
0.0434007
0.0672545
0.0373999
0.0670938
0.0374261
0.0331941
0.0759074
-0.0196938
0.074519
-0.0182655
0.0729305
-0.016236
0.0712792
-0.0142283
0.0696161
-0.0122148
0.0680148
-0.0102046
0.0665347
-0.00818569
0.0652161
-0.00613728
0.0640814
-0.00402225
0.0631415
-0.00180902
0.0623985
0.000518805
0.0618442
0.00302489
0.0614764
0.0056807
0.0612656
0.00858704
0.0612243
0.0116307
0.0612947
0.0149588
0.0615176
0.0184713
0.0617901
0.0222041
0.0621619
0.0265183
0.0624931
0.0305487
0.0627797
0.0360035
0.0629754
0.0392135
0.0630128
0.0444082
0.0630401
0.0443572
0.062927
0.0471474
0.0629215
0.0430142
0.062838
0.0434842
0.0629121
0.0373258
0.0629392
0.0373991
0.0330413
0.0684465
-0.0178167
0.066297
-0.016116
0.0641179
-0.0140569
0.0620466
-0.012157
0.0601205
-0.0102887
0.0584042
-0.00848834
0.0569252
-0.00670668
0.0556926
-0.00490466
0.0547023
-0.00303194
0.0539461
-0.00105283
0.0534107
0.00105419
0.0530809
0.00335465
0.0529459
0.00581574
0.052979
0.00855391
0.0531854
0.0114243
0.053516
0.0146282
0.0540057
0.0179816
0.0545601
0.0216497
0.055228
0.0258504
0.0558681
0.0299086
0.0564845
0.0353871
0.0570092
0.0386888
0.0573926
0.0440248
0.0577379
0.0440119
0.0579447
0.0469406
0.0582022
0.0427567
0.0583766
0.0433099
0.058641
0.0370614
0.0588608
0.0371793
0.0327457
0.0595641
-0.0151567
0.0567311
-0.013283
0.0542098
-0.0115356
0.0520219