/*--------------------------------*- C++ -*----------------------------------*\
  =========                 |
  \\      /  F ield         | OpenFOAM: The Open Source CFD Toolbox
   \\    /   O peration     | Website:  https://openfoam.org
    \\  /    A nd           | Version:  7
     \\/     M anipulation  |
\*---------------------------------------------------------------------------*/
FoamFile
{
    version     2.0;
    format      ascii;
    class       volVectorField;
    location    "335";
    object      U;
}
// * * * * * * * * * * * * * * * * * * * * * * * * * * * * * * * * * * * * * //

dimensions      [0 1 -1 0 0 0 0];

internalField   nonuniform List<vector> 
2125
(
(0.0185988 0.000125753 1.69756e-21)
(0.0845542 -0.00108904 -4.66793e-21)
(0.185093 -0.00286414 -5.28759e-21)
(0.0191445 -0.0277122 -1.6854e-21)
(0.0855869 -0.052128 4.63628e-21)
(0.186302 -0.0581346 5.25731e-21)
(0.281405 -0.0559639 -5.03242e-21)
(0.367056 -0.0515277 4.42872e-21)
(0.443374 -0.0470904 2.2169e-21)
(0.511204 -0.0430912 -3.53864e-21)
(0.571562 -0.0395161 -4.10879e-21)
(0.62524 -0.0362945 6.05067e-22)
(0.672938 -0.0333582 -1.70904e-21)
(0.0218122 -0.0554057 1.84883e-21)
(0.0903833 -0.102949 -5.52351e-21)
(0.191518 -0.113193 1.23277e-20)
(0.286336 -0.107422 -1.08269e-20)
(0.371509 -0.0974077 -5.17952e-22)
(0.447359 -0.0876087 -7.21138e-21)
(0.514773 -0.0788713 1.17115e-20)
(0.574778 -0.0711358 1.59173e-20)
(0.628169 -0.0642322 2.8389e-21)
(0.675532 -0.0580288 -6.11399e-21)
(0.0265758 -0.0827112 -1.56791e-21)
(0.0989075 -0.153183 -1.15986e-20)
(0.200709 -0.167691 -2.70259e-20)
(0.294951 -0.158395 2.34024e-20)
(0.379217 -0.14287 4.81114e-21)
(0.454192 -0.127763 4.26909e-21)
(0.520832 -0.114333 -2.101e-20)
(0.58018 -0.102474 -1.24055e-20)
(0.633033 -0.0919177 -2.76855e-21)
(0.679762 -0.0824859 1.8876e-20)
(0.0333843 -0.109389 -5.51863e-21)
(0.111089 -0.202466 6.99358e-21)
(0.213811 -0.221283 4.87991e-20)
(0.307197 -0.208587 -4.40406e-21)
(0.390137 -0.187663 -1.25615e-20)
(0.463835 -0.167338 8.99539e-21)
(0.529349 -0.14929 6.61099e-22)
(0.58774 -0.13337 3.16584e-21)
(0.639809 -0.119208 -6.95115e-21)
(0.685625 -0.106599 -1.83563e-20)
(0.0421624 -0.135204 -3.70523e-21)
(0.126824 -0.250441 2.02088e-20)
(0.230732 -0.27363 -4.89756e-20)
(0.322998 -0.257708 2.11789e-20)
(0.404205 -0.231542 2.08651e-22)
(0.476233 -0.206123 -2.69188e-20)
(0.540275 -0.183561 1.19231e-20)
(0.597418 -0.163665 -1.12547e-21)
(0.648461 -0.145967 4.52281e-21)
(0.693099 -0.130261 -1.32417e-21)
(0.0528106 -0.159931 -4.23404e-20)
(0.145974 -0.296759 -5.07288e-20)
(0.251346 -0.324402 1.33743e-20)
(0.34225 -0.305477 -2.42718e-20)
(0.421335 -0.274267 -6.81785e-21)
(0.491314 -0.243912 1.02675e-20)
(0.553549 -0.216968 3.79486e-21)
(0.609155 -0.193207 1.40615e-20)
(0.658939 -0.172061 -3.02619e-21)
(0.70215 -0.153357 1.63733e-20)
(0.0652063 -0.183355 4.04679e-20)
(0.168368 -0.341086 2.60618e-20)
(0.2755 -0.373278 -1.96114e-20)
(0.364827 -0.351618 3.30845e-20)
(0.441422 -0.315605 -2.76806e-21)
(0.508988 -0.280507 -3.5886e-20)
(0.569092 -0.24934 6.28659e-21)
(0.622884 -0.221847 -3.82311e-20)
(0.671182 -0.197359 1.51079e-21)
(0.712738 -0.175773 1.38513e-20)
(0.0792051 -0.205273 -2.96931e-20)
(0.193802 -0.383102 5.33225e-20)
(0.303011 -0.419952 2.09751e-20)
(0.390578 -0.39587 -2.61707e-20)
(0.464342 -0.355336 3.19577e-22)
(0.529148 -0.315716 6.60008e-20)
(0.586814 -0.280514 2.94692e-21)
(0.638525 -0.249443 2.92745e-20)
(0.68512 -0.221736 3.56569e-20)
(0.724813 -0.197396 -1.99886e-20)
(0.0946417 -0.225495 1.6624e-20)
(0.222043 -0.422504 -8.00068e-21)
(0.333669 -0.46413 -1.89186e-20)
(0.419331 -0.437981 1.40716e-20)
(0.489951 -0.393246 5.48908e-20)
(0.551674 -0.349359 -1.94411e-20)
(0.60661 -0.310332 -3.23522e-21)
(0.655984 -0.275862 -4.21193e-20)
(0.700671 -0.245074 -5.20838e-20)
(0.73832 -0.218117 2.2817e-20)
(0.111331 -0.243851 -2.16554e-20)
(0.252828 -0.459009 -1.90164e-20)
(0.367236 -0.505539 3.28973e-21)
(0.450891 -0.477716 -7.45828e-20)
(0.518089 -0.429138 -3.17734e-20)
(0.576428 -0.381267 -2.33037e-20)
(0.628363 -0.33865 -3.06325e-20)
(0.675161 -0.300978 1.43177e-20)
(0.717748 -0.267262 1.70407e-20)
(0.753195 -0.237835 2.54002e-20)
(0.129071 -0.260188 4.77142e-21)
(0.285866 -0.492359 2.70753e-20)
(0.403448 -0.543922 2.00224e-20)
(0.485041 -0.514855 3.4385e-20)
(0.548576 -0.462826 2.72303e-20)
(0.60326 -0.411282 -2.59431e-20)
(0.651943 -0.365332 2.4315e-20)
(0.695944 -0.324677 1.6815e-20)
(0.736253 -0.288201 -1.95763e-21)
(0.769372 -0.256451 -7.67667e-21)
(0.147643 -0.274374 4.72506e-20)
(0.32084 -0.522318 -2.35285e-20)
(0.442019 -0.579045 -1.83511e-20)
(0.521546 -0.549196 -1.06656e-20)
(0.581221 -0.494141 2.00722e-20)
(0.632007 -0.439259 1.84015e-20)
(0.677211 -0.390255 -2.5771e-20)
(0.71821 -0.346854 1.98239e-20)
(0.756084 -0.307802 8.87261e-22)
(0.786778 -0.273876 1.84544e-20)
(0.166814 -0.286297 -3.21406e-20)
(0.35741 -0.548678 -1.20763e-20)
(0.482639 -0.610694 -1.9337e-21)
(0.560153 -0.580556 1.95307e-20)
(0.615816 -0.522931 -3.90824e-21)
(0.662493 -0.46507 -1.95929e-20)
(0.704017 -0.413308 5.52703e-21)
(0.741831 -0.367417 5.92384e-21)
(0.777131 -0.325986 1.4258e-20)
(0.805336 -0.290029 -2.83531e-20)
(0.186342 -0.295872 -1.14329e-20)
(0.395214 -0.571261 2.80773e-20)
(0.524976 -0.638684 2.24722e-20)
(0.600591 -0.608772 -1.05068e-20)
(0.652139 -0.54906 -2.42754e-20)
(0.694535 -0.4886 -1.79021e-20)
(0.732202 -0.434392 2.11086e-20)
(0.766666 -0.386285 -4.25907e-20)
(0.799276 -0.34269 1.08042e-20)
(0.824973 -0.304843 2.98694e-20)
(0.205971 -0.303036 2.45533e-20)
(0.43387 -0.58992 -1.49056e-20)
(0.568679 -0.662853 2.88476e-21)
(0.642573 -0.633703 3.79004e-22)
(0.68996 -0.572411 -5.52717e-21)
(0.727937 -0.509752 3.00484e-20)
(0.761599 -0.453426 -2.69063e-20)
(0.792567 -0.403393 2.61595e-20)
(0.822397 -0.357873 -3.99043e-20)
(0.845615 -0.318271 -1.50881e-20)
(0.225443 -0.307753 1.64276e-22)
(0.472981 -0.604539 -1.46582e-20)
(0.613381 -0.683066 2.52373e-22)
(0.6858 -0.655231 -5.20696e-21)
(0.729035 -0.592887 -3.20192e-21)
(0.762499 -0.528444 7.51352e-23)
(0.792036 -0.470336 -1.68825e-20)
(0.819371 -0.418677 -1.1625e-21)
(0.84635 -0.371489 2.40987e-20)
(0.867197 -0.330275 -3.04181e-20)
(0.244493 -0.310016 5.24818e-21)
(0.512133 -0.615039 7.98313e-21)
(0.658697 -0.699218 -1.15674e-20)
(0.729958 -0.673259 -4.35246e-21)
(0.769112 -0.610411 4.23601e-20)
(0.798014 -0.544614 -3.57957e-20)
(0.82334 -0.485072 3.73164e-20)
(0.846912 -0.432109 8.80703e-22)
(0.870973 -0.383574 7.43166e-21)
(0.889682 -0.34094 2.7965e-20)
(0.262857 -0.309843 2.96098e-21)
(0.550906 -0.621376 -4.13047e-21)
(0.70423 -0.711233 2.99239e-21)
(0.774725 -0.687717 2.91096e-21)
(0.809932 -0.624926 -3.26775e-21)
(0.83427 -0.558214 1.4444e-20)
(0.855345 -0.49758 -8.28277e-21)
(0.875022 -0.443594 9.35827e-21)
(0.89604 -0.393952 -3.31594e-21)
(0.913044 -0.350096 -1.81257e-21)
(0.280269 -0.307282 -8.11146e-21)
(0.58887 -0.623543 -5.1899e-21)
(0.749573 -0.719064 2.7458e-21)
(0.819766 -0.698559 2.37369e-21)
(0.85123 -0.636396 -9.37276e-21)
(0.871044 -0.569221 2.38627e-20)
(0.887875 -0.507858 -2.18826e-20)
(0.903532 -0.453215 1.62723e-20)
(0.921172 -0.403072 -1.41056e-20)
(0.937131 -0.359031 -1.80473e-20)
(0.296471 -0.302411 -4.41364e-21)
(0.625591 -0.621572 3.93401e-21)
(0.794305 -0.722695 -2.51329e-21)
(0.864742 -0.705763 5.58605e-22)
(0.892739 -0.644806 -1.18567e-21)
(0.908115 -0.577619 -1.58945e-20)
(0.920782 -0.515851 5.54039e-21)
(0.932436 -0.460714 -4.6392e-21)
(0.946155 -0.409836 1.4594e-20)
(0.962372 -0.364294 -4.06658e-21)
(0.311209 -0.295336 -1.03319e-20)
(0.660637 -0.615532 -8.77218e-21)
(0.838002 -0.72214 3.74177e-21)
(0.909308 -0.709338 5.29113e-22)
(0.934192 -0.650163 -2.00488e-21)
(0.945253 -0.583425 1.55889e-21)
(0.953857 -0.521609 4.40645e-21)
(0.961725 -0.466381 -1.01636e-20)
(0.970591 -0.416534 -1.09854e-20)
(0.98508 -0.374862 7.43114e-21)
(0.324255 -0.2862 -8.24759e-21)
(0.693566 -0.605526 1.86872e-20)
(0.880233 -0.717446 -1.39565e-20)
(0.953114 -0.709319 -3.29206e-21)
(0.975322 -0.652492 -5.66489e-21)
(0.982238 -0.586666 3.52776e-21)
(0.98683 -0.52517 -3.53158e-21)
(0.991172 -0.470149 4.07634e-21)
(0.995645 -0.421226 -3.18618e-21)
(1.00522 -0.379584 5.50463e-22)
(0.335457 -0.275197 -2.20292e-20)
(0.723926 -0.591681 -4.33305e-20)
(0.92057 -0.708707 3.52052e-20)
(0.995809 -0.705769 2.54935e-21)
(1.01586 -0.651835 -6.17129e-22)
(1.01887 -0.587371 5.97518e-21)
(1.0195 -0.526531 2.63431e-21)
(1.02048 -0.471876 -8.57362e-22)
(1.02134 -0.423645 8.74873e-21)
(1.02593 -0.382121 6.03262e-21)
(0.344569 -0.262376 2.12243e-20)
(0.751284 -0.574122 -9.1285e-21)
(0.958607 -0.696107 -2.60757e-20)
(1.03705 -0.69877 2.44177e-21)
(1.05555 -0.64825 1.62303e-21)
(1.05497 -0.585588 -1.63254e-20)
(1.05175 -0.525732 8.20632e-21)
(1.04944 -0.471654 3.10528e-22)
(1.04731 -0.424172 -7.7425e-22)
(1.04799 -0.383246 -2.28896e-22)
(0.351337 -0.247909 2.638e-20)
(0.774968 -0.552975 6.58823e-20)
(0.994072 -0.679885 -1.82065e-21)
(1.07649 -0.688418 -4.99605e-21)
(1.09413 -0.641825 -2.5526e-21)
(1.09034 -0.581396 -3.20569e-21)
(1.08346 -0.522857 -9.71772e-21)
(1.07795 -0.469623 3.85332e-21)
(1.07312 -0.423021 6.6625e-21)
(1.07063 -0.382956 -1.731e-22)
(0.355778 -0.232027 -1.96229e-20)
(0.794762 -0.528865 -1.1394e-20)
(1.02648 -0.66037 4.89551e-20)
(1.11386 -0.674677 7.96296e-22)
(1.13134 -0.63266 -1.79719e-20)
(1.1248 -0.574892 2.89009e-20)
(1.1145 -0.517996 6.01772e-21)
(1.10591 -0.465878 1.86064e-21)
(1.09852 -0.420267 -3.65348e-21)
(1.09314 -0.381203 -3.9338e-21)
(0.357807 -0.215109 4.65164e-20)
(0.810606 -0.502186 -1.04127e-20)
(1.05484 -0.637313 -3.22546e-20)
(1.14882 -0.657798 2.94009e-21)
(1.16692 -0.620913 2.21936e-20)
(1.15816 -0.56618 -7.90297e-21)
(1.14473 -0.511243 -8.76188e-21)
(1.1332 -0.460496 -2.43216e-22)
(1.12337 -0.415979 -4.75098e-21)
(1.11528 -0.378031 2.23238e-21)
(0.357317 -0.197424 -1.65682e-20)
(0.822236 -0.473011 -1.02372e-19)
(1.07891 -0.611102 8.92956e-21)
(1.18092 -0.638144 3.63373e-20)
(1.20064 -0.606623 -1.22857e-21)
(1.19022 -0.555365 -4.39162e-20)
(1.17401 -0.502701 2.40719e-20)
(1.15973 -0.453563 -7.7191e-21)
(1.14759 -0.410254 9.69825e-21)
(1.13699 -0.373544 2.54324e-21)
(0.354243 -0.179227 -2.01108e-20)
(0.829295 -0.441688 3.5886e-20)
(1.0987 -0.582183 4.55589e-20)
(1.2096 -0.615767 -2.70003e-20)
(1.23218 -0.58996 6.76891e-21)
(1.2208 -0.542589 2.64349e-20)
(1.20219 -0.492486 1.04527e-20)
(1.18537 -0.445177 4.14701e-21)
(1.17109 -0.403195 -8.3032e-21)
(1.15816 -0.367842 -7.65094e-21)
(0.348585 -0.160783 -2.71539e-20)
(0.831482 -0.408633 -9.84016e-21)
(1.11388 -0.5508 -8.47547e-20)
(1.23461 -0.590875 -1.13918e-20)
(1.26126 -0.571139 1.5346e-21)
(1.24971 -0.527994 4.17197e-21)
(1.22914 -0.48072 -4.59289e-20)
(1.21003 -0.435446 -2.05151e-20)
(1.19378 -0.394901 4.97463e-22)
(1.1787 -0.361001 6.13326e-21)
(0.3404 -0.142352 -7.37679e-21)
(0.828586 -0.374267 3.22996e-20)
(1.12401 -0.517244 4.27419e-20)
(1.25569 -0.563731 2.42391e-20)
(1.28764 -0.55034 -5.20603e-21)
(1.2768 -0.51174 -4.76747e-21)
(1.25474 -0.467531 3.59669e-20)
(1.23362 -0.424482 3.45883e-20)
(1.21558 -0.385474 4.56595e-21)
(1.19855 -0.353086 -4.56618e-21)
(0.329786 -0.124193 7.05107e-20)
(0.820478 -0.339026 4.40526e-20)
(1.12875 -0.481868 -4.22888e-20)
(1.27252 -0.534583 -7.47402e-21)
(1.31106 -0.527754 3.75209e-21)
(1.30193 -0.493978 -1.17996e-20)
(1.27893 -0.453056 -2.08102e-20)
(1.25601 -0.412405 -1.56652e-21)
(1.23646 -0.375016 -2.07953e-20)
(1.21764 -0.344183 9.15918e-21)
(0.316888 -0.106555 8.79011e-21)
(0.807106 -0.303367 -2.40649e-20)
(1.12782 -0.445056 5.54139e-20)
(1.28475 -0.503693 3.21498e-20)
(1.33126 -0.503567 1.4628e-21)
(1.32488 -0.474874 1.72966e-20)
(1.30164 -0.437416 1.79637e-21)
(1.27725 -0.399348 -1.50954e-20)
(1.25627 -0.36363 1.14578e-20)
(1.23599 -0.334343 1.12633e-21)
(0.301895 -0.0896788 -5.85226e-20)
(0.78849 -0.267757 -1.71175e-20)
(1.12096 -0.40721 -1.46167e-20)
(1.29204 -0.471332 -2.25895e-20)
(1.34796 -0.477968 5.74821e-21)
(1.34547 -0.454589 -1.18067e-22)
(1.3227 -0.420788 1.2713e-20)
(1.29731 -0.385401 -3.19218e-21)
(1.27493 -0.351387 -1.3094e-20)
(1.25368 -0.323773 -1.0565e-20)
(0.285036 -0.0737817 4.70787e-21)
(0.764733 -0.232672 2.73915e-20)
(1.10798 -0.368747 1.27169e-20)
(1.29407 -0.43779 -3.62717e-20)
(1.36088 -0.451152 -7.34656e-22)
(1.36354 -0.433272 -1.34322e-20)
(1.34201 -0.403288 2.50905e-22)
(1.31605 -0.370636 4.67396e-21)
(1.29253 -0.338516 -5.26492e-21)
(1.2707 -0.312414 1.50121e-20)
(0.266577 -0.0590558 1.08889e-20)
(0.736027 -0.198581 -2.65991e-20)
(1.08874 -0.330101 -6.03566e-20)
(1.29051 -0.403365 5.24273e-20)
(1.36973 -0.423314 -3.38919e-21)
(1.37889 -0.411069 9.63571e-21)
(1.35948 -0.385047 -1.24185e-21)
(1.33343 -0.355217 8.1834e-21)
(1.30908 -0.325166 -6.73177e-22)
(1.2867 -0.300549 -1.17177e-20)
(0.246819 -0.0456618 -2.18217e-20)
(0.702665 -0.165943 3.41316e-20)
(1.06317 -0.291714 2.74584e-20)
(1.28107 -0.368364 -3.73652e-20)
(1.37417 -0.394655 -5.91312e-21)
(1.39133 -0.388125 2.02183e-21)
(1.37502 -0.366198 2.05253e-20)
(1.34944 -0.339268 7.29536e-22)
(1.32454 -0.311343 3.76159e-21)
(1.30151 -0.28817 -7.58041e-21)
(0.226083 -0.0337251 1.65213e-20)
(0.665044 -0.13519 -1.477e-20)
(1.03127 -0.254032 -1.21703e-20)
(1.26543 -0.333107 2.01484e-20)
(1.37388 -0.365378 6.57605e-21)
(1.40059 -0.36458 4.85512e-21)
(1.38852 -0.346859 -2.15165e-20)
(1.36404 -0.322887 -7.43972e-21)
(1.33888 -0.297079 -6.25557e-21)
(1.31529 -0.275307 2.48085e-21)
(0.204709 -0.0233337 -7.92274e-21)
(0.623664 -0.106718 -1.69004e-22)
(0.993135 -0.217501 2.29383e-20)
(1.24336 -0.29792 -8.21395e-21)
(1.36847 -0.335685 -3.59135e-21)
(1.4064 -0.340566 -2.29731e-21)
(1.39982 -0.327135 5.44593e-21)
(1.37716 -0.306169 9.06317e-21)
(1.35213 -0.282461 -4.50227e-22)
(1.32819 -0.262044 3.30652e-21)
(0.18304 -0.0145348 5.53694e-21)
(0.57912 -0.0808691 -1.54488e-21)
(0.948983 -0.18256 -4.07866e-21)
(1.21462 -0.26314 -3.63793e-21)
(1.35757 -0.305783 3.20783e-21)
(1.40844 -0.316206 2.47915e-21)
(1.40875 -0.307122 -2.25414e-21)
(1.38877 -0.289209 7.89313e-22)
(1.3643 -0.267601 1.12221e-21)
(1.34028 -0.24847 -1.4803e-21)
(0.16142 -0.00733464 2.82584e-21)
(0.532097 -0.0579249 8.2355e-22)
(0.899153 -0.149635 -4.92657e-21)
(1.17905 -0.229111 -3.98793e-21)
(1.34076 -0.275881 4.21098e-21)
(1.40633 -0.29162 8.49172e-22)
(1.41507 -0.286906 -1.99047e-21)
(1.39876 -0.272094 1.86776e-21)
(1.37539 -0.252599 1.06811e-21)
(1.35158 -0.234669 -1.252e-21)
(0.140176 -0.00169932 -1.14263e-21)
(0.483349 -0.0380935 2.26241e-21)
(0.844132 -0.119129 1.50044e-20)
(1.13657 -0.196184 -6.90527e-21)
(1.31764 -0.246198 -3.41937e-21)
(1.39962 -0.266921 -3.98189e-21)
(1.41851 -0.26656 8.33667e-21)
(1.40702 -0.254892 5.97831e-21)
(1.38535 -0.237539 4.76048e-21)
(1.36207 -0.220714 2.58087e-21)
(0.119614 0.00244272 2.18386e-20)
(0.433682 -0.0215003 -1.20967e-20)
(0.784563 -0.0914139 -1.43053e-20)
(1.08719 -0.164714 1.99574e-20)
(1.28778 -0.216959 1.10555e-20)
(1.38782 -0.242225 -7.92142e-22)
(1.41868 -0.246146 -1.48053e-20)
(1.41337 -0.237657 -1.04637e-20)
(1.39415 -0.222486 -1.17002e-20)
(1.37175 -0.206674 7.44532e-21)
(0.100009 0.00519603 -2.93325e-20)
(0.383923 -0.00818148 2.76397e-20)
(0.721255 -0.0668171 3.27367e-20)
(1.03109 -0.135058 -3.40912e-20)
(1.25079 -0.188403 -1.2334e-20)
(1.37035 -0.217647 8.63739e-21)
(1.41515 -0.225718 1.58831e-20)
(1.41756 -0.220425 2.87052e-21)
(1.4017 -0.207491 -8.27074e-22)
(1.3806 -0.19261 -1.08807e-20)
(0.0815937 0.00669236 -4.02141e-21)
(0.334891 0.00191908 -3.84908e-20)
(0.655177 -0.0456062 -4.2763e-20)
(0.968583 -0.107575 5.14955e-20)
(1.20633 -0.160787 -6.15834e-21)
(1.34661 -0.193315 1.30223e-20)
(1.40734 -0.205323 2.88091e-21)
(1.41923 -0.203222 -7.29298e-21)
(1.40785 -0.192591 4.07275e-21)
(1.38861 -0.178573 -1.70633e-21)
(0.0645586 0.00708377 8.28976e-21)
(0.287362 0.00894774 2.35918e-20)
(0.587436 -0.0279718 1.40157e-20)
(0.900246 -0.0826141 -1.11901e-20)
(1.15418 -0.134388 -1.99047e-20)
(1.31591 -0.16937 -2.00239e-20)
(1.39459 -0.185009 -4.46798e-21)
(1.41794 -0.186061 1.39688e-20)
(1.41239 -0.177806 -3.04402e-21)
(1.3957 -0.164601 6.53255e-21)
(0.0490442 0.00653546 -3.10229e-20)
(0.242035 0.0131335 -2.96034e-20)
(0.519243 -0.0140091 -5.20031e-21)
(0.82689 -0.0605088 -5.89342e-21)
(1.09424 -0.109507 -1.58647e-20)
(1.27761 -0.14598 1.07326e-20)
(1.37612 -0.164834 -1.54846e-21)
(1.4131 -0.168946 -1.18518e-20)
(1.41501 -0.163142 1.10915e-20)
(1.40176 -0.150719 -2.0614e-20)
(0.0351414 0.00521902 7.26376e-21)
(0.19951 0.0147755 2.54548e-20)
(0.451848 -0.00370068 2.40492e-20)
(0.749605 -0.0415594 2.82423e-20)
(1.02668 -0.086467 -4.873e-22)
(1.23105 -0.123346 3.24964e-20)
(1.35103 -0.144874 3.82112e-21)
(1.40396 -0.151883 -4.74684e-20)
(1.41526 -0.148592 3.68259e-20)
(1.40661 -0.136939 1.31371e-20)
(0.0228936 0.0033065 2.00445e-20)
(0.160259 0.0142262 4.59723e-20)
(0.386476 0.00309612 -6.27425e-21)
(0.669757 -0.0260107 -3.62152e-20)
(0.951953 -0.0656117 1.78386e-20)
(1.17574 -0.10171 -2.12797e-20)
(1.31837 -0.125236 -3.51444e-20)
(1.38961 -0.134888 -7.07752e-21)
(1.41253 -0.134146 -3.53381e-20)
(0.0123004 0.000965752 9.99232e-21)
(0.124624 0.0118735 8.4826e-21)
(0.324243 0.00665156 6.55632e-20)
(0.588938 -0.0140207 1.49339e-20)
(0.870894 -0.0472958 -1.4896e-20)
(1.11136 -0.0813645 -8.00274e-21)
(1.27713 -0.106072 6.02823e-20)
(1.36898 -0.117997 5.55501e-20)
(0.00332405 -0.0016428 2.51788e-21)
(0.0928131 0.00812243 -4.83518e-20)
(0.26609 0.00735155 -7.86263e-20)
(0.508867 -0.00562366 4.6635e-21)
(0.784788 -0.0318658 2.28781e-20)
(1.03792 -0.0626526 -3.38508e-20)
(1.22638 -0.0875911 -9.8257e-20)
(-0.00410218 -0.00436807 -1.81683e-20)
(0.0649059 0.00337843 4.878e-20)
(0.212736 0.00566979 4.92751e-20)
(0.431262 -0.000698863 -5.55727e-20)
(0.695363 -0.0196282 7.9454e-21)
(-0.010067 -0.0070702 -4.3532e-20)
(0.0408721 -0.00196905 -7.59048e-20)
(0.164659 0.00212714 -1.63937e-20)
(0.357681 0.00103964 3.06563e-20)
(-0.0146739 -0.00962336 3.27633e-20)
(0.0205888 -0.00756431 3.42442e-22)
(0.122106 -0.00275625 -7.93393e-21)
(-0.0180355 -0.0119192 -1.09231e-20)
(0.00386204 -0.013104 -1.91182e-20)
(-0.0202735 -0.0138734 7.54605e-20)
(-0.00955587 -0.0183571 5.96318e-20)
(-0.0215201 -0.0154345 1.45932e-20)
(0.998586 -0.0037128 -1.40147e-22)
(0.998853 -0.010002 6.34471e-22)
(0.992637 -0.0196262 3.14114e-22)
(0.989854 -0.0272416 1.48138e-22)
(0.980561 -0.0396528 3.08346e-22)
(0.975565 -0.0494825 -1.3303e-21)
(0.963753 -0.0665878 -1.81902e-21)
(0.957527 -0.0807312 5.92253e-22)
(0.944361 -0.105327 1.90301e-21)
(0.939193 -0.125846 2.28436e-21)
(0.927205 -0.161107 3.94185e-21)
(0.927566 -0.188268 -9.48311e-22)
(0.921525 -0.237761 -5.68286e-21)
(0.934449 -0.266699 -1.44047e-21)
(0.946392 -0.340648 3.81022e-21)
(0.99863 -0.00357269 -8.02e-22)
(0.998727 -0.00962334 3.05311e-22)
(0.99254 -0.01896 -5.146e-22)
(0.989421 -0.026244 1.41531e-21)
(0.980074 -0.0382654 -1.27374e-21)
(0.974499 -0.0476046 1.50941e-22)
(0.962444 -0.0641354 1.92219e-21)
(0.955206 -0.0775786 -3.05925e-21)
(0.941409 -0.101415 1.38936e-21)
(0.93446 -0.121115 -5.12215e-21)
(0.921142 -0.155693 5.86091e-21)
(0.918405 -0.182407 -6.13149e-21)
(0.909979 -0.231943 -8.79151e-22)
(0.916962 -0.261935 7.15613e-21)
(0.923805 -0.335429 -1.67066e-21)
(0.998673 -0.00342941 1.06525e-21)
(0.998614 -0.00922485 7.5044e-22)
(0.992465 -0.0182485 9.15376e-22)
(0.989045 -0.0251804 -6.90933e-22)
(0.979662 -0.0367743 -7.23906e-22)
(0.973579 -0.0455977 2.7142e-21)
(0.961314 -0.061493 -1.49851e-21)
(0.953205 -0.0741943 4.22273e-21)
(0.938833 -0.0971417 -2.61708e-21)
(0.930345 -0.115914 -1.29301e-21)
(0.915785 -0.149451 -1.8106e-21)
(0.910284 -0.175442 1.53278e-21)
(0.899591 -0.22402 4.28014e-21)
(0.901684 -0.254905 -1.19786e-20)
(0.903734 -0.32592 1.32362e-20)
(0.998713 -0.00328724 1.53398e-22)
(0.998509 -0.00883102 -1.24339e-21)
(0.992404 -0.0175477 -2.33915e-21)
(0.988706 -0.0241532 4.11622e-22)
(0.979295 -0.0353267 -8.1029e-23)
(0.972753 -0.0436752 7.71304e-22)
(0.960299 -0.0589391 2.35188e-21)
(0.951408 -0.0709487 -1.58569e-21)
(0.936504 -0.0929736 2.0647e-21)
(0.926611 -0.110851 -4.16911e-21)
(0.910886 -0.143158 2.81693e-21)
(0.902804 -0.168382 1.91927e-21)
(0.889857 -0.215419 4.68688e-21)
(0.887546 -0.246872 -8.09815e-21)
(0.884898 -0.315635 2.46754e-22)
(0.998753 -0.00314103 -1.35128e-21)
(0.998411 -0.00842531 -3.25859e-22)
(0.992351 -0.0168411 -3.2514e-22)
(0.988393 -0.0231289 1.82537e-21)
(0.978962 -0.0338689 3.41259e-23)
(0.971995 -0.041751 -2.86785e-22)
(0.959369 -0.0563583 -1.65678e-21)
(0.949751 -0.067683 -1.43212e-22)
(0.934358 -0.0887303 5.27418e-21)
(0.923144 -0.105714 -6.16315e-21)
(0.906322 -0.136655 1.97709e-21)
(0.895804 -0.161068 3.03649e-21)
(0.880628 -0.20629 1.00263e-21)
(0.87422 -0.237858 -4.56061e-21)
(0.867061 -0.304427 9.9618e-23)
(0.998792 -0.00299101 2.48634e-22)
(0.998317 -0.00803378 2.23187e-22)
(0.992304 -0.0161237 7.75095e-22)
(0.9881 -0.0220973 -1.01518e-21)
(0.978657 -0.0323857 2.88373e-22)
(0.971288 -0.0398058 -8.01261e-22)
(0.958509 -0.0537263 4.28156e-22)
(0.948203 -0.0643703 -1.84371e-21)
(0.932362 -0.0843816 3.57177e-21)
(0.919893 -0.100468 -7.57211e-23)
(0.902037 -0.129915 -6.50397e-21)
(0.889219 -0.153445 4.12124e-22)
(0.871866 -0.196633 7.0216e-21)
(0.861608 -0.227894 1.72468e-22)
(0.850141 -0.292046 -8.19926e-21)
(0.998829 -0.00283772 2.1621e-22)
(0.998227 -0.00766441 -1.28524e-21)
(0.992266 -0.0153972 -9.7025e-22)
(0.987825 -0.0210617 1.16321e-21)
(0.978378 -0.0308817 -8.35498e-22)
(0.970623 -0.0378478 6.79365e-22)
(0.957711 -0.0510533 -3.6305e-22)
(0.946748 -0.0610249 -4.1414e-22)
(0.930496 -0.0799448 2.7329e-21)
(0.916836 -0.0951288 -5.49812e-21)
(0.898002 -0.122968 4.42413e-21)
(0.883025 -0.145525 6.22395e-21)
(0.863572 -0.186492 -7.73083e-21)
(0.84969 -0.217071 -1.46085e-21)
(0.834126 -0.278513 -7.00404e-21)
(0.998865 -0.00268183 -1.21014e-22)
(0.998141 -0.00728791 8.02226e-22)
(0.992234 -0.0146618 -8.88009e-22)
(0.987563 -0.0200246 2.07912e-21)
(0.978121 -0.0293595 -2.24465e-21)
(0.969996 -0.0358806 -2.30037e-21)
(0.956969 -0.048343 -5.75048e-22)
(0.945379 -0.0576506 2.76971e-22)
(0.92875 -0.0754267 -2.14826e-21)
(0.913966 -0.0896988 2.43537e-21)
(0.894207 -0.115831 2.62345e-21)
(0.877217 -0.137317 -9.42609e-22)
(0.855759 -0.175905 -3.27064e-21)
(0.838471 -0.205476 6.83063e-21)
(0.819031 -0.263891 -6.60338e-21)
(0.998901 -0.00252333 -5.26091e-22)
(0.998059 -0.00690655 4.98294e-21)
(0.99221 -0.0139183 1.15474e-22)
(0.987316 -0.0189868 1.03509e-21)
(0.977886 -0.0278195 -1.86802e-22)
(0.969404 -0.0339048 3.10336e-21)
(0.956279 -0.0455963 4.8432e-22)
(0.944093 -0.0542472 4.91688e-23)
(0.927117 -0.0708313 -3.3357e-21)
(0.91128 -0.0841765 -6.05941e-22)
(0.890648 -0.108521 2.96307e-21)
(0.87179 -0.128829 -4.26363e-21)
(0.848439 -0.164902 -3.23305e-21)
(0.827966 -0.193175 3.86286e-21)
(0.804882 -0.248248 -3.34201e-21)
(0.998935 -0.00236206 1.31279e-21)
(0.99798 -0.00652488 -2.79892e-21)
(0.992191 -0.0131675 1.50158e-21)
(0.987081 -0.0179492 -2.14327e-21)
(0.977672 -0.0262626 -7.94133e-22)
(0.968848 -0.0319213 4.47881e-22)
(0.955639 -0.0428149 -1.63812e-21)
(0.94289 -0.0508147 2.89057e-21)
(0.925593 -0.0661638 1.57583e-21)
(0.90878 -0.0785621 -9.00449e-22)
(0.887326 -0.10105 2.78062e-21)
(0.866748 -0.120078 -5.2517e-21)
(0.841627 -0.153512 9.16029e-21)
(0.818195 -0.180231 -6.41524e-21)
(0.791714 -0.231652 -3.28262e-21)
(0.998969 -0.00219806 -9.33008e-22)
(0.997905 -0.00614458 1.26643e-22)
(0.992178 -0.0124103 1.18647e-23)
(0.986861 -0.0169125 1.98624e-21)
(0.977476 -0.0246896 4.96633e-22)
(0.968327 -0.0299306 -9.19402e-22)
(0.955046 -0.0400011 1.06647e-21)
(0.941772 -0.0473534 -2.10239e-21)
(0.924177 -0.0614299 8.91353e-22)
(0.906468 -0.0728571 5.92733e-22)
(0.884246 -0.093431 -2.73887e-21)
(0.862094 -0.111077 2.07527e-21)
(0.835337 -0.141761 5.48394e-21)
(0.80918 -0.1667 -2.67828e-21)
(0.779558 -0.21418 -7.29884e-21)
(0.999001 -0.00203148 -1.06289e-21)
(0.997833 -0.00576601 -2.2492e-22)
(0.992169 -0.0116472 -9.71657e-22)
(0.986654 -0.0158772 -2.892e-21)
(0.977299 -0.0231015 1.40327e-21)
(0.967844 -0.0279331 -1.35365e-21)
(0.954499 -0.0371571 1.82306e-21)
(0.94074 -0.0438635 2.72627e-21)
(0.92287 -0.0566351 -1.78753e-21)
(0.904345 -0.067064 3.68327e-21)
(0.881413 -0.0856759 -1.98039e-21)
(0.857834 -0.101844 -3.06253e-21)
(0.829581 -0.129675 -1.95596e-21)
(0.800941 -0.152634 7.98582e-21)
(0.768449 -0.195909 -2.63652e-21)
(0.999032 -0.00186245 1.1037e-21)
(0.997766 -0.00538936 5.35039e-22)
(0.992164 -0.0108786 -7.7345e-23)
(0.986462 -0.0148435 1.16105e-21)
(0.977137 -0.0214995 -1.8614e-21)
(0.967399 -0.0259292 -4.64218e-22)
(0.953997 -0.0342855 -4.21359e-23)
(0.939797 -0.0403454 -9.19996e-22)
(0.921672 -0.0517852 -2.72616e-21)
(0.902414 -0.0611865 -1.41155e-21)
(0.878832 -0.0777959 5.24757e-21)
(0.853972 -0.0923983 -8.13611e-22)
(0.824369 -0.117283 -8.56412e-22)
(0.793498 -0.138086 -7.18631e-22)
(0.758416 -0.176919 -3.42957e-21)
(0.99906 -0.00169109 6.68416e-22)
(0.997704 -0.00501487 -1.23554e-21)
(0.99216 -0.0101049 5.26454e-22)
(0.986287 -0.0138113 -1.42396e-21)
(0.976991 -0.0198848 -9.12512e-23)
(0.966994 -0.0239187 7.79761e-23)
(0.953539 -0.0313889 1.15216e-22)
(0.938943 -0.0367997 1.73346e-22)
(0.920586 -0.0468854 -1.26934e-21)
(0.900678 -0.0552294 1.64559e-21)
(0.876509 -0.0698021 -2.70905e-21)
(0.850515 -0.0827583 5.96753e-22)
(0.819712 -0.104614 1.85697e-21)
(0.786869 -0.123106 -1.26002e-22)
(0.749487 -0.15729 2.3179e-21)
(0.999086 -0.00151758 -6.5123e-22)
(0.997647 -0.00464263 1.49894e-21)
(0.992158 -0.00932595 -9.42993e-22)
(0.986128 -0.0127802 1.16119e-21)
(0.976859 -0.0182583 6.43416e-22)
(0.966629 -0.0219016 -4.04081e-22)
(0.953126 -0.0284697 -7.31408e-23)
(0.938181 -0.0332273 -4.74112e-22)
(0.919612 -0.041941 1.67728e-22)
(0.899138 -0.0491984 -1.41922e-21)
(0.87445 -0.0617056 6.6551e-22)
(0.84747 -0.072944 -4.65764e-21)
(0.81562 -0.0916967 6.5922e-21)
(0.781066 -0.107746 -1.9948e-21)
(0.741684 -0.137105 -4.34985e-21)
(0.999108 -0.00134214 -3.03802e-22)
(0.997596 -0.00427121 -4.63049e-22)
(0.992156 -0.00854177 3.22447e-22)
(0.985987 -0.0117497 8.01023e-23)
(0.976741 -0.0166214 8.88307e-22)
(0.966306 -0.0198776 -3.20125e-22)
(0.952756 -0.0255304 1.78196e-22)
(0.93751 -0.0296293 -7.43566e-23)
(0.918754 -0.0369569 5.22552e-22)
(0.897796 -0.0431002 1.00185e-21)
(0.872659 -0.0535176 1.46817e-21)
(0.844841 -0.0629757 -2.43603e-21)
(0.812101 -0.0785632 1.08614e-21)
(0.776104 -0.0920564 -1.42621e-21)
(0.735027 -0.116445 -4.09371e-21)
(0.999126 -0.00116518 1.07799e-21)
(0.997552 -0.00389575 -1.26322e-22)
(0.992153 -0.00775232 5.04586e-22)
(0.985864 -0.0107191 4.34313e-22)
(0.976634 -0.014975 -1.3853e-21)
(0.966024 -0.0178465 5.3372e-23)
(0.952431 -0.0225732 2.18231e-22)
(0.936932 -0.0260074 1.35568e-22)
(0.918014 -0.0319379 -5.17903e-22)
(0.896654 -0.0369423 4.72997e-22)
(0.871141 -0.0452506 2.24566e-21)
(0.842635 -0.0528758 -8.9877e-22)
(0.809162 -0.0652461 2.09815e-21)
(0.771991 -0.0760902 -4.64335e-21)
(0.72953 -0.0953931 5.9051e-21)
(0.999141 -0.000986596 -7.70167e-22)
(0.997516 -0.00353204 1.44967e-23)
(0.992148 -0.00695877 -4.49947e-22)
(0.98576 -0.00968751 -2.25912e-22)
(0.97654 -0.0133201 4.94421e-22)
(0.965785 -0.0158074 -2.59456e-23)
(0.95215 -0.0195998 -9.02652e-22)
(0.936446 -0.0223628 5.23809e-22)
(0.917392 -0.0268885 -2.37138e-22)
(0.895713 -0.0307329 2.1148e-22)
(0.869899 -0.0369179 7.76654e-22)
(0.840854 -0.0426688 2.39594e-22)
(0.80681 -0.0517804 -1.36883e-21)
(0.768733 -0.0598996 1.75555e-22)
(0.725205 -0.074025 -1.33261e-21)
(0.99915 -0.000806855 3.75408e-22)
(0.997489 -0.00317796 -2.60204e-23)
(0.992142 -0.0061615 6.56457e-23)
(0.985676 -0.00865396 3.68117e-22)
(0.976457 -0.0116563 -6.71673e-23)
(0.965589 -0.0137577 -3.63607e-22)
(0.951914 -0.0166083 -2.32102e-22)
(0.936052 -0.0186919 2.81243e-22)
(0.91689 -0.0218056 -2.54715e-22)
(0.894974 -0.0244718 3.12633e-22)
(0.868935 -0.0285176 -8.06739e-22)
(0.839502 -0.0323598 4.59455e-22)
(0.80505 -0.0381852 -1.03463e-21)
(0.766339 -0.0435206 4.17912e-22)
(0.722058 -0.0523897 1.80037e-22)
(0.999154 -0.000626696 -6.69802e-23)
(0.99747 -0.0028166 6.57984e-23)
(0.992133 -0.0053608 -8.52394e-23)
(0.985611 -0.00761755 -1.2196e-22)
(0.976386 -0.00998339 1.15004e-22)
(0.965435 -0.0116936 1.84229e-22)
(0.951723 -0.0135938 1.28888e-22)
(0.935752 -0.0149854 -7.87834e-23)
(0.916509 -0.0166744 3.14969e-22)
(0.894439 -0.0181382 5.82523e-23)
(0.868254 -0.0200244 1.51002e-22)
(0.838581 -0.021914 2.13223e-22)
(0.803886 -0.0244537 -2.76863e-24)
(0.764818 -0.0269892 -1.573e-22)
(0.72009 -0.0305912 -2.64461e-23)
(1.00001 -0.000273837 0)
(1.00206 -0.000759288 0)
(1.00561 -0.00127249 0)
(1.01023 -0.00169012 0)
(1.01557 -0.00211136 0)
(1.02133 -0.00242648 0)
(1.02726 -0.00272834 0)
(1.03315 -0.00291963 0)
(1.03887 -0.00310076 0)
(1.04429 -0.00317567 0)
(1.04933 -0.00325925 0)
(1.05395 -0.00323964 0)
(1.05814 -0.00325856 0)
(1.0619 -0.00316617 0)
(1.06526 -0.00315601 0)
(1.00002 -0.000808119 0)
(1.00205 -0.00224008 0)
(1.00559 -0.0037567 0)
(1.0102 -0.00499184 0)
(1.01556 -0.0062413 0)
(1.02134 -0.00717777 0)
(1.02732 -0.00807924 0)
(1.03327 -0.0086535 0)
(1.03907 -0.00920065 0)
(1.04456 -0.00943101 0)
(1.04971 -0.00968839 0)
(1.05441 -0.00963659 0)
(1.05871 -0.00969971 0)
(1.06254 -0.00942958 0)
(1.06602 -0.00940414 0)
(1.00002 -0.00131685 0)
(1.00203 -0.00363971 0)
(1.00556 -0.00611922 0)
(1.01015 -0.00813634 0)
(1.01553 -0.0101958 0)
(1.02134 -0.0117404 0)
(1.02742 -0.013245 0)
(1.03346 -0.0142072 0)
(1.03942 -0.015139 0)
(1.04505 -0.0155382 0)
(1.05038 -0.0159932 0)
(1.05523 -0.0159218 0)
(1.05974 -0.0160529 0)
(1.06372 -0.0156124 0)
(1.06741 -0.0155951 0)
(1.00003 -0.0018012 0)
(1.002 -0.00494993 0)
(1.00552 -0.00835934 0)
(1.01007 -0.0111244 0)
(1.01547 -0.0139905 0)
(1.02131 -0.0161384 0)
(1.02751 -0.0182671 0)
(1.03369 -0.0196326 0)
(1.03985 -0.0209847 0)
(1.04567 -0.021575 0)
(1.05127 -0.0222667 0)
(1.05634 -0.022194 0)
(1.06114 -0.0224292 0)
(1.06533 -0.0218263 0)
(1.06933 -0.0218498 0)
(1.00004 -0.00226149 0)
(1.00197 -0.00616535 0)
(1.00544 -0.0104762 0)
(1.00993 -0.0139557 0)
(1.01534 -0.0176332 0)
(1.02122 -0.0203838 0)
(1.02755 -0.0231697 0)
(1.03388 -0.0249614 0)
(1.0403 -0.0267843 0)
(1.04636 -0.0275963 0)
(1.05229 -0.0285784 0)
(1.05764 -0.0285284 0)
(1.06281 -0.0289163 0)
(1.06727 -0.0281601 0)