/*--------------------------------*- C++ -*----------------------------------*\
  =========                 |
  \\      /  F ield         | OpenFOAM: The Open Source CFD Toolbox
   \\    /   O peration     | Website:  https://openfoam.org
    \\  /    A nd           | Version:  7
     \\/     M anipulation  |
\*---------------------------------------------------------------------------*/
FoamFile
{
    version     2.0;
    format      ascii;
    class       volScalarField;
    location    "165";
    object      p;
}
// * * * * * * * * * * * * * * * * * * * * * * * * * * * * * * * * * * * * * //

dimensions      [0 2 -2 0 0 0 0];

internalField   nonuniform List<scalar> 
2125
(
-0.354567
-0.360981
-0.356934
-0.36808
-0.362904
-0.375883
-0.369511
-0.363063
-0.384412
-0.376791
-0.369549
-0.361291
-0.393685
-0.384771
-0.376717
-0.367617
-0.357109
-0.344355
-0.403704
-0.393466
-0.38458
-0.374527
-0.362766
-0.348297
-0.330145
-0.414444
-0.402864
-0.393119
-0.381971
-0.368678
-0.352099
-0.331549
-0.307944
-0.425851
-0.412923
-0.402273
-0.389855
-0.374691
-0.355603
-0.332424
-0.306573
-0.279655
-0.254176
-0.437828
-0.423565
-0.411941
-0.398038
-0.380609
-0.358647
-0.332686
-0.304607
-0.276249
-0.249689
-0.450241
-0.434667
-0.421978
-0.406324
-0.386208
-0.36107
-0.332251
-0.302006
-0.272287
-0.244698
-0.462909
-0.446065
-0.432191
-0.414467
-0.391249
-0.362718
-0.331035
-0.298721
-0.267729
-0.239165
-0.475611
-0.457548
-0.442342
-0.422187
-0.395494
-0.363441
-0.328955
-0.294696
-0.262528
-0.23305
-0.488084
-0.468865
-0.452151
-0.429176
-0.398709
-0.363099
-0.325923
-0.289867
-0.25663
-0.226308
-0.50003
-0.479727
-0.461298
-0.43512
-0.400674
-0.361557
-0.321854
-0.284168
-0.249978
-0.218899
-0.511118
-0.489812
-0.469432
-0.43971
-0.401184
-0.358692
-0.316663
-0.277532
-0.242513
-0.210782
-0.520996
-0.498773
-0.476192
-0.442651
-0.400053
-0.354387
-0.310267
-0.269889
-0.23418
-0.201923
-0.529299
-0.506245
-0.481215
-0.443671
-0.397111
-0.348535
-0.302588
-0.261176
-0.224928
-0.192292
-0.535655
-0.511861
-0.484151
-0.442527
-0.392214
-0.34104
-0.293551
-0.251334
-0.214719
-0.181871
-0.539705
-0.515255
-0.484681
-0.439007
-0.385235
-0.33182
-0.283091
-0.240306
-0.203516
-0.17065
-0.541104
-0.516081
-0.482522
-0.432937
-0.376075
-0.320805
-0.271149
-0.22804
-0.191278
-0.158588
-0.539537
-0.51402
-0.477433
-0.424179
-0.364658
-0.307944
-0.257686
-0.214497
-0.17794
-0.145536
-0.534724
-0.508792
-0.469227
-0.412635
-0.350932
-0.293205
-0.242679
-0.199667
-0.16346
-0.13125
-0.526431
-0.500169
-0.457762
-0.398247
-0.334873
-0.276571
-0.226117
-0.183558
-0.147896
-0.115688
-0.514474
-0.48798
-0.442943
-0.38099
-0.31648
-0.258039
-0.207995
-0.16618
-0.131331
-0.099561
-0.498722
-0.47211
-0.424728
-0.360876
-0.295777
-0.23763
-0.188344
-0.147576
-0.113567
-0.0829388
-0.479105
-0.452504
-0.403122
-0.337952
-0.272816
-0.215394
-0.167253
-0.127771
-0.0947597
-0.0656033
-0.455609
-0.429166
-0.378186
-0.312308
-0.247667
-0.191422
-0.144762
-0.106775
-0.0750238
-0.0475147
-0.428275
-0.402163
-0.350054
-0.284074
-0.220401
-0.165786
-0.120917
-0.0846712
-0.0544269
-0.028725
-0.3972
-0.371628
-0.318919
-0.253344
-0.191124
-0.138567
-0.0958105
-0.0615478
-0.0330373
-0.00933187
-0.362544
-0.33776
-0.284904
-0.220097
-0.160093
-0.109907
-0.0695511
-0.0374999
-0.0109361
0.010554
-0.324527
-0.300827
-0.247867
-0.18482
-0.127393
-0.0799497
-0.042264
-0.0126292
0.0117941
0.0308468
-0.283373
-0.261074
-0.208042
-0.147731
-0.0932379
-0.0488519
-0.0140855
0.0129582
0.0350679
0.0514568
-0.239282
-0.218345
-0.166432
-0.10899
-0.0578235
-0.0167837
0.0148494
0.0391632
0.0587449
0.0720508
-0.192583
-0.173239
-0.123242
-0.0688719
-0.0213579
0.0160833
0.0444242
0.0659016
0.082548
0.091821
-0.14388
-0.126037
-0.0785898
-0.0276542
0.0159323
0.0495743
0.0745295
0.0930671
0.106141
0.1102
-0.0933766
-0.0772465
-0.0327405
0.0143859
0.0538072
0.0835007
0.105003
0.120419
0.129412
0.128886
-0.0414777
-0.027302
0.0139664
0.0569611
0.0920208
0.117653
0.135595
0.14756
0.152341
0.152647
0.0113716
0.0233906
0.0611659
0.0997735
0.130322
0.151803
0.166039
0.174367
0.175832
0.176531
0.0647238
0.0744221
0.108487
0.142518
0.168453
0.185722
0.196162
0.200905
0.199543
0.199151
0.118128
0.125378
0.155558
0.184885
0.206152
0.219177
0.22579
0.227049
0.22304
0.220813
0.171132
0.175841
0.202012
0.226567
0.243157
0.251946
0.254753
0.252621
0.245978
0.2415
0.223288
0.225396
0.247487
0.267259
0.279209
0.283811
0.28287
0.277439
0.268167
0.261244
0.274152
0.273637
0.291629
0.306662
0.314056
0.314558
0.30996
0.301326
0.289452
0.280004
0.323294
0.320167
0.334096
0.344488
0.347452
0.343979
0.335844
0.324122
0.309706
0.29772
0.370297
0.364603
0.374558
0.380457
0.37916
0.371874
0.360351
0.345677
0.328808
0.31432
0.414762
0.406579
0.412701
0.414304
0.408956
0.39805
0.383315
0.365849
0.346645
0.329728
0.456312
0.445751
0.448228
0.445778
0.436627
0.422326
0.404582
0.384506
0.363107
0.343868
0.494593
0.481797
0.480863
0.474645
0.461972
0.444532
0.424009
0.401524
0.378093
0.356669
0.529278
0.514418
0.510349
0.500689
0.484808
0.464511
0.44146
0.416791
0.391505
0.368063
0.56007
0.543346
0.536457
0.523713
0.504967
0.482121
0.456816
0.430201
0.403258
0.377992
0.586703
0.568338
0.558978
0.543542
0.5223
0.497234
0.469967
0.441661
0.413274
0.3864
0.608943
0.589182
0.577731
0.560023
0.536676
0.509739
0.480819
0.451091
0.421483
0.393243
0.626593
0.6057
0.592562
0.573023
0.547984
0.519541
0.489291
0.458419
0.427828
0.398482
0.63949
0.617745
0.603345
0.582438
0.556132
0.526561
0.495317
0.46359
0.432261
0.402086
0.647509
0.625204
0.609985
0.588184
0.56105
0.530742
0.498845
0.466558
0.434745
0.404032
0.590206
0.56269
0.532041
0.499842
0.467295
0.435256
0.404303
-0.17943
-0.188072
-0.196112
-0.203572
-0.210475
-0.216845
-0.222706
-0.228077
-0.163492
-0.171698
-0.179403
-0.186627
-0.193393
-0.199719
-0.205623
-0.211123
-0.148704
-0.156436
-0.163762
-0.170704
-0.177282
-0.183518
-0.189432
-0.195048
-0.135004
-0.142297
-0.149269
-0.155942
-0.162333
-0.168464
-0.174357
-0.180035
-0.122381
-0.129252
-0.135872
-0.142257
-0.148423
-0.154387
-0.160168
-0.165784
-0.110739
-0.117193
-0.123447
-0.129516
-0.13541
-0.141144
-0.146729
-0.152177
-0.0999716
-0.106014
-0.111896
-0.117631
-0.123226
-0.128692
-0.13404
-0.139281
-0.0899941
-0.0956373
-0.101152
-0.106548
-0.111834
-0.117019
-0.122113
-0.127128
-0.0807528
-0.0860104
-0.0911636
-0.0962227
-0.101195
-0.106089
-0.110913
-0.115676
-0.0721927
-0.0770782
-0.0818789
-0.0866045
-0.0912616
-0.0958561
-0.100394
-0.104883
-0.0642596
-0.0687867
-0.0732458
-0.0776445
-0.0819879
-0.086281
-0.0905292
-0.0947389
-0.0568992
-0.0610852
-0.0652172
-0.0693
-0.0733375
-0.0773339
-0.0812943
-0.0852241
-0.0500683
-0.0539324
-0.0577523
-0.0615314
-0.0652726
-0.0689798
-0.0726571
-0.0763086
-0.0437134
-0.0472813
-0.0508085
-0.0542993
-0.0577576
-0.0611867
-0.0645896
-0.0679697
-0.0378328
-0.0411175
-0.0443653
-0.0475811
-0.0507689
-0.053931
-0.0570697
-0.0601874
-0.0323864
-0.035403
-0.0383883
-0.0413457
-0.0442779
-0.0471865
-0.0500733
-0.0529402
-0.0557894
-0.0273395
-0.0301078
-0.0328489
-0.035565
-0.0382577
-0.040928
-0.0435773
-0.0462071
-0.0488189
-0.0226735
-0.0252127
-0.0277275
-0.0302191
-0.0326883
-0.0351361
-0.0375631
-0.0399704
-0.0423592
-0.0183694
-0.020698
-0.023004
-0.0252882
-0.0275509
-0.0297924
-0.0320131
-0.0342136
-0.0363948
-0.0144113
-0.0165477
-0.0186627
-0.0207566
-0.0228294
-0.0248811
-0.0269117
-0.0289216
-0.0309113
-0.0107814
-0.0127444
-0.0146873
-0.0166092
-0.0185096
-0.0203884
-0.0222459
-0.024082
-0.0258969
-0.0074914
-0.00929689
-0.0110817
-0.0128455
-0.0145881
-0.0163095
-0.0180094
-0.0196876
-0.0213437
-0.00451566
-0.00618039
-0.00782494
-0.00944875
-0.0110515
-0.0126328
-0.0141922
-0.0157291
-0.0172434
-0.00186104
-0.003401
-0.00492133
-0.00642124
-0.00790009
-0.00935729
-0.0107922
-0.0122044
-0.0135933
0.00047206
-0.000959629
-0.0023719
-0.00376387
-0.00513478
-0.00648393
-0.00781063
-0.00911425
-0.0103943
0.00247511
0.00113577
-0.000184301
-0.00148419
-0.00276306
-0.00402015
-0.00525471
-0.00646604
-0.00765354
0.0041371
0.00287446
0.00163092
0.000407418
-0.000795199
-0.00197612
-0.00313457
-0.00426982
-0.00538124
0.00543243
0.00423027
0.00304708
0.0018838
0.000741286
-0.00037967
-0.0014783
-0.00255387
-0.00360572
0.00634981
0.00519148
0.00405181
0.00293165
0.00183183
0.000753173
-0.000303567
-0.00133767
-0.00234845
0.0068124
0.00568274
0.00457172
0.00348012
0.00240864
0.00135792
0.000328597
-0.000678717
-0.00166343
0.121611
0.102803
0.0851379
0.0677022
0.0493993
0.0309243
0.0128552
-0.00477213
-0.0219769
-0.0386869
-0.0548279
-0.0703686
-0.085295
-0.0995914
-0.113296
-0.126356
-0.138468
-0.149719
-0.160264
-0.170164
0.113657
0.0951932
0.0767678
0.0603361
0.04373
0.0268102
0.0103136
-0.00560671
-0.0210712
-0.0360902
-0.0506081
-0.0645967
-0.0780216
-0.0907993
-0.102664
-0.114296
-0.125366
-0.135749
-0.145528
-0.154771
0.104648
0.0870945
0.0688774
0.0535024
0.0387578
0.0236371
0.00874217
-0.00556899
-0.0193973
-0.0328246
-0.0458111
-0.0583004
-0.0702458
-0.0816082
-0.0923992
-0.103115
-0.113315
-0.1229
-0.131953
-0.140547
0.095085
0.0788447
0.0616528
0.0474711
0.0344266
0.0210519
0.00768296
-0.00518917
-0.0175663
-0.0295681
-0.0411987
-0.0524106
-0.0631743
-0.0734799
-0.0833296
-0.092898
-0.102162
-0.110992
-0.11938
-0.127372
0.0858552
0.07117
0.055388
0.0424243
0.030833
0.0190219
0.00707133
-0.00450581
-0.0156068
-0.0263473
-0.036775
-0.0468628
-0.0565886
-0.0659477
-0.0749341
-0.0834554
-0.0918691
-0.100016
-0.107799
-0.11524
0.0774056
0.0642716
0.0500215
0.0382429
0.0278868
0.0174396
0.00679131
-0.00360203
-0.0135676
-0.0231894
-0.0325391
-0.0416099
-0.0503773
-0.0588282
-0.0669576
-0.0747611
-0.0824698
-0.089961
-0.097157
-0.10407
0.0698459
0.0581375
0.0454207
0.0347935
0.0255123
0.0162477
0.00677865
-0.00253051
-0.0114786
-0.0201098
-0.0285
-0.0366604
-0.0445719
-0.0522224
-0.0596178
-0.0667707
-0.0738481
-0.0807228
-0.0873519
-0.0937579
0.0631662
0.0527366
0.0414873
0.0319693
0.0236442
0.015404
0.00698634
-0.0013376
-0.00937156
-0.0171265
-0.0246697
-0.0320235
-0.0391752
-0.0461085
-0.0528205
-0.0593281
-0.0658393
-0.072159
-0.0782732
-0.0842109
0.0573301
0.0480472
0.0381581
0.0296858
0.0222206
0.0148702
0.00737957
-5.80103e-05
-0.00727055
-0.0142479
-0.0210435
-0.0276866
-0.0341765
-0.0405115
-0.046694
-0.0527211
-0.0584779
-0.0642104
-0.0698607
-0.0753753
0.0522902
0.0440382
0.0353804
0.0278705
0.0211798
0.0146066
0.00792894
0.00128221
-0.00519291
-0.0114759
-0.0176053
-0.0236082
-0.0294866
-0.0352341
-0.040844
-0.04631
-0.0516239
-0.0568998
-0.0621075
-0.0672072
0.0479879
0.0406613
0.0330994
0.0264582
0.0204633
0.014573
0.00860801
0.00266331
-0.00315114
-0.00881205
-0.0143455
-0.0197738
-0.0251006
-0.0303218
-0.0354335
-0.0404356
-0.0453262
-0.050174
-0.0549571
-0.0596531
0.044356
0.0378571
0.0312585
0.025391
0.0200191
0.0147318
0.00939253
0.00406912
-0.00115529
-0.0062592
-0.0112596
-0.0161735
-0.0210055
-0.0257533
-0.0304147
-0.0349905
-0.0394824
-0.0439381
-0.0483321
-0.0526514
0.0413252
0.0355627
0.029803
0.0246182
0.0198024
0.0150493
0.0102606
0.00548608
0.000787028
-0.00381891
-0.00834248
-0.0127959
-0.0171828
-0.0215013
-0.025749
-0.0299268
-0.0340411
-0.0381392
-0.0421797
-0.0461537
0.0388273
0.0337171
0.0286824
0.0240956
0.0197753
0.0154964
0.0111932
0.00690336
0.00267119
-0.00149006
-0.0055873
-0.00962911
-0.0136185
-0.017555
-0.0214372
-0.0252644
-0.0290351
-0.0327601
-0.0364501
-0.0401026
0.0367978
0.0322631
0.0278515
0.0237858
0.0199055
0.0160485
0.0121741
0.00831252
0.00449503
0.000730955
-0.00298422
-0.00665613
-0.0102869
-0.0138759
-0.0174225
-0.0209252
-0.0243814
-0.0277724
-0.0311503
-0.0345086
0.0351764
0.0311479
0.0272698
0.0236561
0.0201661
0.0166843
0.0131896
0.00970666
0.00625763
0.00284861
-0.000523298
-0.00386142
-0.00716659
-0.0104379
-0.0136743
-0.0168742
-0.0200358
-0.0231542
-0.0262557
-0.0293362
0.0339082
0.0303235
0.0269007
0.0236783
0.0205333
0.0173854
0.0142269
0.0110789
0.00795704
0.00486499
0.00180084
-0.00123712
-0.00424886
-0.00723333
-0.0101894
-0.013116
-0.016012
-0.0188752
-0.0217198
-0.024543
0.0329431
0.0297463
0.0267115
0.0238267
0.020986
0.0181346
0.0152739
0.0124221
0.00959041
0.00678078
0.00399196
0.0012233
-0.00152453
-0.00425032
-0.00695294
-0.00963131
-0.0122845
-0.0149114
-0.0175206
-0.020109
0.0322357
0.0293772
0.026672
0.0240781
0.0215051
0.0189163
0.016319
0.013729
0.0111542
0.00859577
0.0060528
0.00352536
0.00101454
-0.00147834
-0.00395209
-0.00640566
-0.00883818
-0.0112488
-0.0136431
-0.0160175
0.0317448
0.0291802
0.0267549
0.0244108
0.0220723
0.0197156
0.0173508
0.0149915
0.0126438
0.0103082
0.00798425
0.00567244
0.00337417
0.00109092
-0.00117609
-0.00342589
-0.00565795
-0.00787202
-0.0100721
-0.0122527
0.0314331
0.0291229
0.0269343
0.0248043
0.0226705
0.0205178
0.0183573
0.0162008
0.014053
0.0119141
0.00978414
0.00766395
0.00555524
0.00345987
0.00137966
-0.000683327
-0.00272783
-0.0047536
-0.00678972
-0.00879811
0.0312668
0.0291755
0.0271867
0.0252393
0.023283
0.0213086
0.0193267
0.0173474
0.0153744
0.0134079
0.0114479
0.00949536
0.00755163
0.00561803
0.00369557
0.0017848
-0.000112949
-0.00199533
-0.00383466
-0.00566817
0.0312148
0.0293109
0.0274897
0.0256974
0.0238943
0.0220747
0.0202483
0.0184235
0.0166032
0.014788
0.0129781
0.0111747
0.00937931
0.00759352
0.00581885
0.00405679
0.00230905
0.000577604
-0.00113428
-0.00283253
0.0312489
0.0295035
0.0278221
0.0261604
0.0244881
0.0228017
0.0211093
0.0194178
0.0177297
0.0160458
0.0143666
0.0126932
0.0110273
0.00937037
0.00772393
0.00608934
0.00446803
0.00286143
0.00127176
-0.00030281
0.0313424
0.0297293
0.0281629
0.0266097
0.0250475
0.0234739
0.0218953
0.0203171
0.0187417
0.01717
0.0156027
0.0140409
0.0124863
0.0109403
0.0094043
0.00787974
0.00636795
0.0048703
0.00338842
0.00192194
0.0314709
0.0299655
0.0284915
0.0270266
0.0255549
0.0240747
0.0225906
0.0211068
0.0196255
0.0181477
0.0166744
0.0152066
0.0137458
0.0122935
0.0108511
0.0094199
0.00800118
0.00659629
0.00520665
0.00383254
0.0316113
0.0301901
0.0287878
0.0273918
0.0259919
0.0245862
0.0231779
0.0217703
0.0203651
0.0189636
0.0175668
0.0161759
0.0147922
0.0134171
0.0120518
0.0106978
0.00935615
0.0080282
0.00671518
0.00541776
0.0317421
0.0303821
0.0290315
0.027686
0.0263393
0.0249894
0.0236383
0.0222882
0.020941
0.0195978
0.0182598
0.0169282
0.0156041
0.0142889
0.0129838
0.0116901
0.0104089
0.00914149
0.00788911
0.00665244
0.031844
0.0305214
0.0292026
0.0278892
0.0265773
0.0252651
0.023953
0.022643
0.0213365
0.0200349
0.0187392
0.0174504
0.0161698
0.0148984
0.0136373
0.0123878
0.0111509
0.0099276
0.00871895
0.00752596
0.0319028
0.0305931
0.029283
0.0279781
0.0266769
0.0253775
0.0240802
0.0227864
0.0214975
0.0202149
0.0189396
0.0176726
0.016415
0.0151677
0.013932
0.0127087
0.0114988
0.0103035
0.00912357
0.00795969
0.132294
0.135176
0.13886
0.145586
0.15249
0.16194
0.170854
0.18155
0.190257
0.199348
0.203606
0.206137
0.198768
0.186637
0.153193
0.131869
0.134646
0.138164
0.144556
0.151053
0.159844
0.167949
0.17747
0.184764
0.191922
0.194066
0.193661
0.183833
0.167662
0.137982
0.131379
0.134036
0.137358
0.143374
0.149405
0.157473
0.164693
0.172977
0.178826
0.184095
0.184318
0.181459
0.170213
0.152668
0.126701
0.130819
0.133339
0.13645
0.142053
0.147592
0.154883
0.161193
0.168187
0.172629
0.176022
0.174556
0.169567
0.157534
0.139438
0.115432
0.130185
0.132552
0.135443
0.140598
0.145627
0.152099
0.157497
0.163174
0.166278
0.167859
0.164938
0.158154
0.145591
0.127254
0.104418
0.129472
0.131669
0.13433
0.139006
0.143508
0.149124
0.153615
0.15797
0.159813
0.159697
0.155526
0.147304
0.13434
0.116093
0.0943348
0.128676
0.130686
0.133107
0.137273
0.141236
0.145966
0.149561
0.152608
0.153271
0.151612
0.146364
0.137054
0.123828
0.105986
0.0853857
0.127793
0.129598
0.131772
0.1354
0.138813
0.142638
0.145351
0.147131
0.146694
0.143675
0.137506
0.127433
0.114107
0.0968941
0.0775052
0.126818
0.128401
0.130321
0.133388
0.136243
0.139159
0.141009
0.14159
0.140131
0.135952
0.129009
0.118459
0.105194
0.0887402
0.0705785
0.125749
0.127093
0.128754
0.131244
0.133534
0.135552
0.13656
0.136031
0.133631
0.128495
0.120926
0.110135
0.0970786
0.0814541
0.0645142
0.124583
0.125675
0.127069
0.128975
0.130693
0.131841
0.132031
0.1305
0.127245
0.121346
0.113299
0.102455
0.0897335
0.0749767
0.0592386
0.123319
0.124147
0.125266
0.126593
0.127734
0.128055
0.127456
0.12504
0.121022
0.114539
0.106158
0.0954062
0.0831239
0.0692535
0.0546831
0.121957
0.122515
0.123349
0.12411
0.124671
0.124221
0.12287
0.119688
0.11501
0.108097
0.0995228
0.0889757
0.0772095
0.0642291
0.0507806
0.120496
0.120784
0.121323
0.121542
0.121524
0.120367
0.118311
0.114479
0.109248
0.102042
0.0933989
0.0831446
0.071947
0.0598462
0.0474653
0.11894
0.118965
0.119196
0.118905
0.118316
0.116521
0.113817
0.109443
0.103772
0.0963879
0.0877842
0.0778892
0.0672912
0.0560475
0.0446743
0.117294
0.117067
0.11698
0.116215
0.115074
0.112708
0.109426
0.10461
0.0986065
0.0911437
0.0826688
0.0731815
0.0631963
0.0527773
0.0423481
0.115564
0.115104
0.114691
0.113491
0.111825
0.108957
0.105172
0.100006
0.0937711
0.0863135
0.0780374
0.0689898
0.0596167
0.0499824
0.0404314
0.113761
0.113091
0.11235
0.110754
0.108602
0.105295
0.101087
0.0956527
0.0892778
0.0818954
0.0738708
0.0652804
0.0565076
0.0476123
0.038873
0.1119
0.111043
0.10998
0.108024
0.105433
0.101751
0.0971982
0.0915713
0.0851335
0.0778826
0.0701465
0.0620187
0.0538251
0.0456199
0.0376259
0.109998
0.108981
0.107608
0.105327
0.10235
0.0983505
0.093529
0.0877767
0.0813406
0.0742643
0.0668404
0.0591698
0.0515277
0.0439611
0.036647
0.108078
0.106923
0.105263
0.102691
0.099381
0.0951221
0.0901
0.0842809
0.0778983
0.0710272
0.063927
0.0566996
0.0495756
0.042595
0.0358969
0.106165
0.104896
0.102976
0.100146
0.0965568
0.0920914
0.0869291
0.0810926
0.0748029
0.0681559
0.0613805
0.0545751
0.0479317
0.0414836
0.0353396
0.104291
0.102926
0.100779
0.0977245
0.0939064
0.0892831
0.0840321
0.0782178
0.0720491
0.0656346
0.0591757
0.0527651
0.0465615
0.0405925
0.0349421
0.102489
0.101045
0.0987058
0.0954605
0.0914597
0.0867215
0.0814239
0.0756612
0.0696307
0.0634475
0.0572889
0.0512406
0.0454333
0.0398898
0.0346741
0.100798
0.09929
0.0967926
0.09339
0.0892474
0.0844305
0.0791187
0.0734273
0.0675421
0.0615803
0.0556985
0.0499755
0.0445185
0.0393466
0.034508
0.099259
0.0977002
0.0950778
0.0915502
0.0873015
0.0824351
0.077132
0.0715217
0.0657791
0.060021
0.0543861
0.048947
0.0437919
0.0389371
0.0344181
0.0979195
0.0963208
0.0936034
0.0899811
0.0856563
0.0807625
0.0754818
0.0699529
0.0643412
0.0587612
0.0533373
0.0481363
0.0432321
0.0386383
0.0343814
0.0968293
0.095201
0.0924153
0.0887252
0.0843494
0.0794434
0.0741902
0.0687343
0.063233
0.0577981
0.052543
0.0475301
0.0428221
0.0384313
0.0343772
0.0960432
0.0943949
0.0915639
0.0878301
0.0834233
0.0785141
0.0732861
0.0678865
0.0624669
0.0571368
0.0520016
0.0471211
0.0425507
0.0383016
0.0343883
0.0956196
0.0939612
0.0911064
0.0873503
0.0829283
0.0780196
0.072807
0.0674398
0.0620652
0.0567919
0.0517208
0.0469107
0.0424129
0.038239
0.0344011
0.132898
0.136161
0.139916
0.147717
0.15548
0.167211
0.179229
0.195104
0.212034
0.232701
0.254884
0.280773
0.308324
0.339429
0.371597
0.133114
0.136384
0.140158
0.147982
0.155772
0.167544
0.17957
0.195611
0.212488
0.233167
0.255345
0.281207
0.308683
0.339669
0.371624
0.133303
0.136577
0.140369
0.148207
0.156019
0.167809
0.179932
0.195892
0.212761
0.2334
0.255468
0.281176
0.308378
0.339005
0.370391
0.133466
0.136741
0.140548
0.148394
0.156223
0.167967
0.180128
0.196067
0.212869
0.233405
0.255258
0.280686
0.307415
0.337449
0.36791
0.133602
0.136874
0.140697
0.148541
0.156387
0.168095
0.180238
0.196132
0.212814
0.233186
0.254718
0.279743
0.305802
0.33501
0.364193
0.133713
0.136977
0.140814
0.14865
0.156496
0.168187
0.180269
0.196086
0.212596
0.232746
0.253853
0.278352
0.303547
0.3317
0.359253
0.133796
0.137051
0.140901
0.148724
0.156514
0.168231
0.180223
0.19593
0.21222
0.232086
0.252667
0.276522
0.300657
0.327532
0.353108
0.133854
0.137095
0.140958
0.148765
0.156521
0.168201
0.180098
0.195665
0.211687
0.23121
0.251167
0.274261
0.297145
0.322523
0.345781
0.133885
0.137111
0.140984
0.148766
0.156526
0.168109
0.179895
0.195292
0.211002
0.230123
0.249358
0.271578
0.293021
0.316692
0.337298
0.133891
0.137099
0.14098
0.148728
0.156482
0.16796
0.179617
0.194814
0.210169
0.228828
0.247248
0.268482
0.288298
0.31006
0.327692
0.133871
0.137059
0.140945
0.148655
0.156384
0.167754
0.179265
0.194232
0.209192
0.22733
0.244846
0.264985
0.282992
0.302654
0.316999
0.133826
0.136992
0.140881
0.148536
0.156238
0.16749
0.178841
0.193548
0.208076
0.225633
0.24216
0.261097
0.277118
0.294499
0.30526
0.133756
0.136899
0.140793
0.148319
0.15604
0.167172
0.178347
0.192767
0.206825
0.223742
0.239201
0.256828
0.270694
0.285628
0.29252
0.133662
0.136781
0.140676
0.148165
0.155795
0.166801
0.177785
0.191889
0.205444
0.221662
0.235978
0.252189
0.26374
0.276072
0.278822
0.133544
0.136641
0.140509
0.147903
0.155513
0.166379
0.177158
0.19092
0.203939
0.219399
0.232504
0.247191
0.256278
0.265864
0.26421
0.133402
0.136478
0.140358
0.147656
0.155197
0.165908
0.176466
0.189861
0.202312
0.216956
0.228788
0.241841
0.248334
0.255036
0.248717
0.133237
0.136288
0.14015
0.147382
0.154844
0.165386
0.175709
0.18871
0.200563
0.214335
0.224838
0.236146
0.23994
0.243622
0.232373
0.133049
0.13607
0.139922
0.147082
0.154464
0.164831
0.174907
0.187494
0.198721
0.211569
0.220687
0.23014
0.231145
0.231653
0.215199
0.13284
0.13585
0.139678
0.14677
0.154075
0.164274
0.174101
0.186272
0.196847
0.20873
0.216388
0.223859
0.221956
0.219087
0.197058
0.132611
0.135582
0.139378
0.14637
0.153563
0.163542
0.173065
0.184744
0.194594
0.205409
0.211539
0.216883
0.212141
0.205694
0.177513
)
;

boundaryField
{
    inlet
    {
        type            zeroGradient;
    }
    outlet
    {
        type            fixedValue;
        value           nonuniform 0();
    }
    cylinder
    {
        type            zeroGradient;
    }
    top
    {
        type            symmetryPlane;
    }
    bottom
    {
        type            symmetryPlane;
    }
    defaultFaces
    {
        type            empty;
    }
    procBoundary2to0
    {
        type            processor;
        value           nonuniform List<scalar> 
26
(
0.650565
0.627998
0.612412
0.612412
0.58847
0.561025
0.530435
0.498288
0.465784
0.43378
0.402891
0.132656
0.135907
0.139642
0.147411
0.155136
0.166812
0.178789
0.194613
0.211444
0.232028
0.254106
0.279896
0.307324
0.338314
0.370335
)
;
    }
    procBoundary2to3
    {
        type            processor;
        value           nonuniform List<scalar> 
50
(
-0.348833
-0.351573
-0.351573
-0.351982
-0.357223
-0.357223
-0.35556
-0.35556
-0.351808
-0.351808
-0.34041
-0.328302
-0.328302
-0.308753
-0.308753
-0.282533
-0.282533
-0.25819
-0.232973
-0.232973
-0.216235
-0.200392
-0.185525
-0.171246
-0.157494
-0.144421
-0.132072
-0.120384
-0.109329
-0.098916
-0.0891283
-0.0799383
-0.0713304
-0.0632871
-0.0632871
-0.0586234
-0.0514146
-0.0447308
-0.0385575
-0.0328813
-0.0276908
-0.0229778
-0.0187348
-0.0149587
-0.0116502
-0.00881666
-0.0064682
-0.00463323
-0.0033353
-0.002625
)
;
    }
}


// ************************************************************************* //
