/*--------------------------------*- C++ -*----------------------------------*\
  =========                 |
  \\      /  F ield         | OpenFOAM: The Open Source CFD Toolbox
   \\    /   O peration     | Website:  https://openfoam.org
    \\  /    A nd           | Version:  7
     \\/     M anipulation  |
\*---------------------------------------------------------------------------*/
FoamFile
{
    version     2.0;
    format      ascii;
    class       surfaceScalarField;
    location    "165";
    object      phi;
}
// * * * * * * * * * * * * * * * * * * * * * * * * * * * * * * * * * * * * * //

dimensions      [0 3 -1 0 0 0 0];

internalField   nonuniform List<scalar> 
4137
(
0.000792298
5.71252e-05
0.000735173
0.000654988
8.94225e-05
0.000645751
0.000199799
0.000123401
0.000522349
0.000690139
-0.000366939
-0.00339831
0.000159568
0.000362781
0.000843705
-0.00105108
0.00232435
-0.00487896
-0.0115437
0.000198416
0.000164365
0.00100536
-0.00185802
0.00269579
-0.00656939
0.00549268
-0.0143406
0.00936039
-0.0250141
-0.0374776
0.000240249
-7.58838e-05
0.00117434
-0.00279211
0.00307029
-0.00846534
0.00608736
-0.0173576
0.0100452
-0.028972
0.0143683
-0.0418007
-0.054068
0.000285068
-0.000360951
0.00134874
-0.00385578
0.00343904
-0.0105556
0.00662694
-0.0205455
0.0105826
-0.0329277
0.0146547
-0.0458727
0.0182664
-0.0576796
-0.0676005
0.000332536
-0.000693487
0.00152553
-0.00504877
0.00379125
-0.0128214
0.00709083
-0.0238451
0.0109575
-0.0367943
0.0147168
-0.049632
0.0178912
-0.060854
0.0203438
-0.0700531
0.0222046
-0.0776209
-0.0843889
0.00038199
-0.00107548
0.00170066
-0.00636744
0.00411506
-0.0152358
0.00746182
-0.0271919
0.0111646
-0.0404972
0.0145732
-0.0530406
0.0173221
-0.0636029
0.0193785
-0.0721094
0.0209206
-0.0791631
-0.0856137
0.0221454
0.000432498
-0.00150797
0.00186937
-0.00780432
0.00439879
-0.0177652
0.00772788
-0.030521
0.0112077
-0.043977
0.0142479
-0.0560809
0.016595
-0.06595
0.0182996
-0.073814
0.0195671
-0.0804306
-0.0866299
0.0205833
0.000482927
-0.0019909
0.00202654
-0.00934793
0.00463205
-0.0203707
0.00788286
-0.0337718
0.0110971
-0.0471913
0.013767
-0.0587507
0.0157425
-0.0679255
0.017137
-0.0752085
0.0181664
-0.08146
-0.0874615
0.018998
0.000532018
-0.00252292
0.00216705
-0.010983
0.00480668
-0.0230103
0.00792626
-0.0368914
0.0108476
-0.0501126
0.0131565
-0.0610596
0.0147932
-0.0695622
0.0159149
-0.0763302
0.016735
-0.0822801
-0.0881256
0.0173991
0.000578453
-0.00310137
0.00228615
-0.0126907
0.00491735
-0.0256415
0.0078623
-0.0398363
0.0104764
-0.0527267
0.012441
-0.0630242
0.0137714
-0.0708926
0.0146522
-0.077211
0.0152855
-0.0829134
-0.0886342
0.0157941
0.000620919
-0.00372229
0.00237979
-0.0144495
0.00496167
-0.0282234
0.00769866
-0.0425733
0.0100014
-0.0550294
0.0116426
-0.0646654
0.0126972
-0.0719472
0.0133638
-0.0778776
0.0138271
-0.0833768
-0.0889953
0.0141882
0.000658171
-0.00438046
0.00244486
-0.0162362
0.00494003
-0.0307186
0.00744529
-0.0450786
0.00944022
-0.0570243
0.0107809
-0.0660061
0.0115872
-0.0727535
0.012061
-0.0783514
0.0123669
-0.0836826
-0.0892145
0.012586
0.000689088
-0.00506955
0.0024793
-0.0180264
0.00485515
-0.0330944
0.00711334
-0.0473368
0.00880939
-0.0587204
0.00987249
-0.0670692
0.0104546
-0.0733355
0.0107527
-0.0786496
0.0109099
-0.0838399
-0.0892955
0.010991
0.000712717
-0.00578227
0.0024822
-0.0197959
0.00471151
-0.0353237
0.00671435
-0.0493396
0.00812389
-0.0601299
0.00893148
-0.0678768
0.0093098
-0.0737139
0.00944542
-0.0787852
0.00946043
-0.0838549
-0.089241
0.00940594
0.000728307
-0.00651057
0.00245367
-0.0215213
0.00451477
-0.0373848
0.0062596
-0.0510844
0.00739699
-0.0612673
0.00796951
-0.0684493
0.0081612
-0.0739055
0.00814441
-0.0787684
0.00802155
-0.083732
-0.0890521
0.00783261
0.00073533
-0.0072459
0.0023948
-0.0231808
0.00427127
-0.0392613
0.00575977
-0.0525729
0.00664024
-0.0621478
0.00699611
-0.0688052
0.00701521
-0.0739246
0.00685356
-0.0786067
0.00659586
-0.0834743
-0.088729
0.00627273
0.000733485
-0.00797939
0.00230739
-0.0247547
0.00398763
-0.0409415
0.00522465
-0.05381
0.0058635
-0.0627866
0.00601907
-0.0689607
0.00587693
-0.0737825
0.00557585
-0.0783057
0.00518535
-0.0830838
-0.0882713
0.00472772
0.000722695
-0.00870208
0.00219382
-0.0262258
0.00367036
-0.0424181
0.00466303
-0.0548026
0.00507516
-0.0631988
0.00504474
-0.0689303
0.00475057
-0.0734883
0.00431383
-0.0778689
0.00379113
-0.0825611
-0.0876789
0.00319871
0.00070309
-0.00940517
0.0020568
-0.0275795
0.00332572
-0.043687
0.00408265
-0.0555596
0.00428219
-0.0633983
0.00407825
-0.0687264
0.00363982
-0.0730499
0.00307083
-0.0772999
0.00241334
-0.0819036
-0.0869492
0.00168365
0.000675005
-0.0100802
0.00189933
-0.0288038
0.00295954
-0.0447472
0.00349027
-0.0560903
0.00349036
-0.0633984
0.00312362
-0.0683596
0.00254748
-0.0724738
0.00185071
-0.0766032
0.001058
-0.0811109
-0.086038
0.000146766
0.000638973
-0.0107192
0.00172469
-0.0298895
0.0025772
-0.0455997
0.00289168
-0.0564048
0.0027044
-0.0632111
0.00218401
-0.0678393
0.00147508
-0.0717648
0.000651188
-0.0757793
-0.000254101
-0.0802056
-0.0850163
-0.00127582
0.000595655
-0.0113148
0.00153589
-0.0308298
0.00218357
-0.0462474
0.00229187
-0.0565131
0.00192819
-0.0628474
0.00126201
-0.0671731
0.000423004
-0.0709258
-0.000524256
-0.074832
-0.00156995
-0.0791599
-0.0838887
-0.00269749
0.00054583
-0.0118606
0.00133583
-0.0316198
0.00178296
-0.0466945
0.001695
-0.0564251
0.0011648
-0.0623172
0.000359165
-0.0663674
-0.000602265
-0.0699644
-0.00166984
-0.0737644
-0.00284386
-0.0779859
-0.0826332
-0.00409937
0.000490366
-0.012351
0.00112731
-0.0322567
0.00137926
-0.0469465
0.00110441
-0.0561503
0.000416998
-0.0616298
-0.000520437
-0.06543
-0.00160172
-0.0688831
-0.00279149
-0.0725747
-0.00408827
-0.0766891
-0.0812481
-0.00547336
0.000430167
-0.0127812
0.000913074
-0.0327396
0.000975873
-0.0470093
0.000523196
-0.0556976
-0.000312982
-0.0607936
-0.00137678
-0.0643662
-0.00257674
-0.0676832
-0.0038851
-0.0712663
-0.00530366
-0.0752706
-0.0797353
-0.00681651
0.000366089
-0.0131473
0.00069568
-0.0330692
0.000575995
-0.0468896
-4.03036e-05
-0.0550813
-0.0010229
-0.059811
-0.0022103
-0.0631788
-0.00352542
-0.0663681
-0.00494959
-0.0698421
-0.00648864
-0.0737315
-0.0780972
-0.00812673
0.000299088
-0.0134463
0.000477198
-0.0332473
0.000186444
-0.0465988
-0.000601953
-0.0542929
-0.00171461
-0.0586984
-0.00301953
-0.0618739
-0.00444678
-0.0649408
-0.00598424
-0.0683047
-0.00764187
-0.0720739
-0.0763376
-0.00940144
0.000230855
-0.0136772
0.000259663
-0.0332761
-0.000205205
-0.046134
-0.00114298
-0.0533551
-0.00238519
-0.0574562
-0.00380371
-0.0604553
-0.00534014
-0.0634044
-0.00698844
-0.0666564
-0.00876195
-0.0703004
-0.0744627
-0.0106369
0.000161498
-0.0138387
5.59715e-05
-0.0331706
-0.000592266
-0.0454857
-0.00167015
-0.0522772
-0.00303397
-0.0560924
-0.00456222
-0.0589271
-0.00620492
-0.0617617
-0.00796146
-0.0648998
-0.00984766
-0.0684142
-0.0724767
-0.0118336
8.78689e-05
-0.0139266
-0.000172848
-0.0329099
-0.00096546
-0.0446931
-0.00218025
-0.0510625
-0.00366036
-0.0546122
-0.00529454
-0.0572929
-0.00704079
-0.0600154
-0.00890282
-0.0630378
-0.010899
-0.066418
-0.0703766
-0.0129991
6.83133e-06
-0.0139334
-0.000395224
-0.0325078
-0.00132821
-0.0437601
-0.00267196
-0.0497187
-0.00426356
-0.0530206
-0.00600036
-0.0555561
-0.00784813
-0.0581676
-0.00981353
-0.0610724
-0.011915
-0.0643165
-0.0681609
-0.0141308
-6.28387e-05
-0.0138706
-0.000606393
-0.0319643
-0.00167881
-0.0426877
-0.00314479
-0.0482527
-0.00484291
-0.0513225
-0.00667921
-0.0537198
-0.00862759
-0.0562193
-0.0106968
-0.0590032
-0.0128907
-0.0621226
-0.0658438
-0.0152078
-0.00013522
-0.0137353
-0.000809946
-0.0312896
-0.00201619
-0.0414815
-0.00359818
-0.0466707
-0.00539778
-0.0495229
-0.0073302
-0.0517874
-0.00937731
-0.0541722
-0.0115512
-0.0568293
-0.0138628
-0.059811
-0.0635645
-0.0161421
-0.000206955
-0.0135284
-0.00100651
-0.03049
-0.00233967
-0.0401483
-0.00403157
-0.0449788
-0.00592777
-0.0476267
-0.00795244
-0.0497627
-0.0100928
-0.0520318
-0.0123492
-0.0545729
-0.0146855
-0.0574748
-0.0607977
-0.0174522
-0.000277038
-0.0132513
-0.00119582
-0.0295712
-0.00264882
-0.0386953
-0.00444461
-0.043183
-0.00643272
-0.0456386
-0.00854534
-0.0476501
-0.0107709
-0.0498062
-0.0131055
-0.0522383
-0.0155667
-0.0550135
-0.0580441
-0.0183203
-0.000345026
-0.0129063
-0.00137738
-0.0285389
-0.00294328
-0.0371294
-0.004837
-0.0412893
-0.00691236
-0.0435633
-0.00910879
-0.0454537
-0.0114176
-0.0474974
-0.0138435
-0.0498125
-0.0164198
-0.0524372
-0.0552631
-0.0192008
-0.000410606
-0.0124957
-0.00155073
-0.0273987
-0.0032227
-0.0354574
-0.00520849
-0.0393035
-0.00736631
-0.0414054
-0.00964208
-0.0431779
-0.0120303
-0.0451092
-0.0145408
-0.0473019
-0.0172038
-0.0497742
-0.0524291
-0.0200378
-0.000473508
-0.0120222
-0.00171546
-0.0261568
-0.00348681
-0.0336861
-0.00555892
-0.0372314
-0.00779449
-0.0391699
-0.0101455
-0.0408269
-0.0126098
-0.0426449
-0.0152002
-0.0447114
-0.0179411
-0.0470334
-0.0495313
-0.0208389
-0.000533493
-0.0114887
-0.00187121
-0.0248191
-0.00373538
-0.0318219
-0.00588814
-0.0350787
-0.00819675
-0.0368613
-0.0106187
-0.0384049
-0.013155
-0.0401087
-0.0158196
-0.0420468
-0.0186326
-0.0442203
-0.0465656
-0.0215983
-0.000590347
-0.0108984
-0.00201769
-0.0233917
-0.00396821
-0.0298714
-0.00619606
-0.0328508
-0.00857302
-0.0344843
-0.0110618
-0.0359162
-0.0136657
-0.0375048
-0.0163994
-0.0393131
-0.0192807
-0.041339
-0.0435319
-0.0223144
-0.00064388
-0.0102545
-0.00215467
-0.0218809
-0.00418515
-0.0278409
-0.00648261
-0.0305534
-0.00892325
-0.0320437
-0.0114744
-0.033365
-0.0141416
-0.0348376
-0.0169398
-0.0365149
-0.0198856
-0.0383932
-0.0404323
-0.0229853
-0.000693926
-0.00956056
-0.00228193
-0.0202929
-0.00438607
-0.0257368
-0.00674774
-0.0281917
-0.00924738
-0.029544
-0.0118566
-0.0307557
-0.0145826
-0.0321116
-0.0174406
-0.0336569
-0.020447
-0.0353868
-0.0372698
-0.0236095
-0.000740337
-0.00882023
-0.0023993
-0.018634
-0.00457089
-0.0235652
-0.00699141
-0.0257712
-0.00954536
-0.0269901
-0.0122081
-0.028093
-0.0149884
-0.0293314
-0.0179018
-0.0307435
-0.0209646
-0.032324
-0.0340486
-0.0241858
-0.00078299
-0.00803724
-0.00250665
-0.0169103
-0.00473952
-0.0213323
-0.00721361
-0.0232971
-0.00981716
-0.0243865
-0.012529
-0.0253812
-0.0153589
-0.0265014
-0.0183231
-0.0277794
-0.0214377
-0.0292093
-0.030773
-0.0247133
-0.000821775
-0.00721546
-0.00260386
-0.0151282
-0.00489192
-0.0190442
-0.0074143
-0.0207747
-0.0100627
-0.0217381
-0.012819
-0.0226249
-0.015694
-0.0236263
-0.0187043
-0.0247692
-0.0218661
-0.0260475
-0.027448
-0.0251911
-0.0008566
-0.00635886
-0.00269083
-0.013294
-0.00502805
-0.016707
-0.0075935
-0.0182092
-0.0102821
-0.0190495
-0.0130781
-0.0198289
-0.0159936
-0.0207109
-0.0190451
-0.0217176
-0.0222492
-0.0228434
-0.0240787
-0.0256185
-0.000887386
-0.00547148
-0.00276748
-0.0114139
-0.00514787
-0.0143266
-0.00775118
-0.0156059
-0.0104751
-0.0163255
-0.0133063
-0.0169977
-0.0162575
-0.0177598
-0.0193454
-0.0186297
-0.0225868
-0.019602
-0.0206704
-0.0259952
-0.000914067
-0.00455741
-0.00283376
-0.00949422
-0.00525137
-0.011909
-0.00788735
-0.01297
-0.0106419
-0.013571
-0.0135035
-0.0141361
-0.0164856
-0.0147777
-0.0196051
-0.0155101
-0.0228787
-0.0163284
-0.0172284
-0.0263207
-0.000936588
-0.00362082
-0.00288961
-0.0075412
-0.00533851
-0.00946013
-0.00800202
-0.0103064
-0.0107824
-0.0107906
-0.0136697
-0.0112488
-0.0166778
-0.0117697
-0.0198239
-0.012364
-0.0231246
-0.0130276
-0.0137581
-0.0265949
-0.000954906
-0.00266592
-0.00293499
-0.00556112
-0.00540931
-0.00698581
-0.00809518
-0.00762057
-0.0108966
-0.00798916
-0.0138048
-0.00834058
-0.016834
-0.00874041
-0.0200018
-0.0091963
-0.0233245
-0.00970492
-0.010265
-0.0268176
-0.000968985
-0.00169693
-0.00296987
-0.00356023
-0.00546374
-0.00449194
-0.00816685
-0.00491746
-0.0109845
-0.00517155
-0.0139088
-0.00541627
-0.0169544
-0.00569482
-0.0201387
-0.00601196
-0.0234782
-0.00636537
-0.00675436
-0.0269888
-0.0009788
-0.00299423
-0.00550182
-0.00821703
-0.00220225
-0.011046
-0.00234255
-0.0139816
-0.00248066
-0.0170387
-0.0026378
-0.0202346
-0.00281604
-0.0235859
-0.00301409
-0.00323172
-0.0271085
-0.00824573
-0.0110813
-0.0140234
-0.017087
-0.0202895
-0.0236473
-0.0271766
0.0593284
0.0104753
-0.0588127
0.0598445
0.01207
0.0603598
0.0136729
0.0608732
0.0152807
0.0613822
0.0168901
0.061883
0.0184972
0.0623692
0.0200972
0.0216839
0.061626
0.00995376
-0.0611045
0.0621548
0.0115412
0.0626906
0.0131371
0.0632326
0.0147387
0.0637796
0.0163431
0.0643294
0.0179473
0.0648787
0.0195479
0.0211408
0.0640298
0.00943974
-0.0635158
0.0645588
0.0110122
0.0651031
0.0125929
0.0656622
0.0141795
0.0662357
0.0157696
0.0668223
0.0173607
0.0674202
0.01895
0.0205344
0.0665793
0.0089394
-0.066079
0.0671001
0.0104914
0.0676422
0.0120508
0.068206
0.0136157
0.0687919
0.0151837
0.0693999
0.0167528
0.0700295
0.0183204
0.0198843
0.0692838
0.00845221
-0.0687966
0.0697952
0.00997998
0.0703319
0.0115142
0.0708948
0.0130527
0.0714851
0.0145935
0.0721032
0.0161346
0.0727499
0.0176738
0.0192091
0.072138
0.0079766
-0.0716624
0.0726411
0.00947688
0.0731728
0.0109825
0.073734
0.0124915
0.0743257
0.0140018
0.0749489
0.0155114
0.0756043
0.0170184
0.0185209
0.0751374
0.0075116
-0.0746724
0.0756331
0.00898114
0.0761605
0.0104552
0.0767203
0.0119317
0.0773134
0.0134087
0.0779405
0.0148842
0.0786025
0.0163565
0.0178234
0.0782824
0.00705708
-0.0778279
0.0787708
0.00849269
0.0792939
0.00993207
0.0798525
0.0113732
0.0804471
0.0128141
0.0810785
0.0142528
0.0817474
0.0156876
0.0171163
0.0815745
0.00661272
-0.0811301
0.0820557
0.00801148
0.0825745
0.00941328
0.0831316
0.0108161
0.0837275
0.0122181
0.084363
0.0136173
0.0850386
0.0150119
0.0164
0.08502
0.00617959
-0.0845868
0.0854929
0.0075385
0.0860065
0.00889978
0.0865611
0.0102615
0.0871574
0.0116218
0.0877959
0.0129788
0.0884771
0.0143308
0.0156758
0.088621
0.00575801
-0.0881995
0.0890854
0.00707419
0.0895929
0.00839218
0.0901444
0.00971008
0.0907401
0.0110261
0.0913806
0.0123383
0.0920662
0.0136452
0.0149447
0.0923832
0.00534845
-0.0919736
0.0928382
0.00661918
0.0933392
0.0078912
0.0938866
0.00916266
0.0944809
0.0104318
0.0951224
0.0116968
0.0958115
0.012956
0.0142077
0.0963128
0.00495115
-0.0959155
0.096758
0.00617396
0.0972517
0.00739751
0.0977943
0.00862004
0.0983862
0.00983986
0.0990278
0.0110553
0.0997192
0.0122646
0.0134662
0.100414
0.00456672
-0.10003
0.10085
0.00573888
0.101336
0.00691144
0.101873
0.00808265
0.102462
0.00925084
0.103103
0.0104144
0.103796
0.0115716
0.0127209
0.104699
0.00419513
-0.104327
0.105123
0.00531436
0.105601
0.00643359
0.106133
0.00755116
0.106718
0.00866546
0.107357
0.00977488
0.108051
0.0108779
0.0119728
0.109173
0.00383708
-0.108815
0.109586
0.0049009
0.110056
0.00596439
0.110581
0.00702597
0.111162
0.0080841
0.1118
0.00913724
0.112494
0.0101839
0.113244
0.0112225
0.0122516
0.113846
0.0034926
-0.113502
0.114249
0.00449856
0.114709
0.00550395
0.115228
0.00650724
0.115805
0.00750697
0.116441
0.00850166
0.117135
0.00948985
0.117887
0.0104701
0.0114409
0.11873
0.00316168
-0.118399
0.119122
0.00410737
0.119573
0.00505227
0.120086
0.00599498
0.120658
0.00693406
0.121292
0.00786813
0.121986
0.00879578
0.12274
0.00971563
0.0106263
0.123837
0.00284424
-0.12352
0.124218
0.00372718
0.124661
0.0046092
0.125167
0.00548897
0.125736
0.00636514
0.126367
0.00723638
0.127062
0.00810137
0.127819
0.0089588
0.00980735
0.129182
0.00253989
-0.128878
0.129552
0.00335761
0.129986
0.00417433
0.130487
0.00498879
0.131052
0.00579972
0.131683
0.00660588
0.132378
0.00740603
0.133138
0.00819895
0.00898338
0.134781
0.00224842
-0.134489
0.13514
0.00299828
0.135567
0.00374712
0.136062
0.00449376
0.136625
0.00523703
0.137255
0.00597577
0.137952
0.00670883
0.138716
0.00743504
0.00815328
0.140651
0.0019686
-0.140371
0.141002
0.00264804
0.141422
0.00332647
0.141913
0.0040028
0.142474
0.00467595
0.143105
0.00534487
0.143805
0.00600849
0.144575
0.00666574
0.00731558
0.146818
0.00170007
-0.146549
0.14716
0.0023063
0.147575
0.00291156
0.148063
0.00351486
0.148623
0.00411525
0.149256
0.00471177
0.149961
0.00530343
0.150738
0.0058893
0.00646842
0.153304
0.00144163
-0.153046
0.153639
0.00197171
0.154049
0.00250091
0.154536
0.00302836
0.155098
0.0035532
0.155735
0.00407458
0.156447
0.00459165
0.157233
0.00510355
0.00560944
0.160139
0.00119188
-0.159889
0.160468
0.00164273
0.160876
0.00209281
0.161363
0.00254139
0.161929
0.00298771
0.162572
0.00343104
0.163293
0.00387066
0.164091
0.00430581
0.00473578
0.167355
0.00094911
-0.167113
0.167681
0.00131745
0.168088
0.00168516
0.168578
0.00205163
0.169149
0.00241625
0.169802
0.0027784
0.170535
0.00313748
0.171348
0.00349288
0.003844
0.174991
0.000711301
-0.174753
0.175315
0.000993602
0.175725
0.00127543
0.17622
0.00155632
0.1768
0.00183578
0.177465
0.00211335
0.178214
0.00238854
0.179046
0.00266091
0.00292996
0.183091
0.000475954
-0.182855
0.183416
0.000668422
0.183831
0.00086058
0.184335
0.00105211
0.184928
0.00124267
0.18561
0.00143195
0.186378
0.00161961
0.187234
0.00180533
0.00198878
0.191704
0.00023996
-0.191468
0.192034
0.000338439
0.192458
0.00043678
0.192975
0.000534812
0.193586
0.000632362
0.194288
0.000729264
0.195083
0.000825345
0.195968
0.000920439
0.00101437
0.200894
-0.200654
0.201233
0.201669
0.202204
0.202837
0.203566
0.204391
0.205312
0.0492469
-0.016415
-0.048974
0.0496772
-0.0156382
0.0501585
-0.014612
0.0506522
-0.0134928
0.0511489
-0.0123303
0.0516498
-0.0111378
0.0521533
-0.009905
0.052658
-0.00863144
0.0531637
-0.00732219
0.0536708
-0.00598043
0.0541797
-0.00460827
0.0546907
-0.00320845
0.0552028
-0.00178792
0.0557192
-0.00036964
0.0562446
0.00115819
0.0567586
0.00268475
0.0572712
0.00421509
0.0577842
0.0057598
0.0582979
0.00731886
0.00889113
0.0525096
-0.0168253
-0.0520993
0.0528848
-0.0160134
0.053293
-0.0150202
0.0537197
-0.0139195
0.0541409
-0.0127516
0.0545608
-0.0115577
0.0549863
-0.0103304
0.0554177
-0.00906286
0.0558546
-0.00775914
0.0562978
-0.00642363
0.056748
-0.00505841
0.0572053
-0.00366574
0.0576669
-0.0022495
0.0581146
-0.000817345
0.0586055
0.000667281
0.0590929
0.00219736
0.0595847
0.00372328
0.0600838
0.00526065
0.0605904
0.00681222
0.00837706
0.0558569
-0.0171824
-0.0554997
0.0561859
-0.0163424
0.0565214
-0.0153558
0.0568775
-0.0142755
0.0572362
-0.0131103
0.0575934
-0.0119149
0.0579562
-0.0106933
0.0583273
-0.00943397
0.0587059
-0.00813771
0.0590918
-0.00680956
0.0594855
-0.00545207
0.0598867
-0.00406698
0.0602936
-0.00265634
0.0607032
-0.00122695
0.0611547
0.000215741
0.0616014
0.0017507
0.0620599
0.00326474
0.0625314
0.00478916
0.0630165
0.00632715
0.00787777
0.059322
-0.0174605
-0.0590439
0.0595893
-0.0166098
0.0598574
-0.0156239
0.0601428
-0.0145609
0.0604382
-0.0134057
0.0607362
-0.0122129
0.0610402
-0.0109972
0.0613542
-0.00974794
0.0616783
-0.00846186
0.0620122
-0.00714343
0.0623562
-0.00579614
0.0627111
-0.00442183
0.0630768
-0.00302208
0.0634516
-0.00160168
0.0638468
-0.000179449
0.0642625
0.00133499
0.0646911
0.00283608
0.0651358
0.00434446
0.0655981
0.00586486
0.00739693
0.0629001
-0.0176666
-0.0626939
0.0631062
-0.016816
0.0633112
-0.0158289
0.0635291
-0.0147787
0.0637605
-0.0136372
0.0639991
-0.0124515
0.0642453
-0.0112434
0.0645028
-0.0100055
0.0647732
-0.00873225
0.0650564
-0.00742668
0.065353
-0.00609275
0.0656639
-0.00473275
0.0659903
-0.00334842
0.0663319
-0.00194325
0.0666786
-0.000526211
0.067067
0.000946631
0.0674693
0.0024337
0.0678905
0.00392334
0.0683325
0.00542281
0.00693282
0.0666062
-0.0178031
-0.0664697
0.0667494
-0.0169591
0.0668912
-0.0159707
0.0670425
-0.01493
0.0672089
-0.0138036
0.0673871
-0.0126296
0.0675756
-0.011432
0.0677775
-0.0102073
0.0679949
-0.00894962
0.0682284
-0.00766021
0.0684786
-0.00634294
0.0687463
-0.00500042
0.0690323
-0.00363446
0.0693366
-0.00224752
0.0696561
-0.000845756
0.070014
0.000588715
0.0703906
0.00205708
0.0707898
0.00352416
0.0712133
0.00499929
0.00648373
0.0704497
-0.0178671
-0.0703857
0.0705256
-0.017035
0.070602
-0.0160472
0.0706868
-0.0150148
0.0707881
-0.0139049
0.0709052
-0.0127467
0.0710364
-0.0115633
0.0711835
-0.0103544
0.0713489
-0.00911498
0.0715337
-0.00784499
0.0717385
-0.00654777
0.0719642
-0.00522607
0.0722116
-0.00388184
0.0724812
-0.00251717
0.0727719
-0.00113643
0.0731023
0.000258275
0.0734532
0.00170621
0.0738311
0.00314623
0.0742373
0.00459316
0.00604857
0.074433
-0.0178564
-0.0744437
0.0744377
-0.0170397
0.074447
-0.0160564
0.0744656
-0.0150334
0.0745022
-0.0139414
0.0745582
-0.0128028
0.0746325
-0.0116376
0.0747259
-0.0104478
0.0748404
-0.00922949
0.0749776
-0.00798219
0.0751384
-0.00670853
0.0753234
-0.00541115
0.0755336
-0.004092
0.0757691
-0.00275266
0.0760293
-0.00139661
0.0763338
-4.62143e-05
0.0766596
0.00138041
0.0770172
0.0027886
0.0774064
0.00420394
0.00562715
0.0785566
-0.0177706
-0.0786425
0.0784885
-0.0169716
0.0784295
-0.0159975
0.0783824
-0.0149863
0.0783553
-0.0139144
0.0783511
-0.0127985
0.078369
-0.0116555
0.0784095
-0.0104883
0.0784743
-0.00929425
0.078565
-0.00807291
0.0786828
-0.00682632
0.0788287
-0.00555705
0.0790038
-0.00426717
0.0792098
-0.00295862
0.0794474
-0.00163424
0.0797034
-0.000302195
0.0800107
0.00107308
0.0803492
0.00245013
0.0807219
0.00383122
0.00521894
0.0828227
-0.0176102
-0.082983
0.0826815
-0.0168304
0.0825541
-0.0158701
0.082442
-0.0148742
0.0823525
-0.0138249
0.0822889
-0.0127349
0.0822512
-0.0116178
0.0822396
-0.0104767
0.0822556
-0.00931022
0.0823007
-0.00811801
0.0823762
-0.00690181
0.0824831
-0.00566392
0.0826222
-0.00440633
0.0827945
-0.00313091
0.0830001
-0.00183982
0.0832367
-0.000538764
0.0835188
0.000790914
0.0838372
0.00213178
0.0841929
0.00347553
0.00482495
0.0872354
-0.0173764
-0.0874692
0.0870218
-0.0166168
0.0868263
-0.0156746
0.0866501
-0.014698
0.0864994
-0.0136741
0.0863775
-0.012613
0.086285
-0.0115253
0.0862221
-0.0104139
0.0861901
-0.00927816
0.0861903
-0.00811823
0.086224
-0.00693556
0.0862923
-0.0057322
0.0863961
-0.00451007
0.0865361
-0.00327093
0.0867131
-0.00201681
0.0869258
-0.00075153
0.0871842
0.000532545
0.0874817
0.00183426
0.0878199
0.00313734
0.00444541
0.0918005
-0.01707
-0.0921069
0.0915154
-0.0163317
0.0912527
-0.0154119
0.0910133
-0.0144586
0.0908024
-0.0134633
0.0906234
-0.012434
0.0904769
-0.0113788
0.0903635
-0.0103004
0.0902841
-0.00919877
0.0902401
-0.00807421
0.0902326
-0.00692814
0.0902629
-0.0057624
0.0903316
-0.00457881
0.0904397
-0.00337909
0.090588
-0.0021651
0.0907762
-0.000939681
0.0910118
0.000296944
0.0912886
0.00155743
0.091609
0.00281697
0.00408076
0.096525
-0.0166923
-0.0969028
0.0961696
-0.0159763
0.0958406
-0.0150828
0.0955388
-0.0141568
0.0952689
-0.0131933
0.0950336
-0.0121987
0.094834
-0.0111793
0.0946707
-0.0101371
0.0945446
-0.00907265
0.0944569
-0.00798654
0.0944089
-0.00688009
0.0944014
-0.00575498
0.0944355
-0.00461286
0.0945118
-0.00345537
0.0946309
-0.00228419
0.094793
-0.00110178
0.0950071
8.28057e-05
0.0952628
0.00130177
0.0955656
0.00251418
0.00373082
0.101417
-0.0162441
-0.101865
0.100992
-0.0155518
0.100598
-0.0146884
0.100235
-0.0137936
0.0999064
-0.0128651
0.0996158
-0.0119081
0.0993638
-0.0109273
0.0991512
-0.00992447
0.0989789
-0.00890034
0.098848
-0.0078557
0.0987598
-0.00679185
0.0987152
-0.00571036
0.0987151
-0.00461282
0.0987606
-0.00350078
0.0988523
-0.0023759
0.0989907
-0.00124019
0.0991748
-0.000101278
0.0994111
0.00106545
0.0996958
0.00222943
0.00339659
0.106484
-0.0157266
-0.107001
0.105992
-0.0150594
0.105533
-0.0142297
0.105109
-0.0133699
0.104723
-0.0124794
0.104378
-0.0115628
0.104074
-0.0106235
0.103813
-0.00966305
0.103595
-0.00868223
0.103421
-0.007682
0.103293
-0.00666366
0.103211
-0.00562867
0.103177
-0.00457853
0.103191
-0.00351473
0.103254
-0.00243883
0.103366
-0.00135262
0.103525
-0.000260435
0.103741
0.000849907
0.104008
0.00196239
0.00307749
0.111736
-0.0151406
-0.112322
0.111177
-0.0145004
0.110655
-0.0137077
0.110171
-0.0128863
0.109729
-0.012037
0.10933
-0.0111635
0.108975
-0.0102685
0.108665
-0.0093532
0.108401
-0.00841858
0.108185
-0.00746562
0.108017
-0.00649559
0.107898
-0.00550988
0.107829
-0.00450988
0.107811
-0.00349703
0.107845
-0.00247279
0.107932
-0.00143878
0.108069
-0.000397961
0.108263
0.000655705
0.108512
0.00171397
0.00277444
0.117183
-0.014487
-0.117837
0.116559
-0.0138758
0.115974
-0.0131232
0.115432
-0.0123434
0.114933
-0.0115382
0.11448
-0.0107105
0.114074
-0.00986251
0.113716
-0.00899525
0.113407
-0.00810963
0.113148
-0.00720673
0.11294
-0.00628777
0.112784
-0.00535407
0.112682
-0.00440695
0.112632
-0.00344776
0.112637
-0.00247788
0.112697
-0.00149882
0.112812
-0.000512796
0.112985
0.000482732
0.113215
0.00148426
0.0024875
0.122837
-0.0137665
-0.123558
0.122148
-0.0131866
0.121502
-0.012477
0.1209
-0.011742
0.120346
-0.0109836
0.11984
-0.0102044
0.119383
-0.00940601
0.118977
-0.00858943
0.118623
-0.00775556
0.118322
-0.00690545
0.118074
-0.00604029
0.117882
-0.00516132
0.117745
-0.00426978
0.117664
-0.00336694
0.11764
-0.00245412
0.117674
-0.0015327
0.117766
-0.000604505
0.117917
0.000330818
0.118129
0.00127313
0.00221661
0.12871
-0.0129799
-0.129497
0.127957
-0.0124335
0.12725
-0.0117697
0.12659
-0.0110824
0.12598
-0.0103735
0.125421
-0.00964531
0.124914
-0.00889917
0.124461
-0.00813594
0.124062
-0.0073565
0.123718
-0.00656188
0.123431
-0.00575321
0.123202
-0.00493165
0.12303
-0.00409838
0.122918
-0.0032546
0.122865
-0.00240153
0.122873
-0.00154047
0.122941
-0.000672939
0.123072
0.0001998
0.123265
0.00108048
0.00196169
0.134817
-0.0121275
-0.13567
0.134001
-0.0116172
0.133233
-0.0110019
0.132516
-0.0103649
0.13185
-0.00970814
0.131239
-0.00903353
0.130682
-0.00834219
0.130181
-0.0076349
0.129737
-0.00691254
0.129351
-0.00617607
0.129024
-0.00542657
0.128758
-0.00466512
0.128552
-0.00389281
0.128408
-0.00311076
0.128327
-0.00232013
0.128309
-0.00152211
0.128354
-0.000718062
0.128464
8.93292e-05
0.128638
0.000906146
0.00172245
0.141174
-0.0112099
-0.142092
0.140295
-0.0107383
0.139467
-0.010174
0.138692
-0.00958985
0.137972
-0.00898772
0.137308
-0.00836917
0.136701
-0.00773515
0.136152
-0.00708641
0.135663
-0.00642375
0.135235
-0.0057481
0.134869
-0.00506045
0.134566
-0.00436179
0.134326
-0.00365314
0.134151
-0.00293553
0.134041
-0.00221001
0.133996
-0.00147767
0.134018
-0.000739724
0.134109
-1.80155e-06
0.134265
0.000750005
0.00149869
0.1478
-0.0102271
-0.148783
0.146859
-0.00979706
0.145971
-0.00928615
0.145139
-0.00875736
0.144363
-0.0082123
0.143646
-0.00765227
0.142989
-0.0070781
0.142393
-0.00649047
0.14186
-0.00589016
0.14139
-0.00527802
0.140984
-0.00465493
0.140644
-0.00402183
0.140371
-0.00337964
0.140165
-0.00272931
0.140026
-0.00207182
0.139957
-0.00140817
0.139957
-0.000739444
0.140023
-6.78276e-05
0.140162
0.00061058
0.0012892
0.154717
-0.0091794
-0.155765
0.153713
-0.00879358
0.152766
-0.00833842
0.151876
-0.00786739
0.151045
-0.00738181
0.150276
-0.00688275
0.149568
-0.00637095
0.148925
-0.00584704
0.148347
-0.00531173
0.147834
-0.00476577
0.147389
-0.00420998
0.147013
-0.0036452
0.146705
-0.00307224
0.146468
-0.00249198
0.146302
-0.00190528
0.146206
-0.00131305
0.146183
-0.000716233
0.146232
-0.00011635
0.146354
0.000488277
0.00109381
0.161949
-0.00806653
-0.163061
0.160883
-0.0077278
0.159875
-0.0073307
0.158927
-0.00691977
0.158042
-0.00649607
0.157219
-0.00606045
0.156462
-0.00561357
0.155771
-0.005156
0.155148
-0.00468836
0.154593
-0.00421134
0.154109
-0.00372565
0.153696
-0.00323201
0.153355
-0.00273118
0.153086
-0.00222389
0.152892
-0.00171093
0.152772
-0.0011931
0.152727
-0.000671208
0.152757
-0.000146397
0.152863
0.000381996
0.000911506
0.169523
-0.00688828
-0.170702
0.168395
-0.00659945
0.167327
-0.0062627
0.166322
-0.00591421
0.16538
-0.00555478
0.164505
-0.00518511
0.163697
-0.00480573
0.162958
-0.00441717
0.16229
-0.00401997
0.161693
-0.0036147
0.16117
-0.00320198
0.16072
-0.00278244
0.160346
-0.00235671
0.160047
-0.00192543
0.159825
-0.00148928
0.159681
-0.00104893
0.159615
-0.000605084
0.159627
-0.00015863
0.159719
0.000290609
0.000740981
0.177474
-0.00564423
-0.178718
0.176282
-0.00540807
0.175154
-0.00513396
0.17409
-0.00485026
0.173092
-0.00455756
0.172164
-0.00425637
0.171305
-0.00394716
0.170518
-0.00363036
0.169805
-0.00330643
0.169166
-0.00297584
0.168603
-0.00263909
0.168117
-0.00229669
0.16771
-0.00194917
0.167381
-0.00159707
0.167133
-0.00124093
0.166965
-0.000881317
0.166879
-0.000518803
0.166875
-0.000154072
0.166952
0.000212817
0.000580744
0.185836
-0.00433385
-0.187146
0.184581
-0.00415307
0.183391
-0.00394391
0.182268
-0.00372739
0.181214
-0.0035039
0.180231
-0.00327383
0.179322
-0.00303753
0.178487
-0.00279534
0.177728
-0.00254763
0.177047
-0.00229474
0.176445
-0.00203708
0.175923
-0.00177503
0.175483
-0.001509
0.175125
-0.0012394
0.174851
-0.000966666
0.174661
-0.000691217
0.174556
-0.000413509
0.174536
-0.000134054
0.174601
0.00014703
0.000428994
0.19465
-0.00295653
-0.196028
0.193331
-0.00283373
0.192079
-0.00269188
0.190897
-0.00254499
0.189786
-0.00239331
0.188749
-0.00223708
0.187788
-0.00207655
0.186905
-0.00191195
0.186101
-0.00174353
0.185378
-0.00157155
0.184737
-0.00139625
0.18418
-0.00121792
0.183708
-0.00103683
0.183321
-0.00085327
0.183022
-0.000667525
0.182811
-0.000479894
0.182688
-0.000290682
0.182654
-0.000100223
0.18271
9.13227e-05
0.000283504
0.203965
-0.00151179
-0.205409
0.20258
-0.00144936
0.201266
-0.00137719
0.200023
-0.00130244
0.198855
-0.00122522
0.197764
-0.00114564
0.196751
-0.00106385
0.195819
-0.000979952
0.194969
-0.000894075
0.194204
-0.000806346
0.193525
-0.000716901
0.192933
-0.000625876
0.192429
-0.000533415
0.192016
-0.000439661
0.191693
-0.000344767
0.191462
-0.000248883
0.191324
-0.000152176
0.191278
-5.48356e-05
0.191326
4.31306e-05
0.000141498
0.21383
-0.215342
0.212381
0.211004
0.209701
0.208476
0.20733
0.206266
0.205286
0.204392
0.203586
0.202869
0.202243
0.20171
0.20127
0.200925
0.200677
0.200524
0.20047
0.200513
0.0503767
0.000863358
-0.000789061
0.0502187
0.00167233
-0.0015144
0.0499406
0.0039075
-0.00362931
0.0496251
0.00517119
-0.00485574
0.0492013
0.00787743
-0.00745366
0.0487709
0.00942756
-0.00899716
0.048248
0.0124135
-0.0118905
0.0477704
0.0141388
-0.0136612
0.0472341
0.0173707
-0.0168344
0.0468513
0.0191409
-0.0187581
0.0464598
0.0226366
-0.0222451
0.046437
0.0241012
-0.0240784
0.0464327
0.0279278
-0.0279234
0.0472807
0.0281619
-0.0290099
0.0322826
-0.0339759
0.0528464
0.000938229
0.0526893
0.00182944
0.0524083