/*--------------------------------*- C++ -*----------------------------------*\
  =========                 |
  \\      /  F ield         | OpenFOAM: The Open Source CFD Toolbox
   \\    /   O peration     | Website:  https://openfoam.org
    \\  /    A nd           | Version:  7
     \\/     M anipulation  |
\*---------------------------------------------------------------------------*/
FoamFile
{
    version     2.0;
    format      ascii;
    class       volScalarField;
    location    "150";
    object      p;
}
// * * * * * * * * * * * * * * * * * * * * * * * * * * * * * * * * * * * * * //

dimensions      [0 2 -2 0 0 0 0];

internalField   nonuniform List<scalar> 
2125
(
-0.36689
-0.373007
-0.369034
-0.379709
-0.374618
-0.387035
-0.38077
-0.374567
-0.395023
-0.387536
-0.380498
-0.372376
-0.4037
-0.39495
-0.387063
-0.378014
-0.367289
-0.353908
-0.413077
-0.403029
-0.394277
-0.384199
-0.372129
-0.356985
-0.337785
-0.423134
-0.411765
-0.402121
-0.390882
-0.377212
-0.359949
-0.33843
-0.313594
-0.433816
-0.421118
-0.410537
-0.397974
-0.382392
-0.362647
-0.338599
-0.311679
-0.283536
-0.256737
-0.445033
-0.431011
-0.419428
-0.405337
-0.387483
-0.364921
-0.338202
-0.309211
-0.27981
-0.252127
-0.45665
-0.441326
-0.428651
-0.412785
-0.392268
-0.36661
-0.337152
-0.306142
-0.275546
-0.247008
-0.468495
-0.451902
-0.438023
-0.420082
-0.396516
-0.367561
-0.33536
-0.30242
-0.270701
-0.241344
-0.480349
-0.462538
-0.447312
-0.426957
-0.399991
-0.367622
-0.332738
-0.297983
-0.265225
-0.235093
-0.491956
-0.472988
-0.456248
-0.433113
-0.402466
-0.366652
-0.329196
-0.292766
-0.259061
-0.228212
-0.503026
-0.48297
-0.464518
-0.438243
-0.403723
-0.364516
-0.324646
-0.286698
-0.252152
-0.22066
-0.513234
-0.492171
-0.471786
-0.442045
-0.403557
-0.361087
-0.318999
-0.27971
-0.244438
-0.212398
-0.522238
-0.500253
-0.477698
-0.44423
-0.401784
-0.356249
-0.312172
-0.271733
-0.235864
-0.20339
-0.529679
-0.506861
-0.481899
-0.44453
-0.398237
-0.349895
-0.304084
-0.262702
-0.226379
-0.193608
-0.535194
-0.511633
-0.484048
-0.442705
-0.39277
-0.341928
-0.294663
-0.252556
-0.215942
-0.183036
-0.53843
-0.514215
-0.483831
-0.438547
-0.385258
-0.332265
-0.28384
-0.24124
-0.204521
-0.171665
-0.53905
-0.514264
-0.480969
-0.431881
-0.375601
-0.320836
-0.271559
-0.228701
-0.192073
-0.159456
-0.536744
-0.511471
-0.475227
-0.422573
-0.363723
-0.307591
-0.257778
-0.214901
-0.178537
-0.146264
-0.531237
-0.505559
-0.466417
-0.410524
-0.349574
-0.292496
-0.242475
-0.199828
-0.163869
-0.131837
-0.522299
-0.496306
-0.454401
-0.395675
-0.333128
-0.275534
-0.225638
-0.183494
-0.148124
-0.11613
-0.509749
-0.483541
-0.439084
-0.378002
-0.314383
-0.256704
-0.207264
-0.165906
-0.131384
-0.0998973
-0.49346
-0.467153
-0.420425
-0.357517
-0.293365
-0.236025
-0.187384
-0.147112
-0.113466
-0.0831567
-0.473363
-0.447088
-0.398428
-0.334268
-0.270124
-0.213547
-0.166088
-0.127129
-0.0945193
-0.0657052
-0.449444
-0.423349
-0.373155
-0.308343
-0.24473
-0.189362
-0.143411
-0.105974
-0.0746552
-0.0475077
-0.421745
-0.396005
-0.344737
-0.279862
-0.217259
-0.163541
-0.119402
-0.0837294
-0.0539413
-0.0286181
-0.390364
-0.365185
-0.313368
-0.248912
-0.18782
-0.136167
-0.0941538
-0.0604822
-0.0324469
-0.00913396
-0.355459
-0.331091
-0.279165
-0.215515
-0.156638
-0.107378
-0.0677753
-0.036328
-0.0102538
0.0108346
-0.317252
-0.293992
-0.241959
-0.18014
-0.123825
-0.0773163
-0.0403906
-0.0113685
0.0125548
0.0312013
-0.275963
-0.25413
-0.20203
-0.142968
-0.0895912
-0.0461404
-0.012136
0.01429
0.0358931
0.051876
-0.231784
-0.211302
-0.160413
-0.104184
-0.0541293
-0.0140201
0.0168534
0.0405472
0.05962
0.0725267
-0.185048
-0.166187
-0.117237
-0.064061
-0.0176463
0.0188736
0.0464603
0.0673175
0.0834576
0.092351
-0.136384
-0.119012
-0.0726268
-0.0228728
0.0196316
0.0523662
0.0765752
0.0944947
0.107071
0.110784
-0.0859562
-0.0703016
-0.0268547
0.0191052
0.0574659
0.0862696
0.107037
0.121842
0.130355
0.129512
-0.0341803
-0.0204863
0.0197375
0.0615868
0.0956112
0.120375
0.137597
0.148967
0.153294
0.153288
0.0184988
0.0300336
0.0667852
0.104275
0.133818
0.154455
0.16799
0.175744
0.176775
0.177148
0.071636
0.0808517
0.113919
0.146865
0.171828
0.188281
0.198044
0.202233
0.200451
0.199721
0.124783
0.131555
0.160769
0.18905
0.209382
0.221622
0.227584
0.228311
0.223894
0.221322
0.177489
0.18173
0.20697
0.230522
0.246218
0.254257
0.256441
0.2538
0.246763
0.241943
0.229308
0.230962
0.252162
0.270978
0.282079
0.285969
0.284435
0.27852
0.268869
0.261612
0.279799
0.278847
0.295993
0.310122
0.316714
0.316543
0.311386
0.302295
0.29006
0.280289
0.328535
0.32499
0.338122
0.347664
0.349877
0.345775
0.337115
0.324965
0.310209
0.297914
0.3751
0.36901
0.378221
0.383329
0.381335
0.373463
0.361452
0.34638
0.329194
0.314415
0.419098
0.410545
0.415978
0.416852
0.410862
0.399418
0.384234
0.366401
0.346904
0.329715
0.460153
0.449251
0.451098
0.447984
0.438248
0.423457
0.405306
0.384896
0.36323
0.343739
0.497915
0.484809
0.483307
0.476492
0.463294
0.445414
0.424525
0.401742
0.37807
0.356418
0.53206
0.516923
0.51235
0.502162
0.485817
0.465133
0.441759
0.416827
0.39133
0.367684
0.562291
0.545325
0.537999
0.524798
0.505652
0.482472
0.456888
0.430047
0.402922
0.377478
0.588346
0.569776
0.560048
0.544228
0.522651
0.497305
0.469805
0.441311
0.412771
0.385747
0.609994
0.590066
0.578317
0.560299
0.536683
0.509521
0.480415
0.450537
0.420808
0.392447
0.627039
0.60602
0.592656
0.572883
0.54764
0.519028
0.48864
0.457656
0.426976
0.397539
0.639323
0.617492
0.602939
0.581874
0.555432
0.52575
0.494414
0.462614
0.431229
0.400996
0.646723
0.624372
0.609073
0.587192
0.55999
0.529627
0.497688
0.465368
0.433532
0.402795
0.588783
0.561267
0.530621
0.498428
0.465888
0.433859
0.402914
-0.180702
-0.189425
-0.197534
-0.205049
-0.211992
-0.218384
-0.224244
-0.22959
-0.164578
-0.172813
-0.180529
-0.187745
-0.194478
-0.200745
-0.206558
-0.211929
-0.149587
-0.157303
-0.16459
-0.17147
-0.177959
-0.184074
-0.189832
-0.195251
-0.135683
-0.142921
-0.149816
-0.156385
-0.162645
-0.168613
-0.174306
-0.179746
-0.122856
-0.129643
-0.136156
-0.142408
-0.148413
-0.154186
-0.15974
-0.165092
-0.111016
-0.117363
-0.12349
-0.129405
-0.135119
-0.140643
-0.145985
-0.151155
-0.100069
-0.105988
-0.111728
-0.117295
-0.122697
-0.127943
-0.13304
-0.137996
-0.0899297
-0.0954392
-0.100802
-0.106023
-0.111111
-0.116073
-0.120916
-0.12565
-0.0805351
-0.0856566
-0.0906556
-0.0955407
-0.100318
-0.104994
-0.109574
-0.114068
-0.0718484
-0.0765982
-0.0812463
-0.085802
-0.0902703
-0.094656
-0.098964
-0.1032
-0.0638205
-0.0682143
-0.0725251
-0.0767603
-0.0809242
-0.0850207
-0.0890538
-0.0930285
-0.0563822
-0.0604415
-0.0644332
-0.0683625
-0.072233
-0.076048
-0.0798115
-0.0835277
-0.0495032
-0.0532472
-0.0569365
-0.060574
-0.0641625
-0.0677048
-0.0712044
-0.0746645
-0.0431323
-0.046583
-0.0499886
-0.0533502
-0.0566702
-0.0599511
-0.0631955
-0.0664063
-0.0372331
-0.0404164
-0.0435568
-0.0466586
-0.0497246
-0.0527569
-0.0557574
-0.0587283
-0.03179
-0.0347198
-0.0376118
-0.0404698
-0.0432964
-0.0460932
-0.0488616
-0.0516033
-0.0543201
-0.0267777
-0.0294688
-0.0321281
-0.0347578
-0.0373594
-0.0399341
-0.0424829
-0.045007
-0.0475079
-0.0221558
-0.0246285
-0.0270734
-0.0294918
-0.0318845
-0.0342522
-0.0365957
-0.0389157
-0.0412134
-0.0179083
-0.0201809
-0.0224286
-0.0246518
-0.0268512
-0.0290269
-0.0311794
-0.0333092
-0.0354171
-0.0140167
-0.0161066
-0.0181736
-0.0202178
-0.0222394
-0.0242384
-0.0262148
-0.0281689
-0.0301011
-0.0104666
-0.0123907
-0.0142934
-0.0161747
-0.0180341
-0.0198715
-0.0216868
-0.0234798
-0.0252507
-0.00724539
-0.00901968
-0.0107739
-0.0125079
-0.0142207
-0.0159117
-0.0175808
-0.0192277
-0.0208524
-0.00433906
-0.00598289
-0.00760674
-0.00920955
-0.0107911
-0.0123512
-0.0138893
-0.0154052
-0.0168985
-0.00176103
-0.00328652
-0.00479233
-0.00627775
-0.00774243
-0.00918591
-0.0106076
-0.012007
-0.0133836
0.000498053
-0.000923804
-0.00232675
-0.00370994
-0.00507271
-0.00641442
-0.00773438
-0.00903202
-0.0103068
0.00243437
0.00110062
-0.000214648
-0.00151052
-0.00278622
-0.00404101
-0.00527419
-0.00648508
-0.00767309
0.00403826
0.0027777
0.00153535
0.000312085
-0.000891271
-0.00207395
-0.00323521
-0.00437436
-0.00549077
0.00528648
0.00408374
0.00289898
0.0017331
0.0005869
-0.000538846
-0.00164341
-0.00272609
-0.00378625
0.00617012
0.00500942
0.00386633
0.00274165
0.00163619
0.000550709
-0.000514053
-0.00155741
-0.00257873
0.00661461
0.00548167
0.00436631
0.00326929
0.00219123
0.00113274
9.44317e-05
-0.000923127
-0.00191938
0.122108
0.103291
0.0855226
0.068009
0.049648
0.0311085
0.012965
-0.00474224
-0.0220315
-0.0388313
-0.0550676
-0.0707105
-0.0857485
-0.100175
-0.113959
-0.127125
-0.139343
-0.150699
-0.161346
-0.171345
0.113968
0.0954726
0.0769369
0.0604259
0.0437703
0.0267983
0.0102381
-0.00575188
-0.0212889
-0.036384
-0.050982
-0.0650538
-0.0785629
-0.0914205
-0.103368
-0.115075
-0.126217
-0.13667
-0.146514
-0.155813
0.104767
0.0871959
0.0688874
0.0534439
0.0386581
0.0234948
0.00854496
-0.005828
-0.0197198
-0.0332114
-0.0462633
-0.058819
-0.0708312
-0.0822604
-0.0931137
-0.103877
-0.114117
-0.123737
-0.132818
-0.141428
0.0950479
0.0788039
0.0615371
0.0472922
0.0342082
0.020796
0.00738054
-0.00554389
-0.0179736
-0.0300264
-0.0417065
-0.0529656
-0.0637723
-0.0741161
-0.0840043
-0.0936141
-0.102901
-0.111734
-0.120113
-0.128086
0.0856951
0.0710111
0.0551676
0.0421467
0.0305184
0.0186758
0.00668864
-0.00492919
-0.0160705
-0.0268485
-0.0373107
-0.0474299
-0.0571839
-0.0665672
-0.0755712
-0.0840986
-0.0925043
-0.100631
-0.108383
-0.115778
0.0771463
0.0640125
0.0497125
0.0378859
0.0274984
0.0170267
0.00635233
-0.00406937
-0.0140623
-0.0237083
-0.0330781
-0.0421649
-0.0509431
-0.0593976
-0.0675211
-0.0753077
-0.0829865
-0.0904388
-0.0975844
-0.104431
0.0695068
0.0577971
0.0450414
0.0343774
0.0250728
0.0157917
0.00630668
-0.0030188
-0.0119814
-0.0206233
-0.0290192
-0.0371798
-0.0450864
-0.0527273
-0.0601085
-0.067238
-0.0742702
-0.0810862
-0.0876422
-0.0939594
0.0627668
0.052336
0.041058
0.0315144
0.0231749
0.0149265
0.00650246
-0.00182683
-0.00986362
-0.0176171
-0.0251531
-0.0324924
-0.0396202
-0.0465164
-0.053176
-0.0596259
-0.0661369
-0.0724101
-0.0784362
-0.0842661
0.0568896
0.0476074
0.037699
0.0292112
0.0217404
0.0143901
0.00690188
-0.000531351
-0.00773642
-0.0147019
-0.0214803
-0.0281007
-0.0345626
-0.0408657
-0.0470136
-0.0529984
-0.0586687
-0.0643129
-0.0698692
-0.0752777
0.0518267
0.0435779
0.0349093
0.0273929
0.0207047
0.0141394
0.00747221
0.000838269
-0.00562062
-0.0118829
-0.0179864
-0.0239578
-0.0297983
-0.0355003
-0.0410551
-0.0464533
-0.0516853
-0.0568726
-0.0619866
-0.0669821
0.0475172
0.0401968
0.0326315
0.0259917
0.0200065
0.0141312
0.00818367
0.00225894
-0.00353196
-0.00916475
-0.0146649
-0.020054
-0.0253353
-0.0305038
-0.0355548
-0.0404875
-0.045297
-0.0500546
-0.0547417
-0.0593325
0.0438916
0.0374018
0.0308063
0.0249469
0.0195908
0.0143245
0.0090087
0.00371118
-0.00148388
-0.00655401
-0.0115157
-0.0163857
-0.0211681
-0.0258601
-0.0304582
-0.034962
-0.0393713
-0.0437343
-0.0480313
-0.0522477
0.0408778
0.0351272
0.029376
0.0242046
0.0194097
0.0146823
0.00992193
0.00517794
0.000512708
-0.00405507
-0.00853568
-0.0129413
-0.0172754
-0.0215368
-0.0257238
-0.0298383
-0.033883
-0.0378899
-0.0418314
-0.0457003
0.0384049
0.0333091
0.028287
0.0237177
0.0194218
0.0151722
0.0109006
0.00664435
0.00244874
-0.00167186
-0.0057237
-0.00971475
-0.0136468
-0.0175172
-0.0213213
-0.0250588
-0.0287405
-0.0324514
-0.0360817
-0.0396348
0.0364052
0.0318872
0.0274909
0.0234454
0.019592
0.0157663
0.0119254
0.00809881
0.00431874
0.000595388
-0.00307546
-0.00669964
-0.0102798
-0.0138166
-0.0173114
-0.0207634
-0.0241633
-0.0274481
-0.0307327
-0.0340031
0.034816
0.0308057
0.0269445
0.0233526
0.0198907
0.0164413
0.0129806
0.00953288
0.00612101
0.0027519
-0.000577048
-0.00386919
-0.00712535
-0.0103443
-0.0135239
-0.016661
-0.0197517
-0.0227918
-0.0258161
-0.0288202
0.0335796
0.0300141
0.026609
0.0234088
0.0202922
0.0171766
0.0140519
0.0109386
0.00785289
0.0047994
0.00177654
-0.00121738
-0.00418229
-0.00711693
-0.01002
-0.01289
-0.0157258
-0.0185233
-0.0213
-0.0240537
0.0326438
0.0294668
0.0264495
0.0235868
0.0207739
0.0179539
0.0151259
0.0123074
0.00951014
0.0067369
0.00398672
0.00125897
-0.00144575
-0.00412615
-0.00678098
-0.00940894
-0.0120088
-0.0145784
-0.0171279
-0.019655
0.0319614
0.0291227
0.0264347
0.0238619
0.0213154
0.0187566
0.0161902
0.0136313
0.0110886
0.00856363
0.00605593
0.00356554
0.00109346
-0.00135892
-0.00379031
-0.00619948
-0.00858532
-0.0109466
-0.0132891
-0.0156107
0.0314903
0.0289451
0.026536
0.0242118
0.0218982
0.0195693
0.017233
0.0149024
0.0125839
0.0102784
0.00798588
0.00570668
0.00344212
0.00119365
-0.00103739
-0.00324976
-0.00544236
-0.00761417
-0.00976887
-0.0119038
0.0311923
0.0289008
0.0267276
0.024616
0.022505
0.0203778
0.0182434
0.0161129
0.0139913
0.0118794
0.00977706
0.00768522
0.00560522
0.00353858
0.00148663
-0.000549416
-0.00256845
-0.00456949
-0.00655493
-0.00852124
0.0310333
0.02896
0.0269855
0.0250551
0.0231197
0.0211683
0.01921
0.0172543
0.015305
0.0133629
0.0114281
0.00950172
0.00758525
0.00568025
0.00378816
0.00191024
4.75362e-05
-0.00179963
-0.00363429
-0.00545035
0.0309826
0.0290955
0.0272877
0.0255109
0.0237264
0.0219273
0.0201218
0.0183176
0.016518
0.0147238
0.0129353
0.0111537
0.00938044
0.00761706
0.00586495
0.00412551
0.00240018
0.00069092
-0.00100097
-0.00267765
0.0310123
0.0292826
0.0276136
0.0259659
0.02431
0.0226415
0.0209671
0.0192933
0.0176228
0.0159565
0.0142949
0.0126393
0.010991
0.00935169
0.00772264
0.00610521
0.00450082
0.00291113
0.00134009
-0.000217802
0.0310973
0.0294985
0.0279437
0.0264031
0.0248553
0.023297
0.0217338
0.0201707
0.0186101
0.017053
0.0155001
0.0139527
0.0124121
0.0108799
0.0093574
0.00784592
0.00634685
0.00486163
0.0033924
0.00193744
0.0312143
0.029722
0.028259
0.0268054
0.0253463
0.0238793
0.0224083
0.0209372
0.0194683
0.0180025
0.0165409
0.0150845
0.0136348
0.0121932
0.0107609
0.00933935
0.00792976
0.00653348
0.00515214
0.00378539
0.0313421
0.029933
0.0285411
0.0271556
0.0257667
0.0243724
0.0229753
0.0215783
0.0201835
0.0187919
0.0174046
0.0160227
0.0146476
0.0132805
0.0119227
0.0105755
0.00924
0.00791755
0.0066094
0.00531593
0.0314611
0.0301123
0.0287717
0.027436
0.0260991
0.0247591
0.0234176
0.0220767
0.0207381
0.0194032
0.018073
0.0167485
0.0154311
0.0141219
0.0128221
0.011533
0.0102557
0.00899137
0.00774139
0.00650611
0.0315535
0.0302416
0.0289325
0.0276284
0.0263256
0.0250222
0.0237187
0.0224167
0.0211178
0.0198233
0.018534
0.0172512
0.0159758
0.014709
0.0134518
0.0122054
0.0109708
0.00974901
0.00854094
0.00734761
0.0316069
0.0303075
0.0290071
0.0277112
0.0264186
0.0251276
0.0238382
0.0225519
0.02127
0.0199937
0.0187242
0.0174625
0.0162094
0.014966
0.0137334
0.0125124
0.0113041
0.0101094
0.00892932
0.00776418
0.131083
0.133984
0.13768
0.144438
0.15136
0.160819
0.169792
0.180517
0.18933
0.19848
0.202904
0.20554
0.19843
0.186478
0.15349
0.130671
0.133463
0.136995
0.143415
0.149934
0.158735
0.1669
0.176449
0.18385
0.191067
0.193373
0.193073
0.183491
0.167496
0.13816
0.130192
0.132864
0.1362
0.142241
0.148297
0.156377
0.163658
0.171971
0.177926
0.183252
0.183629
0.180867
0.169832
0.152437
0.126696
0.129645
0.132178
0.135304
0.14093
0.146496
0.153801
0.160173
0.167198
0.171742
0.17519
0.173864
0.168967
0.157099
0.13913
0.115275
0.129023
0.131402
0.134308
0.139486
0.144544
0.151032
0.156491
0.162202
0.165401
0.16704
0.164239
0.157545
0.145105
0.126881
0.104157
0.128323
0.130532
0.133208
0.137905
0.142438
0.148072
0.152623
0.157014
0.158944
0.15889
0.154819
0.146684
0.133813
0.115666
0.0939974
0.12754
0.129561
0.131998
0.136185
0.140178
0.14493
0.14858
0.151669
0.152408
0.150815
0.145649
0.136424
0.12327
0.105516
0.084989
0.12667
0.128486
0.130675
0.134325
0.137767
0.141619
0.144383
0.146209
0.145837
0.142888
0.136784
0.126793
0.113525
0.0963885
0.077062
0.125709
0.127302
0.129238
0.132327
0.13521
0.138156
0.140052
0.140684
0.139281
0.135172
0.128285
0.11781
0.104596
0.0882091
0.0701025
0.124654
0.126007
0.127684
0.130197
0.132513
0.134565
0.135614
0.13514
0.132789
0.127723
0.120202
0.109481
0.0964715
0.0809079
0.0640197
0.123503
0.124602
0.126012
0.127943
0.129686
0.130872
0.131098
0.129624
0.126412
0.120582
0.112579
0.101799
0.0891242
0.0744258
0.0587388
0.122254
0.123088
0.124224
0.125576
0.12674
0.127102
0.126536
0.124178
0.1202
0.113782
0.105446
0.0947547
0.082519
0.068707
0.0541895
0.120907
0.12147
0.122321
0.123109
0.123691
0.123284
0.121963
0.11884
0.1142
0.107351
0.0988207
0.0883327
0.0766149
0.0636946
0.0503023
0.119461
0.119753
0.12031
0.120556
0.120559
0.119446
0.117419
0.113644
0.108453
0.101307
0.09271
0.0825143
0.0713679
0.0593299
0.0470092
0.117921
0.117948
0.118197
0.117934
0.117366
0.115614
0.112941
0.108622
0.102992
0.0956662
0.087111
0.0772753
0.0667315
0.0555538
0.0442449
0.11629
0.116065
0.115996
0.11526
0.114138
0.111817
0.108566
0.103804
0.0978434
0.0904377
0.0820134
0.0725866
0.062659
0.0523089
0.0419478
0.114575
0.114116
0.113723
0.112552
0.110906
0.108081
0.104329
0.0992146
0.0930255
0.0856247
0.0774014
0.0684159
0.0591033
0.0495402
0.0400603
0.112788
0.112118
0.111397
0.109829
0.107699
0.104434
0.100262
0.094878
0.0885503
0.0812249
0.0732551
0.0647282
0.0560183
0.0471959
0.0385293
0.110942
0.110086
0.109042
0.107114
0.104547
0.100905
0.09639
0.0908132
0.0844244
0.077231
0.0695516
0.0614882
0.0533592
0.0452273
0.0373064
0.109055
0.108038
0.106685
0.104433
0.10148
0.0975201
0.0927381
0.0870358
0.0806501
0.0736317
0.0662659
0.05866
0.0510831
0.0435891
0.0363473
0.107149
0.105996
0.104355
0.101811
0.0985273
0.0943071
0.0893262
0.0835571
0.077226
0.070413
0.0633718
0.0562089
0.0491498
0.0422398
0.0356119
0.10525
0.103983
0.102082
0.09928
0.0957189
0.0912917
0.0861718
0.0803854
0.0741482
0.0675593
0.060843
0.0541011
0.0475213
0.0411411
0.0350638
0.103389
0.102028
0.0998987
0.0968719
0.0930836
0.0884984
0.0832906
0.0775266
0.0714109
0.0650541
0.0586539
0.0523052
0.046163
0.0402581
0.03467
0.101599
0.100161
0.0978388
0.0946206
0.0906509
0.085951
0.0806972
0.0749849
0.0690077
0.0628815
0.0567805
0.0507918
0.0450431
0.0395593
0.0344009
0.0999188
0.0984177
0.0959379
0.0925618
0.0884515
0.0836732
0.0784057
0.0727645
0.0669324
0.0610267
0.0552011
0.049535
0.0441333
0.0390163
0.0342296
0.0983905
0.0968392
0.0942342
0.0907327
0.086517
0.0816898
0.0764313
0.0708707
0.0651809
0.0594776
0.0538973
0.0485122
0.0434089
0.0386041
0.0341318
0.0970598
0.0954694
0.0927694
0.0891727
0.0848817
0.0800273
0.0747914
0.0693119
0.0637523
0.0582258
0.0528547
0.0477051
0.0428492
0.0383011
0.0340858
0.0959768
0.0943575
0.091589
0.0879243
0.0835826
0.0787164
0.0735082
0.0681011
0.0626513
0.0572687
0.0520647
0.0471006
0.0424381
0.0380891
0.0340725
0.0951959
0.093557
0.0907432
0.0870346
0.082662
0.077793
0.07261
0.0672588
0.0618901
0.0566112
0.0515259
0.0466925
0.0421652
0.0379551
0.0340761
0.0947751
0.0931263
0.0902887
0.0865577
0.08217
0.0773016
0.072134
0.066815
0.0614909
0.0562683
0.0512463
0.0464822
0.0420263
0.0378898
0.0340846
0.131551
0.134814
0.138562
0.146352
0.154106
0.165819
0.177896
0.193837
0.210571
0.231318
0.253487
0.279289
0.306888
0.337997
0.370177
0.131772
0.135045
0.138812
0.146624
0.154409
0.166151
0.178265
0.194246
0.210895
0.231764
0.254
0.279958
0.307394
0.338391
0.370361
0.131968
0.135245
0.13903
0.146855
0.154665
0.166422
0.178555
0.194507
0.211673
0.23211
0.254156
0.27992
0.307134
0.337799
0.36923
0.132137
0.135415
0.139216
0.147047
0.154876
0.166637
0.178738
0.19474
0.211678
0.232127
0.253988
0.279469
0.306233
0.336326
0.366858
0.132279
0.135556
0.139372
0.1472
0.155042
0.166801
0.178884
0.19476
0.211597
0.231936
0.253492
0.278573
0.304685
0.333973
0.363251
0.132396
0.135666
0.139497
0.147314
0.155163
0.166899
0.178969
0.194747
0.211386
0.231524
0.252667
0.277229
0.302493
0.330747
0.35842
0.132486
0.135747
0.139591
0.14739
0.155241
0.166906
0.178955
0.194625
0.211019
0.230891
0.25152
0.275445
0.299665
0.326661
0.35238
0.132549
0.135799
0.139654
0.147429
0.155285
0.166827
0.178845
0.194386
0.210499
0.230041
0.250057
0.273229
0.296212
0.321732
0.345155
0.132587
0.135822
0.139687
0.14743
0.155286
0.166912
0.178653
0.194036
0.20983
0.228979
0.248285
0.270591
0.292147
0.315978
0.33677
0.1326
0.135817
0.13969
0.147399
0.155177
0.166742
0.178387
0.193579
0.209015
0.227709
0.246211
0.267538
0.287482
0.309422
0.327257
0.132586
0.135785
0.139665
0.147339
0.155115
0.166531
0.178049
0.193017
0.208058
0.226236
0.243844
0.264083
0.282231
0.302087
0.316652
0.132548
0.135725
0.13961
0.147238
0.154968
0.166269
0.177639
0.192352
0.206962
0.224563
0.241193
0.260236
0.276411
0.294001
0.304996
0.132485
0.135639
0.139528
0.147095
0.154802
0.165959
0.17716
0.191589
0.205732
0.222696
0.238268
0.256006
0.27004
0.285193
0.292332
0.132397
0.135528
0.13942
0.1469
0.154584
0.165596
0.176613
0.19073
0.204372
0.22064
0.23508
0.251404
0.263137
0.275696
0.278705
0.132286
0.135392
0.139282
0.146696
0.154316
0.165183
0.176
0.189778
0.202889
0.2184
0.231639
0.24644
0.255724
0.265542
0.264157
0.132151
0.135235
0.139091
0.146505
0.154009
0.164721
0.175323
0.188736
0.201283
0.215981
0.227957
0.241124
0.247829
0.254761
0.248725
0.131993
0.135056
0.138951
0.146215
0.153664
0.16421
0.174581
0.187603
0.199555
0.213383
0.224038
0.23546
0.239481
0.243386
0.232436
0.131813
0.134851
0.13871
0.14591
0.153292
0.163664
0.173792
0.186403
0.197733
0.210639
0.219918
0.229483
0.230731
0.231447
0.215316
0.131611
0.134628
0.138471
0.145602
0.152913
0.163118
0.173002
0.185199
0.195883
0.207827
0.215652
0.223233
0.221584
0.2189
0.197235
0.13139
0.134379
0.138182
0.14521
0.152415
0.162403
0.171987
0.183694
0.193655
0.204531
0.210831
0.21628
0.211795
0.205517
0.17777
)
;

boundaryField
{
    inlet
    {
        type            zeroGradient;
    }
    outlet
    {
        type            fixedValue;
        value           nonuniform 0();
    }
    cylinder
    {
        type            zeroGradient;
    }
    top
    {
        type            symmetryPlane;
    }
    bottom
    {
        type            symmetryPlane;
    }
    defaultFaces
    {
        type            empty;
    }
    procBoundary2to0
    {
        type            processor;
        value           nonuniform List<scalar> 
26
(
0.649154
0.626584
0.610992
0.610992
0.586615
0.559239
0.528709
0.496616
0.464159
0.432197
0.401348
0.131303
0.134553
0.138281
0.146038
0.153753
0.165418
0.177431
0.193297
0.210004
0.230628
0.252704
0.27844
0.305869
0.336838
0.368834
)
;
    }
    procBoundary2to3
    {
        type            processor;
        value           nonuniform List<scalar> 
50
(
-0.361333
-0.363977
-0.363977
-0.36443
-0.369229
-0.369229
-0.367293
-0.367293
-0.362788
-0.362788
-0.350846
-0.336753
-0.336753
-0.314997
-0.314997
-0.286754
-0.286754
-0.260871
-0.234433
-0.234433
-0.216869
-0.200351
-0.184955
-0.170251
-0.156154
-0.142814
-0.130281
-0.118478
-0.107367
-0.0969495
-0.0872008
-0.0780884
-0.0695863
-0.0616721
-0.0616721
-0.0570141
-0.0499871
-0.0434898
-0.0375036
-0.0320117
-0.0269998
-0.0224548
-0.018369
-0.0147371
-0.0115582
-0.0088377
-0.00658386
-0.0048233
-0.00357739
-0.00289381
)
;
    }
}


// ************************************************************************* //
