# Probe 0 (2 -0.5 0)
# Probe 1 (2 0.5 0)
#       Probe             0             1
#        Time
            0             0             0
            5     -0.188164     -0.188164
           10     -0.461597     -0.461597
           15     -0.360331     -0.360331
           20     -0.312996     -0.312996
           25     -0.299327     -0.299328
           30     -0.288161     -0.288155
           35     -0.274029     -0.274026
           40      -0.26221     -0.262251
           45     -0.258645     -0.258618
           50      -0.25795     -0.257667
           55      -0.25704     -0.257599
           60     -0.256263     -0.257789
           65     -0.260063     -0.253788
           70     -0.259481     -0.255162
           75     -0.233108     -0.287973
           80     -0.262661      -0.27753
           85     -0.425781     -0.188616
           90     -0.532629     -0.114147
           95     -0.463217     -0.066883
          100     -0.366699    -0.0593602
          105     -0.298787    -0.0732241
          110     -0.253157     -0.102696
          115     -0.219267     -0.142727
          120     -0.191717     -0.190726
          125     -0.166863     -0.242359
          130      -0.14484     -0.293831
          135     -0.124559     -0.342744
          140     -0.106516      -0.38626
          145    -0.0912681     -0.427548
          150    -0.0784643     -0.450358
          155    -0.0654417     -0.470077
          160     -0.055111     -0.479327
          165     -0.046776     -0.478489
          170    -0.0403186     -0.471515
          175    -0.0358545     -0.456624
          180    -0.0329169     -0.437664
          185      -0.03337     -0.414594
          190    -0.0328273     -0.389478
          195    -0.0354988     -0.363183
          200    -0.0395227     -0.337356
          205    -0.0447452     -0.310613
          210    -0.0552148      -0.28527
          215    -0.0758594     -0.260788
          220     -0.105346     -0.236249
          225     -0.144155     -0.212231
          230     -0.190195     -0.189051
          235     -0.241347     -0.166173
          240     -0.292058     -0.144725
          245     -0.341354     -0.125093
          250     -0.384964     -0.106601
          255     -0.424411    -0.0916056
          260     -0.449499    -0.0788467
          265     -0.469664     -0.066908
          270     -0.478792    -0.0561628
          275     -0.478588    -0.0466934
          280     -0.471938    -0.0402431
          285      -0.45741    -0.0363203
          290     -0.438397    -0.0332792
          295     -0.415866    -0.0323626
          300     -0.390666    -0.0348574
          305     -0.364403    -0.0354344
          310     -0.338478    -0.0394689
          315     -0.311869    -0.0443849
          320     -0.286092    -0.0549521
          325     -0.261623    -0.0748138
          330     -0.237151     -0.104156
          335     -0.213164     -0.142244
          340     -0.189922     -0.188504
          345     -0.167142     -0.239367
          350     -0.145147     -0.289282
          355     -0.125899      -0.33998
          360     -0.107429     -0.383679
          365    -0.0923695     -0.425386
          370    -0.0787356     -0.448586
          375    -0.0673401     -0.469038
          380    -0.0554959     -0.479446
          385     -0.047612     -0.479115
          390    -0.0404891     -0.472413
          395    -0.0386895     -0.458097
          400    -0.0336172     -0.439129
