# Probe 0 (2 -0.5 0)
# Probe 1 (2 0.5 0)
#       Probe             0             1
#        Time
            0             (1 0 0)             (1 0 0)
            5             (0.748089 0.363123 -1.74401e-21)             (0.748089 -0.363123 2.31128e-21)
           10             (0.309657 0.0035307 -1.02218e-22)             (0.309657 -0.00353087 1.49242e-21)
           15             (0.171666 -0.0520627 8.45353e-23)             (0.171666 0.052063 1.00107e-21)
           20             (0.124868 -0.0253697 -7.75507e-23)             (0.124869 0.0253708 1.02071e-21)
           25             (0.113921 -0.0158343 -1.18159e-22)             (0.113922 0.0158318 1.02015e-21)
           30             (0.111746 -0.0146808 -1.19521e-22)             (0.11174 0.0146759 9.87866e-22)
           35             (0.111013 -0.0145444 -1.15561e-22)             (0.111016 0.0145654 9.41246e-22)
           40             (0.110568 -0.0145598 -1.11763e-22)             (0.110608 0.0145697 9.01911e-22)
           45             (0.110344 -0.0146632 -1.10233e-22)             (0.110278 0.0144918 8.90104e-22)
           50             (0.110289 -0.0145011 -1.10208e-22)             (0.110062 0.0146404 8.86811e-22)
           55             (0.109714 -0.0139843 -1.12431e-22)             (0.110516 0.0151483 8.84116e-22)
           60             (0.10971 -0.0158274 -1.07853e-22)             (0.110502 0.013308 8.89027e-22)
           65             (0.113846 -0.0175524 -9.48014e-23)             (0.106602 0.011526 8.89873e-22)
           70             (0.110112 -0.000625392 -1.46969e-22)             (0.112552 0.027946 8.43427e-22)
           75             (0.0914815 -0.00436316 -1.86089e-22)             (0.146632 0.0203293 8.9637e-22)
           80             (0.176807 -0.100516 1.54932e-22)             (0.154806 -0.108047 1.279e-21)
           85             (0.421011 -0.0728875 4.86923e-22)             (0.0931786 -0.164672 1.28644e-21)
           90             (0.748402 0.247923 -5.58447e-22)             (0.0340914 -0.0570743 9.44585e-22)
           95             (0.911112 0.507672 -1.61591e-21)             (0.0277492 0.126706 4.95883e-22)
          100             (0.925806 0.598612 -1.84688e-21)             (0.0755508 0.289582 8.56065e-23)
          105             (0.890636 0.616831 -1.76688e-21)             (0.148662 0.396252 -2.19599e-22)
          110             (0.842773 0.610069 -1.64375e-21)             (0.243287 0.444136 -4.79966e-22)
          115             (0.794138 0.592912 -1.53341e-21)             (0.351887 0.443922 -6.28475e-22)
          120             (0.746781 0.570724 -1.43347e-21)             (0.462001 0.40963 -6.44912e-22)
          125             (0.698624 0.546797 -1.33772e-21)             (0.562615 0.353191 -5.41056e-22)
          130             (0.64551 0.523655 -1.23621e-21)             (0.65024 0.282134 -3.32704e-22)
          135             (0.58323 0.502834 -1.12562e-21)             (0.72757 0.20013 -3.42767e-23)
          140             (0.509072 0.484608 -1.01096e-21)             (0.800031 0.108686 3.21887e-22)
          145             (0.423688 0.466465 -9.10738e-22)             (0.869905 0.00893698 7.19394e-22)
          150             (0.331469 0.443862 -7.93756e-22)             (0.936427 -0.0919725 1.12617e-21)
          155             (0.240104 0.411475 -7.20802e-22)             (0.996058 -0.193731 1.53622e-21)
          160             (0.159724 0.365723 -6.23361e-22)             (1.0451 -0.289926 1.90623e-21)
          165             (0.0997043 0.304267 -5.65048e-22)             (1.0801 -0.376837 2.24492e-21)
          170             (0.0637743 0.228657 -4.74584e-22)             (1.10061 -0.451772 2.522e-21)
          175             (0.0487194 0.143421 -3.95479e-22)             (1.10738 -0.51292 2.72192e-21)
          180             (0.0467659 0.0512024 -3.01815e-22)             (1.10218 -0.560255 2.84937e-21)
          185             (0.0502901 -0.0378093 -2.12463e-22)             (1.0877 -0.594636 2.9087e-21)
          190             (0.0543821 -0.127039 -8.82063e-23)             (1.0662 -0.617493 2.90685e-21)
          195             (0.0588272 -0.21423 -2.91211e-23)             (1.03917 -0.631012 2.85467e-21)
          200             (0.0657101 -0.296972 8.46255e-23)             (1.00741 -0.637312 2.773e-21)
          205             (0.0791103 -0.371014 2.20086e-22)             (0.971087 -0.637918 2.66296e-21)
          210             (0.109683 -0.429414 3.92354e-22)             (0.930406 -0.633677 2.54111e-21)
          215             (0.166862 -0.465535 6.28227e-22)             (0.886263 -0.624782 2.41165e-21)
          220             (0.251958 -0.474174 8.8115e-22)             (0.840308 -0.611072 2.27533e-21)
          225             (0.355688 -0.455467 1.09405e-21)             (0.794125 -0.59271 2.13286e-21)
          230             (0.4629 -0.41401 1.2343e-21)             (0.748061 -0.570786 1.98639e-21)
          235             (0.561884 -0.355547 1.27358e-21)             (0.700443 -0.547236 1.83245e-21)
          240             (0.648693 -0.284384 1.21614e-21)             (0.647676 -0.524288 1.6722e-21)
          245             (0.725601 -0.202849 1.07141e-21)             (0.585806 -0.503499 1.50878e-21)
          250             (0.797779 -0.111937 8.48751e-22)             (0.512115 -0.485231 1.33743e-21)
          255             (0.867524 -0.0126243 5.7435e-22)             (0.427097 -0.467205 1.19017e-21)
          260             (0.934097 0.0881559 2.40144e-22)             (0.335028 -0.444892 1.04732e-21)
          265             (0.993998 0.18997 -1.1367e-22)             (0.243451 -0.412967 9.29059e-22)
          270             (1.04353 0.286439 -4.36055e-22)             (0.162504 -0.367731 7.87446e-22)
          275             (1.07903 0.373725 -7.94284e-22)             (0.101546 -0.306893 7.02809e-22)
          280             (1.10009 0.449153 -1.09437e-21)             (0.0647489 -0.231696 5.8848e-22)
          285             (1.10736 0.510843 -1.33985e-21)             (0.0489964 -0.146853 5.10444e-22)
          290             (1.10256 0.558689 -1.52722e-21)             (0.0467009 -0.0548672 4.05868e-22)
          295             (1.0884 0.593543 -1.65849e-21)             (0.0501156 0.0344778 3.04242e-22)
          300             (1.06713 0.616806 -1.73299e-21)             (0.0542311 0.123651 1.9712e-22)
          305             (1.04029 0.630638 -1.76193e-21)             (0.0586333 0.210964 1.36538e-22)
          310             (1.00871 0.637184 -1.75824e-21)             (0.0653813 0.293924 3.45621e-23)
          315             (0.97256 0.637988 -1.73037e-21)             (0.078353 0.368419 -8.32927e-23)
          320             (0.932037 0.633923 -1.68338e-21)             (0.108063 0.427563 -2.16948e-22)
          325             (0.887998 0.625209 -1.62824e-21)             (0.16414 0.464642 -3.95382e-22)
          330             (0.84208 0.611687 -1.56662e-21)             (0.248266 0.474367 -5.58603e-22)
          335             (0.795888 0.59349 -1.49633e-21)             (0.351557 0.456641 -6.61928e-22)
          340             (0.749834 0.57167 -1.41926e-21)             (0.458898 0.415946 -6.62991e-22)
          345             (0.702336 0.54814 -1.33394e-21)             (0.558316 0.358038 -5.53413e-22)
          350             (0.64984 0.52513 -1.23994e-21)             (0.645552 0.287294 -3.38646e-22)
          355             (0.58838 0.50425 -1.13658e-21)             (0.722763 0.206153 -5.478e-23)
          360             (0.515161 0.485896 -1.0196e-21)             (0.795065 0.115572 2.95083e-22)
          365             (0.430515 0.467955 -9.15379e-22)             (0.864905 0.016719 6.92455e-22)
          370             (0.338585 0.445891 -8.2342e-22)             (0.93164 -0.0842156 1.09716e-21)
          375             (0.246819 0.414443 -7.24994e-22)             (0.991871 -0.186141 1.51022e-21)
          380             (0.165287 0.369747 -6.34771e-22)             (1.04188 -0.282911 1.88932e-21)
          385             (0.10345 0.309486 -5.48421e-22)             (1.07794 -0.370583 2.22316e-21)
          390             (0.0657425 0.234748 -4.75238e-22)             (1.09954 -0.446511 2.50508e-21)
          395             (0.0493203 0.15031 -3.88282e-22)             (1.10732 -0.508745 2.70841e-21)
          400             (0.0466453 0.0585265 -3.07535e-22)             (1.10293 -0.557103 2.84193e-21)
