/*--------------------------------*- C++ -*----------------------------------*\
  =========                 |
  \\      /  F ield         | OpenFOAM: The Open Source CFD Toolbox
   \\    /   O peration     | Website:  https://openfoam.org
    \\  /    A nd           | Version:  7
     \\/     M anipulation  |
\*---------------------------------------------------------------------------*/
FoamFile
{
    version     2.0;
    format      ascii;
    class       volScalarField;
    location    "210";
    object      p;
}
// * * * * * * * * * * * * * * * * * * * * * * * * * * * * * * * * * * * * * //

dimensions      [0 2 -2 0 0 0 0];

internalField   nonuniform List<scalar> 
2125
(
0.649442
0.626948
0.61151
0.650766
0.628179
0.612576
0.590351
0.56282
0.532163
0.499965
0.467427
0.435412
0.404503
0.64707
0.624694
0.609387
0.587482
0.560251
0.529866
0.497914
0.46559
0.433755
0.403076
0.638387
0.616523
0.601966
0.58087
0.55439
0.524675
0.49332
0.461511
0.430119
0.39996
0.624787
0.603729
0.59037
0.570564
0.545275
0.516624
0.486212
0.455217
0.424528
0.395191
0.606379
0.586412
0.574682
0.556633
0.532968
0.505764
0.476635
0.446745
0.417009
0.388779
0.583311
0.564703
0.555016
0.539175
0.517551
0.492165
0.464647
0.436147
0.407604
0.380743
0.555765
0.538769
0.531514
0.51831
0.499128
0.475916
0.450323
0.423486
0.396367
0.371119
0.523961
0.508808
0.504346
0.494182
0.477819
0.457119
0.433753
0.408841
0.383363
0.35995
0.488151
0.475048
0.473708
0.466956
0.453768
0.435897
0.415039
0.392299
0.368666
0.347287
0.448619
0.437747
0.43982
0.43682
0.427134
0.412385
0.394297
0.37396
0.352358
0.333186
0.405679
0.397191
0.402928
0.403982
0.398092
0.386733
0.371654
0.353934
0.334533
0.317711
0.359673
0.353691
0.363299
0.368667
0.366837
0.359106
0.347252
0.332339
0.315289
0.300931
0.310969
0.307582
0.32122
0.331119
0.333574
0.329681
0.321239
0.309305
0.294731
0.282919
0.259954
0.259218
0.276996
0.291596
0.298524
0.298642
0.293777
0.284969
0.272971
0.263748
0.207036
0.208974
0.23095
0.25037
0.261916
0.266189
0.265033
0.259479
0.250125
0.243486
0.15264
0.157239
0.183416
0.207724
0.223992
0.232524
0.235184
0.232993
0.226318
0.222188
0.0972009
0.104413
0.134743
0.163952
0.185001
0.197858
0.204409
0.205687
0.201704
0.199886
0.0411622
0.0509073
0.0852863
0.119355
0.145198
0.162406
0.172884
0.177744
0.176472
0.176533
-0.0150277
-0.002866
0.0354091
0.0742368
0.104844
0.126389
0.140777
0.14934
0.15098
0.152127
-0.0709203
-0.0564929
-0.0145219
0.0289051
0.0641977
0.090039
0.108262
0.1206
0.125687
0.126312
-0.12607
-0.109564
-0.0641381
-0.0163355
0.0235182
0.053586
0.0755085
0.091438
0.100939
0.100524
-0.180036
-0.161677
-0.113075
-0.0611849
-0.0169436
0.0172595
0.042792
0.0619878
0.0757955
0.0802594
-0.232397
-0.212418
-0.160981
-0.105352
-0.0569401
-0.0187289
0.0103724
0.0326695
0.0502656
0.060301
-0.28285
-0.261334
-0.207558
-0.148554
-0.0962302
-0.0541902
-0.0215884
0.0037284
0.0244532
0.0387829
-0.33095
-0.308092
-0.252634
-0.190509
-0.134585
-0.0889499
-0.0529839
-0.0247345
-0.00129158
0.0163292
-0.376282
-0.351963
-0.29625
-0.23092
-0.171803
-0.122837
-0.0836979
-0.0526373
-0.0266798
-0.00619
-0.418601
-0.393029
-0.337568
-0.269527
-0.207708
-0.155678
-0.113593
-0.0798791
-0.0515667
-0.0284255
-0.457688
-0.431175
-0.375502
-0.306626
-0.242105
-0.187304
-0.14253
-0.106351
-0.0758643
-0.0502879
-0.493311
-0.466167
-0.410733
-0.341347
-0.274709
-0.217572
-0.170382
-0.131946
-0.0994857
-0.0716893
-0.525285
-0.497765
-0.443169
-0.373489
-0.3054
-0.24636
-0.197029
-0.156564
-0.122345
-0.0925156
-0.553486
-0.525781
-0.47253
-0.403105
-0.33417
-0.273456
-0.222367
-0.18011
-0.144369
-0.112665
-0.57784
-0.550111
-0.49864
-0.430101
-0.360798
-0.298945
-0.24632
-0.202497
-0.1655
-0.132067
-0.59833
-0.570722
-0.521414
-0.454372
-0.385219
-0.322682
-0.268934
-0.223656
-0.185647
-0.150712
-0.614994
-0.587635
-0.54082
-0.475846
-0.407387
-0.344582
-0.290082
-0.243765
-0.204591
-0.168702
-0.627923
-0.600927
-0.556872
-0.494491
-0.42727
-0.364619
-0.309679
-0.26258
-0.22242
-0.1862
-0.637264
-0.610732
-0.56963
-0.510312
-0.444856
-0.382792
-0.327725
-0.280094
-0.239265
-0.202734
-0.643216
-0.617233
-0.579203
-0.523345
-0.460159
-0.399116
-0.344251
-0.296346
-0.255034
-0.218004
-0.646023
-0.62067
-0.585746
-0.533662
-0.473215
-0.41362
-0.359288
-0.31135
-0.269698
-0.232163
-0.645967
-0.621324
-0.589456
-0.541371
-0.484085
-0.426346
-0.372867
-0.325133
-0.283309
-0.245422
-0.643363
-0.61951
-0.590575
-0.546618
-0.492853
-0.437356
-0.38504
-0.33774
-0.295926
-0.257883
-0.638548
-0.615565
-0.589386
-0.549579
-0.499627
-0.446727
-0.395873
-0.349236
-0.307601
-0.269571
-0.631871
-0.609838
-0.5862
-0.550464
-0.504532
-0.454547
-0.405443
-0.359688
-0.318381
-0.280506
-0.623685
-0.602679
-0.581349
-0.54951
-0.507716
-0.460919
-0.413833
-0.369169
-0.328321
-0.290718
-0.614335
-0.594426
-0.575173
-0.546977
-0.509343
-0.465952
-0.421132
-0.377758
-0.337489
-0.300252
-0.60415
-0.585402
-0.568008
-0.543143
-0.509592
-0.469764
-0.427432
-0.385537
-0.345958
-0.30916
-0.593437
-0.575901
-0.560169
-0.538293
-0.508657
-0.472482
-0.432829
-0.392592
-0.353806
-0.317501
-0.582468
-0.566185
-0.551943
-0.532712
-0.506743
-0.474234
-0.437418
-0.399008
-0.361112
-0.325342
-0.571486
-0.556483
-0.54358
-0.526672
-0.504063
-0.475159
-0.441295
-0.404868
-0.367955
-0.332751
-0.560693
-0.546981
-0.535289
-0.52042
-0.50083
-0.475396
-0.444554
-0.410252
-0.374412
-0.550255
-0.537826
-0.527239
-0.514166
-0.497257
-0.475091
-0.447288
-0.415232
-0.540299
-0.52913
-0.519562
-0.508081
-0.493537
-0.474391
-0.449584
-0.530918
-0.520964
-0.512352
-0.502293
-0.489841
-0.522168
-0.51337
-0.505668
-0.496894
-0.514069
-0.506357
-0.499536
-0.506607
-0.499907
-0.499735
-0.493974
-0.493371
0.129367
0.132147
0.135524
0.141905
0.14837
0.157312
0.165788
0.176082
0.184539
0.193619
0.197938
0.201182
0.194138
0.185246
0.153721
0.129807
0.132636
0.136057
0.14257
0.14918
0.158386
0.167219
0.178081
0.187342
0.197605
0.203561
0.209095
0.205
0.199962
0.17492
0.130226
0.133085
0.136539
0.143157
0.149879
0.159301
0.168435
0.179785
0.189771
0.201102
0.208613
0.216286
0.215225
0.213785
0.19457
0.130626
0.133515
0.137013
0.143734
0.150571
0.160215
0.169646
0.18148
0.192161
0.204517
0.213503
0.223176
0.225028
0.226961
0.213176
0.131006
0.13393
0.137499
0.1443
0.151241
0.161097
0.170814
0.183112
0.194462
0.207789
0.218194
0.22975
0.234429
0.239559
0.23093
0.131367
0.134321
0.137891
0.144889
0.151882
0.161934
0.171922
0.184656
0.196643
0.210883
0.222652
0.235973
0.243376
0.251546
0.247803
0.131706
0.134692
0.138312
0.145344
0.152491
0.162727
0.172969
0.186115
0.198706
0.2138
0.226868
0.241836
0.251834
0.262892
0.263764
0.132023
0.135044
0.13868
0.14585
0.153057
0.163473
0.173955
0.187486
0.200648
0.216534
0.230834
0.247333
0.259777
0.273566
0.278778
0.132319
0.135372
0.13902
0.146271
0.153601
0.164171
0.174878
0.188764
0.202465
0.219081
0.234539
0.252454
0.267182
0.283536
0.292805
0.132591
0.135675
0.139336
0.146654
0.154075
0.164822
0.175736
0.189948
0.20415
0.221434
0.237971
0.25719
0.27403
0.292773
0.305802
0.13284
0.135954
0.139625
0.147009
0.15444
0.165532
0.176537
0.191035
0.205701
0.22359
0.241121
0.261529
0.280302
0.301247
0.317725
0.133065
0.136206
0.139888
0.147338
0.154818
0.165924
0.177263
0.192024
0.207112
0.225543
0.24398
0.265464
0.285982
0.308932
0.328537
0.133266
0.136432
0.140122
0.147634
0.155165
0.166488
0.177899
0.192904
0.208379
0.227291
0.246539
0.268984
0.291057
0.315806
0.338202
0.133443
0.13663
0.140328
0.147897
0.155475
0.166876
0.178562
0.193689
0.209496
0.228828
0.248793
0.272079
0.295515
0.321847
0.346691
0.133594
0.136801
0.140505
0.148125
0.155743
0.167199
0.178924
0.194468
0.210482
0.230149
0.250731
0.274742
0.299345
0.327039
0.353979
0.13372
0.136943
0.140653
0.148317
0.155968
0.16749
0.179378
0.194883
0.211336
0.231266
0.252349
0.276958
0.302534
0.331364
0.360045
0.133821
0.137056
0.140771
0.148472
0.15615
0.167733
0.179677
0.195373
0.211942
0.232235
0.253681
0.278739
0.305083
0.334815
0.364872
0.133896
0.137141
0.140858
0.148588
0.156288
0.167917
0.179907
0.195677
0.212294
0.232707
0.254739
0.280131
0.307013
0.337402
0.368468
0.133945
0.137195
0.140915
0.148667
0.156382
0.168044
0.180066
0.195892
0.212638
0.233166
0.25504
0.280809
0.308188
0.339089
0.370859
0.133968
0.13722
0.140941
0.148706
0.156429
0.16811
0.180147
0.19601
0.212817
0.233403
0.255463
0.281307
0.308735
0.339699
0.371787
0.083524
0.0816828
0.078522
0.074393
0.069592
0.0643327
0.058822
0.0532253
0.0476978
0.0423497
0.0372737
0.0325205
0.0281285
0.0241008
0.0204378
0.0839958
0.0821598
0.0790147
0.0748973
0.0700976
0.0648209
0.0592763
0.0536288
0.0480381
0.042616
0.0374602
0.0326228
0.0281467
0.0240344
0.0202877
0.0848726
0.0830478
0.0799328
0.0758397
0.0710449
0.0657404
0.0601363
0.0543979
0.0486911
0.0431316
0.0378255
0.0328293
0.0281929
0.0239204
0.0200162
0.0860918
0.0842847
0.0812174
0.0771653
0.0723853
0.0670501
0.0613706
0.0555104
0.0496441
0.0438924
0.0383735
0.0331505
0.0282841
0.0237803
0.0196475
0.0875953
0.0858136
0.0828163
0.0788273
0.0740789
0.0687183
0.0629571
0.0569544
0.0508946
0.0449042
0.0391169
0.0336042
0.0284417
0.023638
0.0192071
0.0893296
0.0875832
0.0846829
0.0807838
0.0760905
0.0707189
0.0648804
0.0587248
0.0524475
0.04618
0.0400752
0.0342146
0.0286923
0.0235211
0.018723
0.0912457
0.0895466
0.0867746
0.0829958
0.0783885
0.0730297
0.0671294
0.0608217
0.0543132
0.0477388
0.0412738
0.0350108
0.0290673
0.0234611
0.0182253
0.0932988
0.0916617
0.0890519
0.0854267
0.0809429
0.0756302
0.0696953
0.0632476
0.0565054
0.0496033
0.0427423
0.0360265
0.0296021
0.023493
0.0177472
0.0954478
0.0938905
0.0914782
0.0880408
0.0837249
0.0785007
0.0725696
0.0660059
0.0590393
0.0517986
0.0445138
0.0372997
0.0303367
0.0236561
0.0173256
0.0976559
0.0961992
0.0940185
0.0908038
0.0867063
0.0816205
0.0757428
0.0690992
0.0619304
0.0543513
0.0466239
0.0388715
0.031315
0.0239938
0.0170017
0.09989
0.0985579
0.0966392
0.0936828
0.0898585
0.084968
0.0792037
0.0725283
0.0651929
0.0572879
0.0491096
0.0407859
0.0325847
0.0245539
0.0168209
0.102121
0.10094
0.0993079
0.0966461
0.093153
0.0885191
0.082938
0.0762905
0.0688387
0.0606338
0.0520088
0.0430893
0.0341973
0.0253888
0.0168341
0.104325
0.103323
0.101994
0.0996646
0.0965601
0.0922481
0.086928
0.0803793
0.0728759
0.064412
0.0553586
0.0458294
0.0362072
0.026555
0.017097
0.106481
0.105685
0.104668
0.102711
0.10005
0.0961273
0.091152
0.0847832
0.0773081
0.0686419
0.0591945
0.0490542
0.0386714
0.0281133
0.0176708
0.108573
0.108007
0.107305
0.105762
0.10359
0.100128
0.0955841
0.0894857
0.0821335
0.073338
0.0635492
0.0528113
0.0416488
0.0301282
0.0186217
0.110587
0.110272
0.109881
0.108795
0.107151
0.104221
0.100194
0.0944652
0.0873434
0.0785087
0.068451
0.0571462
0.0451991
0.0326673
0.0200208
0.112515
0.112465
0.11238
0.111789
0.1107
0.108376
0.104946
0.0996958
0.0929218
0.0841554
0.0739229
0.0621014
0.0493819
0.0358008
0.0219437
0.114349
0.114572
0.114785
0.114725
0.11421
0.112563
0.109803
0.105147
0.0988442
0.0902724
0.0799808
0.0677146
0.0542556
0.0396003
0.0244692
0.116086
0.116582
0.117087
0.117584
0.117655
0.116754
0.114724
0.110786
0.105077
0.0968462
0.0866317
0.0740171
0.0598765
0.0441375
0.0276787
0.117722
0.118488
0.119278
0.120351
0.121011
0.120916
0.119669
0.116574
0.111579
0.103857
0.0938718
0.0810334
0.0662971
0.0494825
0.0316547
0.119257
0.120282
0.121352
0.123009
0.124261
0.125021
0.124599
0.12247
0.118302
0.111276
0.101684
0.0887817
0.0735645
0.0557015
0.0364789
0.12069
0.121962
0.123308
0.125547
0.127388
0.129037
0.129476
0.128429
0.125192
0.119068
0.110039
0.0972739
0.0817187
0.0628573
0.0422317
0.122024
0.123528
0.125144
0.127954
0.130381
0.132939
0.134268
0.134401
0.132195
0.127186
0.118892
0.106515
0.0907897
0.071014
0.0489944
0.123259
0.124979
0.12686
0.130223
0.133231
0.1367
0.138944
0.140336
0.139253
0.135573
0.128187
0.1165
0.100791
0.0802449
0.0568614
0.124399
0.126318
0.128458
0.13235
0.135929
0.140299
0.143477
0.146181
0.146312
0.144159
0.137859
0.127206
0.111707
0.0906289
0.0659518
0.125448
0.127549
0.129939
0.134333
0.138471
0.14372
0.147844
0.15189
0.153321
0.152868
0.147846
0.138601
0.123484
0.102212
0.0763471
0.126408
0.128678
0.131306
0.136175
0.140856
0.146953
0.15203
0.157423
0.160236
0.161618
0.158089
0.150639
0.136063
0.11496
0.0878567
0.127284
0.129707
0.132565
0.137878
0.143084
0.149993
0.15602
0.162743
0.16701
0.170312
0.168514
0.163227
0.149458
0.128876
0.0997762
0.128081
0.130641
0.133715
0.139437
0.145143
0.152816
0.159771
0.167781
0.173541
0.178793
0.178966
0.176205
0.163878
0.144672
0.111763
0.128802
0.131484
0.134742
0.140835
0.146985
0.155362
0.163179
0.172428
0.179666
0.186931
0.189294
0.189585
0.179793
0.16478
0.127821
0.0180794
0.0168484
0.0156228
0.014407
0.0131994
0.0119988
0.0108055
0.00962079
0.00844616
0.00728276
0.0061316
0.0049936
0.0038697
0.00276082
0.00166786
0.000591685
-0.000466859
-0.00150695
-0.00252776
-0.00352907
0.0178766
0.0166311
0.0153978
0.0141745
0.0129568
0.0117436
0.0105361
0.00933613
0.0081452
0.00696442
0.00579475
0.00463722
0.00349285
0.0023627
0.00124776
0.000149
-0.000932648
-0.00199632
-0.00304121
-0.0040665
0.0175009
0.0162153
0.0149533
0.013701
0.0124502
0.011201
0.00995636
0.00871896
0.00749039
0.00627167
0.00506378
0.00386784
0.00268503
0.00151653
0.000363456
-0.000773108
-0.0018921
-0.00299249
-0.00407321
-0.00513384
0.0169769
0.0156265
0.0143176
0.0130194
0.0117181
0.0104151
0.00911591
0.00782435
0.00654202
0.0052697
0.0040083
0.002759
0.00152312
0.000301935
-0.000903366
-0.00209164
-0.00326178
-0.00441273
-0.00554341
-0.00665335
0.0163315
0.0148919
0.0135177
0.0121563
0.0107861
0.00941053
0.00803822
0.00667445
0.0053208
0.00397771
0.00264595
0.00132678
2.16658e-05
-0.00126803
-0.00254101
-0.00379609
-0.00503207
-0.00624781
-0.00744206
-0.00861468
0.0155921
0.0140379
0.0125788
0.0111357
0.00967771
0.00821004
0.00674553
0.0052911
0.00384825
0.00241696
0.000997831
-0.000407785
-0.0017983
-0.00317221
-0.00452819
-0.00586499
-0.00718135
-0.00847605
-0.00974771
-0.0109966
0.0147876
0.0130918
0.011526
0.00998119
0.00841476
0.0068343
0.00525723
0.00369242
0.00214124
0.000603101
-0.000921604
-0.00243143
-0.00392463
-0.0053996
-0.00685494
-0.00828937
-0.0097016
-0.0110903
-0.0124538
-0.0137932
0.0139492
0.0120822
0.0103851
0.00871596
0.00701857
0.00530276
0.00359101
0.0018944
0.000214066
-0.0014512
-0.00310126
-0.00473457
-0.0063492
-0.00794345
-0.00951583
-0.011065
-0.0125894
-0.0140878
-0.015558
-0.0170029
0.0131114
0.0110407
0.00918354
0.00736416
0.00551071
0.00363477
0.00176413
-8.78517e-05
-0.00192022
-0.00373487
-0.00553194
-0.0073098
-0.00906642
-0.0108001
-0.0125093
-0.0141927
-0.0158486
-0.0174746
-0.0190672
-0.0206333
0.0123128
0.0100019
0.00795097
0.00595134
0.00391368
0.00185022
-0.000206109
-0.00223956
-0.0042493
-0.00623787
-0.00820561
-0.0101508
-0.0120714
-0.0139655
-0.0158317
-0.0176691
-0.0194764
-0.0212531
-0.0229923
-0.0247011
0.0115967
0.00900458
0.00671987
0.00450496
0.00225132
-3.00617e-05
-0.00230191
-0.00454608
-0.00676163
-0.00895156
-0.0111164
-0.0132543
-0.0153632
-0.0174409
-0.0194862
-0.0214974
-0.0234734
-0.0254133
-0.0273235
-0.0291944
0.0110115
0.00809222
0.00552609
0.00305494
0.000549543
-0.00198354
-0.00450424
-0.00699209
-0.00944557
-0.0118678
-0.0142595
-0.016619
-0.018944
-0.0212327
-0.0234836
-0.0256954
-0.027867
-0.0299975
-0.0320908
-0.0341423
0.0106115
0.00731336
0.00440934
0.0016342
-0.0011631
-0.00398527
-0.00679207
-0.00956069
-0.0122882
-0.0149774
-0.0176291
-0.0202419
-0.0228138
-0.0253429
-0.0278278
-0.0302671
-0.0326597
-0.0350046
-0.0373066
-0.0395624
0.0104569
0.00672199
0.00341338
0.000278921
-0.0028551
-0.00600769
-0.0091422
-0.0122334
-0.0152756
-0.0182705
-0.0212191
-0.0241205
-0.0269732
-0.0297753
-0.0325255
-0.0352221
-0.0378641
-0.0404503
-0.0429877
-0.0454734
0.0106141
0.00637768
0.00258629
-0.000971153
-0.00449163
-0.00802022
-0.0115291
-0.0149901
-0.0183927
-0.0217365
-0.025023
-0.0282523
-0.0314235
-0.034535
-0.037585
-0.0405719
-0.0434945
-0.0463513
-0.049153
-0.0518968
0.0111552
0.0063456
0.00198056
-0.00207243
-0.00603419
-0.00998904
-0.0139245
-0.0178085
-0.0216228
-0.0253637
-0.0290336
-0.0326346
-0.0361664
-0.0396274
-0.0430156
-0.0463291
-0.0495664
-0.052725
-0.0558224
-0.0588556
0.0121582
0.00669625
0.00165311
-0.00297718
-0.00744024
-0.0118768
-0.0162978
-0.0206647
-0.0249478
-0.0291391
-0.0332429
-0.0372642
-0.0412037
-0.0450594
-0.0488287
-0.0525089
-0.0560978
-0.0595905
-0.0630166
-0.0663726
0.0137058
0.00750504
0.00166531
-0.00363317
-0.00866283
-0.0136426
-0.0186155
-0.0235327
-0.0283478
-0.0330481
-0.0376413
-0.0421364
-0.0465356
-0.0508368
-0.0550374
-0.0591329
-0.063116
-0.0669767
-0.0707682
-0.0744828
0.0158844
0.00885134
0.00208274
-0.00398327
-0.00965015
-0.0152419
-0.0208421
-0.0263851
-0.031802
-0.0370751
-0.042218
-0.0472443
-0.0521574
-0.0569556
-0.0616404
-0.0662138
-0.0706776
-0.0749264
-0.0791233
-0.083233
0.0187824
0.010817
0.00297487
-0.00396472
-0.0103448
-0.0166263
-0.02294
-0.0291933
-0.0352887
-0.0412052
-0.0469649
-0.0525858
-0.0580689
-0.0634074
-0.0685935
-0.0736245
-0.078505
-0.0833707
-0.0880727
-0.0926158
0.0224868
0.0134828
0.00441423
-0.00350803
-0.0106828
-0.0177433
-0.0248692
-0.0319267
-0.0387847
-0.0454237
-0.0518784
-0.0581712
-0.0643012
-0.0702606
-0.0760452
-0.081658
-0.0871054
-0.0924536
-0.0976486
-0.102675
0.0270777
0.0169226
0.00647415
-0.0025366
-0.0105932
-0.0185369
-0.0265873
-0.0345507
-0.0422617
-0.0497106
-0.0569475
-0.0639969
-0.0708532
-0.0775061
-0.0839511
-0.0901895
-0.0962222
-0.102136
-0.10789
-0.113454
0.0326234
0.0211962
0.00922469
-0.000968083
-0.0099997
-0.0189488
-0.0280495
-0.0370262
-0.0456862
-0.0540414
-0.0621577
-0.0700564
-0.077725
-0.0851514
-0.0923301
-0.0992585
-0.105931
-0.112476
-0.118847
-0.124993
0.0391751
0.0263408
0.0127292
0.00128448
-0.00882481
-0.0189236
-0.0292098
-0.0393091
-0.0490207
-0.0583905
-0.0674942
-0.0763423
-0.084916
-0.0932076
-0.101216
-0.108933
-0.116311
-0.123554
-0.130589
-0.137354
0.0467666
0.0323745
0.0170541
0.00431541
-0.00699475
-0.0184112
-0.030021
-0.0413506
-0.052226
-0.0627338
-0.0729448
-0.082849
-0.0924194
-0.101648
-0.110542
-0.119118
-0.127383
-0.135438
-0.143184
-0.150598
0.0554037
0.0393194
0.0222969
0.00823729
-0.00443789
-0.0173628
-0.0304269
-0.0430933
-0.0552596
-0.0670458
-0.0784975
-0.0895811
-0.100265
-0.110533
-0.120379
-0.129811
-0.139142
-0.148094
-0.156615
-0.164743
0.0649765
0.0471841
0.0285944
0.013189
-0.00107795
-0.0157208
-0.0303593
-0.0444781
-0.0580847
-0.0713042
-0.0841402
-0.0965439
-0.108488
-0.119955
-0.130927
-0.141389
-0.15168
-0.161569
-0.170956
-0.179874
0.0750217
0.0557727
0.0360329
0.0193092
0.00318546
-0.0133658
-0.0296861
-0.0454039
-0.0606314
-0.0754531
-0.0898288
-0.103708
-0.117071
-0.129896
-0.142153
-0.153737
-0.165114
-0.176009
-0.186315
-0.196084
0.0845494
0.0643137
0.0443161
0.0264049
0.00823546
-0.0102889
-0.0283757
-0.0458747
-0.0629174
-0.0795095
-0.0955874
-0.111113
-0.126065
-0.14039
-0.154018
-0.167065
-0.179625
-0.191498
-0.202722
-0.213383
0.0929071
0.072407
0.0532595
0.0342576
0.0142526
-0.00596673
-0.0257859
-0.0451763
-0.0641591
-0.0826534
-0.100575
-0.117879
-0.134535
-0.150521
-0.165806
-0.180936
-0.19498
-0.207985
-0.220222
-0.231814
-0.00451038
-0.00547087
-0.00640982
-0.00732667
-0.00822101
-0.00909245
-0.00994065
-0.0107653
-0.011566
-0.00507127
-0.0060548
-0.00701647
-0.00795568
-0.00887187
-0.00976453
-0.0106332
-0.0114774
-0.0122968
-0.00617364
-0.00719163
-0.00818697
-0.00915895
-0.010107
-0.0110307
-0.0119294
-0.0128028
-0.0136505
-0.00774163
-0.00880724
-0.0098493
-0.0108671
-0.0118602
-0.0128279
-0.0137698
-0.0146854
-0.0155745
-0.00976475
-0.0108911
-0.0119928
-0.0130691
-0.0141194
-0.0151432
-0.0161401
-0.0171096
-0.0180514
-0.0122219
-0.013422
-0.0145961
-0.0157433
-0.0168632
-0.0179552
-0.0190189
-0.0200541
-0.0210602
-0.0151077
-0.0163956
-0.0176556
-0.0188868
-0.020089
-0.0212617
-0.0224046
-0.0235174
-0.0245997
-0.0184217
-0.0198118
-0.0211718
-0.0225008
-0.0237988
-0.0250654
-0.0263003
-0.0275032
-0.0286739
-0.0221725
-0.0236808
-0.0251556
-0.0265967
-0.0280042
-0.0293782
-0.0307181
-0.0320238
-0.0332952
-0.0263755
-0.0280141
-0.0296174
-0.0311853
-0.0327172
-0.0342128
-0.0356717
-0.037094
-0.0384796
-0.0310252
-0.0328166
-0.0345689
-0.0362819
-0.0379552
-0.0395886
-0.0411821
-0.0427359
-0.04425
-0.0361502
-0.0381139
-0.0400337
-0.0419095
-0.0437415
-0.0455296
-0.0472741
-0.048975
-0.0417694
-0.0439266
-0.0460342
-0.0480927
-0.0501024
-0.0520635
-0.0539762
-0.0558411
-0.047904
-0.0502781
-0.0525959
-0.0548584
-0.0570662
-0.0592198
-0.0613197
-0.0633664
-0.054578
-0.0571944
-0.0597467
-0.0622362
-0.0646642
-0.0670315
-0.0693386
-0.0715863
-0.0618171
-0.0647036
-0.0675163
-0.0702576
-0.0729294
-0.0755328
-0.0780684
-0.0805374
-0.0696468
-0.0728336
-0.0759349
-0.0789548
-0.0818959
-0.0847596
-0.0875467
-0.0902585
-0.0781015
-0.0816188
-0.0850387
-0.0883659
-0.0916031
-0.0947521
-0.0978142
-0.100791
-0.0872255
-0.0911009
-0.0948672
-0.0985292
-0.102089
-0.105548
-0.108908
-0.112173
-0.0970194
-0.101294
-0.105444
-0.109474
-0.113387
-0.117185
-0.120869
-0.124444
-0.107539
-0.11225
-0.116818
-0.121247
-0.125541
-0.129704
-0.133739
-0.137649
-0.118822
-0.124009
-0.129027
-0.133886
-0.13859
-0.143144
-0.147551
-0.151818
-0.130907
-0.136608
-0.142113
-0.147434
-0.152577
-0.157545
-0.162344
-0.166983
-0.143851
-0.150103
-0.15613
-0.161943
-0.167549
-0.172955
-0.178168
-0.183194
-0.157709
-0.164545
-0.171122
-0.177451
-0.183541
-0.189404
-0.195049
-0.200486
-0.172521
-0.179978
-0.187131
-0.193993
-0.200577
-0.206899
-0.212975
-0.218822
-0.188374
-0.19649
-0.204241
-0.211645
-0.218719
-0.225484
-0.231959
-0.238167
-0.205369
-0.214193
-0.222577
-0.230542
-0.238113
-0.245312
-0.252161
-0.258685
-0.223508
-0.2331
-0.242174
-0.250753
-0.258867
-0.266541
-0.273802
-0.280677
-0.242778
-0.25312
-0.262862
-0.272033
-0.280666
-0.288798
-0.29647
-0.303721
)
;

boundaryField
{
    inlet
    {
        type            zeroGradient;
    }
    outlet
    {
        type            fixedValue;
        value           nonuniform 0();
    }
    cylinder
    {
        type            zeroGradient;
    }
    top
    {
        type            symmetryPlane;
    }
    bottom
    {
        type            symmetryPlane;
    }
    defaultFaces
    {
        type            empty;
    }
    procBoundary0to1
    {
        type            processor;
        value           nonuniform List<scalar> 
50
(
-0.339799
-0.339799
-0.380552
-0.380552
-0.419874
-0.473439
-0.419874
-0.45153
-0.473439
-0.486305
-0.486305
-0.491943
-0.491943
-0.493951
-0.493951
-0.488875
-0.488488
-0.488488
-0.487411
-0.0123426
-0.0130911
-0.0144723
-0.0164366
-0.0189652
-0.0220372
-0.0256515
-0.0298123
-0.0345325
-0.0398287
-0.0457247
-0.0506327
-0.0506327
-0.0576584
-0.0653606
-0.0737754
-0.0829408
-0.0928964
-0.103684
-0.115343
-0.127912
-0.141436
-0.155947
-0.171465
-0.188039
-0.205721
-0.224453
-0.244132
-0.264909
-0.287193
-0.310591
)
;
    }
    procBoundary0to2
    {
        type            processor;
        value           nonuniform List<scalar> 
26
(
0.643104
0.621008
0.606193
0.589457
0.589457
0.562079
0.531551
0.499461
0.467012
0.43507
0.404235
0.133966
0.137214
0.140936
0.148704
0.156426
0.168109
0.180135
0.196001
0.212802
0.233382
0.255461
0.281267
0.308676
0.339639
0.371687
)
;
    }
}


// ************************************************************************* //
