/*--------------------------------*- C++ -*----------------------------------*\
  =========                 |
  \\      /  F ield         | OpenFOAM: The Open Source CFD Toolbox
   \\    /   O peration     | Website:  https://openfoam.org
    \\  /    A nd           | Version:  7
     \\/     M anipulation  |
\*---------------------------------------------------------------------------*/
FoamFile
{
    version     2.0;
    format      ascii;
    class       volVectorField;
    location    "105";
    object      U;
}
// * * * * * * * * * * * * * * * * * * * * * * * * * * * * * * * * * * * * * //

dimensions      [0 1 -1 0 0 0 0];

internalField   nonuniform List<vector> 
2125
(
(0.0186069 0.00384875 1.70027e-21)
(0.0844277 0.00563602 -4.67649e-21)
(0.184733 0.00450253 -5.29886e-21)
(0.0189967 -0.0238968 -1.69237e-21)
(0.0851711 -0.0452617 4.65616e-21)
(0.185601 -0.0506414 5.27979e-21)
(0.280504 -0.048822 -5.0546e-21)
(0.366011 -0.044967 4.44973e-21)
(0.442222 -0.0411092 2.22831e-21)
(0.509977 -0.0376533 -3.5583e-21)
(0.57029 -0.034582 -4.13505e-21)
(0.623955 -0.0318275 6.09798e-22)
(0.671673 -0.0293298 -1.72162e-21)
(0.0215004 -0.0514953 1.8562e-21)
(0.0896647 -0.0959388 -5.54696e-21)
(0.190462 -0.105574 1.24008e-20)
(0.285074 -0.100186 -1.08917e-20)
(0.370111 -0.0907789 -5.18129e-22)
(0.445866 -0.0815803 -7.25296e-21)
(0.513219 -0.0734046 1.17866e-20)
(0.573192 -0.0661895 1.60292e-20)
(0.626579 -0.0597677 2.86351e-21)
(0.673976 -0.0540172 -6.16765e-21)
(0.0260911 -0.0787032 -1.58155e-21)
(0.0978718 -0.146027 -1.16801e-20)
(0.199282 -0.159948 -2.71976e-20)
(0.293313 -0.151069 2.35512e-20)
(0.377453 -0.13618 4.85026e-21)
(0.452347 -0.121696 4.29918e-21)
(0.518941 -0.108846 -2.11721e-20)
(0.578271 -0.0975256 -1.24962e-20)
(0.631131 -0.0874661 -2.78563e-21)
(0.677914 -0.0784958 1.90472e-20)
(0.0327169 -0.105281 -5.57014e-21)
(0.10972 -0.195161 7.03678e-21)
(0.211998 -0.213418 4.9188e-20)
(0.305169 -0.201177 -4.4301e-21)
(0.387995 -0.180919 -1.2655e-20)
(0.461626 -0.161241 9.07564e-21)
(0.52711 -0.143794 6.46352e-22)
(0.585501 -0.12843 3.19977e-21)
(0.637589 -0.114782 -7.01706e-21)
(0.683482 -0.102645 -1.85491e-20)
(0.0413013 -0.130994 -3.74859e-21)
(0.125105 -0.242985 2.04248e-20)
(0.228514 -0.265645 -4.94264e-20)
(0.320563 -0.250221 2.13983e-20)
(0.40167 -0.224753 2.06469e-22)
(0.473648 -0.200005 -2.71926e-20)
(0.537679 -0.178065 1.20346e-20)
(0.594838 -0.158745 -1.1298e-21)
(0.645916 -0.141579 4.56951e-21)
(0.690654 -0.126358 -1.35802e-21)
(0.0517442 -0.155618 -4.28732e-20)
(0.143885 -0.289152 -5.1324e-20)
(0.248706 -0.3163 1.35006e-20)
(0.339393 -0.297918 -2.45181e-20)
(0.418394 -0.267442 -6.91175e-21)
(0.488341 -0.237785 1.0366e-20)
(0.550583 -0.211485 3.83934e-21)
(0.606225 -0.188319 1.42573e-20)
(0.65606 -0.167724 -3.06986e-21)
(0.699398 -0.149518 1.65816e-20)
(0.063922 -0.178936 4.09888e-20)
(0.165889 -0.333326 2.6377e-20)
(0.272416 -0.365062 -1.99034e-20)
(0.36153 -0.343996 3.35624e-20)
(0.438059 -0.308754 -2.83998e-21)
(0.505613 -0.274381 -3.6397e-20)
(0.565746 -0.243882 6.38209e-21)
(0.619594 -0.217004 -3.87733e-20)
(0.667962 -0.193087 1.51129e-21)
(0.709671 -0.172012 1.40738e-20)
(0.0776894 -0.200748 -3.02331e-20)
(0.190911 -0.375189 5.42401e-20)
(0.299463 -0.411626 2.13152e-20)
(0.386823 -0.388192 -2.65091e-20)
(0.460541 -0.34847 2.79253e-22)
(0.525358 -0.309604 6.7005e-20)
(0.583076 -0.275093 3.02392e-21)
(0.634865 -0.24466 2.97562e-20)
(0.68155 -0.217543 3.62585e-20)
(0.721425 -0.193729 -2.03356e-20)
(0.0928799 -0.220865 1.69327e-20)
(0.218716 -0.414438 -8.13414e-21)
(0.329633 -0.4557 -1.9261e-20)
(0.415098 -0.430257 1.44162e-20)
(0.485696 -0.386377 5.58941e-20)
(0.547454 -0.343275 -1.97403e-20)
(0.602467 -0.304964 -3.25891e-21)
(0.651945 -0.271153 -4.28994e-20)
(0.696744 -0.240976 -5.30796e-20)
(0.734603 -0.214561 2.32469e-20)
(0.109308 -0.239116 -2.22372e-20)
(0.249039 -0.450793 -1.9536e-20)
(0.362687 -0.497011 3.34303e-21)
(0.446158 -0.469956 -7.62007e-20)
(0.513362 -0.422279 -3.24246e-20)
(0.571764 -0.375225 -2.37692e-20)
(0.623803 -0.333349 -3.12755e-20)
(0.670733 -0.296359 1.45531e-20)
(0.713455 -0.263277 1.73827e-20)
(0.749143 -0.234406 2.59956e-20)
(0.12677 -0.255351 4.75946e-21)
(0.281589 -0.483995 2.79408e-20)
(0.398361 -0.535303 2.0611e-20)
(0.479787 -0.507071 3.52362e-20)
(0.543361 -0.455992 2.78512e-20)
(0.598138 -0.405298 -2.65868e-20)
(0.646954 -0.360115 2.48932e-20)
(0.691116 -0.320164 1.71816e-20)
(0.731588 -0.284345 -2.01085e-21)
(0.764977 -0.253169 -7.80746e-21)
(0.145048 -0.269436 4.90964e-20)
(0.316046 -0.513809 -2.43614e-20)
(0.436366 -0.570342 -1.88996e-20)
(0.515749 -0.541401 -1.10552e-20)
(0.575498 -0.487348 2.0724e-20)
(0.62641 -0.43335 1.88886e-20)
(0.671781 -0.385139 -2.64619e-20)
(0.712972 -0.342466 2.03828e-20)
(0.751037 -0.304093 9.33498e-22)
(0.782033 -0.270759 1.90346e-20)
(0.163907 -0.281264 -3.38374e-20)
(0.352069 -0.540031 -1.27584e-20)
(0.47639 -0.601919 -1.9403e-21)
(0.553788 -0.572764 2.02437e-20)
(0.609566 -0.516195 -3.89723e-21)
(0.656408 -0.459255 -2.03489e-20)
(0.698133 -0.408313 5.72962e-21)
(0.736172 -0.363172 6.17578e-21)
(0.771693 -0.322444 1.47796e-20)
(0.800233 -0.287099 -2.92514e-20)
(0.183104 -0.290749 -1.27893e-20)
(0.389294 -0.562483 3.00312e-20)
(0.5181 -0.629847 2.38972e-20)
(0.593634 -0.600999 -1.11062e-20)
(0.645344 -0.542401 -2.53707e-20)
(0.687944 -0.482899 -1.88428e-20)
(0.725851 -0.429539 2.2018e-20)
(0.760577 -0.382204 -4.42293e-20)
(0.793439 -0.339336 1.13303e-20)
(0.819503 -0.302121 3.09821e-20)
(0.202385 -0.29783 2.64372e-20)
(0.427337 -0.581019 -1.60163e-20)
(0.561144 -0.653966 3.47744e-21)
(0.634998 -0.625965 2.96913e-22)
(0.682599 -0.565849 -6.08975e-21)
(0.720826 -0.504186 3.14886e-20)
(0.754769 -0.448735 -2.81101e-20)
(0.786038 -0.399496 2.73046e-20)
(0.816152 -0.354725 -4.16817e-20)
(0.83977 -0.315779 -1.57252e-20)
(0.221489 -0.302474 -3.46565e-22)
(0.4658 -0.595527 -1.70963e-20)
(0.605153 -0.674144 9.2637e-22)
(0.67758 -0.647547 -5.76215e-21)
(0.721088 -0.586444 -3.88377e-21)
(0.754853 -0.523037 3.00245e-22)
(0.784715 -0.46583 -1.80684e-20)
(0.812394 -0.414987 -1.22595e-21)
(0.839689 -0.36857 2.52678e-20)
(0.860965 -0.328036 -3.20766e-20)
(0.240154 -0.304674 6.49711e-21)
(0.504269 -0.605929 1.0426e-20)
(0.64974 -0.690277 -1.35289e-20)
(0.721065 -0.665649 -5.33982e-21)
(0.760558 -0.60411 4.63225e-20)
(0.789816 -0.539391 -3.89151e-20)
(0.815516 -0.480776 3.99179e-20)
(0.839479 -0.428647 8.00808e-22)
(0.863891 -0.380902 8.00152e-21)
(0.883048 -0.338973 2.94976e-20)
(0.258113 -0.304452 1.71954e-21)
(0.542321 -0.612183 -3.87841e-21)
(0.694508 -0.70229 3.472e-21)
(0.765129 -0.680204 2.91453e-21)
(0.800752 -0.618792 -2.88291e-21)
(0.825505 -0.553201 1.53668e-20)
(0.847006 -0.493521 -8.60584e-21)
(0.867125 -0.440387 9.95331e-21)
(0.888532 -0.391553 -3.46744e-21)
(0.905994 -0.348422 -1.80071e-21)
(0.275103 -0.301857 -5.53005e-21)
(0.579525 -0.614286 -4.90249e-21)
(0.739046 -0.71014 2.43235e-21)
(0.809438 -0.691165 2.21779e-21)
(0.841402 -0.630457 -1.07697e-20)
(0.861698 -0.564445 2.79107e-20)
(0.87901 -0.504062 -2.43982e-20)
(0.895168 -0.450287 1.81174e-20)
(0.913249 -0.400954 -1.56128e-20)
(0.929668 -0.35762 -1.96665e-20)
(0.290864 -0.296969 -4.02508e-21)
(0.615448 -0.612272 2.52901e-21)
(0.782934 -0.71381 -8.61345e-22)
(0.853651 -0.698515 1.03225e-21)
(0.882242 -0.63909 -2.08527e-21)
(0.898173 -0.573111 -1.98935e-20)
(0.911379 -0.512348 6.26503e-21)
(0.923596 -0.458099 -4.94764e-21)
(0.937823 -0.408049 1.63864e-20)
(0.95448 -0.363231 -4.89999e-21)
(0.305146 -0.289896 -9.22127e-21)
(0.649656 -0.606214 -7.89874e-21)
(0.825745 -0.713319 3.48453e-21)
(0.897422 -0.702263 -1.04564e-22)
(0.923006 -0.644701 -1.62197e-22)
(0.934703 -0.579216 2.23954e-21)
(0.943904 -0.518431 6.50299e-21)
(0.952396 -0.464105 -1.21119e-20)
(0.961876 -0.415066 -1.30199e-20)
(0.976882 -0.374048 8.22304e-21)
(0.317724 -0.280788 -7.63456e-21)
(0.681703 -0.596216 1.65564e-20)
(0.867048 -0.708716 -1.18293e-20)
(0.9404 -0.702445 -3.01183e-21)
(0.963425 -0.647315 -4.71275e-21)
(0.971068 -0.582789 1.69754e-21)
(0.976322 -0.522348 -5.66017e-21)
(0.981346 -0.46824 6.0589e-21)
(0.986538 -0.420107 -5.30057e-21)
(0.996779 -0.379112 2.42345e-22)
(0.328472 -0.26985 -2.02944e-20)
(0.71113 -0.582405 -3.89227e-20)
(0.906417 -0.700102 3.1144e-20)
(0.982234 -0.699127 2.03292e-21)
(1.00323 -0.646975 -1.25055e-21)
(1.00707 -0.58386 5.4509e-21)
(1.00844 -0.524099 8.84054e-22)
(1.01016 -0.47037 -2.05005e-21)
(1.01183 -0.422923 1.28185e-20)
(1.01721 -0.382063 7.91248e-21)
(0.337126 -0.257085 1.90936e-20)
(0.737487 -0.564879 -8.48175e-21)
(0.943441 -0.687675 -2.36215e-20)
(1.02258 -0.692391 2.05048e-21)
(1.04217 -0.643741 1.03921e-21)
(1.04252 -0.582479 -1.21294e-20)
(1.04012 -0.523728 6.35108e-21)
(1.03862 -0.470589 1.39785e-21)
(1.03737 -0.42389 -1.89948e-21)
(1.03894 -0.383636 1.69374e-22)
(0.343436 -0.242696 2.42514e-20)
(0.7602 -0.543864 6.05222e-20)
(0.977825 -0.671663 -1.86711e-21)
(1.0611 -0.68232 -4.39363e-21)
(1.07997 -0.6377 -2.50297e-21)
(1.07724 -0.578727 -3.15497e-21)
(1.07126 -0.521318 -6.96598e-21)
(1.06664 -0.469037 3.43166e-21)
(1.06276 -0.423217 3.41484e-21)
(1.06122 -0.383822 -1.54252e-21)
(0.34742 -0.226952 -1.81306e-20)
(0.779045 -0.519937 -1.03728e-20)
(1.00903 -0.652321 4.47726e-20)
(1.09751 -0.668919 7.09073e-22)
(1.11638 -0.628954 -1.62901e-20)
(1.11103 -0.572701 2.49366e-20)
(1.10173 -0.516963 5.16356e-21)
(1.0941 -0.465808 1.76718e-21)
(1.08773 -0.420976 -2.21319e-21)
(1.08336 -0.382577 -2.07112e-21)
(0.348997 -0.210216 4.32276e-20)
(0.793924 -0.493435 -9.57209e-21)
(1.03621 -0.629517 -2.96466e-20)
(1.13143 -0.652432 2.73659e-21)
(1.15113 -0.617634 1.96501e-20)
(1.14371 -0.564505 -6.74305e-21)
(1.13139 -0.510757 -7.46948e-21)
(1.1209 -0.46098 5.45845e-24)
(1.11216 -0.417239 -3.84246e-21)
(1.10514 -0.37995 1.31272e-21)
(0.348064 -0.192747 -1.5378e-20)
(0.804534 -0.464496 -9.50966e-20)
(1.05915 -0.603616 8.23529e-21)
(1.16239 -0.633138 3.3329e-20)
(1.18398 -0.603828 -1.18828e-21)
(1.17507 -0.554256 -3.92394e-20)
(1.16009 -0.502804 2.11914e-20)
(1.14693 -0.45464 -6.49872e-21)
(1.13595 -0.412102 7.87681e-21)
(1.12648 -0.376043 2.02967e-21)
(0.344567 -0.174794 -1.87363e-20)
(0.810532 -0.433459 3.33247e-20)
(1.07774 -0.575003 4.22812e-20)
(1.18993 -0.611162 -2.48643e-20)
(1.21462 -0.587712 6.14523e-21)
(1.20494 -0.542083 2.3728e-20)
(1.18768 -0.493219 9.5662e-21)
(1.17208 -0.446888 3.54762e-21)
(1.15903 -0.405667 -6.88872e-21)
(1.14729 -0.370954 -6.20385e-21)
(0.33852 -0.15662 -2.53264e-20)
(0.811647 -0.400736 -9.175e-21)
(1.09163 -0.543953 -7.87319e-20)
(1.21378 -0.586723 -1.05238e-20)
(1.24277 -0.569468 1.53686e-21)
(1.23313 -0.528131 3.86911e-21)
(1.21406 -0.48213 -4.11424e-20)
(1.19626 -0.437832 -1.8147e-20)
(1.18129 -0.398034 4.55821e-22)
(1.16748 -0.364762 5.1105e-21)
(0.329986 -0.138487 -6.88163e-21)
(0.807689 -0.366753 3.00933e-20)
(1.10045 -0.510772 3.97442e-20)
(1.23367 -0.56006 2.24667e-20)
(1.26819 -0.549273 -4.75326e-21)
(1.25949 -0.512563 -4.37485e-21)
(1.23907 -0.469657 3.24052e-20)
(1.21937 -0.427583 3.07889e-20)
(1.20268 -0.389302 4.02726e-21)
(1.18698 -0.357534 -3.90671e-21)
(0.319075 -0.120654 6.58222e-20)
(0.798544 -0.33195 4.10396e-20)
(1.10383 -0.475815 -3.93527e-20)
(1.24923 -0.531421 -6.93337e-21)
(1.2906 -0.527321 3.47425e-21)
(1.28387 -0.495522 -1.085e-20)
(1.26267 -0.455938 -1.88982e-20)
(1.2413 -0.416261 -1.31899e-21)
(1.22314 -0.379568 -1.84468e-20)
(1.20575 -0.349361 8.02684e-21)
(0.305941 -0.103368 8.18664e-21)
(0.784174 -0.296785 -2.24258e-20)
(1.10151 -0.439461 5.15887e-20)
(1.26014 -0.501062 2.98431e-20)
(1.30975 -0.503793 1.36965e-21)
(1.30604 -0.477172 1.58625e-20)
(1.2848 -0.441102 1.61527e-21)
(1.26205 -0.403978 -1.36397e-20)
(1.24254 -0.368947 1.02163e-20)
(1.2238 -0.340322 1.08575e-21)
(0.29078 -0.0868664 -5.46113e-20)
(0.76462 -0.261728 -1.59433e-20)
(1.09324 -0.402114 -1.36081e-20)
(1.26604 -0.469253 -2.09645e-20)
(1.32534 -0.478871 5.34127e-21)
(1.32582 -0.457666 -1.19523e-22)
(1.30526 -0.425292 1.15976e-20)
(1.28162 -0.390837 -2.97375e-21)
(1.26085 -0.357546 -1.17757e-20)
(1.24123 -0.330613 -9.35454e-21)
(0.273832 -0.0713614 4.38885e-21)
(0.740004 -0.227251 2.5491e-20)
(1.07885 -0.36419 1.1819e-20)
(1.26661 -0.436279 -3.3665e-20)
(1.33708 -0.452742 -6.52752e-22)
(1.34304 -0.437149 -1.23847e-20)
(1.32396 -0.408644 2.2718e-22)
(1.2999 -0.376949 4.23339e-21)
(1.27812 -0.345588 -4.74586e-21)
(1.25795 -0.320173 1.35181e-20)
(0.255371 -0.0570391 1.01407e-20)
(0.710547 -0.193823 -2.47261e-20)
(1.0582 -0.326118 -5.60842e-20)
(1.26153 -0.402433 4.86734e-20)
(1.34467 -0.425598 -3.1326e-21)
(1.3575 -0.415762 8.8899e-21)
(1.34081 -0.391292 -1.13252e-21)
(1.31684 -0.362451 7.468e-21)
(1.29432 -0.333148 -6.23685e-22)
(1.27357 -0.309177 -1.05513e-20)
(0.2357 -0.0440534 -2.0296e-20)
(0.676569 -0.161898 3.17006e-20)
(1.03125 -0.288341 2.55084e-20)
(1.25048 -0.368018 -3.46695e-20)
(1.34777 -0.397632 -5.47378e-21)
(1.36897 -0.393645 1.86762e-21)
(1.35571 -0.373355 1.88834e-20)
(1.33239 -0.347449 6.53871e-22)
(1.30941 -0.320242 3.42841e-21)
(1.28808 -0.297681 -6.8853e-21)
(0.215148 -0.0325224 1.53626e-20)
(0.638498 -0.131898 -1.37082e-20)
(0.998016 -0.2513 -1.12756e-20)
(1.23319 -0.333347 1.86742e-20)
(1.34602 -0.369038 6.08958e-21)
(1.37719 -0.370926 4.48278e-21)
(1.36852 -0.354944 -1.98087e-20)
(1.34651 -0.33204 -6.82528e-21)
(1.32341 -0.306931 -5.713e-21)
(1.30163 -0.285739 2.25348e-21)
(0.194053 -0.0225259 -7.34872e-21)
(0.59686 -0.104209 -1.55413e-22)
(0.958638 -0.215438 2.12478e-20)
(1.2094 -0.298744 -7.61427e-21)
(1.33904 -0.340009 -3.32244e-21)
(1.38186 -0.347726 -2.12388e-21)
(1.37908 -0.336155 5.01507e-21)
(1.35916 -0.316317 8.31808e-21)
(1.33632 -0.29331 -4.1763e-22)
(1.31432 -0.273436 3.01762e-21)
(0.172761 -0.0141027 5.13234e-21)
(0.55228 -0.079159 -1.43032e-21)
(0.913368 -0.18119 -3.77444e-21)
(1.1789 -0.264538 -3.36668e-21)
(1.32644 -0.310742 2.96688e-21)
(1.38263 -0.324158 2.2887e-21)
(1.38718 -0.317075 -2.07869e-21)
(1.37025 -0.30037 7.24469e-22)
(1.34815 -0.279484 1.02833e-21)
(1.3262 -0.260866 -1.35272e-21)
(0.151608 -0.0072504 2.61276e-21)
(0.505462 -0.0570141 7.61999e-22)
(0.862594 -0.148975 -4.54505e-21)
(1.14156 -0.231069 -3.68036e-21)
(1.30779 -0.281438 3.88715e-21)
(1.37909 -0.300327 7.83773e-22)
(1.39259 -0.297777 -1.83331e-21)
(1.37969 -0.284275 1.71913e-21)
(1.35888 -0.265543 9.81362e-22)
(1.33727 -0.248109 -1.14817e-21)
(0.130916 -0.00192704 -1.05894e-21)
(0.457178 -0.0379639 2.085e-21)
(0.806855 -0.119193 1.38223e-20)
(1.09731 -0.198683 -6.3571e-21)
(1.28268 -0.252303 -3.15665e-21)
(1.37078 -0.276336 -3.67188e-21)
(1.39496 -0.278323 7.68239e-21)
(1.38733 -0.268093 5.50388e-21)
(1.36847 -0.251564 4.37714e-21)
(1.34754 -0.235236 2.36807e-21)
(0.110981 0.00194598 2.01324e-20)
(0.408242 -0.0221135 -1.11296e-20)
(0.746854 -0.0922059 -1.31764e-20)
(1.04623 -0.167733 1.83754e-20)
(1.25068 -0.223555 1.0179e-20)
(1.35715 -0.252282 -7.29295e-22)
(1.3939 -0.258757 -1.36358e-20)
(1.39295 -0.251863 -9.63184e-21)
(1.37685 -0.237605 -1.07574e-20)
(1.35697 -0.222314 6.84395e-21)
(0.0920658 0.00447884 -2.70235e-20)
(0.359479 -0.00947752 2.54118e-20)
(0.68346 -0.0683321 3.00602e-20)
(0.988537 -0.138575 -3.1322e-20)
(1.21142 -0.195426 -1.13525e-20)
(1.33762 -0.228269 7.94764e-21)
(1.38891 -0.239117 1.46259e-20)
(1.39626 -0.23561 2.64097e-21)
(1.38391 -0.223709 -7.60685e-22)
(1.36556 -0.2094 -1.00033e-20)
(0.0743897 0.00580708 -3.69486e-21)
(0.311692 2.10059e-05 -3.53468e-20)
(0.617694 -0.0478251 -3.92435e-20)
(0.924663 -0.111566 4.7264e-20)
(1.1646 -0.168167 -5.65159e-21)
(1.31154 -0.204409 1.19618e-20)
(1.37936 -0.219431 2.64975e-21)
(1.39687 -0.219341 -6.71172e-21)
(1.38948 -0.2099 3.74685e-21)
(1.37326 -0.19654 -1.57389e-21)
(0.0581262 0.00608458 7.61399e-21)
(0.265633 0.0065475 2.16371e-20)
(0.550707 -0.0308575 1.28584e-20)
(0.855264 -0.0870571 -1.02661e-20)
(1.11004 -0.142054 -1.82359e-20)
(1.27822 -0.18083 -1.83988e-20)
(1.36454 -0.199728 -4.10794e-21)
(1.39425 -0.20305 1.28398e-20)
(1.39329 -0.196183 -2.79857e-21)
(1.37998 -0.183764 6.00967e-21)
(0.0433989 0.00547637 -2.8438e-20)
(0.221965 0.0103462 -2.7115e-20)
(0.483727 -0.0175017 -4.74609e-21)
(0.781269 -0.0653827 -5.38186e-21)
(1.04776 -0.117389 -1.45045e-20)
(1.23702 -0.157692 9.84482e-21)
(1.3436 -0.180045 -1.42741e-21)
(1.38775 -0.18672 -1.09078e-20)
(1.39496 -0.182546 1.02029e-20)
(1.38556 -0.171089 -1.89718e-20)
(0.0302822 0.00415193 6.69381e-21)
(0.181241 0.0117258 2.32984e-20)
(0.418002 -0.00771292 2.1978e-20)
(0.703886 -0.0468419 2.58121e-20)
(0.978016 -0.0945015 -4.21192e-22)
(1.18734 -0.135187 2.97464e-20)
(1.31562 -0.160439 3.49224e-21)
(1.37654 -0.170333 -4.3591e-20)
(1.39397 -0.168964 3.38488e-20)
(1.38976 -0.158513 1.21001e-20)
(0.0188032 0.00227946 1.83619e-20)
(0.143886 0.0110424 4.20331e-20)
(0.354716 -0.00131999 -5.73782e-21)
(0.624587 -0.0316714 -3.30743e-20)
(0.901447 -0.0737454 1.63118e-20)
(1.12874 -0.113559 -1.94902e-20)
(1.2796 -0.141 -3.22001e-20)
(1.3596 -0.153877 -6.47029e-21)
(1.38961 -0.155397 -3.2466e-20)
(0.00894681 2.14506e-05 9.12379e-21)
(0.110192 0.00868072 7.71995e-21)
(0.294921 0.00197314 5.98289e-20)
(0.54503 -0.0200103 1.36189e-20)
(0.819089 -0.055488 -1.35782e-20)
(1.06105 -0.0931037 -7.32085e-21)
(1.23456 -0.121866 5.51389e-20)
(1.33579 -0.137364 5.09051e-20)
(0.000662939 -0.0024683 2.29028e-21)
(0.0803154 0.00503713 -4.41686e-20)
(0.239472 0.00257017 -7.17305e-20)
(0.46695 -0.0118612 4.24389e-21)
(0.732435 -0.0400852 2.08761e-20)
(0.984487 -0.0741775 -3.08742e-20)
(1.1796 -0.10324 -8.97884e-20)
(-0.00612592 -0.00504663 -1.65832e-20)
(0.0542941 0.000503618 4.44983e-20)
(0.18899 0.000951219 4.49376e-20)
(0.39201 -0.00706101 -5.06399e-20)
(0.643406 -0.0278413 7.24107e-21)
(-0.0115164 -0.00758269 -3.97123e-20)
(0.0320599 -0.00454726 -6.92519e-20)
(0.143856 -0.00236798 -1.49477e-20)
(0.321652 -0.0052807 2.79378e-20)
(-0.0156172 -0.00995981 2.98916e-20)
(0.0134601 -0.00977785 3.17811e-22)
(0.104227 -0.00688056 -7.23789e-21)
(-0.0185444 -0.0120788 -9.95768e-21)
(-0.00172146 -0.0149018 -1.74266e-20)
(-0.0204203 -0.0138637 6.87838e-20)
(-0.0137466 -0.019701 5.43684e-20)
(-0.021376 -0.0152693 1.32883e-20)
(0.998566 -0.00338803 -1.43427e-22)
(0.998799 -0.00902683 6.4934e-22)
(0.992392 -0.0182666 3.21749e-22)
(0.989405 -0.0256238 1.51927e-22)
(0.979876 -0.0379854 3.16731e-22)
(0.974535 -0.0478902 -1.36592e-21)
(0.962454 -0.065096 -1.87231e-21)
(0.955756 -0.0794752 6.0557e-22)
(0.942257 -0.104161 1.95945e-21)
(0.93647 -0.124969 2.36194e-21)
(0.92404 -0.160218 4.10031e-21)
(0.923594 -0.187703 -9.58312e-22)
(0.916937 -0.237022 -5.94024e-21)
(0.928811 -0.266365 -1.54857e-21)
(0.939729 -0.339841 4.12967e-21)
(0.998611 -0.00324789 -8.20038e-22)
(0.998674 -0.00864136 3.12138e-22)
(0.992305 -0.0175842 -5.26913e-22)
(0.988985 -0.0246004 1.44951e-21)
(0.979413 -0.036553 -1.30541e-21)
(0.973498 -0.0459531 1.54791e-22)
(0.961185 -0.0625588 1.97505e-21)
(0.953488 -0.0762173 -3.14444e-21)
(0.939367 -0.100111 1.43233e-21)
(0.931824 -0.120067 -5.28672e-21)
(0.918075 -0.154589 6.06461e-21)
(0.914573 -0.181578 -6.36723e-21)
(0.905556 -0.230889 -9.42623e-22)
(0.911599 -0.261199 7.52239e-21)
(0.917512 -0.334216 -1.75109e-21)
(0.998655 -0.00310384 1.08913e-21)
(0.998563 -0.00823532 7.66753e-22)
(0.992242 -0.0168581 9.35886e-22)
(0.988624 -0.0235146 -7.07285e-22)
(0.979026 -0.0350226 -7.41787e-22)
(0.972611 -0.0438959 2.78221e-21)
(0.960099 -0.0598453 -1.53763e-21)
(0.951546 -0.0727472 4.33981e-21)
(0.936863 -0.09573 -2.68809e-21)
(0.927807 -0.114735 -1.33145e-21)
(0.912831 -0.148192 -1.8729e-21)
(0.906612 -0.174412 1.58095e-21)
(0.895347 -0.222741 4.4604e-21)
(0.896587 -0.253861 -1.25466e-20)
(0.897803 -0.324495 1.39881e-20)
(0.998697 -0.00295963 1.56552e-22)
(0.99846 -0.00782977 -1.27072e-21)
(0.992192 -0.016143 -2.39185e-21)
(0.9883 -0.0224668 4.21357e-22)
(0.978686 -0.033539 -8.27837e-23)
(0.971821 -0.0419278 7.89596e-22)
(0.959129 -0.0572277 2.41195e-21)
(0.949811 -0.0694245 -1.6255e-21)
(0.934607 -0.0914667 2.12289e-21)
(0.924176 -0.109556 -4.29004e-21)
(0.90805 -0.141767 2.89895e-21)
(0.899302 -0.167174 1.98188e-21)
(0.885804 -0.21396 4.86806e-21)
(0.882707 -0.245536 -8.43296e-21)
(0.879314 -0.313971 2.08673e-22)
(0.998738 -0.00281206 -1.37975e-21)
(0.998363 -0.00742797 -3.32614e-22)
(0.99215 -0.0154222 -3.32154e-22)
(0.988003 -0.0214219 1.8656e-21)
(0.97838 -0.0320456 3.50258e-23)
(0.971099 -0.0399584 -2.94235e-22)
(0.958246 -0.0545845 -1.69785e-21)
(0.948219 -0.0660824 -1.49547e-22)
(0.932537 -0.0871307 5.41243e-21)
(0.920816 -0.104304 -6.33033e-21)
(0.903609 -0.135136 2.03098e-21)
(0.892471 -0.159689 3.13239e-21)
(0.876773 -0.20466 1.04781e-21)
(0.869632 -0.23626 -4.71272e-21)
(0.861807 -0.302506 1.15291e-22)
(0.998778 -0.00266062 2.54155e-22)
(0.998271 -0.00704476 2.28166e-22)
(0.992115 -0.0146911 7.91534e-22)
(0.987728 -0.02037 -1.03694e-21)
(0.978102 -0.0305279 2.94663e-22)
(0.97043 -0.037969 -8.20043e-22)
(0.957433 -0.0518924 4.3784e-22)
(0.946738 -0.0626952 -1.88796e-21)
(0.930617 -0.0826935 3.66163e-21)
(0.917673 -0.0989458 -7.36727e-23)
(0.899447 -0.128276 -6.67861e-21)
(0.886055 -0.151903 4.21539e-22)
(0.868211 -0.194842 7.24078e-21)
(0.85727 -0.226065 1.98151e-22)
(0.845205 -0.289882 -8.50093e-21)
(0.998815 -0.00250606 2.20763e-22)
(0.998183 -0.00666731 -1.31023e-21)
(0.992087 -0.0139506 -9.90442e-22)
(0.987469 -0.0193148 1.18766e-21)
(0.977848 -0.028991 -8.538e-22)
(0.969805 -0.0359684 6.93876e-22)
(0.956682 -0.0491622 -3.71984e-22)
(0.945351 -0.0592782 -4.23797e-22)
(0.928829 -0.0781732 2.79753e-21)
(0.914725 -0.0935 -5.63266e-21)
(0.895537 -0.121216 4.53396e-21)
(0.880029 -0.143832 6.39504e-21)
(0.860118 -0.18455 -7.94093e-21)
(0.8456 -0.215038 -1.50382e-21)
(0.829498 -0.276133 -7.25292e-21)
(0.998853 -0.00234913 -1.23256e-22)
(0.998099 -0.00628199 8.19289e-22)
(0.992067 -0.013201 -9.05673e-22)
(0.987225 -0.0182587 2.1207e-21)
(0.977617 -0.0274373 -2.29094e-21)
(0.969217 -0.0339602 -2.34838e-21)
(0.955987 -0.0463977 -5.87717e-22)
(0.94405 -0.0558351 2.83807e-22)
(0.92716 -0.0735764 -2.19766e-21)
(0.911963 -0.0879684 2.48979e-21)
(0.891867 -0.113975 2.68518e-21)
(0.874385 -0.135482 -9.67131e-22)
(0.852504 -0.173823 -3.35787e-21)
(0.834627 -0.203259 7.01491e-21)
(0.814703 -0.261319 -6.80717e-21)
(0.998889 -0.00218948 -5.35869e-22)
(0.998019 -0.00589458 5.07785e-21)
(0.992052 -0.0124437 1.17788e-22)
(0.986995 -0.0172025 1.05452e-21)
(0.977408 -0.0258675 -1.90157e-22)
(0.968664 -0.0319451 3.16622e-21)
(0.955344 -0.0435998 4.95039e-22)
(0.942832 -0.0523657 5.11416e-23)
(0.925605 -0.0689068 -3.4075e-21)
(0.909384 -0.0823498 -6.19265e-22)
(0.888433 -0.106565 3.0303e-21)
(0.869121 -0.126864 -4.35936e-21)
(0.845381 -0.162691 -3.30974e-21)
(0.824364 -0.190793 3.95641e-21)
(0.800848 -0.245504 -3.43315e-21)
(0.998925 -0.00202703 1.3371e-21)
(0.997943 -0.0055084 -2.85139e-21)
(0.992043 -0.0116796 1.52934e-21)
(0.986778 -0.0161473 -2.18412e-21)
(0.977218 -0.0242822 -8.09508e-22)
(0.968148 -0.0299239 4.55692e-22)
(0.95475 -0.0407701 -1.67016e-21)
(0.941697 -0.0488705 2.94813e-21)
(0.924159 -0.0641696 1.6085e-21)
(0.90699 -0.0766446 -9.18601e-22)
(0.885236 -0.0990016 2.84009e-21)
(0.86424 -0.117992 -5.3639e-21)
(0.838763 -0.15118 9.35975e-21)
(0.814833 -0.1777 -6.55534e-21)
(0.787965 -0.228756 -3.36077e-21)
(0.99896 -0.00186196 -9.49809e-22)
(0.99787 -0.00512388 1.2895e-22)
(0.992039 -0.0109096 1.12237e-23)
(0.986574 -0.0150939 2.02213e-21)
(0.977047 -0.0226826 5.05975e-22)
(0.967667 -0.0278973 -9.37144e-22)
(0.954204 -0.037911 1.08766e-21)
(0.940646 -0.0453496 -2.1425e-21)
(0.922821 -0.0593703 9.09158e-22)
(0.904783 -0.0708544 6.04047e-22)
(0.882281 -0.0912962 -2.7929e-21)
(0.859745 -0.10888 2.11671e-21)
(0.832664 -0.139318 5.59504e-21)
(0.806054 -0.164034 -2.72801e-21)
(0.77609 -0.211148 -7.45248e-21)
(0.998994 -0.00169441 -1.08093e-21)
(0.997801 -0.00474113 -2.28784e-22)
(0.992039 -0.0101352 -9.89381e-22)
(0.986385 -0.0140429 -2.94323e-21)
(0.976893 -0.0210698 1.4281e-21)
(0.967223 -0.0258659 -1.37838e-21)
(0.953703 -0.0350247 1.85669e-21)
(0.939682 -0.0418036 2.77558e-21)
(0.921592 -0.0545145 -1.82011e-21)
(0.902765 -0.064982 3.75014e-21)
(0.879571 -0.0834606 -2.0173e-21)
(0.855642 -0.0995452 -3.1177e-21)
(0.827095 -0.127131 -1.99167e-21)
(0.798048 -0.149847 8.13493e-21)
(0.765253 -0.192757 -2.68678e-21)
(0.999026 -0.0015245 1.12286e-21)
(0.997736 -0.00436038 5.43997e-22)
(0.992042 -0.00935756 -7.87998e-23)
(0.98621 -0.0129946 1.18133e-21)
(0.976755 -0.0194448 -1.89385e-21)
(0.966817 -0.0238299 -4.72424e-22)
(0.953248 -0.0321138 -4.27922e-23)
(0.938806 -0.0382329 -9.3638e-22)
(0.920473 -0.0496077 -2.77323e-21)
(0.900938 -0.0590312 -1.43625e-21)
(0.877113 -0.0755061 5.33724e-21)
(0.851936 -0.0900064 -8.2688e-22)
(0.822068 -0.114647 -8.70393e-22)
(0.790834 -0.135191 -7.31439e-22)
(0.755487 -0.173662 -3.48906e-21)
(0.999056 -0.00135235 6.79388e-22)
(0.997676 -0.00398182 -1.25549e-21)
(0.992047 -0.00857714 5.34908e-22)
(0.986052 -0.0119491 -1.44664e-21)
(0.976633 -0.0178089 -9.25658e-23)
(0.966451 -0.0217895 7.92549e-23)
(0.952837 -0.0291809 1.1703e-22)
(0.938019 -0.0346383 1.76211e-22)
(0.919464 -0.0446554 -1.28911e-21)
(0.899304 -0.0530069 1.6728e-21)
(0.874913 -0.0674436 -2.75354e-21)
(0.848633 -0.0802823 6.0621e-22)
(0.817593 -0.101894 1.88571e-21)
(0.784428 -0.120114 -1.28106e-22)
(0.746816 -0.153944 2.35306e-21)
(0.999083 -0.00117814 -6.61572e-22)
(0.997621 -0.00360556 1.5226e-21)
(0.992053 -0.0077933 -9.58066e-22)
(0.98591 -0.0109058 1.18019e-21)
(0.976524 -0.0161632 6.53703e-22)
(0.966125 -0.0197446 -4.10597e-22)
(0.952469 -0.0262285 -7.43578e-23)
(0.937323 -0.0310209 -4.81453e-22)
(0.918569 -0.0396626 1.71e-22)
(0.897866 -0.046915 -1.43941e-21)
(0.872975 -0.0592844 6.75318e-22)
(0.84574 -0.0703926 -4.72538e-21)
(0.813681 -0.0889027 6.68561e-21)
(0.778846 -0.104668 -2.02294e-21)
(0.739266 -0.133683 -4.40948e-21)
(0.999107 -0.00100205 -3.08234e-22)
(0.997573 -0.00323157 -4.70294e-22)
(0.992059 -0.00700504 3.27573e-22)
(0.985786 -0.00986397 8.15176e-23)
(0.976429 -0.0145088 9.01738e-22)
(0.96584 -0.017695 -3.25205e-22)
(0.952146 -0.023259 1.80896e-22)
(0.936718 -0.0273819 -7.50218e-23)
(0.917789 -0.0346342 5.30803e-22)
(0.896626 -0.0407622 1.01686e-21)
(0.871305 -0.0510397 1.48871e-21)
(0.843263 -0.0603578 -2.46823e-21)
(0.810339 -0.0757035 1.10033e-21)
(0.7741 -0.088904 -1.44416e-21)
(0.732854 -0.112959 -4.14208e-21)
(0.999126 -0.000824349 1.09401e-21)
(0.997531 -0.00285889 -1.282e-22)
(0.992063 -0.00621173 5.11955e-22)
(0.985681 -0.00882277 4.40792e-22)
(0.976345 -0.0128468 -1.40573e-21)
(0.965597 -0.0156404 5.39088e-23)
(0.951867 -0.0202748 2.21089e-22)
(0.936205 -0.0237231 1.37747e-22)
(0.917125 -0.0295754 -5.2467e-22)
(0.895584 -0.0345565 4.79594e-22)
(0.869907 -0.0427222 2.27406e-21)
(0.841205 -0.0502001 -9.10062e-22)
(0.807575 -0.062329 2.12294e-21)
(0.770198 -0.0728739 -4.69576e-21)
(0.727596 -0.0918566 5.96963e-21)
(0.999142 -0.000645423 -7.81218e-22)
(0.997496 -0.00248628 1.47109e-23)
(0.992066 -0.00541326 -4.56497e-22)
(0.985594 -0.00778109 -2.28911e-22)
(0.976274 -0.0111778 5.01434e-22)
(0.965396 -0.0135803 -2.65044e-23)
(0.951632 -0.0172776 -9.1499e-22)
(0.935784 -0.020046 5.31028e-22)
(0.916579 -0.0244909 -2.40212e-22)
(0.894743 -0.0283061 2.14171e-22)
(0.868783 -0.0343458 7.85252e-22)
(0.839572 -0.0399439 2.4121e-22)
(0.805396 -0.0488121 -1.38424e-21)
(0.767146 -0.0566271 1.77261e-22)
(0.723504 -0.0704531 -1.34497e-21)
(0.999153 -0.000465315 3.80655e-22)
(0.99747 -0.00211912 -2.63542e-23)
(0.992067 -0.00461055 6.65021e-23)
(0.985526 -0.00673748 3.73112e-22)
(0.976214 -0.00950138 -6.80764e-23)
(0.965237 -0.0115116 -3.68393e-22)
(0.951442 -0.0142656 -2.34993e-22)
(0.935455 -0.0163469 2.84885e-22)
(0.916153 -0.0193785 -2.57767e-22)
(0.894103 -0.0220102 3.16104e-22)
(0.867937 -0.0259087 -8.15521e-22)
(0.838367 -0.0295993 4.64122e-22)
(0.803809 -0.0351726 -1.04478e-21)
(0.764951 -0.0401904 4.22008e-22)
(0.720582 -0.0488039 1.81518e-22)
(0.999158 -0.000284442 -6.78856e-23)
(0.997453 -0.00175615 6.66697e-23)
(0.992065 -0.00380451 -8.6384e-23)
(0.985478 -0.00569067 -1.2355e-22)
(0.976165 -0.00781634 1.16494e-22)
(0.965121 -0.00942966 1.8655e-22)
(0.951296 -0.0112327 1.30477e-22)
(0.935219 -0.0126151 -7.96529e-23)
(0.915848 -0.0142206 3.18589e-22)
(0.893667 -0.0156499 5.89325e-23)
(0.867371 -0.0173794 1.52604e-22)
(0.837592 -0.0191456 2.15283e-22)
(0.802823 -0.0214332 -2.99944e-24)
(0.763618 -0.0236423 -1.58507e-22)
(0.718828 -0.0269892 -2.66176e-23)
(1.00001 -0.000269417 0)
(1.00202 -0.000746678 0)
(1.00553 -0.00126092 0)
(1.01012 -0.00168611 0)
(1.01548 -0.00212358 0)
(1.02128 -0.00245796 0)
(1.02731 -0.00278506 0)
(1.03335 -0.00300062 0)
(1.03925 -0.00321008 0)
(1.04486 -0.00330902 0)
(1.05014 -0.00342004 0)
(1.05499 -0.00342107 0)
(1.05943 -0.00346476 0)
(1.06344 -0.00338794 0)
(1.06704 -0.00339987 0)
(1.00002 -0.000794838 0)
(1.00201 -0.00220243 0)
(1.00551 -0.00372173 0)
(1.01009 -0.00497875 0)
(1.01545 -0.00627573 0)
(1.02127 -0.00726871 0)
(1.02735 -0.00824459 0)
(1.03344 -0.00889039 0)
(1.03941 -0.00952144 0)
(1.0451 -0.00982302 0)
(1.05047 -0.0101619 0)
(1.05541 -0.0101716 0)
(1.05996 -0.0103086 0)
(1.06404 -0.0100852 0)
(1.06776 -0.0101257 0)
(1.00002 -0.00129456 0)
(1.00199 -0.00357663 0)
(1.00548 -0.00605935 0)
(1.01002 -0.00811075 0)
(1.0154 -0.0102468 0)
(1.02124 -0.0118823 0)
(1.02741 -0.0135081 0)
(1.03358 -0.0145866 0)
(1.0397 -0.0156561 0)
(1.04552 -0.0161719 0)
(1.05108 -0.0167616 0)
(1.05617 -0.0167918 0)
(1.06092 -0.0170457 0)
(1.06514 -0.0166831 0)
(1.06908 -0.0167762 0)
(1.00003 -0.00176948 0)
(1.00196 -0.00485987 0)
(1.00542 -0.00827156 0)
(1.00991 -0.011081 0)
(1.0153 -0.0140501 0)
(1.02117 -0.0163203 0)
(1.02744 -0.0186149 0)
(1.03373 -0.0201388 0)
(1.04005 -0.021681 0)
(1.04606 -0.0224317 0)
(1.05187 -0.0233111 0)
(1.05717 -0.0233795 0)
(1.06222 -0.0237873 0)
(1.06665 -0.0232941 0)
(1.07089 -0.0234739 0)
(1.00004 -0.00221971 0)
(1.00192 -0.0060462 0)
(1.00533 -0.0103567 0)
(1.00975 -0.0138878 0)
(1.01513 -0.0176923 0)
(1.02102 -0.0205933 0)
(1.0274 -0.0235873 0)
(1.03383 -0.0255768 0)
(1.04039 -0.0276408 0)
(1.04663 -0.0286555 0)
(1.05277 -0.0298782 0)
(1.05834 -0.0300087 0)
(1.06375 -0.0306202 0)
(1.06844 -0.0300066 0)