/*--------------------------------*- C++ -*----------------------------------*\
  =========                 |
  \\      /  F ield         | OpenFOAM: The Open Source CFD Toolbox
   \\    /   O peration     | Website:  https://openfoam.org
    \\  /    A nd           | Version:  7
     \\/     M anipulation  |
\*---------------------------------------------------------------------------*/
FoamFile
{
    version     2.0;
    format      ascii;
    class       volVectorField;
    location    "220";
    object      U;
}
// * * * * * * * * * * * * * * * * * * * * * * * * * * * * * * * * * * * * * //

dimensions      [0 1 -1 0 0 0 0];

internalField   nonuniform List<vector> 
2125
(
(-0.0219528 0.0157223 -8.90217e-20)
(-0.0208054 0.0142059 3.22787e-20)
(-0.0116296 0.0193382 3.4973e-20)
(-0.0186735 0.0122852 -2.19311e-20)
(0.00143159 0.0142044 -1.61648e-20)
(-0.0154282 0.0100149 4.61256e-20)
(0.0177799 0.00874473 -1.27602e-20)
(0.116559 0.00454053 -7.67957e-21)
(-0.0109502 0.00748157 -1.69485e-20)
(0.037664 0.00319739 -1.01223e-19)
(0.158476 -0.00029137 1.05081e-20)
(0.348231 0.00126832 3.6445e-20)
(-0.00512736 0.00479441 -1.87085e-20)
(0.0612824 -0.00212986 3.58692e-20)
(0.205927 -0.00383597 4.70564e-20)
(0.421211 0.00297008 -3.37116e-20)
(0.683132 0.022339 1.25646e-20)
(0.943538 0.0493336 -7.64968e-20)
(0.00214418 0.00207896 -2.42851e-20)
(0.0887647 -0.00687934 -8.32658e-21)
(0.258687 -0.0055662 -8.55285e-20)
(0.498352 0.00781213 -1.34589e-20)
(0.772643 0.0345349 -1.4023e-21)
(1.02627 0.0660376 4.58756e-21)
(1.2167 0.0918052 7.83211e-21)
(0.0109551 -0.00052628 -6.3843e-21)
(0.12015 -0.0106616 2.96416e-20)
(0.316301 -0.0049553 4.18505e-20)
(0.578118 0.0160969 2.62339e-20)
(0.859022 0.0499105 -7.7389e-21)
(1.10048 0.0847446 -6.4524e-21)
(1.26837 0.110262 6.36494e-20)
(1.36245 0.122857 8.54203e-21)
(0.0213752 -0.00287182 6.09669e-20)
(0.155368 -0.0130719 3.94311e-20)
(0.378069 -0.00152354 -4.006e-20)
(0.658797 0.027958 -7.99873e-21)
(0.940495 0.0681624 4.20503e-21)
(1.16564 0.105061 -1.52163e-20)
(1.31042 0.129366 -3.27554e-20)
(1.38372 0.139615 -5.37812e-21)
(1.40824 0.139262 3.90783e-22)
(1.40681 0.128616 1.3337e-20)
(0.0334454 -0.0047987 7.61853e-21)
(0.194221 -0.0137057 -2.15654e-20)
(0.443066 0.00512155 5.11469e-20)
(0.738657 0.0433693 3.33495e-20)
(1.01573 0.0889441 1.05516e-21)
(1.22171 0.126641 2.35698e-20)
(1.34379 0.14891 3.44679e-21)
(1.39858 0.156448 -2.47701e-20)
(1.41126 0.153482 2.09398e-20)
(1.40362 0.142007 -6.54342e-24)
(0.04717 -0.00614035 -5.04627e-20)
(0.236381 -0.0121751 -1.48868e-20)
(0.510187 0.0152572 -1.34445e-20)
(0.816089 0.0621777 -2.3447e-20)
(1.08386 0.1119 5.54439e-21)
(1.26896 0.149196 1.21886e-22)
(1.36948 0.168746 1.81184e-20)
(1.40812 0.173325 -2.93175e-21)
(1.41123 0.167792 -2.15831e-20)
(1.39886 0.155498 -2.00908e-20)
(0.0625096 -0.00672555 4.11174e-21)
(0.281381 -0.00812611 2.41724e-20)
(0.578213 0.0290328 1.17529e-20)
(0.889701 0.0841401 -3.66746e-20)
(1.14437 0.136685 -1.81799e-21)
(1.30791 0.172483 -1.57199e-20)
(1.38846 0.188771 4.03003e-22)
(1.41328 0.190235 7.32649e-21)
(1.40877 0.182208 -8.13894e-21)
(1.39286 0.169096 2.27383e-20)
(0.0793771 -0.0063831 9.68674e-21)
(0.328634 -0.00125694 -2.37126e-20)
(0.645889 0.0464719 -5.60608e-20)
(0.958373 0.108957 5.16445e-20)
(1.19711 0.162975 -3.8442e-21)
(1.33918 0.196304 1.13576e-20)
(1.40163 0.208913 -1.56849e-21)
(1.41482 0.207178 1.0879e-20)
(1.40435 0.196741 -8.15464e-22)
(1.38582 0.182791 -1.76211e-20)
(0.0976355 -0.0049476 -1.97658e-20)
(0.377446 0.00866527 3.09166e-20)
(0.711998 0.0674842 2.55312e-20)
(1.02127 0.136294 -3.6867e-20)
(1.24212 0.190469 -6.11191e-21)
(1.36343 0.220493 2.31978e-21)
(1.40979 0.22912 2.32933e-20)
(1.41334 0.224153 1.16547e-21)
(1.39829 0.211387 4.52471e-21)
(1.37785 0.19656 -9.74064e-21)
(0.117099 -0.00226635 1.5001e-20)
(0.427045 0.0217915 -1.35184e-20)
(0.775422 0.0918826 -1.155e-20)
(1.0778 0.165802 1.97745e-20)
(1.27964 0.218893 6.81121e-21)
(1.38134 0.244911 5.14293e-21)
(1.41361 0.249347 -2.3747e-20)
(1.40932 0.241151 -8.13862e-21)
(1.39082 0.226129 -7.2754e-21)
(1.36902 0.210365 3.20332e-21)
(0.137536 0.00179352 -7.50346e-21)
(0.476615 0.0381827 -1.75018e-22)
(0.835176 0.119403 2.18629e-20)
(1.12762 0.197124 -8.00495e-21)
(1.31 0.247989 -3.53997e-21)
(1.39353 0.269435 -2.32579e-21)
(1.41368 0.269549 5.75568e-21)
(1.4031 0.25815 9.92715e-21)
(1.38209 0.240932 -3.20762e-22)
(1.35937 0.224156 3.62398e-21)
(0.158675 0.0073381 5.29198e-21)
(0.525326 0.0578078 -1.48653e-21)
(0.890441 0.149719 -3.91933e-21)
(1.17055 0.229901 -3.54877e-21)
(1.33358 0.277521 3.19061e-21)
(1.40059 0.293951 2.48474e-21)
(1.41046 0.289678 -2.28881e-21)
(1.39495 0.275116 8.28644e-22)
(1.37218 0.255749 1.16429e-21)
(1.3489 0.237874 -1.54724e-21)
(0.180211 0.0144407 2.84798e-21)
(0.572371 0.0805458 8.10967e-22)
(0.940557 0.182461 -4.87394e-21)
(1.20656 0.26378 -3.88446e-21)
(1.3508 0.307263 4.04345e-21)
(1.40301 0.318347 7.91207e-22)
(1.40432 0.309675 -1.8404e-21)
(1.38506 0.291998 1.72906e-21)
(1.36115 0.270512 9.65678e-22)
(1.33763 0.251449 -1.11101e-21)
(0.201819 0.0231374 -1.11211e-21)
(0.616989 0.106193 2.27727e-21)
(0.985028 0.217227 1.50339e-20)
(1.23573 0.29841 -6.68324e-21)
(1.36209 0.337002 -3.26099e-21)
(1.40124 0.342513 -3.67451e-21)
(1.39556 0.329467 7.52838e-21)
(1.37355 0.308728 5.05937e-21)
(1.34903 0.285142 4.04011e-21)
(1.32556 0.264806 2.19706e-21)
(0.223155 0.0334239 2.28776e-20)
(0.658491 0.134471 -1.26069e-20)
(1.0235 0.253591 -1.43316e-20)
(1.25822 0.333448 1.94561e-20)
(1.36786 0.366529 1.02311e-20)
(1.39567 0.366332 -6.8279e-22)
(1.38441 0.348973 -1.26135e-20)
(1.36052 0.325223 -9.07673e-21)
(1.33584 0.299538 -9.49541e-21)
(1.31268 0.277864 5.66768e-21)
(0.243876 0.0452549 -3.09631e-20)
(0.696275 0.165039 2.91725e-20)
(1.05576 0.291116 3.35629e-20)
(1.27425 0.36856 -3.30292e-20)
(1.36848 0.395639 -1.1404e-20)
(1.38663 0.389681 7.3288e-21)
(1.37105 0.368098 1.32846e-20)
(1.34601 0.341388 2.10568e-21)
(1.32155 0.313596 -3.8621e-22)
(1.29893 0.290531 -7.76821e-21)
(0.263642 0.0585445 -4.4524e-21)
(0.729834 0.197506 -4.10737e-20)
(1.08169 0.329357 -4.39617e-20)
(1.28408 0.403418 4.92422e-20)
(1.36434 0.424131 -5.59466e-21)
(1.37441 0.412432 1.02974e-20)
(1.35565 0.386738 2.0323e-21)
(1.3301 0.357131 -5.69654e-21)
(1.30615 0.327224 3.06474e-21)
(1.28416 0.302723 -4.6799e-22)
(0.282129 0.0731688 9.06227e-21)
(0.758764 0.23144 2.54818e-20)
(1.10129 0.367868 1.44176e-20)
(1.288 0.437705 -1.1335e-20)
(1.35578 0.451804 -1.76637e-20)
(1.35925 0.434445 -1.64279e-20)
(1.33831 0.404774 -3.33065e-21)
(1.31281 0.372355 8.94514e-21)
(1.28965 0.340386 -1.89161e-21)
(1.26824 0.314397 4.31827e-21)
(0.299036 0.0889687 -3.43422e-20)
(0.782765 0.266384 -3.20611e-20)
(1.11463 0.406205 -5.10038e-21)
(1.28632 0.471115 -5.75149e-21)
(1.34312 0.47846 -1.30963e-20)
(1.34137 0.455575 8.00831e-21)
(1.31914 0.422076 -1.42179e-21)
(1.29415 0.386934 -7.8164e-21)
(1.27212 0.353073 7.11038e-21)
(1.25128 0.325538 -1.05075e-20)
(0.314094 0.105754 8.10358e-21)
(0.801639 0.301867 2.72011e-20)
(1.12184 0.443939 2.36832e-20)
(1.27935 0.503348 2.57509e-20)
(1.32667 0.503902 4.31361e-22)
(1.32095 0.475682 2.2723e-20)
(1.29818 0.438522 1.59127e-21)
(1.27414 0.400694 -2.70823e-20)
(1.25356 0.365146 1.9534e-20)
(1.23365 0.335925 7.18279e-21)
(0.327072 0.123307 2.22759e-20)
(0.81528 0.337416 4.99497e-20)
(1.12311 0.48065 -6.58605e-21)
(1.26744 0.534119 -3.25206e-20)
(1.30672 0.527938 1.46568e-20)
(1.29817 0.494618 -1.53132e-20)
(1.27558 0.453998 -2.07554e-20)
(1.25301 0.41357 -2.02575e-21)
(1.23385 0.376354 -1.64823e-20)
(1.21536 0.345609 6.45097e-21)
(0.337779 0.141389 1.05632e-20)
(0.823662 0.372561 7.96682e-21)
(1.11871 0.515936 6.26818e-20)
(1.2509 0.563154 1.18136e-20)
(1.28352 0.550381 -1.04024e-20)
(1.2732 0.512221 -5.30093e-21)
(1.25152 0.468313 3.2223e-20)
(1.23073 0.425484 2.6745e-20)
(1.21304 0.386645 1.34231e-20)
(1.19632 0.354364 -1.89248e-21)
(0.346069 0.159751 2.27443e-21)
(0.826835 0.406844 -5.11996e-20)
(1.1089 0.549413 -7.38945e-20)
(1.2301 0.590195 2.43419e-21)
(1.25735 0.571049 1.47379e-20)
(1.24626 0.528322 -2.05673e-20)
(1.22605 0.481348 -4.78454e-20)
(1.20725 0.436293 -1.44107e-20)
(1.19131 0.395917 -9.09224e-22)
(1.17654 0.362139 7.55706e-21)
(0.351838 0.178134 -1.84305e-20)
(0.824924 0.43983 4.67697e-20)
(1.09403 0.58073 4.46339e-20)
(1.20535 0.61499 -4.1673e-20)
(1.22848 0.589745 6.30541e-21)
(1.21751 0.542779 5.09613e-20)
(1.19922 0.492965 -1.2095e-20)
(1.1827 0.44588 9.94886e-21)
(1.16871 0.404067 -5.26996e-21)
(1.15606 0.368845 -7.0535e-21)
(0.355031 0.196276 -4.18297e-20)
(0.818135 0.471094 -7.36353e-20)
(1.07453 0.609589 -1.44733e-20)
(1.17694 0.637286 2.39084e-20)
(1.19715 0.60629 2.41545e-20)
(1.18709 0.555427 -5.14102e-20)
(1.17117 0.503045 2.87262e-20)
(1.15716 0.454131 -1.61808e-20)
(1.1453 0.410994 1.36341e-20)
(1.13496 0.374421 1.50377e-22)
(0.355643 0.213913 3.18647e-20)
(0.806761 0.500222 2.01072e-21)
(1.05073 0.635736 -7.1907e-21)
(1.14511 0.656871 -3.03564e-20)
(1.16363 0.620478 2.0654e-20)
(1.15518 0.566122 3.77925e-21)
(1.14202 0.511461 -1.77042e-20)
(1.13074 0.460938 2.24862e-21)
(1.12117 0.416596 -4.24369e-21)
(1.11334 0.378789 3.20615e-21)
(0.353735 0.230794 -8.9553e-21)
(0.791156 0.526871 -1.29243e-20)
(1.02265 0.658741 3.21836e-20)
(1.11039 0.67367 1.50138e-20)
(1.12823 0.63214 -2.07552e-20)
(1.12198 0.574726 3.18684e-20)
(1.11191 0.518099 1.77732e-21)
(1.10354 0.466204 1.59534e-21)
(1.0964 0.420769 -3.05593e-21)
(1.09126 0.38185 -2.46295e-22)
(0.349416 0.246653 5.86008e-20)
(0.771603 0.550953 4.52191e-20)
(0.990525 0.678224 -2.49626e-21)
(1.07324 0.68734 -7.57837e-21)
(1.09119 0.64122 -8.72737e-21)
(1.08766 0.58113 -4.39842e-21)
(1.08099 0.522854 1.26536e-21)
(1.07569 0.469841 2.48894e-21)
(1.07109 0.423417 3.45331e-21)
(1.06883 0.383501 -4.55076e-22)
(0.342772 0.261109 5.82011e-21)
(0.748161 0.572089 8.46264e-21)
(0.955313 0.69441 -4.40924e-20)
(1.034 0.697633 2.03066e-20)
(1.05279 0.647566 7.80165e-21)
(1.05243 0.585231 -1.78924e-20)
(1.0494 0.525633 5.30714e-21)
(1.04729 0.471774 1.02384e-21)
(1.04537 0.42447 -2.01423e-21)
(1.04626 0.383696 1.11318e-21)
(0.33378 0.273924 -2.21859e-20)
(0.721045 0.589655 -1.69967e-20)
(0.917515 0.706985 1.55618e-20)
(0.992965 0.70458 5.41967e-21)
(1.01327 0.65108 -7.40722e-21)
(1.01647 0.586932 8.26834e-21)
(1.01728 0.526344 1.04339e-21)
(1.01843 0.471905 -1.29975e-21)
(1.01949 0.423854 1.08001e-20)
(1.02426 0.382481 5.36045e-21)
(0.322696 0.284917 -1.79711e-20)
(0.690912 0.603506 4.88107e-20)
(0.877404 0.715709 -3.24418e-20)
(0.950464 0.708086 -3.59373e-21)
(0.972886 0.651673 -7.5923e-21)
(0.979977 0.586154 3.75519e-21)
(0.984724 0.524905 -3.05902e-21)
(0.989226 0.470097 1.98481e-21)
(0.993868 0.421356 1.16277e-21)
(1.00359 0.379862 -1.8595e-21)
(0.309771 0.294054 -4.17186e-22)
(0.658194 0.613523 -1.4268e-20)
(0.835388 0.720395 9.82657e-21)
(0.906844 0.708068 -6.72543e-21)
(0.931912 0.649288 1.1231e-22)
(0.943127 0.582846 2.93672e-21)
(0.951871 0.521273 8.08073e-21)
(0.959886 0.466257 -7.33796e-21)
(0.96889 0.4166 -1.48179e-20)
(0.983479 0.375077 7.41493e-21)
(0.295149 0.301137 2.19248e-21)
(0.623348 0.619579 -3.68308e-22)
(0.791894 0.720947 4.87545e-22)
(0.862456 0.704463 -1.1415e-21)
(0.89061 0.643881 -4.49134e-21)
(0.906121 0.57698 -1.21933e-20)
(0.918915 0.51545 -3.45302e-21)
(0.930702 0.460524 -2.07035e-21)
(0.94453 0.409847 2.22551e-20)
(0.960816 0.364489 -4.10739e-21)
(0.279059 0.30602 -7.86907e-21)
(0.586816 0.621573 -5.41367e-21)
(0.747354 0.717319 2.52168e-21)
(0.817648 0.697234 1.41506e-21)
(0.849247 0.635428 -6.47793e-21)
(0.869179 0.568529 2.57383e-20)
(0.886125 0.507399 -1.97579e-20)
(0.9019 0.452962 2.4343e-20)
(0.919635 0.403015 -1.71065e-20)
(0.935684 0.359148 -2.35291e-20)
(0.261752 0.308597 2.60753e-21)
(0.549031 0.619432 -3.27742e-21)
(0.702194 0.709493 1.4546e-21)
(0.772769 0.686373 9.62298e-21)
(0.80809 0.62392 -5.1542e-21)
(0.83253 0.557475 7.7764e-21)
(0.853708 0.497069 1.13795e-20)
(0.87349 0.443287 -6.07059e-21)
(0.894591 0.393842 -1.77491e-20)
(0.911689 0.350166 2.4293e-20)
(0.243489 0.308789 6.23319e-21)
(0.510427 0.613125 7.76662e-21)
(0.656832 0.697488 -8.9955e-21)
(0.728156 0.6719 -7.85794e-21)
(0.767406 0.609373 3.38938e-20)
(0.796397 0.543834 -3.55428e-20)
(0.821815 0.484515 4.41233e-20)
(0.84548 0.431752 -1.1004e-20)
(0.869615 0.383411 1.19087e-20)
(0.888421 0.340952 2.30668e-20)
(0.224534 0.306548 -1.53954e-21)
(0.471432 0.602657 -8.78953e-21)
(0.611679 0.681348 -7.46037e-21)
(0.684145 0.65386 -3.50551e-21)
(0.72746 0.591822 5.52527e-21)
(0.761002 0.527628 -1.01315e-20)
(0.790619 0.469737 -1.31031e-20)
(0.818037 0.418275 -2.99603e-20)
(0.845083 0.371278 2.99746e-20)
(0.866025 0.330233 -9.48606e-21)
(0.205151 0.301854 2.10685e-20)
(0.43247 0.588072 -3.23897e-21)
(0.567131 0.661148 -1.06436e-20)
(0.641058 0.632325 1.28728e-20)
(0.688512 0.571323 -2.305e-20)
(0.726555 0.508904 6.42075e-20)
(0.760288 0.45279 -3.45783e-20)
(0.791329 0.402951 3.16932e-20)
(0.82122 0.357617 -5.82499e-20)
(0.844527 0.318178 -1.56162e-20)
(0.185606 0.294715 -5.32399e-21)
(0.393953 0.569448 2.26082e-20)
(0.523572 0.636996 4.91788e-21)
(0.59921 0.607389 -1.24187e-20)
(0.650813 0.547953 -2.17075e-20)
(0.693265 0.487725 -3.24075e-22)
(0.730995 0.433724 1.15412e-20)
(0.765524 0.385807 -2.88314e-20)
(0.798188 0.342393 1.40429e-20)
(0.823967 0.304704 1.82795e-21)
(0.166157 0.285166 -3.86309e-20)
(0.35628 0.5469 -9.28829e-21)
(0.481373 0.609023 -2.77491e-21)
(0.5589 0.57917 3.2807e-20)
(0.614607 0.521808 -3.09329e-20)
(0.661333 0.464171 -7.82647e-21)
(0.702912 0.412611 -4.9649e-21)
(0.740782 0.366906 8.97884e-21)
(0.77613 0.325652 -1.17119e-20)
(0.804412 0.289849 -1.82015e-20)
(0.147059 0.273268 3.5434e-20)
(0.319831 0.520574 -2.04357e-20)
(0.440882 0.57739 8.25198e-22)
(0.520415 0.547809 -5.01586e-20)
(0.580126 0.493006 5.48377e-20)
(0.630953 0.438341 -1.74307e-20)
(0.676205 0.389533 1.04499e-20)
(0.717254 0.346314 9.17676e-21)
(0.755169 0.307434 2.6649e-20)
(0.785932 0.273658 -1.11002e-20)
(0.128555 0.259108 -1.4304e-20)
(0.284971 0.490649 4.26535e-20)
(0.402434 0.542285 2.42579e-20)
(0.484027 0.513469 4.03523e-20)
(0.547591 0.46168 -9.27896e-21)
(0.602309 0.410346 3.78243e-21)
(0.651033 0.364589 3.0633e-20)
(0.695077 0.324111 6.9325e-21)
(0.735422 0.287804 6.69291e-22)
(0.768605 0.2562 -1.33565e-20)
(0.110879 0.242796 -3.43785e-20)
(0.252041 0.457332 -2.41982e-21)
(0.366337 0.50392 -1.44699e-20)
(0.449989 0.476332 -6.55588e-20)
(0.517209 0.427984 -6.3678e-20)
(0.575577 0.380317 1.05794e-20)
(0.627547 0.337888 -2.62597e-20)
(0.674383 0.300391 1.69524e-20)
(0.717 0.266839 9.1984e-21)
(0.752505 0.237555 1.90257e-20)
(0.0942496 0.224463 5.14133e-20)
(0.221357 0.420857 -4.21445e-20)
(0.332881 0.462527 -2.15767e-20)
(0.418537 0.436599 3.79697e-20)
(0.489175 0.392086 4.3573e-20)
(0.550921 0.348398 -1.46119e-20)
(0.605887 0.309554 -1.95416e-21)
(0.655294 0.275255 -5.25734e-20)
(0.700006 0.244627 -2.97422e-20)
(0.737706 0.217812 1.13924e-20)
(0.0788687 0.204262 -2.93842e-20)
(0.19321 0.381483 1.23491e-20)
(0.302329 0.418364 4.58581e-20)
(0.389888 0.394491 -2.08549e-20)
(0.463665 0.35417 1.75287e-21)
(0.528491 0.314745 5.87632e-20)
(0.586182 0.279722 2.63516e-21)
(0.63792 0.248819 5.06049e-20)
(0.684536 0.221269 2.11071e-20)
(0.724275 0.197069 -3.36083e-20)
(0.0649221 0.182364 4.1351e-20)
(0.167866 0.339492 4.68465e-21)
(0.274918 0.371705 3.05663e-21)
(0.364236 0.350243 4.22351e-20)
(0.440842 0.314436 -5.56104e-21)
(0.508424 0.279527 -3.69608e-20)
(0.568549 0.248537 1.81351e-20)
(0.622364 0.221209 -2.90454e-20)
(0.67068 0.196876 -1.21056e-20)
(0.712275 0.175427 1.22535e-20)
(0.0525754 0.158958 -2.57552e-20)
(0.145558 0.295187 -4.97569e-20)
(0.250861 0.322841 1.15943e-20)
(0.341756 0.304105 -2.26754e-20)
(0.420849 0.273095 -1.36314e-20)
(0.490841 0.242926 3.322e-20)
(0.553094 0.216156 -8.03412e-21)
(0.608718 0.192557 7.36897e-21)
(0.658517 0.171563 -9.01585e-21)
(0.701761 0.152996 1.79541e-20)
(0.0419736 0.134245 9.46079e-21)
(0.126489 0.248887 3.36635e-20)
(0.230341 0.27208 -4.69399e-20)
(0.322599 0.256339 2.21534e-20)
(0.403812 0.230368 -1.01214e-20)
(0.47585 0.205131 -2.85047e-20)
(0.539906 0.182741 2.33239e-20)
(0.597064 0.163006 4.86295e-21)
(0.648119 0.145457 -7.47724e-22)
(0.692784 0.129887 -2.08737e-20)
(0.0332398 0.108442 3.13545e-21)
(0.110832 0.200927 1.09633e-20)
(0.213511 0.219741 4.2633e-20)
(0.306891 0.20722 -8.21436e-21)
(0.389835 0.186487 -6.47769e-21)
(0.463541 0.166342 2.37758e-21)
(0.529065 0.148464 1.108e-21)
(0.587469 0.132702 8.71769e-21)
(0.639546 0.118688 -1.14728e-20)
(0.685384 0.106215 -7.29209e-21)
(0.0264738 0.081773 -7.78959e-21)
(0.0987261 0.151655 -1.33348e-20)
(0.200497 0.166155 -3.33099e-20)
(0.294735 0.157029 1.67768e-20)
(0.379005 0.141692 1.3667e-20)
(0.453985 0.126764 5.82245e-22)
(0.520634 0.113502 -2.2863e-20)
(0.579989 0.101801 -1.01737e-20)
(0.632849 0.0913911 8.03553e-21)
(0.679594 0.0820946 8.61665e-21)
(0.0217515 0.0544733 1.36695e-21)
(0.090276 0.101428 -2.82107e-21)
(0.191394 0.111661 6.31522e-21)
(0.28621 0.106057 -4.27604e-21)
(0.371385 0.0962292 -3.79862e-21)
(0.44724 0.0866073 -2.57206e-21)
(0.514659 0.0780374 4.71654e-21)
(0.574669 0.0704587 1.7975e-20)
(0.628065 0.0637007 2.59743e-21)
(0.675437 0.0576325 -4.60432e-21)
(0.281367 0.0545985 -3.65198e-21)
(0.367021 0.0503481 3.47649e-21)
(0.443342 0.0460874 1.56816e-21)
(0.511174 0.0422555 -1.56138e-21)
(0.571535 0.0388368 -7.11835e-21)
(0.625214 0.0357603 2.3434e-21)
(0.672918 0.0329595 -2.19037e-21)
(1.33037 0.220748 -1.80593e-22)
(1.34056 0.209237 -1.76584e-21)
(1.35015 0.197572 -3.73575e-22)
(1.35915 0.185799 -1.04281e-21)
(1.36756 0.173965 6.00763e-21)
(1.37536 0.162111 -5.69256e-21)
(1.38254 0.150272 3.56103e-21)
(1.38901 0.138476 1.48309e-20)
(1.31494 0.207916 -4.57375e-23)
(1.32481 0.197539 1.5106e-21)
(1.33421 0.187016 1.30466e-21)
(1.34316 0.176378 -6.47084e-21)
(1.35167 0.16566 2.10146e-21)
(1.35975 0.154894 -1.30053e-21)
(1.36739 0.144111 3.60441e-21)
(1.37458 0.133339 -7.07398e-21)
(1.30031 0.194932 4.84935e-22)
(1.30952 0.185568 1.10821e-21)
(1.31841 0.176069 6.28983e-22)
(1.327 0.166462 3.20275e-21)
(1.33529 0.156772 4.27585e-21)
(1.34332 0.147022 6.23888e-21)
(1.35107 0.137233 -1.93897e-22)
(1.35856 0.12743 1.17243e-21)
(1.28688 0.182363 -1.6078e-22)
(1.29536 0.173861 -1.9077e-21)
(1.3036 0.165246 -1.77246e-21)
(1.31164 0.156538 1.29858e-21)
(1.31949 0.147752 -4.84048e-21)
(1.32717 0.138906 -1.12907e-20)
(1.33471 0.13001 5.00139e-21)
(1.3421 0.121079 6.13398e-22)
(1.27443 0.170278 2.18565e-23)
(1.28222 0.162535 9.49763e-22)
(1.28983 0.154687 2.40394e-21)
(1.29728 0.146749 9.34742e-22)
(1.30459 0.138733 -2.01686e-22)
(1.31179 0.130649 2.74702e-21)
(1.3189 0.122503 2.16479e-21)
(1.32594 0.114305 -2.41972e-21)
(1.26264 0.158595 1.9576e-24)
(1.26982 0.151533 1.02613e-21)
(1.27684 0.144369 -1.7578e-21)
(1.28373 0.137111 -1.32334e-21)
(1.29051 0.129769 8.47784e-22)
(1.29719 0.122349 1.86605e-21)
(1.30381 0.114856 -3.25252e-21)
(1.31038 0.107295 -1.58953e-21)
(1.25135 0.147321 1.00619e-22)
(1.25795 0.14087 -1.06689e-21)
(1.26442 0.134318 1.58871e-21)
(1.27078 0.127673 1.02314e-21)
(1.27705 0.120939 1.97326e-21)
(1.28323 0.114121 -8.13507e-22)
(1.28937 0.107224 -5.41041e-21)
(1.29545 0.100248 3.59017e-21)
(1.24043 0.13647 -2.38309e-22)
(1.24648 0.130565 -4.85398e-22)
(1.25243 0.124567 -5.30406e-22)
(1.25828 0.118477 -5.87944e-22)
(1.26406 0.1123 3.72252e-22)
(1.26978 0.106036 2.24693e-21)
(1.27544 0.0996906 5.97875e-21)
(1.28107 0.0932619 1.26451e-21)
(1.22985 0.126066 1.16148e-22)
(1.23537 0.120655 -4.14037e-23)
(1.24082 0.115156 -2.18555e-22)
(1.24619 0.109572 -1.00905e-21)
(1.25149 0.103903 -1.77797e-21)
(1.25674 0.0981502 -2.34444e-21)
(1.26196 0.0923151 -1.57652e-21)
(1.26713 0.0863954 -2.27619e-21)
(1.2195 0.116087 7.56755e-23)
(1.22455 0.111132 8.86522e-22)
(1.22952 0.106095 7.61171e-23)
(1.23442 0.100977 7.55897e-22)
(1.23928 0.0957789 4.91308e-23)
(1.24408 0.0904997 -3.38358e-21)
(1.24885 0.08514 -2.28319e-22)
(1.25359 0.0796975 1.96903e-21)
(1.20947 0.106551 -1.82071e-22)
(1.21404 0.102022 2.3707e-22)
(1.21855 0.097416 -2.52963e-22)
(1.22301 0.0927325 -4.91814e-22)
(1.22742 0.0879724 -7.30244e-22)
(1.23179 0.083135 2.27655e-21)
(1.23614 0.0782204 1.1045e-21)
(1.24045 0.0732268 -1.86058e-21)
(1.19967 0.0975181 5.912e-23)
(1.2038 0.0933744 -7.78403e-22)
(1.20788 0.0891602 4.23297e-22)
(1.21191 0.0848756 3.01051e-23)
(1.21591 0.0805205 8.02131e-22)
(1.21987 0.0760941 -8.46859e-22)
(1.22379 0.0715955 1.13198e-21)
(1.2277 0.0670233 1.4736e-21)
(1.19012 0.0889491 3.8375e-23)
(1.19384 0.0851668 3.17511e-22)
(1.19751 0.0813207 -7.65803e-22)
(1.20114 0.0774107 -1.41122e-22)
(1.20474 0.0734362 -8.60533e-22)
(1.2083 0.0693961 9.26121e-22)
(1.21184 0.0652896 -3.52639e-21)
(1.21536 0.0611152 -2.14297e-21)
(1.18081 0.0808722 -9.65537e-23)
(1.18415 0.0774267 1.04336e-22)
(1.18745 0.073924 6.34312e-22)
(1.1907 0.0703639 -3.58342e-22)
(1.19393 0.0667454 1.4117e-21)
(1.19713 0.0630677 -5.02485e-22)
(1.20029 0.0593299 7.02343e-22)
(1.20344 0.0555306 1.20787e-21)
(1.17177 0.0732764 9.48358e-23)
(1.17475 0.0701456 -3.70443e-23)
(1.1777 0.0669648 -5.24783e-22)
(1.18061 0.0637332 1.19269e-21)
(1.18349 0.0604496 -6.79593e-22)
(1.18634 0.0571133 5.83877e-22)
(1.18917 0.0537234 6.10353e-22)
(1.19197 0.0502788 2.44513e-22)
(1.16298 0.0661361 5.36965e-23)
(1.16565 0.0633048 8.86084e-23)
(1.16828 0.0604293 2.49448e-22)
(1.17087 0.0575087 -9.00554e-22)
(1.17344 0.0545422 -5.80099e-22)
(1.17597 0.0515293 1.07567e-22)
(1.17848 0.048469 -5.51676e-22)
(1.18096 0.0453605 6.33446e-22)
(1.18342 0.0422026 -2.43442e-21)
(1.15451 0.059458 -7.83259e-23)
(1.15688 0.0569105 -2.43615e-23)
(1.15922 0.054323 -1.03401e-24)
(1.16152 0.0516957 6.47068e-22)
(1.16379 0.0490281 4.31154e-22)
(1.16604 0.0463198 -2.82356e-22)
(1.16825 0.0435702 -5.21189e-22)
(1.17044 0.0407785 1.25855e-22)
(1.1726 0.0379439 3.74299e-22)
(1.14635 0.0532272 5.96219e-23)
(1.14845 0.0509438 -1.19939e-23)
(1.15052 0.0486262 2.24706e-22)
(1.15256 0.0462744 -2.18868e-22)
(1.15457 0.0438881 -3.32836e-23)
(1.15655 0.0414669 5.78964e-22)
(1.1585 0.0390103 2.44334e-22)
(1.16043 0.0365176 -7.40994e-22)
(1.16232 0.0339882 -3.37283e-22)
(1.13853 0.0474169 -6.06755e-23)
(1.1404 0.0453832 -7.65323e-23)
(1.14223 0.0433205 -4.20116e-23)
(1.14403 0.0412286 -3.41424e-23)
(1.1458 0.0391074 -3.66778e-22)
(1.14754 0.0369565 4.07725e-22)
(1.14926 0.0347755 -2.78786e-22)
(1.15094 0.0325641 -6.38587e-22)
(1.1526 0.0303218 9.19218e-22)
(1.13108 0.0420041 -3.06985e-23)
(1.13273 0.0402054 8.05272e-23)
(1.13435 0.0383823 -2.21005e-23)
(1.13594 0.0365348 -9.45806e-23)
(1.13751 0.0346626 1.13913e-22)
(1.13904 0.0327656 -2.80438e-22)
(1.14054 0.0308435 4.83426e-22)
(1.14201 0.028896 4.38216e-22)
(1.14345 0.0269229 -5.8647e-23)
(1.12403 0.0369589 4.65829e-23)
(1.12549 0.0353814 -5.225e-23)
(1.12693 0.0337836 -2.43252e-23)
(1.12833 0.0321654 -1.15927e-22)
(1.12971 0.030527 4.50334e-23)
(1.13106 0.0288681 1.15535e-22)
(1.13237 0.0271885 -4.25658e-23)
(1.13366 0.0254883 -5.25911e-22)
(1.13491 0.023767 3.72724e-22)
(1.11742 0.0322494 3.11004e-24)
(1.11872 0.0308797 -5.13299e-23)
(1.11999 0.0294933 -6.36758e-23)
(1.12124 0.0280904 4.13713e-23)
(1.12245 0.0266709 1.76452e-22)
(1.12363 0.0252348 -1.68759e-22)
(1.12478 0.0237821 -3.49986e-22)
(1.1259 0.0223126 4.06814e-22)
(1.12699 0.0208264 -5.95919e-22)
(1.11129 0.02784 -3.43385e-24)
(1.11245 0.0266653 -1.73688e-23)
(1.11358 0.0254772 7.70229e-23)
(1.11468 0.0242759 -2.26439e-23)
(1.11575 0.0230613 -1.61959e-22)
(1.11679 0.0218334 2.19648e-22)
(1.11781 0.0205923 -2.73442e-22)
(1.11878 0.019338 -1.58012e-22)
(1.11973 0.0180705 4.88765e-22)
(1.10568 0.0236939 -1.83734e-23)
(1.10672 0.0227023 4.53586e-23)
(1.10773 0.0217001 4.54463e-23)
(1.10871 0.0206874 -5.74816e-23)
(1.10966 0.0196643 -6.91088e-24)
(1.11059 0.0186309 -2.06066e-22)
(1.11148 0.0175871 -1.62471e-23)
(1.11234 0.016533 2.19599e-22)
(1.11316 0.0154686 -3.49452e-22)
(1.10064 0.0197704 8.88252e-26)
(1.10158 0.0189505 7.98129e-24)
(1.10249 0.0181226 7.69011e-25)
(1.10338 0.0172866 3.93663e-23)
(1.10423 0.0164427 2.08006e-22)
(1.10505 0.0155909 -1.55609e-22)
(1.10584 0.0147311 9.18948e-23)
(1.10659 0.0138636 -9.90114e-25)
(1.10732 0.0129883 -2.35235e-22)
(1.09624 0.0160222 1.23771e-23)
(1.09709 0.0153645 -2.94418e-23)
(1.09792 0.0147009 8.38632e-24)
(1.09872 0.0140313 -7.56271e-23)
(1.09949 0.0133557 2.93564e-23)
(1.10023 0.0126741 5.25949e-23)
(1.10093 0.0119867 1.25481e-22)
(1.10161 0.0112934 1.98276e-23)
(1.10225 0.0105944 -2.84953e-23)
(1.09253 0.0124072 1.10085e-23)
(1.09332 0.0119042 -5.59603e-24)
(1.09408 0.0113967 -2.18334e-23)
(1.09481 0.0108847 5.94157e-23)
(1.09552 0.0103684 -1.03524e-22)
(1.09619 0.00984776 7.86022e-23)
(1.09683 0.00932283 4.6009e-23)
(1.09743 0.00879365 -1.63048e-22)
(1.09801 0.00826026 -1.04985e-22)
(1.0896 0.00886519 1.24466e-24)
(1.09034 0.00850925 -2.71606e-23)
(1.09105 0.00815039 9.23201e-24)
(1.09173 0.00778863 -7.66007e-23)
(1.09238 0.00742398 8.13626e-23)
(1.093 0.00705644 1.24366e-23)
(1.09359 0.00668603 4.65845e-23)
(1.09414 0.00631275 -1.64168e-22)
(1.09467 0.00593663 2.72848e-22)
(1.08752 0.00536726 2.33484e-25)
(1.08822 0.005155 6.27944e-24)
(1.0889 0.00494092 8.11722e-24)
(1.08954 0.00472499 -2.94808e-23)
(1.09016 0.00450721 5.62659e-23)
(1.09075 0.00428756 -6.52257e-23)
(1.0913 0.00406604 7.58891e-23)
(1.09182 0.00384266 -2.94602e-23)
(1.09232 0.00361743 -6.83923e-23)
(1.08642 0.00177219 5.59994e-25)
(1.0871 0.00170456 -1.84497e-23)
(1.08775 0.0016366 3.97721e-23)
(1.08838 0.0015682 4.1297e-23)
(1.08897 0.00149929 -2.46207e-23)
(1.08954 0.00142976 4.3503e-23)
(1.09007 0.00135954 -4.53213e-23)
(1.09057 0.00128856 -1.2834e-23)
(1.09105 0.00121674 -2.58956e-23)
(1.00361 0.345538 1.34496e-21)
(1.02437 0.343994 -9.17825e-22)
(1.04313 0.343146 2.22771e-21)
(1.0621 0.342001 -3.58051e-22)
(1.0818 0.340239 -4.64626e-23)
(1.10137 0.337902 1.64573e-22)
(1.12042 0.334925 -1.15644e-21)
(1.13904 0.331199 -1.45064e-21)
(1.15725 0.326688 2.62513e-22)
(1.17497 0.321401 -5.11563e-21)
(1.19216 0.315358 -3.5059e-21)
(1.20878 0.30859 3.31437e-21)
(1.22482 0.301133 -7.18949e-21)
(1.24018 0.292998 -1.8111e-21)
(1.25517 0.284134 3.37552e-21)
(1.26977 0.274518 -4.39881e-21)
(1.28339 0.264395 7.01729e-22)
(1.29613 0.253916 3.29433e-22)
(1.30816 0.243128 1.62514e-21)
(1.31957 0.23206 2.68789e-22)
(1.01719 0.327514 -2.28472e-21)
(1.03769 0.325537 1.32049e-21)
(1.0561 0.324374 -2.45263e-21)
(1.07302 0.323138 -9.19879e-22)
(1.09039 0.321179 -7.95726e-23)
(1.10786 0.318515 -2.39796e-22)
(1.12484 0.315219 7.79824e-22)
(1.14134 0.311242 3.72497e-21)
(1.15749 0.306554 -4.53469e-21)
(1.17327 0.301184 3.14994e-21)
(1.18862 0.295181 -7.52601e-22)
(1.20351 0.288578 -3.68899e-21)
(1.21792 0.281429 2.84636e-21)
(1.2318 0.273725 -1.87015e-21)
(1.24507 0.265607 4.88445e-22)
(1.25799 0.256751 -1.1105e-21)
(1.2705 0.247444 4.62378e-21)
(1.28243 0.237884 -8.7478e-22)
(1.29377 0.228109 -1.36899e-21)
(1.3046 0.218115 1.77779e-23)
(1.03101 0.307898 -1.11629e-21)
(1.05014 0.306553 -1.84942e-21)
(1.06788 0.305262 6.5876e-22)
(1.08329 0.303748 6.17682e-22)
(1.09866 0.30152 2.16695e-22)
(1.11434 0.298531 4.90292e-23)
(1.12968 0.294935 1.1795e-21)
(1.14449 0.290773 3.14238e-21)
(1.15892 0.286028 6.14354e-21)
(1.17301 0.280714 -2.93924e-22)
(1.1867 0.274871 5.01158e-21)
(1.19997 0.268533 -7.56373e-22)
(1.21279 0.261727 -7.30336e-22)
(1.22517 0.254475 2.85424e-22)
(1.23699 0.246843 -4.45116e-21)
(1.24844 0.238832 -2.75422e-21)
(1.25969 0.230513 -1.99314e-21)
(1.27051 0.22194 -4.92713e-22)
(1.28084 0.21314 -1.08079e-21)
(1.29076 0.204131 -5.11659e-22)
(1.04384 0.289956 -1.78667e-21)
(1.0613 0.288721 2.14873e-21)
(1.07789 0.287067 -3.64719e-22)
(1.09194 0.285066 1.6994e-24)
(1.10554 0.282498 2.45289e-22)
(1.1195 0.279275 -1.12897e-21)
(1.13332 0.27551 -1.03421e-21)
(1.14665 0.271285 -5.44796e-21)
(1.15957 0.266598 -1.83657e-21)
(1.17216 0.261446 5.28749e-21)
(1.18442 0.255855 -2.68099e-21)
(1.1963 0.249859 4.44504e-21)
(1.20778 0.243482 -3.15099e-22)
(1.21886 0.236756 -2.62395e-21)
(1.22949 0.229689 6.83592e-21)
(1.2398 0.222367 2.86323e-21)
(1.24995 0.214801 -8.12443e-22)
(1.25973 0.206979 1.09391e-21)
(1.26911 0.198944 1.71919e-21)
(1.27814 0.190731 1.96397e-22)
(1.05545 0.272758 2.90614e-21)
(1.0712 0.271263 -1.50272e-21)
(1.08641 0.2692 4.41375e-22)
(1.09921 0.266774 1.32641e-22)
(1.11128 0.263937 -2.41669e-22)
(1.12367 0.260593 4.81354e-22)
(1.13605 0.256784 -8.16563e-22)
(1.14802 0.252589 2.79681e-21)
(1.15958 0.248025 -4.24444e-21)
(1.17083 0.243086 -6.24951e-21)
(1.18179 0.237787 -1.13329e-22)
(1.19243 0.232157 -1.82565e-21)
(1.20273 0.226219 9.78128e-22)
(1.21268 0.220011 -1.05114e-21)
(1.22225 0.213538 -2.01646e-21)
(1.23157 0.206902 9.87248e-23)
(1.24075 0.199952 -5.73839e-22)
(1.24962 0.19276 -1.88168e-21)
(1.25816 0.185401 -6.69685e-22)
(1.26642 0.177904 -7.95685e-23)
(1.06579 0.25578 -7.63237e-23)
(1.07985 0.254011 8.73081e-22)
(1.09358 0.251669 2.01852e-22)
(1.10517 0.248978 -3.44511e-22)
(1.11593 0.245985 1.97977e-23)
(1.12689 0.242608 -4.00028e-22)
(1.13792 0.238842 2.10666e-21)
(1.14864 0.234742 1.70192e-21)
(1.15898 0.230339 3.62864e-21)
(1.16902 0.225635 2.07875e-21)
(1.17882 0.220636 1.47798e-21)
(1.18835 0.215364 -1.01109e-22)
(1.19761 0.20984 5.37279e-22)
(1.20658 0.204094 2.11838e-21)
(1.21531 0.198136 -1.70166e-21)
(1.22367 0.192026 -4.87591e-22)
(1.2318 0.185654 1.28632e-21)
(1.23984 0.179087 1.44845e-21)
(1.24768 0.172378 -1.02925e-21)
(1.25527 0.165546 3.90059e-23)
(1.07483 0.239062 -1.21511e-21)
(1.0873 0.237095 -6.82946e-22)
(1.09953 0.234601 6.67966e-23)
(1.10994 0.231775 -2.86232e-22)
(1.11953 0.228712 9.76416e-22)
(1.12923 0.225358 2.31565e-21)
(1.13902 0.221685 1.68221e-21)
(1.14859 0.217724 -4.78007e-21)
(1.15782 0.21351 -1.33519e-21)
(1.16678 0.209052 -1.78903e-22)
(1.17553 0.204355 4.41297e-22)
(1.18406 0.19943 -9.20337e-22)
(1.19236 0.194296 -1.44823e-21)
(1.20043 0.188965 2.88665e-21)
(1.20827 0.183452 6.08309e-22)
(1.21584 0.177751 -1.18273e-21)
(1.22323 0.171937 -1.09024e-21)
(1.23053 0.165986 4.69886e-22)
(1.23767 0.159892 1.07855e-21)
(1.2446 0.153666 -1.44165e-22)
(1.08255 0.222764 9.74299e-22)
(1.09355 0.220663 4.39489e-23)