/*--------------------------------*- C++ -*----------------------------------*\
  =========                 |
  \\      /  F ield         | OpenFOAM: The Open Source CFD Toolbox
   \\    /   O peration     | Website:  https://openfoam.org
    \\  /    A nd           | Version:  7
     \\/     M anipulation  |
\*---------------------------------------------------------------------------*/
FoamFile
{
    version     2.0;
    format      ascii;
    class       volVectorField;
    location    "305";
    object      U;
}
// * * * * * * * * * * * * * * * * * * * * * * * * * * * * * * * * * * * * * //

dimensions      [0 1 -1 0 0 0 0];

internalField   nonuniform List<vector> 
2125
(
(-0.0120663 0.0101538 -1.03109e-19)
(-0.00948716 0.00769813 3.72342e-20)
(0.014757 0.00632645 4.0072e-20)
(-0.00622433 0.00526594 -2.51549e-20)
(0.0291305 9.19939e-05 -1.87513e-20)
(-0.00211732 0.00284252 5.23345e-20)
(0.0463424 -0.0057793 -1.47074e-20)
(0.152434 -0.0137801 -8.72806e-21)
(0.00299518 0.000432708 -1.93195e-20)
(0.0666723 -0.011156 -1.14469e-19)
(0.193027 -0.0184897 1.19934e-20)
(0.378399 -0.0198651 4.1356e-20)
(0.00926491 -0.00193219 -2.10337e-20)
(0.0903417 -0.0158648 4.06954e-20)
(0.238705 -0.0213919 5.29651e-20)
(0.44691 -0.0175155 -3.81934e-20)
(0.692804 -0.00144906 1.41672e-20)
(0.934016 0.0222211 -8.67898e-20)
(0.0168254 -0.00419169 -2.70434e-20)
(0.117494 -0.0196835 -9.03014e-21)
(0.289234 -0.0221312 -9.57567e-20)
(0.519335 -0.0118031 -1.49889e-20)
(0.77621 0.0116191 -1.69596e-21)
(1.0115 0.0402467 5.12283e-21)
(1.18773 0.0644314 9.15435e-21)
(0.0257854 -0.00625672 -6.99663e-21)
(0.148178 -0.0223431 3.32052e-20)
(0.344171 -0.0203447 4.67441e-20)
(0.594238 -0.00256221 2.92435e-20)
(0.857076 0.0279189 -8.74715e-21)
(1.08154 0.0602626 -7.10131e-21)
(1.23739 0.0847503 7.05206e-20)
(1.32407 0.0977769 9.10691e-21)
(0.036223 -0.00801286 6.69154e-20)
(0.182335 -0.0235372 4.35759e-20)
(0.402858 -0.0156886 -4.41416e-20)
(0.670044 0.0102449 -8.79035e-21)
(0.933691 0.0470978 4.50667e-21)
(1.14348 0.0818394 -1.65901e-20)
(1.27818 0.10554 -3.59825e-20)
(1.34564 0.116518 -6.07799e-21)
(1.3665 0.117972 5.15546e-22)
(1.36192 0.109924 1.42806e-20)
(0.0481808 -0.0093253 8.04797e-21)
(0.219782 -0.0229376 -2.36914e-20)
(0.46444 -0.00787084 5.60633e-20)
(0.745158 0.0265349 3.65573e-20)
(1.00474 0.0687731 9.78834e-22)
(1.19709 0.104604 2.58853e-20)
(1.31084 0.126587 3.86953e-21)
(1.36102 0.135043 -2.6979e-20)
(1.37078 0.133907 2.25993e-20)
(1.36052 0.124936 -1.63659e-23)
(0.0616617 -0.0100447 -5.47745e-20)
(0.260215 -0.0202141 -1.61796e-20)
(0.527908 0.00332029 -1.47098e-20)
(0.818088 0.0461239 -2.55478e-20)
(1.0693 0.0925622 5.87796e-21)
(1.24251 0.128245 1.35424e-22)
(1.33621 0.147743 1.96632e-20)
(1.37121 0.153346 -3.12694e-21)
(1.37195 0.149618 -2.32519e-20)
(1.35739 0.139707 -2.14213e-20)
(0.0766254 -0.0100135 4.41596e-21)
(0.303202 -0.0150569 2.60509e-20)
(0.59215 0.0179965 1.25826e-20)
(0.887526 0.0687539 -3.9466e-20)
(1.12685 0.1181 -2.0357e-21)
(1.28013 0.152504 -1.68787e-20)
(1.35513 0.168906 4.39574e-22)
(1.37707 0.171441 7.94323e-21)
(1.37062 0.165161 -8.71927e-21)
(1.35285 0.154295 2.41975e-20)
(0.0929857 -0.00907271 1.02935e-20)
(0.348197 -0.00719762 -2.53767e-20)
(0.656013 0.0361634 -6.00114e-20)
(0.952401 0.0941178 5.53035e-20)
(1.17712 0.145048 -4.13499e-21)
(1.31044 0.177171 1.2245e-20)
(1.36841 0.19001 -1.6682e-21)
(1.37932 0.189351 1.16684e-20)
(1.36725 0.180581 -8.86291e-22)
(1.34715 0.168734 -1.87399e-20)
(0.11061 -0.00706857 -2.09007e-20)
(0.394555 0.00357191 3.28783e-20)
(0.718372 0.0577254 2.72707e-20)
(1.01189 0.121879 -3.92676e-20)
(1.22011 0.173096 -6.47052e-21)
(1.33403 0.202076 2.49081e-21)
(1.3768 0.211007 2.47854e-20)
(1.37854 0.207092 1.2539e-21)
(1.36217 0.195904 4.79967e-21)
(1.3404 0.183034 -1.03459e-20)
(0.12932 -0.00385976 1.5851e-20)
(0.441558 0.0173852 -1.43058e-20)
(0.778183 0.082498 -1.21374e-20)
(1.06541 0.151687 2.08716e-20)
(1.25598 0.201961 7.22937e-21)
(1.35149 0.227076 5.44327e-21)
(1.38091 0.231861 -2.52029e-20)
(1.3752 0.224675 -8.61904e-21)
(1.35562 0.211138 -7.71792e-21)
(1.33271 0.197188 3.40151e-21)
(0.148894 0.000675734 -7.8317e-21)
(0.488444 0.0342927 -1.83498e-22)
(0.834516 0.110223 2.29551e-20)
(1.11257 0.183186 -8.44563e-21)
(1.28499 0.231383 -3.70532e-21)
(1.36339 0.252048 -2.44586e-21)
(1.38131 0.252537 6.0829e-21)
(1.36962 0.242096 1.05162e-20)
(1.34774 0.226271 -3.31563e-22)
(1.3241 0.211169 3.83021e-21)
(0.169074 0.00663414 5.51103e-21)
(0.534437 0.0542581 -1.54696e-21)
(0.886586 0.140582 -4.09627e-21)
(1.15319 0.216018 -3.71002e-21)
(1.30748 0.261123 3.34432e-21)
(1.37027 0.27688 2.60867e-21)
(1.37842 0.272993 -2.40743e-21)
(1.36209 0.259333 8.76152e-22)
(1.33863 0.241271 1.2296e-21)
(1.31462 0.224935 -1.6334e-21)
(0.189572 0.0140804 2.92506e-21)
(0.578778 0.0771606 8.38374e-22)
(0.933756 0.173217 -5.02907e-21)
(1.1872 0.249833 -4.01435e-21)
(1.32383 0.290958 4.18942e-21)
(1.37261 0.301464 8.19121e-22)
(1.37263 0.29318 -1.92341e-21)
(1.35277 0.276351 1.81101e-21)
(1.32836 0.25609 1.01393e-21)
(1.30426 0.238435 -1.16882e-21)
(0.210076 0.0230437 -1.15204e-21)
(0.620749 0.1028 2.34062e-21)
(0.975536 0.207732 1.54293e-20)
(1.21464 0.284285 -6.84503e-21)
(1.33442 0.320674 -3.38315e-21)
(1.37082 0.325694 -3.81726e-21)
(1.36422 0.313036 7.83453e-21)
(1.34182 0.293094 5.27071e-21)
(1.31695 0.270659 4.22928e-21)
(1.29306 0.251606 2.31007e-21)
(0.230263 0.0335151 2.32781e-20)
(0.659699 0.130907 -1.2844e-20)
(1.01158 0.243714 -1.46985e-20)
(1.23565 0.319035 1.99359e-20)
(1.33963 0.350068 1.04965e-20)
(1.36529 0.34946 -7.05892e-22)
(1.35341 0.332488 -1.3071e-20)
(1.32931 0.309491 -9.46625e-21)
(1.30444 0.28489 -9.93354e-21)
(1.28103 0.264379 5.94066e-21)
(0.249804 0.0454463 -3.14389e-20)
(0.695052 0.16115 2.96128e-20)
(1.04165 0.280734 3.40268e-20)
(1.25042 0.353755 -3.36067e-20)
(1.33984 0.37894 -1.16859e-20)
(1.35634 0.372647 7.52453e-21)
(1.3404 0.351451 1.37604e-20)
(1.31531 0.325457 2.18217e-21)
(1.2908 0.298678 -4.03491e-22)
(1.26811 0.276665 -8.1503e-21)
(0.268377 0.0587502 -4.45892e-21)
(0.726325 0.193149 -4.14927e-20)
(1.06564 0.318358 -4.44742e-20)
(1.25919 0.388123 4.99424e-20)
(1.33538 0.407094 -5.67555e-21)
(1.34423 0.395134 1.0504e-20)
(1.32534 0.369834 2.09933e-21)
(1.29988 0.340909 -5.91278e-21)
(1.27604 0.311939 3.17653e-21)
(1.25411 0.288393 -4.75512e-22)
(0.285675 0.0733033 9.09498e-21)
(0.753129 0.226485 2.56074e-20)
(1.08353 0.356148 1.45708e-20)
(1.26223 0.42183 -1.14695e-20)
(1.3266 0.434337 -1.78222e-20)
(1.32923 0.41679 -1.67687e-20)
(1.30835 0.387529 -3.41958e-21)
(1.28307 0.355759 9.19839e-21)
(1.26018 0.324665 -1.94848e-21)
(1.23885 0.299566 4.5228e-21)
(0.301411 0.0889483 -3.41734e-20)
(0.775176 0.260715 -3.20288e-20)
(1.09537 0.393674 -5.0469e-21)
(1.25984 0.454574 -5.72486e-21)
(1.31382 0.460476 -1.31223e-20)
(1.31154 0.437481 8.13096e-21)
(1.28954 0.404412 -1.467e-21)
(1.26494 0.369888 -8.10829e-21)
(1.24331 0.336884 7.36567e-21)
(1.22254 0.310245 -1.0931e-20)
(0.315331 0.105497 8.24398e-21)
(0.792271 0.295381 2.71076e-20)
(1.10129 0.430513 2.35717e-20)
(1.2523 0.486065 2.57144e-20)
(1.29732 0.485323 5.0988e-22)
(1.29135 0.457067 2.2904e-20)
(1.269 0.420354 1.59099e-21)
(1.24552 0.383135 -2.7754e-20)
(1.2253 0.348418 2.01497e-20)
(1.2056 0.320091 7.4997e-21)
(0.327215 0.122738 2.20585e-20)
(0.80431 0.330023 4.93016e-20)
(1.10147 0.466257 -6.57029e-21)
(1.23995 0.516023 -3.23353e-20)
(1.27739 0.508693 1.46907e-20)
(1.26885 0.475406 -1.54626e-20)
(1.24684 0.435237 -2.10304e-20)
(1.22489 0.395464 -2.01615e-21)
(1.20612 0.359059 -1.69722e-20)
(1.18803 0.329148 6.7168e-21)
(0.336883 0.140436 1.03163e-20)
(0.811265 0.364184 7.59056e-21)
(1.09614 0.500514 6.15975e-20)
(1.22311 0.544181 1.16737e-20)
(1.2543 0.530403 -1.02695e-20)
(1.24421 0.492347 -5.33258e-21)
(1.2232 0.448917 3.24396e-20)
(1.20308 0.406763 2.71722e-20)
(1.18593 0.368738 1.37717e-20)
(1.16969 0.337242 -1.96018e-21)
(0.344196 0.158348 2.18931e-21)
(0.813186 0.397419 -5.03026e-20)
(1.08558 0.532912 -7.23942e-20)
(1.20212 0.570289 2.34922e-21)
(1.22831 0.55027 1.46889e-20)
(1.21763 0.507737 -2.0398e-20)
(1.19816 0.461273 -4.79824e-20)
(1.18011 0.416913 -1.46159e-20)
(1.16482 0.377352 -9.19727e-22)
(1.1506 0.344326 7.85276e-21)
(0.34906 0.176219 -1.78762e-20)
(0.810198 0.429299 4.51398e-20)
(1.07014 0.563109 4.35133e-20)
(1.17731 0.594109 -4.0634e-20)
(1.19966 0.568114 6.18409e-21)
(1.18926 0.521427 5.02735e-20)
(1.1718 0.472174 -1.18749e-20)
(1.15609 0.425802 9.99033e-21)
(1.14284 0.384808 -5.34984e-21)
(1.13082 0.350321 -7.30493e-21)
(0.351425 0.193794 -4.01987e-20)
(0.802507 0.459411 -7.12148e-20)
(1.05019 0.590808 -1.40446e-20)
(1.1489 0.61539 2.322e-20)
(1.16863 0.583773 2.34648e-20)
(1.15927 0.533264 -5.04614e-20)
(1.14425 0.4815 2.84979e-20)
(1.13111 0.433323 -1.61618e-20)
(1.12007 0.391012 1.38141e-20)
(1.11041 0.35517 1.44706e-22)
(0.351299 0.210815 3.0649e-20)
(0.790397 0.487366 2.11087e-21)
(1.026 0.61574 -6.84543e-21)
(1.1172 0.633933 -2.91294e-20)
(1.13549 0.597041 1.96793e-20)
(1.12784 0.543124 3.8678e-21)
(1.11564 0.489133 -1.72798e-20)
(1.10528 0.439375 2.28583e-21)
(1.09657 0.39587 -4.31748e-21)
(1.08948 0.3588 3.29835e-21)
(0.348743 0.227024 -8.44443e-21)
(0.774176 0.512859 -1.19631e-20)
(0.997659 0.637507 3.04595e-20)
(1.08275 0.649632 1.4322e-20)
(1.10054 0.607767 -2.00834e-20)
(1.09517 0.550871 3.05554e-20)
(1.0861 0.494965 1.81801e-21)
(1.0787 0.443864 1.66304e-21)
(1.07246 0.399286 -3.01907e-21)
(1.06811 0.36112 -2.91737e-22)
(0.343834 0.242134 5.49437e-20)
(0.754036 0.535699 4.25598e-20)
(0.965593 0.655865 -2.66781e-21)
(1.04597 0.662181 -7.0249e-21)
(1.06402 0.61589 -8.37148e-21)
(1.06143 0.556404 -4.32965e-21)
(1.05579 0.498898 1.42623e-21)
(1.05148 0.446711 2.49197e-21)
(1.04782 0.401166 3.35645e-21)
(1.04637 0.362033 -4.6784e-22)
(0.336624 0.255833 4.88608e-21)
(0.730133 0.555461 7.5905e-21)
(0.930566 0.67083 -4.07898e-20)
(1.00715 0.671408 1.8699e-20)
(1.02618 0.621272 6.75682e-21)
(1.02681 0.55962 -1.59235e-20)
(1.02485 0.500846 5.05542e-21)
(1.02375 0.447844 1.09649e-21)
(1.02278 0.401448 -2.09264e-21)
(1.0245 0.361492 1.13326e-21)
(0.327196 0.2679 -2.07942e-20)
(0.702813 0.571716 -1.54816e-20)
(0.892989 0.682141 1.38686e-20)
(0.966606 0.677276 4.53857e-21)
(0.987275 0.623815 -7.09026e-21)
(0.991524 0.56043 7.70967e-21)
(0.993407 0.50072 1.22691e-21)
(0.99559 0.447176 -2.06377e-21)
(0.997618 0.400064 1.15217e-20)
(1.00322 0.359548 5.49719e-21)
(0.315772 0.27819 -1.63777e-20)
(0.672606 0.584303 4.28967e-20)
(0.853206 0.689586 -2.83134e-20)
(0.924675 0.679697 -3.50577e-21)
(0.947575 0.623438 -6.48122e-21)
(0.955741 0.558757 2.80753e-21)
(0.961581 0.498441 -3.86765e-21)
(0.96713 0.444569 2.22393e-21)
(0.972748 0.396811 1.09956e-21)
(0.983297 0.356238 -1.9257e-21)
(0.302552 0.286581 -7.99818e-22)
(0.639946 0.593075 -1.2597e-20)
(0.811622 0.693013 8.12418e-21)
(0.881704 0.678596 -5.34366e-21)
(0.90734 0.620087 1.3509e-21)
(0.919651 0.554558 3.34569e-21)
(0.929495 0.493969 9.22634e-21)
(0.938561 0.439925 -7.94657e-21)
(0.948541 0.391284 -1.55034e-20)
(0.964004 0.350819 7.58351e-21)
(0.287718 0.292905 1.04695e-21)
(0.605272 0.597903 -1.19637e-21)
(0.76866 0.692336 7.41944e-22)
(0.838041 0.673918 1.33111e-21)
(0.866834 0.613723 -6.47474e-21)
(0.88345 0.54781 -1.38992e-20)
(0.897341 0.487315 -3.86097e-21)
(0.910163 0.433387 -2.00687e-21)
(0.924951 0.383705 2.30455e-20)
(0.942221 0.339349 -4.24957e-21)
(0.2715 0.29703 -4.39767e-21)
(0.569015 0.598689 -5.01951e-21)
(0.724746 0.687509 1.79745e-21)
(0.794032 0.665634 1.26635e-21)
(0.826323 0.604328 -7.11135e-21)
(0.847361 0.538492 2.85245e-20)
(0.865388 0.478452 -2.10835e-20)
(0.882165 0.425058 2.54042e-20)
(0.900791 0.376146 -1.77301e-20)
(0.917691 0.33332 -2.40805e-20)
(0.254143 0.298854 1.06894e-21)
(0.531605 0.595368 -2.38694e-21)
(0.6803 0.678521 1.09037e-21)
(0.75002 0.653743 1.09436e-20)
(0.786072 0.591898 -5.37696e-21)
(0.81161 0.52659 8.01809e-21)
(0.833849 0.467327 1.21489e-20)
(0.854603 0.414633 -6.42544e-21)
(0.876553 0.36627 -1.82008e-20)
(0.894457 0.323701 2.48076e-20)
(0.235904 0.298305 8.31568e-21)
(0.49347 0.587913 1.06236e-20)
(0.635736 0.665389 -1.10311e-20)
(0.706343 0.638271 -9.49265e-21)
(0.746347 0.576455 3.69642e-20)
(0.776418 0.512123 -3.78308e-20)
(0.802869 0.453999 4.61758e-20)
(0.827474 0.402366 -1.13968e-20)
(0.852428 0.355134 1.22737e-20)
(0.872031 0.313786 2.35194e-20)
(0.217042 0.295341 -2.63651e-21)
(0.455037 0.576336 -1.1139e-20)
(0.591459 0.648165 -7.96455e-21)
(0.663329 0.619267 -3.94563e-21)
(0.707411 0.558037 5.49078e-21)
(0.742006 0.495118 -1.05687e-20)
(0.772624 0.438475 -1.37312e-20)
(0.800946 0.388186 -3.08303e-20)
(0.828781 0.342332 3.07246e-20)
(0.850513 0.302408 -9.65712e-21)
(0.197819 0.289944 2.36083e-20)
(0.416722 0.560686 -3.23133e-21)
(0.547861 0.626928 -1.12113e-20)
(0.621299 0.596806 1.38772e-20)
(0.66952 0.536705 -2.45481e-20)
(0.708583 0.475627 6.70449e-20)
(0.743277 0.42081 -3.5821e-20)
(0.775185 0.372184 3.25025e-20)
(0.805833 0.32802 -5.95075e-20)
(0.829914 0.289708 -1.58524e-20)
(0.178495 0.282129 -6.73274e-21)
(0.378932 0.541046 2.50874e-20)
(0.505324 0.601787 5.65842e-21)
(0.580564 0.570987 -1.3083e-20)
(0.632925 0.51254 -2.26739e-20)
(0.676355 0.453715 -4.59899e-22)
(0.715003 0.401058 1.19384e-20)
(0.750357 0.354393 -2.95456e-20)
(0.783744 0.312177 1.43282e-20)
(0.810273 0.275621 1.86829e-21)
(0.159327 0.271934 -4.21214e-20)
(0.342062 0.517534 -1.02301e-20)
(0.46421 0.572879 -2.94554e-21)
(0.541419 0.541933 3.43804e-20)
(0.597866 0.485642 -3.21212e-20)
(0.645522 0.429466 -8.14237e-21)
(0.68797 0.379295 -5.08262e-21)
(0.726621 0.334878 9.21614e-21)
(0.762653 0.294846 -1.18725e-20)
(0.791655 0.260186 -1.84101e-20)
(0.140564 0.259424 3.79193e-20)
(0.306488 0.490303 -2.16562e-20)
(0.424867 0.540368 9.46917e-22)
(0.504149 0.509787 -5.24374e-20)
(0.564572 0.45613 5.69016e-20)
(0.616276 0.402981 -1.79612e-20)
(0.662344 0.355606 1.07394e-20)
(0.704125 0.313709 9.345e-21)
(0.742682 0.276074 2.70709e-20)
(0.774131 0.243453 -1.12457e-20)
(0.122447 0.244689 -1.53697e-20)
(0.272567 0.459533 4.50885e-20)
(0.387621 0.504445 2.54439e-20)
(0.469021 0.474715 4.18258e-20)
(0.533261 0.424143 -9.58349e-21)
(0.588798 0.374377 3.91385e-21)
(0.638282 0.330091 3.12808e-20)
(0.683005 0.290967 7.03208e-21)
(0.723948 0.255926 6.81276e-22)
(0.757776 0.225491 -1.3494e-20)
(0.105206 0.227842 -3.60889e-20)
(0.240635 0.425435 -2.59445e-21)
(0.352779 0.465325 -1.50402e-20)
(0.436285 0.436902 -6.76393e-20)
(0.504139 0.389837 -6.53359e-20)
(0.563263 0.343785 1.08727e-20)
(0.615933 0.302863 -2.67723e-20)
(0.663392 0.266749 1.71703e-20)
(0.706557 0.234483 9.29975e-21)
(0.742664 0.206382 1.92573e-20)
(0.0890532 0.209019 5.34215e-20)
(0.211004 0.388248 -4.36996e-20)
(0.320624 0.423245 -2.22104e-20)
(0.406174 0.396554 3.91594e-20)
(0.477396 0.353381 4.46132e-20)
(0.539831 0.311351 -1.48561e-20)
(0.595433 0.274049 -1.96287e-21)
(0.645404 0.241159 -5.33419e-20)
(0.690614 0.211836 -3.01227e-20)
(0.728867 0.186218 1.14958e-20)
(0.0741891 0.188375 -3.04534e-20)
(0.18396 0.348233 1.28139e-20)
(0.291415 0.378463 4.72005e-20)
(0.378899 0.353891 -2.12541e-20)
(0.453206 0.314964 1.72809e-21)
(0.518649 0.277234 5.97785e-20)
(0.576909 0.243783 2.70563e-21)
(0.629151 0.214314 5.1262e-20)
(0.676213 0.188087 2.13391e-20)
(0.716452 0.165097 -3.39214e-20)
(0.0607942 0.166084 4.24365e-20)
(0.159761 0.305675 4.74269e-21)
(0.265385 0.331257 3.10574e-21)
(0.354653 0.309152 4.31569e-20)
(0.431729 0.274786 -5.71542e-21)
(0.499853 0.241607 -3.75654e-20)
(0.560478 0.212215 1.83768e-20)
(0.614734 0.186341 -2.93898e-20)
(0.66344 0.163346 -1.22473e-20)
(0.705479 0.143124 1.23607e-20)
(0.0490299 0.142335 -2.64535e-20)
(0.138636 0.260878 -5.08845e-20)
(0.242741 0.281919 1.17803e-20)
(0.333605 0.262589 -2.30282e-20)
(0.413105 0.23306 -1.38581e-20)
(0.483562 0.20465 3.36277e-20)
(0.546241 0.179502 -8.13158e-21)
(0.602243 0.157376 7.4611e-21)
(0.652376 0.137734 -9.09683e-21)
(0.696004 0.120406 1.8091e-20)
(0.0390365 0.117334 9.62257e-21)
(0.120783 0.214164 3.43234e-20)
(0.223662 0.230759 -4.76965e-20)
(0.315902 0.214465 2.25006e-20)
(0.397454 0.190009 -1.02559e-20)
(0.469878 0.166557 -2.88309e-20)
(0.534288 0.145807 2.35413e-20)
(0.591756 0.12756 4.91026e-21)
(0.643088 0.111376 -7.58822e-22)
(0.688073 0.0970576 -2.10267e-20)
(0.0309327 0.0912974 3.16111e-21)
(0.106368 0.16587 1.10944e-20)
(0.208296 0.178098 4.32111e-20)
(0.301668 0.165057 -8.29248e-21)
(0.384881 0.145867 -6.53244e-21)
(0.45889 0.127526 2.40676e-21)
(0.524692 0.111305 1.09465e-21)
(0.58334 0.0970444 8.78701e-21)
(0.635636 0.0844046 -1.15488e-20)
(0.681727 0.0731949 -7.33805e-21)
(0.0248134 0.0644522 -7.88771e-21)
(0.0955249 0.116346 -1.35016e-20)
(0.196764 0.124268 -3.36458e-20)
(0.291001 0.114648 1.69279e-20)
(0.375466 0.100874 1.37903e-20)
(0.450667 0.087765 5.86856e-22)
(0.517516 0.0761722 -2.30229e-20)
(0.577049 0.0659814 -1.0229e-20)
(0.630068 0.0569527 8.08733e-21)
(0.677 0.0489286 8.66242e-21)
(0.0207501 0.0370337 1.37406e-21)
(0.0883524 0.0659478 -2.83396e-21)
(0.189155 0.0696091 6.38719e-21)
(0.283974 0.0635276 -4.32192e-21)
(0.369271 0.055277 -3.81748e-21)
(0.445261 0.0474848 -2.58659e-21)
(0.512804 0.040592 4.74354e-21)
(0.572922 0.0345294 1.80688e-20)
(0.626418 0.0291562 2.61287e-21)
(0.673908 0.0243622 -4.62912e-21)
(0.280637 0.0119922 -3.67157e-21)
(0.366337 0.00932657 3.49413e-21)
(0.442707 0.00690116 1.57583e-21)
(0.510585 0.00475074 -1.56916e-21)
(0.570985 0.00285297 -7.1489e-21)
(0.624704 0.00117026 2.35313e-21)
(0.672447 -0.000329812 -2.1996e-21)
(1.29554 0.209302 -1.90105e-22)
(1.30465 0.19788 -1.86133e-21)
(1.31309 0.186181 -3.8903e-22)
(1.32085 0.174233 -1.11735e-21)
(1.32791 0.162058 6.37888e-21)
(1.33425 0.149669 -6.04804e-21)
(1.33982 0.137072 3.81982e-21)
(1.34453 0.124256 1.57328e-20)
(1.27977 0.197717 -4.75417e-23)
(1.2885 0.187501 1.59271e-21)
(1.29667 0.177032 1.37921e-21)
(1.30429 0.166325 -6.81532e-21)
(1.31135 0.155392 2.21959e-21)
(1.31785 0.144242 -1.37255e-21)
(1.32376 0.132877 3.81663e-21)
(1.32904 0.121293 -7.4579e-21)
(1.26491 0.18609 5.09488e-22)
(1.27293 0.176978 1.16146e-21)
(1.28052 0.16764 6.62375e-22)
(1.28771 0.15809 3.36237e-21)
(1.29448 0.148339 4.46497e-21)
(1.30085 0.13839 6.49799e-21)
(1.30678 0.128243 -1.89693e-22)
(1.31227 0.117898 1.22509e-21)
(1.25136 0.175002 -1.68696e-22)
(1.2586 0.166851 -1.99527e-21)
(1.26552 0.158518 -1.84529e-21)
(1.27212 0.150013 1.34823e-21)
(1.27841 0.141339 -5.04488e-21)
(1.28439 0.132501 -1.17271e-20)
(1.29008 0.123493 5.17193e-21)
(1.29546 0.114313 6.27362e-22)
(1.23895 0.164511 2.27037e-23)
(1.24551 0.157228 9.90781e-22)
(1.25178 0.149789 2.49997e-21)
(1.25778 0.142202 9.55824e-22)
(1.26352 0.134471 -2.02162e-22)
(1.26902 0.126596 2.85457e-21)
(1.27429 0.118574 2.18692e-21)
(1.27933 0.110402 -2.47454e-21)
(1.2274 0.154524 1.77969e-24)
(1.23335 0.14803 1.05932e-21)
(1.23905 0.141399 -1.81309e-21)
(1.2445 0.134635 -1.37293e-21)
(1.24974 0.127742 8.73503e-22)
(1.25475 0.12072 1.90994e-21)
(1.25957 0.113566 -3.34122e-21)
(1.26418 0.106276 -1.59461e-21)
(1.21655 0.144976 1.03366e-22)
(1.22195 0.139201 -1.10137e-21)
(1.22714 0.133306 1.63191e-21)
(1.23211 0.127295 1.03635e-21)
(1.23689 0.121169 2.00375e-21)
(1.24146 0.114927 -8.28345e-22)
(1.24585 0.10857 -5.45042e-21)
(1.25006 0.10209 3.61325e-21)
(1.20627 0.135897 -2.44745e-22)
(1.21118 0.130766 -4.93893e-22)
(1.2159 0.125535 -5.41624e-22)
(1.22045 0.120206 -6.08885e-22)
(1.22481 0.11478 3.59935e-22)
(1.229 0.109254 2.24786e-21)
(1.23303 0.10363 5.99048e-21)
(1.23689 0.0979033 1.2433e-21)
(1.19651 0.127218 1.18538e-22)
(1.20097 0.122677 -3.71058e-23)
(1.20528 0.118053 -2.19882e-22)
(1.20943 0.113348 -1.01923e-21)
(1.21343 0.108561 -1.78907e-21)
(1.21728 0.103692 -2.34971e-21)
(1.22098 0.098741 -1.56904e-21)
(1.22453 0.0937035 -2.25329e-21)
(1.18723 0.118953 7.58521e-23)
(1.1913 0.114942 8.9511e-22)
(1.19522 0.110865 7.62018e-23)
(1.19902 0.106722 7.51788e-22)
(1.20268 0.102513 4.86337e-23)
(1.20622 0.0982383 -3.33155e-21)
(1.20962 0.0938966 -2.21743e-22)
(1.2129 0.0894849 1.9199e-21)
(1.17839 0.111059 -1.829e-22)
(1.1821 0.107531 2.34783e-22)
(1.18568 0.103949 -2.51219e-22)
(1.18916 0.100315 -4.88912e-22)
(1.19252 0.096629 -7.16104e-22)
(1.19577 0.0928905 2.24111e-21)
(1.19891 0.0890995 1.07031e-21)
(1.20194 0.085254 -1.80215e-21)
(1.17001 0.10351 5.89259e-23)
(1.17338 0.10042 -7.69873e-22)
(1.17665 0.0972873 4.15968e-22)
(1.17983 0.0941139 2.95683e-23)
(1.18292 0.0908998 7.84592e-22)
(1.18591 0.0876452 -8.15421e-22)
(1.18881 0.0843502 1.07584e-21)
(1.19162 0.081014 1.41286e-21)
(1.16203 0.0963178 3.77066e-23)
(1.1651 0.0936154 3.12961e-22)
(1.1681 0.0908817 -7.46299e-22)
(1.17101 0.0881176 -1.35996e-22)
(1.17385 0.0853237 -8.27262e-22)
(1.17661 0.0825002 8.93742e-22)
(1.17929 0.0796473 -3.37108e-21)
(1.18189 0.0767647 -2.02649e-21)
(1.15444 0.0894348 -9.384e-23)
(1.15725 0.0870822 1.01671e-22)
(1.15999 0.0847065 6.13501e-22)
(1.16267 0.0823087 -3.39116e-22)
(1.16528 0.0798895 1.34819e-21)
(1.16783 0.0774495 -4.74007e-22)
(1.17031 0.074989 6.69897e-22)
(1.17273 0.0725081 1.14846e-21)
(1.14723 0.0828419 9.15678e-23)
(1.1498 0.0808008 -3.5707e-23)
(1.15232 0.0787434 -5.00729e-22)
(1.15478 0.0766708 1.13491e-21)
(1.15719 0.0745838 -6.48039e-22)
(1.15955 0.0724831 5.53085e-22)
(1.16185 0.0703692 5.6948e-22)
(1.1641 0.0682425 2.28286e-22)
(1.14039 0.0765149 5.06504e-23)
(1.14275 0.0747504 8.4223e-23)
(1.14506 0.0729751 2.36497e-22)
(1.14733 0.0711901 -8.45821e-22)
(1.14956 0.0693962 -5.42229e-22)
(1.15174 0.067594 1.01381e-22)
(1.15388 0.0657844 -5.12073e-22)
(1.15598 0.0639676 5.79768e-22)
(1.15803 0.0621443 -2.2342e-21)
(1.1339 0.0704284 -7.41065e-23)
(1.13607 0.068909 -2.2558e-23)
(1.1382 0.0673828 -9.1698e-25)
(1.1403 0.065851 6.03319e-22)
(1.14236 0.0643144 3.99924e-22)
(1.14439 0.0627737 -2.56276e-22)
(1.14638 0.0612297 -4.77381e-22)
(1.14833 0.0596829 1.06539e-22)
(1.15025 0.0581338 3.45433e-22)
(1.12775 0.0645621 5.50734e-23)
(1.12975 0.0632573 -1.06679e-23)
(1.13172 0.0619494 2.05997e-22)
(1.13367 0.0606391 -2.02289e-22)
(1.13558 0.0593272 -3.2251e-23)
(1.13746 0.0580143 5.3219e-22)
(1.13931 0.056701 2.221e-22)
(1.14114 0.055388 -6.75685e-22)
(1.14293 0.0540757 -2.98805e-22)
(1.12193 0.0588864 -5.58336e-23)
(1.12379 0.0577711 -6.94423e-23)
(1.12561 0.0566551 -3.96343e-23)
(1.12742 0.0555388 -3.11708e-23)
(1.12919 0.0544229 -3.3377e-22)
(1.13095 0.0533079 3.68763e-22)
(1.13268 0.0521945 -2.5024e-22)
(1.13438 0.0510832 -5.72002e-22)
(1.13606 0.0499746 8.22296e-22)
(1.11646 0.0533762 -2.75874e-23)
(1.11818 0.0524287 7.26546e-23)
(1.11987 0.0514815 -2.09714e-23)
(1.12155 0.0505351 -8.4621e-23)
(1.1232 0.0495901 1.00968e-22)
(1.12484 0.0486471 -2.49921e-22)
(1.12645 0.0477065 4.29151e-22)
(1.12804 0.046769 3.88152e-22)
(1.12962 0.0458351 -5.2185e-23)
(1.11132 0.0480193 4.13647e-23)
(1.11292 0.0472177 -4.64873e-23)
(1.1145 0.046417 -2.20497e-23)
(1.11606 0.0456179 -1.02426e-22)
(1.1176 0.0448209 3.94714e-23)
(1.11913 0.0440265 1.01419e-22)
(1.12063 0.043235 -3.83914e-23)
(1.12212 0.0424468 -4.61527e-22)
(1.12359 0.0416624 3.25153e-22)
(1.10653 0.0427938 2.62711e-24)
(1.10802 0.0421194 -4.43858e-23)
(1.10949 0.0414465 -5.5828e-23)
(1.11095 0.0407755 3.63695e-23)
(1.11239 0.0401068 1.52939e-22)
(1.11381 0.0394408 -1.4766e-22)
(1.11522 0.0387777 -3.03978e-22)
(1.11662 0.038118 3.52557e-22)
(1.11799 0.0374617 -5.15207e-22)
(1.1021 0.037676 -3.02879e-24)
(1.10349 0.0371135 -1.42652e-23)
(1.10487 0.0365525 6.62465e-23)
(1.10623 0.0359935 -1.93836e-23)
(1.10758 0.0354366 -1.39283e-22)
(1.10891 0.0348823 1.88015e-22)
(1.11023 0.0343306 -2.34211e-22)
(1.11153 0.0337818 -1.35505e-22)
(1.11282 0.033236 4.19668e-22)
(1.09805 0.0326445 -1.54202e-23)
(1.09936 0.0321805 3.82595e-23)
(1.10065 0.0317181 3.86295e-23)
(1.10193 0.0312574 -4.80464e-23)
(1.10319 0.0307986 -5.52308e-24)
(1.10444 0.030342 -1.74672e-22)
(1.10568 0.0298875 -1.34131e-23)
(1.1069 0.0294353 1.8698e-22)
(1.10811 0.0289855 -2.96132e-22)
(1.09442 0.0276755 1.64272e-25)
(1.09564 0.0272993 6.37791e-24)
(1.09686 0.0269244 7.36111e-25)
(1.09806 0.026551 3.31018e-23)
(1.09925 0.0261791 1.73256e-22)
(1.10043 0.0258089 -1.29392e-22)
(1.10159 0.0254403 7.68145e-23)
(1.10274 0.0250734 -2.50401e-25)
(1.10387 0.0247082 -1.96282e-22)
(1.09123 0.0227417 9.99361e-24)
(1.09239 0.0224443 -2.37217e-23)
(1.09354 0.022148 6.89504e-24)
(1.09468 0.0218529 -6.16095e-23)
(1.0958 0.0215589 2.33658e-23)
(1.09691 0.021266 4.35224e-23)
(1.09801 0.0209744 1.0358e-22)
(1.09909 0.0206838 1.7184e-23)
(1.10015 0.0203943 -2.28288e-23)
(1.08853 0.0178147 8.6237e-24)
(1.08964 0.0175897 -4.35291e-24)
(1.09074 0.0173655 -1.7432e-23)
(1.09182 0.0171421 4.77492e-23)
(1.09289 0.0169195 -8.34786e-23)
(1.09394 0.0166977 6.36147e-23)
(1.09498 0.0164766 3.78266e-23)
(1.096 0.016256 -1.33062e-22)
(1.09701 0.016036 -8.64389e-23)
(1.08639 0.0128462 9.29888e-25)
(1.08746 0.0126882 -2.10574e-23)
(1.08851 0.0125308 7.21131e-24)
(1.08955 0.012374 -6.04562e-23)
(1.09057 0.0122178 6.4379e-23)
(1.09158 0.012062 9.57777e-24)
(1.09257 0.0119066 3.74936e-23)
(1.09355 0.0117516 -1.33243e-22)
(1.09451 0.0115967 2.21438e-22)
(1.08487 0.00782067 1.78386e-25)
(1.0859 0.00772724 4.83509e-24)
(1.08692 0.00763401 6.31996e-24)
(1.08793 0.00754093 -2.29336e-23)
(1.08892 0.00744797 4.40732e-23)
(1.08989 0.00735507 -5.16077e-23)
(1.09085 0.00726216 6.05238e-23)
(1.0918 0.00716919 -2.32431e-23)
(1.09272 0.00707608 -5.50279e-23)
(1.08406 0.00260567 4.16686e-25)
(1.08507 0.00257752 -1.39556e-23)
(1.08607 0.0025497 3.02746e-23)
(1.08705 0.00252213 3.21641e-23)
(1.08802 0.0024947 -1.87995e-23)
(1.08898 0.00246731 3.4531e-23)
(1.08991 0.00243989 -3.55406e-23)
(1.09084 0.00241233 -1.00953e-23)
(1.09174 0.00238454 -2.08053e-23)
(0.984161 0.321907 1.35038e-21)
(1.00428 0.320839 -9.36564e-22)
(1.02248 0.320644 2.23677e-21)
(1.04076 0.320239 -3.70724e-22)
(1.05972 0.319239 -6.60791e-23)
(1.07854 0.317671 1.89581e-22)
(1.09686 0.315464 -1.24273e-21)
(1.11475 0.312505 -1.55372e-21)
(1.13222 0.308752 2.86583e-22)
(1.14921 0.304208 -5.36027e-21)
(1.16566 0.298893 -3.66694e-21)
(1.18152 0.292834 3.47187e-21)
(1.19678 0.286083 -7.52163e-21)
(1.2113 0.278642 -1.88051e-21)
(1.22555 0.270562 3.52756e-21)
(1.23955 0.261464 -4.60574e-21)
(1.25241 0.251746 7.32096e-22)
(1.26423 0.241651 3.47771e-22)
(1.27532 0.231211 1.70982e-21)
(1.28576 0.220421 2.82961e-22)
(0.997392 0.304831 -2.33293e-21)
(1.01724 0.303594 1.31847e-21)
(1.03511 0.303216 -2.40844e-21)
(1.05132 0.30277 -7.93315e-22)
(1.06793 0.301578 -8.3394e-23)
(1.08468 0.299658 -2.53933e-22)
(1.10096 0.297093 8.16201e-22)
(1.11677 0.293839 3.93763e-21)
(1.13222 0.289867 -4.79607e-21)
(1.14731 0.285204 3.30829e-21)
(1.16196 0.279897 -8.01523e-22)
(1.17616 0.273979 -3.87621e-21)
(1.18985 0.26751 2.98698e-21)
(1.20313 0.260479 -1.95988e-21)
(1.21554 0.253052 5.12583e-22)
(1.22742 0.24473 -1.1657e-21)
(1.2391 0.235864 4.86041e-21)
(1.25021 0.226722 -9.19846e-22)
(1.26065 0.217333 -1.44058e-21)
(1.27049 0.207666 1.83544e-23)
(1.01083 0.286407 -1.12172e-21)
(1.02935 0.285797 -1.82647e-21)
(1.04661 0.285225 6.53714e-22)
(1.06138 0.284428 5.08712e-22)
(1.07604 0.282917 2.68087e-22)
(1.09104 0.280643 5.76992e-23)
(1.10572 0.277762 1.27143e-21)
(1.11988 0.27432 3.37422e-21)
(1.13363 0.270295 6.53052e-21)
(1.14704 0.265697 -3.11663e-22)
(1.16004 0.26056 5.29644e-21)
(1.1726 0.254916 -8.04659e-22)
(1.18469 0.248771 -7.69718e-22)
(1.19631 0.242153 3.0148e-22)
(1.20735 0.23501 -4.68681e-21)
(1.21795 0.227619 -2.89798e-21)
(1.22834 0.219919 -2.09587e-21)
(1.23825 0.211887 -5.18333e-22)
(1.24761 0.20356 -1.13548e-21)
(1.25648 0.194957 -5.37751e-22)
(1.02337 0.269627 -1.7431e-21)
(1.04025 0.269098 2.06066e-21)
(1.05639 0.268135 -2.71624e-22)
(1.06987 0.266833 -4.84033e-24)
(1.0828 0.264979 2.92817e-22)
(1.09611 0.262477 -1.26367e-21)
(1.1093 0.259436 -1.12966e-21)
(1.12199 0.255936 -5.85746e-21)
(1.13426 0.251971 -1.95195e-21)
(1.14619 0.247538 5.63382e-21)
(1.15777 0.242657 -2.83921e-21)
(1.16894 0.237359 4.70234e-21)
(1.17969 0.231663 -3.33593e-22)
(1.19001 0.225607 -2.76843e-21)
(1.19984 0.219199 7.20121e-21)
(1.20931 0.212549 3.01314e-21)
(1.21858 0.205554 -8.53882e-22)
(1.22742 0.198255 1.14766e-21)
(1.2358 0.190714 1.80422e-21)
(1.24377 0.18296 2.06148e-22)
(1.03478 0.253538 2.80973e-21)
(1.04998 0.252746 -1.42335e-21)
(1.06478 0.251378 4.15231e-22)
(1.07704 0.249652 2.02334e-22)
(1.08849 0.247532 -2.90083e-22)
(1.10025 0.244913 5.40034e-22)
(1.11202 0.241832 -9.02545e-22)
(1.12339 0.238364 3.02067e-21)
(1.13432 0.234526 -4.5572e-21)
(1.14492 0.230311 -6.6639e-21)
(1.15521 0.225731 -1.20923e-22)
(1.16516 0.220812 -1.93355e-21)
(1.17474 0.215574 1.03404e-21)
(1.18395 0.210054 -1.10936e-21)
(1.19278 0.204255 -2.12635e-21)
(1.20121 0.198266 1.03226e-22)
(1.2094 0.19195 -5.99686e-22)
(1.21734 0.185368 -1.97362e-21)
(1.2249 0.178587 -7.02073e-22)
(1.2321 0.171633 -8.30685e-23)
(1.04502 0.237694 -9.87554e-23)
(1.05857 0.236637 7.62408e-22)
(1.07189 0.235001 1.71228e-22)
(1.08297 0.233016 -4.8676e-22)
(1.09315 0.230741 2.36067e-23)
(1.10351 0.228091 -4.51767e-22)
(1.11396 0.225056 2.31207e-21)
(1.12409 0.221687 1.85091e-21)
(1.13382 0.218015 3.90055e-21)
(1.14323 0.214043 2.22226e-21)
(1.15237 0.209775 1.5729e-21)
(1.16123 0.205229 -1.07253e-22)
(1.16977 0.200426 5.67435e-22)
(1.178 0.195387 2.23666e-21)
(1.18592 0.190125 -1.7908e-21)
(1.19348 0.184665 -5.12967e-22)
(1.20075 0.179004 1.35097e-21)
(1.20784 0.173133 1.51327e-21)
(1.21467 0.167082 -1.07159e-21)
(1.22119 0.160876 4.08061e-23)
(1.05404 0.222168 -1.12859e-21)
(1.06603 0.220917 -5.9354e-22)
(1.07784 0.219132 4.46849e-23)
(1.08777 0.217014 -3.60037e-22)
(1.09682 0.214667 1.14588e-21)
(1.10595 0.21204 2.61154e-21)
(1.11517 0.209099 1.85398e-21)
(1.12417 0.205874 -5.19128e-21)
(1.13282 0.202399 -1.43685e-21)
(1.14117 0.198683 -1.91173e-22)
(1.14928 0.19473 4.68174e-22)
(1.15715 0.190552 -9.75246e-22)
(1.16476 0.186163 -1.52973e-21)
(1.1721 0.181577 3.03712e-21)
(1.17917 0.176808 6.39123e-22)
(1.18595 0.171857 -1.23663e-21)
(1.19249 0.166772 -1.13479e-21)
(1.19886 0.16154 4.84298e-22)
(1.20502 0.156155 1.12221e-21)
(1.21091 0.15063 -1.48824e-22)
(1.06179 0.207109 8.47813e-22)