/*--------------------------------*- C++ -*----------------------------------*\
  =========                 |
  \\      /  F ield         | OpenFOAM: The Open Source CFD Toolbox
   \\    /   O peration     | Website:  https://openfoam.org
    \\  /    A nd           | Version:  7
     \\/     M anipulation  |
\*---------------------------------------------------------------------------*/
FoamFile
{
    version     2.0;
    format      ascii;
    class       volScalarField;
    location    "15";
    object      p;
}
// * * * * * * * * * * * * * * * * * * * * * * * * * * * * * * * * * * * * * //

dimensions      [0 2 -2 0 0 0 0];

internalField   nonuniform List<scalar> 
2125
(
-0.321912
-0.345484
-0.326591
-0.368793
-0.346313
-0.330619
-0.406814
-0.387029
-0.367074
-0.346393
-0.334042
-0.420941
-0.401846
-0.38323
-0.364722
-0.345794
-0.336879
-0.433484
-0.414699
-0.396531
-0.378993
-0.361819
-0.34457
-0.339109
-0.444316
-0.42616
-0.408253
-0.390968
-0.37441
-0.358435
-0.342756
-0.340654
-0.435931
-0.418713
-0.401685
-0.385241
-0.369561
-0.354624
-0.340363
-0.341334
-0.443776
-0.427464
-0.411214
-0.395068
-0.379425
-0.364514
-0.350436
-0.337396
-0.340814
-0.454395
-0.434177
-0.418984
-0.403722
-0.388459
-0.373578
-0.359317
-0.345912
-0.333908
-0.338711
-0.443009
-0.424599
-0.410547
-0.39629
-0.381905
-0.367739
-0.353984
-0.341001
-0.32965
-0.334314
-0.431698
-0.415104
-0.402207
-0.388963
-0.375452
-0.36195
-0.34852
-0.335511
-0.322982
-0.320571
-0.420533
-0.405749
-0.394011
-0.381786
-0.369148
-0.356289
-0.343089
-0.329719
-0.312982
-0.278039
-0.409583
-0.396586
-0.386003
-0.3748
-0.36305
-0.350882
-0.338057
-0.324766
-0.308081
-0.270336
-0.398911
-0.387664
-0.378222
-0.368042
-0.357198
-0.345792
-0.333566
-0.320854
-0.305917
-0.272691
-0.388573
-0.379023
-0.370702
-0.361536
-0.351609
-0.341016
-0.329532
-0.317583
-0.304076
-0.274909
-0.378619
-0.370703
-0.363471
-0.355301
-0.34629
-0.33653
-0.325852
-0.314725
-0.302358
-0.276649
-0.36909
-0.362735
-0.356553
-0.349352
-0.341243
-0.332319
-0.322468
-0.312185
-0.300868
-0.278312
-0.360023
-0.355148
-0.34997
-0.343703
-0.336471
-0.328368
-0.319339
-0.309884
-0.299539
-0.27981
-0.351449
-0.347968
-0.343742
-0.338365
-0.331973
-0.324665
-0.31643
-0.307761
-0.298289
-0.281027
-0.343394
-0.34122
-0.337888
-0.333349
-0.327754
-0.3212
-0.313718
-0.305776
-0.297078
-0.281938
-0.335883
-0.334927
-0.332425
-0.32867
-0.323818
-0.31797
-0.311188
-0.303907
-0.295894
-0.282563
-0.328942
-0.329109
-0.327374
-0.324339
-0.320175
-0.314976
-0.308833
-0.302144
-0.294734
-0.282935
-0.322595
-0.323788
-0.322753
-0.320374
-0.316833
-0.312224
-0.306656
-0.300488
-0.293609
-0.283095
-0.316866
-0.318987
-0.31858
-0.31679
-0.313807
-0.309723
-0.304664
-0.298945
-0.292543
-0.28308
-0.311781
-0.314728
-0.314876
-0.313603
-0.31111
-0.307486
-0.302867
-0.297525
-0.291559
-0.282881
-0.307364
-0.31103
-0.311658
-0.310832
-0.30876
-0.305529
-0.301286
-0.296286
-0.290588
-0.28247
-0.30364
-0.307914
-0.308945
-0.308492
-0.306771
-0.303867
-0.299934
-0.295202
-0.289736
-0.282564
-0.30063
-0.305397
-0.306752
-0.306599
-0.30516
-0.302515
-0.298828
-0.294304
-0.289025
-0.282465
-0.298355
-0.303495
-0.305095
-0.305167
-0.303938
-0.301488
-0.297984
-0.293614
-0.288472
-0.282299
-0.296829
-0.30222
-0.303984
-0.304206
-0.303117
-0.300796
-0.297413
-0.293145
-0.288096
-0.282169
-0.303723
-0.302704
-0.300448
-0.297126
-0.292908
-0.287907
-0.2821
0.0120592
0.0101673
0.00830003
0.00645808
0.00464221
0.0028531
0.00109141
-0.000642199
-0.00234708
-0.00402287
-0.00567001
0.0111484
0.00922658
0.0073318
0.00546497
0.00362689
0.0018183
3.9872e-05
-0.00170775
-0.00342381
-0.00510774
-0.0067623
0.00956878
0.0075963
0.00565225
0.00373755
0.00185307
-3.98592e-07
-0.00182217
-0.00361155
-0.00536739
-0.00708857
-0.0087826
0.00731452
0.00526792
0.00325132
0.00126575
-0.000687873
-0.00260871
-0.00449605
-0.0063492
-0.00816654
-0.00994612
-0.0117016
0.00443266
0.00229135
0.000181427
-0.00189605
-0.00394012
-0.00594989
-0.00792468
-0.00986378
-0.011765
-0.0136254
-0.0154655
0.000932054
-0.00132535
-0.00355003
-0.00574087
-0.00789687
-0.0100171
-0.0121009
-0.0141477
-0.0161545
-0.0181171
-0.0200631
-0.00318432
-0.00557888
-0.00793944
-0.0102649
-0.0125541
-0.0148063
-0.0170207
-0.0191967
-0.0213311
-0.0234177
-0.0254904
-0.00792359
-0.010477
-0.0129951
-0.0154769
-0.0179212
-0.0203271
-0.0226941
-0.0250215
-0.0273059
-0.0295387
-0.0317587
-0.0133004
-0.0160348
-0.0187328
-0.0213931
-0.0240149
-0.026597
-0.029139
-0.0316406
-0.0340978
-0.0364998
-0.0388877
-0.0193349
-0.0222733
-0.0251741
-0.0280361
-0.0308584
-0.03364
-0.0363804
-0.0390795
-0.0417334
-0.0443287
-0.0469053
-0.0260517
-0.029218
-0.0323454
-0.0354331
-0.03848
-0.0414853
-0.0444485
-0.0473697
-0.0502455
-0.0530601
-0.0558474
-0.0300212
-0.0334788
-0.0368976
-0.0402765
-0.0436148
-0.0469117
-0.0501662
-0.0533782
-0.0565478
-0.0596728
-0.0627358
-0.0657581
-0.0379084
-0.0416451
-0.045342
-0.0489984
-0.0526135
-0.0561869
-0.0597181
-0.0632068
-0.0666536
-0.0700582
-0.0734044
-0.0766909
-0.0465395
-0.050581
-0.054582
-0.0585422
-0.0624613
-0.0663394
-0.0701764
-0.0739724
-0.0777285
-0.0814477
-0.0851208
-0.0887093
-0.055941
-0.060313
-0.0646442
-0.0689351
-0.0731862
-0.0773983
-0.0815725
-0.0857096
-0.0898111
-0.093886
-0.097942
-0.101884
-0.0661386
-0.0708651
-0.0755514
-0.0801989
-0.0848095
-0.0893855
-0.0939297
-0.0984444
-0.102931
-0.107409
-0.111919
-0.116284
-0.0771512
-0.0822536
-0.0873171
-0.0923448
-0.0973406
-0.102309
-0.107256
-0.112185
-0.1171
-0.122032
-0.127083
-0.131961
-0.0889929
-0.0944873
-0.0999448
-0.105371
-0.110773
-0.116158
-0.121536
-0.126915
-0.132298
-0.137734
-0.143422
-0.148921
-0.101669
-0.107564
-0.113424
-0.119258
-0.125077
-0.130894
-0.136723
-0.142578
-0.148461
-0.154439
-0.160859
-0.167093
-0.115178
-0.121469
-0.127727
-0.133966
-0.1402
-0.146447
-0.152731
-0.15907
-0.165464
-0.172004
-0.179232
-0.1863
-0.129506
-0.136174
-0.142809
-0.149429
-0.156054
-0.162709
-0.169426
-0.17623
-0.183116
-0.190199
-0.198277
-0.206244
-0.144629
-0.151633
-0.158599
-0.165551
-0.172516
-0.179527
-0.186621
-0.193836
-0.201156
-0.208719
-0.217643
-0.226519
-0.160505
-0.167778
-0.175
-0.182203
-0.189421
-0.196694
-0.204073
-0.211601
-0.219252
-0.22719
-0.236907
-0.246647
-0.177074
-0.184515
-0.191885
-0.199222
-0.206568
-0.213973
-0.221498
-0.229199
-0.237037
-0.245201
-0.255619
-0.266138
-0.194224
-0.201696
-0.209065
-0.216379
-0.223692
-0.231064
-0.238572
-0.246285
-0.254148
-0.262377
-0.273389
-0.284586
-0.211816
-0.219127
-0.226289
-0.233364
-0.240419
-0.247534
-0.254807
-0.262333
-0.270051
-0.278213
-0.289777
-0.301659
-0.229848
-0.236801
-0.243544
-0.250149
-0.2567
-0.263293
-0.270048
-0.277097
-0.284384
-0.292223
-0.304215
-0.316937
-0.247994
-0.254409
-0.260574
-0.266582
-0.272538
-0.278557
-0.284783
-0.291365
-0.298235
-0.305704
-0.317901
-0.331213
-0.264426
-0.269757
-0.274812
-0.279732
-0.28467
-0.289796
-0.295317
-0.30146
-0.308237
-0.316045
-0.329439
-0.344575
-0.281223
-0.284898
-0.288094
-0.290958
-0.293648
-0.296327
-0.299184
-0.302426
-0.306128
-0.31082
-0.321636
-0.33951
-0.00834586
-0.0119934
-0.0156187
-0.0191976
-0.022702
-0.0260995
-0.029354
-0.0324276
-0.0352809
-0.0378737
-0.0401651
-0.0421153
-0.0436864
-0.0448436
-0.0455566
-0.0458007
-0.0455578
-0.044818
-0.0435784
-0.0418475
-0.0396363
-0.0369764
-0.0338798
-0.0304165
-0.0265568
-0.022466
-0.0179485
-0.0134455
-0.0082497
-0.00351589
-0.00949274
-0.0131687
-0.0168007
-0.0203844
-0.023892
-0.0272861
-0.0305286
-0.0335812
-0.0364049
-0.0389591
-0.0412035
-0.0430986
-0.0446071
-0.0456953
-0.0463341
-0.0465002
-0.0461771
-0.0453567
-0.0440376
-0.0422303
-0.0399468
-0.0372213
-0.0340647
-0.0305523
-0.0266465
-0.0225289
-0.0179747
-0.0134749
-0.00823462
-0.00355412
-0.0116437
-0.0153819
-0.0190291
-0.0226239
-0.0261385
-0.0295262
-0.0327449
-0.0357564
-0.038522
-0.0410016
-0.0431551
-0.044944
-0.0463325
-0.047289
-0.0477865
-0.0478047
-0.0473301
-0.0463575
-0.044889
-0.0429382
-0.0405198
-0.0376713
-0.034404
-0.0307985
-0.0268113
-0.0226372
-0.018028
-0.0135152
-0.008231
-0.0035968
-0.0147488
-0.0185695
-0.0222328
-0.0258383
-0.0293576
-0.0327303
-0.035909
-0.0388557
-0.0415324
-0.0438997
-0.0459181
-0.0475507
-0.048764
-0.0495291
-0.0498229
-0.0496287
-0.0489374
-0.0477485
-0.0460683
-0.0439151
-0.041307
-0.0382862
-0.0348647
-0.0311294
-0.0270304
-0.0227775
-0.0180961
-0.0135629
-0.00822826
-0.0036444
-0.0187556
-0.0226772
-0.0263543
-0.0299669
-0.0334846
-0.0368295
-0.0399478
-0.0428019
-0.0453557
-0.0475702
-0.0494076
-0.050833
-0.0518161
-0.052332
-0.0523622
-0.0518951
-0.0509271
-0.0494633
-0.0475155
-0.0451078
-0.0422625
-0.0390271
-0.0354146
-0.0315193
-0.0272836
-0.0229348
-0.0181675
-0.013611
-0.00821959
-0.00369838
-0.0236471
-0.0276811
-0.0313637
-0.0349736
-0.0384771
-0.0417751
-0.0448061
-0.0475345
-0.049926
-0.0519434
-0.0535506
-0.0547159
-0.0554131
-0.0556224
-0.0553309
-0.0545333
-0.0532324
-0.0514402
-0.0491749
-0.0464668
-0.043343
-0.0398572
-0.0360235
-0.0319435
-0.027552
-0.0230942
-0.018232
-0.0136515
-0.00820075
-0.00375824
-0.0294173
-0.0335699
-0.0372432
-0.0408342
-0.0443043
-0.0475287
-0.0504389
-0.0530018
-0.0551862
-0.0569572
-0.0582813
-0.059131
-0.0594854
-0.0593307
-0.0586608
-0.0574777
-0.0557916
-0.053622
-0.0509943
-0.0479457
-0.0445086
-0.0407426
-0.0366632
-0.0323794
-0.0278182
-0.0232421
-0.0182803
-0.0136765
-0.00816816
-0.00382194
-0.0360745
-0.0403444
-0.0439857
-0.0475338
-0.050943
-0.0540594
-0.0568072
-0.0591577
-0.0610839
-0.0625539
-0.0635381
-0.0640142
-0.0639675
-0.0633917
-0.062288
-0.0606669
-0.0585468
-0.0559554
-0.0529257
-0.0495021
-0.0457225
-0.0416523
-0.0373087
-0.0328066
-0.0280667
-0.0233661
-0.0183044
-0.0136785
-0.00811907
-0.00388562
-0.0436356
-0.0480132
-0.0515902
-0.0550625
-0.0583742
-0.0613387
-0.0638741
-0.0659578
-0.0675683
-0.0686778
-0.0692614
-0.0693033
-0.0687964
-0.0677424
-0.0661515
-0.0640428
-0.0614437
-0.0583907
-0.0549246
-0.051097
-0.0469515
-0.0425587
-0.0379376
-0.0332076
-0.0282848
-0.0234558
-0.0182984
-0.0136505
-0.008052
-0.00394323
-0.0521246
-0.0565892
-0.0600584
-0.0634112
-0.0665786
-0.0693376
-0.0716016
-0.0733564
-0.0745875
-0.075272
-0.0753913
-0.0749368
-0.0739102
-0.0723221
-0.0701926
-0.0675499
-0.0644312
-0.0608817
-0.0569501
-0.0526953
-0.0481661
-0.0434375
-0.0385309
-0.0335673
-0.0284619
-0.0235027
-0.0182582
-0.0135859
-0.00796698
-0.00398614
-0.0615689
-0.0660858
-0.0693905
-0.0725688
-0.0755336
-0.0780227
-0.0799472
-0.0813039
-0.0820864
-0.0822777
-0.0818662
-0.0808523
-0.0792472
-0.0770714
-0.0743543
-0.0711354
-0.067461
-0.0633854
-0.0589651
-0.0542652
-0.0493403
-0.044268
-0.0390729
-0.0338741
-0.0285903
-0.0235007
-0.0181815
-0.0134794
-0.00786562
-0.00400337
-0.0719957
-0.0765118
-0.0795816
-0.0825176
-0.0852091
-0.0873532
-0.0888616
-0.0897445
-0.0900044
-0.0896311
-0.0886214
-0.0869853
-0.0847441
-0.0819294
-0.0785808
-0.0747482
-0.0704876
-0.065862
-0.0609355
-0.0557789
-0.0504518
-0.0450329
-0.0395511
-0.034119
-0.028665
-0.0234456
-0.018068
-0.0133265
-0.00775102
-0.00398215
-0.0834252
-0.0878643
-0.0906152
-0.0932286
-0.0955636
-0.0972768
-0.0982848
-0.0986131
-0.0982733
-0.0972628
-0.0955875
-0.0932681
-0.0903373
-0.0868363
-0.0828169
-0.0783388
-0.0734677
-0.0682747
-0.062831
-0.0572121
-0.0514819
-0.0457188
-0.0399564
-0.0342963
-0.0286831
-0.0233358
-0.0179192
-0.0131246
-0.00762756
-0.00390897
-0.0958601
-0.100118
-0.102457
-0.104656
-0.106538
-0.107725
-0.108143
-0.107833
-0.106815
-0.105096
-0.10269
-0.0996293
-0.0959592
-0.0917312
-0.0870081
-0.0818597
-0.0763609
-0.07059
-0.0646249
-0.0585442
-0.052416
-0.0463156
-0.0402828
-0.0344029
-0.0286446
-0.0231717
-0.0177378
-0.0128725
-0.00750049
-0.00377089
-0.109269
-0.113213
-0.115046
-0.116731
-0.118053
-0.118611
-0.118346
-0.117314
-0.115542
-0.113043
-0.109846
-0.105995
-0.101541
-0.0965526
-0.0911009
-0.0852655
-0.0791297
-0.0727784
-0.0662946
-0.0597591
-0.0532431
-0.046817
-0.0405277
-0.0344388
-0.0285514
-0.0229557
-0.0175277
-0.0125712
-0.00737557
-0.00355698
-0.123568
-0.127038
-0.128286
-0.129354
-0.129998
-0.129822
-0.128786
-0.126951
-0.124351
-0.121011
-0.11697
-0.112282
-0.107013
-0.10124
-0.0950439
-0.0885141
-0.0817408
-0.0748144
-0.0678221
-0.0608448
-0.0539567
-0.0472203
-0.0406917
-0.0344066
-0.0284075
-0.0226921
-0.0172941
-0.0122233
-0.00725854
-0.00325946
-0.138594
-0.141423
-0.14204
-0.14239
-0.142235
-0.141224
-0.139332
-0.136622
-0.133132
-0.128897
-0.123969
-0.118413
-0.112306
-0.105734
-0.0987896
-0.091568
-0.0841662
-0.0766782
-0.0691944
-0.0617942
-0.0545541
-0.0475264
-0.0407781
-0.0343108
-0.0282187
-0.0223865
-0.0170426
-0.0118331
-0.00715467
-0.00287467
-0.154091
-0.156127
-0.156128
-0.155668
-0.154595
-0.152659
-0.149843
-0.146196
-0.141764
-0.136595
-0.13075
-0.124307
-0.117353
-0.109983
-0.102296
-0.0943962
-0.086384
-0.078356
-0.0704041
-0.062605
-0.0550368
-0.0477394
-0.0407926
-0.0341581
-0.0279918
-0.0220454
-0.016779
-0.0114063
-0.00706845
-0.00240337
-0.169701
-0.170855
-0.17033
-0.168981
-0.166883
-0.163953
-0.160162
-0.155534
-0.150125
-0.143998
-0.137224
-0.129892
-0.122096
-0.11394
-0.105531
-0.0969759
-0.0883801
-0.0798404
-0.0714496
-0.0632795
-0.0554101
-0.047866
-0.0407432
-0.0339564
-0.0277347
-0.0216762
-0.0165096
-0.0109493
-0.00700327
-0.00185064
-0.184981
-0.185282
-0.184402
-0.1821
-0.178894
-0.174932
-0.170134
-0.164501
-0.1581
-0.15101
-0.143314
-0.135104
-0.126487
-0.117571
-0.10847
-0.0992931
-0.090148
-0.0811309
-0.0723343
-0.0638239
-0.055682
-0.0479152
-0.0406391
-0.0337143
-0.0274554
-0.021286
-0.0162399
-0.0104693
-0.00696119
-0.00122544
-0.199446
-0.199094
-0.1981
-0.194789
-0.190429
-0.185426
-0.179617
-0.172973
-0.165587
-0.157551
-0.148954
-0.139897
-0.130493
-0.120856
-0.111102
-0.101343
-0.091689
-0.0822327
-0.0730664
-0.064248
-0.0558629
-0.047897
-0.0404899
-0.0334405
-0.0271621
-0.0208822
-0.0159753
-0.00997333
-0.00694291
-0.000539763
-0.212626
-0.21204
-0.211198
-0.206832
-0.201311
-0.195293
-0.188486
-0.180849
-0.172506
-0.163559
-0.154101
-0.144241
-0.134096
-0.123784
-0.113425
-0.103131
-0.0930113
-0.0831566
-0.0736577
-0.0645638
-0.0559646
-0.0478224
-0.0403057
-0.0331438
-0.0268619
-0.0204712
-0.0157202
-0.00946838
-0.00694792
0.00019245
-0.224145
-0.223965
-0.223516
-0.218048
-0.211407
-0.204425
-0.196649
-0.188059
-0.178806
-0.168998
-0.158733
-0.148124
-0.137293
-0.126361
-0.115448
-0.104668
-0.0941287
-0.0839167
-0.0741224
-0.0647846
-0.0559992
-0.0477021
-0.0400957
-0.032832
-0.0265616
-0.020059
-0.0154782
-0.00896088
-0.00697468
0.000956433
-0.233777
-0.234841
-0.234929
-0.228315
-0.220638
-0.212751
-0.204052
-0.194563
-0.184463
-0.173857
-0.162847
-0.151552
-0.140095
-0.1286
-0.117189
-0.105972
-0.0950586
-0.0845298
-0.0744757
-0.0649242
-0.0559788
-0.0475463
-0.0398686
-0.0325122
-0.0262665
-0.0196508
-0.0152519
-0.00845663
-0.00702087
0.00173756
-0.241509
-0.24476
-0.245369
-0.23758
-0.22897
-0.220242
-0.210673
-0.200355
-0.189478
-0.178144
-0.166459
-0.154544
-0.142524
-0.130524
-0.118667
-0.107064
-0.0958198
-0.0850128
-0.0747327
-0.0649954
-0.0559142
-0.047364
-0.0396315
-0.0321903
-0.0259809
-0.0192507
-0.015043
-0.00796068
-0.00708369
0.00252217
-0.247584
-0.253928
-0.254825
-0.245838
-0.236412
-0.226897
-0.21652
-0.205448
-0.193871
-0.181883
-0.169594
-0.157125
-0.144605
-0.132158
-0.119908
-0.107965
-0.096432
-0.085383
-0.0749082
-0.0650105
-0.0558156
-0.0471633
-0.0393907
-0.0318715
-0.0257083
-0.0188625
-0.0148525
-0.00747738
-0.00716013
0.00329798
-0.252469
-0.262619
-0.263346
-0.253166
-0.243016
-0.232754
-0.221634
-0.20989
-0.197689
-0.185121
-0.172297
-0.15934
-0.146378
-0.133539
-0.120944
-0.108704
-0.0969204
-0.0856618
-0.07502
-0.0649842
-0.0556945
-0.0469533
-0.0391529
-0.0315611
-0.0254519
-0.0184896
-0.014681
-0.00701098
-0.00724657
0.00405403
-0.256652
-0.27105
-0.271111
-0.259812
-0.248973
-0.237975
-0.226172
-0.21382
-0.20106
-0.187972
-0.174669
-0.161274
-0.147918
-0.134728
-0.121827
-0.109323
-0.0973183
-0.085875
-0.0750877
-0.064931
-0.055561
-0.0467413
-0.0389223
-0.0312623
-0.025212
-0.0181343
-0.0145263
-0.00656532
-0.00733767
0.00478098
-0.261956
-0.279464
-0.278321
-0.266069
-0.254485
-0.242718
-0.230262
-0.217344
-0.20406
-0.19049
-0.176744
-0.162947
-0.149229
-0.135721
-0.122544
-0.109805
-0.0976061
-0.0860019
-0.0750901
-0.0648306
-0.055396
-0.0465103
-0.0386833
-0.0309631
-0.0249775
-0.0177894
-0.0143813
-0.0061377
-0.0074304
0.0054758
-0.273334
-0.288426
-0.283929
-0.270802
-0.258471
-0.245998
-0.233008
-0.219644
-0.205962
-0.192031
-0.17796
-0.163872
-0.1499
-0.136172
-0.122811
-0.109918
-0.097597
-0.085895
-0.0749137
-0.0645964
-0.0551368
-0.0462136
-0.0384066
-0.0306393
-0.0247404
-0.0174398
-0.0142528
-0.00571135
-0.00754412
0.00614884
-0.308126
-0.295933
-0.284373
-0.270785
-0.258199
-0.245566
-0.232541
-0.219199
-0.205554
-0.191665
-0.177635
-0.163582
-0.149639
-0.135933
-0.122589
-0.109708
-0.0973968
-0.0856991
-0.0747271
-0.0644063
-0.0549628
-0.0460208
-0.0382521
-0.0304298
-0.024625
-0.0171863
-0.0142196
-0.00535984
-0.00769387
0.00670579
-0.31862
-0.298514
-0.284313
-0.270688
-0.257872
-0.245037
-0.23188
-0.218431
-0.204698
-0.190742
-0.176666
-0.162593
-0.148652
-0.134968
-0.121664
-0.108838
-0.0965907
-0.0849623
-0.0740648
-0.0638139
-0.0544466
-0.0455615
-0.0378712
-0.0300763
-0.0243687
-0.0168958
-0.0140939
-0.00506247
-0.00776071
0.00714894
-0.320023
-0.297281
-0.283032
-0.269741
-0.256861
-0.243926
-0.230685
-0.21716
-0.203361
-0.189362
-0.175269
-0.161205
-0.147298
-0.133672
-0.120444
-0.107706
-0.0955562
-0.084029
-0.0732341
-0.0630811
-0.0538108
-0.0450081
-0.037408
-0.0296668
-0.0240558
-0.0165823
-0.0139279
-0.00477038
-0.00779581
0.00757994
-0.319388
-0.29532
-0.281519
-0.268601
-0.255719
-0.242747
-0.229464
-0.215896
-0.202061
-0.188043
-0.173951
-0.15991
-0.146047
-0.132482
-0.119328
-0.106675
-0.0946161
-0.0831815
-0.0724796
-0.0624144
-0.0532312
-0.0445017
-0.0369829
-0.0292884
-0.0237666
-0.0162879
-0.0137744
-0.00449089
-0.00783194
0.00799919
-0.317456
-0.293257
-0.280007
-0.267394
-0.25454
-0.241564
-0.228263
-0.214668
-0.200813
-0.186788
-0.172708
-0.158696
-0.144879
-0.131375
-0.118294
-0.105721
-0.0937476
-0.0823991
-0.071783
-0.0617987
-0.0526957
-0.0440326
-0.0365895
-0.0289358
-0.023499
-0.0160106
-0.0136344
-0.00422286
-0.00787172
0.00840582
-0.314493
-0.290997
-0.278399
-0.266064
-0.253281
-0.240333
-0.227034
-0.213428
-0.199566
-0.185546
-0.171485
-0.157509
-0.143744
-0.130304
-0.117296
-0.104803
-0.0929132
-0.0816487
-0.071116
-0.0612097
-0.0521841
-0.0435849
-0.0362143
-0.0285996
-0.0232447
-0.015746
-0.0135026
-0.00396604
-0.00791188
0.00879809
-0.310959
-0.288631
-0.276686
-0.264616
-0.251947
-0.239056
-0.225778
-0.212179
-0.198323
-0.184318
-0.170285
-0.156352
-0.142641
-0.129267
-0.116334
-0.103921
-0.0921127
-0.0809301
-0.0704781
-0.0606472
-0.0516958
-0.0431581
-0.0358569
-0.0282797
-0.0230029
-0.0154943
-0.0133781
-0.00372133
-0.00795124
0.00917421
-0.30716
-0.286262
-0.274907
-0.263086
-0.250563
-0.237751
-0.224513
-0.210935
-0.197098
-0.183119
-0.169122
-0.155236
-0.141584
-0.128277
-0.115418
-0.103082
-0.0913533
-0.0802495
-0.0698746
-0.0601156
-0.0512346
-0.0427553
-0.0355197
-0.0279779
-0.0227752
-0.0152568
-0.0132616
-0.00348974
-0.00798961
0.0095324
-0.30328
-0.283935
-0.273094
-0.261509
-0.249152
-0.236435
-0.223252
-0.209709
-0.195904
-0.181959
-0.168004
-0.15417
-0.140578
-0.127339
-0.114552
-0.102291
-0.0906392
-0.0796104
-0.0693085
-0.0596174
-0.0508027
-0.0423782
-0.0352042
-0.0276956
-0.0225625
-0.0150345
-0.0131535
-0.00327217
-0.00802676
0.00987094
-0.299452
-0.281678
-0.271277
-0.259916
-0.247739
-0.235126
-0.22201
-0.208515
-0.19475
-0.180847
-0.16694
-0.15316
-0.13963
-0.126457
-0.113741
-0.101553
-0.089973
-0.0790151
-0.0687818
-0.0591542
-0.0504013
-0.0420281
-0.0349113
-0.0274336
-0.0223653
-0.0148279
-0.0130538
-0.00306944
-0.00806236
0.0101882
-0.295772
-0.279517
-0.269488
-0.25834
-0.246345
-0.233844
-0.220804
-0.207364
-0.193648
-0.179793
-0.165938
-0.152214
-0.138745
-0.125637
-0.112988
-0.100869
-0.0893573
-0.0784656
-0.0682962
-0.0587276
-0.0500319
-0.0417059
-0.034642
-0.0271926
-0.0221842
-0.0146379
-0.0129628
-0.00288233
-0.00809606
0.0104824
-0.292295
-0.277474
-0.267761
-0.256812
-0.244997
-0.232608
-0.21965
-0.206273
-0.192611
-0.178808
-0.165006
-0.151338
-0.137929
-0.124883
-0.112298
-0.100243
-0.0887949
-0.0779644
-0.0678536
-0.0583391
-0.0496956
-0.0414129
-0.034397
-0.0269736
-0.0220198
-0.0144649
-0.0128806
-0.0027116
-0.00812752
0.0107521
-0.289092
-0.275571
-0.266131
-0.255363
-0.243718
-0.231441
-0.218567
-0.205256
-0.19165
-0.177901
-0.164152
-0.15054
-0.137187
-0.1242
-0.111675
-0.0996785
-0.0882883
-0.0775134
-0.0674557
-0.0579902
-0.0493937
-0.0411499
-0.0341773
-0.026777
-0.0218724
-0.0143097
-0.0128072
-0.00255794
-0.00815643
0.0109958
-0.286293
-0.273797
-0.264627
-0.254023
-0.242535
-0.230364
-0.217572
-0.204327
-0.190778
-0.177081
-0.163385
-0.149825
-0.136525
-0.123592
-0.111121
-0.0991779
-0.0878396
-0.0771145
-0.0671041
-0.057682
-0.0491272
-0.0409179
-0.0339835
-0.0266037
-0.0217425
-0.0141727
-0.0127428
-0.002422
-0.00818248
0.0112122
-0.284079
-0.272113
-0.263265
-0.252818
-0.24147
-0.229396
-0.216682
-0.2035
-0.190006
-0.176359
-0.162711
-0.149199
-0.135948
-0.123063
-0.11064
-0.0987439
-0.0874511
-0.0767694
-0.0668001
-0.0574157
-0.048897
-0.0407175
-0.0338162
-0.026454
-0.0216305
-0.0140543
-0.0126875
-0.00230435
-0.00820538
0.0114001
-0.281416
-0.270989
-0.262092
-0.251773
-0.240545
-0.228557
-0.215913
-0.202789
-0.189344
-0.175743
-0.162138
-0.148669
-0.13546
-0.122617
-0.110234
-0.0983787
-0.0871245
-0.0764795
-0.0665449
-0.0571923
-0.0487039
-0.0405496
-0.033676
-0.0263286
-0.0215367
-0.0139551
-0.0126413
-0.00220551
-0.00822489
0.0115583
-0.279477
-0.269976
-0.261113
-0.250909
-0.23978
-0.227864
-0.215279
-0.202204
-0.188803
-0.17524
-0.161672
-0.148239
-0.135064
-0.122256
-0.109907
-0.0980841
-0.0868614
-0.0762461
-0.0663396
-0.0570126
-0.0485487
-0.0404145
-0.0335632
-0.0262278
-0.0214613
-0.0138753
-0.0126043
-0.0021259
-0.00824078
0.011686
-0.278081
-0.269176
-0.260358
-0.250244
-0.239192
-0.227331
-0.214793
-0.201757
-0.188389
-0.174858
-0.161318
-0.147912
-0.134765
-0.121983
-0.10966
-0.0978618
-0.0866629
-0.0760702
-0.0661849
-0.0568772
-0.0484318
-0.0403129
-0.0334784
-0.0261519
-0.0214046
-0.0138152
-0.0125765
-0.00206588
-0.00825286
0.0117824
-0.277141
-0.268631
-0.259847
-0.249793
-0.238792
-0.226969
-0.214464
-0.201454
-0.18811
-0.174599
-0.16108
-0.147693
-0.134564
-0.1218
-0.109494
-0.097713
-0.08653
-0.0759525
-0.0660814
-0.0567867
-0.0483536
-0.0402449
-0.0334217
-0.0261012
-0.0213667
-0.013775
-0.0125579
-0.00202571
-0.008261
0.011847
-0.276666
-0.268355
-0.259589
-0.249565
-0.23859
-0.226786
-0.214297
-0.201301
-0.187969
-0.17447
-0.16096
-0.147583
-0.134463
-0.121708
-0.109411
-0.0976383
-0.0864635
-0.0758935
-0.0660295
-0.0567414
-0.0483145
-0.0402109
-0.0333933
-0.0260758
-0.0213478
-0.0137549
-0.0125486
-0.00200559
-0.0082651
0.0118794
)
;

boundaryField
{
    inlet
    {
        type            zeroGradient;
    }
    outlet
    {
        type            fixedValue;
        value           uniform 0;
    }
    cylinder
    {
        type            zeroGradient;
    }
    top
    {
        type            symmetryPlane;
    }
    bottom
    {
        type            symmetryPlane;
    }
    defaultFaces
    {
        type            empty;
    }
    procBoundary1to0
    {
        type            processor;
        value           nonuniform List<scalar> 
50
(
-0.316518
-0.343829
-0.343829
-0.369787
-0.369787
-0.411325
-0.390288
-0.390288
-0.42688
-0.42688
-0.4406
-0.4406
-0.452546
-0.452546
-0.462761
-0.453329
-0.453329
-0.465777
-0.465777
0.0139749
0.0130964
0.0115687
0.00939007
0.00660422
0.00322101
-0.000756965
-0.00533618
-0.0105308
-0.0163601
-0.0228478
-0.0228478
-0.0265258
-0.0341326
-0.0424579
-0.0515282
-0.0613707
-0.0720071
-0.0834566
-0.0957322
-0.108842
-0.122789
-0.137565
-0.153156
-0.169527
-0.186607
-0.204303
-0.222619
-0.241245
-0.258695
-0.276935
)
;
    }
    procBoundary1to3
    {
        type            processor;
        value           nonuniform List<scalar> 
41
(
-0.303723
-0.302704
-0.300448
-0.297126
-0.292908
-0.287907
-0.2821
-0.296063
-0.30158
-0.303426
-0.303426
-0.276666
-0.268355
-0.259589
-0.249565
-0.23859
-0.226786
-0.214297
-0.201301
-0.187969
-0.17447
-0.16096
-0.147583
-0.134463
-0.121708
-0.109411
-0.0976383
-0.0864634
-0.0758935
-0.0660295
-0.0567414
-0.0483145
-0.0402109
-0.0333933
-0.0260758
-0.0213478
-0.0137549
-0.0125486
-0.00200559
-0.0082651
0.0118794
)
;
    }
}


// ************************************************************************* //
