/*--------------------------------*- C++ -*----------------------------------*\
  =========                 |
  \\      /  F ield         | OpenFOAM: The Open Source CFD Toolbox
   \\    /   O peration     | Website:  https://openfoam.org
    \\  /    A nd           | Version:  7
     \\/     M anipulation  |
\*---------------------------------------------------------------------------*/
FoamFile
{
    version     2.0;
    format      ascii;
    class       surfaceScalarField;
    location    "15";
    object      phi;
}
// * * * * * * * * * * * * * * * * * * * * * * * * * * * * * * * * * * * * * //

dimensions      [0 3 -1 0 0 0 0];

internalField   nonuniform List<scalar> 
4148
(
0.0676199
0.0184316
0.0156413
0.0541155
0.0644795
0.0187816
0.0125182
0.0414076
0.015714
0.0509196
0.0611749
0.0190186
0.00679943
0.022889
0.00940809
0.0301501
0.0124018
0.038414
0.0156935
0.0476278
0.0577223
0.0191461
0.0044552
0.0149537
0.00659787
0.0207463
0.00919443
0.0275536
0.0122148
0.0353936
0.0155846
0.0442581
0.0541363
0.0191707
0.00263538
0.00892802
0.00426972
0.0133194
0.00636359
0.0186525
0.00893179
0.0249854
0.0119611
0.0323643
0.0153928
0.0408263
0.0504279
0.0191013
0.00134709
0.00464126
0.00249547
0.00777964
0.00406589
0.011749
0.00609844
0.0166199
0.00862222
0.0224616
0.0116431
0.0293434
0.0151232
0.0373462
0.046602
0.0189491
0.00126032
0.00391787
0.00234671
0.00669325
0.0038449
0.0102508
0.00580361
0.0146612
0.0082664
0.0199988
0.011261
0.0263488
0.0147782
0.0338289
0.042654
0.0187262
0.000495935
0.00147909
0.00117011
0.00324369
0.0021899
0.00567346
0.00360772
0.00883295
0.00547966
0.0127893
0.00786325
0.0176152
0.0108109
0.0234011
0.0143542
0.0302856
0.038566
0.0184423
0.000108984
0.000210645
0.000454043
0.00113404
0.00107699
0.00262074
0.00202593
0.00472452
0.00335541
0.00750347
0.00512686
0.0110178
0.00740983
0.0153323
0.0102831
0.0205279
0.0138362
0.0267325
0.0343067
0.0180955
9.80159e-05
0.000112629
0.000411501
0.000820551
0.000981599
0.00205065
0.00185598
0.00385015
0.00308956
0.00626988
0.00474608
0.00936128
0.00690219
0.0131762
0.00965823
0.0177718
0.0131786
0.0232122
0.0298279
0.0176573
8.70317e-05
2.55976e-05
0.000368652
0.00053893
0.00088481
0.00153449
0.00168177
0.00305318
0.00281301
0.00513865
0.00434073
0.00783356
0.00634
0.0111769
0.00891134
0.0152005
0.0122572
0.0198663
0.0249585
0.0171266
7.61315e-05
-5.05339e-05
0.000325922
0.000289139
0.000787721
0.00107269
0.00150567
0.00233524
0.00253035
0.00411397
0.00391936
0.00644455
0.00573824
0.00935801
0.00806185
0.0128769
0.0109374
0.0169908
0.0216603
0.0142356
6.54286e-05
-0.000115963
0.000283783
7.07852e-05
0.000691571
0.0006649
0.00133042
0.00169639
0.00224748
0.0031969
0.0034952
0.00519683
0.00513004
0.00772317
0.00720998
0.010797
0.00977647
0.0144243
0.0185261
0.0129107
5.50344e-05
-0.000170997
0.000242694
-0.000116874
0.000597549
0.000310046
0.00115865
0.00113529
0.00196982
0.00238573
0.00307934
0.00408731
0.00453888
0.00626363
0.006404
0.00893184
0.00873746
0.0120909
0.0156255
0.011638
4.50425e-05
-0.000216039
0.000203044
-0.000274876
0.000506645
6.44508e-06
0.000992425
0.000649509
0.00170126
0.0016769
0.00267828
0.00311028
0.00397287
0.00496904
0.00564143
0.00726328
0.00775537
0.00997691
0.0129697
0.0104112
3.55199e-05
-0.000251559
0.000165122
-0.000404479
0.000419584
-0.000248016
0.000833196
0.000235897
0.00144423
0.00106587
0.00229527
0.00225924
0.0034341
0.00383021
0.00491707
0.00578032
0.00681579
0.00807819
0.0105701
0.00921542
2.65061e-05
-0.000278065
0.000129114
-0.000507087
0.000336831
-0.000455733
0.000681843
-0.000109115
0.00120007
0.00054764
0.00193182
0.00152749
0.00292305
0.00283898
0.00422838
0.00447498
0.00591456
0.00639201
0.00843482
0.00804986
1.80169e-05
-0.000296082
9.5119e-05
-0.000584189
0.000258646
-0.000619259
0.000538834
-0.000389303
0.00096942
0.000117053
0.00158842
0.000908496
0.00243945
0.00198795
0.00357375
0.00334068
0.00505028
0.00491548
0.00656481
0.00692028
1.00521e-05
-0.000306134
6.31756e-05
-0.000637312
0.000185145
-0.000741229
0.00040437
-0.000608528
0.000752482
-0.00023106
0.00126509
0.000395886
0.0019829
0.00127014
0.00295252
0.00237105
0.00422401
0.00364399
0.00495466
0.00583417
2.60792e-06
-0.000308742
3.32898e-05
-0.000667994
0.000116371
-0.00082431
0.000278525
-0.000770682
0.000549314
-0.000501849
0.000961808
-1.66079e-05
0.00155331
0.000678635
0.00236514
0.00155922
0.00343856
0.00257057
0.00359413
0.00479909
-4.34206e-06
-0.0003044
5.46595e-06
-0.000677802
5.23491e-05
-0.000871193
0.000161353
-0.000879686
0.000359991
-0.000700487
0.00067869
-0.000335306
0.00115109
0.000206234
0.00181301
0.000897304
0.00269767
0.00168591
0.00246957
0.00382223
-1.07761e-05
-0.000293624
-2.02931e-05
-0.000668285
-6.8694e-06
-0.000884617
5.29627e-05
-0.000939518
0.000184719
-0.000832243
0.000416147
-0.000566734
0.000777153
-0.000154772
0.00129822
0.000376241
0.00200556
0.000978565
0.0015648
0.00291033
-1.67026e-05
-0.000276922
-4.3944e-05
-0.000641044
-6.11914e-05
-0.00086737
-4.64422e-05
-0.000954268
2.38755e-05
-0.000902561
0.000174883
-0.000717742
0.000432858
-0.000412747
0.000823341
-1.4242e-05
0.00136662
0.000435288
0.000861911
0.00206951
-2.21023e-05
-0.000254819
-6.54181e-05
-0.000597728
-0.000110447
-0.000822341
-0.00013655
-0.000928164
-0.000121986
-0.000917125
-4.41277e-05
-0.000795601
0.000119884
-0.000576759
0.000391277
-0.000285635
0.000785263
4.13021e-05
0.000341485
0.00130569
-2.69485e-05
-0.000227871
-8.46191e-05
-0.000540057
-0.000154421
-0.000752539
-0.000216953
-0.000865632
-0.000252161
-0.000881917
-0.000239717
-0.000808044
-0.000159895
-0.000656581
4.21252e-06
-0.000449743
0.000266126
-0.000220612
-1.70214e-05
0.000624633
-3.12071e-05
-0.000196664
-0.000101428
-0.000469837
-0.000192853
-0.000661114
-0.000287177
-0.000771308
-0.000365848
-0.000803246
-0.000410588
-0.000763304
-0.000404311
-0.000662859
-0.000332831
-0.000521222
-0.000188678
-0.000364765
-0.000223642
1.79427e-05
-3.4839e-05
-0.000161825
-0.000115711
-0.000388964
-0.00022546
-0.000551366
-0.000346714
-0.000650053
-0.000462216
-0.000687745
-0.000555433
-0.000670088
-0.000611534
-0.000606757
-0.000619177
-0.000513579
-0.000572796
-0.000411146
-0.000324874
-0.000471564
-3.78044e-05
-0.00012402
-0.000127337
-0.000299432
-0.00025196
-0.000426742
-0.000395066
-0.000506947
-0.000540456
-0.000542354
-0.000673024
-0.00053752
-0.000779754
-0.000500027
-0.000851385
-0.000441947
-0.00088398
-0.000378552
-0.000329002
-0.000879851
-4.0066e-05
-8.39544e-05
-0.00013618
-0.000203318
-0.000272093
-0.000290829
-0.000431777
-0.000347263
-0.000599844
-0.000374287
-0.000762271
-0.000375092
-0.000907409
-0.000354889
-0.00102754
-0.000321813
-0.00112014
-0.000285954
-0.000260106
-0.00118904
-4.15927e-05
-0.000142137
-0.000285644
-0.000456475
-0.000176432
-0.000639788
-0.000190974
-0.00082229
-0.00019259
-0.000993248
-0.000183931
-0.00114597
-0.00016909
-0.00127884
-0.000153082
-0.000142316
-0.00139663
-0.000468892
-0.000659868
-0.000852459
-0.00103639
-0.00120548
-0.00135857
-0.00150088
0.217889
-0.00133157
0.21932
-0.00143111
0.220849
-0.00152915
0.222475
-0.00162552
0.224195
-0.00172005
0.226008
-0.00181255
0.22791
-0.00190287
0.229901
-0.0019908
0.231977
-0.00207612
0.234136
-0.00215853
-0.00223739
0.236373
0.207986
-0.00260819
0.209357
-0.0028023
0.210821
-0.00299345
0.212377
-0.00318131
0.214022
-0.00336556
0.215756
-0.00354586
0.217575
-0.00372187
0.219477
-0.00389321
0.22146
-0.00405946
0.223522
-0.00421999
-0.00437353
0.225658
0.198724
-0.0038384
0.200044
-0.00412264
0.201453
-0.00440253
0.202949
-0.00467758
0.204531
-0.00494731
0.206196
-0.00521122
0.207943
-0.00546884
0.20977
-0.0057196
0.211673
-0.00596287
0.213651
-0.00619772
-0.00642223
0.2157
0.190036
-0.00502859
0.191312
-0.00539896
0.192673
-0.00576362
0.194118
-0.00612196
0.195644
-0.00647334
0.19725
-0.00681714
0.198934
-0.0071527
0.200693
-0.00747933
0.202527
-0.00779616
0.204431
-0.00810198
-0.00839419
0.206403
0.181862
-0.00618409
0.1831
-0.00663692
0.184419
-0.00708275
0.185818
-0.00752083
0.187295
-0.00795041
0.188849
-0.00837071
0.190477
-0.00878094
0.192178
-0.00918024
0.193949
-0.00956755
0.195789
-0.00994134
-0.0102983
0.197693
0.174153
-0.00730928
0.175357
-0.00784116
0.176639
-0.00836484
0.177998
-0.00887942
0.179431
-0.00938401
0.180938
-0.00987772
0.182517
-0.0103596
0.184165
-0.0108287
0.185882
-0.0112836
0.187663
-0.0117227
-0.0121417
0.189506
0.166865
-0.00840779
0.168039
-0.00901557
0.169288
-0.00961399
0.170611
-0.010202
0.172006
-0.0107787
0.173471
-0.011343
0.175005
-0.0118937
0.176606
-0.0124299
0.178272
-0.0129499
0.180001
-0.0134517
-0.0139303
0.18179
0.159961
-0.00948269
0.161109
-0.0101634
0.162328
-0.0108336
0.163619
-0.0114923
0.164978
-0.0121382
0.166406
-0.0127703
0.167899
-0.0133874
0.169457
-0.0139881
0.171078
-0.0145708
0.17276
-0.0151329
-0.0156688
0.174498
0.15341
-0.0105365
0.154534
-0.0112873
0.155727
-0.0120266
0.156988
-0.0127532
0.158315
-0.0134658
0.159708
-0.0141632
0.161165
-0.014844
0.162684
-0.0155068
0.164263
-0.0161497
0.1659
-0.01677
-0.0173608
0.167592
0.147185
-0.0115715
0.148287
-0.0123896
0.149456
-0.0131953
0.15069
-0.0139872
0.151988
-0.0147638
0.153349
-0.015524
0.154771
-0.0162661
0.156253
-0.0169886
0.157793
-0.0176894
0.159388
-0.0183654
-0.0190088
0.161036
0.141262
-0.0125895
0.142345
-0.0134723
0.143491
-0.0143417
0.1447
-0.0151962
0.145971
-0.0160344
0.147301
-0.0168548
0.148691
-0.0176557
0.150138
-0.0184353
0.15164
-0.0191914
0.153195
-0.0199205
-0.0206139
0.1548
0.134618
-0.0126343
0.13562
-0.0135918
0.136685
-0.0145366
0.13781
-0.0154671
0.138996
-0.0163818
0.14024
-0.0172788
0.141542
-0.0181567
0.1429
-0.0190135
0.144312
-0.0198474
0.145776
-0.0206556
0.14729
-0.0214345
-0.0221748
0.148851
0.129253
-0.0135619
0.130241
-0.0145795
0.131288
-0.0155837
0.132393
-0.0165725
0.133556
-0.0175443
0.134774
-0.0184972
0.136047
-0.0194294
0.137372
-0.0203387
0.138748
-0.0212231
0.140172
-0.0220795
0.141641
-0.0229038
-0.0236863
0.143153
0.124133
-0.0144781
0.125107
-0.015553
0.126136
-0.0166134
0.127221
-0.0176574
0.12836
-0.018683
0.129551
-0.0196881
0.130792
-0.0206705
0.132081
-0.0216279
0.133416
-0.0225576
0.134793
-0.0234564
0.136209
-0.0243197
-0.0251381
0.13766
0.119242
-0.0153825
0.1202
-0.0165113
0.121211
-0.0176245
0.122273
-0.0187198
0.123385
-0.0197949
0.124544
-0.0208473
0.125748
-0.0218744
0.126994
-0.0228734
0.128277
-0.0238412
0.129595
-0.0247741
0.130943
-0.0256672
-0.0265121
0.132316
0.114561
-0.0162732
0.115502
-0.0174519
0.116491
-0.0186133
0.117526
-0.0197547
0.118604
-0.0208734
0.119723
-0.0219663
0.120879
-0.0230303
0.122068
-0.0240619
0.123284
-0.0250574
0.124523
-0.0260127
0.125777
-0.0269222
-0.0277802
0.127046
0.110073
-0.0171463
0.110991
-0.0183694
0.11195
-0.0195729
0.112949
-0.0207533
0.113983
-0.0219074
0.115048
-0.0230313
0.116139
-0.024121
0.117249
-0.0251725
0.118373
-0.0261814
0.119503
-0.0271428
0.120632
-0.0280508
-0.0289042
0.121756
0.105754
-0.0179946
0.106639
-0.0192548
0.107558
-0.0204917
0.108506
-0.0217013
0.109478
-0.0228793
0.110468
-0.0240209
0.111468
-0.0251215
0.112472
-0.0261758
0.113469
-0.0271791
0.114452
-0.0281257
0.115411
-0.0290095
-0.0298361
0.116343
0.101576
-0.0188065
0.102415
-0.0200937
0.103276
-0.0213524
0.104152
-0.0225777
0.105037
-0.0237642
0.105922
-0.0249063
0.106799
-0.0259982
0.107657
-0.0270339
0.108486
-0.0280082
0.109275
-0.028915
0.110014
-0.029748
-0.0305219
0.1107
0.0975033
-0.0195653
0.0982756
-0.0208659
0.0990541
-0.022131
0.0998309
-0.0233545
0.100597
-0.02453
0.101341
-0.025651
0.102054
-0.0267106
0.102723
-0.0277025
0.103335
-0.0286211
0.103881
-0.0294605
0.104347
-0.0302138
-0.0309082
0.104733
0.0934938
-0.0202483
0.0941728
-0.0215449
0.0948389
-0.022797
0.0954818
-0.0239974
0.0960905
-0.0251387
0.096653
-0.0262135
0.097157
-0.0272146
0.0975897
-0.0281352
0.0979387
-0.0289701
0.0981923
-0.029714
0.0983383
-0.0303599
-0.0309489
0.098379
0.089498
-0.020827
0.090052
-0.0220989
0.0905702
-0.0233152
0.0910409
-0.0244681
0.0914516
-0.0255495
0.0917895
-0.0265514
0.0920416
-0.0274667
0.0921953
-0.0282889
0.092239
-0.0290139
0.0921622
-0.0296372
0.0919537
-0.0301514
-0.0306135
0.0916183
0.0854633
-0.0212691
0.085857
-0.0224926
0.0861901
-0.0236484
0.08645
-0.024728
0.0866236
-0.0257231
0.0866984
-0.0266262
0.086662
-0.0274303
0.0865034
-0.0281304
0.0862132
-0.0287236
0.0857831
-0.029207
0.0852038
-0.0295721
-0.0298918
0.084482
0.0813384
-0.0215409
0.0815371
-0.0226913
0.0816502
-0.0237614
0.0816649
-0.0247427
0.0815691
-0.0256273
0.0813516
-0.0264086
0.0810023
-0.0270811
0.080513
-0.0276411
0.0798776
-0.0280882
0.0790911
-0.0284206
0.0781464
-0.0286273
-0.0287959
0.0770506
0.0770804
-0.0216111
0.0770537
-0.0226647
0.0769182
-0.0236259
0.0766624
-0.0244869
0.0762761
-0.0252411
0.0757509
-0.0258834
0.0750802
-0.0264103
0.0742597
-0.0268206
0.0732876
-0.0271161
0.0721627
-0.0272957
0.0708791
-0.0273437
-0.0273588
0.0694419
0.0726617
-0.021455
0.0723875
-0.0223906
0.0719852
-0.0232235
0.0714455
-0.0239472
0.0707615
-0.0245571
0.0699285
-0.0250504
0.0689443
-0.0254262
0.0678097
-0.025686
0.0665278
-0.0258342
0.0651011
-0.025869
0.0635239
-0.0257665
-0.0256294
0.0617946
0.0680769
-0.0210577
0.067545
-0.0218586
0.0668707
-0.0225491
0.0660482
-0.0231248
0.0650743
-0.0235832
0.0639486
-0.0239247
0.062674
-0.0241515
0.0612563
-0.0242683
0.0597038
-0.0242816
0.0580232
-0.0241885
0.0562095
-0.0239528
-0.0236689
0.054249
0.0633389
-0.0204156
0.0625512
-0.021071
0.0616135
-0.0216114
0.0605238
-0.022035
0.0592829
-0.0223424
0.057895
-0.0225368
0.0563676
-0.0226241
0.0547111
-0.0226118
0.0529377
-0.0225082
0.0510572
-0.022308
0.0490656
-0.0219612
-0.0215353
0.0469319
0.0584739
-0.0195336
0.0574403
-0.0200373
0.0562544
-0.0204256
0.0549185
-0.020699
0.0534376
-0.0208615
0.0518205
-0.0209196
0.0500787
-0.0208823
0.0482268
-0.02076
0.0462809
-0.0205623
0.0442562
-0.0202833
0.0421554
-0.0198604
-0.0192928
0.039913
0.0535764
0.0523207
0.0509137
0.0493608
0.0476699
0.0458516
0.0439183
0.0418845
0.0397645
0.0375767
0.0353736
0.0332074
0.237012
-0.000638371
0.237647
-0.000635626
0.238276
-0.000628812
0.238893
-0.000617412
0.239494
-0.000600788
0.240073
-0.000578451
0.240623
-0.000550038
0.241138
-0.000515264
0.241612
-0.000473921
0.242038
-0.000425916
0.242409
-0.000371301
0.242719
-0.000310295
0.242963
-0.00024329
0.243134
-0.000170863
0.243227
-9.37719e-05
0.24324
-1.29381e-05
0.24317
7.05572e-05
0.243014
0.000155561
0.242773
0.00024077
0.242448
0.000325115
0.242041
0.000407059
0.241555
0.000486478
0.240994
0.000560749
0.240361
0.00063338
0.239664
0.000696615
0.238898
0.000765824
0.238083
0.000815149
0.23719
0.000892569
0.236265
0.000925882
0.00102595
0.226272
-0.00125189
0.226882
-0.00124579
0.227484
-0.00123156
0.228075
-0.00120822
0.228649
-0.00117452
0.2292
-0.00112953
0.229723
-0.00107258
0.23021
-0.00100315
0.230657
-0.000920861
0.231057
-0.000825573
0.231403
-0.000717428
0.23169
-0.000596893
0.231911
-0.00046478
0.232063
-0.000322252
0.23214
-0.000170823
0.232139
-1.23241e-05
0.232059
0.000151118
0.231897
0.000317231
0.231654
0.000483499
0.231332
0.000647775
0.230931
0.000807253
0.230456
0.000961338
0.229911
0.00110579
0.229299
0.00124575
0.228626
0.00136972
0.227891
0.00150076
0.227104
0.00160173
0.226254
0.00174284
0.225356
0.00182377
0.0020008
0.216293
-0.00184534
0.216882
-0.00183435
0.217461
-0.00181121
0.218027
-0.00177443
0.218575
-0.00172219
0.219099
-0.00165318
0.219593
-0.00156647
0.220051
-0.00146134
0.220467
-0.00133733
0.220836
-0.00119431
0.221151
-0.00103258
0.221407
-0.000852914
0.221599
-0.000656598
0.221722
-0.000445424
0.221773
-0.000221689
0.221749
1.18627e-05
0.221648
0.000252076
0.22147
0.000495592
0.221214
0.000738752
0.220884
0.000978397
0.22048
0.00121058
0.220007
0.00143427
0.219469
0.00164387
0.218869
0.001846
0.218213
0.0020259
0.2175
0.00221394
0.216739
0.00236216
0.215919
0.00256335
0.215056
0.00268642
0.00293988
0.20698
-0.00242253
0.20755
-0.00240455
0.208109
-0.00237029
0.208653
-0.00231779
0.209175
-0.00224469
0.209671
-0.00214937
0.210136
-0.00203071
0.210562
-0.0018879
0.210945
-0.00172044
0.211279
-0.0015283
0.211559
-0.00131205
0.211779
-0.00107284
0.211934
-0.000812507
0.212023
-0.000533525
0.21204
-0.00023901
0.211984
6.73607e-05
0.211855
0.000381422
0.211652
0.000698762
0.211376
0.00101466
0.211029
0.00132501
0.210615
0.00162489
0.210136
0.00191286
0.209598
0.0021823
0.209003
0.00244107
0.208357
0.00267192
0.207659
0.00291162
0.206919
0.0031028
0.206122
0.00335958
0.205288
0.00352076
0.00384891
0.198256
-0.00298606
0.19881
-0.00295839
0.19935
-0.00291018
0.199871
-0.00283901
0.200369
-0.00274203
0.200837
-0.00261739
0.20127
-0.00246387
0.201663
-0.00228064
0.202009
-0.00206729
0.202305
-0.001824
0.202545
-0.00155167
0.202724
-0.00125196
0.202839
-0.000927311
0.202886
-0.000580956
0.202864
-0.000216866
0.202771
0.000160337
0.202607
0.000545493
0.202372
0.000933183
0.202069
0.00131771
0.2017
0.00169411
0.201269
0.00205666
0.200778
0.00240354
0.200233
0.00272751
0.199636
0.00303732
0.198994
0.0033142
0.198306
0.00360009
0.197578
0.00383015
0.1968
0.00413784
0.195987
0.00433355
0.00473429
0.190058
-0.00353748
0.190596
-0.0034969
0.191117
-0.00343134
0.191616
-0.00333795
0.192088
-0.00321346
0.192526
-0.00305587
0.192926
-0.00286398
0.193283
-0.00263704
0.19359
-0.00237485
0.193844
-0.00207789
0.19404
-0.00174751
0.194174
-0.00138597
0.194243
-0.000996406
0.194245
-0.000582856
0.194178
-0.000150188
0.194043
0.000296038
0.193839
0.000749679
0.193567
0.00120437
0.193232
0.00165354
0.192834
0.00209145
0.192379
0.00251181
0.19187
0.00291236
0.191312
0.00328578
0.190708
0.00364111
0.190063
0.00395955
0.189377
0.00428601
0.188655
0.00455168
0.187888
0.00490482
0.187089
0.00513258
0.00560263
0.18233
-0.00407745
0.182853
-0.00402016
0.183355
-0.00393329
0.183831
-0.00381356
0.184275
-0.00365738
0.184681
-0.0034627
0.185046
-0.00322845
0.185363
-0.00295409
0.185628
-0.00263971
0.185836
-0.00228623
0.185984
-0.00189556
0.186069
-0.00147061
0.186088
-0.00101531
0.186039
-0.000534547
0.185923
-3.41344e-05
0.18574
0.000479475
0.18549
0.000999162
0.185177
0.00151769
0.184803
0.00202774
0.184372
0.00252285
0.183887
0.00299644
0.183354
0.00344567
0.182776
0.00386388
0.182157
0.00425936
0.181501
0.0046155
0.180811
0.00497659
0.180087
0.00527572
0.179324
0.00566747
0.17853
0.00592646
0.00646011
0.175026
-0.00460569
0.175533
-0.00452731
0.176015
-0.00441459
0.176465
-0.00426388
0.176879
-0.00407131
0.177251
-0.00383492
0.177577
-0.00355391
0.177851
-0.00322806
0.178069
-0.00285784
0.178227
-0.00244471
0.178323
-0.00199124
0.178353
-0.00150111
0.178317
-0.000979072
0.178214
-0.000430922
0.178043
0.00013662
0.177806
0.000716138
0.177506
0.00129965
0.177144
0.00187909
0.176725
0.00244652
0.176254
0.00299479
0.175733
0.00351734
0.175168
0.00401054
0.174562
0.00446924
0.173922
0.00489962
0.173247
0.00529014
0.172545
0.00567943
0.171809
0.00601099
0.171044
0.00643249
0.170247
0.00672392
0.00731178
0.168107
-0.00512089
0.168596
-0.0050164
0.169054
-0.0048727
0.169476
-0.00468578
0.169856
-0.0044516
0.17019
-0.00416844
0.170472
-0.00383588
0.170698
-0.0034541
0.170864
-0.00302408
0.170967
-0.00254793
0.171005
-0.00202895
0.170975
-0.00147163
0.170878
-0.000881652
0.170713
-0.000265741
0.170481
0.000368502
0.170184
0.00101266
0.169826
0.00165798
0.16941
0.0022956
0.168939
0.00291709
0.168419
0.00351469
0.167854
0.00408211
0.16725
0.00461469
0.16661
0.00510974
0.16594
0.00556964
0.165238
0.00599151
0.164516
0.00640173
0.163761
0.00676558
0.162988
0.00720542
0.16218
0.00753266
0.00816049
0.161536
-0.00562039
0.162003
-0.00548405
0.162434
-0.00530357
0.162823
-0.00507459
0.163164
-0.00479302
0.163453
-0.00445755
0.163686
-0.00406822
0.163857
-0.00362572
0.163965
-0.00313162
0.164006
-0.00258876
0.163978
-0.00200129
0.163881
-0.00137459
0.163715
-0.000715258
0.16348
-3.10875e-05
0.163179
0.000669554
0.162815
0.00137716
0.16239
0.00208228
0.16191
0.00277535
0.16138
0.00344754
0.160804
0.00409052
0.160188
0.00469859
0.159537
0.00526573
0.158854
0.00579275
0.158147
0.00627635
0.157412
0.00672633
0.156665
0.00714913
0.155885
0.00754557
0.155101
0.00798949
0.154275
0.00835797
0.00900607
0.155279
-0.0060996
0.15572
-0.00592487
0.156117
-0.00570105
0.156466
-0.00542345
0.156761
-0.0050881
0.156998
-0.00469422
0.157172
-0.00424244
0.157281
-0.00373401
0.15732
-0.00317122
0.157289
-0.00255772
0.157186
-0.00189857
0.157012
-0.00120017
0.156767
-0.000470106
0.156453
0.000282903
0.156073
0.00104934
0.155631
0.00181898
0.155132
0.00258158
0.15458
0.00332692
0.153982
0.00404596
0.153343
0.00472981
0.152668
0.00537367
0.151963
0.00596986
0.151232
0.00652377
0.150484
0.00702441
0.149712
0.00749856
0.148937
0.00792434
0.148129
0.00835356
0.147334
0.00878452
0.14649
0.00920142
0.00984463
0.149302
-0.00655112
0.149708
-0.00633062
0.150063
-0.00605606
0.150362
-0.00572246
0.1506
-0.00532623
0.150773
-0.00486733
0.150878
-0.00434699
0.150911
-0.0037671
0.15087
-0.00313076
0.150755
-0.00244259
0.150565
-0.00170867
0.150302
-0.000936429
0.149966
-0.00013459
0.149562
0.00068719
0.149093
0.00151828
0.148564
0.00234769
0.147981
0.00316449
0.14735
0.00395793
0.146677
0.00471887
0.145969
0.00543795
0.145231
0.00611157
0.144471
0.00673019
0.14369
0.0073047
0.1429
0.00781466
0.14209
0.00830792
0.141289
0.00872589
0.140455
0.00918745
0.139653
0.00958621
0.138795
0.0100599
0.0106685
0.143565
-0.00696352
0.143923
-0.00668912
0.144223
-0.00635559
0.144458
-0.0059578
0.144625
-0.00549305
0.14472
-0.00496212
0.14474
-0.00436688
0.144683
-0.00370993
0.144547
-0.00299536
0.144333
-0.00222885
0.144042
-0.00141762
0.143676
-0.000570276
0.143238
0.000303421
0.142733
0.00119262
0.142165
0.00208581
0.141542
0.0029712
0.140869
0.00383732
0.140154
0.00467301
0.139404
0.00546921
0.138625
0.00621625
0.137825
0.00691203
0.13701
0.007545
0.136182
0.00813242
0.135354
0.00864281
0.134513
0.00914884
0.133692
0.00954736
0.132839
0.0100399
0.13204
0.0103859
0.131174
0.0109255
0.0114666
0.138017
-0.00732021
0.138311
-0.00698338
0.138538
-0.00658197
0.138691
-0.00611129
0.138768
-0.00557015
0.138767
-0.00496027
0.138684
-0.00428407
0.138519
-0.00354504
0.138272
-0.00274837
0.137944
-0.001901
0.137538
-0.00101135
0.137057
-8.93294e-05
0.136506
0.00085437
0.135891
0.00180758
0.135219
0.00275808
0.134496
0.00369339
0.133732
0.00460168
0.132934
0.00547157
0.132108
0.00629434
0.131264
0.0070602
0.130408
0.00776882
0.129546
0.0084066
0.128681
0.00899788
0.127824
0.0094989
0.126963
0.0100102
0.126133
0.0103773
0.125275
0.0108983
0.124489
0.0111713
0.123629
0.0117857
0.0122253
0.132595
-0.00759864
0.132803
-0.00719121
0.132934
-0.00671292
0.132983
-0.00616074
0.132949
-0.00553595
0.13283
-0.00484109
0.132625
-0.00407908
0.132334
-0.00325441
0.131959
-0.00237366
0.131504
-0.00144509
0.130971
-0.000478401
0.130366
0.000515402
0.129696
0.00152423
0.128968
0.00253522
0.128191
0.00353535
0.127373
0.00451174
0.126522
0.00545243
0.125647
0.0063461
0.124757
0.00718466
0.123859
0.00795838
0.122959
0.00866903
0.122064
0.00930098
0.121176
0.0098861
0.120308
0.0103675
0.119442
0.0108758
0.118619
0.0112001
0.117771
0.0117461
0.117016
0.0119271
0.116177
0.0126246
0.0129299
0.127218
-0.00777077
0.127313
-0.00728613
0.127323
-0.00672282
0.127244
-0.00608178
0.127076
-0.00536785
0.126819
-0.00458406
0.126473
-0.00373368
0.126041
-0.00282254
0.125526
-0.00185872
0.124933
-0.00085184
0.124268
0.000187143
0.123537
0.00124612
0.122749
0.00231186
0.121913
0.00337093
0.121039
0.00440983
0.120135
0.00541556
0.119211
0.00637637
0.118276
0.00728128
0.117338
0.00812313
0.116403
0.00889251
0.115479
0.00959349
0.114571
0.0102085
0.11368
0.0107771
0.112819
0.0112289
0.111969
0.0117259
0.111172
0.0119971
0.110354
0.012564
0.109645
0.0126366
0.108845
0.013424
0.0135658
0.12179
-0.00780529
0.121744
-0.00723991
0.121607
-0.00658564
0.121376
-0.00585114
0.121054
-0.00504579
0.120643
-0.00417241
0.120144
-0.00323468
0.119561
-0.00224003
0.118901
-0.00119813
0.118169
-0.00012002
0.117373
0.00098252
0.116524
0.00209598
0.115629
0.0032067
0.114699
0.00430076
0.113744
0.00536463
0.112774
0.0063855
0.111798
0.0073522
0.110825
0.00825443
0.109862
0.0090862
0.108916
0.00983859
0.107991
0.0105182
0.107094
0.0111053
0.106224
0.0116477
0.105392
0.0120609
0.104579
0.0125387
0.103828
0.0127485
0.10306
0.0133317
0.102413
0.0132834
0.101671
0.0141657
0.0141197
0.11621
-0.00767197
0.115996
-0.00702678
0.11569
-0.00627925
0.11529
-0.00545104
0.114801
-0.00455643
0.114225
-0.00359714
0.113568
-0.00257751
0.112835
-0.00150696
0.112034
-0.000396685
0.111172
0.00074136
0.110261
0.00189412
0.109309
0.0030477
0.108328
0.00418803
0.107327
0.00530123
0.106318
0.0063741
0.105309
0.00739443
0.104309
0.00835192
0.103326
0.00923721
0.102367
0.0100457
0.101436
0.010769
0.100538
0.0114163
0.0996773
0.0119661
0.0988514
0.0124736
0.0980716
0.0128407
0.0973176
0.0132927
0.096631
0.013435
0.0959327
0.0140301
0.0953634
0.0138527
0.0946968
0.0148324
0.0145809
0.110375
-0.00734756
0.109977
-0.00662868
0.109488
-0.00579032
0.108911
-0.00487363
0.108251
-0.00389703
0.107515
-0.0028603
0.106706
-0.00176914
0.105834
-0.000635178
0.104909
0.000529263
0.103938
0.00171138
0.102935
0.00289752
0.101909
0.00407368
0.100871
0.00522591
0.0998317
0.00634077
0.0988
0.00740581
0.0977847
0.00840969
0.0967934
0.00934328
0.0958323
0.0101982
0.0949066
0.0109715
0.0940203
0.0116553
0.0931755
0.0122612
0.0923759
0.0127657
0.0916178
0.0132317
0.0909112
0.0135473
0.0902356
0.0139684
0.089631
0.0140396
0.0890189
0.0146422
0.0885394
0.0143322
0.0879628
0.015409
0.0149416
0.104207
-0.00682207
0.103619
-0.00604013
0.102947
-0.00511849
0.102198
-0.00412427
0.101379
-0.00307786
0.100495
-0.00197679
0.0995552
-0.000829228
0.0985688
0.000351181
0.0975466
0.00155147
0.0964995
0.00275846
0.0954385
0.00395853
0.0943742
0.00513799
0.0933166
0.00628354
0.0922748
0.00738256
0.091257
0.00842357
0.0902704
0.00939635
0.0893207
0.010293
0.0884127
0.0111062
0.0875498
0.0118344
0.0867346
0.0124704
0.0859677
0.0130281
0.0852516
0.0134818
0.0845815
0.0139018
0.0839661
0.0141627
0.0833851
0.0145493
0.0828762
0.0145486
0.0823636
0.0151547
0.0819828
0.014713
0.0815079
0.0158839
0.0151977
0.0976602
-0.00610326
0.0968915
-0.00527142
0.0960515
-0.00427846
0.0951498
-0.00322256
0.0941943
-0.0021224
0.0931916
-0.000974117
0.0921518
0.000210599
0.0910861
0.00141686
0.0900058
0.00263176
0.0889218
0.00384255
0.0878441
0.00503615
0.0867824
0.00619973
0.085745
0.00732095
0.0847393
0.00838821
0.0837718
0.00939113
0.0828475
0.0103206
0.0819706
0.0111699
0.0811441
0.0119327
0.0803697
0.0126089
0.0796487
0.0131914
0.0789801
0.0136967
0.0783654
0.0140965
0.0777991
0.0144681
0.0772886
0.0146731
0.0768143
0.0150237
0.0764106
0.0149522
0.0760069
0.0155585
0.0757302
0.0149897
0.0753651
0.016249
0.0153482
0.0907331
-0.00521813
0.0898103
-0.00434859
0.088831
-0.00329921
0.0878092
-0.0022007
0.0867523
-0.00106557
0.0856688
0.000109449
0.0845704
0.00130894
0.0834692
0.00251804
0.0823757
0.00372525
0.0812995
0.00491878
0.080249
0.00608665
0.0792316
0.00721716
0.0782535
0.00829903
0.0773201
0.00932164
0.0764356
0.0102756
0.0756033
0.0111529
0.0748255
0.0119476
0.0741037
0.0126545
0.073438
0.0132746
0.0728286
0.0138008
0.0722734
0.0142519
0.071773
0.0145968
0.0713213
0.0149199
0.0709247
0.0150697
0.0705643
0.015384
0.0702715
0.015245
0.0699816
0.0158484
0.0698107
0.0151606
0.0695596
0.0165001
0.0153951
0.0834741
-0.00421024
0.0824358
-0.00331022
0.0813571
-0.00222053
0.0802565
-0.00110012
0.0791418
4.91686e-05
0.0780234
0.0012278
0.0769148
0.00241754
0.0758267
0.00360619
0.0747675
0.00478441
0.0737444
0.00594187
0.0727632
0.00706792
0.0718284
0.0081519
0.0709441
0.00918334
0.0701134
0.0101524
0.0693385
0.0110505
0.0686212
0.0118702
0.0679622
0.0126066
0.0673617
0.0132551
0.0668187
0.0138176
0.0663324
0.0142871
0.0658999
0.0146844
0.0655211
0.0149756
0.0651896
0.0152514
0.0649109
0.0153484
0.0646676
0.0156274
0.064487
0.0154256
0.0643121
0.0160232
0.0642455
0.0152273
0.0641092
0.0166364
0.0153429
0.0759738
-0.00313342
0.0748652
-0.0022017
0.0737331
-0.00108836
0.0726008
3.21235e-05
0.0714771
0.00117283
0.0703753
0.00232961
0.0693076
0.00348524
0.0682817
0.00463215
0.0673025
0.00576359
0.0663737
0.00687067
0.065498
0.00794368
0.0646773
0.0089725
0.0639136
0.00994707
0.0632081
0.0108579
0.0625617
0.0116969
0.0619747
0.0124572
0.0614468
0.0131345
0.0609771
0.0137247
0.0605641
0.0142306
0.0602062
0.014645
0.0599001
0.0149906
0.0596451
0.0152306
0.0594347
0.0154617
0.0592737
0.0155094
0.0591463
0.0157548
0.0590759
0.0154961
0.0590137
0.0160853
0.0590471
0.0151939
0.0590231
0.0166604
0.0151981
0.0683514
-0.00204282
0.0672184
-0.00106872
0.0660809
4.91238e-05
0.0649671
0.00114588
0.0638874
0.00225254
0.0628552
0.00336182
0.0618786
0.00446186
0.06096
0.00555076
0.0601
0.0066236
0.0592986
0.00767208
0.0585556
0.0086866
0.0578713
0.00965686
0.0572457
0.0105726
0.0566791
0.0114245
0.0561714
0.0122046
0.0557221
0.0129064
0.0553303
0.0135263
0.0549946
0.0140603
0.0547129
0.0145124
0.0544833
0.0148746
0.054302
0.0151718
0.0541685
0.0153642
0.0540761
0.015554
0.0540289
0.0155566
0.054013
0.0157708
0.0540477
0.0154614
0.0540931
0.01604
0.0542202
0.0150668
0.0543034
0.0165772
0.0149689
0.0607374
-0.000985629
0.0596215
4.71545e-05
0.0585282
0.00114242
0.0574864
0.0021877
0.0565053
0.00323361
0.0555941
0.00427305
0.054753
0.00530291
0.0539784
0.00632538
0.0532666
0.0073354
0.0526149
0.00832383
0.0520213
0.00928012
0.0514851
0.0101931
0.0510057
0.011052
0.0505829
0.0118473
0.0502163
0.0125712
0.0499052
0.0132176
0.0496481
0.0137834
0.0494436
0.0142648
0.0492893
0.0146667
0.0491832
0.0149808
0.0491215
0.0152334
0.0491033
0.0153824
0.0491226
0.0155347
0.0491825
0.0154968
0.0492711
0.0156821
0.0494036
0.0153289
0.0495491
0.0158944
0.0497622
0.0148537
0.0499454
0.016394
0.0146641
0.0532544
8.96914e-06
0.0521948
0.00110675
0.0511998
0.00213741
0.0502873
0.00310023
0.0494588
0.00406211
0.0487133
0.00501853
0.0480419
0.00597437
0.0474356
0.00693164
0.0468885
0.00788252
0.0463967
0.00881563
0.0459582
0.00971863
0.0455722
0.0105791
0.0452384
0.0113858
0.0449568
0.0121289
0.044727
0.012801
0.0445484
0.0133962
0.0444196
0.0139122
0.044339
0.0143453
0.0443043
0.0147014
0.0443135
0.0149716
0.0443629
0.0151841
0.0444514
0.0152939