/*--------------------------------*- C++ -*----------------------------------*\
  =========                 |
  \\      /  F ield         | OpenFOAM: The Open Source CFD Toolbox
   \\    /   O peration     | Website:  https://openfoam.org
    \\  /    A nd           | Version:  7
     \\/     M anipulation  |
\*---------------------------------------------------------------------------*/
FoamFile
{
    version     2.0;
    format      ascii;
    class       volVectorField;
    location    "15";
    object      U;
}
// * * * * * * * * * * * * * * * * * * * * * * * * * * * * * * * * * * * * * //

dimensions      [0 1 -1 0 0 0 0];

internalField   nonuniform List<vector> 
2125
(
(1.0933 -0.0941571 -7.4792e-21)
(0.958278 -0.0566647 -2.0585e-20)
(1.05724 -0.0731078 -3.73402e-21)
(0.799466 -0.0179203 1.36699e-20)
(0.914822 -0.0389765 -1.60496e-21)
(1.01785 -0.0534127 1.80204e-20)
(0.512219 0.0274253 3.50255e-20)
(0.63214 0.0129778 -7.59777e-20)
(0.752328 -0.00439647 1.60468e-20)
(0.868994 -0.0233163 -1.28548e-20)
(0.975378 -0.0354298 -1.91534e-20)
(0.359639 0.0406269 6.92304e-21)
(0.469999 0.0332305 -5.93454e-20)
(0.585857 0.0215595 4.15241e-20)
(0.704013 0.00679385 -3.33159e-20)
(0.821146 -0.00990973 3.44396e-20)
(0.930139 -0.0195389 -1.37865e-21)
(0.229142 0.0421606 -9.83778e-23)
(0.324151 0.041972 2.35444e-20)
(0.428442 0.0369878 1.38902e-21)
(0.539593 0.0278859 -3.31565e-20)
(0.654897 0.0155946 -7.80191e-22)
(0.771626 0.00105288 -1.50042e-20)
(0.882458 -0.00613837 1.85657e-20)
(0.125936 0.0344642 4.21988e-21)
(0.202076 0.0402696 1.22342e-20)
(0.289962 0.0417231 -2.11221e-20)
(0.387837 0.0388515 5.06085e-20)
(0.493682 0.0320611 -1.37346e-22)
(0.605325 0.0220185 -4.22183e-21)
(0.720745 0.00943687 -2.87019e-20)
(0.832659 0.00436019 -4.49902e-21)
(0.107749 0.0309145 3.15685e-21)
(0.176541 0.0373122 -8.69065e-21)
(0.257267 0.0400847 -1.03799e-20)
(0.348442 0.0390227 -6.84336e-21)
(0.448426 0.0342573 -4.9244e-21)
(0.555594 0.0261674 6.59663e-21)
(0.66874 0.0151977 2.74076e-20)
(0.781002 0.0115495 2.1394e-20)
(0.0424286 0.0177647 1.72489e-20)
(0.0909631 0.0267907 -4.1059e-20)
(0.152641 0.0334896 2.37002e-20)
(0.226234 0.0372857 2.07822e-20)
(0.310488 0.0377465 -5.40915e-20)
(0.404096 0.0347208 1.50742e-20)
(0.505951 0.0282575 -7.10218e-22)
(0.615713 0.0184313 1.13415e-20)
(0.727599 0.015067 -2.34865e-20)
(0.00680144 0.00371004 4.58767e-20)
(0.0335697 0.0140604 -1.3546e-20)
(0.0756145 0.0222551 1.98485e-20)
(0.130457 0.0290088 1.27387e-20)
(0.197007 0.0335709 -7.51891e-21)
(0.274189 0.0353053 1.75312e-20)
(0.36095 0.0337755 -7.14675e-21)
(0.456592 0.02865 4.19094e-20)
(0.561543 0.0194294 -6.88789e-20)
(0.672173 0.0145632 -2.45178e-20)
(0.00429867 0.00210342 -1.33899e-20)
(0.025702 0.0102627 5.30096e-20)
(0.0617197 0.0174661 -4.31147e-20)
(0.11005 0.0240748 -1.46554e-21)
(0.169712 0.0291909 -2.09515e-20)
(0.239755 0.0320055 2.32644e-20)
(0.319272 0.0318219 2.53773e-20)
(0.407732 0.0279185 -1.27564e-20)
(0.505868 0.0188866 1.17598e-20)
(0.613387 0.00966942 1.47479e-20)
(0.00216653 0.000529277 2.4808e-21)
(0.0188086 0.00646995 -1.469e-20)
(0.0492782 0.0125734 1.83951e-20)
(0.0914597 0.0188821 -1.78607e-20)
(0.144462 0.0243841 -2.1936e-20)
(0.207411 0.0281476 -9.8454e-21)
(0.27944 0.0292988 -3.78939e-20)
(0.359835 0.0269056 2.36375e-20)
(0.448654 0.0187012 4.41197e-20)
(0.548748 0.00268111 -1.21252e-20)
(0.000389692 -0.000978684 8.00063e-21)
(0.0128615 0.00277225 6.4775e-21)
(0.0382719 0.00771286 -1.6375e-21)
(0.0747048 0.0136048 -3.03714e-20)
(0.121351 0.0193562 3.22388e-20)
(0.177393 0.0239703 3.65468e-20)
(0.241963 0.0265204 1.28074e-20)
(0.31395 0.0262567 -2.46768e-21)
(0.391895 0.0217027 -4.48204e-20)
(0.478264 0.00578102 1.53104e-20)
(-0.00105134 -0.0023908 -2.43479e-20)
(0.00782089 -0.000750776 -3.57099e-21)
(0.0286634 0.00300405 7.29415e-21)
(0.0597754 0.00839182 2.40961e-21)
(0.100435 0.0142684 9.44884e-21)
(0.149894 0.0196108 -5.82497e-20)
(0.20734 0.0234993 3.52202e-20)
(0.271598 0.0253441 -4.20278e-20)
(0.341214 0.0244376 3.1187e-20)
(0.42201 0.0120755 3.50512e-20)
(-0.00217996 -0.00368193 1.06888e-20)
(0.00363598 -0.00403053 -7.40233e-21)
(0.0203953 -0.00145018 3.44614e-21)
(0.0466286 0.00336874 -1.58752e-20)
(0.0817105 0.00924752 2.0222e-21)
(0.124984 0.01515 -4.11846e-21)
(0.175751 0.0201602 -2.19387e-20)
(0.232971 0.0236828 1.18443e-20)
(0.295459 0.0251433 2.19838e-20)
(0.370008 0.0156319 -3.26179e-20)
(-0.00302283 -0.00483152 -1.40945e-20)
(0.000245978 -0.0070094 -2.23992e-20)
(0.0133916 -0.00556244 1.82948e-20)
(0.0351891 -0.00135699 1.84267e-20)
(0.0651193 0.00440449 -4.58043e-20)
(0.10263 0.0106713 4.61649e-20)
(0.147149 0.0165075 -5.21266e-20)
(0.197796 0.0212076 1.45515e-20)
(0.253548 0.0239547 -1.57922e-20)
(0.320957 0.0162379 -2.39006e-20)
(-0.00360902 -0.00582337 7.36828e-21)
(-0.0024178 -0.00964018 1.78936e-20)
(0.00756058 -0.0092592 4.41287e-21)
(0.0253549 -0.0056921 5.21936e-21)
(0.0505579 -0.000156991 1.03324e-22)
(0.0827269 0.00627748 7.91839e-21)
(0.121411 0.0126391 1.61052e-20)
(0.165866 0.0180867 3.00772e-20)
(0.215194 0.0215258 -3.01495e-20)
(0.27531 0.0152325 1.03849e-20)
(-0.00396901 -0.00664525 -1.69366e-20)
(-0.00442956 -0.0118854 1.85573e-22)
(0.00279927 -0.0124797 5.89424e-21)
(0.0170045 -0.00955567 -1.13443e-20)
(0.0378937 -0.0043391 2.29743e-20)
(0.0651331 0.00208426 -5.49292e-20)
(0.0983804 0.00870264 2.98238e-20)
(0.137009 0.0145579 -2.76214e-20)
(0.18023 0.0183685 5.34833e-20)
(0.233182 0.0134121 1.3817e-20)
(-0.00413382 -0.00728847 9.23626e-21)
(-0.00586669 -0.0137165 -1.95432e-20)
(-0.00100266 -0.0151751 -6.28885e-21)
(0.0100039 -0.012879 9.18144e-21)
(0.0269753 -0.00805215 1.58868e-20)
(0.0496832 -0.00179135 2.77764e-21)
(0.0778815 0.00486076 -1.0008e-20)
(0.111043 0.0108645 2.32167e-20)
(0.148473 0.0148548 -1.31275e-20)
(0.194515 0.0111707 -1.2715e-21)
(-0.00413427 -0.0077475 2.3902e-20)
(-0.00680756 -0.0151136 7.22921e-21)
(-0.003959 -0.0173087 1.37082e-21)
(0.00421248 -0.0156064 -2.00992e-20)
(0.0176419 -0.0112178 1.84282e-20)
(0.0362006 -0.00524009 6.31107e-21)
(0.0597274 0.00126974 3.15978e-21)
(0.0877798 0.00723135 -7.27661e-21)
(0.119747 0.0112818 8.01302e-21)
(0.159233 0.00877257 1.38367e-20)
(-0.00400043 -0.00801965 -1.75439e-20)
(-0.00732981 -0.0160646 1.04573e-20)
(-0.00618367 -0.0188552 -1.26092e-21)
(-0.000511633 -0.017696 2.87132e-20)
(0.00973016 -0.0137723 -3.23997e-20)
(0.0245068 -0.00816776 1.09224e-20)
(0.0437323 -0.0019335 -6.98894e-21)
(0.0670397 0.00384856 -6.20438e-21)
(0.0938962 0.00787964 -1.90036e-20)
(0.127244 0.00641594 7.41878e-21)
(-0.00376119 -0.00810481 7.56213e-21)
(-0.00750892 -0.0165655 -2.06425e-20)
(-0.007788 -0.0198015 -1.21298e-20)
(-0.00430749 -0.0191207 -1.9606e-20)
(0.00308026 -0.0156691 5.4333e-21)
(0.0144278 -0.0105006 -1.90591e-21)
(0.029717 -0.0046397 -1.76772e-20)
(0.0486513 0.000863308 -3.75474e-21)
(0.0707696 0.0048138 -3.49904e-22)
(0.0984418 0.00424042 8.48767e-21)
(-0.00344425 -0.00800549 1.31304e-20)
(-0.00741717 -0.0166201 1.48931e-21)
(-0.00887854 -0.0201463 6.43805e-21)
(-0.00730812 -0.0198692 2.93895e-20)
(-0.00246015 -0.0168805 3.00561e-20)
(0.0057991 -0.0121885 -5.50618e-21)
(0.0175135 -0.00677103 1.4196e-20)
(0.0324534 -0.001621 -9.06603e-21)
(0.0502238 0.00219349 -5.44258e-21)
(0.0727063 0.0023379 -1.26929e-20)
(-0.00307572 -0.00772702 -1.67701e-20)
(-0.00712265 -0.0162394 1.54057e-20)
(-0.00955558 -0.0199005 8.16418e-21)
(-0.00963816 -0.0199461 -1.66503e-20)
(-0.00703305 -0.0173991 -1.93937e-20)
(-0.00153169 -0.0132063 6.33029e-21)
(0.00696701 -0.00828169 5.52103e-22)
(0.0182977 -0.00354194 2.86826e-20)
(0.0321237 8.18612e-05 1.74649e-20)
(0.0499169 0.000763695 -7.01942e-21)
(-0.00267998 -0.00727743 9.11558e-21)
(-0.00668877 -0.0154425 -4.45023e-21)
(-0.00991191 -0.019087 -1.66379e-20)
(-0.0114122 -0.0193717 7.31157e-21)
(-0.0107682 -0.017237 -2.49633e-22)
(-0.00770277 -0.0135532 -2.59229e-20)
(-0.00206244 -0.00915593 -1.56227e-21)
(0.00604953 -0.0048727 -2.64074e-20)
(0.0163437 -0.00149804 -1.20073e-20)
(0.0299604 -0.000457443 2.02057e-20)
(-0.00227962 -0.00666757 -1.10601e-20)
(-0.00617368 -0.014256 -1.0431e-21)
(-0.0100319 -0.01774 -7.75784e-22)
(-0.0127338 -0.0181816 -1.56498e-20)
(-0.0137816 -0.0164252 2.47511e-21)
(-0.012837 -0.0132517 1.58708e-20)
(-0.00969838 -0.00940521 -8.48498e-21)
(-0.00441105 -0.00561401 1.41883e-20)
(0.00276884 -0.00255662 6.55131e-21)
(0.0127411 -0.00131001 -7.2477e-21)
(-0.0018952 -0.0059112 6.97641e-21)
(-0.00562975 -0.0127139 1.47663e-20)
(-0.00999068 -0.0159052 -3.46683e-21)
(-0.0136943 -0.016426 7.53794e-21)
(-0.0161755 -0.0150127 5.22507e-21)
(-0.0170412 -0.0123452 -1.32384e-20)
(-0.016047 -0.00906703 3.40854e-21)
(-0.0131925 -0.00579903 -3.73807e-21)
(-0.00869097 -0.0031074 4.81646e-21)
(-0.00182159 -0.00174051 -9.80978e-21)
(-0.00154504 -0.00502496 -2.21409e-21)
(-0.00510307 -0.0108571 -9.5721e-21)
(-0.00985387 -0.0136383 1.40781e-20)
(-0.0143729 -0.014168 -7.44392e-21)
(-0.0180371 -0.0130641 3.61593e-21)
(-0.0204071 -0.0108959 1.11839e-20)
(-0.0212012 -0.00819904 -9.81469e-21)
(-0.0203769 -0.00548536 -2.44462e-21)
(-0.0180854 -0.00320332 2.95753e-22)
(-0.0138932 -0.00184472 1.1632e-20)
(-0.001245 -0.00402815 -6.77937e-22)
(-0.00463301 -0.00873322 -2.88547e-21)
(-0.00967681 -0.0110043 -1.24518e-20)
(-0.0148357 -0.0114824 2.55138e-21)
(-0.0194394 -0.0106578 2.19494e-21)
(-0.0230103 -0.00898131 -9.18097e-22)
(-0.0252361 -0.00687507 -2.59174e-22)
(-0.0260383 -0.00473933 -3.95888e-21)
(-0.0255228 -0.00291607 5.65382e-21)
(-0.0234935 -0.00174978 3.86233e-21)
(-0.00100813 -0.00294256 1.75634e-21)
(-0.00425171 -0.00639517 3.50139e-21)
(-0.00950432 -0.00807607 9.40606e-21)
(-0.0151361 -0.00845365 -5.08871e-21)
(-0.0204405 -0.00788335 -4.57408e-21)
(-0.0249107 -0.00669159 -1.83133e-22)
(-0.0282112 -0.00518267 9.33669e-21)
(-0.0302355 -0.00364348 4.52559e-21)
(-0.0310602 -0.00231552 -3.96593e-21)
(-0.0306469 -0.00143025 -4.57376e-21)
(-0.000844502 -0.00179198 -2.9071e-22)
(-0.00398368 -0.00390067 7.08638e-22)
(-0.00937034 -0.00493294 -1.77692e-21)
(-0.015314 -0.00517411 1.32863e-21)
(-0.0210838 -0.00483957 1.23057e-21)
(-0.026153 -0.0041269 9.10234e-22)
(-0.0301704 -0.00321982 -1.88615e-21)
(-0.0330105 -0.00229076 -7.85254e-21)
(-0.0347324 -0.00148334 -1.2425e-21)
(-0.0353932 -0.000930677 2.4342e-21)
(-0.0153963 -0.00174179 1.08492e-21)
(-0.0213982 -0.00163157 -1.14648e-21)
(-0.0267669 -0.00139442 -5.65057e-22)
(-0.0311428 -0.00109177 6.14474e-22)
(-0.0343911 -0.000781155 3.09764e-21)
(-0.0365624 -0.000510176 -1.11027e-21)
(-0.0377598 -0.000322238 1.13803e-21)
(1.15491 -0.00450919 4.29316e-23)
(1.15659 -0.00447347 -1.0313e-22)
(1.15825 -0.00443672 8.3811e-23)
(1.15988 -0.00439885 -2.54447e-23)
(1.16149 -0.00435971 -3.02853e-23)
(1.16308 -0.00431915 1.09115e-23)
(1.16464 -0.00427691 1.13492e-23)
(1.16617 -0.00423254 -2.95808e-24)
(1.16768 -0.00418509 7.22586e-24)
(1.16915 -0.00413251 -6.07767e-24)
(1.1706 -0.00407012 5.54109e-24)
(1.1563 -0.0132825 3.10149e-23)
(1.15801 -0.0131715 1.20421e-24)
(1.15969 -0.0130594 -2.02198e-23)
(1.16136 -0.0129461 -2.45096e-23)
(1.16299 -0.0128312 4.96539e-24)
(1.1646 -0.0127144 7.23674e-24)
(1.16619 -0.012595 -1.00916e-24)
(1.16774 -0.0124717 6.37294e-24)
(1.16927 -0.0123413 5.90401e-24)
(1.17077 -0.0121972 -5.41381e-24)
(1.17224 -0.0120234 -1.3204e-23)
(1.15879 -0.0217995 4.36046e-23)
(1.16056 -0.0216149 -1.15179e-23)
(1.16231 -0.021429 -9.7353e-24)
(1.16403 -0.0212413 -3.25737e-23)
(1.16573 -0.0210516 2.27772e-23)
(1.1674 -0.0208591 -5.55445e-24)
(1.16905 -0.0206629 2.53982e-24)
(1.17066 -0.0204605 7.36203e-24)
(1.17225 -0.0202468 -1.20724e-23)
(1.17381 -0.0200101 -2.53245e-24)
(1.17534 -0.0197234 1.49711e-24)
(1.16226 -0.0301217 -3.81784e-23)
(1.16412 -0.0298595 2.00087e-23)
(1.16596 -0.0295957 -1.90654e-23)
(1.16777 -0.0293301 1.41315e-23)
(1.16956 -0.0290621 -4.50955e-24)
(1.17132 -0.0287911 -2.27923e-23)
(1.17305 -0.0285154 2.07265e-24)
(1.17475 -0.0282317 3.22088e-24)
(1.17643 -0.0279327 2.12337e-23)
(1.17808 -0.0276015 -2.45912e-23)
(1.17969 -0.0271995 3.62885e-23)
(1.16659 -0.0383249 -1.61817e-23)
(1.16856 -0.0379808 1.59286e-23)
(1.17051 -0.0376351 -1.54459e-24)
(1.17244 -0.0372873 8.92421e-24)
(1.17434 -0.0369369 1.5114e-23)
(1.17621 -0.0365831 2.63671e-23)
(1.17806 -0.0362237 -1.85008e-24)
(1.17988 -0.0358545 4.19823e-23)
(1.18167 -0.0354658 -6.35362e-24)
(1.18344 -0.0350351 1.23926e-22)
(1.18517 -0.0345113 -6.84092e-23)
(1.17169 -0.0464601 -1.44997e-23)
(1.17379 -0.0460274 1.12515e-23)
(1.17588 -0.045593 -1.96187e-23)
(1.17794 -0.0451563 -5.07134e-23)
(1.17997 -0.0447168 1.20059e-23)
(1.18198 -0.0442733 -5.72187e-23)
(1.18396 -0.0438235 3.50224e-23)
(1.18592 -0.0433621 1.55453e-22)
(1.18785 -0.0428766 -7.34428e-24)
(1.18976 -0.042339 -1.49774e-22)
(1.19164 -0.0416838 -6.42935e-23)
(1.17747 -0.0545695 -2.2225e-23)
(1.17972 -0.0540401 -2.6158e-23)
(1.18196 -0.0535086 6.66094e-23)
(1.18417 -0.0529745 4.06355e-23)
(1.18636 -0.0524372 1.3571e-23)
(1.18853 -0.0518955 4.18409e-23)
(1.19067 -0.0513464 -1.36956e-22)
(1.19279 -0.0507836 -2.446e-22)
(1.19488 -0.0501921 -1.22931e-22)
(1.19695 -0.0495371 -3.7942e-24)
(1.19899 -0.0487379 2.33409e-23)
(1.18385 -0.0626863 4.9339e-23)
(1.18628 -0.06205 5.00966e-23)
(1.18869 -0.0614109 8.82065e-23)
(1.19107 -0.0607686 -1.49694e-22)
(1.19344 -0.0601226 2.06044e-22)
(1.19578 -0.0594713 -6.16703e-23)
(1.1981 -0.0588116 1.98798e-22)
(1.2004 -0.0581356 -1.35605e-22)
(1.20266 -0.0574257 2.18857e-22)
(1.20491 -0.05664 3.17842e-22)
(1.20714 -0.0556806 1.36752e-22)
(1.19078 -0.070836 6.7868e-23)
(1.1934 -0.0700804 1.78185e-23)
(1.196 -0.0693211 -2.45375e-22)
(1.19858 -0.0685577 1.02137e-22)
(1.20114 -0.0677895 -1.1802e-23)
(1.20367 -0.0670148 -3.31093e-23)
(1.20619 -0.0662299 1.92758e-22)
(1.20868 -0.0654259 -2.93927e-23)
(1.21114 -0.0645819 -2.46912e-22)
(1.21358 -0.0636483 -5.23573e-22)
(1.21601 -0.0625082 6.26577e-23)
(1.1982 -0.0790378 -1.17988e-22)
(1.20103 -0.0781484 5.18945e-23)
(1.20384 -0.0772538 3.89045e-22)
(1.20663 -0.0763536 2.82642e-22)
(1.2094 -0.0754468 -3.00236e-22)
(1.21215 -0.0745315 -1.67542e-22)
(1.21487 -0.0736033 -1.7715e-22)
(1.21757 -0.0726521 1.06229e-22)
(1.22024 -0.0716536 1.96815e-22)
(1.22289 -0.07055 3.0598e-22)
(1.22552 -0.0692038 -1.14206e-22)
(1.20609 -0.0873053 2.97002e-23)
(1.20914 -0.086265 -4.74479e-22)
(1.21218 -0.0852171 2.0789e-23)
(1.21519 -0.0841611 -3.91979e-22)
(1.21819 -0.0830955 2.85267e-22)
(1.22116 -0.082018 4.11997e-22)
(1.2241 -0.0809235 -7.08345e-23)
(1.22702 -0.0798001 -3.45464e-22)
(1.2299 -0.07862 -1.87577e-22)
(1.23276 -0.077317 2.10926e-22)
(1.23561 -0.0757317 -2.12468e-22)
(1.21108 -0.0968472 2.33487e-22)
(1.2144 -0.0956462 3.28692e-22)
(1.2177 -0.0944347 -5.0836e-23)
(1.22097 -0.0932121 -6.29735e-22)
(1.22423 -0.0919769 -3.8694e-22)
(1.22746 -0.0907273 -3.03054e-22)
(1.23066 -0.08946 5.7214e-22)
(1.23383 -0.0881684 7.89898e-22)
(1.23697 -0.086839 2.88846e-22)
(1.24006 -0.0854401 1.70233e-23)
(1.24312 -0.0838969 -3.9104e-22)
(1.24616 -0.0820289 9.14656e-22)
(1.21954 -0.105452 -1.32393e-22)
(1.22311 -0.104061 -6.89848e-22)
(1.22666 -0.102654 7.18577e-23)
(1.23019 -0.10123 2.7605e-22)
(1.23369 -0.099786 2.64143e-22)
(1.23716 -0.0983195 -4.00583e-22)
(1.2406 -0.0968253 -7.61028e-22)
(1.24399 -0.095295 -1.31491e-22)
(1.24733 -0.0937123 4.07925e-22)
(1.25061 -0.0920416 8.57517e-22)
(1.25384 -0.0902006 -2.75096e-22)
(1.25701 -0.087991 -1.28667e-21)
(1.22835 -0.11415 4.79749e-22)
(1.23219 -0.11254 1.32592e-22)
(1.23601 -0.110906 2.77268e-22)
(1.23979 -0.109246 -6.30403e-23)
(1.24354 -0.107555 -4.39277e-22)
(1.24724 -0.105827 2.88086e-23)
(1.25088 -0.104055 -1.42343e-22)
(1.25447 -0.102228 -7.49062e-22)
(1.25797 -0.100324 -1.37152e-21)
(1.26138 -0.0983062 -1.87999e-21)
(1.26468 -0.0960856 1.93007e-21)
(1.26789 -0.0934543 2.50191e-23)
(1.23749 -0.12292 7.77487e-22)
(1.2416 -0.121056 -3.04878e-22)
(1.24567 -0.119155 -2.94739e-22)
(1.2497 -0.117213 5.82084e-23)
(1.25367 -0.115221 4.21899e-22)
(1.25756 -0.113171 9.02761e-22)
(1.26137 -0.111049 -6.03819e-22)
(1.26507 -0.108841 1.09572e-21)
(1.26865 -0.106522 -4.63653e-22)
(1.27207 -0.10405 -5.72885e-22)
(1.27529 -0.101336 -2.20873e-21)
(1.27833 -0.0981775 -5.17327e-22)
(1.2469 -0.131722 -5.86472e-22)
(1.25127 -0.129555 5.44297e-22)
(1.25557 -0.127332 9.7979e-22)
(1.2598 -0.125043 5.54829e-22)
(1.26393 -0.122676 -3.44889e-22)
(1.26794 -0.120216 -1.4021e-21)
(1.2718 -0.117644 2.27529e-21)
(1.27549 -0.11494 -6.0678e-22)
(1.27896 -0.112075 1.45188e-21)
(1.28219 -0.109005 -1.16614e-21)
(1.28508 -0.105648 1.54415e-21)
(1.28762 -0.101831 1.527e-21)
(1.2565 -0.140482 -1.09479e-22)
(1.26108 -0.137944 -7.29159e-22)
(1.26555 -0.13532 -9.67365e-22)
(1.26989 -0.132594 2.10427e-22)
(1.27406 -0.129746 1.76962e-21)
(1.27804 -0.126756 -1.06656e-21)
(1.28177 -0.123598 2.64815e-22)
(1.28521 -0.120244 -3.56665e-21)
(1.28831 -0.116662 -5.58801e-22)
(1.29102 -0.112813 2.51495e-21)
(1.29318 -0.108631 5.29347e-23)
(1.29472 -0.104005 -3.23792e-21)
(1.26615 -0.149073 3.08608e-23)
(1.27084 -0.146067 2.83379e-22)
(1.27535 -0.142932 1.06896e-21)
(1.27964 -0.139643 -8.31635e-22)
(1.28366 -0.136174 -1.91738e-21)
(1.28735 -0.132494 9.41773e-22)
(1.29066 -0.128572 7.84437e-22)
(1.2935 -0.124376 5.26988e-21)
(1.29581 -0.119874 2.93604e-22)
(1.29752 -0.115036 -2.67384e-21)
(1.2984 -0.109827 4.79825e-22)
(1.29826 -0.104245 -7.84493e-22)
(1.2756 -0.157301 -2.05085e-22)
(1.28024 -0.153695 2.03002e-22)
(1.28458 -0.149898 -2.31947e-22)
(1.28856 -0.145879 1.35431e-21)
(1.29211 -0.141604 3.72627e-21)
(1.29515 -0.137036 3.91805e-21)
(1.29759 -0.13214 -5.97382e-21)
(1.29933 -0.126881 9.63739e-22)
(1.30029 -0.121236 3.26649e-21)
(1.30038 -0.115194 6.63704e-21)
(1.29927 -0.108772 -1.07792e-21)
(1.29661 -0.102118 1.66941e-21)
(1.28447 -0.164885 7.71399e-22)
(1.28879 -0.160502 5.18097e-22)
(1.29264 -0.15585 -1.78633e-21)
(1.29593 -0.150894 -1.15389e-21)
(1.29857 -0.145593 -1.42653e-21)
(1.30044 -0.139909 4.21106e-22)
(1.30144 -0.133808 3.51291e-21)
(1.30143 -0.127263 -3.08732e-21)
(1.30033 -0.120267 -1.61173e-21)
(1.29804 -0.112841 -7.16572e-21)
(1.29412 -0.105072 2.12588e-21)
(1.28797 -0.0973045 8.46495e-21)
(1.29221 -0.171452 1.5546e-21)
(1.29583 -0.166071 -4.41537e-22)
(1.29874 -0.160334 1.07291e-21)
(1.30083 -0.154201 6.22275e-22)
(1.30196 -0.147635 -4.17616e-21)
(1.30201 -0.140603 -7.79688e-21)
(1.30085 -0.13308 5.63969e-21)
(1.29832 -0.125059 5.06434e-22)
(1.29434 -0.116559 -3.3221e-21)
(1.28884 -0.107648 6.96835e-21)
(1.28122 -0.0985018 3.85262e-21)
(1.27062 -0.0896893 -2.25036e-21)
(1.29807 -0.176541 -4.29915e-22)
(1.30047 -0.16991 -9.73814e-22)
(1.30186 -0.162835 -7.26127e-22)
(1.30209 -0.155281 -1.30232e-21)
(1.30101 -0.147221 -2.6981e-21)
(1.29848 -0.138639 3.78624e-21)
(1.29434 -0.129532 -1.03036e-20)
(1.28847 -0.119923 -5.9124e-21)
(1.28076 -0.109871 3.08493e-21)
(1.27121 -0.0995013 -7.20453e-21)
(1.25908 -0.0890855 -7.75343e-21)
(1.24314 -0.0794288 -1.09668e-20)
(1.30109 -0.179634 -2.7007e-21)
(1.30164 -0.171492 1.99219e-21)
(1.30081 -0.162834 1.94332e-21)
(1.29843 -0.153641 -1.21351e-21)
(1.29435 -0.143909 1.26476e-21)
(1.28841 -0.13365 5.2105e-21)
(1.28048 -0.122897 1.51082e-20)
(1.27044 -0.111712 1.27218e-20)
(1.25823 -0.100206 -8.4092e-21)
(1.2439 -0.0885628 6.01733e-21)
(1.22659 -0.0771443 1.10363e-21)
(1.20467 -0.0669688 7.8967e-21)
(1.30015 -0.18021 1.01004e-21)
(1.29813 -0.170321 -4.5336e-21)
(1.2943 -0.159881 -7.69307e-21)
(1.28852 -0.148901 -5.25953e-21)
(1.28064 -0.137411 1.40912e-20)
(1.27051 -0.125464 -6.23675e-21)
(1.25803 -0.11314 -1.20656e-20)
(1.24311 -0.10055 -7.36126e-21)
(1.22577 -0.0878547 3.18824e-21)
(1.20616 -0.0752932 1.67815e-21)
(1.18324 -0.0632875 -7.05913e-21)
(1.155 -0.0530053 -7.23582e-21)
(1.29406 -0.177805 2.72209e-22)
(1.28869 -0.165996 9.51898e-22)
(1.28111 -0.153661 4.66052e-21)
(1.27117 -0.140852 -2.62263e-22)
(1.25875 -0.127646 -4.95849e-21)
(1.24375 -0.114149 -8.4468e-21)
(1.22612 -0.100492 2.09986e-21)
(1.20583 -0.0868402 -1.26894e-22)
(1.18298 -0.0733997 8.10854e-21)
(1.15783 -0.0604347 2.98849e-21)
(1.12918 -0.048371 8.77429e-21)
(1.09463 -0.0384117 5.40314e-22)
(1.28165 -0.172078 3.14434e-21)
(1.27222 -0.158266 1.82154e-22)
(1.26018 -0.144031 1.29223e-20)
(1.24543 -0.129477 1.04892e-20)
(1.22789 -0.114736 -9.32537e-21)
(1.20752 -0.0999733 3.8274e-21)
(1.18435 -0.0853829 -3.28026e-21)
(1.15843 -0.071181 3.03256e-21)
(1.12997 -0.0576022 -4.28796e-21)
(1.09935 -0.0448936 4.15426e-21)
(1.06518 -0.0333863 -1.02895e-20)
(1.02467 -0.0241332 1.31643e-20)
(1.26201 -0.16294 -6.38987e-21)
(1.2479 -0.147163 4.74229e-21)
(1.23086 -0.131152 -1.08816e-20)
(1.21081 -0.115067 4.69739e-21)
(1.18776 -0.0991019 1.74248e-20)
(1.16175 -0.083488 4.40297e-21)
(1.13288 -0.0684816 7.51321e-21)
(1.10131 -0.054349 -2.69841e-21)
(1.06736 -0.0413384 4.82312e-22)
(1.03154 -0.0296301 -7.43241e-21)
(0.99235 -0.0193335 1.35356e-20)
(0.94654 -0.0110737 -7.48152e-21)
(1.23449 -0.150494 1.78876e-21)
(1.21529 -0.132941 -8.76537e-21)
(1.1929 -0.115437 6.05089e-22)
(1.16734 -0.0982026 -1.55964e-20)
(1.13867 -0.0814966 -1.00631e-20)
(1.10703 -0.0656133 -5.49336e-21)
(1.07262 -0.0508702 -4.91144e-23)
(1.03567 -0.0375774 -4.51829e-21)
(0.996601 -0.0259759 1.40944e-20)
(0.95605 -0.0161197 4.27935e-21)
(0.912397 -0.00771869 -9.4595e-21)
(0.862004 -0.000475769 -3.68289e-21)
(1.19859 -0.134383 5.78207e-21)
(1.17399 -0.115265 1.70727e-21)
(1.14606 -0.0965832 -6.52288e-21)
(1.11489 -0.0786281 1.15369e-20)
(1.08066 -0.0617274 -1.24532e-20)
(1.04359 -0.0462457 -4.10999e-21)
(1.00398 -0.0325694 2.41604e-21)
(0.962164 -0.0210666 -1.6234e-21)
(0.918654 -0.0119899 -1.81232e-20)
(0.874195 -0.00527829 -1.71704e-20)
(0.827199 -9.78173e-05 6.14529e-21)
(0.773382 0.00581846 -6.36229e-21)
(1.15469 -0.114909 -1.78261e-21)
(1.12451 -0.0943613 -8.92989e-22)
(1.09089 -0.0746726 3.40585e-21)
(1.05402 -0.0561946 -7.17975e-21)
(1.01415 -0.0393165 1.80027e-20)
(0.971579 -0.0244623 1.37201e-20)
(0.926673 -0.0120809 -8.84763e-21)
(0.879824 -0.00261138 1.01997e-20)
(0.831563 0.00360736 1.0565e-20)
(0.782735 0.00650227 4.55237e-21)
(0.732691 0.00683026 1.84549e-21)
(0.677958 0.00876659 1.70122e-20)
(1.17292 -0.00393348 0)
(1.17608 -0.00373266 0)
(1.17922 -0.0035201 0)
(1.18231 -0.00329528 0)
(1.18534 -0.00305764 0)
(1.18827 -0.00280765 0)
(1.19107 -0.00254652 0)
(1.19371 -0.00227581 0)
(1.19617 -0.00199735 0)
(1.19841 -0.0017133 0)
(1.20039 -0.00142618 0)
(1.20208 -0.00113882 0)
(1.20346 -0.000854262 0)
(1.20449 -0.00057572 0)
(1.20515 -0.000306445 0)
(1.20541 -4.9613e-05 0)
(1.20527 0.000191742 0)
(1.20471 0.000415008 0)
(1.20373 0.000617749 0)
(1.20231 0.000798725 0)
(1.2005 0.000955918 0)
(1.19825 0.00109122 0)
(1.1957 0.00120071 0)
(1.19263 0.00129459 0)
(1.18952 0.00135832 0)
(1.18551 0.00142516 0)
(1.18228 0.00144648 0)
(1.17678 0.00151153 0)
(1.17446 0.00149524 0)
(1.1657 0.0015779 0)
(1.1746 -0.0116254 0)
(1.17778 -0.011034 0)
(1.18093 -0.0104054 0)
(1.18404 -0.00973854 0)
(1.18707 -0.0090323 0)
(1.19 -0.00828864 0)
(1.1928 -0.00751158 0)
(1.19543 -0.00670609 0)
(1.19787 -0.00587788 0)
(1.20008 -0.00503359 0)
(1.20202 -0.00418088 0)
(1.20367 -0.00332821 0)
(1.20499 -0.00248474 0)
(1.20597 -0.00165997 0)
(1.20656 -0.000863539 0)
(1.20676 -0.000104822 0)
(1.20655 0.000607291 0)
(1.20592 0.00126513 0)
(1.20486 0.00186171 0)
(1.20338 0.00239328 0)
(1.20151 0.00285452 0)
(1.1992 0.00325012 0)
(1.19659 0.00357085 0)
(1.19346 0.0038426 0)
(1.19032 0.00403094 0)
(1.18626 0.00421892 0)
(1.18301 0.00428994 0)
(1.17747 0.00446313 0)
(1.17514 0.00443937 0)
(1.16634 0.00465897 0)
(1.17777 -0.0190612 0)
(1.181 -0.0180745 0)
(1.18417 -0.0170271 0)
(1.1873 -0.0159171 0)
(1.19034 -0.014743 0)
(1.19327 -0.0135082 0)
(1.19605 -0.0122198 0)
(1.19865 -0.0108864 0)
(1.20104 -0.00951754 0)
(1.20319 -0.00812449 0)
(1.20506 -0.00672002 0)
(1.20662 -0.00531824 0)
(1.20785 -0.00393423 0)
(1.20871 -0.00258362 0)
(1.20918 -0.00128212 0)
(1.20926 -4.49555e-05 0)
(1.20891 0.00111359 0)
(1.20815 0.00218121 0)
(1.20696 0.003147 0)
(1.20535 0.00400494 0)
(1.20336 0.0047475 0)
(1.20093 0.00538128 0)
(1.19822 0.00589475 0)
(1.19499 0.00632457 0)
(1.19177 0.00662634 0)
(1.18762 0.00691532 0)
(1.18434 0.00703739 0)
(1.17871 0.00729219 0)
(1.17638 0.00728178 0)
(1.16748 0.00760768 0)
(1.18224 -0.0262676 0)
(1.18553 -0.0248765 0)
(1.18873 -0.0234017 0)
(1.19188 -0.0218408 0)
(1.19493 -0.020192 0)
(1.19786 -0.0184609 0)
(1.20061 -0.0166581 0)
(1.20316 -0.014796 0)
(1.20549 -0.0128885 0)
(1.20754 -0.0109517 0)
(1.2093 -0.0090037 0)
(1.21073 -0.00706435 0)
(1.21181 -0.00515463 0)
(1.21251 -0.00329612 0)
(1.21281 -0.00151033 0)
(1.2127 0.000182092 0)
(1.21217 0.00176197 0)
(1.21122 0.00321296 0)
(1.20984 0.00452092 0)
(1.20805 0.00567815 0)
(1.20588 0.00667574 0)
(1.20328 0.00752245 0)
(1.20042 0.00820568 0)
(1.19705 0.008772 0)
(1.19372 0.00916934 0)
(1.18944 0.00954245 0)
(1.18609 0.00970335 0)
(1.18033 0.010029 0)
(1.17799 0.0100228 0)
(1.16895 0.0104522 0)
(1.18786 -0.0332962 0)
(1.19122 -0.0314803 0)
(1.19445 -0.0295586 0)
(1.19762 -0.0275286 0)
(1.20069 -0.0253884 0)
(1.20359 -0.0231466 0)
(1.2063 -0.0208177 0)
(1.20879 -0.0184186 0)
(1.21101 -0.0159679 0)
(1.21294 -0.0134868 0)
(1.21455 -0.0109989 0)
(1.21581 -0.00853006 0)
(1.2167 -0.00610695 0)
(1.21719 -0.00375693 0)
(1.21726 -0.00150695 0)
(1.21691 0.000617439 0)
(1.21614 0.00259279 0)
(1.21493 0.00439942 0)
(1.21332 0.00602078 0)
(1.21129 0.00744818 0)
(1.20889 0.00867236 0)
(1.20608 0.00970449 0)
(1.20302 0.0105324 0)
(1.19946 0.0112115 0)
(1.19597 0.0116848 0)
(1.19153 0.0121235 0)
(1.18807 0.0123093 0)
(1.18215 0.0126945 0)
(1.17977 0.0126812 0)
(1.17053 0.0132135 0)
(1.19449 -0.0401675 0)
(1.19793 -0.0378997 0)
(1.20119 -0.0355051 0)
(1.20438 -0.0329811 0)
(1.20745 -0.0303267 0)
(1.21032 -0.027554 0)
(1.21297 -0.0246823 0)
(1.21536 -0.0217332 0)
(1.21745 -0.0187307 0)
(1.21922 -0.0157015 0)
(1.22064 -0.0126751 0)
(1.22168 -0.00968301 0)
(1.22232 -0.00675774 0)
(1.22254 -0.0039321 0)
(1.22234 -0.00123803 0)
(1.2217 0.00129459 0)
(1.22062 0.00363879 0)
(1.21912 0.00577234 0)
(1.2172 0.00767723 0)
(1.21488 0.00934452 0)
(1.2122 0.0107658 0)
(1.20912 0.0119547 0)
(1.20582 0.0129015 0)
(1.20202 0.0136685 0)
(1.19833 0.0141983 0)
(1.19367 0.014682 0)
(1.19006 0.0148803 0)
(1.18392 0.0153098 0)
(1.18147 0.0152812 0)
(1.17195 0.0159119 0)
(1.20204 -0.0468966 0)
(1.20555 -0.0441424 0)
(1.20883 -0.041242 0)
(1.21203 -0.038193 0)
(1.21508 -0.0349957 0)
(1.21791 -0.0316669 0)
(1.22046 -0.0282313 0)
(1.22272 -0.024716 0)
(1.22464 -0.0211505 0)
(1.22621 -0.0175676 0)
(1.22739 -0.0140025 0)
(1.22816 -0.0104927 0)
(1.2285 -0.00707625 0)
(1.2284 -0.00379097 0)
(1.22785 -0.000673211 0)
(1.22686 0.00224342 0)
(1.22542 0.00492927 0)
(1.22355 0.00736045 0)
(1.22128 0.00951855 0)
(1.2186 0.011395 0)
(1.21558 0.0129837 0)
(1.21217 0.0143003 0)
(1.20856 0.0153405 0)
(1.20446 0.0161697 0)
(1.20051 0.0167376 0)
(1.19557 0.0172437 0)
(1.19177 0.0174445 0)
(1.18534 0.0178982 0)
(1.18278 0.01785 0)
(1.17291 0.0185674 0)
(1.21041 -0.0534856 0)
(1.21399 -0.0502039 0)
(1.21728 -0.0467587 0)
(1.22046 -0.0431483 0)
(1.22348 -0.0393751 0)
(1.22622 -0.0354612 0)
(1.22864 -0.0314377 0)
(1.23072 -0.0273377 0)
(1.23243 -0.0231967 0)
(1.23373 -0.0190534 0)
(1.23461 -0.0149493 0)
(1.23505 -0.0109273 0)
(1.23503 -0.00703079 0)
(1.23454 -0.00330223 0)
(1.23358 0.000218347 0)
(1.23217 0.00349437 0)
(1.2303 0.00649441 0)
(1.22799 0.00919375 0)
(1.22528 0.0115746 0)
(1.22218 0.0136295 0)
(1.21875 0.0153561 0)
(1.21494 0.0167715 0)
(1.21095 0.01788 0)
(1.20648 0.0187451 0)
(1.20219 0.0193337 0)
(1.19691 0.0198367 0)
(1.19283 0.0200329 0)
(1.18604 0.0204837 0)
(1.18334 0.0204164 0)
(1.17302 0.0211981 0)
(1.21951 -0.0599257 0)
(1.22315 -0.0560686 0)
(1.22641 -0.0520339 0)
(1.22956 -0.0478208 0)
(1.2325 -0.0434346 0)
(1.23512 -0.0389038 0)
(1.23736 -0.0342662 0)
(1.2392 -0.0295617 0)
(1.24063 -0.0248318 0)
(1.24161 -0.0201213 0)
(1.24212 -0.0154777 0)
(1.24215 -0.0109494 0)
(1.24168 -0.00658445 0)
(1.24072 -0.0024294 0)
(1.23927 0.00147266 0)
(1.23734 0.00508305 0)
(1.23495 0.00836945 0)
(1.23213 0.0113072 0)
(1.2289 0.0138802 0)
(1.22528 0.0160826 0)
(1.22134 0.0179174 0)
(1.21704 0.0194019 0)
(1.21259 0.0205535 0)
(1.20767 0.0214266 0)
(1.20296 0.0220189 0)
(1.19725 0.0224894 0)
(1.19284 0.0226764 0)
(1.18562 0.0230879 0)
(1.18271 0.023008 0)
(1.17188 0.0238171 0)
(1.22926 -0.0661939 0)
(1.23294 -0.0617068 0)
(1.23614 -0.0570323 0)
(1.2392 -0.0521706 0)
(1.24202 -0.0471308 0)
(1.24444 -0.0419486 0)
(1.24644 -0.0366695 0)
(1.24797 -0.0313398 0)
(1.24904 -0.0260072 0)
(1.2496 -0.0207228 0)
(1.24965 -0.0155396 0)
(1.24917 -0.0105113 0)
(1.24816 -0.00569027 0)
(1.24662 -0.00112616 0)
(1.24457 0.00313503 0)
(1.24203 0.00705363 0)
(1.23901 0.0105974 0)
(1.23555 0.0137425 0)
(1.23169 0.0164758 0)
(1.22745 0.0187933 0)
(1.22291 0.0207051 0)
(1.21803 0.0222274 0)
(1.21301 0.0233951 0)
(1.20755 0.0242459 0)
(1.20234 0.0248236 0)
(1.19614 0.0252272 0)
(1.19131 0.0254018 0)
(1.18361 0.0257268 0)
(1.18044 0.0256469 0)
(1.16906 0.0264295 0)
(1.23958 -0.0722482 0)
(1.24325 -0.0670696 0)
(1.24632 -0.0616993 0)
(1.24924 -0.0561386 0)
(1.25185 -0.0504013 0)
(1.254 -0.0445314 0)
(1.25565 -0.038582 0)
(1.25677 -0.0326058 0)
(1.25736 -0.026657 0)
(1.25739 -0.0207925 0)
(1.25685 -0.0150709 0)
(1.25574 -0.00955047 0)
(1.25405 -0.00428746 0)
(1.25181 0.000665699 0)
(1.24902 0.00526134 0)
(1.24572 0.00945939 0)
(1.24195 0.0132286 0)
(1.23773 0.016547 0)
(1.23312 0.0194052 0)
(1.22815 0.0218018 0)
(1.2229 0.0237559 0)
(1.21733 0.025281 0)
(1.21166 0.0264344 0)
(1.20559 0.0272284 0)
(1.1998 0.0277704 0)
(1.19305 0.0280671 0)
(1.18774 0.0282258 0)
(1.17953 0.0284066 0)
(1.17605 0.0283453 0)
(1.16414 0.0290295 0)
(1.25035 -0.0780187 0)
(1.25392 -0.0720806 0)
(1.25678 -0.0659529 0)
(1.25944 -0.0596383 0)
(1.26174 -0.0531568 0)
(1.26349 -0.0465614 0)
(1.26466 -0.0399128 0)
(1.26523 -0.0332697 0)
(1.26519 -0.0266924 0)
(1.26454 -0.0202439 0)
(1.26325 -0.0139879 0)
(1.26134 -0.00798698 0)
(1.25881 -0.00230045 0)
(1.2557 0.0030167 0)
(1.25202 0.00791661 0)
(1.24782 0.0123595 0)
(1.24314 0.0163162 0)
(1.23803 0.0197673 0)
(1.23255 0.0227091 0)
(1.22674 0.025143 0)
(1.22067 0.0270986 0)
(1.21434 0.028586 0)
(1.20794 0.0296893 0)