/*--------------------------------*- C++ -*----------------------------------*\
  =========                 |
  \\      /  F ield         | OpenFOAM: The Open Source CFD Toolbox
   \\    /   O peration     | Website:  https://openfoam.org
    \\  /    A nd           | Version:  7
     \\/     M anipulation  |
\*---------------------------------------------------------------------------*/
FoamFile
{
    version     2.0;
    format      ascii;
    class       volVectorField;
    location    "250";
    object      U;
}
// * * * * * * * * * * * * * * * * * * * * * * * * * * * * * * * * * * * * * //

dimensions      [0 1 -1 0 0 0 0];

internalField   nonuniform List<vector> 
2125
(
(-0.00228476 0.0714566 1.14859e-21)
(-0.00940233 0.155662 -3.28286e-21)
(-0.0228053 0.19906 -3.81809e-21)
(-0.039667 0.21359 3.79655e-21)
(-0.0584627 0.21094 -3.51094e-21)
(-0.0777486 0.200048 -1.88847e-21)
(-0.0963561 0.185788 3.2645e-21)
(-0.113476 0.169298 4.1404e-21)
(-0.128282 0.149196 -7.10128e-22)
(-0.140277 0.122321 2.08651e-21)
(-0.00465637 0.0729089 -1.26428e-21)
(-0.0134096 0.160302 3.90239e-21)
(-0.0258181 0.206479 -9.34221e-21)
(-0.0405072 0.222909 8.47932e-21)
(-0.0564991 0.22117 3.36055e-22)
(-0.0725785 0.210328 6.23629e-21)
(-0.0875478 0.195466 -1.10238e-20)
(-0.100386 0.177935 -1.64611e-20)
(-0.110071 0.156562 -3.38347e-21)
(-0.115573 0.128481 7.79853e-21)
(-0.00704943 0.073462 1.22617e-21)
(-0.0174945 0.163253 8.84085e-21)
(-0.0288018 0.21204 2.06561e-20)
(-0.0410422 0.230474 -1.87106e-20)
(-0.0537884 0.2298 -4.33149e-21)
(-0.0660676 0.21909 -3.92435e-21)
(-0.0766663 0.203594 2.03279e-20)
(-0.0843599 0.184877 1.26857e-20)
(-0.0879521 0.162026 3.10869e-21)
(-0.0855819 0.132431 -2.42938e-20)
(-0.0093811 0.0730875 4.37333e-21)
(-0.0215298 0.164396 -5.15538e-21)
(-0.031665 0.215557 -3.90978e-20)
(-0.0412368 0.236048 3.38721e-21)
(-0.0503574 0.236578 1.07372e-20)
(-0.058317 0.226093 -8.56806e-21)
(-0.0639173 0.209949 -2.17977e-22)
(-0.0657455 0.189918 -3.66179e-21)
(-0.0625573 0.165399 8.31067e-21)
(-0.0512241 0.13394 2.50049e-20)
(-0.0115721 0.0717937 3.10339e-21)
(-0.0253893 0.163676 -1.71052e-20)
(-0.0343228 0.216876 4.0769e-20)
(-0.0410784 0.239427 -1.87144e-20)
(-0.0462667 0.241282 -5.13722e-23)
(-0.0494713 0.231125 2.62799e-20)
(-0.0495543 0.214359 -1.21449e-20)
(-0.0449277 0.192928 1.46337e-21)
(-0.0345032 0.166463 -5.13042e-21)
(-0.013483 0.133064 2.17418e-21)
(-0.0135474 0.069626 3.69369e-20)
(-0.0289605 0.161094 4.4221e-20)
(-0.036707 0.215902 -1.1183e-20)
(-0.0405674 0.240442 2.14622e-20)
(-0.0416027 0.243716 6.90098e-21)
(-0.0397033 0.234007 -9.70217e-21)
(-0.0338543 0.216691 -3.79488e-21)
(-0.0223565 0.193848 -1.75707e-20)
(-0.00431152 0.165309 3.80286e-21)
(0.0269871 0.129663 -2.40246e-20)
(-0.0152463 0.0666633 -3.56213e-20)
(-0.0321411 0.15671 -2.30898e-20)
(-0.038762 0.212607 1.89828e-20)
(-0.0397226 0.238972 -3.28753e-20)
(-0.0364685 0.243711 3.9249e-21)
(-0.0292008 0.234576 3.94167e-20)
(-0.0170854 0.216833 -7.13035e-21)
(0.00167996 0.192667 4.89081e-20)
(0.0274163 0.162127 -5.93436e-22)
(0.0697662 0.123588 -2.11719e-20)
(-0.0166258 0.0630179 3.02304e-20)
(-0.0348501 0.150651 -5.40539e-20)
(-0.0404461 0.207029 -2.14064e-20)
(-0.0385762 0.23495 2.50155e-20)
(-0.0309797 0.241131 9.62463e-22)
(-0.0181574 0.232679 -7.40709e-20)
(0.000490255 0.21467 -4.64148e-21)
(0.0269186 0.189348 -3.84406e-20)
(0.060296 0.156909 -5.1344e-20)
(0.1147 0.11508 3.13481e-20)
(-0.0176644 0.0588303 -1.69651e-20)
(-0.0370352 0.143111 7.99672e-21)
(-0.0417351 0.199273 1.9831e-20)
(-0.0371678 0.228366 -1.78554e-20)
(-0.0252541 0.235875 -6.28678e-20)
(-0.0067615 0.228173 2.1914e-20)
(0.0186284 0.210069 3.26213e-21)
(0.0531579 0.183842 5.80092e-20)
(0.0940815 0.14969 7.94157e-20)
(0.162001 0.104326 -3.68536e-20)
(-0.0183645 0.0542617 2.68436e-20)
(-0.0386769 0.134335 2.41932e-20)
(-0.0426235 0.189517 -3.44919e-21)
(-0.0355383 0.219276 8.87286e-20)
(-0.0193989 0.227887 3.77935e-20)
(0.00482039 0.22093 2.87671e-20)
(0.0371255 0.202871 4.1943e-20)
(0.0802747 0.176056 -1.8927e-20)
(0.12868 0.1404 -2.66003e-20)
(0.21229 0.0914945 -4.55956e-20)
(-0.018754 0.0494854 -2.4002e-21)
(-0.0397909 0.124616 -3.80449e-20)
(-0.043122 0.17801 -2.73487e-20)
(-0.0337195 0.207812 -4.38503e-20)
(-0.0134878 0.217169 -3.50842e-20)
(0.0164768 0.210853 3.55496e-20)
(0.0558656 0.192905 -3.49366e-20)
(0.108261 0.165859 -2.49648e-20)
(0.16424 0.128813 3.2913e-21)
(0.266628 0.0767384 1.18821e-20)
(-0.0188848 0.0446769 -7.38312e-20)
(-0.0404257 0.11427 3.49499e-20)
(-0.04325 0.165059 2.53605e-20)
(-0.031715 0.194184 1.68732e-20)
(-0.00752656 0.203807 -3.09478e-20)
(0.0282072 0.197906 -2.672e-20)
(0.0749111 0.180028 3.92442e-20)
(0.137317 0.153121 -3.2681e-20)
(0.201356 0.114582 -1.44607e-21)
(0.326485 0.0602261 -3.66637e-20)
(-0.0188294 0.0400042 6.17103e-20)
(-0.040655 0.103628 2.47886e-20)
(-0.0430208 0.15102 1.45047e-21)
(-0.0294724 0.178688 -3.08293e-20)
(-0.00140083 0.187988 2.29993e-21)
(0.0402066 0.182162 3.46429e-20)
(0.094644 0.164196 -1.01001e-20)
(0.168009 0.137785 -1.26231e-20)
(0.241417 0.0973949 -3.0256e-20)
(0.393338 0.0422894 5.57399e-20)
(-0.0186737 0.0356167 4.1467e-20)
(-0.0405636 0.0930066 -6.69524e-20)
(-0.0424198 0.136282 -5.12987e-20)
(-0.0268459 0.161699 2.21486e-20)
(0.00518911 0.170022 4.52746e-20)
(0.052974 0.163845 3.85927e-20)
(0.115933 0.145553 -4.19785e-20)
(0.201467 0.119941 8.38657e-20)
(0.287038 0.0772713 -2.55839e-20)
(0.469738 0.0240469 -6.56488e-20)
(-0.0185072 0.0316352 -6.24623e-20)
(-0.0402263 0.0826934 3.73868e-20)
(-0.0413759 0.121243 -1.76419e-20)
(-0.0235535 0.143663 1.85125e-21)
(0.0127975 0.150349 1.87747e-20)
(0.0674204 0.143367 -6.09427e-20)
(0.14027 0.124524 5.54462e-20)
(0.239513 0.0998663 -5.46091e-20)
(0.341884 0.0548744 9.22142e-20)
(0.556243 0.0063691 3.46365e-20)
(-0.01841 0.0281424 1.30685e-20)
(-0.0396838 0.0729227 7.21065e-20)
(-0.0397305 0.106286 -1.79772e-20)
(-0.0191376 0.125071 1.82064e-20)
(0.0222859 0.129537 2.10399e-20)
(0.0849336 0.121348 -6.23703e-21)
(0.169766 0.101887 4.66988e-20)
(0.284661 0.0780804 1.84736e-21)
(0.409948 0.031846 -5.9772e-20)
(0.651449 -0.00939435 8.16398e-20)
(-0.018439 0.0251755 -3.51496e-20)
(-0.0389172 0.0638602 -6.82028e-20)
(-0.0372122 0.091754 5.89367e-20)
(-0.0129443 0.106437 2.93602e-20)
(0.0348315 0.108245 -1.36603e-19)
(0.107352 0.0985971 1.11807e-19)
(0.206958 0.078739 -1.02862e-19)
(0.339802 0.05543 1.14034e-21)
(0.493915 0.0106506 -2.4927e-20)
(0.751148 -0.0219631 -7.60706e-20)
(-0.0186139 0.0227216 3.01794e-20)
(-0.0378282 0.05559 -4.00371e-21)
(-0.0334255 0.0779234 -1.44838e-20)
(-0.00413436 0.0882486 -1.74849e-21)
(0.0518617 0.0871769 -8.34787e-21)
(0.136781 0.0760486 -3.58106e-20)
(0.254368 0.056368 1.58106e-20)
(0.407554 0.0332095 -2.47407e-20)
(0.593245 -0.00601883 7.34342e-21)
(0.849088 -0.0305505 1.85749e-21)
(-0.0189076 0.0207188 -6.15628e-20)
(-0.0362294 0.0481105 -4.31625e-21)
(-0.0278603 0.0649844 6.63377e-21)
(0.00826262 0.0709358 2.68495e-21)
(0.0749118 0.0670194 4.45937e-20)
(0.175286 0.0546731 -1.30343e-19)
(0.313913 0.0360501 8.91845e-20)
(0.489288 0.0132222 -6.74327e-20)
(0.703254 -0.0160505 5.95048e-20)
(0.93922 -0.0357518 6.80327e-20)
(-0.0192421 0.0190634 -7.37084e-21)
(-0.0338478 0.0413388 3.41319e-20)
(-0.0199245 0.0530297 -4.25695e-20)
(0.0252593 0.0548319 -1.32807e-20)
(0.105427 0.0483795 2.55986e-20)
(0.224501 0.035385 1.23883e-19)
(0.386379 0.0188417 -2.52596e-20)
(0.584151 -0.00239914 1.24055e-20)
(0.816197 -0.0190121 -6.78618e-20)
(1.01868 -0.0407311 3.02173e-20)
(-0.0194931 0.0176231 -2.23036e-20)
(-0.0303413 0.0351267 -1.72915e-20)
(-0.00899015 0.042058 4.2871e-21)
(0.0478057 0.0401601 1.67605e-20)
(0.144561 0.0317496 -4.95626e-20)
(0.285281 0.0189748 -2.00939e-20)
(0.471099 0.00552244 -6.38698e-20)
(0.688508 -0.0118636 6.70856e-20)
(0.92395 -0.0173986 7.21241e-20)
(1.08911 -0.0491533 -3.22332e-20)
(-0.0195009 0.0162553 -1.05918e-20)
(-0.025323 0.0292859 4.33662e-20)
(0.00555601 0.0319946 -4.83056e-20)
(0.0766957 0.027044 -5.64873e-21)
(0.193021 0.0175032 -2.28022e-20)
(0.357484 0.00607278 4.98628e-20)
(0.565883 -0.00332851 6.4862e-20)
(0.796473 -0.0148479 -6.26304e-20)
(1.02065 -0.0152818 6.6902e-20)
(1.17764 -0.0448026 8.7191e-21)
(-0.0190847 0.0148242 -3.07746e-20)
(-0.0183895 0.0236216 -8.75442e-20)
(0.024272 0.0227295 8.53889e-20)
(0.112506 0.0155445 1.22599e-20)
(0.250988 0.00592672 1.79073e-20)
(0.439917 -0.00286484 1.09658e-20)
(0.667184 -0.00736161 4.94883e-20)
(0.901785 -0.0126702 3.66714e-20)
(1.1091 -0.00997557 -1.31011e-19)
(1.24873 -0.0329723 -6.40669e-20)
(-0.00914381 0.01797 2.12236e-20)
(0.0476349 0.0141657 -4.83177e-20)
(0.155566 0.00571668 9.40313e-21)
(0.318084 -0.0027305 1.50172e-20)
(0.530444 -0.00756385 -1.08798e-19)
(0.77064 -0.00664212 4.81653e-20)
(1.00025 -0.00634393 -3.28927e-20)
(1.18566 -0.00120973 3.46598e-20)
(1.3011 -0.0195555 -1.19021e-20)
(0.0760287 0.00626829 -2.38702e-21)
(0.205958 -0.00233023 -1.32235e-20)
(0.393388 -0.00821698 4.71454e-22)
(0.626205 -0.00794849 1.06358e-21)
(0.871968 -0.00158603 -7.33515e-20)
(1.08886 0.00333281 9.27044e-21)
(1.24909 0.00986333 9.14274e-20)
(1.34212 -0.00496896 4.14439e-20)
(0.109738 -0.000897247 8.24124e-20)
(0.263503 -0.00839037 2.12822e-21)
(0.47546 -0.0102817 -3.46795e-20)
(0.723964 -0.00414139 9.32247e-20)
(0.967601 0.00721334 2.04709e-20)
(1.16594 0.015562 1.0633e-21)
(1.30025 0.022623 -4.00906e-20)
(1.37099 0.0100847 -5.18684e-20)
(0.327744 -0.0121532 -3.42913e-20)
(0.562408 -0.00871903 5.63906e-20)
(0.820512 0.00356679 -2.76294e-20)
(1.05498 0.0191092 -3.11653e-20)
(1.23109 0.0296899 -7.46433e-21)
(1.34 0.0364666 -2.28075e-20)
(1.39126 0.0252309 2.48944e-20)
(0.652016 -0.00342721 3.06515e-20)
(0.91303 0.0147715 -1.02224e-19)
(1.13259 0.0334855 6.5438e-20)
(1.28467 0.0451704 -2.97732e-20)
(1.36998 0.0509904 4.4849e-20)
(1.4043 0.040403 1.23114e-20)
(1.19982 0.0497934 -1.69486e-20)
(1.32762 0.061583 1.407e-20)
(1.3917 0.065926 -3.40898e-20)
(1.41198 0.0554928 -3.45209e-20)
(1.36111 0.0786151 -4.41127e-20)
(1.40668 0.081104 7.94204e-22)
(1.41553 0.0705277 2.37953e-20)
(1.41623 0.096436 3.32014e-20)
(1.41603 0.0855162 -1.43256e-20)
(-0.159662 0.0694192 -1.65131e-22)
(-0.172861 -0.0648369 4.48567e-23)
(-0.155567 -0.243733 2.12404e-22)
(-0.122993 -0.451935 -2.14151e-22)
(-0.0855893 -0.619939 4.81109e-23)
(-0.0684696 -0.708795 1.25503e-22)
(-0.0489227 -0.6889 2.38415e-23)
(0.0819935 -0.47647 -6.72592e-23)
(0.290484 -0.101909 -6.79499e-23)
(0.483493 0.242302 -6.79591e-23)
(0.632134 0.500308 2.92279e-24)
(0.696473 0.598639 -7.89065e-23)
(0.749901 0.617875 3.9062e-23)
(0.691237 0.631255 -1.36529e-23)
(0.570997 0.602782 -1.18298e-23)
(0.572489 0.397089 -9.02944e-24)
(0.711509 -0.0360075 7.8903e-23)
(0.821989 -0.275969 9.78497e-23)
(0.933851 -0.429275 2.36722e-24)
(0.898661 -0.455325 3.14541e-23)
(0.832971 -0.50292 -1.26052e-23)
(0.802203 -0.471086 -7.44048e-24)
(0.864702 -0.144723 -3.94015e-24)
(0.90235 -0.00759994 -1.88119e-23)
(0.960882 0.353818 -2.54839e-23)
(0.95766 0.463154 -1.12976e-23)
(0.963959 0.380506 5.6541e-24)
(0.943797 0.376525 4.31722e-23)
(0.990964 -0.218792 6.46914e-24)
(0.975013 -0.330296 -4.66193e-24)
(-0.123096 0.0755796 7.65609e-23)
(-0.128256 -0.0646765 -5.6339e-22)
(-0.10376 -0.248419 -5.7767e-23)
(-0.0683899 -0.459479 5.57496e-22)
(-0.0347327 -0.625791 -1.09033e-22)
(-0.0299551 -0.711845 -5.28717e-22)
(-0.0396421 -0.701985 3.68097e-22)
(0.0487624 -0.510435 -3.53711e-22)
(0.24751 -0.141679 2.21739e-22)
(0.441947 0.208308 -4.05999e-22)
(0.597331 0.479174 5.92828e-22)
(0.67489 0.586936 -4.29817e-22)
(0.735989 0.617979 6.25461e-24)
(0.67741 0.643968 2.56669e-22)
(0.563258 0.611151 -4.76034e-23)
(0.582651 0.388573 -7.30479e-23)
(0.729044 -0.0507242 -2.57632e-22)
(0.835446 -0.289413 1.8952e-22)
(0.944208 -0.433358 1.10469e-22)
(0.90525 -0.450074 -1.32689e-22)
(0.842441 -0.497772 -3.05461e-23)
(0.811796 -0.472727 5.16687e-23)
(0.866247 -0.149661 -3.73724e-24)
(0.900708 -0.0118998 -6.60519e-23)
(0.954885 0.351443 4.81527e-23)
(0.952609 0.462774 1.02787e-22)
(0.95962 0.380914 2.18422e-25)
(0.940366 0.375688 -8.13822e-23)
(0.994255 -0.219811 1.55262e-24)
(0.977389 -0.32984 2.71525e-23)
(-0.0802702 0.0797924 4.21301e-21)
(-0.0768498 -0.0647463 -3.28059e-21)
(-0.0452409 -0.252634 2.18022e-21)
(-0.00689686 -0.465514 -1.94831e-21)
(0.0238912 -0.629191 -4.60429e-22)
(0.0186727 -0.710792 2.75025e-21)
(-0.0153918 -0.70857 -8.90826e-22)
(0.0252586 -0.540357 -9.88462e-22)
(0.208475 -0.182734 4.59528e-22)
(0.402469 0.172149 -1.93974e-23)
(0.563912 0.455516 1.32696e-22)
(0.654621 0.573344 -3.02432e-23)
(0.722395 0.617437 -2.42751e-23)
(0.663851 0.656211 1.02886e-22)
(0.557606 0.61837 5.22558e-23)
(0.594608 0.379667 -1.59731e-22)
(0.74755 -0.0644849 5.76787e-22)
(0.849702 -0.30191 1.32308e-22)
(0.954885 -0.436902 -7.77491e-23)
(0.912251 -0.444716 -8.80497e-23)
(0.851807 -0.492757 4.70496e-23)
(0.821711 -0.474295 6.34254e-23)
(0.868357 -0.154441 -1.16228e-22)
(0.899632 -0.0161811 5.21401e-23)
(0.949062 0.348959 -1.36763e-22)
(0.947463 0.462316 -1.19752e-22)
(0.95515 0.381293 1.06662e-23)
(0.937084 0.374686 1.42178e-22)
(0.997635 -0.220914 -1.65668e-23)
(0.979694 -0.329344 -2.02021e-23)
(-0.0327104 0.0815521 -4.80373e-21)
(-0.0202855 -0.0650581 2.33404e-21)
(0.018364 -0.256427 -3.27412e-22)
(0.0600362 -0.470279 3.82227e-22)
(0.0885585 -0.630197 -7.47725e-22)
(0.0753549 -0.706215 -1.67675e-21)
(0.0220428 -0.708533 8.62926e-22)
(0.0140592 -0.56478 -1.72969e-22)
(0.174029 -0.224368 5.13089e-22)
(0.365505 0.134023 1.20475e-21)
(0.532222 0.429316 -3.36494e-22)
(0.635815 0.557882 2.75637e-22)
(0.709113 0.616206 -3.0423e-22)
(0.650632 0.667814 -3.27963e-22)
(0.553963 0.624406 3.36114e-23)
(0.608042 0.370532 -2.29978e-22)
(0.766893 -0.0772165 -5.84413e-22)
(0.864676 -0.313425 -1.2604e-22)
(0.965801 -0.439928 1.32968e-22)
(0.919676 -0.439253 -4.26323e-23)
(0.861014 -0.487853 -1.27172e-22)
(0.83179 -0.475804 -6.41535e-24)
(0.87101 -0.159073 4.58969e-23)
(0.899124 -0.0203825 7.20565e-24)
(0.943436 0.346393 4.51275e-23)
(0.942227 0.461792 3.65725e-23)
(0.950559 0.381634 1.66806e-23)
(0.933974 0.373515 4.60108e-23)
(1.0011 -0.222092 9.75022e-23)
(0.98193 -0.328802 -4.66642e-24)
(0.0181114 0.0805344 3.38422e-21)
(0.0399344 -0.0657011 4.05546e-21)
(0.085621 -0.259622 2.13211e-21)
(0.131294 -0.473636 -2.73523e-21)
(0.15787 -0.629563 -5.92568e-22)
(0.137984 -0.698852 -1.10493e-21)
(0.0703079 -0.702514 -1.32194e-21)
(0.0173987 -0.582482 -3.77077e-22)
(0.145029 -0.265453 1.62295e-22)
(0.331596 0.0941265 -5.18527e-23)
(0.50264 0.400568 -4.27392e-22)
(0.618603 0.540582 1.02121e-22)
(0.696136 0.614243 5.94972e-22)
(0.637831 0.67862 -3.78525e-22)
(0.552177 0.629256 3.44453e-22)
(0.622654 0.361316 -2.7113e-23)
(0.786942 -0.0888665 1.28748e-21)
(0.880286 -0.323926 -1.80278e-22)
(0.976883 -0.442458 -2.66748e-22)
(0.927522 -0.433686 -4.00323e-23)
(0.870026 -0.483031 -1.72619e-22)
(0.841869 -0.477268 -1.93724e-22)
(0.874175 -0.16357 -6.05218e-24)
(0.899178 -0.0244911 1.42385e-22)
(0.938019 0.343769 1.12886e-23)
(0.936903 0.461215 3.98741e-23)
(0.945859 0.381926 -7.25231e-23)
(0.931059 0.372166 -2.03423e-22)
(1.00466 -0.223337 -1.64936e-22)
(0.984098 -0.32821 5.00797e-23)
(0.0708636 0.0770069 2.21098e-21)
(0.102627 -0.0670186 5.57781e-21)
(0.155472 -0.262099 1.8555e-21)
(0.205764 -0.475528 -7.55285e-21)
(0.230553 -0.627812 5.7969e-21)
(0.204773 -0.68956 -2.34498e-21)
(0.127016 -0.691428 -2.33191e-22)
(0.0364293 -0.592871 -6.08797e-22)
(0.122553 -0.304501 -3.9985e-22)
(0.301369 0.0527477 1.67041e-21)
(0.475576 0.369306 -4.42383e-22)
(0.603089 0.521496 -8.99428e-22)
(0.683459 0.611499 -3.21261e-23)
(0.625523 0.688487 5.27294e-22)
(0.552046 0.632945 -8.19678e-22)
(0.638165 0.352153 1.12702e-21)
(0.807562 -0.0993997 -1.39055e-21)
(0.896445 -0.333387 6.16065e-22)
(0.988066 -0.444517 3.46581e-23)
(0.935771 -0.428017 3.05861e-22)
(0.87883 -0.478253 1.36235e-22)
(0.851786 -0.4787 9.96845e-23)
(0.877804 -0.167957 2.29904e-23)
(0.899778 -0.0285588 1.78639e-22)
(0.932823 0.341111 1.01485e-22)
(0.931497 0.460595 -4.98991e-23)
(0.941065 0.382159 2.00348e-22)
(0.928363 0.370634 -1.85986e-22)
(1.00831 -0.224638 2.53599e-22)
(0.986201 -0.327564 -7.99164e-23)
(0.124749 0.0713626 -4.7645e-21)
(0.166748 -0.0691538 7.96025e-22)
(0.227018 -0.263884 1.11968e-21)
(0.282573 -0.476194 -7.25129e-22)
(0.305621 -0.624745 1.27603e-21)
(0.274231 -0.679037 9.18477e-22)
(0.189803 -0.676037 3.49234e-22)
(0.0707191 -0.596394 -6.61764e-22)
(0.108037 -0.339778 -6.2899e-22)
(0.275477 0.0109371 3.97957e-22)
(0.451447 0.335638 1.48424e-22)
(0.589343 0.500696 7.78817e-22)
(0.67108 0.607916 -8.48036e-22)
(0.613782 0.697296 -5.77144e-22)
(0.553338 0.635523 6.63242e-22)
(0.654323 0.343165 3.71096e-22)
(0.828624 -0.108797 -3.78207e-24)
(0.913067 -0.341784 1.38682e-23)
(0.999302 -0.446126 -1.85396e-22)
(0.944385 -0.422252 -4.8144e-22)
(0.88743 -0.473475 -1.16919e-23)
(0.861393 -0.480111 -1.07467e-22)
(0.881837 -0.172265 -7.13404e-23)
(0.900898 -0.0325317 -1.07524e-22)
(0.927856 0.338443 -1.95015e-22)
(0.926015 0.459943 -3.94567e-23)
(0.936195 0.382321 -1.87949e-22)
(0.925906 0.368915 2.14748e-22)
(1.01205 -0.225987 -2.30689e-22)
(0.988241 -0.326859 8.11011e-23)
(0.179428 0.0635344 5.16065e-21)
(0.231683 -0.0723162 9.16608e-22)
(0.2997 -0.265177 -1.96844e-22)
(0.361041 -0.475735 -5.7118e-22)
(0.382224 -0.62044 -8.69126e-22)
(0.345148 -0.667711 3.5493e-21)
(0.256333 -0.657582 -2.56752e-21)
(0.118342 -0.593129 -7.04611e-22)
(0.103563 -0.369653 -3.87815e-22)
(0.254491 -0.0317733 4.08952e-22)
(0.430527 0.299696 9.87232e-22)
(0.57738 0.478269 -2.53412e-22)
(0.659009 0.603432 -7.00992e-22)
(0.602675 0.704949 1.31396e-21)
(0.555814 0.637059 -1.8051e-21)
(0.670909 0.334451 5.16852e-22)
(0.850007 -0.117055 5.82211e-23)
(0.930059 -0.349101 5.002e-22)
(1.01055 -0.447309 -5.36225e-22)
(0.953315 -0.416398 5.45235e-22)
(0.895846 -0.468651 -2.56023e-23)
(0.87057 -0.481506 4.78111e-22)
(0.886204 -0.176531 1.04881e-22)
(0.902502 -0.0363882 -3.9172e-22)
(0.923119 0.335788 4.15931e-23)
(0.920464 0.459272 -1.00694e-22)
(0.93127 0.382402 2.46653e-23)
(0.923708 0.367003 -1.78653e-22)
(1.01588 -0.227373 1.36977e-22)
(0.990222 -0.326091 -6.44277e-23)
(0.23507 0.0536504 -3.77065e-21)
(0.297263 -0.0766438 2.33234e-21)
(0.373261 -0.26618 3.72474e-21)
(0.44059 -0.474186 2.37304e-22)
(0.459593 -0.614836 -5.66231e-21)
(0.416469 -0.655754 5.50265e-22)
(0.324649 -0.637845 4.36051e-22)
(0.176242 -0.583005 -1.33641e-21)
(0.110883 -0.39345 -4.36074e-22)
(0.238813 -0.0753546 1.54194e-21)
(0.413234 0.261717 -1.41188e-22)
(0.567154 0.454307 5.10953e-22)
(0.647264 0.597976 -1.16699e-21)
(0.592259 0.711372 7.02514e-22)
(0.559241 0.63764 -8.04798e-22)
(0.687738 0.326089 1.56871e-21)
(0.871597 -0.124179 2.08751e-22)
(0.947333 -0.355329 -7.21403e-22)
(1.02178 -0.448087 9.84992e-22)
(0.962493 -0.410464 -4.03238e-22)
(0.904105 -0.463731 1.89861e-22)
(0.879227 -0.482886 -7.69745e-23)
(0.890824 -0.18079 -2.84888e-22)
(0.904543 -0.040162 4.27228e-22)
(0.918609 0.333164 -7.03385e-23)
(0.914852 0.458589 3.36431e-22)
(0.926309 0.382389 -2.13276e-22)
(0.921788 0.364896 3.21905e-22)
(1.0198 -0.228786 -1.86211e-22)
(0.99215 -0.325257 2.18479e-24)
(0.29232 0.0420126 1.84873e-22)
(0.363701 -0.0821525 9.62984e-21)
(0.447693 -0.267142 -1.16274e-20)
(0.520709 -0.471529 -7.00449e-22)
(0.536976 -0.607777 7.5073e-21)
(0.487293 -0.64325 3.99243e-22)
(0.393029 -0.617953 -2.03721e-21)
(0.240953 -0.567417 -1.70442e-22)
(0.131388 -0.410288 5.52394e-22)
(0.228679 -0.117601 5.55809e-22)
(0.399625 0.221984 -4.06756e-23)
(0.558543 0.428892 -5.29307e-23)
(0.635871 0.591467 4.48395e-22)
(0.582581 0.716513 -6.1872e-22)
(0.563412 0.637364 4.46578e-22)
(0.704659 0.318144 -6.25516e-22)
(0.893296 -0.130186 -3.65724e-22)
(0.964799 -0.36046 8.1614e-22)
(1.03297 -0.448477 -1.51928e-21)
(0.971851 -0.404463 5.52586e-22)
(0.91223 -0.45867 -1.55356e-22)
(0.887317 -0.484244 -2.92468e-22)
(0.89561 -0.185079 4.54119e-23)
(0.906964 -0.0438682 -9.79681e-23)
(0.91432 0.330588 3.26248e-22)
(0.909188 0.457904 -1.69226e-22)
(0.921335 0.382272 -5.55905e-23)
(0.920164 0.362591 -1.48155e-22)
(1.02381 -0.230215 -8.14981e-23)
(0.99403 -0.324352 1.64168e-24)
(0.352193 0.0288173 -7.17844e-21)
(0.431491 -0.088757 1.29433e-20)
(0.52314 -0.268252 -2.95853e-21)
(0.600927 -0.46771 -1.32036e-20)
(0.613603 -0.599066 1.37251e-20)
(0.556902 -0.630161 6.19667e-22)
(0.459959 -0.598492 -4.84397e-21)
(0.30937 -0.548416 -2.38768e-24)
(0.165445 -0.41958 -6.38497e-22)
(0.224208 -0.157039 1.76772e-22)
(0.389463 0.18083 -5.88298e-22)
(0.551325 0.4021 5.82518e-22)
(0.624855 0.58381 -1.25276e-22)
(0.573679 0.720335 2.30614e-22)
(0.568143 0.636332 9.69971e-22)
(0.721554 0.31067 -2.35953e-21)
(0.915019 -0.135099 1.54684e-21)
(0.982376 -0.364496 -7.98269e-22)
(1.04409 -0.448493 3.21867e-22)
(0.981316 -0.398409 4.18263e-22)
(0.920237 -0.453426 -6.43181e-23)
(0.894834 -0.485569 -1.19591e-22)
(0.900478 -0.189435 5.41674e-22)
(0.909699 -0.0474901 -3.25023e-22)
(0.91024 0.328073 5.44956e-23)
(0.90348 0.457224 -2.76409e-22)
(0.916371 0.38204 4.20989e-22)
(0.918854 0.360086 4.16064e-22)
(1.02791 -0.231649 2.12449e-22)
(0.995866 -0.323374 -1.05173e-22)
(0.41588 0.013405 -4.12875e-21)
(0.501331 -0.0962929 1.72749e-20)
(0.599809 -0.269509 -4.98543e-21)
(0.680773 -0.462675 -5.12106e-21)
(0.68867 -0.588537 1.04278e-20)
(0.624684 -0.616357 -7.14901e-21)
(0.524371 -0.579869 -1.30348e-21)
(0.378763 -0.527449 7.10671e-22)
(0.211745 -0.42167 1.87984e-21)
(0.225852 -0.192404 -1.46783e-22)
(0.382209 0.138662 -1.84055e-22)
(0.545176 0.373986 -5.97288e-23)
(0.614233 0.574896 3.98343e-22)
(0.565577 0.722816 -8.40174e-22)
(0.573283 0.63465 9.64217e-22)
(0.738336 0.303695 -5.17986e-23)
(0.936698 -0.138946 8.87525e-22)
(0.999987 -0.367442 1.41187e-22)
(1.05511 -0.448151 8.16973e-22)
(0.990826 -0.39232 -7.29566e-22)
(0.928132 -0.447964 -1.78181e-22)
(0.901808 -0.486845 2.45384e-22)
(0.905348 -0.193888 -2.87706e-22)
(0.912675 -0.0510105 1.74115e-22)
(0.906358 0.325631 -2.51379e-22)
(0.897739 0.456556 -5.08224e-23)
(0.911441 0.38168 -5.5688e-23)
(0.917873 0.357381 -4.13504e-22)
(1.03211 -0.233077 -2.55902e-23)
(0.997663 -0.322318 1.95053e-22)
(0.484467 -0.00120448 -1.53715e-21)
(0.574144 -0.104181 1.04728e-20)
(0.677832 -0.270685 -1.12499e-20)
(0.759681 -0.456289 1.26377e-20)
(0.761352 -0.576109 3.31228e-21)
(0.690068 -0.601693 -4.48709e-21)
(0.585619 -0.562287 7.95891e-22)
(0.4469 -0.505976 -1.20298e-21)
(0.267603 -0.417347 8.17726e-22)
(0.234686 -0.222578 -1.17099e-21)
(0.377126 0.0960447 6.32718e-23)
(0.539665 0.344568 2.02009e-22)
(0.604008 0.56459 -6.83354e-22)
(0.558292 0.723941 8.44036e-22)
(0.578713 0.632422 -1.51873e-21)
(0.75495 0.297234 8.32665e-22)
(0.958286 -0.141761 -1.21042e-21)
(1.01756 -0.369306 8.28317e-22)
(1.06601 -0.447464 -4.13153e-22)
(1.00033 -0.386216 -2.29594e-22)
(0.935906 -0.442255 1.69489e-22)
(0.908295 -0.488054 -3.90298e-22)
(0.910149 -0.198464 5.78431e-22)
(0.915817 -0.0544623 -3.63754e-22)
(0.902652 0.323267 -3.94888e-22)
(0.891977 0.455904 -1.077e-22)
(0.906567 0.381182 3.9079e-23)
(0.917236 0.354475 8.96447e-24)
(1.0364 -0.234488 -1.07287e-22)
(0.999427 -0.321183 -1.60582e-22)
(0.558954 -0.0141293 1.00537e-20)
(0.649932 -0.112322 -5.71283e-21)
(0.757124 -0.271467 4.59656e-21)
(0.836937 -0.44832 -7.35699e-23)
(0.830817 -0.561772 5.13774e-21)
(0.75251 -0.586084 -3.88486e-21)
(0.643387 -0.545798 -1.86696e-21)
(0.512115 -0.485231 1.33743e-21)
(0.329625 -0.407764 8.00021e-22)
(0.25222 -0.246735 4.23749e-22)
(0.373509 0.0538048 -5.00868e-22)
(0.534279 0.313826 6.19969e-22)
(0.594158 0.552736 6.03968e-22)
(0.55183 0.723694 -1.58045e-22)
(0.584341 0.629745 7.68337e-23)
(0.771377 0.291297 -7.11794e-22)
(0.979754 -0.143575 4.20401e-22)
(1.03504 -0.370098 6.18417e-22)
(1.07672 -0.446437 -9.61236e-23)
(1.00978 -0.380114 9.92861e-23)
(0.943548 -0.436279 -2.28902e-22)
(0.914367 -0.489169 9.18924e-23)
(0.914823 -0.203175 -4.11074e-22)
(0.919043 -0.0578823 -2.166e-23)
(0.899101 0.320982 3.15093e-22)
(0.886204 0.455272 3.38997e-22)
(0.901773 0.380536 -4.27001e-23)
(0.916957 0.351371 1.86766e-23)
(1.04078 -0.235871 3.25859e-22)
(1.00116 -0.319965 3.71614e-23)
(0.639332 -0.0271002 -9.12602e-21)
(0.729185 -0.12027 1.26793e-20)
(0.83736 -0.271432 -2.55863e-21)
(0.911654 -0.438504 -3.92462e-21)
(0.896255 -0.545544 6.48325e-21)
(0.811504 -0.569481 3.81633e-22)
(0.697598 -0.530285 -7.1109e-22)
(0.573304 -0.466054 1.52783e-21)
(0.394453 -0.394318 -1.61557e-21)
(0.27965 -0.264417 4.95561e-22)
(0.371038 0.0135508 9.36173e-23)
(0.528488 0.281744 -4.9547e-23)
(0.584639 0.539147 -3.48454e-22)
(0.546188 0.722057 7.57282e-22)
(0.590095 0.626708 -2.76418e-22)
(0.787634 0.2859 1.66954e-21)
(1.0011 -0.144418 -2.04265e-21)
(1.05237 -0.369814 5.93747e-22)
(1.08721 -0.445054 2.50728e-22)
(1.01916 -0.374022 -1.28641e-23)
(0.951043 -0.43002 2.05958e-22)
(0.920092 -0.490155 -5.76195e-23)
(0.919327 -0.208022 1.92776e-22)
(0.922268 -0.0612877 -4.93635e-23)
(0.895682 0.318774 3.55599e-22)
(0.880434 0.454661 4.29229e-23)
(0.897083 0.379733 1.77994e-22)
(0.917047 0.348068 -2.28141e-22)
(1.04527 -0.237217 -3.05483e-22)
(1.00286 -0.31866 7.33028e-23)
(0.724782 -0.0386805 -4.3701e-22)
(0.811828 -0.127432 -4.94332e-21)
(0.917805 -0.270059 -1.01459e-20)
(0.982763 -0.426491 6.30514e-21)
(0.956923 -0.527321 3.97521e-21)
(0.866619 -0.551671 -1.24789e-21)
(0.748319 -0.515288 -1.29028e-22)
(0.629873 -0.448714 1.34852e-21)
(0.459249 -0.378388 -1.00457e-21)
(0.31704 -0.275427 4.81578e-23)
(0.370129 -0.0243761 -2.67448e-23)
(0.521771 0.248322 -6.08158e-22)
(0.575391 0.523614 1.10768e-21)
(0.541355 0.719003 -1.41317e-21)
(0.595918 0.623384 1.69267e-21)
(0.803805 0.281033 -1.42508e-21)
(1.02238 -0.144345 -2.81031e-22)
(1.06949 -0.368449 -1.03689e-21)
(1.09741 -0.443289 3.31722e-22)
(1.02846 -0.367942 -5.82261e-22)
(0.95838 -0.423468 1.44646e-22)
(0.925527 -0.490989 2.23841e-22)
(0.923633 -0.212997 -8.70983e-23)
(0.925399 -0.0646615 2.88728e-22)
(0.892369 0.316638 -5.87934e-22)
(0.874678 0.454072 3.07069e-22)
(0.892518 0.378762 -3.27993e-22)
(0.917516 0.344571 2.50124e-22)
(1.04986 -0.23852 7.788e-23)
(1.00454 -0.317267 1.73318e-23)
(0.813811 -0.048422 -8.28626e-22)
(0.897539 -0.133383 -5.56778e-21)
(0.997269 -0.266854 2.0449e-20)
(1.04906 -0.411992 -1.67931e-20)
(1.01222 -0.50702 1.02319e-20)
(0.917551 -0.532491 -5.19996e-21)
(0.79568 -0.50034 2.46298e-21)
(0.681615 -0.433237 2.53545e-22)
(0.521872 -0.36136 9.81766e-23)
(0.362662 -0.280155 3.74337e-22)
(0.372077 -0.0590734 -1.9913e-23)
(0.51404 0.213887 -4.41183e-22)
(0.566358 0.505932 6.5878e-22)
(0.537319 0.714484 -1.7486e-21)
(0.601763 0.619825 2.92375e-21)
(0.820082 0.276595 1.55025e-21)
(1.04368 -0.143457 -2.95887e-21)
(1.08633 -0.366047 4.40394e-22)
(1.10728 -0.441223 7.81068e-22)
(1.03766 -0.361947 1.35529e-22)
(0.965557 -0.416632 -7.23583e-22)
(0.930709 -0.491699 1.58744e-22)
(0.927737 -0.21812 1.15171e-22)
(0.928338 -0.0679807 -1.01486e-22)
(0.889129 0.314571 2.73578e-22)
(0.86895 0.453503 -3.141e-22)
(0.888104 0.377614 -6.40444e-23)
(0.918374 0.340879 3.37064e-22)
(1.05455 -0.239759 4.33408e-23)
(1.00618 -0.315783 -3.22323e-23)
(0.905295 -0.0563428 5.7499e-22)
(0.985786 -0.13789 -2.24919e-21)
(1.07399 -0.261587 -1.0378e-20)
(1.10925 -0.395475 8.65673e-21)
(1.06173 -0.485851 -1.19458e-20)
(0.964159 -0.513485 1.61645e-21)
(0.839843 -0.486712 5.81046e-21)
(0.72864 -0.420894 -2.15324e-21)
(0.580901 -0.345441 5.62007e-22)
(0.413869 -0.280085 2.74339e-22)
(0.378801 -0.0889946 -2.08912e-22)
(0.505443 0.178874 -5.30571e-23)
(0.557502 0.485906 -6.3584e-23)
(0.534031 0.708454 3.66648e-22)
(0.60757 0.616134 1.29009e-21)
(0.836889 0.2726 8.65974e-22)
(1.06518 -0.141637 -2.58081e-21)
(1.10283 -0.362731 1.58463e-21)
(1.11678 -0.439139 -5.96962e-23)
(1.04676 -0.356241 -3.44736e-22)
(0.972581 -0.409542 1.52299e-22)
(0.935655 -0.492354 -1.36581e-22)
(0.93165 -0.223465 1.16474e-22)
(0.930977 -0.0713647 -1.57463e-22)
(0.88592 0.312553 2.60241e-22)
(0.86326 0.452953 1.47165e-22)
(0.883868 0.376283 -1.00471e-22)
(0.919633 0.337005 -9.861e-23)
(1.05936 -0.240887 -2.19557e-22)
(1.00779 -0.314204 -9.82802e-24)
(1.00039 -0.0638495 -4.78312e-21)
(1.07557 -0.140175 1.22993e-20)
(1.14536 -0.253404 -6.31369e-21)
(1.1619 -0.377551 -7.0504e-21)
(1.10517 -0.46578 2.94223e-21)
(1.00647 -0.497115 -3.7211e-21)
(0.88108 -0.476517 4.66101e-21)
(0.771433 -0.413445 1.2907e-22)
(0.635673 -0.332877 -6.82352e-22)
(0.467878 -0.277064 1.2108e-22)
(0.392173 -0.114676 2.18486e-22)
(0.496809 0.142696 -3.39127e-22)
(0.548812 0.463572 1.04544e-22)
(0.531655 0.700931 -3.19125e-22)
(0.613175 0.611931 -1.43681e-21)
(0.855346 0.270156 3.19251e-21)
(1.08713 -0.138123 -3.99768e-21)
(1.11885 -0.358442 1.56685e-21)
(1.12586 -0.43706 -8.58e-22)
(1.0558 -0.350858 5.97299e-22)
(0.97947 -0.402199 4.59691e-23)
(0.940371 -0.492839 -1.60271e-22)
(0.935387 -0.228963 2.56845e-23)
(0.933213 -0.0751342 -5.56345e-23)
(0.882682 0.310412 -6.05489e-23)
(0.857612 0.452403 -1.51686e-22)
(0.879851 0.374794 4.90318e-23)
(0.92132 0.332999 -1.49738e-24)
(1.06428 -0.241868 1.08878e-22)
(1.00936 -0.312525 3.11819e-23)
(1.10498 -0.0719261 -1.63056e-20)
(1.1646 -0.137899 3.49272e-21)
(1.20793 -0.238825 -5.21753e-21)
(1.20561 -0.353295 1.77732e-20)
(1.14228 -0.439736 -7.27531e-21)
(1.04446 -0.474839 4.81146e-21)
(0.919521 -0.460976 8.53499e-23)
(0.810567 -0.403318 -3.25662e-21)
(0.685992 -0.318747 2.34303e-22)
(0.522396 -0.267524 -2.66244e-22)
(0.412976 -0.133034 -1.42057e-23)
(0.489878 0.106346 3.05144e-22)
(0.540423 0.435817 -8.01122e-22)
(0.529167 0.691379 1.61074e-21)
(0.619814 0.610848 1.13436e-21)
(0.878991 0.269217 1.02607e-21)
(1.10992 -0.13354 -1.34213e-21)
(1.13418 -0.352402 -9.70562e-22)
(1.1345 -0.433467 -3.79041e-22)
(1.06476 -0.344795 4.92648e-22)
(0.986252 -0.394424 -2.91141e-22)
(0.94486 -0.49254 -5.86459e-23)
(0.938928 -0.234035 7.2688e-23)
(0.934953 -0.0787292 1.38429e-22)
(0.879322 0.308136 -1.89816e-22)
(0.851982 0.451739 2.01045e-22)
(0.876153 0.373162 2.81789e-23)
(0.923512 0.3288 -5.17232e-23)
(1.06931 -0.24291 -2.39913e-23)
(1.01088 -0.31074 -9.34676e-24)
(1.24407 -0.0771192 0)
(1.25741 -0.134422 0)
(1.26692 -0.218889 0)
(1.24745 -0.314842 0)
(1.18048 -0.390859 0)
(1.08554 -0.425653 0)
(0.962321 -0.419012 0)