/*--------------------------------*- C++ -*----------------------------------*\
  =========                 |
  \\      /  F ield         | OpenFOAM: The Open Source CFD Toolbox
   \\    /   O peration     | Website:  https://openfoam.org
    \\  /    A nd           | Version:  7
     \\/     M anipulation  |
\*---------------------------------------------------------------------------*/
FoamFile
{
    version     2.0;
    format      ascii;
    class       volScalarField;
    location    "10";
    object      p;
}
// * * * * * * * * * * * * * * * * * * * * * * * * * * * * * * * * * * * * * //

dimensions      [0 2 -2 0 0 0 0];

internalField   nonuniform List<scalar> 
2125
(
-0.314909
-0.320449
-0.322295
-0.322581
-0.321542
-0.319257
-0.315896
-0.311632
-0.306576
-0.300709
-0.315681
-0.321093
-0.322856
-0.323067
-0.321958
-0.319607
-0.316186
-0.311871
-0.306768
-0.30078
-0.317218
-0.322377
-0.323975
-0.324035
-0.322785
-0.320304
-0.316761
-0.312345
-0.307146
-0.300914
-0.31951
-0.324293
-0.325644
-0.325478
-0.324015
-0.32134
-0.317613
-0.313042
-0.307704
-0.301085
-0.322542
-0.326827
-0.327852
-0.327383
-0.325639
-0.322702
-0.318728
-0.313948
-0.308422
-0.3012
-0.326293
-0.329964
-0.330583
-0.329739
-0.327642
-0.324376
-0.320091
-0.315045
-0.309283
-0.301153
-0.33074
-0.333686
-0.333822
-0.332529
-0.330008
-0.326348
-0.321686
-0.316305
-0.310254
-0.301563
-0.33586
-0.337974
-0.337551
-0.335737
-0.332723
-0.328602
-0.323496
-0.31773
-0.311259
-0.301734
-0.341626
-0.342805
-0.34175
-0.339344
-0.33577
-0.331121
-0.325505
-0.319285
-0.312343
-0.301747
-0.348013
-0.348158
-0.3464
-0.343335
-0.339134
-0.333893
-0.3277
-0.320957
-0.313484
-0.301595
-0.354996
-0.354011
-0.351481
-0.347692
-0.342802
-0.336908
-0.330074
-0.322737
-0.314661
-0.30123
-0.362551
-0.36034
-0.356975
-0.3524
-0.346763
-0.340161
-0.332625
-0.324625
-0.315862
-0.300615
-0.37065
-0.367126
-0.362863
-0.357446
-0.351009
-0.343651
-0.33536
-0.32663
-0.317092
-0.299716
-0.379271
-0.374345
-0.369126
-0.362815
-0.355535
-0.347381
-0.338293
-0.328776
-0.318363
-0.298514
-0.388384
-0.381971
-0.375745
-0.368497
-0.360338
-0.35136
-0.341449
-0.3311
-0.319715
-0.297034
-0.397959
-0.38998
-0.3827
-0.37448
-0.365416
-0.3556
-0.344861
-0.333667
-0.32123
-0.295391
-0.407959
-0.398341
-0.389969
-0.38075
-0.370768
-0.360117
-0.348571
-0.336554
-0.322975
-0.293675
-0.418343
-0.407023
-0.397527
-0.387292
-0.376391
-0.364927
-0.352638
-0.339856
-0.324846
-0.291485
-0.429061
-0.415987
-0.405347
-0.394088
-0.382279
-0.370051
-0.357162
-0.343803
-0.327042
-0.289163
-0.440056
-0.425191
-0.413394
-0.401111
-0.388413
-0.375494
-0.362231
-0.348793
-0.331982
-0.29692
-0.451265
-0.434587
-0.421629
-0.408326
-0.394754
-0.381192
-0.367698
-0.354621
-0.342018
-0.339525
-0.462619
-0.444122
-0.430009
-0.415691
-0.401246
-0.387018
-0.373198
-0.360147
-0.34872
-0.353305
-0.474046
-0.453739
-0.438484
-0.423161
-0.407837
-0.392893
-0.378566
-0.36509
-0.353006
-0.357724
-0.463376
-0.447003
-0.430691
-0.414484
-0.398778
-0.383797
-0.369644
-0.356517
-0.359838
-0.455505
-0.438227
-0.421137
-0.404629
-0.388877
-0.373858
-0.359501
-0.360359
-0.463926
-0.44571
-0.42774
-0.410387
-0.393754
-0.37769
-0.361905
-0.359673
-0.453066
-0.434218
-0.415981
-0.398361
-0.381091
-0.363724
-0.358118
-0.440489
-0.421321
-0.402618
-0.384005
-0.364947
-0.355873
-0.406432
-0.386361
-0.365539
-0.353016
-0.388078
-0.365445
-0.349568
-0.364597
-0.345511
-0.314909
-0.320449
-0.322295
-0.295208
-0.286812
-0.277934
-0.267785
-0.256658
-0.244677
-0.231984
-0.218753
-0.205153
-0.191353
-0.177508
-0.163757
-0.150225
-0.137015
-0.12422
-0.111895
-0.100123
-0.0888743
-0.0783048
-0.0681531
-0.0589298
-0.0496532
-0.0420634
-0.0329821
-0.0278933
-0.0172957
-0.0171905
-0.000955474
-0.0122592
0.019189
-0.295687
-0.287094
-0.278197
-0.268018
-0.256866
-0.244866
-0.232156
-0.218912
-0.205301
-0.191491
-0.177636
-0.163876
-0.150335
-0.137117
-0.124313
-0.11198
-0.100201
-0.0889451
-0.0783691
-0.0682116
-0.0589827
-0.0497019
-0.0421065
-0.0330236
-0.0279269
-0.0173336
-0.0172124
-0.00099516
-0.0122614
0.0191352
-0.296637
-0.28765
-0.278718
-0.26848
-0.257277
-0.24524
-0.232499
-0.219228
-0.205594
-0.191764
-0.17789
-0.164112
-0.150554
-0.137318
-0.124499
-0.11215
-0.100356
-0.0890862
-0.0784973
-0.0683282
-0.059088
-0.0497989
-0.0421923
-0.0331064
-0.0279939
-0.0174091
-0.0172562
-0.00107424
-0.0122658
0.0190279
-0.29805
-0.288466
-0.279486
-0.26916
-0.257882
-0.24579
-0.233003
-0.219695
-0.206028
-0.192168
-0.178267
-0.164463
-0.150879
-0.137619
-0.124775
-0.112403
-0.100587
-0.0892968
-0.0786885
-0.0685023
-0.0592453
-0.0499437
-0.0423203
-0.0332299
-0.0280938
-0.0175216
-0.0173214
-0.00119211
-0.012272
0.0188679
-0.299991
-0.289503
-0.280482
-0.270044
-0.258667
-0.246505
-0.23366
-0.220304
-0.206597
-0.192699
-0.178763
-0.164925
-0.151309
-0.138016
-0.12514
-0.112738
-0.100893
-0.0895756
-0.0789418
-0.0687328
-0.0594534
-0.0501353
-0.0424897
-0.0333933
-0.0282259
-0.0176704
-0.0174075
-0.0013479
-0.0122799
0.018656
-0.30259
-0.290679
-0.281678
-0.271112
-0.259616
-0.247371
-0.234458
-0.221046
-0.207291
-0.19335
-0.179372
-0.165494
-0.151838
-0.138506
-0.125592
-0.113153
-0.101272
-0.089921
-0.0792556
-0.0690184
-0.0597112
-0.0503724
-0.0426993
-0.0335953
-0.0283892
-0.0178543
-0.0175137
-0.00154046
-0.012289
0.0183936
-0.304913
-0.292356
-0.283064
-0.272344
-0.26071
-0.248369
-0.23538
-0.221908
-0.2081
-0.194112
-0.180089
-0.166165
-0.152464
-0.139087
-0.126128
-0.113645
-0.101722
-0.090331
-0.0796281
-0.0693574
-0.0600171
-0.0506538
-0.0429477
-0.0338347
-0.0285826
-0.018072
-0.0176393
-0.0017684
-0.012299
0.0180822
-0.307762
-0.294147
-0.284597
-0.273713
-0.261924
-0.24948
-0.236411
-0.222876
-0.209014
-0.194976
-0.180904
-0.166931
-0.15318
-0.139752
-0.126743
-0.11421
-0.10224
-0.0908032
-0.0800572
-0.0697478
-0.0603693
-0.0509776
-0.0432334
-0.0341099
-0.0288046
-0.0183219
-0.0177832
-0.00203011
-0.0123093
0.0177239
-0.310995
-0.296076
-0.286257
-0.275193
-0.263236
-0.250683
-0.237533
-0.223935
-0.21002
-0.195932
-0.18181
-0.167786
-0.153981
-0.140499
-0.127435
-0.114847
-0.102822
-0.0913351
-0.0805404
-0.0701875
-0.0607657
-0.051342
-0.0435546
-0.0344191
-0.0290539
-0.0186023
-0.0179444
-0.00232379
-0.0123193
0.0173206
-0.314516
-0.298147
-0.288014
-0.276753
-0.264619
-0.251955
-0.238727
-0.22507
-0.211105
-0.196969
-0.182798
-0.168721
-0.154861
-0.141321
-0.128197
-0.11555
-0.103467
-0.0919236
-0.0810752
-0.0706741
-0.0612042
-0.0517447
-0.0439094
-0.0347604
-0.0293287
-0.0189114
-0.0181216
-0.00264748
-0.0123286
0.0168747
-0.318222
-0.300337
-0.289833
-0.278361
-0.266047
-0.253276
-0.239975
-0.226266
-0.212256
-0.198077
-0.183858
-0.16973
-0.155814
-0.142213
-0.129026
-0.116316
-0.10417
-0.0925655
-0.0816587
-0.0712048
-0.0616822
-0.0521836
-0.0442956
-0.0351317
-0.0296274
-0.019247
-0.0183135
-0.00299908
-0.0123365
0.0163887
-0.322078
-0.302623
-0.29168
-0.279985
-0.267496
-0.254623
-0.241259
-0.227507
-0.213461
-0.199244
-0.184982
-0.170805
-0.156832
-0.143169
-0.129918
-0.11714
-0.104927
-0.0932575
-0.0822877
-0.071777
-0.0621973
-0.0526563
-0.044711
-0.0355309
-0.029948
-0.0196073
-0.018519
-0.0033764
-0.0123424
0.0158652
-0.325985
-0.304979
-0.293521
-0.281594
-0.26894
-0.255976
-0.242561
-0.228778
-0.214707
-0.200459
-0.186161
-0.171937
-0.157909
-0.144184
-0.130865
-0.118018
-0.105734
-0.0939962
-0.0829593
-0.0723879
-0.0627467
-0.0531603
-0.0451535
-0.0359557
-0.0302888
-0.0199899
-0.0187365
-0.00377719
-0.0123458
0.0153072
-0.329808
-0.307376
-0.295328
-0.283153
-0.270357
-0.257318
-0.243868
-0.230068
-0.215982
-0.201714
-0.187385
-0.173119
-0.159038
-0.145252
-0.131865
-0.118945
-0.106589
-0.0947782
-0.0836704
-0.0730346
-0.063328
-0.0536931
-0.0456206
-0.0364038
-0.0306478
-0.0203928
-0.0189649
-0.00419916
-0.0123462
0.0147175
-0.333362
-0.309767
-0.297067
-0.28463
-0.271722
-0.25863
-0.245162
-0.231361
-0.217274
-0.202996
-0.188645
-0.174342
-0.160212
-0.146366
-0.132911
-0.119917
-0.107485
-0.0955991
-0.0844169
-0.0737135
-0.0639378
-0.0542518
-0.0461098
-0.0368729
-0.0310229
-0.0208137
-0.0192025
-0.00464004
-0.012343
0.0140989
-0.33634
-0.31205
-0.2987
-0.285986
-0.27301
-0.259893
-0.246428
-0.232643
-0.218568
-0.204291
-0.189926
-0.175593
-0.161418
-0.147514
-0.133991
-0.120924
-0.108414
-0.0964517
-0.0851926
-0.0744191
-0.0645713
-0.0548322
-0.0466174
-0.0373596
-0.0314114
-0.02125
-0.0194477
-0.00509745
-0.0123356
0.0134544
-0.338284
-0.314134
-0.300235
-0.287216
-0.274216
-0.261106
-0.247664
-0.233909
-0.21986
-0.205596
-0.191225
-0.176869
-0.162653
-0.148694
-0.135105
-0.121965
-0.109376
-0.0973343
-0.0859958
-0.0751498
-0.065227
-0.0554327
-0.047142
-0.0378622
-0.0318124
-0.0216996
-0.0197003
-0.00556865
-0.0123247
0.0127872
-0.338925
-0.316109
-0.301766
-0.288373
-0.275377
-0.262309
-0.248911
-0.235205
-0.221198
-0.206958
-0.192592
-0.178219
-0.163966
-0.149952
-0.136295
-0.123077
-0.110404
-0.098277
-0.0868524
-0.0759269
-0.0659226
-0.0560665
-0.047695
-0.0383874
-0.0322328
-0.022164
-0.0199648
-0.00605129
-0.0123139
0.0121005
-0.337508
-0.317344
-0.303058
-0.289333
-0.276404
-0.263439
-0.25013
-0.236506
-0.222568
-0.208378
-0.194036
-0.179661
-0.16538
-0.151316
-0.13759
-0.12429
-0.111527
-0.0993056
-0.0877851
-0.0767702
-0.0666743
-0.0567472
-0.0482858
-0.0389433
-0.0326762
-0.0226473
-0.0202401
-0.00654766
-0.0122986
0.0113951
-0.32701
-0.314783
-0.303155
-0.289468
-0.276771
-0.264012
-0.250841
-0.237327
-0.223484
-0.209368
-0.195077
-0.180729
-0.166453
-0.152373
-0.138614
-0.125267
-0.112446
-0.100163
-0.0885733
-0.0774978
-0.0673278
-0.0573573
-0.0488102
-0.0394649
-0.0330701
-0.0231269
-0.0204708
-0.00706606
-0.0122368
0.0106666
-0.292312
-0.307329
-0.302782
-0.289562
-0.277124
-0.26453
-0.251398
-0.23787
-0.223995
-0.209843
-0.195519
-0.181143
-0.166846
-0.152753
-0.138986
-0.125637
-0.112815
-0.100539
-0.0889469
-0.0778905
-0.0677029
-0.0577756
-0.0491679
-0.0399236
-0.0333677
-0.0236553
-0.020628
-0.00772434
-0.0120723
0.00974758
-0.280878
-0.298334
-0.29715
-0.284807
-0.273117
-0.261233
-0.24864
-0.235561
-0.222092
-0.208308
-0.194316
-0.180239
-0.166207
-0.152343
-0.138771
-0.125586
-0.112896
-0.100732
-0.0892176
-0.0782352
-0.0680767
-0.0582119
-0.0495743
-0.0404231
-0.033735
-0.0242289
-0.0208513
-0.00844461
-0.0119246
0.00867205
-0.275606
-0.289874
-0.28988
-0.278493
-0.26755
-0.256437
-0.2445
-0.231994
-0.219053
-0.205758
-0.192217
-0.178551
-0.164888
-0.151353
-0.138066
-0.125127
-0.112642
-0.10065
-0.0892703
-0.0784063
-0.068318
-0.0585433
-0.0499078
-0.0408608
-0.0340714
-0.0247654
-0.0210724
-0.00914386
-0.0117887
0.00757534
-0.271248
-0.28137
-0.282039
-0.271774
-0.261525
-0.251152
-0.239904
-0.228009
-0.215634
-0.202866
-0.189812
-0.176593
-0.163334
-0.150159
-0.137189
-0.124525
-0.112271
-0.100477
-0.0892519
-0.0785245
-0.0685223
-0.0588499
-0.0502274
-0.0412922
-0.0344063
-0.0253074
-0.0212938
-0.00985972
-0.0116394
0.00643682
-0.266333
-0.272593
-0.273416
-0.264351
-0.254831
-0.245211
-0.23471
-0.223495
-0.211751
-0.19957
-0.187059
-0.174338
-0.16153
-0.148759
-0.136143
-0.123788
-0.111796
-0.100224
-0.089176
-0.0786024
-0.0687013
-0.0591413
-0.0505414
-0.0417225
-0.0347451
-0.0258554
-0.0215175
-0.0105901
-0.011477
0.00526368
-0.260153
-0.263307
-0.263831
-0.255969
-0.247274
-0.238446
-0.22876
-0.218305
-0.207269
-0.19575
-0.183852
-0.171693
-0.159396
-0.147082
-0.134871
-0.122867
-0.111175
-0.0998572
-0.0890143
-0.0786164
-0.0688362
-0.0594012
-0.0508375
-0.0421394
-0.0350801
-0.026399
-0.0217408
-0.0113235
-0.011306
0.00407217
-0.252264
-0.25324
-0.253235
-0.246557
-0.2388
-0.230818
-0.222008
-0.21239
-0.202137
-0.191354
-0.180141
-0.168612
-0.156888
-0.145089
-0.133334
-0.121728
-0.110377
-0.0993506
-0.0887442
-0.0785472
-0.0689104
-0.0596153
-0.0511039
-0.0425322
-0.0354035
-0.0269291
-0.0219597
-0.0120501
-0.0111304
0.00287966
-0.242444
-0.242191
-0.241645
-0.236115
-0.229403
-0.222331
-0.21445
-0.205736
-0.196338
-0.186361
-0.1759
-0.165066
-0.153977
-0.142751
-0.131506
-0.120347
-0.109382
-0.0986838
-0.0883475
-0.0783788
-0.0689098
-0.0597715
-0.0513304
-0.0428916
-0.035708
-0.0274376
-0.0221704
-0.0127606
-0.0109541
0.00170473
-0.230714
-0.230071
-0.229132
-0.224705
-0.219119
-0.213017
-0.206108
-0.198353
-0.189871
-0.180761
-0.171115
-0.161038
-0.150643
-0.140047
-0.129364
-0.118702
-0.108166
-0.0978371
-0.0878063
-0.0780951
-0.0688204
-0.0598573
-0.0515061
-0.0432079
-0.0359859
-0.0279164
-0.0223691
-0.0134454
-0.0107814
0.000567324
-0.217309
-0.216914
-0.215825
-0.212455
-0.208032
-0.202948
-0.197041
-0.190282
-0.182761
-0.174568
-0.165788
-0.156521
-0.146875
-0.136961
-0.126892
-0.116774
-0.106713
-0.0967923
-0.0871033
-0.0776802
-0.0686277
-0.05986
-0.0516199
-0.0434713
-0.0362293
-0.0283573
-0.0225519
-0.014095
-0.0106173
-0.000512061
-0.202614
-0.202881
-0.201911
-0.199548
-0.196282
-0.192239
-0.187346
-0.1816
-0.175065
-0.167821
-0.159946
-0.151531
-0.142677
-0.133491
-0.124081
-0.114552
-0.105008
-0.0955352
-0.0862242
-0.0771204
-0.0683187
-0.0597677
-0.0516611
-0.0436723
-0.0364304
-0.0287524
-0.0227152
-0.0146999
-0.0104665
-0.00151355
-0.187108
-0.188233
-0.187621
-0.186209
-0.184049
-0.181039
-0.17715
-0.172408
-0.166868
-0.160587
-0.153637
-0.146101
-0.138072
-0.12965
-0.120937
-0.112035
-0.103046
-0.0940574
-0.0851588
-0.0764049
-0.0678825
-0.0595704
-0.0516202
-0.0438027
-0.0365821
-0.0290949
-0.0228559
-0.0152518
-0.0103333
-0.00241925
-0.171281
-0.173287
-0.173204
-0.172678
-0.171538
-0.16952
-0.166604
-0.162841
-0.158276
-0.152952
-0.14693
-0.140284
-0.133098
-0.125463
-0.117475
-0.109231
-0.100829
-0.092357
-0.0839023
-0.075527
-0.0673116
-0.0592604
-0.0514898
-0.0438555
-0.0366785
-0.0293788
-0.0229712
-0.0157434
-0.0102214
-0.00321456
-0.15558
-0.158374
-0.158909
-0.159187
-0.158961
-0.157863
-0.155867
-0.153038
-0.14941
-0.145019
-0.13991
-0.134149
-0.127808
-0.120971
-0.113724
-0.10616
-0.0983695
-0.0904399
-0.082456
-0.0744852
-0.0666023
-0.058833
-0.0512646
-0.0438259
-0.0367152
-0.0296
-0.0230596
-0.0161691
-0.0101332
-0.00388952
-0.140363
-0.143793
-0.144956
-0.145947
-0.146513
-0.146244
-0.145099
-0.143139
-0.140397
-0.136895
-0.13267
-0.127773
-0.122267
-0.116225
-0.109725
-0.10285
-0.0956875
-0.0883196
-0.0808279
-0.0732833
-0.0657553
-0.0582873
-0.0509423
-0.0437115
-0.0366895
-0.0297557
-0.0231198
-0.0165256
-0.010069
-0.0044398
-0.125887
-0.129782
-0.131528
-0.13313
-0.134366
-0.134825
-0.134445
-0.133282
-0.131361
-0.128695
-0.125308
-0.121241
-0.116546
-0.111284
-0.105523
-0.0993398
-0.0928112
-0.0860165
-0.0790322
-0.0719305
-0.064776
-0.0576261
-0.0505239
-0.0435121
-0.036601
-0.0298452
-0.0231516
-0.0168116
-0.010028
-0.00486666
-0.112312
-0.116514
-0.118762
-0.120871
-0.122661
-0.123741
-0.124037
-0.123589
-0.122416
-0.120522
-0.117919
-0.114638
-0.110718
-0.106211
-0.101173
-0.0956716
-0.0897752
-0.0835571
-0.0770885
-0.070441
-0.0636741
-0.0568558
-0.0500132
-0.0432303
-0.0364507
-0.0298694
-0.0231553
-0.0170283
-0.0100075
-0.00517672
-0.0997228
-0.104098
-0.106754
-0.109271
-0.111506
-0.113106
-0.113985
-0.114168
-0.113666
-0.112474
-0.110594
-0.108047
-0.104859
-0.101072
-0.096731
-0.0918928
-0.0866182
-0.0809727
-0.0750213
-0.0688334
-0.0624633
-0.0559863
-0.0494169
-0.0428709
-0.0362416
-0.0298312
-0.0231317
-0.0171788
-0.0100039
-0.00538127
-0.0881491
-0.092594
-0.0955647
-0.0983991
-0.100983
-0.103007
-0.10438
-0.105111
-0.105201
-0.104638
-0.103417
-0.101545
-0.0990399
-0.0959305
-0.0922532
-0.0880533
-0.0833822
-0.0782981
-0.0728587
-0.0671298
-0.0611607
-0.0550304
-0.0487445
-0.0424409
-0.0359784
-0.0297347
-0.0230818
-0.0172682
-0.0100124
-0.0054951
-0.0775879
-0.0820271
-0.0852289
-0.0883001
-0.0911509
-0.0935131
-0.0952953
-0.0964933
-0.0970992
-0.0970938
-0.0964634
-0.0952058
-0.0933292
-0.090851
-0.0877975
-0.0842037
-0.0801117
-0.0755709
-0.070632
-0.0653559
-0.0597864
-0.054004
-0.0480077
-0.0419494
-0.035667
-0.0295857
-0.0230071
-0.017303
-0.0100279
-0.005535
-0.0680189
-0.0724
-0.0757626
-0.0790034
-0.0820508
-0.0846768
-0.0867923
-0.088382
-0.0894299
-0.0899109
-0.0898041
-0.0890986
-0.0877931
-0.0858952
-0.0834212
-0.0803961
-0.0768525
-0.0728312
-0.0683752
-0.0635397
-0.0583633
-0.0529252
-0.0472203
-0.0414073
-0.0353147
-0.0293911
-0.0229094
-0.0172909
-0.0100455
-0.00551822
-0.0594148
-0.0637037
-0.067171
-0.0705268
-0.0737132
-0.0765392
-0.0789205
-0.0808331
-0.0822542
-0.0831537
-0.0835046
-0.0832885
-0.0824956
-0.0811244
-0.0791818
-0.0766834
-0.0736524
-0.0701213
-0.066125
-0.0617124
-0.0569171
-0.0518148
-0.0463985
-0.0408275
-0.0349301
-0.0291592
-0.0227913
-0.01724
-0.010061
-0.0054611
-0.0517483
-0.0559249
-0.0594538
-0.0628817
-0.0661608
-0.0691337
-0.0717223
-0.0738964
-0.0756276
-0.0768817
-0.0776271
-0.0778387
-0.0774994
-0.0765997
-0.0751377
-0.0731201
-0.0705615
-0.0674859
-0.0639207
-0.0599079
-0.055476
-0.0506964
-0.0455608
-0.0402249
-0.0345236
-0.0288994
-0.0226561
-0.017159
-0.0100713
-0.00537801
-0.044996
-0.0490511
-0.0526097
-0.0560772
-0.0594131
-0.0624897
-0.0652361
-0.0676179
-0.0696023
-0.0711522
-0.072232
-0.0728115
-0.0728673
-0.0723828
-0.0713484
-0.0697627
-0.0676321
-0.0649727
-0.0618046
-0.058163
-0.0540717
-0.049596
-0.0447281
-0.0396164
-0.0341071
-0.0286223
-0.0225085
-0.0170567
-0.0100747
-0.00528079
-0.0391412
-0.0430743
-0.0466403
-0.0501238
-0.0534898
-0.056636
-0.0594994
-0.0620427
-0.0642298
-0.0660216
-0.0673796
-0.0682697
-0.0686631
-0.068537
-0.0678756
-0.06667
-0.0649194
-0.0626324
-0.0598226
-0.0565182
-0.0527385
-0.0485429
-0.0439241
-0.0390213
-0.0336945
-0.0283398
-0.0223545
-0.0169417
-0.0100713
-0.00517856
-0.0341765
-0.0379941
-0.0415531
-0.0450371
-0.0484141
-0.0516043
-0.0545516
-0.0572172
-0.0595629
-0.061548
-0.0631321
-0.064278
-0.0649528
-0.0651288
-0.0647842
-0.0639045
-0.0624823
-0.0605196
-0.0580238
-0.055017
-0.0515144
-0.0475691
-0.0431749
-0.038461
-0.0333018
-0.0280653
-0.0222017
-0.0168227
-0.0100624
-0.00507801
-0.0301084
-0.0338227
-0.0373667
-0.0408417
-0.044218
-0.0474334
-0.0504386
-0.0531939
-0.0556597
-0.0577942
-0.059556
-0.0609056
-0.061807
-0.0622283
-0.0621435
-0.0615329
-0.0603837
-0.0586924
-0.0564613
-0.0537067
-0.0504405
-0.0467098
-0.0425095
-0.0379591
-0.032947
-0.0278133
-0.0220594
-0.0167086
-0.0100507
-0.00498376
-0.0269551
-0.0305851
-0.0341119
-0.0375749
-0.0409447
-0.0441732
-0.0472163
-0.0500344
-0.0525867
-0.0548312
-0.0567255
-0.0582287
-0.0593024
-0.0599121
-0.0600281
-0.0596269
-0.0586915
-0.0572139
-0.0551922
-0.0526384
-0.0495611
-0.0460028
-0.0419593
-0.0375413
-0.0326497
-0.0275996
-0.0219377
-0.0166086
-0.0100399
-0.00489817
-0.0247701
-0.0283365
-0.0318476
-0.0352985
-0.0386602
-0.0418937
-0.0449592
-0.047817
-0.0504258
-0.0527433
-0.0547267
-0.0563342
-0.0575259
-0.0582654
-0.0585205
-0.0582651
-0.0574794
-0.0561521
-0.0542782
-0.0518666
-0.0489239
-0.0454886
-0.0415577
-0.0372346
-0.032431
-0.0274399
-0.0218487
-0.0165306
-0.0100387
-0.00482016
-0.0236054
-0.0271426
-0.0306466
-0.0340922
-0.0374501
-0.0406862
-0.043763
-0.046641
-0.0492787
-0.0516337
-0.0536632
-0.0553249
-0.0565782
-0.0573857
-0.0577139
-0.0575354
-0.0568288
-0.0555812
-0.0537861
-0.0514502
-0.0485797
-0.0452097
-0.0413403
-0.0370664
-0.0323139
-0.0273482
-0.0218075
-0.0164759
-0.0100634
-0.00475025
-0.299935
-0.303651
-0.306886
-0.309786
-0.312508
-0.315218
-0.318104
-0.321376
-0.325111
-0.329843
-0.340718
-0.358674
-0.282984
-0.288358
-0.293455
-0.298417
-0.303395
-0.308562
-0.314125
-0.320311
-0.327136
-0.334998
-0.348458
-0.36366
-0.266398
-0.272858
-0.279068
-0.285122
-0.291124
-0.297189
-0.303461
-0.310092
-0.317014
-0.324538
-0.336794
-0.350178
-0.248098
-0.255095
-0.261882
-0.268534
-0.275132
-0.281772
-0.288578
-0.295677
-0.303018
-0.310913
-0.322961
-0.335734
-0.229911
-0.237262
-0.244467
-0.251585
-0.258687
-0.26585
-0.273173
-0.280751
-0.288526
-0.296747
-0.308368
-0.320309
-0.212165
-0.219673
-0.227079
-0.234434
-0.241789
-0.249207
-0.256762
-0.264526
-0.272444
-0.280731
-0.291799
-0.303054
-0.194864
-0.202336
-0.209738
-0.21711
-0.224493
-0.231939
-0.239507
-0.247254
-0.255143
-0.26336
-0.273829
-0.2844
-0.178148
-0.185445
-0.192694
-0.199926
-0.207176
-0.214483
-0.221899
-0.229467
-0.237163
-0.245148
-0.254908
-0.264694
-0.162129
-0.169152
-0.176139
-0.183113
-0.190104
-0.197142
-0.204267
-0.211515
-0.218871
-0.226474
-0.235434
-0.244347
-0.146869
-0.15355
-0.160199
-0.166835
-0.173479
-0.180156
-0.186895
-0.193726
-0.200641
-0.207755
-0.215862
-0.223858
-0.132408
-0.138707
-0.144974
-0.151223
-0.157469
-0.163731
-0.170031
-0.17639
-0.182805
-0.189369
-0.196617
-0.203709
-0.118773
-0.12467
-0.130533
-0.136372
-0.142198
-0.148023
-0.153863
-0.15973
-0.165628
-0.171623
-0.178057
-0.184308
-0.105975
-0.111467
-0.116923
-0.122349
-0.127752
-0.13314
-0.138523
-0.143909
-0.149301
-0.154746
-0.160442
-0.165954
-0.0940175
-0.0991131
-0.104171
-0.109194
-0.114186
-0.119153
-0.124099
-0.129029
-0.133947
-0.138883
-0.143937
-0.148824
-0.082894
-0.0876098
-0.0922863
-0.0969251
-0.101528
-0.106097
-0.110636
-0.115147
-0.119632
-0.124108
-0.128616
-0.132986
-0.0769485
-0.0812663
-0.0855446
-0.089784
-0.0939854
-0.0981499
-0.102279
-0.106373
-0.110442
-0.114492
-0.118434
-0.0671123
-0.0710967
-0.0750408
-0.0789447
-0.0828082
-0.0866316
-0.090415
-0.0941596
-0.0978683
-0.101531
-0.105115
-0.0580776
-0.0617548
-0.065392
-0.0689885
-0.0725439
-0.0760578
-0.07953
-0.0829613
-0.086351
-0.0896825
-0.0929605
-0.0498171
-0.0532136
-0.0565706
-0.0598873
-0.0631629
-0.0663969
-0.0695888
-0.0727392
-0.0758453
-0.0788897
-0.081899
-0.0423013
-0.0454429
-0.0485458
-0.0516091
-0.0546319
-0.0576135
-0.0605535
-0.063452
-0.0663053
-0.0690976
-0.0718676
-0.035501
-0.0384126
-0.0412865
-0.0441217
-0.0469173
-0.0496725
-0.0523867
-0.0550599
-0.057688
-0.0602576
-0.062813
-0.0293886
-0.0320943
-0.0347633
-0.0373947
-0.0399875
-0.0425407
-0.0450539
-0.0475267
-0.0499551
-0.0523284
-0.0546913
-0.0239399
-0.0264628
-0.0289503
-0.0314012
-0.0338144
-0.0361892
-0.038525
-0.0408212
-0.0430742
-0.0452755
-0.0474671
-0.019135
-0.0214977
-0.023826
-0.0261189
-0.0283753
-0.0305944
-0.0327755
-0.0349181
-0.0370188
-0.0390715
-0.0411126
-0.01496
-0.0171843
-0.0193755
-0.0215323
-0.0236539
-0.0257394
-0.0277882
-0.0297995
-0.0317706
-0.0336971
-0.0356086
-0.0114084
-0.0135156
-0.0155908
-0.0176331
-0.0196415
-0.0216151
-0.0235533
-0.0254554
-0.0273191
-0.0291415
-0.0309446
-0.00848384
-0.0104955
-0.0124765
-0.0144259
-0.0163428
-0.0182263
-0.0200757
-0.0218905
-0.0236688
-0.0254088
-0.0271251
-0.00619622
-0.00813316
-0.010041
-0.0119188
-0.0137657
-0.0155809
-0.0173637
-0.0191135
-0.0208291
-0.0225094
-0.0241624
-0.00459321
-0.00647911
-0.0083372
-0.0101666
-0.0119665
-0.0137362
-0.0154749
-0.0171821
-0.018857
-0.0204991
-0.0221112
-0.00367168
-0.00552751
-0.00735794
-0.00916221
-0.0109396
-0.0126893
-0.0144108
-0.0161034
-0.0177664
-0.0193995
-0.0210031
)
;

boundaryField
{
    inlet
    {
        type            zeroGradient;
    }
    outlet
    {
        type            fixedValue;
        value           uniform 0;
    }
    cylinder
    {
        type            zeroGradient;
    }
    top
    {
        type            symmetryPlane;
    }
    bottom
    {
        type            symmetryPlane;
    }
    defaultFaces
    {
        type            empty;
    }
    procBoundary3to1
    {
        type            processor;
        value           nonuniform List<scalar> 
41
(
-0.322581
-0.321542
-0.319257
-0.315896
-0.311632
-0.306576
-0.300709
-0.315681
-0.321093
-0.322856
-0.322581
-0.295208
-0.286812
-0.277934
-0.267785
-0.256658
-0.244677
-0.231984
-0.218753
-0.205153
-0.191353
-0.177508
-0.163757
-0.150225
-0.137015
-0.12422
-0.111895
-0.100123
-0.0888743
-0.0783048
-0.0681531
-0.0589298
-0.0496532
-0.0420634
-0.0329821
-0.0278933
-0.0172957
-0.0171905
-0.000955476
-0.0122592
0.019189
)
;
    }
    procBoundary3to2
    {
        type            processor;
        value           nonuniform List<scalar> 
50
(
-0.485468
-0.485468
-0.472966
-0.472966
-0.482433
-0.472188
-0.472188
-0.460212
-0.460212
-0.446453
-0.426311
-0.426311
-0.409699
-0.409699
-0.389064
-0.389064
-0.362917
-0.340799
-0.340799
-0.295602
-0.277207
-0.259605
-0.240827
-0.22236
-0.204515
-0.187289
-0.170776
-0.155049
-0.140141
-0.126067
-0.112835
-0.100443
-0.0888812
-0.0781374
-0.0725906
-0.0725906
-0.0630879
-0.0543608
-0.046382
-0.0391222
-0.0325529
-0.0266476
-0.0213826
-0.0167392
-0.0127037
-0.00927042
-0.00644262
-0.00423116
-0.00268044
-0.00179126
)
;
    }
}


// ************************************************************************* //
