/*--------------------------------*- C++ -*----------------------------------*\
  =========                 |
  \\      /  F ield         | OpenFOAM: The Open Source CFD Toolbox
   \\    /   O peration     | Website:  https://openfoam.org
    \\  /    A nd           | Version:  7
     \\/     M anipulation  |
\*---------------------------------------------------------------------------*/
FoamFile
{
    version     2.0;
    format      ascii;
    class       surfaceScalarField;
    location    "10";
    object      phi;
}
// * * * * * * * * * * * * * * * * * * * * * * * * * * * * * * * * * * * * * //

dimensions      [0 3 -1 0 0 0 0];

internalField   nonuniform List<scalar> 
4147
(
-4.25781e-05
4.2578e-05
1.6255e-11
-0.000145807
0.000103229
-2.21922e-12
-0.000293695
0.000147888
-1.13473e-10
-0.000470682
0.000176987
-0.00066209
0.000191408
-0.000854897
0.000192808
-0.00103876
0.000183861
-0.00120745
0.000168699
-0.00135983
0.000152378
0.000141429
-0.00150125
-4.18001e-05
8.43782e-05
-0.000142777
0.000204206
-0.00028681
0.000291921
-0.00045814
0.000348317
-0.00064181
0.000375078
-0.000824426
0.000375424
-0.000995176
0.000354611
-0.00114733
0.00032085
-0.00127926
0.000284311
0.000258049
-0.00139588
-4.02564e-05
0.000124635
-0.000136757
0.000300707
-0.000273122
0.000428286
-0.000433197
0.000508392
-0.000601473
0.000543354
-0.000763815
0.000537766
-0.00090848
0.000499276
-0.0010277
0.000440067
-0.0011189
0.000375519
0.000325237
-0.00118609
-3.79699e-05
0.000162604
-0.000127823
0.00039056
-0.000252789
0.000553253
-0.000396129
0.000651731
-0.000541512
0.000688737
-0.000673703
0.000669957
-0.000779572
0.000605145
-0.00084978
0.000510275
-0.000880332
0.000406071
0.000318638
-0.000873732
-3.49729e-05
0.000197577
-0.000116081
0.000471669
-0.000226034
0.000663205
-0.00034732
0.000773018
-0.000462537
0.000803953
-0.000555003
0.000762423
-0.000609745
0.000659887
-0.000615312
0.000515841
-0.000566018
0.000356778
0.000214175
-0.000461555
-3.13036e-05
0.000228881
-0.00010166
0.000542025
-0.000193123
0.000754668
-0.00028724
0.000867134
-0.000365297
0.000882011
-0.000408842
0.000805968
-0.000400609
0.000651654
-0.000326309
0.000441542
-0.000177958
0.000208427
6.48824e-08
3.61517e-05
-2.70033e-05
0.000255884
-8.46969e-05
0.000599719
-0.00015435
0.000824321
-0.000216405
0.000929189
-0.000250628
0.000916234
-0.000236495
0.000791834
-0.000154031
0.00056919
1.41092e-05
0.000273401
0.000280835
-5.82994e-05
-0.000364183
0.000645083
-2.21121e-05
0.000277996
-6.53287e-05
0.000642935
-0.000110006
0.000868998
-0.000135339
0.000954523
-0.000119393
0.000900288
-3.93156e-05
0.000711757
0.000128001
0.000401873
0.000403986
-2.58338e-06
0.000804291
-0.000458605
-0.000892278
0.00133239
-1.66655e-05
0.000294662
-4.36793e-05
0.000669949
-6.03624e-05
0.000885682
-4.4536e-05
0.000938696
2.75808e-05
0.000828171
0.000181358
0.00055798
0.000443353
0.000139878
0.000839405
-0.000398635
0.00139016
-0.00100936
-0.00160453
0.00210241
-1.06914e-05
0.000305353
-1.98492e-05
0.000679107
-5.64206e-06
0.000871474
5.55815e-05
0.000877473
0.000189563
0.00069419
0.00042432
0.000323222
0.000790076
-0.000225878
0.00131766
-0.000926216
0.00203368
-0.00172538
-0.00252029
0.00294944
-4.21023e-06
0.000309563
6.08787e-06
0.000668809
5.39741e-05
0.000823588
0.000164686
0.000766761
0.000365976
0.0004929
0.000688559
6.38768e-07
0.00116642
-0.00070374
0.00183577
-0.00159557
0.00273026
-0.00261987
-0.0036573
0.00386726
2.78567e-06
0.000306778
3.40879e-05
0.000637507
0.000118388
0.000739288
0.000282561
0.000602588
0.000556417
0.000219044
0.000973332
-0.000416276
0.00157098
-0.00130139
0.00239109
-0.00241568
0.00347539
-0.00370417
-0.00503159
0.00484969
1.02744e-05
0.000296503
6.41432e-05
0.000583638
0.000187541
0.00061589
0.000409084
0.000381045
0.000760663
-0.000132535
0.0012782
-0.000933815
0.00200278
-0.00202597
0.00298146
-0.00339436
0.00426477
-0.00498748
-0.00665667
0.00588985
1.8281e-05
0.000278222
9.62476e-05
0.000505671
0.000261402
0.000450736
0.000544192
9.8255e-05
0.000978619
-0.000566962
0.00160301
-0.00155821
0.00246139
-0.00288434
0.00360542
-0.00453839
0.00509454
-0.0064766
-0.00854251
0.00698038
2.68094e-05
0.000251413
0.000130394
0.000402087
0.000339925
0.000241204
0.000687804
-0.000249624
0.00121022
-0.00108938
0.00194779
-0.00229578
0.00294685
-0.00388341
0.00426246
-0.005854
0.00596184
-0.00817597
-0.0106943
0.00811362
3.58594e-05
0.000215554
0.000166542
0.000271404
0.00042299
-1.52441e-05
0.00083971
-0.000666343
0.00145523
-0.0017049
0.00231247
-0.00315301
0.00345954
-0.00503048
0.00495322
-0.00734768
0.00686553
-0.0100883
-0.0131107
0.00928198
4.54151e-05
0.000170138
0.000204592
0.000112227
0.000510335
-0.000320987
0.000999436
-0.00115544
0.00171302
-0.00241849
0.00269654
-0.00413652
0.00399969
-0.00633364
0.00567924
-0.00902722
0.00780696
-0.012216
-0.0157834
0.0104796
5.54371e-05
0.000114701
0.000244357
-7.66926e-05
0.000601491
-0.000678122
0.00116609
-0.00172005
0.00198224
-0.00323463
0.00309848
-0.00525277
0.00456679
-0.00780194
0.00644301
-0.0109035
0.00879022
-0.0145632
-0.0187005
0.0117073
6.58582e-05
4.88432e-05
0.000285547
-0.000296382
0.000695733
-0.00108831
0.00133824
-0.00236255
0.00226043
-0.00415683
0.00351502
-0.00650735
0.0051587
-0.00944562
0.00724971
-0.0129945
0.00982968
-0.0171432
-0.0218507
0.0129799
7.65851e-05
-2.77419e-05
0.000327775
-0.000547572
0.00079207
-0.0015526
0.00151379
-0.00308426
0.0025437
-0.00518674
0.00393962
-0.00790327
0.00576727
-0.0112733
0.00810169
-0.0153289
0.0109902
-0.0200317
-0.0251641
0.0143036
8.75065e-05
-0.000115248
0.000370581
-0.000830647
0.00088931
-0.00207133
0.00169012
-0.00388507
0.00282663
-0.00632326
0.00436121
-0.00943785
0.006369
-0.0132811
0.00895056
-0.0179104
0.0123082
-0.0233894
-0.0300475
0.0171916
9.85091e-05
-0.000213758
0.000413493
-0.00114563
0.000986216
-0.00264405
0.00186448
-0.00476333
0.00310331
-0.00756209
0.00476653
-0.0111011
0.00693075
-0.0154453
0.00969616
-0.0206758
0.0132267
-0.02692
-0.0345366
0.0177159
0.000109494
0.000456084
-0.00149222
0.00108169
-0.00326966
0.00203451
-0.00571615
0.00336916
-0.00889675
0.00514707
-0.012879
0.00743761
-0.0177358
0.0103192
-0.0235575
0.0138808
-0.0304815
-0.0388035
0.0181476
0.000498014
0.00117486
-0.00394651
0.0021985
-0.00673979
0.00362135
-0.0103196
0.00549943
-0.014757
0.00788998
-0.0201264
0.010845
-0.0265124
0.014395
-0.0340316
-0.0428966
0.0184882
0.00126508
-0.00467257
0.00235526
-0.00782996
0.0038583
-0.0118226
0.00582276
-0.0167215
0.00829182
-0.0225955
0.0112926
-0.0295132
0.014815
-0.037554
-0.0468474
0.0187658
0.00135184
0.00250389
-0.00898202
0.00407893
-0.0133977
0.00611678
-0.0187594
0.00864609
-0.0251248
0.011672
-0.0325391
0.0151557
-0.0410377
-0.0506742
0.0189825
0.00264361
0.00428229
-0.0150364
0.00638096
-0.020858
0.00895388
-0.0276977
0.011987
-0.0355723
0.0154208
-0.0444715
-0.0543818
0.0191284
0.00446718
0.00661409
0.00921454
-0.0302981
0.0122376
-0.0385954
0.015608
-0.0478418
-0.0579652
0.0191914
0.00942601
0.0124212
-0.0415906
0.0157121
-0.0511327
-0.0614137
0.0191606
0.0125341
0.0157277
-0.0543264
-0.0647127
0.0190268
0.0156501
0.0187837
-4.25781e-05
-0.000145807
-0.00154981
4.8567e-05
-0.00153652
-1.32903e-05
-0.00144836
-8.81445e-05
-0.00127091
-0.000177445
-0.000997444
-0.000273457
-0.000627622
-0.00036981
-0.000165165
-0.000462443
0.000383307
-0.000548457
0.00100959
-0.000626272
0.00170484
-0.000695231
0.00246017
-0.000755309
0.00326704
-0.000806863
0.00411751
-0.000850458
0.00500428
-0.000886751
0.00592073
-0.00091645
0.00686097
-0.000940239
0.00781987
-0.000958909
0.00879288
-0.000973025
0.00977661
-0.000983752
0.0107675
-0.000990964
0.011765
-0.000997541
0.0127649
-0.00099993
0.0137732
-0.00100836
0.0147776
-0.00100445
0.0158056
-0.00102801
0.016809
-0.00100343
0.0178853
-0.00107635
0.0188735
-0.000988294
0.0200432
-0.00116967
-0.0010232
-0.00144062
9.33044e-05
-0.00142286
-3.1048e-05
-0.00133067
-0.000180333
-0.00114995
-0.000358162
-0.000874215
-0.000549197
-0.00050328
-0.000740745
-4.09103e-05
-0.000924813
0.000506322
-0.00109569
0.00113036
-0.00125031
0.00182251
-0.00138738
0.00257408
-0.00150687
0.00337669
-0.00160948
0.00422256
-0.00169632
0.00510449
-0.00176868
0.00601599
-0.00182796
0.00695125
-0.0018755
0.00790521
-0.00191287
0.00887336
-0.00194118
0.00985237
-0.00196276
0.0108387
-0.00197734
0.0118319
-0.00199067
0.0128276
-0.00199565
0.013832
-0.00201275
0.0148327
-0.00200516
0.0158572
-0.00205253
0.0168575
-0.00200368
0.0179309
-0.00214973
0.0189168
-0.00197421
0.0200838
-0.0023367
-0.00204521
-0.00122327
0.000130486
-0.00119675
-5.75715e-05
-0.0010966
-0.000280489
-0.000909449
-0.000545308
-0.000629265
-0.000829381
-0.000256198
-0.00111381
0.000205902
-0.00138691
0.000750601
-0.00164039
0.0013701
-0.00186981
0.00205604
-0.00207333
0.00280009
-0.00225092
0.00359422
-0.00240361
0.00443091
-0.00253301
0.00530324
-0.00264101
0.00620492
-0.00272964
0.0071303
-0.00280088
0.00807445
-0.00285702
0.00903299
-0.00289971
0.0100026
-0.00293241
0.01098
-0.00295468
0.0119645
-0.00297517
0.012952
-0.00298315
0.0139486
-0.00300939
0.014942
-0.00299858
0.0159598
-0.0030703
0.0169539
-0.00299777
0.0180215
-0.00321735
0.0190028
-0.0029555
0.0201646
-0.00349854
-0.00306483
-0.000899826
0.00015658
-0.000860574
-9.68235e-05
-0.000748706
-0.000392357
-0.000552166
-0.000741848
-0.000265564
-0.00111598
0.000110462
-0.00148984
0.000571943
-0.00184839
0.00111267
-0.00218112
0.00172525
-0.00248239
0.00240185
-0.00274992
0.00313464
-0.00298371
0.0039161
-0.00318507
0.00473915
-0.00335606
0.00559722
-0.00349909
0.00648435
-0.00361677
0.0073951
-0.00371163
0.00832477
-0.00378669
0.0092691
-0.00384404
0.010225
-0.00388827
0.011189
-0.00391873
0.0121608
-0.00394696
0.0131362
-0.00395856
0.0141214
-0.00399463
0.0151042
-0.00398132
0.016112
-0.00407815
0.0170971
-0.00398282
0.0181562
-0.00427653
0.0191308
-0.00393004
0.0202851
-0.0046528
-0.00408101
-0.000473358
0.000168382
-0.000417614
-0.000152568
-0.000290729
-0.000519242
-8.21254e-05
-0.000950452
0.000212513
-0.00141062
0.000592009
-0.00186933
0.00105228
-0.00230867
0.00158741
-0.00271625
0.00219057
-0.00308555
0.00285462
-0.00341397
0.00357244
-0.00370152
0.00433714
-0.00394977
0.00514221
-0.00416113
0.00598157
-0.00433844
0.00684961
-0.00448481
0.00774124
-0.00460326
0.00865199
-0.00469743
0.00957779
-0.00476984
0.0105157
-0.00482617
0.0114624
-0.00486548
0.0124177
-0.00490223
0.0133774
-0.00491827
0.0143479
-0.00496511
0.0153168
-0.00495023
0.0163119
-0.00507319
0.0172853
-0.00495624
0.0183336
-0.00532483
0.0192995
-0.00489595
0.020444
-0.00579732
-0.00509286
5.93647e-05
0.000145169
0.000128009
-0.000221212
0.000272383
-0.000663616
0.000495284
-0.00117335
0.000799274
-0.00171461
0.00118239
-0.00225245
0.0016405
-0.00276678
0.00216813
-0.00324388
0.00275921
-0.00367663
0.00340746
-0.00406222
0.00410662
-0.00440068
0.00485059
-0.00469374
0.00563353
-0.00494408
0.00644993
-0.00515484
0.00729466
-0.00532954
0.00816297
-0.00547157
0.00905069
-0.00558516
0.009954
-0.00567315
0.0108701
-0.00574228
0.0117959
-0.00579129
0.0127312
-0.00583754
0.013672
-0.00585905
0.0146247
-0.00591783
0.015577
-0.00590252
0.0165567
-0.00605288
0.0175162
-0.00591574
0.0185515
-0.00636015
0.0195072
-0.00585165
0.0206402
-0.00693027
-0.00609972
0.000672943
0.00011731
0.000769546
-0.000317816
0.000934891
-0.00082896
0.00117386
-0.00141232
0.00148789
-0.00202864
0.00187423
-0.00263879
0.00232879
-0.00322133
0.0028467
-0.00376179
0.00342284
-0.00425277
0.00405197
-0.00469135
0.00472883
-0.00507754
0.00544824
-0.00541315
0.00620514
-0.00570098
0.00699465
-0.00594435
0.00781214
-0.00614703
0.00865331
-0.00631274
0.00951432
-0.00644616
0.0103916
-0.00655042
0.0112825
-0.00663324
0.0121842
-0.00669297
0.0130966
-0.0067499
0.0140156
-0.0067781
0.014948
-0.00685019
0.0158813
-0.00683582
0.0168435
-0.00701506
0.0177872
-0.00685944
0.0188078
-0.00738076
0.019752
-0.00679591
0.0208719
-0.00805016
-0.00710116
0.00138216
6.75339e-05
0.0015026
-0.000438252
0.00169025
-0.00101661
0.00194639
-0.00166847
0.00227048
-0.00235273
0.002659
-0.00302731
0.00310806
-0.0036704
0.00361365
-0.00426738
0.00417177
-0.00481089
0.00477839
-0.00529797
0.00542941
-0.00572856
0.00612062
-0.00610437
0.00684783
-0.00642819
0.00760685
-0.00670336
0.00839362
-0.0069338
0.00920427
-0.00712339
0.0100353
-0.00727721
0.0108835
-0.00739856
0.0117464
-0.00749615
0.0126212
-0.00756781
0.0135081
-0.0076368
0.0144031
-0.00767311
0.015313
-0.0077601
0.0162255
-0.00774825
0.0171685
-0.00795805
0.018095
-0.00778593
0.0190995
-0.00838536
0.0200316
-0.00772792
0.0211373
-0.00915593
-0.00809706
0.00217492
-4.96979e-06
0.0023204
-0.000583733
0.00253134
-0.00122755
0.00280491
-0.00194204
0.00313821
-0.00268604
0.00352709
-0.00341618
0.00396811
-0.00411141
0.00445834
-0.00475761
0.00499513
-0.00534768
0.00557581
-0.00587865
0.00619752
-0.00635027
0.00685714
-0.00676399
0.00755134
-0.00712239
0.00827667
-0.00742869
0.00902966
-0.0076868
0.00980691
-0.00790064
0.0106053
-0.0080756
0.0114218
-0.00821507
0.0122543
-0.00832867
0.0131002
-0.00841367
0.0139597
-0.00849629
0.0148289
-0.00854233
0.0157148
-0.00864601
0.016605
-0.00863844
0.0175276
-0.00888071
0.018436
-0.00869428
0.0194238
-0.00937312
0.0203432
-0.00864732
0.0214342
-0.010247
-0.00908765
0.00304501
-0.000100547
0.00321607
-0.000754789
0.00345053
-0.001462
0.0037408
-0.00223231
0.00408146
-0.0030267
0.00446796
-0.00380269
0.00489769
-0.00454114
0.00536907
-0.00522899
0.005881
-0.00585962
0.00643229
-0.00642994
0.00702138
-0.00693935
0.00764626
-0.00738886
0.00830451
-0.00778064
0.00899341
-0.00811759
0.00971009
-0.00840348
0.0104516
-0.00864215
0.0112152
-0.0088392
0.0119981
-0.00899799
0.0127985
-0.00912906
0.0136138
-0.00922898
0.0144446
-0.00932701
0.0152868
-0.00938458
0.0161477
-0.00950694
0.0170149
-0.00950561
0.0179166
-0.00978241
0.0188064
-0.00958411
0.0197771
-0.0103438
0.020684
-0.00955425
0.0217603
-0.0113233
-0.0100735
0.00398627
-0.000219556
0.00418265
-0.000951167
0.00443983
-0.00171918
0.00474489
-0.00253737
0.00508984
-0.00337164
0.00547022
-0.00418307
0.00588464
-0.00495556
0.00633323
-0.00567758
0.00681658
-0.00634297
0.00733505
-0.00694841
0.00788841
-0.00749271
0.00847574
-0.00797619
0.00909552
-0.00840043
0.00974576
-0.00876783
0.0104241
-0.00908186
0.0111282
-0.00934617
0.0118554
-0.00956647
0.0126035
-0.00974602
0.0133706
-0.00989621
0.0141545
-0.0100128
0.0149557
-0.0101282
0.0157704
-0.0101993
0.016606
-0.0103425
0.0174499
-0.0103495
0.0183306
-0.0106631
0.0192021
-0.0104556
0.0201559
-0.0112975
0.021051
-0.0104493
0.022113
-0.0123853
-0.0110555
0.00499203
-0.000361898
0.00521312
-0.00117225
0.00549102
-0.00199709
0.00580749
-0.00285384
0.00615226
-0.00371641
0.00652164
-0.00455245
0.006916
-0.00534993
0.00733744
-0.00609901
0.00778835
-0.00679388
0.00827066
-0.00743073
0.00878544
-0.00800748
0.0093328
-0.00852356
0.00991209
-0.00897971
0.010522
-0.00937771
0.0111607
-0.00972055
0.0118261
-0.0100116
0.0125161
-0.0102565
0.0132286
-0.0104585
0.013962
-0.0106297
0.0147141
-0.010765
0.0154858
-0.0108999
0.016273
-0.0109866
0.0170835
-0.011153
0.0179046
-0.0111707
0.0187649
-0.0115234
0.0196188
-0.0113095
0.0205565
-0.0122352
0.0214409
-0.0113338
0.0224895
-0.0134339
-0.0120349
0.00605577
-0.000527821
0.0063005
-0.00141699
0.00659565
-0.00229224
0.00691837
-0.00317656
0.0072569
-0.00405494
0.00760923
-0.00490478
0.00797806
-0.00571876
0.00836764
-0.0064886
0.00878223
-0.00720847
0.00922524
-0.00787373
0.00969892
-0.00848116
0.0102044
-0.009029
0.0107417
-0.00951701
0.0113101
-0.00994611
0.0119083
-0.0103188
0.0125346
-0.0106379
0.0131872
-0.0109091
0.0138641
-0.0111354
0.014564
-0.0113296
0.0152847
-0.0114857
0.0160273
-0.0116424
0.0167878
-0.0117471
0.0175741
-0.0119392
0.0183734
-0.01197
0.0192143
-0.0123644
0.020052
-0.0121472
0.0209749
-0.0131581
0.0218504
-0.0122092
0.0228872
-0.0144708
-0.0130136
0.007171
-0.000718433
0.00743804
-0.00168404
0.00774507
-0.00259926
0.00806667
-0.00349817
0.00839116
-0.00437942
0.00871923
-0.00523285
0.00905644
-0.00605597
0.00940929
-0.00684146
0.00978377
-0.00758295
0.0101846
-0.00827458
0.0106151
-0.00891166
0.0110772
-0.00949108
0.0115716
-0.0100114
0.012098
-0.0104726
0.0126556
-0.0108764
0.013243
-0.0112252
0.0138586
-0.0115247
0.0145006
-0.0117773
0.0151678
-0.0119968
0.0158582
-0.0121761
0.016573
-0.0123571
0.0173081
-0.0124822
0.0180715
-0.0127026
0.0188506
-0.0127491
0.019674
-0.0131878
0.0204973
-0.0129704
0.0214073
-0.0140682
0.022276
-0.0130779
0.0233031
-0.0154978
-0.0139935
0.00833161
-0.000936426
0.00861937
-0.00197179
0.00893032
-0.00291021
0.00924076
-0.0038086
0.00954152
-0.00468018
0.00983713
-0.00552846
0.0101362
-0.00635506
0.0104475
-0.0071527
0.0107783
-0.00791379
0.0111346
-0.00863083
0.0115203
-0.00929744
0.0119382
-0.00990894
0.0123894
-0.0104626
0.012874
-0.0109572
0.0133916
-0.0113939
0.0139409
-0.0117745
0.0145206
-0.0121044
0.0151289
-0.0123857
0.015765
-0.0126329
0.0164267
-0.0128379
0.0171154
-0.0130458
0.017827
-0.0131938
0.0185697
-0.0134453
0.0193307
-0.0135101
0.0201388
-0.0139959
0.0209502
-0.0137818
0.0218498
-0.0149678
0.0227144
-0.0139425
0.0237343
-0.0165178
-0.014977
0.00953272
-0.00118716
0.00983858
-0.00227765
0.0101418
-0.00321346
0.0104278
-0.00409461
0.0106934
-0.00494576
0.0109476
-0.00578266
0.011202
-0.00660947
0.011467
-0.00741772
0.0117512
-0.00819792
0.012061
-0.00894064
0.0124011
-0.00963758
0.0127746
-0.0102824
0.0131829
-0.0108709
0.0136267
-0.0114009
0.0141054
-0.0118727
0.0146181
-0.0122872
0.0151636
-0.0126499
0.0157403
-0.0129624
0.0163473
-0.0132399
0.0169825
-0.0134731
0.0176475
-0.0137107
0.0183381
-0.0138844
0.0190627
-0.0141699
0.0198084
-0.0142558
0.020604
-0.0147915
0.0214063
-0.0145841
0.0222984
-0.0158599
0.0231622
-0.0148063
0.024178
-0.0175336
-0.015967
0.0107708
-0.00147836
0.0110891
-0.00259594
0.0113683
-0.00349268
0.0116133
-0.00433961
0.0118308
-0.0051633
0.0120345
-0.00598627
0.0122379
-0.00681293
0.0124527
-0.00763247
0.0126877
-0.00843298
0.01295
-0.00920286
0.0132443
-0.00993189
0.0135738
-0.010612
0.0139405
-0.0112376
0.0143448
-0.0118052
0.0147865
-0.0123144
0.0152648
-0.0127655
0.0157785
-0.0131637
0.0163261
-0.0135099
0.0169067
-0.0138206
0.0175184
-0.0140848
0.0181626
-0.0143549
0.0188352
-0.014557
0.0195448
-0.0148794
0.0202784
-0.0149894
0.0210647
-0.0155779
0.0218615
-0.0153809
0.0227495
-0.0167478
0.0236159
-0.0156727
0.0246312
-0.0185488
-0.0169666
0.0120432
-0.00181421
0.0123633
-0.00291611
0.0125965
-0.00372588
0.0127806
-0.00452367
0.0129364
-0.00531913
0.0130807
-0.00613051
0.0132277
-0.00695995
0.013389
-0.00779378
0.0135734
-0.00861743
0.0137878
-0.00941719
0.0140368
-0.010181
0.0143239
-0.010899
0.0146506
-0.0115643
0.0150178
-0.0121724
0.0154251
-0.0127217
0.0158718
-0.0132122
0.0163567
-0.0136486
0.0168783
-0.0140315
0.0174359
-0.0143782
0.0180273
-0.0146762
0.0186542
-0.0149818
0.0193124
-0.0152152
0.0200105
-0.0155776
0.0207357
-0.0157146
0.0215166
-0.0163587
0.0223117
-0.016176
0.0231993
-0.0176354
0.0240725
-0.016546
0.025091
-0.0195674
-0.0179792
0.0133662
-0.00220048
0.0136611
-0.00321106
0.0138139
-0.00387869
0.0139133
-0.00462301
0.0139936
-0.00539948
0.0140707
-0.00620754
0.0141569
-0.00704618
0.0142627
-0.00789954
0.0143959
-0.00875071
0.0145629
-0.00958416
0.0147681
-0.0103862
0.0150145
-0.0111454
0.0153039
-0.0118537
0.0156367
-0.0125052
0.0160127
-0.0130978
0.0164311
-0.0136305
0.0168907
-0.0141082
0.01739
-0.0145307
0.0179282
-0.0149163
0.0185031
-0.0152512
0.0191166
-0.0155953
0.0197643
-0.0158629
0.020455
-0.0162684
0.0211759
-0.0164355
0.0219554
-0.0171382
0.022753
-0.0169736
0.0236444
-0.0185268
0.0245287
-0.0174303
0.0255549
-0.0205935
-0.0190083
0.0148217
-0.0027186
0.0149839
-0.00337328
0.015003
-0.00389782
0.0149934
-0.00461333
0.0149862
-0.00539235
0.0149905
-0.00621185
0.0150138
-0.0070694
0.0150636
-0.00794943
0.0151466
-0.00883371
0.0152679
-0.00970547
0.0154315
-0.0105497
0.01564
-0.0113539
0.0158948
-0.0121085
0.0161964
-0.0128068
0.0165444
-0.0134458
0.0169379
-0.014024
0.0173758
-0.0145461
0.0178564
-0.0150113
0.0183789
-0.0154389
0.0189414
-0.0158136
0.0195453
-0.0161992
0.0201867
-0.0165043
0.020874
-0.0169557
0.0215951
-0.0171566
0.0223769
-0.01792
0.0231825
-0.0177792
0.0240806
-0.0194249
0.0249832
-0.0183329
0.0260177
-0.021628
-0.0200605
0.032553
-0.00187893
-0.0333927
0.0321681
-0.0029883
0.0319574
-0.00368712
0.031792
-0.00444796
0.0316583
-0.0052587
0.0315478
-0.00610135
0.0314566
-0.00697813
0.0313854
-0.00787832
0.0313374
-0.00878565
0.0313162
-0.00968428
0.031326
-0.0105596
0.0313709
-0.0113987
0.031454
-0.0121916
0.0315782
-0.0129309
0.0317451
-0.0136128
0.031956
-0.0142349
0.0322109
-0.014801
0.0325101
-0.0153105
0.0328526
-0.0157814
0.0332384
-0.0161994
0.033666
-0.0166268
0.034136
-0.0169743
0.0346472
-0.0174669
0.0352002
-0.0177096
0.0357978
-0.0185176
0.0364346
-0.018416
0.0371271
-0.0201174
0.0378539
-0.0190598
0.038642
-0.0224161
-0.0208969
0.0392884
-0.00105007
-0.0401173
0.0385037
-0.00220359
0.0379362
-0.00311965
0.0374819
-0.00399364
0.0371081
-0.00488489
0.0367952
-0.00578843
0.0365286
-0.00671156
0.0363018
-0.00765152
0.0361127
-0.00859653
0.0359616
-0.00953321
0.0358503
-0.0104483
0.0357812
-0.0113295
0.0357563
-0.0121668
0.0357778
-0.0129524
0.0358469
-0.0136818
0.0359643
-0.0143523
0.03613
-0.0149668
0.036344
-0.0155245
0.0366051
-0.0160425
0.0369132
-0.0165075
0.0372661
-0.0169797
0.0376652
-0.0173734
0.0381069
-0.0179086
0.0385953
-0.018198
0.0391255
-0.0190478
0.039705
-0.0189955
0.0403264
-0.0207387
0.0410071
-0.0197406
0.0417113
-0.0231203
-0.0216858
0.0462438
-0.000141561
-0.0471523
0.0452971
-0.00125694
0.0444834
-0.00230596
0.0437805
-0.00329077
0.0431739
-0.00427825
0.04265
-0.00526448
0.0421932
-0.00625481
0.0417936
-0.0072519
0.0414457
-0.00824869
0.0411473
-0.00923473
0.0408977
-0.0101988
0.0406979
-0.0111297
0.0405489
-0.0120178
0.040452
-0.0128554
0.0404077
-0.0136376
0.0404167
-0.0143613
0.0404787
-0.0150287
0.0405932
-0.015639
0.040759
-0.0162083
0.0409758
-0.0167244
0.041241
-0.0172449
0.041556
-0.0176884
0.0419159
-0.0182684
0.0423266
-0.0186087
0.0427783
-0.0194996
0.0432866
-0.0195037
0.0438272
-0.0212794
0.0444453
-0.0203586
0.0450592
-0.0237343
-0.0224106
0.0535015
0.000836533
-0.0544796
0.052458
-0.000213404
0.0514815
-0.00132945
0.0505892
-0.0023985
0.0497828
-0.00347188
0.0490615
-0.00454318
0.0484165
-0.00560982
0.0478393
-0.00667466
0.0473241
-0.00773346
0.0468674
-0.00877805
0.0464676
-0.009799
0.0461245
-0.0107865
0.0458382
-0.0117316
0.0456095
-0.0126267
0.0454386
-0.0134667
0.0453257
-0.0142484
0.0452704
-0.0149734
0.0452721
-0.0156408
0.0453293
-0.0162655
0.0454417
-0.0168368
0.0456061
-0.0174093
0.0458243
-0.0179065
0.0460898
-0.018534
0.0464102
-0.0189291
0.046771
-0.0198605
0.0471957
-0.0199284
0.0476429
-0.0217266
0.0481858
-0.0209014
0.0486962
-0.0242448
-0.0230582
0.0609898
0.00187819
-0.0620315
0.0598908
0.000885579
0.0588162
-0.000254882
0.0577951
-0.00137738
0.0568366
-0.0025134
0.05595
-0.00365657
0.0551359
-0.00479566
0.0543907
-0.00592945
0.0537111
-0.00705391
0.0530948
-0.00816173
0.0525403
-0.00924451
0.0520472
-0.0102934
0.0516156
-0.0113
0.0512458
-0.0122569
0.0509382
-0.0131591
0.0506927
-0.0140029
0.0505089
-0.0147896
0.0503863
-0.0155182
0.0503233
-0.0162025
0.0503194
-0.0168328
0.0503711
-0.017461
0.0504803
-0.0180157
0.0506394
-0.0186931
0.0508574
-0.0191471
0.0511152
-0.0201183
0.0514439
-0.0202571
0.0517853
-0.0220679
0.0522402
-0.0213564
0.0526345
-0.024639
-0.0236154
0.0686031
0.00295392
-0.0696788
0.0674871
0.00200162
0.0663683
0.000863886
0.0652753
-0.000284365
0.0642183
-0.0014564
0.0632108
-0.00264911
0.0622612
-0.00384601
0.061372
-0.00504029
0.0605442
-0.00622611
0.0597781
-0.00739564
0.059074
-0.00854043
0.0584325
-0.00965187
0.0578542
-0.0107217
0.05734
-0.0117427
0.0568905
-0.0127096
0.056506
-0.0136184
0.0561862
-0.0144698
0.0559309
-0.0152628
0.0557384
-0.01601
0.0556084
-0.0167029
0.0555374
-0.01739
0.0555271
-0.0180053
0.055569
-0.018735
0.0556735
-0.0192516
0.055817
-0.0202617
0.0560382
-0.0204783
0.0562619
-0.0222917
0.0566165
-0.021711
0.0568827
-0.0249052
-0.0240687
0.0762181
0.00401631
-0.0772805
0.0751261
0.00309361
0.0740122
0.00197777
0.0729002
0.000827684
0.0717988
-0.00035504
0.0707213
-0.00157164
0.0696802
-0.00280487
0.0686832
-0.0040433
0.0677356
-0.00527856
0.0668415
-0.00650147
0.0660037
-0.00770266
0.0652249
-0.00887306
0.0645073
-0.0100041
0.0638527
-0.0110882
0.0632628
-0.0121196
0.0627385
-0.0130941
0.0622801
-0.0140115
0.0618879
-0.0148706
0.0615607
-0.0156827
0.0612982
-0.0164404
0.061097
-0.0171888
0.0609591
-0.0178674
0.0608752
-0.0186511
0.0608569
-0.0192333
0.0608763
-0.0202812
0.0609796
-0.0205816
0.0610754
-0.0223874
0.0613178
-0.0219535
0.0614457
-0.0250332
-0.0244053
0.0837041
0.00501041
-0.0846982
0.0826814
0.00411626
0.0816201
0.00303907
0.0805388
0.00190906
0.0794452
0.000738548
0.0783501
-0.000476576
0.0772669
-0.00172169
0.0762066
-0.00298292
0.0751777
-0.00424975
0.0741878
-0.00551155
0.0732429
-0.00675775
0.0723481
-0.00797826
0.0715077
-0.00916375
0.0707255
-0.0103059
0.0700043
-0.0113984
0.0693464
-0.0124361
0.0687531
-0.0134182
0.0682255
-0.014343
0.067763
-0.0152202
0.0673659
-0.0160434
0.0670312
-0.016854
0.0667609
-0.0175972
0.0665455
-0.0184357
0.0663976
-0.0190854
0.0662857
-0.0201693
0.0662626
-0.0205585
0.066222
-0.0223468
0.0663416
-0.0220731
0.0663233
-0.0250148
-0.0246132
0.0909422
0.00588275
-0.0918146
0.0900339
0.00502464
0.0890706
0.00400239
0.0880663
0.00291335
0.0870289
0.00177595
0.0859667
0.000585622
0.0848918
-0.000646856
0.0838164
-0.00190745
0.082751
-0.0031844
0.0817056
-0.00446613
0.0806888
-0.005741
0.0797084
-0.00699786
0.0787711
-0.00822638
0.0778825
-0.00941735
0.0770474
-0.0105633
0.0762698
-0.0116585
0.0755523
-0.0127008
0.0748971
-0.0136878
0.0743048
-0.0146279
0.0737764
-0.015515
0.0733093
-0.016387
0.0729063
-0.0171942
0.0725574
-0.0180868
0.0722767
-0.0188046
0.0720292
-0.0199218
0.0718739
-0.0204032
0.0716914
-0.0221644
0.0716796
-0.0220612
0.0715096
-0.0248449
-0.0246818
0.0978432
0.0065902
-0.0985507
0.0970872
0.00578067
0.0962611
0.00482845
0.0953748
0.0037997
0.0944363
0.00271441
0.0934524
0.00156951
0.0924332
0.000372326
0.0913903
-0.000864498
0.090335
-0.00212907
0.0892782
-0.00340941
0.0882306
-0.0046934
0.0872018
-0.00596907
0.0862006
-0.00722517
0.0852348
-0.00845151
0.0843111
-0.0096396
0.0834351
-0.0107826
0.0826114
-0.011877
0.0818434
-0.0129198
0.081133
-0.0139175
0.0804824
-0.0148643
0.0798897
-0.0157943
0.0793585
-0.016663
0.0788788
-0.0176071
0.078466
-0.0183917
0.0780825
-0.0195383
0.0777925
-0.0201132
0.0774661
-0.021838
0.0773165
-0.0219116
0.0769931
-0.0245214
-0.0246029
0.104361
0.00710627
-0.104877
0.103782
0.00635881
0.103122
0.00548883
0.102385
0.00453648
0.10158
0.00351968
0.100712
0.0024376
0.099789
0.00129515
0.0988214
0.000103141
0.09782
-0.00112765
0.0967957
-0.00238517
0.0957599
-0.00365751
0.0947231
-0.00493235
0.0936958
-0.00619787
0.0926874
-0.00744307
0.0917063
-0.00865847
0.0907599
-0.00983615
0.0898543
-0.0109715
0.0889947
-0.0120602
0.0881843
-0.0131072
0.0874265
-0.0141066
0.0867207
-0.0150885
0.0860712
-0.0160134
0.0854684
-0.0170043
0.0849288
-0.0178522
0.0844133
-0.0190227
0.08399
-0.0196899
0.0835215
-0.0213695
0.0832312
-0.0216213
0.082756
-0.0240463
-0.0243709
0.110496
0.00742358
-0.110814
0.110106
0.00674919
0.109625
0.00596927
0.109057
0.00510459
0.108408
0.00416879
0.107683
0.00316302
0.106887
0.00209084
0.106029
0.000960753
0.105119
-0.000217241
0.104166
-0.00143245
0.103182
-0.00267315
0.102177
-0.00392737
0.101162
-0.0051831
0.100148
-0.00642891
0.0991442
-0.0076546
0.0981593
-0.00885135
0.0972012
-0.0100133
0.0962763
-0.0111353
0.0953893
-0.0122202
0.0945449
-0.0132621
0.0937436
-0.0142872
0.0929908
-0.0152607
0.0922776
-0.0162911
0.0916216
-0.0171962
0.0909826
-0.0183838
0.0904314
-0.0191387
0.0898269
-0.020765
0.0893964
-0.0211908
0.0887753
-0.0234251
-0.0239832
0.116298
0.00755245
-0.116426
0.116089
0.00695756
0.115788
0.00627047
0.115394
0.00549901
0.114911
0.00465187
0.114342
0.0037313
0.113693
0.0027402
0.112969
0.00168507
0.112177
0.000574503
0.111326
-0.000581917
0.110427
-0.00177356
0.109488
-0.00298894
0.108522
-0.0042164
0.107537
-0.00544449
0.106545
-0.00666265
0.105555
-0.00786145
0.104576
-0.00903406
0.103615
-0.0101744
0.102679
-0.0112836
0.101772
-0.0123556
0.100897
-0.0134124
0.100061
-0.0144241
0.0992541
-0.0154845
0.0984961
-0.0164383
0.0977466
-0.0176342
0.0970774
-0.0184695
0.0963471
-0.0200347
0.0957809
-0.0206246
0.0950234
-0.0226677
-0.0234413
0.121846
0.00751623
-0.12181
0.121802
0.0070021
0.121666
0.00640587
0.121437
0.00572773
0.121117
0.00497185
0.120708
0.00414063
0.120212
0.00323658
0.119632
0.0022646
0.118975
0.00123166
0.118247
0.000146219
0.117456
-0.000982522
0.116611
-0.00214381
0.115721
-0.00332677
0.114797
-0.00452029
0.113848
-0.00571382
0.112884
-0.00689769
0.111915
-0.00806438
0.110947
-0.00920713
0.109989
-0.0103255
0.109047
-0.0114134
0.108123
-0.0124887
0.107225
-0.0135261
0.106346
-0.0146049
0.105504
-0.0155964
0.104661
-0.0167908
0.103887
-0.0176955
0.103045
-0.0191929
0.102351
-0.0199308
0.10147
-0.0217869
-0.02275
0.127242
0.00734508
-0.127071
0.127335
0.00690848
0.127344
0.00639752
0.127263
0.00580851
0.127093
0.00514204
0.126833
0.00440001
0.126485
0.00358458
0.126051
0.00269933
0.125533
0.00174976
0.124936
0.000742897
0.124266
-0.000313082
0.123531
-0.00140886
0.122739
-0.00253431
0.121898
-0.00367904
0.121017
-0.00483287
0.120105
-0.00598619
0.119172
-0.00713112
0.118225
-0.00826052
0.117273
-0.00937265
0.116321
-0.0104614
0.115373
-0.0115408
0.114437
-0.0125901
0.113506
-0.0136745
0.112601
-0.0146908
0.111682
-0.0158725
0.11082
-0.0168328
0.109883
-0.0182564
0.109073
-0.019121
0.108085
-0.0207983
-0.0219183
0.132588
0.00707015
-0.132313
0.132792
0.00670476
0.132918
0.00627128
0.132962
0.00576441
0.132922
0.00518231
0.132796
0.00452602
0.132583
0.00379724
0.132284
0.00299852
0.1319
0.00213403
0.131433
0.00120947
0.130888
0.00023185
0.13027
-0.000790809
0.129585
-0.00184941
0.128841
-0.00293444
0.128044
-0.00403632
0.127204
-0.00514579
0.126328
-0.00625494
0.125424
-0.00735647
0.124499
-0.00844763
0.12356
-0.00952246
0.12261
-0.0105916
0.121659