/*--------------------------------*- C++ -*----------------------------------*\
  =========                 |
  \\      /  F ield         | OpenFOAM: The Open Source CFD Toolbox
   \\    /   O peration     | Website:  https://openfoam.org
    \\  /    A nd           | Version:  7
     \\/     M anipulation  |
\*---------------------------------------------------------------------------*/
FoamFile
{
    version     2.0;
    format      ascii;
    class       volVectorField;
    location    "10";
    object      U;
}
// * * * * * * * * * * * * * * * * * * * * * * * * * * * * * * * * * * * * * //

dimensions      [0 1 -1 0 0 0 0];

internalField   nonuniform List<vector> 
2125
(
(-0.000765273 0.000604845 3.8911e-22)
(-0.00386451 0.00131671 -1.24428e-21)
(-0.0093392 0.00166528 -1.53264e-21)
(-0.0154588 0.0017471 1.59982e-21)
(-0.0214757 0.00163486 -1.53826e-21)
(-0.0268508 0.00139515 -8.50726e-22)
(-0.0312234 0.00108982 1.49848e-21)
(-0.0344587 0.00077684 1.90972e-21)
(-0.0366089 0.000504125 -3.17769e-22)
(-0.0377808 0.000315807 9.51269e-22)
(-0.000849155 0.00180108 -4.30702e-22)
(-0.00400282 0.00391782 1.47823e-21)
(-0.00941086 0.0049515 -3.67232e-21)
(-0.0153736 0.00518955 3.49664e-21)
(-0.0211559 0.0048489 1.644e-22)
(-0.0262286 0.00412849 2.77812e-21)
(-0.0302389 0.00321333 -4.98084e-21)
(-0.0330618 0.00227714 -7.47392e-21)
(-0.0347574 0.00146446 -1.48685e-21)
(-0.0353871 0.000910758 3.42628e-21)
(-0.00101343 0.00295729 4.00896e-22)
(-0.00427104 0.00642278 3.2622e-21)
(-0.00954268 0.00810572 8.10001e-21)
(-0.0151898 0.00847791 -7.6825e-21)
(-0.0205018 0.00789731 -1.80709e-21)
(-0.0249694 0.00669254 -1.702e-21)
(-0.0282555 0.00517007 9.03202e-21)
(-0.0302542 0.0036189 5.7668e-21)
(-0.0310426 0.00228216 1.41579e-21)
(-0.0305874 0.00139563 -1.06208e-20)
(-0.00125118 0.00404788 1.42237e-21)
(-0.00465249 0.00876989 -1.90868e-21)
(-0.00971179 0.0110432 -1.51396e-20)
(-0.0148805 0.0115134 1.40173e-21)
(-0.0194846 0.0106741 4.53991e-21)
(-0.0230438 0.00897919 -3.66113e-21)
(-0.0252445 0.00685378 -1.70894e-22)
(-0.0260086 0.00470119 -1.57271e-21)
(-0.0254416 0.00286569 3.64391e-21)
(-0.0233556 0.00169907 1.0572e-20)
(-0.00155226 0.00504883 9.9473e-22)
(-0.00512247 0.010901 -6.21721e-21)
(-0.00988407 0.013684 1.56886e-20)
(-0.0144057 0.0142029 -7.5075e-21)
(-0.0180608 0.0130797 -2.98881e-23)
(-0.0204073 0.0108875 1.11904e-20)
(-0.021162 0.00816561 -5.28896e-21)
(-0.0202835 0.00543018 5.70352e-22)
(-0.0179203 0.00313202 -2.31417e-21)
(-0.0136548 0.00177509 8.36926e-22)
(-0.00190347 0.0059382 1.19659e-20)
(-0.0056486 0.0127626 1.60278e-20)
(-0.0100145 0.0159547 -4.29284e-21)
(-0.0137119 0.0164613 8.60324e-21)
(-0.0161722 0.0150238 2.84622e-21)
(-0.0170002 0.0123264 -4.18141e-21)
(-0.0159492 0.0090171 -1.69202e-21)
(-0.013021 0.00572192 -7.40768e-21)
(-0.00842204 0.00300845 1.67832e-21)
(-0.00145905 0.00163886 -9.78537e-21)
(-0.00228885 0.00669654 -1.15466e-20)
(-0.00619128 0.014307 -8.35946e-21)
(-0.0100475 0.0177899 7.24061e-21)
(-0.0127327 0.0182134 -1.31139e-20)
(-0.0137462 0.0164275 1.56971e-21)
(-0.012747 0.0132178 1.65097e-20)
(-0.00953148 0.00933344 -3.10739e-21)
(-0.00414823 0.0055071 2.04302e-20)
(0.00315517 0.00242479 -4.96672e-22)
(0.0132628 0.00116509 -8.60655e-21)
(-0.00268993 0.00730714 9.86134e-21)
(-0.00670413 0.0154931 -1.95956e-20)
(-0.00991716 0.0191335 -8.1814e-21)
(-0.0113889 0.0193957 9.95833e-21)
(-0.0106951 0.0172259 3.88291e-22)
(-0.00755659 0.0134994 -3.10687e-20)
(-0.0018176 0.0090569 -1.90658e-21)
(0.00641679 0.00473069 -1.62807e-20)
(0.0168603 0.00132839 -2.13687e-20)
(0.0306546 0.000269881 1.26604e-20)
(-0.00308599 0.0077562 -5.51921e-21)
(-0.00713448 0.0162866 2.91818e-21)
(-0.00954805 0.0199399 7.60404e-21)
(-0.00958877 0.019958 -7.20164e-21)
(-0.00691702 0.0173699 -2.5951e-20)
(-0.00132206 0.0131275 9.17718e-21)
(0.00729904 0.0081506 1.32938e-21)
(0.0187802 0.00336149 2.45406e-20)
(0.0327851 -0.000296708 3.27684e-20)
(0.0507948 -0.000993129 -1.49393e-20)
(-0.00345431 0.00803286 8.89542e-21)
(-0.00742389 0.0166611 8.8996e-21)
(-0.00885547 0.0201746 -1.29745e-21)
(-0.00722862 0.0198645 3.56927e-20)
(-0.00229558 0.0168284 1.57868e-20)
(0.0060793 0.01208 1.223e-20)
(0.0179417 0.00660282 1.7745e-20)
(0.0330614 0.00139654 -7.9368e-21)
(0.0510427 -0.00245967 -1.09497e-20)
(0.073781 -0.00261666 -1.82795e-20)
(-0.00377038 0.00812919 -6.72662e-22)
(-0.00750866 0.0165976 -1.41464e-20)
(-0.00774634 0.0198151 -1.06639e-20)
(-0.00419357 0.0190952 -1.77295e-20)
(0.00329898 0.0155896 -1.44643e-20)
(0.0147856 0.0103576 1.52514e-20)
(0.0302496 0.00442953 -1.49542e-20)
(0.0493942 -0.0011372 -1.05328e-20)
(0.0717562 -0.00513691 1.43317e-21)
(0.0997228 -0.00457671 4.73023e-21)
(-0.00400798 0.00803992 -2.50659e-20)
(-0.00732045 0.016085 1.30425e-20)
(-0.00612008 0.0188506 9.87872e-21)
(-0.000358733 0.0176458 7.00669e-21)
(0.0100088 0.0136613 -1.31152e-20)
(0.0249489 0.00798613 -1.13085e-20)
(0.0443772 0.00167715 1.68946e-20)
(0.0679262 -0.00417637 -1.41388e-20)
(0.0950594 -0.00826445 -9.90429e-22)
(0.128739 -0.00681549 -1.52615e-20)
(-0.00413927 0.00776265 2.13598e-20)
(-0.00678674 0.0151201 9.48779e-21)
(-0.00386986 0.0172829 5.05162e-22)
(0.00440911 0.015528 -1.27728e-20)
(0.0179862 0.0110717 7.95848e-22)
(0.0367339 0.00501628 1.51886e-20)
(0.0604921 -0.00157566 -4.39388e-21)
(0.0888172 -0.00761648 -5.4754e-21)
(0.121094 -0.011732 -1.24112e-20)
(0.160947 -0.00924004 2.29728e-20)
(-0.00413528 0.00729764 1.49771e-20)
(-0.00583183 0.0137072 -2.59005e-20)
(-0.000884129 0.0151254 -2.08053e-20)
(0.0102492 0.0127695 9.43623e-21)
(0.0273911 0.00786806 1.97019e-20)
(0.0503141 0.00152268 1.7282e-20)
(0.0787726 -0.00521864 -1.86664e-20)
(0.112238 -0.0113091 3.67453e-20)
(0.150009 -0.0153728 -1.14069e-20)
(0.196451 -0.0117095 -2.73893e-20)
(-0.00396589 0.00664773 -2.2082e-20)
(-0.00437794 0.0118586 1.45264e-20)
(0.00295121 0.0124039 -7.44773e-21)
(0.0173035 0.00941274 8.79962e-22)
(0.0383868 0.00411489 8.56125e-21)
(0.0658678 -0.00239957 -2.71687e-20)
(0.0994042 -0.00911378 2.44898e-20)
(0.138367 -0.0150628 -2.45597e-20)
(0.18196 -0.0189548 3.96459e-20)
(0.23534 -0.0140241 1.43419e-20)
(-0.00360022 0.00581862 4.97779e-21)
(-0.00234657 0.00959466 2.88325e-20)
(0.00775005 0.00915596 -7.78381e-21)
(0.0257127 0.00551431 7.92541e-21)
(0.0511339 -0.000108576 9.66956e-21)
(0.0835713 -0.00664019 -3.09083e-21)
(0.122573 -0.0131036 2.14866e-20)
(0.167391 -0.0186514 1.28336e-21)
(0.217118 -0.0221796 -2.51385e-20)
(0.277688 -0.0159176 3.46945e-20)
(-0.00300721 0.00481918 -1.30042e-20)
(0.000339718 0.00694441 -2.76436e-20)
(0.0136227 0.00543083 2.48332e-20)
(0.0356106 0.00114364 1.30624e-20)
(0.0657836 -0.00471171 -6.13975e-20)
(0.103589 -0.0110811 5.16216e-20)
(0.148454 -0.0170245 -4.72452e-20)
(0.19949 -0.0218302 9.51658e-22)
(0.255666 -0.0246732 -1.08296e-20)
(0.323548 -0.0169943 -3.20667e-20)
(-0.00215637 0.0036618 1.16801e-20)
(0.00375514 0.00394574 -1.92111e-21)
(0.0206723 0.00129001 -6.09557e-21)
(0.0471187 -0.00361752 -6.32112e-22)
(0.0824681 -0.00959571 -4.24908e-21)
(0.126063 -0.0156056 -1.62141e-20)
(0.177201 -0.0207275 6.81043e-21)
(0.234836 -0.0243604 -1.14986e-20)
(0.297768 -0.0259225 3.68917e-21)
(0.372801 -0.0164563 1.77331e-21)
(-0.00101864 0.00236285 -2.3969e-20)
(0.00796835 0.000646327 -2.09967e-21)
(0.0289902 -0.00319231 3.04564e-21)
(0.0603385 -0.00867499 1.38483e-21)
(0.10129 -0.0146558 2.03886e-20)
(0.151094 -0.0201097 -6.15577e-20)
(0.208936 -0.0241138 4.19961e-20)
(0.27363 -0.0260732 -3.23027e-20)
(0.343708 -0.0252734 2.69987e-20)
(0.424991 -0.0129647 2.88427e-20)
(0.000432622 0.00094306 -3.0567e-21)
(0.01304 -0.00289578 1.43861e-20)
(0.0386522 -0.00792804 -1.85885e-20)
(0.075345 -0.0139205 -5.99303e-21)
(0.122308 -0.0197803 1.20234e-20)
(0.178719 -0.0245091 5.89589e-20)
(0.243704 -0.0271781 -1.19024e-20)
(0.316144 -0.0270335 5.85099e-21)
(0.394564 -0.0225919 -3.21585e-20)
(0.481418 -0.00673574 1.56548e-20)
(0.00222078 -0.00057228 -9.1143e-21)
(0.0190209 -0.00661156 -7.59858e-21)
(0.0497154 -0.0128137 2.09329e-21)
(0.0921805 -0.0192276 7.65038e-21)
(0.145522 -0.0248409 -2.35458e-20)
(0.208861 -0.0287215 -9.73143e-21)
(0.281323 -0.0299943 -3.14525e-20)
(0.362182 -0.0277252 3.23681e-20)
(0.451479 -0.0196406 3.546e-20)
(0.552051 -0.0037056 -1.32488e-20)
(0.00436528 -0.00215336 -4.53715e-21)
(0.0259504 -0.0104209 1.90641e-20)
(0.062217 -0.0177291 -2.16525e-20)
(0.110854 -0.0244465 -2.70654e-21)
(0.170877 -0.0296758 -1.10549e-20)
(0.241328 -0.0326087 2.43239e-20)
(0.321291 -0.0325483 3.17658e-20)
(0.410218 -0.028773 -3.12714e-20)
(0.508821 -0.01987 3.50249e-20)
(0.616781 -0.0107685 5.71342e-21)
(0.00688139 -0.00376633 -1.30571e-20)
(0.0338566 -0.0142336 -3.859e-20)
(0.0761746 -0.0225377 3.90125e-20)
(0.131347 -0.0294023 5.7548e-21)
(0.198278 -0.0340783 8.45402e-21)
(0.275884 -0.0359307 5.65195e-21)
(0.363099 -0.0345243 2.46701e-20)
(0.459203 -0.029529 1.84151e-20)
(0.5646 -0.0204437 -6.75969e-20)
(0.675622 -0.0157121 -3.46094e-20)
(0.0427558 -0.0179506 9.49472e-21)
(0.091588 -0.0270894 -2.23473e-20)
(0.153618 -0.0339002 4.32464e-21)
(0.227611 -0.0378092 7.24622e-21)
(0.312301 -0.0383864 -5.35749e-20)
(0.406365 -0.0354827 2.4577e-20)
(0.508673 -0.0291496 -1.66762e-20)
(0.618853 -0.0194615 1.80667e-20)
(0.731082 -0.016241 -7.16921e-21)
(0.10844 -0.0312254 -1.21931e-21)
(0.177606 -0.0377344 -6.24575e-21)
(0.258747 -0.0406178 8.88192e-23)
(0.350367 -0.0396691 2.59147e-22)
(0.450805 -0.035023 -3.71768e-20)
(0.558411 -0.0270617 5.15266e-21)
(0.671943 -0.0162307 4.96776e-20)
(0.784498 -0.0127298 2.36819e-20)
(0.126695 -0.034783 3.81436e-20)
(0.203228 -0.0406977 9.34656e-22)
(0.291543 -0.0422586 -1.70902e-20)
(0.389868 -0.0394964 4.66846e-20)
(0.496161 -0.0328216 1.06224e-20)
(0.608221 -0.0229052 8.34013e-22)
(0.723992 -0.0104619 -2.15727e-20)
(0.836146 -0.00553376 -3.01619e-20)
(0.230379 -0.0425888 -1.65485e-20)
(0.325828 -0.0425031 2.74859e-20)
(0.430571 -0.0376235 -1.38622e-20)
(0.542159 -0.0286332 -1.61465e-20)
(0.657856 -0.0164654 -3.75984e-21)
(0.774895 -0.00206159 -1.27253e-20)
(0.885917 0.0049799 1.47675e-20)
(0.361408 -0.0411468 1.51797e-20)
(0.472216 -0.0338499 -5.17153e-20)
(0.588497 -0.0222863 3.43626e-20)
(0.707016 -0.00764197 -1.6086e-20)
(0.824418 0.0089233 2.55318e-20)
(0.933549 0.0184004 7.31599e-21)
(0.634839 -0.0136781 -8.6993e-21)
(0.755358 0.00357629 7.73462e-21)
(0.872249 0.0223563 -1.95316e-20)
(0.978721 0.034314 -2.10174e-20)
(0.802505 0.0171321 -2.46554e-20)
(0.918042 0.0380457 4.64947e-22)
(1.02111 0.0523208 1.46972e-20)
(0.961445 0.0557648 1.96455e-20)
(1.0604 0.0720404 -8.79132e-21)
(-0.000765273 -0.000604846 -3.8911e-22)
(-0.00386451 -0.00131671 1.24428e-21)
(-0.0093392 -0.00166527 1.53264e-21)
(-0.0390216 0.000319377 1.71729e-22)
(-0.0398859 -7.67462e-05 -4.09489e-22)
(-0.0386454 -0.000525802 3.12578e-23)
(-0.0353567 -0.00101169 1.79173e-22)
(-0.0296176 -0.00148746 -2.203e-24)
(-0.0213548 -0.00191914 2.95816e-23)
(-0.0106098 -0.00228984 2.49079e-23)
(0.00249546 -0.00259157 -1.81484e-22)
(0.0177795 -0.00282438 6.92259e-23)
(0.0350361 -0.00299298 -1.64069e-22)
(0.0540515 -0.00310459 1.4404e-22)
(0.0746174 -0.00316727 -1.52681e-22)
(0.0965373 -0.00318905 5.15283e-23)
(0.119633 -0.00317736 3.12007e-23)
(0.143738 -0.0031389 -6.1564e-23)
(0.168718 -0.00307946 -4.41333e-23)
(0.194428 -0.00300443 -3.56927e-23)
(0.220802 -0.00291779 1.24862e-23)
(0.247669 -0.00282469 1.42752e-23)
(0.275137 -0.00272601 7.30863e-24)
(0.302821 -0.00263024 -4.26846e-23)
(0.331363 -0.00252889 5.76937e-24)
(0.359519 -0.00244653 -1.81705e-23)
(0.389647 -0.00234123 7.35868e-24)
(0.417547 -0.00229845 -1.50569e-23)
(0.451024 -0.00216238 3.15651e-24)
(0.476382 -0.00221681 9.32873e-24)
(0.518112 -0.00197939 -5.83124e-25)
(0.534462 -0.00221307 8.28855e-24)
(0.595439 -0.00190433 1.64383e-23)
(-0.0363122 0.000930241 3.27168e-22)
(-0.037091 -0.00026361 8.42295e-22)
(-0.0356484 -0.001605 -1.25187e-21)
(-0.0321844 -0.00305688 3.30989e-22)
(-0.026293 -0.00447766 1.719e-22)
(-0.0179104 -0.00576584 -6.41973e-22)
(-0.00708506 -0.00687147 1.02242e-21)
(0.00606092 -0.00777097 -8.654e-22)
(0.0213483 -0.00846484 -2.72192e-23)
(0.0385753 -0.00896721 4.76248e-22)
(0.0575336 -0.00929961 -7.13479e-23)
(0.0780203 -0.00948613 -1.43728e-22)
(0.099844 -0.00955065 -1.09567e-22)
(0.122831 -0.00951526 1.72957e-22)
(0.146818 -0.00939997 3.2e-23)
(0.171672 -0.009222 1.74978e-22)
(0.197253 -0.00899746 -1.00502e-22)
(0.223496 -0.00873816 5.34163e-23)
(0.250231 -0.00845957 2.03293e-23)
(0.277567 -0.00816426 -6.08133e-23)
(0.305119 -0.00787772 -7.77674e-23)
(0.33353 -0.0075744 6.46133e-24)
(0.361558 -0.00732803 -3.61815e-24)
(0.391558 -0.00701283 3.41518e-23)
(0.419335 -0.00688519 -3.42311e-24)
(0.45268 -0.00647772 -1.05692e-24)
(0.477928 -0.00664146 -5.79266e-24)
(0.51951 -0.00593039 -1.72869e-24)
(0.53578 -0.00663091 3.41183e-24)
(0.596553 -0.00570709 -1.93521e-23)
(-0.0308861 0.00146088 2.03412e-21)
(-0.0314962 -0.000548542 -1.84234e-21)
(-0.0296519 -0.00276571 5.51254e-22)
(-0.0258411 -0.00516613 -2.05254e-21)
(-0.019649 -0.00751227 8.76716e-22)
(-0.0110314 -0.00963638 2.02995e-21)
(-4.95838e-05 -0.0114575 1.08564e-22)
(0.0131737 -0.0129379 -1.40166e-21)
(0.0284642 -0.0140792 5.8924e-23)
(0.0456294 -0.0149051 3.95322e-22)
(0.0644716 -0.0154512 -3.28186e-22)
(0.0847988 -0.0157572 1.45402e-22)
(0.106429 -0.0158621 3.88741e-22)
(0.129197 -0.0158024 2.39623e-22)
(0.152948 -0.0156107 -9.3382e-23)
(0.177553 -0.0153155 -4.97545e-22)
(0.202877 -0.0149433 2.73098e-22)
(0.228858 -0.0145136 -2.71837e-22)
(0.25533 -0.0140519 1.83934e-22)
(0.282403 -0.0135624 -9.26891e-23)
(0.309694 -0.0130875 2.2732e-22)
(0.337845 -0.0125846 1.5781e-23)
(0.365619 -0.0121765 -1.06002e-23)
(0.395361 -0.0116535 -4.6209e-23)
(0.422895 -0.0114429 -2.36444e-24)
(0.455978 -0.0107661 -4.05349e-23)
(0.481005 -0.0110402 5.97115e-24)
(0.522294 -0.00985871 3.43089e-24)
(0.538406 -0.011024 -1.41404e-23)
(0.598774 -0.00949164 -1.2474e-23)
(-0.0227272 0.0018664 -2.7979e-21)
(-0.0230921 -0.000993227 1.45459e-21)
(-0.0206507 -0.00405972 -1.62439e-21)
(-0.0163288 -0.00737948 1.73986e-21)
(-0.00969619 -0.0106183 -2.09781e-21)
(-0.000736952 -0.0135442 -1.83133e-22)
(0.0104686 -0.0160485 2.40163e-21)
(0.0237978 -0.0180821 -1.26346e-22)
(0.0390844 -0.0196486 -8.19241e-22)
(0.0561502 -0.0207815 8.20586e-24)
(0.0748134 -0.02153 -2.63796e-23)
(0.0948981 -0.0219483 5.02909e-22)
(0.116237 -0.02209 -7.80259e-23)
(0.138677 -0.0220049 -8.80892e-22)
(0.162073 -0.0217378 5.97639e-22)
(0.186306 -0.0213276 -1.2266e-22)
(0.211246 -0.0208109 8.15426e-23)
(0.236838 -0.0202144 2.01747e-23)
(0.262917 -0.0195736 -8.55922e-23)
(0.289598 -0.018894 1.65652e-23)
(0.316501 -0.0182349 7.7867e-23)
(0.344266 -0.0175362 2.88248e-23)
(0.371663 -0.0169702 -1.96678e-23)
(0.401022 -0.0162428 -5.78406e-24)
(0.428196 -0.0159525 6.51178e-23)
(0.460888 -0.0150099 1.70844e-23)
(0.485589 -0.0153959 -6.18713e-24)
(0.526443 -0.0137494 4.40444e-24)
(0.542318 -0.015376 -1.00953e-23)
(0.602086 -0.013246 5.3459e-23)
(-0.0118108 0.00208395 5.85036e-21)
(-0.0118647 -0.00164807 -1.87016e-21)
(-0.0086352 -0.00553252 2.20918e-21)
(-0.00364906 -0.00973279 -1.50216e-22)
(0.00355116 -0.0138184 -2.00872e-21)
(0.012945 -0.0174989 1.06784e-21)
(0.0244281 -0.0206422 1.82672e-22)
(0.0378794 -0.0231909 -1.33665e-21)
(0.053145 -0.0251523 -7.37958e-23)
(0.0700657 -0.0265698 6.96858e-22)
(0.0884815 -0.0275054 -4.36608e-22)
(0.108237 -0.0280268 -7.61789e-23)
(0.129185 -0.0282008 4.62094e-22)
(0.151187 -0.0280892 -1.90811e-22)
(0.174111 -0.0277482 5.2326e-23)
(0.197851 -0.0272264 -3.77388e-22)
(0.222283 -0.0265697 1.66757e-22)
(0.24736 -0.0258116 5.81011e-23)
(0.272922 -0.0249973 8.9127e-24)
(0.299086 -0.0241332 -1.43555e-24)
(0.325478 -0.0232956 -3.70351e-22)
(0.352733 -0.0224065 -3.16006e-23)
(0.379633 -0.0216879 -2.23385e-23)
(0.408489 -0.0207611 8.42082e-23)
(0.435189 -0.0203954 -7.48161e-23)
(0.467368 -0.0191918 -5.80061e-24)
(0.491641 -0.019692 4.78396e-23)
(0.531921 -0.017588 1.11227e-23)
(0.547489 -0.0196712 4.32855e-23)
(0.606464 -0.0169583 -2.71685e-23)
(0.00188823 0.00196186 1.37187e-21)
(0.00222026 -0.00251839 1.90406e-22)
(0.00640654 -0.00721942 -3.53115e-22)
(0.0121977 -0.0122558 -1.19671e-21)
(0.0200754 -0.0171304 5.00217e-21)
(0.029978 -0.0215051 -1.53223e-21)
(0.0417743 -0.0252316 -1.04069e-21)
(0.0553477 -0.0282478 -7.45548e-22)
(0.0705614 -0.0305667 1.21608e-21)
(0.0872812 -0.0322416 2.90447e-22)
(0.105374 -0.033346 -5.76896e-22)
(0.12471 -0.0339595 -6.49569e-22)
(0.145164 -0.0341607 3.79277e-22)
(0.166617 -0.0340219 -1.56728e-22)
(0.188955 -0.0336093 2.42316e-22)
(0.212082 -0.0329804 1.48876e-22)
(0.235885 -0.0321896 -1.36475e-22)
(0.260325 -0.0312768 2.40422e-22)
(0.285249 -0.0302963 -4.39191e-22)
(0.310777 -0.0292551 -4.68232e-23)
(0.336539 -0.0282463 -4.99099e-23)
(0.363168 -0.0271737 -3.51436e-23)
(0.389457 -0.0263091 1.49745e-22)
(0.417695 -0.025189 -9.21537e-23)
(0.443814 -0.0247536 -1.14332e-22)
(0.475362 -0.023295 -7.76318e-23)
(0.499109 -0.0239123 -6.17382e-23)
(0.538684 -0.0213603 4.34486e-24)
(0.553876 -0.023894 -3.15649e-23)
(0.611876 -0.0206171 -7.87685e-24)
(0.0183928 0.00156017 -3.41447e-22)
(0.0192546 -0.00367047 -1.51259e-21)
(0.0244784 -0.00916218 2.50983e-21)
(0.0312123 -0.0149721 -3.72429e-21)
(0.0398568 -0.0205649 3.48123e-22)
(0.0503182 -0.0255609 1.62169e-21)
(0.0624398 -0.0298037 5.87591e-24)
(0.0761146 -0.0332316 -2.35351e-21)
(0.0912291 -0.0358649 2.74435e-21)
(0.10768 -0.0377662 -1.50752e-21)
(0.125365 -0.0390189 1.23425e-21)
(0.144185 -0.0397129 9.48441e-22)
(0.16404 -0.0399361 -8.43814e-22)
(0.184835 -0.03977 -7.19394e-22)
(0.206472 -0.0392894 1.2921e-22)
(0.22887 -0.0385592 -2.08089e-22)
(0.251928 -0.0376419 -7.99411e-23)
(0.275615 -0.0365827 -1.10884e-22)
(0.299785 -0.0354449 -1.59016e-22)
(0.324562 -0.0342355 3.39541e-22)
(0.349583 -0.0330643 2.30832e-22)
(0.375474 -0.0318166 -1.6637e-23)
(0.401046 -0.0308141 -1.2162e-22)
(0.428557 -0.0295082 2.58316e-22)
(0.453993 -0.0290099 1.66249e-23)
(0.484801 -0.0273037 6.76792e-23)
(0.507932 -0.0280414 -8.79338e-23)
(0.546678 -0.025053 -1.80832e-24)
(0.561432 -0.0280299 1.01616e-23)
(0.618284 -0.0242111 2.5472e-23)
(0.0377833 0.000975514 4.69091e-21)
(0.0392452 -0.00518287 -1.10207e-22)
(0.0456283 -0.0113862 1.08946e-21)
(0.0534045 -0.0178956 -6.24956e-22)
(0.0628745 -0.0241231 4.2306e-22)
(0.0739139 -0.0296557 3.19752e-21)
(0.0863444 -0.0343388 -2.12633e-21)
(0.100075 -0.038116 -1.9779e-21)
(0.115024 -0.0410161 -1.79989e-22)
(0.131123 -0.0431102 -3.18849e-22)
(0.148306 -0.0444899 1.90286e-21)
(0.166509 -0.0452525 -1.3237e-21)
(0.185659 -0.0454934 6.62696e-22)
(0.205685 -0.045301 -1.22717e-21)
(0.226509 -0.0447572 -3.74422e-22)
(0.248066 -0.0439333 7.1441e-22)
(0.270267 -0.0428987 2.93896e-22)
(0.29309 -0.0417032 6.15109e-23)
(0.316397 -0.0404187 2.3199e-22)
(0.340316 -0.0390515 -1.55793e-22)
(0.36449 -0.0377283 -3.91141e-22)
(0.389542 -0.0363153 2.44998e-22)
(0.414296 -0.0351844 1.18288e-22)
(0.44098 -0.0337013 -1.91705e-22)
(0.46564 -0.0331478 2.20019e-22)
(0.495606 -0.0312028 5.54528e-23)
(0.518039 -0.0320645 3.95378e-23)
(0.555838 -0.0286532 6.11986e-24)
(0.5701 -0.0320649 -2.12879e-23)
(0.625642 -0.0277296 -8.00054e-23)
(0.0601274 0.000106531 -3.08791e-21)
(0.0622515 -0.00703454 3.20636e-21)
(0.0699015 -0.0138992 4.6208e-22)
(0.0787882 -0.0210294 -1.8339e-21)
(0.0891063 -0.0277957 -2.57053e-21)
(0.100706 -0.0337694 1.19671e-21)
(0.113394 -0.038809 1.18125e-22)
(0.127108 -0.0428682 -2.3321e-21)
(0.141802 -0.0459851 -4.28748e-22)
(0.15745 -0.0482379 1.61534e-21)
(0.174029 -0.0497233 1.47426e-22)
(0.191506 -0.0505438 4.42391e-22)
(0.209842 -0.0507993 -6.54094e-22)
(0.22899 -0.0505834 1.27858e-21)
(0.248892 -0.0499831 -4.65764e-22)
(0.2695 -0.0490747 -7.95195e-22)
(0.290738 -0.0479336 6.88283e-22)
(0.312593 -0.0466136 5.61352e-22)
(0.334936 -0.0451946 -4.85971e-22)
(0.357898 -0.0436817 -9.54206e-23)
(0.381129 -0.0422184 5.49674e-23)
(0.405246 -0.0406511 -4.39952e-23)
(0.429091 -0.0394025 -7.69087e-23)
(0.454856 -0.037752 2.16047e-22)
(0.478656 -0.0371522 -1.51365e-22)
(0.507686 -0.034978 -1.40921e-22)
(0.529347 -0.035968 -1.33354e-23)
(0.566094 -0.032149 -1.6749e-24)
(0.579816 -0.035986 1.84562e-23)
(0.633897 -0.0311621 -7.90018e-23)
(0.0855048 -0.00107221 2.33607e-21)
(0.0883614 -0.00922346 2.47697e-21)
(0.0973534 -0.0167016 -3.65787e-21)
(0.107383 -0.0243634 -2.09496e-21)
(0.118528 -0.0315601 4.98928e-21)
(0.130624 -0.0378704 7.87926e-22)
(0.143481 -0.0431773 -2.71547e-21)
(0.157073 -0.0474488 1.79508e-21)
(0.1714 -0.0507325 -1.59107e-21)
(0.186484 -0.0531107 1.12068e-21)
(0.202343 -0.0546825 3.71977e-22)
(0.218983 -0.0555519 8.99412e-22)
(0.236394 -0.0558212 -4.90654e-22)
(0.254556 -0.0555864 -7.22939e-22)
(0.273431 -0.0549382 8.11681e-22)
(0.292987 -0.0539567 1.98644e-22)
(0.313163 -0.052722 -5.77048e-22)
(0.333954 -0.0512911 5.11217e-22)
(0.355239 -0.0497513 -1.82099e-22)
(0.377153 -0.0481062 3.77455e-22)
(0.399354 -0.0465161 2.74462e-22)
(0.42245 -0.0448068 5.9603e-23)
(0.445305 -0.0434523 -3.64844e-22)
(0.470069 -0.0416454 1.1925e-22)
(0.492933 -0.041009 6.7575e-23)
(0.520944 -0.0386165 9.55318e-23)
(0.541768 -0.0397391 1.37644e-22)
(0.577368 -0.0355293 -2.41048e-23)
(0.590508 -0.039781 -7.22649e-23)
(0.642994 -0.034499 1.14246e-22)
(0.114009 -0.00254699 3.58118e-21)
(0.117686 -0.0117422 2.89442e-21)
(0.128057 -0.019781 -8.47073e-21)
(0.139216 -0.0278723 -3.35884e-21)
(0.151112 -0.0353791 1.05159e-20)
(0.163589 -0.0419144 -9.07049e-21)
(0.17648 -0.0473969 4.29993e-21)
(0.18981 -0.0518119 1.90247e-21)
(0.203634 -0.0552145 -8.20764e-22)
(0.218024 -0.0576878 2.30076e-22)
(0.233041 -0.0593297 -1.44268e-21)
(0.248726 -0.0602424 1.2576e-21)
(0.265102 -0.0605273 1.16618e-21)
(0.282173 -0.060281 -1.37328e-21)
(0.29992 -0.059596 5.14662e-22)
(0.318329 -0.0585545 -4.96609e-23)
(0.33735 -0.057241 9.92074e-22)
(0.356988 -0.0557144 7.66929e-22)
(0.377132 -0.0540693 -2.11618e-22)
(0.397916 -0.052307 8.81375e-23)
(0.41901 -0.0506045 4.57739e-23)
(0.441008 -0.0487668 -5.41328e-22)
(0.462803 -0.0473194 2.7659e-22)
(0.486493 -0.0453678 -3.64635e-22)
(0.508356 -0.0447052 1.18728e-23)
(0.535276 -0.0421064 -4.066e-23)
(0.555208 -0.0433661 -4.39627e-23)
(0.589574 -0.0387842 -3.39211e-24)
(0.602103 -0.0434391 1.1541e-22)
(0.652869 -0.037731 3.1025e-23)
(0.145749 -0.00429688 -1.16624e-21)
(0.150356 -0.0145723 9.21831e-21)
(0.162101 -0.0231083 -3.19547e-21)
(0.174315 -0.0315129 -1.08612e-20)
(0.18682 -0.0391984 1.38189e-20)
(0.199501 -0.0458432 -6.26983e-21)
(0.212244 -0.0514112 2.52835e-22)
(0.22514 -0.0559048 -5.23906e-21)
(0.238302 -0.0593834 2.7094e-21)
(0.251853 -0.0619268 1.29948e-21)
(0.265896 -0.0636271 -2.54558e-21)
(0.280508 -0.0645812 8.93739e-22)
(0.295739 -0.0648871 9.55e-24)
(0.311616 -0.0646397 1.33308e-22)
(0.328141 -0.0639315 -1.11055e-21)
(0.345315 -0.0628457 9.27622e-22)
(0.363097 -0.0614699 3.4687e-22)
(0.381504 -0.0598646 -8.49673e-22)
(0.400431 -0.0581311 -6.32457e-22)
(0.420014 -0.0562678 1.5896e-22)
(0.439933 -0.0544687 4.33252e-22)
(0.46077 -0.0525171 -3.53852e-22)
(0.481441 -0.0509907 3.21324e-22)
(0.503997 -0.0489072 -4.90925e-24)
(0.524804 -0.0482297 -6.74668e-23)
(0.55057 -0.0454372 -8.01261e-23)
(0.569565 -0.0468387 9.91417e-23)
(0.602623 -0.0419048 7.95534e-24)
(0.614518 -0.0469504 -6.85711e-24)
(0.663459 -0.0408495 -3.64133e-23)
(0.180846 -0.0063102 1.53792e-20)
(0.186538 -0.0176848 1.36729e-23)
(0.199595 -0.0266354 -1.46977e-20)
(0.212707 -0.0352209 1.27149e-20)
(0.225598 -0.0429452 5.21149e-22)
(0.238239 -0.0495846 -4.49921e-21)
(0.250604 -0.0551536 3.40635e-21)
(0.262859 -0.0596691 2.26877e-21)
(0.275179 -0.0631889 -1.97141e-21)
(0.287734 -0.0657843 -3.24657e-21)
(0.300666 -0.0675372 9.5027e-22)
(0.314085 -0.068536 6.31e-23)
(0.328064 -0.0688724 -4.91173e-22)
(0.342652 -0.0686374 8.68742e-22)
(0.357868 -0.0679222 -5.07788e-22)
(0.373725 -0.0668101 4.94354e-22)
(0.390195 -0.0653906 -2.82412e-22)
(0.407302 -0.0637251 7.33214e-22)
(0.424947 -0.0619215 2.10758e-22)
(0.443269 -0.0599748 -2.80682e-22)
(0.461955 -0.0580959 -5.97544e-22)
(0.481576 -0.0560459 3.55505e-22)
(0.501074 -0.0544551 -1.91026e-22)
(0.522444 -0.0522532 -1.17358e-23)
(0.542151 -0.0515723 1.36515e-22)
(0.566712 -0.0485999 -4.1751e-23)
(0.584736 -0.0501477 -1.05297e-22)
(0.616425 -0.0448831 -1.34248e-24)
(0.627672 -0.0503063 -4.92084e-23)
(0.674695 -0.0438468 1.34197e-22)
(0.219442 -0.00857753 3.3306e-21)
(0.226434 -0.0210423 -4.08317e-21)
(0.240663 -0.0302927 6.08097e-21)
(0.254405 -0.0389076 2.17917e-21)
(0.267366 -0.0465258 2.19539e-21)
(0.279653 -0.0530516 -3.49235e-21)
(0.291361 -0.0585491 -5.29022e-21)
(0.302739 -0.0630418 4.26799e-21)
(0.314018 -0.0665789 3.12413e-21)
(0.325413 -0.0692171 -5.50618e-21)
(0.337097 -0.0710242 6.12985e-22)
(0.349203 -0.0720765 1.39745e-21)
(0.361829 -0.0724572 -9.18988e-22)
(0.375038 -0.0722519 2.51629e-21)
(0.388866 -0.0715489 -1.02098e-21)
(0.403336 -0.0704304 -7.51259e-23)
(0.41843 -0.0689876 1.07669e-22)
(0.434178 -0.0672821 5.7798e-22)
(0.450488 -0.0654279 -3.49867e-22)
(0.467498 -0.0634161 7.03522e-22)
(0.484906 -0.0614752 -6.75377e-22)
(0.503266 -0.059343 -1.46524e-22)
(0.521552 -0.0577032 -2.13302e-22)
(0.541697 -0.055397 1.02154e-22)
(0.56027 -0.0547249 -1.41576e-22)
(0.583587 -0.0515868 2.05473e-22)
(0.600614 -0.0532853 8.98682e-23)
(0.630883 -0.0477127 -3.16334e-23)
(0.641477 -0.0534995 2.79891e-23)
(0.686505 -0.0467157 -1.19749e-22)
(0.261712 -0.0111065 -5.87092e-21)
(0.270297 -0.0245985 7.81801e-21)
(0.285437 -0.0339799 2.51942e-22)
(0.299398 -0.0424534 -3.66257e-21)
(0.312003 -0.0498242 5.13621e-21)
(0.323551 -0.0561438 -1.23017e-21)
(0.334281 -0.0615153 3.20319e-22)
(0.344522 -0.0659571 4.80968e-21)
(0.354554 -0.0695009 -7.72095e-21)
(0.364621 -0.0721834 6.36838e-21)
(0.374918 -0.0740541 -2.25758e-21)
(0.3856 -0.075175 -2.11848e-21)
(0.396777 -0.0756187 3.44451e-22)
(0.408528 -0.0754637 -2.62162e-22)
(0.420898 -0.0747949 9.83112e-22)
(0.43392 -0.0736922 5.05731e-22)
(0.447585 -0.0722483 -1.65633e-21)
(0.461926 -0.070524 -1.21715e-22)
(0.476858 -0.0686399 1.13025e-21)
(0.492519 -0.0665825 -5.35434e-22)
(0.508613 -0.0645978 5.27692e-22)
(0.525681 -0.0624003 5.7016e-23)
(0.542724 -0.0607274 7.03209e-23)
(0.561615 -0.0583316 -1.46419e-22)
(0.579032 -0.0576807 8.04446e-23)
(0.601076 -0.0543918 -7.62767e-23)
(0.617093 -0.0562452 1.42728e-23)
(0.645903 -0.0503882 -2.19415e-23)
(0.655847 -0.0565237 -1.48027e-23)
(0.698818 -0.0494499 8.8179e-23)
(0.307898 -0.0139251 -9.07904e-22)
(0.318442 -0.0282805 -1.11554e-20)
(0.334046 -0.0375507 2.9736e-22)
(0.347621 -0.0456999 6.15369e-21)
(0.359329 -0.0527001 3.48443e-22)
(0.36969 -0.0587474 -5.64516e-22)
(0.379091 -0.0639634 -2.21014e-21)
(0.387924 -0.0683464 5.9625e-21)
(0.396498 -0.0719018 -4.21618e-21)
(0.405071 -0.0746417 -6.19489e-22)
(0.413852 -0.0765942 3.74249e-21)
(0.423005 -0.077805 -2.84522e-21)
(0.432648 -0.078335 -3.91716e-22)
(0.442871 -0.0782549 1.70997e-21)
(0.453725 -0.0776449 1.7093e-21)
(0.465251 -0.0765825 -1.32157e-21)
(0.477444 -0.075161 -2.0373e-22)
(0.490343 -0.0734409 4.36229e-22)
(0.503866 -0.0715485 -2.29269e-22)
(0.518149 -0.0694657 -2.3492e-22)
(0.532906 -0.0674566 1.24063e-22)
(0.548659 -0.0652111 -3.6918e-22)
(0.564443 -0.0635216 2.13664e-22)
(0.582062 -0.0610511 4.8755e-22)
(0.598309 -0.060434 -2.38602e-22)
(0.619063 -0.0570101 5.92035e-23)
(0.634064 -0.059022 -2.88497e-24)
(0.66139 -0.0529055 1.23559e-23)
(0.670694 -0.0593741 -3.906e-23)
(0.711562 -0.052044 -8.30638e-23)
(0.358393 -0.0170673 9.98877e-21)
(0.37125 -0.0319864 -8.48851e-21)
(0.386572 -0.0408154 1.03582e-20)
(0.398925 -0.0484565 -1.02857e-20)
(0.409084 -0.0549983 3.44564e-21)
(0.417769 -0.0607449 4.13723e-21)
(0.425477 -0.0658062 1.55085e-21)
(0.432631 -0.070145 -2.21674e-21)
(0.439542 -0.0737333 -4.88148e-21)
(0.446467 -0.076555 4.05307e-21)
(0.453613 -0.0786157 -3.237e-21)
(0.461143 -0.079944 5.14886e-21)
(0.469182 -0.0805882 -4.186e-21)
(0.477819 -0.0806106 8.39135e-22)
(0.487111 -0.0800866 7.29326e-22)
(0.497104 -0.0790909 5.61217e-22)
(0.507796 -0.0777173 -1.06028e-21)
(0.519227 -0.0760252 -3.10202e-22)
(0.531322 -0.0741472 6.55317e-22)
(0.544211 -0.07206 2.655e-22)
(0.557618 -0.0700461 -7.03592e-22)
(0.572046 -0.0677708 3.11957e-22)
(0.586561 -0.0660812 -1.16274e-22)
(0.602902 -0.0635518 -1.5198e-22)
(0.617976 -0.0629811 2.40042e-22)
(0.637433 -0.0594381 2.37303e-23)
(0.651422 -0.0616121 1.03386e-23)
(0.677248 -0.0552615 -4.74841e-24)
(0.685933 -0.0620474 5.11895e-23)
(0.724663 -0.0544931 2.91771e-23)
(0.413884 -0.0207326 1.26148e-21)
(0.429139 -0.0356918 -1.06028e-20)
(0.442991 -0.0435766 -4.24133e-22)
(0.453034 -0.0505268 2.08272e-21)
(0.460912 -0.056576 -6.3791e-21)
(0.467421 -0.0620411 -1.02209e-21)
(0.473082 -0.0669831 4.30399e-21)
(0.478302 -0.0713167 -4.05065e-23)
(0.483364 -0.0749756 6.04822e-21)
(0.488503 -0.0779151 -8.46798e-21)
(0.49391 -0.0801183 5.05605e-21)
(0.499742 -0.0815966 -3.25561e-21)
(0.506117 -0.0823861 2.12936e-21)
(0.513125 -0.0825404 -1.67173e-22)
(0.520824 -0.0821303 6.30975e-22)
(0.529259 -0.0812274 -3.53853e-22)
(0.538433 -0.0799263 1.98188e-22)
(0.548384 -0.078285 -1.99622e-21)
(0.559042 -0.076443 8.89903e-22)
(0.570531 -0.074371 -1.79175e-22)
(0.582586 -0.0723711 -3.24463e-22)
(0.595688 -0.0700823 3.06485e-22)
(0.608938 -0.068409 1.37858e-22)
(0.624002 -0.0658344 -1.89423e-22)
(0.63791 -0.0653232 2.09457e-22)
(0.656074 -0.0616754 -9.86888e-23)
(0.669065 -0.0640157 -1.5174e-23)
(0.693386 -0.0574541 -1.01138e-23)
(0.701476 -0.0645429 1.7463e-23)
(0.73805 -0.0567932 -2.97327e-23)
(0.475581 -0.0255877 -7.44251e-21)
(0.492505 -0.0392455 -1.49968e-21)
(0.503091 -0.0454821 6.0549e-21)
(0.509502 -0.0516492 -2.36357e-21)
(0.514343 -0.0572737 2.29917e-21)
(0.51821 -0.0625457 -4.85477e-21)
(0.521509 -0.0674484 7.61927e-21)
(0.524573 -0.0718458 -1.21793e-21)
(0.527629 -0.0756344 -2.7208e-21)
(0.530867 -0.0787427 5.56868e-21)
(0.534454 -0.081133 -3.35648e-21)
(0.538529 -0.0828004 2.88852e-21)
(0.543199 -0.0837696 -2.84532e-21)
(0.548551 -0.0840863 -5.25913e-22)
(0.554638 -0.083817 -4.73021e-22)
(0.561505 -0.0830307 2.21626e-21)
(0.569156 -0.0818235 -1.8118e-21)
(0.577627 -0.080252 1.0397e-21)
(0.586851 -0.0784635 -6.60634e-22)
(0.596946 -0.076422 7.09558e-22)
(0.607656 -0.074451 -2.30605e-23)