/*--------------------------------*- C++ -*----------------------------------*\
  =========                 |
  \\      /  F ield         | OpenFOAM: The Open Source CFD Toolbox
   \\    /   O peration     | Website:  https://openfoam.org
    \\  /    A nd           | Version:  7
     \\/     M anipulation  |
\*---------------------------------------------------------------------------*/
FoamFile
{
    version     2.0;
    format      ascii;
    class       volScalarField;
    location    "80";
    object      p;
}
// * * * * * * * * * * * * * * * * * * * * * * * * * * * * * * * * * * * * * //

dimensions      [0 2 -2 0 0 0 0];

internalField   nonuniform List<scalar> 
8500
(
-0.267636
-0.269568
-0.270472
-0.271203
-0.271831
-0.272379
-0.272874
-0.273331
-0.273726
-0.274118
-0.268507
-0.270394
-0.271285
-0.272016
-0.272661
-0.273248
-0.273805
-0.274352
-0.274873
-0.275425
-0.269558
-0.271379
-0.272244
-0.272962
-0.273609
-0.274219
-0.274819
-0.275435
-0.276056
-0.276723
-0.270776
-0.272512
-0.273337
-0.274028
-0.274662
-0.275276
-0.275898
-0.276559
-0.277251
-0.277973
-0.272147
-0.273779
-0.274552
-0.2752
-0.275805
-0.276403
-0.277022
-0.277699
-0.278432
-0.279129
-0.273655
-0.275168
-0.275875
-0.276465
-0.277021
-0.277582
-0.278173
-0.27883
-0.279572
-0.280136
-0.275284
-0.276664
-0.277293
-0.277808
-0.278295
-0.278796
-0.279328
-0.279926
-0.28065
-0.280931
-0.277019
-0.278254
-0.27879
-0.279213
-0.279611
-0.280028
-0.28047
-0.280963
-0.281653
-0.281428
-0.278847
-0.279927
-0.280356
-0.280667
-0.280954
-0.281263
-0.281585
-0.281921
-0.282589
-0.281541
-0.280754
-0.281671
-0.281978
-0.28216
-0.282313
-0.282489
-0.282663
-0.282782
-0.283473
-0.281344
-0.282732
-0.283479
-0.28365
-0.283681
-0.283678
-0.283698
-0.283701
-0.283532
-0.284113
-0.28101
-0.284776
-0.285349
-0.285367
-0.285224
-0.285041
-0.284882
-0.284702
-0.284283
-0.284562
-0.280309
-0.286888
-0.28728
-0.287125
-0.286785
-0.286397
-0.286038
-0.285641
-0.284984
-0.28498
-0.279196
-0.289074
-0.289278
-0.288931
-0.288364
-0.287744
-0.287163
-0.286536
-0.285619
-0.285385
-0.277754
-0.291346
-0.291354
-0.290792
-0.289962
-0.289083
-0.288254
-0.287382
-0.286213
-0.285747
-0.276127
-0.293727
-0.293527
-0.29271
-0.291601
-0.29042
-0.289312
-0.288171
-0.286788
-0.285985
-0.274534
-0.296246
-0.295813
-0.294725
-0.293289
-0.291768
-0.290345
-0.288895
-0.287365
-0.285935
-0.273154
-0.298945
-0.298251
-0.296857
-0.295052
-0.293153
-0.291375
-0.289562
-0.28798
-0.285374
-0.271894
-0.301876
-0.300877
-0.29914
-0.296927
-0.294609
-0.292439
-0.290211
-0.288696
-0.284264
-0.271098
-0.305082
-0.303745
-0.30162
-0.29896
-0.296186
-0.293587
-0.290906
-0.289475
-0.283115
-0.274527
-0.308636
-0.3069
-0.304346
-0.301203
-0.297939
-0.294878
-0.29171
-0.290066
-0.282485
-0.287428
-0.312603
-0.310396
-0.307372
-0.303714
-0.299933
-0.296371
-0.292688
-0.290398
-0.282572
-0.285978
-0.317051
-0.314291
-0.310754
-0.306553
-0.302229
-0.298121
-0.293869
-0.290598
-0.282606
-0.28257
-0.322044
-0.31864
-0.314549
-0.309777
-0.304885
-0.300171
-0.295248
-0.29082
-0.282363
-0.279167
-0.327642
-0.323494
-0.318808
-0.31344
-0.307945
-0.302546
-0.296812
-0.291076
-0.281814
-0.275628
-0.333896
-0.328901
-0.323582
-0.317588
-0.311438
-0.305251
-0.298534
-0.291326
-0.280903
-0.272102
-0.340846
-0.334903
-0.328914
-0.322258
-0.315377
-0.308268
-0.300368
-0.291496
-0.279624
-0.268522
-0.348519
-0.341531
-0.334841
-0.327474
-0.319757
-0.311561
-0.302239
-0.2915
-0.277971
-0.264836
-0.356928
-0.348809
-0.341387
-0.333244
-0.324556
-0.315064
-0.304045
-0.291247
-0.27594
-0.260978
-0.366068
-0.356745
-0.348561
-0.339553
-0.329724
-0.318677
-0.30567
-0.290656
-0.273519
-0.25689
-0.375911
-0.36533
-0.356349
-0.34636
-0.335178
-0.322265
-0.306991
-0.289654
-0.270691
-0.252515
-0.386404
-0.37453
-0.364706
-0.35359
-0.340792
-0.32567
-0.307887
-0.288174
-0.267429
-0.247803
-0.397463
-0.384283
-0.373554
-0.361134
-0.3464
-0.328721
-0.308245
-0.286156
-0.263697
-0.242701
-0.408971
-0.394491
-0.382778
-0.368832
-0.351795
-0.331245
-0.30796
-0.283536
-0.259451
-0.237158
-0.420771
-0.405016
-0.392218
-0.376481
-0.356752
-0.333071
-0.30693
-0.280255
-0.254641
-0.23112
-0.432668
-0.41568
-0.401672
-0.38383
-0.361032
-0.33404
-0.305059
-0.276245
-0.249211
-0.224537
-0.444428
-0.426262
-0.410894
-0.390598
-0.3644
-0.333998
-0.302253
-0.271441
-0.243102
-0.217356
-0.455779
-0.436501
-0.419595
-0.396482
-0.366627
-0.332803
-0.298422
-0.265774
-0.236253
-0.209529
-0.466415
-0.446104
-0.427455
-0.401177
-0.367498
-0.330322
-0.293478
-0.259173
-0.228603
-0.201011
-0.476005
-0.454745
-0.434128
-0.404383
-0.366816
-0.326434
-0.287336
-0.251572
-0.220094
-0.191764
-0.484198
-0.46208
-0.43926
-0.40582
-0.364402
-0.321026
-0.279917
-0.242905
-0.210674
-0.181751
-0.490636
-0.467751
-0.442504
-0.40523
-0.360098
-0.313999
-0.271148
-0.233112
-0.200298
-0.170947
-0.494961
-0.471403
-0.44353
-0.402387
-0.35377
-0.305264
-0.260961
-0.222136
-0.188927
-0.15934
-0.496829
-0.472686
-0.442041
-0.397099
-0.345306
-0.29475
-0.249298
-0.209925
-0.176519
-0.146907
-0.495916
-0.471275
-0.437777
-0.389211
-0.334619
-0.282401
-0.236117
-0.196438
-0.163022
-0.133557
-0.491932
-0.466878
-0.430528
-0.378605
-0.321649
-0.268178
-0.221391
-0.18166
-0.148396
-0.119094
-0.484626
-0.459246
-0.420131
-0.365206
-0.306361
-0.252062
-0.205107
-0.165589
-0.132666
-0.103365
-0.473794
-0.448183
-0.40647
-0.348973
-0.288746
-0.234046
-0.187246
-0.148207
-0.115924
-0.0866311
-0.459286
-0.433552
-0.389481
-0.329904
-0.268819
-0.214139
-0.167813
-0.129523
-0.0981018
-0.0694377
-0.441006
-0.415272
-0.369147
-0.308032
-0.246619
-0.192371
-0.146888
-0.109786
-0.0790766
-0.0516398
-0.418916
-0.393319
-0.345502
-0.28343
-0.222206
-0.168826
-0.124632
-0.088806
-0.0590869
-0.0331294
-0.393036
-0.36773
-0.318635
-0.256206
-0.195666
-0.143648
-0.100983
-0.0666803
-0.0382268
-0.013922
-0.363441
-0.338609
-0.288715
-0.226457
-0.167139
-0.116844
-0.0760388
-0.0435012
-0.0165665
0.00589851
-0.330263
-0.306138
-0.25597
-0.194193
-0.136734
-0.0885545
-0.0499056
-0.0193673
0.00582106
0.0262259
-0.293694
-0.270555
-0.220475
-0.159648
-0.104582
-0.0589159
-0.022707
0.00562055
0.0288595
0.0469757
-0.253966
-0.232094
-0.181873
-0.123463
-0.0709323
-0.0280831
0.00542429
0.0313585
0.0524682
0.0680575
-0.211296
-0.190846
-0.1411
-0.0855291
-0.0359816
0.00377418
0.0343575
0.0577511
0.0765093
0.0891302
-0.16596
-0.146918
-0.0987932
-0.0461078
7.90886e-05
0.0364852
0.0639803
0.084721
0.100709
0.109367
-0.118401
-0.1009
-0.0549993
-0.00548998
0.0370357
0.0698794
0.0941883
0.112172
0.124739
0.128198
-0.0690114
-0.0531634
-0.00993569
0.0360395
0.0746534
0.103772
0.124824
0.139871
0.148507
0.147394
-0.0181322
-0.00414861
0.0360814
0.0781941
0.112688
0.137957
0.155637
0.167411
0.171982
0.171866
0.0338124
0.0457338
0.0826977
0.120679
0.150891
0.172208
0.186361
0.194657
0.196034
0.196486
0.0863813
0.0960773
0.129547
0.163192
0.189006
0.206299
0.216824
0.221681
0.220349
0.219854
0.13913
0.146471
0.176262
0.205427
0.226773
0.239997
0.246853
0.24836
0.244489
0.24229
0.19161
0.196502
0.222477
0.247077
0.263933
0.273084
0.276277
0.274517
0.268115
0.263784
0.243379
0.245758
0.267832
0.287841
0.300227
0.305342
0.304921
0.299973
0.291038
0.284373
0.293998
0.293836
0.311976
0.32742
0.335405
0.336558
0.332601
0.324555
0.313106
0.304017
0.343038
0.34034
0.354568
0.365527
0.369224
0.366526
0.359143
0.348101
0.334192
0.322657
0.390086
0.384892
0.39528
0.401885
0.401447
0.395046
0.384374
0.370463
0.354178
0.340223
0.434747
0.427128
0.433799
0.436231
0.431851
0.421929
0.408132
0.391502
0.372949
0.356639
0.476646
0.466705
0.469832
0.468315
0.460225
0.446994
0.430264
0.411087
0.3904
0.371829
0.515432
0.503305
0.503102
0.497905
0.486372
0.470073
0.450626
0.429097
0.406427
0.385723
0.550784
0.536633
0.53336
0.524787
0.51011
0.491012
0.469089
0.445418
0.420938
0.398254
0.582407
0.566422
0.560375
0.548769
0.531273
0.509669
0.485531
0.459948
0.433846
0.409363
0.61004
0.592435
0.583944
0.569676
0.549715
0.525921
0.499847
0.472597
0.445074
0.418998
0.633456
0.614466
0.60389
0.587361
0.565308
0.539657
0.511945
0.483284
0.454556
0.427113
0.652462
0.632341
0.620064
0.601695
0.577945
0.550787
0.521745
0.491941
0.462235
0.433672
0.666903
0.645919
0.632345
0.612577
0.587538
0.559236
0.529185
0.498515
0.468065
0.438646
0.676662
0.655094
0.640643
0.61993
0.594021
0.564948
0.534217
0.502964
0.472012
0.442011
0.681661
0.659795
0.644896
0.623702
0.597351
0.567886
0.536809
0.50526
0.474053
0.443756
0.681859
0.659988
0.645075
0.623868
0.597505
0.568031
0.536946
0.50539
0.474177
0.443872
0.677259
0.655671
0.64118
0.620428
0.594485
0.565383
0.534627
0.503353
0.472383
0.44236
0.667899
0.646882
0.633242
0.613408
0.588312
0.559962
0.529869
0.499164
0.468684
0.439225
0.653859
0.633693
0.621322
0.602861
0.579031
0.551805
0.522704
0.492851
0.463102
0.434485
0.635258
0.61621
0.605513
0.588864
0.566708
0.540969
0.51318
0.484455
0.455673
0.42816
0.612252
0.594575
0.585935
0.57152
0.551431
0.527528
0.501361
0.474031
0.446442
0.420279
0.585034
0.568963
0.562739
0.550956
0.533308
0.511575
0.487325
0.461648
0.435465
0.410881
0.553831
0.53958
0.536102
0.527324
0.512468
0.493219
0.471166
0.447384
0.422811
0.40001
0.518907
0.506665
0.506228
0.500794
0.489058
0.472586
0.452989
0.431332
0.408556
0.387719
0.480555
0.470486
0.473347
0.471563
0.463243
0.449815
0.432915
0.413594
0.392786
0.374067
0.439099
0.431337
0.437711
0.439844
0.435205
0.425063
0.411076
0.394283
0.375596
0.359121
0.394889
0.389537
0.399595
0.405869
0.405142
0.398497
0.387613
0.373522
0.357086
0.342952
0.3483
0.34543
0.359295
0.369888
0.373267
0.370299
0.362682
0.35144
0.337366
0.325636
0.299728
0.299379
0.317122
0.332164
0.339801
0.340657
0.336444
0.328177
0.316548
0.307248
0.249586
0.251764
0.273405
0.292976
0.304982
0.309772
0.309071
0.303883
0.294751
0.287861
0.198303
0.202978
0.228485
0.25261
0.269052
0.277851
0.280739
0.278717
0.272103
0.267534
0.146315
0.153427
0.182713
0.211365
0.232263
0.245105
0.251629
0.252852
0.248756
0.246307
0.0940679
0.103521
0.136449
0.169541
0.194872
0.211753
0.22192
0.226469
0.224896
0.224149
0.0420062
0.0536722
0.0900576
0.127446
0.157138
0.178013
0.191781
0.199742
0.200861
0.201068
-0.00942562
0.00429075
0.0439055
0.0853845
0.119322
0.144116
0.161385
0.172796
0.177081
0.176748
-0.059788
-0.0442179
-0.00164229
0.0436591
0.0816781
0.11029
0.130904
0.145562
0.153872
0.152573
-0.108658
-0.091444
-0.0462331
0.0025642
0.0444559
0.0767581
0.100603
0.118176
0.130377
0.133594
-0.155704
-0.136948
-0.0895542
-0.037613
0.00789846
0.0437265
0.07073
0.091037
0.106627
0.114976
-0.20052
-0.180368
-0.131396
-0.0765849
-0.0277608
0.0113789
0.0414416
0.0643777
0.0827112
0.0949761
-0.242673
-0.221086
-0.171728
-0.114057
-0.0623118
-0.0201147
0.0128429
0.0382943
0.0589557
0.0741572
-0.281897
-0.259047
-0.209869
-0.149771
-0.0955697
-0.0505826
-0.0149534
0.0128651
0.0356334
0.0533343
-0.317973
-0.294135
-0.244798
-0.183944
-0.12734
-0.0798536
-0.041817
-0.0118146
0.0128823
0.0328459
-0.350669
-0.326128
-0.277051
-0.215785
-0.157354
-0.107772
-0.0676171
-0.0356418
-0.00921664
0.0127831
-0.379799
-0.354788
-0.306522
-0.245098
-0.185482
-0.134201
-0.09223
-0.0585172
-0.0305858
-0.0067697
-0.405235
-0.379933
-0.332948
-0.271892
-0.211612
-0.159025
-0.115549
-0.0803451
-0.0511495
-0.025707
-0.426907
-0.401461
-0.356162
-0.296079
-0.235639
-0.182231
-0.137458
-0.101035
-0.0708338
-0.0439476
-0.444797
-0.419344
-0.376084
-0.317551
-0.257465
-0.203657
-0.158071
-0.120462
-0.0895457
-0.0614811
-0.458949
-0.433608
-0.392685
-0.336235
-0.277025
-0.22322
-0.177179
-0.138803
-0.107098
-0.078421
-0.46946
-0.44434
-0.405984
-0.352099
-0.294284
-0.240896
-0.194717
-0.155874
-0.123579
-0.0948926
-0.476485
-0.45168
-0.416051
-0.365151
-0.309231
-0.256683
-0.210689
-0.171649
-0.139021
-0.110309
-0.48023
-0.455828
-0.423005
-0.375433
-0.321875
-0.270589
-0.22511
-0.186132
-0.153347
-0.124464
-0.480948
-0.457035
-0.427012
-0.383025
-0.332255
-0.282634
-0.237993
-0.199324
-0.166546
-0.137525
-0.478931
-0.455595
-0.428287
-0.388048
-0.340433
-0.292857
-0.249365
-0.211245
-0.178665
-0.149676
-0.474502
-0.451835
-0.427092
-0.39066
-0.346498
-0.301315
-0.259271
-0.221936
-0.189749
-0.160998
-0.468006
-0.446102
-0.423725
-0.391056
-0.350563
-0.308082
-0.267768
-0.231449
-0.199837
-0.171507
-0.459799
-0.43875
-0.418518
-0.389465
-0.352767
-0.313248
-0.274925
-0.23984
-0.208967
-0.181217
-0.450236
-0.430135
-0.411818
-0.386148
-0.35327
-0.316915
-0.280816
-0.247169
-0.217182
-0.190152
-0.439665
-0.420598
-0.403976
-0.381385
-0.352252
-0.319195
-0.285523
-0.253501
-0.224536
-0.198348
-0.428414
-0.410457
-0.395333
-0.375477
-0.349914
-0.320214
-0.289129
-0.258904
-0.231086
-0.20584
-0.416783
-0.400004
-0.386207
-0.36873
-0.346474
-0.320106
-0.291725
-0.263448
-0.236891
-0.212674
-0.40504
-0.389493
-0.37688
-0.361441
-0.342161
-0.319017
-0.293403
-0.267203
-0.242012
-0.218893
-0.393414
-0.379139
-0.367591
-0.353891
-0.337211
-0.317102
-0.294259
-0.270235
-0.246506
-0.224549
-0.382095
-0.369116
-0.358538
-0.346321
-0.331863
-0.314524
-0.294393
-0.272612
-0.250429
-0.229689
-0.371234
-0.359556
-0.349874
-0.338931
-0.326341
-0.311456
-0.293908
-0.274397
-0.253829
-0.234365
-0.360944
-0.350552
-0.34171
-0.331873
-0.320843
-0.308071
-0.292913
-0.275652
-0.25675
-0.238625
-0.351302
-0.342162
-0.334119
-0.325251
-0.315533
-0.304539
-0.291524
-0.276443
-0.259226
-0.242518
-0.342357
-0.334414
-0.32714
-0.319133
-0.310527
-0.301013
-0.28986
-0.276837
-0.261285
-0.246093
-0.334129
-0.327314
-0.320782
-0.313555
-0.3059
-0.29762
-0.288043
-0.27691
-0.262942
-0.249406
-0.326617
-0.320848
-0.31503
-0.308524
-0.301693
-0.294449
-0.286183
-0.276743
-0.264207
-0.252512
-0.319802
-0.314989
-0.309855
-0.304026
-0.29792
-0.291555
-0.284373
-0.276424
-0.265082
-0.255478
-0.313651
-0.309699
-0.305215
-0.300026
-0.294574
-0.288962
-0.282674
-0.276034
-0.26557
-0.258355
-0.308121
-0.304935
-0.301062
-0.296482
-0.291631
-0.286672
-0.281119
-0.275635
-0.265675
-0.261203
-0.30316
-0.300649
-0.297344
-0.293342
-0.289053
-0.28467
-0.279718
-0.275254
-0.265452
-0.263865
-0.298715
-0.296793
-0.294011
-0.290551
-0.28679
-0.28292
-0.278478
-0.274863
-0.264947
-0.266463
-0.294728
-0.293318
-0.29101
-0.288055
-0.284788
-0.281378
-0.277392
-0.274303
-0.264418
-0.267006
-0.291137
-0.290186
-0.288298
-0.285805
-0.282991
-0.279994
-0.27643
-0.273462
-0.264606
-0.25301
-0.287907
-0.287344
-0.285831
-0.283757
-0.281352
-0.278726
-0.275544
-0.272436
-0.265401
-0.249226
-0.284988
-0.284758
-0.283581
-0.281877
-0.279836
-0.277538
-0.274699
-0.271484
-0.266221
-0.249811
-0.28234
-0.2824
-0.281521
-0.28014
-0.278418
-0.276409
-0.273864
-0.27066
-0.266562
-0.250881
-0.279935
-0.28025
-0.279628
-0.278532
-0.277089
-0.275332
-0.273038
-0.269938
-0.266505
-0.252149
-0.277749
-0.278291
-0.277892
-0.277045
-0.275848
-0.274315
-0.272246
-0.269317
-0.26631
-0.253739
-0.275766
-0.276509
-0.276306
-0.275678
-0.2747
-0.273373
-0.271522
-0.268808
-0.26616
-0.255503
-0.273974
-0.274899
-0.274867
-0.274432
-0.273655
-0.272524
-0.270888
-0.268417
-0.266155
-0.257244
-0.272366
-0.273455
-0.273575
-0.273313
-0.272719
-0.271778
-0.270355
-0.268191
-0.266292
-0.258845
-0.270939
-0.272176
-0.272431
-0.272325
-0.271902
-0.271144
-0.26994
-0.268136
-0.26645
-0.260343
-0.26969
-0.271063
-0.271437
-0.271473
-0.271208
-0.270627
-0.269643
-0.26817
-0.266581
-0.261914
-0.268622
-0.270117
-0.270598
-0.27076
-0.270642
-0.27023
-0.26946
-0.268287
-0.266868
-0.263429
-0.267736
-0.269341
-0.269916
-0.270192
-0.270209
-0.269955
-0.269387
-0.268485
-0.267278
-0.264734
-0.267036
-0.268739
-0.269396
-0.269772
-0.269911
-0.269804
-0.269424
-0.268762
-0.267783
-0.265903
-0.266526
-0.268313
-0.269041
-0.269505
-0.269752
-0.26978
-0.269571
-0.269124
-0.268376
-0.267012
-0.266211
-0.268068
-0.268854
-0.269394
-0.269737
-0.269884
-0.269832
-0.269578
-0.269055
-0.26811
-0.266095
-0.268004
-0.268838
-0.269441
-0.269866
-0.270121
-0.270208
-0.270129
-0.269821
-0.269225
-0.26618
-0.268124
-0.268994
-0.269647
-0.270142
-0.270491
-0.270702
-0.270781
-0.270674
-0.270378
-0.266467
-0.268427
-0.269321
-0.270012
-0.270564
-0.270993
-0.271314
-0.271535
-0.271614
-0.27158
-0.266953
-0.26891
-0.269815
-0.270532
-0.271129
-0.271625
-0.272041
-0.272387
-0.272634
-0.272829
-0.27572
-0.274786
-0.276284
-0.275609
-0.275594
-0.274089
-0.272362
-0.270311
-0.269537
-0.271067
-0.274622
-0.276483
-0.268624
-0.249043
-0.219876
-0.19746
-0.190473
-0.204914
-0.207284
-0.186498
-0.157461
-0.113425
-0.0836774
-0.0947872
-0.0955902
-0.0913824
-0.0718683
-0.0620794
-0.00209458
-0.0240082
-0.277407
-0.276721
-0.27866
-0.278346
-0.278502
-0.276742
-0.274056
-0.2701
-0.266361
-0.264035
-0.263454
-0.262066
-0.253173
-0.235697
-0.211569
-0.196662
-0.197501
-0.216881
-0.220011
-0.194373
-0.160451
-0.111264
-0.078312
-0.0878246
-0.0876546
-0.0888398
-0.0711716
-0.0647323
-0.00587992
-0.0257839
-0.279184
-0.278654
-0.281076
-0.28112
-0.281472
-0.279479
-0.275844
-0.269976
-0.26325
-0.25704
-0.252275
-0.247532
-0.237419
-0.221884
-0.202763
-0.195488
-0.204142
-0.228364
-0.232022
-0.201653
-0.162932
-0.108926
-0.0730104
-0.0810165
-0.079722
-0.0861591
-0.0702527
-0.0672401
-0.00973037
-0.0275281
-0.281022
-0.280555
-0.283492
-0.283904
-0.284483
-0.282289
-0.277735
-0.269975
-0.260275
-0.250191
-0.241236
-0.233072
-0.22157
-0.207775
-0.193585
-0.193958
-0.210356
-0.239265
-0.243273
-0.208346
-0.164959
-0.106455
-0.0678019
-0.0743559
-0.0718119
-0.0833172
-0.0691135
-0.0695958
-0.0136549
-0.0292453
-0.282887
-0.28239
-0.28588
-0.286664
-0.287504
-0.285154
-0.27973
-0.270125
-0.257498
-0.243591
-0.230485
-0.218873
-0.205838
-0.19355
-0.184164
-0.19209
-0.216116
-0.249483
-0.253713
-0.214454
-0.166582
-0.103891
-0.0627156
-0.0678256
-0.0639405
-0.0802832
-0.0677573
-0.0717942
-0.0176606
-0.0309392
-0.284742
-0.284122
-0.288192
-0.289366
-0.290502
-0.288048
-0.281821
-0.270447
-0.254974
-0.237334
-0.220156
-0.205114
-0.190435
-0.179396
-0.174625
-0.189896
-0.221371
-0.258938
-0.26331
-0.219979
-0.167847
-0.101275
-0.0577789
-0.0614024
-0.056121
-0.0770193
-0.0661882
-0.0738317
-0.0217521
-0.032612
-0.286548
-0.285717
-0.290383
-0.291959
-0.293434
-0.290936
-0.283991
-0.270947
-0.252747
-0.2315
-0.210372
-0.191957
-0.175559
-0.165487
-0.165088
-0.187383
-0.226068
-0.267562
-0.272035
-0.224924
-0.168795
-0.0986407
-0.0530165
-0.0550613
-0.0483637
-0.0734829
-0.0644107
-0.075706
-0.0259314
-0.0342639
-0.288278
-0.287138
-0.292412
-0.294397
-0.29625
-0.293772
-0.286211
-0.271622
-0.250847
-0.226158
-0.20124
-0.179545
-0.161393
-0.15198
-0.155677
-0.184547
-0.230154
-0.275302
-0.279868
-0.229292
-0.169462
-0.0960241
-0.0484487
-0.0487788
-0.0406741
-0.0696284
-0.0624292
-0.0774154
-0.0301981
-0.0358929
-0.289913
-0.288346
-0.294238
-0.296654
-0.298896
-0.296505
-0.288438
-0.272453
-0.249291
-0.221362
-0.192847
-0.167998
-0.148103
-0.139002
-0.146502
-0.181399
-0.233583
-0.282119
-0.286798
-0.233092
-0.169881
-0.0934574
-0.04409
-0.0425364
-0.0330525
-0.0654104
-0.0602475
-0.0789592
-0.0345486
-0.0374944
-0.291314
-0.289349
-0.295824
-0.298641
-0.301314
-0.299069
-0.29062
-0.273407
-0.248081
-0.217145
-0.185264
-0.157411
-0.135836
-0.126661
-0.137603
-0.177994
-0.236317
-0.287986
-0.292823
-0.236336
-0.170081
-0.0909706
-0.0399499
-0.0363235
-0.0254936
-0.0607869
-0.057869
-0.0803363
-0.0389775
-0.0390616
-0.292345
-0.290256
-0.297047
-0.300372
-0.30345
-0.301402
-0.292699
-0.274438
-0.247206
-0.213528
-0.17854
-0.147854
-0.124705
-0.115494
-0.128672
-0.174337
-0.238323
-0.292888
-0.297946
-0.23904
-0.170088
-0.0885913
-0.0360327
-0.0301391
-0.0179866
-0.055723
-0.0552963
-0.081546
-0.043477
-0.040585
-0.293219
-0.29091
-0.297943
-0.301755
-0.305202
-0.30349
-0.294628
-0.275483
-0.246622
-0.21052
-0.17271
-0.13936
-0.114693
-0.105155
-0.120216
-0.170433
-0.239583
-0.29682
-0.302183
-0.241222
-0.169926
-0.086345
-0.0323402
-0.0239934
-0.0105184
-0.0501939
-0.0525317
-0.082587
-0.0480377
-0.0420532
-0.293924
-0.291311
-0.298527
-0.302775
-0.306545
-0.305209
-0.296276
-0.276556
-0.24627
-0.208121
-0.167783
-0.131932
-0.10602
-0.0956752
-0.112268
-0.166299
-0.240089
-0.299789
-0.305549
-0.242906
-0.16962
-0.084255
-0.0288721
-0.0179071
-0.00307521
-0.0441879
-0.0495777
-0.0834575
-0.0526485
-0.0434531
-0.294428
-0.291495
-0.298775
-0.303404
-0.307454
-0.306524
-0.297633
-0.27753
-0.246185
-0.206309
-0.16374
-0.125629
-0.0977465
-0.0871681
-0.104821
-0.161958
-0.239846
-0.301807
-0.308068
-0.244117
-0.169188
-0.0823352
-0.0256255
-0.0119079
0.00435471
-0.0377085
-0.0464375
-0.084155
-0.0572968
-0.044771
-0.294712
-0.291481
-0.298679
-0.303622
-0.307936
-0.307387
-0.298641
-0.278353
-0.246258
-0.205089
-0.160663
-0.12042
-0.0903132
-0.0797018
-0.0978887
-0.157435
-0.238869
-0.302894
-0.309765
-0.244871
-0.16863
-0.08058
-0.0225908
-0.00602795
0.0117814
-0.0307752
-0.0431159
-0.0846764
-0.0619682
-0.0459926
-0.294744
-0.291276
-0.298242
-0.303415
-0.307989
-0.307756
-0.299251
-0.278982
-0.246452
-0.204361
-0.15845
-0.116373
-0.0845475
-0.073266
-0.0914948
-0.152764
-0.237185
-0.303076
-0.31067
-0.24518
-0.167944
-0.0789842
-0.0197627
-0.000313548
0.019206
-0.0234233
-0.0396198
-0.0850181
-0.0666465
-0.0471046
-0.294424
-0.290865
-0.297478
-0.30278
-0.307512
-0.307611
-0.299432
-0.279371
-0.246713
-0.204053
-0.157025
-0.113426
-0.0801864
-0.0678483
-0.0856611
-0.147983
-0.234838
-0.302398
-0.310819
-0.245103
-0.167222
-0.0776367
-0.0171852
0.00514595
0.0265947
-0.0157044
-0.035959
-0.0851758
-0.0713117
-0.0480943
-0.293622
-0.290226
-0.296406
-0.301713
-0.306538
-0.306961
-0.299195
-0.279551
-0.247091
-0.204238
-0.156458
-0.111607
-0.0770142
-0.0634836
-0.080397
-0.14311
-0.231835
-0.300854
-0.310205
-0.24479
-0.166702
-0.0767489
-0.0149641
0.0102385
0.0338711
-0.00769101
-0.032147
-0.0851449
-0.0759341
-0.0489489
-0.29271
-0.289207
-0.294929
-0.300099
-0.304911
-0.305707
-0.298508
-0.279588
-0.247749
-0.205149
-0.156991
-0.111133
-0.0751806
-0.0602217
-0.0757396
-0.138086
-0.228022
-0.298259
-0.308786
-0.244226
-0.166261
-0.0761508
-0.0130083
0.015047
0.0410731
0.00053702
-0.0282038
-0.0849209
-0.0804782
-0.0496569
-0.290117
-0.287314
-0.293003
-0.298012
-0.302737
-0.303679
-0.296971
-0.278733
-0.247549
-0.205346
-0.157113
-0.110718
-0.0740425
-0.0576527
-0.0720109
-0.133558
-0.224189
-0.295409
-0.306841
-0.242512
-0.164343
-0.0743359
-0.0105251
0.0201363
0.0486524
0.00901631
-0.0241439
-0.0845044
-0.0849945
-0.0502261
-0.277927
-0.284425
-0.291302
-0.296211
-0.300894
-0.301882
-0.294788
-0.276165
-0.244598
-0.202071
-0.153581
-0.106914
-0.0699758
-0.0539056
-0.0681082
-0.130427
-0.223013
-0.295054
-0.304943
-0.23875
-0.159561
-0.0699737
-0.00643757
0.0269234
0.0589843
0.0201509
-0.0187707
-0.0838673
-0.0907681
-0.0508029
-0.272657
-0.280971
-0.287727
-0.292116
-0.296028
-0.296169
-0.288502
-0.269595
-0.238251
-0.196451
-0.14901
-0.103535
-0.0679966
-0.0531915
-0.0678365
-0.129792
-0.221229
-0.290689
-0.298301
-0.231437
-0.15265
-0.0648498
-0.00193368
0.0344483
0.0704994
0.031662
-0.012941
-0.0827958
-0.0970805
-0.0510668
-0.268357
-0.27623
-0.282297
-0.286238
-0.289464
-0.288899
-0.280648
-0.261702
-0.231028
-0.190539
-0.144797
-0.101164
-0.0674729
-0.054368
-0.0699247
-0.130964
-0.219376
-0.284747
-0.289524
-0.222886
-0.145265
-0.0596909
0.00242156
0.0415514
0.0819111
0.042625
-0.00752913
-0.0814765
-0.102958
-0.0509958
-0.263172
-0.269773
-0.27485
-0.278537
-0.281254
-0.280129
-0.271614
-0.253029
-0.223513
-0.184885
-0.141384
-0.100053
-0.0684966
-0.0570999
-0.0731812
-0.132348
-0.216623
-0.276759
-0.27886
-0.213187
-0.137376
-0.0544613
0.0065441
0.0480817
0.0930173
0.0533723
-0.00239348
-0.0798319
-0.108234
-0.0505986
-0.255835
-0.261643
-0.265693
-0.269186
-0.271544
-0.270041
-0.261547
-0.243708
-0.215808
-0.179549
-0.138795
-0.100196
-0.0710391
-0.0612563
-0.0773546
-0.133532
-0.212537
-0.266738
-0.266284
-0.202423
-0.129108
-0.0492272
0.010357
0.0538859
0.103405
0.06353
0.00233886
-0.0778189
-0.112587
-0.0498585
-0.246248
-0.252102
-0.255309
-0.258569
-0.260688
-0.258988
-0.25075
-0.233976
-0.208048
-0.17455
-0.136942
-0.101401
-0.0747811
-0.0665101
-0.08218
-0.134311
-0.206918
-0.25473
-0.251964
-0.190783
-0.120606
-0.0440647
0.0138001
0.0588242
0.112632
0.0725477
0.00641611
-0.0754343
-0.115682
-0.048769
-0.235055
-0.241472
-0.244162
-0.247149
-0.249111
-0.247377
-0.239577
-0.2241
-0.200371
-0.169882
-0.13567
-0.103372
-0.0793433
-0.0723943
-0.087224
-0.134397
-0.199677
-0.240933
-0.236246
-0.178518
-0.112026
-0.0390642
0.0168281
0.0627759
0.120256
0.0799403
0.0096084
-0.0726961
-0.117222
-0.0473312
-0.222836
-0.230063
-0.232606
-0.235335
-0.237192
-0.235576
-0.228371
-0.21429
-0.192873
-0.165491
-0.134765
-0.105868
-0.0843043
-0.0784174
-0.0920286
-0.133559
-0.190921
-0.225752
-0.219618
-0.165927
-0.103529
-0.0343239
0.0194126
0.0656438
0.125871
0.0853291
0.0117724
-0.0696197
-0.116936
-0.0455475
-0.210081
-0.218164
-0.220878
-0.223426
-0.225219
-0.223838
-0.217334
-0.204699
-0.185604
-0.161294
-0.133998
-0.108374
-0.0892588
-0.0841497
-0.0962384
-0.131762
-0.181005
-0.209782
-0.202658
-0.15333
-0.0952583
-0.0299407
0.0215428
0.0673633
0.128885
0.0884803
0.0128965
-0.066174
-0.114628
-0.0434222
-0.197201
-0.206021
-0.209124
-0.211611
-0.213384
-0.212318
-0.206594
-0.195429
-0.178579
-0.157206
-0.133198
-0.11069
-0.0938701
-0.0892782
-0.0996457
-0.129178
-0.17044
-0.193686
-0.18594
-0.141031
-0.0873372
-0.0259978
0.0232212
0.0679278
0.129639
0.0893909
0.0131591
-0.062235
-0.110116
-0.0409597
-0.184461
-0.193826
-0.197441
-0.199996
-0.201806
-0.201108
-0.196219
-0.186499
-0.171792
-0.153166
-0.132246
-0.112622
-0.0978996
-0.0936173
-0.10219
-0.126077
-0.159685
-0.178068
-0.169944
-0.129283
-0.0798557
-0.0225527
0.0244554
0.0673998
0.12798
0.0883539
0.012967
-0.0575782
-0.103326
-0.0381688
-0.17202
-0.181736
-0.1859
-0.188642
-0.190555
-0.190259
-0.186228
-0.17791
-0.165218
-0.149131
-0.131057
-0.114049
-0.101212
-0.097101
-0.103908
-0.122703
-0.149454
-0.163394
-0.154999
-0.118265
-0.072874
-0.0196296
0.0252484
0.0659369
0.124162
0.085966
0.0129033
-0.0519462
-0.0943812
-0.035073
-0.159992
-0.169882
-0.174573
-0.177588
-0.179671
-0.179797
-0.176621
-0.169649
-0.158838
-0.145074
-0.129583
-0.114919
-0.103758
-0.0997389
-0.104872
-0.119213
-0.139907
-0.149938
-0.141284
-0.108085
-0.0664284
-0.0172193
0.0255954
0.0637771
0.118584
0.0829812
0.0135506
-0.0452012
-0.0836741
-0.0317213
-0.148459
-0.158371
-0.163527
-0.166868
-0.169181
-0.169739
-0.167395
-0.161698
-0.152631
-0.140974
-0.127807
-0.115227
-0.105542
-0.101576
-0.105171
-0.115708
-0.131178
-0.137791
-0.12885
-0.0987865
-0.0605402
-0.0152856
0.0254893
0.0611682
0.111684
0.0800411
0.0152534
-0.0374783
-0.071865
-0.0281945
-0.137477
-0.14729
-0.152832
-0.156517
-0.159105
-0.160097
-0.158547
-0.154045
-0.146581
-0.136824
-0.125732
-0.114996
-0.106597
-0.102674
-0.10489
-0.112229
-0.12326
-0.126924
-0.117672
-0.0903722
-0.0552212
-0.0137761
0.024931
0.0582706
0.103876
0.0774062
0.0179113
-0.0292227
-0.0597646
-0.0246003
-0.127088
-0.136707
-0.142551
-0.146573
-0.14946
-0.150883
-0.150079
-0.146681
-0.140678
-0.132628
-0.123374
-0.11426
-0.106977
-0.103102
-0.104106
-0.108787
-0.116097
-0.117255
-0.107687
-0.0828164
-0.0504755
-0.0126347
0.0239385
0.0551151
0.0955188
0.0748575
0.0210282
-0.0210579
-0.0481418
-0.0210563
-0.117326
-0.126678
-0.132741
-0.137071
-0.140266
-0.142108
-0.141994
-0.139603
-0.134921
-0.128393
-0.120757
-0.113064
-0.106744
-0.102932
-0.102891
-0.105393
-0.109621
-0.10868
-0.0988153
-0.076078
-0.0462982
-0.0118132
0.022548
0.0516545
0.0869116
0.0719576
0.0239931
-0.0135557
-0.03756
-0.0176671
-0.108208
-0.117244
-0.12345
-0.128049
-0.131541
-0.133782
-0.1343
-0.132817
-0.129315
-0.124136
-0.117917
-0.111464
-0.105972
-0.102239
-0.101315
-0.102055
-0.103764
-0.101095
-0.0909731
-0.0701083
-0.0426744
-0.0112745
0.0208095
0.047855
0.0783035
0.0683805
0.0263581
-0.00707398
-0.0283454
-0.0145105
-0.0997476
-0.108433
-0.114716
-0.119539
-0.123307
-0.125919
-0.127007
-0.126332
-0.123874
-0.119883
-0.114894
-0.10952
-0.10474
-0.101102
-0.0994507
-0.098776
-0.098461
-0.0943983
-0.0840791
-0.0648548
-0.0395781
-0.0109861
0.0187802
0.0437586
0.0699056
0.0640532
0.027917
-0.00173725
-0.0205827
-0.0116378
-0.091949
-0.100265
-0.106569
-0.11157
-0.115582
-0.118531
-0.120126
-0.120164
-0.118618
-0.115664
-0.111739
-0.107298
-0.103131
-0.0996033
-0.09737
-0.0955757
-0.093659
-0.0885013
-0.0780543
-0.0602644
-0.0369736
-0.010917
0.0165274
0.0394778
0.0618912
0.0591385
0.0286745
0.00250516
-0.0141981
-0.00907921
-0.084812
-0.092755
-0.099033
-0.104168
-0.108389
-0.111636
-0.113675
-0.114333
-0.113575
-0.111519
-0.108506
-0.104871
-0.101231
-0.0978272
-0.0951436
-0.0924791
-0.0893187
-0.0833237
-0.072823
-0.0562843
-0.0348184
-0.0110365
0.0141271
0.035151
0.0543933
0.0538991
0.0287401
0.00578075
-0.00904503
-0.00684726
-0.0783344
-0.0859099
-0.0921276
-0.0973548
-0.101749
-0.105252
-0.107674
-0.108864
-0.108781
-0.107493
-0.105257
-0.102314
-0.0991284
-0.0958581
-0.0928396
-0.0895147
-0.0854103
-0.0787961
-0.0683135
-0.0528635
-0.0330661
-0.0113121
0.0116621
0.0309063
0.0475061
0.048597
0.0282528
0.00823716
-0.00495609
-0.00494063
-0.0725125
-0.0797357
-0.0858679
-0.0911523
-0.0956832
-0.0994012
-0.102146
-0.103787
-0.104273
-0.103637
-0.102057
-0.0997032
-0.0969108
-0.0937797
-0.0905252
-0.0867134
-0.0819128
-0.0748595
-0.0644587
-0.0499533
-0.0316682
-0.0117101
0.00921726
0.0268504
0.0412938
0.0434537
0.0273545
0.0100166
-0.00176832
-0.00334744
-0.0673446
-0.0742382
-0.0802691
-0.0855817
-0.0902162
-0.0941095
-0.0971225
-0.0991391
-0.100099
-0.100007
-0.0989764
-0.0971197
-0.0946657
-0.091676
-0.088267
-0.0841083
-0.0788126
-0.0714651
-0.0611971
-0.0475083
-0.0305756
-0.0121944
0.00687387
0.0230706
0.0357942
0.0386428
0.0261796
0.0112488
0.00066928
-0.00204704
-0.0628316
-0.0694249
-0.0753474
-0.0806659
-0.0853753
-0.0894073
-0.0926369
-0.0949604
-0.0963078
-0.0966644
-0.096087
-0.0946449
-0.0924803
-0.0896272
-0.0861299
-0.0817352
-0.0761034
-0.0685746
-0.0584747
-0.0454864
-0.0297409
-0.0127272
0.00470311
0.0196402
0.0310235
0.034295
0.0248536
0.0120505
0.00249322
-0.00101245