/*--------------------------------*- C++ -*----------------------------------*\
  =========                 |
  \\      /  F ield         | OpenFOAM: The Open Source CFD Toolbox
   \\    /   O peration     | Website:  https://openfoam.org
    \\  /    A nd           | Version:  7
     \\/     M anipulation  |
\*---------------------------------------------------------------------------*/
FoamFile
{
    version     2.0;
    format      ascii;
    class       volVectorField;
    location    "80";
    object      U;
}
// * * * * * * * * * * * * * * * * * * * * * * * * * * * * * * * * * * * * * //

dimensions      [0 1 -1 0 0 0 0];

internalField   nonuniform List<vector> 
8500
(
(-0.00128132 0.00598062 7.01565e-22)
(-0.00681028 0.0130198 -2.01393e-21)
(-0.0170165 0.0167136 -2.34836e-21)
(-0.029023 0.0180556 2.33411e-21)
(-0.0417485 0.01791 -2.14756e-21)
(-0.0543357 0.016956 -1.14497e-21)
(-0.0662206 0.0156433 1.95566e-21)
(-0.077226 0.0142081 2.42649e-21)
(-0.0874205 0.0127229 -3.99259e-22)
(-0.0971321 0.0111256 1.1716e-21)
(-0.00160047 0.00799541 -7.74777e-22)
(-0.00742962 0.0176797 2.39417e-21)
(-0.0176576 0.0229451 -5.63307e-21)
(-0.0295297 0.0250412 5.10783e-21)
(-0.0420199 0.0250355 2.24559e-22)
(-0.0543045 0.0238121 3.74259e-21)
(-0.0658338 0.0220225 -6.50599e-21)
(-0.0764331 0.0201018 -9.52367e-21)
(-0.0861746 0.0183049 -1.86819e-21)
(-0.0953694 0.0167315 4.23592e-21)
(-0.0020602 0.00992271 7.17175e-22)
(-0.00834158 0.0221635 5.27444e-21)
(-0.018619 0.0289675 1.24131e-20)
(-0.0302946 0.0318134 -1.1229e-20)
(-0.0424099 0.0319547 -2.53972e-21)
(-0.0541822 0.0304685 -2.30652e-21)
(-0.0650747 0.0282016 1.17921e-20)
(-0.0749116 0.0257894 7.32264e-21)
(-0.0837638 0.0236816 1.77977e-21)
(-0.0918711 0.0221619 -1.31382e-20)
(-0.00264976 0.0117338 2.54477e-21)
(-0.00952606 0.0264075 -3.09357e-21)
(-0.0198788 0.0346971 -2.31754e-20)
(-0.0312964 0.0382764 2.04382e-21)
(-0.0428987 0.038564 6.35171e-21)
(-0.0539495 0.0368135 -4.94867e-21)
(-0.0639234 0.034056 -2.34432e-22)
(-0.0726367 0.0311268 -2.01535e-21)
(-0.0801561 0.0286899 4.55898e-21)
(-0.0865621 0.0272443 1.31621e-20)
(-0.00335572 0.0134033 1.77501e-21)
(-0.0109576 0.0303529 -9.9848e-21)
(-0.0214093 0.0400547 2.39748e-20)
(-0.0325081 0.0443392 -1.09151e-20)
(-0.0434608 0.0447647 -4.25783e-23)
(-0.0535826 0.0427404 1.5082e-20)
(-0.0623557 0.0394659 -6.91795e-21)
(-0.069579 0.035973 7.82188e-22)
(-0.0753186 0.0331629 -2.84357e-21)
(-0.0793499 0.0317901 1.0654e-21)
(-0.00416251 0.0149097 2.11985e-20)
(-0.0126062 0.0339482 2.56919e-20)
(-0.0231765 0.0449684 -6.5604e-21)
(-0.0338956 0.0499169 1.25235e-20)
(-0.0440625 0.0504645 3.95029e-21)
(-0.0530481 0.0481501 -5.61514e-21)
(-0.0603376 0.0443205 -2.17013e-21)
(-0.0656965 0.0401942 -9.48539e-21)
(-0.0692115 0.0369333 2.05607e-21)
(-0.070117 0.0355923 -1.22857e-20)
(-0.00505307 0.0162367 -2.04335e-20)
(-0.0144374 0.0371496 -1.33932e-20)
(-0.0251406 0.0493743 1.09383e-20)
(-0.0354162 0.0549328 -1.89335e-20)
(-0.0446587 0.0555792 2.1762e-21)
(-0.0522979 0.0529541 2.22143e-20)
(-0.0578162 0.0485228 -4.00672e-21)
(-0.0609218 0.0436721 2.62698e-20)
(-0.0617774 0.0398413 -5.0868e-22)
(-0.058708 0.0384334 -1.07667e-20)
(-0.00600962 0.0173728 1.71694e-20)
(-0.0164138 0.0399223 -3.10082e-20)
(-0.0272549 0.0532176 -1.233e-20)
(-0.0370163 0.0593182 1.4433e-20)
(-0.0451877 0.0600344 5.03632e-22)
(-0.0512596 0.0570768 -4.17198e-20)
(-0.0547062 0.0519946 -2.50045e-21)
(-0.0551416 0.0463137 -2.0757e-20)
(-0.0529163 0.0417489 -2.68317e-20)
(-0.0449188 0.0401383 1.59024e-20)
(-0.00701435 0.0183118 -9.59679e-21)
(-0.0184951 0.0422405 4.61939e-21)
(-0.0294655 0.0564527 1.13892e-20)
(-0.0386287 0.0630138 -1.0218e-20)
(-0.0455657 0.0637653 -3.58085e-20)
(-0.0498275 0.0604567 1.23247e-20)
(-0.0508746 0.0546811 1.77838e-21)
(-0.0481675 0.0480576 3.12571e-20)
(-0.0424151 0.0425298 4.12605e-20)
(-0.0284905 0.0406937 -1.86701e-20)
(-0.00805013 0.0190523 1.51421e-20)
(-0.0206391 0.044087 1.37803e-20)
(-0.0317109 0.0590428 -1.97409e-21)
(-0.0401702 0.0659682 5.08328e-20)
(-0.0456807 0.0667165 2.16064e-20)
(-0.0478504 0.0630476 1.62332e-20)
(-0.0461242 0.0565557 2.30966e-20)
(-0.0397244 0.0488897 -1.01454e-20)
(-0.0298029 0.042019 -1.37977e-20)
(-0.00897792 0.0401518 -2.29261e-20)
(-0.0091011 0.0195978 -1.39361e-21)
(-0.0228022 0.0454526 -2.1773e-20)
(-0.033921 0.0609597 -1.56805e-20)
(-0.0415381 0.0681376 -2.51296e-20)
(-0.0453861 0.0688403 -1.99158e-20)
(-0.0451188 0.0648157 2.0116e-20)
(-0.0401695 0.057621 -1.93517e-20)
(-0.0294952 0.0488957 -1.3412e-20)
(-0.0144405 0.0402696 1.76195e-21)
(0.0146106 0.0383242 5.97373e-21)
(-0.0101532 0.0199551 -4.17704e-20)
(-0.0249395 0.0463353 1.99356e-20)
(-0.0360165 0.0621821 1.4532e-20)
(-0.0426078 0.069484 9.73457e-21)
(-0.0444947 0.0700937 -1.77505e-20)
(-0.0413535 0.065734 -1.50224e-20)
(-0.0325753 0.0578934 2.17864e-20)
(-0.0169307 0.0481755 -1.78206e-20)
(0.00426316 0.0375904 -1.01057e-21)
(0.043597 0.0352217 -1.88671e-20)
(-0.0111944 0.0201346 3.50106e-20)
(-0.0270046 0.0467389 1.42302e-20)
(-0.0379069 0.0626957 8.32766e-22)
(-0.0432293 0.0699748 -1.77417e-20)
(-0.0427746 0.0704373 1.24646e-21)
(-0.0362113 0.065778 1.97999e-20)
(-0.0228243 0.05741 -5.64574e-21)
(-0.00120108 0.0468248 -6.92568e-21)
(0.0272742 0.0342558 -1.57592e-20)
(0.0793754 0.0314611 2.87281e-20)
(-0.0122149 0.0201489 2.37178e-20)
(-0.0289489 0.046672 -3.84213e-20)
(-0.0394887 0.0624917 -2.9636e-20)
(-0.0432235 0.069584 1.28087e-20)
(-0.0399405 0.0698366 2.61612e-20)
(-0.0292556 0.0649293 2.22697e-20)
(-0.010291 0.0562216 -2.37445e-20)
(0.0186197 0.0450323 4.61882e-20)
(0.0559744 0.030513 -1.39713e-20)
(0.123571 0.0280441 -3.38393e-20)
(-0.0132063 0.0200116 -3.56013e-20)
(-0.0307195 0.0461459 2.14321e-20)
(-0.0406401 0.0615664 -1.02985e-20)
(-0.0423787 0.0682977 1.08301e-21)
(-0.0356509 0.0682646 1.10307e-20)
(-0.0199625 0.0631669 -3.51202e-20)
(0.00580277 0.0543543 3.13007e-20)
(0.0435778 0.0430011 -3.05239e-20)
(0.0920311 0.0267025 4.93412e-20)
(0.177763 0.0262163 1.79772e-20)
(-0.0141619 0.0197365 7.56524e-21)
(-0.0322568 0.0451731 4.17051e-20)
(-0.0412201 0.0599336 -1.05074e-20)
(-0.0404372 0.0661125 1.06266e-20)
(-0.0295001 0.0657103 1.24102e-20)
(-0.00771882 0.0604869 -3.7348e-21)
(0.0263578 0.0518511 2.68685e-20)
(0.074818 0.0408889 1.32429e-21)
(0.137342 0.0232638 -3.17014e-20)
(0.242877 0.0272343 4.29231e-20)
(-0.015075 0.019337 -2.02089e-20)
(-0.0334892 0.0437756 -3.95321e-20)
(-0.0410589 0.0576132 3.42953e-20)
(-0.0370945 0.0630427 1.72161e-20)
(-0.021003 0.0621979 -7.98909e-20)
(0.00818919 0.0569272 6.52478e-20)
(0.0523859 0.0488018 -5.91232e-20)
(0.113523 0.0388189 9.04534e-22)
(0.193869 0.0208772 -1.35043e-20)
(0.318341 0.032112 -3.97743e-20)
(-0.0159346 0.0188244 1.75224e-20)
(-0.0343323 0.041973 -2.38665e-21)
(-0.0399469 0.0546312 -8.42256e-21)
(-0.0319848 0.0591413 -9.71526e-22)
(-0.00958822 0.0578035 -4.9963e-21)
(0.0285839 0.0525982 -2.07977e-20)
(0.0849991 0.0453859 8.91132e-21)
(0.160909 0.0369049 -1.40534e-20)
(0.263297 0.0207747 4.23e-21)
(0.4012 0.0416462 1.23076e-21)
(-0.0167197 0.0182009 -3.57833e-20)
(-0.0346776 0.0397838 -2.59645e-21)
(-0.0376343 0.051037 3.91763e-21)
(-0.0246724 0.054498 1.60015e-21)
(0.00540993 0.0526703 2.61922e-20)
(0.054392 0.0477117 -7.64697e-20)
(0.125361 0.0419033 5.16869e-20)
(0.218311 0.035299 -3.88401e-20)
(0.346603 0.0248312 3.28577e-20)
(0.486557 0.0556042 3.62881e-20)
(-0.0173994 0.0174704 -4.36343e-21)
(-0.0343822 0.0372271 1.99166e-20)
(-0.0338215 0.0468951 -2.4986e-20)
(-0.0146497 0.0492442 -7.82412e-21)
(0.0247433 0.04702 1.50944e-20)
(0.0866056 0.0425992 7.27307e-20)
(0.174535 0.0387754 -1.46472e-20)
(0.287014 0.0343989 7.12822e-21)
(0.443172 0.034639 -3.80181e-20)
(0.572025 0.0683141 1.7633e-20)
(-0.0179361 0.0166298 -1.31115e-20)
(-0.0332713 0.0343164 -1.01967e-20)
(-0.0281534 0.0422867 2.52418e-21)
(-0.00134187 0.043556 9.86094e-21)
(0.0492233 0.0411567 -2.92173e-20)
(0.126207 0.037721 -1.18347e-20)
(0.233278 0.0365525 -3.72923e-20)
(0.367454 0.0351954 3.85722e-20)
(0.548118 0.0488982 4.0804e-20)
(0.663459 0.0678511 -1.71954e-20)
(-0.0182716 0.0156661 -6.27508e-21)
(-0.0311369 0.0310689 2.54729e-20)
(-0.0202265 0.0373107 -2.8454e-20)
(0.0158761 0.037652 -3.32912e-21)
(0.0796747 0.0354609 -1.34191e-20)
(0.174063 0.0336581 2.92488e-20)
(0.301948 0.0359405 3.77985e-20)
(0.458546 0.0391277 -3.63291e-20)
(0.651742 0.0609258 3.87981e-20)
(0.789008 0.0653582 5.49335e-21)
(-0.0183298 0.0145637 -1.81951e-20)
(-0.0277343 0.0275042 -5.1567e-20)
(-0.00959776 0.0320829 5.03075e-20)
(0.0376506 0.0317901 7.23237e-21)
(0.116867 0.0303739 1.05716e-20)
(0.230777 0.031065 6.40837e-21)
(0.380317 0.0377039 2.8887e-20)
(0.557418 0.0469413 2.13407e-20)
(0.756249 0.0730558 -7.54415e-20)
(0.906873 0.0791748 -3.75782e-20)
(-0.0180173 0.0133067 -6.21863e-20)
(-0.0227872 0.0236488 1.24939e-20)
(0.00420059 0.0267398 -2.85034e-20)
(0.0646101 0.026263 5.53117e-21)
(0.161427 0.0263789 8.86461e-21)
(0.296504 0.0306051 -6.3785e-20)
(0.467268 0.04253 2.8193e-20)
(0.660258 0.0584957 -1.91502e-20)
(0.858326 0.0874387 2.00428e-20)
(1.007 0.0968309 -7.15227e-21)
(-0.0172246 0.0118824 2.25447e-20)
(-0.0159946 0.0195432 2.43933e-20)
(0.0216405 0.0214438 -1.42938e-21)
(0.0973166 0.0213979 -7.788e-21)
(0.213736 0.023983 2.76354e-22)
(0.370787 0.0328814 6.0406e-22)
(0.560597 0.0508392 -4.29e-20)
(0.762864 0.0731943 5.48694e-21)
(0.952911 0.103695 5.38832e-20)
(1.09104 0.115023 2.47996e-20)
(-0.0158291 0.010286 -1.53088e-20)
(-0.00704155 0.0152513 -1.12877e-20)
(0.0431739 0.0163912 4.86536e-20)
(0.136212 0.017558 1.24274e-21)
(0.273825 0.0236975 -2.03844e-20)
(0.45244 0.0383589 5.469e-20)
(0.657174 0.0626576 1.20723e-20)
(0.861001 0.0902341 7.86386e-22)
(1.03668 0.120902 -2.35344e-20)
(1.15779 0.132642 -3.11979e-20)
(-0.013699 0.00852538 3.21859e-20)
(0.00438901 0.0108684 -8.90243e-21)
(0.0692055 0.0118198 -5.32547e-21)
(0.181561 0.0151427 -2.02338e-20)
(0.341279 0.0260085 3.31108e-20)
(0.539533 0.0472866 -1.61714e-20)
(0.753394 0.0776092 -1.8293e-20)
(0.951146 0.10874 -4.25941e-21)
(1.10772 0.138217 -1.35965e-20)
(1.20899 0.148934 1.51211e-20)
(-0.0106973 0.00662447 -1.18278e-20)
(0.0186023 0.00652893 -7.05424e-20)
(0.100062 0.00801534 7.31309e-21)
(0.233392 0.0145809 2.52645e-20)
(0.415171 0.0313295 1.80421e-20)
(0.629524 0.0596409 -6.02298e-20)
(0.845758 0.0950391 3.87629e-20)
(1.03092 0.1279 -1.76893e-20)
(1.16574 0.155017 2.69968e-20)
(1.24678 0.16377 7.55084e-21)
(-0.00668665 0.00462649 -1.3058e-20)
(0.0358758 0.00241144 2.49999e-20)
(0.135961 0.00531163 3.2712e-20)
(0.291445 0.0163128 -2.33795e-20)
(0.494055 0.0399407 8.70196e-21)
(0.719564 0.0751288 -5.3103e-20)
(0.931385 0.114193 -9.81967e-21)
(1.09918 0.147073 8.45204e-21)
(1.2115 0.170956 -2.05513e-20)
(1.27357 0.177205 -2.11284e-20)
(-0.00153475 0.0025953 -1.69643e-20)
(0.0564418 -0.00126022 -5.80114e-21)
(0.176972 0.00408469 -5.94405e-20)
(0.355122 0.0207555 -9.32085e-21)
(0.576044 0.0519344 -9.81384e-22)
(0.80687 0.0932587 3.16586e-21)
(1.00829 0.134367 5.43116e-21)
(1.15582 0.165819 -2.66201e-20)
(1.24636 0.185901 4.77638e-22)
(1.29167 0.189451 1.45564e-20)
(0.00488078 0.000615403 -4.46961e-21)
(0.0804683 -0.0042194 2.06655e-20)
(0.222986 0.00473813 2.90984e-20)
(0.423477 0.0282571 1.81945e-20)
(0.658989 0.0671982 -5.3497e-21)
(0.889065 0.11345 -4.49101e-21)
(1.0754 0.154988 4.45254e-20)
(1.20148 0.183888 6.08122e-21)
(1.27195 0.199873 2.02159e-20)
(1.30305 0.200756 -8.80411e-21)
(0.0126656 -0.00120822 4.27524e-20)
(0.10804 -0.00616289 2.75065e-20)
(0.273687 0.00768022 -2.78873e-20)
(0.495242 0.0390491 -5.54803e-21)
(0.740705 0.0854443 2.93659e-21)
(0.964379 0.135131 -1.06323e-20)
(1.13245 0.175639 -2.29524e-20)
(1.23722 0.201173 -3.76648e-21)
(1.2899 0.212981 2.8246e-22)
(1.30935 0.21137 9.51508e-21)
(0.0219017 -0.0027525 5.40746e-21)
(0.139141 -0.0067618 -1.50575e-20)
(0.328537 0.0132936 3.56638e-20)
(0.568911 0.0532157 2.31771e-20)
(0.8192 0.106273 7.74007e-22)
(1.03169 0.1578 1.64303e-20)
(1.17974 0.196044 2.39211e-21)
(1.26431 0.217674 -1.74787e-20)
(1.30168 0.225381 1.4863e-20)
(1.31184 0.221513 -4.2969e-23)
(0.0326417 -0.00387925 -3.55286e-20)
(0.173638 -0.00567507 -1.04395e-20)
(0.386778 0.021902 -9.37712e-21)
(0.642857 0.0706891 -1.63228e-20)
(0.89283 0.129242 3.90664e-21)
(1.09047 0.181053 9.10524e-23)
(1.21794 0.216045 1.27543e-20)
(1.28401 0.233455 -2.05141e-21)
(1.30857 0.23724 -1.52945e-20)
(1.31148 0.231367 -1.43183e-20)
(0.0449019 -0.0044388 2.90895e-21)
(0.211271 -0.00256618 1.69928e-20)
(0.447461 0.0337398 8.2504e-21)
(0.715473 0.0912727 -2.56554e-20)
(0.960376 0.153914 -1.25907e-21)
(1.14066 0.20458 -1.10648e-20)
(1.24792 0.235566 2.83299e-22)
(1.29754 0.248615 5.17844e-21)
(1.3116 0.248713 -5.76164e-21)
(1.30895 0.241065 1.60855e-20)
(0.0586569 -0.00427482 6.89502e-21)
(0.251653 0.00287809 -1.67132e-20)
(0.509494 0.0489311 -3.93692e-20)
(0.785286 0.114677 3.62072e-20)
(1.02104 0.179889 -2.69714e-21)
(1.18251 0.228154 7.97358e-21)
(1.27062 0.254593 -1.10942e-21)
(1.30596 0.263265 7.68055e-21)
(1.31157 0.259934 -5.7961e-22)
(1.30473 0.250701 -1.2461e-20)
(0.0738351 -0.00322998 -1.40974e-20)
(0.29427 0.0109282 2.18518e-20)
(0.57171 0.0674833 1.79417e-20)
(0.851045 0.14056 -2.59206e-20)
(1.07439 0.206815 -4.32053e-21)
(1.21652 0.251615 1.63259e-21)
(1.28696 0.273143 1.64388e-20)
(1.31014 0.27751 8.19824e-22)
(1.30911 0.271004 3.16669e-21)
(1.29916 0.260327 -6.8334e-21)
(0.0903171 -0.00115226 1.06997e-20)
(0.338501 0.0217939 -9.5822e-21)
(0.632934 0.0892926 -8.18831e-21)
(0.911757 0.16855 1.39773e-20)
(1.12029 0.234389 4.80717e-21)
(1.24327 0.274849 3.6365e-21)
(1.29779 0.291253 -1.67573e-20)
(1.31082 0.291441 -5.70275e-21)
(1.30466 0.281993 -5.08315e-21)
(1.29243 0.269964 2.25184e-21)
(0.107936 0.00209816 -5.3919e-21)
(0.38364 0.0356093 -1.20729e-22)
(0.692049 0.114159 1.55093e-20)
(0.966692 0.198276 -5.65867e-21)
(1.15883 0.262348 -2.51605e-21)
(1.26341 0.297776 -1.64953e-21)
(1.30386 0.308957 4.05554e-21)
(1.30858 0.305123 6.96072e-21)
(1.29855 0.29294 -2.17581e-22)
(1.28469 0.279605 2.50241e-21)
(0.126478 0.00664193 3.80634e-21)
(0.428923 0.0524238 -1.06679e-21)
(0.748049 0.141807 -2.78781e-21)
(1.01536 0.229368 -2.52316e-21)
(1.19026 0.290464 2.26612e-21)
(1.27757 0.320336 1.75808e-21)
(1.30583 0.326286 -1.616e-21)
(1.30387 0.318598 5.77573e-22)
(1.29098 0.303853 8.05637e-22)
(1.27601 0.289222 -1.06186e-21)
(0.145691 0.0125738 2.0721e-21)
(0.473563 0.072198 5.8608e-22)
(0.800064 0.1719 -3.49454e-21)
(1.05749 0.26147 -2.78009e-21)
(1.2149 0.318537 2.88418e-21)
(1.28636 0.342475 5.62428e-22)
(1.30423 0.343254 -1.28203e-21)
(1.29701 0.33188 1.19747e-21)
(1.28212 0.314712 6.57226e-22)
(1.26644 0.298769 -7.41859e-22)
(0.165288 0.0199567 -8.05355e-22)
(0.51678 0.0948052 1.63719e-21)
(0.847384 0.204062 1.08132e-20)
(1.09295 0.294239 -4.80144e-21)
(1.23315 0.346383 -2.3212e-21)
(1.2903 0.36414 -2.58921e-21)
(1.2995 0.359857 5.25603e-21)
(1.28827 0.344959 3.45794e-21)
(1.27206 0.325477 2.7223e-21)
(1.25601 0.30819 1.4527e-21)
(0.184958 0.0288173 1.67147e-20)
(0.557832 0.120038 -9.12692e-21)
(0.889459 0.237889 -1.03125e-20)
(1.12178 0.327344 1.39797e-20)
(1.24542 0.37383 7.29442e-21)
(1.28991 0.385271 -4.74249e-22)
(1.29199 0.376069 -8.72709e-21)
(1.2778 0.357799 -6.22874e-21)
(1.26085 0.336084 -6.31542e-21)
(1.24474 0.317421 3.66221e-21)
(0.204375 0.039143 -2.26403e-20)
(0.596038 0.147617 2.11701e-20)
(0.925888 0.272959 2.42873e-20)
(1.14409 0.360465 -2.37658e-20)
(1.25213 0.400713 -8.13256e-21)
(1.28559 0.4058 5.12013e-21)
(1.28198 0.391847 9.14657e-21)
(1.26575 0.370341 1.38734e-21)
(1.24853 0.346453 -1.9613e-22)
(1.23264 0.326382 -4.88863e-21)
(0.223207 0.0508807 -3.28866e-21)
(0.630798 0.177203 -2.98698e-20)
(0.95641 0.308842 -3.18282e-20)
(1.16008 0.393295 3.53876e-20)
(1.25368 0.426871 -3.98868e-21)
(1.27771 0.425647 7.09403e-21)
(1.26971 0.407128 1.32893e-21)
(1.2522 0.382511 -3.81863e-21)
(1.23511 0.356485 2.035e-21)
(1.21969 0.334978 -1.69438e-22)
(0.241129 0.0639376 6.65679e-21)
(0.661604 0.208407 1.85526e-20)
(0.980886 0.345106 1.04443e-20)
(1.16999 0.425538 -8.2209e-21)
(1.25045 0.452142 -1.25329e-20)
(1.2666 0.44472 -1.14233e-20)
(1.25534 0.421837 -2.23762e-21)
(1.23722 0.39423 5.66762e-21)
(1.22059 0.366091 -1.18174e-21)
(1.20574 0.343118 2.6763e-21)
(0.257828 0.0781834 -2.52513e-20)
(0.688048 0.240803 -2.33555e-20)
(0.999282 0.38132 -3.6668e-21)
(1.17411 0.456905 -4.14056e-21)
(1.24282 0.476363 -9.13146e-21)
(1.25254 0.462916 5.42658e-21)
(1.23905 0.43588 -1.00361e-21)
(1.22088 0.405416 -4.94264e-21)
(1.20497 0.375232 4.44884e-21)
(1.19066 0.350758 -5.84434e-21)
(0.273015 0.0934539 6.00816e-21)
(0.709822 0.27394 1.97943e-20)
(1.01165 0.417062 1.70338e-20)
(1.17275 0.487121 1.83172e-20)
(1.23113 0.499369 4.58819e-22)
(1.23577 0.480117 1.51141e-20)
(1.22093 0.449149 8.13635e-22)
(1.20323 0.415962 -1.63623e-20)
(1.18833 0.383912 1.12325e-20)
(1.17453 0.357899 4.0954e-21)
(0.286433 0.109555 1.63964e-20)
(0.726724 0.307356 3.63312e-20)
(1.01813 0.451919 -4.78794e-21)
(1.16624 0.515919 -2.30101e-20)
(1.21571 0.520996 1.02096e-20)
(1.2165 0.496204 -1.02851e-20)
(1.2011 0.461527 -1.28905e-20)
(1.18429 0.425722 -6.60521e-22)
(1.17069 0.392027 -8.78695e-21)
(1.15776 0.364359 3.16842e-21)
(0.29786 0.126268 7.63712e-21)
(0.738642 0.340587 5.54427e-21)
(1.0189 0.485496 4.45812e-20)
(1.15491 0.543041 8.0975e-21)
(1.19685 0.54108 -6.85877e-21)
(1.19493 0.511052 -3.4611e-21)
(1.17967 0.472907 1.90939e-20)
(1.16424 0.434618 1.48317e-20)
(1.15197 0.399334 6.96626e-21)
(1.1404 0.37017 -7.6492e-22)
(0.307116 0.143354 1.5527e-21)
(0.745553 0.373175 -3.70635e-20)
(1.01421 0.517415 -5.22844e-20)
(1.13911 0.568242 1.40928e-21)
(1.17485 0.55946 9.5047e-21)
(1.17125 0.524522 -1.28967e-20)
(1.15685 0.483135 -2.68855e-20)
(1.1431 0.442565 -7.45912e-21)
(1.13223 0.40576 -3.8611e-22)
(1.12236 0.375122 2.04714e-21)
(0.314064 0.160562 -1.31849e-20)
(0.747508 0.404678 3.28974e-20)
(1.00435 0.547316 3.12372e-20)
(1.1192 0.591293 -2.78159e-20)
(1.14998 0.57597 4.30628e-21)
(1.14569 0.536468 2.91267e-20)
(1.13269 0.4921 -5.16922e-21)
(1.12085 0.449438 4.47291e-21)
(1.11164 0.411206 -1.2207e-21)
(1.10366 0.379155 -1.38048e-21)
(0.318612 0.177638 -2.94574e-20)
(0.744635 0.434672 -5.19054e-20)
(0.989659 0.574872 -1.0035e-20)
(1.09552 0.611974 1.60991e-20)
(1.12253 0.590446 1.45726e-20)
(1.11842 0.546749 -2.82382e-20)
(1.10728 0.499674 1.37592e-20)
(1.09761 0.45513 -5.11801e-21)
(1.09025 0.415573 2.823e-21)
(1.08434 0.382182 5.81127e-22)
(0.320718 0.194324 2.25258e-20)
(0.737149 0.462761 1.77996e-21)
(0.970547 0.599809 -4.95067e-21)
(1.06835 0.630044 -1.90785e-20)
(1.09277 0.602736 1.09104e-20)
(1.08958 0.555224 3.0819e-21)
(1.08075 0.505738 -6.06041e-21)
(1.07349 0.459531 2.34296e-21)
(1.06814 0.418762 3.25103e-22)
(1.06449 0.384133 -1.97143e-21)
(0.320391 0.210363 -5.97287e-21)
(0.725348 0.488563 -7.9322e-21)
(0.947344 0.621893 2.06326e-20)
(1.03796 0.645314 9.33375e-21)
(1.06096 0.612646 -1.19104e-20)
(1.05939 0.56177 1.28435e-20)
(1.05323 0.51018 1.71972e-21)
(1.04858 0.462542 2.78703e-21)
(1.04539 0.420669 5.39291e-21)
(1.04419 0.38491 8.79609e-22)
(0.3177 0.225498 3.82584e-20)
(0.709552 0.511756 2.92495e-20)
(0.920139 0.640739 -2.68014e-21)
(1.00492 0.657738 -3.76825e-21)
(1.02744 0.620034 -4.48567e-21)
(1.02803 0.566259 -1.86113e-21)
(1.02488 0.512896 2.79498e-21)
(1.023 0.464074 3.58631e-22)
(1.02208 0.421198 -4.73681e-21)
(1.02351 0.384418 -6.12369e-21)
(0.312726 0.239459 2.32288e-21)
(0.689964 0.532166 4.55105e-21)
(0.889331 0.656073 -2.44592e-20)
(0.969655 0.667028 9.89995e-21)
(0.992434 0.624863 -1.62448e-22)
(0.995706 0.568597 1.61025e-21)
(0.995839 0.513791 1.76225e-22)
(0.996865 0.464051 1.21698e-21)
(0.998349 0.420277 -5.19483e-21)
(1.00267 0.382599 7.42839e-21)
(0.305536 0.251943 -1.45954e-20)
(0.666789 0.549409 -9.84811e-21)
(0.85569 0.667953 6.44864e-21)
(0.932469 0.673012 1.94937e-22)
(0.956219 0.627003 -4.26545e-21)
(0.962599 0.568685 1.84086e-21)
(0.966232 0.512771 3.30781e-21)
(0.970259 0.462378 -1.41877e-20)
(0.974432 0.417835 3.05023e-20)
(0.982324 0.379484 1.16556e-20)
(0.296233 0.262729 -1.04261e-20)
(0.640383 0.563081 2.22653e-20)
(0.819643 0.676152 -1.25075e-20)
(0.893684 0.675661 -2.81276e-21)
(0.91905 0.626368 4.44857e-22)
(0.928897 0.566446 -4.44099e-21)
(0.936172 0.509749 -1.12086e-20)
(0.943303 0.458915 5.84133e-21)
(0.950739 0.413674 -2.30789e-21)
(0.963166 0.375105 -5.66724e-21)
(0.285043 0.271686 -1.63315e-21)
(0.611269 0.573043 -6.86152e-21)
(0.781549 0.680483 1.61656e-21)
(0.853645 0.674903 6.17518e-22)
(0.881192 0.622891 8.10288e-21)
(0.894784 0.561825 6.18003e-21)
(0.905782 0.504675 2.00718e-20)
(0.916181 0.453556 -1.43932e-20)
(0.927615 0.407414 -2.73369e-20)
(0.944481 0.368804 1.10536e-20)
(0.272167 0.278694 -1.87979e-21)
(0.579886 0.579166 -3.28712e-21)
(0.741824 0.680819 1.1862e-21)
(0.812705 0.670682 1.08014e-20)
(0.842912 0.616529 -1.60697e-20)
(0.860455 0.554787 -2.42318e-20)
(0.875246 0.497547 -7.48508e-21)
(0.88916 0.44642 -1.25144e-21)
(0.905046 0.399247 3.49991e-20)
(0.923474 0.356849 -8.1894e-21)
(0.257799 0.283599 4.55401e-21)
(0.546676 0.581341 -3.51935e-21)
(0.700897 0.677098 -6.66424e-22)
(0.771215 0.662959 4.1928e-22)
(0.804477 0.607251 -9.6297e-21)
(0.826125 0.545302 4.46569e-20)
(0.844818 0.488329 -3.04452e-20)
(0.862456 0.437589 3.65247e-20)
(0.881961 0.39106 -2.58298e-20)
(0.900052 0.350137 -3.38518e-20)
(0.242175 0.286284 -2.80586e-21)
(0.512075 0.579494 2.24333e-22)
(0.659193 0.669293 -7.34008e-23)
(0.729523 0.651723 1.53507e-20)
(0.766153 0.595048 -5.67872e-21)
(0.79202 0.533347 8.85105e-21)
(0.814703 0.476965 1.80813e-20)
(0.836103 0.426786 -9.53346e-21)
(0.858765 0.380705 -2.38628e-20)
(0.877831 0.340008 3.34011e-20)
(0.225545 0.286665 1.29455e-20)
(0.476515 0.573583 1.75256e-20)
(0.617134 0.657413 -1.62799e-20)
(0.68797 0.63699 -1.47122e-20)
(0.728206 0.579929 4.90847e-20)
(0.758357 0.518932 -4.98697e-20)
(0.785051 0.463498 5.93211e-20)
(0.810112 0.414229 -1.51319e-20)
(0.835642 0.369144 1.62065e-20)
(0.856324 0.329565 2.97621e-20)
(0.208165 0.284686 -5.12101e-21)
(0.440426 0.563606 -1.64821e-20)
(0.575131 0.641499 -8.97722e-21)
(0.646892 0.6188 -5.37362e-21)
(0.690901 0.561926 5.23053e-21)
(0.725355 0.502074 -1.24187e-20)
(0.756032 0.447929 -1.78217e-20)
(0.784644 0.39985 -3.81763e-20)
(0.812933 0.356004 3.78286e-20)
(0.835626 0.317727 -1.25466e-20)
(0.190297 0.28032 2.85466e-20)
(0.40423 0.549598 -3.16748e-21)
(0.533586 0.62162 -1.25908e-20)
(0.606614 0.597219 1.67181e-20)
(0.654495 0.541089 -3.03847e-20)
(0.693222 0.482815 8.03038e-20)
(0.727813 0.430303 -4.28652e-20)
(0.759862 0.383726 3.90401e-20)
(0.790848 0.341424 -7.21008e-20)
(0.81576 0.304637 -1.9164e-20)
(0.172201 0.27357 -9.66841e-21)
(0.368342 0.531633 3.03613e-20)
(0.492885 0.597876 7.35061e-21)
(0.56745 0.572336 -1.53775e-20)
(0.61924 0.517489 -2.65007e-20)
(0.662164 0.461211 -1.26456e-21)
(0.700563 0.410666 1.43239e-20)
(0.735928 0.365885 -3.48938e-20)
(0.769543 0.32538 1.74844e-20)
(0.796773 0.290227 2.34253e-21)
(0.154134 0.264465 -4.87974e-20)
(0.333161 0.509817 -1.21297e-20)
(0.4534 0.570395 -3.23959e-21)
(0.529703 0.544266 3.90965e-20)
(0.585378 0.491218 -3.62649e-20)
(0.632381 0.437337 -9.65251e-21)
(0.674452 0.389083 -5.78391e-21)
(0.712998 0.346384 1.08822e-20)
(0.749156 0.307909 -1.3682e-20)
(0.778735 0.27453 -2.15328e-20)
(0.136349 0.253061 4.2587e-20)
(0.299071 0.484292 -2.41753e-20)
(0.415485 0.539334 1.30468e-21)
(0.493661 0.513144 -5.90213e-20)
(0.553141 0.462387 6.41835e-20)
(0.604064 0.411286 -2.042e-20)
(0.649645 0.365633 1.22882e-20)
(0.691217 0.325285 1.07275e-20)
(0.729809 0.289052 3.12946e-20)
(0.761719 0.257589 -1.27497e-20)
(0.119089 0.239441 -1.74129e-20)
(0.266437 0.45523 4.99671e-20)
(0.379475 0.504876 2.8202e-20)
(0.459595 0.479127 4.61118e-20)
(0.522748 0.431125 -1.0833e-20)
(0.577397 0.383165 4.27934e-21)
(0.626297 0.340408 3.50707e-20)
(0.670722 0.302664 7.80051e-21)
(0.711617 0.26887 7.42863e-22)
(0.745801 0.23947 -1.52474e-20)
(0.102586 0.223711 -3.93593e-20)
(0.235604 0.422836 -2.96784e-21)
(0.345682 0.467227 -1.6469e-20)
(0.427761 0.442394 -7.39251e-20)
(0.494407 0.397579 -7.17079e-20)
(0.552553 0.353098 1.20107e-20)
(0.604557 0.313513 -2.97411e-20)
(0.651642 0.278608 1.90373e-20)
(0.694688 0.247436 1.04342e-20)
(0.731056 0.220246 2.20036e-20)
(0.0870584 0.205999 5.74117e-20)
(0.20689 0.387339 -4.70593e-20)
(0.314398 0.426618 -2.39349e-20)
(0.398396 0.403142 4.26833e-20)
(0.468311 0.361912 4.86316e-20)
(0.529695 0.321222 -1.61179e-20)
(0.584564 0.285066 -2.04052e-21)
(0.634096 0.253216 -5.92198e-20)
(0.679125 0.224833 -3.36861e-20)
(0.717557 0.200003 1.29576e-20)
(0.0727099 0.186455 -3.25888e-20)
(0.180589 0.348995 1.37706e-20)
(0.285887 0.383302 5.06263e-20)
(0.371717 0.361585 -2.26927e-20)
(0.444638 0.324306 1.75004e-21)
(0.508972 0.287691 6.49826e-20)
(0.566445 0.255197 3.03525e-21)
(0.618194 0.226598 5.66011e-20)
(0.665024 0.201159 2.3784e-20)
(0.705369 0.178832 -3.80295e-20)
(0.0597255 0.165249 4.49188e-20)
(0.156966 0.308085 4.9252e-21)
(0.26039 0.337549 3.23907e-21)
(0.347919 0.317956 4.63023e-20)
(0.423548 0.284952 -6.21673e-21)
(0.49052 0.252667 -4.0716e-20)
(0.550315 0.224046 2.00814e-20)
(0.604037 0.198876 -3.21606e-20)
(0.652471 0.176518 -1.35331e-20)
(0.694556 0.156833 1.38299e-20)
(0.0482711 0.142566 -2.80242e-20)
(0.136259 0.264907 -5.39014e-20)
(0.238119 0.289648 1.24539e-20)
(0.327177 0.2725 -2.44881e-20)
(0.405185 0.244057 -1.48894e-20)
(0.47446 0.216327 3.61982e-20)
(0.536279 0.191764 -8.77501e-21)
(0.591716 0.170177 8.2077e-21)
(0.641546 0.151023 -1.00567e-20)
(0.685171 0.134107 2.0002e-20)
(0.0384916 0.118609 1.01035e-20)
(0.118672 0.21978 3.6257e-20)
(0.219259 0.239903 -5.04357e-20)
(0.309641 0.225476 2.39538e-20)
(0.389674 0.201838 -1.09488e-20)
(0.460897 0.178855 -3.09887e-20)
(0.524426 0.15851 2.54221e-20)
(0.581309 0.140638 5.4058e-21)
(0.632318 0.124794 -8.01332e-22)
(0.677263 0.110761 -2.33048e-20)
(0.0305099 0.0935896 3.30701e-21)
(0.104377 0.173036 1.16687e-20)
(0.203964 0.188632 4.56225e-20)
(0.29544 0.177154 -8.77996e-21)
(0.377118 0.158524 -6.94812e-21)
(0.44992 0.140446 2.58066e-21)
(0.514834 0.12445 1.12346e-21)
(0.572885 0.110403 9.54156e-21)
(0.624847 0.0979559 -1.26261e-20)
(0.670873 0.0869049 -8.07796e-21)
(0.0244255 0.0677344 -8.26829e-21)
(0.0935136 0.125022 -1.41969e-20)
(0.192361 0.136162 -3.54576e-20)
(0.284675 0.127812 1.78812e-20)
(0.367604 0.114347 1.46445e-20)
(0.441602 0.1013 6.15833e-22)
(0.507564 0.0897561 -2.4792e-20)
(0.566498 0.0796194 -1.10856e-20)
(0.619181 0.0706394 8.845e-21)
(0.666033 0.0626494 9.53484e-21)
(0.0203135 0.0412761 1.43749e-21)
(0.0861875 0.0760948 -2.97519e-21)
(0.184542 0.0828303 6.72636e-21)
(0.277424 0.0777358 -4.57434e-21)
(0.361195 0.0695511 -4.04499e-21)
(0.435996 0.0616235 -2.75278e-21)
(0.502662 0.0546062 5.0961e-21)
(0.562189 0.0484412 1.95341e-20)
(0.615356 0.0429777 2.84522e-21)
(0.662768 0.038107 -5.09192e-21)
(0.0182246 0.0144538 1.77839e-21)
(0.0824688 0.0266162 -4.90485e-21)
(0.180572 0.0289785 -5.57175e-21)
(0.27374 0.0272174 -3.87508e-21)
(0.357934 0.0243802 3.70939e-21)
(0.43314 0.0216262 1.68099e-21)
(0.500161 0.0191802 -1.68281e-21)
(0.559987 0.017024 -7.7253e-21)
(0.613399 0.0151069 2.55882e-21)
(0.661095 0.0133904 -2.4122e-21)
(0.0181839 -0.0124898 -1.7795e-21)
(0.0823927 -0.0230461 4.90778e-21)
(0.180481 -0.0250471 5.57466e-21)
(0.273646 -0.0234495 -5.35199e-21)
(0.357842 -0.0209167 4.72917e-21)
(0.433052 -0.0184795 2.38094e-21)
(0.500076 -0.0163393 -3.82452e-21)
(0.559905 -0.0144746 -4.47284e-21)
(0.61332 -0.0128353 6.66913e-22)
(0.66102 -0.0113847 -1.88813e-21)
(0.0201914 -0.0393106 1.95181e-21)
(0.0859586 -0.0725231 -5.84567e-21)
(0.18427 -0.0788991 1.31482e-20)
(0.277145 -0.0739699 -1.15729e-20)
(0.36092 -0.0660905 -5.43194e-22)
(0.43573 -0.0584804 -7.75829e-21)
(0.502407 -0.0517693 1.2685e-20)
(0.561944 -0.0458961 1.73678e-20)
(0.61512 -0.0407106 3.13261e-21)
(0.662548 -0.0361045 -6.77719e-21)
(0.0242212 -0.065766 -1.68617e-21)
(0.093131 -0.121448 -1.24062e-20)
(0.191906 -0.132232 -2.88666e-20)
(0.284208 -0.124049 2.50674e-20)
(0.367146 -0.110893 5.21081e-21)
(0.441158 -0.0981642 4.62002e-21)
(0.507137 -0.0869273 -2.28377e-20)
(0.566089 -0.0770832 -1.35283e-20)
(0.618787 -0.0683821 -3.0339e-21)
(0.665667 -0.0606568 2.0943e-20)
(0.0302225 -0.0916169 -5.94914e-21)
(0.103839 -0.169457 7.45082e-21)
(0.203326 -0.184702 5.24617e-20)
(0.294784 -0.173397 -4.70185e-21)
(0.376475 -0.155078 -1.35404e-20)
(0.449298 -0.137321 9.7892e-21)
(0.514236 -0.121633 6.51365e-22)
(0.572312 -0.10788 3.49817e-21)
(0.624296 -0.0957134 -7.68017e-21)
(0.67036 -0.0849276 -2.04722e-20)
(0.0381195 -0.11663 -4.03206e-21)
(0.117976 -0.216194 2.19532e-20)
(0.218434 -0.235975 -5.29292e-20)
(0.308796 -0.221728 2.30315e-20)
(0.388845 -0.198405 2.05957e-22)
(0.460095 -0.175745 -2.94202e-20)
(0.523657 -0.155709 1.30404e-20)
(0.580572 -0.138133 -1.23392e-21)
(0.63161 -0.122571 4.9888e-21)
(0.676604 -0.108804 -1.54067e-21)
(0.0478125 -0.140582 -4.63106e-20)
(0.135403 -0.261315 -5.53605e-20)
(0.237106 -0.285722 1.44655e-20)
(0.326139 -0.268762 -2.63817e-20)
(0.404169 -0.240639 -7.53837e-21)
(0.473478 -0.213235 1.11872e-20)
(0.535336 -0.188984 4.16925e-21)
(0.590813 -0.167695 1.57202e-20)
(0.640679 -0.148825 -3.38892e-21)
(0.684365 -0.132176 1.84116e-20)
(0.0591782 -0.163257 4.43226e-20)
(0.155946 -0.304485 2.84918e-20)
(0.259185 -0.333625 -2.17214e-20)
(0.346687 -0.314231 3.66338e-20)
(0.422343 -0.281552 -3.23333e-21)
(0.489356 -0.249598 -3.99034e-20)
(0.549198 -0.221292 7.02114e-21)
(0.602968 -0.196421 -4.28298e-20)
(0.651446 -0.17435 1.57237e-21)
(0.693602 -0.154933 1.57397e-20)
(0.0720713 -0.184455 -3.33218e-20)
(0.1794 -0.345387 5.96525e-20)
(0.284487 -0.379383 2.33905e-20)
(0.370287 -0.357876 -2.87857e-20)
(0.443241 -0.320929 1.31854e-22)
(0.507624 -0.284648 7.36864e-20)
(0.565152 -0.252473 3.46003e-21)
(0.616958 -0.224177 3.30582e-20)
(0.663839 -0.199027 4.04878e-20)
(0.704267 -0.176969 -2.28325e-20)
(0.0863257 -0.203991 1.86798e-20)
(0.205528 -0.383722 -8.93291e-21)
(0.312798 -0.422705 -2.126e-20)
(0.396766 -0.39945 1.62969e-20)
(0.466721 -0.358562 6.19523e-20)
(0.528161 -0.318211 -2.17185e-20)
(0.583095 -0.282377 -3.50388e-21)