/*--------------------------------*- C++ -*----------------------------------*\
  =========                 |
  \\      /  F ield         | OpenFOAM: The Open Source CFD Toolbox
   \\    /   O peration     | Website:  https://openfoam.org
    \\  /    A nd           | Version:  7
     \\/     M anipulation  |
\*---------------------------------------------------------------------------*/
FoamFile
{
    version     2.0;
    format      ascii;
    class       volScalarField;
    location    "355";
    object      p;
}
// * * * * * * * * * * * * * * * * * * * * * * * * * * * * * * * * * * * * * //

dimensions      [0 2 -2 0 0 0 0];

internalField   nonuniform List<scalar> 
2125
(
-0.426039
-0.428103
-0.428901
-0.430172
-0.432465
-0.435978
-0.440777
-0.446925
-0.45431
-0.46309
-0.417761
-0.420334
-0.42118
-0.422254
-0.424045
-0.426679
-0.430149
-0.43443
-0.439237
-0.444653
-0.409638
-0.412662
-0.413541
-0.414407
-0.415685
-0.417421
-0.419531
-0.421893
-0.424029
-0.425907
-0.401811
-0.405225
-0.406125
-0.406784
-0.407555
-0.408402
-0.409158
-0.409605
-0.409073
-0.407359
-0.394409
-0.398152
-0.399065
-0.399525
-0.399808
-0.399796
-0.399238
-0.397824
-0.39471
-0.389453
-0.387547
-0.391562
-0.392481
-0.392754
-0.392578
-0.391754
-0.389944
-0.38676
-0.381219
-0.372538
-0.381328
-0.385558
-0.386478
-0.386577
-0.385976
-0.384396
-0.381414
-0.376575
-0.368812
-0.356857
-0.375843
-0.380231
-0.381145
-0.381084
-0.380092
-0.37782
-0.373756
-0.367387
-0.357637
-0.342543
-0.371165
-0.375653
-0.376552
-0.376343
-0.374999
-0.372101
-0.367052
-0.359282
-0.347801
-0.329638
-0.367353
-0.371881
-0.372754
-0.372409
-0.370752
-0.367301
-0.36137
-0.352324
-0.339387
-0.318113
-0.36445
-0.368952
-0.369786
-0.369318
-0.367388
-0.363463
-0.356764
-0.346565
-0.332464
-0.307879
-0.36248
-0.366886
-0.367666
-0.367085
-0.364928
-0.360615
-0.353276
-0.342044
-0.327094
-0.298733
-0.361446
-0.365678
-0.366386
-0.365703
-0.363364
-0.358756
-0.350922
-0.338798
-0.323378
-0.290559
-0.361331
-0.365304
-0.365916
-0.365138
-0.362659
-0.357842
-0.349663
-0.336818
-0.321326
-0.284214
-0.362093
-0.365718
-0.366203
-0.365324
-0.362737
-0.357777
-0.349379
-0.336008
-0.320172
-0.280063
-0.363671
-0.366854
-0.367171
-0.366176
-0.363485
-0.358415
-0.349878
-0.336384
-0.319675
-0.277821
-0.365985
-0.368634
-0.368728
-0.367575
-0.364763
-0.35958
-0.350887
-0.337492
-0.319644
-0.277108
-0.368947
-0.370972
-0.370778
-0.369407
-0.366422
-0.361089
-0.352192
-0.338902
-0.31954
-0.27733
-0.37247
-0.373787
-0.373226
-0.371557
-0.368327
-0.362767
-0.353595
-0.34041
-0.319016
-0.27848
-0.376472
-0.377007
-0.375989
-0.373939
-0.370358
-0.364488
-0.354966
-0.341785
-0.318423
-0.284086
-0.380894
-0.380583
-0.379029
-0.376474
-0.372452
-0.366177
-0.356226
-0.342741
-0.318484
-0.298269
-0.3857
-0.38448
-0.382309
-0.379155
-0.37459
-0.367807
-0.357348
-0.343263
-0.319477
-0.300405
-0.390881
-0.388706
-0.385835
-0.381999
-0.376797
-0.369395
-0.358325
-0.343457
-0.320153
-0.300028
-0.393281
-0.389648
-0.385058
-0.379133
-0.370994
-0.359172
-0.343398
-0.320223
-0.298834
-0.393809
-0.388407
-0.381672
-0.372662
-0.359922
-0.343085
-0.3197
-0.296916
-0.398388
-0.392126
-0.384485
-0.374453
-0.360598
-0.342513
-0.318573
-0.294578
-0.396289
-0.387627
-0.376396
-0.361195
-0.341655
-0.316901
-0.291842
-0.391125
-0.378485
-0.361672
-0.340483
-0.314731
-0.288746
-0.361966
-0.338964
-0.312106
-0.285287
-0.337065
-0.309051
-0.281457
-0.305572
-0.277238
-0.480988
-0.499186
-0.504152
-0.472523
-0.408671
-0.342365
-0.310703
-0.323003
-0.339027
-0.315384
-0.252724
-0.181503
-0.139932
-0.116083
-0.114064
-0.136826
-0.143219
-0.123276
-0.10576
-0.0837014
-0.0765557
-0.0631471
-0.0546362
-0.0733536
-0.0825401
-0.0604462
-0.0438281
-0.0482069
-0.0332373
-0.0131293
-0.457597
-0.469958
-0.472607
-0.44329
-0.387552
-0.332753
-0.314599
-0.3384
-0.360393
-0.332974
-0.26456
-0.18789
-0.141178
-0.113977
-0.109165
-0.128976
-0.133203
-0.116514
-0.102672
-0.0830412
-0.0767345
-0.0644325
-0.0564733
-0.0746204
-0.0836013
-0.0608292
-0.0438652
-0.048209
-0.0333621
-0.0131098
-0.433995
-0.439971
-0.439813
-0.412509
-0.364642
-0.321414
-0.316659
-0.352319
-0.37954
-0.348822
-0.275066
-0.193556
-0.142163
-0.111812
-0.104366
-0.121181
-0.123204
-0.109654
-0.0994258
-0.082313
-0.0769039
-0.0658262
-0.0584045
-0.0758664
-0.0846013
-0.0611828
-0.0438708
-0.0482374
-0.0335493
-0.0130902
-0.410887
-0.409922
-0.406617
-0.380848
-0.340444
-0.308645
-0.316888
-0.364257
-0.396122
-0.362778
-0.284233
-0.198517
-0.142932
-0.109636
-0.0997392
-0.113537
-0.113365
-0.10275
-0.0960357
-0.0815154
-0.0770669
-0.0673232
-0.060418
-0.0770846
-0.0855323
-0.0615045
-0.0438447
-0.0482939
-0.0337976
-0.013071
-0.388864
-0.380845
-0.373922
-0.349139
-0.315514
-0.294694
-0.31535
-0.373771
-0.40989
-0.374725
-0.292069
-0.202797
-0.143527
-0.107495
-0.0953432
-0.106134
-0.103819
-0.0958607
-0.0925185
-0.0806475
-0.0772254
-0.0689172
-0.0624999
-0.0782688
-0.0863868
-0.0617922
-0.0437867
-0.0483797
-0.0341048
-0.0130527
-0.368448
-0.353606
-0.342581
-0.318283
-0.290524
-0.279808
-0.312074
-0.38053
-0.420692
-0.384586
-0.2986
-0.206428
-0.143989
-0.105427
-0.0912199
-0.0990586
-0.0946894
-0.089048
-0.0888962
-0.0797088
-0.0773798
-0.0706012
-0.0646351
-0.0794142
-0.0871581
-0.0620436
-0.0436964
-0.0484956
-0.0344687
-0.0130355
-0.350013
-0.328757
-0.313308
-0.289121
-0.26615
-0.264401
-0.307089
-0.384349
-0.428467
-0.392319
-0.303861
-0.209444
-0.14435
-0.103468
-0.0873974
-0.0923826
-0.086081
-0.0823797
-0.0851957
-0.0786991
-0.077529
-0.072367
-0.0668072
-0.0805154
-0.0878401
-0.0622564
-0.0435738
-0.0486417
-0.034886
-0.01302
-0.333772
-0.306811
-0.286622
-0.262345
-0.243124
-0.248839
-0.300494
-0.385188
-0.433231
-0.397927
-0.307901
-0.211887
-0.14464
-0.101643
-0.0838911
-0.0861676
-0.078079
-0.075928
-0.0814489
-0.0776186
-0.0776701
-0.0742059
-0.0689996
-0.0815663
-0.0884273
-0.0624282
-0.0434184
-0.0488176
-0.0353532
-0.0130063
-0.319786
-0.288712
-0.262792
-0.238422
-0.221795
-0.233655
-0.292454
-0.383142
-0.435151
-0.401447
-0.310776
-0.213799
-0.144883
-0.0999769
-0.0807057
-0.0804592
-0.0707449
-0.0697677
-0.0776927
-0.0764683
-0.0777986
-0.0761083
-0.0711955
-0.082561
-0.0889146
-0.0625568
-0.04323
-0.0490222
-0.0358658
-0.0129947
-0.307959
-0.27573
-0.241756
-0.217523
-0.202921
-0.219161
-0.283186
-0.378431
-0.434241
-0.402943
-0.312547
-0.215221
-0.145097
-0.0984858
-0.077838
-0.0752855
-0.0641165
-0.0639758
-0.0739678
-0.0752492
-0.0779084
-0.0780643
-0.0733776
-0.0834932
-0.0892979
-0.0626396
-0.0430083
-0.0492536
-0.0364188
-0.0129852
-0.297973
-0.258679
-0.223307
-0.200043
-0.186458
-0.205563
-0.272949
-0.371372
-0.43079
-0.40251
-0.313279
-0.216197
-0.145296
-0.0971837
-0.0752795
-0.0706567
-0.0582094
-0.0586223
-0.070318
-0.0739633
-0.0779917
-0.0800632
-0.0755289
-0.0843584
-0.0895743
-0.0626743
-0.0427531
-0.0495095
-0.0370062
-0.0129779
-0.290059
-0.244549
-0.209326
-0.184419
-0.172532
-0.193032
-0.262037
-0.362341
-0.425073
-0.400274
-0.313035
-0.216772
-0.145492
-0.0960844
-0.0730195
-0.0665664
-0.0530193
-0.0537711
-0.0667897
-0.0726123
-0.0780392
-0.0820942
-0.077633
-0.0851528
-0.0897413
-0.0626581
-0.0424642
-0.0497868
-0.037621
-0.0129726
-0.284666
-0.234638
-0.197863
-0.171822
-0.160986
-0.181707
-0.250752
-0.351742
-0.417394
-0.396392
-0.311886
-0.216999
-0.145704
-0.0952026
-0.071047
-0.0629931
-0.0485257
-0.0494721
-0.0634276
-0.0711984
-0.0780403
-0.0841459
-0.0796737
-0.0858721
-0.0897973
-0.0625883
-0.0421411
-0.0500818
-0.0382553
-0.012969
-0.280496
-0.227849
-0.188909
-0.161895
-0.151657
-0.171677
-0.239386
-0.33998
-0.408067
-0.391029
-0.309908
-0.21692
-0.145929
-0.0945359
-0.0693417
-0.0598952
-0.04469
-0.0457444
-0.0602721
-0.0697241
-0.0779835
-0.0862071
-0.0816357
-0.0865121
-0.0897423
-0.0624612
-0.0417834
-0.0503886
-0.0389002
-0.0129667
-0.2782
-0.223732
-0.18247
-0.15428
-0.144383
-0.162983
-0.228203
-0.327435
-0.397407
-0.384341
-0.307149
-0.216519
-0.146107
-0.0940373
-0.0678639
-0.05721
-0.0414516
-0.0425846
-0.057359
-0.0681916
-0.0778557
-0.0882662
-0.0835048
-0.0870692
-0.0895786
-0.0622725
-0.0413913
-0.0506988
-0.039546
-0.012965
-0.277314
-0.221867
-0.178792
-0.148767
-0.138984
-0.155625
-0.217417
-0.31443
-0.385735
-0.376509
-0.303639
-0.215752
-0.146173
-0.0936657
-0.0665827
-0.0548875
-0.0387445
-0.0399641
-0.0547129
-0.0666024
-0.0776431
-0.0903114
-0.0852709
-0.0875408
-0.0893079
-0.0620208
-0.0409651
-0.0510083
-0.0401818
-0.0129632
-0.277506
-0.221968
-0.177938
-0.14518
-0.135274
-0.149579
-0.207209
-0.301233
-0.373305
-0.367763
-0.299578
-0.214843
-0.146363
-0.093602
-0.0655815
-0.0529689
-0.0365505
-0.0378681
-0.0523467
-0.0649553
-0.077331
-0.0923297
-0.0869208
-0.0879197
-0.0889196
-0.0617128
-0.0405053
-0.0513296
-0.0407982
-0.0129603
-0.278236
-0.223517
-0.176789
-0.143426
-0.133105
-0.144751
-0.197656
-0.288033
-0.359942
-0.358166
-0.295456
-0.214475
-0.147283
-0.0942726
-0.0650565
-0.051546
-0.0348826
-0.0363758
-0.0503201
-0.0632483
-0.0769031
-0.0943071
-0.0883945
-0.0881976
-0.0883875
-0.0613573
-0.0400097
-0.0516825
-0.041391
-0.0129558
-0.279167
-0.226232
-0.176374
-0.143777
-0.132516
-0.141093
-0.188517
-0.274389
-0.345214
-0.347217
-0.290955
-0.214296
-0.148466
-0.0952772
-0.0647615
-0.0503188
-0.033496
-0.0354525
-0.048752
-0.061511
-0.0763418
-0.0962332
-0.0896167
-0.0883007
-0.0877441
-0.060926
-0.0394738
-0.0520114
-0.0419443
-0.0129507
-0.280845
-0.230339
-0.180964
-0.146261
-0.133341
-0.139579
-0.181311
-0.261475
-0.331325
-0.335041
-0.283127
-0.210299
-0.146256
-0.0939092
-0.0632755
-0.0481996
-0.0316
-0.0342081
-0.0469932
-0.0596395
-0.0756359
-0.0981055
-0.0910619
-0.0885
-0.0872319
-0.0603066
-0.0388968
-0.0520832
-0.0423619
-0.0129341
-0.266364
-0.225757
-0.178077
-0.14504
-0.133809
-0.139362
-0.178688
-0.256727
-0.322644
-0.323384
-0.270804
-0.200591
-0.139219
-0.0889167
-0.0597908
-0.0446403
-0.0285288
-0.0306501
-0.0416845
-0.0550473
-0.0740781
-0.101559
-0.0951211
-0.0898942
-0.0870922
-0.0593595
-0.0381618
-0.051641
-0.0426672
-0.0128473
-0.256317
-0.219607
-0.176657
-0.146715
-0.137204
-0.143016
-0.178371
-0.247292
-0.303728
-0.301611
-0.252115
-0.18757
-0.130869
-0.0840968
-0.0564818
-0.0411668
-0.0263478
-0.0290326
-0.0402562
-0.0526406
-0.073261
-0.103579
-0.0985208
-0.0888268
-0.085583
-0.0577907
-0.0371416
-0.0510976
-0.0439258
-0.01279
-0.245737
-0.213549
-0.17519
-0.148858
-0.141051
-0.147286
-0.178268
-0.23639
-0.282847
-0.27866
-0.233513
-0.174987
-0.122884
-0.0792807
-0.0531341
-0.0379172
-0.0242365
-0.0276749
-0.0395446
-0.0514032
-0.0729948
-0.104598
-0.101232
-0.0875326
-0.0835695
-0.055992
-0.0359743
-0.0504808
-0.0453734
-0.012671
-0.235447
-0.207397
-0.173572
-0.15065
-0.144132
-0.150241
-0.176434
-0.223696
-0.260818
-0.255309
-0.214835
-0.162359
-0.114829
-0.0743728
-0.0497585
-0.0348
-0.022099
-0.0263131
-0.0384337
-0.0498775
-0.0725127
-0.105366
-0.103693
-0.0860034
-0.0810267
-0.0538746
-0.0346253
-0.0497822
-0.0467414
-0.0124702
-0.224361
-0.200573
-0.171205
-0.151401
-0.145772
-0.151266
-0.1726
-0.209591
-0.238329
-0.232171
-0.196545
-0.149974
-0.106863
-0.0694035
-0.0463386
-0.0317508
-0.0198557
-0.0248731
-0.0369741
-0.0477763
-0.0715492
-0.105924
-0.105692
-0.084073
-0.0778705
-0.0514036
-0.0330702
-0.0489593
-0.0480023
-0.0121972
-0.21212
-0.192862
-0.167768
-0.150723
-0.145686
-0.150247
-0.167084
-0.194872
-0.216383
-0.210022
-0.179042
-0.137967
-0.0990225
-0.0643983
-0.042861
-0.0287131
-0.0174331
-0.023232
-0.0351809
-0.0451644
-0.0700245
-0.105901
-0.106945
-0.081645
-0.074057
-0.0485361
-0.0312791
-0.047966
-0.0491373
-0.0118462
-0.199139
-0.184292
-0.163202
-0.148573
-0.143938
-0.14738
-0.158945
-0.180248
-0.195771
-0.189373
-0.162568
-0.126446
-0.0913655
-0.0593907
-0.0393143
-0.025627
-0.0147538
-0.0212424
-0.032931
-0.0420154
-0.0677245
-0.104934
-0.107206
-0.0786558
-0.0695551
-0.0452305
-0.0292188
-0.0467433
-0.0500822
-0.011396
-0.185817
-0.174979
-0.157592
-0.145095
-0.14076
-0.143147
-0.151427
-0.166322
-0.17692
-0.170465
-0.147244
-0.115482
-0.0839271
-0.0544079
-0.0356882
-0.0224326
-0.0117393
-0.0187244
-0.030006
-0.0381382
-0.0642928
-0.102759
-0.1062
-0.07504
-0.0643509
-0.0414476
-0.0268526
-0.0452144
-0.0507387
-0.0108213
-0.172431
-0.165089
-0.151068
-0.140479
-0.136408
-0.13785
-0.143428
-0.153322
-0.159923
-0.153331
-0.133096
-0.105111
-0.076733
-0.0494753
-0.0319768
-0.0190734
-0.00831591
-0.0154482
-0.0260858
-0.0332151
-0.0593514
-0.0991349
-0.103664
-0.0707357
-0.058455
-0.0371546
-0.0241409
-0.0432813
-0.050985
-0.0100974
-0.15922
-0.154803
-0.143781
-0.134921
-0.131116
-0.131747
-0.135193
-0.141265
-0.144674
-0.137884
-0.120093
-0.0953464
-0.0698019
-0.044616
-0.0281819
-0.0155036
-0.00442079
-0.0111387
-0.0207388
-0.0268451
-0.0525691
-0.0938181
-0.0993594
-0.065696
-0.0519078
-0.0323301
-0.0210423
-0.0408239
-0.0506789
-0.00920112
-0.146344
-0.144288
-0.135883
-0.128595
-0.125086
-0.125055
-0.126863
-0.130063
-0.130983
-0.123981
-0.108171
-0.0861891
-0.0631489
-0.0398529
-0.0243147
-0.0116979
-1.60232e-05
-0.00551336
-0.0134635
-0.0185801
-0.0437065
-0.0866248
-0.093128
-0.0598982
-0.0447841
-0.0269701
-0.0175155
-0.0377024
-0.0496575
-0.00811189
-0.133891
-0.133692
-0.127527
-0.121662
-0.118488
-0.117955
-0.118524
-0.11961
-0.118643
-0.111461
-0.0972551
-0.0776289
-0.0567868
-0.0352104
-0.0203956
-0.00766393
0.00488746
0.00164953
-0.00378018
-0.0079985
-0.0327244
-0.0775015
-0.0849206
-0.0533516
-0.0371942
-0.0210956
-0.0135235
-0.0337633
-0.0477397
-0.0068152
-0.121927
-0.123148
-0.118864
-0.11427
-0.111469
-0.110575
-0.11024
-0.109808
-0.107461
-0.100166
-0.0872673
-0.0696502
-0.0507269
-0.0307148
-0.0164548
-0.00344773
0.0101953
0.0103842
0.0085869
0.00512084
-0.0199441
-0.0665733
-0.0748296
-0.0461071
-0.0292804
-0.0147598
-0.00903968
-0.028851
-0.0447346
-0.00530766
-0.110503
-0.112774
-0.11004
-0.106566
-0.104162
-0.103039
-0.102067
-0.100582
-0.0972737
-0.0899538
-0.078132
-0.0622343
-0.0449807
-0.0263911
-0.0125351
0.000861552
0.0157077
0.02032
0.02328
0.0204221
-0.00617583
-0.0541372
-0.0630961
-0.038265
-0.0212068
-0.00805484
-0.00405521
-0.0228274
-0.0404572
-0.00360323
-0.0996553
-0.10267
-0.101193
-0.0986886
-0.0966913
-0.0954541
-0.0940578
-0.0918804
-0.0879455
-0.0806953
-0.0697787
-0.0553605
-0.039561
-0.0222609
-0.00869351
0.00511953
0.0211325
0.0305317
0.0385947
0.0364153
0.00736486
-0.0405685
-0.0500937
-0.0299773
-0.0131436
-0.00111225
0.0014135
-0.0156017
-0.0347541
-0.00173965
-0.0894134
-0.0929228
-0.0924447
-0.0907687
-0.0891738
-0.0879163
-0.0862651
-0.0836668
-0.0793699
-0.0722794
-0.0621438
-0.0490064
-0.0344801
-0.0183467
-0.00499944
0.00913627
0.0261095
0.0397008
0.0518404
0.0505743
0.0195484
-0.0262578
-0.0363529
-0.0214417
-0.00526819
0.00590315
0.00731139
-0.00716806
-0.0275445
0.000216902
-0.0797995
-0.083603
-0.0839042
-0.0829247
-0.0817142
-0.0805101
-0.078736
-0.0759208
-0.0714643
-0.0646114
-0.0551704
-0.0431498
-0.0297477
-0.0146767
-0.00153734
0.0127273
0.0302693
0.0466804
0.0609541
0.0607374
0.0298185
-0.0118104
-0.0226076
-0.0128992
0.00224187
0.0128013
0.0135229
0.00234364
-0.0188755
0.00217383
-0.0708277
-0.074769
-0.0756637
-0.0752605
-0.0744067
-0.0733103
-0.071514
-0.0686314
-0.0641666
-0.057613
-0.0488082
-0.0377698
-0.0253715
-0.0112845
0.00159773
0.0157498
0.0333355
0.050885
0.065293
0.0662407
0.0380226
0.00176553
-0.00969997
-0.00460886
0.00922488
0.0193756
0.0198452
0.0126147
-0.00899101
0.00402713
-0.062506
-0.0664662
-0.0678004
-0.0678664
-0.0673362
-0.0663827
-0.0646382
-0.0617947
-0.0574316
-0.0512215
-0.0430132
-0.0328483
-0.021358
-0.00820283
0.00432436
0.0181284
0.0351913
0.0524968
0.0659139
0.0677995
0.0440443
0.0134455
0.00169592
0.00319775
0.0155506
0.0254137
0.025993
0.0230851
0.0016013
0.00568962
-0.0548373
-0.058729
-0.0603781
-0.0608203
-0.0605764
-0.0597843
-0.0581435
-0.0554125
-0.0512277
-0.0453885
-0.0377478
-0.0283703
-0.0177123
-0.00545616
0.00659979
0.0198627
0.0359042
0.0521601
0.0641748
0.0666075
0.0478576
0.0226693
0.0112478
0.0103516
0.021136
0.0307203
0.0316381
0.0329294
0.0121444
0.00710665
-0.0478206
-0.051583
-0.0534474
-0.0541863
-0.0541913
-0.0535666
-0.0520623
-0.0494905
-0.0455338
-0.0400787
-0.0329809
-0.0243228
-0.0144368
-0.00305367
0.00842296
0.0210072
0.0356951
0.0502124
0.0611121
0.0637952
0.0497714
0.029485
0.0189549
0.0167383
0.025958
0.0351546
0.0364675
0.0411804
0.0217831
0.0082413
-0.041453
-0.0450472
-0.0470489
-0.0480173
-0.0482356
-0.047775
-0.0464246
-0.0440381
-0.040338
-0.0352674
-0.0286883
-0.0206932
-0.0115292
-0.00098871
0.00982839
0.0216473
0.0348768
0.0478471
0.0574861
0.0602453
0.0502758
0.0342765
0.0250072
0.022283
0.0300299
0.0386527
0.0402664
0.0470222
0.0296917
0.00919991
-0.0357311
-0.0391357
-0.0412161
-0.0423588
-0.0427561
-0.0424493
-0.0412585
-0.0390679
-0.0356357
-0.0309397
-0.0248522
-0.0174691
-0.00898093
0.000756796
0.010872
0.0218786
0.0337012
0.045255
0.0537721
0.0565435
0.0498266
0.0375005
0.0296626
0.0269575
0.0333786
0.0412165
0.0429268
0.0501251
0.035294
0.0102
-0.0306528
-0.0338613
-0.0359769
-0.0372489
-0.0377944
-0.0376273
-0.0365924
-0.0345959
-0.0314288
-0.0270883
-0.0214603
-0.0146393
-0.00677793
0.00220774
0.0116182
0.021804
0.0323661
0.0426485
0.0502417
0.0530347
0.0487983
0.0395686
0.0331719
0.0307802
0.0360455
0.0429202
0.0444773
0.0507971
0.0384761
0.0113809
-0.0262191
-0.0292363
-0.0313571
-0.0327228
-0.0333891
-0.033345
-0.0324551
-0.0306418
-0.027726
-0.0237136
-0.0185062
-0.0121941
-0.00490416
0.00339305
0.0121304
0.0215259
0.0310114
0.0401907
0.0470493
0.049904
0.0474852
0.0408118
0.0357592
0.0338106
0.0380899
0.0438995
0.0450597
0.0471167
0.0395519
0.0126413
-0.0224369
-0.0252773
-0.0273842
-0.0288158
-0.029578
-0.0296388
-0.0288784
-0.0272303
-0.0245422
-0.020823
-0.0159896
-0.0101273
-0.00334458
0.00434185
0.0124658
0.0211394
0.0297364
0.0379904
0.044282
0.0472378
0.0461097
0.0414871
0.0376188
0.0361327
0.0395919
0.0443346
0.0451057
0.0451184
0.0392432
0.013746
-0.0193202
-0.0220061
-0.0240893
-0.0255656
-0.0264022
-0.0265492
-0.0258988
-0.0243922
-0.0219005
-0.018432
-0.0139178
-0.00843791
-0.00208759
0.00507955
0.012674
0.0207253
0.0286161
0.0361356
0.0419904
0.0450681
0.0448371
0.0417901
0.0389107
0.037837
0.0406437
0.044414
0.0448313
0.0432533
0.0381323
0.0145334
-0.0168956
-0.0194561
-0.0215131
-0.0230183
-0.0239094
-0.0241233
-0.0235604
-0.0221672
-0.0198332
-0.0165657
-0.0123069
-0.00713227
-0.0011278
0.00562572
0.0127952
0.0203484
0.0277079
0.0346822
0.04021
0.043406
0.043781
0.0418733
0.0397674
0.0390149
0.041337
0.0443108
0.0444206
0.0417587
0.0367455
0.014984
-0.0152056
-0.017676
-0.0197116
-0.0212341
-0.0221616
-0.0224212
-0.0219201
-0.0206075
-0.0183858
-0.0152613
-0.0111845
-0.006227
-0.000468802
0.00599185
0.0128587
0.0200595
0.0270588
0.0336707
0.0389747
0.042264
0.0430201
0.0418542
0.0402877
0.0397502
0.0417526
0.0441616
0.044031
0.0407127
0.035519
0.015188
-0.0143051
-0.0167306
-0.0187537
-0.0202851
-0.0212322
-0.0215178
-0.0210498
-0.0197805
-0.017619
-0.0145712
-0.0105922
-0.00575089
-0.000124823
0.00617976
0.0128848
0.0198978
0.026711
0.0331356
0.0383267
0.0416677
0.0426156
0.0418193
0.0405387
0.0401026
0.0419463
0.0440588
0.0437945
0.0401614
0.0347836
0.0152598
-0.248357
-0.252996
-0.257146
-0.26081
-0.263994
-0.26672
-0.269033
-0.271093
-0.273005
-0.275841
-0.278861
-0.290242
-0.229226
-0.233865
-0.23808
-0.241903
-0.245379
-0.248627
-0.251739
-0.255144
-0.258644
-0.263952
-0.26767
-0.278958
-0.211257
-0.21605
-0.220554
-0.224827
-0.228909
-0.232935
-0.236812
-0.240905
-0.2443
-0.248715
-0.250253
-0.258541
-0.194572
-0.199469
-0.204143
-0.20863
-0.212887
-0.21698
-0.220631
-0.224212
-0.226793
-0.230396
-0.232156
-0.239363
-0.17872
-0.183528
-0.188107
-0.192467
-0.196533
-0.200395
-0.203841
-0.207368
-0.210328
-0.214312
-0.217068
-0.223094
-0.163588
-0.168205
-0.172609
-0.176828
-0.180826
-0.184732
-0.188413
-0.192228
-0.19561
-0.199446
-0.202333
-0.20723
-0.149317
-0.153757
-0.158039
-0.162197
-0.16621
-0.170154
-0.173892
-0.177594
-0.180892
-0.184359
-0.187415
-0.191857
-0.135959
-0.140222
-0.144362
-0.148393
-0.152287
-0.156071
-0.159664
-0.163185
-0.166497
-0.169935
-0.173269
-0.177456
-0.123435
-0.127485
-0.131424
-0.135259
-0.138978
-0.142607
-0.146124
-0.149601
-0.152974
-0.156372
-0.159735
-0.163664
-0.111696
-0.115515
-0.119245
-0.122894
-0.126463
-0.129968
-0.133397
-0.136769
-0.140053
-0.143312
-0.146604
-0.150358
-0.100735
-0.104329
-0.107853
-0.111314
-0.11471
-0.118046
-0.121315
-0.124527
-0.127683
-0.130827
-0.134042
-0.137637
-0.0905219
-0.093889
-0.0971981
-0.100452
-0.103651
-0.106799
-0.109898
-0.112957
-0.115985
-0.119001
-0.122087
-0.125485
-0.0810163
-0.0841562
-0.0872472
-0.0902921
-0.0932939
-0.0962559
-0.0991817
-0.102073
-0.10494
-0.107793
-0.110714
-0.113899
-0.072186
-0.075105
-0.077983
-0.0808224
-0.0836258
-0.0863952
-0.0891335
-0.0918419
-0.0945311
-0.0972102
-0.0999542
-0.102918
-0.063999
-0.0667049
-0.0693751
-0.0720114
-0.0746162
-0.0771911
-0.0797395
-0.0822628
-0.0847713
-0.08727
-0.0898265
-0.0925608
-0.0589264
-0.0613957
-0.0638347
-0.0662457
-0.06863
-0.070991
-0.0733292
-0.0756538
-0.0779673
-0.0803304
-0.0828353
-0.0517425
-0.05402
-0.0562699
-0.0584938
-0.060693
-0.0628702
-0.0650256
-0.0671678
-0.0692972
-0.0714679
-0.0737492
-0.045125
-0.0472213
-0.0492915
-0.0513371
-0.0533588
-0.0553592
-0.0573382
-0.0593033
-0.0612538
-0.0632368
-0.0653035
-0.0390507
-0.040977
-0.0428783
-0.0447554
-0.0466093
-0.0484418
-0.0502527
-0.0520486
-0.0538277
-0.0556307
-0.0574946
-0.0334966
-0.0352651
-0.037009
-0.0387291
-0.0404259
-0.0421009
-0.0437539
-0.0453902
-0.0470079
-0.0486412
-0.0503164
-0.0284433
-0.0300666
-0.0316655
-0.0332406
-0.0347921
-0.0363213
-0.0378278
-0.039316
-0.0407837
-0.0422595
-0.0437614
-0.023875
-0.0253659
-0.0268325
-0.0282752
-0.0296939
-0.0310897
-0.0324621
-0.0338146
-0.035145
-0.0364767
-0.0378215
-0.0197774
-0.0211493
-0.0224968
-0.0238202
-0.0251193
-0.0263947
-0.0276461
-0.0288762
-0.030083
-0.031285
-0.0324894
-0.0161435
-0.0174097
-0.0186514
-0.0198687
-0.0210615
-0.0222301
-0.0233741
-0.0244955
-0.0255925
-0.0266798
-0.0277608
-0.0129687
-0.0141424
-0.0152918
-0.0164166
-0.0175167
-0.0185922
-0.0196427
-0.0206697
-0.0216715
-0.0226593
-0.0236341
-0.0102567
-0.0113516
-0.0124223
-0.0134684
-0.0144897
-0.0154862
-0.0164575
-0.0174045
-0.0183259
-0.0192298
-0.0201153
-0.00801292
-0.009043
-0.010049
-0.0110307
-0.0119876
-0.0129198
-0.0138266
-0.0147089
-0.0155652
-0.0164015
-0.0172154
-0.00626233
-0.00724156
-0.00819709
-0.00912853
-0.0100355
-0.0109179
-0.0117752
-0.0126078
-0.0134146
-0.0141995
-0.0149595
-0.00502458
-0.00596931
-0.00689083
-0.00778874
-0.00866264
-0.00951222
-0.0103371
-0.0111372
-0.0119117
-0.0126631
-0.0133876
-0.00434595
-0.00526917
-0.00617019
-0.00704867
-0.00790423
-0.00873662
-0.00954543
-0.0103307
-0.0110915
-0.0118296
-0.012541
-0.048229
-0.0331759
-0.0131483
)
;

boundaryField
{
    inlet
    {
        type            zeroGradient;
    }
    outlet
    {
        type            fixedValue;
        value           uniform 0;
    }
    cylinder
    {
        type            zeroGradient;
    }
    top
    {
        type            symmetryPlane;
    }
    bottom
    {
        type            symmetryPlane;
    }
    defaultFaces
    {
        type            empty;
    }
    procBoundary3to1
    {
        type            processor;
        value           nonuniform List<scalar> 
41
(
-0.434329
-0.43583
-0.436557
-0.438001
-0.440763
-0.445107
-0.451162
-0.459066
-0.468849
-0.480685
-0.503417
-0.526731
-0.53376
-0.499579
-0.427576
-0.35003
-0.305132
-0.30652
-0.315878
-0.296223
-0.239581
-0.174389
-0.138375
-0.118072
-0.118981
-0.144629
-0.153111
-0.129893
-0.10868
-0.0842948
-0.0763634
-0.0619738
-0.0529034
-0.0720741
-0.0814264
-0.060036
-0.0437595
-0.0482727
-0.0331783
-0.0131663
-0.0437595
)
;
    }
    procBoundary3to2
    {
        type            processor;
        value           nonuniform List<scalar> 
50
(
-0.396457
-0.396457
-0.398251
-0.398251
-0.40367
-0.403459
-0.403459
-0.400946
-0.400946
-0.394972
-0.380671
-0.380671
-0.361996
-0.361996
-0.33475
-0.33475
-0.301657
-0.272603
-0.272603
-0.243224
-0.22415
-0.206144
-0.189438
-0.173698
-0.158773
-0.144719
-0.131572
-0.11928
-0.107787
-0.097069
-0.0870945
-0.0778251
-0.0692236
-0.0612553
-0.0564252
-0.0564252
-0.0494359
-0.0430016
-0.0370985
-0.031703
-0.0267954
-0.0223596
-0.0183812
-0.0148532
-0.0117708
-0.00913785
-0.00695921
-0.0052598
-0.00405711
-0.00340093
)
;
    }
}


// ************************************************************************* //
