# Probe 0 (2 -0.5 0)
# Probe 1 (2 0.5 0)
#       Probe             0             1
#        Time
        0.005      -9.18673      -9.18673
         0.01       0.18767      0.187669
        0.015      -0.27558      -0.27558
         0.02     -0.220188     -0.220188
        0.025     -0.177281     -0.177281
         0.03     -0.145774     -0.145774
        0.035      -0.12318      -0.12318
         0.04     -0.106643     -0.106643
        0.045      -0.09423    -0.0942299
         0.05    -0.0846653    -0.0846653
        0.055    -0.0771084    -0.0771083
         0.06     -0.070992    -0.0709919
        0.065    -0.0659325    -0.0659325
         0.07    -0.0616592    -0.0616592
        0.075     -0.057984     -0.057984
         0.08     -0.054779    -0.0547789
        0.085    -0.0519453    -0.0519453
         0.09    -0.0494123    -0.0494122
        0.095    -0.0471253    -0.0471253
          0.1    -0.0450434    -0.0450433
        0.105     -0.043138     -0.043138
         0.11    -0.0413831    -0.0413831
        0.115    -0.0397584    -0.0397584
         0.12    -0.0382467    -0.0382467
        0.125    -0.0368334    -0.0368333
         0.13    -0.0355105    -0.0355105
        0.135    -0.0342686    -0.0342686
         0.14    -0.0330982    -0.0330982
        0.145    -0.0319934    -0.0319934
         0.15    -0.0309481    -0.0309481
        0.155    -0.0299552    -0.0299552
         0.16    -0.0290132    -0.0290132
        0.165     -0.028116     -0.028116
         0.17    -0.0272611    -0.0272611
        0.175    -0.0264452    -0.0264452
         0.18    -0.0256646    -0.0256645
        0.185    -0.0249178    -0.0249178
         0.19    -0.0242014    -0.0242014
        0.195    -0.0235158    -0.0235158
          0.2    -0.0228555    -0.0228555
        0.205    -0.0222197    -0.0222196
         0.21    -0.0216082    -0.0216082
        0.215    -0.0210205    -0.0210205
         0.22    -0.0204516    -0.0204516
        0.225    -0.0199027    -0.0199027
         0.23    -0.0193713    -0.0193713
        0.235    -0.0188652    -0.0188651
         0.24    -0.0183694    -0.0183694
        0.245    -0.0178895    -0.0178895
         0.25    -0.0174248    -0.0174248
        0.255    -0.0169732    -0.0169732
         0.26    -0.0165361    -0.0165361
        0.265    -0.0161119    -0.0161119
         0.27    -0.0156996    -0.0156996
        0.275    -0.0152984    -0.0152984
         0.28    -0.0149106    -0.0149106
        0.285    -0.0145289    -0.0145289
         0.29    -0.0141587    -0.0141587
        0.295    -0.0138004    -0.0138004
          0.3    -0.0134492    -0.0134492
        0.305    -0.0131078    -0.0131078
         0.31    -0.0127741    -0.0127741
        0.315    -0.0124489    -0.0124489
         0.32    -0.0121304    -0.0121304
        0.325    -0.0118182    -0.0118182
         0.33    -0.0115153    -0.0115153
        0.335    -0.0112178    -0.0112178
         0.34    -0.0109291    -0.0109291
        0.345    -0.0106486    -0.0106486
         0.35    -0.0103702    -0.0103702
        0.355    -0.0100981    -0.0100981
         0.36   -0.00983156   -0.00983156
        0.365   -0.00957035   -0.00957035
         0.37   -0.00931366   -0.00931366
        0.375   -0.00906542   -0.00906542
         0.38   -0.00881992   -0.00881992
        0.385   -0.00857566   -0.00857566
         0.39   -0.00833894   -0.00833895
        0.395   -0.00810765   -0.00810765
          0.4   -0.00787959    -0.0078796
        0.405   -0.00765545   -0.00765545
         0.41   -0.00743566   -0.00743566
        0.415   -0.00721773   -0.00721773
         0.42   -0.00700737   -0.00700737
        0.425   -0.00679847   -0.00679847
         0.43   -0.00659304   -0.00659304
        0.435   -0.00639097   -0.00639097
         0.44   -0.00619189   -0.00619189
        0.445    -0.0059954    -0.0059954
         0.45   -0.00580491   -0.00580491
        0.455   -0.00561573   -0.00561574
         0.46   -0.00542875   -0.00542875
        0.465   -0.00524348   -0.00524347
         0.47   -0.00506273   -0.00506273
        0.475   -0.00488652   -0.00488652
         0.48   -0.00471368   -0.00471368
        0.485   -0.00454093   -0.00454094
         0.49   -0.00437011   -0.00437012
        0.495   -0.00420186   -0.00420188
          0.5   -0.00403615   -0.00403617
        0.505   -0.00387308   -0.00387309
         0.51   -0.00371292   -0.00371292
        0.515   -0.00354955   -0.00354953
         0.52   -0.00339436   -0.00339438
        0.525    -0.0032415    -0.0032415
         0.53   -0.00308875   -0.00308873
        0.535   -0.00293783   -0.00293782
         0.54   -0.00278943   -0.00278943
        0.545   -0.00264213   -0.00264212
         0.55   -0.00249722   -0.00249721
        0.555   -0.00235369   -0.00235368
         0.56   -0.00221471   -0.00221471
        0.565   -0.00207523   -0.00207521
         0.57   -0.00193594   -0.00193592
        0.575    -0.0017997   -0.00179966
         0.58   -0.00166517   -0.00166513
        0.585   -0.00153343    -0.0015334
         0.59   -0.00140173   -0.00140169
        0.595   -0.00127461   -0.00127459
          0.6   -0.00114664    -0.0011466
        0.605   -0.00102023   -0.00102019
         0.61  -0.000895217  -0.000895185
        0.615  -0.000772206  -0.000772176
         0.62  -0.000650369  -0.000650337
        0.625  -0.000529974  -0.000529945
         0.63   -0.00041091  -0.000410909
        0.635  -0.000293114  -0.000293096
         0.64  -0.000175594   -0.00017559
        0.645  -6.11433e-05  -6.11234e-05
         0.65   5.18927e-05   5.19027e-05
        0.655   0.000162243   0.000162263
         0.66   0.000271583    0.00027159
        0.665   0.000379956   0.000379966
         0.67   0.000488447   0.000488452
        0.675   0.000593404   0.000593414
         0.68   0.000699178   0.000699183
        0.685   0.000803519   0.000803528
         0.69   0.000905942   0.000905948
        0.695    0.00100822    0.00100823
          0.7    0.00111188    0.00111189
        0.705    0.00121222    0.00121224
         0.71    0.00130904    0.00130902
        0.715    0.00140531    0.00140534
         0.72    0.00150149    0.00150151
        0.725    0.00159599      0.001596
         0.73    0.00168934    0.00168935
        0.735    0.00178129     0.0017813
         0.74    0.00187317    0.00187318
        0.745    0.00196382    0.00196383
         0.75    0.00205409    0.00205409
        0.755    0.00214058     0.0021406
         0.76    0.00222576    0.00222577
        0.765    0.00230965    0.00230966
         0.77    0.00239495    0.00239495
        0.775    0.00247907    0.00247908
         0.78     0.0025599     0.0025599
        0.785    0.00263955    0.00263955
         0.79    0.00271958    0.00271959
        0.795    0.00279866    0.00279866
          0.8    0.00287637    0.00287638
        0.805    0.00295296    0.00295297
         0.81     0.0030284     0.0030284
        0.815     0.0031027     0.0031027
         0.82    0.00317584    0.00317585
        0.825    0.00324787    0.00324788
         0.83    0.00331881    0.00331881
        0.835    0.00338869    0.00338869
         0.84    0.00345768    0.00345769
        0.845     0.0035257     0.0035257
         0.85    0.00359231    0.00359232
        0.855    0.00365557    0.00365558
         0.86    0.00372029    0.00372029
        0.865    0.00378445    0.00378445
         0.87    0.00384483    0.00384482
        0.875    0.00390445    0.00390445
         0.88    0.00396456    0.00396456
        0.885    0.00402333    0.00402334
         0.89    0.00408093    0.00408094
        0.895    0.00413743    0.00413744
          0.9    0.00419273    0.00419273
        0.905    0.00424703    0.00424703
         0.91    0.00430046    0.00430046
        0.915    0.00435425    0.00435425
         0.92    0.00440036    0.00440036
        0.925    0.00444861    0.00444861
         0.93    0.00449557    0.00449558
        0.935     0.0045412     0.0045412
         0.94     0.0045874     0.0045874
        0.945    0.00463352    0.00463352
         0.95    0.00467483    0.00467484
        0.955    0.00471691    0.00471691
         0.96    0.00475788    0.00475788
        0.965    0.00479734    0.00479735
         0.97    0.00483492    0.00483493
        0.975    0.00487395    0.00487395
         0.98    0.00491122    0.00491122
        0.985    0.00494684    0.00494684
         0.99     0.0049811     0.0049811
        0.995    0.00500969     0.0050097
            1    0.00504031    0.00504032
        1.005    0.00507003    0.00507004
         1.01    0.00509843    0.00509843
        1.015     0.0051255     0.0051255
         1.02    0.00515121    0.00515122
        1.025    0.00517586    0.00517586
         1.03    0.00519837    0.00519838
        1.035       0.00522    0.00522001
         1.04    0.00524052    0.00524052
        1.045    0.00526021    0.00526021
         1.05    0.00527739    0.00527739
        1.055    0.00529232    0.00529232
         1.06    0.00530751    0.00530752
        1.065    0.00532163    0.00532164
         1.07     0.0053341     0.0053341
        1.075    0.00534454    0.00534454
         1.08    0.00535274    0.00535274
        1.085    0.00535942    0.00535942
         1.09    0.00536622    0.00536622
        1.095    0.00537148    0.00537148
          1.1    0.00537534    0.00537534
        1.105    0.00537797    0.00537797
         1.11    0.00537751    0.00537752
        1.115    0.00537679    0.00537679
         1.12    0.00537456    0.00537457
        1.125    0.00536999       0.00537
         1.13    0.00536323    0.00536324
        1.135    0.00535661    0.00535661
         1.14    0.00534852    0.00534852
        1.145    0.00533912    0.00533913
         1.15    0.00532757    0.00532757
        1.155    0.00531507    0.00531508
         1.16    0.00529836    0.00529836
        1.165    0.00528236    0.00528236
         1.17    0.00526475    0.00526475
        1.175    0.00524538    0.00524538
         1.18    0.00522438    0.00522438
        1.185    0.00520177    0.00520177
         1.19    0.00517739    0.00517739
        1.195    0.00515144    0.00515144
          1.2    0.00512386    0.00512386
        1.205    0.00509454    0.00509454
         1.21    0.00506359    0.00506359
        1.215    0.00503099    0.00503099
         1.22    0.00499673    0.00499673
        1.225    0.00496098    0.00496098
         1.23    0.00492297    0.00492297
        1.235    0.00488341    0.00488342
         1.24    0.00484242    0.00484242
        1.245    0.00479985    0.00479985
         1.25      0.004756      0.004756
        1.255     0.0047085     0.0047085
         1.26    0.00466042    0.00466042
        1.265    0.00461084    0.00461084
         1.27    0.00455693    0.00455693
        1.275    0.00450163    0.00450163
         1.28    0.00444688    0.00444688
        1.285    0.00439013    0.00439013
         1.29    0.00433144    0.00433144
        1.295    0.00427074    0.00427074
          1.3    0.00420822    0.00420822
        1.305    0.00414391    0.00414391
         1.31    0.00407761    0.00407761
        1.315    0.00400911    0.00400911
         1.32    0.00393908    0.00393908
        1.325    0.00386731    0.00386731
         1.33    0.00379348    0.00379348
        1.335    0.00371687    0.00371687
         1.34    0.00363905    0.00363905
        1.345    0.00355946    0.00355946
         1.35    0.00347591    0.00347591
        1.355    0.00339222    0.00339221
         1.36    0.00330684    0.00330683
        1.365    0.00321947    0.00321947
         1.37       0.00313       0.00313
        1.375     0.0030384     0.0030384
         1.38    0.00294413    0.00294412
        1.385    0.00284987    0.00284986
         1.39    0.00275107    0.00275107
        1.395    0.00265134    0.00265134
          1.4    0.00255026    0.00255025
        1.405     0.0024471     0.0024471
         1.41    0.00234193    0.00234193
        1.415    0.00223489    0.00223489
         1.42    0.00212604    0.00212604
        1.425    0.00201328    0.00201328
         1.43    0.00189842    0.00189841
        1.435    0.00178316    0.00178316
         1.44    0.00166578    0.00166577
        1.445    0.00154647    0.00154646
         1.45    0.00142418    0.00142418
        1.455    0.00129908    0.00129907
         1.46    0.00117324    0.00117324
        1.465    0.00104558    0.00104557
         1.47   0.000915247    0.00091524
        1.475   0.000784023   0.000784017
         1.48   0.000649223   0.000649217
        1.485   0.000512814   0.000512808
         1.49   0.000374207     0.0003742
        1.495   0.000233511   0.000233504
          1.5   9.07037e-05   9.06965e-05
        1.505  -5.38307e-05  -5.38382e-05
         1.51  -0.000200933  -0.000200941
        1.515  -0.000351676  -0.000351684
         1.52  -0.000502848  -0.000502859
        1.525  -0.000656153  -0.000656161
         1.53  -0.000811912   -0.00081192
        1.535   -0.00096957  -0.000969578
         1.54   -0.00112946   -0.00112946
        1.545   -0.00129112   -0.00129113
         1.55   -0.00145595   -0.00145596
        1.555   -0.00162222   -0.00162223
         1.56   -0.00179063   -0.00179064
        1.565   -0.00196087   -0.00196086
         1.57   -0.00213353   -0.00213354
        1.575   -0.00230826   -0.00230826
         1.58   -0.00248482   -0.00248482
        1.585   -0.00266338   -0.00266339
         1.59   -0.00284618   -0.00284619
        1.595   -0.00303167   -0.00303167
          1.6   -0.00321721   -0.00321721
        1.605   -0.00340486   -0.00340486
         1.61   -0.00359546   -0.00359546
        1.615   -0.00378757   -0.00378757
         1.62   -0.00398139    -0.0039814
        1.625   -0.00417767   -0.00417766
         1.63   -0.00437587   -0.00437587
        1.635   -0.00457584   -0.00457585
         1.64   -0.00478017   -0.00478017
        1.645    -0.0049844   -0.00498441
         1.65   -0.00519201   -0.00519201
        1.655   -0.00540146   -0.00540147
         1.66   -0.00561256   -0.00561257
        1.665    -0.0058255    -0.0058255
         1.67   -0.00604196   -0.00604196
        1.675   -0.00626003   -0.00626004
         1.68   -0.00648105   -0.00648106
        1.685   -0.00670225   -0.00670225
         1.69   -0.00692807   -0.00692808
        1.695   -0.00715433   -0.00715434
          1.7   -0.00738304   -0.00738305
        1.705   -0.00761346   -0.00761347
         1.71   -0.00784575   -0.00784576
        1.715   -0.00808021   -0.00808022
         1.72   -0.00831684   -0.00831685
        1.725   -0.00855559    -0.0085556
         1.73   -0.00879643   -0.00879644
        1.735   -0.00903934   -0.00903935
         1.74   -0.00928427   -0.00928429
        1.745   -0.00953123   -0.00953124
         1.75   -0.00978007   -0.00978008
        1.755    -0.0100306    -0.0100306
         1.76    -0.0102828    -0.0102828
        1.765    -0.0105376    -0.0105377
         1.77    -0.0108009     -0.010801
        1.775    -0.0110596    -0.0110597
         1.78    -0.0113205    -0.0113205
        1.785    -0.0115834    -0.0115834
         1.79    -0.0118483    -0.0118484
        1.795    -0.0121156    -0.0121156
          1.8    -0.0123848    -0.0123849
        1.805    -0.0126561    -0.0126561
         1.81    -0.0129293    -0.0129293
        1.815    -0.0132047    -0.0132047
         1.82    -0.0134821    -0.0134821
        1.825    -0.0137619     -0.013762
         1.83    -0.0140464    -0.0140464
        1.835    -0.0143226    -0.0143226
         1.84    -0.0146076    -0.0146077
        1.845    -0.0148946    -0.0148946
         1.85    -0.0151835    -0.0151835
        1.855    -0.0154742    -0.0154742
         1.86    -0.0157668    -0.0157668
        1.865    -0.0160615    -0.0160615
         1.87    -0.0163585    -0.0163586
        1.875    -0.0166595    -0.0166595
         1.88    -0.0169517    -0.0169518
        1.885    -0.0172532    -0.0172532
         1.89    -0.0175563    -0.0175563
        1.895    -0.0178618    -0.0178618
          1.9    -0.0181699      -0.01817
        1.905    -0.0184785    -0.0184785
         1.91    -0.0187886    -0.0187887
        1.915     -0.019102     -0.019102
         1.92    -0.0194192    -0.0194193
        1.925     -0.019735     -0.019735
         1.93    -0.0200516    -0.0200516
        1.935      -0.02037      -0.02037
         1.94    -0.0206896    -0.0206897
        1.945    -0.0210131    -0.0210131
         1.95    -0.0213381    -0.0213381
        1.955    -0.0216636    -0.0216636
         1.96    -0.0219908    -0.0219908
        1.965    -0.0223199    -0.0223199
         1.97    -0.0226511    -0.0226511
        1.975    -0.0229863    -0.0229864
         1.98    -0.0233167    -0.0233167
        1.985    -0.0236463    -0.0236463
         1.99    -0.0239841    -0.0239841
        1.995    -0.0243228    -0.0243228
            2    -0.0246627    -0.0246627
        2.005    -0.0250035    -0.0250036
         2.01    -0.0253427    -0.0253427
        2.015    -0.0256937    -0.0256938
         2.02    -0.0260387    -0.0260387
        2.025    -0.0263871    -0.0263871
         2.03    -0.0267357    -0.0267357
        2.035    -0.0270855    -0.0270855
         2.04    -0.0274368    -0.0274368
        2.045    -0.0277893    -0.0277893
         2.05     -0.028143     -0.028143
        2.055     -0.028496     -0.028496
         2.06    -0.0288534    -0.0288535
        2.065     -0.029218    -0.0292181
         2.07    -0.0295771    -0.0295771
        2.075    -0.0299377    -0.0299377
         2.08    -0.0303002    -0.0303002
        2.085    -0.0306637    -0.0306637
         2.09    -0.0310284    -0.0310284
        2.095    -0.0313944    -0.0313944
          2.1    -0.0317616    -0.0317617
        2.105    -0.0321301    -0.0321302
         2.11    -0.0325003    -0.0325003
        2.115    -0.0328714    -0.0328714
         2.12    -0.0332432    -0.0332433
        2.125     -0.033616    -0.0336161
         2.13    -0.0339903    -0.0339904
        2.135     -0.034367     -0.034367
         2.14    -0.0347439    -0.0347439
        2.145    -0.0351206    -0.0351207
         2.15    -0.0355002    -0.0355002
        2.155    -0.0358794    -0.0358794
         2.16      -0.03626      -0.03626
        2.165    -0.0366399    -0.0366399
         2.17    -0.0370307    -0.0370308
        2.175    -0.0374192    -0.0374192
         2.18       -0.0378    -0.0378001
        2.185    -0.0381809     -0.038181
         2.19    -0.0385694    -0.0385695
        2.195    -0.0389574    -0.0389574
          2.2     -0.039346     -0.039346
        2.205    -0.0397352    -0.0397352
         2.21    -0.0401269    -0.0401269
        2.215    -0.0405197    -0.0405198
         2.22    -0.0409131    -0.0409131
        2.225    -0.0413073    -0.0413073
         2.23     -0.041701     -0.041701
        2.235    -0.0420965    -0.0420965
         2.24    -0.0424924    -0.0424925
        2.245    -0.0428896    -0.0428896
         2.25    -0.0432874    -0.0432874
        2.255    -0.0436864    -0.0436864
         2.26    -0.0440846    -0.0440847
        2.265    -0.0444843    -0.0444843
         2.27    -0.0448851    -0.0448852
        2.275    -0.0452864    -0.0452865
         2.28    -0.0456875    -0.0456875
        2.285    -0.0460907    -0.0460908
         2.29    -0.0464939    -0.0464939
        2.295    -0.0468977    -0.0468977
          2.3     -0.047302    -0.0473021
        2.305    -0.0477075    -0.0477076
         2.31    -0.0481123    -0.0481124
        2.315    -0.0485184    -0.0485184
         2.32    -0.0489251    -0.0489251
        2.325    -0.0493324    -0.0493325
         2.33    -0.0497425    -0.0497426
        2.335    -0.0501507    -0.0501508
         2.34    -0.0505595    -0.0505595
        2.345    -0.0509687    -0.0509687
         2.35    -0.0513777    -0.0513777
        2.355     -0.051789    -0.0517891
         2.36    -0.0521995    -0.0521996
        2.365    -0.0526102    -0.0526103
         2.37    -0.0530207    -0.0530207
        2.375    -0.0534307    -0.0534307
         2.38    -0.0538489    -0.0538489
        2.385     -0.054265     -0.054265
         2.39     -0.054681     -0.054681
        2.395    -0.0550937    -0.0550938
          2.4    -0.0555064    -0.0555064
        2.405    -0.0559215    -0.0559216
         2.41     -0.056336     -0.056336
        2.415    -0.0567508    -0.0567508
         2.42    -0.0571657    -0.0571658
        2.425    -0.0575811    -0.0575811
         2.43    -0.0579959     -0.057996
        2.435    -0.0584146    -0.0584147
         2.44     -0.058832     -0.058832
        2.445    -0.0592482    -0.0592483
         2.45    -0.0596648    -0.0596648
        2.455    -0.0600809    -0.0600809
         2.46    -0.0604971    -0.0604971
        2.465     -0.060917     -0.060917
         2.47    -0.0613341    -0.0613341
        2.475    -0.0617517    -0.0617517
         2.48    -0.0621695    -0.0621695
        2.485    -0.0625872    -0.0625873
         2.49    -0.0630043    -0.0630043
        2.495    -0.0634223    -0.0634224
          2.5    -0.0638421    -0.0638421
        2.505    -0.0642601    -0.0642601
         2.51     -0.064677    -0.0646771
        2.515    -0.0650952    -0.0650953
         2.52    -0.0655179    -0.0655179
        2.525     -0.065936     -0.065936
         2.53    -0.0663541    -0.0663541
        2.535     -0.066772     -0.066772
         2.54    -0.0671912    -0.0671912
        2.545    -0.0676098    -0.0676098
         2.55    -0.0680282    -0.0680283
        2.555    -0.0684465    -0.0684465
         2.56    -0.0688646    -0.0688646
        2.565    -0.0692841    -0.0692842
         2.57    -0.0697025    -0.0697026
        2.575    -0.0701208    -0.0701208
         2.58    -0.0705389    -0.0705389
        2.585    -0.0709561    -0.0709561
         2.59    -0.0713752    -0.0713753
        2.595    -0.0717933    -0.0717934
          2.6    -0.0722132    -0.0722132
        2.605    -0.0726282    -0.0726282
         2.61     -0.073044    -0.0730441
        2.615    -0.0734595    -0.0734596
         2.62    -0.0738787    -0.0738787
        2.625    -0.0742937    -0.0742937
         2.63    -0.0747097    -0.0747097
        2.635     -0.075127    -0.0751271
         2.64    -0.0755427    -0.0755427
        2.645    -0.0759572    -0.0759572
         2.65    -0.0763711    -0.0763712
        2.655    -0.0767909    -0.0767909
         2.66    -0.0772056    -0.0772056
        2.665    -0.0776201    -0.0776202
         2.67    -0.0780343    -0.0780344
        2.675    -0.0784482    -0.0784482
         2.68    -0.0788596    -0.0788596
        2.685    -0.0792759     -0.079276
         2.69    -0.0796887    -0.0796887
        2.695    -0.0801018    -0.0801019
          2.7    -0.0805138    -0.0805138
        2.705    -0.0809254    -0.0809255
         2.71     -0.081338     -0.081338
        2.715    -0.0817486    -0.0817487
         2.72    -0.0821623    -0.0821624
        2.725    -0.0825737    -0.0825737
         2.73    -0.0829833    -0.0829833
        2.735    -0.0833928    -0.0833928
         2.74    -0.0838019     -0.083802
        2.745    -0.0842104    -0.0842105
         2.75    -0.0846188    -0.0846188
        2.755    -0.0850248    -0.0850249
         2.76    -0.0854357    -0.0854357
        2.765    -0.0858427    -0.0858427
         2.77    -0.0862485    -0.0862485
        2.775    -0.0866557    -0.0866558
         2.78    -0.0870612    -0.0870612
        2.785    -0.0874668    -0.0874669
         2.79    -0.0878714    -0.0878715
        2.795    -0.0882752    -0.0882753
          2.8    -0.0886768    -0.0886769
        2.805     -0.089083     -0.089083
         2.81    -0.0894856    -0.0894856
        2.815    -0.0898876    -0.0898876
         2.82    -0.0902885    -0.0902886
        2.825    -0.0906921    -0.0906921
         2.83    -0.0910896    -0.0910896
        2.835    -0.0914896    -0.0914897
         2.84    -0.0918913    -0.0918913
        2.845    -0.0922905    -0.0922905
         2.85    -0.0926889    -0.0926889
        2.855    -0.0930868    -0.0930868
         2.86     -0.093484     -0.093484
        2.865    -0.0938845    -0.0938845
         2.87    -0.0942801    -0.0942802
        2.875     -0.094675     -0.094675
         2.88    -0.0950693    -0.0950693
        2.885     -0.095463     -0.095463
         2.89     -0.095856    -0.0958561
        2.895    -0.0962466    -0.0962466
          2.9    -0.0966407    -0.0966407
        2.905    -0.0970323    -0.0970323
         2.91    -0.0974236    -0.0974236
        2.915     -0.097812     -0.097812
         2.92    -0.0982015    -0.0982016
        2.925    -0.0985943    -0.0985944
         2.93    -0.0989816    -0.0989817
        2.935    -0.0993687    -0.0993687
         2.94    -0.0997559    -0.0997559
        2.945     -0.100142     -0.100142
         2.95     -0.100529     -0.100529
        2.955     -0.100912     -0.100912
         2.96     -0.101295     -0.101295
        2.965     -0.101678     -0.101678
         2.97      -0.10206      -0.10206
        2.975     -0.102441     -0.102441
         2.98     -0.102824     -0.102824
        2.985     -0.103203     -0.103203
         2.99     -0.103584     -0.103584
        2.995     -0.103964     -0.103964
            3     -0.104342     -0.104342
        3.005     -0.104719     -0.104719
         3.01     -0.105095     -0.105095
        3.015      -0.10547      -0.10547
         3.02     -0.105845     -0.105845
        3.025     -0.106222     -0.106222
         3.03     -0.106595     -0.106595
        3.035     -0.106968     -0.106968
         3.04      -0.10734      -0.10734
        3.045     -0.107712     -0.107712
         3.05     -0.108082     -0.108082
        3.055     -0.108452     -0.108452
         3.06     -0.108821     -0.108821
        3.065     -0.109189     -0.109189
         3.07     -0.109556     -0.109556
        3.075     -0.109923     -0.109923
         3.08      -0.11029      -0.11029
        3.085     -0.110655     -0.110655
         3.09     -0.111019     -0.111019
        3.095     -0.111382     -0.111382
          3.1     -0.111744     -0.111744
        3.105     -0.112106     -0.112106
         3.11     -0.112468     -0.112468
        3.115     -0.112827     -0.112827
         3.12     -0.113186     -0.113186
        3.125     -0.113542     -0.113542
         3.13     -0.113903     -0.113903
        3.135     -0.114259     -0.114259
         3.14     -0.114614     -0.114614
        3.145     -0.114969     -0.114969
         3.15     -0.115323     -0.115323
        3.155     -0.115678     -0.115678
         3.16      -0.11603      -0.11603
        3.165     -0.116382     -0.116382
         3.17     -0.116732     -0.116732
        3.175     -0.117082     -0.117082
         3.18     -0.117431     -0.117431
        3.185     -0.117779     -0.117779
         3.19     -0.118124     -0.118123
        3.195     -0.118473     -0.118473
          3.2     -0.118819     -0.118819
        3.205     -0.119165     -0.119165
         3.21     -0.119507     -0.119507
        3.215     -0.119849     -0.119849
         3.22     -0.120191     -0.120191
        3.225     -0.120533     -0.120533
         3.23     -0.120873     -0.120873
        3.235     -0.121211     -0.121211
         3.24     -0.121551     -0.121551
        3.245     -0.121889     -0.121889
         3.25     -0.122225     -0.122225
        3.255     -0.122561     -0.122561
         3.26     -0.122896     -0.122896
        3.265      -0.12323      -0.12323
         3.27     -0.123562     -0.123562
        3.275     -0.123895     -0.123895
         3.28     -0.124226     -0.124226
        3.285     -0.124556     -0.124556
         3.29     -0.124886     -0.124886
        3.295     -0.125215     -0.125215
          3.3     -0.125543     -0.125543
        3.305      -0.12587      -0.12587
         3.31     -0.126196     -0.126196
        3.315     -0.126524     -0.126524
         3.32     -0.126843     -0.126843
        3.325     -0.127166     -0.127166
         3.33     -0.127488     -0.127488
        3.335     -0.127808     -0.127808
         3.34     -0.128131     -0.128131
        3.345     -0.128452     -0.128452
         3.35      -0.12877      -0.12877
        3.355     -0.129089     -0.129089
         3.36     -0.129405     -0.129405
        3.365     -0.129719     -0.129719
         3.37     -0.130036     -0.130036
        3.375     -0.130349     -0.130349
         3.38     -0.130662     -0.130662
        3.385     -0.130975     -0.130974
         3.39     -0.131286     -0.131286
        3.395     -0.131596     -0.131596
          3.4     -0.131905     -0.131905
        3.405     -0.132212     -0.132212
         3.41     -0.132522     -0.132522
        3.415     -0.132829     -0.132829
         3.42     -0.133135     -0.133134
        3.425      -0.13344     -0.133439
         3.43     -0.133744     -0.133744
        3.435     -0.134046     -0.134046
         3.44     -0.134348     -0.134348
        3.445     -0.134648     -0.134648
         3.45     -0.134949     -0.134949
        3.455     -0.135249     -0.135249
         3.46     -0.135548     -0.135548
        3.465     -0.135845     -0.135845
         3.47     -0.136142     -0.136142
        3.475     -0.136436     -0.136436
         3.48     -0.136732     -0.136732
        3.485     -0.137027     -0.137026
         3.49     -0.137319     -0.137319
        3.495      -0.13761      -0.13761
          3.5     -0.137901     -0.137901
        3.505      -0.13819      -0.13819
         3.51     -0.138481     -0.138481
        3.515     -0.138769     -0.138769
         3.52     -0.139056     -0.139056
        3.525     -0.139342     -0.139342
         3.53     -0.139628     -0.139628
        3.535     -0.139912     -0.139912
         3.54     -0.140196     -0.140196
        3.545     -0.140479     -0.140479
         3.55     -0.140764     -0.140764
        3.555      -0.14104      -0.14104