# Probe 0 (2 -0.5 0)
# Probe 1 (2 0.5 0)
#       Probe             0             1
#        Time
        0.005             (0.957758 0.043011 -1.22855e-19)             (0.957758 -0.043011 7.77678e-20)
         0.01             (0.958451 0.0319684 2.06583e-21)             (0.958451 -0.0319684 -1.21036e-21)
        0.015             (0.957034 0.0311949 -3.66982e-21)             (0.957034 -0.0311949 2.28873e-21)
         0.02             (0.955891 0.0311212 -2.93895e-21)             (0.955891 -0.0311212 1.84297e-21)
        0.025             (0.954914 0.0312835 -2.37071e-21)             (0.954914 -0.0312835 1.49053e-21)
         0.03             (0.954058 0.0315378 -1.95257e-21)             (0.954058 -0.0315378 1.22975e-21)
        0.035             (0.95329 0.0318335 -1.65214e-21)             (0.95329 -0.0318335 1.04184e-21)
         0.04             (0.952588 0.0321489 -1.4318e-21)             (0.952588 -0.0321489 9.03694e-22)
        0.045             (0.951935 0.0324734 -1.26603e-21)             (0.951935 -0.0324734 7.9956e-22)
         0.05             (0.951322 0.0328017 -1.13804e-21)             (0.951322 -0.0328017 7.19013e-22)
        0.055             (0.95074 0.0331308 -1.03673e-21)             (0.95074 -0.0331308 6.55158e-22)
         0.06             (0.950183 0.033459 -9.54607e-22)             (0.950183 -0.033459 6.03328e-22)
        0.065             (0.949647 0.0337853 -8.86598e-22)             (0.949647 -0.0337853 5.60356e-22)
         0.07             (0.949129 0.0341094 -8.29113e-22)             (0.949129 -0.0341094 5.24005e-22)
        0.075             (0.948626 0.0344309 -7.79661e-22)             (0.948626 -0.0344309 4.92715e-22)
         0.08             (0.948137 0.0347498 -7.36531e-22)             (0.948137 -0.0347498 4.65416e-22)
        0.085             (0.947658 0.0350661 -6.98403e-22)             (0.947658 -0.0350661 4.41277e-22)
         0.09             (0.94719 0.0353799 -6.6433e-22)             (0.94719 -0.0353799 4.19703e-22)
        0.095             (0.946731 0.0356913 -6.33582e-22)             (0.946731 -0.0356913 4.00234e-22)
          0.1             (0.94628 0.0360004 -6.05604e-22)             (0.94628 -0.0360004 3.82521e-22)
        0.105             (0.945836 0.0363076 -5.80011e-22)             (0.945836 -0.0363076 3.66319e-22)
         0.11             (0.945399 0.0366128 -5.56453e-22)             (0.945399 -0.0366128 3.51408e-22)
        0.115             (0.944967 0.0369164 -5.34654e-22)             (0.944967 -0.0369164 3.37613e-22)
         0.12             (0.944541 0.0372184 -5.14384e-22)             (0.944541 -0.0372184 3.24788e-22)
        0.125             (0.94412 0.0375189 -4.95444e-22)             (0.94412 -0.0375189 3.12807e-22)
         0.13             (0.943704 0.0378183 -4.77723e-22)             (0.943704 -0.0378183 3.01598e-22)
        0.135             (0.943292 0.0381165 -4.61098e-22)             (0.943292 -0.0381165 2.91085e-22)
         0.14             (0.942884 0.0384138 -4.45438e-22)             (0.942884 -0.0384138 2.81185e-22)
        0.145             (0.942479 0.0387102 -4.30662e-22)             (0.942479 -0.0387102 2.71845e-22)
         0.15             (0.942078 0.0390059 -4.16688e-22)             (0.942078 -0.0390059 2.63013e-22)
        0.155             (0.941679 0.039301 -4.03421e-22)             (0.941679 -0.039301 2.5463e-22)
         0.16             (0.941284 0.0395957 -3.90841e-22)             (0.941284 -0.0395957 2.46683e-22)
        0.165             (0.940891 0.0398899 -3.78865e-22)             (0.940891 -0.0398899 2.39118e-22)
         0.17             (0.940501 0.0401838 -3.67458e-22)             (0.940501 -0.0401839 2.31915e-22)
        0.175             (0.940113 0.0404776 -3.56577e-22)             (0.940113 -0.0404776 2.25045e-22)
         0.18             (0.939727 0.0407712 -3.46171e-22)             (0.939727 -0.0407712 2.18476e-22)
        0.185             (0.939343 0.0410648 -3.36222e-22)             (0.939343 -0.0410648 2.12196e-22)
         0.19             (0.938961 0.0413584 -3.26681e-22)             (0.938961 -0.0413584 2.06176e-22)
        0.195             (0.938581 0.0416522 -3.17555e-22)             (0.938581 -0.0416522 2.00418e-22)
          0.2             (0.938202 0.0419461 -3.0877e-22)             (0.938202 -0.0419461 1.94877e-22)
        0.205             (0.937825 0.0422403 -3.00314e-22)             (0.937825 -0.0422403 1.89544e-22)
         0.21             (0.937449 0.0425348 -2.92187e-22)             (0.937449 -0.0425348 1.84421e-22)
        0.215             (0.937075 0.0428297 -2.84381e-22)             (0.937075 -0.0428297 1.795e-22)
         0.22             (0.936701 0.043125 -2.76827e-22)             (0.936701 -0.043125 1.7474e-22)
        0.225             (0.936329 0.0434208 -2.69543e-22)             (0.936329 -0.0434208 1.7015e-22)
         0.23             (0.935958 0.0437171 -2.62495e-22)             (0.935958 -0.0437172 1.6571e-22)
        0.235             (0.935587 0.0440141 -2.55787e-22)             (0.935587 -0.0440141 1.61486e-22)
         0.24             (0.935218 0.0443117 -2.4922e-22)             (0.935218 -0.0443117 1.57351e-22)
        0.245             (0.934849 0.04461 -2.42865e-22)             (0.934849 -0.04461 1.53351e-22)
         0.25             (0.934481 0.0449091 -2.36716e-22)             (0.934481 -0.0449091 1.49482e-22)
        0.255             (0.934114 0.0452089 -2.30744e-22)             (0.934114 -0.0452089 1.45725e-22)
         0.26             (0.933747 0.0455095 -2.24967e-22)             (0.933747 -0.0455096 1.42091e-22)
        0.265             (0.933381 0.0458111 -2.19366e-22)             (0.933381 -0.0458111 1.38569e-22)
         0.27             (0.933015 0.0461135 -2.13924e-22)             (0.933015 -0.0461135 1.35149e-22)
        0.275             (0.932649 0.0464169 -2.08633e-22)             (0.932649 -0.0464169 1.31824e-22)
         0.28             (0.932284 0.0467212 -2.03522e-22)             (0.932284 -0.0467213 1.28613e-22)
        0.285             (0.93192 0.0470266 -1.98493e-22)             (0.93192 -0.0470266 1.25455e-22)
         0.29             (0.931555 0.0473331 -1.93621e-22)             (0.931555 -0.0473331 1.22396e-22)
        0.295             (0.931191 0.0476406 -1.88909e-22)             (0.931191 -0.0476406 1.19439e-22)
          0.3             (0.930827 0.0479493 -1.84295e-22)             (0.930827 -0.0479493 1.16544e-22)
        0.305             (0.930463 0.0482591 -1.79811e-22)             (0.930463 -0.0482592 1.13732e-22)
         0.31             (0.9301 0.0485702 -1.75432e-22)             (0.9301 -0.0485702 1.10987e-22)
        0.315             (0.929736 0.0488824 -1.7117e-22)             (0.929736 -0.0488825 1.08316e-22)
         0.32             (0.929373 0.049196 -1.66998e-22)             (0.929373 -0.049196 1.05702e-22)
        0.325             (0.929009 0.0495108 -1.62911e-22)             (0.929009 -0.0495108 1.03142e-22)
         0.33             (0.928645 0.0498269 -1.5895e-22)             (0.928645 -0.049827 1.00663e-22)
        0.335             (0.928282 0.0501444 -1.55063e-22)             (0.928282 -0.0501444 9.82305e-23)
         0.34             (0.927918 0.0504633 -1.51295e-22)             (0.927918 -0.0504633 9.58738e-23)
        0.345             (0.927554 0.0507836 -1.47639e-22)             (0.927554 -0.0507836 9.35887e-23)
         0.35             (0.92719 0.0511053 -1.44012e-22)             (0.92719 -0.0511053 9.13221e-23)
        0.355             (0.926826 0.0514285 -1.4047e-22)             (0.926826 -0.0514285 8.91099e-23)
         0.36             (0.926462 0.0517532 -1.37005e-22)             (0.926462 -0.0517532 8.69461e-23)
        0.365             (0.926097 0.0520794 -1.33612e-22)             (0.926097 -0.0520794 8.48287e-23)
         0.37             (0.925733 0.0524071 -1.30281e-22)             (0.925733 -0.0524071 8.27512e-23)
        0.375             (0.925368 0.0527364 -1.27065e-22)             (0.925368 -0.0527365 8.07464e-23)
         0.38             (0.925002 0.0530673 -1.23887e-22)             (0.925002 -0.0530674 7.87663e-23)
        0.385             (0.924637 0.0533999 -1.20726e-22)             (0.924637 -0.0533999 7.67976e-23)
         0.39             (0.924271 0.053734 -1.17669e-22)             (0.924271 -0.053734 7.48946e-23)
        0.395             (0.923904 0.0540699 -1.14685e-22)             (0.923904 -0.0540699 7.30388e-23)
          0.4             (0.923538 0.0544074 -1.11747e-22)             (0.923538 -0.0544074 7.12118e-23)
        0.405             (0.923171 0.0547466 -1.08862e-22)             (0.923171 -0.0547467 6.94193e-23)
         0.41             (0.922803 0.0550876 -1.06037e-22)             (0.922803 -0.0550877 6.76652e-23)
        0.415             (0.922435 0.0554304 -1.03238e-22)             (0.922435 -0.0554304 6.59281e-23)
         0.42             (0.922067 0.0557749 -1.00543e-22)             (0.922067 -0.055775 6.42567e-23)
        0.425             (0.921698 0.0561213 -9.78684e-23)             (0.921698 -0.0561213 6.25991e-23)
         0.43             (0.921329 0.0564695 -9.5242e-23)             (0.921329 -0.0564695 6.09724e-23)
        0.435             (0.92096 0.0568195 -9.2662e-23)             (0.92096 -0.0568195 5.93755e-23)
         0.44             (0.920589 0.0571714 -9.01239e-23)             (0.920589 -0.0571714 5.78056e-23)
        0.445             (0.920219 0.0575252 -8.76219e-23)             (0.920219 -0.0575252 5.6259e-23)
         0.45             (0.919847 0.0578809 -8.5202e-23)             (0.919847 -0.057881 5.47649e-23)
        0.455             (0.919476 0.0582386 -8.28014e-23)             (0.919476 -0.0582386 5.32835e-23)
         0.46             (0.919103 0.0585982 -8.04318e-23)             (0.919103 -0.0585982 5.18222e-23)
        0.465             (0.918731 0.0589598 -7.80868e-23)             (0.918731 -0.0589598 5.0377e-23)
         0.47             (0.918357 0.0593234 -7.5804e-23)             (0.918357 -0.0593234 4.89716e-23)
        0.475             (0.917983 0.059689 -7.3584e-23)             (0.917983 -0.059689 4.76066e-23)
         0.48             (0.917608 0.0600567 -7.14108e-23)             (0.917608 -0.0600567 4.62717e-23)
        0.485             (0.917233 0.0604264 -6.92406e-23)             (0.917233 -0.0604264 4.49393e-23)
         0.49             (0.916857 0.0607982 -6.70979e-23)             (0.916857 -0.0607982 4.36247e-23)
        0.495             (0.916481 0.0611721 -6.49914e-23)             (0.916481 -0.0611721 4.23336e-23)
          0.5             (0.916104 0.0615481 -6.2921e-23)             (0.916104 -0.0615481 4.10658e-23)
        0.505             (0.915726 0.0619262 -6.08876e-23)             (0.915726 -0.0619263 3.98221e-23)
         0.51             (0.915347 0.0623065 -5.8895e-23)             (0.915347 -0.0623066 3.86048e-23)
        0.515             (0.914968 0.062689 -5.68613e-23)             (0.914968 -0.062689 3.73617e-23)
         0.52             (0.914588 0.0630736 -5.49393e-23)             (0.914588 -0.0630737 3.61906e-23)
        0.525             (0.914208 0.0634605 -5.30503e-23)             (0.914208 -0.0634605 3.50404e-23)
         0.53             (0.913827 0.0638495 -5.11647e-23)             (0.913827 -0.0638496 3.38931e-23)
        0.535             (0.913445 0.0642408 -4.93057e-23)             (0.913445 -0.0642409 3.27632e-23)
         0.54             (0.913062 0.0646344 -4.74825e-23)             (0.913062 -0.0646344 3.16567e-23)
        0.545             (0.912679 0.0650302 -4.56758e-23)             (0.912679 -0.0650303 3.05612e-23)
         0.55             (0.912295 0.0654284 -4.39033e-23)             (0.912295 -0.0654284 2.9488e-23)
        0.555             (0.91191 0.0658288 -4.21514e-23)             (0.91191 -0.0658288 2.84285e-23)
         0.56             (0.911524 0.0662315 -4.04625e-23)             (0.911524 -0.0662316 2.74096e-23)
        0.565             (0.911138 0.0666366 -3.8769e-23)             (0.911138 -0.0666367 2.63881e-23)
         0.57             (0.910751 0.067044 -3.70806e-23)             (0.910751 -0.0670441 2.53709e-23)
        0.575             (0.910363 0.0674538 -3.54348e-23)             (0.910363 -0.0674539 2.4381e-23)
         0.58             (0.909974 0.067866 -3.3814e-23)             (0.909974 -0.067866 2.34078e-23)
        0.585             (0.909585 0.0682806 -3.22329e-23)             (0.909585 -0.0682806 2.24604e-23)
         0.59             (0.909195 0.0686975 -3.06545e-23)             (0.909195 -0.0686976 2.15152e-23)
        0.595             (0.908804 0.0691169 -2.91397e-23)             (0.908804 -0.069117 2.06114e-23)
          0.6             (0.908412 0.0695388 -2.76159e-23)             (0.908412 -0.0695388 1.97021e-23)
        0.605             (0.90802 0.0699631 -2.61152e-23)             (0.90802 -0.0699631 1.88084e-23)
         0.61             (0.907626 0.0703898 -2.46356e-23)             (0.907626 -0.0703899 1.79289e-23)
        0.615             (0.907232 0.070819 -2.31851e-23)             (0.907232 -0.0708191 1.70683e-23)
         0.62             (0.906837 0.0712508 -2.17527e-23)             (0.906837 -0.0712508 1.62201e-23)
        0.625             (0.906441 0.071685 -2.03421e-23)             (0.906441 -0.071685 1.53864e-23)
         0.63             (0.906045 0.0721217 -1.89518e-23)             (0.906045 -0.0721218 1.45664e-23)
        0.635             (0.905647 0.072561 -1.75808e-23)             (0.905647 -0.072561 1.37592e-23)
         0.64             (0.905249 0.0730028 -1.62161e-23)             (0.905249 -0.0730028 1.2957e-23)
        0.645             (0.90485 0.0734471 -1.48949e-23)             (0.90485 -0.0734472 1.21828e-23)
         0.65             (0.90445 0.073894 -1.35951e-23)             (0.90445 -0.0738941 1.14231e-23)
        0.655             (0.904049 0.0743435 -1.2334e-23)             (0.904049 -0.0743435 1.06887e-23)
         0.66             (0.903647 0.0747955 -1.1089e-23)             (0.903647 -0.0747956 9.96549e-24)
        0.665             (0.903244 0.0752502 -9.85956e-24)             (0.903244 -0.0752503 9.25276e-24)
         0.67             (0.902841 0.0757074 -8.63115e-24)             (0.902841 -0.0757075 8.54157e-24)
        0.675             (0.902437 0.0761673 -7.45262e-24)             (0.902437 -0.0761674 7.8627e-24)
         0.68             (0.902031 0.0766298 -6.26597e-24)             (0.902031 -0.0766298 7.17964e-24)
        0.685             (0.901625 0.0770949 -5.10113e-24)             (0.901625 -0.0770949 6.51117e-24)
         0.69             (0.901218 0.0775626 -3.96475e-24)             (0.901218 -0.0775627 5.86166e-24)
        0.695             (0.90081 0.078033 -2.83307e-24)             (0.90081 -0.0780331 5.21592e-24)
          0.7             (0.900402 0.078506 -1.68561e-24)             (0.900402 -0.0785061 4.56114e-24)
        0.705             (0.899992 0.0789817 -5.85552e-25)             (0.899992 -0.0789817 3.93721e-24)
         0.71             (0.899581 0.07946 4.64452e-25)             (0.899581 -0.07946 3.34635e-24)
        0.715             (0.89917 0.079941 1.50489e-24)             (0.89917 -0.079941 2.76137e-24)
         0.72             (0.898758 0.0804246 2.54057e-24)             (0.898758 -0.0804247 2.18126e-24)
        0.725             (0.898344 0.080911 3.55095e-24)             (0.898344 -0.080911 1.61784e-24)
         0.73             (0.89793 0.0814 4.54301e-24)             (0.89793 -0.0814 1.06698e-24)
        0.735             (0.897515 0.0818917 5.51343e-24)             (0.897515 -0.0818917 5.30756e-25)
         0.74             (0.897099 0.0823861 6.47994e-24)             (0.897099 -0.0823861 -1.96202e-27)
        0.745             (0.896682 0.0828831 7.42692e-24)             (0.896682 -0.0828832 -5.21465e-25)
         0.75             (0.896264 0.0833829 8.36558e-24)             (0.896264 -0.083383 -1.03462e-24)
        0.755             (0.895845 0.0838854 9.25081e-24)             (0.895845 -0.0838854 -1.51306e-24)
         0.76             (0.895425 0.0843905 1.01152e-23)             (0.895425 -0.0843906 -1.97721e-24)
        0.765             (0.895005 0.0848984 1.09593e-23)             (0.895005 -0.0848985 -2.42758e-24)
         0.77             (0.894583 0.085409 1.18191e-23)             (0.894583 -0.085409 -2.88677e-24)
        0.775             (0.89416 0.0859222 1.26601e-23)             (0.89416 -0.0859223 -3.33308e-24)
         0.78             (0.893737 0.0864382 1.34537e-23)             (0.893737 -0.0864382 -3.74845e-24)
        0.785             (0.893312 0.0869568 1.42282e-23)             (0.893312 -0.0869569 -4.15054e-24)
         0.79             (0.892887 0.0874782 1.50046e-23)             (0.892887 -0.0874782 -4.55285e-24)
        0.795             (0.89246 0.0880022 1.5765e-23)             (0.89246 -0.0880023 -4.94391e-24)
          0.8             (0.892033 0.0885289 1.65038e-23)             (0.892033 -0.088529 -5.32028e-24)
        0.805             (0.891604 0.0890583 1.72243e-23)             (0.891604 -0.0890584 -5.68392e-24)
         0.81             (0.891175 0.0895904 1.79259e-23)             (0.891175 -0.0895905 -6.03452e-24)
        0.815             (0.890744 0.0901252 1.86089e-23)             (0.890744 -0.0901253 -6.37224e-24)
         0.82             (0.890313 0.0906626 1.92731e-23)             (0.890313 -0.0906627 -6.69694e-24)
        0.825             (0.88988 0.0912027 1.9919e-23)             (0.88988 -0.0912028 -7.00889e-24)
         0.83             (0.889447 0.0917455 2.05466e-23)             (0.889447 -0.0917456 -7.30822e-24)
        0.835             (0.889012 0.0922909 2.11567e-23)             (0.889012 -0.092291 -7.59527e-24)
         0.84             (0.888577 0.0928389 2.17515e-23)             (0.888577 -0.092839 -7.87148e-24)
        0.845             (0.88814 0.0933896 2.23296e-23)             (0.88814 -0.0933897 -8.1359e-24)
         0.85             (0.887703 0.0939429 2.28854e-23)             (0.887703 -0.093943 -8.38519e-24)
        0.855             (0.887264 0.0944989 2.33928e-23)             (0.887264 -0.0944989 -8.60258e-24)
         0.86             (0.886824 0.0950574 2.3916e-23)             (0.886824 -0.0950575 -8.82879e-24)
        0.865             (0.886384 0.0956185 2.44281e-23)             (0.886384 -0.0956186 -9.04675e-24)
         0.87             (0.885942 0.0961822 2.4886e-23)             (0.885942 -0.0961823 -9.22916e-24)
        0.875             (0.885499 0.0967485 2.53302e-23)             (0.885499 -0.0967486 -9.40172e-24)
         0.88             (0.885055 0.0973173 2.5777e-23)             (0.885055 -0.0973174 -9.57473e-24)
        0.885             (0.88461 0.0978887 2.62024e-23)             (0.88461 -0.0978888 -9.73303e-24)
         0.89             (0.884164 0.0984626 2.66083e-23)             (0.884164 -0.0984627 -9.87769e-24)
        0.895             (0.883717 0.099039 2.69957e-23)             (0.883717 -0.0990391 -1.00093e-23)
          0.9             (0.883269 0.0996179 2.73632e-23)             (0.883269 -0.099618 -1.01271e-23)
        0.905             (0.882819 0.100199 2.77136e-23)             (0.882819 -0.100199 -1.02328e-23)
         0.91             (0.882369 0.100783 2.80484e-23)             (0.882369 -0.100783 -1.03274e-23)
        0.915             (0.881917 0.101369 2.83842e-23)             (0.881917 -0.101369 -1.04213e-23)
         0.92             (0.881464 0.101958 2.86136e-23)             (0.881464 -0.101958 -1.04467e-23)
        0.925             (0.881011 0.102549 2.88675e-23)             (0.881011 -0.102549 -1.04861e-23)
         0.93             (0.880556 0.103143 2.91004e-23)             (0.880556 -0.103143 -1.0511e-23)
        0.935             (0.880099 0.103739 2.93114e-23)             (0.880099 -0.103739 -1.05207e-23)
         0.94             (0.879642 0.104337 2.9526e-23)             (0.879642 -0.104337 -1.05314e-23)
        0.945             (0.879184 0.104937 2.97358e-23)             (0.879184 -0.104937 -1.05377e-23)
         0.95             (0.878724 0.10554 2.98773e-23)             (0.878724 -0.10554 -1.04995e-23)
        0.955             (0.878263 0.106145 3.00249e-23)             (0.878263 -0.106145 -1.04637e-23)
         0.96             (0.877801 0.106753 3.01538e-23)             (0.877801 -0.106753 -1.04148e-23)
        0.965             (0.877338 0.107362 3.02584e-23)             (0.877338 -0.107362 -1.03491e-23)
         0.97             (0.876873 0.107974 3.03337e-23)             (0.876873 -0.107974 -1.02635e-23)
        0.975             (0.876408 0.108588 3.04243e-23)             (0.876408 -0.108588 -1.01863e-23)
         0.98             (0.875941 0.109204 3.04874e-23)             (0.875941 -0.109204 -1.00902e-23)
        0.985             (0.875473 0.109822 3.05243e-23)             (0.875473 -0.109822 -9.97618e-24)
         0.99             (0.875003 0.110442 3.05388e-23)             (0.875003 -0.110442 -9.8465e-24)
        0.995             (0.874533 0.111065 3.04736e-23)             (0.874533 -0.111065 -9.66517e-24)
            1             (0.874061 0.111689 3.04311e-23)             (0.874061 -0.111689 -9.49667e-24)
        1.005             (0.873588 0.112315 3.03725e-23)             (0.873588 -0.112315 -9.3166e-24)
         1.01             (0.873113 0.112943 3.0292e-23)             (0.873113 -0.112944 -9.12131e-24)
        1.015             (0.872637 0.113574 3.01895e-23)             (0.872637 -0.113574 -8.91057e-24)
         1.02             (0.87216 0.114206 3.00648e-23)             (0.87216 -0.114206 -8.68441e-24)
        1.025             (0.871682 0.11484 2.99216e-23)             (0.871682 -0.11484 -8.44505e-24)
         1.03             (0.871202 0.115476 2.97456e-23)             (0.871202 -0.115476 -8.18362e-24)
        1.035             (0.870721 0.116113 2.95536e-23)             (0.870721 -0.116113 -7.91053e-24)
         1.04             (0.870239 0.116753 2.93423e-23)             (0.870239 -0.116753 -7.62383e-24)
        1.045             (0.869755 0.117394 2.91158e-23)             (0.869755 -0.117394 -7.326e-24)
         1.05             (0.86927 0.118036 2.88516e-23)             (0.86927 -0.118036 -7.00293e-24)
        1.055             (0.868783 0.118681 2.8553e-23)             (0.868783 -0.118681 -6.65662e-24)
         1.06             (0.868295 0.119327 2.82536e-23)             (0.868295 -0.119327 -6.3083e-24)
        1.065             (0.867806 0.119974 2.79356e-23)             (0.867806 -0.119974 -5.94674e-24)
         1.07             (0.867315 0.120623 2.75912e-23)             (0.867315 -0.120624 -5.56706e-24)
        1.075             (0.866823 0.121274 2.72154e-23)             (0.866823 -0.121274 -5.16609e-24)
         1.08             (0.86633 0.121926 2.68053e-23)             (0.86633 -0.121926 -4.74181e-24)
        1.085             (0.865835 0.12258 2.63706e-23)             (0.865835 -0.12258 -4.30055e-24)
         1.09             (0.865338 0.123234 2.59332e-23)             (0.865338 -0.123234 -3.85611e-24)
        1.095             (0.86484 0.123891 2.5471e-23)             (0.86484 -0.123891 -3.39448e-24)
          1.1             (0.864341 0.124548 2.49858e-23)             (0.864341 -0.124548 -2.91685e-24)
        1.105             (0.86384 0.125207 2.44798e-23)             (0.86384 -0.125207 -2.42456e-24)
         1.11             (0.863338 0.125866 2.39282e-23)             (0.863338 -0.125867 -1.90195e-24)
        1.115             (0.862834 0.126527 2.33688e-23)             (0.862834 -0.126528 -1.37286e-24)
         1.12             (0.862328 0.12719 2.27849e-23)             (0.862328 -0.12719 -8.26856e-25)
        1.125             (0.861821 0.127853 2.21655e-23)             (0.861821 -0.127853 -2.56894e-25)
         1.13             (0.861313 0.128517 2.15124e-23)             (0.861313 -0.128517 3.35922e-25)
        1.135             (0.860803 0.129182 2.08569e-23)             (0.860803 -0.129182 9.31681e-25)
         1.14             (0.860291 0.129848 2.01775e-23)             (0.860291 -0.129848 1.54405e-24)
        1.145             (0.859778 0.130515 1.94765e-23)             (0.859778 -0.130515 2.17162e-24)
         1.15             (0.859263 0.131183 1.87423e-23)             (0.859263 -0.131183 2.82154e-24)
        1.155             (0.858746 0.131852 1.79913e-23)             (0.858746 -0.131852 3.48366e-24)
         1.16             (0.858228 0.132521 1.71798e-23)             (0.858228 -0.132521 4.18548e-24)
        1.165             (0.857709 0.133191 1.63734e-23)             (0.857709 -0.133191 4.88559e-24)
         1.17             (0.857187 0.133862 1.55413e-23)             (0.857187 -0.133862 5.60345e-24)
        1.175             (0.856664 0.134533 1.46815e-23)             (0.856664 -0.134533 6.34025e-24)
         1.18             (0.85614 0.135204 1.37957e-23)             (0.85614 -0.135205 7.09497e-24)
        1.185             (0.855614 0.135877 1.28842e-23)             (0.855614 -0.135877 7.86742e-24)
         1.19             (0.855086 0.136549 1.19449e-23)             (0.855086 -0.136549 8.65891e-24)
        1.195             (0.854556 0.137222 1.09804e-23)             (0.854556 -0.137223 9.46779e-24)
          1.2             (0.854025 0.137896 9.99003e-24)             (0.854025 -0.137896 1.02945e-23)
        1.205             (0.853492 0.138569 8.97229e-24)             (0.853492 -0.13857 1.11399e-23)
         1.21             (0.852957 0.139243 7.9287e-24)             (0.852957 -0.139243 1.20031e-23)
        1.215             (0.85242 0.139917 6.85897e-24)             (0.85242 -0.139918 1.28843e-23)
         1.22             (0.851882 0.140592 5.76297e-24)             (0.851882 -0.140592 1.37836e-23)
        1.225             (0.851342 0.141266 4.64297e-24)             (0.851342 -0.141266 1.46994e-23)
         1.23             (0.8508 0.14194 3.48887e-24)             (0.8508 -0.14194 1.56382e-23)
        1.235             (0.850257 0.142614 2.31018e-24)             (0.850257 -0.142615 1.65939e-23)
         1.24             (0.849712 0.143289 1.10817e-24)             (0.849712 -0.143289 1.75658e-23)
        1.245             (0.849164 0.143963 -1.18816e-25)             (0.849164 -0.143963 1.85549e-23)
         1.25             (0.848616 0.144637 -1.36662e-24)             (0.848616 -0.144637 1.95585e-23)
        1.255             (0.848065 0.14531 -2.6673e-24)             (0.848065 -0.14531 2.05969e-23)
         1.26             (0.847512 0.145984 -3.97953e-24)             (0.847512 -0.145984 2.16441e-23)
        1.265             (0.846958 0.146656 -5.31578e-24)             (0.846958 -0.146657 2.27078e-23)
         1.27             (0.846402 0.147329 -6.71339e-24)             (0.846402 -0.147329 2.38115e-23)
        1.275             (0.845844 0.148001 -8.13341e-24)             (0.845844 -0.148001 2.49307e-23)
         1.28             (0.845284 0.148673 -9.54984e-24)             (0.845284 -0.148673 2.60491e-23)
        1.285             (0.844722 0.149344 -1.09966e-23)             (0.844722 -0.149344 2.71879e-23)
         1.29             (0.844159 0.150014 -1.24729e-23)             (0.844159 -0.150014 2.83466e-23)
        1.295             (0.843593 0.150684 -1.39798e-23)             (0.843593 -0.150684 2.95261e-23)
          1.3             (0.843026 0.151353 -1.55146e-23)             (0.843026 -0.151353 3.07244e-23)
        1.305             (0.842457 0.152021 -1.70769e-23)             (0.842457 -0.152021 3.19414e-23)
         1.31             (0.841886 0.152689 -1.86691e-23)             (0.841886 -0.152689 3.31786e-23)
        1.315             (0.841313 0.153355 -2.02942e-23)             (0.841313 -0.153355 3.44377e-23)
         1.32             (0.840738 0.154021 -2.19432e-23)             (0.840738 -0.154021 3.57132e-23)
        1.325             (0.840161 0.154686 -2.36187e-23)             (0.840161 -0.154686 3.70067e-23)
         1.33             (0.839582 0.155349 -2.53253e-23)             (0.839582 -0.155349 3.8321e-23)
        1.335             (0.839002 0.156012 -2.70721e-23)             (0.839002 -0.156012 3.96619e-23)
         1.34             (0.838419 0.156673 -2.88384e-23)             (0.838419 -0.156673 4.10164e-23)
        1.345             (0.837835 0.157333 -3.06315e-23)             (0.837835 -0.157333 4.23889e-23)
         1.35             (0.837248 0.157992 -3.24808e-23)             (0.837248 -0.157992 4.3798e-23)
        1.355             (0.83666 0.15865 -3.43349e-23)             (0.83666 -0.15865 4.52114e-23)
         1.36             (0.836069 0.159306 -3.62146e-23)             (0.836069 -0.159306 4.66419e-23)
        1.365             (0.835477 0.159961 -3.81239e-23)             (0.835477 -0.159961 4.80923e-23)
         1.37             (0.834883 0.160614 -4.00643e-23)             (0.834883 -0.160614 4.95634e-23)
        1.375             (0.834286 0.161266 -4.20359e-23)             (0.834286 -0.161266 5.10553e-23)
         1.38             (0.833688 0.161916 -4.40462e-23)             (0.833688 -0.161916 5.25727e-23)
        1.385             (0.833088 0.162565 -4.60591e-23)             (0.833088 -0.162565 5.40927e-23)
         1.39             (0.832486 0.163212 -4.8135e-23)             (0.832486 -0.163212 5.56535e-23)
        1.395             (0.831882 0.163857 -5.02261e-23)             (0.831882 -0.163857 5.72249e-23)
          1.4             (0.831275 0.1645 -5.23382e-23)             (0.831275 -0.1645 5.88105e-23)
        1.405             (0.830667 0.165142 -5.44803e-23)             (0.830667 -0.165142 6.04161e-23)
         1.41             (0.830057 0.165782 -5.66519e-23)             (0.830057 -0.165782 6.20412e-23)
        1.415             (0.829445 0.166419 -5.88509e-23)             (0.829445 -0.16642 6.36845e-23)
         1.42             (0.828831 0.167055 -6.10765e-23)             (0.828831 -0.167055 6.53455e-23)
        1.425             (0.828215 0.167689 -6.33565e-23)             (0.828215 -0.167689 6.70418e-23)
         1.43             (0.827597 0.168321 -6.56669e-23)             (0.827597 -0.168321 6.8758e-23)