/*--------------------------------*- C++ -*----------------------------------*\
  =========                 |
  \\      /  F ield         | OpenFOAM: The Open Source CFD Toolbox
   \\    /   O peration     | Website:  https://openfoam.org
    \\  /    A nd           | Version:  7
     \\/     M anipulation  |
\*---------------------------------------------------------------------------*/
FoamFile
{
    version     2.0;
    format      ascii;
    class       volScalarField;
    location    "85";
    object      p;
}
// * * * * * * * * * * * * * * * * * * * * * * * * * * * * * * * * * * * * * //

dimensions      [0 2 -2 0 0 0 0];

internalField   nonuniform List<scalar> 
8500
(
-0.306718
-0.308797
-0.309747
-0.3105
-0.311132
-0.311663
-0.312107
-0.31247
-0.312713
-0.312889
-0.308088
-0.310203
-0.311187
-0.311994
-0.312705
-0.313341
-0.313916
-0.314429
-0.314842
-0.31519
-0.309679
-0.3118
-0.312804
-0.313652
-0.314429
-0.315157
-0.315845
-0.316492
-0.317051
-0.317528
-0.311484
-0.313583
-0.314591
-0.315465
-0.316293
-0.317097
-0.317882
-0.318643
-0.319322
-0.319868
-0.313496
-0.315542
-0.316537
-0.317421
-0.318285
-0.319149
-0.320009
-0.320857
-0.321628
-0.322161
-0.315703
-0.317664
-0.318629
-0.319505
-0.320388
-0.321292
-0.322204
-0.323107
-0.32394
-0.324336
-0.318088
-0.319933
-0.320849
-0.3217
-0.322581
-0.323506
-0.324442
-0.325361
-0.326231
-0.326313
-0.320631
-0.32233
-0.323177
-0.323982
-0.324841
-0.325765
-0.326696
-0.327582
-0.328474
-0.327998
-0.32331
-0.324836
-0.325594
-0.326331
-0.327145
-0.328044
-0.328942
-0.329734
-0.330656
-0.329268
-0.326103
-0.327429
-0.328076
-0.328721
-0.329465
-0.330316
-0.331155
-0.331786
-0.332811
-0.32998
-0.328987
-0.330089
-0.330602
-0.331128
-0.331775
-0.332553
-0.33331
-0.333708
-0.334945
-0.330306
-0.33194
-0.332799
-0.333152
-0.333529
-0.334046
-0.334722
-0.335384
-0.33552
-0.336665
-0.330553
-0.334946
-0.335545
-0.33571
-0.335902
-0.336253
-0.33679
-0.337333
-0.337315
-0.338175
-0.330269
-0.337992
-0.338317
-0.338264
-0.338231
-0.338372
-0.338734
-0.339108
-0.338918
-0.339592
-0.329506
-0.341077
-0.341115
-0.340809
-0.340505
-0.340387
-0.340523
-0.340686
-0.34029
-0.340797
-0.32844
-0.344208
-0.343945
-0.343351
-0.342725
-0.342288
-0.342139
-0.342036
-0.341435
-0.341627
-0.327294
-0.347404
-0.346825
-0.345906
-0.344903
-0.344086
-0.343586
-0.343135
-0.342363
-0.341858
-0.32621
-0.350701
-0.349787
-0.348502
-0.347068
-0.345809
-0.34489
-0.343998
-0.343111
-0.341246
-0.325047
-0.354147
-0.352872
-0.351178
-0.349263
-0.347505
-0.346105
-0.344685
-0.343743
-0.339768
-0.324155
-0.357805
-0.356133
-0.353989
-0.351549
-0.349243
-0.347308
-0.345292
-0.344221
-0.337932
-0.327017
-0.361747
-0.35963
-0.356997
-0.353993
-0.351101
-0.348582
-0.345919
-0.34434
-0.336427
-0.337829
-0.366054
-0.36343
-0.360271
-0.356674
-0.353164
-0.350012
-0.346653
-0.344117
-0.335625
-0.335516
-0.370808
-0.367603
-0.363881
-0.359667
-0.355515
-0.351669
-0.347527
-0.34372
-0.334613
-0.331158
-0.376088
-0.372215
-0.367896
-0.363045
-0.358221
-0.353605
-0.348543
-0.343282
-0.333233
-0.326646
-0.381966
-0.37733
-0.372381
-0.36687
-0.361333
-0.355847
-0.349696
-0.342803
-0.331517
-0.321925
-0.388501
-0.383002
-0.377391
-0.371193
-0.364879
-0.358396
-0.350959
-0.342251
-0.329433
-0.317218
-0.395739
-0.389276
-0.382973
-0.376049
-0.368865
-0.361228
-0.35228
-0.341561
-0.326999
-0.312479
-0.403709
-0.396186
-0.38916
-0.381454
-0.373277
-0.364293
-0.353578
-0.340663
-0.324225
-0.307682
-0.412418
-0.403751
-0.395971
-0.387405
-0.378077
-0.367512
-0.354749
-0.339484
-0.321118
-0.302773
-0.421855
-0.411972
-0.403403
-0.393872
-0.3832
-0.370768
-0.35568
-0.337959
-0.317673
-0.297699
-0.431982
-0.420832
-0.411431
-0.400799
-0.388543
-0.373918
-0.356256
-0.336029
-0.313874
-0.292404
-0.442733
-0.430286
-0.419995
-0.408095
-0.393964
-0.376801
-0.356368
-0.333635
-0.309692
-0.28683
-0.454012
-0.440257
-0.429001
-0.415631
-0.399279
-0.37925
-0.355913
-0.33072
-0.305085
-0.28092
-0.465686
-0.450632
-0.438316
-0.42323
-0.404275
-0.381097
-0.354793
-0.327225
-0.300005
-0.274615
-0.477584
-0.461259
-0.447766
-0.430672
-0.408725
-0.382183
-0.352913
-0.323086
-0.294395
-0.267855
-0.489496
-0.471942
-0.457131
-0.437692
-0.412393
-0.382354
-0.35018
-0.318237
-0.288192
-0.260583
-0.501173
-0.482446
-0.466149
-0.444003
-0.415051
-0.381466
-0.346504
-0.312606
-0.281332
-0.252739
-0.512331
-0.492498
-0.47452
-0.4493
-0.416478
-0.379384
-0.341794
-0.306122
-0.27375
-0.244272
-0.522653
-0.50179
-0.481913
-0.453282
-0.41647
-0.375981
-0.335964
-0.298712
-0.265379
-0.235133
-0.531801
-0.509989
-0.487977
-0.455658
-0.414839
-0.371139
-0.32893
-0.290306
-0.256158
-0.225278
-0.539418
-0.516746
-0.492359
-0.456155
-0.411415
-0.364752
-0.320613
-0.280838
-0.246033
-0.214671
-0.545143
-0.5217
-0.494717
-0.45453
-0.406049
-0.356724
-0.310939
-0.270244
-0.234958
-0.203288
-0.548621
-0.524494
-0.49473
-0.450567
-0.398616
-0.34697
-0.299841
-0.258467
-0.222894
-0.191126
-0.549512
-0.524786
-0.492113
-0.444088
-0.389011
-0.335421
-0.28726
-0.245447
-0.209796
-0.17817
-0.5475
-0.522258
-0.486623
-0.434949
-0.377156
-0.322026
-0.273154
-0.231143
-0.195605
-0.164284
-0.542304
-0.516629
-0.478063
-0.423048
-0.362998
-0.30675
-0.2575
-0.215551
-0.180292
-0.149183
-0.533685
-0.507665
-0.466285
-0.408319
-0.346508
-0.289576
-0.240289
-0.198695
-0.163937
-0.132712
-0.521454
-0.495187
-0.45119
-0.390733
-0.327683
-0.2705
-0.221513
-0.180573
-0.146622
-0.11537
-0.505473
-0.479074
-0.432723
-0.370296
-0.306545
-0.24954
-0.201194
-0.16118
-0.128008
-0.0976915
-0.485664
-0.459259
-0.410885
-0.347049
-0.283142
-0.226741
-0.179409
-0.140625
-0.10829
-0.0793832
-0.462003
-0.435738
-0.385725
-0.321078
-0.25754
-0.202184
-0.156239
-0.118858
-0.0876413
-0.0603492
-0.434523
-0.408566
-0.35736
-0.292504
-0.229814
-0.175962
-0.131701
-0.0959646
-0.0661401
-0.0406138
-0.403314
-0.377864
-0.325971
-0.261431
-0.200073
-0.148145
-0.105888
-0.0720379
-0.0438491
-0.020269
-0.368523
-0.343821
-0.291713
-0.227841
-0.168542
-0.118868
-0.0789052
-0.0471739
-0.0208424
0.000574387
-0.330361
-0.306688
-0.25454
-0.192129
-0.135311
-0.0882709
-0.0508779
-0.0214734
0.00280224
0.0218294
-0.289054
-0.26671
-0.214496
-0.154643
-0.100601
-0.05651
-0.0219408
0.00495902
0.0270029
0.0434054
-0.244815
-0.223842
-0.172492
-0.115467
-0.0646103
-0.0237539
0.00777354
0.0320274
0.0516202
0.0649569
-0.197952
-0.178467
-0.128912
-0.074872
-0.0275406
0.00982699
0.0381526
0.0596546
0.0763761
0.0856387
-0.148968
-0.131015
-0.0838593
-0.0331378
0.0103854
0.0440601
0.0690923
0.087744
0.100936
0.10486
-0.0981785
-0.08192
-0.0375804
0.00945622
0.0489297
0.0787587
0.100433
0.116056
0.125202
0.124441
-0.0459568
-0.0316153
0.00959588
0.0526236
0.0878471
0.113714
0.131921
0.144178
0.149147
0.149413
0.00726345
0.0194903
0.0573101
0.0960685
0.126888
0.148699
0.163287
0.171974
0.17367
0.174514
0.061039
0.0709888
0.105194
0.139487
0.165795
0.183484
0.194358
0.199524
0.198449
0.198322
0.114923
0.122468
0.15288
0.182574
0.204309
0.217839
0.224961
0.226703
0.223037
0.221165
0.168466
0.173512
0.200002
0.225021
0.242168
0.251541
0.254926
0.253335
0.247089
0.243035
0.221223
0.223711
0.246201
0.266526
0.279116
0.284376
0.284078
0.27924
0.270413
0.263973
0.272756
0.27266
0.291125
0.306793
0.314902
0.316129
0.312233
0.304242
0.292857
0.283943
0.322636
0.319965
0.334433
0.345534
0.349282
0.346596
0.339217
0.328181
0.314295
0.302889
0.370451
0.365247
0.3758
0.382473
0.382022
0.375577
0.364858
0.350909
0.334609
0.320739
0.415807
0.408144
0.414913
0.417347
0.412898
0.402882
0.388994
0.372287
0.353685
0.33742
0.458329
0.448316
0.451481
0.449909
0.441701
0.428332
0.411472
0.392184
0.371417
0.352856
0.49767
0.485444
0.485229
0.479928
0.468234
0.451761
0.43215
0.410479
0.387704
0.366977
0.533507
0.519236
0.515908
0.507191
0.492317
0.473013
0.450898
0.427061
0.402452
0.379718
0.565551
0.549428
0.54329
0.531505
0.513785
0.49195
0.467596
0.441826
0.415577
0.39102
0.59354
0.575783
0.567173
0.552701
0.532492
0.508447
0.48214
0.454686
0.427
0.40083
0.61725
0.598098
0.587381
0.570629
0.548313
0.522396
0.494436
0.465559
0.436657
0.409104
0.63649
0.6162
0.603768
0.585164
0.56114
0.533707
0.504408
0.47438
0.444491
0.415805
0.651107
0.629951
0.616215
0.596205
0.570888
0.542306
0.511994
0.481095
0.450457
0.420906
0.660984
0.639245
0.624631
0.603677
0.577491
0.548139
0.517146
0.485662
0.454522
0.424384
0.666047
0.644014
0.628958
0.607529
0.580907
0.551168
0.519833
0.488055
0.456661
0.426225
0.666256
0.644224
0.629166
0.607737
0.581115
0.551375
0.52004
0.488261
0.456866
0.426423
0.661615
0.639878
0.625257
0.604301
0.578116
0.548763
0.517767
0.48628
0.455135
0.424979
0.652164
0.631011
0.617264
0.59725
0.571933
0.54335
0.513033
0.482128
0.451483
0.421901
0.637985
0.617698
0.605249
0.586637
0.562611
0.535175
0.505869
0.475831
0.445931
0.417203
0.619196
0.600046
0.589304
0.572539
0.550218
0.524295
0.496324
0.467433
0.438516
0.410907
0.595955
0.578199
0.569552
0.555061
0.534842
0.510786
0.484462
0.456989
0.429283
0.403043
0.568457
0.55233
0.546144
0.534331
0.516592
0.49474
0.470363
0.444566
0.418289
0.393649
0.53693
0.52265
0.519257
0.510498
0.495597
0.476266
0.454119
0.430246
0.405602
0.382769
0.501637
0.489395
0.489097
0.483737
0.472003
0.455492
0.435838
0.41412
0.391299
0.370457
0.462874
0.452835
0.455893
0.454243
0.445978
0.432557
0.415639
0.396291
0.375467
0.356773
0.420965
0.413265
0.419899
0.42223
0.417704
0.407618
0.393655
0.376873
0.358199
0.341782
0.376261
0.371005
0.381391
0.387931
0.387379
0.380843
0.37003
0.355987
0.339599
0.325557
0.329139
0.3264
0.340663
0.351596
0.355214
0.352412
0.344916
0.333765
0.319773
0.308171
0.279995
0.279812
0.298028
0.31349
0.321436
0.322517
0.318478
0.310346
0.298836
0.289702
0.229244
0.231624
0.253817
0.27389
0.286278
0.291358
0.290886
0.285881
0.276905
0.27022
0.177316
0.182231
0.20837
0.233084
0.249986
0.259142
0.262318
0.260528
0.25411
0.249785
0.124651
0.132038
0.162041
0.191372
0.212811
0.226081
0.232956
0.234464
0.230602
0.228435
0.0716946
0.0814592
0.115191
0.149055
0.175012
0.192394
0.202977
0.20787
0.206571
0.206136
0.0188957
0.0309083
0.0681844
0.106443
0.136849
0.158301
0.172552
0.180919
0.182358
0.182898
-0.0332987
-0.0192016
0.0213917
0.0638401
0.0985832
0.124034
0.141854
0.153738
0.158401
0.158405
-0.0844456
-0.0684623
-0.02482
0.0215515
0.0604706
0.0898207
0.111057
0.126255
0.135021
0.13406
-0.134117
-0.116462
-0.070094
-0.0201278
0.0227612
0.0558877
0.0804253
0.0986031
0.111337
0.114958
-0.181962
-0.162761
-0.114109
-0.0609109
-0.0143003
0.0224425
0.0502109
0.0711858
0.0873779
0.0962115
-0.227606
-0.206969
-0.156637
-0.100515
-0.0504774
-0.0103292
0.0205725
0.0442402
0.0632403
0.0760577
-0.270592
-0.248548
-0.197607
-0.138652
-0.0855525
-0.0422556
-0.00838448
0.0178643
0.0392542
0.0550677
-0.310631
-0.287301
-0.236462
-0.175058
-0.119329
-0.0731654
-0.0365468
-0.00786301
0.015695
0.034066
-0.347506
-0.323178
-0.272307
-0.209752
-0.151611
-0.102889
-0.0637824
-0.0328455
-0.00729895
0.0133931
-0.380987
-0.355938
-0.305331
-0.24222
-0.182161
-0.13127
-0.0899579
-0.0569785
-0.029646
-0.00686085
-0.410874
-0.385338
-0.335502
-0.27218
-0.210856
-0.158171
-0.11495
-0.0801603
-0.0512691
-0.0266108
-0.437031
-0.411198
-0.36262
-0.299615
-0.237546
-0.18346
-0.138652
-0.102292
-0.0720953
-0.0457493
-0.459378
-0.433406
-0.386512
-0.324426
-0.26211
-0.207096
-0.160972
-0.12328
-0.0920564
-0.0641897
-0.477892
-0.45192
-0.407081
-0.346501
-0.284462
-0.228958
-0.181933
-0.14304
-0.111063
-0.0819111
-0.492606
-0.466758
-0.424289
-0.365766
-0.304539
-0.248965
-0.201412
-0.161728
-0.128879
-0.0990105
-0.503611
-0.477997
-0.438145
-0.382183
-0.3223
-0.267081
-0.219325
-0.179111
-0.145567
-0.115659
-0.511056
-0.48577
-0.448712
-0.395752
-0.337727
-0.283292
-0.235661
-0.195186
-0.161255
-0.131361
-0.51514
-0.49027
-0.456102
-0.406511
-0.350827
-0.297605
-0.250435
-0.209972
-0.175851
-0.145782
-0.516114
-0.491743
-0.460474
-0.414533
-0.361633
-0.310039
-0.263662
-0.223466
-0.189317
-0.159061
-0.514266
-0.49048
-0.462036
-0.419931
-0.370205
-0.320632
-0.275366
-0.235681
-0.201691
-0.171413
-0.509921
-0.486808
-0.461044
-0.422859
-0.376627
-0.329438
-0.28559
-0.246656
-0.213025
-0.182941
-0.503424
-0.481076
-0.457795
-0.423506
-0.381009
-0.33653
-0.29439
-0.256442
-0.223359
-0.193664
-0.495136
-0.473644
-0.452617
-0.422096
-0.383485
-0.341993
-0.301834
-0.265098
-0.232731
-0.203591
-0.485417
-0.464872
-0.445862
-0.418885
-0.384211
-0.345929
-0.307996
-0.272681
-0.241184
-0.212746
-0.474624
-0.455112
-0.437886
-0.414155
-0.383364
-0.348446
-0.312955
-0.279257
-0.248769
-0.221161
-0.463094
-0.444692
-0.429041
-0.408204
-0.381141
-0.349667
-0.316794
-0.284893
-0.255544
-0.228875
-0.451136
-0.433914
-0.419653
-0.401341
-0.377755
-0.349724
-0.3196
-0.289657
-0.261568
-0.235928
-0.439028
-0.423043
-0.410018
-0.393873
-0.373435
-0.348757
-0.321464
-0.293618
-0.266899
-0.242367
-0.427012
-0.412307
-0.400388
-0.386087
-0.368417
-0.346917
-0.322477
-0.29684
-0.271594
-0.248238
-0.415285
-0.401889
-0.390974
-0.37824
-0.362941
-0.344365
-0.322733
-0.299386
-0.275707
-0.253591
-0.404009
-0.391933
-0.381939
-0.370546
-0.357237
-0.341266
-0.32233
-0.301315
-0.279283
-0.25847
-0.393303
-0.382538
-0.373405
-0.363166
-0.351513
-0.337793
-0.32137
-0.302683
-0.282361
-0.262922
-0.383251
-0.373769
-0.365452
-0.356217
-0.345943
-0.334116
-0.319961
-0.303547
-0.284973
-0.26699
-0.373905
-0.365661
-0.358126
-0.349775
-0.340656
-0.330394
-0.318218
-0.303966
-0.287139
-0.270717
-0.365292
-0.358221
-0.351439
-0.343878
-0.335735
-0.32676
-0.316258
-0.304004
-0.28887
-0.274147
-0.357414
-0.351439
-0.34538
-0.338539
-0.331226
-0.323315
-0.314195
-0.303736
-0.29017
-0.277328
-0.350259
-0.345291
-0.339923
-0.333746
-0.327148
-0.320121
-0.31213
-0.303248
-0.291039
-0.280316
-0.343803
-0.339745
-0.335029
-0.329472
-0.323501
-0.317212
-0.310137
-0.302626
-0.29148
-0.283159
-0.338013
-0.334766
-0.330656
-0.325681
-0.32027
-0.314604
-0.308264
-0.301949
-0.291499
-0.285931
-0.332852
-0.330315
-0.326763
-0.32233
-0.317431
-0.312298
-0.306541
-0.30127
-0.29116
-0.288494
-0.328276
-0.326353
-0.323308
-0.319378
-0.314954
-0.310281
-0.304996
-0.300602
-0.290495
-0.291028
-0.324235
-0.32285
-0.320252
-0.316788
-0.312802
-0.308534
-0.303659
-0.299824
-0.289765
-0.291633
-0.320699
-0.31976
-0.317558
-0.314521
-0.310941
-0.307036
-0.302541
-0.298836
-0.289867
-0.277999
-0.317619
-0.317054
-0.315189
-0.312547
-0.309339
-0.305765
-0.301622
-0.297739
-0.290628
-0.273981
-0.314947
-0.31467
-0.313143
-0.310836
-0.307969
-0.3047
-0.30088
-0.296836
-0.29151
-0.274418
-0.31264
-0.312604
-0.31137
-0.309359
-0.306809
-0.303822
-0.30029
-0.296215
-0.292014
-0.275556
-0.310661
-0.310824
-0.309829
-0.308114
-0.305845
-0.30312
-0.299844
-0.295855
-0.292213
-0.27709
-0.30897
-0.309301
-0.308521
-0.307067
-0.305062
-0.302587
-0.299554
-0.295748
-0.292378
-0.279146
-0.307536
-0.308012
-0.307423
-0.306205
-0.304452
-0.302222
-0.299436
-0.295886
-0.292704
-0.281555
-0.30633
-0.306936
-0.306519
-0.305519
-0.304006
-0.302021
-0.299498
-0.296251
-0.293284
-0.284088
-0.305328
-0.306055
-0.305797
-0.305
-0.303717
-0.301979
-0.299733
-0.29681
-0.294131
-0.286601
-0.304511
-0.305356
-0.305244
-0.304637
-0.303578
-0.302086
-0.300117
-0.297543
-0.295218
-0.289006
-0.303864
-0.304829
-0.304853
-0.304425
-0.303579
-0.302331
-0.300644
-0.298457
-0.296446
-0.291271
-0.303379
-0.304466
-0.304619
-0.304359
-0.303717
-0.302705
-0.301297
-0.299483
-0.297699
-0.293499
-0.303051
-0.304265
-0.304539
-0.304436
-0.303986
-0.3032
-0.302063
-0.300588
-0.299007
-0.295796
-0.302881
-0.304224
-0.304613
-0.304655
-0.304386
-0.303813
-0.302932
-0.301768
-0.300421
-0.298031
-0.302873
-0.304347
-0.304843
-0.30502
-0.304918
-0.304544
-0.303902
-0.303019
-0.301922
-0.300154
-0.303034
-0.304636
-0.305232
-0.305534
-0.305585
-0.305396
-0.304975
-0.304347
-0.3035
-0.302218
-0.303374
-0.305099
-0.305786
-0.3062
-0.306393
-0.306374
-0.306157
-0.305762
-0.305158
-0.304271
-0.303902
-0.305741
-0.30651
-0.307026
-0.307347
-0.307485
-0.307455
-0.307273
-0.306903
-0.306347
-0.30463
-0.306568
-0.307409
-0.308016
-0.308453
-0.308734
-0.308877
-0.308891
-0.308741
-0.308467
-0.305566
-0.307586
-0.308487
-0.309173
-0.309714
-0.310126
-0.310427
-0.310622
-0.310677
-0.310646
-0.314137
-0.312334
-0.313102
-0.312166
-0.313425
-0.316359
-0.32333
-0.333111
-0.339938
-0.331301
-0.30336
-0.262546
-0.225443
-0.210448
-0.218749
-0.23273
-0.215788
-0.177123
-0.142236
-0.107506
-0.106039
-0.10409
-0.102393
-0.0973663
-0.0942978
-0.0545548
-0.0378236
-0.0624256
-0.0563569
-0.00207832
-0.316693
-0.314648
-0.314982
-0.31285
-0.311933
-0.311451
-0.313858
-0.318482
-0.321142
-0.311276
-0.285843
-0.250659
-0.221228
-0.215335
-0.230656
-0.247412
-0.227435
-0.183355
-0.143023
-0.105242
-0.100958
-0.0964522
-0.095252
-0.0954161
-0.0943261
-0.0558105
-0.0393549
-0.0640997
-0.0577908
-0.00230698
-0.319427
-0.317059
-0.317009
-0.313676
-0.310557
-0.306606
-0.30438
-0.30375
-0.302063
-0.290617
-0.267411
-0.237702
-0.216138
-0.219655
-0.242097
-0.261226
-0.238278
-0.189082
-0.143564
-0.102907
-0.0959833
-0.0892194
-0.088288
-0.0934314
-0.0942766
-0.0571263
-0.0409682
-0.0658239
-0.0592772
-0.00253162
-0.322326
-0.319561
-0.319198
-0.314686
-0.309375
-0.301944
-0.295071
-0.289153
-0.28299
-0.269638
-0.248288
-0.22386
-0.210262
-0.223362
-0.252927
-0.274063
-0.248259
-0.19429
-0.143902
-0.10053
-0.091149
-0.0824395
-0.0815434
-0.09142
-0.0941478
-0.0585117
-0.0426705
-0.0676008
-0.0608142
-0.00275218
-0.325362
-0.32214
-0.321549
-0.315912
-0.308452
-0.297575
-0.286093
-0.274916
-0.264211
-0.248679
-0.228761
-0.209334
-0.203675
-0.226406
-0.263005
-0.285839
-0.257337
-0.198969
-0.144073
-0.0981352
-0.0864813
-0.07614
-0.0750464
-0.0893882
-0.0939376
-0.0599752
-0.0444678
-0.0694314
-0.0623978
-0.0029687
-0.328497
-0.324769
-0.32405
-0.317371
-0.307843
-0.293596
-0.277595
-0.261248
-0.246004
-0.22809
-0.209146
-0.194386
-0.19643
-0.228732
-0.272195
-0.296492
-0.265488
-0.203118
-0.14411
-0.0957431
-0.0819992
-0.0703278
-0.068812
-0.0873395
-0.0936428
-0.0615233
-0.0463641
-0.071315
-0.0640216
-0.00318128
-0.33169
-0.327407
-0.326671
-0.319061
-0.307581
-0.290086
-0.269704
-0.248338
-0.228623
-0.208212
-0.189764
-0.179264
-0.188638
-0.230287
-0.280378
-0.305982
-0.272703
-0.206743
-0.144042
-0.0933724
-0.0777161
-0.0649894
-0.0628246
-0.0852753
-0.0932592
-0.0631607
-0.0483619
-0.0732492
-0.0656772
-0.00339005
-0.334862
-0.330003
-0.329363
-0.320961
-0.307679
-0.287102
-0.262528
-0.236342
-0.212285
-0.189366
-0.17091
-0.164185
-0.180444
-0.231022
-0.287453
-0.314291
-0.27899
-0.209854
-0.143893
-0.0910402
-0.0736414
-0.0600935
-0.057133
-0.0831938
-0.0927816
-0.0648892
-0.0504616
-0.0752295
-0.0673543
-0.00359519
-0.337916
-0.332486
-0.332057
-0.323025
-0.308123
-0.284676
-0.256147
-0.22539
-0.197165
-0.171856
-0.152847
-0.14938
-0.171951
-0.230896
-0.293341
-0.321459
-0.284362
-0.212467
-0.14368
-0.0887625
-0.069782
-0.0555957
-0.0517083
-0.0810891
-0.0922033
-0.0667083
-0.0526613
-0.0772496
-0.0690413
-0.00379687
-0.340948
-0.334772
-0.334672
-0.325183
-0.30887
-0.282813
-0.250617
-0.21558
-0.183392
-0.156009
-0.13586
-0.13507
-0.163245
-0.22988
-0.297982
-0.327444
-0.288839
-0.214604
-0.143417
-0.086555
-0.0661431
-0.0514434
-0.046532
-0.0789499
-0.0915164
-0.0686139
-0.0549571
-0.0793017
-0.0707253
-0.00399525
-0.343371
-0.336881
-0.337121
-0.32734
-0.309849
-0.281486
-0.245962
-0.20698
-0.171045
-0.142394
-0.120285
-0.121372
-0.154414
-0.227963
-0.30134
-0.332208
-0.29244
-0.216287
-0.143115
-0.0844339
-0.0627287
-0.0475805
-0.0415856
-0.0767627
-0.0907114
-0.0705993
-0.0573431
-0.0813761
-0.0723926
-0.00419044
-0.345241
-0.338829
-0.339258
-0.329406
-0.310962
-0.280626
-0.242188
-0.199635
-0.160124
-0.12841
-0.106155
-0.108568
-0.145539
-0.225148
-0.303399
-0.335761
-0.295189
-0.217541
-0.142782
-0.0824164
-0.0595419
-0.0439529
-0.0368598
-0.0745116
-0.0897774
-0.0726541
-0.0598108
-0.0834618
-0.074029
-0.00438254
-0.346802
-0.340396
-0.34098
-0.331288
-0.312096
-0.280134
-0.239263
-0.193534
-0.150705
-0.116015
-0.0935778
-0.0967559
-0.136701
-0.221462
-0.304161
-0.338111
-0.297112
-0.218397
-0.142429
-0.0805203
-0.0565837
-0.0405116
-0.0323504
-0.0721787
-0.0887015
-0.0747653
-0.0623501
-0.0855464
-0.0756205
-0.00457152
-0.347951
-0.341527
-0.342255
-0.332811
-0.31315
-0.280051
-0.237063
-0.188616
-0.143019
-0.105873
-0.0826398
-0.0859961
-0.127977
-0.21695
-0.303651
-0.339279
-0.298239
-0.218881
-0.142055
-0.078756
-0.0538485
-0.0372107
-0.0280554
-0.0697457
-0.0874691
-0.0769169
-0.0649487
-0.0876165
-0.0771526
-0.00475715
-0.348631
-0.342162
-0.342996
-0.333867
-0.313992
-0.280166
-0.235682
-0.185113
-0.136925
-0.0976911
-0.0733721
-0.0763467
-0.119442
-0.211676
-0.301911
-0.339296
-0.298593
-0.218996
-0.141629
-0.0771158
-0.051321
-0.0340087
-0.0239723
-0.0671942
-0.0860637
-0.0790905
-0.0675931
-0.0896581
-0.0786121
-0.00493883
-0.348815
-0.342875
-0.343137
-0.334363
-0.314521
-0.280372
-0.234925
-0.182772
-0.132472
-0.0913469
-0.0657393
-0.0678534
-0.111167
-0.205718
-0.299002
-0.338216
-0.298201
-0.218745
-0.141134
-0.0755979
-0.0489915
-0.0308889
-0.0200943
-0.0645045
-0.0844667
-0.0812655
-0.0702683
-0.0916571
-0.0799868
-0.00511631
-0.348391
-0.34243
-0.342611
-0.334224
-0.314641
-0.280562
-0.234665
-0.181464
-0.129493
-0.0866668
-0.0597141
-0.0605425
-0.103228
-0.199173
-0.295022
-0.336095
-0.297121
-0.21824
-0.140716
-0.0743007
-0.0468981
-0.0278952
-0.0164318
-0.0616588
-0.082657
-0.0834194
-0.072958
-0.0935972
-0.0812646
-0.00529134
-0.347215
-0.341458
-0.34144
-0.333448
-0.314364
-0.280766
-0.23495
-0.181233
-0.127988
-0.083591
-0.0552913
-0.0544362
-0.0956714
-0.192121
-0.290012
-0.332828
-0.295454
-0.217776
-0.140698
-0.073431
-0.0451157
-0.0250882
-0.0130241
-0.0586787
-0.0806109
-0.0855276
-0.075638
-0.095452
-0.08243
-0.00546709
-0.345906
-0.340081
-0.339601
-0.331999
-0.31375
-0.281184
-0.236093
-0.182445
-0.128319
-0.0824325
-0.0526752
-0.0496567
-0.0885166
-0.184451
-0.283702
-0.328231
-0.293115
-0.217225
-0.140789
-0.0727891
-0.0434993
-0.0222747
-0.00980975
-0.0556313
-0.0783026
-0.0875685
-0.0782735
-0.0972004
-0.0834702
-0.00563723
-0.34301
-0.337425
-0.336505
-0.329181
-0.311759
-0.280334
-0.236211
-0.183062
-0.128674
-0.0821262
-0.0514659
-0.0462619
-0.0825634
-0.177027
-0.277182
-0.323539
-0.289543
-0.214766
-0.138825
-0.0709426
-0.0413376
-0.0187734
-0.00638657
-0.0521332
-0.0757128
-0.0895024
-0.0809665
-0.0989407
-0.0844052
-0.00576707
-0.329908
-0.33301
-0.333531
-0.325487
-0.307595
-0.275925
-0.231643
-0.178508
-0.12406
-0.0773652
-0.0470254
-0.0418089
-0.0773348
-0.172676
-0.27506
-0.320776
-0.28446
-0.209023
-0.133476
-0.0667537
-0.0378582
-0.0135941
-0.00136025
-0.0453543
-0.0713743
-0.0919318
-0.0850831
-0.101317
-0.0855345
-0.0058758
-0.32175
-0.325612
-0.324482
-0.315771
-0.297609
-0.266475
-0.223419
-0.172063
-0.11948
-0.0747269
-0.0464303
-0.0420953
-0.0768287
-0.169559
-0.268698
-0.310841
-0.273775
-0.199726
-0.126581
-0.0622317
-0.0337164
-0.00781045
0.00307849
-0.0389453
-0.0679632
-0.0942986
-0.0895725
-0.103164
-0.0863166
-0.00600051
-0.313124
-0.31607
-0.313407
-0.304037
-0.28598
-0.255951
-0.214831
-0.166031
-0.116104
-0.0738292
-0.0478258
-0.0451938
-0.0794244
-0.16789
-0.260901
-0.29849
-0.261324
-0.189735
-0.119488
-0.0576239
-0.02951
-0.00205162
0.00776861
-0.03222
-0.065107
-0.0962765
-0.0938813
-0.104566
-0.086681
-0.00614269
-0.303154
-0.30469
-0.300462
-0.290906
-0.273499
-0.245134
-0.20655
-0.160923
-0.114214
-0.0747259
-0.0511387
-0.0499602
-0.0829395
-0.165843
-0.251496
-0.284106
-0.247282
-0.178937
-0.112006
-0.052895
-0.0252389
0.00366492
0.0129447
-0.024396
-0.0617597
-0.0979138
-0.0981393
-0.105608
-0.0865445
-0.00629628
-0.291016
-0.291752
-0.286255
-0.276655
-0.260462
-0.234206
-0.198622
-0.156657
-0.11364
-0.0777935
-0.0560818
-0.0559974
-0.0868709
-0.162816
-0.240121
-0.26763
-0.231818
-0.167527
-0.104282
-0.0480704
-0.0209171
0.00930973
0.0186096
-0.0153991
-0.0576228
-0.0991999
-0.102194
-0.106127
-0.0858219
-0.00645606
-0.276851
-0.277694
-0.271457
-0.262123
-0.247222
-0.223359
-0.191055
-0.15304
-0.113977
-0.0814742
-0.0620566
-0.062759
-0.0908606
-0.158586
-0.226634
-0.249358
-0.215322
-0.155727
-0.0964361
-0.043177
-0.0165621
0.0148371
0.0247762
-0.00522444
-0.0527269
-0.100057
-0.105765
-0.105973
-0.0844419
-0.0066149
-0.261461
-0.262952
-0.256543
-0.247597
-0.234087
-0.212748
-0.183831
-0.14985
-0.114823
-0.0857277
-0.068431
-0.06957
-0.094395
-0.153046
-0.211509
-0.229882
-0.198285
-0.143779
-0.0886045
-0.0382559
-0.0121995
0.0202029
0.0314278
0.00613974
-0.0470979
-0.100416
-0.108584
-0.105023
-0.0823441
-0.00676351
-0.245475
-0.24787
-0.241796
-0.233379
-0.221281
-0.202456
-0.176888
-0.146859
-0.115915
-0.090044
-0.0746409
-0.075844
-0.0970577
-0.14634
-0.195356
-0.209966
-0.181243
-0.131924
-0.0809094
-0.0333599
-0.00786262
0.0253608
0.03848
0.0186425
-0.0406899
-0.10029
-0.110419
-0.103168
-0.0794824
-0.00689038
-0.229364
-0.232726
-0.227373
-0.219639
-0.208919
-0.192528
-0.170157
-0.143881
-0.11672
-0.0940008
-0.0802682
-0.0811969
-0.0986919
-0.138899
-0.179013
-0.190404
-0.164696
-0.120379
-0.073455
-0.0285535
-0.00359393
0.0302599
0.0457752
0.0320779
-0.0334547
-0.0997842
-0.111054
-0.100311
-0.0758308
-0.00698173
-0.213501
-0.217738
-0.213353
-0.206446
-0.197049
-0.182935
-0.163587
-0.140798
-0.117154
-0.0973213
-0.0850509
-0.0854586
-0.0993707
-0.131235
-0.163265
-0.171853
-0.149031
-0.109318
-0.0663215
-0.0239089
0.000557082
0.0348412
0.0530834
0.0460221
-0.0254134
-0.099032
-0.110306
-0.0963871
-0.0713895
-0.00702142
-0.198111
-0.203067
-0.199773
-0.193809
-0.185686
-0.173673
-0.157114
-0.137531
-0.117094
-0.0998532
-0.0888719
-0.0886297
-0.0992595
-0.123749
-0.14866
-0.154741
-0.13449
-0.0988656
-0.0595649
-0.0194985
0.00453917
0.0390348
0.0601124
0.0598269
-0.016668
-0.0981186
-0.108029
-0.0913752
-0.0661918
-0.00699118
-0.183325
-0.188834
-0.186657
-0.181714
-0.174823
-0.164726
-0.150715
-0.134033
-0.11649
-0.101552
-0.0917128
-0.0907889
-0.0985293
-0.116656
-0.135494
-0.139264
-0.12118
-0.0891016
-0.05322
-0.0153862
0.00830454
0.0427659
0.0665399
0.0726751
-0.00736073
-0.0969673
-0.104118
-0.0853101
-0.060311
-0.00687123
-0.16923
-0.175136
-0.17403
-0.170142
-0.164441
-0.156079
-0.144368
-0.13029
-0.115336
-0.102433
-0.0936059
-0.0920373
-0.0973257
-0.111072
-0.123843
-0.125438
-0.109111
-0.080071
-0.0473039
-0.0116195
0.0118085
0.0459709
0.0720525
0.0836721
0.00238264
-0.0951672
-0.098473
-0.0782892
-0.0538675
-0.00664192
-0.155881
-0.162048
-0.161924
-0.15908
-0.15452
-0.147721
-0.138066
-0.126309
-0.113655
-0.102543
-0.0946109
-0.092471
-0.0956465
-0.105033
-0.113546
-0.113175
-0.0982369
-0.0717935
-0.0418222
-0.00822652
0.0150032
0.0486201
0.0762428
0.0919649
0.012494
-0.0917767
-0.0910722
-0.0704881
-0.047032
-0.00628639
-0.143314
-0.149623
-0.15037
-0.148523
-0.145044
-0.139647
-0.131812
-0.122106
-0.111481
-0.101943
-0.0948044
-0.0921839
-0.0935768
-0.0994649
-0.104462
-0.102344
-0.0884849
-0.06427
-0.0367761
-0.00521995
0.0178296
0.0507221
0.0791516
0.0969799
0.0229353
-0.0853947
-0.081959
-0.0621632
-0.040022
-0.00579422
-0.131548
-0.137901
-0.139399
-0.138473
-0.136001
-0.131857
-0.12562
-0.117712
-0.108865
-0.100705
-0.0942729
-0.0912688
-0.0912261
-0.0942924
-0.0964334
-0.0928024
-0.079773
-0.0574873
-0.0321702
-0.00260242
0.0202178
0.0522591
0.080598
0.0986384
0.0335091
-0.0747474
-0.0713453
-0.0536315
-0.0330864
-0.00516563
-0.120591
-0.126909
-0.129036
-0.128939
-0.127388
-0.124355
-0.119511
-0.113165
-0.105865
-0.0989107
-0.0931093
-0.0898151
-0.0885953
-0.0894506
-0.0893142
-0.084413
-0.0720195
-0.0514209
-0.0280158
-0.000372574
0.0221015
0.0531279
0.0804992
0.0973375
0.0435199
-0.0598074
-0.0597308
-0.0452292
-0.0264772
-0.00441585
-0.110442
-0.116661
-0.119303
-0.119933
-0.119206
-0.117152
-0.113512
-0.108512
-0.102548
-0.0966449
-0.0914111
-0.0879171
-0.0857764
-0.0848995
-0.0829793
-0.0770486
-0.0651467
-0.0460381
-0.0243247
0.00146871
0.0234369
0.0531426
0.0788507
0.0936914
0.0517439
-0.0424161
-0.0478577
-0.0372497
-0.0204114
-0.00357802
-0.101093
-0.107164
-0.110213
-0.111467
-0.111466
-0.110263
-0.107657
-0.103808
-0.0989908
-0.0939985
-0.0892788
-0.0856664
-0.0828259
-0.0806154
-0.0773242
-0.0705945
-0.0590819
-0.0413013
-0.0211012
0.00291735
0.0242032
0.0521449
0.0757722
0.0883342
0.0570957
-0.0252673
-0.036484
-0.0298949
-0.0150416
-0.00269865
-0.0925302
-0.0984173
-0.101778
-0.103555
-0.10418
-0.10371
-0.101983
-0.0991099
-0.0952704
-0.0910654
-0.086813
-0.0831359
-0.0797993
-0.0765876
-0.0722649
-0.0649479
-0.053758
-0.0371702
-0.0183382
0.00397603
0.0244056
0.0501471
0.0715583
0.0819435
0.0592304
-0.0103267
-0.0261212
-0.0232563
-0.010451
-0.00182658
-0.0847371
-0.0904173
-0.0940075
-0.0962134
-0.0973668
-0.0975188
-0.0965328
-0.0944808
-0.0914688
-0.0879412
-0.084116
-0.080452
-0.0767566
-0.0728148
-0.0677362
-0.0600185
-0.0491132
-0.0336024
-0.0160179
0.00466251
0.0240865
0.0473696
0.0666095
0.0751717
0.0586611
0.00150645
-0.0170113
-0.017354
-0.00665826
-0.00100928
-0.0776973
-0.0831577
-0.0869066
-0.0894559
-0.0910481
-0.0917195
-0.0913521
-0.0899849
-0.0876684
-0.0847204
-0.0812839
-0.0776792
-0.0737537
-0.0693022
-0.0636891
-0.0557288
-0.0450906
-0.0305544
-0.0141128
0.00501368
0.023323
0.0441296
0.061314
0.0684941
0.0562564
0.0102435
-0.00922787
-0.0121718
-0.00362923
-0.000286306
-0.0713955
-0.0766324
-0.0804824
-0.0832998
-0.0852488
-0.0863472
-0.0864897
-0.0856882
-0.0839515
-0.0814966
-0.0784083
-0.0748994
-0.0708456
-0.0660604
-0.0600888
-0.0520136
-0.0416379
-0.0279821
-0.012587
0.00508252
0.0222163
0.0407185
0.0559947
0.0621868
0.0528371
0.0163455
-0.00275905
-0.00767484
-0.00128648
0.000315446
-0.0658203
-0.0708379
-0.0747435
-0.0777644
-0.0799975
-0.0814409
-0.0819978
-0.0816581
-0.0804005
-0.0783626
-0.0755805
-0.0721918
-0.0680876
-0.063105
-0.0569123
-0.0488199
-0.0387075
-0.0258415
-0.0113982
0.00493001
0.0208859
0.0373535
0.0508982
0.0563976
0.0490427
0.0203749
0.00245488
-0.00382446
0.000477117
0.00078431
-0.0609647
-0.0657749
-0.0697021
-0.0728725
-0.0753267
-0.0770436
-0.0779315
-0.0779634
-0.0770964