/*--------------------------------*- C++ -*----------------------------------*\
  =========                 |
  \\      /  F ield         | OpenFOAM: The Open Source CFD Toolbox
   \\    /   O peration     | Website:  https://openfoam.org
    \\  /    A nd           | Version:  7
     \\/     M anipulation  |
\*---------------------------------------------------------------------------*/
FoamFile
{
    version     2.0;
    format      ascii;
    class       surfaceScalarField;
    location    "85";
    object      phi;
}
// * * * * * * * * * * * * * * * * * * * * * * * * * * * * * * * * * * * * * //

dimensions      [0 3 -1 0 0 0 0];

internalField   nonuniform List<scalar> 
16735
(
-7.91107e-05
0.000178456
-9.93455e-05
-0.000280176
0.000306565
-0.000105499
-0.000581556
0.000274305
2.70748e-05
-0.000962413
0.000127199
0.000253658
-0.00140394
-9.72441e-05
0.000538766
-0.00189085
-0.000378507
0.000865424
-0.00241359
-0.000715206
0.00123794
-0.00297169
-0.00112051
0.00167861
-0.00357701
-0.00161614
0.00222146
-0.00223098
0.00291121
-0.00425724
-8.02622e-05
0.000258718
-0.00028452
0.000510823
-0.000591078
0.000580863
-0.000978865
0.000514986
-0.00142874
0.000352631
-0.0019251
0.000117856
-0.00245816
-0.000182146
-0.00302768
-0.000550997
-0.00364686
-0.000996966
-0.00153097
-0.00434686
-8.02916e-05
0.00033901
-0.000285029
0.00071556
-0.000592651
0.000888485
-0.000981823
0.000904158
-0.00143278
0.000803586
-0.00192891
0.000613992
-0.00245905
0.000347985
-0.00302149
1.14485e-05
-0.00362906
-0.000389398
-0.000845541
-0.00431449
-7.91269e-05
0.000418137
-0.000281452
0.000917885
-0.000585763
0.0011928
-0.000970465
0.00128886
-0.0014149
0.00124802
-0.00190079
0.00109989
-0.00241432
0.000861517
-0.00295049
0.000547611
-0.0035195
0.000179619
-0.000212477
-0.00415257
-7.67392e-05
0.000494876
-0.00027366
0.00111481
-0.000570116
0.00148925
-0.000944275
0.00166302
-0.00137435
0.00167809
-0.00183981
0.00156535
-0.00232292
0.00134463
-0.00281312
0.00103782
-0.00331564
0.000682137
0.000326646
-0.00385477
-7.31418e-05
0.000568018
-0.000261645
0.00130331
-0.000545612
0.00177322
-0.000903001
0.00202041
-0.00131072
0.00208582
-0.00174545
0.00200007
-0.00218431
0.00178349
-0.00260888
0.00146238
-0.00301624
0.0010895
0.000726635
-0.00341623
-6.83895e-05
0.000636407
-0.000245511
0.00148043
-0.000512331
0.00204004
-0.0008466
0.00235468
-0.00122378
0.00246299
-0.0016173
0.0023936
-0.00199817
0.00216436
-0.00233754
0.00180174
-0.00262141
0.00137338
0.00093899
-0.00283377
-6.25768e-05
0.000698984
-0.000225471
0.00164333
-0.000470513
0.00228508
-0.000775176
0.00265934
-0.00111331
0.00280113
-0.00145483
0.00273512
-0.00176379
0.00247332
-0.00199857
0.00203653
-0.00213133
0.00150613
0.000915069
-0.00210741
-5.5838e-05
0.000754822
-0.000201844
0.00178933
-0.000420545
0.00250378
-0.000688942
0.00292774
-0.000979053
0.00309124
-0.00125698
0.00301304
-0.00147935
0.00269568
-0.00158974
0.00214692
-0.00154386
0.00146026
0.000613609
-0.0012424
-4.83471e-05
0.000803169
-0.000175054
0.00191604
-0.000362961
0.00269169
-0.000588205
0.00315298
-0.000820576
0.00332361
-0.00102197
0.00321444
-0.00114134
0.00281504
-0.00110498
0.00211056
-0.000847272
0.00120255
1.9907e-05
-0.000253571
-4.03183e-05
0.000843488
-0.000145631
0.00202135
-0.000298453
0.00284451
-0.000473396
0.00332792
-0.000637349
0.00348756
-0.000747367
0.00332446
-0.00074493
0.00281261
-0.000538132
0.00190376
2.33461e-05
0.000641072
-0.000912452
0.000955705
-3.2003e-05
0.000875491
-0.000114209
0.00210356
-0.000227874
0.00295818
-0.000345106
0.00344515
-0.000428813
0.00357127
-0.00043002
0.00332567
-0.000281919
0.00266451
0.000106155
0.00151569
0.00092698
-0.000179753
-0.00233826
0.00235279
-2.36807e-05
0.000899171
-8.14955e-05
0.00216137
-0.00015222
0.0030289
-0.00020411
0.00349704
-0.00019449
0.00356165
-6.67848e-05
0.00319796
0.000258193
0.00233953
0.000895065
0.000878815
0.00203632
-0.00132101
-0.00425951
0.00395757
-1.56384e-05
0.00091481
-4.82183e-05
0.00219395
-7.25586e-05
0.00305324
-5.1354e-05
0.00347584
6.57238e-05
0.00344457
0.000346154
0.00291753
0.000881387
0.0018043
0.00180333
-4.31309e-05
0.00334757
-0.00286524
-0.00671138
0.00579944
-8.14146e-06
0.000922951
-1.49765e-05
0.00220079
1.02937e-05
0.00302797
0.000112306
0.00337383
0.000352043
0.00320484
0.000810674
0.0024589
0.00159727
0.0010177
0.00285792
-0.00130379
0.00488729
-0.00489461
-0.00971689
0.0078928
-1.40055e-06
0.000924352
1.76009e-05
0.00218179
9.53494e-05
0.00295022
0.000286439
0.00318274
0.000664722
0.00282655
0.00132939
0.00179423
0.00241182
-6.47207e-05
0.00407249
-0.00296445
0.00667173
-0.00749385
-0.0132692
0.0102241
4.53412e-06
0.000919818
4.95127e-05
0.00213681
0.000183152
0.00281659
0.00047184
0.00289405
0.00100579
0.00229261
0.0019061
0.000893922
0.00333097
-0.0014896
0.00545739
-0.00509087
0.0086929
-0.0107294
-0.0173148
0.0127384
9.77309e-06
0.000910045
8.13919e-05
0.00206519
0.000274829
0.00262315
0.000671007
0.00249787
0.00137962
0.00158399
0.00254727
-0.000273728
0.00436163
-0.00330396
0.0070219
-0.00775114
0.0109112
-0.0146186
-0.0217464
0.0153428
1.46451e-05
0.000895399
0.000114323
0.00196551
0.000372941
0.00236453
0.000888598
0.00198221
0.0017936
0.00067899
0.0032627
-0.00174283
0.0055116
-0.00555286
0.00877157
-0.0110111
0.0132607
-0.0191078
-0.0264223
0.0179366
1.96907e-05
0.000875709
0.000150135
0.00183506
0.000481378
0.00203329
0.00113138
0.00133221
0.00225773
-0.000447362
0.00406396
-0.00354907
0.00678554
-0.00827444
0.0106808
-0.0149063
0.0156794
-0.0241064
-0.031194
0.020451
2.56359e-05
0.000850073
0.00019122
0.00166948
0.00060509
0.00161942
0.00140761
0.000529693
0.00278323
-0.00182299
0.00496118
-0.00572702
0.00817887
-0.0114921
0.0126569
-0.0193844
0.0180309
-0.0294804
-0.0387792
0.0256162
3.33214e-05
0.000816752
0.000240297
0.0014625
0.000749542
0.00111017
0.00172587
-0.000446639
0.00338022
-0.00347733
0.00595861
-0.0083054
0.0096746
-0.0152081
0.0146259
-0.0243357
0.0203663
-0.0352208
-0.0458649
0.027452
4.36087e-05
0.000773143
0.000300099
0.00120601
0.000919979
0.000490294
0.00209357
-0.00162023
0.00405473
-0.0054385
0.00704945
-0.0113001
0.0112309
-0.0193895
0.0165147
-0.0296195
0.0223968
-0.0411028
-0.0523083
0.0288402
5.72821e-05
0.000715861
0.000373031
0.000890265
0.00112064
-0.000257316
0.00251527
-0.00301486
0.00480572
-0.00772895
0.00821209
-0.0147065
0.0127824
-0.0239598
0.0182372
-0.0350744
0.023989
-0.0468545
-0.0580929
0.0297735
7.49671e-05
0.000640894
0.000460881
0.000504352
0.00135409
-0.00115053
0.00299144
-0.0046522
0.0056228
-0.0103603
0.00940852
-0.0184922
0.0142506
-0.0288019
0.0196923
-0.0405161
0.0251141
-0.0522764
-0.0631796
0.0302009
9.70801e-05
0.000543814
0.000564633
3.67984e-05
0.00162075
-0.00220665
0.00351751
-0.00654896
0.0064853
-0.0133281
0.0105869
-0.0225938
0.0155558
-0.0337709
0.0208097
-0.04577
0.0257648
-0.0572314
-0.067573
0.0301582
0.000123814
0.00042
0.000684384
-0.000523772
0.0019187
-0.00344096
0.00408356
-0.00871382
0.00736314
-0.0166077
0.0116882
-0.0269188
0.0166309
-0.0387136
0.0215555
-0.0506946
0.0259729
-0.0616488
-0.0713217
0.0297215
0.000155152
0.000264848
0.000819343
-0.00118796
0.00224358
-0.0048652
0.00467451
-0.0111447
0.00821933
-0.0201525
0.0126557
-0.0313552
0.0174315
-0.0434894
0.0219305
-0.0551936
0.025793
-0.0655113
-0.0744937
0.028965
0.000190895
7.39529e-05
0.000967887
-0.00196496
0.0025888
-0.00648611
0.00527079
-0.0138267
0.0090142
-0.0238959
0.0134434
-0.0357844
0.0179386
-0.0479847
0.021961
-0.059216
0.0252883
-0.0688387
-0.0771668
0.0279615
0.000230685
-0.000156732
0.00112762
-0.00286189
0.00294563
-0.00830412
0.00584971
-0.0167308
0.00971031
-0.0277565
0.014021
-0.040095
0.0181559
-0.0521195
0.0216879
-0.0627481
0.0245224
-0.0716731
-0.0794162
0.0267718
0.000274023
-0.000430755
0.00129542
-0.00388329
0.00330356
-0.0103123
0.00638734
-0.0198146
0.0102769
-0.0316461
0.0143755
-0.0441936
0.0181035
-0.0558476
0.0211587
-0.0658032
0.0235528
-0.0740673
-0.0813091
0.0254458
0.000320266
-0.000751021
0.00146752
-0.00503054
0.00365081
-0.0124956
0.00686085
-0.0230246
0.010693
-0.0354782
0.0145088
-0.0480093
0.0178117
-0.0591505
0.0204205
-0.068412
0.022429
-0.0760757
-0.0829022
0.0240221
0.000368628
-0.00111965
0.00163955
-0.00630146
0.00397495
-0.014831
0.00725073
-0.0263004
0.0109481
-0.0391757
0.0144343
-0.0514955
0.0173152
-0.0620314
0.0195171
-0.070614
0.0211914
-0.07775
-0.0842409
0.02253
0.000418175
-0.00153782
0.00180671
-0.00769
0.00426384
-0.0172881
0.0075425
-0.0295791
0.0110416
-0.0426748
0.0141725
-0.0546264
0.0166491
-0.064508
0.0184866
-0.0724515
0.0198719
-0.0791353
-0.0853601
0.0209911
0.000467835
-0.00200566
0.00196394
-0.0091861
0.00450655
-0.0198307
0.00772758
-0.0328001
0.0109806
-0.0459278
0.0137479
-0.0573937
0.0158464
-0.0666066
0.0173609
-0.073966
0.0184955
-0.0802699
-0.0862859
0.0194213
0.000516425
-0.00252208
0.00210615
-0.0107758
0.00469419
-0.0224187
0.00780318
-0.0359091
0.0107775
-0.0489021
0.0131857
-0.0598018
0.0149369
-0.0683578
0.0161663
-0.0751953
0.0170809
-0.0811846
-0.0870371
0.0178321
0.000562689
-0.00308477
0.00222857
-0.0124417
0.00482051
-0.0250107
0.00777161
-0.0388602
0.0104483
-0.0515788
0.0125105
-0.061864
0.0139461
-0.0697935
0.0149234
-0.0761726
0.0156423
-0.0819034
-0.0876269
0.0162321
0.000605352
-0.00369012
0.002327
-0.0141633
0.00488216
-0.0275658
0.0076391
-0.0416171
0.0100101
-0.0539498
0.0117451
-0.063599
0.0128956
-0.0709439
0.0136487
-0.0769258
0.0141902
-0.0824449
-0.0880643
0.0146276
0.000643178
-0.0043333
0.00239809
-0.0159183
0.00487857
-0.0300463
0.00741459
-0.0441532
0.00948049
-0.0560157
0.0109097
-0.0650281
0.0118029
-0.0718372
0.0123548
-0.0774777
0.0127325
-0.0828226
-0.0883555
0.0130237
0.000675028
-0.00500833
0.0024395
-0.0176827
0.00481162
-0.0324184
0.00710861
-0.0464501
0.008876
-0.0577831
0.0100217
-0.0661739
0.0106825
-0.0724979
0.0110515
-0.0778467
0.0112753
-0.0830464
-0.0885048
0.0114245
0.000699909
-0.00570824
0.00244996
-0.0194328
0.00468515
-0.0346536
0.0067324
-0.0484974
0.00821201
-0.0592627
0.00909613
-0.067058
0.00954584
-0.0729477
0.00974615
-0.078047
0.00982315
-0.0831234
-0.0885149
0.00983328
0.00071702
-0.00642526
0.00242928
-0.021145
0.00450434
-0.0367287
0.00629719
-0.0502902
0.00750227
-0.0604678
0.00814537
-0.0677011
0.00840201
-0.0732043
0.00844466
-0.0780897
0.00837971
-0.0830585
-0.0883872
0.00825205
0.00072577
-0.00715103
0.00237823
-0.0227975
0.00427524
-0.0386257
0.00581373
-0.0518287
0.00675884
-0.0614129
0.00717968
-0.0681219
0.00725812
-0.0732827
0.00715142
-0.077983
0.00694799
-0.082855
-0.0881222
0.006683
0.000725795
-0.00787682
0.00229838
-0.0243701
0.0040043
-0.0403316
0.00529204
-0.0531165
0.00599213
-0.062113
0.00620747
-0.0683372
0.00611977
-0.073195
0.00586966
-0.0777329
0.00553017
-0.0825155
-0.0877203
0.00512823
0.000716955
-0.00859378
0.0021919
-0.025845
0.003698
-0.0418377
0.00474118
-0.0541597
0.00521101
-0.0625828
0.00523566
-0.0683619
0.00499164
-0.072951
0.0046022
-0.0773434
0.00412739
-0.0820407
-0.0871815
0.00358855
0.000699322
-0.0092931
0.00206139
-0.0272071
0.00336263
-0.043139
0.00416918
-0.0549662
0.0044229
-0.0628366
0.00426985
-0.0682089
0.00387784
-0.072559
0.00335281
-0.0768184
0.00274079
-0.0814287
-0.0864997
0.00205904
0.000673174
-0.00996627
0.00190973
-0.0284436
0.00300411
-0.0442334
0.0035831
-0.0555452
0.00363398
-0.0628874
0.0033144
-0.0678893
0.00278152
-0.0720261
0.00212633
-0.0761632
0.00137562
-0.080678
-0.0856486
0.000524489
0.000638992
-0.0106053
0.00174014
-0.0295448
0.00262796
-0.0451212
0.00298904
-0.0559063
0.00284934
-0.0627477
0.00237273
-0.0674127
0.00170423
-0.0713576
0.000922451
-0.0753814
6.36696e-05
-0.0798192
-0.0846446
-0.000940292
0.000597401
-0.0112027
0.00155566
-0.030503
0.00223916
-0.0458047
0.00239225
-0.0560594
0.00207319
-0.0624287
0.00144787
-0.0667873
0.000647481
-0.0705572
-0.000266047
-0.0744679
-0.0012731
-0.0788122
-0.0835499
-0.00236777
0.000549146
-0.0117518
0.0013592
-0.0313131
0.0018422
-0.0462877
0.00179715
-0.0560143
0.0013089
-0.0619404
0.000541855
-0.0660203
-0.000385454
-0.0696299
-0.00141617
-0.0734372
-0.00255776
-0.0776706
-0.0823294
-0.00377832
0.000495066
-0.0122469
0.0011536
-0.0319716
0.0014411
-0.0465752
0.00120732
-0.0557805
0.000559322
-0.0612924
-0.00034287
-0.0651181
-0.0013898
-0.068583
-0.00254585
-0.0722811
-0.00381142
-0.076405
-0.0809775
-0.00516333
0.000436055
-0.0126829
0.000941609
-0.0324772
0.00103944
-0.046673
0.000625906
-0.055367
-0.000173259
-0.0604933
-0.00120298
-0.0640884
-0.00237067
-0.0674153
-0.00364733
-0.0710045
-0.00503559
-0.0750167
-0.0794953
-0.00651779
0.000372993
-0.0130559
0.000725844
-0.03283
0.000640386
-0.0465876
6.07787e-05
-0.0547874
-0.000885782
-0.0595467
-0.00204084
-0.0629333
-0.00332531
-0.0661308
-0.00471934
-0.0696104
-0.00622927
-0.0735068
-0.0778854
-0.00783916
0.000306807
-0.0133627
0.000508631
-0.0330319
0.000249214
-0.0463281
-0.000500902
-0.0540373
-0.00158018
-0.0584674
-0.0028545
-0.061659
-0.00425256
-0.0647328
-0.00576122
-0.0681018
-0.00739097
-0.0718771
-0.0761519
-0.0091244
0.000239
-0.0136017
0.00029202
-0.0330849
-0.000136497
-0.0458996
-0.00104286
-0.0531309
-0.00225375
-0.0572565
-0.00364314
-0.0602696
-0.00515168
-0.0632242
-0.00677242
-0.066481
-0.00851925
-0.0701303
-0.0743016
-0.0103696
0.000170051
-0.0137718
8.50822e-05
-0.0329999
-0.000527167
-0.0452874
-0.00157162
-0.0520865
-0.00290552
-0.0559226
-0.00440601
-0.0587691
-0.00602204
-0.0616082
-0.00775224
-0.0647508
-0.00961283
-0.0682697
-0.0723395
-0.0115749
9.74949e-05
-0.0138693
-0.000135895
-0.0327665
-0.000900332
-0.0445229
-0.00208355
-0.0509033
-0.00353486
-0.0544713
-0.00514251
-0.0571615
-0.00686327
-0.0598875
-0.0087002
-0.0629139
-0.0106718
-0.066298
-0.0702628
-0.0127485
1.94695e-05
-0.0138887
-0.000359671
-0.0323874
-0.0012634
-0.0436192
-0.00257707
-0.0495896
-0.00414098
-0.0529074
-0.0058523
-0.0554501
-0.00767575
-0.058064
-0.00961746
-0.0609722
-0.0116956
-0.0642199
-0.0680705
-0.0138879
-5.28057e-05
-0.0138359
-0.000571267
-0.0318689
-0.00161456
-0.0425759
-0.00305157
-0.0481526
-0.00472302
-0.051236
-0.00653481
-0.0536383
-0.0084601
-0.0561387
-0.0105075
-0.0589248
-0.0126791
-0.0620483
-0.0657788
-0.0149709
-0.000124523
-0.0137114
-0.00077498
-0.0312185
-0.00195255
-0.0413983
-0.00350646
-0.0465987
-0.00528027
-0.0494622
-0.00718902
-0.0517296
-0.00921424
-0.0541135
-0.0113685
-0.0567705
-0.0136612
-0.0597556
-0.0635328
-0.0159071
-0.000195905
-0.0135155
-0.000971572
-0.0304428
-0.0022766
-0.0400933
-0.00394114
-0.0449341
-0.00581224
-0.047591
-0.0078139
-0.0497279
-0.00993319
-0.0519942
-0.012171
-0.0545327
-0.0144907
-0.0574359
-0.0607705
-0.0172529
-0.000265731
-0.0132498
-0.00116083
-0.0295477
-0.00258619
-0.038668
-0.0043552
-0.0431651
-0.00631877
-0.0456275
-0.00840887
-0.0476378
-0.0106137
-0.0497894
-0.012929
-0.0522174
-0.0153723
-0.0549926
-0.0580266
-0.0181162
-0.000333498
-0.0129163
-0.00134227
-0.0285389
-0.00288091
-0.0371293
-0.00474831
-0.0412977
-0.00679954
-0.0435762
-0.00897383
-0.0454635
-0.0112623
-0.0475009
-0.0136695
-0.0498102
-0.0162297
-0.0524325
-0.0552574
-0.0189989
-0.000398861
-0.0125174
-0.00151542
-0.0274224
-0.00316039
-0.0354844
-0.00512017
-0.039338
-0.00725414
-0.0414423
-0.00950798
-0.0432097
-0.011876
-0.0451329
-0.0143682
-0.047318
-0.0170152
-0.0497855
-0.052436
-0.0198366
-0.000461532
-0.0120559
-0.00167984
-0.0262041
-0.00342432
-0.0337399
-0.00547059
-0.0372917
-0.00768244
-0.0392304
-0.0100116
-0.0408805
-0.0124559
-0.0426886
-0.0150283
-0.0447456
-0.0177534
-0.0470603
-0.0495512
-0.0206382
-0.000521256
-0.0115346
-0.00183515
-0.0248902
-0.00367244
-0.0319026
-0.0057994
-0.0351647
-0.00808429
-0.0369455
-0.0104845
-0.0384803
-0.0130007
-0.0401724
-0.0156473
-0.042099
-0.0184447
-0.044263
-0.0465985
-0.0213974
-0.000577808
-0.0109568
-0.00198105
-0.0234869
-0.00390453
-0.0299791
-0.00610649
-0.0329628
-0.0084596
-0.0345924
-0.0109264
-0.0360135
-0.0135103
-0.0375885
-0.016226
-0.0393833
-0.0190917
-0.0413973
-0.0435777
-0.0221124
-0.000630987
-0.0103258
-0.00211727
-0.0220006
-0.00412042
-0.027976
-0.00639175
-0.0306914
-0.00880829
-0.0321759
-0.0113373
-0.0334845
-0.0139842
-0.0349416
-0.0167642
-0.0366033
-0.0196944
-0.0384671
-0.0404909
-0.0227812
-0.000680618
-0.00964522
-0.00224359
-0.0204377
-0.00431997
-0.0258996
-0.00665513
-0.0283563
-0.00913029
-0.0297007
-0.011717
-0.0308979
-0.0144223
-0.0322363
-0.017262
-0.0337637
-0.0202526
-0.0354764
-0.0373414
-0.0234021
-0.000726549
-0.00891868
-0.00235982
-0.0188044
-0.00450307
-0.0237563
-0.00689656
-0.0259628
-0.00942552
-0.0271718
-0.0120653
-0.0282581
-0.0148245
-0.029477
-0.0177191
-0.030869
-0.0207659
-0.0324297
-0.0341333
-0.0239741
-0.000768646
-0.00815003
-0.00246582
-0.0171072
-0.00466962
-0.0215525
-0.00711601
-0.0235164
-0.00969394
-0.0245938
-0.0123821
-0.02557
-0.0151905
-0.0266687
-0.0181354
-0.0279241
-0.0212337
-0.0293314
-0.0308711
-0.0244959
-0.000806796
-0.00734323
-0.00256146
-0.0153526
-0.00481957
-0.0192944
-0.00731345
-0.0210225
-0.00993549
-0.0219718
-0.0126673
-0.0228382
-0.0155201
-0.0238159
-0.0185106
-0.0249336
-0.0216555
-0.0261865
-0.0275598
-0.0249668
-0.000840902
-0.00650233
-0.00264662
-0.0135468
-0.00495284
-0.0169882
-0.00748885
-0.0184865
-0.0101501
-0.0193105
-0.0129209
-0.0200674
-0.0158133
-0.0209235
-0.0188443
-0.0219026
-0.0220309
-0.0229998
-0.0242047
-0.025386
-0.00087088
-0.00563145
-0.00272123
-0.0116965
-0.00506942
-0.01464
-0.00764218
-0.0159137
-0.0103378
-0.0166149
-0.0131427
-0.0172625
-0.0160698
-0.0179963
-0.0191365
-0.018836
-0.0223596
-0.0197767
-0.0208112
-0.0257531
-0.000896661
-0.00473479
-0.00278521
-0.00980794
-0.00516925
-0.012256
-0.00777344
-0.0133095
-0.0104985
-0.0138899
-0.0133327
-0.0144283
-0.0162896
-0.0150394
-0.0193868
-0.0157388
-0.0226413
-0.0165222
-0.0173848
-0.0260677
-0.000918188
-0.0038166
-0.0028385
-0.00788762
-0.0052523
-0.00984219
-0.00788262
-0.0106792
-0.0106321
-0.0111403
-0.0134907
-0.0115697
-0.0164725
-0.0120576
-0.0195952
-0.0126161
-0.0228758
-0.0132416
-0.013931
-0.0263296
-0.000935413
-0.00288119
-0.00288106
-0.00594197
-0.00531857
-0.00740468
-0.0079697
-0.00802807
-0.0107388
-0.00837126
-0.0136169
-0.00869159
-0.0166185
-0.00905595
-0.0197615
-0.00947314
-0.0230629
-0.00994022
-0.0104554
-0.0265385
-0.0009483
-0.00193289
-0.00291285
-0.00397742
-0.00536803
-0.00494951
-0.00803468
-0.00536143
-0.0108183
-0.00558759
-0.013711
-0.00579893
-0.0167275
-0.00603947
-0.0198857
-0.00631494
-0.0232026
-0.0066233
-0.00696359
-0.0266944
-0.000956822
-0.000976069
-0.00293384
-0.0020004
-0.00540066
-0.00248269
-0.00807754
-0.00268455
-0.0108708
-0.00279428
-0.0137731
-0.00289666
-0.0167994
-0.00301319
-0.0199676
-0.00314669
-0.0232948
-0.00329612
-0.00346104
-0.0267974
-0.000960962
-1.51071e-05
-0.00294402
-1.73349e-05
-0.00541647
-1.02392e-05
-0.0080983
-2.72093e-06
-0.0108963
3.68213e-06
-0.0138032
1.02813e-05
-0.0168342
1.78548e-05
-0.0200074
2.64462e-05
-0.0233396
3.60585e-05
4.67187e-05
-0.0268473
-0.000960711
0.000945604
-0.00294338
0.00196533
-0.00541545
0.00246183
-0.00809694
0.00267877
-0.0108946
0.00280134
-0.0138012
0.00291692
-0.016832
0.00304861
-0.0200049
0.00319931
-0.0233368
0.00336798
0.00355433
-0.0268444
-0.000956069
0.00190167
-0.00293191
0.00394118
-0.00539759
0.0049275
-0.00807345
0.00535463
-0.0108658
0.00559372
-0.0137672
0.00581831
-0.0167926
0.00607404
-0.0199601
0.00636675
-0.0232865
0.00669438
0.00705617
-0.0267883
-0.000947044
0.00284872
-0.00290963
0.00590376
-0.00536289
0.00738077
-0.00802785
0.00801959
-0.01081
0.00837584
-0.0137012
0.00870949
-0.0167162
0.0090891
-0.0198731
0.00952359
-0.0231887
0.01001
0.0105468
-0.0266793
-0.000933654
0.00378237
-0.00287654
0.00784665
-0.00531137
0.00981559
-0.00796012
0.0106684
-0.010727
0.0111428
-0.0136031
0.0115855
-0.0166027
0.0120888
-0.0197438
0.0126647
-0.0230434
0.0133096
0.0140206
-0.0265172
-0.000915926
0.0046983
-0.00283268
0.0097634
-0.00524301
0.0122259
-0.00787027
0.0132956
-0.010617
0.0138895
-0.0134729
0.0144414
-0.0164522
0.015068
-0.0195724
0.0157849
-0.0228506
0.0165878
0.0174722
-0.0263022
-0.000893895
0.00559219
-0.00277807
0.0116476
-0.00515785
0.0146057
-0.00775829
0.0158961
-0.0104799
0.0166111
-0.0133108
0.0172724
-0.0162647
0.0180218
-0.0193589
0.0188791
-0.0226105
0.0198395
0.020896
-0.0260342
-0.00086761
0.0064598
-0.00271277
0.0134927
-0.00505589
0.0169488
-0.0076242
0.0184644
-0.0103158
0.0193027
-0.0131168
0.0200734
-0.0160402
0.0209452
-0.0191033
0.0219422
-0.0223231
0.0230593
0.0242863
-0.0257135
-0.000837127
0.00729693
-0.00263682
0.0152924
-0.00493716
0.0192492
-0.00746798
0.0209952
-0.0101246
0.0219592
-0.0128909
0.0228398
-0.015779
0.0238334
-0.018806
0.0249691
-0.0219887
0.026242
0.0276378
-0.0253402
-0.000802516
0.00809944
-0.0025503
0.0170402
-0.00480169
0.0215005
-0.00728966
0.0234832
-0.00990635
0.0245759
-0.0126331
0.0255665
-0.0154811
0.0266813
-0.0184669
0.0279549
-0.0216075
0.0293826
0.0309451
-0.0249147
-0.000763862
0.00886331
-0.0024533
0.0187297
-0.00464951
0.0236967
-0.00708924
0.0259229
-0.00966116
0.0271478
-0.0123436
0.028249
-0.0151466
0.0294843
-0.0180864
0.0308947
-0.0211798
0.032476
0.0342028
-0.0244375
-0.000721261
0.00958457
-0.00234592
0.0203543
-0.00448068
0.0258315
-0.00686674
0.0283089
-0.00938903
0.0296701
-0.0120225
0.0308825
-0.0147757
0.0322375
-0.0176646
0.0337836
-0.020706
0.0355174
0.037406
-0.0239092
-0.000674831
0.0102594
-0.00222828
0.0219078
-0.00429526
0.0278985
-0.00662219
0.0306359
-0.00909
0.0321379
-0.0116698
0.0334622
-0.0143685
0.0349363
-0.0172019
0.036617
-0.0201867
0.0385021
0.0405501
-0.0233308
-0.000624703
0.0108841
-0.00210054
0.0233836
-0.00409334
0.0298913
-0.00635562
0.0328981
-0.00876411
0.0345464
-0.0112856
0.0359837
-0.0139253
0.037576
-0.0166985
0.0393902
-0.0196222
0.0414258
0.043631
-0.0227031
-0.000571035
0.0114551
-0.00196289
0.0247755
-0.00387503
0.0318034
-0.00606708
0.0350902
-0.00841143
0.0368908
-0.0108701
0.0384423
-0.0134461
0.0401521
-0.0161544
0.0420985
-0.0190131
0.0442845
0.0466454
-0.0220275
-0.000514003
0.0119691
-0.00181555
0.026077
-0.00364046
0.0336283
-0.00575663
0.0372064
-0.00803201
0.0391662
-0.0104234
0.0408337
-0.0129312
0.0426599
-0.0155699
0.0447371
-0.0183596
0.0470742
0.0495911
-0.0213053
-0.00045381
0.0124229
-0.00165878
0.027282
-0.00338981
0.0353594
-0.00542436
0.0392409
-0.00762594
0.0413677
-0.00994563
0.0431534
-0.0123809
0.0450952
-0.0149447
0.0473009
-0.0176615
0.0497911
0.0524682
-0.0205386
-0.000390688
0.0128136
-0.0014929
0.0283842
-0.00312329
0.0369898
-0.00507038
0.041188
-0.00719328
0.0434906
-0.00943697
0.0453971
-0.0117954
0.0474536
-0.0142785
0.049784
-0.0169165
0.0524291
0.0552808
-0.0197291
-0.000324895
0.0131385
-0.0013183
0.0293776
-0.00284118
0.0385126
-0.00469485
0.0430417
-0.0067342
0.04553
-0.00889764
0.0475605
-0.0111759
0.0497318
-0.0135734
0.0521815
-0.016124
0.0549797
0.0580396
-0.0188828
-0.00025673
0.0133953
-0.0011354
0.0302563
-0.00254377
0.039921
-0.00429797
0.0447959
-0.00624882
0.0474808
-0.00832735
0.049639
-0.0105212
0.0519257
-0.0128264
0.0544867
-0.0152601
0.0574135
0.0607709
-0.0179914
-0.000186555
0.0135818
-0.00094471
0.0310144
-0.00223145
0.0412077
-0.00388003
0.0464445
-0.00573751
0.0493383
-0.00772689
0.0516284
-0.0098345
0.0540333
-0.0120611
0.0567133
-0.014371
0.0597233
0.0635179
-0.017118
-0.00011492
0.0136967
-0.000746678
0.0316462
-0.00190463
0.0423657
-0.00344137
0.0479812
-0.00520059
0.0510975
-0.00709635
0.0535242
-0.0091093
0.0560463
-0.0112517
0.0588556
-0.0135333
0.062005
0.0657626
-0.015778
-4.33039e-05
0.01374
-0.000541452
0.0321443
-0.00156387
0.0433881
-0.00298241
0.0493998
-0.00463824
0.0527534
-0.00643632
0.0553223
-0.00834886
0.0579588
-0.0103842
0.060891
-0.0125452
0.064166
0.0680472
-0.0148299
3.08505e-05
0.0137092
-0.000328061
0.0325033
-0.00120999
0.04427
-0.00250371
0.0506935
-0.00405093
0.0543006
-0.00574778
0.0570191
-0.00755795
0.059769
-0.00948734
0.0628204
-0.0115545
0.0662332
0.0702308
-0.013738
0.000107888
0.0136013
-0.000100861
0.032712
-0.000844431
0.0450136
-0.00200578
0.0518548
-0.00343934
0.0557341
-0.00503174
0.0586115
-0.00673858
0.0614758
-0.00856268
0.0646445
-0.0105228
0.0681934
0.0722979
-0.01259
0.00017988
0.0134214
0.000114685
0.0327772
-0.000469038
0.0455973
-0.00148924
0.052875
-0.00280444
0.0570493
-0.00428874
0.0600958
-0.00589011
0.0630772
-0.00760686
0.0663612
-0.00945531
0.0700418
0.0742495
-0.0114069
0.000248892
0.0131725
0.000325658
0.0327004
-7.05081e-05
0.0459935
-0.00095583
0.0537604
-0.00214697
0.0582405
-0.00351909
0.0614679
-0.00501217
0.0645703
-0.00661877
0.0679678
-0.00835274
0.0717758
0.0760884
-0.0101916
0.000316804
0.0128557
0.000542908
0.0324743
0.000310596
0.0462258
-0.000410051
0.054481
-0.00146757
0.059298
-0.00272341
0.0627238
-0.00410515
0.065952
-0.00559888
0.0694615
-0.00721503
0.0733919
0.0778096
-0.00893623
0.000382682
0.012473
0.000760552
0.0320965
0.000705657
0.0462807
0.000153232
0.0550334
-0.000767458
0.0602187
-0.00190252
0.0638588
-0.00316968
0.0672191
-0.00454784
0.0708397
-0.00604344
0.0748875
0.0794067
-0.0076405
0.000445297
0.0120277
0.000976623
0.0315651
0.00110714
0.0461502
0.000724986
0.0554156
-4.91587e-05
0.0609928
-0.00105728
0.064867
-0.00220653
0.0683684
-0.0034662
0.0720994
-0.00483938
0.0762607
0.0808755
-0.00630822
0.000503728
0.011524
0.00118851
0.0308803
0.00151055
0.0458282
0.00131041
0.0556157
0.000690288
0.061613
-0.0001903
0.0657475
-0.00121695
0.0693951
-0.00235455
0.073237
-0.00360426
0.0775104
0.0822137
-0.00494245
0.000557039
0.010967
0.00139347
0.0300439
0.00191281
0.0453088
0.00190393
0.0556246
0.00144599
0.0620709
0.000703481
0.0664901
-0.000205087
0.0703036
-0.00121454
0.0742464
-0.00233879
0.0786347
0.0834204
-0.00354552
0.000604325
0.0103627
0.00158872
0.0290595
0.00231028
0.0445872
0.00250227
0.0554326
0.00221619
0.062357
0.00161739
0.0670889
0.000839034
0.071082
-6.08956e-05
0.0751464
-0.00104022
0.079614
0.0845032
-0.00212299
0.000644755
0.0097179
0.0017714
0.0279329
0.00269878
0.0436599
0.00310167
0.0550297
0.00299798
0.0624607
0.00255027
0.0675366
0.00190566
0.0717266
0.0011455
0.0759065
0.000294289
0.0804652
0.085484
-0.000686496
0.000677595
0.00904031
0.00193852
0.0266719
0.00307367
0.0425247
0.0036975
0.0544059
0.00378782
0.0623704
0.00349996
0.0678244
0.00299309
0.0722335
0.0023605
0.0765391
0.00163265
0.081193
0.0863074
0.000809297
0.000702233
0.00833807
0.00208695
0.0252872
0.0034298
0.0411819
0.00428428
0.0535514
0.00458125
0.0620734
0.00446321
0.0679425
0.00409965
0.072597
0.00359956
0.0770392
0.00301068
0.0817819
0.0869697
0.00234835
0.000718216
0.00761986
0.00221345
0.023792
0.00376147
0.0396338
0.00485563
0.0524573
0.00537289
0.0615561
0.00543633
0.067879
0.00522353
0.0728098
0.00486097
0.0774017
0.00440994
0.082233
0.0874887
0.0038909
0.000725301
0.00689456
0.00231517
0.0222021
0.0040626
0.0378864
0.00540419
0.0511157
0.00615622
0.0608041
0.00641468
0.0676206
0.00636142
0.0728631
0.00614033
0.0776228
0.0058265
0.0825468
0.0878682
0.00544705
0.000723451
0.00617111
0.00238956
0.020536
0.00432675
0.0359492
0.00592158
0.0495208
0.00692342
0.0598023
0.00739233
0.0671517
0.00750913
0.0727463
0.00743419
0.0776978
0.00725891
0.0827221
0.0881082
0.0070189
0.000712853
0.00545825
0.00243448
0.0188144
0.00454729
0.0338364
0.00639839
0.0476697
0.00766517
0.0585355
0.008362
0.0664548
0.00866173
0.0724465
0.00873961
0.0776199
0.00870558
0.0827561
0.0882083
0.00860549
0.000693918
0.00476434
0.00244851
0.0170598
0.00471773
0.0315672
0.00682427
0.0455632
0.00837055
0.0569892
0.00931473
0.0655106
0.00981319
0.0719481
0.010053
0.0773801
0.0101642
0.0826449
0.0881674
0.010205
0.00066729
0.00409705
0.00243105
0.015296
0.00483205
0.0291662
0.00718811
0.0432071
0.00902691
0.0551504
0.0102396
0.0642979
0.0109559
0.0712319
0.0113695
0.0769664
0.0116315
0.0823829
0.0879838
0.0118152
0.000633826
0.00346322
0.00238252
0.0135473
0.00488523
0.0266635
0.00747844
0.0406139
0.00961986
0.053009
0.0111235
0.0627943
0.01208
0.0702754
0.012683
0.0763634
0.0131038
0.0819621
0.0876539
0.0134337
0.000594569
0.00286865
0.00230442
0.0118375
0.00487373
0.0240942
0.00768389
0.0378038
0.0101334
0.0505594
0.0119506
0.0609771
0.0131732
0.0690529
0.0139853
0.0755513
0.0145759
0.0813715
0.0871727
0.0150571
0.000550705
0.00231795
0.00219939
0.0101888
0.00479613
0.0214974
0.00779397
0.0348059
0.0105504
0.047803
0.0127023
0.0588252
0.0142201
0.0675351
0.0152657
0.0745057
0.0160413
0.0805959
0.0865328
0.0166811
0.000503508
0.00181444
0.00207102
0.00862129
0.00465362
0.0189148
0.00780004
0.0316595
0.0108528
0.0447502
0.0133575
0.0563206
0.0152018
0.0656907
0.0165106
0.0731969
0.0174913
0.0796152
0.0857239
0.0183003
0.000454278
0.00136016
0.00192374
0.00715183
0.00445025
0.0163883
0.00769652
0.0284132
0.0110233
0.0414234
0.0138922
0.0534516
0.0160952
0.0634877
0.0177022
0.0715899
0.0189144
0.078403
0.0847308
0.0199075
0.000404282
0.000955876
0.00176248
0.00579363
0.00419301
0.0139578
0.0074821
0.0251242
0.0110461
0.0378595
0.014281
0.0502167
0.0168732
0.0608955
0.0188179
0.0696452
0.0202949
0.076926
0.0835322
0.0214935
0.000354694
0.000601183
0.00159239
0.00455594
0.00389141
0.0116588
0.00716083
0.0218547
0.0109094
0.0341109
0.0144978
0.0466283
0.0175042
0.0578891
0.0198294
0.0673199
0.0216121
0.0751434
0.082099
0.0230453
0.000306543
0.00029464
0.00141847
0.00344401
0.00355679
0.00952045
0.00674277
0.0186688
0.0106074
0.0302463
0.014518
0.0427177
0.0179535
0.0544536
0.0207023
0.0645711
0.0228388
0.0730068
0.0803923
0.0245455
0.000260682
3.39582e-05
0.00124533
0.00245937
0.00320136
0.00756442
0.00624368
0.0156264
0.0101427
0.0263473
0.0143219
0.0385386
0.0181845
0.0505909
0.0213956
0.0613601
0.0239399
0.0704624
0.0783623
0.0259699
0.000217768
-0.00018381
0.00107695
0.00160019
0.00283717
0.0058042
0.00568391
0.0127797
0.0095282
0.022503
0.0138975
0.0341692
0.018162
0.0463264
0.0218629
0.0576592
0.0248712
0.0674542
0.0759473
0.0272862
0.000178248
-0.000362058
0.000916577
0.000861861
0.00247523
0.00424555
0.00508634
0.0101686
0.00878707
0.0188022
0.0132458
0.0297105
0.0178562
0.0417161
0.0220546
0.0534608
0.025579
0.0639298
0.073075
0.0284513
0.000142397
-0.000504455
0.00076666
0.000237598
0.00212489
0.00288732
0.00447403
0.00781943
0.0079516