/*--------------------------------*- C++ -*----------------------------------*\
  =========                 |
  \\      /  F ield         | OpenFOAM: The Open Source CFD Toolbox
   \\    /   O peration     | Website:  https://openfoam.org
    \\  /    A nd           | Version:  7
     \\/     M anipulation  |
\*---------------------------------------------------------------------------*/
FoamFile
{
    version     2.0;
    format      ascii;
    class       volVectorField;
    location    "85";
    object      U;
}
// * * * * * * * * * * * * * * * * * * * * * * * * * * * * * * * * * * * * * //

dimensions      [0 1 -1 0 0 0 0];

internalField   nonuniform List<vector> 
8500
(
(-0.00136594 0.00398883 8.04568e-22)
(-0.0072584 0.00535955 -2.3088e-21)
(-0.0181377 0.00267553 -2.69128e-21)
(-0.0308928 -0.00210999 2.67419e-21)
(-0.0443786 -0.0076996 -2.46035e-21)
(-0.0576839 -0.0134574 -1.31134e-21)
(-0.0701954 -0.0192732 2.23869e-21)
(-0.0817043 -0.0253355 2.77884e-21)
(-0.0922721 -0.0319303 -4.57412e-22)
(-0.102267 -0.0393792 1.33938e-21)
(-0.00167488 0.00624379 -8.88332e-22)
(-0.0078889 0.0105096 2.74464e-21)
(-0.0189604 0.00950611 -6.46958e-21)
(-0.0318246 0.0055009 5.86615e-21)
(-0.0453764 2.65045e-05 2.55266e-22)
(-0.0587209 -0.00605648 4.29168e-21)
(-0.0712451 -0.0124212 -7.4617e-21)
(-0.0827406 -0.0190395 -1.09202e-20)
(-0.0932883 -0.0259921 -2.14509e-21)
(-0.103289 -0.033414 4.85815e-21)
(-0.00214542 0.00849657 8.25651e-22)
(-0.00884004 0.0156701 6.0646e-21)
(-0.0201094 0.0163675 1.4264e-20)
(-0.0329871 0.0131603 -1.29022e-20)
(-0.0464259 0.00781156 -2.92472e-21)
(-0.0595554 0.00140597 -2.65046e-21)
(-0.0717599 -0.00551044 1.35622e-20)
(-0.0828231 -0.0126835 8.4049e-21)
(-0.092831 -0.0199695 2.03174e-21)
(-0.102147 -0.0272836 -1.50782e-20)
(-0.00277273 0.0107053 2.93127e-21)
(-0.0100991 0.0207535 -3.55371e-21)
(-0.0215621 0.023151 -2.66804e-20)
(-0.0343467 0.0207511 2.3469e-21)
(-0.0474816 0.0155352 7.30893e-21)
(-0.0601295 0.00880459 -5.70628e-21)
(-0.0716673 0.00132084 -2.435e-22)
(-0.0818593 -0.00642974 -2.32837e-21)
(-0.0907808 -0.0140508 5.24695e-21)
(-0.0986473 -0.0211935 1.51468e-20)
(-0.00354697 0.0128274 2.04772e-21)
(-0.0116442 0.0256701 -1.15183e-20)
(-0.0232865 0.0297458 2.76377e-20)
(-0.0358612 0.0281548 -1.26044e-20)
(-0.0484903 0.0230776 -4.54427e-23)
(-0.0603777 0.0160167 1.74268e-20)
(-0.0708879 0.0079383 -7.98065e-21)
(-0.0797475 -0.000438527 8.88999e-22)
(-0.087012 -0.00843256 -3.28302e-21)
(-0.0925677 -0.0153727 1.26792e-21)
(-0.00445334 0.0148211 2.44743e-20)
(-0.0134442 0.0303312 2.96621e-20)
(-0.0252404 0.0360413 -7.56451e-21)
(-0.0374782 0.0352537 1.44593e-20)
(-0.0493876 0.0303212 4.58265e-21)
(-0.0602225 0.0229252 -6.482e-21)
(-0.0693276 0.0142162 -2.51378e-21)
(-0.0763693 0.00513803 -1.10222e-20)
(-0.0813896 -0.00331317 2.39326e-21)
(-0.0836455 -0.0100801 -1.42e-20)
(-0.00547241 0.0166474 -2.35959e-20)
(-0.0154591 0.0346516 -1.54714e-20)
(-0.0273717 0.0419295 1.26666e-20)
(-0.0391337 0.0419323 -2.195e-20)
(-0.0500954 0.0371522 2.55108e-21)
(-0.0595681 0.0294207 2.58122e-20)
(-0.0668697 0.0200426 -4.66496e-21)
(-0.071574 0.0101646 3.05353e-20)
(-0.0737602 0.00111881 -5.66713e-22)
(-0.0715721 -0.00559726 -1.25324e-20)
(-0.00658078 0.0182711 1.98872e-20)
(-0.0176402 0.0385514 -3.59301e-20)
(-0.0296175 0.0473069 -1.43013e-20)
(-0.0407506 0.0480781 1.67115e-20)
(-0.0505175 0.0434612 6.16447e-22)
(-0.0582933 0.0354032 -4.85301e-20)
(-0.0633622 0.025324 -2.94518e-21)
(-0.0651596 0.0145364 -2.42169e-20)
(-0.0639327 0.00470314 -3.13018e-20)
(-0.0559911 -0.00221024 1.85502e-20)
(-0.00775197 0.0196622 -1.11141e-20)
(-0.0199321 0.041959 5.35018e-21)
(-0.031905 0.052076 1.32108e-20)
(-0.0422375 0.0535827 -1.19225e-20)
(-0.0505361 0.0491427 -4.17076e-20)
(-0.0562435 0.0407816 1.434e-20)
(-0.0586037 0.0299883 2.0467e-21)
(-0.0568441 0.0181924 3.65669e-20)
(-0.0516449 0.00733978 4.8285e-20)
(-0.0365079 -7.073e-05 -2.18256e-20)
(-0.00895762 0.0207973 1.75952e-20)
(-0.0222735 0.0448122 1.60286e-20)
(-0.0341524 0.0561465 -2.29486e-21)
(-0.043488 0.0583411 5.92099e-20)
(-0.0500091 0.0540929 2.51893e-20)
(-0.0532231 0.04547 1.89571e-20)
(-0.0523287 0.0339821 2.70686e-20)
(-0.0462291 0.0211159 -1.18358e-20)
(-0.0364134 0.00891862 -1.61669e-20)
(-0.0125414 0.000988201 -2.69258e-20)
(-0.0101689 0.0216603 -1.59014e-21)
(-0.0245998 0.0470601 -2.53653e-20)
(-0.0362694 0.0594368 -1.82859e-20)
(-0.0443807 0.062252 -2.93163e-20)
(-0.0487678 0.0582077 -2.32858e-20)
(-0.0489917 0.049384 2.35709e-20)
(-0.0442049 0.0372687 -2.27291e-20)
(-0.0328466 0.0233408 -1.57499e-20)
(-0.017312 0.00911312 2.08304e-21)
(0.0165689 0.00137918 6.96937e-21)
(-0.0113582 0.0222433 -4.86843e-20)
(-0.0268445 0.0486649 2.3233e-20)
(-0.0381591 0.0618753 1.69537e-20)
(-0.0447786 0.0652181 1.13893e-20)
(-0.0466153 0.0613805 -2.08285e-20)
(-0.0432579 0.0524355 -1.76421e-20)
(-0.033815 0.0398235 2.56373e-20)
(-0.0163317 0.024992 -2.10298e-20)
(0.00667789 0.00833353 -1.23491e-21)
(0.0527027 0.000895492 -2.23329e-20)
(-0.0125006 0.0225473 4.088e-20)
(-0.028942 0.0496027 1.66354e-20)
(-0.0397182 0.0634025 9.70798e-22)
(-0.0445288 0.0671475 -2.07493e-20)
(-0.0433248 0.0635017 1.42877e-21)
(-0.0356781 0.0545257 2.33399e-20)
(-0.020587 0.0416106 -6.67975e-21)
(0.00413339 0.0261398 -8.24146e-21)
(0.036016 0.0071929 -1.87206e-20)
(0.0974744 -0.000393571 3.39923e-20)
(-0.0135752 0.0225816 2.77814e-20)
(-0.0308276 0.0498645 -4.49379e-20)
(-0.0408365 0.0639738 -3.4727e-20)
(-0.0434599 0.0679595 1.50012e-20)
(-0.0386364 0.0644626 3.07358e-20)
(-0.0258675 0.0555342 2.63146e-20)
(-0.0039581 0.0425357 -2.81274e-20)
(0.029538 0.0267358 5.48148e-20)
(0.0719638 0.00575852 -1.66906e-20)
(0.152041 -0.00120109 -4.01453e-20)
(-0.0145662 0.0223639 -4.16428e-20)
(-0.0324376 0.049456 2.50744e-20)
(-0.0413938 0.0635634 -1.21066e-20)
(-0.0413772 0.067592 1.27061e-21)
(-0.0322511 0.0641668 1.29998e-20)
(-0.013378 0.055347 -4.14674e-20)
(0.0167083 0.0425183 3.71238e-20)
(0.0607361 0.0268728 -3.62493e-20)
(0.116045 0.00409261 5.88529e-20)
(0.217362 -0.000342061 2.13789e-20)
(-0.0154632 0.0219184 8.87874e-21)
(-0.0337083 0.0484 4.88768e-20)
(-0.0412535 0.0621699 -1.23429e-20)
(-0.0380502 0.0660109 1.24932e-20)
(-0.0238144 0.062551 1.46733e-20)
(0.00231196 0.053883 -4.42713e-21)
(0.042161 0.0414879 3.19146e-20)
(0.098589 0.0265733 1.54042e-21)
(0.169871 0.00246517 -3.78605e-20)
(0.29348 0.00312132 5.11996e-20)
(-0.0162587 0.021274 -2.369e-20)
(-0.034571 0.0467343 -4.6343e-20)
(-0.0402555 0.0598175 4.024e-20)
(-0.0331993 0.063223 2.02484e-20)
(-0.0128944 0.0596104 -9.42215e-20)
(0.0218245 0.0511302 7.7181e-20)
(0.0732619 0.0394546 -7.0221e-20)
(0.143992 0.0258136 1.06273e-21)
(0.235032 0.00152614 -1.61641e-20)
(0.378723 0.00977371 -4.74125e-20)
(-0.0169454 0.0204608 2.05568e-20)
(-0.0349441 0.0445058 -2.79966e-21)
(-0.0382031 0.0565594 -9.88572e-21)
(-0.026479 0.0592904 -1.12812e-21)
(0.00104171 0.0554216 -5.87683e-21)
(0.0459109 0.0471922 -2.4614e-20)
(0.110994 0.0365829 1.0604e-20)
(0.197926 0.0246113 -1.67285e-20)
(0.312736 0.00259474 5.05588e-21)
(0.469159 0.0200004 1.41627e-21)
(-0.0175129 0.019506 -4.1976e-20)
(-0.0347251 0.0417682 -3.04026e-21)
(-0.0348524 0.0524798 4.59363e-21)
(-0.0174624 0.0543348 1.87182e-21)
(0.0186438 0.0501603 3.09004e-20)
(0.0754622 0.0423223 -9.04744e-20)
(0.156424 0.0332331 6.14006e-20)
(0.261548 0.0231463 -4.61919e-20)
(0.403248 0.00761926 3.92748e-20)
(0.55955 0.0332317 4.33201e-20)
(-0.0179422 0.018431 -5.10895e-21)
(-0.0337828 0.0385791 2.33611e-20)
(-0.0299033 0.0476906 -2.93406e-20)
(-0.00563507 0.0485393 -9.20231e-21)
(0.0406744 0.0441083 1.77895e-20)
(0.111472 0.0369346 8.6034e-20)
(0.210539 0.0299474 -1.73967e-20)
(0.335977 0.0220446 8.50012e-21)
(0.504907 0.0180793 -4.53925e-20)
(0.647485 0.0440424 2.06376e-20)
(-0.0182007 0.0172485 -1.53528e-20)
(-0.0319509 0.0349954 -1.19303e-20)
(-0.022996 0.0423268 2.93866e-21)
(0.00959827 0.0421446 1.15965e-20)
(0.0679758 0.0376493 -3.4409e-20)
(0.154943 0.0315957 -1.39792e-20)
(0.274043 0.0274184 -4.41884e-20)
(0.421419 0.0226567 4.58287e-20)
(0.612174 0.0323813 4.85471e-20)
(0.73776 0.0425207 -2.06138e-20)
(-0.0182378 0.0159618 -7.32065e-21)
(-0.0290231 0.0310703 2.98161e-20)
(-0.0137148 0.0365419 -3.3358e-20)
(0.0288921 0.035441 -3.89896e-21)
(0.101409 0.0312518 -1.57719e-20)
(0.206747 0.0269947 3.45273e-20)
(0.347202 0.0264701 4.47883e-20)
(0.51639 0.0265765 -4.30419e-20)
(0.716186 0.044205 4.58581e-20)
(0.859808 0.0423211 6.33316e-21)
(-0.0179823 0.0145656 -2.12244e-20)
(-0.0247537 0.0268543 -6.032e-20)
(-0.00160063 0.0305045 5.88996e-20)
(0.0529219 0.0287579 8.4874e-21)
(0.141762 0.0254449 1.24726e-20)
(0.267426 0.0238813 7.49786e-21)
(0.429572 0.0279445 3.41342e-20)
(0.617482 0.0343207 2.52339e-20)
(0.819461 0.0560351 -8.93902e-20)
(0.971 0.0568755 -4.40513e-20)
(-0.017342 0.0130493 -7.26312e-20)
(-0.0188617 0.0223977 1.46209e-20)
(0.0138299 0.0243975 -3.3307e-20)
(0.0823342 0.0224543 6.49355e-21)
(0.189644 0.0207923 1.04357e-20)
(0.336995 0.0229924 -7.51744e-20)
(0.519683 0.0325515 3.32122e-20)
(0.720657 0.0456073 -2.26382e-20)
(0.918239 0.0700436 2.37276e-20)
(1.06277 0.074104 -8.34836e-21)
(-0.0162052 0.0114015 2.62934e-20)
(-0.0110401 0.0177586 2.84029e-20)
(0.0330592 0.0184214 -1.62387e-21)
(0.117687 0.0169142 -9.12609e-21)
(0.245366 0.0178662 3.64965e-22)
(0.414769 0.024969 7.70056e-22)
(0.61496 0.0406682 -5.05885e-20)
(0.821717 0.0598455 6.425e-21)
(1.00784 0.0857127 6.33362e-20)
(1.13859 0.0917348 2.89524e-20)
(-0.0144445 0.00961601 -1.78232e-20)
(-0.000967434 0.0130114 -1.3196e-20)
(0.05654 0.012801 5.67652e-20)
(0.15939 0.0125439 1.45306e-21)
(0.308829 0.0172204 -2.38116e-20)
(0.49928 0.030269 6.41923e-20)
(0.71203 0.0522433 1.41449e-20)
(0.916696 0.0762676 8.42142e-22)
(1.08577 0.102232 -2.77017e-20)
(1.19769 0.108862 -3.63911e-20)
(-0.0119216 0.00769778 3.73365e-20)
(0.0116775 0.00825747 -1.03864e-20)
(0.0846642 0.00779365 -6.19988e-21)
(0.207641 0.00977109 -2.35933e-20)
(0.379432 0.0193534 3.87972e-20)
(0.588317 0.0390917 -1.90102e-20)
(0.807267 0.0668439 -2.14759e-20)
(1.00258 0.0940668 -5.06704e-21)
(1.15081 0.118891 -1.59049e-20)
(1.24241 0.124863 1.75792e-20)
(-0.00849357 0.00566818 -1.37411e-20)
(0.0271994 0.00363428 -8.1794e-20)
(0.11773 0.00369639 8.51237e-21)
(0.26237 0.00903737 2.94138e-20)
(0.456035 0.0246579 2.10582e-20)
(0.679158 0.051346 -7.03904e-20)
(0.897386 0.0838129 4.52919e-20)
(1.07753 0.112523 -2.06968e-20)
(1.20321 0.135173 3.14754e-20)
(1.27488 0.139676 8.74927e-21)
(-0.00401843 0.0035686 -1.50996e-20)
(0.0458689 -0.000677814 2.90173e-20)
(0.15591 0.000848299 3.79121e-20)
(0.323189 0.010779 -2.71912e-20)
(0.536985 0.0333644 1.01377e-20)
(0.768919 0.0666858 -6.20083e-20)
(0.979864 0.102442 -1.15729e-20)
(1.1409 0.131079 9.85133e-21)
(1.24399 0.150796 -2.39409e-20)
(1.29751 0.153345 -2.44997e-20)
(0.00163857 0.00146254 -1.95497e-20)
(0.0679042 -0.00445301 -6.6375e-21)
(0.199214 -0.000374208 -6.87799e-20)
(0.389362 0.0153925 -1.07967e-20)
(0.620252 0.0455034 -1.18777e-21)
(0.85494 0.0846034 3.66755e-21)
(1.05311 0.122094 6.41894e-21)
(1.19291 0.149359 -3.09301e-20)
(1.27465 0.16565 5.53732e-22)
(1.31241 0.166053 1.68781e-20)
(0.00859871 -0.000563968 -5.12095e-21)
(0.0934513 -0.00742203 2.38804e-20)
(0.247462 0.000428512 3.36353e-20)
(0.459805 0.0231907 2.10521e-20)
(0.703631 0.0609089 -6.23429e-21)
(0.935072 0.104537 -5.19396e-21)
(1.11641 0.142259 5.16991e-20)
(1.23441 0.167145 6.99844e-21)
(1.2968 0.179748 2.3432e-20)
(1.32139 0.178005 -1.01925e-20)
(0.0169634 -0.00240351 4.89715e-20)
(0.122566 -0.00927892 3.16445e-20)
(0.300259 0.00365565 -3.20903e-20)
(0.533142 0.0343611 -6.39355e-21)
(0.784983 0.0792639 3.36359e-21)
(1.00781 0.125952 -1.22563e-20)
(1.16973 0.162565 -2.65686e-20)
(1.26655 0.184341 -4.40408e-21)
(1.312 0.193181 3.45151e-22)
(1.32591 0.189405 1.10117e-20)
(0.0268077 -0.00392983 6.09795e-21)
(0.155198 -0.00969234 -1.72859e-20)
(0.356986 0.00967471 4.09436e-20)
(0.607801 0.048944 2.66742e-20)
(0.862433 0.100165 8.4494e-22)
(1.07228 0.14839 1.89896e-20)
(1.21356 0.182766 2.78769e-21)
(1.29058 0.200938 -2.02108e-20)
(1.32163 0.206073 1.7204e-20)
(1.32708 0.200436 -4.69032e-23)
(0.0381744 -0.00500134 -4.05015e-20)
(0.191173 -0.00832058 -1.19246e-20)
(0.416814 0.018788 -1.07581e-20)
(0.682146 0.0668377 -1.87499e-20)
(0.934501 0.123184 4.44206e-21)
(1.12815 0.171477 1.08899e-22)
(1.24864 0.202712 1.47115e-20)
(1.30777 0.216985 -2.34098e-21)
(1.32683 0.218557 -1.76843e-20)
(1.32574 0.21124 -1.65811e-20)
(0.0510676 -0.00546554 3.30027e-21)
(0.230192 -0.00482956 1.9347e-20)
(0.478736 0.0312036 9.38709e-21)
(0.754605 0.0878253 -2.93239e-20)
(1.00013 0.147904 -1.47688e-21)
(1.1755 0.194927 -1.26803e-20)
(1.27589 0.222327 3.28152e-22)
(1.31924 0.232556 5.97989e-21)
(1.32855 0.230759 -6.66734e-21)
(1.32246 0.221926 1.86491e-20)
(0.0654483 -0.00516426 7.78237e-21)
(0.271825 0.00108741 -1.89734e-20)
(0.541626 0.0470186 -4.479e-20)
(0.823781 0.11161 4.12788e-20)
(1.05867 0.173947 -3.09027e-21)
(1.21468 0.218524 9.14658e-21)
(1.29622 0.241583 -1.27919e-21)
(1.32597 0.247737 8.85293e-21)
(1.32751 0.242782 -6.58615e-22)
(1.31767 0.232562 -1.44524e-20)
(0.0812308 -0.00393967 -1.5881e-20)
(0.315524 0.00968984 2.47413e-20)
(0.604308 0.0662148 2.03948e-20)
(0.888514 0.137851 -2.94893e-20)
(1.10982 0.200978 -4.91261e-21)
(1.24623 0.242108 1.86828e-21)
(1.31054 0.260483 1.88473e-20)
(1.32879 0.262607 9.56169e-22)
(1.32424 0.254703 3.67485e-21)
(1.31163 0.243185 -7.93372e-21)
(0.0982812 -0.00164082 1.20511e-20)
(0.360639 0.0211725 -1.08237e-20)
(0.665618 0.0886677 -9.24024e-21)
(0.947909 0.166184 1.58387e-20)
(1.15352 0.228701 5.47082e-21)
(1.27076 0.265563 4.14792e-21)
(1.31965 0.279045 -1.91994e-20)
(1.32836 0.277234 -6.58016e-21)
(1.31913 0.266572 -5.89681e-21)
(1.30451 0.253802 2.61122e-21)
(0.116419 0.00186937 -6.03856e-21)
(0.40644 0.035652 -1.3817e-22)
(0.724473 0.114162 1.74968e-20)
(1.00132 0.196242 -6.40797e-21)
(1.18993 0.256861 -2.84559e-21)
(1.28892 0.288799 -1.87319e-21)
(1.32426 0.297284 4.64759e-21)
(1.3252 0.291663 8.02598e-21)
(1.31246 0.278409 -2.51523e-22)
(1.29643 0.2644 2.92552e-21)
(0.135418 0.00670718 4.25927e-21)
(0.452153 0.0531585 -1.19462e-21)
(0.779907 0.142411 -3.13819e-21)
(1.04835 0.227664 -2.8458e-21)
(1.21933 0.285229 2.56705e-21)
(1.30131 0.311744 2.0022e-21)
(1.32498 0.315211 -1.84566e-21)
(1.3197 0.305915 6.68116e-22)
(1.30441 0.29021 9.37183e-22)
(1.28744 0.274941 -1.24465e-21)
(0.155016 0.0129615 2.30198e-21)
(0.496988 0.0736335 6.53587e-22)
(0.831104 0.173072 -3.91303e-21)
(1.08876 0.260096 -3.12342e-21)
(1.24206 0.313601 3.25318e-21)
(1.30852 0.334331 6.3607e-22)
(1.3223 0.332824 -1.47441e-21)
(1.31217 0.319991 1.3833e-21)
(1.29511 0.301944 7.68591e-22)
(1.27757 0.285376 -8.79797e-22)
(0.174918 0.0206883 -8.97771e-22)
(0.540174 0.096933 1.82864e-21)
(0.877404 0.205765 1.208e-20)
(1.1225 0.293195 -5.37935e-21)
(1.25853 0.341786 -2.62369e-21)
(1.31106 0.356492 -2.94907e-21)
(1.31662 0.3501 6.02416e-21)
(1.30281 0.333867 4.01317e-21)
(1.28464 0.313562 3.19473e-21)
(1.26686 0.295648 1.73085e-21)
(0.194807 0.0299064 1.85087e-20)
(0.580983 0.122834 -1.01461e-20)
(0.918305 0.240084 -1.1519e-20)
(1.14961 0.32663 1.56525e-20)
(1.26916 0.369605 8.21793e-21)
(1.3094 0.378155 -5.43916e-22)
(1.30826 0.367001 -1.00362e-20)
(1.2918 0.347495 -7.21812e-21)
(1.27304 0.324995 -7.46116e-21)
(1.25533 0.305686 4.403e-21)
(0.214355 0.0405952 -2.50539e-20)
(0.618756 0.151044 2.34965e-20)
(0.95345 0.275605 2.70165e-20)
(1.17025 0.360081 -2.65678e-20)
(1.27433 0.396886 -9.15842e-21)
(1.30395 0.399239 5.8373e-21)
(1.29749 0.383472 1.05448e-20)
(1.27922 0.360807 1.63692e-21)
(1.26035 0.33615 -2.69379e-22)
(1.24299 0.315409 -5.96645e-21)
(0.23323 0.0526937 -3.61685e-21)
(0.652916 0.181212 -3.31029e-20)
(0.982615 0.311897 -3.53859e-20)
(1.18461 0.393237 3.95726e-20)
(1.27447 0.423457 -4.4813e-21)
(1.29504 0.419652 8.1285e-21)
(1.2845 0.39944 1.57168e-21)
(1.26516 0.373724 -4.47109e-21)
(1.24655 0.346918 2.39143e-21)
(1.22979 0.324716 -2.7667e-22)
(0.251109 0.0661016 7.3398e-21)
(0.682982 0.212942 2.0534e-20)
(1.00569 0.348527 1.16082e-20)
(1.19297 0.425797 -9.142e-21)
(1.26993 0.449149 -1.40962e-20)
(1.28297 0.439294 -1.30293e-20)
(1.26947 0.414825 -2.60248e-21)
(1.24969 0.386161 6.79102e-21)
(1.23165 0.357212 -1.42431e-21)
(1.21553 0.333518 3.28871e-21)
(0.267684 0.0806819 -2.77956e-20)
(0.708571 0.245803 -2.58246e-20)
(1.02267 0.385065 -4.07882e-21)
(1.1956 0.457471 -4.60649e-21)
(1.26108 0.473789 -1.03394e-20)
(1.26803 0.458051 6.25727e-21)
(1.25254 0.429525 -1.14303e-21)
(1.23288 0.398037 -5.95457e-21)
(1.21569 0.367031 5.38791e-21)
(1.20004 0.341822 -7.54456e-21)
(0.282672 0.0962649 6.61384e-21)
(0.729404 0.279339 2.18957e-20)
(1.03363 0.421086 1.89571e-20)
(1.19282 0.487979 2.0519e-20)
(1.24825 0.497208 4.53036e-22)
(1.25042 0.475799 1.75368e-20)
(1.23382 0.44342 1.07459e-21)
(1.21478 0.409228 -2.00416e-20)
(1.19875 0.376409 1.41653e-20)
(1.18351 0.34974 5.23406e-21)
(0.295823 0.112651 1.80267e-20)
(0.745301 0.313087 4.01144e-20)
(1.03872 0.456179 -5.30317e-21)
(1.18495 0.51705 -2.58107e-20)
(1.23175 0.519234 1.15677e-20)
(1.23036 0.492411 -1.1887e-20)
(1.21341 0.456386 -1.54897e-20)
(1.19544 0.419577 -1.12794e-21)
(1.18069 0.385151 -1.15112e-20)
(1.16646 0.356876 4.36468e-21)
(0.306923 0.129618 8.4389e-21)
(0.756174 0.346585 6.19756e-21)
(1.03812 0.489949 4.97162e-20)
(1.17233 0.544423 9.20348e-21)
(1.21188 0.539697 -7.93349e-21)
(1.20805 0.507752 -4.04865e-21)
(1.19145 0.468308 2.34088e-20)
(1.17494 0.429049 1.88785e-20)
(1.16153 0.393041 9.23321e-21)
(1.14883 0.36328 -1.17114e-21)
(0.315803 0.146925 1.75289e-21)
(0.762015 0.379376 -4.09823e-20)
(1.03211 0.52202 -5.83966e-20)
(1.15531 0.569849 1.72307e-21)
(1.18893 0.558428 1.11439e-20)
(1.18367 0.521681 -1.5295e-20)
(1.16807 0.479047 -3.37791e-20)
(1.15332 0.437528 -9.82891e-21)
(1.14142 0.400011 -5.65875e-22)
(1.1305 0.368768 4.05308e-21)
(0.322335 0.16432 -1.46122e-20)
(0.762897 0.411022 3.66804e-20)
(1.02097 0.552039 3.50144e-20)
(1.13425 0.593099 -3.1863e-20)
(1.16317 0.575255 4.89178e-21)
(1.15742 0.53405 3.60356e-20)
(1.14336 0.488485 -7.42945e-21)
(1.13061 0.444897 6.32282e-21)
(1.12045 0.405958 -2.64295e-21)
(1.1115 0.373294 -3.43458e-21)
(0.326436 0.181545 -3.27926e-20)
(0.758966 0.441097 -5.78402e-20)
(1.00509 0.579684 -1.12807e-20)
(1.10947 0.613958 1.8348e-20)
(1.13484 0.59001 1.74643e-20)
(1.12947 0.544715 -3.55506e-20)
(1.1174 0.496492 1.86741e-20)
(1.10692 0.451044 -8.88422e-21)
(1.09869 0.410787 6.61402e-21)
(1.09188 0.376781 4.19146e-22)
(0.328072 0.19834 2.50409e-20)
(0.750449 0.469198 1.84974e-21)
(0.984807 0.604663 -5.54835e-21)
(1.08123 0.632193 -2.23461e-20)
(1.10425 0.602553 1.3842e-20)
(1.1 0.553529 3.30339e-21)
(1.09035 0.502949 -9.87828e-21)
(1.08235 0.455861 2.28852e-21)
(1.07621 0.414399 -1.29926e-21)
(1.07174 0.379157 -1.03487e-22)
(0.327267 0.214452 -6.77028e-21)
(0.737643 0.494964 -9.27608e-21)
(0.960386 0.626695 2.38309e-20)
(1.04989 0.647618 1.09662e-20)
(1.07169 0.612698 -1.45977e-20)
(1.06919 0.560383 1.88495e-20)
(1.06233 0.507745 1.72851e-21)
(1.05701 0.459249 2.35747e-21)
(1.05309 0.416692 2.38871e-21)
(1.05114 0.380329 4.57542e-22)
(0.324096 0.229631 4.36956e-20)
(0.720859 0.518141 3.35743e-20)
(0.932009 0.645424 -2.61873e-21)
(1.01595 0.660098 -4.87629e-21)
(1.03743 0.62031 -5.78497e-21)
(1.03724 0.56515 -2.69182e-21)
(1.03348 0.510777 2.28128e-21)
(1.03101 0.461122 1.09569e-21)
(1.02943 0.417572 -1.85518e-21)
(1.03016 0.380198 -4.07089e-21)
(0.318639 0.243577 3.24383e-21)
(0.700285 0.538484 5.59723e-21)
(0.90022 0.660728 -2.99696e-20)
(0.979824 0.669383 1.29046e-20)
(1.00173 0.625309 2.28377e-21)
(1.00434 0.567729 -4.55642e-21)
(1.00395 0.511951 1.87288e-21)
(1.00446 0.461403 1.16069e-21)
(1.00535 0.416966 -4.04971e-21)
(1.00904 0.378711 5.13503e-21)
(0.31094 0.256004 -1.6618e-20)
(0.676142 0.555557 -1.17519e-20)
(0.865664 0.672526 9.031e-21)
(0.941816 0.675368 1.74252e-21)
(0.964841 0.627581 -5.20695e-21)
(0.970686 0.568023 3.87398e-21)
(0.973878 0.511174 2.54124e-21)
(0.977447 0.459999 -9.79083e-21)
(0.981092 0.414806 2.35205e-20)
(0.988425 0.375902 9.36456e-21)
(0.301152 0.266696 -1.24406e-20)
(0.648854 0.569029 2.94638e-20)
(0.828725 0.680602 -1.80568e-20)
(0.902257 0.677998 -3.02453e-21)
(0.927037 0.627042 -2.01067e-21)
(0.936455 0.565953 -1.8406e-21)
(0.943363 0.508361 -8.51049e-21)
(0.950095 0.45677 4.5124e-21)
(0.957077 0.41089 -1.08824e-21)
(0.969045 0.371804 -4.29095e-21)
(0.28951 0.275561 -1.30134e-21)
(0.618905 0.578764 -8.85717e-21)
(0.789789 0.68477 3.94443e-21)
(0.861492 0.677197 -1.52715e-21)
(0.888579 0.623631 5.61849e-21)
(0.901836 0.561467 5.11546e-21)
(0.912532 0.503464 1.60507e-20)
(0.922589 0.451613 -1.19806e-20)
(0.933654 0.404834 -2.28986e-20)
(0.950175 0.365734 9.71628e-21)
(0.276189 0.282447 -7.79856e-22)
(0.58674 0.584636 -2.47879e-21)
(0.749275 0.684916 1.00425e-21)
(0.819873 0.672908 7.27353e-21)
(0.849733 0.617304 -1.24798e-20)
(0.867023 0.554533 -2.0326e-20)
(0.881572 0.496482 -6.13179e-21)
(0.8952 0.444652 -1.50613e-21)
(0.910802 0.39684 3.04419e-20)
(0.928935 0.353923 -6.71593e-21)
(0.261395 0.287206 1.20998e-21)
(0.5528 0.586537 -4.02358e-21)
(0.707613 0.680981 2.35622e-22)
(0.777748 0.665092 7.171e-22)
(0.810764 0.608035 -8.63072e-21)
(0.832235 0.545122 3.84884e-20)
(0.85074 0.487381 -2.68374e-20)
(0.868147 0.435972 3.22489e-20)
(0.887421 0.388833 -2.27232e-20)
(0.905208 0.347408 -3.00673e-20)
(0.245367 0.289724 -1.34695e-21)
(0.517519 0.584393 -7.34729e-22)
(0.665227 0.672942 3.52621e-22)
(0.735465 0.653742 1.36019e-20)
(0.77194 0.595815 -5.51009e-21)
(0.797696 0.533214 8.47061e-21)
(0.820244 0.476106 1.5807e-20)
(0.841464 0.425289 -8.3424e-21)
(0.863935 0.378622 -2.16361e-20)
(0.882703 0.337429 3.00389e-20)
(0.228357 0.289921 1.10948e-20)
(0.481329 0.578167 1.47957e-20)
(0.622537 0.660812 -1.41844e-20)
(0.693365 0.638873 -1.26667e-20)
(0.733526 0.580655 4.42578e-20)
(0.763625 0.51882 -4.51106e-20)
(0.790232 0.462704 5.41037e-20)
(0.815158 0.412832 -1.3669e-20)
(0.84053 0.367193 1.46644e-20)
(0.860932 0.327143 2.72739e-20)
(0.210623 0.287744 -4.14544e-21)
(0.444659 0.56786 -1.43342e-20)
(0.579955 0.644632 -8.51643e-21)
(0.651781 0.620528 -4.80289e-21)
(0.695786 0.562589 5.2814e-21)
(0.730241 0.50196 -1.16439e-20)
(0.760876 0.447177 -1.62035e-20)
(0.789393 0.39853 -3.52266e-20)
(0.817552 0.354162 3.49703e-20)
(0.839993 0.315445 -1.14038e-20)
(0.192427 0.283167 2.6429e-20)
(0.407931 0.553509 -3.16358e-21)
(0.537878 0.624473 -1.197e-20)
(0.611038 0.598775 1.55252e-20)
(0.658978 0.541668 -2.80032e-20)
(0.697754 0.482678 7.48401e-20)
(0.732341 0.429572 -3.99744e-20)
(0.764332 0.382464 3.63743e-20)
(0.795216 0.339674 -6.6991e-20)
(0.819907 0.302476 -1.78151e-20)
(0.174029 0.276196 -8.47429e-21)
(0.371558 0.53519 2.81122e-20)
(0.496694 0.600438 6.6504e-21)
(0.571449 0.573706 -1.441e-20)
(0.623353 0.517966 -2.48901e-20)
(0.666368 0.461031 -9.62449e-22)
(0.704798 0.409936 1.33475e-20)
(0.740137 0.364662 -3.26893e-20)
(0.773677 0.323704 1.62078e-20)
(0.800717 0.28817 2.15338e-21)
(0.155688 0.266861 -4.58521e-20)
(0.335938 0.513013 -1.13071e-20)
(0.456772 0.572656 -3.10024e-21)
(0.533316 0.545435 3.70376e-20)
(0.589153 0.491577 -3.44554e-20)
(0.636283 0.437097 -9.02667e-21)
(0.678418 0.388338 -5.48487e-21)
(0.716966 0.345184 1.01947e-20)
(0.753075 0.306291 -1.2921e-20)
(0.782494 0.272561 -2.02327e-20)
(0.137655 0.255223 4.04619e-20)
(0.301455 0.487121 -2.30252e-20)
(0.418465 0.541286 1.16031e-21)
(0.496925 0.514101 -5.6109e-20)
(0.556609 0.462613 6.10026e-20)
(0.607691 0.41097 -1.9365e-20)
(0.653364 0.364856 1.16298e-20)
(0.694965 0.324092 1.01453e-20)
(0.733531 0.287478 2.95249e-20)
(0.765309 0.255694 -1.21069e-20)
(0.120173 0.241363 -1.64917e-20)
(0.268472 0.457689 4.77136e-20)
(0.382105 0.506513 2.69405e-20)
(0.462548 0.479863 4.41626e-20)
(0.525941 0.431205 -1.02914e-20)
(0.580777 0.382759 4.11046e-21)
(0.629794 0.339586 3.34281e-20)
(0.674271 0.301464 7.46374e-21)
(0.71516 0.267327 7.15011e-22)
(0.749239 0.237633 -1.44945e-20)
(0.103474 0.225391 -3.78044e-20)
(0.237331 0.424922 -2.80168e-21)
(0.348005 0.468544 -1.58057e-20)
(0.43044 0.4429 -7.1029e-20)
(0.497356 0.397502 -6.88262e-20)
(0.555712 0.35259 1.15016e-20)
(0.607855 0.312633 -2.84386e-20)
(0.655012 0.27739 1.82187e-20)
(0.698071 0.24591 9.94454e-21)
(0.734358 0.218457 2.08393e-20)
(0.0877756 0.207435 5.54565e-20)
(0.20835 0.389051 -4.54284e-20)
(0.316453 0.427612 -2.31107e-20)
(0.400835 0.403411 4.10493e-20)
(0.471046 0.361671 4.67917e-20)
(0.53266 0.320602 -1.55397e-20)
(0.587686 0.284118 -1.99819e-21)
(0.637307 0.251969 -5.66468e-20)
(0.682367 0.223315 -3.21419e-20)
(0.720739 0.19825 1.23279e-20)
(0.0732801 0.187649 -3.15309e-20)
(0.181821 0.350336 1.33019e-20)
(0.287715 0.383971 4.89626e-20)
(0.373951 0.361612 -2.19969e-20)
(0.447189 0.32389 1.73221e-21)
(0.51177 0.286949 6.26074e-20)
(0.569415 0.254171 2.89179e-21)
(0.621268 0.225314 5.42456e-20)
(0.668142 0.199638 2.27195e-20)
(0.708448 0.177107 -3.62493e-20)
(0.060172 0.1662 4.36546e-20)
(0.158009 0.309055 4.82313e-21)
(0.262027 0.337893 3.16626e-21)
(0.349981 0.317738 4.47993e-20)
(0.425944 0.284357 -5.98445e-21)
(0.493176 0.251797 -3.92696e-20)
(0.553157 0.222936 1.93154e-20)
(0.606995 0.197546 -3.09203e-20)
(0.655485 0.174987 -1.29668e-20)
(0.697546 0.155127 1.31914e-20)
(0.0486166 0.143277 -2.72259e-20)
(0.137147 0.265511 -5.23796e-20)
(0.239603 0.289667 1.21162e-20)
(0.3291 0.272033 -2.37764e-20)
(0.407456 0.243278 -1.44038e-20)
(0.477001 0.215323 3.50033e-20)
(0.539015 0.190563 -8.47797e-21)
(0.594579 0.168795 7.87645e-21)
(0.644475 0.149475 -9.63355e-21)
(0.68809 0.132414 1.91582e-20)
(0.0387579 0.119082 9.85341e-21)
(0.119441 0.220021 3.52755e-20)
(0.220624 0.239599 -4.90639e-20)
(0.311458 0.22476 2.32484e-20)
(0.391846 0.200873 -1.06176e-20)
(0.463348 0.177714 -2.99827e-20)
(0.52708 0.157214 2.45579e-20)
(0.584098 0.139199 5.18609e-21)
(0.635179 0.123224 -7.80679e-22)
(0.680126 0.109076 -2.23012e-20)
(0.0307179 0.0938292 3.2313e-21)
(0.10506 0.172919 1.13762e-20)
(0.205246 0.188008 4.44135e-20)
(0.297181 0.176188 -8.54118e-21)
(0.379222 0.157369 -6.74868e-21)
(0.452306 0.139164 2.49897e-21)
(0.517428 0.123055 1.10628e-21)
(0.57562 0.108903 9.19913e-21)
(0.627659 0.0963601 -1.21425e-20)
(0.673696 0.0852238 -7.7489e-21)
(0.0245952 0.0677441 -8.07084e-21)
(0.0941441 0.124554 -1.38417e-20)
(0.193591 0.135221 -3.45487e-20)
(0.286371 0.126598 1.74098e-20)
(0.369665 0.113004 1.42316e-20)
(0.443948 0.0998765 6.01127e-22)
(0.510121 0.0882612 -2.39751e-20)
(0.569199 0.0780571 -1.06954e-20)
(0.621963 0.0690148 8.50493e-21)
(0.668832 0.0609692 9.14578e-21)
(0.0204645 0.0410604 1.40492e-21)
(0.0867962 0.0752803 -2.90397e-21)
(0.185754 0.0815771 6.55503e-21)
(0.279105 0.0762765 -4.45018e-21)
(0.363241 0.0680194 -3.93495e-21)
(0.438327 0.0600579 -2.67359e-21)
(0.505205 0.0530101 4.93257e-21)
(0.564876 0.0468149 1.88635e-20)
(0.618126 0.0413229 2.74026e-21)
(0.665559 0.0364263 -4.88535e-21)
(0.0183756 0.0140176 1.73745e-21)
(0.083086 0.0254626 -4.78685e-21)
(0.181797 0.0274182 -5.43312e-21)
(0.275433 0.0255155 -3.77493e-21)
(0.359991 0.0226621 3.606e-21)
(0.43548 0.0199197 1.6313e-21)
(0.502711 0.0174835 -1.62989e-21)
(0.562681 0.0153339 -7.46122e-21)
(0.616174 0.0134219 2.4655e-21)
(0.663893 0.011711 -2.31667e-21)
(0.018353 -0.0131412 -1.73861e-21)
(0.0830476 -0.0245315 4.79006e-21)
(0.181749 -0.0269086 5.43651e-21)
(0.275382 -0.0253896 -5.21316e-21)
(0.359936 -0.0228182 4.59994e-21)
(0.435424 -0.0203245 2.31098e-21)
(0.502655 -0.0181349 -3.70333e-21)
(0.562625 -0.0162274 -4.32126e-21)
(0.61612 -0.01455 6.41747e-22)
(0.663845 -0.0130644 -1.81383e-21)
(0.0203959 -0.0401716 1.90664e-21)
(0.08668 -0.0743327 -5.70572e-21)
(0.185611 -0.0810553 1.28173e-20)
(0.27895 -0.076143 -1.12704e-20)
(0.363077 -0.0681712 -5.2967e-22)
(0.438158 -0.0604606 -7.53037e-21)
(0.505036 -0.053661 1.22841e-20)
(0.56471 -0.0477096 1.67744e-20)
(0.617962 -0.0424537 3.01583e-21)
(0.66541 -0.0377851 -6.51135e-21)
(0.0244781 -0.0668309 -1.64399e-21)
(0.0939468 -0.123573 -1.20971e-20)
(0.19335 -0.134675 -2.81375e-20)
(0.28611 -0.12645 2.44006e-20)
(0.36939 -0.113147 5.05775e-21)
(0.443665 -0.100275 4.47942e-21)
(0.509838 -0.0889111 -2.21158e-20)
(0.56892 -0.0789536 -1.30742e-20)
(0.621688 -0.07015 -2.92124e-21)
(0.668581 -0.0623336 2.01198e-20)
(0.0305484 -0.0928795 -5.7991e-21)
(0.104776 -0.17189 7.27006e-21)
(0.204901 -0.187425 5.10968e-20)
(0.29681 -0.176017 -4.58124e-21)
(0.378831 -0.1575 -1.31603e-20)
(0.451906 -0.139557 9.48975e-21)
(0.517029 -0.123704 6.34444e-22)
(0.575227 -0.109803 3.37424e-21)
(0.627273 -0.0975021 -7.39676e-21)
(0.673343 -0.0865966 -1.96533e-20)
(0.0385304 -0.118084 -3.92634e-21)
(0.119062 -0.218927 2.13609e-20)
(0.220169 -0.238969 -5.15128e-20)
(0.310971 -0.22456 2.23827e-20)
(0.391337 -0.200987 2.03707e-22)
(0.462827 -0.178099 -2.85097e-20)
(0.526561 -0.157861 1.26183e-20)
(0.583589 -0.140103 -1.18393e-21)
(0.63468 -0.124376 4.81376e-21)
(0.679669 -0.110461 -1.47628e-21)
(0.048324 -0.14222 -4.50414e-20)
(0.136664 -0.264337 -5.38297e-20)
(0.239028 -0.288978 1.4078e-20)
(0.32849 -0.271798 -2.56369e-20)
(0.406822 -0.243373 -7.30097e-21)
(0.476354 -0.215699 1.08487e-20)
(0.538373 -0.19121 4.03852e-21)
(0.593951 -0.169705 1.51407e-20)
(0.643859 -0.150639 -3.26334e-21)
(0.687527 -0.133815 1.76534e-20)
(0.0598058 -0.165074 4.30975e-20)
(0.157408 -0.307788 2.76936e-20)
(0.261323 -0.337134 -2.10626e-20)
(0.34924 -0.31746 3.54954e-20)
(0.425178 -0.28443 -3.09958e-21)
(0.492399 -0.252164 -3.8558e-20)
(0.552386 -0.223583 6.77815e-21)
(0.606244 -0.198464 -4.12224e-20)
(0.654752 -0.176167 1.54116e-21)
(0.696876 -0.156548 1.50785e-20)
(0.0728301 -0.186443 -3.22681e-20)
(0.181089 -0.348961 5.77634e-20)
(0.286867 -0.383133 2.26453e-20)
(0.373067 -0.361289 -2.79219e-20)
(0.446283 -0.32394 1.6605e-22)
(0.510855 -0.287307 7.1157e-20)
(0.568511 -0.254821 3.30661e-21)
(0.62039 -0.226244 3.17896e-20)
(0.667287 -0.200838 3.88456e-20)
(0.707667 -0.178553 -2.18536e-20)
(0.0872304 -0.206141 1.80889e-20)
(0.20747 -0.387556 -8.65204e-21)
(0.315448 -0.426686 -2.05653e-20)
(0.399798 -0.403036 1.56656e-20)
(0.469991 -0.361695 5.97735e-20)