/*--------------------------------*- C++ -*----------------------------------*\
  =========                 |
  \\      /  F ield         | OpenFOAM: The Open Source CFD Toolbox
   \\    /   O peration     | Website:  https://openfoam.org
    \\  /    A nd           | Version:  7
     \\/     M anipulation  |
\*---------------------------------------------------------------------------*/
FoamFile
{
    version     2.0;
    format      ascii;
    class       volScalarField;
    location    "40";
    object      p;
}
// * * * * * * * * * * * * * * * * * * * * * * * * * * * * * * * * * * * * * //

dimensions      [0 2 -2 0 0 0 0];

internalField   nonuniform List<scalar> 
2125
(
0.866943
0.809604
0.777813
0.866943
0.809604
0.777813
0.749967
0.722703
0.694992
0.665971
0.635718
0.604732
0.573685
0.862461
0.805377
0.773799
0.746216
0.719256
0.691868
0.663169
0.633223
0.602504
0.571721
0.853528
0.796953
0.765799
0.73874
0.712386
0.685638
0.657579
0.628245
0.598061
0.567802
0.840204
0.78439
0.753868
0.727587
0.702133
0.67634
0.649234
0.620811
0.591423
0.561945
0.822583
0.767776
0.738087
0.712831
0.688563
0.664027
0.638179
0.610961
0.582626
0.554174
0.800786
0.747228
0.718565
0.69457
0.671761
0.648773
0.624476
0.598747
0.571714
0.544524
0.774961
0.722888
0.695436
0.672923
0.651831
0.630668
0.608201
0.584232
0.55874
0.533035
0.745287
0.694926
0.668858
0.648034
0.628898
0.609816
0.589443
0.567491
0.543769
0.519752
0.711967
0.663536
0.639012
0.620066
0.603104
0.586342
0.568304
0.54861
0.526871
0.504726
0.675229
0.628938
0.606104
0.589203
0.574611
0.56038
0.5449
0.527684
0.508128
0.488015
0.635323
0.591369
0.570358
0.555647
0.543595
0.532084
0.519358
0.504819
0.487624
0.469677
0.592521
0.551091
0.532017
0.519621
0.510251
0.501618
0.491814
0.480128
0.465453
0.449772
0.547113
0.508381
0.491342
0.481359
0.474785
0.46916
0.462419
0.453733
0.441713
0.428363
0.499408
0.463532
0.44861
0.441114
0.437419
0.4349
0.43133
0.425763
0.416507
0.405511
0.449726
0.416851
0.40411
0.39915
0.398387
0.399039
0.398719
0.396359
0.389948
0.38128
0.398401
0.368656
0.358142
0.355741
0.357934
0.361789
0.364765
0.365668
0.362163
0.355736
0.345776
0.319273
0.311015
0.311172
0.316313
0.323375
0.32966
0.333855
0.333293
0.328935
0.2922
0.269034
0.263044
0.265733
0.273786
0.284026
0.293606
0.301086
0.303469
0.300875
0.238024
0.218272
0.214545
0.21972
0.23062
0.243983
0.256819
0.267523
0.27278
0.271462
0.183599
0.16732
0.165838
0.173429
0.187087
0.203495
0.219531
0.233377
0.241835
0.241942
0.129275
0.116507
0.117236
0.127155
0.143457
0.162807
0.181981
0.198992
0.212582
0.220152
0.0753918
0.0661542
0.0690463
0.0811864
0.0999899
0.122137
0.144339
0.164312
0.181651
0.195295
0.0222827
0.0165711
0.0215684
0.0358053
0.0569441
0.0817026
0.106762
0.129535
0.149768
0.167989
-0.0297344
-0.0319447
-0.0249119
-0.00871534
0.0145734
0.0417349
0.0694531
0.0949251
0.117792
0.139634
-0.0803814
-0.079096
-0.0701215
-0.0521139
-0.0268739
0.00246736
0.0326285
0.0606769
0.0860794
0.110867
-0.12938
-0.124617
-0.113806
-0.0941446
-0.0671595
-0.0358746
-0.00350143
0.0269542
0.0547697
0.0821279
-0.176413
-0.168305
-0.155729
-0.134582
-0.106059
-0.073077
-0.0387354
-0.00607235
0.0239954
0.0536908
-0.221269
-0.20992
-0.195677
-0.173193
-0.143385
-0.108941
-0.0728839
-0.0382318
-0.00609516
0.0257428
-0.263744
-0.249267
-0.233465
-0.20981
-0.178921
-0.14329
-0.105773
-0.0693642
-0.0353652
-0.00155442
-0.303652
-0.286182
-0.268931
-0.244268
-0.212513
-0.175948
-0.137244
-0.0993265
-0.0637102
-0.0280402
-0.340838
-0.32053
-0.301941
-0.276428
-0.244021
-0.206773
-0.167155
-0.127993
-0.0910347
-0.0535383
-0.375178
-0.352204
-0.332391
-0.306178
-0.273325
-0.235644
-0.195384
-0.15523
-0.116952
-0.0782064
-0.40658
-0.381129
-0.360207
-0.333438
-0.300331
-0.262457
-0.221827
-0.180962
-0.141705
-0.102482
-0.434982
-0.407259
-0.385343
-0.358154
-0.324974
-0.287135
-0.246398
-0.205098
-0.165096
-0.1253
-0.460355
-0.430578
-0.407785
-0.380301
-0.347215
-0.309622
-0.269027
-0.227561
-0.187052
-0.146769
-0.4827
-0.451099
-0.427544
-0.399882
-0.367039
-0.329887
-0.28967
-0.248297
-0.207548
-0.166998
-0.502049
-0.46886
-0.44466
-0.416927
-0.38446
-0.347923
-0.308303
-0.267273
-0.226546
-0.185974
-0.51846
-0.483928
-0.459198
-0.431491
-0.399514
-0.363746
-0.324921
-0.284471
-0.244012
-0.203666
-0.532017
-0.496391
-0.471243
-0.443652
-0.412262
-0.377393
-0.33954
-0.299888
-0.25993
-0.220057
-0.542829
-0.506356
-0.480905
-0.453508
-0.422787
-0.388923
-0.352196
-0.313538
-0.274301
-0.235148
-0.551023
-0.513952
-0.488307
-0.461176
-0.43119
-0.398416
-0.36294
-0.325453
-0.287137
-0.248953
-0.556745
-0.519319
-0.49359
-0.466791
-0.437588
-0.405967
-0.371845
-0.335679
-0.298467
-0.261498
-0.560156
-0.522609
-0.496903
-0.470495
-0.442114
-0.411689
-0.378997
-0.344277
-0.308334
-0.272823
-0.561427
-0.523985
-0.498406
-0.472444
-0.44491
-0.415706
-0.384495
-0.351324
-0.31679
-0.282976
-0.560736
-0.523615
-0.498263
-0.472797
-0.446129
-0.418152
-0.388454
-0.356907
-0.323903
-0.292022
-0.558267
-0.521666
-0.49664
-0.471718
-0.445926
-0.41917
-0.390993
-0.361123
-0.329748
-0.300033
-0.554204
-0.518311
-0.493704
-0.469371
-0.444459
-0.418907
-0.392241
-0.364077
-0.334409
-0.307086
-0.548732
-0.513715
-0.489617
-0.465916
-0.441886
-0.417511
-0.39233
-0.365878
-0.337976
-0.313266
-0.542027
-0.508041
-0.484536
-0.46151
-0.43836
-0.415127
-0.391391
-0.366638
-0.340539
-0.534262
-0.501444
-0.478613
-0.456303
-0.434031
-0.411901
-0.389555
-0.366467
-0.5256
-0.494071
-0.471988
-0.450435
-0.429038
-0.407969
-0.386948
-0.51619
-0.486057
-0.464794
-0.444036
-0.423514
-0.506173
-0.47753
-0.457152
-0.437228
-0.495676
-0.468603
-0.449169
-0.484813
-0.45938
-0.473687
-0.449953
-0.462393
0.245889
0.248578
0.254335
0.262202
0.272143
0.283703
0.296461
0.309806
0.322735
0.334147
0.342002
0.344856
0.338353
0.324
0.287978
0.24654
0.249263
0.255117
0.263133
0.273303
0.285202
0.298461
0.312546
0.326545
0.3395
0.349495
0.355316
0.352751
0.343301
0.315526
0.24715
0.249868
0.255759
0.263838
0.274117
0.286193
0.299736
0.314276
0.328984
0.343035
0.35465
0.362862
0.363712
0.358556
0.337701
0.247732
0.250451
0.256385
0.264536
0.274939
0.287212
0.301067
0.316096
0.331545
0.346719
0.359966
0.370511
0.374669
0.373525
0.359063
0.248285
0.251011
0.256994
0.265225
0.275762
0.288246
0.302425
0.317954
0.334153
0.350439
0.365291
0.378081
0.385426
0.388098
0.379493
0.248808
0.251541
0.257573
0.265881
0.276546
0.289229
0.303716
0.319717
0.336621
0.353953
0.37032
0.385215
0.395582
0.401887
0.39868
0.2493
0.25204
0.258118
0.266498
0.277282
0.290151
0.304925
0.321366
0.338929
0.357238
0.375027
0.391891
0.405106
0.414875
0.416673
0.24976
0.252509
0.258628
0.267077
0.277972
0.291016
0.306057
0.32291
0.341091
0.360311
0.379435
0.398139
0.414021
0.427084
0.433518
0.250187
0.252946
0.259104
0.267616
0.278615
0.291822
0.307114
0.32435
0.343106
0.363172
0.383541
0.403955
0.422319
0.438494
0.449216
0.250581
0.253349
0.25955
0.268115
0.279211
0.292568
0.308092
0.325681
0.34497
0.365816
0.387335
0.409329
0.429983
0.449072
0.463753
0.250941
0.253717
0.259965
0.268573
0.279757
0.293253
0.308989
0.326901
0.346677
0.368235
0.390808
0.41425
0.436998
0.45879
0.477106
0.251266
0.254051
0.260293
0.268989
0.280252
0.293874
0.309802
0.328007
0.348224
0.370427
0.393954
0.418709
0.443353
0.467622
0.489249
0.251557
0.25435
0.260631
0.269361
0.280696
0.294429
0.310529
0.328996
0.349608
0.372386
0.396766
0.422698
0.449036
0.475542
0.500149
0.251812
0.254613
0.260926
0.269687
0.281086
0.294918
0.31117
0.329867
0.350826
0.374109
0.39924
0.426208
0.454036
0.482525
0.509774
0.252032
0.254839
0.261174
0.269969
0.281422
0.29534
0.311722
0.330617
0.351875
0.375592
0.40137
0.429233
0.458343
0.488551
0.518092
0.252215
0.255028
0.261381
0.270204
0.281704
0.295693
0.312184
0.331244
0.352753
0.376833
0.403151
0.431764
0.461947
0.493601
0.525073
0.252362
0.25518
0.261547
0.270393
0.28193
0.295976
0.312555
0.331748
0.353457
0.377829
0.404581
0.433795
0.46484
0.49766
0.530691
0.252473
0.255294
0.261672
0.270535
0.2821
0.296189
0.312835
0.332127
0.353987
0.378578
0.405655
0.435324
0.467016
0.500715
0.534924
0.252546
0.255371
0.261756
0.27063
0.282214
0.296332
0.313021
0.33238
0.354341
0.379078
0.406373
0.436344
0.46847
0.502758
0.537756
0.252583
0.255409
0.261798
0.270678
0.282271
0.296403
0.313114
0.332506
0.354518
0.379328
0.406732
0.436856
0.469198
0.50378
0.539175
0.178386
0.176134
0.171809
0.165879
0.158783
0.150879
0.142465
0.133805
0.125127
0.116613
0.108403
0.100599
0.0932635
0.0864325
0.0801216
0.179075
0.176847
0.172548
0.166644
0.159565
0.151659
0.143221
0.134517
0.125774
0.11718
0.10888
0.100978
0.0935437
0.0866146
0.0802122
0.18036
0.17817
0.173924
0.168073
0.16103
0.153125
0.144648
0.135863
0.127002
0.11826
0.10979
0.101705
0.0940817
0.0869631
0.0803775
0.182145
0.180008
0.175843
0.170078
0.163095
0.155202
0.14668
0.137789
0.128768
0.119819
0.11111
0.102764
0.0948707
0.0874804
0.0806347
0.184344
0.182279
0.178225
0.17258
0.165687
0.157828
0.149265
0.140256
0.131043
0.121841
0.11283
0.104153
0.0959135
0.0881724
0.0809882
0.186879
0.184903
0.180994
0.175509
0.168746
0.16095
0.152363
0.143235
0.133811
0.124317
0.114953
0.10588
0.0972216
0.0890527
0.0814541
0.189679
0.187809
0.184081
0.178801
0.172215
0.164523
0.155941
0.146706
0.137064
0.127252
0.117489
0.10796
0.0988136
0.0901406
0.0820503
0.192679
0.190934
0.187424
0.182398
0.17604
0.168504
0.15997
0.150654
0.140799
0.130653
0.120455
0.110416
0.100714
0.0914608
0.0827994
0.195819
0.194218
0.190965
0.186244
0.180175
0.172855
0.164421
0.155065
0.145016
0.134533
0.123874
0.113277
0.102954
0.0930433
0.0837277
0.199049
0.197609
0.19465
0.190288
0.184571
0.177535
0.169269
0.159926
0.149719
0.138908
0.12777
0.116574
0.105568
0.0949226
0.0848656
0.20232
0.201058
0.198431
0.19448
0.189182
0.182508
0.174486
0.165223
0.154908
0.143794
0.132174
0.120345
0.108597
0.0971386
0.0862474
0.205594
0.204524
0.202264
0.198776
0.193965
0.187733
0.180041
0.170941
0.160584
0.149208
0.137115
0.12463
0.112086
0.0997361
0.087912
0.208834
0.20797
0.206109
0.203132
0.198876
0.19317
0.185902
0.17706
0.166743
0.155164
0.142623
0.129472
0.116083
0.102765
0.0899027
0.212011
0.211363
0.209929
0.207508
0.203872
0.198777
0.192034
0.183555
0.173377
0.161672
0.148727
0.134913
0.120641
0.10628
0.0922677
0.215101
0.214677
0.213693
0.211867
0.208912
0.204513
0.198397
0.190398
0.180472
0.168739
0.155454
0.140999
0.125815
0.110342
0.0950604
0.218082
0.217888
0.217373
0.216175
0.213957
0.210333
0.204951
0.197554
0.188009
0.176364
0.162826
0.147772
0.131662
0.115018
0.0983398
0.22094
0.220979
0.220945
0.220402
0.218968
0.216195
0.21165
0.204984
0.19596
0.18454
0.170858
0.155273
0.138241
0.120377
0.102171
0.223662
0.223935
0.22439
0.22452
0.223911
0.222056
0.218447
0.212642
0.20429
0.193251
0.179559
0.163538
0.145609
0.126497
0.106623
0.22624
0.226745
0.227692
0.228507
0.228754
0.227875
0.225295
0.220479
0.212957
0.202472
0.188929
0.172598
0.153823
0.133458
0.111772
0.228668
0.229402
0.230839
0.232342
0.233466
0.233613
0.232145
0.228443
0.221912
0.212166
0.198957
0.182475
0.162936
0.141345
0.117697
0.230943
0.231901
0.233821
0.23601
0.238024
0.239232
0.23895
0.236477
0.231097
0.222289
0.20962
0.193181
0.172993
0.150243
0.12448
0.233067
0.23424
0.236632
0.239499
0.242406
0.2447
0.245662
0.244524
0.240452
0.232785
0.220884
0.204715
0.184033
0.16024
0.132207
0.235039
0.23642
0.239269
0.242798
0.246593
0.249987
0.252239
0.252528
0.249911
0.243589
0.232699
0.217061
0.196082
0.171411
0.140958
0.236864
0.238443
0.241732
0.245904
0.250571
0.255066
0.25864
0.260432
0.259403
0.254627
0.245005
0.230186
0.20915
0.183822
0.150803
0.238546
0.240313
0.244021
0.248811
0.254331
0.259918
0.26483
0.268184
0.268864
0.265825
0.257735
0.244053
0.223256
0.197554
0.161842
0.24009
0.242034
0.246141
0.251523
0.257868
0.264529
0.270784
0.275743
0.278237
0.277121
0.270837
0.258639
0.238456
0.212758
0.174287
0.241503
0.243613
0.248096
0.254041
0.261179
0.268888
0.276477
0.283067
0.287457
0.288423
0.284206
0.273838
0.254684
0.229401
0.18822
0.24279
0.245053
0.249886
0.256357
0.264248
0.272959
0.281841
0.290039
0.296339
0.299455
0.297452
0.289118
0.271279
0.246489
0.202419
0.243958
0.246355
0.251504
0.258454
0.267032
0.276668
0.286759
0.29648
0.304619
0.309846
0.310077
0.303855
0.28756
0.263043
0.21515
0.245022
0.24755
0.252995
0.260393
0.269627
0.28017
0.291484
0.302814
0.313001
0.320753
0.323927
0.320943
0.307834
0.285886
0.236331
0.0759813
0.0738233
0.0716663
0.0695049
0.067337
0.0651637
0.0629868
0.0608077
0.0586278
0.0564481
0.0542701
0.052095
0.049924
0.0477585
0.0455997
0.0434488
0.0413071
0.039176
0.0370564
0.0349495
0.0760092
0.0738388
0.0716746
0.0695046
0.067324
0.0651345
0.0629383
0.0607369
0.0585316
0.0563238
0.054115
0.0519066
0.0497002
0.0474972
0.0452991
0.0431075
0.0409239
0.0387498
0.0365866
0.0344359
0.0760308
0.0738043
0.0715971
0.0693852
0.0671592
0.0649212
0.0626745
0.0604211
0.0581623
0.0558997
0.0536348
0.0513693
0.0491049
0.0468432
0.0445859
0.0423346
0.0400909
0.0378571
0.035634
0.0334233
0.0760842
0.0737695
0.0714935
0.069216
0.0669207
0.0646104
0.0622896
0.0599607
0.0576249
0.055284
0.0529395
0.0505933
0.0482472
0.045903
0.0435625
0.0412274
0.0388993
0.0365819
0.0342747
0.0319797
0.0761694
0.0737317
0.0713591
0.0689904
0.0666
0.0641916
0.0617714
0.0593421
0.056905
0.0544618
0.0520142
0.0495643
0.0471138
0.0446649
0.0422194
0.0397792
0.0373462
0.0349228
0.0325104
0.0301108
0.0763096
0.0737157
0.0712188
0.0687337
0.0662231
0.0636914
0.0611469
0.0585927
0.0560302
0.0534609
0.0508868
0.0483099
0.0457322
0.0431559
0.0405829
0.0380154
0.0354558
0.0329038
0.0303641
0.0278382
0.0765226
0.0737376
0.071087
0.0684587
0.0658011
0.0631195
0.0604245
0.0577198
0.0550065
0.0522863
0.0495611
0.0468331
0.0441044
0.0413772
0.0386535
0.0359356
0.0332257
0.0305251
0.0278369
0.0251627
0.0768331
0.0738205
0.0709844
0.0681841
0.0653514
0.0624917
0.0596186
0.0567362
0.0538457
0.0509485
0.0480466
0.0451423
0.0422379
0.0393354
0.0364371
0.0335452
0.030662
0.0277891
0.0249292
0.0220842
0.0772676
0.0739879
0.0709311
0.0679275
0.064889
0.0618209
0.0587398
0.0556508
0.0525545
0.0494523
0.0463464
0.0432391
0.0401325
0.037029
0.0339307
0.0308398
0.0277589
0.0246895
0.021634
0.0185947
0.0778564
0.0742668
0.07095
0.0677085
0.0644307
0.0611211
0.0577996
0.0544723
0.0511395
0.0478024
0.0444631
0.041124
0.0377873
0.0344552
0.0311299
0.0278137
0.0245092
0.0212176
0.0179415
0.0146831
0.0786336
0.0746865
0.0710656
0.0675477
0.0639937
0.0604062
0.0568088
0.0532087
0.0496058
0.0460012
0.0423968
0.0387949
0.0351979
0.0316079
0.0280269
0.0244572
0.0209019
0.0173614
0.0138381
0.0103346
0.0796372
0.0752798
0.0713047
0.0674673
0.0635962
0.0596905
0.055778
0.0518672
0.0479576
0.0440498
0.0401457
0.0362476
0.0323576
0.0284779
0.0246103
0.0207568
0.0169219
0.013104
0.0093056
0.00552956
0.0809097
0.0760828
0.0716965
0.0674915
0.0632577
0.0589892
0.0547182
0.050455
0.0461985
0.0419487
0.0377074
0.0334769
0.0292592
0.0250563
0.0208696
0.0167
0.0125581
0.00843267
0.00432836
0.000250092
0.0824985
0.0771356
0.0722733
0.067646
0.0629988
0.0583175
0.0536398
0.0489776
0.0443295
0.0396945
0.0350742
0.0304704
0.0258849
0.0213187
0.0167699
0.0122349
0.00776853
0.00331029
-0.00112818
-0.00553663
0.0844569
0.0784831
0.0730708
0.06796
0.0628423
0.0576928
0.0525548
0.0474429
0.0423548
0.0372891
0.0322471
0.0272306
0.0222413
0.0172806
0.0123536
0.00746886
0.00256958
-0.00227747
-0.00708075
-0.0118488
0.0868447
0.0801756
0.0741285
0.0684644
0.0628119
0.0571311
0.051472
0.045852
0.0402681
0.0347178
0.0292018
0.0237215
0.0182779
0.0128716
0.00750422
0.00217974
-0.00311265
-0.00835995
-0.0135633
-0.0187246
0.0897305
0.0822714
0.0754925
0.0691963
0.0629367
0.056654
0.0504058
0.0442135
0.0380731
0.0319807
0.0259366
0.0199417
0.0139967
0.00810173
0.00225743
-0.00353113
-0.00927442
-0.0149665
-0.0206059
-0.0261932
0.0931921
0.0848367
0.0772152
0.0701972
0.0632483
0.0562838
0.0493697
0.0425322
0.0357664
0.0290668
0.022433
0.0158655
0.00936464
0.00292969
-0.0034403
-0.00973327
-0.0159707
-0.022146
-0.0282555
-0.0343
0.0973186
0.0879494
0.0793579
0.0715157
0.0637848
0.0560476
0.0483805
0.0408157
0.0333468
0.0259668
0.0186742
0.0114693
0.00435137
-0.00268328
-0.00964007
-0.0164725
-0.0232445
-0.0299424
-0.0365573
-0.0430906
0.102213
0.0916997
0.0819927
0.0732099
0.0645914
0.0559784
0.0474593
0.0390738
0.0308142
0.0226714
0.0146434
0.00672971
-0.00107136
-0.00876487
-0.0163544
-0.0238001
-0.0311575
-0.0384149
-0.0455683
-0.0526205
0.107991
0.0961928
0.0852038
0.0753481
0.0657226
0.0561164
0.0466325
0.0373197
0.0281692
0.0191698
0.0103194
0.00161747
-0.00693719
-0.0153411
-0.0235764
-0.0317489
-0.0397576
-0.0476179
-0.0553469
-0.0629494
0.114788
0.10155
0.0890901
0.0780125
0.0672449
0.0565121
0.0459344
0.0355724
0.0254155
0.0154502
0.00567386
-0.00391373
-0.0133148
-0.022532
-0.0315432
-0.0404156
-0.0491091
-0.0576236
-0.0659688
-0.0741511
0.122751
0.107907
0.0937651
0.0813002
0.0692393
0.0572287
0.0454114
0.033862
0.0225677
0.0115127
0.000694612
-0.00988564
-0.0202333
-0.0303594
-0.0401783
-0.0498362
-0.0592876
-0.0685105
-0.0775131
-0.0863052
0.132028
0.115404
0.0993526
0.0853224
0.0718006
0.0583423
0.0451208
0.0322275
0.0196468
0.00736069
-0.00463285
-0.016337
-0.0277816
-0.0390133
-0.0496597
-0.0601621
-0.0704188
-0.0803901
-0.0900843
-0.0995106
0.142776
0.124181
0.105981
0.090202
0.0750372
0.0599431
0.0451346
0.0307217
0.0166863
0.00301229
-0.010296
-0.0232301
-0.0357634
-0.047804
-0.0598586
-0.07142
-0.0825578
-0.0933379
-0.103771
-0.11386
0.15519
0.134396
0.113805
0.0960851
0.0790758
0.0621377
0.0455393
0.0294063
0.0137163
-0.00154455
-0.0163653
-0.0307419
-0.0446841
-0.0580215
-0.0710945
-0.0837011
-0.0958198
-0.107481
-0.118694
-0.129463
0.169437
0.146195
0.122958
0.103081
0.083992
0.0649805
0.0463766
0.0283114
0.0107574
-0.00629281
-0.0228307
-0.038913
-0.0546576
-0.0691137
-0.083376
-0.0971431
-0.110321
-0.122922
-0.134954
-0.146419
0.185384
0.159704
0.133734
0.11153
0.0901079
0.0687759
0.0479283
0.0276855
0.00802387
-0.011043
-0.0294783
-0.0472035
-0.0639386
-0.0808063
-0.0967041
-0.111765
-0.126104
-0.139725
-0.152617
-0.164779
0.202718
0.175166
0.146917
0.122317
0.0982332
0.0742388
0.0507835
0.0279727
0.00580658
-0.0156755
-0.0364364
-0.0564428
-0.0752921
-0.0937278
-0.111216
-0.127746
-0.14336
-0.158048
-0.171794
-0.184592
0.215992
0.185502
0.156028
0.129364
0.10293
0.0766775
0.0509542
0.0258404
0.00138019
-0.0223702
-0.0454114
-0.0677458
-0.0883265
-0.108342
-0.127396
-0.145365
-0.162236
-0.177984
-0.192585
-0.206024
0.0328564
0.0307784
0.0287166
0.0266718
0.0246453
0.022638
0.0206509
0.0186848
0.0167407
0.032299
0.0301774
0.0280724
0.0259854
0.0239177
0.0218705
0.019845
0.0178425
0.0158639
0.0312268
0.029046
0.0268824
0.0247374
0.0226125
0.0205091
0.0184283
0.0163715
0.0143398
0.0296992
0.0274348
0.0251881
0.0229608
0.0207544
0.0185703
0.01641
0.0142749
0.0121662
0.027726
0.0253579
0.0230082
0.0206785
0.0183706
0.016086
0.0138263
0.0115928
0.00938696
0.0253277
0.0228343
0.0203601
0.0179067
0.015476
0.0130696
0.010689
0.00833584
0.00601152
0.0225047
0.0198647
0.0172446
0.0146464
0.0120718
0.00952245
0.00700011
0.00450631
0.00204254
0.0192563
0.0164474
0.0136594
0.0108943
0.00815396
0.00544004
0.00275424
9.81687e-05
-0.00252668
0.0155736
0.0125727
0.00959404
0.00663947
0.00371085
0.000809925
-0.00206162
-0.00490218
-0.00771027
0.0114444
0.0082275
0.00503427
0.00186661
-0.00127367
-0.00438484
-0.00746525
-0.0105133
-0.0135277
0.00685273
0.00339452
-3.81841e-05
-0.00344356
-0.00681987
-0.0101655
-0.0134788
-0.0167583
-0.0200026
0.00177782
-0.00194789
-0.00564586
-0.00931442
-0.0129519
-0.0165569
-0.0201278
-0.0236634
-0.00380013
-0.00782113
-0.0118116
-0.01577
-0.0196949
-0.023585
-0.0274392
-0.0312563
-0.00991286
-0.0142563
-0.0185659
-0.0228404
-0.0270787
-0.0312797
-0.0354427
-0.0395667
-0.0165814
-0.0212769
-0.0259339
-0.0305519
-0.0351301
-0.039668
-0.0441653
-0.0486216
-0.0238433
-0.0289186
-0.03395
-0.0389374
-0.0438806
-0.0487799
-0.0536355
-0.0584478
-0.0317286
-0.0372124
-0.042645
-0.048027
-0.053359
-0.0586422
-0.0638778
-0.0690673
-0.0402811
-0.0461999
-0.0520579
-0.0578564
-0.0635974
-0.0692831
-0.074916
-0.0804991
-0.0495453
-0.0559238
-0.0622285
-0.0684619
-0.0746275
-0.0807288
-0.0867701
-0.0927563
-0.0595748
-0.0664344
-0.0732028
-0.0798841
-0.0864833
-0.0930058
-0.099458
-0.105847
-0.0704281
-0.077787
-0.0850313
-0.092167
-0.0992007
-0.10614
-0.112994
-0.119774
-0.0821752
-0.0900468
-0.0977725
-0.10536
-0.112819
-0.120158
-0.12739
-0.134529
-0.0948939
-0.103286
-0.111491
-0.119517
-0.127377
-0.135083
-0.142651
-0.150098
-0.108676
-0.117587
-0.126256
-0.134693
-0.142914
-0.150933
-0.15877
-0.166447
-0.123609
-0.13303
-0.142134
-0.150936
-0.159452
-0.167702
-0.17571
-0.183504
-0.139795
-0.149701
-0.159193
-0.168289
-0.177008
-0.185376
-0.193421
-0.201176
-0.157323
-0.167677
-0.177498
-0.186804
-0.195621
-0.203979
-0.211914
-0.219468
-0.176219
-0.18695
-0.196992
-0.206372
-0.215124
-0.223289
-0.230918
-0.23807
-0.196447
-0.207374
-0.217393
-0.22654
-0.234859
-0.242407
-0.249258
-0.255496
-0.218298
-0.229413
-0.239386
-0.248249
-0.256047
-0.262837
-0.268695
-0.273711
)
;

boundaryField
{
    inlet
    {
        type            zeroGradient;
    }
    outlet
    {
        type            fixedValue;
        value           nonuniform 0();
    }
    cylinder
    {
        type            zeroGradient;
    }
    top
    {
        type            symmetryPlane;
    }
    bottom
    {
        type            symmetryPlane;
    }
    defaultFaces
    {
        type            empty;
    }
    procBoundary0to1
    {
        type            processor;
        value           nonuniform List<scalar> 
50
(
-0.318655
-0.318655
-0.342191
-0.342191
-0.365472
-0.40346
-0.365472
-0.38369
-0.40346
-0.417579
-0.417579
-0.430117
-0.430117
-0.440945
-0.440945
-0.432565
-0.440406
-0.440406
-0.451017
0.0148195
0.0139104
0.0123344
0.0100853
0.00721008
0.0037174
-0.000389816
-0.00511888
-0.0104845
-0.0165068
-0.0232105
-0.0271624
-0.0271624
-0.0350353
-0.0436512
-0.0530368
-0.0632176
-0.0742128
-0.0860361
-0.0986933
-0.112182
-0.126489
-0.14159
-0.157444
-0.173989
-0.191116
-0.208683
-0.22669
-0.244812
-0.26122
-0.277993
)
;
    }
    procBoundary0to2
    {
        type            processor;
        value           nonuniform List<scalar> 
26
(
0.862461
0.805377
0.773799
0.749967
0.749967
0.722703
0.694992
0.665971
0.635718
0.604732
0.573685
0.252583
0.255409
0.261798
0.270678
0.282271
0.296403
0.313114
0.332506
0.354518
0.379328
0.406732
0.436856
0.469198
0.50378
0.539175
)
;
    }
}


// ************************************************************************* //
