/*--------------------------------*- C++ -*----------------------------------*\
  =========                 |
  \\      /  F ield         | OpenFOAM: The Open Source CFD Toolbox
   \\    /   O peration     | Website:  https://openfoam.org
    \\  /    A nd           | Version:  7
     \\/     M anipulation  |
\*---------------------------------------------------------------------------*/
FoamFile
{
    version     2.0;
    format      ascii;
    class       volScalarField;
    location    "50";
    object      p;
}
// * * * * * * * * * * * * * * * * * * * * * * * * * * * * * * * * * * * * * //

dimensions      [0 2 -2 0 0 0 0];

internalField   nonuniform List<scalar> 
8500
(
-0.250874
-0.252829
-0.253746
-0.254484
-0.255114
-0.255657
-0.256139
-0.256575
-0.256938
-0.257283
-0.251067
-0.253001
-0.253905
-0.254631
-0.255247
-0.255776
-0.256243
-0.256661
-0.257004
-0.257316
-0.25145
-0.253343
-0.254222
-0.254922
-0.255512
-0.256012
-0.256447
-0.25683
-0.257132
-0.257375
-0.252018
-0.25385
-0.254692
-0.255354
-0.255902
-0.256359
-0.256744
-0.257073
-0.257313
-0.257443
-0.252763
-0.254517
-0.255309
-0.255919
-0.256412
-0.256809
-0.257124
-0.257378
-0.257535
-0.257492
-0.253676
-0.255335
-0.256066
-0.25661
-0.257031
-0.257351
-0.257577
-0.257729
-0.257784
-0.257487
-0.254746
-0.256297
-0.256954
-0.257417
-0.257751
-0.257976
-0.25809
-0.258112
-0.258049
-0.257383
-0.255963
-0.257394
-0.257964
-0.258331
-0.258561
-0.258673
-0.258652
-0.258508
-0.258321
-0.257123
-0.257318
-0.258616
-0.259087
-0.259344
-0.259453
-0.259433
-0.259254
-0.258904
-0.258601
-0.256611
-0.258802
-0.259958
-0.260317
-0.260447
-0.260417
-0.260248
-0.259892
-0.259292
-0.25892
-0.255767
-0.260408
-0.261414
-0.261647
-0.261633
-0.261447
-0.261113
-0.260563
-0.259663
-0.259296
-0.254872
-0.262134
-0.26298
-0.263071
-0.262896
-0.262537
-0.262022
-0.261268
-0.260017
-0.259417
-0.253977
-0.263979
-0.264656
-0.264589
-0.264231
-0.26368
-0.262971
-0.262011
-0.260524
-0.259478
-0.252775
-0.265949
-0.266445
-0.266199
-0.265637
-0.264874
-0.263956
-0.262768
-0.261054
-0.25964
-0.251314
-0.268053
-0.268355
-0.267907
-0.267113
-0.266113
-0.264971
-0.26355
-0.261608
-0.259859
-0.24973
-0.270307
-0.270396
-0.269719
-0.268663
-0.267397
-0.266009
-0.264345
-0.262212
-0.26005
-0.248221
-0.272733
-0.272588
-0.271648
-0.270296
-0.26873
-0.267067
-0.265132
-0.262877
-0.260065
-0.246956
-0.275361
-0.274952
-0.273714
-0.272027
-0.270122
-0.26815
-0.265902
-0.263622
-0.259676
-0.24584
-0.278229
-0.277513
-0.275949
-0.273879
-0.271595
-0.269277
-0.266675
-0.264496
-0.258827
-0.245174
-0.281387
-0.280313
-0.278379
-0.275886
-0.273182
-0.270482
-0.26749
-0.26547
-0.258028
-0.248847
-0.284885
-0.283394
-0.281046
-0.278091
-0.274927
-0.271808
-0.268394
-0.266288
-0.257832
-0.2629
-0.288775
-0.286808
-0.283997
-0.280541
-0.276885
-0.273308
-0.269443
-0.266846
-0.258318
-0.262118
-0.293122
-0.2906
-0.287282
-0.283293
-0.279115
-0.275035
-0.270678
-0.267253
-0.258827
-0.259341
-0.297988
-0.294823
-0.290954
-0.286402
-0.281675
-0.277037
-0.272107
-0.267678
-0.259109
-0.256587
-0.303429
-0.299528
-0.295066
-0.289922
-0.284615
-0.279351
-0.273723
-0.268158
-0.259101
-0.253713
-0.309498
-0.304763
-0.299669
-0.293905
-0.287972
-0.281992
-0.275513
-0.268664
-0.258742
-0.250856
-0.316237
-0.31057
-0.30481
-0.298394
-0.291768
-0.284954
-0.277442
-0.269132
-0.258018
-0.247948
-0.32368
-0.316986
-0.310529
-0.303418
-0.29601
-0.288213
-0.279447
-0.269476
-0.256921
-0.244927
-0.331845
-0.324038
-0.316855
-0.308995
-0.300682
-0.291714
-0.281435
-0.269602
-0.255443
-0.241719
-0.340732
-0.331739
-0.323804
-0.315116
-0.305747
-0.29537
-0.283292
-0.269422
-0.253569
-0.238259
-0.350321
-0.340086
-0.331368
-0.32175
-0.311131
-0.299054
-0.284893
-0.268853
-0.251279
-0.23449
-0.360566
-0.349051
-0.339511
-0.328832
-0.316722
-0.302614
-0.286114
-0.267824
-0.248544
-0.230358
-0.371391
-0.358579
-0.348164
-0.33626
-0.322362
-0.305879
-0.286836
-0.266267
-0.245328
-0.225813
-0.382686
-0.368582
-0.357221
-0.343889
-0.327854
-0.308672
-0.286945
-0.264117
-0.241588
-0.220803
-0.394305
-0.37893
-0.366533
-0.351526
-0.332975
-0.31082
-0.286337
-0.261309
-0.237274
-0.21528
-0.406062
-0.389455
-0.375907
-0.35893
-0.337487
-0.312156
-0.284909
-0.257777
-0.232331
-0.209193
-0.417732
-0.399947
-0.385109
-0.365827
-0.341152
-0.312523
-0.282566
-0.253453
-0.226702
-0.202492
-0.42905
-0.410155
-0.39386
-0.37192
-0.343737
-0.311774
-0.279213
-0.248267
-0.220327
-0.195131
-0.439721
-0.419793
-0.401847
-0.376901
-0.345024
-0.309771
-0.274762
-0.242152
-0.213148
-0.187067
-0.449419
-0.428543
-0.408732
-0.380471
-0.34481
-0.306388
-0.269125
-0.235038
-0.205105
-0.178263
-0.457799
-0.436068
-0.414162
-0.382343
-0.34291
-0.301512
-0.262224
-0.226861
-0.196148
-0.168683
-0.464506
-0.442013
-0.417791
-0.382257
-0.339162
-0.295039
-0.253982
-0.217561
-0.186231
-0.158302
-0.469184
-0.446025
-0.419285
-0.379979
-0.333426
-0.286879
-0.244334
-0.207082
-0.175317
-0.147107
-0.471487
-0.447754
-0.418342
-0.37531
-0.325586
-0.276956
-0.233218
-0.195375
-0.163371
-0.135082
-0.471092
-0.446874
-0.414697
-0.368088
-0.31555
-0.265212
-0.22059
-0.182395
-0.150349
-0.122157
-0.467703
-0.443087
-0.408129
-0.358189
-0.303254
-0.251608
-0.206421
-0.168121
-0.136203
-0.108157
-0.461064
-0.436137
-0.398469
-0.34553
-0.288659
-0.236123
-0.190699
-0.152549
-0.120923
-0.0928883
-0.450965
-0.425822
-0.385593
-0.330064
-0.271753
-0.218749
-0.173412
-0.135685
-0.10458
-0.0764934
-0.437247
-0.411994
-0.369428
-0.311781
-0.252544
-0.199486
-0.154555
-0.117563
-0.0871787
-0.0596454
-0.419808
-0.394564
-0.349949
-0.29071
-0.231062
-0.178346
-0.134192
-0.0983237
-0.0686341
-0.0422254
-0.398601
-0.373499
-0.327181
-0.26692
-0.207371
-0.155399
-0.112539
-0.0778253
-0.0491071
-0.0241017
-0.373637
-0.348823
-0.3012
-0.240517
-0.181578
-0.130863
-0.0894396
-0.056184
-0.0286931
-0.00527745
-0.344983
-0.320632
-0.272167
-0.211591
-0.153779
-0.104718
-0.065043
-0.0334887
-0.00746721
0.014168
-0.312762
-0.289102
-0.240344
-0.180144
-0.124082
-0.0770688
-0.0394559
-0.00983501
0.0144948
0.0341294
-0.277155
-0.254465
-0.205854
-0.146344
-0.0926219
-0.0480546
-0.0127991
0.0146779
0.0371157
0.0545222
-0.238395
-0.216953
-0.168146
-0.110974
-0.0596593
-0.0178312
0.0147986
0.0399478
0.0603145
0.0752549
-0.196703
-0.176716
-0.128166
-0.0738321
-0.0253893
0.0134299
0.0432082
0.0658798
0.083954
0.0959894
-0.152329
-0.133707
-0.0867005
-0.0351763
0.0100036
0.0455573
0.0723176
0.0923962
0.107762
0.115914
-0.105696
-0.0886099
-0.0437434
0.00469945
0.0463097
0.0783818
0.102023
0.119401
0.131415
0.134471
-0.0572287
-0.0417659
0.000504694
0.0455095
0.0832961
0.11172
0.132167
0.146665
0.154826
0.153394
-0.00724754
0.00638298
0.0457329
0.0869684
0.12072
0.145367
0.162503
0.173789
0.177961
0.177497
0.0438273
0.0554275
0.0915891
0.128783
0.158334
0.179099
0.192768
0.200637
0.20167
0.201754
0.0955569
0.104964
0.137708
0.170652
0.195882
0.212688
0.222789
0.227276
0.225639
0.224786
0.147499
0.154582
0.183724
0.212269
0.233106
0.245907
0.252394
0.253582
0.249441
0.246907
0.199207
0.203872
0.229272
0.253331
0.269745
0.278533
0.281413
0.27938
0.272742
0.268108
0.250239
0.252424
0.273993
0.293533
0.305544
0.310352
0.309667
0.304491
0.295354
0.288419
0.300158
0.299832
0.317535
0.332579
0.34025
0.34115
0.336977
0.328742
0.317124
0.3078
0.348536
0.345704
0.359558
0.370182
0.373621
0.370721
0.363165
0.351973
0.337927
0.326191
0.39496
0.389659
0.399733
0.406064
0.405422
0.398865
0.388061
0.374035
0.357642
0.343519
0.439034
0.431335
0.437748
0.439962
0.435428
0.425392
0.411501
0.39479
0.376157
0.359708
0.480383
0.470389
0.473308
0.471626
0.463428
0.450122
0.433333
0.414105
0.393364
0.374683
0.518659
0.506501
0.506139
0.500823
0.489224
0.472887
0.453414
0.43186
0.40916
0.388373
0.553536
0.539377
0.535987
0.52734
0.512634
0.493531
0.471611
0.447941
0.423453
0.400711
0.584721
0.568749
0.562623
0.550983
0.533492
0.511914
0.487805
0.462246
0.436155
0.411636
0.611953
0.594378
0.585844
0.571578
0.551652
0.52791
0.501889
0.474684
0.447189
0.421098
0.635002
0.616059
0.605472
0.588975
0.566986
0.541411
0.513771
0.485173
0.45649
0.429051
0.653677
0.633617
0.621356
0.603047
0.579385
0.552323
0.523373
0.493647
0.463999
0.435456
0.66782
0.646909
0.633376
0.613692
0.588761
0.560574
0.53063
0.500052
0.469671
0.440286
0.677315
0.655831
0.641441
0.620831
0.595049
0.566106
0.535494
0.504344
0.473472
0.443518
0.682083
0.660309
0.645488
0.624414
0.598204
0.568881
0.537935
0.506497
0.475378
0.445137
0.682082
0.660309
0.645488
0.624414
0.598203
0.568881
0.537935
0.506497
0.475378
0.445137
0.677315
0.65583
0.64144
0.620831
0.595048
0.566105
0.535494
0.504344
0.473471
0.443518
0.667819
0.646908
0.633375
0.613691
0.58876
0.560573
0.530629
0.500051
0.46967
0.440286
0.653675
0.633615
0.621355
0.603046
0.579384
0.552323
0.523372
0.493647
0.463998
0.435456
0.635
0.616057
0.60547
0.588973
0.566985
0.54141
0.51377
0.485172
0.456489
0.42905
0.61195
0.594376
0.585842
0.571576
0.551651
0.527909
0.501888
0.474682
0.447188
0.421097
0.584718
0.568746
0.562621
0.550981
0.53349
0.511912
0.487803
0.462245
0.436153
0.411635
0.553533
0.539374
0.535984
0.527338
0.512631
0.493529
0.471609
0.44794
0.423451
0.400709
0.518655
0.506498
0.506135
0.50082
0.489221
0.472884
0.453412
0.431858
0.409159
0.388371
0.480379
0.470385
0.473304
0.471622
0.463425
0.45012
0.433331
0.414103
0.393362
0.374682
0.439029
0.431331
0.437744
0.439958
0.435425
0.425389
0.411499
0.394788
0.376155
0.359706
0.394954
0.389654
0.399728
0.40606
0.405419
0.398862
0.388058
0.374033
0.35764
0.343517
0.34853
0.345699
0.359553
0.370178
0.373618
0.370717
0.363162
0.35197
0.337924
0.326189
0.300152
0.299826
0.31753
0.332575
0.340246
0.341146
0.336974
0.328739
0.317121
0.307798
0.250233
0.252418
0.273987
0.293528
0.305539
0.310348
0.309664
0.304488
0.295351
0.288417
0.1992
0.203866
0.229266
0.253325
0.26974
0.278529
0.281409
0.279376
0.272739
0.268105
0.147491
0.154576
0.183718
0.212264
0.233101
0.245902
0.25239
0.253578
0.249438
0.246904
0.0955494
0.104956
0.137702
0.170646
0.195877
0.212684
0.222785
0.227273
0.225636
0.224783
0.0438194
0.0554199
0.0915823
0.128777
0.158328
0.179094
0.192763
0.200633
0.201666
0.201751
-0.00725573
0.00637513
0.0457258
0.0869621
0.120715
0.145362
0.162498
0.173785
0.177957
0.177494
-0.0572372
-0.0417741
0.000497335
0.0455029
0.0832904
0.111715
0.132162
0.146661
0.154822
0.15339
-0.105705
-0.0886183
-0.043751
0.00469268
0.0463037
0.0783765
0.102018
0.119397
0.131411
0.134467
-0.152338
-0.133716
-0.0867083
-0.0351832
0.0099974
0.0455518
0.0723126
0.0923916
0.107758
0.11591
-0.196712
-0.176725
-0.128174
-0.0738393
-0.0253957
0.0134241
0.043203
0.0658751
0.0839497
0.0959853
-0.238405
-0.216962
-0.168154
-0.110982
-0.0596659
-0.0178371
0.0147932
0.0399429
0.06031
0.0752507
-0.277164
-0.254474
-0.205863
-0.146351
-0.0926286
-0.0480606
-0.0128046
0.0146729
0.037111
0.0545178
-0.312771
-0.289111
-0.240352
-0.180152
-0.124089
-0.077075
-0.0394615
-0.0098402
0.01449
0.0341249
-0.344993
-0.320642
-0.272175
-0.211599
-0.153786
-0.104724
-0.0650488
-0.033494
-0.00747217
0.0141633
-0.373647
-0.348832
-0.301208
-0.240525
-0.181585
-0.130869
-0.0894454
-0.0561894
-0.0286982
-0.00528224
-0.398611
-0.373508
-0.32719
-0.266928
-0.207378
-0.155406
-0.112545
-0.0778309
-0.0491123
-0.0241066
-0.419818
-0.394573
-0.349958
-0.290718
-0.231069
-0.178352
-0.134198
-0.0983294
-0.0686395
-0.0422304
-0.437257
-0.412003
-0.369436
-0.311789
-0.252551
-0.199493
-0.154562
-0.117569
-0.0871842
-0.0596506
-0.450974
-0.425831
-0.385602
-0.330072
-0.27176
-0.218756
-0.173418
-0.135691
-0.104585
-0.0764988
-0.461073
-0.436146
-0.398478
-0.345537
-0.288666
-0.236129
-0.190705
-0.152555
-0.120929
-0.0928939
-0.467712
-0.443096
-0.408138
-0.358197
-0.303261
-0.251615
-0.206427
-0.168127
-0.136208
-0.108163
-0.471101
-0.446882
-0.414705
-0.368095
-0.315557
-0.265219
-0.220596
-0.182401
-0.150355
-0.122163
-0.471496
-0.447762
-0.41835
-0.375317
-0.325593
-0.276963
-0.233224
-0.195381
-0.163377
-0.135088
-0.469192
-0.446032
-0.419293
-0.379986
-0.333433
-0.286885
-0.24434
-0.207089
-0.175323
-0.147113
-0.464514
-0.442021
-0.417798
-0.382264
-0.339169
-0.295045
-0.253989
-0.217567
-0.186238
-0.158309
-0.457806
-0.436075
-0.414169
-0.38235
-0.342916
-0.301518
-0.26223
-0.226867
-0.196155
-0.16869
-0.449426
-0.42855
-0.408738
-0.380477
-0.344816
-0.306394
-0.269131
-0.235044
-0.205112
-0.178269
-0.439728
-0.419799
-0.401853
-0.376907
-0.34503
-0.309777
-0.274768
-0.242158
-0.213154
-0.187074
-0.429056
-0.410161
-0.393865
-0.371925
-0.343743
-0.311779
-0.279219
-0.248273
-0.220334
-0.195138
-0.417737
-0.399953
-0.385114
-0.365833
-0.341157
-0.312529
-0.282572
-0.253459
-0.226709
-0.202499
-0.406067
-0.38946
-0.375912
-0.358935
-0.337492
-0.312161
-0.284915
-0.257783
-0.232338
-0.2092
-0.39431
-0.378934
-0.366537
-0.35153
-0.332979
-0.310825
-0.286342
-0.261315
-0.237281
-0.215288
-0.38269
-0.368586
-0.357225
-0.343893
-0.327858
-0.308677
-0.28695
-0.264123
-0.241595
-0.220811
-0.371394
-0.358583
-0.348168
-0.336264
-0.322366
-0.305883
-0.28684
-0.266273
-0.245335
-0.22582
-0.360569
-0.349054
-0.339514
-0.328835
-0.316726
-0.302618
-0.286119
-0.26783
-0.24855
-0.230366
-0.350324
-0.340089
-0.33137
-0.321752
-0.311134
-0.299057
-0.284897
-0.268858
-0.251285
-0.234498
-0.340735
-0.331742
-0.323806
-0.315118
-0.305749
-0.295372
-0.283295
-0.269426
-0.253575
-0.238267
-0.331847
-0.32404
-0.316857
-0.308997
-0.300684
-0.291716
-0.281438
-0.269606
-0.255448
-0.241727
-0.323682
-0.316988
-0.31053
-0.30342
-0.296011
-0.288214
-0.279449
-0.269479
-0.256926
-0.244935
-0.316239
-0.310572
-0.304811
-0.298395
-0.291769
-0.284955
-0.277443
-0.269135
-0.258023
-0.247956
-0.309499
-0.304764
-0.299671
-0.293906
-0.287972
-0.281992
-0.275514
-0.268666
-0.258746
-0.250863
-0.30343
-0.29953
-0.295067
-0.289923
-0.284615
-0.279351
-0.273723
-0.268159
-0.259105
-0.253721
-0.297989
-0.294825
-0.290955
-0.286402
-0.281675
-0.277037
-0.272106
-0.267679
-0.259113
-0.256594
-0.293124
-0.290601
-0.287283
-0.283293
-0.279115
-0.275034
-0.270678
-0.267253
-0.258831
-0.259349
-0.288777
-0.286809
-0.283998
-0.280542
-0.276885
-0.273307
-0.269442
-0.266846
-0.258321
-0.262126
-0.284886
-0.283396
-0.281047
-0.278091
-0.274927
-0.271807
-0.268393
-0.266288
-0.257835
-0.262908
-0.281389
-0.280315
-0.278381
-0.275887
-0.273181
-0.270481
-0.267489
-0.26547
-0.258031
-0.248855
-0.278232
-0.277515
-0.275951
-0.27388
-0.271595
-0.269276
-0.266674
-0.264496
-0.25883
-0.245183
-0.275364
-0.274955
-0.273717
-0.272028
-0.270122
-0.26815
-0.265902
-0.263623
-0.25968
-0.245849
-0.272737
-0.272591
-0.271651
-0.270298
-0.268731
-0.267068
-0.265132
-0.262878
-0.260068
-0.246965
-0.270311
-0.2704
-0.269723
-0.268666
-0.267399
-0.26601
-0.264346
-0.262214
-0.260055
-0.248232
-0.268058
-0.268359
-0.267911
-0.267116
-0.266115
-0.264973
-0.263552
-0.261611
-0.259864
-0.249741
-0.265955
-0.266451
-0.266204
-0.265641
-0.264876
-0.263958
-0.262771
-0.261058
-0.259645
-0.251326
-0.263986
-0.264662
-0.264594
-0.264236
-0.263684
-0.262975
-0.262014
-0.26053
-0.259484
-0.252788
-0.262141
-0.262986
-0.263077
-0.2629
-0.262541
-0.262026
-0.261272
-0.260025
-0.259423
-0.253991
-0.260416
-0.26142
-0.261652
-0.261638
-0.261452
-0.261118
-0.260568
-0.25967
-0.259302
-0.254888
-0.25881
-0.259965
-0.260323
-0.260452
-0.260422
-0.260253
-0.259897
-0.259299
-0.258928
-0.255779
-0.257326
-0.258623
-0.259093
-0.25935
-0.259458
-0.259438
-0.259259
-0.258911
-0.258611
-0.256623
-0.255971
-0.2574
-0.257969
-0.258337
-0.258566
-0.258678
-0.258657
-0.258515
-0.25833
-0.257135
-0.254753
-0.256303
-0.256959
-0.257422
-0.257756
-0.257981
-0.258095
-0.258118
-0.258057
-0.257395
-0.253682
-0.255341
-0.256071
-0.256614
-0.257036
-0.257355
-0.257582
-0.257736
-0.257792
-0.257497
-0.252768
-0.254521
-0.255314
-0.255923
-0.256416
-0.256813
-0.257129
-0.257383
-0.257542
-0.257501
-0.252022
-0.253854
-0.254696
-0.255357
-0.255905
-0.256362
-0.256747
-0.257078
-0.257319
-0.25745
-0.251453
-0.253345
-0.254224
-0.254925
-0.255514
-0.256015
-0.256449
-0.256834
-0.257137
-0.257381
-0.251069
-0.253002
-0.253906
-0.254632
-0.255248
-0.255778
-0.256245
-0.256664
-0.257007
-0.257319
-0.250875
-0.252829
-0.253746
-0.254485
-0.255114
-0.255658
-0.25614
-0.256576
-0.256939
-0.257284
-0.258781
-0.257849
-0.259243
-0.258673
-0.258932
-0.258127
-0.257229
-0.255494
-0.253175
-0.249909
-0.245635
-0.240099
-0.233037
-0.224407
-0.21362
-0.201198
-0.185804
-0.16952
-0.14981
-0.130872
-0.10934
-0.0900174
-0.0707049
-0.0534273
-0.0394926
-0.0256499
-0.0179501
-0.0075526
-0.00545485
0.00219719
-0.258904
-0.257878
-0.259299
-0.258714
-0.258971
-0.258165
-0.257264
-0.255529
-0.253214
-0.249956
-0.245695
-0.240176
-0.233131
-0.224537
-0.213754
-0.201333
-0.185923
-0.169609
-0.149857
-0.130883
-0.109324
-0.0900005
-0.0707096
-0.0534518
-0.0395566
-0.0257241
-0.0180135
-0.00760957
-0.00546852
0.00220355
-0.259148
-0.257936
-0.259412
-0.2588
-0.259056
-0.258248
-0.257344
-0.255613
-0.253302
-0.250056
-0.245811
-0.240316
-0.233293
-0.224726
-0.213962
-0.201546
-0.186119
-0.169777
-0.149979
-0.130965
-0.109371
-0.0900383
-0.0707612
-0.0535124
-0.0396509
-0.0258204
-0.0180953
-0.00767998
-0.00549202
0.00220152
-0.259505
-0.258015
-0.259576
-0.258926
-0.259181
-0.258374
-0.257466
-0.25574
-0.253436
-0.250205
-0.24598
-0.240512
-0.233514
-0.224982
-0.214238
-0.201832
-0.186391
-0.170021
-0.150173
-0.131116
-0.109483
-0.0901306
-0.0708599
-0.05361
-0.0397754
-0.0259386
-0.0181951
-0.00776351
-0.00552513
0.00219086
-0.259966
-0.258107
-0.259782
-0.259085
-0.25934
-0.258534
-0.257624
-0.255905
-0.25361
-0.250397
-0.246196
-0.240757
-0.233774
-0.225297
-0.214578
-0.202185
-0.18673
-0.170335
-0.150437
-0.131334
-0.109655
-0.0902766
-0.0710059
-0.0537447
-0.03993
-0.0260787
-0.0183126
-0.00786005
-0.0055676
0.00217127
-0.260517
-0.258201
-0.260018
-0.259269
-0.259524
-0.258722
-0.25781
-0.256101
-0.253817
-0.250626
-0.246452
-0.241045
-0.234154
-0.225666
-0.214972
-0.202598
-0.18713
-0.170713
-0.150764
-0.131614
-0.109886
-0.0904754
-0.0711982
-0.0539163
-0.0401145
-0.0262406
-0.0184476
-0.00796971
-0.0056192
0.00214247
-0.261143
-0.258286
-0.260271
-0.259469
-0.259723
-0.258929
-0.258015
-0.25632
-0.254048
-0.250883
-0.246739
-0.241368
-0.234503
-0.226076
-0.215412
-0.20306
-0.187584
-0.171148
-0.151148
-0.131953
-0.110174
-0.0907222
-0.0714359
-0.0541245
-0.0403284
-0.0264247
-0.0185999
-0.00809278
-0.00567975
0.00210416
-0.261833
-0.258349
-0.260526
-0.259674
-0.259927
-0.259144
-0.258231
-0.256551
-0.254296
-0.251159
-0.247048
-0.241718
-0.234901
-0.226519
-0.215888
-0.203563
-0.188082
-0.171632
-0.151583
-0.132342
-0.110518
-0.0910176
-0.0717179
-0.0543691
-0.0405717
-0.0266312
-0.0187695
-0.00822971
-0.00574908
0.00205603
-0.262594
-0.258371
-0.260769
-0.259873
-0.260123
-0.259357
-0.258446
-0.256787
-0.254551
-0.251446
-0.24737
-0.242087
-0.235317
-0.226985
-0.216391
-0.204098
-0.188615
-0.172158
-0.152065
-0.132776
-0.110911
-0.0913585
-0.0720431
-0.0546494
-0.0408439
-0.0268607
-0.0189564
-0.00838105
-0.00582705
0.00199783
-0.263411
-0.258344
-0.26099
-0.260052
-0.260301
-0.259555
-0.258651
-0.257016
-0.254802
-0.251733
-0.247695
-0.242425
-0.235741
-0.227465
-0.216911
-0.204658
-0.189173
-0.172712
-0.152589
-0.133253
-0.111351
-0.0917421
-0.0724099
-0.054965
-0.0411449
-0.0271136
-0.0191607
-0.00854746
-0.00591357
0.00192936
-0.263996
-0.258363
-0.261159
-0.2602
-0.260449
-0.259729
-0.258835
-0.257228
-0.255042
-0.252011
-0.248015
-0.242867
-0.236166
-0.227947
-0.217438
-0.205224
-0.189755
-0.173292
-0.153145
-0.133767
-0.111834
-0.0921657
-0.0728171
-0.0553152
-0.0414743
-0.0273905
-0.0193827
-0.00872959
-0.00600856
0.00185045
-0.264495
-0.258446
-0.261195
-0.26034
-0.260548
-0.259868
-0.258987
-0.257414
-0.255258
-0.252271
-0.248318
-0.243218
-0.236583
-0.228424
-0.217964
-0.205795
-0.190345
-0.17389
-0.153728
-0.134311
-0.112356
-0.0926267
-0.073263
-0.0556992
-0.0418319
-0.0276916
-0.0196223
-0.00892807
-0.00611195
0.00176103
-0.264986
-0.258484
-0.261176
-0.260419
-0.260593
-0.259959
-0.259097
-0.257564
-0.255444
-0.252503
-0.248596
-0.243554
-0.236981
-0.228886
-0.218478
-0.206362
-0.190938
-0.174498
-0.154333
-0.134881
-0.112915
-0.0931226
-0.073746
-0.0561163
-0.0422171
-0.0280174
-0.0198797
-0.00914347
-0.0062237
0.00166111
-0.265436
-0.258489
-0.261088
-0.260423
-0.260573
-0.25999
-0.259154
-0.257667
-0.255588
-0.252698
-0.248835
-0.243861
-0.237351
-0.229325
-0.218973
-0.206917
-0.191527
-0.175109
-0.154954
-0.135473
-0.113507
-0.0936509
-0.0742646
-0.0565655
-0.0426297
-0.0283681
-0.020155
-0.00937621
-0.00634372
0.00155078
-0.265805
-0.25848
-0.26091
-0.260341
-0.260473
-0.259949
-0.259147
-0.257713
-0.255681
-0.252848
-0.249023
-0.244127
-0.237685
-0.229733
-0.219442
-0.207451
-0.192105
-0.175719
-0.155588
-0.136083
-0.114129
-0.094209
-0.0748165
-0.0570455
-0.0430685
-0.0287433
-0.020448
-0.00962652
-0.00647186
0.00143026
-0.266043
-0.258449
-0.26063
-0.260157
-0.260278
-0.259822
-0.259065
-0.257691
-0.255713
-0.252943
-0.24926
-0.244347
-0.237976
-0.2301
-0.219875
-0.207958
-0.192666
-0.176319
-0.156227
-0.136704
-0.114775
-0.0947923
-0.0753981
-0.0575537
-0.0435318
-0.0291423
-0.0207581
-0.00989427
-0.00660789
0.00129984
-0.266026
-0.25836
-0.260245
-0.259859
-0.259979
-0.259602
-0.258899
-0.257592
-0.255676
-0.252969
-0.249313
-0.24451
-0.238213
-0.23042
-0.220266
-0.208428
-0.193201
-0.176902
-0.156866
-0.137331
-0.115441
-0.0953985
-0.0760078
-0.0580895
-0.0440196
-0.0295652
-0.0210856
-0.0101797
-0.00675188
0.00115988
-0.265659
-0.258204
-0.259757
-0.259435
-0.259565
-0.259277
-0.25864
-0.257411
-0.255563
-0.252924
-0.249336
-0.244613
-0.238393
-0.23069
-0.220616
-0.20887
-0.193723
-0.177485
-0.157523
-0.137985
-0.116148
-0.0960447
-0.0766605
-0.0586637
-0.0445405
-0.0300176
-0.0214344
-0.0104846
-0.0069048
0.00101059
-0.26524
-0.257911
-0.259082
-0.258802
-0.258956
-0.258783
-0.258239
-0.257109
-0.255352
-0.252805
-0.249286
-0.244655
-0.238524
-0.230928
-0.220948
-0.209311
-0.194262
-0.178101
-0.158229
-0.138693
-0.116917
-0.0967481
-0.0773677
-0.0592838
-0.045098
-0.0305012
-0.0218046
-0.0108091
-0.00706606
0.000852395
-0.262776
-0.256665
-0.258033
-0.257813
-0.258053
-0.258041
-0.257622
-0.256616
-0.25497
-0.252526
-0.249106
-0.244583
-0.238542
-0.231045
-0.221153
-0.209609
-0.194655
-0.178555
-0.158783
-0.139251
-0.117555
-0.097341
-0.0779851
-0.0598427
-0.0456082
-0.0309623
-0.0221578
-0.011134
-0.00722401
0.000687916
-0.250829
-0.254133
-0.256856
-0.256761
-0.257097
-0.257246
-0.256944
-0.256048
-0.254506
-0.252217
-0.248797
-0.244291
-0.238285
-0.230825
-0.220976
-0.209464
-0.194583
-0.178512
-0.15887
-0.139369
-0.117835
-0.0976545
-0.0784107
-0.0602958
-0.0460641
-0.0314307
-0.0225253
-0.0115105
-0.00740052
0.000482259
-0.245902
-0.251542
-0.25462
-0.25461
-0.255102
-0.255501
-0.255374
-0.254611
-0.253151
-0.250864
-0.247563
-0.243162
-0.237216
-0.229816
-0.220034
-0.20859
-0.19385
-0.177879
-0.15849
-0.139118
-0.117885
-0.097831
-0.0787974
-0.0607739
-0.0465806
-0.0319931
-0.0229754
-0.0119808
-0.00762455
0.000224516
-0.242681
-0.248157
-0.251168
-0.251483
-0.25227
-0.253002
-0.253124
-0.252556
-0.251241
-0.249092
-0.245892
-0.241576
-0.235693
-0.228364
-0.218667
-0.207313
-0.192753
-0.176922
-0.157846
-0.138656
-0.117786
-0.0979091
-0.0791293
-0.0612353
-0.0470986
-0.0325807
-0.0234498
-0.0124863
-0.00786702
-5.17408e-05
-0.23913
-0.243551
-0.246306
-0.247237
-0.248502
-0.249661
-0.250127
-0.249835
-0.248743
-0.246795
-0.243741
-0.23955
-0.233771
-0.226549
-0.21698
-0.205753
-0.191426
-0.175776
-0.157073
-0.138106
-0.117647
-0.0979816
-0.0794786
-0.0617374
-0.0476573
-0.0332233
-0.0239643
-0.0130392
-0.00813034
-0.000347052
-0.233816
-0.237681
-0.240155
-0.241827
-0.243719
-0.245388
-0.246279
-0.246345
-0.245547
-0.243855
-0.24101
-0.237001
-0.231381
-0.224313
-0.214927
-0.203874
-0.189842
-0.174424
-0.156155
-0.137463
-0.117463
-0.0980492
-0.0798447
-0.0622822
-0.0482577
-0.0339225
-0.02452
-0.0136396
-0.00841491
-0.000658865
-0.226484
-0.230678
-0.233001
-0.235378
-0.237971
-0.240199
-0.241567
-0.242047
-0.241601
-0.24022
-0.237644
-0.23388
-0.228474
-0.22161
-0.21247
-0.201644
-0.187974
-0.172846
-0.155075
-0.136714
-0.117217
-0.0981012
-0.0802162
-0.0628612
-0.0488932
-0.0346725
-0.0251135
-0.0142831
-0.00872012
-0.000983086
-0.217651
-0.222737
-0.225159
-0.228137
-0.231421
-0.234225
-0.236086
-0.237005
-0.236948
-0.235919
-0.233663
-0.230192
-0.225054
-0.218445
-0.20961
-0.199066
-0.185823
-0.171046
-0.153829
-0.13586
-0.116904
-0.0981332
-0.080586
-0.0634679
-0.0495581
-0.0354668
-0.0257412
-0.0149647
-0.00904496
-0.00131498
-0.207821
-0.214078
-0.216896
-0.220377
-0.224282
-0.227649
-0.229999
-0.231358
-0.2317
-0.231044
-0.229133
-0.225991
-0.221174
-0.21486
-0.206384
-0.196173
-0.183412
-0.169044
-0.152428
-0.134907
-0.116524
-0.0981423
-0.0809476
-0.0640948
-0.050246
-0.0362977
-0.0263986
-0.0156776
-0.00938796
-0.00164939
-0.197445
-0.204934
-0.208391
-0.212322
-0.216756
-0.220656
-0.223481
-0.225268
-0.226003
-0.225722
-0.224167
-0.221354
-0.216912
-0.210927
-0.202849
-0.193016
-0.180778
-0.16687
-0.150888
-0.133866
-0.116076
-0.0981254
-0.0812945
-0.0647327
-0.0509495
-0.0371556
-0.0270802
-0.0164138
-0.00974707
-0.00198104
-0.186916
-0.195509
-0.199757
-0.20413
-0.209006
-0.213394
-0.21668
-0.21888
-0.219999
-0.220084
-0.218892
-0.216434
-0.212361
-0.206728
-0.199078
-0.189656
-0.177969
-0.164561
-0.149232
-0.132751
-0.115563
-0.0980795
-0.0816201
-0.0653719
-0.0516604
-0.03803
-0.0277795
-0.0171646
-0.0101198
-0.00230489
-0.176484
-0.185967
-0.191064
-0.195896
-0.20115
-0.205975
-0.209705
-0.212308
-0.2138
-0.214242
-0.213415
-0.211307
-0.20761
-0.202348
-0.195142
-0.186155
-0.175031
-0.162155
-0.147483
-0.131574
-0.114992
-0.0980017
-0.0819191
-0.0660025
-0.0523704
-0.03891
-0.02849
-0.017921
-0.0105033
-0.00261652
-0.166297
-0.176442
-0.182367
-0.187679
-0.193267
-0.198478
-0.20263
-0.205628
-0.207487
-0.208277
-0.207812
-0.206054
-0.202738
-0.197856
-0.191102
-0.182566
-0.172009
-0.159682
-0.145664
-0.130348
-0.114366
-0.0978897
-0.0821867
-0.0666155
-0.0530721
-0.0397854
-0.0292052
-0.0186744
-0.0108946
-0.00291239
-0.156455
-0.167049
-0.173722
-0.17952
-0.185418
-0.190964
-0.195509
-0.198891
-0.201114
-0.202247
-0.202138
-0.200731
-0.197799
-0.193303
-0.187004
-0.17893
-0.168934
-0.157169
-0.143793
-0.129082
-0.113692
-0.0977417
-0.0824196
-0.067203
-0.0537586
-0.040647
-0.0299188
-0.019417
-0.0112908
-0.00318997
-0.147028
-0.15788
-0.165188
-0.171455
-0.177645
-0.183483
-0.188386
-0.192139
-0.194719
-0.19619
-0.196433
-0.195378
-0.19283
-0.188727
-0.18288
-0.175276
-0.165832
-0.154635
-0.141885
-0.127784
-0.112974
-0.0975562
-0.0826154
-0.0677585
-0.0544241
-0.0414867
-0.0306256
-0.0201421
-0.0116888
-0.00344778
-0.138059
-0.149012
-0.156828
-0.163524
-0.16999
-0.176082
-0.181301
-0.185404
-0.188334
-0.190139
-0.190729
-0.190025
-0.18786
-0.184152
-0.178755
-0.171625
-0.162723
-0.152093
-0.139953
-0.126461
-0.112218
-0.0973326
-0.0827727
-0.0682769
-0.0550641
-0.0422979
-0.0313207
-0.0208441
-0.0120858
-0.00368528
-0.129583
-0.140507
-0.148705
-0.155773
-0.162491
-0.168803
-0.174299
-0.178725
-0.181992
-0.184124
-0.185053
-0.184698
-0.182912
-0.179602
-0.174649
-0.167993
-0.159621
-0.149555
-0.138008
-0.125117
-0.111428
-0.0970711
-0.0828913
-0.0687545
-0.0556749
-0.0430751
-0.0319998
-0.0215184
-0.0124788
-0.00390274
-0.121623
-0.132415
-0.140875
-0.148247
-0.155187
-0.161689
-0.167423
-0.17214
-0.175725
-0.178176
-0.179435
-0.179425
-0.178012
-0.175098
-0.170582
-0.164398
-0.156543
-0.147032
-0.136061
-0.12376
-0.11061
-0.0967728
-0.0829713
-0.0691885
-0.0562533
-0.0438138
-0.032659
-0.0221616
-0.0128652
-0.004101
-0.114193
-0.124774
-0.13339
-0.140995
-0.14812
-0.154783
-0.160717
-0.165691
-0.16957
-0.172328
-0.173906
-0.174232
-0.173184
-0.170663
-0.166574
-0.160856
-0.153504
-0.144536
-0.134121
-0.122395
-0.10977
-0.0964399
-0.083014
-0.0695774
-0.0567968
-0.0445105
-0.0332945
-0.0227707
-0.0132418
-0.00428126
-0.107303
-0.117612
-0.126293
-0.134061
-0.141332
-0.148125
-0.154225
-0.159421
-0.163569
-0.166616
-0.168501
-0.169153
-0.168458
-0.166321
-0.162649
-0.157386
-0.150522
-0.14208
-0.132202
-0.121032
-0.108914
-0.0960759
-0.0830209
-0.0699202
-0.0573033
-0.0451622
-0.0339026
-0.0233438
-0.0136058
-0.00444482
-0.100953
-0.110951
-0.119622
-0.127489
-0.134862
-0.141756
-0.147991
-0.153376
-0.157762
-0.16108
-0.163255
-0.16422
-0.163864
-0.162099
-0.15883
-0.154008
-0.147614
-0.13968
-0.130317
-0.11968
-0.108052
-0.0956854
-0.0829945
-0.0702173
-0.0577706
-0.0457665
-0.0344797
-0.0238791
-0.0139541
-0.00459299
-0.0951425
-0.104807
-0.113407
-0.121316
-0.128753
-0.135719
-0.142058
-0.147601
-0.152196
-0.15576
-0.158207
-0.159469
-0.159437
-0.158028
-0.155145
-0.150747
-0.144802
-0.137352
-0.128481
-0.118351
-0.107192
-0.0952743
-0.0829379
-0.0704696
-0.0581974
-0.0463218
-0.0350221
-0.0243753
-0.0142838
-0.00472692
-0.0898688
-0.099189
-0.107676
-0.115579
-0.123044
-0.130054
-0.136471
-0.142141
-0.146916
-0.150701
-0.153399
-0.154939
-0.155212
-0.15414
-0.151624
-0.147628
-0.142109
-0.135117
-0.126711
-0.117057
-0.106344
-0.09485
-0.0828551
-0.070679
-0.0585821
-0.0468267
-0.0355261
-0.0248312
-0.014592
-0.00484754
-0.085128
-0.0941071
-0.10245
-0.110312
-0.117773
-0.124804
-0.131274
-0.137045
-0.14197
-0.14595
-0.148877
-0.150674
-0.15123
-0.150474
-0.148301
-0.14468
-0.139561
-0.132996
-0.125025
-0.115816
-0.10552
-0.094421
-0.0827509
-0.0708482
-0.0589242
-0.0472805
-0.0359883
-0.0252456
-0.0148762
-0.00495551
-0.0809185
-0.0895698
-0.0977517
-0.105546
-0.11298
-0.12001
-0.126512
-0.13236
-0.137409
-0.141558
-0.144688
-0.146718
-0.147535
-0.147067
-0.145211
-0.141936
-0.137186
-0.131014
-0.123445
-0.114643
-0.104733
-0.0939975
-0.0826311
-0.0709806
-0.0592232
-0.0476825
-0.0364054
-0.0256173
-0.0151338
-0.00505122
-0.0772406
-0.085587
-0.0936028
-0.101313
-0.108703
-0.115716
-0.122234
-0.128138
-0.133288
-0.137578
-0.140885
-0.143123
-0.144172
-0.143965
-0.142395
-0.139433
-0.135017
-0.129199
-0.121993
-0.113558
-0.103999
-0.0935907
-0.0825024
-0.0710805