/*--------------------------------*- C++ -*----------------------------------*\
  =========                 |
  \\      /  F ield         | OpenFOAM: The Open Source CFD Toolbox
   \\    /   O peration     | Website:  https://openfoam.org
    \\  /    A nd           | Version:  7
     \\/     M anipulation  |
\*---------------------------------------------------------------------------*/
FoamFile
{
    version     2.0;
    format      ascii;
    class       surfaceScalarField;
    location    "50";
    object      phi;
}
// * * * * * * * * * * * * * * * * * * * * * * * * * * * * * * * * * * * * * //

dimensions      [0 3 -1 0 0 0 0];

internalField   nonuniform List<scalar> 
16735
(
-7.3155e-05
7.28423e-05
3.12686e-07
-0.000260844
0.000186864
8.24644e-07
-0.000543901
0.000281781
1.27632e-06
-0.000903457
0.000357885
1.67048e-06
-0.00132245
0.000416967
2.02244e-06
-0.00178739
0.000462581
2.35802e-06
-0.0022905
0.000500406
2.70775e-06
-0.0028325
0.000538904
3.1007e-06
-0.00342475
0.000588688
3.56054e-06
0.000662534
4.10442e-06
-0.00409139
-7.23422e-05
0.000145184
-0.000258021
0.000372543
-0.000537951
0.000561711
-0.000893183
0.000713117
-0.00130637
0.000830153
-0.00176348
0.000919689
-0.00225589
0.000992814
-0.00278328
0.00106629
-0.00335615
0.00116156
0.00130446
-0.00399807
-7.07459e-05
0.00021593
-0.000252459
0.000554256
-0.000526206
0.000835459
-0.000872879
0.00105979
-0.00127457
0.00123185
-0.00171618
0.00136129
-0.00218736
0.001464
-0.00268568
0.00156461
-0.00321983
0.00169571
0.0018966
-0.00381198
-6.84314e-05
0.000284362
-0.00024435
0.000730174
-0.000509023
0.00110013
-0.000843102
0.00139387
-0.00122787
0.00161662
-0.00164664
0.00178006
-0.0020865
0.00190385
-0.00254167
0.00201978
-0.00301794
0.00217199
0.00241326
-0.0035346
-6.54899e-05
0.000349852
-0.000233961
0.000898645
-0.000486892
0.00135306
-0.000804613
0.00171159
-0.00116738
0.00197939
-0.00155644
0.00216912
-0.00195545
0.00230286
-0.00235396
0.0024183
-0.00275352
0.00257155
0.00282771
-0.00316798
-6.20307e-05
0.000411882
-0.000221607
0.00105822
-0.000460386
0.00159184
-0.000758286
0.00200949
-0.00109434
0.00231545
-0.00144735
0.00252213
-0.00179671
0.00265222
-0.00212577
0.00274736
-0.00243026
0.00287604
0.00311199
-0.00271454
-5.81722e-05
0.000470055
-0.000207628
0.00120768
-0.000430101
0.00181431
-0.000704996
0.00228438
-0.00100998
0.00262042
-0.00132107
0.00283322
-0.00161266
0.00294381
-0.00186027
0.00299497
-0.00205195
0.00306773
0.00323698
-0.00217694
-5.40328e-05
0.000524087
-0.000192351
0.001346
-0.000396587
0.00201855
-0.000645493
0.00253329
-0.000915216
0.00289015
-0.00117879
0.00309679
-0.001405
0.00317003
-0.00155981
0.00314978
-0.00162155
0.00312946
0.00317339
-0.00155797
-4.97225e-05
0.00057381
-0.000176065
0.00147234
-0.000360286
0.00220277
-0.000580269
0.00275327
-0.000810486
0.00312036
-0.00102079
0.0033071
-0.00117397
0.00332321
-0.00122467
0.00320047
-0.00113919
0.00304399
0.0028957
-0.000861499
-4.53369e-05
0.000619147
-0.000159
0.001586
-0.000321473
0.00236525
-0.000509443
0.00294124
-0.00069546
0.00330638
-0.000845993
0.00345763
-0.00091752
0.00339473
-0.000851184
0.00313414
-0.000595649
0.00278845
0.00240782
-0.000107774
-4.09528e-05
0.000660099
-0.000141306
0.00168635
-0.000280218
0.00250416
-0.000432683
0.00309371
-0.00056889
0.00344259
-0.000651573
0.00354031
-0.0006309
0.00337406
-0.000433027
0.00293626
4.90706e-05
0.00230636
0.00163866
0.000818231
-3.66275e-05
0.000696727
-0.000123052
0.00177278
-0.000236374
0.00261748
-0.000349159
0.00320649
-0.000428494
0.00352192
-0.000432653
0.00354447
-0.000305343
0.00324675
2.86218e-05
0.0026023
0.000719821
0.00161516
0.000498364
0.00186012
-3.23986e-05
0.000729126
-0.000104219
0.0018446
-0.000189574
0.00270284
-0.000257562
0.00327448
-0.000270962
0.00353532
-0.000182292
0.0034558
7.45121e-05
0.00298995
0.000594972
0.00208184
0.00153212
0.000678006
-0.00102917
0.00305966
-2.82837e-05
0.000757409
-8.4703e-05
0.00190102
-0.000139245
0.00275738
-0.000156183
0.00329142
-9.22425e-05
0.00347138
0.000107847
0.00325571
0.000519923
0.00257787
0.00125572
0.00134604
0.00250649
-0.00057276
-0.00298228
0.00445959
-2.42752e-05
0.000781684
-6.42996e-05
0.00194104
-8.46021e-05
0.00277768
-4.29257e-05
0.00324974
0.00011234
0.00331612
0.000447394
0.00292066
0.00105167
0.0019736
0.00205114
0.000346574
0.0036889
-0.00221052
-0.00539459
0.00610121
-2.03295e-05
0.000802014
-4.26723e-05
0.00196338
-2.45667e-05
0.00275957
8.46648e-05
0.00314051
0.000347943
0.00305284
0.000846166
0.00242244
0.00168692
0.00113284
0.00301135
-0.000977856
0.00512423
-0.0043234
-0.00828252
0.00801216
-1.63499e-05
0.000818364
-1.92716e-05
0.00196631
4.2145e-05
0.00269816
0.000229541
0.00295311
0.000620202
0.00266218
0.00131416
0.00172848
0.00244235
4.64886e-06
0.00416269
-0.0026982
0.00683949
-0.0070002
-0.0116319
0.0101888
-1.21787e-05
0.000830543
6.71033e-06
0.00194742
0.000117411
0.00258746
0.000395336
0.00267519
0.000935468
0.00212205
0.00186144
0.000802513
0.00333233
-0.00146625
0.00552715
-0.00489302
0.00882901
-0.0103021
-0.01539
0.0125871
-7.63769e-06
0.00083818
3.57431e-05
0.00190404
0.000203619
0.00241958
0.000586534
0.00229227
0.00130096
0.00140762
0.00249816
-0.000394685
0.00436829
-0.00333638
0.00712296
-0.00764769
0.0110541
-0.0142332
-0.0194711
0.0151353
-2.11293e-06
0.000840293
6.99162e-05
0.00183201
0.000303857
0.00218564
0.000808501
0.00178763
0.00172463
0.000491494
0.00323344
-0.0019035
0.00555411
-0.00565704
0.00894136
-0.0110349
0.0134832
-0.0187751
-0.0237504
0.0177625
4.78493e-06
0.000835508
0.000110649
0.00172614
0.000421687
0.0018746
0.00106731
0.00114201
0.00221464
-0.00065584
0.00407404
-0.0037629
0.00688147
-0.00846448
0.0108947
-0.0150482
0.0159596
-0.02384
-0.0314097
0.0236189
1.33416e-05
0.000822167
0.000159762
0.00157972
0.000560989
0.00147338
0.00136923
0.000333769
0.00277849
-0.0020651
0.00502286
-0.00600726
0.00833481
-0.0117764
0.0129019
-0.0196153
0.0184419
-0.02938
-0.0387346
0.0257667
2.43751e-05
0.000797792
0.000219182
0.00138492
0.000725575
0.000966983
0.00171989
-0.000660543
0.00342121
-0.00376643
0.00607571
-0.00866176
0.00988376
-0.0155845
0.0148916
-0.0246231
0.0207339
-0.0352223
-0.0456099
0.0276092
3.83903e-05
0.000759401
0.000290666
0.00113264
0.000918697
0.000338952
0.00212313
-0.00186497
0.00414298
-0.00578627
0.00721703
-0.0117358
0.0114747
-0.0198421
0.016786
-0.0299344
0.0226734
-0.0411097
-0.051935
0.0289985
5.58547e-05
0.000703547
0.000375631
0.000812863
0.00114255
-0.000427969
0.00257993
-0.00330235
0.00493685
-0.00814319
0.00841693
-0.0152159
0.0130348
-0.02446
0.0184759
-0.0353755
0.0241741
-0.046808
-0.0576078
0.0298469
7.71329e-05
0.000626414
0.000475004
0.000414992
0.00139788
-0.00135084
0.00308747
-0.00499194
0.00578721
-0.0108429
0.00963091
-0.0190596
0.0144823
-0.0293114
0.0198668
-0.0407599
0.0251921
-0.0521333
-0.0625814
0.0301657
0.000102464
0.000523949
0.000589129
-7.16726e-05
0.00168368
-0.0024454
0.00363858
-0.00694684
0.00666943
-0.0138738
0.0108036
-0.0231937
0.0157394
-0.0342472
0.0208974
-0.045918
0.0257313
-0.0569672
-0.0668691
0.030019
0.000131955
0.000391994
0.000717705
-0.000657423
0.00199702
-0.00372471
0.00422141
-0.00917123
0.00755094
-0.0172033
0.011876
-0.0275188
0.0167451
-0.0391163
0.0215453
-0.0507182
0.0258319
-0.0612539
-0.0705222
0.029485
0.000165577
0.000226417
0.000859749
-0.00135159
0.00233293
-0.00519789
0.00481957
-0.0116579
0.00839398
-0.0207777
0.0127946
-0.0319194
0.0174627
-0.0437843
0.0218205
-0.055076
0.0255534
-0.0649868
-0.073613
0.0286442
0.000203161
2.32554e-05
0.00101356
-0.002162
0.00268435
-0.00686868
0.0054128
-0.0143863
0.00915977
-0.0245247
0.0135184
-0.0362781
0.017881
-0.0481469
0.021756
-0.0589509
0.0249622
-0.0681931
-0.0762194
0.0275686
0.000244389
-0.000221134
0.00117671
-0.00309431
0.00304228
-0.00873425
0.00597828
-0.0173223
0.00981325
-0.0283597
0.0140232
-0.040488
0.0180103
-0.052134
0.021397
-0.0623377
0.0241225
-0.0709187
-0.0784153
0.0263184
0.000288792
-0.000509926
0.00134601
-0.00415153
0.00339598
-0.0107842
0.00649263
-0.020419
0.0103272
-0.0321942
0.0143015
-0.0444623
0.0178752
-0.0557077
0.0207927
-0.0652551
0.0230914
-0.0732173
-0.0802655
0.0249416
0.000335721
-0.000845646
0.00151758
-0.00533339
0.00373356
-0.0130002
0.0069343
-0.0236197
0.0106843
-0.0359442
0.0143599
-0.0481379
0.0175089
-0.0588568
0.0199909
-0.0677371
0.0219167
-0.0751431
-0.0818236
0.0234748
0.000384354
-0.00123
0.00168695
-0.00663599
0.00404274
-0.015356
0.00728564
-0.0268626
0.0108781
-0.0395366
0.014215
-0.0514747
0.0169473
-0.0615892
0.0190345
-0.0698243
0.0206373
-0.0767459
-0.083132
0.0219457
0.000433705
-0.00166371
0.00184921
-0.00805149
0.00431182
-0.0178186
0.0075344
-0.0300852
0.010911
-0.0429132
0.0138895
-0.0544532
0.0162259
-0.0639256
0.0179606
-0.0715591
0.0192834
-0.0780687
-0.084223
0.0203744
0.000482643
-0.00214635
0.00199924
-0.00956809
0.00453063
-0.02035
0.00767429
-0.0332289
0.0107925
-0.0460315
0.0134088
-0.0570695
0.0153772
-0.065894
0.0167998
-0.0729817
0.0178785
-0.0791473
-0.0851203
0.0187758
0.000529936
-0.00267628
0.00213206
-0.0111702
0.00469132
-0.0229093
0.00770464
-0.0362422
0.0105369
-0.0488637
0.0127986
-0.0593312
0.0144301
-0.0675255
0.0155769
-0.0741285
0.0164399
-0.0800103
-0.0858412
0.0171608
0.000574301
-0.00325058
0.00224308
-0.012839
0.00478879
-0.025455
0.00762948
-0.0390829
0.0101609
-0.0513951
0.0120833
-0.0612536
0.0134092
-0.0688514
0.0143115
-0.0750308
0.014981
-0.0806799
-0.0863974
0.0155372
0.000614459
-0.00386504
0.00232846
-0.014553
0.00482089
-0.0279474
0.00745635
-0.0417183
0.00968218
-0.0536209
0.0112851
-0.0628565
0.0123349
-0.0699012
0.0130187
-0.0757146
0.0135115
-0.0811727
-0.0867973
0.0139114
0.000649203
-0.00451425
0.00238525
-0.016289
0.00478814
-0.0303503
0.00719505
-0.0441252
0.00911823
-0.0555441
0.0104235
-0.0641617
0.011224
-0.0707017
0.0117105
-0.0762011
0.0120389
-0.0815011
-0.0870467
0.0122883
0.000677447
-0.00519169
0.00241159
-0.0180232
0.00469334
-0.032632
0.00685661
-0.0462885
0.00848542
-0.0571729
0.00951515
-0.0651915
0.0100898
-0.0712764
0.0103959
-0.0765072
0.0105689
-0.0816741
-0.0871495
0.0106717
0.000698279
-0.00588997
0.00240672
-0.0197316
0.00454101
-0.0347663
0.00645245
-0.0481999
0.0077987
-0.0585192
0.00857429
-0.0659671
0.0089432
-0.0716453
0.00908189
-0.0766459
0.00910582
-0.081698
-0.0871082
0.00906446
0.000710992
-0.00660096
0.00237091
-0.0213915
0.00433681
-0.0367322
0.00599377
-0.0498569
0.00707128
-0.0595967
0.00761261
-0.0665084
0.00779253
-0.0718253
0.00777384
-0.0766272
0.0076532
-0.0815774
-0.0869239
0.00746899
0.000715105
-0.00731607
0.00230531
-0.0229818
0.00408707
-0.038514
0.00549117
-0.051261
0.00631471
-0.0604202
0.00663975
-0.0668334
0.00664446
-0.07183
0.00647587
-0.0764586
0.00621375
-0.0813152
-0.0865974
0.00588721
0.000710368
-0.00802644
0.00221184
-0.0244832
0.00379835
-0.0401005
0.00495436
-0.052417
0.00553884
-0.0610047
0.0056636
-0.0669582
0.00550435
-0.0716707
0.00519128
-0.0761455
0.00478957
-0.0809135
-0.0861283
0.00432045
0.000696753
-0.00872319
0.00209292
-0.0258794
0.00347714
-0.0414847
0.00439208
-0.053332
0.00475205
-0.0613647
0.00469061
-0.0668968
0.00437666
-0.0713568
0.00392331
-0.0756922
0.00338231
-0.0803725
-0.0855149
0.00276894
0.000674441
-0.00939763
0.00195129
-0.0271563
0.00312963
-0.042663
0.00381201
-0.0540143
0.0039613
-0.061514
0.00372592
-0.0666614
0.00326517
-0.070896
0.00267602
-0.075103
0.00199422
-0.0796907
-0.0847488
0.00122813
0.000643825
-0.0100415
0.00179003
-0.0283025
0.00276161
-0.0436346
0.00322085
-0.0544736
0.00317236
-0.0614655
0.0027736
-0.0662626
0.00217268
-0.0702951
0.00145237
-0.0743827
0.000636698
-0.0788751
-0.0838042
-0.000307947
0.000605476
-0.0106469
0.00161237
-0.0293093
0.00237841
-0.0444007
0.00262435
-0.0547195
0.00238997
-0.0612311
0.0018369
-0.0657095
0.0011014
-0.0695596
0.000244952
-0.0735263
-0.000696017
-0.0779341
-0.082756
-0.00174419
0.000560097
-0.011207
0.0014213
-0.0301706
0.00198487
-0.0449642
0.00202746
-0.0547621
0.00161791
-0.0608216
0.000918673
-0.0650103
4.49645e-05
-0.0686859
-0.000925731
-0.0725556
-0.00200866
-0.0768512
-0.0815869
-0.00317774
0.000508486
-0.0117155
0.00121972
-0.0308818
0.00158537
-0.0453299
0.00143435
-0.0546111
0.000859014
-0.0602462
1.51592e-05
-0.0641665
-0.00097026
-0.0677005
-0.00207273
-0.0714531
-0.00328523
-0.0756387
-0.0802852
-0.00458698
0.000451546
-0.0121671
0.0010104
-0.0314406
0.00118367
-0.0455031
0.000848373
-0.0542758
0.000117417
-0.0595153
-0.000852154
-0.0631969
-0.00196691
-0.0665857
-0.00319242
-0.0702276
-0.00453088
-0.0743002
-0.0788509
-0.00596516
0.000390264
-0.0125573
0.000796231
-0.0318466
0.000782696
-0.0454896
0.000273837
-0.0537669
-0.000605323
-0.0586361
-0.00170336
-0.0620989
-0.00293725
-0.0653518
-0.00428255
-0.0688823
-0.00574523
-0.0728375
-0.0772864
-0.00730974
0.000325558
-0.0128829
0.000580243
-0.0321013
0.000385848
-0.0452952
-0.00028945
-0.0530916
-0.00130896
-0.0576166
-0.00253027
-0.0608775
-0.00387994
-0.0640022
-0.00534214
-0.0674201
-0.00692698
-0.0712527
-0.0755958
-0.00861755
0.000258239
-0.0131411
0.000364387
-0.0322074
1.55939e-05
-0.0449464
-0.000836471
-0.0522396
-0.00199259
-0.0564605
-0.00333201
-0.0595381
-0.00479423
-0.0625399
-0.00637055
-0.0658438
-0.00807467
-0.0695486
-0.0737857
-0.00988483
0.000189928
-0.0133311
0.000150603
-0.0321681
-0.000392635
-0.0444032
-0.00137301
-0.0512592
-0.00265445
-0.055179
-0.00410767
-0.0580849
-0.00567937
-0.0609683
-0.00736703
-0.0641561
-0.00918704
-0.0677285
-0.071861
-0.0111117
0.000119381
-0.0134504
-5.63592e-05
-0.0319924
-0.000768382
-0.0436912
-0.00189291
-0.0501347
-0.00329387
-0.0537781
-0.00485657
-0.0565222
-0.0065349
-0.0592899
-0.00833109
-0.0623599
-0.0102642
-0.0657955
-0.0698192
-0.0123059
4.36078e-05
-0.013494
-0.000287547
-0.0316612
-0.00113492
-0.0428438
-0.0023941
-0.0488755
-0.0039101
-0.0522621
-0.00557841
-0.0548539
-0.00736117
-0.0575072
-0.00926376
-0.0604574
-0.011305
-0.0637542
-0.0676602
-0.0134641
-3.18716e-05
-0.0134622
-0.000501583
-0.0311915
-0.00149024
-0.0418551
-0.00287594
-0.0474898
-0.00450199
-0.050636
-0.00627261
-0.0530833
-0.00815876
-0.055621
-0.0101683
-0.0584478
-0.0123044
-0.0616181
-0.0653987
-0.0145659
-0.000102801
-0.0133594
-0.00070724
-0.0305871
-0.00183265
-0.0407297
-0.00333806
-0.0459844
-0.0050688
-0.0489053
-0.00693815
-0.0512139
-0.00892568
-0.0536335
-0.0110433
-0.0563302
-0.0133012
-0.0593603
-0.0631731
-0.0155268
-0.000174245
-0.0131851
-0.000905748
-0.0298556
-0.00216121
-0.0394743
-0.00377984
-0.0443658
-0.00561003
-0.0470751
-0.00757397
-0.04925
-0.00965714
-0.0515503
-0.0118605
-0.0541268
-0.0141496
-0.0570712
-0.0604493
-0.0168733
-0.000244349
-0.0129408
-0.00109701
-0.0290029
-0.00247532
-0.0380959
-0.00420083
-0.0426402
-0.00612547
-0.0451504
-0.00817949
-0.047196
-0.0103499
-0.0493799
-0.0126328
-0.0518439
-0.0150453
-0.0546587
-0.0577404
-0.0177543
-0.000312511
-0.0126283
-0.00128056
-0.0280349
-0.00277451
-0.036602
-0.00460066
-0.0408141
-0.0066148
-0.0431363
-0.00875458
-0.0450562
-0.0110102
-0.0471243
-0.0133862
-0.0494679
-0.015916
-0.0521289
-0.055002
-0.0186545
-0.000378348
-0.0122499
-0.00145586
-0.0269573
-0.00305838
-0.0349995
-0.00497901
-0.0388935
-0.00707761
-0.0410377
-0.00929845
-0.0428353
-0.0116351
-0.0447877
-0.0140974
-0.0470055
-0.0167156
-0.0495107
-0.052208
-0.0195096
-0.000441552
-0.0118084
-0.00162246
-0.0257764
-0.0033266
-0.0332953
-0.00533565
-0.0368844
-0.00751375
-0.0388596
-0.00981134
-0.0405377
-0.0122256
-0.0423734
-0.0147694
-0.0444617
-0.0174672
-0.0468129
-0.0493481
-0.0203271
-0.000501849
-0.0113065
-0.00177995
-0.0244983
-0.00357886
-0.0314964
-0.00567041
-0.0347929
-0.00792305
-0.036607
-0.010293
-0.0381678
-0.0127805
-0.0398859
-0.0153998
-0.0418424
-0.0181715
-0.0440412
-0.0464185
-0.0211011
-0.000559
-0.0107475
-0.00192799
-0.0231293
-0.00381494
-0.0296095
-0.00598315
-0.0326247
-0.00830543
-0.0342847
-0.0107433
-0.0357299
-0.0132996
-0.0373296
-0.0159893
-0.0391527
-0.0188307
-0.0411998
-0.0434195
-0.0218297
-0.000612792
-0.0101347
-0.0020663
-0.0216758
-0.00403464
-0.0276411
-0.00627378
-0.0303855
-0.0086608
-0.0318977
-0.011162
-0.0332287
-0.0137826
-0.0347091
-0.0165377
-0.0363975
-0.0194449
-0.0382926
-0.0403532
-0.0225112
-0.00066304
-0.00947168
-0.00219464
-0.0201442
-0.00423781
-0.025598
-0.0065422
-0.0280811
-0.00898907
-0.0294508
-0.0115491
-0.0306687
-0.0142292
-0.032029
-0.0170451
-0.0335816
-0.0200139
-0.0353238
-0.0372231
-0.023144
-0.000709582
-0.0087621
-0.00231282
-0.018541
-0.00442432
-0.0234865
-0.00678838
-0.0257171
-0.00929019
-0.026949
-0.0119043
-0.0280546
-0.0146393
-0.029294
-0.0175113
-0.0307097
-0.0205372
-0.0322979
-0.0340333
-0.0237269
-0.000752278
-0.00800982
-0.00242066
-0.0168726
-0.00459409
-0.021313
-0.00701226
-0.0232989
-0.00956409
-0.0243972
-0.0122276
-0.0253911
-0.0150127
-0.0265089
-0.0179359
-0.0277864
-0.0210143
-0.0292195
-0.0307887
-0.024259
-0.000791006
-0.00721882
-0.00251804
-0.0151456
-0.00474703
-0.0190841
-0.00721381
-0.0208321
-0.00981072
-0.0218002
-0.0125188
-0.022683
-0.0153493
-0.0236784
-0.0183189
-0.0248168
-0.0214448
-0.0260935
-0.0274941
-0.0247393
-0.000825665
-0.00639315
-0.00260483
-0.0133664
-0.00488308
-0.0168058
-0.00739301
-0.0183222
-0.0100301
-0.0191632
-0.0127779
-0.0199351
-0.0156488
-0.0208076
-0.0186598
-0.0218058
-0.0218282
-0.0229251
-0.024155
-0.0251673
-0.000856167
-0.00553698
-0.00268095
-0.0115416
-0.00500221
-0.0144845
-0.00754983
-0.0157746
-0.010222
-0.016491
-0.0130048
-0.0171523
-0.0159112
-0.0179013
-0.0189585
-0.0187585
-0.0221642
-0.0197194
-0.0207769
-0.0255424
-0.000882439
-0.00465455
-0.00274633
-0.00967773
-0.00510438
-0.0121265
-0.00768427
-0.0131947
-0.0103866
-0.0137886
-0.0131994
-0.0143395
-0.0161362
-0.0149645
-0.0192148
-0.0156799
-0.0224525
-0.0164817
-0.0173651
-0.0258643
-0.000904419
-0.00375013
-0.00280089
-0.00778126
-0.00518956
-0.00973783
-0.00779632
-0.0105879
-0.0105238
-0.0110611
-0.0133617
-0.0115017
-0.016324
-0.0120022
-0.0194286
-0.0125752
-0.022693
-0.0132173
-0.0139255
-0.0261326
-0.00092206
-0.00282807
-0.0028446
-0.00585872
-0.00525772
-0.0073247
-0.00788596
-0.00795968
-0.0106336
-0.00831343
-0.0134915
-0.0086438
-0.0164742
-0.00901947
-0.0195998
-0.00944968
-0.0228855
-0.00993161
-0.0104635
-0.0263474
-0.000935324
-0.00189274
-0.00287741
-0.00391664
-0.00530885
-0.00489326
-0.00795319
-0.00531534
-0.010716
-0.00555064
-0.0135889
-0.00577085
-0.0165869
-0.00602145
-0.0197282
-0.00630845
-0.0230299
-0.0066299
-0.0069849
-0.0265085
-0.000944181
-0.000948561
-0.0028993
-0.00196152
-0.00534295
-0.00244961
-0.00799801
-0.00266028
-0.0107709
-0.00277776
-0.0136539
-0.00288786
-0.0166621
-0.0030132
-0.0198138
-0.00315676
-0.0231262
-0.00331754
-0.00349515
-0.0266159
-0.000948614
5.313e-08
-0.00291025
1.12122e-07
-0.00536
1.39805e-07
-0.00802042
1.49388e-07
-0.0107983
1.51807e-07
-0.0136864
1.5241e-07
-0.0166997
1.52584e-07
-0.0198566
1.52449e-07
-0.0231743
1.51926e-07
1.50851e-07
-0.0266696
-0.000948614
0.000948668
-0.00291025
0.00196174
-0.00536
0.00244989
-0.00802042
0.00266058
-0.0107983
0.00277807
-0.0136864
0.00288817
-0.0166997
0.00301351
-0.0198566
0.00315707
-0.0231743
0.00331784
0.00349545
-0.0266696
-0.000944181
0.00189285
-0.0028993
0.00391686
-0.00534295
0.00489354
-0.00799801
0.00531564
-0.0107709
0.00555094
-0.0136539
0.00577116
-0.0166621
0.00602175
-0.0198138
0.00630875
-0.0231262
0.00663021
0.0069852
-0.0266159
-0.000935324
0.00282817
-0.00287741
0.00585895
-0.00530885
0.00732499
-0.00795319
0.00795998
-0.010716
0.00831373
-0.0135889
0.0086441
-0.0165869
0.00901977
-0.0197282
0.00944999
-0.0230299
0.00993191
0.0104638
-0.0265085
-0.000922061
0.00375023
-0.0028446
0.00778148
-0.00525772
0.00973811
-0.00788596
0.0105882
-0.0106336
0.0110614
-0.0134915
0.011502
-0.0164742
0.0120025
-0.0195998
0.0125755
-0.0228855
0.0132176
0.0139258
-0.0263474
-0.000904419
0.00465465
-0.00280089
0.00967796
-0.00518956
0.0121268
-0.00779632
0.013195
-0.0105238
0.0137889
-0.0133617
0.0143398
-0.016324
0.0149648
-0.0194286
0.0156802
-0.022693
0.016482
0.0173654
-0.0261327
-0.000882439
0.00553709
-0.00274633
0.0115418
-0.00510438
0.0144848
-0.00768428
0.0157749
-0.0103866
0.0164913
-0.0131994
0.0171526
-0.0161363
0.0179016
-0.0192148
0.0187588
-0.0224525
0.0197197
0.0207772
-0.0258643
-0.000856167
0.00639326
-0.00268095
0.0133666
-0.00500222
0.0168061
-0.00754984
0.0183225
-0.010222
0.0191635
-0.0130048
0.0199354
-0.0159112
0.0208079
-0.0189585
0.0218062
-0.0221642
0.0229254
0.0241553
-0.0255424
-0.000825665
0.00721892
-0.00260483
0.0151458
-0.00488309
0.0190843
-0.00739301
0.0208324
-0.0100301
0.0218006
-0.012778
0.0226833
-0.0156488
0.0236788
-0.0186598
0.0248172
-0.0218282
0.0260938
0.0274944
-0.0251673
-0.000791006
0.00800993
-0.00251804
0.0168728
-0.00474703
0.0213133
-0.00721382
0.0232992
-0.00981073
0.0243975
-0.0125188
0.0253914
-0.0153493
0.0265092
-0.0183189
0.0277868
-0.0214448
0.0292198
0.030789
-0.0247394
-0.000752278
0.00876221
-0.00242066
0.0185412
-0.00459409
0.0234868
-0.00701226
0.0257174
-0.00956409
0.0269493
-0.0122276
0.0280549
-0.0150127
0.0292943
-0.0179359
0.03071
-0.0210143
0.0322982
0.0340337
-0.024259
-0.000709582
0.00947179
-0.00231282
0.0201445
-0.00442432
0.0255983
-0.00678838
0.0280814
-0.00929019
0.0294511
-0.0119043
0.030669
-0.0146393
0.0320293
-0.0175113
0.0335819
-0.0205372
0.0353241
0.0372234
-0.023727
-0.00066304
0.0101348
-0.00219465
0.0216761
-0.00423781
0.0276414
-0.00654221
0.0303858
-0.00898908
0.031898
-0.0115491
0.033229
-0.0142292
0.0347094
-0.0170451
0.0363979
-0.0200139
0.0382929
0.0403535
-0.023144
-0.000612792
0.0107476
-0.0020663
0.0231296
-0.00403464
0.0296098
-0.00627378
0.032625
-0.00866081
0.034285
-0.011162
0.0357303
-0.0137826
0.0373299
-0.0165377
0.039153
-0.0194449
0.0412001
0.0434198
-0.0225112
-0.000558999
0.0113066
-0.00192799
0.0244986
-0.00381494
0.0314967
-0.00598316
0.0347932
-0.00830544
0.0366073
-0.0107433
0.0381681
-0.0132996
0.0398863
-0.0159893
0.0418427
-0.0188307
0.0440415
0.0464189
-0.0218298
-0.000501848
0.0118085
-0.00177995
0.0257767
-0.00357886
0.0332956
-0.00567042
0.0368847
-0.00792306
0.0388599
-0.010293
0.0405381
-0.0127805
0.0423738
-0.0153998
0.0444621
-0.0181715
0.0468132
0.0493484
-0.0211011
-0.000441551
0.01225
-0.00162246
0.0269576
-0.0033266
0.0349998
-0.00533566
0.0388938
-0.00751375
0.041038
-0.00981135
0.0428357
-0.0122256
0.044788
-0.0147694
0.0470059
-0.0174672
0.0495111
0.0522083
-0.0203271
-0.000378348
0.0126284
-0.00145586
0.0280351
-0.00305839
0.0366023
-0.00497901
0.0408144
-0.00707761
0.0431366
-0.00929846
0.0450565
-0.0116351
0.0471246
-0.0140975
0.0494682
-0.0167156
0.0521292
0.0550023
-0.0195096
-0.00031251
0.0129409
-0.00128056
0.0290031
-0.00277451
0.0380963
-0.00460066
0.0426406
-0.00661481
0.0451508
-0.0087546
0.0471963
-0.0110102
0.0493803
-0.0133863
0.0518442
-0.015916
0.054659
0.0577408
-0.0186545
-0.000244348
0.0131852
-0.00109701
0.0298558
-0.00247532
0.0394746
-0.00420084
0.0443661
-0.00612548
0.0470754
-0.0081795
0.0492503
-0.0103499
0.0515506
-0.0126328
0.0541272
-0.0150454
0.0570715
0.0604497
-0.0177543
-0.000174243
0.0133595
-0.000905747
0.0305873
-0.00216121
0.04073
-0.00377984
0.0459847
-0.00561004
0.0489056
-0.00757398
0.0512143
-0.00965715
0.0536338
-0.0118605
0.0563305
-0.0141496
0.0593606
0.0631734
-0.0168733
-0.000102799
0.0134623
-0.000707239
0.0311917
-0.00183265
0.0418554
-0.00333806
0.0474901
-0.00506881
0.0506364
-0.00693816
0.0530836
-0.0089257
0.0556214
-0.0110433
0.0584482
-0.0133012
0.0616185
0.065399
-0.0155268
-3.187e-05
0.0134941
-0.000501582
0.0316615
-0.00149024
0.0428441
-0.00287595
0.0488758
-0.00450199
0.0522624
-0.00627263
0.0548542
-0.00815878
0.0575075
-0.0101683
0.0604577
-0.0123044
0.0637546
0.0676606
-0.0145659
4.36099e-05
0.0134505
-0.000287544
0.0319926
-0.00113492
0.0436915
-0.0023941
0.050135
-0.0039101
0.0537784
-0.00557842
0.0565226
-0.00736118
0.0592903
-0.00926378
0.0623603
-0.011305
0.0657958
0.0698196
-0.0134641
0.000119384
0.0133311
-5.63547e-05
0.0321683
-0.00076838
0.0444035
-0.00189292
0.0512596
-0.00329388
0.0551794
-0.00485658
0.0580853
-0.00653492
0.0609686
-0.00833111
0.0641565
-0.0102642
0.0677289
0.0718613
-0.0123059
0.000189931
0.0131412
0.000150608
0.0322077
-0.000392632
0.0449467
-0.00137301
0.0522399
-0.00265445
0.0564608
-0.00410768
0.0595385
-0.00567938
0.0625403
-0.00736705
0.0658442
-0.00918707
0.0695489
0.073786
-0.0111118
0.000258243
0.012883
0.000364393
0.0321015
1.55977e-05
0.0452955
-0.00083647
0.053092
-0.0019926
0.057617
-0.00333202
0.0608779
-0.00479424
0.0640025
-0.00637057
0.0674205
-0.0080747
0.0712531
0.0755962
-0.00988486
0.000325561
0.0125574
0.000580249
0.0318468
0.000385855
0.0454899
-0.000289447
0.0537673
-0.00130897
0.0586365
-0.00253028
0.0620992
-0.00387995
0.0653522
-0.00534216
0.0688827
-0.006927
0.0728379
0.0772868
-0.00861759
0.000390268
0.0121671
0.000796239
0.0314409
0.000782704
0.0455035
0.000273842
0.0542762
-0.000605323
0.0595156
-0.00170336
0.0631973
-0.00293726
0.0665861
-0.00428257
0.070228
-0.00574526
0.0743006
0.0788513
-0.00730978
0.000451551
0.0117156
0.00101041
0.030882
0.00118368
0.0453302
0.00084838
0.0546115
0.00011742
0.0602466
-0.000852156
0.0641668
-0.00196692
0.0677009
-0.00319244
0.0714535
-0.00453091
0.0756391
0.0802856
-0.0059652
0.000508491
0.0112071
0.00121973
0.0301708
0.00158538
0.0449645
0.00143436
0.0547625
0.000859019
0.0608219
1.51595e-05
0.0650107
-0.000970266
0.0686863
-0.00207274
0.072556
-0.00328525
0.0768516
0.0815874
-0.00458702
0.000560102
0.010647
0.00142131
0.0293096
0.00198489
0.044401
0.00202748
0.0547199
0.00161792
0.0612315
0.000918676
0.0657099
4.49615e-05
0.06956
-0.000925741
0.0735267
-0.00200868
0.0779345
0.0827565
-0.00317777
0.000605483
0.0100415
0.00161238
0.0283027
0.00237843
0.0436349
0.00262437
0.054474
0.00238999
0.0614659
0.00183691
0.066263
0.0011014
0.0702955
0.000244945
0.0743832
-0.000696034
0.0788755
0.0838046
-0.00174422
0.000643831
0.00939768
0.00179005
0.0271564
0.00276163
0.0426633
0.00322087
0.0540147
0.00317238
0.0615144
0.00277361
0.0666618
0.00217268
0.0708964
0.00145236
0.0751035
0.000636685
0.0796912
0.0847493
-0.000307972
0.000674448
0.00872324
0.00195131
0.0258796
0.00312965
0.041485
0.00381204
0.0533323
0.00396132
0.0613651
0.00372594
0.0668972
0.00326518
0.0713572
0.00267602
0.0756926
0.00199421
0.080373
0.0855154
0.0012281
0.00069676
0.00802648
0.00209294
0.0244834
0.00347717
0.0401008
0.00439211
0.0524174
0.00475207
0.0610051
0.00469063
0.0669586
0.00437668
0.0716712
0.00392332
0.076146
0.0033823
0.080914
0.0861288
0.00276892
0.000710376
0.0073161
0.00221187
0.0229819
0.00379838
0.0385142
0.0049544
0.0512614
0.00553888
0.0604206
0.00566363
0.0668339
0.00550437
0.0718304
0.00519129
0.0764591
0.00478957
0.0813157
0.0865979
0.00432044
0.000715113
0.00660099
0.00230534
0.0213917
0.00408711
0.0367325
0.00549121
0.0498573
0.00631475
0.0595971
0.00663979
0.0665088
0.00664449
0.0718257
0.0064759
0.0766277
0.00621376
0.0815779
0.0869245
0.0058872
0.000711
0.00588999
0.00237093
0.0197318
0.00433685
0.0347666
0.00599382
0.0482003
0.00707133
0.0585196
0.00761266
0.0659675
0.00779256
0.0716458
0.00777387
0.0766464
0.00765322
0.0816985
0.0871087
0.007469
0.000698287
0.0051917
0.00240675
0.0180233
0.00454105
0.0326323
0.0064525
0.0462889
0.00779875
0.0571733
0.00857435
0.0651919
0.00894325
0.0712769
0.00908193
0.0765077
0.00910585
0.0816746
0.0871501
0.00906448
0.000677455
0.00451425
0.00241162
0.0162891
0.00469339
0.0303505
0.00685667
0.0441256
0.00848549
0.0555445
0.00951521
0.0641622
0.0100899
0.0707022
0.010396
0.0762016
0.0105689
0.0815016
0.0870473
0.0106718
0.00064921
0.00386504
0.00238528
0.0145531
0.00478819
0.0279476
0.00719512
0.0417186
0.0091183
0.0536213
0.0104235
0.062857
0.0112241
0.0699017
0.0117106
0.0757151
0.012039
0.0811732
0.0867979
0.0122884
0.000614467
0.00325057
0.00232849
0.012839
0.00482094
0.0254551
0.00745643
0.0390832
0.00968226
0.0513955
0.0112852
0.061254
0.012335
0.0688519
0.0130188
0.0750313
0.0135116
0.0806804
0.086398
0.0139115
0.000574308
0.00267626
0.00224311
0.0111702
0.00478885
0.0229094
0.00762956
0.0362424
0.010161
0.0488641
0.0120834
0.0593316
0.0134093
0.067526
0.0143116
0.0741291
0.0149811
0.0800109
0.0858418
0.0155373
0.000529943
0.00214632
0.00213208
0.00956809
0.00469137
0.0203501
0.00770472
0.0332291
0.010537
0.0460318
0.0127987
0.0570699
0.0144302
0.0658944
0.015577
0.0729822
0.01644
0.0791479
0.085121
0.0171609
0.000482649
0.00166367
0.00199926
0.00805147
0.00453069
0.0178187
0.00767438
0.0300854
0.0107926
0.0429136
0.0134089
0.0544536
0.0153773
0.063926
0.0168
0.0715596
0.0178786
0.0780693
0.0842236
0.018776
0.00043371
0.00122996
0.00184923
0.00663595
0.00431188
0.015356
0.00753449
0.0268628
0.0109111
0.0395369
0.0138896
0.0514751
0.016226
0.0615896
0.0179608
0.0698248
0.0192836
0.0767465
0.0831326
0.0203746
0.000384359
0.000845602
0.00168698
0.00533334
0.00404279
0.0130002
0.00728573
0.0236198
0.0108782
0.0359444
0.0142151
0.0481382
0.0169475
0.0588572
0.0190347
0.0677376
0.0206375
0.0751437
0.0818242
0.0219458
0.000335724
0.000509878
0.0015176
0.00415146
0.00373361
0.0107842
0.0069344
0.0204191
0.0106845
0.0321944
0.01436
0.0444627
0.0175091
0.0557082
0.0199911
0.0652556
0.0219169
0.0732179
0.0802661
0.023475
0.000288795
0.000221083
0.00134602
0.00309423
0.00339602
0.0087342
0.00649272
0.0173224
0.0103273
0.0283598
0.0143017
0.0404883
0.0178754
0.0521344
0.0207929
0.0623381
0.0230916
0.0709192
0.0784159
0.0249418
0.000244391
-2.33073e-05
0.00117672
0.0021619
0.00304232
0.0068686
0.00597836
0.0143863
0.00981339
0.0245248
0.0140234
0.0362783
0.0180105
0.0481473
0.0213972
0.0589514
0.0241228
0.0681936
0.07622
0.0263187
0.000203162
-0.000226469
0.00101357
0.0013515
0.00268438
0.00519779
0.00541287
0.0116578
0.0091599
0.0207778
0.0135186
0.0319196
0.0178813
0.0437846
0.0217563
0.0550764
0.0249626
0.0649873
0.0736136
0.027569
0.000165576
-0.000392045
0.000859752
0.000657321
0.00233294
0.00372459
0.00481963
0.00917114
0.00839409
0.0172033
0.0127948
0.0275189
0.0174629
0.0391165
0.0218208
0.0507185
0.0255538
0.0612543
0.0705228
0.0286446
0.000131952
-0.000523998
0.000717702
7.1571e-05
0.00199703
0.00244527
0.00422145
0.00694672
0.00755104