/*--------------------------------*- C++ -*----------------------------------*\
  =========                 |
  \\      /  F ield         | OpenFOAM: The Open Source CFD Toolbox
   \\    /   O peration     | Website:  https://openfoam.org
    \\  /    A nd           | Version:  7
     \\/     M anipulation  |
\*---------------------------------------------------------------------------*/
FoamFile
{
    version     2.0;
    format      ascii;
    class       volVectorField;
    location    "30";
    object      U;
}
// * * * * * * * * * * * * * * * * * * * * * * * * * * * * * * * * * * * * * //

dimensions      [0 1 -1 0 0 0 0];

internalField   nonuniform List<vector> 
2125
(
(1.09281 -0.0943221 -7.40184e-21)
(0.957773 -0.0568068 -2.0391e-20)
(1.05674 -0.0732766 -3.69889e-21)
(0.798982 -0.0180445 1.35466e-20)
(0.914309 -0.0391234 -1.59026e-21)
(1.01733 -0.0535852 1.7841e-20)
(0.511853 0.0273315 3.47332e-20)
(0.631711 0.0128676 -7.53243e-20)
(0.751845 -0.00452562 1.59032e-20)
(0.868475 -0.0234676 -1.27327e-20)
(0.974844 -0.0356058 -1.89682e-20)
(0.359358 0.0405452 6.86536e-21)
(0.469647 0.0331332 -5.88532e-20)
(0.585437 0.0214452 4.11644e-20)
(0.703535 0.00666042 -3.30125e-20)
(0.820624 -0.0100651 3.41132e-20)
(0.929594 -0.0197183 -1.36203e-21)
(0.228945 0.0420933 -9.48892e-23)
(0.323885 0.0418885 2.33533e-20)
(0.428104 0.0368879 1.37948e-21)
(0.539184 0.0277685 -3.28653e-20)
(0.654426 0.0154578 -7.69609e-22)
(0.771104 0.00089421 -1.486e-20)
(0.881906 -0.00632075 1.83893e-20)
(0.125816 0.0344142 4.1869e-21)
(0.201894 0.0402024 1.21396e-20)
(0.289711 0.0416391 -2.09517e-20)
(0.387514 0.0387503 5.01783e-20)
(0.493287 0.0319418 -1.34026e-22)
(0.604863 0.0218793 -4.17912e-21)
(0.720228 0.00927583 -2.84244e-20)
(0.832102 0.00417565 -4.45769e-21)
(0.107639 0.0308658 3.12973e-21)
(0.176373 0.0372461 -8.62063e-21)
(0.257033 0.0400013 -1.02945e-20)
(0.348136 0.0389215 -6.78391e-21)
(0.448047 0.0341373 -4.87767e-21)
(0.555146 0.0260272 6.53537e-21)
(0.668229 0.0150356 2.71435e-20)
(0.780444 0.0113641 2.11912e-20)
(0.0423772 0.0177357 1.71171e-20)
(0.0908646 0.026744 -4.07365e-20)
(0.152487 0.0334255 2.35094e-20)
(0.226016 0.0372038 2.06036e-20)
(0.310201 0.0376465 -5.36186e-20)
(0.403735 0.0346016 1.49389e-20)
(0.505518 0.0281178 -7.03479e-22)
(0.615212 0.0182699 1.12292e-20)
(0.727044 0.0148829 -2.32581e-20)
(0.006789 0.00370133 4.55377e-20)
(0.0335248 0.0140335 -1.34427e-20)
(0.0755263 0.0222111 1.96877e-20)
(0.130317 0.0289475 1.26312e-20)
(0.196805 0.0334919 -7.45824e-21)
(0.27392 0.0352077 1.73795e-20)
(0.360609 0.0336585 -7.0788e-21)
(0.456176 0.0285126 4.15123e-20)
(0.561056 0.0192708 -6.82007e-20)
(0.671623 0.0143833 -2.42814e-20)
(0.00428836 0.00209574 -1.32898e-20)
(0.0256631 0.0102382 5.25906e-20)
(0.0616415 0.0174254 -4.27665e-20)
(0.109923 0.0240172 -1.45566e-21)
(0.169527 0.0291155 -2.07717e-20)
(0.239505 0.0319117 2.30578e-20)
(0.318951 0.0317087 2.51407e-20)
(0.407337 0.0277852 -1.26335e-20)
(0.505398 0.018733 1.16468e-20)
(0.612846 0.00949765 1.46086e-20)
(0.00215819 0.000522724 2.45917e-21)
(0.0187755 0.00644818 -1.45748e-20)
(0.0492096 0.0125364 1.82429e-20)
(0.0913461 0.0188287 -1.77099e-20)
(0.144295 0.0243133 -2.17411e-20)
(0.207181 0.0280585 -9.75332e-21)
(0.279141 0.0291907 -3.7535e-20)
(0.359462 0.026778 2.34084e-20)
(0.448205 0.0185548 4.36753e-20)
(0.548222 0.00252136 -1.19794e-20)
(0.000383152 -0.000984038 7.93464e-21)
(0.0128338 0.00275342 6.42135e-21)
(0.0382124 0.00767992 -1.62341e-21)
(0.0746041 0.0135563 -3.01077e-20)
(0.1212 0.0192909 3.195e-20)
(0.177184 0.023887 3.6207e-20)
(0.241687 0.0264185 1.26852e-20)
(0.313601 0.0261361 -2.44828e-21)
(0.39147 0.0215645 -4.43519e-20)
(0.477762 0.00563247 1.51576e-20)
(-0.00105625 -0.00239491 -2.41492e-20)
(0.00779815 -0.000766499 -3.54407e-21)
(0.0286125 0.00297549 7.23291e-21)
(0.059687 0.00834858 2.38934e-21)
(0.1003 0.0142089 9.3608e-21)
(0.149704 0.0195339 -5.77032e-20)
(0.207087 0.0234044 3.48786e-20)
(0.271276 0.0252312 -4.1602e-20)
(0.340818 0.024308 3.08652e-20)
(0.421536 0.0119375 3.46374e-20)
(-0.00218342 -0.00368477 1.0601e-20)
(0.00361774 -0.00404306 -7.34102e-21)
(0.0203523 -0.00147419 3.41741e-21)
(0.0465519 0.00333109 -1.57302e-20)
(0.0815912 0.00919445 2.00153e-21)
(0.124814 0.0150802 -4.07592e-21)
(0.175522 0.020073 -2.17246e-20)
(0.232676 0.0235782 1.17271e-20)
(0.295092 0.0250228 2.17437e-20)
(0.369564 0.0155044 -3.22441e-20)
(-0.00302503 -0.0048331 -1.3972e-20)
(0.000231772 -0.00701873 -2.22023e-20)
(0.0133558 -0.00558182 1.81318e-20)
(0.0351233 -0.00138892 1.82614e-20)
(0.0650149 0.00435804 -4.53763e-20)
(0.102479 0.0106089 4.57208e-20)
(0.146943 0.0164284 -5.16097e-20)
(0.197527 0.0211119 1.44017e-20)
(0.253211 0.0238441 -1.56272e-20)
(0.320546 0.0161215 -2.36175e-20)
(-0.00361014 -0.00582371 7.30555e-21)
(-0.00242844 -0.00964636 1.77353e-20)
(0.00753144 -0.00927401 4.37036e-21)
(0.0252992 -0.00571829 5.17158e-21)
(0.0504676 -0.000196729 1.06316e-22)
(0.082594 0.00622264 7.8402e-21)
(0.121227 0.0125684 1.59456e-20)
(0.165624 0.0180004 2.9764e-20)
(0.214889 0.0214255 -2.98319e-20)
(0.274933 0.0151275 1.02562e-20)
(-0.00396924 -0.00664443 -1.6782e-20)
(-0.0044371 -0.0118885 1.81728e-22)
(0.00277609 -0.01249 5.83675e-21)
(0.0169582 -0.00957624 -1.12375e-20)
(0.0378166 -0.0043722 2.2755e-20)
(0.0650177 0.00203702 -5.4388e-20)
(0.098219 0.00864047 2.95236e-20)
(0.136795 0.0144811 -2.7332e-20)
(0.179957 0.018279 5.29076e-20)
(0.232839 0.0133188 1.3658e-20)
(-0.00413333 -0.00728657 9.15546e-21)
(-0.00587158 -0.0137169 -1.93623e-20)
(-0.00102055 -0.0151813 -6.23182e-21)
(0.00996611 -0.0128942 9.09292e-21)
(0.0269106 -0.00807884 1.57311e-20)
(0.0495844 -0.00183115 2.75179e-21)
(0.0777414 0.00480707 -9.90681e-21)
(0.110854 0.0107972 2.2974e-20)
(0.14823 0.0147762 -1.29841e-20)
(0.194208 0.011089 -1.25055e-21)
(-0.00413323 -0.00774463 2.36783e-20)
(-0.00681026 -0.0151114 7.1619e-21)
(-0.00397224 -0.0173111 1.35748e-21)
(0.00418242 -0.0156167 -1.99033e-20)
(0.0175886 -0.0112385 1.82454e-20)
(0.0361174 -0.00527276 6.24848e-21)
(0.0596076 0.00122429 3.12689e-21)
(0.0876166 0.00717353 -7.20099e-21)
(0.119535 0.0112139 7.92261e-21)
(0.158962 0.00870214 1.36783e-20)
(-0.00399901 -0.00801597 -1.73757e-20)
(-0.00733071 -0.0160601 1.03558e-20)
(-0.00619288 -0.0188542 -1.24936e-21)
(-0.000534757 -0.0177018 2.84318e-20)
(0.0096873 -0.0137874 -3.2078e-20)
(0.0244381 -0.00819377 1.08116e-20)
(0.0436315 -0.00197114 -6.91719e-21)
(0.0669008 0.00379975 -6.13808e-21)
(0.0937134 0.00782206 -1.87948e-20)
(0.127009 0.00635617 7.33799e-21)
(-0.00375952 -0.00810048 7.49007e-21)
(-0.00750841 -0.0165593 -2.04411e-20)
(-0.00779375 -0.0197976 -1.20109e-20)
(-0.00432444 -0.0191226 -1.94106e-20)
(0.00304693 -0.0156792 5.37861e-21)
(0.0143726 -0.0105206 -1.88697e-21)
(0.0296343 -0.0046701 -1.74926e-20)
(0.0485354 0.000822903 -3.71434e-21)
(0.0706151 0.0047659 -3.46336e-22)
(0.0982406 0.0041905 8.39216e-21)
(-0.00344246 -0.00800068 1.30002e-20)
(-0.00741559 -0.0166124 1.4751e-21)
(-0.00888137 -0.0201401 6.37392e-21)
(-0.00731961 -0.0198679 2.90936e-20)
(-0.00248484 -0.0168864 2.97495e-20)
(0.00575632 -0.0122031 -5.45019e-21)
(0.0174475 -0.00679493 1.40473e-20)
(0.0323592 -0.00165381 -8.96751e-21)
(0.0500964 0.00215451 -5.38225e-21)
(0.0725384 0.00229687 -1.25483e-20)
(-0.00307392 -0.00772195 -1.65999e-20)
(-0.0071203 -0.0162308 1.52497e-20)
(-0.00955598 -0.0198927 8.08114e-21)
(-0.00964487 -0.0199422 -1.64822e-20)
(-0.00705002 -0.0174015 -1.91948e-20)
(-0.00156319 -0.0132163 6.26384e-21)
(0.00691634 -0.00829989 5.4597e-22)
(0.0182236 -0.00356815 2.83744e-20)
(0.0320217 5.09279e-05 1.72744e-20)
(0.0497807 0.00073025 -6.93915e-21)
(-0.00267826 -0.0072723 9.0223e-21)
(-0.0066859 -0.0154334 -4.40514e-21)
(-0.00991032 -0.0190781 -1.64679e-20)
(-0.0114148 -0.019366 7.23549e-21)
(-0.0107783 -0.0172366 -2.46339e-22)
(-0.00772414 -0.0135595 -2.56513e-20)
(-0.00209924 -0.00916925 -1.54623e-21)
(0.00599409 -0.00489327 -2.61219e-20)
(0.0162652 -0.00152203 -1.18749e-20)
(0.0298537 -0.0004849 1.99771e-20)
(-0.00227803 -0.00666259 -1.09439e-20)
(-0.0061705 -0.0142469 -1.0316e-21)
(-0.0100287 -0.0177308 -7.67381e-22)
(-0.0127329 -0.0181749 -1.54882e-20)
(-0.0137857 -0.016423 2.44991e-21)
(-0.0128494 -0.0132549 1.57041e-20)
(-0.00972277 -0.00941431 -8.39417e-21)
(-0.00444945 -0.00562883 1.4035e-20)
(0.0027112 -0.00257561 6.47999e-21)
(0.012662 -0.00133265 -7.1653e-21)
(-0.00189378 -0.00590658 6.90334e-21)
(-0.00562641 -0.0127053 1.4612e-20)
(-0.00998621 -0.0158962 -3.43034e-21)
(-0.0136904 -0.0164189 7.45888e-21)
(-0.0161744 -0.0150093 5.17038e-21)
(-0.0170458 -0.0123464 -1.30977e-20)
(-0.0160601 -0.00907286 3.37224e-21)
(-0.0132163 -0.00580882 -3.69755e-21)
(-0.00873075 -0.00312155 4.76281e-21)
(-0.00187428 -0.00175568 -9.69832e-21)
(-0.00154382 -0.00502087 -2.19023e-21)
(-0.00509968 -0.0108495 -9.47135e-21)
(-0.00984841 -0.0136301 1.393e-20)
(-0.0143665 -0.0141612 -7.36588e-21)
(-0.0180318 -0.0130602 3.57778e-21)
(-0.020405 -0.0108957 1.10649e-20)
(-0.0212047 -0.00820259 -9.70885e-21)
(-0.0203882 -0.00549208 -2.41768e-21)
(-0.0181081 -0.00321293 2.92906e-22)
(-0.0139256 -0.00185282 1.14999e-20)
(-0.00124395 -0.00402479 -6.70528e-22)
(-0.00462964 -0.00872683 -2.85472e-21)
(-0.00967061 -0.0109973 -1.23203e-20)
(-0.0148275 -0.0114765 2.52429e-21)
(-0.0194306 -0.010654 2.17157e-21)
(-0.0230028 -0.00898038 -9.08377e-22)
(-0.025232 -0.00687707 -2.56283e-22)
(-0.0260394 -0.00474384 -3.91561e-21)
(-0.0255316 -0.00292263 5.59095e-21)
(-0.02351 -0.00175558 3.81853e-21)
(-0.00100723 -0.00294005 1.73729e-21)
(-0.00424838 -0.00639037 3.46404e-21)
(-0.0094976 -0.00807078 9.30611e-21)
(-0.0151264 -0.00844908 -5.03469e-21)
(-0.0204291 -0.00788031 -4.52545e-21)
(-0.0248992 -0.00669053 -1.81228e-22)
(-0.0282013 -0.00518368 9.23549e-21)
(-0.0302288 -0.0036463 4.47577e-21)
(-0.0310587 -0.00231982 -3.9217e-21)
(-0.030651 -0.00143441 -4.52174e-21)
(-0.000843717 -0.00179043 -2.87516e-22)
(-0.0039804 -0.0038977 7.01032e-22)
(-0.00936329 -0.00492965 -1.75805e-21)
(-0.0153035 -0.00517123 1.31455e-21)
(-0.0210707 -0.0048376 1.21743e-21)
(-0.0261388 -0.0041261 9.00495e-22)
(-0.0301566 -0.00322026 -1.86572e-21)
(-0.0329986 -0.00229229 -7.7664e-21)
(-0.0347239 -0.00148575 -1.22873e-21)
(-0.0353887 -0.000933116 2.40656e-21)
(-0.0153853 -0.00174082 1.07336e-21)
(-0.0213842 -0.0016309 -1.13423e-21)
(-0.0267512 -0.00139414 -5.58984e-22)
(-0.031127 -0.00109191 6.07823e-22)
(-0.0343765 -0.000781648 3.0636e-21)
(-0.0365505 -0.000510959 -1.09792e-21)
(-0.037751 -0.000323042 1.12513e-21)
(1.15517 -0.00453017 5.38271e-23)
(1.15686 -0.00449509 -1.3141e-22)
(1.15853 -0.00445901 1.11132e-22)
(1.16017 -0.00442182 -3.41841e-23)
(1.16179 -0.0043834 -5.05885e-23)
(1.16338 -0.00434357 1.11917e-23)
(1.16495 -0.00430209 2.08117e-23)
(1.16649 -0.00425849 1.17389e-23)
(1.168 -0.00421183 -2.27372e-24)
(1.16949 -0.00416003 -2.0663e-24)
(1.17095 -0.0040984 2.50429e-24)
(1.15655 -0.0133441 3.91635e-23)
(1.15827 -0.013235 3.22578e-24)
(1.15997 -0.0131249 -2.62352e-23)
(1.16164 -0.0130135 -3.74022e-23)
(1.16328 -0.0129007 6.05799e-24)
(1.1649 -0.0127861 1.0607e-23)
(1.1665 -0.012669 2.99621e-24)
(1.16806 -0.0125479 -6.23358e-24)
(1.1696 -0.01242 2.85775e-24)
(1.17111 -0.0122781 -2.37336e-24)
(1.17258 -0.0121066 -7.92577e-24)
(1.15904 -0.0218994 5.68713e-23)
(1.16082 -0.0217179 -1.26661e-23)
(1.16257 -0.0215351 -1.12677e-23)
(1.16431 -0.0213507 -5.98271e-23)
(1.16601 -0.0211644 5.83723e-23)
(1.16769 -0.0209755 -1.48236e-23)
(1.16935 -0.0207829 -6.91516e-24)
(1.17097 -0.0205842 2.17983e-24)
(1.17257 -0.0203743 -7.16228e-24)
(1.17414 -0.0201414 -2.30989e-24)
(1.17567 -0.0198583 1.19305e-24)
(1.1625 -0.0302574 -5.27622e-23)
(1.16437 -0.0299993 2.89797e-23)
(1.16621 -0.0297399 -4.13468e-23)
(1.16803 -0.0294787 2.37633e-23)
(1.16983 -0.0292154 -3.60345e-25)
(1.1716 -0.0289491 -6.78543e-25)
(1.17334 -0.0286783 1.40799e-24)
(1.17505 -0.0283997 2.61205e-24)
(1.17673 -0.0281059 1.50419e-23)
(1.17839 -0.0277798 -2.03025e-23)
(1.18002 -0.0273827 2.92369e-23)
(1.16682 -0.0384938 -2.72023e-23)
(1.1688 -0.0381549 2.45615e-23)
(1.17076 -0.0378145 3.09327e-24)
(1.17269 -0.0374723 1.2699e-23)
(1.1746 -0.0371277 5.51489e-24)
(1.17648 -0.0367798 1.12406e-23)
(1.17833 -0.0364265 -1.86421e-24)
(1.18016 -0.0360635 3.03022e-23)
(1.18196 -0.0356812 -1.45911e-24)
(1.18373 -0.0352569 1.00167e-22)
(1.18547 -0.0347392 -5.58575e-23)
(1.17191 -0.0466595 -5.20646e-24)
(1.17402 -0.046233 -5.51524e-25)
(1.17611 -0.0458049 -1.17812e-23)
(1.17817 -0.0453748 -2.50147e-23)
(1.18021 -0.044942 9.8177e-24)
(1.18223 -0.0445056 -3.97683e-23)
(1.18422 -0.044063 2.66074e-23)
(1.18619 -0.0436088 1.30051e-22)
(1.18812 -0.0431309 -2.29677e-24)
(1.19004 -0.0426007 -1.27165e-22)
(1.19192 -0.0419529 -5.76594e-23)
(1.17767 -0.0547968 -2.59228e-23)
(1.17993 -0.0542745 -1.79426e-23)
(1.18217 -0.0537502 4.17897e-23)
(1.18439 -0.0532236 2.95139e-23)
(1.18659 -0.052694 8.58345e-24)
(1.18876 -0.0521602 3.4675e-23)
(1.19091 -0.0516193 -1.18817e-22)
(1.19303 -0.0510648 -2.06753e-22)
(1.19513 -0.0504818 -1.0785e-22)
(1.1972 -0.0498353 -5.75754e-24)
(1.19925 -0.0490444 1.89305e-23)
(1.18403 -0.0629389 3.38718e-23)
(1.18646 -0.0623104 3.88807e-23)
(1.18888 -0.0616794 7.63138e-23)
(1.19127 -0.0610454 -1.23146e-22)
(1.19364 -0.060408 1.77022e-22)
(1.19599 -0.0597655 -5.35555e-23)
(1.19832 -0.0591147 1.70465e-22)
(1.20062 -0.058448 -1.21698e-22)
(1.20289 -0.0577475 1.9667e-22)
(1.20515 -0.0569712 2.88835e-22)
(1.20738 -0.0560209 1.2521e-22)
(1.19094 -0.0711112 5.67895e-23)
(1.19356 -0.0703642 1.75969e-23)
(1.19617 -0.0696137 -2.07323e-22)
(1.19876 -0.0688594 8.9529e-23)
(1.20132 -0.0681005 -4.22688e-24)
(1.20386 -0.0673353 -2.94802e-23)
(1.20638 -0.0665602 1.7368e-22)
(1.20887 -0.0657662 -2.83766e-23)
(1.21134 -0.0649323 -2.2747e-22)
(1.21379 -0.064009 -4.85376e-22)
(1.21622 -0.062879 5.98486e-23)
(1.19835 -0.0793332 -9.89796e-23)
(1.20118 -0.0784531 4.64121e-23)
(1.20399 -0.0775679 3.47963e-22)
(1.20679 -0.0766774 2.58804e-22)
(1.20956 -0.0757805 -2.69996e-22)
(1.21231 -0.0748754 -1.55315e-22)
(1.21504 -0.0739577 -1.63455e-22)
(1.21774 -0.0730172 9.87177e-23)
(1.22041 -0.0720295 1.82242e-22)
(1.22307 -0.0709369 2.83786e-22)
(1.2257 -0.0696014 -1.06223e-22)
(1.20621 -0.0876184 2.61473e-23)
(1.20927 -0.0865879 -4.32767e-22)
(1.21231 -0.0855501 2.28422e-23)
(1.21533 -0.0845043 -3.58216e-22)
(1.21832 -0.0834493 2.67094e-22)
(1.2213 -0.0823826 3.82936e-22)
(1.22424 -0.0812991 -6.73931e-23)
(1.22716 -0.0801869 -3.25854e-22)
(1.23005 -0.0790182 -1.78439e-22)
(1.23291 -0.0777266 1.99257e-22)
(1.23576 -0.0761528 -2.0182e-22)
(1.21118 -0.0971656 2.14354e-22)
(1.2145 -0.0959746 3.03369e-22)
(1.2178 -0.0947735 -5.28588e-23)
(1.22108 -0.0935614 -5.86227e-22)
(1.22434 -0.0923371 -3.65237e-22)
(1.22757 -0.0910985 -2.82225e-22)
(1.23077 -0.0898424 5.4377e-22)
(1.23395 -0.0885623 7.50734e-22)
(1.23708 -0.0872445 2.73767e-22)
(1.24018 -0.0858573 1.44402e-23)
(1.24324 -0.084326 -3.74516e-22)
(1.24628 -0.08247 8.77789e-22)
(1.21961 -0.105783 -1.19696e-22)
(1.22319 -0.104402 -6.43114e-22)
(1.22674 -0.103006 6.1196e-23)
(1.23027 -0.101593 2.59096e-22)
(1.23378 -0.100161 2.45545e-22)
(1.23725 -0.0987055 -3.80604e-22)
(1.24068 -0.0972229 -7.23602e-22)
(1.24407 -0.0957043 -1.2108e-22)
(1.24742 -0.0941334 3.9332e-22)
(1.2507 -0.0924747 8.22928e-22)
(1.25392 -0.0906459 -2.67004e-22)
(1.2571 -0.0884486 -1.23811e-21)
(1.2284 -0.114491 4.52649e-22)
(1.23224 -0.112892 1.23339e-22)
(1.23606 -0.11127 2.58519e-22)
(1.23985 -0.109621 -6.00545e-23)
(1.24359 -0.107942 -4.22938e-22)
(1.24729 -0.106226 2.70114e-23)
(1.25094 -0.104465 -1.38647e-22)
(1.25452 -0.102649 -7.18954e-22)
(1.25803 -0.100758 -1.32094e-21)
(1.26144 -0.0987518 -1.8164e-21)
(1.26473 -0.0965433 1.86688e-21)
(1.26794 -0.0939245 2.19592e-23)
(1.23751 -0.12327 7.42196e-22)
(1.24163 -0.121417 -2.90658e-22)
(1.2457 -0.119528 -2.84365e-22)
(1.24973 -0.117597 5.42724e-23)
(1.25369 -0.115617 4.01721e-22)
(1.25759 -0.113578 8.70531e-22)
(1.26139 -0.111469 -5.86e-22)
(1.26509 -0.109272 1.06121e-21)
(1.26867 -0.106965 -4.53164e-22)
(1.27209 -0.104504 -5.62076e-22)
(1.27531 -0.101802 -2.14304e-21)
(1.27834 -0.0986562 -5.0545e-22)
(1.2469 -0.132079 -5.57433e-22)
(1.25127 -0.129923 5.22997e-22)
(1.25558 -0.127711 9.42388e-22)
(1.2598 -0.125434 5.34938e-22)
(1.26393 -0.123079 -3.34954e-22)
(1.26793 -0.12063 -1.3557e-21)
(1.27179 -0.11807 2.20418e-21)
(1.27548 -0.115377 -5.85946e-22)
(1.27895 -0.112523 1.40903e-21)
(1.28217 -0.109464 -1.14281e-21)
(1.28505 -0.106119 1.50337e-21)
(1.28758 -0.102314 1.4881e-21)
(1.25648 -0.140843 -1.06441e-22)
(1.26106 -0.138316 -7.02462e-22)
(1.26553 -0.135703 -9.33587e-22)
(1.26986 -0.132989 2.04642e-22)
(1.27403 -0.130153 1.71725e-21)
(1.278 -0.127174 -1.03912e-21)
(1.28173 -0.124026 2.6012e-22)
(1.28516 -0.120683 -3.47787e-21)
(1.28826 -0.117112 -5.45326e-22)
(1.29095 -0.113273 2.44922e-21)
(1.2931 -0.109101 5.30242e-23)
(1.29463 -0.104487 -3.16892e-21)
(1.26611 -0.149436 2.84317e-23)
(1.27079 -0.146441 2.7364e-22)
(1.2753 -0.143317 1.03898e-21)
(1.27958 -0.140039 -8.08423e-22)
(1.2836 -0.136581 -1.86604e-21)
(1.28728 -0.132911 9.15919e-22)
(1.29058 -0.129 7.68092e-22)
(1.29341 -0.124813 5.14579e-21)
(1.29571 -0.120321 2.8661e-22)
(1.29741 -0.115491 -2.6213e-21)
(1.29828 -0.110292 4.71628e-22)
(1.29812 -0.10472 -7.76209e-22)
(1.27553 -0.157663 -1.99856e-22)
(1.28016 -0.154068 1.97831e-22)
(1.28449 -0.150281 -2.2327e-22)
(1.28847 -0.146273 1.32141e-21)
(1.29201 -0.142008 3.6395e-21)
(1.29504 -0.137449 3.83425e-21)
(1.29747 -0.132562 -5.84734e-21)
(1.2992 -0.127311 9.48995e-22)
(1.30014 -0.121674 3.20449e-21)
(1.30022 -0.11564 6.50859e-21)
(1.29909 -0.109226 -1.05681e-21)
(1.2964 -0.102581 1.63395e-21)
(1.28437 -0.165244 7.51733e-22)
(1.28868 -0.16087 5.06906e-22)
(1.29252 -0.156229 -1.74418e-21)
(1.29581 -0.151282 -1.12742e-21)
(1.29843 -0.145989 -1.39202e-21)
(1.30029 -0.140314 4.21493e-22)
(1.30127 -0.13422 3.43843e-21)
(1.30125 -0.127682 -3.02596e-21)
(1.30013 -0.120692 -1.57829e-21)
(1.29782 -0.113271 -7.04087e-21)
(1.29387 -0.10551 2.09174e-21)
(1.2877 -0.0977505 8.33083e-21)
(1.29208 -0.171805 1.52168e-21)
(1.29569 -0.166433 -4.3068e-22)
(1.29859 -0.160704 1.04972e-21)
(1.30066 -0.154579 6.09469e-22)
(1.30178 -0.148021 -4.09681e-21)
(1.30182 -0.140995 -7.65004e-21)
(1.30063 -0.133478 5.54112e-21)
(1.29809 -0.125462 4.99147e-22)
(1.29408 -0.116966 -3.26713e-21)
(1.28855 -0.10806 6.85641e-21)
(1.28091 -0.0989187 3.79874e-21)
(1.27028 -0.0901144 -2.21032e-21)
(1.2979 -0.176883 -4.16416e-22)
(1.30029 -0.170261 -9.54002e-22)
(1.30167 -0.163193 -7.12755e-22)
(1.30188 -0.155645 -1.27923e-21)
(1.30078 -0.147591 -2.65787e-21)
(1.29823 -0.139014 3.7211e-21)
(1.29407 -0.129912 -1.01365e-20)
(1.28817 -0.120306 -5.8211e-21)
(1.28044 -0.110257 3.03738e-21)
(1.27086 -0.0998906 -7.09873e-21)
(1.2587 -0.0894791 -7.64103e-21)
(1.24273 -0.0798301 -1.08188e-20)
(1.30088 -0.179963 -2.64846e-21)
(1.30142 -0.171828 1.95741e-21)
(1.30057 -0.163175 1.9092e-21)
(1.29817 -0.153988 -1.19511e-21)
(1.29407 -0.14426 1.23626e-21)
(1.28811 -0.134005 5.13374e-21)
(1.28016 -0.123255 1.4881e-20)
(1.27008 -0.112073 1.25379e-20)
(1.25785 -0.100568 -8.29346e-21)
(1.24349 -0.0889275 5.93391e-21)
(1.22615 -0.0775127 1.08829e-21)
(1.2042 -0.0673446 7.79428e-21)
(1.29991 -0.180523 9.92024e-22)
(1.29786 -0.170639 -4.45748e-21)
(1.29402 -0.160204 -7.57337e-21)
(1.28822 -0.149228 -5.18349e-21)
(1.28031 -0.137741 1.38813e-20)
(1.27015 -0.125796 -6.14248e-21)
(1.25765 -0.113474 -1.18936e-20)
(1.2427 -0.100885 -7.2569e-21)
(1.22533 -0.0881918 3.14129e-21)
(1.20569 -0.0756323 1.65888e-21)
(1.18274 -0.0636299 -6.97525e-21)
(1.15447 -0.0533547 -7.15198e-21)
(1.29377 -0.178099 2.67962e-22)
(1.28838 -0.166294 9.35565e-22)
(1.28078 -0.153962 4.58562e-21)
(1.27082 -0.141156 -2.66541e-22)
(1.25837 -0.127953 -4.88359e-21)
(1.24335 -0.114457 -8.33505e-21)
(1.22569 -0.100801 2.0704e-21)
(1.20536 -0.0871508 -1.24828e-22)
(1.18249 -0.0737115 8.00751e-21)
(1.15731 -0.0607483 2.95575e-21)
(1.12863 -0.0486877 8.67018e-21)
(1.09406 -0.0387348 5.30679e-22)
(1.28132 -0.172352 3.09981e-21)
(1.27187 -0.158543 1.78991e-22)
(1.25981 -0.14431 1.27465e-20)
(1.24503 -0.129758 1.03454e-20)
(1.22746 -0.115018 -9.20408e-21)
(1.20707 -0.100257 3.77416e-21)
(1.18387 -0.085668 -3.24134e-21)
(1.15792 -0.0714672 2.997e-21)
(1.12944 -0.0578895 -4.23625e-21)
(1.09878 -0.0451825 4.1111e-21)
(1.0646 -0.0336778 -1.01775e-20)
(1.02406 -0.0244299 1.30243e-20)
(1.26164 -0.163191 -6.30236e-21)
(1.24751 -0.147417 4.68091e-21)
(1.23044 -0.131408 -1.07362e-20)
(1.21037 -0.115324 4.64158e-21)
(1.18729 -0.0993613 1.72106e-20)
(1.16125 -0.0837487 4.34859e-21)
(1.13236 -0.0687435 7.42387e-21)
(1.10076 -0.0546121 -2.666e-21)
(1.06679 -0.0416025 4.76759e-22)
(1.03096 -0.0298952 -7.34707e-21)
(0.991741 -0.0196 1.33908e-20)
(0.945915 -0.0113428 -7.40374e-21)
(1.23408 -0.150724 1.7635e-21)
(1.21486 -0.133173 -8.65524e-21)
(1.19244 -0.115671 5.97561e-22)
(1.16686 -0.0984383 -1.54089e-20)
(1.13817 -0.081734 -9.94131e-21)
(1.10651 -0.0658523 -5.4309e-21)
(1.07207 -0.0511106 -4.74278e-23)
(1.0351 -0.0378191 -4.46849e-21)
(0.996016 -0.0262184 1.39437e-20)
(0.955449 -0.0163625 4.23615e-21)
(0.911783 -0.00796139 -9.36278e-21)
(0.861381 -0.000718851 -3.64741e-21)
(1.19816 -0.134591 5.71244e-21)
(1.17353 -0.115475 1.68504e-21)
(1.14558 -0.0967964 -6.44822e-21)
(1.11439 -0.0788433 1.14031e-20)
(1.08013 -0.0619448 -1.23135e-20)
(1.04304 -0.046465 -4.06596e-21)
(1.00342 -0.0327904 2.39016e-21)
(0.961586 -0.0212888 -1.60645e-21)
(0.918063 -0.0122124 -1.79298e-20)
(0.873594 -0.00549966 -1.69913e-20)
(0.826591 -0.000316788 6.08343e-21)
(0.772772 0.00560148 -6.30151e-21)
(1.15422 -0.115097 -1.76032e-21)
(1.12402 -0.0945521 -8.8559e-22)
(1.09038 -0.0748662 3.364e-21)
(1.0535 -0.0563908 -7.10102e-21)
(1.01361 -0.0395153 1.78059e-20)
(0.971024 -0.0246635 1.3571e-20)
(0.926106 -0.012284 -8.7532e-21)
(0.879249 -0.00281545 1.00922e-20)
(0.830981 0.00340389 1.04555e-20)
(0.782148 0.00630178 4.50397e-21)
(0.732104 0.00663564 1.82704e-21)
(0.677374 0.00857904 1.68475e-20)
(1.17329 -0.00396283 0)
(1.17647 -0.0037636 0)
(1.17964 -0.00355278 0)
(1.18276 -0.00332984 0)
(1.18582 -0.00309426 0)
(1.18878 -0.00284653 0)
(1.19163 -0.00258788 0)
(1.19432 -0.00231989 0)
(1.19683 -0.00204441 0)
(1.19913 -0.00176364 0)
(1.20117 -0.00148014 0)
(1.20294 -0.00119677 0)
(1.2044 -0.000916621 0)
(1.20553 -0.000642955 0)
(1.20629 -0.000379082 0)
(1.20668 -0.000128251 0)
(1.20667 0.000106438 0)
(1.20627 0.000322257 0)
(1.20546 0.000516724 0)
(1.20426 0.000688351 0)
(1.20268 0.000835281 0)
(1.20071 0.000958616 0)
(1.19845 0.0010556 0)
(1.19576 0.00113358 0)
(1.19302 0.001183 0)
(1.18958 0.00122729 0)
(1.18674 0.00123482 0)
(1.18219 0.0012653 0)
(1.18012 0.00124137 0)
(1.17306 0.00126956 0)
(1.17496 -0.0117118 0)
(1.17817 -0.0111251 0)
(1.18135 -0.0105016 0)
(1.18448 -0.00984032 0)
(1.18755 -0.00914018 0)
(1.19052 -0.00840319 0)
(1.19335 -0.00763345 0)
(1.19603 -0.00683597 0)
(1.19852 -0.00601657 0)
(1.20079 -0.00518198 0)
(1.2028 -0.00433993 0)
(1.20452 -0.00349904 0)
(1.20593 -0.00266857 0)
(1.20699 -0.00185819 0)
(1.2077 -0.0010777 0)
(1.20802 -0.000336694 0)
(1.20794 0.000355742 0)
(1.20746 0.000991612 0)
(1.20659 0.00156375 0)
(1.20531 0.00206777 0)
(1.20367 0.00249863 0)
(1.20164 0.00285906 0)
(1.19932 0.00314255 0)
(1.19658 0.00336792 0)
(1.1938 0.00351293 0)
(1.19032 0.00363609 0)
(1.18745 0.00366345 0)
(1.18285 0.00373888 0)
(1.18079 0.00368622 0)
(1.17368 0.00375077 0)
(1.17812 -0.0192012 0)
(1.18137 -0.0182223 0)
(1.18457 -0.0171831 0)
(1.18773 -0.0160823 0)
(1.1908 -0.014918 0)
(1.19377 -0.0136941 0)
(1.19659 -0.0124177 0)
(1.19924 -0.0110973 0)
(1.20168 -0.00974278 0)
(1.20389 -0.00836551 0)
(1.20582 -0.00697841 0)
(1.20746 -0.0055958 0)
(1.20876 -0.00423296 0)
(1.20972 -0.00290577 0)
(1.2103 -0.00163024 0)
(1.21049 -0.000421907 0)
(1.21028 0.000704586 0)
(1.20967 0.00173644 0)
(1.20866 0.00266241 0)
(1.20726 0.00347552 0)
(1.20549 0.00416847 0)
(1.20334 0.00474518 0)
(1.20092 0.0051975 0)
(1.19808 0.00555257 0)
(1.19521 0.00578211 0)
(1.19165 0.005968 0)
(1.18873 0.00601451 0)
(1.18405 0.00611615 0)
(1.18198 0.00604975 0)
(1.17477 0.00613159 0)
(1.18258 -0.0264578 0)
(1.18589 -0.0250772 0)
(1.18912 -0.0236137 0)
(1.19229 -0.0220653 0)
(1.19538 -0.02043 0)
(1.19834 -0.0187137 0)
(1.20113 -0.0169272 0)
(1.20373 -0.0150829 0)
(1.2061 -0.013195 0)
(1.20822 -0.0112798 0)
(1.21004 -0.00935551 0)
(1.21154 -0.00744233 0)
(1.2127 -0.00556153 0)
(1.2135 -0.00373502 0)
(1.2139 -0.00198468 0)
(1.21391 -0.00033164 0)
(1.21351 0.00120446 0)
(1.21271 0.0026066 0)
(1.21151 0.00386014 0)
(1.20992 0.00495616 0)
(1.20797 0.00588584 0)
(1.20565 0.00665476 0)
(1.20308 0.00725392 0)
(1.20009 0.00771877 0)
(1.19711 0.00801589 0)
(1.19341 0.00825014 0)
(1.19042 0.00830402 0)
(1.18561 0.00842508 0)
(1.18352 0.00833596 0)
(1.17616 0.00843858 0)
(1.18818 -0.0335328 0)
(1.19156 -0.0317301 0)
(1.19482 -0.0298226 0)
(1.19801 -0.0278081 0)
(1.20111 -0.0256849 0)
(1.20406 -0.0234618 0)
(1.20681 -0.0211533 0)
(1.20933 -0.0187765 0)
(1.21161 -0.0163504 0)
(1.21359 -0.0138963 0)
(1.21527 -0.0114382 0)
(1.2166 -0.00900212 0)
(1.21756 -0.00661525 0)
(1.21814 -0.00430533 0)
(1.21831 -0.00209977 0)
(1.21808 -2.47062e-05 0)
(1.21744 0.00189577 0)
(1.21639 0.00364119 0)
(1.21494 0.00519429 0)
(1.21311 0.00654503 0)
(1.21093 0.00768395 0)
(1.20839 0.00861876 0)
(1.20562 0.00934073 0)
(1.20244 0.00989336 0)
(1.19929 0.0102394 0)
(1.19542 0.010506 0)
(1.19233 0.0105539 0)
(1.18734 0.0106869 0)
(1.1852 0.010564 0)
(1.17762 0.0106933 0)
(1.19479 -0.0404468 0)
(1.19825 -0.0381947 0)
(1.20153 -0.0358171 0)
(1.20475 -0.0333116 0)
(1.20785 -0.0306775 0)
(1.21076 -0.0279269 0)
(1.21345 -0.0250795 0)
(1.21587 -0.0221571 0)
(1.21802 -0.0191838 0)
(1.21984 -0.0161868 0)
(1.22132 -0.0131958 0)
(1.22243 -0.0102428 0)
(1.22315 -0.00736066 0)
(1.22346 -0.00458274 0)
(1.22335 -0.00194157 0)
(1.22282 0.000532365 0)
(1.22188 0.00281128 0)
(1.22052 0.004872 0)
(1.21877 0.00669565 0)
(1.21664 0.00827178 0)
(1.21418 0.00959143 0)
(1.21137 0.0106648 0)
(1.20834 0.0114849 0)
(1.20491 0.0121022 0)
(1.20156 0.0124786 0)
(1.19746 0.0127599 0)
(1.19421 0.0127896 0)
(1.18898 0.0129242 0)
(1.18677 0.0127589 0)
(1.17888 0.0129176 0)
(1.20232 -0.047215 0)
(1.20585 -0.0444788 0)
(1.20915 -0.0415979 0)
(1.21238 -0.0385702 0)
(1.21546 -0.0353963 0)
(1.21832 -0.032093 0)
(1.22091 -0.0286853 0)
(1.2232 -0.0252007 0)
(1.22517 -0.0216689 0)
(1.22679 -0.018123 0)
(1.22803 -0.0145987 0)
(1.22886 -0.0111338 0)
(1.22928 -0.00776697 0)
(1.22927 -0.00453656 0)
(1.22882 -0.00147968 0)
(1.22793 0.00136951 0)
(1.22662 0.00398037 0)
(1.2249 0.00632793 0)
(1.22278 0.00839267 0)
(1.22029 0.0101645 0)
(1.21749 0.0116363 0)
(1.21433 0.0128206 0)
(1.21099 0.0137145 0)
(1.20726 0.014373 0)
(1.20363 0.0147622 0)
(1.19924 0.015039 0)
(1.19578 0.0150408 0)
(1.19023 0.0151621 0)
(1.18791 0.0149492 0)
(1.17961 0.0151338 0)
(1.21065 -0.0538393 0)
(1.21426 -0.0505779 0)
(1.21757 -0.0471546 0)
(1.22078 -0.0435681 0)
(1.22382 -0.0398212 0)
(1.22659 -0.035936 0)
(1.22905 -0.0319438 0)
(1.23117 -0.0278783 0)
(1.23292 -0.0237751 0)
(1.23428 -0.0196734 0)
(1.23521 -0.015615 0)
(1.23572 -0.0116434 0)
(1.23577 -0.00780249 0)
(1.23536 -0.00413538 0)
(1.2345 -0.000682833 0)
(1.23318 0.00251757 0)
(1.23144 0.00543355 0)
(1.22927 0.00803931 0)
(1.22672 0.0103157 0)
(1.22379 0.0122537 0)
(1.22056 0.0138493 0)
(1.217 0.0151171 0)
(1.21327 0.016061 0)
(1.20915 0.0167367 0)
(1.20517 0.0171226 0)
(1.20041 0.0173732 0)
(1.19666 0.0173402 0)
(1.19072 0.017427 0)
(1.18824 0.017166 0)
(1.17942 0.0173629 0)
(1.21973 -0.0603111 0)
(1.22339 -0.0564764 0)
(1.22667 -0.0524659 0)
(1.22984 -0.0482792 0)
(1.23281 -0.0439219 0)
(1.23546 -0.0394227 0)
(1.23773 -0.0348198 0)
(1.23961 -0.0301532 0)
(1.24108 -0.0254649 0)
(1.24211 -0.0208002 0)
(1.24268 -0.0162069 0)
(1.24276 -0.011734 0)
(1.24237 -0.0074302 0)
(1.24149 -0.00334264 0)
(1.24012 0.000484757 0)
(1.2383 0.00401219 0)
(1.23602 0.0072064 0)
(1.23332 0.0100416 0)
(1.23024 0.0125001 0)
(1.22679 0.0145746 0)
(1.22305 0.0162656 0)
(1.21898 0.0175893 0)
(1.21477 0.0185595 0)
(1.21017 0.0192273 0)
(1.20576 0.0195941 0)
(1.20054 0.0197932 0)
(1.19644 0.0197211 0)
(1.19002 0.0197438 0)
(1.18731 0.0194397 0)
(1.17789 0.019621 0)
(1.22945 -0.0666074 0)
(1.23315 -0.0621446 0)
(1.23637 -0.0574964 0)
(1.23945 -0.0526635 0)
(1.24229 -0.047655 0)
(1.24475 -0.0425072 0)
(1.24677 -0.0372657 0)
(1.24834 -0.0319771 0)
(1.24944 -0.0266897 0)
(1.25005 -0.0214548 0)
(1.25015 -0.0163262 0)
(1.24973 -0.0113578 0)
(1.24879 -0.00660287 0)
(1.24732 -0.00211185 0)
(1.24535 0.00206869 0)
(1.2429 0.00589803 0)
(1.23999 0.00934257 0)
(1.23665 0.0123774 0)
(1.23293 0.0149873 0)
(1.22885 0.0171674 0)
(1.22449 0.0189242 0)
(1.21982 0.0202743 0)
(1.21502 0.0212456 0)
(1.20986 0.0218781 0)
(1.20492 0.0222091 0)
(1.19917 0.022327 0)
(1.19461 0.0222129 0)
(1.18764 0.0221314 0)
(1.18466 0.0217953 0)
(1.17456 0.0219161 0)
(1.23974 -0.0726864 0)
(1.24342 -0.0675338 0)
(1.24652 -0.0621918 0)
(1.24945 -0.0566619 0)
(1.25208 -0.0509582 0)
(1.25426 -0.0451251 0)
(1.25594 -0.039216 0)
(1.25709 -0.0332839 0)
(1.25772 -0.0273833 0)
(1.25779 -0.0215717 0)
(1.2573 -0.0159083 0)
(1.25624 -0.0104518 0)
(1.25461 -0.00525913 0)
(1.25243 -0.000383638 0)
(1.24972 0.00412626 0)
(1.24651 0.00822949 0)
(1.24283 0.0118934 0)
(1.23872 0.0150948 0)
(1.23424 0.0178223 0)
(1.22941 0.0200737 0)
(1.22431 0.0218633 0)
(1.21894 0.023207 0)
(1.21347 0.0241509 0)
(1.20765 0.0247167 0)
(1.2021 0.0249924 0)
(1.19574 0.024994 0)
(1.19067 0.0248348 0)
(1.18312 0.0245989 0)
(1.17979 0.0242478 0)
(1.16902 0.024245 0)
(1.25047 -0.0784779 0)
(1.25405 -0.0725675 0)
(1.25694 -0.0664698 0)
(1.25962 -0.0601878 0)
(1.26193 -0.053742 0)
(1.26371 -0.0471856 0)
(1.2649 -0.0405795 0)
(1.2655 -0.033983 0)
(1.26549 -0.0274566 0)
(1.26487 -0.0210638 0)
(1.26363 -0.014869 0)
(1.26176 -0.00893532 0)
(1.25929 -0.00332279 0)
(1.25623 0.00191308 0)
(1.25262 0.00672308 0)
(1.2485 0.0110666 0)
(1.2439 0.014913 0)
(1.23889 0.018242 0)
(1.23351 0.0210471 0)
(1.22782 0.0233295 0)
(1.22189 0.0251131 0)
(1.21572 0.0264121 0)
(1.20949 0.027295 0)