/*--------------------------------*- C++ -*----------------------------------*\
  =========                 |
  \\      /  F ield         | OpenFOAM: The Open Source CFD Toolbox
   \\    /   O peration     | Website:  https://openfoam.org
    \\  /    A nd           | Version:  7
     \\/     M anipulation  |
\*---------------------------------------------------------------------------*/
FoamFile
{
    version     2.0;
    format      ascii;
    class       surfaceScalarField;
    location    "35";
    object      phi;
}
// * * * * * * * * * * * * * * * * * * * * * * * * * * * * * * * * * * * * * //

dimensions      [0 3 -1 0 0 0 0];

internalField   nonuniform List<scalar> 
4137
(
-0.000438842
0.000130508
-0.00056935
-0.00225893
0.000141058
-0.000710408
-0.00269432
0.000151395
-0.000861803
0.000615027
-0.00315796
-0.00622038
0.000161482
-0.00102329
0.000652108
-0.00364858
0.00150772
-0.00707599
-0.0113808
0.000171269
-0.00119455
0.000687456
-0.00416477
0.00158128
-0.00796982
0.00288378
-0.0126834
0.00461902
-0.0183648
-0.0250485
0.000180687
-0.00137524
0.00072078
-0.00470486
0.0016492
-0.00889823
0.00299134
-0.0140255
0.00476314
-0.0201366
0.00696372
-0.0272491
-0.0353383
0.000189649
-0.00156489
0.00075173
-0.00526694
0.0017107
-0.0098572
0.0030856
-0.0154004
0.0048836
-0.0219346
0.00709267
-0.0294582
0.00967431
-0.0379199
-0.0472105
0.00019805
-0.00176294
0.000779911
-0.0058488
0.00176491
-0.0108422
0.00316506
-0.0168006
0.00497824
-0.0237478
0.0071811
-0.031661
0.009723
-0.0404618
0.0125229
-0.0500104
0.015471
-0.0601116
-0.0705448
0.000205771
-0.00196871
0.000804886
-0.00644792
0.00181091
-0.0118482
0.00322821
-0.0182178
0.00504492
-0.0255645
0.00722641
-0.0338425
0.00971061
-0.042946
0.0124074
-0.0527072
0.0152036
-0.0629077
-0.0733103
0.0179691
0.000212682
-0.00218139
0.000826198
-0.00706144
0.00184776
-0.0128698
0.00327353
-0.0196436
0.00508164
-0.0273726
0.00722634
-0.0359872
0.00963505
-0.0453548
0.0122103
-0.0552825
0.0148375
-0.0655349
-0.0758665
0.0173937
0.00021865
-0.00240004
0.000843385
-0.00768617
0.00187453
-0.0139009
0.00329962
-0.0210687
0.00508661
-0.0291596
0.00717907
-0.0380797
0.00949505
-0.0476707
0.0119315
-0.057719
0.0143745
-0.0679779
-0.0782021
0.0167101
0.000223538
-0.00262358
0.000855996
-0.00831863
0.00189036
-0.0149353
0.00330521
-0.0224836
0.00505838
-0.0309128
0.00708338
-0.0401047
0.00929019
-0.0498775
0.0115721
-0.0600009
0.0138179
-0.0702237
-0.080308
0.0159238
0.000227216
-0.0028508
0.000863607
-0.00895502
0.00189446
-0.0159662
0.00328924
-0.0238783
0.0049959
-0.0326194
0.00693869
-0.0420475
0.00902102
-0.0519599
0.0111344
-0.0621143
0.0131722
-0.0722615
-0.0821777
0.015042
0.00022956
-0.00308036
0.000865836
-0.0095913
0.00188618
-0.0169865
0.00325092
-0.0252431
0.00489854
-0.0342671
0.00674506
-0.043894
0.00868895
-0.0539038
0.0106218
-0.0640472
0.0124433
-0.074083
-0.0838074
0.014073
0.000230458
-0.00331082
0.000862354
-0.0102232
0.00186498
-0.0179891
0.00318969
-0.0265678
0.00476611
-0.0358435
0.00650323
-0.0456311
0.00829621
-0.0556967
0.0100387
-0.0657896
0.0116377
-0.0756821
-0.0851953
0.0130256
0.000229814
-0.00354063
0.000852895
-0.0108463
0.0018305
-0.0189667
0.00310531
-0.0278426
0.00459891
-0.0373371
0.00621456
-0.0472468
0.00784579
-0.057328
0.00938986
-0.0673337
0.0107626
-0.0770548
-0.0863416
0.0119089
0.000227546
-0.00376817
0.000837262
-0.011456
0.00178252
-0.019912
0.00299784
-0.0290579
0.00439767
-0.0387369
0.00588096
-0.0487301
0.0073413
-0.0587883
0.00868104
-0.0686734
0.00982566
-0.0781995
-0.0872482
0.0107323
0.000223593
-0.00399177
0.000815335
-0.0120477
0.00172102
-0.0208177
0.00286762
-0.0302045
0.00416355
-0.0400328
0.0055049
-0.0500714
0.00678685
-0.0600703
0.00791817
-0.0698047
0.00883447
-0.0791158
-0.0879187
0.00950492
0.000217913
-0.00420968
0.00078707
-0.0126169
0.00164612
-0.0216767
0.00271528
-0.0312737
0.0038981
-0.0412157
0.00508926
-0.0512626
0.00618698
-0.061168
0.00710745
-0.0707252
0.00779677
-0.0798051
-0.0883574
0.0082355
0.000210487
-0.00442017
0.000752506
-0.0131589
0.00155813
-0.0224823
0.00254172
-0.0322573
0.00360323
-0.0422772
0.00463731
-0.0522967
0.0055465
-0.0620772
0.00625523
-0.0714339
0.00672012
-0.08027
-0.0885698
0.00693248
0.000201317
-0.00462148
0.000711757
-0.0136693
0.00145751
-0.0232281
0.0023481
-0.0331479
0.00328113
-0.0432102
0.0041526
-0.0531681
0.00487045
-0.062795
0.00536785
-0.0719314
0.00561183
-0.0805139
-0.0885616
0.0056037
0.000190427
-0.00481191
0.000665019
-0.0141439
0.00134489
-0.023908
0.00213579
-0.0339388
0.00293427
-0.0440087
0.00363892
-0.0538728
0.00416394
-0.06332
0.00445156
-0.072219
0.00447889
-0.0805413
-0.0883392
0.00425641
0.000177864
-0.00498977
0.000612557
-0.0145786
0.00122101
-0.0245164
0.00190635
-0.0346241
0.00256534
-0.0446677
0.00310023
-0.0544077
0.00343215
-0.063652
0.00351241
-0.0722992
0.00332786
-0.0803567
-0.0879086
0.00289733
0.000163693
-0.00515347
0.000554707
-0.0149696
0.00108675
-0.0250484
0.00166151
-0.0351989
0.00217716
-0.0451833
0.00254058
-0.0547711
0.00268027
-0.0637916
0.00255636
-0.0721753
0.00216449
-0.0799649
-0.0872769
0.00153275
0.000148003
-0.00530147
0.000491862
-0.0153135
0.000943098
-0.0254997
0.00140314
-0.0356589
0.00177269
-0.0455529
0.0019641
-0.0549625
0.0019135
-0.063741
0.00158964
-0.0718514
0.000994237
-0.0793695
-0.086431
0.000148385
0.000130897
-0.00543237
0.000424472
-0.0156071
0.00079112
-0.0258663
0.00113317
-0.036001
0.00135494
-0.0457746
0.00137488
-0.0549824
0.00113681
-0.063503
0.000617912
-0.0713325
-0.000167764
-0.0785838
-0.0854066
-0.00119218
0.000112495
-0.00554486
0.000353026
-0.0158476
0.000631946
-0.0261452
0.000853622
-0.0362227
0.000926927
-0.0458479
0.000776941
-0.0548325
0.000355031
-0.0630811
-0.000354787
-0.0706227
-0.0013359
-0.0776027
-0.0842026
-0.00253994
9.29339e-05
-0.0056378
0.000278049
-0.0160327
0.000466747
-0.0263339
0.000566521
-0.0363224
0.000491664
-0.0457731
0.000174301
-0.0545151
-0.000427081
-0.0624797
-0.00132216
-0.0697277
-0.0024887
-0.0764361
-0.0828172
-0.00387407
7.23584e-05
-0.00571015
0.000200088
-0.0161605
0.000296718
-0.0264306
0.000273884
-0.0362996
5.21985e-05
-0.0455514
-0.000429295
-0.0540336
-0.00120489
-0.0617041
-0.00227931
-0.0686532
-0.00362659
-0.0750888
-0.0812542
-0.00518959
5.09298e-05
-0.00576108
0.000119701
-0.0162292
0.000123051
-0.0264339
-2.21421e-05
-0.0361544
-0.00038898
-0.0451846
-0.00103015
-0.0533924
-0.00197398
-0.0607603
-0.00322131
-0.0674059
-0.0047447
-0.0735654
-0.0795163
-0.00648264
2.88624e-05
-0.00578995
3.74357e-05
-0.0162378
-5.31325e-05
-0.0263434
-0.000320245
-0.0358873
-0.000828955
-0.0446758
-0.00162485
-0.0525965
-0.00273013
-0.059655
-0.00414321
-0.0659928
-0.00583801
-0.0718707
-0.0776048
-0.00774947
5.85593e-06
-0.0057958
-4.61934e-05
-0.0161858
-0.000230731
-0.0261588
-0.000618069
-0.0354999
-0.00126536
-0.0440286
-0.0022103
-0.0516516
-0.00346944
-0.0583958
-0.00504006
-0.0644222
-0.00690108
-0.0700096
-0.0755191
-0.00898675
-1.72905e-05
-0.00577851
-0.000130603
-0.0160724
-0.000408625
-0.0258808
-0.000914197
-0.0349944
-0.00169604
-0.0432467
-0.00278382
-0.0505638
-0.00418845
-0.0569912
-0.00590704
-0.0627036
-0.00792807
-0.0679886
-0.0732558
-0.0101914
-4.06045e-05
-0.00573791
-0.00021528
-0.0158978
-0.000585854
-0.0255102
-0.00120715
-0.0343731
-0.00211913
-0.0423347
-0.00334319
-0.0493397
-0.00488429
-0.0554501
-0.00673961
-0.0608483
-0.00891192
-0.0658163
-0.0708105
-0.0113572
-6.41259e-05
-0.00567378
-0.000299765
-0.0156621
-0.000761497
-0.0250485
-0.00149562
-0.033639
-0.00253307
-0.0412973
-0.00388677
-0.047986
-0.00555494
-0.0537819
-0.00753342
-0.0588698
-0.00983998
-0.0635097
-0.0681724
-0.0124781
-8.76335e-05
-0.00558615
-0.000383587
-0.0153662
-0.000934699
-0.0244974
-0.00177843
-0.0327952
-0.00293661
-0.0401391
-0.00441363
-0.046509
-0.00620013
-0.0519954
-0.00828591
-0.056784
-0.0106979
-0.0610977
-0.065302
-0.0135684
-0.000110977
-0.00547517
-0.000466291
-0.0150109
-0.00110464
-0.023859
-0.00205447
-0.0318454
-0.00332866
-0.0388649
-0.00492352
-0.0449142
-0.00682256
-0.0500964
-0.00900353
-0.0546031
-0.0114269
-0.0586744
-0.0625982
-0.0141306
-0.000134015
-0.00534116
-0.000547436
-0.0145974
-0.00127053
-0.0231359
-0.00232267
-0.0307932
-0.00370809
-0.0374795
-0.00541587
-0.0432064
-0.00742413
-0.0480881
-0.00970663
-0.0523206
-0.0122348
-0.0561462
-0.0598029
-0.0150302
-0.000156612
-0.00518454
-0.000626595
-0.0141275
-0.00143158
-0.022331
-0.00258191
-0.0296429
-0.00407347
-0.0359879
-0.0058887
-0.0413911
-0.00800139
-0.0459754
-0.0103834
-0.0499386
-0.0130108
-0.0535187
-0.05693
-0.0158837
-0.000178636
-0.00500591
-0.000703361
-0.0136027
-0.00158706
-0.0214473
-0.00283113
-0.0283989
-0.00442338
-0.0343957
-0.00634003
-0.0394745
-0.0085508
-0.0437647
-0.0110255
-0.0474638
-0.0137404
-0.0508039
-0.0539837
-0.0166867
-0.000199963
-0.00480594
-0.000777352
-0.0130253
-0.0017363
-0.0204883
-0.00306937
-0.0270658
-0.00475664
-0.0327084
-0.00676839
-0.0374628
-0.00907053
-0.0414625
-0.0116308
-0.0449035
-0.0144247
-0.0480101
-0.0509696
-0.0174388
-0.000220478
-0.00458547
-0.000848218
-0.0123976
-0.00187867
-0.0194579
-0.00329583
-0.0256486
-0.0050723
-0.0309319
-0.0071728
-0.0353623
-0.00955973
-0.0390756
-0.0121991
-0.0422642
-0.0150654
-0.0451438
-0.0478918
-0.0181432
-0.000240074
-0.00434539
-0.000915644
-0.011722
-0.00201365
-0.0183599
-0.00350977
-0.0241525
-0.00536957
-0.0290721
-0.00755257
-0.0331793
-0.010018
-0.0366102
-0.0127303
-0.0395519
-0.0156637
-0.0422104
-0.0447533
-0.0188022
-0.000258655
-0.00408674
-0.000979347
-0.0110013
-0.00214075
-0.0171985
-0.00371062
-0.0225826
-0.00564785
-0.0271349
-0.00790718
-0.0309199
-0.010445
-0.0340723
-0.0132248
-0.0367721
-0.0162207
-0.0392145
-0.0415571
-0.0194169
-0.000276135
-0.0038106
-0.00103907
-0.0102384
-0.00225957
-0.015978
-0.00389785
-0.0209443
-0.0059066
-0.0251262
-0.00823623
-0.0285903
-0.0108407
-0.0314678
-0.0136827
-0.0339301
-0.0167367
-0.0361605
-0.0383058
-0.019988
-0.000292433
-0.00351817
-0.0010946
-0.00943624
-0.00236972
-0.0147028
-0.004071
-0.0192431
-0.00614539
-0.0230518
-0.00853938
-0.0261963
-0.0112049
-0.0288023
-0.0141041
-0.0310309
-0.017212
-0.0330526
-0.0350025
-0.0205153
-0.000307479
-0.00321069
-0.00114571
-0.008598
-0.00247089
-0.0133777
-0.00422968
-0.0174843
-0.00636381
-0.0209176
-0.00881629
-0.0237438
-0.0115373
-0.0260813
-0.0144887
-0.0280795
-0.0176464
-0.0298948
-0.0316506
-0.0209984
-0.000321208
-0.00288948
-0.00119224
-0.00772697
-0.00256278
-0.0120071
-0.00437353
-0.0156735
-0.00656151
-0.0187297
-0.00906666
-0.0212387
-0.0118377
-0.0233102
-0.0148364
-0.0250808
-0.0180396
-0.0266916
-0.0282536
-0.0214366
-0.000333562
-0.00255592
-0.00123401
-0.00682652
-0.00264513
-0.010596
-0.00450223
-0.0138164
-0.00673816
-0.0164937
-0.00929016
-0.0186867
-0.0121058
-0.0204946
-0.0151468
-0.0220398
-0.018391
-0.0234474
-0.0248156
-0.0218291
-0.000344488
-0.00221143
-0.00127089
-0.00590012
-0.00271771
-0.00914917
-0.0046155
-0.0119187
-0.00689345
-0.0142158
-0.0094865
-0.0160936
-0.0123412
-0.0176399
-0.0154196
-0.0189614
-0.0187002
-0.0201668
-0.0213409
-0.0221749
-0.000353941
-0.00185749
-0.00130274
-0.00495132
-0.00278031
-0.00767161
-0.00471308
-0.00998589
-0.00702711
-0.0119017
-0.0096554
-0.0134653
-0.0125438
-0.0147515
-0.0156543
-0.0158508
-0.0189664
-0.0168547
-0.0178342
-0.0224731
-0.00036188
-0.00149561
-0.00132945
-0.00398374
-0.00283275
-0.00616831
-0.00479475
-0.00802389
-0.00713889
-0.0095576
-0.00979659
-0.0108076
-0.012713
-0.0118351
-0.0158506
-0.0127133
-0.0191893
-0.013516
-0.0143004
-0.022723
-0.000368273
-0.00112734
-0.00135094
-0.00300108
-0.00287489
-0.00464437
-0.00486031
-0.00603846
-0.00722858
-0.00718934
-0.00990984
-0.00812637
-0.0128488
-0.00889609
-0.0160081
-0.00955405
-0.0193682
-0.0101559
-0.0107447
-0.0229239
-0.000373092
-0.000754247
-0.00136712
-0.00200705
-0.0029066
-0.00310489
-0.00490962
-0.00403544
-0.007296
-0.00480296
-0.00999495
-0.00542742
-0.0129509
-0.00594016
-0.0161265
-0.00637847
-0.0195027
-0.00677967
-0.00717242
-0.023075
-0.000376316
-0.00137794
-0.00292779
-0.00494257
-0.00202066
-0.00734102
-0.00240451
-0.0100518
-0.00271666
-0.013019
-0.00297291
-0.0162055
-0.00319197
-0.0195926
-0.00339255
-0.00358901
-0.0231761
-0.00495906
-0.00736356
-0.0100802
-0.0130531
-0.0162451
-0.0196377
-0.0232267
0.0583385
0.0119397
-0.0583692
0.0582008
0.0131633
0.0579471
0.0143267
0.0575686
0.0154205
0.0570571
0.0164353
0.0564052
0.017362
0.0556067
0.0181922
0.0189186
0.0617459
0.0118461
-0.0616523
0.0617487
0.0131605
0.0616511
0.0144243
0.0614435
0.015628
0.0611166
0.0167622
0.0606614
0.0178172
0.0600698
0.0187838
0.0196534
0.06507
0.0116363
-0.0648603
0.0652075
0.013023
0.0652632
0.0143687
0.0652269
0.0156643
0.0650884
0.0169006
0.0648377
0.0180679
0.0644648
0.0191567
0.0201575
0.0683265
0.0113273
-0.0680175
0.0685829
0.0127666
0.0687773
0.0141742
0.0688998
0.0155419
0.0689397
0.0168607
0.0688862
0.0181214
0.0687283
0.0193146
0.0204307
0.0715485
0.01094
-0.0711611
0.0719028
0.0124123
0.0722155
0.0138615
0.0724771
0.0152802
0.0726776
0.0166603
0.0728058
0.0179932
0.0728505
0.01927
0.0204813
0.0747755
0.0104957
-0.0743312
0.0752049
0.0119829
0.0756122
0.0134542
0.0759891
0.0149033
0.0763263
0.0163231
0.0766136
0.0177059
0.07684
0.0190436
0.0203276
0.0780468
0.0100141
-0.0775652
0.0785295
0.0115002
0.0790074
0.0129763
0.0794739
0.0144368
0.079921
0.0158759
0.0803399
0.017287
0.0807205
0.0186629
0.0199961
0.0813981
0.00951126
-0.0808952
0.081915
0.0109832
0.082442
0.0124494
0.0829737
0.0139051
0.083504
0.0153456
0.0840256
0.0167653
0.0845303
0.0181583
0.019518
0.0848583
0.00899929
-0.0843464
0.0853948
0.0104468
0.0859529
0.0118913
0.086529
0.013329
0.0871186
0.014756
0.0877163
0.0161677
0.0883154
0.0175592
0.0189251
0.0884506
0.00848665
-0.087938
0.0889957
0.00990174
0.0895714
0.0113155
0.0901756
0.0127249
0.090805
0.0141266
0.0914558
0.0155168
0.0921233
0.0168917
0.0182468
0.0921925
0.00797879
-0.0916847
0.0927389
0.00935539
0.0933228
0.0107316
0.0939429
0.0121048
0.0945974
0.0134721
0.0952835
0.0148307
0.0959981
0.0161771
0.0175078
0.0960981
0.00747917
-0.0955985
0.096641
0.00881248
0.0972268
0.0101458
0.0978547
0.0114768
0.0985237
0.0128032
0.0992321
0.0141222
0.099978
0.0154313
0.0167274
0.100179
0.00698981
-0.0996894
0.100715
0.00827589
0.101299
0.00956209
0.10193
0.0108463
0.102606
0.0121265
0.103328
0.0134003
0.104094
0.0146654
0.0159193
0.104445
0.00651173
-0.103967
0.104974
0.00774717
0.105553
0.0089827
0.106183
0.0102164
0.106863
0.0114463
0.107593
0.0126704
0.108372
0.0138866
0.0150926
0.108906
0.00604539
-0.10844
0.109426
0.00722707
0.11
0.00840876
0.110628
0.00958865
0.111309
0.0107649
0.112044
0.0119357
0.112832
0.013099
0.014253
0.113573
0.00559084
-0.113118
0.114084
0.00671579
0.114652
0.00784067
0.115277
0.00896376
0.115958
0.0100833
0.116696
0.0111977
0.117491
0.0123049
0.11834
0.0134033
0.0144911
0.118454
0.00514764
-0.118011
0.118957
0.00621302
0.119519
0.00727824
0.120141
0.00834169
0.120823
0.00940174
0.121564
0.0104567
0.122364
0.011505
0.123222
0.0125449
0.0135747
0.123563
0.00471548
-0.123131
0.124058
0.00571841
0.124615
0.00672112
0.125235
0.00772211
0.125917
0.00871982
0.126661
0.00971271
0.127466
0.0106992
0.128334
0.0116777
0.0126467
0.128912
0.00429366
-0.12849
0.129399
0.00523124
0.129952
0.0061686
0.130569
0.00710428
0.131252
0.00803686
0.132
0.00896486
0.132813
0.00988684
0.133689
0.0108013
0.0117068
0.134515
0.00388139
-0.134102
0.134995
0.00475071
0.135544
0.00561979
0.136161
0.0064873
0.136846
0.00735189
0.137599
0.0082122
0.138419
0.00906688
0.139305
0.00991456
0.0107539
0.140388
0.00347778
-0.139984
0.140863
0.00427583
0.141409
0.00507367
0.142026
0.00587005
0.142714
0.00666374
0.143473
0.00745348
0.144302
0.00823802
0.1452
0.00901609
0.00978645
0.14655
0.00308179
-0.146154
0.14702
0.0038055
0.147565
0.00452903
0.148184
0.00525126
0.148876
0.00597104
0.149643
0.00668724
0.150482
0.0073987
0.151394
0.00810428
0.00880283
0.153022
0.00269225
-0.152633
0.153489
0.00333844
0.154034
0.00398451
0.154656
0.00462944
0.155354
0.00527219
0.15613
0.00591175
0.156982
0.00654709
0.157909
0.00717716
0.00780095
0.15983
0.00230783
-0.159445
0.160295
0.00287321
0.160841
0.00343852
0.161467
0.00400286
0.162174
0.00456533
0.162961
0.00512503
0.163827
0.00568104
0.164772
0.00623246
0.00677838
0.167
0.00192699
-0.166619
0.167465
0.0024081
0.168015
0.0028892
0.168648
0.00336952
0.169365
0.00384829
0.170165
0.00432472
0.171048
0.00479805
0.172013
0.00526748
0.00573225
0.174567
0.00154793
-0.174188
0.175034
0.00194114
0.175589
0.0023344
0.176231
0.00272706
0.176961
0.0031185
0.177778
0.00350806
0.178681
0.00389512
0.179669
0.00427902
0.00465913
0.182568
0.00116851
-0.182188
0.183039
0.00146997
0.183602
0.00177152
0.184256
0.00207265
0.185002
0.00237288
0.185838
0.00267173
0.186765
0.00296867
0.187781
0.00326324
0.00355492
0.191047
0.000786265
-0.190664
0.191525
0.000991847
0.192099
0.00119752
0.192768
0.00140296
0.193534
0.00160782
0.194394
0.00181175
0.195348
0.00201443
0.196395
0.00221551
0.00241465
0.200055
0.000398002
-0.199667
0.200544
0.000503258
0.201133
0.000608587
0.201822
0.000713817
0.202611
0.000818771
0.2035
0.000923277
0.204487
0.00102715
0.205572
0.00113023
0.00123233
0.209648
-0.20925
0.210152
0.21076
0.211474
0.212293
0.213216
0.214243
0.215374
0.0483516
-0.014241
-0.047679
0.0490637
-0.0131901
0.0497967
-0.0120902
0.0505278
-0.0109225
0.0512499
-0.00970886
0.0519604
-0.00845995
0.052656
-0.00717824
0.0533334
-0.00586697
0.0539892
-0.00452994
0.0546203
-0.00317099
0.0552226
-0.00179452
0.0557803
-0.000409276
0.0563115
0.00100156
0.0567947
0.00241407
0.0572264
0.00382474
0.0576002
0.00522984
0.0579093
0.00662345
0.0581459
0.00799886
0.0583021
0.00934875
0.0106652
0.0519375
-0.014885
-0.0512935
0.0525637
-0.0138163
0.0531931
-0.0127196
0.0538244
-0.0115539
0.0544542
-0.0103386
0.0550813
-0.00908713
0.0557043
-0.00780118
0.0563203
-0.00648295
0.0569262
-0.00513585
0.0575185
-0.00376331
0.0580929
-0.00236892
0.0586415
-0.000957854
0.0591739
0.000469158
0.0596709
0.00191706
0.0601311
0.00336451
0.0605488
0.00481215
0.0609173
0.00625495
0.0612294
0.0076868
0.0614772
0.00910096
0.0104901
0.0555991
-0.0154206
-0.0550635
0.0561334
-0.0143507
0.0566676
-0.0132538
0.0572061
-0.0120923
0.0577482
-0.0108807
0.0582935
-0.00963242
0.0588412
-0.00834884
0.0593895
-0.00703132
0.0599364
-0.0056827
0.060479
-0.00430597
0.0610141
-0.002904
0.0615357
-0.00147941
0.0620581
-5.33134e-05
0.0625521
0.00142311
0.0630257
0.00289088
0.0634723
0.00436553
0.0638859
0.00584134
0.0642601
0.00731269
0.0645875
0.00877355
0.0102172
0.0593743
-0.0158589
-0.058936
0.0598184
-0.0147947
0.0602635
-0.0136989
0.0607139
-0.0125428
0.061171
-0.0113378
0.0616345
-0.010096
0.0621046
-0.00881889
0.0625807
-0.00750744
0.063062
-0.00616399
0.0635472
-0.0047912
0.064035
-0.00339179
0.0645245
-0.00196889
0.0649994
-0.000528167
0.0654832
0.000939231
0.0659557
0.00241844
0.066415
0.00390619
0.0668567
0.00539968
0.0672752
0.00689416
0.0676645
0.00838429
0.00986419
0.0632537
-0.0162079
-0.0629048
0.0636109
-0.0151519
0.0639709
-0.0140589
0.0643377
-0.0129095
0.0647132
-0.0117133
0.0650978
-0.0104806
0.0654921
-0.00921317
0.0658963
-0.00791171
0.0663106
-0.00657826
0.0667346
-0.00521516
0.0671675
-0.00382476
0.0676082
-0.00240956
0.0680529
-0.000972882
0.0685083
0.000483841
0.0689645
0.00196221
0.0694204
0.00345037
0.0698726
0.00494748
0.0703169
0.00644982
0.0707484
0.00795282
0.00945142
0.0672387
-0.0164694
-0.0669772
0.0675103
-0.0154235
0.0677872
-0.0143358
0.068073
-0.0131953
0.06837
-0.0120103
0.0686789
-0.0107895
0.0690006
-0.0095348
0.0693357
-0.00824682
0.0696848
-0.00692739
0.0700482
-0.00557857
0.0704259
-0.00420244
0.0708174
-0.00280109
0.0712212
-0.00137666
0.0716464
5.86804e-05
0.0720768
0.00153179
0.0725183
0.00300884
0.0729679
0.00449789
0.0734225
0.00599521
0.0738784
0.00749688
0.00899864
0.0713346
-0.0166441
-0.07116
0.0715215
-0.0156103
0.0717168
-0.0145312
0.0719239
-0.0134024
0.0721451
-0.0122314
0.0723813
-0.0110257
0.0726335
-0.00978697
0.0729026
-0.00851595
0.0731895
-0.00721434
0.0734951
-0.00588408
0.0738197
-0.0045271
0.074164
-0.00314542
0.0745287
-0.00174128
0.0749065
-0.000319127
0.0753105
0.00112779
0.0757317
0.00258762
0.0761698
0.00405975
0.0766232
0.00554186
0.0770893
0.00703074
0.00852281
0.0755482
-0.0167328
-0.0754595
0.0756515
-0.0157136
0.0757668
-0.0146466
0.0758972
-0.0135328
0.0760449
-0.0123791
0.076211
-0.0111918
0.0763964
-0.00997241
0.0766023
-0.00872185
0.0768297
-0.00744172
0.0770795
-0.00613383
0.0773524
-0.00480003
0.0776492
-0.00344218
0.0779702
-0.00206228
0.078314
-0.000662973
0.0786854
0.000756362
0.0790813
0.00219177
0.0795013
0.00363978
0.0799445
0.00509856
0.0804098
0.00656545
0.00803745
0.079888
-0.0167368
-0.079884
0.0799092
-0.0157348
0.0799462
-0.0146836
0.0800018
-0.0135884
0.0800781
-0.0124554
0.0801762
-0.0112899
0.0802972
-0.0100934
0.0804421
-0.00886684
0.0806122
-0.00761179
0.0808084
-0.00632999
0.0810315
-0.00502316
0.0812824
-0.00369309
0.0815618
-0.00234163
0.0818697
-0.000970949
0.0822088
0.000417304
0.0825772
0.00182331
0.0829756
0.00324139
0.0834037
0.00467045
0.083861
0.0061082
0.00755208
0.0843633
-0.0166577
-0.0844424
0.0843041
-0.0156756
0.0842645
-0.014644
0.0842471
-0.0135709
0.0842538
-0.0124621
0.0842858
-0.0113219
0.0843442
-0.0101518
0.0844302
-0.00895286
0.0845449
-0.00772649
0.0846893
-0.00647438
0.0848644
-0.00519821
0.0850709
-0.00389965
0.0853098
-0.00258047
0.0855814
-0.00124254
0.0858891
0.000109593
0.0862293
0.00148311
0.0866043
0.00286633
0.0870143
0.00426052
0.0874589
0.00566352
0.00707304
0.0889834
-0.016497
-0.089144
0.0888455
-0.0155378
0.088731
-0.0145295
0.0886422
-0.0134822
0.0885811
-0.0124009
0.0885488
-0.0112896
0.0885464
-0.0101495
0.0885751
-0.0089816
0.0886361
-0.00778746
0.0887303
-0.00656862
0.0888589
-0.00532671
0.0890226
-0.00406336
0.0892223
-0.00278025
0.089459
-0.00147917
0.0897322
-0.000163657
0.0900449
0.00117048
0.0903961
0.00251514
0.0907863
0.00387027
0.0912159
0.00523399
0.00660422
0.0937572
-0.0162564
-0.0939978
0.0935424
-0.0153231
0.0933547
-0.0143418
0.0931963
-0.0133238
0.093069
-0.0122736
0.0929739
-0.0111945
0.0929123
-0.0100878
0.0928852
-0.00895452
0.0928938
-0.00779606
0.0929391
-0.00661397
0.0930222
-0.00540979
0.093144
-0.0041851
0.0933052
-0.00294154
0.0935069
-0.00168081
0.0937484
-0.000405125
0.094033
0.000885814
0.0943599
0.00218827
0.0947295
0.00350063
0.0951423
0.0048212
0.00614805
0.0986935
-0.0159375
-0.0990123
0.0984036
-0.0150332
0.0981444
-0.0140826
0.097918
-0.0130973
0.097726
-0.0120816
0.0975697
-0.0110382
0.0974501
-0.00996827
0.0973685
-0.00887292
0.097326
-0.0077535
0.0973235
-0.0066115
0.0973621
-0.00544838
0.0974427
-0.00426569
0.0975661
-0.00306498
0.0977332
-0.00184788
0.0979443
-0.000616222
0.098201
0.000629071
0.0985034
0.00188587
0.098852
0.00315204
0.0992473
0.00442597
0.00570585
0.103801
-0.0155422
-0.104196
0.103438
-0.0146701
0.103109
-0.0137536
0.102816
-0.0128044
0.102561
-0.0118264
0.102344
-0.010822
0.102168
-0.00979212
0.102033
-0.00873798
0.101941
-0.00766088
0.101891
-0.00656222
0.101887
-0.00544342
0.101927
-0.00430595
0.102013
-0.00315132
0.102146
-0.00198107
0.102327
-0.000796899
0.102556
0.000399783
0.102834
0.00160778
0.103162
0.00282453
0.103539
0.00404861
0.00527827
0.109088
-0.0150722
-0.109558
0.108654
-0.0142354
0.108256
-0.0133563
0.107899
-0.0124466
0.107582
-0.0115095
0.107307
-0.0105471
0.107075
-0.00956055
0.106888
-0.00855082
0.106746
-0.00751921
0.106651
-0.00646706
0.106604
-0.00539573
0.106604
-0.00430665
0.106654
-0.00320123
0.106754
-0.00208098
0.106905
-0.000947478
0.107107
0.000197406
0.107361
0.00135375
0.107668
0.00251802
0.108027
0.00368915
0.00486551
0.114565
-0.0145293
-0.115108
0.114061
-0.0137308
0.113597
-0.0128924
0.113175
-0.0120252
0.112798
-0.0111321
0.112466
-0.0102149
0.11218
-0.00927469
0.111942
-0.00831245
0.111752
-0.00732941
0.111612
-0.00632685
0.111522
-0.00530607
0.111484
-0.00426841
0.111498
-0.00321526
0.111565
-0.00214801
0.111685
-0.00106812
0.111862
2.04412e-05
0.112092
0.00112358
0.112378
0.00223222
0.11272
0.0033474
0.00446749
0.120242
-0.0139151
-0.120856
0.119669
-0.0131579
0.11914
-0.0123632
0.118656
-0.0115415
0.11822
-0.0106954
0.117831
-0.00982645
0.117492
-0.00893558
0.117204
-0.00802385
0.116967
-0.00709241
0.116782
-0.00614248
0.116651
-0.00517531
0.116575
-0.00419216
0.116554
-0.00319436
0.11659
-0.00218325
0.116682
-0.00116024
0.116829
-0.000127237
0.117037
0.000916099
0.117303
0.00196643
0.117627
0.00302279
0.00408371
0.12613
-0.0132314
-0.126814
0.12549
-0.0125183
0.124897
-0.0117702
0.124353
-0.0109969
0.123858
-0.0102007
0.123414
-0.00938276
0.123023
-0.00854417
0.122685
-0.00768587
0.122401
-0.00680898
0.122174
-0.00591463
0.122002
-0.005004
0.121888
-0.00407832
0.121833
-0.00313881
0.121836
-0.00218676
0.1219
-0.00122349
0.122023
-0.000250498
0.122207
0.000731473
0.122454
0.00172041
0.122761
0.00271501
0.00371385
0.132242
-0.0124797
-0.132993
0.131537
-0.0118134
0.130881
-0.0111147
0.130277
-0.0103926
0.129725
-0.00964885
0.129227
-0.00888481
0.128784
-0.00810132
0.128398
-0.00729932
0.128068
-0.00647986
0.127798
-0.00564399
0.127587
-0.00479285
0.127436
-0.00392756
0.127346
-0.0030493
0.127319
-0.00215927
0.127354
-0.00125871
0.127453
-0.000348961
0.127615
0.000568991
0.127842
0.00149357
0.128134
0.00242343
0.00335725
0.138592
-0.0116614
-0.13941
0.137823
-0.0110444
0.137106
-0.0103978
0.136443
-0.00972939
0.135835
-0.00904094
0.135284
-0.00833348
0.13479
-0.00760786
0.134356
-0.00686496
0.133982
-0.00610575
0.133669
-0.00533125
0.133419
-0.00454248
0.133232
-0.00374052
0.133109
-0.00292645
0.133051
-0.00210141
0.133059
-0.00126654
0.133133
-0.000423076
0.133274
0.000427935
0.133482
0.00128517
0.133758
0.00214732
0.00301316
0.145198
-0.0107777
-0.146081
0.144366
-0.0102125
0.143588
-0.00962046
0.142867
-0.0090084
0.142204
-0.00837777
0.1416
-0.00772954
0.141057
-0.00706448
0.140575
-0.00638343
0.140157
-0.0056873
0.139803
-0.004977
0.139514
-0.0042535
0.139291
-0.00351778
0.139135
-0.00277086
0.139048
-0.00201378
0.139029
-0.00124761
0.139079
-0.000473465
0.1392
0.000307609
0.13939
0.00109449
0.139652
0.00188591
0.00268073
0.152078
-0.00982977
-0.153026
0.151184
-0.0093188
0.150347
-0.00878367
0.149569
-0.00823036
0.148851
-0.00766007
0.148196
-0.00707365
0.147603
-0.00647183
0.147075
-0.00585536
0.146613
-0.00522507
0.146217
-0.00458181
0.14589
-0.00392646
0.145633
-0.00325993
0.145445
-0.00258313
0.145328
-0.00189702
0.145283
-0.00120258
0.14531
-0.000500817
0.145411
0.000207256
0.145584
0.000920693
0.145832
0.00163829
0.00235901
0.159254
-0.00881844
-0.160265
0.158299
-0.00836398
0.157404
-0.0078881
0.156569
-0.00739592
0.155798
-0.00688844
0.15509
-0.00636638
0.154449
-0.00583042
0.153875
-0.00528123
0.153369
-0.00471957
0.152934
-0.0041462
0.152569
-0.00356191
0.152277
-0.00296751
0.152057
-0.00236384
0.151912
-0.00175175
0.151842
-0.00113213
0.151847
-0.000505877
0.151928
0.000126053
0.152086
0.00076289
0.152321
0.00140349
0.00204693
0.166752
-0.00774442
-0.167826
0.165736
-0.00734867
0.164783
-0.0069343
0.163892
-0.00650558
0.163067
-0.00606332
0.162309
-0.00560816
0.161619
-0.00514068
0.160999
-0.00466149
0.160451
-0.00417124
0.159976
-0.00367063
0.159574
-0.00316033
0.159248
-0.00264107
0.158997
-0.00211358
0.158824
-0.00157863
0.158729
-0.00103699
0.158713
-0.000489456
0.158776
6.30873e-05
0.158918
0.000620084
0.159141
0.0011804
0.00174327
0.174599
-0.00660819
-0.175735
0.173524
-0.0062733
0.172512
-0.00592264
0.171566
-0.00555968
0.170688
-0.00518505
0.169879
-0.0047993
0.169141
-0.00440292
0.168476
-0.00399645
0.167886
-0.00358045
0.16737
-0.0031555
0.166932
-0.00272219
0.166572
-0.00228113
0.166292
-0.00183298
0.166091
-0.00137836
0.165972
-0.00091795
0.165935
-0.000452434
0.165981
1.72934e-05
0.16611
0.000491144
0.166323
0.000967762
0.00144663
0.182829
-0.00541003
-0.184027
0.181694
-0.00513811
0.180625
-0.00485332
0.179623
-0.00455839
0.178692
-0.0042538
0.177833
-0.00393999
0.177047
-0.00361737
0.176337
-0.00328639
0.175704
-0.0029475
0.17515
-0.00260119
0.174676
-0.00224793
0.174283
-0.00188825
0.173972
-0.00152265
0.173746
-0.00115168
0.173604
-0.000775888
0.173547
-0.000395835
0.173577
-1.22666e-05
0.173693
0.000374766
0.173897
0.000764124
0.00115538
0.191478
-0.00415003
-0.192738
0.190283
-0.00394316
0.189156
-0.00372639
0.1881
-0.00350177
0.187116
-0.00326965
0.186206
-0.00303035
0.185373
-0.00278419
0.184618
-0.00253152
0.183943
-0.0022727
0.18335
-0.00200808
0.18284
-0.00173805
0.182415
-0.001463
0.182076
-0.00118333
0.181823
-0.00089946
0.181659
-0.000611813
0.181584
-0.00032082
0.181599
-2.69816e-05
0.181704
0.000269425
0.181901
0.000567761
0.000867614
0.200589
-0.00282825
-0.201911
0.199335
-0.00268843
0.19815
-0.00254184
0.197038
-0.00238982
0.196001
-0.0022326
0.195041
-0.00207041
0.19416
-0.00190347
0.193361
-0.00173201
0.192644
-0.00155628
0.192013
-0.00137652
0.191468
-0.001193
0.191011
-0.00100599
0.190643
-0.000815766
0.190366
-0.000622606
0.190181
-0.000426808
0.190089
-0.00022867
0.190091
-2.85171e-05
0.190187
0.00017341
0.190378
0.000376718
0.000581113
0.210208
-0.00144467
-0.211592
0.208893
-0.00137391
0.207651
-0.00129963
0.206484
-0.00122253
0.205394
-0.00114272
0.204384
-0.00106032
0.203456
-0.000975444
0.202612
-0.000888201
0.201855
-0.000798721
0.201185
-0.000707133
0.200606
-0.000613573
0.200118
-0.000518179
0.199723
-0.000421096
0.199423
-0.000322468
0.199219
-0.00022245
0.199111
-0.000121194
0.199102
-1.88772e-05
0.199191
8.43944e-05
0.199379
0.000188401
0.000292994
0.220391
-0.221836
0.219017
0.217718
0.216495
0.215352
0.214292
0.213317
0.212428
0.21163
0.210922
0.210309
0.209791
0.20937
0.209047
0.208825
0.208704
0.208685
0.208769
0.208957
0.0503662
0.00161133
-0.00152659
0.050143
0.00435632
-0.00413308
0.0498049
0.00683451
-0.00649643
0.0493681
0.00922158
-0.00878474
0.0488469
0.0116753
-0.0111542
0.0482581
0.0142609
-0.0136721
0.0476252
0.0170204
-0.0163875
0.0469807
0.0199671
-0.0193226
0.0463711
0.0230827
-0.022473
0.0458556
0.0263206
-0.0258051
0.0455128
0.0295951
-0.0292524
0.0454251
0.0327706
-0.032683
0.0456842
0.0356871
-0.0359462
0.0463283
0.0380129
-0.038657
0.0393901