/*--------------------------------*- C++ -*----------------------------------*\
  =========                 |
  \\      /  F ield         | OpenFOAM: The Open Source CFD Toolbox
   \\    /   O peration     | Website:  https://openfoam.org
    \\  /    A nd           | Version:  7
     \\/     M anipulation  |
\*---------------------------------------------------------------------------*/
FoamFile
{
    version     2.0;
    format      ascii;
    class       volVectorField;
    location    "35";
    object      U;
}
// * * * * * * * * * * * * * * * * * * * * * * * * * * * * * * * * * * * * * //

dimensions      [0 1 -1 0 0 0 0];

internalField   nonuniform List<vector> 
2125
(
(0.00967124 -0.00530249 -4.21686e-20)
(0.0129423 -0.00685996 1.5461e-20)
(0.0522256 -0.0212401 1.78907e-20)
(0.0166054 -0.00833292 -1.0473e-20)
(0.063064 -0.0244386 -8.14787e-21)
(0.0206598 -0.00967983 2.20213e-20)
(0.0748741 -0.0272219 -6.51195e-21)
(0.145342 -0.0372273 -3.88607e-21)
(0.0251006 -0.0108589 -8.174e-21)
(0.0876249 -0.0294814 -5.12512e-20)
(0.166144 -0.0391483 5.49938e-21)
(0.257398 -0.0427294 1.93323e-20)
(0.0299183 -0.0118287 -8.86806e-21)
(0.101272 -0.0311112 1.8289e-20)
(0.188128 -0.0400279 2.44001e-20)
(0.287098 -0.0419382 -1.80065e-20)
(0.395908 -0.0374332 6.79438e-21)
(0.511853 -0.0273312 -4.3172e-20)
(0.0350985 -0.012548 -1.13207e-20)
(0.115757 -0.0320097 -3.82611e-21)
(0.211178 -0.0397277 -4.40304e-20)
(0.31786 -0.0395666 -7.03355e-21)
(0.43328 -0.0324097 -6.67651e-22)
(0.554404 -0.0193745 2.66936e-21)
(0.67764 -0.00199232 4.4868e-21)
(0.0406213 -0.012977 -2.85953e-21)
(0.131006 -0.0320805 1.50428e-20)
(0.235155 -0.0381221 2.157e-20)
(0.349475 -0.0354844 1.3909e-20)
(0.471192 -0.0253651 -4.23438e-21)
(0.596957 -0.00920017 -3.64371e-21)
(0.722845 0.0111695 3.75125e-20)
(0.844557 0.0337872 5.43421e-21)
(0.0464607 -0.0130768 2.81151e-20)
(0.146929 -0.0312345 1.93091e-20)
(0.2599 -0.0351008 -2.02539e-20)
(0.381707 -0.0295865 -4.12394e-21)
(0.509337 -0.0162249 2.20945e-21)
(0.639147 0.00321048 -8.5744e-21)
(0.76693 0.0265595 -1.93834e-20)
(0.888187 0.0516012 -3.22482e-21)
(0.998532 0.0762702 1.70362e-22)
(1.09281 0.0943225 9.01693e-21)
(0.0525844 -0.0128108 3.21256e-21)
(0.163423 -0.029391 -1.05199e-20)
(0.285231 -0.0305705 2.57346e-20)
(0.4143 -0.021794 1.72646e-20)
(0.547391 -0.00495033 4.95393e-22)
(0.680601 0.0178345 1.32912e-20)
(0.809505 0.044077 2.01008e-21)
(0.929506 0.0713017 -1.54481e-20)
(1.03629 0.0972509 1.37009e-20)
(1.12536 0.116388 1.45548e-22)
(0.0589538 -0.012145 -2.28435e-20)
(0.180368 -0.0264794 -7.14156e-21)
(0.310948 -0.0244571 -6.74572e-21)
(0.446977 -0.0120563 -1.20239e-20)
(0.585013 0.00846187 2.91258e-21)
(0.72094 0.0346096 7.98136e-23)
(0.850191 0.0635844 1.08106e-20)
(0.968175 0.0926775 -1.82703e-21)
(1.07078 0.119481 -1.41516e-20)
(1.15424 0.139167 -1.35622e-20)
(0.0655234 -0.0110487 1.8166e-21)
(0.19763 -0.0224412 1.13583e-20)
(0.336832 -0.0167076 5.60546e-21)
(0.479445 -0.000352246 -1.84407e-20)
(0.621857 0.0239797 -1.01065e-21)
(0.759793 0.0534366 -8.83105e-21)
(0.888631 0.0849123 2.42201e-22)
(1.0039 0.115498 4.59795e-21)
(1.10181 0.142693 -5.36424e-21)
(1.17936 0.162376 1.53507e-20)
(0.0722415 -0.00949567 4.18647e-21)
(0.215062 -0.017231 -1.09071e-20)
(0.362653 -0.00729115 -2.6719e-20)
(0.511404 0.0133093 2.57355e-20)
(0.657576 0.0415366 -2.0446e-21)
(0.796802 0.0741827 6.36497e-21)
(0.924495 0.107865 -9.64647e-22)
(1.03641 0.13952 6.85207e-21)
(1.12923 0.166621 -5.2917e-22)
(1.2007 0.185762 -1.18685e-20)
(0.0790504 -0.00746457 -8.33579e-21)
(0.232504 -0.010819 1.39805e-20)
(0.388167 0.00379858 1.20901e-20)
(0.542546 0.0288889 -1.81833e-20)
(0.691827 0.0610328 -3.17235e-21)
(0.831625 0.0966843 1.2935e-21)
(0.957491 0.132223 1.38944e-20)
(1.06552 0.164491 7.62028e-22)
(1.15294 0.191009 2.97311e-21)
(1.21829 0.209097 -6.62506e-21)
(0.0858869 -0.00494016 6.29837e-21)
(0.249788 -0.00319177 -6.03919e-21)
(0.413122 0.0165429 -5.23119e-21)
(0.572563 0.0463163 9.56759e-21)
(0.724279 0.0823369 3.54525e-21)
(0.863951 0.120751 2.86649e-21)
(0.987364 0.157752 -1.41357e-20)
(1.09106 0.190156 -5.13204e-21)
(1.17289 0.215612 -4.77279e-21)
(1.23219 0.232176 2.18504e-21)
(0.0926831 -0.00191394 -3.00946e-21)
(0.266738 0.00564582 -6.39051e-23)
(0.437264 0.0308968 9.88159e-21)
(0.601152 0.0654908 -3.86218e-21)
(0.754619 0.105288 -1.79192e-21)
(0.893497 0.146168 -1.26914e-21)
(1.0139 0.184205 3.4279e-21)
(1.11292 0.21626 6.24644e-21)
(1.18908 0.240198 -1.98326e-22)
(1.24251 0.254818 2.40683e-21)
(0.0993675 0.00161516 2.09713e-21)
(0.283174 0.01567 -6.36299e-22)
(0.460338 0.0467891 -1.74363e-21)
(0.628021 0.0862828 -1.67283e-21)
(0.782556 0.129698 1.63309e-21)
(0.920014 0.172704 1.37565e-21)
(1.03694 0.211324 -1.34418e-21)
(1.13103 0.242554 5.22402e-22)
(1.20156 0.264548 7.56199e-22)
(1.24937 0.276863 -1.0202e-21)
(0.105866 0.00564016 1.0753e-21)
(0.298914 0.0268373 3.42852e-22)
(0.482096 0.0641222 -2.07434e-21)
(0.652892 0.108535 -1.78365e-21)
(0.807826 0.155355 2.01012e-21)
(0.943295 0.200107 4.19681e-22)
(1.05636 0.23885 -1.08224e-21)
(1.14537 0.268792 1.0633e-21)
(1.21039 0.28846 6.14353e-22)
(1.25293 0.298169 -7.08074e-22)
(0.112104 0.0101457 -4.38832e-22)
(0.313778 0.039084 8.99185e-22)
(0.502297 0.0827726 6.24868e-21)
(0.675509 0.132062 -2.98695e-21)
(0.830197 0.182026 -1.64382e-21)
(0.963167 0.228119 -2.00166e-21)
(1.07206 0.266521 4.34775e-21)
(1.15597 0.294741 3.05984e-21)
(1.21569 0.311744 2.52867e-21)
(1.25336 0.318609 1.38144e-21)
(0.118004 0.0151076 8.14252e-21)
(0.32759 0.0523269 -4.79025e-21)
(0.520714 0.102593 -5.9545e-21)
(0.695635 0.15666 8.64255e-21)
(0.849469 0.209462 4.95806e-21)
(0.979502 0.25647 -3.67466e-22)
(1.08402 0.294078 -7.20517e-21)
(1.16287 0.320175 -5.50767e-21)
(1.21758 0.334228 -5.85348e-21)
(1.25084 0.338071 3.45303e-21)
(0.123494 0.0204931 -1.0868e-20)
(0.340182 0.0664631 1.08815e-20)
(0.537138 0.123411 1.32072e-20)
(0.713067 0.182099 -1.42867e-20)
(0.865479 0.237399 -5.49521e-21)
(0.99221 0.284888 3.83392e-21)
(1.09224 0.321268 7.56678e-21)
(1.16616 0.344882 1.22485e-21)
(1.21622 0.355749 -1.63812e-22)
(1.24555 0.356454 -4.56114e-21)
(0.128502 0.0262607 -1.45258e-21)
(0.351398 0.0813715 -1.49188e-20)
(0.55138 0.145038 -1.70839e-20)
(0.727627 0.208135 2.10819e-20)
(0.878102 0.265564 -2.56852e-21)
(1.00124 0.3131 5.24908e-21)
(1.09674 0.347843 1.12281e-21)
(1.16594 0.368661 -3.33976e-21)
(1.21175 0.376161 1.8658e-21)
(1.23767 0.373667 -1.01277e-22)
(0.13296 0.0323609 2.94348e-21)
(0.361094 0.0969139 8.92395e-21)
(0.563275 0.167262 5.58669e-21)
(0.739173 0.23451 -4.70781e-21)
(0.887251 0.293677 -7.88895e-21)
(1.00658 0.340835 -8.37133e-21)
(1.09759 0.373567 -1.80846e-21)
(1.16235 0.391323 4.85271e-21)
(1.20437 0.395327 -1.06874e-21)
(1.22741 0.389627 2.46229e-21)
(0.136806 0.038736 -1.04266e-20)
(0.369144 0.112937 -1.07905e-20)
(0.572686 0.189859 -1.74116e-21)
(0.747597 0.260955 -2.1714e-21)
(0.892877 0.321456 -5.63798e-21)
(1.00826 0.367829 3.93967e-21)
(1.09489 0.398214 -7.88611e-22)
(1.15554 0.412694 -4.34718e-21)
(1.19424 0.413118 3.99168e-21)
(1.21494 0.40426 -5.20296e-21)
(0.139986 0.0453218 2.97903e-21)
(0.375441 0.129275 9.05857e-21)
(0.579503 0.212593 8.39709e-21)
(0.752827 0.287195 1.01021e-20)
(0.89497 0.348623 4.07652e-22)
(1.00633 0.393824 1.06649e-20)
(1.08876 0.421571 5.99349e-22)
(1.14566 0.43261 -1.377e-20)
(1.18154 0.429415 9.85294e-21)
(1.20041 0.41749 3.7225e-21)
(0.142451 0.0520475 6.49583e-21)
(0.379898 0.14575 1.51172e-20)
(0.58365 0.235218 -2.35079e-21)
(0.754827 0.312951 -1.23251e-20)
(0.893556 0.3749 6.33299e-21)
(1.00089 0.418576 -7.30771e-21)
(1.07934 0.443439 -9.97362e-21)
(1.13289 0.450927 -3.8867e-22)
(1.16644 0.444122 -7.52676e-21)
(1.18389 0.429201 2.68527e-21)
(0.144164 0.0588374 2.59218e-21)
(0.382451 0.162178 1.49889e-21)
(0.58508 0.257483 1.97373e-20)
(0.7536 0.337948 4.3238e-21)
(0.888698 0.40002 -3.93448e-21)
(0.992055 0.441851 -2.43448e-21)
(1.06679 0.463636 1.4302e-20)
(1.11742 0.467517 1.19605e-20)
(1.14914 0.457207 5.86243e-21)
(1.16568 0.439273 -5.65753e-22)
(0.145094 0.0656118 4.24047e-22)
(0.38306 0.178367 -1.4876e-20)
(0.583779 0.279136 -2.25086e-20)
(0.749181 0.361912 6.93679e-22)
(0.880492 0.423725 6.02415e-21)
(0.979976 0.463431 -8.2455e-21)
(1.05131 0.481988 -1.96262e-20)
(1.09943 0.482239 -5.87808e-21)
(1.12981 0.468546 -2.92291e-22)
(1.14603 0.447796 1.14525e-21)
(0.145223 0.0722882 -4.10663e-21)
(0.381709 0.194124 1.0623e-20)
(0.579767 0.299926 1.28363e-20)
(0.741644 0.384579 -1.30142e-20)
(0.869066 0.44577 2.2771e-21)
(0.964826 0.483114 1.81277e-20)
(1.03307 0.498346 -2.96851e-21)
(1.07912 0.494997 3.20744e-21)
(1.10858 0.478026 -5.87323e-22)
(1.12502 0.454674 -3.88768e-22)
(0.144542 0.0787826 -7.92953e-21)
(0.378406 0.209256 -1.71364e-20)
(0.573094 0.319608 -3.88597e-21)
(0.731094 0.405695 7.10879e-21)
(0.854579 0.465927 7.28639e-21)
(0.946799 0.500714 -1.6851e-20)
(1.01229 0.512574 9.07771e-21)
(1.05666 0.505699 -2.9018e-21)
(1.08566 0.485589 1.09299e-21)
(1.10274 0.459817 6.37461e-22)
(0.143054 0.0850112 6.14104e-21)
(0.373185 0.223573 1.1798e-21)
(0.563844 0.337943 -1.3629e-21)
(0.71767 0.425019 -7.36621e-21)
(0.837216 0.483984 4.24114e-21)
(0.926113 0.516066 2.31496e-21)
(0.989195 0.524556 -2.84808e-21)
(1.03228 0.514269 2.12566e-21)
(1.06118 0.491182 1.01911e-21)
(1.07932 0.463154 -2.9651e-21)
(0.140772 0.0908917 -1.01949e-21)
(0.366102 0.236889 -7.60833e-22)
(0.552129 0.354706 5.41761e-21)
(0.701536 0.442327 3.26737e-21)
(0.817188 0.499746 -5.81124e-21)
(0.903008 0.529023 5.2298e-21)
(0.964021 0.534192 1.46685e-21)
(1.00617 0.520645 2.72122e-21)
(1.03529 0.494761 6.55623e-21)
(1.05487 0.464618 1.17644e-21)
(0.137717 0.0963415 5.32397e-21)
(0.357239 0.249031 5.6488e-21)
(0.538087 0.369681 -1.94358e-21)
(0.682885 0.45741 -5.75033e-22)
(0.794731 0.513041 -1.92782e-21)
(0.877736 0.539456 -1.08386e-21)
(0.937018 0.541403 2.63794e-21)
(0.978534 0.524788 1.38502e-23)
(1.00812 0.496298 -5.82242e-21)
(1.02946 0.464136 -7.30788e-21)
(0.133922 0.101279 -2.19157e-21)
(0.346701 0.25983 -7.92037e-22)
(0.521883 0.382675 -2.77834e-21)
(0.661937 0.470081 8.68795e-22)
(0.770098 0.523714 -3.00931e-21)
(0.850567 0.547258 6.77903e-21)
(0.908449 0.546125 -8.35922e-22)
(0.949605 0.526676 1.14159e-21)
(0.97979 0.495782 -5.51546e-21)
(1.00316 0.461623 8.69073e-21)
(0.129436 0.105632 -2.04291e-21)
(0.334607 0.269128 4.13093e-22)
(0.503705 0.393508 -1.66051e-21)
(0.638929 0.480173 -2.41432e-21)
(0.743559 0.531631 -1.84218e-21)
(0.821786 0.552338 -3.15214e-22)
(0.878596 0.548313 3.28905e-21)
(0.919616 0.526308 -1.51516e-20)
(0.950397 0.493219 3.24422e-20)
(0.975999 0.456954 1.32055e-20)
(0.124309 0.109336 4.74041e-22)
(0.321095 0.276787 -8.90007e-21)
(0.48376 0.402019 6.8357e-21)
(0.614117 0.487542 -1.3744e-21)
(0.715397 0.536681 3.42104e-21)
(0.791686 0.554621 -5.8505e-21)
(0.847756 0.547938 -1.12269e-20)
(0.888838 0.523713 5.91459e-21)
(0.920111 0.488664 -2.68973e-21)
(0.947918 0.450015 -6.46161e-21)
(0.118602 0.112329 -2.03096e-21)
(0.306322 0.282684 2.33698e-21)
(0.462274 0.408071 -4.48948e-21)
(0.587769 0.492065 4.62012e-21)
(0.685901 0.538771 8.78408e-21)
(0.760566 0.554049 5.65004e-21)
(0.816236 0.544978 1.94173e-20)
(0.857611 0.518944 -1.40976e-20)
(0.889348 0.482338 -2.80655e-20)
(0.918674 0.441212 1.1524e-20)
(0.112382 0.114555 -4.81283e-21)
(0.290459 0.286713 -4.50098e-21)
(0.439484 0.41155 1.60077e-21)
(0.560164 0.493644 1.40544e-20)
(0.655365 0.537828 -1.62672e-20)
(0.72872 0.550572 -2.22549e-20)
(0.78434 0.539393 -7.1858e-21)
(0.826376 0.511973 -9.48096e-22)
(0.85904 0.474515 3.53162e-20)
(0.887887 0.430972 -9.29503e-21)
(0.105723 0.11597 1.43012e-20)
(0.273687 0.288785 -4.93254e-22)
(0.415642 0.412365 -2.69388e-21)
(0.531587 0.492208 -1.33989e-22)
(0.62408 0.533806 -8.17983e-21)
(0.69642 0.544156 4.01332e-20)
(0.752327 0.531123 -2.76971e-20)
(0.795536 0.502557 3.47586e-20)
(0.830169 0.46471 -2.58681e-20)
(0.861112 0.421243 -3.49134e-20)
(0.0987036 0.116534 -6.72743e-21)
(0.256197 0.288833 3.11595e-21)
(0.391005 0.410452 -1.26165e-21)
(0.502327 0.487713 1.34008e-20)
(0.592333 0.526685 -4.47389e-21)
(0.663922 0.534803 7.10466e-21)
(0.720379 0.520182 1.65999e-20)
(0.765026 0.490721 -9.09769e-21)
(0.801697 0.452647 -2.3471e-20)
(0.83438 0.409679 3.44132e-20)
(0.0914096 0.11622 1.3493e-20)
(0.238189 0.286811 1.90745e-20)
(0.365838 0.405773 -1.59433e-20)
(0.472675 0.480142 -1.40217e-20)
(0.560413 0.516473 4.14539e-20)
(0.631486 0.522543 -4.26943e-20)
(0.6887 0.506628 5.24866e-20)
(0.734943 0.476598 -1.422e-20)
(0.773654 0.438602 1.5935e-20)
(0.808056 0.396474 2.99239e-20)
(0.0839281 0.11501 -6.34189e-21)
(0.219865 0.282692 -1.70898e-20)
(0.340408 0.398316 -6.94421e-21)
(0.442925 0.469506 -4.61209e-21)
(0.528607 0.503205 3.5544e-21)
(0.599372 0.507428 -1.02573e-20)
(0.657515 0.490527 -1.5809e-20)
(0.705474 0.460283 -3.5232e-20)
(0.74626 0.422734 3.65077e-20)
(0.782483 0.381769 -1.26727e-20)
(0.0763489 0.112894 2.33643e-20)
(0.201433 0.276472 -1.53517e-21)
(0.314985 0.388096 -9.13964e-21)
(0.413367 0.455842 1.34781e-20)
(0.4972 0.486934 -2.47297e-20)
(0.567842 0.489527 6.65574e-20)
(0.627052 0.471954 -3.70889e-20)
(0.676813 0.441848 3.5681e-20)
(0.719705 0.4051 -6.93438e-20)
(0.757823 0.36558 -1.92007e-20)
(0.0687629 0.109874 -9.70525e-21)
(0.1831 0.268169 2.50352e-20)
(0.289835 0.375153 6.63625e-21)
(0.384291 0.439211 -1.1573e-20)
(0.466472 0.46774 -2.07526e-20)
(0.53715 0.468923 -1.2728e-21)
(0.597534 0.450992 1.24077e-20)
(0.649153 0.421363 -3.16322e-20)
(0.694163 0.385742 1.6908e-20)
(0.734219 0.347916 2.22202e-21)
(0.0612609 0.10596 -3.69635e-20)
(0.165069 0.257821 -9.99539e-21)
(0.265222 0.35955 -2.52737e-21)
(0.355975 0.419699 2.93425e-20)
(0.436693 0.445718 -2.80747e-20)
(0.507543 0.445717 -7.94655e-21)
(0.569178 0.427733 -4.92764e-21)
(0.622681 0.398907 9.84427e-21)
(0.669796 0.364714 -1.29524e-20)
(0.711803 0.328801 -2.14327e-20)
(0.0539325 0.101175 3.05225e-20)
(0.147541 0.245486 -1.75408e-20)
(0.241399 0.341377 1.11766e-21)
(0.32869 0.397415 -4.41542e-20)
(0.408124 0.420988 4.95818e-20)
(0.479254 0.420025 -1.65437e-20)
(0.542188 0.402282 1.04653e-20)
(0.597569 0.374566 9.66588e-21)
(0.646751 0.342078 2.96212e-20)
(0.690694 0.308275 -1.24873e-20)
(0.046865 0.0955468 -1.2383e-20)
(0.130711 0.231241 3.64685e-20)
(0.218613 0.320744 2.05072e-20)
(0.302695 0.372489 3.37579e-20)
(0.38101 0.393686 -8.36643e-21)
(0.452506 0.391977 3.39225e-21)
(0.516753 0.374756 2.95937e-20)
(0.573979 0.348439 6.89461e-21)
(0.625162 0.31791 6.69813e-22)
(0.670994 0.2864 -1.49376e-20)
(0.0401421 0.0891159 -2.63115e-20)
(0.114763 0.215184 -2.1006e-21)
(0.197094 0.297786 -1.1634e-20)
(0.278232 0.345074 -5.34911e-20)
(0.355583 0.363967 -5.4175e-20)
(0.427505 0.361722 9.55306e-21)
(0.493053 0.345288 -2.49526e-20)
(0.552058 0.320636 1.68715e-20)
(0.605151 0.292298 9.77548e-21)
(0.652797 0.263248 2.15641e-20)
(0.0338435 0.08193 3.71105e-20)
(0.0998723 0.197429 -3.2218e-20)
(0.177063 0.272658 -1.64106e-20)
(0.255531 0.315343 3.08982e-20)
(0.332059 0.332006 3.65282e-20)
(0.404441 0.329421 -1.26747e-20)
(0.471248 0.314018 -1.63816e-21)
(0.531941 0.291277 -5.23025e-20)
(0.586828 0.265342 -3.13215e-20)
(0.636185 0.238909 1.26853e-20)
(0.0280433 0.074045 -2.10348e-20)
(0.0862006 0.178107 9.45396e-21)
(0.158721 0.245532 3.50071e-20)
(0.234799 0.283486 -1.5985e-20)
(0.310635 0.297991 1.22759e-21)
(0.38349 0.295249 5.11657e-20)
(0.451487 0.281104 2.54608e-21)
(0.513749 0.260497 4.98886e-20)
(0.570291 0.237156 2.21382e-20)
(0.621231 0.21348 -3.70774e-20)
(0.02281 0.0655243 2.80608e-20)
(0.0738966 0.157366 3.24376e-21)
(0.142251 0.2166 2.24986e-21)
(0.216229 0.249712 3.28248e-20)
(0.291488 0.262127 -4.66883e-21)
(0.364808 0.259395 -3.19861e-20)
(0.433903 0.24671 1.67479e-20)
(0.497591 0.228437 -2.81048e-20)
(0.555628 0.207859 -1.24528e-20)
(0.608002 0.187068 1.34803e-20)
(0.0182049 0.0564382 -1.75285e-20)
(0.0630934 0.135363 -3.5367e-20)
(0.127819 0.186069 8.32849e-21)
(0.199988 0.214244 -1.71606e-20)
(0.274776 0.224633 -1.10534e-20)
(0.348532 0.222059 2.83271e-20)
(0.418612 0.211013 -7.20687e-21)
(0.483563 0.195249 7.2159e-21)
(0.542915 0.177582 -9.32535e-21)
(0.596555 0.159791 1.93253e-20)
(0.0142821 0.0468629 6.2067e-21)
(0.0539076 0.112274 2.36531e-20)
(0.115567 0.15416 -3.37853e-20)
(0.186225 0.17732 1.67938e-20)
(0.260637 0.185738 -8.07928e-21)
(0.334784 0.183451 -2.42167e-20)
(0.405713 0.174199 2.10036e-20)
(0.471746 0.161093 4.79568e-21)
(0.532218 0.146465 -6.84235e-22)
(0.586938 0.13177 -2.26045e-20)
(0.0110873 0.0368801 1.9726e-21)
(0.0464378 0.0882792 7.46635e-21)
(0.105618 0.121108 3.0397e-20)
(0.175063 0.139187 -6.10926e-21)
(0.249186 0.145682 -5.10223e-21)
(0.323664 0.14379 2.00576e-21)
(0.395293 0.136459 8.77845e-22)
(0.462209 0.126136 8.31803e-21)
(0.523594 0.11465 -1.16023e-20)
(0.579195 0.103134 -7.7908e-21)
(0.00865804 0.0265757 -5.01246e-21)
(0.0407643 0.0635718 -9.13928e-21)
(0.098069 0.0871559 -2.35263e-20)
(0.166602 0.100104 1.24212e-20)
(0.240516 0.104716 1.07377e-20)
(0.315253 0.103302 4.60782e-22)
(0.387418 0.0979939 -2.04609e-20)
(0.455008 0.0905504 -9.67793e-21)
(0.517086 0.0822871 8.13677e-21)
(0.573358 0.0740149 9.22189e-21)
(0.0070226 0.016039 8.70614e-22)
(0.0369479 0.0383502 -1.89169e-21)
(0.0929947 0.0525546 4.46424e-21)
(0.16092 0.0603377 -3.17728e-21)
(0.234696 0.063093 -2.95644e-21)
(0.309611 0.0622203 -2.12467e-21)
(0.38214 0.0590062 4.19345e-21)
(0.450184 0.0545121 1.69796e-20)
(0.512729 0.0495306 2.60185e-21)
(0.569452 0.0445485 -4.92032e-21)
(0.158066 0.0201585 -2.68588e-21)
(0.231775 0.0210751 2.71932e-21)
(0.30678 0.02078 1.3046e-21)
(0.379492 0.0197038 -1.38097e-21)
(0.447766 0.0182011 -6.71737e-21)
(0.510545 0.0165367 2.34088e-21)
(0.567495 0.0148728 -2.32587e-21)
(1.26984 0.279999 -1.07312e-22)
(1.26689 0.261043 -1.08207e-21)
(1.26093 0.24134 -2.0059e-22)
(1.25179 0.220999 -7.22958e-22)
(1.23932 0.200148 3.86118e-21)
(1.2234 0.178938 -3.63072e-21)
(1.20394 0.157549 2.33025e-21)
(1.18088 0.136189 9.23121e-21)
(1.27987 0.279795 -2.17674e-23)
(1.27977 0.26363 9.24205e-22)
(1.2771 0.246712 8.15004e-22)
(1.27167 0.229111 -3.97387e-21)
(1.26333 0.210912 1.30463e-21)
(1.25192 0.19222 -8.04321e-22)
(1.23731 0.173163 2.22802e-21)
(1.21941 0.153892 -4.338e-21)
(1.28461 0.276612 2.83307e-22)
(1.28695 0.26305 6.47689e-22)
(1.28716 0.248766 3.85703e-22)
(1.28506 0.233793 1.95921e-21)
(1.28047 0.218176 2.59924e-21)
(1.27323 0.201974 3.80759e-21)
(1.26317 0.185262 -1.12061e-22)
(1.25016 0.168137 7.22922e-22)
(1.28501 0.270718 -9.29435e-23)
(1.28925 0.25947 -1.10686e-21)
(1.2918 0.247562 -1.0287e-21)
(1.29247 0.235 7.62121e-22)
(1.2911 0.221794 -2.94946e-21)
(1.28749 0.207966 -6.90234e-21)
(1.28149 0.193551 3.06067e-21)
(1.27292 0.178602 3.71683e-22)
(1.28213 0.262619 1.11574e-23)
(1.28773 0.253375 5.44699e-22)
(1.29202 0.243566 1.39745e-21)
(1.29486 0.233174 5.17605e-22)
(1.29609 0.222189 -1.04693e-22)
(1.29552 0.210605 1.69552e-21)
(1.29298 0.198425 1.26689e-21)
(1.28831 0.185663 -1.48171e-21)
(1.27701 0.252852 2.04088e-25)
(1.28344 0.245278 5.484e-22)
(1.28892 0.237246 -9.80917e-22)
(1.29332 0.228731 -7.848e-22)
(1.2965 0.219705 5.07322e-22)
(1.29829 0.210144 1.11024e-21)
(1.29855 0.20003 -1.99534e-21)
(1.2971 0.189349 -9.43125e-22)
(1.27046 0.241924 4.85162e-23)
(1.2773 0.235694 -5.73597e-22)
(1.28348 0.229113 8.71627e-22)
(1.28888 0.222151 5.43916e-22)
(1.2934 0.214778 1.10929e-21)
(1.29691 0.20696 -4.80166e-22)
(1.29927 0.198663 -3.17393e-21)
(1.30032 0.189859 2.15819e-21)
(1.26312 0.230282 -1.16352e-22)
(1.27005 0.225107 -2.36113e-22)
(1.27653 0.219676 -2.8033e-22)
(1.28248 0.213962 -3.47505e-22)
(1.28782 0.207933 1.73261e-22)
(1.29245 0.201556 1.25036e-21)
(1.29625 0.194793 3.4707e-21)
(1.29911 0.187608 7.20489e-22)
(1.25542 0.218277 5.35637e-23)
(1.26221 0.213923 -8.89106e-25)
(1.26871 0.209389 -1.0733e-22)
(1.27486 0.204652 -5.38298e-22)
(1.2806 0.199686 -9.72458e-22)
(1.28586 0.194462 -1.32369e-21)
(1.29057 0.188945 -9.04811e-22)
(1.29462 0.183099 -1.32089e-21)
(1.24762 0.206159 2.9873e-23)
(1.25414 0.202447 4.13019e-22)
(1.26047 0.198609 3.59352e-23)
(1.26657 0.194631 3.68273e-22)
(1.27241 0.190492 2.36917e-23)
(1.27795 0.18617 -1.77564e-21)
(1.28312 0.181637 -1.24409e-22)
(1.28786 0.17686 1.09081e-21)
(1.23987 0.194098 -7.42255e-23)
(1.24604 0.190895 9.31116e-23)
(1.25209 0.187605 -1.15385e-22)
(1.258 0.184218 -2.41345e-22)
(1.26374 0.180721 -3.50436e-22)
(1.26929 0.177098 1.20007e-21)
(1.27461 0.173328 5.71988e-22)
(1.27965 0.169386 -1.01255e-21)
(1.23226 0.182201 2.29543e-23)
(1.23805 0.179412 -3.06542e-22)
(1.24376 0.176561 1.72953e-22)
(1.24938 0.173643 1.31314e-23)
(1.2549 0.17065 3.87565e-22)
(1.2603 0.167571 -3.90839e-22)
(1.26555 0.164393 5.2604e-22)
(1.27064 0.161097 7.68875e-22)
(1.22483 0.170533 1.23074e-23)
(1.23022 0.16809 1.23602e-22)
(1.23557 0.165601 -2.91544e-22)
(1.24086 0.163065 -4.85356e-23)
(1.24608 0.160476 -3.60818e-22)
(1.25124 0.157829 4.40455e-22)
(1.2563 0.155115 -1.70634e-21)
(1.26127 0.152322 -1.04068e-21)
(1.21757 0.159133 -2.66483e-23)
(1.22259 0.156984 3.33286e-23)
(1.22757 0.154802 2.25743e-22)
(1.23251 0.152584 -1.16285e-22)
(1.23741 0.15033 5.67188e-22)
(1.24227 0.148034 -2.02132e-22)
(1.24707 0.145693 3.34259e-22)
(1.25182 0.143299 5.98292e-22)
(1.2105 0.148015 2.35903e-23)
(1.21515 0.146124 -8.32052e-24)
(1.21978 0.144206 -1.59978e-22)
(1.22438 0.142262 4.12356e-22)
(1.22895 0.14029 -2.67651e-22)
(1.2335 0.13829 2.45964e-22)
(1.23801 0.136257 2.57382e-22)
(1.24248 0.134189 1.12514e-22)
(1.20362 0.13719 7.14842e-24)
(1.20792 0.135524 2.18315e-23)
(1.21221 0.133838 7.38894e-23)
(1.21649 0.132132 -2.59097e-22)
(1.22074 0.130406 -1.88033e-22)
(1.22497 0.128658 4.64707e-23)
(1.22918 0.126888 -2.18925e-22)
(1.23336 0.125093 2.24663e-22)
(1.23751 0.123271 -1.06823e-21)
(1.19692 0.126647 -1.18498e-23)
(1.20091 0.125183 -2.26844e-24)
(1.20488 0.123704 -1.46349e-24)
(1.20884 0.122209 1.6531e-22)
(1.21279 0.120699 1.22276e-22)
(1.21672 0.119173 -6.96418e-23)
(1.22063 0.11763 -1.78266e-22)
(1.22453 0.116071 -1.43019e-24)
(1.2284 0.114492 1.59441e-22)
(1.19042 0.116378 1.74099e-24)
(1.19411 0.115095 4.10688e-25)
(1.19779 0.113801 2.78702e-23)
(1.20146 0.112494 -4.82528e-23)
(1.20512 0.111177 -2.73282e-23)
(1.20877 0.109847 1.67704e-22)
(1.2124 0.108505 7.03438e-23)
(1.21601 0.107151 -2.80032e-22)
(1.21961 0.105784 -9.90565e-23)
(1.18411 0.106372 -5.19576e-25)
(1.18753 0.105251 -2.02461e-24)
(1.19095 0.104122 -1.67199e-23)
(1.19435 0.102985 -7.47441e-24)
(1.19774 0.101838 -7.88474e-23)
(1.20112 0.100683 8.36079e-23)
(1.20449 0.09952 -7.05083e-23)
(1.20784 0.0983477 -1.80564e-22)
(1.21118 0.0971663 3.00735e-22)
(1.17803 0.0966049 3.37271e-24)
(1.1812 0.0956313 -4.40738e-24)
(1.18437 0.0946514 -5.70867e-24)
(1.18753 0.0936654 -7.40732e-24)
(1.19067 0.0926732 5.03892e-24)
(1.19381 0.0916749 -3.92365e-23)
(1.19693 0.0906704 8.65522e-23)
(1.20004 0.0896597 9.96198e-23)
(1.20313 0.0886427 -1.90988e-23)
(1.17219 0.0870567 -8.88542e-24)
(1.17514 0.0862158 7.94552e-24)
(1.17808 0.0853705 -2.35568e-24)
(1.18102 0.084521 2.74284e-24)
(1.18394 0.0836672 -2.66327e-24)
(1.18685 0.0828092 2.00893e-24)
(1.18975 0.0819469 -1.5016e-23)
(1.19263 0.0810804 -9.32717e-23)
(1.1955 0.0802094 6.07968e-23)
(1.16664 0.0777001 -1.64242e-24)
(1.16938 0.0769795 1.7037e-23)
(1.17212 0.076256 9.29168e-24)
(1.17485 0.0755297 -5.58979e-24)
(1.17756 0.0748006 -1.54427e-23)
(1.18027 0.0740687 2.92623e-25)
(1.18296 0.073334 -1.76605e-23)
(1.18564 0.0725963 2.5834e-23)
(1.1883 0.0718557 -7.20069e-23)
(1.1614 0.0685051 7.54395e-25)
(1.16396 0.0678938 1.00683e-23)
(1.16651 0.0672809 -2.16361e-23)
(1.16906 0.0666662 1.08067e-23)
(1.17159 0.0660498 2.74849e-23)
(1.17411 0.0654316 -2.39096e-23)
(1.17661 0.0648116 2.05794e-23)
(1.1791 0.0641896 -1.73276e-24)
(1.18158 0.0635657 3.45874e-23)
(1.15653 0.0594367 1.12032e-23)
(1.15893 0.0589254 -2.35207e-23)
(1.16132 0.0584131 -1.6321e-23)
(1.1637 0.0579 2.54784e-23)
(1.16607 0.0573859 4.87005e-24)
(1.16842 0.0568707 3.9953e-23)
(1.17076 0.0563544 -7.6888e-25)
(1.17308 0.0558369 -1.6055e-23)
(1.17538 0.0553179 1.21876e-23)
(1.15208 0.0504551 7.54149e-25)
(1.15434 0.0500356 -7.1133e-24)
(1.15659 0.0496158 9.21005e-25)
(1.15883 0.0491956 -1.50985e-23)
(1.16105 0.0487749 -8.07341e-23)
(1.16326 0.0483536 5.82479e-23)
(1.16545 0.0479316 -2.54815e-23)
(1.16762 0.0475088 6.59896e-24)
(1.16977 0.047085 4.06926e-23)
(1.14814 0.041512 -1.11509e-23)
(1.15028 0.0411777 2.60957e-23)
(1.1524 0.0408434 -4.71481e-24)
(1.15452 0.040509 4.7768e-23)
(1.15661 0.0401745 -2.45563e-23)
(1.15869 0.0398397 -2.04832e-23)
(1.16076 0.0395044 -4.25656e-23)
(1.1628 0.0391686 9.14077e-24)
(1.16482 0.0388319 1.78216e-23)
(1.14477 0.0325535 -1.26357e-23)
(1.14681 0.0322988 6.2761e-24)
(1.14883 0.0320444 1.75772e-23)
(1.15084 0.03179 -4.55053e-23)
(1.15283 0.0315356 7.03945e-23)
(1.15481 0.031281 -4.69325e-23)
(1.15676 0.0310262 -1.56525e-23)
(1.1587 0.0307708 7.25978e-23)
(1.16061 0.0305147 3.01206e-23)
(1.14207 0.0235074 -1.85464e-24)
(1.14403 0.023329 3.17065e-23)
(1.14597 0.0231509 -1.04134e-23)
(1.14789 0.0229729 6.77709e-23)
(1.1498 0.0227949 -7.13795e-23)
(1.15169 0.0226168 -1.39325e-23)
(1.15356 0.0224384 -2.90675e-23)
(1.15541 0.0222595 7.68069e-23)
(1.15723 0.02208 -1.28014e-22)
(1.14014 0.0143041 -2.50098e-25)
(1.14204 0.014198 -7.51929e-24)
(1.14392 0.0140919 -8.56112e-24)
(1.14578 0.0139859 2.99146e-23)
(1.14763 0.0138799 -5.2504e-23)
(1.14945 0.0137736 5.24552e-23)
(1.15126 0.0136671 -5.13529e-23)
(1.15305 0.0135601 2.4542e-23)
(1.15481 0.0134525 3.85502e-23)
(1.13907 0.00481878 -8.8843e-25)
(1.14093 0.00478783 2.49908e-23)
(1.14277 0.00475686 -5.06667e-23)
(1.1446 0.00472575 -4.04822e-23)
(1.14641 0.00469441 3.04578e-23)
(1.1482 0.00466271 -3.15506e-23)
(1.14997 0.00463055 4.02136e-23)
(1.15173 0.00459782 1.07437e-23)
(1.15346 0.00456441 1.44621e-23)
(0.954493 0.41381 2.76973e-21)
(0.979156 0.419486 -1.9966e-21)
(1.00271 0.424543 6.42098e-21)
(1.02571 0.428262 -1.35809e-21)
(1.04861 0.430501 1.41343e-22)
(1.07115 0.431259 -2.41323e-22)
(1.09312 0.430526 9.39e-22)
(1.11443 0.428307 5.05298e-22)
(1.13495 0.424628 -1.92666e-23)
(1.15458 0.419523 -7.51468e-22)
(1.17319 0.413034 -9.45662e-22)
(1.19055 0.405174 1.16884e-21)
(1.20663 0.395922 -3.00585e-21)
(1.22136 0.385416 -9.22878e-22)
(1.23446 0.373688 1.74941e-21)
(1.24577 0.360767 -2.40689e-21)
(1.25516 0.346698 4.46912e-22)
(1.26244 0.331529 1.58624e-22)
(1.26743 0.315316 9.47438e-22)
(1.26996 0.298116 1.58781e-22)
(0.977491 0.395809 -4.31848e-21)
(1.00052 0.399519 3.20236e-21)
(1.0221 0.402705 -8.01825e-21)
(1.04259 0.405029 -7.07549e-21)
(1.06301 0.406319 -6.14065e-22)
(1.08325 0.406535 6.1755e-22)
(1.10309 0.405643 -7.13457e-22)
(1.12247 0.40362 -1.16461e-21)
(1.14128 0.400457 2.50669e-22)
(1.15944 0.396159 4.42453e-22)
(1.17682 0.390729 -1.07981e-22)
(1.19326 0.384176 -1.19424e-21)
(1.20873 0.376577 1.13879e-21)
(1.22313 0.367958 -8.68092e-22)
(1.23624 0.358289 2.40106e-22)
(1.24792 0.347591 -5.8804e-22)
(1.25806 0.335896 2.46694e-21)
(1.26649 0.323236 -5.12284e-22)
(1.27305 0.309641 -7.96062e-22)
(1.27757 0.295147 4.58732e-24)
(0.998893 0.378456 -2.26758e-21)
(1.01953 0.381259 -4.77435e-21)
(1.03893 0.383216 2.02357e-21)
(1.05723 0.384387 5.4322e-21)
(1.07546 0.384728 -1.41046e-21)
(1.09359 0.384231 1.69183e-24)
(1.11144 0.382898 -9.61552e-22)
(1.12892 0.380718 -1.07437e-21)
(1.14599 0.377686 -4.78914e-22)
(1.16256 0.373801 -2.47656e-23)
(1.17855 0.369067 1.0173e-21)
(1.19384 0.363501 -1.40763e-22)
(1.20845 0.35715 -2.51752e-22)
(1.22229 0.349888 1.00103e-22)
(1.23508 0.341806 -1.93146e-21)
(1.24679 0.332923 -1.30133e-21)
(1.25731 0.323237 -1.04055e-21)
(1.2665 0.312753 -2.72941e-22)
(1.27422 0.30148 -5.86473e-22)
(1.28031 0.289428 -2.92172e-22)
(1.01845 0.361108 -4.22269e-21)
(1.03693 0.362817 6.46437e-21)
(1.05432 0.363734 -3.01539e-21)
(1.07069 0.363996 1.77888e-22)
(1.08695 0.363606 -8.05449e-22)
(1.10313 0.362562 1.82293e-21)
(1.11906 0.360874 7.96504e-22)
(1.13471 0.358548 1.90912e-21)
(1.15003 0.355584 1.21188e-22)
(1.16499 0.351986 1.91595e-22)
(1.17954 0.347759 -4.9037e-22)
(1.19361 0.342916 1.14789e-21)
(1.20704 0.337475 -8.40181e-23)
(1.21988 0.331328 -9.66792e-22)
(1.23212 0.324562 2.9015e-21)
(1.24355 0.317183 1.34297e-21)
(1.25409 0.309176 -3.74632e-22)
(1.26362 0.300531 5.39627e-22)
(1.27204 0.291244 9.18543e-22)
(1.27922 0.281309 1.10186e-22)
(1.03568 0.343635 7.32763e-21)
(1.05223 0.344426 -4.84046e-21)
(1.06778 0.344553 1.7851e-21)
(1.08244 0.344148 -1.51863e-21)
(1.09696 0.343227 9.09482e-22)
(1.11141 0.341787 -7.99372e-22)
(1.12564 0.339843 6.5246e-22)
(1.13962 0.337406 -1.02685e-21)
(1.15334 0.334485 6.75139e-22)
(1.16677 0.331086 -1.54795e-22)
(1.17989 0.327214 -5.12694e-24)
(1.19265 0.322866 -4.40702e-22)
(1.20497 0.318042 2.86659e-22)
(1.21687 0.312796 -2.72892e-22)
(1.22831 0.307102 -8.49558e-22)
(1.23917 0.30093 1.88772e-23)
(1.24939 0.294272 -2.25894e-22)
(1.25889 0.287125 -9.34024e-22)
(1.26759 0.279477 -3.5302e-22)
(1.27538 0.271313 -4.14176e-23)
(1.05072 0.325947 2.32235e-22)
(1.0655 0.326069 3.97906e-21)
(1.07939 0.325642 1.22157e-21)
(1.0925 0.324781 2.87814e-21)
(1.10549 0.323505 -4.5968e-23)
(1.11839 0.321815 5.55267e-22)
(1.13111 0.319723 -1.59937e-21)
(1.14361 0.317245 -7.86057e-22)
(1.1559 0.314393 -6.51747e-22)
(1.16795 0.311178 -5.64567e-23)
(1.17974 0.30761 1.1709e-22)
(1.19126 0.303695 -1.96843e-23)
(1.20247 0.299445 9.91036e-23)
(1.2134 0.29488 7.21644e-22)
(1.224 0.289948 -6.14754e-22)
(1.23416 0.284671 -2.13833e-22)
(1.24387 0.27905 5.89849e-22)
(1.25308 0.273074 6.65405e-22)
(1.26173 0.266728 -4.89258e-22)
(1.26974 0.259994 2.07464e-23)
(1.06373 0.308223 -3.90089e-21)
(1.07691 0.307857 -3.19112e-21)
(1.08928 0.307044 6.67568e-22)
(1.101 0.305878 1.20111e-21)
(1.11261 0.304381 -2.36618e-21)
(1.12415 0.302553 -3.24444e-21)
(1.13553 0.300405 -1.39076e-21)
(1.14672 0.297953 2.17114e-21)
(1.15773 0.29521 3.12438e-22)
(1.16856 0.292186 -1.41905e-23)
(1.17919 0.288893 -2.95785e-23)
(1.18961 0.285341 -1.06522e-22)
(1.19981 0.281543 -3.25366e-22)
(1.20973 0.277508 7.5865e-22)
(1.21941 0.273192 2.07537e-22)
(1.22884 0.268628 -4.11708e-22)
(1.23796 0.263822 -4.06888e-22)
(1.24673 0.258763 1.67289e-22)
(1.2551 0.253438 5.11619e-22)