/*--------------------------------*- C++ -*----------------------------------*\
  =========                 |
  \\      /  F ield         | OpenFOAM: The Open Source CFD Toolbox
   \\    /   O peration     | Website:  https://openfoam.org
    \\  /    A nd           | Version:  7
     \\/     M anipulation  |
\*---------------------------------------------------------------------------*/
FoamFile
{
    version     2.0;
    format      ascii;
    class       volScalarField;
    location    "235";
    object      p;
}
// * * * * * * * * * * * * * * * * * * * * * * * * * * * * * * * * * * * * * //

dimensions      [0 2 -2 0 0 0 0];

internalField   nonuniform List<scalar> 
2125
(
-0.429234
-0.430319
-0.430805
-0.431955
-0.434401
-0.43848
-0.444402
-0.452431
-0.462768
-0.475724
-0.435763
-0.436162
-0.436458
-0.437606
-0.440278
-0.444877
-0.451669
-0.460988
-0.47316
-0.488444
-0.44197
-0.441664
-0.441748
-0.442841
-0.44566
-0.450666
-0.458173
-0.46856
-0.48226
-0.499347
-0.44773
-0.44673
-0.446571
-0.447548
-0.450413
-0.455691
-0.46373
-0.474934
-0.489835
-0.50823
-0.452949
-0.451286
-0.450847
-0.451638
-0.454438
-0.459831
-0.468202
-0.479961
-0.495702
-0.514914
-0.457558
-0.455281
-0.454531
-0.455057
-0.457666
-0.463007
-0.471497
-0.483537
-0.499828
-0.519282
-0.461516
-0.458695
-0.457608
-0.457786
-0.460074
-0.465186
-0.473583
-0.485629
-0.502223
-0.521366
-0.464815
-0.461535
-0.460091
-0.459843
-0.461676
-0.466381
-0.474477
-0.486263
-0.502963
-0.521289
-0.467474
-0.463839
-0.462024
-0.461277
-0.462527
-0.466653
-0.474256
-0.485523
-0.502195
-0.519222
-0.469542
-0.465664
-0.463474
-0.462166
-0.46272
-0.466108
-0.473045
-0.483555
-0.500132
-0.515386
-0.471094
-0.46709
-0.464531
-0.462615
-0.462378
-0.464893
-0.471021
-0.48056
-0.497039
-0.510048
-0.47223
-0.468213
-0.465298
-0.462746
-0.461651
-0.463192
-0.468404
-0.476802
-0.493228
-0.503504
-0.473073
-0.469144
-0.465892
-0.462695
-0.46071
-0.461217
-0.465445
-0.4726
-0.489036
-0.496282
-0.473766
-0.470004
-0.466437
-0.462607
-0.459735
-0.4592
-0.462419
-0.468323
-0.484745
-0.488954
-0.474469
-0.470923
-0.467064
-0.462633
-0.458916
-0.457384
-0.459596
-0.464359
-0.480511
-0.482149
-0.475355
-0.472039
-0.467911
-0.462928
-0.458442
-0.456006
-0.457235
-0.461093
-0.47633
-0.476331
-0.476608
-0.473492
-0.469113
-0.463641
-0.458492
-0.455281
-0.45556
-0.458807
-0.472128
-0.471447
-0.478408
-0.475419
-0.470804
-0.464916
-0.45922
-0.455375
-0.45475
-0.457599
-0.467862
-0.467041
-0.480922
-0.477945
-0.473103
-0.466869
-0.460742
-0.456388
-0.454907
-0.457338
-0.463599
-0.463039
-0.48427
-0.481188
-0.476105
-0.469584
-0.463122
-0.458332
-0.45602
-0.457668
-0.459563
-0.460843
-0.488582
-0.485204
-0.47987
-0.473103
-0.466366
-0.461143
-0.457959
-0.458174
-0.456262
-0.46102
-0.493875
-0.490074
-0.484432
-0.477427
-0.470426
-0.464702
-0.460499
-0.458676
-0.453795
-0.453127
-0.500206
-0.495795
-0.489792
-0.482526
-0.47522
-0.468859
-0.46339
-0.459146
-0.450976
-0.444551
-0.502367
-0.495938
-0.488357
-0.480648
-0.473461
-0.466434
-0.45942
-0.447816
-0.436523
-0.502854
-0.494874
-0.486614
-0.478367
-0.469459
-0.459366
-0.444355
-0.428767
-0.510525
-0.50204
-0.493034
-0.483448
-0.4723
-0.458906
-0.440553
-0.421432
-0.509819
-0.499834
-0.488578
-0.474815
-0.457982
-0.436458
-0.41432
-0.506939
-0.49362
-0.476887
-0.45657
-0.432081
-0.40738
-0.47842
-0.454653
-0.427434
-0.400509
-0.452222
-0.42251
-0.393633
-0.417286
-0.386671
-0.501968
-0.53508
-0.557828
-0.54156
-0.471308
-0.379092
-0.303299
-0.270642
-0.273656
-0.282958
-0.255763
-0.195545
-0.14771
-0.119022
-0.107465
-0.120743
-0.135254
-0.135645
-0.116381
-0.0903575
-0.0817815
-0.0660686
-0.0475134
-0.0635874
-0.075046
-0.0664744
-0.0477024
-0.0460043
-0.0219904
-0.0173982
-0.519026
-0.55666
-0.582826
-0.565854
-0.490416
-0.388831
-0.303615
-0.260167
-0.254864
-0.261516
-0.238397
-0.184657
-0.142666
-0.118889
-0.110026
-0.126623
-0.143909
-0.143484
-0.121158
-0.0917121
-0.081994
-0.0657056
-0.0465258
-0.0623902
-0.0737984
-0.0659184
-0.0476391
-0.0462154
-0.0217673
-0.0174052
-0.533797
-0.575214
-0.60437
-0.587093
-0.506751
-0.396469
-0.302469
-0.248989
-0.236
-0.23942
-0.219951
-0.172934
-0.137092
-0.118466
-0.11243
-0.132305
-0.152422
-0.151097
-0.125729
-0.0929766
-0.0821274
-0.0654024
-0.0456246
-0.0612177
-0.0725498
-0.0653301
-0.0475363
-0.0464442
-0.021617
-0.0174159
-0.545706
-0.590544
-0.622358
-0.605022
-0.520385
-0.402247
-0.300133
-0.237492
-0.217308
-0.217159
-0.20058
-0.160441
-0.13098
-0.117705
-0.114619
-0.137698
-0.160675
-0.158416
-0.130075
-0.0941509
-0.0821822
-0.065151
-0.0448061
-0.0600781
-0.0713105
-0.0647126
-0.0473935
-0.046687
-0.021541
-0.0174297
-0.5547
-0.602387
-0.636654
-0.619569
-0.531417
-0.406428
-0.296919
-0.226065
-0.199019
-0.195236
-0.180463
-0.147266
-0.124328
-0.11656
-0.116532
-0.142713
-0.168552
-0.16538
-0.134179
-0.0952352
-0.0821601
-0.064942
-0.0440657
-0.0589797
-0.0700901
-0.0640689
-0.0472103
-0.0469394
-0.0215402
-0.0174458
-0.560799
-0.610716
-0.647232
-0.630739
-0.539965
-0.409271
-0.293158
-0.21506
-0.181387
-0.174105
-0.159824
-0.133515
-0.117154
-0.114991
-0.118107
-0.147275
-0.175945
-0.171931
-0.138027
-0.0962302
-0.0820632
-0.0647646
-0.0433981
-0.0579302
-0.0688977
-0.0634022
-0.0469861
-0.0471968
-0.021615
-0.0174635
-0.564097
-0.615669
-0.654183
-0.638589
-0.546151
-0.410999
-0.289188
-0.204769
-0.164689
-0.154116
-0.138995
-0.119309
-0.109488
-0.112962
-0.119284
-0.151317
-0.182762
-0.178024
-0.141607
-0.097137
-0.0818942
-0.0646077
-0.042798
-0.0569371
-0.0677415
-0.0627157
-0.0467201
-0.0474541
-0.0217655
-0.0174817
-0.564809
-0.617498
-0.657697
-0.643221
-0.550095
-0.411802
-0.285315
-0.195423
-0.149215
-0.135504
-0.119772
-0.1048
-0.101381
-0.110443
-0.120006
-0.154788
-0.188923
-0.183615
-0.144909
-0.0979572
-0.0816561
-0.0644593
-0.0422598
-0.0560067
-0.0666283
-0.0620122
-0.0464118
-0.047706
-0.0219908
-0.0174996
-0.563239
-0.61652
-0.658019
-0.644784
-0.551913
-0.411831
-0.281788
-0.187201
-0.135231
-0.118376
-0.0996722
-0.0901648
-0.0929011
-0.107407
-0.120222
-0.15765
-0.194369
-0.188673
-0.147925
-0.0986931
-0.0813526
-0.0643076
-0.0417781
-0.0551444
-0.0655637
-0.0612946
-0.0460604
-0.0479467
-0.0222899
-0.0175162
-0.559731
-0.613099
-0.655438
-0.643492
-0.551712
-0.4112
-0.278787
-0.180236
-0.122958
-0.102823
-0.0810449
-0.0756492
-0.0841258
-0.103836
-0.119889
-0.159879
-0.199053
-0.193171
-0.150648
-0.099347
-0.0809874
-0.0641411
-0.0413479
-0.0543545
-0.0645517
-0.0605653
-0.0456653
-0.0481705
-0.0226613
-0.0175305
-0.554643
-0.608038
-0.650281
-0.639565
-0.549611
-0.409992
-0.276417
-0.17462
-0.11253
-0.0888934
-0.0644066
-0.0614843
-0.0751412
-0.0997136
-0.118969
-0.161466
-0.202949
-0.197089
-0.15307
-0.0999219
-0.0805647
-0.0639492
-0.0409641
-0.05364
-0.0635944
-0.0598263
-0.045226
-0.0483712
-0.0231032
-0.0175412
-0.54827
-0.602623
-0.642807
-0.633183
-0.545767
-0.408294
-0.274719
-0.170399
-0.103994
-0.0766098
-0.0499815
-0.0479034
-0.0660377
-0.0950306
-0.117435
-0.162412
-0.206042
-0.200415
-0.155188
-0.100422
-0.0800896
-0.063722
-0.040622
-0.0530029
-0.0626921
-0.0590789
-0.044742
-0.0485427
-0.0236136
-0.0175473
-0.540854
-0.588829
-0.633027
-0.624524
-0.540344
-0.406201
-0.273698
-0.16759
-0.0973229
-0.0659875
-0.037805
-0.035147
-0.0568985
-0.0897777
-0.115263
-0.162731
-0.208333
-0.203142
-0.156995
-0.100852
-0.0795677
-0.0634503
-0.0403163
-0.0524438
-0.0618434
-0.0583241
-0.0442129
-0.0486786
-0.0241896
-0.0175476
-0.533098
-0.579315
-0.621241
-0.613793
-0.533526
-0.403808
-0.273345
-0.166173
-0.0924391
-0.0570372
-0.0277501
-0.0234468
-0.0477894
-0.0839461
-0.112438
-0.162443
-0.209833
-0.205265
-0.158483
-0.101214
-0.0790042
-0.0631231
-0.0400398
-0.0519609
-0.0610447
-0.057562
-0.0436386
-0.0487727
-0.0248289
-0.0175405
-0.52486
-0.567956
-0.60762
-0.601212
-0.525477
-0.401147
-0.273551
-0.166007
-0.0891786
-0.0497195
-0.0195479
-0.0129955
-0.0387547
-0.077525
-0.108946
-0.161578
-0.210566
-0.206788
-0.159637
-0.101498
-0.0783999
-0.062729
-0.0397837
-0.0515471
-0.0602898
-0.056792
-0.043019
-0.0488184
-0.0255296
-0.017525
-0.517071
-0.55596
-0.592544
-0.58701
-0.516292
-0.398076
-0.273998
-0.166746
-0.0872667
-0.0439174
-0.0128486
-0.00390803
-0.0298208
-0.0704986
-0.104772
-0.160167
-0.210562
-0.207726
-0.160448
-0.101698
-0.0777573
-0.0622671
-0.0395451
-0.0511954
-0.0595686
-0.0560125
-0.0423543
-0.0488095
-0.0262905
-0.0175
-0.508266
-0.543404
-0.576345
-0.571559
-0.506225
-0.394673
-0.274671
-0.168358
-0.0866858
-0.0396771
-0.00745011
0.00377335
-0.021004
-0.0628433
-0.0998968
-0.158242
-0.209857
-0.208099
-0.160946
-0.101876
-0.0771048
-0.0617624
-0.0393366
-0.0509239
-0.0588742
-0.0552203
-0.0416448
-0.0487396
-0.027123
-0.0174628
-0.499099
-0.530175
-0.559206
-0.555392
-0.496221
-0.392239
-0.276978
-0.172054
-0.0882838
-0.037564
-0.00353735
0.0099388
-0.0124183
-0.0545254
-0.0943078
-0.155812
-0.208418
-0.207788
-0.161177
-0.102172
-0.0765059
-0.0612388
-0.0391678
-0.0507796
-0.0582277
-0.0544143
-0.0408912
-0.0486025
-0.0282086
-0.0174087
-0.490307
-0.516022
-0.54076
-0.538157
-0.48632
-0.391083
-0.281227
-0.177941
-0.0921036
-0.0374433
-0.000809498
0.014712
-0.00446524
-0.0455546
-0.0879325
-0.152997
-0.206087
-0.206516
-0.160998
-0.102464
-0.0759249
-0.0605978
-0.038959
-0.0506903
-0.0576288
-0.0536007
-0.0400985
-0.048392
-0.0290559
-0.0173348
-0.482635
-0.502278
-0.521837
-0.518142
-0.471119
-0.382882
-0.278362
-0.177909
-0.0923179
-0.0351366
0.00357987
0.0198902
0.00359439
-0.0360618
-0.0809394
-0.149475
-0.203788
-0.205175
-0.159904
-0.101738
-0.0749704
-0.059542
-0.0384858
-0.0502264
-0.0567169
-0.0527198
-0.0392563
-0.0481086
-0.0300557
-0.0172612
-0.4689
-0.489384
-0.50409
-0.495796
-0.447755
-0.362272
-0.262368
-0.16638
-0.0841843
-0.0271827
0.0120381
0.0295533
0.019933
-0.0188674
-0.0700968
-0.147612
-0.20706
-0.207316
-0.158148
-0.0992442
-0.0731612
-0.0578946
-0.0375901
-0.0487181
-0.0543423
-0.0511333
-0.037961
-0.0477111
-0.0320303
-0.0172132
-0.452478
-0.468027
-0.473718
-0.460036
-0.413541
-0.334955
-0.243209
-0.154362
-0.0771549
-0.0209384
0.0184818
0.0370179
0.0316818
-0.00401863
-0.059971
-0.142114
-0.205271
-0.202329
-0.153177
-0.0958256
-0.0701495
-0.0554786
-0.0370579
-0.047856
-0.0535667
-0.0500477
-0.03637
-0.0467212
-0.0338446
-0.0170324
-0.433316
-0.443342
-0.441188
-0.424051
-0.380618
-0.309546
-0.225826
-0.143544
-0.0708422
-0.0157643
0.0238528
0.0443962
0.0435714
0.00902991
-0.0519604
-0.135909
-0.200908
-0.195297
-0.147135
-0.092004
-0.0668451
-0.0528849
-0.0364416
-0.0470375
-0.0530774
-0.0490483
-0.0346263
-0.0453411
-0.0355368
-0.0168231
-0.411373
-0.416813
-0.408803
-0.38938
-0.349141
-0.285182
-0.209161
-0.133267
-0.0650401
-0.0115305
0.0281808
0.0516103
0.0563114
0.0233087
-0.0437013
-0.129373
-0.1953
-0.186661
-0.139799
-0.0876795
-0.0632805
-0.0499878
-0.0356955
-0.0462052
-0.052404
-0.0478191
-0.0327119
-0.0437038
-0.0371653
-0.0165892
-0.386838
-0.389449
-0.377458
-0.356565
-0.31944
-0.262174
-0.193449
-0.123665
-0.0597472
-0.00813739
0.0314654
0.0580418
0.0690112
0.0386342
-0.0345403
-0.122396
-0.18782
-0.176073
-0.131162
-0.0828526
-0.0594513
-0.0467846
-0.0347694
-0.0453291
-0.051562
-0.0463707
-0.0306528
-0.0418365
-0.0386618
-0.0163202
-0.360859
-0.362025
-0.347636
-0.325976
-0.291786
-0.240646
-0.178691
-0.11472
-0.0549405
-0.00546651
0.0337785
0.0632634
0.0806987
0.0535721
-0.024854
-0.114604
-0.177821
-0.163529
-0.121314
-0.0775244
-0.0553627
-0.0432577
-0.0336134
-0.0443626
-0.0505672
-0.0447457
-0.0284672
-0.0396902
-0.0399437
-0.0160088
-0.334576
-0.335053
-0.319553
-0.297737
-0.266244
-0.220613
-0.164883
-0.106416
-0.0506282
-0.00341896
0.0351907
0.0669514
0.090473
0.0665567
-0.015097
-0.105608
-0.165003
-0.149189
-0.110412
-0.0717131
-0.0510227
-0.039398
-0.0321692
-0.0432452
-0.0493694
-0.0429244
-0.026157
-0.0372246
-0.0409334
-0.0156466
-0.30862
-0.308858
-0.293225
-0.271773
-0.242755
-0.202038
-0.152001
-0.0987204
-0.0468182
-0.00193105
0.0357382
0.0688819
0.0973942
0.0763087
-0.00559877
-0.0949736
-0.14795
-0.13333
-0.0986908
-0.0654562
-0.0464401
-0.0351995
-0.0303673
-0.041896
-0.0478825
-0.0408526
-0.023727
-0.0344424
-0.0415517
-0.0152237
-0.283418
-0.283671
-0.268578
-0.247919
-0.221202
-0.184853
-0.14001
-0.0915933
-0.0435041
-0.000981969
0.0354581
0.06895
0.100574
0.0821556
0.00346781
-0.0822108
-0.12939
-0.116449
-0.0864628
-0.0588121
-0.0416239
-0.0306592
-0.0281301
-0.0402096
-0.0460023
-0.0384725
-0.0211965
-0.0313739
-0.0417161
-0.0147284
-0.259276
-0.259643
-0.245517
-0.225981
-0.201445
-0.16898
-0.128871
-0.0850009
-0.0406583
-0.000568844
0.0344058
0.0670766
0.0996805
0.0843545
0.012193
-0.0670502
-0.108891
-0.0991578
-0.074091
-0.0518598
-0.0365821
-0.0257743
-0.0253759
-0.038056
-0.043611
-0.0357294
-0.0185969
-0.0280605
-0.0413451
-0.014148
-0.236355
-0.236864
-0.223951
-0.205776
-0.183335
-0.154337
-0.118538
-0.0789144
-0.0382378
-0.000672358
0.0326535
0.0639516
0.0952359
0.083823
0.0206046
-0.0501629
-0.087724
-0.0821543
-0.0619466
-0.0446937
-0.0313242
-0.0205462
-0.0220165
-0.03528
-0.0405773
-0.0325643
-0.0159642
-0.0245563
-0.0403632
-0.0134689
-0.214745
-0.215393
-0.20381
-0.187143
-0.166731
-0.140848
-0.108969
-0.0733071
-0.0361942
-0.0012439
0.0302638
0.059783
0.0882899
0.0813268
0.0281312
-0.0332441
-0.0673817
-0.0660816
-0.0503536
-0.0374142
-0.025866
-0.0149897
-0.0179593
-0.0316974
-0.036754
-0.0289085
-0.0133343
-0.0209292
-0.0387076
-0.0126771
-0.194497
-0.195265
-0.185037
-0.169951
-0.151505
-0.128436
-0.10012
-0.0681492
-0.0344782
-0.00220844
0.0273176
0.0547491
0.0799095
0.0770853
0.0338378
-0.018123
-0.0490614
-0.0513958
-0.0395455
-0.0301208
-0.0202346
-0.00914137
-0.0131222
-0.0270979
-0.0319774
-0.0246818
-0.0107377
-0.0172551
-0.0363369
-0.0117589
-0.175633
-0.176492
-0.167586
-0.15409
-0.137539
-0.11703
-0.0919476
-0.0634082
-0.0330386
-0.00347604
0.0239207
0.049038
0.0708956
0.0711996
0.0371421
-0.00588058
-0.0334415
-0.0383242
-0.0296576
-0.0229107
-0.0144737
-0.0030632
-0.00745319
-0.0212639
-0.0260721
-0.0197996
-0.00818797
-0.0136076
-0.033242
-0.010703
-0.158149
-0.15907
-0.151412
-0.139472
-0.12473
-0.106558
-0.0844096
-0.0590489
-0.0318214
-0.00495471
0.0202045
0.0429084
0.0617972
0.0641093
0.0381394
0.0032952
-0.0206316
-0.0269157
-0.0207483
-0.0158795
-0.00865113
0.00315191
-0.00094525
-0.0140023
-0.0188736
-0.0141915
-0.00566765
-0.0100479
-0.0294588
-0.00950284
-0.142023
-0.142979
-0.136475
-0.126019
-0.112989
-0.0969543
-0.0774648
-0.055035
-0.0307719
-0.00655238
0.0163209
0.0366545
0.0530005
0.0564767
0.0373685
0.00978694
-0.0104023
-0.0171163
-0.0128253
-0.00912259
-0.00286214
0.00937094
0.00633323
-0.00520356
-0.0102711
-0.00784018
-0.00311935
-0.00661416
-0.0250759
-0.00816036
-0.127222
-0.12819
-0.12273
-0.113666
-0.102237
-0.0881565
-0.0710728
-0.0513309
-0.029838
-0.00817778
0.0124251
0.0305389
0.0447651
0.04889
0.0354141
0.0141351
-0.00239607
-0.00881928
-0.00586413
-0.00273986
0.00277567
0.0154132
0.0141923
0.00505552
-0.000286922
-0.000839629
-0.000449901
-0.0033154
-0.0202375
-0.00669083
-0.1137
-0.114662
-0.110134
-0.102355
-0.0924081
-0.0801078
-0.0651955
-0.0479026
-0.0289726
-0.00974414
0.00865806
0.0247666
0.0372477
0.0417427
0.0327656
0.0168488
0.00375157
-0.00189779
0.000183407
0.00316369
0.00813928
0.0210544
0.022258
0.0163835
0.010802
0.00654939
0.00244641
-0.000142031
-0.015136
-0.0051281
-0.101408
-0.102349
-0.0986425
-0.092033
-0.083444
-0.0727578
-0.0597977
-0.0447195
-0.0281352
-0.0111742
0.00512903
0.0194745
0.0305322
0.0352517
0.0297944
0.0183519
0.00837408
0.00378582
0.00538324
0.00849132
0.0131263
0.0260706
0.0299273
0.027934
0.0222921
0.0138841
0.00564343
0.00291511
-0.00999156
-0.00352626
-0.0902908
-0.0912029
-0.0882127
-0.0826545
-0.0752956
-0.0660632
-0.0548483
-0.0417556
-0.0272935
-0.0124052
0.00191135
0.0147514
0.0246459
0.0295096
0.0267606
0.0189849
0.0117705
0.00837537
0.00980863
0.0131764
0.0176558
0.0303217
0.0365037
0.0383504
0.0329403
0.020618
0.00916356
0.00585184
-0.00502705
-0.00195774
-0.08029
-0.0811728
-0.0788018
-0.0741777
-0.0679214
-0.0599875
-0.0503223
-0.0389932
-0.0264259
-0.0133784
-0.000639038
0.01066
0.0195754
0.0245333
0.0238381
0.0190178
0.0141978
0.0120152
0.0135304
0.0171864
0.0216457
0.0337508
0.0415037
0.0462062
0.0413756
0.0263374
0.0129636
0.00864541
-0.000460964
-0.000502282
-0.0713362
-0.0722122
-0.0703721
-0.0665669
-0.0612871
-0.0545021
-0.0462011
-0.0364235
-0.0255301
-0.014119
-0.00289889
0.00717019
0.0152752
0.020294
0.0211362
0.0186604
0.0158707
0.0148463
0.0166126
0.0205211
0.0250312
0.0363066
0.0447233
0.0501823
0.0468072
0.0309157
0.0168517
0.0112292
0.00349576
0.000781268
-0.0635693
-0.0643088
-0.062894
-0.0597924
-0.0553656
-0.0495861
-0.0424733
-0.0340464
-0.0246144
-0.014628
-0.00462666
0.00426097
0.0116845
0.0167365
0.018715
0.0180734
0.016969
0.0170015
0.0191133
0.0232111
0.0277888
0.0380184
0.0463522
0.051688
0.0494187
0.0343728
0.0204679
0.0135008
0.00668713
0.00186401
-0.0566342
-0.0573673
-0.0563253
-0.0538263
-0.0501361
-0.0452257
-0.0391354
-0.031871
-0.0237008
-0.0149682
-0.00618219
0.00185526
0.00873088
0.013796
0.0166029
0.0173757
0.0176384
0.0186006
0.0210912
0.0253122
0.0299405
0.0390004
0.0467758
0.0515628
0.0500127
0.0367342
0.0234923
0.0153904
0.00907053
0.00274022
-0.050675
-0.0513796
-0.0506436
-0.0486517
-0.0455868
-0.0414156
-0.0361912
-0.0299114
-0.022812
-0.015153
-0.00739752
-7.88855e-05
0.006346
0.0114056
0.0148075
0.0166527
0.0179977
0.0197498
0.0226098
0.0268958
0.0315418
0.0394274
0.0464088
0.0506053
0.0494069
0.038088
0.0257911
0.0169007
0.010713
0.00341578
-0.0456538
-0.0463273
-0.0458366
-0.0442617
-0.0417156
-0.0381591
-0.0336518
-0.0281879
-0.0219747
-0.0152053
-0.00828352
-0.00158268
0.00446613
0.00950395
0.0133218
0.0159602
0.0181436
0.0205431
0.0237356
0.028042
0.0326713
0.0394878
0.0456155
0.0493056
0.0482296
0.0386696
0.0274132
0.0180784
0.0117498
0.00390245
-0.0415587
-0.0422044
-0.0419041
-0.040661
-0.0385315
-0.0354696
-0.0315371
-0.0267269
-0.021222
-0.015164
-0.00890128
-0.00270801
0.00303183
0.00803718
0.0121377
0.0153388
0.0181548
0.0210628
0.024536
0.0288334
0.03342
0.0393491
0.0446736
0.0479537
0.0469162
0.0387595
0.0284752
0.0189791
0.0123394
0.00421911
-0.0384008
-0.0390222
-0.0388625
-0.0378697
-0.0360571
-0.0333723
-0.0298763
-0.0255619
-0.0205929
-0.015074
-0.00930771
-0.00350473
0.00199274
0.00696146
0.0112454
0.0148366
0.0180987
0.0213811
0.0250738
0.0293481
0.0338794
0.0391381
0.043786
0.0467395
0.0457414
0.0386012
0.029105
0.0196429
0.0126328
0.00439768
-0.0362149
-0.0368178
-0.0367519
-0.0359291
-0.0343335
-0.0319073
-0.0287097
-0.024734
-0.0201304
-0.0149793
-0.0095508
-0.0040175
0.00131006
0.00624596
0.01064
0.01448
0.0180287
0.0215576
0.0254021
0.0296522
0.0341317
0.0389415
0.043098
0.0458164
0.0448678
0.0383803
0.0294308
0.0200885
0.0127519
0.00448145
-0.0350596
-0.0356555
-0.0356388
-0.0349053
-0.0334233
-0.0311329
-0.0280907
-0.0242919
-0.0198773
-0.0149183
-0.00966457
-0.00427393
0.000964671
0.00587969
0.0103273
0.0142897
0.017983
0.0216354
0.0255599
0.0297933
0.0342419
0.03882
0.0427115
0.0453072
0.0443964
0.0382312
0.0295646
0.0203202
0.0127823
0.0045088
-0.352346
-0.360073
-0.367711
-0.375336
-0.383031
-0.390899
-0.399044
-0.407719
-0.416973
-0.428156
-0.440036
-0.46018
-0.330222
-0.338068
-0.345898
-0.353805
-0.361874
-0.370285
-0.37908
-0.388799
-0.398921
-0.411474
-0.422559
-0.441129
-0.308584
-0.316381
-0.324206
-0.332156
-0.340266
-0.348734
-0.357397
-0.366806
-0.375908
-0.386805
-0.396101
-0.412144
-0.287959
-0.29558
-0.303228
-0.310979
-0.318803
-0.326864
-0.334905
-0.343489
-0.351789
-0.361794
-0.371392
-0.385882
-0.268121
-0.27542
-0.282726
-0.290103
-0.297511
-0.30512
-0.312766
-0.320967
-0.329195
-0.338679
-0.348081
-0.360504
-0.249012
-0.255905
-0.262806
-0.269777
-0.276808
-0.284041
-0.291374
-0.2991
-0.306853
-0.315256
-0.323849
-0.33466
-0.230727
-0.237186
-0.243663
-0.250203
-0.256802
-0.263535
-0.270331
-0.27733
-0.284403
-0.291924
-0.299958
-0.309682
-0.213308
-0.21931
-0.225324
-0.231376
-0.237465
-0.243633
-0.249868
-0.256262
-0.262818
-0.269709
-0.277129
-0.285805
-0.196751
-0.202279
-0.207811
-0.213368
-0.218959
-0.224616
-0.230353
-0.23621
-0.24221
-0.248415
-0.255082
-0.262801
-0.18106
-0.186121
-0.191183
-0.196263
-0.201373
-0.206529
-0.211744
-0.217031
-0.222427
-0.227977
-0.233949
-0.240836
-0.166238
-0.170846
-0.175451
-0.180062
-0.184691
-0.189345
-0.19404
-0.198787
-0.203629
-0.2086
-0.213924
-0.220027
-0.152275
-0.156447
-0.160609
-0.164769
-0.168935
-0.173118
-0.177329
-0.18158
-0.185899
-0.190316
-0.195015
-0.20038
-0.139157
-0.142916
-0.14666
-0.150396
-0.15413
-0.15787
-0.161626
-0.165403
-0.169226
-0.173121
-0.177245
-0.181934
-0.126867
-0.130241
-0.133595
-0.136934
-0.140264
-0.14359
-0.146919
-0.150257
-0.153625
-0.157044
-0.160645
-0.164717
-0.11539
-0.118406
-0.121398
-0.12437
-0.127326
-0.13027
-0.133209
-0.136146
-0.139099
-0.142084
-0.145209
-0.148722
-0.107391
-0.110051
-0.112687
-0.115301
-0.117897
-0.12048
-0.123053
-0.125628
-0.128221
-0.130919
-0.133931
-0.0971745
-0.0995328
-0.101863
-0.104167
-0.106448
-0.10871
-0.110954
-0.113191
-0.115433
-0.117751
-0.120319
-0.0877354
-0.0898209
-0.0918754
-0.0939007
-0.0958988
-0.0978721
-0.0998229
-0.101758
-0.103689
-0.105671
-0.107849
-0.0790513
-0.0808923
-0.0827002
-0.0844764
-0.0862221
-0.0879392
-0.0896294
-0.0912983
-0.0929536
-0.0946418
-0.0964781
-0.071101
-0.0727246
-0.0743135
-0.0758687
-0.077391
-0.0788819
-0.0803425
-0.0817773
-0.0831919
-0.0846235
-0.0861642
-0.0638652
-0.0652969
-0.0666928
-0.0680537
-0.0693799
-0.0706726
-0.0719324
-0.0731627
-0.0743677
-0.0755766
-0.0768617
-0.0573268
-0.0585909
-0.0598186
-0.0610105
-0.0621667
-0.0632878
-0.0643741
-0.0654278
-0.0664517
-0.0674675
-0.0685303
-0.0514712
-0.0525905
-0.0536737
-0.0547209
-0.0557326
-0.0567093
-0.0576515
-0.0585613
-0.0594414
-0.0603092
-0.0612069
-0.046285
-0.0472799
-0.0482386
-0.0491613
-0.0500482
-0.0508995
-0.0517156
-0.0524976
-0.0532472
-0.0539767
-0.0547169
-0.0417626
-0.0426519
-0.0435053
-0.0443229
-0.0451045
-0.0458505
-0.0465608
-0.0472364
-0.0478785
-0.0484958
-0.0491101
-0.0379081
-0.0387101
-0.0394767
-0.0402076
-0.0409029
-0.0415627
-0.042187
-0.0427765
-0.0433318
-0.0438589
-0.0443725
-0.0347307
-0.0354628
-0.03616
-0.0368221
-0.037449
-0.0380407
-0.0385973
-0.039119
-0.0396065
-0.0400634
-0.0404987
-0.03226
-0.0329389
-0.0335834
-0.0341934
-0.0347687
-0.0353092
-0.035815
-0.0362863
-0.0367234
-0.0371282
-0.0375055
-0.0305271
-0.0311704
-0.03178
-0.0323556
-0.032897
-0.0334041
-0.0338769
-0.0343154
-0.0347196
-0.0350906
-0.0354299
-0.0295986
-0.0302215
-0.0308116
-0.0313685
-0.0318921
-0.0323823
-0.0328388
-0.0332616
-0.0336506
-0.0340062
-0.0343282
-0.0458142
-0.0222846
-0.0173956
)
;

boundaryField
{
    inlet
    {
        type            zeroGradient;
    }
    outlet
    {
        type            fixedValue;
        value           uniform 0;
    }
    cylinder
    {
        type            zeroGradient;
    }
    top
    {
        type            symmetryPlane;
    }
    bottom
    {
        type            symmetryPlane;
    }
    defaultFaces
    {
        type            empty;
    }
    procBoundary3to1
    {
        type            processor;
        value           nonuniform List<scalar> 
41
(
-0.422512
-0.424262
-0.424911
-0.426023
-0.428183
-0.431657
-0.436583
-0.443141
-0.451374
-0.461558
-0.483133
-0.511005
-0.529907
-0.513487
-0.450093
-0.367069
-0.301297
-0.280069
-0.292085
-0.303312
-0.271896
-0.205547
-0.152235
-0.118914
-0.104804
-0.114764
-0.126579
-0.127652
-0.111423
-0.0889133
-0.0814897
-0.0664978
-0.0485897
-0.0648008
-0.0762824
-0.0669953
-0.0477265
-0.0456478
-0.0226478
-0.017398
-0.0477265
)
;
    }
    procBoundary3to2
    {
        type            processor;
        value           nonuniform List<scalar> 
50
(
-0.50757
-0.50757
-0.50978
-0.50978
-0.518023
-0.518946
-0.518946
-0.518177
-0.518177
-0.51425
-0.498427
-0.498427
-0.479343
-0.479343
-0.449262
-0.449262
-0.411723
-0.379544
-0.379544
-0.344459
-0.322291
-0.300758
-0.280333
-0.260819
-0.242117
-0.22427
-0.207307
-0.191217
-0.175989
-0.161618
-0.148086
-0.135376
-0.123469
-0.112345
-0.104703
-0.104703
-0.0947859
-0.0856173
-0.077176
-0.0694421
-0.0623974
-0.0560264
-0.0503156
-0.0452541
-0.0408375
-0.0370708
-0.0339638
-0.031547
-0.0298503
-0.028943
)
;
    }
}


// ************************************************************************* //
