/*--------------------------------*- C++ -*----------------------------------*\
  =========                 |
  \\      /  F ield         | OpenFOAM: The Open Source CFD Toolbox
   \\    /   O peration     | Website:  https://openfoam.org
    \\  /    A nd           | Version:  7
     \\/     M anipulation  |
\*---------------------------------------------------------------------------*/
FoamFile
{
    version     2.0;
    format      ascii;
    class       volScalarField;
    location    "35";
    object      p;
}
// * * * * * * * * * * * * * * * * * * * * * * * * * * * * * * * * * * * * * //

dimensions      [0 2 -2 0 0 0 0];

internalField   nonuniform List<scalar> 
2125
(
-0.318656
-0.342192
-0.323329
-0.365473
-0.343017
-0.327353
-0.403462
-0.383691
-0.363755
-0.343096
-0.330773
-0.41758
-0.398497
-0.379894
-0.361404
-0.342496
-0.333606
-0.430118
-0.411344
-0.393187
-0.375661
-0.358503
-0.341272
-0.335834
-0.440946
-0.4228
-0.404903
-0.387628
-0.371083
-0.355121
-0.33946
-0.337377
-0.432566
-0.415359
-0.398341
-0.381907
-0.366239
-0.351314
-0.337068
-0.338057
-0.440407
-0.424106
-0.407865
-0.391729
-0.376097
-0.361196
-0.347131
-0.334104
-0.337537
-0.451018
-0.430815
-0.415632
-0.40038
-0.385126
-0.370255
-0.356005
-0.342611
-0.33062
-0.335436
-0.43964
-0.421243
-0.407202
-0.392954
-0.378579
-0.364423
-0.350678
-0.337706
-0.326367
-0.331043
-0.428335
-0.411755
-0.398868
-0.385633
-0.372131
-0.358639
-0.34522
-0.332221
-0.319704
-0.317306
-0.417178
-0.402406
-0.390678
-0.378462
-0.365833
-0.352985
-0.339795
-0.326436
-0.30971
-0.274786
-0.406235
-0.39325
-0.382676
-0.371483
-0.359742
-0.347583
-0.334768
-0.321488
-0.304815
-0.267091
-0.39557
-0.384334
-0.374902
-0.36473
-0.353895
-0.342499
-0.330283
-0.317581
-0.302657
-0.269452
-0.38524
-0.375701
-0.367388
-0.35823
-0.348312
-0.337728
-0.326254
-0.314316
-0.300821
-0.271675
-0.375293
-0.367387
-0.360163
-0.352001
-0.342999
-0.333248
-0.32258
-0.311463
-0.299107
-0.273419
-0.365772
-0.359425
-0.353251
-0.346058
-0.337957
-0.329042
-0.3192
-0.308927
-0.297621
-0.275085
-0.356713
-0.351845
-0.346674
-0.340414
-0.333189
-0.325095
-0.316075
-0.30663
-0.296296
-0.276586
-0.348146
-0.344672
-0.340451
-0.335081
-0.328696
-0.321396
-0.31317
-0.304511
-0.295049
-0.277805
-0.340098
-0.33793
-0.334603
-0.33007
-0.324481
-0.317935
-0.310461
-0.302529
-0.293841
-0.278718
-0.332594
-0.331643
-0.329146
-0.325395
-0.32055
-0.314709
-0.307935
-0.300663
-0.29266
-0.279344
-0.32566
-0.32583
-0.3241
-0.321069
-0.31691
-0.311718
-0.305583
-0.298902
-0.291503
-0.279718
-0.319319
-0.320515
-0.319483
-0.317108
-0.313572
-0.308969
-0.303409
-0.297249
-0.290381
-0.279879
-0.313597
-0.315719
-0.315314
-0.313528
-0.310549
-0.306472
-0.30142
-0.295708
-0.289319
-0.279864
-0.308517
-0.311464
-0.311614
-0.310345
-0.307856
-0.304238
-0.299625
-0.294286
-0.288341
-0.279662
-0.304105
-0.307771
-0.308399
-0.307576
-0.305508
-0.302283
-0.298046
-0.293053
-0.287367
-0.279239
-0.300385
-0.304658
-0.305689
-0.305239
-0.303522
-0.300623
-0.296696
-0.291972
-0.286517
-0.279348
-0.29738
-0.302144
-0.303499
-0.303348
-0.301912
-0.299273
-0.295592
-0.291076
-0.285806
-0.279254
-0.295107
-0.300244
-0.301844
-0.301918
-0.300692
-0.298247
-0.294749
-0.290386
-0.285253
-0.27909
-0.293583
-0.298971
-0.300734
-0.300957
-0.299872
-0.297556
-0.294179
-0.289918
-0.284878
-0.27896
-0.300476
-0.29946
-0.297208
-0.293892
-0.289681
-0.284689
-0.278892
0.0148185
0.0129209
0.0110478
0.00919986
0.0073779
0.00558256
0.00381452
0.00207442
0.000362915
-0.00131964
-0.00297368
0.0139093
0.0119818
0.0100812
0.00820848
0.00636436
0.00454961
0.00276491
0.0010109
-0.000711674
-0.00240223
-0.00406352
0.0123333
0.0103552
0.00840546
0.00648492
0.00459449
0.00273496
0.000907032
-0.000888613
-0.00265083
-0.00437848
-0.00607901
0.0100842
0.0080321
0.00600988
0.00401858
0.00205914
0.000132388
-0.00176096
-0.00362019
-0.00544371
-0.00722956
-0.00899126
0.00720904
0.00506232
0.00294691
0.000863852
-0.00118587
-0.00320138
-0.00518197
-0.00712694
-0.00903415
-0.0109005
-0.0127465
0.00371635
0.0014537
-0.000776292
-0.00297253
-0.00513399
-0.00725975
-0.00934913
-0.0114015
-0.013414
-0.0153823
-0.0173338
-0.00039086
-0.00279048
-0.00515616
-0.00748675
-0.00978122
-0.0120386
-0.0142583
-0.0164397
-0.0185795
-0.0206714
-0.0227492
-0.00511992
-0.00767814
-0.0102012
-0.0126878
-0.0151371
-0.017548
-0.0199199
-0.0222523
-0.0245417
-0.0267795
-0.0290041
-0.0104855
-0.0132245
-0.015927
-0.018592
-0.0212184
-0.0238051
-0.0263517
-0.0288579
-0.0313196
-0.0337263
-0.0361181
-0.0165078
-0.0194505
-0.0223556
-0.0252219
-0.0280484
-0.0308342
-0.0335788
-0.036282
-0.03894
-0.0415395
-0.0441194
-0.0232116
-0.0263817
-0.0295131
-0.0326047
-0.0356554
-0.0386645
-0.0416315
-0.0445563
-0.0474357
-0.0502539
-0.0530439
-0.0271635
-0.0306247
-0.034047
-0.0374295
-0.0407713
-0.0440715
-0.0473294
-0.0505445
-0.0537173
-0.0568453
-0.0599114
-0.0629357
-0.0350364
-0.0387763
-0.0424764
-0.0461358
-0.0497539
-0.0533302
-0.0568642
-0.0603555
-0.0638048
-0.0672118
-0.0705605
-0.0738483
-0.0436522
-0.0476965
-0.0517002
-0.055663
-0.0595846
-0.063465
-0.0673042
-0.0711023
-0.0748603
-0.0785813
-0.0822561
-0.0858453
-0.0530379
-0.0574121
-0.0617455
-0.0660384
-0.0702915
-0.0745054
-0.0786811
-0.0828196
-0.0869223
-0.0909982
-0.0950553
-0.0989973
-0.0632187
-0.067947
-0.0726348
-0.0772838
-0.0818957
-0.0864729
-0.091018
-0.0955333
-0.100021
-0.104499
-0.109009
-0.113374
-0.0742139
-0.0793174
-0.0843819
-0.0894104
-0.0944067
-0.0993755
-0.104322
-0.109252
-0.114167
-0.119097
-0.124148
-0.129025
-0.0860372
-0.0915321
-0.0969899
-0.102416
-0.107818
-0.113202
-0.118579
-0.123958
-0.12934
-0.134774
-0.140461
-0.145958
-0.0986944
-0.104589
-0.110448
-0.116282
-0.1221
-0.127915
-0.133742
-0.139596
-0.145476
-0.151452
-0.15787
-0.164101
-0.112183
-0.118473
-0.12473
-0.130967
-0.137199
-0.143444
-0.149725
-0.156061
-0.162452
-0.168988
-0.176213
-0.183277
-0.12649
-0.133157
-0.139789
-0.146406
-0.153028
-0.159681
-0.166393
-0.173194
-0.180075
-0.187153
-0.195227
-0.203188
-0.141591
-0.148593
-0.155556
-0.162504
-0.169465
-0.176471
-0.183561
-0.19077
-0.198084
-0.205642
-0.21456
-0.22343
-0.157445
-0.164714
-0.171932
-0.17913
-0.186343
-0.193611
-0.200984
-0.208505
-0.21615
-0.22408
-0.23379
-0.243524
-0.17399
-0.181427
-0.188792
-0.196123
-0.203463
-0.210862
-0.21838
-0.226074
-0.233903
-0.242059
-0.25247
-0.262981
-0.191117
-0.198583
-0.205946
-0.213253
-0.22056
-0.227925
-0.235425
-0.24313
-0.250984
-0.259204
-0.270208
-0.281396
-0.208684
-0.215989
-0.223144
-0.230212
-0.23726
-0.244368
-0.251633
-0.259151
-0.26686
-0.275012
-0.286566
-0.298439
-0.226691
-0.233638
-0.240374
-0.246972
-0.253515
-0.2601
-0.266848
-0.273888
-0.281166
-0.288996
-0.300979
-0.313689
-0.244813
-0.251221
-0.257379
-0.26338
-0.269329
-0.275341
-0.281559
-0.288133
-0.294996
-0.302456
-0.314644
-0.327948
-0.261222
-0.266545
-0.271594
-0.276507
-0.281439
-0.286558
-0.292073
-0.298209
-0.304979
-0.312778
-0.326162
-0.341288
-0.277994
-0.281662
-0.284852
-0.287711
-0.290395
-0.29307
-0.295922
-0.29916
-0.302857
-0.307543
-0.318349
-0.336211
-0.00566117
-0.00932622
-0.0129707
-0.0165708
-0.0200985
-0.0235215
-0.0268043
-0.029909
-0.0327967
-0.0354272
-0.0377604
-0.0397566
-0.0413785
-0.0425917
-0.0433664
-0.0436785
-0.0435104
-0.0428528
-0.0417037
-0.0400718
-0.0379698
-0.0354277
-0.0324628
-0.0291364
-0.0254361
-0.0214964
-0.0171741
-0.0128182
-0.0078718
-0.00325273
-0.00680528
-0.0104987
-0.0141498
-0.0177546
-0.0212854
-0.024705
-0.0279755
-0.0310592
-0.033917
-0.036509
-0.0387949
-0.0407359
-0.0422949
-0.0434389
-0.0441392
-0.0443731
-0.0441246
-0.0433861
-0.0421574
-0.0404488
-0.0382745
-0.0356665
-0.0326417
-0.029266
-0.0255206
-0.0215531
-0.0171975
-0.012842
-0.00785933
-0.00328428
-0.0089509
-0.0127064
-0.0163726
-0.0199883
-0.0235259
-0.0269389
-0.0301855
-0.0332278
-0.0360273
-0.0385443
-0.0407391
-0.0425735
-0.0440123
-0.0450242
-0.0455828
-0.0456684
-0.0452679
-0.0443769
-0.0429983
-0.0411459
-0.0388363
-0.036105
-0.0329697
-0.0295007
-0.0256748
-0.0216509
-0.0172433
-0.0128742
-0.00785467
-0.00332055
-0.0120485
-0.0158862
-0.0195684
-0.0231947
-0.0267366
-0.0301343
-0.0333406
-0.0363176
-0.0390279
-0.0414322
-0.0434915
-0.0451692
-0.0464322
-0.0472522
-0.0476065
-0.0474791
-0.0468615
-0.0457535
-0.0441626
-0.0421072
-0.0396075
-0.0367035
-0.0334139
-0.0298151
-0.0258784
-0.0217763
-0.0172997
-0.0129111
-0.0078485
-0.00336205
-0.0160459
-0.0199839
-0.0236798
-0.0273128
-0.0308528
-0.0342224
-0.0373678
-0.0402519
-0.0428387
-0.0450898
-0.0469675
-0.0484373
-0.0494696
-0.0500397
-0.0501297
-0.0497286
-0.0488334
-0.0474498
-0.0455907
-0.04328
-0.0405424
-0.0374233
-0.0339426
-0.0301837
-0.0261115
-0.0219143
-0.0173556
-0.0129455
-0.0078343
-0.00341013
-0.0209259
-0.024976
-0.0286771
-0.032307
-0.0358325
-0.0391545
-0.0422121
-0.04497
-0.047394
-0.0494473
-0.0510941
-0.0523031
-0.0530487
-0.0533115
-0.0530789
-0.0523465
-0.0511175
-0.0494045
-0.0472269
-0.0446149
-0.0415981
-0.038228
-0.0345258
-0.0305823
-0.0263553
-0.0220505
-0.0174003
-0.0129695
-0.00780749
-0.00346454
-0.0266829
-0.030851
-0.0345425
-0.0381532
-0.0416446
-0.0448925
-0.0478288
-0.0504204
-0.0526367
-0.0544428
-0.0558057
-0.0566984
-0.0571003
-0.0569981
-0.0563862
-0.0552672
-0.053652
-0.0515606
-0.0490194
-0.0460659
-0.0427349
-0.0390839
-0.0351357
-0.0309884
-0.0265923
-0.0221711
-0.0174246
-0.0129754
-0.00776405
-0.00352367
-0.0333252
-0.03761
-0.0412692
-0.0448365
-0.0482663
-0.0514055
-0.0541787
-0.0565572
-0.0585144
-0.0600188
-0.0610409
-0.061559
-0.0615589
-0.0610344
-0.0599875
-0.0584296
-0.0563792
-0.0538648
-0.0509205
-0.0475909
-0.0439163
-0.0399604
-0.0357472
-0.0313819
-0.0268075
-0.0222641
-0.0174204
-0.0129559
-0.0077008
-0.00358417
-0.0408699
-0.0452617
-0.0488561
-0.0523469
-0.0556785
-0.0586652
-0.0612251
-0.0633359
-0.0649766
-0.0661194
-0.0667401
-0.066823
-0.0663616
-0.065358
-0.0638229
-0.0617757
-0.0592451
-0.0562679
-0.0528859
-0.0491511
-0.0451095
-0.0408301
-0.0363386
-0.0317456
-0.0269882
-0.0223197
-0.0173817
-0.0129044
-0.00761587
-0.00364051
-0.0493409
-0.0538188
-0.0573049
-0.0606757
-0.0638621
-0.0666423
-0.0689299
-0.070711
-0.0719713
-0.0726883
-0.0728435
-0.0724289
-0.0714467
-0.0699078
-0.0678328
-0.0652505
-0.0621989
-0.0587239
-0.0548752
-0.0507119
-0.0462853
-0.0416692
-0.0368912
-0.0320652
-0.0271244
-0.0223297
-0.0173048
-0.0128149
-0.007509
-0.00368464
-0.0587656
-0.0632949
-0.0666161
-0.0698115
-0.0727944
-0.0753038
-0.077251
-0.078633
-0.0794436
-0.0796662
-0.0792896
-0.0783145
-0.0767524
-0.0746244
-0.0719609
-0.0688012
-0.0651926
-0.0611901
-0.0568513
-0.0522419
-0.0474182
-0.0424577
-0.03739
-0.0323295
-0.0272092
-0.0222889
-0.0171879
-0.0126826
-0.00738168
-0.00370615
-0.0691713
-0.0736988
-0.0767844
-0.0797366
-0.0824454
-0.0846087
-0.0861387
-0.0870459
-0.0873328
-0.0869898
-0.0860138
-0.0844153
-0.0822161
-0.0794482
-0.0761517
-0.072377
-0.068181
-0.0636273
-0.0587811
-0.0537138
-0.0484867
-0.0431791
-0.0378233
-0.0325306
-0.0272382
-0.022194
-0.0170314
-0.0125041
-0.00723707
-0.00369286
-0.0805782
-0.0850275
-0.0877936
-0.0904223
-0.0927734
-0.0945047
-0.0955333
-0.0958848
-0.0955711
-0.0945897
-0.092947
-0.0906641
-0.0877738
-0.0843187
-0.0803503
-0.075929
-0.0711214
-0.0659992
-0.0606346
-0.0551041
-0.0494729
-0.0438207
-0.0381829
-0.0326637
-0.0272098
-0.0220446
-0.0168377
-0.0122777
-0.00707988
-0.00363186
-0.0929887
-0.0972559
-0.099609
-0.101823
-0.10372
-0.104924
-0.105361
-0.105073
-0.104081
-0.102389
-0.100014
-0.0969899
-0.0933594
-0.0891758
-0.0845027
-0.0794102
-0.0739739
-0.0682731
-0.0623862
-0.0563932
-0.050363
-0.0443735
-0.038464
-0.0327272
-0.0271252
-0.0218424
-0.0166107
-0.0120037
-0.00691593
-0.00351078
-0.106372
-0.110323
-0.11217
-0.113868
-0.115204
-0.115778
-0.115532
-0.114521
-0.112773
-0.110301
-0.107135
-0.103318
-0.0989036
-0.0939585
-0.088556
-0.0827759
-0.0767019
-0.0704201
-0.064014
-0.0575659
-0.0511473
-0.0448325
-0.0386654
-0.0327221
-0.0269876
-0.0215912
-0.0163559
-0.011684
-0.00675174
-0.00331915
-0.120643
-0.124119
-0.12538
-0.126461
-0.127118
-0.126957
-0.125938
-0.124123
-0.121547
-0.118233
-0.114221
-0.109568
-0.104337
-0.0986067
-0.0924596
-0.0859847
-0.0792731
-0.072416
-0.0655011
-0.0586114
-0.0518203
-0.0451962
-0.0387887
-0.0326523
-0.0268025
-0.0212966
-0.0160796
-0.0113226
-0.00659397
-0.0030496
-0.135639
-0.138472
-0.139103
-0.139465
-0.139322
-0.138325
-0.13645
-0.133759
-0.130291
-0.126082
-0.121184
-0.11566
-0.109591
-0.103063
-0.0961669
-0.0890001
-0.0816601
-0.0742417
-0.0668355
-0.0595236
-0.0523806
-0.0454666
-0.0388385
-0.0325238
-0.0265767
-0.0209653
-0.0157888
-0.0109247
-0.00644891
-0.00269867
-0.151103
-0.153143
-0.153158
-0.152709
-0.151647
-0.149724
-0.146924
-0.143297
-0.138886
-0.133743
-0.127927
-0.121517
-0.114601
-0.107274
-0.099637
-0.0917923
-0.0838423
-0.0758846
-0.0680111
-0.0603012
-0.0528307
-0.0456487
-0.0388216
-0.0323439
-0.0263182
-0.0206048
-0.0154904
-0.0104967
-0.00632203
-0.00226716
-0.166678
-0.167837
-0.167326
-0.165987
-0.1639
-0.160984
-0.157208
-0.152599
-0.147211
-0.141109
-0.134365
-0.127066
-0.119309
-0.111197
-0.102838
-0.0943389
-0.0858064
-0.0773382
-0.0690267
-0.0609473
-0.0531764
-0.04575
-0.0387465
-0.0321214
-0.0260356
-0.020223
-0.0151913
-0.0100454
-0.00621766
-0.00175998
-0.181923
-0.182229
-0.181364
-0.179071
-0.175876
-0.171927
-0.167145
-0.16153
-0.155152
-0.148088
-0.140421
-0.132246
-0.123668
-0.114797
-0.105746
-0.0966271
-0.0875466
-0.0786024
-0.0698866
-0.0614689
-0.0534265
-0.04578
-0.0386228
-0.0318651
-0.0257373
-0.0198273
-0.0148978
-0.00957786
-0.00613872
-0.00118559
-0.196351
-0.196007
-0.195028
-0.191727
-0.187376
-0.182387
-0.176594
-0.16997
-0.162606
-0.154596
-0.14603
-0.137009
-0.127645
-0.118054
-0.108352
-0.0986528
-0.0890647
-0.0796833
-0.0705994
-0.0618758
-0.0535915
-0.045749
-0.0384604
-0.0315839
-0.0254311
-0.0194249
-0.0146153
-0.00910104
-0.00608661
-0.000555298
-0.209495
-0.208918
-0.208093
-0.203735
-0.198224
-0.192223
-0.185433
-0.177815
-0.169495
-0.160575
-0.151149
-0.141326
-0.131223
-0.120959
-0.110653
-0.100421
-0.0903693
-0.0805915
-0.0711769
-0.0621802
-0.053683
-0.0456676
-0.038269
-0.0312862
-0.0251244
-0.019022
-0.014348
-0.00862127
-0.00606132
0.000117811
-0.220981
-0.220813
-0.22038
-0.21492
-0.208285
-0.201326
-0.193568
-0.184997
-0.175769
-0.165989
-0.155757
-0.145187
-0.134399
-0.123517
-0.11266
-0.101943
-0.091474
-0.0813412
-0.0716331
-0.0623951
-0.0537131
-0.0455463
-0.0380575
-0.0309795
-0.0248231
-0.0186239
-0.0140993
-0.00814424
-0.00606159
0.00081992
-0.230584
-0.231662
-0.231764
-0.225162
-0.217506
-0.209626
-0.200945
-0.191478
-0.181403
-0.170827
-0.159852
-0.148597
-0.137186
-0.125742
-0.114389
-0.103238
-0.092396
-0.0819487
-0.0719828
-0.0625337
-0.053693
-0.0453946
-0.0378337
-0.0306699
-0.0245318
-0.0182349
-0.0138711
-0.00767486
-0.00608523
0.00153741
-0.238291
-0.241559
-0.242182
-0.234405
-0.225809
-0.217095
-0.207546
-0.197251
-0.186401
-0.175098
-0.163449
-0.151575
-0.139603
-0.127657
-0.11586
-0.104324
-0.0931538
-0.0824306
-0.0722406
-0.0626083
-0.053633
-0.0452207
-0.0376041
-0.0303626
-0.0242542
-0.0178584
-0.0136645
-0.00721722
-0.00612937
0.00225757
-0.244346
-0.25071
-0.251617
-0.242642
-0.233231
-0.223733
-0.213376
-0.202329
-0.190779
-0.178824
-0.166572
-0.154147
-0.141676
-0.129285
-0.117097
-0.105223
-0.0937663
-0.0828034
-0.0724205
-0.0626306
-0.0535425
-0.0450322
-0.0373742
-0.030062
-0.023993
-0.017497
-0.01348
-0.00677474
-0.00619085
0.00296907
-0.24921
-0.259382
-0.260121
-0.249955
-0.239821
-0.229577
-0.218478
-0.206759
-0.194587
-0.182054
-0.169268
-0.156356
-0.143445
-0.130663
-0.118133
-0.105963
-0.0942583
-0.083088
-0.0725397
-0.0626144
-0.0534323
-0.0448371
-0.0371499
-0.0297725
-0.0237504
-0.0171535
-0.0133171
-0.00635067
-0.00626581
0.00366183
-0.253408
-0.267805
-0.267874
-0.25659
-0.245767
-0.234788
-0.223006
-0.210681
-0.197951
-0.184898
-0.171635
-0.158287
-0.144983
-0.131852
-0.119017
-0.106586
-0.0946617
-0.0833088
-0.0726164
-0.0625729
-0.0533112
-0.0446415
-0.036934
-0.029496
-0.0235257
-0.0168286
-0.0131727
-0.00594753
-0.00634858
0.00432753
-0.258699
-0.276211
-0.275074
-0.262837
-0.251271
-0.239523
-0.22709
-0.214197
-0.200945
-0.187412
-0.173707
-0.159957
-0.146294
-0.132846
-0.119737
-0.107073
-0.0949557
-0.083444
-0.0726287
-0.0624849
-0.0531592
-0.0444274
-0.0367104
-0.0292194
-0.0233069
-0.0165142
-0.0130393
-0.0055619
-0.00643538
0.00496358
-0.270065
-0.285168
-0.280678
-0.267567
-0.255253
-0.2428
-0.229833
-0.216497
-0.202847
-0.188953
-0.174925
-0.160887
-0.14697
-0.133304
-0.120012
-0.107197
-0.0949585
-0.0833509
-0.0724673
-0.0622683
-0.0529177
-0.0441524
-0.036453
-0.0289227
-0.0230886
-0.0161994
-0.0129245
-0.005181
-0.00654438
0.00557774
-0.304873
-0.292684
-0.281135
-0.267562
-0.254994
-0.242382
-0.229382
-0.216067
-0.202455
-0.188606
-0.174619
-0.160617
-0.14673
-0.133087
-0.119813
-0.10701
-0.0947832
-0.0831814
-0.0723072
-0.0621068
-0.0527711
-0.0439911
-0.0363255
-0.0287487
-0.0229974
-0.0159869
-0.0129084
-0.00487755
-0.0066923
0.00608036
-0.315366
-0.295268
-0.281081
-0.267472
-0.254675
-0.241861
-0.228728
-0.215309
-0.201609
-0.187693
-0.173663
-0.15964
-0.145757
-0.132138
-0.118905
-0.106157
-0.093995
-0.0824633
-0.0716642
-0.0615348
-0.0522751
-0.0435541
-0.0359652
-0.0284197
-0.0227605
-0.0157246
-0.012798
-0.00461382
-0.00676063
0.00648222
-0.316767
-0.294035
-0.279802
-0.266527
-0.253666
-0.240753
-0.227537
-0.214042
-0.200279
-0.18632
-0.172273
-0.158261
-0.144413
-0.130853
-0.117696
-0.105038
-0.0929749
-0.0815454
-0.0708496
-0.0608192
-0.051657
-0.0430198
-0.0355207
-0.0280318
-0.0224664
-0.0154361
-0.012648
-0.00435209
-0.00679979
0.00687444
-0.316133
-0.292077
-0.278292
-0.26539
-0.252528
-0.239578
-0.226322
-0.212784
-0.198986
-0.185009
-0.170964
-0.156976
-0.143173
-0.129674
-0.116594
-0.104021
-0.092049
-0.080713
-0.0701109
-0.0601694
-0.0510948
-0.0425321
-0.0351141
-0.0276746
-0.0221959
-0.0151664
-0.0125106
-0.00410252
-0.00684083
0.00725632
-0.314203
-0.290017
-0.276783
-0.264187
-0.251353
-0.2384
-0.225126
-0.211563
-0.197745
-0.183762
-0.16973
-0.155772
-0.142016
-0.12858
-0.115573
-0.103081
-0.0911952
-0.0799462
-0.0694307
-0.0595709
-0.050577
-0.0420822
-0.0347393
-0.0273434
-0.0219469
-0.0149138
-0.0123866
-0.00386417
-0.00688598
0.00762688
-0.311242
-0.287761
-0.27518
-0.262862
-0.250099
-0.237175
-0.223903
-0.21033
-0.196506
-0.182529
-0.168517
-0.154597
-0.140893
-0.127521
-0.114588
-0.102178
-0.0903758
-0.0792115
-0.0687801
-0.0589992
-0.050083
-0.0416535
-0.0343826
-0.0270284
-0.0217111
-0.0146736
-0.0122708
-0.00363639
-0.00693203
0.00798459
-0.307711
-0.2854
-0.273471
-0.261418
-0.24877
-0.235903
-0.222654
-0.209088
-0.195271
-0.18131
-0.167327
-0.15345
-0.139802
-0.126497
-0.113639
-0.101309
-0.0895902
-0.0785086
-0.0681584
-0.0584538
-0.0496121
-0.0412453
-0.0340435
-0.0267293
-0.0214875
-0.0144457
-0.0121622
-0.00341981
-0.00697771
0.00832779
-0.303916
-0.283035
-0.271697
-0.259893
-0.247391
-0.234604
-0.221395
-0.207852
-0.194054
-0.18012
-0.166174
-0.152345
-0.138756
-0.125519
-0.112736
-0.100484
-0.0888455
-0.0778434
-0.0675709
-0.0579389
-0.049168
-0.0408607
-0.0337241
-0.0264477
-0.0212775
-0.0142312
-0.0120611
-0.00321529
-0.0070227
0.00865483
-0.30004
-0.280713
-0.269889
-0.258321
-0.245987
-0.233294
-0.220141
-0.206634
-0.192868
-0.178969
-0.165067
-0.15129
-0.137762
-0.124593
-0.111883
-0.0997075
-0.0881457
-0.0772192
-0.0670203
-0.0574569
-0.0487525
-0.0405012
-0.0334257
-0.0261847
-0.0210818
-0.0140309
-0.0119679
-0.00302355
-0.00706664
0.00896408
-0.296217
-0.278461
-0.268077
-0.256734
-0.244578
-0.231992
-0.218907
-0.205447
-0.191723
-0.177867
-0.164013
-0.150291
-0.136825
-0.123724
-0.111085
-0.098982
-0.0874933
-0.0766382
-0.0665084
-0.0570092
-0.048367
-0.0401678
-0.0331493
-0.0259412
-0.0209009
-0.0138454
-0.0118826
-0.00284522
-0.00710907
0.00925398
-0.292541
-0.276305
-0.266293
-0.255163
-0.243191
-0.230716
-0.217708
-0.204305
-0.19063
-0.176822
-0.16302
-0.149355
-0.135951
-0.122915
-0.110344
-0.0983108
-0.0868908
-0.0761025
-0.0660369
-0.0565973
-0.0480124
-0.0398615
-0.0328954
-0.0257176
-0.0207352
-0.013675
-0.0118052
-0.00268094
-0.0071495
0.009523
-0.289072
-0.274267
-0.264571
-0.253641
-0.241848
-0.229487
-0.216561
-0.203221
-0.189601
-0.175845
-0.162097
-0.148489
-0.135145
-0.122172
-0.109666
-0.0976969
-0.0863407
-0.075614
-0.0656075
-0.0562225
-0.0476901
-0.0395832
-0.0326649
-0.0255147
-0.020585
-0.0135203
-0.0117355
-0.00253128
-0.00718746
0.00976967
-0.285874
-0.272368
-0.262946
-0.252197
-0.240575
-0.228326
-0.215484
-0.20221
-0.188647
-0.174946
-0.161252
-0.1477
-0.134413
-0.121499
-0.109053
-0.0971434
-0.0858454
-0.0751748
-0.0652217
-0.0558861
-0.047401
-0.0393338
-0.0324584
-0.0253329
-0.0204507
-0.0133817
-0.0116738
-0.00239679
-0.00722251
0.00999265
-0.283085
-0.270596
-0.261446
-0.250861
-0.239397
-0.227254
-0.214495
-0.201288
-0.187782
-0.174134
-0.160492
-0.146993
-0.13376
-0.1209
-0.108508
-0.0966527
-0.085407
-0.0747865
-0.064881
-0.0555892
-0.0471459
-0.0391138
-0.0322764
-0.0251728
-0.0203326
-0.0132596
-0.0116198
-0.00227796
-0.00725422
0.0101907
-0.280894
-0.26891
-0.260089
-0.249661
-0.238337
-0.226291
-0.213611
-0.200467
-0.187016
-0.173419
-0.159826
-0.146375
-0.133191
-0.12038
-0.108036
-0.0962274
-0.0850275
-0.0744508
-0.0645867
-0.0553329
-0.0469259
-0.0389242
-0.0321196
-0.0250347
-0.0202309
-0.0131543
-0.0115736
-0.00217525
-0.0072822
0.0103626
-0.278215
-0.267795
-0.258919
-0.24862
-0.237416
-0.225457
-0.212847
-0.19976
-0.18636
-0.172808
-0.159259
-0.145851
-0.132709
-0.11994
-0.107637
-0.0958697
-0.0847086
-0.0741688
-0.0643397
-0.055118
-0.0467414
-0.0387652
-0.0319882
-0.0249192
-0.0201458
-0.0130661
-0.0115352
-0.00208903
-0.00730609
0.0105075
-0.276276
-0.266787
-0.257943
-0.247759
-0.236655
-0.224768
-0.212217
-0.19918
-0.185823
-0.17231
-0.158798
-0.145426
-0.132319
-0.119585
-0.107316
-0.0955812
-0.0844518
-0.0739419
-0.064141
-0.0549451
-0.0465931
-0.0386375
-0.0318826
-0.0248263
-0.0200776
-0.0129952
-0.0115045
-0.00201965
-0.0073256
0.0106244
-0.274882
-0.26599
-0.25719
-0.247097
-0.236069
-0.224237
-0.211734
-0.198736
-0.185413
-0.171931
-0.158448
-0.145103
-0.132024
-0.119316
-0.107073
-0.0953635
-0.0842581
-0.0737709
-0.0639913
-0.054815
-0.0464815
-0.0385415
-0.0318032
-0.0247565
-0.0200262
-0.0129419
-0.0114815
-0.00196738
-0.00734046
0.0107127
-0.273943
-0.265447
-0.25668
-0.246647
-0.235671
-0.223877
-0.211406
-0.198435
-0.185136
-0.171675
-0.158212
-0.144887
-0.131826
-0.119136
-0.106911
-0.0952178
-0.0841284
-0.0736565
-0.0638912
-0.054728
-0.046407
-0.0384772
-0.0317502
-0.0247098
-0.019992
-0.0129063
-0.0114662
-0.00193241
-0.00735048
0.0107718
-0.27347
-0.265171
-0.256423
-0.24642
-0.23547
-0.223695
-0.21124
-0.198284
-0.184996
-0.171547
-0.158093
-0.144778
-0.131726
-0.119046
-0.106829
-0.0951447
-0.0840635
-0.0735992
-0.0638411
-0.0546845
-0.0463696
-0.0384451
-0.0317236
-0.0246865
-0.0199748
-0.0128884
-0.0114585
-0.0019149
-0.00735552
0.0108015
)
;

boundaryField
{
    inlet
    {
        type            zeroGradient;
    }
    outlet
    {
        type            fixedValue;
        value           uniform 0;
    }
    cylinder
    {
        type            zeroGradient;
    }
    top
    {
        type            symmetryPlane;
    }
    bottom
    {
        type            symmetryPlane;
    }
    defaultFaces
    {
        type            empty;
    }
    procBoundary1to0
    {
        type            processor;
        value           nonuniform List<scalar> 
50
(
-0.313267
-0.340541
-0.340541
-0.366468
-0.366468
-0.40797
-0.386949
-0.386949
-0.423515
-0.423515
-0.437229
-0.437229
-0.449171
-0.449171
-0.459381
-0.449954
-0.449954
-0.462395
-0.462395
0.0167397
0.0158629
0.0143388
0.0121652
0.00938592
0.00601048
0.00204149
-0.00252773
-0.00771133
-0.0135287
-0.0200037
-0.0200037
-0.0236645
-0.0312574
-0.0395678
-0.0486227
-0.0584489
-0.0690684
-0.0805002
-0.0927574
-0.105848
-0.119775
-0.13453
-0.150099
-0.166448
-0.183505
-0.201177
-0.219469
-0.238071
-0.255497
-0.273712
)
;
    }
    procBoundary1to3
    {
        type            processor;
        value           nonuniform List<scalar> 
41
(
-0.300476
-0.29946
-0.297208
-0.293892
-0.289681
-0.284689
-0.278892
-0.292818
-0.298332
-0.300177
-0.300177
-0.27347
-0.265171
-0.256423
-0.24642
-0.23547
-0.223695
-0.21124
-0.198284
-0.184996
-0.171547
-0.158093
-0.144778
-0.131726
-0.119046
-0.106829
-0.0951447
-0.0840635
-0.0735992
-0.0638411
-0.0546845
-0.0463696
-0.0384451
-0.0317236
-0.0246865
-0.0199748
-0.0128884
-0.0114585
-0.0019149
-0.00735552
0.0108015
)
;
    }
}


// ************************************************************************* //
