/*--------------------------------*- C++ -*----------------------------------*\
  =========                 |
  \\      /  F ield         | OpenFOAM: The Open Source CFD Toolbox
   \\    /   O peration     | Website:  https://openfoam.org
    \\  /    A nd           | Version:  7
     \\/     M anipulation  |
\*---------------------------------------------------------------------------*/
FoamFile
{
    version     2.0;
    format      ascii;
    class       volVectorField;
    location    "35";
    object      U;
}
// * * * * * * * * * * * * * * * * * * * * * * * * * * * * * * * * * * * * * //

dimensions      [0 1 -1 0 0 0 0];

internalField   nonuniform List<vector> 
2125
(
(1.09281 -0.0943225 -7.40166e-21)
(0.957772 -0.0568072 -2.03906e-20)
(1.05673 -0.073277 -3.69881e-21)
(0.798981 -0.0180448 1.35463e-20)
(0.914307 -0.0391237 -1.59023e-21)
(1.01732 -0.0535856 1.78406e-20)
(0.511853 0.0273312 3.47325e-20)
(0.63171 0.0128674 -7.53228e-20)
(0.751844 -0.00452594 1.59029e-20)
(0.868473 -0.023468 -1.27324e-20)
(0.974843 -0.0356063 -1.89678e-20)
(0.359358 0.040545 6.86523e-21)
(0.469646 0.0331329 -5.8852e-20)
(0.585436 0.0214449 4.11636e-20)
(0.703533 0.00666009 -3.30117e-20)
(0.820623 -0.0100654 3.41124e-20)
(0.929593 -0.0197187 -1.36199e-21)
(0.228945 0.0420932 -9.48811e-23)
(0.323884 0.0418883 2.33528e-20)
(0.428103 0.0368877 1.37946e-21)
(0.539183 0.0277682 -3.28646e-20)
(0.654425 0.0154574 -7.69584e-22)
(0.771103 0.000893818 -1.48596e-20)
(0.881905 -0.0063212 1.83889e-20)
(0.125816 0.0344141 4.18682e-21)
(0.201893 0.0402023 1.21394e-20)
(0.28971 0.0416389 -2.09513e-20)
(0.387514 0.03875 5.01773e-20)
(0.493286 0.0319415 -1.34019e-22)
(0.604862 0.0218789 -4.17902e-21)
(0.720227 0.00927543 -2.84238e-20)
(0.832101 0.00417519 -4.45759e-21)
(0.107639 0.0308657 3.12967e-21)
(0.176372 0.037246 -8.62046e-21)
(0.257032 0.0400011 -1.02943e-20)
(0.348136 0.0389212 -6.78377e-21)
(0.448046 0.034137 -4.87756e-21)
(0.555145 0.0260268 6.53523e-21)
(0.668228 0.0150352 2.71429e-20)
(0.780443 0.0113636 2.11907e-20)
(0.0423771 0.0177356 1.71167e-20)
(0.0908643 0.0267439 -4.07358e-20)
(0.152486 0.0334253 2.35089e-20)
(0.226015 0.0372036 2.06032e-20)
(0.3102 0.0376462 -5.36174e-20)
(0.403734 0.0346013 1.49386e-20)
(0.505517 0.0281175 -7.03463e-22)
(0.615211 0.0182695 1.12289e-20)
(0.727042 0.0148824 -2.32576e-20)
(0.00678897 0.00370131 4.55369e-20)
(0.0335247 0.0140334 -1.34424e-20)
(0.0755261 0.022211 1.96873e-20)
(0.130316 0.0289473 1.26309e-20)
(0.196805 0.0334917 -7.4581e-21)
(0.273919 0.0352075 1.73792e-20)
(0.360608 0.0336583 -7.07864e-21)
(0.456175 0.0285123 4.15114e-20)
(0.561055 0.0192704 -6.81991e-20)
(0.671621 0.0143828 -2.42809e-20)
(0.00428834 0.00209573 -1.32896e-20)
(0.025663 0.0102381 5.25896e-20)
(0.0616413 0.0174253 -4.27657e-20)
(0.109923 0.024017 -1.45564e-21)
(0.169527 0.0291154 -2.07713e-20)
(0.239505 0.0319114 2.30573e-20)
(0.318951 0.0317084 2.51401e-20)
(0.407336 0.0277848 -1.26332e-20)
(0.505397 0.0187327 1.16466e-20)
(0.612845 0.00949722 1.46083e-20)
(0.00215817 0.000522708 2.45912e-21)
(0.0187755 0.00644813 -1.45745e-20)
(0.0492094 0.0125363 1.82426e-20)
(0.0913458 0.0188286 -1.77096e-20)
(0.144294 0.0243131 -2.17406e-20)
(0.207181 0.0280583 -9.7531e-21)
(0.27914 0.0291904 -3.75341e-20)
(0.359461 0.0267777 2.34078e-20)
(0.448204 0.0185544 4.36743e-20)
(0.548221 0.00252095 -1.19791e-20)
(0.000383136 -0.000984051 7.93448e-21)
(0.0128337 0.00275338 6.42122e-21)
(0.0382123 0.00767983 -1.62338e-21)
(0.0746038 0.0135562 -3.01071e-20)
(0.1212 0.0192907 3.19493e-20)
(0.177183 0.0238868 3.62062e-20)
(0.241686 0.0264182 1.26849e-20)
(0.313601 0.0261358 -2.44823e-21)
(0.391469 0.0215641 -4.43508e-20)
(0.47776 0.0056321 1.51572e-20)
(-0.00105626 -0.00239492 -2.41487e-20)
(0.00779809 -0.000766538 -3.54401e-21)
(0.0286123 0.00297542 7.23276e-21)
(0.0596868 0.00834848 2.38929e-21)
(0.100299 0.0142088 9.3606e-21)
(0.149703 0.0195338 -5.7702e-20)
(0.207086 0.0234042 3.48778e-20)
(0.271275 0.0252309 -4.16011e-20)
(0.340817 0.0243077 3.08645e-20)
(0.421535 0.0119372 3.46365e-20)
(-0.00218343 -0.00368478 1.06008e-20)
(0.00361769 -0.00404309 -7.34088e-21)
(0.0203522 -0.00147425 3.41734e-21)
(0.0465517 0.003331 -1.57299e-20)
(0.0815909 0.00919432 2.00148e-21)
(0.124814 0.0150801 -4.07582e-21)
(0.175521 0.0200728 -2.17241e-20)
(0.232675 0.023578 1.17268e-20)
(0.295091 0.0250225 2.17432e-20)
(0.369563 0.0155041 -3.22432e-20)
(-0.00302504 -0.0048331 -1.39717e-20)
(0.000231737 -0.00701875 -2.22018e-20)
(0.0133557 -0.00558187 1.81314e-20)
(0.0351231 -0.001389 1.8261e-20)
(0.0650146 0.00435793 -4.53753e-20)
(0.102478 0.0106087 4.57197e-20)
(0.146943 0.0164282 -5.16085e-20)
(0.197527 0.0211116 1.44014e-20)
(0.253211 0.0238438 -1.56268e-20)
(0.320545 0.0161212 -2.36168e-20)
(-0.00361015 -0.00582372 7.3054e-21)
(-0.00242846 -0.00964638 1.77349e-20)
(0.00753137 -0.00927404 4.37026e-21)
(0.0252991 -0.00571835 5.17146e-21)
(0.0504674 -0.00019683 1.06323e-22)
(0.0825937 0.00622251 7.84001e-21)
(0.121227 0.0125682 1.59453e-20)
(0.165624 0.0180002 2.97632e-20)
(0.214888 0.0214253 -2.98311e-20)
(0.274932 0.0151273 1.02559e-20)
(-0.00396924 -0.00664443 -1.67817e-20)
(-0.00443712 -0.0118886 1.8172e-22)
(0.00277604 -0.0124901 5.83662e-21)
(0.0169581 -0.0095763 -1.12372e-20)
(0.0378164 -0.00437228 2.27544e-20)
(0.0650174 0.0020369 -5.43867e-20)
(0.0982186 0.00864031 2.95229e-20)
(0.136794 0.0144809 -2.73313e-20)
(0.179956 0.0182787 5.29063e-20)
(0.232839 0.0133186 1.36576e-20)
(-0.00413333 -0.00728657 9.15527e-21)
(-0.00587159 -0.0137169 -1.93619e-20)
(-0.00102059 -0.0151814 -6.23168e-21)
(0.00996601 -0.0128943 9.09271e-21)
(0.0269105 -0.00807891 1.57307e-20)
(0.0495841 -0.00183125 2.75173e-21)
(0.077741 0.00480693 -9.90657e-21)
(0.110854 0.0107971 2.29734e-20)
(0.148229 0.014776 -1.29838e-20)
(0.194207 0.0110888 -1.2505e-21)
(-0.00413323 -0.00774463 2.36778e-20)
(-0.00681026 -0.0151114 7.16174e-21)
(-0.00397227 -0.0173111 1.35745e-21)
(0.00418234 -0.0156167 -1.99028e-20)
(0.0175884 -0.0112385 1.8245e-20)
(0.0361172 -0.00527285 6.24833e-21)
(0.0596073 0.00122418 3.12681e-21)
(0.0876162 0.00717338 -7.20081e-21)
(0.119534 0.0112137 7.9224e-21)
(0.158961 0.00870196 1.36779e-20)
(-0.00399901 -0.00801596 -1.73754e-20)
(-0.00733071 -0.0160601 1.03555e-20)
(-0.0061929 -0.0188542 -1.24934e-21)
(-0.000534815 -0.0177018 2.84311e-20)
(0.00968719 -0.0137874 -3.20773e-20)
(0.024438 -0.00819384 1.08114e-20)
(0.0436313 -0.00197123 -6.91702e-21)
(0.0669004 0.00379962 -6.13793e-21)
(0.0937129 0.00782192 -1.87943e-20)
(0.127008 0.00635601 7.3378e-21)
(-0.00375951 -0.00810047 7.4899e-21)
(-0.00750841 -0.0165593 -2.04406e-20)
(-0.00779377 -0.0197976 -1.20106e-20)
(-0.00432448 -0.0191226 -1.94101e-20)
(0.00304685 -0.0156792 5.37849e-21)
(0.0143725 -0.0105206 -1.88692e-21)
(0.0296341 -0.00467018 -1.74921e-20)
(0.0485351 0.000822799 -3.71425e-21)
(0.0706148 0.00476578 -3.46327e-22)
(0.0982401 0.00419037 8.39194e-21)
(-0.00344245 -0.00800067 1.29999e-20)
(-0.00741559 -0.0166124 1.47507e-21)
(-0.00888137 -0.0201401 6.37377e-21)
(-0.00731964 -0.0198679 2.90929e-20)
(-0.0024849 -0.0168865 2.97488e-20)
(0.00575621 -0.0122032 -5.45006e-21)
(0.0174473 -0.00679499 1.4047e-20)
(0.032359 -0.00165389 -8.96728e-21)
(0.0500961 0.00215441 -5.3821e-21)
(0.072538 0.00229677 -1.25479e-20)
(-0.00307391 -0.00772194 -1.65995e-20)
(-0.0071203 -0.0162308 1.52494e-20)
(-0.00955598 -0.0198927 8.08095e-21)
(-0.00964489 -0.0199422 -1.64818e-20)
(-0.00705006 -0.0174015 -1.91944e-20)
(-0.00156327 -0.0132163 6.26368e-21)
(0.00691621 -0.00829994 5.45956e-22)
(0.0182234 -0.00356822 2.83737e-20)
(0.0320215 5.08471e-05 1.72739e-20)
(0.0497803 0.000730162 -6.93896e-21)
(-0.00267825 -0.00727229 9.02209e-21)
(-0.0066859 -0.0154334 -4.40504e-21)
(-0.00991031 -0.0190781 -1.64675e-20)
(-0.0114148 -0.019366 7.23531e-21)
(-0.0107783 -0.0172366 -2.46331e-22)
(-0.00772419 -0.0135595 -2.56507e-20)
(-0.00209933 -0.00916929 -1.5462e-21)
(0.00599395 -0.00489333 -2.61212e-20)
(0.016265 -0.00152209 -1.18746e-20)
(0.0298534 -0.000484973 1.99766e-20)
(-0.00227803 -0.00666258 -1.09437e-20)
(-0.00617049 -0.0142469 -1.03157e-21)
(-0.0100287 -0.0177308 -7.67361e-22)
(-0.0127329 -0.0181749 -1.54878e-20)
(-0.0137858 -0.016423 2.44985e-21)
(-0.0128494 -0.013255 1.57037e-20)
(-0.00972283 -0.00941434 -8.39396e-21)
(-0.00444954 -0.00562887 1.40347e-20)
(0.00271106 -0.00257566 6.47983e-21)
(0.0126618 -0.00133271 -7.1651e-21)
(-0.00189378 -0.00590657 6.90317e-21)
(-0.0056264 -0.0127053 1.46116e-20)
(-0.0099862 -0.0158962 -3.43026e-21)
(-0.0136904 -0.0164189 7.4587e-21)
(-0.0161744 -0.0150093 5.17026e-21)
(-0.0170458 -0.0123464 -1.30974e-20)
(-0.0160601 -0.00907288 3.37215e-21)
(-0.0132164 -0.00580884 -3.69746e-21)
(-0.00873085 -0.00312159 4.76268e-21)
(-0.00187442 -0.00175573 -9.69806e-21)
(-0.00154381 -0.00502086 -2.19018e-21)
(-0.00509968 -0.0108495 -9.47112e-21)
(-0.0098484 -0.01363 1.39297e-20)
(-0.0143665 -0.0141612 -7.3657e-21)
(-0.0180318 -0.0130602 3.57769e-21)
(-0.020405 -0.0108957 1.10646e-20)
(-0.0212047 -0.0082026 -9.7086e-21)
(-0.0203882 -0.0054921 -2.41762e-21)
(-0.0181082 -0.00321296 2.929e-22)
(-0.0139257 -0.00185284 1.14996e-20)
(-0.00124395 -0.00402478 -6.70511e-22)
(-0.00462963 -0.00872682 -2.85465e-21)
(-0.0096706 -0.0109973 -1.232e-20)
(-0.0148275 -0.0114765 2.52423e-21)
(-0.0194306 -0.010654 2.17152e-21)
(-0.0230028 -0.00898038 -9.08354e-22)
(-0.025232 -0.00687707 -2.56276e-22)
(-0.0260394 -0.00474386 -3.91551e-21)
(-0.0255316 -0.00292265 5.5908e-21)
(-0.02351 -0.00175559 3.81843e-21)
(-0.00100723 -0.00294004 1.73724e-21)
(-0.00424837 -0.00639036 3.46395e-21)
(-0.00949759 -0.00807077 9.30588e-21)
(-0.0151264 -0.00844907 -5.03456e-21)
(-0.0204291 -0.00788031 -4.52533e-21)
(-0.0248991 -0.00669052 -1.81223e-22)
(-0.0282012 -0.00518369 9.23526e-21)
(-0.0302288 -0.00364631 4.47566e-21)
(-0.0310587 -0.00231983 -3.9216e-21)
(-0.030651 -0.00143442 -4.52162e-21)
(-0.000843715 -0.00179043 -2.87509e-22)
(-0.0039804 -0.00389769 7.01014e-22)
(-0.00936327 -0.00492964 -1.75801e-21)
(-0.0153034 -0.00517123 1.31451e-21)
(-0.0210706 -0.00483759 1.2174e-21)
(-0.0261387 -0.0041261 9.00472e-22)
(-0.0301565 -0.00322026 -1.86567e-21)
(-0.0329985 -0.0022923 -7.7662e-21)
(-0.0347239 -0.00148576 -1.2287e-21)
(-0.0353887 -0.000933124 2.4065e-21)
(-0.0153853 -0.00174082 1.07333e-21)
(-0.0213842 -0.0016309 -1.1342e-21)
(-0.0267512 -0.00139414 -5.5897e-22)
(-0.0311269 -0.00109191 6.07808e-22)
(-0.0343765 -0.000781651 3.06352e-21)
(-0.0365505 -0.000510962 -1.09789e-21)
(-0.037751 -0.000323045 1.1251e-21)
(1.15517 -0.00453022 5.38527e-23)
(1.15686 -0.00449514 -1.31476e-22)
(1.15853 -0.00445906 1.11196e-22)
(1.16017 -0.00442188 -3.42046e-23)
(1.16179 -0.00438345 -5.06361e-23)
(1.16338 -0.00434363 1.11924e-23)
(1.16495 -0.00430215 2.08339e-23)
(1.16649 -0.00425855 1.17734e-23)
(1.16801 -0.00421189 -2.29599e-24)
(1.16949 -0.0041601 -2.0569e-24)
(1.17095 -0.00409847 2.49717e-24)
(1.15655 -0.0133443 3.91826e-23)
(1.15827 -0.0132351 3.23051e-24)
(1.15997 -0.013125 -2.62493e-23)
(1.16164 -0.0130137 -3.74324e-23)
(1.16328 -0.0129009 6.06055e-24)
(1.1649 -0.0127863 1.06149e-23)
(1.1665 -0.0126692 3.0056e-24)
(1.16806 -0.0125481 -6.26313e-24)
(1.1696 -0.0124201 2.85061e-24)
(1.17111 -0.0122783 -2.36623e-24)
(1.17258 -0.0121068 -7.91341e-24)
(1.15904 -0.0218996 5.69024e-23)
(1.16082 -0.0217181 -1.26688e-23)
(1.16258 -0.0215354 -1.12713e-23)
(1.16431 -0.021351 -5.9891e-23)
(1.16601 -0.0211647 5.84558e-23)
(1.16769 -0.0209758 -1.48454e-23)
(1.16935 -0.0207832 -6.93733e-24)
(1.17097 -0.0205845 2.16769e-24)
(1.17257 -0.0203746 -7.15078e-24)
(1.17414 -0.0201417 -2.30937e-24)
(1.17567 -0.0198586 1.19234e-24)
(1.1625 -0.0302578 -5.27964e-23)
(1.16437 -0.0299997 2.90007e-23)
(1.16621 -0.0297402 -4.1399e-23)
(1.16803 -0.0294791 2.37859e-23)
(1.16983 -0.0292158 -3.50621e-25)
(1.1716 -0.0289495 -6.26714e-25)
(1.17334 -0.0286787 1.40643e-24)
(1.17505 -0.0284001 2.61063e-24)
(1.17674 -0.0281063 1.50274e-23)
(1.17839 -0.0277802 -2.02924e-23)
(1.18002 -0.0273832 2.92204e-23)
(1.16682 -0.0384942 -2.72281e-23)
(1.1688 -0.0381554 2.45817e-23)
(1.17076 -0.037815 3.10414e-24)
(1.17269 -0.0374728 1.27078e-23)
(1.1746 -0.0371282 5.4924e-24)
(1.17648 -0.0367802 1.12052e-23)
(1.17833 -0.036427 -1.86424e-24)
(1.18016 -0.036064 3.02749e-23)
(1.18196 -0.0356817 -1.44763e-24)
(1.18373 -0.0352574 1.00111e-22)
(1.18548 -0.0347397 -5.58281e-23)
(1.17191 -0.04666 -5.18468e-24)
(1.17402 -0.0462335 -5.79182e-25)
(1.17611 -0.0458054 -1.17629e-23)
(1.17817 -0.0453753 -2.49545e-23)
(1.18021 -0.0449426 9.81258e-24)
(1.18223 -0.0445061 -3.97274e-23)
(1.18422 -0.0440635 2.65877e-23)
(1.18619 -0.0436094 1.29991e-22)
(1.18812 -0.0431315 -2.28494e-24)
(1.19004 -0.0426014 -1.27112e-22)
(1.19192 -0.0419535 -5.76439e-23)
(1.17767 -0.0547973 -2.59314e-23)
(1.17993 -0.054275 -1.79234e-23)
(1.18217 -0.0537508 4.17315e-23)
(1.18439 -0.0532242 2.94878e-23)
(1.18659 -0.0526946 8.57176e-24)
(1.18876 -0.0521608 3.46582e-23)
(1.19091 -0.05162 -1.18775e-22)
(1.19303 -0.0510655 -2.06664e-22)
(1.19513 -0.0504825 -1.07815e-22)
(1.1972 -0.049836 -5.76214e-24)
(1.19925 -0.0490451 1.89202e-23)
(1.18403 -0.0629395 3.38355e-23)
(1.18647 -0.062311 3.88544e-23)
(1.18888 -0.06168 7.62859e-23)
(1.19127 -0.0610461 -1.23084e-22)
(1.19365 -0.0604086 1.76954e-22)
(1.19599 -0.0597662 -5.35365e-23)
(1.19832 -0.0591154 1.70398e-22)
(1.20062 -0.0584488 -1.21666e-22)
(1.20289 -0.0577483 1.96618e-22)
(1.20515 -0.056972 2.88767e-22)
(1.20738 -0.0560218 1.25183e-22)
(1.19094 -0.0711119 5.67635e-23)
(1.19357 -0.0703649 1.75964e-23)
(1.19617 -0.0696144 -2.07234e-22)
(1.19876 -0.0688601 8.94995e-23)
(1.20132 -0.0681012 -4.20913e-24)
(1.20386 -0.0673361 -2.94717e-23)
(1.20638 -0.066561 1.73635e-22)
(1.20887 -0.065767 -2.83742e-23)
(1.21134 -0.0649332 -2.27424e-22)
(1.21379 -0.0640099 -4.85286e-22)
(1.21622 -0.0628799 5.9842e-23)
(1.19835 -0.0793339 -9.8935e-23)
(1.20118 -0.0784538 4.63992e-23)
(1.20399 -0.0775687 3.47866e-22)
(1.20679 -0.0766782 2.58748e-22)
(1.20956 -0.0757813 -2.69926e-22)
(1.21231 -0.0748763 -1.55286e-22)
(1.21504 -0.0739586 -1.63423e-22)
(1.21774 -0.0730181 9.87001e-23)
(1.22041 -0.0720304 1.82208e-22)
(1.22307 -0.0709378 2.83735e-22)
(1.2257 -0.0696024 -1.06205e-22)
(1.20621 -0.0876191 2.6139e-23)
(1.20927 -0.0865887 -4.32669e-22)
(1.21231 -0.0855509 2.2847e-23)
(1.21533 -0.0845052 -3.58136e-22)
(1.21832 -0.0834502 2.67052e-22)
(1.2213 -0.0823835 3.82868e-22)
(1.22424 -0.0813 -6.73851e-23)
(1.22716 -0.0801878 -3.25808e-22)
(1.23005 -0.0790191 -1.78418e-22)
(1.23291 -0.0777276 1.9923e-22)
(1.23576 -0.0761538 -2.01795e-22)
(1.21118 -0.0971663 2.14309e-22)
(1.2145 -0.0959754 3.0331e-22)
(1.2178 -0.0947743 -5.28636e-23)
(1.22108 -0.0935623 -5.86125e-22)
(1.22434 -0.0923379 -3.65186e-22)
(1.22757 -0.0910994 -2.82176e-22)
(1.23077 -0.0898433 5.43703e-22)
(1.23395 -0.0885633 7.50642e-22)
(1.23708 -0.0872455 2.73732e-22)
(1.24018 -0.0858583 1.44342e-23)
(1.24324 -0.084327 -3.74478e-22)
(1.24628 -0.082471 8.77703e-22)
(1.21961 -0.105784 -1.19666e-22)
(1.22319 -0.104403 -6.43005e-22)
(1.22674 -0.103007 6.1171e-23)
(1.23027 -0.101594 2.59056e-22)
(1.23378 -0.100161 2.45501e-22)
(1.23725 -0.0987064 -3.80557e-22)
(1.24068 -0.0972238 -7.23515e-22)
(1.24407 -0.0957053 -1.21056e-22)
(1.24742 -0.0941344 3.93286e-22)
(1.2507 -0.0924758 8.22847e-22)
(1.25392 -0.0906469 -2.66985e-22)
(1.2571 -0.0884497 -1.23799e-21)
(1.2284 -0.114492 4.52586e-22)
(1.23224 -0.112893 1.23318e-22)
(1.23606 -0.111271 2.58475e-22)
(1.23985 -0.109622 -6.00475e-23)
(1.24359 -0.107943 -4.229e-22)
(1.24729 -0.106227 2.70072e-23)
(1.25094 -0.104466 -1.38638e-22)
(1.25452 -0.10265 -7.18884e-22)
(1.25803 -0.100759 -1.32082e-21)
(1.26144 -0.0987529 -1.81625e-21)
(1.26473 -0.0965444 1.86673e-21)
(1.26794 -0.0939257 2.1952e-23)
(1.23751 -0.123271 7.42113e-22)
(1.24163 -0.121418 -2.90625e-22)
(1.2457 -0.119529 -2.84341e-22)
(1.24973 -0.117598 5.42631e-23)
(1.25369 -0.115618 4.01674e-22)
(1.25759 -0.113579 8.70456e-22)
(1.26139 -0.11147 -5.85958e-22)
(1.26509 -0.109273 1.06113e-21)
(1.26867 -0.106966 -4.53139e-22)
(1.27209 -0.104505 -5.62051e-22)
(1.27531 -0.101803 -2.14289e-21)
(1.27834 -0.0986574 -5.05422e-22)
(1.2469 -0.13208 -5.57366e-22)
(1.25127 -0.129924 5.22947e-22)
(1.25558 -0.127712 9.423e-22)
(1.2598 -0.125435 5.34891e-22)
(1.26393 -0.12308 -3.3493e-22)
(1.26793 -0.120631 -1.3556e-21)
(1.27179 -0.118071 2.20401e-21)
(1.27548 -0.115378 -5.85897e-22)
(1.27895 -0.112524 1.40893e-21)
(1.28217 -0.109465 -1.14275e-21)
(1.28505 -0.10612 1.50328e-21)
(1.28758 -0.102315 1.48801e-21)
(1.25648 -0.140844 -1.06434e-22)
(1.26106 -0.138317 -7.02399e-22)
(1.26553 -0.135704 -9.33508e-22)
(1.26986 -0.13299 2.04629e-22)
(1.27403 -0.130154 1.71713e-21)
(1.278 -0.127175 -1.03906e-21)
(1.28173 -0.124027 2.60109e-22)
(1.28516 -0.120684 -3.47766e-21)
(1.28826 -0.117113 -5.45295e-22)
(1.29095 -0.113274 2.44907e-21)
(1.2931 -0.109102 5.30244e-23)
(1.29463 -0.104488 -3.16876e-21)
(1.26611 -0.149437 2.8426e-23)
(1.27079 -0.146442 2.73617e-22)
(1.2753 -0.143318 1.03891e-21)
(1.27958 -0.14004 -8.08369e-22)
(1.2836 -0.136581 -1.86592e-21)
(1.28728 -0.132912 9.15859e-22)
(1.29058 -0.129001 7.68054e-22)
(1.29341 -0.124814 5.1455e-21)
(1.29571 -0.120322 2.86594e-22)
(1.29741 -0.115492 -2.62118e-21)
(1.29827 -0.110293 4.71609e-22)
(1.29812 -0.104721 -7.7619e-22)
(1.27553 -0.157664 -1.99844e-22)
(1.28016 -0.154068 1.97819e-22)
(1.28449 -0.150282 -2.23249e-22)
(1.28847 -0.146274 1.32134e-21)
(1.29201 -0.142009 3.6393e-21)
(1.29504 -0.13745 3.83405e-21)
(1.29747 -0.132563 -5.84704e-21)
(1.2992 -0.127312 9.4896e-22)
(1.30014 -0.121675 3.20435e-21)
(1.30022 -0.115641 6.50829e-21)
(1.29909 -0.109227 -1.05676e-21)
(1.2964 -0.102582 1.63387e-21)
(1.28437 -0.165245 7.51687e-22)
(1.28868 -0.160871 5.0688e-22)
(1.29252 -0.15623 -1.74408e-21)
(1.29581 -0.151283 -1.12736e-21)
(1.29843 -0.14599 -1.39194e-21)
(1.30029 -0.140315 4.21494e-22)
(1.30127 -0.134221 3.43826e-21)
(1.30125 -0.127683 -3.02581e-21)
(1.30013 -0.120693 -1.57822e-21)
(1.29782 -0.113272 -7.04058e-21)
(1.29387 -0.105511 2.09166e-21)
(1.2877 -0.0977516 8.33051e-21)
(1.29208 -0.171805 1.5216e-21)
(1.29569 -0.166434 -4.30655e-22)
(1.29859 -0.160705 1.04967e-21)
(1.30066 -0.15458 6.09439e-22)
(1.30178 -0.148022 -4.09663e-21)
(1.30181 -0.140996 -7.6497e-21)
(1.30063 -0.133479 5.54089e-21)
(1.29809 -0.125463 4.9913e-22)
(1.29408 -0.116967 -3.267e-21)
(1.28855 -0.108061 6.85615e-21)
(1.28091 -0.0989198 3.79862e-21)
(1.27028 -0.0901155 -2.21023e-21)
(1.2979 -0.176884 -4.16384e-22)
(1.30029 -0.170262 -9.53955e-22)
(1.30167 -0.163193 -7.12724e-22)
(1.30188 -0.155646 -1.27917e-21)
(1.30078 -0.147592 -2.65777e-21)
(1.29823 -0.139015 3.72095e-21)
(1.29407 -0.129912 -1.01361e-20)
(1.28817 -0.120307 -5.82089e-21)
(1.28044 -0.110258 3.03727e-21)
(1.27086 -0.0998916 -7.09848e-21)
(1.2587 -0.0894801 -7.64076e-21)
(1.24273 -0.0798311 -1.08184e-20)
(1.30088 -0.179964 -2.64833e-21)
(1.30142 -0.171829 1.95733e-21)
(1.30057 -0.163176 1.90912e-21)
(1.29817 -0.153988 -1.19507e-21)
(1.29407 -0.144261 1.23619e-21)
(1.28811 -0.134006 5.13356e-21)
(1.28016 -0.123256 1.48805e-20)
(1.27008 -0.112073 1.25374e-20)
(1.25785 -0.100569 -8.29319e-21)
(1.24349 -0.0889284 5.93371e-21)
(1.22615 -0.0775136 1.08825e-21)
(1.2042 -0.0673455 7.79404e-21)
(1.29991 -0.180524 9.91981e-22)
(1.29786 -0.17064 -4.4573e-21)
(1.29402 -0.160205 -7.57309e-21)
(1.28822 -0.149228 -5.18331e-21)
(1.28031 -0.137741 1.38808e-20)
(1.27015 -0.125797 -6.14226e-21)
(1.25764 -0.113475 -1.18931e-20)
(1.2427 -0.100886 -7.25666e-21)
(1.22533 -0.0881926 3.14118e-21)
(1.20569 -0.0756331 1.65883e-21)
(1.18274 -0.0636308 -6.97505e-21)
(1.15447 -0.0533555 -7.15179e-21)
(1.29377 -0.1781 2.67953e-22)
(1.28838 -0.166294 9.35526e-22)
(1.28078 -0.153963 4.58544e-21)
(1.27082 -0.141157 -2.66551e-22)
(1.25837 -0.127954 -4.88342e-21)
(1.24335 -0.114457 -8.33479e-21)
(1.22568 -0.100802 2.07033e-21)
(1.20536 -0.0871516 -1.24823e-22)
(1.18249 -0.0737123 8.00727e-21)
(1.15731 -0.060749 2.95567e-21)
(1.12863 -0.0486885 8.66994e-21)
(1.09405 -0.0387356 5.30657e-22)
(1.28132 -0.172352 3.09971e-21)
(1.27187 -0.158543 1.78984e-22)
(1.25981 -0.144311 1.27461e-20)
(1.24503 -0.129758 1.03451e-20)
(1.22746 -0.115019 -9.20379e-21)
(1.20707 -0.100258 3.77404e-21)
(1.18387 -0.0856687 -3.24125e-21)
(1.15792 -0.0714679 2.99691e-21)
(1.12944 -0.0578902 -4.23613e-21)
(1.09878 -0.0451832 4.11099e-21)
(1.06459 -0.0336785 -1.01773e-20)
(1.02406 -0.0244306 1.30239e-20)
(1.26164 -0.163192 -6.30216e-21)
(1.24751 -0.147418 4.68077e-21)
(1.23044 -0.131409 -1.07359e-20)
(1.21037 -0.115325 4.64145e-21)
(1.18729 -0.0993619 1.72101e-20)
(1.16125 -0.0837493 4.34846e-21)
(1.13236 -0.0687441 7.42366e-21)
(1.10076 -0.0546127 -2.66592e-21)
(1.06679 -0.0416032 4.76746e-22)
(1.03095 -0.0298958 -7.34687e-21)
(0.99174 -0.0196007 1.33905e-20)
(0.945914 -0.0113435 -7.40355e-21)
(1.23408 -0.150724 1.76344e-21)
(1.21486 -0.133174 -8.65499e-21)
(1.19244 -0.115672 5.97544e-22)
(1.16686 -0.0984389 -1.54085e-20)
(1.13817 -0.0817346 -9.94103e-21)
(1.10651 -0.0658529 -5.43076e-21)
(1.07207 -0.0511112 -4.74239e-23)
(1.0351 -0.0378197 -4.46837e-21)
(0.996014 -0.026219 1.39433e-20)
(0.955448 -0.0163631 4.23605e-21)
(0.911782 -0.00796199 -9.36255e-21)
(0.86138 -0.000719445 -3.64733e-21)
(1.19816 -0.134591 5.71228e-21)
(1.17353 -0.115476 1.68499e-21)
(1.14558 -0.0967969 -6.44805e-21)
(1.11439 -0.0788439 1.14028e-20)
(1.08013 -0.0619453 -1.23132e-20)
(1.04304 -0.0464655 -4.06585e-21)
(1.00341 -0.0327909 2.3901e-21)
(0.961585 -0.0212893 -1.60641e-21)
(0.918062 -0.0122129 -1.79294e-20)
(0.873593 -0.00550021 -1.69909e-20)
(0.82659 -0.000317333 6.08328e-21)
(0.77277 0.00560094 -6.30137e-21)
(1.15422 -0.115098 -1.76027e-21)
(1.12402 -0.0945526 -8.85573e-22)
(1.09038 -0.0748666 3.3639e-21)
(1.0535 -0.0563913 -7.10083e-21)
(1.01361 -0.0395158 1.78055e-20)
(0.971023 -0.024664 1.35707e-20)
(0.926105 -0.0122845 -8.75298e-21)
(0.879247 -0.00281596 1.00919e-20)
(0.83098 0.00340339 1.04552e-20)
(0.782147 0.00630128 4.50386e-21)
(0.732103 0.00663516 1.82699e-21)
(0.677373 0.00857856 1.68471e-20)
(1.17329 -0.0039629 0)
(1.17647 -0.00376368 0)
(1.17964 -0.00355285 0)
(1.18276 -0.00332992 0)
(1.18582 -0.00309435 0)
(1.18879 -0.00284662 0)
(1.19163 -0.00258798 0)
(1.19432 -0.00231999 0)
(1.19683 -0.00204452 0)
(1.19913 -0.00176376 0)
(1.20118 -0.00148027 0)
(1.20294 -0.0011969 0)
(1.2044 -0.000916765 0)
(1.20553 -0.00064311 0)
(1.20629 -0.000379249 0)
(1.20668 -0.00012843 0)
(1.20668 0.000106244 0)
(1.20627 0.000322048 0)
(1.20547 0.000516497 0)
(1.20426 0.000688104 0)
(1.20268 0.000835012 0)
(1.20071 0.000958321 0)
(1.19846 0.00105528 0)
(1.19577 0.00113322 0)
(1.19303 0.00118261 0)
(1.18959 0.00122686 0)
(1.18675 0.00123436 0)
(1.1822 0.00126476 0)
(1.18014 0.00124082 0)
(1.17308 0.00126888 0)
(1.17496 -0.011712 0)
(1.17817 -0.0111253 0)
(1.18135 -0.0105018 0)
(1.18448 -0.00984056 0)
(1.18755 -0.00914044 0)
(1.19052 -0.00840346 0)
(1.19336 -0.00763373 0)
(1.19603 -0.00683628 0)
(1.19852 -0.0060169 0)
(1.20079 -0.00518232 0)
(1.2028 -0.0043403 0)
(1.20452 -0.00349944 0)
(1.20593 -0.00266899 0)
(1.207 -0.00185864 0)
(1.2077 -0.00107819 0)
(1.20802 -0.000337222 0)
(1.20794 0.000355171 0)
(1.20747 0.000990994 0)
(1.20659 0.00156308 0)
(1.20532 0.00206704 0)
(1.20367 0.00249784 0)
(1.20164 0.00285819 0)
(1.19933 0.0031416 0)
(1.19659 0.00336687 0)
(1.19381 0.00351179 0)
(1.19033 0.00363481 0)
(1.18746 0.00366207 0)
(1.18286 0.00373729 0)
(1.1808 0.00368458 0)
(1.17369 0.00374879 0)
(1.17812 -0.0192016 0)
(1.18137 -0.0182226 0)
(1.18457 -0.0171835 0)
(1.18773 -0.0160827 0)
(1.1908 -0.0149184 0)
(1.19377 -0.0136946 0)
(1.19659 -0.0124181 0)
(1.19924 -0.0110978 0)
(1.20168 -0.00974331 0)
(1.20389 -0.00836607 0)
(1.20582 -0.00697901 0)
(1.20746 -0.00559644 0)
(1.20876 -0.00423365 0)
(1.20972 -0.00290651 0)
(1.2103 -0.00163103 0)
(1.21049 -0.000422766 0)
(1.21029 0.000703658 0)
(1.20968 0.00173544 0)
(1.20867 0.00266132 0)
(1.20726 0.00347433 0)
(1.20549 0.00416718 0)
(1.20334 0.00474376 0)
(1.20093 0.00519595 0)
(1.19809 0.00555086 0)
(1.19522 0.00578025 0)
(1.19165 0.00596591 0)
(1.18874 0.00601227 0)
(1.18406 0.00611357 0)
(1.18199 0.00604706 0)
(1.17478 0.00612838 0)
(1.18258 -0.0264582 0)
(1.18589 -0.0250777 0)
(1.18912 -0.0236142 0)
(1.19229 -0.0220658 0)
(1.19538 -0.0204305 0)
(1.19834 -0.0187143 0)
(1.20114 -0.0169278 0)
(1.20373 -0.0150836 0)
(1.20611 -0.0131957 0)
(1.20822 -0.0112805 0)
(1.21004 -0.00935633 0)
(1.21155 -0.00744321 0)
(1.21271 -0.00556247 0)
(1.2135 -0.00373603 0)
(1.2139 -0.00198577 0)
(1.21391 -0.000332812 0)
(1.21351 0.00120319 0)
(1.21271 0.00260523 0)
(1.21151 0.00385865 0)
(1.20992 0.00495454 0)
(1.20797 0.00588408 0)
(1.20565 0.00665283 0)
(1.20308 0.00725181 0)
(1.2001 0.00771645 0)
(1.19711 0.00801334 0)
(1.19342 0.0082473 0)
(1.19043 0.00830095 0)
(1.18562 0.00842157 0)
(1.18353 0.00833228 0)
(1.17617 0.0084342 0)
(1.18818 -0.0335334 0)
(1.19156 -0.0317307 0)
(1.19482 -0.0298233 0)
(1.19802 -0.0278088 0)
(1.20111 -0.0256856 0)
(1.20406 -0.0234625 0)
(1.20681 -0.0211541 0)
(1.20933 -0.0187774 0)
(1.21161 -0.0163512 0)
(1.2136 -0.0138972 0)
(1.21527 -0.0114392 0)
(1.2166 -0.00900321 0)
(1.21756 -0.00661643 0)
(1.21814 -0.00430659 0)
(1.21832 -0.00210113 0)
(1.21808 -2.61713e-05 0)
(1.21744 0.00189419 0)
(1.21639 0.00363947 0)
(1.21494 0.00519243 0)
(1.21311 0.006543 0)
(1.21094 0.00768174 0)
(1.2084 0.00861635 0)
(1.20563 0.00933809 0)
(1.20245 0.00989044 0)
(1.1993 0.0102362 0)
(1.19543 0.0105025 0)
(1.19234 0.01055 0)
(1.18735 0.0106825 0)
(1.18521 0.0105594 0)
(1.17763 0.0106878 0)
(1.19479 -0.0404475 0)
(1.19825 -0.0381954 0)
(1.20154 -0.0358178 0)
(1.20475 -0.0333124 0)
(1.20785 -0.0306783 0)
(1.21076 -0.0279278 0)
(1.21345 -0.0250804 0)
(1.21587 -0.0221581 0)
(1.21802 -0.0191849 0)
(1.21984 -0.016188 0)
(1.22132 -0.0131971 0)
(1.22243 -0.0102441 0)
(1.22315 -0.00736205 0)
(1.22346 -0.00458424 0)
(1.22335 -0.00194318 0)
(1.22282 0.000530626 0)
(1.22188 0.00280939 0)
(1.22052 0.00486997 0)
(1.21877 0.00669344 0)
(1.21665 0.00826937 0)
(1.21419 0.00958881 0)
(1.21137 0.0106619 0)
(1.20835 0.0114817 0)
(1.20492 0.0120987 0)
(1.20157 0.0124748 0)
(1.19747 0.0127557 0)
(1.19422 0.0127851 0)
(1.18899 0.0129189 0)
(1.18679 0.0127534 0)
(1.1789 0.0129111 0)
(1.20232 -0.0472157 0)
(1.20585 -0.0444796 0)
(1.20915 -0.0415988 0)
(1.21238 -0.0385711 0)
(1.21546 -0.0353973 0)
(1.21832 -0.032094 0)
(1.22091 -0.0286864 0)
(1.2232 -0.0252018 0)
(1.22517 -0.0216702 0)
(1.22679 -0.0181243 0)
(1.22803 -0.0146001 0)
(1.22887 -0.0111353 0)
(1.22928 -0.00776857 0)
(1.22927 -0.00453828 0)
(1.22882 -0.00148153 0)
(1.22793 0.00136751 0)
(1.22662 0.00397821 0)
(1.2249 0.0063256 0)
(1.22279 0.00839014 0)
(1.2203 0.0101618 0)
(1.21749 0.0116333 0)
(1.21434 0.0128173 0)
(1.211 0.0137109 0)
(1.20726 0.014369 0)
(1.20364 0.0147579 0)
(1.19925 0.0150342 0)
(1.19579 0.0150355 0)
(1.19025 0.0151561 0)
(1.18792 0.0149429 0)
(1.17963 0.0151264 0)
(1.21065 -0.0538402 0)
(1.21426 -0.0505788 0)
(1.21757 -0.0471556 0)
(1.22078 -0.0435691 0)
(1.22382 -0.0398222 0)
(1.22659 -0.0359371 0)
(1.22905 -0.031945 0)
(1.23117 -0.0278795 0)
(1.23292 -0.0237764 0)
(1.23428 -0.0196748 0)
(1.23522 -0.0156165 0)
(1.23572 -0.011645 0)
(1.23577 -0.00780428 0)
(1.23536 -0.0041373 0)
(1.2345 -0.000684904 0)
(1.23319 0.00251533 0)
(1.23144 0.00543114 0)
(1.22927 0.0080367 0)
(1.22672 0.0103129 0)
(1.2238 0.0122506 0)
(1.22057 0.0138459 0)
(1.21701 0.0151134 0)
(1.21327 0.016057 0)
(1.20915 0.0167323 0)
(1.20518 0.0171178 0)
(1.20041 0.0173678 0)
(1.19667 0.0173343 0)
(1.19073 0.0174203 0)
(1.18825 0.0171589 0)
(1.17944 0.0173546 0)
(1.21973 -0.0603121 0)
(1.22339 -0.0564774 0)
(1.22667 -0.0524669 0)
(1.22984 -0.0482803 0)
(1.23281 -0.043923 0)
(1.23546 -0.0394239 0)
(1.23773 -0.0348211 0)
(1.23961 -0.0301546 0)
(1.24108 -0.0254664 0)
(1.24211 -0.0208018 0)
(1.24268 -0.0162086 0)
(1.24277 -0.0117358 0)
(1.24237 -0.00743216 0)
(1.24149 -0.00334475 0)
(1.24013 0.000482486 0)
(1.2383 0.00400974 0)
(1.23602 0.00720376 0)
(1.23333 0.0100387 0)
(1.23024 0.012497 0)
(1.2268 0.0145712 0)
(1.22305 0.016262 0)
(1.21899 0.0175852 0)
(1.21478 0.018555 0)
(1.21018 0.0192224 0)
(1.20577 0.0195888 0)
(1.20055 0.0197873 0)
(1.19645 0.0197146 0)
(1.19003 0.0197365 0)
(1.18732 0.0194319 0)
(1.1779 0.0196119 0)
(1.22945 -0.0666084 0)
(1.23315 -0.0621457 0)
(1.23637 -0.0574975 0)
(1.23945 -0.0526647 0)
(1.24229 -0.0476563 0)
(1.24475 -0.0425085 0)
(1.24677 -0.0372671 0)
(1.24834 -0.0319786 0)
(1.24945 -0.0266913 0)
(1.25006 -0.0214566 0)
(1.25015 -0.016328 0)
(1.24973 -0.0113598 0)
(1.24879 -0.00660498 0)
(1.24732 -0.00211412 0)
(1.24536 0.00206624 0)
(1.2429 0.00589539 0)
(1.23999 0.00933972 0)
(1.23665 0.0123743 0)
(1.23293 0.0149839 0)
(1.22885 0.0171637 0)
(1.22449 0.0189203 0)
(1.21982 0.0202699 0)
(1.21503 0.0212409 0)
(1.20987 0.0218729 0)
(1.20493 0.0222033 0)
(1.19917 0.0223207 0)
(1.19462 0.0222059 0)
(1.18765 0.0221235 0)
(1.18466 0.0217869 0)
(1.17458 0.0219063 0)
(1.23974 -0.0726874 0)
(1.24342 -0.0675349 0)
(1.24652 -0.0621929 0)
(1.24945 -0.0566631 0)
(1.25208 -0.0509595 0)
(1.25426 -0.0451265 0)
(1.25594 -0.0392175 0)
(1.25709 -0.0332855 0)
(1.25772 -0.027385 0)
(1.25779 -0.0215735 0)
(1.2573 -0.0159102 0)
(1.25624 -0.0104539 0)
(1.25461 -0.00526138 0)
(1.25243 -0.000386058 0)
(1.24972 0.00412365 0)
(1.24651 0.00822668 0)
(1.24283 0.0118904 0)
(1.23872 0.0150915 0)
(1.23424 0.0178187 0)
(1.22941 0.0200698 0)
(1.22432 0.0218591 0)
(1.21894 0.0232024 0)
(1.21347 0.0241459 0)
(1.20766 0.0247111 0)
(1.20211 0.0249863 0)
(1.19575 0.0249873 0)
(1.19068 0.0248273 0)
(1.18312 0.0245906 0)
(1.1798 0.0242389 0)
(1.16903 0.0242346 0)
(1.25047 -0.078479 0)
(1.25405 -0.0725687 0)
(1.25694 -0.066471 0)
(1.25962 -0.0601891 0)
(1.26193 -0.0537434 0)
(1.26371 -0.0471871 0)
(1.2649 -0.0405811 0)
(1.2655 -0.0339846 0)
(1.26549 -0.0274584 0)
(1.26487 -0.0210658 0)
(1.26363 -0.0148711 0)
(1.26176 -0.00893752 0)
(1.25929 -0.00332515 0)
(1.25624 0.00191053 0)
(1.25263 0.00672033 0)
(1.2485 0.0110637 0)
(1.24391 0.0149098 0)
(1.23889 0.0182386 0)
(1.23352 0.0210433 0)
(1.22782 0.0233255 0)
(1.2219 0.0251087 0)
(1.21572 0.0264073 0)