/*--------------------------------*- C++ -*----------------------------------*\
  =========                 |
  \\      /  F ield         | OpenFOAM: The Open Source CFD Toolbox
   \\    /   O peration     | Website:  https://openfoam.org
    \\  /    A nd           | Version:  7
     \\/     M anipulation  |
\*---------------------------------------------------------------------------*/
FoamFile
{
    version     2.0;
    format      ascii;
    class       surfaceScalarField;
    location    "15";
    object      phi;
}
// * * * * * * * * * * * * * * * * * * * * * * * * * * * * * * * * * * * * * //

dimensions      [0 3 -1 0 0 0 0];

internalField   nonuniform List<scalar> 
4147
(
-4.23619e-05
4.2362e-05
-1.39226e-10
-0.000145136
0.000102774
-3.80189e-10
-0.000292459
0.000147324
-6.10551e-10
-0.000468892
0.000176434
-0.000659868
0.000190976
-0.000852459
0.000192593
-0.00103639
0.000183934
-0.00120548
0.000169093
-0.00135857
0.000153084
0.000142318
-0.00150088
-4.15927e-05
8.39547e-05
-0.000142137
0.000203319
-0.000285644
0.000290831
-0.000456475
0.000347265
-0.000639788
0.000374289
-0.00082229
0.000375095
-0.000993248
0.000354892
-0.00114597
0.000321816
-0.00127884
0.000285956
0.000260108
-0.00139663
-4.0066e-05
0.000124021
-0.00013618
0.000299433
-0.000272093
0.000426744
-0.000431777
0.000506949
-0.000599844
0.000542356
-0.000762271
0.000537522
-0.000907409
0.00050003
-0.00102754
0.00044195
-0.00112014
0.000378554
0.000329005
-0.00118904
-3.78044e-05
0.000161825
-0.000127337
0.000388965
-0.00025196
0.000551367
-0.000395066
0.000650055
-0.000540456
0.000687747
-0.000673024
0.00067009
-0.000779754
0.00060676
-0.000851385
0.000513581
-0.000883979
0.000411149
0.000324876
-0.00087985
-3.4839e-05
0.000196664
-0.000115711
0.000469838
-0.00022546
0.000661115
-0.000346714
0.000771309
-0.000462216
0.000803248
-0.000555432
0.000763307
-0.000611534
0.000662861
-0.000619177
0.000521225
-0.000572796
0.000364767
0.000223644
-0.000471564
-3.12071e-05
0.000227871
-0.000101428
0.000540058
-0.000192853
0.000752541
-0.000287177
0.000865633
-0.000365848
0.000881919
-0.000410588
0.000808046
-0.00040431
0.000656583
-0.000332831
0.000449745
-0.000188677
0.000220614
1.70233e-05
1.79434e-05
-2.69485e-05
0.00025482
-8.46191e-05
0.000597729
-0.000154421
0.000822342
-0.000216953
0.000928166
-0.000252161
0.000917126
-0.000239717
0.000795603
-0.000159895
0.000576761
4.21294e-06
0.000285637
0.000266127
-4.12999e-05
-0.000341483
0.000624634
-2.21023e-05
0.000276922
-6.54181e-05
0.000641044
-0.000110447
0.000867371
-0.00013655
0.000954269
-0.000121986
0.000902563
-4.41275e-05
0.000717744
0.000119884
0.000412749
0.000391278
1.42441e-05
0.000785263
-0.000435286
-0.000861909
0.00130569
-1.67026e-05
0.000293624
-4.3944e-05
0.000668286
-6.11914e-05
0.000884618
-4.64421e-05
0.00093952
2.38756e-05
0.000832245
0.000174884
0.000566736
0.000432858
0.000154774
0.000823342
-0.000376239
0.00136662
-0.000978563
-0.0015648
0.00206951
-1.07761e-05
0.000304401
-2.02931e-05
0.000677803
-6.86935e-06
0.000871194
5.29628e-05
0.000879688
0.000184719
0.000700489
0.000416147
0.000335308
0.000777153
-0.000206232
0.00129822
-0.000897303
0.00200556
-0.00168591
-0.00246957
0.00291033
-4.34206e-06
0.000308743
5.46597e-06
0.000667995
5.23491e-05
0.000824311
0.000161353
0.000770684
0.000359992
0.00050185
0.00067869
1.66096e-05
0.00115109
-0.000678633
0.00181301
-0.00155922
0.00269767
-0.00257057
-0.00359413
0.00382224
2.60793e-06
0.000306135
3.32898e-05
0.000637313
0.000116371
0.00074123
0.000278525
0.00060853
0.000549314
0.000231061
0.000961808
-0.000395884
0.00155331
-0.00127014
0.00236514
-0.00237105
0.00343856
-0.00364399
-0.00495466
0.00479909
1.00521e-05
0.000296083
6.31757e-05
0.000584189
0.000185145
0.00061926
0.00040437
0.000389305
0.000752483
-0.000117051
0.00126509
-0.000908494
0.0019829
-0.00198795
0.00295252
-0.00334068
0.00422401
-0.00491548
-0.00656481
0.00583417
1.80169e-05
0.000278066
9.5119e-05
0.000507087
0.000258646
0.000455734
0.000538834
0.000109117
0.000969421
-0.000547638
0.00158842
-0.00152749
0.00243945
-0.00283898
0.00357375
-0.00447498
0.00505028
-0.00639201
-0.00843482
0.00692028
2.65061e-05
0.00025156
0.000129114
0.000404479
0.000336831
0.000248017
0.000681843
-0.000235896
0.00120007
-0.00106587
0.00193182
-0.00225924
0.00292305
-0.00383021
0.00422838
-0.00578031
0.00591456
-0.00807818
-0.0105701
0.00804986
3.55199e-05
0.00021604
0.000165122
0.000274877
0.000419584
-6.44422e-06
0.000833196
-0.000649508
0.00144423
-0.0016769
0.00229527
-0.00311028
0.00343411
-0.00496904
0.00491707
-0.00726328
0.00681579
-0.00997691
-0.0129697
0.00921542
4.50425e-05
0.000170997
0.000203044
0.000116875
0.000506645
-0.000310045
0.000992425
-0.00113529
0.00170126
-0.00238573
0.00267828
-0.0040873
0.00397287
-0.00626363
0.00564143
-0.00893184
0.00775537
-0.0120909
-0.0156255
0.0104112
5.50344e-05
0.000115963
0.000242694
-7.07847e-05
0.000597549
-0.000664899
0.00115865
-0.00169639
0.00196982
-0.0031969
0.00307935
-0.00519683
0.00453888
-0.00772317
0.006404
-0.010797
0.00873746
-0.0144243
-0.0185261
0.011638
6.54286e-05
5.05341e-05
0.000283783
-0.000289139
0.000691571
-0.00107269
0.00133042
-0.00233523
0.00224748
-0.00411397
0.0034952
-0.00644455
0.00513004
-0.00935801
0.00720998
-0.0128769
0.00977647
-0.0169908
-0.0216603
0.0129107
7.61315e-05
-2.55974e-05
0.000325922
-0.000538929
0.000787721
-0.00153449
0.00150567
-0.00305318
0.00253035
-0.00513865
0.00391936
-0.00783356
0.00573824
-0.0111769
0.00806185
-0.0152005
0.0109374
-0.0198663
-0.0249585
0.0142356
8.70317e-05
-0.000112629
0.000368652
-0.00082055
0.00088481
-0.00205064
0.00168177
-0.00385015
0.00281301
-0.00626988
0.00434073
-0.00936128
0.00634
-0.0131762
0.00891134
-0.0177718
0.0122572
-0.0232122
-0.0298279
0.0171266
9.80159e-05
-0.000210645
0.000411501
-0.00113404
0.0009816
-0.00262074
0.00185598
-0.00472452
0.00308956
-0.00750347
0.00474608
-0.0110178
0.00690219
-0.0153323
0.00965823
-0.0205279
0.0131786
-0.0267325
-0.0343067
0.0176573
0.000108984
0.000454043
-0.00147909
0.00107699
-0.00324369
0.00202593
-0.00567346
0.00335541
-0.00883295
0.00512686
-0.0127893
0.00740983
-0.0176152
0.0102831
-0.0234011
0.0138362
-0.0302856
-0.038566
0.0180955
0.000495935
0.00117011
-0.00391787
0.0021899
-0.00669325
0.00360772
-0.0102508
0.00547966
-0.0146612
0.00786325
-0.0199988
0.0108109
-0.0263488
0.0143542
-0.0338289
-0.0426541
0.0184423
0.00126032
-0.00464126
0.00234671
-0.00777964
0.0038449
-0.011749
0.00580361
-0.0166199
0.0082664
-0.0224616
0.011261
-0.0293434
0.0147782
-0.0373462
-0.046602
0.0187262
0.00134709
0.00249547
-0.00892802
0.00406589
-0.0133194
0.00609844
-0.0186525
0.00862222
-0.0249854
0.0116431
-0.0323643
0.0151232
-0.0408263
-0.0504279
0.0189491
0.00263538
0.00426972
-0.0149537
0.00636359
-0.0207463
0.00893179
-0.0275536
0.0119611
-0.0353936
0.0153928
-0.0442581
-0.0541363
0.0191013
0.0044552
0.00659787
0.00919443
-0.0301501
0.0122148
-0.038414
0.0155846
-0.0476278
-0.0577223
0.0191707
0.00940809
0.0124018
-0.0414076
0.0156935
-0.0509196
-0.0611749
0.0191461
0.0125182
0.015714
-0.0541155
-0.0644795
0.0190186
0.0156413
0.0187816
-4.23619e-05
-0.000145136
-0.00155036
4.94762e-05
-0.00153802
-1.23391e-05
-0.00145144
-8.658e-05
-0.0012763
-0.000175139
-0.00100617
-0.000270137
-0.000640957
-0.00036521
-0.000184674
-0.000456287
0.000355775
-0.000540453
0.000971883
-0.000616114
0.00165446
-0.000682583
0.00239424
-0.000739794
0.00318228
-0.000788049
0.0040101
-0.000827832
0.00486979
-0.000859699
0.005754
-0.000884221
0.00665592
-0.000901924
0.00756927
-0.000913357
0.00848817
-0.000918906
0.0094074
-0.000919239
0.0103217
-0.000914303
0.0112273
-0.000905616
0.0121186
-0.000891253
0.0129953
-0.000876644
0.0138473
-0.000851963
0.0146859
-0.000838538
0.0154817
-0.000795837
0.0162852
-0.000803378
0.0170013
-0.000716054
0.0177902
-0.000788859
-0.000625905
-0.00144244
9.52803e-05
-0.00142575
-2.90257e-05
-0.00133527
-0.000177064
-0.00115701
-0.000353399
-0.000884744
-0.000542398
-0.000518571
-0.000731383
-6.25231e-05
-0.000912335
0.000476545
-0.00107952
0.00109027
-0.00122984
0.00176962
-0.00136194
0.00250553
-0.0014757
0.0032892
-0.00157172
0.00411231
-0.00165095
0.00496709
-0.00171447
0.00584628
-0.00176342
0.00674317
-0.00179881
0.00765155
-0.00182173
0.00856559
-0.00183295
0.00948014
-0.00183378
0.01039
-0.00182412
0.0112913
-0.00180699
0.0121786
-0.00177853
0.0130516
-0.00174961
0.0139002
-0.00170056
0.0147357
-0.00167404
0.0155288
-0.001589
0.0163299
-0.00160441
0.0170441
-0.00143026
0.0178311
-0.00157594
-0.00125132
-0.00122758
0.000133827
-0.00120236
-5.42496e-05
-0.00110417
-0.000275253
-0.00091976
-0.000537811
-0.00064334
-0.000818817
-0.000275326
-0.0010994
0.000180168
-0.00136783
0.000716422
-0.00161577
0.00132534
-0.00183875
0.00199823
-0.00203483
0.00272639
-0.00220386
0.00350136
-0.00234669
0.00431511
-0.00246471
0.00516013
-0.00255949
0.00602937
-0.00263266
0.00691628
-0.00268572
0.0078148
-0.00272026
0.00871923
-0.00273738
0.00962448
-0.00273904
0.0105254
-0.00272505
0.0114184
-0.00269995
0.0122977
-0.00265791
0.0131634
-0.00261526
0.0140053
-0.00254243
0.0148347
-0.00250348
0.0156225
-0.00237679
0.0164188
-0.00240072
0.0171293
-0.00214074
0.0179128
-0.00235944
-0.00187574
-0.000907757
0.000161733
-0.00087015
-9.18566e-05
-0.000760615
-0.000384787
-0.000567211
-0.000731216
-0.00028479
-0.00110124
8.57675e-05
-0.00146995
0.000540225
-0.00182229
0.0010721
-0.00214765
0.00167372
-0.00244036
0.0023369
-0.00269801
0.00305346
-0.00292042
0.00381546
-0.00310868
0.0046153
-0.00326455
0.00544584
-0.00339002
0.00630033
-0.00348716
0.00717249
-0.00355788
0.00805645
-0.00360422
0.00894668
-0.0036276
0.00983823
-0.00363059
0.0107261
-0.00361288
0.0116066
-0.00358051
0.0124744
-0.00352567
0.0133293
-0.00347015
0.0141613
-0.00337445
0.0149818
-0.00332403
0.0157618
-0.00315671
0.0165512
-0.00319012
0.0172562
-0.00284579
0.0180345
-0.00313773
-0.0024988
-0.00048607
0.000176239
-0.000432228
-0.000145698
-0.000308156
-0.000508859
-0.000103212
-0.00093616
0.000186729
-0.00139118
0.00056022
-0.00184345
0.00101295
-0.00227501
0.00153872
-0.00267342
0.00213042
-0.00303207
0.0027806
-0.00334819
0.00348177
-0.00362159
0.00422663
-0.00385354
0.00500816
-0.00404608
0.00581968
-0.00420154
0.00665486
-0.00432234
0.00750773
-0.00441074
0.00837269
-0.00446918
0.0092444
-0.00449931
0.0101181
-0.00450431
0.0109889
-0.00448368
0.0118534
-0.00444499
0.0127061
-0.00437836
0.013547
-0.0043111
0.0143663
-0.0041937
0.0151754
-0.00413311
0.0159452
-0.00392652
0.0167257
-0.00397067
0.0174239
-0.00354394
0.0181955
-0.0039094
-0.00312026
4.26374e-05
0.000151545
0.00010752
-0.000210581
0.000248451
-0.00064979
0.000467105
-0.00115481
0.000765763
-0.00168984
0.00114225
-0.00221993
0.0015922
-0.00272496
0.00210988
-0.0031911
0.00268894
-0.00361113
0.00332279
-0.00398204
0.00400481
-0.00430361
0.00472849
-0.00457722
0.0054875
-0.0048051
0.00627574
-0.00498977
0.00708733
-0.00513394
0.00791669
-0.0052401
0.00875854
-0.00531102
0.00960778
-0.00534855
0.0104599
-0.0053564
0.0113101
-0.00533388
0.0121551
-0.00529003
0.0129896
-0.00521288
0.0138138
-0.00513529
0.0146177
-0.00499764
0.0154131
-0.00492843
0.0161708
-0.00468424
0.0169408
-0.00474067
0.0176308
-0.00423397
0.0183947
-0.00467327
-0.00374006
0.000648847
0.000127332
0.000742361
-0.000304095
0.000903704
-0.000811133
0.00113776
-0.00138886
0.00144577
-0.00199785
0.00182479
-0.00259895
0.0022705
-0.00317067
0.00277781
-0.00369841
0.00334131
-0.00417463
0.00395546
-0.00459619
0.00461466
-0.00496281
0.0053133
-0.00527587
0.00604585
-0.00553764
0.00680683
-0.00575075
0.00759091
-0.00591803
0.00839294
-0.00604213
0.00920797
-0.00612605
0.0100312
-0.00617179
0.0108583
-0.00618353
0.0116848
-0.00616032
0.0125075
-0.00611271
0.0133211
-0.00602654
0.0141261
-0.00594027
0.0149125
-0.00578408
0.0156922
-0.0057081
0.0164363
-0.00542829
0.0171944
-0.0054988
0.0178754
-0.00491497
0.0186306
-0.00542848
-0.00435836
0.00135172
8.13051e-05
0.00146833
-0.000420709
0.0016513
-0.0009941
0.00190181
-0.00163938
0.00221915
-0.00231519
0.00259962
-0.00297943
0.00303913
-0.00361018
0.00353343
-0.00419271
0.00407827
-0.00471947
0.00466932
-0.00518724
0.00530212
-0.00559561
0.00597208
-0.00594583
0.0066745
-0.00624006
0.00740463
-0.00648087
0.0081577
-0.0066711
0.00892902
-0.00681344
0.00971402
-0.00691106
0.0105082
-0.00696597
0.0113075
-0.00698283
0.0121075
-0.00696036
0.0129054
-0.00691061
0.013696
-0.00681714
0.0144799
-0.00672408
0.0152471
-0.00655131
0.0160097
-0.00647067
0.0167388
-0.00615749
0.0174842
-0.0062441
0.0181556
-0.00558642
0.0189017
-0.00617455
-0.00497558
0.00213782
1.29978e-05
0.00227883
-0.000561721
0.00248438
-0.00119965
0.00275159
-0.00190659
0.00307741
-0.00264101
0.0034575
-0.00335952
0.00388825
-0.00404093
0.00436652
-0.00467098
0.00488939
-0.00524234
0.00545391
-0.00575175
0.00605687
-0.00619856
0.00669474
-0.00658371
0.00736374
-0.00690906
0.00805983
-0.00717697
0.00877886
-0.00739014
0.00951661
-0.00755119
0.0102689
-0.00766335
0.0110315
-0.0077286
0.0118007
-0.00775202
0.0125723
-0.00773191
0.0133435
-0.00768183
0.0141094
-0.00758301
0.0148706
-0.00748529
0.0156174
-0.00729812
0.0163619
-0.00721516
0.0170755
-0.00687111
0.0178074
-0.00697607
0.0184692
-0.0062482
0.019206
-0.00691137
-0.00559242
0.00300133
-7.80005e-05
0.00316721
-0.000727601
0.00339558
-0.00142802
0.00367877
-0.00218978
0.00401122
-0.00297345
0.00438823
-0.00373653
0.004807
-0.0044597
0.00526577
-0.00512975
0.00576318
-0.00573976
0.00629775
-0.00628633
0.00686759
-0.0067684
0.00747028
-0.0071864
0.00810294
-0.00754172
0.00876229
-0.00783632
0.00944478
-0.00807263
0.0101467
-0.00825306
0.0108641
-0.00838083
0.0115933
-0.00845779
0.0123307
-0.00848939
0.0130723
-0.00847347
0.0138155
-0.00842509
0.0145556
-0.00832305
0.0152933
-0.008223
0.016019
-0.00802383
0.0167449
-0.0079411
0.0174427
-0.00756894
0.0181613
-0.00769467
0.0188138
-0.00690065
0.0195417
-0.0076393
-0.00620987
0.00393611
-0.000191877
0.00412672
-0.000918206
0.00437715
-0.00167846
0.00467445
-0.00248707
0.00501049
-0.0033095
0.00538072
-0.00410676
0.00578357
-0.00486255
0.00621896
-0.00556514
0.00668726
-0.00620805
0.00718852
-0.00678759
0.00772218
-0.00730206
0.00828694
-0.00775116
0.00888081
-0.00813559
0.00950124
-0.00845675
0.0101453
-0.00871664
0.0108096
-0.00891736
0.0114907
-0.00906202
0.0121852
-0.00915227
0.0128897
-0.00919388
0.0136004
-0.00918417
0.014315
-0.0091397
0.0150288
-0.00903678
0.0157427
-0.00893693
0.0164472
-0.00872833
0.0171547
-0.00864858
0.017837
-0.00825128
0.0185427
-0.00840036
0.0191866
-0.00754456
0.0199065
-0.00835913
-0.00682926
0.0049358
-0.000328585
0.00515053
-0.00113294
0.00542109
-0.00194901
0.00572917
-0.00279515
0.00606443
-0.00364476
0.00642308
-0.00446541
0.00680533
-0.00524481
0.00721308
-0.00597289
0.00764849
-0.00664346
0.00811319
-0.0072523
0.00860792
-0.00779679
0.00913241
-0.00827565
0.00968554
-0.00868872
0.0102654
-0.00903663
0.0108696
-0.00932085
0.0114953
-0.00954303
0.0121394
-0.0097061
0.0127985
-0.00981143
0.0134698
-0.00986509
0.0141494
-0.00986379
0.0148353
-0.00982565
0.0155229
-0.00972433
0.0162133
-0.00962738
0.0168971
-0.00941211
0.0175868
-0.00933825
0.0182545
-0.00891898
0.0189482
-0.00909411
0.0195849
-0.00818123
0.0202979
-0.00907215
-0.00745226
0.00599401
-0.000488426
0.00623187
-0.0013708
0.00651914
-0.00223627
0.00683293
-0.00310895
0.00716145
-0.00397328
0.00750258
-0.00480654
0.00785888
-0.00560111
0.0082344
-0.00634841
0.00863315
-0.00704221
0.00905825
-0.0076774
0.00951164
-0.00825017
0.009994
-0.00875802
0.010505
-0.0091997
0.0110433
-0.00957495
0.011607
-0.00988457
0.0121937
-0.0101297
0.0128005
-0.0103129
0.0134244
-0.0104353
0.0140626
-0.0105033
0.0147116
-0.0105128
0.0153694
-0.0104835
0.0160316
-0.0103865
0.0166995
-0.0102953
0.0173636
-0.0100762
0.0180366
-0.0100113
0.0186911
-0.00957344
0.0193744
-0.0097774
0.0200056
-0.00881244
0.0207136
-0.00978014
-0.00808088
0.00710442
-0.000672562
0.00736413
-0.00163051
0.00766282
-0.00253496
0.00797508
-0.00342121
0.00828918
-0.00428738
0.00860573
-0.00512308
0.00893011
-0.0059255
0.00926865
-0.00668695
0.00962708
-0.00740063
0.0100099
-0.00806017
0.0104199
-0.00866025
0.0108588
-0.00919693
0.0113269
-0.00966772
0.0118233
-0.0100713
0.0123465
-0.0104078
0.0128943
-0.0106775
0.0134644
-0.010883
0.0140538
-0.0110247
0.0146599
-0.0111094
0.0152793
-0.0111322
0.0159104
-0.0111146
0.0165485
-0.0110246
0.0171953
-0.0109421
0.0178414
-0.0107223
0.0184997
-0.0106696
0.0191428
-0.0102166
0.0198177
-0.0104523
0.0204457
-0.00944047
0.0211509
-0.0104854
-0.00871748
0.00826104
-0.000883745
0.00854106
-0.00191053
0.00884335
-0.00283725
0.00914415
-0.00372202
0.0094343
-0.00457752
0.00971819
-0.00540698
0.0100043
-0.00621163
0.0103012
-0.00698377
0.0106159
-0.00771535
0.010954
-0.00839832
0.0113194
-0.00902561
0.0117141
-0.00959167
0.012139
-0.0100926
0.0125938
-0.0105261
0.0130771
-0.0108911
0.0135872
-0.0111876
0.0141217
-0.0114175
0.014678
-0.011581
0.0152535
-0.0116849
0.0158451
-0.0117238
0.0164512
-0.0117206
0.0170673
-0.0116406
0.0176952
-0.01157
0.0183255
-0.0113527
0.0189713
-0.0113153
0.0196056
-0.0108509
0.0202745
-0.0111212
0.0209021
-0.0100681
0.0216073
-0.0111905
-0.00936474
0.00945908
-0.0011274
0.00975688
-0.00220832
0.0100513
-0.00313163
0.0103275
-0.00399827
0.0105824
-0.00483241
0.0108249
-0.00564944
0.0110663
-0.00645309
0.011317
-0.00723441
0.011585
-0.00798344
0.0118769
-0.00869013
0.0121967
-0.00934546
0.0125472
-0.00994218
0.0129295
-0.0104749
0.0133436
-0.0109401
0.0137884
-0.0113359
0.0142622
-0.0116615
0.0147631
-0.0119183
0.0152883
-0.0121062
0.0158355
-0.0122322
0.0164016
-0.0122899
0.0169852
-0.0123042
0.0175817
-0.0122372
0.0181934
-0.0121816
0.0188106
-0.01197
0.0194467
-0.0119514
0.0200751
-0.0114793
0.0207411
-0.0117872
0.0213716
-0.0106985
0.0220799
-0.0118989
-0.0100257
0.0106951
-0.00141132
0.0110051
-0.00251832
0.0112754
-0.00340189
0.0115106
-0.00423355
0.0117176
-0.00503935
0.0119096
-0.00584146
0.0121003
-0.00664376
0.0123008
-0.00743498
0.0125201
-0.00820267
0.0127645
-0.00893459
0.0130388
-0.00961975
0.0133458
-0.0102491
0.0136867
-0.0108159
0.0140617
-0.0113151
0.01447
-0.0117442
0.0149099
-0.0121014
0.0153795
-0.012388
0.0158763
-0.012603
0.0163981
-0.0127539
0.0169416
-0.0128335
0.0175057
-0.0128683
0.0180858
-0.0128174
0.0186843
-0.0127801
0.0192918
-0.0125775
0.0199216
-0.0125812
0.0205476
-0.0121053
0.0212141
-0.0124537
0.0218509
-0.0113354
0.0225661
-0.012614
-0.0107037
0.0119664
-0.00173974
0.0122781
-0.00283007
0.0125025
-0.00362624
0.012677
-0.00440809
0.0128225
-0.00518485
0.0129555
-0.00597438
0.01309
-0.0067783
0.0132375
-0.00758244
0.0134064
-0.00837165
0.0136034
-0.00913154
0.0138328
-0.00984922
0.0140977
-0.0105139
0.0143992
-0.0111174
0.0147375
-0.0116535
0.015112
-0.0121186
0.015521
-0.0125104
0.0159625
-0.0128295
0.0164342
-0.0130747
0.0169338
-0.0132535
0.0174582
-0.0133579
0.0180063
-0.0134164
0.0185737
-0.0133848
0.0191628
-0.0133692
0.0197642
-0.0131789
0.0203914
-0.0132083
0.0210188
-0.0127327
0.0216897
-0.0131246
0.0223372
-0.0119828
0.0230631
-0.01334
-0.0114023
0.0132893
-0.00211838
0.013576
-0.00311674
0.0137203
-0.00377049
0.0138105
-0.00449831
0.0138809
-0.00525527
0.013947
-0.00604052
0.0140212
-0.00685249
0.0141136
-0.0076748
0.0142319
-0.00848993
0.014382
-0.00928164
0.0145681
-0.0100353
0.0147929
-0.0107387
0.0150576
-0.0113821
0.0153622
-0.0119582
0.0157061
-0.0124625
0.0160875
-0.0128918
0.0165046
-0.0132466
0.0169548
-0.0135249
0.0174361
-0.0137348
0.0179454
-0.0138672
0.0184815
-0.0139525
0.0190401
-0.0139434
0.0196238
-0.0139529
0.0202233
-0.0137784
0.0208521
-0.0138371
0.0214852
-0.0133658
0.0221648
-0.0138042
0.0228272
-0.0126452
0.0235683
-0.0140812
-0.0121254
0.014746
-0.0026288
0.0149004
-0.00327115
0.0149115
-0.00378156
0.0148932
-0.00448002
0.0148767
-0.00523874
0.0148706
-0.00603446
0.0148824
-0.00686422
0.0149194
-0.00771185
0.014988
-0.00855851
0.015093
-0.00938668
0.0152382
-0.0101805
0.0154256
-0.0109262
0.0156565
-0.0116129
0.0159307
-0.0122324
0.0162474
-0.0127791
0.0166048
-0.0132493
0.0170011
-0.0136429
0.0174337
-0.0139575
0.0179005
-0.0142016
0.0183986
-0.0143652
0.0189267
-0.0144807
0.0194808
-0.0144975
0.0200632
-0.0145353
0.0206653
-0.0143805
0.0212997
-0.0144715
0.0219436
-0.0140096
0.0226353
-0.014496
0.0233189
-0.0133287
0.0240777
-0.0148399
-0.0128786
0.0323536
-0.00177503
-0.0332074
0.0319531
-0.00287063
0.0317255
-0.00355388
0.0315416
-0.00429615
0.0313877
-0.00508488
0.0312551
-0.00590181
0.0311395
-0.00674865
0.0310417
-0.00761407
0.0309643
-0.00848112
0.0309108
-0.00933315
0.0308849
-0.0101546
0.0308901
-0.0109314
0.0309292
-0.011652
0.0310042
-0.0123074
0.0311162
-0.0128911
0.0312653
-0.0133984
0.031451
-0.0138285
0.0316721
-0.0141786
0.0319266
-0.0144561
0.0322128
-0.0146514
0.0325278
-0.0147957
0.03287
-0.0148396
0.0332364
-0.0149017
0.0336253
-0.0147695
0.034036
-0.0148822
0.0344633
-0.0144369
0.0349163
-0.014949
0.035378
-0.0137904
0.0358725
-0.0153344
-0.0133899
0.0390694
-0.000931423
-0.039913
0.0382691
-0.00207034
0.0376842
-0.00296903
0.0372108
-0.00382279
0.0368162
-0.00469024
0.0364804
-0.00556603
0.0361887
-0.00645697
0.0359343
-0.00735967
0.0357148
-0.00826162
0.0355302
-0.00914857
0.0353819
-0.0100062
0.0352717
-0.0108211
0.0352012
-0.0115816
0.0351719
-0.012278
0.0351841
-0.0129034
0.0352379
-0.0134522
0.0353324
-0.013923
0.0354662
-0.0143124
0.0356372
-0.0146271
0.0358435
-0.0148578
0.0360821
-0.0150342
0.0363515
-0.0151091
0.0366477
-0.0151978
0.0369709
-0.0150926
0.0373162
-0.0152276
0.0376859
-0.0148066
0.0380759
-0.015339
0.0384916
-0.014206
0.03892
-0.0157629
-0.0138652
0.0460095
-8.97024e-06
-0.0469319
0.0450459
-0.00110676
0.0442143
-0.00213741
0.0434917
-0.00310023
0.0428636
-0.00406211
0.0423161
-0.00501853
0.0418335
-0.00597437
0.0414055
-0.00693165
0.0410264
-0.00788252
0.0406935
-0.00881564
0.0404059
-0.00971864
0.0401639
-0.0105791
0.0399681
-0.0113858
0.039819
-0.0121289
0.0397167
-0.012801
0.0396607
-0.0133962
0.0396499
-0.0139122
0.0396828
-0.0143453
0.0397571
-0.0147014
0.0398709
-0.0149716
0.0400207
-0.0151841
0.0402055
-0.0152938
0.0404202
-0.0154125
0.0406662
-0.0153387
0.0409364
-0.0154977
0.0412371
-0.0151073
0.0415556
-0.0156575
0.0419132
-0.0145637
0.0422697
-0.0161194
-0.014293
0.0532544
0.000985627
-0.054249
0.0521948
-4.71559e-05
0.0511998
-0.00114242
0.0502873
-0.0021877
0.0494588
-0.00323362
0.0487133
-0.00427306
0.0480419
-0.00530292
0.0474356
-0.00632539
0.0468885
-0.0073354
0.0463967
-0.00832384
0.0459582
-0.00928013
0.0455722
-0.0101931
0.0452384
-0.011052
0.0449568
-0.0118473
0.044727
-0.0125712
0.0445484
-0.0132176
0.0444196
-0.0137834
0.044339
-0.0142648
0.0443043
-0.0146667
0.0443135
-0.0149808
0.0443629
-0.0152334
0.0444514
-0.0153823
0.0445735
-0.0155347
0.0447316
-0.0154967
0.0449159
-0.0156821
0.0451374
-0.0153288
0.0453743
-0.0158944
0.0456644
-0.0148537
0.045939
-0.016394
-0.0146641
0.0607374
0.00204282
-0.0617946
0.0596215
0.00106872
0.0585282
-4.91258e-05
0.0574864
-0.00114588
0.0565053
-0.00225254
0.0555941
-0.00336182
0.054753
-0.00446187
0.0539784
-0.00555077
0.0532666
-0.00662361
0.0526149
-0.00767209
0.0520213
-0.00868661
0.0514851
-0.00965687
0.0510057
-0.0105727
0.0505829
-0.0114245
0.0502163
-0.0122046
0.0499052
-0.0129064
0.0496481
-0.0135264
0.0494436
-0.0140603
0.0492893
-0.0145124
0.0491832
-0.0148746
0.0491215
-0.0151717
0.0491033
-0.0153642
0.0491226
-0.015554
0.0491825
-0.0155566
0.0492711
-0.0157707
0.0494036
-0.0154613
0.0495492
-0.0160399
0.0497622
-0.0150667
0.0499454
-0.0165772
-0.0149689
0.0683514
0.00313342
-0.069442
0.0672184
0.0022017
0.0660809
0.00108836
0.0649671
-3.2126e-05
0.0638874
-0.00117284
0.0628552
-0.00232961
0.0618786
-0.00348524
0.06096
-0.00463215
0.0601
-0.0057636
0.0592986
-0.00687068
0.0585556
-0.00794369
0.0578713
-0.00897251
0.0572457
-0.00994708
0.0566791
-0.0108579
0.0561714
-0.0116969
0.0557221
-0.0124572
0.0553303
-0.0131346
0.0549946
-0.0137247
0.0547129
-0.0142306
0.0544832
-0.014645
0.054302
-0.0149905
0.0541684
-0.0152306
0.0540761
-0.0154617
0.0540289
-0.0155094
0.054013
-0.0157548
0.0540477
-0.015496
0.0540931
-0.0160853
0.0542202
-0.0151939
0.0543034
-0.0166603
-0.0151981
0.0759738
0.00421024
-0.0770506
0.0748652
0.00331022
0.0737331
0.00222053
0.0726008
0.00110012
0.0714772
-4.91717e-05
0.0703753
-0.00122781
0.0693077
-0.00241755
0.0682817
-0.0036062
0.0673025
-0.00478441
0.0663737
-0.00594188
0.065498
-0.00706793
0.0646773
-0.00815191
0.0639136
-0.00918335
0.0632081
-0.0101524
0.0625617
-0.0110505
0.0619747
-0.0118702
0.0614467
-0.0126066
0.0609771
-0.0132551
0.0605641
-0.0138176
0.0602062
-0.0142871
0.0599
-0.0146844
0.0596451
-0.0149756
0.0594347
-0.0152513
0.0592737
-0.0153484
0.0591463
-0.0156273
0.0590759
-0.0154256
0.0590137
-0.0160231
0.0590471
-0.0152273
0.0590231
-0.0166363
-0.0153429
0.0834741
0.00521813
-0.084482
0.0824358
0.00434859
0.0813571
0.00329921
0.0802565
0.00220069
0.0791418
0.00106557
0.0780234
-0.000109453
0.0769148
-0.00130895
0.0758267
-0.00251805
0.0747675
-0.00372526
0.0737444
-0.00491878
0.0727632
-0.00608666
0.0718284
-0.00721717
0.0709441
-0.00829904
0.0701134
-0.00932165
0.0693385
-0.0102756
0.0686212
-0.0111529
0.0679622
-0.0119476
0.0673617
-0.0126545
0.0668187
-0.0132746
0.0663324
-0.0138008
0.0658999
-0.0142519
0.0655211
-0.0145968
0.0651896
-0.0149198
0.0649109
-0.0150697
0.0646675
-0.015384
0.064487
-0.015245
0.0643121
-0.0158483
0.0642455
-0.0151606
0.0641092
-0.0165
-0.0153951
0.0907331
0.00610326
-0.0916183
0.0898103
0.00527141
0.088831
0.00427846
0.0878092
0.00322256
0.0867523
0.0021224
0.0856688
0.000974113
0.0845704
-0.000210603
0.0834692
-0.00141687
0.0823757
-0.00263177
0.0812995
-0.00384255
0.080249
-0.00503616
0.0792316
-0.00619974
0.0782535
-0.00732096
0.0773201
-0.00838822
0.0764356
-0.00939113
0.0756033
-0.0103206
0.0748255
-0.0111699
0.0741037
-0.0119327
0.073438
-0.0126089
0.0728286
-0.0131914
0.0722734
-0.0136967
0.071773
-0.0140964
0.0713213
-0.0144681
0.0709247
-0.014673
0.0705643
-0.0150236
0.0702715
-0.0149522
0.0699816
-0.0155585
0.0698107
-0.0149896
0.0695597
-0.016249
-0.0153482
0.0976602
0.00682207
-0.098379
0.0968915
0.00604013
0.0960515
0.00511849
0.0951498
0.00412427
0.0941943
0.00307786
0.0931916
0.00197679
0.0921518
0.000829224
0.0910861
-0.000351186
0.0900058
-0.00155148
0.0889218
-0.00275846
0.0878441
-0.00395853
0.0867824
-0.005138
0.085745
-0.00628355
0.0847393
-0.00738257
0.0837718
-0.00842357
0.0828475
-0.00939635
0.0819706
-0.010293
0.0811441
-0.0111062
0.0803697
-0.0118344
0.0796486
-0.0124704
0.0789801
-0.0130281
0.0783654
-0.0134818
0.0777991
-0.0139018
0.0772886
-0.0141626
0.0768143
-0.0145493
0.0764106
-0.0145485
0.0760069
-0.0151547
0.0757302
-0.0147129
0.0753651
-0.0158839
-0.0151977
0.104207
0.00734756
-0.104733
0.103619
0.00662868
0.102947
0.00579032
0.102198
0.00487362
0.101379
0.00389703
0.100495
0.0028603
0.0995552
0.00176914
0.0985688
0.000635173
0.0975466
-0.000529267
0.0964995
-0.00171138
0.0954385
-0.00289753
0.0943742
-0.00407368
0.0933166
-0.00522591
0.0922748
-0.00634078
0.091257
-0.00740581
0.0902703
-0.0084097
0.0893207
-0.00934328
0.0884127
-0.0101982
0.0875497
-0.0109715
0.0867346
-0.0116552
0.0859677
-0.0122612
0.0852516
-0.0127656
0.0845814
-0.0132317
0.0839661
-0.0135473
0.0833851
-0.0139683
0.0828761
-0.0140395
0.0823636
-0.0146421
0.0819828
-0.0143322
0.0815079
-0.015409
-0.0149416
0.110375
0.00767196
-0.1107
0.109977
0.00702678
0.109488
0.00627925
0.108911
0.00545104
0.108251
0.00455643
0.107515
0.00359713
0.106706
0.0025775
0.105834
0.00150695
0.104909
0.000396681
0.103938
-0.000741365
0.102935
-0.00189413
0.101909
-0.0030477
0.100871
-0.00418804
0.0998317
-0.00530124
0.0988
-0.0063741
0.0977847
-0.00739443
0.0967934
-0.00835192
0.0958323
-0.0092372
0.0949065
-0.0100457
0.0940203
-0.010769
0.0931755
-0.0114163
0.0923759
-0.011966
0.0916178
-0.0124736
0.0909112
-0.0128407
0.0902356
-0.0132927
0.089631
-0.0134349
0.0890189
-0.01403
0.0885394
-0.0138527
0.0879628
-0.0148324
-0.0145809
0.11621
0.00780529
-0.116343
0.115996
0.00723991
0.11569
0.00658564
0.11529
0.00585114
0.114801
0.00504579
0.114225
0.00417241
0.113568
0.00323467
0.112835
0.00224003
0.112034
0.00119813
0.111172
0.000120016
0.110261
-0.000982524
0.109309
-0.00209598
0.108328
-0.0032067
0.107327
-0.00430076
0.106318
-0.00536463
0.105309
-0.0063855
0.104309
-0.0073522
0.103326
-0.00825443
0.102367
-0.00908619
0.101436
-0.00983858
0.100538
-0.0105181
0.0996773
-0.0111053
0.0988514
-0.0116477
0.0980716
-0.0120609
0.0973176
-0.0125387
0.096631
-0.0127484
0.0959327
-0.0133317
0.0953634
-0.0132834
0.0946968
-0.0141657
-0.0141197
0.12179
0.00777077
-0.121756
0.121744
0.00728613
0.121607
0.00672282
0.121376
0.00608178
0.121054
0.00536785
0.120643
0.00458406
0.120144
0.00373368
0.119561
0.00282254
0.118901
0.00185871
0.118169
0.000851836
0.117373
-0.000187147
0.116524
-0.00124612
0.115629
-0.00231187
0.114699
-0.00337093
0.113744
-0.00440984
0.112774
-0.00541556
0.111798
-0.00637636
0.110825
-0.00728128
0.109862
-0.00812312
0.108916
-0.0088925
0.107991
-0.00959347
0.107094
-0.0102084
0.106224
-0.0107771
0.105392
-0.0112289
0.104579
-0.0117259
0.103828
-0.0119971
0.10306
-0.012564
0.102413
-0.0126366
0.101671
-0.013424
-0.0135658
0.127218
0.00759864
-0.127046
0.127313
0.00719121
0.127323
0.00671291
0.127244
0.00616074
0.127076
0.00553594
0.126819
0.00484109
0.126473
0.00407907
0.126041
0.00325441
0.125526
0.00237366
0.124933
0.00144508
0.124268
0.000478398
0.123537
-0.000515405
0.122749
-0.00152424
0.121913
-0.00253522
0.121039
-0.00353535
0.120135
-0.00451173
0.119211
-0.00545243
0.118276
-0.00634609
0.117338
-0.00718465
0.116403
-0.00795837
0.115479
-0.00866901
0.114571
-0.00930096
0.11368
-0.00988607
0.112819
-0.0103675
0.111969
-0.0108758
0.111172
-0.0112001
0.110354
-0.0117461
0.109645
-0.011927
0.108845
-0.0126245
-0.0129299
0.132595
0.00732021
-0.132316
0.132803
0.00698338
0.132934
0.00658197
0.132983
0.00611129
0.132949
0.00557015
0.13283
0.00496027
0.132625
0.00428407
0.132334
0.00354504
0.131959
0.00274837
0.131504
0.001901
0.130971
0.00101135
0.130366
8.9327e-05
0.129696
-0.000854372
0.128968
-0.00180758
0.128191
-0.00275808
0.127373
-0.00369339
0.126522
-0.00460168
0.125647