/*--------------------------------*- C++ -*----------------------------------*\
  =========                 |
  \\      /  F ield         | OpenFOAM: The Open Source CFD Toolbox
   \\    /   O peration     | Website:  https://openfoam.org
    \\  /    A nd           | Version:  7
     \\/     M anipulation  |
\*---------------------------------------------------------------------------*/
FoamFile
{
    version     2.0;
    format      ascii;
    class       volVectorField;
    location    "15";
    object      U;
}
// * * * * * * * * * * * * * * * * * * * * * * * * * * * * * * * * * * * * * //

dimensions      [0 1 -1 0 0 0 0];

internalField   nonuniform List<vector> 
2125
(
(-0.000760958 0.000601771 3.65841e-22)
(-0.0038455 0.0013109 -1.17109e-21)
(-0.00929763 0.00165898 -1.44297e-21)
(-0.0153963 0.00174183 1.50632e-21)
(-0.0213982 0.00163161 -1.4482e-21)
(-0.0267669 0.00139446 -8.00615e-22)
(-0.0311428 0.00109182 1.40937e-21)
(-0.0343911 0.0007812 1.79506e-21)
(-0.0365624 0.000510217 -2.98325e-22)
(-0.0377598 0.000322273 8.92383e-22)
(-0.000844502 0.00179199 -4.05027e-22)
(-0.00398368 0.00390069 1.39119e-21)
(-0.00937034 0.00493297 -3.45808e-21)
(-0.015314 0.00517415 3.29278e-21)
(-0.0210838 0.00483961 1.54831e-22)
(-0.026153 0.00412694 2.61458e-21)
(-0.0301704 0.00321987 -4.6851e-21)
(-0.0330105 0.00229081 -7.02489e-21)
(-0.0347324 0.00148338 -1.39612e-21)
(-0.0353932 0.000930712 3.21448e-21)
(-0.00100813 0.00294256 3.77398e-22)
(-0.00425171 0.00639519 3.07174e-21)
(-0.00950432 0.0080761 7.62823e-21)
(-0.0151361 0.00845369 -7.23506e-21)
(-0.0204405 0.00788339 -1.7017e-21)
(-0.0249107 0.00669163 -1.60168e-21)
(-0.0282112 0.00518272 8.4977e-21)
(-0.0302355 0.00364353 5.42156e-21)
(-0.0310602 0.00231556 1.32876e-21)
(-0.0306469 0.00143029 -9.96451e-21)
(-0.001245 0.00402816 1.33901e-21)
(-0.00463301 0.00873324 -1.79661e-21)
(-0.00967681 0.0110043 -1.42622e-20)
(-0.0148357 0.0114824 1.32005e-21)
(-0.0194394 0.0106578 4.2754e-21)
(-0.0230103 0.00898135 -3.44675e-21)
(-0.0252361 0.00687511 -1.59099e-22)
(-0.0260383 0.00473937 -1.47867e-21)
(-0.0255227 0.0029161 3.42282e-21)
(-0.0234935 0.00174982 9.91798e-21)
(-0.00154505 0.00502496 9.36697e-22)
(-0.00510308 0.0108572 -5.8594e-21)
(-0.00985387 0.0136384 1.47836e-20)
(-0.0143729 0.0141681 -7.07613e-21)
(-0.0180371 0.0130642 -2.78638e-23)
(-0.0204071 0.010896 1.05386e-20)
(-0.0212012 0.00819909 -4.97689e-21)
(-0.0203769 0.0054854 5.33884e-22)
(-0.0180854 0.00320336 -2.17608e-21)
(-0.0138932 0.00184475 7.83408e-22)
(-0.0018952 0.00591121 1.12756e-20)
(-0.00562975 0.0127139 1.51087e-20)
(-0.00999069 0.0159053 -4.04528e-21)
(-0.0136943 0.0164261 8.10832e-21)
(-0.0161755 0.0150128 2.68387e-21)
(-0.0170412 0.0123453 -3.9382e-21)
(-0.016047 0.00906708 -1.59423e-21)
(-0.0131925 0.00579907 -6.96767e-21)
(-0.00869097 0.00310744 1.57959e-21)
(-0.00182159 0.00174055 -9.17801e-21)
(-0.00227962 0.00666758 -1.08816e-20)
(-0.00617368 0.014256 -7.88119e-21)
(-0.0100319 0.0177401 6.83151e-21)
(-0.0127338 0.0181817 -1.23716e-20)
(-0.0137816 0.0164253 1.48202e-21)
(-0.012837 0.0132517 1.55577e-20)
(-0.00969838 0.00940526 -2.92836e-21)
(-0.00441105 0.00561405 1.92133e-20)
(0.00276885 0.00255666 -4.70044e-22)
(0.0127411 0.00131004 -8.07485e-21)
(-0.00267999 0.00727744 9.30722e-21)
(-0.00668877 0.0154425 -1.84962e-20)
(-0.00991192 0.019087 -7.72234e-21)
(-0.0114122 0.0193717 9.39107e-21)
(-0.0107682 0.017237 3.69503e-22)
(-0.00770278 0.0135533 -2.92832e-20)
(-0.00206245 0.00915597 -1.79677e-21)
(0.00604953 0.00487273 -1.53207e-20)
(0.0163437 0.00149807 -2.00866e-20)
(0.0299604 0.000457473 1.18747e-20)
(-0.00307572 0.00772703 -5.20904e-21)
(-0.00712265 0.0162394 2.75445e-21)
(-0.00955559 0.0199006 7.17983e-21)
(-0.00963817 0.0199461 -6.80613e-21)
(-0.00703306 0.0173992 -2.44896e-20)
(-0.0015317 0.0132063 8.64992e-21)
(0.006967 0.00828173 1.2493e-21)
(0.0182977 0.00354198 2.30987e-20)
(0.0321237 -8.18277e-05 3.08018e-20)
(0.0499169 -0.000763667 -1.40196e-20)
(-0.00344425 0.00800549 8.41057e-21)
(-0.00741717 0.0166201 8.41556e-21)
(-0.00887854 0.0201463 -1.2242e-21)
(-0.00730813 0.0198692 3.37182e-20)
(-0.00246016 0.0168806 1.49064e-20)
(0.00579909 0.0121886 1.15388e-20)
(0.0175135 0.00677107 1.67227e-20)
(0.0324534 0.00162104 -7.46834e-21)
(0.0502238 -0.00219346 -1.0293e-20)
(0.0727063 -0.00233787 -1.71503e-20)
(-0.00376119 0.00810482 -6.26144e-22)
(-0.00750892 0.0165655 -1.33856e-20)
(-0.00778801 0.0198015 -1.00873e-20)
(-0.0043075 0.0191207 -1.67565e-20)
(0.00308025 0.0156691 -1.36563e-20)
(0.0144278 0.0105006 1.43987e-20)
(0.029717 0.00463973 -1.40992e-20)
(0.0486513 -0.000863274 -9.91617e-21)
(0.0707696 -0.00481377 1.34943e-21)
(0.0984418 -0.00424039 4.43554e-21)
(-0.00400044 0.00801966 -2.37403e-20)
(-0.00732981 0.0160646 1.23462e-20)
(-0.00618368 0.0188553 9.34462e-21)
(-0.000511644 0.017696 6.63258e-21)
(0.00973015 0.0137723 -1.23996e-20)
(0.0245068 0.00816779 -1.06733e-20)
(0.0437323 0.00193354 1.59338e-20)
(0.0670397 -0.00384853 -1.33215e-20)
(0.0938962 -0.00787961 -9.45235e-22)
(0.127244 -0.00641591 -1.43285e-20)
(-0.00413427 0.0077475 2.02552e-20)
(-0.00680757 0.0151136 8.99586e-21)
(-0.00395901 0.0173087 4.74066e-22)
(0.00421247 0.0156064 -1.20906e-20)
(0.0176419 0.0112179 7.43199e-22)
(0.0362006 0.00524012 1.43559e-20)
(0.0597274 -0.00126971 -4.14601e-21)
(0.0877798 -0.00723132 -5.15914e-21)
(0.119747 -0.0112817 -1.16594e-20)
(0.159233 -0.00877255 2.15433e-20)
(-0.00413382 0.00728848 1.42377e-20)
(-0.00586669 0.0137165 -2.45752e-20)
(-0.00100267 0.0151752 -1.97309e-20)
(0.0100039 0.012879 8.94686e-21)
(0.0269753 0.00805218 1.86518e-20)
(0.0496832 0.00179138 1.63488e-20)
(0.0778815 -0.00486073 -1.76253e-20)
(0.111043 -0.0108644 3.46331e-20)
(0.148473 -0.0148548 -1.07473e-20)
(0.194515 -0.0111707 -2.57049e-20)
(-0.00396901 0.00664525 -2.0966e-20)
(-0.00442957 0.0118854 1.37873e-20)
(0.00279926 0.0124797 -7.07919e-21)
(0.0170045 0.00955569 8.39577e-22)
(0.0378937 0.00433912 8.12266e-21)
(0.065133 -0.00208423 -2.56955e-20)
(0.0983804 -0.00870262 2.31179e-20)
(0.137009 -0.0145579 -2.31641e-20)
(0.18023 -0.0183684 3.73087e-20)
(0.233182 -0.0134121 1.34353e-20)
(-0.00360902 0.00582337 4.74552e-21)
(-0.00241781 0.0096402 2.74098e-20)
(0.00756056 0.00925922 -7.40991e-21)
(0.0253549 0.00569213 7.52324e-21)
(0.0505579 0.000157016 9.17867e-21)
(0.0827269 -0.00627745 -2.93632e-21)
(0.121411 -0.012639 2.03118e-20)
(0.165866 -0.0180867 1.22243e-21)
(0.215194 -0.0215258 -2.36261e-20)
(0.27531 -0.0152325 3.2521e-20)
(-0.00302283 0.00483153 -1.23784e-20)
(0.000245969 0.00700941 -2.63006e-20)
(0.0133916 0.00556246 2.36034e-20)
(0.0351891 0.00135702 1.24148e-20)
(0.0651192 -0.00440447 -5.8219e-20)
(0.10263 -0.0106713 4.88984e-20)
(0.147149 -0.0165075 -4.46595e-20)
(0.197796 -0.0212075 9.10939e-22)
(0.253548 -0.0239547 -1.01814e-20)
(0.320957 -0.0162379 -3.0043e-20)
(-0.00217996 0.00368194 1.11454e-20)
(0.00363597 0.00403054 -1.84509e-21)
(0.0203953 0.00145019 -5.79314e-21)
(0.0466286 -0.00336872 -5.93021e-22)
(0.0817105 -0.0092475 -4.05553e-21)
(0.124984 -0.01515 -1.53441e-20)
(0.175751 -0.0201602 6.41996e-21)
(0.232971 -0.0236827 -1.08571e-20)
(0.295459 -0.0251432 3.50282e-21)
(0.370008 -0.0156319 1.74027e-21)
(-0.00105134 0.00239081 -2.28797e-20)
(0.00782088 0.000750787 -2.01866e-21)
(0.0286634 -0.00300404 2.90999e-21)
(0.0597754 -0.0083918 1.32776e-21)
(0.100435 -0.0142683 1.93501e-20)
(0.149894 -0.0196108 -5.8377e-20)
(0.20734 -0.0234993 3.97375e-20)
(0.271598 -0.025344 -3.05347e-20)
(0.341214 -0.0244376 2.5408e-20)
(0.42201 -0.0120755 2.69671e-20)
(0.000389689 0.000978688 -2.92888e-21)
(0.0128615 -0.00277224 1.37182e-20)
(0.0382719 -0.00771284 -1.77048e-20)
(0.0747047 -0.0136048 -5.70046e-21)
(0.121351 -0.0193562 1.14291e-20)
(0.177393 -0.0239703 5.59378e-20)
(0.241963 -0.0265204 -1.12628e-20)
(0.31395 -0.0262567 5.52766e-21)
(0.391895 -0.0217027 -3.03275e-20)
(0.478264 -0.00578102 1.47967e-20)
(0.00216653 -0.000529273 -8.7266e-21)
(0.0188086 -0.00646994 -7.26783e-21)
(0.0492782 -0.0125734 2.00945e-21)
(0.0914596 -0.0188821 7.28246e-21)
(0.144462 -0.0243841 -2.24007e-20)
(0.207411 -0.0281476 -9.24162e-21)
(0.27944 -0.0292988 -2.98274e-20)
(0.359835 -0.0269056 3.06026e-20)
(0.448654 -0.0187012 3.34787e-20)
(0.548748 -0.00268111 -1.23733e-20)
(0.00429867 -0.00210342 -4.35856e-21)
(0.025702 -0.0102627 1.82317e-20)
(0.0617197 -0.0174661 -2.0664e-20)
(0.11005 -0.0240748 -2.58744e-21)
(0.169712 -0.0291909 -1.05357e-20)
(0.239755 -0.0320055 2.31175e-20)
(0.319272 -0.0318219 3.01169e-20)
(0.407732 -0.0279185 -2.96118e-20)
(0.505868 -0.0188866 3.31439e-20)
(0.613387 -0.00966943 5.43332e-21)
(0.00680143 -0.00371004 -1.25381e-20)
(0.0335697 -0.0140604 -3.69197e-20)
(0.0756145 -0.0222551 3.72831e-20)
(0.130457 -0.0290087 5.48843e-21)
(0.197007 -0.0335709 8.036e-21)
(0.274189 -0.0353053 5.396e-21)
(0.36095 -0.0337755 2.34137e-20)
(0.456592 -0.02865 1.74387e-20)
(0.561543 -0.0194294 -6.39284e-20)
(0.672173 -0.0145632 -3.27524e-20)
(0.0424286 -0.0177647 9.08903e-21)
(0.0909631 -0.0267907 -2.13832e-20)
(0.152641 -0.0334896 4.12211e-21)
(0.226234 -0.0372856 6.89956e-21)
(0.310488 -0.0377465 -5.09572e-20)
(0.404096 -0.0347208 2.33601e-20)
(0.505951 -0.0282575 -1.5796e-20)
(0.615713 -0.0184313 1.70974e-20)
(0.727599 -0.015067 -6.80894e-21)
(0.107749 -0.0309145 -1.18273e-21)
(0.176541 -0.0373122 -5.96345e-21)
(0.257267 -0.0400847 7.0066e-23)
(0.348442 -0.0390227 2.23843e-22)
(0.448426 -0.0342573 -3.53193e-20)
(0.555594 -0.0261674 4.91478e-21)
(0.66874 -0.0151977 4.70511e-20)
(0.781002 -0.0115495 2.24184e-20)
(0.125936 -0.0344642 3.65223e-20)
(0.202076 -0.0402696 8.90661e-22)
(0.289962 -0.0417231 -1.63318e-20)
(0.387837 -0.0388515 4.44762e-20)
(0.493682 -0.0320611 1.01039e-20)
(0.605325 -0.0220185 7.89805e-22)
(0.720745 -0.00943688 -2.04334e-20)
(0.832659 -0.00436021 -2.85545e-20)
(0.229142 -0.0421606 -1.58431e-20)
(0.324151 -0.041972 2.62275e-20)
(0.428442 -0.0369878 -1.32074e-20)
(0.539593 -0.0278859 -1.53669e-20)
(0.654897 -0.0155946 -3.5736e-21)
(0.771626 -0.00105289 -1.20623e-20)
(0.882458 0.00613835 1.39708e-20)
(0.359639 -0.0406269 1.45138e-20)
(0.469999 -0.0332305 -4.93265e-20)
(0.585857 -0.0215595 3.27162e-20)
(0.704013 -0.00679385 -1.52795e-20)
(0.821146 0.00990972 2.41844e-20)
(0.930139 0.0195388 6.90337e-21)
(0.63214 -0.0129778 -8.28698e-21)
(0.752328 0.00439646 7.34087e-21)
(0.868994 0.0233163 -1.85072e-20)
(0.975378 0.0354297 -1.98748e-20)
(0.799466 0.0179203 -2.34262e-20)
(0.914822 0.0389765 4.43512e-22)
(1.01785 0.0534127 1.39141e-20)
(0.958278 0.0566647 1.86248e-20)
(1.05724 0.0731078 -8.29926e-21)
(-0.000760958 -0.000601763 -3.65841e-22)
(-0.0038455 -0.00131088 1.17109e-21)
(-0.00929763 -0.00165895 1.44297e-21)
(-0.0390249 0.000325183 1.60844e-22)
(-0.0399105 -7.05562e-05 -3.83108e-22)
(-0.0386998 -0.000516425 2.95203e-23)
(-0.0354606 -0.000998512 1.67155e-22)
(-0.0297926 -0.00146935 -2.09632e-24)
(-0.021631 -0.00189521 2.73226e-23)
(-0.0110243 -0.00225929 2.28399e-23)
(0.00189807 -0.00255369 -1.67013e-22)
(0.0169466 -0.00277852 6.34089e-23)
(0.0339064 -0.00293851 -1.49668e-22)
(0.052554 -0.00304083 1.3042e-22)
(0.0726699 -0.0030935 -1.37772e-22)
(0.094045 -0.0031044 4.62445e-23)
(0.116485 -0.00308078 2.7554e-23)
(0.139806 -0.00302909 -5.44181e-23)
(0.163845 -0.00295488 -3.85555e-23)
(0.188439 -0.00286308 -3.06539e-23)
(0.213468 -0.00275752 1.07882e-23)
(0.238755 -0.00264236 1.19799e-23)
(0.264276 -0.00251923 6.08445e-24)
(0.289737 -0.00239363 -3.49768e-23)
(0.3154 -0.00226187 4.73672e-24)
(0.340497 -0.00213779 -1.43892e-23)
(0.366227 -0.00199974 5.79767e-24)
(0.390188 -0.00189414 -1.15347e-23)
(0.416592 -0.00173802 2.52668e-24)
(0.437748 -0.00168672 6.8448e-24)
(0.467262 -0.00147008 -4.19031e-25)
(0.481316 -0.00153988 5.59351e-24)
(0.520628 -0.00122608 1.01828e-23)
(-0.0363475 0.000948663 3.06385e-22)
(-0.0371509 -0.000244204 7.87055e-22)
(-0.0357415 -0.00157585 -1.16979e-21)
(-0.0323314 -0.00301629 3.08821e-22)
(-0.0265156 -0.00442225 1.59594e-22)
(-0.0182392 -0.00569297 -5.94388e-22)
(-0.00755704 -0.00677875 9.44704e-22)
(0.00540105 -0.00765628 -7.96341e-22)
(0.0204479 -0.00832623 -2.29989e-23)
(0.0373732 -0.00880281 4.35614e-22)
(0.0559589 -0.00910746 -6.40843e-23)
(0.075991 -0.00926403 -1.28438e-22)
(0.0972654 -0.00929601 -9.65844e-23)
(0.119592 -0.00922496 1.54375e-22)
(0.14279 -0.00907013 2.78706e-23)
(0.166701 -0.00884803 1.52011e-22)
(0.191163 -0.00857336 -8.72416e-23)
(0.216058 -0.00825754 4.5667e-23)
(0.241211 -0.00791301 1.69388e-23)
(0.266598 -0.00754462 -5.09208e-23)
(0.291928 -0.00716887 -6.37974e-23)
(0.317461 -0.00677457 5.26135e-24)
(0.342434 -0.00640335 -2.88851e-24)
(0.368041 -0.00599014 2.69048e-23)
(0.391886 -0.00567425 -2.70402e-24)
(0.418172 -0.00520674 -7.60437e-25)
(0.439226 -0.00505354 -4.07524e-24)
(0.468622 -0.00440458 -1.70091e-24)
(0.4826 -0.00461398 2.30219e-24)
(0.521773 -0.0036746 -1.19791e-23)
(-0.0309847 0.00149515 1.90615e-21)
(-0.0316261 -0.000513751 -1.7247e-21)
(-0.0298216 -0.00271433 5.15129e-22)
(-0.0260734 -0.00509565 -1.91142e-21)
(-0.019966 -0.00741712 8.18414e-22)
(-0.011464 -0.0095122 1.88127e-21)
(-0.000635127 -0.0113003 9.62157e-23)
(0.0123904 -0.0127443 -1.29215e-21)
(0.0274305 -0.0138459 5.42896e-23)
(0.0442843 -0.0146291 3.60282e-22)
(0.0627445 -0.0151292 -2.97564e-22)
(0.0826079 -0.0153855 1.32085e-22)
(0.10368 -0.0154365 3.48104e-22)
(0.12578 -0.0153175 2.1175e-22)
(0.148734 -0.0150603 -8.32674e-23)
(0.172389 -0.0146918 -4.33733e-22)
(0.196587 -0.0142364 2.36032e-22)
(0.221215 -0.0137128 -2.32592e-22)
(0.246101 -0.0131417 1.5518e-22)
(0.271222 -0.0125309 -7.71211e-23)
(0.29629 -0.0119078 1.8694e-22)
(0.321567 -0.0112538 1.27505e-23)
(0.346291 -0.0106382 -8.50196e-24)
(0.371653 -0.00995247 -3.66216e-23)
(0.395268 -0.00942881 -1.99625e-24)
(0.421319 -0.00865244 -3.19374e-23)
(0.44217 -0.00839932 4.37919e-24)
(0.471333 -0.00732103 2.96459e-24)
(0.485161 -0.00767018 -9.52673e-24)
(0.524055 -0.0061117 -7.75832e-24)
(-0.0229188 0.00192369 -2.62349e-21)
(-0.0233258 -0.000939786 1.36141e-21)
(-0.020933 -0.00398225 -1.5174e-21)
(-0.0166868 -0.00727512 1.62173e-21)
(-0.0101519 -0.0104794 -1.95013e-21)
(-0.0013222 -0.0133649 -1.66338e-22)
(0.00971609 -0.0158234 2.21892e-21)
(0.022833 -0.0178063 -1.1978e-22)
(0.0378549 -0.0193177 -7.51652e-22)
(0.0545951 -0.0203912 7.70575e-24)
(0.0728626 -0.0210757 -2.42869e-23)
(0.0924703 -0.021425 4.51551e-22)
(0.113238 -0.0214917 -7.32034e-23)
(0.134998 -0.0213242 -7.82568e-22)
(0.157586 -0.0209658 5.27056e-22)
(0.180858 -0.0204537 -1.08568e-22)
(0.204663 -0.0198212 6.96385e-23)
(0.228894 -0.019094 1.65493e-23)
(0.253382 -0.0183008 -7.20257e-23)
(0.278108 -0.0174522 1.46469e-23)
(0.302788 -0.0165866 6.42219e-23)
(0.327682 -0.0156776 2.31504e-23)
(0.352036 -0.0148222 -1.57001e-23)
(0.377034 -0.0138683 -4.30164e-24)
(0.400307 -0.0131411 5.00978e-23)
(0.426011 -0.01206 1.35687e-23)
(0.446561 -0.0117102 -4.93798e-24)
(0.475377 -0.0102076 3.88686e-24)
(0.488981 -0.0106967 -6.75571e-24)
(0.527462 -0.00852983 3.31667e-23)
(-0.0121228 0.00217069 5.48651e-21)
(-0.0122354 -0.00157202 -1.75227e-21)
(-0.00906393 -0.00542372 2.0624e-21)
(-0.00417017 -0.00958915 -1.44241e-22)
(0.00291524 -0.0136307 -1.87017e-21)
(0.0121616 -0.0172595 9.8818e-22)
(0.023459 -0.0203444 1.65127e-22)
(0.0366796 -0.0228285 -1.2321e-21)
(0.051662 -0.0247198 -6.74485e-23)
(0.068239 -0.0260617 6.3459e-22)
(0.0862415 -0.0269158 -3.97395e-22)
(0.105503 -0.0273493 -6.88165e-23)
(0.125864 -0.0274276 4.13096e-22)
(0.147169 -0.027211 -1.70575e-22)
(0.169272 -0.0267536 4.52646e-23)
(0.192037 -0.0261017 -3.29126e-22)
(0.215322 -0.0252971 1.45644e-22)
(0.239027 -0.0243723 5.02782e-23)
(0.26299 -0.0233633 6.96804e-24)
(0.287196 -0.0222836 -3.00747e-24)
(0.311364 -0.0211821 -3.0463e-22)
(0.335756 -0.0200245 -2.54247e-23)
(0.359623 -0.0189357 -1.79393e-23)
(0.384142 -0.0177197 6.59295e-23)
(0.406965 -0.0167947 -5.76122e-23)
(0.432212 -0.0154146 -4.56229e-24)
(0.452366 -0.0149728 3.43516e-23)
(0.480725 -0.0130526 1.31527e-23)
(0.494037 -0.013682 2.88134e-23)
(0.531974 -0.0109215 -1.68129e-23)
(0.00143046 0.00205641 1.28753e-21)
(0.00168264 -0.00240655 1.786e-22)
(0.00580093 -0.00707206 -3.29521e-22)
(0.0114792 -0.0120664 -1.11303e-21)
(0.0192217 -0.0168875 4.65176e-21)
(0.0289554 -0.0211995 -1.42533e-21)
(0.040544 -0.0248552 -9.62807e-22)
(0.0538646 -0.0277936 -6.84406e-22)
(0.0687732 -0.0300279 1.11631e-21)
(0.085128 -0.0316116 2.63706e-22)
(0.102786 -0.0326176 -5.23626e-22)
(0.121608 -0.0331248 -5.83231e-22)
(0.141455 -0.0332102 3.41691e-22)
(0.162194 -0.0329445 -1.39528e-22)
(0.183692 -0.0323909 2.13342e-22)
(0.205829 -0.0316044 1.29979e-22)
(0.228472 -0.0306345 -1.1821e-22)
(0.251528 -0.0295197 2.04504e-22)
(0.274844 -0.0283032 -3.70702e-22)
(0.298409 -0.0270006 -3.84931e-23)
(0.321946 -0.0256717 -4.10041e-23)
(0.34572 -0.0242737 -2.88517e-23)
(0.368989 -0.0229596 1.18383e-22)
(0.39292 -0.0214893 -7.30859e-23)
(0.41519 -0.0203738 -8.73702e-23)
(0.439875 -0.0187021 -6.05406e-23)
(0.459544 -0.0181739 -4.47966e-23)
(0.487341 -0.0158449 3.02229e-24)
(0.500296 -0.016615 -2.13493e-23)
(0.537563 -0.0132793 -4.85284e-24)
(0.0177642 0.00166799 -3.21295e-22)
(0.0185366 -0.00351347 -1.41729e-21)
(0.0236652 -0.00896973 2.34476e-21)
(0.0302661 -0.0147297 -3.47433e-21)
(0.0387521 -0.0202595 3.26413e-22)
(0.0490202 -0.0251822 1.50374e-21)
(0.0609093 -0.0293426 3.01902e-24)
(0.0743065 -0.0326799 -2.16527e-21)
(0.0890913 -0.0352147 2.51665e-21)
(0.105153 -0.0370096 -1.37676e-21)
(0.12238 -0.0381477 1.11929e-21)
(0.140663 -0.0387177 8.49112e-22)
(0.15989 -0.0388059 -7.62313e-22)
(0.17995 -0.0384915 -6.40434e-22)
(0.200728 -0.0378461 1.13789e-22)
(0.222117 -0.0369317 -1.82653e-22)
(0.243999 -0.0358048 -6.83255e-23)
(0.266289 -0.0345093 -9.48268e-23)
(0.288841 -0.0330953 -1.34347e-22)
(0.31165 -0.0315801 2.82288e-22)
(0.334446 -0.0300339 1.88171e-22)
(0.357492 -0.0284055 -1.34302e-23)
(0.380058 -0.0268759 -9.59649e-23)
(0.403298 -0.0251604 2.03524e-22)
(0.424919 -0.0238633 1.2911e-23)
(0.448944 -0.0219086 5.27885e-23)
(0.468044 -0.0213009 -6.36153e-23)
(0.49518 -0.0185737 -4.94447e-24)
(0.507719 -0.0194848 6.47813e-24)
(0.544197 -0.0155961 1.58325e-23)
(0.0369605 0.00112932 4.40416e-21)
(0.0383236 -0.00498142 -1.02684e-22)
(0.0445844 -0.0111415 1.01898e-21)
(0.0522047 -0.0175925 -5.82169e-22)
(0.0614906 -0.0237478 3.95635e-22)
(0.0723102 -0.0291969 2.96306e-21)
(0.0844812 -0.0337863 -1.97107e-21)
(0.0979077 -0.0374607 -1.81992e-21)
(0.1125 -0.0402491 -1.60812e-22)
(0.128183 -0.0422226 -2.87482e-22)
(0.144884 -0.0434721 1.72415e-21)
(0.162525 -0.0440938 -1.19916e-21)
(0.181024 -0.044181 5.8959e-22)
(0.200292 -0.0438198 -1.09402e-21)
(0.220236 -0.0430882 -3.26409e-22)
(0.240765 -0.0420543 6.2866e-22)
(0.261772 -0.0407807 2.5462e-22)
(0.283184 -0.0393157 5.20424e-23)
(0.304863 -0.0377159 1.95269e-22)
(0.326809 -0.0359999 -1.30504e-22)
(0.348759 -0.0342485 -3.19899e-22)
(0.370976 -0.0324012 1.97976e-22)
(0.392742 -0.0306673 9.28859e-23)
(0.415194 -0.0287174 -1.50332e-22)
(0.436078 -0.0272487 1.67481e-22)
(0.459352 -0.0250213 4.31171e-23)
(0.477806 -0.0243419 2.78841e-23)
(0.504191 -0.0212286 5.70265e-24)
(0.516259 -0.0222811 -1.38542e-23)
(0.551838 -0.0178647 -4.96085e-23)
(0.0590948 0.000311426 -2.89854e-21)
(0.0611059 -0.00678108 3.00623e-21)
(0.0686078 -0.0135939 4.27765e-22)
(0.0773134 -0.0206575 -1.7159e-21)
(0.0874203 -0.0273427 -2.39242e-21)
(0.0987719 -0.0332232 1.11149e-21)
(0.111173 -0.0381585 1.07372e-22)
(0.124554 -0.0421034 -2.14645e-21)
(0.138864 -0.0450962 -3.85351e-22)
(0.15407 -0.0472148 1.4802e-21)
(0.170139 -0.0485554 1.36765e-22)
(0.18703 -0.0492187 4.00361e-22)
(0.20469 -0.0493027 -5.84038e-22)
(0.223057 -0.0488981 1.13808e-21)
(0.242057 -0.0480879 -4.10777e-22)
(0.261617 -0.0469448 -6.91095e-22)
(0.281643 -0.0455363 5.97139e-22)
(0.302073 -0.0439149 4.77716e-22)
(0.322776 -0.0421427 -4.11849e-22)
(0.34376 -0.0402397 -7.96872e-23)
(0.364769 -0.0382964 4.44988e-23)
(0.386063 -0.0362433 -3.59926e-23)
(0.40694 -0.0343178 -6.13226e-23)
(0.428519 -0.0321455 1.68591e-22)
(0.448584 -0.0305167 -1.15168e-22)
(0.471025 -0.0280281 -1.09162e-22)
(0.488764 -0.0272856 -9.20764e-24)
(0.514314 -0.0238003 7.79449e-25)
(0.525864 -0.0249945 1.2195e-23)
(0.560441 -0.0200783 -4.90974e-23)
(0.08425 -0.000809688 2.19289e-21)
(0.0869767 -0.00890893 2.31829e-21)
(0.0957946 -0.0163277 -3.42376e-21)
(0.105617 -0.023915 -1.94953e-21)
(0.116523 -0.031022 4.64726e-21)
(0.128342 -0.0372298 7.26622e-22)
(0.140883 -0.0424226 -2.51085e-21)
(0.154113 -0.0465691 1.6571e-21)
(0.168029 -0.049717 -1.456e-21)
(0.182643 -0.0519483 1.02874e-21)
(0.197967 -0.0533613 3.39874e-22)
(0.213995 -0.0540583 8.11984e-22)
(0.230705 -0.054139 -4.3827e-22)
(0.248063 -0.0536966 -6.37977e-22)
(0.266014 -0.0528173 7.18639e-22)
(0.284502 -0.0515771 1.72625e-22)
(0.303448 -0.0500477 -4.97617e-22)
(0.322798 -0.0482845 4.36096e-22)
(0.342434 -0.0463554 -1.53848e-22)
(0.362365 -0.0442803 3.15015e-22)
(0.382346 -0.0421602 2.24595e-22)
(0.402634 -0.0399157 4.85784e-23)
(0.422543 -0.0378127 -2.86743e-22)
(0.443169 -0.0354314 9.28624e-23)
(0.462345 -0.033655 5.04556e-23)
(0.483879 -0.0309177 7.39499e-23)
(0.500843 -0.0301217 9.9124e-23)
(0.525482 -0.0262796 -2.34403e-23)
(0.536475 -0.0276158 -4.74594e-23)
(0.569958 -0.0222302 7.08944e-23)
(0.112523 -0.00221967 3.36593e-21)
(0.116049 -0.0113591 2.71155e-21)
(0.126221 -0.019331 -7.92617e-21)
(0.137146 -0.0273401 -3.12139e-21)
(0.148775 -0.034749 9.79817e-21)
(0.160946 -0.0411733 -8.41646e-21)
(0.173493 -0.0465326 3.98788e-21)
(0.186434 -0.0508127 1.75305e-21)
(0.19982 -0.0540686 -7.53229e-22)
(0.213714 -0.0563831 2.11171e-22)
(0.228169 -0.057853 -1.30517e-21)
(0.243218 -0.0585786 1.14054e-21)
(0.258869 -0.0586587 1.04247e-21)
(0.275112 -0.0581868 -1.22029e-21)
(0.291914 -0.0572504 4.60416e-22)
(0.309235 -0.0559274 -3.83019e-23)
(0.327009 -0.0542929 8.60325e-22)
(0.345194 -0.0524046 6.51991e-22)
(0.363677 -0.0503352 -1.82125e-22)
(0.382476 -0.0481047 7.31977e-23)
(0.401351 -0.0458242 3.62248e-23)
(0.42056 -0.043404 -4.369e-22)
(0.439431 -0.0411387 2.19017e-22)
(0.459037 -0.0385627 -2.84169e-22)
(0.477262 -0.0366522 1.01018e-23)
(0.497824 -0.0336801 -3.09344e-23)
(0.513962 -0.0328406 -3.11847e-23)
(0.537624 -0.0286585 -1.04105e-24)
(0.548028 -0.0301368 7.60094e-23)
(0.580336 -0.0243141 1.93406e-23)
(0.144025 -0.00390143 -1.09792e-21)
(0.14846 -0.0141143 8.64718e-21)
(0.159981 -0.0225754 -3.00223e-21)
(0.171933 -0.0308903 -1.01384e-20)
(0.184144 -0.0384704 1.2873e-20)
(0.196493 -0.0449964 -5.82958e-21)
(0.208865 -0.0504327 2.35586e-22)
(0.221346 -0.0547824 -4.82019e-21)
(0.234043 -0.0581043 2.49817e-21)
(0.247073 -0.0604778 1.18818e-21)
(0.26053 -0.0619936 -2.30805e-21)
(0.274482 -0.0627468 8.13585e-22)
(0.288965 -0.0628326 1.13163e-23)
(0.303994 -0.0623423 1.1857e-22)
(0.319553 -0.0613632 -9.77122e-22)
(0.33562 -0.059974 8.13123e-22)
(0.35214 -0.0582522 2.95719e-22)
(0.36908 -0.056257 -7.29424e-22)
(0.386338 -0.0540657 -5.32423e-22)
(0.403934 -0.0516979 1.3278e-22)
(0.421639 -0.0492745 3.51947e-22)
(0.439705 -0.0466954 -2.84991e-22)
(0.457478 -0.044284 2.5531e-22)
(0.476007 -0.0415288 -2.71366e-24)
(0.493228 -0.0394985 -4.95858e-23)
(0.512766 -0.0363061 -6.03209e-23)
(0.528035 -0.0354337 7.11754e-23)
(0.550665 -0.0309297 7.4663e-24)
(0.560456 -0.03255 -4.36401e-24)
(0.591517 -0.0263239 -2.27108e-23)
(0.17888 -0.00584142 1.44628e-20)
(0.184376 -0.0171459 -9.99466e-24)
(0.197186 -0.0260141 -1.37644e-20)
(0.21001 -0.0345027 1.18826e-20)
(0.222582 -0.0421146 4.72309e-22)
(0.234866 -0.0486281 -4.18656e-21)
(0.246835 -0.054058 3.14747e-21)
(0.258651 -0.0584211 2.07652e-21)
(0.270483 -0.061775 -1.82579e-21)
(0.282495 -0.06419 -2.96905e-21)
(0.294819 -0.0657468 8.66786e-22)
(0.307555 -0.0665316 5.94965e-23)
(0.320766 -0.0666332 -4.34917e-22)
(0.334485 -0.0661389 7.77103e-22)
(0.348717 -0.0651344 -4.43301e-22)
(0.363451 -0.0636979 4.37357e-22)
(0.378644 -0.0619084 -2.41079e-22)
(0.394273 -0.0598261 6.28628e-22)
(0.410242 -0.0575327 1.77871e-22)
(0.426577 -0.0550467 -2.33776e-22)
(0.443055 -0.0524992 -4.86548e-22)
(0.459927 -0.0497789 2.88676e-22)
(0.476554 -0.0472386 -1.49638e-22)
(0.493959 -0.0443202 -9.23746e-24)
(0.510135 -0.0421852 1.02044e-22)
(0.528603 -0.0387881 -3.13113e-23)
(0.542971 -0.0378937 -7.39395e-23)
(0.564523 -0.0330868 -1.89761e-24)
(0.573687 -0.0348489 -3.17119e-23)
(0.60344 -0.0282539 8.35954e-23)
(0.217235 -0.00803064 3.12653e-21)
(0.224006 -0.0204177 -3.81817e-21)
(0.237964 -0.0295783 5.70586e-21)
(0.251396 -0.0380898 2.03501e-21)
(0.264014 -0.0455894 2.03886e-21)
(0.275922 -0.0519832 -3.24951e-21)
(0.287212 -0.0573348 -4.88935e-21)
(0.29813 -0.0616675 3.94706e-21)
(0.308902 -0.06503 2.86657e-21)
(0.319733 -0.0674782 -5.0269e-21)
(0.330789 -0.0690781 5.74185e-22)
(0.342194 -0.0699041 1.27248e-21)
(0.354033 -0.0700361 -8.15371e-22)
(0.366356 -0.0695558 2.24456e-21)
(0.379183 -0.0685457 -9.03036e-22)
(0.392515 -0.0670829 -6.41803e-23)
(0.406319 -0.0652472 9.87347e-23)
(0.42058 -0.0630992 4.96484e-22)
(0.435209 -0.0607246 -2.94738e-22)
(0.450235 -0.0581406 5.82583e-22)
(0.465444 -0.0554885 -5.52713e-22)
(0.481079 -0.0526456 -1.16346e-22)
(0.496523 -0.049994 -1.67575e-22)
(0.512767 -0.0469293 7.99259e-23)
(0.527867 -0.0447051 -1.06546e-22)
(0.545234 -0.0411193 1.56485e-22)
(0.558678 -0.0402141 6.50299e-23)
(0.579116 -0.0351244 -2.32428e-23)
(0.587645 -0.0370277 1.83854e-23)
(0.616043 -0.0300989 -7.46544e-23)
(0.259266 -0.0104778 -5.5298e-21)
(0.267604 -0.0238844 7.36355e-21)
(0.282451 -0.0331695 2.38814e-22)
(0.296081 -0.0415336 -3.41583e-21)
(0.308323 -0.0487807 4.7928e-21)
(0.319474 -0.0549628 -1.14421e-21)
(0.329769 -0.0601824 2.96797e-22)
(0.339533 -0.0644573 4.4277e-21)
(0.34904 -0.0678185 -7.0952e-21)
(0.358526 -0.0703019 5.81758e-21)
(0.36818 -0.0719551 -2.06727e-21)
(0.378144 -0.0728378 -1.91528e-21)
(0.388518 -0.0730195 3.14905e-22)
(0.399369 -0.0725746 -2.27998e-22)
(0.410724 -0.0715816 8.70081e-22)
(0.422596 -0.0701157 4.38286e-22)
(0.434961 -0.0682568 -1.43285e-21)
(0.447809 -0.0660657 -9.76744e-23)
(0.461058 -0.0636319 9.53859e-22)
(0.474738 -0.060971 -4.46105e-22)
(0.488645 -0.0582345 4.30159e-22)
(0.503014 -0.0552881 4.28348e-23)
(0.517248 -0.0525436 5.42644e-23)
(0.532307 -0.0493498 -1.13416e-22)
(0.54631 -0.0470522 6.04488e-23)
(0.562553 -0.0432944 -5.71946e-23)
(0.57506 -0.0423895 1.07042e-23)
(0.594358 -0.0370381 -1.86356e-23)
(0.602254 -0.0390817 -9.46994e-24)
(0.629259 -0.0318539 5.50723e-23)
(0.305217 -0.013212 -8.51099e-22)
(0.315488 -0.0274743 -1.048e-20)
(0.330779 -0.0366427 2.96379e-22)
(0.344006 -0.0446777 5.76302e-21)
(0.355336 -0.0515498 3.25907e-22)
(0.365286 -0.057455 -5.23865e-22)
(0.374239 -0.0625136 -2.04232e-21)
(0.382582 -0.0667233 5.49981e-21)
(0.390616 -0.0700888 -3.87862e-21)
(0.398596 -0.0726208 -5.58833e-22)
(0.40672 -0.0743459 3.40541e-21)
(0.415142 -0.0753074 -2.57059e-21)
(0.423971 -0.0755627 -3.4046e-22)
(0.433281 -0.0751782 1.5304e-21)
(0.44311 -0.0742279 1.50487e-21)
(0.453477 -0.0727841 -1.16225e-21)
(0.464364 -0.0709267 -1.74728e-22)
(0.475765 -0.0687165 3.72797e-22)
(0.487605 -0.0662465 -1.96624e-22)
(0.499916 -0.0635306 -1.96088e-22)
(0.512498 -0.0607307 1.01194e-22)
(0.525582 -0.0577005 -2.94159e-22)
(0.538592 -0.0548818 1.71187e-22)
(0.552451 -0.0515767 3.77768e-22)
(0.565346 -0.0492218 -1.79836e-22)
(0.580453 -0.0453092 4.34534e-23)
(0.59202 -0.0444156 -3.18927e-24)
(0.610163 -0.0388243 1.11644e-23)
(0.617435 -0.0410069 -2.46079e-23)
(0.643022 -0.0335145 -5.18662e-23)
(0.355485 -0.0162673 9.40129e-21)
(0.368042 -0.0310863 -7.97864e-21)
(0.383034 -0.0398099 9.71439e-21)
(0.395028 -0.0473332 -9.61748e-21)
(0.404799 -0.0537433 3.22469e-21)
(0.413064 -0.0593438 3.84778e-21)
(0.420314 -0.0642428 1.42909e-21)
(0.426968 -0.0684025 -2.05393e-21)
(0.43333 -0.0717939 -4.48064e-21)
(0.439652 -0.0743996 3.7149e-21)
(0.446131 -0.0762235 -2.93861e-21)
(0.452921 -0.0772917 4.65518e-21)
(0.460136 -0.077649 -3.76204e-21)
(0.467852 -0.0773535 7.55292e-22)
(0.476112 -0.0764736 6.45114e-22)
(0.484939 -0.0750791 4.86256e-22)
(0.494321 -0.0732495 -9.2102e-22)
(0.504255 -0.0710451 -2.62143e-22)
(0.51467 -0.0685629 5.54948e-22)
(0.525597 -0.0658146 2.1627e-22)
(0.536846 -0.0629728 -5.75461e-22)
(0.548638 -0.0598789 2.53143e-22)
(0.560417 -0.057005 -8.99889e-23)
(0.573072 -0.0536066 -1.14708e-22)
(0.58486 -0.0512107 1.81994e-22)
(0.598828 -0.0471608 1.74139e-23)
(0.609461 -0.0462893 6.79022e-24)
(0.626444 -0.0404805 -4.19628e-24)
(0.63311 -0.0428004 3.23974e-23)
(0.657263 -0.0350767 1.82835e-23)
(0.410756 -0.0198435 1.20635e-21)
(0.425686 -0.0346977 -9.98932e-21)
(0.439198 -0.0424765 -3.94583e-22)
(0.448876 -0.049307 1.94885e-21)
(0.456361 -0.0552218 -5.94479e-21)
(0.462444 -0.0605373 -9.34576e-22)
(0.467642 -0.0653126 4.00041e-21)
(0.472356 -0.0694615 -3.27982e-23)
(0.476864 -0.0729169 5.55214e-21)
(0.481393 -0.0756326 -7.75237e-21)
(0.486127 -0.0775901 4.60378e-21)
(0.491213 -0.078798 -2.94754e-21)
(0.496759 -0.0792889 1.91314e-21)
(0.50284 -0.0791121 -1.55704e-22)
(0.509503 -0.0783312 5.48332e-22)
(0.51677 -0.0770128 -3.21136e-22)
(0.524633 -0.0752365 1.58674e-22)
(0.53309 -0.0730619 -1.71193e-21)
(0.542075 -0.0705901 7.51936e-22)
(0.551617 -0.0678306 -1.50646e-22)
(0.561533 -0.064967 -2.63693e-22)
(0.572035 -0.061828 2.47071e-22)
(0.58259 -0.0589172 1.06643e-22)
(0.594046 -0.055442 -1.45799e-22)
(0.604736 -0.0530209 1.57941e-22)
(0.617573 -0.0488496 -7.29351e-23)
(0.627286 -0.0480114 -9.38842e-24)
(0.643114 -0.0420056 -7.54325e-24)
(0.649199 -0.0444618 1.08079e-23)
(0.671913 -0.0365371 -1.86058e-23)
(0.472239 -0.0246122 -7.01053e-21)
(0.488821 -0.0381636 -1.39338e-21)
(0.499062 -0.0442952 5.68939e-21)
(0.505109 -0.0503414 -2.20702e-21)
(0.509558 -0.0558291 2.14979e-21)
(0.512998 -0.0609481 -4.5066e-21)
(0.515832 -0.0656797 7.06842e-21)
(0.518389 -0.069887 -1.13038e-21)
(0.520887 -0.0734655 -2.49984e-21)
(0.523513 -0.0763425 5.09421e-21)
(0.526424 -0.0784781 -3.06442e-21)
(0.52975 -0.0798652 2.60559e-21)
(0.533589 -0.0805244 -2.56708e-21)
(0.538012 -0.0804972 -4.67776e-22)
(0.543062 -0.0798427 -4.12935e-22)
(0.548763 -0.0786249 1.93984e-21)
(0.555105 -0.076924 -1.57054e-21)
(0.562089 -0.0747992 8.93883e-22)
(0.569649 -0.0723563 -5.5452e-22)