/*--------------------------------*- C++ -*----------------------------------*\
  =========                 |
  \\      /  F ield         | OpenFOAM: The Open Source CFD Toolbox
   \\    /   O peration     | Website:  https://openfoam.org
    \\  /    A nd           | Version:  7
     \\/     M anipulation  |
\*---------------------------------------------------------------------------*/
FoamFile
{
    version     2.0;
    format      ascii;
    class       volScalarField;
    location    "350";
    object      p;
}
// * * * * * * * * * * * * * * * * * * * * * * * * * * * * * * * * * * * * * //

dimensions      [0 2 -2 0 0 0 0];

internalField   nonuniform List<scalar> 
2125
(
-0.424671
-0.426542
-0.427245
-0.428431
-0.430671
-0.434201
-0.439126
-0.445571
-0.453499
-0.463118
-0.41711
-0.419555
-0.420357
-0.421413
-0.423239
-0.425992
-0.429702
-0.434398
-0.43986
-0.446225
-0.409672
-0.412639
-0.413522
-0.414433
-0.415827
-0.417776
-0.420228
-0.423105
-0.425982
-0.428878
-0.402505
-0.405935
-0.406885
-0.407649
-0.408609
-0.409754
-0.41094
-0.411981
-0.412239
-0.411564
-0.395749
-0.39958
-0.400587
-0.401205
-0.401744
-0.402105
-0.402048
-0.401285
-0.39897
-0.394721
-0.389534
-0.393701
-0.394755
-0.395235
-0.395374
-0.394987
-0.393737
-0.391238
-0.386465
-0.378707
-0.383976
-0.388413
-0.389503
-0.389854
-0.389621
-0.388533
-0.386158
-0.382018
-0.374954
-0.363789
-0.379174
-0.383811
-0.384926
-0.385158
-0.384584
-0.382854
-0.379434
-0.373763
-0.364614
-0.350138
-0.37521
-0.379974
-0.381102
-0.381224
-0.380344
-0.378035
-0.373661
-0.366582
-0.355581
-0.337842
-0.372145
-0.37696
-0.378085
-0.378107
-0.376959
-0.374143
-0.36892
-0.360556
-0.347968
-0.326927
-0.370019
-0.374801
-0.375907
-0.37584
-0.374465
-0.371224
-0.365267
-0.355748
-0.341867
-0.317342
-0.368846
-0.373508
-0.374576
-0.374429
-0.372871
-0.369292
-0.362732
-0.352191
-0.337344
-0.3089
-0.368614
-0.373064
-0.37407
-0.373851
-0.372153
-0.368324
-0.361302
-0.349886
-0.334469
-0.301404
-0.369284
-0.373427
-0.374341
-0.37405
-0.372246
-0.368245
-0.360899
-0.348763
-0.333235
-0.295397
-0.370796
-0.374533
-0.375316
-0.374938
-0.373046
-0.368924
-0.361361
-0.348659
-0.332835
-0.29159
-0.373063
-0.376299
-0.376903
-0.376406
-0.374414
-0.370183
-0.36246
-0.349548
-0.332783
-0.289663
-0.375991
-0.378633
-0.378994
-0.378324
-0.376188
-0.371824
-0.363901
-0.350997
-0.332964
-0.28912
-0.379476
-0.381441
-0.381484
-0.380563
-0.378206
-0.373664
-0.365453
-0.35255
-0.332886
-0.289339
-0.383425
-0.384638
-0.384278
-0.383013
-0.380368
-0.375505
-0.366934
-0.354011
-0.332203
-0.290314
-0.387759
-0.388156
-0.387305
-0.385596
-0.382539
-0.377273
-0.368244
-0.355186
-0.331281
-0.295531
-0.392424
-0.391951
-0.390522
-0.388258
-0.384682
-0.378912
-0.36934
-0.355836
-0.330927
-0.309096
-0.397396
-0.396007
-0.393918
-0.391002
-0.386803
-0.380424
-0.370224
-0.355997
-0.331475
-0.31096
-0.402683
-0.400339
-0.397517
-0.393865
-0.388951
-0.38185
-0.370916
-0.355795
-0.331685
-0.310237
-0.404982
-0.401372
-0.396915
-0.391202
-0.383259
-0.371452
-0.355319
-0.331286
-0.308643
-0.405553
-0.400239
-0.393642
-0.384724
-0.371879
-0.354583
-0.330304
-0.306321
-0.410139
-0.403923
-0.396346
-0.386302
-0.372225
-0.353591
-0.328737
-0.303597
-0.408042
-0.399371
-0.388024
-0.37249
-0.352326
-0.326651
-0.300503
-0.402741
-0.389884
-0.372637
-0.350763
-0.324098
-0.29708
-0.372604
-0.348875
-0.321121
-0.293323
-0.346627
-0.317743
-0.289223
-0.313965
-0.284755
-0.483147
-0.506608
-0.518124
-0.493191
-0.428674
-0.352281
-0.301659
-0.297346
-0.314719
-0.31247
-0.263615
-0.192752
-0.144779
-0.116745
-0.107679
-0.125726
-0.135832
-0.126829
-0.109062
-0.0866205
-0.0791892
-0.0646156
-0.0509666
-0.0691845
-0.0800651
-0.064312
-0.0457347
-0.0468793
-0.0276392
-0.0157727
-0.461341
-0.47906
-0.48693
-0.463108
-0.405656
-0.339758
-0.301173
-0.309022
-0.33497
-0.33101
-0.276964
-0.200555
-0.147441
-0.115549
-0.104012
-0.118801
-0.126322
-0.119259
-0.104966
-0.0855517
-0.0790703
-0.0654963
-0.0524674
-0.0704557
-0.0812244
-0.0647368
-0.0457515
-0.0467894
-0.0278846
-0.0157685
-0.439102
-0.450484
-0.454102
-0.431118
-0.38054
-0.325025
-0.298851
-0.319198
-0.353472
-0.347819
-0.288903
-0.20751
-0.149741
-0.114244
-0.100405
-0.111935
-0.116963
-0.111632
-0.100722
-0.0844033
-0.078902
-0.0664713
-0.054066
-0.0717174
-0.0823356
-0.065126
-0.0457317
-0.0467261
-0.0281965
-0.015766
-0.417116
-0.421643
-0.420444
-0.397778
-0.353735
-0.308404
-0.294686
-0.327597
-0.369729
-0.362707
-0.299392
-0.213625
-0.151716
-0.112879
-0.0969081
-0.105223
-0.107875
-0.104018
-0.0963522
-0.0831753
-0.0786875
-0.0675386
-0.0557553
-0.0729622
-0.0833896
-0.0654774
-0.0456753
-0.0466913
-0.0285726
-0.0157659
-0.395957
-0.39326
-0.386842
-0.363883
-0.325716
-0.290284
-0.288738
-0.333942
-0.383358
-0.375509
-0.308409
-0.218916
-0.153398
-0.111497
-0.0935605
-0.0987555
-0.099165
-0.0964918
-0.0918837
-0.0818687
-0.0784297
-0.0686947
-0.0575262
-0.0741829
-0.084378
-0.0657891
-0.0455822
-0.046686
-0.0290102
-0.0157683
-0.376124
-0.366061
-0.354188
-0.330341
-0.29719
-0.271051
-0.281143
-0.337992
-0.394099
-0.386096
-0.315954
-0.22341
-0.154821
-0.110136
-0.0903931
-0.0926088
-0.0909227
-0.0891343
-0.0873492
-0.0804852
-0.0781311
-0.0699348
-0.0593677
-0.0753728
-0.0852926
-0.0660589
-0.0454521
-0.0467109
-0.0295063
-0.0157737
-0.358024
-0.340671
-0.323309
-0.29805
-0.268961
-0.251194
-0.272087
-0.339578
-0.401804
-0.394384
-0.322041
-0.22714
-0.156015
-0.108832
-0.0874285
-0.0868483
-0.0832213
-0.0820573
-0.0827868
-0.0790276
-0.0777934
-0.0712535
-0.0612669
-0.0765258
-0.0861264
-0.0662848
-0.0452848
-0.0467658
-0.0300571
-0.0157822
-0.341935
-0.317577
-0.294885
-0.267808
-0.241833
-0.231339
-0.261811
-0.338632
-0.406424
-0.40034
-0.326703
-0.230145
-0.157009
-0.107614
-0.084682
-0.0815239
-0.0761143
-0.0752661
-0.0782407
-0.0775001
-0.0774174
-0.0726444
-0.0632099
-0.0776364
-0.0868726
-0.0664648
-0.04508
-0.04685
-0.0306586
-0.0157939
-0.328023
-0.297103
-0.269407
-0.240223
-0.216768
-0.211919
-0.250594
-0.335199
-0.408006
-0.403986
-0.329986
-0.23247
-0.157828
-0.106507
-0.0821631
-0.0766685
-0.069638
-0.0688814
-0.0737607
-0.0759076
-0.0770028
-0.0741005
-0.0651817
-0.0786991
-0.0875255
-0.0665966
-0.0448374
-0.0469619
-0.0313057
-0.0158087
-0.316362
-0.279427
-0.247174
-0.215641
-0.194138
-0.193671
-0.238724
-0.329443
-0.406688
-0.405389
-0.331948
-0.234159
-0.158494
-0.10553
-0.0798759
-0.0722977
-0.0638121
-0.0629752
-0.0693993
-0.0742567
-0.0765479
-0.0756142
-0.0671664
-0.0797087
-0.08808
-0.0666781
-0.0445568
-0.0470994
-0.0319926
-0.0158263
-0.30696
-0.264638
-0.228248
-0.194379
-0.174406
-0.176963
-0.226492
-0.321625
-0.402681
-0.404662
-0.332653
-0.235258
-0.159026
-0.104699
-0.0778207
-0.0684113
-0.0586391
-0.0576044
-0.0652109
-0.0725549
-0.0760498
-0.0771778
-0.0691483
-0.0806599
-0.0885319
-0.0667066
-0.0442382
-0.0472598
-0.0327127
-0.0158463
-0.299824
-0.252667
-0.212052
-0.176854
-0.157483
-0.162015
-0.214185
-0.312077
-0.396253
-0.401959
-0.332173
-0.235817
-0.159443
-0.104028
-0.0759964
-0.0649959
-0.0541066
-0.0528104
-0.0612498
-0.0708106
-0.0755042
-0.078783
-0.0711111
-0.0815476
-0.088878
-0.0666799
-0.0438813
-0.0474397
-0.0334584
-0.015868
-0.294965
-0.243189
-0.199285
-0.162587
-0.143649
-0.148972
-0.20207
-0.301168
-0.387731
-0.397479
-0.330588
-0.23589
-0.159771
-0.103533
-0.0744012
-0.062027
-0.0501877
-0.0486161
-0.0575666
-0.0690336
-0.0749053
-0.0804214
-0.073039
-0.082367
-0.0891155
-0.0665949
-0.0434863
-0.047635
-0.0342212
-0.0158906
-0.291613
-0.236589
-0.196927
-0.151559
-0.132647
-0.137887
-0.19039
-0.289282
-0.37749
-0.391425
-0.327985
-0.235526
-0.160017
-0.103208
-0.073023
-0.0594648
-0.0468383
-0.0450251
-0.0542056
-0.0672342
-0.074246
-0.0820843
-0.0749163
-0.0831128
-0.0892433
-0.0664485
-0.043053
-0.0478397
-0.0349919
-0.0159128
-0.289602
-0.232274
-0.186765
-0.143187
-0.124183
-0.128741
-0.179347
-0.276801
-0.365872
-0.383993
-0.324437
-0.234729
-0.160134
-0.103002
-0.0718266
-0.0572521
-0.0439951
-0.0420158
-0.0511998
-0.0654225
-0.0735178
-0.0837629
-0.0767285
-0.0837801
-0.0892628
-0.0662367
-0.0425819
-0.0480458
-0.0357603
-0.0159334
-0.28891
-0.230358
-0.180796
-0.13734
-0.118013
-0.121458
-0.169105
-0.264065
-0.353196
-0.37541
-0.320011
-0.233471
-0.160066
-0.102866
-0.0707846
-0.0553466
-0.0415955
-0.0395452
-0.0485638
-0.0636077
-0.0727104
-0.0854478
-0.0784636
-0.0843666
-0.0891755
-0.0659583
-0.0420737
-0.0482502
-0.0365156
-0.0159506
-0.28919
-0.230616
-0.178293
-0.133877
-0.113915
-0.115927
-0.159793
-0.251377
-0.339793
-0.365929
-0.314897
-0.231959
-0.160044
-0.102994
-0.0699984
-0.0537984
-0.0396254
-0.0376002
-0.0462988
-0.0617943
-0.0718123
-0.0871282
-0.0801072
-0.0848666
-0.0889693
-0.0656172
-0.0415285
-0.0484656
-0.0372496
-0.0159626
-0.289879
-0.232409
-0.177984
-0.132626
-0.111738
-0.111991
-0.151447
-0.238949
-0.326159
-0.355536
-0.309418
-0.230806
-0.160675
-0.103839
-0.0697036
-0.0527146
-0.0380915
-0.0362389
-0.0444758
-0.0599922
-0.0708095
-0.0887914
-0.0816117
-0.0852425
-0.0886105
-0.0652174
-0.0409457
-0.0487077
-0.03796
-0.0159683
-0.290901
-0.235672
-0.180005
-0.133521
-0.111571
-0.109646
-0.143939
-0.226377
-0.312318
-0.343684
-0.303219
-0.229692
-0.161524
-0.104966
-0.0696404
-0.0518205
-0.0367505
-0.0353238
-0.0432383
-0.05826
-0.0696858
-0.0904356
-0.0829122
-0.0854571
-0.0881264
-0.0647392
-0.0403253
-0.0489205
-0.0386272
-0.0159677
-0.291908
-0.23932
-0.184243
-0.138388
-0.113081
-0.109483
-0.138741
-0.215211
-0.294619
-0.331413
-0.29434
-0.224954
-0.158966
-0.103497
-0.0681946
-0.050038
-0.0348996
-0.0339892
-0.0417993
-0.0563831
-0.0684378
-0.0920111
-0.0844073
-0.0857947
-0.0878093
-0.064115
-0.0396683
-0.048897
-0.039142
-0.0159466
-0.277397
-0.234078
-0.180765
-0.135835
-0.113023
-0.109679
-0.136793
-0.211731
-0.302688
-0.321693
-0.28245
-0.214816
-0.151524
-0.0981955
-0.0644663
-0.0468322
-0.0320631
-0.0307647
-0.0361479
-0.0516563
-0.065721
-0.0946117
-0.088466
-0.0870934
-0.0880333
-0.0632482
-0.0388333
-0.0484125
-0.0395466
-0.015848
-0.264702
-0.226036
-0.177007
-0.136351
-0.116597
-0.114283
-0.139193
-0.206588
-0.283871
-0.300851
-0.263098
-0.200597
-0.142218
-0.09274
-0.0609964
-0.0436693
-0.029713
-0.0290098
-0.035939
-0.0494392
-0.0641064
-0.0961741
-0.0920796
-0.086709
-0.0868431
-0.0616851
-0.0376
-0.047766
-0.0408633
-0.015836
-0.252678
-0.218138
-0.174056
-0.137938
-0.120989
-0.120001
-0.142635
-0.200554
-0.264874
-0.278337
-0.243393
-0.186705
-0.133289
-0.0873524
-0.0574787
-0.0406467
-0.0274246
-0.027452
-0.035394
-0.0483583
-0.0633313
-0.0969635
-0.0950688
-0.0858313
-0.0851179
-0.059868
-0.0362116
-0.0470328
-0.0423109
-0.0157931
-0.241026
-0.21043
-0.171314
-0.13977
-0.125161
-0.124992
-0.14467
-0.192802
-0.244987
-0.25505
-0.223437
-0.172733
-0.124277
-0.0818583
-0.0539192
-0.0376964
-0.0251173
-0.0259186
-0.034471
-0.046993
-0.0624286
-0.09746
-0.0979441
-0.0847585
-0.0828791
-0.0577106
-0.0346315
-0.0462017
-0.0436766
-0.0156794
-0.228704
-0.202336
-0.168188
-0.141
-0.128329
-0.128474
-0.144766
-0.18328
-0.224467
-0.231649
-0.203746
-0.159007
-0.115375
-0.0763173
-0.0503087
-0.0347684
-0.0227242
-0.0243134
-0.0333649
-0.0451374
-0.0611037
-0.0977106
-0.10056
-0.0832969
-0.0800281
-0.0551741
-0.0328387
-0.0452343
-0.0449407
-0.0154992
-0.215429
-0.193662
-0.16433
-0.141095
-0.130023
-0.130103
-0.14297
-0.172594
-0.204211
-0.209056
-0.184861
-0.145729
-0.106644
-0.0707628
-0.0466391
-0.0318177
-0.0201846
-0.0225219
-0.0320363
-0.0428617
-0.0593449
-0.0974232
-0.102604
-0.0813609
-0.0765101
-0.0522149
-0.0308057
-0.0440897
-0.0460763
-0.0152449
-0.20162
-0.184405
-0.159606
-0.139858
-0.130128
-0.129909
-0.139588
-0.161577
-0.185059
-0.187951
-0.167126
-0.133047
-0.0981542
-0.0652389
-0.0429055
-0.0287976
-0.0174338
-0.0204161
-0.0303627
-0.0401228
-0.0570363
-0.0962357
-0.103806
-0.0788827
-0.0722836
-0.0487901
-0.0285033
-0.0427158
-0.0470174
-0.0148914
-0.187652
-0.174628
-0.154023
-0.137328
-0.128749
-0.128129
-0.135002
-0.1507
-0.16751
-0.168682
-0.150718
-0.121051
-0.0899498
-0.0597784
-0.0391044
-0.0256602
-0.014406
-0.0178393
-0.0281762
-0.0367277
-0.0538852
-0.0938665
-0.103882
-0.0757842
-0.0673236
-0.0448603
-0.0259003
-0.0410446
-0.0476706
-0.0144068
-0.173767
-0.164447
-0.147656
-0.133641
-0.126074
-0.125045
-0.129559
-0.140269
-0.151712
-0.15133
-0.135683
-0.109786
-0.0820615
-0.0544096
-0.0352375
-0.0223598
-0.0110394
-0.0145985
-0.0252136
-0.0323657
-0.0495137
-0.0900811
-0.102512
-0.071986
-0.0616297
-0.0403937
-0.0229648
-0.0389899
-0.0479227
-0.0137576
-0.160181
-0.154002
-0.140612
-0.128962
-0.12231
-0.12092
-0.123575
-0.130391
-0.137576
-0.135807
-0.121979
-0.099262
-0.07451
-0.0491559
-0.0313125
-0.0188593
-0.00728251
-0.0104715
-0.020967
-0.026631
-0.0435329
-0.0846553
-0.0993792
-0.0674187
-0.055233
-0.0353717
-0.0196652
-0.0364473
-0.047642
-0.0129089
-0.14703
-0.143426
-0.13301
-0.123453
-0.117646
-0.115976
-0.11719
-0.121046
-0.124913
-0.121947
-0.109525
-0.0894698
-0.0673099
-0.0440381
-0.0273435
-0.0151382
-0.00310532
-0.00524264
-0.0149266
-0.0190523
-0.0355779
-0.0774224
-0.0942063
-0.0620323
-0.0482011
-0.0297952
-0.0159722
-0.0332953
-0.0466778
-0.0118257
-0.134384
-0.13284
-0.124981
-0.11727
-0.112254
-0.110395
-0.110523
-0.112176
-0.113511
-0.10956
-0.0982189
-0.0803864
-0.0604716
-0.0390766
-0.0233512
-0.0112013
0.00148177
0.00124105
-0.00664397
-0.00916127
-0.0253962
-0.0683452
-0.0868953
-0.0558091
-0.0406405
-0.0236923
-0.0118632
-0.0293993
-0.0448639
-0.0104765
-0.122292
-0.122357
-0.116655
-0.110563
-0.106294
-0.104324
-0.103669
-0.103721
-0.103176
-0.0984582
-0.0879593
-0.0719824
-0.0540026
-0.0342917
-0.0193624
-0.00708579
0.00640524
0.00897679
0.00435041
0.00335068
-0.0130235
-0.0575686
-0.0774552
-0.0487755
-0.0326943
-0.0171269
-0.00732678
-0.0246232
-0.0420261
-0.00883845
-0.11079
-0.112077
-0.108167
-0.103479
-0.0999113
-0.0979326
-0.0967155
-0.0956396
-0.0937421
-0.0884738
-0.0786476
-0.0642252
-0.0479081
-0.0297023
-0.0154118
-0.00287031
0.0115152
0.0176521
0.0179633
0.0183127
0.000989374
-0.0454481
-0.0660835
-0.0410121
-0.024532
-0.0102027
-0.00237001
-0.0188473
-0.0379966
-0.00690532
-0.099905
-0.102088
-0.0996403
-0.0961566
-0.0932417
-0.0913274
-0.0897445
-0.0879073
-0.0850793
-0.0794588
-0.0701929
-0.0570808
-0.042192
-0.0253266
-0.0115438
0.00131812
0.0165864
0.0265573
0.0327915
0.0345081
0.015398
-0.0324467
-0.0531279
-0.0326619
-0.0163334
-0.00306344
0.0029755
-0.0119941
-0.0326368
-0.00469635
-0.0896542
-0.0924657
-0.0911933
-0.0887286
-0.0864118
-0.0846238
-0.0828303
-0.080513
-0.0770854
-0.0712876
-0.062513
-0.0505144
-0.0368566
-0.0211857
-0.00781547
0.00531751
0.0213323
0.0347338
0.0462285
0.0494612
0.0285279
-0.0189661
-0.0390872
-0.0239301
-0.00828209
0.00411448
0.00864642
-0.00406393
-0.0258727
-0.00226624
-0.080052
-0.0832744
-0.0829289
-0.0813163
-0.0795387
-0.0779235
-0.0760414
-0.0734569
-0.0696841
-0.0638553
-0.0555342
-0.0444927
-0.0319025
-0.0173058
-0.00429732
0.00896818
0.0254529
0.0413233
0.0562619
0.0606882
0.0391054
-0.00543205
-0.0246969
-0.015082
-0.000566683
0.0111342
0.0145315
0.00482435
-0.0177443
0.00028817
-0.0711061
-0.0745665
-0.0749379
-0.0740286
-0.0727274
-0.0713165
-0.0694397
-0.0667462
-0.06282
-0.0570771
-0.0491919
-0.0389848
-0.0273297
-0.013717
-0.00106997
0.0121413
0.0287032
0.0457751
0.0616662
0.0670767
0.0467667
0.00738983
-0.0109226
-0.00642613
0.00663477
0.0177911
0.0204449
0.0143924
-0.00846471
0.00283136
-0.062819
-0.0663838
-0.0672975
-0.0669613
-0.0660724
-0.0648842
-0.0630815
-0.0603932
-0.056455
-0.0508858
-0.0434304
-0.0339642
-0.0231395
-0.0104459
0.00179192
0.0147609
0.0309414
0.0480064
0.0631494
0.0691632
0.05172
0.0185133
0.00134788
0.00174935
0.0131769
0.0238841
0.0261285
0.0241455
0.00151776
0.00521211
-0.0551898
-0.0587585
-0.0600714
-0.0601979
-0.0596857
-0.0587029
-0.0570178
-0.0544132
-0.0505638
-0.0452308
-0.0382038
-0.0294078
-0.0193339
-0.00751103
0.00424174
0.0168096
0.0321743
0.0483987
0.0620871
0.0682122
0.0543228
0.0272672
0.011594
0.00923711
0.0189713
0.0292354
0.031305
0.0333244
0.0115042
0.00730135
-0.0482144
-0.0517144
-0.0533108
-0.053802
-0.0535993
-0.0528301
-0.0512928
-0.0488237
-0.045132
-0.0400756
-0.0334753
-0.0252963
-0.0159125
-0.0049192
0.0062686
0.0183103
0.0325518
0.0474907
0.0596099
0.0654379
0.0550805
0.0335884
0.0197406
0.0159065
0.023996
0.0337258
0.0357266
0.0410083
0.0206657
0.00900196
-0.0418876
-0.0452695
-0.0470584
-0.0478331
-0.0478903
-0.047321
-0.0459472
-0.0436443
-0.0401534
-0.0353961
-0.0292173
-0.0216124
-0.0128707
-0.0026664
0.0078944
0.0193138
0.0322881
0.0457885
0.0564689
0.0617945
0.0545634
0.0378544
0.0260162
0.0216805
0.0282656
0.0373065
0.039241
0.0463941
0.0282577
0.0103019
-0.0362042
-0.0394379
-0.0413494
-0.0423409
-0.0426137
-0.0422258
-0.0410189
-0.0388963
-0.035629
-0.031178
-0.0254098
-0.0183404
-0.010199
-0.000739446
0.00916139
0.019893
0.0316037
0.0436756
0.0531258
0.0579326
0.0532556
0.0405513
0.0307425
0.0265357
0.0318113
0.0399839
0.0417908
0.0490845
0.0337489
0.0113724
-0.0311613
-0.0342322
-0.036214
-0.0373682
-0.0378176
-0.0375899
-0.0365445
-0.0346033
-0.0315659
-0.0274161
-0.02204
-0.0154673
-0.00788386
0.000881518
0.0101221
0.0201357
0.030686
0.0414269
0.0498577
0.0542421
0.0515268
0.0421209
0.0342282
0.0304972
0.0346775
0.0418227
0.0434245
0.0493044
0.0370183
0.0124097
-0.0267589
-0.0296656
-0.0316798
-0.0329535
-0.0335455
-0.0334564
-0.03256
-0.0307915
-0.0279773
-0.0241126
-0.0191017
-0.0129828
-0.00590995
0.00222059
0.0108313
0.0201338
0.0296722
0.0392466
0.0468411
0.050935
0.0496539
0.0429196
0.036741
0.0336305
0.036921
0.0429439
0.0442814
0.0478451
0.038391
0.013437
-0.0230036
-0.0257546
-0.0277763
-0.0291356
-0.0298401
-0.0298671
-0.0291027
-0.0274911
-0.0248826
-0.0212772
-0.0165953
-0.0108808
-0.00426319
0.00330286
0.0113396
0.019978
0.0286667
0.0372651
0.0441851
0.0481106
0.0478419
0.0432181
0.0385043
0.0360246
0.0386107
0.0435113
0.0445454
0.0456943
0.038367
0.0143175
-0.0199089
-0.0225219
-0.0245359
-0.0259546
-0.0267456
-0.0268667
-0.0262141
-0.0247374
-0.0223081
-0.0189275
-0.0145294
-0.009161
-0.00293337
0.00415129
0.0116917
0.0197483
0.0277516
0.035572
0.0419588
0.0458077
0.0462388
0.0432183
0.0396976
0.0377759
0.0398259
0.0437062
0.044421
0.0435775
0.0374733
0.0149333
-0.0175014
-0.0200009
-0.0220004
-0.0234583
-0.0243123
-0.024506
-0.023942
-0.0225734
-0.0202892
-0.0170904
-0.0129211
-0.00783071
-0.00191649
0.0047836
0.0119245
0.01951
0.0269909
0.0342284
0.0402127
0.0440414
0.044945
0.0430733
0.040467
0.0389821
0.0406506
0.0436954
0.0441037
0.0418542
0.0362221
0.0152687
-0.0158232
-0.0182405
-0.0202262
-0.0217086
-0.0226049
-0.0228474
-0.0223454
-0.0210539
-0.0188735
-0.0158049
-0.0117997
-0.00690767
-0.00121751
0.00520946
0.0120653
0.0193145
0.026437
0.0332826
0.0389932
0.0428264
0.0440287
0.0428999
0.0409216
0.0397339
0.0411588
0.0436118
0.0437659
0.0406544
0.0350678
0.0154035
-0.0149292
-0.0173055
-0.0192827
-0.020777
-0.0216955
-0.0219658
-0.0214974
-0.0202473
-0.0181227
-0.0151241
-0.0112074
-0.00642192
-0.000852328
0.00542868
0.0121323
0.0192011
0.0261366
0.0327797
0.0383511
0.0421913
0.0435452
0.042786
0.0411371
0.0400941
0.0414012
0.0435435
0.0435524
0.040029
0.0343623
0.0154425
-0.254923
-0.259733
-0.264065
-0.267925
-0.27132
-0.274275
-0.276829
-0.27914
-0.281301
-0.284393
-0.287659
-0.299459
-0.235198
-0.239949
-0.244278
-0.248218
-0.251813
-0.25518
-0.25841
-0.261933
-0.26555
-0.271004
-0.274887
-0.286441
-0.216659
-0.221512
-0.226072
-0.230398
-0.234527
-0.238597
-0.242519
-0.246664
-0.25012
-0.254623
-0.256279
-0.264753
-0.199455
-0.204376
-0.209068
-0.213569
-0.217835
-0.221938
-0.2256
-0.229195
-0.231794
-0.235415
-0.237218
-0.244529
-0.183133
-0.187939
-0.19251
-0.196858
-0.200907
-0.204745
-0.208164
-0.211653
-0.214572
-0.218508
-0.221237
-0.227301
-0.167571
-0.172164
-0.176538
-0.180719
-0.18467
-0.188518
-0.192134
-0.195872
-0.199176
-0.202929
-0.205745
-0.210624
-0.152904
-0.157303
-0.161535
-0.165634
-0.169578
-0.173443
-0.177096
-0.180704
-0.183901
-0.187259
-0.190204
-0.194582
-0.139186
-0.143395
-0.147472
-0.151431
-0.155244
-0.158939
-0.162434
-0.165845
-0.169036
-0.172345
-0.175543
-0.179635
-0.126338
-0.130324
-0.134192
-0.137948
-0.141579
-0.145109
-0.148518
-0.151875
-0.155116
-0.158377
-0.161592
-0.165407
-0.114308
-0.118058
-0.121712
-0.125276
-0.128751
-0.132153
-0.13547
-0.13872
-0.141871
-0.14499
-0.148129
-0.151757
-0.103086
-0.106609
-0.110054
-0.113428
-0.11673
-0.119963
-0.12312
-0.126211
-0.129236
-0.132241
-0.135305
-0.138768
-0.0926415
-0.0959369
-0.0991676
-0.102336
-0.105442
-0.108489
-0.11148
-0.114422
-0.117322
-0.120205
-0.123146
-0.126414
-0.0829318
-0.0860013
-0.089016
-0.0919783
-0.0948907
-0.0977566
-0.100579
-0.10336
-0.106106
-0.108835
-0.111619
-0.11468
-0.0739229
-0.0767741
-0.079579
-0.0823399
-0.0850591
-0.0877383
-0.0903799
-0.0929856
-0.0955639
-0.0981274
-0.100746
-0.103593
-0.0655801
-0.0682218
-0.0708234
-0.0733865
-0.075913
-0.0784045
-0.0808641
-0.0832932
-0.0857008
-0.0880944
-0.0905369
-0.0931642
-0.0603129
-0.0627186
-0.0650901
-0.0674293
-0.0697377
-0.072018
-0.0742711
-0.0765051
-0.0787244
-0.0809857
-0.083394
-0.053018
-0.0552373
-0.0574256
-0.0595846
-0.0617153
-0.0638202
-0.0658997
-0.0679613
-0.0700073
-0.0720882
-0.0742835
-0.0463064
-0.04835
-0.0503648
-0.0523521
-0.0543128
-0.056249
-0.0581609
-0.0600553
-0.0619326
-0.0638372
-0.0658283
-0.040153
-0.042032
-0.0438838
-0.0457093
-0.0475092
-0.0492852
-0.0510374
-0.0527716
-0.0544873
-0.0562224
-0.0580207
-0.0345329
-0.0362593
-0.0379595
-0.039634
-0.0412835
-0.0429093
-0.0445112
-0.0460942
-0.0476572
-0.0492324
-0.0508511
-0.0294248
-0.0310109
-0.0325714
-0.0341066
-0.0356169
-0.0371034
-0.0385658
-0.0400083
-0.0414292
-0.0428556
-0.0443092
-0.0248114
-0.0262697
-0.0277027
-0.0291107
-0.0304937
-0.0318527
-0.0331872
-0.0345007
-0.0357913
-0.0370812
-0.038385
-0.0206775
-0.0220208
-0.0233389
-0.0246321
-0.0259003
-0.0271441
-0.0283632
-0.02956
-0.030733
-0.0318998
-0.0330697
-0.0170138
-0.018255
-0.0194712
-0.0206624
-0.0218286
-0.02297
-0.0240864
-0.0251795
-0.026248
-0.0273057
-0.0283577
-0.0138155
-0.0149673
-0.0160944
-0.0171966
-0.0182737
-0.0193258
-0.0203527
-0.0213557
-0.0223333
-0.0232963
-0.0242466
-0.0110851
-0.0121607
-0.0132118
-0.0142382
-0.0152395
-0.0162158
-0.0171668
-0.0180933
-0.018994
-0.019877
-0.0207419
-0.00882717
-0.0098401
-0.0108288
-0.0117931
-0.0127325
-0.013647
-0.0145361
-0.0154006
-0.0162393
-0.0170576
-0.017854
-0.00706641
-0.00803015
-0.00897009
-0.00988589
-0.0107772
-0.0116439
-0.0124855
-0.0133024
-0.0140937
-0.0148629
-0.0156076
-0.00582207
-0.00675244
-0.00765956
-0.00854304
-0.00940251
-0.0102377
-0.0110482
-0.0118341
-0.0125945
-0.0133317
-0.0140424
-0.00514043
-0.00604993
-0.0069372
-0.00780191
-0.00864372
-0.00946239
-0.0102576
-0.0110293
-0.0117766
-0.0125013
-0.0131998
-0.0469935
-0.0274621
-0.0157783
)
;

boundaryField
{
    inlet
    {
        type            zeroGradient;
    }
    outlet
    {
        type            fixedValue;
        value           uniform 0;
    }
    cylinder
    {
        type            zeroGradient;
    }
    top
    {
        type            symmetryPlane;
    }
    bottom
    {
        type            symmetryPlane;
    }
    defaultFaces
    {
        type            empty;
    }
    procBoundary3to1
    {
        type            processor;
        value           nonuniform List<scalar> 
41
(
-0.432204
-0.433457
-0.434038
-0.435329
-0.437946
-0.442196
-0.448253
-0.456323
-0.466519
-0.479057
-0.503827
-0.532391
-0.547055
-0.520876
-0.449036
-0.362544
-0.300445
-0.284435
-0.293294
-0.292403
-0.248908
-0.184107
-0.141721
-0.117781
-0.111347
-0.132613
-0.145366
-0.134274
-0.112989
-0.0876097
-0.0792555
-0.0638299
-0.0495684
-0.0679122
-0.0788673
-0.0638539
-0.0456814
-0.0471294
-0.0273546
-0.0157848
-0.0456814
)
;
    }
    procBoundary3to2
    {
        type            processor;
        value           nonuniform List<scalar> 
50
(
-0.408319
-0.408319
-0.409992
-0.409992
-0.415431
-0.415204
-0.415204
-0.412645
-0.412645
-0.406446
-0.39183
-0.39183
-0.372312
-0.372312
-0.343985
-0.343985
-0.309772
-0.279891
-0.279891
-0.24963
-0.230012
-0.211481
-0.194291
-0.178106
-0.162772
-0.14834
-0.134845
-0.122237
-0.110459
-0.0994841
-0.0892795
-0.0798053
-0.0710232
-0.0628961
-0.0578715
-0.0578715
-0.0507665
-0.044233
-0.0382459
-0.0327796
-0.0278127
-0.0233276
-0.0193092
-0.0157479
-0.0126392
-0.00998525
-0.00779041
-0.00607927
-0.00486889
-0.00420907
)
;
    }
}


// ************************************************************************* //
