/*--------------------------------*- C++ -*----------------------------------*\
  =========                 |
  \\      /  F ield         | OpenFOAM: The Open Source CFD Toolbox
   \\    /   O peration     | Website:  https://openfoam.org
    \\  /    A nd           | Version:  7
     \\/     M anipulation  |
\*---------------------------------------------------------------------------*/
FoamFile
{
    version     2.0;
    format      ascii;
    class       volScalarField;
    location    "350";
    object      p;
}
// * * * * * * * * * * * * * * * * * * * * * * * * * * * * * * * * * * * * * //

dimensions      [0 2 -2 0 0 0 0];

internalField   nonuniform List<scalar> 
8500
(
-0.424671
-0.426542
-0.427245
-0.428431
-0.430671
-0.434201
-0.439126
-0.445571
-0.453499
-0.463118
-0.41711
-0.419555
-0.420357
-0.421413
-0.423239
-0.425992
-0.429702
-0.434398
-0.43986
-0.446225
-0.409672
-0.412639
-0.413522
-0.414433
-0.415827
-0.417776
-0.420228
-0.423105
-0.425982
-0.428878
-0.402505
-0.405935
-0.406885
-0.407649
-0.408609
-0.409754
-0.41094
-0.411981
-0.412239
-0.411564
-0.395749
-0.39958
-0.400587
-0.401205
-0.401744
-0.402105
-0.402048
-0.401285
-0.39897
-0.394721
-0.389534
-0.393701
-0.394755
-0.395235
-0.395374
-0.394987
-0.393737
-0.391238
-0.386465
-0.378707
-0.383976
-0.388413
-0.389503
-0.389854
-0.389621
-0.388533
-0.386158
-0.382018
-0.374954
-0.363789
-0.379174
-0.383811
-0.384926
-0.385158
-0.384584
-0.382854
-0.379434
-0.373763
-0.364614
-0.350138
-0.37521
-0.379974
-0.381102
-0.381224
-0.380344
-0.378035
-0.373661
-0.366582
-0.355581
-0.337842
-0.372145
-0.37696
-0.378085
-0.378107
-0.376959
-0.374143
-0.36892
-0.360556
-0.347968
-0.326927
-0.370019
-0.374801
-0.375907
-0.37584
-0.374465
-0.371224
-0.365267
-0.355748
-0.341867
-0.317342
-0.368846
-0.373508
-0.374576
-0.374429
-0.372871
-0.369292
-0.362732
-0.352191
-0.337344
-0.3089
-0.368614
-0.373064
-0.37407
-0.373851
-0.372153
-0.368324
-0.361302
-0.349886
-0.334469
-0.301404
-0.369284
-0.373427
-0.374341
-0.37405
-0.372246
-0.368245
-0.360899
-0.348763
-0.333235
-0.295397
-0.370796
-0.374533
-0.375316
-0.374938
-0.373046
-0.368924
-0.361361
-0.348659
-0.332835
-0.29159
-0.373063
-0.376299
-0.376903
-0.376406
-0.374414
-0.370183
-0.36246
-0.349548
-0.332783
-0.289663
-0.375991
-0.378633
-0.378994
-0.378324
-0.376188
-0.371824
-0.363901
-0.350997
-0.332964
-0.28912
-0.379476
-0.381441
-0.381484
-0.380563
-0.378206
-0.373664
-0.365453
-0.35255
-0.332886
-0.289339
-0.383425
-0.384638
-0.384278
-0.383013
-0.380368
-0.375505
-0.366934
-0.354011
-0.332203
-0.290314
-0.387759
-0.388156
-0.387305
-0.385596
-0.382539
-0.377273
-0.368244
-0.355186
-0.331281
-0.295531
-0.392424
-0.391951
-0.390522
-0.388258
-0.384682
-0.378912
-0.36934
-0.355836
-0.330927
-0.309096
-0.397396
-0.396007
-0.393918
-0.391002
-0.386803
-0.380424
-0.370224
-0.355997
-0.331475
-0.31096
-0.402683
-0.400339
-0.397517
-0.393865
-0.388951
-0.38185
-0.370916
-0.355795
-0.331685
-0.310237
-0.408319
-0.404982
-0.401372
-0.396915
-0.391202
-0.383259
-0.371452
-0.355319
-0.331286
-0.308643
-0.414362
-0.409992
-0.405553
-0.400239
-0.393642
-0.384724
-0.371879
-0.354583
-0.330304
-0.306321
-0.420879
-0.415431
-0.410139
-0.403923
-0.396346
-0.386302
-0.372225
-0.353591
-0.328737
-0.303597
-0.427938
-0.421368
-0.415204
-0.408042
-0.399371
-0.388024
-0.37249
-0.352326
-0.326651
-0.300503
-0.435597
-0.427857
-0.420811
-0.412645
-0.402741
-0.389884
-0.372637
-0.350763
-0.324098
-0.29708
-0.443893
-0.434937
-0.426996
-0.41775
-0.406446
-0.39183
-0.372604
-0.348875
-0.321121
-0.293323
-0.452835
-0.442621
-0.433767
-0.423336
-0.410431
-0.393768
-0.372312
-0.346627
-0.317743
-0.289223
-0.462399
-0.450898
-0.441095
-0.429346
-0.414596
-0.395572
-0.371675
-0.343985
-0.313965
-0.284755
-0.472525
-0.45972
-0.448916
-0.435682
-0.418793
-0.397096
-0.370603
-0.340905
-0.309772
-0.279891
-0.483114
-0.469003
-0.457123
-0.442202
-0.422838
-0.398186
-0.369007
-0.337337
-0.305134
-0.274592
-0.494026
-0.478624
-0.465573
-0.448716
-0.42652
-0.398688
-0.366795
-0.333224
-0.300006
-0.268817
-0.505082
-0.48842
-0.474077
-0.454994
-0.429617
-0.398451
-0.363875
-0.328503
-0.294336
-0.26252
-0.516062
-0.498185
-0.482405
-0.460769
-0.431902
-0.397328
-0.360154
-0.323103
-0.288064
-0.255652
-0.52671
-0.507675
-0.490288
-0.465752
-0.433156
-0.395179
-0.355538
-0.316952
-0.281127
-0.248166
-0.536735
-0.516609
-0.497419
-0.469649
-0.433169
-0.391871
-0.349935
-0.309975
-0.273462
-0.240015
-0.545818
-0.524677
-0.503468
-0.472168
-0.431746
-0.38728
-0.343254
-0.302096
-0.265005
-0.231158
-0.553619
-0.531547
-0.50809
-0.473031
-0.428707
-0.38129
-0.33541
-0.293243
-0.255697
-0.221558
-0.559786
-0.53687
-0.510943
-0.471981
-0.423893
-0.373796
-0.326321
-0.283348
-0.245485
-0.211186
-0.563966
-0.540295
-0.511699
-0.468789
-0.417163
-0.364702
-0.315912
-0.27235
-0.234331
-0.200027
-0.565815
-0.541474
-0.510054
-0.463257
-0.408397
-0.353925
-0.304114
-0.260191
-0.222199
-0.188072
-0.565004
-0.540081
-0.505744
-0.455219
-0.3975
-0.3414
-0.290872
-0.246821
-0.209046
-0.175262
-0.561235
-0.535814
-0.498545
-0.444549
-0.3844
-0.327075
-0.276145
-0.232202
-0.194803
-0.161429
-0.554246
-0.528411
-0.488281
-0.431155
-0.36905
-0.31092
-0.259912
-0.216322
-0.179429
-0.146332
-0.543817
-0.517663
-0.474822
-0.414986
-0.351427
-0.292919
-0.242159
-0.199182
-0.162978
-0.130013
-0.529778
-0.503412
-0.458085
-0.396022
-0.331534
-0.273072
-0.222882
-0.180797
-0.145507
-0.113269
-0.512013
-0.485556
-0.438034
-0.374281
-0.309397
-0.251394
-0.202119
-0.161248
-0.126899
-0.0959657
-0.490463
-0.464051
-0.414684
-0.349816
-0.285067
-0.227944
-0.179987
-0.140498
-0.107292
-0.0779319
-0.465123
-0.43891
-0.388101
-0.322721
-0.258623
-0.202831
-0.156474
-0.118597
-0.0867776
-0.0591513
-0.436044
-0.410209
-0.358427
-0.293099
-0.23015
-0.176109
-0.131654
-0.0956264
-0.0654223
-0.0396862
-0.403328
-0.378089
-0.325873
-0.261012
-0.199762
-0.14787
-0.105621
-0.071674
-0.0432975
-0.0196365
-0.367146
-0.342762
-0.290539
-0.226564
-0.167626
-0.118243
-0.0784845
-0.046835
-0.0204875
0.000886219
-0.327727
-0.30453
-0.252108
-0.190256
-0.133917
-0.0873744
-0.0503689
-0.0212118
0.00292263
0.0217949
-0.28529
-0.263635
-0.211029
-0.152139
-0.0988362
-0.0554269
-0.0214112
0.00508833
0.0268459
0.0429992
-0.24002
-0.219626
-0.168545
-0.112468
-0.0625712
-0.022572
0.0082523
0.0319645
0.0511396
0.0641635
-0.192291
-0.173451
-0.124513
-0.0715209
-0.025329
0.0110203
0.0385043
0.0593307
0.0755225
0.084471
-0.14266
-0.125342
-0.0790755
-0.0295646
0.0126628
0.0451754
0.0692358
0.0870824
0.0996561
0.103343
-0.0913413
-0.0757849
-0.0325254
0.0131299
0.0511661
0.0797052
0.100287
0.114983
0.123441
0.122504
-0.0387537
-0.0251947
0.0147862
0.0562768
0.0899362
0.1144
0.131405
0.142636
0.146866
0.146826
0.0146614
0.0260305
0.0624924
0.0995792
0.128724
0.149033
0.162325
0.169911
0.170819
0.171186
0.0684606
0.0774857
0.110224
0.142733
0.167272
0.183376
0.192874
0.196874
0.194951
0.194211
0.122197
0.128759
0.157613
0.185431
0.205322
0.217198
0.22288
0.2234
0.21883
0.216233
0.175423
0.179438
0.204295
0.227368
0.242613
0.250278
0.252171
0.249313
0.242112
0.237252
0.227693
0.229112
0.249913
0.268243
0.278889
0.282401
0.280572
0.274432
0.264612
0.2573
0.278571
0.277377
0.294117
0.30776
0.3139
0.313355
0.307901
0.298583
0.286175
0.276338
0.327631
0.323843
0.336569
0.345632
0.347404
0.342934
0.333983
0.321606
0.306676
0.294308
0.374462
0.368131
0.376943
0.381587
0.379167
0.37094
0.358646
0.343354
0.325997
0.311139
0.41867
0.409883
0.414931
0.415361
0.408967
0.397185
0.381731
0.363686
0.344024
0.326755
0.459884
0.448759
0.45024
0.446709
0.436595
0.421489
0.403084
0.382474
0.360652
0.341083
0.497758
0.484443
0.4826
0.475401
0.461855
0.443686
0.422563
0.399596
0.37578
0.354052
0.531972
0.516643
0.511761
0.501226
0.484568
0.463623
0.440039
0.414941
0.389313
0.365598
0.562234
0.545096
0.537497
0.52399
0.504569
0.48116
0.455393
0.428407
0.401168
0.375663
0.588286
0.569568
0.559605
0.543525
0.521714
0.496175
0.46852
0.439904
0.411268
0.384194
0.609902
0.589852
0.577911
0.559682
0.535877
0.508559
0.479328
0.449353
0.419548
0.391147
0.626892
0.605778
0.592268
0.572334
0.546949
0.518221
0.48774
0.456686
0.42595
0.396485
0.639102
0.617206
0.602554
0.581381
0.554845
0.525087
0.493693
0.461851
0.430432
0.400185
0.646414
0.624029
0.608681
0.586747
0.5595
0.529103
0.49714
0.464807
0.432964
0.402237
0.648751
0.626177
0.610586
0.588379
0.560869
0.530231
0.49805
0.465525
0.43352
0.402602
0.646071
0.623613
0.608238
0.586251
0.55893
0.528452
0.496406
0.463994
0.432079
0.401278
0.638375
0.616336
0.601638
0.580362
0.553683
0.523766
0.492209
0.460212
0.428647
0.398251
0.6257
0.604381
0.590813
0.570738
0.54515
0.516191
0.485475
0.454195
0.423241
0.393552
0.608124
0.587816
0.575824
0.557429
0.533373
0.505765
0.476235
0.44597
0.415884
0.387197
0.585761
0.566745
0.55676
0.540511
0.518418
0.492544
0.464538
0.435579
0.40661
0.379201
0.558764
0.541307
0.533738
0.520084
0.500371
0.4766
0.450446
0.423077
0.395463
0.369591
0.527322
0.511671
0.506905
0.496272
0.479337
0.458025
0.434038
0.408531
0.382502
0.358406
0.491661
0.478042
0.476436
0.469224
0.455444
0.436926
0.415404
0.392021
0.367792
0.34569
0.452039
0.440653
0.442531
0.439109
0.428837
0.413428
0.394652
0.373639
0.351412
0.331495
0.408746
0.399767
0.405415
0.406119
0.399678
0.387671
0.371899
0.353486
0.333446
0.315881
0.362103
0.355676
0.365339
0.370466
0.368149
0.359807
0.347278
0.331675
0.313989
0.298914
0.312458
0.308696
0.322574
0.332379
0.334445
0.330005
0.32093
0.308327
0.293141
0.280664
0.260185
0.259168
0.277411
0.292106
0.298777
0.298444
0.29301
0.283575
0.271009
0.261204
0.20568
0.207453
0.230163
0.24991
0.261369
0.265315
0.26368
0.257557
0.247706
0.240607
0.149358
0.153931
0.181156
0.206067
0.222455
0.230816
0.233113
0.230424
0.223349
0.218939
0.0916507
0.098999
0.130732
0.160866
0.182279
0.195156
0.201486
0.20234
0.198063
0.196244
0.0330021
0.0430646
0.0792444
0.114606
0.141096
0.158548
0.168984
0.173487
0.172008
0.172545
-0.0261347
-0.0134554
0.0270561
0.0675912
0.0991657
0.121212
0.135783
0.144052
0.145387
0.14778
-0.0853015
-0.0701394
-0.0254625
0.0201337
0.0567517
0.0833711
0.102052
0.114216
0.118588
0.121975
-0.144039
-0.126566
-0.0779359
-0.0274541
0.0141209
0.0452628
0.0679651
0.0841027
0.0921147
0.0948131
-0.201888
-0.182318
-0.129986
-0.0748615
-0.0284649
0.00712411
0.0336969
0.0536024
0.0662964
0.0678545
-0.258395
-0.236983
-0.181236
-0.121783
-0.07075
-0.0308105
-0.000468928
0.0228333
0.0400728
0.0468502
-0.313122
-0.29013
-0.231326
-0.167924
-0.112482
-0.0683249
-0.0342578
-0.0077449
0.013465
0.0262358
-0.365788
-0.341265
-0.279954
-0.212999
-0.153415
-0.105227
-0.0675011
-0.0378585
-0.0133849
0.00395858
-0.415889
-0.390073
-0.326973
-0.25672
-0.193312
-0.141339
-0.100096
-0.0674094
-0.0401131
-0.0193093
-0.462998
-0.435687
-0.372501
-0.298779
-0.231966
-0.176489
-0.131929
-0.0963269
-0.0664298
-0.0426287
-0.506872
-0.478312
-0.415519
-0.33889
-0.269195
-0.210498
-0.162865
-0.124515
-0.0921909
-0.0656323
-0.547277
-0.517823
-0.454932
-0.377329
-0.304803
-0.24319
-0.19276
-0.151866
-0.117309
-0.0882331
-0.583963
-0.553949
-0.491388
-0.413261
-0.338502
-0.274412
-0.221485
-0.178272
-0.141697
-0.110342
-0.616729
-0.586427
-0.524831
-0.446425
-0.370187
-0.304028
-0.248919
-0.203633
-0.165268
-0.13184
-0.645433
-0.615051
-0.554987
-0.476873
-0.399716
-0.331911
-0.274959
-0.227857
-0.187952
-0.152618
-0.669987
-0.639698
-0.581656
-0.504522
-0.426979
-0.358025
-0.299516
-0.250854
-0.209695
-0.172597
-0.690361
-0.660315
-0.60473
-0.529249
-0.451893
-0.382259
-0.322605
-0.272541
-0.230428
-0.19176
-0.70658
-0.676906
-0.62416
-0.550968
-0.474391
-0.404533
-0.344137
-0.293009
-0.249958
-0.210216
-0.718729
-0.689536
-0.639944
-0.569636
-0.494431
-0.424809
-0.364034
-0.312135
-0.268122
-0.228276
-0.726949
-0.698329
-0.652128
-0.585244
-0.511996
-0.443079
-0.382283
-0.329929
-0.285293
-0.245445
-0.731438
-0.703465
-0.66081
-0.597819
-0.52709
-0.459354
-0.398903
-0.346409
-0.301396
-0.261245
-0.732446
-0.705183
-0.666136
-0.60742
-0.539744
-0.47366
-0.413916
-0.361559
-0.316349
-0.275821
-0.730265
-0.703773
-0.668299
-0.614145
-0.550008
-0.486033
-0.427351
-0.375391
-0.330182
-0.289444
-0.725229
-0.69957
-0.667538
-0.618128
-0.55796
-0.49653
-0.439256
-0.387957
-0.342966
-0.302256
-0.717696
-0.692935
-0.664142
-0.619541
-0.563698
-0.505222
-0.449697
-0.399324
-0.354763
-0.314301
-0.708047
-0.684251
-0.658435
-0.618589
-0.567341
-0.512192
-0.458747
-0.409561
-0.365625
-0.325604
-0.696667
-0.673905
-0.650774
-0.615512
-0.569029
-0.517534
-0.466486
-0.41874
-0.375605
-0.336196
-0.683943
-0.662282
-0.641534
-0.610576
-0.568919
-0.52135
-0.472993
-0.426933
-0.384771
-0.346124
-0.670244
-0.649747
-0.631095
-0.604071
-0.567186
-0.523746
-0.478353
-0.43422
-0.393194
-0.355445
-0.655919
-0.636645
-0.619824
-0.596305
-0.564018
-0.524836
-0.482646
-0.440679
-0.400954
-0.364225
-0.641288
-0.623287
-0.608064
-0.587594
-0.55962
-0.524734
-0.485954
-0.446383
-0.408129
-0.37254
-0.626631
-0.609946
-0.59612
-0.57825
-0.554207
-0.523559
-0.488351
-0.451403
-0.414795
-0.380468
-0.612187
-0.596854
-0.584253
-0.568571
-0.548001
-0.521434
-0.489906
-0.4558
-0.421025
-0.388088
-0.598155
-0.584196
-0.572675
-0.558821
-0.541229
-0.518486
-0.490682
-0.459624
-0.426886
-0.395484
-0.58469
-0.572114
-0.561551
-0.549218
-0.534115
-0.514846
-0.490735
-0.462915
-0.432432
-0.40274
-0.571911
-0.560708
-0.551005
-0.539929
-0.526866
-0.510657
-0.490123
-0.4657
-0.437709
-0.40994
-0.559907
-0.550043
-0.541118
-0.531071
-0.51966
-0.506065
-0.488907
-0.467998
-0.442746
-0.417173
-0.548743
-0.54016
-0.53194
-0.522726
-0.512639
-0.501223
-0.487159
-0.46982
-0.447557
-0.424519
-0.53847
-0.531079
-0.523497
-0.514949
-0.50591
-0.49628
-0.48497
-0.471185
-0.452134
-0.432089
-0.529131
-0.522818
-0.515802
-0.507783
-0.499555
-0.491379
-0.48246
-0.472115
-0.456472
-0.439939
-0.520766
-0.515388
-0.508866
-0.501268
-0.493654
-0.486652
-0.47977
-0.472667
-0.460524
-0.448276
-0.513409
-0.508802
-0.502704
-0.495445
-0.488297
-0.482232
-0.477064
-0.472913
-0.464328
-0.456951
-0.507082
-0.503068
-0.497331
-0.490362
-0.483584
-0.478264
-0.474517
-0.472973
-0.467843
-0.466238
-0.501781
-0.498181
-0.492755
-0.48606
-0.479613
-0.4749
-0.472321
-0.473004
-0.471055
-0.474899
-0.497466
-0.494118
-0.488968
-0.482561
-0.476461
-0.472284
-0.470716
-0.473025
-0.475127
-0.475931
-0.494062
-0.490822
-0.485928
-0.479855
-0.474164
-0.470523
-0.469915
-0.473194
-0.479912
-0.479154
-0.491464
-0.488201
-0.483564
-0.477888
-0.472704
-0.469667
-0.470033
-0.473887
-0.484799
-0.483973
-0.489527
-0.48614
-0.481772
-0.476567
-0.472003
-0.469688
-0.471062
-0.475429
-0.489561
-0.488976
-0.488077
-0.484507
-0.480424
-0.475763
-0.471934
-0.470469
-0.472879
-0.477933
-0.49416
-0.494314
-0.486928
-0.483158
-0.479383
-0.475326
-0.472328
-0.47183
-0.475285
-0.481284
-0.498598
-0.500447
-0.485896
-0.481949
-0.478504
-0.475097
-0.472995
-0.473538
-0.478039
-0.485209
-0.502891
-0.507275
-0.484803
-0.480738
-0.477647
-0.474914
-0.473735
-0.475345
-0.480865
-0.489286
-0.507011
-0.514437
-0.48349
-0.479392
-0.476674
-0.474617
-0.474349
-0.476995
-0.483483
-0.493132
-0.510812
-0.521285
-0.481813
-0.477788
-0.475457
-0.474057
-0.474648
-0.47825
-0.485615
-0.496372
-0.514027
-0.52726
-0.479655
-0.475816
-0.473877
-0.473093
-0.47446
-0.478894
-0.487009
-0.498684
-0.516347
-0.531912
-0.47692
-0.47338
-0.471831
-0.471602
-0.473634
-0.478747
-0.487452
-0.499814
-0.517474
-0.534886
-0.473538
-0.470405
-0.469232
-0.469485
-0.472052
-0.477671
-0.486779
-0.499569
-0.517152
-0.535881
-0.469471
-0.466837
-0.466019
-0.466669
-0.469632
-0.475571
-0.484877
-0.497823
-0.515188
-0.534689
-0.464709
-0.462649
-0.462157
-0.463114
-0.466329
-0.472401
-0.481687
-0.494509
-0.511454
-0.531162
-0.459272
-0.457843
-0.45764
-0.458816
-0.462142
-0.468164
-0.477208
-0.489622
-0.505906
-0.525196
-0.453212
-0.452451
-0.452496
-0.453806
-0.457112
-0.462909
-0.471494
-0.48322
-0.498576
-0.516766
-0.446608
-0.446539
-0.446775
-0.448149
-0.451322
-0.456732
-0.464651
-0.475402
-0.489322
-0.506242
-0.439563
-0.440164
-0.440592
-0.441949
-0.444884
-0.449771
-0.456837
-0.466358
-0.478561
-0.493571
-0.432204
-0.433457
-0.434038
-0.435329
-0.437946
-0.442196
-0.448253
-0.456323
-0.466519
-0.479057
-0.483147
-0.506608
-0.518124
-0.493191
-0.428674
-0.352281
-0.301659
-0.297346
-0.314719
-0.31247
-0.263615
-0.192752
-0.144779
-0.116745
-0.107679
-0.125726
-0.135832
-0.126829
-0.109062
-0.0866205
-0.0791892
-0.0646156
-0.0509666
-0.0691845
-0.0800651
-0.064312
-0.0457347
-0.0468793
-0.0276392
-0.0157727
-0.461341
-0.47906
-0.48693
-0.463108
-0.405656
-0.339758
-0.301173
-0.309022
-0.33497
-0.33101
-0.276964
-0.200555
-0.147441
-0.115549
-0.104012
-0.118801
-0.126322
-0.119259
-0.104966
-0.0855517
-0.0790703
-0.0654963
-0.0524674
-0.0704557
-0.0812244
-0.0647368
-0.0457515
-0.0467894
-0.0278846
-0.0157685
-0.439102
-0.450484
-0.454102
-0.431118
-0.38054
-0.325025
-0.298851
-0.319198
-0.353472
-0.347819
-0.288903
-0.20751
-0.149741
-0.114244
-0.100405
-0.111935
-0.116963
-0.111632
-0.100722
-0.0844033
-0.078902
-0.0664713
-0.054066
-0.0717174
-0.0823356
-0.065126
-0.0457317
-0.0467261
-0.0281965
-0.015766
-0.417116
-0.421643
-0.420444
-0.397778
-0.353735
-0.308404
-0.294686
-0.327597
-0.369729
-0.362707
-0.299392
-0.213625
-0.151716
-0.112879
-0.0969081
-0.105223
-0.107875
-0.104018
-0.0963522
-0.0831753
-0.0786875
-0.0675386
-0.0557553
-0.0729622
-0.0833896
-0.0654774
-0.0456753
-0.0466913
-0.0285726
-0.0157659
-0.395957
-0.39326
-0.386842
-0.363883
-0.325716
-0.290284
-0.288738
-0.333942
-0.383358
-0.375509
-0.308409
-0.218916
-0.153398
-0.111497
-0.0935605
-0.0987555
-0.099165
-0.0964918
-0.0918837
-0.0818687
-0.0784297
-0.0686947
-0.0575262
-0.0741829
-0.084378
-0.0657891
-0.0455822
-0.046686
-0.0290102
-0.0157683
-0.376124
-0.366061
-0.354188
-0.330341
-0.29719
-0.271051
-0.281143
-0.337992
-0.394099
-0.386096
-0.315954
-0.22341
-0.154821
-0.110136
-0.0903931
-0.0926088
-0.0909227
-0.0891343
-0.0873492
-0.0804852
-0.0781311
-0.0699348
-0.0593677
-0.0753728
-0.0852926
-0.0660589
-0.0454521
-0.0467109
-0.0295063
-0.0157737
-0.358024
-0.340671
-0.323309
-0.29805
-0.268961
-0.251194
-0.272087
-0.339578
-0.401804
-0.394384
-0.322041
-0.22714
-0.156015
-0.108832
-0.0874285
-0.0868483
-0.0832213
-0.0820573
-0.0827868
-0.0790276
-0.0777934
-0.0712535
-0.0612669
-0.0765258
-0.0861264
-0.0662848
-0.0452848
-0.0467658
-0.0300571
-0.0157822
-0.341935
-0.317577
-0.294885
-0.267808
-0.241833
-0.231339
-0.261811
-0.338632
-0.406424
-0.40034
-0.326703
-0.230145
-0.157009
-0.107614
-0.084682
-0.0815239
-0.0761143
-0.0752661
-0.0782407
-0.0775001
-0.0774174
-0.0726444
-0.0632099
-0.0776364
-0.0868726
-0.0664648
-0.04508
-0.04685
-0.0306586
-0.0157939
-0.328023
-0.297103
-0.269407
-0.240223
-0.216768
-0.211919
-0.250594
-0.335199
-0.408006
-0.403986
-0.329986
-0.23247
-0.157828
-0.106507
-0.0821631
-0.0766685
-0.069638
-0.0688814
-0.0737607
-0.0759076
-0.0770028
-0.0741005
-0.0651817
-0.0786991
-0.0875255
-0.0665966
-0.0448374
-0.0469619
-0.0313057
-0.0158087
-0.316362
-0.279427
-0.247174
-0.215641
-0.194138
-0.193671
-0.238724
-0.329443
-0.406688
-0.405389
-0.331948
-0.234159
-0.158494
-0.10553
-0.0798759
-0.0722977
-0.0638121
-0.0629752
-0.0693993
-0.0742567
-0.0765479
-0.0756142
-0.0671664
-0.0797087
-0.08808
-0.0666781
-0.0445568
-0.0470994
-0.0319926
-0.0158263
-0.30696
-0.264638
-0.228248
-0.194379
-0.174406
-0.176963
-0.226492
-0.321625
-0.402681
-0.404662
-0.332653
-0.235258
-0.159026
-0.104699
-0.0778207
-0.0684113
-0.0586391
-0.0576044
-0.0652109
-0.0725549
-0.0760498
-0.0771778
-0.0691483
-0.0806599
-0.0885319
-0.0667066
-0.0442382
-0.0472598
-0.0327127
-0.0158463
-0.299824
-0.252667
-0.212052
-0.176854
-0.157483
-0.162015
-0.214185
-0.312077
-0.396253
-0.401959
-0.332173
-0.235817
-0.159443
-0.104028
-0.0759964
-0.0649959
-0.0541066
-0.0528104
-0.0612498
-0.0708106
-0.0755042
-0.078783
-0.0711111
-0.0815476
-0.088878
-0.0666799
-0.0438813
-0.0474397
-0.0334584
-0.015868
-0.294965
-0.243189
-0.199285
-0.162587
-0.143649
-0.148972
-0.20207
-0.301168
-0.387731
-0.397479
-0.330588
-0.23589
-0.159771
-0.103533
-0.0744012
-0.062027
-0.0501877
-0.0486161
-0.0575666
-0.0690336
-0.0749053
-0.0804214
-0.073039
-0.082367
-0.0891155
-0.0665949
-0.0434863
-0.047635
-0.0342212
-0.0158906
-0.291613
-0.236589
-0.196927
-0.151559
-0.132647
-0.137887
-0.19039
-0.289282
-0.37749
-0.391425
-0.327985
-0.235526
-0.160017
-0.103208
-0.073023
-0.0594648
-0.0468383
-0.0450251
-0.0542056
-0.0672342
-0.074246
-0.0820843
-0.0749163
-0.0831128
-0.0892433
-0.0664485
-0.043053
-0.0478397
-0.0349919
-0.0159128
-0.289602
-0.232274
-0.186765
-0.143187
-0.124183
-0.128741
-0.179347
-0.276801
-0.365872
-0.383993
-0.324437
-0.234729
-0.160134
-0.103002
-0.0718266
-0.0572521
-0.0439951
-0.0420158
-0.0511998
-0.0654225
-0.0735178
-0.0837629
-0.0767285
-0.0837801
-0.0892628
-0.0662367
-0.0425819
-0.0480458
-0.0357603
-0.0159334
-0.28891
-0.230358
-0.180796
-0.13734
-0.118013
-0.121458
-0.169105
-0.264065
-0.353196
-0.37541
-0.320011
-0.233471
-0.160066
-0.102866
-0.0707846
-0.0553466
-0.0415955
-0.0395452
-0.0485638
-0.0636077
-0.0727104
-0.0854478
-0.0784636
-0.0843666
-0.0891755
-0.0659583
-0.0420737
-0.0482502
-0.0365156
-0.0159506
-0.28919
-0.230616
-0.178293
-0.133877
-0.113915
-0.115927
-0.159793
-0.251377
-0.339793
-0.365929
-0.314897
-0.231959
-0.160044
-0.102994
-0.0699984
-0.0537984
-0.0396254
-0.0376002
-0.0462988
-0.0617943
-0.0718123
-0.0871282
-0.0801072
-0.0848666
-0.0889693
-0.0656172
-0.0415285
-0.0484656
-0.0372496
-0.0159626
-0.289879
-0.232409
-0.177984
-0.132626
-0.111738
-0.111991
-0.151447
-0.238949
-0.326159
-0.355536
-0.309418
-0.230806
-0.160675
-0.103839
-0.0697036
-0.0527146
-0.0380915
-0.0362389
-0.0444758
-0.0599922
-0.0708095
-0.0887914
-0.0816117
-0.0852425
-0.0886105
-0.0652174
-0.0409457
-0.0487077
-0.03796
-0.0159683
-0.290901
-0.235672
-0.180005
-0.133521
-0.111571
-0.109646
-0.143939
-0.226377
-0.312318
-0.343684
-0.303219
-0.229692
-0.161524
-0.104966
-0.0696404
-0.0518205
-0.0367505
-0.0353238
-0.0432383
-0.05826
-0.0696858
-0.0904356
-0.0829122
-0.0854571
-0.0881264
-0.0647392
-0.0403253
-0.0489205
-0.0386272
-0.0159677
-0.291908
-0.23932
-0.184243
-0.138388
-0.113081
-0.109483
-0.138741
-0.215211
-0.294619
-0.331413
-0.29434
-0.224954
-0.158966
-0.103497
-0.0681946
-0.050038
-0.0348996
-0.0339892
-0.0417993
-0.0563831
-0.0684378
-0.0920111
-0.0844073
-0.0857947
-0.0878093
-0.064115
-0.0396683
-0.048897
-0.039142
-0.0159466
-0.277397
-0.234078
-0.180765
-0.135835
-0.113023
-0.109679
-0.136793
-0.211731
-0.302688
-0.321693
-0.28245
-0.214816
-0.151524
-0.0981955
-0.0644663
-0.0468322
-0.0320631
-0.0307647
-0.0361479
-0.0516563
-0.065721
-0.0946117
-0.088466
-0.0870934
-0.0880333
-0.0632482
-0.0388333
-0.0484125
-0.0395466
-0.015848
-0.264702
-0.226036
-0.177007
-0.136351
-0.116597
-0.114283
-0.139193
-0.206588
-0.283871
-0.300851
-0.263098
-0.200597
-0.142218
-0.09274
-0.0609964
-0.0436693
-0.029713
-0.0290098
-0.035939
-0.0494392
-0.0641064
-0.0961741
-0.0920796
-0.086709
-0.0868431
-0.0616851
-0.0376
-0.047766
-0.0408633
-0.015836
-0.252678
-0.218138
-0.174056
-0.137938
-0.120989
-0.120001
-0.142635
-0.200554
-0.264874
-0.278337
-0.243393
-0.186705
-0.133289
-0.0873524
-0.0574787
-0.0406467
-0.0274246
-0.027452
-0.035394
-0.0483583
-0.0633313
-0.0969635
-0.0950688
-0.0858313
-0.0851179
-0.059868
-0.0362116
-0.0470328
-0.0423109
-0.0157931
-0.241026
-0.21043
-0.171314
-0.13977
-0.125161
-0.124992
-0.14467
-0.192802
-0.244987
-0.25505
-0.223437
-0.172733
-0.124277
-0.0818583
-0.0539192
-0.0376964
-0.0251173
-0.0259186
-0.034471
-0.046993
-0.0624286
-0.09746
-0.0979441
-0.0847585
-0.0828791
-0.0577106
-0.0346315
-0.0462017
-0.0436766
-0.0156794
-0.228704
-0.202336
-0.168188
-0.141
-0.128329
-0.128474
-0.144766
-0.18328
-0.224467
-0.231649
-0.203746
-0.159007
-0.115375
-0.0763173
-0.0503087
-0.0347684
-0.0227242
-0.0243134
-0.0333649
-0.0451374
-0.0611037
-0.0977106
-0.10056
-0.0832969
-0.0800281
-0.0551741
-0.0328387
-0.0452343
-0.0449407
-0.0154992
-0.215429
-0.193662
-0.16433
-0.141095
-0.130023
-0.130103
-0.14297
-0.172594
-0.204211
-0.209056
-0.184861
-0.145729
-0.106644
-0.0707628
-0.0466391
-0.0318177
-0.0201846
-0.0225219
-0.0320363
-0.0428617
-0.0593449
-0.0974232
-0.102604
-0.0813609
-0.0765101
-0.0522149
-0.0308057
-0.0440897
-0.0460763
-0.0152449
-0.20162
-0.184405
-0.159606
-0.139858
-0.130128
-0.129909
-0.139588
-0.161577
-0.185059
-0.187951
-0.167126
-0.133047
-0.0981542
-0.0652389
-0.0429055
-0.0287976
-0.0174338
-0.0204161
-0.0303627
-0.0401228
-0.0570363
-0.0962357
-0.103806
-0.0788827
-0.0722836
-0.0487901
-0.0285033
-0.0427158
-0.0470174
-0.0148914
-0.187652
-0.174628
-0.154023
-0.137328
-0.128749
-0.128129
-0.135002
-0.1507
-0.16751
-0.168682
-0.150718
-0.121051
-0.0899498
-0.0597784
-0.0391044
-0.0256602
-0.014406
-0.0178393
-0.0281762
-0.0367277
-0.0538852
-0.0938665
-0.103882
-0.0757842
-0.0673236
-0.0448603
-0.0259003
-0.0410446
-0.0476706
-0.0144068
-0.173767
-0.164447
-0.147656
-0.133641
-0.126074
-0.125045
-0.129559
-0.140269
-0.151712
-0.15133
-0.135683
-0.109786
-0.0820615
-0.0544096
-0.0352375
-0.0223598
-0.0110394
-0.0145985
-0.0252136
-0.0323657
-0.0495137
-0.0900811
-0.102512
-0.071986
-0.0616297
-0.0403937
-0.0229648
-0.0389899
-0.0479227
-0.0137576
-0.160181
-0.154002
-0.140612
-0.128962
-0.12231
-0.12092
-0.123575
-0.130391
-0.137576
-0.135807
-0.121979
-0.099262
-0.07451
-0.0491559
-0.0313125
-0.0188593
-0.00728251
-0.0104715
-0.020967
-0.026631
-0.0435329
-0.0846553
-0.0993792
-0.0674187
-0.055233
-0.0353717
-0.0196652
-0.0364473
-0.047642
-0.0129089
-0.14703
-0.143426
-0.13301
-0.123453
-0.117646
-0.115976
-0.11719
-0.121046
-0.124913
-0.121947
-0.109525
-0.0894698
-0.0673099
-0.0440381
-0.0273435
-0.0151382
-0.00310532
-0.00524264
-0.0149266
-0.0190523
-0.0355779
-0.0774224
-0.0942063
-0.0620323
-0.0482011
-0.0297952
-0.0159722
-0.0332953
-0.0466778
-0.0118257
-0.134384
-0.13284
-0.124981
-0.11727
-0.112254
-0.110395
-0.110523
-0.112176
-0.113511
-0.10956
-0.0982189
-0.0803864
-0.0604716
-0.0390766
-0.0233512
-0.0112013
0.00148177
0.00124105
-0.00664397
-0.00916127
-0.0253962
-0.0683452
-0.0868953
-0.0558091
-0.0406405
-0.0236923
-0.0118632
-0.0293993
-0.0448639
-0.0104765
-0.122292
-0.122357
-0.116655
-0.110563
-0.106294
-0.104324
-0.103669
-0.103721
-0.103176
-0.0984582
-0.0879593
-0.0719824
-0.0540026
-0.0342917
-0.0193624
-0.00708579
0.00640524
0.00897679
0.00435041
0.00335068
-0.0130235
-0.0575686
-0.0774552
-0.0487755
-0.0326943
-0.0171269
-0.00732678
-0.0246232
-0.0420261
-0.00883845
-0.11079
-0.112077
-0.108167
-0.103479
-0.0999113
-0.0979326
-0.0967155
-0.0956396
-0.0937421
-0.0884738
-0.0786476
-0.0642252
-0.0479081
-0.0297023
-0.0154118
-0.00287031
0.0115152
0.0176521
0.0179633
0.0183127
0.000989374
-0.0454481
-0.0660835
-0.0410121
-0.024532
-0.0102027
-0.00237001
-0.0188473
-0.0379966
-0.00690532
-0.099905
-0.102088
-0.0996403
-0.0961566
-0.0932417
-0.0913274
-0.0897445
-0.0879073
-0.0850793
-0.0794588
-0.0701929
-0.0570808
-0.042192
-0.0253266
-0.0115438
0.00131812
0.0165864
0.0265573
0.0327915
0.0345081
0.015398
-0.0324467
-0.0531279
-0.0326619
-0.0163334
-0.00306344
0.0029755
-0.0119941
-0.0326368
-0.00469635
-0.0896542
-0.0924657
-0.0911933
-0.0887286
-0.0864118
-0.0846238
-0.0828303
-0.080513
-0.0770854
-0.0712876
-0.062513
-0.0505144
-0.0368566
-0.0211857
-0.00781547
0.00531751
0.0213323
0.0347338
0.0462285
0.0494612
0.0285279
-0.0189661
-0.0390872
-0.0239301
-0.00828209
0.00411448
0.00864642
-0.00406393
-0.0258727
-0.00226624
-0.080052
-0.0832744
-0.0829289
-0.0813163
-0.0795387
-0.0779235
-0.0760414
-0.0734569
-0.0696841
-0.0638553
-0.0555342
-0.0444927
-0.0319025
-0.0173058
-0.00429732
0.00896818
0.0254529
0.0413233
0.0562619
0.0606882
0.0391054
-0.00543205
-0.0246969
-0.015082
-0.000566683
0.0111342
0.0145315
0.00482435
-0.0177443
0.00028817
-0.0711061
-0.0745665
-0.0749379
-0.0740286
-0.0727274
-0.0713165
-0.0694397
-0.0667462
-0.06282
-0.0570771
-0.0491919
-0.0389848
-0.0273297
-0.013717
-0.00106997
0.0121413
0.0287032
0.0457751
0.0616662
0.0670767
0.0467667
0.00738983
-0.0109226
-0.00642613
0.00663477
0.0177911
0.0204449
0.0143924
-0.00846471
0.00283136
-0.062819
-0.0663838
-0.0672975
-0.0669613
-0.0660724
-0.0648842
-0.0630815
-0.0603932
-0.056455
-0.0508858
-0.0434304
-0.0339642
-0.0231395
-0.0104459
0.00179192
0.0147609
0.0309414
0.0480064
0.0631494
0.0691632
0.05172
0.0185133
0.00134788
0.00174935
0.0131769
0.0238841
0.0261285
0.0241455
0.00151776
0.00521211
-0.0551898
-0.0587585
-0.0600714
-0.0601979
-0.0596857
-0.0587029
-0.0570178
-0.0544132
-0.0505638
-0.0452308
-0.0382038
-0.0294078
-0.0193339
-0.00751103
0.00424174
0.0168096
0.0321743
0.0483987
0.0620871
0.0682122
0.0543228
0.0272672
0.011594
0.00923711
0.0189713
0.0292354
0.031305
0.0333244
0.0115042
0.00730135
-0.0482144
-0.0517144
-0.0533108
-0.053802
-0.0535993
-0.0528301
-0.0512928
-0.0488237
-0.045132
-0.0400756
-0.0334753
-0.0252963
-0.0159125
-0.0049192
0.0062686
0.0183103
0.0325518
0.0474907
0.0596099
0.0654379
0.0550805
0.0335884
0.0197406
0.0159065
0.023996
0.0337258
0.0357266
0.0410083
0.0206657
0.00900196
-0.0418876
-0.0452695
-0.0470584
-0.0478331
-0.0478903
-0.047321
-0.0459472
-0.0436443
-0.0401534
-0.0353961
-0.0292173
-0.0216124
-0.0128707
-0.0026664
0.0078944
0.0193138
0.0322881
0.0457885
0.0564689
0.0617945
0.0545634
0.0378544
0.0260162
0.0216805
0.0282656
0.0373065
0.039241
0.0463941
0.0282577
0.0103019
-0.0362042
-0.0394379
-0.0413494
-0.0423409
-0.0426137
-0.0422258
-0.0410189
-0.0388963
-0.035629
-0.031178
-0.0254098
-0.0183404
-0.010199
-0.000739446
0.00916139
0.019893
0.0316037
0.0436756
0.0531258
0.0579326
0.0532556
0.0405513
0.0307425
0.0265357
0.0318113
0.0399839
0.0417908
0.0490845
0.0337489
0.0113724
-0.0311613
-0.0342322
-0.036214
-0.0373682
-0.0378176
-0.0375899
-0.0365445
-0.0346033
-0.0315659
-0.0274161
-0.02204
-0.0154673
-0.00788386
0.000881518
0.0101221
0.0201357
0.030686
0.0414269
0.0498577
0.0542421
0.0515268
0.0421209
0.0342282
0.0304972
0.0346775