/*--------------------------------*- C++ -*----------------------------------*\
  =========                 |
  \\      /  F ield         | OpenFOAM: The Open Source CFD Toolbox
   \\    /   O peration     | Website:  https://openfoam.org
    \\  /    A nd           | Version:  7
     \\/     M anipulation  |
\*---------------------------------------------------------------------------*/
FoamFile
{
    version     2.0;
    format      ascii;
    class       surfaceScalarField;
    location    "350";
    object      phi;
}
// * * * * * * * * * * * * * * * * * * * * * * * * * * * * * * * * * * * * * //

dimensions      [0 3 -1 0 0 0 0];

internalField   nonuniform List<scalar> 
16735
(
-7.16906e-05
-0.00237923
0.00245092
-0.000295462
-0.00577082
0.00599459
-0.000674023
-0.00819993
0.00857849
-0.00119079
-0.00979506
0.0103118
-0.00181925
-0.0108075
0.0114359
-0.00253243
-0.0115132
0.0122264
-0.00330822
-0.0121084
0.0128842
-0.00413104
-0.0126472
0.01347
-0.00499032
-0.0130271
0.0138864
-0.0129638
0.0138578
-0.00588439
-9.97898e-05
-0.00227944
-0.000381597
-0.00548901
-0.000832781
-0.00774874
-0.00142816
-0.00919968
-0.00213937
-0.0100963
-0.00294294
-0.0107096
-0.00382401
-0.0112274
-0.00477706
-0.0116941
-0.00580322
-0.0120009
-0.0118569
-0.00691006
-0.000125661
-0.00215378
-0.000459342
-0.00515533
-0.000973179
-0.00723491
-0.00163332
-0.00853954
-0.00240866
-0.00932093
-0.00327725
-0.00984101
-0.00422836
-0.0102762
-0.00526244
-0.0106601
-0.00638845
-0.0108749
-0.0106267
-0.00761863
-0.000148868
-0.00200491
-0.000527716
-0.00477648
-0.001094
-0.00666862
-0.00180521
-0.00782833
-0.0026265
-0.00849964
-0.00353515
-0.00893236
-0.00452081
-0.00929059
-0.00558504
-0.00959582
-0.00673963
-0.00972034
-0.00936919
-0.00799717
-0.000169127
-0.00183578
-0.000586179
-0.00435943
-0.00119485
-0.00605995
-0.00194412
-0.00707905
-0.00279447
-0.0076493
-0.0037201
-0.00800673
-0.00470709
-0.0083036
-0.00575263
-0.00855029
-0.00686544
-0.00860753
-0.00818033
-0.00805431
-0.000186261
-0.00164952
-0.00063448
-0.00391121
-0.00127581
-0.00541862
-0.00205114
-0.00630372
-0.00291551
-0.00678493
-0.00383805
-0.0070842
-0.00479761
-0.00734404
-0.00578126
-0.00756664
-0.00678796
-0.00760083
-0.00715109
-0.00781719
-0.00020015
-0.00144937
-0.000672483
-0.00343888
-0.00133713
-0.00475397
-0.00212749
-0.00551337
-0.00299282
-0.00591959
-0.0038957
-0.00618132
-0.00480481
-0.00643493
-0.00569178
-0.00667967
-0.00653851
-0.00675411
-0.00636249
-0.00732711
-0.000210669
-0.0012387
-0.000699986
-0.00294956
-0.00137878
-0.00407518
-0.00217377
-0.00471838
-0.00302848
-0.00506488
-0.00389821
-0.00531158
-0.00473959
-0.00559355
-0.00550445
-0.00591481
-0.00615048
-0.00610807
-0.00588216
-0.00663081
-0.000217647
-0.00102106
-0.000716573
-0.00245064
-0.00140013
-0.00339162
-0.00218932
-0.00392918
-0.00302223
-0.00423197
-0.00384681
-0.004487
-0.00460701
-0.00483335
-0.00523211
-0.00528971
-0.00564945
-0.00569074
-0.00576356
-0.00576806
-0.000220846
-0.00080021
-0.000721547
-0.00194993
-0.00139981
-0.00271336
-0.00217181
-0.00315718
-0.00297053
-0.00343326
-0.00373683
-0.00372069
-0.00440249
-0.00416769
-0.00487332
-0.00481888
-0.00504214
-0.00552192
-0.00604729
-0.0047584
-0.000219973
-0.000580237
-0.000713963
-0.00145594
-0.00137572
-0.0020516
-0.00211723
-0.00241567
-0.00286634
-0.00268415
-0.00355689
-0.00303014
-0.00410946
-0.00361512
-0.00440733
-0.00452102
-0.00430712
-0.00562212
-0.00676325
-0.00359117
-0.000214736
-0.000365501
-0.000692785
-0.000977896
-0.00132537
-0.00141902
-0.0020204
-0.00172064
-0.00269988
-0.00200467
-0.00328978
-0.00244023
-0.00369994
-0.00320496
-0.00379318
-0.00442777
-0.00339045
-0.00602485
-0.00792731
-0.00222638
-0.000204925
-0.000160576
-0.000657136
-0.000525685
-0.00124634
-0.000829813
-0.00187594
-0.00109105
-0.00246044
-0.00142017
-0.00291561
-0.00198506
-0.00313927
-0.0029813
-0.0029751
-0.00459193
-0.00220362
-0.00679634
-0.00950018
-0.00063075
-0.000190518
2.99414e-05
-0.000606603
-0.0001096
-0.00113703
-0.000299389
-0.00167961
-0.000548462
-0.00213891
-0.000960871
-0.00241676
-0.00170722
-0.00239597
-0.00300209
-0.00190177
-0.00508613
-0.000605761
-0.00809235
-0.0115908
0.00148486
-0.00017176
0.000201701
-0.000541493
0.000260133
-0.000997152
0.00015627
-0.00142951
-0.000116102
-0.00173018
-0.000660207
-0.00178267
-0.00165472
-0.00145066
-0.0033341
-0.000564025
-0.00597277
0.0012932
-0.00994958
-0.0143557
0.00405809
-0.000149178
0.00035088
-0.000462993
0.000573948
-0.000828177
0.000521453
-0.00112684
0.000182561
-0.00123454
-0.000552505
-0.00101248
-0.00187678
-0.000297277
-0.00404931
0.00109476
-0.00736481
0.00355708
-0.0124119
-0.0177824
0.00698381
-0.000123623
0.000474503
-0.00037316
0.000823484
-0.000633319
0.000781613
-0.000775897
0.000325139
-0.000657857
-0.000670545
-0.000115711
-0.00241893
0.00104176
-0.00520678
0.00301793
-0.00934097
0.00616051
-0.0155545
-0.0217723
0.0101504
-9.61405e-05
0.000570643
-0.000274683
0.00100203
-0.000417094
0.000924024
-0.000383367
0.000291412
-1.12057e-05
-0.00104271
0.000892549
-0.00332268
0.00254149
-0.00685573
0.0051443
-0.0119438
0.00896548
-0.0193757
-0.0261936
0.0133868
-6.78399e-05
0.000638483
-0.000170499
0.00110469
-0.000184585
0.000938109
4.29069e-05
6.39209e-05
0.000697296
-0.0016971
0.00199311
-0.0046185
0.00416609
-0.0090287
0.00742703
-0.0152047
0.0118347
-0.0237833
-0.0308776
0.0165187
-3.97285e-05
0.000678212
-6.33132e-05
0.00112827
5.94849e-05
0.000815311
0.000496739
-0.000373333
0.00145355
-0.00265391
0.00316781
-0.00633276
0.00587997
-0.0117409
0.00978887
-0.0191136
0.0146613
-0.0286558
-0.0356847
0.0194684
-1.2557e-05
0.000690769
4.47468e-05
0.00107097
0.000311603
0.000548455
0.000971576
-0.00103331
0.00225013
-0.00393246
0.00440007
-0.00848271
0.0076448
-0.0149856
0.0121086
-0.0235774
0.017321
-0.0338682
-0.0430521
0.0246885
1.3366e-05
0.000677403
0.000152761
0.000931572
0.000569929
0.000131287
0.00146515
-0.00192853
0.00308137
-0.00554867
0.00567404
-0.0110754
0.00942029
-0.0187318
0.0143046
-0.0284617
0.0198452
-0.0394088
-0.0497695
0.0265626
3.81312e-05
0.000639271
0.000261051
0.000708652
0.000834937
-0.000442598
0.00197738
-0.00307098
0.00394347
-0.00751476
0.00697174
-0.0141036
0.0111562
-0.0229163
0.0163036
-0.0336091
0.0219012
-0.0450064
-0.0557551
0.0278868
6.23247e-05
0.000576947
0.000370977
0.0004
0.00110881
-0.00118043
0.00250985
-0.00447202
0.00483201
-0.00983692
0.00826943
-0.0175411
0.0127931
-0.02744
0.0180343
-0.0388503
0.0234245
-0.0503966
-0.0610606
0.0287299
8.68378e-05
0.000490109
0.000484794
2.04369e-06
0.00139474
-0.00209038
0.00306408
-0.00614136
0.0057386
-0.0125114
0.00953428
-0.0213367
0.0142683
-0.032174
0.0194276
-0.0440095
0.0244452
-0.0554142
-0.0656843
0.0290689
0.000112722
0.000377387
0.00060506
-0.000490295
0.00169579
-0.0031811
0.00363938
-0.00808495
0.00664807
-0.0155201
0.0107246
-0.0254132
0.0155239
-0.0369734
0.0204471
-0.0489327
0.0249877
-0.0599548
-0.0696557
0.0289591
0.000141014
0.000236373
0.00073401
-0.00108329
0.00201365
-0.00446074
0.00423086
-0.0103022
0.0075373
-0.0188266
0.0117943
-0.0296703
0.0165152
-0.0416943
0.0210851
-0.0535026
0.0251037
-0.0639734
-0.0730348
0.0284827
0.000172529
6.38443e-05
0.000873073
-0.00178383
0.00234764
-0.00593531
0.00482828
-0.0127828
0.00837651
-0.0223748
0.0127005
-0.0339943
0.0172173
-0.0462111
0.0213597
-0.0576449
0.0248553
-0.067469
-0.075891
0.0277115
0.000207753
-0.000143908
0.00102246
-0.00259855
0.00269407
-0.00760691
0.00541604
-0.0155048
0.00913306
-0.0260918
0.0134099
-0.0382711
0.0176258
-0.0504269
0.0213062
-0.0613253
0.0243066
-0.0704694
-0.0782986
0.0267141
0.000246791
-0.000390699
0.00118104
-0.00353279
0.00304619
-0.00947206
0.00597449
-0.0184331
0.00977621
-0.0298935
0.0139033
-0.0423982
0.0177537
-0.0542773
0.0209691
-0.0645407
0.0235185
-0.0730188
-0.0803261
0.0255461
0.00028937
-0.000680069
0.00134634
-0.00458976
0.00339462
-0.0115204
0.00648226
-0.0215207
0.0102815
-0.0336928
0.0141757
-0.0462924
0.0176263
-0.0577278
0.0203957
-0.0673102
0.0225448
-0.075168
-0.0820338
0.0242525
0.000334892
-0.00101496
0.00151478
-0.00576965
0.00372815
-0.0137337
0.00691899
-0.0247116
0.0106336
-0.0374074
0.0142348
-0.0498936
0.0172755
-0.0607685
0.0196311
-0.0696658
0.0214306
-0.0769675
-0.0834713
0.022868
0.000382499
-0.00139746
0.00168198
-0.00706913
0.0040348
-0.0160865
0.00726774
-0.0279445
0.0108265
-0.0409662
0.0140968
-0.0531639
0.0167357
-0.0634075
0.0187161
-0.0716462
0.0202125
-0.0784638
-0.0846777
0.0214189
0.000431145
-0.00182861
0.00184298
-0.00848097
0.00430302
-0.0185466
0.00751661
-0.0311581
0.0108629
-0.0443125
0.0137836
-0.0560845
0.0160407
-0.0656646
0.0176858
-0.0732912
0.0189193
-0.0796974
-0.0856829
0.0199246
0.00047965
-0.00230825
0.00199268
-0.00999399
0.00452269
-0.0210766
0.00765938
-0.0342948
0.0107519
-0.047405
0.0133194
-0.058652
0.0152214
-0.0675666
0.0165693
-0.0746391
0.0175735
-0.0807016
-0.086509
0.0183996
0.000526754
-0.00283501
0.00212604
-0.0115933
0.00468593
-0.0236365
0.00769524
-0.0373041
0.0105071
-0.0502169
0.0127287
-0.0608736
0.0143053
-0.0691433
0.0153903
-0.0757241
0.016192
-0.0815033
-0.0871716
0.0168545
0.000571168
-0.00340618
0.0022385
-0.0132606
0.00478758
-0.0261856
0.00762789
-0.0401444
0.0101444
-0.0527334
0.0120348
-0.062764
0.013316
-0.0704245
0.0141677
-0.0765758
0.0147875
-0.0821231
-0.0876814
0.0152973
0.000611625
-0.0040178
0.00232617
-0.0149752
0.00482531
-0.0286847
0.0074644
-0.0427835
0.00968075
-0.0549497
0.0112589
-0.0643421
0.012273
-0.0714385
0.0129163
-0.0772191
0.0133698
-0.0825766
-0.0880457
0.0137341
0.000646927
-0.00466473
0.00238607
-0.0167143
0.00479942
-0.031098
0.00721409
-0.0451982
0.00913288
-0.0568685
0.0104199
-0.0656292
0.0111925
-0.0722112
0.0116475
-0.0776741
0.0119462
-0.0828754
-0.0882693
0.0121699
0.000675998
-0.00534073
0.00241626
-0.0184546
0.00471242
-0.0333942
0.00688748
-0.0473732
0.00851656
-0.0584976
0.00953382
-0.0666464
0.0100876
-0.072765
0.0103702
-0.0779567
0.0105223
-0.0830275
-0.0883556
0.0106086
0.000697924
-0.00603865
0.00241586
-0.0201725
0.00456855
-0.0355469
0.00649555
-0.0493002
0.0078462
-0.0598483
0.00861441
-0.0674146
0.00896869
-0.0731192
0.00909127
-0.0780792
0.00910253
-0.0830388
-0.0883066
0.00905355
0.000711986
-0.00675064
0.002385
-0.0218455
0.00437316
-0.0375351
0.0060491
-0.0509762
0.00713462
-0.0609338
0.00767306
-0.0679531
0.00784402
-0.0732902
0.00781602
-0.0780512
0.00769033
-0.0829131
-0.0881231
0.00750681
0.000717678
-0.00746832
0.00232469
-0.0234525
0.00413232
-0.0393427
0.00555837
-0.0524022
0.00639304
-0.0617685
0.00671917
-0.0682792
0.00672009
-0.0732911
0.00654855
-0.0778797
0.00628854
-0.0826531
-0.0878049
0.00597033
0.000714714
-0.00818303
0.00223667
-0.0249745
0.00385232
-0.0409583
0.00503283
-0.0535827
0.0056311
-0.0623667
0.00576044
-0.0684085
0.00560207
-0.0731328
0.005292
-0.0775696
0.00489938
-0.0822604
-0.0873512
0.00444571
0.000703021
-0.00888605
0.00212321
-0.0263947
0.00353946
-0.0423746
0.00448098
-0.0545243
0.00485699
-0.0627427
0.0048032
-0.0683547
0.00449431
-0.0728239
0.00404924
-0.0771245
0.00352415
-0.0817354
-0.0867615
0.00293443
0.000682731
-0.00956878
0.00198691
-0.0276989
0.00319975
-0.0435874
0.00391039
-0.0552349
0.00407759
-0.0629099
0.0038526
-0.0681297
0.00340063
-0.0723719
0.00282389
-0.0765478
0.00216328
-0.0810747
-0.086033
0.0014348
0.00065418
-0.010223
0.00183073
-0.0288754
0.00283887
-0.0445955
0.00332762
-0.0557236
0.0032986
-0.0628809
0.0029127
-0.0677438
0.0023239
-0.0717831
0.00161971
-0.0758436
0.000825364
-0.0802804
-0.0851146
-9.30268e-05
0.000617885
-0.0108408
0.00165779
-0.0299153
0.00246203
-0.0453998
0.00273839
-0.056
0.00252474
-0.0626673
0.00198673
-0.0672058
0.00126589
-0.0710623
0.000432567
-0.0750103
-0.000479221
-0.0793686
-0.0841038
-0.00149
0.00057449
-0.0114153
0.00147098
-0.0308118
0.00207398
-0.0460028
0.00214759
-0.0560736
0.00175987
-0.0622795
0.00107732
-0.0665233
0.000225718
-0.0702107
-0.00072685
-0.0740577
-0.00177663
-0.0783188
-0.0829782
-0.00290223
0.000524751
-0.0119401
0.00127312
-0.0315602
0.00167898
-0.0464086
0.00155932
-0.055954
0.00100705
-0.0617273
0.000185441
-0.0657017
-0.000785437
-0.0692398
-0.00186143
-0.0729817
-0.00303867
-0.0771416
-0.0817223
-0.00429465
0.000469514
-0.0124096
0.00106694
-0.0321576
0.0012808
-0.0466225
0.000976977
-0.0556501
0.000269264
-0.0610196
-0.000682102
-0.0647503
-0.00177441
-0.0681475
-0.00297207
-0.0717841
-0.00427285
-0.0758408
-0.0803357
-0.00565939
0.000409673
-0.0128193
0.000855178
-0.0326031
0.000882618
-0.0466499
0.000404239
-0.0551718
-0.000451351
-0.060164
-0.00152891
-0.0636728
-0.00273941
-0.066937
-0.00405561
-0.0704679
-0.00547896
-0.0744175
-0.0788206
-0.00699407
0.000346054
-0.0131653
0.00064052
-0.0328976
0.000487724
-0.0464971
-0.000156075
-0.054528
-0.00115338
-0.0591667
-0.00235332
-0.0624728
-0.00367873
-0.0656116
-0.00511088
-0.0690357
-0.00665539
-0.072873
-0.0771795
-0.0082965
0.000279631
-0.013445
0.000424768
-0.0330427
0.000107001
-0.0461794
-0.000706332
-0.0537146
-0.00183684
-0.0580362
-0.00315411
-0.0611556
-0.00459144
-0.0641742
-0.00613704
-0.0674901
-0.00780066
-0.0712093
-0.0754162
-0.00956401
0.000212437
-0.0136574
0.0002098
-0.0330401
-0.000286662
-0.0456829
-0.001242
-0.0527593
-0.00249982
-0.0567783
-0.00393044
-0.0597249
-0.00547679
-0.0626279
-0.00713335
-0.0658336
-0.00891329
-0.0694294
-0.0735367
-0.0107928
0.000144167
-0.0138016
1.70002e-05
-0.0329129
-0.000665191
-0.0450007
-0.00176354
-0.0516609
-0.00314173
-0.0554001
-0.00468159
-0.0581851
-0.00633412
-0.0609754
-0.00809901
-0.0640687
-0.009992
-0.0675364
-0.0715457
-0.011983
6.97482e-05
-0.0138713
-0.000222456
-0.0326207
-0.00103475
-0.0441884
-0.00226799
-0.0504277
-0.00376176
-0.0539064
-0.00540707
-0.0565398
-0.007163
-0.0592194
-0.00903346
-0.0621982
-0.0110368
-0.0655331
-0.0694404
-0.0131421
-9.74053e-06
-0.0138616
-0.000439534
-0.0321909
-0.00139376
-0.0432342
-0.00275433
-0.0490671
-0.00435892
-0.0523018
-0.00610649
-0.0547922
-0.00796379
-0.0573621
-0.00993768
-0.0602243
-0.0120465
-0.0634243
-0.0672201
-0.0142668
-7.87333e-05
-0.0137828
-0.000647303
-0.0316223
-0.00174049
-0.042141
-0.00322218
-0.0475855
-0.00493258
-0.0505914
-0.00677932
-0.0529454
-0.00873711
-0.0554043
-0.010815
-0.0581465
-0.0130161
-0.0612231
-0.0648994
-0.0153368
-0.000150641
-0.0136322
-0.000848178
-0.0309248
-0.00207406
-0.0409151
-0.00367082
-0.0459887
-0.00548206
-0.0487801
-0.00742461
-0.0510029
-0.00948107
-0.0533479
-0.011664
-0.0559636
-0.0139838
-0.0589032
-0.0626194
-0.0162639
-0.000221614
-0.0134106
-0.00104238
-0.030104
-0.00239389
-0.0395636
-0.00409967
-0.0442829
-0.00600691
-0.0468729
-0.00804134
-0.0489685
-0.0101909
-0.0511983
-0.0124566
-0.0536979
-0.0148031
-0.0565567
-0.0598367
-0.0175858
-0.000290895
-0.0131197
-0.00122946
-0.0291655
-0.00269956
-0.0380935
-0.00450836
-0.0424741
-0.00650694
-0.0448743
-0.00862891
-0.0468465
-0.0108633
-0.0489639
-0.0132066
-0.0513546
-0.015677
-0.0540863
-0.0570718
-0.018442
-0.000358087
-0.0127616
-0.0014089
-0.0281147
-0.00299068
-0.0365117
-0.00489657
-0.0405682
-0.00698184
-0.042789
-0.00918724
-0.0446411
-0.0115046
-0.0466465
-0.0139389
-0.0489204
-0.0165239
-0.0515013
-0.0542818
-0.0193139
-0.000422882
-0.0123387
-0.0015802
-0.0269573
-0.0032669
-0.034825
-0.00526405
-0.0385711
-0.00743123
-0.0406219
-0.00971555
-0.0423568
-0.012112
-0.04425
-0.0146307
-0.0464017
-0.0173019
-0.0488301
-0.0514394
-0.0201442
-0.000485012
-0.0118537
-0.00174292
-0.0256994
-0.00352792
-0.03304
-0.0056106
-0.0364884
-0.00785498
-0.0383775
-0.0102141
-0.0399977
-0.0126863
-0.0417779
-0.0152845
-0.0438034
-0.0180332
-0.0460814
-0.0485337
-0.020939
-0.000544233
-0.0113095
-0.00189673
-0.0243469
-0.0037735
-0.0311633
-0.00593606
-0.0343258
-0.00825293
-0.0360606
-0.0106826
-0.037568
-0.0132264
-0.0392341
-0.0158985
-0.0411313
-0.018719
-0.0432609
-0.0455602
-0.0216924
-0.000600331
-0.0107091
-0.00204131
-0.022906
-0.00400341
-0.0292012
-0.00624033
-0.0320889
-0.00862499
-0.0336759
-0.011121
-0.035072
-0.013732
-0.0366231
-0.0164729
-0.0383905
-0.0193614
-0.0403724
-0.0425191
-0.0224025
-0.000653112
-0.010056
-0.00217641
-0.0213827
-0.00421751
-0.0271601
-0.00652331
-0.0297831
-0.0089711
-0.0312282
-0.0115291
-0.032514
-0.0142029
-0.0339492
-0.0170078
-0.0355856
-0.0199605
-0.0374198
-0.0394122
-0.0230673
-0.000702409
-0.00935362
-0.00230183
-0.0197832
-0.00441565
-0.0250462
-0.00678494
-0.0274138
-0.00929118
-0.0287219
-0.0119067
-0.0298985
-0.0146389
-0.031217
-0.0175032
-0.0327213
-0.0205161
-0.0344069
-0.0362429
-0.0236854
-0.000748076
-0.00860555
-0.00241739
-0.0181139
-0.00459773
-0.0228659
-0.00702518
-0.0249864
-0.00958517
-0.0261619
-0.0122537
-0.0272299
-0.0150398
-0.028431
-0.017959
-0.0298021
-0.0210279
-0.031338
-0.0330152
-0.0242556
-0.000789985
-0.00781556
-0.00252295
-0.016381
-0.00476367
-0.0206252
-0.00724399
-0.0225061
-0.00985302
-0.0235529
-0.0125701
-0.0245128
-0.0154053
-0.0255957
-0.0183749
-0.0268325
-0.0214951
-0.0282177
-0.0297336
-0.0247767
-0.000828028
-0.00698753
-0.00261838
-0.0145906
-0.00491342
-0.0183301
-0.00744135
-0.0199781
-0.0100947
-0.0208996
-0.0128557
-0.0217519
-0.0157355
-0.0227159
-0.0187506
-0.0238174
-0.0219175
-0.0250508
-0.0264032
-0.025248
-0.000862112
-0.00612542
-0.00270359
-0.0127491
-0.00504692
-0.0159868
-0.00761723
-0.0174078
-0.0103101
-0.0182067
-0.0131104
-0.0189516
-0.0160301
-0.0197962
-0.0190859
-0.0207616
-0.0222946
-0.0218421
-0.0230289
-0.0256689
-0.000892158
-0.00523326
-0.00277851
-0.0108628
-0.00516414
-0.0136012
-0.00777163
-0.0148003
-0.0104993
-0.015479
-0.0133341
-0.0161168
-0.0162889
-0.0168414
-0.0193807
-0.0176698
-0.0226261
-0.0185967
-0.0196162
-0.0260388
-0.000918099
-0.00431516
-0.00284305
-0.00893783
-0.00526505
-0.0111792
-0.00790454
-0.0121608
-0.0106622
-0.0127213
-0.0135269
-0.0132521
-0.016512
-0.0138563
-0.0196348
-0.014547
-0.0229118
-0.0153197
-0.0161704
-0.0263576
-0.000939881
-0.00337528
-0.00289717
-0.00698054
-0.00534963
-0.00872673
-0.00801596
-0.00949451
-0.0107989
-0.0099384
-0.0136886
-0.0103624
-0.0166992
-0.0108457
-0.0198479
-0.0113983
-0.0231515
-0.0120162
-0.0126969
-0.0266249
-0.000957458
-0.00241782
-0.00294083
-0.00499718
-0.00541786
-0.00624969
-0.00810588
-0.00680649
-0.0109092
-0.00713508
-0.0138193
-0.00745229
-0.0168504
-0.00781451
-0.0200202
-0.00822858
-0.023345
-0.00869133
-0.00920129
-0.0268407
-0.000970797
-0.00144703
-0.00297399
-0.00299398
-0.00546974
-0.00375394
-0.00817432
-0.00410191
-0.0109932
-0.00431618
-0.0139188
-0.00452671
-0.0169657
-0.00476761
-0.0201514
-0.00504287
-0.0234925
-0.00535026
-0.00568866
-0.0270051
-0.000979872
-0.000467154
-0.00299664
-0.000977216
-0.00550527
-0.00124531
-0.00822128
-0.0013859
-0.011051
-0.00148649
-0.0139872
-0.00159044
-0.0170449
-0.00170992
-0.0202416
-0.00184623
-0.0235935
-0.00199833
-0.00216388
-0.0271183
-0.000984667
0.000517513
-0.00300876
0.00104688
-0.00552445
0.00127038
-0.00824677
0.00133642
-0.0110824
0.00134913
-0.0140245
0.00135171
-0.0170881
0.0013536
-0.0202904
0.00135611
-0.023648
0.00135927
0.00136235
-0.0271742
-0.000985172
0.00150269
-0.00301035
0.00307205
-0.00552727
0.0037873
-0.00825079
0.00405993
-0.0110876
0.0041859
-0.0140308
0.00429494
-0.0170953
0.00441816
-0.0202987
0.00455946
-0.0236571
0.00471772
0.00489196
-0.0271868
-0.000981389
0.00248407
-0.00300141
0.00509207
-0.00551376
0.00629965
-0.00823337
0.00677955
-0.0110664
0.00701898
-0.0140059
0.00723443
-0.0170666
0.00747884
-0.020266
0.00775879
-0.0236203
0.00807208
0.0084175
-0.0271458
-0.000973323
0.0034574
-0.00298194
0.00710069
-0.00548391
0.00880162
-0.0081945
0.00949014
-0.0110191
0.00984356
-0.01395
0.0101654
-0.0170019
0.0105307
-0.0201921
0.010949
-0.0235371
0.0114171
0.011933
-0.0270526
-0.000960992
0.00441839
-0.00295197
0.00909167
-0.00543773
0.0112874
-0.00813421
0.0121866
-0.0109455
0.0126548
-0.0138631
0.013083
-0.0169013
0.0135689
-0.0200774
0.0141251
-0.0234078
0.0147475
0.0154329
-0.0269078
-0.000944419
0.00536281
-0.00291153
0.0110588
-0.00537525
0.0137511
-0.0080525
0.0148639
-0.0108457
0.015448
-0.0137452
0.0159824
-0.0167648
0.0165886
-0.0199218
0.0172821
-0.0232325
0.0180582
0.018912
-0.0267116
-0.000923637
0.00628645
-0.00286064
0.0129958
-0.00529649
0.016187
-0.00794939
0.0175168
-0.0107197
0.0182183
-0.0135963
0.018859
-0.0165926
0.0195849
-0.0197254
0.020415
-0.0230113
0.0213441
0.0223646
-0.026464
-0.000898687
0.00718513
-0.00279934
0.0148964
-0.00520146
0.0185891
-0.00782491
0.0201402
-0.0105676
0.020961
-0.0134166
0.021708
-0.0163846
0.0225529
-0.0194884
0.0235188
-0.0227444
0.0246
0.0257855
-0.0261653
-0.000869622
0.00805475
-0.0027277
0.0167545
-0.00509019
0.0209516
-0.00767906
0.0227291
-0.0103893
0.0236713
-0.013206
0.0245247
-0.0161411
0.025488
-0.019211
0.0265887
-0.022432
0.027821
0.0291692
-0.0258157
-0.000836503
0.00889126
-0.00264577
0.0185638
-0.00496273
0.0232685
-0.00751187
0.0252782
-0.0101851
0.0263445
-0.0129648
0.0273045
-0.0158622
0.0283854
-0.0188934
0.0296198
-0.0220743
0.031002
0.0325106
-0.0254157
-0.000799402
0.00969066
-0.00255363
0.020318
-0.00481911
0.025534
-0.00732336
0.0277825
-0.00995476
0.0289758
-0.012693
0.0300427
-0.0155481
0.0312405
-0.0185357
0.0326075
-0.021672
0.0341382
0.0358045
-0.0249659
-0.000758407
0.0104491
-0.00245137
0.022011
-0.00465937
0.027742
-0.00711357
0.0302367
-0.00969851
0.0315608
-0.0123906
0.0327348
-0.0151988
0.0340487
-0.0181384
0.0355472
-0.0212253
0.037225
0.0390462
-0.024467
-0.000713616
0.0111627
-0.00233911
0.0236365
-0.00448357
0.0298865
-0.00688252
0.0326356
-0.00941636
0.0340946
-0.0120579
0.0353763
-0.0148147
0.0368055
-0.0177018
0.0384342
-0.0207349
0.0402582
0.0422314
-0.02392
-0.000665145
0.0118278
-0.00221696
0.0251883
-0.00429179
0.0319613
-0.00663025
0.0349741
-0.00910838
0.0365728
-0.011695
0.0379629
-0.0143959
0.0395064
-0.0172259
0.0412642
-0.0202013
0.0432335
0.0453563
-0.0233261
-0.000613127
0.012441
-0.00208509
0.0266602
-0.00408412
0.0339603
-0.00635681
0.0372468
-0.00877464
0.0389906
-0.0113019
0.0404902
-0.0139425
0.042147
-0.0167111
0.0440328
-0.019625
0.0461475
0.048418
-0.0226867
-0.000557713
0.0129987
-0.00194368
0.0280462
-0.00386067
0.0358773
-0.00606225
0.0394483
-0.00841519
0.0413435
-0.0108788
0.0429538
-0.0134548
0.044723
-0.0161572
0.0467353
-0.0190063
0.0489965
0.0514153
-0.0220036
-0.000499077
0.0134977
-0.00179294
0.0293401
-0.00362158
0.037706
-0.00574663
0.0415734
-0.00803011
0.043627
-0.010426
0.0453497
-0.0129331
0.0472301
-0.0155643
0.0493665
-0.018345
0.0517772
0.0543495
-0.0212792
-0.00043741
0.0139352
-0.00163314
0.0305358
-0.00336701
0.0394398
-0.00541006
0.0436164
-0.00761945
0.0458364
-0.00994343
0.0476737
-0.0123775
0.0496642
-0.0149316
0.0519206
-0.0176378
0.0544834
0.0572272
-0.0205155
-0.000372929
0.0143081
-0.00146459
0.0316275
-0.00309719
0.0410724
-0.00505265
0.0455719
-0.00718337
0.0479671
-0.00943144
0.0499218
-0.0117896
0.0520224
-0.0142618
0.0543927
-0.0168844
0.057106
0.0600607
-0.019718
-0.000305874
0.014614
-0.00128766
0.0326092
-0.00281233
0.0425971
-0.00467456
0.0474341
-0.00672193
0.0500145
-0.00888956
0.0520894
-0.0111678
0.0543006
-0.0135507
0.0567756
-0.0160558
0.0596111
0.0628766
-0.0188716
-0.000236516
0.0148505
-0.00110275
0.0334755
-0.00251273
0.0440071
-0.004276
0.0491974
-0.00623552
0.051974
-0.00831861
0.0541725
-0.0105155
0.0564975
-0.0128258
0.059086
-0.0152054
0.0619907
0.0657147
-0.0180436
-0.000165216
0.0150157
-0.000910335
0.0342206
-0.00219869
0.0452954
-0.00385721
0.0508559
-0.00572443
0.0538412
-0.00771872
0.0561668
-0.00982545
0.0586042
-0.0120583
0.0613188
-0.0144241
0.0643565
0.0679976
-0.016707
-9.26672e-05
0.0151084
-0.000710731
0.0348387
-0.00187055
0.0464553
-0.00341848
0.0524039
-0.00518874
0.0556115
-0.00709041
0.0580684
-0.00910086
0.0606147
-0.0112299
0.0634478
-0.0134769
0.0666036
0.0703518
-0.0158311
-2.16674e-05
0.01513
-0.000503677
0.0353207
-0.0015288
0.0474804
-0.00296029
0.0538353
-0.00462881
0.05728
-0.00643462
0.0598743
-0.00834703
0.0625271
-0.0103734
0.0654742
-0.0125296
0.0687597
0.0726142
-0.014792
5.70131e-05
0.015073
-0.000287077
0.0356648
-0.00117428
0.0483676
-0.00248321
0.0551443
-0.00404526
0.0588421
-0.00575239
0.0615814
-0.00756635
0.064341
-0.009492
0.0673999
-0.0115462
0.0708139
0.0747645
-0.0136965
0.000134211
0.0149388
-4.84822e-05
0.0358475
-0.000808837
0.0491279
-0.00198735
0.0563228
-0.00343863
0.0602933
-0.00504425
0.063187
-0.00675815
0.0660549
-0.00858167
0.0692234
-0.0105303
0.0727625
0.0768066
-0.0125724
0.0002058
0.014733
0.000155724
0.0358975
-0.000435033
0.0497187
-0.00147303
0.0573608
-0.0028099
0.0616302
-0.00431052
0.0646876
-0.0059219
0.0676663
-0.00764092
0.0709424
-0.00948148
0.0746031
0.0787448
-0.0114197
0.000275517
0.0144575
0.000370047
0.035803
-2.56811e-05
0.0501144
-0.000942421
0.0582775
-0.00215964
0.0628474
-0.00355145
0.0660794
-0.00505787
0.0691727
-0.00667016
0.0725547
-0.00839956
0.0763325
0.0805736
-0.0102284
0.000344486
0.014113
0.000588125
0.0355594
0.000344272
0.0503583
-0.000402188
0.059024
-0.00148821
0.0639334
-0.00276769
0.0673589
-0.0041666
0.0705716
-0.00567001
0.0740581
-0.00728563
0.0779481
0.0822862
-0.00899818
0.000411446
0.0137015
0.000807291
0.0351635
0.000740177
0.0504254
0.00015755
0.0596066
-0.000796881
0.0648879
-0.00196003
0.0685221
-0.00324861
0.0718602
-0.00464092
0.0754504
-0.00614081
0.079448
0.0838785
-0.00773314
0.000475442
0.0132261
0.00102605
0.0346129
0.00114271
0.0503087
0.000725194
0.0600241
-8.75881e-05
0.0657007
-0.00112905
0.0695635
-0.0023045
0.0730357
-0.00358338
0.0767293
-0.00496632
0.0808309
0.0853482
-0.00643598
0.000535602
0.0126905
0.00124165
0.0339069
0.00154812
0.0500023
0.00130782
0.0602644
0.000642631
0.0663658
-0.000276866
0.070483
-0.00133536
0.0740942
-0.00249807
0.077892
-0.00376372
0.0820966
0.0866929
-0.00510848
0.00059097
0.0120995
0.00145142
0.0330464
0.00195391
0.0494998
0.00189964
0.0603187
0.00138967
0.0668758
0.000600889
0.0712718
-0.000344295
0.0750393
-0.00138623
0.0789339
-0.00253436
0.0832447
0.0879114
-0.0037528
0.000640628
0.0114589
0.00165275
0.0320343
0.00235681
0.0487957
0.00249788
0.0601776
0.00215204
0.0672216
0.00149936
0.0719245
0.000675828
0.0758629
-0.000256277
0.079866
-0.00127619
0.0842646
0.0890086
-0.00237339
0.000683735
0.0107752
0.00184298
0.030875
0.00275307
0.0478856
0.00309937
0.0598313
0.00292731
0.0673937
0.00241694
0.0724349
0.00171905
0.0765608
0.000912789
0.0806723
3.83461e-05
0.085139
0.0900263
-0.000979343
0.000719533
0.0100556
0.00201926
0.0295753
0.00313852
0.0467663
0.00370019
0.0592697
0.00371262
0.0673813
0.00335202
0.0727955
0.00278258
0.0771302
0.00209563
0.0813593
0.00131545
0.0859192
0.0908986
0.000443146
0.000747369
0.00930827
0.00217866
0.028144
0.00350854
0.0454365
0.00429565
0.0584826
0.00450436
0.0671726
0.00430204
0.0729978
0.00386515
0.0775671
0.00329994
0.0819245
0.00265125
0.0865679
0.0916138
0.00193605
0.000766719
0.00854155
0.00231804
0.0265927
0.00385794
0.0438966
0.00488028
0.0574602
0.00529818
0.0667547
0.00526428
0.0730317
0.00496592
0.0778655
0.00452703
0.0823634
0.00400596
0.087089
0.0921984
0.00342137
0.000777238
0.00776432
0.00243424
0.0249357
0.00418108
0.0421497
0.00544773
0.0561936
0.0060888
0.0661136
0.00623527
0.0728852
0.00608256
0.0780182
0.00577264
0.0826733
0.00537588
0.0874857
0.0926568
0.00491743
0.000778798
0.00698552
0.00252457
0.0231899
0.00447189
0.0402024
0.00599069
0.0546748
0.00686981
0.0652345
0.00721042
0.0725446
0.0072118
0.0780168
0.00703374
0.0828514
0.00676134
0.0877581
0.0929905
0.00642764
0.000771475
0.00621404
0.00258662
0.0213748
0.00472401
0.038065
0.00650082
0.052898
0.00763349
0.0641018
0.00818404
0.0719941
0.00834998
0.0778508
0.00830832
0.082893
0.00816172
0.0879047
0.0932007
0.00795148
0.000755553
0.00545849
0.00261847
0.0195119
0.00493091
0.0357526
0.00696881
0.0508601
0.00837071
0.0626999
0.00914917
0.0712156
0.0094928
0.0775072
0.0095941
0.0827917
0.00957546
0.0879234
0.0932885
0.00948772
0.000731537
0.00472695
0.0026189
0.0176245
0.00508623
0.0332853
0.00738443
0.0485619
0.00907079
0.0610135
0.0100973
0.0701891
0.0106347
0.0769698
0.0108879
0.0825385
0.0110005
0.0878108
0.0932533
0.0110358
0.000700143
0.00402681
0.00258757
0.0157371
0.00518409
0.0306888
0.00773675
0.0460092
0.00972138
0.0590289
0.0110179
0.0688925
0.0117687
0.076219
0.0121857
0.0821216
0.0124345
0.0875619
0.0930937
0.0125941
0.000662285
0.00336452
0.00252517
0.0138742
0.00521962
0.0279943
0.00801442
0.0432144
0.0103085
0.0567349
0.0118985
0.0673025
0.0128857
0.0752319
0.0134818
0.0815254
0.0138744
0.0871694
0.0928077
0.0141604
0.000619041
0.00274548
0.00243345
0.0120598
0.00518949
0.0252383
0.00820623
0.0401976
0.0108164
0.0541247
0.012724
0.0653949
0.0139742
0.0739816
0.0147694
0.0807302
0.015316
0.0866227
0.0923917
0.015732
0.000571607
0.00217388
0.00231526
0.0103161
0.00509245
0.0224611
0.00830176
0.0369883
0.0112284
0.051198
0.0134765
0.0631468
0.0150201
0.0724381
0.0160389
0.0797114
0.0167543
0.0859073
0.0918401
0.0173059
0.000521237
0.00165264
0.00217437
0.00866299
0.00492986
0.0197056
0.00829236
0.0336258
0.0115268
0.0479636
0.0141359
0.0605378
0.0160058
0.0705682
0.0172784
0.0784388
0.0181821
0.0850036
0.0911438
0.0188783
0.000469171
0.00118347
0.00201525
0.00711691
0.00470594
0.0170149
0.00817225
0.0301595
0.0116944
0.0444414
0.0146793
0.057553
0.01691
0.0683374
0.0184721
0.0768767
0.01959
0.0838857
0.0902896
0.0204442
0.000416566
0.000766902
0.00184274
0.00569074
0.00442772
0.0144299
0.00793974
0.0266475
0.0117153
0.0406658
0.015082
0.0541863
0.0177077
0.0657118
0.0196002
0.0749842
0.0209651
0.0825208
0.0892581
0.0219966
0.000364426
0.000402477
0.00166172
0.00439345
0.00410466
0.011987
0.00759831
0.0231538
0.011577
0.0366871
0.0153188
0.0504445
0.0183695
0.062661
0.0206377
0.072716
0.0222904
0.0808681
0.0880227
0.0235259
0.000313555
8.8922e-05
0.00147679
0.00323021
0.00374786
0.00971591
0.00715732
0.0197444
0.0112725
0.0325718
0.015365
0.046352
0.0188631
0.0591629
0.0215542
0.070025
0.0235434
0.0788789
0.0865474
0.0250187
0.000264555
-0.000175633
0.00129208
0.00220269
0.00336922
0.00763876
0.00663191
0.0164817
0.0108026
0.0284012
0.0151999
0.0419547
0.0191538
0.0552089
0.0223134
0.0668654
0.0246948
0.0764976
0.0847854
0.0264568