/*--------------------------------*- C++ -*----------------------------------*\
  =========                 |
  \\      /  F ield         | OpenFOAM: The Open Source CFD Toolbox
   \\    /   O peration     | Website:  https://openfoam.org
    \\  /    A nd           | Version:  7
     \\/     M anipulation  |
\*---------------------------------------------------------------------------*/
FoamFile
{
    version     2.0;
    format      ascii;
    class       volScalarField;
    location    "265";
    object      p;
}
// * * * * * * * * * * * * * * * * * * * * * * * * * * * * * * * * * * * * * //

dimensions      [0 2 -2 0 0 0 0];

internalField   nonuniform List<scalar> 
8500
(
-0.424468
-0.427288
-0.428608
-0.430363
-0.432955
-0.436459
-0.440833
-0.445948
-0.451531
-0.457452
-0.434449
-0.436964
-0.438403
-0.44057
-0.443903
-0.44851
-0.454371
-0.461384
-0.469332
-0.477963
-0.44451
-0.446632
-0.44815
-0.45069
-0.454716
-0.460363
-0.467621
-0.4764
-0.486508
-0.497478
-0.454508
-0.456155
-0.457702
-0.460556
-0.465199
-0.471788
-0.48031
-0.490666
-0.502671
-0.515477
-0.464296
-0.465394
-0.466913
-0.470003
-0.475163
-0.482565
-0.492181
-0.503872
-0.517487
-0.531533
-0.473727
-0.474221
-0.475644
-0.478875
-0.484428
-0.492488
-0.503
-0.515743
-0.530714
-0.545279
-0.482668
-0.482516
-0.483781
-0.48704
-0.49284
-0.50138
-0.512574
-0.526055
-0.542159
-0.556603
-0.491003
-0.490193
-0.491222
-0.494393
-0.500276
-0.5091
-0.520761
-0.534768
-0.551566
-0.565405
-0.498645
-0.497187
-0.497907
-0.500859
-0.506651
-0.515548
-0.527443
-0.541677
-0.559021
-0.571557
-0.505534
-0.503465
-0.503809
-0.506409
-0.511924
-0.520674
-0.532568
-0.546716
-0.56454
-0.575109
-0.511651
-0.50903
-0.508938
-0.511055
-0.516108
-0.524486
-0.536147
-0.549899
-0.568147
-0.576173
-0.517009
-0.513917
-0.51334
-0.514855
-0.519267
-0.527053
-0.538257
-0.551325
-0.569916
-0.574939
-0.521666
-0.518195
-0.517097
-0.517904
-0.521518
-0.52851
-0.539042
-0.551183
-0.56995
-0.571718
-0.525711
-0.52196
-0.520319
-0.520338
-0.523025
-0.529057
-0.538717
-0.549768
-0.568373
-0.566956
-0.529271
-0.525332
-0.52314
-0.522321
-0.523992
-0.528944
-0.53755
-0.547455
-0.565317
-0.561175
-0.532503
-0.528452
-0.525714
-0.524037
-0.52465
-0.528457
-0.535851
-0.544641
-0.560925
-0.554814
-0.535586
-0.531472
-0.528204
-0.525682
-0.525241
-0.52789
-0.533941
-0.541675
-0.555345
-0.547985
-0.538717
-0.534555
-0.53078
-0.527451
-0.525997
-0.527514
-0.532122
-0.538773
-0.548681
-0.540437
-0.542095
-0.537863
-0.533605
-0.529528
-0.527127
-0.527547
-0.530642
-0.535986
-0.540999
-0.532288
-0.545914
-0.54155
-0.536832
-0.532073
-0.528799
-0.528134
-0.529655
-0.533221
-0.532695
-0.525201
-0.550345
-0.545752
-0.540588
-0.535207
-0.531121
-0.529343
-0.529189
-0.530351
-0.525002
-0.520286
-0.555527
-0.550581
-0.544972
-0.539016
-0.534143
-0.531169
-0.529158
-0.527372
-0.51839
-0.509259
-0.561561
-0.556117
-0.550048
-0.543535
-0.537857
-0.533547
-0.529425
-0.524377
-0.511723
-0.497566
-0.568511
-0.562412
-0.555853
-0.548766
-0.542206
-0.536373
-0.529865
-0.521287
-0.505008
-0.486596
-0.576401
-0.569491
-0.562395
-0.554682
-0.547107
-0.539527
-0.530341
-0.518043
-0.49829
-0.476124
-0.585227
-0.577358
-0.569671
-0.561239
-0.552467
-0.542877
-0.530716
-0.514608
-0.491536
-0.466331
-0.594962
-0.586007
-0.577661
-0.568382
-0.558188
-0.546285
-0.530863
-0.510939
-0.484788
-0.457014
-0.605562
-0.595414
-0.586338
-0.576046
-0.564165
-0.549601
-0.530671
-0.507009
-0.478032
-0.448106
-0.616965
-0.605548
-0.595658
-0.584152
-0.570272
-0.552673
-0.530051
-0.502789
-0.471251
-0.439475
-0.62909
-0.616354
-0.605553
-0.592602
-0.576356
-0.555347
-0.528926
-0.498245
-0.464402
-0.431016
-0.641835
-0.627754
-0.615928
-0.601265
-0.582232
-0.557478
-0.527226
-0.493339
-0.45743
-0.422619
-0.655067
-0.639638
-0.626651
-0.609966
-0.587697
-0.558928
-0.524887
-0.48802
-0.450265
-0.414177
-0.66862
-0.651856
-0.637551
-0.618486
-0.592537
-0.559568
-0.521839
-0.482229
-0.442827
-0.405587
-0.682288
-0.664217
-0.648413
-0.626566
-0.596535
-0.559272
-0.518011
-0.475897
-0.435033
-0.396751
-0.695829
-0.676487
-0.658977
-0.63392
-0.599477
-0.557918
-0.513325
-0.468949
-0.426792
-0.387575
-0.70896
-0.688394
-0.668942
-0.640248
-0.60116
-0.55539
-0.507697
-0.461302
-0.418016
-0.37797
-0.721365
-0.699628
-0.677973
-0.645246
-0.601389
-0.551572
-0.501042
-0.45287
-0.408616
-0.367853
-0.732699
-0.709851
-0.685712
-0.648621
-0.599983
-0.546354
-0.493272
-0.443567
-0.398506
-0.35715
-0.742598
-0.718703
-0.691792
-0.650098
-0.596777
-0.539627
-0.484299
-0.43331
-0.387605
-0.345799
-0.750685
-0.725809
-0.695854
-0.649423
-0.591619
-0.531293
-0.474039
-0.422019
-0.375845
-0.333752
-0.756584
-0.730794
-0.697557
-0.646369
-0.584377
-0.521257
-0.462413
-0.40962
-0.363168
-0.320976
-0.759928
-0.733288
-0.69659
-0.640742
-0.574936
-0.509439
-0.449344
-0.396043
-0.349522
-0.307441
-0.760369
-0.732943
-0.692683
-0.632381
-0.563201
-0.495766
-0.434769
-0.381222
-0.334849
-0.293083
-0.75759
-0.729441
-0.685607
-0.62116
-0.549102
-0.480186
-0.418637
-0.365107
-0.319069
-0.277736
-0.75131
-0.722506
-0.675184
-0.606991
-0.532591
-0.462661
-0.400918
-0.347676
-0.302129
-0.261133
-0.741293
-0.711915
-0.661279
-0.58982
-0.513641
-0.443168
-0.381591
-0.328929
-0.284089
-0.243203
-0.727355
-0.697502
-0.643803
-0.569628
-0.492251
-0.421699
-0.36064
-0.308864
-0.265025
-0.224618
-0.709368
-0.679156
-0.622719
-0.546425
-0.468443
-0.398267
-0.338088
-0.287514
-0.244675
-0.20553
-0.687257
-0.656823
-0.598038
-0.520261
-0.442262
-0.372915
-0.314021
-0.264916
-0.223197
-0.185685
-0.661009
-0.63051
-0.56982
-0.491227
-0.413775
-0.345729
-0.288486
-0.241047
-0.200718
-0.16502
-0.630662
-0.600284
-0.538196
-0.459455
-0.38305
-0.316786
-0.261505
-0.215983
-0.177302
-0.14357
-0.596313
-0.566277
-0.503362
-0.425037
-0.350187
-0.286149
-0.233163
-0.189809
-0.153008
-0.121416
-0.558112
-0.52869
-0.465497
-0.387902
-0.31543
-0.253955
-0.203566
-0.162618
-0.127912
-0.0986661
-0.516273
-0.487789
-0.424541
-0.348478
-0.278846
-0.220339
-0.172831
-0.134507
-0.102106
-0.0754406
-0.471035
-0.443834
-0.38037
-0.307215
-0.24067
-0.185455
-0.141091
-0.105586
-0.0756765
-0.0518283
-0.422625
-0.396824
-0.333945
-0.264103
-0.201102
-0.149472
-0.108488
-0.0759633
-0.0487135
-0.0279166
-0.371325
-0.346895
-0.28593
-0.219421
-0.160336
-0.112567
-0.0751617
-0.0457366
-0.0213625
-0.00407634
-0.317586
-0.29469
-0.236328
-0.17346
-0.118588
-0.0749144
-0.0412224
-0.0149771
0.00608196
0.0187393
-0.261835
-0.240586
-0.185334
-0.1265
-0.0760967
-0.0366931
-0.00677299
0.0162181
0.0332526
0.0398447
-0.204399
-0.185052
-0.13326
-0.0788226
-0.0331069
0.00190408
0.0280184
0.0475778
0.060015
0.0613276
-0.145714
-0.128512
-0.0804657
-0.0307246
0.0101296
0.0406607
0.0628758
0.0786386
0.0863549
0.0888684
-0.0862337
-0.0713785
-0.0273254
0.0174901
0.053358
0.0793423
0.0975128
0.109278
0.113331
0.116558
-0.0264124
-0.0140687
0.0257858
0.0655121
0.0963173
0.117712
0.131757
0.139608
0.140611
0.142836
0.0332923
0.0429971
0.0784951
0.113031
0.138742
0.155535
0.165433
0.169508
0.167687
0.168038
0.0924248
0.0993997
0.130435
0.159737
0.18037
0.192586
0.198376
0.198795
0.194169
0.19215
0.150535
0.154725
0.181245
0.205327
0.220943
0.228649
0.230408
0.227284
0.219857
0.215234
0.207182
0.208567
0.230576
0.249506
0.260208
0.263512
0.261348
0.254793
0.244593
0.237273
0.261938
0.260535
0.278088
0.291987
0.297925
0.296968
0.291018
0.281161
0.268251
0.258222
0.314392
0.310251
0.323457
0.332497
0.333859
0.32882
0.319248
0.306237
0.290716
0.278015
0.364152
0.357358
0.366378
0.370776
0.367791
0.35888
0.345878
0.329884
0.311876
0.296581
0.41085
0.401521
0.40656
0.40658
0.399512
0.386971
0.370754
0.351972
0.331627
0.313849
0.454141
0.442427
0.443738
0.439682
0.42883
0.412928
0.393737
0.372381
0.349869
0.329749
0.493711
0.47979
0.477665
0.469874
0.455567
0.436599
0.414699
0.391001
0.366509
0.344216
0.529275
0.513352
0.508119
0.496969
0.479563
0.457847
0.433521
0.407731
0.381463
0.357193
0.560579
0.542883
0.534906
0.5208
0.500676
0.476552
0.450101
0.422482
0.394657
0.368628
0.587405
0.568187
0.557855
0.541224
0.518783
0.492609
0.464349
0.435176
0.406024
0.378478
0.60957
0.589097
0.576825
0.55812
0.533781
0.505929
0.476191
0.445749
0.415511
0.386707
0.626926
0.605482
0.591702
0.571392
0.545588
0.516442
0.485565
0.454147
0.423072
0.393289
0.639364
0.617243
0.602402
0.580968
0.554143
0.524096
0.492427
0.460331
0.428676
0.398203
0.646815
0.624317
0.608871
0.586803
0.559405
0.528857
0.496748
0.464277
0.432302
0.40144
0.649246
0.626676
0.611085
0.588875
0.561358
0.53071
0.498515
0.465972
0.433939
0.40299
0.646664
0.624326
0.609049
0.587189
0.560005
0.529657
0.497729
0.465418
0.433587
0.402855
0.639116
0.617309
0.602799
0.581777
0.555373
0.525722
0.494411
0.462631
0.431261
0.401042
0.626687
0.605703
0.592401
0.572693
0.547508
0.518943
0.488593
0.457641
0.426985
0.397571
0.609499
0.589618
0.577951
0.56002
0.53648
0.509381
0.480327
0.45049
0.420795
0.392465
0.587713
0.5692
0.559574
0.543862
0.522379
0.497112
0.469677
0.441235
0.412738
0.385753
0.561525
0.544627
0.537422
0.524349
0.505315
0.482229
0.456723
0.429945
0.402871
0.377472
0.531167
0.516108
0.511675
0.501633
0.485419
0.464843
0.44156
0.4167
0.391262
0.367668
0.496904
0.483884
0.482538
0.47589
0.462838
0.445082
0.424294
0.401594
0.377989
0.356395
0.459031
0.448224
0.450244
0.447313
0.437741
0.423087
0.405048
0.38473
0.363138
0.343711
0.417874
0.409423
0.415044
0.416119
0.410308
0.399013
0.383953
0.36622
0.346804
0.329684
0.373784
0.367803
0.377216
0.382541
0.38074
0.37303
0.361153
0.346189
0.32909
0.314384
0.327138
0.323707
0.337054
0.346828
0.349248
0.345318
0.336802
0.324768
0.310104
0.297887
0.278333
0.277499
0.294871
0.309245
0.316057
0.31607
0.311064
0.302096
0.289958
0.280268
0.227784
0.229561
0.250996
0.27007
0.281402
0.285484
0.28411
0.278324
0.268774
0.2616
0.175921
0.180287
0.205771
0.229591
0.245528
0.253769
0.256118
0.253613
0.246679
0.241943
0.123184
0.130083
0.159547
0.188105
0.208687
0.221137
0.227271
0.228137
0.223827
0.221337
0.0700217
0.0793633
0.112686
0.145917
0.171137
0.187805
0.197745
0.202078
0.200405
0.199755
0.0168837
0.0285428
0.0655538
0.103333
0.133139
0.153997
0.167713
0.175613
0.176755
0.177206
-0.0357805
-0.021965
0.0185198
0.060662
0.0949542
0.119942
0.137348
0.148867
0.153309
0.153379
-0.0875251
-0.0717535
-0.0280456
0.0182082
0.0568396
0.0858701
0.106823
0.121778
0.130409
0.129648
-0.137905
-0.12042
-0.0737779
-0.0237309
0.0190457
0.0520081
0.0764023
0.0944718
0.107165
0.110962
-0.186505
-0.167534
-0.118336
-0.0648691
-0.018182
0.0185653
0.0463357
0.0673405
0.0835957
0.0925749
-0.233162
-0.212569
-0.161452
-0.10493
-0.0546047
-0.0142702
0.0167844
0.0406221
0.059807
0.0727994
-0.277241
-0.255288
-0.203002
-0.143639
-0.0899962
-0.0463239
-0.0121423
0.0144231
0.0361341
0.0522004
-0.318414
-0.295048
-0.242826
-0.180722
-0.12415
-0.0774246
-0.0403271
-0.0111711
0.0128545
0.0315804
-0.356488
-0.332025
-0.279904
-0.216007
-0.15687
-0.107403
-0.067635
-0.0360607
-0.00989116
0.0112714
-0.391242
-0.365976
-0.313979
-0.249294
-0.187946
-0.1361
-0.0939299
-0.0601395
-0.0320171
-0.00863653
-0.422455
-0.396634
-0.345207
-0.280108
-0.217279
-0.163375
-0.119087
-0.0833059
-0.0534405
-0.0280574
-0.449968
-0.423801
-0.373467
-0.308447
-0.244629
-0.189087
-0.142998
-0.105465
-0.07408
-0.046881
-0.473686
-0.447344
-0.398567
-0.334221
-0.269889
-0.213154
-0.165571
-0.126527
-0.0938668
-0.0650103
-0.493566
-0.467198
-0.420374
-0.357307
-0.292986
-0.235504
-0.186757
-0.146412
-0.112733
-0.0823933
-0.509623
-0.483359
-0.438829
-0.377614
-0.313849
-0.256047
-0.206519
-0.165106
-0.130564
-0.0990683
-0.521927
-0.495882
-0.453926
-0.395096
-0.332428
-0.274734
-0.224768
-0.182586
-0.147207
-0.115245
-0.530607
-0.504881
-0.46571
-0.409742
-0.348699
-0.291544
-0.241474
-0.198809
-0.162856
-0.130861
-0.535846
-0.510525
-0.474274
-0.421575
-0.362662
-0.306479
-0.25664
-0.213765
-0.177428
-0.145203
-0.537875
-0.513042
-0.479759
-0.430657
-0.374344
-0.319556
-0.270278
-0.227445
-0.190866
-0.158315
-0.53697
-0.512708
-0.482353
-0.437085
-0.383795
-0.330808
-0.28241
-0.23986
-0.203214
-0.170446
-0.533445
-0.509837
-0.482293
-0.440996
-0.391092
-0.340288
-0.293078
-0.251048
-0.214533
-0.181739
-0.527638
-0.504771
-0.47986
-0.442564
-0.396335
-0.348063
-0.302338
-0.261061
-0.224863
-0.192232
-0.519906
-0.497871
-0.475372
-0.441999
-0.39965
-0.354218
-0.310257
-0.269955
-0.234241
-0.201935
-0.510614
-0.489498
-0.469171
-0.439543
-0.401183
-0.358848
-0.31691
-0.27779
-0.242705
-0.210864
-0.50012
-0.480011
-0.461614
-0.435466
-0.4011
-0.362062
-0.322376
-0.284631
-0.250306
-0.219049
-0.488774
-0.46975
-0.453059
-0.430058
-0.39959
-0.363975
-0.326738
-0.290547
-0.257101
-0.226523
-0.476898
-0.459031
-0.443846
-0.423625
-0.396855
-0.364714
-0.330084
-0.295606
-0.263146
-0.233327
-0.464786
-0.448138
-0.434289
-0.416476
-0.393116
-0.364414
-0.332501
-0.299878
-0.2685
-0.239501
-0.452696
-0.437317
-0.424662
-0.40891
-0.388602
-0.363216
-0.334077
-0.303426
-0.273218
-0.245088
-0.440846
-0.426772
-0.415197
-0.401203
-0.38355
-0.361271
-0.3349
-0.306309
-0.277349
-0.250128
-0.429411
-0.416665
-0.406079
-0.393591
-0.378193
-0.358734
-0.335058
-0.308581
-0.280934
-0.254659
-0.418524
-0.407113
-0.397452
-0.386264
-0.37275
-0.355765
-0.334636
-0.310286
-0.284002
-0.258712
-0.408278
-0.398195
-0.389415
-0.379359
-0.367412
-0.352526
-0.333723
-0.311461
-0.286571
-0.26231
-0.398726
-0.38995
-0.382023
-0.372968
-0.362325
-0.349168
-0.332409
-0.31214
-0.288643
-0.265473
-0.389889
-0.382387
-0.375296
-0.367137
-0.357585
-0.345824
-0.330785
-0.312352
-0.290202
-0.26821
-0.38176
-0.375489
-0.36922
-0.361875
-0.353238
-0.342594
-0.32894
-0.312133
-0.291221
-0.270524
-0.374314
-0.369225
-0.363754
-0.35716
-0.349291
-0.339533
-0.326955
-0.311524
-0.291661
-0.272423
-0.367517
-0.363552
-0.358847
-0.352944
-0.345719
-0.336658
-0.324887
-0.310575
-0.291489
-0.273888
-0.361341
-0.358432
-0.354443
-0.349169
-0.342484
-0.333958
-0.32277
-0.309345
-0.290671
-0.274952
-0.355765
-0.353839
-0.3505
-0.345784
-0.339546
-0.331415
-0.320621
-0.307885
-0.289255
-0.27541
-0.350783
-0.349769
-0.346995
-0.342757
-0.336877
-0.329021
-0.318464
-0.306254
-0.287253
-0.275397
-0.346426
-0.346224
-0.343934
-0.340087
-0.334482
-0.326797
-0.316364
-0.304426
-0.284952
-0.273311
-0.342729
-0.343232
-0.341349
-0.337809
-0.332401
-0.324805
-0.314428
-0.30237
-0.283593
-0.258281
-0.33974
-0.340842
-0.339287
-0.335986
-0.330714
-0.323151
-0.31278
-0.300241
-0.283047
-0.251886
-0.33751
-0.339101
-0.337809
-0.334696
-0.329522
-0.321968
-0.311576
-0.298489
-0.282881
-0.250226
-0.336084
-0.338058
-0.336978
-0.334023
-0.328937
-0.321397
-0.310993
-0.297429
-0.282745
-0.249835
-0.335492
-0.337751
-0.336845
-0.334034
-0.329051
-0.32157
-0.31123
-0.297248
-0.282907
-0.250662
-0.335744
-0.338204
-0.337445
-0.334782
-0.329935
-0.322582
-0.3125
-0.29808
-0.283919
-0.253125
-0.336835
-0.33943
-0.338799
-0.336292
-0.331625
-0.324452
-0.314423
-0.30051
-0.286259
-0.257203
-0.338742
-0.341424
-0.34091
-0.338574
-0.334134
-0.32724
-0.317509
-0.304221
-0.290028
-0.262685
-0.341434
-0.344176
-0.343772
-0.34162
-0.337457
-0.330931
-0.321659
-0.309116
-0.29548
-0.269383
-0.344876
-0.347666
-0.347369
-0.345417
-0.341574
-0.335497
-0.326804
-0.315145
-0.302565
-0.277153
-0.349034
-0.351875
-0.351687
-0.349948
-0.346464
-0.340908
-0.332903
-0.322139
-0.309548
-0.287606
-0.353879
-0.356781
-0.356706
-0.355199
-0.352114
-0.347148
-0.339941
-0.330214
-0.318281
-0.299299
-0.359388
-0.362363
-0.36241
-0.361155
-0.358512
-0.354208
-0.347907
-0.339349
-0.32844
-0.311995
-0.365543
-0.368599
-0.368779
-0.367803
-0.365649
-0.36208
-0.356792
-0.349527
-0.33991
-0.325888
-0.372327
-0.375464
-0.375791
-0.375124
-0.37351
-0.370755
-0.366586
-0.360745
-0.352687
-0.341144
-0.379723
-0.382927
-0.383413
-0.383088
-0.382069
-0.380207
-0.377267
-0.372988
-0.366758
-0.357849
-0.387704
-0.390947
-0.391603
-0.391654
-0.391284
-0.390393
-0.388785
-0.386209
-0.382058
-0.37596
-0.396233
-0.399471
-0.400302
-0.400759
-0.401088
-0.401237
-0.401053
-0.400305
-0.398447
-0.395311
-0.405256
-0.40843
-0.409436
-0.41032
-0.411387
-0.412632
-0.413941
-0.415117
-0.415699
-0.415622
-0.414699
-0.417737
-0.41891
-0.420231
-0.422059
-0.424432
-0.427274
-0.430422
-0.433519
-0.436496
-0.467239
-0.466758
-0.450147
-0.410533
-0.375272
-0.369162
-0.388703
-0.391215
-0.341203
-0.260559
-0.192885
-0.152298
-0.1365
-0.143101
-0.168385
-0.175306
-0.14396
-0.106119
-0.0888013
-0.0714575
-0.0692658
-0.064396
-0.0727533
-0.0828683
-0.0770922
-0.0417129
-0.0428451
-0.0553869
-0.0480847
0.00135431
-0.491745
-0.493118
-0.474753
-0.427007
-0.37815
-0.356877
-0.365176
-0.364622
-0.319627
-0.245992
-0.185859
-0.151333
-0.139636
-0.150063
-0.177712
-0.185163
-0.150237
-0.108464
-0.0888016
-0.0706466
-0.0674115
-0.0617402
-0.070528
-0.0819222
-0.0764262
-0.041368
-0.0428946
-0.0551525
-0.048183
0.00107809
-0.51523
-0.51819
-0.498188
-0.442426
-0.380318
-0.343841
-0.340517
-0.336182
-0.29648
-0.230071
-0.178027
-0.149858
-0.142448
-0.156688
-0.186683
-0.194455
-0.156141
-0.110647
-0.0887409
-0.0698835
-0.065703
-0.0592436
-0.0683247
-0.0809368
-0.0757191
-0.0410305
-0.0429434
-0.0549388
-0.0482913
0.000797748
-0.536983
-0.541248
-0.51979
-0.45634
-0.381691
-0.330315
-0.315455
-0.306259
-0.27203
-0.212878
-0.169367
-0.147785
-0.144837
-0.16286
-0.19518
-0.203102
-0.161647
-0.112667
-0.0886258
-0.0691633
-0.0641429
-0.0569182
-0.0661605
-0.079918
-0.0749766
-0.0407024
-0.0429901
-0.054745
-0.0484058
0.00051478
-0.556375
-0.561667
-0.539025
-0.468385
-0.3822
-0.316578
-0.290447
-0.275746
-0.246494
-0.194532
-0.159862
-0.145032
-0.146706
-0.168484
-0.203102
-0.211037
-0.166734
-0.114527
-0.0884629
-0.0684799
-0.0627309
-0.0547744
-0.0640528
-0.0788724
-0.0742043
-0.0403858
-0.0430335
-0.0545702
-0.0485224
0.000230741
-0.572941
-0.579005
-0.555518
-0.478265
-0.381825
-0.30294
-0.266
-0.245443
-0.220092
-0.175203
-0.149514
-0.141527
-0.147964
-0.173479
-0.210361
-0.218215
-0.171384
-0.116231
-0.0882585
-0.0678262
-0.0614636
-0.0528199
-0.062018
-0.0778063
-0.0734072
-0.0400821
-0.0430716
-0.0544134
-0.0486371
-5.27513e-05
-0.58616
-0.593171
-0.569061
-0.485898
-0.380591
-0.289741
-0.242455
-0.216054
-0.193088
-0.155122
-0.138342
-0.137209
-0.148524
-0.177784
-0.216887
-0.224601
-0.175584
-0.117781
-0.0880185
-0.0671953
-0.0603344
-0.0510604
-0.0600713
-0.0767265
-0.0725898
-0.0397928
-0.0431028
-0.0542735
-0.0487455
-0.000334023
-0.596177
-0.604043
-0.578939
-0.492006
-0.378607
-0.277373
-0.22014
-0.188173
-0.166001
-0.13456
-0.126383
-0.132027
-0.148308
-0.181354
-0.222627
-0.230178
-0.179323
-0.119183
-0.0877487
-0.0665805
-0.0593333
-0.0494988
-0.0582252
-0.0756397
-0.071756
-0.0395188
-0.0431248
-0.0541494
-0.0488435
-0.000611338
-0.603271
-0.611673
-0.585877
-0.496182
-0.376048
-0.26607
-0.199468
-0.162211
-0.138506
-0.113825
-0.113689
-0.125938
-0.147244
-0.184159
-0.227545
-0.234939
-0.182593
-0.120442
-0.0874543
-0.0659755
-0.0584472
-0.048135
-0.0564885
-0.0745525
-0.0709087
-0.0392609
-0.0431354
-0.0540398
-0.0489269
-0.000882908
-0.607475
-0.61616
-0.589941
-0.498601
-0.373175
-0.255961
-0.180849
-0.138664
-0.111623
-0.0932899
-0.100328
-0.11891
-0.145272
-0.186177
-0.231615
-0.238882
-0.18539
-0.121562
-0.0871401
-0.0653755
-0.0576598
-0.046966
-0.0548653
-0.0734714
-0.0700502
-0.0390196
-0.0431322
-0.0539433
-0.0489911
-0.0011469
-0.608923
-0.617633
-0.591302
-0.499378
-0.370293
-0.247533
-0.164156
-0.11697
-0.0875977
-0.0732658
-0.0863648
-0.110917
-0.142337
-0.187396
-0.234826
-0.242018
-0.187711
-0.122546
-0.0868107
-0.0647768
-0.056953
-0.0459862
-0.0533537
-0.0724025
-0.0691817
-0.0387952
-0.0431126
-0.0538582
-0.049032
-0.00140144
-0.607802
-0.616296
-0.590148
-0.498609
-0.367634
-0.240659
-0.149998
-0.0977729
-0.066555
-0.0539624
-0.0718639
-0.101935
-0.138393
-0.187813
-0.237174
-0.244358
-0.189556
-0.123398
-0.0864716
-0.0641775
-0.0563069
-0.0451876
-0.0519427
-0.0713514
-0.0683035
-0.0385879
-0.0430743
-0.0537826
-0.0490451
-0.00164464
-0.604289
-0.612393
-0.586616
-0.496468
-0.36533
-0.23558
-0.139205
-0.0808189
-0.0482243
-0.0356319
-0.0568835
-0.0919393
-0.133401
-0.187428
-0.23866
-0.245917
-0.190928
-0.124122
-0.0861284
-0.0635774
-0.0557003
-0.0445599
-0.0505686
-0.0703236
-0.0674149
-0.0383978
-0.0430144
-0.0537147
-0.049026
-0.00187456
-0.598638
-0.606161
-0.580893
-0.49311
-0.363456
-0.232366
-0.131264
-0.066908
-0.0324685
-0.0185872
-0.0414664
-0.0808996
-0.127324
-0.186247
-0.239292
-0.246712
-0.191827
-0.124717
-0.0857812
-0.0629754
-0.055111
-0.0440883
-0.0491486
-0.0693234
-0.0665142
-0.0382249
-0.0429306
-0.0536519
-0.0489707
-0.00208917
-0.591206
-0.597839
-0.573182
-0.488664
-0.362009
-0.230943
-0.12609
-0.0559974
-0.019114
-0.00365103
-0.0256677
-0.0687815
-0.120129
-0.184282
-0.23908
-0.246759
-0.192245
-0.12516
-0.085417
-0.0623668
-0.0545187
-0.0437529
-0.0481115
-0.0683531
-0.0655987
-0.0380688
-0.0428203
-0.0535922
-0.0488762
-0.00228643
-0.582423
-0.587695
-0.563676
-0.48316
-0.360778
-0.230969
-0.123334
-0.0479154
-0.00784489
0.0102261
-0.00961439
-0.0555527
-0.111785
-0.181546
-0.238044
-0.24609
-0.192182
-0.125437
-0.085031
-0.0617514
-0.0539112
-0.0435386
-0.0471719
-0.0674091
-0.0646646
-0.0379295
-0.0426815
-0.0535335
-0.0487389
-0.00246489
-0.572696
-0.57608
-0.552652
-0.476684
-0.35958
-0.232135
-0.122708
-0.0425441
0.00141209
0.0223703
0.00639604
-0.0411946
-0.102262
-0.178056
-0.23621
-0.244742
-0.191698
-0.125632
-0.084701
-0.0611606
-0.0532869
-0.0434788
-0.0462889
-0.0664895
-0.0637064
-0.0378063
-0.0425117
-0.0534713
-0.0485489
-0.00262416
-0.562396
-0.563523
-0.540801
-0.470149
-0.359471
-0.235482
-0.125096
-0.0405426
0.00808069
0.0323049
0.0218325
-0.0257355
-0.091538
-0.173808
-0.233501
-0.242595
-0.190886
-0.125954
-0.0845862
-0.0606535
-0.0526335
-0.0436375
-0.0454886
-0.0656212
-0.0627181
-0.0376982
-0.0423049
-0.0533909
-0.048289
-0.00276301
-0.551882
-0.55022
-0.528338
-0.464114
-0.361315
-0.241827
-0.131154
-0.0422314
0.0119189
0.0399909
0.0360233
-0.0093678
-0.0795709
-0.168894
-0.229625
-0.239282
-0.18956
-0.126205
-0.0845115
-0.0601612
-0.0518851
-0.0438566
-0.0448044
-0.0648427
-0.0616997
-0.0376029
-0.0420508
-0.0532875
-0.0479681
-0.00287213
-0.540579
-0.535094
-0.512184
-0.452505
-0.356592
-0.242108
-0.133026
-0.0417004
0.0169643
0.048459
0.0498269
0.00742999
-0.0666381
-0.163023
-0.225863
-0.235716
-0.18694
-0.124907
-0.0833501
-0.0592688
-0.050946
-0.0434537
-0.0438086
-0.0638033
-0.0606243
-0.0375423
-0.0418191
-0.0532828
-0.0476888
-0.00292927
-0.522685
-0.51767
-0.490786
-0.430529
-0.337562
-0.227558
-0.122205
-0.0322333
0.0279397
0.0630835
0.0725892
0.0340934
-0.0488686
-0.160328
-0.228955
-0.235359
-0.1831
-0.121201
-0.080315
-0.0576239
-0.0497573
-0.0417672
-0.0414384
-0.0609325
-0.0586317
-0.037675
-0.0419241
-0.0536287
-0.0475605
-0.00295406
-0.495975
-0.487993
-0.456003
-0.397438
-0.311625
-0.210077
-0.1115
-0.0249092
0.0356104
0.0743103
0.0893017
0.0570597
-0.0324833
-0.153278
-0.225291
-0.226242
-0.174642
-0.115605
-0.0768221
-0.0552925
-0.0478847
-0.0407473
-0.0415299
-0.058842
-0.0574627
-0.0374175
-0.0416297
-0.0531003
-0.0470382
-0.00300749
-0.467249
-0.456234
-0.421094
-0.365531
-0.28751
-0.194489
-0.102619
-0.0197488
0.0406106
0.082736
0.103302
0.0746519
-0.0205882
-0.146065
-0.218151
-0.214736
-0.164975
-0.109586
-0.0730922
-0.0527469
-0.0458955
-0.0397823
-0.0417934
-0.0570373
-0.0565566
-0.0368264
-0.0411119
-0.052264
-0.0462879
-0.00306602
-0.437273
-0.424178
-0.387573
-0.335237
-0.264678
-0.180034
-0.094995
-0.0164333
0.0430592
0.0878859
0.114004
0.0890029
-0.0103383
-0.138496
-0.208564
-0.201334
-0.153964
-0.102921
-0.0690828
-0.0500024
-0.0436875
-0.0388405
-0.0419417
-0.0550659
-0.0554226
-0.0361507
-0.0405339
-0.0513184
-0.045255
-0.00311575
-0.40625
-0.392525
-0.355888
-0.306869
-0.243319
-0.166786
-0.0885396
-0.0147166
0.0431254
0.0893301
0.120034
0.0989022
-0.00118702
-0.129561
-0.195716
-0.185844
-0.141768
-0.0956942
-0.0648171
-0.0470529
-0.0412414
-0.0378639
-0.0420863
-0.0528843
-0.0540317
-0.0355123
-0.0399065
-0.0501818
-0.0439042
-0.00314845
-0.375133
-0.36185
-0.326311
-0.280664
-0.223539
-0.154693
-0.0830945
-0.0142835
0.0412047
0.0870642
0.120691
0.103033
0.00641455
-0.118319
-0.178931
-0.16855
-0.128688
-0.0879881
-0.0603107
-0.0438934
-0.0385259
-0.0367971
-0.0421505
-0.0504964
-0.052446
-0.034908
-0.0391781
-0.0487937
-0.0422043
-0.00315249
-0.344812
-0.332509
-0.298897
-0.256648
-0.205333
-0.143659
-0.0784979
-0.0148417
0.0377883
0.0819638
0.116241
0.101501
0.0124595
-0.104316
-0.159257
-0.149981
-0.11509
-0.0799225
-0.0555847
-0.0405192
-0.0355082
-0.0355685
-0.0420388
-0.0478659
-0.050643
-0.0343024
-0.0383189
-0.0471224
-0.0401276
-0.00311439
-0.315737
-0.304683
-0.273547
-0.234708
-0.188637
-0.13358
-0.0745951
-0.016146
0.0332789
0.0747246
0.107786
0.0957876
0.0174686
-0.0877491
-0.137334
-0.130821
-0.101383
-0.0716395
-0.0506619
-0.0369245
-0.0321526
-0.034087
-0.0416364
-0.0449222
-0.0485292
-0.0336764
-0.0373205
-0.0451373
-0.0376505
-0.00301877
-0.288174
-0.278462
-0.250106
-0.214673
-0.173357
-0.124358
-0.0712496
-0.0179889
0.0280024
0.0662346
0.0968023
0.087754
0.0218224
-0.0697027
-0.11458
-0.11185
-0.0879645
-0.0632915
-0.045566
-0.0331014
-0.0284229
-0.0322378
-0.0407998
-0.0415786
-0.0459916
-0.0330161
-0.0361715
-0.0428064
-0.0347567
-0.00284905
-0.262279
-0.253878
-0.228418
-0.196357
-0.159384
-0.115905
-0.068347
-0.0201812
0.0222438
0.0571645
0.0846333
0.0787502
0.0252947
-0.0519804
-0.0926161
-0.0938035
-0.0751702
-0.0550252
-0.0403205
-0.0290408
-0.0242855
-0.0298827
-0.0394136
-0.0377382
-0.0429141
-0.0322879
-0.0348468
-0.0401009
-0.0314403
-0.00258845
-0.238094
-0.230923
-0.208343
-0.179582
-0.146605
-0.10814
-0.0657903
-0.022547
0.0162492
0.0479565
0.0722486
0.0693934
0.027339
-0.0362938
-0.072732
-0.0772272
-0.0632304
-0.0469696
-0.0349487
-0.0247331
-0.0197144
-0.0268572
-0.037147
-0.0332904
-0.0391655
-0.0314307
-0.0333064
-0.0370108
-0.0277092
-0.00222195
-0.215614
-0.20957
-0.189766
-0.164187
-0.134908
-0.100989
-0.0634928
-0.0249303
0.0102367
0.0388984
0.0602351
0.0598959
0.0276491
-0.0236047
-0.0556705
-0.0624192
-0.0522695
-0.039232
-0.0294755
-0.0201715
-0.0147041
-0.0229716
-0.0337721
-0.0281124
-0.0345905
-0.0303578
-0.0314967
-0.0335296
-0.0235885
-0.00173914
-0.194811
-0.189783
-0.17259
-0.150039
-0.124183
-0.0943834
-0.0613748
-0.0272027
0.00439746
0.0302018
0.048928
0.0504635
0.0263829
-0.0140602
-0.0415954
-0.0494668
-0.0423307
-0.0318966
-0.0239314
-0.015358
-0.00928272
-0.0180252
-0.029012
-0.0220748
-0.0290254
-0.0289551
-0.0293523
-0.0296708
-0.0191231
-0.00113807
-0.175638
-0.171512
-0.156733
-0.137022
-0.114331
-0.0882595
-0.0593648
-0.0292646
-0.0011068
0.022034
0.0385321
0.0413857
0.023979
-0.00727366
-0.0302853
-0.038322
-0.033408
-0.0250258
-0.0183554
-0.0103173
-0.00351683
-0.0118543
-0.0225986
-0.0150571
-0.0223472
-0.0270664
-0.0267985
-0.0254692
-0.0143818
-0.000428555
-0.158036
-0.154699
-0.142119
-0.12504
-0.105261
-0.082558
-0.0574026
-0.0310424
-0.00614337
0.0145319
0.0291707
0.0329292
0.020898
-0.00269206
-0.021369
-0.0288665
-0.0254702
-0.0186607
-0.0127974
-0.00511018
0.00248089
-0.00436361
-0.0143457
-0.00698156
-0.014532
-0.0244992
-0.023762
-0.0209819
-0.00946617
0.000371287
-0.141933
-0.139278
-0.128681
-0.114014
-0.0968941
-0.0772271
-0.0554419
-0.0324842
-0.0106126
0.00779531
0.0208948
0.0252734
0.0175075
0.00021924
-0.0144467
-0.0209458
-0.0184724
-0.0128228
-0.00732747
0.000163897
0.00854329
0.00441764
-0.00422077
0.00212849
-0.00572816
-0.0210535
-0.0201896
-0.0162893
-0.00451252
0.00123635
-0.127272
-0.12519
-0.116359
-0.103874
-0.0891649
-0.0722223
-0.0534506
-0.0335597
-0.014453
0.00188336
0.013699
0.018509
0.0140745
0.00191179
-0.00915044
-0.0143896
-0.012363
-0.00751688
-0.00204804
0.00537255
0.0144628
0.0142187
0.00750112
0.0120712
0.00368155
-0.0165892
-0.0160662
-0.011497
0.000313393
0.00213489
-0.113972
-0.112383
-0.105097
-0.0945637
-0.08202
-0.0675083
-0.0514107
-0.0342591
-0.0176412
-0.00318167
0.00754145
0.0126551
0.0107829
0.00274257
-0.0051644
-0.00902755
-0.00708667
-0.00273649
0.00291172
0.0103612
0.0200162
0.0243993
0.0200693
0.0223375
0.0130531
-0.011096
-0.0114313
-0.00672975
0.00482716
0.00302981
-0.101961
-0.10078
-0.0948355
-0.0860325
-0.0754172
-0.0630613
-0.0493189
-0.0345902
-0.020186
-0.00741229
0.0023605
0.00768443
0.0077462
0.00297159
-0.00222355
-0.00469379
-0.00258595
0.00152708
0.00742961
0.0149747
0.024983
0.0339211
0.0320573
0.0319602
0.0215685
-0.00470657
-0.00638125
-0.00213045
0.00883713
0.00388214
-0.0911624
-0.0903109
-0.0855253
-0.0782418
-0.0693269
-0.0588671
-0.0471834
-0.0345779
-0.0221227
-0.0108498
-0.00192034
0.00353759
0.005038
0.00277428
-0.000108707
-0.00123559
0.00119995
0.00527942
0.0114203
0.0190709
0.0292328
0.0415976
0.0418575
0.0397497
0.0285225
0.0022854
-0.00108579
0.00215043
0.0121646
0.00465358
-0.0815049
-0.0809622
-0.0771325
-0.0711601
-0.0637272
-0.0549203
-0.0450231
-0.0342619
-0.0235061
-0.0135569
-0.00538686
0.00013459
0.00269185
0.00238065
0.00137924
0.00148788
0.00433451
0.00852366
0.0148344
0.0225313
0.032644
0.0466568
0.0486446
0.0450059
0.033618
0.00934285
0.00417898
0.00598093
0.0146816
0.0053104
-0.0729188
-0.0726158
-0.0696062
-0.0647604
-0.0586076
-0.0512277
-0.0428668
-0.0336914
-0.0244037
-0.0156128
-0.00813041
-0.00261242
0.000708124
0.00189439
0.00240483
0.0036024
0.00688529
0.0112664
0.0176603
0.0252947
0.0351244
0.0489913
0.052296
0.0478942
0.0369577
0.0157585
0.00907568
0.00925887
0.0163409
0.00583341
-0.0653467
-0.0652341
-0.0629327
-0.0590304
-0.0539646
-0.0478024
-0.0407508
-0.0329245
-0.0248921
-0.0171057
-0.0102431
-0.00479158
-0.000927812
0.00138074
0.00309004
0.00521744
0.0089214
0.0135247
0.0199176
0.0273784
0.0366932
0.0492584
0.0534967
0.0490551
0.0388454
0.020996
0.0133347
0.0119362
0.0171859
0.00622337
-0.0587401
-0.0587798
-0.0570585
-0.0539557
-0.0498013
-0.0446658
-0.0387189
-0.0320241
-0.0250527
-0.0181279
-0.0118144
-0.00649627
-0.00223946
0.000889338
0.00353059
0.00642819
0.0105106
0.0153298
0.0216501
0.0288548
0.0374843
0.0483118
0.0530361