/*--------------------------------*- C++ -*----------------------------------*\
  =========                 |
  \\      /  F ield         | OpenFOAM: The Open Source CFD Toolbox
   \\    /   O peration     | Website:  https://openfoam.org
    \\  /    A nd           | Version:  7
     \\/     M anipulation  |
\*---------------------------------------------------------------------------*/
FoamFile
{
    version     2.0;
    format      ascii;
    class       surfaceScalarField;
    location    "265";
    object      phi;
}
// * * * * * * * * * * * * * * * * * * * * * * * * * * * * * * * * * * * * * //

dimensions      [0 3 -1 0 0 0 0];

internalField   nonuniform List<scalar> 
16735
(
-0.000115054
0.00214378
-0.00202873
-0.000419962
0.00468716
-0.00438226
-0.000892707
0.00603334
-0.00556059
-0.00150892
0.00646262
-0.00584641
-0.00224663
0.0062808
-0.00554308
-0.00308742
0.00571718
-0.0048764
-0.00401572
0.00486059
-0.00393229
-0.00502017
0.00366101
-0.00265656
-0.00609729
0.00196551
-0.000888389
-0.000478278
0.00164065
-0.00725966
-9.62402e-05
0.00224002
-0.000366003
0.00495692
-0.000797802
0.00646514
-0.00137075
0.00703557
-0.00206101
0.00697105
-0.00284507
0.00650124
-0.00370053
0.00571605
-0.00460784
0.00456832
-0.00555471
0.00291238
0.000512607
-0.00654559
-7.35376e-05
0.00231356
-0.000298772
0.00518216
-0.000675543
0.00684191
-0.00118666
0.00754668
-0.00180595
0.00759035
-0.00250362
0.00719892
-0.00324828
0.0064607
-0.00400842
0.00532847
-0.00475858
0.00366254
0.00123741
-0.00548338
-4.75977e-05
0.00236116
-0.000219823
0.00535438
-0.000528322
0.00715041
-0.000959959
0.00797832
-0.00148619
0.00811658
-0.00207035
0.00778308
-0.00267076
0.0070611
-0.00324151
0.00589923
-0.0037415
0.00416252
0.00161431
-0.0041184
-1.93429e-05
0.0023805
-0.000131543
0.00546659
-0.000360072
0.00737894
-0.000696228
0.00831448
-0.00110945
0.0085298
-0.00155626
0.0082299
-0.00198445
0.00748929
-0.00233231
0.00624709
-0.0025431
0.0043733
0.00158242
-0.00251121
1.01088e-05
0.00237039
-3.69691e-05
0.00551366
-0.000176088
0.00751805
-0.000403042
0.00854143
-0.000685948
0.0088127
-0.000975161
0.00851911
-0.00120872
0.00772285
-0.00130843
0.0063468
-0.00120495
0.00426982
0.00111086
-0.000733381
3.94198e-05
0.00233097
5.9983e-05
0.0054931
1.73154e-05
0.00756072
-8.96701e-05
0.00864842
-0.000228012
0.00895105
-0.00034287
0.00863397
-0.000364517
0.0077445
-0.000202905
0.00618519
0.000261104
0.00380582
0.000211595
0.00116037
6.72909e-05
0.00226368
0.000155452
0.00540494
0.000212562
0.00750361
0.000233294
0.00862768
0.000250363
0.00893398
0.000322796
0.00856153
0.000528853
0.00753844
0.000967226
0.00574681
0.001752
0.00302104
-0.00119149
0.00315508
9.23868e-05
0.00217129
0.000245384
0.00525194
0.000402263
0.00734673
0.000554407
0.00847554
0.0007346
0.00875378
0.00100552
0.00829061
0.00144999
0.00709397
0.00218008
0.00501672
0.00330787
0.00189325
-0.0030901
0.00520648
0.000113472
0.00205782
0.000325599
0.00503981
0.000578435
0.0070939
0.000861584
0.00819239
0.00120808
0.00840728
0.00168406
0.00781464
0.00237808
0.00639995
0.00341111
0.00398369
0.00490067
0.000403699
-0.00550092
0.00731149
0.000129505
0.00192832
0.000392474
0.00477685
0.000733688
0.00675268
0.00114314
0.00778294
0.00165499
0.00789543
0.0023395
0.00713013
0.00329225
0.0054472
0.00464237
0.00263358
0.00652193
-0.00147586
-0.00845117
0.00947217
0.000139724
0.00178859
0.000443112
0.00447346
0.000861782
0.00633401
0.00138875
0.00725598
0.00206083
0.00722335
0.00295387
0.00623708
0.00417372
0.00422735
0.00585682
0.00095048
0.00816959
-0.00378863
-0.0119754
0.0116939
0.000143731
0.00164486
0.000475706
0.00414148
0.000958398
0.00585132
0.00159085
0.00662353
0.00241472
0.00639947
0.00351384
0.00513797
0.00500943
0.00273175
0.00704536
-0.00108544
0.00984936
-0.00659263
-0.016103
0.0139769
0.000141567
0.00150329
0.000489878
0.00379317
0.00102199
0.0053192
0.00174626
0.00589926
0.00271221
0.00543353
0.00401504
0.00383514
0.00579803
0.000948753
0.00821487
-0.00350228
0.0115777
-0.00995545
-0.0208345
0.0163092
0.000133782
0.00136951
0.000486975
0.00343998
0.00105457
0.00475161
0.00185779
0.00509604
0.00295799
0.00433333
0.00446639
0.00232673
0.00655494
-0.00113979
0.00939446
-0.00634181
0.0133788
-0.0139398
-0.0261133
0.0186576
0.00012147
0.00124804
0.000470235
0.00309121
0.00106217
0.00415967
0.00193531
0.0042229
0.00316786
0.00310078
0.00489293
0.00060167
0.0073144
-0.00356127
0.0106323
-0.00965974
0.0152691
-0.0185765
-0.0318042
0.02096
0.000106256
0.00114179
0.000444756
0.00275271
0.0010549
0.00354953
0.00199584
0.00328196
0.00336863
0.00172799
0.00533452
-0.00136422
0.00812601
-0.00635277
0.0119796
-0.0135134
0.0172317
-0.0238286
-0.0377009
0.0231284
9.02088e-05
0.00105158
0.000417177
0.00242575
0.00104623
0.00292047
0.00206225
0.00226594
0.00359534
0.00019489
0.00583945
-0.00360832
0.00904374
-0.00955706
0.0134653
-0.0179349
0.0191985
-0.0295619
-0.0435687
0.0250663
7.56552e-05
0.000975922
0.000395049
0.00210635
0.00105157
0.00226395
0.00216027
0.00115724
0.00388556
-0.0015304
0.0064537
-0.00617646
0.0101088
-0.0132121
0.0150726
-0.0228988
0.0210601
-0.0355493
-0.0492047
0.0266961
6.49194e-05
0.000911003
0.000385949
0.00178532
0.00108627
0.00156363
0.00231477
-7.12548e-05
0.00427201
-0.00348764
0.00720826
-0.00911271
0.0113307
-0.0173346
0.01673
-0.028298
0.0227011
-0.0415204
-0.0545004
0.0279968
6.00108e-05
0.000850992
0.000396465
0.00144887
0.00116336
0.00079674
0.00254527
-0.00145317
0.00477591
-0.00571828
0.0081093
-0.0124461
0.0126739
-0.0218992
0.0183304
-0.0339546
0.0241618
-0.0473517
-0.0605905
0.0302519
6.23617e-05
0.00078863
0.00043133
0.0010799
0.00129171
-6.36445e-05
0.00286287
-0.00302433
0.00540205
-0.00825746
0.0091345
-0.0161785
0.0140599
-0.0268246
0.019773
-0.0396677
0.0254613
-0.05304
-0.0659534
0.0308242
7.26877e-05
0.000715942
0.000492926
0.000659663
0.00147501
-0.00104573
0.00326866
-0.00481798
0.0061374
-0.0111262
0.010236
-0.0202771
0.0153903
-0.0319789
0.0209917
-0.0452692
0.0262953
-0.0583436
-0.070499
0.030841
9.09922e-05
0.00062495
0.000581252
0.000169403
0.00171174
-0.00217622
0.00375403
-0.00686027
0.00695293
-0.0143251
0.0113485
-0.0246727
0.0165759
-0.0372062
0.0219087
-0.050602
0.026691
-0.0631259
-0.074411
0.030603
0.000116694
0.000508256
0.000694313
-0.000408215
0.00199603
-0.00347794
0.00430241
-0.00916665
0.0078081
-0.0178308
0.0124017
-0.0292663
0.0175465
-0.0423511
0.0224887
-0.0555441
0.026715
-0.0673523
-0.0777281
0.0300321
0.000148853
0.000359403
0.000828783
-0.00108815
0.00231899
-0.00496815
0.00489164
-0.0117393
0.00865649
-0.0215956
0.0133315
-0.0339413
0.0182583
-0.0472779
0.0227355
-0.0600214
0.0264038
-0.0710205
-0.080523
0.0291987
0.000186403
0.000173
0.000980672
-0.00188241
0.00266987
-0.00665734
0.00549619
-0.0145656
0.00945172
-0.0255512
0.0140888
-0.0385784
0.018694
-0.0518831
0.0226724
-0.0639998
0.0258162
-0.0741643
-0.082872
0.0281652
0.000228334
-5.53343e-05
0.00114578
-0.00279986
0.0030369
-0.00854846
0.00608918
-0.0176179
0.0101527
-0.0296147
0.0146432
-0.0430689
0.0188582
-0.0560982
0.022337
-0.0674786
0.0250046
-0.0768319
-0.0848431
0.0269757
0.000273758
-0.000329092
0.00131991
-0.00384602
0.00340779
-0.0106363
0.00664425
-0.0208544
0.0107271
-0.0336975
0.0149821
-0.0473238
0.0187704
-0.0598864
0.0217711
-0.0704793
0.0240177
-0.0790785
-0.0864995
0.0256741
0.0003219
-0.000650992
0.00149886
-0.00502297
0.00376991
-0.0129074
0.00713739
-0.0242218
0.0111537
-0.0377139
0.0151078
-0.0512779
0.0184586
-0.0632373
0.0210168
-0.0730375
0.0228975
-0.0809592
-0.0878923
0.0242903
0.000372011
-0.001023
0.00167826
-0.00632922
0.00411061
-0.0153397
0.00754857
-0.0276598
0.0114221
-0.0415874
0.015033
-0.0548887
0.0179548
-0.0661591
0.0201126
-0.0751953
0.0216782
-0.0825247
-0.0890633
0.0228491
0.000423295
-0.0014463
0.00185357
-0.0077595
0.00441773
-0.0179039
0.00786305
-0.0311051
0.0115315
-0.0452559
0.0147773
-0.0581345
0.0172913
-0.0686732
0.0190926
-0.0769965
0.0203875
-0.0838196
-0.0900442
0.0213684
0.000474848
-0.00192115
0.00201998
-0.00930463
0.00468028
-0.0205642
0.00807195
-0.0344968
0.0114886
-0.0486725
0.0143636
-0.0610094
0.0164986
-0.0708082
0.0179853
-0.0784832
0.0190468
-0.0848811
-0.0908586
0.0198612
0.000525639
-0.00244678
0.00217263
-0.0109516
0.0048892
-0.0232808
0.00817214
-0.0377797
0.0113053
-0.0518057
0.0138159
-0.06352
0.015604
-0.0725963
0.0168143
-0.0796935
0.0176724
-0.0857392
-0.0915233
0.0183371
0.000574529
-0.00302131
0.00230681
-0.0126839
0.00503788
-0.0260118
0.00816546
-0.0409073
0.0109967
-0.054637
0.0131574
-0.0656806
0.0146313
-0.0740702
0.0155985
-0.0806607
0.0162767
-0.0864174
-0.0920498
0.0168032
0.000620319
-0.00364163
0.00241825
-0.0144818
0.00512249
-0.0287161
0.00805759
-0.0438424
0.0105793
-0.0571587
0.0124097
-0.0675111
0.0136006
-0.0752612
0.0143527
-0.0814128
0.0148688
-0.0869335
-0.0924456
0.0152646
0.000661805
-0.00430344
0.00250339
-0.0163234
0.00514197
-0.0313547
0.00785697
-0.0465574
0.0100698
-0.0593715
0.0115921
-0.0690334
0.0125286
-0.0761977
0.0130886
-0.0819728
0.0134557
-0.0873006
-0.0927152
0.0137254
0.000697846
-0.00500128
0.00255962
-0.0181852
0.00509768
-0.0338927
0.00757363
-0.0490334
0.00948438
-0.0612823
0.0107215
-0.0702705
0.0114289
-0.076905
0.0118151
-0.082359
0.0120426
-0.0875281
-0.0928613
0.0121887
0.000727414
-0.0057287
0.00258532
-0.0200431
0.00499299
-0.0363004
0.0072184
-0.0512588
0.00883787
-0.0629018
0.00981224
-0.0712449
0.0103123
-0.077405
0.0105391
-0.0825858
0.0106334
-0.0876225
-0.0928853
0.0106574
0.000749643
-0.00647834
0.00257996
-0.0218734
0.00483269
-0.0385531
0.00680217
-0.0532283
0.00814374
-0.0642433
0.00887637
-0.0719775
0.00918743
-0.0777161
0.00926576
-0.0826642
0.00923136
-0.0875881
-0.092788
0.00913405
0.000763857
-0.0072422
0.00254393
-0.0236535
0.00462248
-0.0406317
0.00633547
-0.0549412
0.00741382
-0.0653217
0.00792392
-0.0724876
0.00806124
-0.0778534
0.00799929
-0.0826022
0.00783888
-0.0874276
-0.0925694
0.00762034
0.000769589
-0.00801179
0.00247849
-0.0253624
0.00436856
-0.0425217
0.00582813
-0.0564008
0.00665836
-0.0661519
0.00696309
-0.0727924
0.00693902
-0.0778293
0.00674277
-0.082406
0.00645806
-0.0871429
-0.0922282
0.00611682
0.000766579
-0.00877836
0.00238555
-0.0269814
0.00407724
-0.0442134
0.00528915
-0.0576127
0.00588616
-0.0667489
0.0060006
-0.0729068
0.00582501
-0.0776538
0.00549854
-0.0820795
0.00509044
-0.0867348
-0.0917625
0.00462472
0.000754774
-0.00953314
0.00226748
-0.0284941
0.00375468
-0.0457006
0.00472653
-0.0585846
0.00510464
-0.067127
0.00504193
-0.0728441
0.00472277
-0.0773346
0.00426874
-0.0816255
0.00373679
-0.0862029
-0.0911706
0.00314491
0.000734319
-0.0102675
0.00212693
-0.0298867
0.00340676
-0.0469805
0.00414737
-0.0593252
0.00432004
-0.0672997
0.00409156
-0.0726156
0.00363552
-0.0768786
0.00305637
-0.0810463
0.00239699
-0.0855435
-0.0904489
0.0016753
0.000705578
-0.010973
0.00196704
-0.0311481
0.00303895
-0.0480524
0.00355779
-0.059844
0.00353747
-0.0672794
0.00315297
-0.0722311
0.00256566
-0.0762913
0.00186514
-0.0803458
0.00107659
-0.084755
-0.0895557
0.000183373
0.000669071
-0.0116421
0.0017908
-0.0322699
0.00265627
-0.0489178
0.00296311
-0.0601509
0.00276119
-0.0670775
0.00222891
-0.0716989
0.00151434
-0.0755767
0.000692484
-0.0795239
-0.000199993
-0.0838625
-0.0885495
-0.00120617
0.000625445
-0.0122676
0.00160107
-0.0332455
0.00226324
-0.04958
0.00236789
-0.0602555
0.00199468
-0.0667043
0.00132173
-0.0710259
0.000481966
-0.0747369
-0.000459521
-0.0785825
-0.00148924
-0.0828328
-0.0874464
-0.00259232
0.000575455
-0.012843
0.00140061
-0.0340706
0.00186389
-0.0500433
0.00177595
-0.0601676
0.0012407
-0.066169
0.00043281
-0.070218
-0.000525658
-0.0737785
-0.00158134
-0.0775268
-0.00273633
-0.0816778
-0.0862201
-0.0039626
0.000519938
-0.0133629
0.00119209
-0.0347428
0.00146188
-0.0503131
0.00119031
-0.059896
0.000501794
-0.0654805
-0.000434419
-0.0692818
-0.0015079
-0.072705
-0.00268264
-0.076352
-0.00395627
-0.0804041
-0.0848678
-0.00530861
0.000459774
-0.0138227
0.000978089
-0.0352611
0.00106045
-0.0503954
0.000613739
-0.0594493
-0.000220112
-0.0646466
-0.00127864
-0.0682233
-0.0024679
-0.0715157
-0.00375823
-0.0750617
-0.00514994
-0.0790124
-0.0833907
-0.00662702
0.000395818
-0.0142185
0.000761083
-0.0356264
0.000662405
-0.0502968
5.51468e-05
-0.058842
-0.000922212
-0.0636693
-0.00210164
-0.0670438
-0.0034034
-0.070214
-0.00480684
-0.0736583
-0.00631586
-0.0775034
-0.081791
-0.00791561
0.00032896
-0.0145475
0.000543327
-0.0358407
0.000272626
-0.0500261
-0.00050274
-0.0580667
-0.0016072
-0.0625648
-0.00290172
-0.0657493
-0.00431329
-0.0688024
-0.00582763
-0.0721439
-0.00745251
-0.0758785
-0.0800709
-0.00917262
0.000260494
-0.014808
0.000326515
-0.0359068
-0.000108137
-0.0495914
-0.00103913
-0.0571357
-0.00227222
-0.0613317
-0.0036782
-0.0643433
-0.00519691
-0.0672837
-0.00681997
-0.0705209
-0.00855865
-0.0741399
-0.0782343
-0.0103952
0.000191099
-0.0149991
0.000117803
-0.0358335
-0.000501742
-0.0489719
-0.00156375
-0.0560737
-0.00291636
-0.0599791
-0.0044304
-0.0628293
-0.00605372
-0.0656603
-0.00778334
-0.0687913
-0.00963314
-0.0722901
-0.0762883
-0.0115792
0.00011878
-0.0151179
-9.59984e-05
-0.0356187
-0.000873199
-0.0481947
-0.00207237
-0.0548745
-0.0035392
-0.0585123
-0.00515767
-0.0612108
-0.00688314
-0.0639349
-0.00871708
-0.0669573
-0.0106748
-0.0703323
-0.0742384
-0.0127247
4.14533e-05
-0.0151593
-0.000326047
-0.0352512
-0.00123558
-0.0472851
-0.00256315
-0.0535469
-0.00414008
-0.0569354
-0.00585967
-0.0594912
-0.00768487
-0.0621097
-0.00962076
-0.0650214
-0.011684
-0.068269
-0.0720807
-0.0138417
-3.44199e-05
-0.0151249
-0.000539935
-0.0347457
-0.00158676
-0.0462383
-0.00303564
-0.052098
-0.00471822
-0.0552528
-0.00653606
-0.0576734
-0.00845942
-0.0601863
-0.0104959
-0.0629849
-0.012661
-0.0661039
-0.0698118
-0.01493
-0.000105857
-0.015019
-0.000745031
-0.0341065
-0.00192523
-0.0450581
-0.00348948
-0.0505338
-0.00527301
-0.0534693
-0.00718629
-0.0557601
-0.00920745
-0.0581652
-0.0113464
-0.0608459
-0.0136021
-0.0638482
-0.0674524
-0.0159615
-0.000177914
-0.0148411
-0.000942877
-0.0333415
-0.00225021
-0.0437508
-0.00392403
-0.04886
-0.00580381
-0.0515895
-0.00780928
-0.0537547
-0.00992652
-0.0560479
-0.0121695
-0.0586029
-0.0145447
-0.061473
-0.0651683
-0.0168289
-0.000248619
-0.0145925
-0.00113358
-0.0324566
-0.00256121
-0.0423231
-0.00433881
-0.0470824
-0.00631022
-0.0496181
-0.00840402
-0.0516609
-0.0106111
-0.0538408
-0.0129315
-0.0562825
-0.0153212
-0.0590834
-0.062315
-0.0181745
-0.000317369
-0.0142751
-0.00131677
-0.0314572
-0.00285788
-0.040782
-0.00473351
-0.0452067
-0.00679211
-0.0475595
-0.00896995
-0.049483
-0.0112579
-0.0515528
-0.0136502
-0.0538902
-0.0161647
-0.0565688
-0.0594871
-0.0189926
-0.000383818
-0.0138913
-0.00149201
-0.030349
-0.00313989
-0.0391342
-0.00510787
-0.0432388
-0.00724919
-0.0454181
-0.009507
-0.0472252
-0.0118745
-0.0491853
-0.0143558
-0.051409
-0.0169875
-0.0539371
-0.0566438
-0.0198309
-0.000447691
-0.0134436
-0.00165888
-0.0291378
-0.00340696
-0.0373861
-0.00546167
-0.0411841
-0.00768104
-0.0431988
-0.0100143
-0.044892
-0.0124573
-0.0467423
-0.01502
-0.0488463
-0.017735
-0.0512221
-0.0537574
-0.0206214
-0.000508749
-0.0129349
-0.00181702
-0.0278295
-0.00365883
-0.0355443
-0.00579474
-0.0390482
-0.00808758
-0.0409059
-0.0104922
-0.0424873
-0.0130078
-0.0442268
-0.0156473
-0.0462067
-0.0184362
-0.0484332
-0.0508149
-0.0213787
-0.000566775
-0.0123681
-0.00196611
-0.0264302
-0.0038953
-0.0336151
-0.00610694
-0.0368365
-0.00846865
-0.0385442
-0.0109405
-0.0400154
-0.0135245
-0.0416428
-0.0162349
-0.0434964
-0.0190918
-0.0455763
-0.0478098
-0.0220969
-0.000621575
-0.0117465
-0.0021059
-0.0249459
-0.00411617
-0.0316048
-0.00639817
-0.0345545
-0.00882417
-0.0361182
-0.0113592
-0.0374805
-0.0140073
-0.0389946
-0.0167834
-0.0407203
-0.0197047
-0.0426549
-0.0447406
-0.0227739
-0.000672977
-0.0110736
-0.00223617
-0.0233827
-0.00432132
-0.0295197
-0.00666835
-0.0322075
-0.00915407
-0.0336325
-0.0117479
-0.0348867
-0.0144559
-0.0362866
-0.0172929
-0.0378833
-0.0202752
-0.0396726
-0.0416087
-0.0234072
-0.00072083
-0.0103527
-0.00235673
-0.0217468
-0.00451061
-0.0273658
-0.00691742
-0.0298007
-0.00945826
-0.0310917
-0.0121065
-0.0322384
-0.0148699
-0.0335233
-0.0177635
-0.0349897
-0.0208031
-0.0366329
-0.0384169
-0.0239949
-0.000765001
-0.00958773
-0.00246742
-0.0200444
-0.00468396
-0.0251492
-0.00714532
-0.0273393
-0.00973666
-0.0285003
-0.0124349
-0.0295401
-0.0152492
-0.030709
-0.0181949
-0.032044
-0.0212878
-0.03354
-0.035169
-0.0245357
-0.000805375
-0.00878235
-0.00256812
-0.0182816
-0.00484129
-0.0228761
-0.00735201
-0.0248286
-0.00998921
-0.0258631
-0.012733
-0.0267963
-0.0155937
-0.0278483
-0.0185869
-0.0290508
-0.0217287
-0.0303982
-0.0318694
-0.0250283
-0.000841852
-0.0079405
-0.00265871
-0.0164648
-0.00498253
-0.0205522
-0.00753744
-0.0222737
-0.0102158
-0.0231847
-0.0130006
-0.0240115
-0.0159031
-0.0249459
-0.0189393
-0.0260146
-0.0221253
-0.0272121
-0.0285228
-0.0254718
-0.000874346
-0.00706615
-0.0027391
-0.0146
-0.00510763
-0.0181837
-0.00770159
-0.0196797
-0.0104165
-0.0204698
-0.0132377
-0.0211903
-0.0161772
-0.0220063
-0.0192516
-0.0229402
-0.0224771
-0.0239867
-0.0251345
-0.0258655
-0.000902786
-0.00616337
-0.00280922
-0.0126936
-0.00521655
-0.0157764
-0.00784442
-0.0170519
-0.0105911
-0.0177231
-0.013444
-0.0183374
-0.016416
-0.0190344
-0.0195238
-0.0198325
-0.0227837
-0.0207267
-0.0217095
-0.0262087
-0.000927108
-0.00523626
-0.00286899
-0.0107517
-0.00530925
-0.0133361
-0.00796591
-0.0143952
-0.0107396
-0.0149494
-0.0136196
-0.0154575
-0.0166192
-0.0160347
-0.0197555
-0.0166962
-0.0230448
-0.0174374
-0.0182534
-0.0265009
-0.000947261
-0.004289
-0.00291836
-0.00878058
-0.0053857
-0.0108688
-0.00806603
-0.0117149
-0.010862
-0.0121534
-0.0137643
-0.0125552
-0.0167867
-0.0130123
-0.0199465
-0.0135364
-0.0232601
-0.0141238
-0.0147715
-0.0267421
-0.000963204
-0.0033258
-0.00295729
-0.00678649
-0.00544587
-0.00838021
-0.00814476
-0.009016
-0.0109583
-0.00933986
-0.0138781
-0.00963543
-0.0169185
-0.00997186
-0.0200968
-0.0103581
-0.0234296
-0.0107911
-0.0112692
-0.0269318
-0.000974904
-0.00235089
-0.00298575
-0.00477565
-0.00548974
-0.00587622
-0.00820208
-0.00630365
-0.0110283
-0.00651366
-0.0139608
-0.00670288
-0.0170144
-0.00691834
-0.0202063
-0.00716618
-0.023553
-0.00744437
-0.00775206
-0.0270701
-0.000982338
-0.00136855
-0.0030037
-0.00275429
-0.00551729
-0.00336263
-0.00823798
-0.00358296
-0.0110721
-0.00367956
-0.0140126
-0.00376237
-0.0170743
-0.00385661
-0.0202747
-0.00396576
-0.0236303
-0.00408883
-0.00422538
-0.027157
-0.000985488
-0.000383066
-0.00301113
-0.000728646
-0.0055285
-0.000845252
-0.00825244
-0.000859025
-0.0110896
-0.000842393
-0.0140333
-0.000818719
-0.0170983
-0.000791578
-0.0203022
-0.000761837
-0.0236614
-0.000729626
-0.000694561
-0.0271922
-0.000984349
0.000601284
-0.00300803
0.00129503
-0.00552337
0.0016701
-0.00824544
0.00186304
-0.0110809
0.00199303
-0.0140228
0.00212326
-0.0170863
0.00227184
-0.0202886
0.00244052
-0.0236463
0.00262809
0.00283409
-0.027175
-0.000978921
0.0015802
-0.00299439
0.0033105
-0.00550189
0.0041776
-0.00821698
0.00457813
-0.0110458
0.0048219
-0.0139813
0.00505875
-0.0170383
0.00532875
-0.0202341
0.00563637
-0.0235853
0.0059793
0.00635676
-0.027108
-0.000969211
0.00254942
-0.00297022
0.00531151
-0.00546405
0.00667144
-0.00816704
0.00728112
-0.0109845
0.00763937
-0.0139087
0.00798294
-0.0169542
0.00837426
-0.0201385
0.00882067
-0.0234781
0.00931887
0.00986751
-0.0269888
-0.000955238
0.00350465
-0.00293553
0.0072918
-0.00540985
0.00914576
-0.00809561
0.00996688
-0.0108969
0.0104406
-0.013805
0.010891
-0.0168342
0.0114035
-0.0200019
0.0119884
-0.0233247
0.0126417
0.0133609
-0.0268181
-0.000937026
0.00444168
-0.00289035
0.00924512
-0.00533929
0.0115947
-0.00800269
0.0126303
-0.0107829
0.0132209
-0.0136701
0.0137782
-0.0166781
0.0144115
-0.0198243
0.0151345
-0.0231251
0.0159425
0.0168315
-0.0265957
-0.000914611
0.00535629
-0.00283469
0.0111652
-0.00525237
0.0140124
-0.00788825
0.0152662
-0.0106427
0.0159753
-0.0135042
0.0166397
-0.0164862
0.0173935
-0.0196057
0.0182541
-0.0228795
0.0192163
0.0202739
-0.0263219
-0.000888036
0.00624433
-0.00276861
0.0130458
-0.0051491
0.0163929
-0.0077523
0.0178694
-0.0104761
0.0186992
-0.0133072
0.0194708
-0.0162583
0.0203445
-0.0193463
0.0213422
-0.0225879
0.0224579
0.0236826
-0.0259967
-0.000857357
0.00710168
-0.00269215
0.0148806
-0.0050295
0.0187302
-0.00759484
0.0204347
-0.0102833
0.0213876
-0.0130792
0.0222667
-0.0159946
0.02326
-0.0190462
0.0243937
-0.0222505
0.0256622
0.0270524
-0.0256203
-0.00082264
0.00792432
-0.00260537
0.0166633
-0.0048936
0.0210184
-0.00741586
0.022957
-0.0100641
0.0240359
-0.0128202
0.0250228
-0.0156952
0.026135
-0.0187055
0.027404
-0.0218676
0.0288243
0.0303779
-0.0251931
-0.000783964
0.00870829
-0.00250836
0.0183877
-0.00474142
0.0232515
-0.00721538
0.0254309
-0.00981874
0.0266392
-0.0125304
0.0277345
-0.0153603
0.0289649
-0.0183245
0.0303682
-0.0214394
0.0319392
0.033654
-0.0247155
-0.000741423
0.00944971
-0.00240122
0.0200475
-0.00457301
0.0254233
-0.0069934
0.0278513
-0.00954712
0.0291929
-0.0122097
0.0303971
-0.0149899
0.031745
-0.0179033
0.0332816
-0.0209663
0.0350022
0.0368758
-0.0241881
-0.000695125
0.0101448
-0.00228405
0.0216364
-0.00438843
0.0275277
-0.00674993
0.0302128
-0.00924931
0.0316923
-0.0118583
0.0330061
-0.0145841
0.0344708
-0.0174421
0.0361396
-0.0204488
0.0380088
0.0400388
-0.0236117
-0.000645197
0.01079
-0.002157
0.0231482
-0.00418774
0.0295584
-0.00648501
0.0325101
-0.00892535
0.0341327
-0.0114763
0.035557
-0.0141433
0.0371378
-0.0169413
0.0389377
-0.0198873
0.0409548
0.0431389
-0.0229874
-0.000591786
0.0113818
-0.00202025
0.0245767
-0.00397104
0.0315092
-0.00619868
0.0347377
-0.00857529
0.0365093
-0.0110637
0.0380454
-0.0136674
0.0397415
-0.016401
0.0416713
-0.0192823
0.0438361
0.046173
-0.0223164
-0.000535058
0.0119169
-0.00187399
0.0259156
-0.00373847
0.0333737
-0.00589098
0.0368902
-0.00819918
0.0388175
-0.0106208
0.040467
-0.0131567
0.0422774
-0.0158211
0.0443357
-0.0186341
0.0466491
0.0491389
-0.0216
-0.000475207
0.0123921
-0.00171849
0.0271589
-0.00349017
0.0351454
-0.005562
0.0389621
-0.0077971
0.0410526
-0.0101476
0.0428176
-0.0126115
0.0447413
-0.0152017
0.0469259
-0.0179424
0.0493897
0.0520368
-0.0208402
-0.000412447
0.0128045
-0.00155403
0.0283005
-0.00322635
0.0368177
-0.00521182
0.0409475
-0.00736911
0.0432099
-0.00964433
0.0450928
-0.012032
0.047129
-0.0145423
0.0494362
-0.0172049
0.0520524
0.0548706
-0.0200387
-0.000347018
0.0131515
-0.00138097
0.0293344
-0.00294725
0.038384
-0.00484061
0.0428409
-0.00691536
0.0452846
-0.00911116
0.0472886
-0.0114194
0.0494373
-0.0138448
0.0518615
-0.0164208
0.0546284
0.057651
-0.0192012
-0.000279188
0.0134307
-0.00119972
0.030255
-0.00265316
0.0398374
-0.00444853
0.0446363
-0.00643595
0.047272
-0.00854783
0.0494005
-0.0107727
0.0516621
-0.0131067
0.0541956
-0.0155679
0.0570895
0.060404
-0.0183209
-0.000209269
0.01364
-0.00101077
0.0310565
-0.00234441
0.0411711
-0.00403584
0.0463277
-0.00593125
0.0491674
-0.00795509
0.0514243
-0.0100946
0.0538016
-0.0123503
0.0564513
-0.0146868
0.059426
0.063171
-0.0174538
-0.000137683
0.0137777
-0.000814617
0.0317334
-0.00202139
0.0423778
-0.00360284
0.0479091
-0.00540155
0.0509662
-0.00733304
0.0533558
-0.00937914
0.0558477
-0.011552
0.0586242
-0.0138626
0.0617366
0.0654503
-0.0161419
-6.53652e-05
0.0138431
-0.000611576
0.0322796
-0.00168453
0.0434508
-0.0031499
0.0493745
-0.00484703
0.0526633
-0.00668226
0.055191
-0.0086295
0.057795
-0.0106975
0.0606922
-0.0128902
0.0639294
0.0677661
-0.0152061
3.13864e-06
0.0138399
-0.000401084
0.0326838
-0.00133452
0.0443842
-0.0026776
0.0507176
-0.00426809
0.0542538
-0.00600368
0.0569266
-0.00785019
0.0596415
-0.00981427
0.0626563
-0.0119145
0.0660296
0.0699803
-0.0141287
8.47407e-05
0.0137552
-0.000179694
0.0329483
-0.000972414
0.0451769
-0.00218651
0.0519317
-0.00366538
0.0557327
-0.00529822
0.0585594
-0.00704306
0.0613863
-0.00890358
0.0645168
-0.0108983
0.0680243
0.0720789
-0.0129968
0.000158169
0.013597
4.99079e-05
0.0330565
-0.000599876
0.0458267
-0.00167713
0.0530089
-0.00303958
0.0570951
-0.00456634
0.0600862
-0.00620745
0.0630274
-0.00796227
0.0662716
-0.0098466
0.0699086
0.0740629
-0.0118306
0.000227181
0.0133698
0.000252214
0.0330315
-0.000214227
0.0462932
-0.00115077
0.0539455
-0.0023915
0.0583358
-0.00380836
0.0615031
-0.005343
0.0645621
-0.00698933
0.067918
-0.0087606
0.0716799
0.0759353
-0.0106331
0.000295068
0.0130748
0.000469011
0.0328575
0.000177081
0.0465851
-0.000610574
0.0547331
-0.00172179
0.0594471
-0.00302484
0.0628061
-0.00445008
0.0659873
-0.00598528
0.0694532
-0.00764027
0.0733349
0.0776918
-0.00939675
0.000361744
0.012713
0.000686653
0.0325326
0.00056523
0.0467065
-5.08106e-05
0.0553492
-0.00103113
0.0604274
-0.0022164
0.0639914
-0.00352928
0.0673002
-0.00495088
0.0708748
-0.00648687
0.0748709
0.0793263
-0.00812135
0.00042548
0.0122875
0.000903103
0.032055
0.00096385
0.0466458
0.000512043
0.055801
-0.000322286
0.0612617
-0.00138385
0.0650529
-0.00258131
0.0684976
-0.00388677
0.0721802
-0.00530184
0.0762859
0.080835
-0.00681055
0.000485323
0.0118022
0.0011163
0.031424
0.00136576
0.0463963
0.00109158
0.0560751
0.000406275
0.061947
-0.000528638
0.0659879
-0.00160719
0.0695762
-0.00279371
0.0733668
-0.00408655
0.0775788
0.0822154
-0.00546701
0.00054042
0.0112618
0.00132366
0.0306408
0.00176773
0.0459523
0.00168031
0.0561626
0.00115237
0.062475
0.000349523
0.0667907
-0.000608824
0.0705345
-0.00167283
0.0744308
-0.00284241
0.0787484
0.0834659
-0.00409287
0.000589871
0.0106719
0.00152245
0.0297082
0.00216636
0.0453084
0.002275
0.0560539
0.00191374
0.0628362
0.00125063
0.0674538
0.000415033
0.0713701
-0.000528243
0.075374
-0.00156903
0.0797891
0.084588
-0.00269115
0.000632816
0.0100391
0.00170986
0.0286312
0.00255776
0.0444605
0.00287229
0.0557394
0.00268756
0.0630209
0.00217054
0.0679708
0.00146533
0.0720753
0.000645855
0.0761935
-0.000254097
0.0806891
0.0856038
-0.0012699
0.000668488
0.00937062
0.00188301
0.0274166
0.00293759
0.0434059
0.00346795
0.055209
0.0034707
0.0630182
0.00310766
0.0683339
0.00253559
0.0726474
0.00184356
0.0768855
0.00105682
0.0814758
0.0865071
0.000153579
0.000696233
0.00867438
0.00203891
0.026074
0.00330097
0.0421438
0.00405697
0.054453
0.00425922
0.0628159
0.00405933
0.0685338
0.00362537
0.0730814
0.00306155
0.0774494
0.00241055
0.0821268
0.0872292
0.00168839
0.000715536
0.00795885
0.0021743
0.0246152
0.00364253
0.0406756
0.0046335
0.0534621
0.00504832
0.0624011
0.00502229
0.0685598
0.00473305
0.0733706
0.00430191
0.0778805
0.00378609
0.0826427
0.0878132
0.00320208
0.00072607
0.00723278
0.00228622
0.023055
0.00395644
0.0390054
0.00519076
0.0522277
0.00583215
0.0617597
0.00599246
0.0683995
0.00585572
0.0735073
0.0055607
0.0781755
0.00517758
0.0830258
0.0882618
0.00472907
0.000727718
0.00650506
0.00237202
0.0214107
0.00423649
0.0371409
0.00572096
0.0507433
0.00660364
0.060877
0.00696459
0.0680386
0.00698961
0.0734823
0.00683453
0.0783306
0.00658473
0.0832756
0.0885751
0.00627138
0.000720568
0.00578449
0.00242937
0.0197019
0.00447618
0.0350941
0.0062153
0.0490041
0.00735436
0.059738
0.00793221
0.0674607
0.00813037
0.0732842
0.00812071
0.0783403
0.00800632
0.08339
0.0887536
0.00782786
0.00070493
0.00507956
0.00245653
0.0179503
0.00466899
0.0328816
0.006664
0.0470091
0.00807435
0.0583276
0.00888742
0.0666476
0.00927279
0.0728988
0.00941616
0.0781969
0.00944023
0.0833659
0.0887968
0.00939697
0.000681343
0.00439822
0.00245249
0.0161792
0.00480871
0.0305254
0.00705643
0.0447614
0.00875199
0.0566321
0.00982054
0.0655791
0.0104102
0.0723091
0.0107168
0.0778903
0.0108838
0.0831989
0.0887037
0.0109769
0.00065056
0.00374766
0.0024172
0.0144125
0.00488979
0.0280528
0.00738137
0.0422698
0.00937398
0.0546395
0.0107198
0.0642333
0.0115343
0.0714946
0.0120173
0.0774073
0.0123335
0.0828827
0.0884717
0.0125655
0.000613539
0.00313412
0.00235166
0.0126744
0.00490796
0.0254965
0.00762746
0.0395503
0.00992532
0.0523416
0.0115709
0.0625877
0.0126341
0.0704313
0.0133107
0.0767307
0.0137853
0.0824082
0.0880969
0.0141601
0.000571398
0.00256272
0.00225794
0.0109879
0.00486069
0.0228938
0.00778375
0.0366273
0.0103896
0.0497358
0.0123572
0.0606201
0.0136964
0.0690921
0.0145881
0.075839
0.0152334
0.0817628
0.0875737
0.0157566
0.000525377
0.00203734
0.00213922
0.00937404
0.00474782
0.0202852
0.00784058
0.0335345
0.0107493
0.046827
0.013059
0.0583104
0.0147043
0.0674469
0.0158376
0.0747057
0.0166708
0.0809296
0.086894
0.0173506
0.00047678
0.00156057
0.00199954
0.00785128
0.00457194
0.0177128
0.00779068
0.0303158
0.0109868
0.0436309
0.0136542
0.055643
0.0156374
0.0654636
0.0170441
0.073299
0.0180876
0.0798862
0.0860455
0.0189361
0.000426917
0.00113365
0.00184365
0.00643455
0.00433857
0.0152179
0.00763029
0.027024
0.0110853
0.0401759
0.0141182
0.0526101
0.0164712
0.0631107
0.0181882
0.0715819
0.019471
0.0786034
0.085011
0.0205055
0.000377045
0.000756602
0.00167666
0.00513494
0.00405597
0.0128386
0.00736044
0.0237196
0.0110307
0.0365057
0.0144255
0.0492153
0.0171769
0.0603593
0.0192453
0.0695136
0.0208036
0.077045
0.0837662
0.0220484
0.000328299
0.000428303
0.00150367
0.00395957
0.0037346
0.0106076
0.00698775
0.0204664
0.0108133
0.0326801
0.0145503
0.0454783
0.0177219
0.0571877
0.0201849
0.0670506
0.0220627
0.0751672
0.0822784
0.0235505
0.000281626
0.000146676
0.00132944
0.00291176
0.00338615
0.00855092
0.00652468
0.0173279
0.0104304
0.0287744
0.0144695
0.0414392
0.0180706
0.0535866
0.0209703
0.0641508
0.0232183
0.0729192
0.0805045
0.0249922
0.000237717
-9.10405e-05
0.00115804
0.00199143
0.00302242
0.00668655
0.00598867
0.0143616
0.00988826
0.0248748
0.0141658
0.0371616
0.0181866
0.0495659
0.0215588
0.0607786
0.0242325
0.0702456
0.0783898
0.0263471
0.000196942
-0.000287983
0.000992533
0.00119584
0.00265412
0.00502496
0.00540035
0.0116154
0.00920284
0.0210723
0.013631
0.0327334
0.0180357
0.0451612
0.0219027
0.0569116
0.0250582
0.0670901
0.0758681
0.0275799
0.000159324
-0.000447307
0.000834792
0.000520375
0.00228992
0.00356983
0.00478098
0.00912436
0.00839943
0.0174539
0.01287
0.0282629
0.0175909
0.0404402
0.0219517
0.0525509
0.025639
0.0634028
0.0728626
0.0286444
0.000124552
-0.000571859
0.000685504