/*--------------------------------*- C++ -*----------------------------------*\
  =========                 |
  \\      /  F ield         | OpenFOAM: The Open Source CFD Toolbox
   \\    /   O peration     | Website:  https://openfoam.org
    \\  /    A nd           | Version:  7
     \\/     M anipulation  |
\*---------------------------------------------------------------------------*/
FoamFile
{
    version     2.0;
    format      ascii;
    class       volVectorField;
    location    "265";
    object      U;
}
// * * * * * * * * * * * * * * * * * * * * * * * * * * * * * * * * * * * * * //

dimensions      [0 1 -1 0 0 0 0];

internalField   nonuniform List<vector> 
8500
(
(-0.00300586 0.0605214 1.1253e-21)
(-0.0128036 0.121637 -3.22486e-21)
(-0.0301456 0.143635 -3.75411e-21)
(-0.0506908 0.140748 3.73424e-21)
(-0.0729376 0.124622 -3.4538e-21)
(-0.0956761 0.102699 -1.85448e-21)
(-0.11793 0.0780846 3.19375e-21)
(-0.139018 0.0508128 4.04221e-21)
(-0.158373 0.0194096 -6.88772e-22)
(-0.175986 -0.0186856 2.00232e-21)
(-0.00517357 0.0634628 -1.23888e-21)
(-0.016431 0.128892 3.83259e-21)
(-0.033189 0.153829 -9.23293e-21)
(-0.0522717 0.152674 8.38763e-21)
(-0.0726119 0.137305 3.248e-22)
(-0.0931523 0.115414 6.142e-21)
(-0.112873 0.0903211 -1.08383e-20)
(-0.130934 0.062261 -1.61157e-20)
(-0.146656 0.0299687 -3.30316e-21)
(-0.159671 -0.00871577 7.55476e-21)
(-0.00745146 0.0657279 1.21571e-21)
(-0.0202018 0.135004 8.75096e-21)
(-0.0361212 0.162882 2.04432e-20)
(-0.0533061 0.16361 -1.85372e-20)
(-0.0711435 0.149134 -4.31744e-21)
(-0.0887346 0.127337 -3.88354e-21)
(-0.105006 0.101744 2.01435e-20)
(-0.118929 0.0728017 1.24645e-20)
(-0.129651 0.0394997 2.97853e-21)
(-0.136147 6.95964e-05 -2.35824e-20)
(-0.00976775 0.0672126 4.34074e-21)
(-0.02401 0.139747 -5.08646e-21)
(-0.0388545 0.170509 -3.88867e-20)
(-0.0537344 0.173249 3.34857e-21)
(-0.0685047 0.159807 1.06798e-20)
(-0.0824401 0.138173 -8.56092e-21)
(-0.0944189 0.112059 -1.03118e-22)
(-0.103207 0.082119 -3.65858e-21)
(-0.107796 0.0476311 8.18256e-21)
(-0.106034 0.00713588 2.44437e-20)
(-0.0120436 0.0678404 3.09148e-21)
(-0.0277418 0.142926 -1.70889e-20)
(-0.0413084 0.176447 4.07028e-20)
(-0.0535223 0.181304 -1.87879e-20)
(-0.0647111 0.169036 -3.53013e-23)
(-0.0743449 0.147654 2.64149e-20)
(-0.0812763 0.121021 -1.21322e-20)
(-0.0840526 0.0899745 1.378e-21)
(-0.08165 0.0541219 -5.11926e-21)
(-0.0701192 0.0120908 2.33855e-21)
(-0.0141982 0.0675687 3.69249e-20)
(-0.0312803 0.144395 4.42781e-20)
(-0.0434108 0.180471 -1.11708e-20)
(-0.0526585 0.187508 2.15383e-20)
(-0.0598148 0.176555 7.01765e-21)
(-0.06457 0.155539 -9.73304e-21)
(-0.0657908 0.12843 -3.84357e-21)
(-0.0617739 0.0962071 -1.78224e-20)
(-0.0518159 0.058792 3.88365e-21)
(-0.0292494 0.0147493 -2.37552e-20)
(-0.0161542 0.066395 -3.56333e-20)
(-0.0345118 0.144068 -2.31628e-20)
(-0.0450984 0.182401 1.91827e-20)
(-0.0511535 0.191628 -3.33614e-20)
(-0.0538981 0.182118 4.09631e-21)
(-0.0532678 0.161606 4.02022e-20)
(-0.0481983 0.134118 -7.31275e-21)
(-0.0366896 0.100745 4.96052e-20)
(-0.0187339 0.0614019 -5.42539e-22)
(0.0158088 0.0153178 -2.13589e-20)
(-0.0178433 0.064358 3.05183e-20)
(-0.0373351 0.141927 -5.46832e-20)
(-0.0463217 0.182114 -2.17405e-20)
(-0.0490331 0.193466 2.53014e-20)
(-0.0470672 0.185499 1.1051e-21)
(-0.0406119 0.165645 -7.57609e-20)
(-0.028725 0.137922 -4.87379e-21)
(-0.00915605 0.103515 -3.94045e-20)
(0.0172961 0.0620919 -5.23823e-20)
(0.0649995 0.0136556 3.17795e-20)
(-0.0192127 0.0615363 -1.71124e-20)
(-0.039665 0.138021 8.08095e-21)
(-0.0470481 0.179557 2.01297e-20)
(-0.0463399 0.192867 -1.84192e-20)
(-0.0394434 0.186487 -6.45669e-20)
(-0.0267929 0.167436 2.24297e-20)
(-0.00760518 0.139665 3.24295e-21)
(0.0206851 0.104444 5.98426e-20)
(0.0558309 0.0611177 8.15483e-20)
(0.118551 0.00969597 -3.75537e-20)
(-0.0202305 0.0580449 2.73333e-20)
(-0.0414414 0.132471 2.47163e-20)
(-0.0472607 0.174744 -3.52572e-21)
(-0.0431293 0.189732 9.11142e-20)
(-0.0311588 0.184897 3.891e-20)
(-0.0120008 0.166752 2.97146e-20)
(0.0149354 0.139132 4.35618e-20)
(0.0527158 0.103409 -1.94058e-20)
(0.0967487 0.0583292 -2.73932e-20)
(0.176871 0.00390608 -4.69081e-20)
(-0.0208896 0.0540295 -2.3332e-21)
(-0.042635 0.125466 -3.90324e-20)
(-0.0469581 0.16777 -2.8143e-20)
(-0.0394579 0.184026 -4.5196e-20)
(-0.0223389 0.180585 -3.63505e-20)
(0.00358802 0.163381 3.69976e-20)
(0.0387043 0.136068 -3.64676e-20)
(0.086842 0.100233 -2.59566e-20)
(0.140104 0.0534682 3.45758e-21)
(0.240659 -0.00338397 1.20908e-20)
(-0.0212091 0.0496572 -7.57739e-20)
(-0.0432489 0.117253 3.58794e-20)
(-0.0461503 0.158807 2.61236e-20)
(-0.0353673 0.175795 1.75023e-20)
(-0.0130702 0.173471 -3.23185e-20)
(0.0198571 0.157139 -2.79201e-20)
(0.0636085 0.130202 4.11209e-20)
(0.123059 0.0946964 -3.4353e-20)
(0.186247 0.04615 -1.68259e-21)
(0.310749 -0.0118845 -3.83016e-20)
(-0.0212338 0.0451055 6.36161e-20)
(-0.0433157 0.108123 2.56403e-20)
(-0.0448471 0.148103 1.49549e-21)
(-0.0308584 0.165173 -3.19473e-20)
(-0.00335348 0.163563 2.30479e-21)
(0.0368238 0.147921 3.64772e-20)
(0.0897697 0.12132 -1.06809e-20)
(0.161566 0.0865832 -1.34283e-20)
(0.236078 0.0359941 -3.18126e-20)
(0.387922 -0.0213047 5.8318e-20)
(-0.0210296 0.0405503 4.30724e-20)
(-0.0428895 0.0983931 -6.93232e-20)
(-0.0430407 0.135972 -5.33555e-20)
(-0.0258569 0.152395 2.30123e-20)
(0.00695847 0.150989 4.73773e-20)
(0.0547404 0.135751 4.08003e-20)
(0.117681 0.109354 -4.44957e-20)
(0.202945 0.0757531 8.89035e-20)
(0.291316 0.0229125 -2.72319e-20)
(0.472627 -0.0312366 -6.86422e-20)
(-0.0206761 0.0361528 -6.46646e-20)
(-0.04203 0.0883828 3.87337e-20)
(-0.0406817 0.122779 -1.84766e-20)
(-0.0201716 0.137797 1.9269e-21)
(0.0182325 0.136021 1.97533e-20)
(0.074206 0.120836 -6.43592e-20)
(0.148347 0.0944988 5.88524e-20)
(0.248344 0.0622228 -5.80389e-20)
(0.354517 0.00746245 9.76348e-20)
(0.56448 -0.0410381 3.63947e-20)
(-0.0202556 0.0320469 1.36435e-20)
(-0.0407826 0.0783907 7.50233e-20)
(-0.0376512 0.108919 -1.87982e-20)
(-0.0134532 0.121806 1.90646e-20)
(0.0311181 0.119088 2.22495e-20)
(0.0962573 0.103611 -6.61204e-21)
(0.183346 0.0772964 4.96635e-20)
(0.299555 0.0462721 2.02522e-21)
(0.428504 -0.00894472 -6.31742e-20)
(0.66162 -0.0498283 8.58004e-20)
(-0.0198396 0.0283282 -3.65843e-20)
(-0.0391546 0.0686724 -7.10231e-20)
(-0.033734 0.0947858 6.14767e-20)
(-0.00516507 0.104915 3.07667e-20)
(0.0465769 0.100761 -1.43874e-19)
(0.122382 0.0847428 1.18315e-19)
(0.224717 0.0586627 -1.09363e-19)
(0.358858 0.028583 1.23687e-21)
(0.515106 -0.0241641 -2.63351e-20)
(0.760343 -0.0566248 -7.97406e-20)
(-0.0194746 0.0250461 3.15013e-20)
(-0.0370923 0.05942 -4.19811e-21)
(-0.028601 0.0807487 -1.51158e-20)
(0.00542173 0.0876567 -1.79348e-21)
(0.0658559 0.0817265 -8.73206e-21)
(0.154414 0.0650995 -3.79449e-20)
(0.274639 0.0398025 1.68601e-20)
(0.428505 0.010391 -2.63575e-20)
(0.61366 -0.0357396 7.95013e-21)
(0.855549 -0.0607028 2.02782e-21)
(-0.0191688 0.0222002 -6.42641e-20)
(-0.034465 0.0507498 -4.52057e-21)
(-0.0218071 0.067122 6.92878e-21)
(0.0191956 0.0705558 2.79054e-21)
(0.0903802 0.0627287 4.69751e-20)
(0.194294 0.0456807 -1.37812e-19)
(0.33495 0.0220224 9.46971e-20)
(0.509873 -0.00645202 -7.16392e-20)
(0.720234 -0.0415559 6.27157e-20)
(0.942407 -0.062555 7.10544e-20)
(-0.0188845 0.0197427 -7.69596e-21)
(-0.0310588 0.0426976 3.56208e-20)
(-0.0128099 0.0541456 -4.45077e-20)
(0.0371372 0.0540941 -1.39183e-20)
(0.121589 0.0445095 2.69086e-20)
(0.243706 0.0275269 1.30861e-19)
(0.406637 0.00652176 -2.67941e-20)
(0.602517 -0.0196776 1.32893e-20)
(0.828433 -0.0410048 -7.16248e-20)
(1.01892 -0.0651767 3.12665e-20)
(-0.0185352 0.0175864 -2.32734e-20)
(-0.0265827 0.0352248 -1.80255e-20)
(-0.00100586 0.0419743 4.44285e-21)
(0.0602203 0.0386761 1.75634e-20)
(0.160735 0.0277514 -5.20275e-20)
(0.303715 0.0116266 -2.11905e-20)
(0.489426 -0.00570582 -6.74453e-20)
(0.703519 -0.0273156 7.0836e-20)
(0.931559 -0.0365044 7.56686e-20)
(1.087 -0.0719746 -3.3732e-20)
(-0.0179914 0.0156194 -1.10248e-20)
(-0.0206869 0.0282356 4.52157e-20)
(0.0142219 0.0306833 -5.04298e-20)
(0.0893102 0.0246175 -5.88462e-21)
(0.208691 0.013047 -2.38449e-20)
(0.374461 -0.00116372 5.23964e-20)
(0.581577 -0.0138628 6.84227e-20)
(0.807739 -0.0288893 -6.5916e-20)
(1.02463 -0.0321374 6.98331e-20)
(1.17294 -0.0639096 8.90429e-21)
(-0.0170909 0.0137221 -3.20265e-20)
(-0.0129861 0.0216031 -9.12424e-20)
(0.0334565 0.02029 8.90473e-20)
(0.125079 0.0121557 1.28169e-20)
(0.265817 0.000889843 1.88445e-20)
(0.455036 -0.0101808 1.13487e-20)
(0.679951 -0.017422 5.19426e-20)
(0.909497 -0.025577 3.84777e-20)
(1.11005 -0.0249555 -1.3701e-19)
(1.24224 -0.0496934 -6.64284e-20)
(-0.0156525 0.0117849 -1.09826e-19)
(-0.00308594 0.0152021 2.21308e-20)
(0.0572096 0.0107896 -5.03088e-20)
(0.167945 0.00148417 9.81994e-21)
(0.331885 -0.00830892 1.57565e-20)
(0.543525 -0.0149976 -1.14013e-19)
(0.780497 -0.0163265 5.03468e-20)
(1.00486 -0.018279 -3.44696e-20)
(1.18423 -0.0146739 3.62467e-20)
(1.29359 -0.0342422 -1.23119e-20)
(-0.0134896 0.00972402 3.9699e-20)
(0.00939523 0.00894192 4.28134e-20)
(0.0858961 0.00219817 -2.42992e-21)
(0.218051 -0.00720202 -1.37936e-20)
(0.406064 -0.0142006 5.56847e-22)
(0.637214 -0.0154515 1.20392e-21)
(0.879136 -0.0109198 -7.67768e-20)
(1.09091 -0.00774468 9.65741e-21)
(1.24592 -0.00231539 9.50558e-20)
(1.33398 -0.0179313 4.2817e-20)
(-0.010421 0.00749239 -2.68632e-20)
(0.0248086 0.00279467 -1.99489e-20)
(0.119818 -0.00540703 8.56937e-20)
(0.275242 -0.0136653 2.20686e-21)
(0.486953 -0.0165009 -3.60173e-20)
(0.732959 -0.0116329 9.71676e-20)
(0.972398 -0.00176472 2.12609e-20)
(1.16595 0.00525547 9.70415e-22)
(1.29583 0.0115536 -4.17218e-20)
(1.36257 -0.00143769 -5.35667e-20)
(-0.00627884 0.00508515 5.60843e-20)
(0.0434614 -0.00318695 -1.56801e-20)
(0.159149 -0.0118595 -9.36079e-21)
(0.339053 -0.0176084 -3.56261e-20)
(0.572669 -0.0150174 5.87315e-20)
(0.827608 -0.00383395 -2.88516e-20)
(1.05776 0.0104978 -3.24547e-20)
(1.22953 0.0200825 -7.85968e-21)
(1.33473 0.0263611 -2.36322e-20)
(1.38278 0.0149364 2.56392e-20)
(-0.000912798 0.00253889 -2.06705e-20)
(0.065604 -0.00886319 -1.22867e-19)
(0.203916 -0.0168935 1.28346e-20)
(0.408698 -0.0186913 4.439e-20)
(0.661004 -0.00968433 3.1832e-20)
(0.918381 0.00752476 -1.06088e-19)
(1.1337 0.0252479 6.78395e-20)
(1.28194 0.0361994 -3.08842e-20)
(1.36417 0.0417287 4.63374e-20)
(1.3959 0.031145 1.26459e-20)
(0.00580782 -7.28539e-05 -2.26088e-20)
(0.0914173 -0.0140118 4.36311e-20)
(0.253972 -0.0201549 5.69777e-20)
(0.483067 -0.0165788 -4.10098e-20)
(0.749636 -0.000576303 1.52575e-20)
(1.0031 0.0219653 -9.33297e-20)
(1.19959 0.0419302 -1.76898e-20)
(1.32403 0.0531924 1.45472e-20)
(1.38557 0.0574039 -3.52053e-20)
(1.40375 0.0471165 -3.54988e-20)
(0.0139917 -0.00264533 -2.91589e-20)
(0.120997 -0.0183406 -9.83703e-21)
(0.308971 -0.0212309 -1.03208e-19)
(0.560765 -0.0109993 -1.62005e-20)
(0.836352 0.0121072 -1.79767e-21)
(1.08027 0.0390045 5.5278e-21)
(1.25543 0.0600746 9.79186e-21)
(1.35693 0.0707542 -4.55155e-20)
(1.40039 0.0732319 8.19321e-22)
(1.40753 0.0629001 2.44755e-20)
(0.0237225 -0.00504957 -7.58183e-21)
(0.154338 -0.0215064 3.57533e-20)
(0.368349 -0.0196932 5.04177e-20)
(0.640199 -0.00179083 3.15807e-20)
(0.91923 0.0280759 -9.4119e-21)
(1.14902 0.0581866 -7.70747e-21)
(1.30171 0.0792987 7.65628e-20)
(1.38185 0.0886701 1.00693e-20)
(1.4099 0.0891352 3.41691e-20)
(1.40827 0.0785262 -1.47083e-20)
(0.0350556 -0.00713847 7.24302e-20)
(0.19132 -0.0231358 4.71324e-20)
(0.431323 -0.0151452 -4.78144e-20)
(0.719701 0.0110795 -9.5372e-21)
(0.996748 0.0469871 4.92658e-21)
(1.20904 0.0791015 -1.80559e-20)
(1.33918 0.0993029 -3.91522e-20)
(1.39999 0.106798 -6.5748e-21)
(1.41518 0.105081 5.45147e-22)
(1.40672 0.0940502 1.58902e-20)
(0.0480126 -0.00875187 8.79827e-21)
(0.231696 -0.0228473 -2.56686e-20)
(0.496918 -0.00726445 6.08094e-20)
(0.797651 0.0275232 3.96837e-20)
(1.06782 0.0684768 1.11453e-21)
(1.2604 0.101392 2.81148e-20)
(1.36872 0.119859 4.17792e-21)
(1.41245 0.125052 -2.95196e-20)
(1.4171 0.121065 2.49638e-20)
(1.40341 0.109511 -3.97106e-23)
(0.0625758 -0.00972154 -5.94496e-20)
(0.275089 -0.0202736 -1.75741e-20)
(0.564018 0.00416812 -1.59639e-20)
(0.872593 0.0473529 -2.77792e-20)
(1.13174 0.0921815 6.43669e-21)
(1.30343 0.124752 1.50468e-22)
(1.39125 0.140799 2.14911e-20)
(1.42017 0.143381 -3.40256e-21)
(1.41635 0.137093 -2.56612e-20)
(1.39872 0.12494 -2.39094e-20)
(0.0786844 -0.00987619 4.80406e-21)
(0.320996 -0.0150837 2.83577e-20)
(0.631429 0.0192551 1.37313e-20)
(0.943302 0.0703099 -4.30411e-20)
(1.18819 0.117752 -2.20451e-21)
(1.33865 0.148927 -1.84474e-20)
(1.40766 0.161998 4.81467e-22)
(1.42397 0.161757 8.70641e-21)
(1.41345 0.153176 -9.66323e-21)
(1.39289 0.140349 2.69936e-20)
(0.0962308 -0.00904701 1.12206e-20)
(0.3688 -0.00700193 -2.76703e-20)
(0.697952 0.0379841 -6.54869e-20)
(1.00881 0.0960878 6.03715e-20)
(1.23706 0.144858 -4.51327e-21)
(1.36667 0.173702 1.33619e-20)
(1.41874 0.183363 -1.84583e-21)
(1.42449 0.180163 1.28448e-20)
(1.40877 0.169313 -9.51848e-22)
(1.38607 0.155737 -2.0922e-20)
(0.11506 -0.00707387 -2.28102e-20)
(0.417794 0.00417542 3.58996e-20)
(0.762447 0.0602383 2.97751e-20)
(1.06842 0.124351 -4.29167e-20)
(1.27848 0.173195 -7.08519e-21)
(1.38811 0.198896 2.71874e-21)
(1.42519 0.20482 2.72489e-20)
(1.42225 0.198581 1.39423e-21)
(1.40258 0.185495 5.35024e-21)
(1.37835 0.171085 -1.15385e-20)
(0.134972 -0.00381201 1.73031e-20)
(0.467207 0.018569 -1.56346e-20)
(0.823882 0.0858124 -1.3295e-20)
(1.12164 0.154748 2.28533e-20)
(1.3127 0.202478 7.91113e-21)
(1.4036 0.224353 5.97572e-21)
(1.42764 0.226308 -2.7729e-20)
(1.41765 0.216988 -9.55183e-21)
(1.39504 0.201701 -8.59366e-21)
(1.36977 0.186363 3.79096e-21)
(0.155724 0.000861227 -8.56892e-21)
(0.516237 0.0362103 -2.02525e-22)
(0.881364 0.114429 2.51487e-20)
(1.16819 0.18692 -9.24692e-21)
(1.34005 0.232444 -4.06707e-21)
(1.41369 0.249934 -2.68505e-21)
(1.42656 0.247765 6.70792e-21)
(1.41099 0.235352 1.16454e-20)
(1.38628 0.217893 -3.70254e-22)
(1.36036 0.201525 4.29913e-21)
(0.177037 0.00704008 6.03307e-21)
(0.564081 0.057041 -1.69494e-21)
(0.934155 0.145756 -4.49152e-21)
(1.20796 0.220508 -4.06934e-21)
(1.3609 0.262846 3.67176e-21)
(1.41893 0.27551 2.87258e-21)
(1.42238 0.269126 -2.65425e-21)
(1.40247 0.253629 9.73257e-22)
(1.37636 0.234018 1.37334e-21)
(1.35011 0.216516 -1.83685e-21)
(0.198605 0.0147851 3.20825e-21)
(0.609966 0.0809169 9.19015e-22)
(0.981671 0.179417 -5.52847e-21)
(1.24095 0.255153 -4.41601e-21)
(1.37565 0.293449 4.61365e-21)
(1.41976 0.300956 9.03798e-22)
(1.41542 0.29032 -2.13754e-21)
(1.39226 0.271759 2.01697e-21)
(1.36532 0.250009 1.13804e-21)
(1.33903 0.231271 -1.32401e-21)
(0.2201 0.0241193 -1.26126e-21)
(0.653175 0.107615 2.57465e-21)
(1.02348 0.215007 1.698e-20)
(1.26726 0.290503 -7.54895e-21)
(1.3847 0.324029 -3.72822e-21)
(1.4166 0.326148 -4.22574e-21)
(1.40594 0.311265 8.70264e-21)
(1.38047 0.289669 5.89934e-21)
(1.35319 0.26578 4.76123e-21)
(1.32713 0.245721 2.62365e-21)
(0.241187 0.0350261 2.55917e-20)
(0.693061 0.136842 -1.41474e-20)
(1.05927 0.2521 -1.6179e-20)
(1.28706 0.326212 2.19754e-20)
(1.38843 0.354368 1.16073e-20)
(1.40979 0.350958 -7.86993e-22)
(1.39415 0.33187 -1.45777e-20)
(1.36715 0.307269 -1.05823e-20)
(1.33996 0.281235 -1.12304e-20)
(1.31437 0.259791 6.77915e-21)
(0.261528 0.0474485 -3.45836e-20)
(0.729068 0.168246 3.26417e-20)
(1.08888 0.290258 3.75631e-20)
(1.30056 0.361941 -3.71351e-20)
(1.38721 0.384256 -1.29269e-20)
(1.39963 0.375255 8.38179e-21)
(1.38019 0.352033 1.53739e-20)
(1.35237 0.324464 2.4713e-21)
(1.32561 0.296268 -4.88064e-22)
(1.30068 0.273407 -9.3671e-21)
(0.280794 0.0612906 -4.91775e-21)
(0.760731 0.201429 -4.57962e-20)
(1.11222 0.329036 -4.91298e-20)
(1.30802 0.397361 5.52842e-20)
(1.38139 0.413482 -6.30037e-21)
(1.38638 0.398903 1.1773e-20)
(1.36421 0.371647 2.38347e-21)
(1.33616 0.341159 -6.66484e-21)
(1.31011 0.310802 3.59077e-21)
(1.28586 0.28649 -5.93668e-22)
(0.298674 0.0764202 1.00375e-20)
(0.78769 0.235955 2.83117e-20)
(1.12931 0.367989 1.61007e-20)
(1.30974 0.432154 -1.26656e-20)
(1.37128 0.441841 -1.98525e-20)
(1.37027 0.421759 -1.87358e-20)
(1.34633 0.390593 -3.85538e-21)
(1.31857 0.35726 1.05332e-20)
(1.2935 0.324824 -2.2362e-21)
(1.26981 0.298948 5.20029e-21)
(0.314881 0.0926709 -3.78347e-20)
(0.809682 0.271369 -3.5491e-20)
(1.14024 0.406678 -5.63796e-21)
(1.306 0.466009 -6.3767e-21)
(1.3572 0.46913 -1.47304e-20)
(1.35151 0.443674 9.16766e-21)
(1.32662 0.408736 -1.63093e-21)
(1.29964 0.372643 -9.27862e-21)
(1.27583 0.338337 8.46252e-21)
(1.25288 0.310712 -1.28828e-20)
(0.329164 0.109846 9.02518e-21)
(0.826541 0.307204 3.00795e-20)
(1.14514 0.444673 2.62653e-20)
(1.29712 0.498627 2.87224e-20)
(1.33943 0.495148 4.69801e-22)
(1.33026 0.464497 2.60057e-20)
(1.30518 0.425943 1.92206e-21)
(1.27942 0.387156 -3.21574e-20)
(1.25702 0.351113 2.35831e-20)
(1.23531 0.321775 8.8121e-21)
(0.341304 0.127725 2.44648e-20)
(0.838184 0.342991 5.49217e-20)
(1.14422 0.481562 -7.28941e-21)
(1.28342 0.529719 -3.62307e-20)
(1.31826 0.519701 1.64948e-20)
(1.3067 0.484077 -1.75025e-20)
(1.28213 0.442077 -2.4261e-20)
(1.25797 0.400737 -2.59289e-21)
(1.23706 0.362989 -2.01716e-20)
(1.21702 0.332006 8.09752e-21)
(0.351129 0.146069 1.15637e-20)
(0.844609 0.378268 8.68547e-21)
(1.13774 0.516947 6.92e-20)
(1.26523 0.55901 1.32283e-20)
(1.29393 0.542594 -1.17615e-20)
(1.28102 0.502252 -6.08782e-21)
(1.25759 0.456997 3.78821e-20)
(1.23531 0.413263 3.21057e-20)
(1.21609 0.373879 1.64592e-20)
(1.19792 0.341283 -2.43086e-21)
(0.358507 0.164626 2.50576e-21)
(0.845886 0.412587 -5.62234e-20)
(1.12598 0.550455 -8.15439e-20)
(1.24289 0.586246 2.80002e-21)
(1.26671 0.563633 1.68646e-20)
(1.25338 0.518861 -2.36173e-20)
(1.23161 0.470573 -5.67223e-20)
(1.21149 0.424618 -1.7506e-20)
(1.19418 0.38368 -1.13809e-21)
(1.17806 0.349523 1.01602e-20)
(0.363349 0.183138 -2.01547e-20)
(0.842163 0.445512 5.12275e-20)
(1.10932 0.581741 4.92564e-20)
(1.21672 0.61119 -4.65884e-20)
(1.23682 0.582632 7.03362e-21)
(1.22394 0.533743 5.9519e-20)
(1.2043 0.48267 -1.48173e-20)
(1.1866 0.434686 1.2283e-20)
(1.17137 0.392296 -7.04378e-21)
(1.15748 0.356653 -9.67467e-21)
(0.365616 0.201342 -4.56955e-20)
(0.833663 0.476623 -8.06973e-20)
(1.08811 0.610496 -1.5969e-20)
(1.18694 0.633581 2.66022e-20)
(1.20455 0.599435 2.76017e-20)
(1.19288 0.546741 -6.03253e-20)
(1.17579 0.493159 3.48069e-20)
(1.16073 0.443355 -2.08075e-20)
(1.14775 0.39963 1.83373e-20)
(1.13626 0.362606 -3.36219e-23)
(0.365323 0.218978 3.47925e-20)
(0.820683 0.505537 2.16639e-21)
(1.06259 0.63644 -7.8513e-21)
(1.15387 0.653212 -3.41013e-20)
(1.17019 0.613823 2.39683e-20)
(1.16036 0.557736 4.13854e-21)
(1.1462 0.501922 -2.2231e-20)
(1.13399 0.450524 2.24747e-21)
(1.1234 0.405587 -6.22356e-21)
(1.11451 0.367309 5.44771e-21)
(0.362542 0.235785 -9.81341e-21)
(0.803538 0.531976 -1.42798e-20)
(1.03288 0.659171 3.56867e-20)
(1.11806 0.669953 1.68491e-20)
(1.134 0.625645 -2.39192e-20)
(1.12658 0.566587 3.87784e-20)
(1.11566 0.508848 1.83858e-21)
(1.10648 0.456097 1.1667e-21)
(1.09842 0.410066 -6.53063e-21)
(1.09232 0.370664 -7.5307e-22)
(0.357357 0.251464 6.43416e-20)
(0.782419 0.55573 4.98382e-20)
(0.999455 0.678492 -2.52639e-21)
(1.07991 0.683497 -8.75007e-21)
(1.09623 0.634824 -1.02209e-20)
(1.09173 0.573187 -5.40122e-21)
(1.08433 0.513839 7.69214e-22)
(1.07833 0.459991 3.38305e-21)
(1.0729 0.412973 6.77026e-21)
(1.06975 0.372569 1.86121e-21)
(0.349817 0.265702 6.6213e-21)
(0.757474 0.576348 9.46028e-21)
(0.963067 0.694389 -4.98268e-20)
(1.03972 0.693688 2.34402e-20)
(1.05714 0.641221 1.03166e-20)
(1.05598 0.57743 -2.44665e-20)
(1.05236 0.516804 7.24274e-21)
(1.04964 0.462133 1.01099e-21)
(1.04698 0.41424 -7.92246e-22)
(1.04707 0.37298 -1.457e-21)
(0.340015 0.278276 -2.4316e-20)
(0.72908 0.593412 -1.88543e-20)
(0.924123 0.706598 1.81112e-20)
(0.997813 0.700488 6.93433e-21)
(1.01698 0.644738 -8.48137e-21)
(1.01955 0.579225 1.05145e-20)
(1.01986 0.517653 2.66777e-22)
(1.0205 0.462429 3.36198e-21)
(1.02092 0.413797 3.41552e-21)
(1.02501 0.371954 2.94755e-21)
(0.328182 0.28905 -1.99529e-20)
(0.69777 0.60676 5.55461e-20)
(0.882962 0.714901 -3.77131e-20)
(0.954513 0.703806 -3.85809e-21)
(0.976015 0.645295 -1.00881e-20)
(0.982606 0.578494 6.41318e-21)
(0.986958 0.516306 -3.71975e-22)
(0.991028 0.460739 6.14209e-22)
(0.995162 0.411421 2.5527e-21)
(1.00441 0.369501 -3.68121e-22)
(0.31452 0.297902 -1.83553e-22)
(0.663987 0.616251 -1.61353e-20)
(0.839997 0.719145 1.19901e-20)
(0.91017 0.703565 -8.75122e-21)
(0.934505 0.642836 -2.23664e-21)
(0.94534 0.575194 1.94148e-21)
(0.95377 0.512725 4.12995e-21)
(0.961425 0.45697 -4.99729e-21)
(0.970075 0.406706 -1.04051e-20)
(0.98447 0.364806 6.15707e-21)
(0.299215 0.304663 3.06769e-21)
(0.628174 0.621756 2.44175e-22)
(0.79565 0.719243 3.7962e-22)
(0.865132 0.699708 -4.24419e-21)
(0.892716 0.637323 -1.24345e-21)
(0.90795 0.569303 -8.64189e-21)
(0.920498 0.506923 -2.14828e-21)
(0.93199 0.451276 -2.38758e-21)
(0.945614 0.399927 1.79391e-20)
(0.961907 0.353991 -2.58699e-21)
(0.2825 0.309199 -1.05576e-20)
(0.590767 0.623179 -5.92029e-21)
(0.750348 0.715149 3.31699e-21)
(0.819746 0.692205 1.71886e-21)
(0.850914 0.628736 -5.69405e-21)
(0.870657 0.560799 2.02902e-20)
(0.887417 0.498867 -1.6582e-20)
(0.902956 0.443747 2.04668e-20)
(0.920538 0.393164 -1.42386e-20)
(0.936444 0.348786 -2.00663e-20)
(0.264626 0.31141 3.7609e-21)
(0.552199 0.620456 -4.09036e-21)
(0.704513 0.706852 1.82701e-21)
(0.774354 0.681054 8.2849e-21)
(0.809364 0.617071 -5.13271e-21)
(0.833691 0.549666 7.58658e-21)
(0.854739 0.488505 9.3369e-21)
(0.874346 0.434068 -4.98672e-21)
(0.895343 0.384001 -1.58525e-20)
(0.912256 0.339808 2.13296e-20)
(0.245851 0.311224 4.95055e-21)
(0.512899 0.613562 5.8101e-21)
(0.65856 0.694373 -7.49085e-21)
(0.729293 0.666279 -6.26352e-21)
(0.768334 0.60235 3.01599e-20)
(0.797275 0.535925 -3.17035e-20)
(0.822612 0.475899 3.99224e-20)
(0.84615 0.422516 -9.75617e-21)
(0.870212 0.373581 1.05909e-20)
(0.888819 0.330631 2.10456e-20)
(0.226438 0.308597 -8.36209e-22)
(0.473296 0.602508 -7.31769e-21)
(0.612894 0.67776 -7.23312e-21)
(0.684894 0.647932 -3.07765e-21)
(0.728086 0.58461 5.67748e-21)
(0.76163 0.519603 -9.61516e-21)
(0.791209 0.461052 -1.17836e-20)
(0.818542 0.409004 -2.76676e-20)
(0.845539 0.361444 2.77742e-20)
(0.866292 0.319942 -8.51794e-21)
(0.206651 0.303516 1.98424e-20)
(0.433808 0.587345 -3.28593e-21)
(0.567907 0.657094 -1.03164e-20)
(0.641478 0.626086 1.20993e-20)
(0.688879 0.563913 -2.13261e-20)
(0.726967 0.50075 6.03545e-20)
(0.760697 0.444023 -3.25117e-20)
(0.791687 0.393632 2.9752e-20)
(0.821553 0.347768 -5.44567e-20)
(0.844691 0.307904 -1.46292e-20)
(0.186753 0.295992 -4.52975e-21)
(0.394843 0.568156 2.1279e-20)
(0.523981 0.632484 4.45935e-21)
(0.599354 0.60084 -1.17889e-20)
(0.650962 0.540339 -2.06528e-20)
(0.693493 0.479434 -3.44048e-23)
(0.731248 0.424864 1.08358e-20)
(0.765755 0.376431 -2.73015e-20)
(0.798416 0.332521 1.3081e-20)
(0.824048 0.294435 1.67364e-21)
(0.167001 0.286066 -3.70577e-20)
(0.356795 0.545062 -8.82476e-21)
(0.48148 0.604069 -2.71904e-21)
(0.55882 0.572317 3.16246e-20)
(0.614577 0.513989 -2.9903e-20)
(0.661407 0.455737 -7.39312e-21)
(0.703034 0.403651 -4.78605e-21)
(0.740906 0.357464 8.50029e-21)
(0.776269 0.315748 -1.12526e-20)
(0.804425 0.279575 -1.73773e-20)
(0.147648 0.273803 3.44063e-20)
(0.320042 0.518214 -1.98873e-20)
(0.44075 0.572012 7.1966e-22)
(0.520158 0.540661 -4.85695e-20)
(0.579954 0.484983 5.30315e-20)
(0.630903 0.429761 -1.68004e-20)
(0.67622 0.38047 1.00439e-20)
(0.717289 0.336802 8.82096e-21)
(0.755235 0.297493 2.55541e-20)
(0.785893 0.263371 -1.07611e-20)
(0.128934 0.259294 -1.3843e-20)
(0.284942 0.487794 4.16248e-20)
(0.402118 0.536506 2.36541e-20)
(0.483638 0.506038 3.94083e-20)
(0.547311 0.453459 -8.96691e-21)
(0.602163 0.401622 3.70589e-21)
(0.650964 0.35542 2.9739e-20)
(0.695043 0.314527 6.77553e-21)
(0.735431 0.27782 6.58581e-22)
(0.768526 0.245893 -1.29895e-20)
(0.111089 0.242653 -3.37402e-20)
(0.251831 0.454014 -2.33346e-21)
(0.365891 0.497764 -1.41738e-20)
(0.449509 0.468634 -6.42511e-20)
(0.516854 0.419572 -6.23201e-20)
(0.575361 0.371452 1.03238e-20)
(0.627415 0.328615 -2.56025e-20)
(0.674296 0.290732 1.65857e-20)
(0.716964 0.25681 8.96716e-21)
(0.752398 0.227222 1.83793e-20)
(0.0943293 0.224013 5.07189e-20)
(0.221021 0.417112 -4.15536e-20)
(0.332351 0.456024 -2.12646e-20)
(0.418004 0.428652 3.72528e-20)
(0.488773 0.383494 4.2768e-20)
(0.550659 0.339398 -1.43884e-20)
(0.605712 0.300181 -1.96397e-21)
(0.655169 0.265524 -5.13692e-20)
(0.699938 0.234552 -2.9006e-20)
(0.73758 0.207451 1.11075e-20)
(0.0788534 0.203533 -2.9029e-20)
(0.192797 0.377351 1.21879e-20)
(0.301759 0.411545 4.52791e-20)
(0.389335 0.386316 -2.06379e-20)
(0.463245 0.345412 1.77637e-21)
(0.528204 0.305619 5.78171e-20)
(0.585982 0.270254 2.55026e-21)
(0.637772 0.239019 4.96014e-20)
(0.684448 0.21115 2.06433e-20)
(0.72414 0.186678 -3.28454e-20)
(0.0648433 0.181384 4.10109e-20)
(0.167419 0.335015 4.68024e-21)
(0.274346 0.364603 3.05057e-21)
(0.363694 0.341863 4.1713e-20)
(0.440426 0.305528 -5.45638e-21)
(0.508132 0.270287 -3.64144e-20)
(0.568339 0.238981 1.78404e-20)
(0.622207 0.211343 -2.85855e-20)
(0.670581 0.186713 -1.18707e-20)
(0.712139 0.165008 1.19949e-20)
(0.0524608 0.157758 -2.55354e-20)
(0.145114 0.29041 -4.9364e-20)
(0.250319 0.315494 1.15172e-20)
(0.341251 0.295546 -2.24864e-20)
(0.420458 0.264054 -1.34696e-20)
(0.490562 0.233584 3.28606e-20)
(0.552888 0.206521 -7.94197e-21)
(0.608563 0.182633 7.23421e-21)
(0.658417 0.16136 -8.86597e-21)
(0.701633 0.14255 1.76893e-20)
(0.0418468 0.13286 9.41217e-21)
(0.126082 0.243856 3.34352e-20)
(0.229857 0.264526 -4.66263e-20)
(0.322151 0.247629 2.19609e-20)
(0.403464 0.221214 -1.00322e-20)
(0.475597 0.195703 -2.82211e-20)
(0.539718 0.173038 2.30949e-20)
(0.59692 0.15303 4.78668e-21)
(0.648025 0.135219 -7.3952e-22)
(0.692669 0.119416 -2.05581e-20)
(0.0331203 0.106906 3.1265e-21)
(0.110487 0.195692 1.0915e-20)
(0.213108 0.21202 4.23877e-20)
(0.30652 0.198387 -8.17058e-21)
(0.389544 0.177241 -6.43999e-21)
(0.463326 0.156842 2.35383e-21)
(0.528903 0.138706 1.13037e-21)
(0.587344 0.122684 8.63095e-21)
(0.639464 0.108419 -1.13602e-20)
(0.685288 0.0957209 -7.21133e-21)
(0.0263768 0.0801242 -7.75822e-21)
(0.0984636 0.146267 -1.32755e-20)
(0.200193 0.158308 -3.31624e-20)
(0.294455 0.148104 1.66995e-20)
(0.378782 0.132377 1.35887e-20)
(0.453818 0.117209 5.80398e-22)
(0.520505 0.103701 -2.27011e-20)
(0.57989 0.0917493 -1.01089e-20)
(0.632784 0.0810969 7.95849e-21)
(0.679524 0.0715833 8.54092e-21)
(0.0216879 0.052749 1.36398e-21)
(0.0901106 0.095938 -2.81488e-21)
(0.191201 0.103731 6.28514e-21)
(0.28603 0.0970708 -4.25145e-21)
(0.37124 0.0868675 -3.78653e-21)
(0.447127 0.0770158 -2.56141e-21)
(0.51457 0.0682067 4.69092e-21)
(0.574598 0.0603838 1.78734e-20)
(0.628021 0.0533912 2.57653e-21)
(0.675399 0.0471188 -4.56388e-21)
(0.0191007 0.0250212 1.68365e-21)
(0.0854931 0.0450709 -4.63095e-21)
(0.18619 0.0486343 -5.25055e-21)
(0.281294 0.0455827 -3.64083e-21)
(0.366956 0.0409638 3.46444e-21)
(0.443287 0.0364775 1.56216e-21)
(0.511127 0.0324091 -1.55433e-21)
(0.571497 0.0287488 -7.0878e-21)
(0.625198 0.0254421 2.33274e-21)
(0.672929 0.0224414 -2.17866e-21)
(0.0186374 -0.00281529 -1.69715e-21)
(0.0846414 -0.00596527 4.66694e-21)
(0.185188 -0.00663383 5.28652e-21)
(0.280269 -0.00606204 -5.05654e-21)
(0.365952 -0.00508102 4.45038e-21)
(0.442314 -0.00418828 2.22689e-21)
(0.510192 -0.00350429 -3.55249e-21)
(0.570598 -0.00299211 -4.13222e-21)
(0.624326 -0.00260418 6.10382e-22)
(0.67211 -0.00231123 -1.71703e-21)
(0.0202948 -0.0305157 1.85969e-21)
(0.0875511 -0.0568006 -5.55901e-21)
(0.18819 -0.0617231 1.25075e-20)
(0.282952 -0.0575644 -1.09724e-20)
(0.368224 -0.051013 -5.0938e-22)
(0.444207 -0.0447637 -7.26831e-21)
(0.511762 -0.0393456 1.18119e-20)
(0.571902 -0.0346763 1.60561e-20)
(0.625414 -0.0306064 2.87771e-21)
(0.67298 -0.0270297 -6.18735e-21)
(0.0240448 -0.0578367 -1.61649e-21)
(0.0941824 -0.107067 -1.18466e-20)
(0.19516 -0.116285 -2.74825e-20)
(0.289315 -0.108627 2.37517e-20)
(0.373748 -0.0965796 4.9115e-21)
(0.448945 -0.0850319 4.32662e-21)
(0.515821 -0.0749279 -2.13363e-20)
(0.575394 -0.0661422 -1.25412e-20)
(0.628441 -0.0584259 -2.77133e-21)
(0.675497 -0.051613 1.9129e-20)
(0.0298342 -0.0845389 -5.70819e-21)
(0.104461 -0.1564 7.11493e-21)
(0.206034 -0.169975 5.00257e-20)
(0.299302 -0.158955 -4.46494e-21)
(0.382479 -0.141531 -1.27992e-20)
(0.45649 -0.124778 9.20616e-21)
(0.522335 -0.110066 5.69861e-22)
(0.581044 -0.0972289 3.24949e-21)
(0.633382 -0.0859193 -7.07793e-21)
(0.679651 -0.0759288 -1.8721e-20)
(0.0375856 -0.110389 -3.87806e-21)
(0.118279 -0.204443 2.10087e-20)
(0.220712 -0.222456 -5.04996e-20)
(0.312833 -0.208259 2.19278e-20)
(0.394351 -0.185622 1.96932e-22)
(0.466785 -0.163793 -2.77191e-20)
(0.531257 -0.14458 1.22008e-20)
(0.58881 -0.127779 -1.10758e-21)
(0.640201 -0.112949 4.6351e-21)
(0.685415 -0.0998616 -1.44812e-21)
(0.0471974 -0.135162 -4.44537e-20)
(0.135494 -0.25085 -5.29908e-20)
(0.239067 -0.273396 1.38091e-20)
(0.329803 -0.256258 -2.50982e-20)
(0.409277 -0.228614 -7.15197e-21)
(0.479757 -0.201871 1.05506e-20)
(0.542521 -0.178291 3.93732e-21)
(0.598635 -0.15764 1.46419e-20)
(0.648848 -0.13938 -3.15766e-21)
(0.692758 -0.123298 1.68595e-20)
(0.0585454 -0.158643 4.254e-20)
(0.155931 -0.295287 2.72622e-20)
(0.260943 -0.322478 -2.07539e-20)
(0.350084 -0.30268 3.48677e-20)
(0.427149 -0.270277 -3.04489e-21)
(0.495315 -0.238814 -3.75995e-20)
(0.556051 -0.211031 6.6092e-21)
(0.610451 -0.186665 -3.98254e-20)
(0.659263 -0.165084 1.49869e-21)
(0.701638 -0.146125 1.44821e-20)
(0.0714833 -0.180631 -3.19322e-20)
(0.179383 -0.337436 5.70347e-20)
(0.286152 -0.369395 2.22967e-20)
(0.373522 -0.347262 -2.74023e-20)
(0.447841 -0.310389 1.42568e-22)
(0.513351 -0.274435 6.9441e-20)
(0.571755 -0.242636 3.22504e-21)
(0.624177 -0.214712 3.08066e-20)
(0.671375 -0.189937 3.74927e-20)
(0.712005 -0.168232 -2.10078e-20)
(0.0858441 -0.200941 1.79142e-20)
(0.205613 -0.376997 -8.5382e-21)
(0.314481 -0.413858 -2.02966e-20)
(0.399941 -0.389756 1.54393e-20)
(0.471209 -0.348741 5.86245e-20)
(0.533743 -0.308553 -2.04713e-20)
(0.589527 -0.272951 -3.28463e-21)
(0.639721 -0.241649 -4.4688e-20)
(0.685104 -0.213821 -5.52425e-20)