/*--------------------------------*- C++ -*----------------------------------*\
  =========                 |
  \\      /  F ield         | OpenFOAM: The Open Source CFD Toolbox
   \\    /   O peration     | Website:  https://openfoam.org
    \\  /    A nd           | Version:  7
     \\/     M anipulation  |
\*---------------------------------------------------------------------------*/
FoamFile
{
    version     2.0;
    format      ascii;
    class       volScalarField;
    location    "375";
    object      p;
}
// * * * * * * * * * * * * * * * * * * * * * * * * * * * * * * * * * * * * * //

dimensions      [0 2 -2 0 0 0 0];

internalField   nonuniform List<scalar> 
2125
(
-0.413943
-0.457169
-0.422379
-0.497954
-0.464132
-0.43077
-0.552338
-0.529729
-0.502484
-0.47097
-0.439222
-0.563811
-0.549252
-0.530333
-0.50669
-0.47774
-0.447845
-0.568016
-0.557821
-0.54592
-0.530508
-0.510604
-0.484483
-0.456746
-0.569297
-0.560863
-0.552086
-0.542496
-0.530343
-0.514256
-0.491217
-0.466053
-0.562013
-0.554295
-0.546713
-0.539129
-0.529949
-0.517672
-0.497955
-0.475836
-0.562024
-0.555462
-0.548368
-0.541798
-0.535959
-0.529453
-0.520895
-0.504657
-0.486298
-0.561163
-0.555723
-0.54965
-0.543127
-0.537436
-0.533115
-0.528993
-0.523963
-0.511353
-0.497258
-0.555123
-0.550182
-0.544567
-0.538599
-0.53371
-0.53072
-0.528705
-0.526936
-0.518
-0.508942
-0.549937
-0.545349
-0.540178
-0.534783
-0.530676
-0.528878
-0.528716
-0.529892
-0.524591
-0.519961
-0.545506
-0.541146
-0.536419
-0.531642
-0.528344
-0.527656
-0.529165
-0.53274
-0.532262
-0.524862
-0.541689
-0.53746
-0.533192
-0.529093
-0.526665
-0.527058
-0.530137
-0.535487
-0.540544
-0.531931
-0.538316
-0.534156
-0.530368
-0.527016
-0.525531
-0.527018
-0.531608
-0.53826
-0.54821
-0.540065
-0.535195
-0.53108
-0.527798
-0.525249
-0.524775
-0.527392
-0.533423
-0.541155
-0.554866
-0.547604
-0.532125
-0.52807
-0.525316
-0.523611
-0.52419
-0.527964
-0.535336
-0.544123
-0.560446
-0.554432
-0.528911
-0.524965
-0.522754
-0.521906
-0.523543
-0.528461
-0.537046
-0.546947
-0.564847
-0.5608
-0.525371
-0.521609
-0.519948
-0.519938
-0.522591
-0.528591
-0.538232
-0.54928
-0.567922
-0.566599
-0.521349
-0.517864
-0.516745
-0.517523
-0.521105
-0.528068
-0.538583
-0.550724
-0.569529
-0.57139
-0.516718
-0.513609
-0.513011
-0.514497
-0.51888
-0.526639
-0.53783
-0.550902
-0.569532
-0.574646
-0.511387
-0.508745
-0.508632
-0.510724
-0.51575
-0.524106
-0.535759
-0.549519
-0.567807
-0.575922
-0.505298
-0.503206
-0.503529
-0.506105
-0.511598
-0.520332
-0.532222
-0.546383
-0.564249
-0.574905
-0.498437
-0.496953
-0.497654
-0.500585
-0.506358
-0.515244
-0.527141
-0.541394
-0.558782
-0.571401
-0.490822
-0.489985
-0.490996
-0.494149
-0.500017
-0.508835
-0.520503
-0.534534
-0.55138
-0.565296
-0.482511
-0.482332
-0.48358
-0.486825
-0.492614
-0.501153
-0.512359
-0.525864
-0.542032
-0.556554
-0.473591
-0.474059
-0.475468
-0.478687
-0.484233
-0.492296
-0.502824
-0.515598
-0.530628
-0.545267
-0.464177
-0.465252
-0.466757
-0.469838
-0.474995
-0.482404
-0.49204
-0.503766
-0.517439
-0.531563
-0.454403
-0.456028
-0.457564
-0.460411
-0.465055
-0.471654
-0.480199
-0.490593
-0.502656
-0.51554
-0.444414
-0.446517
-0.448026
-0.450561
-0.45459
-0.46025
-0.467532
-0.476351
-0.486518
-0.497564
-0.434357
-0.436856
-0.438288
-0.440453
-0.443791
-0.448412
-0.454299
-0.461351
-0.469356
-0.478063
-0.424376
-0.427184
-0.428499
-0.430253
-0.432851
-0.436371
-0.44077
-0.445922
-0.451559
-0.457545
-0.0334547
-0.0340108
-0.0345345
-0.0350256
-0.035484
-0.0359097
-0.0363028
-0.0366632
-0.0369914
-0.0372866
-0.0375515
-0.0343843
-0.034957
-0.0354963
-0.036002
-0.0364741
-0.0369126
-0.0373176
-0.0376891
-0.0380278
-0.0383337
-0.0386108
-0.0361232
-0.0367245
-0.0372914
-0.037824
-0.0383222
-0.038786
-0.0392157
-0.0396114
-0.0399739
-0.0403041
-0.0406097
-0.0386071
-0.0392516
-0.0398607
-0.0404344
-0.0409728
-0.041476
-0.0419441
-0.0423773
-0.0427771
-0.0431451
-0.0434943
-0.0418086
-0.0425101
-0.043175
-0.0438034
-0.0443954
-0.044951
-0.0454706
-0.0459546
-0.0464045
-0.0468239
-0.0472326
-0.0457035
-0.0464765
-0.0472117
-0.0479092
-0.0485691
-0.0491916
-0.049777
-0.0503259
-0.0508405
-0.0513264
-0.0518121
-0.0502884
-0.0511485
-0.0519695
-0.0527516
-0.0534949
-0.0541996
-0.0548663
-0.0554955
-0.0560905
-0.0566592
-0.0572415
-0.0555661
-0.0565302
-0.0574539
-0.0583373
-0.0591808
-0.0599847
-0.0607496
-0.0614763
-0.0621693
-0.0628393
-0.0635406
-0.0615486
-0.0626351
-0.0636799
-0.0646832
-0.0656455
-0.0665671
-0.067449
-0.0682923
-0.0691028
-0.0698951
-0.0707409
-0.0682536
-0.0694826
-0.0706687
-0.0718123
-0.0729138
-0.0739738
-0.0749937
-0.0759749
-0.076925
-0.0778631
-0.0788825
-0.0757035
-0.0770973
-0.078447
-0.0797531
-0.0810165
-0.0822379
-0.083419
-0.0845617
-0.0856762
-0.0867867
-0.0880127
-0.0822959
-0.0839247
-0.0855075
-0.0870452
-0.0885387
-0.089989
-0.0913971
-0.0927654
-0.0940962
-0.0954027
-0.0967159
-0.0981864
-0.0911007
-0.0929459
-0.0947442
-0.0964967
-0.0982046
-0.0998696
-0.101493
-0.103078
-0.104627
-0.106157
-0.107708
-0.109465
-0.100708
-0.102798
-0.10484
-0.106836
-0.108787
-0.110697
-0.112566
-0.114398
-0.116199
-0.117988
-0.119816
-0.12191
-0.111147
-0.113512
-0.115828
-0.118098
-0.120324
-0.12251
-0.124658
-0.126772
-0.128859
-0.130944
-0.133088
-0.13557
-0.12245
-0.125121
-0.127743
-0.13032
-0.132855
-0.135351
-0.137812
-0.140245
-0.142657
-0.14508
-0.14759
-0.150519
-0.134648
-0.137657
-0.140618
-0.143536
-0.146414
-0.149257
-0.15207
-0.15486
-0.157638
-0.160443
-0.163368
-0.166806
-0.147768
-0.151149
-0.154484
-0.157778
-0.161035
-0.164263
-0.167467
-0.170657
-0.173845
-0.177079
-0.180471
-0.184485
-0.16184
-0.165628
-0.169371
-0.173076
-0.176748
-0.180397
-0.18403
-0.187661
-0.191307
-0.195021
-0.198941
-0.203601
-0.176891
-0.181119
-0.185303
-0.189455
-0.19358
-0.19769
-0.201791
-0.205902
-0.210044
-0.214285
-0.218794
-0.224179
-0.192943
-0.19764
-0.202296
-0.206925
-0.211536
-0.216147
-0.220763
-0.225408
-0.230096
-0.234912
-0.240058
-0.24624
-0.210016
-0.21521
-0.220366
-0.2255
-0.230621
-0.235756
-0.240912
-0.246136
-0.251432
-0.25691
-0.262766
-0.269833
-0.22812
-0.233833
-0.239514
-0.245186
-0.25085
-0.256546
-0.262256
-0.268072
-0.273972
-0.280175
-0.28682
-0.294931
-0.247263
-0.253506
-0.259719
-0.265945
-0.272179
-0.278496
-0.284831
-0.291332
-0.297853
-0.3048
-0.312182
-0.321486
-0.267452
-0.27423
-0.280976
-0.287748
-0.294532
-0.301458
-0.308428
-0.315733
-0.323029
-0.330975
-0.339113
-0.349752
-0.288637
-0.295942
-0.303225
-0.31055
-0.317882
-0.325381
-0.332884
-0.340873
-0.348835
-0.357996
-0.367126
-0.37964
-0.310745
-0.318518
-0.326289
-0.334139
-0.342046
-0.350183
-0.358319
-0.367
-0.375422
-0.385492
-0.395214
-0.410125
-0.333879
-0.342029
-0.350187
-0.358448
-0.366846
-0.375582
-0.384515
-0.394215
-0.403713
-0.415103
-0.425158
-0.442266
-0.358284
-0.366767
-0.375251
-0.383829
-0.392583
-0.401689
-0.411174
-0.421573
-0.432376
-0.445686
-0.457848
-0.478116
-0.383293
-0.391984
-0.400658
-0.409407
-0.418326
-0.427529
-0.43712
-0.44734
-0.458186
-0.470976
-0.484453
-0.506824
-0.0381261
-0.0385293
-0.038347
-0.0375026
-0.0359763
-0.0337501
-0.0308963
-0.0274282
-0.0234963
-0.0191471
-0.0146034
-0.00991339
-0.005247
-0.000553901
0.00414045
0.00898408
0.0140772
0.0194499
0.0250476
0.0307032
0.0361989
0.0408916
0.0442927
0.0441414
0.0389018
0.0312796
0.02461
0.018909
0.0141631
0.00599405
-0.0392219
-0.0396094
-0.0393558
-0.0384034
-0.0367477
-0.0343771
-0.0313707
-0.0277438
-0.0236605
-0.0191748
-0.0145284
-0.00978747
-0.0051234
-0.00047814
0.00414003
0.00890294
0.0139517
0.0193082
0.0249569
0.0307297
0.0364019
0.0413909
0.0449489
0.0445936
0.0390207
0.0311716
0.0243701
0.0187007
0.0144422
0.0061198
-0.0412988
-0.0416577
-0.0412661
-0.0401047
-0.0382001
-0.0355511
-0.0322493
-0.0283164
-0.0239416
-0.0191981
-0.0143468
-0.0095235
-0.00487067
-0.000330547
0.00413323
0.00873028
0.0136925
0.0190081
0.0247536
0.0307327
0.0367451
0.0423134
0.0461602
0.0454039
0.0392391
0.0308905
0.0238525
0.0182912
0.0149426
0.00630977
-0.0442999
-0.0446141
-0.044015
-0.0425429
-0.0402704
-0.0372104
-0.0334724
-0.0290889
-0.0242879
-0.0191808
-0.0141195
-0.00909186
-0.00447122
-0.000110276
0.0041036
0.0084427
0.0132693
0.0185128
0.0243898
0.0306396
0.0371438
0.0435887
0.0478021
0.0464385
0.0395153
0.0303183
0.0229556
0.017665
0.0155974
0.00651039
-0.0481953
-0.0484449
-0.0475621
-0.0456718
-0.0429084
-0.0392993
-0.0349796
-0.0299966
-0.0246283
-0.0190453
-0.0135889
-0.00840212
-0.00389584
0.000184553
0.00402909
0.00800523
0.0126389
0.0177727
0.0238
0.0303585
0.0374887
0.04512
0.0496919
0.0475369
0.0397882
0.0292854
0.0215557
0.0167858
0.0163098
0.00661552
-0.0529776
-0.053139
-0.0518876
-0.04946
-0.0460772
-0.041775
-0.0367148
-0.0309743
-0.0248848
-0.0186834
-0.0128086
-0.0073765
-0.0031226
0.000551996
0.00387921
0.00737182
0.0117488
0.0167321
0.0229068
0.0297856
0.0376367
0.0467574
0.051556
0.0485128
0.0399412
0.0275685
0.0195392
0.0155864
0.0169298
0.00659326
-0.0586599
-0.0587043
-0.056987
-0.0538853
-0.0497329
-0.0446019
-0.0386599
-0.0319567
-0.0249794
-0.018051
-0.0117479
-0.00654466
-0.00215504
0.000985954
0.00361353
0.00648558
0.0105399
0.0153344
0.0216292
0.0288112
0.0374103
0.0482515
0.0529918
0.0491381
0.0397688
0.0249039
0.0168146
0.0139798
0.0172596
0.006448
-0.0652693
-0.0651627
-0.0628671
-0.0589689
-0.053906
-0.0477466
-0.0406962
-0.0328652
-0.0248265
-0.0170359
-0.010179
-0.00476118
-0.000838484
0.00148378
0.00317949
0.00527769
0.00894973
0.0135266
0.0198915
0.0273268
0.0366051
0.0491876
0.0534473
0.0490999
0.0389507
0.0210255
0.0133203
0.0118723
0.0170876
0.00618249
-0.0728443
-0.0725486
-0.0695446
-0.0647057
-0.0585575
-0.0511807
-0.0428201
-0.0336403
-0.0243443
-0.0155448
-0.0080568
-0.0025393
0.000815258
0.00201095
0.00250409
0.00366635
0.00691226
0.0112653
0.0176298
0.0252354
0.0350243
0.0489102
0.0522443
0.0479446
0.0370726
0.0157892
0.00905995
0.00918876
0.016228
0.00579349
-0.0814334
-0.0809008
-0.0770782
-0.0711132
-0.0636866
-0.0548837
-0.0449865
-0.0342201
-0.0234529
-0.0134891
-0.00530174
0.000237963
0.00282456
0.0025167
0.00149146
0.001556
0.00435931
0.00851902
0.0147999
0.022465
0.032538
0.0465695
0.0485932
0.0450531
0.0337312
0.00937948
0.00416382
0.00590454
0.0145545
0.00527217
-0.0910933
-0.090251
-0.0854775
-0.0782037
-0.0692974
-0.058843
-0.0471594
-0.0345477
-0.0220771
-0.0107822
-0.0018238
0.00366806
0.00520218
0.00293557
1.91086e-05
-0.00116336
0.00122108
0.00527023
0.0113825
0.0189985
0.0291277
0.0415193
0.0418116
0.0397805
0.0286177
0.00233554
-0.00110157
0.00206882
0.0120242
0.00461758
-0.101896
-0.100727
-0.094796
-0.0860049
-0.0754007
-0.0630518
-0.0493104
-0.0345744
-0.0201504
-0.00734684
0.00246755
0.00784194
0.00794827
0.00317932
-0.00207689
-0.00461833
-0.00257076
0.00151169
0.00738877
0.0148972
0.0248852
0.0338699
0.0320238
0.0319648
0.0216302
-0.00463638
-0.00638997
-0.00221305
0.00868518
0.00384858
-0.113911
-0.112337
-0.105067
-0.0945485
-0.0820185
-0.0675164
-0.0514209
-0.034261
-0.0176187
-0.00312119
0.00765703
0.0128404
0.0110295
0.00298219
-0.00499961
-0.00895123
-0.00708051
-0.0027604
0.00286704
0.0102794
0.0199322
0.0243871
0.0200504
0.0223132
0.0130729
-0.0109999
-0.0114267
-0.00680831
0.0046658
0.00299799
-0.127212
-0.125151
-0.116339
-0.103873
-0.089181
-0.0722512
-0.0534835
-0.0335835
-0.0144477
0.00193517
0.0138202
0.018724
0.014375
0.00219609
-0.00896698
-0.0143158
-0.0123699
-0.00755207
-0.0020983
0.00528664
0.0143976
0.0142444
0.00749738
0.0120209
0.00366212
-0.0164657
-0.0160445
-0.0115685
0.000144518
0.0021041
-0.141877
-0.139245
-0.128672
-0.114028
-0.0969302
-0.0772803
-0.0555015
-0.0325346
-0.0106295
0.00783276
0.021019
0.0255223
0.017869
0.000556206
-0.0142434
-0.0208784
-0.0184973
-0.0128723
-0.00738613
7.35635e-05
0.00849861
0.0044733
-0.00421209
0.002056
-0.00577498
-0.0209093
-0.0201495
-0.0163517
-0.00468684
0.00120605
-0.157983
-0.154673
-0.142122
-0.125072
-0.10532
-0.0826393
-0.0574941
-0.0311256
-0.00618755
0.0145483
0.0292935
0.0332158
0.0213327
-0.00229957
-0.0211513
-0.0288128
-0.0255192
-0.018728
-0.0128677
-0.00520646
0.00245645
-0.00429005
-0.0143286
-0.00707168
-0.014592
-0.0243446
-0.0237049
-0.0210331
-0.00964381
0.000340804
-0.175588
-0.171494
-0.156749
-0.137073
-0.114416
-0.0883728
-0.0594935
-0.0293873
-0.00118314
0.0220205
0.0386475
0.0417139
0.024501
-0.00682462
-0.0300608
-0.038291
-0.0334881
-0.0251152
-0.0184406
-0.0104209
-0.00352578
-0.0117764
-0.0225748
-0.0151593
-0.0224087
-0.0269115
-0.0267258
-0.0255074
-0.014561
-0.00045976
-0.194763
-0.189773
-0.17262
-0.150111
-0.124297
-0.0945329
-0.0615461
-0.0273723
0.00428376
0.0301468
0.0490285
0.0508374
0.0270047
-0.0135511
-0.0413728
-0.0494693
-0.0424497
-0.0320128
-0.0240346
-0.0154701
-0.00928397
-0.0179495
-0.0289833
-0.0221834
-0.0290809
-0.0288084
-0.0292655
-0.029695
-0.0193024
-0.00117022
-0.215568
-0.209567
-0.189811
-0.164283
-0.135054
-0.101179
-0.063712
-0.0251555
0.0100351
0.0387875
0.0603116
0.060321
0.0283816
-0.0230315
-0.0554586
-0.0624677
-0.0524362
-0.0393805
-0.0295993
-0.0202928
-0.0147041
-0.0229009
-0.0337397
-0.0282219
-0.0346364
-0.0302259
-0.0313978
-0.03354
-0.0237669
-0.00177216
-0.238048
-0.230926
-0.208403
-0.179702
-0.146786
-0.108374
-0.0660623
-0.0228308
0.0159955
0.0477793
0.0722895
0.069878
0.0281916
-0.0356537
-0.0725373
-0.0773334
-0.0634538
-0.0471562
-0.0350952
-0.0248637
-0.0197183
-0.0267954
-0.0371092
-0.033396
-0.039201
-0.0313179
-0.0331977
-0.0370082
-0.0278854
-0.00225576
-0.262231
-0.253888
-0.228494
-0.196505
-0.159603
-0.116187
-0.0686759
-0.0205283
0.0219285
0.0569109
0.084624
0.0793002
0.0262794
-0.0512596
-0.0924397
-0.0939788
-0.0754587
-0.0552552
-0.0404914
-0.0291803
-0.0242981
-0.0298324
-0.0393524
-0.0378365
-0.0429401
-0.0321968
-0.0347306
-0.0400867
-0.0316127
-0.00262321
-0.288124
-0.278477
-0.250198
-0.214851
-0.173617
-0.124692
-0.0716388
-0.0184039
0.0276182
0.0658956
0.096725
0.0883651
0.0229456
-0.068878
-0.114407
-0.1121
-0.0883247
-0.0635695
-0.0457623
-0.0332496
-0.0284477
-0.0322035
-0.040785
-0.0416678
-0.0460098
-0.0329481
-0.0360502
-0.0427872
-0.0349236
-0.00288507
-0.31568
-0.304702
-0.273656
-0.234916
-0.188941
-0.133968
-0.0750471
-0.016632
0.0328203
0.074295
0.107622
0.0964346
0.0187211
-0.0867945
-0.137128
-0.131142
-0.101818
-0.0719682
-0.0508841
-0.0370811
-0.0321916
-0.034071
-0.0416201
-0.0449999
-0.0485413
-0.0336319
-0.037196
-0.0451086
-0.0378103
-0.00305646
-0.344746
-0.332529
-0.299023
-0.256889
-0.205685
-0.144103
-0.0790142
-0.0154001
0.0372531
0.0814499
0.115979
0.102135
0.0138099
-0.103222
-0.158968
-0.150364
-0.115598
-0.0803027
-0.0558326
-0.0406841
-0.0355629
-0.0355704
-0.0420181
-0.0479306
-0.0506509
-0.0342809
-0.0381926
-0.0470862
-0.0402789
-0.00315415
-0.375055
-0.361868
-0.326454
-0.280941
-0.223941
-0.155195
-0.0836747
-0.0149135
0.0405935
0.0864918
0.120334
0.103598
0.0078098
-0.117108
-0.178505
-0.168978
-0.129263
-0.0884183
-0.0605835
-0.0440662
-0.0385969
-0.0368147
-0.0421241
-0.0505473
-0.0524518
-0.0349082
-0.0390515
-0.0487518
-0.0423458
-0.00319469
-0.406154
-0.392539
-0.356047
-0.307183
-0.243773
-0.167345
-0.0891814
-0.0154128
0.0424422
0.088616
0.119602
0.0993592
0.000194565
-0.128286
-0.195742
-0.186303
-0.1424
-0.0961708
-0.0651133
-0.0472334
-0.0413283
-0.0378952
-0.0420536
-0.0529215
-0.0540368
-0.0355326
-0.0397808
-0.0501356
-0.0440348
-0.00319343
-0.437153
-0.424183
-0.387748
-0.33559
-0.265186
-0.180649
-0.0956935
-0.0171857
0.042321
0.0871467
0.113536
0.0893413
-0.0090136
-0.137193
-0.208394
-0.201793
-0.15464
-0.103439
-0.0694004
-0.0501904
-0.0437892
-0.0388844
-0.0419031
-0.0550905
-0.0554276
-0.0361892
-0.0404103
-0.0512692
-0.0453737
-0.00316379
-0.467096
-0.456226
-0.421283
-0.365925
-0.288072
-0.195157
-0.103366
-0.0205435
0.0398362
0.0819969
0.102838
0.0748885
-0.0193394
-0.144769
-0.217819
-0.215169
-0.165682
-0.110138
-0.0734289
-0.052942
-0.0460106
-0.0398373
-0.0417479
-0.0570511
-0.0565618
-0.0368806
-0.0409911
-0.0522141
-0.0463939
-0.00311731
-0.495782
-0.487964
-0.456203
-0.397871
-0.312239
-0.210793
-0.112282
-0.0257303
0.0348189
0.0735911
0.0888838
0.0572379
-0.0313146
-0.152015
-0.224829
-0.226639
-0.175368
-0.116185
-0.0771755
-0.0554943
-0.0480113
-0.040813
-0.0414801
-0.0588454
-0.0574686
-0.0374851
-0.0415119
-0.0530519
-0.0471313
-0.00306221
-0.522446
-0.517614
-0.49099
-0.430998
-0.338227
-0.228321
-0.12301
-0.0330648
0.0271482
0.0623966
0.0723193
0.03428
-0.0478059
-0.159144
-0.228391
-0.235713
-0.183828
-0.121803
-0.0806837
-0.0578315
-0.0498936
-0.0418419
-0.0413936
-0.0609246
-0.0586428
-0.0377565
-0.04181
-0.0535816
-0.0476404
-0.0030123
-0.54031
-0.535022
-0.512386
-0.452992
-0.357286
-0.242897
-0.133832
-0.0425228
0.0162002
0.0478233
0.0496568
0.00763795
-0.0657321
-0.161969
-0.225284
-0.235968
-0.187634
-0.125508
-0.0837276
-0.0594854
-0.0510829
-0.0435218
-0.0437415
-0.0637916
-0.0606488
-0.037639
-0.0417114
-0.0532384
-0.0477567
-0.00298961
-0.55161
-0.550164
-0.528582
-0.464658
-0.362059
-0.242642
-0.131944
-0.043021
0.0111869
0.0393777
0.0359706
-0.00911455
-0.0787231
-0.167864
-0.229033
-0.239531
-0.190261
-0.126808
-0.0848901
-0.0603788
-0.052025
-0.0439247
-0.044734
-0.064825
-0.0617312
-0.037706
-0.0419466
-0.0532426
-0.0480282
-0.00293456
-0.562125
-0.563498
-0.5411
-0.470756
-0.360255
-0.236299
-0.125837
-0.041278
0.0073906
0.0317382
0.0218884
-0.0254408
-0.0907506
-0.172795
-0.23289
-0.242852
-0.191607
-0.126559
-0.0849611
-0.0608681
-0.0527784
-0.0437056
-0.0454121
-0.0655961
-0.0627556
-0.0378071
-0.0422037
-0.053344
-0.0483423
-0.00282799
-0.572423
-0.576085
-0.553
-0.477343
-0.360394
-0.232941
-0.123383
-0.0432171
0.000762107
0.0218636
0.00654304
-0.0408755
-0.101526
-0.177067
-0.235591
-0.244999
-0.192433
-0.126237
-0.0850722
-0.0613722
-0.053437
-0.0435445
-0.0462046
-0.0664584
-0.0637504
-0.0379209
-0.0424138
-0.0534223
-0.0485953
-0.00269195
-0.582161
-0.587733
-0.564072
-0.483864
-0.361612
-0.23175
-0.123925
-0.0485181
-0.00846039
0.00977609
-0.00939794
-0.0552195
-0.111097
-0.180583
-0.237421
-0.246344
-0.192923
-0.126037
-0.0853989
-0.0619606
-0.0540658
-0.0436002
-0.0470806
-0.0673729
-0.064715
-0.0380494
-0.0425871
-0.0534828
-0.0487785
-0.00253568
-0.590962
-0.597913
-0.573627
-0.489408
-0.362851
-0.231682
-0.126575
-0.0565199
-0.0196997
-0.00408774
-0.0254037
-0.0684434
-0.119483
-0.183347
-0.238454
-0.247009
-0.192988
-0.125753
-0.0857812
-0.0625736
-0.0546768
-0.0438094
-0.048009
-0.0683123
-0.0656559
-0.0381938
-0.0427296
-0.05354
-0.048909
-0.00236042
-0.598418
-0.606272
-0.581386
-0.493884
-0.364291
-0.233045
-0.131619
-0.0673401
-0.0330274
-0.018645
-0.0411763
-0.0805653
-0.126718
-0.185343
-0.238666
-0.246956
-0.192569
-0.125299
-0.086141
-0.0631795
-0.0552716
-0.0441383
-0.0490172
-0.0692788
-0.0665782
-0.0383547
-0.0428435
-0.0535982
-0.0489969
-0.00216653
-0.604099
-0.612542
-0.587156
-0.497261
-0.366142
-0.236181
-0.139405
-0.0811458
-0.0487731
-0.0357038
-0.0565913
-0.0916172
-0.132834
-0.186557
-0.238037
-0.246154
-0.191665
-0.124691
-0.0864832
-0.0637786
-0.0558622
-0.0446027
-0.0501866
-0.0702753
-0.0674859
-0.0385322
-0.042931
-0.0536595
-0.0490459
-0.00195547
-0.607648
-0.616487
-0.590735
-0.499408
-0.368407
-0.241164
-0.150027
-0.0979652
-0.0671277
-0.0540719
-0.0715886
-0.101633
-0.137864
-0.186978
-0.236557
-0.244585
-0.190285
-0.12395
-0.0868207
-0.0643755
-0.0564685
-0.0452248
-0.0518259
-0.0713014
-0.0683815
-0.0387265
-0.0429946
-0.0537261
-0.049059
-0.00172925
-0.608812
-0.617869
-0.591935
-0.500171
-0.371011
-0.247927
-0.164116
-0.116874
-0.0882429
-0.0734205
-0.0861237
-0.110641
-0.141846
-0.186599
-0.234217
-0.242235
-0.188428
-0.123079
-0.0871533
-0.0649712
-0.0571124
-0.0460162
-0.0532447
-0.0723519
-0.0692669
-0.0389377
-0.0430368
-0.0538003
-0.0490402
-0.00148986
-0.607413
-0.61644
-0.590622
-0.499372
-0.373821
-0.256242
-0.180738
-0.138186
-0.1124
-0.093489
-0.100136
-0.118666
-0.14482
-0.185417
-0.231019
-0.239086
-0.186091
-0.122073
-0.0874753
-0.0655659
-0.057815
-0.0469873
-0.0547509
-0.0734214
-0.0701427
-0.0391657
-0.04306
-0.0538841
-0.0489939
-0.00123924
-0.603263
-0.611996
-0.586613
-0.496915
-0.376608
-0.266285
-0.199245
-0.161777
-0.139047
-0.114052
-0.113557
-0.12573
-0.146834
-0.183438
-0.226964
-0.235127
-0.183274
-0.12093
-0.0877813
-0.0661613
-0.058596
-0.0481463
-0.0563683
-0.0745038
-0.0710084
-0.0394104
-0.0430669
-0.0539794
-0.0489246
-0.000979259
-0.596224
-0.604403
-0.579735
-0.492681
-0.37908
-0.277494
-0.219809
-0.187758
-0.166456
-0.134812
-0.126318
-0.131859
-0.14794
-0.180673
-0.222063
-0.23035
-0.17998
-0.119644
-0.0880664
-0.0667607
-0.0594737
-0.0494991
-0.0580987
-0.0755929
-0.0718629
-0.0396713
-0.0430599
-0.0540879
-0.0488366
-0.000711753
-0.586264
-0.59356
-0.569932
-0.486488
-0.380982
-0.289734
-0.24202
-0.215622
-0.193249
-0.155404
-0.13835
-0.137084
-0.148202
-0.177142
-0.216341
-0.224754
-0.176213
-0.118213
-0.0883259
-0.0673691
-0.0604643
-0.0510488
-0.0599392
-0.0766823
-0.0727038
-0.039948
-0.0430415
-0.0542109
-0.0487343
-0.000438538
-0.573111
-0.579425
-0.556324
-0.478863
-0.382131
-0.302795
-0.265456
-0.244978
-0.220241
-0.175526
-0.149597
-0.141447
-0.147688
-0.172876
-0.209835
-0.218347
-0.171981
-0.116632
-0.0885545
-0.0679923
-0.061581
-0.0527955
-0.0618811
-0.0777653
-0.0735281
-0.0402397
-0.0430137
-0.0543497
-0.048622
-0.00016138
-0.55658
-0.562118
-0.539776
-0.46895
-0.382391
-0.316295
-0.289786
-0.275251
-0.246669
-0.194905
-0.160022
-0.144999
-0.146479
-0.16792
-0.2026
-0.211148
-0.167295
-0.114896
-0.0887463
-0.0686368
-0.0628341
-0.0547365
-0.0639123
-0.0788351
-0.0743319
-0.0405453
-0.0429788
-0.0545055
-0.0485039
0.00011801
-0.537214
-0.541714
-0.520487
-0.456834
-0.381733
-0.329896
-0.314671
-0.305746
-0.272239
-0.213308
-0.169604
-0.147801
-0.144659
-0.162336
-0.194705
-0.20319
-0.162168
-0.113002
-0.0888953
-0.0693096
-0.0642303
-0.0568665
-0.0660179
-0.079885
-0.0751106
-0.0408637
-0.0429385
-0.0546794
-0.0483842
0.000397978
-0.515472
-0.51865
-0.498815
-0.442814
-0.380173
-0.343292
-0.33962
-0.335669
-0.296726
-0.230563
-0.178339
-0.149925
-0.142321
-0.156204
-0.186238
-0.194522
-0.15662
-0.110947
-0.0889953
-0.0700175
-0.0657731
-0.0591777
-0.0681815
-0.0809083
-0.0758593
-0.0411932
-0.0428947
-0.0548723
-0.0482672
0.000676932
-0.491985
-0.493551
-0.475291
-0.427256
-0.37778
-0.356209
-0.364195
-0.364103
-0.319917
-0.246547
-0.186243
-0.151451
-0.13956
-0.149622
-0.177302
-0.185208
-0.15067
-0.108728
-0.0890395
-0.0707665
-0.0674632
-0.0616602
-0.0703856
-0.0818987
-0.0765722
-0.0415319
-0.0428487
-0.0550852
-0.0481568
0.000953336
-0.46746
-0.46714
-0.450574
-0.410609
-0.374639
-0.368395
-0.387652
-0.390702
-0.341542
-0.261177
-0.193338
-0.152467
-0.136473
-0.142705
-0.16801
-0.175313
-0.144343
-0.106345
-0.0890214
-0.0715617
-0.069298
-0.0643019
-0.0726131
-0.0828502
-0.0772436
-0.0418776
-0.0428016
)
;

boundaryField
{
    inlet
    {
        type            zeroGradient;
    }
    outlet
    {
        type            fixedValue;
        value           uniform 0;
    }
    cylinder
    {
        type            zeroGradient;
    }
    top
    {
        type            symmetryPlane;
    }
    bottom
    {
        type            symmetryPlane;
    }
    defaultFaces
    {
        type            empty;
    }
    procBoundary1to0
    {
        type            processor;
        value           nonuniform List<scalar> 
50
(
-0.405359
-0.450012
-0.450012
-0.493059
-0.493059
-0.555026
-0.528618
-0.528618
-0.569931
-0.569931
-0.575691
-0.575691
-0.577297
-0.577297
-0.576986
-0.569111
-0.569111
-0.56812
-0.56812
-0.0328662
-0.0337782
-0.0354876
-0.0379273
-0.0410706
-0.0448928
-0.0493892
-0.0545615
-0.0604202
-0.0669811
-0.0742649
-0.0742649
-0.0806204
-0.0892074
-0.0985691
-0.108733
-0.119729
-0.131587
-0.144335
-0.158001
-0.172614
-0.188198
-0.204775
-0.222363
-0.240979
-0.260634
-0.281296
-0.302939
-0.325682
-0.34973
-0.374499
)
;
    }
    procBoundary1to3
    {
        type            processor;
        value           nonuniform List<scalar> 
41
(
-0.414603
-0.417632
-0.418802
-0.420123
-0.421959
-0.424348
-0.427214
-0.430397
-0.433542
-0.436576
-0.442609
-0.440195
-0.425399
-0.393382
-0.370801
-0.37954
-0.409479
-0.415071
-0.361335
-0.274381
-0.199642
-0.153062
-0.133157
-0.135581
-0.158487
-0.165003
-0.13767
-0.103801
-0.088934
-0.0724063
-0.0712724
-0.0670894
-0.0748474
-0.0837568
-0.0778672
-0.0422276
-0.0427544
-0.0553189
-0.0480569
0.00122571
-0.0553189
)
;
    }
}


// ************************************************************************* //
