/*--------------------------------*- C++ -*----------------------------------*\
  =========                 |
  \\      /  F ield         | OpenFOAM: The Open Source CFD Toolbox
   \\    /   O peration     | Website:  https://openfoam.org
    \\  /    A nd           | Version:  7
     \\/     M anipulation  |
\*---------------------------------------------------------------------------*/
FoamFile
{
    version     2.0;
    format      ascii;
    class       surfaceScalarField;
    location    "55";
    object      phi;
}
// * * * * * * * * * * * * * * * * * * * * * * * * * * * * * * * * * * * * * //

dimensions      [0 3 -1 0 0 0 0];

internalField   nonuniform List<scalar> 
4136
(
-0.000948608
9.53558e-08
-0.00291023
1.76272e-07
2.00637e-07
-0.000948609
0.000948704
-0.00291023
0.0019618
-0.00535997
0.00244994
-0.00802039
0.00266062
-0.0107983
0.0027781
-0.0136863
0.00288819
-0.0166996
0.00301352
-0.0198566
0.00315707
-0.0231742
0.00331783
0.00349543
-0.0266695
-0.000944176
0.00189288
-0.00289928
0.0039169
-0.00534292
0.00489358
-0.00799798
0.00531567
-0.0107708
0.00555097
-0.0136538
0.00577118
-0.0166621
0.00602176
-0.0198137
0.00630875
-0.0231261
0.00663019
0.00698517
-0.0266158
-0.000935319
0.0028282
-0.0028774
0.00585898
-0.00530883
0.00732502
-0.00795316
0.00796
-0.0107159
0.00831375
-0.0135889
0.00864411
-0.0165869
0.00901977
-0.0197281
0.00944997
-0.0230298
0.00993189
0.0104638
-0.0265084
-0.000922056
0.00375025
-0.00284459
0.00778151
-0.0052577
0.00973813
-0.00788593
0.0105882
-0.0106336
0.0110614
-0.0134915
0.011502
-0.0164742
0.0120025
-0.0195997
0.0125755
-0.0228854
0.0132176
0.0139257
-0.0263474
-0.000904415
0.00465467
-0.00280088
0.00967798
-0.00518954
0.0121268
-0.00779629
0.013195
-0.0105238
0.0137889
-0.0133616
0.0143398
-0.0163239
0.0149647
-0.0194286
0.0156802
-0.0226929
0.016482
0.0173654
-0.0261326
-0.000882435
0.0055371
-0.00274632
0.0115419
-0.00510436
0.0144848
-0.00768425
0.0157749
-0.0103866
0.0164913
-0.0131994
0.0171526
-0.0161362
0.0179016
-0.0192148
0.0187588
-0.0224525
0.0197197
0.0207771
-0.0258642
-0.000856163
0.00639327
-0.00268094
0.0133666
-0.0050022
0.0168061
-0.00754981
0.0183225
-0.010222
0.0191635
-0.0130048
0.0199354
-0.0159111
0.0208079
-0.0189585
0.0218061
-0.0221642
0.0229254
0.0241553
-0.0255423
-0.000825662
0.00721893
-0.00260482
0.0151458
-0.00488307
0.0190843
-0.00739299
0.0208324
-0.01003
0.0218005
-0.0127779
0.0226833
-0.0156488
0.0236787
-0.0186597
0.0248171
-0.0218282
0.0260938
0.0274944
-0.0251673
-0.000791003
0.00800993
-0.00251803
0.0168728
-0.00474701
0.0213133
-0.00721379
0.0232992
-0.0098107
0.0243974
-0.0125188
0.0253914
-0.0153492
0.0265091
-0.0183188
0.0277867
-0.0214448
0.0292197
0.0307889
-0.0247393
-0.000752275
0.00876221
-0.00242065
0.0185412
-0.00459407
0.0234867
-0.00701224
0.0257173
-0.00956407
0.0269493
-0.0122276
0.0280549
-0.0150127
0.0292942
-0.0179359
0.0307099
-0.0210143
0.0322981
0.0340336
-0.024259
-0.00070958
0.00947179
-0.00231281
0.0201444
-0.00442431
0.0255982
-0.00678836
0.0280814
-0.00929017
0.0294511
-0.0119043
0.030669
-0.0146393
0.0320292
-0.0175112
0.0335819
-0.0205372
0.0353241
0.0372233
-0.0237269
-0.000663038
0.0101348
-0.00219464
0.021676
-0.0042378
0.0276414
-0.00654219
0.0303858
-0.00898905
0.0318979
-0.0115491
0.033229
-0.0142292
0.0347093
-0.0170451
0.0363978
-0.0200139
0.0382928
0.0403534
-0.023144
-0.00061279
0.0107476
-0.0020663
0.0231295
-0.00403463
0.0296097
-0.00627376
0.0326249
-0.00866078
0.0342849
-0.011162
0.0357302
-0.0137825
0.0373299
-0.0165377
0.039153
-0.0194449
0.0412
0.0434197
-0.0225112
-0.000558998
0.0113066
-0.00192799
0.0244985
-0.00381493
0.0314967
-0.00598314
0.0347931
-0.00830542
0.0366072
-0.0107433
0.0381681
-0.0132996
0.0398862
-0.0159893
0.0418426
-0.0188307
0.0440414
0.0464188
-0.0218297
-0.000501847
0.0118085
-0.00177995
0.0257766
-0.00357885
0.0332956
-0.0056704
0.0368847
-0.00792304
0.0388599
-0.010293
0.040538
-0.0127805
0.0423737
-0.0153998
0.044462
-0.0181715
0.0468131
0.0493483
-0.0211011
-0.00044155
0.01225
-0.00162246
0.0269575
-0.00332659
0.0349997
-0.00533564
0.0388937
-0.00751373
0.041038
-0.00981133
0.0428356
-0.0122255
0.0447879
-0.0147693
0.0470058
-0.0174672
0.049511
0.0522082
-0.0203271
-0.000378347
0.0126284
-0.00145586
0.028035
-0.00305838
0.0366022
-0.004979
0.0408143
-0.00707759
0.0431366
-0.00929844
0.0450564
-0.0116351
0.0471245
-0.0140974
0.0494681
-0.0167156
0.0521291
0.0550022
-0.0195095
-0.000312509
0.0129409
-0.00128055
0.0290031
-0.0027745
0.0380962
-0.00460065
0.0426405
-0.00661479
0.0451507
-0.00875457
0.0471962
-0.0110102
0.0493802
-0.0133862
0.0518441
-0.015916
0.0546589
0.0577406
-0.0186544
-0.000244348
0.0131852
-0.00109701
0.0298558
-0.00247531
0.0394745
-0.00420083
0.044366
-0.00612547
0.0470753
-0.00817948
0.0492502
-0.0103499
0.0515505
-0.0126328
0.0541271
-0.0150453
0.0570714
0.0604496
-0.0177542
-0.000174244
0.0133595
-0.000905746
0.0305873
-0.0021612
0.0407299
-0.00377984
0.0459846
-0.00561003
0.0489055
-0.00757397
0.0512142
-0.00965713
0.0536337
-0.0118605
0.0563304
-0.0141495
0.0593605
0.0631733
-0.0168733
-0.0001028
0.0134623
-0.000707238
0.0311917
-0.00183264
0.0418553
-0.00333806
0.0474901
-0.0050688
0.0506363
-0.00693814
0.0530835
-0.00892568
0.0556212
-0.0110433
0.058448
-0.0133012
0.0616183
0.0653989
-0.0155267
-3.18711e-05
0.0134941
-0.000501582
0.0316614
-0.00149024
0.042844
-0.00287594
0.0488758
-0.00450198
0.0522623
-0.00627261
0.0548541
-0.00815876
0.0575074
-0.0101683
0.0604576
-0.0123044
0.0637544
0.0676604
-0.0145659
4.36082e-05
0.0134505
-0.000287546
0.0319926
-0.00113492
0.0436914
-0.00239409
0.0501349
-0.00391009
0.0537783
-0.00557841
0.0565224
-0.00736117
0.0592902
-0.00926375
0.0623602
-0.011305
0.0657957
0.0698195
-0.0134641
0.000119381
0.0133311
-5.63588e-05
0.0321683
-0.000768382
0.0444034
-0.00189291
0.0512595
-0.00329387
0.0551793
-0.00485657
0.0580851
-0.0065349
0.0609685
-0.00833109
0.0641564
-0.0102642
0.0677288
0.0718612
-0.0123059
0.000189929
0.0131412
0.000150603
0.0322076
-0.000392637
0.0449466
-0.00137301
0.0522398
-0.00265445
0.0564607
-0.00410767
0.0595384
-0.00567937
0.0625402
-0.00736703
0.065844
-0.00918704
0.0695488
0.0737859
-0.0111117
0.000258239
0.012883
0.000364387
0.0321015
1.55927e-05
0.0452954
-0.000836474
0.0530919
-0.0019926
0.0576168
-0.00333202
0.0608778
-0.00479423
0.0640024
-0.00637055
0.0674203
-0.00807468
0.0712529
0.075596
-0.00988483
0.000325558
0.0125574
0.000580242
0.0318468
0.000385846
0.0454898
-0.000289454
0.0537672
-0.00130897
0.0586363
-0.00253028
0.0620991
-0.00387994
0.0653521
-0.00534214
0.0688825
-0.00692698
0.0728377
0.0772866
-0.00861756
0.000390264
0.0121672
0.000796229
0.0314408
0.000782692
0.0455034
0.000273832
0.0542761
-0.00060533
0.0595155
-0.00170336
0.0631971
-0.00293725
0.0665859
-0.00428256
0.0702278
-0.00574524
0.0743004
0.0788511
-0.00730975
0.000451546
0.0117156
0.0010104
0.030882
0.00118366
0.0453301
0.000848366
0.0546114
0.000117409
0.0602465
-0.000852163
0.0641667
-0.00196692
0.0677007
-0.00319243
0.0714534
-0.00453089
0.0756389
0.0802854
-0.00596517
0.000508486
0.0112071
0.00121972
0.0301707
0.00158536
0.0449645
0.00143434
0.0547624
0.000859003
0.0608218
1.51461e-05
0.0650106
-0.000970273
0.0686861
-0.00207274
0.0725558
-0.00328524
0.0768514
0.0815871
-0.00458699
0.000560097
0.010647
0.0014213
0.0293095
0.00198487
0.0444009
0.00202745
0.0547198
0.0016179
0.0612314
0.000918658
0.0657098
4.49481e-05
0.0695598
-0.000925747
0.0735265
-0.00200867
0.0779343
0.0827562
-0.00317775
0.000605476
0.0100415
0.00161236
0.0283027
0.00237841
0.0436349
0.00262434
0.0544738
0.00238996
0.0614657
0.00183689
0.0662629
0.00110138
0.0702953
0.000244932
0.074383
-0.000696037
0.0788753
0.0838044
-0.00174421
0.000643825
0.00939772
0.00179003
0.0271565
0.0027616
0.0426633
0.00322083
0.0540146
0.00317235
0.0615142
0.00277358
0.0666616
0.00217265
0.0708963
0.00145234
0.0751033
0.000636674
0.079691
0.084749
-0.000307971
0.000674441
0.00872328
0.00195129
0.0258796
0.00312962
0.0414849
0.003812
0.0533322
0.00396128
0.061365
0.0037259
0.066897
0.00326514
0.071357
0.00267599
0.0756924
0.00199419
0.0803727
0.0855151
0.0012281
0.000696753
0.00802653
0.00209292
0.0244834
0.00347713
0.0401007
0.00439207
0.0524173
0.00475203
0.061005
0.00469058
0.0669585
0.00437663
0.071671
0.00392328
0.0761458
0.00338227
0.0809138
0.0861285
0.0027689
0.000710369
0.00731616
0.00221184
0.022982
0.00379834
0.0385142
0.00495435
0.0512613
0.00553882
0.0604205
0.00566358
0.0668337
0.00550432
0.0718302
0.00519124
0.0764589
0.00478953
0.0813155
0.0865976
0.00432041
0.000715106
0.00660105
0.00230531
0.0213918
0.00408706
0.0367325
0.00549115
0.0498572
0.00631468
0.059597
0.00663972
0.0665087
0.00664443
0.0718255
0.00647584
0.0766275
0.00621371
0.0815776
0.0869242
0.00588716
0.000710993
0.00589006
0.00237091
0.0197318
0.00433681
0.0347666
0.00599376
0.0482003
0.00707126
0.0585195
0.00761258
0.0659674
0.00779249
0.0716456
0.00777379
0.0766461
0.00765315
0.0816982
0.0871084
0.00746894
0.000698281
0.00519178
0.00240673
0.0180234
0.00454101
0.0326323
0.00645243
0.0462888
0.00779867
0.0571732
0.00857426
0.0651918
0.00894316
0.0712767
0.00908184
0.0765075
0.00910577
0.0816743
0.0871497
0.0090644
0.000677449
0.00451433
0.0024116
0.0162892
0.00469334
0.0303506
0.0068566
0.0441256
0.0084854
0.0555444
0.00951511
0.0641621
0.0100898
0.070702
0.0103959
0.0762014
0.0105688
0.0815013
0.0870469
0.0106717
0.000649205
0.00386512
0.00238526
0.0145532
0.00478814
0.0279477
0.00719504
0.0417187
0.0091182
0.0536213
0.0104234
0.0628568
0.0112239
0.0699015
0.0117105
0.0757149
0.0120389
0.0811729
0.0867976
0.0122882
0.000614462
0.00325066
0.00232847
0.0128392
0.00482089
0.0254553
0.00745635
0.0390832
0.00968216
0.0513955
0.0112851
0.0612539
0.0123349
0.0688517
0.0130187
0.0750311
0.0135115
0.0806802
0.0863977
0.0139114
0.000574304
0.00267636
0.00224309
0.0111704
0.0047888
0.0229096
0.00762948
0.0362425
0.0101609
0.0488641
0.0120833
0.0593315
0.0134092
0.0675258
0.0143114
0.0741288
0.0149809
0.0800106
0.0858414
0.0155371
0.00052994
0.00214642
0.00213207
0.00956828
0.00469133
0.0203503
0.00770464
0.0332292
0.0105369
0.0460318
0.0127986
0.0570698
0.0144301
0.0658943
0.0155769
0.072982
0.0164398
0.0791477
0.0851206
0.0171607
0.000482647
0.00166377
0.00199925
0.00805168
0.00453065
0.0178189
0.00767429
0.0300856
0.0107925
0.0429136
0.0134087
0.0544536
0.0153771
0.0639259
0.0167998
0.0715594
0.0178784
0.078069
0.0842233
0.0187757
0.000433709
0.00123006
0.00184922
0.00663617
0.00431184
0.0153563
0.00753441
0.026863
0.010911
0.0395371
0.0138894
0.0514751
0.0162258
0.0615895
0.0179606
0.0698247
0.0192834
0.0767462
0.0831323
0.0203743
0.000384358
0.000845704
0.00168697
0.00533356
0.00404276
0.0130005
0.00728566
0.0236201
0.0108781
0.0359446
0.0142149
0.0481383
0.0169473
0.0588572
0.0190345
0.0677375
0.0206372
0.0751435
0.0818239
0.0219456
0.000335725
0.000509979
0.0015176
0.00415169
0.00373358
0.0107845
0.00693433
0.0204193
0.0106843
0.0321946
0.0143599
0.0444628
0.0175089
0.0557082
0.0199908
0.0652556
0.0219166
0.0732177
0.0234747
0.000288796
0.000221183
0.00134602
0.00309446
0.00339601
0.00873451
0.00649267
0.0173227
0.0103272
0.0283601
0.0143015
0.0404885
0.0178752
0.0521344
0.0207927
0.0623381
0.000244392
-2.32092e-05
0.00117672
0.00216214
0.00304231
0.00686892
0.00597832
0.0143867
0.0098133
0.0245251
0.0140232
0.0362785
0.0180103
0.0481474
0.000203164
-0.000226373
0.00101358
0.00135173
0.00268439
0.00519811
0.00541286
0.0116582
0.00915983
0.0207781
0.0135185
0.00016558
-0.000391953
0.000859763
0.000657542
0.00233296
0.00372491
0.00481963
0.00917153
0.000131958
-0.000523911
0.00071772
7.17799e-05
0.00199706
0.00244558
0.000102467
-0.000626378
0.000589146
-0.000414899
7.71372e-05
-0.000703516
-0.000812789
5.58614e-05
-0.000759377
0.0344255
-0.000472366
0.00140217
0.0334745
-0.00209723
0.00304827
0.0324906
-0.00437701
0.00536095
0.0314822
-0.00573855
0.00674691
0.0304317
-0.00803555
0.00908603
0.0293349
-0.00948371
0.0105805
0.028176
-0.0120385
0.0131975
0.0269469
-0.0137072
0.0149363
0.0256421
-0.0166144
0.0179192
0.0242569
-0.0184723
0.0198575
0.0228115
-0.021766
0.0232114
0.021313
-0.023575
0.0250735
0.0198256
-0.0273048
0.0287922
0.0184199
-0.0284894
0.029895
-0.0331761
0.0347227
0.0345527
0.000330284
0.0337179
-0.00126241
0.0328385
-0.00349763
0.0319253
-0.00482531
0.0309593
-0.00706963
0.0299402
-0.00846455
0.0288494
-0.0109478
0.0276851
-0.0125429
0.0264354
-0.0153647
0.0251061
-0.017143
0.023699
-0.0203589
0.0222436
-0.0221195
0.0207435
-0.0258047
0.0193177
-0.0270636
-0.0316126
0.0346748
0.00101086
0.0339531
-0.000540711
0.0331752
-0.00271972
0.0323567
-0.0040069
0.0314755
-0.00618836
0.0305365
-0.0075256
0.0295169
-0.0099282
0.028421
-0.0114469
0.0272296
-0.0141733
0.0259564
-0.0158698
0.0245875
-0.01899
0.0231688
-0.0207008
0.0216652
-0.0243011
0.0202241
-0.0256225
-0.030043
0.0347912
0.001575
0.0341777
7.28308e-05
0.0334969
-0.00203899
0.0327695
-0.0032795
0.0319696
-0.00538848
0.0311081
-0.00666401
0.0301572
-0.00897737
0.0291277
-0.0104174
0.0279928
-0.0130384
0.0267747
-0.0146517
0.0254438
-0.0176591
0.0240612
-0.0193183
0.0225618
-0.0228017
0.0211076
-0.0241683
-0.0284449
0.034902
0.00202839
0.0343908
0.000583959
0.0338027
-0.00145087
0.0331619
-0.00263869
0.0324394
-0.00466597
0.0316515
-0.0058761
0.0307659
-0.00809182
0.0297998
-0.00945125
0.0287185
-0.0119571
0.0275533
-0.0134865
0.026259
-0.0163649
0.0249102
-0.0179695
0.0234192
-0.0213107
0.0219529
-0.022702
-0.0268191
0.0350065
0.00237727
0.0345927
0.000997766
0.0340919
-0.000950154
0.0335332
-0.00208
0.032884
-0.0040167
0.032166
-0.00515814
0.0313422
-0.00726804
0.0304363
-0.00854531
0.0294056
-0.0109264
0.0282902
-0.0123711
0.0270311
-0.0151058
0.0257127
-0.0166511
0.0242323
-0.0198302
0.0227555
-0.0212252
-0.0251647
0.0351048
0.00262784
0.0347826
0.00131996
0.0343641
-0.000531718
0.0338828
-0.00159869
0.0333025
-0.00343634
0.0326506
-0.00450622
0.0318848
-0.00650228
0.0310356
-0.0076961
0.0300524
-0.00994327
0.0289833
-0.011302
0.0277578
-0.0138802
0.0264667
-0.0153601
0.0249977
-0.0183612
0.0235122
-0.0197397
-0.0234821
0.0351968
0.0027864
0.0349603
0.00155641
0.0346188
-0.000190239
0.03421
-0.00118988
0.0336941
-0.00292038
0.0331041
-0.00391621
0.0323924
-0.00579068
0.0315962
-0.00689989
0.0306574
-0.00900439
0.029631
-0.0102756
0.0284372
-0.0126864
0.0271706
-0.0140936
0.0257132
-0.0169037
0.0242203
-0.0182468
-0.021773
0.0352823
0.00285946
0.0351256
0.00171312
0.0348554
7.99275e-05
0.0345142
-0.000848653
0.034058
-0.00246419
0.0335256
-0.00338382
0.0328642
-0.00512927
0.0321171
-0.00615279
0.0312194
-0.00810664
0.030232
-0.00928822
0.029068
-0.0115224
0.0278233
-0.0128489
0.026377
-0.0154574
0.0248778
-0.0167476
-0.0200392
0.0353611
0.00285366
0.0352782
0.00179602
0.0350734
0.000284801
0.0347948
-0.000570082
0.0343936
-0.00206303
0.0339145
-0.00290464
0.0332993
-0.00451408
0.0325972
-0.00545077
0.0317374
-0.00724682
0.0307854
-0.00833616
0.029649
-0.010386
0.0284238
-0.0116238
0.0269878
-0.0140214
0.0254832
-0.015243
-0.0182829
0.0354332
0.0027758
0.0354176
0.00181163
0.0352729
0.000429467
0.0350514
-0.000348524
0.0347005
-0.00171215
0.0342699
-0.0024741
0.0336969
-0.00394106
0.0330359
-0.00478973
0.0322107
-0.00642169
0.0312903
-0.00741576
0.0301793
-0.00927499
0.0289714
-0.0104158
0.0275447
-0.0125947
0.0260352
-0.0137335
-0.0165067
0.0354983
0.00263283
0.0355437
0.00176622
0.0354534
0.000519784
0.0352835
-0.000178629
0.034978
-0.00140664
0.0345915
-0.00208756
0.0340565
-0.00340615
0.0334323
-0.00416551
0.0326386
-0.00562798
0.0317463
-0.00652342
0.0306582
-0.00818691
0.0294654
-0.00922301
0.0280469
-0.0111763
0.0265331
-0.0122196
-0.0147129
0.0355564
0.00243174
0.0356565
0.00166619
0.0356146
0.00056166
0.0354908
-5.48952e-05
0.0352258
-0.00114156
0.0348785
-0.00174026
0.0343776
-0.00290528
0.033786
-0.00357394
0.0330204
-0.00486237
0.0321527
-0.0056557
0.031085
-0.00711925
0.0299053
-0.00804324
0.0284939
-0.00976494
0.0269761
-0.0107018
-0.012904
0.0356074
0.00217963
0.0357555
0.00151809
0.0357563
0.000560941
0.0356728
2.85259e-05
0.0354434
-0.000912116
0.0351306
-0.00142742
0.0346596
-0.0024343
0.0340965
-0.00301086
0.0333556
-0.00412147
0.0325091
-0.00480922
0.0314593
-0.00606941
0.0302907
-0.00687462
0.0288854
-0.00835964
0.027364
-0.00918042
-0.0110824
0.0356513
0.00188365
0.0358408
0.00132861
0.0358782
0.000523513
0.0358293
7.74563e-05
0.0356306
-0.000713396
0.0353473
-0.00114418
0.0349021
-0.00198904
0.0343633
-0.0024721
0.0336437
-0.00340185
0.0328152
-0.00398072
0.0317806
-0.0050348
0.0306213
-0.00571531
0.0292209
-0.00695932
0.0276963
-0.00765578
-0.0092503
0.035688
0.00155103
0.035912
0.00110453
0.0359799
0.00045563
0.0359603
9.71019e-05
0.035787
-0.000540082
0.0355284
-0.000885661
0.0351047
-0.0015653
0.0345862
-0.00195356
0.0338843
-0.00270002
0.0330707
-0.00316704
0.0320487
-0.00401282
0.0308969
-0.00456354
0.0295006
-0.00556298
0.0279731
-0.00612831
-0.00740978
0.0357173
0.00118903
0.0359692
0.000852714
0.0360616
0.00036323
0.0360653
9.3368e-05
0.0359124
-0.000387193
0.0356737
-0.000646925
0.0352672
-0.00115881
0.0347647
-0.00145112
0.0340772
-0.00201248
0.0332753
-0.00236512
0.0322633
-0.00300089
0.0311175
-0.00341766
0.0297242
-0.0041697
0.0281944
-0.00459847
-0.00556279
0.0357394
0.000804955
0.0360121
0.000580056
0.0361229
0.000252401
0.0361442
7.20372e-05
0.0360067
-0.000249615
0.0357828
-0.000423031
0.0353893
-0.000765309
0.0348989
-0.000960738
0.0342221
-0.00133568
0.0334289
-0.00157194
0.0324245
-0.00199646
0.0312829
-0.00227611
0.0298918
-0.00277863
0.0283601
-0.00306677
-0.0037111
0.0357541
0.00040615
0.0360407
0.000293484
0.0361639
0.000129267
0.0361969
3.89527e-05
0.0360696
-0.000122252
0.0358556
-0.000209035
0.0354707
-0.00038048
0.0349884
-0.000478367
0.0343187
-0.000666049
0.0335314
-0.000784543
0.0325319
-0.000997008
0.0313932
-0.0011374
0.0300035
-0.00138899
0.0284706
-0.00153379
-0.00185637
0.0357615
0.036055
0.0361843
0.0362233
0.0361011
0.035892
0.0355115
0.0350332
0.0343671
0.0335826
0.0325857
0.0314483
0.0300594
0.0285258
0.202055
-0.000251626
0.202658
-0.000602727
0.203585
-0.000926569
0.204705
-0.0011199
0.206007
-0.00130226
0.207391
-0.00138421
0.208851
-0.00145977
0.210308
-0.0014567
0.211765
-0.00145714
0.213163
-0.0013982
0.214518
-0.00135467
0.215783
-0.0012653
0.216986
-0.00120266
0.218086
-0.00110052
-0.00103336
0.219119
0.192623
-0.00049068
0.193195
-0.00117476
0.194073
-0.00180467
0.195134
-0.00218128
0.196371
-0.0025389
0.197688
-0.00270109
0.199081
-0.00285236
0.200473
-0.00284931
0.20187
-0.00285375
0.203212
-0.00274044
0.204515
-0.00265755
0.205733
-0.00248331
0.206892
-0.00236192
0.207954
-0.00216189
-0.00203244
0.208953
0.183629
-0.000716406
0.184162
-0.00170764
0.184989
-0.0026311
0.185989
-0.00318115
0.187162
-0.00371209
0.188414
-0.00395322
0.189746
-0.00418418
0.191081
-0.00418449
0.192426
-0.00419921
0.193722
-0.0040361
0.194984
-0.00391999
0.196166
-0.00366488
0.197294
-0.00348988
0.198327
-0.0031948
-0.00300676
0.199301
0.175055
-0.000928542
0.175546
-0.00219838
0.176318
-0.00340362
0.177254
-0.0041172
0.178363
-0.00482126
0.179551
-0.00514108
0.180825
-0.00545807
0.182107
-0.00546651
0.183408
-0.00549987
0.184664
-0.00529245
0.185895
-0.00515056
0.187048
-0.00481873
0.188154
-0.00459577
0.189168
-0.00420801
-0.00396581
0.190127
0.16688
-0.00112692
0.167326
-0.00264451
0.168043
-0.00412061
0.168913
-0.00498703
0.169957
-0.00586532
0.17108
-0.00626409
0.172297
-0.00667547
0.173528
-0.00669784
0.174789
-0.00676012
0.176011
-0.00651465
0.177216
-0.00635578
0.178349
-0.00595155
0.17944
-0.00568706
0.180441
-0.0052087
-0.00491714
0.181392
0.159085
-0.00131136
0.159485
-0.00304408
0.160145
-0.00478091
0.160946
-0.00578815
0.161924
-0.0068427
0.16298
-0.00732073
0.164141
-0.00783647
0.165323
-0.00787932
0.166545
-0.00798253
0.167736
-0.00770603
0.168921
-0.00754036
0.170038
-0.00706843
0.171121
-0.00676969
0.172115
-0.00620264
-0.0058669
0.173064
0.151654
-0.00148157
0.152005
-0.00339569
0.152608
-0.00538383
0.153338
-0.006518
0.154247
-0.00775147
0.155235
-0.00830868
0.156338
-0.00894001
0.157469
-0.00901036
0.158655
-0.00916815
0.159817
-0.00886836
0.160985
-0.00870754
0.162089
-0.00817307
0.163168
-0.00784834
0.16416
-0.00719446
-0.00682025
0.165113
0.144568
-0.00163709
0.144871
-0.00369864
0.145416
-0.00592903
0.146072
-0.00717408
0.14691
-0.00858953
0.147827
-0.00922503
0.148871
-0.00998411
0.14995
-0.0100892
0.151098
-0.0103167
0.152232
-0.010002
0.153383
-0.00985922
0.154478
-0.00926793
0.155557
-0.00892663
0.15655
-0.0081879
-0.00778162
0.157511
0.137812
-0.00177722
0.138066
-0.00395322
0.138554
-0.0064164
0.139134
-0.00775419
0.139899
-0.00935481
0.14074
-0.0100665
0.141722
-0.0109661
0.142746
-0.0111129
0.143856
-0.0114265
0.14496
-0.0111061
0.146097
-0.0109961
0.147183
-0.0103544
0.148264
-0.0100073
0.149262
-0.00918592
-0.00875479
0.150235
0.131369
-0.00190103
0.131577
-0.00416081
0.132006
-0.00684583
0.132508
-0.00825664
0.133199
-0.0100455
0.133962
-0.0108295
0.134879
-0.0118827
0.135844
-0.0120778
0.136912
-0.0124952
0.137985
-0.0121786
0.139107
-0.012118
0.140185
-0.011433
0.14127
-0.0110922
0.142275
-0.0101909
-0.00974306
0.143263
0.125225
-0.00200743
0.125388
-0.00432395
0.12576
-0.00721703
0.126184
-0.00868068
0.126798
-0.0106601
0.127479
-0.0115106
0.128327
-0.0127305
0.129229
-0.0129795
0.130253
-0.0135192
0.131291
-0.0132164
0.132396
-0.0132235
0.133466
-0.0125032
0.134557
-0.0121827
0.13557
-0.0112045
-0.0107494
0.136577
0.119366
-0.0020953
0.119489
-0.00444624
0.119801
-0.00752941
0.120147
-0.00902689
0.120684
-0.0111973
0.121281
-0.0121068
0.122056
-0.013506
0.12289
-0.0138129
0.123865
-0.0144945
0.124864
-0.0142157
0.125951
-0.0143103
0.127011
-0.0135637
0.128108
-0.0132792
0.129131
-0.0122279
-0.0117762
0.130158
0.113779
-0.00216371
0.113865
-0.00453197
0.114118
-0.00778217
0.114388
-0.0092974
0.114847
-0.0116561
0.115356
-0.0126157
0.116056
-0.0142058
0.116816
-0.014573
0.117737
-0.0154163
0.118693
-0.0151714
0.119758
-0.0153753
0.120807
-0.0146121
0.121909
-0.0143815
0.122943
-0.0132619
-0.012826
0.123993
0.108451
-0.00221213
0.108505
-0.00458573
0.108697
-0.0079745
0.108896
-0.00949596
0.109275
-0.0120354
0.109696
-0.0130362
0.110316
-0.0148263
0.110998
-0.0152543
0.111861
-0.0162795
0.112767
-0.0160781
0.113807
-0.0164145
0.11484
-0.0156454
0.115947
-0.0154888
0.116992
-0.0143064
-0.0139005
0.118066
0.103371
-0.0022406
0.103397
-0.00461192
0.103529
-0.0081061
0.103661
-0.00962761
0.103959
-0.0123339
0.104292
-0.0133688
0.10483
-0.0153641
0.105427
-0.0158522
0.106227
-0.0170787
0.107078
-0.0169292
0.108086
-0.0174229
0.1091
-0.0166596
0.110211
-0.0165993
0.111266
-0.0153611
-0.0150016
0.112367
0.098528
-0.00224981
0.0985305
-0.00461437
0.0986019
-0.00817758
0.0986726
-0.00969824
0.0988894
-0.0125508
0.0991364
-0.0136158
0.0995878
-0.0158155
0.100098
-0.0163628
0.100828
-0.0178082
0.101617
-0.017718
0.102589
-0.018395
0.103579
-0.0176496
0.10469
-0.0177104
0.105754
-0.0164249
-0.0161303
0.106882
0.0939114
-0.00224114
0.0938931
-0.00459609
0.0939064
-0.00819086
0.0939221
-0.00971389
0.0940568
-0.0126855
0.0942219
-0.0137809
0.0945832
-0.0161768
0.095004
-0.0167837
0.0956575
-0.0184617
0.0963768
-0.0184372
0.0973063
-0.0193245
0.0982662
-0.0186095
0.0993745
-0.0188188
0.100446
-0.0174959
-0.0172874
0.101603
0.0895114
-0.00221653
0.0894745
-0.00455922
0.0894329
-0.00814927
0.0893993
-0.00968028
0.0894527
-0.0127389
0.0895409
-0.013869
0.0898084
-0.0164443
0.0901388
-0.0171141
0.0907096
-0.0190325
0.0913524
-0.01908
0.0922323
-0.0202044
0.0931549
-0.0195321
0.0942561
-0.01992
0.0953318
-0.0185716
-0.0184732
0.0965176
0.0853184
-0.00217831
0.0852642
-0.00450508
0.0851725
-0.00805751
0.0850946
-0.00960241
0.0850689
-0.0127133
0.0850856
-0.0138856
0.0852565
-0.0166152
0.0854975
-0.0173551
0.0859781
-0.0195131
0.0865385
-0.0196405
0.0873608
-0.0210267
0.0882379
-0.0204092
0.0893269
-0.021009
0.0904037
-0.0196484
-0.0196872
0.0916177
0.081323
-0.00212901
0.0812522
-0.00443436
0.0811162
-0.00792145
0.0809981
-0.00948432
0.0808974
-0.0126126
0.0808479
-0.0138361
0.0809206
-0.0166879
0.0810749
-0.0175094
0.0814573
-0.0198954
0.081931
-0.0201142
0.0826865
-0.0217821
0.0835091
-0.0212318
0.0845801
-0.0220799
0.0856531
-0.0207215
-0.0209283
0.0868943
0.077516
-0.00207112
0.0774291
-0.00434748
0.0772553
-0.00774758
0.0771001
-0.00932912
0.0769304
-0.0124429
0.0768195
-0.0137252
0.0767945
-0.0166629
0.0768656
-0.0175805
0.0771419
-0.0201717
0.0775265
-0.0204989
0.078204
-0.0224596
0.0789634
-0.0219912
0.0800097
-0.0231262
0.0810727
-0.0217845
-0.0221952
0.0823396
0.0738886
-0.00200688
0.0737861
-0.00424497
0.073581
-0.00754249
0.0733912
-0.0091393
0.07316
-0.0122117
0.0729915
-0.0135567
0.0728721
-0.0165435
0.0728634
-0.0175718
0.0730271
-0.0203354
0.0733221
-0.0207939
0.0739084
-0.0230459
0.074597
-0.0226798
0.0756106
-0.0241399
0.0766559
-0.0228298
-0.023486
0.0779467
0.0704321
-0.00193811
0.0703148
-0.00412771
0.0700847
-0.00731238
0.0698625
-0.00891708
0.0695784
-0.0119276
0.0693552
-0.0133336
0.0691476
-0.0163358
0.0690619
-0.0174861
0.0691091
-0.0203826
0.0693153
-0.0210001
0.0697955
-0.0235261
0.0704076
-0.0232919
0.0713779
-0.0251102
0.0723972
-0.0238491
-0.0247997
0.0737109
0.067138
-0.00186613
0.0670074
-0.00399709
0.0667577
-0.0070627
0.0665057
-0.00866507
0.0661773
-0.0115992
0.0659021
-0.0130585
0.0656148
-0.0160485
0.0654538
-0.017325
0.0653849
-0.0203137
0.0655028
-0.021118
0.0658625
-0.0238858
0.066395
-0.0238244
0.0673064
-0.0260216
0.0682904
-0.024833
-0.0261392
0.0696299
0.0639984
-0.00179184
0.0638563
-0.00385499
0.0635915
-0.00679791
0.063313
-0.00838654
0.0629482
-0.0112344
0.0626243
-0.0127346
0.0622675
-0.0156917
0.0620321
-0.0170896
0.0618522
-0.0201339
0.0618808
-0.0211466
0.0621084
-0.0241135
0.062561
-0.024277
0.0633919
-0.0268525
0.0643293
-0.0257704
-0.0275138
0.0657039
0.0610058
-0.00171578
0.0608544
-0.00370361
0.0605781
-0.00652161
0.0602771
-0.00808553
0.0598829
-0.0108402
0.0595147
-0.0123664
0.0590985
-0.0152755
0.0587905
-0.0167816
0.0585086
-0.0198519
0.0584447
-0.0210827
0.0585342
-0.024203
0.0589071
-0.0246499
0.0596323
-0.0275777
0.0605123
-0.0266503
-0.0289307
0.0619291
0.0581532
-0.00163835
0.0579948
-0.00354523
0.05771
-0.00623678
0.057391
-0.00776656
0.0569733
-0.0104225
0.0565668
-0.0119598
0.0561005
-0.0148093
0.0557241
-0.0164052
0.0553509
-0.0194788
0.0551909
-0.0209227
0.0551415
-0.0241535
0.0554295
-0.024938
0.0560265
-0.0281747
0.0568509
-0.0274748
-0.0303692
0.0582895
0.0554341
-0.00155991
0.0552709
-0.00338203
0.0549803
-0.00594619
0.054648
-0.00743429
0.0542124
-0.00998688
0.0537745
-0.011522
0.0532669
-0.0143017
0.0528285
-0.0159667
0.0523752
-0.0190255
0.0521167
-0.0206641
0.0519315
-0.0239684
0.0521158
-0.0251222
0.052559
-0.0286179
0.0533682
-0.0282841
-0.0317637
0.0547627
0.0528422
-0.00148089
0.0526763
-0.00321611
0.0523828
-0.00565267
0.052042
-0.00709348
0.0515939
-0.0095388
0.0511324
-0.0110604
0.0505915
-0.0137608
0.0500997
-0.0154749
0.0495758
-0.0185017
0.0492202
-0.0203085
0.0489026
-0.0236508
0.0489541
-0.0251737
0.0491849
-0.0288487
0.0500424
-0.0291415
-0.0331049
0.0513836
0.0503722
0.0502044
0.0499127
0.0495661
0.0491133
0.0486334
0.04807
0.0475314
0.046949
0.0464979
0.0460585
0.0459583
0.0459019
0.0466554
0.0482732
0.217681
0.00143819
0.216306
0.00137556
0.215005
0.00130082
0.213782
0.00122337
0.212638
0.0011433
0.211578
0.00106071
0.210602
0.000975724
0.209713
0.00088845
0.208914
0.000799011
0.208207
0.000707527
0.207593
0.000614126
0.207074
0.000518938
0.206652
0.000422101
0.206328
0.000323759
0.206104
0.000224067
0.205981
0.00012321
0.205959
2.16985e-05
0.206041
-8.19716e-05
0.206227
-0.000185928
-0.000290319
0.206517
0.207575
0.00281538
0.206259
0.00269182
0.205015
0.00254473
0.203846
0.00239239
0.202755
0.00223493
0.201743
0.00207257
0.200813
0.00190556
0.199967
0.00173413
0.199208
0.00155852
0.198536
0.00137896
0.197955
0.00119571
0.197465
0.00100903
0.197068
0.00081918
0.196765
0.00062644
0.196558
0.0004311
0.196448
0.000233485
0.196435
3.43724e-05
0.196521
-0.000168086
0.196706
-0.000371244
-0.000575345
0.196991
0.197986
0.00413037
0.19673
0.00394793
0.195544
0.00373079
0.19443
0.00350603
0.193392
0.00327382
0.19243
0.00303448
0.191547
0.0027884
0.190745
0.00253593
0.190026
0.00227741
0.189392
0.0020132
0.188844
0.00174365
0.188384
0.00146915
0.188013
0.00119009
0.187732
0.000906881
0.187544
0.000619948
0.187447
0.000329786
0.187444
3.78186e-05
0.187535
-0.000259677
0.187722
-0.000557793
-0.000857225
0.188004
0.188874
0.00538323
0.187678
0.00514409
0.186549
0.00485928
0.185491
0.00456464
0.184504
0.00426032
0.183592
0.00394678
0.182756
0.00362454
0.181997
0.00329408
0.181319
0.00295583
0.180722
0.00261026
0.180208
0.00225783
0.179778
0.00189903
0.179434
0.00153439
0.179176
0.00116442
0.179006
0.000789683
0.178925
0.000410829
0.178933
3.00356e-05
0.179032
-0.000358694
0.179222
-0.000747669
-0.00113828
0.179503
0.180201
0.00657411
0.179065
0.00628057
0.177994
0.0059305
0.17699
0.0055685
0.176055
0.00519468
0.175192
0.00480965
0.174403
0.00441409
0.173688
0.0040086
0.173051
0.0035937
0.172491
0.00316996
0.172011
0.00273792
0.171612
0.00229821
0.171295
0.00185143
0.171061
0.00139823
0.170911
0.000939309
0.170846
0.000475475
0.170866
1.06678e-05
0.170974
-0.000466494
0.171168
-0.000942382
-0.00142026
0.17145
0.171935
0.00770315
0.170858
0.00735764
0.169844
0.00694472
0.168895
0.00651791
0.168012
0.0060772
0.167198
0.00562337
0.166455
0.0051573
0.165784
0.00467969
0.165187
0.00419118
0.164664
0.00369239
0.164218
0.00318398
0.16385
0.00266664
0.16356
0.00214113
0.16335
0.00160818
0.163221
0.00106861
0.163173
0.000523413
0.163207
-2.36618e-05
0.163324
-0.000583895
0.163525
-0.00114309
-0.00170454
0.163809
0.164046
0.00877046
0.163028
0.00837546
0.16207
0.00790214
0.161175
0.0074131
0.160344
0.00690811
0.15958
0.00638816
0.158882
0.00585435
0.158255
0.00530751
0.157697
0.00474836
0.157212
0.00417758
0.1568
0.00359592
0.156463
0.00300419
0.156201
0.00240321
0.156015
0.00179385
0.155907
0.00117704
0.155876
0.000553959
0.155925
-7.2931e-05
0.156053
-0.000711815
0.156261
-0.00135081
-0.00199229
0.156549
0.156506
0.00977605
0.155547
0.00933406
0.154646