2 	-3.8991 	9.71445e-17 	1.20226 	-0.00244024 	0
2 	-3.702 	6.93889e-17 	1.20367 	-0.00717001 	0
2 	-3.51411 	5.55112e-17 	1.2063 	-0.011697 	0
2 	-3.33499 	5.55112e-17 	1.20998 	-0.015995 	0
2 	-3.16423 	8.32667e-17 	1.21453 	-0.0200707 	0
2 	-3.00143 	1.11022e-16 	1.21981 	-0.0239258 	0
2 	-2.84624 	1.249e-16 	1.2257 	-0.0275533 	0
2 	-2.69829 	1.38778e-16 	1.23205 	-0.0309495 	0
2 	-2.55725 	1.52656e-16 	1.23877 	-0.0341062 	0
2 	-2.42279 	1.52656e-16 	1.24575 	-0.0370159 	0
2 	-2.29461 	1.80411e-16 	1.25289 	-0.0396704 	0
2 	-2.17241 	2.22045e-16 	1.26013 	-0.0420627 	0
2 	-2.05592 	2.22045e-16 	1.26737 	-0.0441875 	0
2 	-1.94486 	2.35922e-16 	1.27458 	-0.0460425 	0
2 	-1.83899 	2.498e-16 	1.2817 	-0.0476289 	0
2 	-1.73806 	2.35922e-16 	1.2887 	-0.0489508 	0
2 	-1.64184 	2.35922e-16 	1.29553 	-0.0500108 	0
2 	-1.55011 	2.22045e-16 	1.30202 	-0.0507972 	0
2 	-1.46266 	1.94289e-16 	1.30764 	-0.0512595 	0
2 	-1.3793 	2.22045e-16 	1.31117 	-0.0512732 	0
2 	-1.29983 	2.22045e-16 	1.31017 	-0.0506086 	0
2 	-1.22406 	1.80411e-16 	1.30075 	-0.0489329 	0
2 	-1.15184 	1.80411e-16 	1.27765 	-0.0458783 	0
2 	-1.08298 	1.94289e-16 	1.23518 	-0.0411982 	0
2 	-1.01734 	1.80411e-16 	1.16914 	-0.0349726 	0
2 	-0.954763 	1.66533e-16 	1.07889 	-0.027748 	0
2 	-0.895107 	1.66533e-16 	0.968642 	-0.0204645 	0
2 	-0.838235 	1.66533e-16 	0.846605 	-0.0141668 	0
2 	-0.784018 	1.94289e-16 	0.722271 	-0.00965993 	0
2 	-0.732332 	2.22045e-16 	0.603571 	-0.00705149 	0
2 	-0.692472 	2.35922e-16 	0.512356 	-0.00444204 	5.56897e-21
2 	-0.662767 	2.39392e-16 	0.433297 	-0.00285365 	-9.29324e-22
2 	-0.632206 	2.25514e-16 	0.358595 	-0.00203057 	5.53007e-21
2 	-0.600818 	2.35922e-16 	0.288813 	-0.00149949 	-1.83977e-22
2 	-0.568637 	2.22045e-16 	0.224169 	-0.00116931 	-4.15972e-21
2 	-0.5357 	2.22045e-16 	0.164653 	-0.000917612 	-4.87864e-21
2 	-0.509401 	2.498e-16 	0.110112 	-0.000625392 	-1.46969e-22
2 	-0.492398 	2.63678e-16 	0.108615 	-0.0101425 	4.59957e-21
2 	-0.467705 	2.77556e-16 	0.0600981 	-0.00966849 	-7.88923e-21
2 	-0.432729 	2.63678e-16 	0.0162789 	-0.00897001 	3.52115e-21
2 	-0.397158 	2.35922e-16 	-0.0231637 	-0.00801667 	4.02422e-21
2 	-0.361038 	2.22045e-16 	-0.0585286 	-0.00678921 	6.98476e-22
2 	-0.324414 	2.22045e-16 	-0.0900401 	-0.00528431 	-6.01029e-22
2 	-0.287337 	2.22045e-16 	-0.117857 	-0.00352195 	9.63103e-22
2 	-0.249855 	2.25948e-16 	-0.14208 	-0.00157458 	7.91331e-22
2 	-0.21202 	2.29417e-16 	-0.162762 	0.000668182 	-2.36043e-22
2 	-0.173884 	2.11636e-16 	-0.179917 	0.00317069 	1.35676e-21
2 	-0.135502 	1.8735e-16 	-0.193536 	0.00574716 	-1.02355e-21
2 	-0.0969254 	1.73472e-16 	-0.203597 	0.00840895 	1.22257e-21
2 	-0.0582107 	1.59595e-16 	-0.210077 	0.0111239 	-5.26221e-22
2 	-0.0194128 	1.45717e-16 	-0.212961 	0.0138395 	8.25826e-23
2 	0.0194128 	6.93889e-17 	-0.212249 	0.016502 	2.25975e-23
2 	0.0582107 	6.245e-17 	-0.207964 	0.0190569 	3.0197e-22
2 	0.0969254 	7.63278e-17 	-0.20015 	0.0214494 	-6.99673e-22
2 	0.135502 	9.02056e-17 	-0.188872 	0.0236264 	6.85448e-22
2 	0.173884 	6.93889e-17 	-0.17421 	0.0255398 	-1.14647e-21
2 	0.21202 	6.93889e-17 	-0.156248 	0.0271477 	-3.10829e-22
2 	0.249855 	6.93889e-17 	-0.135063 	0.0284163 	5.42018e-22
2 	0.287337 	5.55112e-17 	-0.110706 	0.0293221 	-2.3325e-21
2 	0.324414 	2.77556e-17 	-0.0831847 	0.0298533 	5.78275e-22
2 	0.361038 	2.77556e-17 	-0.0524457 	0.0300116 	-2.37062e-21
2 	0.397158 	5.55112e-17 	-0.0183522 	0.0298136 	-4.85225e-21
2 	0.432729 	8.32667e-17 	0.0193303 	0.0292961 	-2.56761e-21
2 	0.467705 	1.11022e-16 	0.0609448 	0.0285158 	1.5943e-21
2 	0.492398 	1.11022e-16 	0.10694 	0.0275483 	-3.33523e-21
2 	0.509401 	1.11022e-16 	0.112552 	0.027946 	8.43427e-22
2 	0.5357 	1.38778e-16 	0.163938 	0.0265181 	4.64452e-21
2 	0.568637 	1.66533e-16 	0.220154 	0.0250993 	3.80176e-21
2 	0.600818 	1.45717e-16 	0.281607 	0.023815 	-2.47207e-22
2 	0.632206 	1.26635e-16 	0.348596 	0.0228105 	-5.00301e-21
2 	0.662767 	1.47451e-16 	0.421214 	0.0223104 	1.22965e-21
2 	0.692472 	1.66533e-16 	0.499235 	0.0225384 	-5.63285e-21
2 	0.732332 	1.66533e-16 	0.590126 	0.0231494 	0
2 	0.784018 	1.66533e-16 	0.709336 	0.0252061 	0
2 	0.838235 	1.66533e-16 	0.835147 	0.0290308 	0
2 	0.895107 	1.66533e-16 	0.959709 	0.0344895 	0
2 	0.954763 	1.66533e-16 	1.07324 	0.0408706 	0
2 	1.01734 	1.66533e-16 	1.16697 	0.047108 	0
2 	1.08298 	1.66533e-16 	1.2361 	0.052219 	0
2 	1.15184 	1.66533e-16 	1.2809 	0.0556632 	0
2 	1.22406 	1.66533e-16 	1.30553 	0.0574097 	0
2 	1.29983 	1.38778e-16 	1.31577 	0.0577682 	0
2 	1.3793 	1.11022e-16 	1.31708 	0.0571622 	0
2 	1.46266 	1.11022e-16 	1.31354 	0.0559645 	0
2 	1.55011 	1.11022e-16 	1.30772 	0.0544276 	0
2 	1.64184 	1.11022e-16 	1.30091 	0.0526872 	0
2 	1.73806 	1.11022e-16 	1.29369 	0.0507972 	0
2 	1.83899 	1.11022e-16 	1.28625 	0.0487682 	0
2 	1.94486 	8.32667e-17 	1.27866 	0.0465941 	0
2 	2.05592 	5.55112e-17 	1.27098 	0.0442651 	0
2 	2.17241 	5.55112e-17 	1.26326 	0.0417725 	0
2 	2.29461 	5.55112e-17 	1.25556 	0.0391099 	0
2 	2.42279 	8.32667e-17 	1.24797 	0.0362725 	0
2 	2.55725 	1.11022e-16 	1.24058 	0.0332567 	0
2 	2.69829 	8.32667e-17 	1.23349 	0.0300596 	0
2 	2.84624 	5.55112e-17 	1.2268 	0.0266783 	0
2 	3.00143 	5.55112e-17 	1.22062 	0.0231111 	0
2 	3.16423 	2.77556e-17 	1.21509 	0.0193529 	0
2 	3.33499 	0 	1.21033 	0.0154034 	0
2 	3.51411 	0 	1.2065 	0.0112545 	0
2 	3.702 	0 	1.20377 	0.00689452 	0
2 	3.8991 	-1.38778e-17 	1.2023 	0.00234617 	0
