/*--------------------------------*- C++ -*----------------------------------*\
  =========                 |
  \\      /  F ield         | OpenFOAM: The Open Source CFD Toolbox
   \\    /   O peration     | Website:  https://openfoam.org
    \\  /    A nd           | Version:  7
     \\/     M anipulation  |
\*---------------------------------------------------------------------------*/
FoamFile
{
    version     2.0;
    format      ascii;
    class       volVectorField;
    location    "195";
    object      U;
}
// * * * * * * * * * * * * * * * * * * * * * * * * * * * * * * * * * * * * * //

dimensions      [0 1 -1 0 0 0 0];

internalField   nonuniform List<vector> 
8500
(
(-0.00210016 0.0179924 1.01202e-21)
(-0.0104578 0.0609122 -2.90095e-21)
(-0.0254276 0.104909 -3.37924e-21)
(-0.0433954 0.144309 3.35466e-21)
(-0.0628997 0.177605 -3.07935e-21)
(-0.0822954 0.206591 -1.64121e-21)
(-0.100014 0.234188 2.80866e-21)
(-0.115006 0.262544 3.47211e-21)
(-0.1265 0.292249 -5.70145e-22)
(-0.133794 0.322602 1.70216e-21)
(-0.00249173 0.0205358 -1.11859e-21)
(-0.0108254 0.0667061 3.44949e-21)
(-0.0242989 0.112892 -7.97864e-21)
(-0.0400679 0.153647 7.21735e-21)
(-0.0568812 0.187416 3.4023e-22)
(-0.0732442 0.215956 5.3196e-21)
(-0.0876032 0.242308 -9.22454e-21)
(-0.0987702 0.268897 -1.35173e-20)
(-0.105763 0.296624 -2.63123e-21)
(-0.107066 0.324838 6.02751e-21)
(-0.00301778 0.0222862 1.00318e-21)
(-0.0114938 0.0708281 7.43277e-21)
(-0.0235088 0.118783 1.75254e-20)
(-0.0369575 0.160763 -1.58048e-20)
(-0.0507944 0.195035 -3.50822e-21)
(-0.0636931 0.223189 -3.23018e-21)
(-0.0741376 0.248282 1.64145e-20)
(-0.08081 0.272952 1.03228e-20)
(-0.0826134 0.298422 2.59942e-21)
(-0.0769151 0.324108 -1.86212e-20)
(-0.00361383 0.0232602 3.54875e-21)
(-0.0123829 0.0732638 -4.3919e-21)
(-0.0230607 0.122499 -3.22934e-20)
(-0.0341843 0.165502 2.89206e-21)
(-0.0448838 0.200261 8.83471e-21)
(-0.0540091 0.228074 -6.77858e-21)
(-0.0601126 0.251903 -5.23039e-22)
(-0.0617655 0.274511 -2.72646e-21)
(-0.0578772 0.297396 6.32808e-21)
(-0.0445185 0.320491 1.83584e-20)
(-0.00422253 0.0235174 2.45242e-21)
(-0.0134146 0.0740717 -1.37506e-20)
(-0.0229503 0.124034 3.30944e-20)
(-0.0318565 0.167777 -1.48672e-20)
(-0.039386 0.202937 -8.75195e-23)
(-0.0445591 0.230425 2.03951e-20)
(-0.0460344 0.252993 -9.44261e-21)
(-0.042316 0.273435 1.16912e-21)
(-0.0323018 0.293463 -3.86274e-21)
(-0.0108747 0.313762 1.15205e-21)
(-0.00480088 0.0231473 2.91049e-20)
(-0.0145255 0.0733897 3.51871e-20)
(-0.0231693 0.123471 -9.04076e-21)
(-0.0300687 0.167573 1.70709e-20)
(-0.0345218 0.202961 5.21499e-21)
(-0.0356952 0.230091 -7.63588e-21)
(-0.0323882 0.251402 -2.88844e-21)
(-0.0230923 0.269621 -1.23974e-20)
(-0.00680753 0.286632 2.65886e-21)
(0.0230125 0.303571 -1.66908e-20)
(-0.00531571 0.0222693 -2.80143e-20)
(-0.0156671 0.071418 -1.8263e-20)
(-0.0237168 0.120967 1.46616e-20)
(-0.0289009 0.164952 -2.51375e-20)
(-0.030484 0.200295 2.68119e-21)
(-0.0277414 0.226965 2.90153e-20)
(-0.0196323 0.247 -5.1689e-21)
(-0.0046701 0.262969 3.4291e-20)
(0.0177914 0.27684 -8.0964e-22)
(0.0561414 0.289966 -1.39904e-20)
(-0.00575857 0.0210257 2.30564e-20)
(-0.0168173 0.0683988 -4.14361e-20)
(-0.0245946 0.116752 -1.63333e-20)
(-0.0284146 0.16006 1.9311e-20)
(-0.0274271 0.194976 4.41075e-22)
(-0.0209692 0.220994 -5.41354e-20)
(-0.00816847 0.239703 -3.00575e-21)
(0.0124312 0.253416 -2.64838e-20)
(0.0408277 0.264052 -3.43469e-20)
(0.0877114 0.272981 2.03933e-20)
(-0.00614213 0.0195661 -1.29143e-20)
(-0.0179845 0.0646122 6.18567e-21)
(-0.0258126 0.111114 1.50983e-20)
(-0.0286471 0.15312 -1.30202e-20)
(-0.025451 0.187123 -4.61285e-20)
(-0.0155703 0.2122 1.59664e-20)
(0.00170189 0.229473 2.4479e-21)
(0.0278136 0.240945 3.92453e-20)
(0.0617924 0.24832 5.18612e-20)
(0.11725 0.25257 -2.36536e-20)
(-0.00649972 0.0180409 1.99135e-20)
(-0.0192057 0.060355 1.79605e-20)
(-0.0273864 0.104387 -2.57731e-21)
(-0.0296037 0.144428 6.55118e-20)
(-0.0245798 0.176946 2.76734e-20)
(-0.0116183 0.200696 2.05745e-20)
(0.00983897 0.216354 2.86748e-20)
(0.0412941 0.225603 -1.29397e-20)
(0.0804368 0.229766 -1.72081e-20)
(0.144826 0.228708 -2.81389e-20)
(-0.00688272 0.0165928 -2.04453e-21)
(-0.0205406 0.0559206 -2.80462e-20)
(-0.029329 0.0969277 -2.00618e-20)
(-0.0312428 0.13434 -3.20681e-20)
(-0.0247341 0.164748 -2.50618e-20)
(-0.00901752 0.186705 2.49827e-20)
(0.0163506 0.2005 -2.37162e-20)
(0.0530428 0.207548 -1.64814e-20)
(0.0969762 0.208604 2.09841e-21)
(0.171453 0.201555 7.64954e-21)
(-0.0073553 0.0153473 -5.37699e-20)
(-0.0220599 0.0515806 2.56334e-20)
(-0.0316342 0.0890975 1.85461e-20)
(-0.033453 0.123256 1.21862e-20)
(-0.025693 0.150921 -2.18369e-20)
(-0.00743551 0.17058 -1.84151e-20)
(0.0217099 0.182212 2.63963e-20)
(0.0637738 0.187106 -2.12413e-20)
(0.112413 0.185165 -1.0729e-21)
(0.199599 0.171726 -2.21541e-20)
(-0.00798621 0.0144045 4.44745e-20)
(-0.0238285 0.0475672 1.78857e-20)
(-0.0342544 0.0812386 1.07433e-21)
(-0.0360236 0.111604 -2.22664e-20)
(-0.027048 0.13594 1.76101e-21)
(-0.00622423 0.152805 2.37029e-20)
(0.0268935 0.161973 -6.6284e-21)
(0.0749526 0.16483 -7.88275e-21)
(0.128943 0.159911 -1.82714e-20)
(0.233484 0.140603 3.37483e-20)
(-0.00883827 0.0138312 2.93942e-20)
(-0.0258833 0.0440568 -4.81047e-20)
(-0.037074 0.0736547 -3.66528e-20)
(-0.0386118 0.0998126 1.59003e-20)
(-0.0281563 0.12034 3.18997e-20)
(-0.00434603 0.133993 2.62474e-20)
(0.0335008 0.140461 -2.76695e-20)
(0.0889264 0.141518 5.33598e-20)
(0.150265 0.13347 -1.58701e-20)
(0.278595 0.110446 -3.92132e-20)
(-0.00995622 0.0136527 -4.46155e-20)
(-0.0282099 0.0411546 2.6788e-20)
(-0.0398863 0.0665937 -1.24126e-20)
(-0.0407159 0.0882896 1.31331e-21)
(-0.0281112 0.104691 1.31422e-20)
(-0.000338456 0.114861 -4.1575e-20)
(0.0437842 0.118531 3.62346e-20)
(0.108845 0.118167 -3.49977e-20)
(0.181482 0.106743 5.65529e-20)
(0.340008 0.0839615 2.06499e-20)
(-0.0113561 0.0138492 9.18611e-21)
(-0.030726 0.0388911 5.1294e-20)
(-0.0423729 0.0602255 -1.26777e-20)
(-0.0416701 0.0773883 1.28386e-20)
(-0.0257504 0.0895495 1.44734e-20)
(0.00763934 0.096173 -4.29121e-21)
(0.060508 0.0971697 3.07836e-20)
(0.138279 0.0958276 1.47148e-21)
(0.228297 0.0811191 -3.62491e-20)
(0.41986 0.0634463 4.89822e-20)
(-0.0130139 0.0143562 -2.48334e-20)
(-0.0332743 0.0372157 -4.84231e-20)
(-0.0441089 0.0546245 4.18333e-20)
(-0.0406647 0.0673767 2.06791e-20)
(-0.0197236 0.0754091 -9.48529e-20)
(0.0216492 0.0786627 7.62456e-20)
(0.0865963 0.0773895 -6.7792e-20)
(0.180611 0.0754353 9.73367e-22)
(0.295457 0.0586912 -1.53721e-20)
(0.515294 0.0501614 -4.54511e-20)
(-0.0148628 0.0150676 2.12515e-20)
(-0.0356189 0.0359952 -2.80969e-21)
(-0.0445859 0.0497669 -1.0262e-20)
(-0.0368053 0.058407 -1.29394e-21)
(-0.00861853 0.0626397 -5.94505e-21)
(0.0437184 0.0629474 -2.42502e-20)
(0.124626 0.0601022 1.01064e-20)
(0.238408 0.0576873 -1.59407e-20)
(0.384805 0.0420469 4.70332e-21)
(0.618583 0.0442711 1.19552e-21)
(-0.0167946 0.0158465 -4.33635e-20)
(-0.0374601 0.03503 -3.05794e-21)
(-0.0432482 0.0455302 4.70488e-21)
(-0.0291935 0.0504982 1.92977e-21)
(0.0088786 0.0514486 3.09823e-20)
(0.0755484 0.0494513 -8.91963e-20)
(0.17631 0.0459745 5.92099e-20)
(0.312969 0.0431446 -4.40386e-20)
(0.493758 0.0333484 3.76056e-20)
(0.720397 0.0443734 4.19356e-20)
(-0.0186696 0.0165421 -5.23925e-21)
(-0.0384546 0.0340754 2.41409e-20)
(-0.0395357 0.0417097 -3.01056e-20)
(-0.0170087 0.0435448 -9.37206e-21)
(0.0338372 0.0418781 1.79146e-20)
(0.118274 0.0383876 8.4944e-20)
(0.242128 0.0353442 -1.67732e-20)
(0.403837 0.032569 7.99233e-21)
(0.614976 0.0329554 -4.34548e-20)
(0.81539 0.0454337 2.01759e-20)
(-0.020331 0.0170079 -1.58147e-20)
(-0.0382387 0.0328727 -1.23187e-20)
(-0.0329168 0.038052 3.08701e-21)
(0.000436795 0.0373554 1.17997e-20)
(0.0669997 0.0338493 -3.4762e-20)
(0.172355 0.0298199 -1.39016e-20)
(0.321286 0.0282828 -4.33996e-20)
(0.508155 0.0270497 4.41491e-20)
(0.737362 0.0380348 4.7043e-20)
(0.905305 0.0399225 -2.00673e-20)
(-0.02162 0.0171196 -7.58592e-21)
(-0.0364611 0.0311934 3.08115e-20)
(-0.0228999 0.0342972 -3.43042e-20)
(0.0236859 0.0317128 -4.02163e-21)
(0.108777 0.0272455 -1.61042e-20)
(0.237587 0.0237754 3.45813e-20)
(0.411962 0.0248118 4.39653e-20)
(0.620696 0.0272296 -4.2043e-20)
(0.850112 0.0428484 4.51374e-20)
(1.0225 0.0360334 6.28867e-21)
(-0.0223664 0.0167815 -2.20253e-20)
(-0.0327966 0.0288673 -6.2346e-20)
(-0.00905313 0.0302365 6.07615e-20)
(0.0531555 0.0264552 8.69379e-21)
(0.159293 0.0220082 1.24898e-20)
(0.313157 0.0203404 7.87798e-21)
(0.51143 0.0250176 3.39783e-20)
(0.734853 0.0322011 2.47775e-20)
(0.956519 0.0493886 -8.77092e-20)
(1.12127 0.0454544 -4.31377e-20)
(-0.0224214 0.0159688 -7.51909e-20)
(-0.0269043 0.025799 1.50911e-20)
(0.00900852 0.0257638 -3.4515e-20)
(0.0891569 0.0215369 6.66289e-21)
(0.218418 0.018216 1.05643e-20)
(0.397684 0.0197022 -7.59306e-20)
(0.616117 0.0289488 3.35874e-20)
(0.845337 0.0408618 -2.23196e-20)
(1.05225 0.0590768 2.3416e-20)
(1.19702 0.0568136 -8.26657e-21)
(-0.0216766 0.0146869 2.72935e-20)
(-0.0184695 0.0219739 2.9612e-20)
(0.0316546 0.0209116 -1.79418e-21)
(0.131914 0.0170788 -9.40072e-21)
(0.285758 0.0161239 2.2696e-22)
(0.489218 0.0221025 5.38455e-22)
(0.721973 0.0364447 -5.08995e-20)
(0.947995 0.0523888 6.68777e-21)
(1.13415 0.0707137 6.3247e-20)
(1.25707 0.0692893 2.86259e-20)
(-0.0200109 0.0129688 -1.85698e-20)
(-0.00720653 0.0174933 -1.36551e-20)
(0.0592214 0.0158578 5.90458e-20)
(0.181541 0.0133824 1.52157e-21)
(0.360578 0.0161392 -2.48189e-20)
(0.585255 0.0277304 6.59063e-20)
(0.825036 0.0471227 1.45062e-20)
(1.03986 0.0659988 9.86673e-22)
(1.20198 0.0835761 -2.77436e-20)
(1.30128 0.0821876 -3.62847e-20)
(-0.0173117 0.0108843 3.91572e-20)
(0.00716162 0.0125464 -1.07916e-20)
(0.0919976 0.0109169 -6.49609e-21)
(0.23798 0.0109079 -2.46029e-20)
(0.441709 0.0187352 4.00737e-20)
(0.682888 0.0366164 -1.94554e-20)
(0.921921 0.0604516 -2.19977e-20)
(1.11941 0.0810203 -5.05988e-21)
(1.2561 0.0970777 -1.61097e-20)
(1.33323 0.0949751 1.75178e-20)
(-0.0134698 0.0085264 -1.43732e-20)
(0.024892 0.00739365 -8.59358e-20)
(0.130188 0.00651632 8.89656e-21)
(0.300918 0.0102188 3.08282e-20)
(0.527501 0.0243265 2.19636e-20)
(0.779112 0.0485904 -7.31141e-20)
(1.01015 0.0758546 4.67835e-20)
(1.18626 0.096905 -2.11079e-20)
(1.29797 0.110811 3.18312e-20)
(1.35509 0.107599 8.79123e-21)
(-0.0083755 0.00600282 -1.59178e-20)
(0.0462053 0.00235058 3.04315e-20)
(0.173866 0.00316085 3.99444e-20)
(0.369706 0.0119002 -2.85406e-20)
(0.61589 0.0331606 1.06183e-20)
(0.871182 0.0633168 -6.44999e-20)
(1.08823 0.0927871 -1.18696e-20)
(1.24092 0.11324 1.00582e-20)
(1.32924 0.124544 -2.42748e-20)
(1.3692 0.119971 -2.46615e-20)
(-0.00192075 0.00343204 -2.07137e-20)
(0.0712654 -0.00222932 -7.1322e-21)
(0.222922 0.00139223 -7.26791e-20)
(0.443315 0.0164709 -1.14249e-20)
(0.704592 0.045272 -1.14658e-21)
(0.956892 0.0803702 3.89566e-21)
(1.15557 0.110782 6.51473e-21)
(1.28441 0.129739 -3.18572e-20)
(1.3517 0.138153 5.84412e-22)
(1.37738 0.132152 1.70516e-20)
(0.00599537 0.000941991 -5.46922e-21)
(0.100157 -0.00596845 2.52236e-20)
(0.277025 0.00174849 3.55905e-20)
(0.520368 0.024309 2.22903e-20)
(0.791352 0.0605036 -6.53818e-21)
(1.03471 0.099308 -5.48806e-21)
(1.21228 0.129468 5.38753e-20)
(1.31804 0.146223 7.25659e-21)
(1.36699 0.151605 2.4047e-20)
(1.38112 0.144196 -1.03106e-20)
(0.0154571 -0.00132885 5.22563e-20)
(0.132864 -0.00847597 3.36631e-20)
(0.335599 0.00472457 -3.4189e-20)
(0.599236 0.0356132 -6.81892e-21)
(0.874175 0.0785682 3.60787e-21)
(1.10377 0.119719 -1.29801e-20)
(1.25892 0.148567 -2.78091e-20)
(1.3432 0.162595 -4.5134e-21)
(1.37656 0.164916 3.03647e-22)
(1.38155 0.156183 1.1209e-20)
(0.0265223 -0.00323188 6.6162e-21)
(0.16925 -0.00935973 -1.84431e-20)
(0.397827 0.0107363 4.37358e-20)
(0.678182 0.0504044 2.84644e-20)
(0.951477 0.0991135 9.46427e-22)
(1.16375 0.141244 2.00583e-20)
(1.29635 0.167882 2.91114e-21)
(1.36122 0.17882 -2.10087e-20)
(1.38161 0.178132 1.76626e-20)
(1.37951 0.168175 1.47849e-23)
(0.0392147 -0.00460931 -4.34302e-20)
(0.209049 -0.0082385 -1.27858e-20)
(0.46269 0.0200916 -1.15025e-20)
(0.755521 0.0685559 -2.0049e-20)
(1.02213 0.12177 4.78637e-21)
(1.21477 0.163588 9.95763e-23)
(1.32556 0.187283 1.54241e-20)
(1.37331 0.194899 -2.53721e-21)
(1.38313 0.191307 -1.82458e-20)
(1.3756 0.180223 -1.6865e-20)
(0.0535159 -0.00529644 3.55372e-21)
(0.251857 -0.00475729 2.08203e-20)
(0.52902 0.0329745 1.01306e-20)
(0.829736 0.089836 -3.15054e-20)
(1.08543 0.14618 -1.52939e-21)
(1.25722 0.186508 -1.34806e-20)
(1.34754 0.20669 3.40963e-22)
(1.3805 0.210859 6.21983e-21)
(1.38185 0.204492 -6.86918e-21)
(1.37022 0.192354 1.91153e-20)
(0.0693605 -0.00512589 8.41129e-21)
(0.297144 0.00139514 -2.04773e-20)
(0.595577 0.0494416 -4.83289e-20)
(0.899566 0.113947 4.44644e-20)
(1.14104 0.17201 -3.29799e-21)
(1.29167 0.209815 9.73196e-21)
(1.36325 0.226055 -1.33277e-21)
(1.38367 0.226729 9.25178e-21)
(1.37834 0.217724 -7.09201e-22)
(1.36367 0.204579 -1.48044e-20)
(0.086633 -0.00393343 -1.71933e-20)
(0.344264 0.0104687 2.67641e-20)
(0.661126 0.0694315 2.20268e-20)
(0.964029 0.140554 -3.18078e-20)
(1.18892 0.198957 -5.28031e-21)
(1.31878 0.233356 1.99268e-21)
(1.37354 0.245352 1.99488e-20)
(1.3835 0.242537 9.75953e-22)
(1.37301 0.231026 3.81383e-21)
(1.35609 0.216888 -8.19818e-21)
(0.105168 -0.00156476 1.30509e-20)
(0.392481 0.0226369 -1.17281e-20)
(0.724498 0.0927803 -1.00336e-20)
(1.02242 0.169305 1.71264e-20)
(1.2292 0.226747 5.87905e-21)
(1.33923 0.257005 4.42903e-21)
(1.37917 0.26456 -2.03531e-20)
(1.38055 0.2583 -6.91923e-21)
(1.36614 0.244399 -6.14043e-21)
(1.34761 0.229253 2.69924e-21)
(0.124753 0.00211721 -6.56269e-21)
(0.440998 0.0379868 -1.50373e-22)
(0.78465 0.119241 1.89989e-20)
(1.07428 0.199843 -6.9361e-21)
(1.26217 0.255128 -3.07317e-21)
(1.35368 0.280656 -2.01194e-21)
(1.38076 0.28366 4.93241e-21)
(1.37524 0.274018 8.44669e-21)
(1.35792 0.257827 -2.7416e-22)
(1.33827 0.241631 3.03299e-21)
(0.145132 0.00722517 4.63215e-21)
(0.488994 0.0565139 -1.30023e-21)
(0.840686 0.148502 -3.41288e-21)
(1.11934 0.23181 -3.08698e-21)
(1.28821 0.283873 2.76609e-21)
(1.36272 0.304215 2.14322e-21)
(1.37885 0.302624 -1.96847e-21)
(1.36786 0.289677 7.02972e-22)
(1.34848 0.271274 9.81382e-22)
(1.3281 0.25397 -1.29242e-21)
(0.166014 0.013841 2.51009e-21)
(0.535654 0.0781233 7.12124e-22)
(0.891878 0.180203 -4.26659e-21)
(1.15752 0.264856 -3.39254e-21)
(1.30772 0.312766 3.51964e-21)
(1.36691 0.327588 6.87278e-22)
(1.37385 0.321414 -1.57285e-21)
(1.35866 0.30524 1.4711e-21)
(1.33789 0.284684 8.11593e-22)
(1.31712 0.266205 -9.20351e-22)
(0.187081 0.0220106 -9.76938e-22)
(0.580199 0.102635 1.99753e-21)
(0.937662 0.213949 1.31898e-20)
(1.18886 0.298636 -5.85326e-21)
(1.32112 0.341605 -2.83334e-21)
(1.36673 0.350681 -3.17028e-21)
(1.36611 0.339976 6.4572e-21)
(1.34779 0.320656 4.29087e-21)
(1.32621 0.297987 3.38802e-21)
(1.30534 0.278264 1.81359e-21)
(0.207998 0.0317405 2.02264e-20)
(0.621917 0.129791 -1.11061e-20)
(0.977625 0.249323 -1.2576e-20)
(1.21348 0.332812 1.70466e-20)
(1.32885 0.370193 8.91735e-21)
(1.36259 0.373394 -5.85438e-22)
(1.3559 0.358242 -1.07908e-20)
(1.33536 0.335851 -7.70559e-21)
(1.31345 0.311095 -7.91866e-21)
(1.29276 0.290071 4.65424e-21)
(0.228423 0.0429962 -2.73924e-20)
(0.660171 0.159271 2.57385e-20)
(1.0115 0.28589 2.95699e-20)
(1.23158 0.367056 -2.89848e-20)
(1.33131 0.398339 -9.94347e-21)
(1.35487 0.395618 6.32156e-21)
(1.34341 0.37613 1.13406e-20)
(1.32146 0.35074 1.76271e-21)
(1.29962 0.323908 -2.89476e-22)
(1.27934 0.301542 -6.30369e-21)
(0.248015 0.0557022 -3.962e-21)
(0.694422 0.190696 -3.62936e-20)
(1.03913 0.323213 -3.87524e-20)
(1.24341 0.401047 4.32052e-20)
(1.32887 0.425853 -4.88932e-21)
(1.34386 0.41724 8.84749e-21)
(1.32883 0.393546 1.6989e-21)
(1.30613 0.365228 -4.79727e-21)
(1.28471 0.336325 2.57343e-21)
(1.265 0.312595 -3.36661e-22)
(0.266448 0.0697442 8.04502e-21)
(0.72423 0.223647 2.25447e-20)
(1.06047 0.360848 1.27131e-20)
(1.24926 0.434475 -9.99348e-21)
(1.32191 0.452545 -1.54237e-20)
(1.32985 0.438133 -1.41694e-20)
(1.31228 0.410385 -2.82472e-21)
(1.28942 0.379219 7.41022e-21)
(1.2687 0.348277 -1.5604e-21)
(1.24955 0.323161 3.4966e-21)
(0.283414 0.0849721 -3.05345e-20)
(0.749259 0.257674 -2.83942e-20)
(1.07558 0.398358 -4.49672e-21)
(1.24944 0.467038 -5.06988e-21)
(1.31077 0.478225 -1.13725e-20)
(1.31305 0.458164 6.8468e-21)
(1.29389 0.426531 -1.22555e-21)
(1.27139 0.392616 -6.43709e-21)
(1.25162 0.359748 5.83215e-21)
(1.23298 0.333138 -8.24297e-21)
(0.298636 0.101203 7.20543e-21)
(0.769279 0.29231 2.40848e-20)
(1.08456 0.435312 2.08679e-20)
(1.24425 0.498444 2.2565e-20)
(1.29575 0.502706 4.34267e-22)
(1.29369 0.477193 1.93417e-20)
(1.27374 0.441853 1.24462e-21)
(1.25207 0.405291 -2.21126e-20)
(1.2335 0.370701 1.56108e-20)
(1.2157 0.342385 5.65475e-21)
(0.311872 0.118227 1.9826e-20)
(0.784152 0.327085 4.42907e-20)
(1.0876 0.471293 -5.82724e-21)
(1.23404 0.528412 -2.84638e-20)
(1.27716 0.525802 1.27205e-20)
(1.27194 0.495077 -1.30731e-20)
(1.25195 0.456218 -1.72039e-20)
(1.23156 0.417119 -1.42023e-21)
(1.21432 0.380893 -1.28683e-20)
(1.19784 0.350993 4.87374e-21)
(0.32292 0.135811 9.35812e-21)
(0.793831 0.361527 6.98745e-21)
(1.08493 0.505901 5.51223e-20)
(1.21915 0.556672 1.02277e-20)
(1.25528 0.547331 -8.88269e-21)
(1.24798 0.511666 -4.48483e-21)
(1.22866 0.469487 2.63611e-20)
(1.20987 0.428008 2.13329e-20)
(1.19409 0.390205 1.04203e-20)
(1.17927 0.358763 -1.36541e-21)
(0.331624 0.153708 1.97926e-21)
(0.798345 0.39518 -4.5342e-20)
(1.07682 0.538754 -6.4895e-20)
(1.19992 0.582967 1.99786e-21)
(1.23039 0.567112 1.24548e-20)
(1.22202 0.526801 -1.72375e-20)
(1.20395 0.481528 -3.85391e-20)
(1.18704 0.43784 -1.12631e-20)
(1.17294 0.398533 -6.74184e-22)
(1.15999 0.365608 4.99912e-21)
(0.337868 0.17166 -1.62812e-20)
(0.797799 0.427601 4.11017e-20)
(1.06361 0.569499 3.90753e-20)
(1.17669 0.607054 -3.58528e-20)
(1.20275 0.584958 5.46058e-21)
(1.19422 0.540336 4.15083e-20)
(1.1779 0.492208 -9.09662e-21)
(1.16315 0.446496 7.51155e-21)
(1.15093 0.405777 -3.45255e-21)
(1.14002 0.371433 -4.45075e-21)
(0.341586 0.189404 -3.67911e-20)
(0.792375 0.458366 -6.47474e-20)
(1.04568 0.597823 -1.26396e-20)
(1.14978 0.6287 2.0652e-20)
(1.17261 0.600692 2.01011e-20)
(1.16475 0.552112 -4.14315e-20)
(1.15064 0.5014 2.21757e-20)
(1.13828 0.453865 -1.13001e-20)
(1.12811 0.411839 8.79774e-21)
(1.11944 0.376171 3.37709e-22)
(0.342758 0.20668 2.80599e-20)
(0.782333 0.487064 1.90334e-21)
(1.02338 0.623443 -6.2832e-21)
(1.11945 0.647681 -2.56817e-20)
(1.14025 0.614144 1.65897e-20)
(1.13379 0.561983 3.44657e-21)
(1.12228 0.508979 -1.26888e-20)
(1.11254 0.459839 2.26605e-21)
(1.10458 0.416621 -2.21108e-21)
(1.09834 0.379743 9.14738e-22)
(0.341433 0.223236 -7.75202e-21)
(0.768001 0.513347 -1.09201e-20)
(0.99687 0.646003 2.7473e-20)
(1.08612 0.66385 1.26716e-20)
(1.10598 0.625134 -1.70171e-20)
(1.10151 0.569823 2.38186e-20)
(1.09297 0.514831 1.73306e-21)
(1.08604 0.464319 2.07876e-21)
(1.08042 0.420019 5.98683e-22)
(1.0768 0.382052 2.55646e-22)
(0.337702 0.238818 5.04103e-20)
(0.749687 0.537044 3.87708e-20)
(0.966361 0.665145 -2.54674e-21)
(1.05028 0.676969 -6.02267e-21)
(1.07005 0.63356 -6.94365e-21)
(1.06812 0.575514 -3.30054e-21)
(1.06284 0.518851 1.87539e-21)
(1.05888 0.467218 1.55126e-21)
(1.05572 0.421939 -7.39749e-23)
(1.0549 0.382998 -2.87768e-21)
(0.331646 0.25308 4.44092e-21)
(0.727524 0.557845 6.90917e-21)
(0.932609 0.68092 -3.61464e-20)
(1.0123 0.686792 1.60746e-20)
(1.03272 0.639301 4.55391e-21)
(1.0338 0.57895 -9.84328e-21)
(1.03205 0.520945 3.12657e-21)
(1.03118 0.468457 1.07801e-21)
(1.03061 0.42231 -3.33116e-21)
(1.03286 0.38253 3.80251e-21)
(0.323264 0.265738 -1.91283e-20)
(0.701752 0.575223 -1.41513e-20)
(0.896181 0.693128 1.19038e-20)
(0.972495 0.693284 3.31871e-21)
(0.994242 0.642252 -6.08878e-21)
(0.998752 0.580034 5.58073e-21)
(1.00072 0.521021 1.95993e-21)
(1.00302 0.467944 -6.61462e-21)
(1.00533 0.42106 1.89101e-20)
(1.01133 0.380687 7.94565e-21)
(0.312788 0.276579 -1.4958e-20)
(0.672883 0.588899 3.829e-20)
(0.857396 0.701545 -2.45075e-20)
(0.931187 0.696371 -3.26192e-21)
(0.954891 0.642327 -4.32702e-21)
(0.963152 0.578686 4.19003e-22)
(0.968963 0.518994 -6.33406e-21)
(0.974539 0.465544 3.55305e-21)
(0.980297 0.417991 -3.28031e-22)
(0.991013 0.377487 -3.45022e-21)
(0.300484 0.285598 -8.81445e-22)
(0.641374 0.598776 -1.13324e-20)
(0.816662 0.705971 6.5692e-21)
(0.888725 0.695969 -3.79968e-21)
(0.914925 0.639464 3.28697e-21)
(0.927191 0.574853 4.2107e-21)
(0.936915 0.514819 1.28645e-20)
(0.945927 0.461161 -1.01265e-20)
(0.955881 0.412743 -1.97972e-20)
(0.97118 0.372242 8.80877e-21)
(0.286478 0.292594 6.14852e-22)
(0.607687 0.604726 -1.48593e-21)
(0.774406 0.706302 7.46432e-22)
(0.845461 0.692016 3.53426e-21)
(0.874611 0.633619 -9.03114e-21)
(0.891066 0.568503 -1.68803e-20)
(0.904764 0.508491 -5.04847e-21)
(0.91747 0.454918 -1.69787e-21)
(0.932076 0.405541 2.71791e-20)
(0.948914 0.361394 -5.76796e-21)
(0.27099 0.297417 -3.04927e-21)
(0.572269 0.606645 -4.65008e-21)
(0.731059 0.702485 1.26884e-21)
(0.801745 0.684474 1.00958e-21)
(0.834216 0.624766 -7.65647e-21)
(0.854996 0.559608 3.30163e-20)
(0.872772 0.499974 -2.38188e-20)
(0.889384 0.446877 2.89687e-20)
(0.907803 0.398212 -2.04333e-20)
(0.924496 0.355502 -2.74135e-20)
(0.254269 0.299957 5.12311e-22)
(0.535554 0.604457 -1.90993e-21)
(0.687046 0.6945 8.53363e-22)
(0.757923 0.673332 1.17748e-20)
(0.794007 0.612894 -5.29935e-21)
(0.819209 0.548147 8.10495e-21)
(0.841143 0.489217 1.39438e-20)
(0.861679 0.436769 -7.39983e-21)
(0.883388 0.388619 -1.99584e-20)
(0.901154 0.346141 2.76337e-20)
(0.236574 0.300132 8.76849e-21)
(0.497977 0.598128 1.14529e-20)
(0.64279 0.68236 -1.17348e-20)
(0.714338 0.658608 -1.04612e-20)
(0.754253 0.598017 3.95355e-20)
(0.783926 0.534135 -4.08367e-20)
(0.810031 0.47627 4.96427e-20)
(0.834378 0.424828 -1.25176e-20)
(0.859072 0.377767 1.34763e-20)
(0.878555 0.336477 2.53939e-20)
(0.218167 0.297893 -2.90541e-21)
(0.459968 0.587658 -1.16749e-20)
(0.5987 0.666109 -7.98156e-21)
(0.671324 0.640346 -4.20348e-21)
(0.715217 0.580169 5.33983e-21)
(0.749368 0.517592 -1.09121e-20)
(0.779607 0.461133 -1.48281e-20)
(0.807642 0.410981 -3.28127e-20)
(0.835202 0.365248 3.26579e-20)
(0.856806 0.325341 -1.05756e-20)
(0.199313 0.293214 2.37952e-20)
(0.42195 0.573087 -3.18278e-21)
(0.555178 0.645818 -1.13032e-20)
(0.629206 0.618613 1.42486e-20)
(0.677161 0.559402 -2.56925e-20)
(0.715746 0.498563 6.9799e-20)
(0.75004 0.443859 -3.74123e-20)
(0.781639 0.395314 3.41414e-20)
(0.811999 0.351225 -6.28405e-20)
(0.835937 0.312892 -1.67525e-20)
(0.180276 0.286102 -6.96081e-21)
(0.384339 0.554491 2.54071e-20)
(0.512608 0.621592 5.81996e-21)
(0.588299 0.593503 -1.34479e-20)
(0.640335 0.535793 -2.33446e-20)
(0.683269 0.477108 -7.04766e-22)
(0.721502 0.424496 1.24929e-20)
(0.756534 0.377857 -3.08007e-20)
(0.789624 0.335667 1.51875e-20)
(0.815996 0.299056 2.00919e-21)
(0.161316 0.276589 -4.22543e-20)
(0.347535 0.53198 -1.03077e-20)
(0.471363 0.59356 -2.92941e-21)
(0.548906 0.565132 3.4919e-20)
(0.604985 0.509435 -3.26633e-20)
(0.652136 0.453307 -8.45268e-21)
(0.694166 0.403113 -5.21324e-21)
(0.732489 0.35867 9.60332e-21)
(0.768218 0.318617 -1.22634e-20)
(0.797052 0.28387 -1.9146e-20)
(0.142687 0.264734 3.79116e-20)
(0.31192 0.5057 -2.16955e-20)
(0.431795 0.561882 1.00465e-21)
(0.511313 0.533638 -5.30865e-20)
(0.571343 0.480444 5.78602e-20)
(0.622544 0.427255 -1.83755e-20)
(0.668198 0.379794 1.10281e-20)
(0.70965 0.337819 9.63176e-21)
(0.747906 0.300119 2.7991e-20)
(0.779178 0.26738 -1.15191e-20)
(0.124633 0.250621 -1.5388e-20)
(0.277862 0.475825 4.50975e-20)
(0.394239 0.526742 2.55519e-20)
(0.475794 0.499182 4.21514e-20)
(0.53963 0.448951 -9.77048e-21)
(0.594677 0.399064 3.93486e-21)
(0.643757 0.354633 3.1902e-20)
(0.688158 0.315384 7.14405e-21)
(0.728804 0.280235 6.86618e-22)
(0.762453 0.249652 -1.37941e-20)
(0.107389 0.234358 -3.60045e-20)
(0.245702 0.442561 -2.60862e-21)
(0.359008 0.48835 -1.50956e-20)
(0.442606 0.461946 -6.80647e-20)
(0.510056 0.415108 -6.59881e-20)
(0.568711 0.368861 1.10047e-20)
(0.620994 0.327739 -2.72094e-20)
(0.668144 0.291454 1.74358e-20)
(0.711024 0.259041 9.48257e-21)
(0.746953 0.230766 1.97998e-20)
(0.0911746 0.216074 5.32575e-20)
(0.215761 0.406139 -4.36254e-20)
(0.326392 0.446939 -2.22498e-20)
(0.411985 0.422128 3.93703e-20)
(0.482816 0.379083 4.49702e-20)
(0.54481 0.336789 -1.49699e-20)
(0.600049 0.299236 -1.94665e-21)
(0.649729 0.266133 -5.42002e-20)
(0.69467 0.236627 -3.06834e-20)
(0.73275 0.21081 1.17276e-20)
(0.0761935 0.195921 -3.03499e-20)
(0.188334 0.366817 1.27763e-20)
(0.296657 0.402763 4.71996e-20)
(0.384149 0.379947 -2.12931e-20)
(0.458088 0.341058 1.71212e-21)
(0.523126 0.303004 6.02715e-20)
(0.581053 0.269256 2.7616e-21)
(0.633025 0.239536 5.19593e-20)
(0.679838 0.213091 2.16901e-20)
(0.719913 0.18988 -3.45228e-20)
(0.0626326 0.174069 4.23024e-20)
(0.163686 0.324874 4.71969e-21)
(0.270045 0.356095 3.08915e-21)
(0.359296 0.335638 4.32738e-20)
(0.436035 0.30123 -5.75428e-21)
(0.503796 0.267673 -3.78392e-20)
(0.564122 0.237944 1.85586e-20)
(0.618136 0.211785 -2.96842e-20)
(0.666617 0.188543 -1.24144e-20)
(0.708506 0.168079 1.25621e-20)
(0.0506593 0.150703 -2.63689e-20)
(0.142054 0.280612 -5.07801e-20)
(0.246769 0.307225 1.17728e-20)
(0.337601 0.289449 -2.30559e-20)
(0.416803 0.25981 -1.39174e-20)
(0.486944 0.230976 3.37924e-20)
(0.549363 0.205454 -8.17706e-21)
(0.605154 0.183015 7.55241e-21)
(0.65509 0.1631 -9.20357e-21)
(0.698584 0.145513 1.82765e-20)
(0.0404204 0.126026 9.59828e-21)
(0.123646 0.23435 3.42573e-20)
(0.227015 0.256459 -4.76659e-20)
(0.319218 0.241642 2.25344e-20)
(0.400518 0.217018 -1.0282e-20)
(0.472677 0.193103 -2.89564e-20)
(0.536869 0.17195 2.36582e-20)
(0.59416 0.153365 4.96199e-21)
(0.645326 0.136885 -7.62374e-22)
(0.690197 0.122293 -2.12516e-20)
(0.0320407 0.100252 3.15742e-21)
(0.108637 0.18642 1.10811e-20)
(0.21094 0.204116 4.3188e-20)
(0.304276 0.192489 -8.2975e-21)
(0.387287 0.173086 -6.5419e-21)
(0.461086 0.154251 2.41667e-21)
(0.526716 0.137602 1.07553e-21)
(0.585223 0.122983 8.8354e-21)
(0.637388 0.110029 -1.16146e-20)
(0.683387 0.0985328 -7.38904e-21)
(0.0256219 0.073605 -7.87352e-21)
(0.0971676 0.137171 -1.3483e-20)
(0.198672 0.150527 -3.36303e-20)
(0.292879 0.142273 1.69298e-20)
(0.377197 0.128252 1.38063e-20)
(0.452246 0.114625 5.86394e-22)
(0.51897 0.102587 -2.30934e-20)
(0.578401 0.0920225 -1.02572e-20)
(0.631325 0.0826666 8.13182e-21)
(0.678188 0.074348 8.70452e-21)
(0.021242 0.0463198 1.37321e-21)
(0.0893469 0.0869574 -2.83286e-21)
(0.190307 0.0960295 6.38311e-21)
(0.285108 0.0912823 -4.32427e-21)
(0.370315 0.0827618 -3.81823e-21)
(0.446213 0.0744362 -2.58868e-21)
(0.51368 0.0670855 4.75254e-21)
(0.573736 0.0606398 1.81077e-20)
(0.627176 0.054933 2.62383e-21)
(0.674625 0.0498479 -4.65159e-21)
(0.0189544 0.0186354 1.69732e-21)
(0.0852489 0.0361444 -4.669e-21)
(0.185913 0.040968 -5.29243e-21)
(0.281016 0.0398121 -3.67158e-21)
(0.366686 0.0368649 3.49551e-21)
(0.443025 0.0338981 1.57698e-21)
(0.510878 0.0312833 -1.57116e-21)
(0.571258 0.028996 -7.15663e-21)
(0.624963 0.0269697 2.3559e-21)
(0.672709 0.0251507 -2.20326e-21)
(0.0187877 -0.00920486 -1.69842e-21)
(0.084913 -0.0148999 4.67119e-21)
(0.185524 -0.014309 5.29327e-21)
(0.280634 -0.0118403 -5.0643e-21)
(0.366334 -0.00918577 4.45642e-21)
(0.442704 -0.00677173 2.23028e-21)
(0.510581 -0.00463195 -3.55927e-21)
(0.570981 -0.002744 -4.13483e-21)
(0.6247 -0.00107035 6.09387e-22)
(0.672444 0.000421536 -1.71959e-21)
(0.0207453 -0.0369562 1.86203e-21)
(0.0883435 -0.0658055 -5.56452e-21)
(0.189144 -0.0694514 1.24648e-20)
(0.283964 -0.0633757 -1.09366e-20)
(0.369261 -0.0551363 -5.16882e-22)
(0.445251 -0.0473555 -7.26361e-21)
(0.512794 -0.0404733 1.17967e-20)
(0.572913 -0.0344205 1.60312e-20)
(0.626409 -0.0290565 2.86225e-21)
(0.6739 -0.0242706 -6.16081e-21)
(0.0248055 -0.0643747 -1.59952e-21)
(0.0955101 -0.116203 -1.17723e-20)
(0.196746 -0.124111 -2.73574e-20)
(0.290983 -0.114496 2.36518e-20)
(0.375449 -0.100734 4.86967e-21)
(0.45065 -0.0876361 4.30763e-21)
(0.5175 -0.0760539 -2.12093e-20)
(0.577034 -0.065873 -1.25027e-20)
(0.630054 -0.0568534 -2.78285e-21)
(0.676986 -0.0488376 1.90262e-20)
(0.0309215 -0.0912199 -5.63954e-21)
(0.106348 -0.165728 7.08533e-21)
(0.208272 -0.177941 4.9587e-20)
(0.301643 -0.164906 -4.45064e-21)
(0.384857 -0.145727 -1.27103e-20)
(0.458867 -0.127398 9.10897e-21)
(0.52467 -0.111187 6.34614e-22)
(0.583319 -0.0969366 3.20339e-21)
(0.635616 -0.084306 -7.01595e-21)
(0.681709 -0.0731046 -1.85256e-20)
(0.0390222 -0.117257 -3.8105e-21)
(0.120756 -0.214022 2.06946e-20)
(0.22363 -0.230602 -4.98993e-20)
(0.31587 -0.214315 2.15973e-20)
(0.397423 -0.18987 2.06364e-22)
(0.469849 -0.166429 -2.73206e-20)
(0.534259 -0.14569 1.20645e-20)
(0.591729 -0.127453 -1.12267e-21)
(0.643062 -0.111278 4.57499e-21)
(0.688049 -0.0969681 -1.35697e-21)
(0.0490122 -0.142258 -4.35989e-20)
(0.138603 -0.260736 -5.20703e-20)
(0.242703 -0.281762 1.36364e-20)
(0.333566 -0.262438 -2.47331e-20)
(0.413067 -0.232921 -6.97839e-21)
(0.483525 -0.204523 1.04153e-20)
(0.546206 -0.179386 3.86231e-21)
(0.60221 -0.15727 1.42849e-20)
(0.652344 -0.137637 -3.07476e-21)
(0.695974 -0.120318 1.65538e-20)
(0.0607732 -0.166006 4.16955e-20)
(0.159722 -0.305533 2.67612e-20)
(0.265339 -0.331101 -2.02343e-20)
(0.354606 -0.309003 3.39898e-20)
(0.431684 -0.274649 -2.87815e-21)
(0.49981 -0.241481 -3.6632e-20)
(0.560437 -0.2121 6.4198e-21)
(0.614695 -0.186236 -3.88298e-20)
(0.663403 -0.163251 1.52487e-21)
(0.705444 -0.143037 1.4052e-20)
(0.0741647 -0.188298 -3.09399e-20)
(0.183914 -0.348091 5.53543e-20)
(0.291362 -0.378308 2.16565e-20)
(0.378845 -0.353742 -2.68126e-20)
(0.453154 -0.314828 2.59981e-22)
(0.5186 -0.277109 6.74728e-20)
(0.576862 -0.24367 3.03839e-21)
(0.629106 -0.21421 2.98242e-20)
(0.676169 -0.187993 3.62647e-20)
(0.716411 -0.165012 -2.02984e-20)
(0.0890254 -0.208942 1.73459e-20)
(0.210952 -0.388107 -8.29983e-21)
(0.320564 -0.423091 -1.96486e-20)
(0.406113 -0.396406 1.46903e-20)
(0.477337 -0.353246 5.65464e-20)
(0.539774 -0.311227 -1.98813e-20)
(0.595379 -0.273936 -3.26514e-21)
(0.645352 -0.241057 -4.29989e-20)
(0.690565 -0.211744 -5.30652e-20)
(0.728821 -0.186134 2.3201e-20)
(0.105174 -0.227765 -2.29572e-20)