/*--------------------------------*- C++ -*----------------------------------*\
  =========                 |
  \\      /  F ield         | OpenFOAM: The Open Source CFD Toolbox
   \\    /   O peration     | Website:  https://openfoam.org
    \\  /    A nd           | Version:  7
     \\/     M anipulation  |
\*---------------------------------------------------------------------------*/
FoamFile
{
    version     2.0;
    format      ascii;
    class       volScalarField;
    location    "110";
    object      p;
}
// * * * * * * * * * * * * * * * * * * * * * * * * * * * * * * * * * * * * * //

dimensions      [0 2 -2 0 0 0 0];

internalField   nonuniform List<scalar> 
8500
(
-0.402283
-0.404167
-0.404841
-0.405669
-0.407123
-0.409455
-0.412831
-0.417478
-0.423565
-0.431522
-0.399046
-0.40158
-0.402487
-0.403428
-0.404843
-0.406914
-0.409731
-0.413418
-0.417961
-0.423662
-0.396037
-0.399176
-0.400299
-0.401339
-0.402695
-0.404477
-0.406692
-0.40935
-0.412224
-0.415456
-0.39339
-0.397074
-0.398395
-0.399523
-0.400812
-0.402295
-0.403886
-0.405475
-0.406606
-0.407223
-0.391235
-0.395389
-0.396889
-0.398098
-0.39932
-0.400506
-0.401472
-0.401982
-0.40134
-0.399247
-0.389688
-0.394223
-0.395882
-0.397167
-0.398326
-0.399231
-0.399588
-0.399033
-0.396632
-0.391758
-0.388843
-0.393661
-0.395454
-0.396812
-0.397921
-0.398568
-0.398347
-0.396759
-0.392654
-0.384916
-0.38877
-0.393762
-0.395665
-0.397092
-0.398166
-0.398591
-0.397834
-0.395261
-0.389542
-0.378813
-0.389508
-0.394559
-0.396542
-0.398035
-0.399094
-0.399338
-0.398101
-0.394599
-0.387405
-0.373478
-0.391061
-0.396051
-0.398083
-0.399638
-0.400699
-0.40081
-0.399161
-0.394793
-0.386315
-0.368894
-0.393402
-0.398209
-0.400254
-0.40186
-0.40294
-0.402967
-0.400977
-0.395799
-0.386291
-0.364961
-0.396469
-0.400975
-0.402989
-0.404626
-0.405733
-0.405715
-0.403459
-0.397516
-0.387289
-0.36136
-0.400171
-0.404263
-0.406196
-0.407831
-0.408953
-0.408912
-0.406454
-0.399787
-0.389265
-0.357768
-0.404398
-0.407974
-0.409764
-0.411347
-0.412446
-0.412367
-0.409744
-0.402399
-0.391928
-0.355431
-0.409029
-0.411998
-0.413572
-0.41503
-0.416041
-0.415864
-0.413067
-0.405188
-0.3939
-0.354429
-0.413942
-0.416231
-0.417508
-0.418745
-0.419569
-0.41919
-0.416135
-0.408023
-0.395393
-0.35406
-0.419028
-0.420582
-0.421473
-0.422377
-0.422893
-0.422203
-0.418701
-0.41031
-0.396193
-0.354034
-0.424204
-0.424984
-0.425396
-0.425849
-0.425924
-0.424763
-0.420658
-0.411885
-0.395796
-0.353797
-0.429418
-0.429397
-0.429245
-0.429122
-0.428617
-0.426844
-0.421976
-0.412722
-0.393994
-0.353429
-0.434654
-0.433815
-0.43302
-0.432209
-0.430999
-0.428481
-0.422721
-0.41279
-0.391285
-0.356206
-0.439933
-0.438266
-0.436758
-0.435168
-0.433144
-0.42976
-0.423003
-0.412042
-0.388783
-0.365783
-0.445309
-0.442803
-0.440528
-0.438085
-0.435158
-0.430795
-0.422939
-0.410665
-0.387078
-0.365135
-0.450866
-0.4475
-0.444418
-0.44107
-0.437167
-0.431709
-0.422624
-0.408874
-0.384996
-0.361883
-0.456701
-0.452446
-0.448531
-0.44424
-0.439292
-0.432613
-0.422143
-0.406792
-0.382363
-0.35781
-0.462916
-0.457731
-0.452967
-0.447705
-0.441635
-0.433595
-0.421563
-0.404464
-0.379257
-0.353154
-0.46961
-0.463441
-0.457819
-0.451556
-0.444269
-0.434706
-0.420916
-0.401923
-0.375703
-0.348294
-0.476862
-0.469648
-0.463158
-0.455854
-0.447229
-0.43596
-0.420195
-0.399169
-0.371785
-0.343262
-0.484729
-0.476406
-0.469037
-0.460627
-0.450516
-0.437329
-0.419359
-0.396189
-0.367555
-0.338097
-0.493237
-0.483744
-0.475474
-0.465869
-0.454094
-0.438741
-0.418343
-0.392958
-0.36305
-0.332776
-0.50238
-0.491662
-0.482459
-0.471538
-0.457885
-0.440088
-0.417067
-0.389444
-0.358276
-0.327268
-0.512116
-0.500134
-0.489946
-0.477556
-0.46177
-0.441238
-0.415447
-0.385604
-0.353219
-0.321526
-0.522367
-0.509098
-0.497855
-0.483811
-0.465588
-0.442045
-0.413396
-0.381388
-0.347846
-0.315498
-0.533019
-0.518456
-0.506066
-0.490144
-0.469148
-0.442359
-0.410821
-0.376737
-0.342108
-0.309127
-0.543918
-0.528073
-0.514422
-0.496357
-0.472241
-0.442031
-0.407632
-0.371585
-0.335945
-0.302352
-0.554872
-0.537773
-0.522724
-0.502209
-0.474647
-0.440914
-0.403735
-0.365858
-0.329289
-0.295113
-0.565652
-0.547339
-0.530733
-0.507432
-0.476149
-0.438868
-0.399035
-0.359478
-0.322071
-0.287348
-0.57599
-0.556518
-0.53817
-0.511741
-0.476536
-0.435759
-0.393437
-0.352364
-0.314216
-0.278998
-0.585589
-0.565023
-0.544726
-0.514845
-0.475607
-0.431457
-0.386846
-0.344436
-0.305653
-0.27001
-0.594126
-0.572538
-0.550068
-0.516462
-0.473176
-0.425841
-0.379172
-0.335614
-0.296311
-0.260333
-0.601258
-0.578727
-0.553855
-0.516324
-0.469071
-0.418799
-0.370325
-0.325821
-0.286127
-0.249928
-0.606633
-0.583243
-0.555751
-0.514186
-0.46314
-0.410229
-0.360225
-0.314987
-0.275047
-0.238763
-0.609902
-0.585736
-0.555435
-0.509828
-0.455251
-0.400037
-0.348795
-0.303046
-0.263025
-0.226819
-0.610723
-0.585866
-0.552618
-0.503063
-0.44529
-0.388145
-0.335967
-0.289939
-0.250018
-0.214075
-0.608777
-0.583311
-0.547046
-0.493739
-0.433169
-0.374488
-0.321687
-0.275613
-0.235973
-0.200453
-0.603774
-0.577781
-0.53851
-0.481738
-0.418821
-0.359021
-0.305919
-0.260037
-0.220834
-0.185773
-0.595461
-0.569027
-0.526847
-0.46698
-0.402207
-0.341718
-0.288643
-0.243198
-0.204589
-0.169854
-0.583631
-0.556853
-0.511937
-0.44942
-0.38331
-0.322563
-0.269832
-0.225086
-0.187306
-0.152859
-0.568126
-0.541115
-0.493708
-0.429047
-0.362133
-0.301543
-0.24946
-0.205736
-0.168967
-0.135355
-0.548842
-0.521725
-0.47214
-0.405887
-0.338699
-0.278654
-0.227574
-0.185323
-0.149479
-0.117233
-0.525733
-0.49865
-0.447255
-0.380005
-0.313064
-0.253961
-0.204497
-0.163586
-0.128991
-0.0983728
-0.498806
-0.471915
-0.41913
-0.351502
-0.285333
-0.227732
-0.17992
-0.140703
-0.107591
-0.0787725
-0.468121
-0.44161
-0.387926
-0.32047
-0.255592
-0.199884
-0.154041
-0.116759
-0.0853489
-0.0584946
-0.433795
-0.407896
-0.353884
-0.286925
-0.223952
-0.170516
-0.126959
-0.0918425
-0.0623398
-0.0376385
-0.396004
-0.371003
-0.317096
-0.251023
-0.190546
-0.139762
-0.098786
-0.066049
-0.038651
-0.0163165
-0.354986
-0.331224
-0.277049
-0.213421
-0.155601
-0.107774
-0.0696457
-0.0394809
-0.0143688
0.00538393
-0.31096
-0.288764
-0.234479
-0.173995
-0.119312
-0.0747229
-0.0396755
-0.0122454
0.0104196
0.0273729
-0.26413
-0.243181
-0.190592
-0.13303
-0.0818628
-0.040781
-0.00901221
0.0155573
0.0355707
0.0493066
-0.214899
-0.195464
-0.145172
-0.0908134
-0.043458
-0.00611964
0.0222275
0.0438441
0.0607987
0.0703367
-0.163756
-0.145886
-0.0983725
-0.0476154
-0.0043271
0.0290864
0.0539368
0.0725131
0.0857594
0.089858
-0.110971
-0.0949073
-0.050497
-0.00370925
0.0352903
0.0646484
0.0859543
0.101323
0.110352
0.10968
-0.0569625
-0.0429368
-0.00189966
0.0406174
0.0751485
0.100355
0.118024
0.129864
0.134565
0.134882
-0.00217178
0.00962575
0.0470517
0.0850664
0.114997
0.135979
0.149874
0.158003
0.159317
0.160114
0.0529569
0.0623739
0.0959876
0.129333
0.15458
0.17129
0.181334
0.185817
0.18426
0.183969
0.107976
0.114895
0.14454
0.173111
0.193636
0.206058
0.21223
0.213183
0.208947
0.206793
0.162438
0.166777
0.192347
0.216094
0.231907
0.240061
0.242394
0.239923
0.233026
0.228587
0.2159
0.21761
0.23905
0.257982
0.269135
0.273085
0.271649
0.265856
0.256311
0.249392
0.267924
0.266992
0.284302
0.29848
0.305073
0.304918
0.299816
0.290807
0.278646
0.269174
0.318087
0.314533
0.327766
0.337305
0.339478
0.335356
0.326718
0.314617
0.299909
0.287877
0.36598
0.359858
0.369119
0.374183
0.372119
0.364201
0.352186
0.337139
0.319979
0.30543
0.411213
0.40261
0.408054
0.408855
0.402775
0.391267
0.376061
0.358234
0.338748
0.321761
0.453417
0.442453
0.444282
0.441077
0.431239
0.416375
0.39819
0.377773
0.356107
0.336795
0.492248
0.479074
0.477534
0.47062
0.457318
0.439362
0.418434
0.395637
0.371959
0.350464
0.52739
0.512186
0.507564
0.497277
0.480832
0.460075
0.436663
0.411715
0.386209
0.362703
0.558557
0.541527
0.53415
0.520857
0.501621
0.478377
0.452761
0.425907
0.398776
0.373455
0.585493
0.566868
0.557092
0.541194
0.519543
0.494147
0.466624
0.438124
0.409583
0.382669
0.607978
0.588008
0.57622
0.558142
0.534473
0.507278
0.478162
0.448287
0.418565
0.390302
0.625826
0.604778
0.591389
0.571578
0.546307
0.517683
0.487301
0.456333
0.425668
0.396316
0.638887
0.617045
0.602483
0.581406
0.554961
0.52529
0.493978
0.462208
0.43085
0.400692
0.64705
0.624705
0.609415
0.58755
0.560373
0.530046
0.498149
0.465874
0.434081
0.403421
0.65024
0.627694
0.61213
0.589964
0.562502
0.531915
0.499784
0.467305
0.435339
0.404464
0.648423
0.625979
0.610599
0.588623
0.561329
0.530882
0.49887
0.466489
0.434602
0.403816
0.641604
0.619565
0.604827
0.583532
0.556855
0.526949
0.495408
0.463426
0.431877
0.401469
0.629825
0.60849
0.594846
0.574719
0.549106
0.520137
0.489416
0.458135
0.427183
0.397454
0.613168
0.592828
0.58072
0.562238
0.538128
0.510486
0.48093
0.450646
0.420545
0.391788
0.591755
0.572688
0.562542
0.546167
0.523989
0.498053
0.469998
0.440999
0.411998
0.384488
0.565743
0.548212
0.540435
0.526612
0.506778
0.482915
0.456685
0.429253
0.401589
0.375584
0.535326
0.519577
0.51455
0.503699
0.486603
0.465165
0.441071
0.415476
0.389375
0.365113
0.500734
0.486989
0.485064
0.47758
0.463595
0.444913
0.423251
0.39975
0.375425
0.353122
0.46223
0.450688
0.452182
0.448428
0.4379
0.422286
0.403331
0.382167
0.359816
0.339663
0.420109
0.410941
0.416133
0.416438
0.409686
0.397425
0.381433
0.362831
0.342637
0.324797
0.374696
0.368042
0.377171
0.381825
0.379134
0.370485
0.357688
0.341856
0.323981
0.308591
0.326343
0.322313
0.33557
0.34482
0.346443
0.341637
0.332242
0.319364
0.303951
0.291115
0.275428
0.274098
0.291626
0.305675
0.311826
0.311061
0.305249
0.295487
0.282655
0.272445
0.222348
0.223761
0.245652
0.264654
0.275508
0.278949
0.276872
0.270367
0.260206
0.252653
0.167523
0.171685
0.197979
0.222035
0.237725
0.245503
0.247286
0.244156
0.236723
0.231808
0.111385
0.118268
0.148949
0.17811
0.198724
0.21093
0.21667
0.217015
0.212332
0.20996
0.0543806
0.06392
0.0989185
0.133178
0.158758
0.175445
0.185206
0.189126
0.187192
0.187136
-0.00303718
0.00905856
0.0482518
0.0875453
0.118089
0.139267
0.153073
0.160676
0.161503
0.163284
-0.0604099
-0.0458952
-0.00267991
0.041524
0.0769802
0.102623
0.120441
0.131844
0.135642
0.138427
-0.117279
-0.100522
-0.0535
-0.00457335
0.035698
0.0657455
0.0874848
0.102755
0.110093
0.11226
-0.173186
-0.154407
-0.103829
-0.0504366
-0.00549661
0.0288724
0.0543785
0.0733114
0.0851865
0.0863034
-0.227674
-0.207143
-0.153289
-0.0957628
-0.0463495
-0.00776437
0.0214007
0.0436317
0.0599016
0.066051
-0.280306
-0.258293
-0.20152
-0.140261
-0.0866103
-0.0439502
-0.0111803
0.0141592
0.0342633
0.0461785
-0.330899
-0.307315
-0.248231
-0.183654
-0.126034
-0.0794934
-0.0431975
-0.0148399
0.00840894
0.0247314
-0.378827
-0.353997
-0.293312
-0.225664
-0.164386
-0.114217
-0.0745459
-0.0432656
-0.0173067
0.00235002
-0.423704
-0.397311
-0.336934
-0.26599
-0.201455
-0.147948
-0.105113
-0.0710446
-0.0425996
-0.0200642
-0.465338
-0.437754
-0.377743
-0.304357
-0.237055
-0.18051
-0.134762
-0.0980815
-0.0673276
-0.0421542
-0.503495
-0.475092
-0.415106
-0.340814
-0.270977
-0.211728
-0.163353
-0.124269
-0.0914044
-0.0638327
-0.537924
-0.508999
-0.449492
-0.374748
-0.302999
-0.241446
-0.19076
-0.149503
-0.114745
-0.0850128
-0.568435
-0.539232
-0.480818
-0.405994
-0.332976
-0.269528
-0.216868
-0.173687
-0.137264
-0.105579
-0.594905
-0.56562
-0.508835
-0.434525
-0.360793
-0.295874
-0.241576
-0.196724
-0.158888
-0.125429
-0.617265
-0.588059
-0.533367
-0.460238
-0.386354
-0.320549
-0.264709
-0.218529
-0.179552
-0.144499
-0.635502
-0.606516
-0.554324
-0.483027
-0.409552
-0.343296
-0.286523
-0.238962
-0.199163
-0.162789
-0.64966
-0.621015
-0.571674
-0.502817
-0.430326
-0.364042
-0.30674
-0.258282
-0.217535
-0.180426
-0.659843
-0.631641
-0.585429
-0.519577
-0.448649
-0.382787
-0.32529
-0.276267
-0.234776
-0.197545
-0.666212
-0.638539
-0.595656
-0.533309
-0.464513
-0.39954
-0.34219
-0.292889
-0.250955
-0.213624
-0.668983
-0.64191
-0.602471
-0.544052
-0.47793
-0.414315
-0.35747
-0.30817
-0.265996
-0.228422
-0.668423
-0.642014
-0.606037
-0.55188
-0.488936
-0.427138
-0.371154
-0.322126
-0.27989
-0.242092
-0.664839
-0.639161
-0.606567
-0.556906
-0.49759
-0.43805
-0.383278
-0.334785
-0.292687
-0.254842
-0.658576
-0.633697
-0.604324
-0.559281
-0.50398
-0.44711
-0.393889
-0.346194
-0.304451
-0.266779
-0.650002
-0.625993
-0.599611
-0.559194
-0.508212
-0.454395
-0.403052
-0.356413
-0.315229
-0.277941
-0.6395
-0.616437
-0.592772
-0.556867
-0.510417
-0.45999
-0.410839
-0.365508
-0.32507
-0.28835
-0.627458
-0.605415
-0.584175
-0.552557
-0.510745
-0.463995
-0.417328
-0.373547
-0.334025
-0.298037
-0.614256
-0.593306
-0.574201
-0.546544
-0.509366
-0.466513
-0.422598
-0.380599
-0.342157
-0.307045
-0.600257
-0.58047
-0.563229
-0.539134
-0.506466
-0.467658
-0.426732
-0.386738
-0.349533
-0.315425
-0.5858
-0.567235
-0.55162
-0.530645
-0.502247
-0.467548
-0.429809
-0.392033
-0.356221
-0.323237
-0.571186
-0.553899
-0.539703
-0.521399
-0.496929
-0.466304
-0.431907
-0.396553
-0.362289
-0.330543
-0.55668
-0.540714
-0.527764
-0.511711
-0.490738
-0.464056
-0.4331
-0.400356
-0.367801
-0.337408
-0.542501
-0.527893
-0.516044
-0.501868
-0.483911
-0.460935
-0.433456
-0.403493
-0.372814
-0.343896
-0.528826
-0.515599
-0.504733
-0.492117
-0.476683
-0.457083
-0.433039
-0.406003
-0.377374
-0.350069
-0.51579
-0.50395
-0.493975
-0.482655
-0.469277
-0.452644
-0.431911
-0.407915
-0.381516
-0.355989
-0.503487
-0.493026
-0.483869
-0.473621
-0.461891
-0.447771
-0.430136
-0.409246
-0.385261
-0.361713
-0.491985
-0.48287
-0.474474
-0.465108
-0.454683
-0.442619
-0.427786
-0.410009
-0.388614
-0.367299
-0.481324
-0.473502
-0.465814
-0.45717
-0.447766
-0.437336
-0.424946
-0.410216
-0.391566
-0.372797
-0.471535
-0.464926
-0.457893
-0.449836
-0.441211
-0.432056
-0.421719
-0.409889
-0.394089
-0.37828
-0.462643
-0.457143
-0.450702
-0.443119
-0.435071
-0.426893
-0.418228
-0.409068
-0.396167
-0.383778
-0.454675
-0.450153
-0.444235
-0.437031
-0.429391
-0.421944
-0.41461
-0.407833
-0.397758
-0.389456
-0.447658
-0.443965
-0.438492
-0.431592
-0.424232
-0.417309
-0.411007
-0.40628
-0.398916
-0.395151
-0.44161
-0.438593
-0.433487
-0.426831
-0.419668
-0.413106
-0.407574
-0.404565
-0.399609
-0.401154
-0.436541
-0.434046
-0.429235
-0.422789
-0.41578
-0.409468
-0.4045
-0.402837
-0.39987
-0.406143
-0.432465
-0.430298
-0.425741
-0.419497
-0.412646
-0.40653
-0.402029
-0.401122
-0.400983
-0.40125
-0.429335
-0.427324
-0.422993
-0.416968
-0.410316
-0.404413
-0.400373
-0.399629
-0.402874
-0.399911
-0.427072
-0.425067
-0.420948
-0.415178
-0.408802
-0.403188
-0.399658
-0.398851
-0.405216
-0.401331
-0.425577
-0.423439
-0.419533
-0.41407
-0.408066
-0.402859
-0.399905
-0.399161
-0.407721
-0.403547
-0.424671
-0.422372
-0.418654
-0.413551
-0.408022
-0.403357
-0.401044
-0.400667
-0.410333
-0.406698
-0.42424
-0.421723
-0.418203
-0.41351
-0.408549
-0.404553
-0.402948
-0.403266
-0.413209
-0.411244
-0.424126
-0.421378
-0.418066
-0.413826
-0.40951
-0.406282
-0.405452
-0.406687
-0.416533
-0.41707
-0.424176
-0.421222
-0.418135
-0.414378
-0.410757
-0.408365
-0.408363
-0.410633
-0.420353
-0.423666
-0.424249
-0.421147
-0.418303
-0.415048
-0.412148
-0.410618
-0.411471
-0.414798
-0.424537
-0.43051
-0.424223
-0.421054
-0.418473
-0.415728
-0.413546
-0.412866
-0.414563
-0.418899
-0.428813
-0.437066
-0.42399
-0.420853
-0.418556
-0.416314
-0.414823
-0.414945
-0.417437
-0.422683
-0.432873
-0.443021
-0.423464
-0.420466
-0.41847
-0.416713
-0.415864
-0.41671
-0.419911
-0.425934
-0.436427
-0.448095
-0.422577
-0.419829
-0.418146
-0.416846
-0.416572
-0.418041
-0.421837
-0.428473
-0.439224
-0.452052
-0.421285
-0.418893
-0.41753
-0.416649
-0.41687
-0.418847
-0.423101
-0.430166
-0.44107
-0.454695
-0.419568
-0.417626
-0.416586
-0.41608
-0.416709
-0.419069
-0.423629
-0.430928
-0.441829
-0.455866
-0.417428
-0.41602
-0.415297
-0.415118
-0.416068
-0.418685
-0.423396
-0.430724
-0.441429
-0.455452
-0.414896
-0.414089
-0.413673
-0.413774
-0.414958
-0.417712
-0.422417
-0.429571
-0.439856
-0.453407
-0.412026
-0.41187
-0.411744
-0.412082
-0.413424
-0.416202
-0.420755
-0.427538
-0.437128
-0.449823
-0.408896
-0.409418
-0.409574
-0.410107
-0.411538
-0.414242
-0.418509
-0.424734
-0.433373
-0.444896
-0.405609
-0.406817
-0.40724
-0.407934
-0.409398
-0.411948
-0.415815
-0.421319
-0.428782
-0.438706
-0.450012
-0.479385
-0.515689
-0.534027
-0.510198
-0.433549
-0.343241
-0.271989
-0.240301
-0.250782
-0.265733
-0.246149
-0.194795
-0.141523
-0.110265
-0.0970662
-0.0968185
-0.115723
-0.113309
-0.0961254
-0.0881702
-0.0771071
-0.0512586
-0.0549434
-0.0623148
-0.0699979
-0.0560756
-0.0479052
-0.0118165
-0.0163252
-0.438102
-0.461208
-0.49111
-0.504938
-0.481807
-0.411841
-0.331014
-0.268651
-0.246658
-0.264757
-0.283847
-0.259645
-0.203555
-0.145266
-0.110048
-0.0943533
-0.0915892
-0.108567
-0.105544
-0.0924758
-0.0868594
-0.0766441
-0.0515224
-0.0557213
-0.0633008
-0.0707131
-0.0559274
-0.0476455
-0.0124394
-0.016433
-0.425853
-0.442063
-0.464876
-0.474188
-0.450974
-0.387787
-0.316626
-0.263473
-0.251752
-0.27799
-0.300754
-0.272007
-0.211406
-0.148607
-0.109691
-0.0916804
-0.0865556
-0.101615
-0.0978763
-0.088751
-0.0854506
-0.0761486
-0.0518189
-0.0565125
-0.0643106
-0.0713911
-0.0557412
-0.0473911
-0.0131142
-0.0165651
-0.41375
-0.422565
-0.437641
-0.441219
-0.418063
-0.361442
-0.300013
-0.256316
-0.255343
-0.290212
-0.316165
-0.283168
-0.218346
-0.15156
-0.10923
-0.0890853
-0.0817778
-0.0949355
-0.0903852
-0.0849664
-0.0839493
-0.0756278
-0.0521501
-0.0573128
-0.0653375
-0.0720276
-0.0555164
-0.0471415
-0.0138374
-0.0167205
-0.402229
-0.403305
-0.410114
-0.407303
-0.383581
-0.332998
-0.281135
-0.247099
-0.257233
-0.301102
-0.329832
-0.293066
-0.224381
-0.154143
-0.108699
-0.0866001
-0.0773034
-0.0885892
-0.0831514
-0.0811408
-0.0823619
-0.075088
-0.0525177
-0.0581181
-0.0663743
-0.0726186
-0.0552526
-0.0468954
-0.014605
-0.016898
-0.391623
-0.384783
-0.383005
-0.373231
-0.348161
-0.302821
-0.260044
-0.235815
-0.257277
-0.310321
-0.341551
-0.301648
-0.229529
-0.156375
-0.108128
-0.0842497
-0.0731659
-0.0826267
-0.0762521
-0.077297
-0.0806964
-0.0745351
-0.0529224
-0.0589244
-0.0674136
-0.0731605
-0.0549492
-0.0466513
-0.0154125
-0.0170961
-0.38221
-0.367471
-0.357016
-0.339819
-0.312554
-0.271432
-0.236957
-0.222553
-0.255386
-0.317561
-0.351187
-0.308871
-0.233814
-0.158275
-0.107545
-0.0820533
-0.0693849
-0.0770886
-0.0697572
-0.0734623
-0.078962
-0.0739736
-0.0533645
-0.0597275
-0.0684475
-0.0736495
-0.0546058
-0.0464069
-0.0162549
-0.0173125
-0.374195
-0.351766
-0.332771
-0.307856
-0.277588
-0.239521
-0.212274
-0.207513
-0.251544
-0.322576
-0.358724
-0.314714
-0.237266
-0.159862
-0.106972
-0.0800235
-0.065966
-0.072004
-0.0637274
-0.0696687
-0.0771696
-0.0734073
-0.0538436
-0.0605233
-0.0694679
-0.074082
-0.054222
-0.0461597
-0.0171265
-0.0175447
-0.367694
-0.337963
-0.310778
-0.278041
-0.244124
-0.207944
-0.186571
-0.191012
-0.245806
-0.325204
-0.364228
-0.319169
-0.23992
-0.161155
-0.106429
-0.0781678
-0.0629027
-0.0673899
-0.0582113
-0.0659526
-0.0753314
-0.0728385
-0.0543582
-0.0613076
-0.0704665
-0.0744548
-0.0537977
-0.0459068
-0.0180211
-0.0177897
-0.362741
-0.326249
-0.29141
-0.25095
-0.212998
-0.177589
-0.160616
-0.173465
-0.238294
-0.325384
-0.367371
-0.322228
-0.241814
-0.162172
-0.105931
-0.0764888
-0.0601781
-0.0632501
-0.0532428
-0.0623535
-0.073461
-0.0722685
-0.0549062
-0.0620761
-0.0714351
-0.0747642
-0.0533328
-0.0456451
-0.0189319
-0.0180439
-0.359295
-0.31672
-0.274903
-0.227013
-0.184964
-0.149284
-0.135286
-0.155355
-0.229185
-0.323151
-0.368273
-0.3239
-0.242988
-0.16293
-0.105487
-0.0749858
-0.0577683
-0.0595752
-0.0488405
-0.0589117
-0.0715729
-0.0716974
-0.055485
-0.0628246
-0.0723653
-0.0750071
-0.0528274
-0.0453716
-0.0198517
-0.0183033
-0.357315
-0.309392
-0.261366
-0.206505
-0.16097
-0.123792
-0.111418
-0.137197
-0.218707
-0.318622
-0.367022
-0.324213
-0.243483
-0.163449
-0.10511
-0.0736578
-0.0556461
-0.0563434
-0.0450081
-0.0556652
-0.0696826
-0.071124
-0.0560909
-0.0635487
-0.0732492
-0.0751801
-0.0522815
-0.0450831
-0.020773
-0.0185633
-0.356707
-0.304126
-0.250808
-0.189504
-0.144379
-0.10173
-0.0897232
-0.119493
-0.207119
-0.311988
-0.363747
-0.323212
-0.243346
-0.163757
-0.104809
-0.0725035
-0.0537828
-0.0535202
-0.0417358
-0.0526471
-0.067806
-0.0705459
-0.05672
-0.0642442
-0.074079
-0.0752799
-0.0516956
-0.0447757
-0.0216879
-0.0188193
-0.356318
-0.300591
-0.24309
-0.175695
-0.124519
-0.0832718
-0.0707332
-0.102696
-0.194701
-0.303493
-0.358605
-0.32095
-0.242621
-0.163864
-0.10458
-0.0715115
-0.0521466
-0.051057
-0.0389999
-0.0498833
-0.0659587
-0.0699595
-0.0573676
-0.0649066
-0.0748477
-0.0753035
-0.0510701
-0.0444452
-0.0225879
-0.0190659
-0.356205
-0.299014
-0.237723
-0.165464
-0.109157
-0.0682832
-0.0547456
-0.0871753
-0.181744
-0.293414
-0.351775
-0.317486
-0.241324
-0.16374
-0.104381
-0.0706483
-0.0506999
-0.0488941
-0.0367577
-0.0473892
-0.0641559
-0.0693597
-0.0580288
-0.0655315
-0.0755493
-0.0752492
-0.050406
-0.0440874
-0.0234635
-0.0192978
-0.356316
-0.298881
-0.235152
-0.159187
-0.0984226
-0.0570032
-0.0418863
-0.073206
-0.168535
-0.282041
-0.343483
-0.31292
-0.239458
-0.163352
-0.104176
-0.069893
-0.0494187
-0.046982
-0.0349576
-0.0451642
-0.0624096
-0.0687397
-0.0586983
-0.0661147
-0.0761804
-0.0751157
-0.0497033
-0.0437022
-0.0243067
-0.0195095
-0.356334
-0.299491
-0.234458
-0.156258
-0.0918894
-0.049212
-0.0321279
-0.0609695
-0.155354
-0.269684
-0.333972
-0.307408
-0.237179
-0.162907
-0.104127
-0.0693582
-0.0483417
-0.0453143
-0.0335957
-0.0432005
-0.060727
-0.0680907
-0.0593706
-0.0666511
-0.0767361
-0.0748941
-0.048961
-0.0432953
-0.0251166
-0.0196963
-0.355958
-0.300518
-0.23532
-0.156178
-0.0887034
-0.0446458
-0.0253795
-0.0505234
-0.142425
-0.256613
-0.323122
-0.301018
-0.234892
-0.162911
-0.10461
-0.0692804
-0.0475467
-0.0438855
-0.0327372
-0.0415556
-0.0591324
-0.067401
-0.0600388
-0.0671247
-0.0771785
-0.0745591
-0.0481802
-0.0428691
-0.0258967
-0.0198556
-0.355644
-0.302332
-0.238217
-0.159442
-0.0892846
-0.0434068
-0.0216997
-0.0419041
-0.129637
-0.242495
-0.310453
-0.293341
-0.232347
-0.162971
-0.10526
-0.0693795
-0.0468634
-0.0424827
-0.0322199
-0.0403702
-0.057702
-0.066658
-0.0606908
-0.0675101
-0.0774498
-0.0741127
-0.0473741
-0.0423978
-0.0266127
-0.0199822
-0.354018
-0.30235
-0.24024
-0.163424
-0.0926547
-0.046336
-0.0205689
-0.0363998
-0.118395
-0.228615
-0.298354
-0.284121
-0.227024
-0.159994
-0.103632
-0.0680239
-0.0455775
-0.0406006
-0.0311311
-0.0389782
-0.0560916
-0.0658694
-0.0613749
-0.0679892
-0.0778923
-0.0737218
-0.0465605
-0.0418139
-0.0271415
-0.0200504
-0.338279
-0.293894
-0.233046
-0.157604
-0.0871471
-0.042136
-0.0184292
-0.032085
-0.112395
-0.223023
-0.291242
-0.274561
-0.21761
-0.152651
-0.0986015
-0.0643299
-0.0432796
-0.0379059
-0.0282326
-0.0331561
-0.0515617
-0.06412
-0.0630819
-0.0696154
-0.0796842
-0.073655
-0.0455458
-0.0409486
-0.0275285
-0.0200683
-0.319779
-0.278698
-0.220585
-0.150643
-0.0850888
-0.0443823
-0.0231703
-0.035795
-0.109895
-0.211989
-0.27325
-0.256592
-0.202939
-0.142927
-0.0929368
-0.0607816
-0.0408628
-0.0350338
-0.0267495
-0.0349919
-0.0489416
-0.0636645
-0.0645019
-0.0703053
-0.0797442
-0.0727649
-0.0437327
-0.0396539
-0.0283282
-0.0204053
-0.301572
-0.263144
-0.208653
-0.145364
-0.0854578
-0.0490794
-0.0309067
-0.0433634
-0.109883
-0.200087
-0.253353
-0.237327
-0.188158
-0.133383
-0.0872973
-0.0571732
-0.0383763
-0.0322062
-0.0254089
-0.0348536
-0.0472533
-0.0638751
-0.0655435
-0.070474
-0.0793843
-0.0715082
-0.041721
-0.0381852
-0.0291126
-0.0208055
-0.283652
-0.248064
-0.197882
-0.141741
-0.0906029
-0.0556629
-0.0399868
-0.0515037
-0.109384
-0.187023
-0.232174
-0.217244
-0.173099
-0.12362
-0.081489
-0.0534881
-0.0358006
-0.0293446
-0.0240711
-0.0336731
-0.0453836
-0.0639888
-0.0665645
-0.0706046
-0.0787588
-0.0698527
-0.039495
-0.0364862
-0.0298092
-0.0211763
-0.265292
-0.233388
-0.187972
-0.138651
-0.0937656
-0.0628758
-0.049285
-0.0591485
-0.107666
-0.172544
-0.210089
-0.196836
-0.158111
-0.113882
-0.0755981
-0.0497237
-0.0331097
-0.0263973
-0.0226708
-0.0330614
-0.0431874
-0.0638603
-0.0676919
-0.0706672
-0.077661
-0.0677329
-0.0370262
-0.0345385
-0.0303791
-0.0215107
-0.246595
-0.219078
-0.178704
-0.136748
-0.0970213
-0.0697566
-0.057834
-0.0656433
-0.104746
-0.157387
-0.188051
-0.176837
-0.143524
-0.1043
-0.0696686
-0.0458786
-0.0302774
-0.0233228
-0.0211065
-0.0322655
-0.0407156
-0.0635122
-0.0688117
-0.0704865
-0.0759965
-0.0650926
-0.0342914
-0.0323125
-0.0307677
-0.0217949
-0.2281
-0.20511
-0.169738
-0.133495
-0.0996211
-0.075656
-0.0650162
-0.0706083
-0.100935
-0.142512
-0.167068
-0.157863
-0.129592
-0.0949947
-0.0637573
-0.0419535
-0.0272781
-0.0200737
-0.0192602
-0.0311408
-0.0379302
-0.0628179
-0.0697216
-0.0699402
-0.0736774
-0.0618749
-0.0312669
-0.0297772
-0.0309092
-0.0219944
-0.210132
-0.191473
-0.160973
-0.129902
-0.1012
-0.0802388
-0.0705708
-0.0740172
-0.0966559
-0.12862
-0.147858
-0.140322
-0.116487
-0.0860519
-0.0579104
-0.0379471
-0.0240869
-0.0165987
-0.0169915
-0.0294902
-0.0346689
-0.0614743
-0.0702257
-0.0689257
-0.0706152
-0.0580256
-0.0279311
-0.0268967
-0.0307291
-0.0220612
-0.192879
-0.17818
-0.152307
-0.125842
-0.101629
-0.0834047
-0.0745041
-0.0760464
-0.0922601
-0.116133
-0.130753
-0.124405
-0.104298
-0.0775251
-0.052168
-0.0338608
-0.0206825
-0.0128469
-0.0141245
-0.0270562
-0.0306725
-0.0590815
-0.0701162
-0.0673091
-0.0667283
-0.053499
-0.0242668
-0.023632
-0.0301441
-0.0219388
-0.176483
-0.16526
-0.143672
-0.121292
-0.100938
-0.0851887
-0.0769423
-0.0769059
-0.087977
-0.10515
-0.115767
-0.110133
-0.0930544
-0.0694456
-0.0465634
-0.029701
-0.0170509
-0.00877492
-0.0104485
-0.0235045
-0.0256033
-0.055185
-0.0691443
-0.0649299
-0.0619594
-0.0482656
-0.0202632
-0.0199411
-0.0290623
-0.0215617
-0.161005
-0.152742
-0.135036
-0.116277
-0.0992268
-0.0856923
-0.078048
-0.0767634
-0.0837803
-0.0955482
-0.102736
-0.0974249
-0.0827447
-0.0618301
-0.0411243
-0.0254826
-0.0131929
-0.00435422
-0.00574748
-0.0184094
-0.0190494
-0.0492958
-0.0670241
-0.0616251
-0.0562897
-0.0423214
-0.0159195
-0.0157815
-0.0273863
-0.0208565
-0.146448
-0.14066
-0.1264
-0.110839
-0.0966187
-0.0850485
-0.0779867
-0.0757602
-0.0796486
-0.0871219
-0.0914201
-0.0861494
-0.0733317
-0.0546868
-0.0358745
-0.021232
-0.00912977
0.000416471
0.00016479
-0.011304
-0.0105606
-0.0409563
-0.0634589
-0.0572544
-0.049751
-0.0356969
-0.0112492
-0.0111144
-0.0250178
-0.0197443
-0.132803
-0.129048
-0.11779
-0.105041
-0.0932459
-0.0834045
-0.0769174
-0.0740196
-0.0755387
-0.0796551
-0.0815676
-0.0761605
-0.0647645
-0.0480195
-0.0308368
-0.0169905
-0.00490559
0.00549228
0.00738298
-0.00146237
0.000260573
-0.0298887
-0.0581915
-0.0517267
-0.0424343
-0.028468
-0.00628403
-0.00591238
-0.0218678
-0.0181465
-0.12005
-0.117936
-0.109252
-0.0989537
-0.0892403
-0.0809128
-0.0749948
-0.0716556
-0.0714179
-0.0729612
-0.0729472
-0.0673137
-0.0569868
-0.0418296
-0.0260334
-0.0128159
-0.00059065
0.0107634
0.0157597
0.0109172
0.0135528
-0.0162001
-0.051079
-0.0450235
-0.0344931
-0.0207628
-0.00107761
-0.000169415
-0.0178704
-0.015994
-0.108166
-0.107354
-0.100842
-0.0926593
-0.0847309
-0.0777236
-0.0723683
-0.0687781
-0.0672727
-0.0668889
-0.0653572
-0.0594744
-0.0499421
-0.0361164
-0.0214862
-0.00877461
0.00370972
0.0160476
0.0247855
0.0253674
0.0288325
-0.000625565
-0.0421369
-0.0370762
-0.0261272
-0.0127624
0.00429475
0.0060848
-0.0130044
-0.0132406
-0.097126
-0.0973245
-0.0926179
-0.0862447
-0.079844
-0.0739847
-0.0691753
-0.0654901
-0.0631059
-0.0613207
-0.0586278
-0.0525203
-0.0435766
-0.0308749
-0.0172183
-0.00492779
0.00785154
0.0211115
0.033568
0.0399155
0.0444188
0.0153226
-0.0314597
-0.028279
-0.0175722
-0.00469468
0.00973766
0.0127727
-0.00731306
-0.00988463
-0.0869061
-0.0878686
-0.0846418
-0.0797982
-0.0747016
-0.0698419
-0.0655515
-0.0618886
-0.0589334
-0.0561688
-0.0526197
-0.0463423
-0.0378403
-0.0260936
-0.0132571
-0.00132475
0.0116768
0.0257057
0.0411076
0.052103
0.0576508
0.0297536
-0.0191834
-0.0188106
-0.00909695
0.00318021
0.0151255
0.0197588
-0.000917542
-0.00598382
-0.0774805
-0.0790023
-0.0769706
-0.0734062
-0.069417
-0.065424
-0.0616286
-0.0580737
-0.0547828
-0.0513703
-0.0472215
-0.0408443
-0.0326872
-0.0217549
-0.00963237
0.0019881
0.0150482
0.0295866
0.0466756
0.0603796
0.0665001
0.0412674
-0.00584339
-0.00906834
-0.000989999
0.0105997
0.0202899
0.0268416
0.0071969
-0.00167136
-0.0688242
-0.0707377
-0.0696571
-0.0671497
-0.0640948
-0.0608491
-0.0575206
-0.0541392
-0.0506883
-0.0468831
-0.0423464
-0.0359434
-0.028075
-0.0178397
-0.00636911
0.00496217
0.0178626
0.0325554
0.0499402
0.0642495
0.0705827
0.0493844
0.00729289
0.000397366
0.0064869
0.0173431
0.0250518
0.0336453
0.0143645
0.00276746
-0.0609128
-0.0630837
-0.0627479
-0.0611035
-0.0588316
-0.0562275
-0.0533326
-0.050168
-0.0466875
-0.0426825
-0.0379286
-0.0315698
-0.0239641
-0.014331
-0.00348094
0.00755243
0.0200754
0.0345257
0.051128
0.0647867
0.0710078
0.0542763
0.0187758
0.00908571
0.0131581
0.0232556
0.0292547
0.039698
0.021083
0.00697157
-0.0537232
-0.0560463
-0.056284
-0.055336
-0.0537148
-0.0516579
-0.0491604
-0.046237
-0.0428205
-0.0387576
-0.0339206
-0.027667
-0.0203184
-0.0112146
-0.000966906
0.00972895
0.0217054
0.035546
0.0507924
0.0632538
0.0691655
0.0565017
0.0277775
0.0166769
0.0189562
0.0282548
0.0328045
0.0444525
0.0267911
0.0105492
-0.0472349
-0.04963
-0.0503011
-0.0499081
-0.0488226
-0.0472289
-0.0450913
-0.0424181
-0.0391286
-0.0351084
-0.0302896
-0.0241913
-0.0171043
-0.00847773
0.00118621
0.0114879
0.0228133
0.0357816
0.0494903
0.0606061
0.0661225
0.0568316
0.0342406
0.0230571
0.0238948
0.0323117
0.035676
0.0474699
0.0310962
0.0131924
-0.0414306
-0.0438389
-0.0448308
-0.0448744
-0.0442249
-0.0430193
-0.0412039
-0.0387778
-0.0356537
-0.0317438
-0.0270157
-0.0211104
-0.0142915
-0.0061057
0.00300013
0.0128531
0.0234837
0.035442
0.047661
0.0574842
0.0625838
0.0559879
0.0386143
0.0282642
0.0280214
0.0354383
0.0378905
0.0485213
0.0338148
0.0148184
-0.0362974
-0.0386785
-0.0399023
-0.0402844
-0.0399855
-0.0390999
-0.0375692
-0.0353785
-0.0324383
-0.0286798
-0.0240897
-0.0184019
-0.0118537
-0.00408045
0.00450236