/*--------------------------------*- C++ -*----------------------------------*\
  =========                 |
  \\      /  F ield         | OpenFOAM: The Open Source CFD Toolbox
   \\    /   O peration     | Website:  https://openfoam.org
    \\  /    A nd           | Version:  7
     \\/     M anipulation  |
\*---------------------------------------------------------------------------*/
FoamFile
{
    version     2.0;
    format      ascii;
    class       surfaceScalarField;
    location    "110";
    object      phi;
}
// * * * * * * * * * * * * * * * * * * * * * * * * * * * * * * * * * * * * * //

dimensions      [0 3 -1 0 0 0 0];

internalField   nonuniform List<scalar> 
16735
(
-7.27651e-05
-0.00174718
0.00181995
-0.00028685
-0.00462322
0.00483731
-0.000642906
-0.00706756
0.00742362
-0.00112621
-0.00905106
0.00953436
-0.00170924
-0.0106865
0.0112696
-0.00235991
-0.0121741
0.0128247
-0.00305087
-0.013708
0.0143989
-0.00376626
-0.0154017
0.0161171
-0.00450233
-0.0172546
0.0179907
-0.0191267
0.0198904
-0.00526596
-0.000102202
-0.00164498
-0.000380363
-0.00434506
-0.000821148
-0.00662678
-0.00140082
-0.00847139
-0.00208852
-0.00999883
-0.00285407
-0.0114085
-0.00367622
-0.0128858
-0.00454879
-0.0145291
-0.00548107
-0.0163223
-0.0181121
-0.00649573
-0.000130003
-0.00151498
-0.000467145
-0.00400792
-0.00098399
-0.00610993
-0.00164792
-0.00780746
-0.00242452
-0.00922224
-0.00328424
-0.0105488
-0.00420917
-0.0119609
-0.00519882
-0.0135395
-0.00627141
-0.0152498
-0.0169223
-0.00746122
-0.000155234
-0.00135974
-0.000544637
-0.00361851
-0.00112721
-0.00552736
-0.00186189
-0.00707278
-0.00271045
-0.00837367
-0.00364255
-0.00961668
-0.00464042
-0.010963
-0.00570447
-0.0124754
-0.00685672
-0.0140975
-0.0156407
-0.00813825
-0.000177025
-0.00118272
-0.000610516
-0.00318502
-0.00124706
-0.00489082
-0.0020378
-0.00628203
-0.0029406
-0.00747088
-0.00392281
-0.00863447
-0.00496358
-0.00992225
-0.00605899
-0.01138
-0.00722872
-0.0129278
-0.0143547
-0.00851478
-0.000194588
-0.000988129
-0.000662703
-0.00271691
-0.00134016
-0.00421336
-0.00217123
-0.00545096
-0.00310979
-0.00653232
-0.0041197
-0.00762456
-0.00517395
-0.00886799
-0.00625897
-0.010295
-0.00738527
-0.0118015
-0.0131518
-0.00858816
-0.000207233
-0.000780896
-0.000699372
-0.00222477
-0.00140349
-0.00350925
-0.00225803
-0.00459641
-0.00321297
-0.00557738
-0.00422773
-0.0066098
-0.00526675
-0.00782897
-0.00630174
-0.00926002
-0.00732686
-0.0107764
-0.0121191
-0.00835959
-0.000214394
-0.000566501
-0.000718994
-0.00172017
-0.00143439
-0.00279385
-0.00229425
-0.00373655
-0.00324479
-0.00462685
-0.0042404
-0.00561419
-0.00523531
-0.00683406
-0.00618228
-0.00831306
-0.0070523
-0.00990634
-0.0113419
-0.00782944
-0.000215667
-0.000350834
-0.000720412
-0.00121542
-0.00143066
-0.0020836
-0.0022762
-0.002891
-0.00319951
-0.00370354
-0.00414961
-0.00466409
-0.00506967
-0.00591401
-0.00589045
-0.00749227
-0.00655432
-0.00924247
-0.0109032
-0.00699306
-0.000210855
-0.000139979
-0.000702978
-0.000723302
-0.00139076
-0.00139582
-0.00220078
-0.00208098
-0.00307146
-0.00283286
-0.00394592
-0.00378962
-0.00475624
-0.00510369
-0.00540965
-0.00683886
-0.00581625
-0.00883586
-0.0108804
-0.00583899
-0.000200033
6.00544e-05
-0.00066671
-0.000256626
-0.00131419
-0.000748341
-0.00206606
-0.00132911
-0.00285584
-0.00204309
-0.00361982
-0.00302564
-0.00427915
-0.00444437
-0.00471794
-0.00640007
-0.00481164
-0.00874216
-0.0113401
-0.00435197
-0.000183596
0.00024365
-0.000612452
0.000172231
-0.00120184
-0.000158958
-0.00187203
-0.000658916
-0.00255019
-0.00136493
-0.0031639
-0.00241193
-0.00362322
-0.00398504
-0.00379123
-0.00623206
-0.00350709
-0.0090263
-0.0123226
-0.00252458
-0.000162254
0.000405904
-0.000541995
0.000551972
-0.00105625
0.000355299
-0.00162129
-9.38797e-05
-0.00215583
-0.000830387
-0.00257588
-0.00199188
-0.00277909
-0.00378183
-0.00260893
-0.00640222
-0.00185437
-0.00978086
-0.0137628
-0.000414205
-0.000137079
0.000542983
-0.000458045
0.000872938
-0.000881785
0.000779039
-0.00131948
0.00034381
-0.00167899
-0.000470872
-0.00186131
-0.00180956
-0.00174975
-0.00389339
-0.00117617
-0.0069758
0.00025131
-0.0112083
-0.0158038
0.00229229
-0.000109388
0.00065237
-0.000364121
0.00112767
-0.000684375
0.00109929
-0.000974982
0.000634417
-0.00113068
-0.000315173
-0.00103393
-0.00190631
-0.000548577
-0.00437875
0.000475472
-0.00799985
0.00245662
-0.0131895
-0.0186655
0.00531836
-8.06284e-05
0.000732999
-0.00026418
0.00131122
-0.000470947
0.00130606
-0.000598089
0.000761559
-0.000525174
-0.000388087
-0.000114525
-0.00231696
0.00079725
-0.00529052
0.00238849
-0.00959109
0.00499883
-0.0157998
-0.0222053
0.00853866
-5.22188e-05
0.000785217
-0.000162169
0.00142117
-0.000248519
0.00139241
-0.000199503
0.000712543
0.000121363
-0.000708953
0.000878243
-0.00307384
0.00225306
-0.00666534
0.00443124
-0.0117693
0.00771878
-0.0190874
-0.0262969
0.0118104
-2.53643e-05
0.000810582
-6.15002e-05
0.00145731
-2.33028e-05
0.00135421
0.000211854
0.000477386
0.000799124
-0.00129622
0.00192268
-0.0041974
0.00378818
-0.00853084
0.00658094
-0.014562
0.0104978
-0.0230043
-0.0307808
0.0149817
-9.2529e-07
0.000811507
3.54021e-05
0.00142098
0.000200712
0.0011889
0.000629822
4.82759e-05
0.00149652
-0.00216292
0.00300738
-0.00570826
0.00538024
-0.0109037
0.00879901
-0.0179808
0.0132281
-0.0274334
-0.0354792
0.0179266
2.08209e-05
0.000790686
0.000127418
0.00131438
0.000421482
0.000894839
0.00105202
-0.000582265
0.00221223
-0.00332313
0.00412747
-0.0076235
0.00701353
-0.0137898
0.0110293
-0.0219966
0.0158335
-0.0322375
-0.0402402
0.0205945
3.99852e-05
0.000750701
0.000215125
0.00113924
0.000640131
0.000469833
0.0014806
-0.00142274
0.0029488
-0.00479133
0.00528176
-0.00995646
0.00867039
-0.0171784
0.0131813
-0.0265075
0.0182611
-0.0373173
-0.0471472
0.025168
5.72921e-05
0.000693409
0.000300362
0.000896175
0.000860242
-9.00479e-05
0.00192099
-0.00248349
0.00371171
-0.00658204
0.00646764
-0.0127124
0.0103244
-0.0210352
0.0151954
-0.0313786
0.02056
-0.0426818
-0.0533951
0.0268079
7.38292e-05
0.00061958
0.000386165
0.00058384
0.00108722
-0.000791104
0.0023804
-0.00377667
0.00450601
-0.00870765
0.0076758
-0.0158822
0.0119318
-0.0252912
0.01701
-0.0364567
0.022379
-0.0480508
-0.0589143
0.0278982
9.09193e-05
0.00052866
0.00047619
0.000198569
0.00132716
-0.00164207
0.00286562
-0.00531513
0.00533237
-0.0111744
0.0088859
-0.0194357
0.0134366
-0.0298419
0.0185567
-0.0415769
0.0236816
-0.0531758
-0.0637916
0.0285589
0.000109918
0.000418742
0.000574069
-0.000265583
0.00158556
-0.00265357
0.00338064
-0.00711021
0.00618352
-0.0139773
0.0100646
-0.0233168
0.0147784
-0.0345557
0.0197739
-0.0465724
0.0245124
-0.0579142
-0.0680334
0.0287542
0.000132021
0.000286721
0.000682817
-0.000816378
0.00186606
-0.00383681
0.00392454
-0.00916869
0.00704237
-0.0170951
0.0111683
-0.0274427
0.0159019
-0.0392893
0.0206326
-0.0513031
0.0248979
-0.0621795
-0.0716745
0.028539
0.000158116
0.000128606
0.00080435
-0.00146261
0.00216946
-0.00520192
0.0044903
-0.0114895
0.00788248
-0.0204873
0.01215
-0.0317102
0.0167667
-0.0439061
0.0211302
-0.0556665
0.0248908
-0.0659401
-0.0747744
0.0279907
0.00018869
-6.00845e-05
0.000939196
-0.00221312
0.00249326
-0.00675599
0.0050646
-0.0140609
0.00867122
-0.0240939
0.0129675
-0.0360065
0.0173522
-0.0482908
0.0212874
-0.0596017
0.0245503
-0.069203
-0.0773984
0.0271743
0.00022382
-0.000283905
0.00108642
-0.00307572
0.00283164
-0.0085012
0.00562892
-0.0168581
0.00937459
-0.0278396
0.0135903
-0.0402222
0.0176574
-0.0523578
0.0211398
-0.0630841
0.0239361
-0.0719993
-0.079615
0.0261526
0.000263209
-0.000547113
0.00124377
-0.00405628
0.00317587
-0.0104333
0.00616159
-0.0198439
0.00996228
-0.0316403
0.0140022
-0.0442621
0.0176975
-0.0560532
0.0207305
-0.0661171
0.0231045
-0.0743733
-0.0814862
0.0249757
0.000306255
-0.000853368
0.00140784
-0.00515787
0.00351511
-0.0125406
0.00664047
-0.0229692
0.0104116
-0.0354114
0.0142009
-0.0480514
0.0174983
-0.0593506
0.020104
-0.0687228
0.0221044
-0.0763738
-0.0830661
0.0236843
0.000352129
-0.0012055
0.00157442
-0.00638016
0.0038373
-0.0148034
0.00704554
-0.0261775
0.0107094
-0.0390753
0.0141958
-0.0515378
0.017091
-0.0622457
0.0193026
-0.0709344
0.0209771
-0.0780483
-0.0843985
0.0223095
0.000399837
-0.00160533
0.00173873
-0.00771905
0.00413025
-0.017195
0.00736094
-0.0294082
0.0108518
-0.0425661
0.014004
-0.05469
0.0165085
-0.0647501
0.0183639
-0.0727898
0.0197555
-0.0794399
-0.0855181
0.0208751
0.000448263
-0.0020536
0.00189566
-0.00916645
0.00438265
-0.019682
0.00757625
-0.0326018
0.0108429
-0.0458327
0.0136472
-0.0574944
0.0157826
-0.0668855
0.0173202
-0.0743275
0.018466
-0.0805857
-0.0864508
0.0193986
0.000496207
-0.0025498
0.0020401
-0.0107103
0.00458495
-0.0222268
0.00768666
-0.0357035
0.0106928
-0.0488388
0.013149
-0.0599507
0.0149425
-0.0686789
0.0161983
-0.0755833
0.0171286
-0.0815159
-0.0872155
0.0178932
0.000542418
-0.00309222
0.00216718
-0.0123351
0.00473001
-0.0247896
0.00769252
-0.038666
0.0104152
-0.0515615
0.0125329
-0.0620684
0.0140136
-0.0701597
0.0150199
-0.0765896
0.0157587
-0.0822547
-0.0878253
0.0163685
0.000585633
-0.00367786
0.00227252
-0.014022
0.00481345
-0.0273306
0.00759833
-0.0414508
0.0100261
-0.0539893
0.0118209
-0.0638632
0.013018
-0.0713567
0.0138022
-0.0773739
0.014368
-0.0828205
-0.0882892
0.0148319
0.000624621
-0.00430248
0.0023525
-0.0157499
0.00483365
-0.0298117
0.00741162
-0.0440288
0.00954189
-0.0561195
0.0110332
-0.0653545
0.0119736
-0.0722971
0.0125587
-0.077959
0.0129653
-0.083227
-0.0886131
0.0132892
0.000658231
-0.00496071
0.00240444
-0.0174961
0.00479146
-0.0321987
0.00714185
-0.0463792
0.00897869
-0.0579564
0.0101874
-0.0665632
0.0108956
-0.0730053
0.0112999
-0.0783634
0.0115573
-0.0834844
-0.0888007
0.0117449
0.000685438
-0.00564615
0.00242667
-0.0192373
0.00468983
-0.0344619
0.00679946
-0.0484888
0.0083516
-0.0595085
0.00929859
-0.0675102
0.00979584
-0.0735025
0.010034
-0.0786015
0.0101491
-0.0835995
-0.0888546
0.010203
0.000705385
-0.00635153
0.00241857
-0.0209505
0.00453318
-0.0365765
0.00639519
-0.0503509
0.00767433
-0.0607876
0.00837964
-0.0682156
0.00868407
-0.0738069
0.00876718
-0.0786846
0.00874503
-0.0835774
-0.0887762
0.00866664
0.000717407
-0.00706894
0.00238048
-0.0226136
0.00432699
-0.038523
0.00593952
-0.0519634
0.00695906
-0.0618072
0.00744121
-0.0686977
0.00756791
-0.0739336
0.00750447
-0.0786212
0.00734824
-0.0834212
-0.0885657
0.00713774
0.000721051
-0.00778999
0.00231357
-0.0242061
0.00407727
-0.0402867
0.00544231
-0.0533284
0.00621639
-0.0625813
0.00649208
-0.0689734
0.00645341
-0.073895
0.00624958
-0.0784173
0.00596134
-0.0831329
-0.0882227
0.00561829
0.000716079
-0.00850607
0.00221968
-0.0257097
0.00379025
-0.0418573
0.00491263
-0.0544508
0.00545544
-0.0631241
0.00553949
-0.0690574
0.00534545
-0.0737009
0.00500553
-0.0780774
0.00458624
-0.0827136
-0.087746
0.0041096
0.000702459
-0.00920853
0.00210112
-0.0271084
0.00347203
-0.0432282
0.00435863
-0.0553374
0.00468396
-0.0634494
0.00458937
-0.0689629
0.00424815
-0.0733597
0.00377536
-0.0776046
0.00322445
-0.0821627
-0.0871333
0.00261168
0.000680361
-0.00988889
0.00196052
-0.0283885
0.00312847
-0.0443962
0.00378751
-0.0559964
0.0039084
-0.0635703
0.00364651
-0.068701
0.00316499
-0.0728782
0.00256295
-0.0770026
0.0018782
-0.081478
-0.0863747
0.00111969
0.000650161
-0.010539
0.00180092
-0.0295393
0.00276506
-0.0453603
0.00320553
-0.0564369
0.00313415
-0.0634989
0.00271464
-0.0682815
0.00209857
-0.0722621
0.00137105
-0.0762751
0.000559064
-0.080666
-0.0854493
-0.000366345
0.000612396
-0.0111514
0.0016253
-0.0305522
0.00238683
-0.0461218
0.00261813
-0.0566682
0.00236565
-0.0632464
0.00179675
-0.0677126
0.00105115
-0.0715165
0.000191052
-0.075415
-0.000741231
-0.0797337
-0.0844222
-0.0017684
0.000567728
-0.0117192
0.00143651
-0.031421
0.00199836
-0.0466837
0.00202999
-0.0566999
0.0016065
-0.0628229
0.000895472
-0.0670015
1.32076e-05
-0.0706343
-0.000953262
-0.0744485
-0.00202298
-0.078664
-0.0832769
-0.00316822
0.00051692
-0.0122361
0.00123732
-0.0321414
0.00160382
-0.0470502
0.0014451
-0.0565411
0.000859331
-0.0622372
6.76554e-06
-0.066149
-0.000979961
-0.0696475
-0.00207751
-0.073351
-0.0032732
-0.0774683
-0.0820026
-0.00454752
0.000460829
-0.0126969
0.00103038
-0.0327109
0.00120682
-0.0472266
0.000866669
-0.056201
0.000128409
-0.0614989
-0.000845879
-0.0651747
-0.00196005
-0.0685334
-0.00317755
-0.0721335
-0.0044963
-0.0761495
-0.080599
-0.00589985
0.000400365
-0.0130973
0.000818454
-0.033129
0.000810248
-0.0472184
0.000298807
-0.0556895
-0.000585135
-0.060615
-0.00168523
-0.0640746
-0.00291612
-0.0673025
-0.00425098
-0.0707986
-0.00569158
-0.0747089
-0.0790679
-0.00722269
0.000336357
-0.0134336
0.000604337
-0.033397
0.000417436
-0.0470315
-0.000258531
-0.0550136
-0.00128086
-0.0595926
-0.00250209
-0.0628534
-0.0038467
-0.0659579
-0.00529653
-0.0693488
-0.00685747
-0.073148
-0.0774116
-0.00851378
0.000269728
-0.0137034
0.00038969
-0.0335169
4.53779e-05
-0.0466872
-0.000802037
-0.0541662
-0.00195797
-0.0584367
-0.0032955
-0.0615158
-0.00475097
-0.0645024
-0.00631335
-0.0677864
-0.00799255
-0.0714688
-0.0756339
-0.00977029
0.000202454
-0.0139058
0.000176273
-0.0334908
-0.000354356
-0.0461566
-0.00133414
-0.0531864
-0.00261476
-0.0571561
-0.00406461
-0.060066
-0.00562819
-0.0629388
-0.0073007
-0.0661139
-0.00909535
-0.0696741
-0.073741
-0.0109882
0.000133737
-0.0140396
-1.65498e-05
-0.0333405
-0.000728327
-0.0454448
-0.00185153
-0.0520632
-0.00325068
-0.0557569
-0.00480871
-0.0585079
-0.00647768
-0.0612698
-0.00825777
-0.0643338
-0.0101646
-0.0677673
-0.0717379
-0.0121677
5.8474e-05
-0.014098
-0.000257813
-0.0330242
-0.00109496
-0.0446076
-0.00235149
-0.0508066
-0.00386489
-0.0542435
-0.00552737
-0.0568455
-0.00729901
-0.0594982
-0.00918402
-0.0624488
-0.0112004
-0.065751
-0.0696217
-0.0133165
-1.90738e-05
-0.014079
-0.000472554
-0.0325707
-0.00145105
-0.0436291
-0.00283331
-0.0494244
-0.00445634
-0.0526205
-0.00622018
-0.0550816
-0.00809254
-0.0576258
-0.0100805
-0.0604608
-0.0122018
-0.0636297
-0.0673915
-0.014432
-8.90594e-05
-0.0139899
-0.000678688
-0.0319811
-0.00179479
-0.042513
-0.00329672
-0.0479225
-0.00502441
-0.0508928
-0.00688661
-0.0532194
-0.00885893
-0.0556535
-0.0109506
-0.0583691
-0.0131639
-0.0614165
-0.0650634
-0.015492
-0.000160738
-0.0138292
-0.000878072
-0.0312637
-0.00212534
-0.0412658
-0.00374097
-0.0463068
-0.00556842
-0.0490654
-0.00752561
-0.0512622
-0.00959613
-0.053583
-0.0117929
-0.0561723
-0.0141256
-0.0590838
-0.0627842
-0.0164048
-0.000231354
-0.0135978
-0.00107076
-0.0304243
-0.00244217
-0.0398944
-0.0041655
-0.0445835
-0.00608789
-0.047143
-0.00813616
-0.049214
-0.0102991
-0.05142
-0.0125779
-0.0538936
-0.0149355
-0.0567261
-0.0599824
-0.0177373
-0.000300229
-0.0132976
-0.00125631
-0.0294683
-0.00274485
-0.0384058
-0.00456993
-0.0427584
-0.00658265
-0.0451302
-0.00871764
-0.047079
-0.0109645
-0.0491732
-0.0133194
-0.0515387
-0.0158007
-0.0542448
-0.0572017
-0.0185814
-0.000366982
-0.0129306
-0.00143416
-0.0284011
-0.00303301
-0.036807
-0.00495395
-0.0408375
-0.0070524
-0.0430318
-0.00927
-0.0448614
-0.0115991
-0.046844
-0.0140445
-0.0490934
-0.0166407
-0.0516485
-0.0543989
-0.0194434
-0.000431308
-0.0124993
-0.00160385
-0.0272285
-0.00330628
-0.0351045
-0.0053173
-0.0388265
-0.00749671
-0.0408524
-0.00979241
-0.0425657
-0.0121997
-0.0444367
-0.0147289
-0.0465642
-0.0174106
-0.0489669
-0.051546
-0.0202635
-0.000492942
-0.0120064
-0.00176495
-0.0259565
-0.00356438
-0.0333051
-0.0056598
-0.036731
-0.00791547
-0.0385967
-0.0102851
-0.040196
-0.0127675
-0.0419544
-0.0153755
-0.0439562
-0.0181339
-0.0462085
-0.0486309
-0.0210489
-0.000551644
-0.0114547
-0.0019171
-0.0245911
-0.00380706
-0.0314151
-0.00598127
-0.0345568
-0.0083085
-0.0362695
-0.0107479
-0.0377565
-0.0133011
-0.0394012
-0.0159823
-0.041275
-0.0188116
-0.0433791
-0.0456493
-0.0217933
-0.000607201
-0.0108475
-0.00206003
-0.0231382
-0.00403411
-0.0294411
-0.00628159
-0.0323094
-0.00867573
-0.0338753
-0.0111807
-0.0352516
-0.0138004
-0.0367816
-0.0165495
-0.0385258
-0.0194461
-0.0404826
-0.0426007
-0.0224947
-0.000659424
-0.0101881
-0.00219347
-0.0216042
-0.00424535
-0.0273892
-0.00656069
-0.029994
-0.00901706
-0.031419
-0.0115832
-0.0326855
-0.0142649
-0.0340998
-0.0170774
-0.0357133
-0.0200374
-0.0375226
-0.0394871
-0.023151
-0.000708147
-0.00947993
-0.00231721
-0.0199951
-0.00444067
-0.0252657
-0.00681848
-0.0276162
-0.00933241
-0.028905
-0.0119553
-0.0300626
-0.0146946
-0.0313605
-0.0175658
-0.0328421
-0.0205853
-0.034503
-0.0363117
-0.0237607
-0.000753225
-0.00872671
-0.0024311
-0.0183173
-0.00461994
-0.0230769
-0.00705491
-0.0251812
-0.00962172
-0.0263382
-0.0122968
-0.0273875
-0.0150892
-0.0285681
-0.0180146
-0.0299167
-0.0210894
-0.0314283
-0.0330785
-0.0243226
-0.000794534
-0.00793217
-0.00253498
-0.0165768
-0.00478309
-0.0208288
-0.00726994
-0.0226944
-0.00988491
-0.0237233
-0.0126077
-0.0246647
-0.0154485
-0.0257273
-0.0184235
-0.0269418
-0.021549
-0.0283028
-0.029792
-0.0248354
-0.000831966
-0.00710021
-0.00262872
-0.0147801
-0.00493005
-0.0185274
-0.00746354
-0.0201609
-0.0101219
-0.0210648
-0.0128878
-0.0218989
-0.0157725
-0.0228427
-0.0187923
-0.023922
-0.0219638
-0.0251313
-0.0264573
-0.0252985
-0.000865428
-0.00623478
-0.00271225
-0.0129332
-0.00506078
-0.0161789
-0.00763568
-0.017586
-0.0103328
-0.0183677
-0.0131371
-0.0190945
-0.0160608
-0.019919
-0.0191207
-0.0208621
-0.0223332
-0.0219187
-0.0230793
-0.0257112
-0.000894842
-0.00533994
-0.00278546
-0.0110426
-0.00517522
-0.0137891
-0.00778634
-0.0149749
-0.0105174
-0.0156367
-0.0133554
-0.0162565
-0.0163135
-0.0169609
-0.0194085
-0.0177671
-0.0226571
-0.0186701
-0.0196636
-0.0260729
-0.000920143
-0.00441979
-0.00284829
-0.00911448
-0.00527335
-0.0113641
-0.00791552
-0.0123327
-0.0106757
-0.0128766
-0.0135428
-0.0133894
-0.0165303
-0.0139733
-0.0196555
-0.0146419
-0.0229351
-0.0153906
-0.0162154
-0.0263833
-0.000941276
-0.00347852
-0.0029007
-0.00715506
-0.00535515
-0.00890963
-0.00802319
-0.00966468
-0.0108077
-0.0100921
-0.013699
-0.010498
-0.0167113
-0.0109611
-0.0198617
-0.0114915
-0.023167
-0.0120853
-0.0127401
-0.0266422
-0.000958197
-0.00252032
-0.00294262
-0.00517063
-0.00542058
-0.00643167
-0.00810936
-0.0069759
-0.0109134
-0.00728805
-0.0138242
-0.00758719
-0.0168562
-0.00792911
-0.0200268
-0.00832088
-0.0233527
-0.00875947
-0.00924338
-0.0268494
-0.000970871
-0.00154945
-0.00297404
-0.00316746
-0.00546965
-0.00393607
-0.00817402
-0.00427153
-0.0109927
-0.00446933
-0.0139182
-0.00466172
-0.0169651
-0.00488222
-0.0201509
-0.00513505
-0.0234923
-0.00541814
-0.00573034
-0.0270053
-0.000979273
-0.000570178
-0.00299493
-0.0011518
-0.00550234
-0.00142866
-0.00821716
-0.00155671
-0.0110458
-0.00164074
-0.0139811
-0.00172642
-0.0170379
-0.00182537
-0.0202338
-0.00193911
-0.0235852
-0.00206676
-0.00220577
-0.0271098
-0.000983386
0.000413208
-0.00300527
0.000870089
-0.00551865
0.00108471
-0.0082388
0.00116345
-0.0110724
0.0011929
-0.0140127
0.00121387
-0.0170746
0.00123646
-0.0202754
0.00126173
-0.0236318
0.00128959
0.00131931
-0.0271568
-0.000983203
0.00139641
-0.00300506
0.00289195
-0.00551857
0.00359822
-0.00823894
0.00388382
-0.0110728
0.00402674
-0.0140133
0.00415436
-0.0170753
0.00429847
-0.0202763
0.00446278
-0.0236327
0.004646
0.00484714
-0.0271606
-0.000978722
0.00237513
-0.0029943
0.00490752
-0.00550212
0.00610604
-0.00821757
0.00659928
-0.0110468
0.00685597
-0.0139827
0.00709022
-0.0170399
0.00735575
-0.0202361
0.00765896
-0.0235876
0.00799752
0.00837018
-0.0271107
-0.000969953
0.00334509
-0.00297299
0.00691056
-0.00546929
0.00860233
-0.00817471
0.0093047
-0.0109945
0.00967576
-0.0139209
0.0100166
-0.0169685
0.0104034
-0.0201548
0.0108452
-0.0234961
0.0113389
0.0118824
-0.0270084
-0.00095691
0.004302
-0.00294115
0.0088948
-0.00542009
0.0110813
-0.00811035
0.011995
-0.0109159
0.0124813
-0.013828
0.0129288
-0.0168611
0.0134364
-0.0200324
0.0140165
-0.0233584
0.0146649
0.0153785
-0.0268544
-0.000939618
0.00524161
-0.0028988
0.010854
-0.00535453
0.013537
-0.00802451
0.014665
-0.010811
0.0152678
-0.0137041
0.0158219
-0.0167177
0.01645
-0.019869
0.0171678
-0.0231745
0.0179704
0.0188529
-0.0266489
-0.000918111
0.00615973
-0.00284598
0.0127818
-0.00527262
0.0159636
-0.00791719
0.0173095
-0.0106798
0.0180304
-0.0135491
0.0186912
-0.0165384
0.0194394
-0.0196648
0.0202942
-0.0229447
0.0212502
0.0223001
-0.026392
-0.000892431
0.00705216
-0.00278272
0.0146721
-0.0051744
0.0183553
-0.0077884
0.0199235
-0.0105224
0.0207644
-0.0133631
0.0215319
-0.0163233
0.0223996
-0.0194198
0.0233906
-0.0226689
0.0244994
0.0257149
-0.0260837
-0.000862629
0.00791479
-0.00270908
0.0165186
-0.00505987
0.0207061
-0.00763816
0.0225018
-0.0103387
0.0234649
-0.0131462
0.0243394
-0.0160726
0.0253259
-0.0191342
0.0264523
-0.0223475
0.0277127
0.0290919
-0.0257245
-0.00082877
0.00874356
-0.00262513
0.0183149
-0.00492907
0.02301
-0.00746647
0.0250392
-0.0101289
0.0261274
-0.0128985
0.027109
-0.0157862
0.0282137
-0.0188083
0.0294743
-0.0219808
0.0308852
0.0324257
-0.0253146
-0.000790928
0.00953448
-0.00253092
0.0200549
-0.00478203
0.0252611
-0.00727336
0.0275306
-0.00989296
0.028747
-0.01262
0.0298361
-0.0154645
0.0310581
-0.0184422
0.032452
-0.0215691
0.0340122
0.0357113
-0.0248548
-0.00074919
0.0102837
-0.00242657
0.0217323
-0.00461879
0.0274534
-0.00705884
0.0299706
-0.0096309
0.0313191
-0.0123109
0.032516
-0.0151075
0.0338548
-0.0180362
0.0353807
-0.0211129
0.0370889
0.038944
-0.0243456
-0.000703658
0.0109873
-0.00231217
0.0233408
-0.00443941
0.0295806
-0.00682293
0.0323541
-0.00934279
0.0338389
-0.0119712
0.0351444
-0.0147154
0.036599
-0.0175906
0.0382559
-0.0206127
0.040111
0.0421194
-0.0237881
-0.000654451
0.0116418
-0.00218787
0.0248743
-0.00424397
0.0316367
-0.00656567
0.0346758
-0.00902868
0.0363019
-0.0116011
0.0377168
-0.0142884
0.0392864
-0.0171057
0.0410731
-0.020069
0.0430744
0.0452336
-0.0231833
-0.000601706
0.0122435
-0.0020538
0.0263264
-0.00403254
0.0336154
-0.00628709
0.0369304
-0.00868863
0.0387035
-0.0112006
0.0402288
-0.0138267
0.0419125
-0.0165815
0.0438279
-0.0194824
0.0459753
0.0482838
-0.0225326
-0.000545577
0.0127891
-0.00191018
0.027691
-0.00380524
0.0355105
-0.00598725
0.0391124
-0.00832269
0.0410389
-0.01077
0.0426761
-0.0133304
0.0444729
-0.0160181
0.0465155
-0.018853
0.0488103
0.0512684
-0.0218377
-0.000486242
0.0132753
-0.00175721
0.0289619
-0.00356221
0.0373155
-0.00566619
0.0412164
-0.00793092
0.0433036
-0.0103094
0.0450545
-0.0127998
0.0469634
-0.0154153
0.049131
-0.0181807
0.0515756
0.0541885
-0.0211007
-0.0004239
0.0136992
-0.00159518
0.0301332
-0.00330361
0.0390239
-0.00532402
0.0432368
-0.00751338
0.045493
-0.00981877
0.0473599
-0.0122353
0.0493799
-0.0147726
0.0516684
-0.0174624
0.0542654
0.0570498
-0.0203237
-0.00035877
0.014058
-0.0014244
0.0311988
-0.00302967
0.0406292
-0.00496084
0.0451679
-0.00707019
0.0476023
-0.00929852
0.0495882
-0.011638
0.0517193
-0.0140925
0.0541229
-0.0166977
0.0568706
0.0598644
-0.0195124
-0.000291094
0.0143491
-0.00124526
0.032153
-0.00274063
0.0421246
-0.00457681
0.0470041
-0.00660143
0.049627
-0.00874817
0.051735
-0.0110066
0.0539777
-0.0133711
0.0564875
-0.0158592
0.0593587
0.062658
-0.0186528
-0.000221149
0.0145702
-0.00105821
0.0329901
-0.00243676
0.0435031
-0.00417212
0.0487395
-0.00610747
0.0515623
-0.00816849
0.053796
-0.0103443
0.0561535
-0.0126345
0.0587777
-0.014997
0.0617212
0.0654704
-0.0178094
-0.000149314
0.0147195
-0.000863713
0.0337045
-0.00211836
0.0447578
-0.00374703
0.0503682
-0.00558858
0.0534038
-0.00755963
0.055767
-0.00964424
0.0582381
-0.0118556
0.0609891
-0.0142017
0.0640673
0.0677494
-0.0164808
-7.64128e-05
0.0147959
-0.000662113
0.0342902
-0.00178575
0.0458814
-0.00330185
0.0518843
-0.00504487
0.0551469
-0.00692209
0.0576443
-0.00890958
0.0602256
-0.0110168
0.0630964
-0.0132446
0.066295
0.07009
-0.0155852
-7.20195e-06
0.0148031
-0.000452939
0.0347359
-0.00143943
0.0468679
-0.00283707
0.0532819
-0.00447668
0.0567865
-0.00625677
0.0594244
-0.00814533
0.0621142
-0.0101495
0.0651005
-0.0122857
0.0684313
0.0723359
-0.0145316
7.51281e-05
0.014728
-0.000233234
0.0350443
-0.00108021
0.0477149
-0.00235332
0.054555
-0.00388462
0.0583178
-0.00556465
0.0611044
-0.00735372
0.0639033
-0.00925624
0.067003
-0.0112896
0.0704646
0.0744684
-0.0134221
0.000151412
0.0145766
1.1958e-05
0.0351837
-0.000710012
0.0484368
-0.00185069
0.0556957
-0.00326923
0.0597363
-0.00484625
0.0626814
-0.00653408
0.0655911
-0.00833342
0.0688024
-0.0102599
0.0723911
0.0764911
-0.0122826
0.000221498
0.0143551
0.000205885
0.0351993
-0.000330857
0.0489736
-0.00132987
0.0566947
-0.0026315
0.0610379
-0.00410187
0.0641518
-0.00568591
0.0671751
-0.00737961
0.0704961
-0.00919678
0.0742083
0.078408
-0.0111137
0.000290759
0.0140644
0.000424001
0.0350661
7.19459e-05
0.0493256
-0.000793871
0.0575605
-0.00197213
0.0622162
-0.00333179
0.0655114
-0.00480946
0.0686528
-0.00639519
0.0720818
-0.00809991
0.075913
0.080214
-0.00990592
0.000359555
0.0137048
0.000643909
0.0347817
0.000451612
0.0495179
-0.000244794
0.0582569
-0.00129142
0.0632628
-0.00253659
0.0667566
-0.00390526
0.0700215
-0.0053808
0.0735573
-0.00697043
0.0775026
0.0819024
-0.00865886
0.000426012
0.0132788
0.000863978
0.0343438
0.000851616
0.0495303
0.000319088
0.0587895
-0.000590937
0.0641728
-0.0017169
0.0678826
-0.00297388
0.0712785
-0.00433688
0.0749203
-0.00580948
0.0789752
0.0834695
-0.00737649
0.000489114
0.0127897
0.00108272
0.0337502
0.00125695
0.0493561
0.000894981
0.0591514
0.000128584
0.0649392
-0.000873508
0.0688847
-0.00201595
0.0724209
-0.00326394
0.0761683
-0.00461821
0.0803295
0.0849127
-0.00606143
0.000548027
0.0122416
0.00129746
0.0330007
0.00166435
0.0489892
0.00148347
0.0593323
0.000867712
0.065555
-1.53428e-05
0.0697677
-0.00103276
0.0734383
-0.00216285
0.0772984
-0.00339799
0.0815646
0.0862303
-0.00471564
0.000601811
0.0116398
0.00150546
0.0320971
0.00207112
0.0484235
0.00208056
0.0593229
0.00162495
0.0660106
0.000880965
0.0705117
-3.3772e-05
0.074353
-0.00103565
0.0783003
-0.00214932
0.0826783
0.0874224
-0.00334138
0.000649553
0.0109903
0.00170406
0.0310426
0.00247383
0.0476537
0.00268335
0.0591134
0.0023966
0.0662974
0.00179187
0.0711164
0.00100955
0.0751354
0.000106967
0.0792029
-0.000868099
0.0836533
0.0884987
-0.00194436
0.000690423
0.0102999
0.00189047
0.0298425
0.00286848
0.0466757
0.00328822
0.0586936
0.00318042
0.0664051
0.00272204
0.0715748
0.00206709
0.0757903
0.0012988
0.0799712
0.000440666
0.0845115
0.0894774
-0.000538119
0.000723682
0.00957618
0.00206176
0.0285044
0.00325064
0.0454869
0.00389086
0.0580534
0.00397335
0.0663227
0.00366937
0.0718788
0.00314602
0.0763137
0.00249918
0.080618
0.00176114
0.0852495
0.0903031
0.00093546
0.000748705
0.00882747
0.0022149
0.0270383
0.00361537
0.0440864
0.00448623
0.0571825
0.00477146
0.0660374
0.00463122
0.072019
0.00424452
0.0767004
0.00372305
0.0811395
0.00311574
0.0858568
0.0909816
0.0024373
0.000765013
0.00806246
0.00234654
0.0254567
0.00395719
0.0424757
0.00506839
0.0560713
0.00556992
0.0655359
0.00560446
0.0719845
0.00536094
0.0769439
0.00496891
0.0815315
0.00449011
0.0863356
0.0915275
0.00394421
0.000772338
0.00729012
0.00245375
0.0237753
0.00427017
0.0406593
0.00563049
0.054711
0.00636289
0.0648035
0.00658511
0.0717623
0.00649263
0.0770364
0.00623312
0.081791
0.00588161
0.0866871
0.0919448
0.00546429
0.000770618
0.0065195
0.00253385
0.0220121
0.00454801
0.0386452
0.00616465
0.0530944
0.00714331
0.0638248
0.00756807
0.0713375
0.00763615
0.0769683
0.00751295
0.0819142
0.00728938
0.0869107
0.0922346
0.0069996
0.000760005
0.0057595
0.00258455
0.0201875
0.00478409
0.0364456
0.00666195
0.0512165
0.00790272
0.0625841
0.00854703
0.0706932
0.00878748
0.0767278
0.00880618
0.0818955
0.00871243
0.0870045
0.0923973
0.00854973
0.000740869
0.00501863
0.00260416
0.0183242
0.00497179
0.034078
0.00711247
0.0490758
0.00863115
0.0610654
0.00951419
0.0698102
0.00994168
0.0763003
0.0101101
0.0817271
0.0101491
0.0869654
0.092433
0.0101134
0.000713805
0.00430482
0.00259176
0.0164463
0.00510476
0.031565
0.00750541
0.0466752
0.00931693
0.0592539
0.01046
0.0686671
0.0110924
0.0756679
0.011421
0.0813985
0.0115973
0.0867892
0.0923407
0.0116896
0.000679625
0.0036252
0.00254742
0.0145785
0.00517737
0.028935
0.00782937
0.0440232
0.00994667
0.0571366
0.0113728
0.067241
0.0122315
0.0748092
0.0127341
0.0808959
0.013054
0.0864693
0.092118
0.0132767
0.000639333
0.00298587
0.00247229
0.0127455
0.00518525
0.0262221
0.00807271
0.0411357
0.0105053
0.054704
0.0122385
0.0655077
0.0133487
0.073699
0.0140431
0.0802016
0.0145158
0.0859966
0.0917618
0.014872
0.000594089
0.00239178
0.00236864
0.010971
0.00512586
0.0234649
0.00822421
0.0380374
0.0109761
0.0519522
0.0130405
0.0634432
0.014431
0.0723086
0.0153395
0.0792931
0.0159778
0.0853582
0.0912667
0.0164728
0.000545154
0.00184662
0.00223979
0.00927635
0.00499903
0.0207056
0.00827387
0.0347625
0.0113413
0.0488847
0.0137593
0.0610253
0.015462
0.0706058
0.0166124
0.0781427
0.0174339
0.0845368
0.0906251
0.0180755
0.000493828
0.00135279
0.00208997
0.00768021
0.00480745
0.0179881
0.008214
0.031356
0.011583
0.0455158
0.0143726
0.0582356
0.0164221
0.0685564
0.0178478
0.076717
0.0188755
0.0835091
0.089825
0.0196756
0.000441378
0.000911416
0.00192395
0.00619764
0.00455677
0.0153553
0.00804042
0.0278723
0.0116836
0.0418726
0.014856
0.0550632
0.0172871
0.0661253
0.0190272
0.0749769
0.0202911
0.0822452
0.0888493
0.0212668
0.000388956
0.00052246
0.0017468
0.00483979
0.00425538
0.0128467
0.00775373
0.024374
0.0116283
0.0379979
0.0151834
0.0515082
0.018029
0.0632796
0.0201275
0.0728784
0.0216654
0.0807072
0.087674
0.0228407
0.000337535
0.000184926
0.0015634
0.00361393
0.00391379
0.0104964
0.0073602
0.0209276
0.0114065
0.0339516
0.0153285
0.0475863
0.0186157
0.0599924
0.0211199
0.0703742
0.0229778
0.0788494
0.0862662
0.0243855
0.000287847
-0.000102921
0.0013782
0.00252357
0.00354369
0.00833087
0.00687212
0.0175991
0.0110142
0.0298096
0.0152672
0.0433333
0.0190117
0.0562478
0.0219695
0.0674164
0.0242012
0.0766177
0.0845828
0.0258846
0.00024037
-0.000343291
0.00119495
0.00156899
0.00315691
0.00636891
0.00630709
0.014449
0.0104565
0.0256602
0.0149804
0.0388093
0.0191805
0.0520477
0.0226353
0.0639616
0.0253011
0.0739519
0.0825683
0.0273156
0.000195361
-0.000538652
0.00101665
0.000747705