/*--------------------------------*- C++ -*----------------------------------*\
  =========                 |
  \\      /  F ield         | OpenFOAM: The Open Source CFD Toolbox
   \\    /   O peration     | Website:  https://openfoam.org
    \\  /    A nd           | Version:  7
     \\/     M anipulation  |
\*---------------------------------------------------------------------------*/
FoamFile
{
    version     2.0;
    format      ascii;
    class       volVectorField;
    location    "110";
    object      U;
}
// * * * * * * * * * * * * * * * * * * * * * * * * * * * * * * * * * * * * * //

dimensions      [0 1 -1 0 0 0 0];

internalField   nonuniform List<vector> 
8500
(
(-3.48026e-05 -0.0518963 1.04793e-21)
(-0.00423678 -0.12745 -3.00463e-21)
(-0.0155104 -0.180846 -3.50147e-21)
(-0.0309182 -0.214906 3.48055e-21)
(-0.0486347 -0.235283 -3.20367e-21)
(-0.0667451 -0.248291 -1.71476e-21)
(-0.0837712 -0.258737 2.95007e-21)
(-0.0990302 -0.268896 3.67108e-21)
(-0.11209 -0.278641 -6.08277e-22)
(-0.122694 -0.285815 1.82136e-21)
(0.001313 -0.0493493 -1.15895e-21)
(-0.00218753 -0.121047 3.57269e-21)
(-0.0148075 -0.171731 -8.30225e-21)
(-0.032335 -0.204229 7.53101e-21)
(-0.0524776 -0.224158 3.44696e-22)
(-0.0730702 -0.2376 5.57602e-21)
(-0.0925946 -0.249009 -9.7252e-21)
(-0.110518 -0.260304 -1.43258e-20)
(-0.126588 -0.271086 -2.79881e-21)
(-0.140935 -0.279043 6.40104e-21)
(0.00240108 -0.0459472 1.03532e-21)
(-0.000651788 -0.113022 7.72391e-21)
(-0.0145807 -0.160813 1.82466e-20)
(-0.0339837 -0.191857 -1.65226e-20)
(-0.0561451 -0.211534 -3.71065e-21)
(-0.078673 -0.225572 -3.4099e-21)
(-0.0999961 -0.238017 1.73983e-20)
(-0.119691 -0.250404 1.0947e-20)
(-0.137615 -0.262042 2.76139e-21)
(-0.154161 -0.27048 -1.97604e-20)
(0.00315987 -0.0417688 3.65907e-21)
(0.000280614 -0.103557 -4.55227e-21)
(-0.014869 -0.148326 -3.37457e-20)
(-0.0358434 -0.178036 3.01198e-21)
(-0.0595668 -0.197655 9.30031e-21)
(-0.083447 -0.212459 -7.21021e-21)
(-0.105838 -0.226043 -4.85622e-22)
(-0.126371 -0.23954 -2.92199e-21)
(-0.144931 -0.251927 6.72857e-21)
(-0.162011 -0.260587 1.93239e-20)
(0.00353398 -0.036922 2.51411e-21)
(0.000546078 -0.0928743 -1.4366e-20)
(-0.0156854 -0.13453 3.46992e-20)
(-0.0378725 -0.163024 -1.5722e-20)
(-0.062658 -0.182764 -7.46833e-23)
(-0.0872793 -0.198498 2.18176e-20)
(-0.109992 -0.213357 -1.00884e-20)
(-0.130414 -0.228057 1.19533e-21)
(-0.14838 -0.24118 -4.14588e-21)
(-0.164248 -0.249866 1.24702e-21)
(0.00348628 -0.0315399 3.00687e-20)
(0.000112845 -0.0812296 3.6812e-20)
(-0.0170119 -0.119708 -9.47843e-21)
(-0.0400015 -0.147088 1.80582e-20)
(-0.0653072 -0.167095 5.63389e-21)
(-0.0900311 -0.183908 -8.1466e-21)
(-0.112305 -0.200197 -3.11671e-21)
(-0.131669 -0.216267 -1.34501e-20)
(-0.147838 -0.230231 2.90795e-21)
(-0.160692 -0.238831 -1.73736e-20)
(0.00300129 -0.0257762 -2.89665e-20)
(-0.00101469 -0.0689053 -1.91631e-20)
(-0.0187945 -0.10416 1.55505e-20)
(-0.0421256 -0.130494 -2.69801e-20)
(-0.0673639 -0.15087 3.0466e-21)
(-0.0915155 -0.168875 3.17006e-20)
(-0.112566 -0.186751 -5.7084e-21)
(-0.129918 -0.204419 3.71922e-20)
(-0.143135 -0.219454 -9.26519e-22)
(-0.151099 -0.227965 -1.47163e-20)
(0.00208744 -0.0198004 2.40708e-20)
(-0.00279352 -0.0562034 -4.38721e-20)
(-0.0209409 -0.0881989 -1.75213e-20)
(-0.0441008 -0.113514 2.06161e-20)
(-0.0686296 -0.1343 6.64138e-22)
(-0.0914784 -0.153555 -5.94433e-20)
(-0.110473 -0.173145 -3.48195e-21)
(-0.124818 -0.192665 -2.92695e-20)
(-0.133972 -0.209122 -3.7192e-20)
(-0.135053 -0.217673 2.15484e-20)
(0.000777972 -0.0137909 -1.34047e-20)
(-0.00514182 -0.0434378 6.57546e-21)
(-0.0233213 -0.0721462 1.61199e-20)
(-0.0457437 -0.0964244 -1.44574e-20)
(-0.0688537 -0.117593 -5.08889e-20)
(-0.0895875 -0.13808 1.75379e-20)
(-0.1056 -0.15944 2.53572e-21)
(-0.115847 -0.181038 4.38868e-20)
(-0.119843 -0.199361 5.65629e-20)
(-0.11186 -0.208221 -2.5072e-20)
(-0.00086995 -0.00792855 2.10565e-20)
(-0.0079417 -0.0309262 1.93342e-20)
(-0.0257724 -0.0563315 -2.80057e-21)
(-0.0468366 -0.0795116 7.203e-20)
(-0.0677395 -0.100965 3.06972e-20)
(-0.0854355 -0.122573 2.30442e-20)
(-0.097402 -0.14565 3.26249e-20)
(-0.102282 -0.169454 -1.42125e-20)
(-0.0999934 -0.190118 -1.88554e-20)
(-0.0804908 -0.199661 -2.98779e-20)
(-0.0027781 -0.00238828 -2.00339e-21)
(-0.0110448 -0.0189812 -3.06703e-20)
(-0.0281056 -0.0410875 -2.21511e-20)
(-0.0471388 -0.063076 -3.5613e-20)
(-0.0649599 -0.0846546 -2.82811e-20)
(-0.0785616 -0.10718 2.85957e-20)
(-0.0852392 -0.131777 -2.73947e-20)
(-0.0832316 -0.157724 -1.87116e-20)
(-0.073446 -0.18115 2.44872e-21)
(-0.0396615 -0.19171 8.07992e-21)
(-0.0048514 0.00266849 -5.81883e-20)
(-0.0142805 -0.00789994 2.79869e-20)
(-0.0301177 -0.0267451 2.05269e-20)
(-0.0464023 -0.0474347 1.38384e-20)
(-0.0601825 -0.0689357 -2.53457e-20)
(-0.0684905 -0.0920954 -2.13354e-20)
(-0.0684345 -0.117871 3.08374e-20)
(-0.0577124 -0.145626 -2.50115e-20)
(-0.0390635 -0.172082 -1.85893e-21)
(0.0117984 -0.183369 -2.45811e-20)
(-0.00698464 0.00710463 4.88806e-20)
(-0.0174645 0.00204798 2.00855e-20)
(-0.0316025 -0.0136253 1.19097e-21)
(-0.0443888 -0.032919 -2.51731e-20)
(-0.0530982 -0.0541274 1.70986e-21)
(-0.0547833 -0.0775955 2.83926e-20)
(-0.0463587 -0.104087 -8.03111e-21)
(-0.0247859 -0.133041 -9.71926e-21)
(0.00464529 -0.16276 -2.09886e-20)
(0.0744442 -0.172646 3.77143e-20)
(-0.00907174 0.0108154 3.33467e-20)
(-0.020412 0.0106335 -5.41944e-20)
(-0.0323609 -0.00202652 -4.21394e-20)
(-0.0408817 -0.0198644 1.82133e-20)
(-0.0434456 -0.0405854 3.74698e-20)
(-0.0370863 -0.0640356 3.21525e-20)
(-0.0185346 -0.0907213 -3.40461e-20)
(0.0160827 -0.120065 6.50562e-20)
(0.0597227 -0.153468 -1.96966e-20)
(0.149177 -0.158685 -4.33926e-20)
(-0.0110121 0.0137339 -4.99042e-20)
(-0.022946 0.0176809 3.0202e-20)
(-0.032208 0.00779167 -1.47828e-20)
(-0.0356909 -0.00859001 1.5419e-21)
(-0.0310148 -0.0286758 1.59937e-20)
(-0.0151449 -0.0518176 -5.06785e-20)
(0.015357 -0.0781791 4.48747e-20)
(0.0646867 -0.107053 -4.33864e-20)
(0.12661 -0.143583 6.80302e-20)
(0.237527 -0.14246 2.33239e-20)
(-0.0127185 0.0158353 1.07405e-20)
(-0.024903 0.0230765 5.92049e-20)
(-0.0309714 0.0156258 -1.50625e-20)
(-0.028644 0.000630188 1.5284e-20)
(-0.0156289 -0.0187327 1.81345e-20)
(0.0112212 -0.0413361 -5.50852e-21)
(0.0555833 -0.0669109 3.89335e-20)
(0.12119 -0.0946003 2.19324e-21)
(0.203726 -0.132376 -4.29381e-20)
(0.336786 -0.124725 5.58841e-20)
(-0.0141223 0.0171367 -2.85334e-20)
(-0.0261362 0.0267761 -5.61901e-20)
(-0.0284829 0.0213454 4.9001e-20)
(-0.0195623 0.00759609 2.48374e-20)
(0.00289757 -0.0110091 -1.15789e-19)
(0.0421822 -0.032926 9.49224e-20)
(0.102201 -0.0573402 -8.56283e-20)
(0.185749 -0.0833615 1.53205e-21)
(0.290943 -0.12004 -1.8349e-20)
(0.441941 -0.105512 -5.09659e-20)
(-0.0151754 0.0176922 2.4908e-20)
(-0.0265134 0.0288055 -3.43368e-21)
(-0.0245647 0.0249066 -1.20342e-20)
(-0.00822668 0.0122048 -1.32352e-21)
(0.024815 -0.00564948 -7.29942e-21)
(0.077995 -0.0267286 -3.01887e-20)
(0.155355 -0.0495731 1.27265e-20)
(0.258048 -0.0734886 -2.02097e-20)
(0.387659 -0.106027 6.42215e-21)
(0.547261 -0.0850528 1.75389e-21)
(-0.0158491 0.0175847 -5.08869e-20)
(-0.0259104 0.0292559 -3.74525e-21)
(-0.0190117 0.0263553 5.62855e-21)
(0.00564657 0.0144693 2.30255e-21)
(0.0505 -0.00262956 3.80681e-20)
(0.119078 -0.0226416 -1.11582e-19)
(0.215357 -0.043424 7.50416e-20)
(0.33805 -0.0648953 -5.58179e-20)
(0.492215 -0.0889929 4.48988e-20)
(0.647515 -0.0643259 4.68144e-20)
(-0.0161283 0.0169148 -6.24953e-21)
(-0.0242032 0.0282735 2.84208e-20)
(-0.0115746 0.0258303 -3.59217e-20)
(0.0224377 0.0145396 -1.13287e-20)
(0.0804602 -0.00173497 2.19631e-20)
(0.166019 -0.0203392 1.06095e-19)
(0.282565 -0.038418 -2.11845e-20)
(0.425837 -0.0568873 1.05064e-20)
(0.601635 -0.0681594 -5.26638e-20)
(0.741275 -0.0482587 2.20035e-20)
(-0.0160034 0.0157897 -1.86933e-20)
(-0.0212536 0.0260459 -1.45478e-20)
(-0.00194916 0.0235586 3.54973e-21)
(0.0426333 0.0126965 1.42445e-20)
(0.115341 -0.0025779 -4.24279e-20)
(0.219494 -0.0192615 -1.72798e-20)
(0.357183 -0.0338425 -5.41718e-20)
(0.520762 -0.0480575 5.44045e-20)
(0.710848 -0.0457261 5.55574e-20)
(0.832825 -0.0445067 -2.28087e-20)
(-0.0154615 0.0143119 -8.90109e-21)
(-0.0168986 0.0227855 3.62727e-20)
(0.0102311 0.0198401 -4.08293e-20)
(0.0668136 0.00934348 -4.77168e-21)
(0.155869 -0.00460371 -1.93817e-20)
(0.280112 -0.0186432 4.24019e-20)
(0.439043 -0.0288079 5.45649e-20)
(0.620713 -0.0371122 -5.13255e-20)
(0.813481 -0.027327 5.2552e-20)
(0.946429 -0.0347484 6.6481e-21)
(-0.014476 0.012571 -2.57576e-20)
(-0.0109426 0.0187165 -7.34545e-20)
(0.0253884 0.0150325 7.18973e-20)
(0.0956161 0.00498856 1.04202e-20)
(0.20275 -0.00711608 1.54326e-20)
(0.348193 -0.0175835 9.04869e-21)
(0.527282 -0.0223879 4.12552e-20)
(0.722178 -0.0238963 2.98089e-20)
(0.91162 -0.0102084 -1.02924e-19)
(1.0446 -0.0145721 -4.79736e-20)
(-0.0129993 0.0106394 -8.81942e-20)
(-0.00315347 0.0140631 1.78095e-20)
(0.0439834 0.00953266 -4.05389e-20)
(0.129674 0.000218315 7.96861e-21)
(0.256531 -0.00932269 1.29109e-20)
(0.423537 -0.0151513 -9.19686e-20)
(0.620103 -0.0138018 4.00995e-20)
(0.821636 -0.00859502 -2.6706e-20)
(1.00164 0.00776132 2.76111e-20)
(1.12259 0.00598411 -9.20575e-21)
(-0.0109579 0.00857211 3.18758e-20)
(0.00673341 0.00904255 3.43633e-20)
(0.0664849 0.00375949 -1.87677e-21)
(0.16954 -0.00433307 -1.11648e-20)
(0.317444 -0.0103972 5.25663e-22)
(0.505237 -0.01052 9.72453e-22)
(0.714859 -0.00261142 -6.11069e-20)
(0.91573 0.00850679 7.94449e-21)
(1.08052 0.0262868 7.26684e-20)
(1.1858 0.0264568 3.15325e-20)
(-0.00825262 0.00641051 -2.15617e-20)
(0.0190051 0.00386409 -1.60647e-20)
(0.0933304 -0.00185857 6.89017e-20)
(0.215591 -0.00801616 1.755e-21)
(0.385254 -0.00955277 -2.88063e-20)
(0.591619 -0.00309753 7.77913e-20)
(0.808448 0.0112179 1.67627e-20)
(1.00162 0.0269464 5.98821e-22)
(1.14733 0.0450263 -3.20833e-20)
(1.23397 0.0460606 -4.01355e-20)
(-0.00476243 0.00418925 4.4928e-20)
(0.0339544 -0.0012664 -1.26079e-20)
(0.124884 -0.00689244 -7.48112e-21)
(0.267952 -0.0101967 -2.8592e-20)
(0.459171 -0.00612132 4.71934e-20)
(0.680377 0.00739167 -2.3198e-20)
(0.897835 0.0273905 -2.58018e-20)
(1.07744 0.0462166 -6.2645e-21)
(1.20189 0.0635674 -1.82887e-20)
(1.26995 0.0644764 1.90897e-20)
(-0.000352213 0.0019444 -1.6576e-20)
(0.051859 -0.00613828 -9.82802e-20)
(0.161391 -0.0109155 1.02871e-20)
(0.326419 -0.0102847 3.54389e-20)
(0.537836 0.00037446 2.54762e-20)
(0.768872 0.0209046 -8.44064e-20)
(0.980512 0.0454302 5.36107e-20)
(1.14234 0.0658484 -2.41785e-20)
(1.24507 0.0816115 3.55541e-20)
(1.29569 0.0817275 9.49238e-21)
(0.00511784 -0.000278485 -1.80776e-20)
(0.0729589 -0.0105265 3.49306e-20)
(0.202942 -0.0135041 4.54641e-20)
(0.390425 -0.00776472 -3.27458e-20)
(0.619429 0.0101761 1.21245e-20)
(0.854523 0.037153 -7.41545e-20)
(1.05475 0.064817 -1.41041e-20)
(1.1963 0.0854728 1.13207e-20)
(1.27811 0.0989977 -2.70803e-20)
(1.31335 0.0978795 -2.68288e-20)
(0.011782 -0.00241776 -2.32718e-20)
(0.0974336 -0.014183 -7.78278e-21)
(0.24944 -0.0142394 -8.2226e-20)
(0.459036 -0.00222732 -1.28589e-20)
(0.701865 0.0232889 -1.42472e-21)
(0.935121 0.0557111 4.39889e-21)
(1.11963 0.0850773 7.74325e-21)
(1.23994 0.104834 -3.55477e-20)
(1.30253 0.115673 6.56526e-22)
(1.32469 0.113108 1.86079e-20)
(0.0197592 -0.00439177 -6.035e-21)
(0.125382 -0.0168327 2.85374e-20)
(0.300576 -0.0127148 4.0153e-20)
(0.530996 0.00660211 2.51052e-20)
(0.783034 0.0395252 -7.48624e-21)
(1.00902 0.0761132 -6.09851e-21)
(1.17492 0.105825 6.03295e-20)
(1.27425 0.123782 7.79803e-21)
(1.31978 0.131669 2.64502e-20)
(1.33121 0.127585 -1.11571e-20)
(0.0291444 -0.00609762 5.77458e-20)
(0.156801 -0.0181741 3.75075e-20)
(0.355823 -0.008553 -3.79834e-20)
(0.604819 0.0188478 -7.55898e-21)
(0.861018 0.0585705 3.89089e-21)
(1.07519 0.0979176 -1.42733e-20)
(1.2209 0.126771 -3.08477e-20)
(1.30038 0.142249 -5.16306e-21)
(1.33122 0.147066 4.11997e-22)
(1.33407 0.141489 1.21097e-20)
(0.040001 -0.00741271 7.00419e-21)
(0.191578 -0.0178876 -2.04122e-20)
(0.414439 -0.00142875 4.82955e-20)
(0.678916 0.0344878 3.1458e-20)
(0.934242 0.080048 8.73897e-22)
(1.13311 0.120738 2.22366e-20)
(1.2582 0.147711 3.30689e-21)
(1.31951 0.160231 -2.30954e-20)
(1.33801 0.161967 1.92388e-20)
(1.33416 0.154968 1.29442e-23)
(0.0523551 -0.0081983 -4.73914e-20)
(0.229471 -0.0156485 -1.39765e-20)
(0.475502 0.0089055 -1.26753e-20)
(0.751721 0.0533754 -2.20088e-20)
(1.00153 0.103567 5.09633e-21)
(1.18273 0.144255 1.13174e-22)
(1.28761 0.168516 1.68855e-20)
(1.33274 0.177762 -2.7236e-21)
(1.3411 0.176481 -1.98364e-20)
(1.33213 0.168144 -1.81483e-20)
(0.0661904 -0.00830468 3.83177e-21)
(0.270116 -0.0111451 2.25455e-20)
(0.53795 0.0225997 1.08943e-20)
(0.821803 0.0752718 -3.41024e-20)
(1.06212 0.12875 -1.73767e-21)
(1.22428 0.168212 -1.45738e-20)
(1.31001 0.189109 3.75592e-22)
(1.34104 0.194894 6.8044e-21)
(1.34125 0.190705 -7.42758e-21)
(1.32843 0.181106 2.05402e-20)
(0.0814452 -0.00757731 8.96196e-21)
(0.313025 -0.00409858 -2.20001e-20)
(0.600647 0.0396968 -5.19665e-20)
(0.887941 0.0998767 4.78579e-20)
(1.11557 0.155251 -3.57141e-21)
(1.2582 0.192407 1.05669e-20)
(1.32625 0.209451 -1.4295e-21)
(1.34526 0.211688 1.00068e-20)
(1.33903 0.204718 -7.74741e-22)
(1.32336 0.193911 -1.58994e-20)
(0.0980105 -0.00586362 -1.82205e-20)
(0.357605 0.00571796 2.85535e-20)
(0.662447 0.0601341 2.36271e-20)
(0.949163 0.126855 -3.40328e-20)
(1.16175 0.182755 -5.61602e-21)
(1.28504 0.216681 2.15347e-21)
(1.33713 0.229526 2.13738e-20)
(1.34607 0.228198 1.06218e-21)
(1.33487 0.218578 4.08445e-21)
(1.31714 0.206589 -8.79345e-21)
(0.11573 -0.00302015 1.38198e-20)
(0.403173 0.018463 -1.24438e-20)
(0.722257 0.0837539 -1.05689e-20)
(1.00474 0.155855 1.81405e-20)
(1.20072 0.21098 6.27013e-21)
(1.30541 0.24091 4.71363e-21)
(1.34335 0.249325 -2.17456e-20)
(1.34402 0.244463 -7.38725e-21)
(1.32906 0.232317 -6.57529e-21)
(1.30989 0.219144 2.89392e-21)
(0.134403 0.00108023 -6.85622e-21)
(0.448988 0.0342155 -1.58437e-22)
(0.779082 0.110319 1.99944e-20)
(1.05419 0.186519 -7.34222e-21)
(1.23268 0.239673 -3.22722e-21)
(1.3199 0.264989 -2.12508e-21)
(1.34554 0.268843 5.24719e-21)
(1.33954 0.260508 9.01945e-21)
(1.32182 0.245943 -2.85199e-22)
(1.30168 0.23156 3.24018e-21)
(0.153789 0.00654152 4.82756e-21)
(0.494281 0.0529689 -1.3542e-21)
(0.83206 0.139528 -3.57342e-21)
(1.09721 0.218494 -3.23507e-21)
(1.25796 0.268602 2.91011e-21)
(1.32907 0.288829 2.26138e-21)
(1.3442 0.288065 -2.08228e-21)
(1.33293 0.276335 7.49561e-22)
(1.31329 0.259442 1.04626e-21)
(1.29257 0.243804 -1.37951e-21)
(0.173611 0.0134384 2.57695e-21)
(0.538285 0.0746311 7.36288e-22)
(0.880477 0.171032 -4.40589e-21)
(1.13367 0.25143 -3.51197e-21)
(1.27691 0.297557 3.65635e-21)
(1.33345 0.312342 7.13781e-22)
(1.33975 0.306966 -1.65447e-21)
(1.32445 0.291927 1.55213e-21)
(1.30355 0.272777 8.60268e-22)
(1.28257 0.25583 -9.80004e-22)
(0.193569 0.0218115 -1.01219e-21)
(0.580263 0.0990289 2.05356e-21)
(0.923768 0.204448 1.35414e-20)
(1.16357 0.284988 -6.00196e-21)
(1.28992 0.326337 -2.94865e-21)
(1.3335 0.335442 -3.30835e-21)
(1.33254 0.325505 6.7574e-21)
(1.31425 0.307247 4.50322e-21)
(1.29266 0.285893 3.58064e-21)
(1.27171 0.267581 1.93087e-21)
(0.213346 0.0316638 2.05614e-20)
(0.619533 0.125915 -1.13084e-20)
(0.961518 0.239367 -1.29024e-20)
(1.187 0.318835 1.74842e-20)
(1.29737 0.354751 9.1686e-21)
(1.32963 0.358039 -6.08375e-22)
(1.32282 0.343628 -1.12461e-20)
(1.30246 0.322237 -8.09536e-21)
(1.28066 0.298715 -8.36964e-21)
(1.26001 0.278992 4.9408e-21)
(0.232614 0.0429591 -2.77847e-20)
(0.655486 0.154979 2.61054e-20)
(0.993442 0.275367 2.99678e-20)
(1.20413 0.352647 -2.95104e-20)
(1.29967 0.382613 -1.02103e-20)
(1.32219 0.380034 6.5154e-21)
(1.31083 0.361264 1.18171e-20)
(1.28916 0.336822 1.8429e-21)
(1.26755 0.311153 -3.1001e-22)
(1.24743 0.289985 -6.71e-21)
(0.25105 0.055622 -3.96092e-21)
(0.687601 0.185856 -3.66258e-20)
(1.01938 0.312018 -3.9186e-20)
(1.21518 0.386112 4.38468e-20)
(1.29716 0.409742 -4.96638e-21)
(1.31149 0.401321 9.06042e-21)
(1.29673 0.378332 1.77025e-21)
(1.27443 0.35092 -5.01964e-21)
(1.25333 0.323118 2.68988e-21)
(1.23388 0.300483 -3.49698e-22)
(0.268342 0.0695395 8.06168e-21)
(0.715449 0.21814 2.26271e-20)
(1.03926 0.348889 1.28419e-20)
(1.22042 0.418925 -1.01102e-20)
(1.29021 0.435955 -1.55796e-20)
(1.29781 0.421786 -1.45134e-20)
(1.28066 0.394737 -2.91791e-21)
(1.2583 0.364451 7.68851e-21)
(1.238 0.334561 -1.62157e-21)
(1.21919 0.31043 3.71368e-21)
(0.284196 0.0845641 -3.03296e-20)
(0.738701 0.251395 -2.83246e-20)
(1.05313 0.38555 -4.44585e-21)
(1.22013 0.450793 -5.04289e-21)
(1.27915 0.461071 -1.141e-20)
(1.28137 0.441303 6.97994e-21)
(1.26276 0.410374 -1.27099e-21)
(1.24083 0.377319 -6.75032e-21)
(1.2216 0.345476 6.10843e-21)
(1.2034 0.319785 -8.73178e-21)
(0.298348 0.100517 7.32056e-21)
(0.757128 0.285169 2.39687e-20)
(1.06107 0.421582 2.07552e-20)
(1.21462 0.481431 2.25359e-20)
(1.26429 0.484908 5.02631e-22)
(1.2624 0.459743 1.95671e-20)
(1.24309 0.425123 1.2534e-21)
(1.22207 0.389399 -2.28845e-20)
(1.20415 0.355796 1.63203e-20)
(1.1869 0.328398 6.01576e-21)
(0.310565 0.117192 1.95939e-20)
(0.77059 0.319002 4.36333e-20)
(1.06326 0.456577 -5.80715e-21)
(1.20422 0.510565 -2.83009e-20)
(1.24591 0.507291 1.2768e-20)
(1.24104 0.476973 -1.32497e-20)
(1.22175 0.43885 -1.75448e-20)
(1.20217 0.400592 -1.44247e-21)
(1.18564 0.365304 -1.34646e-20)
(1.16977 0.336313 5.19318e-21)
(0.320655 0.134362 9.11978e-21)
(0.779035 0.352437 6.63806e-21)
(1.0599 0.490143 5.41027e-20)
(1.18924 0.537937 1.01118e-20)
(1.2243 0.52805 -8.7796e-21)
(1.21748 0.492854 -4.52841e-21)
(1.199 0.451426 2.67208e-20)
(1.18111 0.410783 2.19126e-20)
(1.16608 0.373919 1.08622e-20)
(1.15193 0.343354 -1.45316e-21)
(0.328466 0.151785 1.90084e-21)
(0.782484 0.385027 -4.44636e-20)
(1.05128 0.521907 -6.34932e-20)
(1.17005 0.563301 1.92999e-21)
(1.19973 0.547028 1.24477e-20)
(1.19198 0.507218 -1.71423e-20)
(1.17487 0.462728 -3.89422e-20)
(1.15886 0.419889 -1.15674e-20)
(1.1456 0.381514 -6.93434e-22)
(1.13337 0.349443 5.40277e-21)
(0.333891 0.169211 -1.57541e-20)
(0.781036 0.416342 3.957e-20)
(1.0377 0.551522 3.80389e-20)
(1.14696 0.586416 -3.49456e-20)
(1.17248 0.564027 5.35522e-21)
(1.16471 0.519956 4.11032e-20)
(1.14938 0.472625 -8.99569e-21)
(1.13558 0.427786 7.64178e-21)
(1.12426 0.388001 -3.61223e-21)
(1.11412 0.354498 -4.81714e-21)
(0.336864 0.186387 -3.52591e-20)
(0.77487 0.445968 -6.24653e-20)
(1.01957 0.578694 -1.22429e-20)
(1.12024 0.607039 2.00376e-20)
(1.14279 0.578883 1.954e-20)
(1.13579 0.530901 -4.08104e-20)
(1.12271 0.481014 2.21823e-20)
(1.11134 0.434372 -1.1487e-20)
(1.10212 0.393286 9.19321e-21)
(1.09427 0.358455 3.19482e-22)
(0.337372 0.203055 2.69157e-20)
(0.764257 0.473498 1.98575e-21)
(0.997235 0.603175 -5.96861e-21)
(1.09016 0.624961 -2.46045e-20)
(1.11093 0.591406 1.57785e-20)
(1.10541 0.539919 3.52746e-21)
(1.09497 0.48777 -1.24822e-20)
(1.08626 0.439545 2.28703e-21)
(1.07928 0.397277 -2.38485e-21)
(1.0739 0.361241 1.12933e-21)
(0.335468 0.218969 -7.28125e-21)
(0.74953 0.498588 -1.00674e-20)
(0.97072 0.624557 2.59129e-20)
(1.05722 0.640114 1.20602e-20)
(1.07722 0.601428 -1.64755e-20)
(1.07376 0.54688 2.28598e-20)
(1.0663 0.492785 1.7641e-21)
(1.06043 0.443211 2.10485e-21)
(1.05582 0.399878 4.24694e-22)
(1.0531 0.362766 1.81198e-22)
(0.331246 0.233869 4.70602e-20)
(0.730959 0.521136 3.63682e-20)
(0.940256 0.642469 -2.70302e-21)
(1.02187 0.652176 -5.54204e-21)
(1.04191 0.6089 -6.6589e-21)
(1.04103 0.551681 -3.27521e-21)
(1.03686 0.495958 1.98618e-21)
(1.03396 0.445288 1.59758e-21)
(1.03183 0.400997 3.09031e-23)
(1.03193 0.362934 -2.7365e-21)
(0.324783 0.24739 3.60072e-21)
(0.708607 0.540762 6.11847e-21)
(0.906764 0.657111 -3.31831e-20)
(0.984472 0.660913 1.46702e-20)
(1.00525 0.613678 3.70493e-21)
(1.00742 0.554223 -8.33805e-21)
(1.00678 0.497202 2.98668e-21)
(1.00698 0.445704 1.13973e-21)
(1.00745 0.400568 -3.3149e-21)
(1.01062 0.361697 3.64827e-21)
(0.316073 0.259311 -1.78511e-20)
(0.682684 0.556868 -1.27858e-20)
(0.870727 0.668171 1.04084e-20)
(0.945298 0.66635 2.57169e-21)
(0.967507 0.615669 -5.82287e-21)
(0.973112 0.554413 5.16072e-21)
(0.976199 0.496429 2.07566e-21)
(0.979586 0.444373 -7.02254e-21)
(0.982928 0.398528 1.90532e-20)
(0.989833 0.359094 7.88854e-21)
(0.305348 0.269469 -1.35149e-20)
(0.653841 0.569343 3.30051e-20)
(0.832421 0.675413 -2.08541e-20)
(0.904688 0.668391 -3.17718e-21)
(0.928932 0.61479 -3.41677e-21)
(0.938301 0.552175 -3.10824e-22)
(0.945234 0.493557 -6.89976e-21)
(0.951894 0.441161 3.67864e-21)
(0.958681 0.394686 -3.02801e-22)
(0.970297 0.355175 -3.40521e-21)
(0.292831 0.277779 -1.21592e-21)
(0.622498 0.578047 -9.83487e-21)
(0.792251 0.678672 5.08256e-21)
(0.862988 0.666956 -2.61635e-21)
(0.889791 0.610985 4.28431e-21)
(0.903169 0.547461 4.51263e-21)
(0.914008 0.488542 1.36386e-20)
(0.924098 0.435967 -1.05082e-20)
(0.935067 0.388655 -2.00802e-20)
(0.9513 0.349266 8.84809e-21)
(0.278686 0.284058 -3.96556e-22)
(0.58909 0.582849 -2.20773e-21)
(0.750642 0.677859 9.70987e-22)
(0.820548 0.661985 5.62675e-21)
(0.850351 0.604214 -1.06382e-20)
(0.867912 0.540245 -1.81777e-20)
(0.88271 0.481389 -5.32758e-21)
(0.896467 0.428918 -1.64975e-21)
(0.912059 0.380623 2.75317e-20)
(0.929927 0.337525 -5.78075e-21)
(0.263137 0.28817 2.15312e-23)
(0.554049 0.583645 -4.291e-21)
(0.708023 0.672927 6.3852e-22)
(0.777717 0.653447 8.84295e-22)
(0.810878 0.594455 -8.16164e-21)
(0.832751 0.530504 3.51301e-20)
(0.851601 0.472071 -2.47542e-20)
(0.869222 0.420112 2.95935e-20)
(0.888548 0.372562 -2.07493e-20)
(0.906132 0.330944 -2.75904e-20)
(0.246429 0.290008 -8.46477e-22)
(0.517804 0.580365 -1.12435e-21)
(0.664816 0.663864 5.34096e-22)
(0.734841 0.641338 1.28632e-20)
(0.771637 0.581702 -5.47947e-21)
(0.797911 0.518221 8.28124e-21)
(0.82089 0.460535 1.44742e-20)
(0.842396 0.40926 -7.63153e-21)
(0.864963 0.362264 -2.01744e-20)
(0.883571 0.320939 2.78057e-20)
(0.228814 0.289497 1.05771e-20)
(0.480782 0.572979 1.3924e-20)
(0.621438 0.650684 -1.34722e-20)
(0.692256 0.625679 -1.18305e-20)
(0.732894 0.565974 4.19787e-20)
(0.763611 0.503413 -4.25477e-20)
(0.790725 0.446833 5.10766e-20)
(0.816002 0.396599 -1.2752e-20)
(0.841517 0.35071 1.36764e-20)
(0.861825 0.310571 2.5578e-20)
(0.210552 0.286589 -3.86465e-21)
(0.443409 0.561494 -1.37043e-20)
(0.578295 0.633436 -8.39717e-21)
(0.650296 0.606518 -4.56599e-21)
(0.694913 0.547306 5.29362e-21)
(0.730071 0.486105 -1.12381e-20)
(0.761279 0.430974 -1.52664e-20)
(0.790201 0.382063 -3.33383e-20)
(0.818546 0.337531 3.30784e-20)
(0.840958 0.298781 -1.06277e-20)
(0.191903 0.281267 2.5961e-20)
(0.406105 0.545954 -3.1636e-21)
(0.535783 0.612196 -1.17573e-20)
(0.609283 0.583929 1.50667e-20)
(0.65795 0.525757 -2.68622e-20)
(0.697502 0.466346 7.18908e-20)
(0.732719 0.413008 -3.82771e-20)
(0.765161 0.365736 3.46264e-20)
(0.796269 0.322867 -6.3503e-20)
(0.820992 0.285695 -1.68366e-20)
(0.173127 0.273538 -8.18342e-21)
(0.369277 0.526438 2.75012e-20)
(0.494283 0.587071 6.44953e-21)
(0.569527 0.558007 -1.39655e-20)
(0.622257 0.501405 -2.40737e-20)
(0.666109 0.444198 -8.10057e-22)
(0.705216 0.392988 1.27644e-20)
(0.741044 0.347652 -3.12372e-20)
(0.774843 0.306702 1.53272e-20)
(0.801971 0.271255 2.02887e-21)
(0.154481 0.263439 -4.51945e-20)
(0.333321 0.503062 -1.11028e-20)
(0.454163 0.558194 -3.07028e-21)
(0.531327 0.528872 3.61486e-20)
(0.588074 0.474349 -3.35579e-20)
(0.636091 0.419743 -8.6825e-21)
(0.678941 0.370987 -5.289e-21)
(0.71801 0.327874 9.75287e-21)
(0.754407 0.289078 -1.23302e-20)
(0.783961 0.255499 -1.92027e-20)
(0.136215 0.251033 3.99759e-20)
(0.298617 0.475974 -2.26916e-20)
(0.415771 0.525729 1.1064e-21)
(0.49497 0.496666 -5.48632e-20)
(0.555632 0.444705 5.94084e-20)
(0.607641 0.393081 -1.87491e-20)
(0.654059 0.347089 1.12241e-20)
(0.696205 0.30647 9.72451e-21)
(0.735082 0.270041 2.81931e-20)
(0.767038 0.238476 -1.15822e-20)
(0.118571 0.236407 -1.62754e-20)
(0.265524 0.445352 4.70811e-20)
(0.379437 0.489863 2.64969e-20)
(0.460723 0.461552 4.32713e-20)
(0.52515 0.412609 -9.99121e-21)
(0.580942 0.364325 4.03453e-21)
(0.630726 0.321392 3.23105e-20)
(0.675766 0.28352 7.19586e-21)
(0.716986 0.249657 6.94144e-22)
(0.751275 0.220254 -1.38371e-20)
(0.101777 0.219671 -3.73851e-20)
(0.234381 0.411405 -2.75266e-21)
(0.34547 0.450809 -1.55377e-20)
(0.428839 0.423714 -6.96105e-20)
(0.496835 0.378214 -6.71535e-20)
(0.556168 0.333605 1.1213e-20)
(0.609092 0.294007 -2.75271e-20)
(0.656823 0.259118 1.75394e-20)
(0.700226 0.228003 9.52057e-21)
(0.736749 0.200915 1.98872e-20)
(0.0860514 0.200959 5.48327e-20)
(0.205503 0.374368 -4.48299e-20)
(0.314157 0.408801 -2.27177e-20)
(0.399553 0.383355 4.02538e-20)
(0.470877 0.34169 4.56885e-20)
(0.53348 0.301065 -1.51175e-20)
(0.589294 0.265059 -1.94668e-21)
(0.639495 0.23337 -5.46037e-20)
(0.684906 0.205171 -3.0857e-20)
(0.72353 0.180549 1.17526e-20)
(0.0715928 0.180424 -3.11807e-20)
(0.179178 0.3345 1.31376e-20)
(0.285758 0.364096 4.81937e-20)
(0.373079 0.340693 -2.15549e-20)
(0.447453 0.303222 1.6829e-21)
(0.513027 0.266863 6.08925e-20)
(0.57146 0.234682 2.81007e-21)
(0.623892 0.20639 5.22803e-20)
(0.671122 0.181261 2.17808e-20)
(0.711687 0.159253 -3.46097e-20)
(0.0585842 0.158238 4.30943e-20)
(0.155667 0.292085 4.75088e-21)
(0.26051 0.316969 3.11979e-21)
(0.34961 0.295967 4.39037e-20)
(0.426723 0.263009 -5.86582e-21)
(0.494945 0.231168 -3.82012e-20)
(0.555707 0.203022 1.86837e-20)
(0.610117 0.178303 -2.98452e-20)
(0.65896 0.156384 -1.2477e-20)
(0.701281 0.137129 1.25884e-20)
(0.0471888 0.134589 -2.68821e-20)
(0.135203 0.247425 -5.15663e-20)
(0.238622 0.267713 1.18865e-20)
(0.329319 0.249425 -2.32677e-20)
(0.408829 0.221262 -1.40563e-20)
(0.479353 0.194162 3.39994e-20)
(0.542136 0.170236 -8.22578e-21)
(0.598258 0.149244 7.59668e-21)
(0.6485 0.130657 -9.22803e-21)
(0.692366 0.114285 1.83031e-20)
(0.0375489 0.109681 9.70096e-21)
(0.117987 0.20084 3.46961e-20)
(0.220276 0.216635 -4.81291e-20)
(0.312354 0.201331 2.27436e-20)
(0.393894 0.178204 -1.03553e-20)
(0.466357 0.156035 -2.91132e-20)
(0.530838 0.136487 2.37403e-20)
(0.588396 0.119355 4.9791e-21)
(0.63981 0.104207 -7.69123e-22)
(0.68499 0.0908329 -2.12755e-20)
(0.0297849 0.0837305 3.16571e-21)
(0.104187 0.152667 1.11475e-20)
(0.205624 0.164056 4.35094e-20)
(0.298841 0.15196 -8.32928e-21)
(0.382023 0.134066 -6.56068e-21)
(0.456044 0.116986 2.43162e-21)
(0.52189 0.101946 1.05887e-21)
(0.580597 0.0887848 8.85456e-21)
(0.632951 0.0771643 -1.16246e-20)
(0.679195 0.0668901 -7.39213e-21)
(0.0239941 0.0569631 -7.92571e-21)
(0.093941 0.103252 -1.35703e-20)
(0.194788 0.110306 -3.37756e-20)
(0.288881 0.101593 1.69867e-20)
(0.373297 0.0890877 1.3853e-20)
(0.448486 0.0772193 5.87866e-22)
(0.515351 0.0667921 -2.3127e-20)
(0.574916 0.057685 -1.02569e-20)
(0.627972 0.0496611 8.13746e-21)
(0.675014 0.0425607 8.70068e-21)
(0.0202499 0.0296132 1.373e-21)
(0.0873511 0.0529545 -2.83053e-21)
(0.187861 0.0557241 6.41832e-21)
(0.28255 0.0505203 -4.34569e-21)
(0.367782 0.0435156 -3.81712e-21)
(0.443737 0.0369471 -2.58956e-21)
(0.511269 0.0312054 4.75419e-21)
(0.571393 0.0262132 1.81044e-20)
(0.624903 0.0218301 2.62472e-21)
(0.67246 0.0179332 -4.64989e-21)
(0.0186009 0.00192105 1.69886e-21)
(0.0844857 0.00213779 -4.67205e-21)
(0.184905 0.000656088 -5.29303e-21)
(0.279897 -0.000962662 -3.67174e-21)
(0.365518 -0.00240038 3.49487e-21)
(0.441833 -0.00361596 1.5764e-21)
(0.509674 -0.00462696 -1.57067e-21)
(0.570053 -0.00546469 -7.1494e-21)
(0.623756 -0.00616586 2.35305e-21)
(0.671498 -0.00676976 -2.2004e-21)
(0.019071 -0.0258697 -1.68878e-21)
(0.0853783 -0.0488291 4.64591e-21)
(0.185949 -0.0545498 5.26821e-21)
(0.280949 -0.0525585 -5.04319e-21)
(0.366527 -0.0484076 4.43894e-21)
(0.44279 -0.0442531 2.22246e-21)
(0.510582 -0.0405188 -3.54824e-21)
(0.570917 -0.0371891 -4.12163e-21)
(0.624589 -0.0341947 6.07384e-22)
(0.672301 -0.0314722 -1.71519e-21)
(0.021659 -0.0535143 1.8524e-21)
(0.0900277 -0.0995761 -5.53487e-21)
(0.190992 -0.109544 1.23633e-20)
(0.285705 -0.103968 -1.08584e-20)
(0.370807 -0.0942526 -5.18028e-22)
(0.446609 -0.0847471 -7.23166e-21)
(0.513991 -0.0762841 1.17482e-20)
(0.573979 -0.0688026 1.59721e-20)
(0.627369 -0.0621338 2.85096e-21)
(0.67475 -0.0561519 -6.14029e-21)
(0.0263383 -0.0807693 -1.57454e-21)
(0.0983975 -0.149735 -1.16382e-20)
(0.200002 -0.163977 -2.71093e-20)
(0.294137 -0.154895 2.34749e-20)
(0.378337 -0.139683 4.83025e-21)
(0.453269 -0.124881 4.28379e-21)
(0.519885 -0.111735 -2.10893e-20)
(0.579223 -0.10014 -1.24499e-20)
(0.63208 -0.0898257 -2.7769e-21)
(0.678837 -0.0806195 1.89599e-20)
(0.0330575 -0.107395 -5.54369e-21)
(0.110417 -0.198941 7.01455e-21)
(0.212916 -0.217506 4.89884e-20)
(0.306192 -0.205043 -4.41672e-21)
(0.389072 -0.184448 -1.26071e-20)
(0.462734 -0.16444 9.03464e-21)
(0.528232 -0.146687 6.53833e-22)
(0.586622 -0.131039 3.18249e-21)
(0.6387 -0.117128 -6.98347e-21)
(0.684554 -0.104751 -1.84509e-20)
(0.0417405 -0.133157 -3.72635e-21)
(0.12598 -0.246837 2.03141e-20)
(0.229639 -0.26979 -4.91953e-20)
(0.321794 -0.254123 2.1286e-20)
(0.402948 -0.228302 2.07566e-22)
(0.474948 -0.203213 -2.70528e-20)
(0.538982 -0.180957 1.19777e-20)
(0.596132 -0.161344 -1.12759e-21)
(0.647192 -0.143907 4.54571e-21)
(0.69188 -0.128438 -1.34085e-21)
(0.0522876 -0.157829 -4.26002e-20)
(0.144948 -0.293075 -5.1019e-20)
(0.250045 -0.3205 1.34359e-20)
(0.340839 -0.301853 -2.4392e-20)
(0.419878 -0.271007 -6.86382e-21)
(0.489838 -0.240996 1.03156e-20)
(0.552075 -0.214369 3.81664e-21)
(0.607697 -0.190901 1.41577e-20)
(0.657506 -0.170026 -3.04765e-21)
(0.70078 -0.151566 1.64756e-20)
(0.0645756 -0.181198 4.0722e-20)
(0.16715 -0.337322 2.62155e-20)
(0.273981 -0.369316 -1.97541e-20)
(0.363199 -0.34796 3.33183e-20)
(0.439758 -0.312331 -2.80341e-21)
(0.507314 -0.27759 -3.61366e-20)
(0.567431 -0.246753 6.33346e-21)
(0.621249 -0.219563 -3.84975e-20)
(0.669581 -0.195356 1.51096e-21)
(0.711212 -0.174021 1.39608e-20)
(0.0784596 -0.203059 -2.99571e-20)
(0.19238 -0.379256 5.37711e-20)
(0.301263 -0.41593 2.11414e-20)
(0.388725 -0.392181 -2.63361e-20)
(0.462462 -0.352051 2.99668e-22)
(0.52727 -0.312804 6.64934e-20)
(0.584959 -0.277943 2.98483e-21)
(0.636707 -0.247188 2.95113e-20)
(0.683346 -0.219772 3.59529e-20)
(0.723129 -0.19569 -2.01594e-20)
(0.0937737 -0.223225 1.67749e-20)
(0.220405 -0.418576 -8.06591e-21)
(0.331679 -0.460052 -1.90861e-20)