/*--------------------------------*- C++ -*----------------------------------*\
  =========                 |
  \\      /  F ield         | OpenFOAM: The Open Source CFD Toolbox
   \\    /   O peration     | Website:  https://openfoam.org
    \\  /    A nd           | Version:  7
     \\/     M anipulation  |
\*---------------------------------------------------------------------------*/
FoamFile
{
    version     2.0;
    format      ascii;
    class       volScalarField;
    location    "120";
    object      p;
}
// * * * * * * * * * * * * * * * * * * * * * * * * * * * * * * * * * * * * * //

dimensions      [0 2 -2 0 0 0 0];

internalField   nonuniform List<scalar> 
2125
(
-0.368744
-0.405124
-0.375565
-0.438644
-0.409989
-0.382192
-0.482787
-0.463538
-0.440693
-0.41452
-0.388698
-0.490723
-0.477809
-0.461692
-0.442205
-0.418733
-0.395155
-0.493426
-0.483616
-0.472624
-0.459316
-0.443187
-0.422631
-0.401631
-0.494104
-0.485735
-0.476832
-0.467376
-0.456505
-0.443658
-0.426194
-0.408217
-0.486541
-0.478662
-0.47044
-0.462197
-0.45338
-0.443645
-0.42941
-0.414959
-0.486013
-0.479727
-0.472233
-0.464505
-0.457203
-0.450084
-0.443213
-0.432229
-0.422043
-0.483704
-0.479527
-0.473671
-0.46648
-0.459102
-0.452516
-0.446776
-0.442446
-0.434696
-0.429316
-0.477428
-0.473886
-0.468389
-0.461445
-0.454323
-0.44827
-0.443626
-0.441487
-0.436774
-0.43705
-0.472159
-0.469107
-0.463897
-0.457171
-0.450264
-0.444615
-0.44083
-0.4405
-0.438464
-0.444008
-0.467906
-0.465157
-0.460195
-0.453691
-0.447007
-0.441698
-0.438642
-0.43952
-0.440982
-0.442288
-0.464623
-0.461991
-0.457261
-0.45101
-0.444604
-0.439643
-0.437286
-0.438739
-0.444269
-0.443335
-0.462211
-0.45954
-0.455038
-0.449094
-0.443055
-0.438519
-0.436898
-0.438601
-0.447896
-0.44665
-0.460521
-0.457725
-0.453439
-0.447868
-0.442308
-0.438322
-0.437494
-0.439475
-0.451572
-0.450296
-0.459413
-0.456414
-0.452354
-0.447222
-0.442257
-0.438966
-0.438985
-0.441493
-0.455238
-0.454551
-0.458716
-0.455477
-0.451658
-0.447025
-0.44276
-0.440294
-0.441207
-0.444555
-0.458987
-0.45995
-0.458256
-0.45478
-0.45122
-0.447136
-0.443649
-0.44211
-0.443959
-0.448385
-0.462944
-0.466457
-0.457864
-0.454194
-0.450913
-0.447411
-0.444752
-0.444196
-0.447003
-0.452624
-0.467129
-0.473578
-0.457385
-0.453592
-0.450613
-0.44771
-0.445893
-0.446327
-0.450087
-0.456904
-0.471394
-0.480716
-0.456681
-0.45286
-0.450204
-0.447898
-0.446903
-0.448287
-0.452957
-0.460887
-0.475465
-0.487343
-0.455631
-0.451893
-0.449576
-0.44785
-0.447626
-0.449878
-0.455371
-0.46427
-0.479014
-0.493029
-0.454138
-0.450598
-0.448632
-0.447449
-0.447919
-0.450925
-0.457118
-0.466801
-0.481724
-0.497445
-0.452126
-0.448897
-0.447285
-0.446598
-0.447664
-0.451283
-0.458023
-0.468277
-0.483323
-0.500316
-0.449544
-0.446733
-0.44547
-0.445217
-0.446767
-0.450846
-0.457958
-0.468549
-0.483593
-0.501415
-0.446368
-0.444068
-0.443142
-0.443255
-0.445172
-0.449549
-0.456842
-0.467524
-0.48238
-0.500558
-0.442601
-0.440889
-0.440282
-0.440692
-0.442857
-0.447369
-0.454647
-0.465165
-0.479597
-0.497617
-0.438277
-0.437211
-0.4369
-0.437537
-0.439837
-0.44433
-0.451396
-0.461496
-0.475228
-0.492539
-0.433457
-0.433078
-0.433037
-0.433836
-0.436168
-0.440498
-0.447166
-0.456599
-0.469301
-0.485419
-0.428227
-0.428559
-0.428756
-0.429668
-0.431939
-0.43598
-0.442079
-0.450612
-0.46197
-0.476495
-0.422708
-0.423739
-0.424158
-0.425133
-0.427272
-0.430918
-0.436302
-0.443726
-0.453455
-0.465879
-0.0281423
-0.0287951
-0.0294154
-0.0300029
-0.0305573
-0.0310784
-0.0315661
-0.0320204
-0.0324409
-0.0328282
-0.0331817
-0.0290615
-0.0297355
-0.030376
-0.0309829
-0.0315559
-0.0320948
-0.0325996
-0.0330703
-0.0335068
-0.0339103
-0.0342817
-0.0307749
-0.0314857
-0.0321625
-0.0328052
-0.0334134
-0.0339872
-0.0345266
-0.0350316
-0.0355025
-0.0359416
-0.0363527
-0.0332162
-0.0339821
-0.0347135
-0.0354102
-0.0360721
-0.0366992
-0.0372915
-0.0378494
-0.0383731
-0.0388668
-0.0393383
-0.0363542
-0.0371922
-0.0379954
-0.0387634
-0.0394964
-0.0401943
-0.0408571
-0.0414856
-0.0420802
-0.0426474
-0.0432004
-0.040159
-0.041087
-0.0419798
-0.0428374
-0.0436597
-0.044447
-0.0451992
-0.0459174
-0.0466023
-0.0472636
-0.047921
-0.044621
-0.0456575
-0.0466588
-0.0476249
-0.0485559
-0.0494521
-0.0503137
-0.051142
-0.0519384
-0.0527161
-0.0535032
-0.0497345
-0.0508991
-0.0520285
-0.0531231
-0.0541831
-0.055209
-0.0562012
-0.0571619
-0.0580931
-0.0590131
-0.0599604
-0.0555042
-0.0568175
-0.0580959
-0.0593399
-0.0605497
-0.0617259
-0.0628689
-0.0639813
-0.0650652
-0.0661441
-0.0672689
-0.061941
-0.0634258
-0.0648766
-0.066294
-0.0676786
-0.0690314
-0.0703531
-0.0716473
-0.0729175
-0.0741945
-0.0755449
-0.0690578
-0.0707382
-0.072386
-0.0740021
-0.0755874
-0.0771434
-0.0786711
-0.0801753
-0.0816607
-0.0831665
-0.0847773
-0.0749368
-0.0768702
-0.0787718
-0.0806425
-0.0824839
-0.0842971
-0.0860844
-0.087847
-0.0895913
-0.0913234
-0.0930925
-0.0950044
-0.083217
-0.0853962
-0.0875455
-0.0896666
-0.0917613
-0.0938314
-0.0958798
-0.0979083
-0.0999251
-0.101938
-0.104008
-0.106267
-0.092203
-0.0946553
-0.0970802
-0.09948
-0.101857
-0.104215
-0.106556
-0.108883
-0.111207
-0.113537
-0.11595
-0.118603
-0.101914
-0.104667
-0.107396
-0.110104
-0.112795
-0.115471
-0.118137
-0.120797
-0.123465
-0.126151
-0.128949
-0.13205
-0.11237
-0.115452
-0.118514
-0.12156
-0.124594
-0.12762
-0.130646
-0.133674
-0.136722
-0.139805
-0.143035
-0.146638
-0.123589
-0.127028
-0.130452
-0.133866
-0.137274
-0.140683
-0.1441
-0.147531
-0.150997
-0.154517
-0.158225
-0.162387
-0.13559
-0.139413
-0.143225
-0.147034
-0.150846
-0.154668
-0.158512
-0.162382
-0.166304
-0.170299
-0.17453
-0.179306
-0.148389
-0.15262
-0.156847
-0.161076
-0.165317
-0.169579
-0.173876
-0.178216
-0.182632
-0.187146
-0.191949
-0.197393
-0.162
-0.166661
-0.171324
-0.175998
-0.180695
-0.185423
-0.190197
-0.195028
-0.199959
-0.205021
-0.210441
-0.216608
-0.176433
-0.181537
-0.186648
-0.191782
-0.196951
-0.202171
-0.207456
-0.212817
-0.218292
-0.223921
-0.229973
-0.236902
-0.1917
-0.197259
-0.202827
-0.208423
-0.214059
-0.219764
-0.225555
-0.231471
-0.237535
-0.243803
-0.250528
-0.258258
-0.207794
-0.213811
-0.219844
-0.225919
-0.232035
-0.238233
-0.244499
-0.250926
-0.257517
-0.264445
-0.271892
-0.280542
-0.224708
-0.231161
-0.237634
-0.244175
-0.250778
-0.257518
-0.264321
-0.271329
-0.278401
-0.285921
-0.293929
-0.303575
-0.242451
-0.24931
-0.256179
-0.263118
-0.270115
-0.277319
-0.284622
-0.292325
-0.300041
-0.30841
-0.316914
-0.327583
-0.260979
-0.268216
-0.275458
-0.282767
-0.290101
-0.297631
-0.305188
-0.313301
-0.321425
-0.330822
-0.340068
-0.352289
-0.280192
-0.287717
-0.295266
-0.302915
-0.31063
-0.318573
-0.326478
-0.334909
-0.343018
-0.352835
-0.362153
-0.37635
-0.300141
-0.307795
-0.315471
-0.323265
-0.331214
-0.339512
-0.347996
-0.357206
-0.366075
-0.376703
-0.385604
-0.401224
-0.321055
-0.328697
-0.336309
-0.343978
-0.35179
-0.359923
-0.368423
-0.377828
-0.387622
-0.399815
-0.410452
-0.428489
-0.342439
-0.349904
-0.357255
-0.364561
-0.3719
-0.379368
-0.387067
-0.395247
-0.403968
-0.414569
-0.425831
-0.445221
-0.0339965
-0.0347248
-0.0348432
-0.0342442
-0.0328911
-0.0307171
-0.027769
-0.0240366
-0.0196493
-0.014674
-0.00935094
-0.00384979
0.00153046
0.0065889
0.011152
0.0151417
0.0187412
0.0222064
0.0258969
0.0299532
0.0342419
0.0387797
0.0427573
0.045568
0.0452994
0.0398666
0.0313071
0.0217064
0.0132632
0.00452294
-0.0351532
-0.0358942
-0.0359695
-0.0352879
-0.0338278
-0.0315243
-0.0284261
-0.0245204
-0.0199445
-0.0147738
-0.00926739
-0.00360982
0.00187822
0.00697717
0.0114969
0.0153817
0.0188276
0.0221542
0.0257443
0.0298035
0.0341055
0.0388463
0.0431028
0.0460727
0.0457969
0.0400807
0.0312169
0.0215133
0.0132101
0.004481
-0.0373405
-0.0381106
-0.0381047
-0.0372663
-0.0356021
-0.0330527
-0.0296663
-0.025429
-0.0204893
-0.0149447
-0.0090845
-0.0031296
0.00256612
0.00773923
0.0121852
0.0158357
0.0189765
0.0220271
0.0254259
0.0294846
0.0338046
0.0389362
0.0437163
0.046999
0.0467166
0.0404297
0.0309716
0.0211408
0.0130445
0.00436892
-0.0404994
-0.0413098
-0.0411817
-0.0401127
-0.038151
-0.0352432
-0.0314359
-0.0267138
-0.0212409
-0.0151497
-0.00877128
-0.002383
0.0036128
0.00888683
0.0132049
0.0164836
0.0191503
0.0217806
0.0249023
0.0289513
0.0332774
0.03899
0.0445027
0.0482434
0.04795
0.0407791
0.0304559
0.0205818
0.0126775
0.00414799
-0.0445939
-0.0454542
-0.04516
-0.0437857
-0.0414333
-0.0380563
-0.0336952
-0.028335
-0.0221587
-0.0153482
-0.00828636
-0.00132928
0.00505657
0.0104532
0.0145679
0.0173055
0.0193015
0.0213542
0.0241194
0.0281401
0.0324438
0.0389242
0.0453267
0.0496827
0.0493241
0.0409435
0.0295365
0.019818
0.011982
0.00377287
-0.0496113
-0.0505306
-0.0500226
-0.048265
-0.0454272
-0.0414684
-0.0364177
-0.0302617
-0.0232062
-0.0155
-0.0075849
7.93614e-05
0.00694737
0.0124868
0.0162962
0.0182779
0.0193672
0.0206727
0.0230124
0.0269761
0.0312126
0.0386223
0.0459979
0.05129
0.0505532
0.040673
0.0280784
0.0188141
0.0108011
0.00320688
-0.0555599
-0.0565442
-0.0557695
-0.0535467
-0.0501252
-0.0454685
-0.0395866
-0.0324706
-0.0243528
-0.0155677
-0.00662232
0.00189281
0.00934251
0.0150463
0.0184146
0.0193687
0.0192707
0.0196476
0.0215105
0.0253782
0.0294952
0.0379327
0.0462431
0.0526706
0.0511799
0.0396613
0.025955
0.017521
0.00897425
0.00242605
-0.0624707
-0.063514
-0.0624135
-0.0596383
-0.0555308
-0.0500557
-0.0431943
-0.0349459
-0.0255747
-0.0155198
-0.00535984
0.00415741
0.0123014
0.0181997
0.0209455
0.0205299
0.0189156
0.0181759
0.0195399
0.0232668
0.027215
0.0366939
0.0457041
0.052611
0.0505753
0.0376087
0.0231185
0.0158951
0.00636886
0.00141508
-0.070268
-0.0714565
-0.069977
-0.0665569
-0.0616576
-0.0552387
-0.0472418
-0.0376795
-0.0268557
-0.015334
-0.00376933
0.00691053
0.0158824
0.0220162
0.0239037
0.0216918
0.0181796
0.0161369
0.0170254
0.0205702
0.0243196
0.0347676
0.0440492
0.0507715
0.047999
0.0342985
0.019714
0.0139334
0.00293529
0.000170508
-0.0791761
-0.0804386
-0.0784955
-0.0743293
-0.0685274
-0.0610342
-0.051738
-0.040671
-0.0281886
-0.0149986
-0.0018377
0.0101744
0.020138
0.0265648
0.0272848
0.0227518
0.0169116
0.0133932
0.0138929
0.0172264
0.0207898
0.0320736
0.0409967
0.0462354
0.0426889
0.0295465
0.0160638
0.0116911
-0.00124292
-0.00129
-0.0891257
-0.0904822
-0.0879984
-0.0829853
-0.0761689
-0.0674667
-0.056699
-0.043927
-0.0295756
-0.0145152
0.000427113
0.0139487
0.0251081
0.0319044
0.0310566
0.0235651
0.0149238
0.00979021
0.0100668
0.01319
0.0166483
0.0286085
0.0364457
0.0387224
0.0344678
0.0232585
0.0124965
0.00923912
-0.00596721
-0.00291938
-0.100177
-0.101632
-0.0985227
-0.09256
-0.0846177
-0.0745675
-0.0621476
-0.0474615
-0.0310289
-0.0139018
0.0029927
0.0182057
0.0308142
0.0380644
0.0351441
0.0239348
0.0119814
0.00515733
0.00546465
0.00843988
0.0119544
0.024423
0.0305403
0.0288354
0.0239996
0.0156808
0.00915092
0.00660439
-0.0110048
-0.00463998
-0.112381
-0.113935
-0.110108
-0.103094
-0.0939166
-0.0823754
-0.068112
-0.0512949
-0.03257
-0.0131943
0.00579873
0.0228816
0.0372497
0.0450251
0.039409
0.023598
0.00779705
-0.00068501
-3.24986e-06
0.00298269
0.00678324
0.0195705
0.0236283
0.0178526
0.0125442
0.0074453
0.00602174
0.00376017
-0.0161039
-0.00636635
-0.125786
-0.127434
-0.122796
-0.114633
-0.104115
-0.0909362
-0.0746252
-0.0554526
-0.0342281
-0.0124443
0.00875552
0.0278655
0.0443661
0.0526894
0.0436238
0.0222096
0.00202695
-0.0079199
-0.00643185
-0.00314572
0.0012156
0.0141583
0.0162379
0.00703817
0.00133822
-0.00074155
0.00305251
0.000664089
-0.0210092
-0.00802775
-0.140436
-0.142168
-0.136624
-0.127226
-0.115273
-0.100303
-0.0817242
-0.0599642
-0.0360385
-0.0117149
0.0117501
0.0329875
0.0520528
0.0608374
0.0474416
0.0193296
-0.00573319
-0.0167284
-0.0139156
-0.00987769
-0.00464567
0.00835651
0.0088766
-0.00280842
-0.00886851
-0.00837811
0.000156688
-0.00271498
-0.025491
-0.00957591
-0.156367
-0.15817
-0.151631
-0.14093
-0.127456
-0.110534
-0.0894487
-0.0648611
-0.0380414
-0.011079
0.0146542
0.0380333
0.0601208
0.0690881
0.0503696
0.0144201
-0.0159328
-0.0272782
-0.0225387
-0.017124
-0.0106833
0.00234451
0.00189722
-0.0113281
-0.0177382
-0.015206
-0.00275936
-0.00638096
-0.0293711
-0.0109834
-0.173604
-0.175462
-0.167853
-0.155806
-0.140744
-0.121697
-0.0978401
-0.0701757
-0.0402804
-0.0106116
0.0173391
0.0427588
0.0682724
0.0769093
0.0517796
0.00691286
-0.0290131
-0.0397012
-0.0323637
-0.024789
-0.0167816
-0.00372427
-0.0045075
-0.0184479
-0.0251937
-0.0211568
-0.00575672
-0.0102992
-0.0325367
-0.0122392
-0.192157
-0.194051
-0.185325
-0.171928
-0.155228
-0.133861
-0.106941
-0.0759405
-0.0427995
-0.0103836
0.0196867
0.046931
0.0760802
0.0837533
0.051078
-0.00353017
-0.0452338
-0.0540482
-0.0434121
-0.0327724
-0.0228399
-0.00973444
-0.0102505
-0.0242512
-0.0313098
-0.0262755
-0.00885201
-0.0143934
-0.0349395
-0.0133433
-0.212018
-0.213929
-0.204079
-0.189381
-0.171013
-0.147103
-0.116796
-0.0821869
-0.0456403
-0.0104647
0.0215952
0.0507415
0.0829765
0.0892421
0.0480962
-0.0165351
-0.0642342
-0.0701994
-0.0556293
-0.0409631
-0.0287804
-0.0156027
-0.0153065
-0.0288995
-0.0362338
-0.0306538
-0.0120245
-0.0185585
-0.0365862
-0.0143025
-0.233152
-0.23507
-0.224152
-0.20827
-0.188219
-0.161504
-0.127448
-0.0889452
-0.0488394
-0.0109248
0.022935
0.0533398
0.0882143
0.0930192
0.0432091
-0.0308675
-0.0850466
-0.0877464
-0.0688396
-0.0492339
-0.0345486
-0.0212674
-0.0196939
-0.0325829
-0.0401377
-0.0343915
-0.0152302
-0.0226787
-0.0375237
-0.0151275
-0.25549
-0.257419
-0.245586
-0.228723
-0.20698
-0.177145
-0.138946
-0.0962427
-0.0524283
-0.0118254
0.0236595
0.0550648
0.0910294
0.0943187
0.0369403
-0.0448393
-0.105775
-0.106002
-0.0827228
-0.0574409
-0.0401085
-0.026685
-0.0234616
-0.03549
-0.0431923
-0.0375802
-0.0184168
-0.0266442
-0.0378241
-0.0158308
-0.278925
-0.280897
-0.268437
-0.250893
-0.227445
-0.194116
-0.151338
-0.104104
-0.0564381
-0.0132073
0.0237513
0.0557556
0.0908235
0.092025
0.0294567
-0.0573446
-0.124613
-0.124171
-0.0968423
-0.0654301
-0.0454372
-0.0318275
-0.0266717
-0.0377888
-0.0455561
-0.0402989
-0.021534
-0.0303645
-0.037573
-0.0164256
-0.303268
-0.30539
-0.292776
-0.274959
-0.249767
-0.212505
-0.164674
-0.11255
-0.0609005
-0.0150794
0.0232065
0.0552397
0.0874486
0.0854264
0.0206741
-0.0683456
-0.140689
-0.141508
-0.110714
-0.0730558
-0.0505193
-0.0366766
-0.0293878
-0.0396221
-0.0473731
-0.0426169
-0.0245373
-0.0337724
-0.0368612
-0.0169247
-0.328186
-0.330716
-0.318677
-0.301104
-0.274096
-0.232403
-0.179001
-0.121608
-0.065842
-0.0174265
0.0220175
0.0534285
0.0813049
0.0748091
0.0107022
-0.0782925
-0.153717
-0.157417
-0.123882
-0.0801973
-0.0553443
-0.0412151
-0.0316728
-0.0411101
-0.0487709
-0.0445991
-0.0273927
-0.036821
-0.035779
-0.0173407
-0.353217
-0.356608
-0.346179
-0.329477
-0.300555
-0.253884
-0.194354
-0.131304
-0.0712745
-0.0202368
0.0201673
0.0503243
0.0731106
0.0612446
-0.000105288
-0.0874745
-0.163891
-0.171505
-0.13597
-0.0867667
-0.0599034
-0.0454277
-0.0335881
-0.0423516
-0.0498613
-0.0463116
-0.0300812
-0.0394846
-0.0344125
-0.0176853
-0.377702
-0.382705
-0.375216
-0.36012
-0.329199
-0.276989
-0.210753
-0.141663
-0.0771914
-0.0235349
0.0176263
0.0459994
0.0635398
0.0460855
-0.0112547
-0.0959344
-0.171632
-0.183539
-0.146707
-0.0927104
-0.0641891
-0.0493039
-0.0351906
-0.0434234
-0.0507381
-0.0478139
-0.032598
-0.0417729
-0.0328395
-0.0179692
-0.400457
-0.408456
-0.405513
-0.392857
-0.359942
-0.301693
-0.228188
-0.152692
-0.0835687
-0.0273864
0.0143387
0.0405854
0.0529641
0.0307385
-0.0220488
-0.103648
-0.177517
-0.193404
-0.15592
-0.0980055
-0.068195
-0.0528388
-0.0365308
-0.0443822
-0.0514675
-0.0491279
-0.0349388
-0.043733
-0.0311329
-0.0182012
-0.420343
-0.433043
-0.436506
-0.427259
-0.392473
-0.32783
-0.246629
-0.164414
-0.0903982
-0.0318895
0.0102235
0.0343395
0.0388289
0.0164883
-0.0318537
-0.110593
-0.182368
-0.201178
-0.163525
-0.102653
-0.071917
-0.0560387
-0.0376535
-0.0452729
-0.0520697
-0.0502115
-0.037085
-0.0454072
-0.029371
-0.0183897
-0.437207
-0.455446
-0.467167
-0.462665
-0.426423
-0.355069
-0.2658
-0.176668
-0.0976265
-0.0371282
0.00521461
0.0278722
0.0290262
0.00380434
-0.0411927
-0.116979
-0.186597
-0.207537
-0.169571
-0.106663
-0.0753595
-0.0588976
-0.0386037
-0.0461331
-0.052473
-0.0510661
-0.039023
-0.0467764
-0.0276134
-0.0185468
-0.450937
-0.474356
-0.495187
-0.497251
-0.461299
-0.384104
-0.286773
-0.190249
-0.105524
-0.0432103
-0.000802583
0.0212519
0.025589
-0.00994789
-0.0527543
-0.123366
-0.188784
-0.217872
-0.174286
-0.11018
-0.0784924
-0.0615269
-0.0394372
-0.0469938
-0.0524627
-0.0520677
-0.0408061
-0.0477828
-0.025758
-0.0186658
-0.464138
-0.485638
-0.511375
-0.518348
-0.484529
-0.405497
-0.303826
-0.202767
-0.114139
-0.0508264
-0.00864118
0.0127468
0.00851271
-0.0265322
-0.0655776
-0.127564
-0.186497
-0.213061
-0.175076
-0.112414
-0.0804725
-0.0632482
-0.0403301
-0.0483454
-0.0558073
-0.0537707
-0.0422837
-0.0483243
-0.0239485
-0.0186451
-0.470275
-0.49848
-0.529298
-0.538714
-0.50138
-0.415549
-0.307991
-0.20362
-0.113877
-0.0523134
-0.0124792
0.0081008
0.00224249
-0.0353931
-0.0730381
-0.131595
-0.188933
-0.218815
-0.176141
-0.112954
-0.0814331
-0.064375
-0.0408284
-0.0488094
-0.0564302
-0.0547225
-0.0431717
-0.0486756
-0.0229293
-0.0186721
-0.480035
-0.51168
-0.547398
-0.557056
-0.513674
-0.418915
-0.304978
-0.19814
-0.109424
-0.0512899
-0.0146247
0.00441735
-0.00412459
-0.0438263
-0.0799533
-0.134938
-0.190977
-0.218441
-0.176463
-0.112455
-0.0819281
-0.0651088
-0.0410762
-0.0489125
-0.0567754
-0.0555856
-0.0439911
-0.0489395
-0.0220587
-0.0187027
-0.487233
-0.524148
-0.564074
-0.574052
-0.525696
-0.423224
-0.303691
-0.194642
-0.107063
-0.0521954
-0.0180505
-0.000416007
-0.0116973
-0.0519355
-0.0860698
-0.137844
-0.192161
-0.213993
-0.176136
-0.111911
-0.0824344
-0.0657387
-0.0412722
-0.0490361
-0.0572082
-0.0564411
-0.0447668
-0.0491188
-0.0212191
-0.0187122
-0.49456
-0.536576
-0.579628
-0.590211
-0.537567
-0.428277
-0.303872
-0.193052
-0.106801
-0.0551679
-0.0229976
-0.00675018
-0.0199292
-0.0596039
-0.0914855
-0.140222
-0.192627
-0.209901
-0.175347
-0.111444
-0.0829974
-0.0663487
-0.0414855
-0.0492663
-0.0577038
-0.0572826
-0.0454916
-0.0492192
-0.0204287
-0.0187037
-0.502151
-0.548129
-0.594003
-0.605172
-0.548482
-0.432858
-0.304109
-0.19208
-0.10769
-0.0596287
-0.0291379
-0.0146029
-0.0286486
-0.0668479
-0.0962237
-0.142074
-0.19242
-0.205489
-0.174147
-0.11092
-0.0835438
-0.0669096
-0.0417078
-0.0495665
-0.0582299
-0.0581114
-0.0461646
-0.0492482
-0.0197052
-0.0186835
-0.509777
-0.558932
-0.606967
-0.618548
-0.558131
-0.436827
-0.304362
-0.191717
-0.109701
-0.0655817
-0.0365377
-0.0241044
-0.037833
-0.0736783
-0.100315
-0.143371
-0.191562
-0.203067
-0.172551
-0.110286
-0.0840422
-0.0673952
-0.0419286
-0.0499171
-0.0587921
-0.0589315
-0.0467859
-0.0492132
-0.0190529
-0.0186548
-0.517123
-0.567726
-0.618521
-0.630124
-0.566368
-0.440261
-0.304902
-0.192309
-0.113089
-0.0732055
-0.0454563
-0.0351966
-0.0474295
-0.0800939
-0.103785
-0.144092
-0.190035
-0.201306
-0.170572
-0.109551
-0.0844915
-0.0678038
-0.0421512
-0.0503239
-0.0594022
-0.0597457
-0.047356
-0.0491219
-0.0184735
-0.0186194
-0.524074
-0.576816
-0.628647
-0.639717
-0.573013
-0.443089
-0.3058
-0.194005
-0.117981
-0.0825622
-0.0561372
-0.0477281
-0.0573506
-0.0860826
-0.106653
-0.144215
-0.187808
-0.199081
-0.168221
-0.108725
-0.0848914
-0.0681429
-0.0423846
-0.0507954
-0.0600676
-0.0605552
-0.0478752
-0.0489818
-0.0179688
-0.018579
-0.530431
-0.584688
-0.637032
-0.647095
-0.577874
-0.445181
-0.307038
-0.196829
-0.124428
-0.0936131
-0.0687647
-0.0616014
-0.0675107
-0.0916281
-0.108943
-0.143729
-0.18487
-0.196148
-0.165496
-0.10781
-0.0852371
-0.0684189
-0.042636
-0.0513349
-0.0607929
-0.0613603
-0.0483443
-0.0488003
-0.0175404
-0.0185352
-0.535885
-0.590969
-0.643319
-0.652012
-0.580777
-0.446411
-0.308597
-0.200773
-0.132466
-0.106274
-0.0834329
-0.0764677
-0.0778084
-0.0967157
-0.110676
-0.142628
-0.181224
-0.192488
-0.162394
-0.106802
-0.0855222
-0.0686372
-0.0429114
-0.0519428
-0.0615804
-0.0621601
-0.0487641
-0.0485846
-0.0171901
-0.0184898
-0.54006
-0.595397
-0.647163
-0.654243
-0.581528
-0.446693
-0.310438
-0.205789
-0.142109
-0.120434
-0.100104
-0.0920093
-0.0881218
-0.101335
-0.111877
-0.140917
-0.176882
-0.188136
-0.158923
-0.105698
-0.0857415
-0.0688034
-0.0432156
-0.0526183
-0.0624311
-0.062953
-0.0491356
-0.0483414
-0.0169201
-0.0184446
-0.542559
-0.597605
-0.648219
-0.65356
-0.579967
-0.445953
-0.312475
-0.211776
-0.153311
-0.135963
-0.118579
-0.107894
-0.0983209
-0.105481
-0.112576
-0.138615
-0.171874
-0.183117
-0.15509
-0.104497
-0.0858904
-0.0689246
-0.0435535
-0.0533596
-0.0633439
-0.0637369
-0.0494598
-0.0480775
-0.0167309
-0.0184011
-0.54301
-0.597199
-0.646154
-0.649735
-0.575977
-0.444104
-0.31456
-0.218578
-0.165943
-0.152722
-0.138507
-0.123828
-0.108275
-0.109158
-0.112808
-0.135752
-0.16625
-0.177471
-0.150905
-0.103197
-0.0859647
-0.0690092
-0.0439297
-0.0541637
-0.064316
-0.0645088
-0.0497378
-0.0477995
-0.0166218
-0.0183607
-0.541083
-0.593832
-0.640697
-0.642567
-0.569454
-0.441026
-0.316494
-0.225999
-0.179792
-0.170579
-0.159408
-0.139566
-0.117867
-0.112379
-0.112611
-0.132374
-0.160073
-0.171245
-0.146379
-0.101797
-0.0859607
-0.0690663
-0.044349
-0.0550266
-0.0653433
-0.0652655
-0.0499708
-0.0475134
-0.0165921
-0.0183243
-0.536539
-0.587235
-0.631633
-0.631922
-0.560303
-0.436565
-0.318029
-0.23381
-0.194577
-0.189402
-0.180719
-0.154907
-0.127001
-0.115162
-0.112027
-0.128537
-0.153417
-0.164495
-0.141535
-0.100295
-0.0858747
-0.0691057
-0.0448159
-0.0559433
-0.06642
-0.0660032
-0.0501597
-0.047225
-0.0166411
-0.0182933
-0.529279
-0.577242
-0.618833
-0.617724
-0.548441
-0.43054
-0.318882
-0.241764
-0.209974
-0.209043
-0.201838
-0.169686
-0.135604
-0.117529
-0.111101
-0.124312
-0.146373
-0.157297
-0.136394
-0.0986919
-0.0857036
-0.0691377
-0.0453348
-0.0569081
-0.0675392
-0.0667182
-0.0503056
-0.0469395
-0.0167677
-0.0182686
-0.519311
-0.563843
-0.602296
-0.599962
-0.533804
-0.422754
-0.318747
-0.249587
-0.22566
-0.229296
-0.222087
-0.183768
-0.143625
-0.11951
-0.109881
-0.119776
-0.139036
-0.149729
-0.130981
-0.0969878
-0.0854447
-0.0691725
-0.0459103
-0.0579149
-0.0686933
-0.0674066
-0.0504092
-0.0466614
-0.0169705
-0.0182512
-0.506709
-0.547219
-0.582161
-0.578704
-0.516353
-0.413005
-0.31731
-0.256984
-0.24133
-0.249878
-0.24181
-0.197057
-0.151033
-0.121139
-0.108413
-0.115015
-0.131508
-0.141875
-0.125326
-0.0951836
-0.0850955
-0.0692202
-0.0465465
-0.0589569
-0.0698734
-0.0680648
-0.0504714
-0.046395
-0.0172481
-0.018242
-0.491922
-0.527672
-0.558637
-0.554081
-0.496082
-0.401099
-0.314272
-0.263638
-0.25671
-0.270404
-0.260544
-0.20947
-0.157814
-0.122455
-0.106745
-0.110115
-0.123893
-0.133828
-0.119465
-0.093281
-0.0846543
-0.0692904
-0.0472474
-0.0600274
-0.0710705
-0.0686891
-0.0504926
)
;

boundaryField
{
    inlet
    {
        type            zeroGradient;
    }
    outlet
    {
        type            fixedValue;
        value           uniform 0;
    }
    cylinder
    {
        type            zeroGradient;
    }
    top
    {
        type            symmetryPlane;
    }
    bottom
    {
        type            symmetryPlane;
    }
    defaultFaces
    {
        type            empty;
    }
    procBoundary1to0
    {
        type            processor;
        value           nonuniform List<scalar> 
50
(
-0.361657
-0.399894
-0.399894
-0.436045
-0.436045
-0.487406
-0.464778
-0.464778
-0.498063
-0.498063
-0.501704
-0.501704
-0.502413
-0.502413
-0.501471
-0.493331
-0.493331
-0.490999
-0.490999
-0.0274573
-0.0283544
-0.0300303
-0.032416
-0.0354814
-0.0391959
-0.0435493
-0.0485348
-0.0541559
-0.0604218
-0.0673439
-0.0673439
-0.0729703
-0.0810062
-0.0897213
-0.0991333
-0.109263
-0.120129
-0.131751
-0.144145
-0.157331
-0.171324
-0.186139
-0.201782
-0.218261
-0.23559
-0.253739
-0.272662
-0.292453
-0.313313
-0.334792
)
;
    }
    procBoundary1to3
    {
        type            processor;
        value           nonuniform List<scalar> 
41
(
-0.417022
-0.418738
-0.419357
-0.420358
-0.422308
-0.425478
-0.430028
-0.436173
-0.444016
-0.453903
-0.475445
-0.505693
-0.532182
-0.526315
-0.472996
-0.386878
-0.309369
-0.269225
-0.271546
-0.290431
-0.2781
-0.220938
-0.163957
-0.123495
-0.104926
-0.105166
-0.116292
-0.125683
-0.113433
-0.091282
-0.0841199
-0.0693917
-0.0480163
-0.0611194
-0.0722748
-0.0692762
-0.050473
-0.0461439
-0.0175982
-0.0182416
-0.0461439
)
;
    }
}


// ************************************************************************* //
