/*--------------------------------*- C++ -*----------------------------------*\
  =========                 |
  \\      /  F ield         | OpenFOAM: The Open Source CFD Toolbox
   \\    /   O peration     | Website:  https://openfoam.org
    \\  /    A nd           | Version:  7
     \\/     M anipulation  |
\*---------------------------------------------------------------------------*/
FoamFile
{
    version     2.0;
    format      ascii;
    class       volScalarField;
    location    "110";
    object      p;
}
// * * * * * * * * * * * * * * * * * * * * * * * * * * * * * * * * * * * * * //

dimensions      [0 2 -2 0 0 0 0];

internalField   nonuniform List<scalar> 
2125
(
0.65024
0.627694
0.61213
0.648423
0.625979
0.610599
0.588623
0.561329
0.530882
0.49887
0.466489
0.434602
0.403816
0.641604
0.619565
0.604827
0.583532
0.556855
0.526949
0.495408
0.463426
0.431877
0.401469
0.629825
0.60849
0.594846
0.574719
0.549106
0.520137
0.489416
0.458135
0.427183
0.397454
0.613168
0.592828
0.58072
0.562238
0.538128
0.510486
0.48093
0.450646
0.420545
0.391788
0.591755
0.572688
0.562542
0.546167
0.523989
0.498053
0.469998
0.440999
0.411998
0.384488
0.565743
0.548212
0.540435
0.526612
0.506778
0.482915
0.456685
0.429253
0.401589
0.375584
0.535326
0.519577
0.51455
0.503699
0.486603
0.465165
0.441071
0.415476
0.389375
0.365113
0.500734
0.486989
0.485064
0.47758
0.463595
0.444913
0.423251
0.39975
0.375425
0.353122
0.46223
0.450688
0.452182
0.448428
0.4379
0.422286
0.403331
0.382167
0.359816
0.339663
0.420109
0.410941
0.416133
0.416438
0.409686
0.397425
0.381433
0.362831
0.342637
0.324797
0.374696
0.368042
0.377171
0.381825
0.379134
0.370485
0.357688
0.341856
0.323981
0.308591
0.326343
0.322313
0.33557
0.34482
0.346443
0.341637
0.332242
0.319364
0.303951
0.291115
0.275428
0.274098
0.291626
0.305675
0.311826
0.311061
0.305249
0.295487
0.282655
0.272445
0.222348
0.223761
0.245652
0.264654
0.275508
0.278949
0.276872
0.270367
0.260206
0.252653
0.167523
0.171685
0.197979
0.222035
0.237725
0.245503
0.247286
0.244156
0.236723
0.231808
0.111385
0.118268
0.148949
0.17811
0.198724
0.21093
0.21667
0.217015
0.212332
0.20996
0.0543806
0.06392
0.0989185
0.133178
0.158758
0.175445
0.185206
0.189126
0.187192
0.187136
-0.00303718
0.00905856
0.0482518
0.0875453
0.118089
0.139267
0.153073
0.160676
0.161503
0.163284
-0.0604099
-0.0458952
-0.00267991
0.041524
0.0769802
0.102623
0.120441
0.131844
0.135642
0.138427
-0.117279
-0.100522
-0.0535
-0.00457335
0.035698
0.0657455
0.0874848
0.102755
0.110093
0.11226
-0.173186
-0.154407
-0.103829
-0.0504366
-0.00549661
0.0288724
0.0543785
0.0733114
0.0851865
0.0863034
-0.227674
-0.207143
-0.153289
-0.0957628
-0.0463495
-0.00776437
0.0214007
0.0436317
0.0599016
0.066051
-0.280306
-0.258293
-0.20152
-0.140261
-0.0866103
-0.0439502
-0.0111803
0.0141592
0.0342633
0.0461785
-0.330899
-0.307315
-0.248231
-0.183654
-0.126034
-0.0794934
-0.0431975
-0.0148399
0.00840894
0.0247314
-0.378827
-0.353997
-0.293312
-0.225664
-0.164386
-0.114217
-0.0745459
-0.0432656
-0.0173067
0.00235002
-0.423704
-0.397311
-0.336934
-0.26599
-0.201455
-0.147948
-0.105113
-0.0710446
-0.0425996
-0.0200642
-0.465338
-0.437754
-0.377743
-0.304357
-0.237055
-0.18051
-0.134762
-0.0980815
-0.0673276
-0.0421542
-0.503495
-0.475092
-0.415106
-0.340814
-0.270977
-0.211728
-0.163353
-0.124269
-0.0914044
-0.0638327
-0.537924
-0.508999
-0.449492
-0.374748
-0.302999
-0.241446
-0.19076
-0.149503
-0.114745
-0.0850128
-0.568435
-0.539232
-0.480818
-0.405994
-0.332976
-0.269528
-0.216868
-0.173687
-0.137264
-0.105579
-0.594905
-0.56562
-0.508835
-0.434525
-0.360793
-0.295874
-0.241576
-0.196724
-0.158888
-0.125429
-0.617265
-0.588059
-0.533367
-0.460238
-0.386354
-0.320549
-0.264709
-0.218529
-0.179552
-0.144499
-0.635502
-0.606516
-0.554324
-0.483027
-0.409552
-0.343296
-0.286523
-0.238962
-0.199163
-0.162789
-0.64966
-0.621015
-0.571674
-0.502817
-0.430326
-0.364042
-0.30674
-0.258282
-0.217535
-0.180426
-0.659843
-0.631641
-0.585429
-0.519577
-0.448649
-0.382787
-0.32529
-0.276267
-0.234776
-0.197545
-0.666212
-0.638539
-0.595656
-0.533309
-0.464513
-0.39954
-0.34219
-0.292889
-0.250955
-0.213624
-0.668983
-0.64191
-0.602471
-0.544052
-0.47793
-0.414315
-0.35747
-0.30817
-0.265996
-0.228422
-0.668423
-0.642014
-0.606037
-0.55188
-0.488936
-0.427138
-0.371154
-0.322126
-0.27989
-0.242092
-0.664839
-0.639161
-0.606567
-0.556906
-0.49759
-0.43805
-0.383278
-0.334785
-0.292687
-0.254842
-0.658576
-0.633697
-0.604324
-0.559281
-0.50398
-0.44711
-0.393889
-0.346194
-0.304451
-0.266779
-0.650002
-0.625993
-0.599611
-0.559194
-0.508212
-0.454395
-0.403052
-0.356413
-0.315229
-0.277941
-0.6395
-0.616437
-0.592772
-0.556867
-0.510417
-0.45999
-0.410839
-0.365508
-0.32507
-0.28835
-0.627458
-0.605415
-0.584175
-0.552557
-0.510745
-0.463995
-0.417328
-0.373547
-0.334025
-0.298037
-0.614256
-0.593306
-0.574201
-0.546544
-0.509366
-0.466513
-0.422598
-0.380599
-0.342157
-0.307045
-0.600257
-0.58047
-0.563229
-0.539134
-0.506466
-0.467658
-0.426732
-0.386738
-0.349533
-0.315425
-0.5858
-0.567235
-0.55162
-0.530645
-0.502247
-0.467548
-0.429809
-0.392033
-0.356221
-0.323237
-0.571186
-0.553899
-0.539703
-0.521399
-0.496929
-0.466304
-0.431907
-0.396553
-0.362289
-0.330543
-0.55668
-0.540714
-0.527764
-0.511711
-0.490738
-0.464056
-0.4331
-0.400356
-0.367801
-0.337408
-0.542501
-0.527893
-0.516044
-0.501868
-0.483911
-0.460935
-0.433456
-0.403493
-0.372814
-0.528826
-0.515599
-0.504733
-0.492117
-0.476683
-0.457083
-0.433039
-0.406003
-0.51579
-0.50395
-0.493975
-0.482655
-0.469277
-0.452644
-0.431911
-0.503487
-0.493026
-0.483869
-0.473621
-0.461891
-0.491985
-0.48287
-0.474474
-0.465108
-0.481324
-0.473502
-0.465814
-0.471535
-0.464926
-0.462643
-0.457143
-0.454675
0.127347
0.130036
0.133365
0.139604
0.145843
0.154594
0.162638
0.172605
0.180342
0.188891
0.192143
0.194592
0.185993
0.175903
0.141841
0.127867
0.130601
0.133988
0.140371
0.146767
0.155807
0.164229
0.174785
0.18335
0.193098
0.198007
0.202734
0.197114
0.190886
0.163622
0.128363
0.13113
0.134554
0.141048
0.147565
0.15684
0.165587
0.176656
0.185978
0.196821
0.20333
0.210202
0.207679
0.204949
0.183778
0.128842
0.131644
0.135104
0.141713
0.148352
0.157866
0.166931
0.178506
0.188557
0.200446
0.20848
0.217362
0.217833
0.218421
0.202828
0.1293
0.132144
0.135636
0.142359
0.149116
0.158864
0.168237
0.180296
0.191048
0.203932
0.213438
0.224213
0.227596
0.231361
0.22102
0.129736
0.132609
0.136146
0.142978
0.149847
0.159817
0.169484
0.182001
0.193424
0.207243
0.218168
0.230724
0.236917
0.243729
0.238353
0.130151
0.13307
0.13663
0.143568
0.150543
0.160724
0.170669
0.183619
0.195683
0.210378
0.222662
0.236886
0.245758
0.255489
0.2548
0.130545
0.133503
0.137087
0.144129
0.151202
0.161584
0.171793
0.185148
0.197822
0.213332
0.226909
0.242691
0.254091
0.266603
0.270329
0.130917
0.13391
0.137518
0.144659
0.151825
0.162395
0.172854
0.186584
0.199835
0.216101
0.230896
0.24813
0.261895
0.277038
0.284899
0.131266
0.134292
0.137922
0.145158
0.15241
0.163155
0.173848
0.187925
0.201718
0.218678
0.234614
0.253192
0.269149
0.28676
0.298467
0.131591
0.13465
0.138299
0.145623
0.152955
0.163862
0.174773
0.189168
0.203466
0.22106
0.238051
0.257867
0.275835
0.295736
0.310988
0.131892
0.134982
0.138647
0.146055
0.15346
0.164514
0.175627
0.190309
0.205073
0.223241
0.241199
0.262144
0.281938
0.303938
0.322422
0.132169
0.135288
0.138967
0.146451
0.153923
0.16511
0.176409
0.191347
0.206536
0.225218
0.244048
0.266013
0.287443
0.311343
0.332731
0.13242
0.135567
0.139259
0.146811
0.154343
0.165649
0.177114
0.19228
0.20785
0.226987
0.246592
0.269464
0.292339
0.317926
0.341883
0.132647
0.135819
0.139523
0.147134
0.15472
0.166129
0.177743
0.193105
0.209011
0.228543
0.248824
0.272487
0.296612
0.323669
0.34985
0.132848
0.136043
0.139757
0.14742
0.155053
0.16655
0.178293
0.193822
0.210016
0.229883
0.250738
0.275074
0.300254
0.328555
0.35661
0.133024
0.136239
0.139963
0.147667
0.15534
0.166911
0.178762
0.194428
0.210862
0.231003
0.252328
0.277216
0.303254
0.332571
0.362145
0.133174
0.136405
0.140138
0.147876
0.155582
0.167211
0.179149
0.194924
0.211547
0.231902
0.25359
0.278908
0.305605
0.335706
0.366445
0.133297
0.136541
0.140283
0.148045
0.155779
0.16745
0.179456
0.19531
0.212071
0.232581
0.254531
0.280153
0.307308
0.33796
0.36951
0.133395
0.136648
0.140397
0.148175
0.155929
0.167628
0.17968
0.195588
0.212438
0.233041
0.255154
0.280959
0.30836
0.339309
0.371313
0.0775032
0.0755508
0.0721956
0.0678008
0.0626688
0.0570389
0.0511304
0.0451221
0.0391781
0.0334208
0.0279532
0.0228336
0.0181055
0.0137735
0.0098389
0.0780052
0.0760589
0.072719
0.068335
0.0632042
0.0575568
0.0516133
0.0455516
0.0395412
0.0337056
0.028153
0.0229427
0.0181228
0.0136972
0.00966907
0.078938
0.0770046
0.0736943
0.0693332
0.0642074
0.0585316
0.0525268
0.0463699
0.0402377
0.0342571
0.0285451
0.023164
0.0181703
0.0135679
0.00936449
0.0802352
0.078322
0.0750589
0.070737
0.0656264
0.0599193
0.0538367
0.0475525
0.0412538
0.0350711
0.0291342
0.0235104
0.0182683
0.0134124
0.00895636
0.0818351
0.0799512
0.0767572
0.0724961
0.0674181
0.0616849
0.0555182
0.0490853
0.0425858
0.0361531
0.0299341
0.0240022
0.0184426
0.0132605
0.00847777
0.0836814
0.0818376
0.0787396
0.0745656
0.0695449
0.0638
0.0575537
0.0509617
0.0442375
0.0375162
0.0309656
0.0246659
0.0187237
0.0131454
0.007964
0.0857224
0.0839317
0.0809606
0.0769043
0.0719726
0.0662394
0.0599296
0.0531797
0.0462181
0.0391788
0.0322543
0.0255326
0.0191464
0.0131037
0.00745221
0.087911
0.0861887
0.0833783
0.0794729
0.0746693
0.0689804
0.0626351
0.0557401
0.0485398
0.0411626
0.0338301
0.0266373
0.0197489
0.0131747
0.00698157
0.0902041
0.0885683
0.0859537
0.0822342
0.0776042
0.0720008
0.0656598
0.0586443
0.0512162
0.0434914
0.0357252
0.028018
0.0205724
0.0134005
0.00659349
0.0925633
0.0910345
0.0886497
0.0851521
0.0807468
0.075278
0.0689925
0.0618929
0.0542605
0.0461899
0.0379737
0.029715
0.0216608
0.0138258
0.00633184
0.094954
0.0935555
0.0914312
0.088192
0.0840671
0.0787883
0.0726202
0.0654843
0.0576849
0.0492822
0.0406106
0.0317705
0.0230607
0.0144981
0.00624311
0.0973461
0.096103
0.0942644
0.0913214
0.0875343
0.0825065
0.0765273
0.069414
0.0614989
0.0527912
0.0436708
0.0342279
0.0248207
0.0154675
0.00637657
0.0997137
0.098652
0.0971175
0.0945098
0.0911175
0.0864057
0.0806947
0.0736732
0.0657088
0.0567372
0.0471884
0.0371312
0.0269914
0.0167868
0.00678441
0.102035
0.10118
0.0999606
0.0977294
0.0947845
0.0904576
0.0850992
0.0782488
0.0703165
0.0611369
0.0511955
0.0405242
0.0296249
0.0185113
0.00752189
0.104293
0.103668
0.102767
0.100955
0.0985032
0.0946331
0.0897133
0.0831231
0.0753185
0.066002
0.0557211
0.0444498
0.0327743
0.0206985
0.00864752
0.106474
0.106097
0.105514
0.104163
0.102241
0.0989028
0.0945049
0.0882741
0.0807049
0.0713385
0.0607908
0.0489493
0.0364933
0.0234087
0.0102231
0.108567
0.108451
0.108181
0.107332
0.105967
0.103237
0.0994378
0.0936759
0.0864584
0.0771461
0.066425
0.0540605
0.0408353
0.0267037
0.0123138
0.110565
0.110717
0.110755
0.110443
0.10965
0.107605
0.104473
0.0992992
0.0925529
0.083418
0.072638
0.0598172
0.0458532
0.0306474
0.0149878
0.112462
0.112884
0.113222
0.113476
0.113267
0.111978
0.109569
0.105112
0.0989539
0.0901414
0.0794351
0.0662474
0.0515984
0.0353037
0.0183158
0.114255
0.114944
0.115575
0.116413
0.116792
0.116325
0.114685
0.111077
0.105618
0.0972974
0.0868111
0.0733735
0.0581198
0.0407357
0.0223702
0.115944
0.116889
0.11781
0.11924
0.120209
0.120614
0.119784
0.117154
0.112498
0.104861
0.0947481
0.0812134
0.0654622
0.047003
0.0272233
0.117527
0.118717
0.119921
0.121943
0.1235
0.124815
0.124827
0.123298
0.119539
0.112801
0.103215
0.0897815
0.0736638
0.0541637
0.0329474
0.119006
0.120427
0.12191
0.124512
0.126656
0.128899
0.129784
0.12946
0.126689
0.121072
0.112166
0.0990881
0.0827541
0.0622807
0.0396193
0.120383
0.122018
0.123774
0.126939
0.129665
0.132839
0.134625
0.135585
0.133893
0.129619
0.121549
0.109134
0.0927459
0.0714315
0.0473357
0.12166
0.123493
0.125516
0.12922
0.13252
0.136615
0.139325
0.141622
0.141101
0.138373
0.131301
0.119904
0.10362
0.0817008
0.0562219
0.122841
0.124856
0.127137
0.131353
0.135218
0.140209
0.143861
0.147522
0.148265
0.147256
0.141368
0.131369
0.115317
0.0931327
0.0663433
0.123929
0.126111
0.128641
0.133339
0.137756
0.143612
0.148218
0.153244
0.155344
0.156184
0.1517
0.143483
0.127771
0.105677
0.0774491
0.12493
0.127262
0.130031
0.13518
0.140133
0.146816
0.152381
0.158751
0.162294
0.165056
0.162235
0.156154
0.141027
0.119339
0.0887454
0.125845
0.128313
0.131306
0.13687
0.142332
0.149791
0.1563
0.163967
0.169006
0.173716
0.172831
0.169246
0.155389
0.134939
0.0999564
0.126682
0.12927
0.132458
0.138398
0.144311
0.152487
0.159869
0.168786
0.175311
0.182043
0.183347
0.182822
0.171444
0.155167
0.115576
0.00730738
0.00598742
0.0046758
0.00337667
0.00208758
0.000806841
-0.000464961
-0.0017261
-0.00297487
-0.00420988
-0.00542997
-0.00663401
-0.00782087
-0.00898942
-0.0101385
-0.0112671
-0.0123742
-0.0134587
-0.0145195
-0.0155554
0.00707852
0.00574244
0.00442244
0.00311446
0.00181297
0.000516804
-0.000772228
-0.0020518
-0.00332016
-0.00457605
-0.00581833
-0.00704582
-0.00825723
-0.0094513
-0.0106268
-0.0117824
-0.0129172
-0.0140298
-0.0151193
-0.0161846
0.00665812
0.0052783
0.00392766
0.00258762
0.00124838
-8.94968e-05
-0.00142175
-0.00274496
-0.00405732
-0.00535777
-0.00664526
-0.00791846
-0.00917597
-0.0104164
-0.0116383
-0.0128405
-0.0140217
-0.0151806
-0.0163159
-0.0174247
0.0060786
0.00462853
0.00322788
0.0018374
0.000440841
-0.00095896
-0.00235435
-0.00374044
-0.0051155
-0.00647887
-0.00782964
-0.00916644
-0.0104877
-0.0117918
-0.0130774
-0.014343
-0.0155873
-0.016809
-0.018007
-0.0191813
0.0053757
0.00382951
0.00235931
0.000899585
-0.000574445
-0.00205711
-0.00353646
-0.00500578
-0.00646349
-0.00790949
-0.00934313
-0.010763
-0.0121672
-0.0135543
-0.0149226
-0.0162708
-0.0175975
-0.0189015
-0.0201815
-0.0214368
0.00458563
0.00291692
0.0013564
-0.000192351
-0.00176461
-0.00335146
-0.0049358
-0.00650881
-0.00806915
-0.00961747
-0.0111534
-0.0126755
-0.0141818
-0.0156704
-0.01714
-0.0185889
-0.0200159
-0.0214197
-0.0227989
-0.0241529
0.00374549
0.00192648
0.000252885
-0.00140623
-0.00309861
-0.00481189
-0.00652313
-0.00822116
-0.009905
-0.0115762
-0.0132347
-0.0148791
-0.0165071
-0.0181168
-0.0197068
-0.0212755
-0.0228216
-0.0243438
-0.0258408
-0.027312
0.00289372
0.000894513
-0.000917801
-0.00271091
-0.00454701
-0.00641035
-0.00827172
-0.0101174
-0.0119469
-0.0137628
-0.0155654
-0.0173531
-0.0191236
-0.020875
-0.0226055
-0.024314
-0.0259989
-0.027659
-0.0292931
-0.0309008
0.00207055
-0.000141475
-0.002122
-0.00407577
-0.00608128
-0.00812005
-0.0101564
-0.0121742
-0.0141732
-0.0161571
-0.0181268
-0.0200804
-0.0220155
-0.0239301
-0.0258227
-0.0276919
-0.0295364
-0.031355
-0.0331463
-0.0349108
0.00131842
-0.00114246
-0.00332548
-0.00547028
-0.00767345
-0.00991504
-0.0121534
-0.0143695
-0.0165639
-0.0187412
-0.0209026
-0.0230463
-0.0251697
-0.0272708
-0.0293481
-0.0314004
-0.0334265
-0.0354251
-0.0373949
-0.0393373
0.000682224
-0.00206757
-0.0044932
-0.00686384
-0.00929579
-0.0117699
-0.0142394
-0.0166828
-0.0191008
-0.021499
-0.0238789
-0.0262387
-0.0285758
-0.0308882
-0.0331745
-0.0354338
-0.0376647
-0.0398662
-0.0420366
-0.0441791
0.000209616
-0.00287383
-0.00558912
-0.00822557
-0.0109206
-0.0136594
-0.016392
-0.0190943
-0.0217671
-0.0244162
-0.0270436
-0.0296476
-0.0322257
-0.0347761
-0.0372976
-0.0397891
-0.0422497
-0.0446781
-0.0470722
-0.0494382
-4.87474e-05
-0.00351585
-0.00657594
-0.00952408
-0.0125201
-0.0155587
-0.0185892
-0.0215855
-0.0245471
-0.02748
-0.0303864
-0.0332651
-0.0361137
-0.0389308
-0.0417153
-0.0444664
-0.047183
-0.0498635
-0.052504
-0.055118
-3.89021e-05
-0.00394562
-0.00741494
-0.0107273
-0.014066
-0.0174425
-0.0208096
-0.0241387
-0.0274269
-0.0306794
-0.0338989
-0.0370849
-0.0402357
-0.0433501
-0.0464277
-0.0494682
-0.0524708
-0.0554334
-0.0583416
-0.0612271
0.000296724
-0.0041121
-0.00806564
-0.0118022
-0.0155295
-0.0192856
-0.023032
-0.0267373
-0.0303939
-0.0340054
-0.037575
-0.0411033
-0.0445894
-0.0480325
-0.0514318
-0.054787
-0.0580975
-0.0613624
-0.0645944
-0.0677882
0.0010196
-0.00396091
-0.0084854
-0.0127142
-0.0168806
-0.0210622
-0.0252358
-0.0293659
-0.0334377
-0.0374518
-0.0414126
-0.0453223
-0.0491814
-0.0529891
-0.0567448
-0.0604482
-0.0641003
-0.0677044
-0.0712825
-0.0748159
0.00219526
-0.00343399
-0.00862888
-0.0134265
-0.0180871
-0.0227449
-0.0273996
-0.0320095
-0.0365486
-0.0410134
-0.0454103
-0.0497448
-0.0540187
-0.0582315
-0.062383
-0.0664734
-0.0705038
-0.0744754
-0.0784127
-0.0823039
0.00389324
-0.00246954
-0.00844762
-0.0138992
-0.0191143
-0.0243049
-0.0295018
-0.0346533
-0.0397173
-0.0446854
-0.0495679
-0.0543742
-0.0591076
-0.0637676
-0.0683536
-0.0728656
-0.0773046
-0.08167
-0.0859989
-0.0902811
0.00618669
-0.00100209
-0.00788964
-0.0140887
-0.0199239
-0.0257108
-0.0315197
-0.0372824
-0.0429348
-0.048464
-0.053886
-0.0592158
-0.064458
-0.0696114
-0.0746753
-0.0796492
-0.0845319
-0.0893182
-0.0940717
-0.0987796
0.00915137
0.00103669
-0.00689919
-0.0139462
-0.0204727
-0.0269284
-0.0334297
-0.039882
-0.0461928
-0.0523462
-0.0583675
-0.0642777
-0.0700818
-0.0757781
-0.0813681
-0.0868546
-0.0922372
-0.0974699
-0.102678
-0.107837
0.0128629
0.00371537
-0.00541719
-0.0134164
-0.0207111
-0.0279201
-0.0352074
-0.0424368
-0.0494825
-0.0563303
-0.0630184
-0.0695724
-0.0759944
-0.0822793
-0.0884252
-0.0944351
-0.100314
-0.106141
-0.111876
-0.117511
0.0173915
0.00709638
-0.00338336
-0.0124361
-0.0205819
-0.0286449
-0.0368264
-0.0449294
-0.0527933
-0.0604148
-0.0678483
-0.0751213
-0.0822307
-0.0891688
-0.0959344
-0.102535
-0.108984
-0.115395
-0.121685
-0.127833
0.0227947
0.0112266
-0.000740078
-0.0109344
-0.0200215
-0.0290595
-0.0382584
-0.0473372
-0.0561094
-0.064595
-0.072865
-0.0809433
-0.0888196
-0.096486
-0.103943
-0.111199
-0.118254
-0.12525
-0.132119
-0.138819
0.0291174
0.0161334
0.00256617
-0.00883453
-0.0189651
-0.0291229
-0.0394724
-0.0496317
-0.0594096
-0.068863
-0.0780727
-0.0870512
-0.0957808
-0.104254
-0.11247
-0.120426
-0.128111
-0.135745
-0.143244
-0.150535
0.0363933
0.0218336
0.00659999
-0.00604813
-0.01735
-0.0287984
-0.0404339
-0.0517771
-0.0626693
-0.0732099
-0.0834734
-0.0934521
-0.103124
-0.112493
-0.121571
-0.130336
-0.138755
-0.14708
-0.155217
-0.163095
0.0446274
0.0283588
0.0114694
-0.00246099
-0.0151104
-0.028045
-0.0410959
-0.0537275
-0.0658603
-0.0776265
-0.0890722
-0.100163
-0.110867
-0.121168
-0.131064
-0.140602
-0.150149
-0.159346
-0.168129
-0.176581
0.0536897
0.0357237
0.0173237
0.00207088
-0.0121688
-0.0268045
-0.0413922
-0.0554308
-0.0689561
-0.0821023
-0.094871
-0.107214
-0.11911
-0.130552
-0.141522
-0.152009
-0.162385
-0.172389
-0.181918
-0.191034
0.0630658
0.0437018
0.0242296
0.00767602
-0.00842565
-0.0249559
-0.041195
-0.0567978
-0.0719043
-0.086603
-0.100851
-0.1146
-0.127838
-0.140553
-0.152733
-0.164197
-0.175526
-0.186412
-0.196739
-0.206573
0.0717532
0.0514581
0.0318265
0.0141279
-0.00399237
-0.0224594
-0.0404326
-0.0577909
-0.0746822
-0.0911095
-0.107007
-0.122337
-0.137072
-0.151144
-0.164451
-0.177444
-0.189868
-0.201594
-0.212693
-0.223256
0.0792828
0.058627
0.0398203
0.0210193
0.00110161
-0.0190053
-0.0386671
-0.0578767
-0.0766606
-0.0949337
-0.112611
-0.129653
-0.146036
-0.161748
-0.176744
-0.191515
-0.205242
-0.217944
-0.22988
-0.241184
-0.0165666
-0.0175523
-0.0185112
-0.0194427
-0.0203458
-0.0212202
-0.0220652
-0.0228803
-0.023665
-0.0172248
-0.0182388
-0.0192258
-0.020185
-0.0211155
-0.0220166
-0.0228878
-0.0237282
-0.0245375
-0.018509
-0.0195676
-0.0205989
-0.0216016
-0.022575
-0.0235185
-0.0244313
-0.0253129
-0.0261628
-0.0203294
-0.0214505
-0.0225439
-0.0236085
-0.0246434
-0.0256478
-0.0266211
-0.0275628
-0.0284724
-0.0226657
-0.0238671
-0.0250399
-0.0261834
-0.0272969
-0.0283797
-0.029431
-0.0304504
-0.0314372
-0.0254801
-0.0267793
-0.0280495
-0.0292901
-0.0305003
-0.0316794
-0.0328267
-0.0339418
-0.0350242
-0.028756
-0.0301716
-0.0315577
-0.0329138
-0.0342391
-0.035533
-0.0367949
-0.0380245
-0.0392214
-0.0324809
-0.0340319
-0.0355531
-0.0370437
-0.0385032
-0.0399311
-0.041327
-0.0426906
-0.0440217
-0.036647
-0.0383536
-0.0400297
-0.0416749
-0.0432887
-0.0448708
-0.046421
-0.0479391
-0.049425
-0.0412509
-0.0431342
-0.0449863
-0.046807
-0.0485961
-0.0503536
-0.0520794
-0.0537735
-0.0554362
-0.0462923
-0.0483745
-0.0504248
-0.052443
-0.0544296
-0.0563846
-0.0583083
-0.0602011
-0.0620633
-0.0517747
-0.0540791
-0.0563506
-0.0585894
-0.0607963
-0.0629719
-0.0651168
-0.0672317
-0.0577035
-0.0602556
-0.0627727
-0.0652559
-0.0677069
-0.070127
-0.0725171
-0.0748784
-0.0640865
-0.0669118
-0.0697
-0.0724527
-0.0751724
-0.0778616
-0.0805218
-0.0831545
-0.0709448
-0.0740646
-0.0771476
-0.0801948
-0.0832087
-0.0861919
-0.089147
-0.0920763
-0.0783004
-0.0817395
-0.0851391
-0.0885035
-0.0918351
-0.0951365
-0.0984105
-0.101661
-0.0861427
-0.0899319
-0.0936782
-0.0973872
-0.101062
-0.104707
-0.108325
-0.111921
-0.0945061
-0.0986744
-0.102794
-0.106872
-0.110914
-0.114925
-0.11891
-0.122875
-0.103422
-0.107997
-0.112513
-0.116984
-0.121415
-0.125814
-0.130186
-0.134539
-0.11292
-0.117925
-0.122862
-0.127746
-0.132587
-0.137392
-0.142169
-0.146926
-0.123049
-0.1285
-0.133878
-0.139195
-0.144461
-0.149686
-0.15488
-0.160053
-0.133854
-0.139771
-0.145603
-0.151365
-0.157067
-0.16272
-0.168336
-0.17393
-0.145357
-0.151764
-0.158069
-0.164286
-0.17043
-0.176512
-0.182549
-0.188559
-0.157619
-0.164538
-0.171327
-0.178007
-0.184591
-0.191098
-0.197544
-0.203951
-0.170731
-0.178169
-0.185444
-0.192579
-0.199592
-0.206507
-0.213342
-0.220124
-0.184768
-0.192725
-0.200476
-0.208046
-0.215461
-0.222746
-0.229929
-0.237042
-0.199814
-0.208297
-0.216513
-0.224489
-0.232257
-0.23985
-0.247302
-0.254653
-0.215985
-0.225013
-0.233689
-0.242046
-0.25012
-0.257951
-0.265578
-0.273046
-0.233326
-0.242923
-0.252072
-0.260807
-0.269167
-0.277194
-0.284933
-0.292431
-0.251885
-0.262001
-0.27156
-0.280597
-0.289152
-0.297272
-0.305005
-0.312403
)
;

boundaryField
{
    inlet
    {
        type            zeroGradient;
    }
    outlet
    {
        type            fixedValue;
        value           nonuniform 0();
    }
    cylinder
    {
        type            zeroGradient;
    }
    top
    {
        type            symmetryPlane;
    }
    bottom
    {
        type            symmetryPlane;
    }
    defaultFaces
    {
        type            empty;
    }
    procBoundary0to1
    {
        type            processor;
        value           nonuniform List<scalar> 
50
(
-0.343896
-0.343896
-0.377374
-0.377374
-0.407915
-0.447771
-0.407915
-0.430136
-0.447771
-0.454683
-0.454683
-0.45717
-0.45717
-0.457893
-0.457893
-0.450702
-0.450153
-0.450153
-0.447658
-0.0244188
-0.0253151
-0.0269804
-0.0293492
-0.0323911
-0.0360735
-0.0403853
-0.04532
-0.0508789
-0.0570676
-0.0638956
-0.0693174
-0.0693174
-0.077212
-0.0857615
-0.0949822
-0.10489
-0.115499
-0.126824
-0.138879
-0.151673
-0.165215
-0.179514
-0.194556
-0.210335
-0.226869
-0.244109
-0.26194
-0.280403
-0.299737
-0.319518
)
;
    }
    procBoundary0to2
    {
        type            processor;
        value           nonuniform List<scalar> 
26
(
0.64705
0.624705
0.609415
0.589964
0.589964
0.562502
0.531915
0.499784
0.467305
0.435339
0.404464
0.133467
0.136725
0.140479
0.148263
0.156029
0.167739
0.179812
0.195739
0.21262
0.233246
0.255372
0.281241
0.308694
0.339676
0.37175
)
;
    }
}


// ************************************************************************* //
