/*--------------------------------*- C++ -*----------------------------------*\
  =========                 |
  \\      /  F ield         | OpenFOAM: The Open Source CFD Toolbox
   \\    /   O peration     | Website:  https://openfoam.org
    \\  /    A nd           | Version:  7
     \\/     M anipulation  |
\*---------------------------------------------------------------------------*/
FoamFile
{
    version     2.0;
    format      ascii;
    class       volScalarField;
    location    "325";
    object      p;
}
// * * * * * * * * * * * * * * * * * * * * * * * * * * * * * * * * * * * * * //

dimensions      [0 2 -2 0 0 0 0];

internalField   nonuniform List<scalar> 
2125
(
-0.479076
-0.485374
-0.479859
-0.492155
-0.485677
-0.499502
-0.491996
-0.485331
-0.507469
-0.498867
-0.491313
-0.482681
-0.516077
-0.506312
-0.497846
-0.487955
-0.475704
-0.459565
-0.525312
-0.514329
-0.50491
-0.49363
-0.479364
-0.460601
-0.436272
-0.535125
-0.522883
-0.512454
-0.499622
-0.483077
-0.46141
-0.434191
-0.402754
-0.545431
-0.531904
-0.520386
-0.505808
-0.486676
-0.461848
-0.431678
-0.398056
-0.362889
-0.328943
-0.556107
-0.541289
-0.528582
-0.512024
-0.489968
-0.461765
-0.428645
-0.392944
-0.356728
-0.322203
-0.566993
-0.550895
-0.536876
-0.518063
-0.492743
-0.461017
-0.424998
-0.387347
-0.350163
-0.315081
-0.57789
-0.560539
-0.545064
-0.523682
-0.494784
-0.459459
-0.420645
-0.381187
-0.343123
-0.307509
-0.588561
-0.569998
-0.552901
-0.52861
-0.495879
-0.456955
-0.415488
-0.374385
-0.335531
-0.299423
-0.598737
-0.579014
-0.560103
-0.532562
-0.495819
-0.453371
-0.409433
-0.366856
-0.327311
-0.290761
-0.608114
-0.587295
-0.566358
-0.535253
-0.494409
-0.448581
-0.402384
-0.358517
-0.318388
-0.281465
-0.616366
-0.594523
-0.571332
-0.536403
-0.491466
-0.442465
-0.39425
-0.349285
-0.308689
-0.271484
-0.623151
-0.600361
-0.574685
-0.535749
-0.486823
-0.434912
-0.38494
-0.339083
-0.29815
-0.260777
-0.628115
-0.60446
-0.576085
-0.533051
-0.480333
-0.425821
-0.374374
-0.327839
-0.286715
-0.249313
-0.63091
-0.606471
-0.575216
-0.528098
-0.471865
-0.415101
-0.362474
-0.315487
-0.274338
-0.237072
-0.631198
-0.606058
-0.571794
-0.520706
-0.46131
-0.402672
-0.349172
-0.301964
-0.260971
-0.224029
-0.628664
-0.602902
-0.565574
-0.51073
-0.448584
-0.388475
-0.334417
-0.287219
-0.246556
-0.210095
-0.623022
-0.596721
-0.556353
-0.498057
-0.433623
-0.372465
-0.318174
-0.271225
-0.231039
-0.195071
-0.614024
-0.587271
-0.543974
-0.482613
-0.416389
-0.354613
-0.300417
-0.253972
-0.214435
-0.178798
-0.601471
-0.574364
-0.528325
-0.464358
-0.396867
-0.334903
-0.281117
-0.235424
-0.196833
-0.161523
-0.585212
-0.557864
-0.50934
-0.443285
-0.375066
-0.313334
-0.260268
-0.215576
-0.178163
-0.143744
-0.565149
-0.537688
-0.487005
-0.419424
-0.351016
-0.289925
-0.237949
-0.194717
-0.158259
-0.125314
-0.541242
-0.513811
-0.461345
-0.392845
-0.324776
-0.26475
-0.214312
-0.17261
-0.13738
-0.106134
-0.513506
-0.486264
-0.432443
-0.363654
-0.296432
-0.237952
-0.189276
-0.149343
-0.115607
-0.0862117
-0.482008
-0.455144
-0.400467
-0.331933
-0.266089
-0.209544
-0.162939
-0.125005
-0.093003
-0.0656153
-0.44687
-0.420632
-0.3657
-0.297646
-0.233846
-0.179637
-0.1354
-0.0996906
-0.069637
-0.0444449
-0.408273
-0.382967
-0.32825
-0.260964
-0.199822
-0.14836
-0.106775
-0.0735005
-0.0455954
-0.0228132
-0.366449
-0.342387
-0.2874
-0.222777
-0.164293
-0.115864
-0.0771904
-0.0465399
-0.0209646
-0.000807469
-0.321618
-0.299038
-0.244205
-0.182778
-0.127449
-0.0823164
-0.0467842
-0.0189174
0.00416773
0.0214827
-0.274014
-0.252756
-0.199583
-0.14123
-0.0894637
-0.0478931
-0.0156942
0.00926598
0.0296572
0.0437106
-0.224047
-0.204322
-0.153458
-0.0984313
-0.0505391
-0.0127644
0.0159629
0.0379274
0.0552163
0.0650166
-0.172174
-0.154054
-0.105995
-0.0546631
-0.0109035
0.0228949
0.0480801
0.0669651
0.080497
0.0847847
-0.118688
-0.102408
-0.0574922
-0.010206
0.0292026
0.0588962
0.0804958
0.096136
0.105397
0.104854
-0.0640092
-0.0497946
-0.00830034
0.0346494
0.069532
0.0950282
0.112951
0.125024
0.129907
0.13038
-0.00857856
0.00338345
0.0412157
0.0796037
0.109834
0.131062
0.145174
0.153497
0.154958
0.155929
0.0471593
0.0567178
0.0906878
0.124352
0.149851
0.166767
0.176993
0.181636
0.1802
0.18008
0.102757
0.109796
0.139749
0.168588
0.189322
0.201913
0.208234
0.209317
0.205182
0.203186
0.157765
0.162203
0.188036
0.212007
0.227989
0.236279
0.23873
0.236362
0.229548
0.225249
0.211742
0.213532
0.235194
0.254308
0.265595
0.269649
0.268304
0.26259
0.253109
0.246312
0.26425
0.26338
0.280874
0.295197
0.301891
0.301813
0.296777
0.287826
0.275713
0.266344
0.314867
0.311359
0.32474
0.334391
0.336636
0.332566
0.323973
0.31191
0.297233
0.285287
0.363185
0.357093
0.366471
0.371618
0.3696
0.361713
0.349723
0.334696
0.317554
0.303074
0.408813
0.400228
0.405761
0.406618
0.400562
0.389065
0.373866
0.356045
0.336564
0.319631
0.451385
0.440427
0.44232
0.439148
0.429316
0.414446
0.396253
0.375829
0.354157
0.334885
0.490558
0.47738
0.475883
0.468982
0.455668
0.437692
0.416744
0.393929
0.370235
0.348768
0.526018
0.5108
0.506204
0.495911
0.479441
0.458652
0.435209
0.410233
0.384704
0.361214
0.557479
0.540429
0.53306
0.519748
0.500476
0.47719
0.451533
0.424644
0.397482
0.372168
0.584688
0.566036
0.556255
0.540327
0.51863
0.493184
0.465614
0.437071
0.408494
0.381578
0.607425
0.587423
0.57562
0.557502
0.53378
0.506529
0.47736
0.447438
0.417675
0.3894
0.625506
0.604423
0.59101
0.571153
0.545823
0.517138
0.486698
0.45568
0.424971
0.3956
0.638783
0.616903
0.602311
0.581183
0.554676
0.524941
0.493568
0.461745
0.43034
0.400158
0.647147
0.624763
0.609439
0.587518
0.560277
0.529884
0.497925
0.465596
0.433756
0.403069
0.590114
0.562587
0.531934
0.49974
0.467206
0.435195
0.404288
-0.234459
-0.244597
-0.254129
-0.263082
-0.271488
-0.279382
-0.286798
-0.293774
-0.215544
-0.224953
-0.233838
-0.242223
-0.250132
-0.25759
-0.264621
-0.271248
-0.197757
-0.20642
-0.214637
-0.222431
-0.229823
-0.236834
-0.243484
-0.249795
-0.181104
-0.18908
-0.196688
-0.203944
-0.210865
-0.21747
-0.223776
-0.229807
-0.165592
-0.172928
-0.179958
-0.186694
-0.193149
-0.199337
-0.205274
-0.210974
-0.151112
-0.157846
-0.164321
-0.170545
-0.176529
-0.182282
-0.187813
-0.193131
-0.137582
-0.14375
-0.149694
-0.155422
-0.160942
-0.16626
-0.171382
-0.176315
-0.124953
-0.130587
-0.136028
-0.141284
-0.14636
-0.151261
-0.155993
-0.160562
-0.113182
-0.118317
-0.123286
-0.128096
-0.132751
-0.137257
-0.141616
-0.145835
-0.102205
-0.10688
-0.111411
-0.115805
-0.120066
-0.124197
-0.128201
-0.13208
-0.0919845
-0.0962326
-0.100359
-0.104367
-0.10826
-0.112039
-0.115707
-0.119267
-0.0824757
-0.0863335
-0.0900874
-0.0937393
-0.0972907
-0.100744
-0.1041
-0.107362
-0.0736261
-0.0771381
-0.0805544
-0.0838806
-0.0871192
-0.0902716
-0.0933395
-0.0963245
-0.0654287
-0.0686185
-0.0717249
-0.0747527
-0.077704
-0.08058
-0.0833817
-0.0861105
-0.0578505
-0.0607465
-0.0635706
-0.0663257
-0.0690136
-0.0716354
-0.0741921
-0.0766845
-0.0508504
-0.053481
-0.0560495
-0.0585575
-0.0610064
-0.0633969
-0.0657297
-0.0680056
-0.0702255
-0.0444003
-0.0467922
-0.04913
-0.0514147
-0.053647
-0.0558275
-0.0579566
-0.0600349
-0.062063
-0.0384745
-0.0406525
-0.042783
-0.0448664
-0.0469032
-0.0488936
-0.0508379
-0.0527364
-0.0545898
-0.0330489
-0.0350357
-0.0369803
-0.0388829
-0.0407437
-0.0425627
-0.04434
-0.0460758
-0.0477705
-0.0281017
-0.0299178
-0.0316963
-0.0334372
-0.0351402
-0.0368052
-0.0384323
-0.0400214
-0.0415727
-0.0236131
-0.0252776
-0.0269084
-0.0285052
-0.0300674
-0.0315948
-0.0330872
-0.0345446
-0.0359671
-0.0195681
-0.0210992
-0.0225989
-0.0240673
-0.0255042
-0.0269089
-0.0282813
-0.029621
-0.0309282
-0.0159434
-0.0173587
-0.0187451
-0.020102
-0.021429
-0.0227261
-0.0239928
-0.0252289
-0.0264341
-0.0127443
-0.0140571
-0.0153431
-0.0166015
-0.0178321
-0.0190345
-0.0202083
-0.0213531
-0.0224687
-0.00995927
-0.0111837
-0.0123832
-0.0135569
-0.0147043
-0.015825
-0.0169185
-0.0179844
-0.0190224
-0.0075873
-0.00873732
-0.00986366
-0.0109656
-0.0120426
-0.013094
-0.0141195
-0.0151185
-0.0160908
-0.00563373
-0.00672234
-0.00778834
-0.00883105
-0.00984986
-0.0108442
-0.0118136
-0.0127577
-0.0136759
-0.00411958
-0.00515999
-0.00617862
-0.00717475
-0.00814781
-0.00909726
-0.0100226
-0.0109234
-0.0117992
-0.00305443
-0.00405989
-0.00504431
-0.00600709
-0.00694765
-0.00786546
-0.00876
-0.00963085
-0.0104776
-0.00251335
-0.00349542
-0.00445672
-0.00539672
-0.00631496
-0.00721106
-0.00808464
-0.00893533
-0.00976282
0.0972387
0.0769602
0.057973
0.039151
0.0193507
-0.000660787
-0.0202751
-0.0394611
-0.0582392
-0.0765299
-0.0942503
-0.111359
-0.127835
-0.143661
-0.158792
-0.173661
-0.187467
-0.200259
-0.212297
-0.223694
0.088869
0.0688574
0.0490298
0.0312869
0.0133072
-0.0050229
-0.0229214
-0.0402359
-0.057095
-0.0735047
-0.0894006
-0.104741
-0.11949
-0.133578
-0.146941
-0.159996
-0.172419
-0.184087
-0.195116
-0.205598
0.0793442
0.0603139
0.0407452
0.0241766
0.00822147
-0.00815467
-0.0243049
-0.0398575
-0.0549213
-0.0695801
-0.0837944
-0.0975148
-0.110726
-0.123414
-0.135549
-0.146942
-0.158141
-0.168871
-0.179018
-0.188631
0.0693104
0.051723
0.0332943
0.0180298
0.00391171
-0.0105752
-0.0250606
-0.0390313
-0.0524922
-0.0655674
-0.0782612
-0.0905259
-0.102334
-0.113665
-0.12449
-0.134793
-0.144936
-0.154697
-0.163956
-0.172741
0.0597436
0.043846
0.026969
0.0130361
0.000492819
-0.0122939
-0.0252213
-0.0377555
-0.0497923
-0.0614504
-0.0727751
-0.0837334
-0.0942952
-0.104448
-0.11419
-0.123523
-0.132706
-0.141531
-0.149928
-0.157934
0.0511015
0.0368773
0.0216844
0.00905843
-0.0021345
-0.0134289
-0.0249178
-0.0361304
-0.0468914
-0.0572862
-0.0673846
-0.0771756
-0.0866292
-0.0957295
-0.104477
-0.112907
-0.121193
-0.129182
-0.136809
-0.144105
0.0434924
0.0308081
0.017305
0.0059588
-0.00404655
-0.0140379
-0.0242184
-0.0342151
-0.0438267
-0.0530982
-0.0621047
-0.0708571
-0.0793375
-0.0875418
-0.0954739
-0.103117
-0.110386
-0.117536
-0.124488
-0.13117
0.0369097
0.0256159
0.013734
0.00362536
-0.00531474
-0.0141697
-0.0231785
-0.0320667
-0.0406405
-0.0489114
-0.0569452
-0.0647633
-0.0723537
-0.0797035
-0.0868055
-0.0936529
-0.100241
-0.106714
-0.113022
-0.119105
0.0313192
0.0212818
0.0109052
0.00196456
-0.00601217
-0.0138737
-0.0218452
-0.029733
-0.0373706
-0.0447481
-0.0519153
-0.0588971
-0.0656876
-0.0722763
-0.0786583
-0.0848345
-0.090803
-0.0966545
-0.102354
-0.107865
0.0266697
0.0177688
0.00875575
0.000890446
-0.00621539
-0.0132046
-0.0202631
-0.0272567
-0.0340531
-0.0406323
-0.047029
-0.0532663
-0.0593434
-0.0652525
-0.0709888
-0.0765529
-0.0819478
-0.0872392
-0.092389
-0.097378
0.0228931
0.0150171
0.00721648
0.000321923
-0.00599945
-0.0122195
-0.0184759
-0.024676
-0.0307201
-0.0365868
-0.0422984
-0.0478735
-0.0533138
-0.0586139
-0.0637695
-0.0687807
-0.0736511
-0.0784419
-0.0830973
-0.0876089
0.0199102
0.012954
0.00621501
0.000183549
-0.00543413
-0.0109735
-0.0165257
-0.0220248
-0.0273997
-0.0326318
-0.0377347
-0.042722
-0.0475962
-0.0523535
-0.0569913
-0.0615095
-0.0659174
-0.0702202
-0.0744242
-0.078509
0.0176351
0.0114997
0.00567984
0.00040681
-0.00458245
-0.00951841
-0.0144517
-0.0193335
-0.0241152
-0.028783
-0.033345
-0.0378103
-0.0421817
-0.0464573
-0.0506359
-0.0547153
-0.0586865
-0.0625286
-0.0663066
-0.0700132
0.015981
0.0105741
0.00554269
0.000930044
-0.00350067
-0.00790129
-0.0122903
-0.0166296
-0.0208871
-0.0250541
-0.029135
-0.0331351
-0.0370557
-0.0408946
-0.0446493
-0.0483164
-0.0518931
-0.0553742
-0.0587955
-0.0621523
0.0148631
0.0100992
0.00573942
0.00169749
-0.00223917
-0.00616526
-0.0100757
-0.0139389
-0.0177346
-0.0214582
-0.0251122
-0.028699
-0.0322187
-0.0356695
-0.0390496
-0.042357
-0.0455902
-0.0487455
-0.0518438
-0.0548816
0.0142004
0.0100014
0.00621027
0.00265849
-0.000843285
-0.00434959
-0.00783955
-0.0112857
-0.0146757
-0.0180082
-0.0212847
-0.0245058
-0.0276707
-0.0307778
-0.0338256
-0.0368122
-0.0397364
-0.0425961
-0.0454038
-0.048157
0.0139169
0.0102121
0.00690005
0.00376697
0.000646122
-0.00248992
-0.00561088
-0.0086923
-0.011727
-0.0147156
-0.0176593
-0.0205575
-0.0234087
-0.0262114
-0.028964
-0.031665
-0.0343133
-0.0369074
-0.0394551
-0.041954
0.0139425
0.0106682
0.00775806
0.00498102
0.00219221
-0.000618389
-0.00341623
-0.00617933
-0.00890353
-0.0115907
-0.0142417
-0.0168554
-0.0194299
-0.0219634
-0.0244546
-0.0269021
-0.0293047
-0.0316613
-0.0339769
-0.0362489
0.0142128
0.0113119
0.00873802
0.00626257
0.00376178
0.00123603
-0.0012796
-0.00376547
-0.00621904
-0.00864272
-0.0110371
-0.0134008
-0.0157316
-0.0180279
-0.0202883
-0.0225113
-0.0246958
-0.0268408
-0.02895
-0.03102
0.0146697
0.0120913
0.00979789
0.00757704
0.00532487
0.00304726
0.000777251
-0.0014678
-0.00368617
-0.00588021
-0.00805036
-0.010195
-0.0123121
-0.0143998
-0.0164566
-0.0184814
-0.0204729
-0.0224304
-0.0243571
-0.026248
0.0152608
0.0129596
0.0108997
0.00889305
0.00685436
0.00479173
0.00273458
0.000697934
-0.00131676
-0.00331152
-0.00528655
-0.00724024
-0.00917048
-0.0110754
-0.0129535
-0.0148031
-0.016623
-0.0184127
-0.020181
-0.0219146
0.0159395
0.0138752
0.0120091
0.0101821
0.00832566
0.0064481
0.0045744
0.00271727
0.000878091
-0.000944646
-0.00275098
-0.00453942
-0.00630807
-0.00805532
-0.00977988
-0.0114808
-0.0131566
-0.0148059
-0.0164177
-0.0180063
0.0166643
0.014801
0.0130952
0.0114183
0.00971641
0.00799707
0.00628051
0.00457725
0.00288874
0.00121405
-0.000446601
-0.00209177
-0.00371963
-0.00532854
-0.00691705
-0.00848377
-0.0100271
-0.0115452
-0.0130351
-0.0145014
0.0173984
0.015704
0.0141301
0.0125775
0.0110056
0.00942016
0.00783698
0.00626449
0.00470424
0.00315588
0.00161986
9.75691e-05
-0.00140929
-0.00289913
-0.00437055
-0.00582223
-0.00725283
-0.00866098
-0.0100448
-0.0114063
0.0181088
0.0165543
0.0150876
0.0136369
0.0121728
0.0106991
0.00922756
0.00776473
0.00631224
0.00487024
0.00343935
0.00202091
0.000616458
-0.000772526
-0.00214471
-0.00349884
-0.00483367
-0.00614795
-0.00744015
-0.00871091
0.0187658
0.0173244
0.0159432
0.0145745
0.0131978
0.0118154
0.0104354
0.00906279
0.00769913
0.00634501
0.00500122
0.00366902
0.00234982
0.00104498
-0.000244212
-0.00151656
-0.00277087
-0.00400596
-0.00522054
-0.00641463
0.0193419
0.0179886
0.0166733
0.0153681
0.0140599
0.0127496
0.0114423
0.0101415
0.00884892
0.0075654
0.00629185
0.00502945
0.00377947
0.00254319
0.0013218
0.000116442
-0.00107177
-0.00224177
-0.00339245
-0.00452342
0.0198111
0.0185218
0.0172537
0.0159946
0.0147369
0.01348
0.0122269
0.0109801
0.00974116
0.00851116
0.00729107
0.00608201
0.00488515
0.00370166
0.00253265
0.00137921
0.000242403
-0.000876714
-0.00197705
-0.00305826
0.0201482
0.0188983
0.0176592
0.0164293
0.0152045
0.0139835
0.0127673
0.0115578
0.0103565
0.00916439
0.00798254
0.00681194
0.0056536
0.00450858
0.00337788
0.00226246
0.00116325
8.11308e-05
-0.000983093
-0.00202858
0.0203305
0.0190948
0.0178635
0.0166411
0.0154263
0.0142177
0.0130156
0.0118212
0.0106361
0.0094613
0.00829792
0.00714685
0.00600901
0.00488533
0.00377671
0.00268401
0.00160809
0.000549784
-0.000490063
-0.00151128
0.129212
0.131929
0.135269
0.141455
0.147707
0.156226
0.16421
0.173653
0.181114
0.188634
0.191301
0.191922
0.182542
0.167972
0.131642
0.128537
0.131134
0.134289
0.140108
0.145924
0.153745
0.160873
0.169087
0.17508
0.180598
0.181085
0.178669
0.166758
0.148014
0.115655
0.127787
0.13025
0.133188
0.138602
0.143924
0.150988
0.157193
0.164128
0.168635
0.172211
0.170731
0.165797
0.152434
0.132304
0.103699
0.126959
0.129271
0.13198
0.136954
0.141757
0.148015
0.153275
0.158885
0.161945
0.163607
0.160397
0.153302
0.139119
0.118457
0.091815
0.126049
0.128194
0.130664
0.135168
0.139433
0.144847
0.149161
0.15343
0.155111
0.154943
0.150238
0.141348
0.126611
0.105765
0.0803384
0.125052
0.127015
0.129237
0.133241
0.136953
0.141493
0.144864
0.147796
0.14818
0.146315
0.140329
0.130027
0.114893
0.0942242
0.069963
0.123964
0.12573
0.127694
0.131172
0.134317
0.137959
0.1404
0.142023
0.141195
0.137803
0.130726
0.119382
0.104025
0.0838673
0.0608765
0.122783
0.124333
0.126034
0.128961
0.13153
0.134264
0.135793
0.136158
0.134206
0.129483
0.121492
0.109448
0.0940591
0.0746489
0.0529983
0.121504
0.122824
0.124255
0.126613
0.128599
0.130426
0.131067
0.130252
0.127268
0.121425
0.11269
0.100244
0.0850098
0.0664907
0.04621
0.120126
0.121199
0.122357
0.124134
0.125533
0.126472
0.126253
0.124354
0.120436
0.113684
0.104377
0.0917788
0.0768645
0.0593199
0.0404179
0.118647
0.119462
0.120341
0.121534
0.122345
0.122428
0.121383
0.118515
0.113766
0.106309
0.0965962
0.0840456
0.0695933
0.0530732
0.0355411
0.117068
0.117613
0.118208
0.118826
0.119048
0.118323
0.116495
0.112779
0.107309
0.0993333
0.089378
0.077033
0.0631569
0.0476883
0.0315
0.115389
0.11566
0.115964
0.116024
0.115661
0.114189
0.111626
0.107188
0.101114
0.0927858
0.082739
0.0707236
0.0575087
0.0430996
0.0282138
0.113612
0.11361
0.113616
0.113145
0.112207
0.110054
0.106818
0.101777
0.095223
0.0866867
0.0766834
0.0650933
0.0525969
0.0392381
0.0256013
0.111742
0.111474
0.111175
0.110206
0.10871
0.105948
0.102109
0.0965816
0.0896686
0.0810494
0.0712046
0.0601113
0.0483664
0.0360334
0.0235826
0.109784
0.109265
0.108653
0.107227
0.1052
0.101901
0.0975378
0.091631
0.0844755
0.0758803
0.0662873
0.055741
0.0447598
0.033415
0.0220805
0.107748
0.106998
0.10607
0.104227
0.101707
0.0979422
0.0931392
0.0869513
0.0796601
0.0711783
0.0619093
0.0519409
0.0417189
0.0313145
0.021021
0.105647
0.10469
0.103448
0.101229
0.0982614
0.0941006
0.0889437
0.0825644
0.0752313
0.0669356
0.0580431
0.0486665
0.0391852
0.0296657
0.020335
0.103497
0.10236
0.100812
0.0982571
0.0948947
0.0904048
0.0849772
0.078487
0.0711915
0.0631387
0.0546572
0.0458716
0.0371015
0.0284059
0.0199581
0.101317
0.100028
0.0981906
0.0953371
0.0916372
0.0868826
0.0812616
0.074731
0.0675378
0.0597688
0.0517171
0.0435095
0.0354123
0.0274759
0.019831
0.0991315
0.0977167
0.0956143
0.0924983
0.0885181
0.0835599
0.0778149
0.0713035
0.0642627
0.0568041
0.0491871
0.0415339
0.0340648
0.0268211
0.0198997
0.0969698
0.095453
0.0931152
0.0897718
0.0855662
0.0804607
0.0746516
0.0682077
0.0613553
0.0542203
0.0470306
0.0399002
0.0330092
0.0263907
0.0201155
0.094864
0.093266
0.0907267
0.0871906
0.0828099
0.0776071
0.0717836
0.0654435
0.0588024
0.051992
0.045212
0.0385656
0.0321994
0.0261387
0.0204344
0.0928508
0.0911891
0.0884835
0.084789
0.0802776
0.0750198
0.0692208
0.0630093
0.0565895
0.050094
0.043697
0.0374907
0.031593
0.0260233
0.0208172
0.0909705
0.0892597
0.0864221
0.0826022
0.0779982
0.0727193
0.0669722
0.0609024
0.0547025
0.0485024
0.0424541
0.036639
0.0311519
0.0260069
0.0212284
0.0892676
0.0875199
0.0845816
0.0806672
0.0760017
0.0707261
0.0650477
0.0591212
0.0531289
0.0471958
0.041455
0.0359784
0.030842
0.026056
0.0216363
0.0877906
0.0860159
0.0830043
0.0790227
0.0743201
0.0690632
0.0634588
0.0576667
0.0518596
0.0461567
0.0406761
0.0354811
0.0306336
0.0261406
0.0220122
0.0865923
0.0847987
0.0817367
0.0777104
0.0729885
0.067757
0.0622218
0.0565449
0.0508906
0.0453732
0.040099
0.0351248
0.0305017
0.0262347
0.0223299
0.0857303
0.0839244
0.0808304
0.0767773
0.0720472
0.0668396
0.0613594
0.0557688
0.0502258
0.0448411
0.0397127
0.0348931
0.0304263
0.026316
0.0225653
0.0852665
0.0834548
0.0803441
0.0762779
0.0715448
0.0663523
0.0609036
0.0553613
0.049879
0.0445658
0.0395149
0.0347772
0.0303926
0.026365
0.0226962
0.133694
0.136946
0.140664
0.148424
0.156144
0.167816
0.179837
0.195708
0.212546
0.233159
0.255238
0.281062
0.308512
0.339488
0.371544
0.133706
0.136957
0.140676
0.148429
0.156147
0.167806
0.179816
0.19566
0.212454
0.233019
0.25496
0.280669
0.308079
0.338999
0.370847
0.133692
0.136939
0.140657
0.148394
0.156103
0.167735
0.179713
0.19551
0.212205
0.232594
0.25466
0.280168
0.307075
0.337506
0.368625
0.133653
0.136891
0.140608
0.14832
0.156015
0.167606
0.179535
0.19526
0.21189
0.232309
0.253769
0.278889
0.305289
0.335082
0.365214
0.133587
0.136815
0.140528
0.148208
0.155883
0.167421
0.179283
0.19484
0.211435
0.231399
0.252547
0.277233
0.302889
0.331797
0.360577
0.133496
0.136709
0.140419
0.148058
0.155708
0.167184
0.178943
0.194613
0.210667
0.230387
0.251047
0.275147
0.299849
0.327638
0.354701
0.133379
0.136575
0.140279
0.147872
0.155492
0.166904
0.178675
0.193944
0.209774
0.229169
0.249226
0.272613
0.296169
0.322614
0.347605
0.133238
0.136413
0.14011
0.147649
0.155234
0.166562
0.178175
0.19322
0.208742
0.227732
0.247088
0.269647
0.29186
0.316741
0.339309
0.133071
0.136223
0.139912
0.147391
0.154943
0.16613
0.177585
0.192406
0.207563
0.226084
0.244645
0.266256
0.286934
0.310036
0.329838
0.132881
0.136007
0.139686
0.147099
0.154618
0.165752
0.176924
0.19149
0.206239
0.22423
0.241901
0.262451
0.281404
0.302519
0.319221
0.132666
0.135765
0.139433
0.146779
0.154162
0.165216
0.176186
0.190474
0.204774
0.222173
0.238866
0.25824
0.275282
0.294215
0.307495
0.132428
0.135498
0.139153
0.146438
0.153949
0.164586
0.175382
0.189361
0.203174
0.219918
0.235548
0.253634
0.268586
0.285148
0.294697
0.132166
0.135207
0.138846
0.146054
0.153386
0.163929
0.174517
0.188153
0.201442
0.21747
0.231957
0.248642
0.261331
0.275348
0.28087
0.131882
0.134892
0.138514
0.145617
0.152871
0.163233
0.17359
0.186853
0.199584
0.214833
0.228104
0.243274
0.253539
0.264846
0.266057
0.131576
0.134556
0.138153
0.145231
0.152321
0.162491
0.172601
0.185465
0.197604
0.212013
0.224
0.237539
0.245233
0.253672
0.2503
0.131249
0.1342
0.137815
0.144739
0.15173
0.161704
0.171552
0.18399
0.195505
0.209015
0.219655
0.231446
0.236438
0.241856
0.233633
0.130901
0.13382
0.137407
0.144203
0.151107
0.160872
0.170442
0.182427
0.193286
0.205839
0.215075
0.225001
0.227189
0.22943
0.216087
0.130533
0.133418
0.136965
0.143659
0.15046
0.160009
0.169289
0.180802
0.190976
0.20252
0.210296
0.21824
0.217537
0.216425
0.197691
0.130147
0.13301
0.136512
0.143109
0.149807
0.159145
0.168132
0.179167
0.188631
0.19912
0.205356
0.211181
0.207466
0.202776
0.178266
0.129739
0.132552
0.136012
0.142483
0.149043
0.158123
0.16676
0.17724
0.18591
0.195233
0.199848
0.203401
0.196752
0.188242
0.157317
)
;

boundaryField
{
    inlet
    {
        type            zeroGradient;
    }
    outlet
    {
        type            fixedValue;
        value           nonuniform 0();
    }
    cylinder
    {
        type            zeroGradient;
    }
    top
    {
        type            symmetryPlane;
    }
    bottom
    {
        type            symmetryPlane;
    }
    defaultFaces
    {
        type            empty;
    }
    procBoundary2to0
    {
        type            processor;
        value           nonuniform List<scalar> 
26
(
0.650524
0.627938
0.612336
0.612336
0.588946
0.561587
0.531074
0.498999
0.466564
0.434634
0.403814
0.133656
0.136903
0.140619
0.148378
0.156091
0.167759
0.179766
0.19563
0.212446
0.233034
0.255111
0.2809
0.308303
0.339251
0.371272
)
;
    }
    procBoundary2to3
    {
        type            processor;
        value           nonuniform List<scalar> 
50
(
-0.473155
-0.474469
-0.474469
-0.474938
-0.479887
-0.479887
-0.477861
-0.477861
-0.472224
-0.472224
-0.458435
-0.438008
-0.438008
-0.4071
-0.4071
-0.368712
-0.368712
-0.335365
-0.300345
-0.300345
-0.277495
-0.255792
-0.235584
-0.21645
-0.19824
-0.181062
-0.164973
-0.149916
-0.135838
-0.122721
-0.110532
-0.0992284
-0.0887678
-0.0791139
-0.0791139
-0.0723903
-0.0640418
-0.0563986
-0.0494245
-0.0430865
-0.0373546
-0.0322027
-0.0276084
-0.0235549
-0.0200322
-0.017036
-0.014568
-0.0126498
-0.0112999
-0.0105668
)
;
    }
}


// ************************************************************************* //
