/*--------------------------------*- C++ -*----------------------------------*\
  =========                 |
  \\      /  F ield         | OpenFOAM: The Open Source CFD Toolbox
   \\    /   O peration     | Website:  https://openfoam.org
    \\  /    A nd           | Version:  7
     \\/     M anipulation  |
\*---------------------------------------------------------------------------*/
FoamFile
{
    version     2.0;
    format      ascii;
    class       volVectorField;
    location    "325";
    object      U;
}
// * * * * * * * * * * * * * * * * * * * * * * * * * * * * * * * * * * * * * //

dimensions      [0 1 -1 0 0 0 0];

internalField   nonuniform List<vector> 
2125
(
(-0.0122915 0.0102965 -9.25218e-20)
(-0.010022 0.00807017 3.34284e-20)
(0.0102921 0.00763442 3.60133e-20)
(-0.00709508 0.00579528 -2.26003e-20)
(0.0231871 0.00214574 -1.68491e-20)
(-0.00338155 0.00349553 4.7051e-20)
(0.0387829 -0.00319863 -1.32182e-20)
(0.134268 -0.0097699 -7.83862e-21)
(0.00126061 0.0011981 -1.73658e-20)
(0.0573576 -0.00820306 -1.02903e-19)
(0.171794 -0.0139452 1.07789e-20)
(0.342267 -0.0141546 3.71292e-20)
(0.00697558 -0.00105755 -1.89178e-20)
(0.0791474 -0.0126554 3.65823e-20)
(0.214358 -0.0165751 4.75947e-20)
(0.407273 -0.011606 -3.4302e-20)
(0.640347 0.0055208 1.26982e-20)
(0.87638 0.0312824 -7.76986e-20)
(0.0138992 -0.00321314 -2.43336e-20)
(0.104323 -0.016317 -8.12303e-21)
(0.261827 -0.0172573 -8.60472e-20)
(0.476693 -0.00594756 -1.34541e-20)
(0.722754 0.0187215 -1.49985e-21)
(0.955825 0.049825 4.60404e-21)
(1.13729 0.0775407 8.13997e-21)
(0.0221494 -0.0051881 -6.30113e-21)
(0.132971 -0.0189187 2.98581e-20)
(0.313857 -0.0156003 4.20103e-20)
(0.549222 0.00306482 2.62666e-20)
(0.803559 0.0350614 -7.84296e-21)
(1.0284 0.07023 -6.37154e-21)
(1.19083 0.0983093 6.30623e-20)
(1.28607 0.114822 8.11752e-21)
(0.0318178 -0.0068791 6.02907e-20)
(0.165074 -0.0201625 3.91999e-20)
(0.369886 -0.0112403 -3.96935e-20)
(0.623352 0.0155292 -7.89919e-21)
(0.880904 0.0542161 4.05438e-21)
(1.09317 0.0920629 -1.48955e-20)
(1.23523 0.119329 -3.2214e-20)
(1.31088 0.133503 -5.40905e-21)
(1.33856 0.137443 4.39617e-22)
(1.33903 0.131348 1.26224e-20)
(0.0429633 -0.00816234 7.28155e-21)
(0.2005 -0.0197306 -2.13211e-20)
(0.429143 -0.00386554 5.04416e-20)
(0.697493 0.0314039 3.2862e-20)
(0.953286 0.0758079 8.94157e-22)
(1.14971 0.114945 2.32253e-20)
(1.27113 0.140399 3.46221e-21)
(1.32894 0.151751 -2.40953e-20)
(1.3447 0.152751 2.00623e-20)
(1.33882 0.145358 1.12166e-23)
(0.0556063 -0.00889782 -4.9417e-20)
(0.238992 -0.0173007 -1.45807e-20)
(0.490683 0.00675821 -1.32363e-20)
(0.770102 0.0505306 -2.29756e-20)
(1.01961 0.0994492 5.30177e-21)
(1.198 0.138559 1.17837e-22)
(1.29933 0.161385 1.76089e-20)
(1.34131 0.169593 -2.83318e-21)
(1.3473 0.167696 -2.06793e-20)
(1.33657 0.159063 -1.89118e-20)
(0.0697242 -0.00893489 3.99021e-21)
(0.28017 -0.0125642 2.34979e-20)
(0.553433 0.0207678 1.13486e-20)
(0.839784 0.0726641 -3.55466e-20)
(1.07915 0.124768 -1.81841e-21)
(1.23832 0.162652 -1.51791e-20)
(1.3207 0.182206 3.92073e-22)
(1.34893 0.187073 7.09522e-21)
(1.34709 0.182367 -7.74079e-21)
(1.33273 0.172545 2.14021e-20)
(0.0852489 -0.00811868 9.31877e-21)
(0.32353 -0.00524738 -2.29102e-20)
(0.616256 0.0381942 -5.41306e-20)
(0.905362 0.0975023 4.98542e-20)
(1.13155 0.15142 -3.72114e-21)
(1.27113 0.187019 1.10121e-20)
(1.33607 0.202816 -1.48788e-21)
(1.35261 0.204242 1.04246e-20)
(1.3446 0.196835 -8.06305e-22)
(1.32756 0.185857 -1.65666e-20)
(0.102065 -0.00629708 -1.89341e-20)
(0.368467 0.00487008 2.97104e-20)
(0.678016 0.0589648 2.46048e-20)
(0.965907 0.12471 -3.54259e-20)
(1.17669 0.179092 -5.83926e-21)
(1.29698 0.2115 2.24278e-21)
(1.34622 0.223192 2.22413e-20)
(1.35299 0.221146 1.10805e-21)
(1.34022 0.211151 4.25551e-21)
(1.32127 0.199026 -9.16276e-21)
(0.120011 -0.00332783 1.43601e-20)
(0.414291 0.0179387 -1.2939e-20)
(0.737633 0.0829144 -1.09813e-20)
(1.02074 0.153937 1.88584e-20)
(1.21467 0.207504 6.5219e-21)
(1.31647 0.235966 4.90099e-21)
(1.35183 0.243319 -2.26222e-20)
(1.3506 0.237816 -7.6901e-21)
(1.33425 0.225342 -6.85047e-21)
(1.31396 0.212054 3.01485e-21)
(0.138881 0.000914215 -7.11143e-21)
(0.460257 0.0340289 -1.6491e-22)
(0.794136 0.1098 2.07716e-20)
(1.06939 0.184825 -7.63265e-21)
(1.2457 0.2364 -3.35043e-21)
(1.33018 0.260307 -2.2075e-21)
(1.35351 0.263182 5.45711e-21)
(1.34582 0.254271 9.38866e-21)
(1.32688 0.239412 -2.96631e-22)
(1.3057 0.224923 3.37867e-21)
(0.158429 0.00653041 5.00578e-21)
(0.505596 0.0531254 -1.40437e-21)
(0.846684 0.139316 -3.70988e-21)
(1.11159 0.217023 -3.35841e-21)
(1.27011 0.265549 3.02173e-21)
(1.33866 0.284428 2.34926e-21)
(1.35173 0.282761 -2.16406e-21)
(1.33898 0.270508 7.80494e-22)
(1.31822 0.253343 1.09023e-21)
(1.29654 0.237599 -1.43895e-21)
(0.178378 0.0135923 2.66582e-21)
(0.549545 0.0751283 7.62619e-22)
(0.894587 0.171111 -4.56519e-21)
(1.14724 0.250179 -3.63956e-21)
(1.28825 0.294734 3.79096e-21)
(1.34244 0.308237 7.4016e-22)
(1.3469 0.302025 -1.72033e-21)
(1.33028 0.286505 1.61517e-21)
(1.30837 0.267097 8.96913e-22)
(1.28649 0.250037 -1.02388e-21)
(0.198423 0.022137 -1.04841e-21)
(0.591374 0.0998568 2.12662e-21)
(0.937303 0.2048 1.40198e-20)
(1.17633 0.283954 -6.21234e-21)
(1.30052 0.323754 -3.05805e-21)
(1.34195 0.331641 -3.43442e-21)
(1.33935 0.320927 7.02168e-21)
(1.31989 0.302221 4.68818e-21)
(1.29737 0.280614 3.73469e-21)
(1.27558 0.26218 2.01871e-21)
(0.218246 0.032164 2.1243e-20)
(0.630413 0.127058 -1.16939e-20)
(0.974433 0.239973 -1.33567e-20)
(1.19898 0.318014 1.80982e-20)
(1.30729 0.352414 9.49702e-21)
(1.33759 0.354546 -6.32025e-22)
(1.32934 0.339408 -1.16892e-20)
(1.30793 0.317594 -8.42636e-21)
(1.28526 0.29382 -8.73826e-21)
(1.26382 0.273961 5.172e-21)
(0.237521 0.0436334 -2.86977e-20)
(0.666063 0.156416 2.69799e-20)
(1.00571 0.276207 3.0972e-20)
(1.21537 0.352034 -3.05213e-20)
(1.30896 0.380524 -1.05746e-20)
(1.32972 0.376849 6.76027e-21)
(1.31707 0.357395 1.22872e-20)
(1.29446 0.332549 1.92309e-21)
(1.27204 0.306621 -3.30214e-22)
(1.25117 0.285296 -7.03952e-21)
(0.255927 0.0564664 -4.08182e-21)
(0.697814 0.187562 -3.78271e-20)
(1.03099 0.313072 -4.04886e-20)
(1.22571 0.385699 4.53381e-20)
(1.30587 0.4079 -5.13854e-21)
(1.31862 0.39844 9.40526e-21)
(1.30271 0.374803 1.84774e-21)
(1.27956 0.347005 -5.23185e-21)
(1.25769 0.318933 2.80527e-21)
(1.23753 0.296105 -3.77225e-22)
(0.273151 0.0705471 8.31351e-21)
(0.725249 0.220087 2.33545e-20)
(1.05021 0.350135 1.32668e-20)
(1.23027 0.418704 -1.04442e-20)
(1.29838 0.434355 -1.61172e-20)
(1.30456 0.4192 -1.50556e-20)
(1.2864 0.391533 -3.03712e-21)
(1.26327 0.360883 8.04012e-21)
(1.24222 0.330716 -1.69791e-21)
(1.22273 0.306348 3.8983e-21)
(0.288904 0.0857254 -3.12475e-20)
(0.748052 0.253556 -2.9216e-20)
(1.06341 0.386966 -4.58574e-21)
(1.22934 0.450755 -5.20408e-21)
(1.28682 0.459708 -1.18123e-20)
(1.28778 0.439 7.25171e-21)
(1.26826 0.407472 -1.31822e-21)
(1.24564 0.374078 -7.06832e-21)
(1.22571 0.341974 6.39884e-21)
(1.20686 0.316015 -9.23344e-21)
(0.302925 0.10182 7.55333e-21)
(0.766004 0.287513 2.47185e-20)
(1.07071 0.423147 2.14206e-20)
(1.22323 0.481565 2.32858e-20)
(1.27148 0.483776 5.10529e-22)
(1.26846 0.457712 2.0345e-20)
(1.24836 0.422503 1.32854e-21)
(1.22669 0.386441 -2.39993e-20)
(1.20817 0.352606 1.7199e-20)
(1.1903 0.32493 6.35321e-21)
(0.314985 0.118623 2.01754e-20)
(0.778976 0.321502 4.49584e-20)
(1.07227 0.45827 -5.9895e-21)
(1.21225 0.510859 -2.92435e-20)
(1.25266 0.506381 1.32196e-20)
(1.24679 0.475203 -1.37672e-20)
(1.22682 0.436518 -1.83486e-20)
(1.20659 0.39789 -1.56779e-21)
(1.18953 0.362379 -1.42636e-20)
(1.17308 0.333131 5.53774e-21)
(0.324897 0.135906 9.39185e-21)
(0.786921 0.355065 6.84095e-21)
(1.0683 0.491943 5.58206e-20)
(1.19674 0.538377 1.04693e-20)
(1.23064 0.527351 -9.11796e-21)
(1.22296 0.491326 -4.71496e-21)
(1.20384 0.449356 2.8022e-20)
(1.18535 0.40835 2.30997e-20)
(1.16982 0.371228 1.15209e-20)
(1.15514 0.340421 -1.5671e-21)
(0.332513 0.153427 1.96396e-21)
(0.789867 0.387758 -4.58107e-20)
(1.05908 0.523789 -6.55175e-20)
(1.17704 0.56387 2.02087e-21)
(1.20568 0.546514 1.29614e-20)
(1.19718 0.505928 -1.78813e-20)
(1.17947 0.460904 -4.0981e-20)
(1.16295 0.417696 -1.22526e-20)
(1.1492 0.37905 -7.43854e-22)
(1.13647 0.34674 5.94703e-21)
(0.337729 0.170937 -1.62282e-20)
(0.787917 0.419154 4.07979e-20)
(1.04493 0.553461 3.92688e-20)
(1.15348 0.587096 -3.62142e-20)
(1.17805 0.56369 5.54265e-21)
(1.16962 0.518873 4.31528e-20)
(1.15376 0.471033 -9.62865e-21)
(1.1395 0.425818 8.1648e-21)
(1.12771 0.385751 -3.99585e-21)
(1.11711 0.352007 -5.36807e-21)
(0.340487 0.188184 -3.6339e-20)
(0.781266 0.448848 -6.44047e-20)
(1.02627 0.580677 -1.26424e-20)
(1.1263 0.607797 2.07416e-20)
(1.148 0.578709 2.04042e-20)
(1.14042 0.530008 -4.29517e-20)
(1.12688 0.479628 2.35842e-20)
(1.11509 0.43261 -1.25177e-20)
(1.10544 0.391237 1.0212e-20)
(1.09715 0.35616 2.82421e-22)
(0.340781 0.204909 2.77337e-20)
(0.7702 0.476433 2.02409e-21)
(1.00345 0.605221 -6.16226e-21)
(1.09572 0.625762 -2.55784e-20)
(1.11579 0.591361 1.66117e-20)
(1.10977 0.539198 3.61221e-21)
(1.09893 0.486569 -1.35296e-20)
(1.08983 0.437971 2.29194e-21)
(1.08245 0.395413 -2.80821e-21)
(1.07667 0.359128 1.60214e-21)
(0.338665 0.220851 -7.52584e-21)
(0.755043 0.501537 -1.04517e-20)
(0.976439 0.626664 2.68894e-20)
(1.06234 0.640991 1.25424e-20)
(1.08177 0.601474 -1.72631e-20)
(1.07786 0.546308 2.45218e-20)
(1.07005 0.491751 1.78032e-21)
(1.06383 0.441807 2.01456e-21)
(1.05885 0.398184 -3.18806e-22)
(1.05575 0.360821 7.8144e-23)
(0.334221 0.235748 4.87013e-20)
(0.735988 0.524052 3.76645e-20)
(0.945513 0.644617 -2.71058e-21)
(1.02664 0.65313 -5.85029e-21)
(1.04615 0.609042 -7.02808e-21)
(1.04489 0.551241 -3.50791e-21)
(1.0404 0.495073 1.87303e-21)
(1.0372 0.444038 1.79392e-21)
(1.03473 0.399458 7.48231e-22)
(1.03447 0.361145 -2.24938e-21)
(0.327512 0.249263 3.84276e-21)
(0.713172 0.54359 6.41035e-21)
(0.911601 0.659245 -3.47633e-20)
(0.988878 0.661942 1.55032e-20)
(1.00921 0.61391 4.33181e-21)
(1.01104 0.553899 -9.92456e-21)
(1.01013 0.496449 3.43172e-21)
(1.01005 0.444594 1.13397e-21)
(1.01021 0.399169 -3.05621e-21)
(1.01305 0.360049 3.10935e-21)
(0.318577 0.261172 -1.84624e-20)
(0.686864 0.559638 -1.33254e-20)
(0.875139 0.670265 1.1108e-20)
(0.949356 0.667424 2.96641e-21)
(0.971185 0.615979 -6.09403e-21)
(0.976507 0.55419 5.7009e-21)
(0.979353 0.495791 1.90027e-21)
(0.982494 0.443386 -5.97963e-21)
(0.985558 0.397254 1.74634e-20)
(0.992172 0.357577 7.38327e-21)
(0.307639 0.271315 -1.40898e-20)
(0.657646 0.572047 3.4948e-20)
(0.836438 0.677457 -2.23319e-20)
(0.908415 0.669489 -3.2497e-21)
(0.932344 0.615164 -4.04312e-21)
(0.941475 0.552039 3.30583e-22)
(0.948199 0.493019 -6.27765e-21)
(0.95464 0.440282 3.3746e-21)
(0.961186 0.39352 -1.95753e-24)
(0.972569 0.353778 -3.09085e-21)
(0.294911 0.279591 -1.14492e-21)
(0.625947 0.580674 -1.03771e-20)
(0.795903 0.680659 5.67885e-21)
(0.866404 0.668061 -3.15508e-21)
(0.89295 0.611408 3.70099e-21)
(0.906129 0.547397 4.27914e-21)
(0.916788 0.48809 1.27351e-20)
(0.926684 0.43518 -9.98306e-21)
(0.937457 0.387576 -1.91283e-20)
(0.953528 0.347964 8.58694e-21)
(0.280565 0.285825 -1.3463e-22)
(0.592203 0.585388 -2.02761e-21)
(0.753954 0.679784 9.34063e-22)
(0.823673 0.663085 4.80379e-21)
(0.853269 0.604674 -9.82523e-21)
(0.870668 0.540241 -1.73319e-20)
(0.88531 0.481011 -5.02914e-21)
(0.898897 0.428213 -1.72543e-21)
(0.914338 0.379615 2.66072e-20)
(0.932088 0.336258 -5.45993e-21)
(0.264826 0.289882 -7.84218e-22)
(0.556847 0.586085 -4.43784e-21)
(0.711019 0.674784 8.5996e-22)
(0.780571 0.654531 9.62264e-22)
(0.813567 0.594939 -7.96728e-21)
(0.83531 0.530548 3.38362e-20)
(0.854028 0.471754 -2.40275e-20)
(0.871503 0.419479 2.87444e-20)
(0.890701 0.371636 -2.01313e-20)
(0.908148 0.329772 -2.68682e-20)
(0.247939 0.291658 -5.00026e-22)
(0.520307 0.5827 -1.36089e-21)
(0.667518 0.665645 6.39563e-22)
(0.73744 0.642396 1.2515e-20)
(0.774111 0.582199 -5.47164e-21)
(0.800282 0.518301 8.23973e-21)
(0.823152 0.460269 1.40102e-20)
(0.844535 0.408687 -7.38919e-21)
(0.866995 0.361403 -1.97744e-20)
(0.885462 0.319829 2.71914e-20)
(0.230156 0.291078 1.0191e-20)
(0.483012 0.575202 1.33489e-20)
(0.623868 0.652384 -1.30458e-20)
(0.694619 0.626704 -1.14051e-20)
(0.735165 0.566474 4.10535e-20)
(0.765804 0.503519 -4.16475e-20)
(0.792829 0.446608 5.01272e-20)
(0.818003 0.396078 -1.24806e-20)
(0.843425 0.349911 1.33937e-20)
(0.863595 0.309532 2.51606e-20)
(0.211737 0.288097 -3.65175e-21)
(0.445387 0.563599 -1.32665e-20)
(0.580473 0.63505 -8.33318e-21)
(0.652438 0.607504 -4.45441e-21)
(0.696993 0.547802 5.33755e-21)
(0.732096 0.486228 -1.1118e-20)
(0.763233 0.43078 -1.49681e-20)
(0.792071 0.381585 -3.28445e-20)
(0.820335 0.336785 3.26114e-20)
(0.842618 0.297806 -1.04292e-20)
(0.192943 0.282697 2.55902e-20)
(0.40785 0.547937 -3.18018e-21)
(0.537729 0.61372 -1.16731e-20)
(0.61122 0.584868 1.48646e-20)
(0.659852 0.52624 -2.6443e-20)
(0.699368 0.466477 7.10006e-20)
(0.734531 0.412837 -3.78151e-20)
(0.766904 0.365292 3.42121e-20)
(0.797945 0.322167 -6.27093e-20)
(0.82255 0.284776 -1.66375e-20)
(0.174034 0.274888 -7.94145e-21)
(0.37081 0.528299 2.71134e-20)
(0.496017 0.588501 6.31749e-21)
(0.571275 0.558895 -1.38121e-20)
(0.623992 0.501868 -2.38257e-20)
(0.667825 0.44433 -7.4117e-22)
(0.706894 0.392833 1.2608e-20)
(0.742668 0.347236 -3.09109e-20)
(0.77641 0.306042 1.51273e-20)
(0.803432 0.270387 1.99663e-21)
(0.155267 0.264707 -4.47256e-20)
(0.334661 0.504799 -1.09658e-20)
(0.455701 0.55953 -3.05334e-21)
(0.532901 0.529704 3.58574e-20)
(0.589653 0.474786 -3.33164e-20)
(0.637666 0.41987 -8.58345e-21)
(0.680492 0.370842 -5.25093e-21)
(0.71952 0.32748 9.65009e-21)
(0.755871 0.288451 -1.22391e-20)
(0.785332 0.254674 -1.90413e-20)
(0.13689 0.252218 3.96749e-20)
(0.299781 0.477586 -2.25388e-20)
(0.417132 0.526967 1.07831e-21)
(0.496383 0.497439 -5.44719e-20)
(0.557068 0.445111 5.89866e-20)
(0.609085 0.393196 -1.86091e-20)
(0.655491 0.346947 1.11357e-20)
(0.697607 0.306091 9.65119e-21)
(0.736449 0.269442 2.79716e-20)
(0.768322 0.237688 -1.15156e-20)
(0.119145 0.237509 -1.61408e-20)
(0.26653 0.446841 4.67932e-20)
(0.380637 0.491004 2.63394e-20)
(0.461989 0.462263 4.30468e-20)
(0.526453 0.412981 -9.92059e-21)
(0.582265 0.364424 4.01638e-21)
(0.632047 0.321248 3.21233e-20)
(0.677067 0.283152 7.16506e-21)
(0.718261 0.249079 6.9195e-22)
(0.752478 0.219498 -1.37672e-20)
(0.102262 0.220691 -3.72078e-20)
(0.235244 0.412772 -2.72838e-21)
(0.346524 0.451851 -1.54644e-20)
(0.429972 0.424361 -6.93096e-20)
(0.498014 0.378548 -6.6858e-20)
(0.557378 0.333683 1.11567e-20)
(0.610309 0.293857 -2.73915e-20)
(0.658029 0.258756 1.74687e-20)
(0.701415 0.227443 9.47621e-21)
(0.737876 0.200186 1.97606e-20)
(0.086456 0.201898 5.46516e-20)
(0.206239 0.375616 -4.46809e-20)
(0.31508 0.409747 -2.2647e-20)
(0.400564 0.383936 4.00891e-20)
(0.471944 0.341983 4.55172e-20)
(0.534585 0.30112 -1.50742e-20)
(0.590415 0.264898 -1.95019e-21)
(0.640613 0.23301 -5.43662e-20)
(0.686014 0.204625 -3.07134e-20)
(0.724586 0.179841 1.16991e-20)
(0.0719265 0.181284 -3.109e-20)
(0.179801 0.335632 1.30961e-20)
(0.286563 0.364946 4.80618e-20)
(0.37398 0.341209 -2.15139e-20)
(0.448418 0.303472 1.69076e-21)
(0.514037 0.266891 6.07065e-20)
(0.572492 0.234508 2.79182e-21)
(0.624928 0.206028 5.20873e-20)
(0.672153 0.180725 2.16926e-20)
(0.712675 0.158563 -3.44671e-20)
(0.0588556 0.159022 4.30211e-20)
(0.156191 0.293105 4.75294e-21)
(0.261211 0.317726 3.11986e-21)
(0.350412 0.296416 4.37978e-20)
(0.427595 0.263214 -5.84288e-21)
(0.495866 0.231168 -3.80961e-20)
(0.556656 0.202832 1.8628e-20)
(0.611076 0.177937 -2.97599e-20)
(0.65992 0.155854 -1.24325e-20)
(0.702206 0.136453 1.25406e-20)
(0.047406 0.1353 -2.68338e-20)
(0.135641 0.248337 -5.14892e-20)
(0.239231 0.26838 1.18748e-20)
(0.330032 0.249809 -2.32364e-20)
(0.409617 0.221422 -1.40261e-20)
(0.480195 0.194131 3.39377e-20)
(0.54301 0.170028 -8.2097e-21)
(0.599147 0.148872 7.57112e-21)
(0.649394 0.130131 -9.20081e-21)
(0.693232 0.11362 1.82565e-20)
(0.0377194 0.110323 9.69435e-21)
(0.118349 0.201649 3.46565e-20)
(0.220803 0.217214 -4.80811e-20)
(0.312988 0.201651 2.27111e-20)
(0.394606 0.178318 -1.03409e-20)
(0.467126 0.155973 -2.90663e-20)
(0.531644 0.13626 2.37034e-20)
(0.58922 0.118974 4.9652e-21)
(0.640643 0.103681 -7.67677e-22)
(0.685802 0.0901779 -2.12201e-20)
(0.0299155 0.0843069 3.1662e-21)
(0.104485 0.153378 1.11436e-20)
(0.20608 0.164551 4.34786e-20)
(0.299406 0.152217 -8.32498e-21)
(0.382667 0.134135 -6.55657e-21)
(0.456748 0.116892 2.42767e-21)
(0.522632 0.101699 1.06478e-21)
(0.581362 0.0883935 8.8406e-21)
(0.633728 0.0766386 -1.16065e-20)
(0.679958 0.0662433 -7.37877e-21)
(0.0240909 0.0574779 -7.92354e-21)
(0.0941841 0.103871 -1.35652e-20)
(0.195183 0.11072 -3.37653e-20)
(0.289384 0.10179 1.69811e-20)
(0.373882 0.0891122 1.38445e-20)
(0.449131 0.0770936 5.8788e-22)
(0.516038 0.0665239 -2.31052e-20)
(0.575627 0.0572827 -1.02486e-20)
(0.628698 0.0491334 8.12525e-21)
(0.675731 0.0419179 8.68906e-21)
(0.0203185 0.0300707 1.37354e-21)
(0.0875481 0.0534868 -2.83162e-21)
(0.188204 0.0560623 6.41571e-21)
(0.283 0.0506588 -4.34293e-21)
(0.368313 0.0434967 -3.81728e-21)
(0.44433 0.0367899 -2.58898e-21)
(0.511905 0.0309159 4.75146e-21)
(0.572055 0.0257986 1.80926e-20)
(0.625581 0.0212973 2.62163e-21)
(0.673133 0.0172841 -4.64369e-21)
(0.280302 -0.000880078 -3.67214e-21)
(0.366003 -0.00246124 3.49473e-21)
(0.442379 -0.00380396 1.57614e-21)
(0.510264 -0.0049373 -1.57011e-21)
(0.57067 -0.00589108 -7.14682e-21)
(0.624386 -0.00670197 2.35201e-21)
(0.672123 -0.00741425 -2.19903e-21)
(1.27921 0.222396 -1.65205e-22)
(1.28809 0.212009 -1.62763e-21)
(1.29628 0.201363 -3.32515e-22)
(1.30375 0.190482 -1.00043e-21)
(1.31049 0.179387 5.63518e-21)
(1.31644 0.168086 -5.33959e-21)
(1.32154 0.156576 3.38823e-21)
(1.32564 0.144835 1.38512e-20)
(1.26482 0.21107 -3.9737e-23)
(1.27338 0.201854 1.39272e-21)
(1.28136 0.192409 1.21208e-21)
(1.28878 0.182749 -5.96564e-21)
(1.2956 0.172886 1.94986e-21)
(1.30182 0.162827 -1.20523e-21)
(1.30738 0.15257 3.35778e-21)
(1.31223 0.142108 -6.54444e-21)
(1.25116 0.199679 4.40765e-22)
(1.25909 0.191519 1.00433e-21)
(1.26659 0.183165 5.78337e-22)
(1.27367 0.174633 2.93294e-21)
(1.28031 0.16593 3.88572e-21)
(1.2865 0.157063 5.6571e-21)
(1.29223 0.148032 -1.60349e-22)
(1.29745 0.138835 1.07074e-21)
(1.23884 0.188695 -1.45442e-22)
(1.24605 0.181467 -1.72036e-21)
(1.25293 0.174088 -1.58989e-21)
(1.25949 0.166568 1.16328e-21)
(1.26573 0.158915 -4.38414e-21)
(1.27165 0.151134 -1.01931e-20)
(1.27724 0.143224 4.49392e-21)
(1.2825 0.135186 5.43322e-22)
(1.22767 0.17827 1.91679e-23)
(1.23423 0.171863 8.51291e-22)
(1.24052 0.165331 2.15174e-21)
(1.24653 0.158686 8.14539e-22)
(1.25229 0.151931 -1.70069e-22)
(1.2578 0.145073 2.48157e-21)
(1.26307 0.138111 1.87726e-21)
(1.2681 0.131044 -2.14445e-21)
(1.21737 0.168301 1.28432e-24)
(1.22337 0.162627 8.98556e-22)
(1.22913 0.156848 -1.54754e-21)
(1.23466 0.150972 -1.18369e-21)
(1.23996 0.145002 7.53586e-22)
(1.24505 0.138943 1.64522e-21)
(1.24993 0.132794 -2.89394e-21)
(1.2546 0.126555 -1.36982e-21)
(1.20771 0.158704 8.63306e-23)
(1.21322 0.153693 -9.342e-22)
(1.21853 0.148593 1.38748e-21)
(1.22362 0.14341 8.75786e-22)
(1.22853 0.138147 1.70775e-21)
(1.23323 0.132807 -7.11464e-22)
(1.23776 0.127392 -4.67216e-21)
(1.2421 0.1219 3.10899e-21)
(1.19865 0.149438 -2.04603e-22)
(1.20371 0.145031 -4.12283e-22)
(1.2086 0.140548 -4.574e-22)
(1.21331 0.135995 -5.23245e-22)
(1.21785 0.131375 2.97033e-22)
(1.22223 0.126691 1.90892e-21)
(1.22645 0.121945 5.12006e-21)
(1.2305 0.117138 1.0582e-21)
(1.19007 0.140535 9.82554e-23)
(1.19473 0.136657 -2.62667e-23)
(1.19924 0.132721 -1.83467e-22)
(1.2036 0.12873 -8.60352e-22)
(1.20782 0.124685 -1.51509e-21)
(1.21191 0.12059 -1.99834e-21)
(1.21585 0.116446 -1.33706e-21)
(1.21966 0.112253 -1.92278e-21)
(1.18194 0.131952 6.16264e-23)
(1.18622 0.12855 7.41759e-22)
(1.19039 0.125102 6.32194e-23)
(1.19444 0.121611 6.25848e-22)
(1.19837 0.118078 4.04352e-23)
(1.20218 0.114507 -2.79959e-21)
(1.20588 0.110897 -1.87148e-22)
(1.20946 0.10725 1.6251e-21)
(1.1742 0.123664 -1.49099e-22)
(1.17815 0.120686 1.90418e-22)
(1.182 0.117672 -2.07293e-22)
(1.18576 0.114626 -4.07164e-22)
(1.18942 0.111548 -5.94289e-22)
(1.19298 0.108441 1.8833e-21)
(1.19645 0.105307 8.96841e-22)
(1.19982 0.102145 -1.52049e-21)
(1.16683 0.11567 4.77406e-23)
(1.17048 0.113065 -6.24313e-22)
(1.17404 0.110434 3.38549e-22)
(1.17753 0.107779 2.42445e-23)
(1.18094 0.105102 6.51294e-22)
(1.18427 0.102404 -6.72758e-22)
(1.18752 0.099687 8.88259e-22)
(1.1907 0.0969522 1.18445e-21)
(1.15978 0.107938 2.99432e-23)
(1.16316 0.105665 2.53327e-22)
(1.16646 0.103373 -6.02326e-22)
(1.1697 0.101064 -1.08612e-22)
(1.17288 0.0987391 -6.74481e-22)
(1.176 0.0964003 7.39886e-22)
(1.17906 0.0940492 -2.79686e-21)
(1.18205 0.0916868 -1.6824e-21)
(1.15308 0.100444 -7.35113e-23)
(1.15619 0.0984668 8.06507e-23)
(1.15926 0.0964758 4.91456e-22)
(1.16227 0.0944722 -2.69061e-22)
(1.16523 0.0924576 1.09352e-21)
(1.16815 0.0904336 -3.84518e-22)
(1.17101 0.0884017 5.54405e-22)
(1.17383 0.0863633 9.55404e-22)
(1.14666 0.0931984 7.11334e-23)
(1.14954 0.0914773 -2.75474e-23)
(1.15238 0.0897466 -3.95125e-22)
(1.15519 0.0880078 9.05966e-22)
(1.15795 0.0862621 -5.24298e-22)
(1.16068 0.0845109 4.50882e-22)
(1.16336 0.0827554 4.64453e-22)
(1.16602 0.0809971 1.88188e-22)
(1.14052 0.0861751 3.79615e-23)
(1.14319 0.0846798 6.53282e-23)
(1.14583 0.0831776 1.86097e-22)
(1.14844 0.0816699 -6.63854e-22)
(1.15101 0.0801578 -4.30086e-22)
(1.15356 0.0786427 8.28689e-23)
(1.15608 0.0771257 -4.14741e-22)
(1.15857 0.0756079 4.64334e-22)
(1.16103 0.0740904 -1.83232e-21)
(1.13465 0.0793587 -5.58583e-23)
(1.13712 0.0780604 -1.66827e-23)
(1.13957 0.0767573 -9.66125e-25)
(1.14199 0.0754507 4.68973e-22)
(1.1444 0.0741414 3.13466e-22)
(1.14678 0.0728307 -1.98717e-22)
(1.14913 0.0715193 -3.80767e-22)
(1.15147 0.0702084 7.59108e-23)
(1.15378 0.0688988 2.82118e-22)
(1.12903 0.0727381 3.99009e-23)
(1.13132 0.0716122 -7.54302e-24)
(1.13359 0.0704827 1.5377e-22)
(1.13585 0.0693509 -1.55577e-22)
(1.13809 0.0682173 -2.90753e-23)
(1.14031 0.067083 4.17887e-22)
(1.14251 0.0659487 1.74377e-22)
(1.1447 0.0648151 -5.44672e-22)
(1.14687 0.0636831 -2.35377e-22)
(1.12365 0.0663009 -4.01736e-23)
(1.12578 0.0653256 -5.02164e-23)
(1.1279 0.0643477 -3.2078e-23)
(1.12999 0.0633678 -2.3963e-23)
(1.13208 0.0623867 -2.56265e-22)
(1.13415 0.061405 2.82299e-22)
(1.13621 0.0604233 -1.94462e-22)
(1.13825 0.0594422 -4.48674e-22)
(1.14028 0.0584624 6.53879e-22)
(1.11853 0.0600353 -1.90397e-23)
(1.12051 0.0591921 5.11186e-23)
(1.12247 0.0583467 -1.63015e-23)
(1.12443 0.0574994 -6.22085e-23)
(1.12636 0.056651 7.33731e-23)
(1.12829 0.0558018 -1.87432e-22)
(1.13021 0.0549523 3.25944e-22)
(1.13211 0.0541029 2.99402e-22)
(1.13401 0.053254 -4.14984e-23)
(1.11367 0.0539293 2.76993e-23)
(1.11551 0.0532022 -3.15733e-23)
(1.11733 0.0524731 -1.63143e-23)
(1.11915 0.0517423 -7.27174e-23)
(1.12095 0.0510101 2.76626e-23)
(1.12275 0.0502767 7.29961e-23)
(1.12453 0.0495426 -3.07521e-23)
(1.1263 0.0488078 -3.50443e-22)
(1.12806 0.0480727 2.45807e-22)
(1.10908 0.0479706 1.51991e-24)
(1.11079 0.0473465 -2.80452e-23)
(1.11249 0.0467204 -3.79351e-23)
(1.11418 0.0460925 2.48143e-23)
(1.11586 0.0454629 1.06003e-22)
(1.11752 0.0448317 -1.05566e-22)
(1.11918 0.0441991 -2.21196e-22)
(1.12083 0.0435652 2.57683e-22)
(1.12247 0.0429301 -3.84005e-22)
(1.10479 0.0421412 -2.0051e-24)
(1.10638 0.0416101 -7.97932e-24)
(1.10796 0.0410769 4.26557e-23)
(1.10954 0.0405416 -1.15056e-23)
(1.1111 0.0400041 -9.35696e-23)
(1.11265 0.0394646 1.29114e-22)
(1.11419 0.0389231 -1.62839e-22)
(1.11572 0.0383795 -9.71788e-23)
(1.11724 0.0378339 3.07409e-22)
(1.10083 0.0364263 -8.57462e-24)
(1.10232 0.0359795 2.22091e-23)
(1.10379 0.0355304 2.4046e-23)
(1.10526 0.0350789 -2.87348e-23)
(1.10671 0.0346251 -2.86424e-24)
(1.10816 0.034169 -1.1599e-22)
(1.10959 0.0337104 -9.71206e-24)
(1.11101 0.0332493 1.30009e-22)
(1.11241 0.0327854 -2.08662e-22)
(1.09724 0.030809 2.85442e-25)
(1.09863 0.0304392 2.9897e-24)
(1.10001 0.0300671 7.2951e-25)
(1.10138 0.0296927 2.03384e-23)
(1.10274 0.0293159 1.05932e-22)
(1.10408 0.0289366 -7.95224e-23)
(1.10542 0.0285547 4.91978e-23)
(1.10674 0.0281698 1.31295e-24)
(1.10804 0.0277819 -1.30883e-22)
(1.09406 0.0252584 4.6889e-24)
(1.09537 0.0249606 -1.12043e-23)
(1.09667 0.0246607 3.88499e-24)
(1.09796 0.0243587 -3.34398e-23)
(1.09923 0.0240543 1.12366e-23)
(1.10049 0.0237474 2.65276e-23)
(1.10173 0.0234378 6.44001e-23)
(1.10296 0.0231254 1.42602e-23)
(1.10418 0.0228097 -1.22688e-23)
(1.09136 0.0197444 3.37205e-24)
(1.0926 0.0195154 -1.71974e-24)
(1.09383 0.0192845 -8.54791e-24)
(1.09504 0.0190517 2.40154e-23)
(1.09624 0.0188168 -4.39528e-23)
(1.09743 0.0185797 3.49367e-23)
(1.0986 0.0183401 2.3453e-23)
(1.09975 0.0180978 -7.86106e-23)
(1.10089 0.0178525 -5.47758e-23)
(1.0892 0.0142129 2.52674e-25)
(1.09039 0.01405 -8.01212e-24)
(1.09156 0.0138856 2.84721e-24)
(1.09272 0.0137198 -2.80596e-23)
(1.09386 0.0135524 3.00748e-23)
(1.09498 0.0133833 3.72245e-24)
(1.09609 0.0132122 2.02399e-23)
(1.09718 0.0130389 -7.76239e-23)
(1.09826 0.0128633 1.28903e-22)
(1.08766 0.00864069 7.10546e-26)
(1.08881 0.00854339 1.78011e-24)
(1.08994 0.00844507 2.60576e-24)
(1.09105 0.00834564 -9.68347e-24)
(1.09215 0.00824498 1.97059e-23)
(1.09323 0.00814297 -2.5056e-23)
(1.0943 0.00803948 3.15685e-23)
(1.09535 0.00793436 -1.10773e-23)
(1.09638 0.00782746 -3.04953e-23)
(1.08684 0.00287867 1.00367e-25)
(1.08796 0.00284925 -4.40344e-24)
(1.08906 0.0028198 1.03286e-23)
(1.09015 0.0027902 1.38932e-23)
(1.09122 0.00276033 -6.63528e-24)
(1.09228 0.00273006 1.75094e-23)
(1.09331 0.00269926 -1.63344e-23)
(1.09433 0.00266782 -4.78464e-24)
(1.09534 0.0026356 -1.15327e-23)
(0.974027 0.319858 1.7205e-21)
(0.993691 0.319373 -1.24341e-21)
(1.01161 0.319762 3.44941e-21)
(1.02952 0.319959 -6.64237e-22)
(1.04806 0.31957 -1.10753e-23)
(1.06649 0.318618 7.01833e-23)
(1.08444 0.317042 -6.21606e-22)
(1.10197 0.314736 -9.67189e-22)
(1.1191 0.311659 1.98684e-22)
(1.13577 0.307816 -4.03236e-21)
(1.15191 0.303225 -2.87934e-21)
(1.1675 0.297914 2.80039e-21)
(1.18254 0.291897 -6.20195e-21)
(1.19694 0.285191 -1.60348e-21)
(1.21093 0.277647 3.00747e-21)
(1.22441 0.269453 -3.95702e-21)
(1.2369 0.26079 6.47718e-22)
(1.24851 0.251725 2.90899e-22)
(1.2594 0.242284 1.4809e-21)
(1.26964 0.232497 2.45602e-22)
(0.987362 0.303617 -2.85824e-21)
(1.00675 0.302977 1.85618e-21)
(1.02435 0.303153 -4.00986e-21)
(1.04028 0.303256 -2.57086e-21)
(1.05655 0.302629 -2.44518e-22)
(1.07297 0.301289 2.41462e-24)
(1.08894 0.299323 3.661e-22)
(1.10447 0.296692 2.48085e-21)
(1.11965 0.29337 -3.36938e-21)
(1.13447 0.289384 2.48235e-21)
(1.14887 0.284779 -6.12009e-22)
(1.16279 0.279583 -3.10146e-21)
(1.17623 0.273846 2.4481e-21)
(1.18905 0.267545 -1.63684e-21)
(1.20139 0.260804 4.31712e-22)
(1.21351 0.25333 -9.94363e-22)
(1.22502 0.245402 4.15274e-21)
(1.23583 0.237203 -7.97247e-22)
(1.24604 0.228755 -1.24748e-21)
(1.25571 0.220042 1.43045e-23)
(1.00098 0.286029 -1.42668e-21)
(1.01908 0.28595 -2.66003e-21)
(1.0361 0.285895 1.03539e-21)
(1.05065 0.28562 1.88013e-21)
(1.06504 0.284655 -1.99475e-22)
(1.07976 0.282951 4.3152e-23)
(1.09419 0.280659 6.50124e-22)
(1.10811 0.277826 2.14137e-21)
(1.12165 0.274431 4.57086e-21)
(1.13484 0.270485 -2.31187e-22)
(1.14764 0.266026 4.08664e-21)
(1.16001 0.26108 -6.20007e-22)
(1.17192 0.25569 -6.21281e-22)
(1.18342 0.249858 2.45191e-22)
(1.19429 0.243725 -3.88924e-21)
(1.20474 0.237104 -2.43016e-21)
(1.21497 0.230098 -1.78283e-21)
(1.22475 0.222835 -4.44851e-22)
(1.23401 0.215349 -9.70781e-22)
(1.2428 0.207629 -4.63488e-22)
(1.01377 0.269977 -2.41386e-21)
(1.03028 0.269941 3.30212e-21)
(1.04622 0.26948 -1.02486e-21)
(1.05952 0.26869 4.4964e-23)
(1.07223 0.267369 -6.5253e-24)
(1.08532 0.265421 -4.15765e-22)
(1.09831 0.262952 -6.0184e-22)
(1.11082 0.260039 -3.71485e-21)
(1.12292 0.256681 -1.37154e-21)
(1.13469 0.252874 4.1233e-21)
(1.14611 0.248639 -2.17738e-21)
(1.15716 0.244007 3.69643e-21)
(1.16778 0.238997 -2.62984e-22)
(1.17801 0.233638 -2.25105e-21)
(1.18774 0.22792 5.95166e-21)
(1.19709 0.221968 2.52112e-21)
(1.20625 0.215763 -7.12521e-22)
(1.21503 0.209309 9.66563e-22)
(1.22337 0.202632 1.53684e-21)
(1.23129 0.195756 1.76899e-22)
(1.02547 0.254565 4.01339e-21)
(1.04036 0.254246 -2.37582e-21)
(1.05499 0.253368 7.92205e-22)
(1.06712 0.252144 -2.59277e-22)
(1.07841 0.25054 3.63571e-23)
(1.09 0.248455 1.73904e-22)
(1.10161 0.245924 -4.85081e-22)
(1.11284 0.243021 1.91536e-21)
(1.12364 0.239764 -3.1256e-21)
(1.13413 0.236147 -4.86122e-21)
(1.14432 0.232182 -8.93064e-23)
(1.15418 0.227893 -1.51178e-21)
(1.16367 0.2233 8.21724e-22)
(1.17281 0.218429 -8.73526e-22)
(1.18155 0.213288 -1.75374e-21)
(1.18998 0.207935 7.91612e-23)
(1.19822 0.20238 -4.90904e-22)
(1.20612 0.196619 -1.66201e-21)
(1.21364 0.190665 -5.96114e-22)
(1.22081 0.184542 -7.0371e-23)
(1.03605 0.239365 -1.23642e-23)
(1.04934 0.23876 1.64533e-21)
(1.06255 0.237598 4.55855e-22)
(1.07353 0.236098 4.06198e-22)
(1.08359 0.234319 5.68335e-24)
(1.09383 0.232179 -1.83336e-22)
(1.10416 0.229669 1.25588e-21)
(1.1142 0.226839 1.14449e-21)
(1.12385 0.223722 2.66011e-21)
(1.13319 0.220319 1.59751e-21)
(1.14227 0.216637 1.17132e-21)
(1.15107 0.212695 -8.27247e-23)
(1.15956 0.208513 4.36959e-22)
(1.16773 0.204122 1.80157e-21)
(1.17556 0.199524 -1.45031e-21)
(1.18315 0.19479 -4.24177e-22)
(1.19061 0.189813 1.12476e-21)
(1.19777 0.184633 1.26011e-21)
(1.20459 0.179309 -8.95731e-22)
(1.21112 0.173863 3.4652e-23)
(1.04544 0.224441 -1.84774e-21)
(1.05724 0.223621 -1.30045e-21)
(1.06898 0.222288 2.11353e-22)
(1.07885 0.220634 4.52531e-23)
(1.08782 0.21876 2.23547e-22)
(1.09686 0.216618 1.05853e-21)
(1.10602 0.214176 9.91998e-22)
(1.11497 0.211463 -3.2187e-21)
(1.12357 0.208513 -9.65739e-22)
(1.1319 0.205337 -1.41923e-22)
(1.13999 0.201939 3.33889e-22)
(1.14785 0.198333 -7.35147e-22)
(1.15547 0.194536 -1.19126e-21)
(1.16283 0.190572 2.3917e-21)
(1.16996 0.186448 5.14583e-22)
(1.17677 0.182209 -9.97766e-22)
(1.18331 0.177776 -9.21078e-22)
(1.18975 0.173168 3.90185e-22)
(1.19599 0.168442 9.36922e-22)
(1.20197 0.163621 -1.23893e-22)
(1.05362 0.209932 1.7252e-21)