/*--------------------------------*- C++ -*----------------------------------*\
  =========                 |
  \\      /  F ield         | OpenFOAM: The Open Source CFD Toolbox
   \\    /   O peration     | Website:  https://openfoam.org
    \\  /    A nd           | Version:  7
     \\/     M anipulation  |
\*---------------------------------------------------------------------------*/
FoamFile
{
    version     2.0;
    format      ascii;
    class       volScalarField;
    location    "260";
    object      p;
}
// * * * * * * * * * * * * * * * * * * * * * * * * * * * * * * * * * * * * * //

dimensions      [0 2 -2 0 0 0 0];

internalField   nonuniform List<scalar> 
2125
(
0.64648
0.623994
0.60857
0.649068
0.626497
0.610906
0.588696
0.56118
0.530534
0.498341
0.465801
0.433772
0.402827
0.646642
0.624291
0.608992
0.587109
0.559906
0.529543
0.497603
0.465283
0.433446
0.402709
0.639249
0.617417
0.602863
0.581795
0.555352
0.525669
0.494331
0.462531
0.431145
0.400911
0.626972
0.605951
0.592584
0.572808
0.547563
0.51895
0.48856
0.457575
0.426893
0.397456
0.609932
0.590003
0.578251
0.560229
0.53661
0.509446
0.480337
0.450457
0.420727
0.392365
0.58829
0.569718
0.559986
0.544162
0.522581
0.497232
0.469729
0.441233
0.412691
0.385666
0.562241
0.545272
0.537941
0.524736
0.505585
0.482401
0.456815
0.429971
0.402844
0.377398
0.532015
0.516875
0.512297
0.502103
0.485753
0.465065
0.441688
0.416752
0.391252
0.367605
0.497875
0.484766
0.483257
0.476436
0.463232
0.445348
0.424455
0.401669
0.377994
0.35634
0.460118
0.449212
0.451053
0.447931
0.438189
0.423393
0.405237
0.384824
0.363155
0.343662
0.419066
0.41051
0.415936
0.416802
0.410806
0.399355
0.384167
0.36633
0.34683
0.329638
0.375072
0.368979
0.378182
0.383282
0.38128
0.373403
0.361387
0.34631
0.329121
0.314338
0.32851
0.324961
0.338086
0.347619
0.349824
0.345716
0.337051
0.324896
0.310136
0.297839
0.279778
0.278821
0.295959
0.310078
0.316662
0.316485
0.311322
0.302227
0.289988
0.280214
0.229288
0.230938
0.252129
0.270936
0.282029
0.285911
0.284372
0.278452
0.268798
0.261537
0.177471
0.181707
0.206939
0.230481
0.246169
0.2542
0.256378
0.253733
0.246691
0.241868
0.124766
0.131534
0.160739
0.18901
0.209333
0.221566
0.227521
0.228244
0.223822
0.221248
0.0716195
0.0808308
0.113889
0.146825
0.171779
0.188224
0.197981
0.202165
0.200379
0.199646
0.0184821
0.0300125
0.0667552
0.104235
0.133768
0.154398
0.167927
0.175676
0.176703
0.177074
-0.034198
-0.0205081
0.0197068
0.061546
0.0955612
0.120317
0.137533
0.148898
0.153222
0.153214
-0.0859755
-0.0703249
-0.0268867
0.0190633
0.0574147
0.0862108
0.106972
0.121772
0.130282
0.129436
-0.136405
-0.119037
-0.0726605
-0.0229163
0.0195789
0.0523059
0.076509
0.0944239
0.106997
0.110708
-0.185072
-0.166215
-0.117273
-0.0641066
-0.017701
0.0188115
0.0463925
0.0672454
0.0833825
0.092274
-0.231812
-0.211334
-0.160452
-0.104232
-0.0541863
-0.0140843
0.0167836
0.0404734
0.0595435
0.0724486
-0.275996
-0.254167
-0.202071
-0.14302
-0.0896512
-0.0462072
-0.012208
0.0142142
0.0358149
0.0517963
-0.31729
-0.294033
-0.242005
-0.180195
-0.123889
-0.077386
-0.0404652
-0.0114465
0.0124747
0.03112
-0.355503
-0.331138
-0.279217
-0.215574
-0.156705
-0.107451
-0.0678527
-0.0364085
-0.010336
0.0107515
-0.390414
-0.365238
-0.313425
-0.248976
-0.187892
-0.136244
-0.0942345
-0.0605654
-0.0325315
-0.00921908
-0.421803
-0.396064
-0.344801
-0.279932
-0.217335
-0.163622
-0.119486
-0.0838156
-0.0540284
-0.0287054
-0.449509
-0.423417
-0.373226
-0.308419
-0.244811
-0.189447
-0.143499
-0.106064
-0.074745
-0.0475972
-0.473437
-0.447164
-0.398506
-0.33435
-0.27021
-0.213637
-0.166181
-0.127222
-0.0946119
-0.0657971
-0.493544
-0.467238
-0.420511
-0.357607
-0.293458
-0.23612
-0.187481
-0.147209
-0.113561
-0.083251
-0.509842
-0.483636
-0.439179
-0.378099
-0.314482
-0.256805
-0.207365
-0.166007
-0.131483
-0.0999938
-0.522403
-0.49641
-0.454505
-0.39578
-0.333234
-0.275641
-0.225744
-0.183599
-0.148226
-0.116229
-0.531351
-0.505675
-0.466531
-0.410637
-0.349688
-0.292609
-0.242587
-0.199938
-0.163976
-0.131939
-0.536869
-0.511597
-0.475351
-0.422695
-0.363845
-0.307711
-0.257895
-0.215015
-0.178648
-0.146369
-0.539187
-0.514402
-0.481104
-0.432013
-0.37573
-0.320963
-0.271682
-0.22882
-0.192187
-0.159565
-0.538579
-0.514364
-0.483977
-0.438689
-0.385396
-0.332399
-0.28397
-0.241364
-0.204639
-0.171776
-0.535354
-0.511794
-0.484205
-0.442857
-0.392916
-0.34207
-0.294799
-0.252686
-0.216065
-0.183151
-0.52985
-0.507033
-0.482067
-0.444693
-0.398393
-0.350045
-0.304227
-0.262837
-0.226505
-0.193726
-0.522421
-0.500437
-0.477878
-0.444403
-0.40195
-0.356407
-0.312321
-0.271874
-0.235995
-0.203511
-0.513428
-0.492367
-0.471978
-0.44223
-0.403733
-0.361254
-0.319155
-0.279857
-0.244574
-0.212521
-0.503231
-0.483176
-0.464721
-0.438438
-0.403909
-0.364691
-0.32481
-0.286851
-0.252292
-0.220787
-0.492172
-0.473205
-0.456462
-0.433319
-0.402663
-0.366836
-0.329368
-0.292925
-0.259206
-0.228343
-0.480575
-0.462765
-0.447537
-0.427174
-0.400198
-0.367816
-0.332918
-0.298149
-0.265375
-0.235227
-0.46873
-0.45214
-0.438258
-0.42031
-0.396733
-0.367765
-0.335549
-0.302593
-0.270856
-0.241481
-0.456895
-0.441572
-0.428896
-0.413023
-0.392496
-0.366825
-0.33735
-0.306322
-0.275707
-0.247149
-0.445286
-0.431266
-0.419682
-0.405586
-0.387722
-0.365145
-0.338409
-0.309398
-0.279977
-0.252271
-0.434078
-0.421381
-0.4108
-0.398232
-0.382641
-0.362882
-0.338816
-0.311875
-0.283708
-0.423403
-0.412035
-0.402391
-0.391149
-0.377471
-0.360195
-0.338658
-0.3138
-0.413354
-0.403306
-0.394555
-0.384475
-0.372399
-0.357243
-0.338024
-0.403983
-0.395233
-0.387348
-0.378298
-0.367569
-0.395311
-0.387824
-0.380788
-0.372667
-0.387329
-0.381064
-0.374863
-0.380008
-0.374915
-0.373308
-0.369335
-0.367194
0.13131
0.1343
0.138104
0.145132
0.152337
0.162324
0.171906
0.183611
0.193572
0.204449
0.21075
0.2162
0.211716
0.205439
0.177694
0.131531
0.134548
0.138392
0.145523
0.152835
0.163038
0.172921
0.185116
0.195799
0.207743
0.215571
0.223153
0.221505
0.218822
0.197158
0.131733
0.134771
0.138631
0.145831
0.153213
0.163584
0.17371
0.186319
0.197649
0.210555
0.219836
0.229402
0.230651
0.231369
0.215239
0.131913
0.134975
0.13887
0.146135
0.153585
0.16413
0.174498
0.187518
0.19947
0.213298
0.223955
0.235378
0.239401
0.243307
0.232359
0.13207
0.135154
0.13901
0.146426
0.15393
0.164641
0.17524
0.18865
0.201197
0.215895
0.227873
0.241042
0.247748
0.254683
0.248647
0.132205
0.135311
0.1392
0.146613
0.154238
0.165102
0.175917
0.189691
0.202801
0.218313
0.231555
0.246358
0.255644
0.265463
0.264079
0.132316
0.135446
0.139338
0.146819
0.154505
0.165515
0.176529
0.190642
0.204283
0.220552
0.234995
0.251321
0.263055
0.275617
0.278627
0.132403
0.135557
0.139445
0.147013
0.154724
0.165878
0.177076
0.191501
0.205641
0.222607
0.238182
0.255922
0.269958
0.285114
0.292254
0.132466
0.135643
0.139527
0.147155
0.154891
0.166188
0.177555
0.192263
0.206869
0.224473
0.241107
0.260152
0.276329
0.293921
0.304917
0.132504
0.135702
0.139581
0.147255
0.15503
0.16645
0.177964
0.192927
0.207963
0.226144
0.243757
0.263999
0.282149
0.302006
0.316573
0.132517
0.135734
0.139607
0.147315
0.155093
0.166661
0.178302
0.193488
0.208917
0.227617
0.246123
0.267454
0.287399
0.309341
0.327177
0.132504
0.135739
0.139603
0.147346
0.155198
0.166835
0.178568
0.193945
0.209729
0.228885
0.248196
0.270506
0.292064
0.315896
0.336689
0.132466
0.135715
0.13957
0.147344
0.155196
0.166733
0.17876
0.194294
0.210393
0.229946
0.249969
0.273144
0.296129
0.32165
0.345073
0.132401
0.135663
0.139506
0.147305
0.155152
0.166818
0.178871
0.194534
0.210906
0.230795
0.251432
0.27536
0.299581
0.326578
0.352298
0.132311
0.135582
0.139412
0.147228
0.155075
0.166809
0.178885
0.194657
0.211265
0.231427
0.252579
0.277145
0.302408
0.330664
0.358337
0.132194
0.135471
0.139287
0.147114
0.154954
0.166711
0.178793
0.19467
0.211465
0.231839
0.253405
0.278489
0.304601
0.333889
0.363168
0.132052
0.13533
0.139131
0.146961
0.154788
0.166548
0.178649
0.194639
0.211531
0.232032
0.253902
0.279385
0.306148
0.336241
0.366773
0.131882
0.135159
0.138944
0.146768
0.154577
0.166333
0.178465
0.194418
0.211517
0.232021
0.254072
0.279838
0.307049
0.337714
0.369144
0.131687
0.134959
0.138725
0.146536
0.154321
0.166062
0.178176
0.194158
0.21088
0.23168
0.253914
0.279881
0.307309
0.338305
0.370275
0.131465
0.134728
0.138475
0.146264
0.154018
0.165731
0.177807
0.193753
0.210542
0.231241
0.253401
0.279195
0.3068
0.337909
0.37009
0.094715
0.0930669
0.0902304
0.0865011
0.0821155
0.0772494
0.0720845
0.0667682
0.0614469
0.0562273
0.0512081
0.0464469
0.0419937
0.0378599
0.0340571
0.0951356
0.0934973
0.0906848
0.0869778
0.0826073
0.0777406
0.0725601
0.0672117
0.0618457
0.0565698
0.0514874
0.0466567
0.0421322
0.0379248
0.0340483
0.0959162
0.0942975
0.0915302
0.0878671
0.0835274
0.0786635
0.0734578
0.0680534
0.0626063
0.0572266
0.0520254
0.0470642
0.0424044
0.0380581
0.034044
0.0969987
0.0954089
0.0927101
0.089115
0.0848258
0.0799737
0.0747402
0.0692633
0.0637065
0.0581828
0.0528144
0.0476677
0.0428145
0.0382691
0.0340563
0.0983288
0.0967781
0.0941742
0.0906742
0.0864604
0.0816353
0.0763791
0.0708211
0.0651339
0.0594333
0.0538558
0.0484735
0.043373
0.0385709
0.0341011
0.0998564
0.0983559
0.0958771
0.0925025
0.0883939
0.0836177
0.0783525
0.0727136
0.0668841
0.0609811
0.0551582
0.0494949
0.0440958
0.0389815
0.0341974
0.101536
0.100098
0.0977772
0.0945604
0.0905924
0.0858943
0.0806427
0.0749327
0.0689579
0.0628343
0.0567359
0.05075
0.0450039
0.0395227
0.034367
0.103325
0.101964
0.0998362
0.0968108
0.0930239
0.0884405
0.0832348
0.0774729
0.0713596
0.0650052
0.0586075
0.0522614
0.0461218
0.0402196
0.034634
0.105185
0.103919
0.102018
0.0992179
0.0956582
0.0912326
0.0861145
0.0803302
0.0740952
0.0675086
0.0607946
0.0540553
0.047478
0.0411003
0.0350255
0.107083
0.105931
0.10429
0.101748
0.0984654
0.0942468
0.0892675
0.0835003
0.0771712
0.0703604
0.0633214
0.0561609
0.0491041
0.0421967
0.0355711
0.108988
0.107972
0.106619
0.104368
0.101417
0.0974584
0.092678
0.0869774
0.0805935
0.0735771
0.0662134
0.0586098
0.0510351
0.0435434
0.0363039
0.110875
0.110019
0.108975
0.107049
0.104482
0.100842
0.0963284
0.0907532
0.084366
0.0771744
0.0694969
0.0614355
0.0533086
0.0451788
0.0372601
0.11272
0.11205
0.111329
0.109763
0.107633
0.10437
0.100199
0.0948164
0.0884901
0.0811663
0.0731983
0.0646732
0.0559651
0.0471447
0.0384801
0.114507
0.114048
0.113655
0.112484
0.11084
0.108016
0.104265
0.0991514
0.0929635
0.0855642
0.0773424
0.0683584
0.0590475
0.0494862
0.040008
0.11622
0.115995
0.115927
0.115192
0.114071
0.11175
0.1085
0.103739
0.0977797
0.0903753
0.0819522
0.0725269
0.0626006
0.052252
0.0418924
0.11785
0.117878
0.118128
0.117865
0.117297
0.115546
0.112874
0.108556
0.102927
0.0956019
0.0870478
0.0772132
0.0666706
0.0554942
0.0441865
0.11939
0.119682
0.120239
0.120486
0.120489
0.119377
0.11735
0.113576
0.108386
0.101241
0.0926448
0.08245
0.0713045
0.0592675
0.0469477
0.120835
0.121398
0.12225
0.123038
0.123621
0.123214
0.121894
0.118771
0.114132
0.107283
0.0987536
0.0882663
0.0765493
0.0636297
0.050238
0.122181
0.123016
0.124152
0.125504
0.126669
0.127031
0.126465
0.124108
0.12013
0.113713
0.105377
0.0946864
0.0824511
0.0686396
0.0541225
0.12343
0.124529
0.125939
0.12787
0.129614
0.130799
0.131026
0.129553
0.12634
0.120511
0.112509
0.101729
0.0890545
0.0743563
0.0586694
0.12458
0.125933
0.12761
0.130124
0.13244
0.134492
0.135541
0.135067
0.132716
0.12765
0.12013
0.109409
0.0963999
0.0808365
0.0639481
0.125634
0.127227
0.129164
0.132253
0.135136
0.138082
0.139978
0.14061
0.139207
0.135099
0.128211
0.117737
0.104523
0.0881359
0.0700291
0.126595
0.128411
0.1306
0.13425
0.137693
0.141544
0.144308
0.146134
0.145762
0.142813
0.13671
0.126719
0.11345
0.0963139
0.0769871
0.127464
0.129485
0.131922
0.13611
0.140103
0.144855
0.148505
0.151592
0.152332
0.150739
0.145573
0.136348
0.123194
0.10544
0.0849129
0.128247
0.130456
0.133132
0.137829
0.142362
0.147996
0.152546
0.156937
0.158867
0.158813
0.154742
0.146608
0.133736
0.115589
0.0939204
0.128946
0.131325
0.134232
0.139409
0.144467
0.150955
0.156414
0.162123
0.165323
0.166961
0.164162
0.157467
0.145028
0.126803
0.104079
0.129567
0.1321
0.135227
0.140853
0.14642
0.153724
0.160095
0.167119
0.171662
0.175111
0.173786
0.168889
0.157022
0.139052
0.115197
0.130114
0.132785
0.136122
0.142163
0.14822
0.156299
0.163579
0.171891
0.177846
0.183172
0.18355
0.180789
0.169754
0.152359
0.126619
0.130592
0.133385
0.136917
0.143337
0.149856
0.158656
0.16682
0.176368
0.183769
0.190986
0.193293
0.192993
0.183413
0.167418
0.138084
0.131004
0.133905
0.137601
0.14436
0.151282
0.16074
0.169712
0.180435
0.189248
0.198398
0.202824
0.20546
0.198351
0.1864
0.153414
0.0315811
0.0302826
0.028983
0.0276881
0.0263964
0.0251063
0.0238179
0.0225325
0.0212515
0.0199763
0.0187078
0.0174471
0.016195
0.0149527
0.013721
0.0125011
0.0112938
0.0101002
0.00892122
0.00775714
0.0315273
0.0302163
0.0289081
0.0276049
0.0263031
0.0250006
0.023698
0.022397
0.0210991
0.0198055
0.0185173
0.0172355
0.0159612
0.0146954
0.0134393
0.012194
0.0109605
0.00973971
0.00853272
0.00734048
0.0314343
0.0300864
0.0287467
0.0274119
0.0260759
0.0247369
0.0233963
0.0220564
0.0207189
0.019385
0.0180558
0.0167324
0.015416
0.0141079
0.0128092
0.0115212
0.010245
0.00898182
0.00773296
0.00649881
0.0313143
0.0299061
0.0285151
0.0271306
0.0257426
0.0243493
0.0229532
0.0215573
0.0201635
0.0187729
0.0173867
0.0160059
0.0146319
0.0132659
0.0119093
0.0105632
0.00922888
0.0079076
0.00660064
0.00530835
0.0311853
0.0296939
0.0282318
0.0267792
0.0253211
0.0238551
0.0223851
0.0209151
0.0194473
0.0179826
0.016522
0.0150668
0.0136183
0.0121778
0.0107468
0.00932639
0.00791802
0.00652299
0.0051429
0.00377741
0.0310668
0.0294689
0.027915
0.0263754
0.0248286
0.0232714
0.0217093
0.0201473
0.0185878
0.0170318
0.0154801
0.0139338
0.0123945
0.0108635
0.00934227
0.00783207
0.0063343
0.00485041
0.00338252
0.00192892
0.03098
0.0292512
0.0275832
0.0259365
0.0242817
0.0226142
0.020941
0.0192683
0.017599
0.0159338
0.0142734
0.0126191
0.0109721
0.00933406
0.00770633
0.00609023
0.0044872
0.00289889
0.00132931
-0.000227105
0.0309483
0.029062
0.0272553
0.0254795
0.0236961
0.0218981
0.0200937
0.0182907
0.0164924
0.0146993
0.0129122
0.0111319
0.00935998
0.00759799
0.00584731
0.00410934
0.00238551
0.000677731
-0.00101281
-0.00268801
0.0309967
0.0289242
0.0269508
0.0250215
0.0230871
0.0211369
0.0191798
0.0172253
0.0152773
0.0133364
0.011403
0.00947797
0.00756291
0.00565936
0.00376875
0.00189235
3.11994e-05
-0.00181434
-0.0036473
-0.00546167
0.0311531
0.0288625
0.0266903
0.0245798
0.02247
0.0203439
0.0182107
0.0160815
0.0139612
0.0118506
0.00974968
0.00765927
0.00558075
0.00351563
0.00146524
-0.000569182
-0.00258655
-0.00458588
-0.00656955
-0.00853407
0.0314483
0.028904
0.026496
0.0241729
0.0218604
0.0195327
0.0171977
0.0148683
0.0125511
0.0102471
0.00795594
0.00567823
0.0034152
0.00116833
-0.00106107
-0.00327174
-0.0054626
-0.00763261
-0.00978544
-0.0119184
0.0319165
0.0290786
0.0263917
0.02382
0.0212747
0.018717
0.0161518
0.0135943
0.0110529
0.00852938
0.00602316
0.0035343
0.00106381
-0.00138693
-0.00381661
-0.00622401
-0.00860803
-0.0109674
-0.013308
-0.0156275
0.0325957
0.0294195
0.0264034
0.0235417
0.02073
0.0179112
0.0150844
0.0122672
0.00947132
0.00669951
0.00395083
0.00122464
-0.00147844
-0.00415715
-0.00681021
-0.00943633
-0.0120343
-0.014602
-0.0171494
-0.0196744
0.0335282
0.0299635
0.0265595
0.0233605
0.0202449
0.0171305
0.014007
0.010895
0.00781065
0.0047586
0.00173725
-0.00125507
-0.0042183
-0.00715118
-0.0100524
-0.0129206
-0.0157544
-0.0185498
-0.0213245
-0.024076
0.0347613
0.0307517
0.0268916
0.0233008
0.0198399
0.0163916
0.0129321
0.00948565
0.00607512
0.00270744
-0.000619998
-0.00391053
-0.00716498
-0.0103821
-0.0135598
-0.0166949
-0.0197835
-0.0228215
-0.0258437
-0.0288457
0.0363473
0.0318298
0.0274346
0.0233901
0.0195377
0.015713
0.0118732
0.0080478
0.004269
0.000547011
-0.00312238
-0.00674499
-0.0103235
-0.0138584
-0.0173511
-0.0208005
-0.0241973
-0.0274812
-0.0307641
-0.0340324
0.0383437
0.0332485
0.0282272
0.0236589
0.0193638
0.0151152
0.0108446
0.00658943
0.00239499
-0.00172436
-0.00577487
-0.00976452
-0.0136951
-0.017564
-0.0213667
-0.0251029
-0.0287839
-0.0324915
-0.0361191
-0.0396695
0.0408136
0.0350634
0.0293129
0.0241424
0.0193482
0.0146216
0.00986213
0.00511912
0.000454946
-0.0041117
-0.0085911
-0.0129954
-0.0173282
-0.0215881
-0.0257736
-0.0298865
-0.0339293
-0.037934
-0.0418731
-0.0457395
0.0438245
0.0373349
0.0307401
0.0248814
0.0195259
0.0142602
0.0089452
0.00364852
-0.00154561
-0.00661473
-0.0115753
-0.0164442
-0.0212253
-0.0259158
-0.0305124
-0.0350145
-0.039422
-0.0437828
-0.0480776
-0.0522916
0.0474475
0.0401272
0.0325624
0.0259231
0.0199383
0.0140635
0.00811661
0.00219258
-0.00359754
-0.00922948
-0.0147287
-0.0201168
-0.0253969
-0.0305641
-0.0356136
-0.0405447
-0.0453526
-0.0501082
-0.0547932
-0.0593817
0.0517547
0.0435059
0.0348375
0.0273214
0.0206335
0.0140686
0.0074018
0.000768379
-0.00568991
-0.0119515
-0.0180543
-0.0240248
-0.0298643
-0.0355653
-0.0411188
-0.0465156
-0.051746
-0.0569315
-0.0620435
-0.0670368
0.0568157
0.0475332
0.0376249
0.0291371
0.0216664
0.0143163
0.00682837
-0.000604535
-0.00780922
-0.0147742
-0.0215521
-0.0281718
-0.034633
-0.0409354
-0.0470826
-0.0530669
-0.0587348
-0.0643773
-0.0699319
-0.0753385
0.0626913
0.0522602
0.040982
0.0314382
0.0230986
0.0148501
0.00642617
-0.00190302
-0.00993965
-0.0176929
-0.0252285
-0.0325674
-0.0396946
-0.04659
-0.0532484
-0.0596969
-0.0662078
-0.0724799
-0.0785045
-0.0843327
0.0694301
0.05772
0.0449638
0.0342994
0.0249945
0.0157131
0.00622796
-0.00309766
-0.0120604
-0.0207022
-0.0290981
-0.0372585
-0.0451648
-0.0528053
-0.060186
-0.067315
-0.0743465
-0.0811616
-0.0877164
-0.0940324
0.0770688
0.0639344
0.0496337
0.0378065
0.0274185
0.0169464
0.00627159
-0.00415052
-0.0141439
-0.0237901
-0.0331602
-0.0422471
-0.0510253
-0.0594798
-0.0676032
-0.0753897
-0.0830681
-0.0905198
-0.0976646
-0.104511
0.0856173
0.0709326
0.0550881
0.0420663
0.0304374
0.0185941
0.00660631
-0.0050122
-0.0161541
-0.0269328
-0.0373956
-0.0475153
-0.0572697
-0.0666533
-0.0756573
-0.084185
-0.0925908
-0.100717
-0.108469
-0.115864
0.0949701
0.0787253
0.0614572
0.0472113
0.0341265
0.0207135
0.00729711
-0.00562828
-0.0180589
-0.0301127
-0.0417937
-0.0530537
-0.0638615
-0.0742064
-0.0840959
-0.0937052
-0.102992
-0.111826
-0.120205
-0.128178
0.10469
0.0871176
0.0688076
0.053363
0.0385762
0.0234119
0.00846093
-0.00591324
-0.0198062
-0.0332991
-0.0463523
-0.0589093
-0.0709226
-0.0823529
-0.0932072
-0.103972
-0.114213
-0.123834
-0.132916
-0.141527
0.113892
0.0953952
0.0768578
0.0603454
0.0436887
0.0267155
0.0101538
-0.00583758
-0.0213761
-0.0364728
-0.0510724
-0.0651459
-0.0786565
-0.0915154
-0.103464
-0.115173
-0.126317
-0.136772
-0.146617
-0.155918
0.122033
0.103215
0.0854451
0.0679301
0.0495677
0.0310267
0.0128816
-0.00482738
-0.0221185
-0.0389202
-0.0551586
-0.0708039
-0.0858447
-0.100274
-0.114059
-0.127226
-0.139447
-0.150805
-0.161454
-0.171456
0.00660863
0.00547674
0.00436244
0.00326647
0.00218945
0.001132
9.47159e-05
-0.000921829
-0.00191708
0.00616408
0.00500446
0.00386245
0.00273885
0.00163446
0.000550046
-0.000513662
-0.00155598
-0.00257626
0.00528031
0.0040787
0.00289507
0.00173031
0.000585243
-0.000539386
-0.00164284
-0.00272442
-0.00378349
0.00403188
0.00277252
0.00153136
0.000309295
-0.000892865
-0.00207435
-0.00323442
-0.00437239
-0.00548763
0.00242767
0.00109519
-0.000218789
-0.00151337
-0.00278779
-0.00404129
-0.00527317
-0.00648278
-0.00766952
0.000490891
-0.000929594
-0.00233115
-0.00371295
-0.00507432
-0.00641462
-0.00773318
-0.0090294
-0.0103028
-0.00176886
-0.00329285
-0.00479716
-0.00628106
-0.00774421
-0.00918613
-0.0106063
-0.0120041
-0.0133791
-0.00434778
-0.00598993
-0.00761212
-0.00921328
-0.0107932
-0.0123515
-0.013888
-0.0154021
-0.0168937
-0.00725506
-0.00902766
-0.0107802
-0.0125123
-0.0142232
-0.0159124
-0.0175796
-0.0192246
-0.0208474
-0.0104776
-0.0123998
-0.0143006
-0.01618
-0.0180374
-0.0198728
-0.0216859
-0.0234768
-0.0252456
-0.0140294
-0.0161173
-0.0181822
-0.0202244
-0.0222438
-0.0242406
-0.0262147
-0.0281665
-0.0300962
-0.0179231
-0.0201935
-0.022439
-0.02466
-0.026857
-0.0290303
-0.0311803
-0.0333076
-0.022173
-0.0246434
-0.027086
-0.0295019
-0.0318921
-0.0342572
-0.036598
-0.0389152
-0.0267977
-0.0294865
-0.0321433
-0.0347703
-0.0373693
-0.0399412
-0.0424871
-0.0450081
-0.0318132
-0.0347405
-0.03763
-0.0404853
-0.0433091
-0.0461029
-0.0488682
-0.0516065
-0.0372601
-0.0404409
-0.0435786
-0.0466776
-0.0497406
-0.0527697
-0.0557669
-0.0587343
-0.0431642
-0.0466121
-0.0500147
-0.0533734
-0.0566901
-0.0599676
-0.0632086
-0.0664156
-0.0495397
-0.0532808
-0.0569672
-0.0606016
-0.0641868
-0.0677257
-0.0712215
-0.0746776
-0.0564236
-0.0604801
-0.0644689
-0.0683951
-0.0722622
-0.0760737
-0.0798333
-0.0835454
-0.0638673
-0.0682584
-0.0725663
-0.0767984
-0.080959
-0.0850518
-0.089081
-0.0930515
-0.0719008
-0.0766481
-0.0812935
-0.0858461
-0.0903111
-0.0946932
-0.0989973
-0.103229
-0.0805936
-0.0857127
-0.0907091
-0.0955913
-0.100365
-0.105038
-0.109615
-0.114104
-0.0899945
-0.0955019
-0.100862
-0.106081
-0.111166
-0.116124
-0.120964
-0.125693
-0.10014
-0.106058
-0.111795
-0.11736
-0.12276
-0.128003
-0.133096
-0.138048
-0.111094
-0.11744
-0.123565
-0.129478
-0.13519
-0.140711
-0.14605
-0.151217
-0.122941
-0.129727
-0.136239
-0.14249
-0.148493
-0.154263
-0.159816
-0.165165
-0.135775
-0.143013
-0.149907
-0.156475
-0.162734
-0.168701
-0.174392
-0.17983
-0.149686
-0.157402
-0.16469
-0.171569
-0.178058
-0.184173
-0.18993
-0.195347
-0.164684
-0.17292
-0.180637
-0.187854
-0.194588
-0.200855
-0.206668
-0.212039
-0.180815
-0.18954
-0.197651
-0.205168
-0.212113
-0.218506
-0.224368
-0.229715
)
;

boundaryField
{
    inlet
    {
        type            zeroGradient;
    }
    outlet
    {
        type            fixedValue;
        value           nonuniform 0();
    }
    cylinder
    {
        type            zeroGradient;
    }
    top
    {
        type            symmetryPlane;
    }
    bottom
    {
        type            symmetryPlane;
    }
    defaultFaces
    {
        type            empty;
    }
    procBoundary0to1
    {
        type            processor;
        value           nonuniform List<scalar> 
50
(
-0.256884
-0.256884
-0.286934
-0.286934
-0.315212
-0.354177
-0.315212
-0.337004
-0.354177
-0.363077
-0.363077
-0.367591
-0.367591
-0.36953
-0.36953
-0.364734
-0.36428
-0.36428
-0.361638
-0.00289052
-0.0035739
-0.00481946
-0.00657956
-0.00883285
-0.0115528
-0.0147311
-0.0183624
-0.0224478
-0.0269925
-0.0320044
-0.0354127
-0.0354127
-0.04121
-0.0475058
-0.0543199
-0.0616744
-0.0695916
-0.0780974
-0.0872142
-0.0969681
-0.107391
-0.118509
-0.13032
-0.142862
-0.156212
-0.17032
-0.185035
-0.200445
-0.216979
-0.23456
)
;
    }
    procBoundary0to2
    {
        type            processor;
        value           nonuniform List<scalar> 
26
(
0.638873
0.616777
0.601978
0.586524
0.586524
0.559148
0.528619
0.496526
0.46407
0.432108
0.40126
0.131216
0.134466
0.138194
0.145951
0.153665
0.16533
0.177343
0.193216
0.209961
0.230552
0.252618
0.278349
0.305782
0.33675
0.368746
)
;
    }
}


// ************************************************************************* //
