/*--------------------------------*- C++ -*----------------------------------*\
  =========                 |
  \\      /  F ield         | OpenFOAM: The Open Source CFD Toolbox
   \\    /   O peration     | Website:  https://openfoam.org
    \\  /    A nd           | Version:  7
     \\/     M anipulation  |
\*---------------------------------------------------------------------------*/
FoamFile
{
    version     2.0;
    format      ascii;
    class       volScalarField;
    location    "190";
    object      p;
}
// * * * * * * * * * * * * * * * * * * * * * * * * * * * * * * * * * * * * * //

dimensions      [0 2 -2 0 0 0 0];

internalField   nonuniform List<scalar> 
2125
(
-0.381329
-0.425043
-0.389282
-0.467006
-0.43203
-0.397135
-0.523502
-0.50058
-0.472219
-0.438912
-0.40498
-0.53665
-0.522232
-0.502606
-0.477231
-0.44574
-0.412909
-0.542035
-0.532683
-0.52088
-0.504394
-0.482085
-0.452544
-0.421001
-0.543894
-0.536713
-0.52901
-0.519567
-0.506024
-0.48681
-0.459326
-0.42934
-0.538077
-0.531913
-0.525698
-0.51839
-0.507573
-0.491424
-0.466068
-0.437939
-0.538049
-0.53282
-0.527637
-0.522786
-0.517413
-0.509099
-0.495936
-0.4727
-0.446867
-0.537706
-0.532543
-0.528066
-0.523854
-0.52028
-0.516665
-0.510636
-0.500323
-0.47921
-0.455804
-0.531996
-0.527443
-0.523724
-0.520491
-0.51814
-0.516131
-0.512174
-0.504551
-0.485511
-0.464674
-0.526621
-0.522631
-0.519679
-0.517438
-0.51628
-0.515748
-0.513669
-0.508541
-0.49165
-0.471805
-0.521419
-0.51797
-0.515791
-0.51455
-0.514561
-0.515399
-0.515045
-0.51204
-0.498756
-0.471806
-0.516218
-0.513317
-0.511908
-0.51166
-0.512802
-0.514914
-0.516158
-0.514805
-0.506047
-0.475532
-0.510856
-0.508532
-0.507877
-0.508584
-0.510795
-0.514077
-0.516775
-0.516706
-0.511938
-0.480685
-0.505189
-0.503484
-0.503553
-0.505149
-0.508346
-0.512656
-0.51661
-0.517599
-0.515763
-0.484741
-0.499105
-0.498069
-0.49881
-0.501196
-0.505234
-0.510419
-0.515391
-0.51729
-0.517426
-0.487407
-0.492534
-0.492211
-0.493555
-0.496606
-0.501319
-0.507182
-0.512915
-0.515587
-0.516973
-0.488948
-0.48545
-0.485872
-0.487734
-0.491304
-0.496506
-0.502821
-0.509077
-0.512339
-0.514524
-0.489342
-0.477875
-0.479054
-0.481339
-0.485275
-0.490771
-0.497294
-0.503872
-0.507479
-0.510322
-0.488371
-0.469884
-0.471794
-0.474407
-0.478558
-0.484172
-0.490767
-0.497276
-0.501109
-0.504618
-0.48583
-0.461577
-0.464174
-0.467014
-0.471239
-0.476802
-0.483266
-0.489614
-0.493928
-0.496939
-0.481761
-0.45309
-0.456302
-0.459273
-0.463445
-0.468813
-0.474982
-0.481058
-0.485567
-0.488026
-0.477655
-0.444575
-0.448306
-0.451317
-0.455329
-0.460384
-0.466139
-0.471835
-0.476314
-0.478528
-0.471703
-0.43619
-0.440323
-0.443293
-0.447057
-0.451706
-0.45696
-0.462192
-0.466481
-0.468609
-0.464284
-0.428085
-0.432488
-0.435345
-0.438792
-0.442969
-0.44766
-0.452365
-0.456348
-0.458451
-0.455967
-0.420389
-0.424923
-0.427605
-0.430684
-0.434344
-0.438434
-0.442567
-0.446166
-0.448248
-0.447113
-0.413208
-0.417732
-0.420186
-0.42286
-0.425977
-0.429446
-0.432985
-0.436152
-0.438183
-0.438033
-0.406612
-0.41099
-0.413172
-0.415418
-0.417981
-0.420827
-0.423765
-0.426477
-0.42842
-0.429002
-0.400638
-0.404743
-0.40662
-0.408425
-0.410436
-0.412668
-0.415013
-0.417268
-0.419088
-0.420232
-0.395286
-0.399008
-0.400553
-0.401915
-0.403383
-0.40502
-0.406791
-0.4086
-0.41027
-0.411851
-0.390529
-0.393776
-0.394972
-0.395893
-0.396833
-0.397898
-0.399118
-0.400496
-0.401998
-0.403903
-0.0206562
-0.0212999
-0.0219159
-0.0225041
-0.0230646
-0.0235972
-0.024102
-0.0245791
-0.0250287
-0.0254506
-0.0258462
-0.0214796
-0.0221384
-0.0227685
-0.0233698
-0.0239422
-0.0244856
-0.0250002
-0.0254861
-0.0259435
-0.0263728
-0.0267769
-0.0230101
-0.0236937
-0.0243476
-0.0249717
-0.025566
-0.0261306
-0.0266656
-0.0271712
-0.027648
-0.0280971
-0.0285239
-0.0251936
-0.0259143
-0.0266042
-0.0272632
-0.0278915
-0.0284889
-0.0290558
-0.0295925
-0.0300996
-0.0305795
-0.0310414
-0.028009
-0.0287779
-0.0295147
-0.0302193
-0.0308919
-0.0315326
-0.0321416
-0.0327193
-0.0332668
-0.0337879
-0.0342971
-0.0314356
-0.0322643
-0.0330593
-0.0338208
-0.0345488
-0.0352436
-0.0359055
-0.0365349
-0.0371335
-0.0377068
-0.0382764
-0.0354738
-0.0363742
-0.0372394
-0.0380694
-0.0388643
-0.0396245
-0.0403502
-0.0410423
-0.0417029
-0.0423397
-0.0429834
-0.0401294
-0.0411144
-0.0420622
-0.042973
-0.0438469
-0.0446843
-0.0454856
-0.0462518
-0.0469862
-0.0476984
-0.0484315
-0.0454174
-0.0465008
-0.0475448
-0.0485495
-0.0495154
-0.0504428
-0.0513323
-0.0521851
-0.0530056
-0.0538064
-0.0546457
-0.0513587
-0.0525554
-0.0537101
-0.0548233
-0.0558952
-0.0569263
-0.0579176
-0.0588704
-0.0597907
-0.0606944
-0.0616586
-0.0579794
-0.0593057
-0.0605872
-0.0618243
-0.0630176
-0.0641675
-0.0652755
-0.0663428
-0.067378
-0.0684002
-0.0695105
-0.063788
-0.0653101
-0.0667836
-0.0682092
-0.0695873
-0.0709187
-0.072204
-0.0734449
-0.0746429
-0.0758094
-0.0769678
-0.0782478
-0.0716912
-0.0733839
-0.0750242
-0.076613
-0.0781509
-0.0796389
-0.0810775
-0.0824693
-0.0838157
-0.0851317
-0.0864458
-0.0879224
-0.0803523
-0.0822374
-0.0840659
-0.0858388
-0.087557
-0.0892217
-0.0908336
-0.092396
-0.0939102
-0.095396
-0.0968875
-0.0985909
-0.0898097
-0.0919105
-0.0939499
-0.0959293
-0.0978497
-0.099713
-0.10152
-0.103274
-0.104978
-0.106656
-0.10835
-0.110314
-0.100102
-0.102443
-0.104718
-0.106928
-0.109075
-0.111161
-0.113185
-0.115155
-0.117072
-0.118968
-0.12089
-0.123153
-0.111267
-0.113876
-0.116412
-0.118879
-0.121278
-0.123612
-0.125881
-0.128092
-0.130247
-0.132386
-0.134567
-0.137172
-0.123345
-0.126249
-0.129075
-0.131826
-0.134503
-0.137111
-0.139651
-0.142132
-0.144555
-0.14697
-0.149443
-0.152434
-0.136374
-0.139603
-0.142748
-0.145811
-0.148795
-0.151704
-0.15454
-0.157318
-0.160037
-0.162761
-0.165566
-0.168996
-0.150392
-0.153974
-0.157464
-0.16087
-0.164191
-0.167436
-0.170603
-0.173707
-0.176747
-0.179806
-0.182977
-0.186901
-0.165435
-0.169399
-0.173262
-0.177034
-0.180715
-0.184324
-0.187854
-0.191332
-0.19474
-0.198181
-0.201751
-0.206227
-0.181533
-0.18591
-0.190179
-0.194349
-0.198417
-0.202408
-0.206309
-0.210182
-0.213992
-0.217891
-0.221928
-0.227047
-0.198703
-0.203516
-0.208215
-0.212821
-0.217321
-0.221751
-0.226062
-0.230355
-0.234545
-0.238927
-0.243464
-0.249388
-0.216984
-0.222244
-0.227378
-0.232422
-0.237364
-0.242279
-0.24708
-0.251927
-0.256579
-0.26152
-0.266497
-0.273359
-0.236407
-0.242144
-0.247739
-0.253232
-0.258597
-0.263956
-0.269196
-0.274641
-0.279877
-0.285683
-0.291227
-0.299276
-0.256914
-0.263145
-0.269242
-0.275249
-0.281117
-0.286972
-0.292624
-0.298542
-0.304154
-0.310861
-0.317098
-0.32694
-0.278423
-0.285091
-0.291642
-0.298139
-0.304563
-0.311055
-0.317377
-0.324007
-0.330067
-0.337485
-0.343936
-0.355901
-0.301082
-0.308104
-0.314992
-0.321822
-0.328632
-0.3356
-0.34262
-0.350219
-0.357475
-0.366384
-0.373413
-0.387557
-0.325236
-0.332634
-0.339868
-0.347005
-0.354103
-0.361304
-0.368642
-0.376607
-0.384805
-0.395301
-0.404589
-0.422239
-0.35032
-0.358123
-0.36577
-0.373326
-0.380854
-0.388428
-0.396107
-0.404071
-0.412277
-0.421915
-0.43178
-0.45072
-0.0267705
-0.0278287
-0.0284065
-0.0284559
-0.0279317
-0.0268288
-0.0251413
-0.0228718
-0.0200677
-0.0167024
-0.0128653
-0.00846653
-0.0036311
0.00177697
0.00759692
0.0139168
0.0205018
0.0272943
0.034034
0.0404784
0.045775
0.0492112
0.0486681
0.0440859
0.038217
0.0350557
0.0329513
0.0298315
0.0222599
0.0110439
-0.0277306
-0.0287786
-0.029302
-0.0292706
-0.0286524
-0.0274522
-0.0256685
-0.0233083
-0.0204269
-0.0169992
-0.0131243
-0.00870273
-0.00386172
0.00155346
0.00738893
0.0137504
0.020406
0.0273003
0.0342244
0.0408833
0.0463838
0.0500195
0.0491322
0.0440548
0.0378748
0.0349141
0.0328452
0.0301181
0.0228791
0.0113479
-0.0295449
-0.0305749
-0.0309907
-0.0308013
-0.030001
-0.028612
-0.0266424
-0.0241089
-0.0210816
-0.0175386
-0.0135972
-0.00914162
-0.00429692
0.0011212
0.00698264
0.0134148
0.0202002
0.0272763
0.0345517
0.0416137
0.0475529
0.051549
0.0499769
0.0439368
0.0371872
0.0345819
0.0325879
0.0306278
0.0240165
0.0118645
-0.0321595
-0.0331561
-0.0334062
-0.0329777
-0.0319046
-0.0302345
-0.0279898
-0.025201
-0.0219644
-0.0182631
-0.0142393
-0.00975334
-0.0049211
0.000483154
0.00637055
0.0128938
0.0198487
0.0271705
0.034943
0.0425775
0.0492248
0.0537247
0.0510799
0.043617
0.0361128
0.0339795
0.0320768
0.0312706
0.0255689
0.0124712
-0.0355419
-0.0364828
-0.0364994
-0.0357422
-0.0342988
-0.0322492
-0.0296348
-0.0265076
-0.0230035
-0.0191114
-0.0150044
-0.010511
-0.00572471
-0.000368053
0.00553616
0.0121605
0.0193046
0.026917
0.0353043
0.0436604
0.0513129
0.0564406
0.0522754
0.0429516
0.0345894
0.0329771
0.0312013
0.0319164
0.0273981
0.0130159
-0.0396789
-0.0405335
-0.0402367
-0.0390483
-0.0371257
-0.0345882
-0.0315021
-0.0279485
-0.0241236
-0.0200199
-0.0158468
-0.0113925
-0.00670618
-0.0014494
0.0044554
0.0111802
0.0185156
0.0264394
0.0355219
0.0447203
0.0536949
0.0595183
0.0533363
0.0417644
0.0325292
0.0314104
0.029861
0.0323888
0.0292854
0.0133276
-0.0445749
-0.0453021
-0.0445957
-0.0428574
-0.0403319
-0.0371854
-0.0335145
-0.0294363
-0.0252459
-0.020922
-0.0167215
-0.0123808
-0.00787269
-0.00278697
0.00309901
0.00991454
0.0174291
0.0256548
0.035465
0.0455771
0.0561975
0.0626489
0.0539562
0.0398415
0.0298206
0.0290985
0.0279648
0.0324993
0.0308911
0.0132169
-0.0502461
-0.050793
-0.0495618
-0.0471346
-0.0438653
-0.0399743
-0.0355969
-0.0308681
-0.0262871
-0.0217475
-0.0175849
-0.0134654
-0.00924208
-0.00441567
0.00143342
0.00832421
0.0159987
0.0244785
0.0349906
0.0459969
0.0585506
0.0653254
0.0537381
0.0369274
0.0263297
0.0258616
0.0254252
0.0320533
0.0318243
0.0124982
-0.0567206
-0.05702
-0.0551263
-0.0518481
-0.0476719
-0.0428847
-0.0376857
-0.0323827
-0.0271732
-0.0224215
-0.0183959
-0.0146438
-0.0108453
-0.00637868
-0.000579001
0.00637155
0.0141883
0.022833
0.0339542
0.0456806
0.0602875
0.0667984
0.0522089
0.0327497
0.0219133
0.0215443
0.0221757
0.0308995
0.0317578
0.0110555
-0.0640353
-0.064004
-0.0612848
-0.0569673
-0.0516961
-0.0458288
-0.0396213
-0.0334388
-0.0277734
-0.0228567
-0.0191156
-0.0159249
-0.0127292
-0.0087275
-0.00298034
0.0040244
0.0119767
0.0206601
0.0322275
0.0443011
0.0604902
0.0660838
0.048928
0.027173
0.0164641
0.0160482
0.0181969
0.0289622
0.0305381
0.00892255
-0.072236
-0.0717729
-0.068037
-0.0624639
-0.0558836
-0.0487284
-0.0413246
-0.0341676
-0.0279473
-0.0229658
-0.0197118
-0.0173327
-0.014959
-0.0115226
-0.00581751
0.00125942
0.00936048
0.0179339
0.0297279
0.0415807
0.0577005
0.0620206
0.0436113
0.020449
0.0100282
0.00939046
0.0135317
0.0262101
0.0281986
0.00626175
-0.0813753
-0.0803597
-0.0753857
-0.0683112
-0.0601811
-0.0515033
-0.0426923
-0.0344317
-0.027615
-0.0226729
-0.0201628
-0.0189115
-0.0176214
-0.0148351
-0.00914243
-0.00193654
0.00635202
0.0146735
0.0264622
0.0373855
0.0506177
0.0535481
0.0360338
0.0131681
0.00288784
0.00175826
0.00828457
0.0226586
0.0249239
0.00331971
-0.0915126
-0.0898022
-0.0833367
-0.0744851
-0.0645365
-0.05407
-0.0436121
-0.0340975
-0.0266585
-0.021897
-0.0204564
-0.0207317
-0.0208271
-0.0187486
-0.0130112
-0.00556751
0.00297149
0.0109465
0.0225401
0.0318266
0.0393171
0.0407296
0.0261959
0.00589485
-0.00453553
-0.00652391
0.00262251
0.0184071
0.0209846
0.000348455
-0.102712
-0.100142
-0.0918992
-0.0809654
-0.0689016
-0.0563436
-0.0439671
-0.0330324
-0.0249503
-0.0205568
-0.020591
-0.0228958
-0.0247125
-0.0233602
-0.0174816
-0.00963309
-0.000759185
0.00685698
0.0181332
0.025195
0.0254183
0.0250495
0.0148049
-0.00115415
-0.0118527
-0.0150674
-0.00323649
0.0135999
0.016649
-0.00244413
-0.115043
-0.111426
-0.101087
-0.0877377
-0.0732339
-0.0582409
-0.0436406
-0.0311004
-0.0223618
-0.0185636
-0.0205504
-0.0255515
-0.029442
-0.0287808
-0.0226095
-0.0141332
-0.00481602
0.00252025
0.0134168
0.0179003
0.0113905
0.00913529
0.00323911
-0.00790162
-0.0187763
-0.0234835
-0.00909421
0.00839103
0.0121567
-0.00491383
-0.128577
-0.1237
-0.110917
-0.0947964
-0.0775004
-0.0596826
-0.0425204
-0.0281699
-0.018767
-0.0158478
-0.0204868
-0.0288986
-0.0352087
-0.0351333
-0.0284476
-0.0190695
-0.00916679
-0.00194825
0.00856783
0.0105043
-0.000910977
-0.00480671
-0.00721431
-0.0141811
-0.0250883
-0.0314259
-0.0147942
0.0029351
0.00770517
-0.00698048
-0.143389
-0.137015
-0.121415
-0.10215
-0.0816823
-0.0605955
-0.0405041
-0.0241173
-0.0140473
-0.0123445
-0.0204333
-0.0331718
-0.0422319
-0.0425503
-0.0350427
-0.0244433
-0.0137639
-0.00644588
0.00374603
0.00355375
-0.0107341
-0.0158463
-0.0158855
-0.0198061
-0.0306408
-0.0386167
-0.0202169
-0.00261665
0.00344158
-0.00861501
-0.159555
-0.151417
-0.132566
-0.109824
-0.0857648
-0.0609158
-0.0375048
-0.0188332
-0.00809504
-0.00799999
-0.0205213
-0.0386682
-0.0507592
-0.0511706
-0.0424349
-0.0302529
-0.0185474
-0.0108927
-0.00092241
-0.00259357
-0.0180665
-0.0239404
-0.0226626
-0.0246932
-0.0353807
-0.0448616
-0.0252748
-0.00812558
-0.000531455
-0.00982287
-0.177149
-0.166968
-0.144518
-0.117877
-0.0897598
-0.0606
-0.0334557
-0.0122289
-0.000817006
-0.00278072
-0.020945
-0.0457497
-0.061062
-0.0611352
-0.0506556
-0.0364904
-0.0234566
-0.0152292
-0.00535652
-0.0077879
-0.0232521
-0.0295061
-0.0277711
-0.0288608
-0.0393424
-0.0500561
-0.0299104
-0.0134751
-0.00414963
-0.0106369
-0.196239
-0.183731
-0.157288
-0.126363
-0.0936912
-0.0596249
-0.0283194
-0.00424243
0.00786093
0.00330965
-0.0219567
-0.0548179
-0.0734179
-0.072578
-0.0597256
-0.0431418
-0.0284391
-0.0194129
-0.00951976
-0.0120308
-0.0267588
-0.0331308
-0.0315792
-0.0323831
-0.0426166
-0.0541806
-0.0340963
-0.0185735
-0.00738274
-0.0111042
-0.216903
-0.201771
-0.170945
-0.135371
-0.0975938
-0.0579512
-0.0221019
0.00514442
0.0179928
0.0102395
-0.0238434
-0.0662638
-0.0880726
-0.0856079
-0.0696494
-0.0501852
-0.033452
-0.0234182
-0.0134095
-0.015412
-0.0290543
-0.0353936
-0.0344604
-0.0353656
-0.0453151
-0.0572805
-0.0378316
-0.0233529
-0.0102275
-0.0112768
-0.239168
-0.221121
-0.1856
-0.145021
-0.10153
-0.0556756
-0.0148715
0.015881
0.0295994
0.0179815
-0.0268316
-0.0803532
-0.105162
-0.100277
-0.0804058
-0.0575883
-0.0384603
-0.0272373
-0.0170419
-0.0180605
-0.0305322
-0.0367735
-0.0367225
-0.0379228
-0.0475494
-0.0594429
-0.0411339
-0.0277666
-0.0126986
-0.0112065
-0.263096
-0.241831
-0.201405
-0.155464
-0.105598
-0.0529333
-0.00679224
0.0277892
0.0426056
0.0265371
-0.0309121
-0.0969719
-0.124572
-0.11653
-0.0919337
-0.0653038
-0.0434341
-0.0308748
-0.0204411
-0.020114
-0.0314982
-0.0376317
-0.0385936
-0.0401546
-0.0494174
-0.060778
-0.0440321
-0.0317867
-0.0148231
-0.0109429
-0.288575
-0.263919
-0.218534
-0.166881
-0.109943
-0.0499563
0.00182929
0.040472
0.056687
0.0358569
-0.0357449
-0.115392
-0.145816
-0.134144
-0.104116
-0.073265
-0.0483457
-0.0343412
-0.0236355
-0.0217029
-0.0321774
-0.0382243
-0.0402403
-0.0421386
-0.0509895
-0.061404
-0.0465617
-0.0353988
-0.0166371
-0.0105309
-0.315443
-0.287384
-0.237184
-0.179474
-0.114776
-0.0470888
0.0104798
0.0532283
0.0710982
0.045577
-0.0407705
-0.13437
-0.168047
-0.152699
-0.116763
-0.0813826
-0.0531659
-0.0376491
-0.0266563
-0.0229408
-0.0327285
-0.0387238
-0.0417868
-0.0439441
-0.0523026
-0.0614347
-0.0487604
-0.0386008
-0.0181818
-0.0100096
-0.343344
-0.312173
-0.25753
-0.193453
-0.120406
-0.044847
0.0184595
0.0650222
0.0845766
0.0548016
-0.0455527
-0.152551
-0.19019
-0.171603
-0.129623
-0.0895454
-0.0578639
-0.0408115
-0.0295342
-0.0239234
-0.0332611
-0.0392308
-0.0433068
-0.0456425
-0.0533919
-0.0609663
-0.0506642
-0.0414012
-0.0194989
-0.00941242
-0.371597
-0.338092
-0.279651
-0.208989
-0.127224
-0.0439764
0.0245295
0.0744982
0.09546
0.0623088
-0.0499749
-0.168883
-0.211176
-0.190193
-0.142402
-0.0976235
-0.0624059
-0.0438401
-0.0322957
-0.024732
-0.0338508
-0.0397598
-0.0447864
-0.0472752
-0.0543528
-0.0601026
-0.0523059
-0.0438166
-0.0206276
-0.00876728
-0.39965
-0.364825
-0.303495
-0.226198
-0.135678
-0.0453138
0.0276529
0.0798553
0.102088
0.0669992
-0.0543013
-0.182989
-0.230232
-0.207811
-0.154793
-0.105497
-0.0667649
-0.0467464
-0.0349642
-0.0254353
-0.0345468
-0.0402043
-0.0461258
-0.0488147
-0.0553073
-0.0589507
-0.0537309
-0.0458705
-0.0216043
-0.00809227
-0.42748
-0.392013
-0.328906
-0.245209
-0.146292
-0.049659
0.0269684
0.0797414
0.103101
0.067121
-0.0600152
-0.195255
-0.247289
-0.224104
-0.166523
-0.112989
-0.0709054
-0.0495398
-0.0375625
-0.0261049
-0.0353599
-0.0405067
-0.0473433
-0.0502328
-0.0561643
-0.057625
-0.0550077
-0.0475943
-0.0224568
-0.00739343
-0.454281
-0.418169
-0.354845
-0.265724
-0.159325
-0.057554
0.0219016
0.0767321
0.0961462
0.0572727
-0.0707505
-0.205561
-0.262325
-0.238678
-0.177749
-0.120385
-0.0748833
-0.0522056
-0.040176
-0.0268017
-0.0364328
-0.0415722
-0.049012
-0.0516725
-0.0563995
-0.0559207
-0.0560239
-0.0490378
-0.023233
-0.00672639
-0.473068
-0.432957
-0.370444
-0.279503
-0.170235
-0.0674009
0.0107679
0.0592637
0.0780543
0.0365152
-0.0836758
-0.20869
-0.263527
-0.245345
-0.184444
-0.125873
-0.0786897
-0.0544912
-0.0423735
-0.0281244
-0.03894
-0.045459
-0.0515779
-0.0531002
-0.0555358
-0.053775
-0.0560975
-0.0497345
-0.0237838
-0.00639956
-0.480187
-0.440286
-0.375636
-0.279733
-0.167331
-0.0658169
0.00882439
0.0499804
0.0639847
0.0186758
-0.0988286
-0.219414
-0.272124
-0.251807
-0.188044
-0.128118
-0.0800349
-0.0556256
-0.0437984
-0.0288946
-0.0394674
-0.0471224
-0.0528954
-0.0540035
-0.0551583
-0.0530656
-0.0563917
-0.0504696
-0.0240882
-0.00607819
-0.485439
-0.444415
-0.376862
-0.276203
-0.162112
-0.0639079
0.00576259
0.0494915
0.0468004
-0.00146798
-0.113782
-0.229518
-0.280375
-0.256928
-0.189511
-0.128151
-0.0798562
-0.056109
-0.0446928
-0.0294033
-0.0395328
-0.0484803
-0.0541317
-0.0548643
-0.0547935
-0.0525417
-0.0567548
-0.0512819
-0.0242644
-0.00565683
-0.490484
-0.448371
-0.378895
-0.275194
-0.16122
-0.0672981
-0.00273972
0.0345687
0.0262335
-0.022335
-0.12803
-0.237999
-0.286475
-0.260897
-0.190687
-0.12815
-0.0797808
-0.056658
-0.0455554
-0.030003
-0.0399337
-0.0499922
-0.0553751
-0.0556828
-0.0544063
-0.0519059
-0.0570561
-0.0520554
-0.0243952
-0.0051716
-0.494463
-0.451444
-0.380854
-0.275669
-0.163679
-0.0751904
-0.0159955
0.0152972
0.00335757
-0.0433804
-0.141396
-0.245105
-0.291229
-0.264073
-0.191788
-0.128443
-0.0800691
-0.0574038
-0.0465574
-0.0308315
-0.0407095
-0.0516415
-0.0566117
-0.0564566
-0.0540026
-0.0512006
-0.0572947
-0.0527646
-0.024505
-0.00463949
-0.497018
-0.453271
-0.382347
-0.277325
-0.169471
-0.0881091
-0.0325594
-0.0074602
-0.0208268
-0.0640741
-0.153695
-0.250764
-0.294787
-0.266451
-0.192532
-0.128705
-0.080484
-0.0582525
-0.0476686
-0.0318938
-0.0417609
-0.0534095
-0.0578404
-0.0571867
-0.053588
-0.0504634
-0.0574873
-0.0534211
-0.0245886
-0.0040637
-0.497975
-0.453819
-0.383531
-0.280676
-0.179197
-0.104434
-0.0534849
-0.0328273
-0.045432
-0.0839553
-0.164758
-0.254889
-0.297022
-0.267959
-0.192804
-0.128789
-0.0809133
-0.0591585
-0.0488652
-0.0331933
-0.0430739
-0.0553042
-0.0590615
-0.0578739
-0.0531672
-0.0497017
-0.0576402
-0.0540328
-0.0246409
-0.00344727
-0.497205
-0.453042
-0.384587
-0.286157
-0.192106
-0.124793
-0.0785287
-0.0596681
-0.0697197
-0.102645
-0.174444
-0.257435
-0.296493
-0.268566
-0.19261
-0.128716
-0.0813699
-0.0601298
-0.0501682
-0.0347575
-0.0446631
-0.0573279
-0.0602734
-0.0585188
-0.0527439
-0.0489193
-0.0577557
-0.0546007
-0.0246631
-0.00279507
-0.494685
-0.451063
-0.385674
-0.293381
-0.208665
-0.149041
-0.107376
-0.0871527
-0.093133
-0.119854
-0.182642
-0.258433
-0.296203
-0.268281
-0.191955
-0.12852
-0.0818767
-0.0611805
-0.0516141
-0.0366183
-0.0465301
-0.0594741
-0.0614735
-0.0591221
-0.0523216
-0.0481225
-0.0578363
-0.0551247
-0.0246591
-0.00211236
-0.490348
-0.448137
-0.386869
-0.302731
-0.228727
-0.176632
-0.138427
-0.114714
-0.115287
-0.135379
-0.189274
-0.257902
-0.294573
-0.267085
-0.190825
-0.128203
-0.0824352
-0.0623161
-0.0532362
-0.0388012
-0.0486654
-0.0617309
-0.0626589
-0.0596844
-0.0519033
-0.0473183
-0.0578845
-0.0556052
-0.024633
-0.00140434
-0.483497
-0.444455
-0.388551
-0.314297
-0.251938
-0.206926
-0.167166
-0.141849
-0.135946
-0.149098
-0.194297
-0.255894
-0.291558
-0.264957
-0.189202
-0.127755
-0.0830375
-0.0635383
-0.0550629
-0.0413259
-0.0510551
-0.0640828
-0.063826
-0.0602063
-0.0514924
-0.0465138
-0.0579032
-0.0560438
-0.0245881
-0.000676288
-0.475557
-0.440181
-0.390963
-0.328051
-0.277886
-0.239496
-0.199479
-0.168264
-0.154968
-0.160963
-0.197704
-0.252495
-0.287202
-0.261874
-0.187069
-0.127166
-0.0836763
-0.064849
-0.05712
-0.0442086
-0.0536812
-0.0665113
-0.0649713
-0.0606884
-0.0510917
-0.0457162
-0.057895
-0.0564421
-0.0245277
6.62621e-05
-0.466812
-0.435708
-0.394359
-0.343892
-0.306091
-0.273796
-0.232372
-0.1937
-0.172277
-0.170985
-0.19952
-0.247806
-0.281542
-0.257823
-0.184415
-0.126428
-0.0843454
-0.0662512
-0.05943
-0.0474626
-0.0565234
-0.0689951
-0.0660913
-0.0611311
-0.0507043
-0.0449324
-0.0578623
-0.0568016
-0.0244553
0.000817545
-0.457537
-0.431405
-0.398937
-0.3616
-0.336013
-0.309208
-0.265314
-0.217982
-0.187847
-0.179218
-0.199805
-0.241942
-0.274618
-0.252801
-0.181233
-0.125531
-0.0850375
-0.0677473
-0.0620103
-0.0510964
-0.0595581
-0.0715127
-0.0671822
-0.0615348
-0.0503332
-0.044169
-0.0578077
-0.057124
-0.0243744
0.00157156
-0.448148
-0.427592
-0.404775
-0.380815
-0.367055
-0.345088
-0.297843
-0.240993
-0.201694
-0.18575
-0.19865
-0.235029
-0.2665
-0.246804
-0.177516
-0.124463
-0.085744
-0.0693399
-0.0648722
-0.0551127
-0.0627585
-0.0740426
-0.0682407
-0.0618998
-0.0499811
-0.0434325
-0.0577339
-0.0574111
-0.0242885
0.00232215
-0.439043
-0.424504
-0.411808
-0.401053
-0.398548
-0.380793
-0.329226
-0.262639
-0.213877
-0.190692
-0.196174
-0.227191
-0.25726
-0.239833
-0.17326
-0.12321
-0.0864547
-0.0710303
-0.0680194
-0.0595071
-0.0660991
-0.0765634
-0.0692633
-0.0622265
-0.0496508
-0.0427292
-0.0576434
-0.0576648
-0.0242011
0.00306305
-0.430525
-0.422253
-0.419825
-0.421737
-0.429763
-0.41521
-0.358947
-0.282827
-0.224487
-0.19417
-0.192525
-0.218548
-0.246978
-0.231899
-0.16847
-0.121758
-0.0871578
-0.0728187
-0.0714482
-0.0642683
-0.0695512
-0.0790542
-0.0702466
-0.0625148
-0.0493448
-0.0420647
-0.0575389
-0.0578868
-0.0241155
0.00378803
-0.422777
-0.420812
-0.428488
-0.442249
-0.459918
-0.447432
-0.386801
-0.301483
-0.233643
-0.196329
-0.187874
-0.209213
-0.235767
-0.223017
-0.163149
-0.12009
-0.0878398
-0.0747028
-0.0751473
-0.0693761
-0.0730856
-0.0814964
-0.0711876
-0.0627648
-0.0490654
-0.0414443
-0.0574231
-0.0580789
-0.0240347
0.00449096
-0.415857
-0.420032
-0.437339
-0.461941
-0.488324
-0.477606
-0.412631
-0.318524
-0.241484
-0.197329
-0.182411
-0.1993
-0.22376
-0.21321
-0.157311
-0.118191
-0.0884852
-0.0766774
-0.0790979
-0.0748012
-0.0766778
-0.0838729
-0.072083
-0.0629763
-0.0488146
-0.0408725
-0.0572985
-0.0582429
-0.0239616
0.00516593
-0.409695
-0.419637
-0.445822
-0.480147
-0.514347
-0.505147
-0.436183
-0.33388
-0.248143
-0.197347
-0.176339
-0.18892
-0.211114
-0.202514
-0.150973
-0.116049
-0.0890764
-0.0787328
-0.0832742
-0.0805056
-0.0803042
-0.0861691
-0.07293
-0.0631489
-0.0485943
-0.0403529
-0.0571677
)
;

boundaryField
{
    inlet
    {
        type            zeroGradient;
    }
    outlet
    {
        type            fixedValue;
        value           uniform 0;
    }
    cylinder
    {
        type            zeroGradient;
    }
    top
    {
        type            symmetryPlane;
    }
    bottom
    {
        type            symmetryPlane;
    }
    defaultFaces
    {
        type            empty;
    }
    procBoundary1to0
    {
        type            processor;
        value           nonuniform List<scalar> 
50
(
-0.373184
-0.417882
-0.417882
-0.461541
-0.461541
-0.52455
-0.498234
-0.498234
-0.540814
-0.540814
-0.547846
-0.547846
-0.550303
-0.550303
-0.550641
-0.544059
-0.544059
-0.543895
-0.543895
-0.0199849
-0.0207921
-0.022297
-0.0244422
-0.0272081
-0.0305735
-0.034538
-0.039107
-0.0442945
-0.0501199
-0.056608
-0.056608
-0.062217
-0.0699458
-0.0784098
-0.0876466
-0.0976922
-0.108584
-0.12036
-0.133058
-0.146715
-0.161367
-0.177044
-0.193773
-0.211594
-0.230529
-0.250543
-0.27161
-0.293884
-0.317625
-0.3423
)
;
    }
    procBoundary1to3
    {
        type            processor;
        value           nonuniform List<scalar> 
41
(
-0.386312
-0.389016
-0.389853
-0.39034
-0.390769
-0.391285
-0.391975
-0.392937
-0.394255
-0.396359
-0.404128
-0.419295
-0.453391
-0.496273
-0.537272
-0.529797
-0.457204
-0.347489
-0.253725
-0.196567
-0.169865
-0.178196
-0.198015
-0.19098
-0.144158
-0.11365
-0.089594
-0.0808547
-0.0876441
-0.0864434
-0.083944
-0.0883718
-0.0737253
-0.0632821
-0.0484057
-0.0398884
-0.0570334
-0.0583806
-0.0238988
0.0058073
-0.0583806
)
;
    }
}


// ************************************************************************* //
