/*--------------------------------*- C++ -*----------------------------------*\
  =========                 |
  \\      /  F ield         | OpenFOAM: The Open Source CFD Toolbox
   \\    /   O peration     | Website:  https://openfoam.org
    \\  /    A nd           | Version:  7
     \\/     M anipulation  |
\*---------------------------------------------------------------------------*/
FoamFile
{
    version     2.0;
    format      ascii;
    class       surfaceScalarField;
    location    "35";
    object      phi;
}
// * * * * * * * * * * * * * * * * * * * * * * * * * * * * * * * * * * * * * //

dimensions      [0 3 -1 0 0 0 0];

internalField   nonuniform List<scalar> 
4147
(
-4.23249e-05
4.23249e-05
-1.40723e-11
-0.000145019
0.000102695
-2.61701e-11
-0.000292242
0.000147223
-3.43052e-11
-0.000468572
0.00017633
-0.00065946
0.000190887
-0.000851993
0.000192533
-0.00103591
0.000183915
-0.00120503
0.00016912
-0.00135819
0.000153158
0.000142409
-0.00150059
-4.15572e-05
8.38821e-05
-0.000142027
0.000203164
-0.000285439
0.000290635
-0.000456175
0.000347067
-0.000639413
0.000374125
-0.000821873
0.000374994
-0.000992836
0.000354878
-0.00114562
0.000321899
-0.0012786
0.000286142
0.000260333
-0.00139652
-4.00334e-05
0.000123915
-0.000136079
0.00029921
-0.00027191
0.000426466
-0.000431518
0.000506675
-0.000599534
0.00054214
-0.000761953
0.000537413
-0.000907139
0.000500064
-0.00102738
0.000442144
-0.00112017
0.000378927
0.000329446
-0.00118928
-3.77758e-05
0.000161691
-0.000127251
0.000388685
-0.00025181
0.000551025
-0.000394866
0.000649731
-0.000540241
0.000687515
-0.000672849
0.00067002
-0.00077969
0.000606906
-0.000851515
0.00051397
-0.000884404
0.000411816
0.000325645
-0.000880604
-3.48157e-05
0.000196507
-0.000115645
0.000469515
-0.000225353
0.000660733
-0.00034659
0.000770968
-0.000462122
0.000803047
-0.00055544
0.000763338
-0.000611736
0.000663201
-0.000619679
0.000521913
-0.000573747
0.000365884
0.000224825
-0.000472928
-3.119e-05
0.000227697
-0.000101384
0.000539709
-0.000192796
0.000752144
-0.000287143
0.000865315
-0.000365899
0.000881804
-0.000410814
0.000808254
-0.00040483
0.000657218
-0.000333758
0.000450841
-0.000190302
0.000222427
1.95444e-05
1.49792e-05
-2.69384e-05
0.000254635
-8.46012e-05
0.000597372
-0.00015442
0.000821963
-0.00021702
0.000927915
-0.000252373
0.000917157
-0.000240186
0.000796067
-0.000160779
0.00057781
2.61977e-06
0.000287443
0.000263888
-3.88416e-05
-0.000338099
0.000621531
-2.20995e-05
0.000276735
-6.54278e-05
0.0006407
-0.000110507
0.000867042
-0.000136725
0.000954134
-0.000122373
0.000902804
-4.48571e-05
0.000718551
0.000118641
0.000414312
0.000389343
1.67413e-05
0.000782325
-0.000431824
-0.000857325
0.00130155
-1.67076e-05
0.000293442
-4.39826e-05
0.000667975
-6.13156e-05
0.000884375
-4.6732e-05
0.00093955
2.33065e-05
0.000832765
0.000173882
0.000567975
0.000431229
0.000156965
0.000820846
-0.000372876
0.00136294
-0.000973917
-0.00155875
0.00206436
-1.07889e-05
0.000304231
-2.03612e-05
0.000677548
-7.05907e-06
0.000871073
5.25557e-05
0.000879935
0.000183963
0.000701358
0.000414867
0.000337071
0.000775126
-0.000203294
0.00129516
-0.000892914
0.00200113
-0.00167988
-0.00246178
0.00290416
-4.36264e-06
0.000308594
5.36859e-06
0.000667816
5.2094e-05
0.000824347
0.000160829
0.0007712
0.000359048
0.000503139
0.000677132
1.89872e-05
0.00114867
-0.000674829
0.00180941
-0.00155366
0.00269251
-0.00256298
-0.00358436
0.00381509
2.5798e-06
0.000306014
3.31635e-05
0.000637233
0.000116052
0.000741459
0.000277886
0.000609367
0.000548188
0.000232837
0.000959978
-0.000392804
0.00155051
-0.00126536
0.00236102
-0.00236417
0.0034327
-0.00363466
-0.00494269
0.00479103
1.00167e-05
0.000295998
6.30215e-05
0.000584228
0.000184764
0.000619717
0.000403619
0.000390511
0.000751179
-0.000114723
0.001263
-0.000904627
0.00197973
-0.00198209
0.00294791
-0.00333235
0.00421751
-0.00490426
-0.00655046
0.00582528
1.79746e-05
0.000278023
9.49385e-05
0.000507264
0.000258205
0.000456451
0.000537977
0.000110739
0.00096795
-0.000544696
0.00158608
-0.00152276
0.00243594
-0.00283194
0.00356869
-0.0044651
0.0050432
-0.00637877
-0.00841793
0.00691066
2.64574e-05
0.000251565
0.000128909
0.000404812
0.000336335
0.000249025
0.000680888
-0.000233814
0.00119845
-0.00106226
0.00192926
-0.00225357
0.00291924
-0.00382192
0.00422292
-0.00576878
0.00590698
-0.00806283
-0.0105506
0.00803964
3.54654e-05
0.0002161
0.000164894
0.000275383
0.000419037
-5.11756e-06
0.00083215
-0.000646928
0.00144246
-0.00167257
0.00229251
-0.00310363
0.00343002
-0.00495943
0.00491127
-0.00725003
0.00680781
-0.00995937
-0.0129475
0.00920473
4.49826e-05
0.000171118
0.000202796
0.00011757
0.000506052
-0.000308374
0.000991298
-0.00113217
0.00169937
-0.00238064
0.00267535
-0.00407961
0.00396856
-0.00625264
0.00563536
-0.00891683
0.00774708
-0.0120711
-0.0156006
0.0104002
5.49696e-05
0.000116148
0.000242427
-6.98866e-05
0.000596915
-0.000662862
0.00115745
-0.00169271
0.00196782
-0.00319101
0.00307627
-0.00518805
0.0045344
-0.00771077
0.00639772
-0.0107802
0.00872897
-0.0144023
-0.0184984
0.0116268
6.53595e-05
5.07885e-05
0.000283499
-0.000288026
0.000690901
-0.00107026
0.00132916
-0.00233097
0.0022454
-0.00410724
0.00349201
-0.00643467
0.00512543
-0.00934419
0.00720359
-0.0128583
0.0097679
-0.0169667
-0.0216301
0.0128996
7.60585e-05
-2.527e-05
0.000325624
-0.000537591
0.000787022
-0.00153166
0.00150436
-0.00304831
0.0025282
-0.00513108
0.0039161
-0.00782256
0.00573356
-0.0111617
0.00805543
-0.0151802
0.0109289
-0.0198401
-0.0249259
0.0142247
8.69553e-05
-0.000112225
0.000368342
-0.000818978
0.000884086
-0.00204741
0.00168043
-0.00384466
0.00281081
-0.00626147
0.00433744
-0.00934918
0.00633533
-0.0131595
0.00890502
-0.0177499
0.012249
-0.023184
-0.029793
0.0171161
9.79366e-05
-0.000210162
0.000411181
-0.00113222
0.000980856
-0.00261708
0.00185461
-0.00471841
0.00308735
-0.0074942
0.00474279
-0.0110046
0.00689758
-0.0153143
0.00965211
-0.0205044
0.0131708
-0.0267027
-0.0342701
0.0176478
0.000108903
0.000453714
-0.00147703
0.00107623
-0.0032396
0.00202454
-0.00566672
0.00335319
-0.00882285
0.0051236
-0.012775
0.00740534
-0.0175961
0.0102772
-0.0233763
0.013829
-0.0302544
-0.0385281
0.018087
0.000495601
0.00116935
-0.00391335
0.00218851
-0.00668588
0.00360552
-0.0102399
0.00547647
-0.014646
0.00785894
-0.0199785
0.0108054
-0.0263228
0.0143476
-0.0337966
-0.0426154
0.0184349
0.00125955
-0.00463631
0.00234533
-0.00777167
0.00384274
-0.0117373
0.00580052
-0.0166038
0.0082623
-0.0224403
0.0112559
-0.0293164
0.0147723
-0.037313
-0.0465628
0.0187197
0.00134633
0.00249411
-0.00891945
0.00406379
-0.0133069
0.00609548
-0.0186355
0.00861836
-0.0249632
0.0116384
-0.0323364
0.015118
-0.0407926
-0.0503885
0.0189437
0.00263405
0.0042677
-0.0149406
0.00636078
-0.0207286
0.00892821
-0.0275306
0.0119569
-0.0353651
0.0153883
-0.044224
-0.0540971
0.0190968
0.00445327
0.00659525
0.00919117
-0.0301265
0.0122111
-0.038385
0.0155808
-0.0475937
-0.0576835
0.0191672
0.00940518
0.0123986
-0.0413784
0.0156905
-0.0508856
-0.0611368
0.0191438
0.0125156
0.0157118
-0.0540818
-0.0644422
0.0190173
0.0156398
0.0187813
-4.23249e-05
-0.000145019
-0.0015502
4.96033e-05
-0.00153798
-1.22138e-05
-0.00145164
-8.63475e-05
-0.00127686
-0.000174778
-0.00100726
-0.0002696
-0.000642809
-0.00036445
-0.000187553
-0.000455256
0.000351549
-0.000539102
0.000965942
-0.000614392
0.00164638
-0.000680438
0.00238355
-0.000737171
0.00316844
-0.000784888
0.00399251
-0.000824069
0.00484777
-0.000855263
0.0057268
-0.000879032
0.0066227
-0.000895895
0.00752908
-0.00090638
0.00843995
-0.000910874
0.00934994
-0.000909987
0.0102537
-0.000903722
0.011147
-0.000893387
0.0120244
-0.000877388
0.0128848
-0.000860336
0.0137186
-0.000833843
0.0145348
-0.00081621
0.015307
-0.000772173
0.0160784
-0.000771424
0.0167625
-0.000684036
0.0175044
-0.000741981
-0.000570011
-0.00144248
9.55634e-05
-0.00142594
-2.87569e-05
-0.00133571
-0.000176578
-0.00115783
-0.000352656
-0.000886129
-0.000541303
-0.000520736
-0.000729844
-6.5736e-05
-0.000910256
0.000471966
-0.0010768
0.00108395
-0.00122638
0.00176115
-0.00135764
0.00249443
-0.00147045
0.00327494
-0.00156539
0.00409429
-0.00164342
0.00494463
-0.0017056
0.00581864
-0.00175304
0.0067095
-0.00178676
0.00761091
-0.00180779
0.00851693
-0.00181689
0.00942222
-0.00181528
0.0103215
-0.00180295
0.0112106
-0.00178252
0.012084
-0.00175078
0.0129406
-0.00171697
0.0137711
-0.00166428
0.0145842
-0.00162934
0.0153536
-0.00154161
0.0161226
-0.00154044
0.0168048
-0.00136616
0.0175449
-0.00148215
-0.00113953
-0.00122804
0.000134319
-0.00120299
-5.38013e-05
-0.0011051
-0.000274472
-0.000921112
-0.000536643
-0.000645294
-0.00081712
-0.000278103
-0.00109704
0.000176301
-0.00136466
0.000711149
-0.00161165
0.00131829
-0.00183352
0.001989
-0.00202834
0.0027145
-0.00219595
0.00348628
-0.00233717
0.00429625
-0.0024534
0.00513682
-0.00254617
0.00600086
-0.00261709
0.00688174
-0.00266764
0.00777329
-0.00269933
0.00866968
-0.00271328
0.00956568
-0.00271128
0.010456
-0.0026933
0.0113367
-0.00266324
0.0122022
-0.00261628
0.0130516
-0.00256627
0.0138753
-0.002488
0.0146823
-0.0024364
0.0154464
-0.00230567
0.0162107
-0.00230472
0.016889
-0.00204453
0.0176257
-0.00221877
-0.00170811
-0.000908799
0.000162514
-0.000871427
-9.11726e-05
-0.000762245
-0.000383654
-0.000569327
-0.00072956
-0.000287572
-0.00109888
8.21009e-05
-0.00146671
0.000535407
-0.00181797
0.00106582
-0.00214207
0.00166561
-0.00243331
0.00232656
-0.00268929
0.00304042
-0.00290981
0.0037992
-0.00309595
0.00459523
-0.00324943
0.00542129
-0.00337223
0.00627057
-0.00346637
0.00713668
-0.00353375
0.00801366
-0.00357631
0.00889585
-0.00359547
0.00977815
-0.00359358
0.0106554
-0.00357055
0.0115237
-0.00353157
0.0123776
-0.00347017
0.0132162
-0.00340482
0.01403
-0.00330185
0.0148282
-0.00323455
0.0155843
-0.00306185
0.0163417
-0.00306208
0.0170146
-0.00271743
0.0177461
-0.00295024
-0.00227541
-0.000487897
0.000177483
-0.000434327
-0.000144742
-0.000310681
-0.0005073
-0.000106304
-0.000933937
0.000182892
-0.00138807
0.000555418
-0.00183923
0.00100692
-0.00226946
0.00153115
-0.0026663
0.00212097
-0.00302313
0.00276885
-0.00333718
0.00346727
-0.00360823
0.00420886
-0.00383753
0.00498654
-0.00402711
0.00579356
-0.00417924
0.0066235
-0.00429632
0.00747031
-0.00438055
0.00832827
-0.00443427
0.00919194
-0.00445914
0.0100564
-0.00445804
0.0109166
-0.00443077
0.0117689
-0.00438381
0.0126077
-0.00430898
0.0134323
-0.00422943
0.0142334
-0.00410295
0.01502
-0.0040212
0.0157661
-0.00380789
0.0165145
-0.00381056
0.0171805
-0.00338338
0.0179054
-0.00367512
-0.0028412
4.01798e-05
0.000152283
0.000104462
-0.000209025
0.000244869
-0.000647707
0.000462864
-0.00115193
0.000760682
-0.00168589
0.00113611
-0.00221466
0.00158474
-0.00271809
0.0021008
-0.00318236
0.00267789
-0.00360022
0.00330938
-0.00396866
0.00398859
-0.00428743
0.00470895
-0.0045579
0.00546407
-0.00478223
0.00624777
-0.00496294
0.0070541
-0.00510265
0.00787738
-0.00520383
0.00871221
-0.0052691
0.0095534
-0.00530034
0.0103962
-0.00530088
0.0112358
-0.00527038
0.0120686
-0.00521661
0.0128893
-0.00512962
0.0136971
-0.00503726
0.0144829
-0.0048887
0.0152557
-0.00479407
0.0159897
-0.00454182
0.0167276
-0.00454845
0.0173853
-0.00404113
0.0181025
-0.00439227
-0.00340544
0.000645151
0.000128664
0.00073821
-0.000302084
0.000898943
-0.000808439
0.00113223
-0.00138522
0.0014393
-0.00199296
0.00181716
-0.00259252
0.00226145
-0.00316239
0.00276704
-0.00368796
0.00332849
-0.00416167
0.00394021
-0.00458037
0.00459653
-0.00494376
0.0052918
-0.00525317
0.0060204
-0.00551084
0.00677681
-0.00571934
0.0075556
-0.00588145
0.00835153
-0.00599975
0.00915954
-0.00607711
0.00997471
-0.00611551
0.0107926
-0.00611874
0.0116084
-0.00608624
0.0124189
-0.00602705
0.0132186
-0.0059294
0.0140073
-0.00582587
0.0147755
-0.00565696
0.0155327
-0.00555127
0.0162529
-0.00526203
0.0169789
-0.00527442
0.0176275
-0.00468975
0.0183361
-0.00510082
-0.00396831
0.00134699
8.32279e-05
0.00146302
-0.00041812
0.00164527
-0.000990687
0.00189491
-0.00163486
0.00221119
-0.00230925
0.00259039
-0.00297172
0.00302838
-0.00360038
0.00352087
-0.00418045
0.00406357
-0.00470437
0.00465211
-0.0051689
0.00528196
-0.00557361
0.00594849
-0.0059197
0.00664692
-0.00620927
0.00737244
-0.00644486
0.00812019
-0.0066292
0.00888539
-0.00676495
0.00966336
-0.00685508
0.0104495
-0.00690163
0.0112395
-0.00690877
0.012029
-0.00687569
0.0128146
-0.00681269
0.0135913
-0.00670611
0.0143587
-0.00659329
0.0151078
-0.00640598
0.0158478
-0.00629131
0.0165531
-0.00596733
0.0172662
-0.0059875
0.0179052
-0.00532871
0.0186046
-0.00580028
-0.00453023
0.00213201
1.55824e-05
0.00227234
-0.000558449
0.00247705
-0.0011954
0.00274327
-0.00190108
0.00306792
-0.00263389
0.00344663
-0.00335043
0.00387575
-0.0040295
0.00435211
-0.00465681
0.00487276
-0.00522502
0.00543468
-0.00573083
0.00603463
-0.00617355
0.00666901
-0.00655408
0.00733398
-0.00687424
0.00802542
-0.0071363
0.00873911
-0.00734289
0.00947072
-0.00749656
0.010216
-0.00760033
0.0109705
-0.0076562
0.0117305
-0.00766869
0.0124914
-0.00763666
0.0132504
-0.00757166
0.0140024
-0.00745808
0.0147472
-0.00733809
0.0154757
-0.00713455
0.0161976
-0.00701321
0.0168873
-0.00665699
0.017587
-0.00668718
0.0182161
-0.00595787
0.0189064
-0.00649054
-0.0050919
0.00299444
-7.46955e-05
0.00315952
-0.000723529
0.00338695
-0.00142283
0.00366904
-0.00218317
0.00400019
-0.00296505
0.00437571
-0.00372595
0.00479276
-0.00444654
0.00524953
-0.00511358
0.00574463
-0.00572012
0.00627654
-0.00626274
0.0068433
-0.00674032
0.00744245
-0.00715323
0.00807104
-0.00750283
0.00872572
-0.00779098
0.00940285
-0.00802002
0.0100986
-0.00819228
0.010809
-0.00831075
0.0115301
-0.00837732
0.0122582
-0.00839679
0.0129892
-0.00836763
0.0137202
-0.00830266
0.0144463
-0.00818423
0.0151676
-0.00805937
0.0158751
-0.007842
0.0165784
-0.0077165
0.0172521
-0.00733078
0.0179384
-0.00737341
0.018558
-0.00657753
0.0192394
-0.00717194
-0.00565434
0.00392816
-0.000187765
0.00411787
-0.000913236
0.00436726
-0.00167222
0.00466333
-0.00247925
0.00499799
-0.0032997
0.00536662
-0.00409458
0.00576765
-0.00484757
0.00620096
-0.00554689
0.00666687
-0.00618603
0.00716541
-0.00676127
0.00769595
-0.00727085
0.00825713
-0.00771441
0.0088469
-0.0080926
0.00946263
-0.00840671
0.0101013
-0.00865865
0.0107594
-0.00885043
0.0114335
-0.00898489
0.01212
-0.00906373
0.0128152
-0.00909201
0.0135153
-0.00906776
0.0142177
-0.00900502
0.0149175
-0.00888405
0.015615
-0.00875683
0.0163012
-0.0085282
0.0169859
-0.00840127
0.0176441
-0.00798899
0.0183174
-0.00804663
0.0189283
-0.00718847
0.0196016
-0.00784526
-0.00621885
0.00492685
-0.000323586
0.00514059
-0.00112698
0.00541
-0.00194162
0.00571677
-0.00278602
0.00605054
-0.00363347
0.00640751
-0.00445155
0.00678786
-0.00522793
0.00719345
-0.00595248
0.00762642
-0.006619
0.00808835
-0.0072232
0.00857991
-0.00776241
0.00910079
-0.0082353
0.0096498
-0.0086416
0.010225
-0.00898189
0.0108238
-0.00925747
0.0114433
-0.00946994
0.0120803
-0.00962193
0.0127315
-0.00971484
0.0133934
-0.00975396
0.0140625
-0.00973681
0.0147361
-0.0096787
0.0154098
-0.0095577
0.0160837
-0.00943078
0.0167492
-0.00919365
0.0174161
-0.00906815
0.0180595
-0.00863247
0.0187207
-0.0087078
0.0193242
-0.00779196
0.0199907
-0.00851179
-0.00678713
0.00598416
-0.000482465
0.00622094
-0.00136376
0.00650696
-0.00222765
0.00681936
-0.00309841
0.00714631
-0.00396043
0.00748569
-0.00479093
0.00784002
-0.00558226
0.00821334
-0.0063258
0.0086096
-0.00701526
0.00903189
-0.00764549
0.00948208
-0.0082126
0.00996082
-0.00871404
0.0104677
-0.00914845
0.0110013
-0.0095155
0.0115596
-0.00981581
0.0121401
-0.0100504
0.0127399
-0.0102217
0.0133558
-0.0103307
0.0139847
-0.0103829
0.0146231
-0.0103752
0.0152687
-0.0103243
0.015917
-0.0102059
0.0165683
-0.0100821
0.0172141
-0.0098394
0.0178643
-0.00971836
0.0184944
-0.00926259
0.019145
-0.00935842
0.0197429
-0.00838977
0.0204043
-0.00917327
-0.00736117
0.00709377
-0.000665573
0.00735232
-0.00162231
0.0076497
-0.00252502
0.0079605
-0.00340921
0.00827296
-0.00427289
0.0085877
-0.00510567
0.00891008
-0.00590464
0.00924638
-0.0066621
0.0096023
-0.00737118
0.00998224
-0.00802543
0.0103891
-0.00861948
0.0108244
-0.00914932
0.0112883
-0.00961235
0.01178
-0.0100072
0.0122978
-0.0103337
0.0128396
-0.0105922
0.0134027
-0.0107848
0.013984
-0.0109121
0.0145809
-0.0109798
0.0151898
-0.0109841
0.0158086
-0.0109431
0.0164328
-0.0108301
0.0170631
-0.0107124
0.0176908
-0.0104671
0.0183261
-0.0103537
0.0189448
-0.00988129
0.0195869
-0.0100005
0.0201813
-0.00898416
0.02084
-0.00983195
-0.00794333
0.00824973
-0.000875669
0.00852852
-0.0019011
0.00882944
-0.00282594
0.00912873
-0.0037085
0.00941721
-0.00456137
0.00969927
-0.00538773
0.00998338
-0.00618875
0.0102779
-0.00695667
0.0105901
-0.00768338
0.0109255
-0.00836075
0.0112876
-0.00898165
0.0116788
-0.00954045
0.0120996
-0.0100332
0.0125496
-0.0104572
0.0130276
-0.0108117
0.0135316
-0.0110962
0.0140592
-0.0113123
0.0146075
-0.0114604
0.0151739
-0.0115462
0.015755
-0.0115652
0.0163488
-0.011537
0.016951
-0.0114323
0.0175623
-0.0113238
0.0181742
-0.011079
0.0187969
-0.0109764
0.0194067
-0.010491
0.0200427
-0.0106365
0.0206364
-0.00957788
0.021295
-0.0104906
-0.00853631
0.00944725
-0.00111819
0.00974377
-0.00219762
0.0100367
-0.00311891
0.0103114
-0.00398321
0.0105647
-0.00481458
0.0108053
-0.00562835
0.0110447
-0.00642818
0.0112931
-0.00720506
0.0115587
-0.00794896
0.0118477
-0.00864975
0.0121644
-0.00929834
0.0125113
-0.00988738
0.0128896
-0.0104114
0.013299
-0.0108667
0.0137385
-0.0112512
0.0142063
-0.011564
0.0147002
-0.0118062
0.0152175
-0.0119777
0.0157556
-0.0120843
0.0163113
-0.0121209
0.0168826
-0.0121083
0.0174653
-0.012015
0.0180604
-0.0119188
0.0186592
-0.0116778
0.0192722
-0.0115894
0.0198759
-0.0110948
0.0205089
-0.0112695
0.0211052
-0.0101742
0.0217669
-0.0111523
-0.00914314
0.0106829
-0.00140094
0.0109916
-0.00250628
0.0112604
-0.00338776
0.0114942
-0.00421695
0.0116994
-0.00501984
0.0118896
-0.00581854
0.0120783
-0.00661685
0.0122767
-0.00740342
0.0124934
-0.00816573
0.0127351
-0.00889145
0.0130063
-0.00956952
0.0133097
-0.0101908
0.0136466
-0.0107483
0.0140171
-0.0112371
0.0144201
-0.0116543
0.0148541
-0.011998
0.0153169
-0.012269
0.0158058
-0.0124666
0.0163185
-0.0125969
0.0168516
-0.0126541
0.0174035
-0.0126602
0.0179698
-0.0125813
0.0185518
-0.0125007
0.0191408
-0.0122669
0.0197474
-0.012196
0.0203486
-0.011696
0.020982
-0.011903
0.0215845
-0.0107766
0.022253
-0.0118208
-0.00976717
0.011954
-0.00172815
0.0122644
-0.00281669
0.0124874
-0.00361069
0.0126604
-0.00438998
0.0128043
-0.00516371
0.0129354
-0.00594969
0.013068
-0.00674944
0.0132133
-0.00754872
0.0133799
-0.00833229
0.0135741
-0.0090857
0.0138005
-0.00979594
0.0140619
-0.0104521
0.0143595
-0.0110459
0.0146934
-0.011571
0.0150627
-0.0120236
0.0154658
-0.0124011
0.0159005
-0.0127038
0.0163644
-0.0129305
0.016855
-0.0130875
0.0173691
-0.0131682
0.0179051
-0.0131962
0.0184587
-0.0131349
0.0190312
-0.0130732
0.0196142
-0.0128498
0.0202182
-0.0128
0.0208207
-0.0122985
0.0214585
-0.0125407
0.0220713
-0.0113894
0.0227507
-0.0125002
-0.010412
0.0132769
-0.00210554
0.0135623
-0.00310203
0.0137052
-0.00375358
0.0137939
-0.00447875
0.0138628
-0.00523256
0.0139272
-0.00601411
0.0139995
-0.00682175
0.0140898
-0.00763899
0.0142057
-0.00844824
0.0143532
-0.00923317
0.0145364
-0.00997909
0.0147578
-0.0106736
0.0150186
-0.0113067
0.0153189
-0.0118713
0.0156577
-0.0123624
0.0160334
-0.0127767
0.0164438
-0.0131142
0.0168863
-0.0133731
0.0173587
-0.0135599
0.0178577
-0.0136672
0.0183818
-0.0137203
0.0189267
-0.0136798
0.0194939
-0.0136404
0.020075
-0.0134309
0.0206805
-0.0134055
0.0212887
-0.0129066
0.0219351
-0.0131871
0.0225626
-0.012017
0.0232572
-0.0131947
-0.0110816
0.0147338
-0.0026147
0.014887
-0.00325517
0.0148967
-0.00376336
0.0148771
-0.00445909
0.0148591
-0.00521455
0.0148514
-0.00600642
0.0148613
-0.00683167
0.0148963
-0.00767403
0.0149627
-0.00851457
0.0150652
-0.00933568
0.0152074
-0.0101213
0.0153917
-0.0108578
0.0156188
-0.0115339
0.0158887
-0.0121412
0.0162004
-0.0126741
0.0165522
-0.0131285
0.0169419
-0.0135039
0.017367
-0.0137981
0.0178251
-0.0140179
0.018313
-0.0141551
0.0188292
-0.0142365
0.0193696
-0.0142203
0.0199356
-0.0142063
0.0205192
-0.0140146
0.0211305
-0.0140168
0.0217492
-0.0135254
0.022408
-0.0138459
0.0230563
-0.0126653
0.0237688
-0.0139072
-0.0117814
0.0323217
-0.00175861
-0.0331778
0.0319187
-0.00285216
0.0316883
-0.00353296
0.0315014
-0.00427225
0.0313443
-0.00505744
0.0312081
-0.00587024
0.0310887
-0.00671224
0.0309867
-0.00757203
0.0309047
-0.00843256
0.0308461
-0.00927708
0.0308146
-0.0100899
0.0308136
-0.0108568
0.0308459
-0.0115662
0.0309134
-0.0122086
0.0310169
-0.0127776
0.0311566
-0.0132682
0.0313317
-0.013679
0.0315408
-0.0140073
0.0317819
-0.014259
0.0320528
-0.014426
0.0323506
-0.0145343
0.032673
-0.0145427
0.0330168
-0.0145501
0.03338
-0.0143777
0.0337606
-0.0143974
0.034154
-0.0139188
0.0345665
-0.0142584
0.0349824
-0.0130813
0.0354237
-0.0143484
-0.01223
0.0390342
-0.000912501
-0.0398803
0.0382314
-0.00204938
0.0376438
-0.00294533
0.0371673
-0.00379583
0.0367694
-0.00465946
0.0364299
-0.00553079
0.0361342
-0.00641656
0.0358755
-0.00731325
0.0356512
-0.00820826
0.0354613
-0.00908723
0.0353072
-0.00993573
0.0351905
-0.0107402
0.035113
-0.0114887
0.0350758
-0.0121714
0.0350793
-0.0127811
0.0351234
-0.0133122
0.0352069
-0.0137625
0.0353283
-0.0141288
0.0354854
-0.0144161
0.035676
-0.0146166
0.0358967
-0.0147549
0.0361457
-0.0147917
0.0364186
-0.014823
0.0367151
-0.0146742
0.0370298
-0.0147121
0.0373641
-0.0142531
0.0377131
-0.0146074
0.0380811
-0.0134493
0.0384567
-0.014724
-0.0126419
0.0459717
1.26355e-05
-0.0468968
0.0450056
-0.0010833
0.0441711
-0.00211081
0.0434454
-0.00307011
0.0428138
-0.00402786
0.0422625
-0.00497952
0.0417758
-0.00592984
0.0413432
-0.00688072
0.0409592
-0.00782423
0.0406208
-0.00874888
0.0403273
-0.00964219
0.0400787
-0.0104916
0.0398757
-0.0112856
0.0397185
-0.0120143
0.0396072
-0.0126698
0.0395412
-0.0132462
0.0395191
-0.0137404
0.0395393
-0.014149
0.0395994
-0.0144761
0.039697
-0.0147142
0.0398285
-0.0148865
0.0399923
-0.0149555
0.0401833
-0.015014
0.0404019
-0.0148928
0.0406407
-0.0149509
0.040905
-0.0145175
0.0411823
-0.0148847
0.0414908
-0.0137578
0.0417947
-0.0150279
-0.0130063
0.053215
0.00100953
-0.0542119
0.0521526
-2.09392e-05
0.0511546
-0.0011128
0.0502388
-0.00215428
0.0494067
-0.00319578
0.0486574
-0.00423017
0.0479817
-0.00525416
0.0473708
-0.00626984
0.0468186
-0.00727206
0.0463213
-0.00825155
0.0458767
-0.00919759
0.0454839
-0.0100989
0.0451428
-0.0109444
0.0448529
-0.0117244
0.044614
-0.0124309
0.0444251
-0.0130573
0.0442849
-0.0136002
0.0441915
-0.0140556
0.0441423
-0.0144269
0.044135
-0.0147069
0.0441657
-0.0149172
0.0442329
-0.0150227
0.044331
-0.015112
0.0444611
-0.0150229
0.0446138
-0.0151037
0.0447982
-0.0147018
0.0449938
-0.0150803
0.0452337
-0.0139977
0.0454564
-0.0152506
-0.0133145
0.0606969
0.00206905
-0.0617565
0.0595782
0.00109776
0.0584819
-1.64755e-05
0.0574367
-0.0011091
0.056452
-0.00221103
0.0555368
-0.00331497
0.0546914
-0.0044088
0.0539121
-0.00549053
0.0531952
-0.00655514
0.0525378
-0.00759418
0.0519381
-0.00859791
0.0513951
-0.00955584
0.0509083
-0.0104575
0.0504772
-0.0112933
0.0501014
-0.0120551
0.0497799
-0.0127359
0.0495114
-0.0133317
0.0492939
-0.0138382
0.049125
-0.014258
0.0490023
-0.0145843
0.0489219
-0.0148368
0.0488823
-0.0149831
0.0488773
-0.015107
0.048909
-0.0150546
0.048966
-0.0151606
0.049061
-0.0147968
0.0491657
-0.015185
0.049328
-0.01416
0.0494604
-0.015383
-0.0135576
0.0683109
0.00316201
-0.0694039
0.0671752
0.00223351
0.0660347
0.001124
0.0649175
8.05019e-06
0.0638341
-0.00112756
0.0627979
-0.0022788
0.0618169
-0.00342785
0.0608936
-0.0045672
0.0600285
-0.00568999
0.0592214
-0.00678716
0.0584724
-0.00784884
0.0577813
-0.00886473
0.0571482
-0.00982452
0.0565734
-0.0107185
0.0560565
-0.0115382
0.055597
-0.0122764
0.0551938
-0.0129284
0.0548452
-0.0134896
0.054549
-0.0139617
0.0543029
-0.0143382
0.0541031
-0.0146371
0.0539482
-0.0148282
0.0538318
-0.0149906
0.0537566
-0.0149794
0.0537094
-0.0151135
0.0537065
-0.0147939
0.0537119
-0.0151904
0.0537884
-0.0142365
0.0538227
-0.0154173
-0.013727
0.0759344
0.00424116
-0.0770136
0.0748232
0.00334472
0.0736881
0.00225916
0.0725527
0.00114338
0.0714251
6.20952e-08
0.0703195
-0.00117319
0.0692475
-0.00235588
0.0682169
-0.00353659
0.0672327
-0.00470574
0.0662983
-0.00585283
0.0654165
-0.00696704
0.0645893
-0.00803749
0.0638183
-0.00905348
0.0631047
-0.0100049
0.0624493
-0.0108828
0.0618523
-0.0116794
0.0613132
-0.0123893
0.060831
-0.0130075
0.0604038
-0.0135345
0.0600298
-0.0139642
0.0597055
-0.0143127
0.0594296
-0.0145523
0.0591957
-0.0147568
0.0590072
-0.0147908
0.0588493
-0.0149556
0.0587419
-0.0146865
0.0586413
-0.0150898
0.0586248
-0.0142199
0.0585544
-0.0153469
-0.0138144
0.0834371
0.00525129
-0.0844472
0.0823962
0.00438565
0.0813146
0.00334068
0.0802108
0.00224721
0.079093
0.00111791
0.0779707
-5.08935e-05
0.076858
-0.00124317
0.0757653
-0.00244396
0.0747013
-0.0036417
0.0736729
-0.00482442
0.0726858
-0.00597995
0.0717446
-0.00709637
0.0708533
-0.00816215
0.0700148
-0.00916638
0.0692314
-0.0100993
0.0685045
-0.0109525
0.0678348
-0.0117196
0.0672222
-0.0123949
0.0666656
-0.0129779
0.0661638
-0.0134624
0.0657139
-0.0138628
0.0653151
-0.0141535
0.064961
-0.0144028
0.0646558
-0.0144856
0.0643834
-0.0146832
0.064167
-0.0144702
0.063956
-0.0148787
0.0638409
-0.0141049
0.0636616
-0.0151676
-0.0138129
0.0906994
0.00613851
-0.0915866
0.0897742
0.00531084
0.0887923
0.00432256
0.0877676
0.00327197
0.0867077
0.00217779
0.0856206
0.00103616
0.0845184
-0.000140966
0.0834131
-0.0013386
0.082315
-0.00254365
0.0812338
-0.00374321
0.0801779
-0.00492401
0.0791545
-0.00607298
0.0781698
-0.00717751
0.0772291
-0.0082257
0.0763366
-0.00920679
0.0754954
-0.0101113
0.0747076
-0.0109318
0.0739745
-0.0116617
0.0732961
-0.0122995
0.0726723
-0.0128386
0.0721008
-0.0132913
0.0715816
-0.0136343
0.0711087
-0.0139299
0.0706871
-0.014064
0.0702998
-0.0142958
0.0699731
-0.0141435
0.06965
-0.0145556
0.0694333
-0.0138882
0.0691434
-0.0148777
-0.0137169
0.0976307
0.00685917
-0.0983513
0.0968599
0.00608164
0.0960176
0.00516489
0.0951133
0.00417619
0.0941551
0.003136
0.0931494
0.0020419
0.0921062
0.000902232
0.0910368
-0.000269199
0.0899524
-0.0014593
0.0888639
-0.00265467
0.0877814
-0.0038415
0.0867143
-0.00500587
0.085671
-0.0061342
0.0846588
-0.00721353
0.083684
-0.00823199
0.0827517
-0.00917896
0.0818658
-0.0100459
0.0810291
-0.0108251
0.0802432
-0.0115136
0.0795091
-0.0121045
0.0788257
-0.012608
0.078194
-0.0130025
0.0776086
-0.0133445
0.0770754
-0.0135308
0.0765767
-0.0137971
0.0761419
-0.0137087
0.0757087
-0.0141224
0.07539
-0.0135695
0.0749913
-0.014479
-0.0135231
0.104183
0.00738621
-0.10471
0.103592
0.00667191
0.102919
0.0058386
0.102167
0.00492761
0.101346
0.00395745
0.10046
0.00292794
0.0995171
0.00184495
0.0985277
0.000720246
0.0975021
-0.000433676
0.0964513
-0.00160385
0.0953861
-0.00277637
0.0943173
-0.00393701
0.0932546
-0.00507154
0.0922072
-0.00616618
0.0911833
-0.00720804
0.0901897
-0.0081854
0.0892323
-0.00908844
0.0883156
-0.00990837
0.0874428
-0.0106408
0.0866164
-0.0112781
0.0858367
-0.0118283
0.0851058
-0.0122716
0.0844192
-0.0126579
0.0837839
-0.0128955
0.0831821
-0.0131953
0.0826457
-0.0131723
0.0821084
-0.0135851
0.0816906
-0.0131517
0.0811883
-0.0139768
-0.0132307
0.110356
0.00771179
-0.110681
0.109956
0.00707129
0.109466
0.00632894
0.108887
0.00550656
0.108226
0.00461854
0.107487
0.00366668
0.106677
0.00265543
0.105803
0.00159437
0.104874
0.00049486
0.103901
-0.000630955
0.102895
-0.00176977
0.101865
-0.0029075
0.100823
-0.00402975
0.0997794
-0.00512227
0.0987428
-0.00617147
0.0977221
-0.00716467
0.0967246
-0.00809094
0.0957566
-0.00894038
0.0948229
-0.00970714
0.0939277
-0.0103829
0.0930726
-0.0109732
0.092261
-0.01146
0.0914897
-0.0118865
0.0907668
-0.0121727
0.0900746
-0.0125031
0.0894472
-0.0125449
0.088816
-0.012954
0.0883058
-0.0126414
0.0877091
-0.0133801
-0.012842
0.116195
0.00784586
-0.116329
0.115981
0.00728521
0.115674
0.0066362
0.115273
0.00590763
0.114783
0.00510897
0.114206
0.00424313
0.113548
0.00331392
0.112813
0.00232893
0.11201
0.00129799
0.111147
0.000232246
0.110233
-0.000856054
0.109279
-0.00195347
0.108295
-0.00304582
0.107292
-0.00411888
0.106279
-0.00515872
0.105266
-0.00615203
0.104262
-0.00708701
0.103275
-0.00795279
0.10231
-0.00874216
0.101373
-0.00944608
0.100468
-0.0100678
0.0995982
-0.0105907
0.0987628
-0.0110512
0.097971
-0.0113808
0.0972055
-0.0117375
0.0965018
-0.0118413
0.0957911
-0.0122433
0.0951987
-0.012049
0.0945205
-0.0127019
-0.0123626
0.121781
0.00781164
-0.121747
0.121735
0.00733174
0.121597
0.00677371
0.121366
0.00613862
0.121044
0.00543141
0.120632
0.00465522
0.120132
0.00381343
0.119549
0.00291201
0.118888
0.0019592
0.118155
0.000964812
0.117359
-5.97781e-05
0.116508
-0.00110266
0.115612
-0.00214986
0.114681
-0.00318776
0.113725
-0.00420244
0.112753
-0.00518037
0.111776
-0.00610917
0.1108
-0.00697729
0.109834
-0.00777635
0.108885
-0.00849672
0.107956
-0.00913937
0.107055
-0.00968911
0.106179
-0.0101757
0.10534
-0.0105419
0.104522
-0.0109189
0.10376
-0.0110795
0.102988
-0.0114708
0.102326
-0.0113879
0.101583
-0.0119582
-0.0118017
0.127214
0.00763938
-0.127042
0.127309
0.00723664
0.127319
0.00676359
0.12724
0.00621732
0.127073
0.00559922
0.126816
0.00491193
0.126471
0.00415847
0.126039
0.00334351
0.125525
0.00247376
0.124932
0.00155768
0.124267
0.000605253
0.123537
-0.000372379
0.122749
-0.0013627
0.121914
-0.00235253
0.12104
-0.00332842
0.120137
-0.004277
0.119213
-0.00518566
0.118278
-0.00604248
0.11734
-0.00683819
0.116406
-0.00756275
0.115482
-0.00821505
0.114574
-0.00878135
0.113683
-0.00928478
0.112821
-0.00967932
0.111971
-0.0100697
0.111172
-0.0102796
0.110357
-0.0106566
0.109644
-0.0106743
0.108853
-0.0111674
-0.0111712
0.132596
0.00736041
-0.132317
0.132804
0.00702817
0.132936
0.00663192
0.132986
0.00616705
0.132953
0.0056325
0.132835
0.00503007
0.132631
0.00436231
0.132342
0.00363284
0.131968
0.00284704
0.131514
0.00201203
0.130983
0.00113646
0.13038
0.000230408
0.129712
-0.000694911
0.128987
-0.00162719
0.128212
-0.00255367
0.127397
-0.00346141
0.126549
-0.00433792
0.125678
-0.00517122
0.124791