/*--------------------------------*- C++ -*----------------------------------*\
  =========                 |
  \\      /  F ield         | OpenFOAM: The Open Source CFD Toolbox
   \\    /   O peration     | Website:  https://openfoam.org
    \\  /    A nd           | Version:  7
     \\/     M anipulation  |
\*---------------------------------------------------------------------------*/
FoamFile
{
    version     2.0;
    format      ascii;
    class       volVectorField;
    location    "35";
    object      U;
}
// * * * * * * * * * * * * * * * * * * * * * * * * * * * * * * * * * * * * * //

dimensions      [0 1 -1 0 0 0 0];

internalField   nonuniform List<vector> 
2125
(
(-0.00076023 0.000601242 3.61835e-22)
(-0.00384224 0.00130988 -1.15849e-21)
(-0.0092904 0.00165784 -1.42753e-21)
(-0.0153853 0.00174082 1.49022e-21)
(-0.0213842 0.0016309 -1.43269e-21)
(-0.0267512 0.00139414 -7.91983e-22)
(-0.0311269 0.00109191 1.39402e-21)
(-0.0343765 0.000781652 1.7753e-21)
(-0.0365505 0.000510963 -2.94974e-22)
(-0.037751 0.000323046 8.82231e-22)
(-0.000843715 0.00179043 -4.00606e-22)
(-0.0039804 0.0038977 1.37621e-21)
(-0.00936327 0.00492964 -3.42118e-21)
(-0.0153034 0.00517123 3.25767e-21)
(-0.0210706 0.0048376 1.53183e-22)
(-0.0261387 0.00412611 2.58641e-21)
(-0.0301565 0.00322027 -4.63415e-21)
(-0.0329985 0.0022923 -6.94751e-21)
(-0.0347239 0.00148576 -1.38048e-21)
(-0.0353887 0.000933124 3.17796e-21)
(-0.00100723 0.00294004 3.73352e-22)
(-0.00424837 0.00639036 3.03894e-21)
(-0.00949759 0.00807077 7.547e-21)
(-0.0151264 0.00844907 -7.15801e-21)
(-0.0204291 0.00788031 -1.68355e-21)
(-0.0248991 0.00669053 -1.5844e-21)
(-0.0282012 0.00518369 8.40566e-21)
(-0.0302288 0.00364632 5.36207e-21)
(-0.0310587 0.00231983 1.31376e-21)
(-0.030651 0.00143442 -9.85137e-21)
(-0.00124395 0.00402478 1.32465e-21)
(-0.00462963 0.00872682 -1.77732e-21)
(-0.0096706 0.0109973 -1.41111e-20)
(-0.0148275 0.0114765 1.30599e-21)
(-0.0194306 0.010654 4.22985e-21)
(-0.0230028 0.00898038 -3.40982e-21)
(-0.025232 0.00687707 -1.57063e-22)
(-0.0260394 0.00474386 -1.46246e-21)
(-0.0255316 0.00292265 3.38472e-21)
(-0.02351 0.00175559 9.8052e-21)
(-0.00154381 0.00502086 9.26706e-22)
(-0.00509968 0.0108495 -5.7978e-21)
(-0.0098484 0.01363 1.46278e-20)
(-0.0143665 0.0141612 -7.00185e-21)
(-0.0180318 0.0130602 -2.75152e-23)
(-0.020405 0.0108957 1.04263e-20)
(-0.0212047 0.0082026 -4.92313e-21)
(-0.0203882 0.0054921 5.27602e-22)
(-0.0181082 0.00321296 -2.1523e-21)
(-0.0139257 0.00185284 7.73992e-22)
(-0.00189378 0.00590657 1.11568e-20)
(-0.0056264 0.0127053 1.49505e-20)
(-0.0099862 0.0158962 -4.00266e-21)
(-0.0136904 0.0164189 8.0231e-21)
(-0.0161744 0.0150093 2.65592e-21)
(-0.0170458 0.0123464 -3.89631e-21)
(-0.0160601 0.00907288 -1.57739e-21)
(-0.0132164 0.00580884 -6.89179e-21)
(-0.00873085 0.00312159 1.56264e-21)
(-0.00187442 0.00175573 -9.07309e-21)
(-0.00227803 0.00666258 -1.07672e-20)
(-0.00617049 0.0142469 -7.79885e-21)
(-0.0100287 0.0177308 6.76109e-21)
(-0.0127329 0.0181749 -1.22437e-20)
(-0.0137858 0.016423 1.46692e-21)
(-0.0128494 0.013255 1.53937e-20)
(-0.00972283 0.00941434 -2.89755e-21)
(-0.00444954 0.00562888 1.90035e-20)
(0.00271106 0.00257566 -4.6542e-22)
(0.0126618 0.00133271 -7.98322e-21)
(-0.00267825 0.00727229 9.21185e-21)
(-0.0066859 0.0154334 -1.8307e-20)
(-0.00991031 0.0190781 -7.64332e-21)
(-0.0114148 0.019366 9.2934e-21)
(-0.0107783 0.0172366 3.66271e-22)
(-0.00772419 0.0135595 -2.89757e-20)
(-0.00209933 0.00916929 -1.77786e-21)
(0.00599395 0.00489333 -1.51552e-20)
(0.016265 0.00152209 -1.98658e-20)
(0.0298534 0.000484973 1.17393e-20)
(-0.00307392 0.00772194 -5.15566e-21)
(-0.0071203 0.0162308 2.72627e-21)
(-0.00955598 0.0198927 7.10681e-21)
(-0.00964489 0.0199422 -6.73805e-21)
(-0.00705006 0.0174015 -2.4238e-20)
(-0.00156327 0.0132163 8.55912e-21)
(0.00691621 0.00829994 1.2355e-21)
(0.0182234 0.00356822 2.28502e-20)
(0.0320215 -5.08462e-05 3.04629e-20)
(0.0497803 -0.000730161 -1.3861e-20)
(-0.00344245 0.00800067 8.32714e-21)
(-0.00741559 0.0166124 8.33225e-21)
(-0.00888138 0.0201401 -1.21159e-21)
(-0.00731964 0.0198679 3.33783e-20)
(-0.0024849 0.0168865 1.47549e-20)
(0.00575621 0.0122032 1.14198e-20)
(0.0174473 0.00679499 1.65466e-20)
(0.032359 0.00165389 -7.38763e-21)
(0.0500961 -0.00215441 -1.01799e-20)
(0.072538 -0.00229677 -1.69556e-20)
(-0.00375951 0.00810047 -6.18126e-22)
(-0.00750841 0.0165593 -1.32547e-20)
(-0.00779377 0.0197976 -9.98807e-21)
(-0.00432448 0.0191226 -1.6589e-20)
(0.00304685 0.0156792 -1.35172e-20)
(0.0143725 0.0105206 1.42519e-20)
(0.0296341 0.00467018 -1.3952e-20)
(0.0485351 -0.000822798 -9.80993e-21)
(0.0706148 -0.00476578 1.335e-21)
(0.0982401 -0.00419037 4.38472e-21)
(-0.00399901 0.00801596 -2.35122e-20)
(-0.00733071 0.0160601 1.22264e-20)
(-0.0061929 0.0188542 9.25269e-21)
(-0.000534816 0.0177018 6.5682e-21)
(0.00968719 0.0137874 -1.22764e-20)
(0.024438 0.00819384 -1.0564e-20)
(0.0436313 0.00197124 1.57684e-20)
(0.0669004 -0.00379962 -1.31807e-20)
(0.0937129 -0.00782192 -9.37474e-22)
(0.127008 -0.00635601 -1.41677e-20)
(-0.00413323 0.00774463 2.00651e-20)
(-0.00681026 0.0151114 8.91122e-21)
(-0.00397227 0.0173111 4.68708e-22)
(0.00418234 0.0156167 -1.19732e-20)
(0.0175884 0.0112385 7.34123e-22)
(0.0361172 0.00527285 1.42125e-20)
(0.0596073 -0.00122418 -4.10332e-21)
(0.0876162 -0.00717338 -5.10466e-21)
(0.119534 -0.0112137 -1.15298e-20)
(0.158961 -0.00870196 2.12969e-20)
(-0.00413333 0.00728657 1.41106e-20)
(-0.00587159 0.0137169 -2.43472e-20)
(-0.00102059 0.0151814 -1.9546e-20)
(0.00996601 0.0128943 8.86266e-21)
(0.0269104 0.00807891 1.84711e-20)
(0.0495841 0.00183125 1.61882e-20)
(0.077741 -0.00480693 -1.7446e-20)
(0.110854 -0.0107971 3.42693e-20)
(0.148229 -0.014776 -1.06337e-20)
(0.194207 -0.0110888 -2.54146e-20)
(-0.00396924 0.00664443 -2.07741e-20)
(-0.00443712 0.0118886 1.36602e-20)
(0.00277604 0.0124901 -7.01579e-21)
(0.0169581 0.0095763 8.32635e-22)
(0.0378164 0.00437228 8.0472e-21)
(0.0650174 -0.0020369 -2.54419e-20)
(0.0982186 -0.00864031 2.28816e-20)
(0.136794 -0.0144809 -2.29238e-20)
(0.179956 -0.0182787 3.6906e-20)
(0.232839 -0.0133186 1.3279e-20)
(-0.00361015 0.00582372 4.70558e-21)
(-0.00242847 0.00964638 2.7165e-20)
(0.00753137 0.00927404 -7.34561e-21)
(0.0252991 0.00571836 7.45405e-21)
(0.0504674 0.000196831 9.09421e-21)
(0.0825937 -0.0062225 -2.90974e-21)
(0.121227 -0.0125682 2.01096e-20)
(0.165624 -0.0180002 1.21196e-21)
(0.214888 -0.0214253 -2.33655e-20)
(0.274932 -0.0151273 3.21465e-20)
(-0.00302504 0.0048331 -1.22707e-20)
(0.000231736 0.00701875 -2.60697e-20)
(0.0133557 0.00558187 2.33918e-20)
(0.0351231 0.001389 1.23034e-20)
(0.0650146 -0.00435793 -5.7672e-20)
(0.102478 -0.0106087 4.84297e-20)
(0.146943 -0.0164282 -4.42143e-20)
(0.197527 -0.0211116 9.03949e-22)
(0.253211 -0.0238438 -1.00697e-20)
(0.320545 -0.0161212 -2.96942e-20)
(-0.00218343 0.00368478 1.10535e-20)
(0.00361769 0.0040431 -1.83204e-21)
(0.0203522 0.00147425 -5.74112e-21)
(0.0465517 -0.003331 -5.86287e-22)
(0.0815909 -0.00919431 -4.02226e-21)
(0.124814 -0.0150801 -1.51944e-20)
(0.175521 -0.0200728 6.35271e-21)
(0.232675 -0.023578 -1.07466e-20)
(0.295091 -0.0250225 3.47074e-21)
(0.369563 -0.0155041 1.73461e-21)
(-0.00105626 0.00239492 -2.26925e-20)
(0.00779809 0.000766539 -2.00475e-21)
(0.0286123 -0.00297541 2.88668e-21)
(0.0596868 -0.00834847 1.31796e-21)
(0.100299 -0.0142088 1.91714e-20)
(0.149703 -0.0195338 -5.78297e-20)
(0.207086 -0.0234042 3.93487e-20)
(0.271275 -0.0252309 -3.02304e-20)
(0.340817 -0.0243077 2.5134e-20)
(0.421535 -0.0119372 2.66439e-20)
(0.000383136 0.000984051 -2.90691e-21)
(0.0128337 -0.00275337 1.36034e-20)
(0.0382123 -0.00767983 -1.75528e-20)
(0.0746038 -0.0135562 -5.65014e-21)
(0.1212 -0.0192907 1.13269e-20)
(0.177183 -0.0238868 5.5418e-20)
(0.241686 -0.0264182 -1.11527e-20)
(0.313601 -0.0261358 5.47199e-21)
(0.391469 -0.0215641 -3.00121e-20)
(0.47776 -0.0056321 1.46489e-20)
(0.00215817 -0.000522708 -8.65998e-21)
(0.0187755 -0.00644813 -7.21098e-21)
(0.0492094 -0.0125363 1.99504e-21)
(0.0913458 -0.0188286 7.21918e-21)
(0.144294 -0.0243131 -2.22037e-20)
(0.207181 -0.0280583 -9.15735e-21)
(0.27914 -0.0291904 -2.95477e-20)
(0.359461 -0.0267777 3.02987e-20)
(0.448204 -0.0185544 3.31374e-20)
(0.548221 -0.00252095 -1.22225e-20)
(0.00428834 -0.00209572 -4.32789e-21)
(0.025663 -0.0102381 1.80886e-20)
(0.0616413 -0.0174253 -2.04941e-20)
(0.109923 -0.024017 -2.56696e-21)
(0.169527 -0.0291153 -1.04464e-20)
(0.239505 -0.0319114 2.291e-20)
(0.318951 -0.0317084 2.98331e-20)
(0.407336 -0.0277848 -2.93262e-20)
(0.505397 -0.0187326 3.28201e-20)
(0.612845 -0.00949722 5.38507e-21)
(0.00678897 -0.00370131 -1.2449e-20)
(0.0335247 -0.0140334 -3.66326e-20)
(0.0755261 -0.022211 3.69859e-20)
(0.130316 -0.0289473 5.44263e-21)
(0.196805 -0.0334917 7.96409e-21)
(0.273919 -0.0352075 5.352e-21)
(0.360608 -0.0336582 2.31976e-20)
(0.456175 -0.0285123 1.72706e-20)
(0.561055 -0.0192704 -6.32967e-20)
(0.671621 -0.0143828 -3.24326e-20)
(0.0423771 -0.0177356 9.01931e-21)
(0.0908643 -0.0267439 -2.12174e-20)
(0.152486 -0.0334253 4.08728e-21)
(0.226015 -0.0372036 6.83994e-21)
(0.3102 -0.0376462 -5.0507e-20)
(0.403734 -0.0346013 2.31507e-20)
(0.505517 -0.0281175 -1.56444e-20)
(0.615211 -0.0182695 1.69305e-20)
(0.727042 -0.0148824 -6.74689e-21)
(0.107639 -0.0308657 -1.17646e-21)
(0.176372 -0.037246 -5.91492e-21)
(0.257032 -0.0400011 6.68256e-23)
(0.348136 -0.0389212 2.17744e-22)
(0.448046 -0.034137 -3.49998e-20)
(0.555145 -0.0260268 4.87389e-21)
(0.668228 -0.0150352 4.6599e-20)
(0.780443 -0.0113636 2.22008e-20)
(0.125816 -0.0344141 3.62437e-20)
(0.201893 -0.0402023 8.83096e-22)
(0.28971 -0.0416389 -1.62014e-20)
(0.387514 -0.03875 4.40964e-20)
(0.493286 -0.0319415 1.00147e-20)
(0.604862 -0.0218789 7.82176e-22)
(0.720227 -0.00927543 -2.02373e-20)
(0.832101 -0.00417519 -2.82777e-20)
(0.228945 -0.0420932 -1.57219e-20)
(0.323884 -0.0418883 2.60112e-20)
(0.428103 -0.0368877 -1.30949e-20)
(0.539183 -0.0277682 -1.52328e-20)
(0.654425 -0.0154574 -3.54158e-21)
(0.771103 -0.000893818 -1.19482e-20)
(0.881905 0.0063212 1.38335e-20)
(0.359358 -0.040545 1.43993e-20)
(0.469646 -0.0331329 -4.89157e-20)
(0.585436 -0.0214449 3.2433e-20)
(0.703533 -0.00666009 -1.51407e-20)
(0.820623 0.0100654 2.39523e-20)
(0.929593 0.0197187 6.83224e-21)
(0.63171 -0.0128674 -8.21609e-21)
(0.751844 0.00452594 7.27309e-21)
(0.868473 0.023468 -1.83308e-20)
(0.974843 0.0356063 -1.96778e-20)
(0.798981 0.0180448 -2.32146e-20)
(0.914307 0.0391237 4.39826e-22)
(1.01732 0.0535856 1.37791e-20)
(0.957772 0.0568072 1.8449e-20)
(1.05673 0.073277 -8.21442e-21)
(-0.00076023 -0.000601241 -3.61835e-22)
(-0.00384224 -0.00130988 1.15849e-21)
(-0.0092904 -0.00165784 1.42753e-21)
(-0.0390192 0.000325985 1.58966e-22)
(-0.0399077 -6.97423e-05 -3.78558e-22)
(-0.0387011 -0.000515026 2.92212e-23)
(-0.0354695 -0.000996438 1.6508e-22)
(-0.0298127 -0.0014664 -2.078e-24)
(-0.0216676 -0.00189124 2.69322e-23)
(-0.0110838 -0.00225415 2.24822e-23)
(0.00180807 -0.00254726 -1.64511e-22)
(0.016817 -0.0027707 6.24025e-23)
(0.0337268 -0.00292922 -1.47175e-22)
(0.0523123 -0.00303 1.2806e-22)
(0.0723527 -0.00308106 -1.35186e-22)
(0.093637 -0.00309027 4.53273e-23)
(0.115968 -0.00306489 2.69187e-23)
(0.139162 -0.00301136 -5.31735e-23)
(0.163052 -0.00293522 -3.75803e-23)
(0.187473 -0.00284138 -2.97659e-23)
(0.212298 -0.00273368 1.04895e-23)
(0.237355 -0.00261616 1.15696e-23)
(0.262599 -0.00249064 5.86366e-24)
(0.287761 -0.00236211 -3.35631e-23)
(0.313038 -0.00222774 4.54815e-24)
(0.337765 -0.0020995 -1.36586e-23)
(0.362929 -0.00195907 5.48265e-24)
(0.386473 -0.00184642 -1.08008e-23)
(0.411966 -0.0016895 2.36766e-24)
(0.432771 -0.00162463 6.25202e-24)
(0.460657 -0.00141006 -3.81199e-25)
(0.474687 -0.0014571 4.97885e-24)
(0.510988 -0.00113107 9.25898e-24)
(-0.036347 0.000951253 3.028e-22)
(-0.0371539 -0.000241637 7.77524e-22)
(-0.0357491 -0.00157152 -1.15563e-21)
(-0.0323473 -0.00300995 3.04996e-22)
(-0.0265434 -0.00441331 1.57469e-22)
(-0.0182842 -0.00568097 -5.86168e-22)
(-0.00762566 -0.00676327 9.31274e-22)
(0.00530112 -0.00763698 -7.844e-22)
(0.0203076 -0.00830281 -2.22648e-23)
(0.0371821 -0.00877501 4.28583e-22)
(0.0557051 -0.00907505 -6.28242e-23)
(0.0756611 -0.00922679 -1.25783e-22)
(0.0968441 -0.00925372 -9.43239e-23)
(0.119062 -0.00917741 1.51146e-22)
(0.142132 -0.00901707 2.71482e-23)
(0.165893 -0.00878918 1.47987e-22)
(0.190182 -0.00850837 -8.49168e-23)
(0.214873 -0.00818611 4.42981e-23)
(0.239795 -0.00783446 1.63286e-23)
(0.264905 -0.00745884 -4.9148e-23)
(0.289936 -0.00707421 -6.12407e-23)
(0.315084 -0.00667205 5.03893e-24)
(0.339685 -0.00628828 -2.74827e-24)
(0.364726 -0.00586785 2.54451e-23)
(0.388153 -0.00553077 -2.56454e-24)
(0.413529 -0.00506085 -6.9532e-25)
(0.434232 -0.0048669 -3.69689e-24)
(0.462002 -0.00422419 -1.5786e-24)
(0.475955 -0.00436543 2.05129e-24)
(0.512121 -0.00338957 -1.08944e-23)
(-0.0309944 0.00150011 1.88409e-21)
(-0.0316405 -0.000509087 -1.70441e-21)
(-0.0298415 -0.00270667 5.08896e-22)
(-0.026103 -0.00508466 -1.88706e-21)
(-0.0200089 -0.00740182 8.08354e-22)
(-0.0115256 -0.00949183 1.85559e-21)
(-0.000721879 -0.0112742 9.40741e-23)
(0.0122709 -0.0127118 -1.27322e-21)
(0.0272692 -0.0138067 5.34885e-23)
(0.0440708 -0.0145826 3.54216e-22)
(0.062467 -0.015075 -2.92259e-22)
(0.082253 -0.0153233 1.29779e-22)
(0.103233 -0.0153659 3.41048e-22)
(0.125223 -0.0152382 2.06897e-22)
(0.148048 -0.0149718 -8.15115e-23)
(0.171552 -0.0145938 -4.22569e-22)
(0.195576 -0.0141281 2.2952e-22)
(0.219999 -0.0135938 -2.25663e-22)
(0.244654 -0.0130108 1.50056e-22)
(0.269498 -0.0123879 -7.43101e-23)
(0.294267 -0.0117501 1.79575e-22)
(0.319157 -0.011083 1.2182e-23)
(0.343509 -0.0104464 -8.0946e-24)
(0.368305 -0.00974869 -3.46967e-23)
(0.391502 -0.00918969 -1.93244e-24)
(0.416644 -0.0084093 -2.98591e-23)
(0.437143 -0.00808831 4.04918e-24)
(0.464682 -0.00702044 2.72991e-24)
(0.478482 -0.00725623 -8.49019e-24)
(0.514379 -0.00563718 -7.04672e-24)
(-0.0229433 0.0019324 -2.59342e-21)
(-0.0233571 -0.000932497 1.34533e-21)
(-0.0209711 -0.00397066 -1.49894e-21)
(-0.0167366 -0.00725886 1.60134e-21)
(-0.0102172 -0.0104572 -1.92463e-21)
(-0.00140832 -0.0133356 -1.63431e-22)
(0.00960267 -0.0157861 2.18735e-21)
(0.0226846 -0.0177602 -1.18651e-22)
(0.0376626 -0.0192622 -7.39962e-22)
(0.0543486 -0.0203256 7.6195e-24)
(0.0725501 -0.0209995 -2.39252e-23)
(0.0920786 -0.0213376 4.4264e-22)
(0.112753 -0.0213927 -7.23795e-23)
(0.134401 -0.0212131 -7.65468e-22)
(0.156859 -0.0208419 5.14756e-22)
(0.179979 -0.0203164 -1.06118e-22)
(0.203609 -0.0196696 6.75379e-23)
(0.227633 -0.0189275 1.58985e-23)
(0.251889 -0.0181177 -6.96029e-23)
(0.276337 -0.0172523 1.43326e-23)
(0.300717 -0.016366 6.17437e-23)
(0.325225 -0.0154386 2.2081e-23)
(0.349207 -0.0145539 -1.49499e-23)
(0.373639 -0.0135832 -3.99488e-24)
(0.396492 -0.0128065 4.69703e-23)
(0.421288 -0.0117198 1.26852e-23)
(0.441484 -0.0112752 -4.56027e-24)
(0.468679 -0.00978706 3.5987e-24)
(0.482253 -0.010118 -5.98078e-24)
(0.51775 -0.0078667 3.01446e-23)
(-0.0121663 0.00218434 5.42377e-21)
(-0.0122891 -0.00156148 -1.73194e-21)
(-0.00912565 -0.00540738 2.03707e-21)
(-0.00424634 -0.00956679 -1.43219e-22)
(0.00282097 -0.0136007 -1.84625e-21)
(0.0120437 -0.0172205 9.74417e-22)
(0.023311 -0.0202952 1.62088e-22)
(0.0364938 -0.0227682 -1.21403e-21)
(0.0514295 -0.0246474 -6.63501e-23)
(0.0679498 -0.0259766 6.2381e-22)
(0.0858838 -0.0268172 -3.90606e-22)
(0.105064 -0.0272365 -6.75401e-23)
(0.125328 -0.0273 4.04589e-22)
(0.14652 -0.0270679 -1.67061e-22)
(0.168491 -0.0265941 4.40269e-23)
(0.191102 -0.0259251 -3.20689e-22)
(0.214211 -0.0251023 1.4196e-22)
(0.237709 -0.0241583 4.89065e-23)
(0.261439 -0.0231281 6.60821e-24)
(0.285365 -0.0220268 -3.3563e-24)
(0.309232 -0.0208987 -2.92669e-22)
(0.333237 -0.0197175 -2.42721e-23)
(0.356731 -0.0185911 -1.71133e-23)
(0.380685 -0.0173536 6.2246e-23)
(0.403087 -0.016365 -5.40808e-23)
(0.427427 -0.0149778 -4.28642e-24)
(0.447225 -0.014414 3.13021e-23)
(0.473968 -0.0125126 1.23003e-23)
(0.487246 -0.0129394 2.55853e-23)
(0.522216 -0.010071 -1.52924e-23)
(0.00136366 0.00206991 1.27298e-21)
(0.00160155 -0.00239055 1.76567e-22)
(0.00571063 -0.00704983 -3.2545e-22)
(0.0113713 -0.0120369 -1.09858e-21)
(0.0190923 -0.0168487 4.59126e-21)
(0.0287991 -0.0211499 -1.40687e-21)
(0.0403542 -0.0247934 -9.4935e-22)
(0.0536336 -0.0277183 -6.73833e-22)
(0.0684924 -0.0299381 1.09905e-21)
(0.0847872 -0.0315063 2.59076e-22)
(0.102374 -0.032496 -5.14401e-22)
(0.121112 -0.0329862 -5.71725e-22)
(0.14086 -0.0330537 3.35175e-22)
(0.161484 -0.0327692 -1.3654e-22)
(0.182848 -0.0321959 2.08296e-22)
(0.204828 -0.0313886 1.26678e-22)
(0.227292 -0.0303965 -1.1501e-22)
(0.250141 -0.0292584 1.98157e-22)
(0.273222 -0.028016 -3.58544e-22)
(0.296506 -0.0266871 -3.69902e-23)
(0.319741 -0.0253258 -3.94026e-23)
(0.343127 -0.0238992 -2.77196e-23)
(0.366022 -0.0225391 1.12371e-22)
(0.389387 -0.0210425 -6.93684e-23)
(0.411236 -0.0198493 -8.19009e-23)
(0.435015 -0.0181689 -5.6626e-23)
(0.454325 -0.017492 -4.08547e-23)
(0.480513 -0.0151858 2.71826e-24)
(0.493428 -0.0157096 -1.89637e-23)
(0.52775 -0.0122429 -4.42071e-24)
(0.0176689 0.00168167 -3.17828e-22)
(0.0184266 -0.00349046 -1.40085e-21)
(0.0235413 -0.00894063 2.31628e-21)
(0.0301214 -0.014692 -3.4312e-21)
(0.0385824 -0.0202109 3.2267e-22)
(0.0488197 -0.025121 1.48337e-21)
(0.0606715 -0.0292671 2.52124e-24)
(0.0740237 -0.0325888 -2.13272e-21)
(0.088755 -0.0351067 2.47727e-21)
(0.104753 -0.0368837 -1.35414e-21)
(0.121906 -0.0380029 1.09939e-21)
(0.140102 -0.038553 8.3188e-22)
(0.159227 -0.0386202 -7.48196e-22)
(0.179168 -0.0382838 -6.26719e-22)
(0.19981 -0.0376153 1.11102e-22)
(0.221041 -0.0366766 -1.78219e-22)
(0.242742 -0.0355237 -6.62818e-23)
(0.264822 -0.0342009 -9.20079e-23)
(0.287138 -0.0327563 -1.29979e-22)
(0.309665 -0.0312102 2.72013e-22)
(0.332158 -0.0296259 1.80377e-22)
(0.354815 -0.0279637 -1.28414e-23)
(0.377006 -0.0263797 -9.10109e-23)
(0.399679 -0.0246334 1.92766e-22)
(0.420877 -0.0232444 1.21853e-23)
(0.443999 -0.0212797 4.93553e-23)
(0.462737 -0.0204965 -5.80449e-23)
(0.488272 -0.0177962 -4.76349e-24)
(0.500764 -0.0184179 5.72615e-24)
(0.534322 -0.0143757 1.43811e-23)
(0.0368336 0.00115023 4.35473e-21)
(0.038181 -0.0049517 -1.01386e-22)
(0.0444232 -0.0111044 1.00683e-21)
(0.052019 -0.0175453 -5.74784e-22)
(0.0612758 -0.0236882 3.90904e-22)
(0.0720605 -0.0291229 2.92257e-21)
(0.0841901 -0.0336962 -1.94425e-21)
(0.0975675 -0.0373529 -1.79261e-21)
(0.112102 -0.0401223 -1.57488e-22)
(0.127719 -0.0420755 -2.82048e-22)
(0.144341 -0.0433035 1.69321e-21)
(0.161892 -0.0439026 -1.17759e-21)
(0.180285 -0.043966 5.76896e-22)
(0.199432 -0.0435797 -1.07091e-21)
(0.219237 -0.0428218 -3.18032e-22)
(0.239606 -0.0417601 6.13741e-22)
(0.26043 -0.0404566 2.47746e-22)
(0.28163 -0.0389603 5.0369e-23)
(0.303072 -0.0373255 1.88744e-22)
(0.324734 -0.0355741 -1.26008e-22)
(0.346379 -0.0337786 -3.06949e-22)
(0.368206 -0.0318926 1.89294e-22)
(0.389596 -0.030096 8.80419e-23)
(0.411482 -0.0281107 -1.42166e-22)
(0.431941 -0.0265361 1.56708e-22)
(0.454314 -0.0242973 4.0236e-23)
(0.472403 -0.0234158 2.53159e-23)
(0.497194 -0.0203335 5.31805e-24)
(0.509208 -0.0210543 -1.22065e-23)
(0.541895 -0.0164625 -4.51034e-23)
(0.0589339 0.000340557 -2.86589e-21)
(0.0609273 -0.00674346 2.97171e-21)
(0.0684062 -0.0135475 4.21838e-22)
(0.0770833 -0.0205997 -1.69555e-21)
(0.0871569 -0.0272709 -2.36168e-21)
(0.0984691 -0.0331354 1.09678e-21)
(0.110824 -0.0380529 1.05511e-22)
(0.124152 -0.0419781 -2.11436e-21)
(0.1384 -0.0449498 -3.77834e-22)
(0.153535 -0.0470459 1.45684e-21)
(0.169523 -0.0483626 1.34925e-22)
(0.186319 -0.0490007 3.93081e-22)
(0.203871 -0.0490582 -5.71883e-22)
(0.222114 -0.0486257 1.11369e-21)
(0.240972 -0.0477859 -4.01211e-22)
(0.260369 -0.0466115 -6.72922e-22)
(0.280211 -0.0451696 5.81218e-22)
(0.300426 -0.0435128 4.62985e-22)
(0.32089 -0.0417013 -3.98775e-22)
(0.341589 -0.0397582 -7.68983e-23)
(0.362291 -0.0377652 4.25787e-23)
(0.383195 -0.0356684 -3.45461e-23)
(0.403694 -0.033672 -5.8374e-23)
(0.424706 -0.0314598 1.59258e-22)
(0.444345 -0.0297111 -1.0792e-22)
(0.465887 -0.0272097 -1.02074e-22)
(0.483257 -0.0262388 -8.40103e-24)
(0.507222 -0.0227883 8.20302e-25)
(0.51871 -0.0236095 1.07892e-23)
(0.550428 -0.0184967 -4.46066e-23)
(0.0840532 -0.000771501 2.16821e-21)
(0.0867595 -0.0088619 2.29092e-21)
(0.0955501 -0.0162707 -3.38338e-21)
(0.10534 -0.0238453 -1.92443e-21)
(0.116208 -0.0309369 4.58823e-21)
(0.127983 -0.0371272 7.16028e-22)
(0.140474 -0.0423004 -2.4755e-21)
(0.153646 -0.0464256 1.63325e-21)
(0.167496 -0.0495504 -1.43264e-21)
(0.182036 -0.0517571 1.01285e-21)
(0.197273 -0.053144 3.34321e-22)
(0.213204 -0.0538133 7.96843e-22)
(0.229803 -0.0538648 -4.29185e-22)
(0.247033 -0.0533917 -6.23212e-22)
(0.26484 -0.0524798 7.02479e-22)
(0.283163 -0.0512051 1.68086e-22)
(0.301921 -0.0496386 -4.83723e-22)
(0.321056 -0.0478364 4.22898e-22)
(0.34045 -0.0458634 -1.48861e-22)
(0.360094 -0.0437439 3.03908e-22)
(0.379767 -0.0415684 2.15591e-22)
(0.399664 -0.0392752 4.65964e-23)
(0.419193 -0.037093 -2.71944e-22)
(0.439254 -0.0346674 8.77669e-23)
(0.458 -0.0327571 4.69894e-23)
(0.478638 -0.0300058 6.91307e-23)
(0.495229 -0.0289552 9.03373e-23)
(0.518294 -0.0251518 -2.17327e-23)
(0.529215 -0.0260746 -4.19536e-23)
(0.559875 -0.0204721 6.44511e-23)
(0.112289 -0.00217132 3.32883e-21)
(0.115791 -0.0113015 2.68001e-21)
(0.125932 -0.0192621 -7.83225e-21)
(0.136819 -0.0272573 -3.0804e-21)
(0.148406 -0.0346495 9.67429e-21)
(0.16053 -0.0410549 -8.30353e-21)
(0.173021 -0.0463931 3.934e-21)
(0.185901 -0.0506502 1.72723e-21)
(0.199216 -0.0538813 -7.41553e-22)
(0.213031 -0.0561693 2.07902e-22)
(0.227397 -0.0576109 -1.28136e-21)
(0.242345 -0.0583066 1.12027e-21)
(0.257881 -0.0583551 1.02102e-21)
(0.273994 -0.0578497 -1.19374e-21)
(0.290649 -0.0568776 4.51019e-22)
(0.307803 -0.055517 -3.62892e-23)
(0.325387 -0.0538419 8.37341e-22)
(0.343353 -0.0519108 6.3179e-22)
(0.361593 -0.0497933 -1.76973e-22)
(0.380104 -0.047514 7.05496e-23)
(0.39867 -0.0451724 3.44417e-23)
(0.417487 -0.0426988 -4.17789e-22)
(0.435976 -0.040346 2.08195e-22)
(0.455017 -0.0377214 -2.68539e-22)
(0.472809 -0.035663 9.7997e-24)
(0.49248 -0.0326756 -2.88101e-23)
(0.508239 -0.0315557 -2.8308e-23)
(0.530341 -0.0274159 -7.65738e-25)
(0.540662 -0.0284415 6.71373e-23)
(0.570184 -0.0223825 1.75437e-23)
(0.143752 -0.00384235 -1.08614e-21)
(0.14816 -0.0140449 8.54871e-21)
(0.159645 -0.0224936 -2.96892e-21)
(0.171557 -0.0307934 -1.00136e-20)
(0.18372 -0.0383556 1.27098e-20)
(0.196017 -0.0448615 -5.75357e-21)
(0.20833 -0.0502754 2.32609e-22)
(0.220745 -0.0546005 -4.7478e-21)
(0.233369 -0.057896 2.46167e-21)
(0.246316 -0.0602411 1.16893e-21)
(0.25968 -0.0617267 -2.26694e-21)
(0.273527 -0.0624479 7.9972e-22)
(0.287893 -0.0624996 1.16282e-23)
(0.302789 -0.0619732 1.16014e-22)
(0.318199 -0.0609556 -9.53937e-22)
(0.334095 -0.0595258 7.93212e-22)
(0.350424 -0.0577599 2.86759e-22)
(0.367144 -0.0557182 -7.08394e-22)
(0.384156 -0.0534745 -5.14774e-22)
(0.401463 -0.0510536 1.28151e-22)
(0.418857 -0.0485636 3.37233e-22)
(0.43653 -0.0459264 -2.72388e-22)
(0.45392 -0.0434193 2.43079e-22)
(0.471884 -0.0406112 -2.20648e-24)
(0.488671 -0.038419 -4.59822e-23)
(0.50732 -0.0352103 -5.60175e-23)
(0.522206 -0.0340319 6.50583e-23)
(0.543288 -0.0295737 6.91614e-24)
(0.552985 -0.0307031 -3.89106e-24)
(0.581301 -0.0242221 -2.05968e-23)
(0.178569 -0.00577076 1.43048e-20)
(0.184034 -0.0170639 -1.41074e-23)
(0.196804 -0.0259183 -1.36035e-20)
(0.209583 -0.0343907 1.1739e-20)
(0.222104 -0.0419837 4.63859e-22)
(0.234331 -0.048476 -4.13259e-21)
(0.246238 -0.0538822 3.10275e-21)
(0.257984 -0.0582196 2.04328e-21)
(0.269739 -0.0615455 -1.80064e-21)
(0.281664 -0.0639305 -2.92107e-21)
(0.293893 -0.0654552 8.52348e-22)
(0.306521 -0.0662059 5.88769e-23)
(0.319612 -0.0662712 -4.2516e-22)
(0.333196 -0.0657383 7.61225e-22)
(0.347275 -0.0646926 -4.32083e-22)
(0.361837 -0.0632124 4.27469e-22)
(0.376836 -0.0613755 -2.33845e-22)
(0.392243 -0.0592432 6.10349e-22)
(0.407965 -0.0568932 1.72085e-22)
(0.42401 -0.0543499 -2.25476e-22)
(0.440176 -0.0517302 -4.66558e-22)
(0.456653 -0.0489472 2.76644e-22)
(0.472896 -0.0463029 -1.419e-22)
(0.489737 -0.0433275 -8.7737e-24)
(0.505476 -0.0410167 9.524e-23)
(0.523061 -0.0376021 -2.89153e-23)
(0.53704 -0.0363764 -6.70025e-23)
(0.55706 -0.0316187 -1.7554e-24)
(0.566116 -0.0328528 -2.79001e-23)
(0.593169 -0.0259855 7.59267e-23)
(0.216884 -0.00794759 3.09136e-21)
(0.22362 -0.0203221 -3.77246e-21)
(0.237535 -0.0294679 5.64119e-21)
(0.250917 -0.0379622 2.01013e-21)
(0.263481 -0.045442 2.01184e-21)
(0.275329 -0.0518135 -3.20759e-21)
(0.286553 -0.0571405 -4.82011e-21)
(0.297398 -0.0614462 3.89163e-21)
(0.30809 -0.0647794 2.82205e-21)
(0.318832 -0.0671961 -4.94402e-21)
(0.329789 -0.0687622 5.67496e-22)
(0.341084 -0.0695521 1.25087e-21)
(0.3528 -0.0696456 -7.97409e-22)
(0.364986 -0.0691243 2.19747e-21)
(0.377658 -0.0680704 -8.82576e-22)
(0.390816 -0.066561 -6.22675e-23)
(0.404425 -0.0646746 9.72243e-23)
(0.418462 -0.062473 4.82257e-22)
(0.432843 -0.0600377 -2.8504e-22)
(0.447577 -0.0573924 5.6111e-22)
(0.462472 -0.0546625 -5.30762e-22)
(0.477713 -0.0517523 -1.10821e-22)
(0.492771 -0.0489886 -1.59089e-22)
(0.508453 -0.0458629 7.57214e-23)
(0.523114 -0.0434488 -9.9494e-23)
(0.539603 -0.0398445 1.46153e-22)
(0.552652 -0.0385831 5.93951e-23)
(0.571574 -0.0335458 -2.11084e-23)
(0.579982 -0.0348852 1.61767e-23)
(0.605727 -0.0276676 -6.77672e-23)
(0.258876 -0.0103817 -5.47101e-21)
(0.267176 -0.0237746 7.28523e-21)
(0.281976 -0.033044 2.36555e-22)
(0.295553 -0.04139 -3.37325e-21)
(0.307738 -0.0486164 4.73354e-21)
(0.318825 -0.0547755 -1.12937e-21)
(0.329051 -0.0599695 2.92735e-22)
(0.33874 -0.0642164 4.36169e-21)
(0.348163 -0.0675471 -6.98706e-21)
(0.357558 -0.0699975 5.72235e-21)
(0.36711 -0.0716152 -2.03437e-21)
(0.376962 -0.0724601 -1.88012e-21)
(0.387212 -0.0726011 3.098e-22)
(0.397923 -0.072113 -2.22066e-22)
(0.409122 -0.0710736 8.5048e-22)
(0.420819 -0.0695582 4.26551e-22)
(0.432987 -0.0676455 -1.39393e-21)
(0.44561 -0.0653974 -9.34086e-23)
(0.458609 -0.0628989 9.22891e-22)
(0.471997 -0.0601725 -4.30325e-22)
(0.485589 -0.0573529 4.12683e-22)
(0.499564 -0.0543346 4.0146e-23)
(0.513411 -0.0514698 5.12084e-23)
(0.527909 -0.048211 -1.0718e-22)
(0.541471 -0.0457098 5.65218e-23)
(0.556841 -0.0419324 -5.3125e-23)
(0.568948 -0.0406467 9.94847e-24)
(0.586749 -0.0353505 -1.70759e-23)
(0.594509 -0.0367956 -8.29826e-24)
(0.618912 -0.0292638 4.99819e-23)
(0.30479 -0.0131023 -8.41311e-22)
(0.315018 -0.02735 -1.03636e-20)
(0.330258 -0.0365017 2.96238e-22)
(0.34343 -0.0445179 5.69564e-21)
(0.3547 -0.0513687 3.2202e-22)
(0.364585 -0.0572502 -5.16846e-22)
(0.373466 -0.0622824 -2.01333e-21)
(0.381731 -0.0664631 5.41987e-21)
(0.38968 -0.069797 -3.82029e-21)
(0.397566 -0.0722947 -5.48338e-22)
(0.405587 -0.0739829 3.34711e-21)
(0.413895 -0.0749046 -2.52307e-21)
(0.422598 -0.0751174 -3.31569e-22)
(0.431767 -0.0746874 1.4993e-21)
(0.441439 -0.0736882 1.46941e-21)
(0.451628 -0.0721922 -1.13461e-21)
(0.462317 -0.0702778 -1.69666e-22)
(0.473492 -0.0680073 3.61712e-22)
(0.485083 -0.0654686 -1.90935e-22)
(0.4971 -0.0626832 -1.89251e-22)
(0.509367 -0.0597947 9.71145e-23)
(0.522058 -0.0566882 -2.80508e-22)
(0.534679 -0.0537411 1.63542e-22)
(0.547979 -0.0503671 3.57034e-22)
(0.560432 -0.0477948 -1.68383e-22)
(0.574672 -0.0438616 4.01464e-23)
(0.585834 -0.0425631 -3.28803e-24)
(0.602499 -0.0370295 1.03164e-23)
(0.609621 -0.0385801 -2.1423e-23)
(0.632658 -0.0307698 -4.70985e-23)
(0.355021 -0.0161437 9.30006e-21)
(0.36753 -0.030947 -7.89074e-21)
(0.38247 -0.0396534 9.60338e-21)
(0.394406 -0.0471574 -9.50221e-21)
(0.404115 -0.0535458 3.18658e-21)
(0.412313 -0.0591219 3.79781e-21)
(0.41949 -0.0639939 1.40805e-21)
(0.426065 -0.0681238 -2.02581e-21)
(0.432341 -0.0714824 -4.41136e-21)
(0.438567 -0.0740526 3.65644e-21)
(0.444942 -0.0758381 -2.887e-21)
(0.451617 -0.0768649 4.56976e-21)
(0.458704 -0.0771778 -3.68866e-21)
(0.466277 -0.0768346 7.40785e-22)
(0.474379 -0.0759034 6.30516e-22)
(0.483029 -0.074454 4.73225e-22)
(0.492212 -0.0725644 -8.96816e-22)
(0.501919 -0.0702964 -2.53729e-22)
(0.512083 -0.0677415 5.37381e-22)
(0.522717 -0.0649199 2.07507e-22)
(0.533651 -0.061984 -5.52647e-22)
(0.54505 -0.0588095 2.4263e-22)
(0.556441 -0.0557991 -8.50793e-23)
(0.568539 -0.052328 -1.07495e-22)
(0.579883 -0.049701 1.70799e-22)
(0.592992 -0.0456295 1.60975e-23)
(0.603214 -0.0443294 6.03899e-24)
(0.618741 -0.0385805 -3.89141e-24)
(0.625242 -0.0402362 2.83144e-23)
(0.6469 -0.0321818 1.65547e-23)
(0.410257 -0.0197054 1.19684e-21)
(0.425135 -0.0345433 -9.8836e-21)
(0.438592 -0.042305 -3.89484e-22)
(0.448211 -0.049116 1.92576e-21)
(0.455633 -0.0550087 -5.86984e-21)
(0.461649 -0.0602994 -9.19444e-22)
(0.466773 -0.0650469 3.948e-21)
(0.471407 -0.0691652 -3.14607e-23)
(0.475827 -0.0725869 5.4664e-21)
(0.48026 -0.0752659 -7.62867e-21)
(0.48489 -0.0771835 4.52557e-21)
(0.489859 -0.0783485 -2.89425e-21)
(0.495276 -0.0787931 1.87572e-21)
(0.501215 -0.0785666 -1.5373e-22)
(0.507718 -0.077732 5.33985e-22)
(0.514808 -0.0763561 -3.15501e-22)
(0.522471 -0.0745168 1.51734e-22)
(0.530702 -0.0722754 -1.66239e-21)
(0.539436 -0.069727 7.27789e-22)
(0.548685 -0.0668902 -1.45649e-22)
(0.558286 -0.0639273 -2.52848e-22)
(0.568396 -0.0607034 2.36404e-22)
(0.578562 -0.0576479 1.00833e-22)
(0.589466 -0.0540964 -1.37596e-22)
(0.59971 -0.0514306 1.47994e-22)
(0.611697 -0.0472366 -6.76464e-23)
(0.620994 -0.0459464 -8.17695e-24)
(0.635389 -0.0400025 -6.91952e-24)
(0.641293 -0.0417634 9.4256e-24)
(0.661572 -0.0334966 -1.69278e-23)
(0.471706 -0.0244601 -6.93609e-21)
(0.488232 -0.0379951 -1.37504e-21)
(0.498418 -0.0441099 5.62637e-21)
(0.504406 -0.0501363 -2.18001e-21)
(0.508792 -0.0556017 2.12402e-21)
(0.512164 -0.0606954 -4.44648e-21)
(0.514924 -0.0653987 6.9733e-21)
(0.5174 -0.0695745 -1.11526e-21)
(0.519811 -0.0731185 -2.46165e-21)
(0.52234 -0.0759575 5.01219e-21)
(0.525146 -0.078052 -3.01392e-21)
(0.528355 -0.0793945 2.55664e-21)
(0.532065 -0.0800056 -2.51894e-21)
(0.536345 -0.0799266 -4.57707e-22)
(0.541236 -0.0792161 -4.0251e-22)
(0.546759 -0.0779383 1.89187e-21)
(0.552902 -0.0761713 -1.52861e-21)
(0.559659 -0.0739765 8.68501e-22)
(0.566969 -0.0714531 -5.35915e-22)
(0.574842 -0.0686182 5.71859e-22)
(0.583122 -0.0656445 -2.00987e-23)