/*--------------------------------*- C++ -*----------------------------------*\
  =========                 |
  \\      /  F ield         | OpenFOAM: The Open Source CFD Toolbox
   \\    /   O peration     | Website:  https://openfoam.org
    \\  /    A nd           | Version:  7
     \\/     M anipulation  |
\*---------------------------------------------------------------------------*/
FoamFile
{
    version     2.0;
    format      ascii;
    class       volScalarField;
    location    "120";
    object      p;
}
// * * * * * * * * * * * * * * * * * * * * * * * * * * * * * * * * * * * * * //

dimensions      [0 2 -2 0 0 0 0];

internalField   nonuniform List<scalar> 
2125
(
-0.432992
-0.4391
-0.434348
-0.445665
-0.439877
-0.452765
-0.445891
-0.439602
-0.460461
-0.452447
-0.445268
-0.436988
-0.468787
-0.459581
-0.451497
-0.442068
-0.430463
-0.41532
-0.477747
-0.467302
-0.458288
-0.447598
-0.434246
-0.41686
-0.394378
-0.487309
-0.475591
-0.465605
-0.453514
-0.438167
-0.418238
-0.393172
-0.36413
-0.497407
-0.484394
-0.473376
-0.459709
-0.442072
-0.419309
-0.391539
-0.360445
-0.327848
-0.296474
-0.507932
-0.493621
-0.481488
-0.466034
-0.445774
-0.419923
-0.389388
-0.356302
-0.322662
-0.290678
-0.518739
-0.503144
-0.489791
-0.472296
-0.449064
-0.419926
-0.386627
-0.351638
-0.317018
-0.284437
-0.529644
-0.512792
-0.498093
-0.47826
-0.451722
-0.419171
-0.383162
-0.346386
-0.310856
-0.277698
-0.540421
-0.522356
-0.506159
-0.483659
-0.453526
-0.417514
-0.378901
-0.34047
-0.304111
-0.270407
-0.550811
-0.531587
-0.513716
-0.488208
-0.454261
-0.414816
-0.373747
-0.333814
-0.296715
-0.262511
-0.560519
-0.540203
-0.520457
-0.491614
-0.453723
-0.410949
-0.367607
-0.32634
-0.288599
-0.253961
-0.569226
-0.547891
-0.526053
-0.493591
-0.45172
-0.405787
-0.36039
-0.317969
-0.279699
-0.244711
-0.57659
-0.554319
-0.53016
-0.493868
-0.448078
-0.399218
-0.352009
-0.308628
-0.269951
-0.234723
-0.582262
-0.559139
-0.532441
-0.492193
-0.44264
-0.391136
-0.342381
-0.298247
-0.259304
-0.223969
-0.585889
-0.562002
-0.532572
-0.488342
-0.43527
-0.381449
-0.331432
-0.286763
-0.247715
-0.212429
-0.587131
-0.562565
-0.530257
-0.482124
-0.425852
-0.370074
-0.319093
-0.274117
-0.235145
-0.200088
-0.585665
-0.560503
-0.525239
-0.473379
-0.414293
-0.356947
-0.305309
-0.260258
-0.221544
-0.186881
-0.581196
-0.555524
-0.5173
-0.461986
-0.400525
-0.342019
-0.290042
-0.245152
-0.206853
-0.172636
-0.573468
-0.547371
-0.506272
-0.447859
-0.384504
-0.325262
-0.273269
-0.228785
-0.191049
-0.15715
-0.562268
-0.535842
-0.492031
-0.43095
-0.36621
-0.30666
-0.254974
-0.211157
-0.174187
-0.140524
-0.547433
-0.520787
-0.474498
-0.411244
-0.345647
-0.286208
-0.235147
-0.192282
-0.156283
-0.123409
-0.528853
-0.502111
-0.453645
-0.388761
-0.32284
-0.263922
-0.213832
-0.172279
-0.137239
-0.105701
-0.506474
-0.479775
-0.429492
-0.363563
-0.297845
-0.239863
-0.19119
-0.151044
-0.1172
-0.0872607
-0.4803
-0.4538
-0.40211
-0.335743
-0.270745
-0.214171
-0.167149
-0.128663
-0.096254
-0.0680812
-0.450384
-0.424267
-0.37165
-0.305401
-0.241629
-0.186874
-0.141804
-0.105216
-0.0744679
-0.0482234
-0.416838
-0.391328
-0.338337
-0.272577
-0.210611
-0.158067
-0.115254
-0.0807939
-0.0519151
-0.0277861
-0.379834
-0.355204
-0.302264
-0.237405
-0.177841
-0.12788
-0.087608
-0.0554909
-0.0286816
-0.00688094
-0.339606
-0.316191
-0.263023
-0.200454
-0.14352
-0.0964597
-0.0589921
-0.0294106
-0.00485317
0.0144051
-0.296373
-0.274513
-0.221209
-0.16169
-0.107847
-0.0639729
-0.0295432
-0.00266037
0.0194829
0.0359819
-0.250332
-0.229725
-0.17804
-0.121386
-0.0710051
-0.0305914
0.000601808
0.0246587
0.0441834
0.0575101
-0.201871
-0.182794
-0.133334
-0.0798237
-0.0332019
0.00351442
0.0313258
0.0524617
0.0689646
0.0781587
-0.151504
-0.133976
-0.0872403
-0.0372719
0.00533439
0.03817
0.0625206
0.080645
0.0934853
0.0973364
-0.0994817
-0.0837418
-0.0400588
0.00599759
0.0443651
0.073187
0.0940257
0.108971
0.117646
0.116806
-0.0462209
-0.0325009
0.00785818
0.0496985
0.0836452
0.108355
0.125587
0.137036
0.141436
0.141534
0.00783745
0.0193473
0.0561436
0.0935332
0.122925
0.143447
0.156937
0.164709
0.165756
0.166291
0.06225
0.0713972
0.104428
0.137198
0.161948
0.178234
0.187903
0.192061
0.190258
0.189691
0.11657
0.123237
0.152345
0.180385
0.200455
0.212485
0.218313
0.218967
0.214502
0.212072
0.170349
0.174454
0.19953
0.222791
0.238185
0.24598
0.247996
0.245252
0.238142
0.233437
0.223144
0.224638
0.245626
0.264113
0.274883
0.278503
0.276778
0.270734
0.260991
0.25382
0.274519
0.273387
0.290284
0.304057
0.3103
0.309844
0.304476
0.295238
0.282896
0.273187
0.324049
0.32031
0.333168
0.342339
0.344193
0.339796
0.330916
0.318606
0.303731
0.291478
0.371323
0.365032
0.373954
0.378684
0.376331
0.368163
0.355927
0.34069
0.323378
0.308623
0.41595
0.407194
0.412333
0.412833
0.406491
0.394756
0.37935
0.36135
0.341726
0.324548
0.457562
0.44646
0.448015
0.44454
0.434467
0.419398
0.401031
0.380459
0.358668
0.33918
0.495812
0.482514
0.480731
0.473576
0.460062
0.441923
0.420831
0.397895
0.374103
0.352449
0.530382
0.515067
0.510233
0.499732
0.4831
0.462178
0.43862
0.413547
0.38794
0.364289
0.560985
0.543858
0.536296
0.522817
0.503416
0.480026
0.45428
0.427315
0.400094
0.374645
0.587364
0.568653
0.558721
0.542662
0.520868
0.495344
0.467708
0.43911
0.410489
0.383463
0.609295
0.589252
0.577334
0.559121
0.53533
0.508026
0.478811
0.448852
0.41906
0.3907
0.626591
0.605483
0.59199
0.57207
0.546697
0.517981
0.487515
0.456476
0.425751
0.396319
0.6391
0.617209
0.60257
0.581409
0.554884
0.525138
0.493757
0.461928
0.43052
0.4003
0.646707
0.624327
0.608987
0.587063
0.559827
0.529442
0.497492
0.465171
0.433339
0.402637
0.588983
0.561483
0.530857
0.498688
0.466176
0.434184
0.403282
-0.209964
-0.219479
-0.228376
-0.236679
-0.244412
-0.251601
-0.258275
-0.264458
-0.192235
-0.201103
-0.209439
-0.217262
-0.224591
-0.231445
-0.237839
-0.243789
-0.175629
-0.18383
-0.191581
-0.198901
-0.205807
-0.212317
-0.218445
-0.22421
-0.160125
-0.167717
-0.174939
-0.181805
-0.188331
-0.194531
-0.200423
-0.206025
-0.145736
-0.152761
-0.15948
-0.165904
-0.172047
-0.177919
-0.183534
-0.188905
-0.132375
-0.138858
-0.145087
-0.151069
-0.156812
-0.162325
-0.167616
-0.17269
-0.119933
-0.125906
-0.131664
-0.137213
-0.142558
-0.147705
-0.152659
-0.157426
-0.108358
-0.113852
-0.119163
-0.124296
-0.129256
-0.134048
-0.138677
-0.14315
-0.0975951
-0.102643
-0.107533
-0.112273
-0.116867
-0.121319
-0.125633
-0.129815
-0.0876148
-0.0922422
-0.0967357
-0.101102
-0.105346
-0.109468
-0.113474
-0.117365
-0.0783522
-0.08259
-0.0867145
-0.0907311
-0.0946426
-0.0984514
-0.10216
-0.105772
-0.0697645
-0.0736415
-0.0774234
-0.0811135
-0.0847141
-0.0882273
-0.0916554
-0.095001
-0.0618106
-0.0653564
-0.0688219
-0.0722092
-0.0755199
-0.078756
-0.0819192
-0.0850116
-0.0544504
-0.0576954
-0.06087
-0.0639773
-0.0670189
-0.0699962
-0.0729106
-0.0757639
-0.0476441
-0.0506153
-0.0535244
-0.0563746
-0.0591679
-0.0619054
-0.0645883
-0.067218
-0.0413785
-0.0440969
-0.0467616
-0.0493748
-0.0519383
-0.0544532
-0.0569203
-0.0593406
-0.0617152
-0.0356161
-0.0381035
-0.0405445
-0.0429406
-0.0452932
-0.0476028
-0.0498701
-0.0520957
-0.0542808
-0.0303244
-0.0326024
-0.0348402
-0.0370386
-0.0391982
-0.0413195
-0.0434029
-0.0454489
-0.0474581
-0.0254815
-0.0275706
-0.0296243
-0.0316429
-0.0336267
-0.0355758
-0.0374906
-0.0393712
-0.0412181
-0.0210654
-0.0229844
-0.0248718
-0.0267275
-0.0285516
-0.0303441
-0.0321049
-0.0338343
-0.0355323
-0.0170567
-0.0188231
-0.0205609
-0.0222699
-0.0239498
-0.0256005
-0.0272218
-0.0288136
-0.0303761
-0.0134413
-0.0150711
-0.016675
-0.0182524
-0.0198028
-0.0213259
-0.0228214
-0.024289
-0.0257288
-0.0102046
-0.0117135
-0.0131984
-0.0146588
-0.016094
-0.0175034
-0.0188865
-0.0202431
-0.021573
-0.0073306
-0.00873629
-0.0101186
-0.0114769
-0.0128108
-0.0141202
-0.0154044
-0.0166631
-0.0178959
-0.00483138
-0.00614483
-0.00743632
-0.00870507
-0.00995064
-0.0111726
-0.0123703
-0.0135434
-0.0146915
-0.00270213
-0.00393686
-0.00515077
-0.00634306
-0.00751312
-0.00866039
-0.00978429
-0.0108843
-0.01196
-0.00094449
-0.00211418
-0.00326389
-0.00439283
-0.00550033
-0.00658578
-0.00764857
-0.00868817
-0.00970409
0.000418861
-0.000699629
-0.0017987
-0.00287759
-0.00393562
-0.00497219
-0.00598672
-0.00697864
-0.00794749
0.00138028
0.000299093
-0.000763288
-0.00180619
-0.00282894
-0.00383094
-0.00481158
-0.00577035
-0.00670673
0.00186608
0.000809836
-0.000227749
-0.00124606
-0.0022446
-0.00322291
-0.00418052
-0.005117
-0.00603193
0.109232
0.0896234
0.0711483
0.0528918
0.0337269
0.0143627
-0.00460974
-0.0231531
-0.0412863
-0.058935
-0.0760222
-0.0925164
-0.108402
-0.123663
-0.138158
-0.152244
-0.165371
-0.177565
-0.189016
-0.199812
0.100877
0.0815485
0.0622629
0.0450492
0.0276557
0.00992637
-0.00738605
-0.0241237
-0.0404081
-0.0562475
-0.0715817
-0.0863732
-0.100583
-0.11413
-0.126873
-0.139367
-0.151227
-0.162361
-0.172868
-0.182823
0.0914093
0.0730423
0.0540103
0.0379267
0.0224903
0.00665247
-0.00897089
-0.0240094
-0.0385631
-0.0527135
-0.0664194
-0.0796234
-0.0922855
-0.104373
-0.115907
-0.127165
-0.137976
-0.148184
-0.157824
-0.166963
0.0814457
0.0644754
0.0465461
0.0317205
0.0180595
0.00404984
-0.00996448
-0.0234776
-0.0364879
-0.0491156
-0.0613663
-0.0731951
-0.0845831
-0.0955251
-0.106002
-0.115878
-0.125581
-0.134909
-0.143754
-0.152145
0.0719198
0.0565819
0.0401517
0.0266112
0.0144715
0.00210503
-0.0104058
-0.0225361
-0.0341783
-0.0454475
-0.0563903
-0.0669765
-0.0771768
-0.0869743
-0.0963539
-0.105307
-0.11411
-0.122604
-0.130693
-0.13839
0.0632753
0.0495536
0.0347483
0.0224677
0.011631
0.000704636
-0.0104201
-0.0212799
-0.0316975
-0.041755
-0.0515219
-0.0609881
-0.0701268
-0.0789267
-0.0873957
-0.0955412
-0.103534
-0.111232
-0.118587
-0.125624
0.0556169
0.0433811
0.0302038
0.0191548
0.00946174
-0.000209229
-0.0100752
-0.0197681
-0.0290847
-0.0380674
-0.0467896
-0.0552594
-0.0634526
-0.0713465
-0.0789387
-0.0862747
-0.0935952
-0.100608
-0.107301
-0.113734
0.0489364
0.0380399
0.0264225
0.0165628
0.0078937
-0.000684297
-0.00942478
-0.0180555
-0.0263803
-0.034409
-0.0422073
-0.0497986
-0.0571742
-0.0643334
-0.0712788
-0.07799
-0.0843307
-0.0906135
-0.0967508
-0.102665
0.0431983
0.0335094
0.0233394
0.0146012
0.00685649
-0.000767612
-0.00851304
-0.0161866
-0.0236182
-0.0307967
-0.0377731
-0.0445735
-0.0511932
-0.0576207
-0.0638446
-0.0698521
-0.0756531
-0.0813709
-0.0869631
-0.092374
0.0383518
0.0297533
0.020894
0.0131877
0.00627758
-0.000510246
-0.00738084
-0.0141995
-0.0208288
-0.0272475
-0.0334914
-0.0395843
-0.0455255
-0.0513067
-0.056922
-0.0623718
-0.0676519
-0.0728407
-0.0779144
-0.0828419
0.0343308
0.0267144
0.019021
0.0122461
0.00608658
3.52118e-05
-0.00606754
-0.0121277
-0.0180396
-0.0237801
-0.0293725
-0.0348366
-0.0401745
-0.0453807
-0.0504509
-0.0553846
-0.0601821
-0.0648972
-0.0695069
-0.0739932
0.031059
0.0243227
0.0176524
0.011706
0.00621884
0.000818105
-0.00461072
-0.0100009
-0.0152744
-0.0204105
-0.0254237
-0.0303287
-0.0351283
-0.0398191
-0.0443978
-0.0488647
-0.0532229
-0.0575131
-0.0617045
-0.0657874
0.0284559
0.0225042
0.0167214
0.0115037
0.00661637
0.00179158
-0.00304549
-0.0078458
-0.0125537
-0.0171526
-0.0216513
-0.0260598
-0.0303803
-0.0346097
-0.0387436
-0.0427807
-0.0467252
-0.0506431
-0.0544621
-0.0581812
0.0264405
0.0211846
0.0161648
0.0115826
0.007228
0.00291347
-0.00140366
-0.00568568
-0.009894
-0.0140168
-0.0180595
-0.0220287
-0.0259268
-0.029753
-0.033507
-0.0371885
-0.0407961
-0.0442881
-0.0477384
-0.0511311
0.0249342
0.0202922
0.0159242
0.0118922
0.00800896
0.00414647
0.000286513
-0.00354041
-0.00730806
-0.0110088
-0.0146459
-0.0182231
-0.0217417
-0.0252002
-0.0285968
-0.0319285
-0.0351905
-0.0383727
-0.0415137
-0.0446087
0.0238629
0.0197603
0.015946
0.0123878
0.00891986
0.00545737
0.0019995
-0.00142802
-0.00480757
-0.00813475
-0.0114114
-0.0146393
-0.0178184
-0.0209471
-0.0240236
-0.0270458
-0.0300116
-0.0329166
-0.0357821
-0.0386055
0.0231577
0.019527
0.0161812
0.0130293
0.00992572
0.00681646
0.00371195
0.000634549
-0.00240395
-0.00540142
-0.00835899
-0.0112772
-0.0141551
-0.0169914
-0.0197844
-0.0225327
-0.0252346
-0.0278876
-0.0305041
-0.0330821
0.0227555
0.019536
0.0165854
0.0137805
0.0109954
0.0081971
0.00540266
0.00263169
-0.000107795
-0.00281517
-0.00549115
-0.00813544
-0.0107468
-0.0133236
-0.0158646
-0.0183682
-0.0208331
-0.0232578
-0.0256494
-0.0280062
0.0225991
0.0197366
0.0171184
0.0146089
0.012101
0.00957553
0.00705257
0.00454934
0.00207144
-0.000381306
-0.00280935
-0.0052119
-0.00758744
-0.00993437
-0.0122513
-0.0145368
-0.0167898
-0.0190089
-0.0211986
-0.023357
0.0226367
0.0200831
0.017744
0.0154854
0.0132176
0.0109305
0.0086446
0.00637478
0.00412519
0.00189536
-0.000314958
-0.00250469
-0.00467218
-0.0068158
-0.00893415
-0.0110259
-0.0130899
-0.0151251
-0.0171341
-0.0191149
0.0228227
0.0205349
0.0184296
0.0163835
0.0143228
0.0122431
0.0101633
0.00809633
0.00604543
0.00401011
0.00199034
-1.26568e-05
-0.00199719
-0.00396163
-0.00590455
-0.00782465
-0.00972073
-0.0115918
-0.0134398
-0.015262
0.023116
0.0210559
0.019146
0.0172791
0.0153962
0.0134958
0.0115944
0.00970306
0.00782439
0.00595811
0.00410442
0.00226457
0.000440254
-0.00136695
-0.00315564
-0.00492453
-0.00667245
-0.00839841
-0.0101042
-0.0117856
0.0234804
0.0216138
0.0198665
0.0181503
0.0164189
0.0146724
0.0129245
0.0111842
0.00945394
0.0077337
0.00602389
0.00432579
0.00264105
0.000971261
-0.000682169
-0.00231797
-0.00393509
-0.00553325
-0.00711353
-0.00867136
0.0238839
0.0221801
0.0205673
0.0189766
0.0173733
0.0157575
0.0141402
0.0125288
0.0109253
0.00933005
0.00774361
0.00616722
0.00460239
0.00305056
0.00151307
-8.80731e-06
-0.00151352
-0.00299874
-0.00445969
-0.00590389
0.0242978
0.022729
0.0212261
0.0197391
0.0182423
0.0167362
0.0152289
0.0137261
0.0122298
0.0107405
0.00925918
0.0077869
0.00632517
0.00487545
0.00343908
0.00201738
0.000611683
-0.000776638
-0.00214561
-0.00349755
0.0246965
0.0232371
0.0218222
0.0204188
0.0190091
0.017593
0.0161762
0.0147631
0.0133556
0.0119544
0.0105606
0.00917516
0.00779958
0.00643516
0.00508317
0.00374484
0.00242138
0.00111409
-0.000175377
-0.00144779
0.0250564
0.0236822
0.0223353
0.0209969
0.0196557
0.0183109
0.0169662
0.0156249
0.0142888
0.0129587
0.0116357
0.0103209
0.00901561
0.00772105
0.00643843
0.00516893
0.00391368
0.00267382
0.00145062
0.000244187
0.0253555
0.0240431
0.0227451
0.0214541
0.0201633
0.0188716
0.0175809
0.0162936
0.0150114
0.0137354
0.0124665
0.0112059
0.00995478
0.00871425
0.00748545
0.0062695
0.00506751
0.00388059
0.00270997
0.00155578
0.025573
0.0242986
0.0230306
0.0217696
0.0205118
0.0192557
0.0180018
0.016752
0.0155077
0.0142701
0.0130401
0.0118187
0.010607
0.00940598
0.0082167
0.00704015
0.00587727
0.00472897
0.0035961
0.00247955
0.025692
0.0244308
0.0231709
0.0219177
0.0206697
0.0194256
0.0181855
0.0169507
0.0157227
0.0145024
0.0132911
0.0120896
0.0108988
0.00971969
0.00855318
0.00740017
0.00626154
0.00513818
0.00403105
0.00294015
0.129824
0.132636
0.136152
0.142609
0.149185
0.158142
0.16661
0.176652
0.184786
0.193076
0.196627
0.198215
0.190001
0.176715
0.142147
0.129275
0.131973
0.135313
0.141416
0.147571
0.155848
0.163483
0.172321
0.179012
0.185333
0.186731
0.185329
0.174605
0.157204
0.126404
0.128656
0.131224
0.134357
0.140067
0.145744
0.153281
0.160011
0.16759
0.172813
0.177214
0.176659
0.172764
0.160569
0.141765
0.114586
0.127964
0.130386
0.133298
0.13858
0.143751
0.150497
0.156299
0.162571
0.166361
0.168867
0.166586
0.16054
0.147497
0.128131
0.102843
0.127193
0.129453
0.132135
0.136957
0.141604
0.14752
0.15239
0.157335
0.159759
0.160445
0.15667
0.148828
0.135203
0.115614
0.0914833
0.126339
0.128422
0.130863
0.135196
0.139302
0.144354
0.148297
0.151915
0.15305
0.152044
0.146982
0.137716
0.123663
0.104201
0.0811736
0.125398
0.127288
0.129479
0.133293
0.136845
0.141008
0.144032
0.146347
0.146274
0.143739
0.137575
0.127245
0.112931
0.0939204
0.0720977
0.124366
0.126045
0.12798
0.13125
0.134237
0.137497
0.139618
0.140677
0.139481
0.135605
0.12851
0.117447
0.103058
0.0847298
0.0641781
0.123241
0.124692
0.126364
0.12907
0.131483
0.13384
0.13508
0.134954
0.132722
0.127709
0.119847
0.108343
0.0940592
0.0765527
0.057299
0.122018
0.123226
0.124631
0.126759
0.128593
0.130061
0.130444
0.129227
0.12605
0.120107
0.111641
0.0999391
0.0859218
0.0693181
0.0513682
0.120698
0.121648
0.122779
0.124325
0.125577
0.126186
0.125742
0.123544
0.119519
0.112843
0.103936
0.092231
0.0786173
0.0629641
0.0463069
0.119278
0.11996
0.120812
0.121781
0.122447
0.122243
0.12101
0.117948
0.113181
0.105953
0.0967624
0.0852074
0.072108
0.057431
0.0420388
0.117758
0.118168
0.118732
0.11914
0.119223
0.118262
0.116284
0.112479
0.107083
0.0994647
0.0901362
0.0788522
0.0663497
0.0526564
0.038487
0.116142
0.116278
0.116546
0.116419
0.115923
0.114271
0.111604
0.107174
0.101265
0.0933975
0.084063
0.0731433
0.0612935
0.048575
0.0355753
0.11443
0.114301
0.114263
0.113633
0.112573
0.110299
0.107009
0.102066
0.0957618
0.0877659
0.0785377
0.0680526
0.0568877
0.0451206
0.0332293
0.112631
0.112249
0.111896
0.110802
0.109201
0.106374
0.102537
0.0971827
0.0905975
0.0825776
0.073547
0.0635463
0.0530791
0.0422281
0.0313774
0.11075
0.110136
0.109463
0.107943
0.105835
0.102524
0.0982208
0.0925521
0.0857897
0.0778333
0.0690714
0.0595867
0.049814
0.039834
0.0299524
0.108801
0.107977
0.106984
0.105079
0.102507
0.0987794
0.0940924
0.0881961
0.0813484
0.0735274
0.0650866
0.0561332
0.047039
0.0378782
0.0288913
0.106798
0.105791
0.104484
0.102233
0.0992469
0.0951673
0.0901779
0.0841325
0.0772779
0.069649
0.0615647
0.053144
0.0447017
0.0363034
0.0281363
0.10476
0.103597
0.101992
0.0994293
0.0960849
0.0917155
0.0864998
0.0803746
0.0735774
0.0661825
0.0584752
0.0505771
0.0427523
0.0350566
0.0276345
0.10271
0.101417
0.0995356
0.0966972
0.0930503
0.0884505
0.083077
0.0769315
0.0702423
0.0631094
0.0557864
0.048391
0.041143
0.0340887
0.027338
0.100676
0.0992758
0.0971475
0.0940672
0.0901718
0.0853969
0.0799254
0.0738084
0.0672644
0.0604091
0.0534662
0.0465459
0.0398295
0.0333545
0.0272037
0.098689
0.097202
0.0948601
0.0915719
0.0874781
0.0825778
0.0770585
0.0710078
0.0646339
0.0580603
0.0514834
0.0450041
0.0387709
0.0328133
0.027193
0.0967845
0.095228
0.0927075
0.0892453
0.0849982
0.0800155
0.0744883
0.0685306
0.0623399
0.0560417
0.0498085
0.0437309
0.0379297
0.0324281
0.0272714
0.0950019
0.0933904
0.0907257
0.0871229
0.0827615
0.0777314
0.0722261
0.0663773
0.0603718
0.0543337
0.0484144
0.0426947
0.0372727
0.0321663
0.027408
0.0933842
0.0917301
0.0889534
0.0852415
0.0807988
0.075748
0.0702839
0.0645493
0.058721
0.0529192
0.0472776
0.0418681
0.0367705
0.0319986
0.0275756
0.0919788
0.0902925
0.0874324
0.08364
0.0791428
0.0740898
0.0686761
0.0630509
0.0573819
0.0517849
0.0463788
0.0412279
0.0363981
0.0318998
0.0277493
0.0908371
0.0891275
0.0862085
0.0823606
0.0778297
0.072785
0.0674214
0.0618914
0.0563548
0.0509233
0.0457044
0.0407566
0.0361351
0.0318482
0.0279074
0.0900149
0.0882898
0.0853326
0.0814498
0.0769004
0.0718674
0.066545
0.061087
0.0556474
0.0503346
0.0452482
0.0404428
0.0359666
0.0318265
0.0280304
0.0895722
0.0878396
0.0848623
0.080962
0.076404
0.0713796
0.0660812
0.0606639
0.0552774
0.0500287
0.0450128
0.0402829
0.0358831
0.0318206
0.0281017
0.132386
0.135643
0.13938
0.147153
0.154894
0.166586
0.178633
0.19453
0.211383
0.231996
0.254132
0.279969
0.307447
0.33845
0.370493
0.132498
0.135759
0.139505
0.147284
0.15504
0.166738
0.178798
0.194697
0.211537
0.232123
0.254169
0.279934
0.307421
0.338402
0.370376
0.132584
0.135846
0.139599
0.147375
0.155138
0.16683
0.178882
0.194762
0.211529
0.231981
0.254169
0.279808
0.306842
0.337385
0.368655
0.132643
0.135902
0.139662
0.147428
0.155191
0.166862
0.178888
0.194729
0.211433
0.23203
0.253614
0.2789
0.305481
0.335429
0.365764
0.132677
0.135929
0.139694
0.147441
0.155199
0.166837
0.17882
0.194537
0.211256
0.231412
0.252734
0.277613
0.303499
0.33261
0.361653
0.132685
0.135927
0.139696
0.147416
0.155163
0.166757
0.178677
0.194409
0.210738
0.230674
0.251561
0.275891
0.300878
0.32892
0.356307
0.132666
0.135895
0.139667
0.147353
0.155084
0.166629
0.178474
0.194013
0.210095
0.229735
0.250067
0.273724
0.297618
0.324365
0.349746
0.132623
0.135835
0.139608
0.147254
0.154963
0.16645
0.178261
0.193513
0.209311
0.228578
0.248256
0.271124
0.293731
0.318964
0.34199
0.132554
0.135748
0.139519
0.147119
0.154799
0.166204
0.177852
0.192913
0.208378
0.227209
0.246138
0.2681
0.289229
0.312733
0.333065
0.13246
0.135632
0.139402
0.146949
0.154601
0.165804
0.177379
0.192214
0.207299
0.225634
0.243718
0.264662
0.284123
0.305693
0.323
0.132342
0.13549
0.139255
0.146746
0.154371
0.165641
0.176823
0.191411
0.206079
0.223856
0.241007
0.260818
0.278428
0.297869
0.311832
0.132199
0.135323
0.139081
0.146516
0.154076
0.165116
0.176197
0.19051
0.204721
0.221879
0.238012
0.25658
0.27216
0.289286
0.299599
0.132032
0.135129
0.13888
0.146259
0.153837
0.164625
0.175514
0.189514
0.203231
0.219709
0.234744
0.251956
0.265336
0.279973
0.286345
0.131842
0.134912
0.138653
0.145956
0.153431
0.164084
0.174767
0.188423
0.201612
0.217349
0.231212
0.246958
0.257978
0.269961
0.272111
0.13163
0.134671
0.138397
0.145571
0.153014
0.163498
0.173956
0.187243
0.19987
0.214807
0.227429
0.241594
0.250106
0.259282
0.256942
0.131395
0.134409
0.138103
0.145348
0.152556
0.162865
0.173084
0.185974
0.198009
0.212085
0.223404
0.235873
0.241748
0.247964
0.240873
0.131138
0.134126
0.137884
0.144899
0.15206
0.162185
0.172149
0.184617
0.196026
0.209186
0.219143
0.229801
0.232935
0.23604
0.223933
0.13086
0.133819
0.137534
0.144461
0.151543
0.161472
0.17117
0.183194
0.193949
0.206141
0.214681
0.223414
0.22372
0.223539
0.206152
0.130561
0.133508
0.137179
0.144026
0.151019
0.160759
0.170188
0.181765
0.191842
0.203022
0.210067
0.216742
0.214094
0.210404
0.187379
0.130245
0.133149
0.136779
0.143513
0.150384
0.159887
0.168989
0.180043
0.18936
0.199419
0.204887
0.209351
0.203817
0.196408
0.167157
)
;

boundaryField
{
    inlet
    {
        type            zeroGradient;
    }
    outlet
    {
        type            fixedValue;
        value           nonuniform 0();
    }
    cylinder
    {
        type            zeroGradient;
    }
    top
    {
        type            symmetryPlane;
    }
    bottom
    {
        type            symmetryPlane;
    }
    defaultFaces
    {
        type            empty;
    }
    procBoundary2to0
    {
        type            processor;
        value           nonuniform List<scalar> 
26
(
0.649337
0.626768
0.611182
0.611182
0.587143
0.559833
0.529366
0.497332
0.464931
0.43303
0.402239
0.132248
0.135496
0.139223
0.14698
0.154699
0.166366
0.178374
0.194236
0.211037
0.231601
0.253684
0.279448
0.306828
0.337755
0.369726
)
;
    }
    procBoundary2to3
    {
        type            processor;
        value           nonuniform List<scalar> 
50
(
-0.427255
-0.429232
-0.429232
-0.429809
-0.434468
-0.434468
-0.43239
-0.43239
-0.426926
-0.426926
-0.413747
-0.395245
-0.395245
-0.367411
-0.367411
-0.332627
-0.332627
-0.301875
-0.270172
-0.270172
-0.249308
-0.22963
-0.211358
-0.194042
-0.17755
-0.162008
-0.147471
-0.133867
-0.121144
-0.109288
-0.0982667
-0.0880352
-0.0785577
-0.0697958
-0.0697958
-0.0640455
-0.0564261
-0.0494314
-0.0430319
-0.0371995
-0.0319093
-0.0271406
-0.0228761
-0.0191027
-0.0158142
-0.0130109
-0.0106959
-0.00889281
-0.00762028
-0.00692494
)
;
    }
}


// ************************************************************************* //
