/*--------------------------------*- C++ -*----------------------------------*\
  =========                 |
  \\      /  F ield         | OpenFOAM: The Open Source CFD Toolbox
   \\    /   O peration     | Website:  https://openfoam.org
    \\  /    A nd           | Version:  7
     \\/     M anipulation  |
\*---------------------------------------------------------------------------*/
FoamFile
{
    version     2.0;
    format      ascii;
    class       volScalarField;
    location    "285";
    object      p;
}
// * * * * * * * * * * * * * * * * * * * * * * * * * * * * * * * * * * * * * //

dimensions      [0 2 -2 0 0 0 0];

internalField   nonuniform List<scalar> 
2125
(
0.650049
0.6275
0.611962
0.651386
0.628826
0.613255
0.591064
0.56356
0.53292
0.500729
0.468189
0.436155
0.405211
0.647711
0.625445
0.610299
0.588574
0.561504
0.53125
0.499399
0.467149
0.435366
0.404689
0.639073
0.6174
0.603133
0.582361
0.556171
0.526699
0.495537
0.463878
0.432605
0.402494
0.625561
0.604771
0.591823
0.57248
0.54761
0.519309
0.489179
0.458406
0.427897
0.398642
0.607298
0.587671
0.576468
0.559015
0.535891
0.50914
0.480377
0.450779
0.421278
0.393156
0.58445
0.566248
0.557194
0.542074
0.521105
0.49627
0.469197
0.441052
0.412796
0.386067
0.557213
0.540683
0.534156
0.521787
0.503366
0.480794
0.45572
0.429297
0.402511
0.377414
0.525823
0.511186
0.507536
0.498308
0.482804
0.462825
0.440042
0.415595
0.390491
0.367243
0.490547
0.478001
0.477542
0.471815
0.45957
0.442491
0.422272
0.40004
0.376814
0.355608
0.451682
0.441399
0.444405
0.442503
0.433831
0.419934
0.402531
0.382737
0.361569
0.34257
0.409558
0.401677
0.408382
0.41059
0.405772
0.395312
0.380954
0.3638
0.34485
0.328195
0.364527
0.35916
0.369751
0.376311
0.375594
0.368796
0.357684
0.343353
0.326761
0.312555
0.31697
0.314193
0.328809
0.339916
0.343509
0.340567
0.332879
0.321528
0.30741
0.295727
0.267285
0.267141
0.28587
0.301673
0.309744
0.310817
0.306701
0.298467
0.286913
0.277785
0.215892
0.21839
0.241266
0.261861
0.274536
0.279749
0.279324
0.274321
0.265389
0.258803
0.163221
0.168337
0.19534
0.220769
0.238131
0.247571
0.250927
0.249251
0.242967
0.238838
0.109717
0.117389
0.148446
0.178698
0.200782
0.214496
0.221692
0.223435
0.219802
0.217931
0.055831
0.0659634
0.100948
0.135951
0.162749
0.180744
0.191799
0.197055
0.196086
0.196048
0.00201524
0.0144779
0.0532137
0.0928401
0.124294
0.146538
0.161419
0.17029
0.172167
0.173208
-0.0512772
-0.0366511
0.00561627
0.0496733
0.0856798
0.11211
0.130726
0.143264
0.148487
0.149109
-0.103597
-0.0870131
-0.041472
0.00675724
0.0471656
0.0776914
0.0998947
0.115909
0.125386
0.125159
-0.154498
-0.1362
-0.0876847
-0.0356094
0.00900271
0.0435103
0.0691907
0.0883478
0.101941
0.106351
-0.203575
-0.183772
-0.132681
-0.0771385
-0.0285618
0.00977718
0.0388676
0.0609814
0.0781752
0.0878643
-0.250612
-0.229228
-0.176199
-0.117552
-0.0652874
-0.023319
0.00908821
0.0340556
0.0542051
0.0679698
-0.295011
-0.272269
-0.218121
-0.15657
-0.100946
-0.055603
-0.0200384
0.00767624
0.0303699
0.0472436
-0.336442
-0.312298
-0.258241
-0.193914
-0.135331
-0.0869027
-0.0483961
-0.0180741
0.00694664
0.0265041
-0.3747
-0.349476
-0.295542
-0.229425
-0.168244
-0.117047
-0.0758501
-0.0430969
-0.0159243
0.00608705
-0.40956
-0.383557
-0.329779
-0.262886
-0.19947
-0.145877
-0.102264
-0.0672861
-0.0381574
-0.0139184
-0.440798
-0.414268
-0.361106
-0.293814
-0.228914
-0.17325
-0.127511
-0.0905401
-0.0596697
-0.0334259
-0.468253
-0.441406
-0.389397
-0.322213
-0.256329
-0.199023
-0.151484
-0.112764
-0.08038
-0.0523236
-0.491824
-0.464835
-0.414456
-0.347988
-0.281607
-0.223115
-0.174088
-0.133869
-0.10022
-0.070511
-0.511467
-0.484486
-0.436147
-0.371015
-0.304674
-0.245454
-0.195274
-0.153773
-0.119124
-0.087931
-0.527194
-0.50035
-0.454405
-0.391201
-0.325458
-0.265948
-0.21501
-0.17246
-0.136984
-0.104619
-0.539075
-0.51248
-0.469221
-0.408496
-0.343906
-0.284542
-0.233201
-0.189915
-0.153647
-0.120799
-0.547239
-0.52099
-0.480638
-0.422886
-0.359992
-0.301217
-0.249815
-0.206086
-0.169298
-0.136497
-0.551868
-0.526049
-0.488746
-0.434394
-0.373716
-0.315975
-0.264857
-0.220963
-0.183847
-0.150906
-0.553198
-0.527885
-0.493685
-0.443076
-0.385102
-0.328831
-0.278337
-0.234539
-0.197233
-0.164046
-0.551509
-0.526779
-0.495643
-0.449028
-0.394198
-0.339818
-0.290278
-0.246827
-0.209508
-0.176173
-0.547119
-0.52305
-0.494857
-0.452386
-0.401081
-0.348986
-0.30072
-0.257865
-0.220743
-0.187451
-0.540375
-0.51705
-0.491612
-0.453324
-0.405849
-0.356403
-0.309719
-0.267706
-0.230981
-0.197931
-0.531642
-0.509148
-0.486229
-0.45205
-0.408625
-0.362151
-0.317343
-0.276405
-0.240258
-0.207624
-0.521295
-0.499718
-0.47906
-0.448808
-0.409555
-0.366327
-0.323664
-0.284022
-0.248611
-0.216548
-0.509705
-0.48913
-0.470472
-0.443871
-0.408804
-0.369034
-0.328761
-0.290622
-0.25609
-0.224732
-0.497232
-0.477738
-0.460834
-0.437535
-0.40656
-0.370387
-0.332716
-0.29627
-0.262753
-0.232213
-0.484211
-0.465872
-0.450505
-0.430112
-0.403026
-0.370511
-0.335611
-0.301037
-0.268658
-0.239031
-0.47095
-0.453829
-0.439811
-0.421921
-0.398422
-0.369537
-0.337533
-0.304988
-0.273863
-0.24523
-0.457717
-0.441867
-0.429044
-0.413274
-0.392981
-0.367602
-0.338564
-0.308183
-0.278422
-0.250857
-0.444739
-0.430204
-0.418449
-0.404463
-0.386945
-0.364854
-0.338786
-0.310679
-0.282383
-0.255953
-0.432204
-0.41901
-0.408226
-0.395741
-0.380554
-0.361445
-0.338278
-0.312521
-0.285787
-0.42025
-0.408414
-0.398527
-0.387312
-0.374039
-0.357535
-0.337121
-0.313748
-0.408978
-0.398498
-0.389458
-0.379327
-0.367602
-0.353287
-0.335395
-0.39845
-0.389309
-0.381085
-0.371885
-0.361407
-0.388692
-0.380862
-0.37343
-0.365039
-0.37971
-0.373145
-0.366485
-0.371492
-0.366136
-0.364026
-0.359804
-0.357303
0.1331
0.136051
0.139798
0.146735
0.153815
0.163668
0.173018
0.184522
0.194126
0.204707
0.210498
0.215532
0.210326
0.203479
0.174575
0.133356
0.136357
0.140132
0.147175
0.15437
0.16445
0.174112
0.186118
0.196457
0.208118
0.215449
0.222622
0.22027
0.217013
0.194354
0.133593
0.136575
0.140408
0.147526
0.154799
0.165055
0.174972
0.187404
0.198407
0.211045
0.219853
0.229021
0.2296
0.22972
0.212702
0.133808
0.136826
0.140665
0.147866
0.155219
0.165656
0.175827
0.188682
0.200323
0.213897
0.224105
0.235142
0.238534
0.241836
0.230065
0.134001
0.13705
0.140899
0.148182
0.155612
0.166224
0.176639
0.189895
0.202146
0.216604
0.228159
0.240952
0.24707
0.253403
0.246599
0.134171
0.137244
0.141098
0.148468
0.155967
0.166743
0.177385
0.191018
0.203848
0.219133
0.231978
0.246419
0.255157
0.264387
0.262281
0.134318
0.137413
0.141265
0.148723
0.156285
0.167213
0.178068
0.192051
0.205429
0.221484
0.235557
0.251536
0.262763
0.274757
0.277085
0.134441
0.137559
0.141434
0.148942
0.156564
0.167632
0.178685
0.192992
0.206886
0.223651
0.238885
0.256294
0.269862
0.284477
0.290977
0.13454
0.137682
0.141557
0.149077
0.156806
0.167999
0.179235
0.193837
0.208213
0.22563
0.241951
0.260683
0.276431
0.293516
0.303913
0.134614
0.137779
0.141647
0.149242
0.157007
0.168312
0.179715
0.194584
0.209406
0.227415
0.244743
0.264693
0.282451
0.301839
0.31585
0.134663
0.137849
0.141711
0.149388
0.157162
0.168569
0.180123
0.19523
0.210461
0.229002
0.247252
0.268313
0.287904
0.309417
0.326744
0.134686
0.137892
0.141748
0.149474
0.157268
0.168769
0.180457
0.195772
0.211371
0.230387
0.249469
0.271532
0.292774
0.31622
0.336554
0.134684
0.137908
0.141755
0.149519
0.157328
0.168911
0.180715
0.196208
0.212134
0.231564
0.251386
0.27434
0.297046
0.322225
0.345242
0.134656
0.137894
0.141732
0.149526
0.157341
0.168993
0.180895
0.196537
0.212745
0.23253
0.252995
0.276727
0.300707
0.327409
0.352775
0.134601
0.137852
0.141678
0.149494
0.157306
0.169014
0.180996
0.196757
0.213201
0.233281
0.254289
0.278684
0.303746
0.331753
0.359128
0.134521
0.13778
0.141594
0.149423
0.157217
0.168975
0.181015
0.196866
0.213498
0.233814
0.255263
0.280201
0.306152
0.33524
0.364277
0.134414
0.137679
0.141479
0.149311
0.157044
0.168875
0.180952
0.196863
0.213634
0.234125
0.255912
0.281272
0.307916
0.337855
0.368203
0.13428
0.137547
0.141333
0.14916
0.156915
0.168714
0.180806
0.196749
0.213607
0.234212
0.256232
0.28189
0.30903
0.339588
0.370893
0.134121
0.137385
0.141157
0.148973
0.156737
0.168488
0.180577
0.196523
0.213418
0.234078
0.256224
0.282053
0.30949
0.340433
0.372338
0.133935
0.137193
0.14095
0.148749
0.156495
0.168186
0.180265
0.196186
0.213064
0.233717
0.255884
0.281761
0.309296
0.340387
0.372535
0.0948346
0.093147
0.090242
0.0864208
0.0819233
0.076936
0.071645
0.0662028
0.0607587
0.0554234
0.0502987
0.0454439
0.0409101
0.0367085
0.0328504
0.0952662
0.0935884
0.0907065
0.0869063
0.0824229
0.0774336
0.0721253
0.0666489
0.0611578
0.0557635
0.0505726
0.0456452
0.0410366
0.0367576
0.0328217
0.0960672
0.0944089
0.0915707
0.0878123
0.0833577
0.0783687
0.0730322
0.0674958
0.0619192
0.0564162
0.0511013
0.0460374
0.0412872
0.0368623
0.0327813
0.0971782
0.0955489
0.0927772
0.0890837
0.084677
0.0796966
0.074328
0.0687137
0.0630215
0.0573678
0.0518785
0.0466208
0.0416685
0.0370346
0.0327447
0.098544
0.0969539
0.0942748
0.0906727
0.0863384
0.0813807
0.0759844
0.0702824
0.0644528
0.0586141
0.0529069
0.0474037
0.0421934
0.0372908
0.0327312
0.100113
0.0985741
0.0960171
0.0925363
0.088304
0.0833905
0.0779792
0.0721891
0.0662094
0.060159
0.0541967
0.048401
0.0428803
0.0376517
0.0327633
0.10184
0.100364
0.0979619
0.0946345
0.0905397
0.0856989
0.080295
0.0744256
0.0682924
0.0620116
0.0557632
0.0496326
0.0437519
0.0381417
0.0328658
0.103681
0.102283
0.10007
0.0969297
0.0930132
0.0882809
0.0829165
0.076987
0.0707066
0.0641847
0.0576261
0.0511226
0.0448351
0.0387881
0.0330658
0.105597
0.104294
0.102306
0.0993858
0.0956938
0.0911126
0.0858295
0.0798691
0.0734584
0.0666935
0.0598077
0.0528981
0.0461595
0.0396213
0.0333929
0.107554
0.106366
0.104634
0.101969
0.0985515
0.0941699
0.0890198
0.0830675
0.0765542
0.0695542
0.0623326
0.054989
0.0477579
0.0406743
0.0338786
0.109521
0.10847
0.107023
0.104645
0.101557
0.0974279
0.0924714
0.0865765
0.0799999
0.0727834
0.0652266
0.0574273
0.0496657
0.0419828
0.0345571
0.111472
0.110581
0.109441
0.107385
0.10468
0.100861
0.0961669
0.0903877
0.0837995
0.0763967
0.0685161
0.0602467
0.0519209
0.0435855
0.0354656
0.113383
0.112678
0.111859
0.110161
0.107891
0.104442
0.100086
0.0944892
0.0879543
0.0804082
0.072227
0.0634819
0.0545638
0.0455241
0.0366442
0.115238
0.114743
0.114251
0.112947
0.111159
0.108143
0.104204
0.0988657
0.0924621
0.0848287
0.0763841
0.067168
0.0576365
0.0478431
0.0381366
0.11702
0.116758
0.116591
0.115721
0.114455
0.111936
0.108495
0.103498
0.0973162
0.0896653
0.08101
0.0713403
0.0611831
0.0505901
0.0399901
0.11872
0.118708
0.11886
0.118462
0.117747
0.115793
0.112926
0.108362
0.102505
0.09492
0.0861242
0.0760326
0.0652487
0.0538156
0.042256
0.120329
0.12058
0.121041
0.121153
0.121006
0.119688
0.117463
0.113433
0.108009
0.100589
0.0917425
0.0812767
0.0698792
0.057573
0.0449897
0.121843
0.122364
0.123121
0.123775
0.124205
0.123592
0.122068
0.118681
0.113802
0.106664
0.0978748
0.087101
0.0751204
0.0619181
0.0482504
0.123258
0.124049
0.125093
0.126312
0.127322
0.127479
0.126703
0.124077
0.119851
0.11313
0.104524
0.0935292
0.0810177
0.0669079
0.0521008
0.124575
0.125629
0.126949
0.12875
0.130336
0.131321
0.131329
0.129585
0.126114
0.119967
0.111684
0.10058
0.0876146
0.0725997
0.0566062
0.125792
0.127099
0.128689
0.131075
0.133233
0.135088
0.135911
0.135167
0.132543
0.127151
0.119335
0.108268
0.0949517
0.0790486
0.0618335
0.126912
0.128458
0.13031
0.133275
0.135999
0.138754
0.140416
0.140782
0.139091
0.13465
0.127447
0.116605
0.103064
0.0863093
0.0678508
0.127936
0.129706
0.131814
0.135343
0.138625
0.142293
0.144815
0.146383
0.145705
0.142421
0.135977
0.125599
0.111979
0.094441
0.0747317
0.128868
0.130843
0.133201
0.137272
0.141106
0.145682
0.149083
0.151921
0.152336
0.150412
0.144874
0.135247
0.121707
0.103515
0.0825686
0.129711
0.131875
0.134475
0.13906
0.143435
0.1489
0.153198
0.157348
0.158937
0.158558
0.15408
0.145533
0.132231
0.11361
0.0914779
0.13047
0.132805
0.135638
0.140707
0.14561
0.151936
0.157141
0.162619
0.165463
0.166784
0.163541
0.156428
0.143497
0.124765
0.101523
0.131149
0.133638
0.136694
0.142215
0.147632
0.154781
0.160901
0.1677
0.17188
0.175017
0.173215
0.167895
0.155457
0.136945
0.112491
0.131751
0.13438
0.137649
0.143589
0.149501
0.157431
0.164464
0.172557
0.178147
0.183163
0.18304
0.179847
0.168157
0.150173
0.123687
0.132283
0.135034
0.138501
0.144823
0.151203
0.15986
0.167783
0.177118
0.184156
0.191066
0.192861
0.192123
0.181822
0.165187
0.134873
0.132748
0.135606
0.139242
0.145904
0.152693
0.162013
0.170751
0.181268
0.189724
0.198573
0.202489
0.204697
0.19685
0.184266
0.150063
0.0303419
0.0290276
0.0277141
0.0264067
0.0251037
0.0238033
0.0225057
0.0212124
0.0199249
0.0186445
0.0173724
0.0161096
0.0148571
0.013616
0.0123873
0.0111722
0.00997154
0.00878643
0.00761788
0.00646658
0.0302656
0.0289381
0.0276159
0.0262999
0.0249859
0.0236722
0.0223594
0.0210494
0.019744
0.0184442
0.0171513
0.0158663
0.0145903
0.0133246
0.0120703
0.0108285
0.00960047
0.00838713
0.00718956
0.00600874
0.0301314
0.0287657
0.0274118
0.0260636
0.0247142
0.0233621
0.0220094
0.0206587
0.0193118
0.0179698
0.0166339
0.0153053
0.0139852
0.0126749
0.0113758
0.0100891
0.00881594
0.00755767
0.00631548
0.00509024
0.0299555
0.0285275
0.027122
0.0257232
0.0243198
0.0229108
0.0214999
0.0200906
0.0186847
0.0172834
0.0158876
0.0144986
0.0131177
0.0117464
0.010386
0.00903779
0.00770307
0.00638306
0.00507903
0.00379177
0.0297594
0.0282459
0.0267689
0.0253007
0.0238246
0.0223397
0.0208515
0.0193647
0.0178814
0.0164025
0.0149287
0.0134614
0.0120021
0.0105521
0.00911302
0.0076861
0.00627268
0.00487408
0.00349165
0.00212596
0.0295666
0.0279437
0.0263743
0.0248176
0.0232497
0.0216696
0.0200852
0.0185023
0.0169234
0.0153488
0.0137794
0.0122164
0.0106613
0.00911579
0.00758123
0.00605901
0.00455049
0.003057
0.00158
0.000119641
0.0294019
0.0276448
0.0259605
0.0242948
0.0226152
0.0209202
0.0192199
0.0175217
0.0158281
0.0141394
0.0124561
0.0107794
0.00911091
0.00745229
0.005805
0.00417042
0.00254992
0.000944896
-0.000642983
-0.0022144
0.0292916
0.0273736
0.0255496
0.0237525
0.0219401
0.0201095
0.0182728
0.016439
0.014611
0.0127887
0.0109724
0.00916319
0.00736287
0.00557303
0.00379518
0.00203067
0.000280913
-0.00145264
-0.00316774
-0.00486677
0.0292639
0.027156
0.0251641
0.023211
0.0212432
0.0192548
0.0172596
0.0152687
0.0132851
0.0113086
0.00933912
0.00737776
0.00542616
0.00348599
0.00155873
-0.000354241
-0.00225127
-0.00413047
-0.00598837
-0.00783184
0.0293489
0.0270192
0.0248271
0.0226902
0.0205422
0.0183723
0.0161953
0.0140239
0.0118621
0.00970948
0.00756562
0.00543136
0.00330822
0.00119762
-0.000899376
-0.00298209
-0.00504918
-0.00709828
-0.00910924
-0.0111116
0.029579
0.0269917
0.0245624
0.0222101
0.0198547
0.0174775
0.015093
0.0127159
0.0103514
0.00799912
0.00565853
0.0033303
0.00101606
-0.0012824
-0.0035635
-0.00582546
-0.00806714
-0.0102883
-0.0125105
-0.014706
0.0299889
0.0271043
0.0243945
0.0217907
0.0191978
0.0165851
0.0139647
0.0113537
0.00875886
0.00618043
0.00361731
0.00106978
-0.00146089
-0.00397327
-0.00646622
-0.00893889
-0.0113909
-0.0138222
-0.0162389
-0.0186343
0.0306168
0.0273902
0.0243497
0.0214533
0.0185895
0.0157103
0.0128229
0.00994666
0.00709132
0.00425784
0.00144472
-0.00134848
-0.00412095
-0.00687147
-0.00959902
-0.0123027
-0.0149819
-0.0176358
-0.0202725
-0.0228874
0.0315046
0.0278859
0.0244561
0.0212199
0.0180484
0.0148688
0.01168
0.00850386
0.00535458
0.0022346
-0.000858211
-0.00392533
-0.00696654
-0.0099808
-0.0129671
-0.0159246
-0.0188525
-0.0217496
-0.024628
-0.0274842
0.0326979
0.0286309
0.024744
0.0211144
0.0175943
0.014077
0.0105482
0.00703341
0.00355306
0.000111907
-0.00329315
-0.00666514
-0.0100047
-0.0133109
-0.0165829
-0.0198195
-0.0230199
-0.026181
-0.0293233
-0.0324432
0.0342469
0.0296688
0.0252465
0.0211623
0.0172485
0.0133521
0.00943994
0.00554283
0.00169007
-0.00211051
-0.00586356
-0.00957446
-0.0132451
-0.0168747
-0.0204622
-0.0240056
-0.027502
-0.0309447
-0.0343729
-0.0377808
0.0362064
0.0310474
0.0259996
0.0213918
0.0170344
0.0127125
0.00836809
0.00403931
-0.000231939
-0.00443387
-0.00857365
-0.0126599
-0.016696
-0.0206825
-0.0246202
-0.0285093
-0.0323464
-0.0360833
-0.0398156
-0.0435298
0.0386363
0.032819
0.0270434
0.0218348
0.0169786
0.0121791
0.00734609
0.00252945
-0.00221197
-0.00686188
-0.0114311
-0.0159318
-0.0203673
-0.0247359
-0.0290344
-0.0332619
-0.0374227
-0.0415872
-0.0456884
-0.0497281
0.0416006
0.0350405
0.0284223
0.0225278
0.0171122
0.0117755
0.00638887
0.00102022
-0.00424974
-0.00940075
-0.0144498
-0.0194137
-0.0242969
-0.0290973
-0.033813
-0.0384464
-0.0430036
-0.047535
-0.0520031
-0.0563976
0.0451672
0.037772
0.0301858
0.023514
0.0174722
0.0115296
0.00551411
-0.000479078
-0.00634233
-0.0120535
-0.0176387
-0.0231204
-0.0285025
-0.0337818
-0.0389555
-0.0440249
-0.0489909
-0.0539185
-0.0587802
-0.0635564
0.0494048
0.0410756
0.0323879
0.0248436
0.0181028
0.011474
0.00474257
-0.00195615
-0.00848349
-0.0148199
-0.0210043
-0.0270635
-0.0329997
-0.0388073
-0.044482
-0.0500221
-0.0554223
-0.0607825
-0.0660725
-0.0712592
0.0543796
0.0450101
0.0350847
0.0265738
0.0190552
0.0116457
0.00409757
-0.00339573
-0.010664
-0.0176983
-0.0245527
-0.031256
-0.0378068
-0.0441995
-0.0504333
-0.056507
-0.0623723
-0.0681996
-0.0739437
-0.0795599
0.0601497
0.0496228
0.0383301
0.0287694
0.0203874
0.012084
0.00360465
-0.00477879
-0.0128718
-0.020687
-0.028293
-0.0357136
-0.042939
-0.04996
-0.0567774
-0.0633962
-0.0698871
-0.0762586
-0.0824757
-0.0885278
0.0667616
0.0549437
0.042176
0.0315023
0.0221601
0.0128275
0.00329194
-0.00608043
-0.0150905
-0.0237845
-0.0322392
-0.0404653
-0.048443
-0.0561588
-0.0636163
-0.0708357
-0.0780104
-0.0849828
-0.0917117
-0.098223
0.0742518
0.0609939
0.0466857
0.0348567
0.0244344
0.0139128
0.0031929
-0.00726737
-0.017298
-0.0269853
-0.036401
-0.0455377
-0.0543711
-0.0628902
-0.071096
-0.0789882
-0.08679
-0.0943721
-0.101662
-0.108677
0.0826296
0.0678059
0.0519597
0.0389405
0.0272749
0.0153815
0.00335363
-0.0082947
-0.0194651
-0.0302757
-0.0407741
-0.0509323
-0.0607258
-0.0701455
-0.0791823
-0.0877868
-0.0962913
-0.104538
-0.112427
-0.119976
0.0917817
0.0753923
0.0581328
0.0438882
0.030758
0.0172911
0.00383842
-0.00911015
-0.021562
-0.0336391
-0.0453459
-0.056637
-0.0674906
-0.0779042
-0.0878694
-0.0974036
-0.106721
-0.115654
-0.124149
-0.132247
0.10125
0.0835469
0.0652646
0.0498189
0.0349746
0.0197506
0.00476406
-0.00963092
-0.0235412
-0.0370492
-0.0501136
-0.0626758
-0.0746859
-0.0861025
-0.096945
-0.107776
-0.118076
-0.127751
-0.13689
-0.145575
0.110139
0.0915281
0.0730493
0.0565435
0.0398272
0.022796
0.00619976
-0.00981414
-0.0253701
-0.0404779
-0.0550806
-0.0691474
-0.0826403
-0.0954723
-0.107416
-0.119139
-0.130304
-0.140773
-0.150632
-0.159958
0.117967
0.0989987
0.0812807
0.0637603
0.0453419
0.0267531
0.00857854
-0.00915063
-0.0264552
-0.0432629
-0.0595021
-0.07515
-0.0901987
-0.104614
-0.118258
-0.131374
-0.14359
-0.154932
-0.165551
-0.175527
0.00533303
0.00421823
0.0031232
0.00204878
0.000995675
-3.54521e-05
-0.00104396
-0.00202923
-0.00299067
0.00484593
0.00370212
0.00257817
0.00147492
0.000393218
-0.000666108
-0.00170229
-0.00271461
-0.00370239
0.00388283
0.00269443
0.00152617
0.000378998
-0.000746214
-0.00184866
-0.00292756
-0.0039822
-0.0050119
0.00252246
0.00127232
4.2442e-05
-0.00116623
-0.00235284
-0.00351656
-0.00465661
-0.00577228
-0.00686291
0.000778167
-0.000550394
-0.00185858
-0.00314544
-0.00441014
-0.00565189
-0.00686994
-0.00806361
-0.00923227
-0.00132287
-0.00274606
-0.00414876
-0.00553009
-0.00688927
-0.00822556
-0.00953829
-0.0108268
-0.0120906
-0.00376811
-0.00530245
-0.00681619
-0.00830851
-0.00977876
-0.0112263
-0.0126505
-0.0140509
-0.0154271
-0.00654843
-0.00821067
-0.00985212
-0.0114721
-0.0130701
-0.0146457
-0.0161984
-0.0177278
-0.0192335
-0.00965922
-0.011467
-0.0132534
-0.015018
-0.0167609
-0.0184816
-0.02018
-0.0218557
-0.0235087
-0.0131017
-0.0150725
-0.0170214
-0.018948
-0.0208527
-0.0227358
-0.0245972
-0.0264368
-0.0282548
-0.016877
-0.0190273
-0.0211565
-0.0232639
-0.0253491
-0.0274128
-0.0294552
-0.0314767
-0.0334778
-0.0210056
-0.0233529
-0.0256778
-0.0279812
-0.0302633
-0.0325243
-0.0347647
-0.0369853
-0.0254777
-0.0280428
-0.0305843
-0.0331035
-0.035601
-0.0380776
-0.0405342
-0.0429718
-0.0303141
-0.0331167
-0.0358935
-0.0386465
-0.0413771
-0.0440868
-0.0467768
-0.0494488
-0.0355338
-0.0385931
-0.0416236
-0.0446283
-0.0476096
-0.0505694
-0.0535095
-0.0564321
-0.0411553
-0.0444922
-0.0477951
-0.0510692
-0.0543179
-0.057544
-0.0607498
-0.0639381
-0.0472054
-0.0508379
-0.0544314
-0.0579919
-0.0615239
-0.065031
-0.0685165
-0.0719838
-0.0537167
-0.0576594
-0.0615601
-0.0654232
-0.0692531
-0.0730544
-0.0768315
-0.0805888
-0.0607255
-0.0649965
-0.0692185
-0.0733968
-0.0775361
-0.0816414
-0.0857181
-0.0897723
-0.0682488
-0.0728691
-0.0774292
-0.0819366
-0.0863966
-0.0908146
-0.0951972
-0.0995513
-0.0763396
-0.0813278
-0.0862397
-0.0910858
-0.095873
-0.100608
-0.105298
-0.109952
-0.0850451
-0.090416
-0.0956909
-0.100882
-0.105999
-0.11105
-0.116043
-0.12099
-0.094427
-0.100192
-0.105837
-0.111376
-0.116819
-0.122175
-0.127456
-0.132675
-0.10455
-0.110716
-0.116736
-0.12262
-0.12838
-0.134029
-0.139577
-0.145038
-0.115458
-0.122037
-0.128431
-0.134654
-0.14072
-0.146643
-0.152439
-0.15812
-0.127231
-0.134229
-0.14099
-0.147531
-0.153872
-0.160031
-0.166028
-0.171885
-0.13999
-0.147406
-0.154517
-0.161343
-0.167908
-0.174234
-0.180345
-0.18627
-0.153835
-0.161683
-0.169138
-0.176225
-0.182968
-0.189391
-0.195519
-0.20138
-0.168772
-0.177083
-0.184903
-0.192258
-0.199172
-0.205668
-0.211769
-0.217496
-0.184875
-0.193607
-0.201744
-0.209312
-0.216337
-0.222846
-0.228866
-0.234422
)
;

boundaryField
{
    inlet
    {
        type            zeroGradient;
    }
    outlet
    {
        type            fixedValue;
        value           nonuniform 0();
    }
    cylinder
    {
        type            zeroGradient;
    }
    top
    {
        type            symmetryPlane;
    }
    bottom
    {
        type            symmetryPlane;
    }
    defaultFaces
    {
        type            empty;
    }
    procBoundary0to1
    {
        type            processor;
        value           nonuniform List<scalar> 
50
(
-0.260558
-0.260558
-0.28866
-0.28866
-0.314387
-0.348859
-0.314387
-0.333185
-0.348859
-0.355562
-0.355562
-0.358806
-0.358806
-0.360216
-0.360216
-0.354582
-0.354129
-0.354129
-0.351324
-0.00392771
-0.00466499
-0.00601606
-0.00792789
-0.0103754
-0.0133292
-0.0167786
-0.0207155
-0.0251389
-0.0300513
-0.0354588
-0.0391869
-0.0391869
-0.0453918
-0.0521044
-0.0593396
-0.0671121
-0.0754368
-0.0843309
-0.0938095
-0.103884
-0.114576
-0.125899
-0.137842
-0.150423
-0.163696
-0.177616
-0.192036
-0.207002
-0.222872
-0.239534
)
;
    }
    procBoundary0to2
    {
        type            processor;
        value           nonuniform List<scalar> 
26
(
0.643692
0.621457
0.606413
0.589796
0.589796
0.562311
0.531685
0.499509
0.46698
0.434957
0.404049
0.133722
0.13697
0.140712
0.148482
0.156195
0.167846
0.179864
0.195721
0.212527
0.233108
0.255189
0.280984
0.308422
0.339425
0.371464
)
;
    }
}


// ************************************************************************* //
