/*--------------------------------*- C++ -*----------------------------------*\
  =========                 |
  \\      /  F ield         | OpenFOAM: The Open Source CFD Toolbox
   \\    /   O peration     | Website:  https://openfoam.org
    \\  /    A nd           | Version:  7
     \\/     M anipulation  |
\*---------------------------------------------------------------------------*/
FoamFile
{
    version     2.0;
    format      ascii;
    class       volVectorField;
    location    "15";
    object      U;
}
// * * * * * * * * * * * * * * * * * * * * * * * * * * * * * * * * * * * * * //

dimensions      [0 1 -1 0 0 0 0];

internalField   nonuniform List<vector> 
2125
(
(-0.0183528 0.0135231 -6.81786e-20)
(-0.0176571 0.0121499 2.46775e-20)
(-0.0178803 0.0203793 2.66849e-20)
(-0.0163682 0.0105936 -1.67324e-20)
(-0.00932197 0.0162235 -1.24019e-20)
(-0.0143593 0.00886579 3.50602e-20)
(0.00167142 0.0119418 -9.75881e-21)
(0.0634538 0.0134404 -5.82763e-21)
(-0.0114974 0.00699313 -1.28993e-20)
(0.0154032 0.00767388 -7.68695e-20)
(0.0934461 0.00971304 8.00097e-21)
(0.222449 0.0166771 2.76578e-20)
(-0.00764752 0.00501962 -1.41837e-20)
(0.0321524 0.00360129 2.72664e-20)
(0.128439 0.00703099 3.56396e-20)
(0.279332 0.0183796 -2.55644e-20)
(0.477379 0.0422576 9.55461e-21)
(0.699884 0.0779319 -5.84788e-20)
(-0.00267801 0.00300854 -1.83746e-20)
(0.0521563 -5.16346e-05 -6.25129e-21)
(0.168526 0.0057742 -6.46688e-20)
(0.341924 0.022729 -1.01662e-20)
(0.558643 0.054169 -1.13714e-21)
(0.787402 0.0961368 3.44538e-21)
(0.989479 0.138458 6.00789e-21)
(0.00353471 0.00104252 -4.81954e-21)
(0.0755911 -0.00301997 2.24437e-20)
(0.213625 0.00634865 3.16244e-20)
(0.409332 0.0300881 1.98067e-20)
(0.641187 0.0693463 -5.86651e-21)
(0.870153 0.116419 -4.92702e-21)
(1.05791 0.159294 4.92738e-20)
(1.18677 0.189706 6.8801e-21)
(0.0110986 -0.00077555 4.60725e-20)
(0.102553 -0.00500307 2.97692e-20)
(0.26345 0.00916465 -3.02026e-20)
(0.480336 0.0407053 -6.02452e-21)
(0.722823 0.0875174 3.19827e-21)
(0.946267 0.138195 -1.16709e-20)
(1.1163 0.180111 -2.53973e-20)
(1.2239 0.207087 -4.15286e-21)
(1.27926 0.220105 2.79745e-22)
(1.30081 0.219479 1.09374e-20)
(0.0200987 -0.002325 5.76302e-21)
(0.133038 -0.00567523 -1.62678e-20)
(0.317493 0.014608 3.85491e-20)
(0.553458 0.0546803 2.5151e-20)
(0.801522 0.108287 8.33721e-22)
(1.01453 0.160948 1.80391e-20)
(1.16486 0.200621 2.62295e-21)
(1.25217 0.223595 -1.95357e-20)
(1.29194 0.232367 1.69013e-20)
(1.3039 0.229313 -2.84377e-23)
(0.0305919 -0.00346998 -3.81514e-20)
(0.166929 -0.0046979 -1.12343e-20)
(0.375024 0.0230077 -1.013e-20)
(0.627084 0.0719585 -1.77076e-20)
(0.875583 0.131205 4.23497e-21)
(1.07432 0.184258 1.15426e-22)
(1.20423 0.220661 1.41793e-20)
(1.27287 0.239304 -2.23903e-21)
(1.29953 0.244018 -1.73664e-20)
(1.304 0.238814 -1.66e-20)
(0.0425992 -0.00406267 3.11397e-21)
(0.203983 -0.00173566 1.8249e-20)
(0.435119 0.0346057 8.86989e-21)
(0.699598 0.0923512 -2.77718e-20)
(0.943721 0.155829 -1.41582e-21)
(1.12552 0.207807 -1.21684e-20)
(1.23524 0.240157 3.1747e-22)
(1.28723 0.254323 5.80092e-21)
(1.30312 0.255228 -6.6082e-21)
(1.30182 0.248132 1.87352e-20)
(0.0561005 -0.00394806 7.35729e-21)
(0.243825 0.00352546 -1.79175e-20)
(0.496704 0.0495353 -4.23344e-20)
(0.769506 0.115572 3.91051e-20)
(1.00508 0.181749 -2.95009e-21)
(1.16834 0.231361 8.73957e-21)
(1.25885 0.259098 -1.26773e-21)
(1.29631 0.268775 8.66147e-21)
(1.30353 0.266145 -6.10866e-22)
(1.29788 0.257371 -1.45461e-20)
(0.0710296 -0.00296948 -1.50325e-20)
(0.28596 0.0113587 2.33949e-20)
(0.558617 0.0678128 1.92838e-20)
(0.835522 0.141277 -2.79941e-20)
(1.05918 0.208606 -4.70589e-21)
(1.20326 0.254759 1.78522e-21)
(1.27597 0.277509 1.83524e-20)
(1.30105 0.282776 9.59521e-22)
(1.30142 0.276882 3.69098e-21)
(1.29254 0.266592 -7.97829e-21)
(0.0872729 -0.000974937 1.14089e-20)
(0.329779 0.0219783 -1.02451e-20)
(0.619684 0.0893422 -8.77313e-21)
(0.896618 0.169096 1.50849e-20)
(1.10585 0.23609 5.23155e-21)
(1.23084 0.27789 4.01273e-21)
(1.28747 0.295432 -1.87175e-20)
(1.30219 0.296426 -6.52243e-21)
(1.29727 0.287519 -5.90775e-21)
(1.28601 0.275824 2.6223e-21)
(0.104668 0.00217607 -5.73607e-21)
(0.374584 0.0355246 -1.3217e-22)
(0.67878 0.11393 1.66227e-20)
(0.952031 0.198651 -6.09515e-21)
(1.14516 0.263939 -2.73387e-21)
(1.25173 0.300675 -1.80765e-21)
(1.29412 0.312913 4.55143e-21)
(1.30034 0.309803 7.94184e-21)
(1.2914 0.298102 -2.51336e-22)
(1.27844 0.285063 2.98113e-21)
(0.123008 0.0066055 4.04879e-21)
(0.419619 0.0520537 -1.13585e-21)
(0.734882 0.141304 -2.98457e-21)
(1.00124 0.229571 -2.71722e-21)
(1.17732 0.291924 2.4721e-21)
(1.26657 0.32306 1.94827e-21)
(1.29659 0.329989 -1.80348e-21)
(1.29595 0.322955 6.65226e-22)
(1.28406 0.308647 9.43708e-22)
(1.26991 0.294286 -1.27277e-21)
(0.142043 0.01241 2.19883e-21)
(0.464097 0.0715332 6.22708e-22)
(0.787105 0.171132 -3.74301e-21)
(1.04395 0.2615 -3.00561e-21)
(1.20266 0.319844 3.14834e-21)
(1.27595 0.344995 6.19018e-22)
(1.29542 0.346681 -1.46258e-21)
(1.28938 0.335904 1.37886e-21)
(1.27539 0.319139 7.78887e-22)
(1.26049 0.303449 -9.10166e-22)
(0.16149 0.0196549 -8.54722e-22)
(0.50724 0.0938432 1.74881e-21)
(0.83472 0.20304 1.15784e-20)
(1.08001 0.294093 -5.20511e-21)
(1.22157 0.347518 -2.54618e-21)
(1.28045 0.366434 -2.89487e-21)
(1.29107 0.362993 5.95758e-21)
(1.28089 0.348645 4.02611e-21)
(1.26551 0.32954 3.24944e-21)
(1.2502 0.312499 1.79806e-21)
(0.181041 0.0283695 1.77508e-20)
(0.5483 0.118783 -9.72905e-21)
(0.877159 0.236624 -1.10492e-20)
(1.10945 0.327019 1.51121e-20)
(1.23446 0.374778 8.01117e-21)
(1.28054 0.387323 -5.40243e-22)
(1.28391 0.378906 -9.98077e-21)
(1.27066 0.361147 -7.23085e-21)
(1.25447 0.339793 -7.64279e-21)
(1.23907 0.321371 4.59788e-21)
(0.20037 0.0385442 -2.40519e-20)
(0.58659 0.146077 2.25655e-20)
(0.914003 0.271463 2.6065e-20)
(1.13236 0.35996 -2.57673e-20)
(1.24175 0.401463 -8.93091e-21)
(1.27667 0.407597 5.77221e-21)
(1.27421 0.394381 1.05168e-20)
(1.25883 0.373356 1.6692e-21)
(1.24233 0.349818 -3.12794e-22)
(1.2271 0.32999 -6.31502e-21)
(0.219149 0.0501288 -3.4948e-21)
(0.621503 0.175392 -3.18776e-20)
(0.944979 0.307129 -3.41792e-20)
(1.14894 0.392609 3.85063e-20)
(1.24383 0.427414 -4.38617e-21)
(1.2692 0.427183 8.09835e-21)
(1.26223 0.40936 1.60625e-21)
(1.2455 0.3852 -4.53302e-21)
(1.22909 0.35952 2.43137e-21)
(1.21429 0.338266 -3.28315e-22)
(0.237048 0.0630332 7.08754e-21)
(0.652521 0.206341 1.98266e-20)
(0.969933 0.343188 1.12214e-20)
(1.15942 0.424671 -8.8502e-21)
(1.24112 0.452472 -1.3855e-20)
(1.25848 0.445993 -1.29194e-20)
(1.24814 0.42377 -2.62204e-21)
(1.23073 0.396598 7.00342e-21)
(1.21475 0.368807 -1.47129e-21)
(1.2005 0.346113 3.47861e-21)
(0.253757 0.0771297 -2.69681e-20)
(0.679225 0.238502 -2.50297e-20)
(0.988823 0.379212 -4.00996e-21)
(1.1641 0.455861 -4.50988e-21)
(1.23396 0.476478 -1.02568e-20)
(1.24478 0.463927 6.27289e-21)
(1.23211 0.437525 -1.13678e-21)
(1.21459 0.407469 -6.17435e-21)
(1.19931 0.377628 5.62408e-21)
(1.18559 0.353473 -8.20933e-21)
(0.268984 0.0922564 6.32995e-21)
(0.701301 0.271426 2.12795e-20)
(1.0017 0.414777 1.856e-20)
(1.16327 0.485903 2.01918e-20)
(1.22273 0.49927 3.76147e-22)
(1.22836 0.480871 1.76829e-20)
(1.21425 0.450519 1.17305e-21)
(1.19713 0.417717 -2.09347e-20)
(1.18283 0.385984 1.50995e-20)
(1.16961 0.360307 5.71481e-21)
(0.282468 0.108221 1.7536e-20)
(0.718534 0.304652 3.91332e-20)
(1.00867 0.449473 -5.16147e-21)
(1.15727 0.514531 -2.54737e-20)
(1.20772 0.520684 1.14818e-20)
(1.20942 0.496707 -1.19526e-20)
(1.19467 0.462635 -1.5963e-20)
(1.17842 0.427214 -1.36462e-21)
(1.16533 0.3938 -1.25254e-20)
(1.15296 0.366469 4.92477e-21)
(0.293986 0.124806 8.28981e-21)
(0.730808 0.337714 6.20151e-21)
(1.00994 0.482904 4.90421e-20)
(1.14644 0.541491 9.19585e-21)
(1.18927 0.540561 -8.01477e-21)
(1.18815 0.511308 -4.10605e-21)
(1.17347 0.473742 2.43894e-20)
(1.15861 0.435864 2.01053e-20)
(1.14679 0.400851 1.00957e-20)
(1.13574 0.371995 -1.37227e-21)
(0.303354 0.141775 1.74894e-21)
(0.738089 0.370157 -4.01473e-20)
(1.00574 0.514691 -5.77316e-20)
(1.13112 0.566541 1.81208e-21)
(1.16765 0.558746 1.13249e-20)
(1.16475 0.524548 -1.56573e-20)
(1.15089 0.483716 -3.56474e-20)
(1.13767 0.443554 -1.06514e-20)
(1.12725 0.407048 -6.42419e-22)
(1.11785 0.376696 5.19885e-21)
(0.310433 0.158878 -1.44205e-20)
(0.740422 0.401536 3.6375e-20)
(0.996355 0.544472 3.47567e-20)
(1.11167 0.589451 -3.20756e-20)
(1.14316 0.575084 4.8966e-21)
(1.13948 0.536269 3.77231e-20)
(1.12699 0.492444 -8.31352e-21)
(1.1156 0.450186 7.05256e-21)
(1.10684 0.412265 -3.3995e-21)
(1.0993 0.380495 -4.63062e-21)
(0.315127 0.175862 -3.2556e-20)
(0.737927 0.431432 -5.72627e-20)
(0.982124 0.571916 -1.12316e-20)
(1.08844 0.609995 1.84303e-20)
(1.11608 0.589402 1.80265e-20)
(1.1125 0.546354 -3.753e-20)
(1.10181 0.499791 2.04077e-20)
(1.09256 0.455652 -1.06526e-20)
(1.08562 0.416415 8.64998e-21)
(1.08014 0.383304 2.74292e-22)
(0.31739 0.192471 2.48369e-20)
(0.730816 0.459449 1.73091e-21)
(0.96347 0.596758 -5.54349e-21)
(1.0617 0.627929 -2.28219e-20)
(1.08665 0.601539 1.46902e-20)
(1.08394 0.554648 3.22077e-21)
(1.07551 0.505649 -1.15276e-20)
(1.06863 0.459844 2.1031e-21)
(1.06369 0.419398 -2.28592e-21)
(1.06044 0.385051 1.15425e-21)
(0.317229 0.208447 -6.81407e-21)
(0.719392 0.4852 -9.50735e-21)
(0.940767 0.618798 2.42504e-20)
(1.03169 0.643057 1.12295e-20)
(1.05516 0.611301 -1.52479e-20)
(1.05402 0.561024 2.11733e-20)
(1.04823 0.509902 1.62609e-21)
(1.04393 0.46266 1.947e-21)
(1.04111 0.421113 3.08944e-22)
(1.04029 0.385638 1.31462e-22)
(0.314708 0.223528 4.41813e-20)
(0.703983 0.508324 3.39728e-20)
(0.914031 0.637625 -2.40521e-21)
(0.998997 0.655398 -5.22568e-21)
(1.02196 0.618533 -6.18407e-21)
(1.02294 0.565353 -3.01776e-21)
(1.02011 0.512446 1.86031e-21)
(1.01855 0.464015 1.49072e-21)
(1.01798 0.421464 7.76848e-23)
(1.01975 0.384969 -2.48021e-21)
(0.309909 0.237454 3.62701e-21)
(0.684779 0.528689 5.8932e-21)
(0.883604 0.652894 -3.14183e-20)
(0.964109 0.664632 1.38765e-20)
(0.987265 0.623236 3.53727e-21)
(0.990872 0.567543 -7.78969e-21)
(0.991294 0.513183 2.76091e-21)
(0.992607 0.463828 1.08152e-21)
(0.994412 0.420379 -3.09237e-21)
(0.999062 0.382987 3.31544e-21)
(0.302906 0.249916 -1.68036e-20)
(0.661982 0.545925 -1.21588e-20)
(0.850336 0.664735 1.00064e-20)
(0.92728 0.670555 2.52114e-21)
(0.951352 0.625266 -5.4573e-21)
(0.958021 0.567499 4.82485e-21)
(0.961909 0.512021 1.95472e-21)
(0.966198 0.462005 -6.6477e-21)
(0.970663 0.417786 1.78812e-20)
(0.97885 0.379717 7.35038e-21)
(0.293783 0.260692 -1.28919e-20)
(0.635925 0.559602 3.19238e-20)
(0.81466 0.672912 -2.02201e-20)
(0.888836 0.67315 -2.98514e-21)
(0.914475 0.624537 -3.28168e-21)
(0.924569 0.565142 -2.79501e-22)
(0.93207 0.508871 -6.53035e-21)
(0.939438 0.458408 3.48404e-21)
(0.947131 0.413492 -2.4765e-22)
(0.959801 0.375199 -3.1532e-21)
(0.282767 0.269642 -1.04379e-21)
(0.607147 0.569578 -9.50594e-21)
(0.776924 0.677236 5.04722e-21)
(0.849122 0.672347 -2.6514e-21)
(0.876898 0.620979 3.95391e-21)
(0.8907 0.560417 4.26145e-21)
(0.901898 0.503683 1.29151e-20)
(0.912511 0.45293 -9.96509e-21)
(0.924162 0.407118 -1.89756e-20)
(0.941207 0.368787 8.33879e-21)
(0.270064 0.276655 -1.31521e-22)
(0.576087 0.575728 -1.90554e-21)
(0.737543 0.677577 8.54746e-22)
(0.808493 0.668091 4.95208e-21)
(0.838888 0.614547 -9.87288e-21)
(0.856609 0.553289 -1.71525e-20)
(0.871576 0.496452 -5.03938e-21)
(0.88568 0.445684 -1.58497e-21)
(0.901744 0.39885 2.60845e-20)
(0.920323 0.356762 -5.40313e-21)
(0.255866 0.281575 -6.86021e-22)
(0.543185 0.577941 -4.11451e-21)
(0.696943 0.67387 7.32626e-22)
(0.7673 0.660343 8.55374e-22)
(0.800713 0.605212 -7.68187e-21)
(0.822511 0.543725 3.31924e-20)
(0.841357 0.487143 -2.34965e-20)
(0.859162 0.436753 2.81249e-20)
(0.878819 0.390554 -1.9699e-20)
(0.897077 0.349927 -2.61078e-20)
(0.240406 0.284283 -4.80188e-22)
(0.508878 0.576142 -1.24029e-21)
(0.65555 0.666088 5.79644e-22)
(0.725892 0.649092 1.2014e-20)
(0.76264 0.592962 -5.18434e-21)
(0.78863 0.531704 7.89284e-21)
(0.811445 0.4757 1.37278e-20)
(0.832989 0.425863 -7.23736e-21)
(0.855784 0.380107 -1.92018e-20)
(0.87502 0.33971 2.63668e-20)
(0.223934 0.284695 9.58628e-21)
(0.473598 0.570287 1.26172e-20)
(0.613787 0.65424 -1.23836e-20)
(0.684611 0.634353 -1.09472e-20)
(0.724935 0.577807 3.95915e-20)
(0.755184 0.517233 -4.03777e-20)
(0.781989 0.462164 4.86358e-20)
(0.807174 0.413227 -1.21437e-20)
(0.832824 0.368459 1.30259e-20)
(0.853671 0.329166 2.43696e-20)
(0.206705 0.282753 -3.42067e-21)
(0.437774 0.560375 -1.25127e-20)
(0.572066 0.638365 -7.90681e-21)
(0.643791 0.616165 -4.27082e-21)
(0.687861 0.559777 5.10349e-21)
(0.722392 0.500329 -1.0708e-20)
(0.75316 0.446537 -1.45284e-20)
(0.781878 0.39878 -3.18489e-20)
(0.810273 0.355241 3.16245e-20)
(0.833121 0.317239 -1.0094e-20)
(0.188981 0.278431 2.41738e-20)
(0.401829 0.546439 -3.03554e-21)
(0.530786 0.618533 -1.11334e-20)
(0.603759 0.594595 1.4202e-20)
(0.651678 0.538923 -2.54501e-20)
(0.690461 0.481034 6.85117e-20)
(0.725125 0.428862 -3.65657e-20)
(0.757263 0.382597 3.31482e-20)
(0.788342 0.340591 -6.07698e-20)
(0.813397 0.304067 -1.60987e-20)
(0.171021 0.271729 -7.44211e-21)
(0.366177 0.528551 2.56878e-20)
(0.490337 0.594842 5.97024e-21)
(0.564829 0.569731 -1.3264e-20)
(0.616635 0.515315 -2.29375e-20)
(0.659597 0.459404 -7.29413e-22)
(0.698053 0.409185 1.21973e-20)
(0.733491 0.364705 -2.99381e-20)
(0.767186 0.324484 1.46569e-20)
(0.794545 0.289583 1.93506e-21)
(0.153083 0.262677 -4.23825e-20)
(0.331218 0.506817 -1.03845e-20)
(0.451089 0.56742 -2.9015e-21)
(0.527304 0.541686 3.43751e-20)
(0.582976 0.489043 -3.20333e-20)
(0.63 0.435512 -8.28319e-21)
(0.672113 0.387571 -5.07806e-21)
(0.710717 0.345161 9.34071e-21)
(0.746943 0.306958 -1.18572e-20)
(0.776637 0.273821 -1.8436e-20)
(0.135419 0.25133 3.7698e-20)
(0.297337 0.481379 -2.14713e-20)
(0.413397 0.536423 1.02383e-21)
(0.491472 0.510595 -5.22139e-20)
(0.550932 0.460219 5.67306e-20)
(0.601861 0.40945 -1.79567e-20)
(0.64747 0.364097 1.07576e-20)
(0.689087 0.324026 9.35358e-21)
(0.727735 0.288054 2.7106e-20)
(0.759746 0.256824 -1.11675e-20)
(0.118272 0.237769 -1.53229e-20)
(0.264898 0.452408 4.45875e-20)
(0.377597 0.502033 2.5171e-20)
(0.457605 0.476616 4.13272e-20)
(0.520723 0.42897 -9.56011e-21)
(0.575364 0.381326 3.85673e-21)
(0.624279 0.338855 3.10843e-20)
(0.668738 0.301376 6.95038e-21)
(0.709677 0.267832 6.71009e-22)
(0.743949 0.238655 -1.33596e-20)
(0.101875 0.2221 -3.54978e-20)
(0.234246 0.420107 -2.59252e-21)
(0.344001 0.464457 -1.48176e-20)
(0.425959 0.439926 -6.66296e-20)
(0.492557 0.395444 -6.44728e-20)
(0.550683 0.351262 1.0754e-20)
(0.60269 0.31195 -2.65149e-20)
(0.649797 0.277298 1.69557e-20)
(0.692877 0.246364 9.20361e-21)
(0.729321 0.219389 1.91608e-20)
(0.0864465 0.204452 5.22929e-20)
(0.205702 0.384706 -4.27951e-20)
(0.312901 0.423924 -2.17654e-20)
(0.396771 0.400722 3.85345e-20)
(0.466627 0.359804 4.39178e-20)
(0.527979 0.319396 -1.45956e-20)
(0.582841 0.283499 -1.8984e-21)
(0.632383 0.25189 -5.27411e-20)
(0.677438 0.223735 -2.98157e-20)
(0.715933 0.19911 1.13631e-20)
(0.0721891 0.184973 -2.97723e-20)
(0.179558 0.34646 1.2537e-20)
(0.284563 0.380687 4.61761e-20)
(0.370258 0.359218 -2.0773e-20)
(0.44311 0.322228 1.65898e-21)
(0.507403 0.285879 5.87719e-20)
(0.564858 0.253631 2.69176e-21)
(0.616609 0.225262 5.05695e-20)
(0.663455 0.200039 2.10769e-20)
(0.703853 0.177909 -3.34893e-20)
(0.0592886 0.163833 4.13569e-20)
(0.156082 0.305648 4.59456e-21)
(0.259226 0.335015 3.01156e-21)
(0.346617 0.315645 4.22465e-20)
(0.422168 0.282909 -5.62196e-21)
(0.48909 0.250875 -3.68948e-20)
(0.548859 0.222487 1.808e-20)
(0.602574 0.197535 -2.89131e-20)
(0.651015 0.175382 -1.20773e-20)
(0.693142 0.155885 1.21904e-20)
(0.0479113 0.141217 -2.57858e-20)
(0.135509 0.26257 -4.95883e-20)
(0.237105 0.287198 1.14769e-20)
(0.326022 0.270248 -2.24796e-20)
(0.403945 0.242054 -1.3573e-20)
(0.473161 0.214559 3.29409e-20)
(0.534946 0.190216 -7.97076e-21)
(0.590368 0.168836 7.35186e-21)
(0.640199 0.149876 -8.9523e-21)
(0.683856 0.13314 1.77785e-20)
(0.0382022 0.117327 9.3597e-21)
(0.118045 0.217543 3.34257e-20)
(0.218384 0.237539 -4.64715e-20)
(0.308624 0.223286 2.19724e-20)
(0.388564 0.199879 -1.00234e-20)
(0.459723 0.177116 -2.82274e-20)
(0.523211 0.156978 2.30624e-20)
(0.580072 0.139301 4.83041e-21)
(0.631075 0.123641 -7.44543e-22)
(0.676042 0.109779 -2.0662e-20)
(0.0302845 0.092375 3.07254e-21)
(0.103863 0.170901 1.07936e-20)
(0.203218 0.186355 4.20854e-20)
(0.29455 0.175029 -8.08402e-21)
(0.376131 0.15661 -6.37589e-21)
(0.448863 0.138739 2.35562e-21)
(0.513729 0.122937 1.05306e-21)
(0.571752 0.109074 8.61261e-21)
(0.623702 0.0968007 -1.13204e-20)
(0.669741 0.085912 -7.19695e-21)
(0.0242578 0.0665869 -7.67005e-21)
(0.0931039 0.122988 -1.31346e-20)
(0.191733 0.133974 -3.27541e-20)
(0.283904 0.125753 1.64912e-20)
(0.366731 0.112483 1.34542e-20)
(0.440654 0.0996278 5.71278e-22)
(0.506563 0.0882664 -2.25226e-20)
(0.565463 0.0783023 -1.00084e-20)
(0.618129 0.0694856 7.92572e-21)
(0.664987 0.0616493 8.48344e-21)
(0.0201977 0.0401952 1.33602e-21)
(0.0858719 0.0741604 -2.7563e-21)
(0.184024 0.0807305 6.21667e-21)
(0.276763 0.0757463 -4.2131e-21)
(0.360429 0.0677382 -3.721e-21)
(0.435151 0.059989 -2.52395e-21)
(0.501759 0.0531422 4.63668e-21)
(0.561247 0.047139 1.76711e-20)
(0.614393 0.0418288 2.55883e-21)
(0.661803 0.0371032 -4.53324e-21)
(0.27318 0.0252979 -3.57572e-21)
(0.357267 0.0226209 3.40728e-21)
(0.43239 0.0200318 1.53805e-21)
(0.499349 0.0177445 -1.533e-21)
(0.559132 0.0157393 -6.98716e-21)
(0.612519 0.0139659 2.30037e-21)
(0.660207 0.0123867 -2.15024e-21)
(1.25844 0.279897 -1.52701e-22)
(1.26706 0.272754 -1.48511e-21)
(1.275 0.265529 -3.3548e-22)
(1.28221 0.258251 -8.23607e-22)
(1.28864 0.250935 4.9706e-21)
(1.2942 0.243588 -4.72142e-21)
(1.29872 0.236192 2.89547e-21)
(1.30195 0.228704 1.23722e-20)
(1.24841 0.26885 -4.24871e-23)
(1.25702 0.262737 1.26933e-21)
(1.2651 0.256567 1.08807e-21)
(1.27263 0.25036 -5.49317e-21)
(1.27958 0.244135 1.76949e-21)
(1.2859 0.237904 -1.09814e-21)
(1.29153 0.23167 3.01867e-21)
(1.29633 0.225423 -5.96917e-21)
(1.23868 0.257471 4.1526e-22)
(1.24696 0.25223 9.60857e-22)
(1.25486 0.246956 5.33965e-22)
(1.26239 0.241668 2.74968e-21)
(1.26952 0.236383 3.72318e-21)
(1.27625 0.231115 5.44885e-21)
(1.28252 0.225873 -1.9056e-22)
(1.28828 0.220662 1.00885e-21)
(1.23003 0.246146 -1.38867e-22)
(1.2378 0.241635 -1.66957e-21)
(1.24531 0.237116 -1.57347e-21)
(1.25256 0.232606 1.15791e-21)
(1.25957 0.228117 -4.23863e-21)
(1.26633 0.223662 -9.93382e-21)
(1.27282 0.219246 4.42429e-21)
(1.27902 0.214874 5.53751e-22)
(1.22245 0.235115 1.99494e-23)
(1.22971 0.23121 8.40686e-22)
(1.23677 0.227305 2.14301e-21)
(1.24364 0.223417 8.75985e-22)
(1.25034 0.219556 -1.99315e-22)
(1.25688 0.215731 2.41185e-21)
(1.26326 0.211948 2.03408e-21)
(1.26947 0.208209 -2.17986e-21)
(1.21564 0.224306 2.72835e-24)
(1.22245 0.22092 9.49751e-22)
(1.2291 0.217535 -1.61686e-21)
(1.23559 0.214162 -1.18274e-21)
(1.24194 0.210812 7.66845e-22)
(1.24816 0.207492 1.71232e-21)
(1.25427 0.204208 -2.92242e-21)
(1.26026 0.200964 -1.50613e-21)
(1.2094 0.213672 9.62969e-23)
(1.21581 0.210733 -9.87658e-22)
(1.22207 0.207796 1.48437e-21)
(1.22821 0.204868 9.95547e-22)
(1.23423 0.201958 1.87973e-21)
(1.24013 0.199072 -7.57474e-22)
(1.24595 0.196217 -5.14543e-21)
(1.25167 0.193398 3.3747e-21)
(1.20356 0.203173 -2.28113e-22)
(1.2096 0.200627 -4.77698e-22)
(1.21552 0.198083 -5.08054e-22)
(1.22133 0.195547 -5.267e-22)
(1.22704 0.193026 4.1293e-22)
(1.23267 0.190524 2.21914e-21)
(1.23821 0.188049 5.78338e-21)
(1.24367 0.185604 1.27527e-21)
(1.19809 0.192799 1.14608e-22)
(1.20377 0.190597 -6.29612e-23)
(1.20935 0.188397 -2.2131e-22)
(1.21486 0.186205 -9.9139e-22)
(1.22028 0.184025 -1.74846e-21)
(1.22563 0.181861 -2.29725e-21)
(1.23091 0.179719 -1.55592e-21)
(1.23613 0.1776 -2.25499e-21)
(1.19287 0.182599 8.10138e-23)
(1.19821 0.180686 9.01601e-22)
(1.20349 0.178777 7.91493e-23)
(1.20869 0.176877 7.9185e-22)
(1.21384 0.174989 5.23739e-23)
(1.21892 0.173115 -3.54758e-21)
(1.22395 0.17126 -2.42424e-22)
(1.22893 0.169425 2.0595e-21)
(1.18786 0.172538 -1.92881e-22)
(1.19288 0.170876 2.63432e-22)
(1.19786 0.169219 -2.70749e-22)
(1.20278 0.167571 -5.15411e-22)
(1.20765 0.165935 -7.97249e-22)
(1.21247 0.164312 2.3865e-21)
(1.21726 0.162707 1.20853e-21)
(1.222 0.16112 -1.99431e-21)
(1.18302 0.162612 6.46473e-23)
(1.18774 0.161166 -8.69509e-22)
(1.19242 0.159727 4.78393e-22)
(1.19706 0.158297 3.35527e-23)
(1.20167 0.156879 8.80116e-22)
(1.20624 0.155474 -9.8088e-22)
(1.21079 0.154085 1.35145e-21)
(1.2153 0.152713 1.6492e-21)
(1.17832 0.152865 4.52033e-23)
(1.18275 0.1516 3.58901e-22)
(1.18715 0.150343 -9.00114e-22)
(1.19153 0.149096 -1.75044e-22)
(1.19588 0.147861 -1.02969e-21)
(1.20021 0.146639 1.05797e-21)
(1.20451 0.145433 -4.10506e-21)
(1.20879 0.144243 -2.56145e-21)
(1.1737 0.143254 -1.20128e-22)
(1.17786 0.142148 1.26395e-22)
(1.182 0.14105 7.72694e-22)
(1.18613 0.139963 -4.7328e-22)
(1.19023 0.138886 1.74274e-21)
(1.19432 0.137823 -6.42813e-22)
(1.19838 0.136774 8.27263e-22)
(1.20243 0.13574 1.4105e-21)
(1.16921 0.133764 1.22024e-22)
(1.17311 0.1328 -4.85952e-23)
(1.177 0.131843 -6.84512e-22)
(1.18088 0.130896 1.53706e-21)
(1.18474 0.129958 -8.45637e-22)
(1.18859 0.129032 7.28846e-22)
(1.19242 0.128119 7.97045e-22)
(1.19625 0.12722 3.10719e-22)
(1.16479 0.124466 7.84022e-23)
(1.16845 0.123618 1.203e-22)
(1.1721 0.122778 3.33696e-22)
(1.17574 0.121946 -1.24884e-21)
(1.17937 0.121124 -8.02095e-22)
(1.18299 0.120313 1.34691e-22)
(1.1866 0.119514 -7.45026e-22)
(1.19021 0.118727 9.22957e-22)
(1.1938 0.117953 -3.30471e-21)
(1.16045 0.115303 -1.12478e-22)
(1.16387 0.114557 -3.86466e-23)
(1.16729 0.113819 -7.86627e-25)
(1.17071 0.113089 9.3513e-22)
(1.17412 0.112368 6.25892e-22)
(1.17752 0.111656 -4.50676e-22)
(1.18092 0.110955 -7.64095e-22)
(1.18431 0.110265 2.78839e-22)
(1.18769 0.109587 5.01421e-22)
(1.15618 0.106292 9.7611e-23)
(1.15939 0.105636 -2.25946e-23)
(1.16259 0.104986 3.65537e-22)
(1.1658 0.104344 -3.31274e-22)
(1.16899 0.10371 -2.53312e-23)
(1.17219 0.103084 8.63075e-22)
(1.17537 0.102467 3.81073e-22)
(1.17856 0.10186 -1.07583e-21)
(1.18174 0.101263 -5.78938e-22)
(1.15199 0.0974265 -1.01472e-22)
(1.155 0.0968483 -1.34186e-22)
(1.158 0.096276 -5.30642e-23)
(1.161 0.0957102 -5.46732e-23)
(1.164 0.0951515 -5.9049e-22)
(1.16699 0.0946001 6.76107e-22)
(1.16998 0.0940564 -4.66011e-22)
(1.17296 0.0935209 -1.05926e-21)
(1.17594 0.0929937 1.48962e-21)
(1.14789 0.0886992 -5.82271e-23)
(1.15071 0.0881902 1.48248e-22)
(1.15352 0.0876864 -2.82015e-23)
(1.15633 0.0871882 -1.72286e-22)
(1.15914 0.086696 2.18444e-22)
(1.16195 0.08621 -5.09065e-22)
(1.16475 0.0857305 8.78703e-22)
(1.16754 0.0852576 7.87427e-22)
(1.17033 0.0847914 -9.68777e-23)
(1.14391 0.0800958 9.47289e-23)
(1.14655 0.0796489 -1.04439e-22)
(1.14918 0.0792065 -4.14609e-23)
(1.15182 0.0787689 -2.3151e-22)
(1.15445 0.0783363 9.43024e-23)
(1.15707 0.0779088 2.35385e-22)
(1.15969 0.0774866 -6.54083e-23)
(1.16231 0.0770696 -1.01131e-21)
(1.16492 0.0766579 7.43195e-22)
(1.14006 0.0716158 8.18365e-24)
(1.14254 0.0712244 -1.20364e-22)
(1.14501 0.070837 -1.35588e-22)
(1.14748 0.0704536 8.68647e-23)
(1.14995 0.0700743 3.91905e-22)
(1.15241 0.0696992 -3.50063e-22)
(1.15486 0.0693282 -7.44086e-22)
(1.15731 0.0689614 8.72534e-22)
(1.15974 0.0685985 -1.27304e-21)
(1.13638 0.0632285 -7.18553e-24)
(1.13871 0.0628892 -5.17755e-23)
(1.14104 0.0625532 1.83597e-22)
(1.14336 0.0622206 -5.69305e-23)
(1.14567 0.0618911 -3.80829e-22)
(1.14798 0.0615649 5.25105e-22)
(1.15027 0.0612418 -6.48153e-22)
(1.15256 0.0609217 -3.66839e-22)
(1.15484 0.0606044 1.10808e-21)
(1.13293 0.0549103 -5.07143e-23)
(1.13512 0.0546208 1.21762e-22)
(1.13731 0.0543338 1.16078e-22)
(1.13949 0.0540493 -1.61196e-22)
(1.14167 0.0537672 -2.44289e-23)
(1.14383 0.0534874 -5.28457e-22)
(1.14599 0.0532098 -4.80933e-23)
(1.14814 0.0529342 5.40074e-22)
(1.15027 0.0526603 -8.87585e-22)
(1.12975 0.0466512 -1.29531e-24)
(1.13182 0.0464083 2.76686e-23)
(1.13389 0.0461672 4.7963e-25)
(1.13595 0.0459281 1.06747e-22)
(1.138 0.0456907 5.97698e-22)
(1.14003 0.0454549 -4.52434e-22)
(1.14206 0.0452206 2.59307e-22)
(1.14408 0.0449875 -1.72814e-23)
(1.14608 0.0447553 -6.80715e-22)
(1.12689 0.0384012 4.09919e-23)
(1.12886 0.0382031 -9.87331e-23)
(1.13082 0.0380064 2.58503e-23)
(1.13277 0.0378112 -2.44837e-22)
(1.13471 0.0376172 1.06765e-22)
(1.13664 0.0374243 1.58281e-22)
(1.13856 0.0372322 3.88672e-22)
(1.14046 0.0370409 4.5025e-23)
(1.14235 0.0368498 -1.07494e-22)
(1.12443 0.0301269 4.13766e-23)
(1.12631 0.0299733 -2.18617e-23)
(1.12818 0.0298208 -7.81916e-23)
(1.13004 0.0296693 2.05535e-22)
(1.13189 0.0295186 -3.57017e-22)
(1.13372 0.0293685 2.69671e-22)
(1.13554 0.0292189 1.49012e-22)
(1.13735 0.0290695 -5.46933e-22)
(1.13914 0.0289199 -3.42905e-22)
(1.12245 0.0217502 5.58591e-24)
(1.12426 0.0216402 -1.07731e-22)
(1.12606 0.0215309 3.52375e-23)
(1.12785 0.0214224 -2.92314e-22)
(1.12962 0.0213145 3.0516e-22)
(1.13137 0.021207 5.30065e-23)
(1.13312 0.0210998 1.66415e-22)
(1.13484 0.0209926 -5.82675e-22)
(1.13656 0.0208853 9.68189e-22)
(1.12103 0.0132539 1.0296e-24)
(1.12278 0.0131885 2.57782e-23)
(1.12453 0.0131233 3.2354e-23)
(1.12626 0.0130582 -1.19942e-22)
(1.12798 0.0129932 2.24177e-22)
(1.12968 0.012928 -2.52495e-22)
(1.13137 0.0128625 2.91571e-22)
(1.13304 0.0127967 -1.15288e-22)
(1.13469 0.0127303 -2.54847e-22)
(1.12027 0.0044187 2.52109e-24)
(1.12199 0.00440218 -8.07542e-23)
(1.1237 0.00438641 1.71745e-22)
(1.12539 0.00437122 1.69232e-22)
(1.12707 0.00435643 -1.0536e-22)
(1.12873 0.00434187 1.71276e-22)
(1.13038 0.00432733 -1.83142e-22)
(1.13202 0.00431264 -5.19586e-23)
(1.13364 0.0042976 -9.98836e-23)
(0.962555 0.342566 1.66915e-21)
(0.981706 0.342859 -1.22905e-21)
(0.999221 0.344066 3.44359e-21)
(1.01662 0.345151 -6.9073e-22)
(1.0346 0.34572 -2.24209e-23)
(1.05247 0.345808 6.97534e-23)
(1.06988 0.34537 -5.29172e-22)
(1.08685 0.344311 -8.77503e-22)
(1.10343 0.342599 1.9659e-22)
(1.11955 0.340244 -3.60939e-21)
(1.13516 0.337272 -2.58563e-21)
(1.15029 0.333691 2.53977e-21)
(1.16483 0.329505 -5.61122e-21)
(1.17903 0.324536 -1.41865e-21)
(1.19273 0.319033 2.71165e-21)
(1.20548 0.313153 -3.55201e-21)
(1.21738 0.306962 5.46272e-22)
(1.22861 0.300499 2.8614e-22)
(1.2392 0.293806 1.35287e-21)
(1.24915 0.286926 2.254e-22)
(0.976431 0.327704 -2.79752e-21)
(0.995342 0.327794 1.81666e-21)
(1.01265 0.328739 -3.97291e-21)
(1.02821 0.329694 -2.5893e-21)
(1.04405 0.330008 -2.7297e-22)
(1.06005 0.329701 5.27404e-23)
(1.07563 0.328868 2.5217e-22)
(1.09076 0.327479 2.16923e-21)
(1.10556 0.32551 -3.07139e-21)
(1.12001 0.322992 2.23659e-21)
(1.13405 0.319961 -5.95549e-22)
(1.14766 0.316457 -2.8487e-21)
(1.16068 0.312462 2.24007e-21)
(1.1733 0.308037 -1.48445e-21)
(1.18575 0.30306 3.94603e-22)
(1.19759 0.297754 -9.05948e-22)
(1.2088 0.292262 3.83176e-21)
(1.21945 0.286612 -7.15573e-22)
(1.22961 0.280812 -1.1393e-21)
(1.23927 0.274883 1.85766e-23)
(0.990751 0.311225 -1.38404e-21)
(1.00845 0.311851 -2.58603e-21)
(1.0253 0.312588 1.03774e-21)
(1.0396 0.313196 1.88509e-21)
(1.05368 0.313199 -2.14253e-22)
(1.06809 0.312545 6.03234e-23)
(1.08225 0.31139 5.79566e-22)
(1.09591 0.309784 2.05484e-21)
(1.1092 0.307709 4.2868e-21)
(1.12216 0.305178 -2.19149e-22)
(1.13475 0.302224 3.85342e-21)
(1.14691 0.298899 -6.23481e-22)
(1.15864 0.295205 -5.83093e-22)
(1.1699 0.291308 2.46506e-22)
(1.1809 0.286982 -3.70469e-21)
(1.19161 0.282377 -2.31878e-21)
(1.20185 0.277624 -1.6678e-21)
(1.21163 0.272751 -4.10759e-22)
(1.22102 0.267757 -9.26024e-22)
(1.23004 0.262655 -4.36655e-22)
(1.00434 0.296141 -2.28154e-21)
(1.02055 0.296827 3.13555e-21)
(1.03644 0.297187 -9.11087e-22)
(1.04961 0.297304 3.9517e-23)
(1.06213 0.296959 2.30005e-23)
(1.07504 0.296058 -4.35974e-22)
(1.08787 0.294709 -6.13923e-22)
(1.10026 0.292998 -3.61641e-21)
(1.11225 0.290924 -1.27616e-21)
(1.12394 0.288486 4.0771e-21)
(1.13531 0.28571 -2.0839e-21)
(1.14631 0.282635 3.58299e-21)
(1.15695 0.279285 -2.63224e-22)
(1.16711 0.275708 -2.1903e-21)
(1.17696 0.271887 5.742e-21)
(1.18667 0.26786 2.42166e-21)
(1.19605 0.263692 -7.06584e-22)
(1.20504 0.259422 9.56168e-22)
(1.21367 0.255062 1.48786e-21)
(1.22199 0.25063 1.69396e-22)
(1.01696 0.281667 3.74746e-21)
(1.03165 0.282083 -2.22993e-21)
(1.04638 0.282034 7.90704e-22)
(1.05849 0.281716 -1.79736e-22)
(1.06969 0.281078 1.61986e-23)
(1.08121 0.280019 1.81413e-22)
(1.0928 0.278581 -5.86157e-22)
(1.10403 0.276843 1.96509e-21)
(1.11486 0.274825 -3.2318e-21)
(1.1254 0.272524 -4.85967e-21)
(1.13567 0.269953 -9.92453e-23)
(1.14563 0.267136 -1.48269e-21)
(1.15528 0.264105 8.23093e-22)
(1.16454 0.260866 -9.36623e-22)
(1.17353 0.257502 -1.69743e-21)
(1.1824 0.254011 9.60201e-23)
(1.19101 0.250389 -5.28313e-22)
(1.19928 0.246664 -1.64643e-21)
(1.20725 0.242862 -5.84828e-22)
(1.21497 0.239006 -7.10517e-23)
(1.02856 0.267339 -7.29422e-23)
(1.04177 0.267464 1.41143e-21)
(1.05523 0.267115 4.33149e-22)
(1.06632 0.266504 2.05648e-22)
(1.07638 0.265667 1.63513e-23)
(1.08666 0.264523 -2.62148e-22)
(1.09709 0.263067 1.39689e-21)
(1.10725 0.261357 1.35369e-21)
(1.11705 0.259427 2.80067e-21)
(1.12656 0.257279 1.68103e-21)
(1.13585 0.254921 1.24462e-21)
(1.14487 0.252371 -8.41202e-23)
(1.15364 0.249656 4.8371e-22)
(1.1621 0.246789 1.80523e-21)
(1.17036 0.243809 -1.49221e-21)
(1.17852 0.240747 -4.25546e-22)
(1.18643 0.237584 1.12687e-21)
(1.19407 0.234337 1.3086e-21)
(1.20146 0.231029 -9.40951e-22)
(1.20865 0.22768 3.44899e-23)
(1.03912 0.25318 -1.61782e-21)
(1.05095 0.253074 -1.11305e-21)
(1.0631 0.252531 1.87154e-22)
(1.07319 0.251737 -1.52974e-22)
(1.08226 0.250774 5.68096e-22)
(1.09144 0.249588 1.56101e-21)
(1.1008 0.248154 1.3023e-21)
(1.10999 0.246508 -3.76155e-21)
(1.11885 0.244685 -1.10885e-21)
(1.12746 0.242697 -1.36265e-22)
(1.13586 0.240552 4.23285e-22)
(1.14406 0.238262 -8.1551e-22)
(1.15203 0.235859 -1.27624e-21)
(1.15975 0.233349 2.60746e-21)
(1.16733 0.230791 5.429e-22)
(1.17486 0.228082 -1.09007e-21)
(1.18217 0.225269 -1.02458e-21)
(1.18925 0.222408 4.61985e-22)
(1.19613 0.219517 9.89546e-22)
(1.20284 0.216603 -1.36397e-22)
(1.04862 0.239308 1.31577e-21)
(1.05917 0.23902 9.06772e-23)
(1.07005 0.238349 1.8685e-22)
(1.07918 0.237445 1.46021e-22)