/*--------------------------------*- C++ -*----------------------------------*\
  =========                 |
  \\      /  F ield         | OpenFOAM: The Open Source CFD Toolbox
   \\    /   O peration     | Website:  https://openfoam.org
    \\  /    A nd           | Version:  7
     \\/     M anipulation  |
\*---------------------------------------------------------------------------*/
FoamFile
{
    version     2.0;
    format      ascii;
    class       volScalarField;
    location    "220";
    object      p;
}
// * * * * * * * * * * * * * * * * * * * * * * * * * * * * * * * * * * * * * //

dimensions      [0 2 -2 0 0 0 0];

internalField   nonuniform List<scalar> 
8500
(
-0.412712
-0.41376
-0.414098
-0.414802
-0.416445
-0.419389
-0.4239
-0.430343
-0.43907
-0.450545
-0.41621
-0.416506
-0.416555
-0.41708
-0.418685
-0.421794
-0.426738
-0.433964
-0.443976
-0.457132
-0.419499
-0.419052
-0.418802
-0.419106
-0.42061
-0.42379
-0.429037
-0.436857
-0.4479
-0.462252
-0.422465
-0.421317
-0.420743
-0.420794
-0.422114
-0.425255
-0.430652
-0.438852
-0.450603
-0.465938
-0.425029
-0.423241
-0.422331
-0.422071
-0.423122
-0.426097
-0.431479
-0.439838
-0.45201
-0.467801
-0.427136
-0.424788
-0.423535
-0.422909
-0.423595
-0.426268
-0.43146
-0.439752
-0.452098
-0.467825
-0.428762
-0.425948
-0.42435
-0.423308
-0.42353
-0.425759
-0.430586
-0.438585
-0.450897
-0.466123
-0.429911
-0.426741
-0.4248
-0.423296
-0.42296
-0.424607
-0.428902
-0.436391
-0.448503
-0.462837
-0.430612
-0.427206
-0.424934
-0.422929
-0.421948
-0.422886
-0.4265
-0.43328
-0.445081
-0.458157
-0.430922
-0.427402
-0.424816
-0.422283
-0.420588
-0.420708
-0.423519
-0.429416
-0.440856
-0.452314
-0.430919
-0.427404
-0.424527
-0.421452
-0.418995
-0.418219
-0.420137
-0.425009
-0.436116
-0.445582
-0.430703
-0.427299
-0.424158
-0.420541
-0.417301
-0.415584
-0.416564
-0.420313
-0.431196
-0.438284
-0.430391
-0.427187
-0.423806
-0.419662
-0.415649
-0.41299
-0.413031
-0.415618
-0.426446
-0.430806
-0.43012
-0.427175
-0.423578
-0.418936
-0.414188
-0.410632
-0.409776
-0.41124
-0.422161
-0.423692
-0.430041
-0.427381
-0.423586
-0.418487
-0.413072
-0.408708
-0.407027
-0.40751
-0.418484
-0.417524
-0.430316
-0.427927
-0.423946
-0.418444
-0.412456
-0.407408
-0.404988
-0.40475
-0.415353
-0.412795
-0.431108
-0.428941
-0.424778
-0.418932
-0.412484
-0.406902
-0.403828
-0.403216
-0.412569
-0.409537
-0.432576
-0.430539
-0.426193
-0.420067
-0.413277
-0.407314
-0.403665
-0.40299
-0.409972
-0.407207
-0.434863
-0.432822
-0.428287
-0.42194
-0.414915
-0.408703
-0.404551
-0.403916
-0.407601
-0.405612
-0.438071
-0.435873
-0.431131
-0.424603
-0.417426
-0.411043
-0.406436
-0.40558
-0.405714
-0.406495
-0.442276
-0.439741
-0.434763
-0.428071
-0.420784
-0.41424
-0.409161
-0.407466
-0.404601
-0.4106
-0.447519
-0.444445
-0.439187
-0.432319
-0.42492
-0.418153
-0.412488
-0.40936
-0.404295
-0.405288
-0.453778
-0.450001
-0.444387
-0.437304
-0.429744
-0.422628
-0.416155
-0.411214
-0.403536
-0.399091
-0.461029
-0.456397
-0.450344
-0.44298
-0.435163
-0.427522
-0.419965
-0.412863
-0.402304
-0.393233
-0.469249
-0.463611
-0.457039
-0.449311
-0.441097
-0.432712
-0.423759
-0.414154
-0.400632
-0.387423
-0.478405
-0.471633
-0.464469
-0.456276
-0.447484
-0.438093
-0.427384
-0.414994
-0.39847
-0.381816
-0.488466
-0.480459
-0.47264
-0.463861
-0.454276
-0.443562
-0.430706
-0.415311
-0.395865
-0.376242
-0.499405
-0.490089
-0.48156
-0.472052
-0.461421
-0.449005
-0.433604
-0.415076
-0.392837
-0.370668
-0.511191
-0.500516
-0.491224
-0.480819
-0.46884
-0.454283
-0.435981
-0.414272
-0.389416
-0.365019
-0.52378
-0.511719
-0.501604
-0.490104
-0.476417
-0.459247
-0.437758
-0.412893
-0.38561
-0.359243
-0.537104
-0.523651
-0.512637
-0.499808
-0.483987
-0.463746
-0.43887
-0.41093
-0.381415
-0.353281
-0.551062
-0.536229
-0.524219
-0.509783
-0.491346
-0.467629
-0.439256
-0.408369
-0.376808
-0.347073
-0.565517
-0.549328
-0.536198
-0.519827
-0.49827
-0.470756
-0.438859
-0.40518
-0.371753
-0.340556
-0.580285
-0.562777
-0.548378
-0.529684
-0.504524
-0.472989
-0.437618
-0.401325
-0.366201
-0.333665
-0.595142
-0.576361
-0.560512
-0.539061
-0.509872
-0.474199
-0.435464
-0.396754
-0.360094
-0.326336
-0.609817
-0.589818
-0.572305
-0.547642
-0.51409
-0.474259
-0.432325
-0.391405
-0.353368
-0.318502
-0.624003
-0.602847
-0.583422
-0.555103
-0.51696
-0.473049
-0.428123
-0.385211
-0.345953
-0.310099
-0.637358
-0.615112
-0.593499
-0.561125
-0.518283
-0.470452
-0.422779
-0.3781
-0.33778
-0.301068
-0.649515
-0.62625
-0.602153
-0.565407
-0.517875
-0.466356
-0.41621
-0.37
-0.328781
-0.291356
-0.66009
-0.63588
-0.609002
-0.567668
-0.515568
-0.460659
-0.408337
-0.360839
-0.318893
-0.28092
-0.668693
-0.643612
-0.613678
-0.567656
-0.511215
-0.453262
-0.399083
-0.350549
-0.308064
-0.269731
-0.67494
-0.649057
-0.615842
-0.565151
-0.504687
-0.444078
-0.388373
-0.339064
-0.296247
-0.257768
-0.678464
-0.651845
-0.61519
-0.559967
-0.495878
-0.433035
-0.376145
-0.326324
-0.283392
-0.244992
-0.678922
-0.651631
-0.611466
-0.551958
-0.484705
-0.420072
-0.36235
-0.312283
-0.269432
-0.231282
-0.676007
-0.648107
-0.60446
-0.541014
-0.471108
-0.405149
-0.34696
-0.296924
-0.254314
-0.216414
-0.669456
-0.641018
-0.594013
-0.527063
-0.455051
-0.388238
-0.329945
-0.280229
-0.238061
-0.200246
-0.659057
-0.630166
-0.580012
-0.510069
-0.436525
-0.369324
-0.311264
-0.262141
-0.220776
-0.183082
-0.644652
-0.615411
-0.562397
-0.490034
-0.415542
-0.348407
-0.29091
-0.242671
-0.202345
-0.165418
-0.626142
-0.596673
-0.541156
-0.466991
-0.392134
-0.325503
-0.268974
-0.222091
-0.182645
-0.147092
-0.603485
-0.573931
-0.516325
-0.441017
-0.366363
-0.300689
-0.245646
-0.200197
-0.161882
-0.127972
-0.5767
-0.547223
-0.487999
-0.412223
-0.338323
-0.274145
-0.2208
-0.177062
-0.140164
-0.108063
-0.545859
-0.516657
-0.456361
-0.380704
-0.308122
-0.245863
-0.194551
-0.152772
-0.117557
-0.087433
-0.511089
-0.482412
-0.421671
-0.346473
-0.275871
-0.215951
-0.166999
-0.127426
-0.0941274
-0.0661878
-0.472584
-0.44474
-0.384011
-0.30971
-0.241711
-0.184544
-0.138261
-0.101123
-0.0699609
-0.0444432
-0.430595
-0.403961
-0.342837
-0.27109
-0.20588
-0.151795
-0.108464
-0.0739686
-0.0451418
-0.0222864
-0.385359
-0.360297
-0.298884
-0.230504
-0.168587
-0.117879
-0.077749
-0.0460714
-0.0197568
0.0001955
-0.337075
-0.313251
-0.253498
-0.188232
-0.130015
-0.0829741
-0.0462533
-0.0175269
0.00605179
0.0226446
-0.286137
-0.263867
-0.206482
-0.14458
-0.0903753
-0.0472521
-0.0140895
0.011592
0.0319993
0.0441548
-0.233147
-0.212377
-0.157949
-0.0998274
-0.0499021
-0.0108902
0.0186372
0.0411846
0.057729
0.0640811
-0.17831
-0.159308
-0.108193
-0.054252
-0.00884126
0.0259196
0.0517592
0.0709826
0.0831002
0.0843886
-0.122062
-0.105097
-0.0575766
-0.00814565
0.0325567
0.0629626
0.0850071
0.10054
0.108088
0.110426
-0.0648617
-0.0501527
-0.00647726
0.0381882
0.0740372
0.100006
0.118102
0.12974
0.133723
0.136681
-0.00716648
0.00510921
0.0447249
0.0844391
0.115339
0.136813
0.150869
0.158681
0.159676
0.161625
0.0505641
0.060269
0.0956533
0.130294
0.156196
0.173147
0.183132
0.18724
0.185457
0.185561
0.107871
0.114905
0.145936
0.175441
0.196343
0.208785
0.214724
0.215235
0.210688
0.208464
0.164301
0.1686
0.195209
0.219574
0.23552
0.243506
0.245465
0.242481
0.235169
0.230388
0.219408
0.220943
0.243117
0.262392
0.273472
0.277096
0.275172
0.268794
0.258739
0.251305
0.272758
0.271536
0.289315
0.303605
0.309953
0.309347
0.303666
0.294013
0.281273
0.271167
0.323934
0.319998
0.333475
0.342935
0.344728
0.340056
0.330772
0.317986
0.302651
0.289906
0.372535
0.365962
0.375283
0.380116
0.377569
0.369033
0.356328
0.340571
0.322761
0.307447
0.418186
0.409085
0.414442
0.414899
0.408266
0.396096
0.380177
0.361636
0.341493
0.323718
0.460535
0.449047
0.45068
0.447051
0.436619
0.421076
0.402177
0.381059
0.358747
0.338646
0.499255
0.485553
0.483741
0.476357
0.462445
0.443817
0.422194
0.398725
0.374427
0.352164
0.534053
0.518334
0.513398
0.502623
0.48558
0.464177
0.440107
0.414531
0.388446
0.364213
0.564665
0.547153
0.539445
0.525676
0.505874
0.48203
0.45581
0.428384
0.400726
0.374739
0.590862
0.571802
0.561705
0.545363
0.523199
0.497265
0.469206
0.440203
0.411199
0.383697
0.612449
0.592106
0.580026
0.561558
0.537445
0.50979
0.480218
0.449918
0.419806
0.391047
0.629268
0.607921
0.594287
0.574156
0.548524
0.519528
0.488779
0.457473
0.426501
0.396762
0.641199
0.619139
0.604394
0.583078
0.556366
0.526421
0.494841
0.462825
0.431249
0.400826
0.648159
0.625685
0.610284
0.58827
0.560927
0.53043
0.498368
0.465944
0.434026
0.403218
0.650105
0.627522
0.611922
0.589703
0.562181
0.531532
0.499343
0.466813
0.434807
0.4039
0.647032
0.624644
0.609305
0.587374
0.560125
0.529726
0.497763
0.46543
0.433587
0.402891
0.638975
0.617082
0.602461
0.581306
0.554779
0.525027
0.493641
0.461806
0.430392
0.400188
0.626007
0.604904
0.591445
0.571546
0.546183
0.517471
0.487008
0.45597
0.425245
0.395843
0.60824
0.588209
0.576344
0.558168
0.534399
0.50711
0.477908
0.447958
0.418173
0.389858
0.585822
0.567133
0.557273
0.54127
0.519512
0.494015
0.466402
0.437823
0.409217
0.38225
0.55894
0.541844
0.534377
0.520973
0.501625
0.478276
0.452565
0.42563
0.398432
0.373056
0.527813
0.51254
0.507826
0.497422
0.480861
0.459996
0.436487
0.411456
0.385883
0.362321
0.492696
0.479454
0.477818
0.470786
0.457364
0.439298
0.418272
0.395391
0.371644
0.350094
0.453876
0.442843
0.444576
0.441251
0.431294
0.416319
0.398035
0.377534
0.3558
0.336434
0.411667
0.402996
0.408346
0.409028
0.402828
0.391209
0.375906
0.357995
0.338443
0.321405
0.366414
0.360225
0.369396
0.374344
0.372161
0.364135
0.352024
0.336895
0.319671
0.305075
0.318484
0.314866
0.328014
0.337441
0.339499
0.335272
0.326541
0.314362
0.299592
0.287518
0.268267
0.267276
0.284508
0.29858
0.305063
0.304807
0.299618
0.290534
0.278316
0.268807
0.216172
0.217829
0.239199
0.258033
0.269084
0.272939
0.271422
0.265559
0.255962
0.249012
0.162623
0.166914
0.192425
0.216084
0.231803
0.239872
0.24213
0.239596
0.232653
0.22819
0.108055
0.114934
0.144532
0.173028
0.19347
0.205815
0.211921
0.21282
0.208543
0.206373
0.0529127
0.0622965
0.0958785
0.129164
0.15434
0.170985
0.180973
0.185411
0.18382
0.183523
-0.00235707
0.00941628
0.046826
0.0847976
0.114673
0.135602
0.149453
0.157548
0.158836
0.159635
-0.0573066
-0.0432948
-0.00225817
0.0402356
0.0747286
0.0998972
0.117535
0.129353
0.134039
0.134362
-0.111492
-0.0954295
-0.0510053
-0.00421763
0.034764
0.0641001
0.0853897
0.10075
0.109777
0.109111
-0.164472
-0.146587
-0.0990494
-0.0482636
-0.00497045
0.0284389
0.0532889
0.0718717
0.0851324
0.0892465
-0.215828
-0.196356
-0.146039
-0.0916136
-0.0442284
-0.00687521
0.0214891
0.0431285
0.0601135
0.0696795
-0.265279
-0.24428
-0.191674
-0.133991
-0.08277
-0.0416536
-0.00984821
0.0147617
0.0348218
0.0485983
-0.312352
-0.29006
-0.235795
-0.17512
-0.120367
-0.0757215
-0.0406158
-0.0131262
0.00960266
0.0266101
-0.356644
-0.332836
-0.278526
-0.21471
-0.156814
-0.108908
-0.0706968
-0.0404517
-0.0152575
0.00456433
-0.397934
-0.372889
-0.318827
-0.25249
-0.191933
-0.14104
-0.0999536
-0.0671137
-0.0396146
-0.0171949
-0.436003
-0.410046
-0.355836
-0.288644
-0.225531
-0.171948
-0.128249
-0.0930043
-0.063381
-0.0385775
-0.470617
-0.444039
-0.390125
-0.322436
-0.257363
-0.201482
-0.155456
-0.118019
-0.08647
-0.0594963
-0.501598
-0.474637
-0.421598
-0.353701
-0.287302
-0.229514
-0.181462
-0.142061
-0.108795
-0.0798389
-0.528827
-0.501671
-0.45
-0.382442
-0.315237
-0.255942
-0.206165
-0.165039
-0.130281
-0.0995062
-0.552241
-0.525049
-0.475168
-0.40857
-0.341075
-0.280771
-0.229452
-0.186864
-0.150862
-0.118435
-0.57183
-0.544744
-0.497024
-0.431982
-0.364721
-0.303824
-0.251457
-0.207427
-0.170459
-0.136623
-0.587638
-0.560785
-0.515542
-0.452612
-0.386116
-0.325027
-0.271977
-0.226924
-0.188888
-0.154181
-0.599767
-0.573258
-0.530744
-0.470435
-0.405237
-0.344369
-0.290945
-0.245167
-0.206256
-0.171226
-0.608372
-0.582304
-0.542696
-0.485458
-0.422079
-0.36186
-0.308377
-0.262137
-0.2226
-0.18723
-0.613657
-0.588118
-0.551517
-0.497726
-0.436659
-0.37752
-0.324303
-0.277844
-0.237846
-0.201998
-0.615872
-0.590944
-0.557367
-0.507316
-0.449015
-0.391375
-0.338745
-0.292301
-0.251995
-0.215694
-0.615305
-0.591071
-0.560454
-0.514344
-0.459213
-0.403469
-0.351738
-0.30554
-0.265101
-0.228505
-0.612274
-0.588817
-0.561026
-0.518961
-0.467339
-0.413863
-0.363335
-0.317613
-0.277221
-0.240512
-0.607118
-0.584521
-0.559373
-0.52135
-0.473505
-0.422638
-0.373603
-0.328578
-0.288397
-0.251738
-0.600186
-0.578532
-0.55581
-0.52173
-0.477843
-0.429886
-0.382619
-0.338503
-0.298676
-0.262203
-0.591829
-0.571198
-0.550673
-0.520343
-0.480505
-0.435708
-0.390466
-0.347458
-0.308112
-0.271937
-0.582389
-0.562853
-0.544301
-0.517454
-0.481658
-0.440218
-0.397231
-0.355521
-0.31677
-0.280979
-0.572191
-0.553813
-0.537027
-0.513344
-0.481489
-0.443535
-0.403006
-0.362771
-0.324718
-0.289379
-0.561533
-0.544367
-0.529162
-0.508303
-0.480196
-0.445788
-0.407887
-0.36929
-0.33203
-0.297192
-0.550682
-0.53477
-0.520983
-0.502615
-0.477989
-0.447112
-0.411969
-0.375161
-0.33878
-0.304477
-0.53987
-0.525239
-0.512733
-0.496548
-0.475085
-0.447645
-0.415347
-0.380462
-0.345039
-0.311294
-0.52929
-0.515952
-0.504611
-0.490342
-0.4717
-0.447534
-0.418115
-0.385267
-0.350876
-0.317705
-0.519099
-0.507047
-0.496778
-0.4842
-0.468045
-0.446926
-0.420365
-0.389644
-0.356351
-0.32377
-0.509412
-0.498623
-0.489354
-0.478279
-0.46431
-0.44597
-0.422188
-0.393653
-0.361515
-0.329546
-0.50031
-0.490744
-0.482422
-0.472697
-0.460656
-0.444811
-0.42367
-0.397345
-0.366401
-0.335087
-0.491833
-0.483438
-0.476029
-0.467533
-0.457206
-0.44358
-0.424895
-0.400762
-0.371025
-0.340436
-0.48399
-0.476705
-0.47019
-0.46283
-0.454037
-0.442385
-0.42594
-0.403935
-0.375381
-0.345626
-0.476752
-0.470515
-0.464882
-0.458595
-0.451188
-0.441296
-0.426866
-0.406886
-0.379429
-0.350678
-0.470062
-0.464814
-0.460057
-0.454802
-0.448657
-0.440341
-0.427713
-0.409625
-0.383118
-0.355547
-0.463834
-0.459527
-0.455639
-0.451386
-0.446407
-0.439505
-0.428484
-0.412148
-0.386359
-0.360199
-0.457969
-0.454565
-0.451532
-0.448254
-0.444362
-0.438732
-0.429144
-0.414418
-0.389123
-0.364244
-0.452358
-0.449834
-0.447631
-0.445292
-0.442416
-0.43793
-0.42962
-0.416386
-0.391333
-0.367427
-0.446898
-0.44524
-0.443831
-0.442376
-0.440441
-0.43698
-0.429818
-0.417929
-0.393166
-0.367967
-0.441504
-0.440707
-0.440037
-0.439392
-0.438306
-0.435752
-0.429636
-0.418825
-0.395819
-0.358539
-0.436118
-0.43618
-0.436176
-0.436245
-0.435896
-0.434126
-0.428949
-0.418876
-0.398683
-0.355814
-0.430727
-0.431627
-0.43221
-0.432876
-0.433132
-0.432009
-0.427638
-0.418106
-0.400606
-0.356157
-0.425345
-0.427062
-0.42814
-0.429273
-0.429985
-0.429363
-0.425637
-0.416538
-0.401095
-0.356304
-0.420032
-0.422527
-0.424003
-0.425475
-0.426508
-0.426219
-0.422972
-0.414189
-0.400391
-0.356186
-0.414883
-0.418099
-0.419877
-0.421569
-0.422791
-0.422717
-0.419761
-0.411232
-0.399046
-0.356375
-0.410022
-0.413881
-0.415873
-0.41768
-0.418988
-0.419019
-0.416262
-0.408366
-0.397276
-0.357237
-0.405584
-0.409989
-0.412116
-0.413964
-0.415283
-0.415353
-0.412787
-0.405637
-0.394198
-0.360307
-0.401706
-0.406541
-0.408741
-0.410573
-0.411865
-0.411959
-0.409622
-0.403273
-0.392114
-0.364255
-0.398501
-0.403657
-0.405872
-0.407652
-0.408907
-0.409048
-0.407013
-0.401513
-0.391178
-0.368234
-0.396092
-0.401429
-0.403612
-0.405321
-0.406546
-0.40678
-0.405128
-0.400529
-0.391367
-0.372671
-0.394536
-0.399922
-0.402035
-0.403663
-0.404876
-0.405257
-0.404069
-0.400439
-0.392733
-0.377867
-0.393865
-0.399169
-0.401178
-0.402722
-0.403946
-0.404526
-0.403877
-0.401287
-0.395254
-0.383915
-0.394072
-0.399168
-0.401044
-0.402501
-0.403759
-0.404586
-0.404537
-0.403055
-0.398848
-0.390827
-0.395112
-0.399881
-0.401598
-0.402967
-0.404276
-0.40539
-0.40599
-0.405671
-0.403391
-0.398558
-0.396905
-0.401239
-0.402773
-0.404052
-0.405427
-0.406856
-0.408139
-0.409019
-0.408723
-0.406991
-0.399342
-0.403145
-0.404476
-0.405661
-0.40711
-0.40887
-0.410853
-0.412946
-0.414643
-0.415928
-0.40229
-0.405482
-0.40659
-0.407675
-0.409199
-0.411294
-0.413975
-0.417264
-0.420914
-0.425097
-0.405604
-0.40812
-0.408988
-0.409964
-0.411553
-0.413969
-0.417321
-0.421759
-0.427266
-0.434167
-0.409128
-0.410924
-0.411535
-0.412386
-0.414019
-0.416725
-0.420696
-0.426198
-0.433413
-0.442773
-0.476163
-0.514895
-0.55808
-0.573982
-0.535764
-0.441777
-0.339284
-0.263214
-0.227809
-0.234654
-0.244655
-0.225195
-0.177309
-0.131445
-0.106688
-0.0974906
-0.102114
-0.122223
-0.118906
-0.0972717
-0.0873763
-0.0756869
-0.050079
-0.0532642
-0.0600593
-0.0672166
-0.0544984
-0.0463027
-0.0108101
-0.0152847
-0.486651
-0.530145
-0.578305
-0.597014
-0.557393
-0.456988
-0.346068
-0.2622
-0.21874
-0.219483
-0.22549
-0.210582
-0.167651
-0.127475
-0.106758
-0.100296
-0.107624
-0.129552
-0.126361
-0.10057
-0.0884678
-0.0760892
-0.0498607
-0.0524902
-0.0590878
-0.0664026
-0.0545348
-0.0465732
-0.0103631
-0.0152628
-0.495168
-0.542882
-0.594817
-0.616503
-0.57588
-0.469877
-0.351278
-0.260167
-0.209363
-0.204193
-0.206109
-0.195132
-0.157238
-0.123109
-0.106583
-0.103006
-0.113094
-0.136831
-0.133673
-0.103761
-0.0894547
-0.0764422
-0.0496691
-0.0517442
-0.0581594
-0.0655683
-0.0545374
-0.0468509
-0.00997688
-0.0152665
-0.501268
-0.552475
-0.607768
-0.632283
-0.591173
-0.480519
-0.355139
-0.257393
-0.199967
-0.188941
-0.186886
-0.178956
-0.146132
-0.118339
-0.106125
-0.105562
-0.118438
-0.143969
-0.140774
-0.106837
-0.0903356
-0.0767388
-0.0495011
-0.0510306
-0.0572802
-0.0647191
-0.0545062
-0.0471335
-0.00965323
-0.0152955
-0.504982
-0.55885
-0.617061
-0.644303
-0.603267
-0.489006
-0.357864
-0.254163
-0.190806
-0.173915
-0.168168
-0.162196
-0.134418
-0.113161
-0.105348
-0.107906
-0.123571
-0.150882
-0.147604
-0.109791
-0.0911099
-0.0769726
-0.0493532
-0.0503534
-0.0564554
-0.0638604
-0.0544407
-0.0474181
-0.00939404
-0.0153491
-0.506322
-0.56211
-0.622738
-0.652618
-0.612208
-0.495442
-0.359643
-0.250746
-0.182095
-0.159344
-0.15024
-0.145049
-0.122205
-0.107582
-0.10422
-0.109978
-0.128413
-0.157484
-0.154106
-0.112617
-0.091778
-0.0771379
-0.0492217
-0.0497163
-0.0556897
-0.0629976
-0.05434
-0.047701
-0.00920097
-0.0154265
-0.505409
-0.562461
-0.624982
-0.657377
-0.618081
-0.499939
-0.360645
-0.247385
-0.174008
-0.145489
-0.133329
-0.127852
-0.109621
-0.101616
-0.102716
-0.11172
-0.132888
-0.163699
-0.16023
-0.115306
-0.0923409
-0.0772303
-0.0491025
-0.0491222
-0.054987
-0.0621355
-0.0542032
-0.0479777
-0.00907557
-0.0155266
-0.502504
-0.560217
-0.62408
-0.658804
-0.621003
-0.50261
-0.361012
-0.24428
-0.16669
-0.132612
-0.1176
-0.110711
-0.0968255
-0.0952911
-0.100817
-0.113078
-0.136929
-0.16946
-0.165931
-0.117855
-0.0928008
-0.0772461
-0.0489911
-0.0485732
-0.0543505
-0.0612785
-0.0540288
-0.0482434
-0.00901926
-0.0156484
-0.497958
-0.555766
-0.620388
-0.657175
-0.621123
-0.503568
-0.360864
-0.241584
-0.160256
-0.120947
-0.10318
-0.0941896
-0.0840298
-0.0886469
-0.0985089
-0.114005
-0.140479
-0.174707
-0.171173
-0.120256
-0.0931604
-0.0771829
-0.0488827
-0.0480705
-0.0537819
-0.0604303
-0.0538152
-0.0484925
-0.00903331
-0.0157904
-0.492179
-0.549507
-0.614475
-0.652789
-0.61864
-0.50291
-0.360295
-0.239395
-0.154797
-0.110672
-0.0901587
-0.0788699
-0.0714595
-0.0817325
-0.0957861
-0.114457
-0.143493
-0.179394
-0.175925
-0.122504
-0.0934235
-0.0770389
-0.0487723
-0.0476144
-0.0532816
-0.0595937
-0.0535608
-0.048719
-0.0091188
-0.015951
-0.485585
-0.541817
-0.607439
-0.645946
-0.613773
-0.50073
-0.359381
-0.237761
-0.150375
-0.101891
-0.0785925
-0.0651107
-0.0593286
-0.0746083
-0.0926488
-0.114398
-0.145937
-0.183485
-0.180162
-0.124592
-0.0935942
-0.0768136
-0.0486545
-0.0472041
-0.0528486
-0.0587702
-0.0532635
-0.0489162
-0.00927659
-0.0161284
-0.478562
-0.533037
-0.59841
-0.6368
-0.60671
-0.497148
-0.358193
-0.236695
-0.147026
-0.0946375
-0.068499
-0.0530943
-0.0478458
-0.0673438
-0.089102
-0.1138
-0.147788
-0.186959
-0.183866
-0.126516
-0.0936778
-0.0765076
-0.0485239
-0.0468381
-0.0524804
-0.0579603
-0.0529213
-0.0490771
-0.00950734
-0.0163206
-0.471426
-0.523553
-0.584975
-0.625411
-0.597623
-0.492334
-0.356798
-0.236194
-0.144768
-0.0888899
-0.0598653
-0.0428782
-0.0372043
-0.0600112
-0.0851542
-0.112641
-0.149033
-0.189803
-0.187024
-0.12827
-0.0936802
-0.0761221
-0.0483748
-0.0465131
-0.0521734
-0.0571628
-0.0525322
-0.0491942
-0.00981139
-0.0165253
-0.464398
-0.513691
-0.571739
-0.612084
-0.586722
-0.486462
-0.355272
-0.236249
-0.14359
-0.0845803
-0.052646
-0.034397
-0.0275674
-0.0526769
-0.0808149
-0.110904
-0.149673
-0.192013
-0.189625
-0.129845
-0.0936061
-0.0756569
-0.0482002
-0.0462227
-0.0519222
-0.0563754
-0.0520941
-0.0492597
-0.0101888
-0.0167401
-0.457584
-0.503551
-0.557951
-0.597101
-0.57421
-0.479661
-0.353605
-0.236738
-0.143364
-0.0815552
-0.0467383
-0.0274659
-0.0190564
-0.0453952
-0.076093
-0.108577
-0.149716
-0.193592
-0.191665
-0.131223
-0.0934544
-0.07511
-0.0479924
-0.0459576
-0.0517168
-0.0555941
-0.051605
-0.0492655
-0.0106394
-0.0169624
-0.451017
-0.493514
-0.543654
-0.580742
-0.560304
-0.471966
-0.351613
-0.237373
-0.143818
-0.0795834
-0.0419966
-0.02182
-0.0117239
-0.0382041
-0.0709944
-0.10565
-0.149179
-0.194553
-0.193157
-0.132392
-0.0932243
-0.0744852
-0.0477477
-0.0457149
-0.0515441
-0.0548129
-0.0510626
-0.0492032
-0.0111629
-0.0171897
-0.444599
-0.48406
-0.528989
-0.563356
-0.54538
-0.46362
-0.349429
-0.238266
-0.145036
-0.0787052
-0.0384528
-0.0172966
-0.00557938
-0.0311207
-0.0655191
-0.102112
-0.148083
-0.194913
-0.194107
-0.133378
-0.0929488
-0.0738107
-0.0474758
-0.0455108
-0.0514105
-0.0540248
-0.0504648
-0.0490639
-0.0117583
-0.0174177
-0.438203
-0.469644
-0.513642
-0.545051
-0.530005
-0.45566
-0.348424
-0.240812
-0.148108
-0.0796536
-0.0365232
-0.0139825
-0.000723074
-0.0242077
-0.0596554
-0.097959
-0.146443
-0.194635
-0.194385
-0.134243
-0.0927103
-0.0731289
-0.0471902
-0.0453596
-0.0513669
-0.0532314
-0.0498131
-0.0488388
-0.0124199
-0.017638
-0.432073
-0.459239
-0.497088
-0.525229
-0.513788
-0.448047
-0.348692
-0.244994
-0.152867
-0.0822883
-0.0359424
-0.0114865
0.00289758
-0.0177245
-0.0534359
-0.0931351
-0.144359
-0.193595
-0.193777
-0.134874
-0.0924587
-0.0723794
-0.0468412
-0.0451758
-0.0513691
-0.052434
-0.0491193
-0.0485199
-0.013139
-0.017847
-0.427539
-0.448355
-0.481171
-0.504876
-0.494412
-0.434644
-0.341865
-0.242428
-0.152407
-0.0816931
-0.0334639
-0.00753596
0.00684247
-0.0111235
-0.0469044
-0.0878031
-0.141611
-0.19252
-0.193174
-0.134665
-0.0916213
-0.0712567
-0.0462485
-0.0447098
-0.0509242
-0.0514956
-0.0483161
-0.0481066
-0.0139734
-0.0180792
-0.413546
-0.439849
-0.467951
-0.486139
-0.471841
-0.412277
-0.323047
-0.228309
-0.142545
-0.074275
-0.0267345
-0.000293248
0.0152625
0.00214628
-0.0337341
-0.0793175
-0.140609
-0.195962
-0.195871
-0.133618
-0.0895819
-0.0694771
-0.0452586
-0.0436758
-0.0491747
-0.0498158
-0.0467275
-0.0473872
-0.0154091
-0.0184525
-0.405398
-0.425241
-0.444453
-0.454442
-0.43673
-0.380778
-0.299069
-0.212115
-0.132645
-0.0680816
-0.0214362
0.00552206
0.0213763
0.0110841
-0.0226315
-0.0716809
-0.136629
-0.193988
-0.193046
-0.130512
-0.0863354
-0.0665802
-0.0438455
-0.0427724
-0.048536
-0.0492422
-0.0448868
-0.0465585
-0.0167971
-0.0187095
-0.39199
-0.406886
-0.417756
-0.421074
-0.401921
-0.350843
-0.276926
-0.197396
-0.123531
-0.0623734
-0.0167607
0.0107575
0.0276762
0.0199789
-0.0130279
-0.0655582
-0.131653
-0.189331
-0.1881
-0.126605
-0.0827234
-0.0633581
-0.042258
-0.0417957
-0.0480423
-0.0489081
-0.0429048
-0.0455137
-0.0180675
-0.0188951
-0.37545
-0.385956
-0.389949
-0.388131
-0.368439
-0.322131
-0.255573
-0.183169
-0.114737
-0.0570271
-0.0126307
0.0154337
0.0343713
0.0302616
-0.00200336
-0.0587301
-0.12607
-0.183506
-0.181379
-0.121714
-0.078754
-0.0597438
-0.0404167
-0.0407336
-0.0474867
-0.0483559
-0.0406542
-0.0441325
-0.0194037
-0.019028
-0.355756
-0.363355
-0.362203
-0.356453
-0.336727
-0.294987
-0.235342
-0.169658
-0.106377
-0.0520088
-0.00898316
0.0195218
0.0411232
0.0414228
0.0107816
-0.0505142
-0.120038
-0.176156
-0.172555
-0.115764
-0.0744176
-0.0557487
-0.0382927
-0.0395418
-0.0468627
-0.0475854
-0.038116
-0.0423916
-0.0208124
-0.0190939
-0.333923
-0.339925
-0.335211
-0.326564
-0.307141
-0.269635
-0.21631
-0.156849
-0.0984575
-0.047292
-0.00575621
0.0230499
0.0476485
0.0528422
0.0246041
-0.0411429
-0.113499
-0.166882
-0.161586
-0.108734
-0.0697142
-0.0513847
-0.0358505
-0.0381858
-0.0461218
-0.0466263
-0.0352938
-0.0402599
-0.0222328
-0.0190825
-0.311193
-0.316274
-0.309343
-0.298719
-0.2798
-0.246113
-0.198501
-0.144759
-0.0909988
-0.0428889
-0.00290809
0.0260596
0.0536086
0.0639809
0.0385309
-0.0308894
-0.106333
-0.155581
-0.148584
-0.100638
-0.0646473
-0.0466749
-0.033056
-0.0366192
-0.0451868
-0.0454427
-0.0321791
-0.0376767
-0.0236088
-0.0189857
-0.28825
-0.292819
-0.284749
-0.272934
-0.254652
-0.224368
-0.181894
-0.133382
-0.0839987
-0.0388306
-0.000418481
0.0285579
0.0586372
0.0741879
0.0515808
-0.0199574
-0.0983049
-0.14224
-0.133776
-0.0915467
-0.0592249
-0.0416514
-0.0298755
-0.0347818
-0.0439637
-0.0439631
-0.0287614
-0.034586
-0.0248879
-0.0187926
-0.265593
-0.26988
-0.261451
-0.249099
-0.231568
-0.204307
-0.166443
-0.122707
-0.0774457
-0.0351517
0.00170251
0.030509
0.0624065
0.0826281
0.0627072
-0.00869772
-0.0888276
-0.126894
-0.117542
-0.081601
-0.0534608
-0.0363532
-0.0262771
-0.0325991
-0.0423392
-0.042106
-0.0250419
-0.0309617
-0.0260123
-0.0184875
-0.243594
-0.247688
-0.239424
-0.227055
-0.210388
-0.18582
-0.152087
-0.112716
-0.0713258
-0.0318697
0.00341289
0.0318628
0.0646668
0.0883811
0.0710207
0.00245779
-0.0770457
-0.108698
-0.100413
-0.071019
-0.047378
-0.0308214
-0.0222343
-0.0299799
-0.0401805
-0.0397873
-0.021041
-0.0268117
-0.0269111
-0.0180537
-0.222476
-0.226399
-0.218632
-0.206643
-0.190951
-0.168799
-0.138763
-0.103387
-0.0656299
-0.0289776
0.00465828
0.0325785
0.0653116
0.0907722
0.0762092
0.0132346
-0.0624598
-0.0902131
-0.0831103
-0.0600902
-0.0410133
-0.025095
-0.017729
-0.0268162
-0.0373355
-0.036918
-0.016798
-0.0221769
-0.027501
-0.0174749
-0.202377
-0.206128
-0.19905
-0.187724
-0.173102
-0.153138
-0.126414
-0.0946943
-0.0603525
-0.0264532
0.00540901
0.0326295
0.064359
0.0897943
0.0785926
0.023365
-0.0455997
-0.0714341
-0.0663645
-0.0491411
-0.0344178
-0.0192132
-0.0127553
-0.0229836
-0.0336356
-0.0334011
-0.0123716
-0.0171396
-0.0276877
-0.016737
-0.183391
-0.186958
-0.180663
-0.170185
-0.156702
-0.138741
-0.114985
-0.0866117
-0.0554862
-0.0242741
0.00567735
0.0319927
0.0617723
0.0860466
0.0785864
0.0321483
-0.0282571
-0.0534298
-0.0508114
-0.0384838
-0.0276582
-0.0132205
-0.00732518
-0.0183478
-0.0289003
-0.0291296
-0.00783986
-0.0118304
-0.0273683
-0.0158283
-0.165576
-0.168943
-0.163459
-0.153935
-0.141633
-0.125515
-0.104425
-0.0791121
-0.0510159
-0.0224186
0.00550453
0.0306633
0.0580756
0.080354
0.0763517
0.038669
-0.012515
-0.0370936
-0.0368618
-0.0283685
-0.0208184
-0.00716983
-0.00147589
-0.0127801
-0.0229506
-0.023988
-0.00329678
-0.00642418
-0.0264371
-0.0147401
-0.148959
-0.152114
-0.147423
-0.138898
-0.127787
-0.113377
-0.0946882
-0.0721697
-0.0469198
-0.0208631
0.00494766
0.0286716
0.0534556
0.0734288
0.0721002
0.0424532
0.000333898
-0.0229808
-0.0246734
-0.018967
-0.0139988
-0.0011269
0.00472285
-0.00617896
-0.0156348
-0.0178602
0.00115751
-0.00112432
-0.0247979
-0.0134675
-0.133546
-0.136481
-0.132538
-0.125013
-0.115076
-0.10225
-0.0857275
-0.0657593
-0.0431724
-0.0195763
0.0040785
0.0261282
0.0482222
0.0658628
0.0664068
0.0437565
0.00997118
-0.0112097
-0.0142146
-0.0103854
-0.00731323
0.00482389
0.0111587
0.00149965
-0.00688272
-0.0106584
0.00543132
0.00386443
-0.0223811
-0.0120103
-0.119328
-0.12204
-0.118783
-0.112224
-0.103423
-0.0920632
-0.0774994
-0.0598543
-0.0397468
-0.0185166
0.00297661
0.0231988
0.0427243
0.0581688
0.0600008
0.0432326
0.0167667
-0.00163985
-0.0053581
-0.00268508
-0.000880695
0.010574
0.0176635
0.0101791
0.00321546
-0.00237954
0.00946189
0.00836222
-0.0191172
-0.0103733
-0.106281
-0.10877
-0.106131
-0.100485
-0.0927608
-0.0827557
-0.0699625
-0.0544281
-0.0366156
-0.0176367
0.00172934
0.0200694
0.0372572
0.0507402
0.0534765
0.0415254
0.0213007
0.00596681
0.00205632
0.00410542
0.00518757
0.015993
0.0239974
0.0195756
0.0142967
0.00681277
0.0132351
0.0122318
-0.0151226
-0.00857089
-0.0943727
-0.0966461
-0.0945517
-0.0897501
-0.0830338
-0.0742724
-0.0630779
-0.049454
-0.0337516
-0.0168884
0.000426579
0.0169115
0.0320375
0.0438342
0.0472206
0.0391403
0.0241286
0.011876
0.00819216
0.00998853
0.010801
0.0209544
0.02985
0.029097
0.0256107
0.0164747
0.0167696
0.015413
-0.010611
-0.00664035
-0.083566
-0.085633
-0.0840137
-0.0799808
-0.0741933
-0.0665657
-0.05681
-0.0449068
-0.0311288
-0.0162269
-0.000848591
0.0138686
0.0272114
0.0375966
0.0414559
0.0364399
0.0257152
0.0163552
0.013207
0.0149948
0.0158909
0.0253748
0.0349141
0.0378286
0.0359479
0.0257963
0.0201062
0.0179344
-0.00581239
-0.00464369
-0.0738205
-0.0756938
-0.0744833
-0.0711401
-0.0661975
-0.059595
-0.0511277
-0.0407634
-0.0287243
-0.0156154
-0.00202803
0.0110547
0.0228635
0.032094
0.036292
0.0336744
0.0264284
0.019662
0.017248
0.0191765
0.0203986
0.0291991
0.0390036
0.0448086
0.0440685
0.0337708
0.0233134
0.0199021
-0.00103396
-0.00266823
-0.0650964
-0.0667911
-0.0659279
-0.0631952
-0.0590113
-0.0533266
-0.0460042
-0.0370055
-0.0265202
-0.0150267
-0.00306256
0.00854868
0.0190358
0.0273346
0.0317678
0.0310041
0.0265547
0.0220273
0.020452
0.0226005
0.024277
0.0323691
0.0420259
0.0494612
0.0493544
0.0396966
0.0264304
0.0214513
0.00340043
-0.000819012
-0.0573549
-0.0588876
-0.0583166
-0.0561175
-0.0526054
-0.0477334
-0.0414186
-0.0336195
-0.0245052
-0.0144459
-0.00392701
0.00637556
0.0157376
0.0232893
0.0278813
0.0285328
0.0262886
0.0236475
0.0229433
0.025343
0.0275046
0.0348637
0.0439924
0.0517466
0.0519181
0.0434815
0.0293325
0.0226732
0.00718827
0.000804676
-0.050567
-0.0519522
-0.0516233
-0.0498844
-0.0469582
-0.0427961
-0.0373566
-0.0305978
-0.0226752
-0.0138694
-0.00461415
0.00453955
0.0129564
0.0199095
0.0246042
0.0263175
0.0257024
0.0246893
0.0248365
0.027484
0.0300929
0.036722
0.0450381
0.052249
0.0525961
0.0454666
0.0317716
0.0236078
0.0101443
0.00213978
-0.0447068
-0.0459626