/*--------------------------------*- C++ -*----------------------------------*\
  =========                 |
  \\      /  F ield         | OpenFOAM: The Open Source CFD Toolbox
   \\    /   O peration     | Website:  https://openfoam.org
    \\  /    A nd           | Version:  7
     \\/     M anipulation  |
\*---------------------------------------------------------------------------*/
FoamFile
{
    version     2.0;
    format      ascii;
    class       volVectorField;
    location    "220";
    object      U;
}
// * * * * * * * * * * * * * * * * * * * * * * * * * * * * * * * * * * * * * //

dimensions      [0 1 -1 0 0 0 0];

internalField   nonuniform List<vector> 
8500
(
(-0.00150998 0.0580258 1.08515e-21)
(-0.00635097 0.143344 -3.09684e-21)
(-0.0159986 0.204077 -3.59982e-21)
(-0.0290494 0.242833 3.5739e-21)
(-0.0441018 0.265614 -3.29282e-21)
(-0.0593435 0.279377 -1.76533e-21)
(-0.073137 0.289527 3.04548e-21)
(-0.0844615 0.29864 3.83018e-21)
(-0.0924814 0.306523 -6.50011e-22)
(-0.0960621 0.310617 1.93659e-21)
(-0.00324849 0.0585222 -1.19592e-21)
(-0.0092459 0.145803 3.68236e-21)
(-0.0174572 0.208793 -8.66213e-21)
(-0.0278309 0.249344 7.84204e-21)
(-0.039505 0.273001 3.37563e-22)
(-0.0509854 0.286592 5.77805e-21)
(-0.0606709 0.295705 -1.01455e-20)
(-0.0673401 0.303226 -1.50841e-20)
(-0.0699511 0.309269 -3.04922e-21)
(-0.066538 0.311468 7.05592e-21)
(-0.00498753 0.0580424 1.11813e-21)
(-0.0122854 0.14622 8.14599e-21)
(-0.0191932 0.211026 1.90904e-20)
(-0.026874 0.253352 -1.72344e-20)
(-0.0349647 0.278019 -3.90707e-21)
(-0.042318 0.291581 -3.57558e-21)
(-0.0473979 0.299689 1.83683e-20)
(-0.048806 0.305488 1.15577e-20)
(-0.0453671 0.309422 2.91326e-21)
(-0.0340975 0.30961 -2.18906e-20)
(-0.00664321 0.0566552 3.97411e-21)
(-0.0153404 0.14465 -4.78434e-21)
(-0.0211219 0.21075 -3.56621e-20)
(-0.0261784 0.254723 3.13851e-21)
(-0.0305931 0.280485 9.76148e-21)
(-0.0335496 0.294147 -7.64644e-21)
(-0.0336402 0.301297 -4.07526e-22)
(-0.0293322 0.305274 -3.19454e-21)
(-0.019324 0.306855 7.38719e-21)
(0.000311438 0.304783 2.21023e-20)
(-0.008145 0.0544651 2.78787e-21)
(-0.0182845 0.141213 -1.54126e-20)
(-0.0231706 0.208009 3.68583e-20)
(-0.0257566 0.253377 -1.67146e-20)
(-0.0264964 0.280255 -7.5222e-23)
(-0.0248977 0.294125 2.31994e-20)
(-0.0197318 0.300381 -1.07643e-20)
(-0.00939339 0.302485 1.36268e-21)
(0.00741419 0.301538 -4.49626e-21)
(0.0358152 0.296666 1.58491e-21)
(-0.00944053 0.0516027 3.30561e-20)
(-0.0210149 0.136091 3.96433e-20)
(-0.025269 0.202901 -1.00918e-20)
(-0.0256192 0.249317 1.91789e-20)
(-0.0227845 0.277235 5.99539e-21)
(-0.0165815 0.291381 -8.62133e-21)
(-0.00600723 0.296826 -3.30964e-21)
(0.0105596 0.297064 -1.4882e-20)
(0.0341545 0.29349 3.19172e-21)
(0.0715742 0.2854 -2.0674e-20)
(-0.0104982 0.0482198 -3.18424e-20)
(-0.0234576 0.129524 -2.06263e-20)
(-0.0273593 0.195605 1.67304e-20)
(-0.025774 0.242608 -2.87598e-20)
(-0.0195606 0.271383 3.22911e-21)
(-0.00880935 0.285816 3.38033e-20)
(0.00721586 0.290541 -6.05504e-21)
(0.0301208 0.288983 4.13369e-20)
(0.0603261 0.282781 -6.98597e-22)
(0.106931 0.271132 -1.7626e-20)
(-0.0113091 0.0444825 2.65678e-20)
(-0.0255717 0.121798 -4.74999e-20)
(-0.0294029 0.186371 -1.87176e-20)
(-0.0262269 0.233388 2.20021e-20)
(-0.0169113 0.262715 6.47702e-22)
(-0.00176286 0.277369 -6.32464e-20)
(0.0196569 0.281453 -3.72364e-21)
(0.0489518 0.278232 -3.20433e-20)
(0.085475 0.269507 -4.25306e-20)
(0.141496 0.253946 2.58603e-20)
(-0.0118886 0.0405631 -1.49105e-20)
(-0.027353 0.113232 7.05471e-21)
(-0.0313823 0.17551 1.73432e-20)
(-0.02698 0.221868 -1.5203e-20)
(-0.0148955 0.251321 -5.37022e-20)
(0.00442191 0.26603 1.86813e-20)
(0.0310989 0.269509 2.85929e-21)
(0.0668131 0.2648 4.78384e-20)
(0.109286 0.253764 6.49332e-20)
(0.175231 0.233901 -3.01521e-20)
(-0.0122757 0.0366316 2.32339e-20)
(-0.0288352 0.104162 2.08952e-20)
(-0.0333005 0.163381 -2.97775e-21)
(-0.0280253 0.208333 7.61054e-20)
(-0.0135287 0.237363 3.22302e-20)
(0.00968309 0.251849 2.42331e-20)
(0.0414316 0.254687 3.45787e-20)
(0.0836217 0.248688 -1.57317e-20)
(0.131652 0.235622 -2.16312e-20)
(0.208623 0.211051 -3.65548e-20)
(-0.0125306 0.0328482 -2.2434e-21)
(-0.0300857 0.0949208 -3.26887e-20)
(-0.0351751 0.150371 -2.34018e-20)
(-0.0293322 0.193133 -3.74007e-20)
(-0.0127578 0.221092 -2.95076e-20)
(0.0140765 0.234964 2.96223e-20)
(0.0507232 0.237025 -2.86409e-20)
(0.0995519 0.229934 -2.03031e-20)
(0.152839 0.215111 2.62464e-21)
(0.242986 0.185526 9.73856e-21)
(-0.0127304 0.0293561 -6.31697e-20)
(-0.0311965 0.0858264 2.99683e-20)
(-0.0370254 0.136884 2.16605e-20)
(-0.0308271 0.176673 1.42866e-20)
(-0.0124248 0.202851 -2.58138e-20)
(0.0178407 0.215617 -2.20377e-20)
(0.0593331 0.216664 3.1996e-20)
(0.115195 0.208675 -2.62475e-20)
(0.173787 0.192222 -1.12865e-21)
(0.280829 0.157738 -2.88399e-20)
(-0.0129619 0.0262736 5.2462e-20)
(-0.0322676 0.0771594 2.10386e-20)
(-0.0388501 0.123314 1.23887e-21)
(-0.0323623 0.1594 -2.61174e-20)
(-0.0122149 0.183074 2.01058e-21)
(0.0214847 0.194188 2.83965e-20)
(0.0680637 0.193902 -8.11723e-21)
(0.131759 0.185224 -9.92197e-21)
(0.196534 0.166969 -2.36958e-20)
(0.325977 0.128668 4.38307e-20)
(-0.013312 0.0236876 3.489e-20)
(-0.033386 0.0691496 -5.67127e-20)
(-0.0405984 0.110029 -4.32311e-20)
(-0.0336758 0.141785 1.87127e-20)
(-0.0115961 0.162286 3.77478e-20)
(0.0258873 0.171204 3.1513e-20)
(0.0783195 0.169249 -3.37616e-20)
(0.151238 0.160122 6.65166e-20)
(0.224626 0.139564 -2.00749e-20)
(0.382979 0.0999362 -5.14763e-20)
(-0.0138553 0.0216461 -5.28011e-20)
(-0.0345997 0.0619613 3.1626e-20)
(-0.0421367 0.0973484 -1.47324e-20)
(-0.0343507 0.124301 1.56186e-21)
(-0.00976224 0.141081 1.55921e-20)
(0.0323776 0.147344 -4.98361e-20)
(0.092203 0.143464 4.44068e-20)
(0.176438 0.134138 -4.33671e-20)
(0.263077 0.110734 7.23193e-20)
(0.455432 0.0735546 2.70406e-20)
(-0.0146397 0.0201517 1.09344e-20)
(-0.0358936 0.0556829 6.07072e-20)
(-0.043221 0.0855262 -1.50495e-20)
(-0.0337864 0.107393 1.52094e-20)
(-0.00560796 0.120093 1.73038e-20)
(0.0427442 0.123411 -5.13086e-21)
(0.112442 0.117558 3.75394e-20)
(0.21075 0.108195 1.55572e-21)
(0.317536 0.0820955 -4.6789e-20)
(0.543734 0.0514129 6.40203e-20)
(-0.0156745 0.0191613 -2.95102e-20)
(-0.037168 0.0503174 -5.73625e-20)
(-0.0434836 0.0747305 4.95055e-20)
(-0.0312003 0.0914494 2.45206e-20)
(0.00223647 0.0999451 -1.12938e-19)
(0.059122 0.100264 9.14518e-20)
(0.142063 0.0927128 -8.26899e-20)
(0.257643 0.0832578 1.01441e-21)
(0.392409 0.0562124 -1.96782e-20)
(0.643678 0.0348451 -5.97083e-20)
(-0.0169269 0.0185886 2.52774e-20)
(-0.0382298 0.0457776 -3.34932e-21)
(-0.0424396 0.0650292 -1.21527e-20)
(-0.0256698 0.0767579 -1.50122e-21)
(0.0152911 0.081182 -7.03369e-21)
(0.0837381 0.0787274 -2.91644e-20)
(0.183838 0.0701168 1.25155e-20)
(0.319947 0.0603271 -1.96824e-20)
(0.488492 0.0360115 5.74042e-21)
(0.747227 0.0243895 1.44703e-21)
(-0.0183163 0.0183008 -5.15718e-20)
(-0.0388062 0.0418958 -3.62899e-21)
(-0.0395175 0.0563849 5.57735e-21)
(-0.0162135 0.0634825 2.28172e-21)
(0.0350476 0.0642153 3.68967e-20)
(0.118562 0.0594888 -1.06931e-19)
(0.239648 0.0507558 7.20523e-20)
(0.39907 0.0405748 -5.41123e-20)
(0.601458 0.0236774 4.7525e-20)
(0.845799 0.0190138 5.42686e-20)
(-0.0197143 0.0181386 -6.20527e-21)
(-0.0385589 0.0384465 2.86456e-20)
(-0.0341081 0.0486585 -3.56861e-20)
(-0.00189052 0.0516515 -1.11056e-20)
(0.062776 0.0492914 2.12903e-20)
(0.164965 0.0430411 1.01813e-19)
(0.310008 0.0352564 -2.043e-20)
(0.494159 0.0254619 9.82309e-21)
(0.72247 0.0194423 -5.44019e-20)
(0.934927 0.014796 2.50449e-20)
(-0.0209615 0.0179371 -1.87576e-20)
(-0.0371097 0.0351674 -1.45821e-20)
(-0.0256116 0.0416349 3.64787e-21)
(0.0181134 0.0411785 1.40034e-20)
(0.0993796 0.0365073 -4.13096e-20)
(0.223499 0.0296989 -1.65955e-20)
(0.393947 0.023917 -5.23461e-20)
(0.601459 0.0164164 5.43157e-20)
(0.840738 0.0205596 5.85501e-20)
(1.01586 0.00612619 -2.57633e-20)
(-0.0218726 0.0175369 -8.96699e-21)
(-0.0340715 0.031801 3.65151e-20)
(-0.0134771 0.0350673 -4.06328e-20)
(0.044436 0.0319109 -4.76958e-21)
(0.145334 0.0258694 -1.91247e-20)
(0.293828 0.0196683 4.13648e-20)
(0.489162 0.0169111 5.31609e-20)
(0.714743 0.0138243 -5.12502e-20)
(0.94756 0.022254 5.52712e-20)
(1.11882 0.00414217 7.53777e-21)
(-0.0222579 0.0168219 -2.60445e-20)
(-0.0290554 0.0281299 -7.38251e-20)
(0.00277889 0.0287267 7.19518e-20)
(0.0775267 0.0237005 1.02944e-20)
(0.200693 0.0173792 1.48616e-20)
(0.374773 0.0131138 9.34506e-21)
(0.592195 0.0143639 4.09466e-20)
(0.826999 0.0164071 3.01675e-20)
(1.0463 0.0266808 -1.07735e-19)
(1.20288 0.0130733 -5.31842e-20)
(-0.0219528 0.0157223 -8.90217e-20)
(-0.0216882 0.0239961 1.78797e-20)
(0.0235785 0.0224611 -4.08341e-20)
(0.117663 0.0164784 7.90539e-21)
(0.265122 0.0111155 1.25366e-20)
(0.464403 0.0101883 -9.0695e-20)
(0.698747 0.0161905 4.02357e-20)
(0.933283 0.0230119 -2.71348e-20)
(1.13291 0.034679 2.86008e-20)
(1.26554 0.023918 -1.00205e-20)
(-0.0208054 0.0142059 3.22787e-20)
(-0.0116296 0.0193382 3.4973e-20)
(0.0492854 0.0162407 -2.09992e-21)
(0.164967 0.010314 -1.11398e-20)
(0.337893 0.00728217 3.02986e-22)
(0.560152 0.0109996 7.33157e-22)
(0.804405 0.0220326 -6.10875e-20)
(1.02999 0.0328108 7.86996e-21)
(1.20539 0.0449591 7.65216e-20)
(1.31469 0.0361881 3.48561e-20)
(-0.0186735 0.0122852 -2.19311e-20)
(0.00143159 0.0142044 -1.61648e-20)
(0.0802024 0.0101804 6.9821e-20)
(0.219387 0.00544492 1.80769e-21)
(0.417864 0.00619226 -2.94114e-20)
(0.658993 0.0155449 7.847e-20)
(0.90528 0.0313574 1.73052e-20)
(1.11492 0.0449995 1.10154e-21)
(1.26435 0.0568518 -3.35313e-20)
(1.34986 0.0491455 -4.38493e-20)
(-0.0154282 0.0100149 4.61256e-20)
(0.0177799 0.00874473 -1.27602e-20)
(0.116559 0.00454053 -7.67957e-21)
(0.280659 0.00226455 -2.90929e-20)
(0.503443 0.00818806 4.75797e-20)
(0.757745 0.0236674 -2.31805e-20)
(0.998396 0.0435591 -2.62422e-20)
(1.18727 0.0589171 -6.12931e-21)
(1.31056 0.0697499 -1.92973e-20)
(1.37478 0.0622924 2.11414e-20)
(-0.0109502 0.00748157 -1.69485e-20)
(0.037664 0.00319739 -1.01223e-19)
(0.158476 -0.00029137 1.05081e-20)
(0.348231 0.00126832 3.6445e-20)
(0.592624 0.0135342 2.60076e-20)
(0.853423 0.0350637 -8.67618e-20)
(1.08184 0.0580443 5.55923e-20)
(1.24719 0.0740203 -2.52019e-20)
(1.34571 0.0832372 3.81087e-20)
(1.3912 0.0755542 1.05368e-20)
(-0.00512736 0.00479441 -1.87085e-20)
(0.0612824 -0.00212986 3.58692e-20)
(0.205927 -0.00383597 4.70564e-20)
(0.421211 0.00297008 -3.37116e-20)
(0.683132 0.022339 1.25646e-20)
(0.943538 0.0493336 -7.64968e-20)
(1.15466 0.0742775 -1.42e-20)
(1.29553 0.089895 1.19812e-20)
(1.37146 0.0970527 -2.90135e-20)
(1.40124 0.0887976 -2.95215e-20)
(0.00214418 0.00207896 -2.42851e-20)
(0.0887647 -0.00687934 -8.32658e-21)
(0.258687 -0.0055662 -8.55285e-20)
(0.498352 0.00781213 -1.34589e-20)
(0.772643 0.0345349 -1.4023e-21)
(1.02627 0.0660376 4.58756e-21)
(1.2167 0.0918052 7.83211e-21)
(1.3335 0.106241 -3.77744e-20)
(1.3895 0.111036 6.85113e-22)
(1.40642 0.102045 2.03686e-20)
(0.0109551 -0.00052628 -6.3843e-21)
(0.12015 -0.0106616 2.96416e-20)
(0.316301 -0.0049553 4.18505e-20)
(0.578118 0.0160969 2.62339e-20)
(0.859022 0.0499105 -7.7389e-21)
(1.10048 0.0847446 -6.4524e-21)
(1.26837 0.110262 6.36494e-20)
(1.36245 0.122857 8.54203e-21)
(1.40133 0.125114 2.85229e-20)
(1.40796 0.115304 -1.23013e-20)
(0.0213752 -0.00287182 6.09669e-20)
(0.155368 -0.0130719 3.94311e-20)
(0.378069 -0.00152354 -4.006e-20)
(0.658797 0.027958 -7.99873e-21)
(0.940495 0.0681624 4.20503e-21)
(1.16564 0.105061 -1.52163e-20)
(1.31042 0.129366 -3.27554e-20)
(1.38372 0.139615 -5.37812e-21)
(1.40824 0.139262 3.90783e-22)
(1.40681 0.128616 1.3337e-20)
(0.0334454 -0.0047987 7.61853e-21)
(0.194221 -0.0137057 -2.15654e-20)
(0.443066 0.00512155 5.11469e-20)
(0.738657 0.0433693 3.33495e-20)
(1.01573 0.0889441 1.05516e-21)
(1.22171 0.126641 2.35698e-20)
(1.34379 0.14891 3.44679e-21)
(1.39858 0.156448 -2.47701e-20)
(1.41126 0.153482 2.09398e-20)
(1.40362 0.142007 -6.54342e-24)
(0.04717 -0.00614035 -5.04627e-20)
(0.236381 -0.0121751 -1.48868e-20)
(0.510187 0.0152572 -1.34445e-20)
(0.816089 0.0621777 -2.3447e-20)
(1.08386 0.1119 5.54439e-21)
(1.26896 0.149196 1.21886e-22)
(1.36948 0.168746 1.81184e-20)
(1.40812 0.173325 -2.93175e-21)
(1.41123 0.167792 -2.15831e-20)
(1.39886 0.155498 -2.00908e-20)
(0.0625096 -0.00672555 4.11174e-21)
(0.281381 -0.00812611 2.41724e-20)
(0.578213 0.0290328 1.17529e-20)
(0.889701 0.0841401 -3.66746e-20)
(1.14437 0.136685 -1.81799e-21)
(1.30791 0.172483 -1.57199e-20)
(1.38846 0.188771 4.03003e-22)
(1.41328 0.190235 7.32649e-21)
(1.40877 0.182208 -8.13894e-21)
(1.39286 0.169096 2.27383e-20)
(0.0793771 -0.0063831 9.68674e-21)
(0.328634 -0.00125694 -2.37126e-20)
(0.645889 0.0464719 -5.60608e-20)
(0.958373 0.108957 5.16445e-20)
(1.19711 0.162975 -3.8442e-21)
(1.33918 0.196304 1.13576e-20)
(1.40163 0.208913 -1.56849e-21)
(1.41482 0.207178 1.0879e-20)
(1.40435 0.196741 -8.15464e-22)
(1.38582 0.182791 -1.76211e-20)
(0.0976355 -0.0049476 -1.97658e-20)
(0.377446 0.00866527 3.09166e-20)
(0.711998 0.0674842 2.55312e-20)
(1.02127 0.136294 -3.6867e-20)
(1.24212 0.190469 -6.11191e-21)
(1.36343 0.220493 2.31978e-21)
(1.40979 0.22912 2.32933e-20)
(1.41334 0.224153 1.16547e-21)
(1.39829 0.211387 4.52471e-21)
(1.37785 0.19656 -9.74064e-21)
(0.117099 -0.00226635 1.5001e-20)
(0.427045 0.0217915 -1.35184e-20)
(0.775422 0.0918826 -1.155e-20)
(1.0778 0.165802 1.97745e-20)
(1.27964 0.218893 6.81121e-21)
(1.38134 0.244911 5.14293e-21)
(1.41361 0.249347 -2.3747e-20)
(1.40932 0.241151 -8.13862e-21)
(1.39082 0.226129 -7.2754e-21)
(1.36902 0.210365 3.20332e-21)
(0.137536 0.00179352 -7.50346e-21)
(0.476615 0.0381827 -1.75018e-22)
(0.835176 0.119403 2.18629e-20)
(1.12762 0.197124 -8.00495e-21)
(1.31 0.247989 -3.53997e-21)
(1.39353 0.269435 -2.32579e-21)
(1.41368 0.269549 5.75568e-21)
(1.4031 0.25815 9.92715e-21)
(1.38209 0.240932 -3.20762e-22)
(1.35937 0.224156 3.62398e-21)
(0.158675 0.0073381 5.29198e-21)
(0.525326 0.0578078 -1.48653e-21)
(0.890441 0.149719 -3.91933e-21)
(1.17055 0.229901 -3.54877e-21)
(1.33358 0.277521 3.19061e-21)
(1.40059 0.293951 2.48474e-21)
(1.41046 0.289678 -2.28881e-21)
(1.39495 0.275116 8.28644e-22)
(1.37218 0.255749 1.16429e-21)
(1.3489 0.237874 -1.54724e-21)
(0.180211 0.0144407 2.84798e-21)
(0.572371 0.0805458 8.10967e-22)
(0.940557 0.182461 -4.87394e-21)
(1.20656 0.26378 -3.88446e-21)
(1.3508 0.307263 4.04345e-21)
(1.40301 0.318347 7.91207e-22)
(1.40432 0.309675 -1.8404e-21)
(1.38506 0.291998 1.72906e-21)
(1.36115 0.270512 9.65678e-22)
(1.33763 0.251449 -1.11101e-21)
(0.201819 0.0231374 -1.11211e-21)
(0.616989 0.106193 2.27727e-21)
(0.985028 0.217227 1.50339e-20)
(1.23573 0.29841 -6.68324e-21)
(1.36209 0.337002 -3.26099e-21)
(1.40124 0.342513 -3.67451e-21)
(1.39556 0.329467 7.52838e-21)
(1.37355 0.308728 5.05937e-21)
(1.34903 0.285142 4.04011e-21)
(1.32556 0.264806 2.19706e-21)
(0.223155 0.0334239 2.28776e-20)
(0.658491 0.134471 -1.26069e-20)
(1.0235 0.253591 -1.43316e-20)
(1.25822 0.333448 1.94561e-20)
(1.36786 0.366529 1.02311e-20)
(1.39567 0.366332 -6.8279e-22)
(1.38441 0.348973 -1.26135e-20)
(1.36052 0.325223 -9.07673e-21)
(1.33584 0.299538 -9.49541e-21)
(1.31268 0.277864 5.66768e-21)
(0.243876 0.0452549 -3.09631e-20)
(0.696275 0.165039 2.91725e-20)
(1.05576 0.291116 3.35629e-20)
(1.27425 0.36856 -3.30292e-20)
(1.36848 0.395639 -1.1404e-20)
(1.38663 0.389681 7.3288e-21)
(1.37105 0.368098 1.32846e-20)
(1.34601 0.341388 2.10568e-21)
(1.32155 0.313596 -3.8621e-22)
(1.29893 0.290531 -7.76821e-21)
(0.263642 0.0585445 -4.4524e-21)
(0.729834 0.197506 -4.10737e-20)
(1.08169 0.329357 -4.39617e-20)
(1.28408 0.403418 4.92422e-20)
(1.36434 0.424131 -5.59466e-21)
(1.37441 0.412432 1.02974e-20)
(1.35565 0.386738 2.0323e-21)
(1.3301 0.357131 -5.69654e-21)
(1.30615 0.327224 3.06474e-21)
(1.28416 0.302723 -4.6799e-22)
(0.282129 0.0731688 9.06227e-21)
(0.758764 0.23144 2.54818e-20)
(1.10129 0.367868 1.44176e-20)
(1.288 0.437705 -1.1335e-20)
(1.35578 0.451804 -1.76637e-20)
(1.35925 0.434445 -1.64279e-20)
(1.33831 0.404774 -3.33065e-21)
(1.31281 0.372355 8.94514e-21)
(1.28965 0.340386 -1.89161e-21)
(1.26824 0.314397 4.31827e-21)
(0.299036 0.0889687 -3.43422e-20)
(0.782765 0.266384 -3.20611e-20)
(1.11463 0.406205 -5.10038e-21)
(1.28632 0.471115 -5.75149e-21)
(1.34312 0.47846 -1.30963e-20)
(1.34137 0.455575 8.00831e-21)
(1.31914 0.422076 -1.42179e-21)
(1.29415 0.386934 -7.8164e-21)
(1.27212 0.353073 7.11038e-21)
(1.25128 0.325538 -1.05075e-20)
(0.314094 0.105754 8.10358e-21)
(0.801639 0.301867 2.72011e-20)
(1.12184 0.443939 2.36832e-20)
(1.27935 0.503348 2.57509e-20)
(1.32667 0.503902 4.31361e-22)
(1.32095 0.475682 2.2723e-20)
(1.29818 0.438522 1.59127e-21)
(1.27414 0.400694 -2.70823e-20)
(1.25356 0.365146 1.9534e-20)
(1.23365 0.335925 7.18279e-21)
(0.327072 0.123307 2.22759e-20)
(0.81528 0.337416 4.99497e-20)
(1.12311 0.48065 -6.58605e-21)
(1.26744 0.534119 -3.25206e-20)
(1.30672 0.527938 1.46568e-20)
(1.29817 0.494618 -1.53132e-20)
(1.27558 0.453998 -2.07554e-20)
(1.25301 0.41357 -2.02575e-21)
(1.23385 0.376354 -1.64823e-20)
(1.21536 0.345609 6.45097e-21)
(0.337779 0.141389 1.05632e-20)
(0.823662 0.372561 7.96682e-21)
(1.11871 0.515936 6.26818e-20)
(1.2509 0.563154 1.18136e-20)
(1.28352 0.550381 -1.04024e-20)
(1.2732 0.512221 -5.30093e-21)
(1.25152 0.468313 3.2223e-20)
(1.23073 0.425484 2.6745e-20)
(1.21304 0.386645 1.34231e-20)
(1.19632 0.354364 -1.89248e-21)
(0.346069 0.159751 2.27443e-21)
(0.826835 0.406844 -5.11996e-20)
(1.1089 0.549413 -7.38945e-20)
(1.2301 0.590195 2.43419e-21)
(1.25735 0.571049 1.47379e-20)
(1.24626 0.528322 -2.05673e-20)
(1.22605 0.481348 -4.78454e-20)
(1.20725 0.436293 -1.44107e-20)
(1.19131 0.395917 -9.09224e-22)
(1.17654 0.362139 7.55706e-21)
(0.351838 0.178134 -1.84305e-20)
(0.824924 0.43983 4.67697e-20)
(1.09403 0.58073 4.46339e-20)
(1.20535 0.61499 -4.1673e-20)
(1.22848 0.589745 6.30541e-21)
(1.21751 0.542779 5.09613e-20)
(1.19922 0.492965 -1.2095e-20)
(1.1827 0.44588 9.94886e-21)
(1.16871 0.404067 -5.26996e-21)
(1.15606 0.368845 -7.0535e-21)
(0.355031 0.196276 -4.18297e-20)
(0.818135 0.471094 -7.36353e-20)
(1.07453 0.609589 -1.44733e-20)
(1.17694 0.637286 2.39084e-20)
(1.19715 0.60629 2.41545e-20)
(1.18709 0.555427 -5.14102e-20)
(1.17117 0.503045 2.87262e-20)
(1.15716 0.454131 -1.61808e-20)
(1.1453 0.410994 1.36341e-20)
(1.13496 0.374421 1.50377e-22)
(0.355643 0.213913 3.18647e-20)
(0.806761 0.500222 2.01072e-21)
(1.05073 0.635736 -7.1907e-21)
(1.14511 0.656871 -3.03564e-20)
(1.16363 0.620478 2.0654e-20)
(1.15518 0.566122 3.77925e-21)
(1.14202 0.511461 -1.77042e-20)
(1.13074 0.460938 2.24862e-21)
(1.12117 0.416596 -4.24369e-21)
(1.11334 0.378789 3.20615e-21)
(0.353735 0.230794 -8.9553e-21)
(0.791156 0.526871 -1.29243e-20)
(1.02265 0.658741 3.21836e-20)
(1.11039 0.67367 1.50138e-20)
(1.12823 0.63214 -2.07552e-20)
(1.12198 0.574726 3.18684e-20)
(1.11191 0.518099 1.77732e-21)
(1.10354 0.466204 1.59534e-21)
(1.0964 0.420769 -3.05593e-21)
(1.09126 0.38185 -2.46295e-22)
(0.349416 0.246653 5.86008e-20)
(0.771603 0.550953 4.52191e-20)
(0.990525 0.678224 -2.49626e-21)
(1.07324 0.68734 -7.57837e-21)
(1.09119 0.64122 -8.72737e-21)
(1.08766 0.58113 -4.39842e-21)
(1.08099 0.522854 1.26536e-21)
(1.07569 0.469841 2.48894e-21)
(1.07109 0.423417 3.45331e-21)
(1.06883 0.383501 -4.55076e-22)
(0.342772 0.261109 5.82011e-21)
(0.748161 0.572089 8.46264e-21)
(0.955313 0.69441 -4.40924e-20)
(1.034 0.697633 2.03066e-20)
(1.05279 0.647566 7.80165e-21)
(1.05243 0.585231 -1.78924e-20)
(1.0494 0.525633 5.30714e-21)
(1.04729 0.471774 1.02384e-21)
(1.04537 0.42447 -2.01423e-21)
(1.04626 0.383696 1.11318e-21)
(0.33378 0.273924 -2.21859e-20)
(0.721045 0.589655 -1.69967e-20)
(0.917515 0.706985 1.55618e-20)
(0.992965 0.70458 5.41967e-21)
(1.01327 0.65108 -7.40722e-21)
(1.01647 0.586932 8.26834e-21)
(1.01728 0.526344 1.04339e-21)
(1.01843 0.471905 -1.29975e-21)
(1.01949 0.423854 1.08001e-20)
(1.02426 0.382481 5.36045e-21)
(0.322696 0.284917 -1.79711e-20)
(0.690912 0.603506 4.88107e-20)
(0.877404 0.715709 -3.24418e-20)
(0.950464 0.708086 -3.59373e-21)
(0.972886 0.651673 -7.5923e-21)
(0.979977 0.586154 3.75519e-21)
(0.984724 0.524905 -3.05902e-21)
(0.989226 0.470097 1.98481e-21)
(0.993868 0.421356 1.16277e-21)
(1.00359 0.379862 -1.8595e-21)
(0.309771 0.294054 -4.17186e-22)
(0.658194 0.613523 -1.4268e-20)
(0.835388 0.720395 9.82657e-21)
(0.906844 0.708068 -6.72543e-21)
(0.931912 0.649288 1.1231e-22)
(0.943127 0.582846 2.93672e-21)
(0.951871 0.521273 8.08073e-21)
(0.959886 0.466257 -7.33796e-21)
(0.96889 0.4166 -1.48179e-20)
(0.983479 0.375077 7.41493e-21)
(0.295149 0.301137 2.19248e-21)
(0.623348 0.619579 -3.68308e-22)
(0.791894 0.720947 4.87545e-22)
(0.862456 0.704463 -1.1415e-21)
(0.89061 0.643881 -4.49134e-21)
(0.906121 0.57698 -1.21933e-20)
(0.918915 0.51545 -3.45302e-21)
(0.930702 0.460524 -2.07035e-21)
(0.94453 0.409847 2.22551e-20)
(0.960816 0.364489 -4.10739e-21)
(0.279059 0.30602 -7.86907e-21)
(0.586816 0.621573 -5.41367e-21)
(0.747354 0.717319 2.52168e-21)
(0.817648 0.697234 1.41506e-21)
(0.849247 0.635428 -6.47793e-21)
(0.869179 0.568529 2.57383e-20)
(0.886125 0.507399 -1.97579e-20)
(0.9019 0.452962 2.4343e-20)
(0.919635 0.403015 -1.71065e-20)
(0.935684 0.359148 -2.35291e-20)
(0.261752 0.308597 2.60753e-21)
(0.549031 0.619432 -3.27742e-21)
(0.702194 0.709493 1.4546e-21)
(0.772769 0.686373 9.62298e-21)
(0.80809 0.62392 -5.1542e-21)
(0.83253 0.557475 7.7764e-21)
(0.853708 0.497069 1.13795e-20)
(0.87349 0.443287 -6.07059e-21)
(0.894591 0.393842 -1.77491e-20)
(0.911689 0.350166 2.4293e-20)
(0.243489 0.308789 6.23319e-21)
(0.510427 0.613125 7.76662e-21)
(0.656832 0.697488 -8.9955e-21)
(0.728156 0.6719 -7.85794e-21)
(0.767406 0.609373 3.38938e-20)
(0.796397 0.543834 -3.55428e-20)
(0.821815 0.484515 4.41233e-20)
(0.84548 0.431752 -1.1004e-20)
(0.869615 0.383411 1.19087e-20)
(0.888421 0.340952 2.30668e-20)
(0.224534 0.306548 -1.53954e-21)
(0.471432 0.602657 -8.78953e-21)
(0.611679 0.681348 -7.46037e-21)
(0.684145 0.65386 -3.50551e-21)
(0.72746 0.591822 5.52527e-21)
(0.761002 0.527628 -1.01315e-20)
(0.790619 0.469737 -1.31031e-20)
(0.818037 0.418275 -2.99603e-20)
(0.845083 0.371278 2.99746e-20)
(0.866025 0.330233 -9.48606e-21)
(0.205151 0.301854 2.10685e-20)
(0.43247 0.588072 -3.23897e-21)
(0.567131 0.661148 -1.06436e-20)
(0.641058 0.632325 1.28728e-20)
(0.688512 0.571323 -2.305e-20)
(0.726555 0.508904 6.42075e-20)
(0.760288 0.45279 -3.45783e-20)
(0.791329 0.402951 3.16932e-20)
(0.82122 0.357617 -5.82499e-20)
(0.844527 0.318178 -1.56162e-20)
(0.185606 0.294715 -5.32399e-21)
(0.393953 0.569448 2.26082e-20)
(0.523572 0.636996 4.91788e-21)
(0.59921 0.607389 -1.24187e-20)
(0.650813 0.547953 -2.17075e-20)
(0.693265 0.487725 -3.24075e-22)
(0.730995 0.433724 1.15412e-20)
(0.765524 0.385807 -2.88314e-20)
(0.798188 0.342393 1.40429e-20)
(0.823967 0.304704 1.82795e-21)
(0.166157 0.285166 -3.86309e-20)
(0.35628 0.5469 -9.28829e-21)
(0.481373 0.609023 -2.77491e-21)
(0.5589 0.57917 3.2807e-20)
(0.614607 0.521808 -3.09329e-20)
(0.661333 0.464171 -7.82647e-21)
(0.702912 0.412611 -4.9649e-21)
(0.740782 0.366906 8.97884e-21)
(0.77613 0.325652 -1.17119e-20)
(0.804412 0.289849 -1.82015e-20)
(0.147059 0.273268 3.5434e-20)
(0.319831 0.520574 -2.04357e-20)
(0.440882 0.57739 8.25198e-22)
(0.520415 0.547809 -5.01586e-20)
(0.580126 0.493006 5.48377e-20)
(0.630953 0.438341 -1.74307e-20)
(0.676205 0.389533 1.04499e-20)
(0.717254 0.346314 9.17676e-21)
(0.755169 0.307434 2.6649e-20)
(0.785932 0.273658 -1.11002e-20)
(0.128555 0.259108 -1.4304e-20)
(0.284971 0.490649 4.26535e-20)
(0.402434 0.542285 2.42579e-20)
(0.484027 0.513469 4.03523e-20)
(0.547591 0.46168 -9.27896e-21)
(0.602309 0.410346 3.78243e-21)
(0.651033 0.364589 3.0633e-20)
(0.695077 0.324111 6.9325e-21)
(0.735422 0.287804 6.69291e-22)
(0.768605 0.2562 -1.33565e-20)
(0.110879 0.242796 -3.43785e-20)
(0.252041 0.457332 -2.41982e-21)
(0.366337 0.50392 -1.44699e-20)
(0.449989 0.476332 -6.55588e-20)
(0.517209 0.427984 -6.3678e-20)
(0.575577 0.380317 1.05794e-20)
(0.627547 0.337888 -2.62597e-20)
(0.674383 0.300391 1.69524e-20)
(0.717 0.266839 9.1984e-21)
(0.752505 0.237555 1.90257e-20)
(0.0942496 0.224463 5.14133e-20)
(0.221357 0.420857 -4.21445e-20)
(0.332881 0.462527 -2.15767e-20)
(0.418537 0.436599 3.79697e-20)
(0.489175 0.392086 4.3573e-20)
(0.550921 0.348398 -1.46119e-20)
(0.605887 0.309554 -1.95416e-21)
(0.655294 0.275255 -5.25734e-20)
(0.700006 0.244627 -2.97422e-20)
(0.737706 0.217812 1.13924e-20)
(0.0788687 0.204262 -2.93842e-20)
(0.19321 0.381483 1.23491e-20)
(0.302329 0.418364 4.58581e-20)
(0.389888 0.394491 -2.08549e-20)
(0.463665 0.35417 1.75287e-21)
(0.528491 0.314745 5.87632e-20)
(0.586182 0.279722 2.63516e-21)
(0.63792 0.248819 5.06049e-20)
(0.684536 0.221269 2.11071e-20)
(0.724275 0.197069 -3.36083e-20)
(0.0649221 0.182364 4.1351e-20)
(0.167866 0.339492 4.68465e-21)
(0.274918 0.371705 3.05663e-21)
(0.364236 0.350243 4.22351e-20)
(0.440842 0.314436 -5.56104e-21)
(0.508424 0.279527 -3.69608e-20)
(0.568549 0.248537 1.81351e-20)
(0.622364 0.221209 -2.90454e-20)
(0.67068 0.196876 -1.21056e-20)
(0.712275 0.175427 1.22535e-20)
(0.0525754 0.158958 -2.57552e-20)
(0.145558 0.295187 -4.97569e-20)
(0.250861 0.322841 1.15943e-20)
(0.341756 0.304105 -2.26754e-20)
(0.420849 0.273095 -1.36314e-20)
(0.490841 0.242926 3.322e-20)
(0.553094 0.216156 -8.03412e-21)
(0.608718 0.192557 7.36897e-21)
(0.658517 0.171563 -9.01585e-21)
(0.701761 0.152996 1.79541e-20)
(0.0419736 0.134245 9.46079e-21)
(0.126489 0.248887 3.36635e-20)
(0.230341 0.27208 -4.69399e-20)
(0.322599 0.256339 2.21534e-20)
(0.403812 0.230368 -1.01214e-20)
(0.47585 0.205131 -2.85047e-20)
(0.539906 0.182741 2.33239e-20)
(0.597064 0.163006 4.86295e-21)
(0.648119 0.145457 -7.47724e-22)
(0.692784 0.129887 -2.08737e-20)
(0.0332398 0.108442 3.13545e-21)
(0.110832 0.200927 1.09633e-20)
(0.213511 0.219741 4.2633e-20)
(0.306891 0.20722 -8.21436e-21)
(0.389835 0.186487 -6.47769e-21)
(0.463541 0.166342 2.37758e-21)
(0.529065 0.148464 1.108e-21)
(0.587469 0.132702 8.71769e-21)
(0.639546 0.118688 -1.14728e-20)
(0.685384 0.106215 -7.29209e-21)
(0.0264738 0.081773 -7.78959e-21)
(0.0987261 0.151655 -1.33348e-20)
(0.200497 0.166155 -3.33099e-20)
(0.294735 0.157029 1.67768e-20)
(0.379005 0.141692 1.3667e-20)
(0.453985 0.126764 5.82245e-22)
(0.520634 0.113502 -2.2863e-20)
(0.579989 0.101801 -1.01737e-20)
(0.632849 0.0913911 8.03553e-21)
(0.679594 0.0820946 8.61665e-21)
(0.0217515 0.0544733 1.36695e-21)
(0.090276 0.101428 -2.82107e-21)
(0.191394 0.111661 6.31522e-21)
(0.28621 0.106057 -4.27604e-21)
(0.371385 0.0962292 -3.79862e-21)
(0.44724 0.0866073 -2.57206e-21)
(0.514659 0.0780374 4.71654e-21)
(0.574669 0.0704587 1.7975e-20)
(0.628065 0.0637007 2.59743e-21)
(0.675437 0.0576325 -4.60432e-21)
(0.0191244 0.0267825 1.68788e-21)
(0.0855528 0.0506095 -4.64321e-21)
(0.186264 0.0566033 -5.26502e-21)
(0.281367 0.0545985 -3.65198e-21)
(0.367021 0.0503481 3.47649e-21)
(0.443342 0.0460874 1.56816e-21)
(0.511174 0.0422555 -1.56138e-21)
(0.571535 0.0388368 -7.11835e-21)
(0.625214 0.0357603 2.3434e-21)
(0.672918 0.0329595 -2.19037e-21)
(0.0186192 -0.00105606 -1.69868e-21)
(0.0845928 -0.000430773 4.6712e-21)
(0.18514 0.00133138 5.29158e-21)
(0.280235 0.00295105 -5.06155e-21)
(0.365935 0.00430181 4.4544e-21)
(0.44231 0.0054215 2.229e-21)
(0.510195 0.00634437 -3.55639e-21)
(0.570603 0.00710211 -4.13466e-21)
(0.624317 0.00773185 6.10177e-22)
(0.672051 0.00828246 -1.7188e-21)
(0.0202371 -0.0287975 1.86155e-21)
(0.0873975 -0.0513232 -5.56418e-21)
(0.188025 -0.0538052 1.25036e-20)
(0.282813 -0.0485861 -1.09674e-20)
(0.368127 -0.0416559 -5.12156e-22)
(0.444146 -0.035173 -7.26948e-21)
(0.511725 -0.0295103 1.18102e-20)
(0.571881 -0.0245897 1.60512e-20)
(0.625413 -0.02027 2.872e-21)
(0.672981 -0.0164184 -6.17763e-21)
(0.0239544 -0.0561982 -1.61379e-21)
(0.0939334 -0.101699 -1.18368e-20)
(0.194886 -0.108458 -2.74659e-20)
(0.289077 -0.0997151 2.37327e-20)
(0.373576 -0.087272 4.89881e-21)
(0.448832 -0.0754791 4.32109e-21)
(0.515747 -0.0651221 -2.12946e-20)
(0.575346 -0.0560791 -1.25299e-20)
(0.628425 -0.048114 -2.7771e-21)
(0.675481 -0.0410693 1.90898e-20)
(0.0297224 -0.083018 -5.69664e-21)
(0.104132 -0.151194 7.11337e-21)
(0.205663 -0.162281 4.99367e-20)
(0.298976 -0.150141 -4.46352e-21)
(0.382241 -0.132296 -1.27752e-20)
(0.456332 -0.115281 9.17379e-21)
(0.522229 -0.100304 5.95111e-22)
(0.580973 -0.0871977 3.23143e-21)
(0.633351 -0.0756285 -7.05365e-21)
(0.679609 -0.0654046 -1.86402e-20)
(0.037468 -0.109022 -3.86561e-21)
(0.117891 -0.199449 2.09448e-20)
(0.220264 -0.214936 -5.03632e-20)
(0.312434 -0.199573 2.1838e-20)
(0.394059 -0.176482 2.00865e-22)
(0.466592 -0.154369 -2.75832e-20)
(0.531127 -0.134872 1.21517e-20)
(0.588723 -0.117789 -1.11307e-21)
(0.640161 -0.102684 4.61184e-21)
(0.685356 -0.0893523 -1.40823e-21)
(0.047094 -0.133985 -4.42823e-20)
(0.135075 -0.246118 -5.27945e-20)
(0.238566 -0.266091 1.377e-20)
(0.329352 -0.24773 -2.49977e-20)
(0.408947 -0.21959 -7.09542e-21)
(0.479541 -0.192535 1.05059e-20)
(0.542379 -0.168652 3.91131e-21)
(0.598541 -0.1477 1.44983e-20)
(0.648807 -0.12915 -3.12378e-21)
(0.692688 -0.112813 1.67281e-20)
(0.0584802 -0.15769 4.23683e-20)
(0.155513 -0.290865 2.71498e-20)
(0.260418 -0.315427 -2.06211e-20)
(0.349602 -0.294335 3.46067e-20)
(0.426799 -0.261388 -2.98407e-21)
(0.495092 -0.229582 -3.72489e-20)
(0.55591 -0.201469 6.53822e-21)
(0.610359 -0.176782 -3.94199e-20)
(0.659227 -0.154893 1.51379e-21)
(0.701563 -0.135667 1.42955e-20)
(0.0714844 -0.179934 -3.17034e-20)
(0.179005 -0.333368 5.6622e-20)
(0.285637 -0.362634 2.21154e-20)
(0.373037 -0.339127 -2.72307e-20)
(0.447493 -0.301654 1.87278e-22)
(0.513139 -0.265317 6.87247e-20)
(0.571628 -0.233161 3.14892e-21)
(0.624099 -0.204893 3.04065e-20)
(0.671354 -0.179787 3.69736e-20)
(0.711934 -0.157802 -2.06982e-20)
(0.0859436 -0.200528 1.77858e-20)
(0.20532 -0.373325 -8.48164e-21)
(0.314014 -0.407421 -2.01261e-20)
(0.399484 -0.381855 1.51946e-20)
(0.470888 -0.340174 5.79116e-20)
(0.533562 -0.299562 -2.02568e-20)
(0.589431 -0.263572 -3.27839e-21)
(0.639671 -0.231898 -4.39934e-20)
(0.685107 -0.203715 -5.43113e-20)
(0.723745 -0.17911 2.37212e-20)
(0.101675 -0.219299 -2.38279e-20)
(0.234196 -0.410454 -2.0908e-20)
(0.345315 -0.449512 3.4592e-21)