/*--------------------------------*- C++ -*----------------------------------*\
  =========                 |
  \\      /  F ield         | OpenFOAM: The Open Source CFD Toolbox
   \\    /   O peration     | Website:  https://openfoam.org
    \\  /    A nd           | Version:  7
     \\/     M anipulation  |
\*---------------------------------------------------------------------------*/
FoamFile
{
    version     2.0;
    format      ascii;
    class       volScalarField;
    location    "10";
    object      p;
}
// * * * * * * * * * * * * * * * * * * * * * * * * * * * * * * * * * * * * * //

dimensions      [0 2 -2 0 0 0 0];

internalField   nonuniform List<scalar> 
2125
(
0.633321
0.611392
0.59642
0.633321
0.611392
0.59642
0.575117
0.548636
0.519032
0.487814
0.456127
0.424789
0.39437
0.628507
0.60687
0.592334
0.571501
0.545453
0.516233
0.485353
0.453955
0.422867
0.392738
0.618919
0.597861
0.584193
0.564295
0.539108
0.510652
0.480446
0.449627
0.419036
0.389482
0.604635
0.584436
0.572057
0.553551
0.529647
0.502329
0.473127
0.443169
0.413318
0.384615
0.585773
0.566703
0.556019
0.539347
0.517134
0.491319
0.463442
0.434623
0.405747
0.37816
0.562489
0.544802
0.536199
0.521784
0.501658
0.477696
0.451455
0.424044
0.39637
0.370146
0.534975
0.518907
0.512746
0.500989
0.483327
0.461552
0.437244
0.411498
0.385243
0.360609
0.503458
0.489225
0.485837
0.477113
0.462267
0.442997
0.420903
0.397067
0.372433
0.349596
0.468202
0.455993
0.455677
0.450328
0.438627
0.422155
0.402537
0.380841
0.358016
0.337158
0.429498
0.419478
0.422493
0.420827
0.412571
0.399167
0.382266
0.362923
0.342079
0.323354
0.387671
0.379974
0.386539
0.388825
0.384281
0.374189
0.360221
0.343425
0.324716
0.308251
0.34307
0.337801
0.348089
0.354554
0.353954
0.347387
0.336546
0.32247
0.306029
0.291921
0.29607
0.293303
0.307438
0.318262
0.321803
0.318942
0.311394
0.300188
0.286124
0.274437
0.247067
0.24684
0.264897
0.280214
0.288051
0.289044
0.284927
0.276718
0.265115
0.255876
0.196476
0.198795
0.220795
0.240688
0.252932
0.257894
0.257316
0.25221
0.243122
0.236309
0.144724
0.149561
0.175474
0.19997
0.216692
0.225697
0.228739
0.226824
0.220271
0.215795
0.0922494
0.0995442
0.129285
0.158358
0.179581
0.192667
0.199377
0.200733
0.196715
0.194373
0.0394986
0.0491552
0.0825891
0.116155
0.141857
0.15902
0.169407
0.174119
0.172642
0.172011
-0.0130813
-0.00119178
0.0357509
0.0736682
0.10378
0.124977
0.138999
0.147155
0.148394
0.148719
-0.0650446
-0.0510849
-0.010861
0.0312037
0.0656103
0.090769
0.108326
0.119967
0.124405
0.124179
-0.11595
-0.100117
-0.05688
-0.0109359
0.0276042
0.0566239
0.0775621
0.0924841
0.100992
0.0997864
-0.16537
-0.147876
-0.10195
-0.0524552
-0.00998896
0.0227669
0.0469713
0.0648392
0.0772823
0.0806361
-0.212961
-0.193924
-0.145754
-0.0930674
-0.0469249
-0.0105948
0.0168042
0.0374362
0.053305
0.0618438
-0.258336
-0.237879
-0.188067
-0.132489
-0.082968
-0.0432759
-0.012781
0.0105098
0.0291539
0.0416488
-0.301046
-0.279175
-0.228832
-0.17043
-0.117902
-0.0751054
-0.0416794
-0.0158426
0.00515741
0.0206193
-0.340812
-0.317666
-0.267446
-0.206626
-0.151534
-0.105912
-0.0697778
-0.0415425
-0.0184095
-0.000421648
-0.377414
-0.353277
-0.302998
-0.241145
-0.183665
-0.135527
-0.0969445
-0.0664938
-0.041409
-0.0211333
-0.410621
-0.38577
-0.335765
-0.273404
-0.214053
-0.163794
-0.123046
-0.0905913
-0.0637608
-0.0414253
-0.440239
-0.414905
-0.365691
-0.303151
-0.242569
-0.190577
-0.147958
-0.113732
-0.0853897
-0.0612129
-0.466132
-0.440501
-0.392558
-0.33037
-0.269095
-0.21573
-0.171575
-0.135814
-0.106227
-0.0803887
-0.488223
-0.462451
-0.416199
-0.354961
-0.293487
-0.239243
-0.193806
-0.156739
-0.126206
-0.0988653
-0.506491
-0.480716
-0.436519
-0.376813
-0.31566
-0.260978
-0.214696
-0.176425
-0.14523
-0.116623
-0.520973
-0.495317
-0.453482
-0.395854
-0.335554
-0.280851
-0.234106
-0.195136
-0.162976
-0.133768
-0.531762
-0.506332
-0.467103
-0.41205
-0.353131
-0.298828
-0.251933
-0.2125
-0.179656
-0.150464
-0.539008
-0.5139
-0.477446
-0.425401
-0.368372
-0.314897
-0.268169
-0.228524
-0.19535
-0.166188
-0.542914
-0.518214
-0.484624
-0.435944
-0.381285
-0.329064
-0.282839
-0.243253
-0.209948
-0.180643
-0.543731
-0.519523
-0.4888
-0.443758
-0.391903
-0.341351
-0.295962
-0.256692
-0.223412
-0.193972
-0.541751
-0.518121
-0.490185
-0.448956
-0.400287
-0.351793
-0.307562
-0.268852
-0.235784
-0.206378
-0.537296
-0.514335
-0.489036
-0.451695
-0.406524
-0.360446
-0.317678
-0.279771
-0.247114
-0.217958
-0.530715
-0.508514
-0.485654
-0.452165
-0.410723
-0.367381
-0.326367
-0.289499
-0.257445
-0.228734
-0.522366
-0.501017
-0.480368
-0.450595
-0.413021
-0.372686
-0.333696
-0.298093
-0.266813
-0.238716
-0.51261
-0.492206
-0.47353
-0.447242
-0.413574
-0.37646
-0.339738
-0.305612
-0.275262
-0.247929
-0.501801
-0.482428
-0.465497
-0.442389
-0.412562
-0.378815
-0.344571
-0.312118
-0.282842
-0.256405
-0.490275
-0.472011
-0.456617
-0.436337
-0.410184
-0.379872
-0.348278
-0.31768
-0.28961
-0.264182
-0.478338
-0.461253
-0.447216
-0.429395
-0.406655
-0.379765
-0.350946
-0.322364
-0.295626
-0.271303
-0.466267
-0.450417
-0.437586
-0.421869
-0.402206
-0.378636
-0.352666
-0.326237
-0.300946
-0.277813
-0.454298
-0.439726
-0.427977
-0.414047
-0.397076
-0.376639
-0.35353
-0.329366
-0.305628
-0.28376
-0.442629
-0.429362
-0.418595
-0.406181
-0.391506
-0.373936
-0.353635
-0.331811
-0.309725
-0.289192
-0.431417
-0.419464
-0.409599
-0.39848
-0.385726
-0.370698
-0.353079
-0.333634
-0.313284
-0.420779
-0.410131
-0.401109
-0.391105
-0.379944
-0.367101
-0.351971
-0.334894
-0.410798
-0.401425
-0.393202
-0.384168
-0.374331
-0.363317
-0.350423
-0.401528
-0.393378
-0.385922
-0.377741
-0.369014
-0.392993
-0.385998
-0.37928
-0.371865
-0.385198
-0.379276
-0.373266
-0.378131
-0.373188
-0.371769
-0.367702
-0.366078
0.110971
0.113968
0.1179
0.124877
0.132159
0.141987
0.151455
0.162753
0.172254
0.182373
0.187791
0.19212
0.186369
0.178798
0.149405
0.111468
0.114508
0.118494
0.1256
0.133026
0.143116
0.152936
0.164782
0.175063
0.186317
0.193309
0.199827
0.196911
0.192978
0.169626
0.111939
0.115012
0.119028
0.12623
0.133764
0.144065
0.15418
0.1665
0.177487
0.189775
0.198277
0.206849
0.206846
0.206344
0.188502
0.112389
0.115496
0.119545
0.126849
0.134492
0.14501
0.155418
0.16821
0.179877
0.193158
0.203093
0.213592
0.216394
0.219116
0.206453
0.112816
0.115941
0.120041
0.127446
0.135196
0.145926
0.156616
0.169858
0.182179
0.196402
0.207716
0.220033
0.225558
0.231345
0.22361
0.113221
0.116384
0.120509
0.128014
0.135862
0.146794
0.157752
0.17142
0.184362
0.199473
0.212112
0.226136
0.23429
0.242999
0.239948
0.113602
0.116799
0.120951
0.12855
0.136491
0.147614
0.158825
0.172894
0.186428
0.202369
0.216274
0.231895
0.242558
0.254048
0.255436
0.113959
0.117185
0.121369
0.129056
0.137083
0.148386
0.159835
0.17428
0.188374
0.205088
0.220193
0.237302
0.250334
0.264462
0.270038
0.11429
0.117544
0.121736
0.12953
0.137635
0.149107
0.160779
0.175572
0.190193
0.207621
0.223857
0.242346
0.257595
0.274209
0.283708
0.114596
0.117876
0.122078
0.129969
0.138146
0.149775
0.161655
0.176769
0.191882
0.209965
0.227255
0.247018
0.264321
0.283257
0.296403
0.114876
0.118182
0.122407
0.130369
0.138616
0.150388
0.16246
0.177866
0.193436
0.212114
0.230378
0.251308
0.270495
0.291577
0.308079
0.115129
0.118461
0.122699
0.130728
0.139043
0.150945
0.163193
0.178862
0.19485
0.214064
0.233216
0.255204
0.276099
0.299142
0.318695
0.115355
0.118711
0.122956
0.131081
0.139428
0.151444
0.16385
0.179753
0.196119
0.215811
0.235761
0.258698
0.281118
0.305927
0.328214
0.115554
0.118932
0.123179
0.1313
0.139769
0.151884
0.16443
0.180537
0.197239
0.217349
0.238005
0.261779
0.285541
0.31191
0.336604
0.115725
0.119122
0.123374
0.13158
0.140062
0.152263
0.164932
0.181213
0.198207
0.218676
0.239942
0.26444
0.289355
0.317074
0.343839
0.115868
0.119282
0.123539
0.131781
0.140303
0.152581
0.165352
0.181779
0.199019
0.219788
0.241565
0.26667
0.292549
0.321401
0.349898
0.115983
0.119411
0.123671
0.131947
0.140497
0.152836
0.16569
0.182234
0.199672
0.220682
0.24287
0.268464
0.295116
0.324879
0.354763
0.116069
0.119507
0.123771
0.132071
0.140643
0.153028
0.165945
0.182576
0.200164
0.221354
0.243853
0.269815
0.297047
0.327497
0.358421
0.116126
0.119572
0.123837
0.132154
0.14074
0.153156
0.166116
0.182804
0.200493
0.221804
0.24451
0.270718
0.298338
0.329246
0.360865
0.116155
0.119604
0.12387
0.132196
0.140789
0.153221
0.166201
0.182919
0.200658
0.222029
0.244839
0.27117
0.298984
0.330122
0.362088
0.0582976
0.0561114
0.0523462
0.0473883
0.0415592
0.0350953
0.0282318
0.0211574
0.0140566
0.0070673
0.000314846
-0.00612589
-0.0121897
-0.0178575
-0.0231105
0.0588545
0.0566814
0.0529455
0.0480158
0.0422079
0.0357478
0.0288719
0.0217669
0.0146221
0.00757537
0.000757113
-0.00575708
-0.0118973
-0.0176449
-0.0229777
0.0598888
0.0577416
0.0540605
0.0491859
0.0434196
0.036971
0.0300761
0.0229188
0.0156943
0.00854249
0.00160146
-0.00505021
-0.0113345
-0.0172313
-0.0227124
0.0613244
0.0592155
0.055616
0.050825
0.0451247
0.0387008
0.0317879
0.0245645
0.0172336
0.00993714
0.00282441
-0.00402128
-0.0105101
-0.0166194
-0.0223125
0.0630908
0.0610332
0.0575446
0.0528688
0.0472639
0.0408843
0.0339626
0.026668
0.0192126
0.0117401
0.00441415
-0.00267571
-0.00942396
-0.0158047
-0.0217698
0.0651232
0.0631311
0.0597859
0.0552598
0.0497846
0.0434757
0.0365632
0.0292017
0.0216131
0.0139414
0.00636795
-0.00101059
-0.00806885
-0.0147765
-0.0210707
0.0673623
0.0654516
0.0622846
0.0579447
0.0526388
0.0464346
0.0395588
0.0321446
0.0244238
0.0165381
0.00868983
0.000983404
-0.0064316
-0.0135193
-0.020198
0.0697544
0.0679429
0.0649902
0.0608743
0.0557821
0.0497241
0.0429222
0.0354795
0.0276375
0.0195318
0.0113887
0.0033204
-0.00449464
-0.0120137
-0.0191316
0.0722511
0.0705585
0.0678559
0.0640023
0.0591729
0.0533091
0.0466279
0.0391912
0.0312497
0.0229272
0.0144771
0.00601828
-0.00223681
-0.0102373
-0.017849
0.0748093
0.0732573
0.0708386
0.067285
0.0627714
0.057156
0.0506515
0.0432652
0.0352568
0.0267308
0.0179699
0.00909782
0.0003661
-0.00816483
-0.0163255
0.0773909
0.0760035
0.0738977
0.0706817
0.0665394
0.0612312
0.0549678
0.0476862
0.0396552
0.0309497
0.0218838
0.0125821
0.00334098
-0.00576856
-0.0145344
0.079963
0.0787652
0.0769955
0.0741544
0.0704397
0.0655012
0.0595505
0.0524372
0.04444
0.0355907
0.0262361
0.0164959
0.00671709
-0.00301816
-0.0124465
0.0824981
0.0815149
0.0800971
0.0776688
0.074436
0.0699318
0.0643713
0.0574989
0.0496041
0.040659
0.0310439
0.0208652
0.0105259
0.000119283
-0.0100302
0.0849731
0.0842283
0.0831707
0.0811937
0.0784924
0.0744889
0.0693998
0.0628486
0.0551375
0.0461576
0.0363236
0.0257166
0.0148009
0.00367944
-0.00725108
0.0873698
0.086884
0.0861884
0.0847014
0.0825737
0.0791387
0.0746025
0.0684607
0.0610263
0.052086
0.0420896
0.0310765
0.0195771
0.00770078
-0.0040712
0.0896742
0.0894633
0.0891265
0.0881671
0.0866458
0.0838479
0.0799431
0.0743062
0.0672517
0.0584394
0.0483539
0.0369708
0.0248909
0.0122246
-0.000449204
0.0918759
0.0919501
0.0919658
0.0915682
0.0906766
0.0885841
0.0853828
0.0803538
0.0737894
0.0652079
0.0551248
0.0434232
0.0307797
0.0172949
0.00365995
0.0939677
0.0943311
0.0946914
0.0948844
0.0946365
0.0933156
0.090881
0.0865696
0.0806083
0.0723769
0.0624056
0.0504549
0.037281
0.0229582
0.00830505
0.0959449
0.0965956
0.0972924
0.0980971
0.0984996
0.0980111
0.0963965
0.0929173
0.0876708
0.0799264
0.0701931
0.0580828
0.0444324
0.0292629
0.0135384
0.097805
0.0987359
0.0997614
0.10119
0.102244
0.10264
0.101889
0.0993584
0.0949328
0.0878319
0.0784755
0.0663195
0.0522702
0.0362573
0.0194156
0.0995472
0.100747
0.102094
0.104148
0.105852
0.107173
0.10732
0.105851
0.102345
0.0960634
0.0872305
0.0751744
0.0608278
0.0439889
0.025994
0.101172
0.102627
0.104288
0.10696
0.109309
0.11158
0.112655
0.112351
0.109857
0.104584
0.096425
0.0846536
0.0701345
0.0525047
0.0333333
0.102682
0.104375
0.106343
0.109618
0.112604
0.115836
0.117863
0.11881
0.117415
0.113349
0.106014
0.0947592
0.0802125
0.0618571
0.0414983
0.104079
0.105993
0.10826
0.112115
0.115729
0.119918
0.122916
0.12518
0.124967
0.122302
0.115945
0.105484
0.0910701
0.0721116
0.0505727
0.105367
0.107486
0.110042
0.11445
0.118679
0.123806
0.12779
0.131412
0.132462
0.131377
0.126157
0.116808
0.102688
0.0833408
0.0606668
0.10655
0.108856
0.11169
0.116622
0.121448
0.127488
0.132464
0.137463
0.139855
0.140504
0.136597
0.128702
0.115015
0.0955829
0.0718449
0.107633
0.110111
0.113211
0.118634
0.12404
0.130957
0.136927
0.1433
0.147109
0.149608
0.147217
0.141126
0.128001
0.108798
0.0838953
0.108621
0.111255
0.114608
0.120491
0.126454
0.134209
0.141167
0.14889
0.154183
0.158601
0.157953
0.154
0.141683
0.123001
0.0961263
0.109519
0.112293
0.115881
0.122187
0.128676
0.137216
0.145136
0.15416
0.160969
0.167325
0.16865
0.167163
0.15628
0.138923
0.108296
0.110331
0.113229
0.11702
0.123704
0.130657
0.139916
0.148718
0.158984
0.167279
0.175624
0.179121
0.1806
0.172201
0.158871
0.124393
-0.0265525
-0.028363
-0.0301852
-0.0320095
-0.0338358
-0.0356658
-0.0374996
-0.039336
-0.0411734
-0.0430102
-0.0448451
-0.046677
-0.0485045
-0.0503266
-0.0521418
-0.053949
-0.0557468
-0.0575338
-0.059309
-0.0610731
-0.0264662
-0.0282889
-0.0301213
-0.0319549
-0.0337918
-0.0356349
-0.0374844
-0.0393389
-0.0411964
-0.0430556
-0.044915
-0.0467733
-0.0486294
-0.0504818
-0.0523291
-0.0541701
-0.0560034
-0.0578278
-0.0596422
-0.0614451
-0.0262941
-0.0281584
-0.0300316
-0.031905
-0.033783
-0.0356696
-0.0375649
-0.0394671
-0.0413739
-0.0432837
-0.0451949
-0.0471061
-0.0490161
-0.0509231
-0.0528258
-0.0547226
-0.0566118
-0.0584917
-0.0603616
-0.0622206
-0.026033
-0.0279664
-0.029906
-0.0318425
-0.0337833
-0.0357345
-0.0376965
-0.039667
-0.0416432
-0.0436232
-0.0456057
-0.0475891
-0.0495719
-0.0515527
-0.0535297
-0.0555014
-0.0574662
-0.0594224
-0.0613693
-0.0633057
-0.0256713
-0.0277003
-0.0297317
-0.0317544
-0.0337798
-0.0358172
-0.0378677
-0.0399281
-0.0419952
-0.0440668
-0.0461415
-0.0482179
-0.0502944
-0.0523694
-0.0544411
-0.0565079
-0.058568
-0.0606196
-0.0626624
-0.0646952
-0.0251936
-0.0273444
-0.0294937
-0.0316257
-0.0337573
-0.0359021
-0.038062
-0.0402333
-0.0424119
-0.0445953
-0.0467821
-0.0489709
-0.0511603
-0.0533485
-0.0555337
-0.0577141
-0.0598879
-0.0620532
-0.0642105
-0.0663583
-0.0245818
-0.0268813
-0.0291756
-0.0314409
-0.0337004
-0.0359737
-0.0382643
-0.0405677
-0.0428785
-0.0451941
-0.0475131
-0.0498342
-0.0521559
-0.0544765
-0.0567942
-0.059107
-0.061413
-0.0637101
-0.0660001
-0.0682812
-0.0238155
-0.0262918
-0.0287604
-0.0311844
-0.0335942
-0.0360176
-0.0384608
-0.040918
-0.0433826
-0.0458513
-0.0483228
-0.0507962
-0.0532699
-0.0557423
-0.0582114
-0.0606753
-0.0631319
-0.0655786
-0.0680191
-0.0704517
-0.0228726
-0.0255555
-0.0282305
-0.0308403
-0.033424
-0.0360202
-0.0386387
-0.0412724
-0.043913
-0.0465565
-0.0492017
-0.0518479
-0.0544939
-0.0571379
-0.059778
-0.062412
-0.0650377
-0.0676513
-0.0702605
-0.0728632
-0.0217291
-0.024651
-0.0275678
-0.0303933
-0.0331759
-0.0359685
-0.0387862
-0.0416206
-0.0444608
-0.0473019
-0.0501428
-0.0529835
-0.0558228
-0.058659
-0.0614899
-0.0643129
-0.0671251
-0.0699212
-0.0727166
-0.0755088
-0.0203594
-0.0235557
-0.0267541
-0.029828
-0.0328361
-0.0358504
-0.038893
-0.0419536
-0.0450182
-0.0480806
-0.0511402
-0.0541977
-0.0572528
-0.0603042
-0.0633507
-0.0663896
-0.0694156
-0.0724052
-0.0754012
-0.078399
-0.0187362
-0.0222458
-0.0257709
-0.0291295
-0.0323923
-0.0356552
-0.0389502
-0.0422647
-0.0455802
-0.0488885
-0.0521894
-0.0554842
-0.0587724
-0.0620521
-0.0653208
-0.0685772
-0.0718227
-0.0750817
-0.0783228
-0.0815442
-0.0168299
-0.0206961
-0.024599
-0.0282832
-0.0318323
-0.0353736
-0.0389518
-0.042551
-0.0461472
-0.0497301
-0.0533001
-0.05686
-0.0604101
-0.0639492
-0.0674754
-0.0709875
-0.0744857
-0.0779841
-0.0814677
-0.0849322
-0.0146077
-0.0188786
-0.0232177
-0.0272731
-0.0311434
-0.0349956
-0.0388906
-0.0428086
-0.046718
-0.0506057
-0.0544734
-0.0583254
-0.0621629
-0.0659847
-0.0697885
-0.0735727
-0.0773367
-0.081098
-0.0848461
-0.0885748
-0.0120339
-0.016763
-0.0216042
-0.0260821
-0.0303118
-0.0345104
-0.0387597
-0.043034
-0.0472918
-0.051517
-0.0557128
-0.0598859
-0.0640382
-0.0681684
-0.072274
-0.0763531
-0.0804041
-0.0844508
-0.0884844
-0.0924965
-0.00906874
-0.0143156
-0.019734
-0.0246916
-0.0293227
-0.0339074
-0.0385527
-0.043225
-0.0478704
-0.0524689
-0.0570263
-0.0615521
-0.0660492
-0.0705163
-0.0749499
-0.0793478
-0.0837061
-0.08806
-0.092401
-0.0967164
-0.00566873
-0.0114994
-0.0175795
-0.0230807
-0.0281596
-0.0331747
-0.0382633
-0.0433804
-0.0484564
-0.0534675
-0.0584233
-0.0633367
-0.0682119
-0.0730468
-0.0778368
-0.0825778
-0.0872616
-0.0919448
-0.0966167
-0.101257
-0.00178598
-0.00827325
-0.0151098
-0.0212253
-0.0268035
-0.0322991
-0.0378846
-0.0434991
-0.0490532
-0.0545198
-0.0599136
-0.0652525
-0.070542
-0.0757806
-0.0809636
-0.086084
-0.0911119
-0.0961457
-0.101168
-0.106148
0.00263169
-0.00459214
-0.0122901
-0.0190975
-0.025232
-0.0312652
-0.0374093
-0.0435804
-0.0496654
-0.0556342
-0.0615088
-0.0673113
-0.0730475
-0.0787144
-0.0843089
-0.0898302
-0.0952889
-0.100721
-0.106108
-0.111437
0.00764027
-0.000407191
-0.00908112
-0.0166639
-0.0234175
-0.0300546
-0.0368286
-0.0436238
-0.0502992
-0.0568239
-0.0632298
-0.0695428
-0.0757663
-0.0818925
-0.0879191
-0.0938573
-0.099809
-0.105679
-0.111454
-0.117148
0.0132977
0.00433243
-0.00543934
-0.0138843
-0.021326
-0.0286442
-0.0361312
-0.0436264
-0.0509582
-0.0581006
-0.0650986
-0.0719825
-0.0787539
-0.0854037
-0.0919298
-0.0983359
-0.104719
-0.111021
-0.117215
-0.123307
0.01966
0.00967475
-0.00131922
-0.0107113
-0.0189158
-0.0270062
-0.0353017
-0.0435801
-0.0516402
-0.0594689
-0.0671267
-0.0746447
-0.0820187
-0.0892355
-0.0962911
-0.103182
-0.110041
-0.116817
-0.123462
-0.129975
0.0267751
0.0156571
0.00332345
-0.00709013
-0.0161385
-0.0251098
-0.0343219
-0.0434719
-0.0523372
-0.0609292
-0.0693238
-0.0775484
-0.0855912
-0.0934331
-0.101059
-0.108461
-0.115842
-0.12313
-0.130251
-0.137199
0.0346799
0.0222995
0.00853042
-0.00295907
-0.0129429
-0.022925
-0.0331715
-0.0432837
-0.0530377
-0.0624802
-0.0716961
-0.0807039
-0.0894954
-0.0980682
-0.106415
-0.114344
-0.122273
-0.130078
-0.137671
-0.145058
0.0434015
0.0296126
0.0143535
0.0017551
-0.00927825
-0.0204246
-0.0318262
-0.0429921
-0.0537299
-0.0641261
-0.0742551
-0.0841052
-0.093637
-0.102835
-0.111731
-0.120707
-0.129382
-0.137719
-0.14578
-0.153613
0.0529424
0.0376177
0.0208808
0.00714888
-0.00508988
-0.0175769
-0.0302502
-0.0425626
-0.0543973
-0.0658744
-0.0770433
-0.0878734
-0.0983302
-0.108409
-0.118119
-0.127756
-0.137084
-0.146023
-0.15462
-0.162929
0.0631844
0.046318
0.0282375
0.0133479
-0.000310865
-0.0143334
-0.0283872
-0.0419506
-0.0550183
-0.0677171
-0.0800557
-0.0919877
-0.103474
-0.114482
-0.124987
-0.135405
-0.145486
-0.155099
-0.164281
-0.173097
0.0736597
0.0554965
0.0364769
0.0204628
0.0051396
-0.0105942
-0.0261264
-0.0410756
-0.0555412
-0.0696118
-0.0832522
-0.09642
-0.109092
-0.121257
-0.13266
-0.143947
-0.154796
-0.165084
-0.174875
-0.184225
0.0834531
0.0644092
0.0452965
0.0282977
0.0111457
-0.00634802
-0.0234277
-0.0399271
-0.0559698
-0.0715679
-0.0866599
-0.101188
-0.11508
-0.12824
-0.141188
-0.153494
-0.165054
-0.175992
-0.186405
-0.196311
0.0920366
0.0727419
0.0545626
0.0366554
0.0178648
-0.00111797
-0.0196962
-0.0378275
-0.0555326
-0.0727386
-0.0893724
-0.105399
-0.120818
-0.135615
-0.150235
-0.163765
-0.176244
-0.187956
-0.199031
-0.209479
-0.0628247
-0.0645619
-0.0662834
-0.0679882
-0.0696754
-0.0713444
-0.0729943
-0.0746242
-0.0762334
-0.0632349
-0.0650103
-0.0667704
-0.068514
-0.07024
-0.0719473
-0.0736348
-0.0753015
-0.0769464
-0.0640673
-0.0658997
-0.0677165
-0.0695163
-0.071298
-0.0730606
-0.0748028
-0.0765238
-0.0782225
-0.0652296
-0.0671393
-0.0690334
-0.0709106
-0.0727698
-0.0746099
-0.0764295
-0.0782278
-0.0800036
-0.0667159
-0.0687224
-0.0707135
-0.0726877
-0.074644
-0.0765812
-0.0784982
-0.0803938
-0.082267
-0.0684942
-0.0706161
-0.0727226
-0.0748124
-0.0768846
-0.0789379
-0.0809713
-0.0829837
-0.0849741
-0.0705507
-0.0728063
-0.0750466
-0.0772706
-0.0794771
-0.0816652
-0.0838339
-0.085982
-0.0881089
-0.072873
-0.0752804
-0.0776725
-0.0800485
-0.0824075
-0.0847486
-0.0870709
-0.0893734
-0.0916554
-0.0754548
-0.0780322
-0.080594
-0.0831398
-0.085669
-0.0881809
-0.0906747
-0.0931497
-0.0956052
-0.0782901
-0.081056
-0.0838056
-0.0865391
-0.0892565
-0.091957
-0.0946402
-0.0973054
-0.0999524
-0.0813862
-0.0843573
-0.0873116
-0.0902498
-0.0931722
-0.0960783
-0.0989677
-0.10184
-0.104696
-0.0847497
-0.0879403
-0.0911158
-0.0942757
-0.0974197
-0.100548
-0.10366
-0.106756
-0.0883788
-0.0918089
-0.0952232
-0.0986214
-0.102004
-0.10537
-0.108721
-0.112057
-0.0922829
-0.0959717
-0.0996422
-0.103296
-0.106932
-0.110553
-0.114158
-0.117748
-0.096484
-0.100448
-0.104391
-0.108315
-0.112221
-0.11611
-0.119983
-0.123841
-0.101001
-0.105257
-0.109488
-0.113697
-0.117886
-0.122056
-0.126209
-0.130347
-0.105857
-0.110421
-0.114955
-0.119463
-0.123947
-0.12841
-0.132853
-0.137279
-0.11108
-0.115967
-0.120817
-0.125636
-0.130426
-0.13519
-0.139931
-0.144653
-0.116709
-0.121931
-0.127109
-0.132248
-0.13735
-0.142421
-0.147464
-0.152483
-0.122776
-0.128345
-0.13386
-0.139326
-0.144746
-0.150126
-0.15547
-0.160785
-0.129312
-0.135241
-0.141102
-0.1469
-0.152641
-0.15833
-0.163974
-0.169578
-0.136371
-0.142669
-0.148881
-0.155011
-0.161069
-0.167061
-0.172994
-0.178878
-0.144
-0.150676
-0.15724
-0.1637
-0.170064
-0.176343
-0.182545
-0.188682
-0.15227
-0.159325
-0.166237
-0.173017
-0.179674
-0.186219
-0.192662
-0.199015
-0.16124
-0.168673
-0.175922
-0.183004
-0.189931
-0.196718
-0.203375
-0.209914
-0.170977
-0.178778
-0.186346
-0.1937
-0.200859
-0.20784
-0.214662
-0.221342
-0.181578
-0.18974
-0.197601
-0.205185
-0.212515
-0.219612
-0.226503
-0.233214
-0.193155
-0.201677
-0.209814
-0.217592
-0.225034
-0.232166
-0.239014
-0.245608
-0.205707
-0.214603
-0.22302
-0.23098
-0.238508
-0.245628
-0.252363
-0.258738
-0.219297
-0.228501
-0.237117
-0.24517
-0.252684
-0.259688
-0.266209
-0.272274
)
;

boundaryField
{
    inlet
    {
        type            zeroGradient;
    }
    outlet
    {
        type            fixedValue;
        value           nonuniform 0();
    }
    cylinder
    {
        type            zeroGradient;
    }
    top
    {
        type            symmetryPlane;
    }
    bottom
    {
        type            symmetryPlane;
    }
    defaultFaces
    {
        type            empty;
    }
    procBoundary0to1
    {
        type            processor;
        value           nonuniform List<scalar> 
50
(
-0.29416
-0.29416
-0.316344
-0.316344
-0.335651
-0.359509
-0.335651
-0.348556
-0.359509
-0.364075
-0.364075
-0.366549
-0.366549
-0.367852
-0.367852
-0.363
-0.362781
-0.362781
-0.361016
-0.077821
-0.0785687
-0.0798978
-0.0817561
-0.084117
-0.0869416
-0.0902137
-0.0939163
-0.0980408
-0.102581
-0.107535
-0.109837
-0.109837
-0.115378
-0.121325
-0.127687
-0.134472
-0.141692
-0.149358
-0.157483
-0.166074
-0.175146
-0.184716
-0.194762
-0.205286
-0.216341
-0.227893
-0.239774
-0.251983
-0.264781
-0.277908
)
;
    }
    procBoundary0to2
    {
        type            processor;
        value           nonuniform List<scalar> 
26
(
0.628507
0.60687
0.592334
0.575117
0.575117
0.548636
0.519032
0.487814
0.456127
0.424789
0.39437
0.116155
0.119604
0.12387
0.132196
0.140789
0.153221
0.166201
0.182919
0.200658
0.222029
0.244839
0.27117
0.298984
0.330122
0.362088
)
;
    }
}


// ************************************************************************* //
