/*--------------------------------*- C++ -*----------------------------------*\
  =========                 |
  \\      /  F ield         | OpenFOAM: The Open Source CFD Toolbox
   \\    /   O peration     | Website:  https://openfoam.org
    \\  /    A nd           | Version:  7
     \\/     M anipulation  |
\*---------------------------------------------------------------------------*/
FoamFile
{
    version     2.0;
    format      ascii;
    class       surfaceScalarField;
    location    "115";
    object      phi;
}
// * * * * * * * * * * * * * * * * * * * * * * * * * * * * * * * * * * * * * //

dimensions      [0 3 -1 0 0 0 0];

internalField   nonuniform List<scalar> 
4148
(
0.0882924
0.022585
0.0227813
0.0796062
0.0869446
0.0241291
0.0218708
0.0683612
0.02402
0.077457
0.0853332
0.0256314
0.0150908
0.0398759
0.0192152
0.0531529
0.0225734
0.065003
0.0251434
0.074887
0.0834055
0.0270712
0.00991588
0.0224551
0.014613
0.0351789
0.0191744
0.0485915
0.0230569
0.0611204
0.0261108
0.0718332
0.0810969
0.0284194
0.00516758
0.00938697
0.00910569
0.018517
0.0139026
0.0303819
0.018849
0.0436451
0.0232731
0.0566963
0.0268723
0.068234
0.078329
0.0296402
0.00207264
0.00201304
0.00450703
0.00695258
0.00820169
0.0148223
0.0129769
0.0256067
0.01822
0.038402
0.0231746
0.0517417
0.0273707
0.0640379
0.0750175
0.0306822
0.00171641
0.000858253
0.00385811
0.00481088
0.00724534
0.0114351
0.011872
0.02098
0.0172865
0.0329875
0.0227203
0.046308
0.0275435
0.0592147
0.0710672
0.0314938
0.000426184
-0.00127496
0.0013906
-0.000106165
0.00324349
0.00295799
0.00628207
0.00839649
0.0106428
0.0166193
0.0160729
0.0275574
0.0218874
0.0404935
0.0273252
0.0537768
0.0663936
0.0319988
2.15369e-05
-0.000941837
0.000310159
-0.00156358
0.00110466
-0.000900668
0.00268497
0.00137769
0.00535797
0.00572349
0.0093588
0.0126185
0.0146346
0.0222816
0.0206776
0.0344505
0.0266736
0.0477809
0.0609324
0.0321347
1.15234e-06
-0.000942989
0.000217606
-0.00178004
0.00086783
-0.00155089
0.00220282
4.26913e-05
0.00451681
0.00340951
0.00809756
0.0090377
0.0130569
0.0173222
0.019143
0.0283644
0.025522
0.0414018
0.0545162
0.0319383
-1.41565e-05
-0.000928833
0.00015166
-0.00194585
0.000687866
-0.0020871
0.00181414
-0.00108358
0.00379659
0.00142706
0.00693501
0.00589928
0.0114503
0.0128069
0.0173744
0.0224403
0.023907
0.0348693
0.0472846
0.0311385
-1.96342e-05
-0.000909198
0.000114637
-0.00208012
0.000569305
-0.00254177
0.00153008
-0.00204436
0.00322537
-0.000268232
0.00593634
0.00318831
0.00993987
0.00880342
0.0154716
0.0169086
0.0221219
0.028219
0.0414322
0.0279743
-1.68101e-05
-0.000892388
0.000106118
-0.00220305
0.000511907
-0.00294755
0.00135316
-0.00288561
0.00281687
-0.00173194
0.00514669
0.000858483
0.00863149
0.00531862
0.0135836
0.0119564
0.0200776
0.021725
0.0352002
0.0263096
-6.28931e-06
-0.000886099
0.00012324
-0.00233258
0.000509901
-0.00333422
0.00127562
-0.00365133
0.00256718
-0.0030235
0.004583
-0.00115733
0.00759155
0.00231007
0.0118936
0.00765439
0.0179259
0.0156927
0.0287359
0.0243902
9.97995e-06
-0.000896079
0.000160809
-0.00248341
0.000552442
-0.00372585
0.00127986
-0.00437875
0.00245431
-0.00419795
0.0042299
-0.00293292
0.00683544
-0.00029547
0.010522
0.00396781
0.0158682
0.0103465
0.0223335
0.0222706
2.99791e-05
-0.000926058
0.000212035
-0.00266547
0.000625105
-0.00413892
0.00134103
-0.00509468
0.0024418
-0.00529872
0.00404362
-0.00453474
0.00632878
-0.00258063
0.00949719
0.000799395
0.0140756
0.00576808
0.0162688
0.0201403
5.18383e-05
-0.000977896
0.000269534
-0.00288316
0.000712046
-0.00458143
0.00143113
-0.00581377
0.00248584
-0.00635343
0.00396309
-0.00601198
0.00600322
-0.00462076
0.00876763
-0.00196502
0.0126347
0.00190103
0.0107405
0.0181631
7.33715e-05
-0.00105127
0.000326183
-0.00313597
0.000798099
-0.00505335
0.00152322
-0.00653889
0.00254312
-0.00737332
0.00392419
-0.00739306
0.00577525
-0.00647182
0.00823353
-0.0044233
0.0115252
-0.00139066
0.00581858
0.0164471
9.27901e-05
-0.00114406
0.000375893
-0.00341908
0.000870338
-0.00554779
0.00159456
-0.00726312
0.00257701
-0.00835577
0.00387109
-0.00868714
0.00556568
-0.0081664
0.0077847
-0.00664233
0.0106503
-0.00425631
0.00147215
0.0149968
0.000108712
-0.00125277
0.000413916
-0.00372428
0.000918889
-0.00605276
0.00162824
-0.00797247
0.0025608
-0.00928833
0.00376271
-0.00988904
0.00531277
-0.00971647
0.00732859
-0.00865815
0.00988488
-0.0068126
-0.00237514
0.0137322
0.000120154
-0.00137293
0.000436908
-0.00404103
0.000937085
-0.00655294
0.00161346
-0.00864884
0.00247816
-0.010153
0.00357413
-0.010985
0.00497704
-0.0111194
0.00680226
-0.0104834
0.00911702
-0.00912736
-0.00579917
0.012541
0.000126479
-0.0014994
0.000442813
-0.00435737
0.00092122
-0.00703135
0.00154491
-0.00927253
0.00232186
-0.01093
0.00329459
-0.0119577
0.00453955
-0.0123643
0.00617178
-0.0121156
0.00827008
-0.0112257
-0.00885207
0.011323
0.000127337
-0.00162674
0.000430699
-0.00466073
0.000870121
-0.00747077
0.00142181
-0.00982422
0.00209187
-0.0116
0.002924
-0.0127899
0.00399695
-0.0134373
0.00542552
-0.0135442
0.0073038
-0.0131039
-0.0115571
0.0100089
0.000122619
-0.00174936
0.000400588
-0.0049387
0.000784701
-0.00785488
0.00124693
-0.0102865
0.00179339
-0.0121465
0.00246967
-0.0134662
0.00335639
-0.014324
0.00456675
-0.0147545
0.00620563
-0.0147428
-0.0139136
0.00856208
0.000112427
-0.00186179
0.000353309
-0.00517958
0.000667559
-0.00816913
0.00102569
-0.0106446
0.00143527
-0.0125561
0.00194363
-0.0139745
0.00263164
-0.015012
0.00360823
-0.0157311
0.0049817
-0.0161163
-0.0159049
0.00697301
9.70588e-05
-0.00195885
0.000290389
-0.00537291
0.000522615
-0.00840136
0.0007654
-0.0108874
0.00102877
-0.0128194
0.00136097
-0.0143067
0.00184065
-0.0154917
0.00256929
-0.0164598
0.0036511
-0.0171981
-0.0175076
0.00525377
7.6999e-05
-0.00203585
0.000213934
-0.00550985
0.000354789
-0.00854221
0.000474699
-0.0110073
0.000586654
-0.0129314
0.000738596
-0.0144587
0.00100424
-0.0157573
0.00147448
-0.01693
0.00224295
-0.0179666
-0.0186992
0.00343461
5.29062e-05
-0.00208875
0.000126503
-0.00558344
0.000169692
-0.0085854
0.000162974
-0.0110006
0.000122444
-0.0128909
9.4432e-05
-0.0144307
0.000145229
-0.0158081
0.000352303
-0.0171371
0.000796352
-0.0184106
-0.0194619
0.00155902
2.56034e-05
-0.00211436
3.1113e-05
-0.00558895
-2.65035e-05
-0.00852779
-0.000160163
-0.0108669
-0.000350228
-0.0127008
-0.000553391
-0.0142275
-0.000712648
-0.0156489
-0.000765512
-0.0170842
-0.000651475
-0.0185246
-0.0197927
-0.00032067
-4.21323e-06
-0.00211014
-6.93409e-05
-0.00552382
-0.000228343
-0.00836879
-0.000485296
-0.0106099
-0.000818156
-0.0123679
-0.00118714
-0.0138585
-0.00154545
-0.0152906
-0.00184684
-0.0167828
-0.00205025
-0.0183212
-0.0197285
-0.00211445
-3.5156e-05
-0.000171702
-0.000429318
-0.000803455
-0.00126912
-0.00179041
-0.00233069
-0.00285917
-0.0033522
-0.00379211
0.205832
-0.0010415
0.206964
-0.001132
0.208185
-0.00122092
0.209493
-0.00130809
0.210886
-0.00139337
0.212363
-0.00147662
0.213921
-0.00155769
0.215557
-0.00163644
0.21727
-0.00171274
0.219056
-0.00178646
-0.00185772
0.220914
0.19646
-0.00203888
0.197544
-0.00221558
0.198712
-0.00238918
0.199963
-0.00255939
0.201296
-0.00272593
0.202708
-0.00288851
0.204197
-0.00304686
0.205761
-0.00320071
0.207398
-0.0033498
0.209105
-0.00349386
-0.00363314
0.210881
0.187703
-0.00299746
0.188744
-0.00325643
0.189865
-0.00351087
0.191066
-0.00376037
0.192345
-0.00400451
0.193699
-0.00424287
0.195127
-0.00447506
0.196627
-0.00470068
0.198197
-0.00491935
0.199834
-0.0051307
-0.00533514
0.201536
0.179499
-0.00392228
0.180503
-0.00425987
0.181583
-0.0045916
0.18274
-0.0049169
0.183971
-0.00523524
0.185274
-0.00554609
0.186648
-0.00584893
0.18809
-0.00614324
0.189599
-0.00642852
0.191173
-0.00670431
-0.00697123
0.192809
0.171796
-0.00481766
0.172767
-0.0052305
0.173811
-0.0056362
0.174929
-0.00603408
0.176117
-0.00642349
0.177375
-0.00680379
0.1787
-0.00717433
0.180091
-0.00753452
0.181546
-0.00788367
0.183063
-0.00822128
-0.00854829
0.18464
0.164548
-0.00568755
0.16549
-0.0061725
0.166503
-0.00664911
0.167586
-0.0071166
0.168737
-0.0075742
0.169954
-0.00802114
0.171236
-0.00845669
0.172582
-0.00888016
0.173989
-0.0092907
0.175455
-0.00968776
-0.0100727
0.17698
0.157717
-0.00653562
0.158634
-0.00708977
0.15962
-0.00763446
0.160672
-0.0081688
0.16179
-0.00869191
0.162971
-0.00920295
0.164216
-0.00970104
0.165521
-0.0101854
0.166885
-0.0106551
0.168307
-0.0111095
-0.0115505
0.169785
0.151268
-0.00736527
0.152165
-0.00798592
0.153126
-0.00859607
0.154152
-0.00919473
0.155241
-0.00978091
0.156392
-0.0103537
0.157603
-0.0109121
0.158873
-0.0114553
0.1602
-0.011982
0.161582
-0.0124918
-0.0129874
0.163019
0.145173
-0.00817967
0.146051
-0.00886432
0.146992
-0.00953751
0.147996
-0.0101981
0.14906
-0.0108452
0.150184
-0.0114776
0.151366
-0.0120942
0.152605
-0.0126943
0.1539
-0.0132763
0.155248
-0.0138399
-0.0143888
0.156649
0.139403
-0.0089818
0.140267
-0.00972813
0.141192
-0.0104621
0.142176
-0.0111826
0.143219
-0.0118885
0.14432
-0.0125785
0.145478
-0.0132517
0.146691
-0.013907
0.147957
-0.0145427
0.149275
-0.0151585
-0.0157599
0.150647
0.133936
-0.00977443
0.134789
-0.0105803
0.1357
-0.0113731
0.136668
-0.0121515
0.137694
-0.0129143
0.138776
-0.0136604
0.139913
-0.0143884
0.141103
-0.0150976
0.142346
-0.0157856
0.14364
-0.0164525
-0.0171059
0.144986
0.127965
-0.0096842
0.128751
-0.0105601
0.129594
-0.0114236
0.130494
-0.0122732
0.13145
-0.0131078
0.132462
-0.013926
0.133528
-0.0147266
0.134648
-0.0155082
0.13582
-0.0162699
0.137044
-0.0170092
0.138318
-0.0177263
-0.0184313
0.139643
0.123045
-0.010409
0.123826
-0.0113411
0.124663
-0.0122604
0.125555
-0.0131652
0.126502
-0.0140544
0.127502
-0.0149265
0.128556
-0.0157803
0.129662
-0.0166143
0.13082
-0.0174276
0.132028
-0.0182174
0.133285
-0.0189838
-0.0197407
0.134595
0.118367
-0.0111329
0.119145
-0.0121195
0.119978
-0.0130929
0.120864
-0.0140515
0.121803
-0.0149938
0.122795
-0.0159186
0.12384
-0.0168245
0.124935
-0.0177098
0.126081
-0.0185739
0.127277
-0.0194134
0.128522
-0.0202288
-0.0210381
0.12982
0.113913
-0.0118576
0.114691
-0.0128971
0.115521
-0.013923
0.116403
-0.0149339
0.117338
-0.0159282
0.118324
-0.0169044
0.119361
-0.0178615
0.120448
-0.0187974
0.121586
-0.0197117
0.122773
-0.0206006
0.124009
-0.0214644
-0.022327
0.125298
0.10967
-0.0125843
0.110448
-0.0136752
0.111277
-0.0147523
0.112157
-0.0158141
0.113088
-0.0168592
0.11407
-0.017886
0.115102
-0.0188933
0.116183
-0.0198793
0.117315
-0.0208433
0.118496
-0.0217813
0.119725
-0.0226936
-0.0236105
0.121009
0.105622
-0.0133141
0.106401
-0.0144548
0.107231
-0.0155817
0.10811
-0.0166934
0.109039
-0.0177882
0.110018
-0.0188647
0.111046
-0.0199217
0.112124
-0.0209571
0.113251
-0.0219706
0.114428
-0.0229577
0.115653
-0.0239184
-0.0248913
0.116933
0.101757
-0.0140475
0.102538
-0.0152366
0.103369
-0.0164121
0.104248
-0.0175724
0.105176
-0.0187162
0.106153
-0.0198416
0.107179
-0.0209476
0.108254
-0.0220322
0.109378
-0.0230949
0.110552
-0.0241314
0.111774
-0.0251407
-0.0261715
0.113054
0.0980622
-0.0147846
0.0988464
-0.0160208
0.099678
-0.0172436
0.100557
-0.0184516
0.101484
-0.0196432
0.102459
-0.0208169
0.103484
-0.0219717
0.104557
-0.0231054
0.10568
-0.0242177
0.106852
-0.0253039
0.108074
-0.0263622
-0.0274532
0.109355
0.0945272
-0.0155253
0.0953136
-0.0168071
0.0961463
-0.0180763
0.0970257
-0.0193309
0.0979523
-0.0205699
0.0989264
-0.021791
0.0999489
-0.0229943
0.10102
-0.0241768
0.102142
-0.0253392
0.103314
-0.0264761
0.104536
-0.0275846
-0.0287377
0.105821
0.0911418
-0.0162689
0.0919297
-0.0175951
0.0927629
-0.0189095
0.0936418
-0.0202098
0.0945679
-0.0214959
0.0955412
-0.0227643
0.0965636
-0.0240167
0.0976342
-0.0252475
0.0987558
-0.0264609
0.0999274
-0.0276476
0.101151
-0.0288083
-0.030024
0.102437
0.087898
-0.0170148
0.0886869
-0.018384
0.08952
-0.0197426
0.0903977
-0.0210875
0.0913222
-0.0224204
0.0922932
-0.0237353
0.0933149
-0.0250384
0.0943847
-0.0263172
0.0955082
-0.0275844
0.0966784
-0.0288177
0.0979025
-0.0300325
-0.0313041
0.0991827
0.0847883
-0.0177622
0.0855778
-0.0191735
0.0864111
-0.0205759
0.0872884
-0.0219648
0.0882121
-0.0233442
0.0891802
-0.0247035
0.0901989
-0.026057
0.0912613
-0.0273797
0.0923809
-0.028704
0.0935395
-0.0299763
0.0947557
-0.0312487
-0.0325543
0.0960059
0.0818082
-0.0185099
0.0825969
-0.0199622
0.0834284
-0.0214075
0.0843036
-0.0228399
0.0852254
-0.024266
0.0861903
-0.0256683
0.0872048
-0.0270716
0.0882535
-0.0284284
0.089356
-0.0298065
0.0904747
-0.031095
0.0916529
-0.0324268
-0.033723
0.0928216
0.0789565
-0.0192568
0.0797423
-0.020748
0.0805678
-0.0222331
0.0814336
-0.0237056
0.0823414
-0.0251738
0.0832882
-0.0266152
0.0842809
-0.0280643
0.0852984
-0.0294458
0.0863627
-0.0308708
0.0874035
-0.0321357
0.0884913
-0.0335147
-0.0347183
0.0894866
0.0762262
-0.0199991
0.0770038
-0.0215256
0.0778161
-0.0230453
0.0786625
-0.0245519
0.0795395
-0.0260508
0.080443
-0.0275186
0.081371
-0.0289923
0.0823045
-0.0303793
0.0832621
-0.0318284
0.0841542
-0.0330278
0.0850672
-0.0344277
-0.035398
0.0857469
0.0735972
-0.0207244
0.0743513
-0.0222797
0.075132
-0.0238261
0.0759382
-0.0253581
0.0767614
-0.026874
0.077596
-0.0283533
0.0784203
-0.0298166
0.0792146
-0.0311737
0.0799581
-0.0325719
0.0805727
-0.0336424
0.0811342
-0.0349891
-0.0355662
0.0813023
0.071037
-0.0214129
0.0717421
-0.0229848
0.0724599
-0.0245438
0.0731853
-0.0260836
0.0739057
-0.0275944
0.074612
-0.0290595
0.0752666
-0.0304712
0.075853
-0.0317601
0.0762819
-0.0330008
0.0765001
-0.0338606
0.0764552
-0.0349442
-0.0349913
0.0758804
0.0684972
-0.0220413
0.0691248
-0.0236124
0.069742
-0.0251611
0.0703345
-0.0266761
0.0708792
-0.0281391
0.0713491
-0.0295294
0.071692
-0.0308141
0.0718799
-0.0319479
0.0717886
-0.0329095
0.0714288
-0.0335009
0.0705264
-0.0340418
-0.0334903
0.0690254
0.0659425
0.0664592
0.0669295
0.0673246
0.0676049
0.0677156
0.0675837
0.0671296
0.0662189
0.0648528
0.0627493
0.0603975
0.220988
-7.38982e-05
0.220954
3.34714e-05
0.220829
0.000125623
0.220588
0.000241271
0.220271
0.000316882
0.219859
0.000411802
0.219419
0.000439887
0.218944
0.000475235
0.218523
0.000420654
0.218172
0.000350863
0.217966
0.000206496
0.217951
1.48488e-05
0.218049
-9.83939e-05
0.218402
-0.000352232
0.218497
-9.54815e-05
0.218755
-0.000257504
0.217959
0.000795932
0.217056
0.000902246
0.214739
0.00231755
0.211694
0.00304524
0.208783
0.00291052
0.204316
0.00446699
0.202253
0.00206306
0.201522
0.000730592
0.207071
-0.0055484
0.213523
-0.00645237
0.218239
-0.00471544
0.22348
-0.00524099
0.220176
0.00330381
0.00338722
0.210943
-0.000136101
0.210897
7.94077e-05
0.210758
0.000265035
0.210502
0.00049724
0.210168
0.000650342
0.20974
0.0008405
0.209281
0.000898052
0.20879
0.000966935
0.208356
0.000854763
0.207996
0.000709959
0.207795
0.000407981
0.207794
1.62569e-05
0.207933
-0.000237902
0.208337
-0.000755681
0.208515
-0.000273642
0.20885
-0.00059234
0.208126
0.00151902
0.207288
0.00174021
0.205004
0.00460197
0.201989
0.00606027
0.199104
0.00579566
0.194578
0.00899325
0.192312
0.00432873
0.191516
0.00152638
0.197231
-0.0112634
0.203839
-0.0130602
0.208516
-0.0093922
0.213685
-0.0104098
0.210316
0.00667231
0.00696185
0.201581
-0.000181587
0.201513
0.000147865
0.201344
0.000434032
0.201052
0.000788988
0.200676
0.00102684
0.2002
0.00131578
0.19969
0.00140801
0.19915
0.0015069
0.198673
0.00133255
0.198285
0.00109751
0.198081
0.000612107
0.198104
-7.29027e-06
0.198319
-0.000452198
0.198834
-0.00127062
0.199165
-0.000605334
0.199652
-0.00107887
0.19903
0.00214123
0.198267
0.00250236
0.195956
0.00691295
0.192877
0.00913956
0.189937
0.00873614
0.185144
0.0137863
0.18242
0.0070524
0.18147
0.00247675
0.187687
-0.0174811
0.194843
-0.0202159
0.199605
-0.0141544
0.204821
-0.0156256
0.201254
0.0102399
0.0109893
0.192834
-0.000206264
0.192734
0.000247398
0.192523
0.000645396
0.192178
0.00113383
0.191737
0.00146823
0.19119
0.00186275
0.190599
0.00199833
0.189983
0.00212308
0.189435
0.00188124
0.189
0.00153205
0.188782
0.000829727
0.188841
-6.60801e-05
0.189155
-0.000765955
0.189836
-0.00195125
0.190387
-0.00115719
0.191089
-0.00178084
0.1906
0.0026307
0.189912
0.00318987
0.187539
0.00928645
0.184309
0.0123693
0.181275
0.0117708
0.17604
0.0190213
0.172607
0.0104853
0.171388
0.00369552
0.178388
-0.0244816
0.186484
-0.0283116
0.191404
-0.0190744
0.196751
-0.0209729
0.192926
0.0140656
0.0156908
0.184642
-0.000207342
0.184504
0.000384569
0.18424
0.00090956
0.183828
0.00154626
0.183303
0.00199337
0.182662
0.00250354
0.181965
0.00269478
0.181247
0.00284121
0.180602
0.00252697
0.180101
0.00203265
0.179857
0.00107413
0.179958
-0.000167713
0.180389
-0.00119648
0.18129
-0.00285227
0.182128
-0.00199557
0.183104
-0.00275682
0.182782
0.00295245
0.182158
0.00381449
0.179701
0.0117427
0.176245
0.0158254
0.17311
0.0149059
0.167301
0.02483
0.162897
0.01489
0.161248
0.00534418
0.169199
-0.0324329
0.178669
-0.0377812
0.183797
-0.024202
0.189319
-0.0264955
0.185261
0.0181237
0.0212172
0.176956
-0.000183046
0.176776
0.000564381
0.17645
0.0012352
0.175958
0.00203881
0.175332
0.00261896
0.174577
0.00325831
0.173751
0.00352124
0.172906
0.00368624
0.172137
0.00329546
0.17155
0.00261987
0.171263
0.00136155
0.171411
-0.00031605
0.171969
-0.0017548
0.173146
-0.00402942
0.174344
-0.00319294
0.175649
-0.00406207
0.175532
0.0030699
0.17495
0.0043956
0.172397
0.0142959
0.168654
0.0195692
0.165436
0.0181238
0.158973
0.0312929
0.15334
0.0205224
0.150966
0.00771804
0.159821
-0.0412873
0.171143
-0.0491031
0.176602
-0.029661
0.182361
-0.032255
0.178179
0.022306
0.0276338
0.169734
-0.000132483
0.169508
0.000790565
0.169114
0.00162963
0.16853
0.00262224
0.167789
0.00335987
0.166902
0.00414583
0.165923
0.00450002
0.164926
0.00468318
0.16401
0.00421163
0.163312
0.00331737
0.162964
0.00170974
0.163157
-0.000508486
0.163849
-0.00244672
0.16536
-0.00554081
0.166999
-0.00483169
0.168687
-0.00575069
0.168809
0.00294824
0.168245
0.00495927
0.165583
0.0169588
0.161506
0.0236457
0.158228
0.0214021
0.151131
0.0383897
0.144037
0.0276165
0.140393
0.0113624
0.149686
-0.0505811
0.163284
-0.0627006
0.169448
-0.0358252
0.175671
-0.0384775
0.171557
0.02642
0.034898
0.162942
-5.5637e-05
0.162667
0.00106549
0.162198
0.00209884
0.161514
0.0033058
0.160645
0.00422944
0.159607
0.00518343
0.158455
0.00565192
0.157281
0.00585696
0.156193
0.0052999
0.155358
0.00415208
0.154931
0.00213745
0.155156
-0.000733563
0.155982
-0.00327273
0.157889
-0.00744772
0.160062
-0.00700453
0.162193
-0.00788212
0.162581
0.00256066
0.162001
0.00553886
0.159217
0.0197428
0.154773
0.0280894
0.151443
0.0247329
0.143861
0.0459707
0.135171
0.0363074
0.129425
0.0171083
0.138121
-0.0592775
0.154142
-0.0787212
0.161722
-0.0434057
0.168951
-0.0457066
0.165209
0.0301624
0.0428401
0.156547
4.62487e-05
0.156222
0.00139074
0.155673
0.0026477
0.154882
0.0040969
0.153872
0.00523932
0.152668
0.0063871
0.151324
0.00699667
0.149949
0.00723171
0.148665
0.00658414
0.147664
0.00515291
0.147136
0.00266504
0.147371
-0.000968279
0.148326
-0.00422763
0.150694
-0.00981594
0.153507
-0.00981731
0.156147
-0.0105225
0.156813
0.00189469
0.156177
0.00617545
0.153265
0.0226544
0.148417
0.0329374
0.145027
0.0281228
0.137228
0.0537698
0.12696
0.0465758
0.118356
0.0257124
0.125077
-0.0659988
0.143073
-0.0967174
0.152813
-0.0531461
0.161843
-0.0547366
0.158909
0.0330968
0.0511691
0.150523
0.000170235
0.150146
0.00176775
0.149514
0.00327932
0.148609
0.00500168
0.147449
0.00639965
0.146065
0.00777107
0.144509
0.00855286
0.142911
0.00882941
0.141406
0.00808883
0.140209
0.00634997
0.139562
0.00331255
0.139769
-0.00117534
0.14084
-0.00529896
0.14374
-0.0127159
0.14731
-0.0133876
0.150542
-0.0137538
0.151475
0.000961675
0.150737
0.00691261
0.147688
0.0257035
0.142396
0.0382303
0.138943
0.0315754
0.13122
0.0614925
0.119611
0.0581852
0.108113
0.03721
0.111847
-0.0697322
0.130546
-0.115416
0.142615
-0.0652151
0.154108
-0.0662297
0.15246
0.0347451
0.0595203
0.14484
0.000316059
0.144413
0.00219525
0.143697
0.00399532
0.142674
0.00602442
0.141356
0.00771834
0.139779
0.00934808
0.137994
0.0103376
0.136154
0.0106696
0.134404
0.0098388
0.132984
0.00777001
0.132193
0.00410333
0.13232
-0.00130226
0.133487
-0.00646655
0.13699
-0.0162187
0.141457
-0.0178545
0.145369
-0.0176655
0.146532
-0.000201321
0.145658
0.00778601
0.142434
0.0289279
0.136677
0.0439867
0.133177
0.0350762
0.125733
0.068936
0.113275
0.0706429
0.0998495
0.050636
0.100427
-0.0703098
0.117987
-0.132976
0.131695
-0.0789236
0.145793
-0.0803271
0.145774
0.0347636
0.0675393
0.139478
0.000480831
0.139002
0.00267189
0.138201
0.00479567
0.137058
0.00716827
0.135575
0.00920109
0.133793
0.0111297
0.131765
0.0123657
0.129666
0.0127684
0.127646
0.0118593
0.12598
0.00943548
0.125022
0.00506194
0.125
-0.0012805
0.126231
-0.00769768
0.130407
-0.0203952
0.135937
-0.0233843
0.140615
-0.0223432
0.141962
-0.00154842
0.140922
0.00882642
0.137438
0.0324119
0.131249
0.0501752
0.127722
0.0386035
0.120605
0.0760527
0.107988
0.08326
0.0940819
0.0645423
0.0919075
-0.0681355
0.106673
-0.147742
0.120868
-0.0931185
0.137162
-0.0966209
0.138892
0.0330335
0.0749551
0.134414
0.000661498
0.133891
0.00319541
0.133008
0.00567829
0.131741
0.00843495
0.130091
0.0108511
0.128094
0.0131268
0.125811
0.0146492
0.12344
0.0151392
0.121126
0.0141736
0.119199
0.0113621
0.118046
0.00621535
0.117793
-0.00102757
0.119036
-0.00894128
0.123954
-0.0253127
0.130747
-0.0301777
0.136272
-0.0278674
0.137738
-0.00301449
0.136501
0.010063
0.132641
0.0362718
0.126106
0.0567106
0.122553
0.042156
0.115705
0.0829013
0.103619
0.0953455
0.090366
0.0777953
0.0859619
-0.0637315
0.0970707
-0.158851
0.110718
-0.106766
0.128515
-0.114418
0.131922
0.0296274
0.0816019
0.129627
0.000854727
0.12906
0.00376241
0.128098
0.00663938
0.126709
0.00982444
0.124891
0.0126692
0.122668
0.0153494
0.120121
0.0171965
0.117467
0.0177932
0.11484
0.0168009
0.112641
0.0135611
0.11127
0.00758563
0.110693
-0.000450147
0.111868
-0.0101165
0.117591
-0.0310353
0.125866
-0.0384531
0.132311
-0.0343125
0.133839
-0.00454224
0.132356
0.0115456
0.128006
0.040622
0.121235
0.0634823
0.11762
0.045771
0.110944
0.0895764
0.0998763
0.106414
0.0878545
0.0898171
0.0817424
-0.0576193
0.0891237
-0.166232
0.101536
-0.119179
0.120087
-0.132969
0.124982
0.0247326
0.0874057
0.125095
0.00105711
0.12449
0.0043681
0.123456
0.00767336
0.121945
0.0113345
0.11996
0.0146552
0.117502
0.0178066
0.114686
0.0200126
0.11174
0.0207398
0.108787
0.019754
0.106309
0.0160385
0.104705
0.00918992
0.10371
0.000544241
0.104705
-0.0111112
0.111256
-0.0375865
0.121211
-0.0484077
0.128657
-0.041759
0.130231
-0.00611548
0.128432
0.0133437
0.123511
0.0455434
0.116601
0.0703929
0.112853
0.0495189
0.106286
0.096143
0.0964629
0.116237
0.0858654
0.100415
0.0785775
-0.0503315
0.0826489
-0.170303
0.0934411
-0.129971
0.112046
-0.151574
0.118179
0.0185996
0.09236
0.1208
0.00126515
0.120163
0.00500601
0.119063
0.00877291
0.117437
0.0129606
0.115284
0.0168079
0.112585
0.0205059
0.109498
0.0230997
0.106251
0.0239865
0.102968
0.0230371
0.100208
0.018798
0.0983554
0.011043
0.0968853
0.00201427
0.097562
-0.0117879
0.104811
-0.0448359
0.116525
-0.0601209
0.125115
-0.0503495
0.126814
-0.00781406
0.124658
0.0154991
0.119137
0.0510651
0.112152
0.0773769
0.108199
0.053472
0.101718
0.102624
0.0931784
0.124776
0.0839914
0.109602
0.0760353
-0.0423754
0.0774204
-0.171688
0.08644
-0.13899
0.104504
-0.169639
0.111596
0.0115084
0.0965037
0.116723
0.00147519
0.116062
0.00566776
0.114906
0.00992873
0.113171
0.0146954
0.110852
0.0191268
0.107906
0.0234525
0.104546
0.0264594
0.100994
0.0275387
0.0973876
0.0266433
0.0943414
0.0218442
0.092223
0.0131614
0.0902946
0.00394258
0.0905054
-0.0119987
0.0979752
-0.0523056
0.111243
-0.0733887
0.121255
-0.0603616
0.123366
-0.00992535
0.120932
0.0179337
0.114855
0.0571421
0.107845
0.0843866
0.103638
0.0576794
0.0972406
0.109022
0.0899167
0.1321
0.0820274
0.117491
0.0738275
-0.0341756
0.0731831
-0.171044
0.0804443
-0.146252
0.0975204
-0.186715
0.105289
0.00373985
0.0999028
0.112846
0.00168335
0.112171
0.00634295
0.110971
0.0111291
0.109137
0.0165295
0.10665
0.0216128
0.103455
0.0266483
0.099821
0.030093
0.0959603
0.0313993
0.09205
0.0305536
0.0887081
0.0251862
0.0862979
0.0155716
0.0840463
0.00619419
0.0836264
-0.0115788
0.0903581
-0.0590373
0.104519
-0.0875493
0.116368
-0.0722114
0.119517
-0.0130742
0.117101
0.0203504
0.110621
0.0636219
0.103639
0.0913682
0.0991627
0.0621558
0.0928615
0.115323
0.0866347
0.138327
0.0798939
0.124232
0.0717662
-0.0260478
0.0696967
-0.168975
0.0753264
-0.151881
0.0911097
-0.202498
0.0992951
-0.0044456
0.102637
0.109153
0.00188532
0.108477
0.007019
0.107247
0.0123597
0.105324
0.0184523
0.102668
0.0242685
0.0992234
0.0300931
0.0953128
0.0340037
0.0911442
0.0355679
0.0869586
0.0347392
0.0833036
0.0288411
0.0805874
0.0182878
0.0782065
0.00857517
0.076955
-0.0103273
0.0817196
-0.063802
0.0956721
-0.101502
0.109725
-0.0862647
0.114809
-0.0181578
0.112965
0.0221947
0.106367
0.0702197
0.0994992
0.0982359
0.0947772
0.0668778
0.08859
0.12151
0.0833248
0.143592
0.0775798
0.129977
0.0697442
-0.0182123
0.0667562
-0.165987
0.0709467
-0.156072
0.0852574
-0.216809
0.0936311
-0.0128192
0.104788
0.10563
0.00207639
0.104968
0.00768044
0.103725
0.0136033
0.101724
0.0204532
0.0988948
0.0270976
0.0952031
0.0337847
0.0910106
0.0381962
0.0865406
0.0400379
0.0821085
0.0391713
0.0781257
0.0328239
0.0751294
0.0212841
0.0727242
0.0109804
0.0704137
-0.00801683
0.072347
-0.0657352
0.0848889
-0.114044
0.101079
-0.102455
0.108923
-0.0260018
0.108336
0.0227822
0.102018
0.0765375
0.0953945
0.10486
0.0904861
0.0717863
0.0844352
0.127561
0.0799968
0.148031
0.0751049
0.134869
0.067704
-0.0108114
0.0641968
-0.162479
0.0671663
-0.159041
0.0799273
-0.22957
0.0883032
-0.0211952
0.106439
0.10226
0.0022536
0.101632
0.00830896
0.100395
0.0148399
0.0983259
0.0225223
0.0953195
0.030104
0.091383
0.0377212
0.086903
0.0426762
0.0821459
0.044795
0.0774828
0.0438344
0.0731819
0.0371249
0.0699834
0.0244826
0.0674326
0.0135313
0.0639331
-0.00451742
0.063128
-0.0649301
0.0734233
-0.124339
0.0909866
-0.120019
0.1019
-0.0369154
0.103127
0.0215551
0.0975184
0.0821464
0.0913014
0.111076
0.0862942
0.0767936
0.0804055
0.13345
0.0766685
0.151768
0.0725016
0.139035
0.0656178
-0.00392753
0.0618922
-0.158754
0.0638608
-0.16101
0.0750767
-0.240786
0.0833057
-0.0294242
0.107667
0.0990214
0.00241488
0.0984463
0.008884
0.0972392
0.016047
0.0951118
0.0246498
0.0919274
0.0332883
0.0877472
0.0419014
0.0829776
0.0474458
0.0779535
0.0498191
0.0730568
0.048731
0.0684964
0.0416853
0.0651648
0.0278141
0.0621648
0.0165313
0.0576173
3.01143e-05
0.0550881
-0.0624009
0.062883
-0.132134
0.080529
-0.137665
0.0941222
-0.0505086
0.0973988
0.0182785
0.0928546
0.0866906
0.0872075
0.116724
0.0822054
0.0817957
0.0765076
0.139147
0.0733599
0.154915
0.0698054
0.14259
0.0634772
0.00240068
0.0597521
-0.155029
0.0609264
-0.162184
0.07066
-0.250519
0.0786274
-0.0373916
0.108542
0.0958652
0.00255553
0.0953698
0.0093794
0.0942188
0.017198
0.0920478
0.0268208
0.088693
0.0366431
0.0842717
0.0463226
0.0792195
0.0524981
0.0739477
0.0550908
0.0688095
0.0538692
0.064093
0.0464019
0.0606178
0.0312892
0.0568615
0.0202876
0.0517233
0.00516827
0.0487804
-0.059458
0.0542873
-0.137641
0.0707203
-0.154098
0.0861006
-0.0658889
0.0913218
0.0130573
0.0880601
0.0899523
0.0831149
0.121669
0.0782234
0.0866871
0.0727485
0.144622
0.0700904
0.157574
0.0670508
0.14563
0.0612862
0.00816522
0.0577158
-0.151458
0.0582809
-0.162749
0.0666329
-0.258871
0.0742532
-0.0450118
0.109126
0.0927015
0.00267558
0.0923192
0.00976171
0.091259
0.0182583
0.089074
0.0290058
0.0855722
0.0401449
0.0809214
0.0509734
0.075608
0.0578115
0.0701033
0.0605955
0.0647333
0.0592392
0.05997
0.0511652
0.056238
0.0350212
0.0515952
0.0249305
0.0464837
0.0102798
0.0441258
-0.0571001
0.047797
-0.141312
0.0621503
-0.168451
0.0782747
-0.0820133
0.0851053
0.00622677
0.0831995
0.0918581
0.07904
0.125828
0.0743534
0.0913736
0.0691313
0.149844
0.0668776
0.159827
0.0642702
0.148237
0.0590569
0.0133785
0.0557445
-0.148146
0.0558605
-0.162865
0.0629543
-0.265965
0.0701657
-0.0522232
0.109474
0.0893893
0.00277291
0.0891546
0.00999644
0.0882356
0.0191773
0.0860945
0.0311468
0.0824963
0.0437431
0.0776482
0.0558215
0.0721132
0.0633465
0.0663889
0.0663198
0.0608308
0.0647973
0.0560889
0.0559071
0.0519376
0.0391725
0.0465083
0.0303598
0.0420089
0.0147792
0.04072
-0.0558112
0.0430606
-0.143653
0.0549948
-0.180385
0.0709353
-0.0979538
0.0789403
-0.0017783
0.0783493
0.0924491
0.0750085
0.129169
0.0706021
0.0957801
0.0656567
0.15479
0.0637367
0.161747
0.061493
0.150481
0.0568056
0.018066
0.0538147
-0.145155
0.0536165
-0.162667
0.0595859
-0.271935
0.0663467
-0.058984
0.109634
0.0857088
0.00281103
0.0856659
0.0100393
0.0849667
0.0198765
0.0829721
0.0331415
0.0793686
0.0473466
0.0743908
0.0607993
0.0686948
0.0690425
0.0627741
0.0722405
0.0571042
0.0704672
0.0523897
0.0606216
0.0476763
0.0438859
0.0417524
0.0362836
0.038304
0.0182276
0.0381594
-0.0556666
0.0396041
-0.145097
0.0491636
-0.189945
0.0642331
-0.113023
0.0729741
-0.0105193
0.0735825
0.0918407
0.0710496
0.131702
0.0669764
0.0998533
0.0623241
0.159442
0.06068
0.163391
0.0587448
0.152416
0.0545504
0.0222605
0.0519135
-0.142518
0.0515116
-0.162265
0.0564923
-0.276915
0.0627773
-0.0652691
0.109647
0.0813578
0.00275558
0.0815669
0.00983014
0.0812103
0.0202331
0.0795271
0.0348247
0.0760677
0.0508061
0.0710762
0.0657907
0.0653038
0.074815
0.0592321
0.0783121
0.0535461
0.0761532
0.0488124
0.0653553
0.043465
0.0492333
0.0374435
0.0423051
0.0353185
0.0203527
0.036163
-0.0565111
0.037016
-0.14595
0.0444413
-0.19737
0.0582075
-0.12679
0.0673083
-0.0196201
0.0689605
0.0901885
0.0671917
0.133471
0.0634833
0.103562
0.0591329
0.163792
0.057717
0.164807
0.0560465
0.154086
0.0523091
0.0259978
0.0500353
-0.140244
0.0495175
-0.161747
0.0536416
-0.281039
0.0594385
-0.071066
0.109547
0.076019
0.00261693
0.0765205
0.00932865
0.0766835
0.0200701
0.075549
0.0359592
0.0724548
0.0539003
0.0676275
0.070618
0.0618931
0.0805494
0.0557446
0.0844606
0.0501391
0.0817588
0.0453118
0.0701825
0.039347
0.0551982
0.0336468
0.0480053
0.0329709
0.0210285
0.0345645
-0.0581047
0.0349887
-0.146375
0.0405805
-0.202962
0.0528266
-0.139036
0.0620044
-0.0287978
0.06453
0.0876628
0.0634595
0.134541
0.0601289
0.106892
0.0560821
0.167839
0.054855
0.166034
0.0534144
0.155527
0.0500983
0.0293139
0.0481805