/*--------------------------------*- C++ -*----------------------------------*\
  =========                 |
  \\      /  F ield         | OpenFOAM: The Open Source CFD Toolbox
   \\    /   O peration     | Website:  https://openfoam.org
    \\  /    A nd           | Version:  7
     \\/     M anipulation  |
\*---------------------------------------------------------------------------*/
FoamFile
{
    version     2.0;
    format      ascii;
    class       volScalarField;
    location    "375";
    object      p;
}
// * * * * * * * * * * * * * * * * * * * * * * * * * * * * * * * * * * * * * //

dimensions      [0 2 -2 0 0 0 0];

internalField   nonuniform List<scalar> 
2125
(
-0.361296
-0.367474
-0.363509
-0.374271
-0.369182
-0.381716
-0.375446
-0.369181
-0.389843
-0.382342
-0.375255
-0.367098
-0.398677
-0.389902
-0.381978
-0.372925
-0.362282
-0.349119
-0.408224
-0.398144
-0.389366
-0.379312
-0.367362
-0.352469
-0.333655
-0.418466
-0.407058
-0.397399
-0.38621
-0.372693
-0.355701
-0.334561
-0.310196
-0.429347
-0.416604
-0.40602
-0.393531
-0.378128
-0.358662
-0.334975
-0.308486
-0.280825
-0.254536
-0.440776
-0.426705
-0.415131
-0.401136
-0.383477
-0.361191
-0.334811
-0.30621
-0.277237
-0.250004
-0.45262
-0.437243
-0.424589
-0.408835
-0.388522
-0.363129
-0.333982
-0.303321
-0.273104
-0.244963
-0.464702
-0.448057
-0.434209
-0.416393
-0.393028
-0.36432
-0.3324
-0.299769
-0.268383
-0.239375
-0.476806
-0.458942
-0.443758
-0.423533
-0.396759
-0.364613
-0.329977
-0.295494
-0.263027
-0.2332
-0.488674
-0.469653
-0.452962
-0.429958
-0.399486
-0.363867
-0.326627
-0.290431
-0.256979
-0.226396
-0.500012
-0.479905
-0.461508
-0.435357
-0.400989
-0.361948
-0.32226
-0.284511
-0.250182
-0.21892
-0.510496
-0.489383
-0.469055
-0.439426
-0.401064
-0.358729
-0.316789
-0.277667
-0.242579
-0.210734
-0.519779
-0.497746
-0.475247
-0.441873
-0.399525
-0.354092
-0.310131
-0.269828
-0.234112
-0.201804
-0.527502
-0.504638
-0.479726
-0.44243
-0.396203
-0.347932
-0.302207
-0.260931
-0.224732
-0.1921
-0.533299
-0.509693
-0.48215
-0.440854
-0.390953
-0.340151
-0.292943
-0.250915
-0.214399
-0.181605
-0.536815
-0.512555
-0.482201
-0.436936
-0.38365
-0.330667
-0.282272
-0.239724
-0.203079
-0.170311
-0.53771
-0.51288
-0.479599
-0.430501
-0.374193
-0.31941
-0.270136
-0.227306
-0.190728
-0.158179
-0.535672
-0.510355
-0.474106
-0.421413
-0.362506
-0.306328
-0.256495
-0.213623
-0.177288
-0.145065
-0.530426
-0.504702
-0.465535
-0.409573
-0.348537
-0.291389
-0.241325
-0.198663
-0.162714
-0.130721
-0.521737
-0.495695
-0.453744
-0.394921
-0.332262
-0.274575
-0.224616
-0.182438
-0.147063
-0.115103
-0.509426
-0.483165
-0.43864
-0.377434
-0.313678
-0.255885
-0.206364
-0.164956
-0.130418
-0.0989257
-0.493362
-0.466998
-0.42018
-0.357122
-0.292811
-0.235338
-0.186599
-0.146259
-0.112585
-0.0822495
-0.473475
-0.447137
-0.398367
-0.334032
-0.269711
-0.212985
-0.16541
-0.126372
-0.093717
-0.0648652
-0.449752
-0.423588
-0.373263
-0.308255
-0.244447
-0.188915
-0.142835
-0.105308
-0.0739286
-0.0467345
-0.422233
-0.396417
-0.344999
-0.279911
-0.217095
-0.1632
-0.118922
-0.0831472
-0.0532876
-0.0279096
-0.391016
-0.365755
-0.313768
-0.249094
-0.18776
-0.135924
-0.0937623
-0.0599792
-0.0318629
-0.00848753
-0.356259
-0.3318
-0.279689
-0.215805
-0.15668
-0.107225
-0.0674657
-0.0358989
-0.00973561
0.0114215
-0.318182
-0.29482
-0.242608
-0.180519
-0.123959
-0.0772447
-0.0401563
-0.011008
0.0130112
0.0317315
-0.277005
-0.255059
-0.202783
-0.143434
-0.0898038
-0.0461426
-0.0119702
0.0145874
0.0362918
0.0523525
-0.232925
-0.212337
-0.161231
-0.104724
-0.0544112
-0.0140879
0.0169574
0.0407874
0.0599656
0.0729524
-0.186267
-0.167301
-0.118115
-0.0646619
-0.0179878
0.0187485
0.0465096
0.0675064
0.083755
0.0927287
-0.137666
-0.120187
-0.0735567
-0.0235235
0.0192404
0.0521918
0.0765767
0.0946383
0.107325
0.111117
-0.0872865
-0.0715203
-0.0278246
0.0184156
0.0570343
0.086054
0.106998
0.121945
0.130569
0.129803
-0.0355426
-0.0217326
0.0187401
0.0608688
0.0951486
0.120126
0.137523
0.149034
0.153469
0.153535
0.0171205
0.0287739
0.065773
0.103539
0.133333
0.15418
0.167888
0.17578
0.176917
0.177363
0.0702567
0.0795926
0.112904
0.146122
0.17133
0.187988
0.19792
0.202245
0.200566
0.199911
0.123417
0.13031
0.159763
0.188308
0.208879
0.221319
0.227444
0.228304
0.223988
0.221494
0.176151
0.180511
0.205984
0.229792
0.245718
0.25395
0.256291
0.253779
0.24684
0.242099
0.22801
0.229782
0.251207
0.270269
0.28159
0.285664
0.284282
0.27849
0.268935
0.261756
0.278555
0.277717
0.295079
0.309442
0.316243
0.316248
0.311235
0.302261
0.290118
0.280423
0.327356
0.323921
0.337258
0.347022
0.349432
0.345495
0.336972
0.324932
0.310263
0.298042
0.373998
0.368012
0.377416
0.382732
0.380922
0.373204
0.361321
0.346352
0.329249
0.314538
0.418082
0.409628
0.41524
0.416306
0.410487
0.399185
0.384119
0.366382
0.346962
0.329837
0.459234
0.448423
0.450435
0.447497
0.437917
0.423256
0.405213
0.38489
0.363294
0.343864
0.497102
0.484078
0.482725
0.476069
0.463012
0.44525
0.424457
0.401753
0.378144
0.356547
0.531359
0.516297
0.511857
0.501809
0.485589
0.465008
0.44172
0.416857
0.391416
0.367819
0.561711
0.54481
0.537599
0.524521
0.505482
0.482391
0.456881
0.4301
0.403023
0.377622
0.587892
0.569377
0.559746
0.544029
0.522542
0.497271
0.469833
0.441388
0.412889
0.385901
0.609671
0.589789
0.578118
0.560183
0.536639
0.509537
0.480481
0.450641
0.420944
0.392613
0.626852
0.605867
0.592563
0.572852
0.547663
0.519097
0.488745
0.45779
0.427133
0.397718
0.639275
0.617467
0.602955
0.581931
0.555524
0.525872
0.49456
0.462779
0.431407
0.401188
0.646816
0.624478
0.609199
0.587339
0.560153
0.529805
0.497876
0.465564
0.433732
0.402999
0.589019
0.561503
0.530854
0.498658
0.466115
0.434082
0.403132
-0.179249
-0.187919
-0.195978
-0.203447
-0.210347
-0.2167
-0.222527
-0.227844
-0.163236
-0.171437
-0.179124
-0.186317
-0.193033
-0.199289
-0.2051
-0.210479
-0.148361
-0.15606
-0.163337
-0.170213
-0.176706
-0.182834
-0.188615
-0.194067
-0.134572
-0.141808
-0.148708
-0.155289
-0.16157
-0.167567
-0.173301
-0.178792
-0.121859
-0.128656
-0.135185
-0.141462
-0.1475
-0.153315
-0.158922
-0.164337
-0.110129
-0.116496
-0.122649
-0.128598
-0.134354
-0.139929
-0.145332
-0.150573
-0.0992866
-0.105233
-0.111006
-0.116613
-0.122064
-0.127368
-0.132531
-0.137564
-0.0892442
-0.0947863
-0.100187
-0.105454
-0.110595
-0.115618
-0.120531
-0.125343
-0.0799421
-0.0850993
-0.0901398
-0.0950726
-0.0999044
-0.104642
-0.109292
-0.113864
-0.0713373
-0.0761249
-0.0808163
-0.0854209
-0.089944
-0.0943909
-0.0987668
-0.103078
-0.0633827
-0.0678149
-0.0721691
-0.0764527
-0.0806703
-0.0848259
-0.0889242
-0.0929705
-0.0560101
-0.0601074
-0.0641414
-0.0681174
-0.0720391
-0.0759101
-0.0797347
-0.0835175
-0.0491855
-0.0529671
-0.0566973
-0.0603791
-0.0640157
-0.0676102
-0.0711662
-0.0746873
-0.0428603
-0.0463476
-0.0497916
-0.0531944
-0.0565588
-0.0598875
-0.0631834
-0.0664493
-0.0370044
-0.0402197
-0.0433949
-0.046534
-0.04964
-0.0527151
-0.0557615
-0.0587813
-0.0315949
-0.0345532
-0.0374762
-0.0403675
-0.0432296
-0.0460642
-0.0488728
-0.0516572
-0.0544193
-0.0266035
-0.0293208
-0.0320081
-0.0346675
-0.0373006
-0.0399086
-0.0424925
-0.0450537
-0.0475936
-0.0219976
-0.0244937
-0.0269634
-0.0294078
-0.0318279
-0.0342244
-0.036598
-0.0389497
-0.0412804
-0.0177599
-0.020053
-0.0223222
-0.024568
-0.0267908
-0.0289911
-0.0311691
-0.0333256
-0.0354611
-0.0138731
-0.0159808
-0.0180662
-0.0201297
-0.0221713
-0.0241909
-0.0261887
-0.0281649
-0.0301199
-0.0103232
-0.0122627
-0.0141811
-0.0160785
-0.0179546
-0.0198091
-0.0216418
-0.0234528
-0.0252423
-0.00709518
-0.00888355
-0.0106523
-0.0124004
-0.0141272
-0.0158324
-0.0175159
-0.0191774
-0.0208169
-0.00419636
-0.00584955
-0.00748272
-0.00909523
-0.0106869
-0.0122573
-0.0138061
-0.0153329
-0.0168372
-0.00160994
-0.00314305
-0.0046567
-0.00615017
-0.00762301
-0.00907469
-0.0105046
-0.0119122
-0.0132971
0.000657479
-0.000770592
-0.00217978
-0.00356923
-0.00493822
-0.00628609
-0.00761215
-0.0089158
-0.0101965
0.00260218
0.00126346
-5.66604e-05
-0.00135728
-0.00263762
-0.0038969
-0.00513442
-0.0063495
-0.00754153
0.00421396
0.00294956
0.00170351
0.000476716
-0.000729995
-0.00191584
-0.00308006
-0.00422195
-0.00534087
0.00546888
0.00426317
0.00307562
0.00190715
0.000758575
-0.000369319
-0.00147579
-0.00256012
-0.00362167
0.00635749
0.00519441
0.00404915
0.00292253
0.00181536
0.000728431
-0.000337521
-0.00138179
-0.00240372
0.00680464
0.00566965
0.00455245
0.00345382
0.00237439
0.0013148
0.000275649
-0.000742458
-0.00173896
0.122439
0.103658
0.085944
0.0684806
0.0501677
0.0316787
0.0135883
-0.00406408
-0.021297
-0.0380386
-0.0542144
-0.0697922
-0.0847583
-0.0991045
-0.112865
-0.125973
-0.138126
-0.149419
-0.160006
-0.169948
0.114354
0.0959017
0.0774243
0.0609622
0.0443498
0.0274227
0.0109098
-0.0050314
-0.0205189
-0.0355634
-0.05011
-0.0641303
-0.0775894
-0.0904015
-0.102297
-0.113953
-0.125046
-0.135452
-0.145251
-0.154509
0.105212
0.0876788
0.069423
0.0540231
0.039275
0.0241508
0.00924293
-0.0050866
-0.0189346
-0.0323823
-0.0453903
-0.0579025
-0.0698723
-0.0812611
-0.0920766
-0.102799
-0.113002
-0.12259
-0.131641
-0.140224
0.095542
0.0793297
0.0621091
0.0479041
0.0348543
0.0214766
0.00809809
-0.00478845
-0.0171805
-0.0291962
-0.0408397
-0.0520624
-0.0628324
-0.073138
-0.0829863
-0.0925853
-0.101852
-0.110663
-0.119023
-0.126983
0.0862274
0.0715708
0.0557672
0.0427822
0.0311848
0.0193722
0.00741636
-0.00416961
-0.0152796
-0.0260274
-0.0364606
-0.0465521
-0.0562805
-0.0656415
-0.0746278
-0.0831337
-0.0915242
-0.0996398
-0.107385
-0.114778
0.0777077
0.0645989
0.0503325
0.038537
0.0281763
0.0177301
0.00708142
-0.00331453
-0.0132825
-0.0229048
-0.0322527
-0.0413194
-0.0500798
-0.0585192
-0.0666296
-0.0744052
-0.0820784
-0.0895296
-0.0966778
-0.103532
0.0700895
0.0584025
0.0456744
0.0350358
0.0257535
0.0164933
0.00702858
-0.00227702
-0.0112207
-0.0198451
-0.0282252
-0.0363721
-0.0442671
-0.0518992
-0.0592757
-0.0664046
-0.0734397
-0.080261
-0.0868254
-0.0931569
0.0633627
0.0529521
0.0416958
0.032172
0.0238502
0.015618
0.0072093
-0.00110556
-0.00912907
-0.0168708
-0.0243969
-0.0317282
-0.0388498
-0.0457406
-0.0523956
-0.0588454
-0.0653773
-0.0716656
-0.077705
-0.0835541
0.0574907
0.0482258
0.0383335
0.0298603
0.0224027
0.0150643
0.0075868
0.00016305
-0.00703389
-0.0139929
-0.0207668
-0.0273851
-0.033848
-0.0401561
-0.0463137
-0.0523102
-0.0579801
-0.0636376
-0.0692175
-0.0746538
0.0524253
0.0441908
0.0355333
0.0280268
0.0213477
0.0147903
0.00812954
0.00150069
-0.00495456
-0.0112148
-0.0173184
-0.023292
-0.0291372
-0.0348462
-0.0404097
-0.0458182
-0.0510648
-0.056273
-0.0614132
-0.0664381
0.0481065
0.0407974
0.0332388
0.0266048
0.0206249
0.0147538
0.00880897
0.00288555
-0.0029055
-0.00854009
-0.0140439
-0.0194387
-0.0247279
-0.0299066
-0.0349704
-0.0399189
-0.0447474
-0.0495277
-0.0542408
-0.058861
0.0444656
0.0379843
0.0313917
0.0255344
0.0201804
0.014915
0.00959874
0.00429931
-0.000899057
-0.00597405
-0.0109423
-0.0158208
-0.0206137
-0.0253182
-0.0299314
-0.034453
-0.0388833
-0.0432708
-0.047595
-0.0518416
0.0414314
0.0356868
0.0299354
0.0247631
0.0199674
0.0152383
0.0104747
0.00572617
0.00105501
-0.0035202
-0.00800994
-0.0124264
-0.0167733
-0.021049
-0.0252517
-0.0293827
-0.0334455
-0.0374766
-0.0414465
-0.0453475
0.0389343
0.0338422
0.0288174
0.0242449
0.0199459
0.0156924
0.0114155
0.00715268
0.00294923
-0.00118065
-0.00524341
-0.00924729
-0.0131945
-0.0170831
-0.0209094
-0.0246727
-0.0283787
-0.0320929
-0.035742
-0.039327
0.0369078
0.0323913
0.0279907
0.0239402
0.020082
0.0162507
0.012403
0.0085684
0.00477927
0.00104568
-0.00263668
-0.00627364
-0.00986767
-0.0134189
-0.0169281
-0.0203946
-0.023813
-0.0271343
-0.0304491
-0.0337458
0.0352901
0.0312797
0.027413
0.023815
0.0203469
0.0168907
0.0134221
0.00996553
0.00654385
0.00316389
-0.000177057
-0.0034824
-0.00675304
-0.00998791
-0.0131854
-0.0163429
-0.0194571
-0.0225222
-0.025571
-0.0285993
0.0340248
0.0304579
0.0270466
0.0238395
0.0207159
0.0175927
0.0144594
0.0113367
0.00824082
0.00517617
0.0021411
-0.000866134
-0.00384552
-0.00679589
-0.00971598
-0.0126044
-0.0154599
-0.0182788
-0.021078
-0.023855
0.0330607
0.0298811
0.0268574
0.0239874
0.0211671
0.018339
0.0155022
0.0126741
0.00986662
0.00708234
0.00432023
0.00157961
-0.00113891
-0.00383408
-0.00650469
-0.00914948
-0.0117673
-0.0143563
-0.0169262
-0.0194746
0.0323513
0.0295092
0.0268147
0.0242347
0.0216806
0.0191136
0.0165384
0.0139701
0.0114175
0.00888191
0.00636288
0.0038604
0.00137545
-0.00109058
-0.00353643
-0.0059609
-0.00836297
-0.0107415
-0.0131022
-0.0154426
0.031855
0.029306
0.0268906
0.0245594
0.0222383
0.0199014
0.0175566
0.0152171
0.0128891
0.0105738
0.00827076
0.0059805
0.00370426
0.0014435
-0.000800494
-0.00302653
-0.00523358
-0.00742065
-0.00959152
-0.0117431
0.0315344
0.0292387
0.0270594
0.0249411
0.022823
0.0206882
0.0185457
0.0164069
0.0142766
0.0121557
0.010044
0.00794232
0.00585217
0.00377503
0.00171219
-0.000335232
-0.00236645
-0.00438088
-0.00638115
-0.00836258
0.0313553
0.0292776
0.0272974
0.0253607
0.0234185
0.02146
0.0194941
0.0175306
0.0155734
0.013623
0.0116797
0.00974469
0.0078195
0.00590594
0.00400573
0.00212072
0.000252109
-0.00159985
-0.00345568
-0.005287
0.0312874
0.0293957
0.0275826
0.0257999
0.024009
0.0222031
0.0203905
0.0185789
0.0167717
0.0149695
0.0131727
0.0113822
0.00959955
0.00782594
0.00606255
0.00431019
0.00257034
0.000845393
-0.000844051
-0.00252579
0.0313029
0.0295686
0.0278947
0.0262415
0.0245798
0.0229049
0.0212241
0.0195436
0.0178663
0.0161929
0.014524
0.0128609
0.0112049
0.00955768
0.00792063
0.00629521
0.00468306
0.00308595
0.00150669
-5.90687e-05
0.0313766
0.0297734
0.0282139
0.0266684
0.0251152
0.0235513
0.0219823
0.0204133
0.0188467
0.0172835
0.0157244
0.0141706
0.0126236
0.0110849
0.00955593
0.00803793
0.00653233
0.00504053
0.00356452
0.00210311
0.031485
0.0299885
0.0285211
0.027063
0.0255991
0.024127
0.0226509
0.0211746
0.0197004
0.0182294
0.0167623
0.0153006
0.0138455
0.0123984
0.0109607
0.00953366
0.00811867
0.00671702
0.00533027
0.00395827
0.0316066
0.0301934
0.0287973
0.0274077
0.0260144
0.0246156
0.0232139
0.0218123
0.0204128
0.0190166
0.0176246
0.0162381
0.0148583
0.0134866
0.0121242
0.0107725
0.00943256
0.00810573
0.00679326
0.00549563
0.0317212
0.0303685
0.029024
0.0276843
0.0263434
0.0249993
0.0236536
0.0223086
0.0209659
0.0196268
0.0182925
0.016964
0.0156425
0.0143293
0.0130256
0.0117327
0.0104517
0.00918378
0.00793028
0.00669166
0.0318109
0.0304952
0.0291823
0.0278744
0.0265678
0.0252606
0.0239533
0.0226474
0.0213448
0.0200464
0.0187535
0.0174669
0.016188
0.0149176
0.013657
0.0124073
0.0111695
0.00994462
0.00873363
0.00753754
0.031863
0.0305598
0.0292556
0.0279561
0.0266598
0.0253651
0.0240721
0.0227821
0.0214965
0.0202167
0.0189437
0.0176785
0.016422
0.0151754
0.0139395
0.0127155
0.0115042
0.0103068
0.00912404
0.00795646
0.131342
0.134244
0.137958
0.144711
0.151649
0.161126
0.170101
0.180843
0.189656
0.198827
0.203248
0.205902
0.198776
0.186837
0.153805
0.130932
0.133728
0.137275
0.143694
0.150227
0.159047
0.167215
0.176784
0.184186
0.191426
0.193731
0.193451
0.183858
0.16788
0.138522
0.130458
0.133132
0.136483
0.142526
0.148595
0.156694
0.16398
0.172313
0.178272
0.183621
0.184
0.181263
0.170225
0.152853
0.127118
0.129914
0.132451
0.13559
0.141221
0.146799
0.154123
0.160501
0.167547
0.172096
0.17557
0.17425
0.169379
0.157521
0.139579
0.115749
0.129297
0.13168
0.134597
0.139782
0.144851
0.151359
0.156825
0.162558
0.165765
0.167429
0.16464
0.157972
0.145552
0.127358
0.104667
0.128601
0.130814
0.1335
0.138207
0.14275
0.148404
0.152963
0.157376
0.159318
0.159288
0.155233
0.147125
0.134281
0.116166
0.0945334
0.127822
0.129847
0.132294
0.136491
0.140496
0.145267
0.148928
0.152037
0.152791
0.151221
0.146076
0.136877
0.123755
0.106033
0.0855432
0.126956
0.128776
0.130976
0.134635
0.13809
0.141959
0.144737
0.146583
0.146229
0.143301
0.137223
0.127257
0.114022
0.0969178
0.0776283
0.125999
0.127597
0.129542
0.132642
0.135538
0.138501
0.140412
0.141062
0.13968
0.135592
0.128732
0.118283
0.105101
0.0887455
0.0706744
0.124948
0.126307
0.127992
0.130516
0.132846
0.134914
0.13598
0.135523
0.133194
0.128147
0.120655
0.109959
0.0969803
0.0814463
0.0645907
0.123801
0.124906
0.126325
0.128266
0.130024
0.131224
0.131469
0.130011
0.126822
0.121011
0.113035
0.102279
0.0896328
0.0749609
0.059303
0.122556
0.123396
0.124541
0.125903
0.127082
0.127458
0.126911
0.124568
0.120614
0.114214
0.105903
0.0952337
0.0830235
0.0692343
0.0547414
0.121213
0.121782
0.122642
0.123439
0.124038
0.123643
0.122342
0.119233
0.114616
0.107783
0.0992764
0.0888078
0.0771119
0.0642101
0.0508374
0.119771
0.12007
0.120635
0.12089
0.120909
0.119808
0.117801
0.114039
0.108869
0.101739
0.0931618
0.0829827
0.0718541
0.0598301
0.047524
0.118235
0.118268
0.118526
0.118272
0.117719
0.115979
0.113324
0.109018
0.103407
0.0960951
0.0875569
0.0777345
0.0672044
0.0560361
0.0447368
0.116607
0.116389
0.116328
0.115601
0.114495
0.112184
0.10895
0.1042
0.0982553
0.0908619
0.0824514
0.0730346
0.0631164
0.0527713
0.042415
0.114897
0.114444
0.114058
0.112895
0.111264
0.108449
0.104713
0.0996091
0.0934335
0.0860427
0.0778299
0.0688509
0.0595437
0.0499817
0.0405021
0.113113
0.112449
0.111735
0.110175
0.108058
0.104804
0.100644
0.0952701
0.0889532
0.0816353
0.0736727
0.0651491
0.0564408
0.0476158
0.0389459
0.11127
0.11042
0.109383
0.107463
0.104907
0.101274
0.0967707
0.0912019
0.0848212
0.0776328
0.0699574
0.0618942
0.0537635
0.0456259
0.0376985
0.109386
0.108375
0.107028
0.104783
0.101841
0.0978891
0.0931162
0.08742
0.08104
0.0740241
0.0666594
0.0590509
0.0514695
0.0439673
0.0367164
0.107483
0.106336
0.1047
0.102163
0.0988882
0.094675
0.0897011
0.0839363
0.0776085
0.0707956
0.0637527
0.0565848
0.0495188
0.0425988
0.0359599
0.105587
0.104325
0.102429
0.0996327
0.0960793
0.0916579
0.0865431
0.0807592
0.0745229
0.0679319
0.0612116
0.0544628
0.0478742
0.0414824
0.035393
0.103728
0.102371
0.100247
0.0972253
0.0934431
0.0888625
0.0836581
0.0778946
0.0717777
0.0654169
0.0590107
0.0526534
0.046501
0.0405838
0.0349828
0.10194
0.100506
0.0981884
0.0949744
0.0910094
0.0863127
0.0810606
0.0753471
0.0693668
0.0632349
0.0571264
0.0511279
0.045368
0.0398714
0.0346999
0.100262
0.0987641
0.0962882
0.0929157
0.0888088
0.0840325
0.078765
0.0731211
0.0672843
0.0613714
0.0555371
0.0498603
0.044447
0.0393171
0.0345174
0.0987351
0.0971865
0.094585
0.0910866
0.0868731
0.0820465
0.0767866
0.0712222
0.0655263
0.0598147
0.0542246
0.0488284
0.0437132
0.0388958
0.0344108
0.0974056
0.0958175
0.0931205
0.0895263
0.0852365
0.0803817
0.0751432
0.0696587
0.064092
0.0585564
0.0531749
0.0480138
0.043146
0.0385856
0.0343583
0.0963236
0.0947061
0.0919402
0.0882777
0.0839363
0.0790688
0.0738571
0.0684442
0.0629864
0.0575942
0.0523793
0.0474037
0.0427293
0.0383684
0.0343403
0.0955433
0.0939059
0.0910945
0.0873876
0.0830149
0.0781439
0.0729566
0.0675992
0.062222
0.0569331
0.0518367
0.0469916
0.0424526
0.038231
0.034341
0.0951228
0.0934754
0.0906399
0.0869106
0.0825224
0.0776516
0.0724796
0.0671539
0.0618211
0.0565883
0.0515551
0.0467793
0.0423117
0.038164
0.034348
0.131743
0.135005
0.138751
0.14654
0.154289
0.165993
0.178067
0.193994
0.210865
0.231525
0.253658
0.279561
0.307122
0.338228
0.370405
0.131969
0.135239
0.139004
0.146817
0.154595
0.166328
0.178437
0.19438
0.211291
0.232006
0.254252
0.280108
0.307589
0.338591
0.370565
0.132168
0.135443
0.139226
0.147053
0.154855
0.166605
0.178715
0.194682
0.211658
0.232277
0.254393
0.280119
0.307346
0.338007
0.369434
0.13234
0.135617
0.139416
0.14725
0.15507
0.166828
0.178917
0.194944
0.211783
0.232323
0.254221
0.27968
0.306448
0.336534
0.367057
0.132486
0.135761
0.139575
0.147409
0.15524
0.16699
0.17916
0.195034
0.211753
0.232144
0.253724
0.27879
0.304903
0.33418
0.363446
0.132606
0.135875
0.139703
0.147529
0.155365
0.167064
0.179221
0.195015
0.211565
0.23174
0.252901
0.277453
0.302713
0.330954
0.35861
0.1327
0.135959
0.1398
0.147612
0.155453
0.167017
0.179195
0.194886
0.211218
0.231116
0.251758
0.275675
0.299889
0.326868
0.352567
0.132767
0.136014
0.139867
0.147658
0.155502
0.167272
0.179088
0.194646
0.210715
0.230276
0.2503
0.273465
0.296441
0.32194
0.34534
0.132808
0.136041
0.139903
0.147669
0.15547
0.167149
0.178903
0.194299
0.210061
0.229223
0.248533
0.270833
0.292381
0.316188
0.336954
0.132824
0.136039
0.139909
0.147648
0.155407
0.167002
0.178645
0.193846
0.209257
0.227963
0.246466
0.267788
0.287721
0.309634
0.327443
0.132814
0.13601
0.139886
0.147591
0.155393
0.166802
0.178313
0.193288
0.20831
0.226498
0.244106
0.26434
0.282477
0.302303
0.316841
0.132779
0.135954
0.139834
0.147496
0.155259
0.166547
0.177909
0.192629
0.207223
0.224834
0.241462
0.260499
0.276664
0.294222
0.30519
0.132719
0.135871
0.139752
0.147358
0.155084
0.16624
0.177434
0.191871
0.206002
0.222976
0.238544
0.256278
0.270299
0.285421
0.292533
0.132635
0.135764
0.139645
0.147144
0.154861
0.165881
0.176892
0.191018
0.20465
0.220928
0.235363
0.251685
0.263403
0.275932
0.278915
0.132527
0.135632
0.139508
0.146986
0.154591
0.165471
0.176284
0.190072
0.203174
0.218697
0.23193
0.24673
0.255999
0.265788
0.264378
0.132395
0.135478
0.13932
0.146734
0.154285
0.165013
0.175612
0.189035
0.201576
0.216286
0.228254
0.241423
0.248112
0.255019
0.248959
0.13224
0.135303
0.139231
0.146464
0.153944
0.164506
0.174873
0.187908
0.199855
0.213696
0.224343
0.23577
0.239773
0.243658
0.232685
0.132063
0.135101
0.13899
0.14617
0.153576
0.163964
0.17409
0.186714
0.19804
0.210961
0.220231
0.229804
0.231033
0.231737
0.21558
0.131864
0.134883
0.13875
0.145867
0.1532
0.163422
0.173304
0.185516
0.196195
0.208155
0.215973
0.223566
0.221897
0.21921
0.197514
0.131645
0.134636
0.138461
0.145479
0.152703
0.162708
0.172291
0.184014
0.193973
0.204868
0.211161
0.216626
0.212123
0.205852
0.178063
)
;

boundaryField
{
    inlet
    {
        type            zeroGradient;
    }
    outlet
    {
        type            fixedValue;
        value           nonuniform 0();
    }
    cylinder
    {
        type            zeroGradient;
    }
    top
    {
        type            symmetryPlane;
    }
    bottom
    {
        type            symmetryPlane;
    }
    defaultFaces
    {
        type            empty;
    }
    procBoundary2to0
    {
        type            processor;
        value           nonuniform List<scalar> 
26
(
0.649391
0.626821
0.61123
0.61123
0.586943
0.559546
0.528998
0.496889
0.464418
0.432443
0.401581
0.131492
0.134741
0.138466
0.146222
0.153932
0.165589
0.1776
0.193464
0.210256
0.230841
0.252881
0.278664
0.306081
0.337055
0.369057
)
;
    }
    procBoundary2to3
    {
        type            processor;
        value           nonuniform List<scalar> 
50
(
-0.355717
-0.358388
-0.358388
-0.35881
-0.363717
-0.363717
-0.36184
-0.36184
-0.357548
-0.357548
-0.345783
-0.332348
-0.332348
-0.311377
-0.311377
-0.283896
-0.283896
-0.258589
-0.232665
-0.232665
-0.215438
-0.199214
-0.184064
-0.169571
-0.155655
-0.14247
-0.130063
-0.118361
-0.107328
-0.09697
-0.087263
-0.0781771
-0.0696884
-0.0617772
-0.0617772
-0.0571614
-0.050114
-0.0435915
-0.0375765
-0.0320541
-0.0270103
-0.0224342
-0.0183189
-0.0146588
-0.0114538
-0.00870997
-0.00643624
-0.00465982
-0.0034027
-0.00271332
)
;
    }
}


// ************************************************************************* //
