/*--------------------------------*- C++ -*----------------------------------*\
  =========                 |
  \\      /  F ield         | OpenFOAM: The Open Source CFD Toolbox
   \\    /   O peration     | Website:  https://openfoam.org
    \\  /    A nd           | Version:  7
     \\/     M anipulation  |
\*---------------------------------------------------------------------------*/
FoamFile
{
    version     2.0;
    format      ascii;
    class       volVectorField;
    location    "25";
    object      U;
}
// * * * * * * * * * * * * * * * * * * * * * * * * * * * * * * * * * * * * * //

dimensions      [0 1 -1 0 0 0 0];

internalField   nonuniform List<vector> 
2125
(
(1.09282 -0.0943195 -7.4031e-21)
(0.957781 -0.0568046 -2.03942e-20)
(1.05674 -0.073274 -3.69946e-21)
(0.798989 -0.0180426 1.35486e-20)
(0.914317 -0.0391211 -1.5905e-21)
(1.01733 -0.0535825 1.7844e-20)
(0.511859 0.0273329 3.47379e-20)
(0.631717 0.0128693 -7.53349e-20)
(0.751852 -0.00452362 1.59056e-20)
(0.868483 -0.0234653 -1.27347e-20)
(0.974853 -0.0356031 -1.89712e-20)
(0.359363 0.0405464 6.86629e-21)
(0.469652 0.0331347 -5.88612e-20)
(0.585444 0.021447 4.11702e-20)
(0.703542 0.00666248 -3.30174e-20)
(0.820632 -0.0100627 3.41185e-20)
(0.929603 -0.0197155 -1.3623e-21)
(0.228949 0.0420944 -9.49458e-23)
(0.323889 0.0418899 2.33564e-20)
(0.428109 0.0368895 1.37964e-21)
(0.539191 0.0277703 -3.287e-20)
(0.654433 0.0154599 -7.6978e-22)
(0.771113 0.00089666 -1.48623e-20)
(0.881915 -0.00631794 1.83922e-20)
(0.125818 0.034415 4.18743e-21)
(0.201897 0.0402035 1.21412e-20)
(0.289715 0.0416404 -2.09545e-20)
(0.387519 0.0387519 5.01853e-20)
(0.493293 0.0319436 -1.3408e-22)
(0.604871 0.0218814 -4.17981e-21)
(0.720236 0.00927832 -2.84289e-20)
(0.832111 0.00417849 -4.45836e-21)
(0.107641 0.0308666 3.13017e-21)
(0.176375 0.0372472 -8.62176e-21)
(0.257036 0.0400026 -1.02959e-20)
(0.348141 0.038923 -6.78487e-21)
(0.448053 0.0341392 -4.87843e-21)
(0.555153 0.0260294 6.53636e-21)
(0.668237 0.0150381 2.71478e-20)
(0.780453 0.011367 2.11944e-20)
(0.042378 0.0177362 1.71192e-20)
(0.0908661 0.0267448 -4.07417e-20)
(0.152489 0.0334265 2.35125e-20)
(0.226019 0.0372051 2.06065e-20)
(0.310205 0.037648 -5.36262e-20)
(0.403741 0.0346035 1.49411e-20)
(0.505525 0.02812 -7.03588e-22)
(0.61522 0.0182723 1.1231e-20)
(0.727052 0.0148857 -2.32618e-20)
(0.0067892 0.00370147 4.55432e-20)
(0.0335255 0.0140339 -1.34444e-20)
(0.0755277 0.0222118 1.96903e-20)
(0.130319 0.0289484 1.26329e-20)
(0.196809 0.0334931 -7.45922e-21)
(0.273924 0.0352093 1.7382e-20)
(0.360614 0.0336604 -7.0799e-21)
(0.456183 0.0285148 4.15188e-20)
(0.561063 0.0192732 -6.82117e-20)
(0.671631 0.014386 -2.42852e-20)
(0.00428853 0.00209587 -1.32914e-20)
(0.0256638 0.0102386 5.25973e-20)
(0.0616427 0.0174261 -4.27722e-20)
(0.109925 0.0240181 -1.45582e-21)
(0.16953 0.0291167 -2.07746e-20)
(0.239509 0.0319131 2.30611e-20)
(0.318956 0.0317105 2.51445e-20)
(0.407343 0.0277872 -1.26355e-20)
(0.505405 0.0187354 1.16487e-20)
(0.612854 0.00950032 1.46109e-20)
(0.00215832 0.00052283 2.45952e-21)
(0.0187761 0.00644853 -1.45766e-20)
(0.0492107 0.012537 1.82454e-20)
(0.0913479 0.0188296 -1.77124e-20)
(0.144297 0.0243144 -2.17442e-20)
(0.207185 0.0280599 -9.75481e-21)
(0.279146 0.0291924 -3.75408e-20)
(0.359468 0.02678 2.34121e-20)
(0.448212 0.018557 4.36825e-20)
(0.54823 0.00252384 -1.19818e-20)
(0.000383258 -0.000983951 7.9357e-21)
(0.0128342 0.00275372 6.42226e-21)
(0.0382134 0.00768044 -1.62364e-21)
(0.0746056 0.013557 -3.0112e-20)
(0.121203 0.0192919 3.19546e-20)
(0.177187 0.0238883 3.62125e-20)
(0.241691 0.0264201 1.26872e-20)
(0.313607 0.026138 -2.44859e-21)
(0.391477 0.0215666 -4.43595e-20)
(0.477769 0.00563479 1.51601e-20)
(-0.00105617 -0.00239484 -2.41524e-20)
(0.00779851 -0.000766246 -3.54451e-21)
(0.0286133 0.00297594 7.2339e-21)
(0.0596884 0.00834927 2.38967e-21)
(0.100302 0.0142099 9.36223e-21)
(0.149707 0.0195352 -5.77121e-20)
(0.207091 0.0234059 3.48841e-20)
(0.271281 0.0252329 -4.1609e-20)
(0.340824 0.0243101 3.08704e-20)
(0.421543 0.0119397 3.46442e-20)
(-0.00218337 -0.00368473 1.06024e-20)
(0.00361803 -0.00404286 -7.34201e-21)
(0.020353 -0.0014738 3.41787e-21)
(0.0465531 0.00333169 -1.57326e-20)
(0.0815931 0.00919529 2.00186e-21)
(0.124817 0.0150813 -4.07661e-21)
(0.175526 0.0200743 -2.17281e-20)
(0.23268 0.0235799 1.1729e-20)
(0.295097 0.0250247 2.17476e-20)
(0.369571 0.0155064 -3.22502e-20)
(-0.003025 -0.00483307 -1.39739e-20)
(0.000232 -0.00701858 -2.22055e-20)
(0.0133564 -0.00558151 1.81344e-20)
(0.0351243 -0.00138841 1.8264e-20)
(0.0650165 0.00435878 -4.53833e-20)
(0.102481 0.0106098 4.5728e-20)
(0.146947 0.0164297 -5.16181e-20)
(0.197531 0.0211134 1.44042e-20)
(0.253217 0.0238458 -1.56299e-20)
(0.320552 0.0161233 -2.36221e-20)
(-0.00361012 -0.00582371 7.30657e-21)
(-0.00242827 -0.00964626 1.77378e-20)
(0.0075319 -0.00927376 4.37105e-21)
(0.0253001 -0.00571787 5.17235e-21)
(0.050469 -0.000196096 1.06267e-22)
(0.0825961 0.00622351 7.84147e-21)
(0.12123 0.0125695 1.59482e-20)
(0.165628 0.0180017 2.9769e-20)
(0.214894 0.0214271 -2.9837e-20)
(0.274939 0.0151292 1.02583e-20)
(-0.00396923 -0.00664444 -1.67845e-20)
(-0.00443698 -0.0118885 1.81791e-22)
(0.00277646 -0.0124899 5.83769e-21)
(0.0169589 -0.00957591 -1.12392e-20)
(0.0378178 -0.00437167 2.27585e-20)
(0.0650195 0.00203777 -5.43968e-20)
(0.0982216 0.00864145 2.95285e-20)
(0.136798 0.0144823 -2.73367e-20)
(0.179961 0.0182804 5.2917e-20)
(0.232845 0.0133203 1.36606e-20)
(-0.00413334 -0.0072866 9.15677e-21)
(-0.0058715 -0.0137169 -1.93653e-20)
(-0.00102026 -0.0151812 -6.23274e-21)
(0.00996671 -0.012894 9.09436e-21)
(0.0269116 -0.00807841 1.57336e-20)
(0.0495859 -0.00183052 2.75221e-21)
(0.0777436 0.00480792 -9.90845e-21)
(0.110857 0.0107983 2.29779e-20)
(0.148234 0.0147775 -1.29864e-20)
(0.194213 0.0110903 -1.25089e-21)
(-0.00413325 -0.00774468 2.3682e-20)
(-0.00681021 -0.0151114 7.16299e-21)
(-0.00397203 -0.017311 1.35769e-21)
(0.0041829 -0.0156165 -1.99065e-20)
(0.0175894 -0.0112381 1.82484e-20)
(0.0361187 -0.00527224 6.24949e-21)
(0.0596094 0.00122501 3.12742e-21)
(0.0876191 0.00717444 -7.20221e-21)
(0.119538 0.0112149 7.92408e-21)
(0.158966 0.00870324 1.36808e-20)
(-0.00399903 -0.00801603 -1.73785e-20)
(-0.00733069 -0.0160602 1.03574e-20)
(-0.00619273 -0.0188542 -1.24955e-21)
(-0.000534388 -0.0177017 2.84363e-20)
(0.00968798 -0.0137872 -3.20832e-20)
(0.0244392 -0.00819336 1.08134e-20)
(0.0436331 -0.00197054 -6.91835e-21)
(0.066903 0.00380052 -6.13916e-21)
(0.0937162 0.00782297 -1.87982e-20)
(0.127012 0.0063571 7.3393e-21)
(-0.00375954 -0.00810054 7.49124e-21)
(-0.00750841 -0.0165594 -2.04443e-20)
(-0.00779365 -0.0197977 -1.20128e-20)
(-0.00432416 -0.0191226 -1.94138e-20)
(0.00304746 -0.015679 5.3795e-21)
(0.0143735 -0.0105202 -1.88728e-21)
(0.0296356 -0.00466962 -1.74956e-20)
(0.0485372 0.000823542 -3.715e-21)
(0.0706176 0.00476665 -3.46394e-22)
(0.0982438 0.00419128 8.39371e-21)
(-0.00344248 -0.00800075 1.30023e-20)
(-0.00741561 -0.0166125 1.47533e-21)
(-0.00888132 -0.0201402 6.37496e-21)
(-0.00731942 -0.0198679 2.90984e-20)
(-0.00248445 -0.0168863 2.97545e-20)
(0.005757 -0.0122029 -5.4511e-21)
(0.0174486 -0.00679454 1.40497e-20)
(0.0323607 -0.00165329 -8.96911e-21)
(0.0500984 0.00215512 -5.38322e-21)
(0.072541 0.00229752 -1.25506e-20)
(-0.00307395 -0.00772203 -1.66027e-20)
(-0.00712033 -0.0162309 1.52522e-20)
(-0.00955597 -0.0198928 8.08249e-21)
(-0.00964476 -0.0199423 -1.64849e-20)
(-0.00704974 -0.0174015 -1.91981e-20)
(-0.00156268 -0.0132161 6.26492e-21)
(0.00691714 -0.00829959 5.4607e-22)
(0.0182248 -0.00356773 2.83794e-20)
(0.0320233 5.14138e-05 1.72774e-20)
(0.0497828 0.000730775 -6.94045e-21)
(-0.00267828 -0.00727238 9.02382e-21)
(-0.00668594 -0.0154336 -4.40587e-21)
(-0.00991034 -0.0190783 -1.64707e-20)
(-0.0114148 -0.0193661 7.23673e-21)
(-0.0107781 -0.0172366 -2.46393e-22)
(-0.00772379 -0.0135594 -2.56557e-20)
(-0.00209865 -0.00916904 -1.54649e-21)
(0.00599496 -0.00489294 -2.61265e-20)
(0.0162664 -0.00152165 -1.18771e-20)
(0.0298553 -0.000484466 1.99808e-20)
(-0.00227805 -0.00666266 -1.09458e-20)
(-0.00617055 -0.0142471 -1.03179e-21)
(-0.0100287 -0.0177309 -7.67517e-22)
(-0.0127329 -0.018175 -1.54908e-20)
(-0.0137857 -0.016423 2.45032e-21)
(-0.0128492 -0.0132549 1.57068e-20)
(-0.00972238 -0.00941417 -8.39564e-21)
(-0.00444884 -0.00562859 1.40375e-20)
(0.00271211 -0.0025753 6.48115e-21)
(0.0126632 -0.00133228 -7.16663e-21)
(-0.0018938 -0.00590665 6.90453e-21)
(-0.00562646 -0.0127054 1.46145e-20)
(-0.00998627 -0.0158963 -3.43093e-21)
(-0.0136905 -0.016419 7.46016e-21)
(-0.0161744 -0.0150093 5.17127e-21)
(-0.0170457 -0.0123464 -1.31e-20)
(-0.0160599 -0.00907277 3.37283e-21)
(-0.0132159 -0.00580866 -3.69821e-21)
(-0.00873011 -0.00312132 4.76368e-21)
(-0.00187345 -0.00175544 -9.70013e-21)
(-0.00154383 -0.00502094 -2.19062e-21)
(-0.00509974 -0.0108496 -9.47299e-21)
(-0.00984849 -0.0136302 1.39324e-20)
(-0.0143666 -0.0141613 -7.36715e-21)
(-0.0180318 -0.0130603 3.5784e-21)
(-0.020405 -0.0108957 1.10668e-20)
(-0.0212047 -0.00820253 -9.71057e-21)
(-0.020388 -0.00549197 -2.41812e-21)
(-0.0181078 -0.00321278 2.92952e-22)
(-0.0139251 -0.00185269 1.1502e-20)
(-0.00124396 -0.00402484 -6.70649e-22)
(-0.00462969 -0.00872693 -2.85522e-21)
(-0.00967071 -0.0109974 -1.23224e-20)
(-0.0148276 -0.0114766 2.52473e-21)
(-0.0194308 -0.0106541 2.17195e-21)
(-0.0230029 -0.00898039 -9.08535e-22)
(-0.0252321 -0.00687703 -2.5633e-22)
(-0.0260394 -0.00474377 -3.91631e-21)
(-0.0255314 -0.00292253 5.59197e-21)
(-0.0235097 -0.00175549 3.81924e-21)
(-0.00100725 -0.00294009 1.7376e-21)
(-0.00424843 -0.00639045 3.46465e-21)
(-0.00949771 -0.00807086 9.30774e-21)
(-0.0151266 -0.00844915 -5.03557e-21)
(-0.0204293 -0.00788036 -4.52624e-21)
(-0.0248993 -0.00669054 -1.81259e-22)
(-0.0282014 -0.00518367 9.23714e-21)
(-0.0302289 -0.00364626 4.47658e-21)
(-0.0310587 -0.00231975 -3.92242e-21)
(-0.0306509 -0.00143434 -4.52258e-21)
(-0.000843729 -0.00179045 -2.87568e-22)
(-0.00398045 -0.00389775 7.01155e-22)
(-0.00936339 -0.0049297 -1.75836e-21)
(-0.0153036 -0.00517128 1.31478e-21)
(-0.0210709 -0.00483763 1.21765e-21)
(-0.026139 -0.00412612 9.00653e-22)
(-0.0301568 -0.00322025 -1.86605e-21)
(-0.0329987 -0.00229226 -7.7678e-21)
(-0.034724 -0.00148571 -1.22895e-21)
(-0.0353887 -0.000933073 2.40701e-21)
(-0.0153855 -0.00174084 1.07354e-21)
(-0.0213845 -0.00163091 -1.13443e-21)
(-0.0267514 -0.00139414 -5.59083e-22)
(-0.0311272 -0.0010919 6.07931e-22)
(-0.0343767 -0.000781638 3.06415e-21)
(-0.0365507 -0.000510942 -1.09812e-21)
(-0.0377511 -0.000323025 1.12534e-21)
(1.15517 -0.00452985 5.36488e-23)
(1.15686 -0.00449475 -1.30947e-22)
(1.15852 -0.00445866 1.10685e-22)
(1.16016 -0.00442147 -3.4041e-23)
(1.16178 -0.00438303 -5.02559e-23)
(1.16338 -0.00434319 1.11872e-23)
(1.16494 -0.0043017 2.06567e-23)
(1.16649 -0.00425808 1.14981e-23)
(1.168 -0.00421141 -2.11805e-24)
(1.16949 -0.0041596 -2.13205e-24)
(1.17094 -0.00409796 2.55407e-24)
(1.15655 -0.0133431 3.90301e-23)
(1.15827 -0.013234 3.19266e-24)
(1.15996 -0.0131238 -2.61368e-23)
(1.16163 -0.0130125 -3.71911e-23)
(1.16328 -0.0128997 6.04011e-24)
(1.1649 -0.012785 1.05518e-23)
(1.16649 -0.0126678 2.93058e-24)
(1.16806 -0.0125467 -6.02703e-24)
(1.16959 -0.0124187 2.90767e-24)
(1.1711 -0.0122769 -2.42318e-24)
(1.17258 -0.0121053 -8.0123e-24)
(1.15903 -0.0218978 5.66542e-23)
(1.16081 -0.0217163 -1.26474e-23)
(1.16257 -0.0215335 -1.12427e-23)
(1.1643 -0.021349 -5.93809e-23)
(1.16601 -0.0211626 5.77894e-23)
(1.16769 -0.0209737 -1.46719e-23)
(1.16934 -0.020781 -6.76032e-24)
(1.17097 -0.0205823 2.26472e-24)
(1.17256 -0.0203723 -7.24274e-24)
(1.17413 -0.0201393 -2.31352e-24)
(1.17567 -0.0198562 1.19804e-24)
(1.1625 -0.0302553 -5.25235e-23)
(1.16437 -0.0299972 2.88328e-23)
(1.16621 -0.0297376 -4.0982e-23)
(1.16803 -0.0294764 2.36056e-23)
(1.16982 -0.029213 -4.28286e-25)
(1.17159 -0.0289467 -1.04071e-24)
(1.17333 -0.0286758 1.41886e-24)
(1.17505 -0.0283971 2.62203e-24)
(1.17673 -0.0281032 1.51433e-23)
(1.17839 -0.0277771 -2.03728e-23)
(1.18001 -0.0273799 2.93525e-23)
(1.16682 -0.0384912 -2.70219e-23)
(1.1688 -0.0381522 2.44202e-23)
(1.17075 -0.0378118 3.01736e-24)
(1.17268 -0.0374694 1.26372e-23)
(1.17459 -0.0371247 5.67203e-24)
(1.17647 -0.0367767 1.14883e-23)
(1.17833 -0.0364233 -1.86399e-24)
(1.18015 -0.0360603 3.04936e-23)
(1.18195 -0.0356778 -1.5393e-24)
(1.18373 -0.0352535 1.00556e-22)
(1.18547 -0.0347357 -5.60632e-23)
(1.1719 -0.0466564 -5.35852e-24)
(1.17401 -0.0462298 -3.5839e-25)
(1.1761 -0.0458016 -1.19095e-23)
(1.17817 -0.0453714 -2.54353e-23)
(1.18021 -0.0449385 9.85352e-24)
(1.18223 -0.044502 -4.0054e-23)
(1.18422 -0.0440593 2.67452e-23)
(1.18618 -0.043605 1.30467e-22)
(1.18812 -0.043127 -2.37947e-24)
(1.19003 -0.0425967 -1.27535e-22)
(1.19192 -0.0419487 -5.77681e-23)
(1.17766 -0.0547933 -2.58623e-23)
(1.17993 -0.0542708 -1.8077e-23)
(1.18217 -0.0537464 4.21958e-23)
(1.18439 -0.0532197 2.96959e-23)
(1.18658 -0.05269 8.66508e-24)
(1.18876 -0.0521561 3.47923e-23)
(1.19091 -0.0516151 -1.19114e-22)
(1.19303 -0.0510605 -2.07372e-22)
(1.19513 -0.0504773 -1.08097e-22)
(1.1972 -0.0498307 -5.72534e-24)
(1.19925 -0.0490397 1.90028e-23)
(1.18403 -0.062935 3.41248e-23)
(1.18646 -0.0623064 3.90641e-23)
(1.18888 -0.0616752 7.65083e-23)
(1.19127 -0.0610412 -1.23581e-22)
(1.19364 -0.0604035 1.77497e-22)
(1.19599 -0.0597609 -5.36884e-23)
(1.19831 -0.05911 1.70928e-22)
(1.20061 -0.0584432 -1.21926e-22)
(1.20289 -0.0577425 1.97033e-22)
(1.20514 -0.0569661 2.8931e-22)
(1.20737 -0.0560157 1.25399e-22)
(1.19094 -0.071107 5.69706e-23)
(1.19356 -0.0703598 1.76005e-23)
(1.19617 -0.0696092 -2.07946e-22)
(1.19875 -0.0688547 8.97353e-23)
(1.20132 -0.0680956 -4.3509e-24)
(1.20386 -0.0673304 -2.95396e-23)
(1.20638 -0.0665551 1.73992e-22)
(1.20887 -0.0657609 -2.83932e-23)
(1.21134 -0.0649269 -2.27788e-22)
(1.21378 -0.0640034 -4.86001e-22)
(1.21621 -0.0628732 5.98945e-23)
(1.19834 -0.0793286 -9.92904e-23)
(1.20118 -0.0784483 4.65017e-23)
(1.20399 -0.0775631 3.48634e-22)
(1.20679 -0.0766724 2.59194e-22)
(1.20956 -0.0757754 -2.70491e-22)
(1.21231 -0.0748701 -1.55515e-22)
(1.21504 -0.0739522 -1.63679e-22)
(1.21774 -0.0730115 9.88406e-23)
(1.22041 -0.0720237 1.82481e-22)
(1.22306 -0.0709309 2.8415e-22)
(1.2257 -0.0695953 -1.06354e-22)
(1.20621 -0.0876135 2.62054e-23)
(1.20927 -0.0865829 -4.33449e-22)
(1.21231 -0.085545 2.28085e-23)
(1.21532 -0.084499 -3.58768e-22)
(1.21832 -0.0834438 2.67391e-22)
(1.22129 -0.082377 3.83411e-22)
(1.22424 -0.0812933 -6.74494e-23)
(1.22716 -0.0801809 -3.26174e-22)
(1.23005 -0.079012 -1.78589e-22)
(1.23291 -0.0777203 1.99448e-22)
(1.23576 -0.0761462 -2.01994e-22)
(1.21118 -0.0971606 2.14667e-22)
(1.2145 -0.0959695 3.03783e-22)
(1.2178 -0.0947683 -5.28256e-23)
(1.22108 -0.093556 -5.86938e-22)
(1.22433 -0.0923315 -3.65591e-22)
(1.22757 -0.0910927 -2.82566e-22)
(1.23077 -0.0898365 5.44233e-22)
(1.23394 -0.0885562 7.51374e-22)
(1.23708 -0.0872382 2.74014e-22)
(1.24018 -0.0858508 1.44826e-23)
(1.24324 -0.0843194 -3.74787e-22)
(1.24628 -0.0824631 8.78392e-22)
(1.21961 -0.105778 -1.19903e-22)
(1.22319 -0.104397 -6.43877e-22)
(1.22674 -0.103001 6.13704e-23)
(1.23027 -0.101587 2.59373e-22)
(1.23377 -0.100155 2.45849e-22)
(1.23725 -0.0986995 -3.80931e-22)
(1.24068 -0.0972167 -7.24214e-22)
(1.24407 -0.095698 -1.2125e-22)
(1.24742 -0.0941269 3.93558e-22)
(1.2507 -0.092468 8.23493e-22)
(1.25392 -0.090639 -2.67136e-22)
(1.2571 -0.0884415 -1.2389e-21)
(1.2284 -0.114486 4.53092e-22)
(1.23224 -0.112887 1.23491e-22)
(1.23606 -0.111264 2.58825e-22)
(1.23985 -0.109615 -6.01033e-23)
(1.24359 -0.107936 -4.23205e-22)
(1.24729 -0.106219 2.70408e-23)
(1.25094 -0.104459 -1.38707e-22)
(1.25452 -0.102643 -7.19447e-22)
(1.25802 -0.100751 -1.32177e-21)
(1.26143 -0.0987449 -1.81744e-21)
(1.26473 -0.0965362 1.86791e-21)
(1.26794 -0.0939173 2.20093e-23)
(1.23751 -0.123265 7.42772e-22)
(1.24163 -0.121411 -2.9089e-22)
(1.2457 -0.119522 -2.84535e-22)
(1.24973 -0.117591 5.43367e-23)
(1.25369 -0.115611 4.02051e-22)
(1.25759 -0.113572 8.71057e-22)
(1.26139 -0.111462 -5.86291e-22)
(1.26509 -0.109265 1.06177e-21)
(1.26867 -0.106958 -4.53335e-22)
(1.27209 -0.104497 -5.62253e-22)
(1.27531 -0.101795 -2.14412e-21)
(1.27834 -0.0986488 -5.05643e-22)
(1.2469 -0.132073 -5.57908e-22)
(1.25127 -0.129917 5.23345e-22)
(1.25558 -0.127706 9.42998e-22)
(1.2598 -0.125428 5.35262e-22)
(1.26393 -0.123073 -3.35116e-22)
(1.26793 -0.120624 -1.35646e-21)
(1.27179 -0.118063 2.20534e-21)
(1.27548 -0.11537 -5.86286e-22)
(1.27895 -0.112516 1.40973e-21)
(1.28217 -0.109457 -1.14319e-21)
(1.28505 -0.106111 1.50404e-21)
(1.28758 -0.102306 1.48873e-21)
(1.25648 -0.140837 -1.06491e-22)
(1.26106 -0.13831 -7.02897e-22)
(1.26553 -0.135697 -9.34138e-22)
(1.26986 -0.132982 2.04736e-22)
(1.27403 -0.130147 1.71811e-21)
(1.278 -0.127167 -1.03957e-21)
(1.28173 -0.12402 2.60196e-22)
(1.28516 -0.120676 -3.47932e-21)
(1.28826 -0.117105 -5.45546e-22)
(1.29095 -0.113266 2.45029e-21)
(1.2931 -0.109093 5.30226e-23)
(1.29463 -0.104479 -3.17004e-21)
(1.26611 -0.14943 2.84713e-23)
(1.2708 -0.146436 2.73799e-22)
(1.2753 -0.143311 1.03947e-21)
(1.27958 -0.140033 -8.08801e-22)
(1.2836 -0.136574 -1.86687e-21)
(1.28728 -0.132905 9.16341e-22)
(1.29058 -0.128993 7.68359e-22)
(1.29341 -0.124806 5.14781e-21)
(1.29571 -0.120314 2.86724e-22)
(1.29741 -0.115484 -2.62216e-21)
(1.29828 -0.110284 4.71762e-22)
(1.29812 -0.104712 -7.76344e-22)
(1.27553 -0.157658 -1.99941e-22)
(1.28016 -0.154062 1.97915e-22)
(1.2845 -0.150275 -2.23411e-22)
(1.28847 -0.146267 1.32195e-21)
(1.29201 -0.142001 3.64092e-21)
(1.29504 -0.137443 3.83562e-21)
(1.29747 -0.132555 -5.8494e-21)
(1.2992 -0.127305 9.49235e-22)
(1.30015 -0.121668 3.2055e-21)
(1.30022 -0.115633 6.51069e-21)
(1.29909 -0.109219 -1.05715e-21)
(1.29641 -0.102574 1.63453e-21)
(1.28437 -0.165239 7.52054e-22)
(1.28868 -0.160865 5.07089e-22)
(1.29253 -0.156223 -1.74487e-21)
(1.29581 -0.151276 -1.12785e-21)
(1.29843 -0.145983 -1.39258e-21)
(1.30029 -0.140308 4.21486e-22)
(1.30127 -0.134214 3.43965e-21)
(1.30125 -0.127676 -3.02696e-21)
(1.30013 -0.120685 -1.57884e-21)
(1.29782 -0.113265 -7.04291e-21)
(1.29387 -0.105503 2.0923e-21)
(1.2877 -0.0977436 8.33301e-21)
(1.29208 -0.171799 1.52222e-21)
(1.29569 -0.166427 -4.30857e-22)
(1.29859 -0.160698 1.0501e-21)
(1.30066 -0.154574 6.09678e-22)
(1.30178 -0.148015 -4.09811e-21)
(1.30182 -0.140989 -7.65243e-21)
(1.30063 -0.133472 5.54272e-21)
(1.29809 -0.125455 4.99266e-22)
(1.29409 -0.11696 -3.26802e-21)
(1.28856 -0.108053 6.85824e-21)
(1.28092 -0.0989123 3.79962e-21)
(1.27028 -0.0901079 -2.21098e-21)
(1.2979 -0.176878 -4.16636e-22)
(1.3003 -0.170255 -9.54324e-22)
(1.30167 -0.163187 -7.12973e-22)
(1.30188 -0.155639 -1.2796e-21)
(1.30079 -0.147585 -2.65852e-21)
(1.29823 -0.139008 3.72216e-21)
(1.29408 -0.129906 -1.01392e-20)
(1.28818 -0.1203 -5.82259e-21)
(1.28045 -0.110251 3.03815e-21)
(1.27087 -0.0998846 -7.10045e-21)
(1.25871 -0.0894731 -7.64286e-21)
(1.24274 -0.0798239 -1.08212e-20)
(1.30089 -0.179958 -2.64931e-21)
(1.30143 -0.171823 1.95798e-21)
(1.30057 -0.16317 1.90975e-21)
(1.29818 -0.153982 -1.19541e-21)
(1.29407 -0.144254 1.23672e-21)
(1.28811 -0.133999 5.13498e-21)
(1.28016 -0.123249 1.48847e-20)
(1.27009 -0.112067 1.25409e-20)
(1.25785 -0.100562 -8.29535e-21)
(1.2435 -0.0889219 5.93526e-21)
(1.22616 -0.077507 1.08854e-21)
(1.20421 -0.0673388 7.79594e-21)
(1.29991 -0.180518 9.92317e-22)
(1.29787 -0.170634 -4.45871e-21)
(1.29402 -0.160199 -7.57532e-21)
(1.28822 -0.149222 -5.18472e-21)
(1.28031 -0.137736 1.38847e-20)
(1.27016 -0.125791 -6.14402e-21)
(1.25765 -0.113469 -1.18963e-20)
(1.2427 -0.10088 -7.2586e-21)
(1.22534 -0.0881866 3.14205e-21)
(1.2057 -0.075627 1.65919e-21)
(1.18275 -0.0636247 -6.97661e-21)
(1.15448 -0.0533493 -7.15335e-21)
(1.29377 -0.178095 2.68031e-22)
(1.28839 -0.166289 9.3583e-22)
(1.28079 -0.153958 4.58684e-21)
(1.27082 -0.141152 -2.66471e-22)
(1.25838 -0.127948 -4.88481e-21)
(1.24335 -0.114452 -8.33687e-21)
(1.22569 -0.100796 2.07088e-21)
(1.20537 -0.087146 -1.24862e-22)
(1.1825 -0.0737067 8.00915e-21)
(1.15732 -0.0607434 2.95628e-21)
(1.12864 -0.0486828 8.67187e-21)
(1.09406 -0.0387298 5.30836e-22)
(1.28133 -0.172347 3.10054e-21)
(1.27188 -0.158538 1.79043e-22)
(1.25982 -0.144306 1.27494e-20)
(1.24504 -0.129753 1.03478e-20)
(1.22747 -0.115014 -9.20605e-21)
(1.20708 -0.100253 3.77503e-21)
(1.18388 -0.0856636 -3.24197e-21)
(1.15793 -0.0714628 2.99757e-21)
(1.12944 -0.0578851 -4.23709e-21)
(1.09879 -0.045178 4.1118e-21)
(1.0646 -0.0336733 -1.01793e-20)
(1.02407 -0.0244253 1.30265e-20)
(1.26165 -0.163187 -6.30378e-21)
(1.24752 -0.147413 4.68191e-21)
(1.23045 -0.131404 -1.07386e-20)
(1.21038 -0.11532 4.64248e-21)
(1.1873 -0.0993573 1.72141e-20)
(1.16126 -0.0837447 4.34947e-21)
(1.13237 -0.0687394 7.42532e-21)
(1.10077 -0.054608 -2.66652e-21)
(1.0668 -0.0415984 4.76849e-22)
(1.03097 -0.0298911 -7.34845e-21)
(0.991751 -0.0195959 1.33932e-20)
(0.945925 -0.0113388 -7.405e-21)
(1.23409 -0.15072 1.76391e-21)
(1.21486 -0.13317 -8.65703e-21)
(1.19245 -0.115667 5.97684e-22)
(1.16687 -0.0984347 -1.5412e-20)
(1.13818 -0.0817304 -9.94329e-21)
(1.10652 -0.0658486 -5.43192e-21)
(1.07208 -0.0511069 -4.74554e-23)
(1.03511 -0.0378153 -4.46929e-21)
(0.996025 -0.0262147 1.39461e-20)
(0.955458 -0.0163588 4.23685e-21)
(0.911793 -0.00795768 -9.36435e-21)
(0.861391 -0.000715162 -3.64799e-21)
(1.19816 -0.134588 5.71357e-21)
(1.17354 -0.115472 1.6854e-21)
(1.14558 -0.0967931 -6.44944e-21)
(1.1144 -0.07884 1.14053e-20)
(1.08014 -0.0619414 -1.23158e-20)
(1.04305 -0.0464616 -4.06667e-21)
(1.00342 -0.032787 2.39058e-21)
(0.961595 -0.0212853 -1.60672e-21)
(0.918073 -0.0122089 -1.7933e-20)
(0.873604 -0.00549624 -1.69942e-20)
(0.826601 -0.000313403 6.08443e-21)
(0.772781 0.00560486 -6.3025e-21)
(1.15423 -0.115094 -1.76068e-21)
(1.12403 -0.0945492 -8.8571e-22)
(1.09039 -0.0748632 3.36468e-21)
(1.05351 -0.0563878 -7.10229e-21)
(1.01362 -0.0395122 1.78091e-20)
(0.971033 -0.0246604 1.35734e-20)
(0.926115 -0.0122808 -8.75473e-21)
(0.879258 -0.0028123 1.00939e-20)
(0.83099 0.00340704 1.04572e-20)
(0.782158 0.00630488 4.50476e-21)
(0.732113 0.00663866 1.82734e-21)
(0.677383 0.00858196 1.68502e-20)
(1.17328 -0.00396237 0)
(1.17647 -0.00376312 0)
(1.17963 -0.00355227 0)
(1.18275 -0.0033293 0)
(1.18581 -0.00309369 0)
(1.18878 -0.00284593 0)
(1.19162 -0.00258724 0)
(1.19431 -0.00231921 0)
(1.19682 -0.00204368 0)
(1.19912 -0.00176286 0)
(1.20116 -0.0014793 0)
(1.20293 -0.00119586 0)
(1.20439 -0.000915647 0)
(1.20551 -0.000641904 0)
(1.20627 -0.000377945 0)
(1.20666 -0.000127018 0)
(1.20665 0.000107777 0)
(1.20624 0.000323715 0)
(1.20544 0.000518314 0)
(1.20423 0.000690091 0)
(1.20264 0.000837184 0)
(1.20067 0.000960711 0)
(1.19841 0.0010579 0)
(1.19572 0.00113613 0)
(1.19296 0.00118578 0)
(1.18952 0.00123044 0)
(1.18667 0.00123818 0)
(1.1821 0.00126922 0)
(1.18003 0.00124541 0)
(1.17294 0.00127448 0)
(1.17495 -0.0117105 0)
(1.17816 -0.0111237 0)
(1.18134 -0.0105001 0)
(1.18447 -0.00983874 0)
(1.18754 -0.00913851 0)
(1.19051 -0.00840141 0)
(1.19335 -0.00763155 0)
(1.19602 -0.00683395 0)
(1.19851 -0.00601441 0)
(1.20077 -0.00517967 0)
(1.20278 -0.00433745 0)
(1.20451 -0.00349637 0)
(1.20591 -0.0026657 0)
(1.20698 -0.00185509 0)
(1.20768 -0.00107435 0)
(1.208 -0.000333059 0)
(1.20792 0.00035969 0)
(1.20744 0.000995912 0)
(1.20656 0.00156844 0)
(1.20528 0.0020729 0)
(1.20364 0.00250425 0)
(1.2016 0.00286523 0)
(1.19928 0.00314933 0)
(1.19654 0.00337543 0)
(1.19374 0.00352114 0)
(1.19025 0.00364535 0)
(1.18738 0.00367339 0)
(1.18277 0.00375041 0)
(1.1807 0.0036982 0)
(1.17356 0.00376528 0)
(1.17811 -0.0191991 0)
(1.18137 -0.01822 0)
(1.18457 -0.0171807 0)
(1.18772 -0.0160797 0)
(1.1908 -0.0149153 0)
(1.19376 -0.0136912 0)
(1.19658 -0.0124146 0)
(1.19923 -0.011094 0)
(1.20167 -0.00973928 0)
(1.20387 -0.00836175 0)
(1.20581 -0.00697438 0)
(1.20744 -0.00559146 0)
(1.20875 -0.00422829 0)
(1.2097 -0.00290073 0)
(1.21028 -0.00162479 0)
(1.21047 -0.000415998 0)
(1.21026 0.000711006 0)
(1.20965 0.00174344 0)
(1.20864 0.00267004 0)
(1.20723 0.00348386 0)
(1.20546 0.00417761 0)
(1.2033 0.00475523 0)
(1.20088 0.00520852 0)
(1.19803 0.0055648 0)
(1.19516 0.00579548 0)
(1.19158 0.00598304 0)
(1.18866 0.00603074 0)
(1.18396 0.00613487 0)
(1.18189 0.00606935 0)
(1.17465 0.00615517 0)
(1.18257 -0.0264548 0)
(1.18588 -0.0250741 0)
(1.18911 -0.0236104 0)
(1.19228 -0.0220618 0)
(1.19537 -0.0204263 0)
(1.19833 -0.0187098 0)
(1.20113 -0.016923 0)
(1.20372 -0.0150784 0)
(1.20609 -0.0131902 0)
(1.20821 -0.0112747 0)
(1.21003 -0.00935002 0)
(1.21153 -0.00743644 0)
(1.21269 -0.00555518 0)
(1.21348 -0.00372815 0)
(1.21388 -0.00197726 0)
(1.21389 -0.000323586 0)
(1.21349 0.00121321 0)
(1.21268 0.00261613 0)
(1.21148 0.00387053 0)
(1.20989 0.00496753 0)
(1.20794 0.00589831 0)
(1.20561 0.00666846 0)
(1.20304 0.00726897 0)
(1.20004 0.00773545 0)
(1.19705 0.00803416 0)
(1.19335 0.00827065 0)
(1.19036 0.00832623 0)
(1.18553 0.00845061 0)
(1.18343 0.00836279 0)
(1.17604 0.00847074 0)
(1.18817 -0.0335292 0)
(1.19155 -0.0317262 0)
(1.19481 -0.0298186 0)
(1.19801 -0.0278038 0)
(1.20111 -0.0256803 0)
(1.20405 -0.0234569 0)
(1.2068 -0.0211481 0)
(1.20932 -0.018771 0)
(1.2116 -0.0163444 0)
(1.21358 -0.0138899 0)
(1.21526 -0.0114313 0)
(1.21658 -0.00899475 0)
(1.21755 -0.00660732 0)
(1.21812 -0.00429675 0)
(1.2183 -0.00209049 0)
(1.21806 -1.46418e-05 0)
(1.21742 0.00190671 0)
(1.21636 0.0036531 0)
(1.21492 0.0052073 0)
(1.21308 0.00655926 0)
(1.2109 0.00769954 0)
(1.20836 0.00863591 0)
(1.20558 0.00935957 0)
(1.20239 0.00991423 0)
(1.19924 0.0102623 0)
(1.19536 0.0105317 0)
(1.19226 0.0105817 0)
(1.18726 0.0107188 0)
(1.18512 0.0105977 0)
(1.17751 0.0107336 0)
(1.19479 -0.0404425 0)
(1.19824 -0.0381901 0)
(1.20153 -0.0358122 0)
(1.20475 -0.0333065 0)
(1.20784 -0.030672 0)
(1.21075 -0.0279211 0)
(1.21344 -0.0250733 0)
(1.21587 -0.0221505 0)
(1.21801 -0.0191768 0)
(1.21983 -0.0161793 0)
(1.22131 -0.0131877 0)
(1.22242 -0.010234 0)
(1.22313 -0.00735124 0)
(1.22344 -0.00457257 0)
(1.22333 -0.00193057 0)
(1.2228 0.000544306 0)
(1.22186 0.00282426 0)
(1.2205 0.00488615 0)
(1.21875 0.0067111 0)
(1.21661 0.00828868 0)
(1.21415 0.00960996 0)
(1.21133 0.0106851 0)
(1.2083 0.0115073 0)
(1.20487 0.012127 0)
(1.20151 0.0125058 0)
(1.1974 0.0127904 0)
(1.19415 0.0128228 0)
(1.1889 0.0129621 0)
(1.18669 0.012799 0)
(1.17877 0.0129654 0)
(1.20231 -0.04721 0)
(1.20585 -0.0444736 0)
(1.20915 -0.0415924 0)
(1.21237 -0.0385644 0)
(1.21545 -0.0353901 0)
(1.21831 -0.0320864 0)
(1.2209 -0.0286783 0)
(1.22319 -0.0251932 0)
(1.22516 -0.0216609 0)
(1.22678 -0.0181144 0)
(1.22802 -0.0145894 0)
(1.22885 -0.0111238 0)
(1.22927 -0.00775619 0)
(1.22925 -0.00452491 0)
(1.2288 -0.00146707 0)
(1.22792 0.0013832 0)
(1.2266 0.00399525 0)
(1.22488 0.00634416 0)
(1.22276 0.00841038 0)
(1.22027 0.0101839 0)
(1.21746 0.0116576 0)
(1.2143 0.012844 0)
(1.21096 0.0137402 0)
(1.20721 0.0144014 0)
(1.20358 0.0147935 0)
(1.19918 0.015074 0)
(1.19571 0.015079 0)
(1.19016 0.0152056 0)
(1.18783 0.0149954 0)
(1.1795 0.0151886 0)
(1.21065 -0.0538339 0)
(1.21426 -0.0505721 0)
(1.21756 -0.0471485 0)
(1.22077 -0.0435616 0)
(1.22382 -0.0398143 0)
(1.22659 -0.0359286 0)
(1.22905 -0.031936 0)
(1.23116 -0.0278699 0)
(1.23291 -0.0237661 0)
(1.23427 -0.0196637 0)
(1.23521 -0.0156046 0)
(1.2357 -0.0116322 0)
(1.23575 -0.00779044 0)
(1.23535 -0.00412236 0)
(1.23448 -0.000668708 0)
(1.23317 0.00253289 0)
(1.23142 0.0054502 0)
(1.22925 0.00805745 0)
(1.22669 0.0103355 0)
(1.22377 0.0122754 0)
(1.22054 0.0138731 0)
(1.21697 0.0151432 0)
(1.21323 0.0160898 0)
(1.2091 0.0167685 0)
(1.20512 0.0171577 0)
(1.20035 0.0174122 0)
(1.1966 0.0173829 0)
(1.19065 0.0174756 0)
(1.18816 0.0172177 0)
(1.17932 0.017424 0)
(1.21972 -0.0603052 0)
(1.22339 -0.0564701 0)
(1.22667 -0.0524592 0)
(1.22984 -0.0482721 0)
(1.23281 -0.0439143 0)
(1.23545 -0.0394146 0)
(1.23772 -0.0348112 0)
(1.23961 -0.030144 0)
(1.24108 -0.0254551 0)
(1.2421 -0.0207897 0)
(1.24267 -0.0161956 0)
(1.24275 -0.0117218 0)
(1.24236 -0.007417 0)
(1.24147 -0.00332837 0)
(1.24011 0.000500233 0)
(1.23828 0.00402898 0)
(1.23601 0.00722465 0)
(1.23331 0.0100615 0)
(1.23022 0.0125218 0)
(1.22677 0.0145984 0)
(1.22302 0.0162917 0)
(1.21895 0.0176179 0)
(1.21474 0.018591 0)
(1.21014 0.0192621 0)
(1.20572 0.0196325 0)
(1.20049 0.019836 0)
(1.19638 0.019768 0)
(1.18995 0.0197969 0)
(1.18724 0.0194964 0)
(1.17779 0.0196878 0)
(1.22945 -0.066601 0)
(1.23314 -0.0621379 0)
(1.23636 -0.0574893 0)
(1.23945 -0.0526558 0)
(1.24229 -0.0476469 0)
(1.24474 -0.0424986 0)
(1.24676 -0.0372565 0)
(1.24834 -0.0319672 0)
(1.24944 -0.0266791 0)
(1.25005 -0.0214435 0)
(1.25015 -0.0163139 0)
(1.24972 -0.0113446 0)
(1.24878 -0.00658863 0)
(1.24731 -0.00209645 0)
(1.24534 0.00208535 0)
(1.24289 0.00591612 0)
(1.23997 0.00936225 0)
(1.23663 0.0123988 0)
(1.23291 0.0150107 0)
(1.22883 0.017193 0)
(1.22446 0.0189523 0)
(1.21979 0.0203051 0)
(1.21499 0.0212796 0)
(1.20983 0.0219156 0)
(1.20488 0.0222505 0)
(1.19912 0.022373 0)
(1.19456 0.0222634 0)
(1.18758 0.0221885 0)
(1.18459 0.0218565 0)
(1.17448 0.0219879 0)
(1.23974 -0.0726796 0)
(1.24342 -0.0675266 0)
(1.24651 -0.0621842 0)
(1.24945 -0.0566538 0)
(1.25208 -0.0509496 0)
(1.25426 -0.0451159 0)
(1.25593 -0.0392062 0)
(1.25709 -0.0332733 0)
(1.25771 -0.027372 0)
(1.25779 -0.0215596 0)
(1.25729 -0.0158952 0)
(1.25623 -0.0104377 0)
(1.2546 -0.00524398 0)
(1.25242 -0.000367258 0)
(1.24971 0.00414399 0)
(1.2465 0.00824874 0)
(1.24282 0.0119143 0)
(1.23871 0.0151176 0)
(1.23422 0.0178472 0)
(1.22939 0.0201009 0)
(1.22429 0.0218931 0)
(1.21891 0.0232397 0)
(1.21344 0.024187 0)
(1.20762 0.0247564 0)
(1.20207 0.0250364 0)
(1.1957 0.0250427 0)
(1.19063 0.0248885 0)
(1.18306 0.0246593 0)
(1.17973 0.0243128 0)
(1.16894 0.024321 0)
(1.25047 -0.0784708 0)
(1.25405 -0.07256 0)
(1.25693 -0.0664618 0)
(1.25961 -0.0601793 0)
(1.26193 -0.0537329 0)
(1.2637 -0.0471759 0)
(1.26489 -0.0405692 0)
(1.26549 -0.0339719 0)
(1.26549 -0.0274447 0)
(1.26487 -0.0210511 0)
(1.26362 -0.0148553 0)
(1.26176 -0.00892055 0)
(1.25928 -0.00330685 0)
(1.25623 0.0019303 0)
(1.25262 0.00674172 0)
(1.24849 0.0110868 0)
(1.24389 0.014935 0)
(1.23888 0.018266 0)
(1.2335 0.0210732 0)
(1.2278 0.0233581 0)
(1.22187 0.0251444 0)
(1.2157 0.0264464 0)
(1.20946 0.0273328 0)