/*--------------------------------*- C++ -*----------------------------------*\
  =========                 |
  \\      /  F ield         | OpenFOAM: The Open Source CFD Toolbox
   \\    /   O peration     | Website:  https://openfoam.org
    \\  /    A nd           | Version:  7
     \\/     M anipulation  |
\*---------------------------------------------------------------------------*/
FoamFile
{
    version     2.0;
    format      ascii;
    class       volScalarField;
    location    "250";
    object      p;
}
// * * * * * * * * * * * * * * * * * * * * * * * * * * * * * * * * * * * * * //

dimensions      [0 2 -2 0 0 0 0];

internalField   nonuniform List<scalar> 
2125
(
-0.265312
-0.297161
-0.269722
-0.327448
-0.300334
-0.2737
-0.369377
-0.351216
-0.328976
-0.303059
-0.277268
-0.379302
-0.366894
-0.350551
-0.3301
-0.305326
-0.280441
-0.384264
-0.37561
-0.364516
-0.349695
-0.330855
-0.30711
-0.283226
-0.386327
-0.379994
-0.372285
-0.36229
-0.348717
-0.331274
-0.308366
-0.285626
-0.381698
-0.376178
-0.369298
-0.360223
-0.347657
-0.331392
-0.309051
-0.287604
-0.381203
-0.377506
-0.372747
-0.366599
-0.35829
-0.346528
-0.331243
-0.309113
-0.289153
-0.378705
-0.376655
-0.373689
-0.369628
-0.364121
-0.356445
-0.345316
-0.330845
-0.308571
-0.289994
-0.373602
-0.372503
-0.370196
-0.366757
-0.361805
-0.354641
-0.344001
-0.330211
-0.307422
-0.290087
-0.368943
-0.368732
-0.367004
-0.364099
-0.359608
-0.352848
-0.342591
-0.329278
-0.305961
-0.287748
-0.364747
-0.365351
-0.364124
-0.361652
-0.357528
-0.351071
-0.341121
-0.327965
-0.305435
-0.273002
-0.361058
-0.3624
-0.361587
-0.359455
-0.355604
-0.349365
-0.339651
-0.326332
-0.305621
-0.266917
-0.357941
-0.359937
-0.359456
-0.357582
-0.353922
-0.34783
-0.338287
-0.324724
-0.305882
-0.265464
-0.355472
-0.358032
-0.357811
-0.356129
-0.352605
-0.346607
-0.337189
-0.323406
-0.305889
-0.265073
-0.353729
-0.356759
-0.356742
-0.355206
-0.351785
-0.34587
-0.336562
-0.32258
-0.305993
-0.265707
-0.352783
-0.356192
-0.356334
-0.354918
-0.351601
-0.345787
-0.336583
-0.322602
-0.306786
-0.267835
-0.352693
-0.356393
-0.35666
-0.355356
-0.352167
-0.346506
-0.337503
-0.323997
-0.308535
-0.271663
-0.353497
-0.357409
-0.357777
-0.356591
-0.353568
-0.348138
-0.339467
-0.326597
-0.310884
-0.278056
-0.355215
-0.359268
-0.35972
-0.358662
-0.355855
-0.350751
-0.34257
-0.330525
-0.315118
-0.286403
-0.357848
-0.36198
-0.362503
-0.361589
-0.359046
-0.354364
-0.346832
-0.335788
-0.321145
-0.296091
-0.36138
-0.36554
-0.366123
-0.365366
-0.363135
-0.358966
-0.352221
-0.342325
-0.328788
-0.306992
-0.36578
-0.369923
-0.370559
-0.369973
-0.368098
-0.364524
-0.358687
-0.350074
-0.337944
-0.319175
-0.371009
-0.375091
-0.375775
-0.375376
-0.373899
-0.370995
-0.366177
-0.358981
-0.348532
-0.33275
-0.377013
-0.380994
-0.381721
-0.381526
-0.380488
-0.378328
-0.374632
-0.368986
-0.360473
-0.347741
-0.383731
-0.387568
-0.388336
-0.388363
-0.387806
-0.386458
-0.383984
-0.380018
-0.373679
-0.364119
-0.391087
-0.394733
-0.395541
-0.395809
-0.395774
-0.395303
-0.394138
-0.391976
-0.388023
-0.381786
-0.398995
-0.402398
-0.403244
-0.403771
-0.404294
-0.404754
-0.404973
-0.404717
-0.403324
-0.400542
-0.407356
-0.410457
-0.411336
-0.412135
-0.413242
-0.414675
-0.416328
-0.418047
-0.419327
-0.420078
-0.416054
-0.418792
-0.419694
-0.42077
-0.422474
-0.424897
-0.428004
-0.431722
-0.43571
-0.439983
-0.424962
-0.427273
-0.428182
-0.429529
-0.431825
-0.435229
-0.439772
-0.445456
-0.452097
-0.459761
-0.00344677
-0.00438443
-0.00529985
-0.00619264
-0.00706243
-0.00790891
-0.00873165
-0.00953068
-0.010305
-0.0110564
-0.0117808
-0.00412321
-0.00508305
-0.00601965
-0.00693258
-0.0078214
-0.00868581
-0.00952531
-0.01034
-0.0111288
-0.0118943
-0.0126325
-0.0053561
-0.00635167
-0.00732354
-0.00827132
-0.00919461
-0.0100932
-0.0109666
-0.0118152
-0.0126379
-0.0134385
-0.0142138
-0.00709899
-0.00814717
-0.0091714
-0.0101713
-0.0111465
-0.012097
-0.0130221
-0.0139225
-0.014797
-0.0156514
-0.0164832
-0.00933169
-0.0104471
-0.0115383
-0.0126052
-0.0136475
-0.014665
-0.0156574
-0.0166256
-0.0175682
-0.0184935
-0.0194001
-0.0120288
-0.0132259
-0.0143988
-0.0155476
-0.0166719
-0.0177719
-0.0188471
-0.019899
-0.0209258
-0.0219392
-0.0229392
-0.0151839
-0.0164767
-0.0177457
-0.0189907
-0.0202117
-0.0214089
-0.022582
-0.0237329
-0.0248597
-0.0259776
-0.027089
-0.0187923
-0.020195
-0.021574
-0.0229295
-0.0242615
-0.0255706
-0.0268562
-0.0281213
-0.0293636
-0.0306024
-0.0318432
-0.0228581
-0.0243843
-0.0258872
-0.0273671
-0.0288241
-0.0302592
-0.0316719
-0.0330658
-0.0344385
-0.0358142
-0.0372025
-0.0273871
-0.0290506
-0.0306911
-0.0323092
-0.0339051
-0.0354802
-0.0370338
-0.0385709
-0.0400886
-0.0416168
-0.0431706
-0.0323913
-0.0342055
-0.035997
-0.0377665
-0.0395146
-0.0412428
-0.0429509
-0.0446445
-0.046321
-0.0480165
-0.0497532
-0.0358839
-0.0378855
-0.0398635
-0.0418188
-0.0437524
-0.045665
-0.0475589
-0.0494337
-0.0512964
-0.0531444
-0.0550206
-0.0569567
-0.0417085
-0.043887
-0.0460413
-0.0481724
-0.0502819
-0.0523707
-0.0544415
-0.056494
-0.0585365
-0.060567
-0.0626356
-0.0647864
-0.0480493
-0.0504168
-0.0527588
-0.0550768
-0.0573727
-0.0596477
-0.0619049
-0.0641442
-0.0663752
-0.0685969
-0.0708668
-0.0732452
-0.0549282
-0.0574961
-0.0600364
-0.0625509
-0.065042
-0.0675113
-0.0699624
-0.0723956
-0.0748214
-0.0772402
-0.0797171
-0.0823329
-0.0623724
-0.0651506
-0.0678982
-0.0706172
-0.0733103
-0.0759793
-0.0786282
-0.081258
-0.0838805
-0.0864984
-0.0891841
-0.0920435
-0.0704088
-0.0734049
-0.0763662
-0.0792952
-0.0821949
-0.0850674
-0.0879163
-0.0907426
-0.0935587
-0.0963709
-0.09926
-0.102363
-0.0790653
-0.0822864
-0.0854657
-0.0886062
-0.0917114
-0.0947849
-0.0978312
-0.100852
-0.103858
-0.106857
-0.109938
-0.113276
-0.0883718
-0.0918227
-0.0952237
-0.0985774
-0.101886
-0.105152
-0.108381
-0.111579
-0.114758
-0.117933
-0.121194
-0.124755
-0.0983584
-0.102037
-0.105655
-0.109219
-0.112728
-0.116188
-0.119592
-0.12295
-0.126268
-0.129582
-0.132985
-0.136751
-0.109063
-0.112965
-0.116788
-0.12054
-0.124224
-0.127856
-0.131425
-0.134949
-0.1384
-0.141835
-0.145323
-0.149253
-0.120514
-0.124642
-0.12867
-0.132606
-0.136437
-0.140191
-0.143849
-0.14748
-0.151023
-0.154602
-0.158164
-0.162264
-0.132715
-0.13705
-0.141272
-0.145397
-0.149397
-0.1533
-0.157027
-0.160697
-0.164175
-0.167792
-0.171322
-0.175669
-0.145716
-0.150214
-0.154566
-0.158807
-0.162916
-0.16697
-0.170832
-0.174672
-0.178123
-0.181755
-0.18499
-0.189568
-0.159592
-0.164249
-0.168704
-0.172986
-0.177059
-0.181055
-0.184841
-0.188779
-0.192295
-0.196276
-0.199312
-0.204306
-0.174296
-0.179122
-0.183728
-0.188124
-0.192236
-0.196153
-0.199667
-0.203279
-0.206336
-0.210432
-0.213294
-0.219366
-0.189681
-0.19457
-0.199244
-0.203739
-0.208011
-0.212125
-0.2158
-0.219411
-0.222026
-0.225677
-0.227471
-0.234655
-0.205853
-0.210601
-0.215067
-0.219311
-0.22337
-0.227379
-0.231243
-0.235319
-0.238687
-0.243057
-0.244524
-0.252687
-0.223258
-0.2278
-0.23192
-0.23565
-0.239036
-0.242196
-0.245226
-0.248548
-0.251963
-0.257159
-0.260719
-0.271724
-0.241793
-0.246274
-0.250259
-0.253748
-0.256746
-0.259276
-0.261384
-0.263234
-0.264944
-0.267582
-0.270421
-0.281484
-0.0135788
-0.0160518
-0.0181179
-0.0196823
-0.0206541
-0.0209505
-0.0204792
-0.0191873
-0.0169883
-0.0138921
-0.00985489
-0.00496414
0.000708779
0.00702343
0.0137141
0.0206456
0.0273019
0.0334445
0.0382176
0.0410564
0.0416823
0.0409768
0.0401438
0.040381
0.0427841
0.0449271
0.0445757
0.0410874
0.0354086
0.0150844
-0.0144872
-0.0170091
-0.0190913
-0.0206493
-0.0216037
-0.0218756
-0.0213707
-0.0200328
-0.0177685
-0.0145881
-0.0104435
-0.00542648
0.000390283
0.00687072
0.0137324
0.0208581
0.0276972
0.0340145
0.0388624
0.041599
0.0420002
0.0409359
0.0398603
0.0400376
0.0426369
0.0450519
0.0448307
0.0416504
0.0361592
0.0149834
-0.0161918
-0.0188114
-0.0209222
-0.0224694
-0.0233922
-0.0236202
-0.0230526
-0.0216291
-0.0192426
-0.0159048
-0.0115595
-0.00630608
-0.000220397
0.00657178
0.0137538
0.0212463
0.0284457
0.0350984
0.0400953
0.042637
0.0425901
0.0408091
0.0392811
0.0393219
0.0423105
0.0452392
0.0452544
0.0427177
0.0374251
0.0147163
-0.0186376
-0.0213944
-0.0235423
-0.0250703
-0.0259457
-0.0261104
-0.0254542
-0.0239099
-0.0213508
-0.017791
-0.0131625
-0.00757553
-0.00111082
0.00612263
0.013756
0.0217719
0.0295045
0.0366623
0.0418796
0.0441428
0.0433867
0.0405123
0.0383472
0.0381773
0.0417458
0.0453883
0.0457103
0.0442336
0.0388882
0.0141571
-0.0217819
-0.0247092
-0.0268961
-0.0283925
-0.0292038
-0.029288
-0.0285208
-0.0268252
-0.0240497
-0.0202107
-0.015226
-0.00921946
-0.00227892
0.00550993
0.0137074
0.0223863
0.030836
0.0386727
0.0441914
0.046101
0.0443017
0.0399309
0.0369694
0.036526
0.0408569
0.0453546
0.0460297
0.0460931
0.0401215
0.0131994
-0.0255979
-0.0287232
-0.0309441
-0.0323922
-0.0331218
-0.0331093
-0.0322118
-0.0303387
-0.0273097
-0.0231405
-0.0177351
-0.0112324
-0.0037315
0.00471219
0.0135651
0.0230266
0.0323893
0.0410833
0.0470087
0.0484951
0.0452102
0.038917
0.0350277
0.0342834
0.0395441
0.0449591
0.0459957
0.0480137
0.040591
0.0118534
-0.0300715
-0.0334148
-0.0356567
-0.0370349
-0.0376626
-0.0375385
-0.0364953
-0.0344239
-0.031111
-0.0265671
-0.0206839
-0.0136161
-0.00548166
0.0037011
0.0132748
0.0236142
0.0340963
0.0438189
0.0502976
0.0512878
0.0459351
0.0372869
0.0323782
0.0313649
0.0377002
0.0440155
0.0453278
0.0493795
0.0396757
0.0103069
-0.0351954
-0.0387685
-0.0410086
-0.0422883
-0.0427929
-0.0425445
-0.0413454
-0.0390613
-0.0354421
-0.0304847
-0.0240732
-0.0163772
-0.00754606
0.0024432
0.0127726
0.0240521
0.0358631
0.0467743
0.0539914
0.0543929
0.0462407
0.0348036
0.0288535
0.0276913
0.0352304
0.0423503
0.0437103
0.04924
0.0367411
0.00888157
-0.0409684
-0.0447724
-0.0469763
-0.0481213
-0.0484795
-0.0480982
-0.0467398
-0.0442373
-0.0402987
-0.0348946
-0.0279096
-0.0195248
-0.00994224
0.000903814
0.0119854
0.0242294
0.0375516
0.0497891
0.0579558
0.0576398
0.0458196
0.031169
0.0242686
0.0232056
0.0320679
0.0398174
0.0408902
0.0467057
0.0313201
0.00780925
-0.0473915
-0.0514146
-0.0535346
-0.0545
-0.0546874
-0.0541698
-0.0526587
-0.049943
-0.0456831
-0.039805
-0.0322044
-0.023069
-0.0126854
-0.000948334
0.010836
0.0240267
0.0389535
0.0526217
0.061935
0.0607261
0.044291
0.0260122
0.0184255
0.0178926
0.028172
0.0363272
0.0367742
0.040753
0.0234046
0.00704382
-0.054467
-0.0586811
-0.060652
-0.0613847
-0.0613783
-0.0607292
-0.0590833
-0.056174
-0.0516044
-0.0452314
-0.0369736
-0.0270195
-0.015785
-0.00313739
0.00925402
0.0233202
0.0397826
0.0549279
0.0654836
0.0631515
0.0412044
0.0189179
0.0111315
0.0117839
0.0235213
0.0318767
0.031492
0.0322323
0.013572
0.00636433
-0.0621962
-0.0665531
-0.0682909
-0.0687274
-0.0685056
-0.0677414
-0.0659947
-0.0629306
-0.0580792
-0.0511975
-0.0422376
-0.0313848
-0.0192434
-0.00567392
0.0071898
0.0219866
0.0397023
0.0562186
0.0679004
0.0641606
0.0360879
0.0095151
0.00224881
0.00495212
0.018106
0.0265435
0.025319
0.0219757
0.00269739
0.00557273
-0.0705773
-0.0750043
-0.0764036
-0.0764702
-0.0760146
-0.0751672
-0.0733736
-0.0702178
-0.0651331
-0.0577368
-0.0480211
-0.0361728
-0.0230569
-0.00854953
0.00462896
0.0199348
0.0383908
0.0557871
0.0681873
0.0627844
0.028686
-0.00234453
-0.00823961
-0.00249929
0.0119569
0.0204946
0.0186445
0.0109819
-0.00832201
0.00461424
-0.0796042
-0.083999
-0.0849276
-0.0845416
-0.0838434
-0.0829637
-0.0811998
-0.0780464
-0.0728024
-0.0648938
-0.0543528
-0.0413917
-0.0272179
-0.0117375
0.0016055
0.0171392
0.0356664
0.0527312
0.0650408
0.0580005
0.0192434
-0.016289
-0.0201308
-0.0104242
0.00516094
0.0139488
0.0118528
0.000135557
-0.0187019
0.00349339
-0.0892644
-0.0934891
-0.0937865
-0.0928572
-0.0919198
-0.0910809
-0.0894515
-0.0864347
-0.0811367
-0.0727254
-0.0612652
-0.0470516
-0.0317142
-0.0152017
-0.00179913
0.0136616
0.0315488
0.0458789
0.05722
0.0490322
0.00829543
-0.0314196
-0.0329415
-0.0186313
-0.00215835
0.00713232
0.00526243
-0.00993288
-0.0278754
0.0022293
-0.0995376
-0.103413
-0.102888
-0.101319
-0.100161
-0.0994608
-0.0981052
-0.0954097
-0.090202
-0.0813015
-0.0687945
-0.0531646
-0.0365294
-0.0189056
-0.00547926
0.00965458
0.0263013
0.0358535
0.0447725
0.0360262
-0.00374436
-0.0466193
-0.0459924
-0.0269063
-0.00985182
0.000256109
-0.000902312
-0.0188579
-0.0355488
0.000873829
-0.110394
-0.113691
-0.112122
-0.109815
-0.108477
-0.108037
-0.107136
-0.105011
-0.100084
-0.090705
-0.0769825
-0.0597427
-0.0416431
-0.022818
-0.00933606
0.00532758
0.0203601
0.0242243
0.0294363
0.0205626
-0.0166343
-0.0610681
-0.0586187
-0.0350417
-0.0177533
-0.00649406
-0.00652324
-0.0264824
-0.0416486
-0.000504059
-0.121795
-0.124231
-0.12136
-0.11822
-0.116766
-0.116734
-0.11652
-0.115293
-0.11089
-0.101031
-0.0858766
-0.066797
-0.0470333
-0.0269117
-0.013282
0.00089729
0.0142227
0.0127689
0.0138359
0.00501698
-0.0298614
-0.0742683
-0.0702965
-0.0428565
-0.0256928
-0.0129646
-0.0115539
-0.032801
-0.0462485
-0.00183981
-0.133691
-0.134919
-0.130461
-0.126401
-0.12492
-0.125464
-0.126233
-0.126332
-0.122752
-0.112387
-0.0955296
-0.0743362
-0.0526812
-0.0311571
-0.0172425
-0.00346797
0.00831889
0.00272671
5.2006e-05
-0.00882221
-0.0425678
-0.0858373
-0.0806468
-0.0502018
-0.0335075
-0.0190381
-0.0159915
-0.037909
-0.0495066
-0.00308452
-0.146018
-0.145623
-0.139268
-0.134219
-0.132816
-0.134126
-0.136257
-0.138228
-0.135831
-0.12489
-0.105997
-0.0823661
-0.0585722
-0.0355202
-0.0211621
-0.0076562
0.00293181
-0.00542363
-0.011148
-0.02027
-0.0539294
-0.0954779
-0.089411
-0.0569673
-0.041043
-0.0246362
-0.0198625
-0.0419569
-0.0516185
-0.00420744
-0.158692
-0.156189
-0.147619
-0.141528
-0.140314
-0.142599
-0.146576
-0.151104
-0.150309
-0.138669
-0.117336
-0.0908896
-0.0646937
-0.0399676
-0.0250031
-0.0116058
-0.0018173
-0.011735
-0.019825
-0.029355
-0.0634427
-0.103039
-0.0964562
-0.063084
-0.048162
-0.0297182
-0.0232111
-0.0451134
-0.0527875
-0.00519391
-0.171607
-0.166444
-0.155346
-0.148175
-0.147244
-0.150731
-0.157169
-0.165098
-0.166386
-0.153853
-0.129597
-0.0999053
-0.0710326
-0.0444709
-0.0287424
-0.0153065
-0.00591946
-0.0164956
-0.0263908
-0.0364038
-0.0709471
-0.108554
-0.101766
-0.0685187
-0.054755
-0.0342737
-0.0260905
-0.0475472
-0.0532069
-0.00604125
-0.184575
-0.176187
-0.162277
-0.153984
-0.153404
-0.158335
-0.167968
-0.180329
-0.184251
-0.170562
-0.142825
-0.109405
-0.0775739
-0.0490066
-0.0323708
-0.018789
-0.00942683
-0.0200648
-0.031348
-0.0418344
-0.0765217
-0.11221
-0.105423
-0.0732691
-0.0607446
-0.0383149
-0.0285558
-0.049414
-0.0530508
-0.00675484
-0.197325
-0.185195
-0.168228
-0.158747
-0.158537
-0.165098
-0.1788
-0.196834
-0.204028
-0.188874
-0.157038
-0.119371
-0.0843
-0.053554
-0.0358918
-0.0221083
-0.0124225
-0.0227783
-0.0351513
-0.0460621
-0.0803845
-0.114272
-0.107585
-0.0773591
-0.0660851
-0.0418687
-0.03066
-0.0508481
-0.0524715
-0.00734513
-0.20954
-0.193253
-0.173022
-0.162225
-0.162321
-0.170629
-0.18935
-0.214451
-0.22569
-0.208781
-0.172214
-0.129771
-0.091188
-0.0580932
-0.0393181
-0.025331
-0.0150006
-0.0249022
-0.0381469
-0.04944
-0.0828506
-0.115017
-0.108455
-0.0808307
-0.0707591
-0.044971
-0.0324518
-0.0519592
-0.051599
-0.00782645
-0.22077
-0.200184
-0.176508
-0.164182
-0.164431
-0.174533
-0.199118
-0.232688
-0.248932
-0.230123
-0.188267
-0.140552
-0.0982087
-0.0626058
-0.0426678
-0.0285273
-0.0172576
-0.0266363
-0.0405627
-0.0521858
-0.0842943
-0.114722
-0.108249
-0.0837342
-0.0747725
-0.0476629
-0.0339744
-0.0528333
-0.0505369
-0.00821655
-0.230577
-0.205905
-0.17865
-0.164493
-0.164627
-0.176426
-0.207478
-0.250742
-0.273088
-0.252527
-0.205023
-0.151629
-0.105314
-0.0670706
-0.0459601
-0.0317654
-0.0192904
-0.0281466
-0.042503
-0.0543327
-0.0850297
-0.113748
-0.107181
-0.0861229
-0.0781488
-0.0499865
-0.0352658
-0.0535365
-0.0493471
-0.00853211
-0.239336
-0.210636
-0.179695
-0.163354
-0.162971
-0.176103
-0.21379
-0.267665
-0.297233
-0.275357
-0.222201
-0.16292
-0.112477
-0.0714724
-0.0492154
-0.0351091
-0.0211877
-0.0295591
-0.0439349
-0.0558421
-0.0852231
-0.112533
-0.105465
-0.0880805
-0.0809236
-0.0519843
-0.0363594
-0.0541209
-0.0480418
-0.00877663
-0.248015
-0.214912
-0.180178
-0.16131
-0.159999
-0.173947
-0.218165
-0.282928
-0.320619
-0.298041
-0.239386
-0.174177
-0.11958
-0.0758031
-0.0524563
-0.0386378
-0.0230324
-0.0308719
-0.0449355
-0.0570724
-0.085071
-0.111121
-0.103335
-0.0897375
-0.0831605
-0.0536902
-0.0372834
-0.054631
-0.0466581
-0.00893433
-0.256404
-0.218827
-0.180731
-0.159229
-0.157058
-0.171818
-0.221803
-0.298975
-0.34219
-0.32015
-0.256964
-0.185926
-0.126995
-0.0800941
-0.0556819
-0.0424529
-0.0249731
-0.0324906
-0.046994
-0.0594296
-0.0850375
-0.108588
-0.100621
-0.0909404
-0.0849241
-0.05519
-0.0380699
-0.0550819
-0.0455055
-0.00900376
-0.270732
-0.222704
-0.182678
-0.15951
-0.156526
-0.17271
-0.225164
-0.304329
-0.35259
-0.333084
-0.269247
-0.195067
-0.133603
-0.0848136
-0.0589642
-0.0464608
-0.028339
-0.0365991
-0.0525727
-0.0636237
-0.0852089
-0.104385
-0.0967699
-0.0903518
-0.0853919
-0.0561663
-0.0386909
-0.0554993
-0.0453301
-0.0090551
-0.267716
-0.218077
-0.178309
-0.15823
-0.156292
-0.175947
-0.234496
-0.318436
-0.366487
-0.344288
-0.275878
-0.198381
-0.135472
-0.0861645
-0.0605303
-0.0488927
-0.030287
-0.0377637
-0.0546075
-0.0653822
-0.0852342
-0.102332
-0.0955695
-0.0902588
-0.0860767
-0.0567539
-0.0391721
-0.0553498
-0.0450289
-0.00905376
-0.266888
-0.215532
-0.177264
-0.158291
-0.157658
-0.181212
-0.245277
-0.332365
-0.380801
-0.353338
-0.278614
-0.197762
-0.134022
-0.0853877
-0.061088
-0.0503793
-0.0317709
-0.0386944
-0.0564775
-0.0670024
-0.0850883
-0.100275
-0.0945583
-0.0902452
-0.086847
-0.0571192
-0.0396059
-0.0549284
-0.0446105
-0.00905118
-0.265839
-0.213642
-0.177929
-0.159955
-0.160224
-0.1873
-0.256065
-0.345927
-0.393615
-0.36142
-0.281275
-0.197436
-0.132884
-0.0849736
-0.0618864
-0.0520715
-0.0336565
-0.0402652
-0.0586627
-0.0684989
-0.0848172
-0.0981023
-0.0932259
-0.0901129
-0.0875167
-0.05741
-0.0399979
-0.0544889
-0.0441558
-0.00905472
-0.265717
-0.214945
-0.180585
-0.163082
-0.164005
-0.194325
-0.267277
-0.359362
-0.405505
-0.36893
-0.284179
-0.197796
-0.132545
-0.0852833
-0.0631662
-0.0542976
-0.0361664
-0.0424004
-0.061051
-0.0698736
-0.0844295
-0.0958457
-0.0916967
-0.0898656
-0.088055
-0.0576629
-0.0403582
-0.0540824
-0.0436769
-0.00906273
-0.266638
-0.217871
-0.185346
-0.167744
-0.169145
-0.202316
-0.278815
-0.372451
-0.416562
-0.375624
-0.286684
-0.198118
-0.132409
-0.0859243
-0.0647688
-0.0569744
-0.0392724
-0.0451422
-0.0636091
-0.0711373
-0.083942
-0.093525
-0.0900325
-0.0895262
-0.0884804
-0.0578657
-0.0406902
-0.0536855
-0.04318
-0.00907502
-0.268747
-0.219098
-0.192162
-0.174071
-0.175765
-0.211218
-0.290476
-0.384964
-0.426542
-0.381278
-0.288576
-0.198159
-0.132246
-0.086731
-0.0666281
-0.0600705
-0.0429933
-0.0484434
-0.0663279
-0.0722993
-0.08337
-0.0911555
-0.0882399
-0.0891014
-0.0888011
-0.0580094
-0.040993
-0.0532867
-0.0426751
-0.00909176
-0.272473
-0.224335
-0.201141
-0.182226
-0.183977
-0.220954
-0.302013
-0.396585
-0.435182
-0.38576
-0.289864
-0.197979
-0.132128
-0.0877402
-0.0687806
-0.0636451
-0.047396
-0.0522279
-0.0691787
-0.0733669
-0.0827285
-0.0887521
-0.0863296
-0.0885934
-0.089015
-0.0580953
-0.0412662
-0.0528918
-0.0421726
-0.00911299
-0.277815
-0.23221
-0.212551
-0.192415
-0.193886
-0.231404
-0.313113
-0.406936
-0.442224
-0.38894
-0.290524
-0.197612
-0.132123
-0.0889957
-0.0712742
-0.0677663
-0.0525356
-0.0564917
-0.072126
-0.0743465
-0.0820327
-0.0863303
-0.0843152
-0.0880049
-0.0891199
-0.058128
-0.0415105
-0.0525089
-0.0416816
-0.00913862
-0.285426
-0.242221
-0.226686
-0.204922
-0.20557
-0.242414
-0.32342
-0.415607
-0.447401
-0.390678
-0.290484
-0.197026
-0.132241
-0.0905023
-0.0741405
-0.0724756
-0.0584403
-0.0611834
-0.0751346
-0.075244
-0.081297
-0.0839054
-0.0822107
-0.0873396
-0.0891152
-0.0581115
-0.0417265
-0.0521434
-0.0412102
-0.00916851
-0.295564
-0.25775
-0.24096
-0.219975
-0.219098
-0.253792
-0.332563
-0.422179
-0.450439
-0.390844
-0.289676
-0.196176
-0.132469
-0.092251
-0.077403
-0.0777916
-0.0651153
-0.0662504
-0.0781695
-0.0760644
-0.0805357
-0.0814927
-0.0800307
-0.086601
-0.0890019
-0.0580486
-0.0419149
-0.0517987
-0.0407657
-0.00920242
-0.307845
-0.275381
-0.258822
-0.237312
-0.234559
-0.265326
-0.340182
-0.426251
-0.451073
-0.38933
-0.288039
-0.195023
-0.132795
-0.0942344
-0.0810821
-0.0837145
-0.0725445
-0.0716325
-0.081197
-0.0768127
-0.0797618
-0.0791075
-0.0777902
-0.0857927
-0.0887814
-0.057942
-0.0420761
-0.0514776
-0.0403541
-0.00924007
-0.322528
-0.295401
-0.279791
-0.257379
-0.251891
-0.276802
-0.345964
-0.427489
-0.449078
-0.386042
-0.285512
-0.193531
-0.133206
-0.0964453
-0.0851922
-0.0902261
-0.0806845
-0.0772656
-0.0841858
-0.077493
-0.0789876
-0.0767644
-0.0755048
-0.0849182
-0.0884562
-0.0577943
-0.0422104
-0.0511823
-0.0399808
-0.0092811
-0.339418
-0.317924
-0.303745
-0.28086
-0.270046
-0.28801
-0.349665
-0.425639
-0.444281
-0.380906
-0.282029
-0.191664
-0.133684
-0.0988727
-0.0897366
-0.0972909
-0.0894607
-0.0830826
-0.0871079
-0.0781088
-0.0782238
-0.0744771
-0.073191
-0.0839811
-0.0880291
-0.0576082
-0.0423181
-0.0509144
-0.03965
-0.00932511
-0.358407
-0.34283
-0.330489
-0.306622
-0.289395
-0.298743
-0.35114
-0.420544
-0.436579
-0.373872
-0.277531
-0.189386
-0.134202
-0.1015
-0.0947034
-0.104858
-0.0987695
-0.0890194
-0.0899387
-0.0786634
-0.0774796
-0.0722589
-0.0708656
-0.0829852
-0.0875039
-0.0573864
-0.0423997
-0.0506749
-0.0393656
-0.00937165
-0.379352
-0.369846
-0.35962
-0.334211
-0.309616
-0.308653
-0.350358
-0.412161
-0.425942
-0.364912
-0.27196
-0.186658
-0.134726
-0.104304
-0.100062
-0.112862
-0.108486
-0.0950184
-0.0926578
-0.0791594
-0.0767623
-0.0701217
-0.068546
-0.0819346
-0.0868849
-0.0571317
-0.0424555
-0.0504642
-0.0391305
-0.00942025
-0.401979
-0.398522
-0.39052
-0.362995
-0.330126
-0.317547
-0.347415
-0.400584
-0.41244
-0.354031
-0.265265
-0.183445
-0.135215
-0.107255
-0.105764
-0.121226
-0.118475
-0.101028
-0.0952492
-0.0795992
-0.0760774
-0.0680764
-0.0662496
-0.0808339
-0.0861773
-0.0568466
-0.042486
-0.0502821
-0.0389469
-0.0094704
-0.425846
-0.428242
-0.422407
-0.392232
-0.350391
-0.325249
-0.342476
-0.386052
-0.396231
-0.341276
-0.257407
-0.179713
-0.135622
-0.110314
-0.11174
-0.129863
-0.128591
-0.106999
-0.0977008
-0.0799848
-0.0754283
-0.066133
-0.0639938
-0.0796882
-0.0853867
-0.0565339
-0.0424915
-0.050128
-0.0388164
-0.00952159
-0.450403
-0.458264
-0.454412
-0.421166
-0.369853
-0.331779
-0.335598
-0.36897
-0.377531
-0.326714
-0.248358
-0.175432
-0.135893
-0.113435
-0.117903
-0.138678
-0.138616
-0.112888
-0.100004
-0.080318
-0.0748162
-0.0643001
-0.0617955
-0.0785031
-0.0845197
-0.0561962
-0.0424726
-0.0500008
-0.0387402
-0.00957329
-0.474993
-0.487824
-0.485684
-0.449104
-0.387961
-0.336936
-0.326967
-0.349915
-0.35661
-0.31042
-0.238102
-0.170575
-0.135972
-0.116564
-0.124153
-0.147567
-0.148589
-0.118659
-0.102154
-0.0806002
-0.0742404
-0.0625854
-0.0596708
-0.0772857
-0.0835833
-0.0558362
-0.0424294
)
;

boundaryField
{
    inlet
    {
        type            zeroGradient;
    }
    outlet
    {
        type            fixedValue;
        value           uniform 0;
    }
    cylinder
    {
        type            zeroGradient;
    }
    top
    {
        type            symmetryPlane;
    }
    bottom
    {
        type            symmetryPlane;
    }
    defaultFaces
    {
        type            empty;
    }
    procBoundary1to0
    {
        type            processor;
        value           nonuniform List<scalar> 
50
(
-0.260439
-0.29353
-0.29353
-0.325483
-0.325483
-0.371869
-0.351608
-0.351608
-0.383355
-0.383355
-0.389041
-0.389041
-0.391462
-0.391462
-0.391628
-0.386178
-0.386178
-0.384256
-0.384256
-0.00248729
-0.00314063
-0.00433728
-0.00602728
-0.00819261
-0.0108081
-0.0138674
-0.0173661
-0.0213086
-0.0257002
-0.0305537
-0.0305537
-0.0338578
-0.0395045
-0.0456548
-0.0523308
-0.0595614
-0.0673749
-0.0757996
-0.084868
-0.0946158
-0.105079
-0.11629
-0.128268
-0.14107
-0.154748
-0.169265
-0.184564
-0.200791
-0.218279
-0.236811
)
;
    }
    procBoundary1to3
    {
        type            processor;
        value           nonuniform List<scalar> 
41
(
-0.433942
-0.435763
-0.436656
-0.438253
-0.441115
-0.44546
-0.451376
-0.458935
-0.468079
-0.478875
-0.498871
-0.51614
-0.515478
-0.475344
-0.404235
-0.340628
-0.316747
-0.329464
-0.333636
-0.292499
-0.22664
-0.165122
-0.135794
-0.119637
-0.130382
-0.156421
-0.158298
-0.124276
-0.104147
-0.0808327
-0.0736985
-0.0609952
-0.0576346
-0.076041
-0.0825852
-0.0554563
-0.0423624
-0.0498992
-0.0387184
-0.00962498
-0.0498992
)
;
    }
}


// ************************************************************************* //
