/*--------------------------------*- C++ -*----------------------------------*\
  =========                 |
  \\      /  F ield         | OpenFOAM: The Open Source CFD Toolbox
   \\    /   O peration     | Website:  https://openfoam.org
    \\  /    A nd           | Version:  7
     \\/     M anipulation  |
\*---------------------------------------------------------------------------*/
FoamFile
{
    version     2.0;
    format      ascii;
    class       volScalarField;
    location    "400";
    object      p;
}
// * * * * * * * * * * * * * * * * * * * * * * * * * * * * * * * * * * * * * //

dimensions      [0 2 -2 0 0 0 0];

internalField   nonuniform List<scalar> 
2125
(
0.65129
0.628736
0.613176
0.650301
0.627741
0.612185
0.59
0.562499
0.53186
0.499672
0.467135
0.435106
0.404194
0.64429
0.622029
0.606936
0.58524
0.558182
0.527937
0.496099
0.463862
0.432091
0.401503
0.633288
0.611626
0.597453
0.576734
0.550571
0.521119
0.489981
0.458346
0.427093
0.397127
0.617361
0.596593
0.583788
0.564529
0.539703
0.511437
0.481347
0.450614
0.420135
0.391082
0.596616
0.577027
0.566022
0.548692
0.525637
0.498942
0.470241
0.440701
0.411248
0.383387
0.571197
0.553056
0.544267
0.529319
0.508455
0.483704
0.456721
0.428661
0.400473
0.374068
0.541285
0.524845
0.518663
0.506528
0.488257
0.465808
0.440861
0.414556
0.387865
0.363159
0.507095
0.492587
0.489377
0.48046
0.465165
0.445358
0.422749
0.398463
0.373488
0.350702
0.468879
0.456511
0.456603
0.451282
0.439318
0.422474
0.402487
0.380469
0.357416
0.336748
0.426918
0.41687
0.420561
0.419177
0.410877
0.397291
0.380191
0.360675
0.339733
0.321353
0.381525
0.373951
0.381494
0.384354
0.380015
0.369959
0.355988
0.33919
0.320528
0.304582
0.33304
0.328061
0.339666
0.347035
0.346926
0.340642
0.330018
0.316132
0.299903
0.286502
0.28183
0.279535
0.295365
0.307465
0.311814
0.309515
0.30243
0.29163
0.27796
0.267186
0.228283
0.228727
0.248896
0.265899
0.2749
0.276765
0.273386
0.265821
0.254811
0.246705
0.172808
0.176011
0.200579
0.222612
0.236414
0.242588
0.243053
0.238854
0.230571
0.225126
0.115829
0.121776
0.150752
0.177885
0.196597
0.207189
0.211608
0.21089
0.205366
0.202496
0.0577827
0.0664262
0.0997612
0.132013
0.155699
0.170779
0.179231
0.182105
0.17935
0.178838
-0.000882974
0.010371
0.0479649
0.0852981
0.113976
0.133574
0.146098
0.152686
0.15272
0.154093
-0.0597167
-0.0459725
-0.00427227
0.038046
0.0716896
0.0957948
0.112377
0.122811
0.125854
0.128263
-0.118265
-0.102187
-0.0565808
-0.00943449
0.0291025
0.0576768
0.0782396
0.0926043
0.0992435
0.100996
-0.176077
-0.157859
-0.108589
-0.056836
-0.013526
0.0194535
0.0438582
0.0619598
0.073229
0.0738112
-0.232706
-0.212579
-0.159926
-0.103856
-0.0559425
-0.0186423
0.00951593
0.0310066
0.0467937
0.0525411
-0.28772
-0.26593
-0.210237
-0.150201
-0.0978972
-0.0563954
-0.0245161
0.000194298
0.0199467
0.0316165
-0.340782
-0.317457
-0.259206
-0.195589
-0.139146
-0.0936141
-0.0580723
-0.030216
-0.00719166
0.00901339
-0.391493
-0.366775
-0.306631
-0.239744
-0.179455
-0.130121
-0.0910492
-0.0601266
-0.0342584
-0.0145977
-0.4394
-0.413294
-0.352482
-0.282381
-0.218608
-0.165741
-0.123333
-0.089462
-0.0609589
-0.038287
-0.484219
-0.456823
-0.396168
-0.323227
-0.256412
-0.2003
-0.154786
-0.118123
-0.0871469
-0.0616895
-0.525729
-0.497376
-0.436749
-0.362274
-0.29267
-0.233629
-0.185265
-0.146
-0.112734
-0.084717
-0.563698
-0.5347
-0.474317
-0.399097
-0.327152
-0.265576
-0.214641
-0.172986
-0.137631
-0.10728
-0.597917
-0.568541
-0.508928
-0.43328
-0.359789
-0.296009
-0.242795
-0.198981
-0.161749
-0.129261
-0.62824
-0.598701
-0.540411
-0.464886
-0.390345
-0.324794
-0.269625
-0.223895
-0.185012
-0.150552
-0.654575
-0.625056
-0.568576
-0.493822
-0.418721
-0.351869
-0.295046
-0.247641
-0.207362
-0.171075
-0.676887
-0.647544
-0.593301
-0.519961
-0.44485
-0.377154
-0.319037
-0.270142
-0.228733
-0.190801
-0.695194
-0.666164
-0.614528
-0.543217
-0.468669
-0.400568
-0.341546
-0.29143
-0.248985
-0.209802
-0.709571
-0.680972
-0.632254
-0.563546
-0.490134
-0.42207
-0.362492
-0.311453
-0.26795
-0.228334
-0.720147
-0.692081
-0.646519
-0.580938
-0.509224
-0.441648
-0.381858
-0.33019
-0.285919
-0.246124
-0.727107
-0.699659
-0.657413
-0.595418
-0.525946
-0.459313
-0.399657
-0.347649
-0.302822
-0.262592
-0.730683
-0.703928
-0.665075
-0.607042
-0.540325
-0.475089
-0.415913
-0.363826
-0.318597
-0.277838
-0.73115
-0.705158
-0.669684
-0.615901
-0.552414
-0.489015
-0.430656
-0.378739
-0.33329
-0.292126
-0.72882
-0.703661
-0.671467
-0.622123
-0.562286
-0.501146
-0.443937
-0.392438
-0.346973
-0.305609
-0.724031
-0.699775
-0.670692
-0.625871
-0.570037
-0.511554
-0.455822
-0.404991
-0.359705
-0.318338
-0.717138
-0.693856
-0.667663
-0.627339
-0.575783
-0.520324
-0.466389
-0.416469
-0.371536
-0.330337
-0.708507
-0.686268
-0.662713
-0.626753
-0.579659
-0.527551
-0.475719
-0.426949
-0.382525
-0.341639
-0.698498
-0.677367
-0.65619
-0.624362
-0.581817
-0.533339
-0.483901
-0.436511
-0.392744
-0.352291
-0.687461
-0.667498
-0.648442
-0.620438
-0.582426
-0.537797
-0.491025
-0.445243
-0.402273
-0.362355
-0.675724
-0.656981
-0.63981
-0.615265
-0.581667
-0.541043
-0.497185
-0.453235
-0.411199
-0.371905
-0.66359
-0.646108
-0.630608
-0.609136
-0.579735
-0.543197
-0.502473
-0.460577
-0.419614
-0.381021
-0.651325
-0.635136
-0.621117
-0.602335
-0.576832
-0.544383
-0.506981
-0.467359
-0.427609
-0.38979
-0.639162
-0.624282
-0.61158
-0.595135
-0.57317
-0.544729
-0.510798
-0.473665
-0.435279
-0.627295
-0.613725
-0.602195
-0.587774
-0.56896
-0.544369
-0.514008
-0.479575
-0.615881
-0.603603
-0.593122
-0.580456
-0.564411
-0.543439
-0.516692
-0.605048
-0.59402
-0.584484
-0.573342
-0.559716
-0.59489
-0.585047
-0.576373
-0.566557
-0.585473
-0.576728
-0.568849
-0.576838
-0.569086
-0.568996
-0.562117
-0.561926
0.125693
0.128298
0.131388
0.137265
0.143133
0.151337
0.158919
0.168168
0.175331
0.183024
0.18558
0.187061
0.177644
0.16651
0.131321
0.126313
0.128967
0.132122
0.138153
0.144195
0.15271
0.160695
0.170573
0.178605
0.187562
0.191836
0.195701
0.189322
0.182248
0.153951
0.1269
0.129606
0.132806
0.138962
0.145143
0.153918
0.162253
0.172679
0.181501
0.191609
0.197526
0.203635
0.200411
0.197009
0.174884
0.127481
0.130231
0.133476
0.139759
0.146081
0.15512
0.163798
0.174766
0.184347
0.195557
0.203037
0.211245
0.211065
0.211128
0.194676
0.128043
0.130833
0.134129
0.140538
0.146997
0.156295
0.165306
0.176794
0.187107
0.199364
0.208354
0.21854
0.221323
0.224683
0.213597
0.128585
0.131411
0.13476
0.141293
0.147882
0.157427
0.166755
0.178739
0.189752
0.202998
0.213441
0.225486
0.231131
0.237637
0.23163
0.129107
0.131977
0.135367
0.14202
0.148733
0.158516
0.168147
0.180599
0.192281
0.206454
0.218291
0.232073
0.240451
0.249955
0.248745
0.129609
0.13252
0.135951
0.142721
0.149552
0.159561
0.169479
0.182372
0.194691
0.209729
0.222892
0.238295
0.249255
0.261603
0.264909
0.13009
0.13304
0.13652
0.143395
0.150335
0.160559
0.170749
0.184055
0.196977
0.212818
0.227233
0.244142
0.257521
0.27255
0.280084
0.130549
0.133536
0.137089
0.144041
0.151083
0.161508
0.171955
0.185645
0.199135
0.215714
0.231303
0.249606
0.265227
0.282765
0.294226
0.130986
0.134006
0.137526
0.144655
0.151794
0.162407
0.173094
0.187137
0.201159
0.218414
0.235092
0.254675
0.272358
0.292217
0.307292
0.1314
0.134454
0.138023
0.145235
0.152466
0.163253
0.174165
0.18853
0.203045
0.220913
0.23859
0.259342
0.278896
0.300881
0.319245
0.13179
0.134878
0.138469
0.145784
0.153099
0.164046
0.175164
0.189822
0.204788
0.223206
0.24179
0.263594
0.284829
0.308732
0.330049
0.132157
0.135276
0.138886
0.146303
0.153692
0.164783
0.176089
0.191009
0.206384
0.225289
0.244683
0.267424
0.290144
0.31575
0.339673
0.132499
0.135646
0.139278
0.146788
0.154242
0.165463
0.176939
0.192091
0.20783
0.227159
0.247263
0.270823
0.29483
0.321917
0.348094
0.132817
0.135988
0.139652
0.147234
0.154748
0.166084
0.177711
0.193063
0.209121
0.228809
0.249524
0.273782
0.298877
0.327217
0.35529
0.133109
0.136302
0.139915
0.147642
0.15521
0.166651
0.178406
0.193928
0.210258
0.230235
0.25146
0.276294
0.302278
0.33164
0.361248
0.133377
0.136589
0.140245
0.148008
0.155625
0.16717
0.17903
0.194697
0.21125
0.231449
0.253072
0.278356
0.305028
0.335176
0.365957
0.133618
0.136847
0.140536
0.148331
0.155994
0.167613
0.179554
0.195323
0.212081
0.232484
0.254374
0.279973
0.307125
0.33782
0.369413
0.133834
0.137078
0.14079
0.148612
0.156314
0.167986
0.179985
0.195837
0.212589
0.233236
0.255307
0.2811
0.30854
0.339547
0.371595
0.07199
0.0699728
0.0665122
0.0620015
0.0567786
0.0510945
0.0451784
0.0392136
0.0333648
0.0277502
0.0224632
0.0175533
0.0130538
0.00896294
0.00527401
0.072509
0.0704944
0.0670438
0.0625373
0.0573065
0.0515941
0.0456315
0.0396022
0.0336765
0.027974
0.0225936
0.0175866
0.0129907
0.00880353
0.00501951
0.0734743
0.0714663
0.0680356
0.0635397
0.0582968
0.0525361
0.0464906
0.0403453
0.0342775
0.0284118
0.0228556
0.0176652
0.0128858
0.00851604
0.00455258
0.0748185
0.0728219
0.0694251
0.0649516
0.0597002
0.0538805
0.0477271
0.0414249
0.0351614
0.0290667
0.0232615
0.0178091
0.0127662
0.00813298
0.00390914
0.0764794
0.0745011
0.0711574
0.0667247
0.0614767
0.0555971
0.0493219
0.0428337
0.0363314
0.0299515
0.0238322
0.0180452
0.0126633
0.0076884
0.00312525
0.0783998
0.0764493
0.0731838
0.0688163
0.0635917
0.0576615
0.0512629
0.0445714
0.0377985
0.0310868
0.0245952
0.0184061
0.0126127
0.00721949
0.0022384
0.0805277
0.078617
0.0754596
0.0711867
0.0660137
0.0600531
0.0535424
0.0466427
0.039579
0.032498
0.0255836
0.0189297
0.0126548
0.0067668
0.00128816
0.0828152
0.0809594
0.0779438
0.0737983
0.0687133
0.0627532
0.0561546
0.0490546
0.0416923
0.0342147
0.0268348
0.019658
0.0128338
0.00637451
0.000316985
0.0852186
0.083436
0.0805976
0.0766147
0.0716619
0.0657434
0.0590939
0.0518145
0.0441589
0.0362685
0.0283891
0.0206367
0.0131982
0.00609076
-0.000629016
0.0876983
0.0860105
0.0833844
0.0796007
0.0748309
0.0690044
0.0623535
0.0549288
0.0469993
0.038692
0.0302892
0.0219149
0.0138002
0.00596786
-0.0014995
0.0902189
0.0886506
0.086269
0.0827221
0.0781917
0.0725154
0.0659242
0.0584015
0.0502322
0.0415173
0.0325788
0.0235441
0.014696
0.00606237
-0.00223954
0.092749
0.0913274
0.0892171
0.0859459
0.081715
0.076253
0.0697932
0.0622325
0.0538736
0.044775
0.035302
0.0255778
0.0159446
0.00643507
-0.00278935
0.0952618
0.0940153
0.0921961
0.0892412
0.0853704
0.0801915
0.0739439
0.0664177
0.0579352
0.0484927
0.0385017
0.0280701
0.0176082
0.0071507
-0.00308429
0.0977346
0.0966909
0.0951756
0.0925796
0.0891266
0.0843031
0.0783551
0.0709472
0.0624237
0.0526939
0.0422186
0.0310754
0.0197505
0.00827765
-0.00305486
0.100149
0.0993331
0.0981276
0.0959347
0.0929514
0.0885583
0.0830008
0.0758058
0.0673393
0.0573964
0.0464901
0.0346466
0.022437
0.00988749
-0.00262696
0.10249
0.101923
0.101028
0.0992825
0.0968118
0.0929263
0.0878499
0.0809726
0.0726752
0.0626114
0.0513484
0.0388344
0.0257332
0.0120544
-0.00172229
0.104746
0.104442
0.103856
0.1026
0.100676
0.0973763
0.092867
0.0864218
0.0784161
0.0683424
0.05682
0.0436854
0.0297038
0.0148543
-0.000258866
0.106909
0.106878
0.106596
0.105867
0.104512
0.101877
0.0980124
0.0921229
0.0845375
0.0745853
0.0629235
0.0492407
0.0344119
0.0183642
0.00184808
0.108973
0.109216
0.109234
0.109062
0.108294
0.106395
0.103245
0.0980412
0.0910058
0.0813278
0.0696677
0.0555347
0.0399179
0.0226603
0.00468505
0.110934
0.111448
0.111762
0.112168
0.111996
0.1109
0.108521
0.104138
0.0977784
0.0885502
0.0770498
0.0625943
0.0462779
0.0278163
0.00833897
0.11279
0.113566
0.114173
0.115168
0.115597
0.115359
0.1138
0.11037
0.104805
0.096225
0.0850533
0.0704395
0.0535416
0.0339014
0.0128953
0.114539
0.115566
0.116463
0.118048
0.119081
0.119739
0.119044
0.116689
0.112031
0.104316
0.0936472
0.0790844
0.0617511
0.0409803
0.0184368
0.116182
0.117446
0.118629
0.120796
0.122433
0.124012
0.124215
0.123044
0.119398
0.112775
0.102786
0.0885364
0.0709376
0.0491191
0.025046
0.117721
0.119207
0.120671
0.123404
0.125641
0.12815
0.129281
0.129382
0.126847
0.121543
0.112411
0.0987913
0.0811155
0.0583952
0.0328203
0.119156
0.120849
0.122588
0.125867
0.128696
0.132129
0.134213
0.135646
0.134322
0.130548
0.122458
0.109829
0.0922684
0.0688931
0.0418849
0.120492
0.122376
0.124382
0.128181
0.131593
0.135932
0.138986
0.141787
0.141767
0.139709
0.132859
0.121616
0.104338
0.0806609
0.052322
0.121732
0.123792
0.126056
0.130348
0.134328
0.139547
0.143581
0.147762
0.149137
0.148941
0.143556
0.134103
0.117253
0.0936545
0.0639144
0.122879
0.125102
0.127613
0.132369
0.136901
0.142966
0.147983
0.15353
0.156382
0.158138
0.15447
0.147193
0.131029
0.107866
0.0758841
0.123938
0.126307
0.129053
0.134238
0.139298
0.146162
0.152145
0.15902
0.163397
0.167144
0.165458
0.160739
0.145927
0.124067
0.0878597
0.124912
0.127413
0.130363
0.135938
0.14147
0.149078
0.155965
0.164126
0.170028
0.175847
0.176399
0.174815
0.162552
0.144975
0.104181
0.00291843
0.00169373
0.000480173
-0.000718807
-0.00190526
-0.00308052
-0.00424393
-0.00539394
-0.006529
-0.00764787
-0.0087495
-0.00983289
-0.010897
-0.011941
-0.0129637
-0.0139645
-0.0149422
-0.0158963
-0.0168258
-0.01773
0.00260291
0.00136153
0.000140541
-0.00106614
-0.00226387
-0.00345329
-0.0046324
-0.00579899
-0.00695152
-0.00808885
-0.00920995
-0.0103137
-0.0113991
-0.0124649
-0.0135101
-0.0145336
-0.0155345
-0.0165119
-0.017465
-0.018393
0.0020158
0.000730397
-0.000518357
-0.00175381
-0.0029862
-0.00421409
-0.00543273
-0.0066388
-0.00783072
-0.0090076
-0.0101684
-0.0113121
-0.0124371
-0.0135424
-0.0146266
-0.0156888
-0.0167277
-0.0177425
-0.018732
-0.0196953
0.00119383
-0.000162006
-0.0014562
-0.0027372
-0.00402255
-0.00530789
-0.00658465
-0.00784795
-0.00909634
-0.0103294
-0.0115462
-0.0127455
-0.0139259
-0.0150858
-0.0162242
-0.0173397
-0.0184313
-0.0194978
-0.0205382
-0.0215518
0.000174553
-0.00127791
-0.00263563
-0.00397963
-0.00533717
-0.00670011
-0.00805482
-0.00939451
-0.010718
-0.0120254
-0.0133161
-0.0145887
-0.0158415
-0.017073
-0.0182819
-0.0194669
-0.0206267
-0.0217603
-0.0228665
-0.0239446
-0.00100479
-0.00258109
-0.00402189
-0.00544765
-0.0068977
-0.00835928
-0.00981255
-0.0112484
-0.0126661
-0.0140666
-0.0154495
-0.0168134
-0.0181562
-0.0194763
-0.0207724
-0.0220431
-0.0232871
-0.0245033
-0.0256905
-0.0268479
-0.00230597
-0.00403522
-0.00558099
-0.00710928
-0.00867391
-0.0102567
-0.0118306
-0.013384
-0.0149165
-0.0164303
-0.0179252
-0.0193996
-0.0208514
-0.0222786
-0.0236799
-0.0250539
-0.0263993
-0.0277148
-0.0289993
-0.0302522
-0.00368849
-0.00560251
-0.00727849
-0.00893296
-0.0106366
-0.0123654
-0.014084
-0.015778
-0.017448
-0.0190971
-0.0207256
-0.0223317
-0.0239129
-0.0254673
-0.0269933
-0.0284897
-0.029955
-0.031388
-0.0327874
-0.0341529
-0.00510848
-0.00724248
-0.0090784
-0.0108864
-0.0127564
-0.0146583
-0.0165481
-0.0184084
-0.0202407
-0.0220496
-0.0238355
-0.0255965
-0.0273297
-0.0290333
-0.0307055
-0.032345
-0.0339506
-0.0355208
-0.0370543
-0.0385513
-0.00651788
-0.00891117
-0.0109424
-0.012936
-0.0150031
-0.0171081
-0.0191983
-0.0212534
-0.0232759
-0.0252716
-0.0272414
-0.0291829
-0.0310931
-0.03297
-0.034812
-0.0366178
-0.0383859
-0.0401149
-0.0418035
-0.0434527
-0.00786387
-0.0105605
-0.0128293
-0.0150459
-0.0173447
-0.0196862
-0.0220092
-0.0242908
-0.0265346
-0.0287474
-0.0309304
-0.0330808
-0.0351957
-0.0372729
-0.0393107
-0.041308
-0.0432632
-0.0451749
-0.0470414
-0.0488652
-0.00908839
-0.0121378
-0.0146946
-0.0171781
-0.0197474
-0.0223619
-0.0249538
-0.0274976
-0.0299975
-0.0324612
-0.03489
-0.037281
-0.0396312
-0.0419382
-0.0442007
-0.0464174
-0.0485867
-0.0507071
-0.0527764
-0.0547996
-0.0101279
-0.0135856
-0.0164903
-0.0192919
-0.0221751
-0.0251029
-0.0280035
-0.0308493
-0.0336444
-0.0363967
-0.0391076
-0.0417742
-0.0443937
-0.0469638
-0.049483
-0.05195
-0.054363
-0.0567202
-0.0590187
-0.0612678
-0.0109134
-0.0148413
-0.0181649
-0.0213437
-0.0245888
-0.0278742
-0.0311279
-0.0343204
-0.0374543
-0.040537
-0.0435699
-0.0465507
-0.0494768
-0.0523465
-0.0551584
-0.0579114
-0.0606035
-0.0632308
-0.0657868
-0.0682903
-0.0113703
-0.0158373
-0.0196631
-0.0232869
-0.0269472
-0.0306385
-0.0342947
-0.0378839
-0.0414055
-0.0448648
-0.0482637
-0.0516006
-0.0548736
-0.0580813
-0.0612227
-0.0642978
-0.0673057
-0.0702465
-0.073098
-0.0758947
-0.0114186
-0.0165014
-0.020926
-0.0250721
-0.0292057
-0.033356
-0.0374699
-0.0415124
-0.045476
-0.0493633
-0.0531766
-0.0569158
-0.0605799
-0.0641672
-0.0676761
-0.0711047
-0.0744521
-0.0777193
-0.0809353
-0.0840672
-0.0109736
-0.0167562
-0.0218905
-0.0266458
-0.0313164
-0.0359841
-0.0406177
-0.0451769
-0.0496436
-0.054016
-0.0582977
-0.0624917
-0.0665979
-0.0706148
-0.0745409
-0.078375
-0.0821172
-0.0857687
-0.0893483
-0.0928412
-0.00994619
-0.0165204
-0.0224902
-0.027951
-0.0332273
-0.0384768
-0.0436999
-0.0488472
-0.0538844
-0.0588044
-0.0636141
-0.0683201
-0.0729237
-0.0774232
-0.0818166
-0.0861028
-0.0902819
-0.0943543
-0.0983443
-0.102241
-0.00824434
-0.0157092
-0.0226547
-0.0289261
-0.0348821
-0.0407848
-0.0466764
-0.0524915
-0.0581734
-0.0637094
-0.0691122
-0.0743934
-0.0795553
-0.0845949
-0.0895099
-0.0942991
-0.0989626
-0.1035
-0.107946
-0.112292
-0.00577471
-0.0142362
-0.0223107
-0.0295046
-0.0362192
-0.0428557
-0.0495054
-0.056077
-0.0624843
-0.068711
-0.0747787
-0.080705
-0.0864923
-0.0921358
-0.0976324
-0.102981
-0.10818
-0.113225
-0.118175
-0.123016
-0.0024459
-0.0120162
-0.0213825
-0.0296142
-0.0371715
-0.0446335
-0.0521439
-0.0595698
-0.0667896
-0.073788
-0.0806
-0.0872484
-0.0937341
-0.100051
-0.106198
-0.112172
-0.117967
-0.123568
-0.129072
-0.134458
0.00182561
-0.00897167
-0.0197946
-0.0291756
-0.0376649
-0.0460599
-0.0545481
-0.0629341
-0.0710596
-0.078919
-0.0865635
-0.0940181
-0.101279
-0.108339
-0.1152
-0.121872
-0.128358
-0.134576
-0.140698
-0.14667
0.00710719
-0.00504404
-0.0174755
-0.0281028
-0.0376202
-0.0470758
-0.0566732
-0.0661313
-0.0752621
-0.0840825
-0.0926601
-0.101016
-0.109136
-0.117008
-0.124627
-0.131995
-0.139125
-0.146208
-0.153057
-0.159663
0.013447
-0.000199947
-0.0143614
-0.0263057
-0.0369577
-0.0476251
-0.0584736
-0.0691174
-0.0793606
-0.0892563
-0.0988823
-0.108248
-0.117332
-0.126123
-0.134622
-0.142836
-0.150772
-0.158579
-0.166157
-0.173464
0.0208765
0.00557535
-0.0103848
-0.0236875
-0.0356029
-0.0476586
-0.0599017
-0.0718428
-0.0833153
-0.0944159
-0.105218
-0.115713
-0.125872
-0.13569
-0.145163
-0.154283
-0.163047
-0.171676
-0.180063
-0.188132
0.0293981
0.0123029
-0.0054437
-0.0201312
-0.033484
-0.0471283
-0.0609009
-0.0742486
-0.0870821
-0.0995329
-0.111648
-0.123395
-0.134748
-0.145712
-0.156292
-0.166477
-0.176152
-0.185682
-0.194918
-0.203774
0.0388897
0.0199928
0.000609612
-0.0154915
-0.0305242
-0.0459764
-0.0614018
-0.0762758
-0.0906259
-0.104587
-0.118159
-0.13129
-0.143953
-0.156134
-0.167823
-0.179038
-0.190044
-0.200668
-0.2108
-0.220469
0.0488478
0.0284355
0.00786724
-0.00962268
-0.0266177
-0.044076
-0.0612653
-0.0778201
-0.0938766
-0.109524
-0.124718
-0.139404
-0.153558
-0.167146
-0.180127
-0.192518
-0.20479
-0.216537
-0.22766
-0.238243
0.0582061
0.0367935
0.0159959
-0.00274186
-0.0218882
-0.0414124
-0.060456
-0.078888
-0.0968584
-0.114371
-0.131359
-0.147792
-0.163669
-0.178961
-0.193584
-0.207219
-0.220615
-0.233443
-0.24559
-0.257145
0.0663167
0.044634
0.0247327
0.00484107
-0.0162097
-0.0374874
-0.0583411
-0.0787601
-0.0987714
-0.118288
-0.137221
-0.155525
-0.173173
-0.190144
-0.206439
-0.222363
-0.237445
-0.251495
-0.264707
-0.27725
-0.0186088
-0.0194616
-0.0202875
-0.021086
-0.0218567
-0.0225993
-0.0233134
-0.0239988
-0.0246553
-0.0192949
-0.02017
-0.0210177
-0.0218375
-0.0226289
-0.0233914
-0.0241245
-0.024828
-0.0255016
-0.0206321
-0.0215414
-0.0224223
-0.0232743
-0.0240968
-0.0248894
-0.0256516
-0.026383
-0.0270835
-0.0225376
-0.0234948
-0.0244226
-0.0253203
-0.0261874
-0.0270234
-0.0278278
-0.0286004
-0.0293408
-0.0249936
-0.0260127
-0.027001
-0.0279577
-0.0288824
-0.0297746
-0.0306337
-0.0314596
-0.0322519
-0.0279748
-0.02907
-0.0301327
-0.0311622
-0.0321579
-0.0331194
-0.0340463
-0.0349382
-0.0357949
-0.0314726
-0.0326593
-0.0338114
-0.0349284
-0.0360096
-0.0370546
-0.038063
-0.0390346
-0.0399692
-0.0354837
-0.0367785
-0.0380363
-0.0392564
-0.0404385
-0.0415822
-0.0426871
-0.043753
-0.0447797
-0.040011
-0.0414318
-0.0428129
-0.0441535
-0.0454534
-0.0467123
-0.0479299
-0.049106
-0.0502405
-0.0450614
-0.0466281
-0.0481517
-0.0496317
-0.0510678
-0.05246
-0.0538079
-0.0551116
-0.056371
-0.0506454
-0.0523797
-0.0540671
-0.055707
-0.0572996
-0.0588447
-0.0603425
-0.0617928
-0.063196
-0.0567756
-0.0587016
-0.060576
-0.0623985
-0.0641695
-0.0658893
-0.0675582
-0.0691762
-0.0634667
-0.0656108
-0.0676977
-0.0697275
-0.0717012
-0.0736196
-0.0754829
-0.0772914
-0.0707408
-0.0731309
-0.0754573
-0.0777207
-0.079923
-0.0820653
-0.0841478
-0.0861712
-0.0786263
-0.0812864
-0.0838775
-0.086402
-0.0888608
-0.0912541
-0.0935828
-0.0958478
-0.0871145
-0.0900827
-0.0929755
-0.0957947
-0.0985412
-0.101216
-0.10382
-0.106356
-0.0962432
-0.0995565
-0.102785
-0.105931
-0.108997
-0.111984
-0.114895
-0.117732
-0.106037
-0.109733
-0.113332
-0.11684
-0.120259
-0.123592
-0.126843
-0.130012
-0.116524
-0.120641
-0.124648
-0.128553
-0.132361
-0.136074
-0.139696
-0.143231
-0.127729
-0.132308
-0.136763
-0.141103
-0.145335
-0.149463
-0.153491
-0.157424
-0.139693
-0.144773
-0.149714
-0.154526
-0.159218
-0.163795
-0.168262
-0.172626
-0.152462
-0.158079
-0.163541
-0.168861
-0.174045
-0.179102
-0.184038
-0.188862
-0.166052
-0.172249
-0.178274
-0.184137
-0.189847
-0.195414
-0.200847
-0.206158
-0.180514
-0.187337
-0.19396
-0.2004
-0.206666
-0.21277
-0.218725
-0.224545
-0.195892
-0.203382
-0.21064
-0.217684
-0.22453
-0.231193
-0.23769
-0.244041
-0.212271
-0.220459
-0.228374
-0.236039
-0.243472
-0.250696
-0.257734
-0.264612
-0.22974
-0.238655
-0.247245
-0.255535
-0.263549
-0.271317
-0.278868
-0.286235
-0.248365
-0.258063
-0.267364
-0.276297
-0.284896
-0.293197
-0.301236
-0.309052
-0.268178
-0.278716
-0.288779
-0.2984
-0.307618
-0.316477
-0.325024
-0.333307
-0.289184
-0.300531
-0.31132
-0.321584
-0.33137
-0.340731
-0.349729
-0.358425
)
;

boundaryField
{
    inlet
    {
        type            zeroGradient;
    }
    outlet
    {
        type            fixedValue;
        value           nonuniform 0();
    }
    cylinder
    {
        type            zeroGradient;
    }
    top
    {
        type            symmetryPlane;
    }
    bottom
    {
        type            symmetryPlane;
    }
    defaultFaces
    {
        type            empty;
    }
    procBoundary0to1
    {
        type            processor;
        value           nonuniform List<scalar> 
50
(
-0.398304
-0.398304
-0.442711
-0.442711
-0.48516
-0.542083
-0.48516
-0.518931
-0.542083
-0.555047
-0.555047
-0.560196
-0.560196
-0.561949
-0.561949
-0.555686
-0.555799
-0.555799
-0.555571
-0.0252826
-0.0261449
-0.0277528
-0.0300488
-0.0330104
-0.0366163
-0.0408665
-0.0457672
-0.0513334
-0.0575863
-0.0645521
-0.0707436
-0.0707436
-0.0790456
-0.0881364
-0.0980504
-0.108825
-0.120496
-0.133104
-0.146682
-0.161266
-0.176892
-0.193583
-0.211356
-0.230241
-0.250258
-0.271353
-0.29345
-0.316688
-0.341376
-0.366889
)
;
    }
    procBoundary0to2
    {
        type            processor;
        value           nonuniform List<scalar> 
26
(
0.647267
0.625023
0.609919
0.590997
0.590997
0.563504
0.532873
0.500691
0.468157
0.43613
0.405196
0.134025
0.137278
0.141009
0.148851
0.15658
0.1683
0.180348
0.19625
0.213089
0.233798
0.255947
0.281807
0.309328
0.340405
0.372539
)
;
    }
}


// ************************************************************************* //
