/*--------------------------------*- C++ -*----------------------------------*\
  =========                 |
  \\      /  F ield         | OpenFOAM: The Open Source CFD Toolbox
   \\    /   O peration     | Website:  https://openfoam.org
    \\  /    A nd           | Version:  7
     \\/     M anipulation  |
\*---------------------------------------------------------------------------*/
FoamFile
{
    version     2.0;
    format      ascii;
    class       volVectorField;
    location    "275";
    object      U;
}
// * * * * * * * * * * * * * * * * * * * * * * * * * * * * * * * * * * * * * //

dimensions      [0 1 -1 0 0 0 0];

internalField   nonuniform List<vector> 
2125
(
(1.34431 -0.174749 -7.99905e-21)
(1.32137 -0.167184 -2.34126e-20)
(1.34152 -0.163252 -3.91804e-21)
(1.22643 -0.140573 1.64094e-20)
(1.30213 -0.153327 -1.87102e-21)
(1.33471 -0.15142 1.94047e-20)
(0.804621 -0.0649974 4.67001e-20)
(1.01952 -0.0977946 -9.69454e-20)
(1.17789 -0.122829 1.95361e-20)
(1.27484 -0.138903 -1.48847e-20)
(1.32253 -0.139102 -2.05276e-20)
(0.477995 -0.0240781 9.68424e-21)
(0.713498 -0.0492788 -7.90604e-20)
(0.93841 -0.0793102 5.30929e-20)
(1.11784 -0.104839 -4.07003e-20)
(1.23781 -0.123889 3.98818e-20)
(1.30328 -0.12616 -1.66474e-21)
(0.213921 -0.00961486 -3.54433e-22)
(0.397571 -0.0177485 3.24512e-20)
(0.619871 -0.0361888 1.74659e-21)
(0.848305 -0.0621364 -4.26031e-20)
(1.04562 -0.0868838 -1.03562e-21)
(1.18931 -0.108362 -1.72226e-20)
(1.27489 -0.11246 2.00809e-20)
(0.0540518 -0.013094 6.17272e-21)
(0.162619 -0.0110054 1.72967e-20)
(0.322493 -0.0140432 -2.91456e-20)
(0.52652 -0.0259585 6.77706e-20)
(0.751216 -0.0468185 -2.47138e-22)
(0.961253 -0.0693764 -5.2982e-21)
(1.12792 -0.092519 -3.33117e-20)
(1.23487 -0.0979973 -4.45463e-21)
(0.0293899 -0.0170142 4.8048e-21)
(0.117835 -0.0132321 -1.24677e-20)
(0.253997 -0.0124082 -1.43882e-20)
(0.436196 -0.0185753 -9.20039e-21)
(0.650008 -0.03387 -6.56198e-21)
(0.865814 -0.0528611 8.09577e-21)
(1.05268 -0.0767426 3.22844e-20)
(1.18087 -0.0827899 2.32515e-20)
(-0.0223953 -0.021543 2.65081e-20)
(0.00924108 -0.0204509 -6.09787e-20)
(0.0794368 -0.0157352 3.39494e-20)
(0.192814 -0.0122233 2.92806e-20)
(0.351275 -0.013771 -7.32058e-20)
(0.548112 -0.0236522 1.95233e-20)
(0.761533 -0.0379689 -1.05967e-21)
(0.96388 -0.0615762 1.32671e-20)
(1.10974 -0.0673413 -2.58516e-20)
(-0.0190735 -0.0143444 7.45656e-20)
(-0.0274911 -0.023681 -2.06262e-20)
(-0.00676501 -0.0231139 2.99566e-20)
(0.047146 -0.0180778 1.8697e-20)
(0.139258 -0.0129203 -1.0274e-20)
(0.273551 -0.0111046 2.35781e-20)
(0.449062 -0.0162666 -9.42509e-21)
(0.651845 -0.0253601 5.27373e-20)
(0.862849 -0.0476966 -8.19023e-20)
(1.02155 -0.0523119 -2.71074e-20)
(-0.0183608 -0.0144529 -2.19643e-20)
(-0.0305302 -0.0248038 8.23515e-20)
(-0.0190024 -0.0248317 -6.47202e-20)
(0.0206121 -0.019977 -1.90423e-21)
(0.0933619 -0.01407 -2.95113e-20)
(0.20423 -0.0101003 3.17231e-20)
(0.356019 -0.0115438 3.35675e-20)
(0.5409 -0.0156796 -1.62145e-20)
(0.753568 -0.0358381 1.38596e-20)
(0.910541 -0.0391112 1.61024e-20)
(-0.0170938 -0.0140095 4.48669e-21)
(-0.0317785 -0.0248856 -2.26568e-20)
(-0.0278423 -0.0255563 2.80404e-20)
(-0.00054798 -0.02131 -2.6195e-20)
(0.0549848 -0.0154224 -3.1513e-20)
(0.144028 -0.0103755 -1.37483e-20)
(0.271444 -0.00916342 -5.03455e-20)
(0.43343 -0.00962943 3.04058e-20)
(0.640018 -0.0240576 5.34814e-20)
(0.783689 -0.0400467 -1.56293e-20)
(-0.015383 -0.0130301 1.39325e-20)
(-0.0315057 -0.023973 1.07769e-20)
(-0.0336633 -0.0253476 -2.58663e-21)
(-0.0167435 -0.0220952 -4.54266e-20)
(0.0238677 -0.0168987 4.66076e-20)
(0.0932826 -0.0117068 5.1143e-20)
(0.197077 -0.00886295 1.70679e-20)
(0.334463 -0.00747241 -2.96305e-21)
(0.519743 -0.0102377 -5.56219e-20)
(0.685404 -0.0397832 1.7583e-20)
(-0.0133493 -0.0115634 -4.20142e-20)
(-0.0299968 -0.0221774 -5.2949e-21)
(-0.0368597 -0.0243426 1.12097e-20)
(-0.0284284 -0.0224507 3.48462e-21)
(-0.000374558 -0.0185433 1.41333e-20)
(0.0519952 -0.0140192 -8.2012e-20)
(0.134073 -0.0105139 4.77534e-20)
(0.24759 -0.00841048 -5.46407e-20)
(0.403492 -0.0010913 3.88276e-20)
(0.587414 -0.0289552 4.3757e-20)
(-0.011122 -0.00968711 1.85303e-20)
(-0.0275484 -0.0196556 -1.18291e-20)
(-0.0378532 -0.0227191 5.23778e-21)
(-0.0361282 -0.0225368 -2.47789e-20)
(-0.018294 -0.0204567 3.41138e-21)
(0.0198192 -0.0173193 -6.37351e-21)
(0.08297 -0.0140847 -2.96134e-20)
(0.174669 -0.0117842 1.53777e-20)
(0.299954 0.000789103 2.79208e-20)
(0.485808 -0.0177741 -3.96288e-20)
(-0.00883032 -0.00749788 -2.58251e-20)
(-0.0244595 -0.0165826 -3.79291e-20)
(-0.0370966 -0.0206597 2.97565e-20)
(-0.0404572 -0.0225005 2.83897e-20)
(-0.0306453 -0.022724 -6.89495e-20)
(-0.00398435 -0.0215903 6.64189e-20)
(0.0434838 -0.0194882 -7.20415e-20)
(0.116029 -0.0174328 1.90648e-20)
(0.213707 -0.00405239 -1.99803e-20)
(0.384903 -0.0125662 -2.97468e-20)
(-0.00659285 -0.00509776 1.3177e-20)
(-0.0210191 -0.0131261 3.05056e-20)
(-0.0350627 -0.0183144 7.84909e-21)
(-0.0421097 -0.0224288 8.19055e-21)
(-0.0383607 -0.0253405 -5.54664e-22)
(-0.0205545 -0.0267265 1.19052e-20)
(0.0145095 -0.0264937 2.21716e-20)
(0.0710075 -0.0253135 4.00336e-20)
(0.146201 -0.0139776 -3.87259e-20)
(0.292938 -0.0150364 1.28808e-20)
(-0.00450779 -0.00257988 -3.28384e-20)
(-0.0174902 -0.00942442 8.84234e-22)
(-0.0322193 -0.0157788 1.06378e-20)
(-0.0418169 -0.0223305 -1.85145e-20)
(-0.0425118 -0.0281871 3.52858e-20)
(-0.0313489 -0.0324819 -8.18496e-20)
(-0.00571061 -0.0347071 4.24731e-20)
(0.0380193 -0.0351636 -3.72809e-20)
(0.0962231 -0.0273945 6.90389e-20)
(0.216169 -0.0252948 1.68162e-20)
(-0.00264647 -1.52229e-05 1.69321e-20)
(-0.014096 -0.00557051 -3.52121e-20)
(-0.0290031 -0.0130809 -1.04481e-20)
(-0.0403041 -0.0221262 1.52512e-20)
(-0.0442169 -0.0310504 2.52656e-20)
(-0.0379754 -0.0384748 3.62995e-21)
(-0.0193581 -0.0435757 -1.4205e-20)
(0.0146013 -0.0464141 3.17699e-20)
(0.0605375 -0.0429906 -1.67798e-20)
(0.156466 -0.0422152 -1.98441e-21)
(-0.00105532 0.00254963 4.79971e-20)
(-0.0110104 -0.00160413 1.31279e-20)
(-0.0257919 -0.0101826 2.55512e-21)
(-0.0382315 -0.0216599 -3.43897e-20)
(-0.0445275 -0.0336281 3.03784e-20)
(-0.0420185 -0.0442347 9.44536e-21)
(-0.0287235 -0.0524352 4.7224e-21)
(-0.00221655 -0.0582422 -9.93881e-21)
(0.0348585 -0.0595444 1.07735e-20)
(0.111565 -0.0633477 1.71898e-20)
(0.000249636 0.0051017 -3.65102e-20)
(-0.0083509 0.00248702 2.0246e-20)
(-0.0228858 -0.00698919 -2.0227e-21)
(-0.0361498 -0.020723 4.9759e-20)
(-0.0443418 -0.035573 -5.35276e-20)
(-0.0448656 -0.0492547 1.70898e-20)
(-0.0358864 -0.0605875 -1.03497e-20)
(-0.0153463 -0.0696945 -8.79965e-21)
(0.014884 -0.0758091 -2.56005e-20)
(0.0768372 -0.0856643 9.94013e-21)
(0.00127185 0.00766247 1.55971e-20)
(-0.00618845 0.00676333 -4.0303e-20)
(-0.0205004 -0.0033655 -2.25536e-20)
(-0.0344746 -0.0190823 -3.5209e-20)
(-0.0443494 -0.0365354 8.96547e-21)
(-0.0475925 -0.0530543 -3.15766e-21)
(-0.0424784 -0.0674033 -2.73198e-20)
(-0.0271403 -0.0798331 -5.79005e-21)
(-0.00287942 -0.0906005 -5.43713e-22)
(0.0473813 -0.106545 1.16427e-20)
(0.00202519 0.0102718 2.89208e-20)
(-0.00455324 0.0113177 2.8095e-21)
(-0.0187695 0.00084421 1.22867e-20)
(-0.0334807 -0.0165078 5.39247e-20)
(-0.0450116 -0.0362012 5.259e-20)
(-0.0509205 -0.0552178 -9.02975e-21)
(-0.0495401 -0.0723308 2.24629e-20)
(-0.0391508 -0.0879255 -1.41644e-20)
(-0.0207455 -0.103008 -8.03429e-21)
(0.0194853 -0.124291 -1.7025e-20)
(0.00252918 0.0129851 -3.85759e-20)
(-0.00344699 0.0162606 3.22369e-20)
(-0.0177558 0.00579611 1.63258e-20)
(-0.0333119 -0.0127977 -3.07196e-20)
(-0.04657 -0.0343235 -3.46091e-20)
(-0.0552009 -0.0554515 1.12031e-20)
(-0.0575908 -0.0749746 1.22673e-21)
(-0.0521851 -0.0934839 4.44268e-20)
(-0.0398429 -0.112562 2.58304e-20)
(-0.0087898 -0.137972 -9.9837e-21)
(0.00280154 0.0158626 2.12678e-20)
(-0.0028552 0.0217022 -9.38942e-21)
(-0.0174665 0.0116275 -3.37423e-20)
(-0.0340024 -0.00779721 1.46588e-20)
(-0.0490824 -0.0307383 -8.4866e-22)
(-0.0605075 -0.0535883 -4.56101e-20)
(-0.0667337 -0.0751739 -2.3015e-21)
(-0.0664405 -0.096287 -4.20671e-20)
(-0.0602188 -0.118989 -1.82414e-20)
(-0.0377871 -0.147192 2.93994e-20)
(0.00285364 0.0189576 -2.73063e-20)
(-0.00275688 0.0277356 -2.676e-21)
(-0.0178677 0.0184402 -1.82764e-21)
(-0.0354997 -0.00141131 -3.06898e-20)
(-0.0524627 -0.0253706 4.32832e-21)
(-0.0666987 -0.0495781 2.82757e-20)
(-0.0767602 -0.0728984 -1.44909e-20)
(-0.0815635 -0.0962985 2.35122e-20)
(-0.0810968 -0.12204 1.01079e-20)
(-0.0671218 -0.152516 -1.07592e-20)
(0.00268858 0.0223078 1.71284e-20)
(-0.00313105 0.0344211 3.34743e-20)
(-0.0188983 0.0262876 -7.6782e-21)
(-0.0376892 0.00638784 1.56202e-20)
(-0.0565202 -0.0182322 9.96074e-21)
(-0.0734782 -0.0434776 -2.48403e-20)
(-0.087222 -0.0682414 6.09525e-21)
(-0.0968375 -0.0936057 -6.01722e-21)
(-0.101771 -0.121796 7.77903e-21)
(-0.0961347 -0.154738 -1.58829e-20)
(0.00230168 0.0259268 -5.83197e-21)
(-0.00395965 0.0417743 -2.21501e-20)
(-0.02048 0.0351652 3.11916e-20)
(-0.0404144 0.0155589 -1.53693e-20)
(-0.0609976 -0.00941512 7.18365e-21)
(-0.0804589 -0.0354328 2.1258e-20)
(-0.097562 -0.0613957 -1.82088e-20)
(-0.111509 -0.0884427 -4.12999e-21)
(-0.121458 -0.118697 4.49897e-22)
(-0.123598 -0.154105 1.87351e-20)
(0.00168288 0.0297987 -1.90368e-21)
(-0.00522733 0.0497579 -7.04613e-21)
(-0.0225246 0.0450062 -2.81341e-20)
(-0.0434951 0.0259933 5.60495e-21)
(-0.065602 0.000919658 4.61107e-21)
(-0.0872112 -0.0256584 -1.7259e-21)
(-0.107181 -0.0526191 -8.86823e-22)
(-0.124799 -0.0810993 -7.16498e-21)
(-0.139162 -0.113093 1.01074e-20)
(-0.148057 -0.150668 6.67251e-21)
(0.000820548 0.0338751 4.77363e-21)
(-0.00691889 0.0582776 8.53714e-21)
(-0.0249389 0.0556817 2.18971e-20)
(-0.0467417 0.0375212 -1.12878e-20)
(-0.0700307 0.0125539 -9.57646e-21)
(-0.0933006 -0.0144201 -3.71178e-22)
(-0.115488 -0.0422154 1.82038e-20)
(-0.135939 -0.0719083 8.79994e-21)
(-0.153839 -0.105346 -7.13411e-21)
(-0.168112 -0.144686 -8.30652e-21)
(-0.000294011 0.0380756 -8.3703e-22)
(-0.00901541 0.0671835 1.83324e-21)
(-0.0276274 0.0670035 -4.0927e-21)
(-0.0499663 0.0499188 2.88456e-21)
(-0.0739913 0.0252244 2.71393e-21)
(-0.0983173 -0.00202025 1.89949e-21)
(-0.121936 -0.0305222 -3.78062e-21)
(-0.144226 -0.0612426 -1.53835e-20)
(-0.164525 -0.0958695 -2.27499e-21)
(-0.182496 -0.136559 4.40616e-21)
(-0.00166199 0.0422906 1.29496e-21)
(-0.01149 0.076275 -3.25517e-21)
(-0.0304942 0.0787319 -2.61207e-21)
(-0.0529918 0.0629184 1.82727e-21)
(-0.0772174 0.0386343 -2.52635e-21)
(-0.101899 0.0112137 -1.19693e-21)
(-0.126054 -0.0178999 1.24861e-21)
(-0.149062 -0.0495062 6.24716e-21)
(-0.170406 -0.0851154 -2.19423e-21)
(-0.190149 -0.126771 2.21356e-21)
(1.09995 -0.00202525 -1.65413e-23)
(1.10069 -0.00195172 4.82795e-23)
(1.1014 -0.00187592 -5.69637e-23)
(1.10207 -0.00179773 1.91793e-23)
(1.10271 -0.00171704 6.28629e-23)
(1.10332 -0.00163372 5.68592e-24)
(1.10389 -0.00154779 -3.12031e-23)
(1.10442 -0.00145889 -6.09951e-23)
(1.10492 -0.00136776 4.27471e-23)
(1.10537 -0.00127212 -1.97121e-23)
(1.10583 -0.00117809 1.46876e-23)
(1.1013 -0.00601551 -1.39243e-23)
(1.10207 -0.00578613 -7.7311e-24)
(1.10281 -0.00555131 1.23698e-23)
(1.10352 -0.00531088 3.89082e-23)
(1.10419 -0.00506472 -2.03698e-24)
(1.10483 -0.00481258 -8.90028e-24)
(1.10543 -0.00455464 -1.68997e-23)
(1.106 -0.0042899 5.75707e-23)
(1.10653 -0.00402065 1.71513e-23)
(1.10701 -0.00374003 -1.67039e-23)
(1.10751 -0.00346659 -2.90412e-23)
(1.10377 -0.00993864 -2.99681e-23)
(1.1046 -0.00956178 -2.47295e-24)
(1.1054 -0.00917651 8.3528e-25)
(1.10617 -0.00878252 1.01579e-22)
(1.1069 -0.00837964 -1.45996e-22)
(1.1076 -0.00796743 4.09481e-23)
(1.10827 -0.0075462 4.59999e-23)
(1.1089 -0.00711428 2.97297e-23)
(1.10951 -0.00667548 -3.09768e-23)
(1.11005 -0.00621832 -4.27919e-24)
(1.11063 -0.00577383 1.99596e-24)
(1.10724 -0.0139162 4.51261e-23)
(1.10816 -0.0133919 -2.92763e-23)
(1.10905 -0.0128563 9.66032e-23)
(1.10991 -0.012309 -3.56263e-23)
(1.11073 -0.0117499 -2.43248e-23)
(1.11153 -0.0111783 -1.23348e-22)
(1.11229 -0.0105949 6.12406e-24)
(1.11301 -0.00999729 5.31526e-24)
(1.11372 -0.00939102 4.50032e-23)
(1.11436 -0.00875971 -4.13081e-23)
(1.11507 -0.00814774 5.80501e-23)
(1.1116 -0.0179826 4.63959e-23)
(1.11263 -0.0173116 -3.23244e-23)
(1.11364 -0.0166267 -2.63041e-23)
(1.11461 -0.0159274 -9.65046e-24)
(1.11555 -0.0152136 6.37186e-23)
(1.11646 -0.0144846 9.85971e-23)
(1.11735 -0.0137412 -1.05331e-24)
(1.1182 -0.0129803 9.09553e-23)
(1.11903 -0.0122095 -2.6114e-23)
(1.1198 -0.0114067 2.16455e-22)
(1.12067 -0.0106316 -1.07766e-22)
(1.11675 -0.0222067 -6.68622e-23)
(1.11792 -0.0213889 7.80292e-23)
(1.11906 -0.0205547 -6.37385e-23)
(1.12017 -0.0197035 -1.83445e-22)
(1.12126 -0.0188354 2.29255e-23)
(1.12231 -0.0179495 -1.41295e-22)
(1.12335 -0.0170468 7.3577e-23)
(1.12435 -0.0161234 2.68027e-22)
(1.12535 -0.0151895 -2.74579e-23)
(1.12627 -0.0142159 -2.41262e-22)
(1.12734 -0.0132806 -8.60781e-23)
(1.1226 -0.0266251 8.70207e-25)
(1.12393 -0.0256598 -7.12715e-23)
(1.12523 -0.0246756 2.03775e-22)
(1.1265 -0.0236722 1.00825e-22)
(1.12776 -0.0226496 3.98551e-23)
(1.12899 -0.0216066 7.79006e-23)
(1.1302 -0.0205451 -2.24908e-22)
(1.13137 -0.0194596 -4.1527e-22)
(1.13256 -0.0183637 -1.88265e-22)
(1.13367 -0.0172197 2.5957e-24)
(1.13497 -0.0161275 3.71409e-23)
(1.12907 -0.0312754 1.39253e-22)
(1.13058 -0.0301615 1.14009e-22)
(1.13206 -0.0290267 1.55092e-22)
(1.13352 -0.0278705 -2.9161e-22)
(1.13497 -0.0266931 3.5944e-22)
(1.1364 -0.0254931 -1.01241e-22)
(1.13781 -0.0242731 3.35894e-22)
(1.13919 -0.0230259 -2.0239e-22)
(1.14059 -0.0217694 3.21294e-22)
(1.14191 -0.0204553 4.4929e-22)
(1.14347 -0.01921 1.76545e-22)
(1.1361 -0.0361839 1.35776e-22)
(1.1378 -0.0349201 1.90343e-23)
(1.13949 -0.0336337 -4.60298e-22)
(1.14116 -0.032324 1.70049e-22)
(1.14283 -0.0309915 -5.06538e-23)
(1.14447 -0.0296345 -5.09389e-23)
(1.14611 -0.0282564 2.89193e-22)
(1.14772 -0.026848 -3.49944e-23)
(1.14936 -0.0254327 -3.39977e-22)
(1.15091 -0.0239487 -7.06388e-22)
(1.15278 -0.0225551 7.33453e-23)
(1.14361 -0.0413708 -2.32437e-22)
(1.14554 -0.0399557 8.38209e-23)
(1.14745 -0.0385165 6.22225e-22)
(1.14936 -0.0370526 4.14542e-22)
(1.15125 -0.0355647 -4.62775e-22)
(1.15314 -0.0340507 -2.32606e-22)
(1.15503 -0.0325153 -2.48284e-22)
(1.15688 -0.0309465 1.45394e-22)
(1.1588 -0.0293748 2.69469e-22)
(1.16061 -0.0277217 4.13854e-22)
(1.1628 -0.0261858 -1.43397e-22)
(1.15156 -0.0468485 5.18117e-23)
(1.15372 -0.0452806 -7.1815e-22)
(1.15588 -0.0436874 1.03643e-23)
(1.15804 -0.0420684 -5.80598e-22)
(1.16019 -0.0404247 3.8615e-22)
(1.16234 -0.0387538 5.6866e-22)
(1.16449 -0.0370621 -8.90621e-23)
(1.16662 -0.0353339 -4.48742e-22)
(1.16884 -0.0336087 -2.3624e-22)
(1.17092 -0.0317876 2.71643e-22)
(1.17348 -0.0301167 -2.53051e-22)
(1.15746 -0.0543198 3.52181e-22)
(1.15988 -0.0526227 4.81387e-22)
(1.16231 -0.0508996 -3.94595e-23)
(1.16473 -0.0491507 -8.80207e-22)
(1.16715 -0.0473755 -5.0863e-22)
(1.16958 -0.0455756 -4.18215e-22)
(1.172 -0.0437478 7.28106e-22)
(1.17445 -0.0419009 1.00274e-21)
(1.17688 -0.0400144 3.69676e-22)
(1.1794 -0.0381394 2.9453e-23)
(1.18179 -0.0361516 -4.83158e-22)
(1.18473 -0.0343541 1.0576e-21)
(1.16585 -0.0605479 -2.10907e-22)
(1.16854 -0.0586927 -9.70747e-22)
(1.17124 -0.0568112 1.36411e-22)
(1.17394 -0.054904 3.73763e-22)
(1.17665 -0.0529706 3.70398e-22)
(1.17937 -0.0510135 -5.11747e-22)
(1.18209 -0.0490282 -9.67843e-22)
(1.18484 -0.0470269 -1.88698e-22)
(1.18757 -0.044983 4.8971e-22)
(1.19043 -0.0429619 1.05166e-21)
(1.19314 -0.0408087 -3.23563e-22)
(1.19649 -0.0388938 -1.47806e-21)
(1.17452 -0.0670662 6.44621e-22)
(1.1775 -0.0650481 1.88271e-22)
(1.18048 -0.0630041 3.89754e-22)
(1.18348 -0.0609352 -8.00122e-23)
(1.18648 -0.0588408 -5.30887e-22)
(1.1895 -0.0567245 3.86029e-23)
(1.19253 -0.0545806 -1.62682e-22)
(1.19561 -0.0524252 -9.17259e-22)
(1.19866 -0.0502243 -1.65652e-21)
(1.20186 -0.0480606 -2.24533e-21)
(1.2049 -0.0457433 2.30397e-21)
(1.20868 -0.0437198 3.9376e-23)
(1.18344 -0.0738597 9.88797e-22)
(1.18671 -0.0716718 -3.89315e-22)
(1.19 -0.0694592 -3.52252e-22)
(1.19329 -0.0672233 8.25093e-23)
(1.19661 -0.0649635 5.38598e-22)
(1.19994 -0.0626848 1.08281e-21)
(1.20329 -0.0603799 -7.01545e-22)
(1.2067 -0.0580697 1.28898e-21)
(1.21008 -0.0557112 -5.22035e-22)
(1.21363 -0.0534078 -6.34605e-22)
(1.21702 -0.0509271 -2.6054e-21)
(1.22122 -0.0488033 -5.58184e-22)
(1.19258 -0.0809039 -7.63669e-22)
(1.19616 -0.0785378 6.67487e-22)
(1.19975 -0.0761486 1.19383e-21)
(1.20336 -0.0737387 6.66514e-22)
(1.20698 -0.0713072 -3.99156e-22)
(1.21064 -0.0688609 -1.66137e-21)
(1.21431 -0.0663903 2.67399e-21)
(1.21805 -0.0639228 -7.27235e-22)
(1.22176 -0.0614047 1.69933e-21)
(1.22568 -0.058963 -1.29692e-21)
(1.22941 -0.0563193 1.79416e-21)
(1.23406 -0.0541015 1.67409e-21)
(1.20192 -0.0881693 -1.25824e-22)
(1.20581 -0.0856124 -8.85392e-22)
(1.20971 -0.0830355 -1.16075e-21)
(1.21363 -0.0804414 2.42319e-22)
(1.21758 -0.0778295 2.05921e-21)
(1.22156 -0.0752082 -1.21331e-21)
(1.22555 -0.0725657 2.87816e-22)
(1.22962 -0.0699359 -4.05923e-21)
(1.23366 -0.0672539 -6.35253e-22)
(1.23794 -0.0646725 2.91067e-21)
(1.24202 -0.0618648 4.99242e-23)
(1.2471 -0.0595563 -3.46358e-21)
(1.21145 -0.0956163 4.67737e-23)
(1.21565 -0.0928535 3.40939e-22)
(1.21986 -0.0900743 1.23517e-21)
(1.2241 -0.087282 -9.59172e-22)
(1.22835 -0.084477 -2.199e-21)
(1.23265 -0.0816694 1.08682e-21)
(1.23696 -0.0788464 8.6987e-22)
(1.24137 -0.0760476 5.9645e-21)
(1.24573 -0.073197 3.34354e-22)
(1.25035 -0.0704722 -2.97021e-21)
(1.25477 -0.0674987 5.24285e-22)
(1.26028 -0.0650981 -7.66069e-22)
(1.22116 -0.103197 -2.34191e-22)
(1.22567 -0.100209 2.319e-22)
(1.23019 -0.0972105 -2.83832e-22)
(1.23473 -0.094203 1.53351e-21)
(1.23929 -0.091189 4.19506e-21)
(1.24389 -0.0881782 4.36332e-21)
(1.24851 -0.0851607 -6.65805e-21)
(1.25323 -0.0821788 1.0331e-21)
(1.25791 -0.0791528 3.60714e-21)
(1.26288 -0.0762776 7.38141e-21)
(1.26763 -0.0731396 -1.20717e-21)
(1.27356 -0.0706401 1.80424e-21)
(1.23103 -0.110861 8.83809e-22)
(1.23585 -0.107624 5.78283e-22)
(1.24067 -0.104382 -2.02011e-21)
(1.24551 -0.101138 -1.29989e-21)
(1.25038 -0.0978994 -1.6216e-21)
(1.25528 -0.0946678 4.0241e-22)
(1.2602 -0.0914432 3.93099e-21)
(1.26521 -0.0882565 -3.43295e-21)
(1.2702 -0.0850432 -1.81024e-21)
(1.27548 -0.0819931 -7.88052e-21)
(1.28055 -0.0786911 2.31594e-21)
(1.28688 -0.0760675 8.70838e-21)
(1.2411 -0.11855 1.74129e-21)
(1.24621 -0.11503 -5.03735e-22)
(1.25133 -0.111515 1.20352e-21)
(1.25645 -0.108003 6.93157e-22)
(1.26161 -0.104515 -4.61278e-21)
(1.26679 -0.101038 -8.61054e-21)
(1.27204 -0.0975999 6.18214e-21)
(1.27732 -0.0941888 5.43826e-22)
(1.28264 -0.0907927 -3.63477e-21)
(1.28817 -0.0875269 7.61679e-21)
(1.29357 -0.0840635 4.13663e-21)
(1.30018 -0.0812425 -2.37392e-21)
(1.25139 -0.126203 -5.1467e-22)
(1.25679 -0.122369 -1.08961e-21)
(1.26221 -0.118553 -8.02562e-22)
(1.26759 -0.114737 -1.43383e-21)
(1.27305 -0.110967 -2.92781e-21)
(1.27845 -0.107195 4.15983e-21)
(1.28402 -0.103515 -1.12661e-20)
(1.28949 -0.0998265 -6.44165e-21)
(1.29521 -0.0962577 3.36486e-21)
(1.30084 -0.0927125 -7.83717e-21)
(1.30662 -0.0891218 -8.4107e-21)
(1.31314 -0.0859569 -1.11052e-20)
(1.26195 -0.133746 -3.02131e-21)
(1.26763 -0.129563 2.20541e-21)
(1.27336 -0.125415 2.15076e-21)
(1.27901 -0.121274 -1.32781e-21)
(1.28481 -0.117204 1.42809e-21)
(1.29039 -0.113102 5.69425e-21)
(1.2963 -0.109148 1.65205e-20)
(1.30173 -0.105079 1.38809e-20)
(1.30781 -0.101295 -9.14661e-21)
(1.31307 -0.0972958 6.55115e-21)
(1.31926 -0.093607 1.19773e-21)
(1.32482 -0.0898146 7.9955e-21)
(1.27288 -0.141104 1.12595e-21)
(1.27883 -0.136514 -5.03155e-21)
(1.28484 -0.131974 -8.49094e-21)
(1.2907 -0.127456 -5.78265e-21)
(1.29682 -0.123044 1.55096e-20)
(1.30249 -0.11859 -6.86402e-21)
(1.30878 -0.114352 -1.32429e-20)
(1.31387 -0.109846 -8.07115e-21)
(1.32028 -0.105813 3.4857e-21)
(1.32418 -0.101092 1.83957e-21)
(1.33059 -0.0972626 -7.63522e-21)
(1.33323 -0.0922944 -7.31317e-21)
(1.28433 -0.148245 3.03045e-22)
(1.29053 -0.143183 1.06332e-21)
(1.29675 -0.138161 5.17973e-21)
(1.3027 -0.133166 -2.92001e-22)
(1.3089 -0.128265 -5.48165e-21)
(1.31432 -0.123331 -9.35354e-21)
(1.32064 -0.118654 2.31514e-21)
(1.32479 -0.113629 -1.37887e-22)
(1.33132 -0.109285 8.94177e-21)
(1.33247 -0.103655 3.31839e-21)
(1.33879 -0.0996622 9.55745e-21)
(1.33506 -0.0927753 5.29624e-22)
(1.29634 -0.155058 3.51247e-21)
(1.30272 -0.149464 2.04022e-22)
(1.30902 -0.143894 1.44538e-20)
(1.31488 -0.13835 1.17213e-20)
(1.32078 -0.132822 -1.04427e-20)
(1.32546 -0.127252 4.23645e-21)
(1.33092 -0.121799 -3.69369e-21)
(1.33291 -0.115983 3.4117e-21)
(1.33822 -0.11085 -4.77139e-21)
(1.33433 -0.104048 4.71896e-21)
(1.33969 -0.0996683 -1.13569e-20)
(1.32457 -0.0901797 1.35701e-20)
(1.30861 -0.161242 -7.19244e-21)
(1.31487 -0.154992 5.34785e-21)
(1.32084 -0.148774 -1.22719e-20)
(1.32621 -0.142612 5.3409e-21)
(1.33124 -0.13641 1.97812e-20)
(1.33467 -0.130192 4.9896e-21)
(1.33815 -0.123804 8.54096e-21)
(1.33682 -0.11709 -3.04246e-21)
(1.33837 -0.110454 5.43086e-22)
(1.32617 -0.102156 -8.34282e-21)
(1.32731 -0.0962948 1.51229e-20)
(1.29383 -0.0836963 -7.80609e-21)
(1.32051 -0.166462 2.01264e-21)
(1.32607 -0.159321 -1.00073e-20)
(1.33098 -0.152217 6.91385e-22)
(1.33496 -0.145174 -1.79325e-20)
(1.33791 -0.138079 -1.15325e-20)
(1.33884 -0.131006 -6.38497e-21)
(1.33841 -0.123579 -2.44792e-23)
(1.3324 -0.116013 -5.27195e-21)
(1.32682 -0.107653 1.65071e-20)
(1.30401 -0.0982927 5.11315e-21)
(1.29509 -0.0895932 -1.08432e-20)
(1.23556 -0.0746232 -4.00382e-21)
(1.33118 -0.170701 6.71751e-21)
(1.33537 -0.162421 1.93155e-21)
(1.33829 -0.154107 -7.72349e-21)
(1.33955 -0.145737 1.35463e-20)
(1.33858 -0.137208 -1.4886e-20)
(1.33447 -0.128548 -5.09501e-21)
(1.3266 -0.119427 3.00417e-21)
(1.31221 -0.110233 -2.0724e-21)
(1.29368 -0.0998952 -2.15457e-20)
(1.25798 -0.0899065 -2.06724e-20)
(1.23089 -0.0782259 7.19212e-21)
(1.14251 -0.0649025 -7.306e-21)
(1.33945 -0.173855 -2.10507e-21)
(1.34142 -0.16428 -9.94008e-22)
(1.34121 -0.154532 4.10904e-21)
(1.33806 -0.144514 -8.54934e-21)
(1.33091 -0.13411 2.16102e-20)
(1.31848 -0.123227 1.65889e-20)
(1.29905 -0.111701 -1.07344e-20)
(1.27058 -0.0997214 1.24511e-20)
(1.23176 -0.0867958 1.29765e-20)
(1.17701 -0.0747508 5.57986e-21)
(1.11888 -0.0606652 2.31179e-21)
(1.00702 -0.0535223 1.98066e-20)
(1.10665 -0.000899554 0)
(1.10796 -0.000406213 0)
(1.10774 0.00012096 0)
(1.10772 0.000660461 0)
(1.10548 0.00122699 0)
(1.10371 0.00173601 0)
(1.09911 0.00230046 0)
(1.09522 0.00265974 0)
(1.08842 0.00315416 0)
(1.08225 0.00316823 0)
(1.0745 0.00347646 0)
(1.06629 0.00293974 0)
(1.06035 0.00287167 0)
(1.05154 0.00179559 0)
(1.0509 0.00101323 0)
(1.04559 -1.38134e-05 0)
(1.05086 -0.00174991 0)
(1.05632 -0.0016788 0)
(1.06111 -0.00299086 0)
(1.07773 -0.000919255 0)
(1.06713 -0.000229789 0)
(1.08125 0.00256158 0)
(1.04575 0.00358149 0)
(1.05525 0.00456553 0)
(1.00348 0.00685449 0)
(0.993484 -0.000427552 0)
(1.00631 -0.00185618 0)
(1.01454 -0.00730684 0)
(1.08371 -0.0102445 0)
(1.12305 -0.00335234 0)
(1.10839 -0.00264645 0)
(1.10976 -0.00118255 0)
(1.10954 0.000380406 0)
(1.1095 0.00198866 0)
(1.10719 0.00367509 0)
(1.10533 0.00520102 0)
(1.10058 0.00688507 0)
(1.09651 0.00797098 0)
(1.08947 0.00944902 0)
(1.08297 0.00950557 0)
(1.07492 0.0104316 0)
(1.06625 0.00883378 0)
(1.06009 0.00863944 0)
(1.05069 0.00540347 0)
(1.05017 0.00305514 0)
(1.0444 -5.18236e-05 0)
(1.05021 -0.00535489 0)
(1.0563 -0.00519996 0)
(1.06194 -0.00914065 0)
(1.07988 -0.00293781 0)
(1.06941 -0.000733943 0)
(1.08366 0.00769538 0)
(1.04716 0.0106565 0)
(1.0569 0.0138233 0)
(1.00224 0.0208428 0)
(0.989911 -0.00121953 0)
(1.00406 -0.00550763 0)
(1.01199 -0.0220497 0)
(1.08585 -0.0308168 0)
(1.12593 -0.00993676 0)
(1.11165 -0.00441711 0)
(1.11313 -0.00198261 0)
(1.11293 0.000617024 0)
(1.11283 0.00330122 0)
(1.11041 0.00611092 0)
(1.10837 0.00867382 0)
(1.10336 0.0114874 0)
(1.09892 0.0133337 0)
(1.09145 0.0158098 0)
(1.08432 0.0159457 0)
(1.07573 0.0175077 0)
(1.06613 0.0148633 0)
(1.05958 0.0145653 0)
(1.04903 0.0091145 0)
(1.0487 0.00516569 0)
(1.04209 -0.000118758 0)
(1.04878 -0.00932131 0)
(1.05627 -0.00924686 0)
(1.06346 -0.0158403 0)
(1.08408 -0.0054697 0)
(1.07379 -0.00131715 0)
(1.08823 0.01295 0)
(1.04994 0.0176447 0)
(1.05993 0.0235323 0)
(1.00032 0.0357795 0)
(0.982614 -0.00176188 0)
(0.99958 -0.00905247 0)
(1.00692 -0.0373783 0)
(1.08973 -0.0519266 0)
(1.13123 -0.016296 0)
(1.11628 -0.00624426 0)
(1.11793 -0.00281833 0)
(1.11775 0.000845897 0)
(1.11758 0.00463574 0)
(1.11501 0.00860317 0)
(1.11269 0.0122478 0)
(1.10736 0.0162375 0)
(1.10235 0.0189018 0)
(1.09431 0.0224273 0)
(1.0862 0.0226934 0)
(1.0769 0.0249317 0)
(1.06591 0.0212461 0)
(1.05879 0.0208623 0)
(1.04659 0.0130891 0)
(1.04642 0.0074399 0)
(1.03861 -0.000180405 0)
(1.04632 -0.0139383 0)
(1.05619 -0.0141978 0)
(1.06549 -0.0235156 0)
(1.09035 -0.00885157 0)
(1.08016 -0.00196951 0)
(1.09482 0.0184986 0)
(1.0541 0.0246947 0)
(1.06399 0.034055 0)
(0.998584 0.0524218 0)
(0.971036 -0.00166198 0)
(0.992503 -0.0126004 0)
(0.998695 -0.0539407 0)
(1.09442 -0.0742878 0)
(1.13831 -0.0225069 0)
(1.12215 -0.00816449 0)
(1.124 -0.00371353 0)
(1.12387 0.00106016 0)
(1.1236 0.00600263 0)
(1.12087 0.0111889 0)
(1.1182 0.0159807 0)
(1.11248 0.0212264 0)
(1.1067 0.0247864 0)
(1.098 0.0294459 0)
(1.08856 0.0299087 0)
(1.0784 0.0328783 0)
(1.06555 0.0281706 0)
(1.05769 0.0277027 0)
(1.04334 0.0174916 0)
(1.04322 0.00998112 0)
(1.03387 -0.000137273 0)
(1.04249 -0.0194776 0)
(1.05603 -0.0203983 0)
(1.06792 -0.0325672 0)
(1.09879 -0.0134008 0)
(1.08853 -0.00263385 0)
(1.10335 0.0244586 0)
(1.05971 0.031955 0)
(1.06868 0.0455793 0)
(0.998233 0.071379 0)
(0.954645 -0.00019597 0)
(0.981772 -0.016245 0)
(0.985102 -0.0722002 0)
(1.0974 -0.0985094 0)
(1.14588 -0.028732 0)
(1.12914 -0.0102247 0)
(1.13125 -0.00470172 0)
(1.1312 0.00124471 0)
(1.13081 0.00740091 0)
(1.12792 0.0138894 0)
(1.1248 0.019909 0)
(1.11868 0.0265212 0)
(1.11192 0.0310695 0)
(1.10249 0.0369784 0)
(1.09135 0.0377211 0)
(1.08021 0.0414839 0)
(1.06505 0.0358046 0)
(1.05621 0.0352289 0)
(1.03929 0.0224821 0)
(1.03896 0.0129222 0)
(1.0277 0.000185489 0)
(1.03686 -0.0261914 0)
(1.05563 -0.028206 0)
(1.07076 -0.0433962 0)
(1.10951 -0.0193985 0)
(1.09895 -0.00323141 0)
(1.11384 0.0309054 0)
(1.06676 0.0396313 0)
(1.07361 0.0580377 0)
(1.00056 0.0931025 0)
(0.933674 0.00390369 0)
(0.965631 -0.0196943 0)
(0.961505 -0.0921598 0)
(1.09341 -0.125351 0)
(1.15151 -0.0354266 0)
(1.13717 -0.0124534 0)
(1.13958 -0.00580333 0)
(1.13964 0.00138786 0)
(1.13912 0.00882747 0)
(1.13608 0.0167169 0)
(1.13244 0.0240566 0)
(1.1259 0.0321713 0)
(1.11797 0.0378132 0)
(1.10775 0.045114 0)
(1.09456 0.0462358 0)
(1.08231 0.050854 0)
(1.06441 0.0442958 0)
(1.0543 0.0435589 0)
(1.03447 0.0282143 0)
(1.03355 0.0164397 0)
(1.01987 0.000985154 0)
(1.02897 -0.0342979 0)
(1.0547 -0.0380299 0)
(1.0742 -0.0564152 0)
(1.1225 -0.0270934 0)
(1.11164 -0.00369409 0)
(1.12634 0.0379065 0)
(1.07511 0.0479983 0)
(1.07857 0.0710612 0)
(1.00649 0.11779 0)
(0.909893 0.0123134 0)
(0.942636 -0.0217768 0)
(0.922562 -0.113017 0)
(1.07517 -0.155856 0)
(1.1516 -0.0434981 0)
(1.14614 -0.0148855 0)
(1.1489 -0.00704645 0)
(1.14912 0.00146692 0)
(1.14846 0.0102679 0)
(1.14528 0.0196669 0)
(1.14109 0.0284312 0)
(1.1341 0.0382058 0)
(1.12486 0.0450601 0)
(1.11373 0.0539197 0)
(1.09818 0.0555327 0)
(1.08465 0.0610692 0)
(1.06367 0.0537662 0)
(1.0519 0.0527908 0)
(1.02891 0.0348179 0)
(1.02695 0.0207744 0)
(1.01009 0.00254608 0)
(1.01834 -0.04396 0)
(1.0528 -0.0503447 0)
(1.07858 -0.0720786 0)
(1.1377 -0.0366498 0)
(1.12695 -0.00395695 0)
(1.14081 0.0455962 0)
(1.08447 0.0573358 0)
(1.08379 0.084087 0)
(1.01582 0.145263 0)
(0.886842 0.0264163 0)
(0.913956 -0.0204957 0)
(0.867882 -0.133029 0)
(1.03824 -0.19094 0)
(1.14301 -0.0541158 0)
(1.15598 -0.0175472 0)
(1.15915 -0.00845325 0)
(1.15955 0.00145774 0)
(1.15876 0.0117041 0)
(1.15547 0.0227244 0)
(1.15072 0.0330313 0)
(1.14322 0.0446381 0)
(1.13257 0.0528399 0)
(1.12039 0.0634464 0)
(1.10224 0.0656717 0)
(1.08721 0.0721889 0)
(1.06285 0.0643103 0)
(1.04899 0.0630031 0)
(1.02267 0.0423864 0)
(1.01922 0.0262307 0)
(0.99799 0.00526408 0)
(1.00443 -0.0552665 0)
(1.04937 -0.0657364 0)
(1.08436 -0.0908778 0)
(1.15502 -0.0481684 0)
(1.14536 -0.00394039 0)
(1.15703 0.0542087 0)
(1.09456 0.0678253 0)
(1.08998 0.0965833 0)
(1.02688 0.17491 0)
(0.868925 0.0467224 0)
(0.884702 -0.0141114 0)
(0.806279 -0.150038 0)
(0.986049 -0.230614 0)
(1.12531 -0.0681755 0)
(1.16662 -0.0204621 0)
(1.17025 -0.0100456 0)
(1.17086 0.00133358 0)
(1.16998 0.0131118 0)
(1.16659 0.0258619 0)
(1.1613 0.0378455 0)
(1.15325 0.0514658 0)
(1.14112 0.0611716 0)
(1.12771 0.0737296 0)
(1.10677 0.0766939 0)
(1.08994 0.084255 0)
(1.06202 0.0759892 0)
(1.04554 0.0742588 0)
(1.01581 0.0509417 0)
(1.01058 0.0332007 0)
(0.983138 0.00954868 0)
(0.986728 -0.0682085 0)
(1.04365 -0.0848886 0)
(1.0918 -0.113391 0)
(1.17455 -0.0616748 0)
(1.16729 -0.00359819 0)
(1.17446 0.064059 0)
(1.10536 0.0794353 0)
(1.09774 0.108343 0)
(1.03759 0.205816 0)
(0.859616 0.0721302 0)
(0.861637 -0.00228044 0)
(0.751478 -0.162285 0)
(0.928343 -0.273489 0)
(1.10103 -0.0857372 0)
(1.17799 -0.0236467 0)
(1.18211 -0.0118428 0)
(1.18299 0.00106516 0)
(1.18204 0.0144609 0)
(1.17859 0.029042 0)
(1.17281 0.0428547 0)
(1.16415 0.0586734 0)
(1.15054 0.0700683 0)
(1.13565 0.0847923 0)
(1.11178 0.0886283 0)
(1.09281 0.0972895 0)
(1.06125 0.088837 0)
(1.04151 0.0865916 0)
(1.00853 0.0604196 0)
(1.0013 0.0421649 0)
(0.965174 0.0158512 0)
(0.964815 -0.0826318 0)
(1.03437 -0.108475 0)
(1.10053 -0.140376 0)
(1.19646 -0.0771414 0)
(1.19279 -0.00274657 0)
(1.19257 0.0754407 0)
(1.11719 0.0919733 0)
(1.10686 0.119558 0)
(1.04672 0.237053 0)
(0.859851 0.100555 0)
(0.848977 0.0142807 0)
(0.713175 -0.168758 0)
(0.874493 -0.317068 0)
(1.07366 -0.105998 0)
(1.18999 -0.0271093 0)
(1.19466 -0.0138619 0)
(1.19585 0.000620089 0)
(1.19487 0.0157142 0)
(1.19144 0.0322163 0)
(1.18523 0.0480309 0)
(1.17592 0.0662337 0)
(1.16083 0.0795395 0)
(1.14419 0.0966459 0)
(1.1173 0.1015 0)
(1.09576 0.111287 0)
(1.06063 0.102878 0)
(1.0368 0.0999877 0)
(1.00113 0.0706618 0)
(0.991526 0.0536504 0)
(0.9443 0.0246239 0)
(0.938303 -0.0980408 0)
(1.01899 -0.136999 0)
(1.10832 -0.17282 0)
(1.22032 -0.0946249 0)
(1.22115 -0.000998679 0)