/*--------------------------------*- C++ -*----------------------------------*\
  =========                 |
  \\      /  F ield         | OpenFOAM: The Open Source CFD Toolbox
   \\    /   O peration     | Website:  https://openfoam.org
    \\  /    A nd           | Version:  7
     \\/     M anipulation  |
\*---------------------------------------------------------------------------*/
FoamFile
{
    version     2.0;
    format      ascii;
    class       volScalarField;
    location    "240";
    object      p;
}
// * * * * * * * * * * * * * * * * * * * * * * * * * * * * * * * * * * * * * //

dimensions      [0 2 -2 0 0 0 0];

internalField   nonuniform List<scalar> 
8500
(
-0.432409
-0.43367
-0.43426
-0.435561
-0.438191
-0.442456
-0.448528
-0.456613
-0.466821
-0.479372
-0.439799
-0.440411
-0.440851
-0.44222
-0.445172
-0.450078
-0.457165
-0.466706
-0.478929
-0.493968
-0.446878
-0.446818
-0.44707
-0.448458
-0.451651
-0.457085
-0.46503
-0.475807
-0.489749
-0.506724
-0.453515
-0.452767
-0.452824
-0.454151
-0.457483
-0.463306
-0.471922
-0.483679
-0.499048
-0.51734
-0.459608
-0.458192
-0.458003
-0.459198
-0.462551
-0.468604
-0.477684
-0.490136
-0.506457
-0.525817
-0.465078
-0.46303
-0.462551
-0.46353
-0.466774
-0.472882
-0.482207
-0.495072
-0.512064
-0.531832
-0.469872
-0.467248
-0.466444
-0.467117
-0.470111
-0.476088
-0.485437
-0.498429
-0.515843
-0.535398
-0.473969
-0.470844
-0.469686
-0.469962
-0.472562
-0.478221
-0.487374
-0.500211
-0.517841
-0.536615
-0.477379
-0.473845
-0.472309
-0.472104
-0.47417
-0.479325
-0.488076
-0.500483
-0.518186
-0.535625
-0.48014
-0.476305
-0.474378
-0.473617
-0.475018
-0.479495
-0.487656
-0.499375
-0.517074
-0.532642
-0.482322
-0.478298
-0.475977
-0.474599
-0.475225
-0.478869
-0.48628
-0.497078
-0.514764
-0.527978
-0.484019
-0.47992
-0.47721
-0.475175
-0.47494
-0.477628
-0.484161
-0.493849
-0.511555
-0.521993
-0.48535
-0.481281
-0.478197
-0.475483
-0.474337
-0.475988
-0.481552
-0.49001
-0.507757
-0.515137
-0.486458
-0.482504
-0.479065
-0.475676
-0.473604
-0.474187
-0.47873
-0.485936
-0.503639
-0.507975
-0.487502
-0.483724
-0.479953
-0.475911
-0.472941
-0.47248
-0.475978
-0.482013
-0.499345
-0.501157
-0.48866
-0.48508
-0.481
-0.476352
-0.472549
-0.471119
-0.473569
-0.478659
-0.494903
-0.495026
-0.490117
-0.48672
-0.482352
-0.477158
-0.472617
-0.470335
-0.471747
-0.476148
-0.490298
-0.489704
-0.492059
-0.488785
-0.484147
-0.47848
-0.473315
-0.470309
-0.47071
-0.474596
-0.485524
-0.48469
-0.494659
-0.491408
-0.486513
-0.480446
-0.474772
-0.471158
-0.470581
-0.473888
-0.480617
-0.479844
-0.498063
-0.494706
-0.489552
-0.48315
-0.477064
-0.47291
-0.47137
-0.473701
-0.475805
-0.476584
-0.502378
-0.498769
-0.49334
-0.486647
-0.480211
-0.475518
-0.472961
-0.47366
-0.471705
-0.475509
-0.507678
-0.503655
-0.497914
-0.490947
-0.484178
-0.478874
-0.475143
-0.473608
-0.468466
-0.466822
-0.514003
-0.509388
-0.503287
-0.496028
-0.488887
-0.482833
-0.477677
-0.473527
-0.464925
-0.457509
-0.521358
-0.515973
-0.509448
-0.501849
-0.49424
-0.487245
-0.480368
-0.473262
-0.461096
-0.448811
-0.529722
-0.523402
-0.516383
-0.508363
-0.500137
-0.491964
-0.483044
-0.47269
-0.457021
-0.440452
-0.539059
-0.531663
-0.524078
-0.515528
-0.506488
-0.496857
-0.485541
-0.47174
-0.452662
-0.432582
-0.549331
-0.540743
-0.53252
-0.523303
-0.513213
-0.501791
-0.487715
-0.470358
-0.448066
-0.424995
-0.560494
-0.550626
-0.541698
-0.531646
-0.520229
-0.506624
-0.48945
-0.468519
-0.443238
-0.417632
-0.572496
-0.561289
-0.551583
-0.540501
-0.527429
-0.511206
-0.490653
-0.466205
-0.438186
-0.410385
-0.585273
-0.572693
-0.562128
-0.549787
-0.534672
-0.515385
-0.491252
-0.463406
-0.432894
-0.403172
-0.598735
-0.584773
-0.573248
-0.559386
-0.541779
-0.519014
-0.491185
-0.460101
-0.427334
-0.395904
-0.612764
-0.597428
-0.584822
-0.56913
-0.548541
-0.521951
-0.490397
-0.456264
-0.421462
-0.388497
-0.627204
-0.610517
-0.596685
-0.578802
-0.554737
-0.524064
-0.488829
-0.451854
-0.41522
-0.380866
-0.641856
-0.623852
-0.608623
-0.588137
-0.560141
-0.525227
-0.48642
-0.446822
-0.408542
-0.372929
-0.656482
-0.637204
-0.620375
-0.596839
-0.564527
-0.525316
-0.483099
-0.441106
-0.401357
-0.364604
-0.670799
-0.650299
-0.631638
-0.604594
-0.567682
-0.524214
-0.478793
-0.434636
-0.393586
-0.355814
-0.684489
-0.662825
-0.642067
-0.611087
-0.569403
-0.521805
-0.473422
-0.427338
-0.385152
-0.346484
-0.697204
-0.674439
-0.651296
-0.61601
-0.569499
-0.517976
-0.466902
-0.419133
-0.375977
-0.336547
-0.708573
-0.684774
-0.658944
-0.619074
-0.567797
-0.512621
-0.459152
-0.409943
-0.365986
-0.325946
-0.71821
-0.693446
-0.664637
-0.620011
-0.56414
-0.505637
-0.450089
-0.399695
-0.355115
-0.314634
-0.725729
-0.700067
-0.668019
-0.618583
-0.558388
-0.496933
-0.439636
-0.388317
-0.343307
-0.30258
-0.730752
-0.704256
-0.668764
-0.614584
-0.550421
-0.486422
-0.427718
-0.37574
-0.330513
-0.289759
-0.732917
-0.70565
-0.666585
-0.607843
-0.540141
-0.474035
-0.414271
-0.361896
-0.316671
-0.276127
-0.731894
-0.703916
-0.661242
-0.598226
-0.527473
-0.459716
-0.399246
-0.346735
-0.301708
-0.261542
-0.727388
-0.698763
-0.652543
-0.585635
-0.512363
-0.443427
-0.382614
-0.330244
-0.285593
-0.245733
-0.71915
-0.689952
-0.640341
-0.57001
-0.494784
-0.425143
-0.364353
-0.312439
-0.268413
-0.228553
-0.706983
-0.677304
-0.62454
-0.551326
-0.474729
-0.404854
-0.344443
-0.293302
-0.250241
-0.210483
-0.690746
-0.660694
-0.605092
-0.52959
-0.452215
-0.382566
-0.322899
-0.272824
-0.2307
-0.192019
-0.670353
-0.640059
-0.582
-0.504846
-0.427287
-0.358319
-0.299798
-0.251125
-0.209957
-0.172848
-0.64578
-0.615394
-0.555313
-0.477182
-0.400009
-0.332192
-0.275229
-0.228117
-0.188203
-0.152861
-0.617058
-0.586751
-0.52514
-0.446717
-0.370465
-0.304295
-0.249177
-0.203883
-0.165509
-0.132074
-0.584273
-0.554255
-0.49168
-0.413538
-0.338766
-0.274666
-0.221731
-0.17851
-0.141928
-0.110567
-0.547569
-0.518111
-0.455206
-0.377591
-0.305053
-0.243432
-0.192995
-0.152093
-0.11753
-0.0884483
-0.507146
-0.478582
-0.415772
-0.339141
-0.269433
-0.210727
-0.163088
-0.124732
-0.0924022
-0.0658385
-0.463254
-0.43594
-0.372739
-0.299013
-0.23219
-0.176707
-0.132141
-0.0965335
-0.0666313
-0.0428259
-0.416128
-0.390307
-0.327199
-0.256939
-0.193524
-0.141545
-0.100296
-0.0676057
-0.0403049
-0.0194976
-0.366011
-0.341484
-0.280166
-0.213203
-0.153614
-0.105421
-0.0676909
-0.0380446
-0.0135672
0.00377911
-0.313328
-0.290333
-0.231523
-0.168115
-0.112669
-0.0685073
-0.0344369
-0.00792085
0.0132922
0.0260648
-0.258586
-0.237172
-0.181419
-0.121961
-0.0709242
-0.0309816
-0.00063739
0.0226674
0.0399093
0.0466872
-0.202065
-0.182493
-0.130155
-0.0750268
-0.0286274
0.00696394
0.0335388
0.0534464
0.0661421
0.0676997
-0.144201
-0.126727
-0.0780923
-0.0276074
0.0139697
0.0451132
0.0678172
0.0839564
0.0919694
0.0946687
-0.0854505
-0.0702869
-0.0256066
0.0199919
0.0566113
0.0832319
0.101914
0.114079
0.118452
0.121841
-0.0262709
-0.0135905
0.0269237
0.0674604
0.0990358
0.121083
0.135654
0.143924
0.14526
0.147655
0.032878
0.0429413
0.0791231
0.114485
0.140977
0.158429
0.168864
0.173368
0.17189
0.172429
0.0915381
0.0988869
0.130621
0.160756
0.182169
0.195046
0.201376
0.20223
0.197953
0.196136
0.149256
0.15383
0.181056
0.205967
0.222354
0.230715
0.233011
0.230323
0.223247
0.218839
0.205588
0.207361
0.230072
0.249819
0.261277
0.265222
0.263587
0.257463
0.247613
0.240515
0.260103
0.259085
0.277329
0.292023
0.298694
0.29836
0.292925
0.28349
0.270924
0.26112
0.312385
0.308623
0.3225
0.332305
0.33437
0.329929
0.320854
0.30825
0.293063
0.280587
0.362039
0.355611
0.365274
0.370399
0.368082
0.359739
0.347209
0.331605
0.313918
0.298844
0.40869
0.39971
0.405358
0.406061
0.399618
0.38761
0.371838
0.353424
0.333383
0.315819
0.45199
0.440603
0.442481
0.439058
0.428784
0.413375
0.394597
0.373584
0.351356
0.33144
0.491619
0.478
0.476393
0.46918
0.455399
0.43688
0.415357
0.391974
0.367744
0.345642
0.527287
0.511636
0.506869
0.496235
0.479299
0.457985
0.433998
0.408491
0.382461
0.358365
0.558735
0.541277
0.533708
0.520053
0.500339
0.476567
0.450413
0.423043
0.395429
0.369557
0.585738
0.566722
0.556736
0.540486
0.518393
0.492518
0.464512
0.435552
0.406582
0.379173
0.608107
0.587798
0.575807
0.557411
0.533354
0.505746
0.476215
0.44595
0.415863
0.387176
0.625689
0.604369
0.590801
0.570726
0.545137
0.516178
0.485461
0.454181
0.423227
0.393539
0.638369
0.61633
0.601632
0.580356
0.553677
0.523759
0.492202
0.460205
0.428639
0.398244
0.646071
0.623612
0.608238
0.58625
0.558929
0.528451
0.496406
0.463993
0.432079
0.401278
0.648755
0.626182
0.610591
0.588384
0.560874
0.530237
0.498056
0.465532
0.433526
0.402608
0.646424
0.624039
0.608691
0.586758
0.559511
0.529115
0.497153
0.464819
0.432977
0.40225
0.639117
0.617222
0.602571
0.581398
0.554863
0.525106
0.493712
0.46187
0.430452
0.400205
0.626913
0.6058
0.59229
0.572357
0.546973
0.518245
0.487765
0.456712
0.425977
0.396512
0.609929
0.58988
0.57794
0.559711
0.535907
0.50859
0.47936
0.449385
0.419581
0.391181
0.588318
0.569601
0.559639
0.54356
0.521751
0.496212
0.468559
0.439943
0.411309
0.384235
0.562272
0.545136
0.537537
0.524032
0.504612
0.481205
0.455438
0.428453
0.401215
0.37571
0.532017
0.516689
0.511808
0.501274
0.484617
0.463674
0.440091
0.414994
0.389368
0.365653
0.497811
0.484496
0.482654
0.475456
0.461912
0.443744
0.422622
0.399657
0.375841
0.354114
0.459944
0.448819
0.450301
0.446772
0.436659
0.421554
0.40315
0.382542
0.360721
0.341152
0.418737
0.409951
0.414999
0.415431
0.409038
0.397257
0.381805
0.363761
0.3441
0.326831
0.374537
0.368207
0.37702
0.381664
0.379245
0.37102
0.358728
0.343436
0.32608
0.311222
0.327715
0.323927
0.336653
0.345718
0.34749
0.343022
0.334072
0.321696
0.306767
0.294399
0.278664
0.277471
0.29421
0.307853
0.313995
0.313451
0.307998
0.298681
0.286274
0.276437
0.227796
0.229215
0.250015
0.268345
0.278992
0.282505
0.280677
0.274538
0.264718
0.257406
0.175536
0.179551
0.204407
0.22748
0.242725
0.250391
0.252285
0.249427
0.242227
0.237367
0.122321
0.128883
0.157735
0.185552
0.205443
0.217319
0.223002
0.223522
0.218953
0.216356
0.0685961
0.0776205
0.110356
0.142864
0.167403
0.183507
0.193005
0.197005
0.195083
0.194342
0.014809
0.0261771
0.0626358
0.0997206
0.128864
0.149174
0.162465
0.170051
0.170959
0.171326
-0.0385934
-0.0250358
0.0149412
0.0564291
0.0900869
0.11455
0.131554
0.142785
0.147015
0.146975
-0.0911676
-0.0756131
-0.0323583
0.0132933
0.0513273
0.0798649
0.100445
0.115141
0.123599
0.122664
-0.142472
-0.125157
-0.078896
-0.0293896
0.0128348
0.0453452
0.069404
0.0872491
0.0998217
0.103509
-0.192089
-0.173252
-0.124321
-0.071334
-0.025146
0.0112005
0.0386821
0.0595067
0.0756967
0.0846448
-0.239803
-0.219411
-0.16834
-0.112269
-0.0623767
-0.0223812
0.00844006
0.0321498
0.0513225
0.064345
-0.285057
-0.263403
-0.210811
-0.151927
-0.09863
-0.0552254
-0.0212135
0.00528292
0.0270374
0.0431886
-0.327479
-0.304284
-0.251874
-0.190031
-0.133699
-0.0871619
-0.0501611
-0.0210079
0.00312284
0.0219923
-0.366882
-0.342502
-0.290288
-0.226326
-0.167396
-0.11802
-0.0782664
-0.0466216
-0.0202785
0.00109157
-0.403048
-0.377812
-0.325608
-0.26076
-0.199518
-0.147635
-0.105393
-0.0714511
-0.0430798
-0.0194231
-0.435747
-0.409916
-0.358147
-0.292833
-0.229894
-0.175863
-0.131415
-0.095394
-0.0651959
-0.0394648
-0.46481
-0.4386
-0.387805
-0.32244
-0.258355
-0.202573
-0.156225
-0.118355
-0.0865424
-0.0589219
-0.490133
-0.463725
-0.414372
-0.349521
-0.284786
-0.227674
-0.179727
-0.140246
-0.107048
-0.0776944
-0.511667
-0.485213
-0.437707
-0.373971
-0.309102
-0.251113
-0.201849
-0.160987
-0.126647
-0.0957199
-0.529415
-0.503053
-0.457741
-0.395698
-0.331227
-0.272778
-0.222602
-0.180526
-0.145247
-0.113015
-0.543438
-0.517288
-0.474463
-0.414647
-0.351107
-0.292614
-0.241868
-0.198902
-0.162709
-0.129751
-0.553851
-0.528021
-0.487907
-0.430802
-0.368716
-0.310603
-0.25961
-0.216032
-0.179151
-0.146065
-0.560826
-0.535408
-0.498155
-0.444181
-0.384053
-0.326746
-0.275833
-0.231904
-0.194518
-0.161155
-0.56458
-0.53966
-0.50534
-0.454837
-0.397141
-0.34106
-0.290549
-0.246513
-0.208751
-0.17498
-0.565378
-0.541041
-0.509636
-0.462861
-0.408025
-0.353574
-0.303781
-0.259874
-0.221897
-0.187782
-0.563518
-0.539849
-0.511267
-0.46838
-0.416778
-0.364339
-0.315569
-0.272024
-0.23402
-0.19973
-0.559326
-0.536413
-0.510499
-0.471559
-0.423496
-0.373422
-0.325968
-0.283013
-0.245167
-0.210882
-0.553149
-0.53108
-0.507635
-0.472596
-0.428298
-0.380906
-0.335047
-0.292899
-0.25537
-0.221247
-0.54534
-0.524202
-0.503002
-0.471723
-0.431325
-0.386885
-0.342882
-0.301743
-0.264671
-0.230841
-0.53625
-0.516126
-0.496945
-0.469194
-0.432738
-0.391465
-0.349553
-0.309614
-0.27312
-0.239691
-0.526219
-0.507186
-0.489806
-0.465288
-0.432714
-0.394763
-0.355146
-0.316583
-0.280778
-0.247836
-0.515566
-0.497691
-0.481918
-0.460296
-0.431451
-0.396902
-0.359753
-0.322725
-0.287707
-0.255315
-0.504582
-0.487923
-0.473585
-0.454515
-0.429157
-0.398016
-0.363465
-0.328116
-0.293972
-0.262177
-0.493524
-0.478125
-0.465078
-0.448232
-0.426054
-0.398244
-0.366376
-0.332829
-0.299634
-0.268468
-0.482611
-0.468502
-0.456627
-0.441713
-0.422365
-0.397734
-0.368579
-0.336933
-0.304754
-0.274236
-0.472023
-0.45922
-0.448418
-0.435191
-0.418314
-0.396635
-0.370166
-0.340492
-0.309384
-0.279528
-0.461898
-0.450399
-0.440598
-0.428853
-0.414113
-0.395104
-0.371228
-0.343563
-0.313568
-0.284385
-0.452336
-0.442125
-0.433272
-0.422843
-0.409945
-0.393294
-0.371857
-0.346195
-0.317337
-0.288845
-0.443396
-0.434443
-0.426504
-0.417259
-0.405958
-0.391351
-0.37214
-0.348433
-0.320706
-0.292937
-0.435104
-0.427367
-0.420322
-0.412156
-0.402252
-0.3894
-0.372165
-0.350311
-0.323673
-0.296684
-0.427448
-0.420883
-0.414719
-0.407555
-0.398882
-0.387536
-0.37201
-0.351862
-0.326215
-0.300097
-0.420393
-0.414951
-0.409658
-0.403439
-0.395858
-0.38581
-0.371737
-0.353116
-0.328288
-0.303182
-0.413881
-0.409516
-0.405078
-0.399759
-0.393154
-0.384229
-0.371383
-0.354098
-0.329843
-0.305894
-0.407844
-0.404513
-0.400902
-0.39644
-0.390717
-0.382762
-0.37095
-0.354823
-0.330813
-0.308206
-0.402215
-0.399877
-0.397054
-0.393394
-0.388468
-0.381351
-0.370407
-0.355289
-0.331201
-0.30979
-0.396937
-0.395555
-0.393463
-0.390537
-0.386323
-0.379925
-0.369711
-0.355483
-0.330979
-0.310508
-0.391976
-0.391509
-0.390076
-0.387801
-0.384206
-0.378415
-0.368824
-0.355316
-0.330423
-0.308643
-0.387325
-0.387728
-0.386872
-0.385148
-0.382071
-0.376779
-0.367728
-0.354661
-0.330771
-0.295069
-0.383009
-0.384227
-0.38386
-0.38258
-0.379911
-0.375018
-0.366422
-0.353486
-0.331688
-0.289848
-0.379081
-0.381049
-0.381084
-0.380146
-0.377767
-0.373187
-0.36495
-0.352029
-0.332373
-0.288876
-0.375621
-0.378265
-0.378616
-0.377928
-0.375766
-0.371368
-0.363414
-0.350489
-0.332459
-0.288666
-0.372723
-0.375958
-0.376551
-0.376036
-0.374016
-0.369752
-0.361995
-0.34906
-0.332293
-0.289224
-0.370488
-0.374222
-0.374995
-0.374598
-0.372679
-0.368523
-0.360926
-0.348197
-0.332367
-0.29117
-0.369011
-0.373149
-0.374052
-0.373742
-0.371913
-0.36788
-0.360501
-0.348336
-0.332801
-0.294998
-0.368378
-0.372822
-0.373816
-0.37358
-0.371858
-0.367998
-0.360944
-0.349498
-0.334073
-0.301024
-0.368648
-0.373302
-0.374359
-0.374197
-0.372616
-0.369009
-0.362418
-0.351849
-0.336989
-0.30855
-0.369859
-0.374633
-0.375729
-0.375647
-0.374252
-0.370985
-0.364999
-0.355453
-0.341556
-0.317025
-0.372023
-0.376828
-0.377944
-0.377954
-0.376787
-0.373949
-0.368699
-0.360309
-0.347702
-0.326645
-0.375125
-0.37988
-0.380999
-0.38111
-0.380214
-0.377885
-0.373488
-0.366382
-0.355362
-0.3376
-0.379124
-0.383752
-0.384861
-0.385084
-0.384497
-0.382749
-0.379307
-0.373613
-0.364442
-0.349939
-0.38396
-0.38839
-0.389475
-0.389818
-0.389575
-0.388473
-0.38608
-0.381918
-0.374832
-0.363639
-0.389551
-0.393713
-0.394763
-0.395238
-0.395369
-0.394971
-0.393707
-0.391189
-0.386394
-0.378609
-0.395797
-0.399625
-0.40063
-0.401246
-0.40178
-0.402133
-0.402066
-0.401289
-0.398954
-0.39468
-0.402584
-0.406014
-0.406964
-0.407728
-0.408686
-0.409828
-0.411007
-0.412039
-0.412282
-0.411586
-0.409782
-0.412751
-0.413636
-0.41455
-0.415946
-0.417896
-0.420347
-0.423219
-0.426087
-0.428967
-0.417251
-0.419701
-0.420507
-0.421568
-0.423399
-0.426157
-0.429872
-0.43457
-0.440029
-0.446385
-0.424843
-0.426722
-0.427431
-0.428625
-0.430874
-0.434413
-0.439348
-0.445802
-0.453735
-0.463354
-0.504117
-0.532537
-0.546865
-0.520309
-0.448409
-0.362327
-0.300877
-0.285498
-0.294458
-0.292767
-0.248404
-0.183625
-0.141565
-0.117813
-0.111622
-0.133134
-0.145756
-0.134136
-0.112836
-0.0874879
-0.0791359
-0.0637273
-0.0496445
-0.0680452
-0.07896
-0.0636983
-0.0455823
-0.0470234
-0.0276751
-0.0156917
-0.523162
-0.556033
-0.573104
-0.54503
-0.466067
-0.370168
-0.298015
-0.271471
-0.272288
-0.271418
-0.232408
-0.174207
-0.138149
-0.118682
-0.115276
-0.139922
-0.155206
-0.141377
-0.116542
-0.0883837
-0.07914
-0.0630225
-0.0483393
-0.0667789
-0.0777355
-0.0632117
-0.0454919
-0.0471561
-0.0275723
-0.0156983
-0.539937
-0.576617
-0.596124
-0.566622
-0.480997
-0.375933
-0.293888
-0.256783
-0.250027
-0.24902
-0.215243
-0.164011
-0.134276
-0.119284
-0.118788
-0.146473
-0.164407
-0.148377
-0.120052
-0.0892017
-0.079087
-0.0624093
-0.0471397
-0.0655289
-0.0764919
-0.0626968
-0.0453649
-0.0473072
-0.02754
-0.0157052
-0.553921
-0.593957
-0.615671
-0.584962
-0.493421
-0.379877
-0.288769
-0.241747
-0.228096
-0.225889
-0.197043
-0.153084
-0.129916
-0.119563
-0.122078
-0.152693
-0.173231
-0.155083
-0.123356
-0.0899429
-0.0789749
-0.0618829
-0.0460438
-0.0643049
-0.0752393
-0.0621561
-0.0452011
-0.0474731
-0.0275787
-0.0157116
-0.564865
-0.607881
-0.6316
-0.600037
-0.50345
-0.382296
-0.282962
-0.226737
-0.206812
-0.202471
-0.177956
-0.141491
-0.125044
-0.119465
-0.125065
-0.158497
-0.181565
-0.16145
-0.126449
-0.0906083
-0.0788025
-0.0614362
-0.0450479
-0.0631162
-0.0739878
-0.0615921
-0.0450002
-0.0476497
-0.0276883
-0.0157171
-0.572818
-0.618324
-0.643852
-0.61186
-0.511226
-0.383491
-0.276792
-0.212174
-0.186421
-0.179318
-0.158171
-0.129318
-0.119644
-0.118942
-0.127671
-0.163809
-0.189306
-0.167433
-0.129324
-0.0911992
-0.0785692
-0.0610607
-0.0441466
-0.0619719
-0.0727469
-0.0610073
-0.0447618
-0.047833
-0.0278684
-0.0157209
-0.577831
-0.625508
-0.652464
-0.620493
-0.516904
-0.38374
-0.270602
-0.198469
-0.167131
-0.157011
-0.137942
-0.116675
-0.113712
-0.117947
-0.129822
-0.168566
-0.196371
-0.172995
-0.13198
-0.0917171
-0.0782756
-0.0607458
-0.0433339
-0.0608807
-0.0715252
-0.060404
-0.0444857
-0.0480182
-0.0281178
-0.0157225
-0.580036
-0.630055
-0.657567
-0.626024
-0.52063
-0.383291
-0.264714
-0.185968
-0.149144
-0.136063
-0.1176
-0.103692
-0.107258
-0.116439
-0.131455
-0.172716
-0.202698
-0.178104
-0.134415
-0.092164
-0.0779227
-0.0604798
-0.042603
-0.0598505
-0.0703306
-0.0597845
-0.0441713
-0.0482008
-0.0284349
-0.0157212
-0.579624
-0.632209
-0.659281
-0.628559
-0.522535
-0.382351
-0.259407
-0.174924
-0.132671
-0.116847
-0.0974946
-0.090524
-0.100305
-0.11438
-0.132514
-0.176221
-0.208244
-0.182731
-0.136627
-0.0925421
-0.0775125
-0.0602499
-0.0419471
-0.0588881
-0.0691694
-0.0591508
-0.0438184
-0.0483758
-0.0288175
-0.0157162
-0.576787
-0.623046
-0.65764
-0.628259
-0.522725
-0.381076
-0.254897
-0.16549
-0.117921
-0.0995713
-0.0780784
-0.0773262
-0.0928852
-0.111738
-0.132958
-0.179057
-0.212979
-0.186854
-0.138617
-0.0928539
-0.0770474
-0.0600428
-0.0413596
-0.0579987
-0.0680466
-0.0585047
-0.0434266
-0.0485383
-0.029263
-0.0157067
-0.572346
-0.618426
-0.653223
-0.625343
-0.52129
-0.379579
-0.251325
-0.157741
-0.105068
-0.0843037
-0.0648805
-0.0642776
-0.0850466
-0.108482
-0.132754
-0.181212
-0.216888
-0.190454
-0.140383
-0.0931025
-0.0765306
-0.0598454
-0.0408347
-0.0571867
-0.0669652
-0.0578476
-0.0429957
-0.0486831
-0.029768
-0.0156919
-0.566567
-0.611818
-0.646256
-0.620007
-0.518348
-0.377952
-0.24876
-0.151702
-0.0942343
-0.0708695
-0.0480838
-0.0514702
-0.0768434
-0.104584
-0.131885
-0.182687
-0.219971
-0.193518
-0.141926
-0.093292
-0.075966
-0.0596449
-0.0403667
-0.0564548
-0.0659267
-0.0571807
-0.0425254
-0.0488051
-0.0303288
-0.0156708
-0.559621
-0.603478
-0.637011
-0.612438
-0.514057
-0.376263
-0.247212
-0.147372
-0.0854747
-0.0592068
-0.0335858
-0.0391052
-0.0683253
-0.100015
-0.130342
-0.183493
-0.222234
-0.196036
-0.143245
-0.0934276
-0.0753584
-0.0594283
-0.0399505
-0.0558049
-0.0649304
-0.0565044
-0.0420155
-0.0488992
-0.0309412
-0.0156426
-0.551671
-0.593758
-0.625737
-0.602847
-0.508585
-0.374575
-0.246663
-0.144725
-0.0787678
-0.0492385
-0.0215547
-0.0273281
-0.0595348
-0.0947432
-0.128125
-0.183649
-0.223698
-0.198003
-0.144334
-0.0935108
-0.0747123
-0.0591805
-0.0395791
-0.0552364
-0.0639739
-0.055819
-0.0414662
-0.04896
-0.0316004
-0.015606
-0.544249
-0.582984
-0.612672
-0.591444
-0.502072
-0.372882
-0.246981
-0.143627
-0.0739683
-0.0408559
-0.0117534
-0.0162848
-0.0505009
-0.0887371
-0.125238
-0.183181
-0.224389
-0.199416
-0.145176
-0.0935332
-0.0740291
-0.0588852
-0.0392438
-0.0547437
-0.0630524
-0.0551242
-0.0408776
-0.0489825
-0.0323024
-0.01556
-0.534716
-0.571107
-0.59804
-0.578431
-0.494561
-0.370987
-0.247808
-0.143746
-0.0707929
-0.0339224
-0.00381397
-0.00612037
-0.041237
-0.0819604
-0.121688
-0.18212
-0.224346
-0.200283
-0.145762
-0.0934907
-0.0733118
-0.0585386
-0.0389417
-0.0543184
-0.0621576
-0.0544188
-0.04025
-0.0489613
-0.0330426
-0.0155039
-0.525702
-0.558243
-0.582178
-0.56417
-0.486251
-0.368905
-0.249065
-0.145015
-0.0691692
-0.0285
0.00255174
0.00304133
-0.0317445
-0.0743686
-0.117484
-0.180491
-0.223618
-0.200619
-0.146142
-0.0934432
-0.0725849
-0.0581659
-0.0386877
-0.0539751
-0.061281
-0.0537009
-0.0395838
-0.0488911
-0.0338107
-0.0154359
-0.515928
-0.544513
-0.565433
-0.549309
-0.478172
-0.367969
-0.252111
-0.148563
-0.0698334
-0.0251693
0.00729241
0.0110458
-0.022071
-0.0659196
-0.11262
-0.178314
-0.222105
-0.200342
-0.146426
-0.0935264
-0.0719
-0.0577893
-0.0384944
-0.0537691
-0.0604346
-0.0529688
-0.0388795
-0.0487673
-0.0345811
-0.0153518
-0.506607
-0.529753
-0.547429
-0.533635
-0.470516
-0.368597
-0.257316
-0.154563
-0.0728481
-0.0238469
0.0107812
0.0174903
-0.0125246
-0.0565296
-0.107113
-0.175644
-0.219556
-0.199256
-0.146457
-0.0936173
-0.0712303
-0.0572926
-0.0382743
-0.0536507
-0.0596239
-0.0522284
-0.0381399
-0.0485855
-0.0353492
-0.0152494
-0.497999
-0.515146
-0.528271
-0.51453
-0.457035
-0.362039
-0.255586
-0.155184
-0.0727612
-0.0205586
0.0157908
0.023811
-0.00267958
-0.0465027
-0.100927
-0.172386
-0.217211
-0.197817
-0.145341
-0.0927458
-0.0702732
-0.0563414
-0.0377761
-0.0531501
-0.0585483
-0.0514412
-0.0373667
-0.0483532
-0.036273
-0.0151427
-0.483611
-0.501078
-0.509402
-0.49161
-0.433964
-0.34232
-0.240541
-0.144505
-0.0647866
-0.0119219
0.0250326
0.0360901
0.0159125
-0.0292356
-0.0927587
-0.172655
-0.220804
-0.198009
-0.142813
-0.0901552
-0.0686321
-0.0547517
-0.0368091
-0.0514171
-0.0560766
-0.050023
-0.0362857
-0.0480878
-0.0379511
-0.0150414
-0.46507
-0.477706
-0.477413
-0.455471
-0.400729
-0.316605
-0.222929
-0.133804
-0.0581764
-0.0052364
0.0321019
0.0451419
0.0311239
-0.0139512
-0.084168
-0.168296
-0.217986
-0.192361
-0.137715
-0.0869104
-0.0657385
-0.0525533
-0.0365435
-0.0504708
-0.0550978
-0.0488966
-0.0349171
-0.0471196
-0.0395948
-0.0148208
-0.443936
-0.451191
-0.443677
-0.419491
-0.368977
-0.29283
-0.207049
-0.124213
-0.0524484
7.81445e-05
0.0381129
0.0542868
0.04548
-0.00117587
-0.0770506
-0.162615
-0.21236
-0.184867
-0.131828
-0.0833184
-0.0625682
-0.0502287
-0.0362296
-0.0496178
-0.0545007
-0.0477716
-0.0333935
-0.045752
-0.0410666
-0.0145828
-0.420266
-0.423152
-0.410415
-0.384969
-0.338638
-0.270058
-0.191901
-0.115198
-0.0474312
0.00418766
0.0429764
0.0633171
0.0605743
0.0121777
-0.0697159
-0.156645
-0.204995
-0.175761
-0.124894
-0.0793192
-0.0591426
-0.0476508
-0.0358182
-0.0487451
-0.0537032
-0.0464189
-0.0317326
-0.0441851
-0.0423993
-0.0143287
-0.394265
-0.394545
-0.378421
-0.352383
-0.310027
-0.248578
-0.177682
-0.106868
-0.0430726
0.0072104
0.0464964
0.0713148
0.0754795
0.0261677
-0.0616218
-0.149999
-0.195098
-0.164884
-0.116953
-0.0749202
-0.0554594
-0.0448039
-0.0352603
-0.0478374
-0.0527016
-0.0448653
-0.0299709
-0.0424452
-0.0435194
-0.0140495
-0.367069
-0.366109
-0.348127
-0.322076
-0.283392
-0.228483
-0.164376
-0.0992051
-0.0393002
0.00928402
0.0486643
0.0777133
0.0887839
0.0394985
-0.0529812
-0.141844
-0.182431
-0.152333
-0.108086
-0.0701233
-0.0515242
-0.0416605
-0.0345
-0.0468496
-0.0515363
-0.0431501
-0.0281221
-0.040474
-0.044347
-0.0137385
-0.33978
-0.338324
-0.31971
-0.294142
-0.258787
-0.209782
-0.151963
-0.0921921
-0.0360823
0.0105366
0.0495498
0.0819487
0.0991372
0.0508248
-0.0440399
-0.131547
-0.166998
-0.138322
-0.0984272
-0.064941
-0.047346
-0.0381964
-0.0334696
-0.045717
-0.0501743
-0.0412525
-0.0261832
-0.0382372
-0.0448083
-0.0133872
-0.312998
-0.311485
-0.293153
-0.268493
-0.236155
-0.192438
-0.140408
-0.0857867
-0.033408
0.011073
0.0492365
0.0835934
0.105329
0.0592965
-0.0348377
-0.118613
-0.149055
-0.123192
-0.0881688
-0.0593973
-0.0429355
-0.0343861
-0.0320869
-0.0443544
-0.0485371
-0.039123
-0.0241579
-0.0357441
-0.0448306
-0.0129857
-0.287124
-0.285796
-0.268363
-0.244957
-0.215389
-0.176391
-0.129675
-0.0799379
-0.0312645
0.010962
0.0478301
0.0826079
0.106686
0.0647757
-0.0250992
-0.102781
-0.129187
-0.107418
-0.0775517
-0.0535282
-0.0383034
-0.0302038
-0.0302574
-0.0426514
-0.046527
-0.0367137
-0.0220657
-0.0330206
-0.0443423
-0.0125218
-0.262436
-0.261381
-0.245226
-0.223338
-0.196355
-0.161566
-0.119722
-0.074597
-0.0296186
0.0102435
0.0454739
0.0793297
0.103553
0.0677797
-0.0144802
-0.08447
-0.108341
-0.0915615
-0.0668455
-0.0473823
-0.0334587
-0.0256233
-0.0278776
-0.0404702
-0.0440351
-0.0339812
-0.0199334
-0.030096
-0.0432778
-0.0119823
-0.239074
-0.238311
-0.223641
-0.203451
-0.178913
-0.14789
-0.110509
-0.0697226
-0.0284139
0.00896295
0.0423273
0.0742979
0.0971202
0.0688997
-0.00330462
-0.0650465
-0.0877066
-0.0761928
-0.0563157
-0.0410188
-0.0284105
-0.020624
-0.0248345
-0.0376444
-0.0409398
-0.0308785
-0.0177869
-0.0270049
-0.0415833
-0.0113528
-0.21711
-0.216627
-0.203525
-0.185133
-0.162929
-0.135291
-0.101993
-0.0652781
-0.0275815
0.00719714
0.038529
0.0680336
0.088746
0.0682259
0.0071944
-0.0464237
-0.068424
-0.0617833
-0.0461897
-0.034503
-0.0231729
-0.0151995
-0.0210102
-0.0339752
-0.0371013
-0.0273486
-0.0156458
-0.0237886
-0.0392226
-0.0106183
-0.196583
-0.196348
-0.184811
-0.168251
-0.148276
-0.123698
-0.0941291
-0.0612259
-0.0270479
0.00504844
0.0342022
0.0609599
0.0794259
0.065559
0.0156916
-0.0301458
-0.0512853
-0.0486306
-0.0366354
-0.0279058
-0.0177677
-0.0093702
-0.0162959
-0.0292348
-0.0323553
-0.023325
-0.0135166
-0.0204897
-0.0361861
-0.00976487
-0.177499
-0.177477
-0.167445
-0.152692
-0.134842
-0.113043
-0.0868735
-0.0575258
-0.02674
0.00263117
0.029454
0.0534376
0.0697709
0.0610071
0.0215249
-0.0169275
-0.0366337
-0.0368657
-0.0277641
-0.0213055
-0.0122315
-0.00319043
-0.0106095
-0.0231948
-0.0265157
-0.0187415
-0.0113806
-0.0171458
-0.0324986
-0.00878115
-0.159845
-0.159996
-0.151375
-0.138365
-0.122526
-0.103259
-0.0801822
-0.0541357
-0.0265856
6.54133e-05
0.024523
0.04581
0.0602162
0.0551483
0.0248238
-0.00674592
-0.0244431
-0.0265036
-0.0196431
-0.0147868
-0.00662525
0.00324515
-0.00390976
-0.0156632
-0.0193978
-0.0135529
-0.00918367
-0.0137843
-0.0282282
-0.00766193
-0.143592
-0.143879
-0.136552
-0.125191
-0.111238
-0.0942818
-0.0740125
-0.0510136
-0.0265154
-0.00253728
0.0195647
0.0383772
0.0511051
0.0486883
0.0261142
0.000807884
-0.0144948
-0.0174952
-0.0123095
-0.00844037
-0.00103881
0.00978709
0.00376439
-0.00655047
-0.0108641
-0.00776929
-0.00683281
-0.0104172
-0.0234899
-0.00641288
-0.128698
-0.129086
-0.122929
-0.113102
-0.100901
-0.0860519
-0.0683235
-0.0481199
-0.0264683
-0.00506794
0.0147506
0.0313682
0.0426754
0.0421874
0.0259707
0.00622915
-0.00651093
-0.00976314
-0.00577671
-0.00236654
0.00441157
0.0162217
0.0122256
0.0040132
-0.000896889
-0.00150086
-0.00421299
-0.00704435
-0.0184415
-0.00505531
-0.115111
-0.115574
-0.110456
-0.102038
-0.0914498
-0.0785148
-0.0630773
-0.0454186
-0.0263944
-0.00743049
0.0102318
0.0249376
0.0350625
0.0360098
0.0248843
0.00997573
-0.000209565
-0.00321499
-3.2708e-05
0.00332242
0.00959753
0.0222723
0.021067
0.0156358
0.0102567
0.00502072
-0.00122471
-0.00367244
-0.0132694
-0.00362937
-0.102777
-0.10329
-0.0990872
-0.091945
-0.0828266
-0.0716217
-0.0582404
-0.0428798
-0.0262524
-0.00954795
0.00611542
0.0191719
0.0283277
0.0303588
0.0232339
0.0124383
0.00467854
0.00225127
0.00495846
0.00851428
0.0144118
0.0276413
0.0296043
0.0288312
0.0218825
0.0114498
0.00217718
-0.000326244
-0.00817246
-0.00219447
-0.0916365
-0.0921813
-0.0887741
-0.0827754
-0.074983
-0.0653313
-0.0537847
-0.0404805
-0.026015
-0.0113695
0.00246929
0.0141076
0.0224739
0.0253269
0.0213017
0.013939
0.0083965
0.00674245
0.00924734
0.0131203
0.0187754
0.0321183
0.0369011
0.0391501
0.032578
0.0174309
0.00597775
0.00295409
-0.00335826
-0.000822347
-0.0816263
-0.0821907
-0.0794722
-0.0744869
-0.0678785
-0.05961
-0.0496876
-0.0382067
-0.0256695
-0.0128706
-0.000671059
0.00974533
0.0174661
0.0209389
0.0192848
0.0147404
0.0111632
0.0103693
0.0128874
0.0170834
0.022605
0.0356179
0.0423662
0.0465829
0.0409315
0.022766
0.0100799
0.00610212
0.000965881
0.0004249
-0.072704
-0.0732718
-0.0711428
-0.0670437
-0.0614803
-0.0544315
-0.0459348
-0.0360536
-0.025215
-0.0140489
-0.0033018
0.0060594
0.0132468
0.0171809
0.0173121
0.0150501
0.0131654
0.0132443
0.0159272
0.0203842
0.02583
0.0380839
0.0457963
0.0505916
0.0462043
0.0273801
0.0142284
0.00900942
0.00461984
0.00150821
-0.0648182
-0.0653869
-0.0637515
-0.0604147
-0.0557622
-0.0497773
-0.0425186
-0.0340258
-0.0246644
-0.0149217
-0.00544244
0.00300757
0.00974588
0.0140147
0.0154688
0.014899
0.014553
0.0154757
0.018411
0.0230417
0.0284262
0.0395722
0.0474094
0.0519119
0.0486546
0.0311377
0.0180436
0.0115517
0.00749333
0.00241449
-0.0579254
-0.0584904
-0.0572645
-0.0545759
-0.0507064
-0.0456374
-0.0394395
-0.032136
-0.0240405
-0.0155208
-0.00713133
0.000534249
0.00688948
0.0113904
0.0138223
0.0146277
0.0154806
0.0171673
0.0203859
0.0251063
0.0304184
0.0402541
0.0476849
0.0516412
0.0491171
0.0338794
0.0212338
0.0136587