/*--------------------------------*- C++ -*----------------------------------*\
  =========                 |
  \\      /  F ield         | OpenFOAM: The Open Source CFD Toolbox
   \\    /   O peration     | Website:  https://openfoam.org
    \\  /    A nd           | Version:  7
     \\/     M anipulation  |
\*---------------------------------------------------------------------------*/
FoamFile
{
    version     2.0;
    format      ascii;
    class       surfaceScalarField;
    location    "240";
    object      phi;
}
// * * * * * * * * * * * * * * * * * * * * * * * * * * * * * * * * * * * * * //

dimensions      [0 3 -1 0 0 0 0];

internalField   nonuniform List<scalar> 
16735
(
-4.23247e-05
0.00249464
-0.00245232
-0.000203587
0.00615454
-0.00599328
-0.000501329
0.00886857
-0.00857083
-0.00092729
0.0107217
-0.0102958
-0.00145626
0.0119394
-0.0114105
-0.00205641
0.0127908
-0.0121907
-0.00269614
0.0134768
-0.0128371
-0.00334703
0.0140602
-0.0134093
-0.00398412
0.0144465
-0.0138094
0.0143687
-0.0137613
-0.00459149
-1.1814e-05
0.00250646
-0.000105908
0.00624864
-0.000314061
0.00907672
-0.00063623
0.0110439
-0.00104817
0.0123514
-0.00151241
0.0132551
-0.0019864
0.0139508
-0.00242696
0.0145008
-0.00279342
0.014813
0.0146237
-0.0030484
1.88045e-05
0.00248765
-5.36682e-06
0.00627281
-0.000118202
0.00918956
-0.000326309
0.011252
-0.000606891
0.0126319
-0.000916933
0.0135651
-0.00120272
0.0142366
-0.0014055
0.0147036
-0.00146967
0.0148771
0.0144837
-0.00132964
4.81814e-05
0.00243947
9.34448e-05
0.00622755
8.08472e-05
0.00920215
-5.3025e-06
0.0113381
-0.000143194
0.0127698
-0.000284881
0.0137068
-0.000366426
0.0143181
-0.000313821
0.014651
-4.88886e-05
0.0146122
0.0139466
0.000488131
7.55566e-05
0.00236392
0.000189047
0.00611406
0.000277013
0.00911419
0.00031767
0.0112975
0.000330489
0.012757
0.000366916
0.0136704
0.000499491
0.0141855
0.000814523
0.0143359
0.00139976
0.014027
0.0129664
0.00237999
9.98639e-05
0.00226405
0.000277459
0.00593646
0.000464146
0.0089275
0.000632893
0.0111287
0.000800617
0.0125893
0.00102069
0.0134503
0.00137178
0.0138345
0.00195115
0.0137566
0.00285426
0.0131238
0.0115654
0.00425531
0.000120164
0.00214389
0.000355435
0.00570119
0.000635627
0.00864731
0.0009301
0.0108343
0.00125303
0.0122664
0.00165818
0.0130452
0.00222776
0.0132649
0.0030672
0.0129171
0.004274
0.011917
0.00975649
0.00608287
0.000135672
0.00200822
0.000420032
0.00541683
0.000785217
0.00828213
0.00119915
0.0104203
0.00167357
0.0117919
0.00226141
0.0124573
0.00304611
0.0124802
0.00413896
0.0118243
0.00563229
0.0104237
0.00755185
0.00783693
0.000145782
0.00186243
0.000468763
0.00509385
0.00090732
0.00784357
0.00143054
0.00989712
0.00204864
0.0111738
0.00281318
0.0116928
0.00380731
0.0114861
0.00514648
0.0104851
0.00691228
0.00865792
0.00495487
0.00950925
0.000150105
0.00171233
0.000499776
0.00474418
0.000997388
0.00734596
0.00161609
0.00927842
0.00236609
0.0104238
0.00329791
0.0107609
0.00449427
0.0102897
0.00607399
0.00890538
0.00810746
0.00662445
0.00195186
0.0111105
0.000148492
0.00156384
0.000512042
0.00438063
0.00105239
0.00680561
0.00174975
0.00858105
0.00261646
0.00955713
0.0037033
0.0096741
0.00509432
0.00889869
0.00691182
0.00708788
0.00922469
0.00431158
-0.00149361
0.0126702
0.000141072
0.00142276
0.000505536
0.00401616
0.00107133
0.00623981
0.00182869
0.0078237
0.00279468
0.00859114
0.00402289
0.00844588
0.00560284
0.00731874
0.00766124
0.00502948
0.010291
0.00168187
-0.00543849
0.0142358
0.000128297
0.00129447
0.000481454
0.00366301
0.00105584
0.00566543
0.00185446
0.00702507
0.00290236
0.00754324
0.00425979
0.00708845
0.00602876
0.00554977
0.00834247
0.00271577
0.0113607
-0.00133638
-0.00994795
0.0158702
0.000110995
0.00118347
0.000442408
0.00333159
0.0010107
0.00509713
0.00183433
0.00620145
0.00295019
0.00642738
0.00443072
0.00560793
0.0064001
0.00358039
0.00900303
0.000112838
0.0125157
-0.00484902
-0.0150705
0.0176382
9.04253e-05
0.00109305
0.000392585
0.00302943
0.000944297
0.00454542
0.00178218
0.00536356
0.00295987
0.0052497
0.00456923
0.00399856
0.00676586
0.00138376
0.0097217
-0.002843
0.0138476
-0.00897494
-0.0208008
0.019578
6.82942e-05
0.00102475
0.000337741
0.00275999
0.000868578
0.00401458
0.00171867
0.00451347
0.00296434
0.00400403
0.00472563
0.00223728
0.00719869
-0.00108931
0.010593
-0.00623728
0.0154263
-0.0138082
-0.0269862
0.0216116
4.67e-05
0.000978053
0.000284954
0.00252173
0.000798485
0.00350105
0.00166999
0.00364196
0.00300527
0.00266875
0.00496123
0.000281325
0.0077752
-0.00390328
0.0117063
-0.0101684
0.0172608
-0.0193627
-0.0334399
0.0237144
2.79812e-05
0.000950072
0.000242031
0.00230768
0.000750536
0.00299255
0.00166499
0.00272751
0.00312726
0.00120647
0.00533731
-0.00192872
0.0085631
-0.00712907
0.0131028
-0.0147081
0.0192583
-0.0255181
-0.0398633
0.0256817
1.4466e-05
0.000935606
0.000216575
0.00210557
0.000740738
0.00246838
0.00173099
0.00173726
0.00337007
-0.000432613
0.00590086
-0.00445951
0.00959945
-0.0108277
0.0147478
-0.0198564
0.0212533
-0.0320237
-0.0459978
0.0273878
8.0628e-06
0.000927543
0.000214927
0.00189871
0.000782264
0.00190105
0.00188931
0.00063021
0.00376062
-0.00230392
0.00667218
-0.00737107
0.0108731
-0.0150286
0.0165273
-0.0255107
0.0230674
-0.0385637
-0.0517201
0.0287897
9.71992e-06
0.000917824
0.000241261
0.00166717
0.000883524
0.00125878
0.00215182
-0.000638087
0.00430798
-0.00446007
0.00763904
-0.0107021
0.0123205
-0.0197101
0.018281
-0.0314711
0.024634
-0.0449167
-0.0584215
0.0313354
1.9875e-05
0.000897949
0.000297177
0.00138987
0.00104723
0.000508734
0.00251956
-0.00211042
0.00500227
-0.00694278
0.008759
-0.0144589
0.013837
-0.0247881
0.0198748
-0.037509
0.0260155
-0.0510574
-0.0643173
0.0319113
3.83787e-05
0.00085957
0.000381772
0.00104647
0.00127064
-0.000380131
0.00298358
-0.00382336
0.00581693
-0.00977613
0.00996709
-0.018609
0.0153016
-0.0301226
0.021225
-0.0434323
0.026932
-0.0567644
-0.0693013
0.031916
6.4275e-05
0.000795295
0.000492172
0.000618574
0.00154685
-0.00143481
0.00352737
-0.00580389
0.0067131
-0.0129619
0.0111863
-0.0230822
0.0166115
-0.0355478
0.0222499
-0.0490707
0.0273805
-0.0618949
-0.0735613
0.0316404
9.62938e-05
0.000699001
0.000624416
9.04523e-05
0.00186648
-0.00267687
0.00412965
-0.00806706
0.00764469
-0.0164769
0.0123391
-0.0277766
0.0176893
-0.040898
0.0229112
-0.0542926
0.0274325
-0.0664162
-0.0771561
0.0310274
0.000133204
0.000565798
0.000774278
-0.000550622
0.00221916
-0.00412175
0.00476656
-0.0106145
0.00856313
-0.0202735
0.0133578
-0.0325714
0.0184885
-0.0460286
0.0232149
-0.0590191
0.0271292
-0.0703305
-0.0801692
0.0301423
0.000174007
0.000391791
0.000937856
-0.00131447
0.00259438
-0.00577827
0.00541307
-0.0134332
0.00942166
-0.0242821
0.0141918
-0.0373414
0.0189921
-0.050829
0.0231876
-0.0632146
0.0265335
-0.0736765
-0.0826894
0.0290538
0.000217996
0.000173794
0.00111169
-0.00220816
0.00298165
-0.00764824
0.00604366
-0.0164952
0.0101792
-0.0284176
0.0148098
-0.041972
0.019206
-0.0552251
0.0228706
-0.0668792
0.0257029
-0.0765088
-0.0847942
0.0278077
0.00026469
-9.08954e-05
0.00129258
-0.00323605
0.00337021
-0.00972587
0.00663319
-0.0197582
0.0108035
-0.0325879
0.0151996
-0.0463682
0.0191519
-0.0591774
0.0223097
-0.070037
0.0246894
-0.0788885
-0.0865548
0.02645
0.000313693
-0.000404589
0.00147728
-0.00439963
0.00374875
-0.0119973
0.0071583
-0.0231677
0.0112729
-0.0367025
0.0153642
-0.0504594
0.0188607
-0.0626739
0.0215502
-0.0727265
0.0235379
-0.0808763
-0.0880289
0.0250121
0.000364566
-0.000769155
0.00166218
-0.00569724
0.00410541
-0.0144406
0.00759896
-0.0266613
0.0115769
-0.0406805
0.0153174
-0.0541999
0.0183667
-0.0657232
0.0206335
-0.0749933
0.022285
-0.0825278
-0.0892634
0.0235196
0.000416706
-0.00118586
0.00184316
-0.0071237
0.00442833
-0.0170257
0.00794007
-0.030173
0.0117148
-0.0444552
0.0150802
-0.0575653
0.0177045
-0.0683475
0.0195959
-0.0768846
0.0209598
-0.0838918
-0.0902941
0.0219905
0.000469307
-0.00165517
0.00201562
-0.00867001
0.00470638
-0.0197165
0.00817226
-0.0336389
0.0116935
-0.0479764
0.0146771
-0.0605489
0.0169067
-0.0705771
0.0184678
-0.0784457
0.0195848
-0.0850089
-0.0911477
0.0204384
0.000521365
-0.00217653
0.00217469
-0.0103233
0.00493013
-0.0224719
0.00829208
-0.0370008
0.0115256
-0.0512099
0.0141335
-0.0631568
0.0160023
-0.0724459
0.0172741
-0.0797175
0.0181771
-0.085912
-0.0918435
0.0188729
0.000571725
-0.00274826
0.00231551
-0.0120671
0.00509255
-0.025249
0.00830121
-0.0402095
0.0112269
-0.0541356
0.0134739
-0.0654039
0.0150166
-0.0739886
0.0160347
-0.0807356
0.0167495
-0.0866268
-0.0923946
0.0173007
0.000619145
-0.0033674
0.00243363
-0.0138816
0.00518941
-0.0280048
0.00820545
-0.0432255
0.0108147
-0.0567448
0.0127213
-0.0673105
0.0139707
-0.075238
0.0147653
-0.0815301
0.0153115
-0.087173
-0.0928102
0.015727
0.000662373
-0.00402978
0.00252527
-0.0157445
0.00521938
-0.0306989
0.00801345
-0.0460196
0.0103066
-0.0590379
0.0118958
-0.0688997
0.0128822
-0.0762245
0.0134779
-0.0821258
0.01387
-0.0875651
-0.0930959
0.0141557
0.000700213
-0.00472999
0.0025876
-0.0176319
0.0051837
-0.033295
0.00773562
-0.0485715
0.00971941
-0.0610217
0.0110152
-0.0701955
0.0117654
-0.0769746
0.0121819
-0.0825423
0.0124304
-0.0878136
-0.0932552
0.0125897
0.000731587
-0.00546158
0.00261885
-0.0195192
0.00508571
-0.0357618
0.00738319
-0.050869
0.00906876
-0.0627073
0.0100946
-0.0712213
0.0106315
-0.0775116
0.0108843
-0.082795
0.0109966
-0.0879259
-0.0932901
0.0110315
0.000755583
-0.00621716
0.00261835
-0.0213819
0.00493029
-0.0380738
0.00696748
-0.0529062
0.00836866
-0.0641085
0.00914652
-0.0719992
0.00948968
-0.0778547
0.00959063
-0.082896
0.0095717
-0.0879069
-0.0932021
0.00948372
0.000771484
-0.00698864
0.00258643
-0.0231969
0.0047233
-0.0402107
0.00649943
-0.0546823
0.00763144
-0.0652405
0.00818145
-0.0725492
0.00834699
-0.0780203
0.008305
-0.082854
0.00815813
-0.0877601
-0.0929917
0.00794768
0.000778788
-0.00776743
0.00252432
-0.0249424
0.00447111
-0.0421574
0.00598926
-0.0562005
0.00686778
-0.066119
0.00720791
-0.0728893
0.00720892
-0.0780213
0.00703057
-0.0826757
0.00675792
-0.0874874
-0.0926578
0.00642402
0.000777209
-0.00854464
0.00243394
-0.0265991
0.00418025
-0.0439038
0.0054463
-0.0574665
0.00608682
-0.0667595
0.00623285
-0.0730353
0.00607981
-0.0778682
0.00576962
-0.0823655
0.00537261
-0.0870904
-0.0921992
0.004914
0.000766671
-0.00931131
0.00231769
-0.0281501
0.00385708
-0.0454431
0.00487885
-0.0584883
0.00529625
-0.0671769
0.00526196
-0.0730011
0.00496329
-0.0775696
0.00452415
-0.0819263
0.00400285
-0.0865691
-0.0916144
0.00341809
0.000747304
-0.0100586
0.00217828
-0.0295811
0.00350766
-0.0467725
0.00429424
-0.0592749
0.00450249
-0.0673852
0.00429981
-0.0727984
0.00386265
-0.0771324
0.00329719
-0.0813609
0.00264829
-0.0859202
-0.0908991
0.00193293
0.000719453
-0.0107781
0.00201886
-0.0308805
0.00313763
-0.0478913
0.0036988
-0.059836
0.00371082
-0.0673972
0.00334989
-0.0724375
0.0027802
-0.0765627
0.00209303
-0.0806737
0.0013126
-0.0851398
-0.0900266
0.000440094
0.000683643
-0.0114617
0.00184256
-0.0320394
0.00275218
-0.0488009
0.00309802
-0.0601819
0.00292558
-0.0672248
0.00241491
-0.0719268
0.00171678
-0.0758646
0.00091033
-0.0798672
3.60256e-05
-0.0842655
-0.0890085
-0.000982044
0.000640525
-0.0121022
0.00165232
-0.0330512
0.00235593
-0.0495045
0.00249656
-0.0603225
0.00215038
-0.0668786
0.00149742
-0.0712738
0.000673662
-0.0750408
-0.000258581
-0.078935
-0.00127881
-0.0832453
-0.0879113
-0.00237602
0.000590858
-0.0126931
0.00145098
-0.0339114
0.00195305
-0.0500066
0.00189837
-0.0602678
0.00138808
-0.0663683
0.000599041
-0.0704848
-0.000346332
-0.0740954
-0.00138848
-0.0778929
-0.00253681
-0.0820969
-0.0866927
-0.00375535
0.000535484
-0.0132286
0.00124121
-0.0346171
0.00154729
-0.0503127
0.00130661
-0.0600271
0.000641114
-0.0657028
-0.00027861
-0.0695651
-0.00133732
-0.0730367
-0.00250021
-0.07673
-0.00376604
-0.0808311
-0.0853479
-0.00511092
0.000475319
-0.0137039
0.00102561
-0.0351674
0.0011419
-0.050429
0.000724032
-0.0596093
-8.9024e-05
-0.0648897
-0.00113072
-0.0685234
-0.00230636
-0.0718611
-0.00358542
-0.0754509
-0.00496852
-0.079448
-0.0838781
-0.00643832
0.000411318
-0.0141152
0.000806864
-0.0355629
0.000739404
-0.0503615
0.00015646
-0.0590263
-0.000798256
-0.063935
-0.00196162
-0.06736
-0.00325038
-0.0705723
-0.00464286
-0.0740584
-0.0061429
-0.077948
-0.0822856
-0.00773536
0.000344354
-0.0144596
0.0005877
-0.0358063
0.000343564
-0.0501174
-0.000403257
-0.0582795
-0.00148952
-0.0628488
-0.0027692
-0.0660803
-0.00416829
-0.0691732
-0.00567186
-0.0725549
-0.00728762
-0.0763322
-0.0805729
-0.00900031
0.000275387
-0.014735
0.000369618
-0.0359005
-2.66352e-05
-0.0497211
-0.000943475
-0.0573627
-0.00216089
-0.0616313
-0.00355289
-0.0646883
-0.00505947
-0.0676667
-0.00667192
-0.0709424
-0.00840146
-0.0746027
-0.0787439
-0.0102304
0.000205669
-0.0149406
0.000155355
-0.0358502
-0.0004357
-0.0491301
-0.00147402
-0.0563243
-0.00281108
-0.0602943
-0.00431188
-0.0631875
-0.00592342
-0.0660551
-0.00764259
-0.0692232
-0.00948329
-0.072762
-0.0768056
-0.0114216
0.000134069
-0.0150747
-4.89684e-05
-0.0356671
-0.000809497
-0.0483695
-0.00198827
-0.0551456
-0.00343975
-0.0588428
-0.00504554
-0.0615817
-0.00675959
-0.0643411
-0.00858326
-0.0673996
-0.010532
-0.0708132
-0.0747634
-0.0125742
5.68704e-05
-0.0151316
-0.000287458
-0.0353228
-0.00117492
-0.0474821
-0.00248408
-0.0538364
-0.00404632
-0.0572806
-0.00575361
-0.0598745
-0.00756772
-0.062527
-0.00949351
-0.0654738
-0.0115478
-0.0687589
-0.072613
-0.0136982
-2.17831e-05
-0.0151098
-0.000504035
-0.0348406
-0.00152941
-0.0464567
-0.00296111
-0.0524047
-0.00462982
-0.0556119
-0.00643578
-0.0580685
-0.00834833
-0.0606144
-0.0103749
-0.0634472
-0.0125311
-0.0666026
-0.0703505
-0.0147936
-9.27902e-05
-0.015017
-0.000711074
-0.0342223
-0.00187113
-0.0452967
-0.00341926
-0.0508566
-0.00518968
-0.0538414
-0.00709151
-0.0561667
-0.00910209
-0.0586038
-0.0112312
-0.0613181
-0.0134784
-0.0643555
-0.0679963
-0.0158326
-0.000165335
-0.0148517
-0.000910663
-0.033477
-0.00219924
-0.0440081
-0.00385794
-0.0491979
-0.00572532
-0.0519741
-0.00771976
-0.0541722
-0.00982662
-0.056497
-0.0120596
-0.0590851
-0.0144255
-0.0619896
-0.0657134
-0.0167084
-0.000236631
-0.014615
-0.00110307
-0.0326105
-0.00251325
-0.0425979
-0.00427669
-0.0474344
-0.00623636
-0.0500144
-0.00831959
-0.052089
-0.0105166
-0.0543
-0.012827
-0.0567747
-0.0152068
-0.0596098
-0.062875
-0.0180451
-0.000305983
-0.014309
-0.00128795
-0.0316285
-0.00281282
-0.041073
-0.00467521
-0.045572
-0.00672272
-0.0479669
-0.00889048
-0.0499212
-0.0111688
-0.0520216
-0.0135518
-0.0543917
-0.016057
-0.0571046
-0.060059
-0.0188731
-0.000373034
-0.013936
-0.00146487
-0.0305367
-0.00309764
-0.0394403
-0.00505326
-0.0436164
-0.00718411
-0.045836
-0.0094323
-0.0476731
-0.0117906
-0.0496633
-0.0142629
-0.0519194
-0.0168856
-0.0544819
-0.0572253
-0.0197193
-0.000437509
-0.0134985
-0.00163341
-0.0293408
-0.00336744
-0.0377062
-0.00541063
-0.0415732
-0.00762014
-0.0436265
-0.00994424
-0.045349
-0.0123785
-0.0472291
-0.0149326
-0.0493652
-0.0176389
-0.0517756
-0.0543475
-0.0205167
-0.00049917
-0.0129993
-0.00179319
-0.0280468
-0.00362198
-0.0358775
-0.00574716
-0.039448
-0.00803075
-0.0413429
-0.0104267
-0.042953
-0.0129339
-0.0447219
-0.0155653
-0.0467339
-0.018346
-0.0489948
-0.0514132
-0.0212803
-0.000557802
-0.0124415
-0.00194391
-0.0266607
-0.00386104
-0.0339603
-0.00606274
-0.0372463
-0.00841579
-0.0389899
-0.0108795
-0.0404892
-0.0134556
-0.0421458
-0.0161581
-0.0440313
-0.0190073
-0.0461457
-0.0484158
-0.0220047
-0.00061321
-0.0118283
-0.0020853
-0.0251886
-0.00408447
-0.0319612
-0.00635726
-0.0349735
-0.00877519
-0.0365719
-0.0113025
-0.0379619
-0.0139433
-0.0395051
-0.0167119
-0.0412627
-0.0196259
-0.0432317
-0.0453541
-0.0226877
-0.000665222
-0.0111631
-0.00221716
-0.0236367
-0.00429211
-0.0298862
-0.00663067
-0.032635
-0.00910889
-0.0340937
-0.0116956
-0.0353752
-0.0143966
-0.0368041
-0.0172267
-0.0384325
-0.0202021
-0.0402562
-0.0422291
-0.0233271
-0.000713687
-0.0104494
-0.00233929
-0.0220111
-0.00448386
-0.0277416
-0.0068829
-0.0302359
-0.00941683
-0.0315598
-0.0120585
-0.0327336
-0.0148153
-0.0340473
-0.0177025
-0.0355454
-0.0207357
-0.037223
-0.0390439
-0.0239209
-0.000758472
-0.00969094
-0.00245154
-0.020318
-0.00465963
-0.0255335
-0.00711391
-0.0277817
-0.00969893
-0.0289748
-0.0123911
-0.0300414
-0.0151994
-0.031239
-0.0181391
-0.0326057
-0.021226
-0.0341361
-0.0358021
-0.0244678
-0.000799461
-0.00889147
-0.00255378
-0.0185637
-0.00481934
-0.023268
-0.00732367
-0.0252773
-0.00995514
-0.0263433
-0.0126934
-0.0273031
-0.0155486
-0.0283838
-0.0185363
-0.029618
-0.0216726
-0.0309998
-0.0325081
-0.0249666
-0.000836555
-0.00805492
-0.0026459
-0.0167543
-0.00496294
-0.0209509
-0.00751215
-0.0227281
-0.0101854
-0.0236701
-0.0129652
-0.0245233
-0.0158627
-0.0254864
-0.0188939
-0.0265868
-0.0220749
-0.0278188
-0.0291667
-0.0254163
-0.000869668
-0.00718525
-0.00272782
-0.0148962
-0.00509038
-0.0185884
-0.0076793
-0.0201392
-0.0103896
-0.0209597
-0.0132064
-0.0217066
-0.0161415
-0.0225512
-0.0192115
-0.0235168
-0.0224325
-0.0245978
-0.0257829
-0.0258162
-0.000898728
-0.00628652
-0.00279944
-0.0129955
-0.00520162
-0.0161862
-0.00782512
-0.0175157
-0.0105678
-0.018217
-0.0134169
-0.0188575
-0.016385
-0.0195831
-0.0194888
-0.0204129
-0.0227448
-0.0213418
-0.022362
-0.0261657
-0.000923671
-0.00536285
-0.00286072
-0.0110584
-0.00529662
-0.0137503
-0.00794957
-0.0148628
-0.0107199
-0.0154467
-0.0135965
-0.0159809
-0.0165928
-0.0165868
-0.0197258
-0.01728
-0.0230117
-0.0180559
-0.0189093
-0.0264644
-0.000944447
-0.00441841
-0.0029116
-0.00909126
-0.00537536
-0.0112865
-0.00805265
-0.0121855
-0.0108459
-0.0126535
-0.0137454
-0.0130814
-0.0167651
-0.0135671
-0.0199221
-0.014123
-0.0232328
-0.0147451
-0.0154302
-0.0267119
-0.000961014
-0.00345739
-0.00295203
-0.00710025
-0.00543782
-0.00880074
-0.00813432
-0.00948897
-0.0109456
-0.00984216
-0.0138632
-0.0101638
-0.0169015
-0.0105289
-0.0200776
-0.0109469
-0.0234081
-0.0114147
-0.0119303
-0.026908
-0.000973339
-0.00248405
-0.00298198
-0.00509161
-0.00548396
-0.00629876
-0.00819458
-0.00677835
-0.0110192
-0.00701756
-0.0139501
-0.0072328
-0.017002
-0.00747698
-0.0201923
-0.00775667
-0.0235373
-0.00806967
-0.00841478
-0.0270528
-0.000981398
-0.00150266
-0.00300143
-0.00307158
-0.00551379
-0.0037864
-0.00823341
-0.00405873
-0.0110665
-0.00418447
-0.014006
-0.0042933
-0.0170667
-0.00441629
-0.020266
-0.00455733
-0.0236204
-0.00471529
-0.00488923
-0.027146
-0.000985175
-0.000517481
-0.00301035
-0.0010464
-0.00552728
-0.00126947
-0.0082508
-0.00133521
-0.0110876
-0.00134771
-0.0140308
-0.00135007
-0.0170954
-0.00135173
-0.0202987
-0.00135397
-0.0236572
-0.00135684
-0.00135961
-0.0271868
-0.000984663
0.000467182
-0.00300875
0.000977691
-0.00552443
0.00124621
-0.00824675
0.00138711
-0.0110824
0.00148792
-0.0140245
0.00159207
-0.017088
0.00171179
-0.0202904
0.00184837
-0.023648
0.00200075
0.00216665
-0.0271742
-0.000979862
0.00144704
-0.00299661
0.00299444
-0.00550523
0.00375483
-0.00822123
0.0041031
-0.0110509
0.00431759
-0.0139872
0.00452834
-0.0170448
0.00476947
-0.0202415
0.005045
-0.0235934
0.00535267
0.00569139
-0.0271181
-0.000970781
0.00241783
-0.00297395
0.00499761
-0.00546968
0.00625056
-0.00817423
0.00680766
-0.0109931
0.00713647
-0.0139187
0.0074539
-0.0169656
0.00781635
-0.0201513
0.00823069
-0.0234923
0.00869373
0.00920401
-0.0270049
-0.000957436
0.00337526
-0.00294077
0.00698094
-0.00541777
0.00872756
-0.00810576
0.00949565
-0.010909
0.00993976
-0.0138191
0.0103639
-0.0168502
0.0108475
-0.0200199
0.0114004
-0.0233448
0.0120185
0.0126996
-0.0268404
-0.000939852
0.00431511
-0.0028971
0.00893819
-0.00534951
0.01118
-0.0080158
0.0121619
-0.0107987
0.0127226
-0.0136884
0.0132537
-0.016699
0.0138581
-0.0198477
0.0145491
-0.0231511
0.015322
0.0161731
-0.0266246
-0.000918064
0.00523318
-0.00284296
0.0108631
-0.00526491
0.0136019
-0.00790435
0.0148014
-0.010662
0.0154803
-0.0135266
0.0161183
-0.0165117
0.0168431
-0.0196344
0.0176718
-0.0229114
0.018599
0.0196188
-0.0263572
-0.000892117
0.00612529
-0.0027784
0.0127494
-0.00516397
0.0159875
-0.00777141
0.0174088
-0.010499
0.0182079
-0.0133338
0.0189531
-0.0162886
0.0197979
-0.0193803
0.0207635
-0.0226257
0.0218444
0.0230315
-0.0260384
-0.000862065
0.00698736
-0.00270347
0.0145908
-0.00504673
0.0183308
-0.00761698
0.0199791
-0.0103098
0.0209008
-0.01311
0.0217533
-0.0160297
0.0227176
-0.0190855
0.0238194
-0.0222941
0.025053
0.0264057
-0.0256683
-0.000827975
0.00781533
-0.00261824
0.016381
-0.0049132
0.0206257
-0.00744106
0.0225069
-0.0100943
0.023554
-0.0128553
0.0245142
-0.015735
0.0255973
-0.0187501
0.0268344
-0.0219169
0.0282199
0.0297361
-0.0252474
-0.000789925
0.00860526
-0.00252279
0.0181139
-0.00476343
0.0228663
-0.00724367
0.0249872
-0.00985262
0.026163
-0.0125696
0.0272312
-0.0154048
0.0284325
-0.0183743
0.0298039
-0.0214945
0.0313401
0.0330176
-0.024776
-0.00074801
0.00935327
-0.00241722
0.0197831
-0.00459746
0.0250466
-0.00702482
0.0274145
-0.00958473
0.0287229
-0.0122532
0.0298997
-0.0150392
0.0312185
-0.0179583
0.032723
-0.0210271
0.0344089
0.0362452
-0.0242548
-0.000702337
0.0100556
-0.00230164
0.0213824
-0.00441535
0.0271603
-0.00678455
0.0297837
-0.0092907
0.031229
-0.0119061
0.0325151
-0.0146383
0.0339506
-0.0175025
0.0355873
-0.0205153
0.0374217
0.0394145
-0.0236846
-0.000653034
0.0107086
-0.00217621
0.0229056
-0.00421718
0.0292013
-0.00652288
0.0320894
-0.00897058
0.0336767
-0.0115285
0.035073
-0.0142022
0.0366244
-0.017007
0.038392
-0.0199596
0.0403743
0.0425213
-0.0230664
-0.000600247
0.0113089
-0.00204109
0.0243464
-0.00400306
0.0311632
-0.00623986
0.0343262
-0.00862442
0.0360613
-0.0111203
0.0375689
-0.0137313
0.0392353
-0.016472
0.0411328
-0.0193604
0.0432627
0.0455623
-0.0224015
-0.000544143
0.011853
-0.00189649
0.0256988
-0.00377311
0.0330399
-0.00593555
0.0364887
-0.00825231
0.038378
-0.0106819
0.0399985
-0.0132256
0.041779
-0.0158975
0.0438048
-0.018718
0.0460831
0.0485357
-0.0216913
-0.000484916
0.0123379
-0.00174267
0.0269565
-0.00352751
0.0348247
-0.00561005
0.0385712
-0.00785431
0.0406223
-0.0102133
0.0423575
-0.0126854
0.044251
-0.0152836
0.046403
-0.0180321
0.0488317
0.0514414
-0.0209378
-0.000422781
0.0127607
-0.00157992
0.0281137
-0.00326646
0.0365112
-0.00526346
0.0405682
-0.00743051
0.0427894
-0.00971471
0.0446417
-0.012111
0.0466473
-0.0146296
0.0489215
-0.0173007
0.0515027
0.0542836
-0.0201429
-0.00035798
0.0131187
-0.00140861
0.0291643
-0.00299021
0.0380928
-0.00489594
0.0424739
-0.00698108
0.0448745
-0.00918635
0.046847
-0.0115036
0.0489646
-0.0139378
0.0513557
-0.0165226
0.0540876
0.0570735
-0.0193125
-0.000290782
0.0134095
-0.00122915
0.0301027
-0.00269906
0.0395627
-0.00450769
0.0442826
-0.00650612
0.0468729
-0.00862796
0.0489688
-0.0108622
0.0511989
-0.0132054
0.0536988
-0.0156757
0.056558
0.0598383
-0.0184405
-0.000221496
0.013631
-0.00104205
0.0309232
-0.00239336
0.040914
-0.00409896
0.0459882
-0.00600604
0.04878
-0.00804033
0.0510031
-0.0101898
0.0533484
-0.0124554
0.0559644
-0.0148017
0.0589044
0.0626207
-0.0175842
-0.000150519
0.0137815
-0.000847835
0.0316206
-0.00207349
0.0421397
-0.00367006
0.0475847
-0.00548114
0.0505911
-0.00742354
0.0529455
-0.00947986
0.0554047
-0.0116626
0.0581471
-0.0139824
0.0612241
0.0649008
-0.0162624
-7.86068e-05
0.0138601
-0.000646939
0.0321889
-0.00173989
0.0432327
-0.00322137
0.0490662
-0.0049316
0.0523013
-0.00677819
0.0547921
-0.00873584
0.0573623
-0.0108135
0.0602248
-0.0130146
0.0634252
0.0672213
-0.0153352
-9.63011e-06
0.0138697
-0.000439145
0.0326184
-0.00139313
0.0441866
-0.00275348
0.0504266
-0.00435788
0.0539057
-0.00610529
0.0565395
-0.00796244
0.0592195
-0.0099362
0.0621986
-0.0120449
0.0655339
0.0694416
-0.0142651
6.98854e-05
0.0137999
-0.000222028
0.0329103
-0.00103409
0.0449987
-0.00226709
0.0516596
-0.00376066
0.0553993
-0.00540581
0.0581846
-0.00716158
0.0609753
-0.0090319
0.0640689
-0.0110351
0.0675371
0.0715468
-0.0131403
0.000144288
0.0136556
1.72924e-05
0.0330373
-0.000664507
0.0456805
-0.00176259
0.0527576
-0.00314058
0.0567773
-0.00468026
0.0597243
-0.00633262
0.0626276
-0.00809737
0.0658337
-0.00999022
0.0694299
0.0735376
-0.0119811
0.000212564
0.013443
0.000210214
0.0330397
-0.000285909
0.0461766
-0.001241
0.0537127
-0.0024986
0.0580349
-0.00392903
0.0611548
-0.00547521
0.0641738
-0.00713162
0.0674901
-0.00891142
0.0712097
0.075417
-0.0107908
0.000279763
0.0131632
0.000425193
0.0328942
0.000107713
0.0464941
-0.000705292
0.0545257
-0.00183555
0.0591651
-0.00315262
0.0624718
-0.00458978
0.065611
-0.00613522
0.0690355
-0.00779869
0.0728732
0.0771802
-0.00956192
0.000346185
0.0128171
0.000640956
0.0325995
0.000488515
0.0466465
-0.000154955
0.0551692
-0.00115202
0.0601622
-0.00235175
0.0636716
-0.00367698
0.0669362
-0.00510897
0.0704675
-0.00665332
0.0744175
0.0788212
-0.0082943
0.0004098
0.0124073
0.000855623
0.0321536
0.000883437
0.0466187
0.000405391
0.0556473
-0.000449919
0.0610175
-0.00152726
0.0647489
-0.00273756
0.0681465
-0.00405359
0.0717835
-0.00547679
0.0758407
0.0803362
-0.00699176
0.000469637
0.0119376
0.00106739
0.0315559
0.00128165
0.0464045
0.000978189
0.0559507
0.000270774
0.0617249
-0.000680362
0.0657
-0.00177247
0.0692386
-0.00296995
0.072981
-0.00427057
0.0771414
0.0817226
-0.00565696
0.000524867
0.0114127
0.00127357
0.0308072
0.00167985
0.0459982
0.00156058
0.05607
0.00100863
0.0622769
0.000187295
0.0665214
-0.000783395
0.0702093
-0.0018592
0.0740568
-0.00303628
0.0783184
0.0829784
-0.00429209
0.000574598
0.0108382
0.00147142
0.0299104
0.00207486
0.0453948
0.0021489
0.0559959
0.00176153
0.0626643
0.00107926
0.0672036
0.0002279
0.0710607
-0.000724511
0.0750092
-0.00177412
0.0793681
0.0841038
-0.00289954
0.000617982
0.0102202
0.00165822
0.0288701
0.00246293
0.0445901
0.00273975
0.0557191
0.00252648
0.0628775
0.00198876
0.0677414
0.00126816
0.0717813
0.000435065
0.0758423
-0.000476535
0.0802797
0.0851144
-0.00148716
0.000654265
0.00956591
0.00183115
0.0276932
0.00283976
0.0435814
0.00332902
0.0552299
0.00330041
0.0629061
0.00291484
0.0681269
0.00232629
0.0723698
0.00162231
0.0765463
0.00082809
0.0810739
0.0860329
-9.03934e-05
0.000682801
0.0088831
0.0019873
0.0263887
0.00320064
0.0423681
0.00391181
0.0545187
0.00407947
0.0627385
0.00385484
0.0683516
0.00340314
0.0728215
0.00282663
0.0771228
0.00216622
0.0817343
0.0867611
0.00143802
0.000703075
0.00818003
0.00212357
0.0249683
0.00354033
0.0409513
0.00448243
0.0535766
0.00485893
0.062362
0.00480554
0.0684049
0.00449695
0.0731301
0.00405212
0.0775676
0.00352727
0.0822591
0.0873506
0.00293773
0.00071475
0.00746528
0.00223698
0.023446
0.00385316
0.0393352
0.00503428
0.0523955
0.0056331
0.0617631
0.00576288
0.0682752
0.00560484
0.0732881
0.00529504
0.0778774
0.00490265
0.0826515
0.0878041
0.00444916
0.000717696
0.00674758
0.00232495
0.0218388
0.0041331
0.037527
0.00555981
0.0509688
0.00639509
0.0609279
0.0067217
0.0679486
0.00672299
0.0732868
0.00655174
0.0780487
0.00629197
0.0829113
0.0881221
0.00597397
0.000711984
0.0060356
0.00238521
0.0201655
0.00437389
0.0355383
0.00605051
0.0492922
0.0071367
0.0598417
0.00767568
0.0674096
0.00784706
0.0731154
0.00781937
0.0780764
0.00769394
0.0830367
0.0883054
0.00751064
0.000697902
0.0053377
0.00241601
0.0184474
0.00456919
0.0333852
0.00649691
0.0473644
0.00784828
0.0584903
0.0086171
0.0666408
0.00897186
0.0727607
0.00909479
0.0779534
0.00910634
0.0830252
0.0883542
0.00905759
0.000675956
0.00466174
0.00241634
0.0167071
0.00471296
0.0310885
0.00688875
0.0451886
0.00851862
0.0568604
0.00953657
0.0656228
0.0100909
0.0722064
0.0103739
0.0776705
0.0105263
0.0828727
0.0882677
0.0106129
0.000646866
0.00401487
0.00238607
0.0149679
0.00479983
0.0286748
0.00721524
0.0427732
0.00913489
0.0549408
0.0104227
0.064335
0.0111959
0.0714331
0.0116514
0.077215
0.0119505
0.0825737
0.0880437
0.0121744
0.000611546
0.00340333
0.00232609
0.0132533
0.00482558
0.0261753
0.00746541
0.0401334
0.00968267
0.0527235
0.0112617
0.062756
0.0122765
0.0704183
0.0129203
0.0765712
0.0133743
0.0821197
0.0876791
0.0137389
0.000571073
0.00283226
0.00223835
0.011586
0.0047877
0.0236259
0.00762871
0.0372924
0.0101462
0.050206
0.0120375
0.0608646
0.0133195
0.0691363
0.0141719
0.0757188
0.0147922
0.0814994
0.087169
0.0153023
0.000526644
0.00230561
0.00212582
0.00998685
0.00468588
0.0210659
0.00769584
0.0342824
0.0105087
0.0473932
0.0127313
0.058642
0.0143089
0.0675587
0.0153946
0.0746331
0.0161969
0.0806972
0.086506
0.0168598
0.000479528
0.00182608
0.00199239
0.00847399
0.00452247
0.0185358
0.00765972
0.0311452
0.0107533
0.0442997
0.0133219
0.0560733
0.015225
0.0656556
0.0165737
0.0732844
0.0175786
0.0796923
0.0856794
0.0184052
0.000431014
0.00139507
0.00184264
0.00706237
0.00430263
0.0160758
0.00751666
0.0279312
0.0108639
0.0409524
0.0137859
0.0531514
0.0160442
0.0633973
0.0176903
0.0716383
0.0189247
0.0784579
0.0846735
0.0199305
0.000382361
0.00101271
0.00168158
0.00576315
0.00403425
0.0137231
0.00726748
0.0246979
0.0108272
0.0373927
0.0140988
0.0498799
0.0167391
0.060757
0.0187207
0.0696567
0.020218
0.0769606
0.0834664
0.0214251
0.000334749
0.000677959
0.00151434
0.00458355
0.00372745
0.01151
0.00691842
0.0215069
0.0106338
0.0336773
0.0142363
0.0462773
0.0172786
0.0577147
0.0196356
0.0672996
0.0214363
0.0751599
0.082028
0.0228746
0.000289225
0.000388735
0.00134586
0.00352692
0.00339379
0.0094621
0.00648138
0.0184194
0.0102813
0.0298774
0.0141768
0.0423818
0.0176289
0.0542625
0.0204
0.0645286
0.0225506
0.0730094
0.0803192
0.0242594
0.000246642
0.000142093
0.00118053
0.00259303
0.00304524
0.00759738
0.00597331
0.0154913
0.00977543
0.0260753
0.0139037
0.0382536
0.0177558
0.0504104
0.0209732
0.0613112
0.0235243
0.0704583
0.0782902
0.0255533
0.000207598
-6.55055e-05
0.00102192
0.00177871
0.002693
0.0059263
0.00541458
0.0127697
0.00913176
0.0223581
0.0134096
0.0339757
0.0176273
0.0461928
0.0213097
0.0576287
0.0243122
0.0674558
0.0758809
0.0267215
0.000172363
-0.000237868
0.000872479
0.00107859
0.00234645
0.00445232
0.00482655
0.0102896
0.00837469
0.01881
0.0126995
0.0296509
0.017218
0.0416743
0.0213626
0.0534841
0.0248606
0.0639579
0.0730225
0.027719
0.000140829
-0.000378697
0.000733349
0.000486074
0.00201232
0.00317335
0.00422886
0.00807307
0.00753496
0.0155039
0.0117925
0.0253934
0.0165149
0.0369518