/*--------------------------------*- C++ -*----------------------------------*\
  =========                 |
  \\      /  F ield         | OpenFOAM: The Open Source CFD Toolbox
   \\    /   O peration     | Website:  https://openfoam.org
    \\  /    A nd           | Version:  7
     \\/     M anipulation  |
\*---------------------------------------------------------------------------*/
FoamFile
{
    version     2.0;
    format      ascii;
    class       volVectorField;
    location    "240";
    object      U;
}
// * * * * * * * * * * * * * * * * * * * * * * * * * * * * * * * * * * * * * //

dimensions      [0 1 -1 0 0 0 0];

internalField   nonuniform List<vector> 
8500
(
(-0.00182626 0.0718625 1.14239e-21)
(-0.0073733 0.163282 -3.26089e-21)
(-0.0183732 0.216797 -3.79058e-21)
(-0.0329312 0.241608 3.76713e-21)
(-0.049558 0.248182 -3.48057e-21)
(-0.0666373 0.245499 -1.87171e-21)
(-0.0828216 0.239115 3.23779e-21)
(-0.0972115 0.230857 4.10212e-21)
(-0.108907 0.219659 -7.03544e-22)
(-0.117101 0.202273 2.07984e-21)
(-0.00413444 0.0725569 -1.25767e-21)
(-0.0113099 0.166469 3.8768e-21)
(-0.0211497 0.222589 -9.22867e-21)
(-0.0332609 0.249351 8.36881e-21)
(-0.0467414 0.256898 3.39796e-22)
(-0.0602498 0.254238 6.16425e-21)
(-0.0724332 0.247128 -1.0887e-20)
(-0.0821713 0.237638 -1.62641e-20)
(-0.088348 0.224935 -3.33508e-21)
(-0.0895493 0.206042 7.71107e-21)
(-0.00642882 0.0722905 1.20612e-21)
(-0.0153151 0.167754 8.71892e-21)
(-0.023993 0.226208 2.03833e-20)
(-0.0334931 0.254976 -1.84422e-20)
(-0.0434892 0.263655 -4.24268e-21)
(-0.0529319 0.261124 -3.8601e-21)
(-0.0604876 0.253272 1.99532e-20)
(-0.0648363 0.2424 1.25053e-20)
(-0.0647028 0.227963 3.10533e-21)
(-0.0578037 0.207259 -2.39866e-20)
(-0.00862589 0.0710835 4.29743e-21)
(-0.0192514 0.167105 -5.09694e-21)
(-0.0268041 0.227526 -3.84202e-20)
(-0.0336023 0.258291 3.34508e-21)
(-0.0398495 0.26823 1.05414e-20)
(-0.0448163 0.265938 -8.36807e-21)
(-0.0472292 0.257351 -2.94266e-22)
(-0.0455996 0.244977 -3.56039e-21)
(-0.0386128 0.228557 8.14866e-21)
(-0.0228579 0.205888 2.45409e-20)
(-0.0106463 0.0689913 3.03907e-21)
(-0.0229957 0.164544 -1.67453e-20)
(-0.0295005 0.226465 3.9944e-20)
(-0.0335727 0.259145 -1.82581e-20)
(-0.035895 0.270436 -6.14944e-23)
(-0.0360689 0.268495 2.55639e-20)
(-0.0329382 0.259217 -1.18455e-20)
(-0.0249049 0.245276 1.46755e-21)
(-0.0106795 0.226708 -4.9951e-21)
(0.0144284 0.201795 1.99591e-21)
(-0.0124252 0.0660995 3.61044e-20)
(-0.0264347 0.160149 4.32171e-20)
(-0.03201 0.223023 -1.09508e-20)
(-0.0334068 0.257435 2.09432e-20)
(-0.0317167 0.270118 6.66857e-21)
(-0.0268749 0.26864 -9.45593e-21)
(-0.0179022 0.258757 -3.67388e-21)
(-0.0031352 0.243265 -1.69042e-20)
(0.0184389 0.222505 3.64415e-21)
(0.0533729 0.194843 -2.33767e-20)
(-0.0139148 0.0625248 -3.48034e-20)
(-0.0294753 0.154062 -2.25363e-20)
(-0.0342738 0.217257 1.84365e-20)
(-0.0331191 0.253116 -3.18373e-20)
(-0.0274172 0.267158 3.72206e-21)
(-0.0174276 0.266238 3.79527e-20)
(-0.00240622 0.255874 -6.84025e-21)
(0.0193627 0.238924 4.7036e-20)
(0.0482136 0.216008 -6.31684e-22)
(0.0934889 0.185202 -2.03387e-20)
(-0.0150875 0.0584094 2.93541e-20)
(-0.0320526 0.146489 -5.24524e-20)
(-0.0362503 0.209295 -2.07256e-20)
(-0.0327316 0.246201 2.42752e-20)
(-0.023102 0.261478 8.5235e-22)
(-0.00791652 0.261174 -7.1198e-20)
(0.0132817 0.250476 -4.37129e-21)
(0.0423063 0.232242 -3.67459e-20)
(0.0782527 0.207319 -4.90963e-20)
(0.134591 0.173032 3.00128e-20)
(-0.0159391 0.0539142 -1.64777e-20)
(-0.0341347 0.137686 7.76874e-21)
(-0.0379184 0.199333 1.92054e-20)
(-0.0322709 0.236768 -1.71157e-20)
(-0.0188694 0.253049 -6.03692e-20)
(0.00148682 0.253354 2.10526e-20)
(0.0289277 0.242459 3.17816e-21)
(0.0654919 0.223188 5.52276e-20)
(0.108302 0.196497 7.55898e-20)
(0.176873 0.158458 -3.51693e-20)
(-0.0164896 0.0492108 2.59201e-20)
(-0.0357255 0.12795 2.33285e-20)
(-0.039277 0.187634 -3.32408e-21)
(-0.0317608 0.22497 8.52932e-20)
(-0.0147955 0.241896 3.62558e-20)
(0.0106509 0.242714 2.74977e-20)
(0.0443605 0.231711 3.98503e-20)
(0.0888201 0.211696 -1.80808e-20)
(0.13828 0.183503 -2.52684e-20)
(0.220985 0.14158 -4.31944e-20)
(-0.0167837 0.0444724 -2.3848e-21)
(-0.036865 0.117603 -3.66027e-20)
(-0.0403416 0.174516 -2.62655e-20)
(-0.0312113 0.211029 -4.20603e-20)
(-0.0109102 0.228119 -3.3498e-20)
(0.0195213 0.229238 3.38335e-20)
(0.0595291 0.218129 -3.31078e-20)
(0.112357 0.197684 -2.36457e-20)
(0.168393 0.168166 3.09551e-21)
(0.268158 0.122506 1.13514e-20)
(-0.0168872 0.0398658 -7.09655e-20)
(-0.0376246 0.106978 3.36056e-20)
(-0.0411349 0.160342 2.43395e-20)
(-0.0305988 0.195247 1.61335e-20)
(-0.00716043 0.211904 -2.94363e-20)
(0.0281822 0.212993 -2.53468e-20)
(0.0746049 0.201662 3.7108e-20)
(0.136448 0.181106 -3.07782e-20)
(0.199399 0.150205 -1.31674e-21)
(0.32033 0.101461 -3.44258e-20)
(-0.016883 0.0355414 5.91652e-20)
(-0.0380957 0.0963972 2.37361e-20)
(-0.0416697 0.145502 1.39086e-21)
(-0.029837 0.177995 -2.94891e-20)
(-0.00335777 0.193544 2.23143e-21)
(0.0369444 0.194166 3.2755e-20)
(0.0901314 0.182383 -9.49821e-21)
(0.1619 0.162019 -1.17973e-20)
(0.23299 0.129363 -2.8343e-20)
(0.380133 0.0789958 5.23302e-20)
(-0.016862 0.0316249 3.95918e-20)
(-0.0383723 0.0861527 -6.40676e-20)
(-0.0419239 0.130395 -4.89725e-20)
(-0.0287378 0.159704 2.11618e-20)
(0.000887095 0.173444 4.30427e-20)
(0.046453 0.173101 3.64245e-20)
(0.107191 0.160569 -3.94611e-20)
(0.19018 0.140631 7.86011e-20)
(0.272166 0.105685 -2.39076e-20)
(0.450366 0.0561506 -6.16036e-20)
(-0.0169124 0.0282083 -5.97482e-20)
(-0.038528 0.0764902 3.57602e-20)
(-0.0418089 0.115406 -1.67801e-20)
(-0.0269681 0.140853 1.76849e-21)
(0.00623123 0.152125 1.78127e-20)
(0.0577901 0.150327 -5.7551e-20)
(0.127511 0.136783 5.20565e-20)
(0.223451 0.11747 -5.11596e-20)
(0.321202 0.0799478 8.62785e-20)
(0.532728 0.0343518 3.24295e-20)
(-0.0171069 0.025342 1.24471e-20)
(-0.0385897 0.0675899 6.88255e-20)
(-0.0411384 0.10088 -1.7117e-20)
(-0.0240126 0.121938 1.73178e-20)
(0.0136451 0.130205 1.98944e-20)
(0.0725311 0.126558 -5.89535e-21)
(0.153523 0.111935 4.38642e-20)
(0.264614 0.0932167 1.73439e-21)
(0.384739 0.0538743 -5.59354e-20)
(0.625736 0.0149306 7.65551e-20)
(-0.017488 0.0230288 -3.35281e-20)
(-0.0385134 0.0595539 -6.5072e-20)
(-0.0396054 0.0871015 5.61892e-20)
(-0.0191593 0.103443 2.79227e-20)
(0.0244039 0.108357 -1.29433e-19)
(0.0926706 0.10265 1.05556e-19)
(0.188 0.087174 -9.66254e-20)
(0.316915 0.0687211 1.09091e-21)
(0.46619 0.0300805 -2.33763e-20)
(0.726092 -6.82867e-05 -7.14064e-20)
(-0.0180557 0.0212219 2.87533e-20)
(-0.038168 0.0523979 -3.80965e-21)
(-0.0367767 0.0742732 -1.38033e-20)
(-0.0115224 0.0857983 -1.68112e-21)
(0.0400025 0.0872507 -7.96181e-21)
(0.120413 0.0795294 -3.3762e-20)
(0.233604 0.0637954 1.47893e-20)
(0.383099 0.0452512 -2.31765e-20)
(0.565317 0.0113158 6.81977e-21)
(0.82626 -0.0103963 1.72116e-21)
(-0.0187594 0.0198273 -5.86554e-20)
(-0.0373314 0.0460525 -4.11281e-21)
(-0.0321117 0.062498 6.32507e-21)
(-0.000108227 0.0693431 2.57015e-21)
(0.0619938 0.0674933 4.22623e-20)
(0.157832 0.0580947 -1.23181e-19)
(0.292259 0.0429999 8.39104e-20)
(0.464541 0.0244586 -6.33492e-20)
(0.677224 -0.000350047 5.5983e-20)
(0.919346 -0.0166628 6.41682e-20)
(-0.0194966 0.0187144 -7.03062e-21)
(-0.0356996 0.040373 3.25336e-20)
(-0.0250014 0.0517758 -4.05465e-20)
(0.0160876 0.0542998 -1.26343e-20)
(0.0917828 0.049571 2.43041e-20)
(0.206487 0.039127 1.17157e-19)
(0.364631 0.0257042 -2.37794e-20)
(0.560261 0.00829823 1.15918e-20)
(0.793471 -0.00459251 -6.38673e-20)
(1.0019 -0.0221239 2.8807e-20)
(-0.0201238 0.0177354 -2.12719e-20)
(-0.0329061 0.0351578 -1.65054e-20)
(-0.0148185 0.042014 4.10713e-21)
(0.037977 0.0407714 1.59425e-20)
(0.130438 0.0338329 -4.70979e-20)
(0.267104 0.0232548 -1.9032e-20)
(0.449866 0.0125215 -6.03779e-20)
(0.666369 -0.00156828 6.32608e-20)
(0.904924 -0.00395328 6.81821e-20)
(1.07529 -0.0309961 -3.04008e-20)
(-0.0204723 0.0167406 -1.01233e-20)
(-0.0285515 0.0301763 4.13778e-20)
(-0.000964202 0.0330589 -4.60659e-20)
(0.0662987 0.028767 -5.39513e-21)
(0.17857 0.0205101 -2.17225e-20)
(0.339415 0.0109521 4.73255e-20)
(0.545617 0.0038819 6.13363e-20)
(0.776663 -0.00485571 -5.92486e-20)
(1.00489 -0.00259656 6.35722e-20)
(1.16754 -0.0291162 8.41703e-21)
(-0.0203586 0.0155926 -2.9413e-20)
(-0.0222326 0.0252091 -8.35694e-20)
(0.0170971 0.0247417 8.14858e-20)
(0.101575 0.0182537 1.16823e-20)
(0.236278 0.0097693 1.6989e-20)
(0.42215 0.00255549 1.05146e-20)
(0.648235 3.95392e-05 4.69621e-20)
(0.884542 -0.00291276 3.47613e-20)
(1.09639 0.00195923 -1.24301e-19)
(1.24176 -0.0185956 -6.1056e-20)
(-0.0195955 0.0141855 -1.00693e-19)
(-0.0135608 0.0200859 2.0253e-20)
(0.0398207 0.0169307 -4.61591e-20)
(0.144101 0.0092231 8.96588e-21)
(0.303157 0.00178015 1.42775e-20)
(0.513154 -0.00172678 -1.03452e-19)
(0.753267 0.00089239 4.58538e-20)
(0.985581 0.00318891 -3.12092e-20)
(1.17571 0.0101084 3.29084e-20)
(1.29647 -0.00634016 -1.13832e-20)
(-0.0180051 0.0124591 3.64586e-20)
(-0.00217223 0.0147149 3.94239e-20)
(0.0675779 0.00957995 -2.31508e-21)
(0.193951 0.00175474 -1.26179e-20)
(0.378302 -0.00323995 4.09992e-22)
(0.609584 -0.00183389 9.50954e-22)
(0.85634 0.00601644 -6.97588e-20)
(1.07663 0.0126364 8.86416e-21)
(1.2415 0.0206255 8.72091e-20)
(1.33928 0.00724479 3.96427e-20)
(-0.015425 0.0104011 -2.47261e-20)
(0.0122646 0.00910084 -1.82866e-20)
(0.100653 0.00276466 7.88036e-20)
(0.25097 -0.00394444 2.03806e-21)
(0.460327 -0.00503241 -3.31816e-20)
(0.708216 0.00212919 8.89656e-20)
(0.953786 0.014823 1.95735e-20)
(1.15591 0.0246249 1.09969e-21)
(1.29458 0.0328684 -3.82251e-20)
(1.36946 0.0214293 -4.96719e-20)
(-0.0117092 0.00804469 5.18326e-20)
(0.0300415 0.00335034 -1.44082e-20)
(0.13923 -0.00330531 -8.645e-21)
(0.314745 -0.00753957 -3.28081e-20)
(0.547399 -0.00335634 5.38525e-20)
(0.805825 0.00990052 -2.63348e-20)
(1.04295 0.0266732 -2.97515e-20)
(1.22298 0.038497 -7.06642e-21)
(1.33587 0.0462243 -2.18253e-20)
(1.39066 0.0357941 2.38807e-20)
(-0.00672688 0.00546099 -1.90711e-20)
(0.0514024 -0.00233496 -1.1368e-19)
(0.183368 -0.00829415 1.18358e-20)
(0.384563 -0.00861035 4.10152e-20)
(0.637338 0.0019357 2.93306e-20)
(0.899541 0.0211011 -9.78463e-20)
(1.12225 0.0409586 6.26659e-20)
(1.27817 0.0537059 -2.84849e-20)
(1.36703 0.0602795 4.29899e-20)
(1.40433 0.0502633 1.1838e-20)
(-0.000361114 0.00275086 -2.09652e-20)
(0.0765298 -0.0076738 4.03212e-20)
(0.232962 -0.0117686 5.28027e-20)
(0.459377 -0.00672513 -3.79153e-20)
(0.727808 0.0108494 1.41259e-20)
(0.987093 0.0352892 -8.61903e-20)
(1.19101 0.0571358 -1.61532e-20)
(1.32244 0.0698312 1.34903e-20)
(1.38963 0.0747626 -3.26919e-20)
(1.41242 0.0647122 -3.31774e-20)
(0.0074904 3.76295e-05 -2.71345e-20)
(0.105528 -0.0123246 -9.24023e-21)
(0.287707 -0.0132401 -9.58287e-20)
(0.537825 -0.00152153 -1.50688e-20)
(0.816533 0.0232467 -1.61907e-21)
(1.06691 0.0520083 5.13834e-21)
(1.24926 0.0747458 8.93134e-21)
(1.357 0.0865618 -4.23691e-20)
(1.40526 0.0895014 7.64054e-22)
(1.41622 0.0791599 2.28723e-20)
(0.0169113 -0.00253813 -7.09747e-21)
(0.138405 -0.0159059 3.31942e-20)
(0.347069 -0.0122153 4.68537e-20)
(0.618306 0.00723426 2.93675e-20)
(0.901509 0.0388778 -8.70666e-21)
(1.13807 0.0708221 -7.19958e-21)
(1.29752 0.0934156 7.12801e-20)
(1.38315 0.103682 9.49139e-21)
(1.41527 0.104407 3.19333e-20)
(1.41684 0.0936079 -1.3786e-20)
(0.0279607 -0.00482285 6.77754e-20)
(0.175054 -0.0180159 4.39771e-20)
(0.410281 -0.00824494 -4.46583e-20)
(0.699109 0.0196247 -8.9157e-21)
(0.98113 0.057424 4.64924e-21)
(1.20022 0.0913346 -1.69254e-20)
(1.33659 0.112854 -3.65726e-20)
(1.40219 0.121048 -6.07024e-21)
(1.42083 0.119438 4.71102e-22)
(1.41507 0.10809 1.49181e-20)
(0.0406668 -0.00665308 8.35569e-21)
(0.215239 -0.0182523 -2.40042e-20)
(0.476366 -0.000966513 5.69098e-20)
(0.778552 0.0355912 3.7134e-20)
(1.05424 0.0785359 1.11187e-21)
(1.25343 0.1132 2.62819e-20)
(1.36741 0.132841 3.87251e-21)
(1.41529 0.138575 -2.76363e-20)
(1.42287 0.134581 2.34027e-20)
(1.4115 0.122628 -2.47357e-23)
(0.0550195 -0.00785842 -5.58704e-20)
(0.258594 -0.0162311 -1.65034e-20)
(0.544189 0.00986841 -1.49504e-20)
(0.855109 0.0549631 -2.60542e-20)
(1.12009 0.101859 6.10109e-21)
(1.29806 0.136122 1.38916e-22)
(1.39095 0.153215 2.01619e-20)
(1.42345 0.156215 -3.22323e-21)
(1.42214 0.14984 -2.40847e-20)
(1.40651 0.137236 -2.2472e-20)
(0.0709649 -0.00826537 4.53391e-21)
(0.30462 -0.0116062 2.67175e-20)
(0.612527 0.0243831 1.29686e-20)
(0.92749 0.0774898 -4.05654e-20)
(1.17831 0.12705 -2.04474e-21)
(1.33464 0.159853 -1.73934e-20)
(1.40814 0.173858 4.50347e-22)
(1.42753 0.173939 8.16429e-21)
(1.41918 0.165217 -9.08247e-21)
(1.40037 0.151916 2.54024e-20)
(0.0884018 -0.00770223 1.06354e-20)
(0.3527 -0.00408801 -2.61418e-20)
(0.680142 0.0425788 -6.18533e-20)
(0.994676 0.102869 5.70109e-20)
(1.2288 0.153785 -4.25367e-21)
(1.36381 0.184186 1.25805e-20)
(1.41982 0.194683 -1.74172e-21)
(1.42823 0.191733 1.2091e-20)
(1.41439 0.18071 -8.96843e-22)
(1.39325 0.166655 -1.96901e-20)
(0.10718 -0.00600505 -2.16628e-20)
(0.40212 0.00654075 3.4002e-20)
(0.745854 0.0643477 2.81471e-20)
(1.05592 0.130767 -4.06145e-20)
(1.27167 0.181762 -6.72042e-21)
(1.38622 0.208946 2.56437e-21)
(1.42675 0.215623 2.57558e-20)
(1.4261 0.20958 1.30677e-21)
(1.40806 0.196307 5.04435e-21)
(1.38524 0.181428 -1.08704e-20)
(0.127102 -0.00302439 1.64372e-20)
(0.452098 0.0204131 -1.48378e-20)
(0.80859 0.0894896 -1.26512e-20)
(1.11071 0.160833 2.17065e-20)
(1.30719 0.210701 7.49632e-21)
(1.40251 0.233984 5.66458e-21)
(1.42956 0.236618 -2.62355e-20)
(1.42155 0.227458 -9.02794e-21)
(1.40039 0.211982 -8.10495e-21)
(1.37639 0.196195 3.57251e-21)
(0.147926 0.00136765 -8.1812e-21)
(0.501817 0.0375716 -1.92598e-22)
(0.867419 0.11773 2.39393e-20)
(1.15875 0.19271 -8.78464e-21)
(1.33569 0.240342 -3.87527e-21)
(1.4133 0.259165 -2.55282e-21)
(1.42877 0.257613 6.35496e-21)
(1.41491 0.245337 1.10076e-20)
(1.39148 0.227696 -3.53278e-22)
(1.36671 0.210906 4.05279e-21)
(0.169373 0.00727089 5.76526e-21)
(0.550456 0.0579671 -1.61988e-21)
(0.921573 0.148737 -4.28356e-21)
(1.19991 0.226038 -3.88027e-21)
(1.35757 0.270441 3.49611e-21)
(1.41911 0.284364 2.73087e-21)
(1.42482 0.278546 -2.52028e-21)
(1.40639 0.263171 9.19986e-22)
(1.38142 0.243393 1.29691e-21)
(1.35622 0.225499 -1.73169e-21)
(0.191134 0.0147515 3.08392e-21)
(0.597221 0.0814623 8.80876e-22)
(0.970442 0.182135 -5.3001e-21)
(1.2342 0.26046 -4.22993e-21)
(1.37323 0.300767 4.41272e-21)
(1.42044 0.309461 8.64307e-22)
(1.41805 0.299346 -2.03125e-21)
(1.39618 0.280903 1.91361e-21)
(1.37025 0.259004 1.07622e-21)
(1.34492 0.239905 -1.24793e-21)
(0.21288 0.0238376 -1.20818e-21)
(0.641372 0.107839 2.47225e-21)
(1.01357 0.217519 1.63142e-20)
(1.2617 0.295623 -7.25585e-21)
(1.38309 0.331097 -3.56305e-21)
(1.4177 0.334332 -4.03103e-21)
(1.40872 0.319934 8.28723e-21)
(1.38437 0.298458 5.60344e-21)
(1.35799 0.274444 4.50524e-21)
(1.33281 0.25405 2.47194e-21)
(0.234268 0.0345175 2.46914e-20)
(0.682246 0.136808 -1.36349e-20)
(1.05065 0.25446 -1.55486e-20)
(1.28259 0.331181 2.11206e-20)
(1.38754 0.361217 1.11397e-20)
(1.41126 0.358855 -7.50944e-22)
(1.39706 0.340219 -1.38939e-20)
(1.37104 0.315748 -1.00498e-20)
(1.34464 0.289613 -1.06178e-20)
(1.31987 0.267854 6.38925e-21)
(0.254955 0.0467383 -3.33944e-20)
(0.719265 0.168018 3.15063e-20)
(1.08147 0.292519 3.62643e-20)
(1.29709 0.366796 -3.57828e-20)
(1.38696 0.390916 -1.24118e-20)
(1.40142 0.382899 8.02537e-21)
(1.38322 0.360103 1.46485e-20)
(1.35624 0.332676 2.34533e-21)
(1.33017 0.304398 -4.54152e-22)
(1.30604 0.281225 -8.81021e-21)
(0.274607 0.0604073 -4.77581e-21)
(0.751948 0.201071 -4.4287e-20)
(1.10597 0.331249 -4.74694e-20)
(1.30548 0.402139 5.33245e-20)
(1.38171 0.419986 -6.07171e-21)
(1.38847 0.406328 1.12872e-20)
(1.36735 0.379478 2.26387e-21)
(1.34001 0.349148 -6.32881e-21)
(1.31459 0.31871 3.4087e-21)
(1.29115 0.294072 -5.5653e-22)
(0.292904 0.0753946 9.73639e-21)
(0.779917 0.23553 2.74326e-20)
(1.12415 0.370202 1.55627e-20)
(1.30804 0.436888 -1.22379e-20)
(1.37211 0.448222 -1.9162e-20)
(1.37262 0.429 -1.79725e-20)
(1.34957 0.398224 -3.67928e-21)
(1.32243 0.365066 1.00036e-20)
(1.29793 0.332534 -2.12165e-21)
(1.27501 0.30635 4.89953e-21)
(0.309553 0.0915359 -3.68138e-20)
(0.802898 0.270936 -3.44627e-20)
(1.1361 0.408936 -5.4869e-21)
(1.30506 0.470734 -6.19385e-21)
(1.35849 0.47542 -1.42337e-20)
(1.35409 0.450765 8.79402e-21)
(1.32995 0.416202 -1.55862e-21)
(1.30351 0.380291 -8.77977e-21)
(1.28026 0.345889 8.00396e-21)
(1.25786 0.31809 -1.2083e-20)
(0.324294 0.108636 8.71841e-21)
(0.820713 0.306819 2.92301e-20)
(1.14195 0.447019 2.55103e-20)
(1.29688 0.503376 2.78356e-20)
(1.34113 0.50138 4.42184e-22)
(1.33305 0.471473 2.49823e-20)
(1.3086 0.433274 1.82344e-21)
(1.28329 0.394655 -3.04983e-20)
(1.26141 0.35857 2.2248e-20)
(1.24009 0.329084 8.25472e-21)
(0.336903 0.126474 2.38473e-20)
(0.833274 0.342707 5.35517e-20)
(1.14191 0.484034 -7.08073e-21)
(1.28381 0.534526 -3.51518e-20)
(1.32032 0.525907 1.59352e-20)
(1.30968 0.49097 -1.68139e-20)
(1.28562 0.449314 -2.31528e-20)
(1.26184 0.408128 -2.42539e-21)
(1.24138 0.37036 -1.89679e-20)
(1.22169 0.339296 7.54705e-21)
(0.347199 0.14481 1.13116e-20)
(0.840569 0.378131 8.54451e-21)
(1.13623 0.51958 6.74555e-20)
(1.26618 0.563907 1.28315e-20)
(1.29633 0.548809 -1.13806e-20)
(1.28416 0.509096 -5.84506e-21)
(1.26114 0.464167 3.61402e-20)
(1.2392 0.420582 3.0412e-20)
(1.22034 0.381198 1.54785e-20)
(1.20249 0.348552 -2.25536e-21)
(0.355044 0.163391 2.45324e-21)
(0.842662 0.41264 -5.48886e-20)
(1.12521 0.553274 -7.95421e-20)
(1.24436 0.591261 2.70767e-21)
(1.2694 0.569895 1.62361e-20)
(1.25668 0.525689 -2.27369e-20)
(1.23524 0.477706 -5.40324e-20)
(1.21538 0.431898 -1.65367e-20)
(1.19836 0.39097 -1.06742e-21)
(1.18253 0.356791 9.31897e-21)
(0.360345 0.18196 -1.97463e-20)
(0.839691 0.445799 5.02111e-20)
(1.10919 0.584765 4.80899e-20)
(1.21865 0.616339 -4.53202e-20)
(1.23978 0.588977 6.83956e-21)
(1.22738 0.540591 5.70945e-20)
(1.20799 0.489796 -1.40472e-20)
(1.19049 0.441953 1.15755e-20)
(1.17549 0.399582 -6.49662e-21)
(1.16185 0.363932 -8.83792e-21)
(0.363056 0.200257 -4.48591e-20)
(0.831877 0.477193 -7.90543e-20)
(1.08858 0.613764 -1.56037e-20)
(1.18929 0.63887 2.5929e-20)
(1.20774 0.605881 2.67078e-20)
(1.19643 0.553645 -5.78474e-20)
(1.17952 0.500307 3.30319e-20)
(1.16461 0.450637 -1.94269e-20)
(1.15182 0.406934 1.68932e-20)
(1.14055 0.369913 2.24273e-23)
(0.363185 0.218016 3.4155e-20)
(0.819531 0.506416 2.09875e-21)
(1.06373 0.640035 -7.72792e-21)
(1.15654 0.658644 -3.32187e-20)
(1.17355 0.620379 2.31689e-20)
(1.164 0.564713 4.0122e-21)
(1.14996 0.509116 -2.09631e-20)
(1.13786 0.457841 2.23937e-21)
(1.12741 0.412927 -5.61654e-21)
(1.1187 0.374656 4.7592e-21)
(0.360799 0.234974 -9.65824e-21)
(0.802993 0.533121 -1.40674e-20)
(1.0346 0.663131 3.49929e-20)
(1.12098 0.67563 1.64349e-20)
(1.13752 0.632301 -2.3106e-20)
(1.1303 0.573651 3.69774e-20)
(1.11945 0.51611 1.81133e-21)
(1.11033 0.46347 1.27986e-21)
(1.10237 0.41746 -5.50161e-21)
(1.09641 0.378065 -5.92469e-22)
(0.355994 0.250849 6.33531e-20)
(0.782472 0.5572 4.89864e-20)
(1.00153 0.682705 -2.48452e-21)
(1.08308 0.689458 -8.51053e-21)
(1.09988 0.641626 -9.84481e-21)
(1.0955 0.580356 -5.11533e-21)
(1.08813 0.521188 8.83383e-22)
(1.08215 0.467438 3.11507e-21)
(1.07679 0.420435 5.80061e-21)
(1.07375 0.380035 1.17393e-21)
(0.348839 0.265297 6.57087e-21)
(0.758081 0.578233 9.33696e-21)
(0.96545 0.698921 -4.87793e-20)
(1.04311 0.699901 2.28261e-20)
(1.0609 0.648191 9.77769e-21)
(1.05979 0.584724 -2.29043e-20)
(1.05614 0.524255 6.71586e-21)
(1.05341 0.46967 9.99388e-22)
(1.0508 0.421786 -1.13913e-21)
(1.05098 0.380521 -6.95769e-22)
(0.339373 0.278091 -2.39564e-20)
(0.730114 0.595697 -1.86021e-20)
(0.926806 0.711481 1.76926e-20)
(1.00138 0.706962 6.66092e-21)
(1.02082 0.651895 -8.22264e-21)
(1.02338 0.58666 9.95646e-21)
(1.02363 0.525223 4.59899e-22)
(1.02423 0.47007 2.13149e-21)
(1.02466 0.421438 5.46109e-21)
(1.0288 0.379577 3.63547e-21)
(0.327835 0.289071 -1.96801e-20)
(0.699178 0.609441 5.47243e-20)
(0.8859 0.720156 -3.69728e-20)
(0.958213 0.71055 -3.79569e-21)
(0.9799 0.652652 -9.56848e-21)
(0.986436 0.586086 5.81409e-21)
(0.990698 0.524009 -1.00469e-21)
(0.994698 0.468498 9.72209e-22)
(0.998801 0.41917 2.15111e-21)
(1.00803 0.377206 -7.97881e-22)
(0.314452 0.298154 -1.7518e-22)
(0.66571 0.619332 -1.59134e-20)
(0.843141 0.724775 1.16893e-20)
(0.913967 0.710587 -8.42732e-21)
(0.938413 0.650402 -1.79063e-21)
(0.949152 0.582956 2.1526e-21)
(0.957466 0.520575 5.0673e-21)
(0.965029 0.464862 -5.56563e-21)
(0.9736 0.414591 -1.15709e-20)
(0.987889 0.372604 6.49315e-21)
(0.299396 0.305159 3.03924e-21)
(0.63016 0.625243 2.30739e-22)
(0.798952 0.725247 3.5974e-22)
(0.868989 0.707015 -3.82497e-21)
(0.896622 0.645108 -1.80275e-21)
(0.911726 0.577243 -9.34404e-21)
(0.924138 0.514926 -2.45141e-21)
(0.935521 0.459311 -2.30499e-21)
(0.949022 0.407978 1.90504e-20)
(0.965127 0.362026 -3.00859e-21)
(0.282896 0.309946 -1.046e-20)
(0.592969 0.627072 -5.84732e-21)
(0.753764 0.721525 3.22686e-21)
(0.823627 0.699799 1.65817e-21)
(0.854792 0.636743 -5.79478e-21)
(0.874378 0.568922 2.13292e-20)
(0.890986 0.507028 -1.72459e-20)
(0.906405 0.451919 2.13905e-20)
(0.923861 0.401335 -1.49556e-20)
(0.939648 0.356914 -2.09716e-20)
(0.265204 0.312413 3.72939e-21)
(0.554568 0.624754 -4.02829e-21)
(0.707998 0.713597 1.78972e-21)
(0.778226 0.688935 8.40893e-21)
(0.813189 0.625305 -5.09106e-21)
(0.837338 0.557977 7.58961e-21)
(0.858221 0.49683 9.78159e-21)
(0.877694 0.442386 -5.23361e-21)
(0.898558 0.392304 -1.63148e-20)
(0.915373 0.348057 2.20929e-20)
(0.246581 0.312485 4.90565e-21)
(0.515391 0.61826 5.80662e-21)
(0.662073 0.701479 -7.51937e-21)
(0.733123 0.674446 -6.40075e-21)
(0.772081 0.61081 3.06271e-20)
(0.800829 0.544427 -3.23602e-20)
(0.82599 0.484389 4.07295e-20)
(0.849386 0.43098 -1.00413e-20)
(0.873312 0.382016 1.09019e-20)
(0.891827 0.339003 2.15414e-20)
(0.22729 0.310115 -8.21742e-22)
(0.475867 0.607598 -7.273e-21)
(0.616396 0.685219 -7.19424e-21)
(0.688652 0.656379 -3.11345e-21)
(0.731733 0.593296 5.63613e-21)
(0.765072 0.528294 -9.67409e-21)
(0.794469 0.469708 -1.2041e-20)
(0.821654 0.417615 -2.81552e-20)
(0.848513 0.370009 2.82586e-20)
(0.869171 0.328432 -8.76576e-21)
(0.207597 0.305287 1.96803e-20)
(0.436415 0.592816 -3.27162e-21)
(0.571362 0.664896 -1.02925e-20)
(0.645134 0.634807 1.2118e-20)
(0.692402 0.57282 -2.15213e-20)
(0.730279 0.50963 6.0887e-20)
(0.763824 0.452842 -3.28537e-20)
(0.794662 0.402389 3.0146e-20)
(0.824388 0.356464 -5.52945e-20)
(0.847429 0.316515 -1.48652e-20)
(0.187764 0.298011 -4.47725e-21)
(0.397448 0.573996 2.1158e-20)
(0.527353 0.640617 4.44255e-21)
(0.602882 0.609826 -1.18341e-20)
(0.654341 0.549463 -2.07576e-20)
(0.696658 0.488497 -9.29451e-23)
(0.734228 0.433844 1.09582e-20)
(0.768582 0.385329 -2.7594e-20)
(0.801103 0.341344 1.33007e-20)
(0.826635 0.303162 1.71035e-21)
(0.168052 0.288324 -3.67959e-20)
(0.359361 0.551254 -8.76615e-21)
(0.484736 0.612517 -2.6994e-21)
(0.562193 0.581558 3.16377e-20)
(0.617791 0.523322 -2.99497e-20)
(0.664409 0.464978 -7.45332e-21)
(0.705853 0.412788 -4.81228e-21)
(0.743573 0.366502 8.58906e-21)
(0.778798 0.324694 -1.13489e-20)
(0.806854 0.288416 -1.7568e-20)
(0.148712 0.276291 3.41877e-20)
(0.322534 0.52474 -1.97906e-20)
(0.443859 0.58076 7.2595e-22)
(0.523353 0.550145 -4.855e-20)
(0.582984 0.494515 5.31171e-20)
(0.633725 0.439173 -1.68696e-20)
(0.678864 0.389756 1.00995e-20)
(0.719785 0.345973 8.88678e-21)
(0.757597 0.306557 2.57769e-20)
(0.788155 0.272321 -1.08249e-20)
(0.129989 0.261999 -1.37558e-20)
(0.287328 0.494634 4.14113e-20)
(0.405053 0.545534 2.35785e-20)
(0.486631 0.51575 3.93656e-20)
(0.55014 0.46318 -8.99234e-21)
(0.604791 0.411197 3.6997e-21)
(0.653422 0.364849 2.9854e-20)
(0.697358 0.323824 6.79732e-21)
(0.737616 0.286998 6.58887e-22)
(0.770614 0.254946 -1.30611e-20)
(0.112113 0.24556 -3.35627e-20)
(0.254081 0.461146 -2.32225e-21)
(0.368625 0.507053 -1.41373e-20)
(0.452281 0.478558 -6.41774e-20)
(0.519464 0.42947 -6.23477e-20)
(0.577782 0.381179 1.03338e-20)
(0.629674 0.338178 -2.5677e-20)
(0.67642 0.300148 1.66388e-20)
(0.718966 0.266094 9.00884e-21)
(0.754306 0.236373 1.85115e-20)
(0.0953011 0.227109 5.04865e-20)
(0.223107 0.424512 -4.13873e-20)
(0.334862 0.465553 -2.12151e-20)
(0.420535 0.438773 3.72011e-20)
(0.49115 0.393555 4.27686e-20)
(0.552859 0.349266 -1.43955e-20)
(0.607762 0.309868 -1.95777e-21)
(0.657093 0.27505 -5.15356e-20)
(0.701748 0.243934 -2.91271e-20)
(0.739301 0.216692 1.11628e-20)
(0.0797554 0.206799 -2.88995e-20)
(0.194696 0.384993 1.21336e-20)
(0.304024 0.421291 4.51493e-20)
(0.391608 0.396614 -2.06074e-20)
(0.465374 0.355622 1.7729e-21)
(0.530172 0.315616 5.78532e-20)
(0.587812 0.280054 2.55971e-21)
(0.639488 0.248646 4.97311e-20)
(0.686059 0.220621 2.07189e-20)
(0.725669 0.196001 -3.29836e-20)
(0.0656591 0.184803 4.08645e-20)
(0.169108 0.342873 4.66622e-21)
(0.276347 0.374542 3.04015e-21)
(0.365694 0.35232 4.16534e-20)
(0.442296 0.31587 -5.45282e-21)
(0.509857 0.280399 -3.64293e-20)
(0.569942 0.248883 1.78663e-20)
(0.623707 0.221061 -2.86316e-20)
(0.671987 0.196264 -1.19032e-20)
(0.713471 0.174404 1.20407e-20)
(0.053176 0.161311 -2.54422e-20)
(0.146576 0.298454 -4.92176e-20)
(0.25204 0.3256 1.14941e-20)
(0.342965 0.30614 -2.24551e-20)
(0.422057 0.274512 -1.34624e-20)
(0.492035 0.243796 3.28609e-20)
(0.554255 0.216512 -7.94383e-21)
(0.609841 0.192429 7.25043e-21)
(0.659612 0.170982 -8.88722e-21)
(0.702763 0.152009 1.77259e-20)
(0.0424492 0.136525 9.38705e-21)
(0.127299 0.252059 3.33454e-20)
(0.231283 0.274773 -4.65322e-20)
(0.323568 0.25834 2.19321e-20)
(0.404783 0.23177 -1.00242e-20)
(0.476811 0.206 -2.82185e-20)
(0.540842 0.183104 2.31012e-20)
(0.59797 0.162893 4.79611e-21)
(0.649005 0.1449 -7.3926e-22)
(0.693594 0.128928 -2.0604e-20)
(0.0335998 0.110662 3.12146e-21)
(0.111447 0.204023 1.08943e-20)
(0.214229 0.222382 4.23118e-20)
(0.307631 0.209192 -8.16145e-21)
(0.390577 0.187877 -6.43508e-21)
(0.464275 0.167209 2.35328e-21)
(0.52978 0.148833 1.12515e-21)
(0.588161 0.132602 8.63584e-21)
(0.640225 0.11815 -1.13688e-20)
(0.686004 0.105278 -7.21988e-21)
(0.0267254 0.0839489 -7.74175e-21)
(0.0991561 0.154694 -1.3249e-20)
(0.200999 0.168757 -3.31121e-20)
(0.295252 0.158981 1.66788e-20)
(0.379522 0.143073 1.35764e-20)
(0.454496 0.127629 5.79558e-22)
(0.521131 0.113875 -2.26985e-20)
(0.580471 0.10171 -1.01083e-20)
(0.633322 0.0908665 7.9642e-21)
(0.680027 0.0811753 8.54656e-21)
(0.0219 0.05662 1.36227e-21)
(0.0905282 0.10443 -2.81165e-21)
(0.191686 0.114238 6.27468e-21)
(0.286508 0.107996 -4.24627e-21)
(0.371682 0.0976053 -3.78313e-21)
(0.447531 0.0874718 -2.55952e-21)
(0.514941 0.0784131 4.68915e-21)
(0.57494 0.0703732 1.78692e-20)
(0.628334 0.0631859 2.57743e-21)
(0.675685 0.0567269 -4.56682e-21)
(0.0191729 0.0289155 1.68133e-21)
(0.0856313 0.0535953 -4.62488e-21)
(0.18635 0.0591713 -5.24456e-21)
(0.28145 0.0565336 -3.63713e-21)
(0.367099 0.0517233 3.46155e-21)
(0.443414 0.0469528 1.56107e-21)
(0.511241 0.042633 -1.55353e-21)
(0.571598 0.0387544 -7.08441e-21)
(0.625281 0.0352502 2.33182e-21)
(0.672983 0.0320563 -2.17826e-21)
(0.0185685 0.00107904 -1.69623e-21)
(0.0844988 0.00255969 4.66406e-21)
(0.185021 0.00390445 5.28276e-21)
(0.280102 0.00489064 -5.05251e-21)
(0.365794 0.00568041 4.44651e-21)
(0.442164 0.00628913 2.22478e-21)
(0.510048 0.00672279 -3.54891e-21)
(0.570457 0.00701891 -4.12735e-21)
(0.624178 0.00721662 6.0946e-22)
(0.67193 0.00735404 -1.71487e-21)
(0.020086 -0.0266445 1.85855e-21)
(0.0871291 -0.0483073 -5.55554e-21)
(0.187698 -0.0512122 1.2502e-20)
(0.282464 -0.0466336 -1.09651e-20)
(0.367766 -0.0402696 -5.09041e-22)
(0.443781 -0.0343015 -7.26093e-21)
(0.511363 -0.0291312 1.17978e-20)
(0.571525 -0.0246753 1.60342e-20)
(0.625058 -0.0207913 2.87226e-21)
(0.67265 -0.0173568 -6.1754e-21)
(0.0236996 -0.0540118 -1.61738e-21)
(0.0934856 -0.0986371 -1.18465e-20)
(0.194347 -0.10583 -2.74726e-20)
(0.288507 -0.0977414 2.37349e-20)
(0.372993 -0.085874 4.90583e-21)
(0.448245 -0.0746024 4.3212e-21)
(0.515167 -0.0647426 -2.13052e-20)
(0.574778 -0.0561683 -1.25232e-20)
(0.627862 -0.0486403 -2.76859e-21)
(0.674957 -0.0419974 1.90897e-20)
(0.0293583 -0.0807829 -5.71216e-21)
(0.103497 -0.148066 7.11439e-21)
(0.204906 -0.159605 5.00176e-20)
(0.29818 -0.148138 -4.46259e-21)
(0.381431 -0.130883 -1.27874e-20)
(0.455519 -0.114398 9.19276e-21)
(0.52143 -0.0999249 5.72963e-22)
(0.580192 -0.0872941 3.24143e-21)
(0.632581 -0.0761682 -7.06233e-21)
(0.678896 -0.0663461 -1.8671e-20)
(0.0369868 -0.106724 -3.88296e-21)
(0.117058 -0.196236 2.10209e-20)
(0.219278 -0.212197 -5.04958e-20)
(0.311405 -0.197534 2.19177e-20)
(0.393015 -0.17505 1.97591e-22)
(0.465549 -0.153479 -2.7675e-20)
(0.530103 -0.134496 1.21785e-20)
(0.587726 -0.117896 -1.10605e-21)
(0.639181 -0.103243 4.62432e-21)
(0.684452 -0.090319 -1.43578e-21)
(0.0464861 -0.131609 -4.45059e-20)
(0.134029 -0.2428 -5.30279e-20)
(0.237339 -0.263276 1.3809e-20)
(0.328078 -0.245646 -2.50845e-20)
(0.407661 -0.218137 -7.14237e-21)
(0.478261 -0.191639 1.05357e-20)
(0.541126 -0.16828 3.93039e-21)
(0.597323 -0.147822 1.4592e-20)
(0.647614 -0.129733 -3.14595e-21)
(0.691589 -0.113809 1.67979e-20)
(0.0577338 -0.155224 4.25907e-20)
(0.154238 -0.287424 2.72787e-20)
(0.258934 -0.312524 -2.07634e-20)
(0.348073 -0.292203 3.48464e-20)
(0.425263 -0.259912 -3.03371e-21)
(0.493567 -0.22868 -3.7511e-20)
(0.554421 -0.201105 6.59047e-21)
(0.608917 -0.176922 -3.96819e-20)
(0.657818 -0.155506 1.50362e-21)
(0.700267 -0.1367 1.44105e-20)
(0.0705859 -0.177366 -3.19847e-20)
(0.177481 -0.329789 5.70937e-20)
(0.283879 -0.359632 2.22942e-20)
(0.371237 -0.33694 -2.7387e-20)
(0.445695 -0.300153 1.49513e-22)
(0.511361 -0.264412 6.92671e-20)
(0.569896 -0.232809 3.20441e-21)
(0.622427 -0.205057 3.06785e-20)
(0.669725 -0.180437 3.7312e-20)
(0.710436 -0.158879 -2.08927e-20)
(0.0848774 -0.197847 1.79474e-20)
(0.203524 -0.369592 -8.54794e-21)
(0.311963 -0.40431 -2.03098e-20)
(0.397399 -0.379609 1.54158e-20)
(0.468815 -0.33865 5.85056e-20)
(0.53152 -0.298655 -2.04199e-20)
(0.587449 -0.263235 -3.28014e-21)
(0.637762 -0.232093 -4.44727e-20)
(0.683255 -0.204409 -5.49277e-20)
(0.722041 -0.180241 2.39802e-20)
(0.100424 -0.216496 -2.41723e-20)
(0.232103 -0.406553 -2.12208e-20)