/*--------------------------------*- C++ -*----------------------------------*\
  =========                 |
  \\      /  F ield         | OpenFOAM: The Open Source CFD Toolbox
   \\    /   O peration     | Website:  https://openfoam.org
    \\  /    A nd           | Version:  7
     \\/     M anipulation  |
\*---------------------------------------------------------------------------*/
FoamFile
{
    version     2.0;
    format      ascii;
    class       volVectorField;
    location    "340";
    object      U;
}
// * * * * * * * * * * * * * * * * * * * * * * * * * * * * * * * * * * * * * //

dimensions      [0 1 -1 0 0 0 0];

internalField   nonuniform List<vector> 
2125
(
(1.41246 -0.117901 -1.16284e-20)
(1.41006 -0.114416 -3.3545e-20)
(1.414 -0.104001 -5.68152e-21)
(1.34737 -0.0962109 2.33316e-20)
(1.39926 -0.0999474 -2.68286e-21)
(1.41302 -0.0901552 2.8452e-20)
(0.967623 -0.0424052 6.57709e-20)
(1.17527 -0.0656992 -1.37213e-19)
(1.31127 -0.0797207 2.78772e-20)
(1.38258 -0.0856258 -2.16309e-20)
(1.40866 -0.0763303 -3.01005e-20)
(0.616563 -0.00787921 1.35924e-20)
(0.878726 -0.0282077 -1.11211e-19)
(1.10456 -0.049549 7.52915e-20)
(1.26512 -0.0637841 -5.84968e-20)
(1.35858 -0.0715338 5.79946e-20)
(1.39975 -0.0625253 -2.60076e-21)
(0.298262 0.00247984 -5.24303e-22)
(0.526767 -0.00257017 4.52547e-20)
(0.783898 -0.0169398 2.4945e-21)
(1.02322 -0.0352256 -6.06231e-20)
(1.20772 -0.0487071 -1.78435e-21)
(1.32562 -0.0578405 -2.53293e-20)
(1.38491 -0.0487225 2.98647e-20)
(0.0903189 -0.00666346 8.52831e-21)
(0.235531 -0.000918056 2.40346e-20)
(0.440175 -0.000746141 -4.07793e-20)
(0.68551 -0.00902303 9.53445e-20)
(0.932047 -0.0232669 -4.59566e-22)
(1.13815 -0.0349075 -8.0309e-21)
(1.28209 -0.0448143 -4.96965e-20)
(1.3621 -0.0350557 -6.75757e-21)
(0.0582244 -0.0131014 6.62895e-21)
(0.179614 -0.00620858 -1.72873e-20)
(0.35889 -0.00220259 -2.0147e-20)
(0.586493 -0.00480149 -1.31252e-20)
(0.832759 -0.0142733 -9.40994e-21)
(1.05612 -0.0229302 1.17723e-20)
(1.22629 -0.0328726 4.79156e-20)
(1.32973 -0.0216034 3.53888e-20)
(-0.0179602 -0.0222303 3.67314e-20)
(0.0314104 -0.0198765 -8.44659e-20)
(0.130854 -0.0130272 4.70415e-20)
(0.284641 -0.00664978 4.07316e-20)
(0.490067 -0.00449024 -1.02671e-19)
(0.728162 -0.00886887 2.79263e-20)
(0.962233 -0.0134341 -1.45551e-21)
(1.15734 -0.0226292 2.04964e-20)
(1.2841 -0.00882814 -3.96499e-20)
(-0.0214862 -0.0163144 1.03658e-19)
(-0.0259803 -0.0268344 -2.8613e-20)
(0.00958534 -0.0268957 4.14356e-20)
(0.0893605 -0.0211545 2.58617e-20)
(0.218709 -0.0138057 -1.43576e-20)
(0.399384 -0.00815116 3.31719e-20)
(0.622038 -0.00762107 -1.37316e-20)
(0.858449 -0.00722496 7.72244e-20)
(1.0745 -0.01474 -1.25166e-19)
(1.22581 0.00252398 -4.27461e-20)
(-0.0213296 -0.0172242 -3.05025e-20)
(-0.0316316 -0.0311147 1.14192e-19)
(-0.00761515 -0.0342008 -8.95609e-20)
(0.0550428 -0.0305229 -2.65473e-21)
(0.161926 -0.0234671 -4.09934e-20)
(0.317181 -0.0157098 4.44154e-20)
(0.518812 -0.0109328 4.79379e-20)
(0.748124 -0.0051241 -2.39017e-20)
(0.979377 -0.0104781 2.04977e-20)
(1.14706 0.0120283 2.46958e-20)
(-0.0206697 -0.0178963 6.26783e-21)
(-0.0352962 -0.0352457 -3.14412e-20)
(-0.0206302 -0.0419403 3.87628e-20)
(0.0276214 -0.0411819 -3.62072e-20)
(0.11468 -0.0355218 -4.37186e-20)
(0.245537 -0.0269973 -1.94133e-20)
(0.422912 -0.0189101 -7.25676e-20)
(0.635951 -0.00825141 4.4475e-20)
(0.875847 -0.00923885 8.28094e-20)
(1.04972 0.0116647 -2.7332e-20)
(-0.0196913 -0.0184481 1.94584e-20)
(-0.0373807 -0.0394542 1.49216e-20)
(-0.0299684 -0.0503262 -3.58183e-21)
(0.00661771 -0.0532359 -6.26983e-20)
(0.0769101 -0.0499005 6.45859e-20)
(0.185711 -0.0417767 7.17113e-20)
(0.337954 -0.0313752 2.46921e-20)
(0.528802 -0.0179427 -3.71492e-21)
(0.760671 -0.00871495 -8.81816e-20)
(0.972593 0.00271388 2.76637e-20)
(-0.0185846 -0.0190392 -5.87391e-20)
(-0.0382802 -0.0439842 -7.3599e-21)
(-0.0362033 -0.0595704 1.54973e-20)
(-0.00865211 -0.0667704 4.82369e-21)
(0.0480866 -0.0664992 1.95253e-20)
(0.138034 -0.0597215 -1.15187e-19)
(0.266316 -0.0480396 6.86847e-20)
(0.433003 -0.0338917 -8.28289e-20)
(0.641555 -0.013317 6.06888e-20)
(0.886618 -0.00243445 7.59606e-20)
(-0.01751 -0.0198426 2.59202e-20)
(-0.0383635 -0.0490711 -1.64091e-20)
(-0.0399516 -0.0698353 7.26384e-21)
(-0.0190519 -0.0817893 -3.41365e-20)
(0.0272282 -0.0851066 4.63875e-21)
(0.101882 -0.0803708 -8.95361e-21)
(0.208952 -0.0684614 -4.30741e-20)
(0.352477 -0.0545629 2.26722e-20)
(0.528594 -0.0257136 4.62582e-20)
(0.790641 -0.00878957 -6.94519e-20)
(-0.016573 -0.0210057 -3.60207e-20)
(-0.0379575 -0.0549189 -5.23952e-20)
(-0.0418311 -0.0811994 4.09763e-20)
(-0.0255604 -0.0981764 3.91143e-20)
(0.0129929 -0.105363 -9.52386e-20)
(0.0757914 -0.103091 9.35656e-20)
(0.165291 -0.0918747 -1.04356e-19)
(0.288189 -0.0782302 2.93377e-20)
(0.430584 -0.0456844 -3.1493e-20)
(0.688671 -0.0198774 -5.28937e-20)
(-0.0158409 -0.0226343 1.84545e-20)
(-0.0373223 -0.0616556 4.21697e-20)
(-0.0424023 -0.0936416 1.0684e-20)
(-0.029173 -0.115686 1.12634e-20)
(0.00384618 -0.126761 -7.56397e-22)
(0.0577242 -0.127088 1.66685e-20)
(0.133422 -0.117182 3.21373e-20)
(0.23873 -0.10346 6.19337e-20)
(0.352271 -0.0711214 -6.17411e-20)
(0.588116 -0.0362001 2.38527e-20)
(-0.0153372 -0.0248039 -4.56162e-20)
(-0.0366195 -0.06932 1.00154e-21)
(-0.0421277 -0.107033 1.43852e-20)
(-0.0308028 -0.133961 -2.52989e-20)
(-0.00173598 -0.148688 4.88528e-20)
(0.0454372 -0.151473 -1.15049e-19)
(0.110596 -0.143125 6.12471e-20)
(0.201263 -0.12912 -5.76367e-20)
(0.293429 -0.0991119 1.13352e-19)
(0.496888 -0.0573553 3.07608e-20)
(-0.0150363 -0.0275402 2.37661e-20)
(-0.0359201 -0.0778662 -4.81353e-20)
(-0.0413474 -0.121152 -1.4352e-20)
(-0.0312045 -0.152563 2.08454e-20)
(-0.00509202 -0.170486 3.48348e-20)
(0.0368381 -0.175374 5.25088e-21)
(0.0938675 -0.168508 -2.06496e-20)
(0.172412 -0.154264 4.83346e-20)
(0.250137 -0.127008 -2.8423e-20)
(0.419414 -0.0819988 -3.55461e-21)
(-0.0148765 -0.0308202 6.60622e-20)
(-0.035217 -0.087166 1.79539e-20)
(-0.040277 -0.135699 3.3961e-21)
(-0.0309409 -0.171015 -4.64741e-20)
(-0.0072731 -0.191519 4.12757e-20)
(0.0302219 -0.198018 1.33073e-20)
(0.0806319 -0.192364 6.90077e-21)
(0.148991 -0.178088 -1.49856e-20)
(0.217097 -0.15311 1.86957e-20)
(0.355994 -0.108387 3.21638e-20)
(-0.0147751 -0.0345772 -4.97386e-20)
(-0.0344464 -0.0970186 2.70367e-20)
(-0.0390259 -0.150321 -2.87386e-21)
(-0.0303903 -0.188834 6.68983e-20)
(-0.00902107 -0.211214 -7.26393e-20)
(0.0243625 -0.218787 2.39599e-20)
(0.0689301 -0.214015 -1.49253e-20)
(0.12845 -0.199961 -1.36228e-20)
(0.189559 -0.176687 -4.26834e-20)
(0.303954 -0.134753 1.65693e-20)
(-0.0146411 -0.0387078 2.12645e-20)
(-0.0335139 -0.107164 -5.37575e-20)
(-0.0376285 -0.16463 -2.99458e-20)
(-0.0297795 -0.205557 -4.65905e-20)
(-0.0108044 -0.229092 1.24021e-20)
(0.0184837 -0.23723 -4.09113e-21)
(0.0574949 -0.233056 -3.89445e-20)
(0.109037 -0.219481 -8.46409e-21)
(0.164195 -0.197625 -6.87271e-22)
(0.259523 -0.159765 2.00975e-20)
(-0.0143873 -0.0430796 3.8499e-20)
(-0.032319 -0.117299 3.76012e-21)
(-0.0360762 -0.178225 1.6139e-20)
(-0.0292273 -0.220763 7.06067e-20)
(-0.0128805 -0.244777 6.98118e-20)
(0.0121662 -0.253055 -1.2155e-20)
(0.0456395 -0.249295 3.14694e-20)
(0.0897244 -0.236457 -2.09808e-20)
(0.13909 -0.216055 -1.28082e-20)
(0.219359 -0.182644 -2.94832e-20)
(-0.0139394 -0.0475388 -5.02729e-20)
(-0.0307755 -0.127097 4.15284e-20)
(-0.034346 -0.190713 2.08698e-20)
(-0.028784 -0.234085 -4.01332e-20)
(-0.0153595 -0.257993 -4.52966e-20)
(0.00524216 -0.266097 1.46187e-20)
(0.0330895 -0.262681 1.33784e-21)
(0.0700268 -0.250837 6.44188e-20)
(0.113386 -0.23213 3.94889e-20)
(0.181176 -0.203043 -1.70662e-20)
(-0.013242 -0.051918 2.75587e-20)
(-0.0288254 -0.136221 -1.1994e-20)
(-0.03242 -0.20173 -4.27357e-20)
(-0.0284616 -0.245223 1.81216e-20)
(-0.0182569 -0.268553 -7.60292e-22)
(-0.00229352 -0.276288 -5.96523e-20)
(0.0198316 -0.273243 -3.35047e-21)
(0.0498163 -0.262641 -6.01506e-20)
(0.0868412 -0.245921 -2.79235e-20)
(0.14366 -0.220863 4.8295e-20)
(-0.0122625 -0.0560446 -3.40549e-20)
(-0.0264463 -0.144348 -2.99687e-21)
(-0.0302969 -0.210951 -2.09162e-21)
(-0.0282545 -0.253947 -3.855e-20)
(-0.0215304 -0.276355 5.74504e-21)
(-0.0103477 -0.283629 3.66102e-20)
(0.0060032 -0.281044 -1.95563e-20)
(0.0291788 -0.271902 3.19139e-20)
(0.0595476 -0.257412 1.46834e-20)
(0.106225 -0.236043 -1.75007e-20)
(-0.0109925 -0.0597484 2.14516e-20)
(-0.0236534 -0.151178 4.0671e-20)
(-0.0279962 -0.218109 -9.05936e-21)
(-0.0281512 -0.2601 1.8727e-20)
(-0.0251047 -0.28136 1.24754e-20)
(-0.01877 -0.28817 -3.09039e-20)
(-0.00817348 -0.28616 7.66772e-21)
(0.0083309 -0.278637 -8.52852e-21)
(0.0317869 -0.266521 1.14022e-20)
(0.0687772 -0.248491 -2.31259e-20)
(-0.00944764 -0.0628703 -6.90516e-21)
(-0.020498 -0.156455 -2.64624e-20)
(-0.0255594 -0.223002 3.67351e-20)
(-0.0281407 -0.263596 -1.85108e-20)
(-0.0288877 -0.283594 8.64817e-21)
(-0.0273788 -0.289993 2.60775e-20)
(-0.022428 -0.28867 -2.25356e-20)
(-0.0124222 -0.282855 -5.8419e-21)
(0.00397715 -0.273147 4.37314e-22)
(0.0315877 -0.25809 2.79883e-20)
(-0.00766563 -0.0652694 -2.09434e-21)
(-0.0170628 -0.159972 -7.95548e-21)
(-0.0230467 -0.225499 -3.2477e-20)
(-0.0282162 -0.264417 6.33653e-21)
(-0.0327809 -0.28313 5.23198e-21)
(-0.0359776 -0.28921 -2.11671e-21)
(-0.0364636 -0.288663 -4.5458e-22)
(-0.032711 -0.284568 -9.02595e-21)
(-0.0233437 -0.277206 1.29983e-20)
(-0.00478819 -0.264724 8.97404e-21)
(-0.00570351 -0.0668292 5.44819e-21)
(-0.0134564 -0.161583 9.67125e-21)
(-0.0205339 -0.22554 2.44592e-20)
(-0.0283762 -0.262604 -1.25612e-20)
(-0.0366886 -0.280088 -1.0875e-20)
(-0.0443694 -0.285962 -3.83979e-22)
(-0.0499732 -0.286248 2.13308e-20)
(-0.0521203 -0.28382 1.02582e-20)
(-0.0495301 -0.278636 -9.18497e-21)
(-0.0396033 -0.268343 -1.06813e-20)
(-0.00363511 -0.0674614 -8.9069e-22)
(-0.00980762 -0.161208 1.92183e-21)
(-0.0181044 -0.223127 -4.63726e-21)
(-0.0286265 -0.258264 3.30606e-21)
(-0.0405265 -0.274627 2.88409e-21)
(-0.0523682 -0.28042 2.06191e-21)
(-0.0626562 -0.28157 -4.24711e-21)
(-0.0702023 -0.280699 -1.75366e-20)
(-0.0738916 -0.277458 -2.80081e-21)
(-0.0720105 -0.269098 5.69398e-21)
(-0.00154695 -0.0671129 1.38705e-21)
(-0.00625305 -0.158822 -3.4671e-21)
(-0.0158528 -0.218327 -2.7857e-21)
(-0.0289868 -0.251549 1.95758e-21)
(-0.0442215 -0.266946 -2.70187e-21)
(-0.0598097 -0.272789 -1.29031e-21)
(-0.0742355 -0.274812 1.37214e-21)
(-0.0865287 -0.275358 6.86965e-21)
(-0.095801 -0.273807 -2.45274e-21)
(-0.101027 -0.267148 2.5738e-21)
(1.09001 -0.00113081 -1.46013e-22)
(1.09042 -0.00106297 3.82762e-22)
(1.0908 -0.000994486 -3.77266e-22)
(1.09115 -0.000925357 1.21477e-22)
(1.09147 -0.000855594 2.94837e-22)
(1.09176 -0.000785216 3.15042e-25)
(1.09203 -0.00071428 -1.38952e-22)
(1.09227 -0.000642811 -2.2382e-22)
(1.09248 -0.00057093 1.4692e-22)
(1.09266 -0.000498624 -6.28794e-23)
(1.09283 -0.000425928 4.54305e-23)
(1.09125 -0.003348 -1.11708e-22)
(1.09167 -0.00313662 -3.07965e-23)
(1.09207 -0.0029244 8.45037e-23)
(1.09243 -0.00271142 1.90121e-22)
(1.09277 -0.00249779 -1.60876e-23)
(1.09307 -0.00228361 -4.78378e-23)
(1.09335 -0.00206903 -6.14568e-23)
(1.0936 -0.00185414 1.99638e-22)
(1.09383 -0.0016391 5.10425e-23)
(1.09402 -0.00142413 -5.05203e-23)
(1.0942 -0.00120829 -8.31758e-23)
(1.09355 -0.00547218 -1.91202e-22)
(1.094 -0.00511862 1.30588e-23)
(1.09442 -0.00476381 2.09761e-23)
(1.09481 -0.00440786 4.25409e-22)
(1.09517 -0.00405092 -5.65723e-22)
(1.09551 -0.00369311 1.53265e-22)
(1.09581 -0.00333462 1.57658e-22)
(1.09609 -0.00297568 9.03771e-23)
(1.09634 -0.0026162 -8.68767e-23)
(1.09656 -0.00225736 -7.95594e-24)
(1.09678 -0.00189516 4.85864e-24)
(1.09681 -0.00757183 2.27994e-22)
(1.09731 -0.00706806 -1.40078e-22)
(1.09777 -0.00656231 3.70354e-22)
(1.0982 -0.00605474 -1.52463e-22)
(1.09861 -0.00554553 -7.49001e-23)
(1.09898 -0.00503492 -3.86664e-22)
(1.09933 -0.00452304 1.54715e-23)
(1.09964 -0.00401048 1.22199e-23)
(1.09993 -0.00349638 1.16391e-22)
(1.10019 -0.00298425 -9.23242e-23)
(1.10046 -0.00246339 1.34424e-22)
(1.10097 -0.00964502 1.8721e-22)
(1.10152 -0.00898087 -1.40843e-22)
(1.10204 -0.00831369 -8.55102e-23)
(1.10253 -0.00764369 -5.34604e-23)
(1.10299 -0.00697103 1.85341e-22)
(1.10341 -0.00629608 2.85131e-22)
(1.10381 -0.00561877 -3.19823e-25)
(1.10418 -0.00494028 2.30525e-22)
(1.10453 -0.00425824 -8.20556e-23)
(1.10484 -0.00358026 4.97774e-22)
(1.10519 -0.00288414 -2.45182e-22)
(1.10595 -0.0117328 -1.92394e-22)
(1.10657 -0.0108951 2.35857e-22)
(1.10716 -0.0100527 -1.71185e-22)
(1.10772 -0.00920605 -5.14878e-22)
(1.10825 -0.0083551 5.21372e-23)
(1.10875 -0.00750037 -3.62761e-22)
(1.10922 -0.00664146 1.7907e-22)
(1.10965 -0.00578046 5.89988e-22)
(1.11007 -0.00491251 -8.47863e-23)
(1.11045 -0.00405162 -5.17337e-22)
(1.11089 -0.00315802 -1.65045e-22)
(1.11171 -0.0138556 4.67438e-23)
(1.11242 -0.0128286 -1.83803e-22)
(1.1131 -0.0117948 5.41843e-22)
(1.11374 -0.0107544 2.52882e-22)
(1.11436 -0.00970743 1.05884e-22)
(1.11494 -0.00865461 1.74853e-22)
(1.1155 -0.00759491 -4.70979e-22)
(1.11602 -0.00653178 -9.0086e-22)
(1.11653 -0.00545668 -3.81866e-22)
(1.11699 -0.00439288 2.20095e-23)
(1.11756 -0.00327573 8.49609e-23)
(1.11821 -0.0160429 3.59734e-22)
(1.11902 -0.014809 2.75562e-22)
(1.11981 -0.0135653 3.33796e-22)
(1.12056 -0.0123121 -6.64351e-22)
(1.12128 -0.0110493 7.73482e-22)
(1.12197 -0.00977771 -2.11897e-22)
(1.12263 -0.00849543 7.1657e-22)
(1.12326 -0.00720793 -3.9507e-22)
(1.12387 -0.00590129 6.21188e-22)
(1.12444 -0.00461179 8.39552e-22)
(1.12515 -0.00324062 3.21361e-22)
(1.12542 -0.0183232 3.10307e-22)
(1.12636 -0.0168628 2.69699e-23)
(1.12727 -0.0153889 -1.02482e-21)
(1.12814 -0.0139018 3.55857e-22)
(1.12899 -0.012401 -1.45963e-22)
(1.12981 -0.0108876 -1.01465e-22)
(1.13059 -0.00935851 5.64143e-22)
(1.13134 -0.0078218 -5.38327e-23)
(1.13209 -0.00625631 -6.16723e-22)
(1.13279 -0.00471521 -1.25053e-21)
(1.13368 -0.00305664 1.16689e-22)
(1.13332 -0.020725 -5.28402e-22)
(1.1344 -0.0190175 1.72252e-22)
(1.13546 -0.0172919 1.26983e-21)
(1.13648 -0.0155484 7.97375e-22)
(1.13748 -0.0137861 -9.19489e-22)
(1.13844 -0.0120066 -4.26911e-22)
(1.13938 -0.010205 -4.57392e-22)
(1.14028 -0.00839299 2.61676e-22)
(1.14118 -0.00654007 4.83844e-22)
(1.14204 -0.00472029 7.31564e-22)
(1.14313 -0.00274042 -2.49658e-22)
(1.14188 -0.0232774 1.11434e-22)
(1.14314 -0.0213009 -1.41967e-21)
(1.14436 -0.0193009 -6.16586e-24)
(1.14556 -0.0172776 -1.12391e-21)
(1.14673 -0.0152293 6.97018e-22)
(1.14786 -0.0131584 1.03737e-21)
(1.14898 -0.0110576 -1.4862e-22)
(1.15005 -0.00894312 -7.6785e-22)
(1.15114 -0.00677291 -3.89185e-22)
(1.15218 -0.00464674 4.53777e-22)
(1.15353 -0.00230948 -4.12475e-22)
(1.14961 -0.0282471 7.014e-22)
(1.1511 -0.0260081 9.36629e-22)
(1.15255 -0.0237402 -3.43265e-23)
(1.15397 -0.0214424 -1.64335e-21)
(1.15537 -0.0191149 -9.02245e-22)
(1.15673 -0.0167553 -7.64803e-22)
(1.15807 -0.0143669 1.24031e-21)
(1.15938 -0.0119391 1.69117e-21)
(1.16067 -0.00949433 6.22626e-22)
(1.16197 -0.00697579 6.02887e-23)
(1.16323 -0.00451466 -7.72214e-22)
(1.16486 -0.00178271 1.66356e-21)
(1.15924 -0.0314898 -4.319e-22)
(1.16095 -0.0289431 -1.84049e-21)
(1.16262 -0.0263607 2.99934e-22)
(1.16427 -0.0237412 6.81997e-22)
(1.16589 -0.0210848 6.87198e-22)
(1.16748 -0.018388 -8.80278e-22)
(1.16905 -0.0156554 -1.64674e-21)
(1.1706 -0.0128726 -3.48189e-22)
(1.17211 -0.0100694 7.79968e-22)
(1.17367 -0.00717112 1.68724e-21)
(1.17518 -0.00434628 -4.93238e-22)
(1.17714 -0.00118259 -2.30424e-21)
(1.16947 -0.0349832 1.19228e-21)
(1.17142 -0.0321059 3.58099e-22)
(1.17335 -0.0291855 7.33237e-22)
(1.17525 -0.02622 -1.3947e-22)
(1.17712 -0.0232096 -8.84278e-22)
(1.17897 -0.0201496 6.74713e-23)
(1.18079 -0.0170463 -2.5409e-22)
(1.18261 -0.0138802 -1.4961e-21)
(1.18439 -0.0106905 -2.64706e-21)
(1.18623 -0.00738136 -3.51808e-21)
(1.18803 -0.00416432 3.56363e-21)
(1.19037 -0.000532883 7.30042e-23)
(1.18027 -0.0387465 1.76137e-21)
(1.1825 -0.0355157 -6.90885e-22)
(1.18471 -0.0322335 -5.89131e-22)
(1.18689 -0.0288976 1.55065e-22)
(1.18904 -0.0255083 9.31974e-22)
(1.19118 -0.0220592 1.77554e-21)
(1.1933 -0.0185588 -1.11248e-21)
(1.19541 -0.0149819 2.04148e-21)
(1.1975 -0.0113784 -7.93416e-22)
(1.19966 -0.007628 -9.43051e-22)
(1.20178 -0.003991 -3.99025e-21)
(1.20456 0.000142066 -8.32108e-22)
(1.19164 -0.0427945 -1.3805e-21)
(1.19418 -0.0391865 1.14789e-21)
(1.19669 -0.0355187 2.02859e-21)
(1.19918 -0.0317878 1.11052e-21)
(1.20165 -0.0279947 -6.44761e-22)
(1.20411 -0.0241308 -2.69389e-21)
(1.20655 -0.0202077 4.27315e-21)
(1.20899 -0.016193 -1.16478e-21)
(1.21141 -0.0121496 2.64592e-21)
(1.21394 -0.00792953 -1.94792e-21)
(1.21642 -0.00384636 2.72059e-21)
(1.21968 0.000818639 2.51373e-21)
(1.20356 -0.0471366 -2.07117e-22)
(1.20643 -0.0431278 -1.51331e-21)
(1.20928 -0.0390504 -1.9485e-21)
(1.21211 -0.0349005 3.9424e-22)
(1.21492 -0.0306792 3.3291e-21)
(1.21773 -0.0263758 -1.91074e-21)
(1.22052 -0.0220051 4.396e-22)
(1.22333 -0.0175266 -6.28882e-21)
(1.22612 -0.0130182 -9.72784e-22)
(1.22905 -0.00830185 4.45146e-21)
(1.23193 -0.00374794 7.22701e-23)
(1.23574 0.00147454 -5.15921e-21)
(1.21601 -0.0517703 9.14289e-23)
(1.21924 -0.0473367 5.78401e-22)
(1.22245 -0.0428259 2.01644e-21)
(1.22564 -0.0382327 -1.54868e-21)
(1.22883 -0.0335598 -3.51172e-21)
(1.23201 -0.0287935 1.72819e-21)
(1.23519 -0.0239528 1.34175e-21)
(1.23841 -0.0189879 9.20376e-21)
(1.24159 -0.0139929 5.13225e-22)
(1.24496 -0.00875715 -4.47264e-21)
(1.24828 -0.00371051 7.83098e-22)
(1.25269 0.00208911 -1.13127e-21)
(1.22896 -0.0566943 -3.82531e-22)
(1.23258 -0.0518111 3.77458e-22)
(1.23618 -0.0468425 -4.78976e-22)
(1.23977 -0.0417817 2.44415e-21)
(1.24335 -0.0366333 6.6091e-21)
(1.24694 -0.0313798 6.77931e-21)
(1.25053 -0.0260472 -1.02758e-20)
(1.25418 -0.0205744 1.55995e-21)
(1.2578 -0.0150752 5.4655e-21)
(1.26166 -0.00930322 1.11201e-20)
(1.26545 -0.00374822 -1.80711e-21)
(1.27053 0.00264028 2.67764e-21)
(1.24242 -0.0618908 1.44256e-21)
(1.24644 -0.0565322 9.18963e-22)
(1.25045 -0.0510822 -3.22801e-21)
(1.25445 -0.0455311 -2.05827e-21)
(1.25846 -0.0398872 -2.56386e-21)
(1.26248 -0.0341254 5.71617e-22)
(1.26651 -0.028282 6.06534e-21)
(1.27062 -0.0222792 -5.24406e-21)
(1.2747 -0.0162595 -2.74758e-21)
(1.2791 -0.00993433 -1.18541e-20)
(1.28341 -0.00386232 3.46672e-21)
(1.28923 0.00311937 1.29766e-20)
(1.25634 -0.0673298 2.77695e-21)
(1.26079 -0.0614691 -8.121e-22)
(1.26523 -0.0555135 1.90586e-21)
(1.26967 -0.0494484 1.08556e-21)
(1.27413 -0.0432921 -7.1499e-21)
(1.27861 -0.0370058 -1.32714e-20)
(1.28312 -0.0306461 9.44683e-21)
(1.28773 -0.024101 8.21833e-22)
(1.29233 -0.0175576 -5.49693e-21)
(1.29728 -0.0106604 1.14601e-20)
(1.30215 -0.00406663 6.21986e-21)
(1.30877 0.00352077 -3.51001e-21)
(1.27075 -0.0729851 -8.68781e-22)
(1.27563 -0.0665942 -1.72232e-21)
(1.28053 -0.0601079 -1.24951e-21)
(1.28541 -0.0535021 -2.21774e-21)
(1.29035 -0.046812 -4.46416e-21)
(1.29529 -0.039975 6.37792e-21)
(1.30034 -0.0330918 -1.71724e-20)
(1.30546 -0.0259908 -9.77509e-21)
(1.31067 -0.0189447 5.08801e-21)
(1.3162 -0.011467 -1.1817e-20)
(1.32171 -0.00437508 -1.26373e-20)
(1.32905 0.00384784 -1.66896e-20)
(1.28563 -0.0788011 -4.763e-21)
(1.29098 -0.0718564 3.42822e-21)
(1.29636 -0.0648223 3.33604e-21)
(1.30171 -0.0576609 -2.03088e-21)
(1.30718 -0.0504282 2.24031e-21)
(1.31258 -0.0430185 8.66885e-21)
(1.31821 -0.0355987 2.51259e-20)
(1.32375 -0.0278956 2.10527e-20)
(1.32964 -0.0203492 -1.38589e-20)
(1.33557 -0.0122473 9.90014e-21)
(1.34186 -0.00471178 1.8033e-21)
(1.34958 0.00420088 1.20516e-20)
(1.30103 -0.084728 1.75715e-21)
(1.30685 -0.0772001 -7.78671e-21)
(1.31274 -0.0695935 -1.30242e-20)
(1.31856 -0.0618636 -8.8137e-21)
(1.32463 -0.0540881 2.36674e-20)
(1.33047 -0.0461141 -1.04599e-20)
(1.3368 -0.038182 -2.01225e-20)
(1.34258 -0.0298575 -1.22381e-20)
(1.34921 -0.021817 5.26322e-21)
(1.35498 -0.0129754 2.81131e-21)
(1.36204 -0.00501644 -1.16686e-20)
(1.36917 0.00474638 -1.11654e-20)
(1.31704 -0.0907126 4.65452e-22)
(1.32333 -0.0825671 1.65048e-21)
(1.32972 -0.0743453 7.97246e-21)
(1.33596 -0.0660109 -3.68955e-22)
(1.34254 -0.0576441 -8.37483e-21)
(1.34865 -0.0490864 -1.42005e-20)
(1.35564 -0.0406342 3.51668e-21)
(1.36133 -0.0317199 -2.07013e-22)
(1.36881 -0.0232604 1.36222e-20)
(1.3735 -0.0136452 5.11865e-21)
(1.38134 -0.00532683 1.46139e-20)
(1.38574 0.00555507 7.27684e-22)
(1.33371 -0.0966496 5.33106e-21)
(1.34044 -0.0878481 3.17416e-22)
(1.34725 -0.0789661 2.18819e-20)
(1.35378 -0.0699919 1.77818e-20)
(1.36066 -0.060954 -1.58069e-20)
(1.36667 -0.0517536 6.45017e-21)
(1.37385 -0.0426284 -5.60551e-21)
(1.37859 -0.0330637 5.19901e-21)
(1.38649 -0.0240793 -7.28925e-21)
(1.38855 -0.0137221 7.34134e-21)
(1.3972 -0.00518964 -1.76515e-20)
(1.39544 0.00694097 2.09978e-20)
(1.35089 -0.102314 -1.0872e-20)
(1.35788 -0.0927853 8.04665e-21)
(1.36483 -0.0831901 -1.85482e-20)
(1.37141 -0.0735577 8.02445e-21)
(1.37817 -0.0638303 2.98575e-20)
(1.38371 -0.0540302 7.55232e-21)
(1.39031 -0.0441404 1.29653e-20)
(1.39311 -0.0339499 -4.63297e-21)
(1.39997 -0.0240772 8.33267e-22)
(1.3967 -0.0129483 -1.28258e-20)
(1.40495 -0.00390097 2.35752e-20)
(1.39171 0.00941361 -1.21191e-20)
(1.36811 -0.107501 3.0593e-21)
(1.37496 -0.0971368 -1.50065e-20)
(1.38154 -0.0867514 1.0388e-21)
(1.3876 -0.076406 -2.69701e-20)
(1.39341 -0.0659976 -1.73936e-20)
(1.39785 -0.0556781 -9.68402e-21)
(1.40256 -0.0451462 -1.24269e-23)
(1.40272 -0.0346787 -8.08254e-21)
(1.40626 -0.0239042 2.55559e-20)
(1.3954 -0.0125802 8.03392e-21)
(1.39975 -0.00229951 -1.70444e-20)
(1.36748 0.0116184 -6.28449e-21)
(1.38454 -0.112267 9.9732e-21)
(1.39071 -0.100995 2.91923e-21)
(1.39624 -0.0897528 -1.14923e-20)
(1.4009 -0.0785873 2.03249e-20)
(1.40452 -0.0674186 -2.24192e-20)
(1.40633 -0.0564125 -7.74064e-21)
(1.40667 -0.0452227 4.61918e-21)
(1.40226 -0.0344658 -3.26299e-21)
(1.39805 -0.0230413 -3.34306e-20)
(1.37847 -0.0125353 -3.24599e-20)
(1.37283 -0.00106811 1.13642e-20)
(1.31593 0.0106273 -1.17025e-20)
(1.39895 -0.116277 -3.13883e-21)
(1.40376 -0.104026 -1.41384e-21)
(1.40733 -0.0918236 6.17238e-21)
(1.40928 -0.0796665 -1.27271e-20)
(1.40896 -0.067519 3.24313e-20)
(1.4056 -0.0554316 2.51145e-20)
(1.39815 -0.0432606 -1.63953e-20)
(1.38489 -0.031442 1.92405e-20)
(1.36595 -0.0192352 2.0288e-20)
(1.33375 -0.00879583 8.83638e-21)
(1.30533 0.00319102 3.72618e-21)
(1.22568 0.0089445 3.15745e-20)
(1.09313 -0.00024123 0)
(1.09333 0.000106149 0)
(1.09276 0.000367989 0)
(1.09229 0.000674886 0)
(1.09047 0.000820915 0)
(1.08962 0.00101384 0)
(1.08658 0.00099169 0)
(1.08611 0.00100721 0)
(1.08222 0.000792206 0)
(1.08316 0.000596494 0)
(1.0791 0.000256826 0)
(1.08245 -8.61844e-05 0)
(1.07894 -0.000257523 0)
(1.08428 -0.000571732 0)
(1.08148 1.05365e-05 0)
(1.08476 -8.57726e-05 0)
(1.08191 0.00171935 0)
(1.07463 0.00177915 0)
(1.07085 0.00391235 0)
(1.04826 0.00439128 0)
(1.04016 0.00409148 0)
(1.01825 0.00564212 0)
(0.995666 0.00188199 0)
(1.00259 -3.84771e-05 0)
(0.993565 -0.00681442 0)
(1.06623 -0.00653305 0)
(1.05595 -0.00450308 0)
(1.1127 -0.00428973 0)
(1.10202 0.00387063 0)
(1.06758 0.00296282 0)
(1.09452 -0.000659468 0)
(1.09469 0.000380245 0)
(1.09401 0.00116481 0)
(1.09341 0.00208528 0)
(1.0914 0.00252406 0)
(1.09041 0.00310107 0)
(1.08714 0.00303307 0)
(1.08652 0.00307169 0)
(1.08242 0.00241395 0)
(1.08327 0.00180856 0)
(1.07912 0.000753069 0)
(1.08256 -0.000296319 0)
(1.07918 -0.000871533 0)
(1.08491 -0.0018229 0)
(1.08249 -0.000131751 0)
(1.08622 -0.000388887 0)
(1.08377 0.00503701 0)
(1.07625 0.00524021 0)
(1.07289 0.0116991 0)
(1.04887 0.0131334 0)
(1.04099 0.0122624 0)
(1.01789 0.017066 0)
(0.993202 0.00591479 0)
(0.999247 -8.54902e-05 0)
(0.991188 -0.0206786 0)
(1.06777 -0.0197837 0)
(1.05761 -0.0134865 0)
(1.11625 -0.0128111 0)
(1.10527 0.0116844 0)
(1.06765 0.0090817 0)
(1.09714 -0.000972547 0)
(1.09724 0.000782601 0)
(1.09635 0.0021105 0)
(1.09552 0.00366107 0)
(1.09316 0.00440898 0)
(1.09187 0.00537019 0)
(1.08817 0.00526031 0)
(1.08724 0.00529154 0)
(1.08274 0.00416048 0)
(1.08339 0.00307718 0)
(1.07908 0.0012131 0)
(1.08267 -0.000633041 0)
(1.0796 -0.00175952 0)
(1.08601 -0.00340974 0)
(1.08441 -0.000712991 0)
(1.08896 -0.00105635 0)
(1.08738 0.00809117 0)
(1.07933 0.00850875 0)
(1.07677 0.0195166 0)
(1.05006 0.02192 0)
(1.04252 0.0205232 0)
(1.01743 0.0290651 0)
(0.988339 0.010738 0)
(0.99276 -7.81442e-05 0)
(0.986395 -0.0353954 0)
(1.07063 -0.0337426 0)
(1.06114 -0.0225021 0)
(1.12261 -0.0212731 0)
(1.11164 0.019806 0)
(1.06783 0.0158044 0)
(1.10089 -0.00113958 0)
(1.1009 0.00138602 0)
(1.0997 0.00330415 0)
(1.09853 0.00552526 0)
(1.09564 0.00661811 0)
(1.09392 0.0079715 0)
(1.08958 0.00783209 0)
(1.08819 0.00780443 0)
(1.08308 0.00615461 0)
(1.0834 0.00446708 0)
(1.07887 0.00165719 0)
(1.08261 -0.0011671 0)
(1.08008 -0.00305291 0)
(1.08736 -0.0055581 0)
(1.08722 -0.00195682 0)
(1.09279 -0.00227976 0)
(1.09272 0.0108285 0)
(1.08375 0.0116055 0)
(1.08238 0.0275422 0)
(1.05189 0.031004 0)
(1.04463 0.0290528 0)
(1.01726 0.0422066 0)
(0.980915 0.0169323 0)
(0.983224 5.42885e-05 0)
(0.978747 -0.0517347 0)
(1.07453 -0.049157 0)
(1.06707 -0.0316893 0)
(1.1307 -0.0298085 0)
(1.12122 0.0284657 0)
(1.06819 0.0235779 0)
(1.1057 -0.00112156 0)
(1.1056 0.00225237 0)
(1.10397 0.00482802 0)
(1.10237 0.00778177 0)
(1.09876 0.00927224 0)
(1.09649 0.011036 0)
(1.09128 0.0108864 0)
(1.08925 0.0107363 0)
(1.08333 0.00850981 0)
(1.08316 0.00604423 0)
(1.07836 0.00210971 0)
(1.08218 -0.00196185 0)
(1.08048 -0.0048633 0)
(1.08874 -0.00849298 0)
(1.09091 -0.00408446 0)
(1.09761 -0.00424648 0)
(1.09981 0.013172 0)
(1.0895 0.0145772 0)
(1.08961 0.0358789 0)
(1.05444 0.0406058 0)
(1.04722 0.037915 0)
(1.01785 0.0569773 0)
(0.970801 0.0251018 0)
(0.970657 0.000489394 0)
(0.967197 -0.0703729 0)
(1.07883 -0.0668498 0)
(1.07597 -0.0410545 0)
(1.13932 -0.038531 0)
(1.13417 0.0376986 0)
(1.06896 0.0327784 0)
(1.11152 -0.000905856 0)
(1.1113 0.0034199 0)
(1.10914 0.0067436 0)
(1.10699 0.0105145 0)
(1.10249 0.0124751 0)
(1.0995 0.0146807 0)
(1.09319 0.0145512 0)
(1.09032 0.0142078 0)
(1.08338 0.0113386 0)
(1.0825 0.00788388 0)
(1.07736 0.00260844 0)
(1.08116 -0.003064 0)
(1.08063 -0.00727767 0)
(1.08994 -0.0124477 0)
(1.09544 -0.0073277 0)
(1.10339 -0.00711068 0)
(1.10867 0.0150454 0)
(1.09664 0.0174965 0)
(1.09834 0.0445879 0)
(1.05785 0.0509077 0)
(1.05023 0.0470814 0)
(1.01955 0.073748 0)
(0.958288 0.0359425 0)
(0.954856 0.00160502 0)
(0.94965 -0.0917411 0)
(1.08165 -0.0877929 0)
(1.0874 -0.0505867 0)
(1.14736 -0.0475263 0)
(1.15029 0.0473617 0)
(1.07044 0.0436651 0)
(1.11834 -0.000474096 0)
(1.11796 0.00493052 0)
(1.11516 0.00911419 0)
(1.11235 0.0138051 0)
(1.10679 0.0163271 0)
(1.10289 0.0190189 0)
(1.09527 0.0189515 0)
(1.0913 0.0183438 0)
(1.08311 0.014755 0)
(1.08126 0.0100775 0)
(1.07567 0.00320684 0)
(1.07934 -0.00449491 0)
(1.08025 -0.0103689 0)
(1.09076 -0.0176728 0)
(1.10072 -0.0119271 0)
(1.11022 -0.0110236 0)
(1.11931 0.0163676 0)
(1.1053 0.0204525 0)
(1.10842 0.0537182 0)
(1.06224 0.0620293 0)
(1.05364 0.0564746 0)
(1.02256 0.0926792 0)
(0.944573 0.0502074 0)
(0.93536 0.00433727 0)
(0.922289 -0.115727 0)
(1.07833 -0.113109 0)
(1.09848 -0.0606339 0)
(1.15372 -0.0569833 0)
(1.16872 0.05719 0)
(1.07288 0.0563088 0)
(1.12613 0.000179723 0)
(1.12559 0.00680645 0)
(1.12204 0.0119873 0)
(1.11843 0.0177199 0)
(1.11163 0.0209172 0)
(1.10662 0.0241553 0)
(1.09746 0.0242042 0)
(1.09209 0.0232708 0)
(1.0824 0.0188735 0)
(1.07928 0.0127325 0)
(1.07311 0.00395945 0)
(1.07653 -0.00624281 0)
(1.07904 -0.0142064 0)
(1.09103 -0.0244288 0)
(1.10665 -0.0181738 0)
(1.11826 -0.0161315 0)
(1.13171 0.0170749 0)
(1.11561 0.023548 0)
(1.1197 0.0633103 0)
(1.06775 0.0740558 0)
(1.05732 0.0659997 0)
(1.02692 0.113552 0)
(0.931793 0.0686811 0)
(0.912024 0.010456 0)
(0.88068 -0.14113 0)
(1.06121 -0.143847 0)
(1.10325 -0.0723495 0)
(1.15669 -0.0675257 0)
(1.18773 0.0667944 0)
(1.07627 0.0705375 0)
(1.13491 0.00107227 0)
(1.13417 0.00907435 0)
(1.12978 0.0154072 0)
(1.12521 0.0223186 0)
(1.11702 0.0263286 0)
(1.11066 0.0301901 0)
(1.09972 0.0304259 0)
(1.0926 0.0291154 0)
(1.08117 0.0238113 0)
(1.07641 0.0159735 0)
(1.06946 0.00492685 0)
(1.07249 -0.00825078 0)
(1.07662 -0.018853 0)
(1.09056 -0.0330064 0)
(1.11309 -0.0263979 0)
(1.12777 -0.0225703 0)
(1.14592 0.0171519 0)
(1.12764 0.026902 0)
(1.13211 0.0733855 0)
(1.07445 0.0870812 0)
(1.06111 0.0755555 0)
(1.0326 0.135736 0)
(0.922274 0.0918655 0)
(0.886088 0.0224209 0)
(0.825517 -0.165445 0)
(1.02423 -0.180254 0)
(1.09493 -0.087498 0)
(1.15357 -0.0804318 0)
(1.205 0.0755799 0)
(1.08022 0.0859299 0)
(1.14468 0.00219666 0)
(1.14371 0.0117495 0)
(1.13839 0.0194086 0)
(1.1327 0.0276515 0)
(1.12296 0.0326354 0)
(1.11499 0.0372139 0)
(1.10204 0.0377273 0)
(1.09279 0.0359978 0)
(1.07933 0.0296899 0)
(1.07249 0.019931 0)
(1.06458 0.00620018 0)
(1.06701 -0.0104034 0)
(1.07261 -0.0243621 0)
(1.08914 -0.0437191 0)
(1.11993 -0.0369656 0)
(1.13906 -0.0305272 0)
(1.16202 0.0166375 0)
(1.14136 0.0306324 0)
(1.14569 0.0839543 0)
(1.08214 0.101231 0)
(1.06512 0.0850261 0)
(1.03937 0.15828 0)
(0.917397 0.119639 0)
(0.861254 0.0418371 0)
(0.768473 -0.185799 0)
(0.97046 -0.220923 0)
(1.07077 -0.107436 0)
(1.14211 -0.0972131 0)
(1.21827 0.0827666 0)
(1.08406 0.101881 0)
(1.15546 0.00353622 0)
(1.15422 0.0148339 0)
(1.14788 0.0240161 0)
(1.14092 0.0337603 0)
(1.12945 0.0399016 0)
(1.11961 0.0453121 0)
(1.10438 0.0462102 0)
(1.0926 0.0440295 0)
(1.07682 0.0366429 0)
(1.0674 0.0247246 0)
(1.05834 0.00788367 0)
(1.0598 -0.0125341 0)
(1.06657 -0.0307751 0)
(1.0865 -0.0569061 0)
(1.12702 -0.0503174 0)
(1.15257 -0.0401751 0)
(1.18001 0.0156712 0)
(1.15685 0.0348345 0)
(1.16049 0.0950797 0)
(1.09028 0.116606 0)
(1.06998 0.0942477 0)
(1.04658 0.1804 0)
(0.917186 0.150874 0)
(0.843361 0.0673421 0)
(0.727006 -0.200067 0)
(0.912123 -0.26257 0)
(1.0345 -0.13205 0)
(1.12231 -0.118758 0)
(1.22616 0.0876532 0)
(1.08711 0.117745 0)
(1.16727 0.00508249 0)
(1.16573 0.0183288 0)
(1.15829 0.0292432 0)
(1.14987 0.0406785 0)
(1.13653 0.0481768 0)
(1.12456 0.0545645 0)
(1.10673 0.055967 0)
(1.09206 0.0533121 0)
(1.07354 0.0448012 0)
(1.06105 0.0304594 0)
(1.05065 0.0101211 0)
(1.05063 -0.0144087 0)
(1.05806 -0.0381032 0)
(1.08227 -0.0729405 0)
(1.13433 -0.0669611 0)
(1.16883 -0.0516682 0)
(1.19977 0.0144605 0)
(1.17438 0.0395633 0)
(1.17629 0.106967 0)