/*--------------------------------*- C++ -*----------------------------------*\
  =========                 |
  \\      /  F ield         | OpenFOAM: The Open Source CFD Toolbox
   \\    /   O peration     | Website:  https://openfoam.org
    \\  /    A nd           | Version:  7
     \\/     M anipulation  |
\*---------------------------------------------------------------------------*/
FoamFile
{
    version     2.0;
    format      ascii;
    class       volScalarField;
    location    "200";
    object      p;
}
// * * * * * * * * * * * * * * * * * * * * * * * * * * * * * * * * * * * * * //

dimensions      [0 2 -2 0 0 0 0];

internalField   nonuniform List<scalar> 
2125
(
0.650651
0.628135
0.612652
0.651246
0.628661
0.613061
0.590836
0.563302
0.53264
0.500436
0.46789
0.435863
0.404952
0.646821
0.624471
0.609213
0.587354
0.56016
0.529803
0.497873
0.465565
0.43374
0.40308
0.637406
0.615591
0.601132
0.580129
0.553724
0.524072
0.492767
0.460997
0.429637
0.399526
0.623069
0.602085
0.588872
0.569206
0.544033
0.515477
0.485145
0.454214
0.423575
0.394315
0.603919
0.58405
0.572515
0.554655
0.531146
0.504072
0.475052
0.445251
0.415585
0.387458
0.580101
0.561616
0.552173
0.536571
0.515146
0.489925
0.462545
0.434159
0.405708
0.378976
0.551796
0.534948
0.527989
0.515073
0.496133
0.473122
0.4477
0.421004
0.393996
0.368904
0.519221
0.504242
0.500129
0.490305
0.474229
0.453768
0.430605
0.40586
0.380516
0.357286
0.482629
0.469726
0.468788
0.462431
0.449576
0.431982
0.411361
0.388817
0.36534
0.34417
0.442301
0.431657
0.434188
0.431637
0.422331
0.407901
0.390084
0.369973
0.348552
0.329615
0.39855
0.390317
0.396571
0.398132
0.392672
0.381674
0.366902
0.349438
0.330243
0.313683
0.351719
0.346019
0.356203
0.362138
0.36079
0.353464
0.341955
0.327332
0.310512
0.296443
0.302171
0.299095
0.313372
0.3239
0.326891
0.323448
0.315392
0.303781
0.289464
0.277967
0.250297
0.249901
0.268381
0.283675
0.291195
0.291812
0.287373
0.278923
0.267209
0.258328
0.196503
0.198809
0.221553
0.241734
0.253932
0.258753
0.258067
0.252907
0.243865
0.237594
0.141213
0.146208
0.173222
0.198361
0.215342
0.224474
0.227649
0.225892
0.219556
0.215817
0.084863
0.0925004
0.123737
0.15385
0.175675
0.189185
0.196299
0.198053
0.194435
0.193026
0.0278969
0.0380948
0.0734522
0.108499
0.135186
0.153103
0.164194
0.169574
0.168695
0.16917
-0.0292357
-0.016594
0.0227322
0.0626161
0.0941345
0.116449
0.1315
0.140634
0.1427
0.144245
-0.0860853
-0.0711516
-0.028056
0.0165069
0.0527831
0.0794533
0.0983906
0.111353
0.116919
0.117897
-0.142205
-0.125167
-0.078543
-0.0295227
0.011389
0.0423491
0.0650368
0.0816429
0.0916986
0.0915874
-0.197151
-0.178235
-0.128362
-0.0751724
-0.0297958
0.00536635
0.0317163
0.0516336
0.0660723
0.0709418
-0.2505
-0.229942
-0.177161
-0.12015
-0.0705233
-0.0312819
-0.00130683
0.0217563
0.0400481
0.0506132
-0.301932
-0.279836
-0.224634
-0.164176
-0.110552
-0.0674056
-0.0338695
-0.00773893
0.0137349
0.0286803
-0.351026
-0.32756
-0.270589
-0.206971
-0.14965
-0.102829
-0.0658661
-0.0367522
-0.0125126
0.00578414
-0.397352
-0.372461
-0.315026
-0.248248
-0.187611
-0.137378
-0.0971812
-0.0652036
-0.0384028
-0.0171838
-0.440647
-0.414492
-0.357226
-0.287744
-0.224247
-0.17088
-0.127677
-0.0929926
-0.0637904
-0.0398686
-0.480693
-0.453593
-0.39625
-0.325555
-0.259365
-0.203165
-0.157212
-0.12001
-0.0885871
-0.0621808
-0.517258
-0.489518
-0.432426
-0.361088
-0.292719
-0.234082
-0.18566
-0.14615
-0.112705
-0.0840319
-0.550148
-0.522022
-0.465734
-0.394054
-0.324203
-0.263503
-0.212904
-0.171313
-0.136057
-0.105305
-0.579229
-0.55092
-0.495956
-0.424474
-0.353663
-0.291304
-0.238844
-0.195407
-0.15857
-0.125897
-0.604423
-0.5761
-0.522912
-0.452262
-0.380994
-0.317442
-0.263394
-0.218347
-0.180185
-0.145734
-0.625703
-0.597516
-0.546505
-0.477307
-0.406119
-0.341813
-0.286567
-0.240056
-0.200829
-0.164804
-0.6431
-0.615182
-0.566692
-0.499532
-0.428977
-0.364341
-0.308267
-0.26063
-0.220328
-0.183203
-0.656699
-0.629166
-0.58348
-0.518901
-0.449532
-0.384995
-0.328425
-0.279928
-0.238598
-0.201168
-0.666641
-0.639593
-0.596921
-0.535412
-0.467768
-0.403769
-0.34703
-0.297953
-0.255888
-0.218233
-0.673118
-0.646642
-0.607118
-0.549096
-0.483696
-0.420676
-0.364104
-0.314719
-0.272121
-0.233969
-0.676367
-0.650542
-0.614217
-0.560021
-0.497349
-0.435742
-0.37967
-0.330226
-0.287248
-0.248538
-0.676669
-0.651571
-0.61841
-0.568288
-0.508784
-0.44901
-0.393761
-0.344494
-0.301313
-0.262199
-0.674335
-0.650042
-0.619931
-0.574033
-0.518081
-0.460537
-0.406429
-0.357575
-0.31438
-0.275072
-0.669701
-0.64629
-0.619056
-0.577429
-0.525342
-0.4704
-0.417742
-0.369535
-0.326503
-0.287184
-0.663119
-0.640666
-0.616093
-0.57868
-0.53069
-0.478686
-0.427777
-0.380443
-0.337731
-0.298551
-0.654943
-0.633523
-0.611374
-0.578016
-0.534267
-0.485494
-0.436617
-0.390375
-0.348121
-0.309206
-0.645524
-0.625204
-0.605239
-0.575694
-0.536233
-0.490932
-0.444349
-0.39941
-0.357742
-0.319194
-0.635196
-0.616038
-0.598028
-0.571986
-0.536762
-0.495116
-0.451068
-0.407633
-0.366671
-0.328572
-0.624273
-0.606329
-0.590063
-0.567178
-0.536044
-0.498167
-0.456867
-0.415132
-0.37499
-0.337404
-0.613038
-0.596348
-0.58164
-0.561556
-0.534279
-0.500213
-0.461844
-0.421997
-0.382783
-0.345763
-0.601741
-0.586332
-0.573019
-0.555396
-0.531675
-0.501386
-0.466093
-0.428313
-0.390137
-0.353724
-0.590594
-0.576479
-0.56442
-0.548952
-0.528446
-0.501824
-0.469707
-0.434163
-0.397133
-0.579775
-0.566948
-0.556022
-0.542445
-0.524802
-0.501668
-0.472778
-0.439624
-0.569423
-0.557858
-0.547967
-0.536057
-0.520944
-0.501061
-0.475392
-0.559642
-0.549293
-0.540359
-0.529927
-0.517051
-0.550502
-0.541307
-0.533271
-0.524161
-0.542043
-0.533921
-0.526743
-0.534265
-0.527129
-0.527138
-0.5209
-0.520595
0.128619
0.131331
0.134612
0.14082
0.14706
0.155731
0.163889
0.173798
0.181791
0.190362
0.194059
0.196665
0.188791
0.179104
0.14631
0.129123
0.131884
0.135217
0.141567
0.147959
0.156912
0.165445
0.175943
0.184764
0.194548
0.199911
0.204845
0.199952
0.194192
0.168023
0.129604
0.132413
0.135772
0.142237
0.148747
0.157934
0.166784
0.177793
0.187361
0.198243
0.205194
0.212306
0.21049
0.208361
0.188134
0.130067
0.132905
0.136311
0.142896
0.149526
0.158952
0.168116
0.179629
0.189916
0.201851
0.210307
0.219457
0.2206
0.221882
0.207166
0.130511
0.133396
0.136836
0.143536
0.150282
0.159941
0.169407
0.181405
0.192381
0.205316
0.215223
0.226292
0.230309
0.234828
0.225344
0.130937
0.133858
0.137363
0.144155
0.151004
0.160885
0.170639
0.183096
0.19473
0.208605
0.219907
0.232776
0.239566
0.247166
0.242636
0.131341
0.134293
0.137817
0.144774
0.151697
0.161786
0.171811
0.184701
0.19696
0.211716
0.224351
0.2389
0.248333
0.258861
0.259012
0.131725
0.134709
0.138278
0.145318
0.152356
0.162644
0.172922
0.186218
0.19907
0.214645
0.228545
0.244658
0.256585
0.269884
0.274438
0.132086
0.135105
0.138691
0.14582
0.152972
0.163455
0.173971
0.187645
0.201055
0.217386
0.232477
0.25004
0.264298
0.280203
0.288875
0.132425
0.135477
0.139078
0.146301
0.153544
0.164217
0.174954
0.188978
0.202909
0.219935
0.236137
0.255036
0.271452
0.289787
0.302279
0.132741
0.135824
0.139441
0.146745
0.154136
0.164933
0.175869
0.190215
0.204628
0.222286
0.239516
0.259638
0.278031
0.298608
0.314608
0.133033
0.136146
0.139779
0.147153
0.154607
0.165632
0.17672
0.191355
0.206207
0.224435
0.242603
0.263834
0.284017
0.30664
0.325822
0.133302
0.136442
0.140089
0.147533
0.155059
0.166236
0.177497
0.192395
0.207642
0.226379
0.245391
0.267615
0.289398
0.313858
0.335888
0.133546
0.136711
0.140371
0.147882
0.155436
0.166692
0.178187
0.193331
0.208927
0.228113
0.247872
0.270974
0.294162
0.320244
0.344776
0.133765
0.136953
0.140625
0.148196
0.155785
0.167152
0.178868
0.194188
0.210057
0.229631
0.250039
0.273899
0.298298
0.325778
0.35246
0.13396
0.137166
0.14085
0.148474
0.156098
0.167542
0.179326
0.195018
0.211042
0.230937
0.251884
0.276382
0.301794
0.330444
0.35892
0.134129
0.137351
0.141046
0.148715
0.156371
0.167888
0.179786
0.195253
0.211931
0.232064
0.253421
0.278425
0.304647
0.334225
0.364138
0.134272
0.137507
0.141212
0.148919
0.156602
0.168184
0.180136
0.19579
0.212446
0.232898
0.254673
0.280053
0.306876
0.337132
0.368115
0.13439
0.137633
0.141348
0.149085
0.156791
0.168422
0.18042
0.19618
0.212983
0.233439
0.255383
0.281098
0.308449
0.339217
0.370879
0.134482
0.13773
0.141454
0.149211
0.156935
0.168602
0.180632
0.196461
0.213327
0.23389
0.255986
0.281776
0.309148
0.340177
0.372289
0.0800272
0.0781261
0.0748637
0.0706064
0.0656659
0.0602686
0.054629
0.0489186
0.0432957
0.0378728
0.0327423
0.027954
0.0235442
0.0195137
0.0158603
0.080515
0.078618
0.0753691
0.0711206
0.0661779
0.0607589
0.0550806
0.0493142
0.043623
0.0381209
0.0329056
0.0280285
0.0235301
0.0194111
0.0156701
0.0814219
0.0795343
0.0763115
0.0720821
0.0671376
0.0616829
0.0559361
0.0500693
0.0442521
0.038603
0.0332281
0.0281832
0.0235164
0.0192293
0.0153233
0.0826838
0.0808112
0.0776308
0.0734353
0.0684965
0.0630001
0.0571654
0.0511635
0.0451731
0.0393181
0.0337169
0.0284325
0.0235235
0.0189939
0.0148482
0.084241
0.082391
0.0792741
0.0751331
0.0702148
0.0646796
0.0587478
0.0525868
0.0463857
0.0402746
0.0343879
0.0287974
0.0235768
0.0187325
0.0142743
0.0860391
0.0842212
0.081194
0.0771334
0.0722579
0.0666963
0.0606694
0.0543363
0.0478974
0.0414885
0.0352639
0.0293054
0.0237062
0.0184762
0.0136327
0.088028
0.0862542
0.0833475
0.0793973
0.0745943
0.0690287
0.0629206
0.0564138
0.049721
0.0429815
0.0363731
0.029989
0.0239464
0.0182598
0.012957
0.0901618
0.0884469
0.0856946
0.0818879
0.0771944
0.0716573
0.0654938
0.0588239
0.0518724
0.044779
0.0377483
0.0308852
0.0243362
0.0181216
0.0122837
0.0923987
0.0907606
0.0881981
0.0845694
0.0800296
0.0745629
0.0683819
0.0615716
0.0543692
0.0469088
0.0394254
0.0320348
0.0249188
0.0181043
0.0116532
0.0947007
0.0931608
0.0908224
0.0874074
0.0830718
0.0777257
0.0715767
0.0646613
0.0572288
0.0494
0.0414429
0.0334822
0.0257415
0.0182547
0.0111099
0.0970342
0.0956166
0.0935334
0.0903683
0.0862925
0.0811243
0.0750676
0.0680949
0.0604675
0.0522813
0.0438407
0.0352747
0.0268553
0.0186243
0.0107032
0.0993694
0.098101
0.0962982
0.0934203
0.0896629
0.0847352
0.0788413
0.0718711
0.0640987
0.0555805
0.0466591
0.0374614
0.0283149
0.0192687
0.0104876
0.101681
0.10059
0.0990854
0.0965336
0.0931534
0.0885327
0.0828804
0.0759844
0.0681323
0.0593224
0.0499379
0.0400927
0.0301779
0.0202481
0.0105224
0.103947
0.103061
0.101865
0.0996808
0.0967333
0.0924892
0.0871636
0.080424
0.0725731
0.0635281
0.0537146
0.0432195
0.0325044
0.0216264
0.0108724
0.106152
0.105495
0.104612
0.102837
0.100371
0.0965755
0.0916651
0.0851739
0.0774201
0.0682137
0.0580239
0.0468916
0.035356
0.0234713
0.0116075
0.10828
0.107873
0.107302
0.105979
0.104035
0.100762
0.0963541
0.0902131
0.0826655
0.0733888
0.062896
0.0511569
0.0387951
0.0258534
0.0128022
0.110323
0.110181
0.109915
0.109086
0.107693
0.105018
0.101196
0.0955154
0.0882936
0.0790557
0.0683552
0.0560596
0.0428835
0.0288456
0.014535
0.112273
0.112403
0.112438
0.112137
0.111317
0.109314
0.106151
0.101051
0.09428
0.0852092
0.0744185
0.0616389
0.0476818
0.032522
0.0168876
0.114124
0.114529
0.114858
0.115114
0.11488
0.113618
0.11118
0.106785
0.100591
0.0918364
0.0810939
0.0679275
0.0532481
0.0369564
0.0199441
0.115874
0.116549
0.117168
0.118
0.118358
0.1179
0.116241
0.112679
0.107186
0.0989173
0.0883778
0.074951
0.0596363
0.0422206
0.023789
0.117522
0.118458
0.119361
0.120779
0.121732
0.122129
0.121293
0.118692
0.114014
0.106424
0.0962537
0.0827281
0.0668948
0.0483822
0.0285059
0.119067
0.120251
0.121435
0.123438
0.124986
0.126274
0.1263
0.124777
0.121022
0.114319
0.104691
0.0912715
0.0750642
0.0555049
0.0341761
0.12051
0.121927
0.123388
0.125965
0.128106
0.130306
0.131227
0.130884
0.128154
0.122558
0.113645
0.100587
0.0841752
0.0636536
0.0408818
0.121852
0.123487
0.125219
0.128355
0.131083
0.134201
0.136042
0.136962
0.135352
0.13108
0.123059
0.110669
0.0942413
0.0729029
0.0487184
0.123097
0.124933
0.12693
0.130602
0.133909
0.137935
0.140718
0.142956
0.142561
0.139815
0.132868
0.121496
0.105247
0.0833336
0.057807
0.124246
0.126269
0.128522
0.132704
0.136577
0.141492
0.14523
0.148818
0.149727
0.148686
0.143006
0.133034
0.117138
0.0949925
0.0682299
0.125306
0.127499
0.129999
0.134662
0.139087
0.144861
0.149563
0.154509
0.156806
0.157609
0.153416
0.145237
0.129848
0.107842
0.0797893
0.126278
0.128627
0.131364
0.136479
0.141438
0.148036
0.1537
0.159991
0.163749
0.166484
0.16402
0.158011
0.143394
0.12188
0.0917569
0.127167
0.129656
0.132616
0.138151
0.143618
0.150993
0.1576
0.165191
0.170455
0.175155
0.174668
0.171198
0.157997
0.137839
0.103776
0.127978
0.130591
0.133744
0.139658
0.145578
0.153672
0.161157
0.170004
0.176763
0.183497
0.185218
0.184832
0.174174
0.158245
0.119956
0.0135158
0.0122939
0.0110794
0.00987647
0.00868342
0.00749893
0.00632343
0.00515835
0.00400514
0.00286499
0.0017389
0.000627821
-0.000467296
-0.00154552
-0.00260595
-0.00364771
-0.00466997
-0.00567193
-0.0066528
-0.00761219
0.01327
0.0120328
0.0108107
0.00960029
0.00839678
0.00719924
0.00600916
0.00482849
0.00365872
0.00250096
0.0013562
0.000225472
-0.000890164
-0.00198965
-0.00307198
-0.00413616
-0.00518128
-0.00620648
-0.00721094
-0.00819387
0.0128133
0.0115347
0.0102844
0.00904526
0.00780834
0.00657416
0.00534634
0.00412779
0.00292006
0.00172411
0.000540945
-0.000628309
-0.00178243
-0.00292024
-0.00404059
-0.0051424
-0.00622461
-0.00728622
-0.00832619
-0.00934398
0.0121748
0.0108295
0.0095331
0.00824847
0.00696045
0.0056715
0.00438825
0.00311484
0.00185281
0.000602825
-0.000634244
-0.00185717
-0.0030646
-0.00425523
-0.00542786
-0.00658132
-0.00771453
-0.00882643
-0.009916
-0.0109826
0.011385
0.00994795
0.00858725
0.00723985
0.00588221
0.00451931
0.00316169
0.00181509
0.000480942
-0.000840528
-0.0021486
-0.00344196
-0.00471909
-0.00597858
-0.00721912
-0.00843952
-0.00963859
-0.0108152
-0.0119682
-0.0130972
0.0104748
0.00892001
0.00747542
0.00604679
0.00460005
0.00314325
0.00169169
0.000253028
-0.0011715
-0.00258225
-0.00397871
-0.00535946
-0.00672282
-0.00806724
-0.00939137
-0.0106939
-0.0119737
-0.0132295
-0.0144601
-0.0156653
0.00947625
0.00777593
0.00622574
0.00469557
0.00313869
0.0015666
1.65357e-07
-0.00155078
-0.00308529
-0.00460446
-0.006108
-0.00759439
-0.00906175
-0.0105084
-0.011933
-0.0133341
-0.0147106
-0.0160612
-0.0173844
-0.0186806
0.00842388
0.00654762
0.00486696
0.00321228
0.00152204
-0.000188676
-0.00189279
-0.00357807
-0.00524398
-0.00689243
-0.0085234
-0.0101352
-0.0117259
-0.0132935
-0.0148366
-0.016354
-0.0178444
-0.0193062
-0.020738
-0.0221409
0.00735559
0.00526973
0.00342955
0.00162391
-0.000225655
-0.00210072
-0.00396762
-0.0058116
-0.00763259
-0.00943338
-0.0112142
-0.0129733
-0.0147083
-0.0164174
-0.0180991
-0.0197519
-0.0213746
-0.0229657
-0.0245231
-0.0260497
0.00631353
0.00398048
0.0019464
-4.09919e-05
-0.00207908
-0.00414697
-0.00620446
-0.00823424
-0.0102367
-0.0122155
-0.0141712
-0.0161018
-0.0180048
-0.0198782
-0.0217205
-0.0235301
-0.0253054
-0.0270446
-0.0287459
-0.0304146
0.00534468
0.00272226
0.000453398
-0.00175174
-0.00401125
-0.00630349
-0.00858245
-0.0108283
-0.0130418
-0.0152273
-0.0173854
-0.0195143
-0.0216113
-0.0236745
-0.0257026
-0.0276942
-0.0296472
-0.0315567
-0.0334221
-0.0352547
0.00450139
0.00154222
-0.00101016
-0.00347517
-0.00599311
-0.00854463
-0.0110794
-0.0135753
-0.0160329
-0.0184568
-0.0208481
-0.0232045
-0.0255236
-0.0278033
-0.0300424
-0.0322395
-0.0343943
-0.036509
-0.0385752
-0.0405951
0.00384175
0.000492605
-0.00240122
-0.00517525
-0.00799313
-0.0108426
-0.0136716
-0.0164558
-0.0191947
-0.021893
-0.0245516
-0.0271686
-0.0297416
-0.0322687
-0.0347483
-0.0371793
-0.0395605
-0.041891
-0.0441773
-0.0464101
0.00342986
-0.000368874
-0.00367262
-0.00681267
-0.00997679
-0.0131668
-0.0163329
-0.0194485
-0.0225109
-0.0255237
-0.028488
-0.0314024
-0.0342648
-0.0370734
-0.0398267
-0.0425232
-0.045162
-0.0477422
-0.0502708
-0.0527422
0.00333582
-0.000978963
-0.00477298
-0.00834458
-0.0119062
-0.0154837
-0.0190349
-0.0225305
-0.0259635
-0.0293356
-0.0326481
-0.0359007
-0.0390919
-0.0422199
-0.0452831
-0.0482802
-0.05121
-0.0540718
-0.0568745
-0.0596138
0.00363555
-0.00126896
-0.00564658
-0.00972438
-0.0137399
-0.0177565
-0.0217465
-0.0256769
-0.0295334
-0.0333146
-0.0370225
-0.0406586
-0.0442222
-0.0477116
-0.051125
-0.0544607
-0.0577177
-0.0608946
-0.0640051
-0.067045
0.00441037
-0.00116499
-0.00623345
-0.0109014
-0.0154325
-0.019945
-0.0244341
-0.028861
-0.0331999
-0.0374453
-0.0416009
-0.0456708
-0.0496553
-0.0535526
-0.0573603
-0.0610765
-0.0646997
-0.0682277
-0.0716818
-0.0750581
0.00574614
-0.000588562
-0.00646939
-0.0118208
-0.0169342
-0.0220054
-0.0270616
-0.0320541
-0.0369407
-0.0417108
-0.0463717
-0.0509312
-0.0553909
-0.0597481
-0.0639995
-0.0681421
-0.072174
-0.0760898
-0.079925
-0.0836759
0.00773219
0.000542501
-0.00628628
-0.0124228
-0.0181906
-0.0238904
-0.0295906
-0.0352258
-0.0407318
-0.0460926
-0.0513216
-0.056432
-0.0614268
-0.0663032
-0.0710577
-0.0756837
-0.0801691
-0.0845039
-0.0887609
-0.0929297
0.0104594
0.00231241
-0.00561254
-0.0126427
-0.0191421
-0.0255493
-0.0319809
-0.0383449
-0.044548
-0.0505708
-0.0564358
-0.0621615
-0.067752
-0.0732061
-0.078531
-0.0837358
-0.0888307
-0.0935453
-0.0982494
-0.102873
0.0140168
0.00480426
-0.00437401
-0.0124095
-0.0197231
-0.0269281
-0.0341913
-0.0413794
-0.0483644
-0.0551281
-0.0617045
-0.0681157
-0.0743591
-0.0804235
-0.0862957
-0.0919676
-0.097439
-0.103019
-0.108358
-0.113488
0.0184863
0.00809356
-0.00249603
-0.0116451
-0.019861
-0.0279695
-0.0361791
-0.0442951
-0.0521544
-0.0597485
-0.067127
-0.074314
-0.0813032
-0.0880843
-0.0946543
-0.10102
-0.107195
-0.113266
-0.119153
-0.124837
0.0239356
0.0122397
9.25224e-05
-0.0102651
-0.019478
-0.0286147
-0.0378988
-0.0470527
-0.0558851
-0.0644094
-0.0726914
-0.0807521
-0.0885784
-0.0961586
-0.10349
-0.110576
-0.117417
-0.12413
-0.130657
-0.136955
0.0304157
0.0172793
0.00345587
-0.00818091
-0.018495
-0.0288068
-0.0393035
-0.0496067
-0.0595169
-0.0690824
-0.0783796
-0.0874184
-0.0961783
-0.104648
-0.112821
-0.120693
-0.128258
-0.135693
-0.142927
-0.14989
0.0379593
0.0232295
0.00766083
-0.00529684
-0.0168373
-0.0284951
-0.0403445
-0.0519062
-0.063008
-0.0737402
-0.0841745
-0.094302
-0.104098
-0.113562
-0.1227
-0.131498
-0.139859
-0.148081
-0.15606
-0.163716
0.0465709
0.0301112
0.0128062
-0.00149868
-0.0144326
-0.0276305
-0.0409649
-0.0538926
-0.0663149
-0.0783558
-0.0900608
-0.101396
-0.112328
-0.122845
-0.132941
-0.142645
-0.152168
-0.161359
-0.170124
-0.178494
0.056137
0.0379333
0.0190321
0.00335458
-0.0112047
-0.0261555
-0.0410959
-0.0555064
-0.0694006
-0.0829069
-0.0960279
-0.108713
-0.120934
-0.132674
-0.143923
-0.154668
-0.165259
-0.175423
-0.185071
-0.194254
0.0661811
0.046496
0.0264278
0.0094046
-0.00705102
-0.0239479
-0.0406026
-0.0566447
-0.0721943
-0.0873385
-0.102037
-0.116238
-0.12992
-0.143042
-0.15554
-0.167408
-0.179126
-0.19037
-0.201003
-0.211084
0.0756847
0.0550054
0.0346858
0.0164505
-0.002092
-0.0209987
-0.0394544
-0.0573148
-0.0747176
-0.0916682
-0.108104
-0.123997
-0.139358
-0.154181
-0.168421
-0.181355
-0.194161
-0.206424
-0.218019
-0.229027
0.0839885
0.0630477
0.043598
0.024249
0.00384318
-0.0167831
-0.0370023
-0.0567916
-0.0761738
-0.0950651
-0.113377
-0.131053
-0.148037
-0.164269
-0.179752
-0.195601
-0.210158
-0.223549
-0.236151
-0.248117
-0.00854972
-0.00946461
-0.0103561
-0.0112238
-0.0120672
-0.012886
-0.0136799
-0.0144485
-0.0151916
-0.00915437
-0.0100917
-0.0110053
-0.0118947
-0.0127591
-0.0135983
-0.0144117
-0.015199
-0.0159599
-0.0103389
-0.01131
-0.0122565
-0.0131778
-0.0140732
-0.0149424
-0.0157848
-0.0166002
-0.0173881
-0.0120254
-0.0130434
-0.0140358
-0.015002
-0.0159413
-0.0168533
-0.0177376
-0.0185937
-0.0194214
-0.0142012
-0.0152793
-0.0163305
-0.0173541
-0.0183496
-0.0193165
-0.0202544
-0.0211629
-0.0220416
-0.0168442
-0.0179956
-0.0191186
-0.0202123
-0.0212764
-0.0223104
-0.0233138
-0.0242864
-0.0252278
-0.0199488
-0.0211876
-0.0223961
-0.0235735
-0.0247193
-0.0258332
-0.0269147
-0.0279636
-0.0289797
-0.0235139
-0.0248553
-0.026164
-0.0274392
-0.0286806
-0.0298879
-0.0310607
-0.0321988
-0.0333021
-0.0275443
-0.0290048
-0.0304296
-0.031818
-0.0331699
-0.0344851
-0.0357634
-0.0370045
-0.0382085
-0.0320496
-0.0336475
-0.035206
-0.0367244
-0.038203
-0.0396418
-0.0410407
-0.0423996
-0.0437184
-0.0370516
-0.0388052
-0.0405139
-0.042179
-0.043801
-0.0453797
-0.0469149
-0.0484069
-0.0498557
-0.0425656
-0.0444892
-0.046367
-0.0481983
-0.0499826
-0.0517196
-0.0534093
-0.0550519
-0.0485884
-0.0507135
-0.052786
-0.0548062
-0.0567741
-0.0586898
-0.0605535
-0.0623656
-0.0551536
-0.0575046
-0.059796
-0.0620287
-0.064203
-0.0663195
-0.0683786
-0.0703807
-0.062286
-0.0648897
-0.067426
-0.0698963
-0.0723014
-0.0746422
-0.0769192
-0.0791333
-0.070009
-0.072895
-0.0757045
-0.0784396
-0.0811017
-0.083692
-0.0862113
-0.0886608
-0.0783483
-0.0815488
-0.0846618
-0.0876906
-0.0906378
-0.0935046
-0.0962921
-0.0990018
-0.087329
-0.0908786
-0.0943277
-0.0976816
-0.100944
-0.104116
-0.107199
-0.110195
-0.0969839
-0.100918
-0.104737
-0.10845
-0.112058
-0.115565
-0.118972
-0.122281
-0.10736
-0.111709
-0.115932
-0.120034
-0.124019
-0.12789
-0.131648
-0.135298
-0.118451
-0.123262
-0.127931
-0.132461
-0.136858
-0.141125
-0.145265
-0.149284
-0.130328
-0.135641
-0.140789
-0.14578
-0.150618
-0.155309
-0.159858
-0.164272
-0.143023
-0.148879
-0.154543
-0.160028
-0.165338
-0.170481
-0.175462
-0.180291
-0.156578
-0.163018
-0.169237
-0.17525
-0.181062
-0.186683
-0.19212
-0.197384
-0.171058
-0.178118
-0.184924
-0.19149
-0.197826
-0.203945
-0.20986
-0.215583
-0.18652
-0.194232
-0.201648
-0.208783
-0.215653
-0.222275
-0.228667
-0.234849
-0.203031
-0.211435
-0.219485
-0.2272
-0.234602
-0.241713
-0.248555
-0.255154
-0.220684
-0.229833
-0.238555
-0.246874
-0.254816
-0.262409
-0.26968
-0.276657
-0.239501
-0.249455
-0.258905
-0.267877
-0.276403
-0.284517
-0.292251
-0.29964
-0.259465
-0.270202
-0.280353
-0.28995
-0.29903
-0.307637
-0.315817
-0.32362
)
;

boundaryField
{
    inlet
    {
        type            zeroGradient;
    }
    outlet
    {
        type            fixedValue;
        value           nonuniform 0();
    }
    cylinder
    {
        type            zeroGradient;
    }
    top
    {
        type            symmetryPlane;
    }
    bottom
    {
        type            symmetryPlane;
    }
    defaultFaces
    {
        type            empty;
    }
    procBoundary0to1
    {
        type            processor;
        value           nonuniform List<scalar> 
50
(
-0.361367
-0.361367
-0.403852
-0.403852
-0.444766
-0.500149
-0.444766
-0.477636
-0.500149
-0.513273
-0.513273
-0.518832
-0.518832
-0.520784
-0.520784
-0.515373
-0.515175
-0.515175
-0.514539
-0.015909
-0.016694
-0.0181484
-0.0202204
-0.0228904
-0.0261378
-0.0299627
-0.0343704
-0.0393752
-0.0449973
-0.0512616
-0.0566477
-0.0566477
-0.0641265
-0.0723266
-0.0812853
-0.0910415
-0.101635
-0.113107
-0.125497
-0.138842
-0.153185
-0.168556
-0.184973
-0.202481
-0.221123
-0.240838
-0.261538
-0.283373
-0.30672
-0.331095
)
;
    }
    procBoundary0to2
    {
        type            processor;
        value           nonuniform List<scalar> 
26
(
0.645043
0.6229
0.607994
0.590553
0.590553
0.563133
0.532566
0.500442
0.467963
0.435989
0.405125
0.134548
0.137796
0.141528
0.149297
0.157029
0.168714
0.180751
0.196611
0.213478
0.234075
0.256197
0.281995
0.309423
0.34048
0.372562
)
;
    }
}


// ************************************************************************* //
