/*--------------------------------*- C++ -*----------------------------------*\
  =========                 |
  \\      /  F ield         | OpenFOAM: The Open Source CFD Toolbox
   \\    /   O peration     | Website:  https://openfoam.org
    \\  /    A nd           | Version:  7
     \\/     M anipulation  |
\*---------------------------------------------------------------------------*/
FoamFile
{
    version     2.0;
    format      ascii;
    class       surfaceScalarField;
    location    "200";
    object      phi;
}
// * * * * * * * * * * * * * * * * * * * * * * * * * * * * * * * * * * * * * //

dimensions      [0 3 -1 0 0 0 0];

internalField   nonuniform List<scalar> 
4136
(
-0.000984635
-0.000230837
-0.00300905
-0.000529975
-0.000696248
-0.000985465
0.000754628
-0.003011
0.00149556
-0.00552824
0.00182099
-0.00825203
0.00195007
-0.0110891
0.00202182
-0.0140325
0.00209189
-0.0170973
0.00217309
-0.0203009
0.00226734
-0.0236597
0.0023738
0.00249106
-0.0271881
-0.000982005
0.00173663
-0.00300242
0.00351597
-0.00551482
0.0043334
-0.00823433
0.00466958
-0.0110673
0.00485478
-0.0140067
0.00503131
-0.0170674
0.0052338
-0.0202669
0.00546685
-0.0236216
0.00572848
0.00601754
-0.0271481
-0.000974264
0.0027109
-0.00298331
0.00552502
-0.00548507
0.00683516
-0.00819517
0.00737968
-0.0110192
0.00767884
-0.0139498
0.00796184
-0.0170014
0.00828546
-0.0201917
0.00865709
-0.023537
0.0090738
0.00953388
-0.0270533
-0.000962257
0.00367315
-0.0029537
0.00751647
-0.00543899
0.00932044
-0.00813457
0.0100753
-0.0109449
0.0104892
-0.0138618
0.0108787
-0.0168995
0.0113232
-0.0200754
0.011833
-0.0234061
0.0124045
0.0130348
-0.026907
-0.000946009
0.00461916
-0.00291361
0.00948407
-0.00537659
0.0117834
-0.00805254
0.0127512
-0.0108444
0.0132811
-0.0137427
0.013777
-0.0167616
0.014342
-0.0199182
0.0149896
-0.0232291
0.0157154
0.016515
-0.0267093
-0.000925553
0.00554472
-0.00286307
0.0114216
-0.00529789
0.0142182
-0.00794907
0.0154024
-0.0107176
0.0160496
-0.0135927
0.0166521
-0.0165878
0.0173371
-0.0197201
0.0181219
-0.0230061
0.0190014
0.019969
-0.0264601
-0.000900933
0.00644565
-0.00280213
0.0133228
-0.00520291
0.016619
-0.00782419
0.0180237
-0.0105647
0.0187901
-0.0134117
0.0194991
-0.0163783
0.0203037
-0.0194812
0.0212249
-0.0227372
0.0222574
0.0233913
-0.0261595
-0.000872202
0.00731785
-0.00273084
0.0151814
-0.00509167
0.0189798
-0.00767791
0.0206099
-0.0103855
0.0214977
-0.0131998
0.0223134
-0.016133
0.0232369
-0.0192018
0.0242936
-0.0224226
0.0254781
0.0267765
-0.0258078
-0.000839424
0.00815727
-0.00264926
0.0169913
-0.00496423
0.0212948
-0.00751026
0.023156
-0.0101803
0.0241677
-0.0129572
0.0250903
-0.0158523
0.026132
-0.0188819
0.0273233
-0.0220625
0.0286587
0.0301193
-0.0254053
-0.000802674
0.00895995
-0.00255749
0.0187461
-0.00482062
0.0235579
-0.00732125
0.0256566
-0.00994893
0.0267954
-0.0126838
0.0278252
-0.0155361
0.0289843
-0.0185218
0.030309
-0.0216573
0.0317942
0.0334146
-0.0249526
-0.000762044
0.00972199
-0.00245561
0.0204396
-0.00466089
0.0257632
-0.00711092
0.0281066
-0.00969158
0.029376
-0.0123798
0.0305134
-0.0151847
0.0317892
-0.0181218
0.0332462
-0.0212076
0.0348799
0.0366575
-0.0244504
-0.000717636
0.0104396
-0.00234375
0.0220658
-0.00448511
0.0279046
-0.00687931
0.0305008
-0.00940827
0.031905
-0.0120453
0.0331504
-0.0147982
0.0345421
-0.0176822
0.0361302
-0.0207136
0.0379114
0.0398434
-0.0238996
-0.000669573
0.0111092
-0.00222204
0.0236182
-0.00429336
0.0299759
-0.00662647
0.0328339
-0.00909907
0.0343776
-0.0116805
0.0357318
-0.0143768
0.0372384
-0.0172032
0.0389566
-0.0201761
0.0408843
0.0429684
-0.0233012
-0.000617993
0.0117272
-0.00209066
0.0250909
-0.00408575
0.031971
-0.00635245
0.0351006
-0.00876405
0.0367892
-0.0112854
0.0382532
-0.0139208
0.0398738
-0.0166849
0.0417207
-0.0195955
0.0437949
0.0460295
-0.0226566
-0.000563057
0.0122903
-0.0019498
0.0264776
-0.00386242
0.0338836
-0.00605733
0.0372956
-0.00840331
0.0391352
-0.0108604
0.0407103
-0.0134303
0.0424437
-0.0161274
0.0444178
-0.0189721
0.0466395
0.0490249
-0.0219675
-0.000504946
0.0127952
-0.00179969
0.0277724
-0.00362352
0.0357074
-0.0057412
0.0394132
-0.00801694
0.0414109
-0.0104054
0.0430987
-0.0129056
0.0449439
-0.0155308
0.047043
-0.0183057
0.0494144
0.0519552
-0.021236
-0.000443867
0.0132391
-0.00164063
0.0289691
-0.00336924
0.037436
-0.00540418
0.0414482
-0.00760502
0.0436117
-0.00992072
0.0454144
-0.0123471
0.0473703
-0.0148943
0.0495902
-0.0175938
0.0521139
0.0548258
-0.0204643
-0.00038005
0.0136191
-0.00147293
0.030062
-0.00309984
0.0390629
-0.00504643
0.0433948
-0.00716774
0.0457331
-0.00940661
0.0476533
-0.011756
0.0497197
-0.0142204
0.0520546
-0.0168356
0.054729
0.0576492
-0.019659
-0.000313754
0.0139329
-0.00129701
0.0310453
-0.0028156
0.0405815
-0.00466814
0.0452473
-0.00670521
0.0477701
-0.00886271
0.0498108
-0.0111311
0.051988
-0.0135058
0.0544294
-0.0160056
0.0572288
0.0604544
-0.0188107
-0.00024527
0.0141781
-0.0011133
0.0319133
-0.00251685
0.0419851
-0.00426958
0.047
-0.00621786
0.0497184
-0.00828991
0.0518829
-0.0104758
0.0541739
-0.0127764
0.0567299
-0.0151523
0.0596048
0.0632839
-0.0179819
-0.000174964
0.0143531
-0.00092229
0.0326606
-0.00220397
0.0432668
-0.00385105
0.0486471
-0.00570599
0.0515733
-0.00768826
0.0538651
-0.00978279
0.0562684
-0.0120031
0.0589503
-0.0143575
0.0619592
0.065567
-0.0166406
-0.000103438
0.0144565
-0.000724406
0.0332816
-0.00187739
0.0444198
-0.00341289
0.0501826
-0.00516977
0.0533302
-0.00705835
0.0557537
-0.00905562
0.0582657
-0.0111712
0.0610659
-0.0134058
0.0641937
0.0679105
-0.0157492
-3.26236e-05
0.0144892
-0.000519625
0.0337686
-0.00153768
0.0454378
-0.00295565
0.0516006
-0.00460965
0.0549842
-0.00640126
0.0575453
-0.00829954
0.060164
-0.0103119
0.0630782
-0.0124552
0.066337
0.0701593
-0.0147041
4.26479e-05
0.0144465
-0.000306525
0.0341178
-0.00118571
0.046317
-0.00247998
0.0528949
-0.00402634
0.0565306
-0.00571806
0.059237
-0.00751676
0.0619627
-0.00942718
0.0649887
-0.0114667
0.0683766
0.0722956
-0.013603
0.000118544
0.014328
-7.71203e-05
0.0343134
-0.00082311
0.047063
-0.00198626
0.054058
-0.00342047
0.0579648
-0.00500932
0.0608259
-0.00670663
0.06366
-0.00851333
0.0667954
-0.0104449
0.0703081
0.0743208
-0.0124701
0.000189277
0.0141387
0.000131437
0.0343713
-0.000451902
0.0476463
-0.00147501
0.0550811
-0.00279299
0.0592828
-0.00427542
0.0623083
-0.00586875
0.0652533
-0.00756917
0.0684958
-0.00939009
0.072129
0.0762382
-0.0113074
0.000257341
0.0138814
0.000340606
0.034288
-5.41605e-05
0.0480411
-0.000948251
0.0559752
-0.00214461
0.0604791
-0.00351676
0.0636805
-0.00500352
0.0667401
-0.00659524
0.0700875
-0.0083023
0.073836
0.0780423
-0.0101064
0.000324345
0.013557
0.000554731
0.0340576
0.000317969
0.0482779
-0.00041114
0.0567043
-0.00147585
0.0615438
-0.00273409
0.0649387
-0.00411163
0.0681176
-0.00559231
0.0715682
-0.00718273
0.0754265
0.0797267
-0.00886714
0.000389244
0.0131678
0.000769066
0.0336778
0.00070714
0.0483398
0.000143286
0.0572682
-0.000788089
0.0624752
-0.00192834
0.066079
-0.00319377
0.0693831
-0.00456102
0.0729354
-0.00603279
0.0768982
0.0812876
-0.00759364
0.000450936
0.0127168
0.000981922
0.0331468
0.00110211
0.0482196
0.00070436
0.0576659
-8.35199e-05
0.0632631
-0.00110033
0.0670958
-0.00225076
0.0705335
-0.00350215
0.0741868
-0.00485391
0.07825
0.0827225
-0.00628886
0.00050857
0.0122083
0.00119071
0.0324647
0.00149865
0.0479117
0.00127862
0.0578859
0.000640208
0.0639015
-0.000252468
0.0679884
-0.00128392
0.0715649
-0.00241665
0.0753196
-0.00364783
0.0794812
0.0840296
-0.00495496
0.000561248
0.011647
0.00139278
0.0316331
0.00189395
0.0474105
0.00186024
0.0579196
0.00137903
0.0643827
0.000619558
0.0687479
-0.000296815
0.0724813
-0.00130625
0.076329
-0.00241571
0.0805906
0.0852085
-0.00359453
0.000608105
0.0110389
0.00158551
0.0306557
0.00228459
0.0467114
0.00244616
0.0577581
0.00213107
0.0646978
0.00151007
0.0693689
0.000718442
0.0732729
-0.00018091
0.0772283
-0.00115571
0.0815654
0.0862656
-0.00221288
0.000648358
0.0103905
0.00176621
0.0295379
0.00266668
0.0458109
0.00303289
0.0573919
0.00289357
0.0648371
0.00241752
0.069845
0.00175389
0.0739366
0.000984717
0.0779975
0.000143
0.0824072
0.0872283
-0.000819682
0.000681315
0.00970923
0.0019321
0.0282871
0.0030359
0.0447071
0.00361618
0.0568116
0.00366326
0.06479
0.00333988
0.0701683
0.00280744
0.074469
0.00216021
0.0786447
0.00142952
0.0831379
0.0880434
0.000614413
0.0007064
0.00900283
0.00208034
0.0269132
0.00338752
0.0434
0.004191
0.0560081
0.0044361
0.0645449
0.00427422
0.0703302
0.00387752
0.0748657
0.00335545
0.0791668
0.00275695
0.0837364
0.0887001
0.00210023
0.000723177
0.00827965
0.00220788
0.0254285
0.0037163
0.0418915
0.00475154
0.0549729
0.00520722
0.0640892
0.00521721
0.0703202
0.0049625
0.0751204
0.00456979
0.0795595
0.00410132
0.0842048
0.0892219
0.00357961
0.000731395
0.00754826
0.00231193
0.0238479
0.00401661
0.0401869
0.00529114
0.0536983
0.00597075
0.0634096
0.00616469
0.0701263
0.00605937
0.0752257
0.00579875
0.0798202
0.00545815
0.0845454
0.089614
0.00506598
0.000731013
0.00681725
0.00239008
0.0221889
0.00428254
0.0382944
0.00580221
0.0521787
0.00671971
0.0624921
0.00711139
0.0697346
0.00716429
0.0751728
0.007039
0.0799454
0.00682635
0.0847581
0.0898776
0.00656278
0.000722188
0.00609506
0.00244029
0.0204707
0.00450799
0.0362267
0.00627625
0.0504104
0.00744579
0.0613226
0.00805085
0.0691296
0.00827291
0.0749508
0.00828791
0.0799304
0.00820464
0.0848413
0.0900133
0.00806891
0.000705283
0.00538978
0.00246111
0.0187149
0.0046869
0.0340009
0.0067039
0.0483934
0.00813928
0.0598872
0.00897524
0.0682936
0.00937999
0.074546
0.00954232
0.0797681
0.00959079
0.0847929
0.0900219
0.00958226
0.00068087
0.00470891
0.00245181
0.016944
0.00481361
0.0316391
0.00707513
0.0461319
0.008789
0.0581733
0.00987507
0.0672075
0.0104789
0.0739422
0.0107981
0.0794489
0.0109819
0.0846091
0.0899026
0.0111012
0.000649718
0.00405919
0.00241259
0.0151811
0.00488319
0.0291685
0.00737948
0.0436356
0.00938225
0.0561706
0.0107389
0.0658509
0.0115613
0.0731198
0.0120498
0.0789604
0.0123744
0.0842845
0.0896539
0.012623
0.00061277
0.00344642
0.00234463
0.0134493
0.00489202
0.0266211
0.00760648
0.0409212
0.00990489
0.0538722
0.0115531
0.0642027
0.0126167
0.0720561
0.0132906
0.0782865
0.0137639
0.0838112
0.0892735
0.0141442
0.000571108
0.00287531
0.00225013
0.0117702
0.00483823
0.024033
0.00774631
0.0380131
0.0103416
0.0512769
0.0123017
0.0622426
0.0136321
0.0707257
0.0145115
0.0774071
0.0151447
0.083178
0.0887575
0.0156607
0.000525908
0.0023494
0.00213226
0.0101639
0.0047222
0.0214431
0.00779055
0.0349447
0.0106765
0.048391
0.0129664
0.0599527
0.0145915
0.0691006
0.0157011
0.0762975
0.0165095
0.0823696
0.0880995
0.0171676
0.000478393
0.00187101
0.00199502
0.00864725
0.00454695
0.0188911
0.0077332
0.0317585
0.0108935
0.0452306
0.0135266
0.0573196
0.0154756
0.0671516
0.0168447
0.0749283
0.0178488
0.0813656
0.0872894
0.0186588
0.00042979
0.00144122
0.00184302
0.00723403
0.00431823
0.0164159
0.00757181
0.0285049
0.0109782
0.0418242
0.0139602
0.0543376
0.0162616
0.0648502
0.0179239
0.0732661
0.0191496
0.0801398
0.0201262
0.000381296
0.00105992
0.00168124
0.00593408
0.00404445
0.0140527
0.00730855
0.0252408
0.0109187
0.0382141
0.0142444
0.051012
0.0169234
0.0621712
0.0189155
0.0712739
0.000334057
0.000725867
0.00151485
0.00475329
0.00373614
0.0118314
0.006951
0.0220259
0.010708
0.0344571
0.014357
0.047363
0.0174315
0.0590967
0.000289157
0.00043671
0.0013489
0.00369355
0.00340536
0.00977496
0.00651248
0.0189188
0.0103458
0.0306237
0.0142789
0.000247609
0.000189101
0.00118822
0.00275294
0.00306478
0.0078984
0.00601144
0.0159721
0.000210329
-2.12281e-05
0.00103718
0.00192609
0.00272682
0.00620877
0.000178072
-0.000199301
0.000899449
0.00120471
0.000151345
-0.000350645
0.000578371
0.000130285
-0.00048093
0.0344322
-0.000518819
0.00144199
0.033513
-0.00157403
0.0024932
0.0325754
-0.00326263
0.00420027
0.0316326
-0.00393297
0.00487578
0.0306578
-0.00574035
0.00671514
0.0296455
-0.00677445
0.00778673
0.0285755
-0.0091272
0.0101972
0.0274368
-0.010653
0.0117916
0.0262239
-0.0135961
0.014809
0.0249291
-0.0154781
0.0167729
0.0235748
-0.0189669
0.0203212
0.0221661
-0.0208765
0.0222852
0.0207679
-0.0249177
0.0263159
0.0194687
-0.0262162
0.0275154
-0.0313109
0.0327977
0.0345591
0.000277441
0.0337556
-0.000770535
0.0329215
-0.00242858
0.0320723
-0.00308378
0.0311805
-0.00484846
0.0302437
-0.00583773
0.0292396
-0.00812312
0.0281632
-0.00957653
0.0270023
-0.0124353
0.0257601
-0.0142359
0.0244392
-0.017646
0.0230693
-0.0195066
0.0216485
-0.0234969
0.0203162
-0.0248839
-0.0298054
0.0346808
0.000952023
0.0339898
-7.953e-05
0.0332559
-0.0016947
0.0324998
-0.00232767
0.0316903
-0.00403904
0.0308315
-0.00497887
0.0298958
-0.00718747
0.028885
-0.00856574
0.027779
-0.0113293
0.0265896
-0.0130465
0.0253018
-0.0163582
0.0239642
-0.018169
0.0225317
-0.0220643
0.0211727
-0.0235249
-0.0282917
0.0347971
0.00151031
0.0342131
0.000504443
0.0335753
-0.0010569
0.0329084
-0.00166075
0.0321781
-0.00330877
0.0313943
-0.00419504
0.0305247
-0.00631787
0.0295777
-0.00761877
0.0285249
-0.0102765
0.0273876
-0.0119092
0.0261331
-0.0151036
0.0248277
-0.0168636
0.023393
-0.0206297
0.022012
-0.0221439
-0.0267441
0.0349073
0.00195834
0.0344254
0.000986316
0.0338788
-0.000510292
0.0332966
-0.00107856
0.0326415
-0.00265362
0.031929
-0.00348256
0.031122
-0.00551086
0.0302359
-0.00673265
0.0292335
-0.00927414
0.0281462
-0.0108219
0.0269242
-0.0138816
0.0256486
-0.015588
0.0242175
-0.0191985
0.0228162
-0.0207427
-0.0251638
0.0350116
0.00230208
0.0346262
0.00137174
0.0341658
-4.99221e-05
0.0336641
-0.000576856
0.0330798
-0.00206932
0.032435
-0.00283775
0.0316871
-0.00476295
0.0308587
-0.00590426
0.0299039
-0.00831931
0.0288636
-0.00978164
0.027673
-0.012691
0.026424
-0.014339
0.0249993
-0.0177738
0.023581
-0.0193243
-0.0235503
0.0351097
0.00254769
0.0348157
0.00166574
0.0344348
0.000330989
0.0340097
-0.000151776
0.0334921
-0.00155168
0.0329111
-0.00225674
0.0322186
-0.00407048
0.0314446
-0.00513022
0.0305343
-0.00740905
0.0295378
-0.00878511
0.0283774
-0.0115306
0.027152
-0.0131136
0.0257352
-0.0163571
0.0243025
-0.0178916
-0.0219044
0.0352015
0.00270152
0.0349925
0.00187478
0.0346877
0.000635805
0.0343322
0.00020373
0.0338776
-0.00109709
0.0333562
-0.00173542
0.0327154
-0.00342965
0.0319921
-0.00440689
0.0311234
-0.00654035
0.030167
-0.00782878
0.0290354
-0.0103989
0.027831
-0.0119093
0.0264227
-0.0149488
0.0249777
-0.0164466
-0.0202278
0.0352867
0.00277011
0.0351568
0.0020047
0.0349219
0.000870736
0.0346324
0.000493276
0.0342355
-0.000700194
0.0337696
-0.0012696
0.0331765
-0.00283653
0.0325001
-0.00373045
0.0316699
-0.00571021
0.0307502
-0.00690902
0.0296457
-0.0092944
0.0284599
-0.0107236
0.0270599
-0.0135488
0.0256044
-0.0149911
-0.018523
0.0353653
0.0027601
0.0353084
0.00206165
0.035138
0.00104114
0.0349089
0.000722318
0.0345655
-0.000356723
0.0341505
-0.000854652
0.0336012
-0.00228718
0.0329677
-0.00309694
0.0321731
-0.0049156
0.0312862
-0.00602221
0.030207
-0.00821517
0.0290378
-0.00955432
0.0276455
-0.0121565
0.0261809
-0.0135265
-0.0167924
0.0354372
0.00267824
0.0354469
0.00205192
0.0353356
0.00115245
0.0351618
0.000896185
0.0348666
-6.1579e-05
0.0344984
-0.000486432
0.0339887
-0.00177747
0.0333941
-0.00250233
0.0326319
-0.00415345
0.0317745
-0.0051648
0.0307185
-0.00715918
0.0295638
-0.0083996
0.0281786
-0.0107713
0.026706
-0.012054
-0.0150391
0.0355022
0.0025314
0.0355722
0.00198187
0.0355143
0.00121041
0.0353915
0.0010189
0.0351369
0.000193113
0.0348124
-0.000161967
0.0343384
-0.00130346
0.0337786
-0.00194256
0.0330458
-0.00342064
0.0322143
-0.00433334
0.0311794
-0.00612421
0.0300373
-0.00725752
0.0286583
-0.00939226
0.0271787
-0.0105743
-0.0132657
0.0355602
0.00232654
0.0356841
0.00185796
0.0356736
0.00122093
0.0355955
0.00109697
0.03538
0.000408658
0.0350908
0.000127258
0.0346498
-0.000862533
0.0341207
-0.00141344
0.0334141
-0.00271401
0.0326052
-0.0035245
0.031589
-0.00510793
0.0304578
-0.00612635
0.0290841
-0.00801857
0.0275983
-0.00908849
-0.0114752
0.0356112
0.00207071
0.0357824
0.00168674
0.0358133
0.00119
0.0357747
0.00113561
0.0355924
0.000590974
0.0353353
0.000384325
0.0349227
-0.00044994
0.0344201
-0.000910854
0.0337363
-0.00203017
0.0329468
-0.00273504
0.0319468
-0.00410797
0.0308249
-0.00500439
0.0294557
-0.0066494
0.0279644
-0.00759714
-0.00967034
0.035655
0.00177104
0.0358669
0.00147489
0.0359333
0.00112362
0.0359283
0.0011406
0.0357747
0.000744487
0.0355446
0.00061447
0.035156
-6.13044e-05
0.0346766
-0.000431457
0.0340119
-0.00136547
0.0332387
-0.00196184
0.0322526
-0.00312189
0.0311383
-0.00389007
0.0297728
-0.00528395
0.0282767
-0.00610106
-0.00785368
0.0356917
0.00143471
0.0359374
0.00122912
0.0360333
0.00102778
0.0360561
0.00111773
0.0359266
0.000874027
0.0357214
0.000819676
0.0353475
0.000312554
0.0348888
2.72757e-05
0.0342409
-0.000717565
0.0334809
-0.00120181
0.032506
-0.00214705
0.0313978
-0.00278183
0.0300354
-0.00392151
0.0285353
-0.00460098
-0.00602771
0.0357211
0.00106896
0.035994
0.000956238
0.0361132
0.000908551
0.0361582
0.00107271
0.0360476
0.000984646
0.0358602
0.00100706
0.0355047
0.000668083
0.0350539
0.000478046
0.0344223
-8.59237e-05
0.0336731
-0.000452628
0.0327072
-0.00118119
0.0316035
-0.00167811
0.0302435
-0.00256152
0.0287401
-0.00309753
-0.00419466
0.0357432
0.000681078
0.0360364
0.000663091
0.0361729
0.000771986
0.0362343
0.00101135
0.0361373
0.00108161
0.0359633
0.00118107
0.0356187
0.00101271
0.0351828
0.000913926
0.0345542
0.000542655
0.033812
0.000289557
0.0328556
-0.000224757
0.0317548
-0.000577321
0.030397
-0.00120373
0.0288915
-0.00159205
-0.00235645
0.035758
0.000278382
0.0360646
0.00035657
0.0362124
0.000624177
0.0362842
0.000939495
0.0361958
0.00117001
0.0360303
0.00134657
0.035693
0.00135007
0.0352629
0.001344
0.0346427
0.00116287
0.0339065
0.00102579
0.0329497
0.00073196
0.0318508
0.000521644
0.0304937
0.000153321
0.0289895
-8.78776e-05
-0.000514972
0.0357655
0.0360785
0.0362315
0.036308
0.0362231
0.0360612
0.0357265
0.0352992
0.0346821
0.033947
0.0329937
0.0318983
0.0305421
0.0290304
0.202014
-0.000210316
0.202506
-0.000491656
0.203228
-0.000722259
0.204081
-0.000852543
0.20505
-0.000969154
0.206064
-0.00101418
0.207118
-0.00105394
0.208157
-0.00103897
0.209184
-0.00102685
0.210158
-0.000974127
0.211091
-0.000932711
0.211952
-0.000860997
0.21276
-0.000808481
0.213491
-0.000730754
-0.000677666
0.214168
0.192585
-0.000411065
0.193051
-0.000958267
0.193737
-0.00140804
0.194547
-0.00166216
0.19547
-0.00189249
0.196438
-0.00198256
0.197449
-0.00206429
0.198447
-0.00203754
0.199438
-0.00201711
0.200379
-0.00191526
0.201282
-0.00183597
0.202117
-0.00169556
0.202901
-0.0015934
0.203611
-0.00144044
-0.00133778
0.204271
0.183595
-0.000602527
0.184031
-0.00139452
0.18468
-0.00205672
0.185446
-0.00242833
0.186328
-0.00277411
0.187255
-0.0029097
0.18823
-0.00303883
0.189196
-0.00300383
0.19016
-0.00298125
0.191079
-0.00283389
0.191965
-0.00272183
0.192784
-0.00251518
0.193558
-0.00236712
0.194257
-0.00214002
-0.00198987
0.194909
0.175025
-0.00078514
0.175429
-0.00179813
0.17604
-0.00266747
0.176761
-0.00314993
0.177602
-0.00361494
0.17849
-0.00379741
0.179433
-0.0039819
0.180372
-0.00394341
0.181318
-0.0039269
0.182222
-0.00373832
0.1831
-0.00359977
0.183914
-0.00332919
0.184687
-0.00313929
0.185385
-0.00283841
-0.00264354
0.186039
0.166855
-0.000959286
0.167224
-0.00216675
0.167796
-0.00323938
0.168471
-0.00382529
0.169271
-0.00441475
0.17012
-0.00464588
0.171033
-0.00489583
0.17195
-0.00485961
0.172882
-0.00485935
0.173778
-0.00463453
0.174656
-0.00447707
0.175471
-0.00414493
0.17625
-0.00391795
0.176955
-0.00354312
-0.00330651
0.177618
0.159067
-0.00112518
0.159398
-0.00249805
0.15993
-0.00377159
0.160557
-0.00445218
0.161315
-0.00517228
0.162123
-0.00545386
0.163008
-0.00578123
0.163902
-0.0057538
0.164825
-0.00578187
0.165717
-0.00552654
0.166599
-0.00535922
0.167422
-0.00496813
0.168214
-0.00470967
0.168931
-0.00426038
-0.00398537
0.16961
0.151641
-0.00128277
0.151933
-0.00278992
0.152425
-0.00426341
0.153
-0.00502782
0.153714
-0.00588543
0.154479
-0.00621894
0.155335
-0.00663718
0.156206
-0.00662564
0.157121
-0.00669597
0.158011
-0.00641667
0.158902
-0.00625015
0.159737
-0.00580315
0.160547
-0.00551987
0.161282
-0.00499544
-0.00468596
0.161982
0.144561
-0.00143164
0.144812
-0.00304082
0.145263
-0.00471439
0.145784
-0.00554898
0.146451
-0.00655162
0.147169
-0.00693779
0.147994
-0.00746149
0.148841
-0.00747326
0.149747
-0.00760156
0.150636
-0.00730565
0.151538
-0.00715239
0.152388
-0.0066531
0.153221
-0.006353
0.153979
-0.00575275
-0.00541353
0.154706
0.137811
-0.00157088
0.13802
-0.00325015
0.13843
-0.00512408
0.138893
-0.00601225
0.139509
-0.00716807
0.140178
-0.00760637
0.140967
-0.00825096
0.141788
-0.00829345
0.142683
-0.00849713
0.14357
-0.00819278
0.144485
-0.00806718
0.145352
-0.00752
0.146212
-0.00721264
0.146995
-0.00653606
-0.00617289
0.147754
0.131373
-0.00169915
0.131542
-0.00341856
0.13191
-0.00549184
0.132312
-0.00641455
0.132876
-0.00773203
0.13349
-0.00822018
0.13424
-0.00900157
0.135029
-0.00908184
0.135911
-0.00937989
0.136795
-0.00907595
0.137722
-0.00899456
0.138607
-0.00840475
0.139496
-0.00810155
0.140308
-0.0073485
-0.00696846
0.141104
0.125234
-0.00181469
0.125364
-0.00354807
0.125689
-0.00581652
0.126028
-0.00675363
0.126536
-0.00824092
0.127091
-0.00877451
0.127798
-0.00970882
0.128549
-0.00983313
0.129415
-0.0102459
0.130291
-0.00995179
0.13123
-0.00993337
0.132132
-0.00930716
0.133053
-0.00902168
0.133897
-0.00819256
-0.0078043
0.134732
0.119379
-0.00191553
0.119473
-0.00364197
0.119753
-0.00609639
0.120028
-0.00702859
0.120479
-0.00869231
0.12097
-0.00926478
0.121629
-0.0103679
0.122337
-0.0105412
0.123181
-0.0110901
0.124045
-0.0108157
0.124993
-0.0108812
0.125912
-0.0102259
0.126864
-0.00997413
0.127742
-0.00907011
-0.00868413
0.128621
0.113795
-0.00199978
0.113857
-0.00370456
0.11409
-0.00632912
0.114302
-0.00724029
0.114693
-0.00908378
0.115116
-0.009687
0.115722
-0.0109739
0.11638
-0.0111995
0.117197
-0.0119068
0.118043
-0.0116619
0.118996
-0.0118346
0.119929
-0.0111587
0.120914
-0.0109591
0.121826
-0.00998229
-0.00961125
0.122753
0.108469
-0.00206587
0.108505
-0.00374057
0.108688
-0.00651213
0.108839
-0.00739143
0.109168
-0.00941274
0.109519
-0.0100383
0.110067
-0.0115219
0.110669
-0.0118011
0.111452
-0.0126895
0.112273
-0.0124835
0.113227
-0.0127888
0.11417
-0.0121017
0.115187
-0.0119758
0.116134
-0.0109295
-0.0105885
0.117112
0.10339
-0.00211288
0.103404
-0.00375465
0.103535
-0.00664317
0.10363
-0.00748629
0.103893
-0.00967641
0.104172
-0.0103175
0.104657
-0.0120068
0.105196
-0.0123394
0.105937
-0.0134311
0.106727
-0.0132728
0.107676
-0.0137379
0.108624
-0.0130503
0.109671
-0.0130223
0.110653
-0.0119113
-0.0116181
0.111682
0.0985466
-0.00214067
0.0985428
-0.00375083
0.0986205
-0.00672092
0.0986644
-0.00753014
0.09886
-0.00987199
0.0990675
-0.010525
0.0994838
-0.012423
0.099953
-0.0128086
0.100646
-0.0141241
0.101394
-0.0140213
0.102331
-0.0146749
0.10328
-0.0139984
0.104353
-0.0140956
0.105368
-0.0129263
-0.0127015
0.106451
0.0939293
-0.00214993
0.0939107
-0.00373221
0.0939353
-0.00674555
0.0939338
-0.00752856
0.0940589
-0.00999719
0.0941973
-0.0106634
0.0945394
-0.0127652
0.094935
-0.0132042
0.0955714
-0.0147604
0.0962699
-0.0147198
0.0971869
-0.0155919
0.098127
-0.0149385
0.0992226
-0.0151911
0.100268
-0.0139721
-0.0138396
0.101406
0.0895282
-0.00214212
0.0894968
-0.00370081
0.0894702
-0.00671894
0.0894284
-0.00748677
0.089482
-0.0100508
0.0895547
-0.0107361
0.0898172
-0.0130276
0.0901366
-0.0135236
0.0907074
-0.0153312
0.0913471
-0.0153596
0.0922351
-0.0164799
0.0931586
-0.0158621
0.0942709
-0.0163034
0.0953442
-0.0150453
-0.0150319
0.0965365
0.0853338
-0.00211934
0.0852906
-0.00365765
0.0852164
-0.00664465
0.0851388
-0.00740917
0.0851211
-0.0100331
0.0851326
-0.0107476
0.0853106
-0.0132056
0.0855529
-0.0137659
0.0860486
-0.015827
0.0866215
-0.0159324
0.0874704
-0.0173289
0.0883673
-0.0167589
0.0894895
-0.0174257
0.0905854
-0.0161412
-0.0162772
0.0918308
0.0813369
-0.002084
0.0812822
-0.00360291
0.0811652
-0.00652773
0.0810552
-0.00729914
0.0809689
-0.0099468
0.0809235
-0.0107022
0.0810133
-0.0132954
0.0811794
-0.013932
0.08159
-0.0162376
0.0820893
-0.0164317
0.0828877
-0.0181273
0.083747
-0.0176182
0.0848715
-0.0185502
0.0859837
-0.0172535
-0.0175733
0.0872798
0.0775285
-0.00203862
0.0774619
-0.00353632
0.0773084
-0.00637414
0.0771683
-0.00715905
0.0770177
-0.00979625
0.0769192
-0.0106037
0.0769195
-0.0132957
0.0770114
-0.0140239
0.0773269
-0.0165531
0.077748
-0.0168528
0.0784824
-0.0188616
0.079293
-0.0184288
0.0804109
-0.0196681
0.0815315
-0.0183742
-0.0189169
0.0828752
0.0738998
-0.00198558
0.0738212
-0.00345765
0.0736371
-0.00619012
0.0734686
-0.00699052
0.0732602
-0.00958787
0.0731116
-0.010455
0.0730236
-0.0132077
0.0730436
-0.0140438
0.0732551
-0.0167646
0.0735955
-0.0171932
0.0742502
-0.0195164
0.075002
-0.0191806
0.0761029
-0.0207689
0.0772222
-0.0194935
-0.0203046
0.0786099
0.0704421
-0.00192686
0.0703514
-0.00336697
0.070143
-0.00598173
0.0699473
-0.00679482
0.0696888
-0.00932933
0.0694922
-0.0102584
0.0693204
-0.0130359
0.0692701
-0.0139935
0.0693714
-0.016866
0.06963
-0.0174518
0.0701877
-0.020074
0.0708726
-0.0198655
0.0719431
-0.0218395
0.0730504
-0.0206007
-0.021733
0.0744788
0.0671471
-0.00186398
0.067045
-0.00326485
0.0668176
-0.00575437
0.0665963
-0.00657353
0.0662957
-0.00902869
0.0660527
-0.0100155
0.0658044
-0.0127876
0.0656845
-0.0138736
0.0656736
-0.016855
0.0658496
-0.0176278
0.0662926
-0.0205171
0.0669052
-0.0204781
0.0679273
-0.0228615
0.0690108
-0.0216843
-0.0232026
0.0704803
0.0640067
-0.001798
0.0638943
-0.00315242
0.0636525
-0.00551257
0.0634078
-0.00632886
0.0630727
-0.00869357
0.0627855
-0.00972829
0.0624696
-0.0124717
0.0622803
-0.0136844
0.06216
-0.0167347
0.0622513
-0.0177192
0.062565
-0.0208307
0.0631028
-0.021016
0.0640517
-0.0238104
0.0650981
-0.0227307
-0.0247208
0.0666164
0.0610135
-0.00172961
0.0608923
-0.00303123
0.0606397
-0.00525999
0.0603747
-0.00606384
0.0600118
-0.00833072
0.0596836
-0.00940011
0.0593097
-0.0120977
0.0590516
-0.0134263
0.0588291
-0.0165122
0.0588318
-0.0177218
0.0590066
-0.0210056
0.0594688
-0.0214782
0.0603157
-0.0246573
0.0613117
-0.0237267
-0.0262959
0.0628868
0.0581603
-0.0016593
0.0580321
-0.00290303
0.0577717
-0.00499959
0.05749
-0.00578214
0.0571053
-0.00794597
0.0567409
-0.0090357
0.056318
-0.0116749
0.0559936
-0.0131019
0.0556791
-0.0161977
0.0555879
-0.0176306
0.055621
-0.0210386
0.0560022
-0.0218594
0.0567202
-0.0253752
0.0576662
-0.0246728
-0.0279073
0.0592776
0.0554407
-0.00158752
0.0553073
-0.00276965
0.0550418
-0.00473407
0.0547474
-0.00548774
0.0543461
-0.00754463
0.0539514
-0.00864106
0.053488
-0.0112115
0.0531026
-0.0127165
0.052707
-0.0158021
0.0525183
-0.0174419
0.0524117
-0.0209321
0.0526925
-0.0221401
0.0532528
-0.0259356
0.0541897
-0.0256096
-0.0294824
0.0557648
0.0528485
-0.00151475
0.0527117
-0.00263288
0.0524437
-0.00446606
0.0521408
-0.00518488
0.0517281
-0.00713187
0.0513101
-0.00822312
0.0508141
-0.0107154
0.0503753
-0.0122776
0.0499083
-0.0153352
0.0496221
-0.0171556
0.0493793
-0.0206893
0.0495287
-0.0222894
0.04987
-0.0262769
0.0508684
-0.0266081
-0.0309974
0.0523834
0.0503782
0.0502385
0.0499727
0.0496636
0.0492469
0.0488105
0.0482923
0.0478063
0.0472802
0.0468975
0.0465294
0.0465252
0.0465642
0.0474715
0.0492718
0.212641
0.0015277
0.211176
0.00146426
0.209785
0.00139138
0.208469
0.00131587
0.207231
0.00123787
0.206074
0.0011575
0.204999
0.00107489
0.204009
0.000990149
0.203105
0.000903396
0.202291
0.000814756
0.201566
0.000724362
0.200934
0.000632347
0.200395
0.000538849
0.199951
0.00044401
0.199603
0.000347975
0.199352
0.000250891
0.199199
0.000152917
0.199145
5.42399e-05
0.19919
-4.51511e-05
-0.000144988
0.199335
0.202811
0.00298779
0.201412
0.00286321
0.200083
0.0027201
0.198828
0.00257186
0.197647
0.00241877
0.196543
0.00226109
0.195519
0.00209906
0.194576
0.0019329
0.193717
0.00176285
0.192942
0.00158916
0.192255
0.00141208
0.191655
0.00123187
0.191145
0.00104881
0.190726
0.000863176
0.190399
0.000675242
0.190164
0.000485301
0.190023
0.000293647
0.189977
0.000100606
0.190026
-9.36764e-05
-0.00028874
0.190169
0.193517
0.00438054
0.192182
0.00419753
0.190916
0.00398675
0.189719
0.00376842
0.188595
0.00354305
0.187545
0.00331104
0.186571
0.00307272
0.185676
0.00282841
0.18486
0.00257845
0.184126
0.00232321
0.183475
0.00206306
0.182909
0.00179838
0.182428
0.00152958
0.182034
0.00125705
0.181728
0.000981205
0.181511
0.000702467
0.181383
0.000421272
0.181346
0.00013812
0.181399
-0.000146878
-0.000432969
0.181543
0.184712
0.00570692
0.183441
0.00546845
0.182236
0.00519253
0.181097
0.00490673
0.180029
0.00461182
0.179031
0.00430838
0.178107
0.0039968
0.177258
0.00367749
0.176486
0.00335087
0.175791
0.00301743
0.175177
0.00267766
0.174643
0.00233205
0.174192
0.00198113
0.173823
0.00162541
0.173539
0.00126542
0.17334
0.00090171
0.173226
0.000534845
0.173199
0.000165483
0.173258
-0.000206286
-0.000579394
0.173405
0.176357
0.00696787
0.175148
0.00667705
0.174002
0.00633852
0.172921
0.00598776
0.171907
0.00562599
0.170961
0.00525392
0.170086
0.00487202
0.169283
0.00448074
0.168553
0.0040806
0.167898
0.0036722
0.16732
0.00325612
0.166819
0.00283298
0.166397
0.00240341
0.166054
0.00196802
0.165792
0.00152749
0.165611
0.00108246
0.165513
0.000633621
0.165496
0.000181816
0.165563
-0.000273005
-0.000729362
0.165713
0.168414
0.00816417
0.167266
0.00782424
0.166179
0.00742557
0.165155
0.00701237
0.164194
0.00658633
0.1633
0.00614838
0.162473
0.00569902
0.161715
0.00523874
0.161027
0.00476813
0.160412
0.00428789
0.159869
0.00379871
0.159401
0.00330132
0.159008
0.00279643
0.158691
0.0022848
0.158451
0.00176716
0.158289
0.00124431
0.158206
0.000717041
0.158201
0.000186391
0.158276
-0.000347955
-0.000883954
0.158431
0.16085
0.00929641
0.159764
0.00891068
0.158735
0.00845436
0.157766
0.00798117
0.156859
0.00749344
0.156015
0.00699232
0.155236
0.00647832
0.154523
0.00595193
0.153877
0.00541383
0.1533
0.00486479
0.152793
0.00430563
0.152357
0.00373716
0.151994
0.00316021
0.151703
0.0025756
0.151486
0.00198421
0.151343
0.0013869
0.151276
0.000784612
0.151283
0.000178614
0.151367
-0.000431906
-0.00104409
0.151527
0.153638
0.0103649