/*--------------------------------*- C++ -*----------------------------------*\
  =========                 |
  \\      /  F ield         | OpenFOAM: The Open Source CFD Toolbox
   \\    /   O peration     | Website:  https://openfoam.org
    \\  /    A nd           | Version:  7
     \\/     M anipulation  |
\*---------------------------------------------------------------------------*/
FoamFile
{
    version     2.0;
    format      ascii;
    class       volScalarField;
    location    "180";
    object      p;
}
// * * * * * * * * * * * * * * * * * * * * * * * * * * * * * * * * * * * * * //

dimensions      [0 2 -2 0 0 0 0];

internalField   nonuniform List<scalar> 
8500
(
-0.389121
-0.39231
-0.393374
-0.394069
-0.394633
-0.395117
-0.395502
-0.395722
-0.395644
-0.395484
-0.38301
-0.385783
-0.386503
-0.386718
-0.386644
-0.386348
-0.385844
-0.385134
-0.384152
-0.383172
-0.377424
-0.379741
-0.38012
-0.379875
-0.379196
-0.378162
-0.376819
-0.375236
-0.373432
-0.371573
-0.372313
-0.37416
-0.374207
-0.373526
-0.372273
-0.370542
-0.368404
-0.365999
-0.363469
-0.360644
-0.367621
-0.369011
-0.368742
-0.367647
-0.365848
-0.363451
-0.360556
-0.357365
-0.354215
-0.350316
-0.363293
-0.364262
-0.363698
-0.36221
-0.35989
-0.356849
-0.353225
-0.349265
-0.345589
-0.340579
-0.359281
-0.359888
-0.359053
-0.357193
-0.354367
-0.350697
-0.346361
-0.341628
-0.337237
-0.331652
-0.355548
-0.355869
-0.354792
-0.352573
-0.349256
-0.344961
-0.339915
-0.334433
-0.329393
-0.323073
-0.352075
-0.352195
-0.350907
-0.348338
-0.34454
-0.339634
-0.333881
-0.327645
-0.322027
-0.314831
-0.348859
-0.348867
-0.347406
-0.344479
-0.340225
-0.334715
-0.328268
-0.321274
-0.315135
-0.306949
-0.345918
-0.345895
-0.344254
-0.341054
-0.336329
-0.33023
-0.323115
-0.315374
-0.308798
-0.299453
-0.343293
-0.343311
-0.341517
-0.338044
-0.332878
-0.326225
-0.318491
-0.310041
-0.303174
-0.292409
-0.341046
-0.341156
-0.339226
-0.335488
-0.329916
-0.322765
-0.31449
-0.305405
-0.298482
-0.285948
-0.339256
-0.339482
-0.337424
-0.333437
-0.327504
-0.319931
-0.311222
-0.301619
-0.294934
-0.280288
-0.338014
-0.338348
-0.336164
-0.331951
-0.32571
-0.317813
-0.308793
-0.298845
-0.292638
-0.27583
-0.337418
-0.337818
-0.3355
-0.331087
-0.324607
-0.316491
-0.307286
-0.297229
-0.291478
-0.272979
-0.33756
-0.337952
-0.335486
-0.330891
-0.32426
-0.316027
-0.306743
-0.296859
-0.291093
-0.271925
-0.338517
-0.338797
-0.336164
-0.331409
-0.324691
-0.316437
-0.307155
-0.297729
-0.291063
-0.272332
-0.340345
-0.340387
-0.337554
-0.332652
-0.325891
-0.317691
-0.308463
-0.2997
-0.291275
-0.274166
-0.343068
-0.342732
-0.339653
-0.334598
-0.327811
-0.319701
-0.310554
-0.3024
-0.292116
-0.280128
-0.346685
-0.345826
-0.342436
-0.337201
-0.330373
-0.322342
-0.313263
-0.305268
-0.293827
-0.29302
-0.351173
-0.349639
-0.345877
-0.340402
-0.33349
-0.32548
-0.316409
-0.30807
-0.296436
-0.29319
-0.356505
-0.354148
-0.349935
-0.344151
-0.337088
-0.328998
-0.319798
-0.310794
-0.298652
-0.291853
-0.362639
-0.35934
-0.354588
-0.348418
-0.34112
-0.332819
-0.323288
-0.313384
-0.300286
-0.290436
-0.369551
-0.365207
-0.359835
-0.353203
-0.345567
-0.336892
-0.326795
-0.315716
-0.301339
-0.288633
-0.377234
-0.371752
-0.365697
-0.35853
-0.350429
-0.34119
-0.330247
-0.317696
-0.301744
-0.286587
-0.385691
-0.378995
-0.372211
-0.364432
-0.355718
-0.345684
-0.333564
-0.319239
-0.301527
-0.284201
-0.394932
-0.386961
-0.379417
-0.370941
-0.361435
-0.350326
-0.336653
-0.320288
-0.300712
-0.281473
-0.404962
-0.395673
-0.387344
-0.378068
-0.367559
-0.35503
-0.339417
-0.320803
-0.299338
-0.278381
-0.415774
-0.405137
-0.396
-0.385795
-0.374024
-0.359676
-0.34176
-0.32076
-0.297432
-0.274913
-0.427337
-0.415337
-0.405356
-0.394064
-0.380716
-0.364116
-0.343594
-0.32014
-0.295011
-0.271052
-0.439586
-0.426225
-0.415346
-0.402771
-0.387468
-0.368189
-0.344835
-0.318922
-0.292076
-0.266775
-0.452419
-0.437713
-0.42586
-0.411762
-0.394071
-0.371734
-0.345407
-0.317079
-0.288613
-0.262052
-0.465691
-0.44967
-0.436739
-0.420825
-0.400292
-0.374594
-0.345232
-0.314574
-0.284592
-0.256847
-0.479214
-0.46192
-0.447782
-0.429703
-0.405891
-0.376616
-0.344233
-0.311362
-0.279975
-0.25112
-0.492754
-0.474243
-0.458736
-0.438101
-0.410626
-0.377657
-0.342328
-0.307389
-0.274711
-0.244825
-0.506039
-0.486374
-0.469307
-0.445701
-0.414263
-0.377579
-0.339437
-0.302592
-0.268746
-0.237916
-0.518759
-0.498012
-0.479159
-0.452184
-0.416585
-0.376253
-0.335475
-0.296908
-0.262021
-0.230348
-0.530572
-0.508824
-0.487934
-0.457237
-0.417388
-0.373556
-0.330359
-0.290266
-0.254478
-0.222079
-0.541117
-0.518451
-0.495256
-0.460562
-0.416486
-0.369374
-0.324007
-0.2826
-0.246059
-0.213071
-0.550018
-0.526521
-0.500758
-0.461889
-0.413715
-0.363602
-0.316342
-0.273845
-0.236713
-0.203294
-0.5569
-0.532655
-0.504087
-0.460976
-0.408932
-0.356148
-0.307291
-0.263941
-0.226402
-0.192731
-0.561394
-0.536482
-0.504921
-0.457613
-0.402013
-0.346928
-0.296787
-0.252832
-0.215091
-0.18137
-0.563153
-0.537652
-0.502978
-0.451628
-0.392861
-0.335875
-0.284774
-0.240466
-0.202739
-0.16916
-0.561858
-0.535843
-0.49802
-0.442889
-0.381401
-0.322939
-0.27121
-0.226805
-0.189274
-0.155927
-0.55723
-0.530775
-0.489862
-0.431301
-0.367587
-0.308089
-0.256075
-0.211834
-0.174627
-0.141368
-0.549033
-0.522221
-0.478366
-0.416809
-0.351394
-0.291309
-0.239357
-0.19556
-0.158855
-0.125449
-0.537086
-0.510013
-0.463442
-0.399393
-0.332825
-0.272598
-0.221053
-0.177995
-0.142067
-0.109233
-0.521262
-0.494042
-0.445052
-0.379067
-0.311907
-0.251976
-0.201197
-0.159197
-0.124095
-0.0924951
-0.501493
-0.474255
-0.423206
-0.355885
-0.288691
-0.229498
-0.179887
-0.139173
-0.105083
-0.0749947
-0.477769
-0.450663
-0.397972
-0.329939
-0.263253
-0.205261
-0.157149
-0.117944
-0.085132
-0.0567071
-0.450136
-0.423339
-0.369487
-0.301353
-0.235671
-0.179335
-0.133036
-0.095591
-0.0643044
-0.0377002
-0.418696
-0.392421
-0.337952
-0.270215
-0.206053
-0.151802
-0.107641
-0.0722027
-0.0426686
-0.0180785
-0.383614
-0.358116
-0.303491
-0.236542
-0.174632
-0.122802
-0.0810745
-0.0478735
-0.0203067
0.00204399
-0.345114
-0.320698
-0.265935
-0.200817
-0.141518
-0.0924802
-0.0534611
-0.0227055
0.00269784
0.0225805
-0.303425
-0.280417
-0.225549
-0.163243
-0.106928
-0.0609964
-0.0249383
0.00319523
0.0262592
0.0434421
-0.25875
-0.237096
-0.183366
-0.123986
-0.0710558
-0.0285223
0.00435906
0.0297306
0.0502369
0.064291
-0.211423
-0.191352
-0.139581
-0.0833275
-0.0341112
0.00476971
0.0343152
0.0568191
0.0743534
0.0843012
-0.162047
-0.143477
-0.0943084
-0.0415469
0.00367821
0.0387042
0.0648213
0.0843552
0.0982684
0.102891
-0.110835
-0.0939799
-0.0478116
0.00107675
0.0420711
0.0730917
0.095714
0.112091
0.121861
0.12181
-0.0581938
-0.0432997
-0.000432265
0.0442551
0.0808199
0.107722
0.126739
0.139619
0.145108
0.145921
-0.00457144
0.00815367
0.0474622
0.0876888
0.119673
0.142365
0.157627
0.16682
0.168943
0.170194
0.0495817
0.0599691
0.0954981
0.131071
0.158371
0.17679
0.188206
0.193764
0.193028
0.193208
0.103812
0.11173
0.143303
0.174092
0.19665
0.210764
0.2183
0.220327
0.216916
0.215263
0.157665
0.163016
0.190506
0.216442
0.234248
0.244064
0.247738
0.246329
0.240256
0.23634
0.210689
0.213413
0.236746
0.257814
0.270905
0.276469
0.276342
0.271588
0.262855
0.256472
0.262441
0.26251
0.281666
0.29791
0.306368
0.307767
0.303928
0.295926
0.284558
0.275623
0.312487
0.30991
0.324922
0.336439
0.340389
0.337748
0.330317
0.319181
0.305235
0.293733
0.36041
0.355228
0.366185
0.37312
0.372732
0.366211
0.355335
0.341201
0.324767
0.310731
0.405808
0.398099
0.405138
0.407689
0.40317
0.392963
0.378819
0.361845
0.34304
0.326541
0.448302
0.438175
0.441484
0.439892
0.43149
0.417822
0.400613
0.38098
0.359943
0.341088
0.487539
0.475134
0.474945
0.469496
0.457492
0.440617
0.420571
0.398483
0.375375
0.354299
0.523189
0.508677
0.505266
0.496282
0.48099
0.461191
0.43856
0.414239
0.389239
0.366108
0.554954
0.538532
0.532213
0.520054
0.501817
0.4794
0.454457
0.428144
0.401448
0.376453
0.582567
0.564458
0.555578
0.540636
0.519822
0.495117
0.468155
0.440103
0.411923
0.385281
0.605793
0.586241
0.57518
0.557872
0.534873
0.508229
0.479556
0.450034
0.420595
0.392545
0.624433
0.603701
0.590863
0.571632
0.546859
0.518641
0.488581
0.457866
0.427405
0.398207
0.638324
0.616691
0.602502
0.581809
0.555688
0.526274
0.495161
0.463543
0.432305
0.402234
0.64734
0.625098
0.609998
0.588319
0.561289
0.531068
0.499246
0.46702
0.435258
0.404605
0.651395
0.628841
0.613283
0.591104
0.563612
0.532981
0.500799
0.468266
0.436239
0.405305
0.650437
0.627876
0.612319
0.590133
0.56263
0.53199
0.499801
0.467264
0.435234
0.40432
0.644459
0.622195
0.607099
0.585398
0.558337
0.528089
0.496248
0.464009
0.432236
0.401646
0.633488
0.611823
0.597644
0.576919
0.55075
0.521293
0.490151
0.458513
0.427257
0.397287
0.617593
0.596821
0.584006
0.564739
0.539905
0.511633
0.481538
0.450799
0.420317
0.39126
0.59688
0.577285
0.566269
0.548928
0.525863
0.49916
0.470452
0.440906
0.411448
0.383582
0.571493
0.553345
0.544542
0.52958
0.508704
0.483943
0.456952
0.428885
0.400691
0.37428
0.541612
0.525164
0.518966
0.506815
0.48853
0.466069
0.441112
0.414799
0.388102
0.363387
0.507454
0.492937
0.489708
0.480773
0.465461
0.445641
0.423021
0.398725
0.373743
0.350948
0.46927
0.45689
0.456963
0.45162
0.439639
0.422779
0.402779
0.38075
0.357689
0.33701
0.42734
0.417281
0.420949
0.419542
0.41122
0.397618
0.380503
0.360975
0.340022
0.321632
0.381979
0.374391
0.381909
0.384743
0.380382
0.370307
0.35632
0.339508
0.320836
0.304877
0.333526
0.328532
0.34011
0.34745
0.347316
0.341011
0.33037
0.316469
0.300228
0.286814
0.282347
0.280036
0.295837
0.307905
0.312228
0.309906
0.302802
0.291985
0.278303
0.267515
0.228831
0.229258
0.249395
0.266365
0.275337
0.277177
0.273777
0.266195
0.255171
0.247051
0.173387
0.176572
0.201106
0.223103
0.236874
0.243021
0.243464
0.239247
0.230949
0.225487
0.116438
0.122368
0.151306
0.178401
0.19708
0.207644
0.212039
0.2113
0.20576
0.202874
0.058423
0.0670473
0.100343
0.132554
0.156205
0.171254
0.179681
0.182533
0.179761
0.179233
-0.00021247
0.0110217
0.048574
0.085864
0.114504
0.13407
0.146567
0.153132
0.153149
0.154505
-0.0590163
-0.0452926
-0.00363622
0.0386365
0.0722402
0.0963117
0.112865
0.123275
0.1263
0.128692
-0.117535
-0.101478
-0.055918
-0.0088196
0.0296752
0.058214
0.0787467
0.0930857
0.0997051
0.101444
-0.175318
-0.157122
-0.1079
-0.056197
-0.0129314
0.0200108
0.044384
0.0624585
0.0737061
0.0742762
-0.231919
-0.211813
-0.159211
-0.103193
-0.0553263
-0.0180652
0.0100602
0.0315227
0.0472863
0.053019
-0.286905
-0.265137
-0.209496
-0.149515
-0.0972597
-0.0557989
-0.0239538
0.000727479
0.0204548
0.0321063
-0.33994
-0.316637
-0.25844
-0.19488
-0.138488
-0.0929985
-0.0574924
-0.0296663
-0.00666836
0.00951599
-0.390625
-0.36593
-0.305841
-0.239013
-0.178776
-0.129487
-0.0904521
-0.0595609
-0.0337202
-0.0140819
-0.438508
-0.412423
-0.351668
-0.281627
-0.217909
-0.165089
-0.122719
-0.0888807
-0.0604062
-0.037758
-0.483303
-0.455929
-0.39533
-0.322451
-0.255694
-0.19963
-0.154156
-0.117527
-0.08658
-0.0611475
-0.524791
-0.49646
-0.435888
-0.361478
-0.291934
-0.232941
-0.184619
-0.145389
-0.112153
-0.0841622
-0.562738
-0.533763
-0.473435
-0.39828
-0.326397
-0.264872
-0.21398
-0.17236
-0.137037
-0.106713
-0.596939
-0.567583
-0.508027
-0.432445
-0.359016
-0.295289
-0.242119
-0.198342
-0.161142
-0.128681
-0.627243
-0.597726
-0.539491
-0.464034
-0.389555
-0.324058
-0.268935
-0.223242
-0.184392
-0.14996
-0.653563
-0.624064
-0.567639
-0.492952
-0.417915
-0.351119
-0.294341
-0.246974
-0.20673
-0.17047
-0.675862
-0.646538
-0.592347
-0.519076
-0.44403
-0.37639
-0.318319
-0.269463
-0.228089
-0.190185
-0.694157
-0.665146
-0.613561
-0.542317
-0.467835
-0.39979
-0.340815
-0.290739
-0.24833
-0.209176
-0.708525
-0.679944
-0.631274
-0.562633
-0.489286
-0.421279
-0.361749
-0.310749
-0.267281
-0.227699
-0.719095
-0.691046
-0.645529
-0.580014
-0.508365
-0.440846
-0.381103
-0.329475
-0.285238
-0.245477
-0.726052
-0.69862
-0.656416
-0.594483
-0.525075
-0.4585
-0.398892
-0.346924
-0.302129
-0.261932
-0.729626
-0.702886
-0.664072
-0.606099
-0.539446
-0.474266
-0.415138
-0.36309
-0.317894
-0.277166
-0.730095
-0.704117
-0.668679
-0.614952
-0.551527
-0.488183
-0.429871
-0.377993
-0.332577
-0.291443
-0.727768
-0.702624
-0.670461
-0.62117
-0.561392
-0.500306
-0.443143
-0.391684
-0.346251
-0.304916
-0.722986
-0.698744
-0.669688
-0.624915
-0.569138
-0.510707
-0.455021
-0.404228
-0.358973
-0.317634
-0.716102
-0.692834
-0.666665
-0.626383
-0.57488
-0.519472
-0.465581
-0.415698
-0.370795
-0.329622
-0.707482
-0.685257
-0.661723
-0.625799
-0.578755
-0.526695
-0.474905
-0.426169
-0.381775
-0.340913
-0.697486
-0.676369
-0.655209
-0.623414
-0.580913
-0.53248
-0.483082
-0.435724
-0.391984
-0.351554
-0.686464
-0.666515
-0.647473
-0.619496
-0.581524
-0.536937
-0.490201
-0.44445
-0.401503
-0.361607
-0.674744
-0.656014
-0.638855
-0.614333
-0.580769
-0.540183
-0.496358
-0.452435
-0.41042
-0.371144
-0.662628
-0.645159
-0.629669
-0.608215
-0.578843
-0.542337
-0.501643
-0.459771
-0.418826
-0.380248
-0.650382
-0.634205
-0.620196
-0.601429
-0.575948
-0.543526
-0.50615
-0.466548
-0.426812
-0.389004
-0.638237
-0.623369
-0.610676
-0.594243
-0.572296
-0.543878
-0.509967
-0.472849
-0.434472
-0.397504
-0.626389
-0.612831
-0.601309
-0.586899
-0.568099
-0.543525
-0.513178
-0.478754
-0.441894
-0.405846
-0.614995
-0.602728
-0.592254
-0.579599
-0.563564
-0.542604
-0.515865
-0.484336
-0.449162
-0.414129
-0.604181
-0.593163
-0.583635
-0.572503
-0.558886
-0.541259
-0.518109
-0.489655
-0.456349
-0.422454
-0.594042
-0.584207
-0.575542
-0.565737
-0.554235
-0.539636
-0.519989
-0.494765
-0.463513
-0.430924
-0.584643
-0.575906
-0.568036
-0.559395
-0.549753
-0.53788
-0.521587
-0.499708
-0.470697
-0.439634
-0.576025
-0.568278
-0.561153
-0.553549
-0.545552
-0.536126
-0.522991
-0.504518
-0.477911
-0.448686
-0.568197
-0.561324
-0.554906
-0.548251
-0.541718
-0.534495
-0.524289
-0.509219
-0.485155
-0.458117
-0.561137
-0.555017
-0.549282
-0.543527
-0.538317
-0.53308
-0.525563
-0.51383
-0.492371
-0.468045
-0.554789
-0.549306
-0.544245
-0.539372
-0.535389
-0.531946
-0.526882
-0.518347
-0.499562
-0.478194
-0.549057
-0.544113
-0.539728
-0.535747
-0.532935
-0.531124
-0.52828
-0.522758
-0.506655
-0.488594
-0.543813
-0.539331
-0.535632
-0.53257
-0.530909
-0.530599
-0.529759
-0.527027
-0.513678
-0.497654
-0.538897
-0.534831
-0.531832
-0.52972
-0.52921
-0.530301
-0.531299
-0.530934
-0.521755
-0.500263
-0.534131
-0.530464
-0.52818
-0.52704
-0.527681
-0.530096
-0.532806
-0.534288
-0.530159
-0.505923
-0.52933
-0.526075
-0.524512
-0.524348
-0.526123
-0.529789
-0.534082
-0.536997
-0.537308
-0.512739
-0.524314
-0.521513
-0.520665
-0.521452
-0.524312
-0.52914
-0.534844
-0.538944
-0.542566
-0.518472
-0.518925
-0.516635
-0.516479
-0.51816
-0.522017
-0.527886
-0.534781
-0.539928
-0.545802
-0.522819
-0.513035
-0.511322
-0.511819
-0.514301
-0.519025
-0.525779
-0.533613
-0.5397
-0.546947
-0.525972
-0.506557
-0.505483
-0.506574
-0.509739
-0.515164
-0.5226
-0.53112
-0.538014
-0.545959
-0.527836
-0.499448
-0.499061
-0.500671
-0.504377
-0.510314
-0.518211
-0.527169
-0.534681
-0.542882
-0.528115
-0.491711
-0.492039
-0.494081
-0.498173
-0.504423
-0.512552
-0.521711
-0.529597
-0.537875
-0.526525
-0.483395
-0.48444
-0.486818
-0.491144
-0.497511
-0.505649
-0.514765
-0.522822
-0.531076
-0.522905
-0.474586
-0.476324
-0.478942
-0.483351
-0.489652
-0.497589
-0.506424
-0.514557
-0.522579
-0.517323
-0.465409
-0.467783
-0.470546
-0.474904
-0.480974
-0.488525
-0.496913
-0.5049
-0.512173
-0.510152
-0.456006
-0.458937
-0.461755
-0.465941
-0.47164
-0.478651
-0.486404
-0.494024
-0.500687
-0.50098
-0.446534
-0.44992
-0.452709
-0.456624
-0.461839
-0.46819
-0.475219
-0.482226
-0.488294
-0.489967
-0.437147
-0.440871
-0.443557
-0.44712
-0.451762
-0.45736
-0.463554
-0.469782
-0.475191
-0.477573
-0.427991
-0.431927
-0.434444
-0.437592
-0.441598
-0.446375
-0.451649
-0.45697
-0.461623
-0.464202
-0.419192
-0.42321
-0.425505
-0.428192
-0.431516
-0.435434
-0.439733
-0.44406
-0.447857
-0.450248
-0.410851
-0.414825
-0.416851
-0.41905
-0.421675
-0.424712
-0.42801
-0.431295
-0.434155
-0.436096
-0.403038
-0.406848
-0.408574
-0.41027
-0.412192
-0.414352
-0.416651
-0.418885
-0.420762
-0.422086
-0.395791
-0.399334
-0.400736
-0.401927
-0.403158
-0.404463
-0.405786
-0.406991
-0.407876
-0.408488
-0.397709
-0.400055
-0.416225
-0.445381
-0.489221
-0.51332
-0.479562
-0.386808
-0.282126
-0.209357
-0.167476
-0.156041
-0.177592
-0.188181
-0.165338
-0.12962
-0.0981017
-0.0830969
-0.0779498
-0.076521
-0.0783891
-0.085305
-0.07888
-0.0723781
-0.0538708
-0.0336901
-0.053534
-0.0607842
-0.0341053
0.00968956
-0.386107
-0.392051
-0.415267
-0.453145
-0.505389
-0.534286
-0.500116
-0.402434
-0.290986
-0.211603
-0.164697
-0.148736
-0.166987
-0.174847
-0.155752
-0.12429
-0.0970449
-0.0839547
-0.080888
-0.0811453
-0.0823915
-0.0881598
-0.079989
-0.0726361
-0.0539032
-0.0336817
-0.0533398
-0.0609299
-0.0341651
0.0103119
-0.375426
-0.384473
-0.413761
-0.458891
-0.518226
-0.551639
-0.517603
-0.415854
-0.298561
-0.213296
-0.161693
-0.141479
-0.156291
-0.16129
-0.145701
-0.118618
-0.0958302
-0.0847464
-0.0839307
-0.085952
-0.0864488
-0.0909315
-0.0810326
-0.0728316
-0.0539531
-0.0337191
-0.0531574
-0.0610649
-0.0342294
0.0108978
-0.365533
-0.37712
-0.411405
-0.462241
-0.527545
-0.56522
-0.531938
-0.427084
-0.304915
-0.214541
-0.15859
-0.13442
-0.145624
-0.147741
-0.135261
-0.112631
-0.0944463
-0.0854552
-0.0870467
-0.0908986
-0.0905352
-0.0936045
-0.0820074
-0.0729636
-0.0540174
-0.0337985
-0.052989
-0.0611893
-0.0342997
0.0114428
-0.356265
-0.370009
-0.407817
-0.463105
-0.53322
-0.575011
-0.543099
-0.436171
-0.310126
-0.215433
-0.155502
-0.127685
-0.135118
-0.134432
-0.124524
-0.106367
-0.0928832
-0.086063
-0.0902007
-0.0959376
-0.0946232
-0.0961652
-0.0829104
-0.0730312
-0.0540926
-0.0339148
-0.0528366
-0.0613029
-0.0343772
0.0119426
-0.347449
-0.36282
-0.403121
-0.46153
-0.535313
-0.58102
-0.551124
-0.443187
-0.314277
-0.216054
-0.152533
-0.121371
-0.12491
-0.121582
-0.113601
-0.0998723
-0.0911337
-0.0865508
-0.0933545
-0.101017
-0.0986844
-0.0986009
-0.0837386
-0.0730336
-0.0541743
-0.0340623
-0.0527016
-0.0614053
-0.0344624
0.0123934
-0.338968
-0.355503
-0.397339
-0.457667
-0.534066
-0.583456
-0.55611
-0.448224
-0.317459
-0.216477
-0.149777
-0.115547
-0.115139
-0.109388
-0.102625
-0.0932048
-0.0891937
-0.0868982
-0.0964685
-0.106081
-0.102689
-0.100901
-0.084489
-0.07297
-0.0542578
-0.0342345
-0.0525848
-0.0614954
-0.0345556
0.0127915
-0.330833
-0.348079
-0.390581
-0.451781
-0.529841
-0.582582
-0.558203
-0.451386
-0.319762
-0.216764
-0.147308
-0.11026
-0.105941
-0.0980114
-0.0917584
-0.0864332
-0.0870627
-0.0870843
-0.0995027
-0.111076
-0.106605
-0.103055
-0.085159
-0.0728399
-0.0543377
-0.0344244
-0.0524863
-0.0615718
-0.0346563
0.0131334
-0.323053
-0.340594
-0.383044
-0.444222
-0.523075
-0.578727
-0.557591
-0.452784
-0.321274
-0.216963
-0.145187
-0.105536
-0.0974345
-0.0875755
-0.0811589
-0.0796355
-0.0847448
-0.0870873
-0.102418
-0.115944
-0.110401
-0.105056
-0.0857463
-0.0726429
-0.0544085
-0.034625
-0.0524058
-0.0616328
-0.0347636
0.0134161
-0.315701
-0.333142
-0.374979
-0.435377
-0.514235
-0.57226
-0.554512
-0.452534
-0.322075
-0.217115
-0.143454
-0.101384
-0.089715
-0.07817
-0.0710174
-0.0728947
-0.0822479
-0.0868856
-0.105178
-0.120635
-0.114048
-0.106897
-0.0862487
-0.0723787
-0.0544646
-0.0348288
-0.0523426
-0.0616758
-0.0348761
0.0136365
-0.308918
-0.325852
-0.366651
-0.425634
-0.503785
-0.563579
-0.549226
-0.450754
-0.322236
-0.217248
-0.142132
-0.0978024
-0.0828428
-0.0698496
-0.0641239
-0.0663022
-0.0795855
-0.0864583
-0.107747
-0.125098
-0.117516
-0.108574
-0.0866647
-0.0720473
-0.0545005
-0.0350287
-0.052295
-0.0616982
-0.0349917
0.0137921
-0.302875
-0.318882
-0.358314
-0.415353
-0.492147
-0.55308
-0.541988
-0.447575
-0.321833
-0.217387
-0.141233
-0.094787
-0.0768457
-0.0625754
-0.0554171
-0.0599176
-0.0767761
-0.085785
-0.110097
-0.129291
-0.120772
-0.110084
-0.0869933
-0.0716487
-0.0545113
-0.0352178
-0.0522604
-0.0616966
-0.0351077
0.0138803
-0.297738
-0.312403
-0.350191
-0.404842
-0.479685
-0.541116
-0.533026
-0.443158
-0.320954
-0.217569
-0.140768
-0.0923348
-0.0717209
-0.0563294
-0.0476955
-0.0538375
-0.073842
-0.0848468
-0.1122
-0.133176
-0.123785
-0.111422
-0.0872342
-0.0711839
-0.0544911
-0.0353897
-0.0522363
-0.061667
-0.035221
0.0138986
-0.293627
-0.306573
-0.342457
-0.394346
-0.46668
-0.527976
-0.522554
-0.437664
-0.319684
-0.21782
-0.140719
-0.0904298
-0.0674302
-0.051058
-0.0410447
-0.0481371
-0.0708091
-0.0836264
-0.114034
-0.136725
-0.126515
-0.112589
-0.0873868
-0.0706538
-0.0544318
-0.035537
-0.0522195
-0.0616051
-0.0353278
0.0138449
-0.290586
-0.301513
-0.335229
-0.384041
-0.453312
-0.513886
-0.510764
-0.431215
-0.318024
-0.218068
-0.140976
-0.0890031
-0.0638847
-0.0466566
-0.035442
-0.0428741
-0.0677045
-0.0821082
-0.115579
-0.139913
-0.128934
-0.113586
-0.0874493
-0.0700598
-0.054325
-0.0356518
-0.0522059
-0.0615061
-0.0354237
0.0137171
-0.288573
-0.297271
-0.328562
-0.374032
-0.439646
-0.49905
-0.497865
-0.423879
-0.315874
-0.218161
-0.141386
-0.0879679
-0.0609853
-0.0430015
-0.0308199
-0.0380781
-0.0645543
-0.0802787
-0.116818
-0.142726
-0.131028
-0.114414
-0.0874212
-0.0694028
-0.0541739
-0.0357298
-0.0521891
-0.0613642
-0.0355038
0.0135129
-0.287401
-0.293811
-0.322465
-0.364357
-0.425936
-0.483629
-0.484165
-0.415927
-0.313484
-0.218365
-0.142191
-0.0874891
-0.0587987
-0.0400676
-0.0271341
-0.033748
-0.0613764
-0.0781243
-0.117737
-0.145155
-0.132797
-0.11508
-0.0873152
-0.0686847
-0.054008
-0.0357798
-0.0521702
-0.0611736
-0.0355627
0.0132305
-0.286762
-0.290976
-0.316866
-0.354994
-0.413343
-0.467394
-0.469857
-0.408105
-0.311962
-0.219783
-0.144269
-0.0881242
-0.057604
-0.0379528
-0.0244455
-0.0299569
-0.0581923
-0.0756368
-0.118305
-0.147173
-0.134282
-0.115574
-0.0871593
-0.0679158
-0.053854
-0.0358124
-0.0521688
-0.060936
-0.0355943
0.0128695
-0.286804
-0.288596
-0.311424
-0.345586
-0.399898
-0.449676
-0.454316
-0.400111
-0.31102
-0.222034
-0.147123
-0.0895416
-0.0570433
-0.0362986
-0.0225489
-0.0269827
-0.0551189
-0.072778
-0.118538
-0.148707
-0.135224
-0.115878
-0.0869364
-0.0671129
-0.0536145
-0.0357671
-0.0521757
-0.0606583
-0.0355926
0.0124305
-0.286108
-0.28684
-0.306697
-0.336624
-0.383148
-0.432757
-0.437002
-0.387646
-0.304203
-0.218839
-0.145521
-0.0883012
-0.0548551
-0.0335343
-0.0200948
-0.0239457
-0.0519103
-0.0696842
-0.118231
-0.15012
-0.134268
-0.116075
-0.0864587
-0.0662584
-0.0529778
-0.0354599
-0.0520092
-0.0602147
-0.0355604
0.0118897
-0.276601
-0.284938
-0.30484
-0.33274
-0.376158
-0.418817
-0.419177
-0.368939
-0.288385
-0.207285
-0.137186
-0.0824566
-0.0497158
-0.0286771
-0.0150151
-0.0138043
-0.0442279
-0.0629035
-0.117784
-0.155555
-0.149172
-0.116701
-0.0855259
-0.0651389
-0.0516768
-0.0347997
-0.0512799
-0.0590039
-0.0353703
0.0110104
-0.275678
-0.283595
-0.300912
-0.325124
-0.360354
-0.393408
-0.389402
-0.34158
-0.267909
-0.193643
-0.128588
-0.0773471
-0.0452674
-0.0246379
-0.0117492
-0.0139555
-0.0396493
-0.0576501
-0.116085
-0.15849
-0.14853
-0.115393
-0.0833833
-0.06273
-0.0499441
-0.0350103
-0.0508999
-0.0581796
-0.0353045
0.0100071
-0.272978
-0.279846
-0.293914
-0.314135
-0.341751
-0.365892
-0.358966
-0.315086
-0.248652
-0.180955
-0.120494
-0.0723223
-0.0410539
-0.0208693
-0.00855482
-0.0126545
-0.0361737
-0.0537636
-0.113815
-0.159347
-0.148012
-0.113317
-0.0807766
-0.0600129
-0.0480567
-0.0351893
-0.0504788
-0.0574445
-0.0351144
0.00899958
-0.267566
-0.273135
-0.2837
-0.300092
-0.321153
-0.337884
-0.329039
-0.289277
-0.229769
-0.168441
-0.112486
-0.0673384
-0.0370289
-0.0172858
-0.00510858
-0.00802004
-0.0316635
-0.049159
-0.110398
-0.159262
-0.146797
-0.110457
-0.07769
-0.0569283
-0.0459259
-0.035235
-0.0498861
-0.0564916
-0.0346882
0.00791667
-0.258882
-0.263762
-0.271197
-0.283964
-0.299514
-0.310331
-0.300272
-0.264614
-0.211641
-0.156326
-0.104662
-0.0623865
-0.0331296
-0.0138137
-0.0013771
-0.00289282
-0.0258234
-0.0431387
-0.105438
-0.158043
-0.144362
-0.10668
-0.0740699
-0.053455
-0.0435207
-0.0351221
-0.049093
-0.0552512
-0.0340208
0.00674144
-0.24726
-0.252315
-0.257199
-0.26666
-0.277719
-0.283987
-0.273252
-0.241431
-0.194395
-0.144622
-0.0970327
-0.0574705
-0.0293081
-0.0103773
0.00267325
0.00280799
-0.0187476
-0.0357636
-0.098645
-0.155108
-0.140433
-0.101932
-0.0698912
-0.0495726
-0.0408081
-0.0347976
-0.0480441
-0.0536939
-0.0330894
0.00548671
-0.233718
-0.239356
-0.242295
-0.248906
-0.2564
-0.259285
-0.248238
-0.219845
-0.178108
-0.133378
-0.0896355
-0.0526085
-0.0255288
-0.00690112
0.00705386
0.00916702
-0.0104603
-0.0271552
-0.0897482
-0.150081
-0.134849
-0.0961888
-0.0651401
-0.0452676
-0.0377536
-0.0341904
-0.0466638
-0.0517563
-0.0318221
0.00416827
-0.219019
-0.225326
-0.227017
-0.231232
-0.235929
-0.23635
-0.22525
-0.19986
-0.162806
-0.122617
-0.0824867
-0.0478237
-0.0217691
-0.00332759
0.0117522
0.0162451
-0.000911657
-0.0172914
-0.0786908
-0.142739
-0.127491
-0.0894593
-0.0598196
-0.0405358
-0.0343201
-0.0332174
-0.0448644
-0.0493439
-0.0301276
0.0028005
-0.203719
-0.210615
-0.211611
-0.213957
-0.216475
-0.215129
-0.20418
-0.181411
-0.14848
-0.112356
-0.0755976
-0.0431461
-0.0180232
0.000368762
0.0167359
0.0241036
0.00991589
-0.00615623
-0.0657543
-0.132922
-0.118301
-0.0817915
-0.0539535
-0.0353848
-0.0304678
-0.0317853
-0.0425446
-0.0463471
-0.0279221
0.00139944
-0.188266
-0.195566
-0.196257
-0.197238
-0.198086
-0.195506
-0.184872
-0.164403
-0.135099
-0.102604
-0.0689742
-0.0386071
-0.0143055
0.00417192
0.0219371
0.0330038
0.021879
0.00604239
-0.0515196
-0.120574
-0.107312
-0.0732789
-0.0475877
-0.0298367
-0.0261552
-0.0297946
-0.0395908
-0.0426544
-0.0251344
-1.4852e-05
-0.172955
-0.180454
-0.181093
-0.181141
-0.180757
-0.177349
-0.167157
-0.148726
-0.122619
-0.0933664
-0.0626218
-0.0342339
-0.0106556
0.00802171
0.0272027
0.0425636
0.0344856
0.0187126
-0.0367904
-0.105768
-0.0946593
-0.0640597
-0.0407907
-0.02393
-0.0213421
-0.027145
-0.0358811
-0.0381625
-0.0217111
-0.00141283
-0.157983
-0.165499
-0.166235
-0.165703
-0.164459
-0.160538
-0.150882
-0.134275
-0.110996
-0.0846453
-0.05655
-0.0300456
-0.00713898
0.0118175
0.032307
0.0521429
0.0467511
0.0308071
-0.0224124
-0.0887149
-0.0805923
-0.0543133
-0.0336507
-0.017721
-0.0159924
-0.023738
-0.0312997
-0.0327868
-0.01763
-0.0027509
-0.143504
-0.150885
-0.15179
-0.150951
-0.149157
-0.144969
-0.135913
-0.120954
-0.100182
-0.0764382
-0.0507757
-0.0260561
-0.00383806
0.0154171
0.0369841
0.0606966
0.0573991
0.0411005
-0.00895696
-0.0698617
-0.0655147
-0.0442576
-0.0262713
-0.0112843
-0.0100795
-0.0194818
-0.0257498
-0.0264767
-0.0129201
-0.00397079
-0.129634
-0.136761
-0.137856
-0.136909
-0.134818
-0.130553
-0.122134
-0.108675
-0.0901352
-0.0687388
-0.0453193
-0.0222835
-0.000831059
0.018639
0.0409435
0.067052
0.0654827
0.0488536
0.0033664
-0.0500853
-0.0500325
-0.0341425
-0.018766
-0.00471121
-0.00359769
-0.0143079
-0.0191433
-0.0192317
-0.00767929
-0.00500137
-0.116457
-0.123242
-0.12452
-0.123603
-0.121408
-0.117214
-0.109451
-0.0973607
-0.0808148
-0.0615401
-0.0401982
-0.0187579
0.00182065
0.0212954
0.0438645
0.0702735
0.0707379
0.0541248
0.0143403
-0.0308027
-0.0349041
-0.0242267
-0.0112529
0.00189484
0.00342543
-0.008197
-0.011525
-0.0111219
-0.00208484
-0.00576294
-0.104032
-0.110417
-0.111855
-0.111058
-0.1089
-0.104887
-0.0977826
-0.0869439
-0.0721856
-0.0548352
-0.0354231
-0.0155188
0.00407413
0.0232467
0.0454578
0.0703104
0.0732368
0.0572929
0.023515
-0.0135172
-0.0208649
-0.014742
-0.00385274
0.00842266
0.0109135
-0.00118837
-0.00300687
-0.00231497
0.00360845
-0.00617447
-0.0924009
-0.0983495
-0.0999168
-0.0992909
-0.0972684
-0.093515
-0.0870607
-0.0773665
-0.0642158
-0.0486179
-0.031
-0.0126005
0.00590307
0.0244289
0.045607
0.0678769
0.0730764
0.0586075
0.0304991
0.000853101
-0.008416
-0.00586645
0.00330758
0.0147532
0.0187154
0.00658419
0.00615172
0.00691957
0.00908538
-0.00616415
-0.0815869
-0.0870823
-0.0887451
-0.0883153
-0.0864909
-0.083048
-0.0772266
-0.0685787
-0.0568768
-0.0428813
-0.0269324
-0.0100193
0.0073041
0.0248633
0.0444677
0.0639097
0.0705968
0.0583233
0.0353239
0.0121248
0.00221885
0.00227538
0.0100928
0.0207502
0.0265897
0.014853
0.0155202
0.0162061
0.0140192
-0.00568213
-0.0715994
-0.0766403
-0.0783664
-0.0781389
-0.0765485
-0.0734442
-0.0682309
-0.0605383
-0.0501439
-0.0376164
-0.0232208
-0.00777194
0.0082996
0.0246545
0.0423947
0.0591896
0.0664863
0.0568489
0.0383871
0.0206176
0.0110255
0.00959846
0.016369
0.0262557
0.0341834
0.0232237
0.024529
0.0250331
0.0181678
-0.00471109
-0.0624383
-0.0670352
-0.0687964
-0.0687649
-0.067424
-0.0646682
-0.0600318
-0.0532093
-0.0439952
-0.032812
-0.0198618
-0.00583836
0.00893519
0.0239553
0.0397716
0.0542476
0.0615219
0.0546056
0.0401165
0.0268301
0.018136
0.0160545
0.0220266
0.031137
0.0409997
0.0315936
0.0325604
0.0328071
0.0214506
-0.00326867
-0.0540964
-0.05827
-0.0600429
-0.060193
-0.0591022
-0.0566904
-0.0525945
-0.0465617
-0.0384113
-0.0284549
-0.0168463
-0.00418797
0.00927458
0.0229229
0.0369158
0.0494219
0.0563381
0.0519307
0.0408455
0.0302345
0.0237285
0.0216258
0.0269889
0.0353385
0.046491
0.0386408
0.0390178
0.0389471
0.0239641
-0.00140543
-0.0465623
-0.0503423
-0.0521076
-0.0524202
-0.0515697
-0.0494871
-0.0458907
-0.0405705
-0.0333751
-0.0245317
-0.01416
-0.00278652
0.0093905
0.0217013
0.0340512
0.0449166
0.0513608
0.0490876
0.0409547
0.0330783
0.0280964
0.0263288
0.0311986
0.0388496
0.0503374
0.0441753
0.0435066
0.0430332
0.0259152
0.000776863
-0.0398247
-0.0432421
-0.0449869
-0.0454419
-0.0448154
-0.0430398
-0.0398986
-0.0352161
-0.0288719
-0.0210295
-0.0117861
-0.00159967
0.00935537
0.0204126
0.0313265
0.0408504
0.0468357
0.0462678
0.0406518
0.0350628
0.0314497
0.0302094
0.0346347
0.0416559
0.0524503
0.0480539
0.0460641
0.0450345
0.0274649
0.00308573
-0.0338725
-0.036964
-0.038679
-0.0392558
-0.038832
-0.0373358
-0.0346024
-0.0304843
-0.0248907
-0.0179373
-0.0097081
-0.000596319
0.0092329
0.0191532
0.0288413
0.0372844
0.0428784
0.0436081
0.0400865
0.0363586
0.0339671
0.0333353
0.0373274
0.0437662
0.0530949
0.0504038
0.0471979
0.0453627
0.02861
0.00524536
-0.0286984
-0.0315049
-0.0331841