/*--------------------------------*- C++ -*----------------------------------*\
  =========                 |
  \\      /  F ield         | OpenFOAM: The Open Source CFD Toolbox
   \\    /   O peration     | Website:  https://openfoam.org
    \\  /    A nd           | Version:  7
     \\/     M anipulation  |
\*---------------------------------------------------------------------------*/
FoamFile
{
    version     2.0;
    format      ascii;
    class       surfaceScalarField;
    location    "180";
    object      phi;
}
// * * * * * * * * * * * * * * * * * * * * * * * * * * * * * * * * * * * * * //

dimensions      [0 3 -1 0 0 0 0];

internalField   nonuniform List<scalar> 
16735
(
-0.000141469
-0.00037917
0.000520639
-0.000477879
-0.000119884
0.000456294
-0.000970122
0.000869108
-0.000376865
-0.00159222
0.00232258
-0.00170048
-0.00232235
0.00405224
-0.00332211
-0.00313648
0.00600256
-0.00518843
-0.0040082
0.00824076
-0.00736904
-0.00491474
0.0108979
-0.00999137
-0.00584041
0.0141073
-0.0131817
0.0180037
-0.0170714
-0.00677269
-0.000125836
-0.000253334
-0.000423053
0.000177333
-0.000855103
0.00130116
-0.00139819
0.00286566
-0.00203114
0.0046852
-0.00272746
0.00669887
-0.00345371
0.00896702
-0.00417516
0.0116194
-0.00486009
0.0147923
0.0186084
-0.00546482
-0.000107967
-0.000145367
-0.000360814
0.00043018
-0.000724455
0.0016648
-0.00117665
0.00331786
-0.00169628
0.00520482
-0.00225371
0.00725631
-0.00280759
0.0095209
-0.00330927
0.012121
-0.00371
0.015193
0.0188311
-0.00393272
-8.92002e-05
-5.6167e-05
-0.000295302
0.000636282
-0.000586034
0.00195553
-0.000939805
0.00367163
-0.00133483
0.00559985
-0.00173813
0.0076596
-0.0021003
0.00988307
-0.00235795
0.0123787
-0.00244568
0.0152807
0.018644
-0.0022585
-7.087e-05
1.4703e-05
-0.000230707
0.00079612
-0.000447958
0.00217278
-0.00070049
0.00392416
-0.000965107
0.00586447
-0.00120542
0.00789991
-0.00136463
0.0100423
-0.00136471
0.0123788
-0.00112008
0.0150361
0.0180656
-0.0005417
-5.42113e-05
6.89143e-05
-0.00017103
0.000912938
-0.000318165
0.00231992
-0.000471562
0.00407756
-0.000605764
0.00599867
-0.000681041
0.00797519
-0.000634185
0.00999542
-0.000376093
0.0121207
0.000211762
0.0144483
0.0170557
0.00122162
-4.03161e-05
0.00010923
-0.000119846
0.000992468
-0.000203938
0.00240401
-0.000265127
0.00413875
-0.00027477
0.00600832
-0.000189869
0.00789029
5.75308e-05
0.00974802
0.000566048
0.0116122
0.00145629
0.013558
0.015613
0.00289898
-3.00605e-05
0.000139291
-8.00879e-05
0.0010425
-0.000111406
0.00243533
-9.16245e-05
0.00411897
1.16406e-05
0.00590505
0.000244542
0.00765739
0.000678809
0.00931376
0.00141988
0.0108711
0.00259976
0.0123781
0.0137819
0.00443092
-2.40536e-05
0.000163344
-5.38346e-05
0.00107228
-4.51546e-05
0.00242665
4.04e-05
0.00403341
0.00024033
0.00570512
0.000603945
0.00729378
0.00120485
0.00871285
0.00215233
0.00992361
0.00358607
0.0109444
0.0115949
0.00577305
-2.25921e-05
0.000185937
-4.21213e-05
0.00109181
-7.25335e-06
0.00239178
0.000126532
0.00389963
0.000403396
0.00542826
0.000875688
0.00682148
0.00161815
0.00797039
0.00274111
0.00880065
0.00438736
0.00929814
0.00908093
0.00690134
-2.56231e-05
0.00021156
-4.48913e-05
0.00111107
1.25246e-06
0.00234564
0.000166036
0.00373484
0.000498946
0.00509535
0.00105651
0.00626392
0.00191465
0.00711225
0.00318325
0.00753205
0.00500536
0.00747603
0.00625639
0.00782989
-3.2691e-05
0.000244251
-6.05115e-05
0.00113889
-1.54236e-05
0.00230055
0.000163461
0.00355596
0.000533233
0.00472557
0.0011554
0.00564176
0.00210868
0.00615896
0.00350368
0.00613705
0.00548723
0.00549249
0.00311486
0.00862876
-4.29208e-05
0.000287171
-8.60755e-05
0.00118205
-5.20666e-05
0.00226654
0.000128802
0.00337509
0.000521774
0.0043326
0.00119602
0.00496751
0.00223744
0.00511754
0.00376229
0.0046122
0.0059379
0.00331687
-0.000381433
0.00943419
-5.50078e-05
0.000342179
-0.000117215
0.00124426
-9.93778e-05
0.0022487
7.77569e-05
0.00319795
0.000489657
0.0039207
0.0012175
0.00423966
0.00236203
0.00397301
0.00405418
0.00292005
0.00651507
0.000855985
-0.00429916
0.0104328
-6.72854e-05
0.000409465
-0.000148405
0.00132537
-0.000145735
0.00224603
3.08952e-05
0.00302132
0.000470261
0.00348134
0.00127205
0.00343788
0.00256242
0.00268264
0.00449818
0.000984294
0.00739704
-0.00204288
-0.00870685
0.0118047
-7.78721e-05
0.000487337
-0.000173434
0.00142094
-0.000178008
0.00225061
1.17091e-05
0.00283161
0.000501924
0.00299112
0.00141874
0.00252106
0.002925
0.00117639
0.00521358
-0.00130429
0.00872324
-0.00555253
-0.0136281
0.0136445
-8.4893e-05
0.00057223
-0.000186098
0.00152214
-0.000183029
0.00224754
4.33131e-05
0.00260526
0.000622714
0.00241172
0.00171416
0.00142961
0.00352547
-0.000634929
0.00629208
-0.00407089
0.0105407
-0.00980112
-0.0189909
0.0159034
-8.67482e-05
0.000658978
-0.000181027
0.00161642
-0.000149272
0.00221578
0.000146464
0.00230953
0.000864448
0.00169374
0.00220204
9.20201e-05
0.00441261
-0.0028455
0.00777492
-0.0074332
0.0127813
-0.0148075
-0.0246158
0.0184063
-8.23709e-05
0.000741349
-0.000154481
0.00168853
-6.85714e-05
0.00212987
0.000335116
0.00190584
0.00124716
0.000781698
0.00290488
-0.00156571
0.00559764
-0.00553826
0.00963812
-0.0114737
0.0152862
-0.0204557
-0.0302698
0.0209402
-7.13896e-05
0.000812738
-0.00010486
0.001722
6.24745e-05
0.00196254
0.000614817
0.0013535
0.00177613
-0.000379617
0.00381989
-0.00360947
0.00704929
-0.00876765
0.0117748
-0.0161992
0.0178735
-0.0265544
-0.0357748
0.0233785
-5.41486e-05
0.000866887
-3.24812e-05
0.00170033
0.000243023
0.00168704
0.000983028
0.000613491
0.00244282
-0.00183941
0.00492128
-0.00608793
0.00870217
-0.0125485
0.0139928
-0.0214898
0.0202629
-0.0328245
-0.0437667
0.0282548
-3.16553e-05
0.000898542
5.94769e-05
0.0016092
0.000468645
0.00127787
0.00143094
-0.000348808
0.00322844
-0.0036369
0.00616686
-0.00902636
0.0104705
-0.0168522
0.0161426
-0.0271619
0.0225353
-0.0392172
-0.0510684
0.029837
-4.63512e-06
0.000903177
0.00016861
0.00143596
0.000732861
0.000713616
0.00194621
-0.00156216
0.00410833
-0.00579902
0.00750469
-0.0124227
0.0122515
-0.0215991
0.0181097
-0.0330201
0.0243801
-0.0454875
-0.0574857
0.0307974
2.53564e-05
0.000877821
0.00029151
0.0011698
0.00102885
-2.37215e-05
0.00251545
-0.00304876
0.00505502
-0.00833859
0.00887759
-0.0162453
0.0139431
-0.0266646
0.0197931
-0.0388701
0.0256889
-0.0513834
-0.0630794
0.0312826
5.75143e-05
0.000820307
0.000425385
0.000801933
0.0013506
-0.000948933
0.00312573
-0.00482389
0.00603924
-0.0112521
0.010225
-0.0204311
0.0154555
-0.031895
0.0211084
-0.044523
0.0264886
-0.0567636
-0.0678777
0.0312869
9.16184e-05
0.000728688
0.000568544
0.000325007
0.00169337
-0.00207376
0.00376452
-0.00689504
0.00702946
-0.014517
0.0114858
-0.0248875
0.0167178
-0.037127
0.0220217
-0.0498269
0.0268095
-0.0615514
-0.0719406
0.0308724
0.00012763
0.000601058
0.000720184
-0.000267547
0.00205331
-0.00340688
0.00441864
-0.00926037
0.00799129
-0.0180897
0.0126032
-0.0294994
0.0176839
-0.0422076
0.0225343
-0.0546773
0.0267124
-0.0657294
-0.0753564
0.0301281
0.000165831
0.000435227
0.000879976
-0.000981691
0.00242643
-0.00495334
0.00507275
-0.0119067
0.00888828
-0.0219052
0.0135306
-0.0341417
0.0183344
-0.0470114
0.0226748
-0.0590177
0.0262664
-0.0693211
-0.0782145
0.0291245
0.000206582
0.000228645
0.00104748
-0.00182259
0.0028076
-0.00671346
0.00570851
-0.0148076
0.00968472
-0.0258814
0.0142365
-0.0386936
0.0186729
-0.0514477
0.0224872
-0.062832
0.0255395
-0.0723734
-0.0806033
0.0279282
0.000250128
-2.14829e-05
0.00122163
-0.00279409
0.0031897
-0.00868154
0.00630495
-0.0179228
0.0103496
-0.029926
0.0147062
-0.0430502
0.0187204
-0.0554619
0.022022
-0.0661336
0.0245938
-0.0749452
-0.0826003
0.0265907
0.000296447
-0.00031793
0.00140035
-0.003898
0.00356342
-0.0108446
0.00684028
-0.0211997
0.0108599
-0.0339457
0.0149402
-0.0471304
0.0185086
-0.0590303
0.0213298
-0.0689548
0.0234822
-0.0770976
-0.0842711
0.025153
0.000345218
-0.000663148
0.00158051
-0.00513329
0.00391766
-0.0131818
0.00729427
-0.0245763
0.0112031
-0.0378545
0.0149512
-0.0508786
0.018074
-0.0621532
0.0204576
-0.0713383
0.0222483
-0.0788883
-0.0856686
0.0236458
0.000395775
-0.00105892
0.00175799
-0.00649551
0.00424051
-0.0156643
0.00765067
-0.0279865
0.0113763
-0.0415801
0.0147601
-0.0542624
0.0174542
-0.0648472
0.0194464
-0.0733305
0.0209268
-0.0803687
-0.0868338
0.022092
0.000447182
-0.0015061
0.00192797
-0.0079763
0.00452037
-0.0182567
0.00789869
-0.0313648
0.0113854
-0.0450668
0.0143921
-0.0572691
0.0166845
-0.0671397
0.0183309
-0.0749768
0.0195443
-0.0815822
-0.0877977
0.0205082
0.000498298
-0.0020044
0.0020853
-0.0095633
0.00474719
-0.0209185
0.00803356
-0.0346512
0.0112422
-0.0482755
0.0138737
-0.0599005
0.015797
-0.0690629
0.0171394
-0.0763193
0.0181212
-0.082564
-0.0885829
0.0189063
0.000547851
-0.00255225
0.00222488
-0.0112403
0.00491329
-0.023607
0.00805603
-0.0377939
0.0109627
-0.0511822
0.0132312
-0.062169
0.0148192
-0.070651
0.0158947
-0.0773948
0.0166728
-0.0833421
-0.0892052
0.0172952
0.000594515
-0.00314677
0.00234202
-0.0129878
0.00501391
-0.0262789
0.00797136
-0.0407513
0.0105645
-0.0537753
0.0124887
-0.0640932
0.0137746
-0.0719369
0.0146146
-0.0782348
0.0152104
-0.083938
-0.0896758
0.0156811
0.000636974
-0.00378374
0.00243279
-0.0147837
0.00504726
-0.0288933
0.00778799
-0.0434921
0.0100658
-0.0560531
0.011668
-0.0656954
0.0126824
-0.0729513
0.0133128
-0.0788652
0.0137424
-0.0843677
-0.0900023
0.0140689
0.000673989
-0.00445773
0.00249422
-0.0166039
0.0050143
-0.0314134
0.0075164
-0.0459942
0.00948425
-0.0580209
0.010788
-0.0669991
0.0115583
-0.0737215
0.0119999
-0.0793068
0.0122752
-0.0846429
-0.0901896
0.0124625
0.000704454
-0.00516219
0.00252446
-0.0184239
0.00491821
-0.0338071
0.00716802
-0.048244
0.00883618
-0.0596891
0.00986497
-0.0680279
0.0104147
-0.0742713
0.010684
-0.0795761
0.0108133
-0.0847723
-0.0902413
0.010865
0.00072744
-0.00588963
0.00252278
-0.0202192
0.00476384
-0.0360482
0.00675452
-0.0502347
0.00813631
-0.0610709
0.00891234
-0.068804
0.00926172
-0.0746207
0.00937128
-0.0796856
0.00936063
-0.0847616
-0.0901596
0.00927898
0.000742224
-0.00663185
0.0024895
-0.0219665
0.00455712
-0.0381158
0.0062872
-0.0519647
0.00739762
-0.0621813
0.0079413
-0.0693476
0.00810699
-0.0747863
0.00806649
-0.0796451
0.00791995
-0.0846151
-0.0899456
0.00770589
0.000748311
-0.00738016
0.00242585
-0.0236441
0.00430455
-0.0399945
0.00577665
-0.0534368
0.00663134
-0.063036
0.00696095
-0.0696773
0.0069566
-0.074782
0.00677322
-0.0794618
0.00649358
-0.0843355
-0.0895991
0.00614707
0.000745435
-0.0081256
0.00233381
-0.0252324
0.0040128
-0.0416735
0.00523253
-0.0546566
0.00584704
-0.0636505
0.00597872
-0.0698089
0.00581529
-0.0746186
0.00549418
-0.0791407
0.00508338
-0.0839247
-0.0891192
0.00460357
0.00073355
-0.00885915
0.00221583
-0.0267147
0.00368844
-0.0431461
0.00466347
-0.0556316
0.0050528
-0.0640398
0.00500062
-0.0697568
0.004687
-0.0743049
0.00423171
-0.0786854
0.00369026
-0.0833832
-0.088506
0.00307699
0.000712818
-0.00957196
0.00207472
-0.0280766
0.00333767
-0.0444091
0.00407706
-0.056371
0.00425536
-0.0642182
0.00403157
-0.069533
0.00357527
-0.0738486
0.00298901
-0.0780991
0.00231323
-0.0827074
-0.0877598
0.00156702
0.000683611
-0.0102556
0.00191357
-0.0293066
0.0029663
-0.0454618
0.00347986
-0.0568845
0.00346025
-0.0641985
0.00307537
-0.0691481
0.00248281
-0.0732561
0.00177002
-0.0773863
0.000959174
-0.0818966
-0.0868094
8.79021e-06
0.000646485
-0.0109021
0.00173567
-0.0303958
0.00257963
-0.0463058
0.00287752
-0.0571824
0.00267201
-0.063993
0.002135
-0.0686111
0.00141097
-0.072532
0.000571102
-0.0765465
-0.00035212
-0.0809734
-0.0857809
-0.00138061
0.000602127
-0.0115042
0.00154401
-0.0313376
0.00218245
-0.0469442
0.00227487
-0.0572749
0.00189433
-0.0636125
0.00121288
-0.0679296
0.000359402
-0.0716786
-0.000600933
-0.0755861
-0.00166164
-0.0799127
-0.0846418
-0.00280072
0.00055133
-0.0120555
0.00134148
-0.0321278
0.00177901
-0.0473817
0.00167593
-0.0571718
0.00113013
-0.0630667
0.000310206
-0.0671097
-0.00066361
-0.0707047
-0.00174443
-0.0745053
-0.00293152
-0.0787256
-0.0833732
-0.00420014
0.000494976
-0.0125505
0.00113088
-0.0327637
0.00137307
-0.0476239
0.00108393
-0.0568826
0.000382108
-0.0623649
-0.000568123
-0.0661595
-0.00166148
-0.0696114
-0.00286331
-0.0733035
-0.0041722
-0.0774167
-0.0819753
-0.00557008
0.00043398
-0.0129845
0.000914921
-0.0332446
0.000967931
-0.0476769
0.00050206
-0.0564168
-0.000347652
-0.0615152
-0.00142342
-0.0650837
-0.00263455
-0.0684002
-0.00395401
-0.071984
-0.00538388
-0.0759868
-0.0804505
-0.0069087
0.000369205
-0.0133537
0.000696184
-0.0335716
0.00056675
-0.0475475
-6.32399e-05
-0.0557868
-0.00105726
-0.0605211
-0.00225558
-0.0638854
-0.00358109
-0.0670747
-0.00501552
-0.0705496
-0.00656504
-0.0744373
-0.0788014
-0.00821408
0.000301622
-0.0136553
0.000476664
-0.0337467
0.00017707
-0.0472479
-0.000623562
-0.0549861
-0.00174809
-0.0593966
-0.00306328
-0.0625702
-0.00450021
-0.0656378
-0.00604717
-0.0690026
-0.00771438
-0.0727701
-0.077032
-0.00948384
0.00023291
-0.0138882
0.000258325
-0.0337721
-0.000216209
-0.0467734
-0.00116465
-0.0540377
-0.00241764
-0.0581436
-0.00384581
-0.061142
-0.00539126
-0.0640924
-0.00704837
-0.0673455
-0.00883061
-0.0709878
-0.0751483
-0.0107143
0.000163133
-0.0140513
5.46622e-05
-0.0336636
-0.000603332
-0.0461154
-0.00169161
-0.0529494
-0.00306531
-0.0567699
-0.00460257
-0.0596048
-0.00625373
-0.0624412
-0.00801844
-0.0655808
-0.00991252
-0.0690937
-0.073155
-0.0119058
8.90138e-05
-0.0141404
-0.000175625
-0.033399
-0.00097668
-0.0453143
-0.00220123
-0.0517249
-0.0036905
-0.0552806
-0.00533308
-0.0579622
-0.00708727
-0.060687
-0.00895691
-0.0637112
-0.0109602
-0.0670905
-0.0710485
-0.0130667
7.6331e-06
-0.014148
-0.000398594
-0.0329927
-0.00133947
-0.0443734
-0.00269229
-0.050372
-0.00429243
-0.0536805
-0.00603707
-0.0562175
-0.00789233
-0.0588317
-0.00986491
-0.0617386
-0.0119729
-0.0649825
-0.0688268
-0.0141946
-6.24286e-05
-0.0140856
-0.000610114
-0.032445
-0.00168998
-0.0432936
-0.00316437
-0.0488977
-0.00487042
-0.0519745
-0.00671407
-0.0543739
-0.00866954
-0.0568763
-0.0107458
-0.0596624
-0.0129459
-0.0627823
-0.0665049
-0.0152678
-0.000135001
-0.0139506
-0.000813849
-0.0317662
-0.00202712
-0.0420803
-0.00361691
-0.0473079
-0.00542388
-0.0501675
-0.00736318
-0.0524346
-0.00941699
-0.0548225
-0.0115976
-0.0574818
-0.0139153
-0.0604646
-0.0642254
-0.0161948
-0.000206923
-0.0137436
-0.00101049
-0.0309626
-0.00235027
-0.0407405
-0.0040494
-0.0456087
-0.00595243
-0.0482645
-0.00798352
-0.0504035
-0.0101301
-0.0526759
-0.0123923
-0.0552196
-0.0147323
-0.0581246
-0.0614521
-0.0175056
-0.000277157
-0.0134665
-0.00119979
-0.03004
-0.002659
-0.0392813
-0.00446149
-0.0438062
-0.00645594
-0.04627
-0.00857454
-0.0482849
-0.0108058
-0.0504446
-0.0131454
-0.05288
-0.0156108
-0.0556592
-0.058692
-0.0183708
-0.000345259
-0.0131212
-0.00138129
-0.029004
-0.00295297
-0.0377096
-0.0048529
-0.0419063
-0.00693414
-0.0441888
-0.00913612
-0.0460829
-0.0114502
-0.0481305
-0.0138809
-0.0504494
-0.0164619
-0.0530782
-0.0559055
-0.0192484
-0.000410921
-0.0127103
-0.00155453
-0.0278604
-0.00323187
-0.0360323
-0.0052234
-0.0399148
-0.00738666
-0.0420255
-0.00966754
-0.0438021
-0.0120605
-0.0457374
-0.0145755
-0.0479344
-0.0172428
-0.0504109
-0.0530673
-0.0200811
-0.000473878
-0.0122364
-0.00171911
-0.0266151
-0.00349544
-0.034256
-0.00557282
-0.0378374
-0.00781341
-0.0397849
-0.0101691
-0.0414464
-0.0126378
-0.0432687
-0.0152324
-0.0453398
-0.0179771
-0.0476662
-0.0501662
-0.0208782
-0.000533898
-0.0117025
-0.00187468
-0.0252743
-0.00374344
-0.0323872
-0.00590105
-0.0356798
-0.00821426
-0.0374717
-0.0106406
-0.03902
-0.0131809
-0.0407284
-0.0158492
-0.0426714
-0.0186657
-0.0448497
-0.0471979
-0.021634
-0.00059077
-0.0111118
-0.00202097
-0.0238441
-0.00397569
-0.0304325
-0.00620799
-0.0334475
-0.00858917
-0.0350905
-0.0110819
-0.0365273
-0.0136895
-0.0381208
-0.0164266
-0.0399343
-0.0193109
-0.0419655
-0.0441621
-0.0223467
-0.000644306
-0.0104674
-0.00215773
-0.0223307
-0.00419205
-0.0283982
-0.00649357
-0.031146
-0.00893806
-0.032646
-0.0114929
-0.0339725
-0.0141634
-0.0354503
-0.0169646
-0.0371331
-0.019913
-0.0390171
-0.0410607
-0.0230144
-0.000694344
-0.0097731
-0.00228476
-0.0207403
-0.0043924
-0.0262905
-0.00675775
-0.0287806
-0.00926089
-0.0301429
-0.0118734
-0.03136
-0.0146024
-0.0327213
-0.0174631
-0.0342724
-0.0204718
-0.0360084
-0.0378968
-0.0236357
-0.00074074
-0.00903236
-0.00240191
-0.0190791
-0.00457665
-0.0241158
-0.0070005
-0.0263568
-0.00955761
-0.0275858
-0.0122233
-0.0286943
-0.0150063
-0.0299383
-0.0179221
-0.0313566
-0.0209868
-0.0329436
-0.0346743
-0.0242093
-0.000783371
-0.00824899
-0.00250902
-0.0173535
-0.00474473
-0.0218801
-0.00722179
-0.0238797
-0.00982818
-0.0249794
-0.0125426
-0.0259798
-0.015375
-0.027106
-0.0183413
-0.0283904
-0.0214576
-0.0298272
-0.0313977
-0.0247342
-0.000822129
-0.00742686
-0.00260599
-0.0155696
-0.00489658
-0.0195895
-0.00742161
-0.0213547
-0.0100726
-0.0223284
-0.0128312
-0.0232212
-0.0157084
-0.0242288
-0.0187204
-0.0253783
-0.0218837
-0.0266639
-0.0280718
-0.0252096
-0.000856924
-0.00656994
-0.00269273
-0.0137338
-0.00503217
-0.01725
-0.00759995
-0.0187869
-0.0102908
-0.0196376
-0.0130889
-0.0204231
-0.0160062
-0.0213114
-0.0190594
-0.0223252
-0.0222647
-0.0234585
-0.0247018
-0.0256348
-0.000887677
-0.00568226
-0.00276915
-0.0118523
-0.00515147
-0.0148677
-0.0077568
-0.0161816
-0.0104827
-0.0169117
-0.0133157
-0.0175901
-0.0162684
-0.0183587
-0.0193578
-0.0192358
-0.0226003
-0.020216
-0.0212928
-0.0260093
-0.000914324
-0.00476794
-0.0028352
-0.00993148
-0.00525445
-0.0124485
-0.00789216
-0.0135439
-0.0106484
-0.0141555
-0.0135115
-0.014727
-0.0164949
-0.0153753
-0.0196156
-0.0161151
-0.0228902
-0.0169415
-0.0178502
-0.0263328
-0.000936811
-0.00383113
-0.00289082
-0.00797747
-0.00534109
-0.00999818
-0.00800603
-0.0108789
-0.0107878
-0.0113738
-0.0136764
-0.0118384
-0.0166856
-0.0123661
-0.0198327
-0.012968
-0.0231342
-0.01364
-0.0143795
-0.0266049
-0.000955093
-0.00287603
-0.00293597
-0.00599659
-0.00541139
-0.00752276
-0.00809842
-0.00819192
-0.0109009
-0.00857125
-0.0138101
-0.00892921
-0.0168403
-0.00933589
-0.0200088
-0.00979949
-0.0233322
-0.0103166
-0.0108859
-0.0268257
-0.000969136
-0.0019069
-0.00297063
-0.0039951
-0.00546534
-0.00502805
-0.00816932
-0.00548793
-0.0109878
-0.00575281
-0.0139128
-0.00600413
-0.0169591
-0.0062896
-0.0201441
-0.00661455
-0.0234841
-0.00697659
-0.00737502
-0.026995
-0.000978915
-0.000927983
-0.00299477
-0.00197924
-0.00550293
-0.00251989
-0.00821875
-0.00277212
-0.0110483
-0.00292324
-0.0139845
-0.00306798
-0.017042
-0.0032321
-0.0202383
-0.00341821
-0.0235899
-0.00362496
-0.00385204
-0.0271129
-0.000984413
5.64303e-05
-0.00300839
4.47354e-05
-0.00552417
-4.10965e-06
-0.00824671
-4.95788e-05
-0.0110826
-8.7355e-05
-0.014025
-0.000125578
-0.0170888
-0.000168299
-0.0202915
-0.000215489
-0.0236496
-0.000266917
-0.000322323
-0.0271793
-0.000985622
0.00104205
-0.00301147
0.00207058
-0.00552906
0.00251348
-0.0082532
0.00267457
-0.0110906
0.00275001
-0.0140344
0.00281826
-0.0170996
0.0028969
-0.0203037
0.00298857
-0.023663
0.00309242
0.00320801
-0.0271933
-0.000982541
0.00202459
-0.00300401
0.00409205
-0.0055176
0.00502707
-0.00823825
0.00539521
-0.0110723
0.00558405
-0.0140128
0.00575873
-0.0170745
0.00595861
-0.0202749
0.006189
-0.0236305
0.00644799
0.00673471
-0.0271572
-0.000975177
0.00299977
-0.00298604
0.00610292
-0.00548981
0.00753085
-0.00820185
0.00810724
-0.0110277
0.00840995
-0.01396
0.008691
-0.0170133
0.00901192
-0.0202051
0.00938076
-0.0235518
0.00979467
0.010252
-0.0270691
-0.000963547
0.00396332
-0.00295756
0.00809693
-0.0054457
0.010019
-0.00814401
0.0108056
-0.0109569
0.0112229
-0.0138762
0.0116103
-0.0169162
0.0120519
-0.0200943
0.0125588
-0.0234269
0.0131273
0.0137544
-0.0269294
-0.000947674
0.00491099
-0.0029186
0.0100679
-0.00538528
0.0124857
-0.00806476
0.013485
-0.0108599
0.0140181
-0.0137614
0.0145118
-0.0167833
0.0150738
-0.0199426
0.0157182
-0.023256
0.0164407
0.0172366
-0.0267382
-0.000927592
0.00583858
-0.0028692
0.0120095
-0.00530857
0.014925
-0.00796411
0.0161406
-0.0107367
0.0167907
-0.0136157
0.0173908
-0.0166145
0.0180726
-0.0197502
0.0188539
-0.0230392
0.0197297
0.0206929
-0.0264956
-0.000903343
0.00674193
-0.00280941
0.0139155
-0.00521561
0.0173312
-0.00784207
0.018767
-0.0105874
0.019536
-0.0134391
0.0202424
-0.01641
0.0210435
-0.019517
0.0219608
-0.0227765
0.0229892
0.0241181
-0.0262017
-0.000874979
0.0076169
-0.00273926
0.0157798
-0.00510641
0.0196984
-0.00769868
0.0213593
-0.0104119
0.0222493
-0.0132316
0.0230621
-0.0161699
0.0239817
-0.0192433
0.0250343
-0.0224682
0.0262142
0.0275067
-0.0258568
-0.000842563
0.00845947
-0.00265885
0.0175961
-0.00498103
0.0220206
-0.00753395
0.0239122
-0.0102104
0.0249257
-0.0129934
0.0258451
-0.0158943
0.0268826
-0.0189292
0.0280692
-0.0221146
0.0293995
0.0308533
-0.0254612
-0.000806169
0.00926564
-0.00256823
0.0193582
-0.00483951
0.0242918
-0.00734791
0.0264206
-0.00998284
0.0275606
-0.0127245
0.0285868
-0.0155834
0.0297414
-0.0185751
0.031061
-0.021716
0.0325404
0.034153
-0.0250157
-0.000765885
0.0100315
-0.00246751
0.0210598
-0.00468189
0.0265062
-0.00714061
0.0288793
-0.00972933
0.0301494
-0.0124252
0.0312826
-0.0152373
0.0325536
-0.0181812
0.0340049
-0.021273
0.0356322
0.0374007
-0.0245208
-0.000721812
0.0107533
-0.00235681
0.0226948
-0.00450825
0.0286577
-0.00691207
0.0312832
-0.00944995
0.0326872
-0.0120954
0.0339281
-0.0148563
0.0353144
-0.0177478
0.0368964
-0.020786
0.0386704
0.0405922
-0.0239775
-0.000674069
0.0114274
-0.00223626
0.024257
-0.00431867
0.0307401
-0.00666235
0.0336268
-0.00914475
0.0351696
-0.0117354
0.0365188
-0.0144406
0.0380196
-0.0172752
0.039731
-0.0202557
0.0416509
0.0437235
-0.0233869
-0.000622791
0.0120502
-0.00210601
0.0257402
-0.00411325
0.0327473
-0.00639151
0.0359051
-0.00881381
0.0375919
-0.0113453
0.0390503
-0.0139903
0.0406646
-0.0167634
0.0425042
-0.0196825
0.0445699
0.0467916
-0.0227506
-0.000568132
0.0126183
-0.00196628
0.0271384
-0.00389211
0.0346731
-0.00609963
0.0381126
-0.00845723
0.0399495
-0.0109252
0.0415183
-0.0135056
0.0432449
-0.0162127
0.0452113
-0.0190667
0.0474239
0.049795
-0.0220701
-0.00051027
0.0131286
-0.00181727
0.0284454
-0.00365542
0.0365113
-0.00578678
0.040244
-0.00807509
0.0422378
-0.0104754
0.0439186
-0.0129869
0.0457564
-0.0156228
0.0478472
-0.0184081
0.0502093
0.0527347
-0.0213479
-0.000449403
0.013578
-0.00165926
0.0296552
-0.00340335
0.0382554
-0.00545308
0.0422937
-0.00766748
0.0444522
-0.00999593
0.0462471
-0.0124345
0.0481949
-0.0149931
0.0504058
-0.017704
0.0529202
0.0556168
-0.0205861
-0.000385755
0.0139638
-0.00149258
0.030762
-0.00313615
0.0398989
-0.0050987
0.0442563
-0.00723458
0.0465881
-0.00948714
0.0484996
-0.0118496
0.0505574
-0.0143264
0.0528825
-0.0169537
0.0555475
0.0584544
-0.0197913
-0.000319575
0.0142833
-0.00131759
0.0317601
-0.00285407
0.0414354
-0.0047238
0.046126
-0.00677648
0.0486408
-0.0089486
0.0506717
-0.011231
0.0528398
-0.0136185
0.0552701
-0.0161296
0.0580586
0.061276
-0.0189512
-0.000251142
0.0145345
-0.00113473
0.0326437
-0.00255743
0.0428581
-0.00432864
0.0478972
-0.00629363
0.0506058
-0.00838124
0.0527593
-0.0105822
0.0550408
-0.0128971
0.057585
-0.015284
0.0604455
0.0641236
-0.0181316
-0.000180807
0.0147153
-0.000944471
0.0334073
-0.00224658
0.0441602
-0.00391349
0.0495641
-0.00578631
0.0524786
-0.00778509
0.0547581
-0.00989564
0.0571514
-0.0121318
0.0598212
-0.0145008
0.0628145
0.0664077
-0.016785
-0.000109148
0.0148244
-0.000747203
0.0340454
-0.00192192
0.0453349
-0.00347869
0.0511209
-0.00525469
0.0542546
-0.00716075
0.0566642
-0.00917475
0.0591654
-0.0113066
0.061953
-0.0135556
0.0650636
0.0687617
-0.0159096
-3.79235e-05
0.0148623
-0.000542912
0.0345504
-0.00158397
0.046376
-0.00302476
0.0525617
-0.00469919
0.055929
-0.00650927
0.0584743
-0.00842502
0.0610811
-0.010454
0.063982
-0.0126123
0.0672219
0.0710238
-0.0148744
3.68246e-05
0.0148255
-0.000330267
0.0349174
-0.00123352
0.0472792
-0.00255234
0.0538805
-0.0041205
0.0574972
-0.00583175
0.0601855
-0.00764881
0.0628982
-0.00957668
0.0659099
-0.0116323
0.0692775
0.0731743
-0.0137828
0.000113633
0.0147119
-0.000102689
0.0351338
-0.000872065
0.0480486
-0.00206188
0.0550703
-0.00351926
0.0589546
-0.00512875
0.061795
-0.00684545
0.0646149
-0.00867064
0.0677351
-0.0106197
0.0712265
0.0752156
-0.012661
0.000185426
0.0145265
0.00011134
0.0352079
-0.000501607
0.0486616
-0.00155388
0.0561226
-0.00289627
0.060297
-0.00440063
0.0632994
-0.00601449
0.0662287
-0.00773455
0.0694551
-0.00957445
0.0730664
0.0771513
-0.0115101
0.000254101
0.0142724
0.000318485
0.0351435
-0.000110189
0.0490902
-0.00103016
0.0570426
-0.00225224
0.0615191
-0.0036478
0.0646949
-0.00515629
0.0677372
-0.0067689
0.0710677
-0.00849646
0.074794
0.0789758
-0.0103209
0.000321726
0.0139506
0.000533614
0.0349316
0.000269083
0.0493548
-0.000494845
0.0578065
-0.00158766
0.0626119
-0.00287093
0.0659782
-0.00427149
0.0691378
-0.00577441
0.0725707
-0.00738689
0.0764064
0.0806823
-0.00909337
0.000387664
0.013563
0.000749354
0.0345699
0.000656713
0.0494474
6.06798e-05
0.0584025
-0.000903547
0.0635761
-0.0020708
0.0671455
-0.00336068
0.0704277
-0.00475168
0.0739617
-0.00624704
0.0779018
0.0822668
-0.00783163
0.000450584
0.0131124
0.000963953
0.0340565
0.00105198
0.0493594
0.000617629
0.0588369
-0.000202639
0.0643964
-0.00124819
0.068191
-0.00242464
0.0716041
-0.00370142
0.0752384
-0.00507826
0.0792786
0.0837272
-0.00653862
0.000509614
0.0126028
0.00117513
0.033391
0.00144997
0.0490845
0.00119121
0.0590956
0.000517389
0.0650702
-0.000404908
0.0691133
-0.00146455
0.0726638
-0.00262455
0.0763984
-0.00388224
0.0805363
0.0850613
-0.00521631
0.000563905
0.0120389
0.00138038
0.0325745
0.00184779
0.0486171
0.00177306
0.0591704
0.00125362
0.0655896
0.000461081
0.0699058
-0.000482902
0.0736077
-0.00152244
0.077438
-0.00266044
0.0816743
0.0862679
-0.00386707
0.000612592
0.0114263
0.0015771
0.03161
0.00224213
0.0479521
0.0023603
0.0590522
0.002004
0.0659459
0.00134753
0.0705623
0.000524129
0.0744311
-0.000401136
0.0783633
-0.00141183
0.082685
0.087351
-0.00249488
0.000654863
0.0107714
0.00176263
0.0305023
0.00262926
0.0470855
0.00294972
0.0587317
0.00276589
0.0661297
0.00225145
0.0710768
0.00155415
0.0751284
0.000751601
0.0791658
-0.000117444
0.0835541
0.0883417
-0.00110817
0.000689993
0.0100814
0.00193423
0.029258
0.00300506
0.0460146
0.00353736
0.0581994
0.00353631
0.0661308
0.00317117
0.0714419
0.00260248
0.0756971
0.00192147
0.0798468
0.00115472
0.0843208
0.0892017
0.000294738
0.000717369
0.00936405
0.00208905
0.0278863
0.00336494
0.0447388
0.00411848
0.0574459
0.00431157
0.0659377
0.0041041
0.0716494
0.00366815
0.0761331
0.00310971
0.0804052
0.00247422
0.0849563
0.0898969
0.00177894
0.000736508
0.00862755
0.00222414
0.0263987
0.00370386
0.043259
0.00468761
0.0564621
0.00508719
0.0655381
0.00504726
0.0716893
0.00474983
0.0764305
0.00431798
0.0808371
0.00381107
0.0854632
0.0904598
0.00324817
0.000747095
0.00788045
0.0023365
0.0248093
0.0040163
0.0415792
0.00523844
0.05524
0.00585777
0.0649188
0.0059969
0.0715502
0.0058449
0.0765825
0.00554218
0.0811398
0.00516052
0.0858449
0.0908949
0.00472548
0.000749024
0.00713143
0.00242359
0.0231347
0.00429644
0.0397064
0.00576376
0.0537727
0.00661682
0.0640657
0.00694825
0.0712187
0.00694984
0.0765809
0.00677902
0.0813106
0.00652229
0.0861016
0.0912037
0.00621346
0.00074239
0.00638904
0.00248323
0.0213939
0.00453821
0.0376514
0.00625541
0.0520555
0.00735663
0.0629645
0.00789545
0.0706799
0.00806074
0.0764156
0.00802612
0.0813453
0.00789537
0.0862324
0.0913878
0.00771124
0.000727492
0.00566155
0.00251369
0.0196077
0.00473546
0.0354296
0.00670436
0.0500866
0.0080681
0.0616008
0.00883138
0.0699166
0.00917298
0.076074
0.00928078
0.0812375
0.00927788
0.0862353
0.0914485
0.00921718
0.000704832
0.00495671
0.00251396
0.0177986
0.00488228
0.0330613
0.0071008
0.0478681
0.0087407
0.0599609
0.00974738
0.06891
0.0102807
0.0755407
0.0105394
0.0809787
0.0106673
0.0861074
0.0913857
0.0107302
0.000675117
0.0042816
0.00248387
0.0159898
0.00497335
0.0305718
0.00743434
0.0454071
0.00936238
0.0580328
0.010633
0.0676394
0.0113766
0.0747971
0.0117975
0.0805578
0.0120607
0.0858442
0.0911984
0.012248
0.000639233
0.00364236
0.00242422
0.0142048
0.00500441
0.0279916
0.0076944
0.0427171
0.00991957
0.0558077
0.0114756
0.0660834
0.0124512
0.0738214
0.013049
0.07996
0.0134543
0.0854389
0.090885
0.0137677
0.000598216
0.00304415
0.00233684
0.0124662
0.00497276
0.0253557
0.00787071
0.0398192
0.0103974
0.053281
0.0122603
0.0642205
0.0134929
0.0725888
0.0142864
0.0791665
0.0148435
0.0848817
0.0904428
0.0152857
0.000553206
0.00249094
0.00222455
0.0107949
0.00487777
0.0227025
0.00795402
0.0367429
0.0107801
0.0504549
0.01297
0.0620306
0.0144874
0.0710714
0.0154995
0.0781544
0.0162221
0.0841592
0.0898668
0.0167981
0.000505398
0.00198554
0.00209103
0.00920923
0.00472129
0.0200722
0.00793706
0.0335271
0.0110514
0.0473406
0.0135851
0.0594969
0.0154171
0.0692393
0.0166759
0.0768956
0.0175821
0.083253
0.089149
0.0182999
0.000455992
0.00152955
0.00194066
0.00772456
0.00450795
0.0175049
0.00781555
0.0302195
0.011196
0.0439602
0.0140841
0.0566088
0.0162612
0.0670622
0.0177992
0.0753576
0.018913
0.0821393
0.0882773
0.0197847
0.000406147
0.00112341
0.00177825
0.00635246
0.00424506
0.0150381
0.00758943
0.0268752
0.0112003
0.0403493
0.0144443
0.0533648
0.0169951
0.0645114
0.0188492
0.0735034
0.0202006
0.0807878
0.0872342
0.0212438
0.00035696
0.000766445
0.00160882
0.0051006
0.00394232
0.0127046
0.00726378
0.0235537
0.0110548
0.0365583
0.014643
0.0497766
0.0175912
0.0615633
0.0198008
0.0712938
0.0214266
0.079162
0.0859951
0.0226657
0.000309465
0.00045698
0.0014374
0.00397266
0.00361128
0.0105308
0.00684943
0.0203155
0.0107557
0.032652
0.0146594
0.0458729
0.0180192
0.0582034
0.0206238
0.0686892
0.0225672
0.0772186
0.0845277
0.0240346
0.00026465
0.000192331
0.0012689
0.00296841
0.00326458
0.00853508
0.00636295
0.0172172
0.0103074
0.0287076
0.0144771
0.0417032
0.0182483
0.0544323
0.0212834
0.0656541
0.0235921
0.0749099
0.08279
0.0253297
0.000223487
-3.11564e-05
0.00110806
0.00208384
0.00291526
0.00672788
0.00582568
0.0143068
0.00972406
0.0248092
0.0140879
0.0373394
0.0182488
0.0502714
0.0217404
0.0621625
0.0244642