/*--------------------------------*- C++ -*----------------------------------*\
  =========                 |
  \\      /  F ield         | OpenFOAM: The Open Source CFD Toolbox
   \\    /   O peration     | Website:  https://openfoam.org
    \\  /    A nd           | Version:  7
     \\/     M anipulation  |
\*---------------------------------------------------------------------------*/
FoamFile
{
    version     2.0;
    format      ascii;
    class       volVectorField;
    location    "180";
    object      U;
}
// * * * * * * * * * * * * * * * * * * * * * * * * * * * * * * * * * * * * * //

dimensions      [0 1 -1 0 0 0 0];

internalField   nonuniform List<vector> 
8500
(
(-0.00221139 -0.0129933 1.00919e-21)
(-0.0123787 -0.00775137 -2.90102e-21)
(-0.0307408 0.0151884 -3.38502e-21)
(-0.0521682 0.0456205 3.36384e-21)
(-0.0750887 0.0774675 -3.08591e-21)
(-0.0981205 0.108862 -1.64323e-21)
(-0.120013 0.140645 2.80657e-21)
(-0.139906 0.174396 3.44115e-21)
(-0.157152 0.211176 -5.54467e-22)
(-0.17147 0.251665 1.65733e-21)
(-0.00167344 -0.00917028 -1.11757e-21)
(-0.0111769 0.00037662 3.44966e-21)
(-0.0284558 0.0256949 -7.90409e-21)
(-0.0485625 0.0573455 7.15427e-21)
(-0.0698733 0.0895638 3.53964e-22)
(-0.0910075 0.120602 5.29552e-21)
(-0.11069 0.151411 -9.13667e-21)
(-0.127966 0.183774 -1.32994e-20)
(-0.141957 0.218985 -2.52586e-21)
(-0.15173 0.25779 5.74046e-21)
(-0.00134959 -0.00581798 9.75183e-22)
(-0.0103288 0.00746115 7.31395e-21)
(-0.0264188 0.0348243 1.73223e-20)
(-0.0449324 0.0675227 -1.56374e-20)
(-0.064206 0.100046 -3.43591e-21)
(-0.0828663 0.130691 -3.18179e-21)
(-0.0996134 0.160441 1.60771e-20)
(-0.113395 0.191224 1.01295e-20)
(-0.123157 0.224565 2.55331e-21)
(-0.126978 0.261176 -1.76749e-20)
(-0.00120211 -0.0029914 3.43788e-21)
(-0.00980717 0.0133844 -4.33728e-21)
(-0.0246897 0.0424078 -3.16482e-20)
(-0.041448 0.0759373 2.86724e-21)
(-0.0583755 0.108666 8.68397e-21)
(-0.0741079 0.138864 -6.5933e-21)
(-0.087329 0.167465 -6.15934e-22)
(-0.0968917 0.196473 -2.59558e-21)
(-0.101706 0.227642 6.04089e-21)
(-0.0984771 0.261643 1.7085e-20)
(-0.00119199 -0.000705805 2.34878e-21)
(-0.00958045 0.0180989 -1.33324e-20)
(-0.0233226 0.0483484 3.22591e-20)
(-0.0382769 0.0824339 -1.44205e-20)
(-0.0526763 0.115217 -9.69224e-23)
(-0.0651611 0.144883 1.97238e-20)
(-0.0744131 0.172242 -9.14007e-21)
(-0.0791912 0.199287 1.1178e-21)
(-0.0785567 0.227973 -3.69682e-21)
(-0.0675725 0.259268 9.62439e-22)
(-0.0012845 0.00106261 2.79141e-20)
(-0.00961995 0.0216274 3.3996e-20)
(-0.0223681 0.0526244 -8.7991e-21)
(-0.0355788 0.0869245 1.65704e-20)
(-0.0473968 0.119543 4.99498e-21)
(-0.0564554 0.148549 -7.41738e-21)
(-0.061452 0.174557 -2.77939e-21)
(-0.0610512 0.199467 -1.15942e-20)
(-0.0545376 0.225267 2.4964e-21)
(-0.0354853 0.253891 -1.51478e-20)
(-0.00145505 0.00237239 -2.68546e-20)
(-0.00990715 0.0240583 -1.76216e-20)
(-0.0218741 0.0552901 1.40551e-20)
(-0.0334987 0.0893946 -2.41041e-20)
(-0.0428043 0.121554 2.49453e-21)
(-0.0483986 0.149708 2.76331e-20)
(-0.0490118 0.174233 -4.91099e-21)
(-0.0432708 0.196855 3.19776e-20)
(-0.0305834 0.219481 -9.22839e-22)
(-0.0031809 0.244975 -1.25538e-20)
(-0.00169279 0.00330914 2.1893e-20)
(-0.0104386 0.0255361 -3.95622e-20)
(-0.0218869 0.056471 -1.56266e-20)
(-0.0321585 0.0899067 1.85716e-20)
(-0.0391263 0.121233 3.47998e-22)
(-0.0413492 0.148278 -5.14563e-20)
(-0.0375951 0.171149 -2.75281e-21)
(-0.0264791 0.19134 -2.46511e-20)
(-0.00771055 0.210633 -3.13776e-20)
(0.0282503 0.232248 1.82152e-20)
(-0.00200312 0.00397791 -1.22367e-20)
(-0.0112284 0.0262485 5.93019e-21)
(-0.0224484 0.0563558 1.44044e-20)
(-0.0316467 0.0886031 -1.23137e-20)
(-0.0365246 0.118649 -4.38331e-20)
(-0.0355756 0.144251 1.51607e-20)
(-0.0276032 0.165252 2.3297e-21)
(-0.0111987 0.182862 3.6348e-20)
(0.0133764 0.198605 4.69805e-20)
(0.0579589 0.215755 -2.10384e-20)
(-0.00240798 0.00449373 1.87397e-20)
(-0.012307 0.02641 1.6966e-20)
(-0.0235882 0.0551789 -2.45631e-21)
(-0.0320052 0.0857021 6.2169e-20)
(-0.0350716 0.113959 2.62681e-20)
(-0.0312087 0.137719 1.94365e-20)
(-0.0192499 0.156585 2.67488e-20)
(0.00227283 0.171477 -1.1995e-20)
(0.0322952 0.183455 -1.55486e-20)
(0.0856976 0.195446 -2.46306e-20)
(-0.00294358 0.00497139 -2.00888e-21)
(-0.0137172 0.0262443 -2.64819e-20)
(-0.0253148 0.0532141 -1.89534e-20)
(-0.0332033 0.0814758 -3.03536e-20)
(-0.0347146 0.107413 -2.36577e-20)
(-0.0281822 0.128892 2.35022e-20)
(-0.0124627 0.145331 -2.21057e-20)
(0.0140415 0.15739 -1.51531e-20)
(0.049188 0.165448 1.91126e-21)
(0.112205 0.171456 6.81295e-21)
(-0.00365458 0.00551519 -5.03969e-20)
(-0.0154971 0.0259658 2.41374e-20)
(-0.0276031 0.0507434 1.75094e-20)
(-0.035123 0.0762449 1.14853e-20)
(-0.0352298 0.0993532 -2.05478e-20)
(-0.0261608 0.118113 -1.72388e-20)
(-0.00676015 0.131833 2.45375e-20)
(0.0248214 0.141018 -1.9508e-20)
(0.0650607 0.145073 -1.13806e-21)
(0.139714 0.144463 -1.94376e-20)
(-0.00458721 0.00620838 4.15832e-20)
(-0.0176708 0.0257574 1.67824e-20)
(-0.0303657 0.0480364 1.02967e-21)
(-0.037526 0.0703656 -2.0976e-20)
(-0.0361869 0.090198 1.70077e-21)
(-0.0244688 0.105853 2.21634e-20)
(-0.00112808 0.11662 -6.12375e-21)
(0.0361282 0.123015 -7.15246e-21)
(0.082141 0.123051 -1.61167e-20)
(0.172258 0.116006 2.97078e-20)
(-0.00577912 0.00710397 2.73885e-20)
(-0.0202275 0.0257562 -4.50531e-20)
(-0.0334404 0.045337 -3.43732e-20)
(-0.0400303 0.0641931 1.49299e-20)
(-0.0369127 0.0804198 2.99558e-20)
(-0.0220384 0.0926933 2.4504e-20)
(0.00606177 0.100388 -2.56263e-20)
(0.0503603 0.104266 4.87318e-20)
(0.104064 0.100302 -1.43305e-20)
(0.215209 0.088607 -3.41021e-20)
(-0.00724877 0.00821722 -4.16411e-20)
(-0.0231049 0.0260383 2.50615e-20)
(-0.036571 0.0428352 -1.1597e-20)
(-0.0420995 0.0580598 1.21846e-21)
(-0.0364851 0.0705099 1.23118e-20)
(-0.0174113 0.0792859 -3.88653e-20)
(0.0170239 0.0839632 3.3478e-20)
(0.0706446 0.0857914 -3.21141e-20)
(0.135662 0.077916 5.0548e-20)
(0.273733 0.0652588 1.8046e-20)
(-0.00898579 0.00952168 8.54913e-21)
(-0.0261779 0.0266093 4.793e-20)
(-0.039404 0.040651 -1.18297e-20)
(-0.0430516 0.0522429 1.20222e-20)
(-0.0337665 0.0609324 1.35132e-20)
(-0.00882275 0.0662898 -4.00302e-21)
(0.0343675 0.0682174 2.85049e-20)
(0.100389 0.0685952 1.52182e-21)
(0.182122 0.0572002 -3.20962e-20)
(0.350386 0.0484544 4.27528e-20)
(-0.0109445 0.0109501 -2.31276e-20)
(-0.0292544 0.0274019 -4.52154e-20)
(-0.0415004 0.0388199 3.91251e-20)
(-0.0420979 0.0469373 1.93444e-20)
(-0.0274841 0.0520689 -8.8764e-20)
(0.00562515 0.0542983 7.1179e-20)
(0.0607444 0.0539793 -6.27644e-20)
(0.142659 0.0534901 9.98426e-22)
(0.24769 0.0398709 -1.36467e-20)
(0.443048 0.039475 -3.94251e-20)
(-0.0130425 0.0124011 1.97838e-20)
(-0.032081 0.0282813 -2.60746e-21)
(-0.0423588 0.037288 -9.59477e-21)
(-0.0384038 0.0422275 -1.2245e-21)
(-0.0163564 0.0441744 -5.55215e-21)
(0.0277314 0.0437707 -2.26232e-20)
(0.0984186 0.0419353 9.28532e-21)
(0.199651 0.0409901 -1.46537e-20)
(0.334172 0.0280733 4.40423e-21)
(0.544756 0.0383611 1.1301e-21)
(-0.015165 0.0137508 -4.03689e-20)
(-0.0343582 0.0290594 -2.84403e-21)
(-0.0414517 0.0359153 4.38759e-21)
(-0.0311548 0.0380782 1.79578e-21)
(0.000772566 0.0373586 2.89765e-20)
(0.0589628 0.0349835 -8.32011e-20)
(0.148873 0.0325452 5.48125e-20)
(0.272433 0.0313832 -4.05121e-20)
(0.439794 0.0237823 3.36232e-20)
(0.646556 0.0435431 3.65582e-20)
(-0.0171747 0.0148695 -4.88493e-21)
(-0.0357603 0.0295176 2.25132e-20)
(-0.0382626 0.0344995 -2.81227e-20)
(-0.019619 0.0343538 -8.76767e-21)
(0.0248296 0.0315939 1.67508e-20)
(0.100285 0.0280379 7.91891e-20)
(0.212536 0.0260136 -1.55045e-20)
(0.360683 0.0250883 7.40503e-21)
(0.55866 0.0274874 -3.91759e-20)
(0.743234 0.0491905 1.79535e-20)
(-0.0189243 0.0156384 -1.47311e-20)
(-0.0359523 0.029437 -1.1485e-20)
(-0.0323113 0.0328129 2.87067e-21)
(-0.00318214 0.0308614 1.10262e-20)
(0.0564689 0.0267707 -3.24752e-20)
(0.152112 0.0229357 -1.29825e-20)
(0.288761 0.0223664 -4.02607e-20)
(0.462105 0.0229612 4.03555e-20)
(0.680648 0.0364653 4.2367e-20)
(0.837735 0.0465131 -1.76075e-20)
(-0.0202701 0.015965 -7.06418e-21)
(-0.034611 0.0286357 2.8713e-20)
(-0.0231541 0.0306417 -3.20125e-20)
(0.0186529 0.0274127 -3.74096e-21)
(0.0960883 0.022781 -1.50109e-20)
(0.214346 0.0196927 3.21635e-20)
(0.376071 0.0216409 4.06782e-20)
(0.572315 0.0257475 -3.85908e-20)
(0.794595 0.0443987 4.09745e-20)
(0.961114 0.0434337 5.69749e-21)
(-0.0210741 0.0157927 -2.05068e-20)
(-0.0314326 0.0269918 -5.81061e-20)
(-0.0103844 0.0278339 5.66583e-20)
(0.046295 0.0238957 8.12289e-21)
(0.143876 0.0196065 1.16784e-20)
(0.286421 0.0184296 7.29321e-21)
(0.472251 0.0239762 3.13931e-20)
(0.68542 0.0328578 2.2704e-20)
(0.903403 0.0532924 -7.95682e-20)
(1.06736 0.0543829 -3.87161e-20)
(-0.0212104 0.0151078 -7.00069e-20)
(-0.0261195 0.0244605 1.40632e-20)
(0.00637566 0.0243474 -3.21609e-20)
(0.0800888 0.0203299 6.20915e-21)
(0.199839 0.0173863 9.87815e-21)
(0.367302 0.0194059 -7.05522e-20)
(0.574293 0.0295394 3.10705e-20)
(0.796283 0.0433448 -2.04518e-20)
(1.00284 0.0648548 2.13376e-20)
(1.15041 0.0672548 -7.50206e-21)
(-0.020571 0.0139365 2.54092e-20)
(-0.0183809 0.0210837 2.7565e-20)
(0.027494 0.0202715 -1.65215e-21)
(0.120321 0.0169008 -8.76156e-21)
(0.263773 0.0164434 2.22893e-22)
(0.455432 0.022968 4.88987e-22)
(0.678568 0.038327 -4.70692e-20)
(0.90064 0.0564403 6.25292e-21)
(1.08917 0.0780743 5.77549e-20)
(1.21683 0.0809034 2.5863e-20)
(-0.0190558 0.0123331 -1.72865e-20)
(-0.00793626 0.0169921 -1.27227e-20)
(0.0533248 0.0158319 5.4968e-20)
(0.167194 0.013966 1.40804e-21)
(0.335173 0.0172554 -2.30417e-20)
(0.548679 0.0294293 6.11253e-20)
(0.78127 0.0500878 1.33866e-20)
(0.995185 0.0714027 8.79717e-22)
(1.16155 0.0922197 -2.53772e-20)
(1.26655 0.0946657 -3.29702e-20)
(-0.0165633 0.0103737 3.64414e-20)
(0.00548637 0.012394 -1.00495e-20)
(0.0841855 0.0113777 -6.03423e-21)
(0.220755 0.0120297 -2.2886e-20)
(0.413112 0.0203681 3.7236e-20)
(0.644399 0.0389427 -1.80674e-20)
(0.878918 0.0643651 -2.03499e-20)
(1.07797 0.0875672 -4.6739e-21)
(1.22001 0.106719 -1.47818e-20)
(1.30296 0.108016 1.58981e-20)
(-0.0129886 0.00815086 -1.33781e-20)
(0.0221451 0.00755837 -7.99446e-20)
(0.120319 0.00735581 8.27583e-21)
(0.280812 0.0116871 2.86275e-20)
(0.496167 0.0262723 2.04004e-20)
(0.739687 0.0514316 -6.77249e-20)
(0.968771 0.0806046 4.32296e-20)
(1.14823 0.104381 -1.94372e-20)
(1.26573 0.121175 2.91476e-20)
(1.32838 0.120919 8.00627e-21)
(-0.00822254 0.0057677 -1.48111e-20)
(0.042269 0.00279881 2.83142e-20)
(0.161845 0.00427732 3.71273e-20)
(0.346844 0.0135496 -2.65124e-20)
(0.582444 0.0352893 9.83903e-21)
(0.831738 0.0666111 -5.97289e-20)
(1.04903 0.0982556 -1.0985e-20)
(1.20619 0.121428 9.25122e-21)
(1.30029 0.135372 -2.22495e-20)
(1.34525 0.133331 -2.25015e-20)
(-0.00215499 0.00333596 -1.92714e-20)
(0.0660368 -0.00154005 -6.62394e-21)
(0.208709 0.0026817 -6.75338e-20)
(0.417951 0.018163 -1.05971e-20)
(0.669743 0.0475123 -1.05013e-21)
(0.91818 0.0840693 3.61735e-21)
(1.11881 0.116837 6.00809e-21)
(1.25271 0.138426 -2.93553e-20)
(1.32546 0.149212 5.43073e-22)
(1.35554 0.14535 1.55869e-20)
(0.00531976 0.000975612 -5.08831e-21)
(0.0935545 -0.00509334 2.34592e-20)
(0.260644 0.00310168 3.3073e-20)
(0.492866 0.0259355 2.06936e-20)
(0.755804 0.0628194 -6.06126e-21)
(0.997267 0.103355 -5.08397e-21)
(1.178 0.135964 4.97956e-20)
(1.289 0.155206 6.68292e-21)
(1.34295 0.162691 2.21093e-20)
(1.36087 0.157071 -9.42263e-21)
(0.0142924 -0.00118248 4.8642e-20)
(0.124832 -0.00748355 3.12976e-20)
(0.317142 0.00602938 -3.17639e-20)
(0.570038 0.0370965 -6.32765e-21)
(0.838552 0.0809361 3.3455e-21)
(1.06792 0.124041 -1.20268e-20)
(1.22701 0.155354 -2.57176e-20)
(1.31643 0.17169 -4.16056e-21)
(1.35425 0.175855 2.72335e-22)
(1.36251 0.168607 1.02604e-20)
(0.0248283 -0.0029967 6.16887e-21)
(0.159765 -0.00833057 -1.71477e-20)
(0.377455 0.0118837 4.06454e-20)
(0.647766 0.051692 2.64204e-20)
(0.916281 0.101507 8.82006e-22)
(1.12966 0.145755 1.85803e-20)
(1.26662 0.174813 2.69288e-21)
(1.33635 0.18786 -1.93892e-20)
(1.36068 0.18878 1.62235e-20)
(1.36139 0.180053 2.55549e-23)
(0.0369606 -0.00431528 -4.04513e-20)
(0.19812 -0.0072619 -1.18971e-20)
(0.440623 0.0209829 -1.06899e-20)
(0.724354 0.0696125 -1.86099e-20)
(0.987728 0.124152 4.44818e-21)
(1.18247 0.168191 8.97669e-23)
(1.29776 0.194218 1.42612e-20)
(1.35 0.203743 -2.36383e-21)
(1.36326 0.201547 -1.67792e-20)
(1.35818 0.191484 -1.54188e-20)
(0.0506811 -0.00497823 3.31263e-21)
(0.23953 -0.00392678 1.93794e-20)
(0.505523 0.0335257 9.42307e-21)
(0.798244 0.0906345 -2.92647e-20)
(1.05207 0.148503 -1.4106e-21)
(1.22665 0.191105 -1.25003e-20)
(1.32143 0.213499 3.14337e-22)
(1.35847 0.219384 5.74003e-21)
(1.36283 0.214231 -6.30603e-21)
(1.35337 0.202949 1.74902e-20)
(0.0659352 -0.00482161 7.84917e-21)
(0.283499 0.00198671 -1.9068e-20)
(0.570943 0.0495858 -4.4956e-20)
(0.868111 0.114462 4.13261e-20)
(1.10887 0.174219 -3.06e-21)
(1.26273 0.214305 9.02591e-21)
(1.33858 0.232624 -1.22728e-21)
(1.36267 0.234836 8.53442e-21)
(1.35999 0.226893 -6.64071e-22)
(1.34726 0.214475 -1.35398e-20)
(0.082619 -0.00368326 -1.60486e-20)
(0.329412 0.0107339 2.49332e-20)
(0.635653 0.0691178 2.04917e-20)
(0.932901 0.14076 -2.95736e-20)
(1.158 0.200992 -4.90794e-21)
(1.29133 0.237645 1.84967e-21)
(1.35011 0.251579 1.84589e-20)
(1.36336 0.250144 8.92277e-22)
(1.35521 0.239571 3.49394e-21)
(1.34007 0.226063 -7.50498e-21)
(0.100579 -0.00140959 1.21818e-20)
(0.376559 0.0224975 -1.09316e-20)
(0.698477 0.0919717 -9.34849e-21)
(0.991839 0.169175 1.59368e-20)
(1.19954 0.228546 5.46369e-21)
(1.31312 0.261007 4.10867e-21)
(1.3568 0.270361 -1.88347e-20)
(1.36111 0.265344 -6.37034e-21)
(1.3488 0.252283 -5.62991e-21)
(1.33193 0.237697 2.47269e-21)
(0.119612 0.00213719 -6.13327e-21)
(0.424164 0.0373766 -1.39077e-22)
(0.758347 0.117911 1.77027e-20)
(1.0444 0.199347 -6.45579e-21)
(1.23375 0.256631 -2.8599e-21)
(1.32877 0.284294 -1.86961e-21)
(1.3593 0.288964 4.56136e-21)
(1.35639 0.280451 7.78077e-21)
(1.34098 0.265023 -2.52378e-22)
(1.32289 0.249341 2.76526e-21)
(0.139474 0.00707182 4.32958e-21)
(0.471418 0.0553801 -1.21464e-21)
(0.814337 0.146634 -3.18163e-21)
(1.09028 0.23092 -2.87583e-21)
(1.26097 0.285023 2.57254e-21)
(1.33889 0.307422 1.98774e-21)
(1.35817 0.307375 -1.82302e-21)
(1.34954 0.295463 6.46222e-22)
(1.3319 0.277765 8.98512e-22)
(1.31302 0.260949 -1.17674e-21)
(0.159883 0.0134794 2.3508e-21)
(0.517508 0.0764265 6.66133e-22)
(0.865683 0.177785 -3.98209e-21)
(1.12935 0.263545 -3.16247e-21)
(1.2816 0.313513 3.27569e-21)
(1.34405 0.330307 6.38781e-22)
(1.35386 0.325568 -1.44984e-21)
(1.34079 0.310356 1.35284e-21)
(1.32165 0.290463 7.41082e-22)
(1.30231 0.27246 -8.3325e-22)
(0.180528 0.02141 -9.14335e-22)
(0.561656 0.100349 1.86558e-21)
(0.911786 0.210976 1.23166e-20)
(1.16161 0.296879 -5.4582e-21)
(1.29607 0.341904 -2.63459e-21)
(1.34474 0.352866 -2.93629e-21)
(1.34673 0.343501 5.96131e-21)
(1.33035 0.325086 3.93513e-21)
(1.31029 0.303052 3.08815e-21)
(1.2908 0.283808 1.6382e-21)
(0.201078 0.0308752 1.89516e-20)
(0.603139 0.126902 -1.03857e-20)
(0.952202 0.245793 -1.17436e-20)
(1.18717 0.330588 1.5901e-20)
(1.30479 0.370008 8.29403e-21)
(1.3414 0.375008 -5.39858e-22)
(1.33707 0.361115 -9.94061e-21)
(1.31832 0.339591 -7.07215e-21)
(1.29785 0.315451 -7.19244e-21)
(1.27849 0.294919 4.18832e-21)
(0.221196 0.0418455 -2.56676e-20)
(0.64131 0.155775 2.40778e-20)
(0.98663 0.281806 2.76319e-20)
(1.20621 0.364347 -2.70351e-20)
(1.30818 0.397639 -9.24896e-21)
(1.3344 0.396636 5.8442e-21)
(1.32511 0.378338 1.04329e-20)
(1.3048 0.353787 1.60241e-21)
(1.28436 0.327562 -2.44662e-22)
(1.26537 0.305717 -5.63032e-21)
(0.240543 0.054251 -3.71801e-21)
(0.675615 0.1866 -3.39581e-20)
(1.0149 0.318581 -3.62129e-20)
(1.21898 0.39784 4.02767e-20)
(1.30662 0.424615 -4.54746e-21)
(1.32407 0.417643 8.15244e-21)
(1.31102 0.395082 1.54232e-21)
(1.28986 0.367579 -4.37833e-21)
(1.26979 0.33928 2.34394e-21)
(1.25135 0.316131 -2.73353e-22)
(0.258793 0.0679824 7.54126e-21)
(0.705598 0.218964 2.10939e-20)
(1.03694 0.355677 1.18805e-20)
(1.22574 0.43076 -9.33944e-21)
(1.3005 0.450753 -1.43271e-20)
(1.3107 0.437911 -1.30878e-20)
(1.29495 0.411249 -2.58493e-21)
(1.27353 0.380878 6.68381e-21)
(1.25412 0.350529 -1.40409e-21)
(1.23619 0.32607 3.11811e-21)
(0.275637 0.0828941 -2.86144e-20)
(0.730905 0.252425 -2.65603e-20)
(1.05278 0.39266 -4.18932e-21)
(1.22681 0.462811 -4.72674e-21)
(1.29014 0.47587 -1.05186e-20)
(1.29451 0.457315 6.28562e-21)
(1.27702 0.426728 -1.13364e-21)
(1.25588 0.3936 -5.79316e-21)
(1.23734 0.361312 5.23156e-21)
(1.21981 0.33536 -7.17414e-21)
(0.290796 0.0988083 6.77357e-21)
(0.751288 0.286519 2.25187e-20)
(1.06254 0.429102 1.94505e-20)
(1.2225 0.493703 2.09737e-20)
(1.27589 0.499785 4.43829e-22)
(1.27574 0.475719 1.76881e-20)
(1.25735 0.441395 1.07399e-21)
(1.23696 0.405628 -1.9743e-20)
(1.21955 0.37165 1.37589e-20)
(1.20279 0.343884 4.93951e-21)
(0.304024 0.115519 1.8578e-20)
(0.766597 0.320778 4.13908e-20)
(1.06636 0.464589 -5.4464e-21)
(1.21315 0.523161 -2.64221e-20)
(1.25803 0.522315 1.17621e-20)
(1.25457 0.492984 -1.19807e-20)
(1.23602 0.455118 -1.54833e-20)
(1.21683 0.416818 -1.12355e-21)
(1.20072 0.381237 -1.11565e-20)
(1.18529 0.351865 4.12978e-21)
(0.315115 0.132796 8.72818e-21)
(0.776768 0.354733 6.45559e-21)
(1.06448 0.49872 5.12277e-20)
(1.19909 0.550915 9.42356e-21)
(1.23687 0.543283 -8.11392e-21)
(1.23119 0.508967 -4.08457e-21)
(1.21319 0.467767 2.34968e-20)
(1.19554 0.427092 1.87206e-20)
(1.18086 0.38995 8.98996e-21)
(1.16708 0.359035 -1.11532e-21)
(0.323907 0.150394 1.82223e-21)
(0.781819 0.387928 -4.23149e-20)
(1.05717 0.531118 -6.0235e-20)
(1.18067 0.576713 1.7728e-21)
(1.21268 0.56251 1.13192e-20)
(1.20579 0.523513 -1.55714e-20)
(1.18895 0.479207 -3.39733e-20)
(1.17312 0.436329 -9.74131e-21)
(1.16008 0.397695 -5.60297e-22)
(1.14815 0.365309 3.78787e-21)
(0.330282 0.168059 -1.51451e-20)
(0.781845 0.419921 3.80877e-20)
(1.04476 0.561428 3.61763e-20)
(1.15824 0.600315 -3.28435e-20)
(1.18573 0.579814 5.02679e-21)
(1.17855 0.536476 3.67667e-20)
(1.16337 0.489309 -7.59958e-21)
(1.14964 0.444412 6.32133e-21)
(1.13845 0.404374 -2.57546e-21)
(1.12853 0.370582 -3.21334e-21)
(0.334164 0.185529 -3.40917e-20)
(0.777015 0.450287 -6.00359e-20)
(1.02761 0.589333 -1.16767e-20)
(1.13213 0.6215 1.89548e-20)
(1.15625 0.59502 1.80166e-20)
(1.14963 0.547699 -3.64033e-20)
(1.13659 0.497944 1.89313e-20)
(1.1252 0.451228 -8.9111e-21)
(1.11602 0.409892 6.46042e-21)
(1.10831 0.374789 4.26792e-22)
(0.335533 0.202542 2.6023e-20)
(0.767578 0.478617 1.85937e-21)
(1.00609 0.614543 -5.79242e-21)
(1.10259 0.640037 -2.32222e-20)
(1.12455 0.607978 1.44706e-20)
(1.11922 0.557035 3.29023e-21)
(1.10871 0.504988 -1.01818e-20)
(1.0999 0.456672 2.27501e-21)
(1.09289 0.41415 -1.23157e-21)
(1.08758 0.377851 -1.84902e-22)
(0.334424 0.218848 -7.0947e-21)
(0.753849 0.504559 -9.81815e-21)
(0.980374 0.636732 2.49359e-20)
(1.07002 0.655758 1.14303e-20)
(1.09093 0.6185 -1.50926e-20)
(1.08751 0.564371 1.97115e-20)
(1.07989 0.51033 1.71365e-21)
(1.07383 0.460645 2.31787e-21)
(1.06912 0.417049 2.37273e-21)
(1.06641 0.379674 4.92217e-22)
(0.330926 0.234194 4.59193e-20)
(0.736138 0.527912 3.52647e-20)
(0.950691 0.655544 -2.58998e-21)
(1.03491 0.668465 -5.19039e-21)
(1.05564 0.626469 -6.02297e-21)
(1.05467 0.56958 -2.75386e-21)
(1.05025 0.513864 2.18836e-21)
(1.04712 0.463058 1.0943e-21)
(1.04483 0.418492 -1.79538e-21)
(1.04487 0.380158 -4.04699e-21)
(0.325116 0.248251 3.65415e-21)
(0.714603 0.548387 6.03826e-21)
(0.917712 0.670969 -3.18298e-20)
(0.997653 0.677912 1.37988e-20)
(1.01894 0.631778 2.84192e-21)
(1.02091 0.572561 -5.67812e-21)
(1.01995 0.515497 2.0323e-21)
(1.01986 0.463837 1.11178e-21)
(1.02012 0.41841 -3.97306e-21)
(1.02319 0.379253 5.09995e-21)
(0.31701 0.260733 -1.74491e-20)
(0.689482 0.565491 -1.2566e-20)
(0.882028 0.682844 9.90329e-21)
(0.958555 0.684041 2.18577e-21)
(0.981101 0.634318 -5.40061e-21)
(0.98642 0.573214 4.19874e-21)
(0.989126 0.515138 2.42414e-21)
(0.992162 0.462889 -9.27665e-21)
(0.995242 0.416733 2.2898e-20)
(1.00199 0.376991 9.20012e-21)
(0.306817 0.271424 -1.32822e-20)
(0.661252 0.578927 3.24069e-20)
(0.843982 0.690949 -2.01162e-20)
(0.917947 0.68678 -3.08531e-21)
(0.942375 0.634006 -2.59875e-21)
(0.95138 0.57146 -1.31797e-21)
(0.957882 0.512702 -8.01376e-21)
(0.964148 0.460081 4.33769e-21)
(0.970611 0.413273 -1.05781e-21)
(0.981953 0.373402 -4.22255e-21)
(0.29479 0.280291 -1.15262e-21)
(0.630378 0.588585 -9.68762e-21)
(0.803975 0.695092 4.77028e-21)
(0.876175 0.686051 -2.2045e-21)
(0.90303 0.630777 4.97596e-21)
(0.915979 0.567244 4.87334e-21)
(0.92635 0.50814 1.53077e-20)
(0.936013 0.455316 -1.1539e-20)
(0.946584 0.407672 -2.22629e-20)
(0.962365 0.367836 9.48916e-21)
(0.281072 0.287149 -2.91737e-22)
(0.597317 0.594334 -2.12775e-21)
(0.762434 0.695162 9.0217e-22)
(0.83359 0.681789 6.10268e-21)
(0.863334 0.624589 -1.14663e-20)
(0.880416 0.560535 -1.93413e-20)
(0.89472 0.501447 -5.86526e-21)
(0.908034 0.448708 -1.50642e-21)
(0.923165 0.400135 2.96186e-20)
(0.940412 0.356745 -6.5799e-21)
(0.265878 0.291848 -2.81685e-22)
(0.562513 0.596069 -4.22512e-21)
(0.719787 0.691104 5.70295e-22)
(0.790545 0.673958 7.93138e-22)
(0.823552 0.615414 -8.29602e-21)
(0.844909 0.551302 3.6845e-20)
(0.863249 0.492588 -2.59179e-20)
(0.880422 0.440322 3.12977e-20)
(0.899309 0.392456 -2.20901e-20)
(0.916444 0.350479 -2.93158e-20)
(0.249454 0.294277 -6.93383e-22)
(0.526403 0.593716 -1.13477e-21)
(0.676464 0.682898 5.15844e-22)
(0.747385 0.662548 1.29658e-20)
(0.783952 0.603242 -5.39009e-21)
(0.809684 0.539527 8.28289e-21)
(0.832141 0.481512 1.52621e-20)
(0.853191 0.429896 -8.07722e-21)
(0.875322 0.382556 -2.1052e-20)
(0.893538 0.340839 2.92673e-20)
(0.232055 0.294354 1.0243e-20)
(0.489419 0.587238 1.35772e-20)
(0.632884 0.670554 -1.32986e-20)
(0.704453 0.647575 -1.19116e-20)
(0.744802 0.588087 4.2598e-20)
(0.774961 0.525221 -4.36301e-20)
(0.80155 0.468265 5.25014e-20)
(0.826369 0.417654 -1.32805e-20)
(0.851456 0.371396 1.42599e-20)
(0.871391 0.33085 2.65341e-20)
(0.213945 0.292026 -3.69894e-21)
(0.451993 0.576633 -1.33482e-20)
(0.589458 0.654116 -8.28615e-21)
(0.662084 0.629081 -4.59076e-21)
(0.706367 0.569979 5.23833e-21)
(0.740962 0.508406 -1.13295e-20)
(0.771646 0.452851 -1.57209e-20)
(0.800114 0.403527 -3.42524e-20)
(0.828038 0.358595 3.39996e-20)
(0.850084 0.319416 -1.1106e-20)
(0.195385 0.28727 2.54005e-20)
(0.414548 0.561942 -3.15052e-21)
(0.546589 0.633655 -1.16785e-20)
(0.620603 0.607136 1.5021e-20)
(0.668907 0.548974 -2.71244e-20)
(0.707897 0.489126 7.27642e-20)
(0.742599 0.435319 -3.88864e-20)
(0.774594 0.3876 3.53755e-20)
(0.805291 0.344303 -6.51193e-20)
(0.829653 0.306684 -1.73028e-20)
(0.176639 0.280091 -7.91914e-21)
(0.377498 0.543239 2.70371e-20)
(0.504661 0.609273 6.34119e-21)
(0.580324 0.581831 -1.40113e-20)
(0.632673 0.525145 -2.42262e-20)
(0.675974 0.467439 -9.0528e-22)
(0.71458 0.415718 1.29855e-20)
(0.749974 0.369901 -3.17967e-20)
(0.783374 0.328496 1.57524e-20)
(0.810146 0.292586 2.09897e-21)
(0.157967 0.270518 -4.43886e-20)
(0.341245 0.520634 -1.0905e-20)
(0.464047 0.5811 -3.02161e-21)
(0.541552 0.553282 3.60913e-20)
(0.59791 0.498587 -3.36051e-20)
(0.645394 0.443426 -8.78362e-21)
(0.687763 0.394117 -5.34044e-21)
(0.726414 0.350491 9.92096e-21)
(0.762426 0.311214 -1.25293e-20)
(0.791634 0.277157 -1.95941e-20)
(0.139623 0.258611 3.93719e-20)
(0.306172 0.49427 -2.24289e-20)
(0.425101 0.549295 1.10537e-21)
(0.504574 0.521627 -5.47176e-20)
(0.564851 0.469413 5.95027e-20)
(0.616351 0.417181 -1.88731e-20)
(0.662312 0.370598 1.13283e-20)
(0.704062 0.329435 9.85782e-21)
(0.742572 0.292502 2.86466e-20)
(0.774193 0.260444 -1.17199e-20)
(0.121851 0.244453 -1.60257e-20)
(0.272646 0.464321 4.6525e-20)
(0.388158 0.514041 2.62925e-20)
(0.469664 0.487025 4.31498e-20)
(0.533718 0.437756 -1.00329e-20)
(0.589032 0.388815 4.01986e-21)
(0.638387 0.345256 3.25499e-20)
(0.683056 0.306813 7.24747e-21)
(0.72393 0.272423 6.95486e-22)
(0.7579 0.242515 -1.39976e-20)
(0.104884 0.228151 -3.69583e-20)
(0.24101 0.430991 -2.71826e-21)
(0.353531 0.475547 -1.54496e-20)
(0.437077 0.449658 -6.94456e-20)
(0.504719 0.403765 -6.72216e-20)
(0.563611 0.358456 1.1232e-20)
(0.616139 0.3182 -2.76926e-20)
(0.663527 0.282716 1.76683e-20)
(0.70661 0.251053 9.6161e-21)
(0.742832 0.223447 2.01683e-20)
(0.088944 0.209834 5.43312e-20)
(0.211585 0.394513 -4.44781e-20)
(0.321512 0.434047 -2.26247e-20)
(0.407052 0.409724 4.01436e-20)
(0.47805 0.367609 4.57137e-20)
(0.540252 0.326244 -1.51516e-20)
(0.595709 0.289551 -1.94095e-21)
(0.645597 0.257245 -5.49968e-20)
(0.690716 0.228481 -3.11348e-20)
(0.729062 0.203329 1.18803e-20)
(0.0742338 0.189654 -3.0911e-20)
(0.184666 0.355143 1.30239e-20)
(0.292367 0.389792 4.79526e-20)
(0.379808 0.367442 -2.15251e-20)
(0.45389 0.329468 1.68639e-21)
(0.519109 0.292336 6.10396e-20)
(0.577225 0.259443 2.82789e-21)
(0.629379 0.230514 5.2612e-20)
(0.676346 0.204806 2.19632e-20)
(0.716658 0.182257 -3.49394e-20)
(0.0609407 0.167778 4.28417e-20)
(0.16052 0.31316 4.73713e-21)
(0.266339 0.343056 3.10663e-21)
(0.355542 0.323045 4.38315e-20)
(0.432403 0.289541 -5.85943e-21)
(0.500318 0.256898 -3.82839e-20)
(0.560806 0.22802 1.87644e-20)
(0.614975 0.202648 -2.9988e-20)
(0.663588 0.180136 -1.25607e-20)
(0.705684 0.160332 1.27008e-20)
(0.0492325 0.144393 -2.67178e-20)
(0.139386 0.268864 -5.13456e-20)
(0.243641 0.294129 1.18655e-20)
(0.334431 0.276781 -2.32509e-20)
(0.413733 0.248036 -1.4064e-20)
(0.484003 0.220111 3.40683e-20)
(0.546558 0.195435 -8.24568e-21)
(0.602478 0.173778 7.6404e-21)
(0.652524 0.154589 -9.28767e-21)
(0.696195 0.137661 1.84143e-20)
(0.0392563 0.1197 9.67166e-21)
(0.121469 0.222574 3.45789e-20)
(0.224461 0.243317 -4.80435e-20)
(0.316628 0.228913 2.27297e-20)
(0.398008 0.205174 -1.03612e-20)
(0.470271 0.182163 -2.91707e-20)
(0.534573 0.161853 2.38081e-20)
(0.591969 0.144046 5.00703e-21)
(0.643225 0.128288 -7.7003e-22)
(0.688242 0.114354 -2.14114e-20)
(0.0311372 0.0939142 3.16654e-21)
(0.106947 0.174623 1.11381e-20)
(0.208956 0.190938 4.34656e-20)
(0.302262 0.179711 -8.33482e-21)
(0.385335 0.161186 -6.56952e-21)
(0.459214 0.143251 2.43558e-21)
(0.524929 0.127442 1.05582e-21)
(0.583517 0.113599 8.88552e-21)
(0.635751 0.101362 -1.16706e-20)
(0.681865 0.0905239 -7.42694e-21)
(0.0249774 0.0672593 -7.91502e-21)
(0.0959624 0.125358 -1.35556e-20)
(0.197255 0.137322 -3.37766e-20)
(0.29144 0.129459 1.69967e-20)
(0.375801 0.116311 1.38676e-20)
(0.450907 0.103581 5.88118e-22)
(0.517691 0.0923799 -2.31851e-20)
(0.57718 0.0825888 -1.02852e-20)
(0.630153 0.0739474 8.16922e-21)
(0.6771 0.0662867 8.7344e-21)
(0.0208553 0.0399689 1.375e-21)
(0.0886238 0.0751356 -2.83561e-21)
(0.189456 0.0828071 6.41552e-21)
(0.284241 0.0784455 -4.34688e-21)
(0.369474 0.0707938 -3.82377e-21)
(0.445405 0.0633622 -2.59423e-21)
(0.512908 0.0568473 4.76499e-21)
(0.572999 0.0511733 1.81499e-20)
(0.626469 0.0461796 2.63355e-21)
(0.673972 0.041756 -4.66781e-21)
(0.0188248 0.0122824 1.70062e-21)
(0.0850064 0.0243188 -4.67767e-21)
(0.185626 0.0277378 -5.30087e-21)
(0.280722 0.0269642 -3.67761e-21)
(0.366398 0.0248837 3.50112e-21)
(0.442749 0.0228095 1.57949e-21)
(0.510613 0.0210292 -1.57408e-21)
(0.571006 0.0195125 -7.16525e-21)
(0.624725 0.018199 2.3584e-21)
(0.672497 0.0170458 -2.20584e-21)
(0.0189149 -0.0155569 -1.69529e-21)
(0.0851505 -0.0267237 4.66293e-21)
(0.1858 -0.0275375 5.28516e-21)
(0.280911 -0.024687 -5.05734e-21)
(0.3666 -0.0211663 4.45002e-21)
(0.442958 -0.0178602 2.22717e-21)
(0.510824 -0.0148869 -3.55461e-21)
(0.571214 -0.01223 -4.12736e-21)
(0.624931 -0.00984777 6.0775e-22)
(0.672677 -0.00770724 -1.71654e-21)
(0.0211294 -0.0433043 1.8591e-21)
(0.0890612 -0.0776218 -5.55494e-21)
(0.189983 -0.0826689 1.2418e-20)
(0.284812 -0.076209 -1.08983e-20)
(0.370081 -0.0671023 -5.18916e-22)
(0.446036 -0.0584291 -7.24746e-21)
(0.513542 -0.0507132 1.17678e-20)
(0.573628 -0.0438919 1.59903e-20)
(0.627097 -0.0378204 2.85124e-21)
(0.674538 -0.0323941 -6.13924e-21)
(0.025447 -0.0707157 -1.58716e-21)
(0.0967091 -0.128007 -1.17087e-20)
(0.19815 -0.137307 -2.72392e-20)
(0.292403 -0.127303 2.35603e-20)
(0.376823 -0.112671 4.84351e-21)
(0.451966 -0.0986796 4.29209e-21)
(0.518755 -0.0862627 -2.11216e-20)
(0.578232 -0.0753114 -1.24643e-20)
(0.631205 -0.0655803 -2.78068e-21)
(0.678053 -0.0569122 1.89531e-20)
(0.0318216 -0.0975506 -5.59141e-21)
(0.10803 -0.177513 7.05409e-21)
(0.210241 -0.191107 4.92731e-20)
(0.303637 -0.177675 -4.43467e-21)
(0.386786 -0.157622 -1.26483e-20)
(0.460714 -0.138396 9.05417e-21)
(0.526432 -0.121349 6.56817e-22)
(0.585001 -0.106326 3.18145e-21)
(0.637231 -0.0929822 -6.98136e-21)
(0.683208 -0.081128 -1.84254e-20)
(0.0401821 -0.123574 -3.76678e-21)
(0.122925 -0.225782 2.04919e-20)
(0.226168 -0.243728 -4.9511e-20)
(0.318439 -0.227033 2.14067e-20)
(0.399909 -0.201708 2.09238e-22)
(0.472228 -0.177367 -2.71148e-20)
(0.536528 -0.15579 1.19918e-20)
(0.593895 -0.136778 -1.12635e-21)
(0.64514 -0.119887 4.54543e-21)
(0.68998 -0.104925 -1.32593e-21)
(0.0504339 -0.148558 -4.30646e-20)
(0.141261 -0.272464 -5.14979e-20)
(0.245812 -0.294839 1.35257e-20)
(0.336712 -0.275093 -2.45226e-20)
(0.41611 -0.244688 -6.89385e-21)
(0.486438 -0.215386 1.03424e-20)
(0.548983 -0.189407 3.826e-21)
(0.604858 -0.166513 1.4136e-20)
(0.654884 -0.14616 -3.04113e-21)
(0.698337 -0.128187 1.64248e-20)
(0.0624589 -0.172285 4.11718e-20)
(0.162874 -0.317223 2.64575e-20)
(0.269025 -0.344117 -1.9946e-20)
(0.358333 -0.32158 3.35395e-20)
(0.435287 -0.286329 -2.80873e-21)
(0.503258 -0.252252 -3.61974e-20)
(0.563722 -0.222027 6.33813e-21)
(0.617827 -0.195381 -3.84206e-20)
(0.666404 -0.17167 1.52753e-21)
(0.708239 -0.150801 1.38893e-20)
(0.0761169 -0.194551 -3.0376e-20)
(0.187566 -0.359737 5.44193e-20)
(0.295628 -0.391253 2.13235e-20)
(0.383156 -0.36623 -2.65008e-20)
(0.457319 -0.326407 3.0382e-22)
(0.522583 -0.287774 6.6602e-20)
(0.580657 -0.253485 2.9686e-21)
(0.63272 -0.22324 2.94347e-20)
(0.679631 -0.196291 3.57957e-20)
(0.719638 -0.172653 -2.00368e-20)
(0.0912469 -0.215165 1.70209e-20)
(0.215109 -0.3997 -8.16444e-21)
(0.325415 -0.435954 -1.93018e-20)
(0.411011 -0.40879 1.43474e-20)
(0.482066 -0.364709 5.56066e-20)
(0.544295 -0.321769 -1.96206e-20)
(0.599683 -0.283624 -3.25176e-21)
(0.64945 -0.249954 -4.23485e-20)
(0.694487 -0.219904 -5.22622e-20)