/*--------------------------------*- C++ -*----------------------------------*\
  =========                 |
  \\      /  F ield         | OpenFOAM: The Open Source CFD Toolbox
   \\    /   O peration     | Website:  https://openfoam.org
    \\  /    A nd           | Version:  7
     \\/     M anipulation  |
\*---------------------------------------------------------------------------*/
FoamFile
{
    version     2.0;
    format      ascii;
    class       volScalarField;
    location    "390";
    object      p;
}
// * * * * * * * * * * * * * * * * * * * * * * * * * * * * * * * * * * * * * //

dimensions      [0 2 -2 0 0 0 0];

internalField   nonuniform List<scalar> 
2125
(
-0.397828
-0.401208
-0.402426
-0.403428
-0.404461
-0.405527
-0.40654
-0.407323
-0.407569
-0.407292
-0.389748
-0.39293
-0.393857
-0.394359
-0.394645
-0.394711
-0.394474
-0.393788
-0.392351
-0.390233
-0.382223
-0.385148
-0.385782
-0.385805
-0.385384
-0.384503
-0.383084
-0.381017
-0.378022
-0.374102
-0.375253
-0.377881
-0.378231
-0.377803
-0.37672
-0.374954
-0.372431
-0.369081
-0.36469
-0.359029
-0.368821
-0.371138
-0.371217
-0.370371
-0.368673
-0.366086
-0.362537
-0.358002
-0.352393
-0.345044
-0.362902
-0.364916
-0.364743
-0.363511
-0.361245
-0.357895
-0.353399
-0.347768
-0.341119
-0.33209
-0.357468
-0.359207
-0.358803
-0.357218
-0.354425
-0.350366
-0.344994
-0.338348
-0.330817
-0.320104
-0.352495
-0.354003
-0.353392
-0.351481
-0.348197
-0.343475
-0.337292
-0.329708
-0.321421
-0.309502
-0.347966
-0.349299
-0.348503
-0.346291
-0.342547
-0.337203
-0.330261
-0.321809
-0.312721
-0.299884
-0.343876
-0.345096
-0.344137
-0.341643
-0.337468
-0.331543
-0.323887
-0.314631
-0.304854
-0.291003
-0.34024
-0.341404
-0.340299
-0.33754
-0.332962
-0.326501
-0.31818
-0.308178
-0.297863
-0.282854
-0.337088
-0.338244
-0.337005
-0.333996
-0.329042
-0.322088
-0.313198
-0.302512
-0.291835
-0.275449
-0.334461
-0.335645
-0.334279
-0.331034
-0.325741
-0.318359
-0.30899
-0.297727
-0.286926
-0.268855
-0.33243
-0.333644
-0.332152
-0.328688
-0.323101
-0.315372
-0.305637
-0.293942
-0.2833
-0.263233
-0.331059
-0.332284
-0.330662
-0.326998
-0.32117
-0.313183
-0.30321
-0.291275
-0.281029
-0.25888
-0.330418
-0.331605
-0.329843
-0.326001
-0.31999
-0.31184
-0.301753
-0.28981
-0.27995
-0.25614
-0.330569
-0.331641
-0.329723
-0.32572
-0.319579
-0.311365
-0.301259
-0.28956
-0.279696
-0.255146
-0.331557
-0.332414
-0.330313
-0.326162
-0.319937
-0.31173
-0.301671
-0.290454
-0.279801
-0.255542
-0.333405
-0.333929
-0.331608
-0.327302
-0.321022
-0.312869
-0.302891
-0.292325
-0.280086
-0.257317
-0.336111
-0.336174
-0.33358
-0.329093
-0.322759
-0.314672
-0.304782
-0.294828
-0.280941
-0.263528
-0.339651
-0.339122
-0.336185
-0.331477
-0.325054
-0.317007
-0.307179
-0.297431
-0.282668
-0.277694
-0.343992
-0.342737
-0.339386
-0.334389
-0.327821
-0.319746
-0.309921
-0.299922
-0.285321
-0.278857
-0.349096
-0.346989
-0.343146
-0.33778
-0.330994
-0.322793
-0.312846
-0.302299
-0.287636
-0.278278
-0.351864
-0.347443
-0.34163
-0.334542
-0.326089
-0.31584
-0.304543
-0.28937
-0.277476
-0.352284
-0.345951
-0.338462
-0.329606
-0.31884
-0.306553
-0.290517
-0.276193
-0.357698
-0.350774
-0.34277
-0.333335
-0.321797
-0.308248
-0.291013
-0.27459
-0.356146
-0.34749
-0.337265
-0.324651
-0.30955
-0.290883
-0.272591
-0.352633
-0.341362
-0.327323
-0.310402
-0.290153
-0.270205
-0.329721
-0.310761
-0.28886
-0.267415
-0.310597
-0.287033
-0.264215
-0.28469
-0.260593
-0.407951
-0.40206
-0.398454
-0.402041
-0.429157
-0.466969
-0.473224
-0.416643
-0.317465
-0.230612
-0.1752
-0.14734
-0.152758
-0.169261
-0.176292
-0.149982
-0.111351
-0.0907058
-0.0768918
-0.0713042
-0.0739035
-0.0787309
-0.080932
-0.080101
-0.0632677
-0.0332553
-0.0484643
-0.0601059
-0.0433447
0.00899351
-0.3898
-0.385425
-0.387691
-0.401095
-0.439474
-0.485676
-0.495009
-0.435658
-0.33035
-0.236918
-0.175609
-0.143762
-0.144714
-0.158158
-0.165086
-0.141884
-0.108158
-0.0903853
-0.0783409
-0.074188
-0.0775188
-0.0820774
-0.0825152
-0.0805509
-0.0635128
-0.0335078
-0.0482814
-0.0603345
-0.0433856
0.0095266
-0.373018
-0.370019
-0.377644
-0.399529
-0.447469
-0.501129
-0.513467
-0.452074
-0.341528
-0.242316
-0.175684
-0.140065
-0.136621
-0.147115
-0.15354
-0.133399
-0.104765
-0.0899386
-0.0798282
-0.0772256
-0.0812594
-0.0854179
-0.0840339
-0.0809329
-0.0637446
-0.0337837
-0.0481128
-0.0605703
-0.0434274
0.0100367
-0.357684
-0.355865
-0.368149
-0.397117
-0.452804
-0.513013
-0.528424
-0.465827
-0.351026
-0.246866
-0.17552
-0.13634
-0.128636
-0.13626
-0.141806
-0.124597
-0.101176
-0.0893539
-0.0813382
-0.0803949
-0.0851019
-0.0887296
-0.0854826
-0.0812453
-0.063958
-0.0340784
-0.0479602
-0.0608132
-0.0434725
0.0105203
-0.343781
-0.342904
-0.359015
-0.393572
-0.455424
-0.521169
-0.539798
-0.476905
-0.358893
-0.250633
-0.175204
-0.132673
-0.120909
-0.125718
-0.13006
-0.115556
-0.0974018
-0.088621
-0.0828519
-0.0836692
-0.0890203
-0.0919905
-0.0868562
-0.0814866
-0.0641475
-0.034387
-0.0478246
-0.0610623
-0.043523
0.0109743
-0.331229
-0.330997
-0.350118
-0.388831
-0.455282
-0.525624
-0.547608
-0.48534
-0.365196
-0.253687
-0.17481
-0.12914
-0.113574
-0.115606
-0.118495
-0.10637
-0.0934544
-0.0877318
-0.0843471
-0.0870181
-0.0929862
-0.0951799
-0.0881501
-0.0816556
-0.0643075
-0.0347043
-0.0477067
-0.0613162
-0.0435802
0.0113954
-0.31992
-0.320071
-0.34138
-0.382922
-0.452478
-0.526551
-0.551974
-0.491205
-0.370018
-0.2561
-0.174401
-0.125813
-0.106742
-0.106036
-0.107305
-0.0971463
-0.0893532
-0.0866808
-0.0857983
-0.0904078
-0.096969
-0.0982783
-0.08936
-0.0817512
-0.0644325
-0.0350248
-0.0476064
-0.0615733
-0.0436451
0.0117805
-0.309481
-0.310002
-0.332814
-0.375943
-0.447268
-0.524238
-0.553105
-0.494606
-0.373449
-0.257944
-0.174028
-0.122751
-0.100497
-0.0971114
-0.0966719
-0.0880055
-0.0851236
-0.0854657
-0.0871772
-0.0938025
-0.100937
-0.101267
-0.0904819
-0.0817727
-0.0645168
-0.0353427
-0.0475234
-0.0618314
-0.0437176
0.0121265
-0.300061
-0.300741
-0.324394
-0.368084
-0.440008
-0.519067
-0.551279
-0.495679
-0.375583
-0.259288
-0.17373
-0.120006
-0.094893
-0.0889165
-0.086755
-0.079079
-0.0807979
-0.0840865
-0.0884539
-0.0971653
-0.104856
-0.104131
-0.0915121
-0.0817198
-0.0645553
-0.0356522
-0.0474567
-0.0620878
-0.0437974
0.0124305
-0.291655
-0.292212
-0.316179
-0.3596
-0.431112
-0.511483
-0.546818
-0.49458
-0.376509
-0.2602
-0.173531
-0.117617
-0.0899536
-0.0815138
-0.0776811
-0.0705037
-0.0764159
-0.0825468
-0.089597
-0.100459
-0.108694
-0.106852
-0.0924471
-0.0815925
-0.0645428
-0.0359475
-0.0474047
-0.0623394
-0.0438831
0.0126896
-0.284261
-0.284391
-0.308272
-0.350768
-0.421007
-0.501948
-0.540064
-0.491494
-0.376311
-0.260738
-0.173448
-0.115611
-0.0856781
-0.0749366
-0.069539
-0.0624129
-0.0720219
-0.080853
-0.0905743
-0.103649
-0.112418
-0.109419
-0.093284
-0.0813916
-0.0644752
-0.0362229
-0.0473655
-0.0625827
-0.0439725
0.0129012
-0.277937
-0.277304
-0.300787
-0.341858
-0.4101
-0.49091
-0.531358
-0.486635
-0.375077
-0.26096
-0.173492
-0.114011
-0.0820492
-0.0691892
-0.062376
-0.054926
-0.0676658
-0.079015
-0.0913535
-0.106701
-0.115996
-0.111817
-0.0940203
-0.0811181
-0.0643485
-0.0364727
-0.0473371
-0.0628138
-0.0440629
0.0130624
-0.272771
-0.271016
-0.293833
-0.333104
-0.398747
-0.478764
-0.521026
-0.480211
-0.372915
-0.26093
-0.173685
-0.112835
-0.0790399
-0.0642474
-0.0562002
-0.0481387
-0.0634003
-0.0770455
-0.0919027
-0.109585
-0.119399
-0.114038
-0.094654
-0.080774
-0.0641591
-0.0366917
-0.047317
-0.0630286
-0.0441505
0.0131708
-0.268833
-0.265614
-0.287503
-0.324692
-0.387231
-0.465853
-0.509357
-0.472413
-0.369947
-0.260703
-0.174025
-0.112082
-0.0766049
-0.0600555
-0.0509775
-0.0421183
-0.0592775
-0.0749596
-0.0921903
-0.112276
-0.1226
-0.116069
-0.0951827
-0.0803619
-0.0639018
-0.0368736
-0.0473024
-0.0632227
-0.044231
0.0132237
-0.266154
-0.26118
-0.281862
-0.316748
-0.375746
-0.452634
-0.496595
-0.463406
-0.366237
-0.260246
-0.174424
-0.111675
-0.0746581
-0.0565207
-0.0466236
-0.0369052
-0.0553448
-0.072774
-0.0921853
-0.114752
-0.125575
-0.117905
-0.0956041
-0.0798844
-0.0635726
-0.0370123
-0.0472893
-0.0633911
-0.0442989
0.0132187
-0.264665
-0.257764
-0.276941
-0.309341
-0.364392
-0.439877
-0.482939
-0.453346
-0.361782
-0.259447
-0.174751
-0.111514
-0.073114
-0.0535516
-0.0430272
-0.032476
-0.0516377
-0.0705065
-0.0918572
-0.116995
-0.128306
-0.11954
-0.0959169
-0.0793432
-0.0631758
-0.0371062
-0.0472745
-0.0635274
-0.0443484
0.0131533
-0.264151
-0.255344
-0.27273
-0.302506
-0.353262
-0.426823
-0.468466
-0.442483
-0.356832
-0.258561
-0.175287
-0.111805
-0.0720908
-0.051176
-0.0401477
-0.0288105
-0.048173
-0.0681733
-0.091175
-0.118992
-0.13077
-0.120964
-0.0961252
-0.0787406
-0.062732
-0.0371668
-0.0472634
-0.063628
-0.0443725
0.013025
-0.264362
-0.253833
-0.269141
-0.296202
-0.342473
-0.408105
-0.452851
-0.431144
-0.352228
-0.258625
-0.176965
-0.113196
-0.0719698
-0.0495421
-0.0380318
-0.0259844
-0.0449993
-0.0657901
-0.0901106
-0.12073
-0.132906
-0.122107
-0.0962341
-0.0780887
-0.0622574
-0.0372045
-0.047269
-0.0637056
-0.0443639
0.0128322
-0.265237
-0.253169
-0.265996
-0.290098
-0.331784
-0.392223
-0.435553
-0.418882
-0.347668
-0.259299
-0.17929
-0.11525
-0.0724126
-0.0483268
-0.0363316
-0.0239581
-0.0422602
-0.0634384
-0.088608
-0.122225
-0.134619
-0.122901
-0.0962312
-0.0774123
-0.0616902
-0.0371605
-0.0472648
-0.0637642
-0.0443161
0.0125736
-0.2653
-0.252906
-0.263877
-0.284947
-0.321721
-0.376338
-0.418451
-0.404048
-0.338201
-0.254602
-0.176885
-0.113983
-0.0708399
-0.0460183
-0.0336881
-0.021602
-0.0394299
-0.061001
-0.0867322
-0.123365
-0.136456
-0.123808
-0.0960668
-0.0766989
-0.0608459
-0.036853
-0.0471164
-0.0636089
-0.0442264
0.0122363
-0.255643
-0.251593
-0.263236
-0.28305
-0.317353
-0.368565
-0.404253
-0.386838
-0.321613
-0.241657
-0.167526
-0.107531
-0.0657857
-0.0417904
-0.0290078
-0.0160517
-0.0325492
-0.0542169
-0.082961
-0.126467
-0.141748
-0.126491
-0.0957989
-0.0757175
-0.0595429
-0.0361768
-0.0466167
-0.0626407
-0.0439464
0.0116755
-0.254068
-0.251687
-0.261886
-0.279819
-0.30933
-0.351503
-0.378246
-0.358901
-0.298376
-0.225335
-0.156993
-0.101261
-0.0614541
-0.0380319
-0.0250932
-0.0131018
-0.0297738
-0.0496063
-0.0804295
-0.127905
-0.144647
-0.126948
-0.0942267
-0.0732041
-0.0575624
-0.0359212
-0.0464524
-0.0620445
-0.0441295
0.0110784
-0.251539
-0.250002
-0.258226
-0.274173
-0.298565
-0.331737
-0.350472
-0.330794
-0.276043
-0.209986
-0.147148
-0.0951711
-0.0571924
-0.0344497
-0.0213487
-0.010267
-0.0275073
-0.046332
-0.0788438
-0.128021
-0.145962
-0.126437
-0.0921143
-0.0703153
-0.0553475
-0.0355709
-0.0462248
-0.0614943
-0.0443735
0.0105254
-0.246974
-0.245807
-0.251658
-0.265568
-0.285069
-0.310218
-0.322459
-0.303163
-0.254116
-0.194831
-0.137383
-0.0890678
-0.0529988
-0.0309791
-0.0176818
-0.00715851
-0.0243817
-0.0423756
-0.0765602
-0.127221
-0.146597
-0.125149
-0.089475
-0.0670479
-0.0527648
-0.0350746
-0.045856
-0.0607583
-0.0444346
0.0099362
-0.239548
-0.239056
-0.242665
-0.253378
-0.269541
-0.287942
-0.295042
-0.276578
-0.233051
-0.180175
-0.127859
-0.0829966
-0.0488404
-0.0275526
-0.0140243
-0.00373866
-0.0204351
-0.0372225
-0.0729133
-0.125467
-0.146192
-0.122818
-0.0862179
-0.0633551
-0.0498003
-0.0343895
-0.0453115
-0.0597814
-0.0442679
0.00927658
-0.229344
-0.230149
-0.232071
-0.240492
-0.252908
-0.265835
-0.268987
-0.251578
-0.213118
-0.166092
-0.11858
-0.0769806
-0.044699
-0.0241111
-0.0103266
9.87724e-05
-0.0156789
-0.0308776
-0.0677787
-0.122375
-0.144293
-0.119275
-0.0822922
-0.0592169
-0.0464226
-0.0334625
-0.0445358
-0.0585126
-0.0438555
0.00854331
-0.217245
-0.219571
-0.220389
-0.226618
-0.235871
-0.244532
-0.244735
-0.228402
-0.194435
-0.152655
-0.109589
-0.0710585
-0.0405623
-0.0206054
-0.00653884
0.00444461
-0.0099965
-0.0233266
-0.0609792
-0.117579
-0.140624
-0.114411
-0.0776618
-0.0546196
-0.04261
-0.0322325
-0.0434591
-0.0568688
-0.0431261
0.00773716
-0.203967
-0.207737
-0.207983
-0.212299
-0.218934
-0.224356
-0.222402
-0.207087
-0.177033
-0.139899
-0.100905
-0.065257
-0.0364257
-0.0170026
-0.00261565
0.00935848
-0.00321358
-0.0144379
-0.0521798
-0.110922
-0.134979
-0.10815
-0.0723084
-0.0495611
-0.0383452
-0.0306288
-0.0419988
-0.0547405
-0.0419652
0.00685593
-0.190036
-0.195035
-0.195123
-0.197892
-0.202403
-0.205397
-0.201918
-0.187556
-0.160882
-0.127839
-0.0925436
-0.0595994
-0.0322976
-0.013292
0.00147709
0.0148913
0.00486053
-0.00404623
-0.0411052
-0.102396
-0.127197
-0.100471
-0.0662391
-0.044053
-0.033617
-0.0285725
-0.0400582
-0.0520017
-0.0402439
0.00589781
-0.175882
-0.181805
-0.18201
-0.183619
-0.186438
-0.187631
-0.183133
-0.169678
-0.145921
-0.116471
-0.0845187
-0.0541035
-0.0282012
-0.0094858
0.0057447
0.0210791
0.0143733
0.00790676
-0.0277455
-0.0920916
-0.117174
-0.0914184
-0.0594924
-0.0381232
-0.0284207
-0.025981
-0.0375289
-0.0485162
-0.0378329
0.00486553
-0.161795
-0.168326
-0.168804
-0.169614
-0.171119
-0.170998
-0.165877
-0.153304
-0.132079
-0.105783
-0.0768425
-0.0487828
-0.024175
-0.00561892
0.0101461
0.0278792
0.0252921
0.0212028
-0.0125021
-0.0801987
-0.104983
-0.0811135
-0.0521395
-0.0318186
-0.0227581
-0.0227733
-0.0342945
-0.0441486
-0.0346074
0.00376918
-0.147963
-0.15483
-0.155645
-0.155957
-0.156487
-0.155433
-0.149993
-0.138289
-0.119279
-0.0957564
-0.0695295
-0.0436483
-0.0202676
-0.00175396
0.0145965
0.0350792
0.0371426
0.0351122
0.00362923
-0.0669133
-0.0908838
-0.0697689
-0.0442848
-0.0252056
-0.0166425
-0.0188766
-0.0302344
-0.0387776
-0.0304559
0.00262829
-0.134533
-0.141515
-0.142668
-0.142714
-0.142562
-0.140876
-0.135346
-0.124503
-0.107448
-0.0863695
-0.0625946
-0.0387143
-0.016527
0.00201025
0.0189758
0.0422064
0.0487769
0.0482207
0.0190589
-0.0523138
-0.0751612
-0.0576866
-0.0360622
-0.0183708
-0.0101025
-0.0142379
-0.0252349
-0.0323148
-0.0253005
0.00147198
-0.12162
-0.12854
-0.130008
-0.129948
-0.129357
-0.127277
-0.121824
-0.111831
-0.0965195
-0.0776003
-0.0560494
-0.0340039
-0.0129902
0.00554527
0.0231164
0.0485225
0.0586527
0.0588292
0.0321686
-0.0364725
-0.0583254
-0.0452564
-0.0276291
-0.0114184
-0.00318718
-0.00883334
-0.0192127
-0.02473
-0.0191241
0.00033633
-0.109307
-0.116031
-0.117759
-0.117713
-0.11688
-0.114593
-0.109338
-0.100175
-0.0864302
-0.0694285
-0.0498994
-0.0295495
-0.00968678
0.00871866
0.0267918
0.053244
0.0655971
0.0658669
0.0420695
-0.0199338
-0.0411987
-0.0329404
-0.0191582
-0.00446473
0.00402336
-0.00267999
-0.0121396
-0.0160801
-0.0120051
-0.000731015
-0.0976579
-0.10409
-0.106019
-0.106062
-0.105134
-0.102787
-0.0978134
-0.0894537
-0.077124
-0.061836
-0.0441458
-0.0253854
-0.00665049
0.0114168
0.0297434
0.0558243
0.0692887
0.0693384
0.0487057
-0.00400249
-0.0248393
-0.0212065
-0.0108252
0.00237036
0.0114086
0.00414493
-0.00407564
-0.00653687
-0.00416103
-0.00165255
-0.0867182
-0.0927932
-0.0948672
-0.0950381
-0.0941219
-0.0918244
-0.0871879
-0.0795989
-0.068551
-0.0548062
-0.0387892
-0.0215391
-0.00392347
0.0135584
0.0317393
0.0562215
0.0700728
0.0699149
0.0524332
0.00983738
-0.0101709
-0.0104229
-0.00279953
0.00896497
0.0188055
0.0114821
0.00479314
0.00359473
0.0040368
-0.00232139
-0.0765164
-0.0821942
-0.0843615
-0.084678
-0.0838462
-0.0816757
-0.0774102
-0.0705539
-0.0606688
-0.0483228
-0.0338317
-0.0180271
-0.00154582
0.0151146
0.0326832
0.0548616
0.0685036
0.0683835
0.0538195
0.0206797
0.00224954
-0.000796348
0.00476265
0.015193
0.0260028
0.0190722
0.0141119
0.0138732
0.0120788
-0.00261118
-0.0670685
-0.0723298
-0.0745457
-0.0750094
-0.0743073
-0.0723156
-0.0684374
-0.062272
-0.0534422
-0.0423696
-0.0292763
-0.0148551
0.000460881
0.0161154
0.0326637
0.0520138
0.0652003
0.0654828
0.0535828
0.0284682
0.0122875
0.00760631
0.0117257
0.0209293
0.0327228
0.0265593
0.0234154
0.0237301
0.0193845
-0.002399
-0.0583798
-0.0632218
-0.0654502
-0.0660535
-0.0655054
-0.0637224
-0.0602339
-0.0547145
-0.0468427
-0.0369306
-0.0251234
-0.0120197
0.00210389
0.0166357
0.0319215
0.0486675
0.0608698
0.0618321
0.0523778
0.033698
0.020132
0.0148055
0.0179875
0.0260755
0.0386251
0.0335178
0.0319685
0.0325085
0.0254413
-0.00159638
-0.0504495
-0.0548821
-0.0570949
-0.057824
-0.0574393
-0.0558786
-0.0527708
-0.0478504
-0.0408465
-0.0319905
-0.0213689
-0.00950938
0.00341497
0.0167685
0.0306888
0.0451755
0.0561392
0.0578752
0.0506658
0.0369932
0.0261028
0.0208651
0.0234777
0.0305872
0.043399
0.0395216
0.0389977
0.0395564
0.0299497
-0.000176564
-0.0432722
-0.0473153
-0.0494914
-0.0503299
-0.0501078
-0.0487702
-0.0460253
-0.0416548
-0.0354346
-0.0275354
-0.0180038
-0.00730677
0.00444033
0.0166118
0.0291682
0.0417407
0.0514607
0.0539096
0.0487342
0.0389158
0.0305332
0.025874
0.0281518
0.0344399
0.0468773
0.0442721
0.0440457
0.0443826
0.0329075
0.00179674
-0.0368409
-0.0405214
-0.042647
-0.0435777
-0.04351
-0.0423872
-0.0399807
-0.0361094
-0.0305919
-0.0235532
-0.0150163
-0.00539117
0.00523172
0.0162619
0.0275284
0.0384984
0.0471098
0.0501344
0.04676
0.0399035
0.0337314
0.0299349
0.0320028
0.0376167
0.0490111
0.0476771
0.0469645
0.0468804
0.034559
0.00412246
-0.0311493
-0.0344999
-0.0365666
-0.0375733
-0.037647
-0.036724
-0.0346261
-0.0312016
-0.0263076
-0.0200343
-0.0123938
-0.00374085
0.00583892
0.0158045
0.0259027
0.0355596
0.0432348
0.0466806
0.044853
0.0402815
0.0359669
0.0331555
0.035067
0.0401294
0.0499561
0.0491386
0.0481736
0.0474541
0.0352222
0.00645474
-0.026194
-0.0292516
-0.0312563
-0.032324
-0.0325231
-0.0317806
-0.0299572
-0.0269258
-0.0225762
-0.0169729
-0.0101254
-0.00233589
0.00630433
0.0153101
0.0243878
0.0329837
0.0399052
0.0436321
0.0430863
0.0402831
0.0374719
0.0356426
0.0374244
0.0420211
0.0500988
0.0501207
0.0483851
0.0468013
0.0351533
0.00844367
-0.0219784
-0.024783
-0.0267267
-0.0278422
-0.0281489
-0.027564
-0.0259779
-0.0232837
-0.0193986
-0.0143683
-0.00820425
-0.00116108
0.00666087
0.0148327
0.0230498
0.0308006
0.0371395
0.0410381
0.0415148
0.0400728
0.0384399
0.0374999
0.0391817
0.0433583
0.0497906
0.0503554
0.0481267
0.0455814
0.0345587
0.0099022
-0.0185129
-0.0211077
-0.0229959
-0.0241475
-0.024543
-0.0240903
-0.0227017
-0.0202864
-0.016784
-0.0122266
-0.00662961
-0.000207322
0.00693259
0.0144109
0.0219305
0.029026
0.0349302
0.0389251
0.0401802
0.0397696
0.039028
0.0388299
0.0404507
0.0442325
0.0493034
0.0501035
0.0476898
0.0442528
0.033667
0.010827
-0.0158229
-0.0182535
-0.0200945
-0.0212722
-0.0217367
-0.0213888
-0.0201547
-0.0179571
-0.014752
-0.010563
-0.00540902
0.00052717
0.00713391
0.0140708
0.0210575
0.0276675
0.0332626
0.0373078
0.0391208
0.0394596
0.0393621
0.0397289
0.0413279
0.0447541
0.0488132
0.0496352
0.0472156
0.0430831
0.0327198
0.0113334
-0.0139516
-0.0162678
-0.0180745
-0.0192684
-0.0197805
-0.0195065
-0.0183806
-0.016335
-0.0133368
-0.00940482
-0.0045603
0.00103563
0.00727021
0.0138299
0.0204512
0.026735
0.03213
0.0361994
0.0383734
0.0392074
0.0395313
0.0402803
0.0418824
0.04503
0.0484282
0.0491756
0.046803
0.0422186
0.0319313
0.0115662
-0.0129555
-0.0152143
-0.0170034
-0.0182078
-0.018746
-0.0185124
-0.0174437
-0.0154791
-0.0125897
-0.00879421
-0.00411318
0.0013024
0.00734037
0.0137014
0.0201321
0.026248
0.0315431
0.0356223
0.0379784
0.0390636
0.0396048
0.040544
0.0421563
0.0451397
0.0482135
0.0488922
0.0465578
0.0417497
0.0314718
0.0116495
-0.235465
-0.240004
-0.244104
-0.247774
-0.251028
-0.253902
-0.256461
-0.258896
-0.261359
-0.26496
-0.268869
-0.280415
-0.218806
-0.223684
-0.228238
-0.232514
-0.236568
-0.240535
-0.244504
-0.24891
-0.25347
-0.259847
-0.264308
-0.275789
-0.202993
-0.208243
-0.213315
-0.218277
-0.223168
-0.228129
-0.233034
-0.238262
-0.24279
-0.248452
-0.25123
-0.260557
-0.188119
-0.193595
-0.198948
-0.204222
-0.209367
-0.214469
-0.219231
-0.224097
-0.228109
-0.233413
-0.237033
-0.245732
-0.17381
-0.179275
-0.184608
-0.189833
-0.194879
-0.19987
-0.204598
-0.209618
-0.214246
-0.220056
-0.224769
-0.232393
-0.160013
-0.165346
-0.170567
-0.17572
-0.180776
-0.185886
-0.19091
-0.196213
-0.201217
-0.206771
-0.211597
-0.218225
-0.146877
-0.152064
-0.157188
-0.162294
-0.16736
-0.17247
-0.177489
-0.182591
-0.187451
-0.192605
-0.197616
-0.203847
-0.134449
-0.139455
-0.144421
-0.149366
-0.154267
-0.15916
-0.163983
-0.168857
-0.173691
-0.178752
-0.18393
-0.189835
-0.122667
-0.127435
-0.132167
-0.136875
-0.141557
-0.146244
-0.150931
-0.155677
-0.160453
-0.16533
-0.170369
-0.175915
-0.111511
-0.116014
-0.120496
-0.124967
-0.129437
-0.13392
-0.138418
-0.142939
-0.147489
-0.152089
-0.156902
-0.162153
-0.100989
-0.105223
-0.109444
-0.113661
-0.117878
-0.122101
-0.126334
-0.130583
-0.134879
-0.139231
-0.143801
-0.148741
-0.0910868
-0.0950415
-0.0989859
-0.102925
-0.106865
-0.11081
-0.114773
-0.118756
-0.12279
-0.126868
-0.131138
-0.135725
-0.081779
-0.0854516
-0.0891153
-0.0927749
-0.0964369
-0.100106
-0.103791
-0.107491
-0.111232
-0.115008
-0.118953
-0.123176
-0.0730531
-0.0764485
-0.0798355
-0.0832181
-0.0866012
-0.0899878
-0.0933856
-0.0967941
-0.100237
-0.103708
-0.107328
-0.111183
-0.0648921
-0.0680181
-0.0711346
-0.0742446
-0.0773522
-0.0804601
-0.0835752
-0.0866974
-0.0898465
-0.0930167
-0.0963112
-0.099801
-0.0601456
-0.0630014
-0.0658487
-0.0686907
-0.0715297
-0.0743713
-0.0772151
-0.0800774
-0.0829526
-0.0859302
-0.089067
-0.052817
-0.0554253
-0.0580226
-0.0606115
-0.0631936
-0.0657734
-0.0683504
-0.0709384
-0.073532
-0.0762078
-0.0790101
-0.0460183
-0.0483939
-0.0507559
-0.0531063
-0.0554463
-0.0577795
-0.0601053
-0.0624351
-0.0647638
-0.0671561
-0.069646
-0.0397358
-0.0418949
-0.0440379
-0.0461662
-0.0482809
-0.0503845
-0.0524767
-0.0545663
-0.056649
-0.0587785
-0.0609807
-0.0339564
-0.0359161
-0.0378574
-0.0397814
-0.0416886
-0.0435811
-0.0454583
-0.0473275
-0.0491845
-0.0510738
-0.0530142
-0.0286705
-0.0304482
-0.0322056
-0.0339432
-0.0356614
-0.0373616
-0.0390434
-0.0407124
-0.0423649
-0.0440371
-0.0457422
-0.0238689
-0.0254823
-0.0270736
-0.0286432
-0.0301911
-0.0317185
-0.0332247
-0.034714
-0.0361834
-0.0376617
-0.0391578
-0.019546
-0.0210126
-0.0224558
-0.0238755
-0.0252719
-0.0266455
-0.0279958
-0.0293261
-0.0306335
-0.0319409
-0.0332536
-0.0156985
-0.0170358
-0.0183487
-0.0196369
-0.0209003
-0.0221392
-0.0233532
-0.0245445
-0.0257109
-0.0268698
-0.0280239
-0.0123273
-0.0135527
-0.0147528
-0.0159274
-0.0170762
-0.0181993
-0.0192961
-0.0203684
-0.0214142
-0.0224465
-0.0234659
-0.00944014
-0.0105709
-0.0116759
-0.0127548
-0.0138071
-0.0148329
-0.0158317
-0.0168044
-0.0177496
-0.0186766
-0.0195841
-0.00704746
-0.00810089
-0.0091283
-0.0101293
-0.0111035
-0.0120507
-0.0129703
-0.0138631
-0.0147277
-0.0155704
-0.016389
-0.00517809
-0.00617137
-0.00713867
-0.00807956
-0.00899359
-0.0098805
-0.0107398
-0.0115717
-0.0123752
-0.0131545
-0.013906
-0.00385633
-0.00480879
-0.00573561
-0.00663628
-0.00751032
-0.00835736
-0.00917687
-0.00996895
-0.0107324
-0.0114701
-0.0121775
-0.00313389
-0.00406175
-0.00496487
-0.0058428
-0.00669507
-0.00752133
-0.00832107
-0.00909427
-0.0098398
-0.0105597
-0.0112492
-0.0598846
-0.0433021
0.00844078
)
;

boundaryField
{
    inlet
    {
        type            zeroGradient;
    }
    outlet
    {
        type            fixedValue;
        value           uniform 0;
    }
    cylinder
    {
        type            zeroGradient;
    }
    top
    {
        type            symmetryPlane;
    }
    bottom
    {
        type            symmetryPlane;
    }
    defaultFaces
    {
        type            empty;
    }
    procBoundary3to1
    {
        type            processor;
        value           nonuniform List<scalar> 
41
(
-0.406441
-0.409939
-0.411438
-0.412954
-0.414761
-0.416867
-0.419179
-0.421492
-0.423495
-0.425056
-0.427272
-0.419787
-0.410005
-0.402679
-0.417297
-0.445117
-0.448496
-0.395135
-0.302875
-0.223346
-0.174353
-0.150702
-0.160598
-0.180287
-0.187038
-0.157635
-0.11434
-0.0909123
-0.0754927
-0.0685915
-0.0704343
-0.0754022
-0.0792902
-0.0795851
-0.063014
-0.0330302
-0.0486596
-0.0596701
-0.0432548
0.00787183
-0.0486596
)
;
    }
    procBoundary3to2
    {
        type            processor;
        value           nonuniform List<scalar> 
50
(
-0.354932
-0.354932
-0.35736
-0.35736
-0.363488
-0.363728
-0.363728
-0.362104
-0.362104
-0.358186
-0.345555
-0.345555
-0.33175
-0.33175
-0.309884
-0.309884
-0.28183
-0.25653
-0.25653
-0.230478
-0.213579
-0.197524
-0.182503
-0.168224
-0.154575
-0.141622
-0.129398
-0.117862
-0.106978
-0.0967352
-0.0871164
-0.0780924
-0.0696449
-0.0617531
-0.0572785
-0.0572785
-0.0501955
-0.0436275
-0.0375597
-0.0319777
-0.026872
-0.0222333
-0.018056
-0.0143368
-0.0110769
-0.00828396
-0.00596851
-0.00415937
-0.00287877
-0.00218178
)
;
    }
}


// ************************************************************************* //
