/*--------------------------------*- C++ -*----------------------------------*\
  =========                 |
  \\      /  F ield         | OpenFOAM: The Open Source CFD Toolbox
   \\    /   O peration     | Website:  https://openfoam.org
    \\  /    A nd           | Version:  7
     \\/     M anipulation  |
\*---------------------------------------------------------------------------*/
FoamFile
{
    version     2.0;
    format      ascii;
    class       surfaceScalarField;
    location    "390";
    object      phi;
}
// * * * * * * * * * * * * * * * * * * * * * * * * * * * * * * * * * * * * * //

dimensions      [0 3 -1 0 0 0 0];

internalField   nonuniform List<scalar> 
4147
(
-0.000148775
-0.0010875
-0.000505741
-0.00188922
-0.00102812
-0.00172827
-0.00168695
-0.000894226
-0.00246207
0.000366195
-0.00333618
0.00192359
-0.00429236
0.00378668
-0.00531768
0.0060662
-0.00640625
0.00891994
0.0125595
-0.0075606
-0.000143729
-0.000943773
-0.000483766
-0.00154918
-0.000975234
-0.0012368
-0.00158882
-0.000280636
-0.00230445
0.00108182
-0.0031035
0.00272264
-0.00396465
0.00464783
-0.00486675
0.0069683
-0.00579185
0.00984504
0.0134835
-0.00671588
-0.000135206
-0.000808567
-0.000450936
-0.00123345
-0.000900787
-0.00078695
-0.0014546
0.000273177
-0.00209131
0.00171853
-0.00278956
0.00342089
-0.00352171
0.00537998
-0.0042553
0.00770189
-0.00495747
0.0105472
0.0140987
-0.00557266
-0.000124311
-0.000684256
-0.000410693
-0.000947072
-0.000811383
-0.000386259
-0.00129465
0.000756449
-0.00183739
0.00226126
-0.00241442
0.00399793
-0.00299056
0.00595612
-0.00352009
0.00823142
-0.00395417
0.0109813
0.0143491
-0.00420453
-0.000112249
-0.000572007
-0.000366796
-0.000692525
-0.000714295
-3.876e-05
-0.00112057
0.00116273
-0.00155942
0.00270011
-0.00200108
0.00443959
-0.00240236
0.00635739
-0.00270333
0.0085324
-0.00283948
0.0111174
0.0142047
-0.00269516
-0.000100242
-0.000471765
-0.000323066
-0.000469701
-0.000617
0.000255174
-0.000944462
0.00149019
-0.00127518
0.00303083
-0.00157426
0.00473867
-0.00179067
0.0065738
-0.00185002
0.00859174
-0.00167146
0.0109389
0.0136709
-0.0011376
-8.94375e-05
-0.000382328
-0.000283114
-0.000276025
-0.000526661
0.000498721
-0.000778133
0.00174166
-0.00100236
0.00325506
-0.00115897
0.00489527
-0.00118982
0.00660465
-0.00100666
0.00840859
-0.000494489
0.0104267
0.0127599
0.000416458
-8.08224e-05
-0.000301505
-0.000250063
-0.000106784
-0.00044957
0.000698228
-0.000632191
0.00192428
-0.000757199
0.00338007
-0.000778607
0.00491668
-0.000632121
0.00645816
-0.000223949
0.00800042
0.000586013
0.00961675
0.0114064
0.00193957
-7.51452e-05
-0.00022636
-0.00022628
4.43506e-05
-0.000390578
0.000862527
-0.000515026
0.00204873
-0.000552898
0.00341794
-0.000452607
0.00481639
-0.000142288
0.00614784
0.000476692
0.00738144
0.00154721
0.00854623
0.00965659
0.00329701
-7.28404e-05
-0.00015352
-0.000213123
0.000184633
-0.000352538
0.00100194
-0.000431789
0.00212798
-0.000397934
0.00338409
-0.000194236
0.00461269
0.000253223
0.00570038
0.00105542
0.00657924
0.00236073
0.00724091
0.00754587
0.00447144
-7.39651e-05
-7.95546e-05
-0.000210717
0.000321385
-0.000335796
0.00112702
-0.000383387
0.00217557
-0.000294224
0.00329492
-6.38815e-06
0.00432485
0.00055791
0.00513608
0.00151295
0.00562421
0.00301889
0.00573497
0.00509528
0.00546948
-7.81508e-05
-1.40388e-06
-0.000217809
0.000461043
-0.000337827
0.00124704
-0.000365696
0.00220344
-0.00023553
0.00316476
0.0001203
0.00396902
0.000784705
0.00447168
0.00187509
0.00453383
0.00356597
0.00404409
0.0023069
0.00635435
-8.45784e-05
8.31745e-05
-0.00023171
0.000608174
-0.000353089
0.00136842
-0.000369173
0.00221953
-0.000206569
0.00300215
0.000210235
0.00355222
0.000972032
0.00370988
0.0022034
0.00330246
0.00410449
0.002143
-0.000844376
0.00725577
-9.20567e-05
0.000175231
-0.000248422
0.000764539
-0.000373227
0.00149322
-0.000379099
0.0022254
-0.000183216
0.00280627
0.000301502
0.0030675
0.0011805
0.00283088
0.00259269
0.00189026
0.00478736
-5.1667e-05
-0.00441033
0.00835332
-9.90502e-05
0.000274281
-0.00026295
0.000928439
-0.000387725
0.001618
-0.000376734
0.00221441
-0.000134747
0.00256428
0.000443019
0.00248974
0.00148579
0.00178812
0.00315704
0.000219005
0.00578246
-0.00267709
-0.00845021
0.00982234
-0.0001039
0.000378181
-0.000269847
0.00109439
-0.000385039
0.00173319
-0.000341372
0.00217074
-2.65043e-05
0.00224942
0.00068742
0.00177581
0.00196508
0.000510461
0.00400194
-0.00181786
0.00721929
-0.00589443
-0.0129885
0.0117575
-0.000105041
0.000483222
-0.000263925
0.00125327
-0.000354088
0.00182335
-0.00025332
0.00206997
0.000171644
0.00182445
0.00108194
0.000865514
0.00268147
-0.00108906
0.00520289
-0.00433928
0.00913493
-0.00982647
-0.0179721
0.0141185
-0.000101247
0.000584469
-0.000241001
0.00139303
-0.000285836
0.00186819
-9.6265e-05
0.0018804
0.000486816
0.00124137
0.00166047
-0.000308139
0.00367095
-0.00309955
0.00678636
-0.00745469
0.0114595
-0.0144996
-0.0232558
0.0167432
-9.18339e-05
0.000676303
-0.000198518
0.00149971
-0.000174639
0.00184431
0.000139236
0.00156653
0.000931913
0.000448695
0.00243708
-0.0018133
0.00493569
-0.00559816
0.00872426
-0.0112433
0.0140422
-0.0198176
-0.0286406
0.019427
-7.67521e-05
0.000753055
-0.000135842
0.0015588
-1.85353e-05
0.001727
0.000456016
0.00109197
0.00150803
-0.000603323
0.00340439
-0.00370966
0.00644128
-0.00863504
0.0109178
-0.0157198
0.0167226
-0.0256224
-0.0339586
0.0220406
-5.65471e-05
0.000809602
-5.4085e-05
0.00155634
0.000179701
0.00149322
0.00084984
0.000421836
0.00220513
-0.00195861
0.00453672
-0.00604125
0.00812594
-0.0122243
0.0131855
-0.0207793
0.0192329
-0.0316698
-0.041953
0.0272273
-3.22173e-05
0.000841819
4.40008e-05
0.00148012
0.00041609
0.00112113
0.00131201
-0.000474085
0.00300559
-0.0036522
0.00579592
-0.00883158
0.0099129
-0.0163412
0.0153888
-0.0262552
0.0216329
-0.0379139
-0.0492868
0.0289667
-4.64638e-06
0.000155574
0.0013199
0.000684539
0.000592162
0.00183162
-0.00162117
0.00388796
-0.00570853
0.00713653
-0.0120801
0.0117109
-0.0209156
0.0174177
-0.0319621
0.0236107
-0.0441069
-0.0557817
0.0301056
0.000278195
0.0009795
-0.000109144
0.00239767
-0.00303934
0.00482914
-0.00814
0.00850864
-0.0157596
0.0134264
-0.0258334
0.0191751
-0.0377108
0.0250541
-0.0499859
-0.0614768
0.0307493
0.0012965
-0.000995897
0.00299995
-0.00474279
0.00580452
-0.0109446
0.00985829
-0.0198134
0.0149738
-0.030949
0.0205743
-0.0433113
0.025981
-0.0553926
-0.0663867
0.0308909
0.00163233
0.00362862
-0.00673908
0.00678683
-0.0141028
0.0111289
-0.0241555
0.0162824
-0.0361025
0.0215753
-0.0486042
0.0264172
-0.0602345
-0.0705605
0.030591
0.00427283
0.00774503
-0.017575
0.0122655
-0.028676
0.0173031
-0.0411401
0.0221734
-0.0534745
0.02642
-0.064481
-0.0740795
0.029939
0.00864473
0.0132212
0.0180121
-0.045931
0.0223929
-0.0578552
0.0260579
-0.068146
-0.07703
0.0290085
0.0184089
0.0222751
-0.0617214
0.0253994
-0.0712704
-0.0794995
0.0278689
0.0218695
0.0245085
-0.0739093
-0.0815661
0.026575
0.02344
0.0251705
-0.00885026
0.0339548
-0.00902254
0.0538714
-0.00786144
0.0726214
-0.00475179
0.0857379
0.000290656
0.0807953
0.00625655
0.0506669
0.0122363
-0.0023808
0.0176782
-0.0640565
0.0215056
-0.112644
0.0235491
-0.139317
0.0234245
-0.147721
0.020356
-0.149449
0.0182092
-0.157125
0.0211144
-0.103498
0.0265427
-0.00730154
0.0311938
0.0841527
0.0335371
0.136665
0.0327255
0.147076
0.0294237
0.189392
0.0275868
0.162928
0.0299983
0.109817
0.03319
0.00218927
0.034235
-0.0943066
0.034509
-0.137848
0.0343523
-0.247515
0.0340419
-0.156256
0.0343782
-0.0925541
0.0353231
0.0420177
-0.0429626
0.0350468
0.29059
-0.290314
0.15935
-0.158602
-0.00762558
0.0348645
-0.00732344
0.0535693
-0.00563177
0.0709297
-0.00201494
0.0821211
0.00322721
0.0755532
0.00875009
0.045144
0.0141383
-0.007769
0.018968
-0.0688861
0.0222059
-0.115882
0.0237392
-0.140851
0.0234619
-0.147443
0.0203735
-0.146361
0.0177797
-0.154531
0.0202942
-0.106012
0.0259097
-0.012917
0.03096
0.0791024
0.033582
0.134043
0.0328592
0.147799
0.0295444
0.192707
0.0276847
0.164788
0.0301036
0.107398
0.0332735
-0.000980622
0.0342559
-0.0952889
0.0345016
-0.138094
0.0343545
-0.247368
0.0340408
-0.155942
0.0343554
-0.0928687
0.0352489
0.0411242
0.0349517
0.290888
0.160075
-0.00605052
0.0353424
-0.00527309
0.0527919
-0.00308406
0.0687407
0.000934403
0.0781026
0.00616928
0.0703183
0.0112318
0.0400815
0.0160095
-0.0125467
0.0202187
-0.0730953
0.0228832
-0.118547
0.0239193
-0.141887
0.0234885
-0.147013
0.0204326
-0.143305
0.017436
-0.151535
0.01951
-0.108086
0.0252647
-0.0186717
0.030701
0.0736661
0.0336099
0.131134
0.032987
0.148422
0.029671
0.196023
0.0277961
0.166662
0.0302088
0.104985
0.033345
-0.0041168
0.0342644
-0.0962083
0.0344755
-0.138305
0.034335
-0.247227
0.0340267
-0.155634
0.0343272
-0.0931692
0.035169
0.0402824
0.03485
0.291207
0.160773
-0.00422076
0.0353586
-0.00298628
0.0515574
-0.000350692
0.0661051
0.00398353
0.0737684
0.00908025
0.0652216
0.0136596
0.0355022
0.0178282
-0.0167153
0.0214188
-0.0766858
0.0235288
-0.120657
0.0240852
-0.142443
0.023499
-0.146426
0.0205214
-0.140327
0.0171799
-0.148193
0.018778
-0.109684
0.0246143
-0.024508
0.0304185
0.067862
0.0336205
0.127932
0.0331096
0.148933
0.0298064
0.199326
0.0279221
0.168547
0.0303128
0.102595
0.0334034
-0.00720742
0.0342602
-0.0970651
0.0344305
-0.138475
0.0342934
-0.24709
0.0339991
-0.155339
0.034293
-0.0934631
0.0350831
0.0394924
0.0347418
0.291548
0.161441
-0.0022389
0.0349023
-0.000604055
0.0499225
0.00248937
0.0630117
0.00700909
0.0692487
0.0118987
0.060332
0.015994
0.0314069
0.019574
-0.0202954
0.0225577
-0.0796695
0.024134
-0.122233
0.0242325
-0.142542
0.0234886
-0.145683
0.0206274
-0.137466
0.0170102
-0.144576
0.0181137
-0.110788
0.0239658
-0.0303601
0.0301139
0.0617139
0.0336132
0.124432
0.0332278
0.149318
0.0299531
0.2026
0.0280629
0.170437
0.0304144
0.100243
0.0334478
-0.0102409
0.0342427
-0.09786
0.0343661
-0.138598
0.0342295
-0.246954
0.0339572
-0.155067
0.0342522
-0.0937582
0.0349912
0.0387534
0.0346274
0.291912
0.162076
-0.000231473
0.0339962
0.00189084
0.0478002
0.0052905
0.059612
0.00992918
0.06461
0.0145673
0.0556938
0.0181995
0.0277748
0.0212286
-0.0233244
0.0236259
-0.0820668
0.0246905
-0.123298
0.0243566
-0.142208
0.023453
-0.144779
0.0207382
-0.134751
0.0169226
-0.140761
0.0175313
-0.111396
0.0233283
-0.0361572
0.0297892
0.0552531
0.0335871
0.120634
0.033342
0.149563
0.0301128
0.20583
0.0282181
0.172332
0.0305122
0.097949
0.0334773
-0.013206
0.0342113
-0.098594
0.0342824
-0.13867
0.0341431
-0.246814
0.0339005
-0.154824
0.0342041
-0.0940618
0.034893
0.0380645
0.0345071
0.292298
0.162675
0.00182078
0.0325919
0.00428873
0.0453323
0.00796294
0.0559378
0.0126654
0.0599076
0.0170344
0.0513248
0.0202463
0.0245628
0.0227766
-0.0258547
0.024615
-0.0839052
0.025191
-0.123874
0.0244528
-0.141469
0.0233882
-0.143714
0.0208419
-0.132205
0.0169093
-0.136828
0.0170408
-0.111528
0.0227124
-0.0418288
0.029447
0.0485185
0.0335408
0.116541
0.0334523
0.149652
0.0302867
0.208995
0.0283866
0.174232
0.0306049
0.0957306
0.0334912
-0.0160924
0.0341655
-0.0992682
0.0341791
-0.138683
0.0340343
-0.24667
0.0338286
-0.154619
0.0341479
-0.0943811
0.0347883
0.037424
0.0343813
0.292705
0.163232
0.00372463
0.0308068
0.00652265
0.0425343
0.0104243
0.0520361
0.0151501
0.0551818
0.0192559
0.047219
0.0221076
0.0217112
0.0242065
-0.0279536
0.0255181
-0.0852168
0.0256284
-0.123984
0.0245164
-0.140357
0.023291
-0.142489
0.0209278
-0.129842
0.016959
-0.132859
0.0166477
-0.111217
0.0221283
-0.0473094
0.0290899
0.0415569
0.0334727
0.112158
0.0335581
0.149567
0.0304747
0.212079
0.0285665
0.17614
0.0306908
0.0936063
0.0334888
-0.0188904
0.0341046
-0.099884
0.034056
-0.138635
0.0339033
-0.246517
0.0337411
-0.154457
0.0340829
-0.0947228
0.034677
0.0368299
0.0342505
0.293131
0.163746
0.00544738
0.0286564
0.00853128
0.0394504
0.012611
0.0479564
0.0173303
0.0504625
0.021199
0.0433502
0.0237644
0.0191459
0.0255111
-0.0297004
0.0263298
-0.0860355
0.0259968
-0.123651
0.0245431
-0.138904
0.0231588
-0.141105
0.020986
-0.127669
0.0170575
-0.128931
0.0163508
-0.11051
0.0215851
-0.0525437
0.0287205
0.0344215
0.033381
0.107497
0.0336584
0.149289
0.0306761
0.215061
0.0287554
0.178061
0.0307681
0.0915935
0.0334693
-0.0215915
0.034028
-0.100443
0.0339132
-0.13852
0.0337502
-0.246354
0.0336379
-0.154344
0.0340083
-0.0950933
0.0345586
0.0362797
0.0341149
0.293575
0.164212
0.00695158
0.0261763
0.0102724
0.0361296
0.0144814
0.0437474
0.0191708
0.0457731
0.0228445
0.0396766
0.0252104
0.01678
0.0266874
-0.0311774
0.0270461
-0.0863943
0.0262906
-0.122896
0.0245288
-0.137142
0.0229895
-0.139565
0.021008
-0.125687
0.0171884
-0.125111
0.016143
-0.109464
0.0210881
-0.0574889
0.0283408
0.0271688
0.0332633
0.102575
0.0337515
0.148801
0.0308891
0.217923
0.0289504
0.179999
0.0308351
0.0897089
0.0334319
-0.0241884
0.0339353
-0.100946
0.0337507
-0.138335
0.0335757
-0.246179
0.0335188
-0.154287
0.0339235
-0.0954981
0.0344331
0.0357701
0.0339752
0.294033
0.164626
0.0082294
0.0234164
0.0117311
0.0326278
0.0160195
0.039459
0.0206578
0.0411348
0.0241903
0.0361441
0.0264515
0.0145188
0.0277348
-0.0324607
0.0276637
-0.0863232
0.0265052
-0.121737
0.0244698
-0.135106
0.0227815
-0.137877
0.0209863
-0.123892
0.0173347
-0.121459
0.0160112
-0.108141
0.0206379
-0.0621156
0.0279514
0.0198553
0.0331172
0.097409
0.033835
0.148083
0.0311113
0.220647
0.0291483
0.181962
0.0308898
0.0879674
0.033376
-0.0266746
0.0338261
-0.101396
0.0335686
-0.138078
0.0333803
-0.245991
0.0333839
-0.154291
0.0338278
-0.095942
0.0343
0.0352979
0.0338316
0.294501
0.164984
0.00931475
0.020456
0.0129283
0.0290143
0.0172403
0.035147
0.0218039
0.0365711
0.025255
0.032693
0.0275052
0.0122687
0.028649
-0.0336046
0.0281797
-0.0858539
0.0266368
-0.120194
0.0243626
-0.132832
0.0225335
-0.136048
0.0209145
-0.122273
0.0174798
-0.118025
0.0159377
-0.106599
0.0202288
-0.0664066
0.0275515
0.0125326
0.0329395
0.092021
0.0339059
0.147117
0.0313394
0.223214
0.0293457
0.183956
0.0309304
0.0863827
0.0333008
-0.029045
0.0337
-0.101795
0.0333671
-0.137745
0.0331648
-0.245789
0.0332337
-0.15436
0.0337206
-0.0964289
0.0341592
0.0348592
0.0336846
0.294976
0.165282
0.0102905
0.0174212
0.0139266
0.0253782
0.018195
0.0308786
0.0226532
0.032113
0.0260801
0.029266
0.0283991
0.00994973
0.0294327
-0.0346382
0.0285875
-0.0850087
0.0266822
-0.118289
0.0242038
-0.130354
0.0222446
-0.134089
0.0207874
-0.120816
0.0176089
-0.114846
0.0159024
-0.104892
0.019849
-0.0703533
0.0271375
0.00524408
0.0327268
0.0864318
0.0339607
0.145883
0.0315698
0.225604
0.0295393
0.185987
0.0309554
0.0849666
0.0332058
-0.0312954
0.0335566
-0.102146
0.0331466
-0.137335
0.0329301
-0.245572
0.0330687
-0.154498
0.0336013
-0.0969615
0.0340103
0.0344502
0.0335346
0.295452
0.165517
0.0112823
0.0144923
0.0148305
0.02183
0.0189728
0.0267363
0.0232837
0.027802
0.0267302
0.0258195
0.0291677
0.00751225
0.0300923
-0.0355628
0.0288812
-0.0837975
0.0266401
-0.116048
0.0239919
-0.127706
0.0219153
-0.132012
0.0206019
-0.119503
0.0177096
-0.111954
0.0158846
-0.103067
0.0194826
-0.0739514
0.026703
-0.0019763
0.0324747
0.0806601
0.0339951
0.144363
0.0317983
0.227801
0.0297257
0.188059
0.0309636
0.0837287
0.0330902
-0.033422
0.0333957
-0.102452
0.0329076
-0.136847
0.0326776
-0.245342
0.03289
-0.154711
0.0334697
-0.0975412
0.0338531
0.0340668
0.033382
0.295923
0.165684
0.0124382
0.0118763
0.015772
0.0184962
0.0196942
0.0228141
0.0238042
0.023692
0.0272873
0.0223365
0.0298478
0.00495175
0.0306326
-0.0363476
0.0290597
-0.0822246
0.0265122
-0.113501
0.0237282
-0.124922
0.0215487
-0.129833
0.0203578
-0.118312
0.0177722
-0.109368
0.0158657
-0.101161
0.0191116
-0.0771973
0.0262387
-0.00910341
0.0321784
0.0747204
0.0340046
0.142536
0.0320204
0.229785
0.029902
0.190178
0.0309542
0.0826765
0.0329538
-0.0354216
0.0332172
-0.102715
0.0326508
-0.13628
0.0324087
-0.2451
0.0326986
-0.155001
0.0333254
-0.098168
0.0336872
0.033705
0.0332272
0.296383
0.165778
0.0138824
0.00975148
0.0168854
0.0154932
0.0204933
0.0192062
0.0243404
0.0198449
0.0278387
0.0188382
0.0304745
0.00231592
0.031053
-0.0369261
0.0291196
-0.0802913
0.0262982
-0.110679
0.0234101
-0.122033
0.0211432
-0.127566
0.0200528
-0.117221
0.0177872
-0.107103
0.0158291
-0.0992027
0.0187186
-0.0800867
0.0257336
-0.0161184
0.0318321
0.0686218
0.033984
0.140384
0.0322315
0.231538
0.0300657
0.192343
0.0309269
0.0818154
0.0327964
-0.0372911
0.0330208
-0.102939
0.0323767
-0.135636
0.0321249
-0.244848
0.0324956
-0.155371
0.0331683
-0.0988407
0.0335124
0.033361
0.0330706
0.296824
0.165796
0.0156774
0.00819255
0.0182792
0.0128914
0.0214941
0.0159913
0.0250132
0.0163258
0.0284522
0.0153992
0.0310747
-0.000306505
0.0313464
-0.0371978
0.0290484
-0.0779933
0.0259808
-0.107611
0.0230155
-0.119068
0.0206802
-0.12523
0.0196751
-0.116216
0.0177398
-0.105167
0.0157592
-0.097222
0.0182876
-0.0826151
0.0251762
-0.023007
0.0314297
0.0623684
0.0339278
0.137886
0.032427
0.233039
0.0302154
0.194555
0.030883
0.0811478
0.0326181
-0.0390263
0.0328061
-0.103127
0.0320862
-0.134916
0.0318275
-0.244589
0.0322819
-0.155826
0.0329979
-0.0995567
0.0333282
0.0330307
0.0329124
0.29724
0.165733
0.0178204
0.00711538
0.0200217
0.0106901
0.022792
0.013221
0.0259189
0.0131989
0.0291945
0.0121237
0.0316392
-0.00275129
0.031513
-0.0370715
0.028842
-0.0753223
0.025548
-0.104317
0.0225294
-0.11605
0.0201493
-0.12285
0.0192184
-0.115285
0.0176209
-0.10357
0.0156481
-0.0952492
0.0178082
-0.0847753
0.0245523
-0.0297511
0.0309632
0.0559574
0.0338303
0.135019
0.0326021
0.234267
0.0303517
0.196805
0.030827
0.0806726
0.0324206
-0.0406199
0.0325728
-0.10328
0.0317805
-0.134124
0.0315183
-0.244327
0.032058
-0.156365
0.0328138
-0.100313
0.0331343
0.0327101
0.0327531
0.297622
0.165584
0.0202974
0.00624497
0.0221366
0.00885095
0.0244238
0.0109339
0.0271055
0.0105172
0.030077
0.00915213
0.0321499
-0.00482418
0.0315642
-0.0364858
0.0285659
-0.072324
0.0251038
-0.100855
0.0220616
-0.113007
0.0196473
-0.120436
0.0187474
-0.114385
0.0174636
-0.102286
0.0155188
-0.0933044
0.0172957
-0.0865522
0.0238556
-0.0363109
0.0304238
0.0493892
0.0336838
0.131759
0.0327517
0.235199
0.0304768
0.19908
0.0307645
0.0803849
0.0322041
-0.0420595
0.0323208
-0.103396
0.0314612
-0.133264
0.0312
-0.244066
0.0318249
-0.15699
0.0326159
-0.101104
0.0329304
0.0323957
0.0325928
0.297959
0.165345
0.0233003
0.00498526
0.0246121
0.00753921
0.0262892
0.00925677
0.028424
0.00838241
0.0309297
0.00664641
0.0324648
-0.00635927
0.0314511
-0.0354721
0.028303
-0.0691759
0.024804
-0.0973562
0.0217684
-0.109972
0.0193037
-0.117971
0.0183667
-0.113448
0.0173339
-0.101253
0.0154184
-0.0913888
0.0168065
-0.0879403
0.0231388
-0.0426433
0.0298292
0.0426988
0.0334774
0.128111
0.0328752
0.235801
0.0305959
0.20136
0.0306819
0.0802988
0.0319572
-0.0433347
0.0320547
-0.103494
0.031136
-0.132346
0.030868
-0.243798
0.0315907
-0.157713
0.0324094
-0.101922
0.0327171
0.032088
0.0324302
0.298246
0.165009
0.0482839
0.00726714
-0.0505657
0.0479721
0.007851
0.0495253
0.00770357
0.052549
0.00535867
0.0574486
0.00174687
0.0630725
-0.0119832
0.0662783
-0.0386779
0.065649
-0.0685466
0.0621033
-0.0938106
0.0571126
-0.104981
0.0514515
-0.11231
0.0469074
-0.108904
0.042434
-0.09678
0.0370755
-0.0860304
0.0349718
-0.0858366
0.037822
-0.0454935
0.0407551
0.0397657
0.0399482
0.128918
0.0379536
0.237796
0.0406917
0.198621
0.0479268
0.0730637
0.0535243
-0.0489322
0.0542928
-0.104262
0.0536069
-0.13166
0.0518312
-0.242022
0.0499181
-0.1558
0.0484255
-0.10043
0.046131
0.0343826
0.0455267
0.29885
0.163884
0.0591327
0.00878042
-0.060646
0.058515
0.00846869
0.0593997
0.0068189
0.0616543
0.00310404
0.0655629
-0.00216174
0.0697372
-0.0161575
0.0715755
-0.0405163
0.0699212
-0.0668923
0.0656142
-0.0895035
0.0601988
-0.0995658
0.0543667
-0.106478
0.0496021
-0.10414
0.0452279
-0.0924058
0.0399769
-0.0807794
0.0374844
-0.0833441
0.0398684
-0.0478775
0.0425098
0.0371243
0.0418223
0.129605
0.0402912
0.239327
0.0437394
0.195173
0.0514343
0.0653687
0.0569926
-0.0544905
0.0575338
-0.104804
0.0565788
-0.130705
0.054536
-0.23998
0.0524449
-0.153709
0.0506976
-0.0986824
0.0480423
0.0370379
0.0474352
0.299457
0.1625
0.068148
0.00978577
-0.0691534
0.0678776
0.00873912
0.068577
0.00611953
0.0702909
0.00139014
0.0732476
-0.00511842
0.0760535
-0.0189634
0.0765562
-0.0410189
0.0739623
-0.0642984
0.069115
-0.0846562
0.0634632
-0.093914
0.0575369
-0.100552
0.0525241
-0.0991269
0.0481821
-0.0880637
0.0430732
-0.0756705
0.0401927
-0.0804636
0.0419935
-0.0496783
0.0443025
0.0348153
0.0437337
0.130174
0.0428321
0.240229
0.0472257
0.19078
0.0553407
0.0572538
0.0607515
-0.0599014
0.0609745
-0.105027
0.0597116
-0.129442
0.0573593
-0.237627
0.0550562
-0.151406
0.0530249
-0.0966511
0.0499957
0.0400671
0.0494466
0.300006
0.160848
0.0755134
0.0103077
-0.0760354
0.0756527
0.00859985
0.0763778
0.00539442
0.0777503
1.76724e-05
0.0798988
-0.00726692
0.0815388
-0.0206035
0.0809417
-0.0404219
0.0776628
-0.0610195
0.0724855
-0.0794789
0.0667056
-0.0881341
0.0607732
-0.0946193
0.0555723
-0.093926
0.0512509
-0.0837424
0.0463385
-0.0707581
0.0431014
-0.0772265
0.0442136
-0.0507904
0.0461258
0.0329031
0.0457061
0.130594
0.0456266
0.240308
0.0511664
0.18524
0.059655
0.0487652
0.0647866
-0.065033
0.0646103
-0.10485
0.0629997
-0.127831
0.0602988
-0.234926
0.05775
-0.148857
0.0553987
-0.0942998
0.0519752
0.0434907
0.0515435
0.300438
0.158881
0.081527
0.0104693
-0.0816886
0.081944
0.00818284
0.0827313
0.00460717
0.083859
-0.00111009
0.0853543
-0.00876215
0.086104
-0.0213532
0.0847473
-0.0390652
0.0810813
-0.0573535
0.0757864
-0.074184
0.0699884
-0.0823361
0.0641199
-0.0887508
0.0587772
-0.0885834
0.0544431
-0.0794082
0.0497624
-0.0660774
0.0462262
-0.0736903
0.0465579
-0.0511221
0.0479772
0.0314837
0.0477343
0.130837
0.0487219
0.239321
0.0555948
0.178367
0.0643874
0.0399726
0.0690942
-0.0697398
0.0684377
-0.104194
0.0664434
-0.125837
0.063352
-0.231835
0.0605166
-0.146022
0.0578027
-0.0915859
0.0539683
0.0473251
0.0537346
0.300672
0.156548
0.0865061
0.0103669
-0.0864037
0.0870873
0.00760165
0.087905
0.00378944
0.0888264
-0.00203148
0.0898092
-0.00974495
0.0899339
-0.0214779
0.0881294
-0.0372608
0.0843167
-0.0535408
0.0790659
-0.0689332
0.0733319
-0.076602
0.0675773
-0.0829962
0.0621488
-0.083155
0.057768
-0.0750273
0.0533327
-0.0616421
0.0495722
-0.0699299
0.0490586
-0.0506084
0.0498499
0.0306925
0.049811
0.130876
0.0521731
0.236958
0.0605559
0.169984
0.0695421
0.0309865
0.0736659
-0.0738636
0.0724496
-0.102977
0.0700395
-0.123427
0.0665128
-0.228308
0.0633422
-0.142851
0.0602179
-0.0884616
0.0559618
0.0515811
0.0560308
0.300603
0.153786
0.0908116
0.0100515
-0.0904962
0.0914656
0.00694765
0.0922646
0.00299046
0.0930063
-0.00277325
0.0935956
-0.0103342
0.0933013
-0.0211836
0.0912748
-0.0352343
0.0874758
-0.0497418
0.0823765
-0.063834
0.0767661
-0.0709916
0.0711535
-0.0773837
0.0656984
-0.0776998
0.0612423
-0.0705713
0.0570397
-0.0574395
0.0531337
-0.0660239
0.0517318
-0.0492065
0.0517276
0.0306966
0.0519296
0.130674
0.0560462
0.232842
0.0660905
0.15994
0.0751123
0.0219647
0.0784835
-0.0772348
0.0766336
-0.101128
0.073783
-0.120576
0.0697723
-0.224298
0.0662093
-0.139288
0.0626222
-0.0848744
0.057942
0.0562613
0.0584472
0.300098
0.150526
0.0947497
0.00958683
-0.0942851
0.0954117
0.00628569
0.0961508
0.00225139
0.0967345
-0.00335698
0.0970266
-0.0106263
0.0964528
-0.0206097
0.0943451
-0.0331266
0.0906499
-0.0460466
0.085761
-0.0589451
0.0803171
-0.0655477
0.0748556
-0.0719221
0.0694328
-0.072277
0.0648896
-0.0660281
0.0608801
-0.05343
0.0568947
-0.0620385
0.0545712
-0.046883
0.0535834
0.0316844
0.0541006
0.130157
0.0604222
0.22652
0.0722227
0.148139
0.0810738
0.0131135
0.0835156
-0.0796766
0.0809719
-0.0985839
0.0776664
-0.117271
0.0731193
-0.21975
0.0690968
-0.135266
0.0649903
-0.0807679
0.0598962
0.0613555
0.061005
0.298989
0.146691
0.098534
0.00903006
-0.0979773
0.0991725
0.00564721
0.0998262
0.00159768
0.100269
-0.00379953
0.100336
-0.0106934
0.0995701
-0.0198441
0.0974576
-0.0310141
0.0939074
-0.0424964
0.0892518
-0.0542894
0.0840071
-0.060303
0.0786929
-0.066608
0.0733542
-0.0669383
0.0687388
-0.0614127
0.0648595
-0.0495507
0.0608303
-0.0580093
0.0575563
-0.043609
0.0553951
0.0338456
0.0563784
0.129173
0.0654013
0.217497
0.0789576
0.134583
0.0873794
0.00469175
0.0887165
-0.0810138
0.0854411
-0.0953085
0.0816802
-0.11351
0.076539
-0.214609
0.0719806
-0.130707
0.0672959
-0.0760833
0.0618154
0.066836
0.063732
0.297072
0.1422
0.102306
0.00841742
-0.101693
0.102908
0.00504481
0.103466
0.00104019
0.103779
-0.00411264
0.103673
-0.0105872
0.102769
-0.0189405
0.100687
-0.0289317
0.097295
-0.0391047
0.0928722
-0.0498666
0.0878522
-0.0552829
0.0826787
-0.0614346
0.0774593
-0.0617189
0.0728207
-0.056774
0.0689961
-0.0457262
0.0649105
-0.0539237
0.0606724
-0.0393709
0.0571884
0.0373296
0.0589059
0.127456
0.0711157
0.205288
0.0862775
0.119421
0.0939547
-0.00298545
0.094025
-0.0810841
0.0900133
-0.0912968
0.0858133
-0.10931
0.0800125
-0.208808
0.074835
-0.12553
0.0695134
-0.0707617
0.0636977
0.0726518
0.0666653
0.294105
0.136965
0.106146
0.00777601
-0.105505
0.106708
0.00448362
0.107169
0.000578859
0.107363
-0.00430638
0.10712
-0.0103448
0.106115
-0.0179349
0.104075
-0.0268916
0.100842
-0.0358726
0.0966406
-0.0456648
0.0918626
-0.0505049
0.0868309
-0.0564029
0.0817428
-0.0566307
0.07716
-0.0521913
0.073323
-0.0418891
0.0691099
-0.0497106
0.0639425
-0.0342036
0.059141
0.0421311
0.0620199
0.124577
0.0777636
0.189544
0.0941403
0.103045
0.10069
-0.00953513
0.0993658
-0.07976
0.0946573
-0.0865883
0.0900538
-0.104706
0.0835187
-0.202273
0.0776355
-0.119647
0.0716218
-0.064748
0.0655548
0.0787188
0.069855
0.289804
0.130905
0.110093
0.0071264
-0.109443
0.110613
0.00396365
0.110985
0.000206568
0.111071
-0.00439187
0.110719
-0.00999288
0.109638
-0.0168547
0.107643
-0.0248965
0.104568
-0.0327972
0.100573
-0.0416703
0.0960435
-0.045975
0.0911696
-0.0515291
0.086204
-0.0516651
0.0817657
-0.0477529
0.0778869
-0.0380103
0.0734206
-0.0452443
0.0674815
-0.0282645
0.0617797
0.047833
0.0664395
0.119917
0.0856371
0.170346
0.102451
0.086231
0.107439
-0.0145236
0.104655
-0.0769756
0.099342
-0.0812755
0.0943907
-0.099755
0.087038
-0.194921
0.0803618
-0.11297
0.07361
-0.0579963
0.0674198
0.084909
0.0733667
0.283857
0.123947
0.114164
0.00648211
-0.113519
0.114644
0.00348356
0.114937
-8.64489e-05
0.114927
-0.00438244
0.114487
-0.00955213
0.113356
-0.0157242
0.111406
-0.0229463
0.108483
-0.0298745
0.104687
-0.037874
0.1004
-0.0416878
0.0957118
-0.046841
0.0908566
-0.0468099
0.0866258
-0.0435222
0.0827366
-0.0341211
0.0778739
-0.0403815
0.071537
-0.0219276
0.0660661
0.0533038
0.0732107
0.112772
0.0949634
0.148594
0.11099
0.0702043
0.114011
-0.0175444
0.109809
-0.0727738
0.104041
-0.0755078
0.0988149
-0.0945287
0.0905544
-0.18666
0.0830004
-0.105416
0.0754857
-0.0504816
0.0693576
0.0910371
0.0772824
0.275933
0.116039
0.118373
0.00585345
-0.117744
0.118814
0.00304278
0.119038
-0.000310797
0.118948
-0.00429252
0.118436
-0.00903981
0.117277
-0.0145648
0.115373
-0.0210427
0.112599
-0.0271004
0.108997
-0.0342724
0.104941
-0.0376313
0.100466
-0.0423667
0.0957303
-0.0420738
0.0917163
-0.0395081
0.0879055
-0.0303103
0.0825757
-0.0350517
0.0764168
-0.0157687
0.0728959
0.0568246
0.082926
0.102742
0.105438
0.126082
0.119324
0.0563185
0.120181
-0.0184019
0.114765
-0.0673578
0.108739
-0.0694813
0.10332
-0.0891101
0.0940591
-0.177399
0.0855515
-0.0969087
0.0772848
-0.0422149
0.0714766
0.0968454
0.0817001
0.265709
0.107163
0.122735
0.00524885
-0.12213
0.123137
0.00264072
0.123302
-0.000475883
0.123146
-0.00413687
0.122578
-0.00847156
0.121408
-0.0133952
0.119555
-0.0191895
0.116926
-0.0244706
0.113518
-0.0308647
0.109682
-0.0337955
0.105436
-0.0381206
0.100862
-0.0374996
0.0970237
-0.0356703
0.0933953
-0.0266819
0.0877167
-0.0293731
0.0823197
-0.0103717
0.0821772
0.0569671
0.0947112
0.0902082
0.115915
0.104878
0.126841
0.0453925
0.125764
-0.0173258
0.119508
-0.061101
0.113436
-0.0634094
0.107904
-0.0835788
0.0975564
-0.167051
0.0880364
-0.0873887
0.079089
-0.0332675
0.0739426
0.101992
0.0867408
0.252911
0.0973542
0.127265
0.00467441
-0.126691
0.127629
0.00227721
0.127744
-0.000590434
0.127536
-0.00392922
0.126926
-0.00786205
0.125762
-0.0122309
0.123965
-0.0173924
0.121477
-0.0219826
0.118261
-0.0276492
0.114643
-0.030177
0.110625
-0.0341022
0.106275
-0.0331504
0.102565
-0.0319599
0.0991813
-0.0232982
0.0935137
-0.0237055
0.08922
-0.00607796
0.0926426
0.0535445
0.10645
0.0764007
0.124927
0.0864017
0.133062
0.0372568
0.130718
-0.0149811
0.124085
-0.0544688
0.118149
-0.0574728
0.112567
-0.0779965
0.101071
-0.155555
0.0905167
-0.0768341
0.0810402
-0.023791
0.0769954
0.106037
0.0925481
0.237358
0.0867298
0.131984
0.0041348
-0.131444
0.13231
0.00195117
0.132381
-0.000661751
0.132134
-0.00368211
0.131497
-0.00722501
0.130351
-0.0110846
0.128616
-0.0156574
0.126268
-0.0196347
0.123241
-0.0246229
0.119842
-0.0267778
0.116046
-0.0303063
0.111977
-0.0290809
0.10838
-0.0283634
0.10525
-0.020168
0.10006
-0.0185157
0.0968955
-0.00291312
0.102813
0.0476268
0.116379
0.0628353
0.131768
0.0710127
0.137987
0.0310369
0.135188
-0.0121818
0.128604
-0.0478847
0.122908
-0.0517766
0.117308
-0.0723964
0.104659
-0.142907
0.0931135
-0.0652881
0.0833783
-0.0140559
0.0809608
0.108454
0.0992792
0.21904
0.0755113
0.13691
0.00363285
-0.136408
0.1372
0.00166139
0.137235
-0.000696641
0.136959
-0.00340642
0.136307
-0.00657302
0.135189
-0.00996674
0.133523
-0.013991
0.131314
-0.0174262
0.128474
-0.0217823
0.125296
-0.0236004
0.121722
-0.0267325
0.11796
-0.0253185
0.114508
-0.0249111
0.111617
-0.0172777
0.107257
-0.0141557
0.105039
-0.000694312
0.111983
0.0406828
0.12421
0.0506081
0.136881
0.0583419
0.142069
0.0258487
0.139427
-0.00953967
0.133187
-0.041645
0.127752
-0.0463416
0.122138
-0.0667819
0.10842
-0.129189
0.0960361
-0.0529046
0.086512
-0.00453178
0.0862427
0.108723
0.107085
0.198198
0.0640424
0.142067
0.00316984
-0.141604
0.142322
0.00140623
0.142327
-0.000701325
0.142032
-0.00311159
0.141377
-0.00591734
0.140296
-0.00888568
0.138704
-0.0123993
0.136633
-0.0153555
0.133976
-0.0191255
0.13102
-0.020644
0.127675
-0.0233874
0.124223
-0.0218671
0.120965
-0.0216526
0.118313
-0.0146256
0.114885
-0.010728
0.11341
0.00078112
0.120282
0.0338108
0.130719
0.0401711
0.14123
0.0478306
0.145868
0.0212102
0.143662
-0.00733354
0.137938
-0.0359212
0.132733