/*--------------------------------*- C++ -*----------------------------------*\
  =========                 |
  \\      /  F ield         | OpenFOAM: The Open Source CFD Toolbox
   \\    /   O peration     | Website:  https://openfoam.org
    \\  /    A nd           | Version:  7
     \\/     M anipulation  |
\*---------------------------------------------------------------------------*/
FoamFile
{
    version     2.0;
    format      ascii;
    class       volVectorField;
    location    "100";
    object      U;
}
// * * * * * * * * * * * * * * * * * * * * * * * * * * * * * * * * * * * * * //

dimensions      [0 1 -1 0 0 0 0];

internalField   nonuniform List<vector> 
2125
(
(-0.000843729 -0.0296883 9.88787e-22)
(-0.00654521 -0.0784696 -2.83745e-21)
(-0.0187743 -0.11758 -3.30689e-21)
(-0.0341816 -0.146411 3.28569e-21)
(-0.0512405 -0.166971 -3.02295e-21)
(-0.0684386 -0.182675 -1.61357e-21)
(-0.0845945 -0.196788 2.76281e-21)
(-0.0991827 -0.211381 3.43279e-21)
(-0.112042 -0.227101 -5.6645e-22)
(-0.123352 -0.243352 1.67529e-21)
(-0.0002205 -0.0268308 -1.09268e-21)
(-0.00567762 -0.0718356 3.37328e-21)
(-0.0189108 -0.108583 -7.90729e-21)
(-0.0358033 -0.136176 7.17155e-21)
(-0.0545628 -0.156451 3.17815e-22)
(-0.0735053 -0.172595 5.26886e-21)
(-0.0913873 -0.187571 -9.17134e-21)
(-0.107744 -0.203112 -1.34543e-20)
(-0.122523 -0.21956 -2.63497e-21)
(-0.136156 -0.236093 5.9872e-21)
(0.000151853 -0.0233985 9.98576e-22)
(-0.00528096 -0.0640758 7.38971e-21)
(-0.0194707 -0.0982887 1.74152e-20)
(-0.037629 -0.124672 -1.57611e-20)
(-0.0577369 -0.144773 -3.56286e-21)
(-0.0779594 -0.161467 -3.24313e-21)
(-0.0969835 -0.177371 1.65798e-20)
(-0.114375 -0.193856 1.03278e-20)
(-0.130131 -0.210929 2.5366e-21)
(-0.144808 -0.22751 -1.85406e-20)
(0.00023112 -0.0194727 3.53868e-21)
(-0.00540482 -0.055361 -4.33818e-21)
(-0.0204589 -0.0869049 -3.24476e-20)
(-0.0396096 -0.112114 2.86815e-21)
(-0.0606645 -0.132144 8.91116e-21)
(-0.0816622 -0.149493 -6.94437e-21)
(-0.101209 -0.166408 -3.47107e-22)
(-0.118863 -0.18388 -2.82457e-21)
(-0.134606 -0.201538 6.40352e-21)
(-0.148958 -0.217988 1.83984e-20)
(-1.13053e-05 -0.0151571 2.45471e-21)
(-0.00607457 -0.0458949 -1.39374e-20)
(-0.0218562 -0.074665 3.35371e-20)
(-0.0416756 -0.0987309 -1.5277e-20)
(-0.0632296 -0.118771 -5.82836e-23)
(-0.0844587 -0.136869 2.11628e-20)
(-0.103876 -0.15489 -9.71418e-21)
(-0.120988 -0.17344 1.09193e-21)
(-0.135699 -0.19172 -3.99374e-21)
(-0.148262 -0.207924 1.40889e-21)
(-0.000587543 -0.0105733 2.93959e-20)
(-0.00728772 -0.0359077 3.58371e-20)
(-0.0236165 -0.0618229 -9.17165e-21)
(-0.0437328 -0.0847599 1.75324e-20)
(-0.0652914 -0.104864 5.54575e-21)
(-0.0861655 -0.123779 -7.87989e-21)
(-0.104763 -0.143001 -3.04795e-21)
(-0.12049 -0.162764 -1.32749e-20)
(-0.133133 -0.181785 2.88348e-21)
(-0.142326 -0.197707 -1.69376e-20)
(-0.00149124 -0.00585688 -2.83384e-20)
(-0.00901162 -0.0256496 -1.86878e-20)
(-0.0256651 -0.0486489 1.52849e-20)
(-0.0456601 -0.0704482 -2.65475e-20)
(-0.0666796 -0.0906292 3.08507e-21)
(-0.0865612 -0.110391 3.12655e-20)
(-0.103594 -0.130894 -5.65534e-21)
(-0.117043 -0.152032 3.67453e-20)
(-0.126568 -0.172 -7.7733e-22)
(-0.130638 -0.187702 -1.47685e-20)
(-0.00269672 -0.00115157 2.38215e-20)
(-0.0111833 -0.0153831 -4.32737e-20)
(-0.0278991 -0.0354246 -1.72832e-20)
(-0.04731 -0.0560511 2.02117e-20)
(-0.0671921 -0.0762747 7.54203e-22)
(-0.0853787 -0.0968635 -5.87973e-20)
(-0.100031 -0.118687 -3.55991e-21)
(-0.110217 -0.141363 -2.91932e-20)
(-0.115561 -0.162563 -3.73224e-20)
(-0.112532 -0.178225 2.17985e-20)
(-0.00415945 0.00339671 -1.32835e-20)
(-0.0137109 -0.00537547 6.46227e-21)
(-0.0301903 -0.0224392 1.5933e-20)
(-0.0485115 -0.0418331 -1.44595e-20)
(-0.066598 -0.0620168 -5.05715e-20)
(-0.0823056 -0.0833503 1.73653e-20)
(-0.0936572 -0.10647 2.45107e-21)
(-0.0994689 -0.130805 4.40905e-20)
(-0.0995467 -0.153577 5.73847e-20)
(-0.0871554 -0.169514 -2.55771e-20)
(-0.00581803 0.00764688 2.10606e-20)
(-0.0164778 0.00410949 1.92987e-20)
(-0.032391 -0.00998491 -2.77572e-21)
(-0.0490773 -0.0280691 7.17389e-20)
(-0.0646459 -0.0480868 3.05761e-20)
(-0.0769937 -0.070017 2.30159e-20)
(-0.083998 -0.0943177 3.28335e-20)
(-0.0841354 -0.120335 -1.42152e-20)
(-0.0778369 -0.145033 -1.9205e-20)
(-0.0534987 -0.161643 -3.11955e-20)
(-0.00759827 0.0114702 -1.89838e-21)
(-0.0193488 0.0128223 -3.06595e-20)
(-0.0343401 0.00164904 -2.21558e-20)
(-0.0488128 -0.0150459 -3.55786e-20)
(-0.0610783 -0.0347404 -2.83209e-20)
(-0.0690788 -0.0570597 2.87311e-20)
(-0.07054 -0.0823247 -2.7662e-20)
(-0.0634629 -0.109886 -1.89876e-20)
(-0.0496366 -0.136795 2.51784e-21)
(-0.0105495 -0.154262 8.21202e-21)
(-0.00941789 0.0147576 -5.85282e-20)
(-0.0221782 0.0205379 2.80433e-20)
(-0.0358738 0.0121838 2.0548e-20)
(-0.0475278 -0.00305873 1.38915e-20)
(-0.0556481 -0.0222641 -2.55037e-20)
(-0.0582099 -0.0447254 -2.15264e-20)
(-0.0527796 -0.0706444 3.12554e-20)
(-0.0366582 -0.0994122 -2.55583e-20)
(-0.0138948 -0.128807 -1.82204e-21)
(0.042401 -0.146219 -2.59942e-20)
(-0.0111927 0.0174266 4.93057e-20)
(-0.0248177 0.0270657 2.02077e-20)
(-0.0368319 0.0213612 1.18094e-21)
(-0.0450464 0.00759593 -2.52719e-20)
(-0.0481357 -0.0109723 1.67049e-21)
(-0.0440803 -0.0333181 2.8732e-20)
(-0.0302952 -0.0595099 -8.19864e-21)
(-0.0031357 -0.0889202 -1.00652e-20)
(0.0310889 -0.12155 -2.21586e-20)
(0.106061 -0.13632 3.97654e-20)
(-0.0128436 0.0194267 3.37529e-20)
(-0.0271242 0.03226 -5.46029e-20)
(-0.0370629 0.028956 -4.24435e-20)
(-0.0412087 0.0166345 1.83267e-20)
(-0.0383538 -0.00119059 3.77582e-20)
(-0.0264366 -0.0231834 3.25771e-20)
(-0.00274324 -0.0492188 -3.47085e-20)
(0.037001 -0.0785004 6.69794e-20)
(0.086354 -0.114605 -2.04386e-20)
(0.182244 -0.124916 -4.64403e-20)
(-0.014302 0.0207421 -5.0433e-20)
(-0.0289661 0.0360283 3.04607e-20)
(-0.0364244 0.0347902 -1.49231e-20)
(-0.035866 0.0238069 1.55956e-21)
(-0.0261358 0.00677056 1.61263e-20)
(-0.00506418 -0.01468 -5.1289e-20)
(0.0302964 -0.0401433 4.58301e-20)
(0.0841291 -0.0686495 -4.4554e-20)
(0.151028 -0.10715 7.11417e-20)
(0.270575 -0.1124 2.49357e-20)
(-0.0155148 0.021392 1.08718e-20)
(-0.0302254 0.038337 5.97415e-20)
(-0.0347777 0.0387481 -1.52023e-20)
(-0.0288632 0.0289224 1.54075e-20)
(-0.0113062 0.0126547 1.8315e-20)
(0.020222 -0.00815566 -5.56194e-21)
(0.068973 -0.0327463 3.96689e-20)
(0.138775 -0.0600508 2.07806e-21)
(0.225434 -0.0993273 -4.5303e-20)
(0.368063 -0.0983678 5.98798e-20)
(-0.0164462 0.0214263 -2.88784e-20)
(-0.0307965 0.0392116 -5.67142e-20)
(-0.0319759 0.040788 4.94045e-20)
(-0.0200109 0.0318706 2.50318e-20)
(0.00636421 0.0162942 -1.16859e-19)
(0.0496879 -0.00381123 9.60323e-20)
(0.113511 -0.027226 -8.72507e-20)
(0.200832 -0.0528185 1.45102e-21)
(0.309929 -0.0910349 -1.93645e-20)
(0.470608 -0.0829426 -5.49375e-20)
(-0.0170766 0.0209187 2.5193e-20)
(-0.0305802 0.0387343 -3.46726e-21)
(-0.027846 0.0409437 -1.21384e-20)
(-0.00906117 0.0326443 -1.3351e-21)
(0.0272203 0.0176665 -7.32714e-21)
(0.0837537 -0.0016407 -3.05891e-20)
(0.164351 -0.0235366 1.30783e-20)
(0.270377 -0.0470571 -2.07166e-20)
(0.404147 -0.0811858 6.4806e-21)
(0.573048 -0.0662486 1.75162e-21)
(-0.017398 0.0199584 -5.14611e-20)
(-0.0294766 0.0370318 -3.77172e-21)
(-0.0221723 0.0393294 5.67001e-21)
(0.00432928 0.0313573 2.31325e-21)
(0.0517473 0.016919 3.84006e-20)
(0.12304 -0.00142129 -1.12791e-19)
(0.222094 -0.0213193 7.63909e-20)
(0.347824 -0.0425494 -5.71496e-20)
(0.506647 -0.0681196 4.71281e-20)
(0.670406 -0.0491305 5.02851e-20)
(-0.0174075 0.0186381 -6.29756e-21)
(-0.0273702 0.0342636 2.86899e-20)
(-0.0146851 0.0361373 -3.62009e-20)
(0.020615 0.0282381 -1.14043e-20)
(0.0805922 0.0143634 2.21226e-20)
(0.168338 -0.00269718 1.07233e-19)
(0.287349 -0.0199411 -2.15924e-20)
(0.433585 -0.0383677 1.06914e-20)
(0.614438 -0.0508918 -5.48897e-20)
(0.761228 -0.0362682 2.34008e-20)
(-0.0170982 0.0170448 -1.88671e-20)
(-0.0241203 0.0306096 -1.46646e-20)
(-0.00504825 0.0316204 3.58154e-21)
(0.040358 0.0236258 1.43532e-20)
(0.114531 0.0104701 -4.27399e-20)
(0.220501 -0.00480151 -1.74296e-20)
(0.360507 -0.0185786 -5.49475e-20)
(0.527174 -0.0328769 5.60092e-20)
(0.722294 -0.0316236 5.80214e-20)
(0.84956 -0.0347854 -2.43066e-20)
(-0.0164503 0.0152524 -8.97629e-21)
(-0.019551 0.0262556 3.66012e-20)
(0.00713999 0.0260792 -4.11311e-20)
(0.064205 0.017954 -4.80849e-21)
(0.154388 0.00584763 -1.95292e-20)
(0.280253 -0.00690172 4.28605e-20)
(0.441498 -0.0162818 5.54804e-20)
(0.626438 -0.0246653 -5.26193e-20)
(0.823793 -0.0158428 5.45528e-20)
(0.961283 -0.0265284 7.00118e-21)
(-0.0154235 0.0133171 -2.59908e-20)
(-0.0134464 0.0213828 -7.40794e-20)
(0.0223338 0.0198466 7.24663e-20)
(0.0928408 0.0117295 1.04895e-20)
(0.200927 0.00120912 1.55416e-20)
(0.347952 -0.00807538 9.15298e-21)
(0.529437 -0.0121076 4.19834e-20)
(0.72767 -0.0136269 3.06244e-20)
(0.921187 -0.000765831 -1.06831e-19)
(1.05792 -0.00767966 -5.05812e-20)
(-0.00555083 0.0161623 1.79644e-20)
(0.0410175 0.0132739 -4.0873e-20)
(0.12692 0.00550801 8.02831e-21)
(0.254699 -0.00267416 1.29858e-20)
(0.423355 -0.00741349 -9.2997e-20)
(0.622405 -0.00530644 4.07315e-20)
(0.827173 -4.50872e-05 -2.74345e-20)
(1.01067 0.0156308 2.85223e-20)
(1.13457 0.011817 -9.61458e-21)
(0.0636728 0.00672038 -1.9087e-21)
(0.166988 -0.000131641 -1.12505e-20)
(0.315895 -0.00502758 5.25727e-22)
(0.505455 -0.00414617 1.01307e-21)
(0.717579 0.00448933 -6.21041e-20)
(0.921422 0.0156976 7.97103e-21)
(1.08909 0.0329063 7.50773e-20)
(1.19666 0.0314002 3.30905e-20)
(0.0907399 0.000548576 6.95053e-20)
(0.213398 -0.00460888 1.77605e-21)
(0.384214 -0.00513436 -2.91112e-20)
(0.592451 0.00224222 7.87483e-20)
(0.811695 0.0172295 1.70835e-20)
(1.00746 0.0330494 6.87595e-22)
(1.15547 0.0506333 -3.30589e-20)
(1.24384 0.0502696 -4.18604e-20)
(0.266237 -0.00736044 -2.88542e-20)
(0.458782 -0.00240093 4.76659e-20)
(0.681913 0.0119479 -2.3445e-20)
(0.901598 0.0325406 -2.62017e-20)
(1.08338 0.0514359 -6.35165e-21)
(1.20961 0.0683441 -1.88143e-20)
(1.27897 0.0680724 1.99762e-20)
(0.538165 0.00358224 2.5738e-20)
(0.771107 0.0248586 -8.55725e-20)
(0.984715 0.0498869 5.45753e-20)
(1.14829 0.0703422 -2.47432e-20)
(1.25239 0.0857036 3.67288e-20)
(1.30398 0.0848193 9.90566e-21)
(1.05929 0.0687075 -1.42841e-20)
(1.20222 0.089368 1.16232e-20)
(1.28506 0.102526 -2.79461e-20)
(1.32102 0.100559 -2.79188e-20)
(1.24579 0.108236 -3.64298e-20)
(1.30914 0.11874 6.6492e-22)
(1.33184 0.115455 1.93153e-20)
(1.32609 0.134362 2.72247e-20)
(1.33792 0.129668 -1.15928e-20)
(-0.144201 -0.26635 -1.33657e-22)
(-0.158099 -0.292185 3.0414e-23)
(-0.155362 -0.274788 1.94333e-22)
(-0.134226 -0.192502 -2.01681e-22)
(-0.075706 -0.0161906 5.33594e-23)
(0.0106702 0.225438 1.68435e-22)
(0.105894 0.452769 3.82473e-24)
(0.183591 0.603836 -8.53628e-23)
(0.208054 0.677496 -5.7799e-23)
(0.166154 0.711425 -5.20076e-23)
(0.17564 0.580771 1.27734e-23)
(0.361908 0.224911 -9.94067e-23)
(0.564217 -0.136216 6.25473e-23)
(0.709996 -0.435662 -1.69061e-23)
(0.776985 -0.52508 -9.37556e-24)
(0.82172 -0.564327 -7.60341e-24)
(0.740672 -0.577083 4.24629e-23)
(0.619946 -0.537948 7.66583e-23)
(0.62731 -0.314291 6.15069e-24)
(0.774207 0.102691 3.84157e-23)
(0.886889 0.229558 -1.54829e-23)
(0.915601 0.442598 -1.19909e-23)
(0.863856 0.476644 -3.75833e-24)
(0.857372 0.443869 -1.24574e-23)
(0.88401 0.329103 -1.61654e-23)
(0.934995 -0.117699 -1.16495e-23)
(0.953471 -0.211262 8.57116e-24)
(0.989124 -0.526442 4.74073e-23)
(0.963799 -0.474133 2.23671e-24)
(0.947952 -0.00381053 -1.99972e-24)
(-0.161951 -0.258649 5.95287e-23)
(-0.18234 -0.289872 -4.28681e-22)
(-0.18802 -0.27679 -7.86265e-23)
(-0.177092 -0.202353 5.15721e-22)
(-0.125563 -0.0337371 -5.76948e-23)
(-0.0413335 0.203126 -6.47168e-22)
(0.0561866 0.431825 4.20132e-22)
(0.138538 0.591112 -4.08362e-22)
(0.168523 0.677289 1.81188e-22)
(0.137809 0.712353 -3.7651e-22)
(0.189128 0.563108 6.77861e-22)
(0.394562 0.194419 -6.66742e-22)
(0.598552 -0.162156 3.94305e-24)
(0.738908 -0.450644 4.19876e-22)
(0.794333 -0.53317 -5.29181e-23)
(0.834241 -0.561566 -4.78903e-23)
(0.752201 -0.564745 -1.40085e-22)
(0.630452 -0.530639 1.15606e-22)
(0.625436 -0.323136 1.04062e-22)
(0.766396 0.0879217 -1.45243e-22)
(0.879944 0.221537 -3.84825e-23)
(0.907228 0.443696 6.89105e-23)
(0.856745 0.479143 -4.9788e-24)
(0.848513 0.443061 -4.72681e-23)
(0.880302 0.325866 3.18494e-23)
(0.938681 -0.12031 1.16197e-22)
(0.95696 -0.213329 -4.79597e-26)
(0.995106 -0.526598 -8.95435e-23)
(0.968229 -0.472941 -7.91245e-25)
(0.947303 -0.00315209 1.24117e-23)
(-0.174043 -0.249269 3.0679e-21)
(-0.200207 -0.28584 -2.35577e-21)
(-0.21305 -0.277183 1.6675e-21)
(-0.212273 -0.211324 -1.55331e-21)
(-0.169449 -0.0517906 -6.29554e-22)
(-0.0887353 0.179286 3.24551e-21)
(0.0103782 0.409041 -1.09444e-21)
(0.0966358 0.576882 -9.61967e-22)
(0.132551 0.675173 4.61976e-22)
(0.117323 0.709048 -4.41964e-23)
(0.209366 0.542153 1.60734e-22)
(0.429553 0.164401 -7.09966e-23)
(0.633923 -0.186385 -2.01048e-23)
(0.768583 -0.463678 1.7904e-22)
(0.812421 -0.539976 1.78613e-23)
(0.84693 -0.558471 -9.83687e-23)
(0.763934 -0.552426 2.91731e-22)
(0.642346 -0.522939 8.64671e-23)
(0.625691 -0.331685 -4.98948e-23)
(0.759686 0.0728535 -7.94924e-23)
(0.873785 0.213264 5.09425e-23)
(0.899185 0.444571 8.89911e-23)
(0.849557 0.481674 -1.29928e-22)
(0.839673 0.44221 3.92137e-23)
(0.877012 0.322389 -9.28299e-23)
(0.942538 -0.122953 -1.34517e-22)
(0.960638 -0.215365 1.98596e-23)
(1.00098 -0.526717 1.53998e-22)
(0.972572 -0.471576 -8.04567e-24)
(0.946626 -0.00236869 -9.02026e-24)
(-0.180012 -0.238539 -3.40754e-21)
(-0.211249 -0.280346 1.6047e-21)
(-0.229716 -0.276101 -2.10542e-22)
(-0.238513 -0.219123 4.20088e-22)
(-0.205886 -0.069859 -5.75578e-22)
(-0.130681 0.154264 -1.92641e-21)
(-0.030987 0.38446 1.00131e-21)
(0.0585598 0.561006 -1.38574e-22)
(0.101107 0.670642 5.04225e-22)
(0.105894 0.701426 1.26994e-21)
(0.235383 0.518638 -4.07123e-22)
(0.466666 0.135315 5.45466e-22)
(0.670138 -0.20882 -6.27735e-22)
(0.7988 -0.474792 -5.057e-22)
(0.831139 -0.545494 8.79237e-23)
(0.859726 -0.555069 -1.32766e-22)
(0.775865 -0.540219 -2.54044e-22)
(0.655383 -0.51492 -7.0037e-23)
(0.628095 -0.339859 1.13086e-22)
(0.754132 0.0575678 -3.57134e-23)
(0.868464 0.204752 -1.44692e-22)
(0.891497 0.445245 -1.14578e-23)
(0.842295 0.484252 4.79034e-23)
(0.83091 0.441302 3.88898e-24)
(0.874169 0.31867 3.27561e-23)
(0.946564 -0.125618 4.59919e-23)
(0.964508 -0.21736 2.14691e-23)
(1.00673 -0.526788 4.67591e-23)
(0.976798 -0.470043 3.25598e-23)
(0.945909 -0.00146258 -2.71236e-24)
(-0.179478 -0.22677 2.46536e-21)
(-0.215174 -0.273643 2.62142e-21)
(-0.23759 -0.273749 1.50132e-21)
(-0.25485 -0.225513 -1.51272e-21)
(-0.233347 -0.0874124 -1.70749e-22)
(-0.166069 0.128473 -8.97361e-22)
(-0.0671559 0.358287 -1.46434e-21)
(0.0251298 0.543251 -3.83204e-22)
(0.0752472 0.663178 1.91879e-22)
(0.10423 0.689573 2.89213e-23)
(0.266349 0.493346 -5.94605e-22)
(0.505746 0.107459 2.77768e-22)
(0.707035 -0.229391 1.24356e-21)
(0.829346 -0.484021 -5.90798e-22)
(0.850384 -0.549725 4.48589e-22)
(0.872558 -0.551391 6.25756e-23)
(0.787992 -0.528203 5.53991e-22)
(0.669287 -0.506653 -7.41015e-23)
(0.632612 -0.3476 -1.74795e-22)
(0.749794 0.0421447 -2.24323e-23)
(0.864028 0.196015 -1.72613e-22)
(0.884184 0.445741 -2.85174e-22)
(0.834971 0.486893 -3.89459e-24)
(0.822287 0.440323 1.12972e-22)
(0.871801 0.314712 -6.55992e-25)
(0.95076 -0.128296 4.01947e-23)
(0.968572 -0.219303 -9.9615e-23)
(1.01234 -0.526801 -2.18084e-22)
(0.980877 -0.468345 -6.00573e-23)
(0.945139 -0.000436596 2.89947e-23)
(-0.172069 -0.214236 1.5378e-21)
(-0.21176 -0.265912 3.36763e-21)
(-0.236524 -0.270322 1.20705e-21)
(-0.260698 -0.230349 -4.82784e-21)
(-0.250422 -0.103872 4.45362e-21)
(-0.193555 0.102477 -1.97391e-21)
(-0.0971697 0.330809 -2.92742e-22)
(-0.00273383 0.523348 -6.58481e-22)
(0.0560945 0.65231 -5.47617e-22)
(0.11242 0.673719 2.08783e-21)
(0.301561 0.467044 -7.88731e-22)
(0.546614 0.0811763 -2.229e-21)
(0.744456 -0.248015 -3.93596e-23)
(0.860013 -0.491402 8.66803e-22)
(0.870055 -0.552675 -6.92411e-22)
(0.885351 -0.547463 6.32155e-22)
(0.800317 -0.516445 -5.69969e-22)
(0.683779 -0.498207 3.05437e-22)
(0.639128 -0.35487 3.5286e-23)
(0.746728 0.0266607 2.55766e-22)
(0.860515 0.18707 1.20149e-22)
(0.87726 0.446082 1.14617e-22)
(0.827603 0.489607 1.84158e-23)
(0.813866 0.439257 1.33595e-22)
(0.86993 0.31052 8.36079e-23)
(0.955128 -0.130976 -4.62938e-23)
(0.972826 -0.221184 2.92381e-22)
(1.01782 -0.526746 -1.95178e-22)
(0.984781 -0.466483 9.27719e-23)
(0.944305 0.00070578 -4.82569e-23)
(-0.157349 -0.201181 -3.031e-21)
(-0.200738 -0.257269 5.64413e-22)
(-0.226566 -0.266019 6.26532e-22)
(-0.25591 -0.233659 -5.7853e-22)
(-0.256036 -0.118793 6.63868e-22)
(-0.211647 0.0769215 7.82007e-22)
(-0.119898 0.30236 4.3966e-22)
(-0.0240577 0.501077 -7.13511e-22)
(0.0447752 0.637688 -8.25909e-22)
(0.129961 0.654229 4.6416e-22)
(0.340404 0.440445 3.04335e-22)
(0.58902 0.0567325 2.00903e-21)
(0.782221 -0.264621 -1.80417e-21)
(0.8906 -0.496982 -3.698e-22)
(0.89005 -0.55436 1.05316e-21)
(0.898038 -0.54331 3.26358e-22)
(0.812834 -0.504999 6.98438e-24)
(0.698595 -0.489642 3.3158e-24)
(0.647445 -0.361651 -1.12584e-22)
(0.744982 0.0111847 -3.84475e-22)
(0.857948 0.177934 2.0666e-24)
(0.870734 0.446292 -1.27274e-22)
(0.820218 0.492403 -7.68331e-23)
(0.805713 0.438091 -7.52419e-23)
(0.868575 0.306103 -1.37196e-22)
(0.959671 -0.133648 -3.15039e-23)
(0.977266 -0.222993 -2.74668e-22)
(1.02314 -0.526612 2.23876e-22)
(0.988482 -0.464463 -8.85748e-23)
(0.943394 0.00196054 5.30575e-23)
(-0.134779 -0.187849 3.47218e-21)
(-0.18168 -0.247784 5.38462e-22)
(-0.207778 -0.261031 -9.16764e-23)
(-0.2407 -0.235612 -2.83113e-22)
(-0.249651 -0.131926 -5.83818e-22)
(-0.218908 0.0524605 2.87768e-21)
(-0.134116 0.273304 -2.21971e-21)
(-0.0378646 0.476328 -7.85249e-22)
(0.0422853 0.619142 -7.21259e-22)
(0.155895 0.631583 2.44181e-22)
(0.382247 0.414161 2.43548e-21)
(0.632623 0.0342711 -7.59112e-22)
(0.820156 -0.279152 -1.68346e-21)
(0.920914 -0.500811 2.0183e-21)
(0.910268 -0.554799 -1.80949e-21)
(0.910558 -0.538958 3.10591e-22)
(0.825528 -0.493906 1.05447e-23)
(0.713514 -0.481007 2.07163e-22)
(0.657285 -0.367944 -3.03046e-22)
(0.744579 -0.0042274 3.92169e-22)
(0.856339 0.168624 -3.62949e-23)
(0.864611 0.446391 6.68395e-22)
(0.812849 0.495286 1.11776e-22)
(0.79789 0.436813 -3.31278e-22)
(0.867753 0.301473 3.13842e-23)
(0.964392 -0.1363 -1.2309e-22)
(0.981881 -0.224719 4.01238e-23)
(1.02829 -0.526386 -1.80512e-22)
(0.991955 -0.462287 5.58851e-23)
(0.942394 0.00332319 -4.60476e-23)
(-0.103718 -0.174478 -2.31332e-21)
(-0.153936 -0.237468 1.3809e-21)
(-0.180038 -0.255451 1.86191e-21)
(-0.215452 -0.23643 1.86594e-22)
(-0.231351 -0.143243 -3.17766e-21)
(-0.214243 0.0297011 2.94486e-22)
(-0.138619 0.243983 4.35389e-22)
(-0.0432179 0.449166 -1.50335e-21)
(0.0493054 0.596722 -9.88677e-22)
(0.189002 0.606357 2.57527e-21)
(0.426405 0.388679 -6.77315e-22)
(0.677017 0.0139724 1.63964e-21)
(0.858066 -0.29156 -2.72787e-21)
(0.950776 -0.502941 1.22547e-21)
(0.930606 -0.554022 -7.63761e-22)
(0.922868 -0.534426 9.01588e-22)
(0.838359 -0.483198 7.21048e-23)
(0.728373 -0.472338 -3.04464e-22)
(0.668297 -0.373759 5.1383e-22)
(0.745507 -0.0195374 -2.62464e-22)
(0.85568 0.159159 1.97613e-22)
(0.858896 0.446399 -1.00158e-22)
(0.805537 0.498258 -3.53311e-22)
(0.79046 0.435411 3.72175e-22)
(0.867476 0.296641 -4.76018e-23)
(0.969293 -0.138921 4.72713e-22)
(0.986662 -0.22635 -3.10127e-22)
(1.03327 -0.526056 3.37282e-22)
(0.99518 -0.459958 -7.02937e-23)
(0.941295 0.00478882 -2.63392e-25)
(-0.0634838 -0.161315 3.60679e-22)
(-0.116664 -0.226312 5.3113e-21)
(-0.14289 -0.249243 -5.8233e-21)
(-0.180422 -0.236278 -3.64347e-22)
(-0.201712 -0.152876 3.80205e-21)
(-0.19718 0.00944016 4.33771e-22)
(-0.132392 0.214697 -1.55595e-21)
(-0.0392763 0.419858 -5.26584e-22)
(0.0660265 0.570683 2.55762e-22)
(0.227961 0.579183 1.18511e-21)
(0.472142 0.364369 -5.72303e-23)
(0.721761 -0.00410331 -1.86084e-22)
(0.895749 -0.301817 1.13581e-21)
(0.980021 -0.503433 -8.11349e-22)
(0.950957 -0.552062 6.53591e-22)
(0.934941 -0.52973 -3.35792e-22)
(0.85127 -0.472898 -1.05208e-22)
(0.743071 -0.463653 3.48354e-22)
(0.680082 -0.379115 -7.0542e-22)
(0.747704 -0.0347166 3.2282e-22)
(0.855944 0.149556 -1.48532e-22)
(0.85359 0.44633 -4.13925e-22)
(0.798326 0.501318 5.28725e-23)
(0.783479 0.433878 -8.7133e-23)
(0.867752 0.291626 2.70993e-22)
(0.974376 -0.141499 -2.13835e-22)
(0.991595 -0.227874 -8.32142e-23)
(1.03807 -0.52561 -1.542e-22)
(0.998141 -0.457479 -3.31749e-23)
(0.940086 0.00635227 2.47486e-24)
(-0.0134709 -0.148703 -4.0437e-21)
(-0.0689756 -0.214346 7.40508e-21)
(-0.0955411 -0.242253 -1.56525e-21)
(-0.135478 -0.235158 -5.97769e-21)
(-0.161411 -0.160976 6.36893e-21)
(-0.167997 -0.00864064 7.04856e-22)
(-0.114901 0.185712 -2.9105e-21)
(-0.0254031 0.388795 4.85583e-23)
(0.0920733 0.54147 -1.06111e-21)
(0.271453 0.550707 2.124e-22)
(0.518701 0.341489 -2.97264e-21)
(0.766422 -0.0198356 2.74576e-21)
(0.933011 -0.309916 -2.99376e-22)
(1.0085 -0.502351 2.42141e-22)
(0.971215 -0.548962 4.67989e-22)
(0.946768 -0.524884 -1.19763e-21)
(0.86418 -0.463028 5.76306e-22)
(0.757569 -0.454959 -2.76016e-22)
(0.69224 -0.384029 1.31052e-22)
(0.751052 -0.0497615 2.16254e-22)
(0.857082 0.139828 -4.83732e-23)
(0.848695 0.446193 -1.64463e-22)
(0.791264 0.504462 7.19736e-22)
(0.776999 0.432208 -2.98792e-22)
(0.868585 0.286444 5.26595e-23)
(0.97964 -0.144021 -3.70524e-22)
(0.996668 -0.22928 6.14982e-22)
(1.04267 -0.525036 4.10359e-22)
(1.00083 -0.454854 7.2464e-23)
(0.938758 0.0080082 -9.54364e-23)
(0.0466128 -0.13727 -2.28027e-21)
(-0.0101312 -0.201575 9.41685e-21)
(-0.0370507 -0.234292 -2.89805e-21)
(-0.0800128 -0.232888 -2.31167e-21)
(-0.111087 -0.167685 4.53369e-21)
(-0.127599 -0.0266199 -3.16948e-21)
(-0.0861333 0.157318 -9.89775e-22)
(-0.00134176 0.356415 -1.95347e-22)
(0.126557 0.509675 2.22026e-21)
(0.318203 0.521537 -4.12064e-22)
(0.565373 0.320202 -1.12425e-21)
(0.810612 -0.0331545 1.1784e-22)
(0.969646 -0.315874 1.17301e-21)
(1.03609 -0.499763 -1.3415e-21)
(0.99127 -0.544773 1.16713e-21)
(0.958355 -0.519898 -2.35546e-23)
(0.876996 -0.453607 2.34846e-22)
(0.771869 -0.446249 2.14575e-23)
(0.704401 -0.388511 3.33053e-22)
(0.755374 -0.0646654 -3.26388e-22)
(0.859022 0.12998 -1.50678e-22)
(0.844209 0.445991 3.00987e-22)
(0.784401 0.507684 -4.10086e-22)
(0.771064 0.430398 1.49222e-22)
(0.869973 0.281116 -2.45995e-22)
(0.985082 -0.146477 -1.04204e-22)
(1.00186 -0.230557 -9.21109e-23)
(1.04707 -0.524323 -4.18276e-22)
(1.00324 -0.452086 -3.09103e-24)
(0.937306 0.00975136 1.75788e-22)
(0.116457 -0.127294 -2.35436e-22)
(0.0602696 -0.187773 6.37047e-21)
(0.0332947 -0.225276 -4.98294e-21)
(-0.0131529 -0.229187 5.62914e-21)
(-0.051028 -0.172854 1.26518e-21)
(-0.0770794 -0.0433428 -1.75993e-21)
(-0.0465898 0.129786 5.01748e-22)
(0.0326143 0.323181 -6.27822e-22)
(0.168208 0.475985 2.14203e-21)
(0.366989 0.492207 -4.6386e-21)
(0.611514 0.300582 3.44492e-23)
(0.854016 -0.0441611 1.809e-21)
(1.00547 -0.319728 -1.77186e-21)
(1.06266 -0.495747 1.98435e-21)
(1.01101 -0.539561 -1.12923e-21)
(0.969719 -0.514783 5.70592e-22)
(0.889621 -0.444655 -3.4585e-22)
(0.785995 -0.437511 2.57816e-22)
(0.71628 -0.392565 -1.57471e-22)
(0.760444 -0.0794382 -8.52652e-23)
(0.861667 0.120014 2.05644e-22)
(0.840129 0.44572 -4.64247e-22)
(0.777788 0.510975 8.1229e-22)
(0.765711 0.428447 -3.3563e-22)
(0.871914 0.275664 -3.93075e-22)
(0.990698 -0.148853 -1.9476e-22)
(1.00717 -0.231692 6.00625e-23)
(1.05126 -0.523462 6.88334e-24)
(1.00538 -0.44918 -5.02441e-23)
(0.935724 0.0115767 -1.58255e-22)
(0.195358 -0.117748 7.01145e-21)
(0.142045 -0.173582 -2.90481e-21)
(0.115557 -0.215226 2.49676e-21)
(0.0658 -0.223758 2.13764e-23)
(0.0195311 -0.175848 1.85519e-21)
(-0.0171754 -0.0571813 -1.39935e-21)
(0.00223915 0.103197 -8.32055e-22)
(0.0755508 0.289582 8.56065e-23)
(0.21552 0.44111 1.64591e-22)
(0.41665 0.463158 1.75606e-21)
(0.656598 0.282632 -5.86929e-21)
(0.896415 -0.0529602 5.80596e-21)
(1.04029 -0.321529 1.54734e-21)
(1.08813 -0.490382 -8.33726e-22)
(1.03034 -0.533392 -1.24629e-22)
(0.980883 -0.509538 -2.94501e-22)
(0.901967 -0.436187 1.60232e-22)
(0.799971 -0.428725 1.77588e-22)
(0.727691 -0.396172 -4.45058e-23)
(0.765998 -0.0941207 4.03461e-23)
(0.864896 0.109913 -2.16121e-22)
(0.836447 0.445365 1.18462e-22)
(0.771472 0.514326 -5.92539e-22)
(0.760966 0.42636 -3.56905e-23)
(0.8744 0.270109 2.65295e-22)
(0.996485 -0.151137 4.56368e-22)
(1.01257 -0.232674 -6.1968e-23)
(1.05523 -0.522441 2.66249e-23)
(1.00726 -0.446138 1.4229e-22)
(0.934011 0.0134794 3.54343e-23)
(0.282763 -0.107725 -5.46088e-21)
(0.234457 -0.160189 7.84943e-21)
(0.209123 -0.204117 -1.2075e-21)
(0.156737 -0.216129 -1.28825e-21)
(0.101266 -0.176149 2.47857e-21)
(0.0520234 -0.0693651 9.48017e-23)
(0.0590961 0.0785516 -2.13691e-22)
(0.126054 0.256147 1.04932e-21)
(0.266851 0.405724 -2.27949e-21)
(0.466093 0.434718 4.48299e-21)
(0.70025 0.266288 2.11248e-21)
(0.937702 -0.0596853 -3.15326e-21)
(1.07397 -0.321326 -1.40294e-21)
(1.11241 -0.483717 1.50356e-21)
(1.04915 -0.526288 -3.7026e-22)
(0.991873 -0.504113 7.02981e-22)
(0.913959 -0.428187 -6.50486e-22)
(0.813801 -0.41987 1.82572e-22)
(0.738567 -0.39929 1.00096e-22)
(0.771759 -0.108722 2.10033e-23)
(0.868565 0.0996547 2.42779e-22)
(0.833152 0.444906 -8.25822e-24)
(0.765496 0.517724 2.72072e-22)
(0.756849 0.424143 -5.80884e-23)
(0.877427 0.264475 3.49407e-22)
(1.00244 -0.153321 6.43682e-23)
(1.01804 -0.233494 2.64761e-22)
(1.05899 -0.521255 -2.17671e-22)
(1.0089 -0.442962 -1.24912e-22)
(0.932168 0.0154557 8.04861e-23)
(0.377488 -0.0974662 -5.67987e-22)
(0.33629 -0.147869 -2.9863e-21)
(0.312583 -0.192342 -4.44512e-21)
(0.258306 -0.20676 3.27739e-21)
(0.193906 -0.173869 1.53258e-21)
(0.130891 -0.0789252 -3.37751e-22)
(0.12361 0.0567709 -1.87388e-23)
(0.182526 0.223411 6.45033e-22)
(0.320565 0.370429 -1.01706e-21)
(0.51434 0.407105 -1.64086e-21)
(0.742332 0.251432 -1.71401e-21)
(0.977896 -0.0645362 -2.43386e-21)
(1.10637 -0.31919 5.48842e-21)
(1.13542 -0.475768 -3.52846e-21)
(1.06735 -0.518246 1.10158e-21)
(1.00271 -0.498442 -1.11573e-21)
(0.925541 -0.420628 -1.3453e-22)
(0.827467 -0.410933 -3.02117e-22)
(0.748944 -0.401875 1.09479e-22)
(0.777458 -0.123213 -2.55917e-22)
(0.872508 0.0892162 3.08308e-23)
(0.830224 0.44431 2.30605e-22)
(0.759899 0.521156 -1.83787e-22)
(0.75337 0.421803 2.36495e-22)
(0.880993 0.258783 -5.83771e-22)
(1.00855 -0.155401 4.6256e-22)
(1.02357 -0.234142 -4.67342e-22)
(1.06254 -0.519898 2.55903e-22)
(1.01032 -0.439655 3.19491e-23)
(0.9302 0.0175024 1.95921e-23)
(0.478311 -0.0871006 8.18817e-23)
(0.446089 -0.13638 -2.19021e-21)
(0.423602 -0.180215 1.07274e-20)
(0.367727 -0.196123 -7.03845e-21)
(0.295938 -0.168987 3.69127e-21)
(0.219494 -0.084617 -1.27814e-21)
(0.196046 0.0380212 5.96311e-22)
(0.244028 0.192091 -4.24566e-23)
(0.375307 0.335743 -1.01462e-21)
(0.560695 0.380389 -1.44296e-21)
(0.783065 0.237821 -2.62227e-22)
(1.01716 -0.0678368 -9.14711e-22)
(1.13734 -0.315267 4.70393e-21)
(1.1571 -0.46669 -2.78185e-21)
(1.08486 -0.509469 3.24482e-21)
(1.01342 -0.492662 2.07976e-22)
(0.936672 -0.413605 -1.03862e-21)
(0.840927 -0.401975 1.22469e-22)
(0.758931 -0.403961 2.75284e-22)
(0.782872 -0.137581 1.14525e-22)
(0.876523 0.0786005 -5.45858e-22)
(0.827639 0.443539 1.47446e-22)
(0.754712 0.524607 1.80795e-22)
(0.750533 0.419346 -9.65653e-23)
(0.88511 0.253045 2.82519e-22)
(1.01484 -0.157361 -4.77677e-22)
(1.02913 -0.234604 -7.85276e-23)
(1.06588 -0.518367 3.27601e-22)
(1.01153 -0.436235 1.78997e-23)
(0.928117 0.0196147 -3.92003e-23)
(0.58484 -0.0769714 -3.70025e-22)
(0.562509 -0.125653 -2.43205e-21)
(0.539287 -0.167702 -5.76446e-21)
(0.481142 -0.184175 3.51094e-21)
(0.40409 -0.161775 -4.1078e-21)
(0.316764 -0.0868044 8.07643e-22)
(0.277145 0.022928 1.06332e-21)
(0.310902 0.163113 -4.3967e-22)
(0.430588 0.302289 -4.60653e-22)
(0.605163 0.354452 -1.90607e-21)
(0.823295 0.224986 3.76858e-21)
(1.0558 -0.0694496 -2.84454e-21)
(1.16675 -0.309668 1.25337e-21)
(1.1774 -0.457025 1.34896e-21)
(1.10161 -0.50063 9.46731e-22)
(1.02403 -0.487287 -3.39546e-24)
(0.947345 -0.40743 -8.53534e-22)
(0.854135 -0.393133 4.35317e-22)
(0.768667 -0.405671 -8.08838e-24)
(0.78785 -0.151967 -1.43555e-22)
(0.880351 0.0676816 9.33493e-23)
(0.825349 0.442551 -1.67182e-22)
(0.749956 0.528065 1.29019e-22)
(0.74835 0.416786 -1.84516e-22)
(0.889825 0.247321 2.8258e-22)
(1.02129 -0.159115 2.39876e-22)
(1.0347 -0.234863 -1.29669e-22)
(1.06902 -0.516658 -8.37823e-23)
(1.01254 -0.432725 -1.01688e-22)
(0.925932 0.0217818 -1.69721e-23)
(0.698974 -0.0691569 -3.39248e-21)
(0.684148 -0.116477 7.41867e-21)
(0.656095 -0.155868 -4.04726e-21)
(0.594083 -0.172707 -3.12791e-21)
(0.513855 -0.154537 1.24965e-21)
(0.419894 -0.0872488 -6.68827e-22)
(0.36697 0.0119965 8.88674e-22)
(0.384965 0.13661 7.37409e-23)
(0.487966 0.271259 -7.08672e-22)
(0.649628 0.330263 8.26167e-22)
(0.86521 0.214003 -2.79616e-21)
(1.09432 -0.0676589 -2.31526e-21)
(1.19431 -0.301987 4.34681e-21)
(1.19618 -0.446958 -4.59961e-22)
(1.11755 -0.491891 -7.97225e-22)
(1.03458 -0.482294 1.61118e-21)
(0.957599 -0.402063 -1.26138e-21)
(0.867063 -0.384368 4.26317e-22)
(0.778282 -0.40684 -2.75268e-22)
(0.792314 -0.166456 2.30055e-22)
(0.883657 0.0558327 9.18112e-23)
(0.82328 0.441164 -1.94695e-22)
(0.745636 0.5315 4.35487e-23)
(0.746872 0.414247 -3.72587e-23)
(0.895269 0.241817 -6.19338e-23)
(1.02793 -0.160559 -2.22191e-22)
(1.04024 -0.23492 6.27274e-23)
(1.07198 -0.514766 -1.6512e-23)
(1.01334 -0.429115 3.83151e-23)
(0.923673 0.0240043 3.51451e-23)
(0.82704 -0.0653581 -1.15454e-20)
(0.808471 -0.106012 3.06563e-21)
(0.769377 -0.141815 -2.0032e-21)
(0.701814 -0.159547 8.5011e-21)
(0.62038 -0.146202 -2.8055e-21)
(0.524855 -0.0868797 1.19037e-21)
(0.464017 0.000968865 -2.96395e-22)
(0.46902 0.111937 -3.69777e-22)
(0.553759 0.240793 -1.09393e-22)
(0.701879 0.307553 2.36237e-21)
(0.914089 0.205926 4.96418e-22)
(1.1333 -0.0638718 -5.58157e-21)
(1.21959 -0.291591 -1.03199e-21)
(1.21331 -0.433908 5.26313e-21)
(1.13264 -0.480228 -4.67541e-23)
(1.04508 -0.474984 -2.26565e-22)
(0.967449 -0.395768 -6.27046e-22)
(0.879685 -0.374998 -2.56238e-22)
(0.787857 -0.406411 -1.14068e-22)
(0.796172 -0.18007 2.05945e-22)
(0.886005 0.0434275 -1.7063e-22)
(0.821217 0.43877 -7.42907e-23)
(0.74165 0.534927 1.09343e-22)