/*--------------------------------*- C++ -*----------------------------------*\
  =========                 |
  \\      /  F ield         | OpenFOAM: The Open Source CFD Toolbox
   \\    /   O peration     | Website:  https://openfoam.org
    \\  /    A nd           | Version:  7
     \\/     M anipulation  |
\*---------------------------------------------------------------------------*/
FoamFile
{
    version     2.0;
    format      ascii;
    class       surfaceScalarField;
    location    "100";
    object      phi;
}
// * * * * * * * * * * * * * * * * * * * * * * * * * * * * * * * * * * * * * //

dimensions      [0 3 -1 0 0 0 0];

internalField   nonuniform List<scalar> 
4148
(
0.08561
0.0234978
0.0234332
0.0764008
0.0840151
0.0250281
0.0221109
0.0644576
0.0245911
0.0739207
0.0821085
0.0264976
0.014534
0.0357481
0.0189221
0.0487361
0.0226476
0.0607321
0.0255971
0.0709712
0.0798276
0.027878
0.00919841
0.019317
0.0138863
0.0310603
0.0186644
0.043958
0.0229214
0.056475
0.0264012
0.0674914
0.0770973
0.0291316
0.0046365
0.00762839
0.0083239
0.0156296
0.0130148
0.0263694
0.0181011
0.0388717
0.0228823
0.0516938
0.0269442
0.0634296
0.073831
0.0302104
0.00180798
0.00129381
0.00398742
0.00544896
0.0073825
0.0122345
0.01195
0.0218019
0.0172258
0.0335959
0.0224855
0.046434
0.0271605
0.0587545
0.0699398
0.0310517
0.00147271
0.000293206
0.00336084
0.00356083
0.00641582
0.00917955
0.0107402
0.0174776
0.0160557
0.0282803
0.0217002
0.0407896
0.0269825
0.0534722
0.0653327
0.0315896
0.000347557
-0.00137276
0.00116817
-0.000527408
0.00277501
0.00195399
0.0054653
0.00648926
0.0094474
0.0134955
0.0146367
0.023091
0.0205226
0.0349037
0.0263491
0.0476457
0.059944
0.0317379
1.12289e-05
-0.000906651
0.000240497
-0.00160203
0.000901065
-0.00118798
0.00224646
0.000608596
0.0045695
0.00416622
0.00814099
0.00992398
0.0130435
0.0181885
0.0189845
0.0289627
0.0252296
0.0414005
0.0537367
0.031437
-8.88397e-06
-0.000897767
0.000153479
-0.0017644
0.000677631
-0.00171213
0.00178968
-0.000503456
0.00376226
0.00219365
0.00688962
0.00679661
0.0113723
0.0137058
0.0171717
0.0231634
0.0235929
0.0349792
0.0466256
0.0307039
-2.2636e-05
-0.000875131
8.876e-05
-0.00187579
0.000502744
-0.00212611
0.00141599
-0.0014167
0.0030708
0.000538841
0.00575432
0.00411309
0.00973218
0.00972795
0.0151921
0.0177035
0.0215418
0.0286296
0.0388134
0.029354
-2.95311e-05
-0.0008456
4.73831e-05
-0.00195271
0.000378769
-0.0024575
0.00113185
-0.00216978
0.00251337
-0.000842686
0.004783
0.00184346
0.00822863
0.00628232
0.0131575
0.0127746
0.0193985
0.0223885
0.0331788
0.0250332
-3.01884e-05
-0.000815411
2.86302e-05
-0.00201152
0.000304573
-0.00273344
0.0009372
-0.00280241
0.00209685
-0.00200234
0.00400493
-6.46096e-05
0.006938
0.00334924
0.0112088
0.00850382
0.0170609
0.0165364
0.0273529
0.0228868
-2.51554e-05
-0.000790256
2.99768e-05
-0.00206666
0.000275142
-0.00297861
0.000824689
-0.00335195
0.00181508
-0.00299272
0.00342661
-0.00167614
0.00590255
0.000873294
0.00951437
0.004892
0.014762
0.0112887
0.021501
0.0206139
-1.55719e-05
-0.000774684
4.75496e-05
-0.00212978
0.000282018
-0.00321307
0.000780196
-0.00385013
0.00164919
-0.00386172
0.003031
-0.00305795
0.00512578
-0.00122149
0.00815584
0.00186193
0.0126682
0.00677632
0.015881
0.0182883
-2.82251e-06
-0.000771862
7.63759e-05
-0.00220898
0.000314344
-0.00345104
0.00078479
-0.00432058
0.00157071
-0.00464764
0.00278169
-0.00426892
0.00457493
-0.00301473
0.00713098
-0.000694117
0.0109072
0.00300011
0.0107011
0.0160871
1.13108e-05
-0.000783172
0.000110886
-0.00230855
0.000360317
-0.00370047
0.000817548
-0.00477781
0.00154656
-0.00537665
0.00263169
-0.00535406
0.00419438
-0.00457742
0.00638382
-0.00288356
0.0095258
-0.000141871
0.00606679
0.0141601
2.53263e-05
-0.000808499
0.000145748
-0.00242897
0.000408614
-0.00396334
0.000858343
-0.00522754
0.00154426
-0.00606256
0.00253255
-0.00634235
0.00391897
-0.00596384
0.00583107
-0.00479565
0.00848533
-0.00279613
0.00198185
0.0125703
3.78821e-05
-0.000846381
0.000176346
-0.00256744
0.000449477
-0.00423647
0.000889937
-0.005668
0.0015359
-0.00670853
0.00244146
-0.00724791
0.00368643
-0.0072088
0.00538498
-0.00649421
0.00768809
-0.00509924
-0.00161064
0.0112806
4.79142e-05
-0.000894295
0.000199055
-0.00271858
0.000475302
-0.00451272
0.0008991
-0.00609179
0.00150023
-0.00730966
0.00232528
-0.00807296
0.0034457
-0.00832923
0.00496856
-0.00801706
0.00701698
-0.00714767
-0.00478168
0.010188
5.46725e-05
-0.000948968
0.000211303
-0.00287521
0.000480795
-0.00478221
0.000876874
-0.00648787
0.00142309
-0.00785588
0.00216175
-0.00881162
0.00316079
-0.00932827
0.00452398
-0.00938025
0.00636785
-0.00899155
-0.00758769
0.00917386
5.76866e-05
-0.00100665
0.000211496
-0.00302902
0.000462836
-0.00503355
0.000818261
-0.0068433
0.00129686
-0.00833448
0.00193869
-0.00945345
0.00281057
-0.0102002
0.00401435
-0.010584
0.00566692
-0.0106441
-0.0100606
0.00813984
5.67243e-05
-0.00106338
0.000198911
-0.00317121
0.000420211
-0.00525485
0.000721657
-0.00714474
0.00111936
-0.00873218
0.00165222
-0.0099863
0.00238655
-0.0109345
0.00342154
-0.011619
0.00487324
-0.0120958
-0.0122102
0.00702286
5.17513e-05
-0.00111513
0.00017356
-0.00329301
0.000353302
-0.00543459
0.000588215
-0.00737966
0.000892666
-0.00903663
0.00130486
-0.0103985
0.00188995
-0.0115196
0.00274247
-0.0124715
0.0039733
-0.0133267
-0.0140312
0.00579426
4.29024e-05
-0.00115803
0.00013608
-0.00338619
0.000263798
-0.00556231
0.000421253
-0.00753711
0.000622099
-0.00923748
0.000903806
-0.0106802
0.00132906
-0.0119448
0.00198524
-0.0131277
0.0029735
-0.0143149
-0.0155107
0.00445302
3.04626e-05
-0.00118849
8.76348e-05
-0.00344336
0.000154439
-0.00562911
0.00022574
-0.00760841
0.000315306
-0.00932704
0.000459545
-0.0108244
0.000717146
-0.0122024
0.00116594
-0.0135765
0.00189366
-0.0150426
-0.0166356
0.0030186
1.48661e-05
-0.00120336
2.98101e-05
-0.00345831
2.88344e-05
-0.00562814
7.97415e-06
-0.00758755
-1.82912e-05
-0.00930078
-1.48697e-05
-0.0108279
7.08997e-05
-0.0122882
0.00030601
-0.0138116
0.000763363
-0.0155
-0.0173965
0.00152419
-3.52768e-06
-0.00119983
-3.54004e-05
-0.00342643
-0.000109077
-0.00555446
-0.000225592
-0.00747104
-0.00036916
-0.00915721
-0.000506758
-0.0106903
-0.000591783
-0.0122032
-0.000569886
-0.0138335
-0.000385787
-0.0156841
-0.0177678
-1.44924e-05
-2.37324e-05
-0.0011761
-0.000105866
-0.0033443
-0.000254592
-0.00540574
-0.000467142
-0.00725849
-0.000726129
-0.00889822
-0.00100063
-0.0104158
-0.00125121
-0.0119526
-0.00143687
-0.0136479
-0.00152275
-0.0155982
-0.0178248
-0.00146577
-4.53064e-05
-0.00113079
-0.000179114
-0.00321049
-0.000403015
-0.00518183
-0.000709402
-0.0069521
-0.00107895
-0.00852868
-0.00148286
-0.0100119
-0.00188883
-0.0115466
-0.00226837
-0.0132683
-0.00260198
-0.0152646
-0.017554
-0.00287278
-6.73916e-05
-0.000252676
-0.00054963
-0.000945135
-0.00141764
-0.00194023
-0.002487
-0.0030405
-0.00359567
-0.00415899
0.20736
-0.00108335
0.208534
-0.00117464
0.209798
-0.00126434
0.211151
-0.00135227
0.212589
-0.00143829
0.214111
-0.00152224
0.215715
-0.00160398
0.217399
-0.00168336
0.219159
-0.00176027
0.220993
-0.00183446
-0.00190656
0.2229
0.197928
-0.002122
0.199054
-0.00230025
0.200265
-0.00247537
0.20156
-0.00264706
0.202936
-0.00281502
0.204393
-0.00297897
0.205928
-0.00313862
0.207538
-0.00329367
0.209222
-0.00344395
0.210976
-0.00358891
-0.00372982
0.2128
0.18912
-0.00312219
0.190203
-0.0033835
0.191368
-0.00364023
0.192613
-0.00389196
0.193936
-0.00413826
0.195336
-0.0043787
0.19681
-0.00461288
0.198357
-0.00484036
0.199974
-0.00506087
0.201659
-0.00527364
-0.00548062
0.203409
0.180871
-0.00408971
0.181918
-0.0044305
0.183043
-0.00476537
0.184245
-0.00509375
0.185522
-0.00541509
0.186872
-0.00572883
0.188294
-0.00603447
0.189785
-0.00633141
0.191343
-0.00661933
0.192967
-0.00689718
-0.0071678
0.194654
0.173125
-0.00502935
0.174141
-0.00544638
0.175232
-0.00585621
0.176396
-0.00625814
0.177633
-0.00665153
0.17894
-0.00703568
0.180315
-0.00741
0.181758
-0.00777375
0.183265
-0.00812655
0.184835
-0.00846705
-0.00879921
0.186466
0.165835
-0.00594544
0.166824
-0.0064357
0.167885
-0.00691757
0.169017
-0.00739025
0.170219
-0.00785296
0.171488
-0.00830492
0.172823
-0.00874542
0.174223
-0.00917359
0.175686
-0.00958901
0.177209
-0.00998999
-0.0103819
0.178791
0.158958
-0.00684178
0.159925
-0.00740252
0.160961
-0.00795378
0.162066
-0.00849463
0.163237
-0.0090242
0.164474
-0.0095416
0.165774
-0.010046
0.167137
-0.0105365
0.168561
-0.0110125
0.170043
-0.0114721
-0.0119224
0.171583
0.152461
-0.00772179
0.153409
-0.00835049
0.154424
-0.00896868
0.155504
-0.00957536
0.15665
-0.0101696
0.157858
-0.0107503
0.159129
-0.0113166
0.16046
-0.0118675
0.16185
-0.0124024
0.163297
-0.0129189
-0.0134264
0.164801
0.14631
-0.00858853
0.147243
-0.00928284
0.14824
-0.00996574
0.149301
-0.0106361
0.150424
-0.0112929
0.151609
-0.011935
0.152854
-0.0125616
0.154157
-0.0131712
0.155518
-0.0137635
0.156935
-0.0143354
-0.0148994
0.158408
0.14048
-0.00944471
0.141399
-0.0102025
0.142382
-0.010948
0.143426
-0.0116802
0.14453
-0.0123978
0.145695
-0.0130996
0.146918
-0.0137847
0.148199
-0.0144517
0.149535
-0.0151001
0.150926
-0.0157262
-0.0163463
0.152373
0.134944
-0.0102927
0.135853
-0.011112
0.136824
-0.0119183
0.137854
-0.0127104
0.138943
-0.0134872
0.140091
-0.0142472
0.141296
-0.0149895
0.142556
-0.0157126
0.143872
-0.016416
0.145242
-0.0170953
-0.0177713
0.146667
0.128839
-0.0102435
0.129681
-0.0111346
0.130582
-0.0120135
0.131543
-0.0128789
0.132562
-0.0137294
0.133638
-0.0145638
0.134772
-0.0153807
0.135962
-0.0161791
0.137206
-0.0169571
0.138505
-0.0177147
0.139856
-0.0184464
-0.0191784
0.141263
0.123833
-0.0110226
0.124671
-0.0119721
0.125566
-0.0129089
0.126519
-0.0138318
0.127529
-0.0147393
0.128595
-0.01563
0.129717
-0.0165026
0.130894
-0.017356
0.132125
-0.0181881
0.133409
-0.0189992
0.134745
-0.0197826
-0.0205711
0.136138
0.119061
-0.0118004
0.119895
-0.0128066
0.120786
-0.0137998
0.121733
-0.0147787
0.122735
-0.0157417
0.123793
-0.0166876
0.124905
-0.0176148
0.126072
-0.0185223
0.127291
-0.0194078
0.128564
-0.0202718
0.129888
-0.0211065
-0.021952
0.131269
0.114506
-0.0125779
0.115339
-0.0136391
0.116226
-0.0146872
0.117168
-0.0157207
0.118164
-0.0167381
0.119215
-0.017738
0.120319
-0.0187188
0.121476
-0.0196797
0.122686
-0.0206178
0.123949
-0.0215344
0.125262
-0.0224198
-0.0233233
0.126633
0.110155
-0.0133556
0.110986
-0.0144703
0.11187
-0.0155718
0.112808
-0.0166585
0.113799
-0.0177291
0.114843
-0.018782
0.11594
-0.0198156
0.117089
-0.0208291
0.118291
-0.0218194
0.119545
-0.0227882
0.120849
-0.023724
-0.0246864
0.122212
0.105993
-0.0141338
0.106823
-0.0153004
0.107705
-0.0164538
0.108639
-0.0175926
0.109625
-0.0187151
0.110663
-0.01982
0.111753
-0.0209055
0.112895
-0.021971
0.114089
-0.0230129
0.115334
-0.0240338
0.11663
-0.0250198
-0.026042
0.117986
0.102009
-0.0149122
0.102838
-0.0161292
0.103718
-0.0173332
0.104648
-0.0185227
0.105628
-0.019696
0.10666
-0.020852
0.107744
-0.0219886
0.108878
-0.0231054
0.110064
-0.0241984
0.111301
-0.0252712
0.112588
-0.0263072
-0.0273906
0.113937
0.0981929
-0.0156905
0.0990199
-0.0169562
0.099896
-0.0182093
0.100821
-0.0194481
0.101797
-0.0206712
0.102822
-0.0218771
0.103897
-0.0230642
0.105024
-0.024232
0.106201
-0.025376
0.107431
-0.0265005
0.10871
-0.0275866
-0.028732
0.110052
0.0945338
-0.0164675
0.0953581
-0.0177804
0.0962302
-0.0190813
0.0971503
-0.0203682
0.0981193
-0.0216401
0.099137
-0.0228949
0.100205
-0.0241317
0.101322
-0.0253494
0.102491
-0.0265448
0.103711
-0.0277208
0.104982
-0.028858
-0.0300652
0.106316
0.0910236
-0.0172423
0.0918438
-0.0186007
0.0927104
-0.019948
0.0936239
-0.0212817
0.0945857
-0.0226019
0.0955955
-0.0239047
0.0966556
-0.0251918
0.097764
-0.0264579
0.0989242
-0.027705
0.100133
-0.02893
0.101395
-0.0301197
-0.031385
0.102715
0.0876562
-0.0180139
0.0884716
-0.0194161
0.089332
-0.0208084
0.0902375
-0.0221871
0.0911903
-0.0235547
0.0921895
-0.0249039
0.0932401
-0.0262424
0.0943373
-0.0275551
0.0954889
-0.0288566
0.0966827
-0.0301238
0.0979302
-0.0313671
-0.0326762
0.0992213
0.0844254
-0.0187812
0.0852354
-0.0202261
0.0860895
-0.0216625
0.0869876
-0.0230853
0.0879321
-0.0244992
0.0889196
-0.0258915
0.0899567
-0.0272795
0.0910334
-0.0286318
0.092166
-0.0299892
0.0933272
-0.031285
0.0945443
-0.0325842
-0.0339015
0.0957697
0.081329
-0.0195425
0.0821312
-0.0210283
0.0829759
-0.0225072
0.0838634
-0.0239728
0.0847963
-0.0254321
0.0857698
-0.026865
0.0867898
-0.0282995
0.087836
-0.029678
0.0889303
-0.0310835
0.0900207
-0.0323754
0.0911639
-0.0337275
-0.0349881
0.0922505
0.0783675
-0.0202967
0.0791593
-0.0218201
0.0799888
-0.0233367
0.0808559
-0.0248398
0.0817607
-0.0263369
0.0826993
-0.0278036
0.0836759
-0.029276
0.0846656
-0.0306677
0.0856885
-0.0321065
0.086657
-0.0333439
0.0876544
-0.0347249
-0.0358143
0.0884807
0.0755317
-0.0210388
0.0763069
-0.0225952
0.0771129
-0.0241427
0.0779476
-0.0256746
0.0788047
-0.0271939
0.0796778
-0.0286767
0.0805584
-0.0301566
0.0814252
-0.0315345
0.0822858
-0.0329671
0.083039
-0.034097
0.0837718
-0.0354577
-0.0362017
0.0841591
0.0727966
-0.0217542
0.0735362
-0.0233349
0.0742965
-0.024903
0.0750737
-0.0264518
0.0758556
-0.0279757
0.0766319
-0.0294531
0.0773705
-0.0308951
0.078047
-0.0322111
0.0786166
-0.0335367
0.0789995
-0.0344799
0.0792425
-0.0357007
-0.0359196
0.0789604
0.0701252
-0.0224196
0.0707996
-0.0240092
0.071476
-0.0255794
0.0721454
-0.0271212
0.0727899
-0.0286202
0.0733922
-0.0300554
0.0739039
-0.0314069
0.0742969
-0.032604
0.0744536
-0.0336934
0.0743223
-0.0343487
0.0737878
-0.0351662
-0.0347288
0.072597
0.0674693
-0.0230098
0.0680462
-0.024586
0.0685952
-0.0261284
0.0690946
-0.0276207
0.0695129
-0.0290385
0.06981
-0.0303525
0.0699216
-0.0315185
0.0698002
-0.0324826
0.069305
-0.0331981
0.0684383
-0.0334819
0.0668714
-0.0335993
-0.032484
0.0646267
0.0647919
0.0652339
0.0656031
0.0658604
0.0659535
0.0658114
0.0653446
0.0644516
0.0629914
0.0609464
0.058051
0.0549209
0.223098
-0.000198437
0.223183
-8.46262e-05
0.22315
3.32589e-05
0.222982
0.00016767
0.222691
0.000290834
0.222272
0.000418844
0.221746
0.000526426
0.221151
0.000595359
0.220485
0.00066574
0.219906
0.000578656
0.219291
0.000614795
0.219032
0.000259579
0.218702
0.000330194
0.218972
-0.000270598
0.219031
-5.91096e-05
0.219511
-0.000479512
0.219614
-0.000103586
0.219045
0.000569791
0.218283
0.000761826
0.215498
0.00278439
0.213137
0.00236099
0.209121
0.00401683
0.205939
0.00318129
0.202824
0.00311495
0.204814
-0.00198943
0.211873
-0.00705928
0.216702
-0.00482868
0.224536
-0.00783415
0.225692
-0.00115597
0.00278492
0.212987
-0.000386047
0.21306
-0.000157904
0.213016
7.76123e-05
0.212836
0.00034749
0.212534
0.000593576
0.2121
0.000852482
0.21156
0.00106618
0.210947
0.00120841
0.210269
0.00134395
0.209675
0.00117242
0.209056
0.00123417
0.208797
0.000518615
0.208484
0.000642826
0.208791
-0.00057741
0.208908
-0.000175756
0.209471
-0.00104346
0.209663
-0.000294714
0.20917
0.0010625
0.208469
0.00146312
0.205724
0.00552946
0.20337
0.00471495
0.199397
0.00798917
0.196081
0.00649735
0.192755
0.00644087
0.194748
-0.00398252
0.20202
-0.014331
0.206854
-0.00966272
0.214631
-0.0156109
0.215756
-0.00228099
0.00571053
0.203587
-0.000563137
0.203644
-0.000215803
0.20358
0.000142424
0.203372
0.000554963
0.203036
0.000929884
0.20256
0.00132841
0.201974
0.00165225
0.201307
0.00187557
0.200577
0.0020734
0.199934
0.00181563
0.199279
0.00188902
0.19901
0.00078736
0.198715
0.000937762
0.199096
-0.000957778
0.199323
-0.000402778
0.200058
-0.00177876
0.200415
-0.00065119
0.200038
0.00143911
0.19941
0.0020908
0.196633
0.00830657
0.194197
0.00715127
0.190168
0.0120178
0.186491
0.010175
0.182658
0.0102732
0.184717
-0.00604165
0.192644
-0.0222575
0.197667
-0.0146856
0.205625
-0.0235695
0.20675
-0.00340526
0.00897205
0.194821
-0.000730284
0.19486
-0.000255106
0.194767
0.000235705
0.19452
0.000802032
0.194133
0.00131722
0.193592
0.00186863
0.192933
0.00231187
0.192181
0.00262717
0.191367
0.00288724
0.190645
0.00253835
0.189927
0.0026066
0.189635
0.00107883
0.189359
0.00121446
0.189837
-0.00143589
0.190226
-0.000791877
0.191208
-0.00276025
0.191803
-0.00124679
0.191576
0.00166669
0.191032
0.00263424
0.188165
0.0111734
0.185579
0.00973765
0.181427
0.0161702
0.177193
0.0144086
0.172581
0.0148853
0.17469
-0.00815063
0.183695
-0.0312624
0.189086
-0.0200773
0.197388
-0.0318716
0.198539
-0.00455567
0.0127079
0.186624
-0.000888559
0.186643
-0.000274087
0.186516
0.0003631
0.18622
0.00109784
0.185767
0.00176986
0.185145
0.00249109
0.184388
0.00306889
0.183526
0.00348916
0.182598
0.00381562
0.181768
0.00336804
0.180961
0.00341336
0.180631
0.00140938
0.180372
0.00147282
0.180961
-0.00202462
0.181567
-0.00139802
0.182863
-0.00405593
0.183775
-0.00215855
0.183724
0.00171757
0.183271
0.00308675
0.180265
0.0141793
0.17748
0.0125227
0.173168
0.020482
0.16821
0.0193666
0.162578
0.020518
0.164583
-0.0101561
0.175036
-0.0417151
0.181032
-0.0260733
0.189768
-0.0406074
0.190983
-0.00577132
0.0169819
0.178943
-0.00103966
0.178941
-0.000272201
0.178775
0.000528737
0.178424
0.00144933
0.177894
0.00229977
0.177174
0.00321086
0.176298
0.00394444
0.175303
0.00448468
0.174232
0.00488688
0.173269
0.00433094
0.172347
0.00433544
0.171958
0.00179802
0.171715
0.00171622
0.172417
-0.00272755
0.173299
-0.00227944
0.17498
-0.00573656
0.176283
-0.0034616
0.176436
0.00156444
0.176075
0.00344784
0.172884
0.0173696
0.169871
0.0155364
0.165391
0.0249614
0.159581
0.025177
0.152709
0.0273895
0.154232
-0.0116786
0.166344
-0.053827
0.173291
-0.0330211
0.182579
-0.0498952
0.183933
-0.00712474
0.0217748
0.17173
-0.00118592
0.171707
-0.0002497
0.171501
0.000735194
0.171088
0.00186166
0.170471
0.00291655
0.169642
0.00404074
0.168629
0.00495717
0.167479
0.00563494
0.166238
0.0061275
0.165116
0.00545246
0.164051
0.00540082
0.163583
0.00226585
0.163348
0.00195144
0.164158
-0.00353715
0.165376
-0.00349809
0.16752
-0.00788016
0.169291
-0.00523288
0.169675
0.00118095
0.169394
0.00372802
0.165982
0.0207825
0.16272
0.0187976
0.158084
0.0295981
0.151386
0.0318749
0.14306
0.0357148
0.143355
-0.0119727
0.15696
-0.0674321
0.165347
-0.0414086
0.175517
-0.0600648
0.177197
-0.00880466
0.0269706
0.164945
-0.00133017
0.164903
-0.000207727
0.164655
0.000983449
0.164178
0.0023385
0.163467
0.00362742
0.162516
0.00499195
0.16135
0.00612308
0.160025
0.00695998
0.15859
0.00756187
0.157285
0.00675786
0.156048
0.00663739
0.155478
0.0028365
0.155236
0.00219278
0.156137
-0.00443802
0.157756
-0.00511687
0.160453
-0.0105771
0.162771
-0.00755126
0.163409
0.000543744
0.163183
0.00395346
0.159525
0.0244406
0.155989
0.0223338
0.151219
0.0343682
0.143758
0.039336
0.133777
0.0456955
0.131675
-0.00987091
0.145969
-0.0817264
0.156329
-0.0517685
0.168048
-0.0717839
0.1705
-0.0112566
0.032323
0.158554
-0.00147578
0.158494
-0.000147971
0.158204
0.00127309
0.157661
0.0028821
0.156851
0.00443723
0.155769
0.00607405
0.154436
0.00745551
0.152917
0.00847902
0.151268
0.00921148
0.149753
0.00827268
0.148316
0.00807385
0.14762
0.00353287
0.147346
0.00246625
0.148316
-0.0054079
0.150397
-0.00719804
0.153752
-0.0139311
0.156704
-0.0105039
0.157607
-0.000359162
0.157394
0.00416641
0.15349
0.0283447
0.149624
0.0261997
0.144762
0.0392301
0.136818
0.0472806
0.125096
0.0574169
0.119393
-0.00416776
0.132943
-0.0952766
0.145462
-0.0642867
0.159531
-0.0858537
0.163502
-0.015227
0.0374403
0.152524
-0.00162697
0.152449
-7.25322e-05
0.152119
0.00160234
0.151508
0.00349323
0.150597
0.00534863
0.149376
0.00729502
0.147866
0.00896531
0.146135
0.0102102
0.144252
0.0110947
0.142502
0.0100222
0.140838
0.00973794
0.139994
0.00437738
0.139647
0.00281239
0.140659
-0.00641904
0.143258
-0.0097975
0.147394
-0.018067
0.151073
-0.0141825
0.152243
-0.00152976
0.151986
0.00442388
0.14785
0.0324805
0.143569
0.0304809
0.138681
0.044118
0.130585
0.0553767
0.117324
0.070678
0.107623
0.00553238
0.118853
-0.106507
0.132853
-0.0782865
0.149648
-0.102649
0.155958
-0.0215371
0.0418716
0.146826
-0.0017861
0.146741
1.20793e-05
0.146374
0.00196979
0.145696
0.00417059
0.144683
0.00636224
0.143317
0.00866096
0.141621
0.0106615
0.13966
0.0121704
0.137529
0.0132257
0.13552
0.0120319
0.133603
0.0116545
0.13259
0.00539028
0.132113
0.00328915
0.133134
-0.00743958
0.136295
-0.0129587
0.141365
-0.0231366
0.145872
-0.01869
0.147282
-0.00293943
0.146924
0.00478132
0.142563
0.0368418
0.137782
0.0352618
0.132943
0.0489567
0.124947
0.0633731
0.110736
0.0848895
0.0979375
0.0183304
0.105724
-0.114293
0.119667
-0.0922293
0.138739
-0.121721
0.147865
-0.0306632
0.0452521
0.141434
-0.00195751
0.141343
0.000103461
0.140942
0.00237038
0.140202
0.00491132
0.139087
0.00747716
0.137572
0.0101755
0.135683
0.0125512
0.133479
0.0143744
0.131089
0.0156151
0.128794
0.0143273
0.126607
0.0138411
0.125404
0.00659388
0.124727
0.00396615
0.125713
-0.00842637
0.129464
-0.0167095
0.135659
-0.0293314
0.141091
-0.0241217
0.142697
-0.00454524
0.142184
0.00529348
0.137572
0.0414545
0.132257
0.0405764
0.127517
0.0536965
0.119755
0.0711359
0.105421
0.0992231
0.091151
0.0326005
0.0950765
-0.118219
0.107286
-0.104439
0.12755
-0.141985
0.139437
-0.0425504
0.047401
0.136325
-0.00214496
0.136231
0.000198359
0.135803
0.00279808
0.135004
0.00570973
0.133791
0.00869106
0.132126
0.0118398
0.130036
0.014641
0.127576
0.0168346
0.124922
0.018269
0.122315
0.0169345
0.119851
0.0163056
0.118433
0.00801104
0.117481
0.00491875
0.118368
-0.00931359
0.122723
-0.0210645
0.130273
-0.0368818
0.136698
-0.0305464
0.138472
-0.00631955
0.137739
0.00602677
0.132813
0.0463811
0.127006
0.0463827
0.12235
0.0583524
0.114871
0.0786149
0.101208
0.112886
0.0868491
0.0469593
0.0871557
-0.118526
0.0965169
-0.1138
0.116766
-0.162233
0.130959
-0.0567437
0.0483131
0.131475
-0.00235169
0.131382
0.000291837
0.130934
0.00324607
0.130086
0.00655805
0.128777
0.0100001
0.126963
0.0136531
0.124668
0.0169366
0.121942
0.0195606
0.11902
0.0211908
0.116077
0.0198776
0.113338
0.0190444
0.111679
0.00966984
0.110385
0.00621317
0.111072
-0.0100011
0.11603
-0.0260223
0.125175
-0.0460269
0.132648
-0.0380189
0.134582
-0.00825394
0.133553
0.007056
0.128232
0.0517022
0.122033
0.0525817
0.11738
0.063005
0.110182
0.0858134
0.097723
0.125345
0.0840788
0.0606035
0.0813818
-0.115829
0.087574
-0.119992
0.106817
-0.181477
0.122667
-0.0725933
0.0480974
0.126862
-0.00258049
0.126776
0.000378287
0.126316
0.00370581
0.125428
0.00744646
0.124029
0.0113987
0.122069
0.0156129
0.119562
0.0194433
0.116565
0.0225584
0.113373
0.0243822
0.110076
0.0231753
0.107074
0.0220462
0.105145
0.0115989
0.10346
0.00789762
0.10382
-0.0103609
0.10933
-0.0315319
0.120237
-0.0569339
0.128819
-0.0466015
0.130964
-0.0103983
0.129574
0.00844553
0.123791
0.0574857
0.117311
0.0590615
0.112554
0.067762
0.105637
0.09273
0.0946317
0.136351
0.0820367
0.0731985
0.0771204
-0.110912
0.0803806
-0.123253
0.0979221
-0.199018
0.114731
-0.0894026
0.0469229
0.122465
-0.00283356
0.122392
0.000451492
0.121931
0.00416678
0.121014
0.00836322
0.119533
0.0128796
0.11743
0.0177158
0.114708
0.0221658
0.111435
0.0258309
0.107972
0.0278459
0.104311
0.0268356
0.10106
0.0252977
0.0988306
0.0138283
0.0967482
0.00998003
0.0966557
-0.0102683
0.102511
-0.0373869
0.115114
-0.0695368
0.124932
-0.0564196
0.127466
-0.0129331
0.125724
0.0101882
0.119455
0.0637543
0.112793
0.0657231
0.107842
0.0727132
0.101206
0.0993658
0.0916896
0.145867
0.0802403
0.0846478
0.0738842
-0.104556
0.0747298
-0.124098
0.0901455
-0.214434
0.107258
-0.106515
0.0449822
0.118264
-0.00311244
0.118212
0.000504275
0.117762
0.00461618
0.116831
0.00929478
0.115277
0.0144336
0.113034
0.0199581
0.110092
0.025108
0.106545
0.029378
0.102803
0.0315876
0.0987884
0.0308507
0.0952955
0.0287905
0.0927286
0.0163951
0.0903103
0.0123983
0.0896852
-0.0096432
0.0953635
-0.0430652
0.109147
-0.0833199
0.120431
-0.0677036
0.123799
-0.016301
0.121872
0.0121144
0.115181
0.0704458
0.108428
0.0724763
0.103233
0.0779082
0.0968708
0.105728
0.088754
0.153984
0.0784297
0.0949722
0.0713004
-0.0974268
0.0703329
-0.123131
0.0834399
-0.227541
0.100301
-0.123376
0.0424668
0.114242
-0.00341751
0.114218
0.000528244
0.113795
0.00503885
0.112864
0.010226
0.111248
0.0160497
0.10887
0.0223366
0.105705
0.028273
0.101885
0.0331974
0.0978554
0.0356174
0.0935133
0.0351927
0.0897734
0.0325305
0.0868321
0.0193364
0.0842125
0.015018
0.0830208
-0.0084515
0.0876237
-0.0476681
0.101515
-0.0972114
0.114568
-0.0807559
0.119514
-0.0212476
0.117828
0.0138002
0.110907
0.0773672
0.104165
0.079218
0.0987228
0.0833508
0.0926233
0.111827
0.0857554
0.160852
0.0764894
0.104238
0.0690992
-0.0900366
0.066858
-0.12089
0.0776869
-0.23837
0.0938771
-0.139567
0.0395522
0.110382
-0.00374814
0.110397
0.000513426
0.110018
0.00541751
0.109104
0.0111408
0.107438
0.0177155
0.104925
0.0248492
0.101535
0.0316634
0.0974455
0.0372869
0.0931163
0.0399465
0.0884914
0.0398176
0.0844825
0.0365393
0.0811531
0.0226659
0.0784855
0.0176856
0.0766628
-0.00662876
0.0791701
-0.0501755
0.091786
-0.109827
0.106746
-0.0957163
0.114162
-0.0286635
0.113368
0.0145949
0.106557
0.084178
0.0999655
0.0858092
0.0943125
0.0890038
0.0884658
0.117674
0.0826786
0.166639
0.0743859
0.112531
0.0670989
-0.0827496
0.0640333
-0.117824
0.0727413
-0.247078
0.0879717
-0.154797
0.0363884
0.106669
-0.00410187
0.106735
0.00044775
0.106419
0.00573341
0.105538
0.0120219
0.103837
0.0194169
0.101191
0.0274946
0.0975737
0.0352808
0.0932142
0.0416464
0.088579
0.0445817
0.0837179
0.0446788
0.0794112
0.040846
0.0757422
0.0263348
0.0730843
0.0203435
0.0704629
-0.00400733
0.070276
-0.0499886
0.0804904
-0.120042
0.097028
-0.112254
0.107533
-0.0391682
0.108318
0.0138094
0.102058
0.0904385
0.095794
0.0920728
0.0900024
0.0947954
0.084405
0.123271
0.0795356
0.171509
0.0721269
0.11994
0.0651831
-0.0758059
0.0616561
-0.114297
0.0684612
-0.253883
0.082553
-0.168889
0.0330954
0.103085
-0.00447164
0.103214
0.000318186
0.10298
0.00596799
0.10215
0.0128512
0.100429
0.0211379
0.097653
0.0302709
0.0938079
0.0391258
0.089176
0.0462784
0.0842397
0.0495179
0.079174
0.0497445
0.0745592
0.0454608
0.0706601
0.030234
0.0678963
0.0231072
0.0642755
-0.000386485
0.0616336
-0.0473467
0.0690347
-0.127443
0.0862501
-0.129469
0.0998159
-0.052734
0.102649
0.0109764
0.0973716
0.0957159
0.0916266
0.0978178
0.0857937
0.100628
0.080449
0.128616
0.0763512
0.175607
0.0697373
0.126553
0.0632818
-0.0693503
0.059572
-0.110587
0.0647236
-0.259034
0.0775832
-0.181748
0.0297661
0.0995956
-0.00484586
0.0998006
0.000113111
0.0996632
0.00610539
0.098908
0.0136065
0.0971888
0.022857
0.0942882
0.0331716
0.0902176
0.0431964
0.0853119
0.0511841
0.0800935
0.0547362
0.0748302
0.0550079
0.0699434
0.0503476
0.065934
0.0342434
0.0627963
0.0262449
0.0581415
0.00426833
0.0540156
-0.0432208
0.0588946
-0.132322
0.0755755
-0.14615
0.0915052
-0.0686638
0.0964852
0.00599637
0.0925107
0.0996904
0.0874508
0.102878
0.0816888
0.10639
0.0766061
0.133699
0.0731541
0.179059
0.0672481
0.132459
0.0613571
-0.0634593
0.0576692
-0.106899
0.0614321
-0.262797
0.0730242
-0.193341
0.0264724
0.0961332
-0.00520942
0.0964226
-0.000176223
0.0963961
0.00613184
0.0957459
0.0142567
0.0940617
0.0245412
0.0910561
0.0361772
0.0867702
0.0474822
0.0815986
0.0563557
0.0761273
0.0602075
0.0706579
0.0604773
0.0655859
0.0554196
0.0615221
0.0383072
0.0577201
0.0300469
0.0522775
0.00971092
0.0478594
-0.0388027
0.0508583
-0.135321
0.0659312
-0.161223
0.0831405
-0.085873
0.090043
-0.000906145
0.08753
0.102203
0.083272
0.107136
0.0776922
0.11197
0.0728837
0.138507
0.0699716
0.181971
0.0646911
0.13774
0.0593929
-0.0581611
0.0558708
-0.103377
0.0585056
-0.265432
0.0688387
-0.203674
0.0232689
0.0925765
-0.00553535
0.0929452
-0.000544951
0.0930465
0.0060305
0.0925486
0.0147546
0.0909554
0.0261345
0.0878889
0.0392437
0.0834168
0.0519543
0.0780064
0.0617662
0.0723164
0.0658975
0.0666383
0.0661554
0.0614935
0.0605644
0.0573383
0.0424624
0.0526903
0.0346949
0.0469207
0.0154805
0.0431542
-0.0350362
0.0449245
-0.137091
0.05775
-0.174048
0.0751426
-0.103266
0.0835475
-0.00931106
0.0825088
0.103242
0.0791121
0.110532
0.0738098
0.117272
0.0692877
0.143029
0.0668281
0.18443
0.062097
0.142471
0.0573876
-0.0534517
0.0541266
-0.100116
0.0558709
-0.267176
0.0649911
-0.212794
0.0201965
0.0887328
-0.00578749
0.0891619
-0.000974024
0.0894082
0.00578416
0.0891358
0.015027
0.0877266
0.0275437
0.0846849
0.0422855
0.0800895
0.0565498
0.0744959
0.0673597
0.0686265
0.0717669
0.0627634
0.0720185
0.0576458
0.0656819
0.0532936
0.0468146
0.0477857
0.0402027
0.0422317
0.0210345
0.0396279
-0.0324324
0.0406565
-0.13812
0.0510563
-0.184448
0.0677558
-0.119965
0.0771897
-0.018745
0.0775299
0.102902
0.0750016
0.113061
0.0700492
0.122225
0.0658228
0.147256
0.0637445
0.186509
0.0594947
0.146721
0.055349
-0.0493061
0.0524064
-0.0971735
0.0534656
-0.268236
0.061447
-0.220775
0.0172839
0.0843238
-0.00595222
0.0847783
-0.00142854
0.0851965
0.00536596
0.0852576
0.014966
0.0841793
0.0286219
0.0813076
0.0451572
0.0767029
0.0611544
0.0710181
0.0730445
0.0650196
0.0777654
0.05903
0.0780081
0.0540019
0.07071
0.0493284
0.0514882
0.0431094
0.0464217
0.0382701
0.0258737
0.0369654
-0.0311277
0.0375466
-0.138701
0.0456584
-0.19256
0.0610828
-0.13539
0.0711039
-0.0287661
0.0726671
0.101339
0.0709725
0.114755
0.0664183
0.126779
0.062492
0.151182
0.0607371
0.188263
0.0569101
0.150548
0.0532909
-0.0456868
0.0506949
-0.0945775
0.0512397
-0.26878
0.0581738
-0.227709
0.0145496
0.0789962
-0.00598794
0.079432
-0.00186437
0.080071
0.00472699
0.0806143
0.0144226
0.0800787
0.0291575
0.0775969
0.0476391
0.0731607
0.0655905
0.067516
0.0786893
0.0614595
0.0838218
0.0554328
0.0840348
0.0505138
0.0756291
0.0454215
0.0565805
0.0387555
0.0530878
0.0350154
0.0296138
0.0349194
-0.0310317
0.0352047
-0.138986
0.0413142
-0.198669
0.0551333
-0.149209
0.0653767
-0.0390094
0.0679794
0.0987359
0.0670547
0.11568
0.0629246
0.130909
0.0592971
0.154809
0.0578185
0.189742
0.0543652
0.154001
0.0512295
-0.0425511
0.0489859
-0.092334
0.0491549
-0.268949
0.0551411
-0.233696
0.0120034
0.072416
-0.00580699
0.0727618
-0.00221017
0.0737089
0.00377992
0.0749331
0.0131984
0.0752069
0.0288837
0.0733979
0.0494481
0.0693713
0.0696171
0.0639372
0.0841234
0.0579194
0.0898397
0.0519622
0.089992
0.0471391
0.0804522
0.0415819
0.0621376
0.0347913
0.0598783
0.0324047
0.0320004
0.0333296
-0.0319567
0.0333797
-0.139036
0.0377977
-0.203087
0.049872
-0.161283
0.0600579