/*--------------------------------*- C++ -*----------------------------------*\
  =========                 |
  \\      /  F ield         | OpenFOAM: The Open Source CFD Toolbox
   \\    /   O peration     | Website:  https://openfoam.org
    \\  /    A nd           | Version:  7
     \\/     M anipulation  |
\*---------------------------------------------------------------------------*/
FoamFile
{
    version     2.0;
    format      ascii;
    class       volVectorField;
    location    "100";
    object      U;
}
// * * * * * * * * * * * * * * * * * * * * * * * * * * * * * * * * * * * * * //

dimensions      [0 1 -1 0 0 0 0];

internalField   nonuniform List<vector> 
2125
(
(1.3793 -0.159317 -9.92396e-21)
(1.36339 -0.154264 -2.84867e-20)
(1.37848 -0.14744 -4.83119e-21)
(1.27877 -0.131353 1.9768e-20)
(1.34739 -0.140826 -2.26513e-21)
(1.37425 -0.135473 2.41989e-20)
(0.865195 -0.0623619 5.51443e-20)
(1.08106 -0.0929982 -1.15335e-19)
(1.23431 -0.114717 2.34813e-20)
(1.32408 -0.127189 -1.82468e-20)
(1.36543 -0.123323 -2.55461e-20)
(0.525064 -0.0224728 1.13763e-20)
(0.773176 -0.0474927 -9.31897e-20)
(1.00234 -0.0758854 6.31992e-20)
(1.17862 -0.0982134 -4.91519e-20)
(1.29179 -0.113378 4.8885e-20)
(1.3505 -0.110915 -2.19858e-21)
(0.239696 -0.00854512 -4.24623e-22)
(0.440061 -0.0168617 3.78938e-20)
(0.677336 -0.0354664 2.12998e-21)
(0.913721 -0.0603457 -5.07097e-20)
(1.11076 -0.0821397 -1.42567e-21)
(1.24877 -0.099512 -2.13343e-20)
(1.32759 -0.0981674 2.51688e-20)
(0.0629945 -0.0133611 7.16234e-21)
(0.18396 -0.0111189 2.01584e-20)
(0.359931 -0.0144018 -3.41423e-20)
(0.580499 -0.0266709 7.97152e-20)
(0.816839 -0.0469711 -3.45444e-22)
(1.03037 -0.0669317 -6.62261e-21)
(1.19343 -0.0858258 -4.15522e-20)
(1.29434 -0.0851452 -5.7243e-21)
(0.0357217 -0.0186683 5.56415e-21)
(0.1351 -0.0151708 -1.44997e-20)
(0.286339 -0.0147589 -1.68551e-20)
(0.485737 -0.0213395 -1.09514e-20)
(0.714359 -0.0364002 -7.78325e-21)
(0.938018 -0.0531774 9.86873e-21)
(1.12444 -0.0727404 3.99864e-20)
(1.24857 -0.0718816 2.9577e-20)
(-0.0235406 -0.0239591 3.08371e-20)
(0.0133401 -0.024072 -7.08929e-20)
(0.0931816 -0.0203217 3.94659e-20)
(0.220466 -0.0175425 3.41115e-20)
(0.395995 -0.0195086 -8.57896e-20)
(0.609845 -0.0292322 2.32768e-20)
(0.835511 -0.0416084 -1.16044e-21)
(1.04165 -0.0608673 1.69192e-20)
(1.18678 -0.0589106 -3.31293e-20)
(-0.0209659 -0.0158733 8.69281e-20)
(-0.029631 -0.0275761 -2.40132e-20)
(-0.00451302 -0.0294478 3.47874e-20)
(0.0580693 -0.0263213 2.17028e-20)
(0.163031 -0.0224 -1.20092e-20)
(0.313768 -0.021039 2.76999e-20)
(0.507376 -0.0259002 -1.13759e-20)
(0.726118 -0.0330796 6.39763e-20)
(0.94566 -0.0509829 -1.03141e-19)
(1.10924 -0.0469209 -3.53134e-20)
(-0.0204772 -0.016508 -2.55859e-20)
(-0.0336312 -0.0307377 9.5824e-20)
(-0.0182516 -0.0347821 -7.51895e-20)
(0.0294735 -0.0330481 -2.22216e-21)
(0.114345 -0.0290712 -3.43453e-20)
(0.240914 -0.0256873 3.71215e-20)
(0.410984 -0.0265668 3.98374e-20)
(0.614239 -0.0284783 -1.97469e-20)
(0.840091 -0.0442866 1.70838e-20)
(1.009 -0.0369341 2.05147e-20)
(-0.0195479 -0.0168572 5.24862e-21)
(-0.0358967 -0.0335475 -2.63792e-20)
(-0.0283301 -0.0401522 3.25495e-20)
(0.00696916 -0.0404822 -3.03976e-20)
(0.0743705 -0.0373895 -3.66515e-20)
(0.178599 -0.0331791 -1.6188e-20)
(0.324026 -0.0311042 -6.01684e-20)
(0.505221 -0.0288917 3.67351e-20)
(0.729524 -0.0393155 6.7685e-20)
(0.89153 -0.0402998 -2.18415e-20)
(-0.0183398 -0.0170153 1.62938e-20)
(-0.0367784 -0.0361538 1.25214e-20)
(-0.0352414 -0.0456854 -3.00603e-21)
(-0.00999842 -0.0486581 -5.26702e-20)
(0.0427429 -0.0472423 5.41779e-20)
(0.127284 -0.0432379 5.99314e-20)
(0.248786 -0.0392377 2.04539e-20)
(0.40533 -0.0350459 -3.22042e-21)
(0.610834 -0.0339083 -7.1554e-20)
(0.803223 -0.046498 2.28568e-20)
(-0.0169993 -0.0170969 -4.91689e-20)
(-0.0366187 -0.038735 -6.17708e-21)
(-0.0395115 -0.051522 1.30149e-20)
(-0.0221066 -0.057614 4.04896e-21)
(0.0187859 -0.0585143 1.63999e-20)
(0.0867373 -0.055562 -9.62302e-20)
(0.186456 -0.0506501 5.69694e-20)
(0.319031 -0.0459557 -6.77657e-20)
(0.494472 -0.0338408 4.93414e-20)
(0.710902 -0.0454935 6.03298e-20)
(-0.0156501 -0.0172164 2.16934e-20)
(-0.0357395 -0.0414666 -1.37702e-20)
(-0.0416802 -0.0577827 6.09699e-21)
(-0.0301308 -0.0673487 -2.86856e-20)
(0.00154437 -0.0710363 3.91042e-21)
(0.0560936 -0.0697843 -7.47867e-21)
(0.137155 -0.0649197 -3.56204e-20)
(0.248183 -0.0601412 1.86884e-20)
(0.390421 -0.0416012 3.69784e-20)
(0.612729 -0.0448821 -5.49738e-20)
(-0.0143894 -0.01748 -3.01425e-20)
(-0.0344221 -0.0444952 -4.39637e-20)
(-0.0422716 -0.0645387 3.44154e-20)
(-0.0348968 -0.077793 3.28712e-20)
(-0.0101408 -0.0845544 -7.99586e-20)
(0.0339739 -0.0854368 7.80936e-20)
(0.0998958 -0.0814051 -8.63496e-20)
(0.192343 -0.0765085 2.38841e-20)
(0.304522 -0.0563235 -2.54963e-20)
(0.513312 -0.0494038 -4.14704e-20)
(-0.0132808 -0.0179748 1.54339e-20)
(-0.0328921 -0.047924 3.53624e-20)
(-0.0417595 -0.0717953 8.97538e-21)
(-0.0372193 -0.0888001 9.46853e-21)
(-0.0175167 -0.098729 -6.00939e-22)
(0.018683 -0.101956 1.39088e-20)
(0.0728149 -0.0992789 2.65977e-20)
(0.149724 -0.0943075 5.02706e-20)
(0.238173 -0.0755805 -4.96473e-20)
(0.420635 -0.0599917 1.8559e-20)
(-0.0123524 -0.0187586 -3.81366e-20)
(-0.0313086 -0.0518024 8.69477e-22)
(-0.040541 -0.079491 1.21017e-20)
(-0.0378395 -0.100154 -2.12671e-20)
(-0.0217902 -0.11316 4.0958e-20)
(0.00845064 -0.118732 -9.59087e-20)
(0.0535965 -0.117661 5.06409e-20)
(0.117861 -0.112865 -4.67118e-20)
(0.189224 -0.0968655 9.03254e-20)
(0.341007 -0.0761306 2.39319e-20)
(-0.0115988 -0.0198544 1.98572e-20)
(-0.0297634 -0.0561209 -4.04138e-20)
(-0.0389211 -0.0875045 -1.20551e-20)
(-0.0373794 -0.11159 1.75132e-20)
(-0.0240226 -0.127424 2.91755e-20)
(0.00164202 -0.135175 4.39527e-21)
(0.0398951 -0.135747 -1.70373e-20)
(0.0940349 -0.131488 3.92989e-20)
(0.153605 -0.118375 -2.24879e-20)
(0.276737 -0.0966222 -2.76693e-21)
(-0.0109896 -0.0212512 5.52946e-20)
(-0.0282885 -0.060812 1.50636e-20)
(-0.0371112 -0.0956635 2.86046e-21)
(-0.0363205 -0.122816 -3.90892e-20)
(-0.0250706 -0.141109 3.46216e-20)
(-0.00310509 -0.150759 1.10854e-20)
(0.0296521 -0.152881 5.65046e-21)
(0.07564 -0.149514 -1.22262e-20)
(0.126908 -0.139101 1.45819e-20)
(0.226453 -0.119706 2.47687e-20)
(-0.0104773 -0.022908 -4.16834e-20)
(-0.0268696 -0.0657575 2.2771e-20)
(-0.0352405 -0.103757 -2.40008e-21)
(-0.0350082 -0.133531 5.62983e-20)
(-0.0255727 -0.153839 -6.09393e-20)
(-0.00682648 -0.165052 1.98911e-20)
(0.0212583 -0.16857 -1.2291e-20)
(0.0604721 -0.166384 -1.09561e-20)
(0.105389 -0.158537 -3.36219e-20)
(0.186715 -0.143455 1.29829e-20)
(-0.0100067 -0.0247575 1.78289e-20)
(-0.025465 -0.0707974 -4.52633e-20)
(-0.0333763 -0.111547 -2.5255e-20)
(-0.0336715 -0.143439 -3.92913e-20)
(-0.0259697 -0.165288 1.03351e-20)
(-0.0102438 -0.177716 -3.47154e-21)
(0.013582 -0.182468 -3.19992e-20)
(0.0468807 -0.181672 -6.8511e-21)
(0.0863416 -0.176374 -5.78717e-22)
(0.1537 -0.166255 1.55719e-20)
(-0.00952347 -0.0267117 3.23866e-20)
(-0.0240222 -0.0757413 3.1704e-21)
(-0.0315451 -0.118781 1.36308e-20)
(-0.0324518 -0.152264 5.96335e-20)
(-0.0265427 -0.175184 5.86378e-20)
(-0.0138147 -0.188505 -1.01822e-20)
(0.00590946 -0.194349 2.59284e-20)
(0.033771 -0.195079 -1.6869e-20)
(0.0680583 -0.192364 -1.00693e-20)
(0.124268 -0.187038 -2.29377e-20)
(-0.00898098 -0.0286685 -4.2453e-20)
(-0.0224931 -0.080379 3.51823e-20)
(-0.0297536 -0.125206 1.77136e-20)
(-0.0314299 -0.159755 -3.39035e-20)
(-0.0274532 -0.183314 -3.81513e-20)
(-0.0177943 -0.19725 1.22517e-20)
(-0.00214888 -0.204076 1.15447e-21)
(0.0205166 -0.206412 5.22509e-20)
(0.0496115 -0.206289 3.14583e-20)
(0.0963313 -0.205229 -1.32056e-20)
(-0.00834506 -0.030517 2.32931e-20)
(-0.0208441 -0.0844932 -1.01811e-20)
(-0.0280044 -0.130578 -3.63415e-20)
(-0.030649 -0.165696 1.54707e-20)
(-0.0287783 -0.189518 -6.89177e-22)
(-0.022292 -0.20385 -4.99897e-20)
(-0.0107494 -0.211577 -2.7553e-21)
(0.0068435 -0.21555 -4.88104e-20)
(0.0306217 -0.217963 -2.2153e-20)
(0.0687707 -0.220576 3.7642e-20)
(-0.00759685 -0.0321437 -2.90223e-20)
(-0.0190634 -0.0878705 -2.61967e-21)
(-0.0263055 -0.134677 -1.81806e-21)
(-0.0301304 -0.169912 -3.28005e-20)
(-0.0305374 -0.193688 4.83118e-21)
(-0.0273155 -0.208256 3.07425e-20)
(-0.019889 -0.216833 -1.61418e-20)
(-0.00727669 -0.22243 2.62262e-20)
(0.0110685 -0.227257 1.183e-20)
(0.0411817 -0.233003 -1.36412e-20)
(-0.00673393 -0.0334381 1.82638e-20)
(-0.0171635 -0.0903137 3.48987e-20)
(-0.0246767 -0.137314 -7.82913e-21)
(-0.029884 -0.172274 1.61047e-20)
(-0.0327119 -0.195772 1.05872e-20)
(-0.0328046 -0.210474 -2.61423e-20)
(-0.0294596 -0.219865 6.45934e-21)
(-0.0217102 -0.227036 -6.93017e-21)
(-0.00884135 -0.234105 9.09704e-21)
(0.0136372 -0.242511 -1.84054e-20)
(-0.00577006 -0.0342984 -5.95865e-21)
(-0.0151812 -0.0916511 -2.27981e-20)
(-0.0231506 -0.138342 3.17668e-20)
(-0.0299143 -0.172703 -1.5896e-20)
(-0.035258 -0.195761 7.41025e-21)
(-0.0386547 -0.210548 2.21376e-20)
(-0.0392866 -0.220728 -1.89775e-20)
(-0.036224 -0.229397 -4.70955e-21)
(-0.0287547 -0.238506 4.16403e-22)
(-0.013483 -0.249081 2.21097e-20)
(-0.00473411 -0.0346345 -1.84359e-21)
(-0.0131751 -0.0917473 -6.95662e-21)
(-0.0217708 -0.137661 -2.82308e-20)
(-0.0302223 -0.171167 5.53113e-21)
(-0.0381163 -0.193696 4.55202e-21)
(-0.0447332 -0.20856 -1.80159e-21)
(-0.0491588 -0.219516 -5.29438e-22)
(-0.0505287 -0.229585 -7.5185e-21)
(-0.0481985 -0.2405 1.06853e-20)
(-0.0396395 -0.252684 7.25715e-21)
(-0.00366962 -0.0343765 4.74814e-21)
(-0.0112207 -0.0905048 8.44925e-21)
(-0.0205876 -0.135218 2.14538e-20)
(-0.0308075 -0.167686 -1.10253e-20)
(-0.041218 -0.189654 -9.46722e-21)
(-0.0508968 -0.204622 -3.48543e-22)
(-0.0588507 -0.216351 1.82067e-20)
(-0.0642955 -0.227708 8.70096e-21)
(-0.0666374 -0.240172 -7.53911e-21)
(-0.0643203 -0.25371 -8.70505e-21)
(-0.00262761 -0.0334777 -7.92171e-22)
(-0.00940341 -0.0878715 1.71809e-21)
(-0.0196576 -0.131016 -4.05079e-21)
(-0.0316676 -0.162323 2.87523e-21)
(-0.0444897 -0.183752 2.56094e-21)
(-0.056998 -0.198881 1.81498e-21)
(-0.0681311 -0.211386 -3.6728e-21)
(-0.0771933 -0.223915 -1.49982e-20)
(-0.0837135 -0.237675 -2.33171e-21)
(-0.0869248 -0.252458 4.63476e-21)
(-0.00166557 -0.031914 1.23133e-21)
(-0.00781474 -0.0838449 -3.08429e-21)
(-0.0190365 -0.125104 -2.4775e-21)
(-0.0327962 -0.155184 1.73715e-21)
(-0.0478562 -0.176134 -2.39176e-21)
(-0.0628916 -0.191503 -1.13539e-21)
(-0.0767802 -0.204798 1.19525e-21)
(-0.0889157 -0.218398 5.93339e-21)
(-0.0989872 -0.233235 -2.09408e-21)
(-0.106787 -0.24892 2.15377e-21)
(1.09961 -0.00169212 -1.26281e-22)
(1.10023 -0.00162236 3.32839e-22)
(1.10081 -0.00155126 -3.31413e-22)
(1.10137 -0.00147877 1.06981e-22)
(1.10189 -0.00140484 2.65701e-22)
(1.10238 -0.00132942 2.40859e-24)
(1.10284 -0.00125258 -1.25743e-22)
(1.10327 -0.00117411 -2.06756e-22)
(1.10367 -0.00109458 1.36746e-22)
(1.10403 -0.00101248 -5.91583e-23)
(1.1044 -0.000931928 4.28777e-23)
(1.10093 -0.00501827 -9.66113e-23)
(1.10157 -0.0047998 -2.80441e-23)
(1.10218 -0.0045786 7.35896e-23)
(1.10276 -0.00435464 1.69597e-22)
(1.1033 -0.00412795 -1.35945e-23)
(1.10382 -0.00389844 -4.26951e-23)
(1.1043 -0.00366637 -5.67997e-23)
(1.10475 -0.00343118 1.8445e-22)
(1.10518 -0.00319451 4.78965e-23)
(1.10555 -0.00295198 -4.73637e-23)
(1.10595 -0.00271528 -7.8797e-23)
(1.10336 -0.00825338 -1.66134e-22)
(1.10405 -0.00789086 9.62585e-24)
(1.1047 -0.00752411 1.70626e-23)
(1.10532 -0.00715308 3.81568e-22)
(1.10591 -0.00677777 -5.11493e-22)
(1.10647 -0.00639806 1.37852e-22)
(1.107 -0.00601429 1.43897e-22)
(1.10749 -0.00562556 8.35544e-23)
(1.10796 -0.00523437 -8.15125e-23)
(1.10838 -0.00483394 -7.37492e-24)
(1.10884 -0.00444225 4.77234e-24)
(1.1068 -0.0114968 1.98407e-22)
(1.10755 -0.0109854 -1.22969e-22)
(1.10827 -0.0104681 3.30791e-22)
(1.10896 -0.00994473 -1.35711e-22)
(1.10961 -0.00941547 -6.835e-23)
(1.11024 -0.00888011 -3.54723e-22)
(1.11083 -0.00833911 1.39665e-23)
(1.11139 -0.00779135 1.17054e-23)
(1.11193 -0.00724003 1.09772e-22)
(1.11242 -0.0066765 -8.78684e-23)
(1.11297 -0.00612365 1.28399e-22)
(1.11115 -0.0147652 1.64446e-22)
(1.11198 -0.0140994 -1.23712e-22)
(1.11279 -0.0134259 -7.65976e-23)
(1.11356 -0.0127445 -4.7621e-23)
(1.1143 -0.0120554 1.68378e-22)
(1.11502 -0.0113583 2.61179e-22)
(1.1157 -0.0106538 -7.44514e-25)
(1.11635 -0.00994061 2.16e-22)
(1.11698 -0.00922239 -7.63078e-23)
(1.11756 -0.00848894 4.73018e-22)
(1.11822 -0.00776704 -2.34253e-22)
(1.11632 -0.0181178 -1.7176e-22)
(1.11726 -0.0172902 2.10087e-22)
(1.11817 -0.0164527 -1.537e-22)
(1.11905 -0.0156053 -4.67237e-22)
(1.11991 -0.014748 4.82114e-23)
(1.12073 -0.0138805 -3.34255e-22)
(1.12152 -0.0130034 1.6663e-22)
(1.12228 -0.0121153 5.54982e-22)
(1.12303 -0.0112202 -7.91762e-23)
(1.12372 -0.0103067 -4.92834e-22)
(1.12453 -0.0094045 -1.58635e-22)
(1.12225 -0.0215872 3.86595e-23)
(1.12332 -0.0205888 -1.65821e-22)
(1.12436 -0.0195782 4.87866e-22)
(1.12537 -0.018555 2.29341e-22)
(1.12635 -0.0175195 9.61332e-23)
(1.12731 -0.0164713 1.61623e-22)
(1.12824 -0.0154109 -4.39923e-22)
(1.12913 -0.0143368 -8.47303e-22)
(1.13002 -0.0132533 -3.62812e-22)
(1.13085 -0.0121478 2.07069e-23)
(1.13184 -0.0110523 8.14294e-23)
(1.12888 -0.0252121 3.21213e-22)
(1.1301 -0.0240332 2.47919e-22)
(1.13129 -0.0228393 3.034e-22)
(1.13245 -0.02163 -6.07222e-22)
(1.13359 -0.0204055 7.1134e-22)
(1.1347 -0.0191653 -1.97671e-22)
(1.13579 -0.01791 6.68964e-22)
(1.13684 -0.0166378 -3.72116e-22)
(1.1379 -0.0153532 5.89131e-22)
(1.13889 -0.0140428 8.02072e-22)
(1.14009 -0.0127401 3.08944e-22)
(1.13616 -0.0290249 2.76037e-22)
(1.13755 -0.0276552 2.51131e-23)
(1.13891 -0.0262672 -9.28583e-22)
(1.14025 -0.0248608 3.26506e-22)
(1.14157 -0.0234358 -1.33331e-22)
(1.14286 -0.0219918 -9.50889e-23)
(1.14413 -0.0205293 5.27397e-22)
(1.14537 -0.0190463 -5.13408e-23)
(1.14663 -0.0175475 -5.86454e-22)
(1.14781 -0.0160184 -1.19547e-21)
(1.14926 -0.0144944 1.12047e-22)
(1.14404 -0.0330559 -4.71677e-22)
(1.14562 -0.0314845 1.55628e-22)
(1.14718 -0.0298915 1.15456e-21)
(1.14872 -0.0282765 7.31651e-22)
(1.15024 -0.0266393 -8.48357e-22)
(1.15174 -0.0249795 -3.96869e-22)
(1.15322 -0.0232974 -4.2807e-22)
(1.15468 -0.0215908 2.45693e-22)
(1.15616 -0.0198649 4.58681e-22)
(1.15756 -0.0181034 6.99326e-22)
(1.15929 -0.0163448 -2.39883e-22)
(1.15249 -0.0373316 9.89117e-23)
(1.15429 -0.0355477 -1.28277e-21)
(1.15607 -0.0337384 -6.41889e-24)
(1.15783 -0.0319034 -1.02973e-21)
(1.15958 -0.0300423 6.42308e-22)
(1.16131 -0.0281545 9.6352e-22)
(1.16303 -0.0262405 -1.39618e-22)
(1.16472 -0.0242977 -7.23773e-22)
(1.16646 -0.0223315 -3.6909e-22)
(1.16811 -0.0203241 4.33463e-22)
(1.17016 -0.0183174 -3.95371e-22)
(1.1594 -0.0438524 6.22303e-22)
(1.16146 -0.0418736 8.38503e-22)
(1.1635 -0.039866 -2.92727e-23)
(1.16553 -0.0378292 -1.49412e-21)
(1.16754 -0.0357628 -8.26783e-22)
(1.16954 -0.0336662 -7.06025e-22)
(1.17153 -0.0315388 1.15128e-21)
(1.17352 -0.0293811 1.58118e-21)
(1.17548 -0.0271898 5.86718e-22)
(1.1775 -0.0249715 5.85095e-23)
(1.17944 -0.0227052 -7.34778e-22)
(1.18185 -0.0204388 1.59098e-21)
(1.1686 -0.0489103 -3.84561e-22)
(1.17092 -0.0467008 -1.64792e-21)
(1.17323 -0.0444587 2.71243e-22)
(1.17553 -0.0421835 6.19889e-22)
(1.17781 -0.0398745 6.29652e-22)
(1.1801 -0.0375314 -8.11953e-22)
(1.18237 -0.0351531 -1.52827e-21)
(1.18465 -0.0327405 -3.26138e-22)
(1.18691 -0.0302894 7.30217e-22)
(1.18925 -0.0278082 1.59289e-21)
(1.1915 -0.025271 -4.66666e-22)
(1.19431 -0.0227362 -2.20109e-21)
(1.17823 -0.0542727 1.05851e-21)
(1.18084 -0.0518218 3.21344e-22)
(1.18344 -0.0493345 6.60393e-22)
(1.18603 -0.0468101 -1.26466e-22)
(1.18862 -0.044248 -8.04429e-22)
(1.19121 -0.0416479 6.35091e-23)
(1.19379 -0.0390085 -2.33261e-22)
(1.1964 -0.0363309 -1.39553e-21)
(1.19898 -0.03361 -2.48073e-21)
(1.20167 -0.0308569 -3.31212e-21)
(1.20426 -0.0280386 3.3739e-21)
(1.20751 -0.0252288 7.22548e-23)
(1.18827 -0.0599493 1.55995e-21)
(1.19118 -0.0572455 -6.16288e-22)
(1.1941 -0.0545016 -5.30243e-22)
(1.19701 -0.0517171 1.39694e-22)
(1.19992 -0.0488912 8.5097e-22)
(1.20284 -0.0460237 1.62648e-21)
(1.20576 -0.0431132 -1.02303e-21)
(1.20871 -0.0401615 1.8926e-21)
(1.21164 -0.0371617 -7.34662e-22)
(1.21471 -0.0341289 -8.75592e-22)
(1.21767 -0.0310207 -3.76878e-21)
(1.22141 -0.0279318 -7.83323e-22)
(1.19868 -0.0659371 -1.22378e-21)
(1.20193 -0.0629684 1.02431e-21)
(1.20517 -0.0599564 1.82201e-21)
(1.20843 -0.0569006 1.00506e-21)
(1.21168 -0.0538002 -5.82506e-22)
(1.21495 -0.0506553 -2.46661e-21)
(1.21823 -0.0474641 3.9312e-21)
(1.22156 -0.0442298 -1.081e-21)
(1.22486 -0.0409431 2.46756e-21)
(1.22834 -0.0376251 -1.80328e-21)
(1.23169 -0.0342202 2.56019e-21)
(1.23595 -0.0308507 2.37427e-21)
(1.20944 -0.0722253 -1.82778e-22)
(1.21304 -0.0689787 -1.34438e-21)
(1.21664 -0.0656864 -1.74643e-21)
(1.22025 -0.062348 3.51817e-22)
(1.22387 -0.0589627 3.01444e-21)
(1.22751 -0.055531 -1.7402e-21)
(1.23117 -0.0520504 3.96421e-22)
(1.23489 -0.0485258 -5.7877e-21)
(1.23858 -0.0449452 -9.01066e-22)
(1.24249 -0.0413374 4.15838e-21)
(1.24626 -0.0376312 6.2311e-23)
(1.25108 -0.033983 -4.83511e-21)
(1.22053 -0.0787943 8.22695e-23)
(1.22449 -0.075256 5.12347e-22)
(1.22846 -0.0716702 1.7971e-21)
(1.23244 -0.0680367 -1.39347e-21)
(1.23644 -0.0643556 -3.17428e-21)
(1.24048 -0.0606276 1.57267e-21)
(1.24452 -0.0568503 1.21722e-21)
(1.24865 -0.0530302 8.45173e-21)
(1.25275 -0.0491514 4.73881e-22)
(1.25712 -0.0452521 -4.12867e-21)
(1.26133 -0.0412422 7.21174e-22)
(1.26673 -0.0373198 -1.02656e-21)
(1.23193 -0.0856209 -3.35812e-22)
(1.23626 -0.0817744 3.32571e-22)
(1.24061 -0.0778805 -4.32506e-22)
(1.24498 -0.0739378 2.18553e-21)
(1.24936 -0.0699484 5.94597e-21)
(1.2538 -0.0659118 6.1214e-21)
(1.25825 -0.061829 -9.33103e-21)
(1.2628 -0.0577065 1.40496e-21)
(1.26733 -0.0535284 5.00137e-21)
(1.27218 -0.0493394 1.02498e-20)
(1.27685 -0.0450304 -1.67688e-21)
(1.28287 -0.040843 2.51442e-21)
(1.24361 -0.09266 1.26667e-21)
(1.24833 -0.088488 8.09861e-22)
(1.25307 -0.0842717 -2.86662e-21)
(1.25783 -0.0800074 -1.83836e-21)
(1.26262 -0.0757016 -2.31019e-21)
(1.26745 -0.0713473 4.8368e-22)
(1.27232 -0.0669538 5.51009e-21)
(1.27731 -0.0625188 -4.78006e-21)
(1.28228 -0.0580394 -2.52999e-21)
(1.28761 -0.0535565 -1.08559e-20)
(1.29276 -0.0489583 3.17642e-21)
(1.29944 -0.0445137 1.19376e-20)
(1.25556 -0.099869 2.42583e-21)
(1.26067 -0.0953489 -7.193e-22)
(1.2658 -0.0907906 1.68695e-21)
(1.27095 -0.0861857 9.66702e-22)
(1.27616 -0.0815537 -6.37578e-21)
(1.28141 -0.0768729 -1.19066e-20)
(1.28674 -0.0721761 8.49381e-21)
(1.29216 -0.0674262 7.36315e-22)
(1.29761 -0.0626597 -4.9832e-21)
(1.30341 -0.0578692 1.0434e-20)
(1.30907 -0.0529953 5.63451e-21)
(1.31636 -0.048275 -3.26823e-21)
(1.26781 -0.1072 -7.65573e-22)
(1.27331 -0.102309 -1.51172e-21)
(1.27884 -0.0973895 -1.10079e-21)
(1.28438 -0.0924213 -1.9615e-21)
(1.29001 -0.0874453 -3.93443e-21)
(1.29564 -0.0824111 5.69526e-21)
(1.30146 -0.077408 -1.53634e-20)
(1.30728 -0.0723259 -8.76547e-21)
(1.31331 -0.0673075 4.58913e-21)
(1.31951 -0.0621921 -1.06759e-20)
(1.32574 -0.0570894 -1.14771e-20)
(1.3334 -0.0520285 -1.51301e-20)
(1.28036 -0.114579 -4.15161e-21)
(1.28625 -0.109297 2.99234e-21)
(1.29222 -0.104004 2.92982e-21)
(1.29815 -0.0986646 -1.7806e-21)
(1.30426 -0.0933427 2.02384e-21)
(1.31024 -0.0879357 7.66345e-21)
(1.31656 -0.0826144 2.2359e-20)
(1.32261 -0.077135 1.8778e-20)
(1.32924 -0.0718645 -1.23714e-20)
(1.33549 -0.0663325 8.89402e-21)
(1.3424 -0.0610705 1.63116e-21)
(1.34978 -0.0555218 1.08791e-20)
(1.29328 -0.12194 1.5298e-21)
(1.29956 -0.116233 -6.78921e-21)
(1.30595 -0.110532 -1.13763e-20)
(1.31226 -0.104804 -7.70451e-21)
(1.31886 -0.0991305 2.0821e-20)
(1.32514 -0.0933608 -9.26429e-21)
(1.33206 -0.0877464 -1.78314e-20)
(1.33805 -0.081841 -1.08997e-20)
(1.34528 -0.0763199 4.73981e-21)
(1.35074 -0.07018 2.46993e-21)
(1.35823 -0.064775 -1.03429e-20)
(1.36377 -0.0583922 -9.92343e-21)
(1.30669 -0.129218 4.02669e-22)
(1.31334 -0.12304 1.43972e-21)
(1.3201 -0.116873 6.97313e-21)
(1.32667 -0.110696 -2.72571e-22)
(1.3336 -0.104583 -7.37892e-21)
(1.33989 -0.0983953 -1.24305e-20)
(1.34722 -0.0924293 3.1141e-21)
(1.35267 -0.0860985 -1.8959e-22)
(1.36047 -0.0803642 1.20106e-20)
(1.36388 -0.0735095 4.45158e-21)
(1.37179 -0.0680116 1.29484e-20)
(1.37248 -0.0602678 7.26032e-22)
(1.32063 -0.136303 4.59852e-21)
(1.32759 -0.129611 2.77295e-22)
(1.33458 -0.122923 1.89753e-20)
(1.34124 -0.116242 1.54854e-20)
(1.34816 -0.109576 -1.37627e-20)
(1.354 -0.102862 5.6758e-21)
(1.36097 -0.0962919 -4.87008e-21)
(1.3648 -0.0893854 4.52279e-21)
(1.37225 -0.0831664 -6.39546e-21)
(1.37158 -0.0755069 6.30096e-21)
(1.3795 -0.0699295 -1.53602e-20)
(1.3708 -0.0603878 1.83689e-20)
(1.33485 -0.142929 -9.36585e-21)
(1.34186 -0.135634 6.93522e-21)
(1.34875 -0.128362 -1.60677e-20)
(1.35516 -0.121149 6.91032e-21)
(1.36152 -0.11391 2.58608e-20)
(1.36645 -0.106691 6.56752e-21)
(1.37202 -0.0993819 1.12604e-20)
(1.37307 -0.09185 -4.04561e-21)
(1.37795 -0.084565 7.2605e-22)
(1.37007 -0.0759251 -1.12214e-20)
(1.3756 -0.0695741 2.04307e-20)
(1.35097 -0.0579737 -1.05555e-20)
(1.34875 -0.148814 2.64013e-21)
(1.35531 -0.140757 -1.29078e-20)
(1.36142 -0.132763 8.95215e-22)
(1.36684 -0.124882 -2.3227e-20)
(1.37161 -0.117001 -1.50473e-20)
(1.37467 -0.10925 -8.31701e-21)
(1.37715 -0.101252 -4.53406e-23)
(1.37438 -0.0933181 -6.94344e-21)
(1.37356 -0.0848195 2.18735e-20)
(1.35605 -0.0756896 6.80251e-21)
(1.35399 -0.0673818 -1.45917e-20)
(1.30535 -0.0543134 -5.36971e-21)
(1.36145 -0.153919 8.54158e-21)
(1.3669 -0.144932 2.51828e-21)
(1.37139 -0.13601 -9.82551e-21)
(1.37461 -0.127167 1.74247e-20)
(1.37615 -0.118318 -1.91303e-20)
(1.37516 -0.109559 -6.52245e-21)
(1.3714 -0.10054 3.87959e-21)
(1.36184 -0.0917914 -2.69713e-21)
(1.34996 -0.0821099 -2.8537e-20)
(1.32112 -0.0732306 -2.75504e-20)
(1.30362 -0.0627867 9.66724e-21)
(1.2266 -0.0517374 -9.78393e-21)
(1.37171 -0.157878 -2.69156e-21)
(1.37521 -0.14779 -1.19605e-21)
(1.37695 -0.137701 5.2961e-21)
(1.37634 -0.127564 -1.08542e-20)
(1.37246 -0.117304 2.76191e-20)
(1.36423 -0.106894 2.13455e-20)
(1.35014 -0.0961873 -1.38888e-20)
(1.3283 -0.0854871 1.62346e-20)
(1.2978 -0.0741555 1.70298e-20)
(1.25224 -0.0642929 7.52003e-21)
(1.20599 -0.0524039 3.07282e-21)
(1.10489 -0.0478522 2.65133e-20)
(1.10497 -0.000702778 0)
(1.10615 -0.000291108 0)
(1.10568 9.37458e-05 0)
(1.10603 0.000496088 0)
(1.10387 0.000828246 0)
(1.10344 0.00113787 0)
(1.09948 0.00136601 0)
(1.09861 0.00146882 0)
(1.09327 0.00156637 0)
(1.09245 0.00129191 0)
(1.08719 0.00131295 0)
(1.0867 0.000526916 0)
(1.08432 0.000647391 0)
(1.08345 -0.00049327 0)
(1.08692 -7.98749e-05 0)
(1.08367 -0.000779002 0)
(1.09187 -0.00012786 0)
(1.08436 0.000916538 0)
(1.08649 0.00115532 0)
(1.07721 0.00392491 0)
(1.05828 0.00316669 0)
(1.05508 0.00513864 0)
(1.01717 0.00381661 0)
(1.02542 0.00353873 0)
(0.983892 -0.00218686 0)
(1.04474 -0.00733574 0)
(1.05307 -0.00479546 0)
(1.09595 -0.00747407 0)
(1.13192 -0.00105445 0)
(1.10458 0.00239218 0)
(1.10656 -0.00203811 0)
(1.10774 -0.000809843 0)
(1.10721 0.000336235 0)
(1.10746 0.00154294 0)
(1.10516 0.00253259 0)
(1.10459 0.00346857 0)
(1.10042 0.00414368 0)
(1.09936 0.00446293 0)
(1.09375 0.00473868 0)
(1.09274 0.00392184 0)
(1.08724 0.00395712 0)
(1.08661 0.00158621 0)
(1.08426 0.00191038 0)
(1.08335 -0.00155223 0)
(1.08739 -0.000348769 0)
(1.08416 -0.0024903 0)
(1.09345 -0.000536952 0)
(1.08582 0.00262421 0)
(1.08857 0.00336717 0)
(1.07904 0.0117264 0)
(1.05928 0.00949651 0)
(1.05594 0.0153671 0)
(1.01681 0.011643 0)
(1.02337 0.0108927 0)
(0.979559 -0.0065512 0)
(1.0441 -0.0222603 0)
(1.05381 -0.0144281 0)
(1.09797 -0.0224032 0)
(1.1361 -0.0031318 0)
(1.10628 0.0073187 0)
(1.10954 -0.00331187 0)
(1.11074 -0.00124938 0)
(1.11009 0.00067405 0)
(1.11017 0.00270816 0)
(1.10761 0.0043665 0)
(1.10675 0.0059581 0)
(1.10219 0.0070786 0)
(1.10075 0.00764096 0)
(1.09464 0.00806557 0)
(1.09321 0.00670308 0)
(1.0873 0.00668997 0)
(1.08634 0.00266171 0)
(1.08411 0.0031035 0)
(1.08306 -0.00282998 0)
(1.08823 -0.000924236 0)
(1.08507 -0.00465155 0)
(1.09643 -0.00136281 0)
(1.08866 0.00402448 0)
(1.09249 0.00537239 0)
(1.0826 0.019526 0)
(1.06113 0.0159374 0)
(1.05767 0.0256288 0)
(1.01618 0.0201136 0)
(1.01942 0.0191109 0)
(0.971176 -0.0110096 0)
(1.04238 -0.0381082 0)
(1.0556 -0.0242824 0)
(1.10162 -0.0374955 0)
(1.14399 -0.00517178 0)
(1.10952 0.0126869 0)
(1.1138 -0.00451601 0)
(1.11502 -0.00157483 0)
(1.11421 0.0011736 0)
(1.11402 0.00408323 0)
(1.1111 0.00645111 0)
(1.1098 0.00874837 0)
(1.10471 0.0103345 0)
(1.10265 0.011173 0)
(1.09588 0.0117217 0)
(1.09374 0.00978272 0)
(1.08732 0.00964014 0)
(1.08575 0.00380393 0)
(1.08377 0.00422897 0)
(1.08242 -0.00444215 0)
(1.08926 -0.00198956 0)
(1.0863 -0.0075323 0)
(1.10063 -0.00285113 0)
(1.0929 0.00500839 0)
(1.09807 0.00714113 0)
(1.0879 0.0275042 0)
(1.06362 0.022703 0)
(1.06042 0.0361495 0)
(1.01531 0.0297341 0)
(1.01369 0.0288454 0)
(0.958865 -0.0156465 0)
(1.03866 -0.0557732 0)
(1.05901 -0.0346874 0)
(1.10634 -0.0531327 0)
(1.15516 -0.00724804 0)
(1.11417 0.0187856 0)
(1.11924 -0.00564797 0)
(1.12048 -0.00176587 0)
(1.11948 0.00187875 0)
(1.11894 0.00573228 0)
(1.11557 0.00887721 0)
(1.11366 0.0119482 0)
(1.10793 0.0140438 0)
(1.10497 0.0151973 0)
(1.09741 0.015856 0)
(1.09418 0.0132895 0)
(1.08722 0.0129211 0)
(1.08463 0.00507187 0)
(1.08312 0.00528355 0)
(1.08124 -0.00645575 0)
(1.09027 -0.00373428 0)
(1.0878 -0.0113701 0)
(1.10591 -0.00523845 0)
(1.09864 0.00548512 0)
(1.10518 0.00864546 0)
(1.09503 0.035808 0)
(1.06656 0.0299489 0)
(1.06447 0.0470623 0)
(1.01414 0.0409408 0)
(1.00645 0.0407229 0)
(0.942621 -0.020286 0)
(1.03129 -0.0761198 0)
(1.06446 -0.0460445 0)
(1.11141 -0.0695366 0)
(1.16908 -0.00940513 0)
(1.12017 0.0257968 0)
(1.12578 -0.00672705 0)
(1.12706 -0.00182271 0)
(1.12583 0.00281542 0)
(1.12485 0.00769997 0)
(1.12096 0.0117183 0)
(1.11827 0.0156457 0)
(1.11178 0.0183237 0)
(1.10763 0.0198358 0)
(1.09916 0.0206077 0)
(1.09442 0.0173455 0)
(1.08691 0.0166464 0)
(1.08281 0.00653756 0)
(1.08199 0.00627311 0)
(1.07931 -0.00890269 0)
(1.09101 -0.00635979 0)
(1.08951 -0.0163985 0)
(1.11216 -0.00877144 0)
(1.10598 0.00536998 0)
(1.11375 0.00987244 0)
(1.10404 0.0445699 0)
(1.06983 0.0377765 0)
(1.07002 0.0584178 0)
(1.0127 0.0541234 0)
(0.998264 0.0552793 0)
(0.922261 -0.0244157 0)
(1.0175 -0.0998638 0)
(1.07098 -0.0589238 0)
(1.11572 -0.0868312 0)
(1.18498 -0.0117088 0)
(1.12739 0.0337667 0)
(1.13338 -0.00776061 0)
(1.13471 -0.00173921 0)
(1.13322 0.0040093 0)
(1.13171 0.010026 0)
(1.12724 0.0150398 0)
(1.12358 0.0199203 0)
(1.11622 0.0232811 0)
(1.11057 0.0252009 0)
(1.10106 0.0261097 0)
(1.09436 0.0220689 0)
(1.08625 0.020935 0)
(1.08012 0.00828785 0)
(1.08019 0.00721449 0)
(1.07643 -0.0117781 0)
(1.09114 -0.0100831 0)
(1.0914 -0.0228646 0)
(1.11931 -0.0137069 0)
(1.11508 0.00457553 0)
(1.12385 0.0108328 0)
(1.11486 0.0539088 0)
(1.07354 0.0462411 0)
(1.07702 0.0701983 0)
(1.01122 0.0695193 0)
(0.990166 0.0730098 0)
(0.89746 -0.0268761 0)
(0.992654 -0.12726 0)
(1.07422 -0.0742216 0)
(1.11678 -0.105336 0)
(1.20143 -0.0143661 0)
(1.13548 0.0425884 0)
(1.14199 -0.00877062 0)
(1.14339 -0.00152323 0)
(1.14162 0.00546959 0)
(1.13949 0.0127352 0)
(1.13436 0.0188888 0)
(1.12957 0.0248363 0)
(1.12122 0.0290068 0)
(1.11376 0.0313946 0)
(1.10304 0.0324847 0)
(1.09394 0.0275748 0)
(1.0851 0.0259082 0)
(1.07645 0.0104151 0)
(1.07748 0.00814369 0)
(1.0724 -0.0150323 0)
(1.09029 -0.0151267 0)
(1.09342 -0.0310471 0)
(1.12733 -0.0202841 0)
(1.12607 0.00301983 0)
(1.13556 0.01158 0)
(1.1273 0.0639196 0)
(1.07803 0.0553813 0)
(1.08497 0.0823485 0)
(1.01025 0.0870418 0)
(0.983689 0.0943959 0)
(0.868403 -0.0255295 0)
(0.950817 -0.157501 0)
(1.06589 -0.0931435 0)
(1.10966 -0.126026 0)
(1.21581 -0.0178859 0)
(1.14363 0.0519607 0)
(1.15158 -0.009778 0)
(1.15306 -0.00118358 0)
(1.151 0.00719855 0)
(1.14818 0.0158476 0)
(1.14232 0.0233026 0)
(1.13626 0.0304525 0)
(1.12674 0.0355793 0)
(1.1172 0.0385163 0)
(1.10499 0.0398441 0)
(1.09312 0.0339807 0)
(1.08331 0.0316906 0)
(1.07168 0.0130185 0)
(1.07363 0.00913332 0)
(1.06697 -0.0185924 0)
(1.08808 -0.0217139 0)
(1.09547 -0.0412824 0)
(1.13628 -0.0287705 0)
(1.13916 0.000593727 0)
(1.14893 0.0122162 0)
(1.14119 0.0746382 0)
(1.08374 0.0652958 0)
(1.09304 0.0947736 0)
(1.01066 0.106146 0)
(0.980063 0.119785 0)
(0.837273 -0.0174212 0)
(0.890239 -0.188161 0)
(1.03786 -0.11654 0)
(1.08806 -0.150532 0)
(1.22436 -0.0234508 0)
(1.15051 0.0613125 0)
(1.16212 -0.0108071 0)
(1.16371 -0.000742435 0)
(1.16134 0.00918178 0)
(1.15777 0.0193663 0)
(1.15111 0.0282997 0)
(1.14363 0.0368171 0)
(1.13277 0.0430613 0)
(1.1209 0.0466602 0)
(1.10686 0.0482824 0)
(1.09191 0.0414022 0)
(1.08071 0.038409 0)
(1.06576 0.0161934 0)
(1.06843 0.0103146 0)
(1.05985 -0.0223612 0)
(1.08415 -0.0300559 0)
(1.09735 -0.0539471 0)
(1.1463 -0.0394576 0)
(1.15458 -0.00268088 0)
(1.16396 0.012892 0)
(1.15642 0.0860341 0)
(1.09097 0.0761919 0)
(1.10036 0.107322 0)
(1.01352 0.125972 0)
(0.979056 0.14899 0)
(0.809313 -0.000505544 0)
(0.820878 -0.215751 0)
(0.989811 -0.143918 0)
(1.04872 -0.180266 0)
(1.22361 -0.0326373 0)
(1.1546 0.0698643 0)
(1.17359 -0.0118858 0)
(1.17531 -0.00020837 0)
(1.17263 0.0114205 0)
(1.16826 0.0232977 0)
(1.16073 0.0338916 0)
(1.1517 0.0439704 0)
(1.13931 0.051505 0)
(1.12486 0.0559145 0)
(1.1086 0.0578803 0)
(1.0903 0.0499548 0)
(1.07717 0.0461781 0)
(1.05865 0.0200342 0)
(1.06172 0.0118858 0)
(1.05071 -0.0262211 0)
(1.0781 -0.0403322 0)
(1.09876 -0.0694977 0)
(1.15777 -0.0526694 0)
(1.17244 -0.00667986 0)
(1.18071 0.0137826 0)
(1.17289 0.098055 0)
(1.09973 0.0883354 0)
(1.10652 0.119803 0)
(1.01944 0.145681 0)
(0.979141 0.181096 0)
(0.791518 0.0247418 0)
(0.761645 -0.237064 0)
(0.931633 -0.172974 0)
(0.995196 -0.215274 0)
(1.21243 -0.0467072 0)
(1.15486 0.0768575 0)
(1.18595 -0.0130371 0)
(1.18785 0.000404455 0)
(1.18486 0.0138918 0)
(1.17963 0.0276299 0)
(1.1712 0.0400781 0)
(1.1605 0.05194 0)
(1.14638 0.0609525 0)
(1.12908 0.0663602 0)
(1.11019 0.0686969 0)
(1.08831 0.0597551 0)
(1.07258 0.0550968 0)
(1.05038 0.0246193 0)
(1.05332 0.0140996 0)
(1.03923 -0.0300318 0)
(1.06948 -0.0526693 0)
(1.09938 -0.0885163 0)
(1.1712 -0.0687222 0)
(1.1927 -0.0113572 0)
(1.19947 0.0150463 0)
(1.19033 0.110715 0)
(1.10982 0.101915 0)
(1.11184 0.13203 0)
(1.02784 0.164834 0)
(0.979317 0.214549 0)