/*--------------------------------*- C++ -*----------------------------------*\
  =========                 |
  \\      /  F ield         | OpenFOAM: The Open Source CFD Toolbox
   \\    /   O peration     | Website:  https://openfoam.org
    \\  /    A nd           | Version:  7
     \\/     M anipulation  |
\*---------------------------------------------------------------------------*/
FoamFile
{
    version     2.0;
    format      ascii;
    class       volScalarField;
    location    "305";
    object      p;
}
// * * * * * * * * * * * * * * * * * * * * * * * * * * * * * * * * * * * * * //

dimensions      [0 2 -2 0 0 0 0];

internalField   nonuniform List<scalar> 
8500
(
-0.390919
-0.393934
-0.395011
-0.39584
-0.39675
-0.397888
-0.399327
-0.401144
-0.403384
-0.406429
-0.394341
-0.397913
-0.399341
-0.400568
-0.401916
-0.40348
-0.405261
-0.407225
-0.409257
-0.411523
-0.398329
-0.402375
-0.404137
-0.405766
-0.407563
-0.409569
-0.411704
-0.413816
-0.415598
-0.416943
-0.402943
-0.407359
-0.409432
-0.41146
-0.413718
-0.416186
-0.418691
-0.420956
-0.422452
-0.422742
-0.408214
-0.412878
-0.415232
-0.417653
-0.420379
-0.423324
-0.426215
-0.428636
-0.429816
-0.428901
-0.414141
-0.418919
-0.421516
-0.424315
-0.427507
-0.430939
-0.434226
-0.436799
-0.437642
-0.435311
-0.420685
-0.425434
-0.428229
-0.431379
-0.435028
-0.438948
-0.442629
-0.445338
-0.445836
-0.441784
-0.427772
-0.432347
-0.435283
-0.438748
-0.442828
-0.447224
-0.451285
-0.454093
-0.454274
-0.448074
-0.435292
-0.439554
-0.442567
-0.446294
-0.45076
-0.455601
-0.460016
-0.462859
-0.462805
-0.453883
-0.443112
-0.44693
-0.449946
-0.453864
-0.458657
-0.463884
-0.468607
-0.471393
-0.471273
-0.458791
-0.451079
-0.454341
-0.457276
-0.461294
-0.466316
-0.471851
-0.476817
-0.479423
-0.479642
-0.462229
-0.459038
-0.46165
-0.464413
-0.468419
-0.47355
-0.479273
-0.48438
-0.48664
-0.487854
-0.464377
-0.466838
-0.468736
-0.471226
-0.47509
-0.480179
-0.485931
-0.491047
-0.492805
-0.493157
-0.467204
-0.474353
-0.475498
-0.477613
-0.481189
-0.486057
-0.491654
-0.496557
-0.497922
-0.497352
-0.468601
-0.481492
-0.481865
-0.48351
-0.486646
-0.491121
-0.496325
-0.500792
-0.501619
-0.500133
-0.46874
-0.488197
-0.487812
-0.488892
-0.491438
-0.495327
-0.499932
-0.503722
-0.503845
-0.501137
-0.467854
-0.494461
-0.493349
-0.493783
-0.495603
-0.498729
-0.50254
-0.505401
-0.504686
-0.500134
-0.465943
-0.500325
-0.498525
-0.49825
-0.499229
-0.501445
-0.504289
-0.505981
-0.504288
-0.496996
-0.462702
-0.505875
-0.503426
-0.502396
-0.50245
-0.503644
-0.505378
-0.505699
-0.502821
-0.49178
-0.458412
-0.51123
-0.508162
-0.50635
-0.505425
-0.505517
-0.506026
-0.504827
-0.500422
-0.485145
-0.455736
-0.516538
-0.512864
-0.510257
-0.508328
-0.507266
-0.506445
-0.503602
-0.497222
-0.478645
-0.457181
-0.52196
-0.517668
-0.514265
-0.511326
-0.509075
-0.506814
-0.502183
-0.49348
-0.47307
-0.451101
-0.527653
-0.522708
-0.518515
-0.514571
-0.511093
-0.507267
-0.500664
-0.489456
-0.467288
-0.443093
-0.533764
-0.528107
-0.523128
-0.518184
-0.513426
-0.507886
-0.49911
-0.485245
-0.461237
-0.434859
-0.540415
-0.533966
-0.528203
-0.52225
-0.516129
-0.508706
-0.497546
-0.48089
-0.455008
-0.426525
-0.547697
-0.540365
-0.533809
-0.526816
-0.519214
-0.509715
-0.495957
-0.476421
-0.448619
-0.41843
-0.555665
-0.547353
-0.539986
-0.53189
-0.522656
-0.510865
-0.494292
-0.471832
-0.442148
-0.410527
-0.564342
-0.554956
-0.546746
-0.53745
-0.526397
-0.51207
-0.492485
-0.46711
-0.435618
-0.402815
-0.573714
-0.563172
-0.554071
-0.543443
-0.530352
-0.513217
-0.490458
-0.462225
-0.429035
-0.395222
-0.583735
-0.571971
-0.561915
-0.549787
-0.534397
-0.514171
-0.488128
-0.457138
-0.422374
-0.387675
-0.594328
-0.581297
-0.570199
-0.556374
-0.538376
-0.514789
-0.485413
-0.451798
-0.415589
-0.38009
-0.605382
-0.591059
-0.578815
-0.563055
-0.542107
-0.514927
-0.482229
-0.446143
-0.408616
-0.372381
-0.616751
-0.601131
-0.587614
-0.569644
-0.545387
-0.514441
-0.478487
-0.440103
-0.401381
-0.364459
-0.628254
-0.611351
-0.596413
-0.575914
-0.548004
-0.513194
-0.4741
-0.433599
-0.393802
-0.356239
-0.639673
-0.621515
-0.604985
-0.581609
-0.549746
-0.511051
-0.468974
-0.426547
-0.385791
-0.347638
-0.650753
-0.63138
-0.613065
-0.586448
-0.550407
-0.50788
-0.463015
-0.418859
-0.377262
-0.338575
-0.661207
-0.64067
-0.620353
-0.590144
-0.549788
-0.503557
-0.456127
-0.410446
-0.368127
-0.328978
-0.670717
-0.649078
-0.626523
-0.592414
-0.547701
-0.497961
-0.448215
-0.401219
-0.358302
-0.318777
-0.678945
-0.65627
-0.631232
-0.592985
-0.543975
-0.490977
-0.439187
-0.391091
-0.347709
-0.307915
-0.685537
-0.6619
-0.634138
-0.591603
-0.538451
-0.482499
-0.428955
-0.379982
-0.336278
-0.296345
-0.690136
-0.665612
-0.63491
-0.58804
-0.530992
-0.472429
-0.417435
-0.367817
-0.323951
-0.284035
-0.692392
-0.667055
-0.633242
-0.582093
-0.521474
-0.46068
-0.40455
-0.354526
-0.310679
-0.270972
-0.691968
-0.665893
-0.628861
-0.573595
-0.509798
-0.447178
-0.390234
-0.34004
-0.296408
-0.257131
-0.688551
-0.661815
-0.621534
-0.562412
-0.495885
-0.431864
-0.374433
-0.324306
-0.281069
-0.242377
-0.681866
-0.654545
-0.611074
-0.548443
-0.479682
-0.414699
-0.357115
-0.307308
-0.264625
-0.226428
-0.671675
-0.643857
-0.597336
-0.531627
-0.461155
-0.395656
-0.338259
-0.289054
-0.247138
-0.209125
-0.657788
-0.629574
-0.580224
-0.511934
-0.440297
-0.374722
-0.317844
-0.269531
-0.22869
-0.190915
-0.64007
-0.611576
-0.559686
-0.489368
-0.417123
-0.351905
-0.295883
-0.248733
-0.208928
-0.172323
-0.618438
-0.589799
-0.53572
-0.463967
-0.391673
-0.32724
-0.272449
-0.226769
-0.188035
-0.153047
-0.592865
-0.564232
-0.508373
-0.435811
-0.364008
-0.300802
-0.247621
-0.203571
-0.166177
-0.132998
-0.563381
-0.534927
-0.47775
-0.405013
-0.334203
-0.27269
-0.221399
-0.179216
-0.143424
-0.112191
-0.530066
-0.502
-0.444033
-0.371664
-0.30236
-0.242953
-0.19387
-0.15379
-0.119831
-0.090699
-0.493061
-0.465638
-0.407422
-0.335736
-0.268656
-0.211716
-0.165133
-0.127387
-0.0954704
-0.0686285
-0.452562
-0.426088
-0.367912
-0.297555
-0.233189
-0.179111
-0.135307
-0.100104
-0.0704301
-0.0460965
-0.408801
-0.383598
-0.325268
-0.257647
-0.196199
-0.145287
-0.104519
-0.0720478
-0.0447976
-0.0231919
-0.361996
-0.338206
-0.280415
-0.21596
-0.157879
-0.110414
-0.0729098
-0.0433277
-0.018661
-3.99101e-06
-0.312419
-0.290008
-0.234024
-0.17276
-0.118419
-0.0746661
-0.0406181
-0.0140438
0.00783391
0.0231096
-0.260507
-0.239633
-0.18611
-0.128332
-0.0780289
-0.0382166
-0.00775879
0.0157251
0.0343948
0.0452468
-0.20667
-0.187447
-0.136869
-0.0829532
-0.0369404
-0.00124197
0.0255634
0.0458799
0.0606645
0.065758
-0.151236
-0.133901
-0.0866096
-0.0369051
0.00460399
0.0360672
0.0591845
0.0761677
0.0865316
0.0865931
-0.0946302
-0.0794111
-0.0356854
0.00952016
0.0463557
0.0734972
0.0928386
0.106153
0.111988
0.113163
-0.037297
-0.0243824
0.0155362
0.0560218
0.0880626
0.110817
0.126247
0.135704
0.138013
0.13978
0.0203158
0.0307733
0.0666854
0.102294
0.129467
0.147795
0.159237
0.164916
0.164262
0.164967
0.0777576
0.0856405
0.117394
0.148029
0.170306
0.184197
0.191637
0.193666
0.190259
0.189079
0.134579
0.139805
0.167299
0.192922
0.21032
0.219804
0.22328
0.221776
0.215637
0.212119
0.190334
0.192855
0.216044
0.236671
0.249253
0.254398
0.253989
0.249062
0.240203
0.23414
0.244587
0.244392
0.263281
0.278984
0.286857
0.287771
0.283585
0.275348
0.263802
0.255116
0.296915
0.294024
0.308675
0.319578
0.32289
0.319717
0.311891
0.300473
0.28631
0.274994
0.34691
0.341381
0.351905
0.358179
0.357122
0.350041
0.33874
0.324291
0.307611
0.293708
0.394184
0.386106
0.392666
0.394532
0.389335
0.378556
0.363972
0.346664
0.327594
0.311185
0.438371
0.427866
0.430671
0.428394
0.419321
0.405086
0.387436
0.367464
0.346154
0.327353
0.479131
0.466352
0.465656
0.459539
0.44689
0.429469
0.408993
0.386571
0.363192
0.342144
0.51615
0.501279
0.497376
0.487762
0.471865
0.451553
0.428517
0.403877
0.378617
0.355495
0.549146
0.532392
0.525612
0.512876
0.494088
0.471204
0.44589
0.419282
0.392347
0.367347
0.57787
0.559463
0.55017
0.534716
0.513418
0.488302
0.461012
0.432699
0.404306
0.377653
0.602103
0.582296
0.570882
0.553141
0.529734
0.502743
0.473794
0.444051
0.414432
0.386368
0.621665
0.600728
0.587607
0.568031
0.542934
0.514442
0.484162
0.453273
0.42267
0.393459
0.636411
0.614629
0.600233
0.579292
0.552938
0.523328
0.492058
0.460317
0.428979
0.398903
0.646234
0.623902
0.608679
0.586853
0.559686
0.529351
0.497438
0.465143
0.433328
0.402684
0.651067
0.628484
0.612891
0.59067
0.563139
0.532478
0.500274
0.467727
0.435696
0.404781
0.650878
0.62835
0.612845
0.590723
0.563281
0.532695
0.500554
0.468058
0.436069
0.405183
0.645677
0.623508
0.608551
0.587019
0.560117
0.530008
0.498282
0.46614
0.434452
0.403892
0.635512
0.614001
0.600045
0.579589
0.553676
0.524438
0.493479
0.461991
0.430864
0.40093
0.620471
0.599908
0.587394
0.568492
0.544005
0.51603
0.486179
0.455642
0.425331
0.396314
0.600678
0.581342
0.570696
0.553809
0.531175
0.504841
0.476435
0.447137
0.417887
0.390064
0.576297
0.55845
0.550076
0.535647
0.515278
0.490952
0.464314
0.436534
0.408582
0.38221
0.547525
0.531412
0.52569
0.514138
0.496426
0.474456
0.449895
0.423903
0.397474
0.372793
0.514596
0.50044
0.497718
0.489434
0.47475
0.455466
0.433276
0.409327
0.384633
0.361858
0.477777
0.465774
0.466368
0.461714
0.4504
0.43411
0.414565
0.392899
0.370137
0.34946
0.437368
0.427688
0.431873
0.431172
0.423545
0.410532
0.393884
0.374724
0.354074
0.335659
0.393695
0.386477
0.394488
0.398027
0.394368
0.384889
0.371368
0.354917
0.33654
0.320524
0.347114
0.342467
0.354491
0.362513
0.363071
0.357351
0.34716
0.333603
0.317639
0.304125
0.298003
0.296004
0.312179
0.324882
0.329866
0.328101
0.321418
0.310913
0.297479
0.286538
0.246765
0.247453
0.267869
0.2854
0.29498
0.297331
0.294305
0.286989
0.276174
0.267838
0.193817
0.1972
0.22189
0.244348
0.258652
0.265244
0.265996
0.261983
0.253844
0.248097
0.139595
0.145643
0.174588
0.202016
0.221127
0.232048
0.23667
0.236058
0.230618
0.227369
0.0845424
0.0931931
0.126318
0.158704
0.18266
0.197959
0.20651
0.209394
0.206653
0.205689
0.0291137
0.0402667
0.077445
0.11472
0.143511
0.163195
0.175696
0.182174
0.182145
0.183016
-0.026235
-0.0127156
0.0283398
0.0703733
0.103945
0.127982
0.144398
0.154579
0.157455
0.159372
-0.0810471
-0.0653356
-0.0206231
0.0259766
0.064225
0.092552
0.112791
0.126732
0.133044
0.13446
-0.134869
-0.117181
-0.0690669
-0.0181623
0.0246121
0.0571403
0.0810503
0.0985538
0.109248
0.109742
-0.187245
-0.167842
-0.11662
-0.0617425
-0.0146408
0.0219767
0.0494465
0.0701623
0.0850946
0.0903969
-0.237752
-0.216876
-0.162934
-0.104475
-0.0532851
-0.0127264
0.0182399
0.0419781
0.0606107
0.0714021
-0.286227
-0.263735
-0.207741
-0.14608
-0.0910775
-0.0467788
-0.0124043
0.0142575
0.0359257
0.0509354
-0.332014
-0.308189
-0.250931
-0.186278
-0.127788
-0.0800041
-0.0423784
-0.0128958
0.0113855
0.0295997
-0.374771
-0.349499
-0.292404
-0.224778
-0.163206
-0.11223
-0.0715678
-0.0394033
-0.0127306
0.00824812
-0.414299
-0.387921
-0.331033
-0.261381
-0.19714
-0.143282
-0.0998369
-0.0651681
-0.0362818
-0.012775
-0.450367
-0.423207
-0.366451
-0.295952
-0.229375
-0.172994
-0.127047
-0.0900834
-0.0591822
-0.0333817
-0.482741
-0.455068
-0.398903
-0.327994
-0.259755
-0.201221
-0.153073
-0.114046
-0.0813475
-0.053486
-0.511248
-0.483285
-0.428277
-0.357422
-0.288088
-0.227824
-0.177802
-0.136961
-0.102694
-0.0729749
-0.535777
-0.507708
-0.454359
-0.384164
-0.314259
-0.252717
-0.201138
-0.158738
-0.12315
-0.091748
-0.556274
-0.528252
-0.476999
-0.408108
-0.33818
-0.275844
-0.223011
-0.179295
-0.14265
-0.109744
-0.572741
-0.5449
-0.496121
-0.429155
-0.359771
-0.297088
-0.243438
-0.198584
-0.161098
-0.126977
-0.585239
-0.557692
-0.511707
-0.447245
-0.378975
-0.316388
-0.262293
-0.216654
-0.178353
-0.143617
-0.593885
-0.566731
-0.523786
-0.462357
-0.395764
-0.333723
-0.27953
-0.233415
-0.194541
-0.159799
-0.598856
-0.572177
-0.532439
-0.474504
-0.410132
-0.349095
-0.295155
-0.248851
-0.209622
-0.174768
-0.600381
-0.574248
-0.537796
-0.483736
-0.422099
-0.362521
-0.309184
-0.262961
-0.223543
-0.188462
-0.598737
-0.57322
-0.540037
-0.490139
-0.431709
-0.374028
-0.32164
-0.27576
-0.236335
-0.201104
-0.594242
-0.569411
-0.539389
-0.493839
-0.439031
-0.383665
-0.332559
-0.287281
-0.24806
-0.212866
-0.587243
-0.563175
-0.536129
-0.495001
-0.444158
-0.391497
-0.341997
-0.297575
-0.258766
-0.223819
-0.578112
-0.554886
-0.530576
-0.493828
-0.447207
-0.397601
-0.350019
-0.3067
-0.268494
-0.233986
-0.56723
-0.544927
-0.52308
-0.490555
-0.448317
-0.402071
-0.356698
-0.314717
-0.277288
-0.243388
-0.554981
-0.533682
-0.514016
-0.48545
-0.447649
-0.405007
-0.362111
-0.321694
-0.285199
-0.252056
-0.541736
-0.521518
-0.503763
-0.478805
-0.445382
-0.406521
-0.366338
-0.327696
-0.292286
-0.26003
-0.527847
-0.508782
-0.492691
-0.470935
-0.441713
-0.40673
-0.369462
-0.332795
-0.29861
-0.267354
-0.513638
-0.49579
-0.481151
-0.462162
-0.436858
-0.405761
-0.371565
-0.337056
-0.304233
-0.274078
-0.499395
-0.482819
-0.469452
-0.452808
-0.431044
-0.403744
-0.372725
-0.340542
-0.309214
-0.280256
-0.485363
-0.470105
-0.457864
-0.443181
-0.42451
-0.400817
-0.373018
-0.343307
-0.313606
-0.285937
-0.471746
-0.457839
-0.446604
-0.433555
-0.417499
-0.397124
-0.372519
-0.345396
-0.317453
-0.291171
-0.458699
-0.446165
-0.435845
-0.424157
-0.410248
-0.392818
-0.371295
-0.346844
-0.320788
-0.296001
-0.446337
-0.435182
-0.425711
-0.415161
-0.402975
-0.388055
-0.369417
-0.347674
-0.323631
-0.300468
-0.434736
-0.424949
-0.416281
-0.406685
-0.395864
-0.382993
-0.366959
-0.347902
-0.325984
-0.304604
-0.423939
-0.415494
-0.407592
-0.398799
-0.389047
-0.377786
-0.364
-0.34754
-0.327836
-0.308439
-0.413965
-0.406815
-0.39965
-0.391534
-0.382608
-0.372569
-0.360633
-0.346603
-0.329159
-0.311994
-0.40482
-0.398901
-0.392432
-0.38489
-0.376585
-0.367449
-0.35696
-0.345121
-0.329917
-0.315309
-0.396508
-0.391733
-0.38591
-0.378852
-0.370994
-0.362498
-0.353089
-0.343142
-0.330084
-0.318393
-0.389042
-0.385298
-0.380056
-0.373398
-0.365844
-0.357769
-0.349126
-0.340752
-0.329625
-0.321375
-0.382444
-0.379595
-0.374857
-0.368521
-0.361155
-0.353321
-0.345174
-0.338055
-0.328606
-0.32411
-0.376704
-0.374669
-0.370322
-0.364235
-0.35697
-0.349229
-0.341349
-0.3352
-0.327009
-0.326921
-0.37191
-0.370502
-0.366469
-0.360576
-0.353355
-0.345601
-0.33782
-0.332293
-0.324947
-0.328503
-0.368069
-0.367102
-0.363348
-0.357597
-0.350392
-0.342571
-0.334819
-0.329361
-0.323729
-0.318221
-0.365182
-0.364495
-0.360965
-0.355343
-0.348164
-0.34028
-0.332556
-0.326647
-0.323358
-0.313266
-0.363225
-0.362667
-0.359319
-0.353838
-0.346732
-0.338845
-0.331193
-0.324731
-0.323646
-0.311925
-0.362139
-0.361575
-0.358381
-0.353076
-0.346116
-0.338328
-0.330821
-0.324021
-0.324235
-0.311929
-0.361832
-0.361158
-0.358098
-0.35301
-0.346285
-0.338724
-0.331452
-0.324651
-0.325158
-0.313388
-0.362191
-0.361335
-0.3584
-0.35357
-0.34717
-0.339966
-0.333043
-0.326568
-0.326757
-0.316694
-0.363089
-0.362006
-0.359213
-0.354669
-0.348676
-0.341951
-0.335504
-0.329601
-0.32936
-0.321654
-0.364398
-0.363095
-0.360442
-0.35622
-0.350702
-0.344556
-0.338705
-0.333536
-0.333068
-0.327774
-0.366
-0.364514
-0.362014
-0.35814
-0.353146
-0.347655
-0.342494
-0.33815
-0.337747
-0.334561
-0.36779
-0.36619
-0.363861
-0.360356
-0.355918
-0.351125
-0.346712
-0.34323
-0.343128
-0.341679
-0.369682
-0.368059
-0.365928
-0.362808
-0.358939
-0.354857
-0.351211
-0.348583
-0.348916
-0.348889
-0.371613
-0.370073
-0.368169
-0.365443
-0.362142
-0.358758
-0.355863
-0.354044
-0.354861
-0.356014
-0.373538
-0.372196
-0.370548
-0.368223
-0.365474
-0.362756
-0.360568
-0.359486
-0.360775
-0.362916
-0.375439
-0.374407
-0.373045
-0.371121
-0.368901
-0.366801
-0.36526
-0.364825
-0.366536
-0.36949
-0.377317
-0.376702
-0.375651
-0.374126
-0.372407
-0.370874
-0.369911
-0.370022
-0.372088
-0.375653
-0.379198
-0.379093
-0.378372
-0.377243
-0.375998
-0.374982
-0.374528
-0.37509
-0.377438
-0.381337
-0.381132
-0.381606
-0.381233
-0.380495
-0.3797
-0.379156
-0.379149
-0.380088
-0.382595
-0.386591
-0.383183
-0.384286
-0.384271
-0.383924
-0.383561
-0.383456
-0.383848
-0.385085
-0.387624
-0.391777
-0.385435
-0.387189
-0.387539
-0.387581
-0.387642
-0.387956
-0.388713
-0.390183
-0.392682
-0.396719
-0.387981
-0.390382
-0.391098
-0.391531
-0.392014
-0.392738
-0.39384
-0.395497
-0.397896
-0.401546
-0.415063
-0.431078
-0.46397
-0.501316
-0.529331
-0.502965
-0.421033
-0.31786
-0.239658
-0.195641
-0.185965
-0.202703
-0.218224
-0.194652
-0.138901
-0.10884
-0.0848011
-0.0793951
-0.0870762
-0.0837681
-0.0818238
-0.0857686
-0.0691646
-0.0588472
-0.0475338
-0.0451333
-0.0581985
-0.0565304
-0.0195047
0.00303613
-0.417667
-0.427516
-0.451777
-0.480269
-0.502176
-0.475648
-0.399385
-0.304872
-0.235124
-0.197371
-0.19414
-0.214866
-0.231062
-0.2042
-0.144111
-0.109949
-0.0836615
-0.0766061
-0.0821606
-0.0776995
-0.0785394
-0.0838133
-0.0684661
-0.0587908
-0.0478425
-0.0458207
-0.0582564
-0.0563881
-0.0196612
0.00246747
-0.420833
-0.424011
-0.438756
-0.457387
-0.472325
-0.445845
-0.375574
-0.29029
-0.22936
-0.198149
-0.201616
-0.22663
-0.243037
-0.212902
-0.148891
-0.110873
-0.0825065
-0.073955
-0.077492
-0.0718499
-0.0752548
-0.0817637
-0.0677267
-0.0587087
-0.0481838
-0.0465513
-0.0583047
-0.0562182
-0.0198344
0.0018605
-0.424755
-0.420957
-0.425544
-0.433338
-0.440518
-0.413773
-0.349808
-0.274114
-0.222179
-0.197792
-0.208204
-0.237843
-0.254037
-0.220737
-0.153233
-0.111631
-0.0813541
-0.0714569
-0.0731021
-0.0662698
-0.0719904
-0.0796307
-0.0669491
-0.0586007
-0.0485556
-0.0473198
-0.0583413
-0.0560188
-0.0200218
0.00122051
-0.429522
-0.418657
-0.412734
-0.408807
-0.407436
-0.379896
-0.322211
-0.256344
-0.213397
-0.196128
-0.213744
-0.24834
-0.264062
-0.227695
-0.157132
-0.112244
-0.0802197
-0.0691196
-0.069016
-0.0610029
-0.068769
-0.077427
-0.0661359
-0.0584662
-0.0489555
-0.0481199
-0.0583638
-0.0557879
-0.0202204
0.000553198
-0.435096
-0.417292
-0.400806
-0.38447
-0.37378
-0.344486
-0.292919
-0.236978
-0.202856
-0.192992
-0.218099
-0.257946
-0.273126
-0.233776
-0.160588
-0.11273
-0.0791158
-0.0669447
-0.0652517
-0.0560839
-0.0656154
-0.075167
-0.0652898
-0.0583046
-0.0493812
-0.0489452
-0.05837
-0.0555236
-0.0204271
-0.000135378
-0.441322
-0.416922
-0.390152
-0.360982
-0.340288
-0.313281
-0.262083
-0.216037
-0.190434
-0.188239
-0.221157
-0.266492
-0.280951
-0.238975
-0.163606
-0.113107
-0.0780525
-0.064929
-0.0618195
-0.0515386
-0.0625696
-0.0728664
-0.0644131
-0.058115
-0.0498302
-0.0497887
-0.0583577
-0.0552239
-0.0206383
-0.00083888
-0.447934
-0.417476
-0.381029
-0.338939
-0.307546
-0.276254
-0.230349
-0.193552
-0.176057
-0.181744
-0.222821
-0.273816
-0.287568
-0.243294
-0.166189
-0.113391
-0.0770379
-0.0630654
-0.0587216
-0.0473804
-0.0596527
-0.0705448
-0.0635084
-0.0578964
-0.0502998
-0.0506431
-0.0583245
-0.0548869
-0.0208503
-0.00155078
-0.45459
-0.418758
-0.373551
-0.318858
-0.276359
-0.240354
-0.198371
-0.169557
-0.159708
-0.173416
-0.223013
-0.279772
-0.292943
-0.246739
-0.168346
-0.113597
-0.076078
-0.0613451
-0.0559526
-0.0436149
-0.055195
-0.0682201
-0.0625781
-0.0576477
-0.0507872
-0.0515007
-0.0582682
-0.0545109
-0.0210591
-0.00226447
-0.460964
-0.420485
-0.367684
-0.301127
-0.247366
-0.206265
-0.166598
-0.144163
-0.141443
-0.163211
-0.221667
-0.284232
-0.29705
-0.249323
-0.170087
-0.113734
-0.0751768
-0.0597579
-0.0534988
-0.040262
-0.0526313
-0.0659204
-0.0616245
-0.0573677
-0.0512895
-0.0523541
-0.0581865
-0.0540943
-0.0212606
-0.00297343
-0.466791
-0.422265
-0.36328
-0.285978
-0.221096
-0.174325
-0.135563
-0.117596
-0.121391
-0.151139
-0.218742
-0.287098
-0.299866
-0.251062
-0.171423
-0.113812
-0.074338
-0.0582942
-0.0513397
-0.0373122
-0.0502808
-0.063661
-0.0606502
-0.0570552
-0.0518037
-0.053197
-0.0580773
-0.0536355
-0.0214507
-0.00367132
-0.471417
-0.423646
-0.36019
-0.273535
-0.198013
-0.145002
-0.105999
-0.0902215
-0.0997571
-0.137277
-0.214218
-0.2883
-0.301381
-0.251975
-0.172368
-0.11384
-0.0735655
-0.0569459
-0.049449
-0.0347488
-0.0481425
-0.061459
-0.0596577
-0.056709
-0.0523264
-0.0540222
-0.0579386
-0.0531331
-0.0216256
-0.00435212
-0.474015
-0.42492
-0.358172
-0.263871
-0.17853
-0.1188
-0.0788838
-0.0625782
-0.0768488
-0.121781
-0.20811
-0.287797
-0.301589
-0.252087
-0.172941
-0.113828
-0.0728643
-0.055706
-0.0477945
-0.032555
-0.0462351
-0.0593255
-0.0586491
-0.0563277
-0.0528543
-0.0548211
-0.0577682
-0.052586
-0.0217814
-0.00501012
-0.475186
-0.426071
-0.356023
-0.256828
-0.163008
-0.0961534
-0.052594
-0.0354344
-0.0530942
-0.104883
-0.200471
-0.285585
-0.300499
-0.251418
-0.173155
-0.113769
-0.0722314
-0.0545655
-0.0463368
-0.0307078
-0.0445683
-0.0572696
-0.0576266
-0.0559101
-0.0533845
-0.0555857
-0.0575633
-0.0519936
-0.0219134
-0.00563986
-0.474911
-0.426191
-0.35445
-0.251899
-0.151483
-0.0775434
-0.0288629
-0.00981488
-0.0290491
-0.0868878
-0.191388
-0.281689
-0.298123
-0.249982
-0.172996
-0.113629
-0.0716453
-0.0535099
-0.0450309
-0.0291754
-0.0431529
-0.0552992
-0.0565921
-0.055455
-0.0539134
-0.0563083
-0.0573223
-0.0513562
-0.022017
-0.00623591
-0.473231
-0.425246
-0.353048
-0.249477
-0.14366
-0.0629276
-0.0105661
0.0133448
-0.00542255
-0.0681615
-0.180983
-0.276169
-0.294512
-0.2478
-0.172452
-0.113383
-0.0710942
-0.0525318
-0.0438464
-0.0279294
-0.0419885
-0.0534166
-0.0555469
-0.054961
-0.0544365
-0.0569858
-0.0570436
-0.050673
-0.0220907
-0.00679329
-0.470219
-0.423234
-0.351599
-0.248711
-0.139944
-0.0533787
0.00411159
0.033189
0.016966
-0.0491088
-0.169406
-0.269143
-0.289755
-0.244966
-0.171661
-0.11318
-0.0706793
-0.0516687
-0.0427993
-0.0269724
-0.0410802
-0.0516165
-0.0544909
-0.0544267
-0.0549491
-0.0576113
-0.0567211
-0.0499378
-0.02214
-0.00730874
-0.466141
-0.420449
-0.350361
-0.249805
-0.139879
-0.0485466
0.0140051
0.0490166
0.0372881
-0.0301602
-0.156827
-0.260673
-0.283724
-0.241611
-0.170964
-0.113345
-0.0706114
-0.0509928
-0.0419097
-0.0263187
-0.0405289
-0.0499071
-0.0534242
-0.0538506
-0.055444
-0.0581471
-0.0563403
-0.0491418
-0.0221709
-0.00777983
-0.461858
-0.417619
-0.3502
-0.253738
-0.144414
-0.0491651
0.018607
0.0598881
0.0546313
-0.0116673
-0.1433
-0.250342
-0.275831
-0.237454
-0.170107
-0.113532
-0.0706529
-0.0503852
-0.0409827
-0.0258291
-0.040371
-0.0483094
-0.0523562
-0.0532327
-0.0559101
-0.0584289
-0.0559088
-0.0483064
-0.0221555
-0.00819169
-0.455656
-0.411636
-0.346416
-0.254576
-0.147493
-0.0503952
0.0206458
0.0661762
0.0682402
0.00490101
-0.129307
-0.239579
-0.267403
-0.231518
-0.166924
-0.111554
-0.0693457
-0.0492652
-0.0394857
-0.025057
-0.0397896
-0.0464736
-0.0512378
-0.0525865
-0.0564199
-0.0586013
-0.0555401
-0.0475241
-0.0219968
-0.00850793
-0.437175
-0.397705
-0.332004
-0.242107
-0.137404
-0.0409194
0.0316059
0.0797035
0.0850516
0.0219081
-0.120213
-0.236523
-0.262671
-0.223833
-0.160296
-0.106381
-0.0658251
-0.0472342
-0.0371446
-0.0235421
-0.0368514
-0.0424871
-0.0490917
-0.0517336
-0.0576367
-0.0613732
-0.055304
-0.0467233
-0.0215935
-0.00883015
-0.411237
-0.372903
-0.307934
-0.223675
-0.126062
-0.0343959
0.0353991
0.0825013
0.0900157
0.0294879
-0.109973
-0.224711
-0.247151
-0.209366
-0.150024
-0.0998806
-0.0623414
-0.0447081
-0.0345155
-0.0231155
-0.0357046
-0.0411269
-0.047591
-0.0507488
-0.057647
-0.0626416
-0.0541168
-0.0452196
-0.0210405
-0.00952603
-0.384445
-0.347199
-0.284446
-0.206815
-0.117387
-0.0316737
0.0346089
0.0797775
0.0865483
0.0284832
-0.102259
-0.209988
-0.229121
-0.193755
-0.139491
-0.0933319
-0.0587011
-0.0420715
-0.0319426
-0.0227688
-0.0349025
-0.0406587
-0.0464511
-0.0496761
-0.0570368
-0.0635947
-0.0526743
-0.04345
-0.0204238
-0.0102638
-0.357535
-0.322011
-0.262541
-0.191824
-0.111097
-0.032189
0.0297483
0.0721957
0.0783355
0.0243686
-0.0946806
-0.19323
-0.209405
-0.177183
-0.12845
-0.0864862
-0.0548882
-0.039331
-0.0293304
-0.0224245
-0.0341785
-0.0400561
-0.045217
-0.048495
-0.056382
-0.0643163
-0.0510716
-0.0413511
-0.0197022
-0.0109797
-0.330461
-0.297637
-0.242312
-0.178458
-0.106503
-0.0349861
0.0217328
0.0610087
0.0668545
0.0188564
-0.0861548
-0.172208
-0.188248
-0.160025
-0.117161
-0.0794772
-0.0509221
-0.0364742
-0.026639
-0.0220147
-0.0335683
-0.0393335
-0.0438776
-0.0472635
-0.0557332
-0.0646887
-0.0492404
-0.0389001
-0.0188429
-0.0116688
-0.303698
-0.274337
-0.223754
-0.166511
-0.103016
-0.0390701
0.0122826
0.0478883
0.0535996
0.0127201
-0.0768156
-0.151592
-0.166506
-0.142828
-0.105859
-0.072389
-0.0468168
-0.0334866
-0.0238336
-0.0214647
-0.033027
-0.0386218
-0.0425138
-0.0459833
-0.0549427
-0.0645995
-0.0471389
-0.0360751
-0.0178073
-0.012312
-0.277909
-0.252271
-0.206756
-0.155764
-0.10015
-0.0436448
0.00239834
0.034272
0.0400503
0.00670337
-0.0671809
-0.130706
-0.145115
-0.126111
-0.094765
-0.0653167
-0.04259
-0.0303533
-0.0208731
-0.0206811
-0.0324703
-0.0379325
-0.0411186
-0.0445886
-0.0539121
-0.0639598
-0.044735
-0.0328615
-0.0165528
-0.0128783
-0.253442
-0.231477
-0.191127
-0.14599
-0.0975503
-0.0481214
-0.00716302
0.0211718
0.0272578
0.00121721
-0.0580135
-0.110863
-0.124947
-0.110304
-0.0840651
-0.0583416
-0.038257
-0.0270574
-0.0177123
-0.0195484
-0.0317781
-0.0371731
-0.0395963
-0.0430033
-0.0525935
-0.0626771
-0.041994
-0.0292514
-0.0150337
-0.0133303
-0.230471
-0.211949
-0.176666
-0.136983
-0.094985
-0.0521091
-0.0159219
0.00920567
0.0157539
-0.0037222
-0.0500106
-0.0930684
-0.106614
-0.0956928
-0.0738945
-0.0515324
-0.0338323
-0.0235813
-0.0143072
-0.0179262
-0.0307695
-0.0361696
-0.037802
-0.0411604
-0.0509223
-0.0606508
-0.0388813
-0.0252452
-0.0132049
-0.013624
-0.209044
-0.193658
-0.163195
-0.128572
-0.0923126
-0.0553575
-0.0235923
-0.00131479
0.00569023
-0.00821323
-0.0435328
-0.0778526
-0.0904055
-0.082419
-0.0643401
-0.0449442
-0.0293308
-0.019908
-0.0106189
-0.0156475
-0.0291911
-0.0346625
-0.0355497
-0.03898
-0.048799
-0.0577822
-0.0353665
-0.0208526
-0.0110241
-0.0137099
-0.189172
-0.176584
-0.150577
-0.120619
-0.0894531
-0.0577803
-0.0300544
-0.0102976
-0.00294729
-0.0122804
-0.0385579
-0.0652526
-0.0763471
-0.0705105
-0.0554503
-0.0386208
-0.0247707
-0.0160268
-0.00661797
-0.0125188
-0.0266954
-0.0322899
-0.0325926
-0.0363554
-0.0461021
-0.0539861
-0.0314275
-0.0160975
-0.00845405
-0.0135292
-0.170788
-0.16066
-0.138724
-0.113024
-0.0863662
-0.0593474
-0.0352839
-0.0177604
-0.010214
-0.0158687
-0.0348302
-0.0550112
-0.0643084
-0.059927
-0.0472473
-0.0325966
-0.0201777
-0.0119408
-0.00229299
-0.0083413
-0.0228176
-0.0285684
-0.0286158
-0.0331638
-0.0427053
-0.0492057
-0.0270557
-0.0110207
-0.00546659
-0.0130215
-0.153832
-0.145835
-0.12757
-0.105732
-0.0829996
-0.0600785
-0.0393085
-0.0237736
-0.0161762
-0.0189206
-0.0320417
-0.0467594
-0.0540854
-0.0505904
-0.0397357
-0.0268984
-0.0155887
-0.00767396
0.00234022
-0.00295902
-0.0170172
-0.0228925
-0.023273
-0.0292841
-0.0384982
-0.0434289
-0.0222623
-0.00568435
-0.00204991
-0.012127
-0.138239
-0.132062
-0.117029
-0.098661
-0.0794239
-0.0600336
-0.0421938
-0.0284362
-0.0209161
-0.0214008
-0.029925
-0.0401331
-0.0454561
-0.0424044
-0.0329081
-0.0215469
-0.0110558
-0.00327297
0.00722596
0.00368835
-0.0087779
-0.0146206
-0.0162794
-0.0246182
-0.0334125
-0.0367063
-0.0170849
-0.000174183
0.00178416
-0.0107916
-0.123937
-0.119299
-0.107081
-0.091795
-0.0756245
-0.0592876
-0.0440307
-0.0318669
-0.0245309
-0.0232965
-0.0283252
-0.034814
-0.038205
-0.0352645
-0.0267489
-0.0165565
-0.00664688
0.00119341
0.0122573
0.011475
0.0022574
-0.00327108
-0.00755845
-0.0191245
-0.0274479
-0.029164
-0.011592
0.00539852
0.00599196
-0.00897543
-0.110852
-0.1075
-0.0977065
-0.0851243
-0.0716324
-0.0579265
-0.0449281
-0.0341961
-0.0271305
-0.0246274
-0.0269434
-0.0305044
-0.0321267
-0.0290648
-0.0212361
-0.0119352
-0.00243648
0.00563396
0.0172743
0.0199667
0.016007
0.0111362
0.00258569
-0.0128551
-0.0206968
-0.0210123
-0.00588108
0.0108986
0.010486
-0.0066651
-0.0989146
-0.0966215
-0.0888932
-0.0786567
-0.0674901
-0.0560433
-0.0450065
-0.0355612
-0.0288377
-0.0254345
-0.0256893
-0.0269615
-0.0270347
-0.0237006
-0.0163414
-0.00768806
0.00151005
0.00993334
0.0220803
0.0283927
0.0315308
0.0275732
0.0133412
-0.00594146
-0.0133482
-0.0125375
-7.83539e-05
0.0161775
0.015124
-0.00388938
-0.0880563
-0.0866239
-0.0806353
-0.0724115
-0.0632494
-0.0537352
-0.0443918
-0.0361002
-0.029785
-0.0257672
-0.0244896
-0.0240006
-0.0227652
-0.0190728
-0.0120312
-0.00382068
0.00514354
0.0139607
0.0264697
0.0358725
0.0466786
0.0436169
0.0235747
0.00149322
-0.0056622
-0.00407617
0.0056613
0.0210796
0.0197069
-0.000736597
-0.0782134
-0.0774692
-0.0729305
-0.0664156
-0.0589683
-0.0511009
-0.0432094
-0.0359442
-0.0301131
-0.0256784
-0.0232969
-0.0214793
-0.0191762
-0.0150909
-0.00826672
-0.00034224
0.00842627
0.0175834
0.0302438
0.0417347
0.0587785
0.0564474
0.0324307
0.00931617
0.00203282
0.00400864
0.0111498
0.0254421
0.0239815
0.00263204
-0.0693263
-0.0691226
-0.0657794
-0.0607006
-0.054709
-0.0482378
-0.0415836
-0.0352064
-0.0295682
-0.0252036
-0.0220844
-0.0192907
-0.0161474
-0.0116754
-0.00500523
0.00273526
0.0113275
0.0206864
0.0332263
0.0454867
0.0598319
0.0643727
0.0396542
0.0171466
0.00932496
0.0113723
0.0161874
0.0291017
0.0276473
0.00598114
-0.0613406
-0.061553
-0.0591847
-0.0553009
-0.0505349
-0.0452426
-0.0396455
-0.0340812
-0.0289344
-0.0244712
-0.0208514
-0.0173593
-0.0135793
-0.00875834
-0.00220248
0.00540418
0.0138242
0.0232056
0.0353662
0.0476575
0.0619574
0.0678749
0.0452191
0.0243148
0.0158305
0.0177503
0.0206284
0.0319261
0.0303921
0.00902036
-0.0542076
-0.0547333
-0.0531512
-0.0502518
-0.0465088
-0.0422072
-0.0375086
-0.032646
-0.0279519
-0.0235305
-0.0196051
-0.0156337
-0.0113917
-0.00628098
0.000184058
0.00766853
0.0159069
0.0251404
0.0367059
0.048474
0.0613956
0.0680563
0.049045
0.0302633
0.0213294
0.0230078
0.0243897
0.0338631
0.0319835
0.0114633
-0.0478857
-0.0486411
-0.0476855
-0.0455884
-0.0426915
-0.0392166
-0.0352767
-0.0310341
-0.0267424
-0.0224447
-0.0183614
-0.014082
-0.00952233
-0.00419265
0.00219403
0.00954675
0.0175845
0.0265371
0.0373623
0.0482832
0.0595223
0.0661444
0.0511809
0.0347984
0.0258184
0.0271425
0.0274431
0.0349208
0.0323589
0.013116
-0.0423412
-0.0432596
-0.0427967
-0.0413458
-0.039141
-0.0363486
-0.0330425
-0.0293345
-0.0254092
-0.0212793
-0.0171435
-0.0126878
-0.00792507
-0.00244867
0.0038643
0.0110688