/*--------------------------------*- C++ -*----------------------------------*\
  =========                 |
  \\      /  F ield         | OpenFOAM: The Open Source CFD Toolbox
   \\    /   O peration     | Website:  https://openfoam.org
    \\  /    A nd           | Version:  7
     \\/     M anipulation  |
\*---------------------------------------------------------------------------*/
FoamFile
{
    version     2.0;
    format      ascii;
    class       volVectorField;
    location    "140";
    object      U;
}
// * * * * * * * * * * * * * * * * * * * * * * * * * * * * * * * * * * * * * //

dimensions      [0 1 -1 0 0 0 0];

internalField   nonuniform List<vector> 
2125
(
(0.018579 -0.000323809 1.696e-21)
(0.0845216 -0.000614067 -4.66345e-21)
(0.185044 -0.0013026 -5.28205e-21)
(0.0191599 -0.0281592 -1.68073e-21)
(0.085603 -0.0516479 4.62308e-21)
(0.186315 -0.0565679 5.2423e-21)
(0.281414 -0.0536985 -5.01769e-21)
(0.367064 -0.0488443 4.41476e-21)
(0.443382 -0.0440657 2.20946e-21)
(0.511212 -0.0397321 -3.52615e-21)
(0.571571 -0.0358348 -4.09136e-21)
(0.62526 -0.0323118 6.01693e-22)
(0.672973 -0.0291053 -1.70079e-21)
(0.0218639 -0.0558722 1.8439e-21)
(0.0904494 -0.102493 -5.50792e-21)
(0.191593 -0.111644 1.2276e-20)
(0.286417 -0.105169 -1.078e-20)
(0.371599 -0.0947322 -5.18513e-22)
(0.447457 -0.0845898 -7.18232e-21)
(0.514874 -0.0755167 1.16583e-20)
(0.57488 -0.0674576 1.58377e-20)
(0.628281 -0.0602503 2.81966e-21)
(0.675637 -0.0537771 -6.07274e-21)
(0.0266677 -0.0832191 -1.55853e-21)
(0.0990289 -0.152782 -1.1542e-20)
(0.20085 -0.166183 -2.69037e-20)
(0.295106 -0.156169 2.32929e-20)
(0.379392 -0.140213 4.78009e-21)
(0.454382 -0.124757 4.24621e-21)
(0.521029 -0.110987 -2.0883e-20)
(0.580378 -0.0988012 -1.23384e-20)
(0.63324 -0.0879359 -2.7586e-21)
(0.679947 -0.0782259 1.87414e-20)
(0.033523 -0.109959 -5.4832e-21)
(0.111275 -0.202148 6.96422e-21)
(0.214026 -0.219839 4.85157e-20)
(0.307433 -0.206403 -4.3855e-21)
(0.390401 -0.185035 -1.24892e-20)
(0.464121 -0.164352 8.92944e-21)
(0.529644 -0.145957 6.79214e-22)
(0.588037 -0.129704 3.13602e-21)
(0.640115 -0.115228 -6.89653e-21)
(0.685896 -0.102336 -1.81914e-20)
(0.0423569 -0.135858 -3.67558e-21)
(0.127086 -0.250234 2.00564e-20)
(0.231031 -0.272272 -4.86419e-20)
(0.323323 -0.255583 2.10075e-20)
(0.404565 -0.228952 2.11313e-22)
(0.476621 -0.203163 -2.66873e-20)
(0.540673 -0.180245 1.18293e-20)
(0.597816 -0.160009 -1.1238e-21)
(0.648867 -0.141989 4.48236e-21)
(0.693459 -0.125995 -1.28618e-21)
(0.0530726 -0.160689 -4.19709e-20)
(0.146328 -0.296691 -5.03062e-20)
(0.251744 -0.323151 1.32809e-20)
(0.342675 -0.303423 -2.40784e-20)
(0.4218 -0.271725 -6.73816e-21)
(0.49181 -0.240984 1.01857e-20)
(0.554055 -0.213673 3.75629e-21)
(0.609659 -0.189561 1.38766e-20)
(0.659449 -0.168084 -2.98423e-21)
(0.702602 -0.149085 1.61785e-20)
(0.0655502 -0.184235 4.01061e-20)
(0.168834 -0.341183 2.58344e-20)
(0.276013 -0.372154 -1.93927e-20)
(0.365365 -0.349649 3.26986e-20)
(0.442002 -0.313119 -2.70162e-21)
(0.509601 -0.277616 -3.54273e-20)
(0.569714 -0.246068 6.19858e-21)
(0.6235 -0.218212 -3.7715e-20)
(0.6718 -0.193381 1.51686e-21)
(0.713286 -0.171492 1.36278e-20)
(0.0796475 -0.206292 -2.93117e-20)
(0.194403 -0.383387 5.26543e-20)
(0.30366 -0.418974 2.07083e-20)
(0.391246 -0.393997 -2.58996e-20)
(0.46505 -0.352912 3.59107e-22)
(0.529889 -0.312866 6.50933e-20)
(0.587559 -0.277266 2.869e-21)
(0.639258 -0.245819 2.88055e-20)
(0.68585 -0.217755 3.5056e-20)
(0.725462 -0.193103 -1.96333e-20)
(0.0952016 -0.22667 1.64081e-20)
(0.222806 -0.423001 -7.90506e-21)
(0.334477 -0.463316 -1.86614e-20)
(0.420146 -0.436215 1.37802e-20)
(0.490801 -0.390891 5.40123e-20)
(0.552553 -0.346553 -1.91706e-20)
(0.607488 -0.307109 -3.21596e-21)
(0.656843 -0.272247 -4.13447e-20)
(0.70152 -0.241086 -5.10629e-20)
(0.739074 -0.213809 2.23697e-20)
(0.11203 -0.245196 -2.12378e-20)
(0.253782 -0.45974 -1.86322e-20)
(0.368229 -0.504904 3.24499e-21)
(0.451873 -0.476066 -7.32371e-20)
(0.519096 -0.426855 -3.12058e-20)
(0.577459 -0.378505 -2.28781e-20)
(0.629385 -0.335452 -3.00021e-20)
(0.676153 -0.29737 1.40888e-20)
(0.718722 -0.263265 1.66868e-20)
(0.75406 -0.233505 2.47516e-20)
(0.129932 -0.261716 4.78378e-21)
(0.287045 -0.493342 2.64195e-20)
(0.404656 -0.54348 1.95512e-20)
(0.486214 -0.513329 3.3667e-20)
(0.54976 -0.460619 2.66667e-20)
(0.604457 -0.408565 -2.53413e-20)
(0.65312 -0.362156 2.37429e-20)
(0.697078 -0.321073 1.64423e-20)
(0.737359 -0.284189 -1.90134e-21)
(0.770353 -0.252094 -7.54441e-21)
(0.14869 -0.276093 4.58868e-20)
(0.32228 -0.52357 -2.2903e-20)
(0.443473 -0.578808 -1.79098e-20)
(0.522935 -0.547799 -1.03311e-20)
(0.5826 -0.492011 1.94682e-20)
(0.633385 -0.436585 1.79332e-20)
(0.678556 -0.387098 -2.50819e-20)
(0.719497 -0.343249 1.92422e-20)
(0.75733 -0.303769 8.40867e-22)
(0.787881 -0.269484 1.78023e-20)
(0.168076 -0.288217 -3.08635e-20)
(0.359152 -0.550213 -1.15412e-20)
(0.484375 -0.610673 -1.92288e-21)
(0.561785 -0.579292 1.89284e-20)
(0.61741 -0.520876 -3.92114e-21)
(0.66407 -0.462435 -1.88534e-20)
(0.705543 -0.410165 5.31735e-21)
(0.743281 -0.363805 5.64679e-21)
(0.778524 -0.321926 1.36689e-20)
(0.80657 -0.285595 -2.73476e-20)
(0.187845 -0.297997 -1.03746e-20)
(0.397299 -0.573091 2.65471e-20)
(0.527031 -0.638886 2.1276e-20)
(0.602495 -0.607642 -1.00028e-20)
(0.653972 -0.547077 -2.32703e-20)
(0.696327 -0.485999 -1.69658e-20)
(0.733923 -0.431257 2.01624e-20)
(0.76829 -0.38266 -4.08224e-20)
(0.800826 -0.338596 1.02128e-20)
(0.826345 -0.300356 2.85848e-20)
(0.207747 -0.305369 2.31049e-20)
(0.436344 -0.592052 -1.40381e-20)
(0.571094 -0.663283 2.36432e-21)
(0.64478 -0.632707 4.44508e-22)
(0.692054 -0.570495 -4.99204e-21)
(0.729963 -0.507177 2.8613e-20)
(0.763529 -0.45029 -2.56331e-20)
(0.794376 -0.399746 2.49231e-20)
(0.824114 -0.353735 -3.78902e-20)
(0.847135 -0.313721 -1.43499e-20)
(0.227521 -0.310294 5.81233e-22)
(0.475891 -0.606979 -1.26727e-20)
(0.616199 -0.683727 -3.29825e-22)
(0.688344 -0.654365 -4.70339e-21)
(0.731415 -0.59103 -2.52027e-21)
(0.764779 -0.525886 -1.56155e-22)
(0.79419 -0.467188 -1.56126e-20)
(0.821377 -0.414998 -1.10424e-21)
(0.848243 -0.367298 2.27457e-20)
(0.868879 -0.32565 -2.84531e-20)
(0.246906 -0.31276 4.25202e-21)
(0.51553 -0.617788 5.97794e-21)
(0.661964 -0.70011 -9.88581e-21)
(0.732874 -0.672518 -3.4435e-21)
(0.771805 -0.608604 3.85095e-20)
(0.800566 -0.542061 -3.2614e-20)
(0.825734 -0.481901 3.45225e-20)
(0.849124 -0.428386 9.70401e-22)
(0.873052 -0.379321 6.75321e-21)
(0.891543 -0.336229 2.61326e-20)
(0.265636 -0.312785 3.9923e-21)
(0.554842 -0.624431 -4.35511e-21)
(0.707995 -0.712352 2.58503e-21)
(0.778049 -0.687093 2.92922e-21)
(0.812964 -0.623156 -3.64927e-21)
(0.837114 -0.555651 1.35129e-20)
(0.857993 -0.49437 -7.94141e-21)
(0.877451 -0.439812 8.71078e-21)
(0.898313 -0.389623 -3.15701e-21)
(0.915106 -0.345292 -1.83741e-21)
(0.283447 -0.310411 -1.02691e-20)
(0.593398 -0.626897 -5.46035e-21)
(0.753885 -0.720406 3.03481e-21)
(0.823538 -0.698041 2.52292e-21)
(0.854629 -0.634648 -7.99909e-21)
(0.8742 -0.566632 1.96301e-20)
(0.890794 -0.504593 -1.91198e-20)
(0.906185 -0.449363 1.41782e-20)
(0.923629 -0.398668 -1.22931e-20)
(0.939405 -0.354162 -1.60627e-20)
(0.30008 -0.305713 -4.76552e-21)
(0.630766 -0.625214 5.12499e-21)
(0.799219 -0.724251 -4.0122e-21)
(0.869003 -0.705338 9.99879e-23)
(0.896532 -0.643061 -2.7945e-22)
(0.911603 -0.574983 -1.16731e-20)
(0.923988 -0.512511 4.73974e-21)
(0.935332 -0.456766 -4.31508e-21)
(0.948812 -0.405313 1.24489e-20)
(0.964939 -0.359262 -3.01038e-21)
(0.315284 -0.298792 -1.13185e-20)
(0.666514 -0.619447 -9.5683e-21)
(0.843573 -0.723902 3.9719e-21)
(0.914101 -0.708988 1.12018e-21)
(0.938408 -0.648401 -3.86363e-21)
(0.949092 -0.580722 8.52177e-22)
(0.957365 -0.518174 2.06857e-21)
(0.964876 -0.462327 -7.8646e-21)
(0.973394 -0.41195 -8.49403e-21)
(0.987661 -0.369907 6.46805e-21)
(0.328827 -0.289786 -8.81987e-21)
(0.700203 -0.609694 2.05618e-20)
(0.886521 -0.719404 -1.59793e-20)
(0.958484 -0.709023 -3.59311e-21)
(0.979991 -0.650688 -6.66639e-21)
(0.986446 -0.58387 5.53631e-21)
(0.990649 -0.521616 -1.115e-21)
(0.994583 -0.465966 1.73501e-21)
(0.9986 -0.416538 -5.63352e-22)
(1.00775 -0.374504 9.66165e-22)
(0.34053 -0.278868 -2.36425e-20)
(0.731386 -0.596082 -4.73646e-20)
(0.927636 -0.710846 3.90226e-20)
(1.0018 -0.7055 3.03416e-21)
(1.02102 -0.649962 9.09343e-24)
(1.02347 -0.584454 6.58153e-21)
(1.02364 -0.52283 4.65891e-21)
(1.02415 -0.467532 5.85573e-22)
(1.02447 -0.418797 3.72081e-21)
(1.02849 -0.376856 3.63756e-21)
(0.350178 -0.266142 2.31295e-20)
(0.759622 -0.57875 -9.7421e-21)
(0.966511 -0.69839 -2.84322e-20)
(1.04371 -0.698499 2.86214e-21)
(1.06122 -0.646279 2.20449e-21)
(1.05997 -0.582517 -2.09881e-20)
(1.05622 -0.521851 1.03636e-20)
(1.05338 -0.467115 -1.00106e-21)
(1.05063 -0.419127 6.06347e-22)
(1.05066 -0.377777 -7.51762e-22)
(0.357536 -0.251756 2.83578e-20)
(0.784343 -0.557856 7.09268e-20)
(1.00282 -0.682261 -1.8029e-21)
(1.08388 -0.68811 -5.60546e-21)
(1.10034 -0.639723 -2.61038e-21)
(1.09576 -0.578138 -3.25095e-21)
(1.08826 -0.518763 -1.29102e-20)
(1.08216 -0.464857 4.34417e-21)
(1.07665 -0.417749 1.07516e-20)
(1.07345 -0.377262 1.61679e-21)
(0.362538 -0.235935 -2.10358e-20)
(0.805215 -0.533868 -1.23175e-20)
(1.03613 -0.662735 5.30923e-20)
(1.12199 -0.674352 9.16411e-22)
(1.13812 -0.630395 -1.98161e-20)
(1.13067 -0.571409 3.34026e-20)
(1.11966 -0.513655 7.04814e-21)
(1.11039 -0.460853 2.01364e-21)
(1.10226 -0.414737 -5.45204e-21)
(1.09612 -0.375257 -6.37959e-21)
(0.365124 -0.219009 4.973e-20)
(0.822104 -0.50722 -1.12031e-20)
(1.06563 -0.63975 -3.48786e-20)
(1.15774 -0.657415 3.13669e-21)
(1.17431 -0.61844 2.49723e-20)
(1.16448 -0.562437 -9.1862e-21)
(1.15025 -0.506619 -1.02812e-20)
(1.13797 -0.455178 -5.14478e-22)
(1.12733 -0.410158 -5.90848e-21)
(1.11842 -0.371804 3.46475e-21)
(0.365202 -0.201267 -1.77128e-20)
(0.834805 -0.478079 -1.09651e-19)
(1.0909 -0.613569 9.62492e-21)
(1.19072 -0.637626 3.95638e-20)
(1.20866 -0.603919 -1.26841e-21)
(1.19702 -0.551327 -4.93449e-20)
(1.17989 -0.497755 2.75592e-20)
(1.16478 -0.447915 -9.23888e-21)
(1.15177 -0.404109 1.20769e-20)
(1.14028 -0.367008 3.24409e-21)
(0.362705 -0.182973 -2.14874e-20)
(0.842991 -0.446752 3.8419e-20)
(1.11187 -0.58461 4.89634e-20)
(1.22037 -0.615083 -2.92771e-20)
(1.24088 -0.586988 7.4933e-21)
(1.22809 -0.538221 2.9575e-20)
(1.20844 -0.487176 1.15565e-20)
(1.19071 -0.439161 4.91663e-21)
(1.17547 -0.396689 -1.01498e-20)
(1.16159 -0.360966 -9.62007e-21)
(0.357618 -0.164388 -2.90329e-20)
(0.84636 -0.413633 -1.05847e-20)
(1.12828 -0.553139 -9.11006e-20)
(1.24639 -0.589992 -1.23644e-20)
(1.27071 -0.567867 1.50228e-21)
(1.25753 -0.523248 4.5028e-21)
(1.23578 -0.475003 -5.18161e-20)
(1.21566 -0.429021 -2.35473e-20)
(1.19836 -0.387998 5.4956e-22)
(1.18228 -0.353754 7.52285e-21)
(0.349987 -0.145774 -7.90801e-21)
(0.84469 -0.379141 3.45517e-20)
(1.13972 -0.519455 4.59014e-20)
(1.26855 -0.562617 2.61716e-20)
(1.29785 -0.546725 -5.71625e-21)
(1.28515 -0.506566 -5.24006e-21)
(1.26178 -0.461365 4.03945e-20)
(1.23954 -0.417606 3.95114e-20)
(1.22037 -0.378133 5.30048e-21)
(1.20225 -0.345439 -5.47861e-21)
(0.339899 -0.127392 7.54808e-20)
(0.837836 -0.34371 4.72508e-20)
(1.14585 -0.483908 -4.54814e-20)
(1.28653 -0.5332 -8.08681e-21)
(1.32209 -0.523747 4.09414e-21)
(1.31082 -0.488335 -1.29632e-20)
(1.28635 -0.446397 -2.32089e-20)
(1.26225 -0.405035 -1.8597e-21)
(1.24143 -0.36719 -2.3943e-20)
(1.22145 -0.336095 1.07361e-20)
(0.327491 -0.109491 9.48763e-21)
(0.825731 -0.307793 -2.58302e-20)
(1.14637 -0.446874 5.95983e-20)
(1.29999 -0.502 3.4759e-20)
(1.34315 -0.499128 1.59461e-21)
(1.33434 -0.468715 1.90369e-20)
(1.30942 -0.43023 2.00969e-21)
(1.28375 -0.391427 -1.70072e-20)
(1.26147 -0.355278 1.31428e-20)
(1.23985 -0.325797 1.18511e-21)
(0.312939 -0.0923141 -6.27725e-20)
(0.808378 -0.271854 -1.84039e-20)
(1.14103 -0.408753 -1.57241e-20)
(1.30859 -0.469292 -2.44572e-20)
(1.36078 -0.473061 6.24088e-21)
(1.35555 -0.44787 -1.10107e-22)
(1.33087 -0.41301 1.41494e-20)
(1.30402 -0.376909 -3.46587e-21)
(1.28035 -0.342469 -1.48838e-20)
(1.25757 -0.314692 -1.22892e-20)
(0.296464 -0.0760812 5.06311e-21)
(0.785863 -0.236365 2.95182e-20)
(1.12963 -0.369962 1.37501e-20)
(1.31201 -0.435367 -3.93346e-20)
(1.3747 -0.445743 -8.46123e-22)
(1.37426 -0.425952 -1.4754e-20)
(1.35058 -0.39487 2.81564e-22)
(1.32299 -0.361523 5.25429e-21)
(1.29807 -0.328959 -5.98785e-21)
(1.27466 -0.302867 1.71549e-20)
(0.278322 -0.0609889 1.17418e-20)
(0.758356 -0.201795 -2.87305e-20)
(1.11201 -0.330931 -6.52809e-20)
(1.30993 -0.400523 5.6845e-20)
(1.38462 -0.417373 -3.70599e-21)
(1.3903 -0.403113 1.05602e-20)
(1.36848 -0.375946 -1.39507e-21)
(1.34063 -0.345435 9.1461e-21)
(1.31477 -0.314957 -7.30479e-22)
(1.29079 -0.290415 -1.33927e-20)
(0.258803 -0.0472033 -2.35866e-20)
(0.726123 -0.168602 3.69409e-20)
(1.0881 -0.292101 2.97155e-20)
(1.30206 -0.365073 -4.05797e-20)
(1.39024 -0.388157 -6.46189e-21)
(1.40347 -0.379503 2.21325e-21)
(1.38445 -0.356377 2.27028e-20)
(1.3569 -0.328776 8.39933e-22)
(1.33036 -0.300454 4.23956e-21)
(1.3057 -0.277366 -8.57827e-21)
(0.238223 -0.0348558 1.78648e-20)
(0.689534 -0.137223 -1.60104e-20)
(1.05787 -0.253919 -1.32429e-20)
(1.28811 -0.329336 2.19395e-20)
(1.39121 -0.3583 7.17874e-21)
(1.41353 -0.355264 5.33778e-21)
(1.39841 -0.336281 -2.37901e-20)
(1.37174 -0.311642 -8.29699e-21)
(1.34482 -0.285468 -7.03167e-21)
(1.31951 -0.263793 2.80592e-21)
(0.216914 -0.0240412 -8.61051e-21)
(0.649059 -0.108059 -1.86313e-22)
(1.02141 -0.216832 2.49727e-20)
(1.26781 -0.293642 -8.93844e-21)
(1.38719 -0.328012 -3.93107e-21)
(1.42023 -0.330535 -2.52033e-21)
(1.4102 -0.315768 6.02774e-21)
(1.38511 -0.294126 1.00978e-20)
(1.35816 -0.270083 -4.96242e-22)
(1.33241 -0.249778 3.73244e-21)
(0.195218 -0.0148148 6.0252e-21)
(0.605266 -0.0814617 -1.68408e-21)
(0.978904 -0.181281 -4.4483e-21)
(1.24095 -0.258331 -3.97261e-21)
(1.37781 -0.297506 3.51497e-21)
(1.42326 -0.305448 2.73109e-21)
(1.41967 -0.294939 -2.48941e-21)
(1.39697 -0.276327 8.80824e-22)
(1.37041 -0.254407 1.25795e-21)
(1.34448 -0.235406 -1.66968e-21)
(0.173474 -0.0071913 3.09265e-21)
(0.558809 -0.0577237 8.99405e-22)
(0.930648 -0.147691 -5.40761e-21)
(1.20734 -0.223748 -4.38149e-21)
(1.36268 -0.266997 4.63252e-21)
(1.42226 -0.280127 9.35956e-22)
(1.4266 -0.273884 -2.21044e-21)
(1.40724 -0.258334 2.07808e-21)
(1.38156 -0.238539 1.19511e-21)
(1.35572 -0.220754 -1.40895e-21)
(0.152012 -0.00114523 -1.24452e-21)
(0.510417 -0.0370672 2.48823e-21)
(0.877087 -0.11647 1.6517e-20)
(1.16689 -0.190247 -7.62501e-21)
(1.3414 -0.23671 -3.7642e-21)
(1.41682 -0.254699 -4.40386e-21)
(1.43074 -0.252688 9.24574e-21)
(1.41582 -0.240222 6.66008e-21)
(1.39161 -0.222565 5.32497e-21)
(1.36615 -0.205894 2.90432e-21)
(0.131142 0.00338662 2.40466e-20)
(0.460876 -0.0196344 -1.33587e-20)
(0.818814 -0.0879944 -1.57545e-20)
(1.11959 -0.158186 2.20229e-20)
(1.31355 -0.206878 1.22303e-20)
(1.40648 -0.229287 -8.80497e-22)
(1.43176 -0.231422 -1.64548e-20)
(1.42254 -0.222052 -1.16549e-20)
(1.4005 -0.206556 -1.31046e-20)
(1.37575 -0.190894 8.36445e-21)
(0.111143 0.00650131 -3.23434e-20)
(0.410998 -0.00548004 3.05809e-20)
(0.756581 -0.0625971 3.63057e-20)
(1.06556 -0.127925 -3.77897e-20)
(1.27875 -0.177747 -1.36523e-20)
(1.39069 -0.204018 9.59882e-21)
(1.42923 -0.21015 1.7668e-20)
(1.42719 -0.203869 3.2106e-21)
(1.40817 -0.190567 -9.36167e-22)
(1.38453 -0.175813 -1.22424e-20)
(0.0922589 0.00832436 -4.46564e-21)
(0.361599 0.00543183 -4.27114e-20)
(0.691299 -0.0405552 -4.74916e-20)
(1.00508 -0.0998217 5.72247e-20)
(1.23667 -0.149579 -6.85344e-21)
(1.36888 -0.179031 1.45313e-20)
(1.42264 -0.188932 3.2246e-21)
(1.42947 -0.185707 -8.14431e-21)
(1.41451 -0.174636 4.55331e-21)
(1.39247 -0.160701 -1.91629e-21)
(0.0746902 0.00900322 9.20804e-21)
(0.313457 0.0132276 2.62664e-20)
(0.624019 -0.0220726 1.55762e-20)
(0.938645 -0.0742277 -1.24292e-20)
(1.18703 -0.122657 -2.22365e-20)
(1.3404 -0.154479 -2.23118e-20)
(1.41138 -0.167831 -4.99102e-21)
(1.42896 -0.167589 1.56678e-20)
(1.41932 -0.158792 -3.41492e-21)
(1.39952 -0.145595 7.34192e-21)
(0.0585908 0.00870049 -3.46445e-20)
(0.267289 0.0181177 -3.30825e-20)
(0.555905 -0.00726266 -5.86354e-21)
(0.866971 -0.0514769 -6.62343e-21)
(1.12972 -0.0972826 -1.7824e-20)
(1.30462 -0.13054 1.20173e-20)
(1.39472 -0.146919 -1.71741e-21)
(1.42513 -0.149536 -1.32808e-20)
(1.42235 -0.143046 1.24442e-20)
(1.40559 -0.130519 -2.31955e-20)
(0.0440661 0.0075871 7.98823e-21)
(0.223715 0.0203856 2.85003e-20)
(0.488177 0.00386824 2.70183e-20)
(0.791045 -0.0318736 3.1722e-20)
(1.06483 -0.0737828 -6.27834e-22)
(1.2609 -0.107424 3.65385e-20)
(1.37184 -0.126287 4.33981e-21)
(1.41733 -0.131566 -5.33939e-20)
(1.42321 -0.127402 4.14528e-20)
(1.41053 -0.115482 1.47745e-20)
(0.0311749 0.00583639 2.24358e-20)
(0.183242 0.0203718 5.17076e-20)
(0.422051 0.011433 -7.03123e-21)
(0.71212 -0.0156718 -4.0782e-20)
(0.992688 -0.0525024 2.00394e-20)
(1.20871 -0.0853846 -2.3892e-20)
(1.34182 -0.106057 -3.95925e-20)
(1.40472 -0.113709 -8.06148e-21)
(1.42136 -0.111857 -3.98582e-20)
(0.0199318 0.00361888 1.12965e-20)
(0.146246 0.0184549 9.7138e-21)
(0.358662 0.0156669 7.41345e-20)
(0.631687 -0.00304982 1.69027e-20)
(0.914007 -0.0337985 -1.68976e-20)
(1.1477 -0.0647196 -9.01511e-21)
(1.30372 -0.0863958 6.81709e-20)
(1.38632 -0.0960168 6.27771e-20)
(0.0103132 0.00109807 2.88156e-21)
(0.112972 0.0150311 -5.45446e-20)
(0.298993 0.0169157 -8.90318e-20)
(0.551398 0.00592 5.33457e-21)
(0.829897 -0.0180255 2.58909e-20)
(1.07776 -0.0457799 -3.84048e-20)
(1.25661 -0.0675281 -1.11416e-19)
(0.00226299 -0.00157343 -2.05925e-20)
(0.0835381 0.0104936 5.5443e-20)
(0.243828 0.0156081 5.59153e-20)
(0.472952 0.0112974 -6.32135e-20)
(0.741908 -0.00551159 9.01567e-21)
(-0.00430077 -0.00425774 -4.94967e-20)
(0.0579459 0.00521208 -8.62143e-20)
(0.193723 0.0122133 -1.86336e-20)
(0.397954 0.0132836 3.4886e-20)
(-0.00948155 -0.00683685 3.72336e-20)
(0.0360983 -0.000488762 3.21768e-22)
(0.14901 0.00719072 -9.0432e-21)
(-0.0134009 -0.0092191 -1.24847e-20)
(0.0178168 -0.00634946 -2.19187e-20)
(-0.0161972 -0.0113461 8.63475e-20)
(0.00285696 -0.0121934 6.81886e-20)
(-0.018026 -0.0132002 1.68619e-20)
(0.998606 -0.00437755 -1.35862e-22)
(0.998856 -0.0111188 6.15113e-22)
(0.992908 -0.0203629 3.04228e-22)
(0.990046 -0.0273042 1.43226e-22)
(0.980955 -0.038569 2.97397e-22)
(0.975854 -0.0475032 -1.28397e-21)
(0.964113 -0.0635053 -1.74968e-21)
(0.957845 -0.0769615 5.74874e-22)
(0.94467 -0.100811 1.82985e-21)
(0.939603 -0.120921 2.18357e-21)
(0.927589 -0.155833 3.73619e-21)
(0.92827 -0.182762 -9.3429e-22)
(0.922216 -0.232292 -5.3502e-21)
(0.935788 -0.260997 -1.30316e-21)
(0.947828 -0.335621 3.40808e-21)
(0.998652 -0.00423411 -7.78795e-22)
(0.998722 -0.0107566 2.9663e-22)
(0.992797 -0.0197238 -4.9862e-22)
(0.989607 -0.0263528 1.37127e-21)
(0.980449 -0.0372467 -1.23283e-21)
(0.974787 -0.0456989 1.4592e-22)
(0.962786 -0.0611487 1.8541e-21)
(0.955526 -0.0739026 -2.94946e-21)
(0.941701 -0.0970227 1.33371e-21)
(0.93487 -0.11631 -4.91003e-21)
(0.921501 -0.150591 5.59872e-21)
(0.919091 -0.177064 -5.82866e-21)
(0.91061 -0.226718 -7.99197e-22)
(0.918202 -0.256456 6.69087e-21)
(0.925059 -0.330665 -1.56701e-21)
(0.998696 -0.00409045 1.03459e-21)
(0.998602 -0.0103736 7.2987e-22)
(0.992709 -0.019038 8.89594e-22)
(0.989223 -0.025332 -6.70024e-22)
(0.980015 -0.035816 -7.0116e-22)
(0.973862 -0.0437563 2.62744e-21)
(0.961637 -0.0585882 -1.44855e-21)
(0.953522 -0.0705889 4.07338e-21)
(0.939105 -0.0928393 -2.52691e-21)
(0.930741 -0.111177 -1.24419e-21)
(0.91611 -0.144445 -1.73146e-21)
(0.910924 -0.170176 1.47145e-21)
(0.90016 -0.218923 4.05305e-21)
(0.902802 -0.249534 -1.12668e-20)
(0.904822 -0.321199 1.2305e-20)
(0.998738 -0.0039515 1.49511e-22)
(0.998491 -0.00999715 -1.20869e-21)
(0.992633 -0.0183608 -2.27271e-21)
(0.988874 -0.0243424 3.99236e-22)
(0.979628 -0.0344221 -7.87943e-23)
(0.97303 -0.0418883 7.48596e-22)
(0.960603 -0.0561053 2.2766e-21)
(0.951718 -0.0674005 -1.53571e-21)
(0.936758 -0.0887461 1.99153e-21)
(0.926989 -0.106166 -4.01715e-21)
(0.911181 -0.138227 2.71386e-21)
(0.903395 -0.163169 1.84081e-21)
(0.890373 -0.210396 4.46171e-21)
(0.888557 -0.241603 -7.68329e-21)
(0.885846 -0.31096 2.8837e-22)
(0.998779 -0.00380499 -1.31579e-21)
(0.998386 -0.0096178 -3.17593e-22)
(0.992567 -0.0176775 -3.16529e-22)
(0.988552 -0.0233536 1.77523e-21)
(0.979274 -0.0330158 3.29331e-23)
(0.972263 -0.0400156 -2.77171e-22)
(0.959654 -0.0535932 -1.60577e-21)
(0.950053 -0.0641901 -1.35085e-22)
(0.934594 -0.0845762 5.10256e-21)
(0.923504 -0.101081 -5.95556e-21)
(0.906593 -0.131797 1.9105e-21)
(0.896347 -0.155913 2.91806e-21)
(0.881096 -0.201334 9.48462e-22)
(0.875137 -0.232691 -4.37382e-21)
(0.867891 -0.299811 8.34092e-23)
(0.998818 -0.00365451 2.41546e-22)
(0.998288 -0.00922503 2.16839e-22)
(0.992506 -0.0169816 7.55028e-22)
(0.988249 -0.0223555 -9.88387e-22)
(0.978948 -0.0315825 2.80829e-22)
(0.971546 -0.0381193 -7.77929e-22)
(0.958776 -0.0510276 4.16473e-22)
(0.948496 -0.0609305 -1.78938e-21)
(0.932583 -0.0802977 3.46216e-21)
(0.920234 -0.0958867 -7.81901e-23)
(0.902288 -0.125123 -6.29059e-21)
(0.889717 -0.148348 4.00391e-22)
(0.872291 -0.191733 6.7561e-21)
(0.862439 -0.222813 1.42738e-22)
(0.850869 -0.287484 -7.83799e-21)
(0.998857 -0.00350073 2.10523e-22)
(0.998195 -0.00884568 -1.25551e-21)
(0.992452 -0.0162756 -9.45743e-22)
(0.987963 -0.0213513 1.13364e-21)
(0.978647 -0.0301263 -8.13149e-22)
(0.97087 -0.0362074 6.62023e-22)
(0.957959 -0.048418 -3.51912e-22)
(0.947029 -0.0576354 -4.02913e-22)
(0.930704 -0.0759268 2.6553e-21)
(0.917158 -0.0905971 -5.33691e-21)
(0.898237 -0.118235 4.29226e-21)
(0.883482 -0.140483 6.01847e-21)
(0.863959 -0.181637 -7.47894e-21)
(0.850442 -0.212064 -1.41013e-21)
(0.834763 -0.273987 -6.71384e-21)
(0.998894 -0.00334367 -1.18423e-22)
(0.998106 -0.00848608 7.81131e-22)
(0.992405 -0.0155608 -8.67091e-22)
(0.987692 -0.0203433 2.03004e-21)
(0.978368 -0.0286494 -2.1901e-21)
(0.970231 -0.0342832 -2.24377e-21)
(0.957199 -0.0457677 -5.60258e-22)
(0.945647 -0.0543086 2.68617e-22)
(0.928944 -0.0714703 -2.08969e-21)
(0.914268 -0.085215 2.37139e-21)
(0.894427 -0.111151 2.55075e-21)
(0.877633 -0.132327 -9.13715e-22)
(0.856108 -0.171087 -3.169e-21)
(0.839149 -0.200531 6.6148e-21)
(0.819586 -0.259391 -6.36881e-21)
(0.998929 -0.00318417 -5.14741e-22)
(0.998022 -0.00811917 4.87175e-21)
(0.992365 -0.0148364 1.12806e-22)
(0.987434 -0.0193324 1.01316e-21)
(0.978111 -0.0271523 -1.82925e-22)
(0.969625 -0.0323475 3.03023e-21)
(0.956491 -0.0430774 4.71637e-22)
(0.944345 -0.05095 4.66708e-23)
(0.927298 -0.0669319 -3.25286e-21)
(0.91156 -0.0797388 -5.90522e-22)
(0.890853 -0.103888 2.88531e-21)
(0.872169 -0.12389 -4.15305e-21)
(0.848754 -0.160117 -3.14519e-21)
(0.828574 -0.188285 3.75523e-21)
(0.805364 -0.243765 -3.23847e-21)
(0.998964 -0.003022 1.28461e-21)
(0.997942 -0.00774725 -2.73799e-21)
(0.992331 -0.0141034 1.47018e-21)
(0.98719 -0.0183194 -2.09614e-21)
(0.977875 -0.0256353 -7.76692e-22)
(0.969054 -0.030401 4.39553e-22)
(0.955831 -0.0403487 -1.60246e-21)
(0.943125 -0.0475598 2.82558e-21)
(0.925761 -0.0623168 1.53879e-21)
(0.909038 -0.0741686 -8.80102e-22)
(0.887517 -0.0964596 2.71317e-21)
(0.86709 -0.115185 -5.12494e-21)
(0.841909 -0.148754 8.93563e-21)
(0.818736 -0.175388 -6.25785e-21)
(0.792127 -0.227181 -3.19597e-21)
(0.998996 -0.00285704 -9.13878e-22)
(0.997867 -0.00737489 1.24041e-22)
(0.992302 -0.0133626 1.32148e-23)
(0.986959 -0.017305 1.94619e-21)
(0.977658 -0.0240994 4.86222e-22)
(0.968517 -0.0284444 -8.99216e-22)
(0.955219 -0.0375834 1.04269e-21)
(0.941988 -0.044138 -2.05806e-21)
(0.924331 -0.0576306 8.71593e-22)
(0.906701 -0.0685056 5.80396e-22)
(0.884421 -0.0888784 -2.67926e-21)
(0.8624 -0.106227 2.02949e-21)
(0.835586 -0.137025 5.36195e-21)
(0.809656 -0.161897 -2.62381e-21)
(0.77991 -0.209715 -7.13091e-21)
(0.999027 -0.00268948 -1.04318e-21)
(0.997797 -0.00700313 -2.2068e-22)
(0.992278 -0.0126141 -9.5181e-22)
(0.986742 -0.0162897 -2.83552e-21)
(0.977458 -0.0225453 1.37676e-21)
(0.968016 -0.0264781 -1.32686e-21)
(0.954653 -0.0347838 1.78672e-21)
(0.940935 -0.0406847 2.67374e-21)
(0.923009 -0.0528789 -1.75282e-21)
(0.904553 -0.062752 3.61236e-21)
(0.881571 -0.0811569 -1.94075e-21)
(0.858104 -0.0970345 -3.004e-21)
(0.829798 -0.12496 -1.91801e-21)
(0.801356 -0.147866 7.82625e-21)
(0.768744 -0.191446 -2.58222e-21)
(0.999056 -0.00251948 1.08241e-21)
(0.997731 -0.0066322 5.25344e-22)
(0.992257 -0.0118584 -7.56932e-23)
(0.986539 -0.0152736 1.13906e-21)
(0.977276 -0.020974 -1.82696e-21)
(0.967552 -0.0245021 -4.55422e-22)
(0.954131 -0.0319522 -4.14756e-23)
(0.939969 -0.0372001 -9.02597e-22)
(0.921795 -0.0480675 -2.67788e-21)
(0.902597 -0.0569111 -1.38571e-21)
(0.878972 -0.0733067 5.15525e-21)
(0.854207 -0.0876246 -8.00282e-22)
(0.824556 -0.112584 -8.42158e-22)
(0.793854 -0.133347 -7.05121e-22)
(0.75866 -0.172456 -3.36829e-21)
(0.999082 -0.00234721 6.56711e-22)
(0.997671 -0.00626167 -1.21451e-21)
(0.992239 -0.0110956 5.17784e-22)
(0.986353 -0.0142567 -1.4008e-21)
(0.977109 -0.0193865 -9.00234e-23)
(0.967126 -0.0225166 7.66881e-23)
(0.953654 -0.0290911 1.1348e-22)
(0.939092 -0.0336848 1.70447e-22)
(0.920692 -0.0432017 -1.25036e-21)
(0.900834 -0.0509875 1.61833e-21)
(0.87663 -0.0653393 -2.66425e-21)
(0.850716 -0.0780167 5.8758e-22)
(0.81987 -0.0999293 1.8285e-21)
(0.787166 -0.118392 -1.23841e-22)
(0.749682 -0.152826 2.28283e-21)
(0.999105 -0.00217297 -6.40477e-22)
(0.997617 -0.00589015 1.47439e-21)
(0.992222 -0.0103256 -9.27599e-22)
(0.986183 -0.0132386 1.14135e-21)
(0.976956 -0.0177837 6.33164e-22)
(0.96674 -0.0205214 -3.97629e-22)
(0.95322 -0.0262029 -7.19574e-23)
(0.938304 -0.0301395 -4.67118e-22)
(0.9197 -0.0382869 1.64124e-22)
(0.899266 -0.0449868 -1.40096e-21)
(0.87455 -0.0572659 6.56396e-22)
(0.847637 -0.0682308 -4.59297e-21)
(0.815748 -0.0870241 6.50351e-21)
(0.781308 -0.103052 -1.96803e-21)
(0.741835 -0.132638 -4.29254e-21)
(0.999125 -0.00199683 -2.99522e-22)
(0.99757 -0.00552274 -4.55589e-22)
(0.992205 -0.00954883 3.17237e-22)
(0.98603 -0.0122187 7.85628e-23)
(0.976817 -0.0161667 8.75676e-22)
(0.966395 -0.0185161 -3.15197e-22)
(0.95283 -0.02329 1.75678e-22)
(0.937607 -0.0265653 -7.40838e-23)
(0.918822 -0.033328 5.14647e-22)
(0.897897 -0.0389155 9.87895e-22)
(0.872738 -0.0490981 1.4496e-21)
(0.844975 -0.0582877 -2.40728e-21)
(0.812201 -0.0739003 1.07347e-21)
(0.77629 -0.0873791 -1.40985e-21)
(0.735137 -0.111976 -4.04985e-21)
(0.99914 -0.00181891 1.06224e-21)
(0.99753 -0.00516265 -1.24451e-22)
(0.992188 -0.00876583 4.97614e-22)
(0.985896 -0.0111966 4.28115e-22)
(0.97669 -0.0145366 -1.36648e-21)
(0.966091 -0.0165004 5.3122e-23)
(0.952483 -0.0203547 2.15989e-22)
(0.937002 -0.0229637 1.33414e-22)
(0.91806 -0.0283304 -5.12338e-22)
(0.896726 -0.0327813 4.67373e-22)
(0.871198 -0.0408483 2.22201e-21)
(0.842735 -0.0482095 -8.8935e-22)
(0.809235 -0.0605915 2.07703e-21)
(0.772121 -0.0714265 -4.59897e-21)
(0.729602 -0.0909231 5.84986e-21)
(0.99915 -0.0016397 -7.59665e-22)
(0.997498 -0.00480295 1.42849e-23)
(0.992171 -0.00797671 -4.43756e-22)
(0.98578 -0.0101713 -2.2334e-22)
(0.976575 -0.012894 4.88227e-22)
(0.965828 -0.0144736 -2.52676e-23)
(0.952181 -0.0173988 -8.92398e-22)
(0.936489 -0.0193362 5.17698e-22)
(0.917416 -0.023299 -2.34653e-22)
(0.895757 -0.0265938 2.09367e-22)
(0.869933 -0.0325298 7.70239e-22)
(0.840921 -0.0380174 2.38507e-22)
(0.806856 -0.0471275 -1.35695e-21)
(0.768809 -0.0552459 1.741e-22)
(0.725241 -0.0695603 -1.32307e-21)
(0.999156 -0.00145949 3.70553e-22)
(0.997474 -0.00444073 -2.57321e-23)
(0.992151 -0.007182 6.49247e-23)
(0.985683 -0.00914187 3.63712e-22)
(0.976472 -0.0112386 -6.64286e-23)
(0.965608 -0.0124327 -3.59691e-22)
(0.951922 -0.0144205 -2.29953e-22)
(0.936068 -0.0156796 2.78372e-22)
(0.916891 -0.0182303 -2.52523e-22)
(0.89499 -0.0203504 3.10167e-22)
(0.868947 -0.0241467 -8.00703e-22)
(0.839539 -0.0277248 4.56223e-22)
(0.80507 -0.0335205 -1.02753e-21)
(0.766356 -0.0388661 4.15038e-22)
(0.722061 -0.0479488 1.79047e-22)
(0.999156 -0.00127877 -6.61708e-23)
(0.99746 -0.00407813 6.50267e-23)
(0.99213 -0.00638278 -8.42403e-23)
(0.985606 -0.00810736 -1.20627e-22)
(0.976381 -0.00956976 1.13819e-22)
(0.96543 -0.0103733 1.8245e-22)
(0.951708 -0.0114137 1.27739e-22)
(0.935741 -0.0119834 -7.82422e-23)
(0.916488 -0.0131097 3.12523e-22)
(0.894425 -0.0140231 5.77768e-23)
(0.868243 -0.0156832 1.49959e-22)
(0.838594 -0.0173478 2.11915e-22)
(0.803884 -0.0198373 -2.52772e-24)
(0.764763 -0.0223547 -1.56669e-22)
(0.720055 -0.0261561 -2.63299e-23)
(1.00003 -0.000288925 0)
(1.00216 -0.000780649 0)
(1.00577 -0.00128018 0)
(1.01038 -0.00166898 0)
(1.01563 -0.00206006 0)
(1.02121 -0.00234111 0)
(1.02691 -0.00261588 0)
(1.03254 -0.00278178 0)
(1.03798 -0.00294635 0)
(1.04311 -0.00300852 0)
(1.04789 -0.00308626 0)
(1.05226 -0.00306526 0)
(1.05623 -0.00308637 0)
(1.05979 -0.00300145 0)
(1.06298 -0.00299805 0)
(1.00003 -0.000853024 0)
(1.00215 -0.00230377 0)
(1.00576 -0.00378033 0)
(1.01037 -0.0049302 0)
(1.01563 -0.00609015 0)
(1.02123 -0.00692555 0)
(1.02698 -0.00774631 0)
(1.03266 -0.00824505 0)
(1.03818 -0.00874239 0)
(1.04339 -0.00893449 0)
(1.04826 -0.00917352 0)
(1.0527 -0.0091169 0)
(1.05677 -0.00918536 0)
(1.0604 -0.00893664 0)
(1.0637 -0.00893003 0)
(1.00004 -0.00139114 0)
(1.00214 -0.00374532 0)
(1.00575 -0.00616015 0)
(1.01033 -0.00803762 0)
(1.01561 -0.00995026 0)
(1.02125 -0.0113286 0)
(1.02708 -0.0126998 0)
(1.03287 -0.0135373 0)
(1.03853 -0.0143853 0)
(1.04387 -0.0147202 0)
(1.04892 -0.015142 0)
(1.05351 -0.0150608 0)
(1.05777 -0.015197 0)
(1.06154 -0.0147897 0)
(1.06503 -0.0147991 0)
(1.00005 -0.00190492 0)
(1.00211 -0.00509769 0)
(1.00571 -0.00841933 0)
(1.01026 -0.0109923 0)
(1.01557 -0.0136561 0)
(1.02124 -0.015574 0)
(1.02719 -0.0175169 0)
(1.0331 -0.0187088 0)
(1.03896 -0.0199414 0)
(1.04449 -0.0204403 0)
(1.04979 -0.0210803 0)
(1.05459 -0.0209907 0)
(1.05912 -0.0212257 0)
(1.06309 -0.0206652 0)
(1.06687 -0.0207175 0)
(1.00006 -0.002395 0)
(1.00208 -0.00635583 0)
(1.00565 -0.0105574 0)
(1.01014 -0.0137944 0)
(1.01546 -0.0172156 0)
(1.02117 -0.0196738 0)
(1.02726 -0.022221 0)
(1.03332 -0.0237907 0)
(1.03942 -0.0254559 0)
(1.04518 -0.0261481 0)
(1.05079 -0.0270556 0)
(1.05587 -0.026979 0)
(1.06074 -0.0273557 0)
(1.06497 -0.0266479 0)
(1.06912 -0.0267795 0)