/*--------------------------------*- C++ -*----------------------------------*\
  =========                 |
  \\      /  F ield         | OpenFOAM: The Open Source CFD Toolbox
   \\    /   O peration     | Website:  https://openfoam.org
    \\  /    A nd           | Version:  7
     \\/     M anipulation  |
\*---------------------------------------------------------------------------*/
FoamFile
{
    version     2.0;
    format      ascii;
    class       volScalarField;
    location    "25";
    object      p;
}
// * * * * * * * * * * * * * * * * * * * * * * * * * * * * * * * * * * * * * //

dimensions      [0 2 -2 0 0 0 0];

internalField   nonuniform List<scalar> 
2125
(
0.866887
0.809548
0.777757
0.866887
0.809548
0.777757
0.749911
0.722646
0.694936
0.665915
0.635662
0.604676
0.573629
0.862405
0.805321
0.773743
0.74616
0.7192
0.691812
0.663112
0.633166
0.602448
0.571665
0.853472
0.796897
0.765743
0.738684
0.712329
0.685582
0.657523
0.628188
0.598004
0.567745
0.840149
0.784334
0.753811
0.727531
0.702077
0.676283
0.649177
0.620755
0.591367
0.561888
0.822527
0.76772
0.738031
0.712775
0.688507
0.663971
0.638122
0.610905
0.582569
0.554118
0.80073
0.747171
0.718509
0.694514
0.671705
0.648717
0.62442
0.59869
0.571657
0.544468
0.774905
0.722831
0.695379
0.672867
0.651775
0.630611
0.608144
0.584175
0.558683
0.532978
0.745231
0.694869
0.668801
0.647978
0.628841
0.60976
0.589386
0.567434
0.543712
0.519695
0.711911
0.66348
0.638956
0.620009
0.603047
0.586285
0.568248
0.548553
0.526815
0.50467
0.675172
0.628881
0.606048
0.589146
0.574554
0.560324
0.544844
0.527627
0.508071
0.487958
0.635266
0.591313
0.570301
0.555591
0.543538
0.532028
0.519301
0.504762
0.487568
0.46962
0.592464
0.551034
0.53196
0.519564
0.510194
0.501561
0.491757
0.480071
0.465396
0.449715
0.547057
0.508324
0.491285
0.481302
0.474728
0.469103
0.462362
0.453676
0.441656
0.428306
0.499351
0.463475
0.448553
0.441057
0.437362
0.434842
0.431273
0.425706
0.41645
0.405454
0.449669
0.416794
0.404053
0.399093
0.39833
0.398981
0.398662
0.396302
0.389891
0.381223
0.398344
0.368599
0.358084
0.355684
0.357877
0.361732
0.364708
0.365611
0.362105
0.355678
0.345719
0.319216
0.310957
0.311114
0.316255
0.323317
0.329602
0.333797
0.333236
0.328878
0.292142
0.268976
0.262986
0.265675
0.273728
0.283968
0.293549
0.301029
0.303412
0.300818
0.237966
0.218214
0.214487
0.219662
0.230562
0.243925
0.256762
0.267466
0.272723
0.271405
0.183541
0.167262
0.165779
0.173371
0.187029
0.203437
0.219473
0.23332
0.241778
0.241885
0.129216
0.116448
0.117177
0.127096
0.143398
0.162748
0.181923
0.198934
0.212525
0.220094
0.075333
0.0660952
0.0689874
0.0811276
0.0999313
0.122078
0.14428
0.164254
0.181593
0.195238
0.0222236
0.0165119
0.0215092
0.0357463
0.0568852
0.081644
0.106704
0.129477
0.14971
0.167931
-0.0297938
-0.0320042
-0.0249713
-0.00877468
0.0145143
0.0416761
0.0693946
0.0948668
0.117734
0.139576
-0.080441
-0.0791558
-0.0701812
-0.0521736
-0.0269333
0.00240828
0.0325697
0.0606184
0.0860211
0.110809
-0.12944
-0.124677
-0.113866
-0.0942045
-0.0672191
-0.0359339
-0.00356043
0.0268955
0.0547113
0.0820698
-0.176473
-0.168365
-0.15579
-0.134643
-0.106119
-0.0731366
-0.0387946
-0.00613122
0.0239368
0.0536325
-0.22133
-0.209981
-0.195738
-0.173253
-0.143446
-0.109001
-0.0729433
-0.0382908
-0.00615388
0.0256845
-0.263805
-0.249328
-0.233526
-0.209871
-0.178981
-0.14335
-0.105832
-0.0694234
-0.0354241
-0.00161292
-0.303713
-0.286243
-0.268992
-0.244329
-0.212574
-0.176008
-0.137304
-0.0993859
-0.0637692
-0.0280989
-0.3409
-0.320592
-0.302002
-0.276489
-0.244082
-0.206834
-0.167215
-0.128052
-0.0910938
-0.0535971
-0.37524
-0.352266
-0.332453
-0.30624
-0.273386
-0.235705
-0.195445
-0.15529
-0.117012
-0.0782651
-0.406642
-0.381192
-0.360269
-0.3335
-0.300393
-0.262518
-0.221888
-0.181022
-0.141764
-0.102541
-0.435044
-0.407322
-0.385406
-0.358216
-0.325036
-0.287196
-0.246458
-0.205159
-0.165156
-0.125359
-0.460417
-0.430641
-0.407848
-0.380364
-0.347277
-0.309684
-0.269088
-0.227621
-0.187112
-0.146828
-0.482763
-0.451162
-0.427607
-0.399945
-0.367101
-0.329949
-0.289731
-0.248357
-0.207608
-0.167057
-0.502112
-0.468923
-0.444723
-0.41699
-0.384522
-0.347985
-0.308364
-0.267334
-0.226606
-0.186034
-0.518523
-0.483992
-0.459261
-0.431554
-0.399577
-0.363808
-0.324983
-0.284532
-0.244073
-0.203726
-0.532081
-0.496454
-0.471307
-0.443715
-0.412325
-0.377455
-0.339602
-0.299949
-0.259991
-0.220117
-0.542892
-0.50642
-0.480969
-0.453571
-0.42285
-0.388986
-0.352258
-0.3136
-0.274362
-0.235208
-0.551087
-0.514016
-0.488371
-0.46124
-0.431253
-0.398479
-0.363003
-0.325515
-0.287198
-0.249014
-0.55681
-0.519383
-0.493654
-0.466854
-0.437651
-0.40603
-0.371907
-0.335741
-0.298529
-0.261559
-0.560221
-0.522673
-0.496967
-0.470559
-0.442177
-0.411752
-0.379059
-0.344339
-0.308395
-0.272883
-0.561491
-0.52405
-0.49847
-0.472508
-0.444974
-0.415769
-0.384558
-0.351386
-0.316851
-0.283037
-0.5608
-0.523679
-0.498327
-0.472861
-0.446193
-0.418215
-0.388517
-0.356969
-0.323964
-0.292083
-0.558331
-0.521731
-0.496704
-0.471782
-0.44599
-0.419234
-0.391056
-0.361185
-0.32981
-0.300094
-0.554269
-0.518375
-0.493768
-0.469435
-0.444523
-0.41897
-0.392304
-0.364139
-0.334471
-0.307147
-0.548796
-0.513779
-0.489681
-0.46598
-0.44195
-0.417574
-0.392393
-0.36594
-0.338038
-0.313328
-0.542092
-0.508105
-0.4846
-0.461574
-0.438424
-0.415191
-0.391454
-0.3667
-0.340602
-0.534327
-0.501508
-0.478677
-0.456367
-0.434095
-0.411965
-0.389618
-0.36653
-0.525664
-0.494135
-0.472052
-0.450498
-0.429102
-0.408032
-0.387011
-0.516255
-0.486121
-0.464858
-0.4441
-0.423577
-0.506238
-0.477594
-0.457216
-0.437291
-0.49574
-0.468667
-0.449233
-0.484877
-0.459443
-0.473751
-0.450017
-0.462457
0.245833
0.248522
0.254278
0.262146
0.272087
0.283646
0.296404
0.309749
0.322679
0.33409
0.341945
0.344799
0.338296
0.323942
0.287921
0.246484
0.249206
0.25506
0.263076
0.273246
0.285145
0.298404
0.312489
0.326489
0.339443
0.349438
0.355259
0.352694
0.343244
0.315468
0.247093
0.249811
0.255703
0.263782
0.274061
0.286136
0.299679
0.314219
0.328927
0.342978
0.354593
0.362805
0.363655
0.358499
0.337644
0.247675
0.250394
0.256328
0.264479
0.274882
0.287155
0.30101
0.316039
0.331488
0.346662
0.359909
0.370454
0.374612
0.373468
0.359006
0.248229
0.250955
0.256937
0.265169
0.275705
0.288189
0.302368
0.317898
0.334096
0.350382
0.365234
0.378024
0.385369
0.388041
0.379436
0.248752
0.251485
0.257516
0.265825
0.276489
0.289172
0.303659
0.31966
0.336564
0.353896
0.370263
0.385158
0.395525
0.40183
0.398623
0.249244
0.251984
0.258061
0.266442
0.277225
0.290094
0.304868
0.321309
0.338872
0.357181
0.37497
0.391834
0.405049
0.414818
0.416616
0.249704
0.252453
0.258571
0.26702
0.277915
0.290959
0.306
0.322853
0.341034
0.360254
0.379378
0.398082
0.413964
0.427027
0.433461
0.250131
0.252889
0.259047
0.267559
0.278558
0.291765
0.307057
0.324293
0.343049
0.363115
0.383484
0.403898
0.422263
0.438437
0.449159
0.250524
0.253292
0.259494
0.268059
0.279154
0.292512
0.308035
0.325624
0.344913
0.365759
0.387278
0.409272
0.429926
0.449015
0.463696
0.250884
0.253661
0.259909
0.268517
0.2797
0.293196
0.308932
0.326845
0.34662
0.368178
0.390751
0.414193
0.436942
0.458734
0.477049
0.25121
0.253994
0.260237
0.268932
0.280195
0.293817
0.309745
0.32795
0.348167
0.37037
0.393897
0.418652
0.443297
0.467565
0.489192
0.2515
0.254293
0.260575
0.269304
0.280639
0.294372
0.310473
0.32894
0.349551
0.372329
0.396709
0.422641
0.44898
0.475485
0.500092
0.251756
0.254556
0.260869
0.269631
0.281029
0.294862
0.311113
0.32981
0.350769
0.374052
0.399183
0.426152
0.453979
0.482468
0.509717
0.251975
0.254782
0.261117
0.269912
0.281366
0.295283
0.311665
0.33056
0.351818
0.375535
0.401313
0.429176
0.458286
0.488494
0.518035
0.252158
0.254972
0.261324
0.270147
0.281647
0.295636
0.312128
0.331187
0.352696
0.376776
0.403094
0.431707
0.46189
0.493544
0.525016
0.252305
0.255124
0.261491
0.270336
0.281873
0.295919
0.312499
0.331691
0.3534
0.377772
0.404524
0.433739
0.464783
0.497603
0.530634
0.252416
0.255238
0.261616
0.270479
0.282043
0.296132
0.312778
0.33207
0.35393
0.378521
0.405598
0.435267
0.466959
0.500659
0.534868
0.25249
0.255314
0.261699
0.270574
0.282157
0.296275
0.312964
0.332323
0.354284
0.379021
0.406316
0.436288
0.468413
0.502701
0.5377
0.252527
0.255352
0.261741
0.270621
0.282214
0.296346
0.313058
0.332449
0.354461
0.379272
0.406675
0.436799
0.469141
0.503723
0.539118
0.17833
0.176078
0.171753
0.165823
0.158728
0.150823
0.142409
0.133749
0.125071
0.116557
0.108348
0.100543
0.0932085
0.0863776
0.0800669
0.179019
0.176791
0.172492
0.166588
0.159509
0.151603
0.143166
0.134461
0.125718
0.117124
0.108824
0.100923
0.0934887
0.0865597
0.0801574
0.180304
0.178113
0.173868
0.168017
0.160974
0.15307
0.144593
0.135807
0.126946
0.118204
0.109734
0.101649
0.0940266
0.0869081
0.0803227
0.182088
0.179952
0.175787
0.170022
0.163039
0.155146
0.146624
0.137733
0.128712
0.119764
0.111054
0.102708
0.0948156
0.0874254
0.0805798
0.184288
0.182223
0.178169
0.172524
0.165631
0.157772
0.149209
0.1402
0.130987
0.121785
0.112775
0.104097
0.0958583
0.0881173
0.0809332
0.186823
0.184847
0.180938
0.175453
0.16869
0.160894
0.152307
0.143179
0.133755
0.124262
0.114898
0.105824
0.0971663
0.0889974
0.081399
0.189623
0.187753
0.184025
0.178745
0.172159
0.164467
0.155886
0.146651
0.137008
0.127196
0.117434
0.107904
0.0987581
0.0900852
0.0819951
0.192622
0.190878
0.187368
0.182342
0.175984
0.168448
0.159914
0.150598
0.140743
0.130597
0.1204
0.110361
0.100659
0.0914054
0.0827441
0.195763
0.194162
0.190908
0.186188
0.180119
0.172799
0.164365
0.155009
0.14496
0.134477
0.123818
0.113221
0.102898
0.0929877
0.0836722
0.198992
0.197552
0.194594
0.190232
0.184514
0.177479
0.169213
0.15987
0.149663
0.138852
0.127714
0.116518
0.105512
0.0948669
0.0848099
0.202264
0.201002
0.198375
0.194424
0.189126
0.182452
0.174429
0.165167
0.154852
0.143738
0.132118
0.120289
0.108541
0.0970828
0.0861916
0.205538
0.204468
0.202208
0.19872
0.193909
0.187677
0.179984
0.170885
0.160528
0.149152
0.137058
0.124574
0.11203
0.0996801
0.0878561
0.208778
0.207913
0.206052
0.203076
0.19882
0.193114
0.185845
0.177003
0.166686
0.155107
0.142567
0.129416
0.116027
0.102709
0.0898466
0.211955
0.211307
0.209872
0.207452
0.203816
0.198721
0.191977
0.183499
0.17332
0.161615
0.148671
0.134857
0.120585
0.106224
0.0922114
0.215045
0.21462
0.213636
0.211811
0.208856
0.204456
0.198341
0.190341
0.180416
0.168682
0.155398
0.140943
0.125759
0.110286
0.095004
0.218026
0.217832
0.217316
0.216119
0.213901
0.210276
0.204895
0.197498
0.187953
0.176308
0.162769
0.147716
0.131606
0.114961
0.0982832
0.220884
0.220923
0.220889
0.220346
0.218912
0.216138
0.211593
0.204927
0.195903
0.184484
0.170801
0.155217
0.138184
0.12032
0.102114
0.223606
0.223879
0.224334
0.224464
0.223855
0.222
0.218391
0.212585
0.204234
0.193195
0.179502
0.163482
0.145552
0.12644
0.106566
0.226183
0.226689
0.227636
0.22845
0.228697
0.227819
0.225239
0.220423
0.212901
0.202415
0.188872
0.172542
0.153767
0.133401
0.111715
0.228611
0.229346
0.230783
0.232286
0.23341
0.233556
0.232089
0.228386
0.221855
0.212109
0.1989
0.182418
0.162879
0.141288
0.11764
0.230887
0.231845
0.233764
0.235954
0.237968
0.239176
0.238893
0.23642
0.23104
0.222232
0.209563
0.193124
0.172936
0.150186
0.124423
0.23301
0.234184
0.236576
0.239442
0.242349
0.244644
0.245606
0.244468
0.240396
0.232728
0.220827
0.204658
0.183976
0.160182
0.13215
0.234983
0.236364
0.239213
0.242742
0.246536
0.24993
0.252183
0.252471
0.249854
0.243532
0.232643
0.217004
0.196024
0.171354
0.1409
0.236807
0.238387
0.241675
0.245847
0.250515
0.25501
0.258584
0.260375
0.259347
0.25457
0.244948
0.230129
0.209092
0.183764
0.150746
0.238489
0.240256
0.243965
0.248755
0.254274
0.259862
0.264774
0.268127
0.268807
0.265769
0.257678
0.243996
0.223199
0.197497
0.161784
0.240033
0.241977
0.246084
0.251466
0.257811
0.264473
0.270727
0.275686
0.27818
0.277064
0.27078
0.258582
0.238399
0.212701
0.17423
0.241446
0.243556
0.24804
0.253984
0.261123
0.268832
0.27642
0.28301
0.2874
0.288366
0.284149
0.273781
0.254626
0.229344
0.188163
0.242734
0.244996
0.24983
0.256301
0.264191
0.272902
0.281784
0.289982
0.296282
0.299398
0.297395
0.289061
0.271222
0.246432
0.202361
0.243901
0.246299
0.251447
0.258397
0.266975
0.276612
0.286702
0.296423
0.304562
0.309789
0.31002
0.303798
0.287502
0.262986
0.215093
0.244966
0.247494
0.252938
0.260336
0.269571
0.280113
0.291427
0.302757
0.312944
0.320697
0.32387
0.320886
0.307777
0.285829
0.236273
0.0759267
0.0737687
0.0716117
0.0694504
0.0672825
0.0651093
0.0629325
0.0607535
0.0585736
0.056394
0.054216
0.0520409
0.0498701
0.0477046
0.0455459
0.0433951
0.0412534
0.0391224
0.0370029
0.034896
0.0759545
0.0737842
0.07162
0.0694501
0.0672696
0.0650801
0.0628839
0.0606826
0.0584774
0.0562696
0.0540609
0.0518526
0.0496462
0.0474433
0.0452453
0.0430537
0.0408702
0.0386962
0.0365331
0.0343824
0.0759761
0.0737497
0.0715425
0.0693306
0.0671046
0.0648667
0.0626201
0.0603667
0.058108
0.0558455
0.0535806
0.0513152
0.0490509
0.0467892
0.044532
0.0422808
0.0400372
0.0378034
0.0355803
0.0333697
0.0760294
0.0737147
0.0714388
0.0691614
0.0668661
0.0645558
0.0622351
0.0599062
0.0575706
0.0552296
0.0528852
0.0505391
0.0481931
0.0458489
0.0435085
0.0411734
0.0388454
0.0365281
0.034221
0.0319261
0.0761145
0.0736768
0.0713043
0.0689356
0.0665453
0.0641369
0.0617168
0.0592875
0.0568505
0.0544073
0.0519598
0.0495099
0.0470596
0.0446107
0.0421653
0.0397251
0.0372922
0.0348689
0.0324565
0.030057
0.0762545
0.0736607
0.0711639
0.0686788
0.0661683
0.0636366
0.0610922
0.0585381
0.0559756
0.0534064
0.0508323
0.0482555
0.0456779
0.0431016
0.0405287
0.0379613
0.0354017
0.0328498
0.0303102
0.0277844
0.0764675
0.0736825
0.071032
0.0684037
0.0657462
0.0630646
0.0603696
0.057665
0.0549518
0.0522316
0.0495065
0.0467785
0.0440499
0.0413228
0.0385992
0.0358813
0.0331714
0.030471
0.0277828
0.0251087
0.0767778
0.0737653
0.0709292
0.0681289
0.0652962
0.0624367
0.0595636
0.0566813
0.0537908
0.0508936
0.0479918
0.0450876
0.0421832
0.0392808
0.0363826
0.0334907
0.0306076
0.0277348
0.0248749
0.0220301
0.0772121
0.0739325
0.0708758
0.0678722
0.0648337
0.0617657
0.0586847
0.0555957
0.0524994
0.0493973
0.0462915
0.0431842
0.0400777
0.0369743
0.033876
0.0307852
0.0277043
0.024635
0.0215796
0.0185404
0.0778008
0.0742112
0.0708945
0.0676531
0.0643753
0.0610657
0.0577443
0.054417
0.0510843
0.0477472
0.044408
0.0410689
0.0377323
0.0344003
0.0310751
0.0277589
0.0244544
0.021163
0.0178869
0.0146286
0.0785779
0.0746308
0.0710099
0.0674921
0.0639381
0.0603506
0.0567533
0.0531532
0.0495505
0.0459458
0.0423415
0.0387397
0.0351428
0.0315528
0.0279719
0.0244022
0.020847
0.0173065
0.0137834
0.0102799
0.0795813
0.0752239
0.0712488
0.0674116
0.0635404
0.0596348
0.0557224
0.0518116
0.0479021
0.0439943
0.0400902
0.0361922
0.0323023
0.0284226
0.0245551
0.0207016
0.0168668
0.0130489
0.00925062
0.00547464
0.0808536
0.0760268
0.0716405
0.0674355
0.0632018
0.0589333
0.0546624
0.0503992
0.0461427
0.041893
0.0376518
0.0334213
0.0292036
0.0250008
0.0208142
0.0166447
0.0125028
0.00837745
0.00427319
0.000194974
0.0824422
0.0770794
0.0722171
0.0675899
0.0629427
0.0582615
0.0535838
0.0489217
0.0442735
0.0396386
0.0350184
0.0304147
0.0258291
0.021263
0.0167142
0.0121791
0.00771298
0.00325483
-0.00118359
-0.00559198
0.0844005
0.0784267
0.0730145
0.0679037
0.0627861
0.0576366
0.0524986
0.0473867
0.0422987
0.0372331
0.0321911
0.0271747
0.0221854
0.0172247
0.0122979
0.00741326
0.00251389
-0.00233315
-0.00713638
-0.0119043
0.0867882
0.0801191
0.074072
0.068408
0.0627555
0.0570748
0.0514156
0.0457956
0.0402118
0.0346616
0.0291456
0.0236654
0.0182217
0.0128155
0.00744818
0.00212374
-0.00316861
-0.00841587
-0.0136192
-0.0187804
0.0896738
0.0822146
0.0754358
0.0691397
0.0628801
0.0565975
0.0503493
0.044157
0.0380166
0.0319243
0.0258802
0.0198853
0.0139403
0.00804546
0.00220119
-0.00358733
-0.00933059
-0.0150226
-0.020662
-0.0262492
0.0931352
0.0847799
0.0771584
0.0701404
0.0631916
0.056227
0.049313
0.0424756
0.0357098
0.0290102
0.0223764
0.0158089
0.00930812
0.0028732
-0.00349675
-0.0097897
-0.0160271
-0.0222024
-0.0283119
-0.0343563
0.0972616
0.0878924
0.079301
0.0714588
0.0637279
0.0559907
0.0483236
0.0407589
0.03329
0.02591
0.0186174
0.0114125
0.00429465
-0.00273996
-0.00969671
-0.0165292
-0.0233011
-0.029999
-0.0366139
-0.0431471
0.102156
0.0916426
0.0819356
0.0731528
0.0645343
0.0559214
0.0474023
0.0390168
0.0307572
0.0226144
0.0145864
0.00667276
-0.0011283
-0.00882181
-0.0164114
-0.023857
-0.0312143
-0.0384717
-0.0456251
-0.0526773
0.107934
0.0961355
0.0851466
0.0752909
0.0656653
0.0560592
0.0465753
0.0372625
0.028112
0.0191127
0.0102622
0.00156034
-0.0069943
-0.0153982
-0.0236334
-0.031806
-0.0398147
-0.047675
-0.055404
-0.0630064
0.114731
0.101492
0.0890328
0.0779551
0.0671875
0.0564547
0.0458771
0.0355151
0.0253582
0.0153929
0.00561653
-0.00397106
-0.0133722
-0.0225893
-0.0316005
-0.0404729
-0.0491664
-0.0576809
-0.0660261
-0.0742084
0.122693
0.107849
0.0937076
0.0812427
0.0691818
0.0571713
0.0453539
0.0338045
0.0225102
0.0114552
0.000637101
-0.00994316
-0.0202908
-0.0304169
-0.0402358
-0.0498937
-0.0593451
-0.0685681
-0.0775706
-0.0863628
0.131971
0.115347
0.099295
0.0852648
0.071743
0.0582847
0.0450632
0.0321699
0.0195891
0.00730303
-0.00469054
-0.0163948
-0.0278395
-0.0390715
-0.0497176
-0.0602199
-0.0704767
-0.080448
-0.0901422
-0.0995685
0.142718
0.124123
0.105924
0.0901444
0.0749795
0.0598853
0.0450769
0.0306639
0.0166285
0.00295448
-0.0103538
-0.0232879
-0.0358212
-0.0478616
-0.0599166
-0.071478
-0.0826159
-0.093396
-0.103829
-0.113918
0.155132
0.134338
0.113747
0.0960274
0.079018
0.0620798
0.0454814
0.0293484
0.0136583
-0.00160251
-0.0164233
-0.0307999
-0.0447421
-0.0580797
-0.0711528
-0.0837594
-0.0958781
-0.107539
-0.118752
-0.129522
0.16938
0.146138
0.1229
0.103024
0.0839341
0.0649226
0.0463187
0.0282534
0.0106993
-0.00635093
-0.0228889
-0.0389711
-0.0547153
-0.0691719
-0.0834344
-0.0972016
-0.110379
-0.122981
-0.135013
-0.146478
0.185326
0.159646
0.133676
0.111472
0.09005
0.0687179
0.0478702
0.0276274
0.00796565
-0.0111013
-0.0295367
-0.0472621
-0.0639977
-0.0808649
-0.0967628
-0.111823
-0.126162
-0.139784
-0.152676
-0.164838
0.202661
0.175108
0.146859
0.122259
0.0981753
0.0741807
0.0507253
0.0279144
0.00574824
-0.0157339
-0.0364949
-0.0565014
-0.0753507
-0.0937865
-0.111275
-0.127805
-0.143419
-0.158107
-0.171853
-0.184651
0.215934
0.185445
0.15597
0.129306
0.102872
0.0766194
0.0508959
0.025782
0.00132172
-0.0224288
-0.0454701
-0.067805
-0.0883854
-0.108401
-0.127455
-0.145424
-0.162296
-0.178044
-0.192645
-0.206084
0.0328031
0.0307251
0.0286634
0.0266187
0.0245923
0.0225851
0.0205981
0.0186321
0.0166881
0.0322456
0.030124
0.0280191
0.0259322
0.0238646
0.0218175
0.0197922
0.0177897
0.0158112
0.0311733
0.0289926
0.0268291
0.0246842
0.0225594
0.020456
0.0183753
0.0163186
0.014287
0.0296456
0.0273813
0.0251347
0.0229075
0.0207011
0.0185172
0.016357
0.014222
0.0121134
0.0276724
0.0253043
0.0229547
0.0206251
0.0183173
0.0160328
0.0137731
0.0115397
0.009334
0.0252739
0.0227806
0.0203065
0.0178532
0.0154225
0.0130162
0.0106357
0.00828265
0.00595842
0.0224508
0.0198108
0.0171909
0.0145927
0.0120182
0.00946893
0.00694668
0.00445297
0.00198928
0.0192022
0.0163934
0.0136055
0.0108405
0.00810019
0.00538635
0.00270064
4.46453e-05
-0.00258012
0.0155193
0.0125185
0.00953992
0.00658543
0.00365689
0.000756046
-0.00211542
-0.0049559
-0.00776391
0.01139
0.00817313
0.00497997
0.00181238
-0.00132783
-0.00443892
-0.00751926
-0.0105673
-0.0135815
0.00679808
0.00333994
-9.26918e-05
-0.003498
-0.00687424
-0.0102198
-0.013533
-0.0168124
-0.0200567
0.00172296
-0.00200268
-0.00570059
-0.00936907
-0.0130065
-0.0166114
-0.0201823
-0.0237178
-0.00385519
-0.00787614
-0.0118665
-0.0158248
-0.0197497
-0.0236398
-0.0274939
-0.031311
-0.00996816
-0.0143115
-0.0186211
-0.0228955
-0.0271338
-0.0313348
-0.0354976
-0.0396216
-0.0166369
-0.0213323
-0.0259894
-0.0306072
-0.0351854
-0.0397233
-0.0442205
-0.0486768
-0.023899
-0.0289743
-0.0340057
-0.038993
-0.0439362
-0.0488354
-0.053691
-0.0585033
-0.0317846
-0.0372684
-0.042701
-0.0480829
-0.0534149
-0.058698
-0.0639336
-0.0691231
-0.0403373
-0.0462562
-0.0521141
-0.0579126
-0.0636536
-0.0693392
-0.0749721
-0.0805552
-0.0496018
-0.0559803
-0.0622849
-0.0685184
-0.0746839
-0.0807852
-0.0868265
-0.0928128
-0.0596316
-0.0664912
-0.0732595
-0.0799409
-0.0865401
-0.0930626
-0.0995147
-0.105904
-0.0704851
-0.077844
-0.0850884
-0.0922241
-0.0992578
-0.106197
-0.113052
-0.119831
-0.0822326
-0.0901042
-0.0978299
-0.105417
-0.112876
-0.120215
-0.127448
-0.134587
-0.0949515
-0.103344
-0.111548
-0.119575
-0.127435
-0.135141
-0.142709
-0.150156
-0.108733
-0.117645
-0.126314
-0.134752
-0.142972
-0.150991
-0.158828
-0.166505
-0.123668
-0.133089
-0.142193
-0.150994
-0.15951
-0.167761
-0.175769
-0.183563
-0.139854
-0.149759
-0.159252
-0.168348
-0.177067
-0.185435
-0.19348
-0.201235
-0.157382
-0.167736
-0.177557
-0.186863
-0.195681
-0.204039
-0.211974
-0.219528
-0.176278
-0.187009
-0.197052
-0.206432
-0.215183
-0.223349
-0.230978
-0.23813
-0.196507
-0.207433
-0.217453
-0.2266
-0.234919
-0.242468
-0.249319
-0.255557
-0.218358
-0.229473
-0.239446
-0.24831
-0.256107
-0.262897
-0.268756
-0.273772
)
;

boundaryField
{
    inlet
    {
        type            zeroGradient;
    }
    outlet
    {
        type            fixedValue;
        value           nonuniform 0();
    }
    cylinder
    {
        type            zeroGradient;
    }
    top
    {
        type            symmetryPlane;
    }
    bottom
    {
        type            symmetryPlane;
    }
    defaultFaces
    {
        type            empty;
    }
    procBoundary0to1
    {
        type            processor;
        value           nonuniform List<scalar> 
50
(
-0.318716
-0.318716
-0.342253
-0.342253
-0.365535
-0.403524
-0.365535
-0.383753
-0.403524
-0.417642
-0.417642
-0.43018
-0.43018
-0.441009
-0.441009
-0.432629
-0.44047
-0.44047
-0.451081
0.014767
0.0138578
0.0122817
0.0100325
0.00715722
0.00366439
-0.000442983
-0.00517223
-0.010538
-0.0165606
-0.0232645
-0.0272167
-0.0272167
-0.0350899
-0.043706
-0.053092
-0.0632731
-0.0742685
-0.0860922
-0.0987497
-0.112239
-0.126547
-0.141648
-0.157502
-0.174048
-0.191174
-0.208742
-0.22675
-0.244872
-0.261281
-0.278054
)
;
    }
    procBoundary0to2
    {
        type            processor;
        value           nonuniform List<scalar> 
26
(
0.862405
0.805321
0.773743
0.749911
0.749911
0.722646
0.694936
0.665915
0.635662
0.604676
0.573629
0.252527
0.255352
0.261741
0.270621
0.282214
0.296346
0.313058
0.332449
0.354461
0.379272
0.406675
0.436799
0.469141
0.503723
0.539118
)
;
    }
}


// ************************************************************************* //
