/*--------------------------------*- C++ -*----------------------------------*\
  =========                 |
  \\      /  F ield         | OpenFOAM: The Open Source CFD Toolbox
   \\    /   O peration     | Website:  https://openfoam.org
    \\  /    A nd           | Version:  7
     \\/     M anipulation  |
\*---------------------------------------------------------------------------*/
FoamFile
{
    version     2.0;
    format      ascii;
    class       volVectorField;
    location    "25";
    object      U;
}
// * * * * * * * * * * * * * * * * * * * * * * * * * * * * * * * * * * * * * //

dimensions      [0 1 -1 0 0 0 0];

internalField   nonuniform List<vector> 
2125
(
(0.00620009 0.005362 1.06903e-21)
(0.0350296 0.012818 -3.13088e-21)
(0.0904453 0.0175619 -3.68307e-21)
(0.00620009 -0.005362 -1.06903e-21)
(0.0350296 -0.012818 3.13088e-21)
(0.0904453 -0.0175619 3.68307e-21)
(0.158066 -0.0201586 -3.71022e-21)
(0.231775 -0.0210751 3.45978e-21)
(0.306781 -0.02078 1.84778e-21)
(0.379493 -0.0197038 -3.14747e-21)
(0.447766 -0.0182011 -3.88765e-21)
(0.510546 -0.0165367 6.14925e-22)
(0.567496 -0.0148728 -1.82068e-21)
(0.00702261 -0.016039 1.16294e-21)
(0.036948 -0.0383503 -3.73507e-21)
(0.092995 -0.0525548 8.70346e-21)
(0.16092 -0.0603378 -8.03239e-21)
(0.234697 -0.0630931 -3.90426e-22)
(0.309612 -0.0622204 -6.01958e-21)
(0.38214 -0.0590063 1.04311e-20)
(0.450185 -0.0545121 1.51139e-20)
(0.51273 -0.0495306 2.87967e-21)
(0.569453 -0.0445485 -6.52925e-21)
(0.00865806 -0.0265757 -1.01421e-21)
(0.0407644 -0.0635719 -7.94932e-21)
(0.0980693 -0.0871561 -1.91323e-20)
(0.166603 -0.100104 1.74048e-20)
(0.240516 -0.104716 3.8394e-21)
(0.315253 -0.103302 3.6047e-21)
(0.387419 -0.097994 -1.87555e-20)
(0.455009 -0.0905505 -1.17306e-20)
(0.517087 -0.0822871 -2.78933e-21)
(0.573359 -0.0740149 2.01777e-20)
(0.0110873 -0.0368802 -3.62e-21)
(0.0464379 -0.0882794 4.79691e-21)
(0.105618 -0.121109 3.491e-20)
(0.175063 -0.139187 -3.25759e-21)
(0.249187 -0.145683 -9.92965e-21)
(0.323665 -0.14379 7.6223e-21)
(0.395294 -0.13646 5.48055e-22)
(0.46221 -0.126136 3.05456e-21)
(0.523595 -0.11465 -7.04075e-21)
(0.579196 -0.103134 -1.97667e-20)
(0.0142821 -0.046863 -2.53573e-21)
(0.0539077 -0.112274 1.42502e-20)
(0.115568 -0.154161 -3.52967e-20)
(0.186225 -0.17732 1.61086e-20)
(0.260638 -0.185738 1.47873e-22)
(0.334785 -0.183451 -2.28923e-20)
(0.405714 -0.174199 1.07329e-20)
(0.471747 -0.161093 -1.12629e-21)
(0.532219 -0.146465 4.52312e-21)
(0.586939 -0.13177 -1.469e-21)
(0.018205 -0.0564383 -2.87389e-20)
(0.0630936 -0.135364 -3.61894e-20)
(0.127819 -0.186069 9.66001e-21)
(0.199989 -0.214245 -1.84407e-20)
(0.274777 -0.224633 -5.57195e-21)
(0.348533 -0.222059 8.67482e-21)
(0.418612 -0.211014 3.38616e-21)
(0.483564 -0.195249 1.37421e-20)
(0.542915 -0.177583 -3.08593e-21)
(0.596556 -0.159791 1.78316e-20)
(0.0228101 -0.0655245 2.75212e-20)
(0.0738968 -0.157366 1.85148e-20)
(0.142251 -0.2166 -1.48906e-20)
(0.216229 -0.249713 2.58752e-20)
(0.291488 -0.262128 -2.45421e-21)
(0.364808 -0.259395 -3.12574e-20)
(0.433904 -0.24671 5.76474e-21)
(0.497592 -0.228437 -3.75681e-20)
(0.555629 -0.207859 1.33556e-21)
(0.608003 -0.187068 1.5209e-20)
(0.0280434 -0.0740452 -2.12333e-20)
(0.0862008 -0.178108 3.99187e-20)
(0.158721 -0.245532 1.58208e-20)
(0.2348 -0.283487 -2.02598e-20)
(0.310635 -0.297992 2.47179e-23)
(0.383491 -0.295249 5.7771e-20)
(0.451488 -0.281104 2.92755e-21)
(0.51375 -0.260497 2.89471e-20)
(0.570292 -0.237156 3.73468e-20)
(0.621232 -0.21348 -2.20817e-20)
(0.0338435 -0.0819303 1.21381e-20)
(0.0998725 -0.19743 -5.85974e-21)
(0.177063 -0.272658 -1.47681e-20)
(0.255531 -0.315343 1.17708e-20)
(0.33206 -0.332007 4.62826e-20)
(0.404442 -0.329421 -1.7032e-20)
(0.471249 -0.314019 -2.89179e-21)
(0.531942 -0.291278 -4.21242e-20)
(0.586829 -0.265343 -5.52846e-20)
(0.636186 -0.238909 2.53888e-20)
(0.0401422 -0.0891162 -1.70356e-20)
(0.114764 -0.215185 -1.57782e-20)
(0.197095 -0.297787 2.46078e-21)
(0.278233 -0.345075 -6.14941e-20)
(0.355584 -0.363968 -2.71179e-20)
(0.427506 -0.361723 -2.09152e-20)
(0.493054 -0.345288 -2.93728e-20)
(0.552059 -0.320636 1.41597e-20)
(0.605153 -0.292298 1.82e-20)
(0.652798 -0.263248 2.9034e-20)
(0.0468651 -0.095547 2.45414e-21)
(0.130711 -0.231242 2.28347e-20)
(0.218613 -0.320745 1.68901e-20)
(0.302695 -0.372489 2.89258e-20)
(0.381011 -0.393686 2.36589e-20)
(0.452507 -0.391978 -2.39558e-20)
(0.516754 -0.374757 2.3627e-20)
(0.57398 -0.348439 1.71345e-20)
(0.625163 -0.31791 -2.14632e-21)
(0.670995 -0.2864 -8.43391e-21)
(0.0539327 -0.101175 4.10161e-20)
(0.147542 -0.245486 -2.08441e-20)
(0.2414 -0.341377 -1.55547e-20)
(0.328691 -0.397415 -9.66587e-21)
(0.408125 -0.420989 1.83964e-20)
(0.479255 -0.420025 1.72306e-20)
(0.542189 -0.402282 -2.54688e-20)
(0.597571 -0.374567 2.08424e-20)
(0.646752 -0.342078 1.03904e-21)
(0.690695 -0.308275 2.18793e-20)
(0.0612611 -0.105961 -3.11015e-20)
(0.165069 -0.257822 -1.22837e-20)
(0.265223 -0.359551 -1.13962e-21)
(0.355976 -0.4197 1.79149e-20)
(0.436694 -0.445719 -2.76952e-21)
(0.507544 -0.445718 -1.9549e-20)
(0.56918 -0.427733 5.77243e-21)
(0.622682 -0.398907 6.75935e-21)
(0.669797 -0.364714 1.66671e-20)
(0.711804 -0.328801 -3.35056e-20)
(0.0687631 -0.109874 -1.64955e-20)
(0.1831 -0.26817 3.17505e-20)
(0.289836 -0.375154 2.38637e-20)
(0.384292 -0.439212 -1.11511e-20)
(0.466473 -0.467741 -2.41176e-20)
(0.537151 -0.468924 -1.91893e-20)
(0.597536 -0.450992 2.26883e-20)
(0.649155 -0.421364 -4.73499e-20)
(0.694165 -0.385743 1.32664e-20)
(0.73422 -0.347916 3.66067e-20)
(0.0763491 -0.112894 2.78686e-20)
(0.201434 -0.276473 -1.76133e-20)
(0.314986 -0.388097 5.62609e-21)
(0.413369 -0.455843 -4.05968e-22)
(0.497202 -0.486935 -7.1779e-21)
(0.567843 -0.489527 3.13759e-20)
(0.627053 -0.471955 -2.92032e-20)
(0.676814 -0.441848 2.97258e-20)
(0.719707 -0.4051 -4.83271e-20)
(0.757824 -0.36558 -1.87766e-20)
(0.0839284 -0.11501 -3.54862e-21)
(0.219866 -0.282693 -2.64665e-20)
(0.340409 -0.398318 4.76814e-21)
(0.442926 -0.469507 -6.91457e-21)
(0.528609 -0.503206 -6.02797e-21)
(0.599374 -0.507429 1.26263e-21)
(0.657516 -0.490528 -2.05258e-20)
(0.705475 -0.460283 -1.27299e-21)
(0.746262 -0.422734 2.98496e-20)
(0.782484 -0.381769 -4.0178e-20)
(0.0914099 -0.11622 1.20757e-20)
(0.23819 -0.286811 2.24868e-20)
(0.365839 -0.405774 -2.04576e-20)
(0.472676 -0.480143 -8.91158e-21)
(0.560415 -0.516474 5.2903e-20)
(0.631487 -0.522544 -4.47688e-20)
(0.688702 -0.506628 4.52395e-20)
(0.734945 -0.476598 4.45964e-22)
(0.773655 -0.438602 1.04128e-20)
(0.808058 -0.396474 3.70925e-20)
(0.098704 -0.116534 -7.04443e-21)
(0.256198 -0.288834 -7.27413e-22)
(0.391007 -0.410453 5.19919e-21)
(0.502328 -0.487714 2.14936e-21)
(0.592335 -0.526686 -2.20712e-22)
(0.663924 -0.534804 1.6358e-20)
(0.720381 -0.520183 -8.8135e-21)
(0.765028 -0.490722 1.1638e-20)
(0.801699 -0.452647 -4.04269e-21)
(0.834381 -0.409679 -2.00884e-21)
(0.105723 -0.11597 1.34358e-20)
(0.273688 -0.288786 -1.36061e-21)
(0.415644 -0.412366 -2.08695e-22)
(0.531589 -0.492209 6.5371e-22)
(0.624082 -0.533807 -1.45278e-20)
(0.696422 -0.544157 3.9881e-20)
(0.752329 -0.531123 -3.15709e-20)
(0.795538 -0.502557 2.44104e-20)
(0.830171 -0.46471 -2.19981e-20)
(0.861114 -0.421243 -2.74486e-20)
(0.112382 -0.114556 -1.26567e-22)
(0.29046 -0.286714 -7.58195e-21)
(0.439486 -0.411551 8.61932e-21)
(0.560166 -0.493645 2.8856e-21)
(0.655367 -0.537829 -5.5938e-21)
(0.728722 -0.550573 -3.32072e-20)
(0.784342 -0.539393 8.47443e-21)
(0.826378 -0.511974 -5.85031e-21)
(0.859042 -0.474515 2.39723e-20)
(0.887889 -0.430972 -9.42868e-21)
(0.118603 -0.112329 1.25652e-21)
(0.306323 -0.282685 1.76272e-22)
(0.462275 -0.408072 5.66403e-22)
(0.587771 -0.492066 -3.55109e-21)
(0.685903 -0.538772 8.43314e-21)
(0.760569 -0.55405 4.81595e-21)
(0.816239 -0.544979 1.43809e-20)
(0.857614 -0.518944 -1.94199e-20)
(0.88935 -0.482338 -2.18385e-20)
(0.918676 -0.441212 1.18277e-20)
(0.12431 -0.109337 -1.01824e-21)
(0.321096 -0.276788 -3.26483e-21)
(0.483762 -0.40202 3.29326e-21)
(0.614119 -0.487543 -9.54468e-22)
(0.715399 -0.536682 6.19965e-22)
(0.791689 -0.554622 -6.20585e-21)
(0.847758 -0.547938 -1.37002e-20)
(0.88884 -0.523713 1.39412e-20)
(0.920113 -0.488664 -1.44452e-20)
(0.94792 -0.450015 -1.24991e-21)
(0.129436 -0.105633 -2.06454e-21)
(0.334608 -0.269129 1.4449e-21)
(0.503707 -0.393509 -2.34293e-21)
(0.638931 -0.480175 -1.42102e-21)
(0.743562 -0.531633 -4.01357e-21)
(0.821789 -0.552338 2.38369e-21)
(0.878599 -0.548313 -6.41e-21)
(0.919619 -0.526308 -6.81536e-21)
(0.9504 -0.493219 3.02233e-20)
(0.976001 -0.456953 1.7222e-20)
(0.133923 -0.101279 -1.51242e-21)
(0.346703 -0.259831 -1.64264e-21)
(0.521885 -0.382677 -2.00508e-21)
(0.661939 -0.470082 6.85938e-23)
(0.770101 -0.523715 -2.02068e-21)
(0.85057 -0.547259 7.29377e-21)
(0.908452 -0.546125 -2.00372e-21)
(0.949607 -0.526676 5.82628e-21)
(0.979793 -0.495782 -6.68314e-21)
(1.00317 -0.461622 2.05557e-21)
(0.137717 -0.0963419 2.03621e-21)
(0.357241 -0.249032 7.75301e-21)
(0.538089 -0.369683 -1.86806e-21)
(0.682888 -0.457411 -2.18946e-22)
(0.794734 -0.513042 -1.63084e-21)
(0.877739 -0.539457 -2.19494e-21)
(0.937021 -0.541403 5.17507e-21)
(0.978537 -0.524788 1.45445e-21)
(1.00813 -0.496297 -1.04064e-20)
(1.02947 -0.464135 -7.90315e-21)
(0.140773 -0.0908921 -2.47021e-21)
(0.366104 -0.23689 -4.55401e-22)
(0.552131 -0.354707 8.32159e-21)
(0.701539 -0.442328 4.87684e-22)
(0.817191 -0.499747 -5.26515e-21)
(0.903011 -0.529023 4.47946e-21)
(0.964025 -0.534193 1.207e-21)
(1.00617 -0.520645 1.39735e-21)
(1.03529 -0.49476 3.85319e-21)
(1.05487 -0.464618 6.19758e-21)
(0.143055 -0.0850116 8.56582e-21)
(0.373187 -0.223574 -1.22126e-21)
(0.563847 -0.337945 -6.96273e-21)
(0.717673 -0.425021 7.44007e-22)
(0.83722 -0.483985 4.3553e-21)
(0.926117 -0.516067 -5.61477e-22)
(0.989199 -0.524557 -1.35682e-21)
(1.03228 -0.514269 1.14926e-21)
(1.06118 -0.491181 -5.86844e-23)
(1.07932 -0.463154 -2.7624e-21)
(0.144543 -0.078783 -2.69447e-21)
(0.378408 -0.209257 -2.32574e-20)
(0.573097 -0.319609 1.97171e-21)
(0.731097 -0.405696 1.06218e-20)
(0.854583 -0.465928 -5.48339e-22)
(0.946803 -0.500715 -1.39699e-20)
(1.01229 -0.512575 7.54734e-21)
(1.05667 -0.505699 -1.24124e-21)
(1.08566 -0.485588 3.52641e-22)
(1.10275 -0.459816 -9.3612e-23)
(0.145223 -0.0722886 -4.39985e-21)
(0.381711 -0.194125 7.6696e-21)
(0.57977 -0.299927 1.27395e-20)
(0.741648 -0.38458 -8.11666e-21)
(0.86907 -0.445771 2.47803e-21)
(0.96483 -0.483115 8.91235e-21)
(1.03307 -0.498346 5.08341e-21)
(1.07912 -0.494997 1.03861e-21)
(1.10859 -0.478025 -1.03677e-21)
(1.12503 -0.454673 -1.70313e-22)
(0.145095 -0.0656122 -6.72324e-21)
(0.383062 -0.178367 -3.49782e-21)
(0.583782 -0.279137 -2.52393e-20)
(0.749185 -0.361913 -4.1323e-21)
(0.880496 -0.423726 7.21253e-22)
(0.979981 -0.463432 1.6711e-21)
(1.05131 -0.481988 -1.82421e-20)
(1.09944 -0.482239 -7.93846e-21)
(1.12981 -0.468546 2.84334e-22)
(1.14604 -0.447795 8.75568e-22)
(0.144165 -0.0588378 -2.11675e-21)
(0.382453 -0.162178 8.43145e-21)
(0.585083 -0.257484 1.28868e-20)
(0.753604 -0.337949 8.34831e-21)
(0.888703 -0.400021 -1.83129e-21)
(0.99206 -0.441852 -2.14189e-21)
(1.0668 -0.463636 1.54087e-20)
(1.11742 -0.467516 1.45714e-20)
(1.14914 -0.457206 1.93741e-21)
(1.16569 -0.439272 -1.27874e-21)
(0.142452 -0.0520478 1.96848e-20)
(0.3799 -0.145751 1.30794e-20)
(0.583653 -0.235219 -1.41218e-20)
(0.754832 -0.312952 -2.88865e-21)
(0.893561 -0.374901 1.80133e-21)
(1.00089 -0.418577 -5.56904e-21)
(1.07935 -0.44344 -9.71063e-21)
(1.1329 -0.450926 -1.92602e-22)
(1.16644 -0.444121 -9.14527e-21)
(1.18389 -0.4292 3.63175e-21)
(0.139987 -0.045322 3.09772e-21)
(0.375443 -0.129276 -7.5309e-21)
(0.579507 -0.212594 1.88776e-20)
(0.752831 -0.287196 1.231e-20)
(0.894975 -0.348624 8.93144e-22)
(1.00634 -0.393825 7.86608e-21)
(1.08877 -0.421571 6.76619e-22)
(1.14567 -0.432609 -7.45023e-21)
(1.18155 -0.429414 5.40071e-21)
(1.20041 -0.417488 9.94884e-22)
(0.136807 -0.0387363 -1.75822e-20)
(0.369146 -0.112938 -5.58668e-21)
(0.572689 -0.18986 -5.0384e-21)
(0.747601 -0.260956 -8.95107e-21)
(0.892883 -0.321457 2.64648e-21)
(1.00827 -0.367829 -3.71753e-23)
(1.0949 -0.398214 6.39364e-21)
(1.15554 -0.412693 -1.98278e-21)
(1.19425 -0.413117 -6.63742e-21)
(1.21495 -0.404258 -4.76222e-21)
(0.132961 -0.0323611 1.50194e-21)
(0.361096 -0.0969145 9.39825e-21)
(0.563279 -0.167263 4.83709e-21)
(0.739178 -0.234511 -1.50313e-20)
(0.887257 -0.293677 -4.09264e-22)
(1.00659 -0.340835 -6.74525e-21)
(1.0976 -0.373567 1.14858e-22)
(1.16236 -0.391323 2.38516e-21)
(1.20437 -0.395325 -2.76157e-21)
(1.22741 -0.389625 8.0145e-21)
(0.128503 -0.0262609 3.67621e-21)
(0.3514 -0.0813719 -9.415e-21)
(0.551384 -0.145038 -2.29928e-20)
(0.727632 -0.208136 2.18008e-20)
(0.878108 -0.265564 -1.59093e-21)
(1.00125 -0.3131 4.72642e-21)
(1.09674 -0.347843 -6.97207e-22)
(1.16595 -0.36866 4.49394e-21)
(1.21176 -0.37616 -4.20284e-22)
(1.23768 -0.373665 -6.25763e-21)
(0.123495 -0.0204932 -7.52701e-21)
(0.340185 -0.0664634 1.24646e-20)
(0.537142 -0.123412 1.05389e-20)
(0.713072 -0.182099 -1.58692e-20)
(0.865485 -0.237399 -2.82761e-21)
(0.992216 -0.284888 1.00663e-21)
(1.09224 -0.321267 1.13169e-20)
(1.16616 -0.344881 3.92905e-22)
(1.21622 -0.355748 2.20369e-21)
(1.24555 -0.356452 -4.41565e-21)
(0.118005 -0.0151077 5.71455e-21)
(0.327593 -0.0523272 -5.51366e-21)
(0.520718 -0.102593 -4.94158e-21)
(0.695641 -0.15666 8.78637e-21)
(0.849475 -0.209462 3.10934e-21)
(0.979508 -0.25647 2.53159e-21)
(1.08403 -0.294078 -1.19588e-20)
(1.16287 -0.320174 -4.39586e-21)
(1.21759 -0.334226 -3.73128e-21)
(1.25084 -0.338069 1.44756e-21)
(0.112105 -0.0101457 -2.89802e-21)
(0.313781 -0.0390842 -6.3007e-23)
(0.502301 -0.0827729 9.3665e-21)
(0.675514 -0.132063 -3.55728e-21)
(0.830203 -0.182026 -1.7307e-21)
(0.963174 -0.228119 -1.1916e-21)
(1.07207 -0.266521 3.07783e-21)
(1.15597 -0.29474 5.34274e-21)
(1.21569 -0.311743 -2.99285e-22)
(1.25337 -0.318607 2.02179e-21)
(0.105867 -0.00564019 2.04235e-21)
(0.298917 -0.0268373 -6.24808e-22)
(0.4821 -0.0641223 -1.68823e-21)
(0.652898 -0.108535 -1.61669e-21)
(0.807832 -0.155355 1.565e-21)
(0.943301 -0.200107 1.32018e-21)
(1.05636 -0.23885 -1.27114e-21)
(1.14538 -0.268791 4.72475e-22)
(1.2104 -0.288458 6.91249e-22)
(1.25294 -0.298167 -9.16116e-22)
(0.0993685 -0.00161515 1.1159e-21)
(0.283177 -0.01567 3.45877e-22)
(0.460342 -0.0467892 -2.13653e-21)
(0.628026 -0.0862828 -1.84427e-21)
(0.782562 -0.129698 2.08643e-21)
(0.920021 -0.172703 4.50431e-22)
(1.03695 -0.211324 -1.15553e-21)
(1.13103 -0.242553 1.13283e-21)
(1.20156 -0.264546 6.74833e-22)
(1.24937 -0.276861 -8.01247e-22)
(0.092684 0.00191398 -4.36447e-22)
(0.266741 -0.00564573 9.43625e-22)
(0.437268 -0.0308967 6.61546e-21)
(0.601157 -0.0654907 -3.27115e-21)
(0.754625 -0.105288 -1.71003e-21)
(0.893503 -0.146168 -2.16049e-21)
(1.01391 -0.184204 4.80277e-21)
(1.11292 -0.216259 3.66043e-21)
(1.18909 -0.240196 3.02379e-21)
(1.24251 -0.254816 1.65909e-21)
(0.0858878 0.00494023 8.92353e-21)
(0.24979 0.00319194 -5.25923e-21)
(0.413126 -0.0165426 -6.33299e-21)
(0.572568 -0.046316 9.40034e-21)
(0.724285 -0.0823365 5.59168e-21)
(0.863958 -0.12075 -4.37616e-22)
(0.987371 -0.157751 -8.58108e-21)
(1.09107 -0.190155 -6.38547e-21)
(1.1729 -0.21561 -7.44583e-21)
(1.2322 -0.232173 4.84542e-21)
(0.0790513 0.00746467 -1.20741e-20)
(0.232506 0.0108192 1.22114e-20)
(0.388171 -0.00379825 1.50838e-20)
(0.542551 -0.0288885 -1.63685e-20)
(0.691833 -0.0610322 -6.24677e-21)
(0.831632 -0.0966835 4.7089e-21)
(0.957498 -0.132222 9.22886e-21)
(1.06553 -0.164489 1.76724e-21)
(1.15295 -0.191007 -5.29564e-22)
(1.2183 -0.209094 -7.05898e-21)
(0.0722424 0.0094958 -1.77241e-21)
(0.215064 0.0172313 -1.73058e-20)
(0.362657 0.00729159 -1.98167e-20)
(0.511409 -0.0133088 2.49645e-20)
(0.657582 -0.0415359 -3.15306e-21)
(0.796809 -0.0741818 7.13202e-21)
(0.924503 -0.107863 1.69815e-21)
(1.03642 -0.139518 -4.46679e-21)
(1.12924 -0.166618 2.59925e-21)
(1.20071 -0.18576 -1.24508e-21)
(0.0655242 0.0110489 3.5653e-21)
(0.197633 0.0224416 1.07856e-20)
(0.336836 0.0167081 6.52386e-21)
(0.47945 0.000352921 -5.42152e-21)
(0.621864 -0.0239788 -1.02993e-20)
(0.759801 -0.0534356 -1.09168e-20)
(0.888639 -0.084911 -2.59297e-21)
(1.00391 -0.115496 8.52045e-21)
(1.10182 -0.14269 -1.93347e-21)
(1.17937 -0.162373 4.38241e-21)
(0.0589545 0.0121452 -1.37324e-20)
(0.180371 0.0264799 -1.37829e-20)
(0.310951 0.0244578 -2.54251e-21)
(0.446982 0.0120571 -2.97747e-21)
(0.585019 -0.00846091 -8.31535e-21)
(0.720947 -0.0346084 5.88974e-21)
(0.850199 -0.0635829 -9.07154e-22)
(0.968184 -0.0926756 -7.30852e-21)
(1.07079 -0.119479 7.08848e-21)
(1.15425 -0.139164 -1.36969e-20)
(0.0525851 0.012811 3.05619e-21)
(0.163425 0.0293915 1.19107e-20)
(0.285234 0.0305712 1.15952e-20)
(0.414305 0.0217948 1.41876e-20)
(0.547397 0.00495141 -3.13497e-22)
(0.680608 -0.0178332 1.78008e-20)
(0.809513 -0.0440754 2.18526e-21)
(0.929514 -0.0712997 -2.87843e-20)
(1.0363 -0.0972485 2.33352e-20)
(1.12537 -0.116385 8.53407e-21)
(0.0464613 0.013077 9.07485e-21)
(0.146931 0.031235 2.2221e-20)
(0.259903 0.0351016 -3.01403e-21)
(0.381712 0.0295875 -1.83668e-20)
(0.509343 0.0162261 9.34843e-21)
(0.639154 -0.00320907 -1.16566e-20)
(0.766938 -0.0265578 -2.01937e-20)
(0.888196 -0.0515991 -4.15938e-21)
(0.99854 -0.0762677 -2.22685e-20)
(0.0406219 0.0129772 4.51296e-21)
(0.131007 0.0320811 4.1842e-21)
(0.235158 0.038123 3.26144e-20)
(0.349479 0.0354855 7.57948e-21)
(0.471197 0.0253663 -7.90184e-21)
(0.596964 0.00920169 -4.38145e-21)
(0.722853 -0.0111677 3.44422e-20)
(0.844565 -0.033785 3.32424e-20)
(0.0350991 0.0125483 1.02863e-21)
(0.115759 0.0320103 -2.35185e-20)
(0.211181 0.0397286 -3.92316e-20)
(0.317864 0.0395677 2.36924e-21)
(0.433285 0.0324111 1.19544e-20)
(0.554411 0.0193761 -1.8606e-20)
(0.677648 0.00199422 -5.5935e-20)
(0.0299188 0.0118289 -8.29188e-21)
(0.101274 0.0311118 2.40866e-20)
(0.188131 0.0400289 2.47057e-20)
(0.287102 0.0419393 -2.86895e-20)
(0.395913 0.0374346 4.29061e-21)
(0.025101 0.0108592 -2.01397e-20)
(0.0876264 0.029482 -3.72281e-20)
(0.166147 0.0391492 -8.27774e-21)
(0.257402 0.0427306 1.59756e-20)
(0.0206602 0.00968004 1.5239e-20)
(0.0748754 0.0272225 2.21487e-22)
(0.145345 0.0372282 -4.11549e-21)
(0.0166058 0.00833312 -5.04026e-21)
(0.0630652 0.0244392 -9.30906e-21)
(0.0129426 0.00686015 3.46128e-20)
(0.0522266 0.0212406 2.89857e-20)
(0.00967151 0.00530267 6.60721e-21)
(0.999873 -0.00371976 -2.11467e-22)
(0.996762 -0.011137 9.45482e-22)
(0.990904 -0.019357 4.60637e-22)
(0.982944 -0.0289366 2.10544e-22)
(0.97297 -0.0406078 4.33045e-22)
(0.961326 -0.0549987 -1.87186e-21)
(0.948255 -0.072827 -2.49857e-21)
(0.934305 -0.0948452 8.38352e-22)
(0.920039 -0.121823 2.59232e-21)
(0.906599 -0.154461 3.06976e-21)
(0.894949 -0.193351 5.29585e-21)
(0.887374 -0.238489 -1.17892e-21)
(0.884334 -0.289776 -7.67729e-21)
(0.890228 -0.343691 -2.13854e-21)
(0.895406 -0.3993 5.739e-21)
(0.999868 -0.00353654 -1.19024e-21)
(0.996688 -0.0106004 4.43163e-22)
(0.99069 -0.0184337 -7.41579e-22)
(0.982514 -0.0275609 2.00595e-21)
(0.972217 -0.0386759 -1.78735e-21)
(0.960106 -0.0523777 2.16288e-22)
(0.94637 -0.0693574 2.60851e-21)
(0.931484 -0.0903462 -4.12789e-21)
(0.915924 -0.11612 1.84744e-21)
(0.900727 -0.147398 -6.78485e-21)
(0.886764 -0.184897 7.73946e-21)
(0.876179 -0.228721 -8.11186e-21)
(0.869496 -0.279189 -1.25494e-21)
(0.870134 -0.332663 9.7246e-21)
(0.871449 -0.387645 -2.24733e-21)
(0.999865 -0.00334829 1.58119e-21)
(0.996628 -0.0100462 1.09191e-21)
(0.990506 -0.0174763 1.32499e-21)
(0.982138 -0.026131 -9.786e-22)
(0.971551 -0.0366651 -1.01056e-21)
(0.959022 -0.0496476 3.75112e-21)
(0.944685 -0.06574 -2.05111e-21)
(0.928951 -0.0856488 5.67942e-21)
(0.912204 -0.110149 -3.51047e-21)
(0.895377 -0.139972 -1.70499e-21)
(0.879221 -0.175937 -2.36764e-21)
(0.86571 -0.21825 1.99655e-21)
(0.855366 -0.267533 5.6388e-21)
(0.850949 -0.320284 -1.59821e-20)
(0.847826 -0.374445 1.79536e-20)
(0.999864 -0.00315979 2.269e-22)
(0.996579 -0.00949177 -1.81406e-21)
(0.990347 -0.0165208 -3.38674e-21)
(0.981806 -0.0247082 5.90656e-22)
(0.970959 -0.0346716 -1.14807e-22)
(0.958051 -0.0469506 1.06194e-21)
(0.94317 -0.0621786 3.18407e-21)
(0.926661 -0.0810358 -2.16947e-21)
(0.908824 -0.104294 2.73344e-21)
(0.890479 -0.132686 -5.497e-21)
(0.872253 -0.167109 3.69603e-21)
(0.855926 -0.207851 2.48616e-21)
(0.841994 -0.255741 6.0927e-21)
(0.832715 -0.307564 -1.05574e-20)
(0.824884 -0.360777 1.90133e-22)
(0.999864 -0.0029705 -1.99994e-21)
(0.996537 -0.00893392 -4.74052e-22)
(0.990208 -0.0155597 -4.64043e-22)
(0.981513 -0.0232774 2.60733e-21)
(0.970431 -0.0326678 4.30902e-23)
(0.957181 -0.0442412 -4.05743e-22)
(0.941804 -0.0586013 -2.25705e-21)
(0.924588 -0.0764 -1.68242e-22)
(0.905746 -0.0983993 7.01078e-21)
(0.88599 -0.125326 -8.12395e-21)
(0.865818 -0.158133 2.58395e-21)
(0.846802 -0.197179 3.91169e-21)
(0.829401 -0.243435 1.26899e-21)
(0.815467 -0.294063 -5.79218e-21)
(0.802822 -0.346114 1.14503e-22)
(0.999865 -0.00278018 3.70341e-22)
(0.996503 -0.00837157 3.27187e-22)
(0.990087 -0.0145889 1.12142e-21)
(0.981253 -0.0218308 -1.45251e-21)
(0.969959 -0.030641 4.11152e-22)
(0.9564 -0.0414992 -1.1084e-21)
(0.940573 -0.0549782 5.89787e-22)
(0.92271 -0.0716989 -2.48393e-21)
(0.902945 -0.0924075 4.73847e-21)
(0.881878 -0.117817 -1.41034e-22)
(0.859886 -0.148917 -8.44947e-21)
(0.838321 -0.186126 5.51312e-22)
(0.817597 -0.230508 8.90208e-21)
(0.799227 -0.279643 2.37416e-22)
(0.781747 -0.330305 -1.02967e-20)
(0.999866 -0.00258908 3.21489e-22)
(0.996474 -0.0078061 -1.86966e-21)
(0.989982 -0.0136095 -1.40896e-21)
(0.981024 -0.0203705 1.66036e-21)
(0.969539 -0.0285941 -1.18133e-21)
(0.9557 -0.0387294 9.49308e-22)
(0.939465 -0.0513168 -4.873e-22)
(0.921011 -0.0669434 -5.28904e-22)
(0.900399 -0.0863344 3.62721e-21)
(0.878119 -0.110181 -7.18292e-21)
(0.854431 -0.139491 5.74161e-21)
(0.830468 -0.174734 7.89111e-21)
(0.806585 -0.217024 -9.77016e-21)
(0.784007 -0.264356 -1.80548e-21)
(0.761752 -0.313369 -8.61219e-21)
(0.999868 -0.00239749 -1.77306e-22)
(0.996449 -0.00723762 1.17511e-21)
(0.98989 -0.0126234 -1.2921e-21)
(0.980821 -0.0188989 2.96408e-21)
(0.969165 -0.0265312 -3.18964e-21)
(0.955073 -0.0359375 -3.19543e-21)
(0.938467 -0.047625 -7.98954e-22)
(0.919475 -0.0621448 3.62199e-22)
(0.898088 -0.080195 -2.8192e-21)
(0.874689 -0.10244 3.23269e-21)
(0.849429 -0.129884 3.39089e-21)
(0.823225 -0.163039 -1.18479e-21)
(0.796362 -0.203031 -4.03007e-21)
(0.769817 -0.248252 8.43752e-21)
(0.742916 -0.29532 -7.99068e-21)
(0.99987 -0.0022056 -7.73878e-22)
(0.996429 -0.00666608 7.26285e-21)
(0.989809 -0.0116315 1.7149e-22)
(0.980643 -0.0174177 1.47442e-21)
(0.968833 -0.0244543 -2.5955e-22)
(0.954513 -0.0331265 4.32548e-21)
(0.937572 -0.0439066 6.58321e-22)
(0.918091 -0.0573078 4.87151e-23)
(0.895998 -0.0739956 -4.45426e-21)
(0.871572 -0.0946023 -7.8793e-22)
(0.844863 -0.120109 3.75886e-21)
(0.81658 -0.15106 -5.42555e-21)
(0.786927 -0.188565 -3.97711e-21)
(0.756667 -0.231372 4.73984e-21)
(0.725306 -0.27618 -3.9965e-21)
(0.999872 -0.00201353 1.93382e-21)
(0.996412 -0.0060922 -4.08178e-21)
(0.98974 -0.0106321 2.18064e-21)
(0.980485 -0.0159279 -3.07022e-21)
(0.968538 -0.0223651 -1.12584e-21)
(0.954013 -0.0302983 6.22952e-22)
(0.936772 -0.040164 -2.22906e-21)
(0.916849 -0.0524358 3.9186e-21)
(0.894115 -0.067741 2.08801e-21)
(0.868751 -0.0866743 -1.18502e-21)
(0.840716 -0.110179 3.53394e-21)
(0.810521 -0.138816 -6.58367e-21)
(0.778278 -0.173659 1.12604e-20)
(0.744565 -0.213763 -7.80142e-21)
(0.70898 -0.25599 -3.86271e-21)
(0.999874 -0.0018214 -1.3746e-21)
(0.996398 -0.00551649 1.83675e-22)
(0.989679 -0.00962174 1.18326e-23)
(0.980347 -0.0144305 2.83851e-21)
(0.968278 -0.0202649 7.04122e-22)
(0.953571 -0.0274549 -1.28755e-21)
(0.93606 -0.0364 1.44826e-21)
(0.91574 -0.0475324 -2.8613e-21)
(0.892429 -0.0614363 1.14515e-21)
(0.866216 -0.0786644 7.21664e-22)
(0.836975 -0.100107 -3.48652e-21)
(0.805038 -0.126329 2.60942e-21)
(0.770413 -0.15835 6.62477e-21)
(0.733519 -0.19548 -3.32212e-21)
(0.693986 -0.234807 -8.5818e-21)
(0.999876 -0.00162929 -1.56174e-21)
(0.996387 -0.00493919 -3.26903e-22)
(0.989626 -0.00861636 -1.41928e-21)
(0.980225 -0.012927 -4.14296e-21)
(0.96805 -0.0181553 1.98677e-21)
(0.953181 -0.0245983 -1.88247e-21)
(0.935432 -0.032617 2.52109e-21)
(0.914757 -0.0426012 3.66131e-21)
(0.89093 -0.0550869 -2.34771e-21)
(0.863956 -0.0705808 4.77279e-21)
(0.833629 -0.0899078 -2.56982e-21)
(0.800122 -0.113623 -3.80397e-21)
(0.763332 -0.142674 -2.32341e-21)
(0.72354 -0.176582 9.5218e-21)
(0.680369 -0.212699 -3.12528e-21)
(0.999878 -0.00143726 1.62404e-21)
(0.996377 -0.00436068 7.78686e-22)
(0.989581 -0.00761706 -1.13471e-22)
(0.980121 -0.011418 1.65976e-21)
(0.967851 -0.0160375 -2.65682e-21)
(0.952842 -0.0217301 -6.53289e-22)
(0.934882 -0.0288174 -5.32145e-23)
(0.913894 -0.0376456 -1.24088e-21)
(0.889612 -0.0486979 -3.60178e-21)
(0.861963 -0.0624315 -1.78652e-21)
(0.830672 -0.0795953 6.66975e-21)
(0.795765 -0.100719 -1.03094e-21)
(0.757036 -0.12667 -1.02327e-21)
(0.714637 -0.15713 -8.11459e-22)
(0.668167 -0.189745 -3.87724e-21)
(0.99988 -0.00124532 9.82038e-22)
(0.996368 -0.00378113 -1.79675e-21)
(0.989543 -0.00660868 7.64523e-22)
(0.980032 -0.0099043 -2.03745e-21)
(0.967681 -0.0139126 -1.23775e-22)
(0.952549 -0.018852 1.1436e-22)
(0.934407 -0.0250034 1.57736e-22)
(0.913148 -0.0326685 2.35961e-22)
(0.888469 -0.0422742 -1.6418e-21)
(0.86023 -0.0542242 2.13911e-21)
(0.828095 -0.0691832 -3.4391e-21)
(0.791963 -0.0876421 7.71796e-22)
(0.751524 -0.110374 2.26839e-21)
(0.70682 -0.137184 -1.49114e-22)
(0.657413 -0.166028 2.63904e-21)
(0.999882 -0.00105349 -9.55279e-22)
(0.996361 -0.00320071 2.18044e-21)
(0.989511 -0.00559553 -1.37264e-21)
(0.979957 -0.00838666 1.66515e-21)
(0.967538 -0.0117819 9.06852e-22)
(0.952302 -0.0159655 -5.69825e-22)
(0.934005 -0.0211771 -9.66974e-23)
(0.912514 -0.0276732 -6.34257e-22)
(0.887497 -0.0358206 2.25369e-22)
(0.858753 -0.0459668 -1.80662e-21)
(0.825894 -0.0586849 8.53802e-22)
(0.78871 -0.0744138 -5.70265e-21)
(0.746796 -0.0938243 7.94535e-21)
(0.700098 -0.11681 -2.38363e-21)
(0.648139 -0.141642 -4.94492e-21)
(0.999883 -0.000861767 -4.45017e-22)
(0.996356 -0.0026196 -6.73833e-22)
(0.989485 -0.00458051 4.67548e-22)
(0.979896 -0.00686588 1.12859e-22)
(0.96742 -0.00964623 1.26217e-21)
(0.952098 -0.013072 -4.41876e-22)
(0.933673 -0.0173405 2.57823e-22)
(0.911989 -0.0226625 -8.38358e-23)
(0.886691 -0.0293419 7.02913e-22)
(0.857528 -0.037667 1.30386e-21)
(0.824065 -0.0481139 1.85011e-21)
(0.786004 -0.061058 -2.98034e-21)
(0.742855 -0.0770597 1.31697e-21)
(0.694482 -0.0960717 -1.65964e-21)
(0.640369 -0.116683 -4.56197e-21)
(0.999885 -0.000670143 1.57927e-21)
(0.996352 -0.00203797 -1.83862e-22)
(0.989465 -0.00356414 7.36181e-22)
(0.979848 -0.0053426 6.2264e-22)
(0.967327 -0.00750662 -1.96929e-21)
(0.951936 -0.0101728 7.32869e-23)
(0.93341 -0.0134956 2.96504e-22)
(0.911572 -0.0176393 1.79133e-22)
(0.88605 -0.0228427 -6.70384e-22)
(0.856552 -0.0293325 6.27596e-22)
(0.822605 -0.0374834 2.81201e-21)
(0.783842 -0.0475977 -1.11881e-21)
(0.739701 -0.0601188 2.49232e-21)
(0.689978 -0.0750338 -5.39845e-21)
(0.634127 -0.0912492 6.67411e-21)
(0.999886 -0.000478606 -1.12759e-21)
(0.996349 -0.00145596 2.10184e-23)
(0.98945 -0.00254663 -6.55417e-22)
(0.979812 -0.00381743 -3.23417e-22)
(0.967258 -0.005364 7.0177e-22)
(0.951816 -0.00726936 -3.72614e-23)
(0.933213 -0.00964428 -1.23384e-21)
(0.911261 -0.0126064 7.0744e-22)
(0.885571 -0.0163275 -3.09306e-22)
(0.855821 -0.0209711 2.76228e-22)
(0.821512 -0.0268068 9.53749e-22)
(0.782221 -0.0340563 2.466e-22)
(0.737334 -0.0430404 -1.66562e-21)
(0.686594 -0.0537627 1.92847e-22)
(0.62943 -0.0654447 -1.49018e-21)
(0.999886 -0.000287136 5.4946e-22)
(0.996347 -0.000873678 -3.75296e-23)
(0.98944 -0.0015283 9.52831e-23)
(0.979788 -0.00229096 5.26549e-22)
(0.967212 -0.00321924 -9.54554e-23)
(0.951736 -0.00436284 -5.07387e-22)
(0.933083 -0.00578839 -3.18085e-22)
(0.911054 -0.00756657 3.78284e-22)
(0.885252 -0.00980103 -3.36079e-22)
(0.855335 -0.0125904 3.92836e-22)
(0.820784 -0.0160972 -1.01505e-21)
(0.781142 -0.020457 5.5767e-22)
(0.735756 -0.0258636 -1.23108e-21)
(0.684335 -0.0323245 4.93944e-22)
(0.626291 -0.0393737 2.02435e-22)
(0.999887 -9.57072e-05 -9.79134e-23)
(0.996346 -0.000291243 9.53808e-23)
(0.989435 -0.000509484 -1.2423e-22)
(0.979776 -0.000763738 -1.74521e-22)
(0.967189 -0.00107322 1.62754e-22)
(0.951696 -0.00145448 2.55125e-22)
(0.933018 -0.00192977 1.75452e-22)
(0.910951 -0.00252265 -1.04674e-22)
(0.885093 -0.00326776 4.15149e-22)
(0.855092 -0.00419807 7.52884e-23)
(0.82042 -0.00536794 1.90545e-22)
(0.780602 -0.00682286 2.60429e-22)
(0.734966 -0.00862777 -7.52802e-24)
(0.683205 -0.010786 -1.84036e-22)
(0.624719 -0.0131424 -2.80033e-23)
(1.00013 -0.000347314 0)
(1.00271 -0.00102805 0)
(1.00732 -0.00166722 0)
(1.01346 -0.00227245 0)
(1.02068 -0.00284205 0)
(1.02861 -0.00336761 0)
(1.03696 -0.00384038 0)
(1.04545 -0.00425422 0)
(1.05389 -0.00460635 0)
(1.06208 -0.00489731 0)
(1.06991 -0.00513044 0)
(1.0773 -0.00531102 0)
(1.0842 -0.00544584 0)
(1.09058 -0.0055405 0)
(1.09647 -0.00561185 0)
(1.00013 -0.00102594 0)
(1.00268 -0.00302917 0)
(1.00726 -0.00491407 0)
(1.01338 -0.00670313 0)
(1.02057 -0.00838993 0)
(1.02851 -0.00994954 0)
(1.03687 -0.0113558 0)
(1.04541 -0.0125895 0)
(1.0539 -0.0136416 0)
(1.06217 -0.0145127 0)
(1.07009 -0.015212 0)
(1.07757 -0.0157545 0)
(1.08456 -0.0161601 0)
(1.09102 -0.016445 0)
(1.09701 -0.0166572 0)
(1.00013 -0.00166816 0)
(1.00264 -0.00491627 0)
(1.00716 -0.00798207 0)
(1.01321 -0.0109033 0)
(1.02037 -0.0136675 0)
(1.0283 -0.0162334 0)
(1.0367 -0.0185567 0)
(1.04531 -0.0206035 0)
(1.0539 -0.0223557 0)
(1.06231 -0.0238117 0)
(1.07038 -0.0249846 0)
(1.07803 -0.0258976 0)
(1.0852 -0.0265824 0)
(1.09184 -0.027065 0)
(1.09802 -0.0274257 0)
(1.00012 -0.00226853 0)
(1.00257 -0.00668246 0)
(1.00701 -0.010864 0)
(1.01297 -0.0148682 0)
(1.02006 -0.0186771 0)
(1.02796 -0.0222325 0)
(1.03639 -0.0254706 0)
(1.04509 -0.0283396 0)
(1.05384 -0.030809 0)
(1.06243 -0.0328713 0)
(1.07073 -0.0345408 0)
(1.07861 -0.0358465 0)
(1.08603 -0.0368308 0)
(1.09291 -0.0375287 0)
(1.09937 -0.0380545 0)
(1.00012 -0.00282493 0)
(1.00249 -0.00832258 0)
(1.0068 -0.0135532 0)
(1.01263 -0.0185922 0)
(1.01962 -0.0234169 0)
(1.02747 -0.0279525 0)
(1.03593 -0.0321133 0)
(1.04473 -0.0358262 0)
(1.05364 -0.0390436 0)