/*--------------------------------*- C++ -*----------------------------------*\
  =========                 |
  \\      /  F ield         | OpenFOAM: The Open Source CFD Toolbox
   \\    /   O peration     | Website:  https://openfoam.org
    \\  /    A nd           | Version:  7
     \\/     M anipulation  |
\*---------------------------------------------------------------------------*/
FoamFile
{
    version     2.0;
    format      ascii;
    class       volScalarField;
    location    "60";
    object      p;
}
// * * * * * * * * * * * * * * * * * * * * * * * * * * * * * * * * * * * * * //

dimensions      [0 2 -2 0 0 0 0];

internalField   nonuniform List<scalar> 
8500
(
-0.250104
-0.252058
-0.252975
-0.253713
-0.254343
-0.254886
-0.255369
-0.255805
-0.256169
-0.256515
-0.250306
-0.252238
-0.253142
-0.253868
-0.254484
-0.255014
-0.255482
-0.255903
-0.256249
-0.256565
-0.250698
-0.252588
-0.253467
-0.254167
-0.254757
-0.255259
-0.255695
-0.256082
-0.25639
-0.25664
-0.251274
-0.253103
-0.253944
-0.254606
-0.255155
-0.255613
-0.256001
-0.256336
-0.256583
-0.256723
-0.252027
-0.253777
-0.254568
-0.255178
-0.255671
-0.25607
-0.25639
-0.256649
-0.256816
-0.256786
-0.252947
-0.254602
-0.255331
-0.255874
-0.256297
-0.256619
-0.256849
-0.257009
-0.257075
-0.256793
-0.254023
-0.25557
-0.256224
-0.256687
-0.257022
-0.257249
-0.257368
-0.257398
-0.257348
-0.2567
-0.255246
-0.256671
-0.257239
-0.257606
-0.257836
-0.25795
-0.257935
-0.2578
-0.257627
-0.256448
-0.256605
-0.257897
-0.258366
-0.258622
-0.258731
-0.258714
-0.258541
-0.258201
-0.257912
-0.255942
-0.258092
-0.259242
-0.259599
-0.259728
-0.259698
-0.259532
-0.259181
-0.258593
-0.258232
-0.255102
-0.2597
-0.2607
-0.26093
-0.260915
-0.260729
-0.260398
-0.259853
-0.258967
-0.258602
-0.254224
-0.261427
-0.262267
-0.262356
-0.262179
-0.261819
-0.261307
-0.260558
-0.259327
-0.258724
-0.253327
-0.263272
-0.263944
-0.263873
-0.263514
-0.262962
-0.262256
-0.261299
-0.259828
-0.25879
-0.252124
-0.265242
-0.265733
-0.265484
-0.264919
-0.264155
-0.263239
-0.262055
-0.260353
-0.258952
-0.25066
-0.267344
-0.267641
-0.26719
-0.266394
-0.265393
-0.264252
-0.262835
-0.260904
-0.25917
-0.249073
-0.269596
-0.269681
-0.269002
-0.267943
-0.266675
-0.265288
-0.263627
-0.261504
-0.259359
-0.247562
-0.27202
-0.271871
-0.270929
-0.269574
-0.268006
-0.266343
-0.264412
-0.262166
-0.259371
-0.246293
-0.274646
-0.274233
-0.272994
-0.271303
-0.269396
-0.267424
-0.265179
-0.262908
-0.25898
-0.245175
-0.277512
-0.276793
-0.275227
-0.273154
-0.270867
-0.268549
-0.265949
-0.26378
-0.258128
-0.244506
-0.280668
-0.279592
-0.277656
-0.27516
-0.272453
-0.269752
-0.266763
-0.264752
-0.257328
-0.248177
-0.284164
-0.282672
-0.280322
-0.277363
-0.274197
-0.271078
-0.267666
-0.265569
-0.257131
-0.262225
-0.288053
-0.286085
-0.283272
-0.279814
-0.276155
-0.272577
-0.268716
-0.266127
-0.257616
-0.261438
-0.2924
-0.289877
-0.286557
-0.282565
-0.278386
-0.274305
-0.269951
-0.266534
-0.258124
-0.258658
-0.297265
-0.2941
-0.290229
-0.285675
-0.280946
-0.276308
-0.271381
-0.26696
-0.258405
-0.2559
-0.302706
-0.298805
-0.294342
-0.289196
-0.283887
-0.278624
-0.272999
-0.267441
-0.258397
-0.253024
-0.308775
-0.30404
-0.298945
-0.29318
-0.287245
-0.281266
-0.27479
-0.267949
-0.258038
-0.250165
-0.315516
-0.309848
-0.304087
-0.29767
-0.291043
-0.28423
-0.276721
-0.268418
-0.257314
-0.247256
-0.32296
-0.316265
-0.309807
-0.302696
-0.295287
-0.287491
-0.278728
-0.268763
-0.256217
-0.244233
-0.331125
-0.323318
-0.316134
-0.308273
-0.299961
-0.290994
-0.280718
-0.26889
-0.254738
-0.241024
-0.340013
-0.33102
-0.323084
-0.314396
-0.305027
-0.294651
-0.282576
-0.268711
-0.252864
-0.237562
-0.349604
-0.339368
-0.330649
-0.321031
-0.310413
-0.298337
-0.284179
-0.268143
-0.250574
-0.233791
-0.35985
-0.348335
-0.338794
-0.328114
-0.316006
-0.301899
-0.285401
-0.267114
-0.247839
-0.229658
-0.370676
-0.357864
-0.347449
-0.335544
-0.321647
-0.305165
-0.286123
-0.265558
-0.244622
-0.225111
-0.381973
-0.367868
-0.356507
-0.343175
-0.32714
-0.307959
-0.286233
-0.263408
-0.240881
-0.2201
-0.393594
-0.378218
-0.36582
-0.350813
-0.332262
-0.310108
-0.285625
-0.260599
-0.236567
-0.214575
-0.405352
-0.388745
-0.375196
-0.358219
-0.336775
-0.311445
-0.284198
-0.257067
-0.231623
-0.208486
-0.417023
-0.399238
-0.384399
-0.365117
-0.340441
-0.311812
-0.281855
-0.252742
-0.225993
-0.201784
-0.428344
-0.409448
-0.393152
-0.371211
-0.343027
-0.311063
-0.278502
-0.247557
-0.219617
-0.194421
-0.439016
-0.419086
-0.40114
-0.376193
-0.344315
-0.30906
-0.274051
-0.24144
-0.212436
-0.186356
-0.448715
-0.427838
-0.408026
-0.379763
-0.344101
-0.305678
-0.268414
-0.234326
-0.204393
-0.17755
-0.457096
-0.435364
-0.413458
-0.381637
-0.342201
-0.300802
-0.261512
-0.226149
-0.195435
-0.16797
-0.463804
-0.441311
-0.417087
-0.381551
-0.338454
-0.294329
-0.25327
-0.216848
-0.185517
-0.157588
-0.468483
-0.445323
-0.418582
-0.379273
-0.332718
-0.286168
-0.243621
-0.206369
-0.174602
-0.146391
-0.470788
-0.447053
-0.41764
-0.374605
-0.324878
-0.276246
-0.232505
-0.19466
-0.162655
-0.134365
-0.470393
-0.446174
-0.413995
-0.367383
-0.314842
-0.264501
-0.219876
-0.18168
-0.149632
-0.121439
-0.467004
-0.442387
-0.407427
-0.357484
-0.302545
-0.250896
-0.205707
-0.167405
-0.135485
-0.107438
-0.460366
-0.435438
-0.397767
-0.344824
-0.28795
-0.23541
-0.189984
-0.151832
-0.120204
-0.0921675
-0.450267
-0.425123
-0.384891
-0.329358
-0.271043
-0.218036
-0.172696
-0.134967
-0.10386
-0.0757715
-0.43655
-0.411295
-0.368726
-0.311075
-0.251834
-0.198772
-0.153839
-0.116844
-0.0864577
-0.0589223
-0.41911
-0.393865
-0.349246
-0.290003
-0.230351
-0.177631
-0.133475
-0.0976038
-0.067912
-0.0415012
-0.397903
-0.372799
-0.326478
-0.266213
-0.20666
-0.154684
-0.111821
-0.0771044
-0.0483839
-0.0233764
-0.372938
-0.348123
-0.300496
-0.239809
-0.180866
-0.130147
-0.0887202
-0.0554621
-0.0279689
-0.0045511
-0.344283
-0.319931
-0.271462
-0.210882
-0.153065
-0.104001
-0.0643227
-0.0327657
-0.00674193
0.0148954
-0.312061
-0.2884
-0.239638
-0.179434
-0.123367
-0.0763505
-0.0387344
-0.00911098
0.0152212
0.0348579
-0.276453
-0.253762
-0.205147
-0.145632
-0.0919061
-0.0473351
-0.0120766
0.0154031
0.0378431
0.0552517
-0.237693
-0.216249
-0.167437
-0.110261
-0.0589423
-0.0171105
0.0155223
0.040674
0.061043
0.0759854
-0.195999
-0.17601
-0.127456
-0.0731179
-0.024671
0.0141517
0.0439331
0.0666072
0.0846837
0.0967209
-0.151624
-0.133
-0.0859891
-0.0344606
0.0107233
0.0462805
0.0730437
0.0931248
0.108493
0.116647
-0.104989
-0.0879009
-0.0430305
0.00541663
0.0470309
0.0791063
0.10275
0.120131
0.132147
0.135204
-0.0565197
-0.0410553
0.00121926
0.0462282
0.0840187
0.112446
0.132895
0.147396
0.155559
0.154128
-0.00653677
0.00709547
0.0464492
0.0876888
0.121444
0.146094
0.163233
0.174521
0.178695
0.178233
0.04454
0.0561419
0.0923071
0.129505
0.159059
0.179827
0.193499
0.201371
0.202405
0.202491
0.0962716
0.10568
0.138428
0.171375
0.196609
0.213418
0.223522
0.228011
0.226376
0.225524
0.148215
0.155301
0.184446
0.212995
0.233834
0.246638
0.253128
0.254318
0.250179
0.247647
0.199926
0.204593
0.229996
0.254058
0.270475
0.279267
0.282148
0.280117
0.273481
0.268849
0.25096
0.253146
0.274719
0.294262
0.306276
0.311086
0.310404
0.30523
0.296094
0.289161
0.300881
0.300557
0.318263
0.33331
0.340984
0.341886
0.337715
0.329482
0.317866
0.308544
0.349261
0.346431
0.360287
0.370915
0.374357
0.371458
0.363905
0.352715
0.33867
0.326936
0.395688
0.390389
0.400465
0.406799
0.406159
0.399604
0.388802
0.374778
0.358386
0.344265
0.439764
0.432067
0.438482
0.440699
0.436167
0.426133
0.412244
0.395534
0.376903
0.360455
0.481116
0.471123
0.474044
0.472364
0.464169
0.450865
0.434078
0.414851
0.394111
0.375432
0.519394
0.507238
0.506877
0.501564
0.489966
0.473631
0.45416
0.432607
0.409909
0.389122
0.554274
0.540116
0.536728
0.528083
0.513378
0.494277
0.472358
0.44869
0.424202
0.401461
0.585462
0.56949
0.563367
0.551728
0.534239
0.512662
0.488554
0.462996
0.436906
0.412389
0.612696
0.595122
0.58659
0.572325
0.552401
0.52866
0.50264
0.475435
0.447942
0.421851
0.635748
0.616806
0.60622
0.589724
0.567736
0.542162
0.514524
0.485926
0.457243
0.429805
0.654425
0.634366
0.622106
0.603798
0.580137
0.553077
0.524127
0.494402
0.464754
0.436212
0.668572
0.647661
0.634129
0.614445
0.589515
0.561329
0.531385
0.500808
0.470428
0.441043
0.67807
0.656585
0.642196
0.621587
0.595805
0.566862
0.536252
0.505102
0.47423
0.444276
0.68284
0.661066
0.646246
0.625172
0.598962
0.569639
0.538694
0.507257
0.476138
0.445897
0.682842
0.661069
0.646248
0.625174
0.598964
0.569641
0.538695
0.507258
0.476139
0.445898
0.678077
0.656593
0.642203
0.621593
0.595811
0.566868
0.536256
0.505106
0.474234
0.44428
0.668585
0.647674
0.63414
0.614456
0.589525
0.561337
0.531393
0.500815
0.470435
0.44105
0.654444
0.634384
0.622123
0.603813
0.58015
0.553089
0.524138
0.494412
0.464764
0.436221
0.635772
0.616829
0.60624
0.589743
0.567753
0.542178
0.514538
0.48594
0.457256
0.429816
0.612725
0.59515
0.586615
0.572348
0.552422
0.528679
0.502658
0.475451
0.447957
0.421865
0.585497
0.569523
0.563397
0.551755
0.534263
0.512684
0.488575
0.463016
0.436924
0.412405
0.554314
0.540154
0.536763
0.528115
0.513407
0.494303
0.472382
0.448712
0.424223
0.40148
0.51944
0.507282
0.506917
0.5016
0.489999
0.473661
0.454187
0.432632
0.409932
0.389144
0.481167
0.471172
0.474089
0.472405
0.464205
0.450898
0.434108
0.414879
0.394137
0.375456
0.439821
0.432121
0.438531
0.440743
0.436207
0.42617
0.412278
0.395565
0.376932
0.360482
0.395749
0.390448
0.400519
0.406848
0.406204
0.399645
0.388839
0.374813
0.358418
0.344294
0.349329
0.346496
0.360347
0.370968
0.374405
0.371502
0.363945
0.352752
0.338704
0.326968
0.300954
0.300627
0.318327
0.333368
0.341036
0.341933
0.337759
0.329522
0.317903
0.308578
0.251039
0.253222
0.274787
0.294324
0.306332
0.311138
0.310451
0.305273
0.296134
0.289198
0.20001
0.204674
0.23007
0.254124
0.270535
0.279321
0.282198
0.280163
0.273524
0.268888
0.148305
0.155387
0.184525
0.213066
0.233898
0.246697
0.253182
0.254367
0.250225
0.247689
0.0963665
0.105771
0.138512
0.171451
0.196677
0.21348
0.223579
0.228063
0.226424
0.22557
0.0446402
0.0562384
0.0923955
0.129585
0.159131
0.179893
0.193559
0.201426
0.202457
0.202539
-0.00643122
0.00719724
0.0465424
0.0877728
0.12152
0.146163
0.163296
0.17458
0.178749
0.178284
-0.0564089
-0.0409484
0.00131721
0.0463166
0.0840987
0.112519
0.132962
0.147457
0.155616
0.154182
-0.104873
-0.087789
-0.0429278
0.00550937
0.0471147
0.0791827
0.10282
0.120196
0.132207
0.13526
-0.151503
-0.132883
-0.0858817
-0.0343636
0.010811
0.0463604
0.073117
0.0931923
0.108555
0.116705
-0.195873
-0.175889
-0.127344
-0.0730168
-0.0245794
0.0142351
0.0440096
0.0666778
0.0847489
0.0967817
-0.237562
-0.216122
-0.167321
-0.110156
-0.058847
-0.0170237
0.0156019
0.0407476
0.061111
0.0760487
-0.276319
-0.253631
-0.205026
-0.145523
-0.0918071
-0.0472449
-0.0119938
0.0154796
0.0379139
0.0553174
-0.311923
-0.288265
-0.239513
-0.179321
-0.123265
-0.076257
-0.0386485
-0.00903154
0.0152947
0.0349261
-0.344141
-0.319793
-0.271333
-0.210765
-0.152959
-0.103904
-0.0642336
-0.0326834
-0.00666564
0.0149662
-0.372792
-0.347981
-0.300363
-0.239688
-0.180756
-0.130047
-0.0886282
-0.0553768
-0.0278899
-0.00447763
-0.397754
-0.372654
-0.326342
-0.266089
-0.206547
-0.154581
-0.111726
-0.0770164
-0.0483021
-0.0233003
-0.418959
-0.393717
-0.349108
-0.289876
-0.230235
-0.177525
-0.133377
-0.097513
-0.0678275
-0.0414224
-0.436396
-0.411145
-0.368584
-0.310945
-0.251715
-0.198663
-0.153739
-0.116751
-0.0863705
-0.0588408
-0.450112
-0.424971
-0.384748
-0.329226
-0.270922
-0.217925
-0.172593
-0.134872
-0.10377
-0.0756874
-0.460209
-0.435285
-0.397622
-0.34469
-0.287826
-0.235296
-0.189878
-0.151733
-0.120111
-0.0920808
-0.466847
-0.442233
-0.40728
-0.357347
-0.302419
-0.25078
-0.205599
-0.167304
-0.135389
-0.107348
-0.470235
-0.446019
-0.413847
-0.367244
-0.314714
-0.264383
-0.219766
-0.181576
-0.149534
-0.121346
-0.47063
-0.446899
-0.417491
-0.374465
-0.324748
-0.276125
-0.232392
-0.194554
-0.162555
-0.134269
-0.468327
-0.445169
-0.418433
-0.379133
-0.332587
-0.286046
-0.243507
-0.20626
-0.174499
-0.146292
-0.463649
-0.441158
-0.416939
-0.38141
-0.338322
-0.294205
-0.253154
-0.216737
-0.185411
-0.157486
-0.456943
-0.435213
-0.41331
-0.381496
-0.342069
-0.300677
-0.261394
-0.226036
-0.195327
-0.167865
-0.448563
-0.427689
-0.40788
-0.379623
-0.343968
-0.305552
-0.268294
-0.234211
-0.204282
-0.177443
-0.438867
-0.41894
-0.400996
-0.376054
-0.344182
-0.308934
-0.27393
-0.241324
-0.212323
-0.186245
-0.428197
-0.409304
-0.39301
-0.371073
-0.342895
-0.310936
-0.27838
-0.247438
-0.219501
-0.194307
-0.41688
-0.399097
-0.38426
-0.364982
-0.340309
-0.311685
-0.281732
-0.252622
-0.225874
-0.201666
-0.405212
-0.388607
-0.37506
-0.358085
-0.336645
-0.311318
-0.284075
-0.256945
-0.231502
-0.208365
-0.393457
-0.378083
-0.365687
-0.350682
-0.332133
-0.309982
-0.285501
-0.260476
-0.236443
-0.214451
-0.38184
-0.367737
-0.356377
-0.343047
-0.327014
-0.307834
-0.28611
-0.263283
-0.240756
-0.219972
-0.370546
-0.357736
-0.347322
-0.335419
-0.321523
-0.305042
-0.286
-0.265433
-0.244494
-0.224979
-0.359723
-0.34821
-0.338671
-0.327992
-0.315885
-0.301778
-0.285279
-0.266989
-0.247709
-0.229522
-0.34948
-0.339247
-0.330529
-0.320912
-0.310295
-0.298219
-0.284058
-0.268018
-0.250442
-0.233652
-0.339893
-0.330902
-0.322967
-0.31428
-0.304912
-0.294535
-0.282457
-0.268586
-0.252731
-0.237419
-0.331008
-0.323202
-0.31602
-0.308161
-0.299849
-0.290881
-0.280601
-0.268766
-0.254603
-0.240876
-0.322845
-0.316152
-0.309695
-0.302586
-0.295178
-0.287381
-0.278614
-0.26864
-0.25608
-0.244082
-0.315403
-0.309737
-0.303978
-0.297563
-0.290939
-0.284125
-0.27661
-0.268296
-0.257176
-0.2471
-0.308665
-0.303931
-0.298838
-0.293076
-0.287144
-0.281164
-0.274683
-0.267829
-0.257899
-0.250005
-0.302597
-0.298697
-0.294237
-0.289095
-0.283788
-0.278525
-0.272894
-0.267323
-0.258257
-0.25286
-0.297156
-0.293993
-0.290125
-0.285575
-0.28085
-0.276212
-0.271279
-0.266844
-0.258264
-0.255731
-0.292291
-0.28977
-0.286453
-0.282467
-0.278291
-0.274211
-0.269852
-0.266419
-0.257981
-0.258482
-0.287944
-0.285977
-0.283169
-0.279716
-0.276062
-0.272484
-0.268617
-0.266013
-0.25747
-0.261254
-0.284053
-0.282564
-0.280218
-0.277265
-0.274104
-0.270985
-0.267568
-0.265454
-0.256983
-0.262031
-0.280554
-0.279482
-0.27755
-0.27506
-0.272358
-0.269658
-0.266663
-0.264635
-0.257177
-0.247973
-0.277395
-0.276681
-0.27512
-0.273052
-0.27077
-0.268453
-0.265846
-0.26366
-0.257974
-0.244298
-0.274525
-0.274119
-0.272884
-0.271199
-0.269296
-0.267324
-0.265072
-0.262784
-0.258822
-0.244963
-0.271896
-0.271754
-0.270817
-0.269467
-0.267903
-0.266239
-0.264301
-0.262037
-0.259208
-0.246077
-0.269469
-0.269562
-0.268888
-0.267833
-0.266569
-0.26518
-0.263511
-0.261369
-0.259192
-0.24734
-0.267214
-0.26752
-0.267075
-0.266283
-0.265283
-0.26414
-0.262715
-0.260763
-0.258999
-0.248846
-0.26511
-0.265611
-0.265367
-0.264806
-0.264043
-0.263123
-0.261931
-0.260206
-0.25878
-0.250428
-0.26314
-0.263822
-0.263757
-0.263401
-0.262849
-0.262138
-0.261173
-0.259673
-0.25862
-0.251888
-0.261296
-0.262147
-0.26224
-0.262066
-0.261706
-0.261189
-0.26043
-0.259161
-0.258566
-0.253088
-0.259572
-0.260583
-0.260817
-0.260804
-0.260618
-0.260281
-0.259725
-0.258813
-0.258445
-0.253983
-0.257968
-0.259129
-0.25949
-0.25962
-0.25959
-0.259418
-0.259056
-0.258446
-0.258063
-0.254892
-0.256488
-0.257791
-0.258263
-0.25852
-0.258628
-0.258605
-0.25842
-0.258061
-0.257747
-0.255741
-0.255137
-0.256572
-0.257143
-0.257511
-0.25774
-0.257848
-0.257822
-0.25767
-0.257472
-0.256258
-0.253925
-0.25548
-0.256138
-0.256601
-0.256934
-0.257156
-0.257265
-0.25728
-0.257206
-0.256526
-0.25286
-0.254523
-0.255255
-0.255799
-0.256219
-0.256536
-0.256758
-0.256904
-0.25695
-0.256639
-0.251954
-0.253711
-0.254504
-0.255114
-0.255605
-0.256
-0.256312
-0.25656
-0.256709
-0.256655
-0.251216
-0.25305
-0.253893
-0.254555
-0.255102
-0.255557
-0.255939
-0.256264
-0.256498
-0.256618
-0.250656
-0.25255
-0.253429
-0.25413
-0.254718
-0.255218
-0.25565
-0.25603
-0.256327
-0.256564
-0.25028
-0.252215
-0.253119
-0.253845
-0.254461
-0.254989
-0.255454
-0.255871
-0.256211
-0.256518
-0.250096
-0.25205
-0.252967
-0.253706
-0.254335
-0.254878
-0.25536
-0.255794
-0.256157
-0.256499
-0.258015
-0.257087
-0.258486
-0.257922
-0.258187
-0.257387
-0.256489
-0.254739
-0.252408
-0.249101
-0.24477
-0.239192
-0.232099
-0.22341
-0.212643
-0.200216
-0.185031
-0.168883
-0.149428
-0.130723
-0.109236
-0.0900894
-0.0704801
-0.0533366
-0.0392191
-0.0254769
-0.0179495
-0.00754932
-0.00561892
0.00214051
-0.25816
-0.257146
-0.258583
-0.258018
-0.258296
-0.257506
-0.256611
-0.254867
-0.252485
-0.249117
-0.244705
-0.239027
-0.231837
-0.223091
-0.212327
-0.200011
-0.185028
-0.169155
-0.149922
-0.131381
-0.109909
-0.0905339
-0.0706381
-0.053246
-0.0388123
-0.0250546
-0.0176526
-0.0073467
-0.00573697
0.0019814
-0.258426
-0.257233
-0.258736
-0.258157
-0.258448
-0.25767
-0.256777
-0.255022
-0.252629
-0.249176
-0.2447
-0.238928
-0.231648
-0.222845
-0.21209
-0.199886
-0.1851
-0.169485
-0.150472
-0.13211
-0.110629
-0.0910216
-0.070837
-0.0531902
-0.038442
-0.0246621
-0.0173786
-0.00716255
-0.00586376
0.0018169
-0.258804
-0.257341
-0.258939
-0.258335
-0.258639
-0.257874
-0.256983
-0.255223
-0.252805
-0.24937
-0.244755
-0.238894
-0.231531
-0.222681
-0.211991
-0.199831
-0.185237
-0.169838
-0.151204
-0.132882
-0.111387
-0.0915458
-0.0710724
-0.0531686
-0.0381125
-0.0243055
-0.0171327
-0.00700143
-0.00599886
0.00164901
-0.259283
-0.257459
-0.259181
-0.258544
-0.258862
-0.258111
-0.257224
-0.255464
-0.253024
-0.24953
-0.244853
-0.238922
-0.231484
-0.222593
-0.211919
-0.199927
-0.185479
-0.170385
-0.151877
-0.133691
-0.112173
-0.0920969
-0.0713432
-0.0531808
-0.0378279
-0.02399
-0.0169187
-0.00686927
-0.00614193
0.00147927
-0.25985
-0.257577
-0.259451
-0.258774
-0.259106
-0.258372
-0.25749
-0.255734
-0.253279
-0.249748
-0.244997
-0.239009
-0.231503
-0.222575
-0.211909
-0.200044
-0.185808
-0.170865
-0.152601
-0.134529
-0.112979
-0.0926711
-0.0716446
-0.0532269
-0.0375918
-0.0237207
-0.0167399
-0.00676686
-0.00629298
0.00130906
-0.260491
-0.257683
-0.259735
-0.259017
-0.259362
-0.258648
-0.257772
-0.256025
-0.253561
-0.250003
-0.245255
-0.239148
-0.231582
-0.222626
-0.21198
-0.200212
-0.186147
-0.171447
-0.153361
-0.135388
-0.113794
-0.0932632
-0.0719745
-0.0533072
-0.0374075
-0.0235018
-0.016599
-0.00669911
-0.00645041
0.00113945
-0.261192
-0.257764
-0.260017
-0.259261
-0.259618
-0.258928
-0.258061
-0.256328
-0.253861
-0.250282
-0.24548
-0.239332
-0.231715
-0.222737
-0.212114
-0.200451
-0.186548
-0.172073
-0.154142
-0.136248
-0.114623
-0.0938686
-0.0723319
-0.0534224
-0.0372778
-0.0233365
-0.0164985
-0.00666828
-0.00661397
0.000971261
-0.261963
-0.257801
-0.260282
-0.259494
-0.259861
-0.2592
-0.258346
-0.256632
-0.254168
-0.250578
-0.245766
-0.239553
-0.231894
-0.2229
-0.212304
-0.200742
-0.186992
-0.172723
-0.154936
-0.137113
-0.115451
-0.094484
-0.0727158
-0.0535736
-0.0372049
-0.0232276
-0.01644
-0.0066754
-0.0067828
0.000805012
-0.262787
-0.257786
-0.260522
-0.259702
-0.26008
-0.259453
-0.258614
-0.256926
-0.254473
-0.250879
-0.245998
-0.239801
-0.232111
-0.223108
-0.21254
-0.201079
-0.187466
-0.173384
-0.15574
-0.137974
-0.116274
-0.0951071
-0.0731261
-0.0537618
-0.0371906
-0.0231765
-0.0164245
-0.00672107
-0.0069559
0.000640983
-0.263368
-0.257818
-0.260704
-0.259875
-0.260263
-0.259673
-0.258856
-0.2572
-0.254765
-0.251177
-0.246397
-0.240071
-0.232357
-0.223353
-0.212815
-0.201445
-0.18797
-0.174057
-0.156541
-0.138823
-0.117091
-0.0957364
-0.0735629
-0.0539885
-0.0372359
-0.0231842
-0.0164524
-0.0068053
-0.00713223
0.000479231
-0.263869
-0.257905
-0.260751
-0.260032
-0.26039
-0.259853
-0.259059
-0.257442
-0.255033
-0.25146
-0.246623
-0.240349
-0.232623
-0.223625
-0.213119
-0.201838
-0.188487
-0.17473
-0.157334
-0.139657
-0.117899
-0.0963713
-0.0740269
-0.054255
-0.0373414
-0.0232505
-0.0165236
-0.00692742
-0.00731071
0.000319639
-0.26436
-0.257944
-0.260738
-0.260124
-0.260457
-0.259977
-0.259212
-0.257642
-0.255268
-0.25172
-0.246904
-0.240629
-0.232899
-0.223916
-0.213445
-0.202249
-0.18901
-0.175397
-0.158112
-0.14047
-0.118697
-0.0970115
-0.0745188
-0.0545626
-0.0375075
-0.023375
-0.0166372
-0.0070862
-0.00749025
0.000161961
-0.264808
-0.257948
-0.260653
-0.260135
-0.260452
-0.260033
-0.259305
-0.257789
-0.255458
-0.251947
-0.247154
-0.240898
-0.233178
-0.224217
-0.213782
-0.202668
-0.189533
-0.17605
-0.158872
-0.141259
-0.119485
-0.0976575
-0.0750394
-0.0549122
-0.0377336
-0.0235562
-0.0167921
-0.00727991
-0.00766979
5.85961e-06
-0.265174
-0.257936
-0.260473
-0.260056
-0.26036
-0.260009
-0.259325
-0.257871
-0.255592
-0.252129
-0.247371
-0.241149
-0.233449
-0.22452
-0.214124
-0.203089
-0.190049
-0.176683
-0.159609
-0.142023
-0.120261
-0.0983093
-0.0755889
-0.0553043
-0.0380185
-0.0237923
-0.0169868
-0.00750645
-0.00784833
-0.00014904
-0.265408
-0.2579
-0.260189
-0.259869
-0.260168
-0.259891
-0.259261
-0.257877
-0.25566
-0.252253
-0.247546
-0.241372
-0.233703
-0.224815
-0.214462
-0.203503
-0.19055
-0.17729
-0.160318
-0.142756
-0.121022
-0.098965
-0.0761653
-0.0557372
-0.0383595
-0.0240804
-0.0172189
-0.00776336
-0.00802492
-0.000303119
-0.265387
-0.257804
-0.259798
-0.259565
-0.259866
-0.259673
-0.259104
-0.257797
-0.255653
-0.252329
-0.247666
-0.241554
-0.233929
-0.225092
-0.214785
-0.203899
-0.191028
-0.177864
-0.160994
-0.143457
-0.121769
-0.0996253
-0.0767695
-0.0562118
-0.038756
-0.0244184
-0.017487
-0.00804834
-0.00819902
-0.000456781
-0.265015
-0.257642
-0.259302
-0.25913
-0.259441
-0.259341
-0.258845
-0.257626
-0.255564
-0.252241
-0.247719
-0.241691
-0.234125
-0.225351
-0.215095
-0.204284
-0.191491
-0.178416
-0.161653
-0.144145
-0.122523
-0.100313
-0.0774217
-0.0567432
-0.0392173
-0.0248101
-0.0177928
-0.00836036
-0.00837083
-0.000610552
-0.264591
-0.257339
-0.258616
-0.258481
-0.258814
-0.25883
-0.258433
-0.257326
-0.25538
-0.252331
-0.247712
-0.241789
-0.234304
-0.225611
-0.215416
-0.204682
-0.191964
-0.178971
-0.162321
-0.144846
-0.123309
-0.101047
-0.0781352
-0.0573391
-0.0397457
-0.025255
-0.0181347
-0.00869767
-0.00853974
-0.000764882
-0.262126
-0.256087
-0.257561
-0.257483
-0.257899
-0.258073
-0.257802
-0.256823
-0.254998
-0.25189
-0.247566
-0.241768
-0.234371
-0.225765
-0.215633
-0.20497
-0.192324
-0.179394
-0.162847
-0.145388
-0.123937
-0.101639
-0.0787364
-0.0578624
-0.0402368
-0.0256948
-0.0184758
-0.00904566
-0.00869839
-0.00091891
-0.25018
-0.253559
-0.256385
-0.25643
-0.25694
-0.257274
-0.257118
-0.25625
-0.254549
-0.25188
-0.247219
-0.241439
-0.234081
-0.225524
-0.215458
-0.204863
-0.192316
-0.179434
-0.163002
-0.145538
-0.124194
-0.101892
-0.0790824
-0.0582217
-0.0406543
-0.0261502
-0.0188482
-0.00946659
-0.00887237
-0.00110594
-0.245266
-0.250978
-0.254156
-0.254281
-0.254938
-0.255508
-0.25551
-0.254751
-0.253075
-0.250084
-0.245922
-0.240264
-0.233012
-0.224581
-0.21464
-0.204158
-0.191743
-0.178918
-0.162647
-0.145218
-0.124097
-0.101915
-0.0793501
-0.0586123
-0.0411938
-0.026761
-0.0193456
-0.0100051
-0.00907277
-0.00132418
-0.242058
-0.247603
-0.25071
-0.251153
-0.252092
-0.252976
-0.253203
-0.25261
-0.251054
-0.248319
-0.244176
-0.238638
-0.231521
-0.223245
-0.213458
-0.203106
-0.190837
-0.17807
-0.161985
-0.14462
-0.123784
-0.101799
-0.0795559
-0.0590079
-0.0417862
-0.0274403
-0.0198969
-0.0105877
-0.0092699
-0.00154573
-0.238516
-0.243002
-0.245848
-0.246896
-0.248296
-0.249586
-0.250131
-0.24979
-0.248446
-0.245927
-0.241949
-0.236599
-0.229672
-0.221597
-0.212003
-0.201802
-0.189706
-0.177006
-0.16114
-0.143872
-0.123377
-0.101652
-0.0797857
-0.0594727
-0.0424697
-0.0282102
-0.0205106
-0.0112204
-0.0094644
-0.00177277
-0.233207
-0.237133
-0.23969
-0.241465
-0.243474
-0.24525
-0.246196
-0.24619
-0.24513
-0.242874
-0.239163
-0.234072
-0.2274
-0.219579
-0.210227
-0.200206
-0.188315
-0.175701
-0.160095
-0.142969
-0.122873
-0.101478
-0.0800423
-0.060011
-0.0432446
-0.0290708
-0.0211853
-0.0119011
-0.00965748
-0.00200392
-0.225876
-0.230125
-0.232521
-0.234987
-0.237678
-0.239989
-0.241387
-0.241776
-0.241063
-0.239143
-0.23576
-0.231009
-0.224656
-0.217143
-0.208084
-0.198277
-0.186632
-0.174133
-0.158831
-0.1419
-0.122263
-0.10127
-0.0803169
-0.0606142
-0.0440998
-0.0300137
-0.0219149
-0.0126242
-0.00985103
-0.00223669
-0.21704
-0.222176
-0.224661
-0.227713
-0.231075
-0.233938
-0.235807
-0.236621
-0.236296
-0.234764
-0.231774
-0.227413
-0.221436
-0.21428
-0.205566
-0.196008
-0.184651
-0.172304
-0.157351
-0.140677
-0.121552
-0.10103
-0.0806039
-0.0612736
-0.0450225
-0.0310281
-0.0226923
-0.0133832
-0.0100478
-0.00246848
-0.207206
-0.213506
-0.216376
-0.219916
-0.223881
-0.227286
-0.229624
-0.230869
-0.23095
-0.22983
-0.227261
-0.223336
-0.217784
-0.211019
-0.202693
-0.19342
-0.182391
-0.170239
-0.155675
-0.139318
-0.12075
-0.100761
-0.0808973
-0.0619776
-0.0459972
-0.0321006
-0.023509
-0.0141711
-0.0102511
-0.0026966
-0.196822
-0.204347
-0.207847
-0.211824
-0.216301
-0.22022
-0.223017
-0.224684
-0.225171
-0.224469
-0.22233
-0.218827
-0.213765
-0.207418
-0.199511
-0.190553
-0.179886
-0.167973
-0.153833
-0.137851
-0.119871
-0.100467
-0.0811893
-0.0627118
-0.0470059
-0.0332154
-0.0243557
-0.0149799
-0.0104645
-0.00291846
-0.186284
-0.194907
-0.199188
-0.203594
-0.208499
-0.212891
-0.216137
-0.218215
-0.219101
-0.218809
-0.217107
-0.214058
-0.209461
-0.203546
-0.196079
-0.187462
-0.177184
-0.165553
-0.15186
-0.136304
-0.118932
-0.100148
-0.0814714
-0.0634605
-0.0480299
-0.0343556
-0.0252223
-0.015801
-0.0106909
-0.00313177
-0.175841
-0.185348
-0.19047
-0.195325
-0.200594
-0.205411
-0.209092
-0.211574
-0.212851
-0.212959
-0.211691
-0.209084
-0.204952
-0.199476
-0.192461
-0.184205
-0.174333
-0.163023
-0.149794
-0.134702
-0.117947
-0.0998069
-0.0817355
-0.0642081
-0.0490515
-0.0355045
-0.0260991
-0.0166258
-0.0109328
-0.00333468
-0.165642
-0.175807
-0.181749
-0.187074
-0.192667
-0.197861
-0.201958
-0.204839
-0.206501
-0.206999
-0.206156
-0.203981
-0.20031
-0.195272
-0.188711
-0.180835
-0.17138
-0.160423
-0.147666
-0.133068
-0.116929
-0.0994444
-0.0819747
-0.0649406
-0.050055
-0.0366465
-0.0269771
-0.0174461
-0.0111915
-0.00352589
-0.155788
-0.166396
-0.173079
-0.178883
-0.184777
-0.1903
-0.194787
-0.198058
-0.200103
-0.200982
-0.200553
-0.198803
-0.195585
-0.190982
-0.184875
-0.17739
-0.16836
-0.157785
-0.145503
-0.13142
-0.115889
-0.0990607
-0.0821831
-0.0656461
-0.0510279
-0.0377679
-0.0278484
-0.0182544
-0.0114673
-0.00370468
-0.146347
-0.15721
-0.164523
-0.170789
-0.176969
-0.182779
-0.187622
-0.191272
-0.193694
-0.194946
-0.194921
-0.193586
-0.190813
-0.186642
-0.180984
-0.173903
-0.165301
-0.15513
-0.143325
-0.129768
-0.114834
-0.098656
-0.082357
-0.0663157
-0.0519609
-0.0388575
-0.0287064
-0.0190438
-0.0117591
-0.00387091
-0.137366
-0.148325
-0.156142
-0.162832
-0.169283
-0.175343
-0.180505
-0.184513
-0.187303
-0.188922
-0.189289
-0.18836
-0.186023
-0.182279
-0.177064
-0.170396
-0.162224
-0.152474
-0.141144
-0.128121
-0.11377
-0.0982302
-0.0824939
-0.0669424
-0.0528471
-0.0399062
-0.0295454
-0.0198086
-0.0120651
-0.00402487
-0.128877
-0.139804
-0.147999
-0.155058
-0.161758
-0.168036
-0.173477
-0.177817
-0.180962
-0.182938
-0.183684
-0.183151
-0.181237
-0.177916
-0.173137
-0.166889
-0.159146
-0.14983
-0.138973
-0.126485
-0.112702
-0.0977839
-0.0825928
-0.0675214
-0.0536823
-0.0409069
-0.0303609
-0.0205441
-0.0123823
-0.00416728
-0.120905
-0.131697
-0.140151
-0.147512
-0.154432
-0.160901
-0.166583
-0.171223
-0.174703
-0.177024
-0.178135
-0.177986
-0.176482
-0.173576
-0.169225
-0.163398
-0.156084
-0.14721
-0.136822
-0.124863
-0.111635
-0.0973182
-0.0826537
-0.0680497
-0.0544635
-0.041854
-0.0311486
-0.0212464
-0.0127073
-0.00429912
-0.113464
-0.124042
-0.13265
-0.140242
-0.147347
-0.153977
-0.159864
-0.16477
-0.168561
-0.171211
-0.172673
-0.172893
-0.171783
-0.169285
-0.165351
-0.159944
-0.153054
-0.144624
-0.1347
-0.123263
-0.110572
-0.0968348
-0.0826778
-0.0685252
-0.055189
-0.0427431
-0.0319049
-0.0219122
-0.013036
-0.00442148
-0.106563
-0.116869
-0.12554
-0.133294
-0.140543
-0.147306
-0.153364
-0.158502
-0.162576
-0.165536
-0.16733
-0.167903
-0.16717
-0.165067
-0.161539
-0.156547
-0.150075
-0.142087
-0.13262
-0.121692
-0.109519
-0.0963368
-0.0826668
-0.068947
-0.0558576
-0.0435708
-0.032626
-0.0225393
-0.0133641
-0.00453543
-0.100203
-0.110197
-0.118857
-0.12671
-0.134063
-0.140929
-0.147126
-0.152462
-0.156787
-0.160035
-0.162141
-0.16305
-0.162675
-0.160952
-0.157816
-0.153229
-0.147167
-0.139612
-0.130592
-0.120156
-0.108484
-0.095828
-0.0826232
-0.0693154
-0.0564685
-0.0443348
-0.033308
-0.0231257
-0.0136871
-0.00464185
-0.0943847
-0.104043
-0.112633
-0.120528
-0.127946
-0.134887
-0.141193
-0.146694
-0.15124
-0.15475
-0.157146
-0.15837
-0.158334
-0.156971
-0.154211
-0.150016
-0.144352
-0.137219
-0.128631
-0.118668
-0.107472
-0.0953135
-0.0825505
-0.0696313
-0.0570215
-0.0450333
-0.0339473
-0.0236699
-0.0140003
-0.00474137
-0.0891037
-0.0984173
-0.106894
-0.114784
-0.122231
-0.129219
-0.135608
-0.141244
-0.14598
-0.149724
-0.152386
-0.153904
-0.154183
-0.153161
-0.150756
-0.146935
-0.141653
-0.134924
-0.126752
-0.117237
-0.106494
-0.0947997
-0.0824528
-0.0698969
-0.0575165
-0.0456654
-0.0345401
-0.0241705
-0.0142994
-0.0048343
-0.0843567
-0.093329
-0.101662
-0.109512
-0.116957
-0.123968
-0.130415
-0.136158
-0.141054
-0.145004
-0.147907
-0.149693
-0.150264
-0.149558
-0.147486
-0.144018
-0.139098
-0.132752
-0.124974
-0.115877
-0.105559
-0.0942942
-0.082335
-0.0701149
-0.0579538
-0.0462307
-0.0350828
-0.0246261
-0.0145801
-0.0049206
-0.080142
-0.0887864
-0.0969592
-0.104742
-0.112162
-0.119175
-0.125659
-0.131485
-0.136512
-0.14064
-0.143755
-0.145784
-0.146621
-0.146204
-0.144439
-0.141297
-0.136715
-0.130725
-0.123314
-0.114605
-0.104678
-0.0938061
-0.082203
-0.0702894
-0.0583343
-0.0467291
-0.0355719
-0.0250352
-0.0148386
-0.00499987
-0.07646
-0.0847996
-0.092807
-0.100507
-0.107885
-0.114884
-0.121387
-0.127274
-0.132408
-0.136685
-0.139985
-0.142228
-0.143302
-0.143145
-0.141657
-0.138811
-0.134538
-0.128872
-0.121797
-0.113438
-0.103866
-0.0933456
-0.0820638
-0.0704246
-0.0586591
-0.0471608
-0.0360042
-0.0253962
-0.0150712