/*--------------------------------*- C++ -*----------------------------------*\
  =========                 |
  \\      /  F ield         | OpenFOAM: The Open Source CFD Toolbox
   \\    /   O peration     | Website:  https://openfoam.org
    \\  /    A nd           | Version:  7
     \\/     M anipulation  |
\*---------------------------------------------------------------------------*/
FoamFile
{
    version     2.0;
    format      ascii;
    class       surfaceScalarField;
    location    "60";
    object      phi;
}
// * * * * * * * * * * * * * * * * * * * * * * * * * * * * * * * * * * * * * //

dimensions      [0 3 -1 0 0 0 0];

internalField   nonuniform List<scalar> 
16735
(
-7.31247e-05
7.60502e-05
-2.9255e-06
-0.000260744
0.00019494
-7.32039e-06
-0.000543705
0.000293786
-1.08256e-05
-0.000903144
0.000372997
-1.35579e-05
-0.001322
0.00043458
-1.57224e-05
-0.00178679
0.000482364
-1.75725e-05
-0.00228974
0.0005223
-1.93492e-05
-0.00283157
0.000563052
-2.12294e-05
-0.00342361
0.000615341
-2.32994e-05
0.000691942
-2.55392e-05
-0.00409001
-7.22732e-05
0.000148323
-0.000257796
0.000380463
-0.000537513
0.000573503
-0.000892493
0.000727976
-0.0013054
0.000847485
-0.0017622
0.000939166
-0.00225427
0.00101437
-0.00278128
0.00109007
-0.00335373
0.00118779
0.00133339
-0.00399518
-7.06398e-05
0.000218963
-0.000252114
0.000561938
-0.000525536
0.000846925
-0.000871825
0.00107426
-0.00127309
0.00124875
-0.00171423
0.00138031
-0.00218491
0.00148505
-0.00268266
0.00158782
-0.00321617
0.0017213
0.00192481
-0.0038076
-6.82906e-05
0.000287254
-0.000243893
0.00073754
-0.000508133
0.00111117
-0.000841702
0.00140783
-0.00122591
0.00163296
-0.00164406
0.00179845
-0.00208324
0.00192423
-0.00253766
0.00204224
-0.00301308
0.00219672
0.0024405
-0.00352877
-6.53175e-05
0.000352571
-0.0002334
0.000905622
-0.000485799
0.00136356
-0.000802891
0.00172493
-0.00116496
0.00199503
-0.00155326
0.00218675
-0.00195143
0.0023224
-0.00234902
0.00243982
-0.00274751
0.00259521
0.00285374
-0.00316075
-6.18306e-05
0.000414402
-0.000220955
0.00106475
-0.000459111
0.00160172
-0.000756273
0.00202209
-0.00109151
0.00233026
-0.00144362
0.00253886
-0.00179199
0.00267077
-0.00211996
0.00276779
-0.00242317
0.00289842
0.00313656
-0.00270599
-5.79491e-05
0.000472351
-0.000206898
0.0012137
-0.000428669
0.00182349
-0.00070273
0.00229615
-0.00100677
0.00263431
-0.00131684
0.00284893
-0.00160731
0.00296124
-0.00185368
0.00301416
-0.00204388
0.00308862
0.00325987
-0.00216718
-5.3792e-05
0.000526143
-0.00019156
0.00135146
-0.00039503
0.00202696
-0.000643018
0.00254414
-0.000911708
0.002903
-0.00117414
0.00311136
-0.00139911
0.00318621
-0.00155256
0.00316761
-0.00161262
0.00314867
0.00319443
-0.00154718
-4.94701e-05
0.000575613
-0.000175231
0.00147722
-0.000358638
0.00221037
-0.000577637
0.00276314
-0.000806743
0.0031321
-0.00101582
0.00332045
-0.00116766
0.00333805
-0.0012169
0.00321684
-0.00112954
0.00306132
0.00291487
-0.000849977
-4.50794e-05
0.000620692
-0.000158144
0.00159029
-0.000319771
0.00237199
-0.000506714
0.00295008
-0.000691561
0.00331695
-0.000840801
0.00346969
-0.000910921
0.00340818
-0.000843116
0.00314903
-0.000585295
0.00280349
0.00242637
-9.67983e-05
-4.06971e-05
0.00066139
-0.00014045
0.00169004
-0.000278505
0.00251005
-0.00042992
0.00310149
-0.000564926
0.00345196
-0.000646271
0.00355103
-0.00062413
0.00338603
-0.000424983
0.00294989
5.80359e-05
0.00232048
0.00165322
0.000831187
-3.63807e-05
0.00069777
-0.000122217
0.00177588
-0.000234693
0.00262253
-0.000346432
0.00321323
-0.000424561
0.00353009
-0.000427373
0.00355384
-0.000298502
0.00325716
3.78545e-05
0.00261353
0.000730053
0.00162828
0.000510514
0.00187276
-3.21676e-05
0.000729938
-0.000103429
0.00184714
-0.000187969
0.00270707
-0.000254943
0.00328021
-0.000267167
0.00354231
-0.000177187
0.00346386
8.09974e-05
0.00299898
0.000602946
0.00209158
0.00154202
0.000689205
-0.00101922
0.00307175
-2.80748e-05
0.000758013
-8.39781e-05
0.00190304
-0.000137759
0.00276085
-0.00015374
0.00329619
-8.86868e-05
0.00347726
0.000112649
0.00326253
0.000526085
0.00258554
0.00126325
0.00135442
0.00251574
-0.000563281
-0.00297432
0.00447084
-2.40937e-05
0.000782106
-6.36574e-05
0.00194261
-8.32698e-05
0.00278046
-4.0718e-05
0.00325364
0.000115568
0.00332097
0.000451761
0.00292633
0.00105727
0.00198003
0.002058
0.000353687
0.0036973
-0.00220257
-0.00538844
0.00611141
-2.01794e-05
0.000802286
-4.21259e-05
0.00196455
-2.34146e-05
0.00276175
8.65873e-05
0.00314363
0.00035077
0.00305679
0.000850002
0.0024271
0.00169186
0.00113817
0.00301741
-0.000971866
0.00513165
-0.0043168
-0.00827799
0.00802119
-1.62334e-05
0.000818519
-1.8827e-05
0.00196715
4.30926e-05
0.00269983
0.000231148
0.00295558
0.000622583
0.00266535
0.0013174
0.00173228
0.00244654
9.03192e-06
0.00416787
-0.0026932
0.00684591
-0.00699485
-0.0116288
0.0101967
-1.2097e-05
0.000830616
7.03468e-06
0.00194802
0.000118152
0.00258871
0.000396618
0.00267711
0.000937389
0.00212458
0.00186408
0.000805593
0.00333577
-0.00146266
0.00553147
-0.0048889
0.00883451
-0.0102979
-0.0153881
0.0125938
-7.58844e-06
0.000838205
3.59765e-05
0.00190445
0.000204164
0.00242052
0.000587502
0.00229377
0.00130244
0.00140964
0.00250023
-0.000392196
0.00437104
-0.00333347
0.00712653
-0.00764438
0.0110588
-0.0142302
-0.0194702
0.0151409
-2.08731e-06
0.000840292
7.00593e-05
0.0018323
0.000304224
0.00218636
0.00080919
0.00178881
0.00172572
0.00049311
0.00323502
-0.0019015
0.00555628
-0.00565473
0.00894432
-0.0110324
0.0134873
-0.0187732
-0.0237501
0.0177673
4.78567e-06
0.000835506
0.000110718
0.00172637
0.000421907
0.00187517
0.00106777
0.00114295
0.00221542
-0.000654545
0.00407523
-0.00376131
0.00688321
-0.0084627
0.0108972
-0.0150464
0.0159631
-0.0238391
-0.0314101
0.023623
1.33266e-05
0.00082218
0.000159775
0.00157992
0.000561099
0.00147385
0.00136952
0.000334532
0.00277905
-0.00206407
0.00502379
-0.00600605
0.00833627
-0.0117752
0.0129041
-0.0196142
0.0184449
-0.0293799
-0.0387357
0.0257705
2.43507e-05
0.000797829
0.00021916
0.00138511
0.000725614
0.000967392
0.00172007
-0.000659919
0.00342163
-0.00376564
0.00607649
-0.00866091
0.00988506
-0.0155838
0.0148936
-0.0246228
0.0207366
-0.0352229
-0.0456117
0.0276127
3.83625e-05
0.000759467
0.000290627
0.00113285
0.0009187
0.000339318
0.00212326
-0.00186448
0.00414334
-0.00578572
0.00721775
-0.0117353
0.0114759
-0.0198419
0.0167879
-0.0299347
0.0226759
-0.041111
-0.0519373
0.0290015
5.58282e-05
0.000703638
0.000375591
0.000813087
0.00114255
-0.00042764
0.00258005
-0.00330197
0.00493721
-0.00814287
0.00841766
-0.0152158
0.013036
-0.0244603
0.0184777
-0.0353764
0.0241764
-0.0468097
-0.0576105
0.0298496
7.71113e-05
0.000626527
0.000474973
0.000415225
0.00139789
-0.00135056
0.00308762
-0.0049917
0.0057876
-0.0108429
0.00963167
-0.0190599
0.0144835
-0.0293121
0.0198685
-0.0407613
0.0251942
-0.0521354
-0.0625843
0.030168
0.000102449
0.000524078
0.000589115
-7.14405e-05
0.00168372
-0.00244517
0.00363877
-0.00694674
0.00666988
-0.013874
0.0108044
-0.0231944
0.0157406
-0.0342484
0.020899
-0.0459197
0.0257332
-0.0569696
-0.0668722
0.030021
0.000131948
0.00039213
0.000717712
-0.000657205
0.0019971
-0.00372455
0.00422165
-0.0091713
0.00755144
-0.0172038
0.0118768
-0.0275198
0.0167463
-0.0391178
0.0215467
-0.0507202
0.0258335
-0.0612564
-0.0705253
0.0294867
0.000165576
0.000226554
0.000859776
-0.0013514
0.00233304
-0.00519782
0.00481986
-0.0116581
0.00839452
-0.0207784
0.0127954
-0.0319207
0.0174637
-0.0437861
0.0218218
-0.0550782
0.0255548
-0.0649895
-0.0736161
0.0286456
0.000203167
2.33869e-05
0.00101361
-0.00216184
0.0026845
-0.00686871
0.00541313
-0.0143867
0.00916034
-0.0245256
0.0135192
-0.0362796
0.017882
-0.0481489
0.0217571
-0.0589533
0.0249634
-0.0681958
-0.0762225
0.0275698
0.0002444
-0.000221013
0.00117677
-0.00309421
0.00304246
-0.0087344
0.00597864
-0.0173229
0.00981383
-0.0283608
0.014024
-0.0404897
0.0180112
-0.0521361
0.021398
-0.0623401
0.0241235
-0.0709214
-0.0784183
0.0263194
0.000288807
-0.00050982
0.00134608
-0.00415149
0.00339618
-0.0107845
0.00649301
-0.0204198
0.0103277
-0.0321955
0.0143022
-0.0444642
0.017876
-0.0557099
0.0207935
-0.0652576
0.0230922
-0.07322
-0.0802685
0.0249424
0.00033574
-0.000845559
0.00151767
-0.00533342
0.00373377
-0.0130006
0.00693469
-0.0236207
0.0106849
-0.0359457
0.0143605
-0.0481398
0.0175096
-0.058859
0.0199916
-0.0677396
0.0219174
-0.0751458
-0.0818265
0.0234754
0.000384376
-0.00122994
0.00168705
-0.00663609
0.00404297
-0.0153565
0.00728603
-0.0268637
0.0108786
-0.0395383
0.0142155
-0.0514768
0.0169479
-0.0615914
0.0190351
-0.0698267
0.0206378
-0.0767485
-0.0831349
0.0219462
0.000433729
-0.00166366
0.00184931
-0.00805168
0.00431206
-0.0178193
0.00753477
-0.0300865
0.0109115
-0.042915
0.01389
-0.0544553
0.0162264
-0.0639278
0.0179611
-0.0715615
0.0192839
-0.0780713
-0.0842258
0.0203748
0.00048267
-0.00214633
0.00199935
-0.00956835
0.00453087
-0.0203508
0.00767464
-0.0332302
0.0107929
-0.0460333
0.0134092
-0.0570716
0.0153776
-0.0658962
0.0168003
-0.0729841
0.0178788
-0.0791499
-0.0851231
0.0187761
0.000529965
-0.0026763
0.00213217
-0.0111706
0.00469155
-0.0229102
0.00770497
-0.0362436
0.0105373
-0.0488656
0.012799
-0.0593333
0.0144305
-0.0675277
0.0155773
-0.0741309
0.0164402
-0.0800128
-0.0858438
0.017161
0.000574331
-0.00325063
0.0022432
-0.0128394
0.00478901
-0.025456
0.00762979
-0.0390844
0.0101612
-0.051397
0.0120836
-0.0612557
0.0134095
-0.0688536
0.0143117
-0.0750331
0.0149812
-0.0806823
-0.0864
0.0155374
0.000614491
-0.00386512
0.00232857
-0.0145535
0.0048211
-0.0279485
0.00745663
-0.04172
0.00968247
-0.0536229
0.0112854
-0.0628586
0.0123352
-0.0699034
0.0130189
-0.0757169
0.0135117
-0.0811751
-0.0867999
0.0139115
0.000649235
-0.00451436
0.00238536
-0.0162896
0.00478833
-0.0303515
0.0071953
-0.0441269
0.00911848
-0.0555461
0.0104237
-0.0641638
0.0112242
-0.0707039
0.0117107
-0.0762034
0.0120391
-0.0815034
-0.0870492
0.0122884
0.00067748
-0.00519183
0.0024117
-0.0180239
0.00469352
-0.0326333
0.00685683
-0.0462902
0.00848564
-0.0571749
0.00951534
-0.0651935
0.01009
-0.0712785
0.010396
-0.0765094
0.010569
-0.0816764
-0.0871519
0.0106717
0.000698311
-0.00589015
0.00240683
-0.0197324
0.00454117
-0.0347676
0.00645264
-0.0482017
0.00779888
-0.0585211
0.00857445
-0.0659691
0.00894333
-0.0716474
0.00908197
-0.076648
0.00910586
-0.0817003
-0.0871105
0.00906443
0.000711024
-0.00660117
0.002371
-0.0213923
0.00433696
-0.0367336
0.00599393
-0.0498587
0.00707143
-0.0595986
0.00761273
-0.0665104
0.00779262
-0.0718273
0.00777389
-0.0766293
0.0076532
-0.0815796
-0.0869262
0.00746894
0.000715136
-0.00731631
0.0023054
-0.0229826
0.0040872
-0.0385154
0.00549131
-0.0512628
0.00631483
-0.0604221
0.00663985
-0.0668354
0.00664453
-0.071832
0.0064759
-0.0764607
0.00621373
-0.0813174
-0.0865996
0.00588713
0.000710398
-0.0080267
0.00221193
-0.0244841
0.00379846
-0.0401019
0.00495448
-0.0524188
0.00553894
-0.0610066
0.00566367
-0.0669601
0.00550439
-0.0716727
0.00519128
-0.0761476
0.00478953
-0.0809156
-0.0861305
0.00432035
0.000696781
-0.00872349
0.002093
-0.0258804
0.00347723
-0.0414862
0.00439217
-0.0533337
0.00475212
-0.0613666
0.00469066
-0.0668987
0.00437668
-0.0713587
0.0039233
-0.0756942
0.00338225
-0.0803746
-0.085517
0.00276882
0.000674468
-0.00939795
0.00195136
-0.0271572
0.00312971
-0.0426645
0.00381209
-0.0540161
0.00396136
-0.0615158
0.00372596
-0.0666633
0.00326517
-0.0708979
0.00267598
-0.075105
0.00199415
-0.0796928
-0.0847509
0.00122799
0.00064385
-0.0100418
0.00179009
-0.0283035
0.00276168
-0.0436361
0.00322091
-0.0544753
0.0031724
-0.0614673
0.00277362
-0.0662645
0.00217266
-0.070297
0.00145232
-0.0743847
0.000636614
-0.078877
-0.0838062
-0.000308079
0.0006055
-0.0106473
0.00161242
-0.0293104
0.00237847
-0.0444022
0.0026244
-0.0547213
0.00239
-0.0612329
0.00183691
-0.0657114
0.00110137
-0.0695615
0.000244895
-0.0735282
-0.000696113
-0.077936
-0.082758
-0.00174433
0.000560118
-0.0112074
0.00142134
-0.0301716
0.00198492
-0.0449657
0.0020275
-0.0547638
0.00161792
-0.0608233
0.000918665
-0.0650121
4.49284e-05
-0.0686877
-0.000925795
-0.0725575
-0.00200876
-0.0768531
-0.0815889
-0.00317788
0.000508505
-0.0117159
0.00121975
-0.0308829
0.00158541
-0.0453314
0.00143438
-0.0546128
0.00085902
-0.060248
1.51404e-05
-0.0641683
-0.000970301
-0.0677023
-0.0020728
-0.071455
-0.00328534
-0.0756405
-0.0802871
-0.00458713
0.000451563
-0.0121675
0.00101043
-0.0314417
0.0011837
-0.0455047
0.00084839
-0.0542775
0.000117415
-0.059517
-0.000852176
-0.0631987
-0.00196696
-0.0665875
-0.0031925
-0.0702294
-0.00453099
-0.074302
-0.0788527
-0.00596531
0.000390279
-0.0125578
0.000796258
-0.0318477
0.00078272
-0.0454911
0.000273848
-0.0537686
-0.000605332
-0.0586378
-0.00170339
-0.0621006
-0.0029373
-0.0653536
-0.00428263
-0.0688841
-0.00574534
-0.0728393
-0.0772882
-0.00730989
0.000325571
-0.0128833
0.000580265
-0.0321024
0.000385867
-0.0452967
-0.000289446
-0.0530933
-0.00130898
-0.0576183
-0.00253031
-0.0608793
-0.00387999
-0.0640039
-0.00534222
-0.0674219
-0.00692709
-0.0712545
-0.0755976
-0.0086177
0.000258251
-0.0131416
0.000364406
-0.0322086
1.56055e-05
-0.0449479
-0.000836472
-0.0522412
-0.00199261
-0.0564622
-0.00333205
-0.0595398
-0.00479428
-0.0625417
-0.00637063
-0.0658455
-0.00807478
-0.0695503
-0.0737874
-0.00988497
0.000189939
-0.0133315
0.000150618
-0.0321692
-0.000392626
-0.0444047
-0.00137302
-0.0512608
-0.00265447
-0.0551807
-0.00410771
-0.0580866
-0.00567943
-0.06097
-0.00736711
-0.0641579
-0.00918715
-0.0677303
-0.0718627
-0.0111119
0.000119391
-0.0134509
-5.63427e-05
-0.0319935
-0.000768376
-0.0436926
-0.00189292
-0.0501363
-0.00329389
-0.0537797
-0.00485661
-0.0565239
-0.00653496
-0.0592916
-0.00833117
-0.0623616
-0.0102643
-0.0657972
-0.0698209
-0.012306
4.36163e-05
-0.0134945
-0.000287537
-0.0316624
-0.00113492
-0.0428453
-0.00239411
-0.0488771
-0.00391012
-0.0522637
-0.00557845
-0.0548556
-0.00736123
-0.0575088
-0.00926384
-0.060459
-0.0113051
-0.0637559
-0.0676619
-0.0134642
-3.18652e-05
-0.0134627
-0.000501576
-0.0311927
-0.00149024
-0.0418566
-0.00287596
-0.0474914
-0.00450201
-0.0506377
-0.00627266
-0.0530849
-0.00815882
-0.0556227
-0.0101684
-0.0584495
-0.0123045
-0.0616198
-0.0654003
-0.014566
-0.000102795
-0.0133599
-0.000707234
-0.0305882
-0.00183265
-0.0407312
-0.00333807
-0.045986
-0.00506883
-0.0489069
-0.00693819
-0.0512156
-0.00892574
-0.0536351
-0.0110434
-0.0563318
-0.0133013
-0.0593619
-0.0631747
-0.0155269
-0.00017424
-0.0131856
-0.000905744
-0.0298567
-0.00216121
-0.0394757
-0.00377985
-0.0443673
-0.00561006
-0.0470767
-0.00757401
-0.0492516
-0.00965719
-0.0515519
-0.0118606
-0.0541284
-0.0141496
-0.0570728
-0.060451
-0.0168734
-0.000244344
-0.0129413
-0.00109701
-0.029004
-0.00247532
-0.0380974
-0.00420084
-0.0426418
-0.0061255
-0.045152
-0.00817953
-0.0471976
-0.0103499
-0.0493815
-0.0126329
-0.0518455
-0.0150454
-0.0546603
-0.057742
-0.0177544
-0.000312507
-0.0126288
-0.00128055
-0.028036
-0.00277451
-0.0366034
-0.00460067
-0.0408156
-0.00661483
-0.0431379
-0.00875462
-0.0450578
-0.0110102
-0.0471259
-0.0133863
-0.0494695
-0.0159161
-0.0521305
-0.0550035
-0.0186546
-0.000378345
-0.0122504
-0.00145586
-0.0269585
-0.00305839
-0.0350009
-0.00497902
-0.038895
-0.00707763
-0.0410393
-0.00929848
-0.0428369
-0.0116351
-0.0447892
-0.0140975
-0.0470071
-0.0167157
-0.0495123
-0.0522095
-0.0195097
-0.000441549
-0.0118089
-0.00162246
-0.0257776
-0.0033266
-0.0332968
-0.00533566
-0.036886
-0.00751377
-0.0388612
-0.00981137
-0.0405393
-0.0122256
-0.042375
-0.0147694
-0.0444633
-0.0174673
-0.0468144
-0.0493496
-0.0203272
-0.000501846
-0.011307
-0.00177995
-0.0244995
-0.00357886
-0.0314979
-0.00567042
-0.0347944
-0.00792307
-0.0366085
-0.010293
-0.0381694
-0.0127805
-0.0398875
-0.0153999
-0.041844
-0.0181716
-0.0440427
-0.0464201
-0.0211012
-0.000558997
-0.010748
-0.00192799
-0.0231305
-0.00381494
-0.0296109
-0.00598316
-0.0326262
-0.00830545
-0.0342862
-0.0107433
-0.0357315
-0.0132996
-0.0373312
-0.0159893
-0.0391543
-0.0188307
-0.0412013
-0.043421
-0.0218298
-0.00061279
-0.0101353
-0.0020663
-0.021677
-0.00403464
-0.0276426
-0.00627378
-0.030387
-0.00866081
-0.0318992
-0.011162
-0.0332303
-0.0137826
-0.0347106
-0.0165378
-0.0363991
-0.0194449
-0.0382941
-0.0403547
-0.0225112
-0.000663038
-0.00947222
-0.00219464
-0.0201454
-0.00423781
-0.0255994
-0.0065422
-0.0280826
-0.00898908
-0.0294523
-0.0115491
-0.0306703
-0.0142292
-0.0320305
-0.0170451
-0.0335832
-0.0200139
-0.0353253
-0.0372246
-0.023144
-0.00070958
-0.00876264
-0.00231281
-0.0185421
-0.00442432
-0.0234879
-0.00678838
-0.0257186
-0.00929019
-0.0269505
-0.0119043
-0.0280561
-0.0146393
-0.0292955
-0.0175113
-0.0307112
-0.0205372
-0.0322994
-0.0340348
-0.023727
-0.000752275
-0.00801037
-0.00242066
-0.0168737
-0.00459408
-0.0213145
-0.00701226
-0.0233004
-0.00956409
-0.0243987
-0.0122276
-0.0253926
-0.0150127
-0.0265104
-0.0179359
-0.027788
-0.0210143
-0.029221
-0.0307902
-0.024259
-0.000791003
-0.00721936
-0.00251803
-0.0151467
-0.00474702
-0.0190855
-0.0072138
-0.0208336
-0.00981072
-0.0218018
-0.0125188
-0.0226845
-0.0153493
-0.02368
-0.0183188
-0.0248184
-0.0214448
-0.026095
-0.0274956
-0.0247393
-0.000825662
-0.0063937
-0.00260482
-0.0133676
-0.00488307
-0.0168072
-0.007393
-0.0183237
-0.01003
-0.0191647
-0.0127779
-0.0199366
-0.0156488
-0.0208091
-0.0186598
-0.0218074
-0.0218282
-0.0229266
-0.0241565
-0.0251673
-0.000856163
-0.00553754
-0.00268095
-0.0115428
-0.0050022
-0.014486
-0.00754982
-0.0157761
-0.010222
-0.0164925
-0.0130048
-0.0171538
-0.0159111
-0.0179028
-0.0189585
-0.01876
-0.0221642
-0.0197209
-0.0207783
-0.0255424
-0.000882434
-0.00465511
-0.00274632
-0.00967889
-0.00510437
-0.0121279
-0.00768425
-0.0131962
-0.0103866
-0.0137902
-0.0131994
-0.014341
-0.0161362
-0.014966
-0.0192148
-0.0156814
-0.0224525
-0.0164832
-0.0173666
-0.0258642
-0.000904415
-0.00375069
-0.00280088
-0.00778243
-0.00518954
-0.00973927
-0.00779629
-0.0105894
-0.0105238
-0.0110627
-0.0133616
-0.0115032
-0.0163239
-0.0120037
-0.0194286
-0.0125768
-0.022693
-0.0132188
-0.013927
-0.0261326
-0.000922055
-0.00282863
-0.00284459
-0.0058599
-0.0052577
-0.00732616
-0.00788593
-0.00796122
-0.0106336
-0.00831498
-0.0134915
-0.00864535
-0.0164742
-0.00902101
-0.0195997
-0.00945121
-0.0228854
-0.00993312
-0.010465
-0.0263474
-0.000935318
-0.00189332
-0.00287739
-0.00391782
-0.00530883
-0.00489472
-0.00795316
-0.00531689
-0.0107159
-0.0055522
-0.0135889
-0.00577241
-0.0165869
-0.00602299
-0.0197281
-0.00630998
-0.0230298
-0.00663142
-0.00698639
-0.0265085
-0.000944175
-0.000949142
-0.00289928
-0.00196272
-0.00534292
-0.00245108
-0.00799797
-0.00266184
-0.0107708
-0.00277934
-0.0136538
-0.00288943
-0.0166621
-0.00301476
-0.0198137
-0.0031583
-0.0231261
-0.00331906
-0.00349664
-0.0266158
-0.000948608
-5.3453e-07
-0.00291023
-1.09702e-06
-0.00535996
-1.344e-06
-0.00802038
-1.41957e-06
-0.0107983
-1.43041e-06
-0.0136863
-1.4242e-06
-0.0166996
-1.4124e-06
-0.0198565
-1.3961e-06
-0.0231742
-1.37465e-06
-1.34652e-06
-0.0266695
-0.000948607
0.000948072
-0.00291022
0.00196052
-0.00535996
0.00244839
-0.00802038
0.00265899
-0.0107983
0.00277647
-0.0136863
0.00288658
-0.0166996
0.00301193
-0.0198565
0.00315551
-0.0231742
0.00331631
0.00349395
-0.0266695
-0.000944173
0.00189225
-0.00289927
0.00391562
-0.00534291
0.00489203
-0.00799796
0.00531404
-0.0107708
0.00554933
-0.0136538
0.00576956
-0.016662
0.00602016
-0.0198137
0.00630718
-0.0231261
0.00662866
0.00698369
-0.0266158
-0.000935315
0.00282756
-0.00287738
0.00585769
-0.00530881
0.00732345
-0.00795313
0.00795836
-0.0107159
0.00831211
-0.0135888
0.00864248
-0.0165868
0.00901817
-0.0197281
0.0094484
-0.0230298
0.00993036
0.0104623
-0.0265084
-0.000922051
0.00374961
-0.00284457
0.00778021
-0.00525767
0.00973656
-0.00788589
0.0105866
-0.0106335
0.0110598
-0.0134914
0.0115003
-0.0164741
0.0120009
-0.0195996
0.0125739
-0.0228853
0.0132161
0.0139243
-0.0263473
-0.000904409
0.00465402
-0.00280086
0.00967667
-0.00518951
0.0121252
-0.00779625
0.0131933
-0.0105238
0.0137873
-0.0133616
0.0143382
-0.0163238
0.0149631
-0.0194285
0.0156786
-0.0226928
0.0164804
0.0173639
-0.0261325
-0.000882428
0.00553645
-0.0027463
0.0115405
-0.00510433
0.0144832
-0.0076842
0.0157732
-0.0103865
0.0164896
-0.0131993
0.0171509
-0.0161361
0.0178999
-0.0192147
0.0187572
-0.0224524
0.0197181
0.0207756
-0.0258641
-0.000856155
0.0063926
-0.00268092
0.0133653
-0.00500216
0.0168045
-0.00754975
0.0183208
-0.0102219
0.0191618
-0.0130047
0.0199337
-0.015911
0.0208062
-0.0189583
0.0218045
-0.022164
0.0229238
0.0241538
-0.0255422
-0.000825653
0.00721826
-0.0026048
0.0151444
-0.00488302
0.0190827
-0.00739292
0.0208307
-0.0100299
0.0217988
-0.0127778
0.0226816
-0.0156486
0.0236771
-0.0186596
0.0248155
-0.021828
0.0260922
0.0274928
-0.0251671
-0.000790993
0.00800925
-0.002518
0.0168714
-0.00474696
0.0213117
-0.00721372
0.0232974
-0.0098106
0.0243957
-0.0125187
0.0253897
-0.0153491
0.0265074
-0.0183187
0.027785
-0.0214446
0.0292181
0.0307874
-0.0247391
-0.000752264
0.00876151
-0.00242062
0.0185398
-0.00459402
0.0234851
-0.00701216
0.0257156
-0.00956396
0.0269475
-0.0122274
0.0280531
-0.0150125
0.0292925
-0.0179357
0.0307082
-0.0210141
0.0322965
0.034032
-0.0242588
-0.000709568
0.00947108
-0.00231278
0.020143
-0.00442425
0.0255965
-0.00678827
0.0280796
-0.00929005
0.0294493
-0.0119041
0.0306672
-0.0146391
0.0320275
-0.017511
0.0335802
-0.020537
0.0353224
0.0372217
-0.0237267
-0.000663025
0.0101341
-0.0021946
0.0216746
-0.00423773
0.0276397
-0.00654209
0.030384
-0.00898893
0.0318961
-0.0115489
0.0332272
-0.014229
0.0347076
-0.0170449
0.0363961
-0.0200136
0.0382912
0.0403518
-0.0231437
-0.000612776
0.0107469
-0.00206625
0.0231281
-0.00403455
0.029608
-0.00627365
0.0326231
-0.00866064
0.0342831
-0.0111618
0.0357284
-0.0137823
0.0373281
-0.0165375
0.0391512
-0.0194446
0.0411983
0.0434181
-0.0225109
-0.000558983
0.0113059
-0.00192794
0.024497
-0.00381485
0.0314949
-0.00598302
0.0347912
-0.00830527
0.0366054
-0.0107431
0.0381662
-0.0132994
0.0398844
-0.015989
0.0418409
-0.0188304
0.0440397
0.0464171
-0.0218294
-0.000501832
0.0118077
-0.0017799
0.0257751
-0.00357877
0.0332937
-0.00567028
0.0368828
-0.00792288
0.038858
-0.0102928
0.0405361
-0.0127803
0.0423718
-0.0153995
0.0444601
-0.0181712
0.0468113
0.0493466
-0.0211007
-0.000441535
0.0122492
-0.00162241
0.026956
-0.0033265
0.0349978
-0.00533551
0.0388918
-0.00751356
0.041036
-0.00981112
0.0428337
-0.0122253
0.044786
-0.0147691
0.0470039
-0.0174669
0.0495092
0.0522065
-0.0203267
-0.000378331
0.0126276
-0.00145581
0.0280334
-0.00305828
0.0366003
-0.00497886
0.0408123
-0.00707741
0.0431346
-0.00929821
0.0450545
-0.0116348
0.0471226
-0.0140971
0.0494662
-0.0167152
0.0521273
0.0550004
-0.0195092
-0.000312494
0.0129401
-0.0012805
0.0290014
-0.0027744
0.0380942
-0.0046005
0.0426384
-0.0066146
0.0451487
-0.00875434
0.0471942
-0.0110099
0.0493782
-0.0133859
0.0518422
-0.0159156
0.054657
0.0577388
-0.018654
-0.000244332
0.0131844
-0.00109695
0.0298541
-0.00247521
0.0394725
-0.00420067
0.0443639
-0.00612526
0.0470733
-0.00817923
0.0492482
-0.0103496
0.0515485
-0.0126324
0.0541251
-0.0150449
0.0570695
0.0604477
-0.0177538
-0.000174228
0.0133586
-0.000905689
0.0305855
-0.00216109
0.0407279
-0.00377967
0.0459825
-0.00560981
0.0489034
-0.0075737
0.0512121
-0.00965682
0.0536316
-0.0118601
0.0563284
-0.0141491
0.0593585
0.0631714
-0.0168728
-0.000102785
0.0134614
-0.00070718
0.0311899
-0.00183253
0.0418532
-0.00333788
0.0474878
-0.00506857
0.0506341
-0.00693787
0.0530814
-0.00892535
0.0556191
-0.0110429
0.058446
-0.0133007
0.0616163
0.0653969
-0.0155263
-3.18575e-05
0.0134933
-0.000501524
0.0316596
-0.00149012
0.0428418
-0.00287576
0.0488735
-0.00450175
0.0522601
-0.00627232
0.0548519
-0.00815842
0.0575052
-0.0101679
0.0604555
-0.0123039
0.0637523
0.0676584
-0.0145654
4.36225e-05
0.0134496
-0.000287488
0.0319907
-0.0011348
0.0436891
-0.00239391
0.0501326
-0.00390985
0.053776
-0.00557811
0.0565202
-0.00736081
0.0592879
-0.00926334
0.062358
-0.0113046
0.0657936
0.0698174
-0.0134635
0.000119393
0.0133302
-5.62953e-05
0.0321664
-0.000768255
0.0444011
-0.00189272
0.0512571
-0.00329362
0.0551769
-0.00485625
0.0580828
-0.00653453
0.0609662
-0.00833066
0.0641541
-0.0102637
0.0677266
0.071859
-0.0123053
0.000189937
0.0131403
0.000150651
0.0322057
-0.000392507
0.0449442
-0.00137282
0.0522374
-0.00265419
0.0564583
-0.00410735
0.059536
-0.00567898
0.0625378
-0.00736658
0.0658417
-0.00918654
0.0695465
0.0737837
-0.0111112
0.000258246
0.0128821
0.000364434
0.0320995
1.56864e-05
0.045293
-0.00083628
0.0530893
-0.00199233
0.0576143
-0.00333168
0.0608753
-0.00479383
0.064
-0.00637009
0.067418
-0.00807415
0.0712506
0.0755938
-0.00988423
0.000325562
0.0125565
0.000580288
0.0318448
0.000385969
0.0454873
-0.000289252
0.0537646
-0.00130869
0.0586338
-0.00252994
0.0620966
-0.00387953
0.0653496
-0.00534166
0.0688801
-0.00692643
0.0728354
0.0772843
-0.00861693
0.000390266
0.0121662
0.000796273
0.0314387
0.000782812
0.0455008
0.000274035
0.0542733
-0.000605047
0.0595129
-0.00170301
0.0631946
-0.00293683
0.0665834
-0.00428206
0.0702253
-0.00574466
0.074298
0.0788487
-0.00730909
0.000451545
0.0117147
0.00101044
0.0308799
0.00118378
0.0453274
0.00084857
0.0546085
0.000117699
0.0602437
-0.000851807
0.0641641
-0.00196648
0.0676981
-0.00319192
0.0714508
-0.0045303
0.0756363
0.0802829
-0.00596449
0.000508481
0.0112062
0.00121974
0.0301686
0.00158547
0.0449617
0.00143454
0.0547595
0.000859301
0.060819
1.55615e-05
0.0650078
-0.000969822
0.0686835
-0.00207221
0.0725531
-0.00328463
0.0768488
0.0815846
-0.00458629
0.000560087
0.0106461
0.00142132
0.0293074
0.00198496
0.0443981
0.00202765
0.0547168
0.00161819
0.0612284
0.000919034
0.065707
4.54385e-05
0.069557
-0.0009252
0.0735238
-0.00200803
0.0779316
0.0827535
-0.00317702
0.000605462
0.0100407
0.00161237
0.0283005
0.00237849
0.0436319
0.00262453
0.0544707
0.00239025
0.0614627
0.00183727
0.0662599
0.00110184
0.0702925
0.000245502
0.0743801
-0.000695374
0.0788725
0.0838016
-0.00174345
0.000643805
0.00939685
0.00179002
0.0271542
0.00276167
0.0426603
0.00322101
0.0540114
0.00317263
0.0615111
0.00277396
0.0666586
0.00217313
0.0708933
0.00145291
0.0751003
0.000637332
0.0796881
0.0847462
-0.00030723
0.000674416
0.00872244
0.00195127
0.0258774
0.00312966
0.0414819
0.00381215
0.0533289
0.00396155
0.0613617
0.00372628
0.0668939
0.00326562
0.071354
0.00267657
0.0756894
0.00199488
0.0803697
0.0855121
0.00122892
0.000696723
0.00802571
0.00209288
0.0244812
0.00347715
0.0400976
0.0043922
0.0524139
0.00475228
0.0610016
0.00469095
0.0669552
0.00437711
0.0716678
0.00392387
0.0761426
0.00338297
0.0809106
0.0861254
0.00276973
0.000710333
0.00731538
0.00221178
0.0229798
0.00379833
0.0385111
0.00495445
0.0512578
0.00553905
0.060417
0.00566394
0.0668303
0.0055048
0.0718269
0.00519183
0.0764556
0.00479024
0.0813122
0.0865944
0.00432124
0.000715065
0.00660032
0.00230523
0.0213896
0.00408702
0.0367293
0.00549122
0.0498536
0.00631489
0.0595933
0.00664006
0.0665051
0.0066449
0.0718221
0.00647642
0.0766241
0.00621442
0.0815742
0.0869208
0.00588801
0.000710947
0.00588937
0.00237081
0.0197297
0.00433672
0.0347634
0.00599378
0.0481965
0.00707143
0.0585157
0.0076129
0.0659637
0.00779294
0.0716421
0.00777437
0.0766426
0.00765386
0.0816947
0.0871049
0.00746979
0.00069823
0.00519114
0.0024066
0.0180214
0.00454088
0.0326291
0.0064524
0.046285
0.00779879
0.0571693
0.00857454
0.0651879
0.00894359
0.071273
0.00908241
0.0765038
0.00910647
0.0816707
0.0871461
0.00906526
0.000677394
0.00451375
0.00241145
0.0162873
0.00469317
0.0303474
0.00685651
0.0441216
0.00848546
0.0555403
0.00951535
0.064158
0.0100902
0.0706982
0.0103964
0.0761976
0.0105695
0.0814975
0.0870431
0.0106725
0.000649148
0.0038646
0.00238509
0.0145514
0.00478792
0.0279445
0.00719488
0.0417147
0.00911819
0.053617
0.0104236
0.0628526
0.0112243
0.0698975
0.011711
0.0757109
0.0120395
0.081169
0.0867936
0.0122891
0.000614402
0.0032502
0.00232828
0.0128375
0.00482062
0.0254522
0.00745611
0.0390792
0.00968207
0.0513911
0.0112852
0.0612495
0.0123352
0.0688475
0.0130191
0.075027
0.0135121
0.080676
0.0863935
0.0139122
0.000574243
0.00267595
0.00224289
0.0111688
0.00478848
0.0229066
0.00762916
0.0362385
0.0101607
0.0488596
0.0120833
0.0593269
0.0134094
0.0675214
0.0143118
0.0741245
0.0149815
0.0800063
0.0858371
0.0155379
0.000529879
0.00214607
0.00213186
0.00956686
0.00469096
0.0203475
0.00770423
0.0332252
0.0105366
0.0460272
0.0127985
0.057065
0.0144302
0.0658897
0.0155772
0.0729775
0.0164404
0.0791431
0.085116
0.0171614
0.000482587
0.00166349
0.00199903
0.00805042
0.00453025
0.0178163
0.0076738
0.0300817
0.0107921
0.0429089
0.0134085
0.0544486
0.0153771
0.063921
0.0168
0.0715546
0.0178789
0.0780643
0.0842185
0.0187764
0.000433651
0.00122984
0.001849
0.00663507
0.00431141
0.0153539
0.00753384
0.0268593
0.0109104
0.0395323
0.0138891
0.05147
0.0162257
0.0615844
0.0179607
0.0698196
0.0192837
0.0767413
0.0831272
0.0203749
0.000384303
0.000845534
0.00168675
0.00533262
0.00404231
0.0129983
0.00728501
0.0236166
0.0108774
0.0359399
0.0142144
0.048133
0.016947
0.0588518
0.0190344
0.0677322
0.0206374
0.0751383
0.0818186
0.0219461
0.000335674
0.00050986
0.00151739
0.0041509
0.00373312
0.0107826
0.00693362
0.0204161
0.0106835
0.03219
0.0143591
0.0444574
0.0175084
0.0557025
0.0199906
0.06525
0.0219167
0.0732122
0.0802602
0.0234751
0.00028875
0.00022111
0.00134582
0.00309383
0.00339555
0.00873288
0.00649191
0.0173197
0.0103262
0.0283557
0.0143005
0.0404831
0.0178745
0.0521286
0.0207922
0.0623322
0.0230911
0.0709132
0.0784097
0.0249417
0.000244353
-2.32429e-05
0.00117654
0.00216164
0.00304187
0.00686754
0.00597754
0.014384
0.00981223
0.024521
0.0140221
0.0362733
0.0180092
0.0481415
0.0213962
0.0589452
0.0241221
0.0681873
0.0762135
0.0263183
0.000203132
-0.000226375
0.00101342
0.00135135
0.00268397
0.00519699
0.00541208
0.0116559
0.00915868
0.0207744
0.0135171
0.0319149
0.0178797
0.0437789
0.0217549
0.0550701
0.0249615
0.0649808
0.0736067
0.0275682
0.000165555
-0.000391931
0.000859627
0.000657283
0.00233258
0.00372403
0.00481888
0.00916964
0.00839286
0.0172005
0.0127931
0.0275146
0.0174611
0.0391109
0.021819
0.0507121
0.0255523
0.0612475
0.0705155
0.0286435
0.000131942
-0.000523873
0.000717608
7.16164e-05
0.00199672
0.00244492
0.00422077