/*--------------------------------*- C++ -*----------------------------------*\
  =========                 |
  \\      /  F ield         | OpenFOAM: The Open Source CFD Toolbox
   \\    /   O peration     | Website:  https://openfoam.org
    \\  /    A nd           | Version:  7
     \\/     M anipulation  |
\*---------------------------------------------------------------------------*/
FoamFile
{
    version     2.0;
    format      ascii;
    class       volVectorField;
    location    "60";
    object      U;
}
// * * * * * * * * * * * * * * * * * * * * * * * * * * * * * * * * * * * * * //

dimensions      [0 1 -1 0 0 0 0];

internalField   nonuniform List<vector> 
8500
(
(-0.00120071 0.00112412 6.54701e-22)
(-0.0066798 0.00259013 -1.88082e-21)
(-0.0169325 0.00346199 -2.19421e-21)
(-0.0290459 0.00388835 2.1816e-21)
(-0.04193 0.00398686 -2.00713e-21)
(-0.0547271 0.00387226 -1.07021e-21)
(-0.0668785 0.00365276 1.82827e-21)
(-0.078211 0.00342868 2.26575e-21)
(-0.0887862 0.00328519 -3.7196e-22)
(-0.0989096 0.00329061 1.09355e-21)
(-0.00135404 0.00318576 -7.23383e-22)
(-0.00699605 0.00734104 2.23596e-21)
(-0.0172784 0.0098015 -5.24754e-21)
(-0.0293294 0.0109896 4.75926e-21)
(-0.0420744 0.011236 2.12003e-22)
(-0.0546647 0.0108655 3.49301e-21)
(-0.0665431 0.0101885 -6.06827e-21)
(-0.0775364 0.0094986 -8.87796e-21)
(-0.0877046 0.00905229 -1.73496e-21)
(-0.0973221 0.009061 3.93292e-21)
(-0.00165451 0.00519897 6.648e-22)
(-0.00761755 0.0119876 4.9044e-21)
(-0.0179604 0.0160071 1.15561e-20)
(-0.02989 0.0179411 -1.04574e-20)
(-0.0423615 0.0183256 -2.35942e-21)
(-0.054543 0.0176885 -2.14722e-21)
(-0.0658801 0.016538 1.0965e-20)
(-0.076198 0.015362 6.81948e-21)
(-0.0855541 0.0145986 1.66386e-21)
(-0.0941488 0.0146183 -1.21876e-20)
(-0.00209542 0.00713426 2.35677e-21)
(-0.00853205 0.0164651 -2.87944e-21)
(-0.0189661 0.0219947 -2.15255e-20)
(-0.0307172 0.0246482 1.90439e-21)
(-0.0427832 0.025154 5.90565e-21)
(-0.054357 0.0242325 -4.59055e-21)
(-0.0648865 0.0225814 -2.38774e-22)
(-0.0741921 0.0208837 -1.86284e-21)
(-0.0823299 0.0197756 4.2245e-21)
(-0.0893559 0.0198136 1.21551e-20)
(-0.00266724 0.00896503 1.639e-21)
(-0.00972167 0.0207139 -9.2472e-21)
(-0.0202767 0.0276855 2.22353e-20)
(-0.0317938 0.0310209 -1.01095e-20)
(-0.0433251 0.0316248 -4.19029e-23)
(-0.0540954 0.0303942 1.39656e-20)
(-0.0635533 0.0282045 -6.4127e-21)
(-0.0715078 0.0259319 7.29242e-22)
(-0.0780209 0.0244329 -2.63137e-21)
(-0.0828855 0.0244874 9.54964e-22)
(-0.00335811 0.0106684 1.95784e-20)
(-0.0111633 0.0246805 2.37715e-20)
(-0.0218669 0.0330071 -6.082e-21)
(-0.0330948 0.0369763 1.16018e-20)
(-0.0439636 0.0376488 3.64596e-21)
(-0.0537364 0.0360788 -5.20482e-21)
(-0.0618596 0.033302 -2.00581e-21)
(-0.0681186 0.0303821 -8.72288e-21)
(-0.0726029 0.0284198 1.89e-21)
(-0.0746464 0.0284666 -1.12764e-20)
(-0.00415435 0.0122258 -1.88691e-20)
(-0.0128291 0.028319 -1.23876e-20)
(-0.0237037 0.0378951 1.00988e-20)
(-0.0345849 0.0424389 -1.74797e-20)
(-0.0446616 0.0431452 1.99356e-21)
(-0.0532408 0.0412022 2.04794e-20)
(-0.0597628 0.0377822 -3.69e-21)
(-0.06397 0.0341238 2.41456e-20)
(-0.0660271 0.0315908 -4.95203e-22)
(-0.0644984 0.0315632 -9.83278e-21)
(-0.00504109 0.0136232 1.58138e-20)
(-0.014687 0.031591 -2.85993e-20)
(-0.0257465 0.0422936 -1.13768e-20)
(-0.0362166 0.047342 1.33361e-20)
(-0.0453637 0.0480435 4.4863e-22)
(-0.0525441 0.0456937 -3.84363e-20)
(-0.0571867 0.0415722 -2.28241e-21)
(-0.058961 0.0370703 -1.90483e-20)
(-0.0582012 0.0338181 -2.45488e-20)
(-0.0522338 0.0335954 1.45023e-20)
(-0.00600281 0.0148506 -8.83427e-21)
(-0.0167009 0.0344662 4.26531e-21)
(-0.0279457 0.0461547 1.05018e-20)
(-0.0379266 0.0516278 -9.39818e-21)
(-0.0459902 0.0522836 -3.29738e-20)
(-0.0515451 0.0494982 1.13516e-20)
(-0.0540041 0.0446232 1.64404e-21)
(-0.0529165 0.0391703 2.86375e-20)
(-0.0489499 0.0350112 3.76571e-20)
(-0.0375749 0.0344993 -1.69975e-20)
(-0.00702381 0.0159026 1.39141e-20)
(-0.0188313 0.0369211 1.26757e-20)
(-0.0302418 0.0494388 -1.81913e-21)
(-0.039633 0.0552461 4.67978e-20)
(-0.0464303 0.0558153 1.98891e-20)
(-0.0500949 0.052576 1.49249e-20)
(-0.0500176 0.046913 2.11743e-20)
(-0.0455522 0.0404126 -9.30214e-21)
(-0.0378937 0.0350896 -1.25811e-20)
(-0.0201742 0.0344917 -2.07593e-20)
(-0.00808861 0.0167768 -1.29592e-21)
(-0.0210351 0.0389391 -2.00279e-20)
(-0.0325645 0.0521128 -1.44233e-20)
(-0.0412322 0.0581539 -2.31197e-20)
(-0.0465362 0.0585969 -1.83044e-20)
(-0.0479849 0.0549022 1.84707e-20)
(-0.0449443 0.0484492 -1.7731e-20)
(-0.0364795 0.0408409 -1.22616e-20)
(-0.0242535 0.033907 1.60711e-21)
(0.000737508 0.0335857 5.44107e-21)
(-0.00918226 0.0174741 -3.835e-20)
(-0.0232657 0.0405082 1.83257e-20)
(-0.0348314 0.0541492 1.3364e-20)
(-0.0425955 0.0603131 8.94924e-21)
(-0.0461162 0.0605924 -1.63019e-20)
(-0.044935 0.0564645 -1.37758e-20)
(-0.0383908 0.0492749 1.99448e-20)
(-0.0252893 0.0406122 -1.62681e-20)
(-0.0072546 0.031694 -9.48083e-22)
(0.0266934 0.0315724 -1.70704e-20)
(-0.0102905 0.0179973 3.21317e-20)
(-0.0254728 0.0416209 1.30755e-20)
(-0.0369467 0.0555249 7.67055e-22)
(-0.0435663 0.0616893 -1.63087e-20)
(-0.0449298 0.0617688 1.15005e-21)
(-0.0405821 0.0572559 1.81525e-20)
(-0.0297846 0.0494512 -5.15993e-21)
(-0.0112074 0.0398611 -6.303e-21)
(0.013795 0.0289493 -1.42616e-20)
(0.0591261 0.0288026 2.59995e-20)
(-0.0113997 0.018351 2.1764e-20)
(-0.0276017 0.0422729 -3.5294e-20)
(-0.0387997 0.0562208 -2.72301e-20)
(-0.0439577 0.0622512 1.1772e-20)
(-0.0426843 0.0620938 2.40261e-20)
(-0.0344894 0.0572649 2.04155e-20)
(-0.0184895 0.0490245 -2.17159e-20)
(0.00680398 0.0387142 4.20992e-20)
(0.0402203 0.0259745 -1.26927e-20)
(0.0995125 0.0263056 -3.05482e-20)
(-0.0124966 0.0185411 -3.2671e-20)
(-0.0295922 0.0424624 1.96822e-20)
(-0.0402622 0.0562219 -9.46406e-21)
(-0.0435489 0.0619726 9.95451e-22)
(-0.0390305 0.0615388 1.01363e-20)
(-0.0261278 0.0564835 -3.22044e-20)
(-0.00374333 0.0480639 2.86104e-20)
(0.0298012 0.0374353 -2.78531e-20)
(0.0737116 0.0230763 4.47501e-20)
(0.149436 0.0253353 1.62332e-20)
(-0.0135681 0.0185736 6.94886e-21)
(-0.0313763 0.0421898 3.83216e-20)
(-0.0411851 0.055519 -9.66094e-21)
(-0.0420806 0.0608368 9.76614e-21)
(-0.0335589 0.0600852 1.14012e-20)
(-0.0148817 0.0549078 -3.43321e-21)
(0.0153513 0.0466278 2.45896e-20)
(0.0589313 0.0362383 1.24789e-21)
(0.116146 0.0207137 -2.8685e-20)
(0.210022 0.0271886 3.87415e-20)
(-0.0145996 0.0184543 -1.85525e-20)
(-0.0328747 0.0414571 -3.6333e-20)
(-0.041394 0.0541133 3.15259e-20)
(-0.039249 0.058843 1.58305e-20)
(-0.025794 0.0577362 -7.33816e-20)
(-5.00514e-05 0.0525583 5.98744e-20)
(0.039792 0.0447953 -5.41086e-20)
(0.0953837 0.0352755 8.57465e-22)
(0.169459 0.0195482 -1.22208e-20)
(0.281095 0.0329938 -3.58618e-20)
(-0.0155744 0.0181882 1.61049e-20)
(-0.0339921 0.0402688 -2.20312e-21)
(-0.0406831 0.0520189 -7.74055e-21)
(-0.0346981 0.0560147 -8.88272e-22)
(-0.0151856 0.0545347 -4.60946e-21)
(0.0191577 0.0495075 -1.90679e-20)
(0.0706555 0.0427053 8.12659e-21)
(0.140362 0.0346624 -1.28332e-20)
(0.235359 0.0207067 3.87299e-21)
(0.360211 0.0437261 1.14835e-21)
(-0.0164719 0.0177786 -3.28956e-20)
(-0.0346168 0.0386361 -2.40172e-21)
(-0.0388045 0.049262 3.61141e-21)
(-0.0280122 0.0524092 1.47912e-21)
(-0.00110345 0.050582 2.40705e-20)
(0.043619 0.04591 -7.02336e-20)
(0.109062 0.040584 4.73498e-20)
(0.195167 0.0345046 -3.55372e-20)
(0.315026 0.0259356 2.97932e-20)
(0.442805 0.0593975 3.27331e-20)
(-0.0172609 0.0172249 -4.02613e-21)
(-0.0346142 0.036571 1.83207e-20)
(-0.0354686 0.045887 -2.29948e-20)
(-0.0187105 0.048128 -7.20086e-21)
(0.0171584 0.046053 1.38883e-20)
(0.0742669 0.0420279 6.68208e-20)
(0.156042 0.0387554 -1.34173e-20)
(0.261088 0.0350601 6.52047e-21)
(0.40842 0.0368029 -3.4556e-20)
(0.526689 0.0742985 1.61066e-20)
(-0.0178969 0.0165228 -1.20842e-20)
(-0.0338161 0.0340874 -9.40508e-21)
(-0.0303413 0.041963 2.33199e-21)
(-0.0062515 0.0433203 9.07424e-21)
(0.0403629 0.041207 -2.68934e-20)
(0.11203 0.0382524 -1.08823e-20)
(0.212346 0.0376745 -3.42387e-20)
(0.338645 0.0370889 3.52672e-20)
(0.511339 0.0521477 3.7128e-20)
(0.618731 0.0753413 -1.55003e-20)
(-0.018325 0.0156681 -5.79862e-21)
(-0.0320199 0.0312035 2.34754e-20)
(-0.0230398 0.0375799 -2.62242e-20)
(0.00995757 0.038184 -3.07393e-21)
(0.0692971 0.0363893 -1.23658e-20)
(0.157757 0.0351123 2.69046e-20)
(0.278375 0.0379846 3.46906e-20)
(0.426982 0.041879 -3.32911e-20)
(0.61394 0.0651604 3.54649e-20)
(0.744948 0.0725841 5.06816e-21)
(-0.0184767 0.0146527 -1.68077e-20)
(-0.0289917 0.0279425 -4.75607e-20)
(-0.0131392 0.0328515 4.63892e-20)
(0.0305396 0.0329643 6.66342e-21)
(0.104716 0.0320189 9.72567e-21)
(0.212084 0.0332347 5.91381e-21)
(0.354041 0.0404316 2.65356e-20)
(0.523663 0.0503175 1.95686e-20)
(0.718144 0.0781627 -6.88785e-20)
(0.865275 0.0866156 -3.43744e-20)
(-0.0182657 0.0134665 -5.73954e-20)
(-0.0244684 0.024339 1.15202e-20)
(-0.00018716 0.0279174 -2.63079e-20)
(0.0561132 0.0279504 5.0988e-21)
(0.147266 0.0285703 8.16395e-21)
(0.275274 0.0332804 -5.87038e-20)
(0.438482 0.0457246 2.5935e-20)
(0.625197 0.0624239 -1.75561e-20)
(0.821028 0.0932747 1.83285e-20)
(0.969367 0.105124 -6.57595e-21)
(-0.0175896 0.0121027 2.08238e-20)
(-0.0181614 0.0204426 2.25506e-20)
(0.0162794 0.0229462 -1.33604e-21)
(0.0872478 0.0234721 -7.18251e-21)
(0.197385 0.026553 2.43737e-22)
(0.347035 0.0358715 5.37779e-22)
(0.529799 0.0543491 -3.94461e-20)
(0.727557 0.0776777 5.07755e-21)
(0.91757 0.110279 4.94467e-20)
(1.05776 0.124272 2.2755e-20)
(-0.0163331 0.0105615 -1.41528e-20)
(-0.00976517 0.0163248 -1.04151e-20)
(0.0367115 0.0181418 4.49426e-20)
(0.124412 0.0198994 1.14718e-21)
(0.255198 0.0264899 -1.882e-20)
(0.42639 0.0415139 5.0399e-20)
(0.625122 0.0664231 1.11234e-20)
(0.826508 0.0953115 7.4134e-22)
(1.00407 0.128268 -2.15931e-20)
(1.12883 0.142775 -2.86816e-20)
(-0.0143701 0.00885351 2.98058e-20)
(0.00103155 0.0120864 -8.22253e-21)
(0.0615216 0.0137488 -4.92408e-21)
(0.167914 0.0176394 -1.8696e-20)
(0.320414 0.0288862 3.05366e-20)
(0.511621 0.050514 -1.48959e-20)
(0.720973 0.0816499 -1.68507e-20)
(0.918331 0.114449 -3.90137e-21)
(1.07821 0.14634 -1.25208e-20)
(1.18392 0.159791 1.39185e-20)
(-0.011568 0.00700393 -1.09457e-20)
(0.0145323 0.00786436 -6.53372e-20)
(0.0910533 0.0100567 6.76207e-21)
(0.217847 0.0171294 2.33575e-20)
(0.392249 0.0341835 1.66638e-20)
(0.600357 0.0629113 -5.55885e-20)
(0.813822 0.0994131 3.57683e-20)
(1.00035 0.134243 -1.63035e-20)
(1.13935 0.163808 2.48869e-20)
(1.22501 0.175134 6.97103e-21)
(-0.00779179 0.00505495 -1.21098e-20)
(0.0310173 0.00383598 2.31446e-20)
(0.125548 0.00740073 3.03029e-20)
(0.274022 0.0188179 -2.16242e-20)
(0.469394 0.0426983 8.04191e-21)
(0.689829 0.078464 -4.90256e-20)
(0.900628 0.118952 -9.02775e-21)
(1.0711 0.154003 7.80193e-21)
(1.18798 0.180275 -1.8958e-20)
(1.25448 0.188861 -1.95163e-20)
(-0.00290962 0.00306794 -1.57566e-20)
(0.0507265 0.000221182 -5.40462e-21)
(0.165108 0.0061553 -5.51007e-20)
(0.335929 0.0231331 -8.63522e-21)
(0.55008 0.0545639 -8.9133e-22)
(0.777235 0.0967061 2.93286e-21)
(0.979181 0.13953 4.98248e-21)
(1.13026 0.173247 -2.46202e-20)
(1.22537 0.195587 4.43277e-22)
(1.2747 0.201199 1.34559e-20)
(0.00320234 0.00112391 -4.16231e-21)
(0.0738399 -0.00271942 1.91698e-20)
(0.209667 0.0067215 2.69865e-20)
(0.402705 0.0304385 1.68653e-20)
(0.632219 0.0697035 -4.94301e-21)
(0.860094 0.117054 -4.16397e-21)
(1.0482 0.160531 4.12064e-20)
(1.17827 0.191697 5.6557e-21)
(1.25309 0.209761 1.8722e-20)
(1.28773 0.212424 -8.15067e-21)
(0.0106528 -0.000676149 3.98193e-20)
(0.100459 -0.00468943 2.55662e-20)
(0.258954 0.00950614 -2.59153e-20)
(0.47316 0.0409867 -5.15176e-21)
(0.713633 0.0878516 2.73465e-21)
(0.936489 0.138916 -9.87443e-21)
(1.10722 0.181506 -2.12758e-20)
(1.21613 0.209233 -3.46863e-21)
(1.27279 0.222919 2.48209e-22)
(1.2953 0.222821 8.82354e-21)
(0.0195282 -0.00221315 5.07302e-21)
(0.130587 -0.00536644 -1.40088e-20)
(0.312478 0.0148937 3.31776e-20)
(0.545842 0.0548841 2.15354e-20)
(0.792281 0.108614 7.37133e-22)
(1.00515 0.161763 1.52392e-20)
(1.15643 0.202154 2.20821e-21)
(1.24505 0.225855 -1.62151e-20)
(1.28598 0.235234 1.37841e-20)
(1.29876 0.232641 -3.22529e-23)
(0.0298872 -0.00335253 -3.31657e-20)
(0.164115 -0.00441438 -9.73539e-21)
(0.369531 0.0232142 -8.72604e-21)
(0.61915 0.072083 -1.51803e-20)
(0.866438 0.131541 3.65177e-21)
(1.06541 0.185166 8.34921e-23)
(1.19641 0.222304 1.18478e-20)
(1.26632 0.241635 -1.91782e-21)
(1.29399 0.246895 -1.41966e-20)
(1.29914 0.242092 -1.3284e-20)
(0.0417528 -0.00394766 2.72167e-21)
(0.200808 -0.00149928 1.58706e-20)
(0.429204 0.034713 7.7075e-21)
(0.691473 0.0923997 -2.39173e-20)
(0.93479 0.156182 -1.15996e-21)
(1.11711 0.208795 -1.03101e-20)
(1.228 0.241879 2.62584e-22)
(1.28115 0.256686 4.80813e-21)
(1.29792 0.258079 -5.34996e-21)
(1.2972 0.251332 1.49356e-20)
(0.0551075 -0.00384444 6.46711e-21)
(0.240304 0.00369251 -1.5631e-20)
(0.490437 0.0495283 -3.67807e-20)
(0.761308 0.115551 3.37951e-20)
(0.996445 0.182122 -2.51263e-21)
(1.16044 0.232415 7.4241e-21)
(1.25211 0.260867 -1.03285e-21)
(1.29063 0.271134 7.14393e-21)
(1.29861 0.268938 -5.41253e-22)
(1.29346 0.260471 -1.157e-20)
(0.0698883 -0.00288688 -1.32349e-20)
(0.282115 0.0114352 2.04629e-20)
(0.552079 0.0676817 1.67686e-20)
(0.827356 0.141193 -2.42202e-20)
(1.0509 0.208996 -4.04058e-21)
(1.19584 0.255857 1.52184e-21)
(1.26968 0.279294 1.53308e-20)
(1.29571 0.285101 7.59316e-22)
(1.29673 0.279595 2.94209e-21)
(1.28828 0.269578 -6.34615e-21)
(0.0859847 -0.000923294 1.0046e-20)
(0.325643 0.0219451 -8.98344e-21)
(0.612958 0.0890825 -7.68051e-21)
(0.888573 0.168953 1.30872e-20)
(1.09795 0.236491 4.49324e-21)
(1.22388 0.27901 3.39839e-21)
(1.28157 0.297205 -1.56353e-20)
(1.29714 0.298691 -5.30967e-21)
(1.29277 0.290132 -4.72325e-21)
(1.28189 0.278685 2.09219e-21)
(0.103238 0.00218685 -5.07662e-21)
(0.370196 0.0353657 -1.12458e-22)
(0.671948 0.113541 1.455e-20)
(0.944175 0.198454 -5.29948e-21)
(1.13764 0.264341 -2.35955e-21)
(1.24519 0.301796 -1.54455e-21)
(1.28857 0.314649 3.78525e-21)
(1.29552 0.311987 6.48229e-21)
(1.28707 0.300602 -2.02943e-22)
(1.27446 0.287792 2.32035e-21)
(0.121444 0.00656593 3.58525e-21)
(0.415026 0.0517568 -1.00443e-21)
(0.728021 0.140788 -2.61817e-21)
(0.993627 0.229322 -2.36807e-21)
(1.17019 0.292316 2.12398e-21)
(1.26041 0.324161 1.64508e-21)
(1.29134 0.331666 -1.51056e-21)
(1.29135 0.325042 5.37372e-22)
(1.27988 0.311024 7.48214e-22)
(1.26606 0.296878 -9.83853e-22)
(0.140356 0.0123114 1.95892e-21)
(0.459349 0.0710902 5.52979e-22)
(0.780284 0.170494 -3.29117e-21)
(1.03661 0.261199 -2.61552e-21)
(1.19592 0.320214 2.70986e-21)
(1.27015 0.346058 5.28056e-22)
(1.29043 0.348282 -1.19609e-21)
(1.28496 0.337881 1.11527e-21)
(1.27135 0.321385 6.09377e-22)
(1.25676 0.305903 -6.84588e-22)
(0.159695 0.0194899 -7.6003e-22)
(0.502386 0.0932502 1.54367e-21)
(0.827999 0.202285 1.01962e-20)
(1.07298 0.293738 -4.52509e-21)
(1.21519 0.347855 -2.1793e-21)
(1.27496 0.367442 -2.42464e-21)
(1.28632 0.364503 4.91053e-21)
(1.27664 0.350504 3.21554e-21)
(1.2616 0.331653 2.52102e-21)
(1.24659 0.314813 1.3382e-21)
(0.179153 0.0281321 1.58287e-20)
(0.543392 0.118039 -8.62604e-21)
(0.870587 0.23576 -9.72538e-21)
(1.10272 0.32661 1.31765e-20)
(1.22842 0.375072 6.86152e-21)
(1.27534 0.388263 -4.43112e-22)
(1.27936 0.380315 -8.14452e-21)
(1.26656 0.362881 -5.79533e-21)
(1.25069 0.34177 -5.83368e-21)
(1.23557 0.323546 3.36127e-21)
(0.198408 0.0382301 -2.14479e-20)
(0.581676 0.145187 2.00251e-20)
(0.907621 0.270497 2.29576e-20)
(1.12595 0.359496 -2.24244e-20)
(1.23604 0.401704 -7.65156e-21)
(1.27173 0.408459 4.79555e-21)
(1.26986 0.395681 8.52811e-21)
(1.25488 0.374963 1.28165e-21)
(1.23867 0.35166 -1.6996e-22)
(1.22371 0.332028 -4.4607e-21)
(0.217131 0.0497354 -3.12573e-21)
(0.616627 0.174362 -2.82786e-20)
(0.938816 0.306068 -3.00952e-20)
(1.14285 0.392089 3.3394e-20)
(1.23843 0.427594 -3.75777e-21)
(1.26451 0.427957 6.63238e-21)
(1.25806 0.410546 1.22645e-21)
(1.24168 0.386677 -3.53962e-21)
(1.22555 0.361229 1.88292e-21)
(1.21101 0.340175 -1.32847e-22)
(0.234995 0.06256 6.31887e-21)
(0.647723 0.20518 1.75774e-20)
(0.964012 0.342042 9.87766e-21)
(1.15365 0.424095 -7.77416e-21)
(1.23601 0.452586 -1.18048e-20)
(1.25401 0.446675 -1.06989e-20)
(1.24413 0.424839 -2.07918e-21)
(1.22705 0.397945 5.20042e-21)
(1.21134 0.370384 -1.08125e-21)
(1.19735 0.3479 2.43586e-21)
(0.251687 0.0765776 -2.39942e-20)
(0.674541 0.237221 -2.2143e-20)
(0.983162 0.377988 -3.47047e-21)
(1.15864 0.455229 -3.91761e-21)
(1.22913 0.476522 -8.57973e-21)
(1.24053 0.464513 5.06024e-21)
(1.22826 0.438475 -9.41265e-22)
(1.21104 0.408684 -4.52699e-21)
(1.19602 0.379071 4.06748e-21)
(1.18257 0.355141 -5.19316e-21)
(0.266916 0.091628 5.70536e-21)
(0.696759 0.270037 1.87671e-20)
(0.996304 0.413485 1.61136e-20)
(1.15811 0.485216 1.7284e-20)
(1.21816 0.499242 4.53212e-22)
(1.2243 0.481363 1.40562e-20)
(1.21055 0.451352 7.11766e-22)
(1.19372 0.418804 -1.48668e-20)
(1.17965 0.387289 1.00743e-20)
(1.16668 0.361837 3.6617e-21)
(0.280421 0.107521 1.55911e-20)
(0.714158 0.303168 3.44788e-20)
(1.00356 0.448121 -4.53731e-21)
(1.1524 0.513791 -2.17016e-20)
(1.2034 0.520584 9.59035e-21)
(1.20556 0.497105 -9.58197e-21)
(1.19113 0.463355 -1.18047e-20)
(1.17515 0.428181 -4.90587e-22)
(1.16226 0.394985 -7.72962e-21)
(1.15011 0.367862 2.7208e-21)
(0.291975 0.124039 7.24755e-21)
(0.726617 0.33615 5.23661e-21)
(1.00511 0.481501 4.21455e-20)
(1.14185 0.540699 7.59564e-21)
(1.18519 0.540387 -6.38461e-21)
(1.18448 0.511615 -3.20758e-21)
(1.17009 0.474358 1.73183e-20)
(1.15545 0.436712 1.32254e-20)
(1.14384 0.401923 6.08875e-21)
(1.133 0.373264 -6.14822e-22)
(0.301394 0.140947 1.45916e-21)
(0.734098 0.368525 -3.51588e-20)
(1.00118 0.513246 -4.93957e-20)
(1.1268 0.565702 1.27855e-21)
(1.16379 0.558499 8.79515e-21)
(1.16126 0.524755 -1.18696e-20)
(1.14766 0.484237 -2.40921e-20)
(1.13463 0.444297 -6.53232e-21)
(1.12441 0.408006 -3.17876e-22)
(1.11522 0.377852 1.33392e-21)
(0.308537 0.157996 -1.24967e-20)
(0.73664 0.39985 3.10959e-20)
(0.992071 0.542995 2.9466e-20)
(1.10761 0.58857 -2.59962e-20)
(1.13952 0.574772 4.04048e-21)
(1.13615 0.536383 2.62597e-20)
(1.1239 0.492864 -4.28541e-21)
(1.11269 0.450837 3.75938e-21)
(1.10411 0.41312 -7.04517e-22)
(1.09677 0.381543 -6.53982e-22)
(0.313306 0.174933 -2.78643e-20)
(0.734362 0.429704 -4.90718e-20)
(0.97811 0.570417 -9.45386e-21)
(1.08464 0.609077 1.50783e-20)
(1.11264 0.589026 1.33362e-20)
(1.10934 0.546386 -2.52267e-20)
(1.09886 0.500116 1.18195e-20)
(1.08977 0.45621 -3.70797e-21)
(1.08301 0.417173 1.45e-21)
(1.07771 0.384252 6.29508e-22)
(0.315652 0.191502 2.13212e-20)
(0.727468 0.457689 1.7356e-21)
(0.959714 0.595244 -4.66789e-21)
(1.05814 0.626985 -1.76405e-20)
(1.08342 0.601105 9.68995e-21)
(1.08095 0.554604 2.97166e-21)
(1.0727 0.505888 -4.59377e-21)
(1.06597 0.460314 2.33754e-21)
(1.06119 0.420064 8.93651e-22)
(1.05812 0.385903 -2.60335e-21)
(0.315579 0.207444 -5.60138e-21)
(0.716256 0.483418 -7.32727e-21)
(0.937259 0.617268 1.91905e-20)
(1.02837 0.642097 8.61567e-21)
(1.05212 0.610818 -1.07795e-20)
(1.05119 0.560911 1.04658e-20)
(1.04555 0.510062 1.70001e-21)
(1.04139 0.463048 2.91418e-21)
(1.03872 0.421694 6.40334e-21)
(1.03806 0.386401 1.01431e-21)
(0.313149 0.222503 3.57462e-20)
(0.701053 0.506535 2.72685e-20)
(0.910778 0.636089 -2.6829e-21)
(0.995913 0.654415 -3.30384e-21)
(1.0191 0.618014 -3.95161e-21)
(1.02026 0.565179 -1.53752e-21)
(1.01756 0.512535 2.96221e-21)
(1.01613 0.464327 9.12814e-23)
(1.0157 0.421966 -5.71865e-21)
(1.01762 0.385647 -6.78293e-21)
(0.308448 0.23642 1.92748e-21)
(0.682069 0.526909 4.09128e-21)
(0.880595 0.651359 -2.20725e-20)
(0.96123 0.663631 8.63905e-21)
(0.984585 0.622681 -1.10085e-21)
(0.988339 0.567315 3.9341e-21)
(0.988876 0.513209 -4.51698e-22)
(0.990302 0.464071 1.23135e-21)
(0.992235 0.420809 -5.55194e-21)
(0.997021 0.383587 8.15724e-21)
(0.30155 0.248881 -1.36591e-20)
(0.659491 0.544173 -8.99662e-21)
(0.847552 0.663213 5.3709e-21)
(0.924603 0.669541 -4.11455e-22)
(0.948841 0.62468 -3.86923e-21)
(0.955632 0.567224 1.05867e-21)
(0.959619 0.511991 3.56188e-21)
(0.964007 0.462186 -1.56719e-20)
(0.968587 0.418151 3.2723e-20)
(0.976896 0.380244 1.23508e-20)
(0.29253 0.259662 -9.52536e-21)
(0.633635 0.55788 1.91752e-20)
(0.812097 0.671415 -1.01849e-20)
(0.886352 0.672131 -2.70703e-21)
(0.912125 0.623926 1.38741e-21)
(0.92232 0.564828 -5.39223e-21)
(0.929903 0.508791 -1.21243e-20)
(0.93736 0.458533 6.27602e-21)
(0.945153 0.413798 -2.72043e-21)
(0.957926 0.375657 -6.09792e-21)
(0.281614 0.268622 -1.75769e-21)
(0.605052 0.567894 -5.99799e-21)
(0.774571 0.67577 6.75554e-22)
(0.846823 0.671333 1.45766e-21)
(0.874704 0.62035 8.99705e-21)
(0.888586 0.56007 6.53264e-21)
(0.899852 0.503561 2.14008e-20)
(0.910542 0.453005 -1.51625e-20)
(0.922276 0.407373 -2.86939e-20)
(0.939406 0.369186 1.1424e-20)
(0.269011 0.275651 -2.31989e-21)
(0.574178 0.574089 -3.59377e-21)
(0.735387 0.676149 1.25505e-21)
(0.806369 0.667087 1.21131e-20)
(0.836844 0.613906 -1.7336e-20)
(0.854624 0.552915 -2.55277e-20)
(0.869647 0.496294 -7.92662e-21)
(0.883816 0.445717 -1.14518e-21)
(0.899944 0.399059 3.63334e-20)
(0.918603 0.357115 -8.63555e-21)
(0.254911 0.280595 5.90358e-21)
(0.541454 0.576355 -3.29005e-21)
(0.694974 0.672484 -1.0226e-21)
(0.765343 0.659357 3.01551e-22)
(0.798811 0.604566 -9.94688e-21)
(0.820651 0.543332 4.66571e-20)
(0.83954 0.486955 -3.15554e-20)
(0.857397 0.436748 3.77844e-20)
(0.877107 0.390717 -2.67328e-20)
(0.89544 0.350233 -3.489e-20)
(0.239545 0.283333 -3.38935e-21)
(0.507316 0.574614 6.12496e-22)
(0.653757 0.664751 -2.44094e-22)
(0.724091 0.648129 1.59299e-20)
(0.760873 0.592317 -5.70875e-21)
(0.78689 0.531297 8.93239e-21)
(0.809735 0.475489 1.87827e-20)
(0.831319 0.425826 -9.89571e-21)
(0.854158 0.380235 -2.44587e-20)
(0.873467 0.339978 3.4294e-20)
(0.223163 0.283779 1.36236e-20)
(0.472194 0.568825 1.8522e-20)
(0.612159 0.652957 -1.70152e-20)
(0.682957 0.633418 -1.54186e-20)
(0.723296 0.577169 5.06024e-20)
(0.753558 0.516819 -5.13022e-20)
(0.780382 0.461936 6.08152e-20)
(0.805596 0.413165 -1.55426e-20)
(0.831282 0.368552 1.6631e-20)
(0.852198 0.329393 3.03891e-20)
(0.20602 0.281877 -5.49044e-21)
(0.436519 0.558983 -1.7253e-20)
(0.570591 0.63714 -9.1046e-21)
(0.642275 0.615265 -5.56072e-21)
(0.686343 0.559153 5.17328e-21)
(0.720872 0.499914 -1.2625e-20)
(0.75165 0.446297 -1.82886e-20)
(0.780388 0.398698 -3.89503e-20)
(0.808812 0.355306 3.85589e-20)
(0.831722 0.317431 -1.28376e-20)
(0.188377 0.277598 2.924e-20)
(0.400713 0.545122 -3.14652e-21)
(0.529455 0.617371 -1.27536e-20)
(0.602372 0.593733 1.70762e-20)
(0.650273 0.538316 -3.10872e-20)
(0.689043 0.480623 8.17948e-20)
(0.723706 0.428615 -4.36276e-20)
(0.755857 0.382499 3.97072e-20)
(0.786958 0.340631 -7.33546e-20)
(0.812068 0.304227 -1.94749e-20)
(0.170492 0.270943 -1.00997e-20)
(0.36519 0.527313 3.10801e-20)
(0.489139 0.593747 7.58619e-21)
(0.563562 0.568912 -1.56464e-20)
(0.615336 0.514731 -2.69317e-20)
(0.658274 0.459001 -1.36763e-21)
(0.69672 0.408936 1.45804e-20)
(0.732163 0.364596 -3.54319e-20)
(0.765875 0.324504 1.77966e-20)
(0.793282 0.289715 2.39105e-21)
(0.152625 0.261941 -4.97012e-20)
(0.330349 0.505662 -1.23883e-20)
(0.450013 0.566395 -3.27649e-21)
(0.526148 0.540915 3.9637e-20)
(0.581775 0.488487 -3.67131e-20)
(0.628765 0.435123 -9.81932e-21)
(0.670861 0.387324 -5.85173e-21)
(0.709463 0.345044 1.10517e-20)
(0.7457 0.306961 -1.38395e-20)
(0.775434 0.273929 -2.18021e-20)
(0.135026 0.250646 4.31914e-20)
(0.296576 0.48031 -2.44848e-20)
(0.412434 0.535473 1.35223e-21)
(0.490417 0.509875 -5.97654e-20)
(0.549821 0.459695 6.49673e-20)
(0.600709 0.409079 -2.06718e-20)
(0.646292 0.363857 1.24439e-20)
(0.687901 0.323906 1.08555e-20)
(0.726554 0.288045 3.1675e-20)
(0.758599 0.256911 -1.28748e-20)
(0.117938 0.23714 -1.76794e-20)
(0.264236 0.451427 5.05616e-20)
(0.376735 0.501159 2.85212e-20)
(0.456643 0.475951 4.65652e-20)
(0.519695 0.428482 -1.09627e-20)
(0.574287 0.380977 4.31738e-21)
(0.623171 0.338626 3.54221e-20)
(0.667614 0.301257 7.86374e-21)
(0.708554 0.267814 7.48034e-22)
(0.742853 0.238725 -1.53846e-20)
(0.101595 0.221528 -3.97447e-20)
(0.233674 0.419217 -3.01516e-21)
(0.343231 0.463662 -1.66231e-20)
(0.425081 0.439318 -7.45576e-20)
(0.491605 0.394995 -7.23147e-20)
(0.549675 0.350938 1.2122e-20)
(0.601645 0.311735 -3.00072e-20)
(0.64873 0.277182 1.91861e-20)
(0.691806 0.24634 1.05237e-20)
(0.728271 0.219445 2.2233e-20)
(0.0862136 0.203938 5.78409e-20)
(0.205208 0.383908 -4.74107e-20)
(0.312213 0.423211 -2.41005e-20)
(0.395968 0.400174 4.30352e-20)
(0.465742 0.359397 4.90002e-20)
(0.527033 0.319101 -1.62203e-20)
(0.581851 0.283301 -2.04141e-21)
(0.631369 0.251781 -5.97065e-20)
(0.676415 0.223708 -3.39752e-20)
(0.714925 0.199154 1.30681e-20)
(0.0719985 0.18452 -3.28115e-20)
(0.179135 0.345757 1.38711e-20)
(0.283948 0.380057 5.09517e-20)
(0.369522 0.358733 -2.28075e-20)
(0.442286 0.321866 1.74275e-21)
(0.506512 0.285615 6.54117e-20)
(0.563919 0.253453 3.06794e-21)
(0.615641 0.225163 5.70231e-20)
(0.662474 0.200012 2.39729e-20)
(0.702883 0.177945 -3.83366e-20)
(0.0591349 0.16344 4.51378e-20)
(0.155719 0.305041 4.93318e-21)
(0.258674 0.334471 3.24669e-21)
(0.345939 0.315225 4.65706e-20)
(0.421396 0.282595 -6.26503e-21)
(0.488247 0.250645 -4.0969e-20)
(0.547964 0.222331 2.02132e-20)
(0.601646 0.197447 -3.23689e-20)
(0.650072 0.175357 -1.36322e-20)
(0.692204 0.155914 1.39373e-20)
(0.0477888 0.140886 -2.81652e-20)
(0.135197 0.262059 -5.41483e-20)
(0.236606 0.286741 1.25009e-20)
(0.325392 0.269895 -2.45933e-20)
(0.403217 0.241789 -1.49698e-20)
(0.472359 0.214366 3.63812e-20)
(0.534089 0.190085 -8.82117e-21)
(0.589475 0.168762 8.26555e-21)
(0.639287 0.149855 -1.0125e-20)
(0.682946 0.133164 2.01316e-20)
(0.0381055 0.117058 1.01364e-20)
(0.117776 0.217129 3.6403e-20)
(0.217929 0.23717 -5.06272e-20)
(0.308035 0.223001 2.40596e-20)
(0.387874 0.199665 -1.09972e-20)
(0.458954 0.17696 -3.11378e-20)
(0.522384 0.156873 2.5547e-20)
(0.579207 0.139242 5.44135e-21)
(0.630189 0.123625 -8.04857e-22)
(0.675155 0.109801 -2.34584e-20)
(0.0302083 0.0921687 3.31371e-21)
(0.103628 0.170585 1.17022e-20)
(0.202798 0.186074 4.57773e-20)
(0.293993 0.174813 -8.80829e-21)
(0.37547 0.15645 -6.97248e-21)
(0.448121 0.138623 2.59288e-21)
(0.512927 0.12286 1.12004e-21)
(0.57091 0.109032 9.59051e-21)
(0.622837 0.0967916 -1.2694e-20)
(0.668873 0.0859318 -8.12493e-21)
(0.0241967 0.0664437 -8.29026e-21)
(0.0928928 0.12277 -1.4238e-20)
(0.191339 0.133782 -3.55589e-20)
(0.283371 0.125608 1.79341e-20)
(0.366092 0.112376 1.46948e-20)
(0.439932 0.0995522 6.17284e-22)
(0.505779 0.0882179 -2.48987e-20)
(0.564638 0.0782785 -1.11355e-20)
(0.61728 0.0694845 8.89233e-21)
(0.664132 0.0616684 9.5874e-21)
(0.0201465 0.0401154 1.43999e-21)
(0.0856769 0.0740415 -2.98094e-21)
(0.183646 0.0806286 6.74612e-21)
(0.276246 0.0756718 -4.58959e-21)
(0.359803 0.0676862 -4.05606e-21)
(0.434441 0.0599545 -2.76154e-21)
(0.500987 0.0531231 5.11608e-21)
(0.560433 0.0471339 1.96177e-20)
(0.613553 0.0418364 2.85929e-21)
(0.660957 0.0371222 -5.1198e-21)
(0.0181083 0.0134228 1.78181e-21)
(0.0820505 0.0247615 -4.91518e-21)
(0.179783 0.0269563 -5.58426e-21)
(0.272669 0.0252948 -3.88465e-21)
(0.356648 0.0226238 3.72016e-21)
(0.431686 0.020039 1.68646e-21)
(0.498582 0.0177553 -1.68898e-21)
(0.558322 0.0157533 -7.75668e-21)
(0.611684 0.0139827 2.57015e-21)
(0.659364 0.012406 -2.42411e-21)
(0.0181076 -0.0133918 -1.78182e-21)
(0.0820493 -0.0247027 4.91522e-21)
(0.179781 -0.0268895 5.5843e-21)
(0.272668 -0.0252295 -5.36278e-21)
(0.356646 -0.0225629 4.7401e-21)
(0.431685 -0.0199828 2.38748e-21)
(0.498581 -0.0177037 -3.83679e-21)
(0.558321 -0.0157061 -4.48871e-21)
(0.611682 -0.0139397 6.69633e-22)
(0.659363 -0.012367 -1.89651e-21)
(0.0201446 -0.0400845 1.9545e-21)
(0.0856733 -0.0739826 -5.85452e-21)
(0.183642 -0.0805619 1.31676e-20)
(0.276242 -0.0756066 -1.1593e-20)
(0.359799 -0.0676253 -5.44633e-22)
(0.434437 -0.0598984 -7.7786e-21)
(0.500983 -0.0530716 1.27234e-20)
(0.560429 -0.0470867 1.74284e-20)
(0.61355 -0.0417935 3.14459e-21)
(0.660953 -0.0370832 -6.80539e-21)
(0.0241936 -0.0664128 -1.68762e-21)
(0.0928868 -0.122711 -1.24207e-20)
(0.191332 -0.133715 -2.89072e-20)
(0.283364 -0.125543 2.5112e-20)
(0.366085 -0.112316 5.22211e-21)
(0.439925 -0.0994962 4.63217e-21)
(0.505773 -0.0881665 -2.29013e-20)
(0.564631 -0.0782315 -1.3573e-20)
(0.617274 -0.0694417 -3.04664e-21)
(0.664126 -0.0616295 2.10295e-20)
(0.0302039 -0.0921378 -5.95391e-21)
(0.103619 -0.170526 7.45954e-21)
(0.202788 -0.186008 5.25287e-20)
(0.293983 -0.174748 -4.70943e-21)
(0.37546 -0.156389 -1.35669e-20)
(0.448111 -0.138567 9.81191e-21)
(0.512918 -0.122809 6.56135e-22)
(0.570901 -0.108985 3.50913e-21)
(0.622829 -0.096749 -7.70801e-21)
(0.668865 -0.0858932 -2.05545e-20)
(0.0380999 -0.117027 -4.03457e-21)
(0.117765 -0.217071 2.19749e-20)
(0.217916 -0.237103 -5.29945e-20)
(0.308022 -0.222936 2.30638e-20)
(0.387861 -0.199605 2.06147e-22)
(0.458942 -0.176905 -2.94847e-20)
(0.522373 -0.156822 1.30753e-20)
(0.579196 -0.139196 -1.24039e-21)
(0.630178 -0.123582 5.0044e-21)
(0.675145 -0.109762 -1.54431e-21)
(0.0477818 -0.140855 -4.63467e-20)
(0.135184 -0.262001 -5.54147e-20)
(0.23659 -0.286675 1.44827e-20)
(0.325376 -0.26983 -2.64204e-20)
(0.403202 -0.241729 -7.55116e-21)
(0.472344 -0.21431 1.12109e-20)
(0.534074 -0.190035 4.17773e-21)
(0.589461 -0.168716 1.57666e-20)
(0.639274 -0.149813 -3.39893e-21)
(0.682934 -0.133126 1.84834e-20)
(0.0591266 -0.16341 4.43576e-20)
(0.155703 -0.304982 2.85205e-20)
(0.258655 -0.334405 -2.17462e-20)
(0.345919 -0.315161 3.66869e-20)
(0.421378 -0.282535 -3.24087e-21)
(0.488229 -0.250591 -3.99912e-20)
(0.547947 -0.222281 7.03721e-21)
(0.601629 -0.197401 -4.29607e-20)
(0.650057 -0.175315 1.57494e-21)
(0.69219 -0.155877 1.57968e-20)
(0.071989 -0.184489 -3.33533e-20)
(0.179116 -0.345699 5.97182e-20)
(0.283926 -0.379992 2.34217e-20)
(0.3695 -0.358669 -2.88267e-20)
(0.442264 -0.321807 1.30243e-22)
(0.506491 -0.285561 7.38486e-20)
(0.5639 -0.253404 3.47051e-21)
(0.615622 -0.225118 3.31556e-20)
(0.662456 -0.199971 4.06213e-20)
(0.702866 -0.177908 -2.29153e-20)
(0.0862028 -0.203908 1.86966e-20)
(0.205188 -0.383851 -8.94276e-21)
(0.312189 -0.423146 -2.12861e-20)
(0.395943 -0.400111 1.6328e-20)
(0.465718 -0.359338 6.20722e-20)