/*--------------------------------*- C++ -*----------------------------------*\
  =========                 |
  \\      /  F ield         | OpenFOAM: The Open Source CFD Toolbox
   \\    /   O peration     | Website:  https://openfoam.org
    \\  /    A nd           | Version:  7
     \\/     M anipulation  |
\*---------------------------------------------------------------------------*/
FoamFile
{
    version     2.0;
    format      ascii;
    class       surfaceScalarField;
    location    "20";
    object      phi;
}
// * * * * * * * * * * * * * * * * * * * * * * * * * * * * * * * * * * * * * //

dimensions      [0 3 -1 0 0 0 0];

internalField   nonuniform List<scalar> 
4148
(
0.0675886
0.0184321
0.01564
0.0540863
0.0644472
0.0187813
0.0125159
0.0413824
0.0157121
0.0508901
0.0611419
0.0190174
0.00679735
0.022873
0.00940557
0.0301297
0.012399
0.0383889
0.0156909
0.0475983
0.0576887
0.0191441
0.00445353
0.0149424
0.0065956
0.0207309
0.00919161
0.0275337
0.0122116
0.0353689
0.0155813
0.0442286
0.0541024
0.0191677
0.00263423
0.0089206
0.00426797
0.0133086
0.00636116
0.0186377
0.00892869
0.0249662
0.0119574
0.0323402
0.0153889
0.0407971
0.0503938
0.0190974
0.00134643
0.00463698
0.00249429
0.00777274
0.00406407
0.0117388
0.00609588
0.0166059
0.00861888
0.0224432
0.011639
0.02932
0.0151187
0.0373175
0.0465681
0.0189444
0.00125965
0.00391395
0.00234552
0.00668687
0.00384303
0.0102413
0.00580094
0.014648
0.00826285
0.0199813
0.0112566
0.0263263
0.0147731
0.033801
0.0426206
0.0187206
0.000495646
0.00147731
0.00116945
0.00324015
0.0021887
0.00566762
0.00360582
0.00882421
0.0054769
0.0127769
0.00785952
0.0175987
0.0108062
0.0233796
0.0143485
0.0302586
0.0385332
0.0184359
0.000108914
0.000210227
0.000453758
0.00113247
0.00107633
0.00261757
0.00202473
0.00471923
0.00335349
0.00749545
0.00512404
0.0110064
0.00740595
0.0153167
0.010278
0.0205076
0.0138299
0.0267067
0.034275
0.0180882
9.79472e-05
0.000112279
0.000411224
0.000819189
0.000980956
0.00204784
0.00185479
0.00384539
0.00308764
0.0062626
0.00474323
0.00935081
0.0068982
0.0131618
0.00965294
0.0177528
0.0131718
0.0231878
0.0297977
0.0176491
8.69656e-05
2.53139e-05
0.000368384
0.000537771
0.000884183
0.00153204
0.00168061
0.00304897
0.00281111
0.0051321
0.00433788
0.00782404
0.00633596
0.0111637
0.00890586
0.0151829
0.0122501
0.0198436
0.0249303
0.0171175
7.60683e-05
-5.07544e-05
0.000325664
0.000288175
0.000787116
0.00107059
0.00150454
0.00233154
0.00252849
0.00410815
0.00391653
0.00643599
0.00573419
0.00934604
0.0080563
0.0128608
0.01093
0.0169699
0.0216341
0.0142261
6.53688e-05
-0.000116123
0.000283537
7.00069e-05
0.000690991
0.000663135
0.00132933
0.0016932
0.00224568
0.0031918
0.00349244
0.00518923
0.00512605
0.00771244
0.00720445
0.0107824
0.00976905
0.0144053
0.0185021
0.0129011
5.49783e-05
-0.000171101
0.000242463
-0.000117477
0.000597
0.000308598
0.00115761
0.00113259
0.00196809
0.00238132
0.00307668
0.00408064
0.004535
0.00625412
0.00639856
0.00891884
0.00873011
0.0120738
0.0156039
0.0116283
4.49906e-05
-0.000216092
0.000202829
-0.000275316
0.000506132
5.29521e-06
0.00099145
0.000647274
0.00169962
0.00167315
0.00267574
0.00310452
0.00396914
0.00496072
0.00563617
0.00725181
0.0077482
0.00996173
0.0129505
0.0104016
3.54727e-05
-0.000251565
0.000164925
-0.000404768
0.00041911
-0.00024889
0.000832291
0.000234093
0.0014427
0.00106274
0.00229288
0.00225433
0.00343057
0.00382303
0.00491205
0.00577033
0.00680888
0.0080649
0.0105532
0.00920617
2.6464e-05
-0.000278029
0.000128936
-0.00050724
0.000336401
-0.000456355
0.000681016
-0.000110521
0.00119867
0.000545091
0.00192961
0.00152339
0.00291975
0.00283289
0.00422365
0.00446642
0.005908
0.00638055
0.00842019
0.00804101
1.79803e-05
-0.000296009
9.49627e-05
-0.000584223
0.000258264
-0.000619656
0.000538092
-0.000390349
0.000968148
0.000115035
0.0015864
0.000905146
0.00243641
0.00198287
0.00356937
0.00333347
0.00504415
0.00490577
0.00655239
0.00691196
1.00215e-05
-0.00030603
6.30422e-05
-0.000637244
0.000184815
-0.000741429
0.00040372
-0.000609255
0.000751354
-0.000232599
0.00126328
0.000393216
0.00198016
0.001266
0.00294853
0.00236509
0.00421838
0.00363592
0.0049443
0.00582647
2.58357e-06
-0.000308614
3.31804e-05
-0.00066784
0.000116095
-0.000824343
0.000277972
-0.000771132
0.000548339
-0.000502966
0.000960224
-1.86687e-05
0.00155088
0.000675339
0.00236157
0.0015544
0.00343349
0.002564
0.00358567
0.00479211
-4.35988e-06
-0.000304254
5.38166e-06
-0.000677582
5.21283e-05
-0.00087109
0.000160899
-0.000879902
0.000359175
-0.000701242
0.000677342
-0.000336835
0.00114899
0.000203687
0.00180989
0.000893502
0.0026932
0.00168069
0.00246282
0.00381605
-1.07872e-05
-0.000293467
-2.0352e-05
-0.000668017
-7.03361e-06
-0.000884408
5.26104e-05
-0.000939546
0.000184064
-0.000832696
0.000415039
-0.00056781
0.000775398
-0.000156672
0.00129557
0.000373327
0.00200173
0.000974538
0.00155956
0.00290499
-1.67069e-05
-0.00027676
-4.39774e-05
-0.000640747
-6.12989e-05
-0.000867087
-4.66931e-05
-0.000954152
2.33829e-05
-0.000902772
0.000174017
-0.000718444
0.000431447
-0.000414103
0.000821181
-1.64065e-05
0.00136343
0.000432285
0.000857938
0.00206505
-2.20999e-05
-0.00025466
-6.54266e-05
-0.00059742
-0.000110499
-0.000822014
-0.000136702
-0.000927949
-0.000122321
-0.000917153
-4.47591e-05
-0.000796005
0.000118808
-0.00057767
0.000389601
-0.000287199
0.000782719
3.91672e-05
0.000338551
0.00130211
-2.69397e-05
-0.00022772
-8.46037e-05
-0.000539756
-0.00015442
-0.000752198
-0.000217011
-0.000865358
-0.000252345
-0.00088182
-0.000240123
-0.000808227
-0.000160659
-0.000657134
2.83912e-06
-0.000450698
0.000264189
-0.000222183
-1.92062e-05
0.000621947
-3.11923e-05
-0.000196528
-0.00010139
-0.000469558
-0.000192803
-0.000660784
-0.000287147
-0.000771014
-0.000365892
-0.000803075
-0.000410784
-0.000763335
-0.000404761
-0.000663157
-0.000333635
-0.000521823
-0.000190083
-0.000365735
-0.000224673
1.53842e-05
-3.48188e-05
-0.000161709
-0.000115654
-0.000388723
-0.000225367
-0.000551071
-0.000346607
-0.000649775
-0.000462135
-0.000687547
-0.00055544
-0.000670031
-0.000611709
-0.000606887
-0.000619613
-0.00051392
-0.00057362
-0.000411728
-0.000325546
-0.000472747
-3.77797e-05
-0.00012393
-0.000127263
-0.00029924
-0.00025183
-0.000426503
-0.000394893
-0.000506712
-0.00054027
-0.00054217
-0.000672872
-0.000537428
-0.000779699
-0.000500061
-0.000851499
-0.00044212
-0.000884348
-0.000378879
-0.00032939
-0.000880505
-4.00377e-05
-8.38919e-05
-0.000136093
-0.000203185
-0.000271935
-0.000290662
-0.000431553
-0.000347094
-0.000599576
-0.000374147
-0.000761996
-0.000375008
-0.000907176
-0.000354881
-0.00102741
-0.000321889
-0.00112017
-0.000286119
-0.000260305
-0.00118925
-4.15619e-05
-0.000142042
-0.000285466
-0.000456216
-0.000176344
-0.000639463
-0.0001909
-0.00082193
-0.000192542
-0.000992892
-0.000183918
-0.00114566
-0.000169117
-0.00127863
-0.000153149
-0.000142399
-0.00139654
-0.000468616
-0.000659515
-0.000852056
-0.00103597
-0.00120509
-0.00135824
-0.00150064
0.217932
-0.00133304
0.219365
-0.00143265
0.220896
-0.00153076
0.222523
-0.0016272
0.224245
-0.00172179
0.226059
-0.00181437
0.227964
-0.00190476
0.229957
-0.00199277
0.232035
-0.00207817
0.234196
-0.00216066
-0.00223959
0.236435
0.208026
-0.00261107
0.209399
-0.00280529
0.210865
-0.00299657
0.212422
-0.00318456
0.214069
-0.00336895
0.215804
-0.00354938
0.217625
-0.00372553
0.219529
-0.00389701
0.221515
-0.00406341
0.223578
-0.00422408
-0.00437777
0.225716
0.198762
-0.00384257
0.200083
-0.00412699
0.201494
-0.00440706
0.202991
-0.00468229
0.204575
-0.0049522
0.206242
-0.00521631
0.20799
-0.00547412
0.209818
-0.00572508
0.211723
-0.00596855
0.213703
-0.0062036
-0.00642831
0.215754
0.190071
-0.00503397
0.191348
-0.00540456
0.192711
-0.00576944
0.194157
-0.006128
0.195684
-0.00647961
0.197291
-0.00682364
0.198977
-0.00715945
0.200738
-0.00748632
0.202573
-0.00780339
0.204479
-0.00810946
-0.00840189
0.206452
0.181894
-0.00619057
0.183133
-0.00664364
0.184453
-0.00708973
0.185853
-0.00752808
0.187332
-0.00795792
0.188887
-0.00837849
0.190516
-0.008789
0.192218
-0.00918857
0.193991
-0.00957615
0.195832
-0.00995022
-0.0103074
0.197737
0.174181
-0.00731674
0.175387
-0.0078489
0.17667
-0.00837287
0.178029
-0.00888774
0.179464
-0.00939262
0.180972
-0.00988663
0.182552
-0.0103688
0.184202
-0.0108382
0.185919
-0.0112934
0.187701
-0.0117328
-0.0121521
0.189546
0.16689
-0.00841613
0.168065
-0.00902421
0.169315
-0.00962294
0.170639
-0.0102113
0.172034
-0.0107883
0.173501
-0.0113528
0.175036
-0.0119039
0.176638
-0.0124404
0.178305
-0.0129607
0.180035
-0.0134628
-0.0139417
0.181825
0.159983
-0.00949179
0.161131
-0.0101728
0.162352
-0.0108434
0.163643
-0.0115023
0.165003
-0.0121486
0.166432
-0.012781
0.167926
-0.0133984
0.169485
-0.0139994
0.171107
-0.0145824
0.172789
-0.0151448
-0.015681
0.174528
0.153429
-0.0105463
0.154554
-0.0112974
0.155747
-0.012037
0.157009
-0.0127639
0.158337
-0.0134768
0.15973
-0.0141745
0.161188
-0.0148557
0.162707
-0.0155188
0.164287
-0.016162
0.165924
-0.0167825
-0.0173736
0.167617
0.147201
-0.0115818
0.148304
-0.0124003
0.149473
-0.0132063
0.150707
-0.0139984
0.152006
-0.0147754
0.153367
-0.0155359
0.15479
-0.0162783
0.156272
-0.0170011
0.157813
-0.0177022
0.159408
-0.0183784
-0.0190221
0.161057
0.141275
-0.0126002
0.142358
-0.0134833
0.143505
-0.0143531
0.144714
-0.0152079
0.145985
-0.0160464
0.147316
-0.0168671
0.148706
-0.0176683
0.150153
-0.0184482
0.151656
-0.0192045
0.153211
-0.0199338
-0.0206274
0.154816
0.134628
-0.0126451
0.13563
-0.0136029
0.136695
-0.014548
0.137821
-0.0154789
0.139007
-0.0163938
0.140251
-0.0172911
0.141553
-0.0181692
0.142911
-0.0190263
0.144324
-0.0198604
0.145788
-0.0206689
0.147302
-0.0214479
-0.0221883
0.148863
0.12926
-0.013573
0.130248
-0.0145909
0.131296
-0.0155953
0.132401
-0.0165844
0.133564
-0.0175565
0.134782
-0.0185096
0.136055
-0.019442
0.137381
-0.0203516
0.138756
-0.0212361
0.14018
-0.0220927
0.141649
-0.0229171
-0.0236998
0.143161
0.124138
-0.0144893
0.125112
-0.0155645
0.126141
-0.0166252
0.127227
-0.0176694
0.128365
-0.0186953
0.129556
-0.0197006
0.130797
-0.0206832
0.132086
-0.0216407
0.133421
-0.0225705
0.134798
-0.0234694
0.136213
-0.0243328
-0.0251513
0.137665
0.119244
-0.0153938
0.120203
-0.0165229
0.121214
-0.0176363
0.122276
-0.0187318
0.123388
-0.0198071
0.124547
-0.0208596
0.125751
-0.0218869
0.126996
-0.022886
0.128279
-0.0238539
0.129597
-0.0247868
0.130944
-0.0256798
-0.0265246
0.132317
0.114562
-0.0162845
0.115502
-0.0174634
0.116491
-0.018625
0.117526
-0.0197666
0.118604
-0.0208854
0.119723
-0.0219785
0.120879
-0.0230425
0.122067
-0.0240741
0.123283
-0.0250696
0.124521
-0.0260247
0.125775
-0.026934
-0.0277919
0.127042
0.110072
-0.0171575
0.110989
-0.0183808
0.111949
-0.0195844
0.112947
-0.020765
0.113981
-0.0219191
0.115045
-0.023043
0.116135
-0.0241327
0.117245
-0.0251841
0.118369
-0.0261928
0.119498
-0.027154
0.120626
-0.0280617
-0.0289148
0.121748
0.105751
-0.0180056
0.106636
-0.0192659
0.107554
-0.0205029
0.108502
-0.0217126
0.109473
-0.0228905
0.110462
-0.0240321
0.111462
-0.0251325
0.112465
-0.0261866
0.113461
-0.0271895
0.114443
-0.0281358
0.115401
-0.0290191
-0.0298452
0.116331
0.101571
-0.0188172
0.102409
-0.0201044
0.10327
-0.0213632
0.104145
-0.0225884
0.10503
-0.0237748
0.105914
-0.0249167
0.10679
-0.0260082
0.107647
-0.0270436
0.108475
-0.0280174
0.109263
-0.0289237
0.11
-0.029756
-0.0305293
0.110684
0.0974965
-0.0195756
0.0982682
-0.0208761
0.0990461
-0.0221411
0.0998222
-0.0233644
0.100587
-0.0245397
0.101331
-0.0256603
0.102042
-0.0267196
0.102709
-0.0277109
0.103321
-0.0286288
0.103865
-0.0294675
0.104329
-0.03022
-0.0309136
0.104713
0.0934852
-0.020258
0.0941636
-0.0215545
0.0948288
-0.0228064
0.0954708
-0.0240064
0.0960784
-0.0251474
0.0966398
-0.0262217
0.0971424
-0.0272221
0.0975735
-0.028142
0.0979208
-0.0289762
0.0981725
-0.0297192
0.0983165
-0.030364
-0.0309521
0.0983551
0.0894878
-0.0208359
0.0900408
-0.0221076
0.0905581
-0.0233236
0.0910277
-0.024476
0.0914371
-0.0255568
0.0917736
-0.0265582
0.0920242
-0.0274727
0.0921761
-0.028294
0.092218
-0.029018
0.0921391
-0.0296403
0.0919285
-0.0301534
-0.0306145
0.0915909
0.0854513
-0.0212771
0.085844
-0.0225003
0.086176
-0.0236556
0.0864346
-0.0247346
0.0866068
-0.0257291
0.08668
-0.0266313
0.086642
-0.0274346
0.0864816
-0.0281337
0.0861894
-0.0287258
0.0857573
-0.0292081
0.0851758
-0.029572
-0.0298906
0.0844519
0.0813247
-0.0215479
0.0815223
-0.0226979
0.0816341
-0.0237674
0.0816475
-0.0247479
0.0815502
-0.0256318
0.081331
-0.0264122
0.08098
-0.0270836
0.0804889
-0.0276425
0.0798516
-0.0280885
0.0790632
-0.0284197
0.0781164
-0.0286252
-0.0287927
0.0770186
0.0770651
-0.0216171
0.0770373
-0.02267
0.0769004
-0.0236305
0.0766432
-0.0244907
0.0762554
-0.025244
0.0757286
-0.0258853
0.0750561
-0.0264112
0.0742339
-0.0268203
0.07326
-0.0271146
0.0721334
-0.0272931
0.070848
-0.0273399
-0.0273537
0.069409
0.072645
-0.0214598
0.0723697
-0.0223947
0.0719659
-0.0232268
0.0714248
-0.0239496
0.0707394
-0.0245586
0.0699048
-0.0250507
0.068919
-0.0254255
0.0677829
-0.0256841
0.0664994
-0.0258311
0.0650711
-0.0258648
0.0634924
-0.0257611
-0.0256229
0.0617616
0.0680591
-0.0210613
0.067526
-0.0218615
0.0668503
-0.0225511
0.0660265
-0.0231258
0.0650512
-0.0235833
0.0639241
-0.0239237
0.0626481
-0.0241494
0.0612291
-0.0242651
0.0596753
-0.0242773
0.0579934
-0.024183
0.0561786
-0.0239463
-0.0236613
0.0542169
0.0633202
-0.0204181
0.0625314
-0.0210726
0.0615925
-0.0216122
0.0605015
-0.0220348
0.0592594
-0.0223412
0.0578703
-0.0225346
0.0563418
-0.0226209
0.0546842
-0.0226075
0.0529098
-0.0225028
0.0510284
-0.0223016
0.0490359
-0.0219537
-0.0215269
0.0469015
0.0584547
-0.019535
0.0574201
-0.0200379
0.0562331
-0.0204253
0.0548961
-0.0206978
0.0534143
-0.0208594
0.0517962
-0.0209165
0.0500535
-0.0208782
0.0482009
-0.0207549
0.0462542
-0.0205562
0.0442289
-0.0202763
0.0421276
-0.0198524
-0.019284
0.0398847
0.0535571
0.0523004
0.0508926
0.0493389
0.0476472
0.0458281
0.0438943
0.04186
0.0397396
0.0375515
0.0353482
0.0331818
0.237078
-0.000642488
0.237718
-0.00064018
0.238352
-0.000633856
0.238975
-0.000623009
0.239582
-0.000607011
0.240167
-0.000585382
0.240725
-0.000557772
0.241249
-0.00052391
0.241732
-0.000483604
0.242169
-0.000436782
0.242553
-0.000383519
0.242877
-0.000324058
0.243136
-0.000258825
0.243324
-0.000188433
0.243438
-0.000113682
0.243473
-3.55476e-05
0.243428
4.48282e-05
0.243302
0.000126218
0.243095
0.000207245
0.242808
0.000286696
0.242445
0.000363009
0.24201
0.000435695
0.241507
0.000502442
0.240942
0.000565541
0.240322
0.00061908
0.239648
0.000674104
0.238936
0.000712134
0.238169
0.00076699
0.237379
0.000789995
0.000852645
0.226334
-0.00125989
0.226948
-0.00125465
0.227556
-0.00124138
0.228152
-0.00121911
0.228731
-0.00118663
0.229289
-0.00114302
0.229819
-0.00108764
0.230315
-0.00101998
0.230771
-0.000939719
0.231181
-0.000846737
0.231539
-0.000741226
0.231838
-0.000623705
0.232075
-0.000495047
0.232243
-0.000356486
0.232339
-0.000209622
0.232359
-5.63882e-05
0.232303
0.00010097
0.232169
0.000260034
0.231959
0.000418139
0.231672
0.000572879
0.231314
0.000721344
0.230887
0.000862341
0.230398
0.000992002
0.22985
0.00111357
0.229251
0.00121819
0.228602
0.00132228
0.227915
0.00139983
0.227183
0.00149901
0.226416
0.00155633
0.00166411
0.216351
-0.001857
0.216943
-0.00184725
0.217527
-0.00182551
0.218099
-0.0017903
0.218652
-0.00173983
0.219182
-0.00167284
0.219682
-0.00158841
0.220148
-0.00148589
0.220573
-0.00136483
0.220952
-0.00122518
0.221278
-0.0010673
0.221546
-0.000892035
0.221752
-0.000700767
0.221891
-0.000495392
0.22196
-0.000278329
0.221956
-5.24747e-05
0.221878
0.000178847
0.221726
0.000412059
0.221501
0.000643279
0.221204
0.000868985
0.220841
0.00108504
0.220413
0.00128962
0.219928
0.00147749
0.219389
0.00165284
0.218803
0.00180414
0.218172
0.00195319
0.217505
0.00206631
0.216797
0.00220725
0.216059
0.00229411
0.00244808
0.207033
-0.00243758
0.207607
-0.00242121
0.20817
-0.00238876
0.208718
-0.00233829
0.209246
-0.00226751
0.209748
-0.0021748
0.210218
-0.00205911
0.210652
-0.00191966
0.211043
-0.00175603
0.211386
-0.00156827
0.211676
-0.00135701
0.211908
-0.00112352
0.212076
-0.000869737
0.212179
-0.000598282
0.212213
-0.00031243
0.212177
-1.60588e-05
0.212069
0.000286464
0.211891
0.000590425
0.211644
0.000890809
0.211329
0.00118306
0.210953
0.00146197
0.210517
0.00172515
0.210028
0.00196626
0.209491
0.00219037
0.208911
0.00238371
0.208291
0.00257316
0.20764
0.00271786
0.206949
0.00289738
0.206234
0.00301005
0.00321055
0.198304
-0.00300424
0.198861
-0.00297852
0.199405
-0.00293252
0.199931
-0.00286382
0.200433
-0.00276964
0.200906
-0.00264817
0.201345
-0.00249825
0.201745
-0.00231912
0.202099
-0.00211043
0.202403
-0.00187245
0.202653
-0.0016062
0.202843
-0.00131344
0.20297
-0.000996757
0.203031
-0.000659555
0.203024
-0.000306
0.202949
5.90435e-05
0.202806
0.000430165
0.202594
0.000801584
0.202318
0.00116723
0.201979
0.00152163
0.201583
0.00185864
0.201133
0.00217539
0.200634
0.00246476
0.200092
0.00273255
0.199512
0.0029634
0.198897
0.00318862
0.198253
0.00336115
0.197575
0.00357593
0.196874
0.00371106
0.00395827
0.1901
-0.00355854
0.190642
-0.00352022
0.191167
-0.00345723
0.19167
-0.00336672
0.192146
-0.00324549
0.192589
-0.0030916
0.192995
-0.00290391
0.193357
-0.00268175
0.193672
-0.00242499
0.193934
-0.00213422
0.194138
-0.00181093
0.194282
-0.00145749
0.194363
-0.00107722
0.194378
-0.000674348
0.194326
-0.000253966
0.194207
0.000178082
0.194021
0.000615352
0.193772
0.00105107
0.193461
0.00147822
0.193092
0.00189047
0.19267
0.00228101
0.192199
0.00264648
0.191684
0.0029794
0.191131
0.00328591
0.190544
0.00355018
0.189926
0.00380646
0.189283
0.00400385
0.188609
0.00424996
0.187915
0.00440523
0.00469838
0.182367
-0.00410112
0.182894
-0.00404639
0.183399
-0.00396242
0.183878
-0.00384596
0.184326
-0.00369347
0.184737
-0.00350297
0.185107
-0.00327348
0.18543
-0.00300453
0.185701
-0.0026963
0.185917
-0.00234984
0.186073
-0.00196719
0.186167
-0.00155142
0.186196
-0.00110664
0.18616
-0.000637977
0.186057
-0.000151486
0.185889
0.000346085
0.185657
0.000847233
0.185364
0.00134429
0.185013
0.0018294
0.184608
0.00229549
0.184154
0.00273528
0.183655
0.00314488
0.183118
0.00351708
0.182546
0.00385758
0.181944
0.00415183
0.181317
0.00443427
0.180666
0.00465467
0.179989
0.00492701
0.179292
0.00510169
0.0054378
0.175059
-0.00463171
0.175568
-0.00455617
0.176053
-0.00444666
0.176506
-0.00429956
0.176924
-0.00411108
0.1773
-0.00387934
0.17763
-0.0036036
0.17791
-0.00328373
0.178134
-0.00292033
0.178299
-0.00251499
0.178402
-0.00207041
0.178441
-0.00159045
0.178414
-0.00108006
0.178322
-0.000545287
0.178164
6.7444e-06
0.177941
0.000568596
0.177657
0.00113157
0.177314
0.00168724
0.176916
0.00222708
0.176468
0.00274328
0.175975
0.0032284
0.175442
0.00367788
0.174874
0.00408549
0.174276
0.00445543
0.173651
0.00477682
0.173005
0.00508013
0.172337
0.00532286
0.171649
0.00561446
0.170941
0.00580983
0.00618236
0.168134
-0.00514902
0.168626
-0.00504761
0.169086
-0.0049074
0.169511
-0.00472442
0.169895
-0.0044947
0.170232
-0.0042166
0.170518
-0.00388978
0.170749
-0.00351452
0.170921
-0.00309194
0.17103
-0.00262426
0.171075
-0.00211496
0.171053
-0.00156872
0.170964
-0.000991428
0.170809
-0.000390073
0.170588
0.000227365
0.170305
0.000852248
0.169961
0.00147526
0.169561
0.00208708
0.16911
0.00267859
0.168612
0.00324141
0.168072
0.00376816
0.167496
0.00425343
0.166889
0.0046928
0.166257
0.00508758
0.1656
0.0054336
0.164928
0.00575181
0.164234
0.00601711
0.16353
0.00631865
0.162802
0.00653812
0.0069358
0.161558
-0.00565037
0.162028
-0.00551734
0.162461
-0.00534061
0.162853
-0.00511586
0.163197
-0.00483909
0.16349
-0.00450905
0.163726
-0.00412588
0.163902
-0.00369039
0.164014
-0.00320427
0.16406
-0.00267052
0.164039
-0.00209343
0.163948
-0.00147861
0.16379
-0.000832894
0.163564
-0.00016428
0.163273
0.000518348
0.16292
0.00120531
0.162509
0.00188658
0.162044
0.00255206
0.16153
0.00319222
0.160973
0.00379808
0.160379
0.00436265
0.159753
0.00487944
0.159099
0.00534675
0.158425
0.00576139
0.157729
0.00612939
0.157026
0.00645552
0.156299
0.00674412
0.155574
0.00704355
0.154819
0.00729259
0.00769868
0.155297
-0.00613118
0.15574
-0.00595998
0.156139
-0.00574013
0.156491
-0.00546702
0.156788
-0.00513675
0.157028
-0.00474864
0.157205
-0.0043034
0.157317
-0.00380241
0.157361
-0.00324808
0.157335
-0.00264422
0.157237
-0.00199608
0.157069
-0.00131024
0.156831
-0.000594559
0.156525
0.000141942
0.156153
0.000889427
0.155722
0.00163726
0.155233
0.00237469
0.154694
0.00309097
0.15411
0.00377625
0.153487
0.00442105
0.152831
0.00501905
0.152148
0.00556243
0.151442
0.00605318
0.150721
0.0064819
0.149982
0.00686862
0.149243
0.00719449
0.14848
0.00750706
0.147734
0.00778965
0.146951
0.00807549
0.0084677
0.149316
-0.00658404
0.149723
-0.00636725
0.15008
-0.00609687
0.150381
-0.00576797
0.150621
-0.00537709
0.150797
-0.00492424
0.150904
-0.00441076
0.15094
-0.00383866
0.150904
-0.00321119
0.150792
-0.00253311
0.150607
-0.00181069
0.150348
-0.00105159
0.150019
-0.000264772
0.149621
0.000539771
0.149159
0.0013511
0.148639
0.00215779
0.148065
0.00294838
0.147444
0.00371159
0.146783
0.0044374
0.146088
0.00511593
0.145365
0.00574182
0.144622
0.00630577
0.143861
0.0068143
0.143093
0.00725028
0.14231
0.00765135
0.141537
0.00796763
0.14074
0.00830426
0.139976
0.00855309
0.139167
0.00888419
0.0092355
0.143574
-0.00699752
0.143934
-0.00672698
0.144235
-0.00639778
0.144472
-0.00600489
0.14464
-0.00554568
0.144737
-0.00502103
0.144759
-0.00443291
0.144705
-0.00378404
0.144572
-0.00307864
0.144362
-0.00232257
0.144074
-0.00152325
0.143712
-0.000689457
0.143279
0.000168691
0.142778
0.00104015
0.142216
0.00191296
0.141599
0.00277495
0.140933
0.0036141
0.140226
0.0044187
0.139485
0.00517878
0.138717
0.00588421
0.137928
0.00653088
0.137125
0.00710793
0.136313
0.0076272
0.1355
0.00806243
0.13468
0.00847225
0.133878
0.00876871
0.133054
0.00912858
0.132282
0.00932546
0.131455
0.00971092
0.009991
0.138022
-0.007355
0.138317
-0.00702214
0.138545
-0.00662519
0.138699
-0.00615954
0.138778
-0.0056241
0.138778
-0.00502066
0.138696
-0.00435177
0.138533
-0.00362101
0.138288
-0.00283374
0.137963
-0.00199706
0.137559
-0.00111959
0.137081
-0.000211372
0.136533
0.000716428
0.135922
0.00165154
0.135254
0.00258127
0.134536
0.00349275
0.133776
0.00437358
0.132983
0.00521184
0.132164
0.00599787
0.131327
0.00672148
0.130478
0.0073801
0.129624
0.00796129
0.128769
0.00848289
0.127923
0.0089084
0.127075
0.00932023
0.126257
0.00958627
0.125418
0.00996751
0.12465
0.0100942
0.123817
0.0105431
0.0107203
0.132596
-0.0076339
0.132804
-0.00723052
0.132936
-0.00675677
0.132986
-0.0062097
0.132952
-0.0055907
0.132834
-0.00490239
0.13263
-0.00414778
0.132341
-0.0033315
0.131967
-0.00246027
0.131513
-0.0015425
0.130981
-0.000588146
0.130378
0.000391667
0.12971
0.00138449
0.128985
0.00237718
0.128209
0.00335635
0.127393
0.0043087
0.126545
0.00522171
0.125674
0.00608353
0.124786
0.00688506
0.123892
0.0076163
0.122995
0.00827653
0.122105
0.00885176
0.121221
0.00936628
0.120357
0.00977262
0.119498
0.010179
0.11868
0.0104043
0.117844
0.0108042
0.117094
0.0108437
0.116273
0.0113644
0.0114081
0.127214
-0.00780614
0.127309
-0.0073256
0.12732
-0.00676686
0.127241
-0.00613096
0.127073
-0.00542285
0.126816
-0.00464563
0.126471
-0.00380269
0.12604
-0.00289996
0.125525
-0.00194567
0.124932
-0.000949594
0.124267
7.69572e-05
0.123537
0.00112199
0.122749
0.0021717
0.121914
0.00321247
0.12104
0.00423042
0.120137
0.00521212
0.119213
0.00614525
0.118278
0.00701837
0.11734
0.00782324
0.116406
0.00855027
0.115482
0.00920084
0.114574
0.00975946
0.113683
0.0102572
0.112821
0.0106351
0.111971
0.0110283
0.111172
0.0112038
0.110357
0.0116188
0.109644
0.0115566
0.108853
0.0121562
0.012039
0.121783
-0.0078404
0.121736
-0.00727911
0.121599
-0.0066294
0.121368
-0.00590003
0.121045
-0.00510046
0.120633
-0.00423361
0.120134
-0.00330325
0.119551
-0.00231696
0.11889
-0.00128454
0.118157
-0.000217129
0.117361
0.000873094
0.116511
0.00197267
0.115615
0.0030675
0.114684
0.0041434
0.113728
0.00518649
0.112756
0.00618353
0.111779
0.00712281
0.110804
0.00799354
0.109838
0.00878866
0.108889
0.00949917
0.107961
0.0101287
0.10706
0.0106604
0.106186
0.011132
0.105348
0.011473
0.10453
0.011846
0.10377
0.0119642
0.102998
0.0123905
0.102339
0.0122157
0.101596
0.0128994
0.0125986
0.116197
-0.00770643
0.115983
-0.0070653
0.115676
-0.00632225
0.115275
-0.00549909
0.114785
-0.00461018
0.114209
-0.00365731
0.11355
-0.00264494
0.112816
-0.00158261
0.112013
-0.000481646
0.11115
0.000645818
0.110237
0.00178652
0.109283
0.00292638
0.108299
0.00405107
0.107296
0.00514639
0.106284
0.00619878
0.105272
0.00719566
0.104269
0.00812615
0.103282
0.00898045
0.102318
0.00975287
0.101382
0.0104351
0.100477
0.0110331
0.0996091
0.0115285
0.0987751
0.011966
0.0979849
0.0122631
0.097221
0.0126099
0.0965197
0.0126654
0.0958108
0.0130994
0.0952216
0.0128049
0.0945451
0.0135759
0.0130752
0.110358
-0.00738101
0.109959
-0.00666609
0.109469
-0.00583211
0.10889
-0.00492034
0.108229
-0.00394931
0.107491
-0.00291884
0.106681
-0.00183476
0.105807
-0.000708802
0.104879
0.000446536
0.103906
0.00161831
0.1029
0.00279267
0.101871
0.0039554
0.10083
0.00509232
0.0997865
0.00618969
0.0987506
0.00723468
0.0977306
0.00821562
0.096734
0.0091228
0.095767
0.00994748
0.0948344
0.0106854
0.0939404
0.0113291
0.0930867
0.0118868
0.0922768
0.0123384
0.0915073
0.0127355
0.0907866
0.0129838
0.0900967
0.0132999
0.0894725
0.0132897
0.088844
0.0137279
0.088338
0.0133109
0.0877442
0.0141697
0.0134598
0.104186
-0.00685418
0.103596
-0.00607606
0.102923
-0.00515865
0.102171
-0.00416921
0.10135
-0.00312817
0.100465
-0.00203314
0.0995223
-0.000892417
0.0985332
0.000280221
0.0975081
0.00147169
0.0964578
0.00266863
0.0953932
0.00385724
0.094325
0.00502364
0.093263
0.00615429
0.0922164
0.00723627
0.0911933
0.00825778
0.0902007
0.00920824
0.0892443
0.0100792
0.0883288
0.010863
0.0874574
0.0115569
0.0866325
0.0121539
0.0858546
0.0126647
0.0851257
0.0130674
0.0844414
0.0134199
0.0838088
0.0136163
0.0832099
0.0138988
0.0826772
0.0138223
0.0821434
0.0142618
0.0817307
0.0137236
0.0812323
0.014668
0.013747
0.0976347
-0.00613377
0.0968642
-0.00530554
0.0960221
-0.00431664
0.0951183
-0.00326532
0.0941604
-0.00217031
0.0931551
-0.00102782
0.0921124
0.000150321
0.0910435
0.00134911
0.0899597
0.00255549
0.0888717
0.00375656
0.0877899
0.00493908
0.0867235
0.00609002
0.085681
0.00719679
0.0846697
0.00824755
0.0836959
0.00923159
0.0827647
0.0101394
0.08188
0.0109639
0.0810448
0.0116983
0.0802604
0.0123413
0.0795281
0.0128862
0.0788468
0.0133461
0.0782174
0.0136968
0.0776346
0.0140027
0.0771045
0.0141464
0.0766091
0.0143942
0.0761786
0.0142529
0.0757495
0.0146909
0.0754365
0.0140366
0.0750425
0.015062
0.0139347
0.0907039
-0.00524683
0.0897791
-0.00438067
0.0887975
-0.00333513
0.0877732
-0.00224098
0.0867137
-0.00111077
0.0856271
5.87484e-05
0.0845254
0.00125199
0.0834206
0.0024539
0.0823232
0.00365292
0.0812427
0.00483709
0.0801875
0.00599427
0.0791649
0.0071126
0.0781812
0.00818054
0.0772415
0.00918724
0.07635
0.010123
0.07551
0.0109794
0.0747236
0.0117503
0.073992
0.0124298
0.0733154
0.0130179
0.0726935
0.0135081
0.0721243
0.0139153
0.0716077
0.0142134
0.0711377
0.0144726
0.0707195
0.0145646
0.0703359
0.0147778
0.0700137
0.014575
0.0696952
0.0150094
0.0694847
0.0142471
0.0692003
0.0153465
0.0140238
0.0834421
-0.004237
0.0824015
-0.00334008
0.0813203
-0.00225399
0.0802171
-0.0011377
0.0790995
6.83835e-06
0.0779778
0.00118044
0.0768656
0.00236414
0.0757736
0.00354592
0.0747102
0.00471629
0.0736825
0.00586478
0.0726962
0.00698058
0.071756
0.00805284
0.0708656
0.00907091
0.0700281
0.0100247
0.0692459
0.0109053
0.0685203
0.011705
0.0678521
0.0124185
0.0672411
0.0130408
0.0666864
0.0135726
0.0661867
0.0140077
0.0657392
0.0143628
0.0653431
0.0146095
0.0649921
0.0148236
0.0646905
0.0148663
0.0644221
0.0150463
0.0642106
0.0147865
0.0640045
0.0152155
0.063896
0.0143555
0.0637226
0.0155199
0.0140179
0.0759397
-0.00315816
0.0748289
-0.00222923
0.0736941
-0.0011192
0.0725592
-2.78173e-06
0.0714322
0.00113378
0.070327
0.00228561
0.0692556
0.00343554
0.0682257
0.00457591
0.0672421
0.00569986
0.0663085
0.00679836
0.0654275
0.00786156
0.0646012
0.00887918
0.0638312
0.00984095
0.0631187
0.0107372
0.0624645
0.0115595
0.0618689
0.0123007
0.0613313
0.0129561
0.0608508
0.0135212
0.0604255
0.0139979
0.0600538
0.0143795
0.0597319
0.0146847
0.0594589
0.0148825
0.0592282
0.0150542
0.0590434
0.015051
0.0588897
0.0152
0.0587873
0.0148889
0.058692
0.0153108
0.0586822
0.0143653
0.0586182
0.0155839
0.0139226
0.0683163
-0.0020655
0.067181
-0.00109386
0.0660409
2.08551e-05
0.0649241
0.00111399
0.0638413
0.00221665
0.0628056
0.00332126
0.0618252
0.00441591
0.0609026
0.0054986
0.0600381
0.00656431
0.0592318
0.00760462
0.0584836
0.00860979
0.0577934
0.00956938
0.0571614
0.010473
0.0565877
0.0113109
0.056072
0.0120751
0.0556139
0.0127587
0.0552123
0.0133578
0.0548655
0.013868
0.0545712
0.0142922
0.0543274
0.0146233
0.0541301
0.014882
0.0539781
0.0150345
0.053865
0.0151673
0.0537935
0.0151225
0.0537506
0.0152429
0.0537528
0.0148867
0.0537637
0.0153
0.053847
0.014282
0.0538879
0.015543
0.013745
0.0607023
-0.00100623
0.059584
2.44346e-05
0.0584881
0.00111677
0.0574434
0.00215874
0.0564591
0.00320088
0.0555445
0.00423592
0.0546997
0.00526069
0.053921
0.00627728
0.0532048
0.00728053
0.0525482
0.00826122
0.0519494
0.00920864
0.0514073
0.0101115
0.0509214
0.0109588
0.0504915
0.0117409
0.0501169
0.0124497
0.0497969
0.0130788
0.0495299
0.0136248
0.0493142
0.0140837
0.0491473
0.0144591
0.0490268
0.0147438
0.048949
0.0149598
0.0489123
0.0150712
0.0489106
0.015169
0.0489461
0.015087
0.0490074
0.0151817
0.0491074
0.0147866
0.0492177
0.0151897
0.0493868
0.0141128
0.0495262
0.0154036
0.0134935
0.0532202
-9.5241e-06
0.0521583
0.00108637
0.0511607
0.00211436
0.0502453
0.00307413
0.0494137
0.00403246
0.0486649
0.00498475
0.0479898
0.0059358
0.0473795
0.00688753
0.046828
0.00783202
0.0463314
0.00875781
0.0458877
0.00965241
0.0454958
0.0105033
0.0451557
0.011299
0.0448669
0.0120296
0.0446292
0.0126874
0.0444418
0.0132663
0.0443031
0.0137635
0.0442114
0.0141753
0.0441642
0.0145063
0.0441591
0.0147488
0.0441924
0.0149265
0.0442625
0.0150011
0.0443638