/*--------------------------------*- C++ -*----------------------------------*\
  =========                 |
  \\      /  F ield         | OpenFOAM: The Open Source CFD Toolbox
   \\    /   O peration     | Website:  https://openfoam.org
    \\  /    A nd           | Version:  7
     \\/     M anipulation  |
\*---------------------------------------------------------------------------*/
FoamFile
{
    version     2.0;
    format      ascii;
    class       volVectorField;
    location    "20";
    object      U;
}
// * * * * * * * * * * * * * * * * * * * * * * * * * * * * * * * * * * * * * //

dimensions      [0 1 -1 0 0 0 0];

internalField   nonuniform List<vector> 
2125
(
(1.09288 -0.0943003 -7.41223e-21)
(0.95784 -0.0567881 -2.04171e-20)
(1.0568 -0.0732543 -3.70361e-21)
(0.799046 -0.0180281 1.35632e-20)
(0.914377 -0.039104 -1.59224e-21)
(1.01739 -0.0535624 1.78651e-20)
(0.511902 0.0273438 3.47725e-20)
(0.631768 0.0128822 -7.54121e-20)
(0.751909 -0.00450858 1.59225e-20)
(0.868543 -0.0234476 -1.27491e-20)
(0.974915 -0.0355826 -1.89931e-20)
(0.359396 0.0405559 6.8731e-21)
(0.469693 0.033146 -5.89193e-20)
(0.585493 0.0214603 4.12127e-20)
(0.703598 0.00667802 -3.30532e-20)
(0.820693 -0.0100446 3.4157e-20)
(0.929666 -0.0196946 -1.36426e-21)
(0.228971 0.0421022 -9.5358e-23)
(0.32392 0.0418996 2.33789e-20)
(0.428149 0.0369011 1.38076e-21)
(0.539238 0.027784 -3.29044e-20)
(0.654488 0.0154758 -7.71031e-22)
(0.771173 0.000915136 -1.48793e-20)
(0.881979 -0.0062967 1.8413e-20)
(0.125832 0.0344208 4.19133e-21)
(0.201918 0.0402113 1.21523e-20)
(0.289744 0.0416502 -2.09746e-20)
(0.387557 0.0387636 5.02361e-20)
(0.493339 0.0319575 -1.34473e-22)
(0.604924 0.0218976 -4.18486e-21)
(0.720296 0.00929707 -2.84617e-20)
(0.832176 0.00419998 -4.46324e-21)
(0.107654 0.0308723 3.13338e-21)
(0.176395 0.0372548 -8.63003e-21)
(0.257064 0.0400123 -1.0306e-20)
(0.348177 0.0389348 -6.79189e-21)
(0.448097 0.0341531 -4.88394e-21)
(0.555205 0.0260457 6.5436e-21)
(0.668297 0.015057 2.7179e-20)
(0.780518 0.0113885 2.12184e-20)
(0.042384 0.0177395 1.71348e-20)
(0.0908776 0.0267502 -4.07798e-20)
(0.152507 0.033434 2.3535e-20)
(0.226045 0.0372146 2.06276e-20)
(0.310239 0.0376597 -5.36821e-20)
(0.403783 0.0346173 1.49571e-20)
(0.505575 0.0281362 -7.04384e-22)
(0.615278 0.0182911 1.12443e-20)
(0.727117 0.0149072 -2.32888e-20)
(0.00679064 0.00370248 4.55832e-20)
(0.0335307 0.0140371 -1.34565e-20)
(0.075538 0.0222169 1.97093e-20)
(0.130335 0.0289555 1.26456e-20)
(0.196832 0.0335023 -7.46639e-21)
(0.273956 0.0352206 1.73999e-20)
(0.360654 0.033674 -7.08792e-21)
(0.456231 0.0285308 4.15657e-20)
(0.56112 0.0192917 -6.82918e-20)
(0.671695 0.014407 -2.43132e-20)
(0.00428972 0.00209676 -1.33032e-20)
(0.0256683 0.0102414 5.26468e-20)
(0.0616518 0.0174308 -4.28133e-20)
(0.10994 0.0240248 -1.45699e-21)
(0.169552 0.0291255 -2.07958e-20)
(0.239538 0.0319241 2.30855e-20)
(0.318994 0.0317236 2.51725e-20)
(0.407389 0.0278028 -1.265e-20)
(0.50546 0.0187533 1.1662e-20)
(0.612917 0.00952035 1.46274e-20)
(0.00215929 0.000523587 2.46208e-21)
(0.0187799 0.00645105 -1.45902e-20)
(0.0492187 0.0125413 1.82634e-20)
(0.0913611 0.0188358 -1.77302e-20)
(0.144317 0.0243227 -2.17673e-20)
(0.207212 0.0280703 -9.76569e-21)
(0.27918 0.0292049 -3.75832e-20)
(0.359511 0.0267948 2.34391e-20)
(0.448264 0.0185741 4.3735e-20)
(0.548291 0.0025425 -1.1999e-20)
(0.000384014 -0.000983334 7.9435e-21)
(0.0128374 0.0027559 6.42889e-21)
(0.0382203 0.00768426 -1.6253e-21)
(0.0746173 0.0135627 -3.01431e-20)
(0.12122 0.0192995 3.19887e-20)
(0.177211 0.023898 3.62527e-20)
(0.241723 0.0264319 1.27016e-20)
(0.313648 0.026152 -2.45088e-21)
(0.391526 0.0215828 -4.44148e-20)
(0.477828 0.00565217 1.51781e-20)
(-0.0010556 -0.00239437 -2.41759e-20)
(0.00780115 -0.00076443 -3.54769e-21)
(0.0286192 0.00297925 7.24113e-21)
(0.0596987 0.00835428 2.39206e-21)
(0.100318 0.0142168 9.37263e-21)
(0.149729 0.0195441 -5.77766e-20)
(0.20712 0.023417 3.49244e-20)
(0.271319 0.0252461 -4.16592e-20)
(0.34087 0.0243252 3.09084e-20)
(0.421599 0.0119558 3.4693e-20)
(-0.00218297 -0.0036844 1.06128e-20)
(0.00362014 -0.00404142 -7.34925e-21)
(0.020358 -0.00147103 3.42127e-21)
(0.046562 0.00333605 -1.57497e-20)
(0.081607 0.00920144 2.0043e-21)
(0.124837 0.0150894 -4.08163e-21)
(0.175552 0.0200845 -2.17534e-20)
(0.232715 0.023592 1.17428e-20)
(0.29514 0.0250387 2.1776e-20)
(0.369623 0.0155213 -3.22943e-20)
(-0.00302474 -0.00483289 -1.39884e-20)
(0.000233642 -0.00701751 -2.22287e-20)
(0.0133605 -0.00557928 1.81537e-20)
(0.035132 -0.00138471 1.82836e-20)
(0.0650287 0.00436416 -4.54338e-20)
(0.102499 0.0106171 4.57804e-20)
(0.146971 0.0164389 -5.16792e-20)
(0.197563 0.0211245 1.44218e-20)
(0.253256 0.0238587 -1.56494e-20)
(0.3206 0.0161369 -2.36555e-20)
(-0.00361 -0.00582367 7.31397e-21)
(-0.00242704 -0.00964556 1.77565e-20)
(0.00753528 -0.00927206 4.37607e-21)
(0.0253066 -0.00571485 5.17799e-21)
(0.0504795 -0.000191497 1.05913e-22)
(0.0826116 0.00622987 7.8507e-21)
(0.121252 0.0125777 1.59671e-20)
(0.165656 0.0180118 2.9806e-20)
(0.214929 0.0214388 -2.98745e-20)
(0.274983 0.0151414 1.02735e-20)
(-0.00396921 -0.00664454 -1.68028e-20)
(-0.00443611 -0.0118881 1.82245e-22)
(0.00277915 -0.0124887 5.84447e-21)
(0.0169643 -0.00957354 -1.12518e-20)
(0.0378268 -0.00436784 2.27844e-20)
(0.0650329 0.00204324 -5.44607e-20)
(0.0982404 0.00864867 2.95639e-20)
(0.136823 0.0144912 -2.73708e-20)
(0.179993 0.0182908 5.2985e-20)
(0.232885 0.0133311 1.36794e-20)
(-0.0041334 -0.00728683 9.16631e-21)
(-0.00587094 -0.0137168 -1.93866e-20)
(-0.00101819 -0.0151805 -6.23947e-21)
(0.00997109 -0.0128923 9.10481e-21)
(0.0269192 -0.00807533 1.5752e-20)
(0.0495974 -0.00182591 2.75527e-21)
(0.0777599 0.00481415 -9.92041e-21)
(0.110879 0.0108061 2.30066e-20)
(0.148262 0.0147866 -1.30034e-20)
(0.194249 0.0110998 -1.25336e-21)
(-0.00413337 -0.00774502 2.37084e-20)
(-0.00680991 -0.0151117 7.17094e-21)
(-0.0039705 -0.0173108 1.35927e-21)
(0.00418638 -0.0156153 -1.99296e-20)
(0.0175956 -0.0112358 1.82699e-20)
(0.0361284 -0.00526847 6.25689e-21)
(0.0596234 0.00123028 3.13131e-21)
(0.0876381 0.00718115 -7.21114e-21)
(0.119563 0.0112228 7.93476e-21)
(0.158998 0.00871141 1.36996e-20)
(-0.0039992 -0.00801646 -1.73983e-20)
(-0.00733059 -0.0160607 1.03694e-20)
(-0.00619167 -0.0188544 -1.25091e-21)
(-0.000531711 -0.017701 2.84696e-20)
(0.00969295 -0.0137854 -3.21212e-20)
(0.0244472 -0.00819036 1.08265e-20)
(0.0436448 -0.00196619 -6.92683e-21)
(0.0669191 0.00380617 -6.14699e-21)
(0.0937375 0.00782964 -1.88228e-20)
(0.12704 0.00636402 7.34884e-21)
(-0.00375974 -0.00810106 7.49975e-21)
(-0.00750848 -0.0165601 -2.04681e-20)
(-0.007793 -0.0197981 -1.20269e-20)
(-0.00432221 -0.0191224 -1.94368e-20)
(0.00305133 -0.0156779 5.38596e-21)
(0.0143799 -0.0105179 -1.88951e-21)
(0.0296452 -0.00466611 -1.75174e-20)
(0.0485507 0.000828218 -3.71977e-21)
(0.0706355 0.00477219 -3.46815e-22)
(0.0982672 0.00419704 8.40499e-21)
(-0.0034427 -0.00800132 1.30177e-20)
(-0.0074158 -0.0166134 1.47701e-21)
(-0.008881 -0.020141 6.38253e-21)
(-0.0073181 -0.0198681 2.91333e-20)
(-0.00248159 -0.0168857 2.97907e-20)
(0.00576196 -0.0122012 -5.45771e-21)
(0.0174562 -0.00679179 1.40673e-20)
(0.0323717 -0.0016495 -8.98074e-21)
(0.0501132 0.00215961 -5.39035e-21)
(0.0725606 0.00230224 -1.25677e-20)
(-0.00307416 -0.00772262 -1.66228e-20)
(-0.00712061 -0.0162319 1.52707e-20)
(-0.00955593 -0.0198938 8.0923e-21)
(-0.00964399 -0.0199427 -1.65048e-20)
(-0.00704778 -0.0174012 -1.92216e-20)
(-0.00155903 -0.013215 6.27276e-21)
(0.00692303 -0.00829751 5.46794e-22)
(0.0182334 -0.0035647 2.84158e-20)
(0.0320352 5.49592e-05 1.73e-20)
(0.0497987 0.000734619 -6.94993e-21)
(-0.00267849 -0.00727298 9.03483e-21)
(-0.00668628 -0.0154346 -4.4112e-21)
(-0.00991053 -0.0190793 -1.64907e-20)
(-0.0114145 -0.0193668 7.24571e-21)
(-0.0107769 -0.0172367 -2.46782e-22)
(-0.00772132 -0.0135587 -2.56878e-20)
(-0.00209438 -0.00916752 -1.54839e-21)
(0.00600139 -0.00489056 -2.61603e-20)
(0.0162755 -0.00151892 -1.18927e-20)
(0.0298678 -0.000481313 2.00078e-20)
(-0.00227824 -0.00666325 -1.09595e-20)
(-0.00617092 -0.0142481 -1.03315e-21)
(-0.0100291 -0.017732 -7.6851e-22)
(-0.012733 -0.0181758 -1.55099e-20)
(-0.0137852 -0.0164233 2.45329e-21)
(-0.0128478 -0.0132545 1.57265e-20)
(-0.00971954 -0.00941315 -8.40637e-21)
(-0.00444441 -0.00562691 1.40556e-20)
(0.00271878 -0.00257313 6.48957e-21)
(0.0126724 -0.00132967 -7.17637e-21)
(-0.00189397 -0.00590719 6.91316e-21)
(-0.00562685 -0.0127064 1.46327e-20)
(-0.0099868 -0.0158974 -3.43524e-21)
(-0.0136909 -0.0164199 7.4695e-21)
(-0.0161746 -0.0150098 5.17773e-21)
(-0.0170452 -0.0123463 -1.31166e-20)
(-0.0160583 -0.00907213 3.37711e-21)
(-0.0132132 -0.00580758 -3.703e-21)
(-0.0087255 -0.0031197 4.77001e-21)
(-0.00186737 -0.00175372 -9.7133e-21)
(-0.00154398 -0.00502142 -2.19344e-21)
(-0.00510013 -0.0108505 -9.48488e-21)
(-0.00984913 -0.0136312 1.39499e-20)
(-0.0143674 -0.0141622 -7.37637e-21)
(-0.0180325 -0.0130608 3.5829e-21)
(-0.0204053 -0.0108958 1.10809e-20)
(-0.0212043 -0.00820216 -9.72307e-21)
(-0.0203867 -0.00549124 -2.4213e-21)
(-0.0181052 -0.00321169 2.93288e-22)
(-0.0139214 -0.00185183 1.15176e-20)
(-0.00124409 -0.00402523 -6.71524e-22)
(-0.00463009 -0.00872769 -2.85885e-21)
(-0.00967143 -0.0109983 -1.23379e-20)
(-0.0148286 -0.0114773 2.52793e-21)
(-0.0194318 -0.0106546 2.17471e-21)
(-0.0230038 -0.00898053 -9.09683e-22)
(-0.0252326 -0.00687683 -2.56672e-22)
(-0.0260393 -0.00474329 -3.92142e-21)
(-0.0255305 -0.0029218 5.59939e-21)
(-0.0235079 -0.00175488 3.82442e-21)
(-0.00100735 -0.00294038 1.73985e-21)
(-0.00424882 -0.00639101 3.46906e-21)
(-0.0094985 -0.00807149 9.31954e-21)
(-0.0151277 -0.0084497 -5.04195e-21)
(-0.0204306 -0.00788073 -4.53198e-21)
(-0.0249007 -0.00669069 -1.81484e-22)
(-0.0282026 -0.00518358 9.24909e-21)
(-0.0302297 -0.00364597 4.48247e-21)
(-0.0310589 -0.00231928 -3.92764e-21)
(-0.0306505 -0.0014339 -4.52873e-21)
(-0.000843821 -0.00179064 -2.87945e-22)
(-0.00398084 -0.0038981 7.02054e-22)
(-0.00936422 -0.00493009 -1.76059e-21)
(-0.0153049 -0.00517163 1.31644e-21)
(-0.0210724 -0.00483788 1.2192e-21)
(-0.0261407 -0.00412623 9.01803e-22)
(-0.0301584 -0.00322023 -1.86846e-21)
(-0.0330002 -0.00229212 -7.77797e-21)
(-0.0347251 -0.00148546 -1.23058e-21)
(-0.0353893 -0.000932827 2.41027e-21)
(-0.0153867 -0.00174096 1.07491e-21)
(-0.0213861 -0.001631 -1.13587e-21)
(-0.0267533 -0.00139419 -5.598e-22)
(-0.0311291 -0.00109191 6.08717e-22)
(-0.0343785 -0.000781605 3.06817e-21)
(-0.0365521 -0.000510876 -1.09958e-21)
(-0.0377522 -0.000322959 1.12686e-21)
(1.15514 -0.00452739 5.23598e-23)
(1.15682 -0.00449222 -1.27601e-22)
(1.15849 -0.00445605 1.07453e-22)
(1.16013 -0.00441877 -3.30071e-23)
(1.16175 -0.00438026 -4.78539e-23)
(1.16334 -0.00434033 1.11541e-23)
(1.16491 -0.00429875 1.95372e-23)
(1.16645 -0.00425504 9.75928e-24)
(1.16796 -0.00420828 -9.94111e-25)
(1.16945 -0.00415638 -2.60667e-24)
(1.1709 -0.00409465 2.91338e-24)
(1.15652 -0.0133359 3.80662e-23)
(1.15824 -0.0132266 2.95349e-24)
(1.15993 -0.0131162 -2.54251e-23)
(1.1616 -0.0130046 -3.56658e-23)
(1.16325 -0.0128915 5.91087e-24)
(1.16486 -0.0127766 1.01531e-23)
(1.16645 -0.0126592 2.45669e-24)
(1.16802 -0.0125378 -4.53554e-24)
(1.16955 -0.0124095 3.26808e-24)
(1.17106 -0.0122674 -2.78291e-24)
(1.17254 -0.0120955 -8.6368e-24)
(1.159 -0.0218861 5.50847e-23)
(1.16078 -0.0217042 -1.25116e-23)
(1.16254 -0.021521 -1.10614e-23)
(1.16427 -0.0213362 -5.61567e-23)
(1.16598 -0.0211494 5.35783e-23)
(1.16765 -0.0209601 -1.35753e-23)
(1.16931 -0.020767 -5.64173e-24)
(1.17093 -0.0205678 2.87782e-24)
(1.17253 -0.0203574 -7.82366e-24)
(1.17409 -0.0201239 -2.33984e-24)
(1.17563 -0.0198404 1.23402e-24)
(1.16247 -0.0302394 -5.07983e-23)
(1.16434 -0.0299808 2.77716e-23)
(1.16618 -0.0297208 -3.83461e-23)
(1.168 -0.029459 2.24662e-23)
(1.16979 -0.0291951 -9.1915e-25)
(1.17156 -0.0289282 -3.6569e-24)
(1.1733 -0.0286567 1.49748e-24)
(1.17501 -0.0283774 2.69407e-24)
(1.17669 -0.0280829 1.58759e-23)
(1.17835 -0.0277562 -2.08801e-23)
(1.17997 -0.0273584 3.01868e-23)
(1.16679 -0.0384714 -2.57182e-23)
(1.16877 -0.0381319 2.33989e-23)
(1.17072 -0.0377907 2.46872e-24)
(1.17266 -0.0374478 1.21906e-23)
(1.17456 -0.0371024 6.8076e-24)
(1.17644 -0.0367537 1.32778e-23)
(1.1783 -0.0363996 -1.86232e-24)
(1.18012 -0.0360358 3.18754e-23)
(1.18192 -0.0356526 -2.11838e-24)
(1.18369 -0.0352275 1.03367e-22)
(1.18543 -0.034709 -5.75482e-23)
(1.17188 -0.046633 -6.45783e-24)
(1.17399 -0.0462058 1.03781e-24)
(1.17608 -0.0457768 -1.28366e-23)
(1.17814 -0.0453458 -2.84754e-23)
(1.18018 -0.0449121 1.01124e-23)
(1.1822 -0.0444748 -4.21184e-23)
(1.18419 -0.0440312 2.77407e-23)
(1.18615 -0.0435761 1.33472e-22)
(1.18809 -0.0430972 -2.97666e-24)
(1.19 -0.042566 -1.3021e-22)
(1.19188 -0.0419172 -5.85529e-23)
(1.17764 -0.0547666 -2.54248e-23)
(1.1799 -0.0542434 -1.90488e-23)
(1.18214 -0.0537182 4.51318e-23)
(1.18436 -0.0531905 3.10115e-23)
(1.18656 -0.0526599 9.25508e-24)
(1.18873 -0.0521251 3.564e-23)
(1.19088 -0.0515831 -1.2126e-22)
(1.193 -0.0510275 -2.1185e-22)
(1.1951 -0.0504434 -1.09881e-22)
(1.19717 -0.0497958 -5.49303e-24)
(1.19922 -0.0490038 1.95246e-23)
(1.18401 -0.0629054 3.59543e-23)
(1.18644 -0.0622759 4.03908e-23)
(1.18885 -0.0616438 7.7915e-23)
(1.19125 -0.0610087 -1.26721e-22)
(1.19362 -0.0603701 1.8093e-22)
(1.19597 -0.0597265 -5.46483e-23)
(1.19829 -0.0590745 1.7428e-22)
(1.20059 -0.0584066 -1.23571e-22)
(1.20286 -0.0577048 1.99658e-22)
(1.20511 -0.0569273 2.92741e-22)
(1.20734 -0.0559758 1.26764e-22)
(1.19092 -0.0710747 5.82809e-23)
(1.19354 -0.0703266 1.76267e-23)
(1.19615 -0.0695749 -2.12447e-22)
(1.19873 -0.0688194 9.12266e-23)
(1.2013 -0.0680592 -5.24702e-24)
(1.20384 -0.0672928 -2.99689e-23)
(1.20635 -0.0665164 1.76249e-22)
(1.20885 -0.0657211 -2.85134e-23)
(1.21131 -0.0648858 -2.30088e-22)
(1.21376 -0.0639612 -4.9052e-22)
(1.21619 -0.0628298 6.02268e-23)
(1.19833 -0.0792941 -1.01539e-22)
(1.20116 -0.0784127 4.71501e-23)
(1.20397 -0.0775263 3.53494e-22)
(1.20677 -0.0766345 2.62014e-22)
(1.20954 -0.0757363 -2.74068e-22)
(1.21229 -0.0748298 -1.56961e-22)
(1.21502 -0.0739107 -1.65299e-22)
(1.21772 -0.0729688 9.9729e-23)
(1.22039 -0.0719796 1.84204e-22)
(1.22304 -0.0708856 2.86775e-22)
(1.22568 -0.0695487 -1.07298e-22)
(1.20619 -0.0875769 2.66256e-23)
(1.20925 -0.0865451 -4.38382e-22)
(1.21229 -0.085506 2.25656e-23)
(1.21531 -0.0844588 -3.62761e-22)
(1.21831 -0.0834024 2.69541e-22)
(1.22128 -0.0823343 3.86849e-22)
(1.22423 -0.0812493 -6.78565e-23)
(1.22714 -0.0801356 -3.28494e-22)
(1.23003 -0.0789654 -1.7967e-22)
(1.23289 -0.0776723 2.00828e-22)
(1.23574 -0.0760969 -2.03254e-22)
(1.21117 -0.0971234 2.1693e-22)
(1.21449 -0.0959311 3.06777e-22)
(1.21779 -0.0947286 -5.25862e-23)
(1.22107 -0.0935151 -5.92084e-22)
(1.22432 -0.0922893 -3.68158e-22)
(1.22755 -0.0910493 -2.85029e-22)
(1.23076 -0.0897917 5.47589e-22)
(1.23393 -0.0885101 7.56006e-22)
(1.23707 -0.0871907 2.75797e-22)
(1.24017 -0.085802 1.47882e-23)
(1.24322 -0.0842691 -3.76741e-22)
(1.24626 -0.0824115 8.82752e-22)
(1.2196 -0.10574 -1.21405e-22)
(1.22318 -0.104357 -6.49404e-22)
(1.22673 -0.102959 6.26314e-23)
(1.23026 -0.101545 2.61378e-22)
(1.23377 -0.100111 2.48049e-22)
(1.23724 -0.0986543 -3.83293e-22)
(1.24067 -0.0971702 -7.28641e-22)
(1.24406 -0.0956501 -1.22482e-22)
(1.24741 -0.0940776 3.95286e-22)
(1.25069 -0.0924173 8.27584e-22)
(1.25391 -0.0905869 -2.68093e-22)
(1.25709 -0.0883879 -1.24464e-21)
(1.22839 -0.114446 4.56296e-22)
(1.23224 -0.112845 1.24585e-22)
(1.23605 -0.111222 2.61043e-22)
(1.23984 -0.109571 -6.04564e-23)
(1.24358 -0.10789 -4.25137e-22)
(1.24728 -0.106173 2.72534e-23)
(1.25093 -0.104411 -1.39144e-22)
(1.25451 -0.102593 -7.23007e-22)
(1.25802 -0.1007 -1.32775e-21)
(1.26143 -0.0986928 -1.82496e-21)
(1.26473 -0.0964826 1.87539e-21)
(1.26793 -0.0938622 2.23713e-23)
(1.23751 -0.123224 7.46945e-22)
(1.24162 -0.121369 -2.92572e-22)
(1.2457 -0.119479 -2.85761e-22)
(1.24972 -0.117546 5.48022e-23)
(1.25369 -0.115565 4.04437e-22)
(1.25758 -0.113524 8.74869e-22)
(1.26139 -0.111413 -5.88398e-22)
(1.26509 -0.109215 1.06585e-21)
(1.26866 -0.106906 -4.54575e-22)
(1.27208 -0.104444 -5.6353e-22)
(1.2753 -0.10174 -2.15188e-21)
(1.27834 -0.0985928 -5.07048e-22)
(1.2469 -0.132032 -5.61341e-22)
(1.25127 -0.129874 5.25864e-22)
(1.25558 -0.127661 9.47421e-22)
(1.2598 -0.125383 5.37615e-22)
(1.26393 -0.123026 -3.3629e-22)
(1.26793 -0.120575 -1.36195e-21)
(1.27179 -0.118014 2.21375e-21)
(1.27548 -0.115319 -5.8875e-22)
(1.27895 -0.112464 1.4148e-21)
(1.28217 -0.109403 -1.14594e-21)
(1.28506 -0.106056 1.50886e-21)
(1.28759 -0.10225 1.49333e-21)
(1.25649 -0.140795 -1.0685e-22)
(1.26106 -0.138267 -7.06054e-22)
(1.26553 -0.135652 -9.38132e-22)
(1.26987 -0.132936 2.0542e-22)
(1.27404 -0.130099 1.7243e-21)
(1.27801 -0.127118 -1.04282e-21)
(1.28173 -0.12397 2.60751e-22)
(1.28517 -0.120625 -3.48982e-21)
(1.28827 -0.117052 -5.47139e-22)
(1.29096 -0.113212 2.45807e-21)
(1.29311 -0.109038 5.30119e-23)
(1.29464 -0.104423 -3.1782e-21)
(1.26611 -0.149388 2.87586e-23)
(1.2708 -0.146392 2.7495e-22)
(1.27531 -0.143266 1.04301e-21)
(1.27959 -0.139987 -8.11546e-22)
(1.2836 -0.136527 -1.87294e-21)
(1.28729 -0.132856 9.19398e-22)
(1.29059 -0.128943 7.70291e-22)
(1.29342 -0.124755 5.16248e-21)
(1.29573 -0.120261 2.87551e-22)
(1.29742 -0.11543 -2.62837e-21)
(1.29829 -0.11023 4.72731e-22)
(1.29814 -0.104657 -7.77323e-22)
(1.27554 -0.157615 -2.00559e-22)
(1.28017 -0.154018 1.98526e-22)
(1.28451 -0.150231 -2.24437e-22)
(1.28848 -0.146221 1.32584e-21)
(1.29202 -0.141954 3.65118e-21)
(1.29505 -0.137395 3.84552e-21)
(1.29748 -0.132506 -5.86435e-21)
(1.29922 -0.127254 9.50978e-22)
(1.30016 -0.121616 3.21283e-21)
(1.30024 -0.115581 6.52587e-21)
(1.29911 -0.109166 -1.05965e-21)
(1.29643 -0.10252 1.63872e-21)
(1.28438 -0.165197 7.54379e-22)
(1.2887 -0.160822 5.08412e-22)
(1.29254 -0.156179 -1.74985e-21)
(1.29582 -0.15123 -1.13098e-21)
(1.29845 -0.145937 -1.39666e-21)
(1.30031 -0.14026 4.21439e-22)
(1.30129 -0.134166 3.44845e-21)
(1.30127 -0.127627 -3.03421e-21)
(1.30015 -0.120636 -1.58279e-21)
(1.29785 -0.113214 -7.05766e-21)
(1.2939 -0.105452 2.09633e-21)
(1.28773 -0.0976915 8.34887e-21)
(1.29209 -0.171758 1.52611e-21)
(1.29571 -0.166385 -4.32141e-22)
(1.29861 -0.160655 1.05284e-21)
(1.30068 -0.154529 6.11192e-22)
(1.3018 -0.14797 -4.10748e-21)
(1.30184 -0.140943 -7.66979e-21)
(1.30066 -0.133425 5.55438e-21)
(1.29812 -0.125408 5.00127e-22)
(1.29412 -0.116912 -3.27452e-21)
(1.28859 -0.108005 6.87147e-21)
(1.28095 -0.0988636 3.80599e-21)
(1.27032 -0.0900582 -2.21571e-21)
(1.29792 -0.176838 -4.18232e-22)
(1.30032 -0.170214 -9.56666e-22)
(1.30169 -0.163145 -7.14553e-22)
(1.30191 -0.155597 -1.28233e-21)
(1.30081 -0.147542 -2.66328e-21)
(1.29826 -0.138964 3.72986e-21)
(1.29411 -0.129861 -1.01589e-20)
(1.28821 -0.120255 -5.83338e-21)
(1.28049 -0.110206 3.04377e-21)
(1.27091 -0.0998391 -7.11295e-21)
(1.25875 -0.0894271 -7.65614e-21)
(1.24279 -0.079777 -1.08387e-20)
(1.30091 -0.17992 -2.65548e-21)
(1.30145 -0.171784 1.96209e-21)
(1.3006 -0.16313 1.91379e-21)
(1.29821 -0.153942 -1.19758e-21)
(1.29411 -0.144213 1.24009e-21)
(1.28815 -0.133958 5.14406e-21)
(1.2802 -0.123207 1.49115e-20)
(1.27013 -0.112025 1.25626e-20)
(1.2579 -0.10052 -8.30902e-21)
(1.24355 -0.0888793 5.94512e-21)
(1.22621 -0.077464 1.09035e-21)
(1.20426 -0.0672949 7.80805e-21)
(1.29994 -0.180481 9.94447e-22)
(1.2979 -0.170597 -4.46771e-21)
(1.29406 -0.160161 -7.58946e-21)
(1.28826 -0.149184 -5.19371e-21)
(1.28035 -0.137697 1.39096e-20)
(1.2702 -0.125752 -6.15516e-21)
(1.2577 -0.11343 -1.19167e-20)
(1.24275 -0.100841 -7.27093e-21)
(1.22539 -0.0881472 3.1476e-21)
(1.20575 -0.0755874 1.66146e-21)
(1.18281 -0.0635846 -6.98652e-21)
(1.15454 -0.0533084 -7.16325e-21)
(1.29381 -0.17806 2.68533e-22)
(1.28842 -0.166254 9.37761e-22)
(1.28083 -0.153922 4.59569e-21)
(1.27087 -0.141116 -2.65964e-22)
(1.25842 -0.127912 -4.89366e-21)
(1.2434 -0.114416 -8.35007e-21)
(1.22574 -0.10076 2.07436e-21)
(1.20543 -0.0871097 -1.25106e-22)
(1.18255 -0.0736702 8.02109e-21)
(1.15738 -0.0607068 2.96015e-21)
(1.1287 -0.0486458 8.68417e-21)
(1.09413 -0.0386919 5.31972e-22)
(1.28137 -0.172316 3.1058e-21)
(1.27192 -0.158506 1.79416e-22)
(1.25986 -0.144273 1.27702e-20)
(1.24508 -0.129721 1.03647e-20)
(1.22752 -0.114981 -9.22038e-21)
(1.20713 -0.10022 3.78132e-21)
(1.18393 -0.0856303 -3.24657e-21)
(1.15799 -0.0714293 3.00178e-21)
(1.12951 -0.0578515 -4.2432e-21)
(1.09886 -0.0451443 4.1169e-21)
(1.06467 -0.0336392 -1.01926e-20)
(1.02414 -0.0243906 1.30431e-20)
(1.26169 -0.163158 -6.31412e-21)
(1.24756 -0.147384 4.68916e-21)
(1.2305 -0.131375 -1.07558e-20)
(1.21043 -0.11529 4.64908e-21)
(1.18735 -0.099327 1.72394e-20)
(1.16132 -0.0837142 4.3559e-21)
(1.13243 -0.0687089 7.43588e-21)
(1.10084 -0.0545774 -2.67035e-21)
(1.06687 -0.0415677 4.77506e-22)
(1.03103 -0.0298603 -7.35854e-21)
(0.991822 -0.0195652 1.34103e-20)
(0.945999 -0.0113081 -7.41421e-21)
(1.23414 -0.150693 1.76689e-21)
(1.21491 -0.133143 -8.67004e-21)
(1.19251 -0.11564 5.98573e-22)
(1.16692 -0.0984072 -1.54341e-20)
(1.13823 -0.0817027 -9.95769e-21)
(1.10658 -0.0658208 -5.43929e-21)
(1.07215 -0.0510789 -4.76552e-23)
(1.03518 -0.0377872 -4.47518e-21)
(0.996093 -0.0261865 1.39639e-20)
(0.955529 -0.0163307 4.24195e-21)
(0.911864 -0.00792971 -9.37578e-21)
(0.861463 -0.000687471 -3.65217e-21)
(1.19821 -0.134563 5.7218e-21)
(1.17359 -0.115448 1.68803e-21)
(1.14564 -0.0967682 -6.45826e-21)
(1.11446 -0.0788149 1.14211e-20)
(1.0802 -0.0619161 -1.23323e-20)
(1.04312 -0.046436 -4.07187e-21)
(1.00349 -0.0327613 2.39364e-21)
(0.961663 -0.0212595 -1.60872e-21)
(0.918142 -0.0121831 -1.79558e-20)
(0.873674 -0.00547052 -1.70154e-20)
(0.826671 -0.000287927 6.09173e-21)
(0.772852 0.00563026 -6.30968e-21)
(1.15429 -0.115072 -1.76331e-21)
(1.12408 -0.0945269 -8.86583e-22)
(1.09045 -0.0748406 3.36962e-21)
(1.05357 -0.0563649 -7.11159e-21)
(1.01368 -0.0394891 1.78324e-20)
(0.971098 -0.024637 1.35911e-20)
(0.926181 -0.0122572 -8.76589e-21)
(0.879325 -0.00278855 1.01066e-20)
(0.831058 0.00343071 1.04702e-20)
(0.782226 0.00632823 4.51047e-21)
(0.732182 0.00666136 1.82952e-21)
(0.677451 0.00860394 1.68696e-20)
(1.17324 -0.00395893 0)
(1.17642 -0.00375949 0)
(1.17958 -0.00354844 0)
(1.1827 -0.00332525 0)
(1.18576 -0.00308939 0)
(1.18872 -0.00284136 0)
(1.19155 -0.00258239 0)
(1.19424 -0.00231403 0)
(1.19674 -0.00203815 0)
(1.19903 -0.00175695 0)
(1.20107 -0.00147296 0)
(1.20283 -0.00118905 0)
(1.20428 -0.000908316 0)
(1.20539 -0.000633997 0)
(1.20614 -0.0003694 0)
(1.20651 -0.000117765 0)
(1.20649 0.000117818 0)
(1.20606 0.000334637 0)
(1.20523 0.000530214 0)
(1.204 0.000703097 0)
(1.20239 0.000851403 0)
(1.20038 0.000976347 0)
(1.19808 0.00107501 0)
(1.19535 0.00115513 0)
(1.19255 0.00120645 0)
(1.18904 0.0012538 0)
(1.18615 0.00126315 0)
(1.18146 0.00129831 0)
(1.17937 0.00127538 0)
(1.17208 0.00131096 0)
(1.17491 -0.0117003 0)
(1.17812 -0.011113 0)
(1.18129 -0.0104888 0)
(1.18442 -0.00982681 0)
(1.18748 -0.00912585 0)
(1.19045 -0.00838797 0)
(1.19328 -0.00761725 0)
(1.19595 -0.0068187 0)
(1.19843 -0.00599812 0)
(1.20069 -0.00516224 0)
(1.20269 -0.00431876 0)
(1.20441 -0.0034763 0)
(1.2058 -0.00264409 0)
(1.20686 -0.00183178 0)
(1.20755 -0.00104916 0)
(1.20785 -0.000305775 0)
(1.20776 0.000389301 0)
(1.20726 0.00102812 0)
(1.20636 0.00160354 0)
(1.20506 0.00211125 0)
(1.20338 0.0025462 0)
(1.20131 0.00291135 0)
(1.19896 0.00319983 0)
(1.19617 0.00343144 0)
(1.19334 0.00358224 0)
(1.18978 0.00371416 0)
(1.18686 0.0037473 0)
(1.18213 0.00383598 0)
(1.18003 0.0037871 0)
(1.1727 0.00387272 0)
(1.17807 -0.0191826 0)
(1.18132 -0.0182026 0)
(1.18452 -0.0171624 0)
(1.18767 -0.0160603 0)
(1.19074 -0.0148948 0)
(1.1937 -0.0136694 0)
(1.19652 -0.0123914 0)
(1.19916 -0.0110692 0)
(1.2016 -0.00971282 0)
(1.20379 -0.00833344 0)
(1.20572 -0.00694402 0)
(1.20734 -0.00555884 0)
(1.20864 -0.00419317 0)
(1.20958 -0.00286285 0)
(1.21015 -0.00158383 0)
(1.21033 -0.000371642 0)
(1.2101 0.00075915 0)
(1.20947 0.00179581 0)
(1.20844 0.00272712 0)
(1.207 0.00354625 0)
(1.20521 0.00424586 0)
(1.20302 0.00483023 0)
(1.20056 0.00529075 0)
(1.19767 0.00565588 0)
(1.19476 0.00589507 0)
(1.19111 0.00609488 0)
(1.18815 0.00615142 0)
(1.18333 0.00627381 0)
(1.18123 0.00621478 0)
(1.17379 0.00632976 0)
(1.18253 -0.0264325 0)
(1.18584 -0.0250506 0)
(1.18906 -0.0235856 0)
(1.19224 -0.0220355 0)
(1.19532 -0.0203984 0)
(1.19828 -0.0186802 0)
(1.20106 -0.0168914 0)
(1.20366 -0.0150448 0)
(1.20602 -0.0131542 0)
(1.20813 -0.0112361 0)
(1.20994 -0.00930869 0)
(1.21144 -0.00739201 0)
(1.21259 -0.00550734 0)
(1.21336 -0.00367654 0)
(1.21376 -0.00192146 0)
(1.21375 -0.000263126 0)
(1.21333 0.00127884 0)
(1.21251 0.00268754 0)
(1.21129 0.00394838 0)
(1.20967 0.00505261 0)
(1.20769 0.00599142 0)
(1.20533 0.00677078 0)
(1.20272 0.00738122 0)
(1.19969 0.00785972 0)
(1.19665 0.00817024 0)
(1.19288 0.00842322 0)
(1.18984 0.00849133 0)
(1.18491 0.00864009 0)
(1.18278 0.00856191 0)
(1.17519 0.00870884 0)
(1.18813 -0.0335014 0)
(1.19151 -0.0316969 0)
(1.19477 -0.0297876 0)
(1.19796 -0.027771 0)
(1.20106 -0.0256455 0)
(1.20399 -0.0234199 0)
(1.20674 -0.0211087 0)
(1.20926 -0.0187289 0)
(1.21153 -0.0162995 0)
(1.21351 -0.0138418 0)
(1.21517 -0.0113797 0)
(1.21649 -0.00893928 0)
(1.21745 -0.00654756 0)
(1.21801 -0.00423227 0)
(1.21817 -0.00202076 0)
(1.21793 6.09218e-05 0)
(1.21727 0.00198876 0)
(1.21619 0.00374239 0)
(1.21472 0.00530466 0)
(1.21287 0.00666569 0)
(1.21066 0.00781606 0)
(1.20808 0.00876394 0)
(1.20527 0.00950012 0)
(1.20204 0.0100698 0)
(1.19885 0.0104328 0)
(1.19491 0.0107226 0)
(1.19176 0.0107889 0)
(1.18665 0.010956 0)
(1.18448 0.0108476 0)
(1.17667 0.0110315 0)
(1.19475 -0.0404098 0)
(1.19821 -0.0381555 0)
(1.20149 -0.0357757 0)
(1.2047 -0.0332677 0)
(1.2078 -0.0306309 0)
(1.2107 -0.0278774 0)
(1.21338 -0.0250267 0)
(1.2158 -0.0221007 0)
(1.21794 -0.0191236 0)
(1.21976 -0.0161223 0)
(1.22123 -0.0131266 0)
(1.22233 -0.0101683 0)
(1.22304 -0.00728037 0)
(1.22334 -0.00449607 0)
(1.22322 -0.00184783 0)
(1.22267 0.000633982 0)
(1.22171 0.00292166 0)
(1.22033 0.00499217 0)
(1.21856 0.00682673 0)
(1.21641 0.00841509 0)
(1.21392 0.0097484 0)
(1.21107 0.0108373 0)
(1.208 0.0116744 0)
(1.20453 0.0123118 0)
(1.20113 0.0127087 0)
(1.19695 0.0130173 0)
(1.19366 0.0130695 0)
(1.18831 0.0132438 0)
(1.18607 0.0130967 0)
(1.17796 0.0133192 0)
(1.20228 -0.0471727 0)
(1.20581 -0.0444342 0)
(1.20911 -0.0415507 0)
(1.21233 -0.0385201 0)
(1.21541 -0.0353431 0)
(1.21826 -0.0320364 0)
(1.22085 -0.028625 0)
(1.22314 -0.0251363 0)
(1.2251 -0.0216 0)
(1.22671 -0.0180491 0)
(1.22794 -0.0145194 0)
(1.22877 -0.0110485 0)
(1.22918 -0.007675 0)
(1.22915 -0.00443724 0)
(1.22869 -0.00137224 0)
(1.22779 0.001486 0)
(1.22646 0.00410694 0)
(1.22472 0.00646574 0)
(1.22258 0.00854301 0)
(1.22007 0.0103289 0)
(1.21723 0.0118164 0)
(1.21405 0.0130185 0)
(1.21067 0.013932 0)
(1.20688 0.0146134 0)
(1.20321 0.0150266 0)
(1.19875 0.0153342 0)
(1.19524 0.0153626 0)
(1.18958 0.0155286 0)
(1.18723 0.0153377 0)
(1.17872 0.0155941 0)
(1.21062 -0.0537924 0)
(1.21423 -0.0505283 0)
(1.21753 -0.0471021 0)
(1.22074 -0.0435124 0)
(1.22378 -0.0397619 0)
(1.22654 -0.0358729 0)
(1.229 -0.0318766 0)
(1.23111 -0.0278064 0)
(1.23285 -0.0236982 0)
(1.2342 -0.0195909 0)
(1.23514 -0.0155264 0)
(1.23563 -0.0115481 0)
(1.23567 -0.00769974 0)
(1.23525 -0.00402439 0)
(1.23438 -0.000562657 0)
(1.23305 0.00264784 0)
(1.23128 0.00557507 0)
(1.2291 0.00819338 0)
(1.22653 0.0104838 0)
(1.22358 0.0124375 0)
(1.22032 0.0140507 0)
(1.21673 0.0153383 0)
(1.21296 0.0163044 0)
(1.20879 0.0170055 0)
(1.20477 0.0174186 0)
(1.19994 0.017703 0)
(1.19615 0.0177007 0)
(1.1901 0.0178364 0)
(1.18758 0.0176012 0)
(1.17857 0.0178767 0)
(1.2197 -0.06026 0)
(1.22336 -0.0564223 0)
(1.22664 -0.0524086 0)
(1.22981 -0.0482183 0)
(1.23277 -0.0438572 0)
(1.23541 -0.0393538 0)
(1.23768 -0.0347462 0)
(1.23956 -0.0300746 0)
(1.24102 -0.0253808 0)
(1.24204 -0.02071 0)
(1.2426 -0.0161099 0)
(1.24268 -0.0116296 0)
(1.24228 -0.0073176 0)
(1.24138 -0.00322099 0)
(1.24001 0.000616467 0)
(1.23817 0.00415498 0)
(1.23588 0.00736154 0)
(1.23317 0.0102105 0)
(1.23006 0.0126844 0)
(1.22659 0.0147761 0)
(1.22282 0.0164864 0)
(1.21873 0.0178316 0)
(1.21448 0.0188262 0)
(1.20984 0.0195216 0)
(1.20539 0.0199187 0)
(1.20011 0.0201542 0)
(1.19596 0.0201168 0)
(1.18943 0.0201914 0)
(1.1867 0.0199173 0)
(1.17709 0.0201827 0)
(1.22943 -0.0665526 0)
(1.23312 -0.0620866 0)
(1.23634 -0.0574349 0)
(1.23942 -0.0525981 0)
(1.24225 -0.0475854 0)
(1.24471 -0.042433 0)
(1.24672 -0.0371865 0)
(1.24829 -0.0318924 0)
(1.24939 -0.026599 0)
(1.24999 -0.0213575 0)
(1.25009 -0.0162216 0)
(1.24966 -0.0112452 0)
(1.2487 -0.00648141 0)
(1.24723 -0.00198061 0)
(1.24525 0.00221069 0)
(1.24278 0.00605203 0)
(1.23986 0.00950991 0)
(1.2365 0.0125595 0)
(1.23276 0.015186 0)
(1.22866 0.0173846 0)
(1.22428 0.0191623 0)
(1.21958 0.0205354 0)
(1.21476 0.0215332 0)
(1.20955 0.0221949 0)
(1.20458 0.0225591 0)
(1.19876 0.0227152 0)
(1.19417 0.0226397 0)
(1.18711 0.0226125 0)
(1.18409 0.0223107 0)
(1.17383 0.0225197 0)
(1.23972 -0.0726282 0)
(1.2434 -0.0674723 0)
(1.24649 -0.0621264 0)
(1.24942 -0.0565925 0)
(1.25205 -0.0508843 0)
(1.25423 -0.0450463 0)
(1.2559 -0.0391318 0)
(1.25705 -0.0331938 0)
(1.25767 -0.0272868 0)
(1.25774 -0.0214681 0)
(1.25724 -0.0157969 0)
(1.25617 -0.0103319 0)
(1.25454 -0.00512984 0)
(1.25235 -0.00024397 0)
(1.24963 0.0042774 0)
(1.24641 0.00839337 0)
(1.24271 0.0120714 0)
(1.23859 0.0152886 0)
(1.23409 0.0180336 0)
(1.22924 0.0203045 0)
(1.22413 0.0221162 0)
(1.21873 0.0234843 0)
(1.21323 0.0244564 0)
(1.20738 0.0250527 0)
(1.20179 0.0253642 0)
(1.19539 0.0254053 0)
(1.19028 0.0252886 0)
(1.18264 0.0251081 0)
(1.17929 0.0247958 0)
(1.16837 0.0248843 0)
(1.25046 -0.078417 0)
(1.25403 -0.0725029 0)
(1.25691 -0.0664012 0)
(1.25959 -0.0601149 0)
(1.26191 -0.0536643 0)
(1.26368 -0.0471028 0)
(1.26486 -0.040491 0)
(1.26546 -0.0338882 0)
(1.26545 -0.0273551 0)
(1.26483 -0.0209549 0)
(1.26358 -0.0147519 0)
(1.26171 -0.0088092 0)
(1.25923 -0.00318678 0)
(1.25616 0.00205996 0)
(1.25254 0.00688199 0)
(1.24841 0.0112389 0)
(1.2438 0.0151001 0)
(1.23878 0.0184455 0)
(1.23339 0.0212689 0)
(1.22768 0.0235717 0)
(1.22173 0.0253784 0)
(1.21554 0.0267027 0)
(1.20928 0.0276152 0)