/*--------------------------------*- C++ -*----------------------------------*\
  =========                 |
  \\      /  F ield         | OpenFOAM: The Open Source CFD Toolbox
   \\    /   O peration     | Website:  https://openfoam.org
    \\  /    A nd           | Version:  7
     \\/     M anipulation  |
\*---------------------------------------------------------------------------*/
FoamFile
{
    version     2.0;
    format      ascii;
    class       volVectorField;
    location    "140";
    object      U;
}
// * * * * * * * * * * * * * * * * * * * * * * * * * * * * * * * * * * * * * //

dimensions      [0 1 -1 0 0 0 0];

internalField   nonuniform List<vector> 
2125
(
(-2.88015e-05 -0.0690109 1.09903e-21)
(-0.00564703 -0.149043 -3.15442e-21)
(-0.0199557 -0.189292 -3.68135e-21)
(-0.0387081 -0.201843 3.66516e-21)
(-0.0598471 -0.198281 -3.37366e-21)
(-0.0817138 -0.187285 -1.80947e-21)
(-0.10317 -0.173467 3.12178e-21)
(-0.123611 -0.15775 3.86118e-21)
(-0.142382 -0.138585 -6.31777e-22)
(-0.159304 -0.112583 1.91333e-21)
(0.00205865 -0.0659434 -1.21785e-21)
(-0.00216598 -0.141511 3.75182e-21)
(-0.0171849 -0.178846 -8.56473e-21)
(-0.0374433 -0.18981 7.77092e-21)
(-0.060372 -0.185691 3.85624e-22)
(-0.0840914 -0.174828 5.82488e-21)
(-0.107467 -0.161564 -1.01324e-20)
(-0.130065 -0.146634 -1.49011e-20)
(-0.15135 -0.128348 -2.84666e-21)
(-0.171267 -0.103178 6.51612e-21)
(0.00390118 -0.0622171 1.04108e-21)
(0.000886893 -0.132853 7.88767e-21)
(-0.0146997 -0.167287 1.87379e-20)
(-0.036121 -0.176861 -1.69807e-20)
(-0.0603238 -0.172389 -3.74372e-21)
(-0.0852031 -0.161787 -3.50013e-21)
(-0.109593 -0.149108 1.77228e-20)
(-0.133187 -0.134907 1.13033e-20)
(-0.155515 -0.117371 2.93418e-21)
(-0.176445 -0.0929217 -1.99953e-20)
(0.00544213 -0.0579387 3.65908e-21)
(0.00341422 -0.123282 -4.68774e-21)
(-0.0126123 -0.154876 -3.4084e-20)
(-0.0348664 -0.163278 3.11027e-21)
(-0.0598472 -0.158681 9.44326e-21)
(-0.0852184 -0.148507 -7.19603e-21)
(-0.109738 -0.136501 -7.59799e-22)
(-0.13317 -0.123049 -2.85266e-21)
(-0.155064 -0.106206 6.73136e-21)
(-0.174977 -0.082395 1.89906e-20)
(0.00663533 -0.053217 2.46884e-21)
(0.00533163 -0.113011 -1.42272e-20)
(-0.0110314 -0.141862 3.4633e-20)
(-0.0338147 -0.149329 -1.54776e-20)
(-0.0591156 -0.144861 -1.09814e-22)
(-0.0843627 -0.135327 2.14254e-20)
(-0.108192 -0.124155 -1.00257e-20)
(-0.130366 -0.111563 1.27774e-21)
(-0.150432 -0.0954624 -4.0789e-21)
(-0.167327 -0.0722453 8.80913e-22)
(0.00744495 -0.0481563 2.9392e-20)
(0.00656968 -0.102237 3.61713e-20)
(-0.0100552 -0.128473 -9.437e-21)
(-0.0330985 -0.135256 1.78077e-20)
(-0.0583114 -0.131192 5.34987e-21)
(-0.0828921 -0.122558 -8.0645e-21)
(-0.10531 -0.112458 -3.00384e-21)
(-0.125253 -0.100948 -1.25265e-20)
(-0.142263 -0.0857724 2.69116e-21)
(-0.154255 -0.063188 -1.63458e-20)
(0.0078452 -0.0428534 -2.82643e-20)
(0.00707645 -0.0911412 -1.87456e-20)
(-0.0097627 -0.114914 1.48964e-20)
(-0.0328311 -0.121269 -2.56928e-20)
(-0.0576004 -0.117898 2.64855e-21)
(-0.0810551 -0.110461 2.97821e-20)
(-0.101463 -0.10174 -5.29462e-21)
(-0.118364 -0.0916493 3.45203e-20)
(-0.131325 -0.0777439 -1.15351e-21)
(-0.136745 -0.055951 -1.31556e-20)
(0.00782007 -0.0373954 2.2826e-20)
(0.00682083 -0.0798853 -4.1697e-20)
(-0.0102036 -0.101361 -1.6582e-20)
(-0.0330873 -0.107537 1.98382e-20)
(-0.0571 -0.105148 3.38583e-22)
(-0.0790426 -0.0992229 -5.53801e-20)
(-0.0969625 -0.0922406 -2.9245e-21)
(-0.110178 -0.0840015 -2.65135e-20)
(-0.118363 -0.0718893 -3.32701e-20)
(-0.115771 -0.0512078 1.89441e-20)
(0.00736379 -0.0318614 -1.27016e-20)
(0.00579672 -0.0686129 6.28779e-21)
(-0.0113866 -0.0879613 1.52023e-20)
(-0.033882 -0.0941898 -1.30458e-20)
(-0.0568431 -0.09305 -4.68341e-20)
(-0.0769298 -0.0889419 1.63021e-20)
(-0.0919665 -0.0840687 2.52639e-21)
(-0.100984 -0.0781692 3.89394e-20)
(-0.103906 -0.0685383 4.92936e-20)
(-0.0920385 -0.0495045 -2.16391e-20)
(0.00648191 -0.0263246 1.93686e-20)
(0.00402779 -0.0574539 1.77271e-20)
(-0.013269 -0.0748391 -2.61193e-21)
(-0.0351514 -0.0813168 6.59371e-20)
(-0.0567445 -0.0816484 2.80147e-20)
(-0.0746175 -0.0796158 2.08174e-20)
(-0.0863838 -0.0771791 2.87098e-20)
(-0.0907196 -0.0740863 -1.28289e-20)
(-0.0880366 -0.0677313 -1.62705e-20)
(-0.0656752 -0.051098 -2.44673e-20)
(0.00519328 -0.0208565 -2.15639e-21)
(0.00157217 -0.0465312 -2.77975e-20)
(-0.0157482 -0.0621032 -1.99778e-20)
(-0.0367372 -0.0689787 -3.21916e-20)
(-0.0565732 -0.0709359 -2.52874e-20)
(-0.0717817 -0.0711516 2.51921e-20)
(-0.0797831 -0.071371 -2.37538e-20)
(-0.0788209 -0.0714226 -1.61283e-20)
(-0.070156 -0.0691072 2.02781e-21)
(-0.0359633 -0.0555373 7.06498e-21)
(0.00353218 -0.015531 -5.21724e-20)
(-0.00147409 -0.0359681 2.52279e-20)
(-0.0186573 -0.0498561 1.84579e-20)
(-0.0383802 -0.0572198 1.21875e-20)
(-0.0559407 -0.0608717 -2.20283e-20)
(-0.0678498 -0.0633922 -1.8501e-20)
(-0.0713424 -0.0663238 2.63437e-20)
(-0.0641083 -0.0696184 -2.08522e-20)
(-0.0486907 -0.0718962 -1.59085e-21)
(-0.00106322 -0.0614333 -1.92602e-20)
(0.0015503 -0.0104275 4.3134e-20)
(-0.00497576 -0.0258944 1.76351e-20)
(-0.0217665 -0.0382051 1.1088e-21)
(-0.0397258 -0.0460855 -2.22181e-20)
(-0.0543113 -0.0514083 1.7855e-21)
(-0.062019 -0.05616 2.39518e-20)
(-0.0598821 -0.0616699 -6.60853e-21)
(-0.0448458 -0.0679999 -7.65729e-21)
(-0.0209844 -0.075188 -1.63073e-20)
(0.0418575 -0.0671548 2.9677e-20)
(-0.000682497 -0.00563097 2.8618e-20)
(-0.00876037 -0.0164504 -4.72848e-20)
(-0.024792 -0.0272716 -3.64257e-20)
(-0.0403416 -0.0356389 1.58149e-20)
(-0.0510361 -0.042521 3.21275e-20)
(-0.0533232 -0.0493046 2.6649e-20)
(-0.0440037 -0.0570645 -2.78471e-20)
(-0.0191215 -0.0658759 5.22955e-20)
(0.0162898 -0.0782178 -1.53626e-20)
(0.0967864 -0.0706298 -3.31636e-20)
(-0.00307921 -0.00123062 -4.33715e-20)
(-0.0126236 -0.00778674 2.62698e-20)
(-0.0274093 -0.0171965 -1.24157e-20)
(-0.0397446 -0.0259744 1.28423e-21)
(-0.045405 -0.0342302 1.33538e-20)
(-0.0407237 -0.0427431 -4.22673e-20)
(-0.0222373 -0.0522427 3.64277e-20)
(0.0146068 -0.0626238 -3.47786e-20)
(0.0657441 -0.0796252 5.29612e-20)
(0.167163 -0.0701252 1.7732e-20)
(-0.00553895 0.00268533 9.0376e-21)
(-0.016338 -5.99594e-05 5.0656e-20)
(-0.0292712 -0.0081402 -1.26413e-20)
(-0.0374332 -0.0172224 1.29118e-20)
(-0.036707 -0.0266137 1.48308e-20)
(-0.0232121 -0.0364907 -4.43484e-21)
(0.00690087 -0.0471089 3.13072e-20)
(0.0580477 -0.0581731 1.93548e-21)
(0.128413 -0.0782093 -3.2938e-20)
(0.253111 -0.0644835 4.20306e-20)
(-0.00795248 0.00603675 -2.42874e-20)
(-0.0196636 0.0065772 -4.78582e-20)
(-0.0300251 -0.000274669 4.16589e-20)
(-0.0329158 -0.00954398 2.08437e-20)
(-0.0242729 -0.0198181 -9.6472e-20)
(4.6907e-05 -0.0306616 7.79915e-20)
(0.0443949 -0.0417728 -6.89059e-20)
(0.11259 -0.0528413 1.29626e-21)
(0.205465 -0.0735897 -1.3991e-20)
(0.351182 -0.0531456 -3.80978e-20)
(-0.010209 0.00875955 2.09529e-20)
(-0.0223582 0.0119883 -2.80712e-21)
(-0.0293278 0.00622995 -1.02168e-20)
(-0.0257418 -0.00311639 -1.23515e-21)
(-0.00751891 -0.0139978 -6.04555e-21)
(0.0297479 -0.0253755 -2.47693e-20)
(0.0908376 -0.0363223 1.01116e-20)
(0.17841 -0.0467112 -1.6029e-20)
(0.296916 -0.0652507 5.13496e-21)
(0.455237 -0.0366112 1.43635e-21)
(-0.0122028 0.0108127 -4.278e-20)
(-0.0241856 0.0160671 -3.07416e-21)
(-0.0268484 0.0112266 4.70595e-21)
(-0.0154868 0.00190524 1.92312e-21)
(0.0140526 -0.00928438 3.15785e-20)
(0.0664159 -0.0207434 -9.13549e-20)
(0.1466 -0.0308464 6.02561e-20)
(0.255312 -0.0399757 -4.43201e-20)
(0.40117 -0.0521119 3.46573e-20)
(0.558163 -0.016732 3.52838e-20)
(-0.0138393 0.0121829 -5.22733e-21)
(-0.0249194 0.0187505 2.39499e-20)
(-0.0222677 0.0146126 -3.01728e-20)
(-0.00175016 0.00540833 -9.48165e-21)
(0.0408954 -0.00576722 1.82404e-20)
(0.110443 -0.0167883 8.68596e-20)
(0.211705 -0.0253137 -1.69902e-20)
(0.342851 -0.0326001 8.31805e-21)
(0.514788 -0.0336408 -4.10417e-20)
(0.657512 0.00064137 1.74191e-20)
(-0.0150379 0.012886 -1.56746e-20)
(-0.0243423 0.0200284 -1.22312e-20)
(-0.0152682 0.0163526 3.00856e-21)
(0.0158691 0.00735982 1.19037e-20)
(0.0734357 -0.00342427 -3.52643e-20)
(0.16212 -0.0133845 -1.42253e-20)
(0.285805 -0.0195149 -4.39961e-20)
(0.439732 -0.0238896 4.32126e-20)
(0.631125 -0.0122996 4.36517e-20)
(0.756688 0.00413882 -1.73092e-20)
(-0.0157326 0.0129646 -7.48367e-21)
(-0.0222449 0.0199523 3.05098e-20)
(-0.00551835 0.0164932 -3.42754e-20)
(0.0377915 0.00784087 -3.99098e-21)
(0.1121 -0.00208377 -1.61594e-20)
(0.22164 -0.0102083 3.48948e-20)
(0.368233 -0.0130158 4.42163e-20)
(0.543369 -0.012882 -4.12632e-20)
(0.741305 0.00531372 4.21659e-20)
(0.882283 0.00880574 5.52209e-21)
(-0.0158643 0.0124818 -2.16777e-20)
(-0.0184183 0.0186315 -6.1773e-20)
(0.00733544 0.0151781 6.042e-20)
(0.0644712 0.00707021 8.7383e-21)
(0.157308 -0.00140147 1.27752e-20)
(0.289012 -0.00673816 7.61696e-21)
(0.457865 -0.00522828 3.36764e-20)
(0.649895 0.000552604 2.40369e-20)
(0.84751 0.0217016 -8.22283e-20)
(0.992654 0.0263969 -3.82994e-20)
(-0.0126373 0.0162269 1.49605e-20)
(0.023673 0.0126519 -3.41313e-20)
(0.0963858 0.00540526 6.66065e-21)
(0.209418 -0.000860166 1.07482e-20)
(0.36392 -0.00230379 -7.59816e-20)
(0.552883 0.00446044 3.30625e-20)
(0.755386 0.0161182 -2.15845e-20)
(0.946125 0.0390715 2.22125e-20)
(1.08143 0.0451615 -7.50869e-21)
(0.0438976 0.00924919 -1.62237e-21)
(0.133996 0.00333466 -9.3614e-21)
(0.268618 0.00019892 3.66403e-22)
(0.44554 0.00380842 6.6028e-22)
(0.650692 0.0164697 -5.0223e-20)
(0.856148 0.0334395 6.70328e-21)
(1.03345 0.0571069 5.93083e-20)
(1.15358 0.0638808 2.56083e-20)
(0.0684121 0.00537959 5.80707e-20)
(0.177679 0.00145093 1.47165e-21)
(0.334782 0.00251225 -2.42203e-20)
(0.532402 0.0122142 6.47941e-20)
(0.748173 0.0308905 1.39472e-20)
(0.948946 0.0520259 6.1879e-22)
(1.10801 0.0753314 -2.62076e-20)
(1.209 0.0818544 -3.29208e-20)
(0.227639 0.000409834 -2.4107e-20)
(0.407331 0.00680213 3.94955e-20)
(0.622389 0.023299 -1.92896e-20)
(0.842131 0.0474886 -2.14394e-20)
(1.03152 0.0713424 -5.08071e-21)
(1.16934 0.0932852 -1.51429e-20)
(1.25055 0.0986563 1.5711e-20)
(0.485147 0.0136715 2.14409e-20)
(0.71294 0.0371487 -7.07929e-20)
(0.929784 0.0658196 4.48681e-20)
(1.10267 0.0908938 -2.00926e-20)
(1.21818 0.110633 2.95069e-20)
(1.28045 0.114298 7.9e-21)
(1.00909 0.0853678 -1.16776e-20)
(1.16218 0.110291 9.4504e-21)
(1.2558 0.127204 -2.25299e-20)
(1.30111 0.128841 -2.23443e-20)
(1.21058 0.129269 -2.98903e-20)
(1.28378 0.142951 5.59883e-22)
(1.31456 0.142465 1.55369e-20)
(1.30375 0.157919 2.22751e-20)
(1.3225 0.155356 -9.34722e-21)
(-0.189016 -0.0599327 -1.56285e-22)
(-0.209811 0.0672579 4.26065e-23)
(-0.200014 0.240339 2.06762e-22)
(-0.170482 0.444108 -1.98211e-22)
(-0.128543 0.611995 4.27358e-23)
(-0.0965954 0.700678 1.27845e-22)
(-0.0423472 0.667112 3.20911e-23)
(0.124579 0.435596 -6.87517e-23)
(0.338482 0.0592454 -8.20307e-23)
(0.527818 -0.277549 -7.18656e-23)
(0.668106 -0.521087 -1.08178e-24)
(0.7189 -0.609068 -8.08188e-23)
(0.76341 -0.617362 3.95616e-23)
(0.703281 -0.61867 -1.34083e-23)
(0.578876 -0.592535 -9.39056e-24)
(0.564775 -0.401216 -9.30617e-24)
(0.696239 0.0247327 6.97471e-23)
(0.810485 0.264047 9.11714e-23)
(0.92414 0.425942 2.31591e-24)
(0.891718 0.461216 3.1266e-23)
(0.822448 0.508661 -1.28231e-23)
(0.792733 0.467498 -8.12435e-24)
(0.864091 0.137063 -3.87354e-24)
(0.904871 0.000843959 -1.95908e-23)
(0.967176 -0.358483 -2.61162e-23)
(0.96252 -0.463665 -1.143e-23)
(0.967938 -0.37977 5.67217e-24)
(0.947262 -0.374872 4.34058e-23)
(0.987989 0.220962 6.49743e-24)
(0.972597 0.331283 -4.54548e-24)
(-0.208897 -0.0513179 6.92411e-23)
(-0.235853 0.0679014 -4.75321e-22)
(-0.232848 0.234606 -5.23411e-23)
(-0.205805 0.433282 4.85684e-22)
(-0.15791 0.600401 -7.1944e-23)
(-0.109145 0.687599 -4.984e-22)
(-0.0198081 0.641789 4.18429e-22)
(0.171545 0.398751 -3.99476e-22)
(0.38791 0.0236422 2.63796e-22)
(0.572467 -0.306417 -4.89128e-22)
(0.704691 -0.537074 6.88062e-22)
(0.742517 -0.616898 -4.67554e-22)
(0.777933 -0.615938 2.38081e-23)
(0.717538 -0.605447 2.40823e-22)
(0.590542 -0.582231 -3.72553e-23)
(0.558944 -0.408697 -5.97197e-23)
(0.680995 0.00836505 -2.14649e-22)
(0.798881 0.24888 1.53471e-22)
(0.914694 0.420838 1.03243e-22)
(0.885897 0.466321 -1.29167e-22)
(0.812969 0.514082 -3.1023e-23)
(0.784252 0.465612 5.48634e-23)
(0.863769 0.131784 -3.13112e-24)
(0.907657 -0.00348361 -7.18437e-23)
(0.973463 -0.360549 4.99726e-23)
(0.96738 -0.463848 1.05237e-22)
(0.972007 -0.379328 2.68277e-25)
(0.950878 -0.375421 -8.19683e-23)
(0.984843 0.220128 1.53538e-24)
(0.97008 0.331675 2.62423e-23)
(-0.219291 -0.042191 3.2988e-21)
(-0.250985 0.0685456 -2.50909e-21)
(-0.253956 0.228184 1.62666e-21)
(-0.229154 0.420597 -1.45422e-21)
(-0.174409 0.585475 -4.64408e-22)
(-0.107484 0.669338 2.62948e-21)
(0.0159616 0.612011 -9.10294e-22)
(0.223208 0.362484 -1.37706e-21)
(0.439767 -0.0095781 6.1201e-22)
(0.618215 -0.332508 -3.79121e-23)
(0.741751 -0.550569 1.94233e-22)
(0.766945 -0.622842 -3.16062e-23)
(0.792711 -0.613969 -1.03091e-23)
(0.73192 -0.592261 9.90999e-23)
(0.603999 -0.571036 4.24763e-23)
(0.555825 -0.415342 -1.22166e-22)
(0.667137 -0.00858687 4.18804e-22)
(0.788321 0.232885 9.66735e-23)
(0.905815 0.415152 -6.27961e-23)
(0.880421 0.471312 -8.31693e-23)
(0.80365 0.519645 4.86135e-23)
(0.776464 0.46363 7.3344e-23)
(0.864025 0.126366 -1.39317e-22)
(0.910971 -0.0078037 5.43127e-23)
(0.979843 -0.362435 -1.46051e-22)
(0.972147 -0.463924 -1.23258e-22)
(0.975941 -0.378879 1.06175e-23)
(0.954564 -0.375828 1.43704e-22)
(0.981778 0.219396 -1.66474e-23)
(0.967494 0.33204 -1.95818e-23)
(-0.220106 -0.0329978 -3.51133e-21)
(-0.254735 0.0690035 1.63618e-21)
(-0.26233 0.221053 -2.32809e-22)
(-0.239378 0.405936 3.24008e-22)
(-0.177186 0.567085 -4.97534e-22)
(-0.0914521 0.64601 -1.68957e-21)
(0.0622221 0.579184 8.6814e-22)
(0.278406 0.327611 -3.08416e-22)
(0.493466 -0.0399064 8.29522e-22)
(0.664771 -0.355703 1.88273e-21)
(0.779008 -0.561616 -4.74236e-22)
(0.79201 -0.626929 3.0849e-22)
(0.8077 -0.611477 -3.54888e-22)
(0.746402 -0.579262 -2.71529e-22)
(0.618964 -0.559091 3.99274e-23)
(0.555653 -0.421033 -1.50638e-22)
(0.654836 -0.0259619 -3.65746e-22)
(0.778895 0.216108 -9.5522e-23)
(0.897571 0.408876 1.21736e-22)
(0.875273 0.476182 -3.95091e-23)
(0.794591 0.525338 -1.37114e-22)
(0.769445 0.461558 -5.14765e-24)
(0.864853 0.120825 5.49108e-23)
(0.914793 -0.0120974 6.41821e-24)
(0.986288 -0.364118 4.67234e-23)
(0.976826 -0.463885 3.78981e-23)
(0.979748 -0.37843 1.71551e-23)
(0.958295 -0.376099 4.70567e-23)
(0.978786 0.21877 9.74619e-23)
(0.964837 0.332382 -4.35288e-24)
(-0.211827 -0.0241672 2.43668e-21)
(-0.247307 0.0690243 2.54214e-21)
(-0.257628 0.213167 1.2701e-21)
(-0.235959 0.389314 -1.48145e-21)
(-0.166134 0.545303 -1.48623e-22)
(-0.0616286 0.617888 -5.92425e-22)
(0.11618 0.544582 -1.5345e-21)
(0.335988 0.294771 -7.34423e-22)
(0.548319 -0.0669949 3.17509e-22)
(0.711786 -0.375927 -8.20634e-23)
(0.816195 -0.570273 -7.21234e-22)
(0.81754 -0.629198 1.58449e-22)
(0.822844 -0.608481 6.14766e-22)
(0.760971 -0.566581 -3.01185e-22)
(0.635102 -0.546558 2.43448e-22)
(0.558563 -0.425686 1.38835e-23)
(0.644285 -0.0436703 7.33984e-22)
(0.770693 0.198596 -9.92418e-23)
(0.890021 0.402004 -2.05007e-22)
(0.870439 0.480915 -3.14008e-23)
(0.785892 0.531144 -1.816e-22)
(0.763246 0.459406 -2.46675e-22)
(0.866245 0.115184 -3.63699e-24)
(0.919103 -0.0163454 1.68021e-22)
(0.992769 -0.36558 1.13277e-23)
(0.981426 -0.463725 4.31732e-23)
(0.983441 -0.377985 -7.40116e-23)
(0.962044 -0.376241 -2.0706e-22)
(0.975862 0.218254 -1.64839e-22)
(0.962113 0.332705 4.69721e-23)
(-0.195473 -0.0163079 1.44821e-21)
(-0.229607 0.0682478 3.07071e-21)
(-0.240286 0.20441 1.00576e-21)
(-0.219132 0.370868 -4.16837e-21)
(-0.141967 0.520175 3.82444e-21)
(-0.0196349 0.585793 -1.76952e-21)
(0.175332 0.509235 -5.10251e-22)
(0.394758 0.264373 -1.3905e-21)
(0.603596 -0.0908521 -9.92068e-22)
(0.758923 -0.393142 3.41944e-21)
(0.853061 -0.576607 -8.44311e-22)
(0.843364 -0.629705 -1.23308e-21)
(0.838084 -0.604996 3.59912e-23)
(0.775611 -0.554327 3.9451e-22)
(0.652066 -0.53361 -4.87802e-22)
(0.564554 -0.429258 6.10575e-22)
(0.635695 -0.0615197 -7.05047e-22)
(0.763815 0.180407 3.69584e-22)
(0.883212 0.394539 4.5094e-23)
(0.865911 0.485494 2.96937e-22)
(0.777643 0.537043 1.32446e-22)
(0.757902 0.45719 1.01576e-22)
(0.868189 0.109466 3.07934e-23)
(0.923878 -0.0205281 2.12894e-22)
(0.99926 -0.366802 1.12078e-22)
(0.985957 -0.46344 -5.52677e-23)
(0.987035 -0.377546 2.04288e-22)
(0.965784 -0.37626 -1.90884e-22)
(0.972995 0.217851 2.52997e-22)
(0.959321 0.333013 -7.45745e-23)
(-0.172446 -0.0100062 -2.68621e-21)
(-0.203149 0.0662467 5.10086e-22)
(-0.21153 0.194605 5.4969e-22)
(-0.189956 0.350877 -4.87277e-22)
(-0.105926 0.491683 5.22752e-22)
(0.0321991 0.550938 8.61373e-22)
(0.237495 0.474054 8.94584e-22)
(0.453543 0.236643 -1.17765e-21)
(0.658593 -0.111463 -1.54738e-21)
(0.805845 -0.407354 9.58139e-22)
(0.889375 -0.580697 2.2508e-22)
(0.869313 -0.628515 1.01837e-21)
(0.853364 -0.601039 -9.07226e-22)
(0.790305 -0.542586 -2.24081e-22)
(0.669528 -0.520418 4.63147e-22)
(0.573475 -0.431742 2.04808e-22)
(0.629285 -0.0793066 1.61847e-23)
(0.75835 0.161607 5.75262e-24)
(0.877179 0.386483 -1.33618e-22)
(0.861688 0.489895 -4.70376e-22)
(0.769928 0.543012 -4.24158e-24)
(0.753432 0.454932 -1.50766e-22)
(0.87067 0.1037 -1.10842e-22)
(0.929094 -0.0246257 -1.20053e-22)
(1.00574 -0.367769 -2.29355e-22)
(0.990434 -0.463026 -4.53783e-23)
(0.99055 -0.377115 -1.91687e-22)
(0.969489 -0.376158 2.19525e-22)
(0.970176 0.217562 -2.30186e-22)
(0.956463 0.33331 7.5016e-23)
(-0.144278 -0.00569397 2.99385e-21)
(-0.169903 0.0625945 4.36864e-22)
(-0.173283 0.183564 -7.6644e-23)
(-0.150253 0.32955 -2.23386e-22)
(-0.0599377 0.460079 -5.37405e-22)
(0.0911351 0.514295 3.48124e-21)
(0.300755 0.439788 -2.82487e-21)
(0.511255 0.211656 -1.67837e-21)
(0.71269 -0.128896 -1.16596e-21)
(0.852234 -0.41861 1.11022e-21)
(0.924929 -0.582633 2.20025e-21)
(0.895222 -0.625703 -7.87674e-22)
(0.868637 -0.596622 -8.21922e-22)
(0.80502 -0.531419 9.1165e-22)
(0.687211 -0.507144 -9.8825e-22)
(0.585008 -0.433176 2.40866e-22)
(0.625254 -0.0968837 3.91439e-23)
(0.754383 0.142275 2.34096e-22)
(0.871946 0.377847 -4.02268e-22)
(0.857773 0.494092 5.21974e-22)
(0.762819 0.549024 -3.80962e-23)
(0.749836 0.452659 6.75716e-22)
(0.873672 0.0979128 1.57103e-22)
(0.934724 -0.0286186 -5.02076e-22)
(1.01218 -0.368467 4.4019e-23)
(0.994868 -0.462482 -1.1269e-22)
(0.994005 -0.376691 2.45697e-23)
(0.973133 -0.375942 -1.84963e-22)
(0.967391 0.21739 1.36726e-22)
(0.953539 0.333599 -5.88651e-23)
(-0.112304 -0.0037692 -1.85553e-21)
(-0.131983 0.056994 1.10259e-21)
(-0.127958 0.171164 1.49517e-21)
(-0.102299 0.306529 2.49843e-22)
(-0.00638677 0.426473 -2.87673e-21)
(0.154369 0.476652 2.21404e-22)
(0.363413 0.406975 8.78231e-22)
(0.566959 0.189347 -3.60327e-21)
(0.765397 -0.143293 -1.88084e-21)
(0.897797 -0.426992 5.18565e-21)
(0.959538 -0.582512 -3.06095e-22)
(0.920924 -0.621358 1.07727e-21)
(0.883865 -0.591758 -1.19145e-21)
(0.819708 -0.520869 5.6207e-22)
(0.70491 -0.49393 -4.09261e-22)
(0.598698 -0.433625 6.45037e-22)
(0.623747 -0.114089 6.88183e-23)
(0.751977 0.122502 -3.51551e-22)
(0.867524 0.368643 6.95347e-22)
(0.854176 0.498051 -3.77739e-22)
(0.756375 0.555056 2.30327e-22)
(0.747108 0.450401 -9.41722e-23)
(0.877175 0.0921344 -4.70515e-22)
(0.94074 -0.0324879 5.64236e-22)
(1.01858 -0.368887 -9.81833e-23)
(0.99927 -0.461808 3.70668e-22)
(0.997419 -0.376274 -2.1964e-22)
(0.97669 -0.375611 3.33403e-22)
(0.964625 0.217333 -1.85321e-22)
(0.950552 0.333883 2.30093e-24)
(-0.0772826 -0.00446506 3.45529e-22)
(-0.0912205 0.0495188 3.96874e-21)
(-0.0782648 0.156846 -4.40243e-21)
(-0.0487182 0.281737 -5.1241e-22)
(0.0522535 0.391846 3.51318e-21)
(0.219212 0.438727 1.02443e-21)
(0.423945 0.375944 -3.18046e-21)
(0.619928 0.16953 -1.86954e-21)
(0.816376 -0.154868 1.34392e-21)
(0.94227 -0.432607 2.38277e-21)
(0.99304 -0.580437 -2.0959e-22)
(0.94626 -0.615571 -6.86239e-23)
(0.899026 -0.586457 4.85246e-22)
(0.834304 -0.510964 -3.71332e-22)
(0.722492 -0.480893 2.737e-22)
(0.613995 -0.433177 -2.46571e-22)
(0.62482 -0.130815 -8.38194e-23)
(0.751169 0.102385 4.31924e-22)
(0.863914 0.358886 -9.3488e-22)
(0.850906 0.501736 4.98065e-22)
(0.75064 0.561082 -1.79092e-22)
(0.745225 0.44819 -4.65865e-22)
(0.881157 0.0863943 4.97952e-23)
(0.94711 -0.0362155 -1.34506e-22)
(1.02493 -0.369019 3.94723e-22)
(1.00365 -0.461005 -1.88266e-22)
(1.0008 -0.375859 -5.74317e-23)
(0.980128 -0.375168 -1.54586e-22)
(0.961864 0.217391 -8.13293e-23)
(0.947503 0.334165 1.12258e-24)
(-0.0390371 -0.00741307 -2.84213e-21)
(-0.04877 0.0406049 5.33005e-21)
(-0.0266567 0.139863 -1.08143e-21)
(0.00782176 0.256065 -5.08584e-21)
(0.113371 0.356515 5.97625e-21)
(0.283319 0.401118 2.48277e-21)
(0.481012 0.346834 -5.531e-21)
(0.669695 0.151933 -5.33431e-23)
(0.865455 -0.163903 -3.00716e-21)
(0.985426 -0.435581 1.01459e-21)
(1.0253 -0.576509 -2.12891e-21)
(0.971072 -0.608443 1.99609e-21)
(0.914111 -0.580727 -1.10309e-22)
(0.848729 -0.501717 1.13196e-22)
(0.739886 -0.468123 3.20875e-22)
(0.630326 -0.431931 -7.8853e-22)
(0.628409 -0.146985 4.79964e-22)
(0.751953 0.0820255 -2.83312e-22)
(0.861102 0.348591 1.69497e-22)
(0.847974 0.505106 3.61045e-22)
(0.745647 0.567077 -6.74811e-23)
(0.74416 0.446064 -2.13728e-22)
(0.885596 0.0807204 9.85367e-22)
(0.953798 -0.0397847 -4.5524e-22)
(1.03123 -0.368857 7.01218e-23)
(1.00801 -0.460073 -3.14922e-22)
(1.00417 -0.375443 4.35491e-22)
(0.983418 -0.374612 4.36806e-22)
(0.959091 0.217561 2.10608e-22)
(0.944395 0.334445 -9.39943e-23)
(0.00366313 -0.0128339 -1.50986e-21)
(-0.00476419 0.0300027 6.47963e-21)
(0.0251182 0.121047 -1.85114e-21)
(0.0651444 0.229904 -1.80666e-21)
(0.17449 0.32087 5.12677e-21)
(0.344711 0.364273 -4.21089e-21)
(0.533537 0.319606 -3.92781e-21)
(0.716096 0.136211 -1.50701e-21)
(0.912616 -0.170736 8.21195e-21)
(1.02707 -0.43605 -9.79574e-22)
(1.05619 -0.570832 -9.69037e-22)
(0.995216 -0.600087 3.41926e-22)
(0.92912 -0.574578 5.41132e-22)
(0.862903 -0.493135 -5.54064e-22)
(0.757061 -0.455686 4.85728e-22)
(0.647164 -0.429985 -1.77307e-23)
(0.634313 -0.162563 1.75062e-22)
(0.754269 0.061524 -2.66103e-23)
(0.859061 0.337773 4.83802e-22)
(0.845392 0.508117 -5.71393e-22)
(0.741414 0.573017 -2.10665e-22)
(0.743874 0.444058 3.55061e-22)
(0.890468 0.0751417 -6.06703e-22)
(0.960768 -0.0431804 2.36114e-22)
(1.03747 -0.368398 -3.15613e-22)
(1.01234 -0.459015 -4.94539e-23)
(1.0075 -0.375019 -5.32393e-23)
(0.986525 -0.373945 -4.34919e-22)
(0.956287 0.21784 -2.46729e-23)
(0.941231 0.334726 1.74886e-22)
(0.0525627 -0.0196444 1.06676e-22)
(0.0425303 0.0182736 4.32916e-21)
(0.0768406 0.101624 -3.56224e-21)
(0.121717 0.203272 4.09081e-21)
(0.233757 0.285365 2.10011e-21)
(0.401852 0.328485 -2.12038e-21)
(0.580844 0.294065 2.36409e-21)
(0.759334 0.121952 -2.60982e-21)
(0.957977 -0.175704 5.83937e-21)
(1.06704 -0.434153 -9.31876e-21)
(1.08561 -0.563519 1.69728e-21)
(1.01856 -0.59063 1.54983e-21)
(0.944057 -0.568032 -6.9574e-22)
(0.876753 -0.485226 7.78144e-22)
(0.774 -0.443631 -5.49845e-22)
(0.66409 -0.427431 2.9601e-22)
(0.642206 -0.177534 -3.0271e-22)
(0.757989 0.0409751 2.3277e-22)
(0.85775 0.326445 -2.00856e-22)
(0.843166 0.510721 -1.95728e-22)
(0.737944 0.57888 2.73533e-22)
(0.744322 0.442208 -6.09414e-22)
(0.895752 0.0696922 1.17863e-21)
(0.967981 -0.0463881 -5.27514e-22)
(1.04367 -0.367638 -5.16768e-22)
(1.01665 -0.457831 -1.15582e-22)
(1.0108 -0.374581 4.38862e-23)
(0.989412 -0.373165 8.42894e-24)
(0.953435 0.218225 -1.07499e-22)
(0.938014 0.335007 -1.42774e-22)
(0.110198 -0.0253941 4.96645e-21)
(0.095723 0.00688087 -1.83917e-21)
(0.129824 0.0819381 1.57497e-21)
(0.177433 0.176574 -6.51139e-23)
(0.290367 0.250473 2.38934e-21)
(0.453897 0.293946 -1.99929e-21)
(0.622874 0.269884 -4.53672e-21)
(0.800031 0.108686 3.21887e-22)
(1.00176 -0.179091 2.9128e-21)
(1.10518 -0.430032 4.32779e-21)
(1.11345 -0.554692 -4.83158e-21)
(1.04099 -0.580204 4.2091e-21)
(0.958927 -0.5611 5.87897e-22)
(0.890225 -0.477978 -3.38123e-22)
(0.790678 -0.431988 -2.6793e-23)
(0.680831 -0.424335 -1.71135e-22)
(0.651664 -0.191896 4.84397e-23)
(0.762915 0.0204439 1.17498e-22)
(0.857106 0.314613 -7.73248e-23)
(0.841301 0.512869 8.32972e-23)
(0.73523 0.584644 -3.05439e-22)
(0.745454 0.440549 1.67097e-22)
(0.901429 0.0644033 -8.66804e-22)
(0.9754 -0.049395 -4.93083e-23)
(1.04983 -0.366578 4.19226e-22)
(1.02091 -0.456519 4.03664e-22)
(1.01403 -0.374119 -4.39971e-23)
(0.992044 -0.372272 2.05746e-23)
(0.950516 0.218708 3.25854e-22)
(0.934749 0.335289 3.29108e-23)
(0.178929 -0.0291217 -3.50316e-21)
(0.158189 -0.00233411 5.159e-21)
(0.186956 0.0630054 -8.06748e-22)
(0.233856 0.150501 -1.43175e-21)
(0.344963 0.216744 2.13112e-21)
(0.501085 0.260821 2.0576e-22)
(0.66045 0.246662 -1.289e-21)
(0.839264 0.0959559 7.03086e-21)
(1.04425 -0.181086 -1.07095e-20)
(1.14134 -0.423805 8.54489e-21)
(1.13964 -0.544433 -6.15801e-22)
(1.06241 -0.568872 -2.79907e-21)
(0.973731 -0.553719 -6.74513e-22)
(0.903285 -0.471317 5.90748e-22)
(0.807051 -0.420759 -1.48111e-22)
(0.697263 -0.420723 3.88611e-22)
(0.662209 -0.20563 -3.81017e-22)
(0.768772 -0.000138365 1.90588e-22)
(0.857045 0.302274 1.87292e-22)
(0.839795 0.514508 6.54597e-23)
(0.733253 0.590287 3.42055e-22)
(0.747218 0.439116 -2.18508e-23)
(0.907492 0.0592876 4.1376e-22)
(0.982989 -0.0521923 -8.70238e-23)
(1.05594 -0.36522 4.75689e-22)
(1.02511 -0.455075 5.16273e-23)
(1.01717 -0.373627 1.89135e-22)
(0.994388 -0.371261 -2.47489e-22)
(0.947511 0.219283 -3.04674e-22)
(0.931441 0.33557 6.47185e-23)
(0.260393 -0.0300192 -4.85355e-22)
(0.233308 -0.0109022 -1.91643e-21)
(0.252052 0.0457929 -2.97219e-21)
(0.29408 0.125892 1.74543e-21)
(0.399826 0.184851 1.26507e-21)
(0.545101 0.22932 -9.00153e-22)
(0.695505 0.224022 -7.45205e-22)
(0.878516 0.083411 5.44834e-21)
(1.08569 -0.181827 -6.61861e-21)
(1.17535 -0.415554 -1.88784e-21)
(1.16411 -0.532747 -1.74348e-22)
(1.08277 -0.556617 -5.14507e-22)
(0.988455 -0.545781 2.69504e-21)
(0.915918 -0.465131 -1.38655e-21)
(0.823048 -0.409937 5.12196e-22)
(0.713381 -0.416605 -4.99332e-22)
(0.673346 -0.218689 -5.59929e-23)
(0.775216 -0.020527 -2.7008e-22)
(0.857472 0.28942 1.64114e-22)
(0.838637 0.515582 -4.93741e-22)
(0.731979 0.59579 9.07307e-23)
(0.74956 0.437937 3.67466e-22)
(0.913947 0.0543763 -2.85204e-22)
(0.990717 -0.0547732 3.52628e-22)
(1.06203 -0.36357 -7.97055e-22)
(1.02924 -0.453496 3.61554e-22)
(1.02017 -0.373094 -3.5126e-22)
(0.996418 -0.370129 2.69798e-22)
(0.944402 0.219943 7.77015e-23)
(0.928095 0.33585 1.56671e-23)
(0.354055 -0.0279677 3.20394e-22)
(0.32355 -0.0178287 -1.06338e-21)
(0.329773 0.0315173 6.66668e-21)
(0.362191 0.103691 -5.26869e-21)
(0.458623 0.155561 3.60987e-21)
(0.589214 0.199704 -3.80551e-21)
(0.731131 0.201651 1.30068e-21)
(0.919503 0.070944 -6.2449e-22)
(1.12626 -0.181449 -2.53881e-21)
(1.20704 -0.405445 1.022e-21)
(1.18679 -0.519833 2.05329e-21)
(1.10202 -0.543698 4.03313e-22)
(1.00307 -0.537485 2.38699e-21)
(0.928121 -0.459527 -1.0777e-21)
(0.838588 -0.399646 1.28761e-21)
(0.729255 -0.412104 1.67447e-22)
(0.68465 -0.231075 -5.69494e-22)
(0.781851 -0.0404767 8.4631e-23)
(0.858234 0.276049 4.65173e-22)
(0.837813 0.516034 2.69718e-22)
(0.731368 0.601129 -9.37394e-22)
(0.75244 0.437027 2.45133e-22)
(0.920827 0.049685 2.81122e-22)
(0.998555 -0.0571263 -1.46843e-22)
(1.06808 -0.361621 3.71946e-22)
(1.03329 -0.451792 -3.75725e-22)
(1.02302 -0.372517 -7.06154e-23)
(0.998118 -0.368895 3.69949e-22)
(0.94117 0.220679 4.34337e-23)
(0.924717 0.336125 -2.83506e-23)
(0.459624 -0.0234014 -5.81157e-22)
(0.43012 -0.0209984 -1.85776e-21)
(0.423021 0.0206583 -3.55386e-21)
(0.442202 0.0847474 2.80716e-21)
(0.52565 0.129747 -4.58997e-21)
(0.637971 0.172413 -7.09822e-22)
(0.771393 0.179404 6.60531e-21)
(0.963898 0.0584324 -6.37059e-21)
(1.16588 -0.179684 5.66564e-22)
(1.23619 -0.39379 -1.78655e-21)
(1.20765 -0.50656 5.00111e-21)
(1.12017 -0.531138 -1.91664e-21)
(1.01754 -0.529677 7.40802e-22)
(0.939934 -0.455059 5.56005e-22)
(0.853606 -0.390237 4.04113e-22)
(0.744973 -0.407501 4.62882e-23)
(0.695769 -0.242952 -4.66613e-22)
(0.788265 -0.0601941 3.44964e-22)
(0.859157 0.262137 4.85125e-23)
(0.837293 0.515803 -2.77324e-22)
(0.731362 0.606297 1.73124e-22)
(0.75584 0.436413 -2.76696e-22)
(0.928216 0.0452146 2.04248e-22)
(1.00648 -0.0592056 -2.63525e-22)
(1.0741 -0.359341 3.68091e-22)
(1.03723 -0.449988 1.70185e-22)
(1.02567 -0.371884 -1.10556e-22)
(0.999482 -0.367624 -1.10918e-22)
(0.9378 0.221471 -2.20988e-22)
(0.921316 0.336393 -8.23196e-24)
(0.578202 -0.0168083 -2.31348e-21)
(0.552968 -0.020941 4.62575e-21)
(0.532795 0.0137312 -2.44036e-21)
(0.536836 0.0691813 -2.30316e-21)
(0.604776 0.108081 8.97265e-22)
(0.696511 0.148531 -3.13724e-21)
(0.820897 0.158856 4.04283e-21)
(1.0131 0.0465022 1.82547e-21)
(1.20416 -0.174807 -5.60707e-21)
(1.2624 -0.380339 3.44227e-21)
(1.22659 -0.493336 -2.50123e-21)
(1.13721 -0.519316 -5.1556e-22)
(1.03189 -0.522444 2.47604e-21)
(0.95147 -0.451703 -1.68901e-22)
(0.868091 -0.381719 -3.53699e-22)
(0.760603 -0.402668 7.25266e-22)
(0.706456 -0.25423 -6.85821e-22)
(0.79407 -0.0803423 2.66839e-22)
(0.86001 0.247074 -4.50933e-22)
(0.837031 0.514836 4.30963e-22)
(0.731877 0.611176 1.34661e-22)
(0.759834 0.436328 -3.23366e-22)
(0.936284 0.0414572 9.08587e-23)
(1.01447 -0.060928 -2.49224e-23)
(1.08007 -0.356732 -7.6884e-23)
(1.04106 -0.448059 -1.87272e-22)
(1.02809 -0.371172 5.43225e-23)
(1.00051 -0.366311 -2.25265e-24)
(0.934287 0.222273 1.07139e-22)
(0.917898 0.336643 2.85796e-23)
(0.717241 -0.0163067 -7.93784e-21)
(0.690057 -0.0214197 2.27476e-21)
(0.656326 0.00785137 -1.37794e-21)
(0.646255 0.0563787 5.91978e-21)
(0.698576 0.0894081 -2.66729e-21)
(0.770042 0.126661 3.07747e-21)
(0.884613 0.139714 2.84686e-21)
(1.06812 0.0392383 -6.13773e-21)
(1.24035 -0.166953 4.48664e-22)
(1.28519 -0.363272 4.93972e-21)
(1.24349 -0.476061 -1.59426e-21)
(1.15315 -0.50368 -4.03457e-21)
(1.04605 -0.511685 -2.50353e-23)
(0.962786 -0.446345 2.21727e-21)
(0.882028 -0.372454 3.19736e-23)
(0.776138 -0.396049 -4.14634e-23)
(0.716534 -0.263583 -2.43235e-22)
(0.798861 -0.100229 -1.30774e-22)
(0.86056 0.230574 -1.88513e-22)
(0.836958 0.511915 3.98626e-22)
(0.732884 0.616175 -3.30712e-22)
(0.765041 0.437194 -1.32166e-22)
(0.945365 0.038413 1.83366e-22)
(1.02244 -0.0625635 2.10662e-22)
(1.08599 -0.354033 -2.61651e-22)