/*--------------------------------*- C++ -*----------------------------------*\
  =========                 |
  \\      /  F ield         | OpenFOAM: The Open Source CFD Toolbox
   \\    /   O peration     | Website:  https://openfoam.org
    \\  /    A nd           | Version:  7
     \\/     M anipulation  |
\*---------------------------------------------------------------------------*/
FoamFile
{
    version     2.0;
    format      ascii;
    class       volScalarField;
    location    "345";
    object      p;
}
// * * * * * * * * * * * * * * * * * * * * * * * * * * * * * * * * * * * * * //

dimensions      [0 2 -2 0 0 0 0];

internalField   nonuniform List<scalar> 
8500
(
-0.422435
-0.424179
-0.424822
-0.425924
-0.428071
-0.431528
-0.436433
-0.442968
-0.451175
-0.461333
-0.41571
-0.418084
-0.418871
-0.419912
-0.421737
-0.424534
-0.428362
-0.4333
-0.439199
-0.44625
-0.409097
-0.412052
-0.412965
-0.413927
-0.41541
-0.417514
-0.420212
-0.42347
-0.426922
-0.430632
-0.402749
-0.406227
-0.407252
-0.408128
-0.409261
-0.410663
-0.412212
-0.413758
-0.414702
-0.414941
-0.396814
-0.400751
-0.401874
-0.402662
-0.403451
-0.404162
-0.404574
-0.404418
-0.402869
-0.3996
-0.39143
-0.395755
-0.396962
-0.397666
-0.398125
-0.398173
-0.397484
-0.395675
-0.391711
-0.384958
-0.386722
-0.391357
-0.392635
-0.393258
-0.393411
-0.392835
-0.391099
-0.387711
-0.381463
-0.371278
-0.382793
-0.387657
-0.38899
-0.389539
-0.38941
-0.388262
-0.385548
-0.380676
-0.372314
-0.358733
-0.379728
-0.384732
-0.386104
-0.386584
-0.386206
-0.384544
-0.380937
-0.374685
-0.364413
-0.347418
-0.377584
-0.382635
-0.384026
-0.384446
-0.383854
-0.381747
-0.377343
-0.369828
-0.35789
-0.337371
-0.376391
-0.381391
-0.38278
-0.383148
-0.382381
-0.379906
-0.374817
-0.366161
-0.352847
-0.328562
-0.376149
-0.380996
-0.382358
-0.382679
-0.381777
-0.379019
-0.373369
-0.363698
-0.349346
-0.320829
-0.376827
-0.381415
-0.382721
-0.382997
-0.381997
-0.379034
-0.372956
-0.362403
-0.347431
-0.313954
-0.378365
-0.382588
-0.383801
-0.384023
-0.382947
-0.379844
-0.373458
-0.362156
-0.347041
-0.308374
-0.380677
-0.384435
-0.385507
-0.385648
-0.384496
-0.381283
-0.374672
-0.362744
-0.347298
-0.305028
-0.383661
-0.386857
-0.387729
-0.387743
-0.386485
-0.383145
-0.376345
-0.364152
-0.347616
-0.303454
-0.387207
-0.389751
-0.390351
-0.390166
-0.388738
-0.385213
-0.378163
-0.365891
-0.347951
-0.303078
-0.391203
-0.393021
-0.393266
-0.392787
-0.391098
-0.387316
-0.379897
-0.36752
-0.347826
-0.303255
-0.395556
-0.396583
-0.396382
-0.395506
-0.393449
-0.389288
-0.381397
-0.36887
-0.346903
-0.303983
-0.400192
-0.400378
-0.39964
-0.398256
-0.39571
-0.391058
-0.382594
-0.369786
-0.345575
-0.308708
-0.405072
-0.404371
-0.403015
-0.401013
-0.397864
-0.392612
-0.383483
-0.370084
-0.34473
-0.321485
-0.410185
-0.408568
-0.406514
-0.403797
-0.399944
-0.39398
-0.384099
-0.369842
-0.344765
-0.322963
-0.415558
-0.412994
-0.410175
-0.406667
-0.402021
-0.39523
-0.384488
-0.369213
-0.344448
-0.321795
-0.421242
-0.417699
-0.414069
-0.409706
-0.404185
-0.396447
-0.384703
-0.368296
-0.343523
-0.319718
-0.427309
-0.42275
-0.418274
-0.413011
-0.406531
-0.397713
-0.384802
-0.367115
-0.34203
-0.316916
-0.433836
-0.428219
-0.422877
-0.416674
-0.409141
-0.399088
-0.384818
-0.365685
-0.339978
-0.313742
-0.440898
-0.434176
-0.427955
-0.420768
-0.412067
-0.400603
-0.384753
-0.363995
-0.337439
-0.31023
-0.448555
-0.440677
-0.433567
-0.42534
-0.41533
-0.402249
-0.384572
-0.362027
-0.334466
-0.306427
-0.456842
-0.44776
-0.439749
-0.430402
-0.418916
-0.40397
-0.384213
-0.359754
-0.331104
-0.302326
-0.465768
-0.455439
-0.446503
-0.435929
-0.422764
-0.40567
-0.383598
-0.357143
-0.327372
-0.297913
-0.475304
-0.463695
-0.453798
-0.44186
-0.426771
-0.407223
-0.382643
-0.354158
-0.323269
-0.29316
-0.485387
-0.47248
-0.461564
-0.448092
-0.430785
-0.408484
-0.381259
-0.350754
-0.318775
-0.288033
-0.495914
-0.481705
-0.469693
-0.454481
-0.434622
-0.4093
-0.379356
-0.346879
-0.313854
-0.28249
-0.506742
-0.491247
-0.478036
-0.460834
-0.438072
-0.409519
-0.376841
-0.342472
-0.30846
-0.276484
-0.51769
-0.500936
-0.486405
-0.466918
-0.440912
-0.408989
-0.373622
-0.337467
-0.302536
-0.269968
-0.528535
-0.510567
-0.494567
-0.472468
-0.44292
-0.407567
-0.369605
-0.331792
-0.296019
-0.262889
-0.539019
-0.519892
-0.50225
-0.477197
-0.44388
-0.405113
-0.364696
-0.325373
-0.288845
-0.255198
-0.548849
-0.528631
-0.509149
-0.480811
-0.443582
-0.401496
-0.358802
-0.318131
-0.280947
-0.246847
-0.557706
-0.536472
-0.514933
-0.483022
-0.441835
-0.396591
-0.351831
-0.309992
-0.27226
-0.237792
-0.56525
-0.543082
-0.519259
-0.483555
-0.438462
-0.390285
-0.343698
-0.30088
-0.262724
-0.227996
-0.571131
-0.548115
-0.521787
-0.482156
-0.433305
-0.382471
-0.33432
-0.290729
-0.252287
-0.217431
-0.574996
-0.55122
-0.522192
-0.4786
-0.426225
-0.373055
-0.323622
-0.279475
-0.240908
-0.20608
-0.576502
-0.552052
-0.520175
-0.472691
-0.417104
-0.361957
-0.311536
-0.267061
-0.22855
-0.193928
-0.575324
-0.550286
-0.515474
-0.464267
-0.405849
-0.349108
-0.298006
-0.253434
-0.215164
-0.180916
-0.571168
-0.545624
-0.507869
-0.453204
-0.392389
-0.334461
-0.282994
-0.238561
-0.20069
-0.166873
-0.563772
-0.53781
-0.497189
-0.439414
-0.376679
-0.317986
-0.266477
-0.222428
-0.185095
-0.151584
-0.552921
-0.526636
-0.483306
-0.422847
-0.358697
-0.299666
-0.248439
-0.205034
-0.168435
-0.135119
-0.538449
-0.511949
-0.466141
-0.403486
-0.338448
-0.2795
-0.228875
-0.186395
-0.150742
-0.118187
-0.520244
-0.493651
-0.445661
-0.38135
-0.315957
-0.257504
-0.207825
-0.16661
-0.131911
-0.100676
-0.498248
-0.4717
-0.421882
-0.356497
-0.291277
-0.233736
-0.185426
-0.14561
-0.112084
-0.0824348
-0.472462
-0.446114
-0.394876
-0.329019
-0.264489
-0.20832
-0.16164
-0.123463
-0.0913506
-0.063452
-0.442938
-0.416972
-0.364788
-0.29902
-0.23568
-0.1813
-0.13655
-0.100249
-0.0697768
-0.0437889
-0.409783
-0.384419
-0.331836
-0.266548
-0.204965
-0.152767
-0.110251
-0.0760573
-0.0474356
-0.0235446
-0.373168
-0.348673
-0.296115
-0.231725
-0.172502
-0.122852
-0.0828539
-0.0509826
-0.0244121
-0.00283045
-0.333326
-0.310033
-0.257263
-0.195086
-0.138478
-0.0917008
-0.0544836
-0.0251282
-0.00079193
0.0182665
-0.290475
-0.268732
-0.215805
-0.156636
-0.103094
-0.0594786
-0.0252769
0.0013986
0.0233377
0.0396561
-0.244807
-0.224322
-0.17297
-0.11664
-0.0665352
-0.0263569
0.0046294
0.0284967
0.0478339
0.0610008
-0.196704
-0.177758
-0.128594
-0.0753803
-0.0290089
0.00749422
0.035118
0.0560806
0.072414
0.0814769
-0.146697
-0.12929
-0.0828236
-0.0331232
0.00925688
0.0419
0.0660806
0.084046
0.0967382
0.100499
-0.0950223
-0.079391
-0.0359556
0.00985974
0.0480238
0.0766724
0.0973564
0.112156
0.120707
0.119811
-0.0420967
-0.0284754
0.0116583
0.0532824
0.087047
0.111601
0.128693
0.140011
0.14431
0.14433
0.0116386
0.023059
0.0596514
0.0968477
0.126077
0.14646
0.159824
0.16748
0.168441
0.168881
0.0657402
0.0748067
0.107654
0.140252
0.164858
0.181019
0.190575
0.194631
0.192752
0.192085
0.119761
0.126356
0.1553
0.183187
0.203129
0.215049
0.220776
0.22134
0.216805
0.214278
0.173254
0.177294
0.202224
0.225349
0.240631
0.248328
0.250255
0.247431
0.240258
0.235461
0.225775
0.227211
0.248069
0.266437
0.277107
0.280642
0.278837
0.272722
0.262923
0.255667
0.276887
0.275703
0.292487
0.306155
0.31231
0.311778
0.30634
0.29704
0.284647
0.274859
0.326164
0.322381
0.335139
0.344218
0.345995
0.341531
0.332589
0.320224
0.305305
0.292979
0.373197
0.366867
0.375701
0.380351
0.37793
0.369704
0.357414
0.342128
0.324777
0.309956
0.417594
0.408804
0.413865
0.414295
0.407895
0.396108
0.380654
0.362612
0.342953
0.325715
0.458983
0.447851
0.44934
0.445804
0.435679
0.420565
0.402157
0.381546
0.359725
0.340182
0.497018
0.483695
0.481855
0.474647
0.461089
0.442909
0.421781
0.398811
0.374993
0.353288
0.531382
0.516045
0.511162
0.500615
0.483944
0.462987
0.439397
0.414294
0.388663
0.364968
0.561785
0.544638
0.537035
0.523517
0.504082
0.480661
0.454886
0.427896
0.400653
0.375164
0.587969
0.569241
0.559274
0.543182
0.521358
0.495808
0.468145
0.439524
0.410885
0.383824
0.609709
0.589651
0.577704
0.559464
0.535647
0.508319
0.479082
0.449102
0.419294
0.390905
0.626817
0.605696
0.59218
0.572237
0.546842
0.518106
0.48762
0.456563
0.425824
0.396368
0.639139
0.617238
0.602582
0.581402
0.554859
0.525095
0.493697
0.461853
0.430432
0.400192
0.646561
0.624172
0.608821
0.586883
0.559631
0.529232
0.497267
0.464933
0.43309
0.402372
0.649004
0.626429
0.610836
0.588628
0.561117
0.530479
0.498298
0.465775
0.433773
0.40286
0.646431
0.623973
0.608599
0.586613
0.559294
0.528818
0.496775
0.464366
0.432457
0.40166
0.638842
0.616805
0.602109
0.580838
0.554164
0.524251
0.492699
0.460707
0.429148
0.398754
0.626276
0.60496
0.591396
0.571328
0.545748
0.516797
0.486087
0.454813
0.423866
0.394176
0.608812
0.588509
0.576522
0.558136
0.534091
0.506493
0.476971
0.446713
0.416635
0.387944
0.586566
0.567557
0.557576
0.541338
0.519258
0.493395
0.465399
0.436449
0.407487
0.380073
0.559692
0.542242
0.534678
0.521036
0.501337
0.477578
0.451435
0.424075
0.39647
0.37059
0.528382
0.512738
0.507975
0.497354
0.480433
0.459134
0.435157
0.40966
0.383639
0.359533
0.49286
0.479248
0.477642
0.470441
0.456675
0.43817
0.416658
0.393284
0.369063
0.346947
0.453388
0.442007
0.443881
0.440468
0.430209
0.414812
0.396044
0.375039
0.352818
0.332885
0.410256
0.40128
0.406919
0.407628
0.401198
0.3892
0.373435
0.355027
0.334992
0.317407
0.363786
0.357359
0.367006
0.372133
0.369823
0.361488
0.348962
0.333361
0.315677
0.300578
0.314328
0.310561
0.324415
0.334214
0.336282
0.331844
0.322768
0.310163
0.294976
0.28247
0.262256
0.261229
0.279439
0.294118
0.300784
0.300447
0.295007
0.285564
0.272995
0.263155
0.207967
0.209724
0.232389
0.25211
0.263555
0.26749
0.265843
0.259706
0.249846
0.242706
0.151877
0.156428
0.183593
0.208466
0.22483
0.233171
0.235447
0.232738
0.225648
0.22119
0.0944179
0.101736
0.133394
0.163475
0.184853
0.197699
0.203999
0.204824
0.200526
0.198653
0.0360349
0.0460585
0.082145
0.117437
0.143878
0.161288
0.171682
0.176146
0.17464
0.175116
-0.0228188
-0.0101882
0.0302104
0.0706568
0.102166
0.124156
0.138674
0.146892
0.148192
0.150521
-0.0816848
-0.0665824
-0.0220394
0.0234467
0.059981
0.0865294
0.105142
0.117242
0.121569
0.124894
-0.140103
-0.122703
-0.0742283
-0.0238807
0.0175898
0.0486435
0.0712632
0.08732
0.0952713
0.0979208
-0.197617
-0.178133
-0.125977
-0.0710144
-0.0247456
0.0107359
0.0372101
0.0570186
0.0696283
0.0711553
-0.253768
-0.232461
-0.17691
-0.117649
-0.0667698
-0.0269593
0.00326616
0.0264556
0.0435853
0.0502986
-0.308121
-0.285256
-0.226664
-0.16349
-0.108231
-0.0642264
-0.0302952
-0.00391199
0.0171647
0.0298322
-0.36041
-0.336017
-0.274942
-0.208253
-0.148882
-0.100874
-0.0633053
-0.0338112
-0.00949106
0.00772086
-0.410109
-0.384452
-0.321606
-0.251649
-0.188488
-0.136724
-0.0956606
-0.0631431
-0.0360197
-0.0153691
-0.456796
-0.429604
-0.366836
-0.293365
-0.226844
-0.171605
-0.127249
-0.091837
-0.0621329
-0.0385055
-0.500243
-0.4718
-0.40948
-0.333118
-0.263774
-0.205337
-0.157932
-0.119797
-0.0876869
-0.0613231
-0.540215
-0.510885
-0.448418
-0.371245
-0.299077
-0.237744
-0.18757
-0.146915
-0.112594
-0.0837349
-0.576459
-0.54658
-0.484447
-0.406815
-0.332451
-0.268672
-0.216032
-0.173083
-0.136768
-0.105653
-0.608775
-0.578621
-0.517484
-0.439598
-0.363786
-0.297987
-0.243198
-0.198203
-0.160123
-0.126957
-0.637027
-0.606801
-0.547224
-0.469659
-0.392969
-0.32556
-0.268965
-0.22218
-0.182587
-0.147542
-0.661129
-0.630999
-0.573465
-0.496914
-0.419884
-0.351369
-0.293243
-0.244925
-0.204104
-0.167332
-0.681055
-0.651166
-0.596106
-0.521245
-0.444446
-0.375293
-0.316062
-0.266357
-0.224601
-0.186317
-0.696832
-0.667312
-0.615103
-0.542566
-0.466588
-0.397251
-0.337318
-0.286595
-0.243878
-0.204607
-0.708549
-0.679507
-0.630456
-0.560834
-0.48627
-0.417209
-0.356932
-0.305485
-0.261863
-0.222461
-0.716351
-0.687875
-0.642215
-0.576043
-0.503475
-0.435159
-0.374895
-0.323028
-0.278828
-0.239411
-0.72044
-0.692603
-0.650482
-0.588221
-0.51821
-0.451113
-0.391228
-0.339247
-0.294698
-0.254998
-0.721067
-0.693933
-0.655405
-0.597431
-0.530505
-0.465097
-0.405953
-0.354136
-0.309415
-0.269365
-0.71853
-0.692159
-0.657181
-0.603772
-0.540413
-0.477149
-0.419099
-0.367711
-0.323019
-0.282785
-0.713164
-0.687619
-0.656054
-0.607382
-0.548013
-0.487325
-0.430716
-0.380019
-0.335576
-0.295399
-0.705331
-0.680678
-0.652316
-0.608435
-0.553404
-0.495698
-0.440869
-0.391128
-0.347146
-0.307246
-0.695412
-0.67172
-0.646294
-0.607141
-0.556708
-0.502352
-0.449631
-0.401105
-0.357777
-0.318347
-0.683796
-0.661133
-0.63835
-0.603742
-0.558067
-0.507381
-0.45708
-0.410021
-0.367524
-0.328735
-0.670866
-0.649301
-0.62886
-0.598507
-0.55764
-0.510887
-0.463298
-0.41795
-0.376452
-0.338453
-0.656994
-0.636593
-0.618206
-0.591731
-0.555604
-0.512978
-0.468366
-0.424967
-0.384633
-0.347559
-0.642529
-0.623349
-0.606754
-0.583723
-0.55215
-0.513767
-0.472367
-0.43115
-0.392143
-0.356119
-0.627787
-0.609879
-0.594849
-0.574802
-0.547486
-0.513372
-0.475378
-0.436572
-0.399059
-0.364203
-0.613045
-0.596456
-0.582792
-0.565282
-0.541828
-0.511911
-0.477475
-0.441298
-0.405453
-0.371888
-0.598543
-0.583306
-0.570842
-0.555462
-0.535402
-0.509508
-0.478725
-0.445388
-0.411395
-0.379249
-0.584473
-0.570614
-0.559208
-0.545603
-0.528439
-0.506294
-0.479189
-0.448888
-0.416946
-0.386365
-0.570989
-0.558516
-0.548054
-0.535921
-0.521162
-0.502401
-0.478926
-0.451835
-0.422157
-0.393315
-0.558203
-0.547109
-0.537497
-0.526579
-0.513778
-0.497972
-0.47799
-0.454251
-0.427066
-0.400178
-0.546202
-0.536455
-0.527616
-0.517691
-0.506463
-0.493157
-0.476443
-0.456152
-0.431697
-0.407034
-0.535043
-0.526588
-0.518454
-0.509332
-0.499353
-0.488106
-0.474358
-0.457548
-0.436057
-0.413958
-0.524774
-0.517527
-0.510033
-0.501552
-0.492549
-0.482968
-0.471829
-0.458454
-0.440132
-0.421051
-0.515435
-0.509284
-0.502361
-0.494385
-0.486126
-0.477879
-0.468974
-0.458895
-0.443913
-0.428365
-0.507065
-0.501869
-0.495445
-0.487866
-0.480156
-0.472966
-0.465936
-0.458929
-0.44735
-0.436099
-0.499699
-0.495296
-0.489298
-0.482034
-0.474724
-0.468355
-0.462877
-0.458634
-0.450484
-0.444101
-0.493366
-0.489573
-0.483936
-0.476932
-0.469925
-0.464189
-0.459972
-0.458142
-0.453274
-0.452648
-0.488073
-0.4847
-0.479372
-0.472605
-0.465859
-0.460621
-0.457417
-0.457617
-0.455712
-0.460511
-0.483758
-0.480685
-0.475605
-0.469082
-0.46261
-0.457799
-0.455462
-0.457088
-0.458981
-0.460284
-0.480409
-0.477441
-0.472602
-0.466363
-0.460223
-0.455845
-0.454333
-0.456736
-0.462986
-0.462437
-0.477895
-0.474916
-0.470303
-0.464408
-0.458694
-0.454822
-0.454161
-0.456977
-0.467222
-0.466409
-0.476097
-0.472991
-0.468612
-0.463132
-0.457961
-0.454717
-0.454957
-0.458165
-0.471464
-0.470804
-0.474848
-0.471542
-0.467412
-0.462418
-0.457908
-0.455435
-0.456619
-0.460435
-0.475642
-0.475662
-0.473968
-0.470432
-0.46657
-0.462125
-0.45838
-0.456806
-0.45897
-0.463686
-0.4798
-0.481457
-0.473275
-0.469521
-0.465949
-0.462102
-0.459198
-0.458619
-0.461785
-0.467638
-0.484011
-0.488231
-0.472595
-0.468671
-0.465412
-0.462196
-0.460176
-0.460636
-0.464808
-0.471906
-0.488284
-0.495521
-0.471767
-0.467754
-0.46483
-0.462256
-0.461125
-0.462616
-0.467768
-0.476104
-0.492463
-0.502704
-0.47065
-0.466646
-0.464077
-0.462138
-0.461862
-0.464327
-0.470393
-0.479866
-0.496273
-0.509232
-0.469119
-0.46524
-0.463039
-0.461705
-0.46222
-0.465556
-0.472432
-0.482873
-0.499374
-0.514564
-0.467076
-0.463437
-0.461609
-0.460837
-0.462048
-0.466122
-0.473664
-0.484862
-0.501458
-0.518414
-0.464445
-0.46116
-0.459702
-0.459428
-0.461222
-0.465877
-0.473913
-0.485631
-0.502256
-0.52051
-0.461177
-0.458348
-0.457247
-0.4574
-0.459651
-0.464714
-0.473053
-0.485035
-0.501557
-0.52063
-0.457251
-0.454966
-0.454202
-0.454703
-0.457278
-0.462573
-0.471009
-0.482988
-0.499211
-0.518598
-0.452678
-0.451005
-0.450552
-0.451321
-0.454088
-0.45944
-0.46776
-0.479462
-0.495141
-0.514292
-0.447495
-0.446485
-0.446314
-0.44727
-0.450106
-0.455346
-0.46334
-0.474493
-0.489337
-0.507676
-0.441774
-0.441458
-0.441531
-0.442605
-0.445398
-0.450371
-0.457838
-0.46818
-0.481831
-0.498867
-0.435605
-0.435995
-0.436282
-0.437414
-0.440064
-0.444635
-0.451394
-0.460674
-0.472804
-0.488045
-0.429115
-0.430194
-0.430671
-0.431809
-0.434237
-0.438294
-0.444188
-0.452186
-0.462489
-0.47541
-0.482874
-0.510717
-0.529689
-0.514019
-0.450521
-0.367537
-0.301402
-0.279599
-0.291598
-0.304159
-0.272631
-0.206254
-0.152658
-0.11906
-0.104756
-0.114347
-0.126187
-0.12762
-0.111493
-0.0889925
-0.0815763
-0.0665887
-0.0485317
-0.0646361
-0.0761199
-0.067091
-0.0478245
-0.0458091
-0.0221396
-0.0174545
-0.462918
-0.484798
-0.499241
-0.483324
-0.42652
-0.353028
-0.297424
-0.287525
-0.309133
-0.323333
-0.287414
-0.215354
-0.156725
-0.11879
-0.102075
-0.108401
-0.117645
-0.119541
-0.106336
-0.0874391
-0.0811956
-0.0670736
-0.0496843
-0.0658544
-0.0773356
-0.0675767
-0.047808
-0.0456399
-0.0225074
-0.0174567
-0.442406
-0.457688
-0.466932
-0.450578
-0.399939
-0.336222
-0.291479
-0.293853
-0.325479
-0.340785
-0.300743
-0.223502
-0.160305
-0.11837
-0.099389
-0.102544
-0.109304
-0.11147
-0.101055
-0.0857988
-0.0807373
-0.0676314
-0.050925
-0.0670734
-0.0785204
-0.068022
-0.0477522
-0.0454964
-0.0229415
-0.0174644
-0.422007
-0.430156
-0.433511
-0.416229
-0.371393
-0.317138
-0.283547
-0.298378
-0.340147
-0.356259
-0.31254
-0.230693
-0.163424
-0.117842
-0.0967377
-0.0968623
-0.101259
-0.103493
-0.0956837
-0.084074
-0.0802036
-0.0682633
-0.0522509
-0.0682856
-0.0796646
-0.0684249
-0.0476572
-0.0453801
-0.0234394
-0.0174778
-0.402299
-0.402918
-0.39986
-0.381005
-0.341317
-0.296087
-0.273702
-0.300935
-0.352667
-0.369968
-0.322759
-0.236933
-0.166111
-0.117246
-0.0941574
-0.0914309
-0.093591
-0.0956961
-0.0902623
-0.0822685
-0.079597
-0.0689691
-0.0536573
-0.069484
-0.0807587
-0.0687831
-0.0475227
-0.0452917
-0.0239982
-0.0174974
-0.383758
-0.376671
-0.367195
-0.345793
-0.310341
-0.273517
-0.262096
-0.301416
-0.362644
-0.381227
-0.331367
-0.242237
-0.168393
-0.116618
-0.0916786
-0.0863124
-0.0863694
-0.0881666
-0.0848361
-0.0803874
-0.0789208
-0.0697469
-0.0551376
-0.0706622
-0.0817938
-0.0690946
-0.0473484
-0.0452313
-0.0246149
-0.0175233
-0.36678
-0.352041
-0.341658
-0.311524
-0.279264
-0.250004
-0.248988
-0.299779
-0.369822
-0.390063
-0.338341
-0.24663
-0.170302
-0.115991
-0.0893267
-0.0815551
-0.0796488
-0.0809896
-0.0794564
-0.0784373
-0.0781783
-0.070594
-0.0566833
-0.0718137
-0.0827618
-0.0693575
-0.0471339
-0.0451981
-0.0252852
-0.0175555
-0.351643
-0.32918
-0.311442
-0.278786
-0.248912
-0.226242
-0.234736
-0.296049
-0.37408
-0.396412
-0.343678
-0.250145
-0.171868
-0.115392
-0.0871223
-0.0771922
-0.0734696
-0.0742417
-0.0741803
-0.0764267
-0.0773727
-0.0715063
-0.0582844
-0.0729326
-0.0836548
-0.0695696
-0.0468789
-0.0451911
-0.026002
-0.0175937
-0.338534
-0.308579
-0.283891
-0.248469
-0.220085
-0.203027
-0.219765
-0.290319
-0.375405
-0.40026
-0.3474
-0.25282
-0.173121
-0.114846
-0.0850806
-0.0732416
-0.0678579
-0.0679883
-0.069069
-0.0743659
-0.0765071
-0.072479
-0.0599295
-0.074013
-0.0844659
-0.0697289
-0.0465832
-0.0452085
-0.0267589
-0.0176369
-0.327563
-0.290591
-0.259906
-0.221206
-0.194254
-0.180517
-0.204507
-0.282754
-0.37389
-0.401663
-0.349552
-0.254698
-0.174087
-0.114371
-0.0832121
-0.0697068
-0.0628249
-0.0622814
-0.0641855
-0.0722671
-0.0755843
-0.0735067
-0.0616062
-0.0750491
-0.0851888
-0.069833
-0.0462466
-0.0452478
-0.027552
-0.0176847
-0.318772
-0.275406
-0.239605
-0.197224
-0.171423
-0.159924
-0.189371
-0.273579
-0.369717
-0.400733
-0.350193
-0.255824
-0.174794
-0.113979
-0.0815232
-0.0665796
-0.0583669
-0.0571568
-0.0595909
-0.0701446
-0.0746062
-0.0745833
-0.0633014
-0.0760352
-0.0858181
-0.0698796
-0.0458692
-0.0453052
-0.0283743
-0.0177364
-0.312184
-0.263085
-0.222856
-0.176673
-0.151922
-0.141687
-0.174714
-0.263076
-0.363144
-0.397633
-0.349394
-0.256246
-0.17527
-0.113686
-0.0800192
-0.0638434
-0.0544656
-0.0526349
-0.0553421
-0.0680143
-0.0735739
-0.0757025
-0.0650013
-0.076966
-0.0863491
-0.0698661
-0.045451
-0.0453775
-0.0292198
-0.0177908
-0.307798
-0.25345
-0.209307
-0.160921
-0.134943
-0.125982
-0.160842
-0.251561
-0.354498
-0.392562
-0.347244
-0.256016
-0.175549
-0.113504
-0.0787047
-0.0614751
-0.0510895
-0.0487194
-0.0514877
-0.0658937
-0.0724876
-0.0768574
-0.066692
-0.0778361
-0.0867779
-0.0697898
-0.0449923
-0.0454606
-0.0300798
-0.0178459
-0.305003
-0.24608
-0.199633
-0.148535
-0.121347
-0.112884
-0.147995
-0.239367
-0.34414
-0.385731
-0.343844
-0.255188
-0.175648
-0.113425
-0.0775734
-0.0594401
-0.0481908
-0.0453941
-0.0480645
-0.0638011
-0.0713462
-0.0780407
-0.0683594
-0.0786403
-0.0871019
-0.0696477
-0.0444935
-0.0455484
-0.0309418
-0.0178998
-0.303313
-0.242891
-0.191473
-0.13951
-0.110868
-0.102344
-0.136346
-0.226824
-0.332443
-0.377364
-0.33929
-0.253781
-0.175536
-0.113394
-0.0765923
-0.0576882
-0.0457064
-0.0426179
-0.0450939
-0.061754
-0.0701473
-0.0792449
-0.0699899
-0.0793735
-0.0873213
-0.0694367
-0.0439553
-0.0456336
-0.0317959
-0.0179501
-0.302784
-0.241686
-0.186666
-0.134013
-0.103191
-0.0942374
-0.126002
-0.214232
-0.319759
-0.367721
-0.333692
-0.251793
-0.175168
-0.113361
-0.075736
-0.0561844
-0.0435793
-0.0403369
-0.0425752
-0.0597671
-0.0688867
-0.0804616
-0.0715712
-0.0800325
-0.0874366
-0.0691555
-0.0433783
-0.0457142
-0.0326328
-0.0179942
-0.303017
-0.24227
-0.18448
-0.131887
-0.0980484
-0.0883784
-0.117026
-0.201859
-0.306419
-0.357063
-0.32724
-0.249414
-0.174762
-0.11353
-0.0751234
-0.0549897
-0.0418023
-0.0385382
-0.0404829
-0.057849
-0.067558
-0.0816816
-0.0730903
-0.0806102
-0.0874347
-0.0688047
-0.0427627
-0.0458018
-0.0334389
-0.0180296
-0.30348
-0.244128
-0.184402
-0.129525
-0.0952537
-0.0845723
-0.109389
-0.189882
-0.292689
-0.3453
-0.320103
-0.247164
-0.17491
-0.114375
-0.075028
-0.0542322
-0.0403862
-0.0372538
-0.0387554
-0.0560222
-0.066152
-0.0828927
-0.0745139
-0.081075
-0.0872755
-0.0683821
-0.0421089
-0.0459091
-0.0342144
-0.0180537
-0.304287
-0.247395
-0.186717
-0.128477
-0.0950527
-0.0828469
-0.103038
-0.178028
-0.278118
-0.331872
-0.311873
-0.244748
-0.175226
-0.115442
-0.0751695
-0.0536544
-0.0391088
-0.0362775
-0.0378058
-0.0543618
-0.0646658
-0.0840923
-0.0757858
-0.0813977
-0.0869816
-0.0678767
-0.0414213
-0.0459827
-0.034952
-0.0180655
-0.304608
-0.250339
-0.190636
-0.133279
-0.0973426
-0.0831955
-0.0993019
-0.167805
-0.263834
-0.319027
-0.301747
-0.239024
-0.172181
-0.113727
-0.0737309
-0.0521302
-0.0373476
-0.0347924
-0.0367533
-0.0525337
-0.0630673
-0.0852309
-0.0771983
-0.0818549
-0.0868852
-0.0672752
-0.0407014
-0.0458447
-0.0355256
-0.0180497
-0.289732
-0.244294
-0.186248
-0.12923
-0.0958456
-0.0831589
-0.0974841
-0.163601
-0.258524
-0.310353
-0.290465
-0.228483
-0.164231
-0.10801
-0.0697317
-0.0490846
-0.0347433
-0.0317485
-0.0323541
-0.0478547
-0.0594825
-0.0868673
-0.0809536
-0.0833542
-0.0875023
-0.0665427
-0.0397861
-0.0452983
-0.0359139
-0.017957
-0.275224
-0.234366
-0.180497
-0.128666
-0.0986896
-0.0879224
-0.101428
-0.16099
-0.246305
-0.290804
-0.270611
-0.212968
-0.153779
-0.101739
-0.0659764
-0.0460902
-0.0323217
-0.0297198
-0.0315481
-0.0459581
-0.057243
-0.0880163
-0.0843703
-0.0833822
-0.0866436
-0.0650545
-0.0383642
-0.0445376
-0.0373794
-0.0180094
-0.261527
-0.224543
-0.175525
-0.129448
-0.102886
-0.0942401
-0.107244
-0.159159
-0.232521
-0.269344
-0.249902
-0.197598
-0.143678
-0.0956065
-0.0621711
-0.0431553
-0.0299485
-0.0278431
-0.0309143
-0.0450732
-0.0559968
-0.0887178
-0.0872305
-0.0828509
-0.0852352
-0.0632877
-0.0367787
-0.0436743
-0.0387933
-0.0180643
-0.248268
-0.215118
-0.17128
-0.130976
-0.107563
-0.100492
-0.112294
-0.156053
-0.217124
-0.246874
-0.228748
-0.182091
-0.13348
-0.0893557
-0.0583016
-0.0402409
-0.0275504
-0.0259703
-0.0301031
-0.0439391
-0.0546563
-0.0891318
-0.0900788
-0.0821595
-0.0833635
-0.0611648
-0.0349934
-0.0426858
-0.0400748
-0.0180671
-0.234455
-0.205534
-0.166955
-0.132278
-0.11176
-0.105763
-0.115802
-0.151269
-0.200495
-0.224019
-0.207714
-0.166821
-0.123417
-0.0830829
-0.0543696
-0.0373102
-0.0250721
-0.0240219
-0.0292673
-0.0424356
-0.0529355
-0.0892693
-0.0928638
-0.0811623
-0.080899
-0.0586394
-0.0329886
-0.041542
-0.04127
-0.0180146
-0.219911
-0.195666
-0.162267
-0.132712
-0.114815
-0.109503
-0.11749
-0.145102
-0.183586
-0.201753
-0.187485
-0.152079
-0.113586
-0.0768306
-0.0503757
-0.0343307
-0.0224641
-0.0219043
-0.0282747
-0.0406065
-0.0508719
-0.088916
-0.0952868
-0.079726
-0.0777694
-0.0556662
-0.0307388
-0.0402069
-0.0423317
-0.0178968
-0.205059
-0.185492
-0.157022
-0.131984
-0.116423
-0.111529
-0.117425
-0.13807
-0.167267
-0.180886
-0.168536
-0.138068
-0.104077
-0.0706539
-0.0463252
-0.0312685
-0.0196728
-0.0195067
-0.0269755
-0.0383854
-0.0484202
-0.0877302
-0.0970714
-0.0777732
-0.0739218
-0.0522003
-0.0282178
-0.0386342
-0.0431917
-0.0176855
-0.190243
-0.175032
-0.151155
-0.13005
-0.116561
-0.111932
-0.115886
-0.130695
-0.152115
-0.161875
-0.151116
-0.124914
-0.0949502
-0.0645917
-0.0422239
-0.0280883
-0.0166434
-0.0166992
-0.0251864
-0.0355741
-0.0453592
-0.0853902
-0.0979394
-0.0752171
-0.0693167
-0.0482
-0.0253989
-0.0367646
-0.0437619
-0.0173434
-0.17568
-0.164357
-0.14468
-0.126995
-0.11534
-0.11091
-0.113184
-0.123293
-0.138393
-0.144857
-0.135295
-0.112669
-0.0862431
-0.0586749
-0.0380818
-0.0247562
-0.0133242
-0.0133316
-0.022648
-0.0318637
-0.0413561
-0.0816218
-0.097563
-0.0719635
-0.0639385
-0.0436325
-0.022256
-0.0345241
-0.0439375
-0.0168289
-0.161556
-0.15357
-0.137657
-0.122952
-0.112927
-0.10868
-0.109582
-0.116021
-0.126087
-0.129752
-0.121024
-0.10134
-0.0779776
-0.0529268
-0.0339131
-0.0212443
-0.0096723
-0.00924553
-0.0190085
-0.0268443
-0.0360266
-0.0761725
-0.0955891
-0.067922
-0.0578033
-0.0384791
-0.0187653
-0.0318236
-0.0435974
-0.0160969
-0.147986
-0.14277
-0.130169
-0.118068
-0.109497
-0.105451
-0.105283
-0.108913
-0.115041
-0.116374
-0.108191
-0.0909012
-0.0701658
-0.0473664
-0.0297366
-0.0175369
-0.0056629
-0.00429926
-0.0138447
-0.0200242
-0.0289535
-0.0688411
-0.0916946
-0.0630226
-0.0509663
-0.0327425
-0.014908
-0.0285602
-0.0426041
-0.0150993
-0.135019
-0.132052
-0.122315
-0.112489
-0.105221
-0.101405
-0.100435
-0.101959
-0.105067
-0.104508
-0.0966635
-0.0813117
-0.0628124
-0.0420107
-0.0255745
-0.013638
-0.00130441
0.00159423
-0.00673714
-0.0109037
-0.0197399
-0.059561
-0.0856478
-0.0572234
-0.0435253
-0.0264553
-0.0106733
-0.0246224
-0.0408074
-0.0137884
-0.122687
-0.121507
-0.114206
-0.106357
-0.100259
-0.0967038
-0.09516
-0.0951445
-0.0959874
-0.0939402
-0.0863067
-0.0725223
-0.0559162
-0.0368755
-0.0214525
-0.00957978
0.00334595
0.00841095
0.00263803
0.000870249
-0.00815971
-0.0484981
-0.0773602
-0.0505101
-0.0356188
-0.0196877
-0.00606353
-0.0198992
-0.0380524
-0.0121228
-0.111012
-0.111218
-0.105954
-0.0998103
-0.0947626
-0.0914987
-0.0895719
-0.0884648
-0.0876525
-0.0844823
-0.0769926
-0.0644812
-0.0494722
-0.0319759
-0.0174006
-0.00543277
0.00816986
0.0159173
0.0142792
0.0152431
0.0055912
-0.0360938
-0.0663523
-0.0429166
-0.0274184
-0.012553
-0.00109964
-0.0142939
-0.0341928
-0.0100751
-0.100005
-0.101258
-0.0976736
-0.0929865
-0.0888747
-0.0859185
-0.0837738
-0.0819264
-0.0799463
-0.0759715
-0.0686045
-0.0571362
-0.0434723
-0.0273278
-0.0134555
-0.0013083
0.0129857
0.023601
0.0275079
0.0312788
0.0205399
-0.0230079
-0.0539381
-0.0345889
-0.0191144
-0.0052059
0.00417326
-0.00774572
-0.0291105
-0.00764328
-0.0896755
-0.0916905
-0.0894696
-0.0860148
-0.0827328
-0.0801115
-0.0778644
-0.075547
-0.0727814
-0.0682723
-0.0610381
-0.0504365
-0.037907
-0.0229508
-0.00966294
0.0026555
0.0175584
0.030785
0.0408112
0.0467139
0.0348143
-0.00984567
-0.0401231
-0.0257359
-0.0109003
0.00216489
0.00968288
-0.000265983
-0.022747
-0.00486364
-0.0800265
-0.0825714
-0.0814388
-0.0790151
-0.0764609
-0.0741801
-0.0719324
-0.0693513
-0.0660952
-0.0612741
-0.054201
-0.0443341
-0.0327667
-0.0188683
-0.00607964
0.00632418
0.0216364
0.0368268
0.0512866
0.0588628
0.0464066
0.00294853
-0.0255481
-0.016634
-0.00297751
0.0093508
0.015321
0.00802707
-0.0151468
-0.00182437
-0.0710578
-0.0739453
-0.0736662
-0.0720955
-0.0701733
-0.0682302
-0.0660584
-0.063368
-0.0598452
-0.0548889
-0.0480133
-0.0387858
-0.0280432
-0.0151032
-0.00277149
0.00958772
0.0250022
0.0412861
0.0575914
0.0662178
0.054328
0.0148601
-0.011226
-0.00763301
0.00445628
0.0161417
0.0209159
0.0168875
-0.00650897
0.00132658
-0.0627659
-0.0658481
-0.0662256
-0.0653516
-0.0639729
-0.0623559
-0.0603147
-0.0576278
-0.0540044
-0.0490487
-0.0424084
-0.0337537
-0.0237308
-0.0116729
0.000197029
0.0123741
0.0275104
0.0439724
0.0600167
0.0690274
0.0587753
0.025129
0.00174738
0.000909582
0.0112337
0.0223411
0.0262334
0.0258877
0.00276235
0.00439149
-0.0551443
-0.058308
-0.0591795
-0.058867
-0.0579504
-0.0566406
-0.0547662
-0.0521619
-0.0485584
-0.0437032
-0.0373324
-0.0292049
-0.0198249
-0.00858721
0.00278082
0.0146512
0.0291389
0.0450286
0.0597479
0.0685748
0.0604793
0.0331211
0.0126312
0.00872927
0.0172515
0.0277851
0.0310353
0.034351
0.0120358
0.00716264
-0.0481849
-0.0513462
-0.05258
-0.0527146
-0.0521859
-0.0511576
-0.0494707
-0.0470018
-0.0435021
-0.0388174
-0.0327435
-0.0251116
-0.0163198
-0.00584878
0.00496508
0.0164194
0.0299786
0.0448103
0.0579146
0.0661259
0.0602484
0.0387064
0.0211817
0.0156679
0.0224796
0.0323691
0.035126
0.0414384
0.0205326
0.00946534
-0.0418796
-0.0449787
-0.0464698
-0.0469547
-0.0467481
-0.0459735
-0.0444816
-0.0421791
-0.0388381
-0.0343692
-0.0286108
-0.0214502
-0.0132061
-0.00345336
0.00676324
0.0177077
0.030189
0.0437269
0.0553001
0.0626651
0.0588065
0.0422503
0.0276384
0.0216432
0.0269322
0.036052
0.0383999
0.0464055
0.0275714
0.0111885
-0.0362206
-0.0392186
-0.0408851
-0.0416394
-0.041696
-0.0411478
-0.0398481
-0.0377257
-0.0345751
-0.0303475
-0.0249129
-0.0182011
-0.010471
-0.0013901
0.00820763
0.0185705
0.0299518
0.042136
0.0523772
0.0588787
0.0567028
0.0442663
0.0323867
0.0266388
0.0306449
0.0388407
0.0408275
0.0488543
0.0326904
0.0124205
-0.0312031
-0.0340776
-0.0358575
-0.0368173
-0.0370806
-0.0367338
-0.0356157
-0.0336743
-0.0307272
-0.0267496
-0.0216364
-0.0153484
-0.00809921
0.000357794
0.00934182
0.0190803
0.0294276
0.0403186
0.049437
0.0551957