/*--------------------------------*- C++ -*----------------------------------*\
  =========                 |
  \\      /  F ield         | OpenFOAM: The Open Source CFD Toolbox
   \\    /   O peration     | Website:  https://openfoam.org
    \\  /    A nd           | Version:  7
     \\/     M anipulation  |
\*---------------------------------------------------------------------------*/
FoamFile
{
    version     2.0;
    format      ascii;
    class       surfaceScalarField;
    location    "345";
    object      phi;
}
// * * * * * * * * * * * * * * * * * * * * * * * * * * * * * * * * * * * * * //

dimensions      [0 3 -1 0 0 0 0];

internalField   nonuniform List<scalar> 
16735
(
-6.56335e-05
-0.00232802
0.00239365
-0.000276274
-0.00576168
0.00597232
-0.000638461
-0.00833324
0.00869543
-0.00113741
-0.0101307
0.0106296
-0.00174565
-0.0113791
0.0119873
-0.00243333
-0.0123478
0.0130355
-0.00317534
-0.0132429
0.0139849
-0.00395421
-0.0141365
0.0149154
-0.0047586
-0.0149459
0.0157503
-0.0154044
0.0162311
-0.00558535
-9.57129e-05
-0.0022323
-0.000369591
-0.0054878
-0.000812296
-0.00789053
-0.00139979
-0.00954318
-0.00210218
-0.0106767
-0.002893
-0.011557
-0.00375474
-0.0123812
-0.00468075
-0.0132105
-0.00567261
-0.013954
-0.0143383
-0.00673868
-0.000123912
-0.00210839
-0.000455375
-0.00515634
-0.000969134
-0.00737677
-0.00163186
-0.00888045
-0.00241058
-0.00989794
-0.00328038
-0.0106872
-0.00422824
-0.0114333
-0.00525434
-0.0121844
-0.00636942
-0.012839
-0.0131183
-0.00758937
-0.000149615
-0.00195878
-0.000532103
-0.00477385
-0.00110676
-0.00680211
-0.00183111
-0.0081561
-0.0026683
-0.00906075
-0.00359284
-0.0097627
-0.00459249
-0.0104337
-0.00566931
-0.0111076
-0.00683824
-0.01167
-0.011838
-0.00811855
-0.000172329
-0.00178645
-0.00059862
-0.00434756
-0.00122368
-0.00617706
-0.00199619
-0.00738359
-0.0028747
-0.00818223
-0.00383098
-0.00880642
-0.00484966
-0.00941499
-0.00592899
-0.0100283
-0.00708209
-0.0105169
-0.0105928
-0.00832729
-0.000191651
-0.0015948
-0.000654027
-0.00388518
-0.0013188
-0.00551229
-0.0021264
-0.00657599
-0.00303025
-0.00727838
-0.00399748
-0.0078392
-0.00500587
-0.00840659
-0.00604402
-0.00899014
-0.00711612
-0.00944482
-0.00947498
-0.00823398
-0.000207237
-0.00138756
-0.000697552
-0.00339487
-0.00139119
-0.00481865
-0.00222115
-0.00574604
-0.00313551
-0.00636402
-0.00409539
-0.00687932
-0.00506875
-0.00743323
-0.00602888
-0.00803001
-0.0069634
-0.0085103
-0.00856942
-0.00786896
-0.000218759
-0.0011688
-0.000728422
-0.0028852
-0.00143978
-0.00410729
-0.00227935
-0.00490647
-0.00319
-0.00545337
-0.00412614
-0.00594318
-0.00504395
-0.00651542
-0.00589683
-0.00717712
-0.00664818
-0.00775895
-0.00795063
-0.00726697
-0.000225892
-0.000942908
-0.00074578
-0.00236531
-0.0014631
-0.00338997
-0.00229894
-0.00407063
-0.00319121
-0.0045611
-0.00408751
-0.00504688
-0.00493153
-0.0056714
-0.00565376
-0.00645489
-0.00618683
-0.00722589
-0.00768155
-0.00645591
-0.000228313
-0.000714595
-0.000748688
-0.00184494
-0.0014593
-0.00267936
-0.00227669
-0.00325324
-0.00313404
-0.00370375
-0.00397226
-0.00420865
-0.00472288
-0.00492079
-0.00529237
-0.0058854
-0.00557833
-0.00693993
-0.00781434
-0.00544553
-0.000225736
-0.000488859
-0.000736217
-0.00133446
-0.00142625
-0.00198933
-0.00220843
-0.00247106
-0.00301098
-0.0029012
-0.00376793
-0.0034517
-0.00439948
-0.00428924
-0.00478886
-0.00549603
-0.00479714
-0.00693165
-0.00839121
-0.00422027
-0.000217981
-0.000270878
-0.000707637
-0.000844802
-0.001362
-0.00133497
-0.00208974
-0.00174331
-0.0028132
-0.00217774
-0.00345839
-0.00280651
-0.00393459
-0.00381304
-0.00410382
-0.00532679
-0.00379135
-0.00724412
-0.00943958
-0.00274297
-0.000205057
-6.58215e-05
-0.000662664
-0.000387195
-0.00126523
-0.000732401
-0.00191698
-0.00109157
-0.0025325
-0.00156222
-0.00302733
-0.00231168
-0.00329865
-0.00354172
-0.00318891
-0.00543653
-0.00248343
-0.0079496
-0.0109363
-0.000986747
-0.000187232
0.000121411
-0.00060172
2.72926e-05
-0.00113592
-0.000198203
-0.00168847
-0.000539019
-0.00216372
-0.00108696
-0.00246296
-0.00201244
-0.00246873
-0.00353596
-0.00200513
-0.00590013
-0.000753187
-0.00920154
-0.0129367
0.00124724
-0.000165024
0.000286435
-0.000526201
0.000388469
-0.000975672
0.000251269
-0.00140542
-0.00010927
-0.00170658
-0.000785803
-0.00176192
-0.0019571
-0.00143595
-0.00386193
-0.000559473
-0.00677661
0.00128924
-0.0110503
-0.0156383
0.00399082
-0.000139432
0.000425867
-0.000438111
0.000687148
-0.000787863
0.000601022
-0.00107221
0.000175081
-0.00116638
-0.000691634
-0.000930578
-0.00219291
-0.000204015
-0.00458849
0.00119518
-0.0081758
0.00365489
-0.01351
-0.019029
0.00704563
-0.000111523
0.00053739
-0.00034047
0.000916095
-0.000577372
0.000837923
-0.000695871
0.00029358
-0.00055325
-0.000834255
1.25403e-05
-0.0027587
0.00119548
-0.00577143
0.00318766
-0.010168
0.00632658
-0.0166489
-0.0229951
0.0102927
-8.25307e-05
0.000619921
-0.000236564
0.00107013
-0.000349882
0.000951242
-0.000284896
0.000228594
0.000120377
-0.00123953
0.00105718
-0.0036955
0.00273447
-0.00744872
0.00535399
-0.0127875
0.00916035
-0.0204553
-0.0273951
0.0135603
-5.36387e-05
0.00067356
-0.000129585
0.00114607
-0.00011101
0.000932666
0.000152337
-3.47527e-05
0.000843361
-0.00193055
0.00217523
-0.00502737
0.00437647
-0.00964996
0.00764817
-0.0160592
0.0120231
-0.0248302
-0.032057
0.016685
-2.57997e-05
0.000699359
-2.20895e-05
0.00114236
0.000134729
0.000775847
0.000609156
-0.00050918
0.00160408
-0.00292548
0.00335362
-0.00677691
0.0060898
-0.0123861
0.00999777
-0.0199672
0.0148167
-0.0296491
-0.0368336
0.0195932
3.97603e-07
0.000698962
8.402e-05
0.00105874
0.000384451
0.000475416
0.00108126
-0.00120599
0.00239683
-0.00424105
0.00457909
-0.00895917
0.00784122
-0.0156483
0.0122901
-0.024416
0.0174378
-0.0347968
-0.0440744
0.0246786
2.48632e-05
0.000674099
0.00018873
0.000894875
0.000637615
2.65308e-05
0.00156786
-0.00213624
0.00321868
-0.00589186
0.00583929
-0.0115798
0.00959482
-0.0194038
0.0144507
-0.0292719
0.0199214
-0.0402675
-0.050659
0.026506
4.79788e-05
0.00062612
0.000292868
0.000649985
0.000895929
-0.00057653
0.00207084
-0.00331115
0.00406838
-0.0078894
0.00711923
-0.0146306
0.0113034
-0.023588
0.0164105
-0.034379
0.0219293
-0.0457864
-0.0565138
0.027784
7.05436e-05
0.000555576
0.000398537
0.000321993
0.00116276
-0.00134075
0.00259346
-0.00474185
0.00494344
-0.0102394
0.00839701
-0.0180842
0.0129097
-0.0281007
0.0181001
-0.0395693
0.023406
-0.0510923
-0.0617005
0.0285928
9.36336e-05
0.000461943
0.0005085
-9.2874e-05
0.00144218
-0.00227443
0.00313835
-0.00643803
0.00583652
-0.0129376
0.00964071
-0.0218884
0.014353
-0.032813
0.0194534
-0.0446697
0.0243867
-0.0560256
-0.06622
0.0289062
0.000118411
0.000343532
0.000625616
-0.000600079
0.00173774
-0.00338655
0.00370529
-0.00840558
0.00673267
-0.0159649
0.010809
-0.0259647
0.0155767
-0.0375807
0.0204366
-0.0495297
0.0248969
-0.0604858
-0.0701028
0.0287796
0.000145931
0.000197601
0.000752225
-0.00120637
0.00205123
-0.00468556
0.00428931
-0.0106437
0.00760852
-0.0192841
0.0118562
-0.0302124
0.0165376
-0.0422621
0.0210434
-0.0540355
0.0249886
-0.0644311
-0.0734079
0.0282938
0.000176977
2.06241e-05
0.000889662
-0.00191906
0.00238174
-0.00617764
0.00487974
-0.0131417
0.00843396
-0.0228384
0.0127399
-0.0345184
0.017212
-0.0467341
0.0212925
-0.058116
0.0247232
-0.0678618
-0.0762034
0.0275188
0.000211964
-0.000191339
0.00103795
-0.00274504
0.00272522
-0.00786491
0.00546045
-0.0158769
0.00917623
-0.0265541
0.0134277
-0.0387699
0.0175964
-0.0509028
0.0212194
-0.0617389
0.0241638
-0.0708062
-0.0785616
0.026522
0.000250907
-0.000442246
0.0011957
-0.00368984
0.0030745
-0.00974371
0.0060114
-0.0188138
0.0098048
-0.0303475
0.0139011
-0.0428662
0.0177044
-0.0547062
0.020868
-0.0649025
0.02337
-0.0733082
-0.0805493
0.0253576
0.000293453
-0.000735699
0.00136024
-0.00475663
0.00341987
-0.0118033
0.00651109
-0.021905
0.0102957
-0.0341322
0.0141558
-0.0467262
0.0175612
-0.0581116
0.0202849
-0.0676262
0.0223943
-0.0754175
-0.0822248
0.0240697
0.000338939
-0.00107464
0.00152784
-0.00594553
0.0037499
-0.0140254
0.00693925
-0.0250944
0.0106341
-0.037827
0.0141998
-0.0502919
0.0171986
-0.0611104
0.0195145
-0.0699421
0.0212809
-0.0771839
-0.083636
0.0226921
0.000386467
-0.00146111
0.00169397
-0.00725303
0.00405258
-0.016384
0.00727922
-0.028321
0.0108146
-0.0413624
0.0140495
-0.0535268
0.0166504
-0.0637113
0.0185966
-0.0718884
0.0200655
-0.0786528
-0.084821
0.0212506
0.000434964
-0.00189607
0.00185366
-0.00867173
0.0043164
-0.0188468
0.00751945
-0.031524
0.01084
-0.044683
0.0137267
-0.0564135
0.0159498
-0.0659343
0.0175658
-0.0735044
0.0187766
-0.0798636
-0.0858086
0.0197641
0.000483242
-0.00237931
0.00200178
-0.0101903
0.00453138
-0.0213764
0.00765407
-0.0346467
0.0107198
-0.0477487
0.0132553
-0.058949
0.0151273
-0.0678064
0.0164505
-0.0748276
0.0174358
-0.0808488
-0.0866199
0.018247
0.000530042
-0.00290935
0.00213334
-0.0117936
0.00468984
-0.0239329
0.00768252
-0.0376394
0.0104675
-0.0505338
0.0126597
-0.0611411
0.01421
-0.0693567
0.0152741
-0.0758916
0.0160597
-0.0816344
-0.0872698
0.0167096
0.00057408
-0.00348343
0.00224382
-0.0134633
0.0047868
-0.0264758
0.00760869
-0.0404613
0.010099
-0.0530241
0.0119626
-0.0630047
0.0132209
-0.070615
0.0140548
-0.0767255
0.0146609
-0.0822406
-0.0877687
0.0151598
0.000614097
-0.00409753
0.00232941
-0.0151786
0.0048201
-0.0289665
0.00743973
-0.0430809
0.00963109
-0.0552155
0.0111851
-0.0645587
0.0121793
-0.0716091
0.0128072
-0.0773535
0.013249
-0.0826823
-0.0881234
0.0136037
0.00064891
-0.00474644
0.0023872
-0.0169169
0.00479017
-0.0313695
0.00718497
-0.0454757
0.00908026
-0.0571108
0.0103456
-0.0658241
0.0111009
-0.0723644
0.0115426
-0.0777952
0.011831
-0.0829707
-0.0883385
0.0120461
0.000677457
-0.0054239
0.00241532
-0.0186548
0.00469962
-0.0336538
0.00685489
-0.047631
0.00846212
-0.058718
0.00946007
-0.066822
0.00999869
-0.072903
0.0102697
-0.0780662
0.0104126
-0.0831136
-0.0884171
0.0104912
0.000698837
-0.00612273
0.00241296
-0.0203689
0.00455272
-0.0357936
0.00646039
-0.0495387
0.00779088
-0.0600485
0.00854188
-0.067573
0.00888283
-0.073244
0.00899515
-0.0781786
0.00899807
-0.0831165
-0.0883612
0.00894214
0.000712347
-0.00683508
0.00238028
-0.0220368
0.00435485
-0.0377681
0.00601216
-0.051196
0.0070792
-0.0611155
0.00760229
-0.0680961
0.00776143
-0.0734031
0.00772425
-0.0781414
0.00759094
-0.0829832
-0.0881713
0.00740107
0.000717494
-0.00755258
0.00231835
-0.0236377
0.00411204
-0.0395618
0.00552035
-0.0526043
0.00633813
-0.0619333
0.00665054
-0.0684085
0.0066409
-0.0733935
0.00646102
-0.0779615
0.00619397
-0.0827162
-0.0878473
0.00586996
0.000714005
-0.00826658
0.00222892
-0.0251526
0.00383056
-0.0411635
0.0049943
-0.053768
0.00557718
-0.0625162
0.00569421
-0.0685256
0.00552635
-0.0732256
0.00520859
-0.0776437
0.00480929
-0.0823169
-0.0873883
0.0043503
0.000701816
-0.0089684
0.00211427
-0.026565
0.00351665
-0.0425658
0.00444244
-0.0546938
0.00480441
-0.0628782
0.00473955
-0.0684607
0.00442208
-0.0729081
0.00396988
-0.0771916
0.00343831
-0.0817853
-0.0867932
0.00284319
0.000681067
-0.00964946
0.00197698
-0.027861
0.00317627
-0.0437651
0.00387221
-0.0553897
0.00402662
-0.0630326
0.00379161
-0.0682257
0.0033318
-0.0724483
0.00274858
-0.0766083
0.00208205
-0.0811188
-0.0860571
0.00134592
0.000652106
-0.0103016
0.00182006
-0.0290289
0.00281506
-0.0447601
0.00329012
-0.0558648
0.00324941
-0.0629919
0.00285437
-0.0678307
0.0022583
-0.0718523
0.00154809
-0.0758981
0.000749739
-0.0803204
-0.0851394
-0.000167905
0.000615452
-0.010917
0.00164657
-0.03006
0.00243817
-0.0455517
0.0027018
-0.0561284
0.00247744
-0.0627675
0.00193103
-0.0672842
0.00120345
-0.0711247
0.000363546
-0.0750582
-0.000553632
-0.0794032
-0.0841245
-0.00156859
0.000571753
-0.0114888
0.00145939
-0.0309477
0.00205029
-0.0461426
0.00211209
-0.0561902
0.00171453
-0.0623699
0.00102421
-0.0665939
0.000165483
-0.0702659
-0.000791545
-0.0741012
-0.00184634
-0.0783484
-0.0829936
-0.0029772
0.000521765
-0.0120105
0.00126132
-0.0316872
0.00165568
-0.046537
0.00152504
-0.0560596
0.000963668
-0.0618086
0.000134415
-0.0657647
-0.000841697
-0.0692898
-0.0019232
-0.0730197
-0.00310508
-0.0771665
-0.0817329
-0.0043658
0.000466337
-0.0124769
0.00105508
-0.032276
0.00125804
-0.04674
0.000944029
-0.0557456
0.000227936
-0.0610925
-0.000729926
-0.0648068
-0.00182802
-0.0681917
-0.00303082
-0.0718169
-0.00433618
-0.0758612
-0.080342
-0.00572703
0.000406362
-0.0128832
0.000843399
-0.032713
0.000860498
-0.0467571
0.000372842
-0.0552579
-0.000490594
-0.060229
-0.00157443
-0.063723
-0.00279037
-0.0669758
-0.00411148
-0.0704958
-0.00553928
-0.0744334
-0.0788229
-0.00705843
0.000342666
-0.0132259
0.000628999
-0.0329993
0.00046635
-0.0465944
-0.000186584
-0.054605
-0.00119075
-0.0592249
-0.00239655
-0.0625172
-0.00372715
-0.0656452
-0.005164
-0.0690589
-0.00671279
-0.0728846
-0.0771779
-0.00835776
0.000276215
-0.0135021
0.000413626
-0.0331367
8.78838e-05
-0.0462687
-0.000734757
-0.0537823
-0.0018723
-0.0580873
-0.00319515
-0.0611943
-0.00463742
-0.0642029
-0.00618753
-0.0675088
-0.00785526
-0.0712169
-0.0754109
-0.0096223
0.000209051
-0.0137112
0.000199168
-0.0331269
-0.000307091
-0.0457624
-0.0012693
-0.0528201
-0.00253344
-0.0568232
-0.00396937
-0.0597584
-0.00552044
-0.0626519
-0.00718132
-0.0658479
-0.0089652
-0.069433
-0.0735279
-0.0108482
0.000140698
-0.0138519
6.70858e-06
-0.0329929
-0.000684156
-0.0450715
-0.00178958
-0.0517147
-0.00317361
-0.0554392
-0.00471849
-0.0582135
-0.00637554
-0.0609948
-0.0081446
-0.0640789
-0.0100413
-0.0675362
-0.0715336
-0.0120356
6.60433e-05
-0.0139179
-0.000233502
-0.0326933
-0.00105284
-0.0442522
-0.00229269
-0.0504749
-0.00379195
-0.0539399
-0.00544203
-0.0565634
-0.0072023
-0.0592345
-0.00907676
-0.0622044
-0.0110837
-0.0655294
-0.0694254
-0.0131919
-1.27136e-05
-0.0139052
-0.000449765
-0.0322563
-0.00141098
-0.043291
-0.0027777
-0.0491081
-0.00438747
-0.0523301
-0.00613957
-0.0548113
-0.00800105
-0.0573731
-0.00997883
-0.0602266
-0.0120911
-0.0634171
-0.0672023
-0.0143142
-8.20905e-05
-0.0138231
-0.000656998
-0.0316814
-0.00175683
-0.0421912
-0.00324426
-0.0476207
-0.00495954
-0.0506149
-0.00681061
-0.0529602
-0.00877244
-0.0554112
-0.0108541
-0.058145
-0.0130586
-0.0612126
-0.0648795
-0.0153815
-0.000153908
-0.0136692
-0.000857406
-0.0309779
-0.00208951
-0.0409591
-0.00369165
-0.0460186
-0.00550748
-0.048799
-0.00745415
-0.0510136
-0.00951453
-0.0533509
-0.0117012
-0.0559583
-0.0140247
-0.0588891
-0.0625991
-0.016305
-0.000224754
-0.0134444
-0.00105114
-0.0301515
-0.00240847
-0.0396017
-0.00411928
-0.0443077
-0.00603083
-0.0468875
-0.00806918
-0.0489752
-0.0102225
-0.0511975
-0.0124919
-0.0536889
-0.0148417
-0.0565393
-0.0598113
-0.0176295
-0.0002939
-0.0131505
-0.00123777
-0.0292076
-0.00271328
-0.0381262
-0.00452678
-0.0424943
-0.00652941
-0.0448849
-0.00865509
-0.0468496
-0.010893
-0.0489596
-0.0132396
-0.0513423
-0.0157132
-0.0540657
-0.0570421
-0.0184824
-0.000360951
-0.0127896
-0.00141674
-0.0281518
-0.00300356
-0.0365394
-0.00491383
-0.040584
-0.0070029
-0.0427958
-0.0092118
-0.0446407
-0.0115325
-0.0466388
-0.01397
-0.0489049
-0.0165582
-0.0514775
-0.0542486
-0.0193516
-0.000425601
-0.012364
-0.00158757
-0.0269898
-0.00327896
-0.034848
-0.00528017
-0.0385828
-0.00745091
-0.040625
-0.00973852
-0.042353
-0.0121381
-0.0442392
-0.0146598
-0.0463832
-0.017334
-0.0488034
-0.0514033
-0.0201793
-0.000487582
-0.0118764
-0.00174984
-0.0257276
-0.00353917
-0.0330587
-0.00562561
-0.0364963
-0.00787331
-0.0383773
-0.0102355
-0.0399908
-0.0127107
-0.0417641
-0.0153118
-0.0437821
-0.0180632
-0.0460519
-0.0484949
-0.0209717
-0.00054665
-0.0113298
-0.00190318
-0.0243711
-0.00378395
-0.0311779
-0.00595
-0.0343303
-0.00826995
-0.0360574
-0.0107025
-0.0375582
-0.0132491
-0.0392176
-0.0159238
-0.0411073
-0.0187469
-0.0432288
-0.045519
-0.0217228
-0.000602591
-0.0107272
-0.0020473
-0.0229264
-0.00401308
-0.0292121
-0.00625321
-0.0320902
-0.00864074
-0.0336699
-0.0111394
-0.0350595
-0.0137531
-0.0366039
-0.0164964
-0.038364
-0.0193873
-0.0403379
-0.0424756
-0.0224307
-0.000655213
-0.010072
-0.00218194
-0.0213996
-0.00422641
-0.0271677
-0.00653516
-0.0297814
-0.00898559
-0.0312194
-0.0115461
-0.0324991
-0.0142223
-0.0339277
-0.0170295
-0.0355568
-0.0199844
-0.037383
-0.0393667
-0.0230934
-0.000704348
-0.00936761
-0.00230691
-0.0197971
-0.00442379
-0.0250508
-0.00679578
-0.0274094
-0.00930444
-0.0287108
-0.0119223
-0.0298813
-0.0146567
-0.0311932
-0.0175232
-0.0326903
-0.0205381
-0.034368
-0.0361954
-0.0237093
-0.000749851
-0.00861776
-0.00242201
-0.0181249
-0.00460514
-0.0228676
-0.00703503
-0.0249795
-0.00959723
-0.0261486
-0.0122679
-0.0272106
-0.0150559
-0.0284052
-0.0179771
-0.0297691
-0.0210479
-0.0312973
-0.032966
-0.0242774
-0.000791596
-0.00782616
-0.00252712
-0.0163894
-0.00477035
-0.0206244
-0.00725287
-0.022497
-0.00986389
-0.0235375
-0.0125829
-0.0244916
-0.01542
-0.0255681
-0.0183913
-0.0267978
-0.0215132
-0.0281753
-0.0296828
-0.0247964
-0.000829473
-0.00699669
-0.00262211
-0.0145967
-0.00491937
-0.0183272
-0.00744926
-0.0199671
-0.0101044
-0.0208824
-0.0128671
-0.0217289
-0.0157486
-0.0226866
-0.0187653
-0.0237811
-0.0219337
-0.0250068
-0.0263509
-0.0252657
-0.00086339
-0.0061333
-0.00270688
-0.0127532
-0.00505216
-0.0159819
-0.0076242
-0.0173951
-0.0103187
-0.018188
-0.0131204
-0.0189272
-0.0160416
-0.0197654
-0.0190989
-0.0207238
-0.0223089
-0.0217968
-0.0229753
-0.0256845
-0.000893268
-0.00524003
-0.00278136
-0.0108652
-0.00516868
-0.0135946
-0.00777766
-0.0147861
-0.0105067
-0.0154589
-0.0133429
-0.016091
-0.0162989
-0.0168094
-0.019392
-0.0176308
-0.0226386
-0.0185502
-0.0195615
-0.0260524
-0.000919041
-0.00432099
-0.00284546
-0.00893874
-0.00526889
-0.0111711
-0.00790965
-0.0121453
-0.0106685
-0.0127001
-0.0135343
-0.0132252
-0.0165205
-0.0138231
-0.0196443
-0.014507
-0.0229224
-0.0152721
-0.0161147
-0.0263691
-0.000940655
-0.00338034
-0.00289915
-0.00698024
-0.00535278
-0.0087175
-0.00802015
-0.00947798
-0.010804
-0.00991619
-0.0136947
-0.0103346
-0.0167062
-0.0108117
-0.0198558
-0.0113574
-0.0231602
-0.0119677
-0.0126404
-0.0266344
-0.000958064
-0.00242227
-0.00294238
-0.00499593
-0.00542033
-0.00623955
-0.00810917
-0.00678914
-0.0109132
-0.00711213
-0.013824
-0.00742377
-0.0168559
-0.00777977
-0.0200263
-0.00818697
-0.0233518
-0.0086422
-0.0091441
-0.0268482
-0.000971234
-0.00145104
-0.00297511
-0.00299205
-0.00547153
-0.00374313
-0.0081767
-0.00408397
-0.0109962
-0.00429267
-0.0139223
-0.00449766
-0.0169697
-0.00473236
-0.0201559
-0.00500075
-0.0234975
-0.00530062
-0.00563085
-0.0270107
-0.000980141
-0.000470897
-0.00299733
-0.00097486
-0.00550638
-0.00123408
-0.00822276
-0.00136759
-0.0110528
-0.00146265
-0.0139894
-0.00156106
-0.0170474
-0.00167435
-0.0202443
-0.00180381
-0.0235965
-0.00194844
-0.00210516
-0.0271222
-0.000984767
0.000513869
-0.00300903
0.0010494
-0.00552488
0.00128178
-0.00824735
0.00135488
-0.0110831
0.00137312
-0.0140254
0.00138122
-0.017089
0.00138928
-0.0202914
0.00139861
-0.0236491
0.00140924
0.00142039
-0.0271747
-0.000985104
0.00149897
-0.00301019
0.00307448
-0.00552703
0.00379862
-0.00825048
0.00407833
-0.0110872
0.00420982
-0.0140303
0.00432437
-0.0170948
0.00445375
-0.0202981
0.00460187
-0.0236564
0.00476755
0.00494966
-0.0271857
-0.000981151
0.00248012
-0.00300082
0.00509415
-0.00551284
0.00631064
-0.00823216
0.00679765
-0.011065
0.00704263
-0.0140042
0.0072636
-0.0170646
0.00751416
-0.0202637
0.00780092
-0.0236177
0.00812161
0.0084749
-0.027143
-0.000972918
0.00345304
-0.00298093
0.00710216
-0.00548231
0.00881203
-0.0081924
0.00950774
-0.0110165
0.00986674
-0.013947
0.0101941
-0.0169984
0.0105656
-0.0201882
0.0109907
-0.0235327
0.0114661
0.0119899
-0.0270477
-0.000960418
0.00441346
-0.00295053
0.00909227
-0.00543546
0.011297
-0.00813121
0.0122035
-0.0109418
0.0126773
-0.0138588
0.013111
-0.0168963
0.0136032
-0.0200718
0.0141661
-0.0234016
0.0147959
0.0154893
-0.0269009
-0.000943678
0.00535714
-0.00290966
0.0110582
-0.0053723
0.0137596
-0.0080486
0.0148798
-0.0108409
0.0154696
-0.0137395
0.0160096
-0.0167583
0.016622
-0.0199145
0.0173223
-0.0232244
0.0181058
0.0189676
-0.0267027
-0.000922728
0.00627987
-0.00285833
0.0129939
-0.00529285
0.0161941
-0.00794459
0.0175315
-0.0107138
0.0182389
-0.0135894
0.0188852
-0.0165846
0.0196172
-0.0197165
0.0204542
-0.0230014
0.0213907
0.0224193
-0.0264531
-0.000897612
0.00717748
-0.00279661
0.0148929
-0.00519714
0.0185947
-0.00781919
0.0201536
-0.0105606
0.0209802
-0.0134083
0.0217329
-0.0163752
0.0225841
-0.0194778
0.0235568
-0.0227326
0.0246455
0.0258391
-0.0261524
-0.000868381
0.00804586
-0.00272453
0.016749
-0.00508518
0.0209553
-0.00767242
0.0227408
-0.0103812
0.023689
-0.0131965
0.0245482
-0.0161302
0.0255177
-0.0191987
0.0266253
-0.0224183
0.0278652
0.0292216
-0.0258008
-0.000835096
0.00888095
-0.00264217
0.0185561
-0.00495702
0.0232702
-0.0075043
0.0252881
-0.0101758
0.0263605
-0.0129539
0.0273263
-0.0158497
0.0284136
-0.0188793
0.0296549
-0.0220588
0.0310447
0.0325615
-0.0253988
-0.000797831
0.00967879
-0.00254959
0.0203078
-0.00481269
0.0255332
-0.00731486
0.0277903
-0.00994435
0.02899
-0.0126807
0.0300627
-0.0155341
0.0312669
-0.01852
0.0326409
-0.0216546
0.0341792
0.0358539
-0.024947
-0.000756673
0.0104355
-0.0024469
0.0219981
-0.00465223
0.0277386
-0.00710411
0.0302421
-0.00968694
0.0315729
-0.0123771
0.0327528
-0.0151833
0.0340731
-0.018121
0.0355786
-0.021206
0.0372642
0.0390939
-0.024446
-0.000711721
0.0111472
-0.00233419
0.0236205
-0.00447572
0.0298801
-0.0068721
0.0326385
-0.00940362
0.0341044
-0.012043
0.0353921
-0.0147976
0.0368278
-0.0176826
0.0384636
-0.0207137
0.0402954
0.0422772
-0.023897
-0.00066309
0.0118103
-0.0022116
0.025169
-0.0042832
0.0319517
-0.00661885
0.0349742
-0.00909445
0.03658
-0.0116786
0.0379763
-0.0143772
0.0395264
-0.017205
0.0412914
-0.0201782
0.0432685
0.0454
-0.023301
-0.000610915
0.0124212
-0.00207928
0.0266374
-0.00407479
0.0339472
-0.0063444
0.0372438
-0.00875949
0.0389951
-0.0112841
0.040501
-0.0139223
0.0421645
-0.0166884
0.0440575
-0.0196
0.0461801
0.0484595
-0.0226595
-0.000555348
0.0129765
-0.00193742
0.0280195
-0.00385058
0.0358604
-0.00604882
0.039442
-0.0083988
0.041345
-0.0108597
0.0429618
-0.0134329
0.0447378
-0.0161328
0.0467574
-0.0189793
0.0490266
0.0514544
-0.0219742
-0.000496561
0.0134731
-0.00178623
0.0293091
-0.00361072
0.0376849
-0.00573217
0.0415635
-0.00801246
0.0436253
-0.0104054
0.0453547
-0.0129095
0.0472419
-0.015538
0.0493859
-0.0183159
0.0518045
0.054386
-0.0212475
-0.000434749
0.0139078
-0.00162599
0.0305004
-0.00335538
0.0394143
-0.00539454
0.0436026
-0.00760051
0.0458313
-0.0099213
0.0476755
-0.0123524
0.049673
-0.0149034
0.0519369
-0.0176067
0.0545078
0.0572607
-0.0204814
-0.000370128
0.014278
-0.001457
0.0315873
-0.00308476
0.041042
-0.00503604
0.0455539
-0.00716311
0.0479584
-0.00940779
0.0499202
-0.0117627
0.0520279
-0.0142318
0.054406
-0.0168513
0.0571273
0.0600908
-0.0196814
-0.000302936
0.0145809
-0.00127962
0.0325639
-0.00279911
0.0425615
-0.00465684
0.0474116
-0.00670031
0.0500018
-0.00886436
0.0520843
-0.0111392
0.0543028
-0.0135188
0.0567857
-0.0160208
0.0596293
0.0629025
-0.0188326
-0.000233448
0.0148144
-0.00109429
0.0334248
-0.00249869
0.0439659
-0.00425713
0.0491701
-0.00621251
0.0519572
-0.00829182
0.0541636
-0.0104851
0.056496
-0.0127918
0.0590925
-0.0151683
0.0620058
0.0657357
-0.0180015
-0.000162025
0.0149764
-0.000901468
0.0341642
-0.00218383
0.0452483
-0.00383716
0.0508234
-0.00569997
0.05382
-0.0076903
0.0561539
-0.00979323
0.0585989
-0.0120224
0.0613216
-0.0143848
0.0643681
0.0680182
-0.0166673
-8.93836e-05
0.0150658
-0.000701477
0.0347763
-0.00185484
0.0464017
-0.00339723
0.0523658
-0.00516281
0.0555856
-0.00706032
0.0580514
-0.00906686
0.0606055
-0.0111922
0.0634469
-0.0134359
0.0666119
0.0703703
-0.015788
-1.86008e-05
0.0150844
-0.000494026
0.0352517
-0.00151224
0.0474199
-0.0029378
0.0537914
-0.00460134
0.0572491
-0.0064028
0.0598529
-0.00831119
0.0625139
-0.0103338
0.0654696
-0.0124866
0.0687647
0.07263
-0.0147463
6.08151e-05
0.0150236
-0.000276875
0.0355894
-0.00115687
0.0482999
-0.00245944
0.0550939
-0.00401618
0.0588059
-0.00571878
0.0615554
-0.00752856
0.0643237
-0.00945034
0.0673913
-0.0115011
0.0708154
0.0747773
-0.0136484
0.00013801
0.0148855
-3.5055e-05
0.0357625
-0.000790674
0.0490555
-0.00196215
0.0562654
-0.00340787
0.0602516
-0.00500878
0.0631564
-0.00671833
0.0660332
-0.00853783
0.0692108
-0.0104828
0.0727604
0.0768162
-0.0125217
0.000209238
0.0146763
0.000165539
0.0358062
-0.000416481
0.0496375
-0.00144622
0.0572951
-0.00277747
0.0615828
-0.00427313
0.064652
-0.00587996
0.06764
-0.0075948
0.0709257
-0.00943153
0.0745971
0.0787509
-0.0113663
0.000278905
0.0143974
0.000381281
0.0357038
-1.74156e-06
0.0500205
-0.000913963
0.0582074
-0.00212552
0.0627944
-0.00351203
0.0660385
-0.00501371
0.0691417
-0.00662166
0.0725336
-0.00834705
0.0763225
0.0805761
-0.0101723
0.000347919
0.0140495
0.000599434
0.0354523
0.000363792
0.0502562
-0.000373103
0.0589443
-0.00145229
0.0638736
-0.00272616
0.0673124
-0.00412014
0.0705357
-0.00561901
0.0740325
-0.00723046
0.077934
0.0822849
-0.00893924
0.000414767
0.0136347
0.00081867
0.0350484
0.000761235
0.0503136
0.000187265
0.0595182
-0.000759251
0.0648201
-0.0019164
0.0684695
-0.00319979
0.0718191
-0.00458731
0.07542
-0.00608287
0.0794295
0.0838734
-0.00767131
0.000478623
0.0131561
0.0010376
0.0344894
0.00116466
0.0501865
0.000756772
0.0599261
-4.84257e-05
0.0656253
-0.00108327
0.0695044
-0.00225323
0.072989
-0.00352705
0.0766939
-0.00490546
0.0808079
0.0853391
-0.00637116
0.000538632
0.0126175
0.00125329
0.0337748
0.0015707
0.0498691
0.00134081
0.060156
0.000684071
0.066282
-0.000229106
0.0704176
-0.00128158
0.0740415
-0.00243891
0.0778512
-0.00369976
0.0820688
0.0866799
-0.00504062
0.000593801
0.0120237
0.001463
0.0329056
0.00197701
0.0493551
0.00193391
0.0601991
0.00143304
0.0667829
0.000651502
0.0711991
-0.000288334
0.0749813
-0.00132427
0.0788871
-0.00246681
0.0832113
0.0878951
-0.00368202
0.000643201
0.0113805
0.00166412
0.0318847
0.00238028
0.048639
0.00253332
0.0600461
0.00219732
0.0671189
0.00155238
0.071844
0.000735275
0.0757985
-0.000192849
0.0798152
-0.00120442
0.0842229
0.0889909
-0.00230015
0.000685993
0.0106945
0.00185395
0.0307167
0.00277671
0.0477162
0.00313586
0.0596869
0.00297447
0.0672803
0.00247244
0.0723461
0.00178133
0.0764896
0.000980773
0.0806158
0.000105253
0.0850984
0.0900003
-0.000904188
0.00072142
0.00997304
0.00202966
0.0294085
0.00316208
0.0465838
0.00373753
0.0591115
0.0037616
0.0672562
0.00341005
0.0726976
0.00284784
0.0770518
0.00216705
0.0812966
0.00139387
0.0858716
0.090867
0.000527197
0.000748831
0.00922421
0.00218828
0.027969
0.00353173
0.0452403
0.0043336
0.0583096
0.00455504
0.0670348
0.00436267
0.07289
0.00393362
0.0774808
0.00337519
0.081855
0.00273237
0.0865144
0.0915768
0.00202258
0.000767707
0.0084565
0.00232663
0.0264101
0.00388041
0.0436866
0.00491852
0.0572715
0.00535037
0.0666029
0.00532746
0.0729129
0.00503766
0.0777706
0.00460596
0.0822867
0.00409096
0.0870294
0.0921555
0.0035122
0.000777713
0.00767879
0.00244157
0.0247462
0.00420242
0.0419257
0.00548586
0.055988
0.00614222
0.0659466
0.00630086
0.0727543
0.00615755
0.0779139
0.00585532
0.0825889
0.00546524
0.0874195
0.0926084
0.00501234
0.000778732
0.00690006
0.00253043
0.0229945
0.00449167
0.0399645
0.00602821
0.0544515
0.00692408
0.0650507
0.00727822
0.0724001
0.00729
0.0779022
0.00712029
0.0827587
0.00685509
0.0876847
0.0929364
0.00652716
0.000770849
0.00612921
0.00259078
0.0211746
0.00474173
0.0378135
0.00653715
0.0526561
0.00768813
0.0638997
0.00825378
0.0718345
0.00843135
0.0777246
0.00839884
0.0827912
0.00826
0.0878235
0.0931403
0.0080561
0.000754365
0.00537484
0.00262074
0.0193082
0.00494604
0.0354882
0.00700325
0.0505989
0.0084251
0.0624779
0.00922046
0.0710391
0.00957717
0.0773679
0.00968865
0.0826797
0.00967847
0.0878337
0.093221
0.00959776
0.000729796
0.00464505
0.00261913
0.0174189
0.00509821
0.0330091
0.00741617
0.0482809
0.00912415
0.0607699
0.0101696
0.0699937
0.0107219
0.0768156
0.0109865
0.0824151
0.0111085
0.0877117
0.0931779
0.0111515
0.000697876
0.00394717
0.00258566
0.0155311
0.00519239
0.0304024
0.00776489
0.0457084
0.00977276
0.058762
0.0110905
0.0686759
0.0118582
0.0760479
0.0122881
0.0819851
0.0125475
0.0874524
0.0930096
0.0127158
0.000659534
0.00328764
0.00252108
0.0136696
0.00522374
0.0276997
0.00803797
0.0428942
0.0103567
0.0564433
0.0119704
0.0670623
0.0129769
0.0750415
0.013588
0.0813739
0.0139925
0.087048
0.0927137
0.0142884
0.000615864
0.00267177
0.00242724
0.0118582
0.00518903
0.024938
0.00822416
0.0398591
0.0108602
0.0538072
0.0127939
0.0651286
0.0140664
0.073769
0.0148789
0.0805614
0.0154393
0.0864876
0.0922864
0.0158665
0.000568076
0.0021037
0.00230706
0.0101192
0.00508716
0.0221579
0.00831304
0.0366332
0.0112662
0.050854
0.0135431
0.0628517
0.0151121
0.0722
0.0161512
0.0795223
0.0168825
0.0857562
0.0917218
0.0174472
0.000517435
0.00158626
0.00216439
0.00847224
0.00491965
0.0194026
0.00829605
0.0332568
0.0115571
0.047593
0.0141973
0.0602115
0.0160961
0.0703012
0.0173925
0.0782259
0.0183151
0.0848337
0.0910102
0.0190266
0.000465192
0.00112107
0.00200377
0.00693366
0.00469095
0.0167154
0.00816756
0.0297802
0.0117152
0.0440453
0.0147333
0.0571935
0.0169969
0.0680376
0.0185869
0.0766359
0.0197271
0.0836934
0.0901379
0.0205995
0.000412508
0.000708563
0.00183007
0.0055161
0.00440832
0.0141372
0.00792617
0.0262623
0.011725
0.0402465
0.0151262
0.0537922
0.0177886
0.0653752
0.0197138
0.0747106
0.0211055
0.0823017
0.0890847
0.0221587
0.000360381
0.000348182
0.0016482
0.00422828
0.00408138
0.011704
0.00757572
0.022768
0.0115739
0.0362483
0.0153504
0.0500157
0.0184416
0.0622841
0.0207479
0.0724043
0.0224327
0.0806168
0.0878229
0.0236945
0.000309602
3.85795e-05
0.00146272
0.00307515
0.00372133
0.0094454
0.00712599
0.0193633
0.0112553
0.032119
0.0153812
0.0458898
0.0189229
0.0587424
0.0216578
0.0696694
0.0236856
0.0785891
0.0863154
0.0251931
0.000260743
-0.000222164
0.00127767
0.00205823
0.00334004
0.00738302
0.00659244
0.0161109
0.0107704
0.0279411
0.0151977
0.0414625
0.0191972
0.0547428
0.0224067
0.0664599
0.0248341
0.0761618
0.0845137
0.0266357
0.000214181
-0.000436345
0.00109648
0.00117593
0.00294918
0.00553033