/*--------------------------------*- C++ -*----------------------------------*\
  =========                 |
  \\      /  F ield         | OpenFOAM: The Open Source CFD Toolbox
   \\    /   O peration     | Website:  https://openfoam.org
    \\  /    A nd           | Version:  7
     \\/     M anipulation  |
\*---------------------------------------------------------------------------*/
FoamFile
{
    version     2.0;
    format      ascii;
    class       surfaceScalarField;
    location    "205";
    object      phi;
}
// * * * * * * * * * * * * * * * * * * * * * * * * * * * * * * * * * * * * * //

dimensions      [0 3 -1 0 0 0 0];

internalField   nonuniform List<scalar> 
4148
(
0.0846207
0.0216882
0.0216442
0.0762832
0.0831987
0.0230661
0.0205268
0.0654474
0.0226904
0.0741195
0.081517
0.0243722
0.0138827
0.0385658
0.0177834
0.0509909
0.0210354
0.0621953
0.0235905
0.0715645
0.0795279
0.0255796
0.00907684
0.022519
0.0133645
0.0342781
0.017609
0.0467464
0.0213087
0.0584956
0.0243009
0.0685723
0.0771757
0.0266531
0.00481362
0.0104185
0.00833809
0.0189945
0.0126496
0.0299666
0.017168
0.042228
0.0213046
0.054359
0.0247708
0.0651062
0.074397
0.0275495
0.00205091
0.00325806
0.00426065
0.00820874
0.00753984
0.0157153
0.0117638
0.0257426
0.0164554
0.0375364
0.0209862
0.0498282
0.0249446
0.0611478
0.071129
0.0282126
0.00177853
0.00213441
0.00373181
0.00625545
0.00671771
0.0127294
0.0107462
0.0217142
0.0154842
0.0327984
0.0203276
0.0449848
0.024766
0.0567093
0.0673103
0.0285848
0.000565869
-0.000448005
0.00153515
0.00116514
0.00323825
0.00455235
0.00590312
0.0100646
0.00964433
0.017973
0.0142881
0.0281546
0.0193235
0.0399494
0.0241802
0.0518526
0.0628969
0.0285936
9.92492e-05
-0.000694048
0.00048981
-0.000838566
0.00131838
0.000336569
0.00278386
0.00308686
0.00511857
0.00772987
0.00850587
0.0145857
0.0129183
0.0237422
0.0179922
0.0348756
0.0231566
0.0466882
0.0578743
0.0281792
8.93581e-05
-0.000783406
0.000422688
-0.0011719
0.00112251
-0.000363251
0.00236559
0.00184379
0.00437502
0.00572044
0.00736967
0.011591
0.0114348
0.0196771
0.0163859
0.0299244
0.0216378
0.0414363
0.0521202
0.0273919
8.01406e-05
-0.000863546
0.000359688
-0.00145144
0.000939483
-0.000943046
0.00197482
0.000808451
0.00367213
0.00402313
0.00625995
0.00900318
0.0098961
0.0160409
0.014573
0.0252474
0.0196272
0.0363822
0.0457103
0.0260371
6.98514e-05
-0.000933398
0.000295818
-0.00167741
0.000760403
-0.00140763
0.00159981
-3.09601e-05
0.00300097
0.00262198
0.00518547
0.00681867
0.00834977
0.0128766
0.0126093
0.0209879
0.0174855
0.031506
0.0409586
0.0222372
5.69382e-05
-0.000990336
0.00022663
-0.0018471
0.000577155
-0.00175816
0.00122838
-0.000682182
0.00234833
0.00150202
0.00414255
0.00502446
0.00682045
0.0101987
0.0105463
0.017262
0.0151653
0.0268871
0.0361709
0.0199529
4.02512e-05
-0.00103059
0.0001489
-0.00195575
0.00038349
-0.00199275
0.000851016
-0.00114971
0.00170144
0.000651604
0.00312088
0.00360502
0.00531388
0.00800572
0.00845417
0.0141217
0.0126554
0.0226858
0.0314889
0.0173375
1.92386e-05
-0.00104983
6.11149e-05
-0.00199763
0.000176522
-0.00210815
0.000462369
-0.00143555
0.00105203
6.19475e-05
0.00211113
0.00254591
0.0038276
0.00628925
0.00637472
0.0115746
0.0100176
0.019043
0.0270907
0.0144158
-6.18256e-06
-0.00104364
-3.62768e-05
-0.00196753
-4.30442e-05
-0.00210139
6.18175e-05
-0.00154042
0.00039881
-0.000275045
0.00111174
0.00183298
0.00236534
0.00503565
0.00433375
0.00960621
0.0073358
0.0160409
0.0231521
0.0112744
-3.50497e-05
-0.00100859
-0.00014105
-0.00186153
-0.000270752
-0.00197168
-0.000341794
-0.00146937
-0.000249762
-0.000367077
0.000127529
0.00145569
0.000944567
0.00421861
0.00235931
0.00819147
0.00469987
0.0137004
0.0198207
0.00803127
-6.62928e-05
-0.000942301
-0.000249414
-0.00167841
-0.000499962
-0.00172114
-0.000740696
-0.00122864
-0.000878799
-0.000228975
-0.000807048
0.00138394
-0.000404491
0.00381605
0.000466764
0.00732021
0.00220558
0.0119615
0.017207
0.00481925
-9.82419e-05
-0.000844059
-0.000356618
-0.00142004
-0.000721869
-0.00135589
-0.00112074
-0.000829772
-0.00147055
0.000120841
-0.00168099
0.00159438
-0.00164552
0.00378058
-0.00119845
0.00687314
2.93468e-05
0.0107337
0.0154841
0.00175228
-0.000129069
-0.00071499
-0.000457468
-0.00109164
-0.000927139
-0.000886215
-0.00146777
-0.000289138
-0.00200568
0.000658753
-0.00246367
0.00205236
-0.00274726
0.00406417
-0.00270953
0.00683541
-0.00219314
0.0102174
0.0142662
-0.000975292
-0.000156963
-0.000558027
-0.000546946
-0.000701654
-0.00110699
-0.000326173
-0.00176896
0.000372833
-0.00246666
0.00135646
-0.0031333
0.002719
-0.00368646
0.00461733
-0.00400183
0.00715078
-0.00395627
0.0101718
0.0136035
-0.0032936
-0.000180299
-0.000377727
-0.000620679
-0.000261274
-0.00125391
0.000307058
-0.00201389
0.00113282
-0.00284016
0.00218272
-0.00367438
0.00355322
-0.00444557
0.00538852
-0.00505268
0.00775789
-0.00540361
0.0105227
0.0135123
-0.00531234
-0.000197777
-0.000179951
-0.000675233
0.000216183
-0.00136239
0.000994211
-0.00219513
0.00196556
-0.00311767
0.00310526
-0.00407853
0.00451408
-0.00501808
0.00632807
-0.00585944
0.00859926
-0.00654085
0.0112041
0.0139284
-0.00695695
-0.00020849
2.85397e-05
-0.000708353
0.000716045
-0.00142889
0.00171475
-0.00230846
0.00284513
-0.00329517
0.00409197
-0.00434331
0.00556222
-0.00540416
0.00738893
-0.0064236
0.00961869
-0.00736744
0.012148
0.0147587
-0.00819781
-0.000211975
0.000240515
-0.000718922
0.00122299
-0.00145191
0.00244774
-0.00235254
0.00374576
-0.00337239
0.00511182
-0.00447051
0.00666033
-0.005608
0.00852642
-0.00675004
0.0107607
-0.00788535
0.0132833
0.0158957
-0.00902227
-0.000208182
0.000448696
-0.00070693
0.00172174
-0.00143175
0.00317255
-0.00232846
0.00464248
-0.00335192
0.00613528
-0.00446487
0.00777329
-0.00563625
0.0096978
-0.00684594
0.0119704
-0.00809901
0.0145363
0.0172262
-0.00942955
-0.000197444
0.00064614
-0.000673363
0.00219766
-0.00137027
0.00386947
-0.00223934
0.00551154
-0.00323853
0.00713447
-0.00433314
0.0088679
-0.00549729
0.0108619
-0.00672017
0.0131933
-0.00801588
0.015832
0.0186386
-0.00942826
-0.000180432
0.000826573
-0.00062007
0.0026373
-0.00127073
0.00452013
-0.00208997
0.00633078
-0.00303881
0.00808331
-0.00408379
0.00991288
-0.00520111
0.0119793
-0.00638378
0.014376
-0.00764768
0.0170959
0.0200259
-0.00903498
-0.00015809
0.000984663
-0.000549627
0.00302883
-0.00113751
0.00510801
-0.00188658
0.00707986
-0.00276093
0.00895766
-0.00372696
0.0108789
-0.0047598
0.0130121
-0.00585093
0.0154671
-0.00701165
0.0182567
0.0212884
-0.00827413
-0.000131574
0.00111624
-0.000465214
0.00336247
-0.000975987
0.00561878
-0.00163674
0.00774062
-0.0024146
0.00973551
-0.00327468
0.011739
-0.00418802
0.0139254
-0.00513985
0.0164189
-0.00613161
0.0192484
0.0223362
-0.00717943
-0.000102191
-0.000370477
-0.00079242
-0.00134923
-0.00201113
-0.00274107
-0.00350351
-0.00427347
-0.00503861
-0.00579433
0.206433
-0.00113693
0.207664
-0.00123086
0.208987
-0.00132328
0.210401
-0.00141403
0.211904
-0.00150296
0.213494
-0.00158991
0.215169
-0.00167474
0.216926
-0.00175726
0.218764
-0.00183747
0.220678
-0.0019148
-0.0019907
0.222669
0.196995
-0.00222636
0.198174
-0.0024097
0.19944
-0.00259007
0.200794
-0.00276718
0.202231
-0.00294072
0.203752
-0.00311038
0.205353
-0.00327592
0.207033
-0.00343692
0.208789
-0.00359343
0.210618
-0.0037443
-0.00389237
0.21252
0.188134
-0.00327386
0.189267
-0.00354255
0.190484
-0.0038069
0.191783
-0.00406646
0.193163
-0.0043208
0.194622
-0.00456948
0.196158
-0.00481212
0.197769
-0.00504814
0.199454
-0.00527762
0.201208
-0.00549882
-0.00571606
0.203032
0.179795
-0.00428439
0.180888
-0.00463471
0.18206
-0.00497939
0.183311
-0.00531785
0.18464
-0.00564953
0.186045
-0.00597385
0.187523
-0.00629034
0.189073
-0.00659823
0.190693
-0.00689764
0.19238
-0.00718627
-0.00746996
0.194134
0.17193
-0.00526178
0.172986
-0.00569029
0.174118
-0.00611192
0.175327
-0.00652599
0.176609
-0.00693181
0.177964
-0.00732868
0.179389
-0.00771603
0.180884
-0.00809291
0.182446
-0.00845951
0.184073
-0.00881291
-0.00916063
0.185763
0.164496
-0.00620918
0.165519
-0.00671263
0.166615
-0.00720806
0.167784
-0.00769466
0.169023
-0.00817163
0.170333
-0.00863815
0.17171
-0.00909358
0.173154
-0.00953676
0.174663
-0.00996797
0.176234
-0.0103837
-0.0107932
0.177866
0.157458
-0.00712909
0.15845
-0.00770441
0.159512
-0.00827063
0.160645
-0.00882683
0.161845
-0.00937211
0.163112
-0.00990552
0.164445
-0.0104264
0.165842
-0.0109333
0.1673
-0.0114267
0.168819
-0.0119023
-0.0123714
0.170397
0.150784
-0.00802354
0.151747
-0.00866777
0.152778
-0.00930188
0.153877
-0.00992485
0.15504
-0.0105357
0.156268
-0.0111333
0.157559
-0.011717
0.15891
-0.0122852
0.160322
-0.0128383
0.161791
-0.0133716
-0.0138982
0.163318
0.144447
-0.00889417
0.145384
-0.00960441
0.146386
-0.0103036
0.147451
-0.0109906
0.14858
-0.0116643
0.14977
-0.0123235
0.151021
-0.0129675
0.15233
-0.0135945
0.153697
-0.014205
0.155119
-0.0147935
-0.0153755
0.156596
0.138426
-0.00974228
0.139337
-0.0105157
0.14031
-0.0112772
0.141345
-0.0120254
0.14244
-0.0127594
0.143594
-0.0134776
0.144806
-0.0141794
0.146074
-0.0148627
0.147398
-0.015528
0.148774
-0.0161696
-0.0168045
0.150203
0.132698
-0.010569
0.133585
-0.0114028
0.134532
-0.0122238
0.135537
-0.0130306
0.1366
-0.0138221
0.137719
-0.0145968
0.138893
-0.0153537
0.140121
-0.0160908
0.141402
-0.0168085
0.142733
-0.0175008
-0.0181862
0.144115
0.126442
-0.0104717
0.127248
-0.0113753
0.128112
-0.0122666
0.129033
-0.0131444
0.130009
-0.0140071
0.131041
-0.0148534
0.132126
-0.0156818
0.133263
-0.0164913
0.134452
-0.0172797
0.135691
-0.0180472
0.136978
-0.0187877
-0.019521
0.138313
0.121274
-0.011203
0.12206
-0.012162
0.122902
-0.0131081
0.123797
-0.0140399
0.124746
-0.0149557
0.125747
-0.0158542
0.126799
-0.0167337
0.1279
-0.017593
0.129051
-0.0184302
0.130248
-0.0192447
0.131491
-0.0200309
-0.0208091
0.13278
0.116353
-0.0119184
0.117121
-0.01293
0.117941
-0.0139282
0.118812
-0.0149111
0.119734
-0.0158773
0.120705
-0.0168251
0.121724
-0.017753
0.122791
-0.0186595
0.123903
-0.0195427
0.12506
-0.0204014
0.12626
-0.0212308
-0.0220509
0.127502
0.111668
-0.0126188
0.112418
-0.0136803
0.113218
-0.0147275
0.114066
-0.0157589
0.114961
-0.0167726
0.115903
-0.0177671
0.11689
-0.0187406
0.117922
-0.0196914
0.118998
-0.0206179
0.120114
-0.0215178
0.121271
-0.0223879
-0.0232465
0.122467
0.107208
-0.013305
0.107942
-0.0144135
0.108721
-0.0155071
0.109546
-0.016584
0.110416
-0.0176425
0.11133
-0.0186808
0.112287
-0.0196971
0.113285
-0.0206895
0.114323
-0.0216567
0.1154
-0.0225947
0.116515
-0.023503
-0.0243965
0.117665
0.102963
-0.013978
0.103681
-0.0151306
0.104441
-0.0162678
0.105245
-0.0173875
0.10609
-0.018488
0.106977
-0.0195672
0.107903
-0.0206237
0.108868
-0.0216546
0.109871
-0.0226598
0.11091
-0.023633
0.111984
-0.0245769
-0.025502
0.113089
0.0989238
-0.0146387
0.0996258
-0.0158327
0.100369
-0.0170105
0.101151
-0.0181702
0.101973
-0.0193099
0.102833
-0.0204274
0.103731
-0.0215213
0.104664
-0.0225881
0.105633
-0.0236287
0.106634
-0.024634
0.107669
-0.0256114
-0.0265647
0.108731
0.0950805
-0.015288
0.0957684
-0.0165205
0.0964943
-0.0177364
0.0972574
-0.0189333
0.098057
-0.0201096
0.098892
-0.0212624
0.099762
-0.0223913
0.100665
-0.0234912
0.101602
-0.0245653
0.102568
-0.0255999
0.103565
-0.0266089
-0.0275872
0.104588
0.0914247
-0.0159268
0.0920995
-0.0171953
0.0928097
-0.0184466
0.0935546
-0.0196782
0.0943338
-0.0208888
0.0951458
-0.0220744
0.0959906
-0.023236
0.0968656
-0.0243662
0.0977724
-0.0254721
0.0987055
-0.0265331
0.0996695
-0.0275728
-0.028572
0.100654
0.0879491
-0.0165565
0.088612
-0.0178581
0.0893078
-0.0191424
0.0900357
-0.0204061
0.0907961
-0.0216491
0.0915871
-0.0228654
0.09241
-0.024059
0.0932606
-0.0252168
0.094142
-0.0263536
0.0950449
-0.027436
0.0959779
-0.0285058
-0.0295186
0.0969245
0.0846463
-0.0171785
0.0852994
-0.0185112
0.0859833
-0.0198264
0.0866971
-0.0211199
0.0874411
-0.0223931
0.0882129
-0.0236372
0.0890155
-0.0248616
0.0898426
-0.0260439
0.0907013
-0.0272123
0.0915741
-0.0283087
0.0924761
-0.0294079
-0.0304172
0.0933747
0.0815099
-0.0177942
0.0821548
-0.0191562
0.0828293
-0.0205009
0.0835323
-0.0218228
0.0842643
-0.0231251
0.0850211
-0.024394
0.0858059
-0.0256463
0.0866071
-0.0268451
0.0874377
-0.028043
0.0882679
-0.0291389
0.0891266
-0.0302666
-0.0312385
0.0899479
0.0785372
-0.0184057
0.0791757
-0.0197946
0.0798411
-0.0211664
0.0805328
-0.0225145
0.0812514
-0.0238437
0.0819922
-0.0251348
0.0827579
-0.026412
0.0835294
-0.0276166
0.0843212
-0.0288348
0.0850821
-0.0298998
0.0858623
-0.0310468
-0.0319237
0.0865476
0.0757255
-0.0190151
0.0763592
-0.0204283
0.0770158
-0.0218229
0.0776932
-0.0231919
0.0783893
-0.0245398
0.0790988
-0.0258442
0.0798224
-0.0271356
0.0805388
-0.028333
0.0812612
-0.0295572
0.0819119
-0.0305505
0.0825562
-0.0316912
-0.0323751
0.0830076
0.0730608
-0.0196198
0.0736857
-0.0210532
0.0743279
-0.0224652
0.0749841
-0.0238481
0.0756466
-0.0252023
0.0763069
-0.0265045
0.0769531
-0.0277819
0.0775635
-0.0289434
0.0781395
-0.0301332
0.0785966
-0.0310076
0.0790033
-0.0320979
-0.0324513
0.0790796
0.0705172
-0.0202077
0.0711168
-0.0216529
0.0717239
-0.0230723
0.0723337
-0.0244579
0.0729346
-0.0258032
0.073516
-0.0270859
0.0740486
-0.0283145
0.0745067
-0.0294015
0.0748453
-0.0304718
0.0749921
-0.0311544
0.0749831
-0.0320888
-0.031979
0.0745107
0.0680617
-0.0207611
0.0686131
-0.0222043
0.0691546
-0.0236138
0.0696764
-0.0249796
0.0701608
-0.0262876
0.0705912
-0.0275162
0.0709258
-0.0286491
0.0711409
-0.0296166
0.0711392
-0.0304701
0.0708731
-0.0308884
0.0702414
-0.0314571
-0.0307847
0.0690471
0.065647
-0.0212616
0.0661276
-0.0226849
0.0665742
-0.0240604
0.066966
-0.0253715
0.0672732
-0.0265948
0.067459
-0.027702
0.0674645
-0.0286547
0.0672496
-0.0294017
0.0666952
-0.0299157
0.0658207
-0.0300139
0.0643571
-0.0299934
-0.028764
0.0623364
0.06323
0.0636112
0.063923
0.0641311
0.0641894
0.0640368
0.0635947
0.0627778
0.0614557
0.059621
0.0570195
0.0542926
0.223237
-0.000567619
0.223758
-0.000520911
0.224192
-0.000434521
0.22455
-0.000357701
0.224776
-0.000226403
0.224883
-0.000107034
0.224806
7.74426e-05
0.22453
0.000275385
0.224019
0.000511351
0.223174
0.000844816
0.222079
0.00109538
0.220477
0.00160185
0.218687
0.00179034
0.216306
0.00238102
0.213906
0.00239966
0.211128
0.00277772
0.208712
0.00241632
0.206552
0.00215997
0.205374
0.00117817
0.205902
-0.000527933
0.207635
-0.00173314
0.212604
-0.00496894
0.21526
-0.00265574
0.217536
-0.00227641
0.217071
0.000464615
0.212745
0.00432628
0.209393
0.00335187
0.20198
0.0074135
0.204927
-0.00294743
-0.00918379
0.213068
-0.00111593
0.213571
-0.00102422
0.213992
-0.00085484
0.21434
-0.000705696
0.214563
-0.000449194
0.214673
-0.000217357
0.214607
0.00014349
0.214351
0.000530808
0.213869
0.000993484
0.213061
0.00165306
0.212009
0.00214698
0.210454
0.00315735
0.208709
0.00353492
0.206376
0.00471393
0.204005
0.00477062
0.201261
0.00552207
0.198846
0.00483166
0.196653
0.00435277
0.195443
0.00238814
0.195901
-0.000986109
0.197731
-0.00356327
0.20292
-0.0101578
0.205682
-0.00541763
0.207931
-0.00452518
0.207428
0.000966961
0.203151
0.00860379
0.199518
0.00698465
0.191947
0.014985
0.194763
-0.00576349
-0.0182676
0.203568
-0.0016518
0.20406
-0.00151621
0.204471
-0.00126636
0.204815
-0.00104918
0.205039
-0.000673443
0.205158
-0.000336671
0.20511
0.000192023
0.204879
0.000761444
0.20443
0.00144228
0.203655
0.00242857
0.20264
0.00316152
0.201107
0.0046909
0.199376
0.00526593
0.197041
0.00704866
0.194628
0.00718326
0.191847
0.00830372
0.189335
0.00734318
0.187013
0.00667457
0.185677
0.00372399
0.186032
-0.00134031
0.188098
-0.00563004
0.193891
-0.0159506
0.196959
-0.00848544
0.199192
-0.0067584
0.198628
0.00153151
0.194293
0.012938
0.190024
0.0112539
0.181859
0.0231501
0.18447
-0.00837478
-0.0274747
0.194662
-0.0021791
0.195145
-0.00199997
0.195551
-0.00167171
0.195892
-0.00139106
0.196122
-0.000902965
0.196255
-0.000469434
0.19623
0.000216991
0.196029
0.000962052
0.19562
0.00185127
0.194877
0.00317173
0.193898
0.0041403
0.192369
0.00622035
0.190629
0.00700596
0.188254
0.00942382
0.185745
0.00969162
0.182872
0.0111765
0.180185
0.0100305
0.17766
0.00919994
0.176081
0.00530232
0.176292
-0.0015507
0.178713
-0.00805171
0.18545
-0.0226873
0.189033
-0.0120687
0.191203
-0.00892841
0.190583
0.00215163
0.186087
0.0174349
0.180965
0.0163749
0.171856
0.0322596
0.173854
-0.0103724
-0.0368628
0.186284
-0.00269938
0.18676
-0.00247623
0.18716
-0.00207153
0.187501
-0.00173208
0.187738
-0.00114013
0.187887
-0.000618995
0.187892
0.000211989
0.187728
0.00112625
0.187368
0.00221151
0.18666
0.00387942
0.18572
0.00508011
0.184183
0.00775801
0.182419
0.00877009
0.179973
0.011869
0.177329
0.0123362
0.174325
0.0141805
0.1714
0.0129558
0.168615
0.0119847
0.166643
0.00727409
0.166666
-0.0015734
0.169545
-0.0109307
0.177547
-0.0306895
0.181862
-0.0163835
0.183875
-0.0109419
0.183218
0.00280856
0.178444
0.0222094
0.172454
0.0223645
0.162082
0.0426322
0.162586
-0.010877
-0.0462278
0.178379
-0.00321195
0.178846
-0.00294327
0.179238
-0.00246423
0.179577
-0.00207082
0.179823
-0.00138569
0.179992
-0.000788159
0.180033
0.000170571
0.179914
0.00124598
0.179613
0.00251199
0.178948
0.00454448
0.178054
0.00597451
0.176501
0.00931073
0.174702
0.0105691
0.172165
0.014406
0.169356
0.0151454
0.166189
0.0173475
0.162987
0.0161572
0.159897
0.0150754
0.157348
0.00982306
0.157121
-0.00134642
0.160556
-0.0143655
0.170143
-0.0402766
0.175399
-0.0216403
0.17715
-0.0126923
0.17645
0.00350863
0.17128
0.0273791
0.16462
0.0290247
0.152736
0.0545162
0.150492
-0.00863274
-0.0550942
0.170899
-0.00371391
0.171353
-0.00339696
0.171735
-0.00284581
0.172068
-0.00240394
0.172321
-0.00163928
0.172512
-0.00097866
0.172596
8.60653e-05
0.172531
0.00131107
0.172303
0.00273984
0.171693
0.00515508
0.170852
0.006815
0.169283
0.0108801
0.16744
0.0124119
0.164797
0.0170489
0.161805
0.0181378
0.158446
0.0207064
0.154965
0.0196381
0.151519
0.0185216
0.148191
0.0131505
0.147604
-0.000759572
0.1517
-0.0184608
0.163195
-0.051772
0.16958
-0.0280258
0.170991
-0.0141027
0.170185
0.00431455
0.164542
0.0330217
0.157508
0.036059
0.143955
0.0680697
0.137966
-0.00264462
-0.0628823
0.163805
-0.00420035
0.164239
-0.00383095
0.164603
-0.00321004
0.164925
-0.00272614
0.165184
-0.00189797
0.165398
-0.0011928
0.165532
-4.77902e-05
0.165534
0.00130876
0.165393
0.00288043
0.164854
0.00569466
0.164077
0.00759174
0.162494
0.012463
0.160598
0.0143086
0.157842
0.0198043
0.154654
0.0213258
0.15108
0.0242801
0.147349
0.0233692
0.143496
0.0223752
0.139197
0.0174494
0.138038
0.000399698
0.14287
-0.0232932
0.156596
-0.0654982
0.164276
-0.0357058
0.165352
-0.0151784
0.164329
0.00533713
0.158217
0.0391338
0.151033
0.043243
0.135877
0.0832256
0.126013
0.00721974
-0.0691573
0.15706
-0.00466432
0.157466
-0.00423662
0.157804
-0.0035482
0.158108
-0.0030302
0.158368
-0.00215777
0.158606
-0.00143166
0.158796
-0.00023718
0.158881
0.00122359
0.158844
0.00291723
0.158397
0.00614195
0.157695
0.00829388
0.156104
0.0140534
0.154142
0.016271
0.151274
0.0226722
0.14788
0.0247199
0.144078
0.0280821
0.140153
0.0272943
0.135851
0.0266769
0.130434
0.0228671
0.128326
0.00250701
0.133779
-0.0287459
0.149989
-0.0817084
0.159199
-0.0449158
0.160123
-0.0161028
0.158794
0.00666613
0.152288
0.0456399
0.145042
0.050489
0.128699
0.0995686
0.115667
0.0202523
-0.0737425
0.150635
-0.00509708
0.151002
-0.00460322
0.151303
-0.00384936
0.15158
-0.00330695
0.151834
-0.00241184
0.152099
-0.00169709
0.152349
-0.000487166
0.152536
0.001037
0.152622
0.0028316
0.152292
0.0064713
0.151677
0.00890922
0.150086
0.0156449
0.148044
0.0183121
0.145067
0.0256499
0.141457
0.0283301
0.13743
0.0321089
0.133368
0.0313557
0.128631
0.0314146
0.122055
0.0294426
0.118397
0.00616514
0.123862
-0.0342107
0.142549
-0.100395
0.153776
-0.0561434
0.155056
-0.0173823
0.153477
0.00824464
0.146692
0.0524253
0.139403
0.057778
0.122518
0.116454
0.107407
0.0353629
-0.0766469
0.144506
-0.00548818
0.14482
-0.00491779
0.145071
-0.00410032
0.14531
-0.00354527
0.14555
-0.0026518
0.145842
-0.00198927
0.146158
-0.000803311
0.146467
0.000728078
0.146696
0.00260234
0.146515
0.006653
0.146
0.00942395
0.144411
0.0172333
0.14228
0.0204433
0.139191
0.0287395
0.135357
0.0321639
0.131128
0.0363375
0.126961
0.0355229
0.121892
0.0364838
0.114269
0.0370651
0.108357
0.0120769
0.112599
-0.0384518
0.133198
-0.120995
0.147222
-0.0701678
0.149728
-0.0198878
0.148224
0.00974874
0.141318
0.0593313
0.134034
0.0650614
0.117253
0.133235
0.101129
0.0514872
-0.0779559
0.13865
-0.00582572
0.138898
-0.00516531
0.139083
-0.004286
0.13927
-0.00373163
0.139485
-0.00286737
0.139804
-0.00230763
0.140191
-0.00119025
0.140645
0.000273435
0.141043
0.00220481
0.141042
0.00665336
0.140643
0.00982313
0.139058
0.0188186
0.136828
0.0226733
0.133613
0.0319549
0.129559
0.0362175
0.12516
0.0407366
0.120881
0.0398013
0.115684
0.041681
0.107261
0.0454882
0.0986869
0.0206512
0.100449
-0.0402142
0.121681
-0.142226
0.138961
-0.0874481
0.143675
-0.0246019
0.142828
0.0105955
0.136035
0.0661249
0.12888
0.0722166
0.11271
0.149405
0.0964052
0.0677918
-0.0778184
0.13305
-0.00609647
0.133214
-0.0053289
0.133318
-0.00438974
0.133436
-0.00385007
0.133615
-0.00304634
0.133957
-0.00264949
0.134421
-0.00165399
0.135045
-0.000350576
0.13564
0.00160963
0.135858
0.00643477
0.135589
0.0100924
0.134005
0.0204031
0.131667
0.0250109
0.128299
0.0353224
0.124048
0.0404693
0.119494
0.0452902
0.115091
0.0442048
0.110014
0.0467578
0.101083
0.0544189
0.0902809
0.0314533
0.0893698
-0.0393031
0.109457
-0.162314
0.12923
-0.107221
0.136679
-0.0320511
0.137115
0.0101596
0.13073
0.0725105
0.123888
0.0790586
0.108675
0.164618
0.0927448
0.0837218
-0.0764492
0.127691
-0.00628607
0.127752
-0.00539027
0.127756
-0.0043934
0.127788
-0.0038822
0.127917
-0.00317494
0.128277
-0.00300924
0.128827
-0.00220488
0.129639
-0.00116186
0.130469
0.000778916
0.130949
0.00595561
0.130821
0.0102201
0.129235
0.0219888
0.126775
0.0274715
0.123224
0.0388733
0.118809
0.0448837
0.114085
0.0500148
0.109584
0.0487057
0.104812
0.0515297
0.095684
0.0635469
0.0839959
0.0431413
0.0815023
-0.0368094
0.098673
-0.179484
0.118977
-0.127525
0.128919
-0.0419933
0.131027
0.00805198
0.125351
0.0781861
0.119019
0.085391
0.104955
0.178682
0.0897428
0.0989337
-0.0740912
0.12256
-0.00637919
0.1225
-0.00533037
0.122384
-0.00427765
0.12231
-0.00380744
0.122372
-0.00323724
0.122742
-0.00337897
0.123387
-0.0028503
0.124409
-0.00218407
0.125518
-0.000329481
0.126302
0.00517111
0.126324
0.0101981
0.124737
0.0235762
0.122126
0.0300826
0.118367
0.0426316
0.113823
0.0494282
0.108891
0.0549464
0.10438
0.0532171
0.0999575
0.0559522
0.0909339
0.0725705
0.0799941
0.0540811
0.0771572
-0.0339725
0.0902195
-0.192547
0.109073
-0.146379
0.120777
-0.0536972
0.12463
0.00419921
0.119901
0.0829152
0.114221
0.091071
0.101406
0.191497
0.0871037
0.113236
-0.070984
0.117646
-0.00636004
0.117446
-0.00513016
0.117191
-0.00402214
0.116987
-0.0036038
0.116964
-0.00321456
0.117334
-0.00374864
0.118083
-0.00359984
0.119335
-0.0034358
0.120773
-0.00176688
0.12191
0.00403388
0.122088
0.0100201
0.120496
0.025168
0.117695
0.0328834
0.11372
0.0466072
0.109057
0.0540903
0.103897
0.0601071
0.0994798
0.057634
0.0953261
0.0601058
0.0867034
0.0811933
0.077578
0.0632065
0.0749194
-0.0313139
0.0835645
-0.201192
0.0998745
-0.162689
0.112589
-0.0664117
0.118047
-0.00125879
0.114398
0.0865642
0.109441
0.0960276
0.0979319
0.203007
0.0846336
0.126534
-0.0673434
0.112942
-0.00621275
0.112583
-0.00477126
0.112167
-0.00360608
0.111811
-0.00324783
0.111682
-0.00308522
0.11204
-0.00410724
0.1129
-0.00445974
0.1144
-0.00493573
0.116224
-0.00359101
0.117764
0.00249425
0.118104
0.00967958
0.116497
0.026775
0.113463
0.0359179
0.10927
0.0508
0.104479
0.0588808
0.0991035
0.065483
0.0948476
0.0618899
0.0908227
0.0641307
0.0828371
0.0891788
0.0758486
0.070195
0.0733605
-0.0288258
0.0779956
-0.205827
0.091445
-0.176138
0.10458
-0.0795472
0.11141
-0.00808843
0.108887
0.0890869
0.104689
0.100226
0.0944802
0.213215
0.0822144
0.1388
-0.0633532
0.108441
-0.005922
0.107906
-0.00423647
0.107309
-0.0030089
0.106775
-0.0027142
0.106514
-0.00282404
0.10685
-0.00444316
0.107821
-0.00543058
0.109585
-0.00670034
0.111858
-0.00586392
0.113853
0.000499318
0.114366
0.00916692
0.112721
0.0284201
0.109413
0.0392253
0.105005
0.0552087
0.100061
0.0638247
0.0945193
0.0710245
0.0904277
0.0659814
0.0863953
0.0681632
0.0792015
0.0963726
0.0742097
0.0751868
0.0718109
-0.026427
0.0731881
-0.207204
0.0838187
-0.186769
0.096898
-0.0926265
0.104841
-0.0160316
0.10342
0.0905077
0.0999848
0.103662
0.0910267
0.222173
0.0797823
0.150044
-0.0591629
0.104139
-0.00547348
0.103413
-0.00351031
0.102614
-0.0022101
0.101874
-0.00197416
0.101453
-0.00240234
0.101751
-0.00474131
0.102823
-0.00650305
0.104864
-0.0087412
0.107646
-0.00864564
0.110156
-0.00201044
0.110857
0.00846565
0.109143
0.0301343
0.105535
0.042833
0.100905
0.0598383
0.095784
0.0689459
0.0901426
0.0766658
0.086171
0.069953
0.082052
0.0722822
0.0757019
0.102723
0.0723858
0.0785029
0.0700576
-0.0240988
0.0689822
-0.206128
0.0770203
-0.194807
0.0896598
-0.105266
0.0984476
-0.0248194
0.0980491
0.0909061
0.0953539
0.106357
0.087568
0.229959
0.0773075
0.160305
-0.0548918
0.100033
-0.0048526
0.0991021
-0.00257901
0.0980793
-0.00118739
0.0970984
-0.000993158
0.0964824
-0.0017864
0.0967191
-0.00497796
0.0978679
-0.00765194
0.100181
-0.0110539
0.103518
-0.0119831
0.106615
-0.00510757
0.107537
0.00754401
0.105728
0.0319427
0.101811
0.04675
0.0969509
0.0646988
0.0916401
0.0742567
0.0859618
0.0823441
0.082049
0.0738659
0.0778172
0.0765139
0.0722821
0.108258
0.0702954
0.0804895
0.068052
-0.0218553
0.0652441
-0.203321
0.0710288
-0.200592
0.0829508
-0.117188
0.0923108
-0.0341793
0.0928198
0.0903971
0.0908195
0.108357
0.0841122
0.236667
0.0747827
0.169634
-0.0506323
0.0961139
-0.00404196
0.0949632
-0.00142828
0.0936883
8.74574e-05
0.0924235
0.000271675
0.0915717
-0.00093458
0.0917048
-0.00511104
0.0928804
-0.0088276
0.095429
-0.0136024
0.099337
-0.0158911
0.103102
-0.0088728
0.104316
0.00632977
0.102424
0.0338352
0.0982179
0.0509561
0.093121
0.0697957
0.0876243
0.0797535
0.0819604
0.088008
0.0780514
0.0777749
0.073712
0.0808534
0.0689163
0.113054
0.0679568
0.081449
0.0658284
-0.0197269
0.06188
-0.199372
0.0657881
-0.2045
0.0768129
-0.128213
0.0864878
-0.0438542
0.0877702
0.0891146
0.0864031
0.109724
0.080674
0.242396
0.0722138
0.178094
-0.0464547
0.0923539
-0.00302114
0.0909642
-3.86257e-05
0.0894038
0.00164787
0.0877994
0.00187606
0.086658
0.000206786
0.0866154
-0.00506842
0.0877313
-0.00994345
0.0904223
-0.0162934
0.0948566
-0.0203254
0.099381
-0.0133972
0.101031
0.00467954
0.0991407
0.0357257
0.0947129
0.0553838
0.0893931
0.0751155
0.0837319
0.0854147
0.078122
0.0936178
0.0741791
0.0817178
0.0697512
0.0852813
0.0655983
0.117206
0.0654289
0.0816184
0.0634535
-0.0177515
0.0588269
-0.194746
0.0612206
-0.206894
0.0712523
-0.138245
0.0810128
-0.0536147
0.0829284
0.0871991
0.0821234
0.110529
0.0772707
0.247248
0.0696136
0.185751
-0.0424112
0.0886912
-0.00176448
0.0870433
0.00160925
0.0851442
0.00354701
0.083139
0.00388124
0.0816383
0.00170752
0.0813075
-0.00473762
0.0822237
-0.0108597
0.0848867
-0.0189564
0.0897242
-0.0251629
0.0951009
-0.0187739
0.0974307
0.00234972
0.0957456
0.0374109
0.0912345
0.0598949
0.0857413
0.0806087
0.0799564
0.0911996
0.074432
0.0991422
0.0704361
0.0857138
0.0659439
0.0897734
0.0623363
0.120814
0.0627789
0.0811758
0.0609942
-0.0159668
0.0560374
-0.189789
0.0572372
-0.208093
0.0662479
-0.147255
0.0759003
-0.0632671
0.0783133
0.0847861
0.0779949
0.110848
0.0739199
0.251323
0.0669983
0.192673
-0.038539
0.0850197
-0.000236598
0.0830863
0.00354261
0.0807853
0.00584808
0.0783143
0.00635217
0.0763707
0.00365118
0.0755919
-0.00395884
0.076105
-0.0113728
0.078505
-0.0213564
0.0835602
-0.0302181
0.0898767
-0.0250904
0.0932194
-0.00099302
0.0920734
0.038557
0.0877028
0.0642655
0.082135
0.0861765
0.076289
0.0970457
0.0708789
0.104552
0.0668272
0.0897655
0.0622956
0.094305
0.0591429
0.123967
0.0600692
0.0802495
0.0585048
-0.0144024
0.0534662
-0.18475
0.0537473
-0.208374
0.0617582
-0.155266
0.0711499
-0.0726588
0.0739351
0.0820009
0.0740284
0.110755
0.0706378
0.254714
0.0643848
0.198926
-0.0348637
0.0811828
0.00158827
0.0789253
0.00580006
0.0761629
0.00861053
0.0731686
0.00934638
0.070685
0.00613484
0.0692622
-0.0025361
0.0691229
-0.0112334
0.0710346
-0.0232681
0.0761534
-0.035337
0.0834699
-0.0324068
0.0881635
-0.00568669
0.0879693
0.0387512
0.0840342
0.0682006
0.0785418
0.0916689
0.0727189
0.102869
0.0674533
0.109818
0.0633558
0.093863
0.0588082
0.0988526
0.0560337
0.126741
0.0573499
0.0789333
0.0560241
-0.0130766
0.0510741
-0.1798
0.0506679
-0.207968
0.0577317
-0.16233
0.0667495
-0.0816766
0.0697972
0.0789532
0.0702307
0.110321
0.0674383
0.257507
0.0617895
0.204575
-0.031401
0.0769582
0.00370969
0.0743529
0.00840536
0.0710901
0.0118733
0.0675363
0.0129002
0.0644119
0.00925924
0.0621479
-0.000272114
0.0611411
-0.0102266
0.0624836
-0.0246106
0.0676599
-0.0405133
0.0759869
-0.0407338
0.0822314
-0.0119312
0.083356
0.0376266
0.0801659
0.0713907
0.0749333
0.0969016
0.0692357
0.108566
0.0641481
0.114905
0.060023
0.0979882
0.0554815
0.103394
0.0530227
0.1292
0.054658
0.077298
0.0535785
-0.011997
0.0488354
-0.175057
0.0479306
-0.207063
0.0541132
-0.168513
0.0626804
-0.0902438
0.0658974
0.0757362
0.0666056
0.109613
0.0643329
0.259779
0.0592273
0.20968
-0.0281589
0.072097
0.00612342
0.0691409
0.0113614
0.0653888
0.0156254
0.0612764
0.0170125
0.0574299
0.0131057
0.0542015
0.00295633
0.0522741
-0.00829921
0.0532241
-0.0255606
0.0586295
-0.0459187
0.0678899
-0.0499942
0.0756514
-0.0196927
0.07828
0.034998
0.0760818
0.0735888
0.071294
0.101689
0.0658306
0.11403
0.0609579
0.119778
0.0568282
0.102118
0.0523148
0.107907
0.0501212
0.131394
0.0520176
0.0754015
0.051185
-0.0111645
0.0467354
-0.170607
0.0454822
-0.20581
0.0508505
-0.173881
0.0589196
-0.0983129
0.0622294
0.0724264
0.0631537
0.108689
0.0613305
0.261602
0.056711
0.2143
-0.0251393
0.066372
0.00879855
0.0630886
0.0146448
0.0589288
0.0197853
0.0543182
0.0216231
0.0497376
0.0176863
0.0455884
0.00710555
0.0429415
-0.00565229
0.0438898
-0.0265089
0.0497449
-0.0517738
0.059754
-0.0600033
0.0687976
-0.0287363
0.0728942
0.0309014
0.0718202
0.0746628
0.0676294
0.10588
0.062502
0.119157
0.0578801
0.1244
0.0537702