/*--------------------------------*- C++ -*----------------------------------*\
  =========                 |
  \\      /  F ield         | OpenFOAM: The Open Source CFD Toolbox
   \\    /   O peration     | Website:  https://openfoam.org
    \\  /    A nd           | Version:  7
     \\/     M anipulation  |
\*---------------------------------------------------------------------------*/
FoamFile
{
    version     2.0;
    format      ascii;
    class       volVectorField;
    location    "5";
    object      U;
}
// * * * * * * * * * * * * * * * * * * * * * * * * * * * * * * * * * * * * * //

dimensions      [0 1 -1 0 0 0 0];

internalField   nonuniform List<vector> 
2125
(
(-0.00514718 0.00415147 8.97543e-22)
(-0.0258013 0.00877235 -2.60932e-21)
(-0.0623436 0.0112859 -3.06548e-21)
(-0.104565 0.012554 3.07745e-21)
(-0.149812 0.0131153 -2.86751e-21)
(-0.196527 0.0133353 -1.56233e-21)
(-0.243976 0.0134179 2.74256e-21)
(-0.291861 0.0134477 3.49316e-21)
(-0.339404 0.0134184 -6.02007e-22)
(-0.387533 0.013359 1.82165e-21)
(-0.00554483 0.0122627 -9.93769e-22)
(-0.0261148 0.02599 3.10034e-21)
(-0.0618205 0.0335137 -7.35553e-21)
(-0.102933 0.0373375 6.72755e-21)
(-0.146875 0.0390412 2.92004e-22)
(-0.192075 0.0397057 5.10275e-21)
(-0.237733 0.0399405 -9.09962e-21)
(-0.283482 0.0400043 -1.3747e-20)
(-0.3284 0.0398867 -2.80249e-21)
(-0.373156 0.0396545 6.55475e-21)
(-0.00630394 0.0198131 9.29188e-22)
(-0.0267153 0.0422448 6.8523e-21)
(-0.060801 0.0547227 1.62036e-20)
(-0.0997513 0.0611562 -1.4837e-20)
(-0.141142 0.0640594 -3.43149e-21)
(-0.183379 0.0651832 -3.17288e-21)
(-0.225542 0.0655336 1.64234e-20)
(-0.267142 0.0655574 1.04808e-20)
(-0.307001 0.065268 2.69497e-21)
(-0.345228 0.0647078 -2.03315e-20)
(-0.00735613 0.0264759 3.29704e-21)
(-0.0275524 0.0569541 -4.00307e-21)
(-0.0593365 0.0742768 -3.03343e-20)
(-0.0951804 0.0833942 2.67878e-21)
(-0.132885 0.0875856 8.49422e-21)
(-0.170843 0.0891958 -6.7767e-21)
(-0.207975 0.08961 -3.57394e-22)
(-0.243634 0.08948 -2.91578e-21)
(-0.276363 0.0888943 6.77537e-21)
(-0.305297 0.0877695 2.04644e-20)
(-0.00860843 0.0319897 2.30835e-21)
(-0.0285562 0.0696216 -1.30631e-20)
(-0.0575002 0.0916037 3.14673e-20)
(-0.0894499 0.103476 -1.44488e-20)
(-0.122495 0.109065 -4.85666e-23)
(-0.15504 0.111203 2.05992e-20)
(-0.185834 0.111625 -9.65866e-21)
(-0.214059 0.111201 1.25437e-21)
(-0.238073 0.110171 -4.09876e-21)
(-0.255461 0.108193 1.48909e-21)
(-0.00995355 0.036177 2.77316e-20)
(-0.0296442 0.0798645 3.36732e-20)
(-0.0553829 0.106219 -8.61099e-21)
(-0.0828447 0.120885 1.66014e-20)
(-0.110457 0.127984 5.3093e-21)
(-0.136678 0.130704 -7.61564e-21)
(-0.160103 0.131084 -2.9458e-21)
(-0.179734 0.130216 -1.37027e-20)
(-0.194019 0.128584 2.95703e-21)
(-0.198176 0.125464 -1.91593e-20)
(-0.0112819 0.0389538 -2.67518e-20)
(-0.0307296 0.0874354 -1.75897e-20)
(-0.0530877 0.11775 1.44562e-20)
(-0.0756894 0.135178 -2.52073e-20)
(-0.0973264 0.143877 2.99121e-21)
(-0.116563 0.147238 3.05029e-20)
(-0.131893 0.147543 -5.50388e-21)
(-0.142106 0.146084 3.81731e-20)
(-0.146229 0.143694 -5.39945e-22)
(-0.136111 0.13931 -1.64493e-20)
(-0.0124938 0.040331 2.27193e-20)
(-0.031731 0.0922348 -4.09857e-20)
(-0.0507251 0.125952 -1.63546e-20)
(-0.0683294 0.146006 1.92113e-20)
(-0.0836978 0.156343 7.02461e-22)
(-0.0955569 0.160395 -5.72106e-20)
(-0.102384 0.160608 -3.5337e-21)
(-0.102678 0.158448 -2.97507e-20)
(-0.0966376 0.155037 -3.97655e-20)
(-0.0720522 0.149872 2.41837e-20)
(-0.0135096 0.0404065 -1.27097e-20)
(-0.0325822 0.0943154 6.0824e-21)
(-0.0484069 0.130731 1.50799e-20)
(-0.0611094 0.153132 -1.36391e-20)
(-0.0701724 0.165056 -4.82598e-20)
(-0.0745305 0.169816 1.69118e-20)
(-0.0727585 0.16994 2.5656e-21)
(-0.0630312 0.167095 4.4679e-20)
(-0.0468191 0.162084 6.10979e-20)
(-0.00830461 0.156774 -2.83395e-20)
(-0.0142788 0.039357 2.02009e-20)
(-0.0332403 0.0938748 1.83162e-20)
(-0.0462407 0.132143 -2.63786e-21)
(-0.0543491 0.156453 6.78023e-20)
(-0.0573154 0.169789 2.89688e-20)
(-0.0543041 0.175213 2.20877e-20)
(-0.0440711 0.175234 3.2185e-20)
(-0.0246751 0.17166 -1.46233e-20)
(0.00134926 0.164785 -2.04188e-20)
(0.0537141 0.158947 -3.47116e-20)
(-0.0147886 0.037414 -1.79658e-21)
(-0.0336965 0.0912316 -2.88908e-20)
(-0.0443237 0.130397 -2.0827e-20)
(-0.0483156 0.156016 -3.35004e-20)
(-0.045608 0.170442 -2.6879e-20)
(-0.0355985 0.176386 2.7226e-20)
(-0.0173017 0.17623 -2.67393e-20)
(0.0113584 0.171856 -1.91127e-20)
(0.0462178 0.163203 2.49549e-21)
(0.11255 0.15579 9.12351e-21)
(-0.0150613 0.0348384 -5.58051e-20)
(-0.0339743 0.0868003 2.65004e-20)
(-0.0427342 0.125849 1.9313e-20)
(-0.0431959 0.152028 1.28823e-20)
(-0.0353897 0.167071 -2.36697e-20)
(-0.0189259 0.173279 -2.04315e-20)
(0.00687144 0.172827 2.99625e-20)
(0.0442952 0.167699 -2.48586e-20)
(0.0870398 0.15708 -1.07942e-21)
(0.167623 0.14731 -2.75891e-20)
(-0.0151527 0.0319009 4.6728e-20)
(-0.0341275 0.0810544 1.88435e-20)
(-0.0415185 0.118971 1.11596e-21)
(-0.0390626 0.144862 -2.35238e-20)
(-0.0267919 0.159915 1.78969e-21)
(-0.00447973 0.166023 2.64126e-20)
(0.0282486 0.1651 -7.66166e-21)
(0.0739952 0.159331 -9.48377e-21)
(0.124106 0.146512 -2.26141e-20)
(0.220166 0.133945 4.18347e-20)
(-0.0151437 0.0288576 3.14812e-20)
(-0.0342279 0.0744839 -5.08679e-20)
(-0.0406736 0.110315 -3.90834e-20)
(-0.0358392 0.135035 1.68833e-20)
(-0.0196691 0.149411 3.45682e-20)
(0.00798463 0.154976 2.93489e-20)
(0.0472982 0.153372 -3.18004e-20)
(0.101267 0.147143 6.32678e-20)
(0.159166 0.131961 -1.90519e-20)
(0.27351 0.117032 -4.91892e-20)
(-0.015129 0.0259302 -4.73759e-20)
(-0.0343462 0.0675535 2.84001e-20)
(-0.0401253 0.100473 -1.34431e-20)
(-0.0332661 0.12318 1.40109e-21)
(-0.0135369 0.136188 1.43046e-20)
(0.019258 0.140752 -4.64045e-20)
(0.0653216 0.138285 4.19194e-20)
(0.128067 0.131862 -4.1194e-20)
(0.195792 0.11426 6.87117e-20)
(0.332463 0.0989354 2.57894e-20)
(-0.0152004 0.0232892 9.92463e-21)
(-0.0345262 0.0606661 5.48295e-20)
(-0.0397037 0.0900274 -1.36776e-20)
(-0.0308737 0.110002 1.38745e-20)
(-0.0075335 0.121034 1.59681e-20)
(0.0307354 0.12421 -4.70538e-21)
(0.0845106 0.120817 3.52017e-20)
(0.157472 0.11453 1.49048e-21)
(0.239218 0.0947696 -4.43873e-20)
(0.401461 0.0825468 6.06824e-20)
(-0.0154307 0.0210435 -2.6683e-20)
(-0.0347588 0.0541325 -5.1852e-20)
(-0.0391232 0.0795035 4.48721e-20)
(-0.0279746 0.0962193 2.23526e-20)
(-0.000427596 0.104833 -1.03956e-19)
(0.044375 0.106398 8.48156e-20)
(0.1078 0.102239 -7.75341e-20)
(0.193331 0.0964012 8.70444e-22)
(0.295342 0.0756378 -1.85004e-20)
(0.481979 0.070491 -5.65925e-20)
(-0.0158575 0.0192342 2.29017e-20)
(-0.0349599 0.0481525 -3.03217e-21)
(-0.0379755 0.0693306 -1.10271e-20)
(-0.0236858 0.082499 -1.35815e-21)
(0.00930626 0.0884903 -6.31634e-21)
(0.0625215 0.0884574 -2.71858e-20)
(0.138468 0.0839834 1.19116e-20)
(0.239653 0.0787735 -1.85733e-20)
(0.368852 0.0598299 5.4802e-21)
(0.570798 0.064425 1.51307e-21)
(-0.0164714 0.0178368 -4.67101e-20)
(-0.0349595 0.0428075 -3.26743e-21)
(-0.0357428 0.0598114 5.03551e-21)
(-0.01699 0.0693995 2.02992e-21)
(0.0233385 0.0728298 3.38921e-20)
(0.0875998 0.0714852 -9.86003e-20)
(0.179534 0.0674266 6.7048e-20)
(0.299859 0.0629156 -5.05237e-20)
(0.461088 0.0504711 4.44339e-20)
(0.661349 0.0639787 5.08616e-20)
(-0.0172086 0.0167689 -5.58812e-21)
(-0.0345063 0.0380698 2.59315e-20)
(-0.0318312 0.0511078 -3.23682e-20)
(-0.00682742 0.0573255 -1.01033e-20)
(0.0432855 0.0585199 1.94284e-20)
(0.121737 0.0564125 9.36141e-20)
(0.233106 0.0536787 -1.89851e-20)
(0.375879 0.0502344 9.25642e-21)
(0.568402 0.0492271 -5.07689e-20)
(0.74902 0.0642578 2.36505e-20)
(-0.0179541 0.0159098 -1.69079e-20)
(-0.0332811 0.033823 -1.31228e-20)
(-0.0256181 0.0432458 3.25096e-21)
(0.00780291 0.0465112 1.27374e-20)
(0.0705168 0.046029 -3.75784e-20)
(0.166438 0.0439366 -1.5206e-20)
(0.299967 0.043487 -4.80198e-20)
(0.467083 0.0424069 5.03775e-20)
(0.68169 0.0540109 5.44597e-20)
(0.83532 0.0567546 -2.39626e-20)
(-0.0185635 0.0151305 -8.02207e-21)
(-0.0309152 0.0298864 3.2912e-20)
(-0.0164953 0.0361412 -3.66726e-20)
(0.0277616 0.0370392 -4.25893e-21)
(0.106022 0.0356351 -1.72364e-20)
(0.222404 0.0345264 3.75893e-20)
(0.379555 0.0373147 4.87549e-20)
(0.56985 0.0406598 -4.71866e-20)
(0.789866 0.0586204 5.11541e-20)
(0.955135 0.0525859 7.14894e-21)
(-0.0188799 0.014299 -2.33194e-20)
(-0.0270257 0.0260512 -6.642e-20)
(-0.00390054 0.0296506 6.47936e-20)
(0.0537249 0.0288928 9.3179e-21)
(0.150357 0.0274821 1.35782e-20)
(0.289469 0.0284753 8.26709e-21)
(0.470006 0.0354394 3.73103e-20)
(0.678208 0.0444562 2.77379e-20)
(0.8955 0.0650963 -9.96754e-20)
(1.06057 0.0627219 -4.99984e-20)
(-0.0212388 0.0221338 1.60958e-20)
(0.0126628 0.0236287 -3.66496e-20)
(0.0861774 0.0220285 7.10937e-21)
(0.203659 0.0216662 1.13783e-20)
(0.366653 0.0259764 -8.20505e-20)
(0.568225 0.0379386 3.63978e-20)
(0.786524 0.0526307 -2.49306e-20)
(0.993755 0.0749375 2.63335e-20)
(1.14389 0.0752665 -9.38048e-21)
(0.0336239 0.0179833 -1.79826e-21)
(0.125425 0.016451 -1.00133e-20)
(0.265659 0.0183171 3.53299e-22)
(0.452234 0.0271586 7.84452e-22)
(0.670257 0.044595 -5.53917e-20)
(0.88991 0.0641253 6.98044e-21)
(1.08008 0.0869188 7.05433e-20)
(1.21096 0.0885799 3.27638e-20)
(0.0593489 0.0127202 6.24547e-20)
(0.171601 0.0122722 1.59976e-21)
(0.335691 0.0176425 -2.6218e-20)
(0.543833 0.0320642 7.04575e-20)
(0.771898 0.054911 1.56209e-20)
(0.984481 0.0779498 1.06705e-21)
(1.15302 0.100092 -3.07752e-20)
(1.2614 0.101964 -4.10131e-20)
(0.22465 0.009737 -2.59645e-20)
(0.412651 0.0199112 4.26055e-20)
(0.638576 0.040594 -2.08219e-20)
(0.86929 0.0682086 -2.36153e-20)
(1.06783 0.0932554 -5.504e-21)
(1.21224 0.113764 -1.77039e-20)
(1.29839 0.114844 1.99009e-20)
(0.494981 0.0253802 2.318e-20)
(0.733373 0.0524726 -7.75932e-20)
(0.959389 0.0837627 5.00539e-20)
(1.13891 0.10937 -2.2921e-20)
(1.25874 0.127466 3.52237e-20)
(1.32424 0.127199 9.92127e-21)
(1.04017 0.100903 -1.26936e-20)
(1.19773 0.125807 1.09634e-20)
(1.29398 0.140948 -2.6783e-20)
(1.34139 0.139009 -2.76836e-20)
(1.24506 0.142245 -3.44415e-20)
(1.31972 0.154098 6.10998e-22)
(1.35185 0.150396 1.90312e-20)
(1.33765 0.16691 2.62511e-20)
(1.35727 0.161477 -1.15352e-20)
(-0.463557 0.0134052 -1.54081e-22)
(-0.541243 0.00802542 3.69777e-23)
(-0.583726 0.0040087 2.07167e-22)
(-0.600056 -0.00160281 -2.09619e-22)
(-0.557586 -0.0082496 5.02262e-23)
(-0.458493 -0.0152151 8.87255e-23)
(-0.293651 -0.019709 -3.62499e-23)
(-0.102703 -0.0200744 -3.47217e-23)
(0.090539 -0.018017 -3.20307e-24)
(0.263512 -0.0148022 9.14338e-24)
(0.410805 -0.0116633 -4.33811e-24)
(0.531608 -0.00900792 3.39757e-23)
(0.629627 -0.00693473 -2.01474e-23)
(0.709255 -0.00536989 6.11266e-24)
(0.774457 -0.00418747 4.13756e-24)
(0.828092 -0.00326353 2.88588e-24)
(0.871899 -0.00250904 -1.59704e-23)
(0.90692 -0.00187788 -1.92301e-23)
(0.933992 -0.00135611 -5.83681e-26)
(0.954125 -0.000942114 -5.61422e-24)
(0.968523 -0.000632467 1.75494e-24)
(0.978544 -0.000413681 9.83819e-25)
(0.985346 -0.000267988 3.19734e-25)
(0.990014 -0.000172243 9.83574e-25)
(0.993121 -0.000112537 9.40881e-25)
(0.995386 -7.31701e-05 4.14238e-25)
(0.996793 -4.95539e-05 -1.82379e-25)
(0.998024 -3.19537e-05 -7.54666e-25)
(0.998562 -2.35201e-05 -7.89281e-26)
(0.99943 -1.44392e-05 7.95537e-26)
(-0.444452 0.0397176 7.31355e-23)
(-0.519912 0.0238032 -4.99725e-22)
(-0.559512 0.011817 -6.56573e-23)
(-0.574123 -0.00481603 5.32764e-22)
(-0.531397 -0.0246114 -1.20108e-22)
(-0.432757 -0.0453835 -4.87576e-22)
(-0.270173 -0.0588003 1.52079e-22)
(-0.08206 -0.0599619 -1.41809e-22)
(0.107843 -0.0537099 -1.84043e-23)
(0.277603 -0.044145 1.09399e-22)
(0.421986 -0.034775 -2.17307e-22)
(0.540325 -0.0268509 2.07262e-22)
(0.636301 -0.0206668 -2.14399e-24)
(0.71425 -0.0160014 -1.29806e-22)
(0.778082 -0.0124783 1.84169e-23)
(0.830619 -0.00972721 1.80927e-23)
(0.873575 -0.00748154 4.95653e-23)
(0.907968 -0.00560283 -3.56841e-23)
(0.934608 -0.00404897 -1.97647e-23)
(0.954466 -0.00281508 2.42666e-23)
(0.968701 -0.00189135 4.99634e-24)
(0.978632 -0.00123803 -6.83143e-24)
(0.985389 -0.00080253 4.31222e-25)
(0.990035 -0.000516121 3.76677e-24)
(0.993132 -0.000337334 -1.59474e-24)
(0.995392 -0.000219384 -3.79305e-24)
(0.996796 -0.000148596 -3.29886e-26)
(0.998026 -9.58245e-05 1.40764e-24)
(0.998563 -7.05349e-05 -9.03302e-27)
(0.999431 -4.33027e-05 -4.60615e-25)
(-0.407604 0.0645735 3.58306e-21)
(-0.478712 0.0387962 -2.80951e-21)
(-0.512932 0.0190398 1.95029e-21)
(-0.524377 -0.00802963 -1.77317e-21)
(-0.481331 -0.0405402 -4.33845e-22)
(-0.383775 -0.0747648 2.44478e-21)
(-0.225578 -0.0969248 -7.19994e-22)
(-0.0429146 -0.0990044 -9.119e-23)
(0.140651 -0.0884863 8.24407e-23)
(0.304309 -0.0727405 1.7968e-23)
(0.443216 -0.0572718 -4.52696e-23)
(0.556921 -0.0441988 1.91454e-23)
(0.649047 -0.0340043 9.08869e-24)
(0.723822 -0.0263208 -5.09798e-23)
(0.785055 -0.0205259 -1.00092e-23)
(0.835497 -0.0160068 3.7068e-23)
(0.87682 -0.0123212 -1.10937e-22)
(0.910006 -0.00923768 -2.26804e-23)
(0.93581 -0.00668502 1.43375e-23)
(0.955131 -0.00465495 1.52853e-23)
(0.969049 -0.0031324 -7.2938e-24)
(0.978806 -0.00205345 -8.5228e-24)
(0.985474 -0.00133283 1.20673e-23)
(0.990077 -0.000858192 -3.26493e-24)
(0.993154 -0.000561308 4.93556e-24)
(0.995403 -0.000365218 4.44704e-24)
(0.996803 -0.000247444 -3.80728e-25)
(0.99803 -0.000159586 -2.51868e-24)
(0.998566 -0.000117474 2.15644e-25)
(0.999432 -7.21228e-05 3.35708e-25)
(-0.355522 0.0871229 -3.96644e-21)
(-0.420324 0.0525808 1.96041e-21)
(-0.447317 0.0254079 -2.62729e-22)
(-0.454574 -0.0111803 4.02964e-22)
(-0.411378 -0.0556984 -6.93626e-22)
(-0.315725 -0.102835 -1.46427e-21)
(-0.163787 -0.133533 7.92912e-22)
(0.011113 -0.136562 7.4474e-23)
(0.185867 -0.121922 1.24735e-22)
(0.341092 -0.100195 -2.7887e-22)
(0.472512 -0.0788321 1.17859e-22)
(0.579899 -0.0607923 -1.47423e-22)
(0.666774 -0.0467381 1.66502e-22)
(0.737207 -0.0361596 1.47642e-22)
(0.79486 -0.0281961 -2.50155e-23)
(0.842395 -0.0219988 5.04056e-23)
(0.881436 -0.0169518 1.02541e-22)
(0.912921 -0.0127299 2.35742e-23)
(0.937539 -0.00923062 -2.29231e-23)
(0.956095 -0.00644182 6.56326e-24)
(0.969555 -0.00434477 1.78461e-23)
(0.97906 -0.00285446 1.01268e-24)
(0.985599 -0.00185623 -4.43967e-24)
(0.990139 -0.00119732 -5.59467e-25)
(0.993186 -0.000783926 -1.92487e-24)
(0.995421 -0.000510424 -1.37941e-24)
(0.996814 -0.000345966 -4.93316e-25)
(0.998036 -0.000223166 -7.31496e-25)
(0.998571 -0.000164286 -1.14488e-24)
(0.999434 -0.00010087 8.65649e-26)
(-0.291488 0.106681 2.70018e-21)
(-0.348252 0.0648446 3.35221e-21)
(-0.366884 0.0307923 1.97301e-21)
(-0.369367 -0.0141545 -2.18503e-21)
(-0.326297 -0.0697291 -4.59937e-22)
(-0.233387 -0.129107 -1.2321e-21)
(-0.0891749 -0.168229 -1.07903e-21)
(0.075988 -0.172033 2.27524e-23)
(0.239936 -0.153659 6.95754e-23)
(0.384977 -0.126225 -9.87385e-24)
(0.507481 -0.0992342 1.55832e-22)
(0.607411 -0.0764555 -6.51502e-23)
(0.688106 -0.0587249 -3.13167e-22)
(0.753417 -0.0453992 1.64301e-22)
(0.806821 -0.0353913 -1.41699e-22)
(0.850875 -0.027625 -1.84589e-23)
(0.887154 -0.0213139 -2.18652e-22)
(0.91656 -0.0160371 3.06242e-23)
(0.939715 -0.0116579 4.57781e-23)
(0.957317 -0.00815882 8.34579e-24)
(0.970203 -0.00551903 2.72979e-23)
(0.979389 -0.00363618 2.75958e-23)
(0.985762 -0.00237034 2.03097e-25)
(0.990221 -0.00153245 -8.88041e-24)
(0.993229 -0.00100468 -4.38855e-25)
(0.995445 -0.000654754 -1.44191e-24)
(0.996828 -0.000444027 2.27254e-24)
(0.998045 -0.000286485 3.43503e-24)
(0.998576 -0.000210918 1.9675e-24)
(0.999437 -0.000129514 -8.24437e-25)
(-0.219138 0.122763 1.75168e-21)
(-0.26639 0.0753752 4.54496e-21)
(-0.27615 0.0351654 1.76342e-21)
(-0.273605 -0.0168268 -6.72249e-21)
(-0.23083 -0.0823153 5.73382e-21)
(-0.14127 -0.153267 -2.3696e-21)
(-0.00571244 -0.200426 -8.38635e-23)
(0.148145 -0.205052 1.2585e-22)
(0.299566 -0.183402 4.57818e-22)
(0.433133 -0.15064 -3.19063e-22)
(0.545776 -0.118349 1.85328e-22)
(0.637579 -0.0910949 5.21286e-22)
(0.711602 -0.0698897 1.10344e-23)
(0.771392 -0.053975 -2.32101e-22)
(0.820193 -0.0420544 2.37812e-22)
(0.860441 -0.0328363 -2.35823e-22)
(0.893667 -0.0253676 2.28668e-22)
(0.920745 -0.0191293 -1.00725e-22)
(0.942241 -0.0139462 -5.99026e-24)
(0.95875 -0.00979289 -5.37927e-23)
(0.970972 -0.00664762 -2.09065e-23)
(0.979784 -0.00439454 -1.41802e-23)
(0.985961 -0.00287308 -1.41277e-24)
(0.990322 -0.00186272 -8.98779e-24)
(0.993282 -0.00122309 -3.10085e-24)
(0.995475 -0.000797964 1.86141e-24)
(0.996847 -0.000541493 -6.50955e-24)
(0.998056 -0.000349466 3.15198e-24)
(0.998584 -0.000257313 -2.9648e-24)
(0.999441 -0.000158024 1.31508e-24)
(-0.142082 0.135023 -3.78295e-21)
(-0.178648 0.0840422 6.17262e-22)
(-0.179469 0.03852 8.64961e-22)
(-0.171832 -0.0191073 -8.38733e-22)
(-0.129259 -0.0933162 1.12216e-21)
(-0.0431315 -0.175206 9.32785e-22)
(0.0833181 -0.229273 1.89619e-22)
(0.224639 -0.235502 -4.88854e-22)
(0.362137 -0.210931 -1.34883e-23)
(0.483246 -0.173313 -1.28138e-23)
(0.585412 -0.136116 -7.39153e-23)
(0.668759 -0.104681 -4.53198e-22)
(0.73595 -0.080215 4.29501e-22)
(0.790131 -0.0618709 1.54903e-22)
(0.834251 -0.0481673 -2.9011e-22)
(0.870598 -0.0376129 -1.07791e-22)
(0.900656 -0.0290935 -2.95691e-24)
(0.925287 -0.0219897 -1.21055e-24)
(0.945015 -0.0160825 3.08055e-23)
(0.960342 -0.0113352 8.37891e-23)
(0.971837 -0.00772503 1.63069e-24)
(0.980234 -0.00512642 1.53757e-23)
(0.986191 -0.00336276 6.76643e-24)
(0.990441 -0.0021874 5.06333e-24)
(0.993347 -0.00143874 7.04636e-24)
(0.995512 -0.000939819 1.51004e-24)
(0.996869 -0.000638225 6.1385e-24)
(0.998069 -0.000412025 -3.61738e-24)
(0.998593 -0.000303413 2.71561e-24)
(0.999445 -0.000186366 -1.31545e-24)
(-0.0636827 0.143027 4.01386e-21)
(-0.0886462 0.0908047 7.16877e-22)
(-0.0807312 0.0408754 -1.58867e-22)
(-0.0680103 -0.0210003 -4.50443e-22)
(-0.02522 -0.102876 -8.70596e-22)
(0.0581223 -0.194267 3.94637e-21)
(0.175528 -0.254759 -2.8689e-21)
(0.303195 -0.263179 -4.05952e-22)
(0.425753 -0.236074 2.90873e-22)
(0.533627 -0.194156 1.26748e-22)
(0.624904 -0.152511 -5.07226e-22)
(0.699675 -0.117227 1.53825e-22)
(0.76009 -0.0897242 3.74653e-22)
(0.808793 -0.0691084 -5.15404e-22)
(0.848361 -0.0537436 5.43342e-22)
(0.880897 -0.04196 -1.0992e-22)
(0.907826 -0.0324904 -5.19032e-24)
(0.930004 -0.0246139 -7.56234e-23)
(0.947935 -0.0180617 8.74212e-23)
(0.962042 -0.012781 -9.42483e-23)
(0.972774 -0.00874794 3.89068e-24)
(0.980731 -0.00582965 -6.88304e-23)
(0.98645 -0.00383813 -9.65526e-24)
(0.990578 -0.0025059 2.47773e-23)
(0.993422 -0.0016512 -1.88549e-24)
(0.995555 -0.00108009 3.87924e-24)
(0.996896 -0.000734083 -8.23593e-25)
(0.998085 -0.000474077 2.9398e-24)
(0.998604 -0.000349158 -1.59037e-24)
(0.99945 -0.000214507 1.06121e-24)
(0.0129654 0.147081 -2.95209e-21)
(0.000552014 0.0955303 1.84954e-21)
(0.0168049 0.042277 3.2358e-21)
(0.0345919 -0.0225412 6.38162e-22)
(0.0785012 -0.110804 -5.81135e-21)
(0.160136 -0.210305 5.48264e-22)
(0.268823 -0.277282 4.11436e-22)
(0.382193 -0.287826 -8.51595e-22)
(0.489067 -0.258701 4.30456e-22)
(0.583129 -0.213112 -1.7302e-22)
(0.66326 -0.167538 1.30904e-22)
(0.729454 -0.128768 -3.17934e-22)
(0.783266 -0.0984649 5.81936e-22)
(0.826742 -0.0757329 -2.85818e-22)
(0.86202 -0.0588195 2.17021e-22)
(0.890964 -0.0459023 -3.13794e-22)
(0.914918 -0.0355725 -3.09314e-23)
(0.934734 -0.027008 1.10033e-22)
(0.950905 -0.0198851 -1.57803e-22)
(0.963798 -0.0141299 6.97867e-23)
(0.97376 -0.00971507 -2.78938e-23)
(0.981263 -0.00650309 1.14743e-23)
(0.986733 -0.00429839 3.2338e-23)
(0.990731 -0.00281899 -2.73949e-23)
(0.993508 -0.00186014 3.62579e-24)
(0.995605 -0.00121856 -1.27922e-23)
(0.996927 -0.000828927 6.88827e-24)
(0.998104 -0.000535534 -5.5223e-24)
(0.998617 -0.000394484 2.08998e-24)
(0.999456 -0.000242412 -2.87389e-26)
(0.0857021 0.147989 9.21352e-23)
(0.086391 0.0980213 7.63217e-21)
(0.110671 0.0427816 -9.65166e-21)
(0.133611 -0.0237216 -1.2915e-21)
(0.179706 -0.116904 7.73976e-21)
(0.261081 -0.223885 6.83147e-22)
(0.361633 -0.296762 -2.42826e-21)
(0.460399 -0.30931 3.66066e-22)
(0.551111 -0.27873 6.89831e-22)
(0.631008 -0.230153 2.59746e-23)
(0.699876 -0.181213 -6.95932e-24)
(0.757572 -0.139352 3.46531e-23)
(0.805004 -0.106495 -2.25726e-22)
(0.843562 -0.0818019 2.0113e-22)
(0.874875 -0.0634443 -1.55609e-22)
(0.90052 -0.0494769 1.18479e-22)
(0.921731 -0.0383647 4.75361e-23)
(0.939342 -0.0291867 -1.23133e-22)
(0.953843 -0.02156 2.35323e-22)
(0.965566 -0.0153844 -9.31945e-23)
(0.97477 -0.010627 2.34322e-23)
(0.981819 -0.00714649 4.19071e-23)
(0.987036 -0.00474283 -5.34561e-24)
(0.990898 -0.00312846 7.13622e-24)
(0.993604 -0.00206562 -1.21799e-23)
(0.995661 -0.00135505 6.43661e-24)
(0.996962 -0.000922621 1.81559e-24)
(0.998125 -0.000596305 2.53578e-24)
(0.998632 -0.000439326 8.8511e-25)
(0.999462 -0.000270045 -5.3407e-26)
(0.153442 0.14587 -5.6451e-21)
(0.167085 0.0983163 1.0163e-20)
(0.199248 0.0423898 -2.32766e-21)
(0.227556 -0.0247529 -1.28866e-20)
(0.277126 -0.121598 1.41973e-20)
(0.359778 -0.235169 1.34346e-21)
(0.452776 -0.313098 -6.47637e-21)
(0.536821 -0.327569 -8.76554e-23)
(0.611169 -0.296125 -3.43095e-22)
(0.676792 -0.245278 1.17536e-22)
(0.734431 -0.193566 4.7957e-22)
(0.783775 -0.149029 -4.35796e-22)
(0.825071 -0.113875 6.01062e-23)
(0.859023 -0.0873764 -6.57482e-23)
(0.886712 -0.0676725 -1.75345e-22)
(0.909382 -0.0527278 4.15582e-22)
(0.928119 -0.0408986 -2.27672e-22)
(0.943723 -0.0311701 1.10922e-22)
(0.956683 -0.0230978 -4.77899e-23)
(0.967305 -0.0165503 -6.83568e-23)
(0.975785 -0.011486 1.03833e-23)
(0.982391 -0.00776041 1.66733e-23)
(0.987354 -0.00517174 -6.69766e-23)
(0.991077 -0.00342203 2.12472e-23)
(0.99371 -0.00226703 -2.86418e-24)
(0.995724 -0.00148937 1.06272e-23)
(0.997002 -0.00101503 -1.35659e-23)
(0.998149 -0.000656303 -6.79261e-24)
(0.998648 -0.000483619 -2.21443e-24)
(0.99947 -0.00029737 1.66427e-24)
(0.216066 0.140697 -3.2451e-21)
(0.241866 0.0965432 1.36569e-20)
(0.281771 0.0410295 -3.65491e-21)
(0.315849 -0.0259736 -4.66769e-21)
(0.370378 -0.1253 1.19326e-20)
(0.455542 -0.244271 -8.72851e-21)
(0.541334 -0.326304 -1.8672e-21)
(0.610655 -0.342596 1.46367e-21)
(0.668704 -0.31089 1.89042e-21)
(0.720187 -0.258514 3.10942e-24)
(0.766784 -0.204638 1.34371e-22)
(0.807991 -0.157851 6.1131e-24)
(0.843405 -0.120662 -2.08659e-22)
(0.873048 -0.0925148 2.91486e-22)
(0.897438 -0.0715581 -2.858e-22)
(0.917451 -0.0557002 7.96761e-24)
(0.933993 -0.0432084 -1.07406e-22)
(0.947806 -0.0329816 -1.43448e-23)
(0.959374 -0.0245126 -1.22972e-22)
(0.968985 -0.0176349 1.2055e-22)
(0.976785 -0.0122955 2.82158e-23)
(0.982969 -0.00834611 -3.72429e-23)
(0.987683 -0.00558548 3.65292e-23)
(0.991268 -0.00370049 -1.07173e-23)
(0.993823 -0.00246408 9.60413e-24)
(0.995793 -0.00162135 1.72507e-24)
(0.997046 -0.00110604 1.88291e-24)
(0.998176 -0.000715444 7.07721e-24)
(0.998666 -0.000527301 2.17633e-25)
(0.999478 -0.000324352 -3.04778e-24)
(0.274628 0.132682 -1.34532e-21)
(0.311105 0.0927563 8.07917e-21)
(0.35845 0.0386227 -9.80696e-21)
(0.398797 -0.0276382 1.11374e-20)
(0.459767 -0.128435 4.53662e-21)
(0.54807 -0.25133 -5.33623e-21)
(0.626594 -0.336405 1.26444e-21)
(0.681252 -0.354419 -1.91404e-21)
(0.723319 -0.323075 5.52304e-22)
(0.761034 -0.26992 -3.77796e-22)
(0.796918 -0.21449 1.56771e-22)
(0.830266 -0.165875 -2.15214e-22)
(0.860056 -0.126914 3.12711e-22)
(0.885664 -0.097271 -3.6485e-22)
(0.907048 -0.0751512 3.2523e-22)
(0.924697 -0.0584373 -1.68859e-22)
(0.939311 -0.0453283 1.52597e-22)
(0.951551 -0.0346454 -1.07532e-22)
(0.961883 -0.0258197 5.9597e-23)
(0.970582 -0.0186469 3.88425e-23)
(0.977758 -0.0130596 -2.42324e-23)
(0.983543 -0.00890539 5.7181e-23)
(0.988019 -0.00598443 -7.49343e-23)
(0.991466 -0.00397539 2.43856e-23)
(0.993944 -0.00265822 1.7174e-23)
(0.995867 -0.00175088 3.93818e-24)
(0.997094 -0.00119554 -1.55314e-24)
(0.998205 -0.00077365 -1.8845e-25)
(0.998686 -0.000570311 1.19387e-24)
(0.999487 -0.000350956 2.51466e-24)
(0.331496 0.122268 7.55529e-21)
(0.376365 0.0870921 -4.59884e-21)
(0.430531 0.0351217 3.61553e-21)
(0.477569 -0.0299788 -2.17693e-22)
(0.546119 -0.131358 6.09581e-21)
(0.63729 -0.256412 -4.82552e-21)
(0.707967 -0.343427 -3.18469e-21)
(0.748089 -0.363123 2.31128e-21)
(0.774743 -0.332788 1.47548e-21)
(0.799266 -0.279596 3.46325e-22)
(0.824893 -0.223201 5.96164e-22)
(0.850714 -0.173163 -6.59701e-22)
(0.875146 -0.132685 -2.72104e-22)
(0.896965 -0.101695 1.25591e-22)
(0.915599 -0.0784971 9.32687e-24)
(0.931143 -0.0609788 1.03611e-22)
(0.944071 -0.0472902 -5.48923e-23)
(0.954941 -0.0361849 -7.60137e-23)
(0.96419 -0.0270348 1.57626e-23)
(0.972079 -0.0195954 -1.7432e-23)
(0.97869 -0.0137832 3.37459e-23)
(0.984107 -0.00944041 -1.28104e-23)
(0.988357 -0.00636955 5.62009e-23)
(0.99167 -0.00424377 2.09701e-24)
(0.994071 -0.00285484 -1.33772e-23)
(0.995946 -0.00187807 -1.32736e-23)
(0.997145 -0.00128343 1.33167e-24)
(0.998236 -0.000830848 -4.144e-25)
(0.998707 -0.000612597 -3.4225e-24)
(0.999497 -0.00037715 -5.94619e-25)
(0.390057 0.110255 -7.12211e-21)
(0.440286 0.0798656 9.81852e-21)
(0.500233 0.0305501 -2.19613e-21)
(0.554091 -0.0331468 -4.438e-21)
(0.630563 -0.134261 6.5108e-21)
(0.723182 -0.259505 5.35351e-22)
(0.784923 -0.347395 -1.2503e-21)
(0.810753 -0.368835 2.93293e-21)
(0.822807 -0.340171 -3.01028e-21)
(0.8349 -0.287652 5.9129e-22)
(0.850819 -0.230848 -5.33011e-22)
(0.869485 -0.17977 2.47734e-22)
(0.888827 -0.138022 1.98387e-22)
(0.907083 -0.105831 -2.68532e-22)
(0.923186 -0.0816359 7.66525e-23)
(0.936846 -0.0633598 -2.37786e-22)
(0.948297 -0.0491232 2.56051e-22)
(0.957981 -0.0376223 -7.81801e-23)
(0.966289 -0.0281727 -3.95356e-23)
(0.973467 -0.0204897 -8.45591e-25)
(0.979572 -0.0144713 -2.94978e-23)
(0.984653 -0.0099536 9.37475e-24)
(0.988693 -0.00674187 -2.41723e-23)
(0.991876 -0.00450506 3.7824e-24)
(0.994201 -0.00303994 -1.48935e-23)
(0.996029 -0.00200302 -1.74089e-24)
(0.997198 -0.00136961 -5.96114e-24)
(0.998269 -0.00088697 3.67837e-24)
(0.99873 -0.000654105 3.09267e-24)
(0.999507 -0.000402906 -1.14785e-24)
(0.453911 0.0978255 -2.38783e-22)
(0.506258 0.0715793 -3.88917e-21)
(0.570569 0.0250363 -9.03876e-21)
(0.630808 -0.0371345 4.8247e-21)
(0.714206 -0.137051 3.95864e-21)
(0.805595 -0.260528 -1.84395e-21)
(0.85695 -0.348265 -3.6746e-22)
(0.868935 -0.371585 2.80537e-21)
(0.867448 -0.345238 -2.30962e-21)
(0.868013 -0.294079 1.05299e-22)
(0.874841 -0.237419 3.24198e-22)
(0.886747 -0.185693 3.96127e-22)
(0.901265 -0.142939 -6.97419e-22)
(0.916162 -0.109703 5.73008e-22)
(0.929922 -0.0845978 -2.95252e-22)
(0.941882 -0.0656099 2.86024e-22)
(0.952033 -0.050853 4.0223e-23)
(0.960689 -0.0389777 1.29022e-22)
(0.968184 -0.0292479 -4.64824e-23)
(0.974741 -0.0213389 9.08233e-23)
(0.9804 -0.0151292 -2.40006e-23)
(0.985177 -0.0104478 -3.2528e-23)
(0.989022 -0.00710266 1.99289e-23)
(0.992083 -0.00475966 -1.14508e-23)
(0.994333 -0.0032111 2.5809e-23)
(0.996114 -0.00212707 -1.17777e-23)
(0.997254 -0.00145428 1.03507e-23)
(0.998303 -0.000941994 -4.55347e-24)
(0.998753 -0.000694784 -7.70306e-25)
(0.999517 -0.0004282 -2.50928e-25)
(0.525896 0.0862394 -8.7731e-22)
(0.578034 0.0628021 -4.84973e-21)
(0.645022 0.0188917 1.7112e-20)
(0.710245 -0.0417765 -1.6064e-20)
(0.797736 -0.139407 1.09918e-20)
(0.884085 -0.259296 -7.58742e-21)
(0.923565 -0.345878 3.54495e-21)
(0.922442 -0.371291 2.83618e-22)
(0.908684 -0.347937 -6.26119e-23)
(0.898719 -0.298847 8.75549e-22)
(0.897107 -0.242908 4.38195e-22)
(0.902659 -0.190943 2.50514e-22)
(0.912615 -0.147448 -5.24115e-22)
(0.924344 -0.113322 5.09545e-22)
(0.935922 -0.0873968 -6.83111e-22)
(0.946335 -0.0677465 -1.39993e-22)
(0.955333 -0.0524971 3.71221e-22)
(0.963093 -0.0402662 -5.15062e-23)
(0.969884 -0.0302719 -1.14667e-22)
(0.975902 -0.0221509 -2.57218e-23)
(0.981168 -0.0157617 1.10216e-22)
(0.985674 -0.0109254 -2.33267e-23)
(0.98934 -0.00745319 -1.57445e-23)
(0.992287 -0.0050081 5.87815e-24)
(0.994465 -0.00338277 -1.15657e-23)
(0.996199 -0.00224767 1.22933e-23)
(0.997311 -0.00153793 1.64741e-24)
(0.998338 -0.000996018 -5.78189e-24)
(0.998778 -0.000734625 -4.0984e-25)
(0.999528 -0.000453011 5.07347e-25)
(0.608027 0.076465 7.77949e-22)
(0.659666 0.0539837 -1.38376e-21)
(0.727076 0.0125677 -8.62025e-21)
(0.794313 -0.0466289 8.63185e-21)
(0.88102 -0.140897 -1.34926e-20)
(0.957846 -0.255832 9.20642e-22)
(0.984326 -0.340774 9.65415e-21)
(0.971188 -0.368887 -4.64916e-21)
(0.946589 -0.349261 1.12241e-21)
(0.927145 -0.302767 2.40887e-22)
(0.917762 -0.247878 2.80088e-22)
(0.917371 -0.195868 1.81061e-22)
(0.923024 -0.151745 -8.90246e-23)
(0.931761 -0.11677 -1.78491e-22)
(0.941297 -0.0900621 -2.28628e-22)
(0.950289 -0.0697803 -5.92277e-23)
(0.958254 -0.0540609 3.10092e-22)
(0.965225 -0.0414916 -1.86101e-22)
(0.971405 -0.0312474 3.00276e-24)
(0.976954 -0.0229272 5.22528e-23)
(0.981875 -0.0163692 -2.35777e-23)
(0.986139 -0.0113865 1.89877e-23)
(0.989644 -0.00779303 -1.12706e-23)
(0.992484 -0.0052499 1.09597e-23)
(0.994595 -0.0035522 -1.28322e-23)
(0.996283 -0.0023618 -5.57808e-24)
(0.997368 -0.00162006 2.77194e-24)
(0.998372 -0.0010491 1.18814e-24)
(0.998802 -0.000773746 2.18877e-24)
(0.999539 -0.000477316 1.80255e-25)
(0.703984 0.0679314 -3.67832e-21)
(0.755767 0.0458963 1.00491e-20)
(0.819459 0.0058672 -4.94589e-21)
(0.883438 -0.0499763 -6.81345e-21)
(0.962694 -0.140328 2.85164e-21)
(1.02562 -0.250463 -5.86518e-21)
(1.03878 -0.33471 7.25435e-21)
(1.01517 -0.366642 6.65862e-22)
(0.981335 -0.351277 -2.33318e-21)
(0.953506 -0.307395 9.04876e-22)
(0.937014 -0.253371 -1.32712e-24)
(0.931069 -0.201112 3.51422e-22)
(0.932657 -0.156217 -3.17285e-22)
(0.938552 -0.12028 8.39913e-23)
(0.946155 -0.0927198 2.15096e-22)
(0.953827 -0.0717741 -4.4496e-22)
(0.96085 -0.0555742 4.62658e-22)
(0.967121 -0.0426675 -1.75028e-22)
(0.972764 -0.0321802 1.1947e-22)
(0.977903 -0.0236698 -8.75566e-23)
(0.982521 -0.0169518 -5.77565e-24)
(0.98657 -0.0118301 2.23061e-23)
(0.989929 -0.00812093 -9.42921e-24)
(0.992672 -0.00548382 -1.93194e-24)
(0.99472 -0.00371689 8.88061e-25)
(0.996365 -0.00247201 5.99405e-24)
(0.997423 -0.00169803 -1.34035e-24)
(0.998407 -0.00110056 3.58394e-25)
(0.998826 -0.000812241 -9.24123e-25)
(0.999549 -0.000501078 -4.40106e-25)
(0.8259 0.0561161 -1.26766e-20)
(0.871051 0.0395474 2.41429e-21)
(0.922767 0.00382775 -5.21887e-21)
(0.975857 -0.0497068 1.66915e-20)
(1.03992 -0.135479 -7.84801e-21)
(1.08571 -0.240451 6.79123e-21)
(1.08652 -0.323964 1.38645e-21)
(1.05453 -0.359766 -6.49879e-21)