/*--------------------------------*- C++ -*----------------------------------*\
  =========                 |
  \\      /  F ield         | OpenFOAM: The Open Source CFD Toolbox
   \\    /   O peration     | Website:  https://openfoam.org
    \\  /    A nd           | Version:  7
     \\/     M anipulation  |
\*---------------------------------------------------------------------------*/
FoamFile
{
    version     2.0;
    format      ascii;
    class       volVectorField;
    location    "185";
    object      U;
}
// * * * * * * * * * * * * * * * * * * * * * * * * * * * * * * * * * * * * * //

dimensions      [0 1 -1 0 0 0 0];

internalField   nonuniform List<vector> 
2125
(
(0.0188682 0.0144246 1.69958e-21)
(0.0850886 0.0283472 -4.67496e-21)
(0.185723 0.0322753 -5.29823e-21)
(0.0188722 -0.0134152 -1.69633e-21)
(0.0850711 -0.0226962 4.66566e-21)
(0.185708 -0.023001 5.28782e-21)
(0.28082 -0.0202598 -5.05958e-21)
(0.366513 -0.0170212 4.45204e-21)
(0.442876 -0.0140083 2.22813e-21)
(0.510746 -0.0113084 -3.55601e-21)
(0.57114 -0.00890343 -4.12959e-21)
(0.624858 -0.00675321 6.08235e-22)
(0.672605 -0.00482635 -1.71742e-21)
(0.0210006 -0.0411646 1.86008e-21)
(0.0888203 -0.073598 -5.55811e-21)
(0.189702 -0.0781371 1.24331e-20)
(0.284529 -0.0717871 -1.09106e-20)
(0.369808 -0.0629628 -5.18281e-22)
(0.445776 -0.0545827 -7.25247e-21)
(0.513296 -0.0471402 1.17767e-20)
(0.573392 -0.0405705 1.60027e-20)
(0.626871 -0.0347305 2.85453e-21)
(0.674327 -0.0295149 -6.14564e-21)
(0.0252321 -0.0685799 -1.59117e-21)
(0.0963065 -0.123989 -1.17293e-20)
(0.197679 -0.132784 -2.72773e-20)
(0.291928 -0.122892 2.35894e-20)
(0.376365 -0.108542 4.8517e-21)
(0.451528 -0.094844 4.2969e-21)
(0.518339 -0.0827006 -2.11486e-20)
(0.577836 -0.0720013 -1.24759e-20)
(0.630824 -0.0625027 -2.78128e-21)
(0.6777 -0.0540476 1.89748e-20)
(0.0315204 -0.0954202 -5.60703e-21)
(0.107465 -0.173504 7.06428e-21)
(0.20958 -0.186597 4.9374e-20)
(0.302969 -0.173278 -4.4398e-21)
(0.386142 -0.153509 -1.26678e-20)
(0.460099 -0.134577 9.07122e-21)
(0.525847 -0.117803 6.49912e-22)
(0.584443 -0.103033 3.18812e-21)
(0.636696 -0.0899218 -6.99177e-21)
(0.682711 -0.0782809 -1.84553e-20)
(0.0397944 -0.121451 -3.78096e-21)
(0.122197 -0.221785 2.05573e-20)
(0.225317 -0.239234 -4.96356e-20)
(0.317579 -0.222655 2.14673e-20)
(0.399079 -0.197615 2.08364e-22)
(0.471435 -0.173569 -2.71789e-20)
(0.535774 -0.152266 1.20142e-20)
(0.593176 -0.133507 -1.12512e-21)
(0.644451 -0.11685 4.55444e-21)
(0.689339 -0.1021 -1.3353e-21)
(0.0499595 -0.146443 -4.32374e-20)
(0.14037 -0.268483 -5.16826e-20)
(0.24477 -0.290365 1.35612e-20)
(0.335659 -0.270739 -2.45895e-20)
(0.415094 -0.240621 -6.92044e-21)
(0.485468 -0.211615 1.03652e-20)
(0.54806 -0.18591 3.83732e-21)
(0.603979 -0.16327 1.41814e-20)
(0.654041 -0.143152 -3.05137e-21)
(0.697553 -0.125392 1.64633e-20)
(0.0618974 -0.170182 4.13412e-20)
(0.161819 -0.31326 2.65553e-20)
(0.267791 -0.339668 -2.00384e-20)
(0.357087 -0.317256 3.36823e-20)
(0.434085 -0.282294 -2.83034e-21)
(0.502109 -0.248513 -3.63324e-20)
(0.56263 -0.218563 6.36342e-21)
(0.616786 -0.192172 -3.85451e-20)
(0.665408 -0.168697 1.52692e-21)
(0.707311 -0.148041 1.39382e-20)
(0.0754679 -0.192461 -3.05577e-20)
(0.186346 -0.355795 5.47197e-20)
(0.294201 -0.386833 2.14295e-20)
(0.381716 -0.361939 -2.65998e-20)
(0.45593 -0.322408 2.90203e-22)
(0.521257 -0.284073 6.68726e-20)
(0.579395 -0.25006 2.98997e-21)
(0.631519 -0.220071 2.95536e-20)
(0.678482 -0.193359 3.59377e-20)
(0.718567 -0.169935 -2.01153e-20)
(0.09051 -0.21309 1.71258e-20)
(0.213722 -0.395782 -8.208e-21)
(0.323795 -0.431567 -1.94128e-20)
(0.409376 -0.404538 1.44556e-20)
(0.48049 -0.360752 5.59012e-20)
(0.542791 -0.318111 -1.97017e-20)
(0.598253 -0.280243 -3.25586e-21)
(0.648089 -0.24683 -4.25469e-20)
(0.693185 -0.217018 -5.2505e-20)
(0.731265 -0.190963 2.29669e-20)
(0.106843 -0.231895 -2.2537e-20)
(0.24369 -0.432937 -1.97633e-20)
(0.356339 -0.473592 3.35216e-21)
(0.439876 -0.444813 -7.64597e-20)
(0.507606 -0.397124 -3.24411e-20)
(0.566577 -0.350456 -2.37087e-20)
(0.619088 -0.308965 -3.10384e-20)
(0.666394 -0.272323 1.4457e-20)
(0.70943 -0.239564 1.71786e-20)
(0.745345 -0.211022 2.55557e-20)
(0.124268 -0.24872 4.78611e-21)
(0.275965 -0.466997 2.82479e-20)
(0.391576 -0.512649 2.07494e-20)
(0.473005 -0.482543 3.53327e-20)
(0.537103 -0.431337 2.77899e-20)
(0.592468 -0.380948 -2.64622e-20)
(0.641774 -0.336088 2.46714e-20)
(0.686325 -0.296434 1.69997e-20)
(0.727121 -0.260893 -1.97895e-21)
(0.760739 -0.230014 -7.73061e-21)
(0.142571 -0.263429 4.98298e-20)
(0.310236 -0.497724 -2.46667e-20)
(0.429223 -0.548501 -1.90213e-20)
(0.50853 -0.517523 -1.10687e-20)
(0.568792 -0.463218 2.06105e-20)
(0.620303 -0.40944 1.87509e-20)
(0.666174 -0.361487 -2.61842e-20)
(0.707762 -0.319055 2.00788e-20)
(0.746156 -0.280914 9.15247e-22)
(0.777377 -0.247845 1.85786e-20)
(0.161523 -0.27591 -3.43774e-20)
(0.346166 -0.524906 -1.29015e-20)
(0.468973 -0.580933 -1.93328e-21)
(0.546202 -0.549567 2.0297e-20)
(0.602467 -0.492614 -3.91788e-21)
(0.649909 -0.435801 -2.00884e-20)
(0.692138 -0.385048 5.6248e-21)
(0.730576 -0.340093 5.99675e-21)
(0.766427 -0.299549 1.43642e-20)
(0.795184 -0.264435 -2.85539e-20)
(0.180883 -0.286071 -1.30123e-20)
(0.3834 -0.548361 3.04082e-20)
(0.510501 -0.609753 2.3948e-20)
(0.585753 -0.578509 -1.11323e-20)
(0.63791 -0.519384 -2.51848e-20)
(0.681103 -0.459914 -1.84558e-20)
(0.71951 -0.406671 2.15291e-20)
(0.754629 -0.359465 -4.3162e-20)
(0.787818 -0.31673 1.09224e-20)
(0.814086 -0.279713 3.0025e-20)
(0.200402 -0.293847 2.68732e-20)
(0.42156 -0.567937 -1.62327e-20)
(0.553459 -0.634798 3.38813e-21)
(0.6269 -0.604204 2.93062e-22)
(0.674893 -0.543409 -5.90825e-21)
(0.713694 -0.481678 3.08924e-20)
(0.748124 -0.42627 -2.73997e-20)
(0.779775 -0.3771 2.6555e-20)
(0.810207 -0.332412 -4.02527e-20)
(0.834012 -0.293629 -1.51725e-20)
(0.219822 -0.299197 -3.33903e-22)
(0.460253 -0.583515 -1.71835e-20)
(0.597485 -0.655929 8.25781e-22)
(0.669347 -0.62653 -5.64854e-21)
(0.713173 -0.564588 -3.54499e-21)
(0.747481 -0.501008 1.69453e-22)
(0.777811 -0.44377 -1.73008e-20)
(0.805853 -0.392935 -1.21067e-21)
(0.833453 -0.346551 2.42547e-20)
(0.854897 -0.306147 -3.05299e-20)
(0.238883 -0.302109 6.58749e-21)
(0.499072 -0.59501 1.04034e-20)
(0.642199 -0.673035 -1.33561e-20)
(0.712783 -0.645387 -5.06157e-21)
(0.752503 -0.582841 4.47962e-20)
(0.78226 -0.517838 -3.72976e-20)
(0.808397 -0.459115 3.82102e-20)
(0.832696 -0.406934 8.70306e-22)
(0.857397 -0.359171 7.45266e-21)
(0.876705 -0.317332 2.80291e-20)
(0.257323 -0.302598 1.84138e-21)
(0.5376 -0.602373 -3.98898e-21)
(0.687208 -0.686039 3.44333e-21)
(0.756889 -0.6607 3.0004e-21)
(0.792625 -0.598105 -3.1054e-21)
(0.817819 -0.532117 1.49404e-20)
(0.839718 -0.472251 -8.42855e-21)
(0.860139 -0.419007 9.54223e-21)
(0.881816 -0.370109 -3.37592e-21)
(0.899427 -0.327039 -1.84127e-21)
(0.27488 -0.300706 -5.84975e-21)
(0.575411 -0.605592 -5.0827e-21)
(0.732108 -0.694888 2.56847e-21)
(0.801335 -0.672419 2.3085e-21)
(0.833275 -0.610342 -1.01497e-20)
(0.853938 -0.543817 2.53804e-20)
(0.871599 -0.483169 -2.25162e-20)
(0.888011 -0.429227 1.6561e-20)
(0.906334 -0.379787 -1.40994e-20)
(0.922946 -0.33648 -1.79791e-20)
(0.2913 -0.296505 -4.20009e-21)
(0.612077 -0.604691 2.7452e-21)
(0.776485 -0.699563 -1.36865e-21)
(0.845785 -0.680519 8.19932e-22)
(0.874189 -0.61953 -1.58206e-21)
(0.890397 -0.552917 -1.72265e-20)
(0.903893 -0.491812 5.70778e-21)
(0.916319 -0.437333 -4.76382e-21)
(0.930766 -0.38712 1.45985e-20)
(0.947768 -0.342269 -3.93101e-21)
(0.306333 -0.290094 -9.63803e-21)
(0.647166 -0.599736 -8.29844e-21)
(0.819918 -0.700075 3.60368e-21)
(0.889897 -0.684999 1.30696e-22)
(0.9151 -0.625672 -1.24534e-21)
(0.926966 -0.559433 1.80686e-21)
(0.936389 -0.49823 4.74163e-21)
(0.94503 -0.443635 -1.02119e-20)
(0.954607 -0.394482 -1.08312e-20)
(0.969754 -0.353583 7.40874e-21)
(0.31975 -0.281606 -7.99888e-21)
(0.680247 -0.590822 1.7299e-20)
(0.861982 -0.69647 -1.28915e-20)
(0.933322 -0.685889 -3.26889e-21)
(0.955744 -0.628787 -5.44308e-21)
(0.963425 -0.563384 3.22905e-21)
(0.968815 -0.502451 -3.75533e-21)
(0.973913 -0.448031 4.07204e-21)
(0.979069 -0.399781 -2.89144e-21)
(0.989206 -0.358791 6.711e-22)
(0.331365 -0.271209 -2.12893e-20)
(0.710881 -0.57808 -4.10003e-20)
(0.902255 -0.688833 3.32098e-20)
(0.975715 -0.683243 2.26033e-21)
(0.995856 -0.628913 -9.35996e-22)
(0.999576 -0.564793 6.03541e-21)
(1.00098 -0.504465 2.60042e-21)
(1.00268 -0.450373 -7.57081e-22)
(1.0042 -0.402779 8.24081e-21)
(1.00931 -0.361846 5.66775e-21)
(0.34098 -0.259029 1.99621e-20)
(0.738631 -0.561654 -8.93201e-21)
(0.940328 -0.677313 -2.5093e-20)
(1.01673 -0.677137 2.37935e-21)
(1.03517 -0.626103 1.37099e-21)
(1.03523 -0.563704 -1.58988e-20)
(1.03275 -0.504308 8.26944e-21)
(1.03114 -0.450759 2.27654e-22)
(1.02963 -0.403886 -6.3866e-22)
(1.03081 -0.363518 -3.5417e-22)
(0.348374 -0.245203 2.54506e-20)
(0.762976 -0.541707 6.38524e-20)
(0.975853 -0.662122 -1.99449e-21)
(1.05603 -0.66766 -4.81506e-21)
(1.07343 -0.620437 -2.59967e-21)
(1.07021 -0.56019 -3.22325e-21)
(1.06402 -0.502062 -9.7595e-21)
(1.05917 -0.449326 3.89954e-21)
(1.05493 -0.403311 7.37622e-21)
(1.05292 -0.363774 2.27129e-22)
(0.353448 -0.229953 -1.90914e-20)
(0.783546 -0.518646 -1.08781e-20)
(1.00843 -0.643518 4.78041e-20)
(1.0933 -0.654857 8.51238e-22)
(1.11038 -0.612014 -1.79543e-20)
(1.10432 -0.554344 2.89721e-20)
(1.09465 -0.497813 6.17421e-21)
(1.08667 -0.446165 1.98501e-21)
(1.07984 -0.40112 -3.94986e-21)
(1.0749 -0.362561 -4.5483e-21)
(0.356156 -0.213586 4.57713e-20)
(0.800183 -0.492914 -1.00827e-20)
(1.03732 -0.621523 -3.17438e-20)
(1.12824 -0.638881 2.90273e-21)
(1.14576 -0.600967 2.20195e-20)
(1.13736 -0.546268 -7.82294e-21)
(1.12451 -0.491651 -8.90146e-21)
(1.11354 -0.441345 -1.99844e-22)
(1.10421 -0.39738 -5.0217e-21)
(1.09652 -0.359924 2.58743e-21)
(0.356422 -0.196396 -1.62253e-20)
(0.812699 -0.464721 -1.01291e-19)
(1.06206 -0.59634 8.79696e-21)
(1.16043 -0.62003 3.62547e-20)
(1.17932 -0.58737 -1.23827e-21)
(1.16915 -0.536066 -4.45198e-20)
(1.15344 -0.483671 2.47166e-20)
(1.13967 -0.434948 -8.03638e-21)
(1.12797 -0.392181 1.03625e-20)
(1.11769 -0.355962 2.78248e-21)
(0.354179 -0.178643 -1.994e-20)
(0.820789 -0.434353 3.53936e-20)
(1.08254 -0.568362 4.54143e-20)
(1.18937 -0.598432 -2.69505e-20)
(1.21079 -0.571372 6.87781e-21)
(1.19951 -0.523875 2.68075e-20)
(1.18131 -0.473983 1.07964e-20)
(1.16493 -0.427067 4.35891e-21)
(1.151 -0.385623 -8.83079e-21)
(1.13833 -0.350768 -8.32649e-21)
(0.349416 -0.160581 -2.71223e-20)
(0.824166 -0.402193 -1.00546e-20)
(1.0985 -0.537868 -8.48353e-20)
(1.21471 -0.574288 -1.15288e-20)
(1.23989 -0.553183 1.51738e-21)
(1.22825 -0.509814 4.19996e-21)
(1.20798 -0.462704 -4.73691e-20)
(1.18922 -0.417804 -2.14253e-20)
(1.17324 -0.377798 5.14197e-22)
(1.15835 -0.344414 6.62171e-21)
(0.342178 -0.142472 -7.45433e-21)
(0.822616 -0.368657 3.21781e-20)
(1.10959 -0.505162 4.28246e-20)
(1.23623 -0.547852 2.44202e-20)
(1.26634 -0.532958 -5.2488e-21)
(1.2552 -0.494037 -4.89572e-21)
(1.23334 -0.449957 3.71986e-20)
(1.21246 -0.407266 3.62104e-20)
(1.1946 -0.368802 4.86297e-21)
(1.17765 -0.33696 -4.91963e-21)
(0.332557 -0.124568 7.10398e-20)
(0.816007 -0.334175 4.43555e-20)
(1.11545 -0.470585 -4.27497e-20)
(1.25362 -0.519359 -7.60501e-21)
(1.28989 -0.510879 3.8886e-21)
(1.2802 -0.476698 -1.21794e-20)
(1.25728 -0.435874 -2.15743e-20)
(1.23455 -0.395568 -1.59826e-21)
(1.21502 -0.358727 -2.20025e-20)
(1.19621 -0.328481 9.81507e-21)
(0.320687 -0.107119 9.07598e-21)
(0.80428 -0.299193 -2.43149e-20)
(1.1158 -0.434509 5.61626e-20)
(1.26653 -0.489059 3.27248e-20)
(1.31029 -0.487134 1.57392e-21)
(1.30308 -0.457952 1.78009e-20)
(1.27973 -0.420577 1.8281e-21)
(1.25544 -0.382825 -1.582e-20)
(1.23445 -0.347678 1.21548e-20)
(1.21398 -0.319038 1.17966e-21)
(0.306746 -0.0903565 -5.93607e-20)
(0.787454 -0.264168 -1.74053e-20)
(1.1104 -0.397326 -1.48311e-20)
(1.27464 -0.457221 -2.30855e-20)
(1.32728 -0.461908 5.9569e-21)
(1.32365 -0.437954 -1.10678e-22)
(1.30058 -0.404209 1.3268e-20)
(1.27511 -0.369158 -3.32319e-21)
(1.25271 -0.335726 -1.38569e-20)
(1.23108 -0.308785 -1.13349e-20)
(0.29095 -0.0744981 4.80754e-21)
(0.765624 -0.229564 2.80089e-20)
(1.09906 -0.359446 1.30805e-20)
(1.27763 -0.424129 -3.73289e-20)
(1.34058 -0.435392 -7.61988e-22)
(1.34174 -0.416848 -1.39889e-20)
(1.3197 -0.386894 2.61195e-22)
(1.29349 -0.354604 4.90405e-21)
(1.26981 -0.323059 -5.59715e-21)
(1.24756 -0.297777 1.60447e-20)
(0.273553 -0.0597341 1.11926e-20)
(0.738974 -0.195839 -2.73351e-20)
(1.08165 -0.321292 -6.21015e-20)
(1.27518 -0.390076 5.40613e-20)
(1.34989 -0.407776 -3.51373e-21)
(1.35715 -0.394778 9.99255e-21)
(1.33699 -0.36876 -1.32286e-21)
(1.31054 -0.339317 8.62636e-21)
(1.28587 -0.309883 -6.94748e-22)
(1.26306 -0.286167 -1.25281e-20)
(0.254839 -0.0462249 -2.25266e-20)
(0.707781 -0.16344 3.52284e-20)
(1.0581 -0.283296 2.82913e-20)
(1.26702 -0.355365 -3.86735e-20)
(1.35491 -0.379257 -6.17479e-21)
(1.36968 -0.371883 2.09952e-21)
(1.35237 -0.349937 2.16167e-20)
(1.32622 -0.323421 7.82453e-22)
(1.30085 -0.296177 4.01523e-21)
(1.27731 -0.273961 -8.09622e-21)
(0.235115 -0.0340975 1.70672e-20)
(0.672422 -0.13279 -1.5296e-20)
(1.02842 -0.245899 -1.26848e-20)
(1.25286 -0.320309 2.09845e-20)
(1.35529 -0.350031 6.85177e-21)
(1.3791 -0.348297 5.10163e-21)
(1.36571 -0.330538 -2.26934e-20)
(1.34048 -0.307007 -7.91313e-21)
(1.31469 -0.281947 -6.67265e-21)
(1.29045 -0.261199 2.64891e-21)
(0.214705 -0.0234424 -8.26519e-21)
(0.633371 -0.104278 -1.78791e-22)
(0.992715 -0.209538 2.39294e-20)
(1.23246 -0.285231 -8.54955e-21)
(1.35071 -0.320301 -3.77539e-21)
(1.38512 -0.324149 -2.41714e-21)
(1.37687 -0.310659 5.76621e-21)
(1.35325 -0.290163 9.62996e-21)
(1.32741 -0.267272 -4.81506e-22)
(1.30268 -0.247956 3.54245e-21)
(0.193938 -0.0143113 5.78916e-21)
(0.591193 -0.0782387 -1.61912e-21)
(0.951189 -0.174643 -4.26999e-21)
(1.20562 -0.250464 -3.81404e-21)
(1.34078 -0.290269 3.37465e-21)
(1.38744 -0.299556 2.62226e-21)
(1.38566 -0.290389 -2.38828e-21)
(1.36448 -0.272976 8.41387e-22)
(1.33903 -0.252256 1.19995e-21)
(1.31406 -0.234313 -1.58714e-21)
(0.173141 -0.00671684 2.98855e-21)
(0.546535 -0.0549522 8.6687e-22)
(0.904176 -0.141634 -5.21991e-21)
(1.17221 -0.216349 -4.22957e-21)
(1.32514 -0.260144 4.47185e-21)
(1.3857 -0.274636 9.05088e-22)
(1.39188 -0.269809 -2.1302e-21)
(1.37408 -0.255523 1.9995e-21)
(1.34952 -0.236989 1.14675e-21)
(1.32459 -0.22034 -1.34584e-21)
(0.15263 -0.000632622 -1.19788e-21)
(0.500111 -0.034626 2.40675e-21)
(0.852142 -0.110906 1.59845e-20)
(1.13214 -0.183232 -7.39412e-21)
(1.30339 -0.230144 -3.63335e-21)
(1.37948 -0.249502 -4.25492e-21)
(1.39523 -0.248985 8.93077e-21)
(1.38194 -0.237866 6.43461e-21)
(1.35887 -0.221545 5.12187e-21)
(1.33427 -0.206101 2.77627e-21)
(0.132699 0.00400375 2.33492e-20)
(0.45268 -0.0173901 -1.2978e-20)
(0.795704 -0.0828247 -1.52525e-20)
(1.08546 -0.151468 2.1348e-20)
(1.27515 -0.200496 1.18712e-20)
(1.36831 -0.224268 -8.53163e-22)
(1.39539 -0.227978 -1.59431e-20)
(1.38788 -0.22005 -1.12493e-20)
(1.36701 -0.205979 -1.26098e-20)
(1.34309 -0.191651 8.02486e-21)
(0.113612 0.00728678 -3.14417e-20)
(0.405023 -0.00328933 2.97668e-20)
(0.735625 -0.0577129 3.53725e-20)
(1.03235 -0.121414 -3.67793e-20)
(1.24008 -0.171443 -1.32593e-20)
(1.35166 -0.199052 9.33743e-21)
(1.3919 -0.206834 1.71249e-20)
(1.39166 -0.202102 3.11503e-21)
(1.37386 -0.190329 -9.00158e-22)
(1.35101 -0.177034 -1.17314e-20)
(0.0955976 0.00933768 -4.37247e-21)
(0.357913 0.00771838 -4.1687e-20)
(0.672815 -0.0358358 -4.63303e-20)
(0.973138 -0.0934268 5.58176e-20)
(1.19789 -0.143245 -6.69301e-21)
(1.32897 -0.173984 1.41992e-20)
(1.38425 -0.185599 3.13639e-21)
(1.39294 -0.184036 -7.88268e-21)
(1.37928 -0.174615 4.41668e-21)
(1.35801 -0.162282 -1.87384e-21)
(0.0788416 0.010298 9.0109e-21)
(0.312083 0.0157602 2.57182e-20)
(0.60831 -0.0173857 1.52041e-20)
(0.908377 -0.0678578 -1.21218e-20)
(1.14838 -0.116186 -2.17943e-20)
(1.29965 -0.149212 -2.178e-20)
(1.37182 -0.16432 -4.86552e-21)
(1.3913 -0.165855 1.52799e-20)
(1.38307 -0.158839 -3.33197e-21)
(1.36402 -0.147409 7.06175e-21)
(0.0634848 0.0103227 -3.40798e-20)
(0.268195 0.0210403 -3.25115e-20)
(0.543233 -0.0024672 -5.8044e-21)
(0.838843 -0.0450435 -6.53467e-21)
(1.09154 -0.0905774 -1.75644e-20)
(1.26309 -0.124912 1.17812e-20)
(1.3539 -0.143053 -1.65339e-21)
(1.38619 -0.147551 -1.28747e-20)
(1.38491 -0.142985 1.20662e-20)
(1.36892 -0.132411 -2.24319e-20)
(0.0496212 0.00957344 7.73937e-21)
(0.226818 0.0238267 2.80557e-20)
(0.478743 0.00891643 2.66542e-20)
(0.765564 -0.0252922 3.12712e-20)
(1.02755 -0.0667539 -7.00254e-22)
(1.21876 -0.101295 3.60065e-20)
(1.32967 -0.121875 4.30606e-21)
(1.37692 -0.129117 -5.22367e-20)
(1.38439 -0.127023 4.03608e-20)
(1.37251 -0.117264 1.42109e-20)
(0.0372992 0.00821176 2.21296e-20)
(0.188408 0.024433 5.11885e-20)
(0.415974 0.0168694 -6.91892e-21)
(0.68981 -0.00886468 -4.03199e-20)
(0.956873 -0.0450772 1.97473e-20)
(1.16625 -0.0786206 -2.35066e-20)
(1.2983 -0.100896 -3.90006e-20)
(1.36265 -0.110552 -7.99259e-21)
(1.38094 -0.110912 -3.88651e-20)
(0.0265238 0.00639252 1.12499e-20)
(0.153293 0.0231973 9.8069e-21)
(0.355969 0.021599 7.37216e-20)
(0.613054 0.00404882 1.68056e-20)
(0.880351 -0.0259259 -1.68404e-20)
(1.10535 -0.0571997 -8.90044e-21)
(1.25893 -0.0802722 6.74704e-20)
(1.34242 -0.0918767 6.18317e-20)
(0.0172603 0.0042577 2.90029e-21)
(0.121677 0.0204592 -5.4162e-20)
(0.299618 0.0233976 -8.86985e-20)
(0.536888 0.0133545 5.37413e-21)
(0.799212 -0.00968108 2.57101e-20)
(1.03618 -0.0374022 -3.82583e-20)
(1.21078 -0.0602228 -1.10596e-19)
(0.00943826 0.00193022 -2.05807e-20)
(0.0936417 0.0165384 5.55765e-20)
(0.247623 0.0226121 5.58636e-20)
(0.462917 0.0190749 -6.33074e-20)
(0.7151 0.00329966 8.99969e-21)
(0.00295599 -0.000491888 -4.9677e-20)
(0.0691562 0.0117161 -8.63407e-20)
(0.200472 0.019608 -1.86606e-20)
(0.39263 0.0213549 3.4974e-20)
(-0.00231479 -0.00294001 3.73501e-20)
(0.0480927 0.00622076 2.3214e-22)
(0.158443 0.0147364 -9.10203e-21)
(-0.00652398 -0.00537796 -1.26128e-20)
(0.0302409 0.00022278 -2.22285e-20)
(-0.00983617 -0.00780189 8.735e-20)
(0.0153259 -0.00616393 6.89061e-20)
(-0.0124216 -0.0102356 1.72297e-20)
(0.998522 -0.00404098 -1.40649e-22)
(0.998775 -0.00844084 6.36673e-22)
(0.992603 -0.0151551 3.14778e-22)
(0.989142 -0.0194764 1.48094e-22)
(0.979648 -0.0283885 3.07706e-22)
(0.973489 -0.0356233 -1.32882e-21)
(0.961138 -0.04999 -1.81272e-21)
(0.953524 -0.0626911 5.92726e-22)
(0.939514 -0.085474 1.89655e-21)
(0.932878 -0.10546 2.2721e-21)
(0.919751 -0.139612 3.91446e-21)
(0.918637 -0.166809 -9.45746e-22)
(0.911073 -0.215728 -5.64055e-21)
(0.922617 -0.244936 -1.42649e-21)
(0.932369 -0.31914 3.77494e-21)
(0.998575 -0.00390058 -8.05411e-22)
(0.998637 -0.00809847 3.06555e-22)
(0.99252 -0.0145266 -5.15881e-22)
(0.988746 -0.0185414 1.41751e-21)
(0.979218 -0.0270531 -1.27441e-21)
(0.972544 -0.0337817 1.51143e-22)
(0.959959 -0.0475525 1.91726e-21)
(0.951425 -0.0594986 -3.05029e-21)
(0.936779 -0.081505 1.38271e-21)
(0.928475 -0.100584 -5.0972e-21)
(0.913996 -0.13406 5.82912e-21)
(0.909916 -0.16068 -6.09505e-21)
(0.899931 -0.209703 -8.72464e-22)
(0.905725 -0.239725 7.10974e-21)
(0.910397 -0.313543 -1.65767e-21)
(0.998626 -0.00375845 1.06983e-21)
(0.998512 -0.00773172 7.53954e-22)
(0.992458 -0.0138564 9.18988e-22)
(0.988406 -0.0175478 -6.92147e-22)
(0.978864 -0.0256268 -7.24013e-22)
(0.971743 -0.0318269 2.71274e-21)
(0.958962 -0.0449438 -1.49627e-21)
(0.949641 -0.0560899 4.21072e-21)
(0.934425 -0.0771872 -2.6104e-21)
(0.924675 -0.0952345 -1.28819e-21)
(0.908949 -0.127665 -1.80219e-21)
(0.902202 -0.153394 1.52605e-21)
(0.889948 -0.201513 4.26077e-21)
(0.890931 -0.232199 -1.19271e-20)
(0.890902 -0.303633 1.31926e-20)
(0.998677 -0.00361937 1.54243e-22)
(0.998396 -0.00734779 -1.249e-21)
(0.992408 -0.0131901 -2.34777e-21)
(0.988102 -0.016581 4.12567e-22)
(0.978555 -0.0242347 -8.13043e-23)
(0.971036 -0.0299433 7.71579e-22)
(0.958083 -0.0424154 2.34844e-21)
(0.948061 -0.0528096 -1.58437e-21)
(0.932328 -0.0729743 2.05852e-21)
(0.921261 -0.0900232 -4.15611e-21)
(0.904385 -0.121232 2.8077e-21)
(0.895145 -0.146028 1.91254e-21)
(0.880672 -0.192646 4.67315e-21)
(0.877297 -0.223671 -8.0768e-21)
(0.872689 -0.292859 2.35906e-22)
(0.998727 -0.00347258 -1.35828e-21)
(0.998289 -0.00699532 -3.27616e-22)
(0.992363 -0.0125162 -3.26327e-22)
(0.987824 -0.0156099 1.83146e-21)
(0.97828 -0.0228266 3.38585e-23)
(0.970397 -0.0280494 -2.86674e-22)
(0.957293 -0.0398557 -1.65544e-21)
(0.946625 -0.0495032 -1.41314e-22)
(0.930423 -0.0686868 5.26357e-21)
(0.918123 -0.0847394 -6.1485e-21)
(0.90018 -0.114595 1.97246e-21)
(0.888581 -0.138431 3.02913e-21)
(0.871944 -0.183251 1.00433e-21)
(0.864502 -0.214219 -4.55222e-21)
(0.855504 -0.281135 1.06558e-22)
(0.998774 -0.00332076 2.4971e-22)
(0.998188 -0.00667197 2.24037e-22)
(0.992327 -0.0118301 7.78607e-22)
(0.987568 -0.0146272 -1.01908e-21)
(0.978031 -0.0213919 2.8934e-22)
(0.96981 -0.0261321 -8.01386e-22)
(0.956574 -0.0372463 4.2863e-22)
(0.945301 -0.0461506 -1.84199e-21)
(0.928676 -0.0642982 3.56715e-21)
(0.915208 -0.0793525 -7.63318e-23)
(0.896273 -0.107725 -6.49219e-21)
(0.882445 -0.130544 4.10808e-22)
(0.863712 -0.173326 7.01579e-21)
(0.852451 -0.203862 1.78344e-22)
(0.839258 -0.268239 -8.20792e-21)
(0.998818 -0.00316683 2.17323e-22)
(0.998094 -0.00632311 -1.29347e-21)
(0.992297 -0.0111266 -9.7513e-22)
(0.987329 -0.013636 1.16776e-21)
(0.977804 -0.0199352 -8.37608e-22)
(0.969264 -0.0242 6.80958e-22)
(0.955917 -0.0345977 -3.62338e-22)
(0.94407 -0.0427673 -4.13738e-22)
(0.927065 -0.0598262 2.73133e-21)
(0.912489 -0.0738816 -5.49346e-21)
(0.892629 -0.100652 4.41961e-21)
(0.876708 -0.122381 6.21929e-21)
(0.855965 -0.162919 -7.72556e-21)
(0.841117 -0.192681 -1.46261e-21)
(0.823934 -0.254219 -7.03089e-21)
(0.998861 -0.00300972 -1.21864e-22)
(0.998008 -0.00596807 8.064e-22)
(0.992272 -0.0103899 -8.93259e-22)
(0.987104 -0.0126373 2.08896e-21)
(0.977598 -0.0184582 -2.25325e-21)
(0.968755 -0.022256 -2.30563e-21)
(0.955315 -0.0319125 -5.76288e-22)
(0.942922 -0.0393566 2.7632e-22)
(0.925578 -0.0552764 -2.14738e-21)
(0.909956 -0.0683293 2.4356e-21)
(0.889234 -0.0933956 2.62269e-21)
(0.871362 -0.113952 -9.42923e-22)
(0.848709 -0.152074 -3.27561e-21)
(0.830499 -0.180756 6.83893e-21)
(0.809545 -0.239141 -6.6305e-21)
(0.998902 -0.0028496 -5.29756e-22)
(0.99793 -0.00561112 5.01575e-21)
(0.992252 -0.00966963 1.16225e-22)
(0.986891 -0.011635 1.04112e-21)
(0.97741 -0.016961 -1.87759e-22)
(0.968278 -0.0203008 3.11205e-21)
(0.954764 -0.0291912 4.84621e-22)
(0.941854 -0.0359189 4.84077e-23)
(0.924205 -0.0506522 -3.33878e-21)
(0.907606 -0.0626951 -6.06128e-22)
(0.886081 -0.0859695 2.96437e-21)
(0.866401 -0.105265 -4.26519e-21)
(0.841952 -0.140825 -3.2386e-21)
(0.820608 -0.168152 3.86905e-21)
(0.796117 -0.223073 -3.35626e-21)
(0.998942 -0.00268672 1.322e-21)
(0.997856 -0.00525291 -2.81787e-21)
(0.992237 -0.00898473 1.51153e-21)
(0.986694 -0.0106127 -2.15567e-21)
(0.977241 -0.0154426 -7.97741e-22)
(0.967834 -0.0183355 4.5016e-22)
(0.954261 -0.0264351 -1.64247e-21)
(0.940866 -0.032455 2.89655e-21)
(0.922943 -0.0459586 1.57777e-21)
(0.90544 -0.0569797 -9.01689e-22)
(0.883166 -0.0783888 2.78326e-21)
(0.861828 -0.096333 -5.25834e-21)
(0.835707 -0.129204 9.17759e-21)
(0.811461 -0.154929 -6.42935e-21)
(0.78368 -0.206084 -3.29843e-21)
(0.998979 -0.00252113 -9.39926e-22)
(0.997787 -0.00489601 1.2752e-22)
(0.992229 -0.00827753 1.24612e-23)
(0.986513 -0.00955665 1.99901e-21)
(0.977086 -0.0139072 4.99088e-22)
(0.967423 -0.0163611 -9.2264e-22)
(0.953804 -0.0236462 1.06882e-21)
(0.939958 -0.0289654 -2.10813e-21)
(0.921789 -0.0412012 8.92344e-22)
(0.903457 -0.0511846 5.93339e-22)
(0.880494 -0.0706672 -2.7433e-21)
(0.857645 -0.0871705 2.07884e-21)
(0.829985 -0.117238 5.49968e-21)
(0.803077 -0.141142 -2.68081e-21)
(0.772268 -0.188252 -7.32952e-21)
(0.999014 -0.00235297 -1.07161e-21)
(0.997723 -0.00453885 -2.26674e-22)
(0.992228 -0.00754718 -9.78379e-22)
(0.986346 -0.00858513 -2.91079e-21)
(0.976943 -0.0123588 1.41141e-21)
(0.967045 -0.0143782 -1.35953e-21)
(0.953392 -0.0208264 1.83034e-21)
(0.939132 -0.0254508 2.73475e-21)
(0.920742 -0.0363855 -1.79214e-21)
(0.901662 -0.0453122 3.69244e-21)
(0.878067 -0.0628176 -1.98449e-21)
(0.853857 -0.077794 -3.07025e-21)
(0.824797 -0.104956 -1.96299e-21)
(0.795476 -0.126845 8.01371e-21)
(0.761911 -0.169654 -2.64512e-21)
(0.999046 -0.00218238 1.11242e-21)
(0.997665 -0.00418158 5.3941e-22)
(0.992223 -0.00680593 -7.78468e-23)
(0.986195 -0.00765751 1.16836e-21)
(0.976824 -0.0107941 -1.87323e-21)
(0.966702 -0.0123879 -4.66629e-22)
(0.953024 -0.0179778 -4.22252e-23)
(0.93839 -0.0219114 -9.22958e-22)
(0.919803 -0.031517 -2.73543e-21)
(0.900056 -0.039366 -1.41498e-21)
(0.875891 -0.0548521 5.26259e-21)
(0.850468 -0.0682214 -8.16117e-22)
(0.820154 -0.0923883 -8.59663e-22)
(0.788675 -0.112089 -7.22709e-22)
(0.752638 -0.150371 -3.4505e-21)
(0.999074 -0.00200955 6.74188e-22)
(0.997613 -0.00382447 -1.24615e-21)
(0.992217 -0.00605389 5.30792e-22)
(0.98606 -0.00666981 -1.43476e-21)
(0.976722 -0.00921413 -9.18042e-23)
(0.966396 -0.0103929 7.86449e-23)
(0.952698 -0.0151027 1.15888e-22)
(0.937734 -0.0183476 1.74127e-22)
(0.918974 -0.0266008 -1.2744e-21)
(0.898643 -0.0333501 1.65144e-21)
(0.873971 -0.0467827 -2.7177e-21)
(0.847486 -0.0584713 5.98742e-22)
(0.816067 -0.0795639 1.86331e-21)
(0.782691 -0.0969272 -1.26472e-22)
(0.744474 -0.130486 2.3299e-21)
(0.999099 -0.00183472 -6.57117e-22)
(0.997568 -0.00346741 1.51222e-21)
(0.992211 -0.0052921 -9.50872e-22)
(0.985942 -0.00567269 1.16963e-21)
(0.976635 -0.00761276 6.47771e-22)
(0.966128 -0.00838572 -4.06769e-22)
(0.952417 -0.0122043 -7.34187e-23)
(0.937166 -0.0147628 -4.7645e-22)
(0.918256 -0.0216433 1.68091e-22)
(0.897424 -0.0272703 -1.42562e-21)
(0.872312 -0.0386213 6.6837e-22)
(0.844916 -0.0485632 -4.67529e-21)
(0.812545 -0.0665134 6.61829e-21)
(0.777537 -0.0814095 -2.00264e-21)
(0.737443 -0.110081 -4.37186e-21)
(0.99912 -0.00165815 -3.06868e-22)
(0.997531 -0.00311034 -4.67204e-22)
(0.992205 -0.00452218 3.25095e-22)
(0.985842 -0.00466901 8.05482e-23)
(0.976562 -0.00598168 8.9559e-22)
(0.965898 -0.00633384 -3.22e-22)
(0.952177 -0.00928138 1.79791e-22)
(0.936687 -0.0111578 -7.46922e-23)
(0.917651 -0.0166531 5.25121e-22)
(0.896402 -0.0211364 1.0063e-21)
(0.87092 -0.0303829 1.47462e-21)
(0.842762 -0.038519 -2.44653e-21)
(0.809596 -0.0532689 1.09087e-21)
(0.773224 -0.0655889 -1.43274e-21)
(0.731562 -0.089238 -4.11622e-21)
(0.999136 -0.00148012 1.08862e-21)
(0.997502 -0.00275304 -1.27536e-22)
(0.992198 -0.0037447 5.09409e-22)
(0.985762 -0.00365933 4.37993e-22)
(0.976506 -0.00438506 -1.39702e-21)
(0.965706 -0.00434727 5.39527e-23)
(0.951975 -0.00631132 2.19942e-22)
(0.936297 -0.00749838 1.36036e-22)
(0.917162 -0.0116215 -5.20856e-22)
(0.895578 -0.0149488 4.75734e-22)
(0.869799 -0.0220795 2.25694e-21)
(0.841032 -0.0283652 -9.03212e-22)
(0.807229 -0.0398668 2.10773e-21)
(0.769761 -0.0495204 -4.6653e-21)
(0.726844 -0.0680417 5.9347e-21)
(0.999147 -0.00130098 -7.78087e-22)
(0.997481 -0.00239511 1.46343e-23)
(0.992188 -0.00295602 -4.54229e-22)
(0.985694 -0.00264597 -2.28092e-22)
(0.976452 -0.0028127 4.98767e-22)
(0.965567 -0.00241615 -2.60564e-23)
(0.951834 -0.00338268 -9.09447e-22)
(0.935994 -0.00385152 5.27502e-22)
(0.916784 -0.00651668 -2.38599e-22)
(0.894952 -0.00867007 2.1281e-22)
(0.868951 -0.0136977 7.808e-22)
(0.839728 -0.0181107 2.40285e-22)
(0.805449 -0.0263327 -1.3757e-21)
(0.767156 -0.0332509 1.76396e-22)
(0.723302 -0.0465671 -1.3394e-21)
(0.999153 -0.00112107 3.79387e-22)
(0.997471 -0.00203726 -2.63019e-23)
(0.992177 -0.00216839 6.6326e-23)
(0.985641 -0.0016289 3.71549e-22)
(0.976406 -0.00119842 -6.78018e-23)
(0.965463 -0.000423892 -3.66776e-22)
(0.951737 -0.000512257 -2.34014e-22)
(0.935804 -0.000305262 2.83251e-22)
(0.916543 -0.00151579 -2.56502e-22)
(0.894521 -0.00246783 3.1461e-22)
(0.86837 -0.00522983 -8.11811e-22)
(0.838849 -0.00770747 4.62039e-22)
(0.80426 -0.0126594 -1.04005e-21)
(0.765412 -0.0168089 4.20083e-22)
(0.720941 -0.0248801 1.80938e-22)
(0.999153 -0.000940734 -6.77138e-23)
(0.997468 -0.00167958 6.64987e-23)
(0.992162 -0.00138398 -8.61119e-23)
(0.985607 -0.00060587 -1.23158e-22)
(0.976369 0.000447105 1.16099e-22)
(0.965396 0.00160795 1.85855e-22)
(0.951672 0.00243142 1.29933e-22)
(0.935692 0.00328879 -7.94279e-23)
(0.916417 0.00344303 3.17272e-22)
(0.894336 0.00368586 5.86471e-23)
(0.868119 0.00312219 1.51944e-22)
(0.8384 0.00260349 2.14434e-22)
(0.803651 0.000972613 -2.79739e-24)
(0.764521 -0.000359494 -1.58147e-22)
(0.719756 -0.00314324 -2.65622e-23)
(1.00005 -0.000274988 0)
(1.00204 -0.000713196 0)
(1.00533 -0.00115139 0)
(1.00946 -0.00149101 0)
(1.01415 -0.0018525 0)
(1.01916 -0.00211997 0)
(1.02435 -0.00240597 0)
(1.02956 -0.00259328 0)
(1.03467 -0.0028008 0)
(1.03958 -0.00290753 0)
(1.04424 -0.00304572 0)
(1.04858 -0.00307986 0)
(1.05261 -0.00316784 0)
(1.05629 -0.00313978 0)
(1.05966 -0.00320287 0)
(1.00005 -0.000811976 0)
(1.00203 -0.00210405 0)
(1.00532 -0.00339885 0)
(1.00943 -0.00440166 0)
(1.01412 -0.0054729 0)
(1.01914 -0.00626655 0)
(1.02437 -0.00711936 0)
(1.02961 -0.00768018 0)
(1.03479 -0.00830338 0)
(1.03975 -0.00862641 0)
(1.04449 -0.00904328 0)
(1.0489 -0.00914949 0)
(1.053 -0.00941512 0)
(1.05675 -0.00933489 0)
(1.0602 -0.00952449 0)
(1.00006 -0.00132456 0)
(1.00201 -0.00341745 0)
(1.00529 -0.00553348 0)
(1.00936 -0.00716627 0)
(1.01406 -0.00893069 0)
(1.01909 -0.0102359 0)
(1.02438 -0.0116564 0)
(1.02969 -0.0125913 0)
(1.03498 -0.0136421 0)
(1.04005 -0.0141879 0)
(1.04493 -0.0148982 0)
(1.04946 -0.0150818 0)
(1.05373 -0.0155389 0)
(1.05759 -0.0154076 0)
(1.06121 -0.0157369 0)
(1.00007 -0.00181444 0)
(1.00199 -0.00464407 0)
(1.00524 -0.00755186 0)
(1.00925 -0.00978136 0)
(1.01396 -0.0122357 0)
(1.01899 -0.0140443 0)
(1.02436 -0.0160488 0)
(1.02975 -0.0173667 0)
(1.0352 -0.018872 0)
(1.04042 -0.0196548 0)
(1.0455 -0.0206865 0)
(1.05021 -0.0209579 0)
(1.0547 -0.0216307 0)
(1.05874 -0.0214498 0)
(1.0626 -0.0219393 0)
(1.00009 -0.00228239 0)
(1.00195 -0.00577788 0)
(1.00517 -0.00945221 0)
(1.00909 -0.0122445 0)
(1.01378 -0.0153923 0)
(1.01881 -0.0176986 0)
(1.02427 -0.0203141 0)
(1.02976 -0.0220307 0)
(1.03539 -0.0240307 0)
(1.0408 -0.0250722 0)
(1.04614 -0.026466 0)
(1.05108 -0.0268407 0)