/*--------------------------------*- C++ -*----------------------------------*\
  =========                 |
  \\      /  F ield         | OpenFOAM: The Open Source CFD Toolbox
   \\    /   O peration     | Website:  https://openfoam.org
    \\  /    A nd           | Version:  7
     \\/     M anipulation  |
\*---------------------------------------------------------------------------*/
FoamFile
{
    version     2.0;
    format      ascii;
    class       surfaceScalarField;
    location    "135";
    object      phi;
}
// * * * * * * * * * * * * * * * * * * * * * * * * * * * * * * * * * * * * * //

dimensions      [0 3 -1 0 0 0 0];

internalField   nonuniform List<scalar> 
16735
(
-8.17737e-05
-0.00237547
0.00245725
-0.000325588
-0.00563545
0.00587927
-0.000727995
-0.0078487
0.00825111
-0.00126987
-0.00918473
0.00972661
-0.00192597
-0.00991696
0.0105731
-0.00267259
-0.0103215
0.0110681
-0.00349097
-0.0105787
0.011397
-0.00436802
-0.0107203
0.0115974
-0.00529528
-0.0106258
0.0115531
-0.00999945
0.0109784
-0.00627425
-0.000107118
-0.00226835
-0.000402016
-0.00534056
-0.000866778
-0.00738394
-0.00147463
-0.00857688
-0.002199
-0.0091926
-0.00301965
-0.00950087
-0.00392437
-0.00967394
-0.00490878
-0.00973594
-0.00597419
-0.00956039
-0.00884554
-0.00712809
-0.000129787
-0.00213857
-0.000468954
-0.00500139
-0.000985478
-0.00686742
-0.00164479
-0.00791757
-0.00241791
-0.00841948
-0.00328596
-0.00863282
-0.00424006
-0.00871984
-0.00528039
-0.00869561
-0.00641389
-0.00842689
-0.00761039
-0.00764904
-0.000149547
-0.00198902
-0.000526028
-0.00462491
-0.00108397
-0.00630948
-0.00178086
-0.00722067
-0.00258418
-0.00761616
-0.00347394
-0.00774306
-0.00444092
-0.00775286
-0.00548505
-0.00765148
-0.00661391
-0.00729803
-0.00639164
-0.00783266
-0.000166345
-0.00182268
-0.000573371
-0.00421788
-0.00116304
-0.00571981
-0.00188493
-0.00649878
-0.00270176
-0.00679933
-0.00359009
-0.00685472
-0.00453655
-0.00680641
-0.00553556
-0.00665247
-0.0065897
-0.00624389
-0.00528466
-0.00769668
-0.000180253
-0.00164242
-0.000611446
-0.00378669
-0.00122409
-0.00510717
-0.00195998
-0.00576289
-0.00277624
-0.00598308
-0.00364386
-0.0059871
-0.00454179
-0.00590848
-0.0054537
-0.00574056
-0.00637093
-0.00532666
-0.0043773
-0.00727829
-0.000191403
-0.00145102
-0.000640833
-0.00333726
-0.00126863
-0.00447937
-0.00200923
-0.00502229
-0.00281361
-0.00517871
-0.00364572
-0.00515499
-0.00447408
-0.00508012
-0.00526672
-0.00494791
-0.00599726
-0.00459612
-0.00374483
-0.00662973
-0.000199907
-0.00125111
-0.000661995
-0.00287517
-0.00129785
-0.00384351
-0.00203521
-0.00428493
-0.00281881
-0.00439511
-0.00360483
-0.00436896
-0.00434966
-0.00433529
-0.00500189
-0.00429568
-0.00551106
-0.00408694
-0.00344677
-0.00580913
-0.000205793
-0.00104532
-0.000675071
-0.00240589
-0.00131219
-0.00320639
-0.00203898
-0.00355814
-0.00279422
-0.00363987
-0.00352632
-0.00363687
-0.00417906
-0.00368255
-0.00467929
-0.00379545
-0.00494724
-0.00381899
-0.00352644
-0.00486757
-0.000208953
-0.000836367
-0.000679742
-0.0019351
-0.001311
-0.00257513
-0.00201947
-0.00284967
-0.00273841
-0.00292093
-0.00340881
-0.00296647
-0.00396252
-0.00312883
-0.00430408
-0.0034539
-0.00432112
-0.00380195
-0.00401308
-0.00383448
-0.000209141
-0.000627226
-0.000675192
-0.00146905
-0.00129247
-0.00195785
-0.00197326
-0.00216888
-0.00264545
-0.00224875
-0.00324288
-0.00236903
-0.0036866
-0.00268512
-0.00385988
-0.00328062
-0.00361665
-0.00404518
-0.00492373
-0.002706
-0.000206002
-0.000421224
-0.000660213
-0.00101484
-0.00125381
-0.00136425
-0.00189483
-0.00152786
-0.0025053
-0.00163827
-0.00301127
-0.00186307
-0.00332339
-0.002373
-0.00330586
-0.00329814
-0.00277947
-0.00457157
-0.00625753
-0.00144567
-0.000199155
-0.000222069
-0.00063343
-0.000580566
-0.00119173
-0.000805945
-0.00177744
-0.000942156
-0.00230532
-0.00111039
-0.00269141
-0.00147699
-0.00283453
-0.00222987
-0.00258014
-0.00355254
-0.00171119
-0.00544053
-0.0079053
-6.3413e-05
-0.000188293
-3.37757e-05
-0.00059363
-0.000175229
-0.00110311
-0.00029647
-0.00161442
-0.000430839
-0.00203275
-0.000692066
-0.00226042
-0.00124932
-0.00218123
-0.00230906
-0.00162091
-0.00411286
-0.000217274
-0.00684416
-0.0101214
0.00199879
-0.000173302
0.000139527
-0.000540093
0.000191561
-0.000985726
0.000149164
-0.00140064
-1.59223e-05
-0.00167749
-0.000415218
-0.0017003
-0.00122651
-0.00133311
-0.00267625
-0.00040969
-0.00503627
0.00148567
-0.00873952
-0.0130146
0.00437892
-0.000154344
0.000293871
-0.000472891
0.000510108
-0.000838765
0.000515037
-0.00113387
0.000279187
-0.00123424
-0.000314855
-0.00100166
-0.00145909
-0.00027115
-0.00340677
0.00114504
-0.00645247
0.00363538
-0.0112299
-0.0165281
0.00714889
-0.000131912
0.000425783
-0.000393051
0.000771247
-0.000663665
0.000785652
-0.000814772
0.000430293
-0.000703732
-0.000425895
-0.000166394
-0.00199642
0.00099021
-0.00456337
0.00297721
-0.00843947
0.00615221
-0.0144049
-0.0205828
0.0102069
-0.000106776
0.000532558
-0.000302427
0.000966898
-0.000463189
0.000946414
-0.000447584
0.000414688
-9.23025e-05
-0.000781176
0.00079513
-0.00288386
0.00243488
-0.00620312
0.00504487
-0.0110495
0.0089098
-0.0182698
-0.0250579
0.0133849
-7.98939e-05
0.000612452
-0.000203465
0.00109047
-0.000241468
0.000984417
-3.85905e-05
0.000211811
0.000591134
-0.0014109
0.00186603
-0.00415876
0.00402809
-0.00836517
0.00730048
-0.0143219
0.0117688
-0.0227381
-0.0297852
0.0164962
-5.2253e-05
0.000664705
-9.8795e-05
0.00113701
-3.19058e-06
0.000888813
0.000405611
-0.000196991
0.00133503
-0.00234032
0.00302723
-0.00585095
0.00573148
-0.0110694
0.00966227
-0.0182526
0.0146136
-0.0276895
-0.0346369
0.0194652
-2.47066e-05
0.000689412
9.66991e-06
0.00110263
0.000248063
0.000650419
0.000878392
-0.000827319
0.00212934
-0.00359127
0.00425917
-0.00798078
0.00750183
-0.0143121
0.012
-0.0227508
0.0172973
-0.0329868
-0.0421328
0.0247933
2.27807e-06
0.000687134
0.000119305
0.000985608
0.000509017
0.000260707
0.00137547
-0.00169377
0.0029658
-0.0051816
0.00554222
-0.0105572
0.00929396
-0.0180638
0.0142236
-0.0276804
0.019849
-0.0386122
-0.0489844
0.0267006
2.83425e-05
0.000658791
0.000230858
0.000783092
0.00077909
-0.000287524
0.00189477
-0.00280945
0.00383785
-0.00712467
0.00685499
-0.0135744
0.0110536
-0.0222625
0.0162554
-0.0328822
0.0219417
-0.0442985
-0.0551002
0.0280574
5.4039e-05
0.000604752
0.000344577
0.000492553
0.00105916
-0.00100211
0.00243605
-0.00418634
0.00473875
-0.00942737
0.00817113
-0.0170067
0.0127181
-0.0268094
0.0180211
-0.0381852
0.0235011
-0.0497785
-0.0605218
0.0289228
7.99631e-05
0.000524789
0.000462132
0.000110384
0.00135138
-0.00189136
0.00299942
-0.00583438
0.00565861
-0.0120866
0.00945622
-0.0208044
0.0142224
-0.0315757
0.0194482
-0.0434109
0.0245525
-0.0548828
-0.0652458
0.0292765
0.000107032
0.000417757
0.000585664
-0.000368248
0.00165812
-0.00296381
0.00358339
-0.00775964
0.00658155
-0.0150847
0.0106676
-0.0248904
0.0155068
-0.0364148
0.0204979
-0.048402
0.0251188
-0.0595038
-0.0693013
0.0291743
0.000136211
0.000281546
0.000717234
-0.00094927
0.00198081
-0.00422739
0.00418288
-0.00996171
0.00748432
-0.0183862
0.0117587
-0.0291648
0.016525
-0.0411811
0.0211611
-0.0530382
0.0252516
-0.0635942
-0.0727494
0.0286997
0.000168324
0.000113222
0.000858262
-0.00163921
0.00231882
-0.00568794
0.00478785
-0.0124307
0.00833722
-0.0219355
0.0126857
-0.0335132
0.017251
-0.0457464
0.0214556
-0.0572428
0.0250136
-0.0671522
-0.0756617
0.0279258
0.000203914
-9.06922e-05
0.0010091
-0.0024444
0.00266872
-0.00734757
0.00538306
-0.0151451
0.0091076
-0.0256601
0.0134147
-0.0378203
0.0176796
-0.0500114
0.0214167
-0.0609798
0.0244702
-0.0702058
-0.0781142
0.0269227
0.000243162
-0.000333854
0.0011688
-0.00337004
0.00302412
-0.00920289
0.00594916
-0.0180701
0.00976448
-0.0294754
0.0139257
-0.0419815
0.0178238
-0.0539095
0.0210895
-0.0642455
0.0236834
-0.0727997
-0.0801777
0.0257469
0.00028587
-0.000619724
0.00133511
-0.00441928
0.00337592
-0.0112437
0.00646489
-0.0211591
0.010283
-0.0332935
0.0142134
-0.0459119
0.0177087
-0.0574048
0.0205219
-0.0670587
0.0227079
-0.0749857
-0.0819141
0.0244444
0.000331506
-0.00095123
0.00150461
-0.00559239
0.00371308
-0.0134522
0.00690982
-0.0243558
0.0106474
-0.0370311
0.0142851
-0.0495496
0.0173668
-0.0604864
0.0197599
-0.0694519
0.0215898
-0.0768156
-0.0833746
0.0230503
0.000379257
-0.00133049
0.00167301
-0.00688614
0.00402371
-0.0158029
0.00726675
-0.0275989
0.0108513
-0.0406156
0.0141571
-0.0528554
0.0168328
-0.0631621
0.018845
-0.0714641
0.0203664
-0.078337
-0.0845996
0.0215914
0.000428101
-0.00175859
0.00183541
-0.00829345
0.0042962
-0.0182636
0.00752349
-0.0308262
0.010897
-0.0439891
0.0138513
-0.0558098
0.0161409
-0.0654517
0.0178129
-0.0731362
0.0190671
-0.0795911
-0.0856201
0.0200875
0.000476869
-0.00223546
0.00198671
-0.00980329
0.0045203
-0.0207972
0.00767354
-0.0339794
0.0107937
-0.0471093
0.0133923
-0.0584084
0.0153228
-0.0673821
0.0166933
-0.0745067
0.0177146
-0.0806124
-0.0864587
0.0185533
0.000524305
-0.00275976
0.00212185
-0.0114008
0.00468798
-0.0233634
0.00771587
-0.0370073
0.0105549
-0.0499483
0.0128049
-0.0606585
0.0144062
-0.0689835
0.0155104
-0.0756109
0.0163263
-0.0814283
-0.0871317
0.0169993
0.000569112
-0.00332887
0.00223622
-0.0130679
0.00479389
-0.025921
0.00765405
-0.0398675
0.0101966
-0.0524909
0.0121127
-0.0625745
0.0134153
-0.070286
0.0142832
-0.0764788
0.0149151
-0.0820601
-0.0876505
0.0154338
0.000610014
-0.00393889
0.00232585
-0.0147838
0.00483557
-0.0284308
0.00749511
-0.042527
0.0097361
-0.0547319
0.0113373
-0.0641757
0.0123698
-0.0713185
0.0130269
-0.077136
0.0134907
-0.0825239
-0.0880225
0.0138628
0.0006458
-0.00458469
0.00238771
-0.0165257
0.00481321
-0.0308563
0.00724837
-0.0449622
0.00919012
-0.0566736
0.0104976
-0.0654832
0.0112862
-0.0721072
0.0117531
-0.0776029
0.0120608
-0.0828316
-0.088253
0.0122912
0.000675382
-0.00526007
0.0024198
-0.0182701
0.00472927
-0.0331657
0.00692443
-0.0471573
0.0085747
-0.0583239
0.00961013
-0.0665186
0.0101779
-0.0726749
0.0104708
-0.0778958
0.0106308
-0.0829915
-0.0883454
0.0107232
0.00069783
-0.0059579
0.00242117
-0.0199935
0.00458792
-0.0353325
0.00653435
-0.0491037
0.00790441
-0.0596939
0.00868875
-0.0673029
0.00905527
-0.0730414
0.009187
-0.0780276
0.00920525
-0.0830098
-0.0883021
0.00916191
0.000712414
-0.00667031
0.00239191
-0.021673
0.00439455
-0.0373351
0.00608902
-0.0507982
0.00719226
-0.0607972
0.00774504
-0.0678557
0.00792681
-0.0732232
0.00790699
-0.0780078
0.00778766
-0.0828904
-0.0881239
0.00760949
0.000718613
-0.00738893
0.00233301
-0.0232874
0.00415523
-0.0391573
0.00559881
-0.0522418
0.0064496
-0.061648
0.00678852
-0.0681946
0.0067991
-0.0732338
0.00663497
-0.0778436
0.00638088
-0.0826363
-0.0878108
0.00606782
0.000716131
-0.00810506
0.0022462
-0.0248174
0.00387631
-0.0407874
0.00507327
-0.0534388
0.00568619
-0.0622609
0.00582699
-0.0683354
0.00567732
-0.0730841
0.00537409
-0.0775404
0.00498723
-0.0822495
-0.087362
0.00453844
0.000704888
-0.00880995
0.00213373
-0.0262463
0.00356414
-0.0422178
0.00452103
-0.0543956
0.00491034
-0.0626502
0.00486686
-0.0682919
0.00456583
-0.0727831
0.00412708
-0.0771016
0.00360791
-0.0817303
-0.0867773
0.00302313
0.000685007
-0.00949495
0.00199821
-0.0275595
0.00322477
-0.0434444
0.0039497
-0.0551206
0.00412901
-0.0628295
0.00391334
-0.0680763
0.00346852
-0.0723383
0.0028975
-0.0765306
0.00224237
-0.0810752
-0.0860564
0.00152145
0.000656818
-0.0101518
0.0018426
-0.0287452
0.00286394
-0.0444657
0.00336596
-0.0556226
0.00334798
-0.0628115
0.00297057
-0.0676989
0.0023884
-0.0717561
0.00168957
-0.0758318
0.000898203
-0.0802838
-0.0851325
-2.56872e-05
0.000620832
-0.0107726
0.00167005
-0.0297945
0.00248692
-0.0452826
0.00277557
-0.0559112
0.00257201
-0.062608
0.0020418
-0.0671687
0.00132715
-0.0710414
0.000499662
-0.0750043
-0.000407331
-0.0793768
-0.0841259
-0.00141387
0.000577696
-0.0113503
0.00148347
-0.0307002
0.00209847
-0.0458976
0.00218346
-0.0559962
0.001805
-0.0622295
0.00112967
-0.0664933
0.000284409
-0.0701962
-0.000664072
-0.0740558
-0.00170953
-0.0783314
-0.0830054
-0.00283003
0.000528163
-0.0118785
0.00128571
-0.0314578
0.00170292
-0.0463148
0.0015938
-0.0558871
0.00105008
-0.0616858
0.000235457
-0.0656787
-0.000730496
-0.0692302
-0.00180154
-0.0729848
-0.00297475
-0.0771582
-0.0817536
-0.00422652
0.000473083
-0.0123515
0.0010795
-0.0320642
0.00130405
-0.0465394
0.00100999
-0.0555931
0.000310155
-0.060986
-0.000635141
-0.0647334
-0.00172215
-0.0681432
-0.00291518
-0.0717918
-0.00421195
-0.0758614
-0.0803708
-0.00559476
0.000413348
-0.0127649
0.000867595
-0.0325184
0.000905123
-0.0465769
0.0004356
-0.0551235
-0.000412591
-0.0601378
-0.0014843
-0.0636617
-0.00268979
-0.0669377
-0.00400156
-0.07048
-0.00542099
-0.074442
-0.0788592
-0.00693262
0.000349796
-0.0131147
0.000652647
-0.0328213
0.000509408
-0.0464337
-0.000125565
-0.0544886
-0.00111652
-0.0591468
-0.00231101
-0.0624672
-0.00363165
-0.0656171
-0.00505954
-0.0690521
-0.00660023
-0.0729013
-0.0772214
-0.00823801
0.00028339
-0.0133981
0.000436546
-0.0329744
0.000126591
-0.0461237
-0.000678077
-0.0536839
-0.00180194
-0.058023
-0.00311401
-0.0611551
-0.00454678
-0.0641843
-0.00608826
-0.0675106
-0.00774819
-0.0712413
-0.0754613
-0.00950832
0.000216063
-0.0136141
0.000221235
-0.0329796
-0.000266077
-0.0456364
-0.00121496
-0.052735
-0.00246681
-0.0567711
-0.00389245
-0.0597295
-0.00543442
-0.0626423
-0.00708701
-0.065858
-0.00886339
-0.069465
-0.0735849
-0.0107398
0.000147627
-0.0137618
2.53593e-05
-0.0328574
-0.000646493
-0.0449646
-0.0017378
-0.0516437
-0.00311048
-0.0553984
-0.00464562
-0.0581944
-0.00629393
-0.060994
-0.00805499
-0.064097
-0.00994455
-0.0675754
-0.0715968
-0.0119326
7.3624e-05
-0.0138354
-0.000210682
-0.032573
-0.00101678
-0.0441585
-0.00224361
-0.0504169
-0.00373217
-0.0539099
-0.00537302
-0.0565535
-0.0071249
-0.0592422
-0.00899165
-0.0622302
-0.0109916
-0.0655754
-0.0694942
-0.0130942
-6.70617e-06
-0.0138287
-0.000428865
-0.0321509
-0.00137657
-0.0432107
-0.00273128
-0.0490622
-0.00433096
-0.0523102
-0.00607427
-0.0548102
-0.00792767
-0.0573888
-0.00989795
-0.0602599
-0.0120036
-0.0634698
-0.0672764
-0.0142214
-7.51868e-05
-0.0137535
-0.000637326
-0.0315887
-0.00172417
-0.0421239
-0.00320039
-0.0475859
-0.00490619
-0.0506044
-0.00674886
-0.0529675
-0.00870287
-0.0554348
-0.0107771
-0.0581857
-0.0129752
-0.0612717
-0.0649578
-0.0152938
-0.000147209
-0.0136063
-0.000838753
-0.0308972
-0.00205863
-0.040904
-0.00365027
-0.0459943
-0.00545718
-0.0487975
-0.00739585
-0.0510289
-0.00944864
-0.053382
-0.0116279
-0.0560064
-0.0139445
-0.0589552
-0.0626781
-0.0162242
-0.000218332
-0.013388
-0.00103346
-0.0300821
-0.00237935
-0.0395581
-0.00408034
-0.0442933
-0.0059835
-0.0468943
-0.00801423
-0.0489981
-0.0101603
-0.0512359
-0.0124225
-0.0537441
-0.0147659
-0.0566118
-0.0599004
-0.0175435
-0.000287768
-0.0131002
-0.00122104
-0.0291488
-0.00268588
-0.0380933
-0.0044902
-0.042489
-0.00648494
-0.0448996
-0.00860341
-0.0468797
-0.0108345
-0.0490048
-0.0131746
-0.051404
-0.015642
-0.0541444
-0.0571394
-0.018403
-0.000355117
-0.0127451
-0.00140096
-0.028103
-0.00297785
-0.0365164
-0.00487956
-0.0405873
-0.00696123
-0.0428179
-0.00916331
-0.0446776
-0.0114775
-0.0466906
-0.0139088
-0.0489728
-0.0164907
-0.0515625
-0.0543527
-0.0192775
-0.00042007
-0.012325
-0.00157274
-0.0269503
-0.0032549
-0.0348342
-0.00524815
-0.038594
-0.00741195
-0.0406541
-0.00969314
-0.0423964
-0.0120866
-0.0442972
-0.0146024
-0.0464569
-0.0172707
-0.0488941
-0.0515132
-0.0201102
-0.000482359
-0.0118426
-0.00173594
-0.0256967
-0.00351673
-0.0330535
-0.00559578
-0.036515
-0.007837
-0.0384129
-0.0101932
-0.0400402
-0.0126625
-0.0418278
-0.0152581
-0.0438614
-0.0180041
-0.0461482
-0.04861
-0.0209073
-0.000541741
-0.0113009
-0.00189022
-0.0243482
-0.00376309
-0.0311806
-0.0059223
-0.0343558
-0.00823622
-0.036099
-0.0106632
-0.0376133
-0.0132043
-0.0392867
-0.0158738
-0.0411919
-0.0186918
-0.0433301
-0.0456389
-0.0216629
-0.000598002
-0.0107029
-0.00203526
-0.022911
-0.00399378
-0.0292221
-0.0062276
-0.0321219
-0.00860953
-0.033717
-0.011103
-0.0351199
-0.0137115
-0.0366781
-0.01645
-0.0384534
-0.0193361
-0.040444
-0.0426
-0.0223751
-0.000650948
-0.010052
-0.00217083
-0.0213911
-0.00420863
-0.0271843
-0.00651159
-0.029819
-0.00895685
-0.0312718
-0.0115124
-0.0325643
-0.014184
-0.0340066
-0.0169866
-0.0356508
-0.0199371
-0.0374934
-0.0394952
-0.023042
-0.000700411
-0.00935154
-0.0022967
-0.0197948
-0.00440751
-0.0250735
-0.00677421
-0.0274523
-0.00927812
-0.0287679
-0.0118914
-0.029951
-0.0146215
-0.0312765
-0.0174838
-0.0327886
-0.0204947
-0.0344825
-0.0363278
-0.0236621
-0.000746245
-0.0086053
-0.00241271
-0.0181283
-0.00459032
-0.0228959
-0.00701542
-0.0250272
-0.00957328
-0.02621
-0.0122398
-0.0272844
-0.0150239
-0.0284924
-0.0179412
-0.0298712
-0.0210082
-0.0314155
-0.0331018
-0.0242342
-0.000788323
-0.00781698
-0.00251872
-0.0163979
-0.00475699
-0.0206576
-0.00723517
-0.022549
-0.00984227
-0.0236029
-0.0125575
-0.0245692
-0.015391
-0.025659
-0.0183588
-0.0269034
-0.0214773
-0.0282969
-0.0298219
-0.0247573
-0.000826535
-0.00699044
-0.00261459
-0.0146099
-0.00490744
-0.0183647
-0.00743346
-0.020023
-0.0100851
-0.0209513
-0.0128444
-0.0218098
-0.0157226
-0.0227808
-0.0187362
-0.0238899
-0.0219016
-0.0251315
-0.0264929
-0.0252306
-0.000860788
-0.00612965
-0.00270024
-0.0127704
-0.00504164
-0.0160233
-0.00761026
-0.0174543
-0.0103016
-0.0182599
-0.0131004
-0.0190111
-0.0160187
-0.0198625
-0.0190732
-0.0208354
-0.0222805
-0.0219242
-0.0231199
-0.0256534
-0.000891003
-0.00523865
-0.00277559
-0.0108858
-0.00515954
-0.0136394
-0.00776557
-0.0148483
-0.0104919
-0.0155336
-0.0133255
-0.0161775
-0.016279
-0.0169089
-0.0193696
-0.0177448
-0.0226138
-0.01868
-0.0197084
-0.0260254
-0.000917113
-0.00432154
-0.00284056
-0.0089624
-0.00526113
-0.0112188
-0.00789937
-0.0122101
-0.0106559
-0.012777
-0.0135195
-0.013314
-0.0165035
-0.0139249
-0.0196253
-0.0146231
-0.0229013
-0.015404
-0.0162636
-0.0263461
-0.000939064
-0.00338247
-0.00289511
-0.00700635
-0.00534638
-0.00876755
-0.00801168
-0.00954478
-0.0107936
-0.00999508
-0.0136825
-0.0104251
-0.0166922
-0.0109152
-0.0198401
-0.0114753
-0.0231427
-0.0121013
-0.0127909
-0.0266154
-0.000956811
-0.00242566
-0.00293919
-0.00502397
-0.00541529
-0.00629145
-0.00810248
-0.00685759
-0.010905
-0.00719253
-0.0138144
-0.00751577
-0.0168449
-0.0078847
-0.0200139
-0.00830622
-0.0233381
-0.00877714
-0.00929595
-0.0268331
-0.000970319
-0.00145534
-0.00297278
-0.00302151
-0.00546783
-0.0037964
-0.00817179
-0.00415363
-0.0109901
-0.00437418
-0.0139152
-0.00459073
-0.0169615
-0.00483832
-0.0201468
-0.00512101
-0.0234873
-0.00543655
-0.00578385
-0.0269994
-0.000979563
-0.000475781
-0.00299585
-0.00100522
-0.00550402
-0.00128823
-0.00821962
-0.00143803
-0.0110489
-0.00154488
-0.0139848
-0.00165481
-0.0170422
-0.00178097
-0.0202385
-0.00192468
-0.0235903
-0.00208483
-0.0022598
-0.0271143
-0.000984526
0.000508745
-0.00300839
0.00101864
-0.00552385
0.00122723
-0.00824597
0.00128409
-0.0110814
0.00129057
-0.0140234
0.00128717
-0.0170868
0.00128241
-0.020289
0.00127754
-0.0236465
0.00127263
0.00126704
-0.0271733
-0.0009852
0.00149394
-0.0030104
0.00304384
-0.00552733
0.00374416
-0.00825085
0.00400761
-0.0110876
0.00412734
-0.0140309
0.00423041
-0.0170955
0.00434699
-0.0202989
0.00448094
-0.0236574
0.00463116
0.00479687
-0.0271872
-0.000981584
0.00247553
-0.00300187
0.00506413
-0.00551447
0.00625676
-0.00823429
0.00672743
-0.0110676
0.00696061
-0.0140072
0.0071701
-0.0170681
0.00740788
-0.0202677
0.00768049
-0.0236223
0.00798575
0.00832261
-0.027148
-0.000973686
0.00344921
-0.00298283
0.00707327
-0.00548527
0.0087592
-0.00819628
0.00943844
-0.0110212
0.00978557
-0.0139526
0.0101014
-0.0170048
0.0104602
-0.0201955
0.0108711
-0.0235408
0.0113311
0.0118384
-0.0270566
-0.000961521
0.00441073
-0.00295327
0.00906503
-0.00543975
0.0112457
-0.00813684
0.0121355
-0.0109487
0.0125974
-0.0138669
0.0130196
-0.0169056
0.0134989
-0.0200823
0.0140478
-0.0234133
0.0146621
0.0153389
-0.0269138
-0.000945115
0.00535585
-0.00291325
0.0110332
-0.00537792
0.0137104
-0.008056
0.0148136
-0.0108499
0.0153914
-0.0137502
0.0159198
-0.0167706
0.0165193
-0.0199283
0.0172055
-0.0232397
0.0179736
0.0188187
-0.0267195
-0.000924498
0.00628035
-0.00286277
0.0129714
-0.00529981
0.0161474
-0.00795375
0.0174675
-0.010725
0.0181626
-0.0136025
0.0187973
-0.0165997
0.0195165
-0.0197335
0.0203393
-0.0230203
0.0212604
0.0222722
-0.0264738
-0.000899714
0.00718006
-0.0028019
0.0148736
-0.00520544
0.0185509
-0.00783013
0.0200922
-0.0105739
0.0209064
-0.013424
0.0216474
-0.0163932
0.0224857
-0.0194981
0.0234442
-0.0227551
0.0245174
0.0256941
-0.026177
-0.000870813
0.00805087
-0.00273067
0.0167335
-0.00509484
0.0209151
-0.00768515
0.0226825
-0.0103968
0.023618
-0.0132147
0.0244654
-0.0161511
0.025422
-0.0192222
0.0265153
-0.0224444
0.0277396
0.0290791
-0.0258293
-0.000837857
0.00888873
-0.00264916
0.0185448
-0.00496805
0.023234
-0.00751884
0.0252333
-0.0101935
0.0262927
-0.0129747
0.0272466
-0.0158736
0.0283209
-0.0189062
0.0295479
-0.0220885
0.030922
0.0324218
-0.0254313
-0.00080092
0.00968965
-0.00255745
0.0203013
-0.00482509
0.0255016
-0.00733122
0.0277395
-0.00996432
0.0289258
-0.0127042
0.0299864
-0.0155609
0.0311776
-0.0185501
0.0325371
-0.0216879
0.0340597
0.0357172
-0.0249833
-0.000760086
0.0104497
-0.00245562
0.0219968
-0.00466603
0.0277121
-0.00712233
0.0301958
-0.00970916
0.0315127
-0.0124031
0.0326804
-0.0152131
0.0339875
-0.0181544
0.0354785
-0.021243
0.0371483
0.0389606
-0.0244864
-0.000715455
0.0111652
-0.00234378
0.0236252
-0.00449093
0.0298592
-0.00689219
0.032597
-0.00942811
0.0340486
-0.0120717
0.0353239
-0.0148304
0.0367463
-0.0177193
0.0383675
-0.0207543
0.0401833
0.0421476
-0.0239413
-0.000667142
0.0118323
-0.00222206
0.0251801
-0.00429984
0.031937
-0.00664084
0.034938
-0.00912124
0.036529
-0.01171
0.0379126
-0.014413
0.0394493
-0.0172451
0.0411996
-0.0202225
0.0431606
0.0452744
-0.0233493
-0.00061528
0.0124476
-0.00209062
0.0266554
-0.00409288
0.0339393
-0.00636833
0.0372135
-0.00878863
0.0389493
-0.0113182
0.0404422
-0.0139611
0.0420922
-0.0167319
0.0439703
-0.019648
0.0460767
0.0483382
-0.0227118
-0.00056002
0.0130076
-0.00194964
0.028045
-0.00387015
0.0358598
-0.00607473
0.0394181
-0.00843033
0.0413049
-0.0108965
0.0429084
-0.0134749
0.0446706
-0.0161797
0.0466752
-0.0190311
0.0489281
0.0513377
-0.0220306
-0.000501534
0.0135092
-0.00179934
0.0293428
-0.00363178
0.0376922
-0.00576009
0.0415464
-0.00804642
0.0435912
-0.010445
0.045307
-0.0129546
0.0471802
-0.0155884
0.0493089
-0.0183716
0.0517113
0.0542743
-0.0213082
-0.000440015
0.0139492
-0.00163998
0.0305428
-0.00337796
0.0394302
-0.00542451
0.0435929
-0.00763696
0.0458037
-0.00996379
0.0476338
-0.0124006
0.0496171
-0.0149573
0.0518656
-0.0176662
0.0544202
0.0571547
-0.0205466
-0.000375679
0.0143249
-0.00147186
0.031639
-0.00310888
0.0410672
-0.00506812
0.0455522
-0.00720211
0.0479376
-0.0094532
0.0498849
-0.0118143
0.0519782
-0.0142893
0.0543406
-0.0169147
0.0570456
0.0599914
-0.0197514
-0.000308764
0.0146336
-0.00129536
0.0326256
-0.00282479
0.0425966
-0.00469108
0.0474184
-0.00674192
0.0499885
-0.00891274
0.0520557
-0.011194
0.0542594
-0.0135798
0.0567264
-0.0160877
0.0595535
0.062811
-0.0189073
-0.000239543
0.0148732
-0.00111088
0.0334969
-0.00252597
0.0440117
-0.00429359
0.0491861
-0.00625681
0.0519517
-0.00834326
0.0541422
-0.0105434
0.0564596
-0.0128568
0.0590399
-0.0152394
0.0619361
0.0656537
-0.0180821
-0.000168374
0.0150415
-0.000918876
0.0342474
-0.00221273
0.0453056
-0.0038759
0.0508492
-0.00574705
0.0538229
-0.00774488
0.05614
-0.00985496
0.0585696
-0.0120911
0.061276
-0.0144599
0.0643049
0.0679369
-0.0167431
-9.59266e-05
0.0151375
-0.000719681
0.0348712
-0.0018854
0.0464713
-0.00343831
0.0524021
-0.00521274
0.0555973
-0.00711811
0.0580453
-0.009132
0.0605835
-0.0112643
0.0634083
-0.0135142
0.0665548
0.070293
-0.0158702
-2.47582e-05
0.0151622
-0.000513063
0.0353595
-0.00154447
0.0475027
-0.0029813
0.053839
-0.00465426
0.0572702
-0.00646391
0.059855
-0.00837987
0.0624995
-0.0104096
0.065438
-0.0125687
0.0687139
0.0725577
-0.0148334
5.32217e-05
0.015109
-0.000297074
0.0357098
-0.00119077
0.0483964
-0.00250545
0.0551536
-0.00407221
0.058837
-0.00578334
0.0615661
-0.00760096
0.0643171
-0.00953001
0.067367
-0.0115873
0.0707711
0.0747105
-0.0137401
0.000130446
0.0149786
-6.10188e-05
0.0359012
-0.00082601
0.0491614
-0.00201095
0.0563386
-0.00346716
0.0602932
-0.00507693
0.0631759
-0.00679463
0.0660348
-0.00862165
0.069194
-0.0105734
0.0727229
0.0767554
-0.0126183
0.000202301
0.0147763
0.000146057
0.0359575
-0.000452594
0.04976
-0.00149819
0.0573842
-0.00284003
0.0616351
-0.004345
0.0646809
-0.00596034
0.0676501
-0.00768297
0.0709167
-0.0095268
0.0745667
0.0786965
-0.011468
0.000272003
0.0145043
0.000358914
0.0358706
-4.90193e-05
0.050168
-0.000969236
0.0583044
-0.00219141
0.0628572
-0.00358783
0.0660773
-0.00509835
0.0691607
-0.00671437
0.0725327
-0.00844715
0.0762995
0.0805284
-0.010279
0.000340909
0.0141633
0.000576922
0.0356346
0.000325628
0.0504193
-0.00042966
0.0590597
-0.00152167
0.0639492
-0.00280605
0.0673617
-0.00420922
0.0705638
-0.00571649
0.0740399
-0.0073356
0.0779186
0.0822441
-0.00905126
0.000407942
0.0137554
0.000795938
0.0352466
0.000719935
0.0504953
0.000129508
0.0596501
-0.000831971
0.0649107
-0.00200041
0.0685301
-0.00329347
0.0718569
-0.00468977
0.0754362
-0.00619324
0.0794221
0.0838396
-0.00778876
0.000472026
0.0132834
0.00101443
0.0347042
0.00112148
0.0503882
0.000695171
0.0600764
-0.000124367
0.0657303
-0.0011715
0.0695772
-0.00235169
0.0730371
-0.00363476
0.0767193
-0.0050213
0.0808086
0.0853126
-0.00649426
0.000532284
0.0127511
0.00122983
0.0340066
0.00152611
0.0500919
0.00127638
0.0603261
0.000603745
0.0664029
-0.000321304
0.0705023
-0.00138497
0.0741007
-0.00255215
0.0778865
-0.00382133
0.0820778
0.0866607
-0.00516951
0.000587794
0.0121633
0.00143953
0.0331549
0.00193122
0.0496003
0.00186684
0.0603905
0.00134883
0.0669209
0.000553734
0.0712974
-0.000396108
0.0750506
-0.00144315
0.0789335
-0.0025948
0.0832295
0.0878826
-0.00381666
0.000637647
0.0115257
0.00164093
0.0321516
0.00233356
0.0489076
0.00246377
0.0602603
0.00210925
0.0672754
0.00144985
0.0719568
0.00062076
0.0758797
-0.000314891
0.0798692
-0.00134011
0.0842547
0.0889822
-0.0024397
0.000681004
0.0108446
0.00183137
0.0310012
0.00272943
0.0480096
0.00306405
0.0599257
0.00288255
0.0674569
0.00236493
0.0724744
0.00166129
0.0765833
0.000849699
0.0806808
-2.7909e-05
0.0851323
0.0900016
-0.00104736
0.000717104
0.0101275
0.00200802
0.0297103
0.00311469
0.0469029
0.00366379
0.0593766
0.00366591
0.0674548
0.00329738
0.0728429
0.00272176
0.0771589
0.00202959
0.0813729
0.0012447
0.0859172
0.0908801
0.000366248
0.000745293
0.00938225
0.00216796
0.0282876
0.00348475
0.0455861
0.00425835
0.058603
0.00445577
0.0672574
0.00424477
0.0730539
0.00380118
0.0776025
0.00323057
0.0819435
0.00257674
0.086571
0.0915989
0.00185794
0.000765046
0.00861721
0.0023081
0.0267446
0.00383449
0.0440597
0.00484233
0.0575952
0.00524784
0.0668519
0.0052044
0.0730974
0.00489875
0.0779082
0.00445404
0.0823883
0.00392774
0.0870973
0.0921874
0.00333917
0.000776009
0.0078412
0.00242527
0.0250953
0.00415829
0.0423267
0.00540943
0.056344
0.00603689
0.0662244
0.0061728
0.0729615
0.00601208
0.0780689
0.00569584
0.0827045
0.00529379
0.0874994
0.0926501
0.0048311
0.000778045
0.00706315
0.00251678
0.0233566
0.00445015
0.0403933
0.00595242
0.0548418
0.00681659
0.0653603
0.00714545
0.0726326
0.00713796
0.0780764
0.00695301
0.0828894
0.00667507
0.0877773
0.0929884
0.00633679
0.00077122
0.00629193
0.00258022
0.0215476
0.00470375
0.0382698
0.00646308
0.0530824
0.00757932
0.064244
0.00811672
0.0720952
0.00827277
0.0779203
0.00822352
0.0829387
0.00807089
0.0879299
0.0932036
0.00785568
0.00075581
0.00553612
0.00261365
0.0196898
0.0049126
0.0359708
0.00693216
0.0510629
0.00831606
0.0628601
0.00907977
0.0713315
0.00941225
0.0775879
0.00950509
0.0828459
0.00947976
0.0879553
0.0932968
0.00938655
0.000732305
0.00480382
0.00261582
0.0178062
0.00507036
0.0335163
0.00734956
0.0487837
0.00901628
0.0611934
0.0100262
0.0703216
0.010551
0.0770631
0.0107946
0.0826022
0.0108997
0.0878501
0.0932677
0.0109289
0.00070141
0.00410241
0.00258636
0.0159213
0.00517117
0.0309315
0.00770442
0.0462504
0.00966778
0.05923
0.0109457
0.0690436
0.0116819
0.0763269
0.0120879
0.0821962
0.0123283
0.0876098
0.093115
0.0124811
0.000664023
0.00343838
0.00252589
0.0140594
0.00521014
0.0282472
0.00798551
0.0434751
0.0102567
0.0569589
0.0118259
0.0674745
0.0127963
0.0753564
0.0133798
0.0816127
0.0137626
0.087227
0.0928367
0.0140408
0.000621208
0.00281718
0.00243611
0.0122445
0.00518387
0.0254995
0.00818167
0.0404773
0.0107676
0.0543729
0.0126518
0.0655903
0.0138828
0.0741254
0.0146632
0.0808323
0.0151985
0.0866917
0.0924298
0.0156055
0.000574146
0.00224303
0.00231979
0.0104989
0.00509102
0.0227282
0.00828252
0.0372858
0.0111839
0.0514716
0.0134061
0.0633681
0.0149275
0.072604
0.0159289
0.0798308
0.016631
0.0859897
0.0918887
0.017172
0.00052408
0.00171895
0.00218064
0.00884233
0.0049328
0.0199761
0.00827937
0.0339392
0.0114881
0.0482629
0.0140687
0.0607875
0.0159131
0.0707596
0.0171652
0.0785787
0.018053
0.0851018
0.091205
0.0187367
0.000472239
0.00124671
0.00202305
0.00729152
0.00471325
0.0172859
0.00816635
0.0304861
0.011663
0.0447663
0.0146171
0.0578334
0.0168188
0.0685579
0.0183566
0.0770409
0.0194554
0.0840031
0.0903658
0.0202946
0.000419776
0.000826936
0.00185183
0.00585946
0.00443925
0.0146984
0.00794158
0.0269838
0.0116929
0.0410149
0.0150271
0.0544992
0.0176198
0.0659653
0.0194836
0.075177
0.0208255
0.0826612
0.0893526
0.0218387
0.000367696
0.00045924
0.00167186
0.0045553
0.00412008
0.0122502
0.00760829
0.0234955
0.0115653
0.0370579
0.0152735
0.050791
0.0182874
0.0629514
0.0205219
0.0729426
0.0221466
0.0810365
0.0881396
0.0233597
0.000316823
0.000142417
0.00148776
0.00338437
0.00376678
0.00997119
0.00717554
0.0200868
0.011273
0.0329604
0.0153321
0.0467319
0.0187898
0.0594937
0.0214415
0.0702908
0.0233968
0.0790812
0.086692
0.0248444
0.000267795
-0.000125378
0.00130374
0.00234843
0.00339128
0.00788365
0.00665819
0.0168199
0.0108164
0.0288022
0.0151821
0.0423662
0.0190928
0.0555831
0.022207
0.0671767
0.0245474