/*--------------------------------*- C++ -*----------------------------------*\
  =========                 |
  \\      /  F ield         | OpenFOAM: The Open Source CFD Toolbox
   \\    /   O peration     | Website:  https://openfoam.org
    \\  /    A nd           | Version:  7
     \\/     M anipulation  |
\*---------------------------------------------------------------------------*/
FoamFile
{
    version     2.0;
    format      ascii;
    class       volVectorField;
    location    "135";
    object      U;
}
// * * * * * * * * * * * * * * * * * * * * * * * * * * * * * * * * * * * * * //

dimensions      [0 1 -1 0 0 0 0];

internalField   nonuniform List<vector> 
8500
(
(0.00022069 -0.0702115 1.10109e-21)
(-0.00455062 -0.154946 -3.15859e-21)
(-0.0177091 -0.200754 -3.68493e-21)
(-0.0354351 -0.218592 3.66802e-21)
(-0.0556582 -0.219642 -3.37692e-21)
(-0.0766114 -0.21273 -1.81178e-21)
(-0.0970648 -0.202856 3.12758e-21)
(-0.116382 -0.191286 3.87537e-21)
(-0.133896 -0.176604 -6.36543e-22)
(-0.149339 -0.155355 1.92777e-21)
(0.00232345 -0.067428 -1.21978e-21)
(-0.00107604 -0.147876 3.75676e-21)
(-0.0151206 -0.190755 -8.59254e-21)
(-0.0345898 -0.206951 7.79639e-21)
(-0.0568729 -0.207426 3.8278e-22)
(-0.0799648 -0.20068 5.83989e-21)
(-0.102638 -0.191422 -1.01705e-20)
(-0.124448 -0.180704 -1.49784e-20)
(-0.144874 -0.166959 -2.87456e-21)
(-0.163858 -0.146589 6.58799e-21)
(0.00418463 -0.0638935 1.04734e-21)
(0.0019537 -0.139485 7.92235e-21)
(-0.0128648 -0.17941 1.88075e-20)
(-0.0337595 -0.194154 -1.70442e-20)
(-0.05761 -0.194268 -3.76762e-21)
(-0.0821728 -0.187828 -3.51767e-21)
(-0.106192 -0.179216 1.78347e-20)
(-0.129367 -0.169274 1.13687e-20)
(-0.151273 -0.156297 2.95007e-21)
(-0.171886 -0.136628 -2.02284e-20)
(0.00573909 -0.0597055 3.68309e-21)
(0.00443254 -0.129979 -4.70445e-21)
(-0.0110504 -0.16697 -3.42729e-20)
(-0.0330521 -0.180477 3.11997e-21)
(-0.0579837 -0.180468 9.49441e-21)
(-0.0833619 -0.17451 -7.25428e-21)
(-0.107859 -0.166631 -7.36478e-22)
(-0.131259 -0.157464 -2.88842e-21)
(-0.153177 -0.145157 6.80521e-21)
(-0.173413 -0.126041 1.92738e-20)
(0.00693225 -0.0549695 2.489e-21)
(0.00626916 -0.119568 -1.43343e-20)
(-0.00977913 -0.153688 3.48688e-20)
(-0.0325805 -0.166187 -1.5608e-20)
(-0.0581303 -0.166312 -1.0673e-22)
(-0.0837068 -0.161053 2.16344e-20)
(-0.107864 -0.154068 -1.01184e-20)
(-0.130397 -0.145773 1.28622e-21)
(-0.150915 -0.134143 -4.12643e-21)
(-0.16876 -0.115477 9.18238e-22)
(0.00772107 -0.0497936 2.96436e-20)
(0.0073903 -0.10846 3.64719e-20)
(-0.00913826 -0.139801 -9.50387e-21)
(-0.0324499 -0.151532 1.79554e-20)
(-0.0581885 -0.152063 5.418e-21)
(-0.0834041 -0.14776 -8.13451e-21)
(-0.106487 -0.141904 -3.03865e-21)
(-0.127164 -0.134694 -1.27464e-20)
(-0.14501 -0.12389 2.73927e-21)
(-0.158532 -0.105644 -1.66596e-20)
(0.00807471 -0.0442846 -2.85111e-20)
(0.00774441 -0.0968571 -1.89108e-20)
(-0.00919105 -0.125534 1.50605e-20)
(-0.0327407 -0.136733 -2.60009e-20)
(-0.0582742 -0.137945 2.71108e-21)
(-0.0826339 -0.134885 3.02221e-20)
(-0.104011 -0.13046 -5.38088e-21)
(-0.121985 -0.124663 3.51455e-20)
(-0.136097 -0.115009 -1.13962e-21)
(-0.143514 -0.097281 -1.34644e-20)
(0.0079753 -0.0385461 2.30867e-20)
(0.00730574 -0.0849489 -4.21838e-20)
(-0.00996664 -0.111089 -1.67886e-20)
(-0.0334907 -0.121977 2.00545e-20)
(-0.0584488 -0.124133 3.75781e-22)
(-0.0815101 -0.122607 -5.62483e-20)
(-0.100644 -0.119959 -3.00989e-21)
(-0.115213 -0.116008 -2.70584e-20)
(-0.124772 -0.108012 -3.40214e-20)
(-0.124489 -0.0910848 1.94213e-20)
(0.00741891 -0.0326787 -1.2845e-20)
(0.00607892 -0.0729159 6.35876e-21)
(-0.0114496 -0.0966487 1.53941e-20)
(-0.0346753 -0.107419 -1.32827e-20)
(-0.0586872 -0.110746 -4.7601e-20)
(-0.0800268 -0.111023 1.65616e-20)
(-0.096436 -0.110498 2.55073e-21)
(-0.106995 -0.108875 3.98326e-20)
(-0.111404 -0.103222 5.05523e-20)
(-0.101957 -0.0876027 -2.2229e-20)
(0.00641707 -0.0267811 1.96487e-20)
(0.00410313 -0.0609309 1.80015e-20)
(-0.0135709 -0.08238 -2.64934e-21)
(-0.0361917 -0.0931847 6.70235e-20)
(-0.0588483 -0.0978523 2.84968e-20)
(-0.0780056 -0.100138 2.12132e-20)
(-0.0911859 -0.102023 2.93751e-20)
(-0.0971229 -0.103183 -1.30964e-20)
(-0.0959078 -0.100666 -1.67046e-20)
(-0.0758301 -0.0870696 -2.52974e-20)
(0.00499827 -0.0209526 -2.1546e-21)
(0.00145552 -0.0491636 -2.82755e-20)
(-0.0162024 -0.0684402 -2.03375e-20)
(-0.0378484 -0.0793772 -3.27726e-20)
(-0.0586554 -0.0854795 -2.5794e-20)
(-0.0750581 -0.0898819 2.57512e-20)
(-0.0843723 -0.0943388 -2.43463e-20)
(-0.0849093 -0.0985896 -1.65531e-20)
(-0.077547 -0.0999737 2.09117e-21)
(-0.0451569 -0.0891666 7.24472e-21)
(0.00320941 -0.0152944 -5.30951e-20)
(-0.00174741 -0.0377847 2.56725e-20)
(-0.0191559 -0.0549847 1.87972e-20)
(-0.0393639 -0.0660946 1.24494e-20)
(-0.0576933 -0.0736368 -2.25539e-20)
(-0.0705759 -0.0801395 -1.89538e-20)
(-0.0751268 -0.0871497 2.70511e-20)
(-0.0691263 -0.094526 -2.14889e-20)
(-0.0548063 -0.100372 -1.62836e-21)
(-0.00813347 -0.0926315 -1.99936e-20)
(0.00111617 -0.00991036 4.39914e-20)
(-0.00535131 -0.0269692 1.80133e-20)
(-0.0221886 -0.0421754 1.12513e-21)
(-0.040378 -0.053443 -2.2687e-20)
(-0.0554275 -0.0623428 1.78409e-21)
(-0.0637626 -0.0708016 2.46359e-20)
(-0.0622822 -0.0801431 -6.82192e-21)
(-0.0480675 -0.0903358 -7.95201e-21)
(-0.0252223 -0.100947 -1.69354e-20)
(0.0374149 -0.0947191 3.07918e-20)
(-0.00119806 -0.00490484 2.93096e-20)
(-0.00916871 -0.0168958 -4.83369e-20)
(-0.0250147 -0.0301859 -3.73044e-20)
(-0.0404739 -0.0415502 1.61859e-20)
(-0.0512453 -0.0516514 3.2958e-20)
(-0.0537125 -0.0618115 2.7491e-20)
(-0.044527 -0.0730801 -2.87794e-20)
(-0.0199032 -0.0854703 5.41612e-20)
(0.0148337 -0.101052 -1.59649e-20)
(0.0948003 -0.0939347 -3.44911e-20)
(-0.00363499 -0.000379173 -4.43348e-20)
(-0.0129866 -0.00774439 2.68627e-20)
(-0.0273204 -0.0192021 -1.27771e-20)
(-0.0392079 -0.0305694 1.32262e-21)
(-0.0445093 -0.041668 1.37643e-20)
(-0.0395097 -0.0531956 -4.3565e-20)
(-0.0205935 -0.0658498 3.7693e-20)
(0.0166139 -0.0795652 -3.60492e-20)
(0.0675987 -0.0995853 5.50354e-20)
(0.168048 -0.0895649 1.84508e-20)
(-0.00608652 0.00357495 9.29047e-21)
(-0.0165759 0.000311949 5.19519e-20)
(-0.0287771 -0.00941918 -1.3012e-20)
(-0.0361277 -0.0206949 1.32791e-20)
(-0.0346058 -0.0325545 1.53477e-20)
(-0.0203125 -0.0450721 -4.6041e-21)
(0.0107114 -0.0584875 3.24655e-20)
(0.062754 -0.0725955 1.9945e-21)
(0.133401 -0.0953365 -3.42709e-20)
(0.256519 -0.080623 4.37469e-20)
(-0.00844167 0.00688279 -2.49136e-20)
(-0.0197043 0.00711727 -4.91217e-20)
(-0.029067 -0.00103207 4.27861e-20)
(-0.0308079 -0.0121272 2.14658e-20)
(-0.0209761 -0.0245023 -9.9481e-20)
(0.00455985 -0.0376318 8.06239e-20)
(0.0501712 -0.0511982 -7.14464e-20)
(0.119511 -0.0649657 1.34797e-21)
(0.21285 -0.0881317 -1.45676e-20)
(0.356332 -0.0667132 -3.96525e-20)
(-0.0105931 0.00949328 2.15454e-20)
(-0.0221422 0.0125466 -2.90407e-21)
(-0.0278782 0.0057896 -1.04949e-20)
(-0.0228594 -0.00504934 -1.2452e-21)
(-0.00313796 -0.0177019 -6.24886e-21)
(0.0356509 -0.0310603 -2.5604e-20)
(0.0982139 -0.0441659 1.0494e-20)
(0.186954 -0.0569395 -1.66514e-20)
(0.305718 -0.0775581 5.34864e-21)
(0.461202 -0.0483536 1.5035e-21)
(-0.0124436 0.0113839 -4.39968e-20)
(-0.0236706 0.0165169 -3.18026e-21)
(-0.0249101 0.0109124 4.8503e-21)
(-0.0119059 0.000380218 1.98401e-21)
(0.0193434 -0.0123052 3.25963e-20)
(0.0733933 -0.02548 -9.4529e-20)
(0.155088 -0.0374838 6.25224e-20)
(0.2648 -0.0487209 -4.60481e-20)
(0.410368 -0.062583 3.60269e-20)
(0.56432 -0.0272445 3.66582e-20)
(-0.0139099 0.0125627 -5.38646e-21)
(-0.024081 0.0189961 2.4632e-20)
(-0.0198692 0.0142636 -3.10675e-20)
(0.00242363 0.00407025 -9.7731e-21)
(0.0468841 -0.00837366 1.883e-20)
(0.11815 -0.0208843 8.98821e-20)
(0.220802 -0.0310843 -1.76298e-20)
(0.352623 -0.0402134 8.65848e-21)
(0.523499 -0.0426849 -4.26463e-20)
(0.663258 -0.00931681 1.79596e-20)
(-0.014924 0.0130656 -1.61368e-20)
(-0.0231719 0.0200095 -1.25898e-20)
(-0.0124539 0.0158467 3.09063e-21)
(0.0205175 0.00603161 1.22708e-20)
(0.0799115 -0.00583491 -3.63977e-20)
(0.170236 -0.0170927 -1.4709e-20)
(0.295075 -0.0246933 -4.55747e-20)
(0.449242 -0.0306426 4.48421e-20)
(0.638844 -0.0202966 4.52577e-20)
(0.762136 -0.005091 -1.79824e-20)
(-0.0154312 0.012952 -7.70141e-21)
(-0.0207498 0.0196465 3.13924e-20)
(-0.00233407 0.0157541 -3.52992e-20)
(0.0428048 0.00639968 -4.11319e-21)
(0.118881 -0.00445854 -1.66666e-20)
(0.229904 -0.013712 3.60688e-20)
(0.377339 -0.0177988 4.5803e-20)
(0.552213 -0.018995 -4.27459e-20)
(0.747989 -0.00186876 4.35859e-20)
(0.886457 0.000639209 5.65705e-21)
(-0.0153821 0.0123016 -2.23e-20)
(-0.0166144 0.0180483 -6.35719e-20)
(0.0108453 0.0141728 6.22005e-20)
(0.0697638 0.00544608 9.00303e-21)
(0.164258 -0.00383605 1.3199e-20)
(0.297229 -0.010149 7.83278e-21)
(0.466558 -0.00974166 3.48237e-20)
(0.65782 -0.00509656 2.4875e-20)
(0.853084 0.0151484 -8.5073e-20)
(0.995461 0.0189819 -3.95061e-20)
(-0.0147285 0.0111996 -7.62687e-20)
(-0.0105446 0.0153976 1.53987e-20)
(0.0274721 0.0113875 -3.51192e-20)
(0.101898 0.00357995 6.86589e-21)
(0.216442 -0.00339142 1.10938e-20)
(0.371952 -0.00567324 -7.84637e-20)
(0.560985 0.000143088 3.41268e-20)
(0.762269 0.0108167 -2.2326e-20)
(0.950547 0.0329988 2.29704e-20)
(1.08311 0.0383276 -7.7284e-21)
(-0.0134116 0.00973165 2.75979e-20)
(-0.00230256 0.0119164 2.98222e-20)
(0.0479589 0.00776316 -1.65558e-21)
(0.139688 0.00133049 -9.64269e-21)
(0.275653 -0.00242057 3.95824e-22)
(0.453281 0.000470136 7.10167e-22)
(0.658079 0.012307 -5.18702e-20)
(0.861957 0.0284151 6.90153e-21)
(1.03679 0.0514197 6.11538e-20)
(1.15435 0.057583 2.63545e-20)
(-0.011358 0.00798054 -1.87028e-20)
(0.0083676 0.00785227 -1.3905e-20)
(0.0727162 0.0037283 5.97289e-20)
(0.183526 -0.000683151 1.51412e-21)
(0.341777 -0.000159361 -2.49147e-20)
(0.539761 0.00891718 6.67729e-20)
(0.754769 0.0268589 1.43588e-20)
(0.953719 0.0472348 5.99692e-22)
(1.11042 0.069978 -2.70309e-20)
(1.2091 0.076029 -3.38541e-20)
(-0.00847624 0.00602424 3.90972e-20)
(0.0217327 0.00346921 -1.09273e-20)
(0.102114 -0.000244873 -6.49056e-21)
(0.233618 -0.00179275 -2.47903e-20)
(0.41423 0.00412426 4.06768e-20)
(0.629284 0.0200575 -1.98924e-20)
(0.847904 0.0435742 -2.20925e-20)
(1.03534 0.0667583 -5.26368e-21)
(1.17098 0.0882329 -1.5581e-20)
(1.25017 0.0932587 1.61366e-20)
(-0.00465827 0.00393741 -1.4405e-20)
(0.0380551 -0.000957281 -8.55824e-20)
(0.136436 -0.00366019 8.93106e-21)
(0.289897 -0.00132894 3.07471e-20)
(0.491883 0.0110288 2.2052e-20)
(0.7193 0.0339731 -7.28207e-20)
(0.934744 0.0620155 4.61437e-20)
(1.10566 0.0865021 -2.06771e-20)
(1.2192 0.10586 3.03248e-20)
(1.27976 0.109288 8.10061e-21)
(0.000215559 0.00179557 -1.57745e-20)
(0.0575726 -0.00514123 3.03922e-20)
(0.175836 -0.00601486 3.96039e-20)
(0.351958 0.00132803 -2.84418e-20)
(0.57309 0.0209357 1.05036e-20)
(0.807165 0.0504693 -6.40265e-20)
(1.01328 0.081672 -1.20472e-20)
(1.16448 0.106084 9.71106e-21)
(1.25635 0.122695 -2.3147e-20)
(1.30022 0.124183 -2.29199e-20)
(0.00626803 -0.000319528 -2.03672e-20)
(0.0804753 -0.00878473 -6.85373e-21)
(0.22029 -0.00681428 -7.17203e-20)
(0.419013 0.00669807 -1.12053e-20)
(0.655846 0.0339728 -1.1826e-21)
(0.890503 0.0691699 3.83826e-21)
(1.08235 0.102065 6.5745e-21)
(1.21232 0.125243 -3.06778e-20)
(1.28399 0.138693 5.74078e-22)
(1.31356 0.13813 1.59361e-20)
(0.0136151 -0.00231497 -5.30914e-21)
(0.106883 -0.011576 2.49168e-20)
(0.269569 -0.00558635 3.50527e-20)
(0.489921 0.0151582 2.19e-20)
(0.738009 0.0500373 -6.48677e-21)
(0.967455 0.0896249 -5.32157e-21)
(1.14154 0.122803 5.23042e-20)
(1.25013 0.143835 6.80072e-21)
(1.30372 0.1539 2.28392e-20)
(1.32146 0.151315 -9.57957e-21)
(0.0223557 -0.00408329 5.08101e-20)
(0.136822 -0.0131895 3.28771e-20)
(0.32322 -0.00189877 -3.3293e-20)
(0.563253 0.0269167 -6.62029e-21)
(0.817554 0.0688603 3.43025e-21)
(1.03677 0.111392 -1.24947e-20)
(1.19102 0.143594 -2.68433e-20)
(1.27913 0.161806 -4.42543e-21)
(1.31703 0.168417 3.19824e-22)
(1.32525 0.163929 1.04389e-20)
(0.0325624 -0.00550134 6.2552e-21)
(0.170211 -0.0132895 -1.79274e-20)
(0.380562 0.00461963 4.24209e-20)
(0.637421 0.042012 2.75817e-20)
(0.892754 0.0900816 8.13513e-22)
(1.0978 0.134081 1.94129e-20)
(1.23137 0.164242 2.85965e-21)
(1.30055 0.179169 -2.00779e-20)
(1.32519 0.18237 1.66394e-20)
(1.32594 0.176136 3.79274e-23)
(0.0442732 -0.00643158 -4.18861e-20)
(0.206843 -0.01154 -1.23314e-20)
(0.440716 0.0142561 -1.11403e-20)
(0.71081 0.0603353 -1.93344e-20)
(0.962279 0.113311 4.52355e-21)
(1.15034 0.157368 9.36093e-23)
(1.2634 0.184627 1.47449e-20)
(1.31559 0.195979 -2.42396e-21)
(1.32927 0.195888 -1.72036e-20)
(1.32427 0.188067 -1.56379e-20)
(0.0574855 -0.00672554 3.40222e-21)
(0.246388 -0.00761807 1.99556e-20)
(0.50264 0.0271951 9.65468e-21)
(0.781908 0.0816667 -3.01083e-20)
(1.02522 0.138168 -1.4975e-21)
(1.19457 0.181 -1.28341e-20)
(1.28799 0.20469 3.25905e-22)
(1.32531 0.21231 5.92358e-21)
(1.33013 0.209086 -6.43651e-21)
(1.32079 0.19982 1.77458e-20)
(0.0721513 -0.00622884 7.99718e-21)
(0.288387 -0.00123187 -1.95291e-20)
(0.565198 0.0435085 -4.60584e-20)
(0.849398 0.105714 4.23571e-20)
(1.08104 0.164301 -3.14699e-21)
(1.2309 0.20478 9.29687e-21)
(1.30606 0.224407 -1.24819e-21)
(1.33063 0.228243 8.73872e-21)
(1.32842 0.222063 -6.89666e-22)
(1.31584 0.211458 -1.37298e-20)
(0.088175 -0.00478756 -1.62917e-20)
(0.332269 0.00786108 2.54149e-20)
(0.627221 0.0631569 2.09591e-20)
(0.912211 0.132142 -3.01879e-20)
(1.12952 0.191393 -4.98742e-21)
(1.25989 0.228559 1.89956e-21)
(1.31846 0.24378 1.88115e-20)
(1.3323 0.243851 9.13477e-22)
(1.32462 0.234887 3.54254e-21)
(1.30968 0.223016 -7.61293e-21)
(0.105413 -0.00225517 1.23597e-20)
(0.377365 0.0198373 -1.11019e-20)
(0.687578 0.0860001 -9.44577e-21)
(0.969535 0.160598 1.61576e-20)
(1.17068 0.219163 5.56277e-21)
(1.28214 0.252223 4.17295e-21)
(1.32594 0.26282 -1.91587e-20)
(1.33092 0.259192 -6.46205e-21)
(1.31908 0.247603 -5.71085e-21)
(1.30246 0.2345 2.50807e-21)
(0.123674 0.00150015 -6.16754e-21)
(0.422941 0.0347947 -1.40256e-22)
(0.745226 0.111813 1.78759e-20)
(1.02081 0.190725 -6.54297e-21)
(1.20469 0.247361 -2.88194e-21)
(1.29827 0.275681 -1.89041e-21)
(1.32917 0.281538 4.62498e-21)
(1.32697 0.274304 7.89554e-21)
(1.31205 0.260227 -2.52034e-22)
(1.29428 0.245897 2.79432e-21)
(0.142725 0.00658848 4.34669e-21)
(0.468225 0.0527457 -1.2187e-21)
(0.799251 0.140303 -3.20196e-21)
(1.06567 0.222167 -2.89523e-21)
(1.23186 0.275762 2.59497e-21)
(1.30888 0.298856 2.00671e-21)
(1.32871 0.299934 -1.84246e-21)
(1.32081 0.289202 6.54645e-22)
(1.30369 0.272753 9.08553e-22)
(1.28518 0.257173 -1.18801e-21)
(0.162298 0.0130917 2.33748e-21)
(0.512437 0.073616 6.65303e-22)
(0.848886 0.171127 -3.97101e-21)
(1.10396 0.254576 -3.15754e-21)
(1.25255 0.304162 3.27643e-21)
(1.31453 0.321674 6.38515e-22)
(1.32502 0.317997 -1.45722e-21)
(1.31271 0.303879 1.36129e-21)
(1.29411 0.285149 7.46018e-22)
(1.2752 0.268283 -8.38608e-22)
(0.182095 0.0210581 -9.14638e-22)
(0.554823 0.0972475 1.85512e-21)
(0.893521 0.203904 1.22358e-20)
(1.13564 0.287614 -5.41498e-21)
(1.26716 0.332368 -2.63751e-21)
(1.3157 0.34406 -2.94067e-21)
(1.31846 0.335699 5.97449e-21)
(1.30285 0.318307 3.94225e-21)
(1.28337 0.297364 3.10102e-21)
(1.26437 0.279171 1.64744e-21)
(0.201798 0.0304987 1.87218e-20)
(0.594678 0.123406 -1.02645e-20)
(0.932697 0.238229 -1.1661e-20)
(1.16079 0.320951 1.57799e-20)
(1.27608 0.360197 8.23584e-21)
(1.31282 0.365935 -5.38256e-22)
(1.30934 0.352995 -9.92776e-21)
(1.29138 0.332434 -7.09141e-21)
(1.27153 0.309327 -7.21424e-21)
(1.25272 0.289773 4.1998e-21)
(0.221081 0.0413853 -2.53195e-20)
(0.63137 0.151792 2.37371e-20)
(0.966096 0.27368 2.72166e-20)
(1.17956 0.354267 -2.66945e-20)
(1.27971 0.387472 -9.17615e-21)
(1.30628 0.38721 5.80031e-21)
(1.29788 0.369822 1.04134e-20)
(1.2784 0.346189 1.59653e-21)
(1.25862 0.320949 -2.41669e-22)
(1.24024 0.300019 -5.64227e-21)
(0.239616 0.0536497 -3.63391e-21)
(0.66435 0.182048 -3.33662e-20)
(0.993523 0.30983 -3.56148e-20)
(1.19217 0.387251 3.96748e-20)
(1.27845 0.414017 -4.47863e-21)
(1.29641 0.407788 8.04709e-21)
(1.28428 0.386104 1.53252e-21)
(1.26397 0.359486 -4.37005e-21)
(1.24462 0.332133 2.33635e-21)
(1.22682 0.309841 -2.62064e-22)
(0.257086 0.0671855 7.37946e-21)
(0.693162 0.213775 2.06501e-20)
(1.0149 0.346248 1.16762e-20)
(1.19889 0.419604 -9.18853e-21)
(1.27264 0.439657 -1.4051e-20)
(1.28348 0.427563 -1.29313e-20)
(1.26869 0.401753 -2.56045e-21)
(1.24816 0.372243 6.60826e-21)
(1.2295 0.34281 -1.38862e-21)
(1.21226 0.319152 3.11957e-21)
(0.273192 0.0818507 -2.78336e-20)
(0.717453 0.246539 -2.58932e-20)
(1.03023 0.382504 -4.05402e-21)
(1.2 0.451033 -4.59399e-21)
(1.26263 0.464219 -1.02535e-20)
(1.26775 0.446417 6.17755e-21)
(1.25125 0.416666 -1.12955e-21)
(1.23101 0.384382 -5.76497e-21)
(1.21327 0.352993 5.19652e-21)
(1.19648 0.3278 -7.11672e-21)
(0.287659 0.0974712 6.69599e-21)
(0.736968 0.279888 2.19146e-20)
(1.03961 0.418179 1.8901e-20)
(1.19582 0.481258 2.04176e-20)
(1.24876 0.487526 4.87586e-22)
(1.24944 0.464223 1.72715e-20)
(1.23206 0.430726 1.02434e-21)
(1.21259 0.395794 -1.94184e-20)
(1.19603 0.362694 1.35689e-20)
(1.18005 0.335687 4.91805e-21)
(0.300248 0.113845 1.80099e-20)
(0.751549 0.313362 4.00019e-20)
(1.04319 0.452863 -5.3046e-21)
(1.18666 0.510009 -2.5633e-20)
(1.23131 0.509406 1.14679e-20)
(1.22874 0.48085 -1.17211e-20)
(1.21122 0.443811 -1.51191e-20)
(1.19298 0.406346 -1.04015e-21)
(1.17774 0.371622 -1.09488e-20)
(1.16312 0.343 4.07811e-21)
(0.310756 0.130748 8.36852e-21)
(0.761126 0.346502 6.06314e-21)
(1.04118 0.486165 4.92884e-20)
(1.17285 0.537024 9.08319e-21)
(1.21059 0.529688 -7.79501e-21)
(1.20584 0.496161 -3.97788e-21)
(1.18889 0.455795 2.27681e-20)
(1.17221 0.415959 1.82065e-20)
(1.15843 0.379666 8.78439e-21)
(1.14548 0.349489 -1.08713e-21)
(0.319024 0.147938 1.72165e-21)
(0.765708 0.378856 -4.07493e-20)
(1.03385 0.51771 -5.78058e-20)
(1.15476 0.562056 1.65751e-21)
(1.18686 0.548201 1.09378e-20)
(1.18095 0.510009 -1.49626e-20)
(1.16516 0.466549 -3.27152e-20)
(1.15031 0.424519 -9.42489e-21)
(1.13821 0.38673 -5.34971e-22)
(1.12713 0.355075 3.64084e-21)
(0.324933 0.165166 -1.44381e-20)
(0.76538 0.40999 3.61348e-20)
(1.0215 0.54715 3.45672e-20)
(1.13271 0.584871 -3.12849e-20)
(1.16041 0.56477 4.81707e-21)
(1.15424 0.522255 3.49667e-20)
(1.14012 0.475951 -7.05579e-21)
(1.12738 0.431913 6.01349e-21)
(1.11714 0.392722 -2.39149e-21)
(1.1081 0.35966 -3.0383e-21)
(0.328411 0.182175 -3.22437e-20)
(0.760304 0.439484 -5.70507e-20)
(1.00452 0.574178 -1.11109e-20)
(1.10701 0.605245 1.80119e-20)
(1.13147 0.579229 1.69892e-20)
(1.12587 0.53275 -3.43841e-20)
(1.11388 0.483876 1.78817e-20)
(1.10349 0.438033 -8.25816e-21)
(1.09529 0.397548 5.95348e-21)
(1.08847 0.363179 4.4251e-22)
(0.329433 0.198709 2.46353e-20)
(0.750726 0.466932 1.89246e-21)
(0.983248 0.598515 -5.4338e-21)
(1.07793 0.62296 -2.17525e-20)
(1.10033 0.591416 1.32879e-20)
(1.09604 0.541354 3.28349e-21)
(1.08657 0.490206 -9.25387e-21)
(1.07875 0.442777 2.28451e-21)
(1.07273 0.401115 -1.02802e-21)
(1.06833 0.365558 -3.97053e-22)
(0.32804 0.214525 -6.5872e-21)
(0.736963 0.491991 -8.93471e-21)
(0.957825 0.619808 2.31347e-20)
(1.0459 0.63788 1.06476e-20)
(1.06731 0.601159 -1.41333e-20)
(1.06492 0.54795 1.78098e-20)
(1.05834 0.494832 1.7222e-21)
(1.05327 0.446049 2.40156e-21)
(1.04956 0.403326 2.81185e-21)
(1.04775 0.366707 5.19519e-22)
(0.324323 0.229371 4.2375e-20)
(0.719323 0.514504 3.26325e-20)
(0.928462 0.637701 -2.6947e-21)
(1.01137 0.649761 -4.62711e-21)
(1.03264 0.608359 -5.55094e-21)
(1.03271 0.552422 -2.56264e-21)
(1.02931 0.497654 2.34693e-21)
(1.02716 0.447767 9.77459e-22)
(1.02586 0.404088 -2.26123e-21)
(1.02681 0.366532 -4.31233e-21)
(0.318355 0.242898 2.88185e-21)
(0.697906 0.534143 5.27054e-21)
(0.895932 0.652283 -2.86003e-20)
(0.974739 0.658368 1.22033e-20)
(0.996606 0.612899 1.78721e-21)
(0.999595 0.55467 -3.45861e-21)
(0.999646 0.498581 1.60324e-21)
(1.00052 0.447856 1.15649e-21)
(1.00176 0.403335 -4.1502e-21)
(1.00572 0.36498 5.39407e-21)
(0.310127 0.254847 -1.61065e-20)
(0.672934 0.550361 -1.12127e-20)
(0.860784 0.663318 8.3424e-21)
(0.936305 0.663689 1.37291e-21)
(0.959454 0.61468 -5.01296e-21)
(0.965777 0.554599 3.50502e-21)
(0.969476 0.497525 2.63158e-21)
(0.973473 0.44623 -1.03226e-20)
(0.977505 0.401003 2.41513e-20)
(0.985112 0.362085 9.52528e-21)
(0.29987 0.265019 -1.18465e-20)
(0.644962 0.562941 2.72747e-20)
(0.823312 0.670579 -1.64709e-20)
(0.896395 0.665636 -2.97173e-21)
(0.921448 0.61362 -1.50203e-21)
(0.93144 0.552132 -2.297e-21)
(0.938916 0.494403 -8.85626e-21)
(0.94613 0.442759 4.64443e-21)
(0.953513 0.396909 -1.26641e-21)
(0.965663 0.357899 -4.4219e-21)
(0.287829 0.27338 -1.43968e-21)
(0.614423 0.571768 -8.23904e-21)
(0.783929 0.673884 3.291e-21)
(0.855359 0.66413 -9.80908e-22)
(0.882854 0.609659 6.09563e-21)
(0.896769 0.547218 5.2496e-21)
(0.908093 0.489169 1.64925e-20)
(0.918685 0.437341 -1.2175e-20)
(0.930132 0.390687 -2.31295e-20)
(0.946678 0.351797 9.69197e-21)
(0.27414 0.279735 -1.19431e-21)
(0.581765 0.576711 -2.76549e-21)
(0.743059 0.673136 1.08661e-21)
(0.813546 0.659111 8.16548e-21)
(0.843936 0.602757 -1.31742e-20)
(0.861962 0.539827 -2.08439e-20)
(0.877194 0.481819 -6.27156e-21)
(0.891405 0.43009 -1.41216e-21)
(0.907356 0.382507 3.04939e-20)
(0.925391 0.340068 -6.81915e-21)
(0.25902 0.283938 2.46644e-21)
(0.547425 0.577666 -3.86407e-21)
(0.70113 0.668284 -3.39423e-23)
(0.771307 0.650542 6.47751e-22)
(0.804962 0.592888 -8.78224e-21)
(0.827235 0.529933 3.92223e-20)
(0.846474 0.472325 -2.70645e-20)
(0.8645 0.421092 3.23028e-20)
(0.884135 0.374234 -2.27252e-20)
(0.901992 0.333226 -2.99128e-20)
(0.242715 0.285882 -1.90188e-21)
(0.511832 0.574558 -4.09725e-22)
(0.658567 0.659311 2.14114e-22)
(0.728987 0.638418 1.39702e-20)
(0.766198 0.580046 -5.51519e-21)
(0.792815 0.51752 8.42278e-21)
(0.816138 0.460637 1.59496e-20)
(0.837999 0.410078 -8.40463e-21)
(0.860831 0.363775 -2.14511e-20)
(0.879743 0.323072 2.97761e-20)
(0.225478 0.285487 1.17908e-20)
(0.475417 0.567353 1.57234e-20)
(0.61579 0.646232 -1.48197e-20)
(0.686928 0.622758 -1.31722e-20)
(0.72791 0.564245 4.49327e-20)
(0.758921 0.5026 -4.54203e-20)
(0.786338 0.446801 5.41077e-20)
(0.811928 0.397268 -1.36175e-20)
(0.837679 0.35206 1.45782e-20)
(0.858301 0.312522 2.69048e-20)
(0.207568 0.282703 -4.52762e-21)
(0.438606 0.556052 -1.50845e-20)
(0.573206 0.629089 -8.61627e-21)
(0.645462 0.603607 -4.92176e-21)
(0.690363 0.54552 5.16341e-21)
(0.725773 0.485198 -1.16264e-20)
(0.757246 0.430825 -1.62189e-20)
(0.786443 0.382602 -3.49074e-20)
(0.814998 0.338736 3.45567e-20)
(0.837716 0.300566 -1.12622e-20)
(0.189246 0.277509 2.71757e-20)
(0.40182 0.540698 -3.12046e-21)
(0.531214 0.607958 -1.20446e-20)
(0.604912 0.581036 1.57249e-20)
(0.653815 0.523927 -2.82123e-20)
(0.69358 0.465359 7.47549e-20)
(0.729028 0.412758 -3.97543e-20)
(0.761712 0.366159 3.59362e-20)
(0.793007 0.323941 -6.60014e-20)
(0.81802 0.287328 -1.74585e-20)
(0.170772 0.26991 -8.95257e-21)
(0.365471 0.521367 2.87666e-20)
(0.490198 0.582943 6.87547e-21)
(0.565594 0.555139 -1.44658e-20)
(0.618516 0.499542 -2.48786e-20)
(0.662549 0.443144 -1.03025e-21)
(0.701858 0.392651 1.32643e-20)
(0.737899 0.347973 -3.22659e-20)
(0.771861 0.307656 1.59564e-20)
(0.799259 0.272751 2.132e-21)
(0.152404 0.259941 -4.67595e-20)
(0.329956 0.49817 -1.15539e-20)
(0.450527 0.554175 -3.12955e-21)
(0.527806 0.526032 3.71133e-20)
(0.58471 0.472461 -3.43514e-20)
(0.632879 0.418635 -9.00144e-21)
(0.675906 0.370575 -5.40867e-21)
(0.715162 0.328105 1.00785e-20)
(0.751699 0.289925 -1.26033e-20)
(0.781504 0.256873 -1.96861e-20)
(0.134394 0.247661 4.10035e-20)
(0.295656 0.471253 -2.32129e-20)
(0.412553 0.521814 1.19651e-21)
(0.491837 0.493857 -5.61676e-20)
(0.552627 0.4428 6.07935e-20)
(0.604765 0.391926 -1.91988e-20)
(0.651337 0.346612 1.15056e-20)
(0.693646 0.306621 9.9491e-21)
(0.732645 0.270792 2.88642e-20)
(0.764829 0.239741 -1.17729e-20)
(0.116983 0.233155 -1.6732e-20)
(0.262936 0.440792 4.80722e-20)
(0.376608 0.486046 2.7035e-20)
(0.457956 0.458775 4.40278e-20)
(0.522489 0.410691 -1.02198e-20)
(0.578391 0.363131 4.09644e-21)
(0.628309 0.32086 3.28915e-20)
(0.673491 0.283602 7.28396e-21)
(0.714814 0.250323 7.00413e-22)
(0.749312 0.221425 -1.40257e-20)
(0.100403 0.216531 -3.80126e-20)
(0.232135 0.406993 -2.83395e-21)
(0.343005 0.447081 -1.57894e-20)
(0.42642 0.420967 -7.06259e-20)
(0.494502 0.376287 -6.81154e-20)
(0.55393 0.332379 1.13967e-20)
(0.606971 0.293427 -2.79427e-20)
(0.654825 0.25914 1.77345e-20)
(0.698316 0.228595 9.6402e-21)
(0.735028 0.202003 2.02524e-20)
(0.0848726 0.197922 5.54934e-20)
(0.203572 0.370088 -4.53641e-20)
(0.312031 0.405154 -2.29641e-20)
(0.397464 0.380634 4.08121e-20)
(0.468861 0.339756 4.62444e-20)
(0.531546 0.299811 -1.52469e-20)
(0.587463 0.264437 -1.93126e-21)
(0.63777 0.233339 -5.5283e-20)
(0.683255 0.205698 -3.12559e-20)
(0.722049 0.181565 1.18883e-20)
(0.0705925 0.177477 -3.1516e-20)
(0.177538 0.330336 1.32878e-20)
(0.283952 0.360518 4.86611e-20)
(0.371304 0.337995 -2.16903e-20)
(0.445742 0.301281 1.65279e-21)
(0.511389 0.265584 6.1451e-20)
(0.569913 0.234023 2.87007e-21)
(0.622436 0.206313 5.28051e-20)
(0.669727 0.181732 2.20102e-20)
(0.710444 0.160207 -3.49621e-20)
(0.057748 0.155369 4.3376e-20)
(0.154298 0.288018 4.74645e-21)
(0.259006 0.313447 3.12104e-21)
(0.348137 0.293285 4.42568e-20)
(0.425308 0.26106 -5.94407e-21)
(0.493596 0.229867 -3.85123e-20)
(0.554437 0.202331 1.88339e-20)
(0.608927 0.178186 -3.00621e-20)
(0.657821 0.156806 -1.25936e-20)
(0.700273 0.138031 1.27004e-20)
(0.0465041 0.131783 -2.70675e-20)
(0.134088 0.243434 -5.18501e-20)
(0.237406 0.264233 1.19257e-20)
(0.328137 0.246754 -2.33645e-20)
(0.407702 0.219303 -1.41477e-20)
(0.478287 0.19284 3.41547e-20)
(0.541141 0.169516 -8.26589e-21)
(0.597332 0.149093 7.66492e-21)
(0.647616 0.131038 -9.28658e-21)
(0.691594 0.115145 1.83841e-20)
(0.0370057 0.106922 9.72783e-21)
(0.117111 0.196904 3.48412e-20)
(0.219337 0.213182 -4.82889e-20)
(0.311455 0.198662 2.28434e-20)
(0.39305 0.176231 -1.03945e-20)
(0.46557 0.154692 -2.92236e-20)
(0.530115 0.135742 2.38073e-20)
(0.587731 0.119174 5.00954e-21)
(0.639181 0.104553 -7.74644e-22)
(0.684454 0.0916572 -2.13693e-20)
(0.0293754 0.0810016 3.16334e-21)
(0.103541 0.148762 1.1158e-20)
(0.204953 0.160614 4.36023e-20)
(0.298219 0.149283 -8.33519e-21)
(0.381457 0.132077 -6.56418e-21)
(0.455533 0.115622 2.44186e-21)
(0.521436 0.101178 1.03278e-21)
(0.580194 0.0885776 8.87343e-21)
(0.632577 0.0774816 -1.1637e-20)
(0.678893 0.0676857 -7.40249e-21)
(0.023713 0.0542464 -7.93385e-21)
(0.0935182 0.0993555 -1.35854e-20)
(0.19438 0.106857 -3.379e-20)
(0.288533 0.0989006 1.69896e-20)
(0.373008 0.0870784 1.38628e-20)
(0.448251 0.0758333 5.87465e-22)
(0.515167 0.0660014 -2.31323e-20)
(0.574775 0.0574559 -1.02434e-20)
(0.627854 0.0499561 8.14389e-21)
(0.67495 0.0433399 8.6935e-21)
(0.0200942 0.0268903 1.37027e-21)
(0.0871478 0.0490413 -2.82376e-21)
(0.187715 0.0522525 6.42503e-21)
(0.282475 0.0478026 -4.35159e-21)
(0.367769 0.0414813 -3.80883e-21)
(0.443778 0.035538 -2.58552e-21)
(0.511356 0.0303943 4.74824e-21)
(0.571515 0.025966 1.80726e-20)
(0.625046 0.0221099 2.62416e-21)
(0.67264 0.0187078 -4.6464e-21)
(0.0185705 -0.000826908 1.6963e-21)
(0.0845022 -0.00181661 -4.66427e-21)
(0.185021 -0.00285652 -5.28299e-21)
(0.280097 -0.00371594 -3.66484e-21)
(0.365785 -0.00446441 3.48766e-21)
(0.442152 -0.00504946 1.57294e-21)
(0.510034 -0.00545758 -1.56746e-21)
(0.570442 -0.00572697 -7.12717e-21)
(0.624164 -0.00589816 2.34471e-21)
(0.671922 -0.0060057 -2.19218e-21)
(0.0191682 -0.0286618 -1.68108e-21)
(0.0856188 -0.0528497 4.62416e-21)
(0.186332 -0.058121 5.24369e-21)
(0.281429 -0.0553572 -5.01921e-21)
(0.367077 -0.050506 4.4163e-21)
(0.443392 -0.0457123 2.21035e-21)
(0.511218 -0.0413676 -3.52773e-21)
(0.571575 -0.0374628 -4.09363e-21)
(0.625261 -0.0339338 6.02149e-22)
(0.672966 -0.0307186 -1.70198e-21)
(0.0218888 -0.0563695 1.8443e-21)
(0.0904999 -0.103688 -5.50921e-21)
(0.19165 -0.113191 1.22801e-20)
(0.286471 -0.106822 -1.07843e-20)
(0.371646 -0.0963898 -5.18492e-22)
(0.447498 -0.0862329 -7.18565e-21)
(0.51491 -0.0771491 1.16647e-20)
(0.574911 -0.069083 1.58479e-20)
(0.628308 -0.0618703 2.8222e-21)
(0.675659 -0.0553905 -6.07841e-21)
(0.0267084 -0.0837064 -1.55902e-21)
(0.0991129 -0.153962 -1.15456e-20)
(0.200946 -0.167718 -2.69131e-20)
(0.295199 -0.157813 2.3303e-20)
(0.379474 -0.141863 4.78329e-21)
(0.454454 -0.126394 4.24881e-21)
(0.521092 -0.112614 -2.08978e-20)
(0.580435 -0.100422 -1.23468e-20)
(0.63329 -0.0895525 -2.76005e-21)
(0.679994 -0.0798383 1.87599e-20)
(0.0335782 -0.110432 -5.48499e-21)
(0.111391 -0.203309 6.96606e-21)
(0.21416 -0.221357 4.85362e-20)
(0.307563 -0.208034 -4.38708e-21)
(0.390517 -0.186674 -1.24963e-20)
(0.464223 -0.16598 8.93654e-21)
(0.529734 -0.147577 6.77434e-22)
(0.588119 -0.131319 3.13967e-21)
(0.640188 -0.116839 -6.90359e-21)
(0.685966 -0.103943 -1.82136e-20)
(0.0424248 -0.136312 -3.67691e-21)
(0.127232 -0.251368 2.00651e-20)
(0.231201 -0.273767 -4.86659e-20)
(0.323488 -0.257196 2.10215e-20)
(0.404713 -0.230577 2.10991e-22)
(0.476752 -0.204779 -2.67117e-20)
(0.54079 -0.181855 1.18401e-20)
(0.597923 -0.161615 -1.12434e-21)
(0.648964 -0.143594 4.4873e-21)
(0.693551 -0.127596 -1.29092e-21)
(0.053151 -0.16112 -4.19891e-20)
(0.1465 -0.297793 -5.03303e-20)
(0.251946 -0.324618 1.32875e-20)
(0.342873 -0.305014 -2.40945e-20)
(0.421978 -0.273333 -6.74559e-21)
(0.491969 -0.242586 1.01941e-20)
(0.554197 -0.215271 3.76027e-21)
(0.609789 -0.191157 1.38989e-20)
(0.659568 -0.16968 -2.98931e-21)
(0.702716 -0.15068 1.62045e-20)
(0.0656363 -0.184638 4.01241e-20)
(0.169029 -0.342246 2.58481e-20)
(0.276245 -0.373589 -1.94072e-20)
(0.365594 -0.351215 3.27304e-20)
(0.442209 -0.314707 -2.70839e-21)
(0.509785 -0.279201 -3.54758e-20)
(0.56988 -0.247652 6.20815e-21)
(0.623652 -0.219796 -3.77778e-20)
(0.671939 -0.194968 1.51562e-21)
(0.71342 -0.173079 1.36569e-20)
(0.0797381 -0.206664 -2.93317e-20)
(0.194616 -0.384407 5.26942e-20)
(0.303918 -0.420371 2.07284e-20)
(0.391502 -0.395533 -2.59219e-20)
(0.465283 -0.354477 3.55035e-22)
(0.530097 -0.314432 6.51889e-20)
(0.587748 -0.278834 2.87812e-21)
(0.639431 -0.24739 2.88617e-20)
(0.686009 -0.219331 3.51312e-20)
(0.725616 -0.194681 -1.96795e-20)
(0.095293 -0.227007 1.64189e-20)