/*--------------------------------*- C++ -*----------------------------------*\
  =========                 |
  \\      /  F ield         | OpenFOAM: The Open Source CFD Toolbox
   \\    /   O peration     | Website:  https://openfoam.org
    \\  /    A nd           | Version:  7
     \\/     M anipulation  |
\*---------------------------------------------------------------------------*/
FoamFile
{
    version     2.0;
    format      ascii;
    class       volVectorField;
    location    "40";
    object      U;
}
// * * * * * * * * * * * * * * * * * * * * * * * * * * * * * * * * * * * * * //

dimensions      [0 1 -1 0 0 0 0];

internalField   nonuniform List<vector> 
2125
(
(1.09281 -0.0943225 -7.40163e-21)
(0.957771 -0.0568072 -2.03905e-20)
(1.05673 -0.073277 -3.6988e-21)
(0.798981 -0.0180449 1.35463e-20)
(0.914307 -0.0391238 -1.59022e-21)
(1.01732 -0.0535856 1.78406e-20)
(0.511852 0.0273312 3.47324e-20)
(0.631709 0.0128673 -7.53226e-20)
(0.751844 -0.00452599 1.59028e-20)
(0.868473 -0.023468 -1.27324e-20)
(0.974843 -0.0356063 -1.89677e-20)
(0.359358 0.0405449 6.8652e-21)
(0.469646 0.0331329 -5.88519e-20)
(0.585436 0.0214449 4.11634e-20)
(0.703533 0.00666004 -3.30116e-20)
(0.820622 -0.0100655 3.41123e-20)
(0.929593 -0.0197188 -1.36198e-21)
(0.228945 0.0420932 -9.48798e-23)
(0.323884 0.0418883 2.33528e-20)
(0.428103 0.0368876 1.37946e-21)
(0.539183 0.0277682 -3.28645e-20)
(0.654425 0.0154574 -7.6958e-22)
(0.771103 0.000893759 -1.48596e-20)
(0.881905 -0.00632127 1.83889e-20)
(0.125816 0.034414 4.18681e-21)
(0.201893 0.0402022 1.21394e-20)
(0.28971 0.0416388 -2.09512e-20)
(0.387514 0.03875 5.01771e-20)
(0.493286 0.0319414 -1.34018e-22)
(0.604862 0.0218789 -4.17901e-21)
(0.720226 0.00927537 -2.84237e-20)
(0.832101 0.00417512 -4.45757e-21)
(0.107639 0.0308657 3.12966e-21)
(0.176372 0.0372459 -8.62044e-21)
(0.257032 0.0400011 -1.02943e-20)
(0.348135 0.0389212 -6.78375e-21)
(0.448046 0.034137 -4.87754e-21)
(0.555145 0.0260268 6.5352e-21)
(0.668228 0.0150352 2.71428e-20)
(0.780443 0.0113636 2.11906e-20)
(0.042377 0.0177356 1.71167e-20)
(0.0908643 0.0267439 -4.07356e-20)
(0.152486 0.0334253 2.35089e-20)
(0.226015 0.0372036 2.06031e-20)
(0.3102 0.0376462 -5.36173e-20)
(0.403734 0.0346013 1.49386e-20)
(0.505517 0.0281174 -7.03461e-22)
(0.615211 0.0182694 1.12289e-20)
(0.727042 0.0148824 -2.32575e-20)
(0.00678896 0.0037013 4.55368e-20)
(0.0335246 0.0140334 -1.34424e-20)
(0.0755261 0.022211 1.96873e-20)
(0.130316 0.0289473 1.26309e-20)
(0.196805 0.0334916 -7.45808e-21)
(0.273919 0.0352075 1.73791e-20)
(0.360608 0.0336582 -7.07862e-21)
(0.456175 0.0285122 4.15113e-20)
(0.561054 0.0192703 -6.81989e-20)
(0.671621 0.0143827 -2.42808e-20)
(0.00428833 0.00209572 -1.32895e-20)
(0.025663 0.0102381 5.25894e-20)
(0.0616413 0.0174253 -4.27656e-20)
(0.109923 0.024017 -1.45564e-21)
(0.169527 0.0291153 -2.07712e-20)
(0.239504 0.0319114 2.30572e-20)
(0.31895 0.0317084 2.514e-20)
(0.407336 0.0277848 -1.26331e-20)
(0.505396 0.0187326 1.16465e-20)
(0.612844 0.00949716 1.46083e-20)
(0.00215817 0.000522706 2.45912e-21)
(0.0187754 0.00644812 -1.45745e-20)
(0.0492094 0.0125363 1.82425e-20)
(0.0913458 0.0188286 -1.77095e-20)
(0.144294 0.0243131 -2.17406e-20)
(0.207181 0.0280583 -9.75307e-21)
(0.27914 0.0291904 -3.7534e-20)
(0.359461 0.0267776 2.34077e-20)
(0.448204 0.0185543 4.36741e-20)
(0.54822 0.00252089 -1.1979e-20)
(0.000383134 -0.000984053 7.93446e-21)
(0.0128337 0.00275337 6.4212e-21)
(0.0382123 0.00767982 -1.62337e-21)
(0.0746038 0.0135561 -3.0107e-20)
(0.1212 0.0192907 3.19492e-20)
(0.177183 0.0238868 3.62061e-20)
(0.241686 0.0264182 1.26849e-20)
(0.313601 0.0261357 -2.44823e-21)
(0.391469 0.0215641 -4.43506e-20)
(0.47776 0.00563204 1.51572e-20)
(-0.00105626 -0.00239492 -2.41487e-20)
(0.00779808 -0.000766544 -3.544e-21)
(0.0286123 0.00297541 7.23274e-21)
(0.0596867 0.00834846 2.38929e-21)
(0.100299 0.0142088 9.36057e-21)
(0.149703 0.0195337 -5.77017e-20)
(0.207086 0.0234042 3.48776e-20)
(0.271275 0.0252309 -4.16009e-20)
(0.340817 0.0243077 3.08644e-20)
(0.421534 0.0119371 3.46363e-20)
(-0.00218343 -0.00368478 1.06007e-20)
(0.00361769 -0.0040431 -7.34085e-21)
(0.0203522 -0.00147425 3.41733e-21)
(0.0465517 0.00333099 -1.57298e-20)
(0.0815909 0.0091943 2.00147e-21)
(0.124814 0.01508 -4.0758e-21)
(0.175521 0.0200727 -2.1724e-20)
(0.232675 0.0235779 1.17267e-20)
(0.295091 0.0250224 2.17431e-20)
(0.369563 0.015504 -3.22431e-20)
(-0.00302504 -0.0048331 -1.39716e-20)
(0.000231732 -0.00701876 -2.22017e-20)
(0.0133557 -0.00558188 1.81313e-20)
(0.0351231 -0.00138901 1.82609e-20)
(0.0650146 0.00435791 -4.53752e-20)
(0.102478 0.0106087 4.57196e-20)
(0.146943 0.0164282 -5.16083e-20)
(0.197526 0.0211116 1.44013e-20)
(0.25321 0.0238437 -1.56267e-20)
(0.320544 0.0161211 -2.36167e-20)
(-0.00361015 -0.00582372 7.30538e-21)
(-0.00242847 -0.00964638 1.77348e-20)
(0.00753136 -0.00927405 4.37024e-21)
(0.0252991 -0.00571836 5.17145e-21)
(0.0504673 -0.000196845 1.06324e-22)
(0.0825936 0.00622249 7.83999e-21)
(0.121227 0.0125681 1.59452e-20)
(0.165624 0.0180001 2.97631e-20)
(0.214888 0.0214252 -2.9831e-20)
(0.274932 0.0151272 1.02559e-20)
(-0.00396924 -0.00664442 -1.67816e-20)
(-0.00443712 -0.0118886 1.81718e-22)
(0.00277603 -0.0124901 5.8366e-21)
(0.0169581 -0.0095763 -1.12372e-20)
(0.0378164 -0.00437229 2.27544e-20)
(0.0650173 0.00203688 -5.43865e-20)
(0.0982186 0.00864029 2.95228e-20)
(0.136794 0.0144808 -2.73312e-20)
(0.179956 0.0182787 5.29061e-20)
(0.232838 0.0133185 1.36576e-20)
(-0.00413333 -0.00728657 9.15524e-21)
(-0.0058716 -0.0137169 -1.93618e-20)
(-0.0010206 -0.0151814 -6.23166e-21)
(0.009966 -0.0128943 9.09268e-21)
(0.0269104 -0.00807892 1.57307e-20)
(0.0495841 -0.00183127 2.75172e-21)
(0.077741 0.00480691 -9.90654e-21)
(0.110854 0.0107971 2.29733e-20)
(0.148229 0.014776 -1.29837e-20)
(0.194207 0.0110888 -1.25049e-21)
(-0.00413323 -0.00774463 2.36777e-20)
(-0.00681026 -0.0151114 7.16172e-21)
(-0.00397228 -0.0173111 1.35744e-21)
(0.00418233 -0.0156167 -1.99028e-20)
(0.0175884 -0.0112385 1.82449e-20)
(0.0361172 -0.00527286 6.24831e-21)
(0.0596072 0.00122416 3.1268e-21)
(0.0876161 0.00717336 -7.20078e-21)
(0.119534 0.0112137 7.92237e-21)
(0.158961 0.00870193 1.36778e-20)
(-0.00399901 -0.00801596 -1.73753e-20)
(-0.00733071 -0.0160601 1.03555e-20)
(-0.0061929 -0.0188542 -1.24933e-21)
(-0.000534824 -0.0177018 2.8431e-20)
(0.00968717 -0.0137874 -3.20771e-20)
(0.0244379 -0.00819385 1.08113e-20)
(0.0436312 -0.00197125 -6.91699e-21)
(0.0669004 0.00379961 -6.13791e-21)
(0.0937128 0.00782189 -1.87942e-20)
(0.127008 0.00635599 7.33777e-21)
(-0.00375951 -0.00810047 7.48987e-21)
(-0.00750841 -0.0165593 -2.04405e-20)
(-0.00779377 -0.0197976 -1.20106e-20)
(-0.00432449 -0.0191226 -1.94101e-20)
(0.00304684 -0.0156792 5.37847e-21)
(0.0143725 -0.0105206 -1.88692e-21)
(0.029634 -0.00467019 -1.74921e-20)
(0.048535 0.000822783 -3.71423e-21)
(0.0706147 0.00476576 -3.46326e-22)
(0.0982401 0.00419035 8.3919e-21)
(-0.00344245 -0.00800067 1.29999e-20)
(-0.00741559 -0.0166124 1.47506e-21)
(-0.00888138 -0.0201401 6.37374e-21)
(-0.00731964 -0.0198679 2.90928e-20)
(-0.00248491 -0.0168865 2.97487e-20)
(0.0057562 -0.0122032 -5.45004e-21)
(0.0174473 -0.006795 1.40469e-20)
(0.0323589 -0.00165391 -8.96724e-21)
(0.0500961 0.00215439 -5.38208e-21)
(0.0725379 0.00229675 -1.25479e-20)
(-0.00307391 -0.00772194 -1.65995e-20)
(-0.00712029 -0.0162308 1.52493e-20)
(-0.00955598 -0.0198927 8.08092e-21)
(-0.00964489 -0.0199422 -1.64818e-20)
(-0.00705007 -0.0174015 -1.91943e-20)
(-0.00156328 -0.0132163 6.26366e-21)
(0.00691619 -0.00829994 5.45954e-22)
(0.0182234 -0.00356823 2.83736e-20)
(0.0320215 5.08352e-05 1.72738e-20)
(0.0497803 0.000730149 -6.93893e-21)
(-0.00267825 -0.00727228 9.02205e-21)
(-0.00668589 -0.0154334 -4.40502e-21)
(-0.00991031 -0.0190781 -1.64674e-20)
(-0.0114148 -0.019366 7.23529e-21)
(-0.0107783 -0.0172366 -2.4633e-22)
(-0.0077242 -0.0135595 -2.56506e-20)
(-0.00209934 -0.00916929 -1.54619e-21)
(0.00599393 -0.00489333 -2.61211e-20)
(0.016265 -0.0015221 -1.18746e-20)
(0.0298534 -0.000484984 1.99765e-20)
(-0.00227803 -0.00666257 -1.09436e-20)
(-0.00617049 -0.0142469 -1.03157e-21)
(-0.0100287 -0.0177308 -7.67358e-22)
(-0.0127329 -0.0181749 -1.54877e-20)
(-0.0137858 -0.016423 2.44984e-21)
(-0.0128494 -0.013255 1.57037e-20)
(-0.00972284 -0.00941434 -8.39392e-21)
(-0.00444956 -0.00562888 1.40346e-20)
(0.00271104 -0.00257567 6.4798e-21)
(0.0126618 -0.00133272 -7.16507e-21)
(-0.00189378 -0.00590656 6.90315e-21)
(-0.0056264 -0.0127053 1.46116e-20)
(-0.0099862 -0.0158962 -3.43024e-21)
(-0.0136904 -0.0164189 7.45867e-21)
(-0.0161744 -0.0150093 5.17024e-21)
(-0.0170458 -0.0123464 -1.30973e-20)
(-0.0160601 -0.00907288 3.37214e-21)
(-0.0132164 -0.00580885 -3.69745e-21)
(-0.00873086 -0.00312159 4.76266e-21)
(-0.00187444 -0.00175573 -9.69802e-21)
(-0.00154381 -0.00502086 -2.19017e-21)
(-0.00509967 -0.0108495 -9.47108e-21)
(-0.00984839 -0.01363 1.39296e-20)
(-0.0143665 -0.0141612 -7.36567e-21)
(-0.0180318 -0.0130602 3.57767e-21)
(-0.020405 -0.0108957 1.10646e-20)
(-0.0212047 -0.0082026 -9.70856e-21)
(-0.0203882 -0.0054921 -2.41761e-21)
(-0.0181082 -0.00321297 2.92899e-22)
(-0.0139257 -0.00185284 1.14995e-20)
(-0.00124394 -0.00402478 -6.70509e-22)
(-0.00462963 -0.00872682 -2.85464e-21)
(-0.00967059 -0.0109973 -1.23199e-20)
(-0.0148275 -0.0114765 2.52422e-21)
(-0.0194306 -0.010654 2.17151e-21)
(-0.0230028 -0.00898038 -9.08351e-22)
(-0.025232 -0.00687707 -2.56275e-22)
(-0.0260394 -0.00474386 -3.91549e-21)
(-0.0255316 -0.00292265 5.59078e-21)
(-0.02351 -0.0017556 3.81841e-21)
(-0.00100723 -0.00294004 1.73724e-21)
(-0.00424837 -0.00639036 3.46394e-21)
(-0.00949759 -0.00807076 9.30585e-21)
(-0.0151264 -0.00844907 -5.03454e-21)
(-0.0204291 -0.00788031 -4.52531e-21)
(-0.0248991 -0.00669052 -1.81223e-22)
(-0.0282012 -0.00518369 9.23522e-21)
(-0.0302288 -0.00364632 4.47564e-21)
(-0.0310587 -0.00231983 -3.92158e-21)
(-0.030651 -0.00143442 -4.5216e-21)
(-0.000843714 -0.00179042 -2.87508e-22)
(-0.00398039 -0.00389769 7.01011e-22)
(-0.00936327 -0.00492964 -1.758e-21)
(-0.0153034 -0.00517123 1.31451e-21)
(-0.0210706 -0.00483759 1.2174e-21)
(-0.0261387 -0.0041261 9.00469e-22)
(-0.0301565 -0.00322026 -1.86566e-21)
(-0.0329985 -0.0022923 -7.76617e-21)
(-0.0347239 -0.00148576 -1.22869e-21)
(-0.0353887 -0.000933125 2.40648e-21)
(-0.0153853 -0.00174082 1.07333e-21)
(-0.0213842 -0.0016309 -1.13419e-21)
(-0.0267512 -0.00139414 -5.58968e-22)
(-0.0311269 -0.00109191 6.07805e-22)
(-0.0343765 -0.000781652 3.0635e-21)
(-0.0365505 -0.000510963 -1.09788e-21)
(-0.037751 -0.000323046 1.12509e-21)
(1.15517 -0.00453023 5.38567e-23)
(1.15686 -0.00449515 -1.31487e-22)
(1.15853 -0.00445907 1.11207e-22)
(1.16017 -0.00442189 -3.42079e-23)
(1.16179 -0.00438346 -5.06437e-23)
(1.16338 -0.00434364 1.11925e-23)
(1.16495 -0.00430216 2.08374e-23)
(1.16649 -0.00425856 1.17789e-23)
(1.16801 -0.0042119 -2.29956e-24)
(1.16949 -0.00416011 -2.05539e-24)
(1.17095 -0.00409848 2.49603e-24)
(1.15655 -0.0133443 3.91857e-23)
(1.15827 -0.0132352 3.23127e-24)
(1.15997 -0.013125 -2.62516e-23)
(1.16164 -0.0130137 -3.74373e-23)
(1.16328 -0.0129009 6.06096e-24)
(1.1649 -0.0127863 1.06161e-23)
(1.1665 -0.0126692 3.0071e-24)
(1.16806 -0.0125481 -6.26786e-24)
(1.1696 -0.0124202 2.84946e-24)
(1.17111 -0.0122784 -2.36509e-24)
(1.17258 -0.0121068 -7.91142e-24)
(1.15904 -0.0218996 5.69074e-23)
(1.16082 -0.0217182 -1.26693e-23)
(1.16258 -0.0215354 -1.12719e-23)
(1.16431 -0.021351 -5.99012e-23)
(1.16601 -0.0211647 5.84691e-23)
(1.16769 -0.0209758 -1.48488e-23)
(1.16935 -0.0207832 -6.94087e-24)
(1.17097 -0.0205845 2.16574e-24)
(1.17257 -0.0203746 -7.14893e-24)
(1.17414 -0.0201417 -2.30928e-24)
(1.17567 -0.0198587 1.19223e-24)
(1.1625 -0.0302578 -5.28018e-23)
(1.16437 -0.0299997 2.90041e-23)
(1.16621 -0.0297403 -4.14074e-23)
(1.16803 -0.0294791 2.37895e-23)
(1.16983 -0.0292158 -3.49065e-25)
(1.1716 -0.0289496 -6.18418e-25)
(1.17334 -0.0286788 1.40618e-24)
(1.17505 -0.0284002 2.6104e-24)
(1.17674 -0.0281063 1.5025e-23)
(1.17839 -0.0277803 -2.02908e-23)
(1.18002 -0.0273832 2.92178e-23)
(1.16682 -0.0384943 -2.72322e-23)
(1.1688 -0.0381554 2.45849e-23)
(1.17076 -0.037815 3.10588e-24)
(1.17269 -0.0374728 1.27093e-23)
(1.1746 -0.0371282 5.4888e-24)
(1.17648 -0.0367803 1.11995e-23)
(1.17833 -0.036427 -1.86425e-24)
(1.18016 -0.0360641 3.02705e-23)
(1.18196 -0.0356818 -1.4458e-24)
(1.18373 -0.0352575 1.00103e-22)
(1.18548 -0.0347398 -5.58234e-23)
(1.17191 -0.04666 -5.1812e-24)
(1.17402 -0.0462336 -5.83602e-25)
(1.17611 -0.0458055 -1.176e-23)
(1.17817 -0.0453754 -2.49448e-23)
(1.18021 -0.0449426 9.81176e-24)
(1.18223 -0.0445062 -3.97209e-23)
(1.18422 -0.0440636 2.65845e-23)
(1.18619 -0.0436095 1.29982e-22)
(1.18812 -0.0431316 -2.28304e-24)
(1.19004 -0.0426015 -1.27104e-22)
(1.19192 -0.0419536 -5.76414e-23)
(1.17767 -0.0547974 -2.59328e-23)
(1.17993 -0.0542751 -1.79203e-23)
(1.18217 -0.0537509 4.17222e-23)
(1.18439 -0.0532243 2.94836e-23)
(1.18659 -0.0526947 8.56989e-24)
(1.18876 -0.0521609 3.46555e-23)
(1.19091 -0.05162 -1.18768e-22)
(1.19303 -0.0510656 -2.0665e-22)
(1.19513 -0.0504826 -1.07809e-22)
(1.1972 -0.0498362 -5.76288e-24)
(1.19925 -0.0490453 1.89185e-23)
(1.18403 -0.0629396 3.38297e-23)
(1.18647 -0.0623111 3.88502e-23)
(1.18888 -0.0616801 7.62815e-23)
(1.19127 -0.0610462 -1.23074e-22)
(1.19365 -0.0604088 1.76943e-22)
(1.19599 -0.0597663 -5.35335e-23)
(1.19832 -0.0591156 1.70388e-22)
(1.20062 -0.0584489 -1.21661e-22)
(1.20289 -0.0577484 1.9661e-22)
(1.20515 -0.0569721 2.88756e-22)
(1.20738 -0.0560219 1.25178e-22)
(1.19094 -0.071112 5.67594e-23)
(1.19357 -0.070365 1.75963e-23)
(1.19617 -0.0696145 -2.0722e-22)
(1.19876 -0.0688602 8.94948e-23)
(1.20132 -0.0681013 -4.20629e-24)
(1.20386 -0.0673362 -2.94704e-23)
(1.20638 -0.0665611 1.73628e-22)
(1.20887 -0.0657671 -2.83738e-23)
(1.21134 -0.0649333 -2.27417e-22)
(1.21379 -0.06401 -4.85272e-22)
(1.21622 -0.06288 5.9841e-23)
(1.19835 -0.079334 -9.89279e-23)
(1.20118 -0.0784539 4.63972e-23)
(1.20399 -0.0775688 3.47851e-22)
(1.20679 -0.0766783 2.5874e-22)
(1.20956 -0.0757815 -2.69914e-22)
(1.21231 -0.0748764 -1.55282e-22)
(1.21504 -0.0739587 -1.63418e-22)
(1.21774 -0.0730182 9.86973e-23)
(1.22041 -0.0720305 1.82203e-22)
(1.22307 -0.0709379 2.83726e-22)
(1.2257 -0.0696025 -1.06202e-22)
(1.20621 -0.0876192 2.61377e-23)
(1.20927 -0.0865888 -4.32653e-22)
(1.21231 -0.085551 2.28478e-23)
(1.21533 -0.0845053 -3.58124e-22)
(1.21832 -0.0834503 2.67045e-22)
(1.2213 -0.0823836 3.82857e-22)
(1.22424 -0.0813001 -6.73838e-23)
(1.22716 -0.080188 -3.258e-22)
(1.23005 -0.0790193 -1.78414e-22)
(1.23291 -0.0777278 1.99225e-22)
(1.23576 -0.0761539 -2.01791e-22)
(1.21118 -0.0971665 2.14302e-22)
(1.2145 -0.0959755 3.033e-22)
(1.2178 -0.0947745 -5.28643e-23)
(1.22108 -0.0935624 -5.86109e-22)
(1.22434 -0.0923381 -3.65178e-22)
(1.22757 -0.0910995 -2.82169e-22)
(1.23077 -0.0898434 5.43693e-22)
(1.23395 -0.0885634 7.50627e-22)
(1.23708 -0.0872456 2.73726e-22)
(1.24018 -0.0858585 1.44332e-23)
(1.24324 -0.0843272 -3.74472e-22)
(1.24628 -0.0824712 8.77689e-22)
(1.21961 -0.105784 -1.19661e-22)
(1.22319 -0.104403 -6.42987e-22)
(1.22674 -0.103007 6.11671e-23)
(1.23027 -0.101594 2.5905e-22)
(1.23378 -0.100162 2.45494e-22)
(1.23725 -0.0987066 -3.8055e-22)
(1.24068 -0.097224 -7.23501e-22)
(1.24407 -0.0957054 -1.21052e-22)
(1.24742 -0.0941346 3.9328e-22)
(1.2507 -0.0924759 8.22834e-22)
(1.25392 -0.0906471 -2.66982e-22)
(1.2571 -0.0884498 -1.23797e-21)
(1.2284 -0.114492 4.52576e-22)
(1.23224 -0.112893 1.23314e-22)
(1.23606 -0.111271 2.58468e-22)
(1.23985 -0.109622 -6.00464e-23)
(1.24359 -0.107943 -4.22894e-22)
(1.24729 -0.106227 2.70065e-23)
(1.25094 -0.104466 -1.38637e-22)
(1.25452 -0.10265 -7.18873e-22)
(1.25803 -0.100759 -1.3208e-21)
(1.26144 -0.0987531 -1.81622e-21)
(1.26473 -0.0965445 1.86671e-21)
(1.26794 -0.0939258 2.19509e-23)
(1.23751 -0.123271 7.421e-22)
(1.24163 -0.121418 -2.90619e-22)
(1.2457 -0.119529 -2.84337e-22)
(1.24973 -0.117598 5.42617e-23)
(1.25369 -0.115618 4.01667e-22)
(1.25759 -0.113579 8.70444e-22)
(1.26139 -0.11147 -5.85952e-22)
(1.26509 -0.109273 1.06112e-21)
(1.26867 -0.106966 -4.53136e-22)
(1.27209 -0.104505 -5.62047e-22)
(1.27531 -0.101803 -2.14287e-21)
(1.27834 -0.0986576 -5.05417e-22)
(1.2469 -0.13208 -5.57355e-22)
(1.25127 -0.129924 5.2294e-22)
(1.25558 -0.127713 9.42286e-22)
(1.2598 -0.125435 5.34884e-22)
(1.26393 -0.12308 -3.34927e-22)
(1.26793 -0.120631 -1.35558e-21)
(1.27179 -0.118071 2.20398e-21)
(1.27548 -0.115378 -5.85889e-22)
(1.27895 -0.112524 1.40891e-21)
(1.28217 -0.109466 -1.14274e-21)
(1.28505 -0.10612 1.50326e-21)
(1.28758 -0.102315 1.48799e-21)
(1.25648 -0.140844 -1.06433e-22)
(1.26106 -0.138317 -7.02389e-22)
(1.26553 -0.135704 -9.33495e-22)
(1.26986 -0.13299 2.04626e-22)
(1.27403 -0.130154 1.71711e-21)
(1.278 -0.127175 -1.03905e-21)
(1.28173 -0.124028 2.60107e-22)
(1.28516 -0.120684 -3.47763e-21)
(1.28826 -0.117113 -5.4529e-22)
(1.29095 -0.113274 2.44904e-21)
(1.2931 -0.109102 5.30244e-23)
(1.29463 -0.104488 -3.16873e-21)
(1.26611 -0.149437 2.84251e-23)
(1.27079 -0.146442 2.73613e-22)
(1.2753 -0.143318 1.0389e-21)
(1.27958 -0.14004 -8.0836e-22)
(1.2836 -0.136582 -1.8659e-21)
(1.28728 -0.132913 9.15849e-22)
(1.29058 -0.129001 7.68048e-22)
(1.29341 -0.124814 5.14545e-21)
(1.29571 -0.120322 2.86591e-22)
(1.29741 -0.115492 -2.62116e-21)
(1.29827 -0.110293 4.71606e-22)
(1.29812 -0.104721 -7.76187e-22)
(1.27553 -0.157664 -1.99842e-22)
(1.28016 -0.154069 1.97817e-22)
(1.28449 -0.150282 -2.23246e-22)
(1.28847 -0.146274 1.32133e-21)
(1.29201 -0.142009 3.63927e-21)
(1.29504 -0.13745 3.83402e-21)
(1.29747 -0.132563 -5.847e-21)
(1.2992 -0.127313 9.48955e-22)
(1.30014 -0.121676 3.20432e-21)
(1.30022 -0.115641 6.50824e-21)
(1.29909 -0.109227 -1.05675e-21)
(1.2964 -0.102582 1.63386e-21)
(1.28437 -0.165245 7.5168e-22)
(1.28868 -0.160872 5.06876e-22)
(1.29252 -0.15623 -1.74406e-21)
(1.29581 -0.151283 -1.12735e-21)
(1.29843 -0.145991 -1.39192e-21)
(1.30029 -0.140315 4.21494e-22)
(1.30127 -0.134221 3.43823e-21)
(1.30125 -0.127683 -3.02579e-21)
(1.30013 -0.120693 -1.5782e-21)
(1.29782 -0.113273 -7.04053e-21)
(1.29387 -0.105511 2.09165e-21)
(1.2877 -0.0977518 8.33047e-21)
(1.29208 -0.171805 1.52159e-21)
(1.29569 -0.166434 -4.30651e-22)
(1.29859 -0.160705 1.04966e-21)
(1.30066 -0.15458 6.09434e-22)
(1.30178 -0.148022 -4.0966e-21)
(1.30181 -0.140996 -7.64965e-21)
(1.30063 -0.133479 5.54085e-21)
(1.29809 -0.125463 4.99128e-22)
(1.29408 -0.116967 -3.26698e-21)
(1.28855 -0.108061 6.85611e-21)
(1.28091 -0.0989199 3.7986e-21)
(1.27027 -0.0901156 -2.21021e-21)
(1.2979 -0.176884 -4.16379e-22)
(1.30029 -0.170262 -9.53948e-22)
(1.30167 -0.163194 -7.12719e-22)
(1.30188 -0.155646 -1.27916e-21)
(1.30078 -0.147592 -2.65776e-21)
(1.29823 -0.139015 3.72092e-21)
(1.29407 -0.129913 -1.0136e-20)
(1.28817 -0.120307 -5.82086e-21)
(1.28044 -0.110258 3.03725e-21)
(1.27086 -0.0998917 -7.09844e-21)
(1.2587 -0.0894802 -7.64072e-21)
(1.24273 -0.0798312 -1.08184e-20)
(1.30088 -0.179964 -2.64831e-21)
(1.30142 -0.171829 1.95732e-21)
(1.30057 -0.163176 1.90911e-21)
(1.29817 -0.153988 -1.19506e-21)
(1.29407 -0.144261 1.23618e-21)
(1.28811 -0.134006 5.13353e-21)
(1.28016 -0.123256 1.48804e-20)
(1.27008 -0.112074 1.25374e-20)
(1.25785 -0.100569 -8.29315e-21)
(1.24349 -0.0889285 5.93368e-21)
(1.22615 -0.0775137 1.08825e-21)
(1.2042 -0.0673456 7.794e-21)
(1.29991 -0.180524 9.91975e-22)
(1.29786 -0.17064 -4.45727e-21)
(1.29402 -0.160205 -7.57304e-21)
(1.28822 -0.149228 -5.18328e-21)
(1.28031 -0.137742 1.38808e-20)
(1.27015 -0.125797 -6.14223e-21)
(1.25764 -0.113475 -1.18931e-20)
(1.2427 -0.100886 -7.25662e-21)
(1.22533 -0.0881927 3.14116e-21)
(1.20569 -0.0756332 1.65882e-21)
(1.18274 -0.0636309 -6.97502e-21)
(1.15447 -0.0533557 -7.15176e-21)
(1.29377 -0.1781 2.67951e-22)
(1.28838 -0.166295 9.3552e-22)
(1.28078 -0.153963 4.58542e-21)
(1.27082 -0.141157 -2.66553e-22)
(1.25837 -0.127954 -4.88339e-21)
(1.24335 -0.114457 -8.33475e-21)
(1.22568 -0.100802 2.07032e-21)
(1.20536 -0.0871517 -1.24822e-22)
(1.18249 -0.0737124 8.00724e-21)
(1.15731 -0.0607492 2.95566e-21)
(1.12863 -0.0486886 8.6699e-21)
(1.09405 -0.0387357 5.30653e-22)
(1.28132 -0.172352 3.09969e-21)
(1.27187 -0.158543 1.78982e-22)
(1.25981 -0.144311 1.27461e-20)
(1.24503 -0.129759 1.0345e-20)
(1.22746 -0.115019 -9.20375e-21)
(1.20707 -0.100258 3.77402e-21)
(1.18387 -0.0856689 -3.24123e-21)
(1.15792 -0.071468 2.9969e-21)
(1.12943 -0.0578903 -4.23611e-21)
(1.09878 -0.0451833 4.11098e-21)
(1.06459 -0.0336786 -1.01772e-20)
(1.02406 -0.0244308 1.30239e-20)
(1.26164 -0.163192 -6.30212e-21)
(1.24751 -0.147418 4.68075e-21)
(1.23044 -0.131409 -1.07358e-20)
(1.21037 -0.115325 4.64143e-21)
(1.18729 -0.099362 1.721e-20)
(1.16125 -0.0837494 4.34844e-21)
(1.13236 -0.0687442 7.42363e-21)
(1.10076 -0.0546128 -2.66591e-21)
(1.06679 -0.0416033 4.76744e-22)
(1.03095 -0.0298959 -7.34684e-21)
(0.99174 -0.0196008 1.33904e-20)
(0.945913 -0.0113436 -7.40352e-21)
(1.23408 -0.150724 1.76343e-21)
(1.21486 -0.133174 -8.65495e-21)
(1.19244 -0.115672 5.97541e-22)
(1.16686 -0.098439 -1.54084e-20)
(1.13817 -0.0817347 -9.94098e-21)
(1.10651 -0.065853 -5.43073e-21)
(1.07207 -0.0511113 -4.74232e-23)
(1.0351 -0.0378198 -4.46835e-21)
(0.996014 -0.0262191 1.39433e-20)
(0.955447 -0.0163632 4.23603e-21)
(0.911782 -0.00796208 -9.36252e-21)
(0.861379 -0.000719534 -3.64732e-21)
(1.19816 -0.134592 5.71225e-21)
(1.17353 -0.115476 1.68498e-21)
(1.14557 -0.096797 -6.44802e-21)
(1.11439 -0.0788439 1.14027e-20)
(1.08013 -0.0619454 -1.23131e-20)
(1.04304 -0.0464656 -4.06584e-21)
(1.00341 -0.032791 2.39009e-21)
(0.961584 -0.0212894 -1.6064e-21)
(0.918062 -0.012213 -1.79293e-20)
(0.873593 -0.00550029 -1.69908e-20)
(0.826589 -0.000317415 6.08326e-21)
(0.77277 0.00560085 -6.30135e-21)
(1.15422 -0.115098 -1.76026e-21)
(1.12402 -0.0945527 -8.8557e-22)
(1.09038 -0.0748667 3.36389e-21)
(1.0535 -0.0563914 -7.1008e-21)
(1.01361 -0.0395159 1.78054e-20)
(0.971023 -0.0246641 1.35706e-20)
(0.926105 -0.0122846 -8.75294e-21)
(0.879247 -0.00281603 1.00919e-20)
(0.830979 0.00340331 1.04552e-20)
(0.782147 0.00630121 4.50384e-21)
(0.732102 0.00663509 1.82699e-21)
(0.677373 0.00857849 1.68471e-20)
(1.17329 -0.00396291 0)
(1.17647 -0.00376369 0)
(1.17964 -0.00355286 0)
(1.18276 -0.00332994 0)
(1.18582 -0.00309436 0)
(1.18879 -0.00284664 0)
(1.19163 -0.002588 0)
(1.19432 -0.00232001 0)
(1.19683 -0.00204454 0)
(1.19913 -0.00176378 0)
(1.20118 -0.00148029 0)
(1.20294 -0.00119692 0)
(1.2044 -0.000916787 0)
(1.20553 -0.000643133 0)
(1.2063 -0.000379274 0)
(1.20668 -0.000128458 0)
(1.20668 0.000106214 0)
(1.20627 0.000322016 0)
(1.20547 0.000516462 0)
(1.20426 0.000688066 0)
(1.20268 0.00083497 0)
(1.20071 0.000958276 0)
(1.19846 0.00105523 0)
(1.19577 0.00113317 0)
(1.19303 0.00118255 0)
(1.1896 0.00122679 0)
(1.18675 0.00123429 0)
(1.1822 0.00126468 0)
(1.18014 0.00124073 0)
(1.17308 0.00126878 0)
(1.17496 -0.011712 0)
(1.17817 -0.0111253 0)
(1.18135 -0.0105019 0)
(1.18448 -0.0098406 0)
(1.18755 -0.00914047 0)
(1.19052 -0.0084035 0)
(1.19336 -0.00763378 0)
(1.19603 -0.00683632 0)
(1.19852 -0.00601694 0)
(1.20079 -0.00518238 0)
(1.2028 -0.00434036 0)
(1.20452 -0.0034995 0)
(1.20593 -0.00266906 0)
(1.207 -0.00185871 0)
(1.2077 -0.00107827 0)
(1.20802 -0.000337303 0)
(1.20795 0.000355083 0)
(1.20747 0.0009909 0)
(1.20659 0.00156298 0)
(1.20532 0.00206693 0)
(1.20368 0.00249772 0)
(1.20164 0.00285805 0)
(1.19933 0.00314146 0)
(1.19659 0.00336671 0)
(1.19381 0.00351162 0)
(1.19033 0.00363462 0)
(1.18746 0.00366186 0)
(1.18286 0.00373705 0)
(1.1808 0.00368433 0)
(1.1737 0.00374849 0)
(1.17812 -0.0192016 0)
(1.18137 -0.0182227 0)
(1.18457 -0.0171836 0)
(1.18773 -0.0160827 0)
(1.1908 -0.0149185 0)
(1.19377 -0.0136946 0)
(1.19659 -0.0124182 0)
(1.19924 -0.0110979 0)
(1.20168 -0.00974339 0)
(1.20389 -0.00836615 0)
(1.20582 -0.0069791 0)
(1.20746 -0.00559654 0)
(1.20876 -0.00423375 0)
(1.20972 -0.00290662 0)
(1.2103 -0.00163115 0)
(1.21049 -0.000422898 0)
(1.21029 0.000703516 0)
(1.20968 0.00173529 0)
(1.20867 0.00266115 0)
(1.20726 0.00347415 0)
(1.2055 0.00416698 0)
(1.20334 0.00474355 0)
(1.20093 0.00519572 0)
(1.19809 0.0055506 0)
(1.19522 0.00577996 0)
(1.19166 0.0059656 0)
(1.18875 0.00601193 0)
(1.18406 0.00611318 0)
(1.18199 0.00604666 0)
(1.17479 0.0061279 0)
(1.18258 -0.0264583 0)
(1.18589 -0.0250777 0)
(1.18912 -0.0236143 0)
(1.19229 -0.0220659 0)
(1.19538 -0.0204306 0)
(1.19834 -0.0187144 0)
(1.20114 -0.0169279 0)
(1.20373 -0.0150837 0)
(1.20611 -0.0131958 0)
(1.20822 -0.0112806 0)
(1.21004 -0.00935645 0)
(1.21155 -0.00744334 0)
(1.21271 -0.00556262 0)
(1.2135 -0.00373618 0)
(1.2139 -0.00198594 0)
(1.21391 -0.000332991 0)
(1.21351 0.001203 0)
(1.21271 0.00260502 0)
(1.21151 0.00385842 0)
(1.20992 0.00495429 0)
(1.20798 0.00588381 0)
(1.20566 0.00665253 0)
(1.20309 0.00725149 0)
(1.2001 0.00771609 0)
(1.19712 0.00801296 0)
(1.19342 0.00824687 0)
(1.19043 0.00830049 0)
(1.18563 0.00842104 0)
(1.18353 0.00833172 0)
(1.17618 0.00843354 0)
(1.18818 -0.0335335 0)
(1.19156 -0.0317308 0)
(1.19482 -0.0298234 0)
(1.19802 -0.0278089 0)
(1.20111 -0.0256857 0)
(1.20406 -0.0234626 0)
(1.20681 -0.0211542 0)
(1.20933 -0.0187775 0)
(1.21161 -0.0163514 0)
(1.2136 -0.0138974 0)
(1.21527 -0.0114394 0)
(1.2166 -0.00900338 0)
(1.21756 -0.00661661 0)
(1.21814 -0.00430678 0)
(1.21832 -0.00210134 0)
(1.21808 -2.63951e-05 0)
(1.21744 0.00189394 0)
(1.21639 0.00363921 0)
(1.21495 0.00519215 0)
(1.21311 0.00654269 0)
(1.21094 0.00768141 0)
(1.2084 0.00861598 0)
(1.20563 0.00933768 0)
(1.20245 0.00989 0)
(1.1993 0.0102357 0)
(1.19543 0.0105019 0)
(1.19234 0.0105494 0)
(1.18735 0.0106818 0)
(1.18522 0.0105587 0)
(1.17764 0.010687 0)
(1.19479 -0.0404476 0)
(1.19825 -0.0381955 0)
(1.20154 -0.0358179 0)
(1.20475 -0.0333125 0)
(1.20785 -0.0306784 0)
(1.21076 -0.0279279 0)
(1.21345 -0.0250806 0)
(1.21587 -0.0221582 0)
(1.21802 -0.0191851 0)
(1.21984 -0.0161881 0)
(1.22132 -0.0131972 0)
(1.22243 -0.0102443 0)
(1.22315 -0.00736226 0)
(1.22346 -0.00458447 0)
(1.22335 -0.00194343 0)
(1.22283 0.00053036 0)
(1.22188 0.00280911 0)
(1.22052 0.00486966 0)
(1.21878 0.0066931 0)
(1.21665 0.008269 0)
(1.21419 0.00958841 0)
(1.21137 0.0106615 0)
(1.20835 0.0114812 0)
(1.20492 0.0120982 0)
(1.20157 0.0124742 0)
(1.19747 0.0127551 0)
(1.19422 0.0127844 0)
(1.189 0.0129181 0)
(1.18679 0.0127526 0)
(1.1789 0.0129101 0)
(1.20232 -0.0472159 0)
(1.20585 -0.0444797 0)
(1.20915 -0.0415989 0)
(1.21238 -0.0385713 0)
(1.21546 -0.0353974 0)
(1.21832 -0.0320942 0)
(1.22091 -0.0286866 0)
(1.2232 -0.025202 0)
(1.22517 -0.0216703 0)
(1.22679 -0.0181245 0)
(1.22803 -0.0146003 0)
(1.22887 -0.0111355 0)
(1.22928 -0.00776881 0)
(1.22927 -0.00453854 0)
(1.22882 -0.00148181 0)
(1.22793 0.00136721 0)
(1.22662 0.00397788 0)
(1.2249 0.00632524 0)
(1.22279 0.00838975 0)
(1.2203 0.0101613 0)
(1.21749 0.0116328 0)
(1.21434 0.0128168 0)
(1.211 0.0137103 0)
(1.20726 0.0143684 0)
(1.20364 0.0147572 0)
(1.19925 0.0150334 0)
(1.19579 0.0150347 0)
(1.19025 0.0151552 0)
(1.18793 0.0149419 0)
(1.17963 0.0151252 0)
(1.21065 -0.0538403 0)
(1.21426 -0.0505789 0)
(1.21757 -0.0471557 0)
(1.22078 -0.0435693 0)
(1.22382 -0.0398224 0)
(1.2266 -0.0359373 0)
(1.22905 -0.0319452 0)
(1.23117 -0.0278797 0)
(1.23292 -0.0237767 0)
(1.23428 -0.019675 0)
(1.23522 -0.0156167 0)
(1.23572 -0.0116453 0)
(1.23577 -0.00780455 0)
(1.23536 -0.0041376 0)
(1.2345 -0.00068522 0)
(1.23319 0.00251499 0)
(1.23144 0.00543077 0)
(1.22927 0.0080363 0)
(1.22672 0.0103124 0)
(1.2238 0.0122501 0)
(1.22057 0.0138454 0)
(1.21701 0.0151129 0)
(1.21327 0.0160564 0)
(1.20915 0.0167316 0)
(1.20518 0.017117 0)
(1.20041 0.0173669 0)
(1.19667 0.0173334 0)
(1.19073 0.0174193 0)
(1.18825 0.0171579 0)
(1.17944 0.0173533 0)
(1.21973 -0.0603122 0)
(1.22339 -0.0564775 0)
(1.22667 -0.0524671 0)
(1.22984 -0.0482804 0)
(1.23281 -0.0439232 0)
(1.23546 -0.0394241 0)
(1.23773 -0.0348213 0)
(1.23961 -0.0301548 0)
(1.24108 -0.0254666 0)
(1.24211 -0.0208021 0)
(1.24268 -0.0162089 0)
(1.24277 -0.0117361 0)
(1.24237 -0.00743246 0)
(1.24149 -0.00334507 0)
(1.24013 0.000482139 0)
(1.2383 0.00400937 0)
(1.23602 0.00720335 0)
(1.23333 0.0100383 0)
(1.23025 0.0124965 0)
(1.2268 0.0145707 0)
(1.22305 0.0162614 0)
(1.21899 0.0175846 0)
(1.21478 0.0185544 0)
(1.21018 0.0192217 0)
(1.20577 0.0195879 0)
(1.20055 0.0197864 0)
(1.19645 0.0197136 0)
(1.19003 0.0197353 0)
(1.18732 0.0194307 0)
(1.1779 0.0196105 0)
(1.22945 -0.0666086 0)
(1.23315 -0.0621458 0)
(1.23637 -0.0574977 0)
(1.23945 -0.0526648 0)
(1.24229 -0.0476565 0)
(1.24475 -0.0425087 0)
(1.24677 -0.0372673 0)
(1.24834 -0.0319788 0)
(1.24945 -0.0266915 0)
(1.25006 -0.0214568 0)
(1.25015 -0.0163283 0)
(1.24973 -0.0113601 0)
(1.24879 -0.00660531 0)
(1.24732 -0.00211447 0)
(1.24536 0.00206587 0)
(1.2429 0.00589498 0)
(1.23999 0.00933928 0)
(1.23665 0.0123738 0)
(1.23293 0.0149834 0)
(1.22885 0.0171632 0)
(1.22449 0.0189196 0)
(1.21982 0.0202693 0)
(1.21503 0.0212401 0)
(1.20987 0.0218721 0)
(1.20493 0.0222025 0)
(1.19917 0.0223197 0)
(1.19462 0.0222048 0)
(1.18765 0.0221223 0)
(1.18467 0.0217856 0)
(1.17458 0.0219048 0)
(1.23974 -0.0726876 0)
(1.24342 -0.0675351 0)
(1.24652 -0.0621931 0)
(1.24945 -0.0566633 0)
(1.25208 -0.0509597 0)
(1.25426 -0.0451267 0)
(1.25594 -0.0392177 0)
(1.25709 -0.0332857 0)
(1.25772 -0.0273853 0)
(1.25779 -0.0215738 0)
(1.2573 -0.0159105 0)
(1.25624 -0.0104542 0)
(1.25461 -0.00526173 0)
(1.25243 -0.000386428 0)
(1.24972 0.00412325 0)
(1.24651 0.00822625 0)
(1.24283 0.0118899 0)
(1.23872 0.015091 0)
(1.23424 0.0178182 0)
(1.22941 0.0200692 0)
(1.22432 0.0218584 0)
(1.21894 0.0232017 0)
(1.21347 0.0241451 0)
(1.20766 0.0247103 0)
(1.20211 0.0249854 0)
(1.19575 0.0249863 0)
(1.19068 0.0248262 0)
(1.18313 0.0245893 0)
(1.1798 0.0242375 0)
(1.16903 0.0242331 0)
(1.25047 -0.0784792 0)
(1.25405 -0.0725688 0)
(1.25694 -0.0664712 0)
(1.25962 -0.0601893 0)
(1.26193 -0.0537436 0)
(1.26371 -0.0471873 0)
(1.2649 -0.0405813 0)
(1.2655 -0.0339849 0)
(1.26549 -0.0274587 0)
(1.26487 -0.021066 0)
(1.26363 -0.0148714 0)
(1.26176 -0.00893786 0)
(1.25929 -0.00332552 0)
(1.25624 0.00191014 0)
(1.25263 0.00671991 0)
(1.2485 0.0110632 0)
(1.24391 0.0149094 0)
(1.23889 0.018238 0)
(1.23352 0.0210427 0)
(1.22782 0.0233248 0)
(1.2219 0.025108 0)
(1.21572 0.0264065 0)
(1.20949 0.0272889 0)