/*--------------------------------*- C++ -*----------------------------------*\
  =========                 |
  \\      /  F ield         | OpenFOAM: The Open Source CFD Toolbox
   \\    /   O peration     | Website:  https://openfoam.org
    \\  /    A nd           | Version:  7
     \\/     M anipulation  |
\*---------------------------------------------------------------------------*/
FoamFile
{
    version     2.0;
    format      ascii;
    class       volVectorField;
    location    "230";
    object      U;
}
// * * * * * * * * * * * * * * * * * * * * * * * * * * * * * * * * * * * * * //

dimensions      [0 1 -1 0 0 0 0];

internalField   nonuniform List<vector> 
2125
(
(-0.0209483 0.015063 -9.51869e-20)
(-0.0195869 0.0134467 3.44894e-20)
(-0.0071317 0.0171826 3.73325e-20)
(-0.017231 0.0114553 -2.3412e-20)
(0.006657 0.0118032 -1.72857e-20)
(-0.0137435 0.00913457 4.91589e-20)
(0.0237727 0.00618426 -1.36324e-20)
(0.128119 0.000722879 -8.19321e-21)
(-0.00900069 0.00656531 -1.80752e-20)
(0.044461 0.000548165 -1.07852e-19)
(0.171295 -0.00420562 1.12131e-20)
(0.367521 -0.00362058 3.8878e-20)
(-0.00289094 0.00385486 -1.99111e-20)
(0.0689112 -0.00480816 3.8236e-20)
(0.219977 -0.00773449 5.01199e-20)
(0.441642 -0.00183566 -3.595e-20)
(0.707676 0.0166174 1.33985e-20)
(0.968046 0.0422691 -8.16653e-20)
(0.00469343 0.00112494 -2.58079e-20)
(0.0972394 -0.00953442 -8.81935e-21)
(0.273896 -0.00935296 -9.10289e-20)
(0.519645 0.00318321 -1.43212e-20)
(0.79693 0.0289057 -1.51684e-21)
(1.0493 0.0589499 4.8822e-21)
(1.23563 0.0830557 8.4134e-21)
(0.0138405 -0.00148087 -6.76736e-21)
(0.129469 -0.0132388 3.15371e-20)
(0.332553 -0.00854752 4.45239e-20)
(0.599951 0.0117041 2.79107e-20)
(0.882688 0.0444005 -8.25521e-21)
(1.12192 0.0776828 -6.85486e-21)
(1.28544 0.101583 6.77544e-20)
(1.37499 0.112858 9.06167e-21)
(0.024608 -0.00380901 6.46214e-20)
(0.165508 -0.0155174 4.18672e-20)
(0.39521 -0.00485214 -4.25279e-20)
(0.680842 0.0238342 -8.49189e-21)
(0.963268 0.0627916 4.4466e-21)
(1.18549 0.0980744 -1.61402e-20)
(1.32586 0.120829 -3.48152e-20)
(1.395 0.129905 -5.74785e-21)
(1.41631 0.128802 4.31929e-22)
(1.41254 0.117703 1.42022e-20)
(0.0370323 -0.00569908 8.01977e-21)
(0.205138 -0.0159658 -2.28749e-20)
(0.460909 0.0021114 5.42447e-20)
(0.76061 0.0395304 3.53863e-20)
(1.03744 0.083732 1.0893e-21)
(1.24003 0.119781 2.50319e-20)
(1.35782 0.14058 3.67456e-21)
(1.40886 0.147082 -2.63235e-20)
(1.41876 0.143493 2.22818e-20)
(1.4091 0.131691 -1.59738e-23)
(0.0511105 -0.00698225 -5.33759e-20)
(0.248007 -0.0141969 -1.57577e-20)
(0.528526 0.0126058 -1.42545e-20)
(0.837686 0.0586304 -2.48535e-20)
(1.10439 0.106868 5.84806e-21)
(1.28586 0.142509 1.31218e-22)
(1.38231 0.16068 1.92267e-20)
(1.41761 0.164347 -3.09063e-21)
(1.41831 0.158296 -2.2947e-20)
(1.40417 0.145773 -2.13972e-20)
(0.0667954 -0.00748568 4.34003e-21)
(0.293633 -0.00985984 2.55477e-20)
(0.596835 0.0267666 1.24121e-20)
(0.910733 0.0808872 -3.87832e-20)
(1.16371 0.131856 -1.93996e-21)
(1.32352 0.166015 -1.66301e-20)
(1.40029 0.181019 4.28659e-22)
(1.42215 0.18168 7.78147e-21)
(1.41554 0.17322 -8.65509e-21)
(1.39806 0.159949 2.4202e-20)
(0.0839919 -0.00703755 1.02018e-20)
(0.341408 -0.00265875 -2.50287e-20)
(0.664588 0.0446054 -5.92018e-20)
(0.978685 0.106 5.45574e-20)
(1.21526 0.158373 -4.06658e-21)
(1.35364 0.190096 1.20213e-20)
(1.41262 0.201515 -1.66351e-21)
(1.4232 0.199072 1.15405e-20)
(1.41089 0.188266 -8.59235e-22)
(1.39094 0.174207 -1.87584e-20)
(0.102556 -0.00547292 -2.07979e-20)
(0.390627 0.00763122 3.25925e-20)
(0.730584 0.0660219 2.69509e-20)
(1.04075 0.133635 -3.89058e-20)
(1.25914 0.186119 -6.44435e-21)
(1.37688 0.214582 2.4527e-21)
(1.42009 0.222108 2.46401e-20)
(1.42134 0.216512 1.24283e-21)
(1.40466 0.203425 4.81062e-21)
(1.38292 0.188521 -1.03621e-20)
(0.122294 -0.00264058 1.57827e-20)
(0.440511 0.0211516 -1.42364e-20)
(0.793729 0.0908218 -1.21517e-20)
(1.0964 0.163443 2.08297e-20)
(1.29558 0.214814 7.18503e-21)
(1.3939 0.239327 5.42845e-21)
(1.42334 0.242746 -2.51095e-20)
(1.41701 0.233984 -8.62736e-21)
(1.39705 0.218675 -7.73169e-21)
(1.37405 0.202851 3.40636e-21)
(0.142969 0.00158993 -7.87435e-21)
(0.490239 0.0379534 -1.84685e-22)
(0.853066 0.118735 2.2998e-20)
(1.14531 0.195065 -8.43072e-21)
(1.32494 0.244202 -3.72402e-21)
(1.40531 0.264202 -2.45029e-21)
(1.42292 0.263376 6.08459e-21)
(1.41053 0.251461 1.05207e-20)
(1.3882 0.233979 -3.38857e-22)
(1.36435 0.217146 3.86081e-21)
(0.164306 0.00732151 5.55128e-21)
(0.538988 0.0579956 -1.55963e-21)
(0.907804 0.149431 -4.11885e-21)
(1.18731 0.228144 -3.73056e-21)
(1.3476 0.27404 3.35829e-21)
(1.41168 0.289088 2.62001e-21)
(1.41928 0.283943 -2.41603e-21)
(1.40217 0.268901 8.78918e-22)
(1.37819 0.249283 1.23743e-21)
(1.35385 0.231343 -1.64922e-21)
(0.185996 0.0146237 2.97814e-21)
(0.585954 0.0811482 8.49406e-22)
(0.957309 0.182539 -5.10894e-21)
(1.22242 0.262323 -4.07513e-21)
(1.36398 0.304102 4.24727e-21)
(1.41349 0.313867 8.31615e-22)
(1.41278 0.30438 -1.94586e-21)
(1.39208 0.286251 1.83104e-21)
(1.36706 0.26452 1.02685e-21)
(1.34254 0.245375 -1.18698e-21)
(0.207711 0.0235285 -1.16486e-21)
(0.630388 0.107199 2.38495e-21)
(1.00111 0.217652 1.57419e-20)
(1.25071 0.297252 -7.00092e-21)
(1.37449 0.334168 -3.42772e-21)
(1.41118 0.338421 -3.87162e-21)
(1.40369 0.324613 7.9482e-21)
(1.38039 0.303437 5.3611e-21)
(1.35485 0.279606 4.29803e-21)
(1.33042 0.259164 2.34981e-21)
(0.229108 0.0340275 2.38839e-20)
(0.671613 0.135864 -1.31772e-20)
(1.03887 0.254344 -1.5005e-20)
(1.27235 0.332584 2.03789e-20)
(1.37953 0.364025 1.07355e-20)
(1.40513 0.362631 -7.20628e-22)
(1.39225 0.344552 -1.33238e-20)
(1.36718 0.320375 -9.61589e-21)
(1.34155 0.29444 -1.01188e-20)
(1.3175 0.272628 6.07014e-21)
(0.249843 0.0460712 -3.23138e-20)
(0.70904 0.166796 3.047e-20)
(1.07039 0.292177 3.50679e-20)
(1.28757 0.367983 -3.45624e-20)
(1.3795 0.393467 -1.19638e-20)
(1.39564 0.386368 7.71639e-21)
(1.37862 0.364102 1.40418e-20)
(1.3525 0.336967 2.23917e-21)
(1.32716 0.308909 -4.24813e-22)
(1.30371 0.285668 -8.35133e-21)
(0.269579 0.0595701 -4.6337e-21)
(0.742176 0.1996 -4.28659e-20)
(1.09558 0.330703 -4.59186e-20)
(1.29662 0.40312 5.15206e-20)
(1.37475 0.422289 -5.86116e-21)
(1.38301 0.409502 1.08504e-20)
(1.36294 0.383157 2.16145e-21)
(1.3364 0.353118 -6.04838e-21)
(1.31164 0.32292 3.25605e-21)
(1.28887 0.298196 -5.19539e-22)
(0.287994 0.0743967 9.43972e-21)
(0.770631 0.23384 2.65737e-20)
(1.11444 0.369476 1.50569e-20)
(1.29981 0.437678 -1.1839e-20)
(1.36562 0.450286 -1.85037e-20)
(1.36746 0.43189 -1.729e-20)
(1.34534 0.401596 -3.52516e-21)
(1.31893 0.368731 9.53703e-21)
(1.29503 0.336452 -2.01994e-21)
(1.27281 0.310212 4.64829e-21)
(0.30479 0.0903891 -3.57348e-20)
(0.794119 0.269058 -3.3411e-20)
(1.12704 0.408053 -5.31957e-21)
(1.29743 0.471345 -6.00133e-21)
(1.35243 0.477257 -1.37373e-20)
(1.34921 0.453385 8.4486e-21)
(1.32591 0.419286 -1.49774e-21)
(1.30011 0.383677 -8.35387e-21)
(1.27739 0.349513 7.61007e-21)
(1.2557 0.32181 -1.1395e-20)
(0.319703 0.107354 8.44438e-21)
(0.812454 0.304784 2.8344e-20)
(1.13353 0.446001 2.47149e-20)
(1.28981 0.503823 2.69269e-20)
(1.33548 0.503005 4.34725e-22)
(1.32844 0.47384 2.39946e-20)
(1.30473 0.436094 1.72313e-21)
(1.27998 0.397796 -2.89978e-20)
(1.25864 0.361926 2.10559e-20)
(1.23797 0.332562 7.7836e-21)
(0.332506 0.125072 2.31645e-20)
(0.825539 0.340544 5.19921e-20)
(1.13411 0.482904 -6.86464e-21)
(1.27726 0.534824 -3.40092e-20)
(1.31504 0.527335 1.53772e-20)
(1.30533 0.493103 -1.61566e-20)
(1.28191 0.451893 -2.21046e-20)
(1.25866 0.411026 -2.25351e-21)
(1.23874 0.373479 -1.78791e-20)
(1.21958 0.342557 7.0671e-21)
(0.343013 0.143303 1.0991e-20)
(0.833355 0.375869 8.30277e-21)
(1.12902 0.518357 6.54002e-20)
(1.26014 0.564072 1.23926e-20)
(1.2914 0.550058 -1.09588e-20)
(1.28004 0.511016 -5.60765e-21)
(1.25761 0.466522 3.44356e-20)
(1.23616 0.423259 2.88119e-20)
(1.21779 0.384095 1.45797e-20)
(1.20044 0.351604 -2.09693e-21)
(0.351082 0.161797 2.37756e-21)
(0.835959 0.410304 -5.32991e-20)
(1.11856 0.551976 -7.71164e-20)
(1.23878 0.591308 2.59166e-21)
(1.2648 0.57098 1.55867e-20)
(1.2528 0.527416 -2.18007e-20)
(1.23189 0.479854 -5.13484e-20)
(1.21248 0.434368 -1.56109e-20)
(1.19591 0.393666 -9.98772e-22)
(1.18054 0.359653 8.55134e-21)
(0.356615 0.180296 -1.91863e-20)
(0.83348 0.443417 4.8752e-20)
(1.10306 0.583409 4.66118e-20)
(1.21351 0.616283 -4.37637e-20)
(1.23551 0.589916 6.61033e-21)
(1.22374 0.542142 5.44586e-20)
(1.20481 0.491758 -1.32099e-20)
(1.18772 0.444236 1.08712e-20)
(1.17315 0.402093 -5.96543e-21)
(1.15994 0.366618 -8.06203e-21)
(0.359561 0.198542 -4.35812e-20)
(0.826139 0.474789 -7.67522e-20)
(1.08298 0.612372 -1.51218e-20)
(1.18457 0.638723 2.50689e-20)
(1.20378 0.60669 2.56201e-20)
(1.19301 0.555037 -5.50881e-20)
(1.17651 0.502099 3.11761e-20)
(1.16198 0.452747 -1.80261e-20)
(1.14958 0.409276 1.54829e-20)
(1.13871 0.372438 7.73881e-23)
(0.359923 0.216267 3.31883e-20)
(0.814245 0.504 2.0559e-21)
(1.05865 0.63864 -7.50485e-21)
(1.15219 0.658424 -3.20082e-20)
(1.16987 0.621069 2.21056e-20)
(1.1608 0.565963 3.90823e-21)
(1.14712 0.510756 -1.95674e-20)
(1.13536 0.459796 2.24126e-21)
(1.12528 0.415116 -5.02332e-21)
(1.11694 0.377034 4.08875e-21)
(0.357766 0.233214 -9.36629e-21)
(0.798156 0.530692 -1.36024e-20)
(1.03002 0.661744 3.38193e-20)
(1.11699 0.675375 1.5836e-20)
(1.13411 0.632883 -2.2106e-20)
(1.1273 0.574772 3.48058e-20)
(1.11677 0.517614 1.79484e-21)
(1.10797 0.465284 1.41276e-21)
(1.10034 0.419508 -4.45137e-21)
(1.09473 0.380307 -4.42623e-22)
(0.353196 0.24911 6.13879e-20)
(0.778115 0.554811 4.74277e-20)
(0.997318 0.681276 -2.4867e-21)
(1.07941 0.68918 -8.12143e-21)
(1.09672 0.642121 -9.37068e-21)
(1.0927 0.581364 -4.80761e-21)
(1.08561 0.52257 1.04259e-21)
(1.07991 0.469127 2.84502e-21)
(1.07486 0.422359 4.79393e-21)
(1.07215 0.382155 4.75297e-22)
(0.346296 0.263579 6.27172e-21)
(0.754181 0.575949 8.98118e-21)
(0.961597 0.697516 -4.68312e-20)
(1.03976 0.699582 2.17775e-20)
(1.05799 0.648612 8.95383e-21)
(1.05719 0.585634 -2.07973e-20)
(1.05379 0.525531 6.11543e-21)
(1.05131 0.471247 1.00756e-21)
(1.04898 0.423598 -1.51189e-21)
(1.04945 0.382531 7.96387e-23)
(0.337058 0.276398 -2.32248e-20)
(0.72658 0.593487 -1.79494e-20)
(0.923324 0.710126 1.68151e-20)
(0.998329 0.706622 6.14933e-21)
(1.01814 0.652256 -7.87769e-21)
(1.02096 0.587488 9.24308e-21)
(1.02143 0.526407 7.05156e-22)
(1.02225 0.471549 6.78878e-22)
(1.02293 0.423151 7.72985e-21)
(1.02733 0.381486 4.37011e-21)
(0.325733 0.287402 -1.89828e-20)
(0.695995 0.607311 5.23286e-20)
(0.882764 0.718864 -3.51256e-20)
(0.955447 0.710204 -3.70964e-21)
(0.977446 0.652966 -8.74643e-21)
(0.984201 0.586846 4.95373e-21)
(0.98865 0.525115 -1.86416e-21)
(0.992846 0.469892 1.39991e-21)
(0.997163 0.420801 1.72808e-21)
(1.00659 0.379022 -1.25097e-21)
(0.312562 0.296528 -2.68403e-22)
(0.662855 0.617291 -1.52473e-20)
(0.840324 0.72355 1.09316e-20)
(0.911463 0.710247 -7.73106e-21)
(0.936169 0.650682 -1.00667e-21)
(0.947091 0.583661 2.47728e-21)
(0.955567 0.521614 6.32772e-21)
(0.963303 0.466187 -6.30769e-21)
(0.972041 0.416163 -1.29411e-20)
(0.986442 0.374355 6.88171e-21)
(0.297704 0.303587 2.70611e-21)
(0.627612 0.623299 -3.6817e-24)
(0.79643 0.724093 4.07396e-22)
(0.866729 0.70669 -2.73912e-21)
(0.894576 0.645364 -2.90229e-21)
(0.909831 0.577903 -1.05174e-20)
(0.922384 0.51591 -2.86932e-21)
(0.933919 0.460576 -2.20517e-21)
(0.94754 0.40951 2.0397e-20)
(0.9637 0.363796 -3.47499e-21)
(0.281389 0.308437 -9.43915e-21)
(0.590705 0.625233 -5.66994e-21)
(0.751513 0.720445 2.94283e-21)
(0.821593 0.699498 1.55724e-21)
(0.852932 0.636986 -6.0687e-21)
(0.872641 0.569548 2.31384e-20)
(0.889371 0.507966 -1.82818e-20)
(0.904921 0.453129 2.26209e-20)
(0.922478 0.402802 -1.58561e-20)
(0.93836 0.358601 -2.20462e-20)
(0.26387 0.310973 3.28863e-21)
(0.552568 0.623026 -3.72906e-21)
(0.705998 0.712595 1.65525e-21)
(0.776401 0.688663 8.891e-21)
(0.811504 0.625541 -5.11028e-21)
(0.835752 0.558577 7.66056e-21)
(0.856738 0.497731 1.04429e-20)
(0.876322 0.443553 -5.58127e-21)
(0.897269 0.393727 -1.6912e-20)
(0.914189 0.349706 2.30146e-20)
(0.245407 0.311118 5.41687e-21)
(0.513633 0.616646 6.56751e-21)
(0.660302 0.700557 -8.09454e-21)
(0.731493 0.674208 -6.97925e-21)
(0.770559 0.611048 3.1935e-20)
(0.799386 0.545009 -3.36526e-20)
(0.824634 0.48526 4.21158e-20)
(0.848124 0.432109 -1.04401e-20)
(0.872121 0.383394 1.13201e-20)
(0.890744 0.340599 2.21756e-20)
(0.226262 0.308825 -1.09957e-21)
(0.474329 0.6061 -7.85706e-21)
(0.614835 0.68438 -7.29229e-21)
(0.6872 0.65618 -3.26863e-21)
(0.730363 0.593541 5.58761e-21)
(0.763764 0.528865 -9.85519e-21)
(0.793233 0.470556 -1.24755e-20)
(0.820496 0.418714 -2.8896e-20)
(0.847417 0.371349 2.89643e-20)
(0.868181 0.32998 -9.0669e-21)
(0.206703 0.304075 2.02005e-20)
(0.435079 0.591434 -3.25673e-21)
(0.569991 0.66414 -1.04243e-20)
(0.643846 0.634649 1.24105e-20)
(0.691175 0.573077 -2.21292e-20)
(0.729099 0.510195 6.22139e-20)
(0.762701 0.453674 -3.35485e-20)
(0.793606 0.403462 3.07771e-20)
(0.823385 0.35777 -5.65082e-20)
(0.846524 0.318018 -1.51753e-20)
(0.186992 0.296878 -4.80069e-21)
(0.396292 0.572728 2.17056e-20)
(0.526156 0.639944 4.62476e-21)
(0.601743 0.609712 -1.20629e-20)
(0.653246 0.549736 -2.1132e-20)
(0.695597 0.489061 -1.88388e-22)
(0.733213 0.434664 1.11937e-20)
(0.767622 0.386382 -2.80957e-20)
(0.800188 0.34262 1.36065e-20)
(0.82581 0.304628 1.75915e-21)
(0.16739 0.28727 -3.74766e-20)
(0.358368 0.550099 -8.96164e-21)
(0.483695 0.611926 -2.72628e-21)
(0.561192 0.581489 3.20861e-20)
(0.616819 0.523613 -3.03293e-20)
(0.66346 0.465546 -7.60231e-21)
(0.70494 0.413599 -4.87288e-21)
(0.742706 0.367539 8.74682e-21)
(0.777967 0.325945 -1.14959e-20)
(0.806105 0.289849 -1.78271e-20)
(0.148149 0.275314 3.46441e-20)
(0.321686 0.523693 -2.00277e-20)
(0.44296 0.580248 7.6495e-22)
(0.522478 0.55012 -4.91622e-20)
(0.582126 0.494828 5.37816e-20)
(0.632881 0.439747 -1.70902e-20)
(0.678048 0.390564 1.02385e-20)
(0.719007 0.346997 9.00337e-21)
(0.756847 0.307788 2.61299e-20)
(0.787479 0.273726 -1.09348e-20)
(0.129513 0.261096 -1.39576e-20)
(0.286609 0.49369 4.18647e-20)
(0.404281 0.545098 2.383e-20)
(0.485871 0.515769 3.9736e-20)
(0.549386 0.463515 -9.104e-21)
(0.604045 0.411779 3.73042e-21)
(0.652697 0.365656 3.01601e-20)
(0.696663 0.324839 6.8501e-21)
(0.736944 0.288211 6.62791e-22)
(0.770007 0.256328 -1.31788e-20)
(0.111715 0.244728 -3.38557e-20)
(0.253476 0.460299 -2.35856e-21)
(0.367968 0.506688 -1.42599e-20)
(0.451625 0.47862 -6.46925e-20)
(0.518808 0.429827 -6.28525e-20)
(0.577128 0.381772 1.04278e-20)
(0.629036 0.338986 -2.5904e-20)
(0.675805 0.301157 1.67612e-20)
(0.718368 0.267292 9.08386e-21)
(0.753765 0.237735 1.87186e-20)
(0.0949714 0.226342 5.08138e-20)
(0.222604 0.423755 -4.16567e-20)
(0.334307 0.465255 -2.13461e-20)
(0.419975 0.438875 3.74864e-20)
(0.490584 0.393935 4.30712e-20)
(0.552291 0.34987 -1.44767e-20)
(0.607205 0.310678 -1.95526e-21)
(0.656554 0.276054 -5.19409e-20)
(0.701221 0.245121 -2.93695e-20)
(0.738825 0.218038 1.12538e-20)
(0.0794854 0.206093 -2.90694e-20)
(0.194281 0.384318 1.22096e-20)
(0.30356 0.421053 4.54023e-20)
(0.391135 0.396754 -2.06959e-20)
(0.464891 0.356023 1.76432e-21)
(0.529685 0.316231 5.81959e-20)
(0.587333 0.280868 2.58933e-21)
(0.639022 0.249647 5.00694e-20)
(0.685601 0.221799 2.08709e-20)
(0.725256 0.197333 -3.32294e-20)
(0.065441 0.184151 4.10309e-20)
(0.168771 0.34227 4.67103e-21)
(0.275965 0.374359 3.04489e-21)
(0.3653 0.352493 4.18641e-20)
(0.441891 0.316292 -5.4933e-21)
(0.509447 0.281025 -3.66282e-20)
(0.569536 0.249701 1.79685e-20)
(0.623312 0.22206 -2.8789e-20)
(0.671597 0.197435 -1.19816e-20)
(0.713118 0.175725 1.2124e-20)
(0.0530032 0.160706 -2.55496e-20)
(0.146307 0.297915 -4.94023e-20)
(0.251732 0.325465 1.15282e-20)
(0.342644 0.306343 -2.25324e-20)
(0.421726 0.274951 -1.35242e-20)
(0.491697 0.244432 3.2992e-20)
(0.55392 0.217334 -7.97703e-21)
(0.609513 0.193428 7.29606e-21)
(0.659287 0.172147 -8.93655e-21)
(0.702469 0.153322 1.78125e-20)
(0.0423159 0.135961 9.41128e-21)
(0.127091 0.251574 3.3453e-20)
(0.231042 0.274678 -4.6671e-20)
(0.323315 0.258568 2.20102e-20)
(0.40452 0.232224 -1.00588e-20)
(0.476542 0.206645 -2.83222e-20)
(0.540575 0.183931 2.3182e-20)
(0.597707 0.163893 4.82157e-21)
(0.648743 0.146062 -7.42382e-22)
(0.693357 0.130235 -2.07065e-20)
(0.0335011 0.110131 3.12571e-21)
(0.111292 0.20358 1.09166e-20)
(0.214048 0.222318 4.24195e-20)
(0.30744 0.209441 -8.17913e-21)
(0.390378 0.188344 -6.44952e-21)
(0.464072 0.167861 2.36208e-21)
(0.529578 0.149663 1.11761e-21)
(0.587962 0.133602 8.6656e-21)
(0.640025 0.119309 -1.14065e-20)
(0.685823 0.10658 -7.2464e-21)
(0.0266578 0.083442 -7.75705e-21)
(0.09905 0.154283 -1.32768e-20)
(0.200875 0.168717 -3.31763e-20)
(0.295121 0.159245 1.67108e-20)
(0.379386 0.14355 1.3607e-20)
(0.454357 0.128287 5.80386e-22)
(0.520992 0.114708 -2.27557e-20)
(0.580334 0.10271 -1.01306e-20)
(0.633184 0.0920239 7.98995e-21)
(0.6799 0.0824735 8.57142e-21)
(0.0218607 0.0561293 1.36361e-21)
(0.0904671 0.10404 -2.81431e-21)
(0.191615 0.114214 6.28797e-21)
(0.286435 0.10827 -4.25632e-21)
(0.371606 0.0980876 -3.78782e-21)
(0.447454 0.0881336 -2.56351e-21)
(0.514864 0.0792486 4.69826e-21)
(0.574865 0.0713745 1.79044e-20)
(0.628255 0.0643421 2.58449e-21)
(0.675611 0.058021 -4.58012e-21)
(0.281433 0.0568107 -3.64162e-21)
(0.367083 0.0522079 3.46615e-21)
(0.443399 0.0476161 1.56329e-21)
(0.511226 0.0434695 -1.55605e-21)
(0.571583 0.0397562 -7.09504e-21)
(0.625261 0.0364063 2.33546e-21)
(0.672958 0.0333516 -2.18216e-21)
(1.33451 0.214157 -1.93621e-22)
(1.3447 0.202206 -1.888e-21)
(1.35429 0.190084 -4.02694e-22)
(1.36328 0.177835 -1.10503e-21)
(1.37169 0.165504 6.39673e-21)
(1.37951 0.153132 -6.06207e-21)
(1.38671 0.140753 3.78826e-21)
(1.39324 0.128398 1.58018e-20)
(1.31848 0.201332 -4.97833e-23)
(1.32831 0.190537 1.61515e-21)
(1.33768 0.179578 1.39205e-21)
(1.34658 0.168486 -6.91225e-21)
(1.35505 0.157291 2.24153e-21)
(1.36309 0.146025 -1.38706e-21)
(1.3707 0.134717 3.84154e-21)
(1.37788 0.123394 -7.54142e-21)
(1.30331 0.188371 5.20827e-22)
(1.31245 0.178622 1.18995e-21)
(1.32126 0.168716 6.72768e-22)
(1.32976 0.158681 3.42513e-21)
(1.33797 0.14854 4.57335e-21)
(1.34591 0.138314 6.66818e-21)
(1.35357 0.128023 -2.07997e-22)
(1.36098 0.117687 1.25085e-21)
(1.28936 0.175902 -1.72914e-22)
(1.29774 0.167034 -2.05047e-21)
(1.30588 0.158035 -1.90429e-21)
(1.3138 0.148925 1.39357e-21)
(1.32152 0.139717 -5.17932e-21)
(1.32908 0.130426 -1.20722e-20)
(1.33648 0.121059 5.34413e-21)
(1.34374 0.111629 6.55398e-22)
(1.27636 0.163916 2.36966e-23)
(1.28404 0.155841 1.02208e-21)
(1.29153 0.147645 2.58359e-21)
(1.29885 0.13934 1.0067e-21)
(1.30602 0.130938 -2.17863e-22)
(1.31306 0.122446 2.93702e-21)
(1.32001 0.113869 2.31922e-21)
(1.32687 0.105214 -2.58433e-21)
(1.2641 0.152362 2.20654e-24)
(1.27114 0.145005 1.10916e-21)
(1.27802 0.137529 -1.89432e-21)
(1.28475 0.129943 -1.42047e-21)
(1.29136 0.122253 9.08755e-22)
(1.29787 0.114466 1.99977e-21)
(1.3043 0.106585 -3.47748e-21)
(1.31066 0.0986125 -1.70068e-21)
(1.25232 0.141282 1.09445e-22)
(1.25877 0.13456 -1.15323e-21)
(1.26508 0.127726 1.7142e-21)
(1.27127 0.120785 1.10492e-21)
(1.27735 0.113741 2.1233e-21)
(1.28335 0.106595 -8.72394e-22)
(1.28928 0.099352 -5.79886e-21)
(1.29514 0.0920107 3.83987e-21)
(1.24095 0.130654 -2.59096e-22)
(1.24684 0.124508 -5.27437e-22)
(1.25261 0.118258 -5.73621e-22)
(1.25829 0.111906 -6.31789e-22)
(1.26387 0.105454 4.03817e-22)
(1.26938 0.098903 2.41715e-21)
(1.27482 0.0922544 6.41273e-21)
(1.28022 0.0855055 1.35579e-21)
(1.22991 0.120482 1.26651e-22)
(1.23527 0.114864 -4.70549e-23)
(1.24054 0.10915 -2.37197e-22)
(1.24572 0.103341 -1.08991e-21)
(1.25083 0.0974361 -1.91661e-21)
(1.25586 0.0914358 -2.52079e-21)
(1.26085 0.0853405 -1.69199e-21)
(1.26579 0.0791466 -2.43954e-21)
(1.21921 0.110755 8.30806e-23)
(1.22408 0.105629 9.65583e-22)
(1.22886 0.100413 8.27871e-23)
(1.23357 0.0951069 8.20181e-22)
(1.23821 0.0897116 5.33166e-23)
(1.24279 0.0842256 -3.65126e-21)
(1.24733 0.0786486 -2.45477e-22)
(1.25183 0.0729774 2.11506e-21)
(1.20881 0.101547 -1.99645e-22)
(1.21321 0.0968687 2.60102e-22)
(1.21753 0.0921075 -2.7553e-22)
(1.22178 0.0872643 -5.33519e-22)
(1.22599 0.0823387 -7.92241e-22)
(1.23014 0.0773294 2.45654e-21)
(1.23425 0.0722353 1.19143e-21)
(1.23832 0.0670541 -2.00032e-21)
(1.1987 0.0928218 6.4943e-23)
(1.20265 0.088558 -8.53954e-22)
(1.20654 0.0842203 4.63321e-22)
(1.21038 0.0798088 3.28422e-23)
(1.21416 0.0753226 8.69881e-22)
(1.2179 0.0707602 -9.19465e-22)
(1.2216 0.0661202 1.22711e-21)
(1.22527 0.0614005 1.58753e-21)
(1.18887 0.0845911 4.2442e-23)
(1.19241 0.0807153 3.48465e-22)
(1.1959 0.0767735 -8.40482e-22)
(1.19934 0.0727653 -1.55398e-22)
(1.20274 0.0686897 -9.39075e-22)
(1.20609 0.0645456 1.00421e-21)
(1.20941 0.0603316 -3.81655e-21)
(1.21269 0.0560459 -2.31642e-21)
(1.17934 0.0768711 -1.07241e-22)
(1.18251 0.0733523 1.15337e-22)
(1.18562 0.0697769 6.97818e-22)
(1.1887 0.0661436 -3.94957e-22)
(1.19173 0.0624512 1.5431e-21)
(1.19472 0.0586984 -5.48652e-22)
(1.19767 0.054884 7.60824e-22)
(1.2006 0.0510064 1.30491e-21)
(1.17008 0.0696169 1.05605e-22)
(1.17291 0.0664371 -4.13587e-23)
(1.17569 0.063208 -5.80156e-22)
(1.17843 0.0599283 1.31205e-21)
(1.18113 0.0565969 -7.43509e-22)
(1.18379 0.0532128 6.36368e-22)
(1.18642 0.0497749 6.64362e-22)
(1.18901 0.0462817 2.64925e-22)
(1.16118 0.0628223 6.04854e-23)
(1.16369 0.0599654 9.85904e-23)
(1.16616 0.0570639 2.75929e-22)
(1.16859 0.0541178 -9.96476e-22)
(1.17098 0.0511265 -6.38963e-22)
(1.17334 0.0480894 1.1704e-22)
(1.17566 0.0450056 -6.02093e-22)
(1.17795 0.041874 6.94125e-22)
(1.1802 0.0386937 -2.64084e-21)
(1.1526 0.0565028 -8.80679e-23)
(1.15483 0.0539423 -2.75387e-23)
(1.15701 0.0513438 -9.89763e-25)
(1.15916 0.0487076 7.18358e-22)
(1.16128 0.0460331 4.76948e-22)
(1.16336 0.0433198 -3.133e-22)
(1.1654 0.0405669 -5.721e-22)
(1.16742 0.0377738 1.43386e-22)
(1.1694 0.0349394 4.06831e-22)
(1.14437 0.0506124 6.78737e-23)
(1.14635 0.0483306 -1.37246e-23)
(1.14828 0.0460171 2.53018e-22)
(1.15018 0.0436718 -2.4384e-22)
(1.15205 0.0412944 -3.45833e-23)
(1.15388 0.0388845 6.39638e-22)
(1.15568 0.0364415 2.69847e-22)
(1.15744 0.033965 -8.09601e-22)
(1.15918 0.0314542 -3.71787e-22)
(1.13652 0.0451324 -6.92206e-23)
(1.13827 0.0431116 -8.70922e-23)
(1.13998 0.0410644 -4.58904e-23)
(1.14166 0.0389909 -3.80311e-23)
(1.1433 0.0368907 -4.08589e-22)
(1.14491 0.0347638 4.54619e-22)
(1.14649 0.0326098 -3.09029e-22)
(1.14804 0.0304283 -7.05267e-22)
(1.14955 0.0282189 1.0096e-21)
(1.12907 0.0400327 -3.54532e-23)
(1.13062 0.0382556 9.24525e-23)
(1.13213 0.036457 -2.45265e-23)
(1.13361 0.0346368 -1.06967e-22)
(1.13506 0.032795 1.29309e-22)
(1.13648 0.0309316 -3.14947e-22)
(1.13786 0.0290463 5.40431e-22)
(1.13921 0.0271389 4.871e-22)
(1.14053 0.0252093 -6.44044e-23)
(1.12205 0.0352809 5.42616e-23)
(1.12342 0.0337312 -6.06113e-23)
(1.12476 0.0321641 -2.74574e-23)
(1.12607 0.0305797 -1.32618e-22)
(1.12735 0.0289781 5.17257e-23)
(1.1286 0.0273593 1.31586e-22)
(1.12981 0.0257232 -4.66171e-23)
(1.13099 0.0240698 -5.88056e-22)
(1.13214 0.0223989 4.17499e-22)
(1.11549 0.0308423 3.75427e-24)
(1.11671 0.0295043 -6.07096e-23)
(1.1179 0.0281525 -7.3823e-23)
(1.11906 0.0267871 4.79078e-23)
(1.12019 0.0254082 2.03358e-22)
(1.12129 0.0240159 -1.92607e-22)
(1.12236 0.0226103 -3.97246e-22)
(1.12339 0.0211913 4.61128e-22)
(1.1244 0.0197589 -6.71172e-22)
(1.10943 0.0266803 -4.01149e-24)
(1.11052 0.0255391 -2.11095e-23)
(1.11158 0.0243871 9.06339e-23)
(1.11262 0.0232247 -2.71996e-23)
(1.11362 0.0220519 -1.88396e-22)
(1.11459 0.0208689 2.53957e-22)
(1.11553 0.0196758 -3.15015e-22)
(1.11644 0.0184727 -1.8034e-22)
(1.11732 0.0172597 5.54009e-22)
(1.1039 0.0227576 -2.23801e-23)
(1.10488 0.0217987 5.47417e-23)
(1.10584 0.0208319 5.39503e-23)
(1.10676 0.0198573 -6.89249e-23)
(1.10766 0.018875 -8.54755e-24)
(1.10852 0.0178851 -2.40655e-22)
(1.10935 0.0168878 -1.8579e-23)
(1.11016 0.0158831 2.53101e-22)
(1.11093 0.0148713 -4.01507e-22)
(1.09895 0.0190292 1.83808e-27)
(1.09984 0.0182406 1.00317e-23)
(1.1007 0.0174461 7.60705e-25)
(1.10154 0.0166459 4.68995e-23)
(1.10234 0.0158401 2.48279e-22)
(1.10312 0.0150289 -1.8556e-22)
(1.10386 0.0142122 1.08474e-22)
(1.10458 0.0133904 -2.08098e-24)
(1.10526 0.0125635 -2.75129e-22)
(1.09463 0.0154532 1.55522e-23)
(1.09545 0.0148238 -3.69602e-23)
(1.09624 0.0141901 1.01954e-23)
(1.097 0.0135523 -9.2675e-23)
(1.09773 0.0129104 3.67975e-23)
(1.09843 0.0122646 6.28768e-23)
(1.0991 0.0116151 1.49464e-22)
(1.09974 0.010962 2.16124e-23)
(1.10035 0.0103053 -3.51439e-23)
(1.091 0.0119912 1.41949e-23)
(1.09176 0.0115111 -7.2098e-24)
(1.09249 0.0110281 -2.72766e-23)
(1.09319 0.0105422 7.38754e-23)
(1.09387 0.0100536 -1.27731e-22)
(1.09451 0.00956239 9.62524e-23)
(1.09512 0.0090686 5.49162e-23)
(1.09571 0.00857235 -1.96788e-22)
(1.09626 0.00807375 -1.24759e-22)
(1.08813 0.00858176 1.66385e-24)
(1.08885 0.00824316 -3.51599e-23)
(1.08953 0.00790274 1.18913e-23)
(1.09019 0.00756056 -9.66443e-23)
(1.09082 0.00721666 1.02508e-22)
(1.09142 0.00687111 1.60982e-23)
(1.09199 0.00652394 5.72909e-23)
(1.09253 0.00617523 -1.991e-22)
(1.09304 0.00582502 3.30952e-22)
(1.08611 0.00520215 3.01384e-25)
(1.08679 0.00500069 8.16374e-24)
(1.08744 0.00479807 1.04127e-23)
(1.08807 0.00459431 -3.77317e-23)
(1.08867 0.00438942 7.14479e-23)
(1.08924 0.00418341 -8.18069e-23)
(1.08978 0.00397633 9.41233e-23)
(1.09029 0.00376819 -3.70613e-23)
(1.09077 0.00355904 -8.38681e-23)
(1.08504 0.00171841 7.54906e-25)
(1.0857 0.00165437 -2.43733e-23)
(1.08633 0.00159021 5.21618e-23)
(1.08694 0.00152584 5.27222e-23)
(1.08752 0.00146118 -3.21776e-23)
(1.08807 0.00139615 5.42484e-23)
(1.08859 0.00133069 -5.73709e-23)
(1.08908 0.00126474 -1.61804e-23)
(1.08955 0.00119823 -3.18049e-23)
(1.00643 0.344523 1.14691e-21)
(1.02733 0.342766 -7.56243e-22)
(1.04616 0.341717 1.58773e-21)
(1.06524 0.340371 -2.04828e-22)
(1.08506 0.338405 -7.68973e-23)
(1.10473 0.335863 2.28683e-22)
(1.12389 0.332674 -1.48456e-21)
(1.1426 0.328728 -1.76118e-21)
(1.16089 0.323987 3.09698e-22)
(1.17869 0.318458 -5.81256e-21)
(1.19595 0.312164 -3.91884e-21)
(1.21261 0.305132 3.66691e-21)
(1.22866 0.297424 -7.88115e-21)
(1.24396 0.289033 -1.95436e-21)
(1.25903 0.280054 3.64527e-21)
(1.27391 0.270053 -4.73854e-21)
(1.2876 0.259475 7.4562e-22)
(1.30031 0.248572 3.59482e-22)
(1.31232 0.237376 1.74523e-21)
(1.32372 0.225894 2.88367e-22)
(1.01994 0.326218 -2.00663e-21)
(1.04058 0.324041 1.03469e-21)
(1.05905 0.322701 -1.60343e-21)
(1.07604 0.321289 2.3793e-23)
(1.0935 0.319147 4.33392e-24)
(1.11105 0.316292 -3.73965e-22)
(1.1281 0.312797 1.01514e-21)
(1.14467 0.308609 4.49172e-21)
(1.16088 0.303699 -5.28749e-21)
(1.17672 0.298096 3.58414e-21)
(1.19212 0.29185 -8.53516e-22)
(1.20707 0.284995 -4.09702e-21)
(1.22153 0.277598 3.12972e-21)
(1.23559 0.269652 -2.03914e-21)
(1.24877 0.26136 5.30738e-22)
(1.26144 0.25214 -1.2005e-21)
(1.27399 0.242418 4.99612e-21)
(1.28599 0.232469 -9.39137e-22)
(1.29735 0.222316 -1.47028e-21)
(1.30816 0.211935 1.98839e-23)
(1.03365 0.306336 -9.53162e-22)
(1.05291 0.304819 -1.40495e-21)
(1.0707 0.303363 4.56784e-22)
(1.08616 0.30168 -1.1122e-22)
(1.10159 0.299274 4.65066e-22)
(1.11734 0.296097 5.74253e-23)
(1.13273 0.292304 1.50841e-21)
(1.14759 0.287939 3.79727e-21)
(1.16206 0.28298 7.18122e-21)
(1.17618 0.277444 -3.3656e-22)
(1.1899 0.271368 5.65179e-21)
(1.2032 0.264788 -8.54801e-22)
(1.21603 0.257712 -8.08852e-22)
(1.22842 0.250172 3.15214e-22)
(1.24024 0.242109 -4.8725e-21)
(1.25164 0.233829 -3.00041e-21)
(1.26288 0.225265 -2.15783e-21)
(1.27369 0.216404 -5.31366e-22)
(1.28398 0.207286 -1.16715e-21)
(1.29383 0.197935 -5.50533e-22)
(1.04635 0.288172 -1.42412e-21)
(1.06392 0.286781 1.48283e-21)
(1.08055 0.284966 4.01172e-23)
(1.09464 0.2828 -2.50055e-23)
(1.10827 0.28006 4.05687e-22)
(1.12228 0.276656 -1.58126e-21)
(1.13613 0.272703 -1.3157e-21)
(1.14948 0.268283 -6.58717e-21)
(1.16242 0.263393 -2.14384e-21)
(1.17503 0.25803 6.0909e-21)
(1.1873 0.252218 -3.03186e-21)
(1.19918 0.245993 4.97869e-21)
(1.21065 0.239373 -3.52626e-22)
(1.2217 0.232408 -2.89829e-21)
(1.23228 0.225099 7.49706e-21)
(1.24254 0.217585 3.12251e-21)
(1.25267 0.209728 -8.86817e-22)
(1.26243 0.201564 1.18878e-21)
(1.27176 0.19318 1.85923e-21)
(1.28071 0.184622 2.11695e-22)
(1.05781 0.270773 2.25438e-21)
(1.07365 0.269131 -9.90941e-22)
(1.0889 0.266912 2.40517e-22)
(1.10171 0.264325 3.8085e-22)
(1.1138 0.261323 -4.16234e-22)
(1.12621 0.257808 6.76708e-22)
(1.13861 0.253821 -1.04101e-21)
(1.15059 0.249441 3.3865e-21)
(1.16215 0.244685 -5.00836e-21)
(1.1734 0.239548 -7.209e-21)
(1.18435 0.234041 -1.30227e-22)
(1.19498 0.228195 -2.04964e-21)
(1.20526 0.222032 1.09083e-21)
(1.21519 0.215593 -1.17592e-21)
(1.2248 0.208882 -2.21442e-21)
(1.23402 0.201997 1.11223e-22)
(1.24299 0.19479 -6.31003e-22)
(1.25176 0.187318 -2.04502e-21)
(1.26026 0.179662 -7.2513e-22)
(1.26844 0.171859 -8.61918e-23)
(1.068 0.253609 -1.2423e-22)
(1.08212 0.251702 3.9557e-22)
(1.09588 0.249213 4.93477e-23)
(1.10746 0.246369 -8.2561e-22)
(1.11822 0.243221 2.95735e-23)
(1.12919 0.239683 -5.44652e-22)
(1.14022 0.23575 2.67221e-21)
(1.15093 0.231477 2.08129e-21)
(1.16126 0.226895 4.29122e-21)
(1.17128 0.222005 2.41219e-21)
(1.18105 0.216813 1.69211e-21)
(1.19055 0.211338 -1.14158e-22)
(1.19976 0.205603 6.06576e-22)
(1.20867 0.199625 2.34901e-21)
(1.21731 0.193422 -1.8812e-21)
(1.22562 0.187008 -5.3456e-22)
(1.23369 0.180406 1.40523e-21)
(1.24163 0.173626 1.58144e-21)
(1.24937 0.166682 -1.12134e-21)
(1.25685 0.159591 4.22192e-23)
(1.07687 0.236728 -8.23677e-22)
(1.08939 0.234633 -3.00605e-22)
(1.10161 0.232002 -2.2852e-23)
(1.11201 0.229033 -5.06359e-22)
(1.12159 0.225824 1.47497e-21)
(1.13128 0.22232 3.15268e-21)
(1.14105 0.218492 2.14638e-21)
(1.1506 0.214371 -5.8386e-21)
(1.1598 0.209991 -1.58771e-21)
(1.16872 0.205362 -2.05086e-22)
(1.17742 0.200487 5.13294e-22)
(1.1859 0.195378 -1.04833e-21)
(1.19414 0.190054 -1.628e-21)
(1.20213 0.184525 3.22884e-21)
(1.20989 0.17881 6.73935e-22)
(1.21739 0.172912 -1.3087e-21)
(1.22469 0.166873 -1.20258e-21)
(1.23189 0.160693 5.18968e-22)
(1.2389 0.154361 1.17555e-21)
(1.24571 0.147886 -1.57142e-22)
(1.08441 0.220294 4.9459e-22)
(1.09545 0.218074 -2.59409e-23)