/*--------------------------------*- C++ -*----------------------------------*\
  =========                 |
  \\      /  F ield         | OpenFOAM: The Open Source CFD Toolbox
   \\    /   O peration     | Website:  https://openfoam.org
    \\  /    A nd           | Version:  7
     \\/     M anipulation  |
\*---------------------------------------------------------------------------*/
FoamFile
{
    version     2.0;
    format      ascii;
    class       volScalarField;
    location    "10";
    object      p;
}
// * * * * * * * * * * * * * * * * * * * * * * * * * * * * * * * * * * * * * //

dimensions      [0 2 -2 0 0 0 0];

internalField   nonuniform List<scalar> 
2125
(
0.847168
0.789773
0.757951
0.847168
0.789773
0.757951
0.730076
0.702779
0.675033
0.645974
0.615682
0.584659
0.553578
0.842681
0.785541
0.753933
0.726321
0.699329
0.671905
0.643168
0.613184
0.582429
0.551612
0.833737
0.777107
0.745923
0.718835
0.69245
0.665669
0.637573
0.608201
0.577981
0.547689
0.820399
0.764528
0.733977
0.707669
0.682186
0.656359
0.629218
0.60076
0.571337
0.541826
0.802757
0.747894
0.718176
0.692895
0.668599
0.644033
0.618151
0.5909
0.562531
0.534049
0.780934
0.72732
0.698629
0.67461
0.651776
0.628761
0.604433
0.578672
0.551607
0.524389
0.755079
0.702949
0.67547
0.652936
0.631822
0.610633
0.58814
0.564141
0.538621
0.512889
0.72537
0.67495
0.648857
0.628014
0.608859
0.589757
0.56936
0.547382
0.523634
0.499592
0.692008
0.643519
0.618971
0.600009
0.583032
0.566253
0.548196
0.52848
0.506719
0.484552
0.655223
0.608873
0.586018
0.569103
0.554501
0.540259
0.524764
0.507531
0.487956
0.467824
0.615265
0.571252
0.55022
0.535501
0.523443
0.511926
0.49919
0.48464
0.46743
0.449467
0.572406
0.530916
0.511823
0.499422
0.490052
0.481419
0.471612
0.459919
0.445234
0.429541
0.526935
0.488142
0.471087
0.461104
0.454535
0.448916
0.442178
0.433492
0.421466
0.408109
0.479161
0.443224
0.428288
0.420796
0.417113
0.414607
0.411048
0.405487
0.396231
0.385232
0.429406
0.396469
0.383716
0.378765
0.378021
0.378693
0.378391
0.376044
0.36964
0.360973
0.378002
0.348195
0.337671
0.335284
0.337502
0.341386
0.344388
0.345312
0.34182
0.3354
0.325292
0.298727
0.290462
0.290638
0.295811
0.30291
0.30923
0.313454
0.312914
0.308568
0.271625
0.248398
0.242403
0.245117
0.25321
0.263496
0.27312
0.280639
0.283051
0.280476
0.217354
0.197541
0.193813
0.199017
0.209966
0.223384
0.236274
0.247025
0.25232
0.25103
0.16283
0.14649
0.145008
0.152635
0.166349
0.182822
0.198922
0.212825
0.221332
0.221479
0.108402
0.095573
0.0963051
0.106265
0.122632
0.142056
0.161304
0.178383
0.192037
0.19967
0.0544099
0.0451123
0.0480108
0.0601974
0.0790733
0.101305
0.123592
0.143642
0.161054
0.174775
0.00118825
-0.00458205
0.000424357
0.014713
0.0359321
0.0607856
0.0859406
0.108801
0.129115
0.147422
-0.050944
-0.0532127
-0.0461676
-0.0299143
-0.0065374
0.0207291
0.0485538
0.0741239
0.0970819
0.11902
-0.101707
-0.100483
-0.0914918
-0.0734224
-0.0480868
-0.0186306
0.0116481
0.039806
0.0653106
0.0902039
-0.150829
-0.146121
-0.135293
-0.115565
-0.0884777
-0.0570677
-0.0245658
0.00601096
0.03394
0.0614141
-0.197986
-0.189928
-0.177334
-0.156114
-0.127486
-0.0943676
-0.0598865
-0.0270906
0.00310279
0.0329246
-0.242967
-0.231664
-0.217401
-0.194842
-0.16492
-0.130331
-0.0941242
-0.0593274
-0.0270526
0.00492309
-0.285566
-0.271132
-0.255308
-0.231575
-0.200564
-0.164783
-0.127104
-0.0905398
-0.0563892
-0.0224284
-0.325598
-0.308167
-0.290891
-0.266148
-0.234267
-0.197544
-0.158669
-0.120585
-0.0848007
-0.048969
-0.362907
-0.342633
-0.324017
-0.298422
-0.265885
-0.228473
-0.188675
-0.149335
-0.112188
-0.0745112
-0.397368
-0.374423
-0.354581
-0.328285
-0.295298
-0.257447
-0.217
-0.17666
-0.138199
-0.0991493
-0.428888
-0.40346
-0.382508
-0.355655
-0.322412
-0.284364
-0.243539
-0.202478
-0.163041
-0.123579
-0.457404
-0.429699
-0.407751
-0.380477
-0.34716
-0.309143
-0.268205
-0.2267
-0.186506
-0.146494
-0.482887
-0.453121
-0.430295
-0.402726
-0.369502
-0.33173
-0.290929
-0.249247
-0.208532
-0.16803
-0.505337
-0.473739
-0.450151
-0.422404
-0.389424
-0.352092
-0.311664
-0.270069
-0.229102
-0.188326
-0.524785
-0.491592
-0.467357
-0.43954
-0.406936
-0.37022
-0.330388
-0.289131
-0.248176
-0.207372
-0.541288
-0.506745
-0.481977
-0.454187
-0.422077
-0.386131
-0.347094
-0.306413
-0.265719
-0.225135
-0.554931
-0.519284
-0.494098
-0.466425
-0.434906
-0.399861
-0.361797
-0.321912
-0.281713
-0.241597
-0.56582
-0.52932
-0.503827
-0.47635
-0.445503
-0.411468
-0.374532
-0.335641
-0.296159
-0.256759
-0.574083
-0.536976
-0.511288
-0.484079
-0.453971
-0.421032
-0.385351
-0.347631
-0.309069
-0.270634
-0.579866
-0.542395
-0.516621
-0.489746
-0.460426
-0.428646
-0.394324
-0.357928
-0.32047
-0.283248
-0.583329
-0.54573
-0.519976
-0.493494
-0.465
-0.434423
-0.401538
-0.366593
-0.330404
-0.294638
-0.584642
-0.547141
-0.521512
-0.495477
-0.467837
-0.438486
-0.407091
-0.373701
-0.338925
-0.304856
-0.583985
-0.546797
-0.521393
-0.495856
-0.469086
-0.440971
-0.411097
-0.379339
-0.346097
-0.313963
-0.581541
-0.544867
-0.519786
-0.494794
-0.468904
-0.442019
-0.413675
-0.383603
-0.351997
-0.322031
-0.577495
-0.541521
-0.516857
-0.492455
-0.46745
-0.441776
-0.414954
-0.386597
-0.356707
-0.329138
-0.57203
-0.536927
-0.512769
-0.489
-0.464882
-0.440392
-0.415065
-0.388432
-0.360317
-0.335366
-0.565326
-0.531248
-0.507681
-0.484587
-0.461352
-0.438013
-0.414139
-0.389217
-0.362917
-0.557553
-0.524639
-0.501743
-0.479365
-0.457012
-0.434782
-0.412309
-0.389064
-0.548876
-0.517247
-0.495099
-0.473476
-0.452001
-0.430838
-0.4097
-0.539445
-0.50921
-0.487879
-0.467052
-0.446453
-0.529401
-0.500653
-0.480206
-0.460212
-0.518872
-0.491693
-0.472189
-0.507972
-0.482433
-0.496806
-0.472966
-0.485469
0.225821
0.228504
0.234249
0.242101
0.252024
0.263563
0.2763
0.289624
0.302533
0.313925
0.321761
0.324594
0.318066
0.303675
0.267608
0.226471
0.229188
0.23503
0.243031
0.253182
0.265061
0.278299
0.292364
0.306344
0.319281
0.329259
0.335063
0.332479
0.322999
0.295192
0.227079
0.229792
0.235672
0.243735
0.253996
0.266052
0.279574
0.294095
0.308784
0.322818
0.334419
0.342615
0.343449
0.338267
0.317391
0.22766
0.230374
0.236296
0.244432
0.254817
0.267071
0.280905
0.295915
0.311346
0.326504
0.339737
0.350269
0.354414
0.353249
0.338774
0.228213
0.230934
0.236904
0.245121
0.25564
0.268104
0.282264
0.297774
0.313955
0.330225
0.345065
0.357843
0.36518
0.367834
0.359223
0.228735
0.231462
0.237483
0.245776
0.256423
0.269087
0.283554
0.299536
0.316424
0.333741
0.350097
0.364982
0.375344
0.381635
0.378429
0.229226
0.231961
0.238027
0.246393
0.257158
0.270009
0.284763
0.301186
0.318733
0.337027
0.354807
0.371663
0.384874
0.394634
0.396437
0.229685
0.232429
0.238536
0.24697
0.257848
0.270873
0.285895
0.30273
0.320895
0.340102
0.359217
0.377914
0.393797
0.406854
0.413297
0.230111
0.232865
0.239011
0.247509
0.258491
0.271679
0.286952
0.30417
0.322911
0.342965
0.363325
0.383734
0.402101
0.418273
0.429008
0.230504
0.233267
0.239458
0.248008
0.259086
0.272425
0.28793
0.305502
0.324775
0.345609
0.367121
0.389111
0.40977
0.42886
0.443557
0.230863
0.233635
0.239876
0.248465
0.259632
0.273109
0.288827
0.306722
0.326483
0.34803
0.370596
0.394035
0.41679
0.438586
0.456921
0.231188
0.233968
0.240195
0.24888
0.260127
0.27373
0.28964
0.307828
0.32803
0.350222
0.373743
0.398497
0.423149
0.447425
0.469073
0.231478
0.234266
0.240536
0.249252
0.26057
0.274285
0.290367
0.308817
0.329415
0.352182
0.376558
0.402489
0.428836
0.455351
0.479981
0.231733
0.234529
0.240831
0.249578
0.26096
0.274774
0.291008
0.309688
0.330633
0.353906
0.379032
0.406002
0.433839
0.46234
0.489613
0.231952
0.234755
0.241079
0.249859
0.261296
0.275196
0.29156
0.310438
0.331682
0.35539
0.381163
0.409028
0.438148
0.46837
0.497937
0.232135
0.234944
0.241285
0.250094
0.261577
0.275548
0.292022
0.311065
0.33256
0.356631
0.382945
0.41156
0.441754
0.473424
0.504923
0.232282
0.235095
0.241451
0.250283
0.261803
0.275831
0.292393
0.311569
0.333265
0.357628
0.384376
0.413593
0.444649
0.477486
0.510545
0.232392
0.235209
0.241576
0.250425
0.261973
0.276045
0.292672
0.311948
0.333795
0.358377
0.385451
0.415122
0.446827
0.480544
0.514781
0.232466
0.235286
0.24166
0.25052
0.262087
0.276187
0.292859
0.312201
0.334149
0.358877
0.386169
0.416144
0.448281
0.482588
0.517615
0.232503
0.235324
0.241702
0.250568
0.262144
0.276258
0.292952
0.312327
0.334326
0.359127
0.386528
0.416655
0.449009
0.483611
0.519035
0.158483
0.156238
0.151927
0.146017
0.138947
0.131073
0.122695
0.114075
0.10544
0.0969727
0.0888126
0.0810589
0.0737759
0.0669974
0.0607388
0.15917
0.156948
0.152664
0.146779
0.139725
0.131849
0.123446
0.114781
0.10608
0.0975323
0.0892807
0.081429
0.0740463
0.067169
0.0608181
0.16045
0.158267
0.154034
0.148202
0.141183
0.133307
0.124864
0.116116
0.107296
0.0985984
0.0901753
0.0821389
0.074566
0.0674978
0.0609627
0.16223
0.1601
0.155947
0.150199
0.143238
0.135373
0.126882
0.118027
0.109044
0.100139
0.0914737
0.0831744
0.0753295
0.0679879
0.0611909
0.164422
0.162363
0.15832
0.152691
0.145819
0.137985
0.129451
0.120475
0.111298
0.102136
0.0931678
0.0845346
0.0763409
0.068646
0.0615084
0.16695
0.164978
0.16108
0.155609
0.148865
0.141092
0.132531
0.123433
0.114042
0.104585
0.0952604
0.0862279
0.0776125
0.069487
0.0619325
0.169742
0.167876
0.164157
0.15889
0.152319
0.144647
0.136089
0.126881
0.117268
0.10749
0.0977628
0.0882712
0.0791641
0.0705312
0.0624821
0.172733
0.170992
0.167489
0.162474
0.15613
0.148611
0.140097
0.130804
0.120975
0.110859
0.100693
0.0906878
0.0810212
0.0718043
0.0631808
0.175865
0.174266
0.171019
0.166307
0.160249
0.152943
0.144527
0.13519
0.125164
0.114705
0.104074
0.0935066
0.0832152
0.0733369
0.0640557
0.179085
0.177647
0.174693
0.170338
0.164629
0.157605
0.149353
0.140025
0.129837
0.119047
0.107932
0.0967612
0.0857823
0.0751646
0.065138
0.182348
0.181087
0.178464
0.174518
0.169226
0.16256
0.154547
0.145297
0.134997
0.123899
0.112297
0.100489
0.0887636
0.0773279
0.0664628
0.185613
0.184544
0.182286
0.178801
0.173994
0.167767
0.160081
0.15099
0.140643
0.129279
0.1172
0.104731
0.0922044
0.0798722
0.0680698
0.188846
0.187981
0.186121
0.183145
0.178891
0.173187
0.165922
0.157085
0.146774
0.135202
0.122671
0.10953
0.0961542
0.0828481
0.0700029
0.192015
0.191366
0.189931
0.18751
0.183873
0.178778
0.172035
0.163557
0.153381
0.141679
0.128739
0.114931
0.100666
0.0863114
0.0723109
0.195097
0.194672
0.193686
0.191858
0.188901
0.184498
0.17838
0.170378
0.160451
0.148716
0.135432
0.120977
0.105795
0.0903231
0.0750478
0.198072
0.197876
0.197357
0.196156
0.193933
0.190304
0.184916
0.177514
0.167964
0.156314
0.142771
0.127713
0.111599
0.0949497
0.0782732
0.200923
0.20096
0.200922
0.200373
0.198933
0.196152
0.191599
0.184925
0.175893
0.164464
0.150773
0.135179
0.118138
0.100263
0.0820524
0.203639
0.203909
0.20436
0.204483
0.203865
0.202001
0.198382
0.192566
0.184203
0.173152
0.159446
0.143412
0.125469
0.10634
0.0864559
0.206211
0.206713
0.207655
0.208461
0.208698
0.207809
0.205217
0.200387
0.192852
0.182351
0.168791
0.152443
0.133649
0.113261
0.0915593
0.208633
0.209365
0.210795
0.212289
0.213402
0.213536
0.212055
0.208337
0.20179
0.192026
0.178797
0.162294
0.142731
0.121111
0.0974423
0.210904
0.211859
0.213771
0.21595
0.217952
0.219146
0.218848
0.216358
0.210961
0.202132
0.189441
0.172977
0.152762
0.129978
0.104188
0.213023
0.214193
0.216577
0.219433
0.222327
0.224606
0.225551
0.224395
0.220303
0.212614
0.200688
0.184492
0.163779
0.139946
0.111881
0.214992
0.216369
0.219209
0.222727
0.226507
0.229885
0.232119
0.232389
0.22975
0.223405
0.21249
0.196822
0.175808
0.151093
0.120602
0.216813
0.218388
0.221667
0.225827
0.230479
0.234957
0.238513
0.240284
0.239234
0.234434
0.224785
0.209934
0.188861
0.163485
0.130423
0.218491
0.220254
0.223953
0.22873
0.234234
0.239803
0.244696
0.248028
0.248686
0.245624
0.237506
0.223791
0.202956
0.177203
0.141442
0.220033
0.221972
0.226069
0.231437
0.237766
0.244409
0.250643
0.255581
0.258053
0.256912
0.250601
0.238371
0.218148
0.192396
0.153872
0.221443
0.223548
0.228021
0.233951
0.241073
0.248763
0.256331
0.2629
0.267267
0.26821
0.263966
0.253566
0.234371
0.209035
0.167796
0.222728
0.224985
0.229808
0.236265
0.244137
0.252829
0.26169
0.269867
0.276145
0.279238
0.277208
0.268843
0.250965
0.22612
0.181989
0.223893
0.226285
0.231423
0.238358
0.246918
0.256535
0.266605
0.276305
0.284421
0.289626
0.289833
0.283581
0.267248
0.242676
0.194714
0.224956
0.227478
0.232911
0.240294
0.249511
0.260033
0.271326
0.282635
0.292801
0.300532
0.303683
0.300673
0.28753
0.265531
0.215901
0.0566352
0.054497
0.0523602
0.0502197
0.0480733
0.0459221
0.0437679
0.0416123
0.0394564
0.0373014
0.0351488
0.0329998
0.0308557
0.0287177
0.0265872
0.0244654
0.0223535
0.0202529
0.0181646
0.0160899
0.056651
0.0545
0.0523559
0.0502065
0.0480472
0.0458795
0.0437058
0.0415277
0.0393463
0.0371632
0.0349798
0.0327975
0.0306179
0.0284424
0.0262727
0.0241103
0.0219566
0.0198131
0.0176815
0.015563
0.0566506
0.0544431
0.0522559
0.0500644
0.0478594
0.0456431
0.0434188
0.0411885
0.0389535
0.0367154
0.0344758
0.0322362
0.0299985
0.0277643
0.0255352
0.023313
0.0210992
0.0188958
0.0167041
0.0145256
0.056673
0.0543769
0.0521208
0.0498636
0.0475891
0.0453002
0.0430016
0.0406956
0.0383835
0.0360669
0.0337475
0.0314271
0.0291076
0.0267907
0.0244784
0.0221723
0.0198743
0.0175866
0.0153104
0.0130474
0.0567198
0.0543001
0.0519473
0.0495987
0.0472289
0.0448417
0.0424434
0.0400367
0.037623
0.0352038
0.032781
0.0303565
0.0279324
0.0255104
0.0230926
0.0206807
0.0182764
0.0158844
0.0135032
0.0111352
0.0568152
0.0542388
0.0517617
0.0492966
0.0468062
0.0442954
0.0417725
0.0392407
0.0367013
0.0341557
0.031606
0.0290543
0.0265026
0.0239529
0.0214073
0.0188679
0.0163367
0.0138153
0.0113063
0.00881141
0.0569783
0.0542101
0.0515793
0.0489707
0.0463331
0.043672
0.0409983
0.0383156
0.035625
0.0329282
0.0302271
0.0275239
0.0248208
0.0221198
0.0194232
0.0167331
0.014052
0.0113798
0.00872104
0.00607751
0.0572345
0.054238
0.0514215
0.0486407
0.0458275
0.042988
0.0401357
0.037275
0.0344067
0.0315324
0.0286541
0.0257741
0.0228946
0.0200178
0.0171458
0.0142809
0.0114255
0.00858089
0.00574998
0.0029348
0.0576113
0.0543468
0.0513096
0.0483252
0.0453058
0.0422574
0.0391966
0.0361286
0.0330541
0.0299742
0.0268913
0.0238077
0.0207254
0.0176469
0.0145742
0.0115097
0.00845564
0.00541368
0.00238636
-0.000624174
0.05814
0.0545644
0.051267
0.0480445
0.0447852
0.0414947
0.038193
0.0348861
0.0315743
0.0282589
0.0249419
0.0216257
0.0183126
0.0150046
0.0117042
0.00841333
0.00513473
0.00186969
-0.0013793
-0.00461006
0.0588552
0.054921
0.0513192
0.0478198
0.0442837
0.0407145
0.0371362
0.0335558
0.0299733
0.0263895
0.0228066
0.0192268
0.0156525
0.0120856
0.00852846
0.0049831
0.00145245
-0.00206275
-0.00556007
-0.00903724
0.0597959
0.05545
0.0514936
0.0476742
0.0438201
0.039932
0.0360378
0.0321459
0.0282557
0.0243679
0.0204843
0.0166073
0.0127389
0.00888135
0.00503645
0.00120624
-0.00260548
-0.00639951
-0.0101733
-0.0139244
0.0610051
0.0561882
0.0518201
0.0476322
0.0434146
0.0391627
0.034909
0.0306636
0.0264255
0.0221946
0.0179727
0.0137621
0.00956469
0.0053825
0.0012171
-0.0029302
-0.00705208
-0.0111552
-0.015236
-0.0192906
0.062531
0.0571764
0.0523315
0.0477206
0.0430883
0.0384225
0.033761
0.0291156
0.0244847
0.0198675
0.0152656
0.0106807
0.00611476
0.00156897
-0.00295743
-0.00746628
-0.0119203
-0.0163603
-0.0207777
-0.0251647
0.0644276
0.0584601
0.0530642
0.0479686
0.0428646
0.0377291
0.0326058
0.0275091
0.0224366
0.0173868
0.0123609
0.00736076
0.00238785
-0.00255645
-0.00746916
-0.0123453
-0.0172109
-0.0220348
-0.0268199
-0.0315694
0.0667553
0.0600903
0.0540584
0.0484082
0.0427679
0.0370997
0.0314538
0.0258476
0.0202779
0.0147422
0.00924121
0.00377632
-0.00165142
-0.00704126
-0.0123914
-0.0176978
-0.0229755
-0.0282071
-0.0333942
-0.038539
0.0695831
0.0621255
0.0553604
0.0490765
0.0428273
0.0365554
0.0303187
0.0241383
0.0180101
0.0119303
0.00589911
-8.25373e-05
-0.00601403
-0.0118952
-0.0177253
-0.0234999
-0.0292297
-0.0349074
-0.0405324
-0.0461055
0.0729895
0.064633
0.0570233
0.0500157
0.0430753
0.0361195
0.0292148
0.0223872
0.0156314
0.00894228
0.00231916
-0.00423732
-0.010727
-0.0171503
-0.0235081
-0.0297909
-0.0360172
-0.0421808
-0.0482788
-0.0543121
0.0770641
0.0676908
0.059109
0.051275
0.0435502
0.0358194
0.0281594
0.020602
0.0131408
0.00576865
-0.00151562
-0.00871179
-0.0158199
-0.0228423
-0.0297837
-0.0366097
-0.0433754
-0.0500677
-0.0566764
-0.0632029
0.0819099
0.0713896
0.0616897
0.0529126
0.0442977
0.0356886
0.0271738
0.0187929
0.0105378
0.00239947
-0.00562455
-0.013535
-0.0213347
-0.0290368
-0.0366599
-0.0440483
-0.0513869
-0.0586411
-0.0657911
-0.0728393
0.0876446
0.0758351
0.0648504
0.0549976
0.0453729
0.0357677
0.0262854
0.0169746
0.0078263
-0.00117034
-0.0100174
-0.0187149
-0.0272635
-0.0356535
-0.0438558
-0.052067
-0.0600853
-0.0679433
-0.0756708
-0.0832737
0.0944019
0.0811487
0.0686899
0.057612
0.0468421
0.036107
0.0255275
0.0151638
0.00500526
-0.0049616
-0.0147394
-0.0243282
-0.0337295
-0.042945
-0.0519574
-0.0608383
-0.0695353
-0.0780513
-0.0863993
-0.094586
0.102329
0.0874666
0.0733223
0.0608538
0.0487871
0.0367707
0.0249479
0.013393
0.00209294
-0.00896833
-0.0197929
-0.030378
-0.0407261
-0.0508504
-0.0606584
-0.0703257
-0.0797957
-0.089033
-0.0980466
-0.10685
0.111577
0.0949302
0.0788716
0.064834
0.0513028
0.0378351
0.0246045
0.0117018
-0.000889035
-0.013187
-0.0251956
-0.0369226
-0.0484308
-0.0598338
-0.0703002
-0.0807684
-0.0910403
-0.101025
-0.110732
-0.120172
0.1223
0.103678
0.0854666
0.0696758
0.0544976
0.0393902
0.024569
0.010144
-0.00390253
-0.017586
-0.0309011
-0.0438368
-0.0563383
-0.0682482
-0.0805123
-0.0921348
-0.103281
-0.114075
-0.124528
-0.134638
0.134694
0.113869
0.093261
0.0755254
0.058498
0.0415415
0.0249251
0.00877447
-0.00693269
-0.0222101
-0.0370483
-0.0514449
-0.0654044
-0.0787809
-0.0919022
-0.104521
-0.11665
-0.12833
-0.139568
-0.150364
0.148929
0.12565
0.102391
0.0824933
0.0633807
0.0443453
0.0257176
0.00762842
-0.00994914
-0.027022
-0.0435786
-0.0596534
-0.0753177
-0.0899186
-0.104238
-0.118036
-0.131245
-0.143879
-0.155945
-0.167444
0.164867
0.139147
0.11315
0.0909203
0.0694691
0.0481074
0.0272293
0.00695507
-0.0127399
-0.0318424
-0.0503161
-0.0681048
-0.0850029
-0.101741
-0.117646
-0.132754
-0.147135
-0.160796
-0.173728
-0.185932
0.182195
0.154599
0.12632
0.101689
0.077571
0.0535412
0.0300493
0.00720049
-0.0150055
-0.0365275
-0.0573226
-0.0773559
-0.0962236
-0.114699
-0.132249
-0.148835
-0.164499
-0.179235
-0.19303
-0.205879
0.195458
0.164923
0.135414
0.108713
0.0822397
0.0559468
0.0301814
0.00502354
-0.0194832
-0.0432846
-0.0664065
-0.0889263
-0.109388
-0.129427
-0.148541
-0.166565
-0.183491
-0.199295
-0.213953
-0.22745
0.0140298
0.0119857
0.00995842
0.00794921
0.00595906
0.00398898
0.00203994
0.000112878
-0.0017913
0.0134593
0.0113716
0.00930141
0.00725006
0.00521883
0.00320898
0.00122172
-0.000741801
-0.00268047
0.0123622
0.0102152
0.00808629
0.00597682
0.00388822
0.00182184
-0.000221002
-0.00223908
-0.0042312
0.0107997
0.0085689
0.00635662
0.00416446
0.00199397
-0.000153381
-0.00227616
-0.00437301
-0.00644266
0.00878274
0.00644777
0.00413196
0.00183698
-0.000435535
-0.002684
-0.00490692
-0.00710286
-0.00927046
0.00633266
0.00387189
0.00143093
-0.000988435
-0.00338449
-0.00575558
-0.00810015
-0.0104167
-0.0127038
0.00345072
0.00084259
-0.00174494
-0.00431001
-0.00685086
-0.00936578
-0.0118532
-0.0143115
-0.0167392
0.000137254
-0.00264068
-0.00539705
-0.00812997
-0.0108376
-0.0135184
-0.0161704
-0.0187924
-0.0213826
-0.00361592
-0.00658689
-0.00953513
-0.0124588
-0.015356
-0.0182251
-0.0210644
-0.0238724
-0.0266476
-0.00782055
-0.0110088
-0.0141729
-0.0173111
-0.0204215
-0.0235024
-0.0265523
-0.0295696
-0.032553
-0.0124923
-0.0159232
-0.0193283
-0.0227058
-0.0260539
-0.0293711
-0.0326558
-0.0359066
-0.0391222
-0.0176509
-0.021351
-0.0250232
-0.0286657
-0.032277
-0.0358556
-0.0394001
-0.0429094
-0.0233171
-0.0273142
-0.0312807
-0.035215
-0.0391158
-0.0429819
-0.0468121
-0.0506054
-0.0295196
-0.0338416
-0.0381296
-0.0423826
-0.0465993
-0.050779
-0.0549208
-0.059024
-0.0362829
-0.0409591
-0.0455969
-0.0501958
-0.0547552
-0.0592747
-0.0637538
-0.0681925
-0.0436411
-0.0487
-0.0537152
-0.0586865
-0.0636142
-0.0684982
-0.0733391
-0.0781374
-0.051627
-0.0570972
-0.0625166
-0.0678857
-0.0732055
-0.0784771
-0.0837017
-0.0888813
-0.0602824
-0.066191
-0.0720391
-0.0778285
-0.083561
-0.089239
-0.0948652
-0.100443
-0.069651
-0.0760233
-0.0823223
-0.0885508
-0.0947123
-0.10081
-0.10685
-0.112835
-0.0797901
-0.0866471
-0.0934138
-0.100094
-0.106694
-0.113218
-0.119674
-0.126067
-0.0907538
-0.0981149
-0.105362
-0.112502
-0.119542
-0.126488
-0.133351
-0.140141
-0.102616
-0.110494
-0.118228
-0.125825
-0.133295
-0.140647
-0.147894
-0.155049
-0.11545
-0.123855
-0.132073
-0.140115
-0.147992
-0.155717
-0.163306
-0.170776
-0.129353
-0.138283
-0.146971
-0.15543
-0.163673
-0.171718
-0.179583
-0.187289
-0.144411
-0.153856
-0.162986
-0.171815
-0.18036
-0.188643
-0.196685
-0.204515
-0.160725
-0.17066
-0.180185
-0.189315
-0.198071
-0.206477
-0.214562
-0.22236
-0.178383
-0.188775
-0.198635
-0.207983
-0.216842
-0.225245
-0.233226
-0.240827
-0.197416
-0.208192
-0.21828
-0.227707
-0.236508
-0.244722
-0.252402
-0.259605
-0.217786
-0.228764
-0.238837
-0.248037
-0.25641
-0.264013
-0.270917
-0.277208
-0.239783
-0.250957
-0.260991
-0.269913
-0.27777
-0.284618
-0.290532
-0.295603
)
;

boundaryField
{
    inlet
    {
        type            zeroGradient;
    }
    outlet
    {
        type            fixedValue;
        value           nonuniform 0();
    }
    cylinder
    {
        type            zeroGradient;
    }
    top
    {
        type            symmetryPlane;
    }
    bottom
    {
        type            symmetryPlane;
    }
    defaultFaces
    {
        type            empty;
    }
    procBoundary0to1
    {
        type            processor;
        value           nonuniform List<scalar> 
50
(
-0.340799
-0.340799
-0.364598
-0.364598
-0.388078
-0.426311
-0.388078
-0.406432
-0.426311
-0.440489
-0.440489
-0.453066
-0.453066
-0.463926
-0.463926
-0.455506
-0.463377
-0.463377
-0.474046
-0.00367172
-0.00459325
-0.00619626
-0.00848388
-0.0114085
-0.0149601
-0.0191351
-0.0239399
-0.0293887
-0.0355011
-0.0423014
-0.0463821
-0.0463821
-0.0543609
-0.063088
-0.0725907
-0.082894
-0.0940176
-0.105975
-0.118773
-0.132409
-0.146869
-0.162129
-0.178148
-0.194864
-0.212165
-0.229911
-0.248098
-0.266398
-0.282984
-0.299935
)
;
    }
    procBoundary0to2
    {
        type            processor;
        value           nonuniform List<scalar> 
26
(
0.842681
0.785541
0.753933
0.730076
0.730076
0.702779
0.675033
0.645974
0.615682
0.584659
0.553578
0.232503
0.235324
0.241702
0.250568
0.262144
0.276258
0.292952
0.312327
0.334326
0.359127
0.386528
0.416655
0.449009
0.483611
0.519035
)
;
    }
}


// ************************************************************************* //
