/*--------------------------------*- C++ -*----------------------------------*\
  =========                 |
  \\      /  F ield         | OpenFOAM: The Open Source CFD Toolbox
   \\    /   O peration     | Website:  https://openfoam.org
    \\  /    A nd           | Version:  7
     \\/     M anipulation  |
\*---------------------------------------------------------------------------*/
FoamFile
{
    version     2.0;
    format      ascii;
    class       volVectorField;
    location    "10";
    object      U;
}
// * * * * * * * * * * * * * * * * * * * * * * * * * * * * * * * * * * * * * //

dimensions      [0 1 -1 0 0 0 0];

internalField   nonuniform List<vector> 
2125
(
(0.00620634 0.00536724 1.04469e-21)
(0.0350637 0.0128301 -3.05417e-21)
(0.0905304 0.0175773 -3.58892e-21)
(0.00620634 -0.00536724 -1.04469e-21)
(0.0350637 -0.0128301 3.05417e-21)
(0.0905304 -0.0175774 3.58892e-21)
(0.158209 -0.0201748 -3.61183e-21)
(0.231974 -0.0210901 3.36477e-21)
(0.307029 -0.0207927 1.79471e-21)
(0.379781 -0.0197135 -3.05268e-21)
(0.448084 -0.0182079 -3.76517e-21)
(0.510883 -0.0165408 5.94012e-22)
(0.567844 -0.0148746 -1.75684e-21)
(0.00702971 -0.0160548 1.13606e-21)
(0.0369842 -0.0383863 -3.64384e-21)
(0.093083 -0.0526011 8.47848e-21)
(0.161066 -0.0603864 -7.81788e-21)
(0.234899 -0.0631381 -3.80379e-22)
(0.309864 -0.0622582 -5.8464e-21)
(0.382432 -0.0590354 1.01166e-20)
(0.450506 -0.0545324 1.4634e-20)
(0.51307 -0.0495429 2.78216e-21)
(0.569803 -0.0445537 -6.29971e-21)
(0.00866687 -0.0266019 -9.89618e-22)
(0.0408047 -0.063632 -7.74965e-21)
(0.098163 -0.0872332 -1.8637e-20)
(0.166755 -0.100185 1.69337e-20)
(0.240725 -0.104791 3.72797e-21)
(0.315512 -0.103365 3.4983e-21)
(0.387717 -0.0980423 -1.81876e-20)
(0.455336 -0.0905841 -1.13622e-20)
(0.517433 -0.0823073 -2.69573e-21)
(0.573714 -0.0740234 1.94665e-20)
(0.0110987 -0.0369168 -3.5328e-21)
(0.0464844 -0.0883633 4.6795e-21)
(0.105721 -0.121216 3.39886e-20)
(0.175225 -0.1393 -3.17173e-21)
(0.249406 -0.145787 -9.65052e-21)
(0.323934 -0.143878 7.39512e-21)
(0.395601 -0.136527 5.35314e-22)
(0.462546 -0.126183 2.95404e-21)
(0.523948 -0.114678 -6.80343e-21)
(0.579558 -0.103145 -1.90576e-20)
(0.0142969 -0.04691 -2.47511e-21)
(0.0539624 -0.112382 1.3875e-20)
(0.115681 -0.154299 -3.4346e-20)
(0.186401 -0.177465 1.56546e-20)
(0.260871 -0.185872 1.45791e-22)
(0.335067 -0.183563 -2.22019e-20)
(0.406035 -0.174285 1.04011e-20)
(0.472094 -0.161153 -1.08665e-21)
(0.532583 -0.1465 4.37553e-21)
(0.587312 -0.131784 -1.4122e-21)
(0.0182241 -0.0564955 -2.8017e-20)
(0.0631587 -0.135495 -3.52256e-20)
(0.127947 -0.186238 9.39998e-21)
(0.200181 -0.214421 -1.79196e-20)
(0.275027 -0.224796 -5.40052e-21)
(0.348832 -0.222195 8.41748e-21)
(0.418949 -0.211118 3.28265e-21)
(0.483926 -0.19532 1.32721e-20)
(0.543293 -0.177624 -2.98016e-21)
(0.59694 -0.159807 1.71734e-20)
(0.0228344 -0.0655918 2.68258e-20)
(0.0739744 -0.15752 1.8013e-20)
(0.142397 -0.216798 -1.44608e-20)
(0.216441 -0.24992 2.5093e-20)
(0.291759 -0.262319 -2.36114e-21)
(0.365128 -0.259555 -3.02479e-20)
(0.434259 -0.246832 5.57469e-21)
(0.497972 -0.22852 -3.62667e-20)
(0.556023 -0.207906 1.30819e-21)
(0.608403 -0.187085 1.46335e-20)
(0.0280739 -0.0741225 -2.06537e-20)
(0.086293 -0.178285 3.87649e-20)
(0.158887 -0.24576 1.53377e-20)
(0.235035 -0.283724 -1.96623e-20)
(0.310931 -0.29821 4.49327e-23)
(0.383834 -0.295432 5.58777e-20)
(0.451866 -0.281242 2.81026e-21)
(0.51415 -0.26059 2.79218e-20)
(0.570705 -0.237208 3.59703e-20)
(0.621649 -0.213497 -2.12302e-20)
(0.033881 -0.0820173 1.18141e-20)
(0.0999815 -0.197629 -5.6877e-21)
(0.177252 -0.272914 -1.43222e-20)
(0.255793 -0.315611 1.13531e-20)
(0.332383 -0.332252 4.47371e-20)
(0.404812 -0.329626 -1.64729e-20)
(0.471652 -0.314173 -2.80653e-21)
(0.532366 -0.291381 -4.05834e-20)
(0.587263 -0.265399 -5.31721e-20)
(0.636622 -0.238925 2.4392e-20)
(0.0401875 -0.0892128 -1.65287e-20)
(0.114891 -0.215406 -1.527e-20)
(0.19731 -0.298071 2.38354e-21)
(0.278525 -0.345371 -5.94104e-20)
(0.355938 -0.36424 -2.61871e-20)
(0.427906 -0.361948 -2.01823e-20)
(0.493486 -0.345457 -2.82834e-20)
(0.552509 -0.320748 1.36592e-20)
(0.605611 -0.292357 1.74945e-20)
(0.653256 -0.263263 2.78083e-20)
(0.0469192 -0.0956529 2.40506e-21)
(0.13086 -0.231485 2.20338e-20)
(0.218857 -0.321056 1.6282e-20)
(0.303021 -0.372814 2.78981e-20)
(0.3814 -0.393984 2.28027e-20)
(0.452942 -0.392224 -2.30507e-20)
(0.517218 -0.37494 2.2716e-20)
(0.57446 -0.348559 1.64751e-20)
(0.625648 -0.317971 -2.05661e-21)
(0.671478 -0.286411 -8.11399e-21)
(0.0539965 -0.10129 3.96278e-20)
(0.147714 -0.24575 -2.01122e-20)
(0.241676 -0.341715 -1.49913e-20)
(0.329053 -0.397767 -9.26999e-21)
(0.408552 -0.42131 1.7637e-20)
(0.479727 -0.42029 1.65553e-20)
(0.542688 -0.402478 -2.44446e-20)
(0.598082 -0.374692 1.99681e-20)
(0.647266 -0.34214 9.9244e-22)
(0.691204 -0.308282 2.08678e-20)
(0.0613355 -0.106084 -2.99435e-20)
(0.165267 -0.258105 -1.17646e-20)
(0.265534 -0.359914 -1.10668e-21)
(0.356379 -0.420078 1.71933e-20)
(0.437164 -0.446064 -2.71443e-21)
(0.508057 -0.446 -1.86624e-20)
(0.569717 -0.42794 5.50759e-21)
(0.623229 -0.399038 6.4199e-21)
(0.670342 -0.364775 1.58559e-20)
(0.712342 -0.328801 -3.19527e-20)
(0.0688489 -0.110005 -1.57183e-20)
(0.183325 -0.268472 3.03524e-20)
(0.290186 -0.375541 2.27254e-20)
(0.384739 -0.439615 -1.06327e-20)
(0.466988 -0.468107 -2.30023e-20)
(0.537709 -0.469222 -1.81942e-20)
(0.598115 -0.451209 2.15758e-20)
(0.649739 -0.421497 -4.50862e-20)
(0.694744 -0.385801 1.25581e-20)
(0.734788 -0.347909 3.4779e-20)
(0.0764473 -0.113033 2.66965e-20)
(0.201689 -0.276793 -1.68343e-20)
(0.315376 -0.388507 5.23358e-21)
(0.413862 -0.456269 -3.63029e-22)
(0.497766 -0.487322 -6.71002e-21)
(0.568449 -0.489841 2.98054e-20)
(0.627677 -0.47218 -2.77358e-20)
(0.677439 -0.441984 2.82305e-20)
(0.720322 -0.405154 -4.58121e-20)
(0.758424 -0.365563 -1.77904e-20)
(0.0840397 -0.115156 -3.30343e-21)
(0.220153 -0.283029 -2.49593e-20)
(0.340844 -0.398748 4.36961e-21)
(0.44347 -0.469954 -6.48621e-21)
(0.529226 -0.503611 -5.50201e-21)
(0.600031 -0.507756 1.09669e-21)
(0.658189 -0.490759 -1.92676e-20)
(0.706144 -0.460419 -1.20881e-21)
(0.746915 -0.422782 2.82187e-20)
(0.783117 -0.38174 -3.78167e-20)
(0.0915351 -0.116373 1.14167e-20)
(0.23851 -0.287162 2.10625e-20)
(0.36632 -0.406224 -1.91497e-20)
(0.473275 -0.480609 -8.21981e-21)
(0.561088 -0.516896 4.95095e-20)
(0.6322 -0.522882 -4.18569e-20)
(0.689426 -0.506865 4.24699e-20)
(0.73566 -0.476732 4.89522e-22)
(0.774349 -0.438642 9.71316e-21)
(0.808725 -0.396433 3.48928e-20)
(0.0988438 -0.116692 -6.47898e-21)
(0.256554 -0.289198 -8.0962e-22)
(0.391537 -0.41092 4.87791e-21)
(0.502984 -0.488198 2.1093e-21)
(0.593069 -0.527123 -4.30079e-22)
(0.664695 -0.535152 1.54291e-20)
(0.721159 -0.520422 -8.396e-21)
(0.765791 -0.490851 1.095e-20)
(0.802435 -0.452677 -3.84436e-21)
(0.835083 -0.409622 -1.97771e-21)
(0.105878 -0.116133 1.22832e-20)
(0.274081 -0.289162 -1.4493e-21)
(0.416227 -0.412847 -6.23386e-23)
(0.532305 -0.492708 7.1602e-22)
(0.624879 -0.534256 -1.34168e-20)
(0.697255 -0.544513 3.64697e-20)
(0.753165 -0.531364 -2.91469e-20)
(0.796353 -0.50268 2.25104e-20)
(0.83095 -0.464725 -2.02821e-20)
(0.86185 -0.421167 -2.54089e-20)
(0.112553 -0.114722 -2.6405e-22)
(0.290892 -0.287099 -6.87094e-21)
(0.440123 -0.412045 7.67304e-21)
(0.560946 -0.494157 2.57158e-21)
(0.656231 -0.538289 -4.95535e-21)
(0.729621 -0.550934 -2.9963e-20)
(0.785239 -0.539632 7.78764e-21)
(0.827248 -0.512088 -5.50377e-21)
(0.859868 -0.474514 2.19994e-20)
(0.888658 -0.430873 -8.50065e-21)
(0.11879 -0.112499 8.42051e-22)
(0.306795 -0.283078 -1.81041e-22)
(0.462969 -0.408576 6.57512e-22)
(0.588617 -0.492588 -3.15678e-21)
(0.686837 -0.539239 7.20061e-21)
(0.761537 -0.554414 4.28961e-21)
(0.817201 -0.545214 1.26313e-20)
(0.858542 -0.519047 -1.75188e-20)
(0.890227 -0.482316 -1.97018e-20)
(0.919485 -0.441085 1.08854e-20)
(0.124514 -0.109508 -1.21092e-21)
(0.321609 -0.277186 -2.37169e-21)
(0.484514 -0.402531 2.22616e-21)
(0.615034 -0.488073 -1.08503e-21)
(0.716406 -0.537155 5.72058e-23)
(0.792729 -0.554987 -4.9034e-21)
(0.848789 -0.548168 -1.1924e-20)
(0.889831 -0.523803 1.21519e-20)
(0.921045 -0.488622 -1.24137e-20)
(0.948776 -0.449864 -9.48866e-22)
(0.129657 -0.105804 -2.62354e-21)
(0.335164 -0.269529 -3.57037e-22)
(0.50452 -0.394024 -4.74173e-22)
(0.639918 -0.480709 -1.1342e-21)
(0.744646 -0.532108 -3.5651e-21)
(0.822905 -0.552701 2.66435e-21)
(0.879701 -0.548536 -5.05277e-21)
(0.920675 -0.526383 -5.7613e-21)
(0.95139 -0.493156 2.62622e-20)
(0.976908 -0.456775 1.52291e-20)
(0.13416 -0.10145 -7.37434e-22)
(0.347301 -0.260231 -1.85264e-21)
(0.52276 -0.383192 -3.05208e-21)
(0.662999 -0.470617 2.88905e-22)
(0.771264 -0.52419 -1.64715e-21)
(0.851766 -0.547618 4.4604e-21)
(0.909629 -0.546338 -6.84411e-22)
(0.950732 -0.526734 4.87577e-21)
(0.980844 -0.495695 -5.6359e-21)
(1.00412 -0.461415 1.6674e-21)
(0.137972 -0.0965113 2.7266e-21)
(0.357883 -0.24943 9.68646e-21)
(0.539026 -0.370196 -1.80402e-21)
(0.684023 -0.457944 -5.25586e-22)
(0.795979 -0.513514 -1.61307e-21)
(0.879017 -0.539809 -2.15977e-21)
(0.938277 -0.541604 3.16384e-21)
(0.979733 -0.524827 1.71425e-21)
(1.00924 -0.496184 -7.55839e-21)
(1.03048 -0.463895 -6.54034e-21)
(0.141045 -0.0910584 -2.9347e-21)
(0.366788 -0.237282 -8.48198e-22)
(0.553131 -0.355214 1.00283e-20)
(0.702751 -0.442855 5.36562e-22)
(0.81852 -0.500212 -6.09774e-21)
(0.904375 -0.529366 6.88516e-21)
(0.965362 -0.534379 1.77247e-21)
(1.00744 -0.520664 1.44824e-21)
(1.03648 -0.494619 2.618e-21)
(1.05594 -0.464344 4.45758e-21)
(0.143343 -0.0851732 9.51882e-21)
(0.373914 -0.223956 -1.52641e-21)
(0.56491 -0.338442 -7.98673e-21)
(0.718963 -0.425538 8.14166e-22)
(0.838634 -0.48444 5.72866e-21)
(0.927569 -0.516397 -1.27309e-21)
(0.990622 -0.524726 -2.20596e-21)
(1.03363 -0.514264 9.49411e-22)
(1.06243 -0.49101 -7.81505e-22)
(1.08046 -0.462843 -1.89709e-21)
(0.144846 -0.0789388 -3.04748e-21)
(0.379177 -0.209627 -2.55788e-20)
(0.574223 -0.320092 2.23353e-21)
(0.732465 -0.4062 1.19146e-20)
(0.856085 -0.466369 -5.47001e-22)
(0.948346 -0.50103 -1.65893e-20)
(1.0138 -0.512725 9.3504e-21)
(1.0581 -0.505669 -2.12099e-21)
(1.08698 -0.485385 1.82553e-21)
(1.10394 -0.459467 3.5858e-22)
(0.145542 -0.0724374 -4.77817e-21)
(0.38252 -0.19448 8.49758e-21)
(0.580957 -0.300393 1.38774e-20)
(0.743093 -0.385067 -8.99754e-21)
(0.87066 -0.446195 2.78719e-21)
(0.966466 -0.483412 1.04001e-20)
(1.03467 -0.498475 5.56084e-21)
(1.08064 -0.49494 1.46979e-21)
(1.10998 -0.477787 -2.15799e-21)
(1.12629 -0.454285 -1.42167e-21)
(0.145428 -0.0657527 -7.20374e-21)
(0.38391 -0.178705 -3.67341e-21)
(0.585029 -0.279582 -2.72852e-20)
(0.750708 -0.362378 -4.47694e-21)
(0.882175 -0.424129 6.66644e-22)
(0.981712 -0.463708 1.79855e-21)
(1.05301 -0.482094 -2.1089e-20)
(1.10105 -0.482153 -9.51556e-21)
(1.13129 -0.468271 3.0819e-22)
(1.14736 -0.447364 1.73397e-21)
(0.14451 -0.0589688 -2.23863e-21)
(0.383338 -0.162496 9.09384e-21)
(0.586387 -0.257904 1.38799e-20)
(0.755202 -0.338388 9.01134e-21)
(0.890471 -0.400399 -2.0477e-21)
(0.993888 -0.442104 -2.33127e-21)
(1.0686 -0.463716 1.74821e-20)
(1.11913 -0.4674 1.70671e-20)
(1.15071 -0.456894 2.33352e-21)
(1.16707 -0.438802 -1.82202e-21)
(0.14281 -0.0521683 2.0839e-20)
(0.380818 -0.146045 1.39368e-20)
(0.585012 -0.23561 -1.50452e-20)
(0.756503 -0.313361 -3.08668e-21)
(0.895418 -0.375251 1.9128e-21)
(1.00282 -0.418802 -6.01729e-21)
(1.08124 -0.443492 -1.07765e-20)
(1.1347 -0.450779 -3.71281e-22)
(1.1681 -0.443769 -1.08155e-20)
(1.18536 -0.428704 4.522e-21)
(0.140354 -0.0454309 3.22759e-21)
(0.376392 -0.129544 -7.99253e-21)
(0.580917 -0.212952 2.00372e-20)
(0.754573 -0.287571 1.3131e-20)
(0.896918 -0.348942 9.18419e-22)
(1.00836 -0.39402 8.5615e-21)
(1.09077 -0.421594 7.81978e-22)
(1.14756 -0.432431 -8.3474e-21)
(1.1833 -0.429027 6.27498e-21)
(1.20198 -0.416944 1.00154e-21)
(0.137183 -0.0388327 -1.85066e-20)
(0.370122 -0.113177 -5.89437e-21)
(0.574146 -0.190182 -5.34175e-21)
(0.749409 -0.261294 -9.5264e-21)
(0.89491 -0.32174 2.7882e-21)
(1.01038 -0.367992 -2.93928e-23)
(1.097 -0.398205 7.00174e-21)
(1.15754 -0.412483 -2.07368e-21)
(1.19609 -0.412694 -7.53006e-21)
(1.21661 -0.403657 -5.71386e-21)
(0.133343 -0.0324442 1.57498e-21)
(0.362094 -0.0971232 9.88801e-21)
(0.564776 -0.167546 5.09047e-21)
(0.741047 -0.234808 -1.59141e-20)
(0.889365 -0.293921 -4.69455e-22)
(1.0088 -0.340962 -7.21466e-21)
(1.09981 -0.373524 1.29035e-22)
(1.16446 -0.391077 2.65409e-21)
(1.20632 -0.394864 -3.11744e-21)
(1.22916 -0.38897 9.11787e-21)
(0.128889 -0.0263302 3.8426e-21)
(0.352416 -0.0815482 -9.88719e-21)
(0.552917 -0.14528 -2.42034e-20)
(0.729558 -0.208388 2.302e-20)
(0.880293 -0.265765 -1.69627e-21)
(1.00356 -0.313188 5.05744e-21)
(1.09906 -0.347763 -7.59524e-22)
(1.16816 -0.368378 4.90992e-21)
(1.21381 -0.375658 -4.4028e-22)
(1.23952 -0.372959 -7.12254e-21)
(0.123884 -0.0205482 -7.86395e-21)
(0.341214 -0.0666059 1.30715e-20)
(0.538704 -0.123609 1.10877e-20)
(0.715048 -0.182304 -1.67382e-20)
(0.867741 -0.237555 -2.98965e-21)
(0.994617 -0.284934 1.07313e-21)
(1.09466 -0.32115 1.21217e-20)
(1.16849 -0.344561 4.47476e-22)
(1.21838 -0.355206 2.41887e-21)
(1.2475 -0.355697 -4.89466e-21)
(0.118395 -0.0151481 5.97015e-21)
(0.32863 -0.0524347 -5.77521e-21)
(0.522303 -0.102744 -5.18156e-21)
(0.697659 -0.156815 9.24882e-21)
(0.851796 -0.209569 3.28876e-21)
(0.981996 -0.256471 2.68889e-21)
(1.08655 -0.29392 -1.27823e-20)
(1.16532 -0.319816 -4.7343e-21)
(1.21986 -0.333644 -4.07255e-21)
(1.2529 -0.337266 1.60317e-21)
(0.112492 -0.0101716 -3.02238e-21)
(0.314821 -0.0391563 -6.71673e-23)
(0.503901 -0.0828767 9.82202e-21)
(0.677567 -0.132165 -3.7413e-21)
(0.832582 -0.182081 -1.8226e-21)
(0.965743 -0.228072 -1.25931e-21)
(1.07469 -0.26632 3.2837e-21)
(1.15853 -0.294342 5.74985e-21)
(1.21809 -0.311121 -3.14002e-22)
(1.25553 -0.317758 2.21789e-21)
(0.10625 -0.00565164 2.12987e-21)
(0.299954 -0.0268738 -6.52204e-22)
(0.483708 -0.0641779 -1.76889e-21)
(0.654976 -0.108583 -1.6979e-21)
(0.810262 -0.155356 1.65052e-21)
(0.945946 -0.200011 1.39851e-21)
(1.05908 -0.238605 -1.35019e-21)
(1.14805 -0.268353 5.08275e-22)
(1.21291 -0.287797 7.48076e-22)
(1.25523 -0.297274 -1.00216e-21)
(0.0997454 -0.00161255 1.16148e-21)
(0.284205 -0.0156712 3.60444e-22)
(0.46195 -0.0467963 -2.23674e-21)
(0.630122 -0.0862765 -1.93593e-21)
(0.785032 -0.129643 2.19514e-21)
(0.922734 -0.172555 4.74223e-22)
(1.03976 -0.211033 -1.22825e-21)
(1.13382 -0.242073 1.20762e-21)
(1.2042 -0.263846 7.24695e-22)
(1.25179 -0.275926 -8.69186e-22)
(0.0930525 0.00193007 -4.54354e-22)
(0.267755 -0.00561256 9.86762e-22)
(0.438866 -0.0308559 6.92283e-21)
(0.603259 -0.0654292 -3.43213e-21)
(0.757125 -0.105177 -1.80114e-21)
(0.896275 -0.145967 -2.28353e-21)
(1.01681 -0.183866 5.08947e-21)
(1.11582 -0.215738 3.8925e-21)
(1.19186 -0.239457 3.23917e-21)
(1.24506 -0.253841 1.79796e-21)
(0.0862458 0.00496905 9.291e-21)
(0.250785 0.00325817 -5.49183e-21)
(0.414708 -0.0164549 -6.62764e-21)
(0.574666 -0.0461996 9.85746e-21)
(0.726805 -0.0821685 5.87949e-21)
(0.866779 -0.120495 -4.632e-22)
(0.990356 -0.157364 -9.08705e-21)
(1.09407 -0.189591 -6.79537e-21)
(1.1758 -0.214833 -7.98172e-21)
(1.23488 -0.23116 5.222e-21)
(0.0793969 0.00750529 -1.25726e-20)
(0.233476 0.0109167 1.27481e-20)
(0.389727 -0.00366542 1.57804e-20)
(0.544636 -0.0287184 -1.71626e-20)
(0.694361 -0.0608074 -6.56722e-21)
(0.834491 -0.0963729 4.96741e-21)
(0.960554 -0.131785 9.77738e-21)
(1.06864 -0.163882 1.87925e-21)
(1.15597 -0.190191 -5.72401e-22)
(1.22112 -0.208045 -7.62424e-21)
(0.0725739 0.00954712 -1.84373e-21)
(0.216004 0.0173579 -1.80688e-20)
(0.36418 0.00746716 -2.07336e-20)
(0.513469 -0.0130868 2.61837e-20)
(0.660105 -0.041255 -3.31143e-21)
(0.799692 -0.0738159 7.52294e-21)
(0.927619 -0.107376 1.80388e-21)
(1.03963 -0.138867 -4.75247e-21)
(1.13239 -0.165765 2.76376e-21)
(1.20368 -0.184677 -1.30867e-21)
(0.0658401 0.0111097 3.71366e-21)
(0.198538 0.0225945 1.12639e-20)
(0.338318 0.0169234 6.82584e-21)
(0.481475 0.0006242 -5.67654e-21)
(0.624369 -0.0236437 -1.08183e-20)
(0.762696 -0.0530151 -1.15073e-20)
(0.891803 -0.0843725 -2.74419e-21)
(1.0072 -0.114801 9.04622e-21)
(1.1051 -0.1418 -2.05202e-21)
(1.18248 -0.161258 4.70289e-21)
(0.0592534 0.0122141 -1.43102e-20)
(0.181238 0.0266563 -1.43998e-20)
(0.312385 0.0247093 -2.66608e-21)
(0.448961 0.0123743 -3.11979e-21)
(0.587495 -0.00807396 -8.74325e-21)
(0.72384 -0.0341348 6.2144e-21)
(0.853398 -0.0629941 -9.60761e-22)
(0.971553 -0.0919357 -7.78591e-21)
(1.07418 -0.11855 7.55725e-21)
(1.15751 -0.138017 -1.46367e-20)
(0.052866 0.0128866 3.17507e-21)
(0.16425 0.029588 1.24496e-20)
(0.286614 0.0308548 1.21533e-20)
(0.416228 0.022154 1.48897e-20)
(0.54983 0.0053868 -3.35589e-22)
(0.683483 -0.0173086 1.87769e-20)
(0.812731 -0.0434371 2.31698e-21)
(0.932945 -0.0705154 -3.05622e-20)
(1.03979 -0.0962825 2.4861e-20)
(1.12877 -0.115209 9.16976e-21)
(0.0467232 0.0131579 9.45425e-21)
(0.147711 0.0314483 2.32233e-20)
(0.261222 0.0354128 -3.15533e-21)
(0.383571 0.0299838 -1.92798e-20)
(0.511721 0.0167058 9.83109e-21)
(0.641997 -0.00263647 -1.22935e-20)
(0.770158 -0.0258718 -2.13677e-20)
(0.891673 -0.050771 -4.41992e-21)
(1.00213 -0.0752645 -2.37296e-20)
(0.0408643 0.0130618 4.71832e-21)
(0.131739 0.0323074 4.39642e-21)
(0.236411 0.0384569 3.41987e-20)
(0.351265 0.0359138 7.97036e-21)
(0.473507 0.0258854 -8.32217e-21)
(0.599759 0.00981826 -4.62388e-21)
(0.726058 -0.0104368 3.64471e-20)
(0.848071 -0.0329146 3.52717e-20)
(0.0353217 0.0126351 1.08605e-21)
(0.116441 0.0322458 -2.4598e-20)
(0.212363 0.0400802 -4.11499e-20)
(0.31957 0.0400221 2.50178e-21)
(0.435517 0.0329639 1.26076e-20)
(0.557143 0.0200317 -1.96326e-20)
(0.680821 0.00276643 -5.92187e-20)
(0.0301214 0.0119165 -8.67283e-21)
(0.101905 0.0313529 2.5242e-20)
(0.18924 0.0403927 2.59272e-20)
(0.288721 0.0424137 -3.01796e-20)
(0.398056 0.0380147 4.51048e-21)
(0.0252839 0.010946 -2.10743e-20)
(0.0882058 0.0297248 -3.90175e-20)
(0.16718 0.0395199 -8.68906e-21)
(0.258929 0.0432184 1.67963e-20)
(0.0208235 0.00976488 1.59391e-20)
(0.0754032 0.0274633 2.18135e-22)
(0.1463 0.0376003 -4.31802e-21)
(0.0167502 0.00841463 -5.28395e-21)
(0.0635418 0.0246745 -9.79353e-21)
(0.0130687 0.00693715 3.63108e-20)
(0.0526531 0.0214671 3.04684e-20)
(0.00978019 0.00537408 6.95539e-21)
(0.999873 -0.00371265 -1.94348e-22)
(0.996769 -0.0111138 8.69534e-22)
(0.990925 -0.0193155 4.2506e-22)
(0.982985 -0.0288745 1.95341e-22)
(0.973038 -0.0405229 4.02938e-22)
(0.961425 -0.0548893 -1.73933e-21)
(0.948391 -0.0726924 -2.33573e-21)
(0.934483 -0.0946858 7.74663e-22)
(0.920264 -0.121641 2.42553e-21)
(0.906876 -0.154259 2.88456e-21)
(0.895284 -0.193136 4.98595e-21)
(0.887773 -0.238267 -1.11202e-21)
(0.884809 -0.289559 -7.22175e-21)
(0.89079 -0.343497 -1.99312e-21)
(0.896084 -0.399154 5.32907e-21)
(0.999868 -0.00352982 -1.09368e-21)
(0.996695 -0.0105785 4.07951e-22)
(0.990711 -0.0183945 -6.83597e-22)
(0.982556 -0.0275022 1.85449e-21)
(0.972285 -0.0385956 -1.65554e-21)
(0.960206 -0.0522745 1.99669e-22)
(0.946507 -0.0692305 2.43649e-21)
(0.931663 -0.0901961 -3.85967e-21)
(0.916149 -0.115949 1.73531e-21)
(0.901003 -0.14721 -6.38203e-21)
(0.887097 -0.184696 7.29141e-21)
(0.876574 -0.228517 -7.64761e-21)
(0.869964 -0.278991 -1.17667e-21)
(0.870684 -0.33249 9.14741e-21)
(0.87211 -0.387519 -2.11895e-21)
(0.999865 -0.00334196 1.453e-21)
(0.996635 -0.0100256 1.00468e-21)
(0.990528 -0.0174394 1.2212e-21)
(0.982179 -0.0260757 -9.05064e-22)
(0.971619 -0.0365895 -9.38421e-22)
(0.959121 -0.0495504 3.4888e-21)
(0.944822 -0.0656207 -1.91268e-21)
(0.929129 -0.0855078 5.3206e-21)
(0.912428 -0.109989 -3.28848e-21)
(0.895651 -0.139796 -1.60457e-21)
(0.879551 -0.17575 -2.23563e-21)
(0.8661 -0.21806 1.88354e-21)
(0.855825 -0.267351 5.32259e-21)
(0.851484 -0.320128 -1.50669e-20)
(0.848463 -0.374335 1.6868e-20)
(0.999864 -0.00315385 2.08622e-22)
(0.996586 -0.00947237 -1.66876e-21)
(0.990368 -0.016486 -3.12258e-21)
(0.981848 -0.0246562 5.45743e-22)
(0.971027 -0.0346006 -1.05878e-22)
(0.958151 -0.0468594 9.88944e-22)
(0.943306 -0.0620666 2.97881e-21)
(0.926839 -0.0809037 -2.02446e-21)
(0.909047 -0.104144 2.57215e-21)
(0.890751 -0.132521 -5.17776e-21)
(0.872579 -0.166935 3.48401e-21)
(0.856309 -0.207675 2.35047e-21)
(0.842442 -0.255574 5.76376e-21)
(0.833233 -0.307424 -9.98105e-21)
(0.825495 -0.360682 2.05611e-22)
(0.999864 -0.00296494 -1.83874e-21)
(0.996544 -0.00891573 -4.36434e-22)
(0.99023 -0.0155271 -4.29004e-22)
(0.981554 -0.0232286 2.4091e-21)
(0.970499 -0.0326013 4.07065e-23)
(0.95728 -0.0441558 -3.76658e-22)
(0.94194 -0.0584966 -2.1103e-21)
(0.924764 -0.0762767 -1.65031e-22)
(0.905968 -0.0982594 6.5905e-21)
(0.886259 -0.125172 -7.65228e-21)
(0.866139 -0.157972 2.43794e-21)
(0.847177 -0.197017 3.70437e-21)
(0.829837 -0.243283 1.20604e-21)
(0.815967 -0.293939 -5.49112e-21)
(0.803406 -0.346032 1.034e-22)
(0.999865 -0.002775 3.4029e-22)
(0.99651 -0.00835463 3.01356e-22)
(0.990109 -0.0145585 1.03507e-21)
(0.981295 -0.0217854 -1.34201e-21)
(0.970027 -0.030579 3.81061e-22)
(0.956499 -0.0414197 -1.03253e-21)
(0.940709 -0.0548808 5.50104e-22)
(0.922885 -0.0715843 -2.32773e-21)
(0.903165 -0.0922777 4.45926e-21)
(0.882144 -0.117675 -1.21903e-22)
(0.860201 -0.148768 -7.98531e-21)
(0.838689 -0.185978 5.17896e-22)
(0.818022 -0.230371 8.44936e-21)
(0.79971 -0.279533 2.26507e-22)
(0.782305 -0.330236 -9.77217e-21)
(0.999867 -0.00258428 2.95494e-22)
(0.996481 -0.00779039 -1.72105e-21)
(0.990003 -0.0135813 -1.29938e-21)
(0.981066 -0.0203283 1.5362e-21)
(0.969607 -0.0285366 -1.09571e-21)
(0.955799 -0.0386556 8.82676e-22)
(0.939599 -0.0512266 -4.57292e-22)
(0.921185 -0.0668374 -5.01876e-22)
(0.900616 -0.0862144 3.41252e-21)
(0.878381 -0.110051 -6.78166e-21)
(0.854741 -0.139355 5.42651e-21)
(0.830827 -0.174599 7.49274e-21)
(0.806998 -0.216899 -9.27612e-21)
(0.784472 -0.264259 -1.71832e-21)
(0.762283 -0.313311 -8.18777e-21)
(0.999868 -0.00239306 -1.63205e-22)
(0.996456 -0.0072231 1.08179e-21)
(0.989911 -0.0125975 -1.19152e-21)
(0.980863 -0.01886 2.74302e-21)
(0.969233 -0.0264781 -2.95768e-21)
(0.955171 -0.0358695 -2.97572e-21)
(0.938601 -0.0475419 -7.45898e-22)
(0.919648 -0.0620472 3.42198e-22)
(0.898304 -0.0800848 -2.65884e-21)
(0.874949 -0.102321 3.04179e-21)
(0.849735 -0.129759 3.20827e-21)
(0.823577 -0.162916 -1.12719e-21)
(0.796764 -0.202919 -3.84141e-21)
(0.770266 -0.248167 8.03439e-21)
(0.743422 -0.295272 -7.61499e-21)
(0.99987 -0.00220154 -7.12116e-22)
(0.996436 -0.00665276 6.68817e-21)
(0.98983 -0.0116078 1.58169e-22)
(0.980684 -0.017382 1.36552e-21)
(0.9689 -0.0244057 -2.40613e-22)
(0.95461 -0.0330642 4.02676e-21)
(0.937705 -0.0438305 6.1698e-22)
(0.918263 -0.0572185 4.99784e-23)
(0.896211 -0.0738949 -4.18953e-21)
(0.871828 -0.0944933 -7.44695e-22)
(0.845163 -0.119996 3.5678e-21)
(0.816925 -0.150949 -5.14568e-21)
(0.787317 -0.188465 -3.79012e-21)
(0.7571 -0.231297 4.51768e-21)
(0.725789 -0.276141 -3.81667e-21)
(0.999872 -0.00200983 1.77935e-21)
(0.996419 -0.00608007 -3.75901e-21)
(0.98976 -0.0106103 2.01262e-21)
(0.980526 -0.0158954 -2.83996e-21)
(0.968605 -0.0223208 -1.04519e-21)
(0.954111 -0.0302416 5.798e-22)
(0.936904 -0.0400948 -2.08755e-21)
(0.917019 -0.0523547 3.67224e-21)
(0.894326 -0.0676497 1.96705e-21)
(0.869004 -0.0865757 -1.11723e-21)
(0.841011 -0.110077 3.35459e-21)
(0.810859 -0.138717 -6.26071e-21)
(0.778658 -0.17357 1.0735e-20)
(0.744983 -0.213698 -7.44447e-21)
(0.709441 -0.255959 -3.69582e-21)
(0.999874 -0.00181806 -1.26485e-21)
(0.996404 -0.00550555 1.69415e-22)
(0.9897 -0.00960041 1.15803e-23)
(0.980387 -0.0144011 2.62684e-21)
(0.968344 -0.0202249 6.53851e-22)
(0.953668 -0.0274038 -1.19811e-21)
(0.936192 -0.0363376 1.35777e-21)
(0.915909 -0.0474595 -2.67979e-21)
(0.892638 -0.0613542 1.08537e-21)
(0.866466 -0.0785759 6.90247e-22)
(0.837266 -0.100016 -3.30738e-21)
(0.805369 -0.126241 2.48045e-21)
(0.770783 -0.158271 6.33133e-21)
(0.733923 -0.195424 -3.16209e-21)
(0.694428 -0.234783 -8.21594e-21)
(0.999876 -0.00162631 -1.43742e-21)
(0.996393 -0.00492942 -3.01232e-22)
(0.989647 -0.00859727 -1.30959e-21)
(0.980266 -0.0129008 -3.83338e-21)
(0.968116 -0.0181196 1.84572e-21)
(0.953278 -0.0245527 -1.7555e-21)
(0.935562 -0.0325614 2.35488e-21)
(0.914924 -0.0425363 3.43858e-21)
(0.891137 -0.0550139 -2.21477e-21)
(0.864203 -0.0705023 4.51425e-21)
(0.833916 -0.0898269 -2.43067e-21)
(0.800446 -0.113545 -3.62184e-21)
(0.763694 -0.142605 -2.22586e-21)
(0.723932 -0.176534 9.11101e-21)
(0.680792 -0.21268 -2.99101e-21)
(0.999878 -0.00143463 1.49463e-21)
(0.996384 -0.00435208 7.17309e-22)
(0.989602 -0.00760178 -1.04703e-22)
(0.980161 -0.011395 1.5372e-21)
(0.967917 -0.0160061 -2.4649e-21)
(0.952938 -0.02169 -6.07724e-22)
(0.935012 -0.0287685 -5.04122e-23)
(0.914061 -0.0375885 -1.16436e-21)
(0.889817 -0.0486339 -3.39539e-21)
(0.862207 -0.0623626 -1.69733e-21)
(0.830955 -0.0795247 6.32897e-21)
(0.796084 -0.100652 -9.78365e-22)
(0.757389 -0.12661 -9.78977e-22)
(0.715018 -0.157089 -7.82114e-22)
(0.668574 -0.18973 -3.72923e-21)
(0.99988 -0.00124305 9.03912e-22)
(0.996375 -0.00377371 -1.65535e-21)
(0.989564 -0.0065956 7.0606e-22)
(0.980072 -0.00988435 -1.88563e-21)
(0.967747 -0.0138855 -1.15587e-22)
(0.952645 -0.0188173 1.057e-22)
(0.934537 -0.0249612 1.47617e-22)
(0.913313 -0.0326193 2.20926e-22)
(0.888673 -0.042219 -1.55306e-21)
(0.860472 -0.0541649 2.02271e-21)
(0.828375 -0.0691225 -3.26432e-21)
(0.792277 -0.0875841 7.30103e-22)
(0.751869 -0.110323 2.16443e-21)
(0.707191 -0.13715 -1.42809e-22)
(0.657806 -0.166017 2.5371e-21)
(0.999882 -0.00105158 -8.79395e-22)
(0.996368 -0.00319444 2.00878e-21)
(0.989532 -0.00558435 -1.26748e-21)
(0.979997 -0.0083698 1.54083e-21)
(0.967603 -0.011759 8.43061e-22)
(0.952397 -0.0159362 -5.30274e-22)
(0.934134 -0.0211415 -9.12854e-23)
(0.912679 -0.0276316 -5.9614e-22)
(0.887699 -0.0357741 2.12138e-22)
(0.858993 -0.0459169 -1.71347e-21)
(0.826171 -0.0586339 8.08339e-22)
(0.78902 -0.0743653 -5.44106e-21)
(0.747136 -0.0937821 7.59478e-21)
(0.700461 -0.116782 -2.28028e-21)
(0.648519 -0.141634 -4.7551e-21)
(0.999883 -0.000860206 -4.09697e-22)
(0.996363 -0.00261447 -6.20781e-22)
(0.989506 -0.00457134 4.31999e-22)
(0.979936 -0.0068521 1.04818e-22)
(0.967485 -0.00962751 1.17234e-21)
(0.952193 -0.0130481 -4.12935e-22)
(0.933802 -0.0173114 2.38849e-22)
(0.912153 -0.0226286 -8.145e-23)
(0.886893 -0.0293039 6.6067e-22)
(0.857767 -0.0376264 1.23218e-21)
(0.824339 -0.0480724 1.75778e-21)
(0.78631 -0.0610186 -2.84346e-21)
(0.74319 -0.0770257 1.25741e-21)
(0.694838 -0.0960493 -1.59292e-21)
(0.64074 -0.116677 -4.39657e-21)
(0.999885 -0.000668932 1.45394e-21)
(0.996359 -0.00203399 -1.69309e-22)
(0.989485 -0.00355702 6.79558e-22)
(0.979888 -0.00533189 5.76535e-22)
(0.967392 -0.00749208 -1.82879e-21)
(0.952031 -0.0101543 6.84856e-23)
(0.933538 -0.013473 2.77933e-22)
(0.911736 -0.017613 1.68926e-22)
(0.88625 -0.0228132 -6.33822e-22)
(0.856789 -0.0293011 5.91113e-22)
(0.822877 -0.0374513 2.67379e-21)
(0.784145 -0.0475673 -1.06456e-21)
(0.740031 -0.0600926 2.38688e-21)
(0.690328 -0.0750168 -5.18153e-21)
(0.634489 -0.0912452 6.42211e-21)
(0.999886 -0.000477743 -1.03814e-21)
(0.996355 -0.00145312 1.93689e-23)
(0.98947 -0.00254155 -6.05097e-22)
(0.979852 -0.00380979 -2.99289e-22)
(0.967323 -0.00535362 6.51954e-22)
(0.95191 -0.00725613 -3.46079e-23)
(0.933341 -0.00962819 -1.15534e-21)
(0.911424 -0.0125876 6.63928e-22)
(0.88577 -0.0163065 -2.92119e-22)
(0.856057 -0.0209487 2.60819e-22)
(0.821782 -0.0267839 9.09304e-22)
(0.782522 -0.0340347 2.41807e-22)
(0.737661 -0.0430218 -1.58954e-21)
(0.68694 -0.0537507 1.86466e-22)
(0.629786 -0.0654421 -1.43547e-21)
(0.999886 -0.000286619 5.05869e-22)
(0.996353 -0.000871975 -3.45954e-23)
(0.98946 -0.00152525 8.79891e-23)
(0.979828 -0.00228638 4.87305e-22)
(0.967276 -0.00321302 -8.8767e-23)
(0.95183 -0.0043549 -4.72532e-22)
(0.93321 -0.00577874 -2.97525e-22)
(0.911217 -0.00755533 3.55185e-22)
(0.885451 -0.00978846 -3.16818e-22)
(0.85557 -0.0125769 3.73321e-22)
(0.821053 -0.0160836 -9.64062e-22)
(0.781441 -0.0204441 5.32474e-22)
(0.736081 -0.0258525 -1.17831e-21)
(0.684678 -0.0323174 4.73032e-22)
(0.626643 -0.0393723 1.94861e-22)
(0.999887 -9.55354e-05 -9.01504e-23)
(0.996352 -0.000290677 8.79113e-23)
(0.989455 -0.000508472 -1.14657e-22)
(0.979816 -0.000762214 -1.61529e-22)
(0.967254 -0.00107115 1.51242e-22)
(0.951791 -0.00145184 2.37971e-22)
(0.933145 -0.00192656 1.644e-22)
(0.911113 -0.00251891 -9.8505e-23)
(0.885292 -0.00326358 3.91313e-22)
(0.855327 -0.0041936 7.11905e-23)
(0.820689 -0.0053634 1.80913e-22)
(0.780901 -0.00681856 2.48382e-22)
(0.73529 -0.00862409 -6.72142e-24)
(0.683546 -0.0107836 -1.764e-22)
(0.625069 -0.013142 -2.71504e-23)
(1.00013 -0.000346225 0)
(1.0027 -0.0010244 0)
(1.00729 -0.00166062 0)
(1.01341 -0.00226244 0)
(1.02059 -0.00282814 0)
(1.02849 -0.00334929 0)
(1.03678 -0.00381719 0)
(1.04523 -0.00422574 0)
(1.0536 -0.00457225 0)
(1.06173 -0.00485733 0)
(1.0695 -0.00508443 0)
(1.07682 -0.0052589 0)
(1.08365 -0.0053876 0)
(1.08995 -0.00547623 0)
(1.09577 -0.00554152 0)
(1.00013 -0.00102273 0)
(1.00267 -0.00301846 0)
(1.00724 -0.00489474 0)
(1.01333 -0.00667381 0)
(1.02049 -0.00834916 0)
(1.02839 -0.00989586 0)
(1.03671 -0.0112878 0)
(1.04519 -0.0125061 0)
(1.05362 -0.0135417 0)
(1.06183 -0.0143955 0)
(1.06968 -0.015077 0)
(1.0771 -0.0156016 0)
(1.08402 -0.0159892 0)
(1.09041 -0.0162564 0)
(1.09633 -0.0164508 0)
(1.00013 -0.00166299 0)
(1.00263 -0.00489904 0)
(1.00714 -0.00795101 0)
(1.01317 -0.0108562 0)
(1.02029 -0.013602 0)
(1.02818 -0.0161472 0)
(1.03653 -0.0184475 0)
(1.04509 -0.0204693 0)
(1.05364 -0.022195 0)
(1.06198 -0.0236231 0)
(1.07 -0.0247673 0)
(1.07758 -0.0256513 0)
(1.08468 -0.026307 0)
(1.09125 -0.026761 0)
(1.09737 -0.0270928 0)
(1.00012 -0.00226159 0)
(1.00257 -0.00665938 0)
(1.00699 -0.0108224 0)
(1.01292 -0.0148052 0)
(1.01998 -0.0185893 0)
(1.02785 -0.0221169 0)
(1.03624 -0.0253242 0)
(1.0449 -0.0281596 0)
(1.05359 -0.0305932 0)
(1.06212 -0.032618 0)
(1.07036 -0.0342488 0)
(1.07819 -0.0355153 0)
(1.08554 -0.0364603 0)
(1.09236 -0.0371193 0)
(1.09875 -0.037606 0)
(1.00012 -0.00281643 0)
(1.00248 -0.00829434 0)
(1.00678 -0.0135023 0)
(1.01259 -0.018515 0)
(1.01955 -0.0233095 0)
(1.02738 -0.027811 0)
(1.03579 -0.031934 0)
(1.04455 -0.0356056 0)
(1.05341 -0.0387789 0)
(1.06218 -0.0414371 0)