/*--------------------------------*- C++ -*----------------------------------*\
  =========                 |
  \\      /  F ield         | OpenFOAM: The Open Source CFD Toolbox
   \\    /   O peration     | Website:  https://openfoam.org
    \\  /    A nd           | Version:  7
     \\/     M anipulation  |
\*---------------------------------------------------------------------------*/
FoamFile
{
    version     2.0;
    format      ascii;
    class       volVectorField;
    location    "40";
    object      U;
}
// * * * * * * * * * * * * * * * * * * * * * * * * * * * * * * * * * * * * * //

dimensions      [0 1 -1 0 0 0 0];

internalField   nonuniform List<vector> 
2125
(
(0.00967124 -0.00530249 -4.21684e-20)
(0.0129423 -0.00685995 1.5461e-20)
(0.0522256 -0.0212401 1.78906e-20)
(0.0166054 -0.00833291 -1.04729e-20)
(0.063064 -0.0244386 -8.14785e-21)
(0.0206598 -0.00967983 2.20212e-20)
(0.0748741 -0.0272219 -6.51193e-21)
(0.145342 -0.0372272 -3.88606e-21)
(0.0251006 -0.0108589 -8.17398e-21)
(0.0876249 -0.0294814 -5.12511e-20)
(0.166144 -0.0391483 5.49936e-21)
(0.257398 -0.0427294 1.93322e-20)
(0.0299183 -0.0118287 -8.86804e-21)
(0.101272 -0.0311112 1.8289e-20)
(0.188128 -0.0400279 2.44e-20)
(0.287098 -0.0419381 -1.80064e-20)
(0.395908 -0.0374332 6.79436e-21)
(0.511852 -0.0273312 -4.31719e-20)
(0.0350985 -0.012548 -1.13206e-20)
(0.115757 -0.0320097 -3.8261e-21)
(0.211178 -0.0397277 -4.40303e-20)
(0.31786 -0.0395665 -7.03353e-21)
(0.43328 -0.0324097 -6.67647e-22)
(0.554404 -0.0193744 2.66935e-21)
(0.67764 -0.00199228 4.48679e-21)
(0.0406213 -0.012977 -2.85952e-21)
(0.131005 -0.0320805 1.50428e-20)
(0.235155 -0.0381221 2.157e-20)
(0.349474 -0.0354844 1.3909e-20)
(0.471192 -0.025365 -4.23437e-21)
(0.596957 -0.00920014 -3.6437e-21)
(0.722845 0.0111695 3.75124e-20)
(0.844556 0.0337872 5.43419e-21)
(0.0464606 -0.0130768 2.8115e-20)
(0.146929 -0.0312345 1.9309e-20)
(0.2599 -0.0351008 -2.02539e-20)
(0.381707 -0.0295865 -4.12393e-21)
(0.509337 -0.0162249 2.20944e-21)
(0.639147 0.00321051 -8.57437e-21)
(0.76693 0.0265595 -1.93833e-20)
(0.888187 0.0516012 -3.22481e-21)
(0.998531 0.0762702 1.70362e-22)
(1.09281 0.0943225 9.01689e-21)
(0.0525844 -0.0128108 3.21255e-21)
(0.163423 -0.029391 -1.05199e-20)
(0.285231 -0.0305705 2.57345e-20)
(0.4143 -0.0217939 1.72646e-20)
(0.547391 -0.00495031 4.95391e-22)
(0.680601 0.0178345 1.32912e-20)
(0.809505 0.044077 2.01008e-21)
(0.929506 0.0713017 -1.5448e-20)
(1.03629 0.0972509 1.37009e-20)
(1.12536 0.116388 1.45548e-22)
(0.0589538 -0.012145 -2.28434e-20)
(0.180368 -0.0264794 -7.14154e-21)
(0.310947 -0.0244571 -6.7457e-21)
(0.446977 -0.0120563 -1.20239e-20)
(0.585013 0.00846188 2.91257e-21)
(0.72094 0.0346096 7.98131e-23)
(0.850191 0.0635844 1.08106e-20)
(0.968175 0.0926775 -1.82703e-21)
(1.07078 0.119481 -1.41516e-20)
(1.15424 0.139167 -1.35622e-20)
(0.0655234 -0.0110487 1.8166e-21)
(0.19763 -0.0224412 1.13583e-20)
(0.336832 -0.0167076 5.60545e-21)
(0.479445 -0.000352232 -1.84406e-20)
(0.621857 0.0239797 -1.01064e-21)
(0.759793 0.0534367 -8.83103e-21)
(0.888631 0.0849123 2.422e-22)
(1.0039 0.115498 4.59793e-21)
(1.10181 0.142693 -5.36422e-21)
(1.17936 0.162376 1.53507e-20)
(0.0722415 -0.00949567 4.18646e-21)
(0.215062 -0.017231 -1.09071e-20)
(0.362653 -0.00729115 -2.6719e-20)
(0.511404 0.0133094 2.57355e-20)
(0.657576 0.0415366 -2.04459e-21)
(0.796801 0.0741827 6.36495e-21)
(0.924495 0.107865 -9.64643e-22)
(1.03641 0.13952 6.85205e-21)
(1.12923 0.166621 -5.29169e-22)
(1.2007 0.185762 -1.18685e-20)
(0.0790504 -0.00746457 -8.33577e-21)
(0.232504 -0.010819 1.39804e-20)
(0.388167 0.00379858 1.209e-20)
(0.542546 0.0288889 -1.81833e-20)
(0.691827 0.0610328 -3.17234e-21)
(0.831625 0.0966843 1.29349e-21)
(0.95749 0.132223 1.38943e-20)
(1.06552 0.164491 7.62025e-22)
(1.15294 0.191009 2.9731e-21)
(1.21829 0.209097 -6.62503e-21)
(0.0858868 -0.00494016 6.29835e-21)
(0.249788 -0.00319177 -6.03918e-21)
(0.413122 0.0165429 -5.23118e-21)
(0.572563 0.0463163 9.56756e-21)
(0.724279 0.0823369 3.54524e-21)
(0.863951 0.120751 2.86648e-21)
(0.987364 0.157752 -1.41357e-20)
(1.09106 0.190156 -5.13202e-21)
(1.17289 0.215612 -4.77277e-21)
(1.23219 0.232176 2.18503e-21)
(0.092683 -0.00191394 -3.00945e-21)
(0.266738 0.00564582 -6.39049e-23)
(0.437263 0.0308968 9.88156e-21)
(0.601152 0.0654908 -3.86217e-21)
(0.754619 0.105288 -1.79191e-21)
(0.893496 0.146168 -1.26913e-21)
(1.0139 0.184205 3.42789e-21)
(1.11292 0.21626 6.24641e-21)
(1.18908 0.240198 -1.98325e-22)
(1.24251 0.254818 2.40682e-21)
(0.0993675 0.00161516 2.09713e-21)
(0.283174 0.01567 -6.36297e-22)
(0.460338 0.0467891 -1.74362e-21)
(0.628021 0.0862828 -1.67282e-21)
(0.782556 0.129698 1.63308e-21)
(0.920014 0.172704 1.37564e-21)
(1.03694 0.211324 -1.34417e-21)
(1.13103 0.242554 5.224e-22)
(1.20156 0.264548 7.56196e-22)
(1.24937 0.276863 -1.0202e-21)
(0.105866 0.00564016 1.0753e-21)
(0.298914 0.0268373 3.42851e-22)
(0.482096 0.0641222 -2.07434e-21)
(0.652892 0.108535 -1.78365e-21)
(0.807826 0.155355 2.01012e-21)
(0.943295 0.200107 4.1968e-22)
(1.05635 0.23885 -1.08224e-21)
(1.14537 0.268792 1.0633e-21)
(1.21039 0.28846 6.1435e-22)
(1.25293 0.298169 -7.0807e-22)
(0.112104 0.0101457 -4.38831e-22)
(0.313778 0.039084 8.99182e-22)
(0.502297 0.0827726 6.24866e-21)
(0.675508 0.132062 -2.98694e-21)
(0.830197 0.182026 -1.64381e-21)
(0.963167 0.228119 -2.00165e-21)
(1.07206 0.266521 4.34774e-21)
(1.15597 0.294741 3.05983e-21)
(1.21569 0.311744 2.52866e-21)
(1.25336 0.318609 1.38143e-21)
(0.118004 0.0151076 8.1425e-21)
(0.32759 0.0523269 -4.79024e-21)
(0.520714 0.102593 -5.95449e-21)
(0.695635 0.15666 8.64252e-21)
(0.849469 0.209462 4.95805e-21)
(0.979502 0.25647 -3.67464e-22)
(1.08402 0.294078 -7.20514e-21)
(1.16287 0.320175 -5.50765e-21)
(1.21758 0.334228 -5.85345e-21)
(1.25084 0.338071 3.453e-21)
(0.123494 0.0204931 -1.0868e-20)
(0.340182 0.0664631 1.08815e-20)
(0.537138 0.123411 1.32071e-20)
(0.713067 0.182099 -1.42867e-20)
(0.865479 0.237399 -5.49519e-21)
(0.99221 0.284888 3.83391e-21)
(1.09224 0.321268 7.56675e-21)
(1.16616 0.344882 1.22484e-21)
(1.21622 0.355749 -1.63809e-22)
(1.24555 0.356454 -4.56111e-21)
(0.128502 0.0262607 -1.45258e-21)
(0.351398 0.0813714 -1.49187e-20)
(0.55138 0.145038 -1.70839e-20)
(0.727627 0.208135 2.10818e-20)
(0.878102 0.265564 -2.56851e-21)
(1.00124 0.3131 5.24905e-21)
(1.09674 0.347843 1.1228e-21)
(1.16594 0.368661 -3.33974e-21)
(1.21175 0.376161 1.86579e-21)
(1.23767 0.373667 -1.01273e-22)
(0.13296 0.0323609 2.94347e-21)
(0.361094 0.0969139 8.92392e-21)
(0.563275 0.167262 5.58667e-21)
(0.739173 0.23451 -4.7078e-21)
(0.887251 0.293677 -7.88892e-21)
(1.00658 0.340835 -8.37129e-21)
(1.09759 0.373567 -1.80845e-21)
(1.16235 0.391323 4.85269e-21)
(1.20437 0.395327 -1.06873e-21)
(1.22741 0.389627 2.46227e-21)
(0.136806 0.038736 -1.04266e-20)
(0.369144 0.112937 -1.07904e-20)
(0.572686 0.189859 -1.74115e-21)
(0.747597 0.260955 -2.17139e-21)
(0.892877 0.321456 -5.63796e-21)
(1.00826 0.367829 3.93965e-21)
(1.09489 0.398214 -7.88608e-22)
(1.15554 0.412694 -4.34715e-21)
(1.19424 0.413118 3.99166e-21)
(1.21494 0.40426 -5.20291e-21)
(0.139986 0.0453218 2.97902e-21)
(0.375441 0.129275 9.05854e-21)
(0.579503 0.212593 8.39706e-21)
(0.752827 0.287195 1.01021e-20)
(0.89497 0.348623 4.07653e-22)
(1.00633 0.393824 1.06648e-20)
(1.08876 0.421571 5.99342e-22)
(1.14566 0.43261 -1.37699e-20)
(1.18154 0.429415 9.85285e-21)
(1.20041 0.41749 3.72247e-21)
(0.142451 0.0520475 6.49581e-21)
(0.379898 0.14575 1.51171e-20)
(0.58365 0.235218 -2.35078e-21)
(0.754827 0.312951 -1.23251e-20)
(0.893556 0.3749 6.33296e-21)
(1.00089 0.418576 -7.30767e-21)
(1.07934 0.443439 -9.97355e-21)
(1.13289 0.450927 -3.88656e-22)
(1.16644 0.444122 -7.52668e-21)
(1.18389 0.429201 2.68523e-21)
(0.144164 0.0588374 2.59217e-21)
(0.382451 0.162178 1.49888e-21)
(0.585079 0.257483 1.97372e-20)
(0.7536 0.337948 4.32378e-21)
(0.888698 0.40002 -3.93446e-21)
(0.992055 0.441851 -2.43447e-21)
(1.06679 0.463636 1.43019e-20)
(1.11742 0.467517 1.19604e-20)
(1.14914 0.457207 5.86237e-21)
(1.16568 0.439273 -5.6574e-22)
(0.145094 0.0656118 4.24043e-22)
(0.38306 0.178367 -1.48759e-20)
(0.583779 0.279136 -2.25085e-20)
(0.749181 0.361912 6.93672e-22)
(0.880492 0.423725 6.02411e-21)
(0.979976 0.463431 -8.24544e-21)
(1.05131 0.481988 -1.96261e-20)
(1.09943 0.482239 -5.87802e-21)
(1.12981 0.468546 -2.92285e-22)
(1.14603 0.447796 1.14518e-21)
(0.145223 0.0722882 -4.10661e-21)
(0.381709 0.194124 1.06229e-20)
(0.579766 0.299926 1.28362e-20)
(0.741644 0.384579 -1.30141e-20)
(0.869066 0.44577 2.27709e-21)
(0.964826 0.483114 1.81276e-20)
(1.03307 0.498346 -2.96844e-21)
(1.07912 0.494997 3.20739e-21)
(1.10858 0.478026 -5.87278e-22)
(1.12502 0.454674 -3.88701e-22)
(0.144542 0.0787826 -7.92948e-21)
(0.378406 0.209256 -1.71363e-20)
(0.573094 0.319608 -3.88594e-21)
(0.731094 0.405695 7.10875e-21)
(0.854579 0.465927 7.28632e-21)
(0.946799 0.500714 -1.68509e-20)
(1.01229 0.512574 9.07758e-21)
(1.05666 0.505699 -2.90169e-21)
(1.08566 0.485589 1.09287e-21)
(1.10274 0.459817 6.37467e-22)
(0.143054 0.0850112 6.14101e-21)
(0.373185 0.223573 1.1798e-21)
(0.563844 0.337943 -1.36289e-21)
(0.71767 0.425019 -7.36614e-21)
(0.837216 0.483984 4.24107e-21)
(0.926113 0.516066 2.31496e-21)
(0.989195 0.524556 -2.84797e-21)
(1.03228 0.514269 2.12567e-21)
(1.06118 0.491182 1.01916e-21)
(1.07932 0.463154 -2.96517e-21)
(0.140772 0.0908917 -1.01948e-21)
(0.366102 0.236889 -7.60808e-22)
(0.552129 0.354706 5.41755e-21)
(0.701536 0.442327 3.26733e-21)
(0.817188 0.499746 -5.81118e-21)
(0.903008 0.529023 5.22965e-21)
(0.964021 0.534192 1.46685e-21)
(1.00617 0.520645 2.72124e-21)
(1.03529 0.494761 6.55634e-21)
(1.05487 0.464618 1.17646e-21)
(0.137717 0.0963415 5.32388e-21)
(0.357239 0.249031 5.64872e-21)
(0.538087 0.369681 -1.94358e-21)
(0.682885 0.45741 -5.75008e-22)
(0.794731 0.513041 -1.92779e-21)
(0.877736 0.539456 -1.08384e-21)
(0.937018 0.541403 2.63796e-21)
(0.978534 0.524788 1.38279e-23)
(1.00812 0.496298 -5.82251e-21)
(1.02946 0.464136 -7.30796e-21)
(0.133922 0.101279 -2.19159e-21)
(0.346701 0.25983 -7.92058e-22)
(0.521883 0.382675 -2.77823e-21)
(0.661937 0.470081 8.68726e-22)
(0.770098 0.523714 -3.00938e-21)
(0.850567 0.547258 6.7792e-21)
(0.908449 0.546125 -8.3597e-22)
(0.949605 0.526676 1.14159e-21)
(0.97979 0.495782 -5.51551e-21)
(1.00316 0.461623 8.69081e-21)
(0.129436 0.105632 -2.04288e-21)
(0.334607 0.269128 4.1313e-22)
(0.503705 0.393508 -1.66057e-21)
(0.638929 0.480173 -2.41436e-21)
(0.743559 0.531631 -1.84216e-21)
(0.821786 0.552338 -3.15269e-22)
(0.878596 0.548313 3.28907e-21)
(0.919616 0.526308 -1.51518e-20)
(0.950397 0.493219 3.24424e-20)
(0.975999 0.456954 1.32056e-20)
(0.124309 0.109336 4.74077e-22)
(0.321095 0.276787 -8.90022e-21)
(0.48376 0.402019 6.83583e-21)
(0.614117 0.487542 -1.3744e-21)
(0.715397 0.536681 3.42111e-21)
(0.791686 0.554621 -5.85058e-21)
(0.847756 0.547938 -1.1227e-20)
(0.888838 0.523713 5.91463e-21)
(0.920111 0.488664 -2.68977e-21)
(0.947918 0.450015 -6.46166e-21)
(0.118602 0.112329 -2.03097e-21)
(0.306322 0.282684 2.33702e-21)
(0.462274 0.408071 -4.48953e-21)
(0.587769 0.492065 4.62017e-21)
(0.685901 0.53877 8.78415e-21)
(0.760566 0.554049 5.65007e-21)
(0.816236 0.544978 1.94175e-20)
(0.857611 0.518944 -1.40977e-20)
(0.889348 0.482338 -2.80656e-20)
(0.918674 0.441212 1.1524e-20)
(0.112382 0.114555 -4.81286e-21)
(0.290459 0.286713 -4.501e-21)
(0.439484 0.41155 1.60078e-21)
(0.560164 0.493644 1.40545e-20)
(0.655365 0.537828 -1.62673e-20)
(0.72872 0.550572 -2.22551e-20)
(0.78434 0.539393 -7.18584e-21)
(0.826376 0.511973 -9.48089e-22)
(0.85904 0.474515 3.53164e-20)
(0.887887 0.430972 -9.29509e-21)
(0.105723 0.11597 1.43012e-20)
(0.273687 0.288785 -4.93244e-22)
(0.415642 0.412365 -2.69391e-21)
(0.531587 0.492208 -1.33997e-22)
(0.62408 0.533806 -8.17986e-21)
(0.69642 0.544156 4.01334e-20)
(0.752327 0.531123 -2.76972e-20)
(0.795536 0.502557 3.47588e-20)
(0.830169 0.46471 -2.58682e-20)
(0.861112 0.421243 -3.49135e-20)
(0.0987036 0.116534 -6.72746e-21)
(0.256197 0.288833 3.11597e-21)
(0.391005 0.410452 -1.26166e-21)
(0.502327 0.487713 1.34008e-20)
(0.592333 0.526685 -4.47389e-21)
(0.663922 0.534803 7.10468e-21)
(0.720379 0.520182 1.66e-20)
(0.765026 0.490721 -9.09773e-21)
(0.801697 0.452647 -2.34711e-20)
(0.834379 0.409679 3.44134e-20)
(0.0914096 0.11622 1.3493e-20)
(0.238189 0.286811 1.90746e-20)
(0.365838 0.405773 -1.59434e-20)
(0.472675 0.480142 -1.40217e-20)
(0.560413 0.516473 4.14541e-20)
(0.631486 0.522543 -4.26944e-20)
(0.6887 0.506628 5.24867e-20)
(0.734943 0.476598 -1.422e-20)
(0.773653 0.438602 1.5935e-20)
(0.808056 0.396474 2.9924e-20)
(0.0839281 0.11501 -6.34192e-21)
(0.219865 0.282692 -1.70899e-20)
(0.340408 0.398316 -6.94422e-21)
(0.442924 0.469506 -4.6121e-21)
(0.528607 0.503205 3.5544e-21)
(0.599372 0.507428 -1.02573e-20)
(0.657515 0.490527 -1.5809e-20)
(0.705474 0.460283 -3.52321e-20)
(0.74626 0.422734 3.65078e-20)
(0.782483 0.381769 -1.26728e-20)
(0.0763489 0.112894 2.33644e-20)
(0.201433 0.276472 -1.53517e-21)
(0.314985 0.388096 -9.13966e-21)
(0.413367 0.455842 1.34781e-20)
(0.4972 0.486934 -2.47298e-20)
(0.567842 0.489527 6.65576e-20)
(0.627052 0.471954 -3.7089e-20)
(0.676812 0.441848 3.56811e-20)
(0.719705 0.4051 -6.9344e-20)
(0.757823 0.36558 -1.92008e-20)
(0.0687629 0.109874 -9.70528e-21)
(0.1831 0.268169 2.50352e-20)
(0.289835 0.375153 6.63627e-21)
(0.384291 0.439211 -1.1573e-20)
(0.466472 0.46774 -2.07527e-20)
(0.53715 0.468923 -1.27281e-21)
(0.597534 0.450992 1.24078e-20)
(0.649153 0.421363 -3.16323e-20)
(0.694163 0.385742 1.69081e-20)
(0.734219 0.347916 2.22202e-21)
(0.0612609 0.10596 -3.69636e-20)
(0.165069 0.257821 -9.99542e-21)
(0.265222 0.35955 -2.52737e-21)
(0.355975 0.419699 2.93426e-20)
(0.436693 0.445718 -2.80748e-20)
(0.507543 0.445717 -7.94658e-21)
(0.569178 0.427733 -4.92765e-21)
(0.622681 0.398907 9.8443e-21)
(0.669796 0.364714 -1.29524e-20)
(0.711803 0.328801 -2.14328e-20)
(0.0539325 0.101175 3.05226e-20)
(0.147541 0.245486 -1.75408e-20)
(0.241399 0.341376 1.11766e-21)
(0.32869 0.397414 -4.41543e-20)
(0.408124 0.420988 4.95819e-20)
(0.479254 0.420025 -1.65437e-20)
(0.542188 0.402282 1.04653e-20)
(0.597569 0.374566 9.6659e-21)
(0.646751 0.342078 2.96213e-20)
(0.690694 0.308275 -1.24873e-20)
(0.046865 0.0955468 -1.2383e-20)
(0.130711 0.231241 3.64686e-20)
(0.218613 0.320744 2.05072e-20)
(0.302695 0.372489 3.37579e-20)
(0.38101 0.393686 -8.36645e-21)
(0.452506 0.391977 3.39226e-21)
(0.516753 0.374756 2.95937e-20)
(0.573979 0.348439 6.89463e-21)
(0.625162 0.31791 6.69815e-22)
(0.670994 0.2864 -1.49377e-20)
(0.0401421 0.0891159 -2.63116e-20)
(0.114763 0.215184 -2.1006e-21)
(0.197094 0.297786 -1.16341e-20)
(0.278232 0.345074 -5.34912e-20)
(0.355583 0.363967 -5.41751e-20)
(0.427505 0.361722 9.55308e-21)
(0.493053 0.345288 -2.49526e-20)
(0.552058 0.320636 1.68715e-20)
(0.605151 0.292298 9.7755e-21)
(0.652797 0.263248 2.15641e-20)
(0.0338435 0.08193 3.71106e-20)
(0.0998723 0.197429 -3.22181e-20)
(0.177063 0.272658 -1.64106e-20)
(0.255531 0.315343 3.08982e-20)
(0.332059 0.332006 3.65283e-20)
(0.404441 0.329421 -1.26748e-20)
(0.471248 0.314018 -1.63816e-21)
(0.531941 0.291277 -5.23027e-20)
(0.586828 0.265342 -3.13216e-20)
(0.636185 0.238909 1.26853e-20)
(0.0280433 0.074045 -2.10348e-20)
(0.0862006 0.178107 9.45398e-21)
(0.158721 0.245532 3.50072e-20)
(0.234799 0.283486 -1.5985e-20)
(0.310635 0.297991 1.22759e-21)
(0.38349 0.295249 5.11658e-20)
(0.451487 0.281104 2.54608e-21)
(0.513749 0.260497 4.98887e-20)
(0.570291 0.237156 2.21383e-20)
(0.621231 0.21348 -3.70775e-20)
(0.02281 0.0655243 2.80608e-20)
(0.0738966 0.157366 3.24376e-21)
(0.142251 0.2166 2.24987e-21)
(0.216229 0.249712 3.28249e-20)
(0.291488 0.262127 -4.66884e-21)
(0.364808 0.259395 -3.19862e-20)
(0.433903 0.24671 1.67479e-20)
(0.497591 0.228437 -2.81048e-20)
(0.555628 0.207859 -1.24528e-20)
(0.608002 0.187068 1.34803e-20)
(0.0182049 0.0564382 -1.75285e-20)
(0.0630934 0.135363 -3.53671e-20)
(0.127819 0.186069 8.3285e-21)
(0.199988 0.214244 -1.71606e-20)
(0.274776 0.224633 -1.10534e-20)
(0.348532 0.222059 2.83272e-20)
(0.418612 0.211013 -7.20689e-21)
(0.483563 0.195249 7.21591e-21)
(0.542915 0.177582 -9.32537e-21)
(0.596555 0.159791 1.93254e-20)
(0.0142821 0.0468629 6.20671e-21)
(0.0539076 0.112274 2.36531e-20)
(0.115567 0.15416 -3.37854e-20)
(0.186225 0.17732 1.67938e-20)
(0.260637 0.185738 -8.07929e-21)
(0.334784 0.183451 -2.42167e-20)
(0.405713 0.174199 2.10036e-20)
(0.471746 0.161093 4.79569e-21)
(0.532218 0.146465 -6.84236e-22)
(0.586938 0.13177 -2.26045e-20)
(0.0110873 0.0368801 1.9726e-21)
(0.0464378 0.0882792 7.46636e-21)
(0.105618 0.121108 3.03971e-20)
(0.175063 0.139187 -6.10927e-21)
(0.249186 0.145682 -5.10224e-21)
(0.323664 0.14379 2.00577e-21)
(0.395293 0.136459 8.77846e-22)
(0.462209 0.126136 8.31804e-21)
(0.523594 0.11465 -1.16023e-20)
(0.579195 0.103134 -7.79082e-21)
(0.00865804 0.0265757 -5.01247e-21)
(0.0407643 0.0635718 -9.1393e-21)
(0.098069 0.0871559 -2.35263e-20)
(0.166602 0.100104 1.24212e-20)
(0.240516 0.104716 1.07377e-20)
(0.315253 0.103302 4.60783e-22)
(0.387418 0.0979939 -2.04609e-20)
(0.455008 0.0905504 -9.67795e-21)
(0.517086 0.0822871 8.13678e-21)
(0.573358 0.0740149 9.22191e-21)
(0.0070226 0.016039 8.70615e-22)
(0.0369479 0.0383502 -1.89169e-21)
(0.0929947 0.0525546 4.46424e-21)
(0.16092 0.0603377 -3.17729e-21)
(0.234696 0.063093 -2.95644e-21)
(0.309611 0.0622203 -2.12467e-21)
(0.38214 0.0590062 4.19346e-21)
(0.450184 0.0545121 1.69797e-20)
(0.512729 0.0495306 2.60185e-21)
(0.569452 0.0445485 -4.92033e-21)
(0.158066 0.0201585 -2.68588e-21)
(0.231775 0.021075 2.71933e-21)
(0.30678 0.02078 1.3046e-21)
(0.379492 0.0197038 -1.38098e-21)
(0.447766 0.0182011 -6.71738e-21)
(0.510545 0.0165367 2.34089e-21)
(0.567495 0.0148728 -2.32588e-21)
(1.26984 0.279999 -1.07311e-22)
(1.26689 0.261043 -1.08206e-21)
(1.26093 0.24134 -2.00588e-22)
(1.25179 0.220999 -7.22955e-22)
(1.23932 0.200148 3.86116e-21)
(1.2234 0.178938 -3.6307e-21)
(1.20394 0.157549 2.33024e-21)
(1.18088 0.136189 9.23117e-21)
(1.27987 0.279795 -2.17671e-23)
(1.27977 0.26363 9.242e-22)
(1.2771 0.246713 8.15e-22)
(1.27167 0.229111 -3.97385e-21)
(1.26333 0.210912 1.30463e-21)
(1.25192 0.19222 -8.04317e-22)
(1.23731 0.173163 2.22801e-21)
(1.21941 0.153892 -4.33798e-21)
(1.28461 0.276613 2.83305e-22)
(1.28695 0.26305 6.47685e-22)
(1.28716 0.248766 3.85701e-22)
(1.28506 0.233793 1.9592e-21)
(1.28047 0.218177 2.59922e-21)
(1.27323 0.201974 3.80757e-21)
(1.26317 0.185262 -1.1206e-22)
(1.25016 0.168137 7.22918e-22)
(1.28501 0.270718 -9.29429e-23)
(1.28925 0.25947 -1.10685e-21)
(1.2918 0.247562 -1.02869e-21)
(1.29247 0.235 7.62116e-22)
(1.2911 0.221794 -2.94945e-21)
(1.28749 0.207966 -6.9023e-21)
(1.28149 0.193551 3.06066e-21)
(1.27292 0.178602 3.7168e-22)
(1.28213 0.262619 1.11573e-23)
(1.28773 0.253375 5.44695e-22)
(1.29202 0.243566 1.39744e-21)
(1.29486 0.233174 5.17601e-22)
(1.29609 0.222189 -1.04692e-22)
(1.29552 0.210605 1.69551e-21)
(1.29298 0.198425 1.26688e-21)
(1.28831 0.185663 -1.4817e-21)
(1.27701 0.252852 2.04064e-25)
(1.28344 0.245278 5.48395e-22)
(1.28892 0.237246 -9.80909e-22)
(1.29332 0.228731 -7.84795e-22)
(1.2965 0.219705 5.07319e-22)
(1.29829 0.210144 1.11024e-21)
(1.29855 0.20003 -1.99533e-21)
(1.2971 0.189349 -9.43118e-22)
(1.27046 0.241924 4.85156e-23)
(1.2773 0.235694 -5.73592e-22)
(1.28348 0.229113 8.71619e-22)
(1.28888 0.222152 5.4391e-22)
(1.2934 0.214778 1.10928e-21)
(1.29691 0.20696 -4.80163e-22)
(1.29927 0.198663 -3.17391e-21)
(1.30032 0.189859 2.15818e-21)
(1.26312 0.230282 -1.16351e-22)
(1.27005 0.225108 -2.3611e-22)
(1.27653 0.219677 -2.80328e-22)
(1.28248 0.213962 -3.47502e-22)
(1.28782 0.207933 1.73258e-22)
(1.29245 0.201556 1.25034e-21)
(1.29625 0.194793 3.47067e-21)
(1.29911 0.187608 7.20483e-22)
(1.25542 0.218277 5.35629e-23)
(1.26221 0.213923 -8.88508e-25)
(1.26871 0.209389 -1.07329e-22)
(1.27486 0.204652 -5.38292e-22)
(1.2806 0.199686 -9.72449e-22)
(1.28586 0.194462 -1.32368e-21)
(1.29057 0.188945 -9.04803e-22)
(1.29462 0.183099 -1.32088e-21)
(1.24762 0.206159 2.98724e-23)
(1.25414 0.202447 4.13013e-22)
(1.26047 0.198609 3.59347e-23)
(1.26657 0.194631 3.68268e-22)
(1.27241 0.190492 2.36914e-23)
(1.27795 0.18617 -1.77562e-21)
(1.28312 0.181637 -1.24408e-22)
(1.28786 0.176861 1.0908e-21)
(1.23987 0.194098 -7.42242e-23)
(1.24604 0.190895 9.31097e-23)
(1.25209 0.187605 -1.15383e-22)
(1.258 0.184218 -2.41341e-22)
(1.26374 0.180721 -3.50431e-22)
(1.26929 0.177098 1.20005e-21)
(1.27461 0.173328 5.71981e-22)
(1.27965 0.169386 -1.01254e-21)
(1.23226 0.182201 2.29539e-23)
(1.23805 0.179412 -3.06536e-22)
(1.24376 0.176561 1.7295e-22)
(1.24938 0.173643 1.31312e-23)
(1.2549 0.17065 3.87559e-22)
(1.2603 0.167571 -3.90833e-22)
(1.26555 0.164393 5.26031e-22)
(1.27064 0.161097 7.68865e-22)
(1.22483 0.170533 1.23071e-23)
(1.23022 0.16809 1.23599e-22)
(1.23557 0.165601 -2.91537e-22)
(1.24086 0.163065 -4.85343e-23)
(1.24608 0.160477 -3.60811e-22)
(1.25124 0.157829 4.40449e-22)
(1.2563 0.155115 -1.70631e-21)
(1.26127 0.152322 -1.04066e-21)
(1.21757 0.159133 -2.66473e-23)
(1.22259 0.156984 3.33276e-23)
(1.22757 0.154802 2.25738e-22)
(1.23251 0.152584 -1.16281e-22)
(1.23741 0.15033 5.67176e-22)
(1.24227 0.148034 -2.02127e-22)
(1.24707 0.145693 3.34254e-22)
(1.25182 0.143299 5.98283e-22)
(1.2105 0.148016 2.35893e-23)
(1.21515 0.146124 -8.3201e-24)
(1.21978 0.144206 -1.59972e-22)
(1.22438 0.142262 4.12345e-22)
(1.22895 0.14029 -2.67645e-22)
(1.2335 0.13829 2.45959e-22)
(1.23801 0.136257 2.57377e-22)
(1.24248 0.134189 1.12512e-22)
(1.20362 0.13719 7.14771e-24)
(1.20792 0.135524 2.18305e-23)
(1.21221 0.133838 7.38867e-23)
(1.21649 0.132132 -2.59087e-22)
(1.22074 0.130406 -1.88027e-22)
(1.22497 0.128658 4.64698e-23)
(1.22918 0.126888 -2.1892e-22)
(1.23336 0.125093 2.24656e-22)
(1.23751 0.123271 -1.06821e-21)
(1.19692 0.126647 -1.18488e-23)
(1.20091 0.125183 -2.26809e-24)
(1.20488 0.123704 -1.46349e-24)
(1.20884 0.122209 1.65302e-22)
(1.21279 0.120699 1.22271e-22)
(1.21672 0.119173 -6.96382e-23)
(1.22063 0.11763 -1.78261e-22)
(1.22453 0.116071 -1.43263e-24)
(1.2284 0.114492 1.59438e-22)
(1.19042 0.116378 1.74006e-24)
(1.19411 0.115095 4.10903e-25)
(1.19779 0.113801 2.78669e-23)
(1.20146 0.112495 -4.82501e-23)
(1.20512 0.111177 -2.73282e-23)
(1.20877 0.109847 1.67697e-22)
(1.2124 0.108505 7.03409e-23)
(1.21601 0.107151 -2.80024e-22)
(1.21961 0.105784 -9.90522e-23)
(1.18411 0.106372 -5.18595e-25)
(1.18753 0.105251 -2.02335e-24)
(1.19095 0.104122 -1.67195e-23)
(1.19435 0.102985 -7.47396e-24)
(1.19774 0.101838 -7.88425e-23)
(1.20112 0.100684 8.36023e-23)
(1.20449 0.0995201 -7.05046e-23)
(1.20784 0.0983478 -1.80556e-22)
(1.21118 0.0971665 3.00725e-22)
(1.17803 0.096605 3.37329e-24)
(1.1812 0.0956314 -4.40883e-24)
(1.18437 0.0946515 -5.70844e-24)
(1.18753 0.0936655 -7.40579e-24)
(1.19067 0.0926733 5.03697e-24)
(1.19381 0.091675 -3.92322e-23)
(1.19693 0.0906705 8.6545e-23)
(1.20004 0.0896599 9.96136e-23)
(1.20313 0.0886428 -1.90981e-23)
(1.17219 0.0870568 -8.88639e-24)
(1.17514 0.0862159 7.94658e-24)
(1.17808 0.0853706 -2.35531e-24)
(1.18102 0.0845211 2.74498e-24)
(1.18394 0.0836673 -2.66415e-24)
(1.18685 0.0828093 2.00683e-24)
(1.18975 0.081947 -1.50155e-23)
(1.19263 0.0810805 -9.32636e-23)
(1.1955 0.0802095 6.07909e-23)
(1.16664 0.0777002 -1.64251e-24)
(1.16938 0.0769795 1.70383e-23)
(1.17212 0.076256 9.29301e-24)
(1.17485 0.0755298 -5.59064e-24)
(1.17756 0.0748007 -1.54464e-23)
(1.18027 0.0740688 2.95773e-25)
(1.18296 0.073334 -1.76541e-23)
(1.18564 0.0725964 2.58266e-23)
(1.1883 0.0718557 -7.19965e-23)
(1.1614 0.0685052 7.54469e-25)
(1.16396 0.0678939 1.00689e-23)
(1.16651 0.0672809 -2.16379e-23)
(1.16906 0.0666663 1.08074e-23)
(1.17159 0.0660499 2.74885e-23)
(1.17411 0.0654317 -2.39145e-23)
(1.17661 0.0648117 2.05852e-23)
(1.1791 0.0641897 -1.7296e-24)
(1.18158 0.0635657 3.45782e-23)
(1.15653 0.0594368 1.12038e-23)
(1.15893 0.0589254 -2.3522e-23)
(1.16132 0.0584132 -1.63222e-23)
(1.1637 0.0579001 2.54801e-23)
(1.16607 0.057386 4.8703e-24)
(1.16842 0.0568708 3.9958e-23)
(1.17076 0.0563545 -7.68497e-25)
(1.17308 0.0558369 -1.60598e-23)
(1.17538 0.055318 1.21953e-23)
(1.15208 0.0504552 7.54165e-25)
(1.15434 0.0500357 -7.11361e-24)
(1.15659 0.0496158 9.21009e-25)
(1.15883 0.0491956 -1.50996e-23)
(1.16105 0.0487749 -8.074e-23)
(1.16326 0.0483537 5.82523e-23)
(1.16545 0.0479317 -2.5484e-23)
(1.16762 0.0475089 6.59915e-24)
(1.16977 0.0470851 4.06986e-23)
(1.14814 0.0415121 -1.11513e-23)
(1.15028 0.0411777 2.60968e-23)
(1.1524 0.0408434 -4.71508e-24)
(1.15452 0.0405091 4.77705e-23)
(1.15661 0.0401745 -2.45575e-23)
(1.15869 0.0398397 -2.04848e-23)
(1.16076 0.0395045 -4.25692e-23)
(1.1628 0.0391686 9.14049e-24)
(1.16482 0.038832 1.78226e-23)
(1.14477 0.0325535 -1.26362e-23)
(1.14681 0.0322989 6.27635e-24)
(1.14883 0.0320444 1.7578e-23)
(1.15084 0.03179 -4.55074e-23)
(1.15283 0.0315356 7.03982e-23)
(1.15481 0.0312811 -4.69352e-23)
(1.15676 0.0310262 -1.56538e-23)
(1.1587 0.0307708 7.2603e-23)
(1.16061 0.0305148 3.01237e-23)
(1.14207 0.0235074 -1.8547e-24)
(1.14403 0.023329 3.17077e-23)
(1.14597 0.0231509 -1.04138e-23)
(1.14789 0.0229729 6.7774e-23)
(1.1498 0.0227949 -7.13828e-23)
(1.15169 0.0226168 -1.39331e-23)
(1.15356 0.0224384 -2.90691e-23)
(1.15541 0.0222596 7.68124e-23)
(1.15723 0.02208 -1.28023e-22)
(1.14014 0.0143041 -2.50109e-25)
(1.14204 0.014198 -7.51958e-24)
(1.14392 0.014092 -8.56147e-24)
(1.14578 0.013986 2.99159e-23)
(1.14763 0.0138799 -5.25063e-23)
(1.14945 0.0137736 5.24578e-23)
(1.15126 0.0136671 -5.13558e-23)
(1.15305 0.0135601 2.45432e-23)
(1.15481 0.0134525 3.85526e-23)
(1.13907 0.00481879 -8.8846e-25)
(1.14093 0.00478784 2.49917e-23)
(1.14277 0.00475686 -5.06686e-23)
(1.1446 0.00472576 -4.0484e-23)
(1.14641 0.00469441 3.0459e-23)
(1.1482 0.00466272 -3.15523e-23)
(1.14997 0.00463056 4.02155e-23)
(1.15173 0.00459783 1.07442e-23)
(1.15346 0.00456442 1.44631e-23)
(0.954493 0.41381 2.76975e-21)
(0.979156 0.419486 -1.99661e-21)
(1.00271 0.424543 6.42103e-21)
(1.02571 0.428262 -1.3581e-21)
(1.04861 0.430501 1.41345e-22)
(1.07115 0.431259 -2.41328e-22)
(1.09312 0.430526 9.39023e-22)
(1.11443 0.428307 5.05319e-22)
(1.13495 0.424628 -1.92698e-23)
(1.15458 0.419523 -7.51424e-22)
(1.17319 0.413034 -9.45637e-22)
(1.19055 0.405174 1.16882e-21)
(1.20663 0.395922 -3.00581e-21)
(1.22136 0.385416 -9.2287e-22)
(1.23446 0.373688 1.74939e-21)
(1.24577 0.360767 -2.40688e-21)
(1.25516 0.346698 4.4691e-22)
(1.26244 0.331529 1.58622e-22)
(1.26743 0.315316 9.47432e-22)
(1.26996 0.298116 1.5878e-22)
(0.977491 0.395809 -4.3185e-21)
(1.00052 0.399519 3.20239e-21)
(1.0221 0.402705 -8.01831e-21)
(1.04259 0.405029 -7.07556e-21)
(1.06301 0.406319 -6.14071e-22)
(1.08325 0.406535 6.1756e-22)
(1.10309 0.405643 -7.13473e-22)
(1.12247 0.40362 -1.16467e-21)
(1.14128 0.400457 2.50718e-22)
(1.15944 0.396159 4.42425e-22)
(1.17682 0.390729 -1.07974e-22)
(1.19326 0.384176 -1.19421e-21)
(1.20873 0.376577 1.13877e-21)
(1.22313 0.367958 -8.68082e-22)
(1.23624 0.358289 2.40104e-22)
(1.24792 0.347591 -5.88035e-22)
(1.25806 0.335896 2.46692e-21)
(1.26649 0.323236 -5.1228e-22)
(1.27305 0.309641 -7.96057e-22)
(1.27757 0.295148 4.58717e-24)
(0.998893 0.378456 -2.2676e-21)
(1.01953 0.381259 -4.77438e-21)
(1.03893 0.383216 2.02359e-21)
(1.05723 0.384387 5.43226e-21)
(1.07546 0.384728 -1.41048e-21)
(1.09359 0.384231 1.69115e-24)
(1.11144 0.382898 -9.61575e-22)
(1.12892 0.380718 -1.07442e-21)
(1.14599 0.377686 -4.78984e-22)
(1.16256 0.373801 -2.47628e-23)
(1.17855 0.369067 1.01726e-21)
(1.19384 0.363501 -1.40756e-22)
(1.20845 0.35715 -2.51747e-22)
(1.22229 0.349888 1.00101e-22)
(1.23508 0.341806 -1.93143e-21)
(1.24679 0.332923 -1.30131e-21)
(1.25731 0.323237 -1.04054e-21)
(1.2665 0.312753 -2.72939e-22)
(1.27422 0.30148 -5.86468e-22)
(1.28031 0.289429 -2.9217e-22)
(1.01845 0.361108 -4.22272e-21)
(1.03693 0.362817 6.46443e-21)
(1.05432 0.363734 -3.01542e-21)
(1.07069 0.363996 1.7789e-22)
(1.08695 0.363606 -8.05461e-22)
(1.10313 0.362562 1.82296e-21)
(1.11906 0.360874 7.96524e-22)
(1.13471 0.358548 1.9092e-21)
(1.15003 0.355584 1.21209e-22)
(1.16499 0.351986 1.9154e-22)
(1.17954 0.347759 -4.90347e-22)
(1.19361 0.342916 1.14786e-21)
(1.20704 0.337475 -8.40156e-23)
(1.21988 0.331328 -9.66775e-22)
(1.23212 0.324562 2.90146e-21)
(1.24355 0.317183 1.34295e-21)
(1.25409 0.309176 -3.74627e-22)
(1.26362 0.300531 5.39621e-22)
(1.27204 0.291244 9.18535e-22)
(1.27922 0.281309 1.10185e-22)
(1.03568 0.343635 7.32769e-21)
(1.05223 0.344426 -4.8405e-21)
(1.06778 0.344553 1.78511e-21)
(1.08244 0.344148 -1.51865e-21)
(1.09696 0.343227 9.09495e-22)
(1.11141 0.341787 -7.99387e-22)
(1.12564 0.339843 6.52477e-22)
(1.13962 0.337406 -1.02689e-21)
(1.15334 0.334485 6.75193e-22)
(1.16677 0.331086 -1.54729e-22)
(1.17989 0.327214 -5.12573e-24)
(1.19265 0.322866 -4.40687e-22)
(1.20497 0.318042 2.86652e-22)
(1.21687 0.312797 -2.72883e-22)
(1.22831 0.307102 -8.49546e-22)
(1.23917 0.30093 1.88762e-23)
(1.24939 0.294273 -2.2589e-22)
(1.25889 0.287125 -9.34014e-22)
(1.26759 0.279477 -3.53017e-22)
(1.27538 0.271313 -4.14172e-23)
(1.05072 0.325947 2.32239e-22)
(1.0655 0.326069 3.9791e-21)
(1.07939 0.325642 1.22158e-21)
(1.0925 0.324781 2.87818e-21)
(1.10549 0.323505 -4.59688e-23)
(1.11839 0.321815 5.55278e-22)
(1.13111 0.319723 -1.59941e-21)
(1.14361 0.317245 -7.86086e-22)
(1.1559 0.314393 -6.51795e-22)
(1.16795 0.311178 -5.64804e-23)
(1.17974 0.30761 1.17075e-22)
(1.19126 0.303695 -1.96834e-23)
(1.20247 0.299445 9.90987e-23)
(1.2134 0.29488 7.21629e-22)
(1.224 0.289948 -6.14742e-22)
(1.23416 0.284671 -2.1383e-22)
(1.24387 0.27905 5.89841e-22)
(1.25308 0.273074 6.65397e-22)
(1.26173 0.266728 -4.89253e-22)
(1.26974 0.259994 2.07462e-23)
(1.06373 0.308223 -3.90093e-21)
(1.07691 0.307857 -3.19115e-21)
(1.08928 0.307044 6.67575e-22)
(1.101 0.305878 1.20113e-21)
(1.11261 0.304381 -2.36622e-21)
(1.12415 0.302553 -3.24451e-21)
(1.13553 0.300405 -1.3908e-21)
(1.14672 0.297953 2.17122e-21)
(1.15773 0.29521 3.12457e-22)
(1.16856 0.292186 -1.41887e-23)
(1.17919 0.288893 -2.95841e-23)
(1.18961 0.285341 -1.06513e-22)
(1.19981 0.281543 -3.25353e-22)
(1.20973 0.277508 7.58626e-22)
(1.21941 0.273192 2.07532e-22)
(1.22884 0.268628 -4.11699e-22)
(1.23796 0.263822 -4.0688e-22)
(1.24673 0.258763 1.67285e-22)
(1.2551 0.253438 5.11612e-22)