2 	-3.8991 	9.71445e-17 	1.08516 	0.00120777 	0
2 	-3.702 	6.93889e-17 	1.08558 	0.00367401 	0
2 	-3.51411 	5.55112e-17 	1.08633 	0.00630615 	0
2 	-3.33499 	5.55112e-17 	1.08733 	0.00925574 	0
2 	-3.16423 	8.32667e-17 	1.08847 	0.0126578 	0
2 	-3.00143 	1.11022e-16 	1.08967 	0.0166393 	0
2 	-2.84624 	1.249e-16 	1.09084 	0.0213301 	0
2 	-2.69829 	1.38778e-16 	1.0919 	0.0268566 	0
2 	-2.55725 	1.52656e-16 	1.09277 	0.0333431 	0
2 	-2.42279 	1.52656e-16 	1.09342 	0.0409054 	0
2 	-2.29461 	1.80411e-16 	1.09381 	0.0496465 	0
2 	-2.17241 	2.22045e-16 	1.09397 	0.0596524 	0
2 	-2.05592 	2.22045e-16 	1.09391 	0.0709956 	0
2 	-1.94486 	2.35922e-16 	1.09367 	0.0837383 	0
2 	-1.83899 	2.498e-16 	1.09329 	0.0979354 	0
2 	-1.73806 	2.35922e-16 	1.09277 	0.113631 	0
2 	-1.64184 	2.35922e-16 	1.09208 	0.130857 	0
2 	-1.55011 	2.22045e-16 	1.09118 	0.149628 	0
2 	-1.46266 	1.94289e-16 	1.08999 	0.169944 	0
2 	-1.3793 	2.22045e-16 	1.08847 	0.191778 	0
2 	-1.29983 	2.22045e-16 	1.08658 	0.215063 	0
2 	-1.22406 	1.80411e-16 	1.08441 	0.239693 	0
2 	-1.15184 	1.80411e-16 	1.08203 	0.265559 	0
2 	-1.08298 	1.94289e-16 	1.07943 	0.292582 	0
2 	-1.01734 	1.80411e-16 	1.07632 	0.320722 	0
2 	-0.954763 	1.66533e-16 	1.07211 	0.349914 	0
2 	-0.895107 	1.66533e-16 	1.06595 	0.380104 	0
2 	-0.838235 	1.66533e-16 	1.05698 	0.410596 	0
2 	-0.784018 	1.94289e-16 	1.04368 	0.443154 	0
2 	-0.732332 	2.22045e-16 	1.03005 	0.472286 	0
2 	-0.692472 	2.35922e-16 	0.997178 	0.512147 	5.60457e-21
2 	-0.662767 	2.39392e-16 	0.968072 	0.529143 	-3.56123e-22
2 	-0.632206 	2.25514e-16 	0.937154 	0.540132 	4.71743e-21
2 	-0.600818 	2.35922e-16 	0.904475 	0.553486 	-5.78636e-22
2 	-0.568637 	2.22045e-16 	0.869986 	0.567647 	-3.15732e-21
2 	-0.5357 	2.22045e-16 	0.833758 	0.580962 	-3.45014e-21
2 	-0.509401 	2.498e-16 	0.795888 	0.59349 	-1.49633e-21
2 	-0.492398 	2.63678e-16 	0.901591 	0.626167 	4.89185e-21
2 	-0.467705 	2.77556e-16 	0.855502 	0.641523 	-1.06781e-20
2 	-0.432729 	2.63678e-16 	0.806676 	0.655429 	3.46987e-21
2 	-0.397158 	2.35922e-16 	0.755495 	0.667694 	6.20888e-21
2 	-0.361038 	2.22045e-16 	0.702427 	0.678201 	2.1799e-22
2 	-0.324414 	2.22045e-16 	0.647987 	0.686896 	-6.41246e-22
2 	-0.287337 	2.22045e-16 	0.592707 	0.693774 	1.87551e-21
2 	-0.249855 	2.25948e-16 	0.537097 	0.698872 	1.28817e-21
2 	-0.21202 	2.29417e-16 	0.481625 	0.702265 	-4.54976e-22
2 	-0.173884 	2.11636e-16 	0.4267 	0.704049 	1.93465e-21
2 	-0.135502 	1.8735e-16 	0.372686 	0.704322 	-1.56227e-21
2 	-0.0969254 	1.73472e-16 	0.319922 	0.703163 	1.7648e-21
2 	-0.0582107 	1.59595e-16 	0.268763 	0.700602 	-6.43443e-22
2 	-0.0194128 	1.45717e-16 	0.219623 	0.696602 	1.38253e-22
2 	0.0194128 	6.93889e-17 	0.17301 	0.691055 	-2.71526e-24
2 	0.0582107 	6.245e-17 	0.129542 	0.683768 	3.47139e-22
2 	0.0969254 	7.63278e-17 	0.0899488 	0.674451 	-9.33152e-22
2 	0.135502 	9.02056e-17 	0.0550601 	0.662737 	8.69917e-22
2 	0.173884 	6.93889e-17 	0.0258184 	0.648204 	-1.29413e-21
2 	0.21202 	6.93889e-17 	0.0032191 	0.630393 	-2.772e-22
2 	0.249855 	6.93889e-17 	-0.0116685 	0.608912 	4.42116e-22
2 	0.287337 	5.55112e-17 	-0.0177049 	0.583548 	-2.01105e-21
2 	0.324414 	2.77556e-17 	-0.0137763 	0.554334 	4.72293e-22
2 	0.361038 	2.77556e-17 	0.000986259 	0.52158 	-1.66533e-21
2 	0.397158 	5.55112e-17 	0.0269207 	0.48584 	-2.76499e-21
2 	0.432729 	8.32667e-17 	0.0636078 	0.447823 	-1.56717e-21
2 	0.467705 	1.11022e-16 	0.109842 	0.408367 	8.90737e-22
2 	0.492398 	1.11022e-16 	0.163495 	0.368247 	-1.52894e-21
2 	0.509401 	1.11022e-16 	0.351557 	0.456641 	-6.61928e-22
2 	0.5357 	1.38778e-16 	0.406752 	0.419805 	3.14849e-21
2 	0.568637 	1.66533e-16 	0.46043 	0.38404 	2.22642e-21
2 	0.600818 	1.45717e-16 	0.51165 	0.349593 	-4.56002e-22
2 	0.632206 	1.26635e-16 	0.560867 	0.316678 	-2.08944e-21
2 	0.662767 	1.47451e-16 	0.611139 	0.286518 	8.1546e-22
2 	0.692472 	1.66533e-16 	0.671121 	0.257339 	-1.40243e-21
2 	0.732332 	1.66533e-16 	0.755694 	0.214768 	0
2 	0.784018 	1.66533e-16 	0.865465 	0.180326 	0
2 	0.838235 	1.66533e-16 	0.980301 	0.151983 	0
2 	0.895107 	1.66533e-16 	1.0898 	0.125555 	0
2 	0.954763 	1.66533e-16 	1.18107 	0.101223 	0
2 	1.01734 	1.66533e-16 	1.24592 	0.0789161 	0
2 	1.08298 	1.66533e-16 	1.28391 	0.0586521 	0
2 	1.15184 	1.66533e-16 	1.30042 	0.0407274 	0
2 	1.22406 	1.66533e-16 	1.30263 	0.0253787 	0
2 	1.29983 	1.38778e-16 	1.29672 	0.0126153 	0
2 	1.3793 	1.11022e-16 	1.28686 	0.00225358 	0
2 	1.46266 	1.11022e-16 	1.27532 	-0.0059715 	0
2 	1.55011 	1.11022e-16 	1.26315 	-0.0123372 	0
2 	1.64184 	1.11022e-16 	1.25074 	-0.0171111 	0
2 	1.73806 	1.11022e-16 	1.23825 	-0.0205398 	0
2 	1.83899 	1.11022e-16 	1.22581 	-0.0228313 	0
2 	1.94486 	8.32667e-17 	1.21354 	-0.024153 	0
2 	2.05592 	5.55112e-17 	1.2016 	-0.0246456 	0
2 	2.17241 	5.55112e-17 	1.19007 	-0.0244342 	0
2 	2.29461 	5.55112e-17 	1.17903 	-0.0236372 	0
2 	2.42279 	8.32667e-17 	1.16855 	-0.0223673 	0
2 	2.55725 	1.11022e-16 	1.15869 	-0.020726 	0
2 	2.69829 	8.32667e-17 	1.14952 	-0.0188025 	0
2 	2.84624 	5.55112e-17 	1.14111 	-0.0166684 	0
2 	3.00143 	5.55112e-17 	1.13357 	-0.0143772 	0
2 	3.16423 	2.77556e-17 	1.12697 	-0.0119686 	0
2 	3.33499 	0 	1.12142 	-0.00946457 	0
2 	3.51411 	0 	1.11702 	-0.00687504 	0
2 	3.702 	0 	1.11391 	-0.00420112 	0
2 	3.8991 	-1.38778e-17 	1.11226 	-0.00141659 	0
