/*--------------------------------*- C++ -*----------------------------------*\
  =========                 |
  \\      /  F ield         | OpenFOAM: The Open Source CFD Toolbox
   \\    /   O peration     | Website:  https://openfoam.org
    \\  /    A nd           | Version:  7
     \\/     M anipulation  |
\*---------------------------------------------------------------------------*/
FoamFile
{
    version     2.0;
    format      ascii;
    class       volScalarField;
    location    "270";
    object      p;
}
// * * * * * * * * * * * * * * * * * * * * * * * * * * * * * * * * * * * * * //

dimensions      [0 2 -2 0 0 0 0];

internalField   nonuniform List<scalar> 
8500
(
-0.418676
-0.421789
-0.423212
-0.424934
-0.427304
-0.430362
-0.434036
-0.43815
-0.442355
-0.446587
-0.428617
-0.431529
-0.433124
-0.435308
-0.43846
-0.442644
-0.447797
-0.453752
-0.460174
-0.466922
-0.438756
-0.44137
-0.443099
-0.445713
-0.449613
-0.454879
-0.461449
-0.469163
-0.477783
-0.486605
-0.448958
-0.451179
-0.452994
-0.455986
-0.460571
-0.466842
-0.474724
-0.484031
-0.494479
-0.505083
-0.459078
-0.460816
-0.462658
-0.465958
-0.471141
-0.478306
-0.487356
-0.498048
-0.510075
-0.521886
-0.468963
-0.470144
-0.471946
-0.475464
-0.481131
-0.489053
-0.499096
-0.510925
-0.524269
-0.53657
-0.47847
-0.479033
-0.480721
-0.484353
-0.490368
-0.498882
-0.509723
-0.522401
-0.536865
-0.548762
-0.487463
-0.48737
-0.488873
-0.492494
-0.4987
-0.507618
-0.519046
-0.532288
-0.54764
-0.558917
-0.495833
-0.495073
-0.496308
-0.49979
-0.506013
-0.515129
-0.526906
-0.540474
-0.556442
-0.566467
-0.503497
-0.502085
-0.502974
-0.506178
-0.512234
-0.521326
-0.533215
-0.546823
-0.563308
-0.571377
-0.510405
-0.508382
-0.508854
-0.511641
-0.517337
-0.526177
-0.537946
-0.551289
-0.568242
-0.573718
-0.516549
-0.513978
-0.513971
-0.516207
-0.521352
-0.529713
-0.541132
-0.553924
-0.571241
-0.573655
-0.521957
-0.51892
-0.518385
-0.519949
-0.524369
-0.532033
-0.54287
-0.554807
-0.572351
-0.571464
-0.5267
-0.523289
-0.52219
-0.522983
-0.526527
-0.533306
-0.543346
-0.554284
-0.571653
-0.567546
-0.530887
-0.527192
-0.52551
-0.525461
-0.528015
-0.533761
-0.542795
-0.552636
-0.569245
-0.562385
-0.534659
-0.530761
-0.528493
-0.527563
-0.529057
-0.533674
-0.541516
-0.550245
-0.565259
-0.5564
-0.538187
-0.534147
-0.531299
-0.529482
-0.529895
-0.533334
-0.539825
-0.547457
-0.559853
-0.54971
-0.541662
-0.537508
-0.534099
-0.531419
-0.530771
-0.533028
-0.538037
-0.544513
-0.553146
-0.542115
-0.545285
-0.541009
-0.537063
-0.533565
-0.53189
-0.53299
-0.536423
-0.541504
-0.545227
-0.533803
-0.54925
-0.544809
-0.540349
-0.536094
-0.533464
-0.533391
-0.535173
-0.538389
-0.536546
-0.526524
-0.55374
-0.549053
-0.544096
-0.539144
-0.535611
-0.534328
-0.534349
-0.535093
-0.528438
-0.521513
-0.558905
-0.553861
-0.548416
-0.542813
-0.538401
-0.535825
-0.533904
-0.531651
-0.521435
-0.510491
-0.564862
-0.559327
-0.553385
-0.547155
-0.541847
-0.537839
-0.533727
-0.528183
-0.514404
-0.498721
-0.571687
-0.565513
-0.559051
-0.552185
-0.545911
-0.540289
-0.533717
-0.524632
-0.507343
-0.487631
-0.579418
-0.572454
-0.565435
-0.557888
-0.55052
-0.543064
-0.533753
-0.520953
-0.500303
-0.477022
-0.588063
-0.580164
-0.572536
-0.564224
-0.555587
-0.546044
-0.533708
-0.517116
-0.493255
-0.467087
-0.597601
-0.588638
-0.58034
-0.571139
-0.561016
-0.549093
-0.533463
-0.513082
-0.48624
-0.457636
-0.607991
-0.597857
-0.588818
-0.578568
-0.566703
-0.552066
-0.532909
-0.508824
-0.479243
-0.448602
-0.619173
-0.607788
-0.597926
-0.586431
-0.57252
-0.55481
-0.531956
-0.504309
-0.472247
-0.439857
-0.631068
-0.618377
-0.607596
-0.594629
-0.578315
-0.557174
-0.530526
-0.499501
-0.465206
-0.431294
-0.643571
-0.629547
-0.617731
-0.603029
-0.583906
-0.559011
-0.528548
-0.494357
-0.458061
-0.422801
-0.65655
-0.641185
-0.6282
-0.611459
-0.589089
-0.560184
-0.525953
-0.488824
-0.450739
-0.41427
-0.669839
-0.653144
-0.638833
-0.619701
-0.593653
-0.560561
-0.522669
-0.482838
-0.443159
-0.405599
-0.683233
-0.665233
-0.649417
-0.627501
-0.59738
-0.560016
-0.518623
-0.476327
-0.435233
-0.396685
-0.69649
-0.677221
-0.659694
-0.634573
-0.60006
-0.558428
-0.513733
-0.469214
-0.42687
-0.387435
-0.70933
-0.688836
-0.669366
-0.64062
-0.60149
-0.555677
-0.507915
-0.461412
-0.417981
-0.37776
-0.721439
-0.699774
-0.678102
-0.645343
-0.601475
-0.551648
-0.501081
-0.452837
-0.408473
-0.367574
-0.732474
-0.709697
-0.685547
-0.648451
-0.599836
-0.546229
-0.493142
-0.443399
-0.398261
-0.356805
-0.742073
-0.718249
-0.691339
-0.649668
-0.596406
-0.539312
-0.484011
-0.433014
-0.387264
-0.345388
-0.749863
-0.725059
-0.695119
-0.648745
-0.591037
-0.530798
-0.473602
-0.421602
-0.375411
-0.333278
-0.755471
-0.729752
-0.696549
-0.645454
-0.583593
-0.520594
-0.461834
-0.409089
-0.362645
-0.320439
-0.758531
-0.731963
-0.695322
-0.639603
-0.573963
-0.508615
-0.448633
-0.395403
-0.348915
-0.306843
-0.758698
-0.731345
-0.691167
-0.631031
-0.56205
-0.494793
-0.433932
-0.380479
-0.33416
-0.292426
-0.755656
-0.727584
-0.683859
-0.619613
-0.547786
-0.479072
-0.417682
-0.364267
-0.318304
-0.277021
-0.749127
-0.720404
-0.67322
-0.605262
-0.53112
-0.461416
-0.399853
-0.346745
-0.301292
-0.260359
-0.738877
-0.709586
-0.659114
-0.587923
-0.512028
-0.441802
-0.380423
-0.327912
-0.28318
-0.242372
-0.724723
-0.694962
-0.641455
-0.567576
-0.490507
-0.420221
-0.359376
-0.307766
-0.264046
-0.223746
-0.706536
-0.676424
-0.620205
-0.544234
-0.466579
-0.396687
-0.336737
-0.286343
-0.243635
-0.204611
-0.684244
-0.653918
-0.595375
-0.517945
-0.440292
-0.371242
-0.312591
-0.263675
-0.222101
-0.184718
-0.657834
-0.627451
-0.567026
-0.488799
-0.411709
-0.343973
-0.286982
-0.239742
-0.199571
-0.164008
-0.627344
-0.597091
-0.535288
-0.456931
-0.380897
-0.314955
-0.259934
-0.214621
-0.176107
-0.142516
-0.59287
-0.562968
-0.500359
-0.422434
-0.347956
-0.284251
-0.231534
-0.188395
-0.151769
-0.120323
-0.554565
-0.525286
-0.46241
-0.385229
-0.31314
-0.252001
-0.201885
-0.161158
-0.126633
-0.0975378
-0.51264
-0.484307
-0.421372
-0.345756
-0.276509
-0.218338
-0.171106
-0.133008
-0.10079
-0.0742792
-0.467335
-0.44029
-0.377155
-0.304446
-0.238295
-0.183415
-0.139329
-0.104052
-0.0743301
-0.0506366
-0.418873
-0.393221
-0.330719
-0.261302
-0.198697
-0.147403
-0.106697
-0.0744007
-0.0473404
-0.0266975
-0.367542
-0.343269
-0.282689
-0.216603
-0.157911
-0.110477
-0.0733481
-0.0441518
-0.0199675
-0.00283247
-0.313794
-0.291054
-0.233082
-0.170636
-0.116154
-0.0728114
-0.0393937
-0.013377
0.00749366
0.0200074
-0.258046
-0.236961
-0.182095
-0.123681
-0.0736627
-0.0345854
-0.00493676
0.0178267
0.0346761
0.0411372
-0.200631
-0.181453
-0.130041
-0.0760196
-0.0306823
0.00400841
0.0298551
0.0491896
0.0614479
0.0626396
-0.141984
-0.124954
-0.0772813
-0.0279484
0.0125358
0.0427537
0.0647063
0.0802499
0.0877961
0.0901912
-0.0825561
-0.0678747
-0.0241874
0.0202292
0.0557368
0.0814161
0.0993307
0.110883
0.114774
0.117878
-0.0228027
-0.0106325
0.0288653
0.0682041
0.0986601
0.119759
0.133556
0.141202
0.142046
0.144143
0.0368199
0.046353
0.081505
0.115666
0.141041
0.157548
0.167208
0.171084
0.169109
0.169329
0.0958567
0.102663
0.133365
0.162306
0.182617
0.194559
0.20012
0.200349
0.195573
0.193422
0.153858
0.157884
0.184084
0.207822
0.22313
0.230575
0.232115
0.228809
0.221238
0.216487
0.210385
0.211611
0.233315
0.251918
0.262329
0.265384
0.263013
0.256285
0.245946
0.238503
0.265009
0.263454
0.280718
0.294309
0.299971
0.298782
0.292635
0.282615
0.269574
0.259426
0.31732
0.313035
0.32597
0.334721
0.335826
0.330569
0.320814
0.30765
0.292004
0.279191
0.366928
0.359999
0.368766
0.372896
0.369672
0.360559
0.347386
0.331251
0.313127
0.297726
0.413464
0.40401
0.408817
0.408589
0.401303
0.388576
0.372201
0.353289
0.332837
0.31496
0.456586
0.444756
0.445855
0.441575
0.430525
0.414453
0.39512
0.373645
0.351034
0.330823
0.495979
0.481953
0.479638
0.471646
0.457161
0.438041
0.416012
0.392208
0.367628
0.345252
0.531359
0.515343
0.509943
0.498616
0.481053
0.459203
0.434763
0.408879
0.382533
0.358188
0.562474
0.544697
0.536576
0.522317
0.502057
0.477818
0.451269
0.423568
0.395675
0.369581
0.589106
0.569819
0.559367
0.542608
0.520053
0.493782
0.46544
0.436198
0.406989
0.379387
0.611072
0.590545
0.578176
0.559368
0.534938
0.507008
0.477203
0.446704
0.41642
0.387572
0.628226
0.606742
0.592889
0.572502
0.54663
0.517424
0.486496
0.455035
0.423925
0.394108
0.640461
0.618313
0.603424
0.581939
0.555067
0.524981
0.493277
0.461152
0.429472
0.398975
0.647706
0.625196
0.609727
0.587633
0.560212
0.529643
0.497516
0.465029
0.433039
0.402163
0.649932
0.627363
0.611773
0.589564
0.562047
0.531397
0.4992
0.466654
0.434618
0.403665
0.647145
0.624822
0.60957
0.587738
0.560576
0.530246
0.498332
0.466031
0.434208
0.403484
0.639393
0.617615
0.603155
0.582186
0.555827
0.526213
0.494932
0.463176
0.431824
0.401625
0.626762
0.60582
0.592594
0.572964
0.547846
0.519338
0.489034
0.458118
0.427492
0.398108
0.609375
0.58955
0.577983
0.560155
0.536705
0.509681
0.480689
0.450902
0.421247
0.392957
0.587395
0.568951
0.559448
0.543864
0.522493
0.497319
0.469961
0.441582
0.413135
0.3862
0.561018
0.544201
0.537141
0.524221
0.505321
0.482346
0.456933
0.43023
0.403216
0.377876
0.530476
0.51551
0.511244
0.50138
0.48532
0.464874
0.441697
0.416926
0.391558
0.368032
0.496036
0.48312
0.481964
0.475514
0.462638
0.445029
0.424363
0.401762
0.378237
0.356719
0.457993
0.4473
0.44953
0.446822
0.437444
0.422954
0.405051
0.384844
0.363341
0.343998
0.416675
0.408348
0.414199
0.415517
0.409921
0.398805
0.383895
0.366285
0.346966
0.329936
0.372433
0.366584
0.376246
0.381835
0.380267
0.372752
0.361037
0.346207
0.329213
0.314604
0.325645
0.322354
0.335966
0.346024
0.348695
0.344976
0.336634
0.324743
0.310192
0.298077
0.276708
0.276021
0.293675
0.308351
0.31543
0.315668
0.310848
0.302033
0.290015
0.280431
0.226039
0.227968
0.2497
0.269093
0.280708
0.285028
0.283852
0.278227
0.268804
0.26174
0.174068
0.17859
0.204385
0.228539
0.244775
0.253266
0.255823
0.253487
0.246685
0.242061
0.121237
0.128294
0.158081
0.186988
0.207882
0.220593
0.226944
0.227988
0.223813
0.221438
0.0679928
0.0774951
0.11115
0.144743
0.170288
0.187228
0.197394
0.201911
0.200378
0.19984
0.0147879
0.0266082
0.0639602
0.102112
0.132254
0.153393
0.167343
0.175435
0.176721
0.17728
-0.0379281
-0.0239524
0.0168802
0.0594042
0.0940417
0.119319
0.136965
0.148683
0.153275
0.15345
-0.0897083
-0.073779
-0.0297188
0.0169239
0.0559089
0.085236
0.106434
0.121593
0.130383
0.129729
-0.140108
-0.122468
-0.075472
-0.0250313
0.0181061
0.0513709
0.0760138
0.0942894
0.107149
0.111062
-0.188716
-0.169586
-0.120039
-0.0661744
-0.019121
0.0179333
0.045955
0.0671664
0.0835905
0.0926968
-0.235354
-0.214612
-0.163154
-0.106229
-0.0555331
-0.0148888
0.0164188
0.0404631
0.0598176
0.0729435
-0.279398
-0.257293
-0.204698
-0.144918
-0.0909039
-0.0469204
-0.0124851
0.0142859
0.0361657
0.0523674
-0.320521
-0.29701
-0.244481
-0.181969
-0.125026
-0.0779903
-0.04064
-0.0112802
0.0129117
0.0317731
-0.358527
-0.333925
-0.281497
-0.217216
-0.157703
-0.107929
-0.0679109
-0.0361359
-0.00980355
0.0114928
-0.393191
-0.367795
-0.315503
-0.250447
-0.188724
-0.136578
-0.0941615
-0.0601748
-0.0318947
-0.00838361
-0.424296
-0.398353
-0.346647
-0.281182
-0.217998
-0.163796
-0.119267
-0.0832955
-0.053279
-0.0277701
-0.451682
-0.425399
-0.374806
-0.309434
-0.245275
-0.189442
-0.143119
-0.105403
-0.0738754
-0.0465566
-0.475252
-0.448803
-0.399787
-0.335108
-0.270448
-0.213433
-0.165625
-0.126408
-0.0936154
-0.0646457
-0.494966
-0.468497
-0.421458
-0.358079
-0.293446
-0.235698
-0.186738
-0.146229
-0.112431
-0.0819861
-0.510838
-0.484479
-0.439759
-0.378257
-0.314198
-0.256146
-0.206419
-0.164856
-0.130207
-0.0986178
-0.522938
-0.496804
-0.454684
-0.395595
-0.332655
-0.274728
-0.22458
-0.182261
-0.146787
-0.114755
-0.531397
-0.505586
-0.466278
-0.410082
-0.348791
-0.291424
-0.241189
-0.198404
-0.162372
-0.13032
-0.536398
-0.510997
-0.474635
-0.421741
-0.362608
-0.306235
-0.256252
-0.213276
-0.176877
-0.144611
-0.538175
-0.513264
-0.479896
-0.430634
-0.374131
-0.319179
-0.269779
-0.226866
-0.190245
-0.157673
-0.537005
-0.512665
-0.48225
-0.436857
-0.383411
-0.330288
-0.281794
-0.239186
-0.20252
-0.169751
-0.533203
-0.509517
-0.481935
-0.440549
-0.390525
-0.339615
-0.292336
-0.250273
-0.213761
-0.180991
-0.527111
-0.504166
-0.479235
-0.441885
-0.395573
-0.347228
-0.301463
-0.260181
-0.224013
-0.19143
-0.519086
-0.496971
-0.474467
-0.441074
-0.398681
-0.353211
-0.309242
-0.268965
-0.233309
-0.20108
-0.509497
-0.488301
-0.467977
-0.438361
-0.399994
-0.357659
-0.315747
-0.276685
-0.241689
-0.209957
-0.498706
-0.478514
-0.460127
-0.434016
-0.399681
-0.360679
-0.321056
-0.283405
-0.249204
-0.21809
-0.487062
-0.467955
-0.451275
-0.428331
-0.397929
-0.362389
-0.325253
-0.289193
-0.255909
-0.225514
-0.474893
-0.456943
-0.441767
-0.421616
-0.394943
-0.362915
-0.328424
-0.294119
-0.261863
-0.232268
-0.462495
-0.445763
-0.431918
-0.41418
-0.390942
-0.362389
-0.330656
-0.29825
-0.267122
-0.238394
-0.450126
-0.434665
-0.422006
-0.406328
-0.386159
-0.360954
-0.332036
-0.301648
-0.271741
-0.243935
-0.438008
-0.423854
-0.412266
-0.398337
-0.380831
-0.35876
-0.33265
-0.304373
-0.275768
-0.248931
-0.426315
-0.413494
-0.402886
-0.390448
-0.375194
-0.355961
-0.332584
-0.306473
-0.279244
-0.253418
-0.415184
-0.403703
-0.394009
-0.382853
-0.36947
-0.352719
-0.331922
-0.307992
-0.282196
-0.257429
-0.404706
-0.394561
-0.385736
-0.375691
-0.363851
-0.349196
-0.330752
-0.308966
-0.28464
-0.260986
-0.394938
-0.386108
-0.378125
-0.369054
-0.358487
-0.345545
-0.329163
-0.309425
-0.286576
-0.264107
-0.385899
-0.378352
-0.371194
-0.362991
-0.353477
-0.341903
-0.327247
-0.309397
-0.28799
-0.266803
-0.377587
-0.37128
-0.364929
-0.35751
-0.348869
-0.338373
-0.325095
-0.308917
-0.288852
-0.269078
-0.369979
-0.36486
-0.359293
-0.35259
-0.344669
-0.335013
-0.32279
-0.308027
-0.289124
-0.27094
-0.363048
-0.359055
-0.354235
-0.348186
-0.34086
-0.331847
-0.3204
-0.306782
-0.288777
-0.272374
-0.356771
-0.35383
-0.349705
-0.344246
-0.337406
-0.328871
-0.317966
-0.305246
-0.28778
-0.27343
-0.351138
-0.349163
-0.345665
-0.340723
-0.334276
-0.326075
-0.315515
-0.303484
-0.286189
-0.273918
-0.346137
-0.345063
-0.3421
-0.337595
-0.331455
-0.323465
-0.313085
-0.301567
-0.284014
-0.274023
-0.341817
-0.341528
-0.33902
-0.334868
-0.328962
-0.321073
-0.310758
-0.299485
-0.281535
-0.272164
-0.338212
-0.338589
-0.336461
-0.332583
-0.326853
-0.318975
-0.308661
-0.297223
-0.279995
-0.257277
-0.335366
-0.336294
-0.33447
-0.330797
-0.325087
-0.317277
-0.306931
-0.294958
-0.279299
-0.250921
-0.333322
-0.334683
-0.333105
-0.329603
-0.323994
-0.316135
-0.30573
-0.293177
-0.279069
-0.249243
-0.33211
-0.333795
-0.332417
-0.329066
-0.323545
-0.315671
-0.30522
-0.292207
-0.278938
-0.248899
-0.331742
-0.333652
-0.332441
-0.32924
-0.323826
-0.315993
-0.305543
-0.292245
-0.27914
-0.24985
-0.332209
-0.334264
-0.333198
-0.330153
-0.324888
-0.317172
-0.306826
-0.293431
-0.280187
-0.252495
-0.333485
-0.335625
-0.334688
-0.331815
-0.326749
-0.319241
-0.309141
-0.295835
-0.282491
-0.256773
-0.335531
-0.337718
-0.336901
-0.334217
-0.329401
-0.322188
-0.312385
-0.29956
-0.286244
-0.262432
-0.3383
-0.340521
-0.339819
-0.337341
-0.332822
-0.325996
-0.316648
-0.304414
-0.291425
-0.269264
-0.34175
-0.34401
-0.343436
-0.341166
-0.336985
-0.330626
-0.321861
-0.310414
-0.297859
-0.27716
-0.345841
-0.348159
-0.347705
-0.345671
-0.341866
-0.336039
-0.327948
-0.317375
-0.305549
-0.286143
-0.350545
-0.352948
-0.352626
-0.350844
-0.347452
-0.342215
-0.334885
-0.325274
-0.314073
-0.296566
-0.355846
-0.358363
-0.358187
-0.356677
-0.353736
-0.349151
-0.342675
-0.334144
-0.32382
-0.308404
-0.361734
-0.364391
-0.364376
-0.363165
-0.360719
-0.356851
-0.351327
-0.343985
-0.334745
-0.321432
-0.368207
-0.371018
-0.371182
-0.370301
-0.368399
-0.365319
-0.360845
-0.354802
-0.34687
-0.335714
-0.375264
-0.378229
-0.378589
-0.378072
-0.376768
-0.37455
-0.371226
-0.366602
-0.360223
-0.351344
-0.3829
-0.386001
-0.386571
-0.386454
-0.385801
-0.384522
-0.382449
-0.379373
-0.374791
-0.368346
-0.3911
-0.394301
-0.395089
-0.395404
-0.395455
-0.395188
-0.394459
-0.393055
-0.390492
-0.386631
-0.399833
-0.40308
-0.404089
-0.404861
-0.40566
-0.406467
-0.407161
-0.407535
-0.407162
-0.405993
-0.409049
-0.412271
-0.413495
-0.414741
-0.416319
-0.418242
-0.420415
-0.422635
-0.424557
-0.426116
-0.453167
-0.448511
-0.431212
-0.399566
-0.381941
-0.391184
-0.414302
-0.399296
-0.330635
-0.246883
-0.184834
-0.150842
-0.141098
-0.155854
-0.178573
-0.173343
-0.133862
-0.100797
-0.0835713
-0.0695831
-0.0691017
-0.0676846
-0.076237
-0.0829337
-0.0728177
-0.0378668
-0.0443978
-0.0572117
-0.0479985
0.0044264
-0.476993
-0.473182
-0.452655
-0.4113
-0.379146
-0.374297
-0.387924
-0.373115
-0.310527
-0.23434
-0.179836
-0.151252
-0.145729
-0.164029
-0.188764
-0.182536
-0.138936
-0.102261
-0.0831332
-0.0682981
-0.0667293
-0.0646935
-0.0741373
-0.0821213
-0.0722903
-0.0375488
-0.0445119
-0.0569712
-0.0480471
0.00404709
-0.500268
-0.497181
-0.473635
-0.422659
-0.375885
-0.356483
-0.360103
-0.345169
-0.288764
-0.220544
-0.17413
-0.151147
-0.150025
-0.171837
-0.198498
-0.191137
-0.143699
-0.103585
-0.0826708
-0.0671107
-0.064524
-0.0618475
-0.0720285
-0.0812603
-0.0717337
-0.0372461
-0.04463
-0.056749
-0.0480958
0.00366102
-0.522289
-0.519776
-0.493503
-0.433267
-0.372252
-0.338199
-0.331396
-0.315223
-0.265548
-0.205545
-0.167661
-0.150431
-0.153867
-0.17918
-0.207653
-0.199087
-0.148136
-0.104774
-0.0821896
-0.0660159
-0.0624928
-0.0591644
-0.0699253
-0.0803553
-0.0711527
-0.0369611
-0.0447503
-0.0565442
-0.0481408
0.00327029
-0.5424
-0.54029
-0.511666
-0.442768
-0.368287
-0.319821
-0.302653
-0.28373
-0.241131
-0.189416
-0.160376
-0.149018
-0.15714
-0.185973
-0.216133
-0.206342
-0.152235
-0.105837
-0.0816945
-0.0650066
-0.0606403
-0.05666
-0.0678439
-0.0794111
-0.0705519
-0.0366959
-0.0448708
-0.0563558
-0.0481782
0.00287704
-0.560097
-0.558136
-0.527631
-0.450878
-0.363997
-0.301706
-0.274391
-0.251758
-0.215771
-0.172273
-0.152234
-0.146828
-0.15974
-0.192143
-0.223856
-0.21287
-0.155986
-0.10678
-0.08119
-0.0640736
-0.058968
-0.0543482
-0.0658006
-0.0784329
-0.069935
-0.0364521
-0.0449892
-0.0561829
-0.0482042
0.0024835
-0.575036
-0.572932
-0.541066
-0.457373
-0.359396
-0.284245
-0.247197
-0.220191
-0.189702
-0.154289
-0.143205
-0.143789
-0.161573
-0.197631
-0.230761
-0.21865
-0.159381
-0.10761
-0.0806803
-0.0632063
-0.0574746
-0.05224
-0.0638119
-0.0774259
-0.0693051
-0.0362311
-0.0451029
-0.0560242
-0.0482149
0.00209197
-0.586239
-0.5849
-0.551827
-0.46221
-0.354526
-0.267861
-0.221442
-0.189741
-0.163196
-0.135692
-0.133272
-0.139836
-0.162562
-0.202387
-0.236804
-0.223671
-0.162412
-0.108337
-0.080169
-0.0623937
-0.0561552
-0.0503432
-0.0618934
-0.0763953
-0.0686646
-0.0360336
-0.0452092
-0.0558784
-0.0482066
0.00170481
-0.594525
-0.593703
-0.559291
-0.466056
-0.349432
-0.253025
-0.197408
-0.161073
-0.136482
-0.116742
-0.122423
-0.134912
-0.162641
-0.206365
-0.24196
-0.22793
-0.165075
-0.108968
-0.0796595
-0.0616246
-0.0550009
-0.0486623
-0.0600588
-0.0753464
-0.068015
-0.0358606
-0.0453054
-0.0557443
-0.0481753
0.00132445
-0.59999
-0.599431
-0.564029
-0.467888
-0.344888
-0.240071
-0.175406
-0.134714
-0.109927
-0.0976931
-0.110656
-0.128965
-0.161758
-0.209527
-0.246222
-0.231433
-0.167366
-0.109509
-0.0791543
-0.0608883
-0.0539992
-0.0471975
-0.0583192
-0.0742846
-0.0673572
-0.0357122
-0.0453884
-0.0556202
-0.0481175
0.000953359
-0.602675
-0.602172
-0.566213
-0.46847
-0.340991
-0.228551
-0.155829
-0.111013
-0.0962206
-0.0788056
-0.09797
-0.121945
-0.159876
-0.211843
-0.249588
-0.234191
-0.169282
-0.109969
-0.0786561
-0.0601758
-0.0531339
-0.0459458
-0.0566821
-0.0732147
-0.0666911
-0.0355888
-0.0454551
-0.0555044
-0.0480292
0.000594044
-0.602702
-0.602076
-0.56603
-0.467854
-0.337543
-0.21914
-0.138753
-0.0899196
-0.0716095
-0.060007
-0.0843674
-0.113804
-0.156968
-0.213288
-0.252059
-0.236213
-0.170823
-0.110353
-0.0781681
-0.0594797
-0.0523854
-0.0449004
-0.0551507
-0.0721414
-0.066016
-0.0354902
-0.0455023
-0.0553951
-0.0479068
0.000249015
-0.600238
-0.599361
-0.563609
-0.466192
-0.334746
-0.211816
-0.124616
-0.0717782
-0.0495877
-0.041548
-0.0698436
-0.104493
-0.153017
-0.213851
-0.253635
-0.237516
-0.171991
-0.110669
-0.0776937
-0.0587948
-0.051731
-0.0440524
-0.0537239
-0.0710688
-0.0653302
-0.0354164
-0.045527
-0.0552901
-0.0477466
-7.91858e-05
-0.595508
-0.594285
-0.559113
-0.463622
-0.332722
-0.206843
-0.113962
-0.0561628
-0.0305889
-0.0236238
-0.0544059
-0.0939625
-0.148012
-0.213518
-0.25432
-0.238119
-0.172784
-0.110916
-0.0772309
-0.0581162
-0.0511436
-0.0433879
-0.0523962
-0.0700002
-0.0646312
-0.035367
-0.0455258
-0.0551872
-0.0475451
-0.000387935
-0.588872
-0.587095
-0.552733
-0.460245
-0.331484
-0.204166
-0.10646
-0.0434264
-0.0144156
-0.00653416
-0.0380846
-0.0821642
-0.141951
-0.21229
-0.254128
-0.238036
-0.173186
-0.111076
-0.0767666
-0.0574377
-0.0505958
-0.0428851
-0.0511574
-0.0689381
-0.0639159
-0.0353416
-0.0454958
-0.0550843
-0.0473
-0.000674636
-0.580724
-0.578051
-0.544631
-0.456048
-0.33081
-0.203425
-0.101815
-0.0334968
-0.000741237
0.00940755
-0.0209688
-0.069057
-0.134834
-0.210177
-0.253068
-0.237289
-0.173186
-0.111134
-0.0762956
-0.0567585
-0.0500693
-0.0425257
-0.0499913
-0.0678824
-0.0631801
-0.0353397
-0.0454341
-0.0549797
-0.0470083
-0.00093735
-0.571365
-0.567468
-0.535039
-0.451041
-0.330453
-0.204258
-0.099726
-0.026335
0.0106446
0.0238556
-0.00326077
-0.054614
-0.126668
-0.20719
-0.251166
-0.23592
-0.17287
-0.111181
-0.0758875
-0.0561027
-0.0495618
-0.0423386
-0.0488869
-0.0668322
-0.0624186
-0.0353606
-0.0453377
-0.0548687
-0.0466629
-0.0011755
-0.561271
-0.555883
-0.524661
-0.446114
-0.331395
-0.207587
-0.100951
-0.0226285
0.0193483
0.0365425
0.0145897
-0.038857
-0.117444
-0.203335
-0.248305
-0.233887
-0.172413
-0.111435
-0.0756806
-0.0555133
-0.049059
-0.0423975
-0.0478706
-0.0658073
-0.0616252
-0.0354021
-0.0451975
-0.0547335
-0.0462518
-0.00138768
-0.551059
-0.54358
-0.513844
-0.44196
-0.334592
-0.214273
-0.106158
-0.0227704
0.0251057
0.0471157
0.0317632
-0.0218426
-0.107233
-0.198546
-0.244018
-0.230928
-0.171605
-0.11169
-0.0755099
-0.0549312
-0.0484657
-0.0425699
-0.0469599
-0.0648435
-0.0607976
-0.0354583
-0.045001
-0.0545482
-0.0457804
-0.00156267
-0.539905
-0.529098
-0.49902
-0.432128
-0.33146
-0.215534
-0.107932
-0.0212167
0.0316706
0.0572977
0.0485635
-0.00427789
-0.0959827
-0.193079
-0.239675
-0.227299
-0.169158
-0.110424
-0.0743778
-0.0540461
-0.0476184
-0.0421355
-0.0457685
-0.0636548
-0.0599317
-0.0355686
-0.0448413
-0.0544584
-0.0453188
-0.00167381
-0.521409
-0.511512
-0.477898
-0.410989
-0.313568
-0.20205
-0.0975274
-0.0112376
0.0441487
0.074645
0.0744013
0.0220234
-0.0826626
-0.19331
-0.242611
-0.224689
-0.164633
-0.106705
-0.0715905
-0.0525943
-0.0464229
-0.0402552
-0.0427007
-0.0606823
-0.0583223
-0.0361086
-0.0450864
-0.0548193
-0.0448976
-0.00175364
-0.49384
-0.481469
-0.443618
-0.379267
-0.289392
-0.186198
-0.0877725
-0.00394653
0.0525369
0.0874982
0.0944722
0.0442103
-0.0688751
-0.187878
-0.236045
-0.214667
-0.156395
-0.101679
-0.0684507
-0.0504013
-0.0447832
-0.0394328
-0.0430169
-0.0583516
-0.0572994
-0.036248
-0.0448489
-0.0540714
-0.0440622
-0.00190022
-0.464388
-0.449529
-0.409387
-0.348806
-0.267046
-0.172267
-0.0801162
0.000725636
0.0577188
0.0970711
0.109533
0.0594931
-0.0585578
-0.180783
-0.226702
-0.202628
-0.147323
-0.0963407
-0.065099
-0.0480172
-0.043074
-0.038715
-0.0431754
-0.056327
-0.0564054
-0.0360537
-0.0443602
-0.0532147
-0.0430225
-0.00204972
-0.433881
-0.417457
-0.376603
-0.31995
-0.246013
-0.159585
-0.0740228
0.00309331
0.059756
0.102636
0.120143
0.0707354
-0.0496069
-0.172271
-0.214282
-0.188801
-0.137166
-0.0905132
-0.061522
-0.0454385
-0.0412039
-0.0380541
-0.0431604
-0.0540971
-0.0552586
-0.0358355
-0.043806
-0.052219
-0.0417114
-0.00218496
-0.402521
-0.385912
-0.345677
-0.292978
-0.226431
-0.148158
-0.0692885
0.00347285
0.0588304
0.10331
0.125047
0.0776851
-0.0411382
-0.161144
-0.19859
-0.173313
-0.126127
-0.0842624
-0.0577346
-0.0426565
-0.039139
-0.0373909
-0.0430819
-0.0516126
-0.0538506
-0.0357137
-0.0431773
-0.0509801
-0.0401065
-0.00229706
-0.371216
-0.355436
-0.316862
-0.268104
-0.208367
-0.137888
-0.0656667
0.00229009
0.0555129
0.0997735
0.123775
0.0798046
-0.0329954
-0.146617
-0.179937
-0.156567
-0.114466
-0.0776443
-0.0537454
-0.0396629
-0.0368403
-0.0366631
-0.0429338
-0.0489051
-0.0522254
-0.0356652
-0.0424163
-0.0494535
-0.0381802
-0.00237283
-0.34082
-0.326364
-0.290201
-0.245339
-0.191787
-0.12864
-0.0629209
-4.14546e-05
0.0504288
0.0928028
0.117113
0.0777628
-0.0249011
-0.128798
-0.159
-0.139084
-0.102488
-0.070741
-0.049565
-0.0364511
-0.0342613
-0.0357919
-0.0426401
-0.0459587
-0.0503389
-0.0356404
-0.0414946
-0.0476046
-0.0359088
-0.00239744
-0.311761
-0.298858
-0.265585
-0.224569
-0.176614
-0.120278
-0.0608402
-0.00316929
0.0440819
0.0834778
0.106687
0.0731163
-0.0165856
-0.108598
-0.136811
-0.121465
-0.0905127
-0.0636478
-0.0452032
-0.0330146
-0.0313471
-0.0346748
-0.0420877
-0.0427198
-0.0480876
-0.0356062
-0.0404008
-0.0454005
-0.0332721
-0.00235448
-0.284286
-0.27299
-0.242854
-0.205624
-0.162746
-0.112679
-0.059246
-0.00679367
0.0369825
0.0728707
0.0942509
0.0672558
-0.00830294
-0.0876416
-0.114653
-0.104319
-0.0788396
-0.0564667
-0.040669
-0.0293475
-0.0280353
-0.0331852
-0.0411331
-0.0391181
-0.0453622
-0.0355257
-0.0391151
-0.0428112
-0.0302557
-0.00222703
-0.258528
-0.24878
-0.221848
-0.188317
-0.150073
-0.105737
-0.0579934
-0.0106725
0.029553
0.0618432
0.0811809
0.0608356
-0.000885298
-0.0678168
-0.0937688
-0.0881605
-0.0677067
-0.0492979
-0.0359708
-0.0254437
-0.0242587
-0.0311693
-0.0395981
-0.035075
-0.0420579
-0.0353374
-0.0376025
-0.0398144
-0.026854
-0.00199912
-0.234519
-0.226209
-0.202422
-0.172474
-0.138483
-0.0993622
-0.0569636
-0.0145978
0.0220695
0.0509653
0.0683176
0.0539517
0.00484149
-0.050551
-0.0750538
-0.0733379
-0.0572737
-0.0422348
-0.031118
-0.0212967
-0.0199523
-0.028438
-0.0372621
-0.0305023
-0.0380593
-0.0349505
-0.0358173
-0.0363999
-0.0230724
-0.00165804
-0.21224
-0.205242
-0.184456
-0.157936
-0.127864
-0.0934747
-0.0560539
-0.0183868
0.0147551
0.04057
0.0560979
0.0466373
0.00851142
-0.0364827
-0.0589429
-0.0600242
-0.047627
-0.0353625
-0.0261239
-0.0169006
-0.0150686
-0.0247651
-0.0338571
-0.0252986
-0.0332411
-0.0342405
-0.033706
-0.0325745
-0.0189303
-0.00119719
-0.191652
-0.185832
-0.167852
-0.144568
-0.118113
-0.088004
-0.0551753
-0.0218991
0.00780241
0.0308595
0.0447671
0.0391176
0.0102753
-0.0255449
-0.0454581
-0.0482596
-0.0388005
-0.0287577
-0.02101
-0.0122548
-0.00959445
-0.0199079
-0.0290747
-0.0193507
-0.027499
-0.0330378
-0.0312078
-0.0283666
-0.0144692
-0.000616034
-0.172699
-0.167924
-0.152522
-0.132258
-0.10913
-0.0828868
-0.054253
-0.0250319
0.00137037
0.0219643
0.0344844
0.0317236
0.0105533
-0.0173027
-0.0344016
-0.0380072
-0.030796
-0.0224865
-0.0158083
-0.00737585
-0.00357217
-0.0136476
-0.0226087
-0.0125466
-0.0207862
-0.0311344
-0.0282598
-0.0238274
-0.00976094
8.03571e-05
-0.155312
-0.15145
-0.138393
-0.120911
-0.10083
-0.0780672
-0.0532301
-0.0277165
-0.00441666
0.0139733
0.025339
0.0247457
0.00978488
-0.0112535
-0.0254943
-0.0291856
-0.0235979
-0.016603
-0.010563
-0.00231046
0.00288089
-0.00584161
-0.0142336
-0.00480745
-0.013162
-0.0283068
-0.0248092
-0.0190302
-0.00491173
0.000879545
-0.139437
-0.136353
-0.125398
-0.110448
-0.0931386
-0.0734987
-0.0520685
-0.0299118
-0.00947267
0.00693641
0.0173518
0.0183819
0.0083301
-0.00769772
-0.01845
-0.0216861
-0.0171799
-0.0111458
-0.00533811
0.00285596
0.00956164
0.00350191
-0.00390138
0.00385274
-0.00484039
-0.0243656
-0.0208264
-0.0140735
-6.18103e-05
0.00176049
-0.124986
-0.122578
-0.113477
-0.100804
-0.085995
-0.0691446
-0.0507463
-0.0316004
-0.0137567
0.000867484
0.0104926
0.0127443
0.00655713
-0.00482896
-0.0128968
-0.0153793
-0.0115092
-0.00613651
-0.000232856
0.00799252
0.0161849
0.0141174
0.00810842
0.0132381
0.00378132
-0.0192333
-0.0163162
-0.00907685
0.00462081
0.00269366
-0.111893
-0.110048
-0.102567
-0.0919241
-0.0793519
-0.0649787
-0.0492573
-0.0327881
-0.0172683
-0.00425052
0.00469789
0.00786738
0.00466842
-0.0029072
-0.00856179
-0.0101296
-0.00654956
-0.00158117
0.00461599
0.0129233
0.022416
0.0252945
0.0210093
0.0228334
0.0121369
-0.0129983
-0.0110903
-0.00417161
0.00894979
0.00364239
-0.100073
-0.0986944
-0.0926164
-0.083766
-0.0731745
-0.0609869
-0.0476125
-0.0334995
-0.0200376
-0.00846092
-0.000116023
0.0037362
0.00281006
-0.00169563
-0.00521715
-0.0058042
-0.00226203
0.00251872
0.00906703
0.0174716
0.027924
0.0357733
0.0333216
0.0317097
0.0196222
-0.00591537
-0.00568829
0.000483541
0.0127323
0.00456375
-0.0894451
-0.0884818
-0.0835871
-0.0762951
-0.0674387
-0.0571668
-0.0458342
-0.0337775
-0.0221208
-0.0118301
-0.00404033
0.000304976
0.00108082
-0.000989803
-0.00266984
-0.00227834
0.00139444
0.0061582
0.0130086
0.0214788
0.0325055
0.0440834
0.043381
0.0388345
0.0258265
0.00160508
-0.000160066
0.00473281
0.0157908
0.00541071
-0.0799429
-0.0793243
-0.0754522
-0.0694852
-0.0621294
-0.0535232
-0.0439572
-0.0336794
-0.0235913
-0.01444
-0.00717055
-0.00249025
-0.000461741
-0.000630596
-0.000755768
0.000562426
0.00446392
0.0093284
0.0163676
0.0248167
0.0359885
0.0493233
0.0502928
0.0437258
0.0306279
0.00895099
0.00518876
0.00844834
0.0180002
0.00613844
-0.0714975
-0.0711508
-0.0681477
-0.0633172
-0.0572396
-0.0500743
-0.0420213
-0.0332685
-0.0245321
-0.0163834
-0.0096053
-0.00471877
-0.00179632
-0.0004992
0.000662236
0.00282122
0.00699577
0.0120225
0.0191198
0.0274274
0.0383028
0.0515172
0.0539741
0.0466147
0.0340771
0.0154605
0.010068
0.0115517
0.0193202
0.00671384
-0.0640513
-0.0639237
-0.0616511
-0.0578286
-0.0528779
-0.0468589
-0.0400626
-0.0326127
-0.0250306
-0.017761
-0.011443
-0.00645267
-0.00289603
-0.00050236
0.00169845
0.00458994
0.00904327
0.0142459
0.0212852
0.0293377
0.039557
0.0515233
0.0551028
0.0479933
0.036303
0.0206991
0.0141804
0.01403
0.0198035
0.00712709
-0.057555
-0.0575996
-0.0559175
-0.0529061
-0.0488665
-0.0438768
-0.0381418
-0.0317584
-0.0251747
-0.0186762
-0.0127835
-0.00776524
-0.00377203
-0.000573177
0.00244474
0.00595126
0.0106612
0.0160221