/*--------------------------------*- C++ -*----------------------------------*\
  =========                 |
  \\      /  F ield         | OpenFOAM: The Open Source CFD Toolbox
   \\    /   O peration     | Website:  https://openfoam.org
    \\  /    A nd           | Version:  7
     \\/     M anipulation  |
\*---------------------------------------------------------------------------*/
FoamFile
{
    version     2.0;
    format      ascii;
    class       surfaceScalarField;
    location    "270";
    object      phi;
}
// * * * * * * * * * * * * * * * * * * * * * * * * * * * * * * * * * * * * * //

dimensions      [0 3 -1 0 0 0 0];

internalField   nonuniform List<scalar> 
16735
(
-0.000129481
0.0019301
-0.00180062
-0.000460376
0.00407038
-0.00373949
-0.000963077
0.00503834
-0.00453564
-0.00161101
0.00513485
-0.00448692
-0.00238281
0.0046591
-0.0038873
-0.00326133
0.00381352
-0.002935
-0.00423264
0.00265555
-0.00168424
-0.00528705
0.00111481
-6.04007e-05
-0.00642439
-0.000958358
0.0020957
-0.00379926
0.00503905
-0.00766418
-0.000114963
0.00204506
-0.00042061
0.00437603
-0.00089607
0.0055138
-0.00151712
0.00575589
-0.00226035
0.00540234
-0.00310443
0.0046576
-0.00403001
0.00358113
-0.00502264
0.00210744
-0.00607453
9.35382e-05
-0.00266984
-0.00720396
-9.58948e-05
0.00214096
-0.000365841
0.00464598
-0.000798812
0.00594677
-0.00137317
0.00633025
-0.00206289
0.00609205
-0.00284093
0.00543565
-0.00368022
0.00442042
-0.00455575
0.00298296
-0.00545047
0.000988256
-0.00175698
-0.00636332
-7.27441e-05
0.0022137
-0.000297079
0.00487031
-0.000672724
0.00632242
-0.00118104
0.00683857
-0.00179316
0.00670417
-0.00247543
0.00611792
-0.00319118
0.00513617
-0.00390156
0.00369334
-0.00457525
0.00166195
-0.00115513
-0.00517711
-4.62889e-05
0.00225999
-0.000216256
0.00504028
-0.000520885
0.00662705
-0.000945044
0.00726273
-0.00145716
0.00721629
-0.0020167
0.00667746
-0.00257642
0.00569589
-0.00308131
0.00419823
-0.00348387
0.00206452
-0.000941754
-0.00369725
-1.75753e-05
0.00227757
-0.000126133
0.00514884
-0.0003479
0.00684882
-0.000671694
0.00758653
-0.00106373
0.00760832
-0.0014768
0.00709053
-0.0018533
0.00607239
-0.00212069
0.00446561
-0.00221675
0.00216059
-0.00117156
-0.00198695
1.21574e-05
0.00226541
-3.01064e-05
0.0051911
-0.000159708
0.00697842
-0.000369463
0.00779628
-0.000624051
0.00786291
-0.000870313
0.00733679
-0.0010416
0.00624367
-0.00104619
0.00447021
-0.000808476
0.00192288
-0.00184456
-0.000135472
4.14837e-05
0.00222393
6.75623e-05
0.00516502
3.66626e-05
0.00700932
-4.84932e-05
0.00788144
-0.000151389
0.00796581
-0.000213676
0.00739908
-0.000162205
0.0061922
9.11712e-05
0.00421683
0.000716407
0.00129764
-0.00300563
0.00187747
6.90175e-05
0.00215491
0.000162844
0.0050712
0.000233398
0.00693876
0.000279907
0.00783493
0.000339567
0.00790615
0.000475452
0.0072632
0.000769925
0.00589773
0.00133524
0.00365151
0.00229082
0.000342062
-0.00469573
0.00398093
9.33703e-05
0.00206154
0.000251362
0.0049132
0.000422378
0.00676775
0.000603483
0.00765382
0.000832861
0.00767677
0.0011783
0.00691776
0.00172844
0.00534758
0.00260567
0.00277428
0.00393798
-0.00099025
-0.00692109
0.00616333
0.000113299
0.00194824
0.000328934
0.00469757
0.000595524
0.00650116
0.000909694
0.00733965
0.00131126
0.0072752
0.00187323
0.0063558
0.00269219
0.00452862
0.00389881
0.00156766
0.00563909
-0.00273053
-0.00970454
0.00842254
0.000127813
0.00182043
0.000392063
0.00443332
0.000745617
0.0061476
0.001187
0.00689827
0.00175889
0.00670331
0.00254084
0.00557384
0.00364032
0.00342914
0.00519526
1.27161e-05
0.00738629
-0.00492155
-0.0130739
0.0107557
0.000136268
0.00168416
0.000438222
0.00413136
0.000867093
0.00571873
0.00142607
0.0063393
0.00216261
0.00596677
0.0031649
0.00457155
0.00455577
0.00203828
0.00648083
-0.00191234
0.00917694
-0.00761766
-0.0170508
0.0131538
0.000138465
0.00154569
0.000466251
0.00380358
0.000956936
0.00522805
0.00162152
0.00567471
0.00251483
0.00507346
0.00373678
0.00334959
0.0054317
0.000343359
0.00775395
-0.00423459
0.0110158
-0.0108796
-0.0216289
0.0155939
0.000134721
0.00141097
0.00047669
0.00346161
0.00101553
0.00468921
0.00177353
0.00491671
0.00281648
0.00403051
0.00425975
0.00190632
0.00627603
-0.00167292
0.00903351
-0.00699206
0.0129142
-0.0147603
-0.0267481
0.0180334
0.00012592
0.00128505
0.000472001
0.00311553
0.00104725
0.00411396
0.00188919
0.00407477
0.00307916
0.00284055
0.00475318
0.000232296
0.00711426
-0.004034
0.0103567
-0.0102345
0.0148782
-0.0192818
-0.0322756
0.0204057
0.00011351
0.00117154
0.000456589
0.00277245
0.00106068
0.00350987
0.00198284
0.0031526
0.0033254
0.00149799
0.00525106
-0.00169337
0.00798875
-0.0067717
0.011766
-0.0140117
0.0168874
-0.0244032
-0.0380134
0.0226253
9.94246e-05
0.00107212
0.000436556
0.00243532
0.00106802
0.00287841
0.0020751
0.00214552
0.00358711
-1.4025e-05
0.005797
-0.00390326
0.00894868
-0.00992337
0.0132873
-0.0183504
0.0188783
-0.0299942
-0.043739
0.0246039
8.59253e-05
0.000986193
0.00041914
0.0021021
0.00108391
0.00221365
0.00219025
0.00103918
0.00389984
-0.00172362
0.00643526
-0.00643868
0.0100344
-0.0135225
0.0149076
-0.0232235
0.0207508
-0.0358374
-0.0492591
0.0262709
7.53501e-05
0.000910843
0.000411886
0.00176557
0.00112352
0.00150201
0.00235295
-0.00019024
0.00429606
-0.00366673
0.00719775
-0.00934037
0.0112592
-0.017584
0.0165634
-0.0285278
0.0224004
-0.0416744
-0.0544659
0.0276072
6.98168e-05
0.000841026
0.000421661
0.00141372
0.0012004
0.00072327
0.00258352
-0.00157337
0.00479873
-0.00588193
0.00809401
-0.0126357
0.0125936
-0.0220836
0.0181579
-0.0340921
0.0238791
-0.0473956
-0.0604827
0.0298959
7.0947e-05
0.000770079
0.000453742
0.00103093
0.00132445
-0.000147438
0.00289488
-0.00314379
0.0054156
-0.00840266
0.00910647
-0.0163265
0.0139662
-0.0269434
0.0195967
-0.0397225
0.0252022
-0.0530011
-0.0657907
0.0305102
7.96902e-05
0.000690389
0.000511219
0.000599399
0.00150074
-0.00113696
0.00329038
-0.00493343
0.00613711
-0.0112494
0.010192
-0.0203814
0.0152841
-0.0320354
0.0208161
-0.0452545
0.0260585
-0.0582435
-0.0702985
0.0305663
9.62868e-05
0.000594102
0.00059482
0.000100866
0.00172917
-0.00227131
0.00376368
-0.00696794
0.00693739
-0.0144231
0.0112893
-0.0247333
0.0164611
-0.0372072
0.0217387
-0.0505322
0.0264774
-0.0629823
-0.0741859
0.0303649
0.000120359
0.000473743
0.000703175
-0.000481951
0.00200506
-0.0035732
0.0043
-0.00926288
0.00777827
-0.0179014
0.0123302
-0.0292853
0.0174281
-0.042305
0.0223283
-0.0554324
0.0265246
-0.0671786
-0.0774878
0.0298265
0.000151102
0.000322641
0.000833392
-0.00116424
0.00232032
-0.00506013
0.00487835
-0.0118209
0.00861474
-0.0216378
0.0132519
-0.0339224
0.0181406
-0.0471938
0.0225873
-0.0598791
0.0262356
-0.0708269
-0.0802742
0.029022
0.000187513
0.000135129
0.000981689
-0.00195842
0.00266458
-0.00674301
0.00547378
-0.0146301
0.00940104
-0.025565
0.0140051
-0.0385264
0.0185807
-0.0517694
0.0225376
-0.063836
0.0256686
-0.0739579
-0.082619
0.0280135
0.000228574
-9.34451e-05
0.00114389
-0.00287374
0.00302618
-0.0086253
0.00605958
-0.0176635
0.010096
-0.0296015
0.0145587
-0.0429891
0.0187516
-0.0559622
0.0222158
-0.0673002
0.0248757
-0.0766179
-0.0845888
0.0268456
0.00027335
-0.000366795
0.00131572
-0.00391611
0.00339271
-0.0107023
0.00660932
-0.0208801
0.0106673
-0.0336594
0.0148996
-0.0472214
0.0186717
-0.0597343
0.021663
-0.0702915
0.0239054
-0.0788604
-0.0862458
0.0255624
0.000321
-0.000687795
0.00149282
-0.00508793
0.0037514
-0.0129609
0.00709882
-0.0242276
0.0110929
-0.0376535
0.015029
-0.0511575
0.0183684
-0.0630738
0.0209209
-0.072844
0.0227998
-0.0807392
-0.0876405
0.0241944
0.000370718
-0.00105851
0.00167073
-0.00638794
0.00408947
-0.0153796
0.00750785
-0.0276459
0.0113621
-0.0415078
0.0149591
-0.0547544
0.0178732
-0.0659879
0.0200279
-0.0749986
0.0215932
-0.0823046
-0.0888141
0.0227668
0.000421663
-0.00148018
0.00184479
-0.00781107
0.00439466
-0.0179295
0.00782146
-0.0310727
0.0114736
-0.0451599
0.0147089
-0.0579897
0.017218
-0.068497
0.0190179
-0.0767985
0.0203136
-0.0836003
-0.0897982
0.0212977
0.000472908
-0.00195308
0.00201016
-0.00934832
0.00465592
-0.0205752
0.00803054
-0.0344474
0.0114337
-0.0485631
0.014301
-0.060857
0.016433
-0.0706291
0.0179195
-0.078285
0.0189825
-0.0846633
-0.0906161
0.0198005
0.000523411
-0.0024765
0.00216196
-0.0109869
0.00486412
-0.0232774
0.00813175
-0.037715
0.011254
-0.0516853
0.013759
-0.0633621
0.0155456
-0.0724156
0.0167565
-0.0794959
0.0176165
-0.0855233
-0.0912846
0.018285
0.000572034
-0.00304853
0.00229548
-0.0127103
0.00501262
-0.0259945
0.0081267
-0.0408291
0.0109492
-0.0545078
0.013106
-0.0655189
0.0145794
-0.073889
0.0155476
-0.0804642
0.0162281
-0.0862037
-0.0918151
0.0167585
0.000617581
-0.00366611
0.00240645
-0.0144992
0.0050975
-0.0286856
0.0080209
-0.0437525
0.0105357
-0.0570225
0.0123635
-0.0673468
0.0135546
-0.07508
0.014308
-0.0812177
0.0148265
-0.0867222
-0.0922148
0.0152263
0.000658854
-0.00432496
0.00249131
-0.0163316
0.00511762
-0.0313119
0.00782261
-0.0464575
0.0100301
-0.05923
0.0115508
-0.0688675
0.0124878
-0.076017
0.0130493
-0.0817792
0.0134189
-0.0870919
-0.0924885
0.0136926
0.000694716
-0.00501968
0.00254745
-0.0181844
0.00507427
-0.0338387
0.00754174
-0.0489249
0.00944831
-0.0611365
0.0106845
-0.0701037
0.0113926
-0.0767251
0.0117805
-0.0821671
0.0120106
-0.0873219
-0.0926385
0.0121606
0.000724144
-0.00574383
0.00257323
-0.0200335
0.00497073
-0.0362362
0.007189
-0.0511432
0.00880529
-0.0627528
0.00977921
-0.0710777
0.0102801
-0.077226
0.0105086
-0.0823956
0.0106056
-0.0874189
-0.0926664
0.0106334
0.000746274
-0.0064901
0.0025681
-0.0218553
0.00481172
-0.0384798
0.00677523
-0.0531067
0.00811439
-0.064092
0.0088469
-0.0718102
0.00915893
-0.0775381
0.00923894
-0.0824756
0.00920709
-0.087387
-0.0925728
0.00911355
0.000760428
-0.00725053
0.00253242
-0.0236273
0.00460288
-0.0405503
0.00631089
-0.0548147
0.00738742
-0.0651685
0.00789762
-0.0723204
0.00803594
-0.0776764
0.00797564
-0.0824153
0.00781773
-0.0872291
-0.0923579
0.00760281
0.000766137
-0.00801666
0.00246744
-0.0253286
0.00435036
-0.0424332
0.00580578
-0.0562701
0.00663465
-0.0659974
0.00693961
-0.0726253
0.00691654
-0.0776533
0.00672188
-0.0822206
0.0064396
-0.0869468
-0.0920201
0.00610182
0.000763141
-0.0087798
0.00237502
-0.0269405
0.00406041
-0.0441186
0.00526886
-0.0574786
0.00586486
-0.0665934
0.00597962
-0.0727401
0.00580499
-0.0774787
0.00548006
-0.0818957
0.00507429
-0.0865411
-0.0915577
0.00461183
0.00075138
-0.00953118
0.00225752
-0.0284466
0.00373919
-0.0456003
0.00470816
-0.0584475
0.00508552
-0.0669708
0.00502316
-0.0726777
0.00470491
-0.0771605
0.00425233
-0.0814431
0.00372261
-0.0860113
-0.0909688
0.00313377
0.000730998
-0.0102622
0.00211756
-0.0298332
0.00339253
-0.0468752
0.00413073
-0.0591857
0.00430284
-0.0671429
0.00407473
-0.0724496
0.00361954
-0.0767053
0.00304176
-0.0808653
0.00238448
-0.0853541
-0.09025
0.00166561
0.000702353
-0.0109645
0.00195827
-0.0310891
0.00302592
-0.0479429
0.00354273
-0.0597026
0.003522
-0.0671221
0.00313785
-0.0720655
0.00255131
-0.0761187
0.00185207
-0.0801661
0.00106548
-0.0845675
-0.0893587
0.000174233
0.00066596
-0.0116305
0.00178263
-0.0322058
0.00264436
-0.0488046
0.00294948
-0.0600077
0.00274724
-0.0669199
0.00221529
-0.0715335
0.00150143
-0.0754049
0.000680662
-0.0793453
-0.000210366
-0.0836764
-0.0883555
-0.00121361
0.000622463
-0.012253
0.00159347
-0.0331768
0.00225235
-0.0494635
0.00235553
-0.0601109
0.00198208
-0.0665464
0.00130943
-0.0708609
0.000470287
-0.0745657
-0.000470025
-0.078405
-0.00149818
-0.0826483
-0.0872545
-0.00259914
0.00057261
-0.0128256
0.00139357
-0.0339977
0.00185394
-0.0499239
0.00176473
-0.0600217
0.00122928
-0.066011
0.000421649
-0.0700532
-0.00053617
-0.0736079
-0.00159098
-0.0773502
-0.00274447
-0.0814948
-0.0860301
-0.00396889
0.000517237
-0.0133428
0.00118558
-0.0346661
0.00145278
-0.0501911
0.00118011
-0.059749
0.000491417
-0.0653223
-0.000444511
-0.0691173
-0.00151754
-0.0725349
-0.00269147
-0.0761762
-0.0039638
-0.0802225
-0.0846794
-0.00531447
0.00045722
-0.0138
0.00097207
-0.0351809
0.00105214
-0.0502711
0.000604413
-0.0593013
-0.000229535
-0.0644883
-0.00128789
-0.0680589
-0.00247675
-0.071346
-0.00376638
-0.0748866
-0.00515698
-0.0788319
-0.0832038
-0.00663259
0.000393404
-0.0141934
0.000755524
-0.035543
0.000654851
-0.0501705
4.70595e-05
-0.0586935
-0.000930796
-0.0635105
-0.00211015
-0.0668796
-0.00341156
-0.0700446
-0.00481442
-0.0734837
-0.00632252
-0.0773238
-0.0816054
-0.00792099
0.000326678
-0.0145201
0.000538163
-0.0357545
0.000265839
-0.0498981
-0.000510603
-0.057917
-0.00161513
-0.062406
-0.00290957
-0.0655852
-0.00432087
-0.0686333
-0.00583473
-0.0719699
-0.00745885
-0.0756996
-0.0798863
-0.0091779
0.000258365
-0.0147785
0.000321709
-0.0358179
-0.000115233
-0.0494612
-0.00104643
-0.0569858
-0.00227955
-0.0611728
-0.00368546
-0.0641792
-0.00520397
-0.0671148
-0.00682665
-0.0703472
-0.00856475
-0.0739615
-0.0780506
-0.0104005
0.000189097
-0.0149676
0.000113677
-0.0357424
-0.000507655
-0.0488399
-0.00157044
-0.0559231
-0.00292315
-0.0598201
-0.00443715
-0.0626652
-0.00606032
-0.0654916
-0.00778966
-0.0686179
-0.00963903
-0.0721122
-0.0761052
-0.0115844
0.000116791
-0.0150844
-0.000100881
-0.0355248
-0.000878739
-0.048062
-0.0020785
-0.0547233
-0.0035455
-0.0583531
-0.00516396
-0.0610468
-0.00688934
-0.0637663
-0.0087231
-0.0667841
-0.0106805
-0.0701547
-0.0740557
-0.01273
3.94945e-05
-0.0151239
-0.000330038
-0.0351552
-0.00124072
-0.0471513
-0.00256881
-0.0533952
-0.00414593
-0.056776
-0.00586555
-0.0593272
-0.00769072
-0.0619411
-0.00962649
-0.0648483
-0.0116896
-0.0680916
-0.0718983
-0.013847
-3.60029e-05
-0.0150879
-0.000543527
-0.0346477
-0.00159151
-0.0461033
-0.00304089
-0.0519458
-0.00472366
-0.0550932
-0.00654158
-0.0575092
-0.00846494
-0.0600177
-0.0105014
-0.0628119
-0.0126664
-0.0659266
-0.0696297
-0.014935
-0.000107435
-0.0149804
-0.000748341
-0.0340068
-0.00192963
-0.0449221
-0.00349436
-0.0503811
-0.0052781
-0.0533095
-0.00719149
-0.0555959
-0.00921268
-0.0579965
-0.0113516
-0.0606729
-0.0136073
-0.063671
-0.0672705
-0.0159664
-0.0001794
-0.014801
-0.000945954
-0.0332402
-0.00225429
-0.0436137
-0.00392857
-0.0487068
-0.00580858
-0.0514295
-0.00781419
-0.0535903
-0.0099315
-0.0558792
-0.0121746
-0.0584299
-0.0145498
-0.0612958
-0.0649863
-0.016834
-0.000250006
-0.014551
-0.00113645
-0.0323538
-0.002565
-0.0421852
-0.00434305
-0.0469288
-0.00631469
-0.0494578
-0.00840865
-0.0514963
-0.0106159
-0.053672
-0.0129365
-0.0561093
-0.0153267
-0.0589056
-0.0621324
-0.0181806
-0.000318663
-0.0142323
-0.00131945
-0.031353
-0.00286141
-0.0406432
-0.00473747
-0.0450527
-0.00679631
-0.047399
-0.00897433
-0.0493183
-0.0112625
-0.0513839
-0.0136549
-0.0537168
-0.0161699
-0.0563906
-0.0593043
-0.018998
-0.000385025
-0.0138473
-0.0014945
-0.0302435
-0.00314318
-0.0389945
-0.00511158
-0.0430843
-0.00725314
-0.0452574
-0.00951114
-0.0470603
-0.0118789
-0.0490162
-0.0143603
-0.0512353
-0.0169923
-0.0537586
-0.0564608
-0.0198358
-0.000448816
-0.0133985
-0.0016612
-0.0290312
-0.00341003
-0.0372457
-0.00546513
-0.0410292
-0.00768476
-0.0430378
-0.0100182
-0.0447268
-0.0124614
-0.0465729
-0.0150244
-0.0486723
-0.0177396
-0.0510434
-0.0535742
-0.0206263
-0.000509796
-0.0128887
-0.00181917
-0.0277218
-0.00366169
-0.0354032
-0.00579798
-0.0388929
-0.00809107
-0.0407447
-0.0104959
-0.042322
-0.0130117
-0.0440571
-0.0156515
-0.0460325
-0.0184407
-0.0482542
-0.0506313
-0.0213836
-0.000567747
-0.012321
-0.00196811
-0.0263214
-0.00389795
-0.0334733
-0.00610996
-0.0366809
-0.00847193
-0.0383828
-0.0109441
-0.0398498
-0.0135283
-0.0414729
-0.0162389
-0.0433219
-0.0190962
-0.0453969
-0.0476257
-0.0221018
-0.000622475
-0.0116985
-0.00210775
-0.0248361
-0.00411863
-0.0314625
-0.00640099
-0.0343986
-0.00882724
-0.0359565
-0.0113625
-0.0373146
-0.0140109
-0.0388245
-0.0167872
-0.0405456
-0.019709
-0.0424752
-0.044556
-0.0227787
-0.000673808
-0.0110247
-0.00223788
-0.0232721
-0.00432359
-0.0293767
-0.00667097
-0.0320512
-0.00915693
-0.0334705
-0.011751
-0.0347206
-0.0144592
-0.0361162
-0.0172966
-0.0377082
-0.0202793
-0.0394925
-0.0414235
-0.0234118
-0.000721592
-0.0103031
-0.0023583
-0.0216354
-0.00451271
-0.0272223
-0.00691984
-0.029644
-0.00946092
-0.0309294
-0.0121094
-0.0320721
-0.0148731
-0.0333526
-0.017767
-0.0348143
-0.020807
-0.0364524
-0.0382312
-0.0239994
-0.000765696
-0.00953739
-0.00246885
-0.0199322
-0.00468588
-0.0250053
-0.00714754
-0.0271824
-0.00973912
-0.0283379
-0.0124376
-0.0293736
-0.0152522
-0.030538
-0.0181982
-0.0318683
-0.0212915
-0.0333591
-0.0349827
-0.0245399
-0.000806004
-0.00873139
-0.00256942
-0.0181688
-0.00484303
-0.0227317
-0.00735403
-0.0246714
-0.00999147
-0.0257004
-0.0127355
-0.0266295
-0.0155964
-0.0276771
-0.01859
-0.0288748
-0.0217322
-0.0302169
-0.0316826
-0.0250323
-0.000842416
-0.00788897
-0.00265988
-0.0163513
-0.0049841
-0.0204075
-0.00753928
-0.0221162
-0.0102179
-0.0230218
-0.0130029
-0.0238445
-0.0159056
-0.0247744
-0.0189421
-0.0258383
-0.0221285
-0.0270305
-0.0283356
-0.0254755
-0.000874846
-0.00701413
-0.00274014
-0.014486
-0.00510903
-0.0180386
-0.00770323
-0.019522
-0.0104184
-0.0203067
-0.0132397
-0.0210231
-0.0161796
-0.0218346
-0.0192542
-0.0227636
-0.02248
-0.0238047
-0.0249468
-0.0258688
-0.000903221
-0.00611091
-0.00281012
-0.0125791
-0.00521778
-0.0156309
-0.00784587
-0.0168939
-0.0105928
-0.0175598
-0.0134459
-0.01817
-0.0164181
-0.0188624
-0.0195261
-0.0196556
-0.0227863
-0.0205444
-0.0215214
-0.0262117
-0.000927478
-0.00518343
-0.00286976
-0.0106369
-0.00531031
-0.0131904
-0.00796717
-0.0142371
-0.0107411
-0.0147859
-0.0136212
-0.0152898
-0.016621
-0.0158626
-0.0197575
-0.0165191
-0.0230471
-0.0172548
-0.0180649
-0.0265036
-0.000947567
-0.00423586
-0.00291901
-0.00866541
-0.00538659
-0.0107228
-0.0080671
-0.0115566
-0.0108633
-0.0119897
-0.0137657
-0.0123874
-0.0167883
-0.01284
-0.0199483
-0.0133591
-0.0232621
-0.013941
-0.0145827
-0.0267444
-0.000963446
-0.00327242
-0.00295781
-0.00667105
-0.00544659
-0.008234
-0.00814563
-0.00885752
-0.0109593
-0.00917607
-0.0138792
-0.00946748
-0.0169198
-0.00979939
-0.0200983
-0.0101806
-0.0234312
-0.0106081
-0.0110802
-0.0269337
-0.000975082
-0.00229733
-0.00298613
-0.00466
-0.00549029
-0.00572985
-0.00820276
-0.00614505
-0.0110291
-0.00634975
-0.0139618
-0.00653481
-0.0170154
-0.00674574
-0.0202074
-0.00698854
-0.0235543
-0.00726121
-0.00756293
-0.0270716
-0.000982451
-0.00131488
-0.00300395
-0.0026385
-0.00551767
-0.00321614
-0.00823846
-0.00342425
-0.0110727
-0.00351556
-0.0140133
-0.0035942
-0.0170751
-0.0036839
-0.0202756
-0.00378801
-0.0236313
-0.00390555
-0.00403614
-0.0271581
-0.000985537
-0.000329345
-0.00301125
-0.000612779
-0.00552871
-0.000698678
-0.00825273
-0.000700235
-0.01109
-0.000678313
-0.0140337
-0.000650472
-0.0170988
-0.000618795
-0.0203028
-0.000584003
-0.0236621
-0.000546247
-0.000505254
-0.027193
-0.000984334
0.000654988
-0.00300802
0.00141091
-0.00552341
0.00181671
-0.00824554
0.00202189
-0.011081
0.00215717
-0.0140231
0.00229156
-0.0170865
0.00244468
-0.0202889
0.00261842
-0.0236467
0.00281155
0.00302373
-0.0271757
-0.00097884
0.00163383
-0.00299426
0.00342633
-0.00550176
0.00432422
-0.00821688
0.004737
-0.0110458
0.00498607
-0.0139813
0.00522708
-0.0170382
0.00550161
-0.0202341
0.00581428
-0.0235853
0.00616276
0.00654634
-0.0271079
-0.000969067
0.0026029
-0.00296996
0.00542722
-0.00546375
0.00681801
-0.00816674
0.00744
-0.0109842
0.00780356
-0.0139084
0.00815128
-0.0169539
0.00854712
-0.0201382
0.00899856
-0.0234777
0.00950229
0.010057
-0.0269884
-0.000955029
0.00355792
-0.00293514
0.00740733
-0.00540938
0.00929225
-0.00809512
0.0101257
-0.0108964
0.0106048
-0.0138045
0.0110594
-0.0168336
0.0115763
-0.0200013
0.0121662
-0.023324
0.012825
0.0135502
-0.0268172
-0.000936752
0.00449468
-0.00288982
0.0093604
-0.00533864
0.0117411
-0.008002
0.0127891
-0.0107822
0.0133851
-0.0136694
0.0139465
-0.0166773
0.0145843
-0.0198234
0.0153123
-0.0231241
0.0161257
0.0170206
-0.0265945
-0.000914272
0.00540895
-0.00283404
0.0112802
-0.00525155
0.0141586
-0.00788737
0.0154249
-0.0106418
0.0161395
-0.0135032
0.016808
-0.0164851
0.0175661
-0.0196046
0.0184317
-0.0228782
0.0193993
0.0204627
-0.0263203
-0.000887632
0.00629658
-0.00276783
0.0131604
-0.00514812
0.0165389
-0.00775123
0.018028
-0.010475
0.0188632
-0.013306
0.019639
-0.016257
0.0205171
-0.0193449
0.0215196
-0.0225863
0.0226407
0.0238712
-0.0259948
-0.000856888
0.00715347
-0.00269123
0.0149947
-0.00502835
0.018876
-0.00759358
0.0205933
-0.0102819
0.0215516
-0.0130778
0.0224348
-0.0159931
0.0234325
-0.0190445
0.0245711
-0.0222486
0.0258448
0.0272406
-0.0256181
-0.000822106
0.00797557
-0.00260433
0.0167769
-0.00489228
0.0211639
-0.00741442
0.0231154
-0.0100626
0.0241998
-0.0128186
0.0251908
-0.0156935
0.0263073
-0.0187036
0.0275812
-0.0218654
0.0290066
0.0305657
-0.0251905
-0.000783364
0.00875894
-0.00250719
0.0185007
-0.00473993
0.0233967
-0.00721375
0.0255892
-0.00981702
0.026803
-0.0125286
0.0279024
-0.0153583
0.0291371
-0.0183223
0.0305452
-0.021437
0.0321213
0.0338414
-0.0247127
-0.000740756
0.00949969
-0.0023999
0.0201599
-0.00457135
0.0255681
-0.00699157
0.0280095
-0.0095452
0.0293567
-0.0122077
0.0305649
-0.0149877
0.0319171
-0.0179009
0.0334584
-0.0209637
0.035184
0.0370628
-0.024185
-0.00069439
0.0101941
-0.0022826
0.0217481
-0.00438659
0.0276721
-0.00674792
0.0303708
-0.0092472
0.031856
-0.0118561
0.0331738
-0.0145818
0.0346428
-0.0174396
0.0363162
-0.020446
0.0381904
0.0402253
-0.0236085
-0.000644392
0.0108385
-0.00215541
0.0232591
-0.00418572
0.0297024
-0.00648281
0.0326679
-0.00892305
0.0342962
-0.0114739
0.0357246
-0.0141407
0.0373096
-0.0169386
0.0391141
-0.0198843
0.0411361
0.0433251
-0.0229841
-0.000590909
0.0114294
-0.00201851
0.0246867
-0.00396884
0.0316528
-0.00619628
0.0348953
-0.00857279
0.0366727
-0.0110611
0.0382129
-0.0136647
0.0399132
-0.0163981
0.0418476
-0.0192792
0.0440172
0.0463587
-0.0223129
-0.000534109
0.0119635
-0.00187211
0.0260247
-0.00373607
0.0335167
-0.00588838
0.0370476
-0.00819649
0.0389808
-0.010618
0.0406345
-0.0131538
0.042449
-0.0158181
0.0445118
-0.0186309
0.0468299
0.0493244
-0.0215965
-0.000474181
0.0124377
-0.00171644
0.027267
-0.00348758
0.0352879
-0.00555919
0.0391192
-0.00779421
0.0412158
-0.0101447
0.0429849
-0.0126085
0.0449128
-0.0151985
0.0471019
-0.017939
0.0495704
0.052222
-0.0208366
-0.000411341
0.012849
-0.00155182
0.0284075
-0.00322355
0.0369596
-0.00520879
0.0411045
-0.00736601
0.0433731
-0.00964118
0.0452601
-0.0120288
0.0473005
-0.0145389
0.049612
-0.0172015
0.0522329
0.0550556
-0.0200351
-0.000345829
0.0131948
-0.00137858
0.0294402
-0.00294422
0.0385252
-0.00483735
0.0429976
-0.00691203
0.0454477
-0.00910781
0.0474559
-0.011416
0.0496087
-0.0138413
0.0520373
-0.0164172
0.0548088
0.0578359
-0.0191976
-0.000277912
0.0134728
-0.00119714
0.0303594
-0.00264988
0.039978
-0.00444502
0.0447928
-0.00643239
0.0474351
-0.00854428
0.0495678
-0.0107691
0.0518335
-0.0131031
0.0543713
-0.015564
0.0572697
0.0605888
-0.0183169
-0.000207904
0.0136807
-0.00100798
0.0311595
-0.00234087
0.0413109
-0.00403205
0.0464839
-0.00592744
0.0493305
-0.0079513
0.0515916
-0.0100909
0.0539731
-0.0123466
0.056627
-0.0146827
0.0596058
0.0633552
-0.017449
-0.000136237
0.0138169
-0.000811593
0.0318349
-0.00201755
0.0425168
-0.00359876
0.0480651
-0.00539747
0.0511292
-0.00732901
0.0535232
-0.00937523
0.0560193
-0.0115482
0.0588
-0.0138589
0.0619165
0.0656345
-0.0161382
-6.38817e-05
0.0138808
-0.000608268
0.0323793
-0.00168037
0.0435889
-0.0031455
0.0495303
-0.00484264
0.0528263
-0.00667797
0.0553585
-0.00862538
0.0579667
-0.0106936
0.0608682
-0.0128866
0.0641095
0.0679507
-0.0152028
5.13049e-06
0.0138756
-0.00039741
0.0327818
-0.00133001
0.0445215
-0.00267283
0.0508731
-0.00426337
0.0544169
-0.0059991
0.0570942
-0.00784582
0.0598134
-0.00981017
0.0628326
-0.0119107
0.06621
0.0701654
-0.0141254
8.65276e-05
0.0137891
-0.000175471
0.0330438
-0.000967527
0.0453136
-0.00218133
0.0520869
-0.00366027
0.0558958
-0.0052933
0.0587273
-0.0070384
0.0615586
-0.00889927
0.0646935
-0.0108943
0.0682051
0.0722644
-0.0129934
0.000160021
0.0136291
5.3561e-05
0.0331503
-0.000594614
0.0459617
-0.00167149
0.0531638
-0.00303404
0.0572584
-0.00456103
0.0602543
-0.00620247
0.0632
-0.00795772
0.0664487
-0.00984259
0.0700899
0.074249
-0.0118272
0.0002292
0.0133999
0.000256688
0.0331228
-0.000208142
0.0464266
-0.00114464
0.0541003
-0.00238547
0.0584992
-0.00380262
0.0616714
-0.00533766
0.064735
-0.00698452
0.0680956
-0.00875648
0.0718619
0.0761224
-0.0106298
0.000297253
0.0131026
0.00047386
0.0329462
0.000183253
0.0467172
-0.000603962
0.0548875
-0.00171517
0.0596104
-0.00301859
0.0629748
-0.00444432
0.0661608
-0.00598017
0.0696314
-0.00763602
0.0735178
0.07788
-0.00939361
0.000364076
0.0127386
0.000691921
0.0326183
0.000572216
0.0468369
-4.29989e-05
0.0555027
-0.00102384
0.0605912
-0.00220958
0.0641606
-0.00352303
0.0674742
-0.0049454
0.0710538
-0.00648245
0.0750548
0.0795158
-0.00811826
0.000427962
0.0123106
0.000908828
0.0321374
0.000971481
0.0467742
0.000520108
0.0559541
-0.000314339
0.0614257
-0.00137636
0.0652226
-0.00257449
0.0686723
-0.00388086
0.0723602
-0.00529717
0.0764711
0.0810261
-0.00680745
0.000487957
0.0118227
0.00112251
0.0315029
0.00137413
0.0465226
0.00110058
0.0562276
0.00041507
0.0621112
-0.000520407
0.0661581
-0.0015997
0.0697516
-0.00278727
0.0735477
-0.00408156
0.0777654
0.0824083
-0.00546381
0.000543206
0.0112794
0.0013304
0.0307157
0.00177696
0.0460761
0.0016903
0.0563143
0.00116215
0.0626393
0.000358688
0.0669615
-0.000600581
0.0707109
-0.00166573
0.0746129
-0.00283699
0.0789367
0.0836608
-0.00408945
0.000592807
0.0106866
0.00152976
0.0297787
0.00217654
0.0454293
0.00228613
0.0562047
0.00192465
0.0630008
0.00126083
0.0676254
0.000424259
0.0715475
-0.000520423
0.0755576
-0.00156303
0.0799793
0.0847851
-0.00268741
0.000635896
0.0100507
0.00171779
0.0286968
0.00256901
0.0445781
0.00288469
0.055889
0.00269977
0.0631857
0.00218196
0.0681432
0.00147564
0.0722538
0.000654711
0.0763785
-0.0002471
0.0808811
0.0858038
-0.00126574
0.000671702
0.00937904
0.00189158
0.027477
0.00294999
0.0435197
0.0034818
0.0553572
0.0034844
0.0631831
0.00312049
0.0685071
0.0025472
0.0728271
0.00185352
0.0770722
0.00106452
0.0816701
0.0867096
0.000158715
0.000699566
0.00867948
0.00204813
0.0261284
0.00331464
0.0422531
0.00407245
0.0545994
0.00427463
0.062981
0.00407378
0.0687079
0.00363848
0.0732624
0.00307285
0.0776378
0.00241936
0.0823236
0.0874349
0.00169407
0.000718967
0.00796051
0.00218419
0.0246632
0.00365758
0.0407798
0.00465081
0.0536062
0.00506568
0.0625661
0.00503864
0.068735
0.0047479
0.0735531
0.00431479
0.0780709
0.0037963
0.0828421
0.0880223
0.00320884
0.000729574
0.00723094
0.00229677
0.023096
0.00397295
0.0391036
0.00521009
0.052369
0.00585174
0.0619244
0.00601098
0.0685757
0.00587261
0.0736915
0.00557545
0.0783681
0.00518947
0.083228
0.0884746
0.00473721
0.000731264
0.00649967
0.00238318
0.0214441
0.00425453
0.0372322
0.00574254
0.050881
0.00662577
0.0610412
0.00698562
0.0682159
0.00700886
0.0736683
0.00685148
0.0785254
0.00659862
0.0834809
0.088792
0.00628123
0.000724122
0.00577555
0.00244109
0.0197271
0.0044958
0.0351775
0.00623933
0.0491375
0.00737935
0.0599012
0.00795614
0.0676391
0.00815237
0.073472
0.00814023
0.0785376
0.00802258
0.0835986
0.0889748
0.00783979
0.000708456
0.00506709
0.00246871
0.0179669
0.00469021
0.032956
0.00669068
0.047137
0.00810254
0.0584893
0.00891467
0.066827
0.00929798
0.0730887
0.00943868
0.0783969
0.00945928
0.083578
0.0890226
0.00941141
0.000684798
0.0043823
0.00246502
0.0161866
0.00483147
0.0305896
0.00708592
0.0448826
0.00878376
0.0567915
0.00985158
0.0657591
0.0104391
0.0725011
0.0107428
0.0780932
0.0109061
0.0834147
0.0889344
0.0109943
0.000653905
0.00372839
0.00242993
0.0144106
0.00491398
0.0281055
0.0074138
0.0423828
0.0094097
0.0547956
0.0107551
0.0644137
0.0115674
0.0716888
0.0120474
0.0776132
0.0123597
0.0831024
0.0887076
0.0125865
0.000616732
0.00311166
0.00236441
0.0126629
0.00493338
0.0255365
0.00766285
0.0396533
0.00996534
0.0524931
0.0116112
0.0627679
0.0126722
0.0706278
0.0133456
0.0769399
0.013816
0.082632
0.0883384
0.0141852
0.0005744
0.00253726
0.00227053
0.0109668
0.00488706
0.02292
0.00782205
0.0367183
0.0104342
0.0498809
0.0124029
0.0607991
0.0137402
0.0692905
0.0146285
0.0760516
0.0152694
0.081991
0.0878211
0.0157867
0.000528153
0.00200911
0.00215145
0.00934351
0.00477477
0.0202967
0.00788159
0.0336115
0.0107987
0.0469638
0.0131109
0.058487
0.0147546
0.0676468
0.0158845
0.0749218
0.016713
0.0811625
0.0871475
0.0173866
0.000479299
0.00152981
0.00201122
0.00781159
0.00459902
0.0177089
0.007834
0.0303765
0.0110411
0.0437567
0.0137127
0.0558154
0.0156952
0.0656643
0.0170985
0.0735184
0.0181372
0.0801238
0.0863056
0.0189791
0.000429152
0.00110065
0.00185459
0.00638615
0.00436527
0.0151982
0.00767536
0.0270664
0.0111444
0.0402876
0.014184
0.0527758
0.0165374
0.0633109
0.0182514
0.0718045
0.0195291
0.078846
0.085278
0.0205567
0.00037897
0.000721684
0.00168668
0.00507844
0.00408174
0.0128031
0.00740646
0.0237417
0.0110941
0.0366
0.0144987
0.0493712
0.0172526
0.060557
0.0193186
0.0697385
0.0208719
0.0772927
0.0840407
0.0221093
0.000329886
0.000391798
0.00151259
0.00389573
0.00375887
0.0105569
0.00703374
0.0204668
0.0108803
0.0327534
0.0146311
0.0456204
0.0178081
0.0573801
0.0202699
0.0672766
0.0221429
0.0754198
0.0825607
0.0236229
0.000282836
0.000108962
0.0013371
0.00284147
0.00340835
0.00848561
0.00656949
0.0173057
0.0104999
0.028823
0.0145577
0.0415626
0.018168
0.0537697
0.0210689
0.0643758
0.0233127
0.073176
0.0807949
0.0250784
0.000238495
-0.000129533
0.00116423
0.00191573
0.00304201
0.00660783
0.00603108
0.0143166
0.00995858
0.0248955
0.0142604
0.0372608
0.0182957
0.0497344
0.0216726
0.0609989
0.0243435
0.0705051
0.0786887
0.0264498
0.000197214
-0.000326747
0.000997038
0.00111591
0.00267059
0.00493428
0.00543914
0.0115481
0.00927211
0.0210625
0.0137304
0.0328025
0.0181566
0.0453082
0.0220333
0.0571222
0.0251886
0.0673498
0.076175
0.0277023
0.000158998
-0.000485745
0.000837384
0.000437521
0.00230279
0.00346887
0.00481503
0.00903583
0.00846555
0.017412
0.012972
0.0282961
0.0177226
0.0405576
0.0221004
0.0527444
0.0257919
0.0636583
0.0731765
0.0287904
0.000123536
-0.000609281
0.000685988
-0.000124931