/*--------------------------------*- C++ -*----------------------------------*\
  =========                 |
  \\      /  F ield         | OpenFOAM: The Open Source CFD Toolbox
   \\    /   O peration     | Website:  https://openfoam.org
    \\  /    A nd           | Version:  7
     \\/     M anipulation  |
\*---------------------------------------------------------------------------*/
FoamFile
{
    version     2.0;
    format      ascii;
    class       volVectorField;
    location    "270";
    object      U;
}
// * * * * * * * * * * * * * * * * * * * * * * * * * * * * * * * * * * * * * //

dimensions      [0 1 -1 0 0 0 0];

internalField   nonuniform List<vector> 
8500
(
(-0.00317523 0.054085 1.11007e-21)
(-0.0136895 0.104653 -3.18413e-21)
(-0.0320709 0.118421 -3.70779e-21)
(-0.0535798 0.109694 3.68806e-21)
(-0.0767344 0.0895546 -3.41018e-21)
(-0.100364 0.0646015 -1.82925e-21)
(-0.123507 0.0372233 3.14508e-21)
(-0.145498 0.00711699 3.97464e-21)
(-0.165838 -0.0271491 -6.74733e-22)
(-0.184651 -0.0677258 1.9557e-21)
(-0.00519357 0.0575029 -1.22232e-21)
(-0.0170777 0.112696 3.78391e-21)
(-0.0350722 0.129422 -9.12682e-21)
(-0.0554447 0.122365 8.29238e-21)
(-0.0770977 0.102925 3.20104e-22)
(-0.098987 0.0779751 6.06167e-21)
(-0.120112 0.0501164 -1.06834e-20)
(-0.13969 0.0192619 -1.58524e-20)
(-0.157145 -0.0157886 -3.24078e-21)
(-0.172318 -0.0568637 7.38932e-21)
(-0.00735624 0.0603625 1.20177e-21)
(-0.0206429 0.119847 8.65216e-21)
(-0.0379589 0.139583 2.02152e-20)
(-0.0567183 0.134351 -1.83329e-20)
(-0.0762323 0.115738 -4.27375e-21)
(-0.0955883 0.0908494 -3.83543e-21)
(-0.113727 0.0625027 1.98925e-20)
(-0.129698 0.0308323 1.22735e-20)
(-0.142797 -0.00507568 2.90853e-21)
(-0.152251 -0.0466763 -2.30782e-20)
(-0.00959852 0.0625365 4.29177e-21)
(-0.0242883 0.125844 -5.02495e-21)
(-0.0406427 0.148591 -3.84951e-20)
(-0.0573276 0.145327 3.3102e-21)
(-0.0740834 0.127675 1.05689e-20)
(-0.0901413 0.102913 -8.47612e-21)
(-0.10438 0.0740679 -7.18304e-23)
(-0.115647 0.0414907 -3.6157e-21)
(-0.123085 0.00456932 8.04817e-21)
(-0.12487 -0.0377528 2.39494e-20)
(-0.0118454 0.06392 3.05845e-21)
(-0.0279057 0.130454 -1.69339e-20)
(-0.0430409 0.15615 4.03313e-20)
(-0.057225 0.154979 -1.86433e-20)
(-0.0706412 0.138429 -3.05349e-23)
(-0.0826844 0.113879 2.61995e-20)
(-0.0921812 0.0845357 -1.20046e-20)
(-0.097752 0.0509451 1.33245e-21)
(-0.0984755 0.012838 -5.05866e-21)
(-0.0908227 -0.0306259 2.35233e-21)
(-0.014016 0.0644393 3.65775e-20)
(-0.0313802 0.133483 4.3902e-20)
(-0.0450777 0.161993 -1.10698e-20)
(-0.056387 0.163013 2.13696e-20)
(-0.0659357 0.147711 6.98796e-21)
(-0.073307 0.123483 -9.65025e-21)
(-0.0773046 0.0936734 -3.82144e-21)
(-0.0762768 0.0589764 -1.76935e-20)
(-0.0695351 0.019512 3.86286e-21)
(-0.0508555 -0.0256703 -2.33361e-20)
(-0.0160292 0.0640582 -3.53053e-20)
(-0.034596 0.134791 -2.29784e-20)
(-0.0466868 0.165894 1.9072e-20)
(-0.0548125 0.169158 -3.32103e-20)
(-0.0600306 0.155249 4.10957e-21)
(-0.0621373 0.13148 4.00453e-20)
(-0.0599621 0.101286 -7.29651e-21)
(-0.051486 0.0654587 4.92342e-20)
(-0.0367784 0.0244152 -5.33236e-22)
(-0.00575571 -0.0228089 -2.11072e-20)
(-0.0178102 0.0627828 3.03206e-20)
(-0.0374435 0.134301 -5.43834e-20)
(-0.0478122 0.167677 -2.16508e-20)
(-0.0525215 0.173176 2.51593e-20)
(-0.0530179 0.160786 1.14066e-21)
(-0.0493294 0.137635 -7.55371e-20)
(-0.0403786 0.107209 -4.89443e-21)
(-0.0236949 0.0704445 -3.92572e-20)
(-0.000406274 0.027268 -5.20382e-20)
(0.0440175 -0.0220043 3.14513e-20)
(-0.019296 0.0606624 -1.69946e-20)
(-0.0398287 0.13201 8.03572e-21)
(-0.048414 0.167228 2.00427e-20)
(-0.0495508 0.174866 -1.84361e-20)
(-0.0450123 0.16408 -6.4503e-20)
(-0.0350511 0.14171 2.23674e-20)
(-0.0186992 0.111248 3.19755e-21)
(0.00678505 0.0737228 5.97389e-20)
(0.0391637 0.0282658 8.11737e-20)
(0.0988578 -0.0233354 -3.72418e-20)
(-0.020442 0.0577868 2.72306e-20)
(-0.0416779 0.127983 2.46588e-20)
(-0.0484694 0.164504 -3.51758e-21)
(-0.0459525 0.174076 9.10599e-20)
(-0.0361449 0.164905 3.89121e-20)
(-0.0195023 0.143447 2.97304e-20)
(0.0048022 0.113133 4.36217e-20)
(0.0399463 0.0750554 -1.93278e-20)
(0.0816877 0.0277058 -2.72924e-20)
(0.15912 -0.0265415 -4.66636e-20)
(-0.0212275 0.0542821 -2.28824e-21)
(-0.0429456 0.12236 -3.9005e-20)
(-0.0479716 0.159537 -2.81524e-20)
(-0.0417869 0.170714 -4.52279e-20)
(-0.0265489 0.163068 -3.64188e-20)
(-0.00287151 0.142592 3.71169e-20)
(0.0299118 0.112605 -3.65877e-20)
(0.075667 0.0743772 -2.59768e-20)
(0.127194 0.0252178 3.47196e-21)
(0.225342 -0.0312143 1.198e-20)
(-0.0216579 0.0503029 -7.57023e-20)
(-0.0436173 0.115349 3.58585e-20)
(-0.0469255 0.152443 2.61406e-20)
(-0.0371048 0.164763 1.75599e-20)
(-0.0163318 0.158435 -3.24822e-20)
(0.0146957 0.13892 -2.80399e-20)
(0.0564967 0.109369 4.13133e-20)
(0.113888 0.07145 -3.45251e-20)
(0.175947 0.0203986 -1.76362e-21)
(0.298133 -0.0369678 -3.83312e-20)
(-0.0217649 0.0460218 6.36599e-20)
(-0.0437092 0.107211 2.56982e-20)
(-0.0453387 0.143417 1.49634e-21)
(-0.0319239 0.156297 -3.20383e-20)
(-0.00552977 0.150953 2.27641e-21)
(0.0331634 0.132269 3.67543e-20)
(0.0845965 0.103158 -1.07664e-20)
(0.154695 0.066026 -1.35506e-20)
(0.228668 0.0128759 -3.1921e-20)
(0.377972 -0.0434931 5.8382e-20)
(-0.0216041 0.0416172 4.32261e-20)
(-0.0432606 0.0982468 -6.95037e-20)
(-0.0432043 0.132733 -5.35878e-20)
(-0.0261936 0.145491 2.31056e-20)
(0.00595363 0.140683 4.7671e-20)
(0.0527026 0.122594 4.11826e-20)
(0.114586 0.0938327 -4.49081e-20)
(0.198502 0.057901 8.96282e-20)
(0.286782 0.00253497 -2.74879e-20)
(0.464935 -0.0504505 -6.87147e-20)
(-0.0212478 0.0372591 -6.48137e-20)
(-0.0423216 0.0887725 3.88409e-20)
(-0.0404789 0.120726 -1.86079e-20)
(-0.0197554 0.13263 1.93743e-21)
(0.0184181 0.127832 1.99272e-20)
(0.0738007 0.11003 -6.49337e-20)
(0.147288 0.0815111 5.94184e-20)
(0.246229 0.0470048 -5.85928e-20)
(0.352467 -0.0101339 9.83035e-20)
(0.558313 -0.0573375 3.64987e-20)
(-0.0207754 0.0330964 1.37215e-20)
(-0.040934 0.0790975 7.53651e-20)
(-0.0370557 0.107775 -1.89232e-20)
(-0.0123004 0.118098 1.9198e-20)
(0.0324332 0.112766 2.24845e-20)
(0.0973682 0.094938 -6.6919e-21)
(0.184085 0.0666451 5.02137e-20)
(0.299396 0.0335292 2.08291e-21)
(0.428155 -0.0238368 -6.35491e-20)
(0.656111 -0.0634427 8.6107e-20)
(-0.0202601 0.029244 -3.67467e-20)
(-0.039109 0.0694998 -7.13731e-20)
(-0.0327383 0.0942782 6.18236e-20)
(-0.00333815 0.102366 3.09957e-20)
(0.048872 0.0960098 -1.4515e-19)
(0.124748 0.0779243 1.19521e-19)
(0.22683 0.0500595 -1.10561e-19)
(0.360042 0.0180705 1.27549e-21)
(0.515427 -0.0365685 -2.65086e-20)
(0.754763 -0.0679106 -7.99358e-20)
(-0.0197548 0.0257733 3.16826e-20)
(-0.0368047 0.0602039 -4.23271e-21)
(-0.0272211 0.0806219 -1.52032e-20)
(0.00781395 0.0859586 -1.79047e-21)
(0.0689042 0.0782198 -8.8007e-21)
(0.157652 0.0598124 -3.83382e-20)
(0.27755 0.0329058 1.70442e-20)
(0.43026 0.00179918 -2.66484e-20)
(0.613642 -0.0459792 8.08222e-21)
(0.849523 -0.0700419 2.06224e-21)
(-0.0192787 0.0227071 -6.46381e-20)
(-0.0339077 0.051365 -4.55764e-21)
(-0.0200848 0.0671535 6.97486e-21)
(0.0220031 0.0694169 2.80604e-21)
(0.0938927 0.0601393 4.74038e-20)
(0.197951 0.0415801 -1.39217e-19)
(0.338034 0.0164763 9.57302e-20)
(0.51142 -0.0134695 -7.24019e-20)
(0.719181 -0.0499748 6.31269e-20)
(0.935909 -0.0703045 7.12202e-20)
(-0.0188076 0.02002 -7.74663e-21)
(-0.030225 0.0430616 3.58309e-20)
(-0.0108088 0.0541576 -4.48081e-20)
(0.0401866 0.0532597 -1.40255e-20)
(0.125251 0.0425342 2.7142e-20)
(0.247317 0.0242846 1.32164e-19)
(0.40932 0.00199536 -2.70773e-20)
(0.603244 -0.0254629 1.34663e-20)
(0.826107 -0.0478948 -7.21634e-20)
(1.01211 -0.0717267 3.13024e-20)
(-0.0182693 0.0176449 -2.34156e-20)
(-0.0254863 0.0352975 -1.8132e-20)
(0.00119496 0.041841 4.46009e-21)
(0.0633334 0.0379428 1.76963e-20)
(0.164251 0.0261325 -5.24562e-20)
(0.306872 0.00896065 -2.13942e-20)
(0.49128 -0.00949025 -6.80954e-20)
(0.703106 -0.0321611 7.14452e-20)
(0.928132 -0.0421196 7.61108e-20)
(1.08013 -0.0777428 -3.38518e-20)
(-0.0175475 0.0154855 -1.1086e-20)
(-0.0193583 0.0280149 4.54783e-20)
(0.0165382 0.0303334 -5.07528e-20)
(0.0923249 0.0238448 -5.91903e-21)
(0.211814 0.011594 -2.40125e-20)
(0.376869 -0.00347088 5.28353e-20)
(0.582362 -0.0171177 6.90506e-20)
(0.806163 -0.0330122 -6.64417e-20)
(1.02046 -0.0367509 7.01777e-20)
(1.16608 -0.06857 8.89074e-21)
(-0.0164898 0.0134323 -3.21991e-20)
(-0.0114674 0.0211184 -9.17713e-20)
(0.0358082 0.0197026 8.9584e-20)
(0.127864 0.0112668 1.29055e-20)
(0.268373 -0.000517693 1.90153e-20)
(0.456529 -0.0122762 1.13889e-20)
(0.679618 -0.0202947 5.23387e-20)
(0.90694 -0.0291204 3.87468e-20)
(1.1054 -0.0287865 -1.37753e-19)
(1.23561 -0.0535078 -6.65733e-20)
(-0.0149212 0.0113805 -1.10443e-19)
(-0.00142416 0.0145044 2.22622e-20)
(0.0595272 0.00998465 -5.0587e-20)
(0.170408 0.000457713 9.88469e-21)
(0.333774 -0.00972955 1.58855e-20)
(0.544057 -0.0169654 -1.14869e-19)
(0.779146 -0.0189068 5.06742e-20)
(1.00157 -0.0213404 -3.46987e-20)
(1.17934 -0.0178766 3.64537e-20)
(1.28731 -0.0373613 -1.23391e-20)
(-0.012657 0.00924589 3.99115e-20)
(0.0111524 0.0080935 4.30219e-20)
(0.0881228 0.00122348 -2.42542e-21)
(0.220131 -0.00834747 -1.38788e-20)
(0.407248 -0.015648 5.81472e-22)
(0.636836 -0.0173289 1.2392e-21)
(0.876949 -0.0132562 -7.73047e-20)
(1.08712 -0.0103958 9.71754e-21)
(1.24097 -0.00499938 9.54473e-20)
(1.32806 -0.0204627 4.2883e-20)
(-0.00951486 0.0069772 -2.69967e-20)
(0.0266162 0.00185927 -2.0062e-20)
(0.121908 -0.00649047 8.61316e-20)
(0.276903 -0.0148893 2.21599e-21)
(0.48744 -0.0179629 -3.61858e-20)
(0.731779 -0.0134288 9.77281e-20)
(0.96958 -0.00388381 2.13553e-20)
(1.16188 0.0029578 9.31943e-22)
(1.29094 0.00930285 -4.19104e-20)
(1.35703 -0.00349075 -5.36616e-20)
(-0.00532376 0.0045627 5.63236e-20)
(0.0452778 -0.00415162 -1.57624e-20)
(0.161063 -0.0129902 -9.40067e-21)
(0.340276 -0.0188655 -3.57982e-20)
(0.572499 -0.0164727 5.90605e-20)
(0.825764 -0.00554453 -2.90356e-20)
(1.0545 0.00857817 -3.26294e-20)
(1.22533 0.0180894 -7.92726e-21)
(1.32997 0.0244715 -2.37122e-20)
(1.37758 0.0132758 2.56608e-20)
(7.05174e-05 0.00203147 -2.0765e-20)
(0.0673915 -0.00981018 -1.23361e-19)
(0.205618 -0.0180189 1.28934e-20)
(0.409473 -0.0199424 4.45745e-20)
(0.660236 -0.011112 3.19809e-20)
(0.916012 0.00590611 -1.06554e-19)
(1.13016 0.0235115 6.81089e-20)
(1.27771 0.0344674 -3.10062e-20)
(1.35957 0.0401389 4.64474e-20)
(1.39101 0.0297989 1.26485e-20)
(0.00680218 -0.000549853 -2.26921e-20)
(0.093141 -0.0149067 4.38156e-20)
(0.25543 -0.0212365 5.71873e-20)
(0.483391 -0.017797 -4.11763e-20)
(0.748342 -0.00196053 1.53145e-20)
(1.00034 0.0204427 -9.37167e-20)
(1.19588 0.0403603 -1.77973e-20)
(1.31984 0.0516823 1.4589e-20)
(1.38115 0.05606 -3.5286e-20)
(1.39912 0.0460206 -3.55225e-20)
(0.0149826 -0.00308231 -2.92488e-20)
(0.122625 -0.0191614 -9.8501e-21)
(0.310155 -0.0222454 -1.03553e-19)
(0.560646 -0.01217 -1.62483e-20)
(0.834608 0.0107762 -1.8122e-21)
(1.07722 0.037578 5.54494e-21)
(1.25164 0.0586535 9.85068e-21)
(1.35282 0.0694304 -4.56226e-20)
(1.39614 0.0720875 8.21659e-22)
(1.40313 0.0619993 2.44964e-20)
(0.0246974 -0.00544128 -7.59759e-21)
(0.155839 -0.0222418 3.58758e-20)
(0.369232 -0.0206311 5.05787e-20)
(0.639654 -0.00290917 3.16765e-20)
(0.917112 0.0268025 -9.44835e-21)
(1.14579 0.0568524 -7.72454e-21)
(1.29791 0.0780081 7.67631e-20)
(1.37785 0.0875004 1.0069e-20)
(1.40581 0.0881497 3.42166e-20)
(1.40408 0.0777752 -1.47119e-20)
(0.036003 -0.00748267 7.25899e-20)
(0.192667 -0.0237827 4.72533e-20)
(0.431886 -0.0160077 -4.79267e-20)
(0.718758 0.0100118 -9.5575e-21)
(0.99433 0.045771 4.92939e-21)
(1.20569 0.0778527 -1.80854e-20)
(1.3354 0.0981242 -3.92334e-20)
(1.3961 0.105754 -6.60048e-21)
(1.41124 0.104219 5.52656e-22)
(1.4027 0.0934109 1.58914e-20)
(0.0489214 -0.00904842 8.79711e-21)
(0.232865 -0.023409 -2.57251e-20)
(0.497151 -0.00805989 6.09332e-20)
(0.796346 0.0265004 3.97627e-20)
(1.06516 0.0673143 1.10498e-21)
(1.25697 0.100219 2.81734e-20)
(1.365 0.118774 4.19252e-21)
(1.40866 0.124106 -2.95627e-20)
(1.41329 0.120297 2.49812e-20)
(1.39955 0.108952 -4.05595e-23)
(0.0634357 -0.00997178 -5.95411e-20)
(0.27606 -0.0207582 -1.76016e-20)
(0.56392 0.00342734 -1.59946e-20)
(0.870967 0.0463673 -2.78243e-20)
(1.12891 0.0910664 6.43636e-21)
(1.29997 0.123644 1.50789e-22)
(1.38759 0.13979 2.15184e-20)
(1.41649 0.142511 -3.40371e-21)
(1.41266 0.136394 -2.56766e-20)
(1.39499 0.124435 -2.39027e-20)
(0.0794852 -0.0100826 4.80842e-21)
(0.321752 -0.0155022 2.83875e-20)
(0.631007 0.0185547 1.37395e-20)
(0.941397 0.0693524 -4.30786e-20)
(1.18522 0.116676 -2.21146e-21)
(1.33519 0.147872 -1.84599e-20)
(1.40406 0.161047 4.82182e-22)
(1.42038 0.160942 8.7164e-21)
(1.40987 0.152523 -9.66457e-21)
(1.38927 0.139876 2.69814e-20)
(0.0969634 -0.00921312 1.12238e-20)
(0.369331 -0.00736759 -2.76877e-20)
(0.697222 0.0373092 -6.55258e-20)
(1.00667 0.0951486 6.04068e-20)
(1.234 0.143812 -4.51694e-21)
(1.36322 0.172687 1.33746e-20)
(1.41521 0.182453 -1.84536e-21)
(1.42099 0.179384 1.28498e-20)
(1.40528 0.168687 -9.53724e-22)
(1.38256 0.155278 -2.09112e-20)
(0.115716 -0.00720402 -2.28098e-20)
(0.418095 0.00384808 3.59084e-20)
(0.761429 0.0595745 2.97888e-20)
(1.06607 0.12342 -4.2928e-20)
(1.27535 0.172169 -7.08422e-21)
(1.38469 0.197909 2.72071e-21)
(1.42174 0.203938 2.72483e-20)
(1.41883 0.197822 1.39452e-21)
(1.39917 0.184881 5.34661e-21)
(1.37494 0.170625 -1.15315e-20)
(0.135544 -0.00391135 1.7302e-20)
(0.467276 0.0182649 -1.5634e-20)
(0.822601 0.0851458 -1.32883e-20)
(1.11913 0.153815 2.28469e-20)
(1.30952 0.201462 7.91131e-21)
(1.4002 0.223382 5.9742e-21)
(1.42424 0.225438 -2.77237e-20)
(1.4143 0.216235 -9.54626e-21)
(1.39172 0.201084 -8.58808e-21)
(1.36646 0.185887 3.78871e-21)
(0.156207 0.000786872 -8.56207e-21)
(0.516077 0.0359143 -2.02324e-22)
(0.879845 0.113747 2.51346e-20)
(1.16555 0.185975 -9.24419e-21)
(1.33684 0.231427 -4.06372e-21)
(1.41034 0.248966 -2.68345e-21)
(1.42323 0.246894 6.70449e-21)
(1.40771 0.234592 1.16391e-20)
(1.38303 0.217261 -3.69391e-22)
(1.35712 0.201024 4.29413e-21)
(0.177426 0.00698435 6.0274e-21)
(0.563699 0.0567386 -1.69323e-21)
(0.932425 0.145046 -4.48778e-21)
(1.20521 0.219541 -4.0659e-21)
(1.35767 0.261817 3.66895e-21)
(1.41561 0.274534 2.87026e-21)
(1.41911 0.268244 -2.65223e-21)
(1.39925 0.25285 9.72506e-22)
(1.37318 0.233361 1.37192e-21)
(1.34695 0.21598 -1.83444e-21)
(0.198897 0.0147413 3.20264e-21)
(0.609374 0.080594 9.17748e-22)
(0.979757 0.178668 -5.51956e-21)
(1.23811 0.254155 -4.40905e-21)
(1.37242 0.292398 4.60674e-21)
(1.41648 0.299961 9.02323e-22)
(1.4122 0.289415 -2.13448e-21)
(1.3891 0.270953 2.01415e-21)
(1.36221 0.249317 1.13625e-21)
(1.33595 0.230693 -1.32159e-21)
(0.220294 0.0240805 -1.25972e-21)
(0.652385 0.107258 2.56993e-21)
(1.0214 0.214209 1.69471e-20)
(1.26435 0.289465 -7.53266e-21)
(1.38148 0.322947 -3.72277e-21)
(1.41336 0.325123 -4.21904e-21)
(1.40277 0.310328 8.6884e-21)
(1.37736 0.288825 5.88815e-21)
(1.35014 0.265046 4.75234e-21)
(1.32412 0.245093 2.61846e-21)
(0.241283 0.0349852 2.55317e-20)
(0.69209 0.13644 -1.41141e-20)
(1.05706 0.251244 -1.61469e-20)
(1.2841 0.325125 2.19291e-20)
(1.38522 0.353247 1.15819e-20)
(1.40659 0.349895 -7.85316e-22)
(1.39102 0.330891 -1.45482e-20)
(1.3641 0.306381 -1.05634e-20)
(1.33697 0.280452 -1.12071e-20)
(1.31143 0.259109 6.76307e-21)
(0.261527 0.0473986 -3.44978e-20)
(0.72793 0.167789 3.25576e-20)
(1.08656 0.289336 3.74609e-20)
(1.29756 0.360797 -3.70391e-20)
(1.38402 0.383086 -1.28975e-20)
(1.39647 0.374146 8.36114e-21)
(1.37712 0.351005 1.53413e-20)
(1.34937 0.323525 2.46475e-21)
(1.32268 0.29543 -4.85646e-22)
(1.29781 0.272664 -9.34235e-21)
(0.280699 0.0612252 -4.90136e-21)
(0.759444 0.200906 -4.56638e-20)
(1.1098 0.328041 -4.89892e-20)
(1.30501 0.396154 5.51276e-20)
(1.37822 0.412257 -6.28182e-21)
(1.38326 0.39774 1.1737e-20)
(1.36119 0.370564 2.3765e-21)
(1.33322 0.340162 -6.649e-21)
(1.30725 0.309903 3.58162e-21)
(1.28306 0.285684 -5.88748e-22)
(0.298488 0.0763327 1.0005e-20)
(0.78627 0.235359 2.82199e-20)
(1.12682 0.366913 1.60535e-20)
(1.30671 0.430876 -1.26295e-20)
(1.36814 0.440553 -1.97856e-20)
(1.36719 0.420535 -1.86816e-20)
(1.34335 0.389448 -3.84397e-21)
(1.31568 0.356201 1.04961e-20)
(1.29069 0.32386 -2.22826e-21)
(1.26707 0.298076 5.18505e-21)
(0.314609 0.0925553 -3.76897e-20)
(0.808147 0.270693 -3.53614e-20)
(1.13768 0.405516 -5.61251e-21)
(1.30297 0.464655 -6.35067e-21)
(1.35409 0.467773 -1.46707e-20)
(1.34847 0.442383 9.13517e-21)
(1.32369 0.407525 -1.62749e-21)
(1.2968 0.371517 -9.25027e-21)
(1.27308 0.337306 8.43472e-21)
(1.2502 0.309765 -1.28298e-20)
(0.328811 0.109697 9.00547e-21)
(0.824906 0.306442 2.99638e-20)
(1.14253 0.443421 2.61577e-20)
(1.2941 0.497191 2.86068e-20)
(1.33636 0.493717 4.76595e-22)
(1.32727 0.463136 2.58964e-20)
(1.3023 0.424661 1.90854e-21)
(1.27664 0.385959 -3.20231e-20)
(1.25432 0.350009 2.34823e-20)
(1.2327 0.320755 8.77912e-21)
(0.340877 0.127537 2.43628e-20)
(0.836465 0.342138 5.46738e-20)
(1.14158 0.480215 -7.26176e-21)
(1.28041 0.528197 -3.6072e-20)
(1.31522 0.518191 1.64281e-20)
(1.30376 0.482641 -1.74327e-20)
(1.2793 0.440721 -2.41501e-20)
(1.25525 0.399467 -2.56838e-21)
(1.23443 0.361811 -2.00718e-20)
(1.21447 0.330909 8.05765e-21)
(0.350634 0.145838 1.15021e-20)
(0.84282 0.377321 8.62091e-21)
(1.13508 0.515503 6.88473e-20)
(1.26224 0.557399 1.31601e-20)
(1.29094 0.541002 -1.16954e-20)
(1.27812 0.500736 -6.06028e-21)
(1.25481 0.455565 3.76786e-20)
(1.23264 0.411919 3.19332e-20)
(1.21352 0.372625 1.63714e-20)
(1.19544 0.340109 -2.41559e-21)
(0.35795 0.164348 2.48851e-21)
(0.844042 0.411542 -5.59482e-20)
(1.12332 0.548912 -8.11069e-20)
(1.23993 0.584542 2.77694e-21)
(1.26376 0.561954 1.67765e-20)
(1.25054 0.517265 -2.34803e-20)
(1.22889 0.469061 -5.63803e-20)
(1.20887 0.423196 -1.74014e-20)
(1.19167 0.382349 -1.12976e-21)
(1.17564 0.34827 1.0082e-20)
(0.362738 0.182809 -2.00354e-20)
(0.840277 0.444367 5.08983e-20)
(1.10665 0.580096 4.89703e-20)
(1.2138 0.609393 -4.62956e-20)
(1.23392 0.580862 6.99359e-21)
(1.22116 0.532062 5.91079e-20)
(1.20164 0.481077 -1.46836e-20)
(1.18404 0.433184 1.21918e-20)
(1.16892 0.390886 -6.97781e-21)
(1.15513 0.355321 -9.59057e-21)
(0.364957 0.200958 -4.53884e-20)
(0.831748 0.475376 -8.01923e-20)
(1.08546 0.608748 -1.58698e-20)
(1.18406 0.63169 2.64306e-20)
(1.20171 0.597575 2.73962e-20)
(1.19015 0.544973 -5.9872e-20)
(1.17318 0.491483 3.45366e-20)
(1.15824 0.441773 -2.06138e-20)
(1.14536 0.398141 1.81589e-20)
(1.13398 0.361196 -2.60003e-23)
(0.364624 0.218538 3.4562e-20)
(0.81875 0.504188 2.17113e-21)
(1.05995 0.634583 -7.79164e-21)
(1.15105 0.651226 -3.38328e-20)
(1.16741 0.611874 2.37375e-20)
(1.1577 0.555881 4.13439e-21)
(1.14365 0.500163 -2.20011e-20)
(1.13156 0.448861 2.25295e-21)
(1.12108 0.404019 -6.14713e-21)
(1.11229 0.365821 5.36086e-21)
(0.36181 0.235287 -9.72985e-21)
(0.801596 0.530527 -1.41314e-20)
(1.03027 0.657205 3.53781e-20)
(1.11529 0.667866 1.67083e-20)
(1.13129 0.623607 -2.37257e-20)
(1.12399 0.564645 3.83626e-20)
(1.11318 0.507006 1.84129e-21)
(1.10412 0.454353 1.19364e-21)
(1.09616 0.408418 -6.37609e-21)
(1.09016 0.369099 -7.35595e-22)
(0.356598 0.250903 6.37573e-20)
(0.780472 0.554179 4.9396e-20)
(0.99689 0.676426 -2.54408e-21)
(1.07721 0.681308 -8.64735e-21)
(1.09359 0.632695 -1.01249e-20)
(1.0892 0.571159 -5.3531e-21)
(1.08192 0.511914 8.08304e-22)
(1.07603 0.458166 3.34581e-21)
(1.07071 0.411246 6.61681e-21)
(1.06766 0.370929 1.75741e-21)
(0.349034 0.265078 6.49514e-21)
(0.755533 0.574689 9.3336e-21)
(0.960555 0.692221 -4.92677e-20)
(1.03708 0.691402 2.31525e-20)
(1.05457 0.639001 1.01051e-20)
(1.05353 0.575317 -2.39893e-20)
(1.05001 0.514796 7.13564e-21)
(1.04741 0.460228 1.01969e-21)
(1.04486 0.412436 -8.55689e-22)
(1.04505 0.371265 -1.34075e-21)
(0.339216 0.277591 -2.40958e-20)
(0.727158 0.591649 -1.86306e-20)
(0.921667 0.704325 1.78372e-20)
(0.995245 0.698106 6.78189e-21)
(1.01448 0.642429 -8.40683e-21)
(1.01717 0.577025 1.03645e-20)
(1.01759 0.515564 3.20404e-22)
(1.01834 0.460446 3.07783e-21)
(1.01887 0.411917 3.82307e-21)
(1.02306 0.370166 3.0723e-21)
(0.327375 0.288305 -1.97161e-20)
(0.695878 0.604896 5.46831e-20)
(0.880569 0.712525 -3.7084e-20)
(0.952021 0.70133 -3.83983e-21)
(0.973597 0.642897 -9.87056e-21)
(0.980303 0.576211 6.20254e-21)
(0.984767 0.514136 -5.74623e-22)
(0.988948 0.458679 7.00414e-22)
(0.993187 0.409468 2.48594e-21)
(1.00252 0.367646 -4.4209e-22)
(0.313709 0.297098 -2.32668e-22)
(0.662132 0.614288 -1.58934e-20)
(0.837672 0.716667 1.17288e-20)
(0.90776 0.700995 -8.52645e-21)
(0.932171 0.64035 -2.00766e-21)
(0.943119 0.572829 2.02881e-21)
(0.95166 0.510477 4.42617e-21)
(0.959424 0.454833 -5.16767e-21)
(0.968174 0.404681 -1.06811e-20)
(0.982654 0.36289 6.23602e-21)
(0.298406 0.303799 2.91508e-21)
(0.626364 0.619697 1.33395e-22)
(0.7934 0.716665 4.10325e-22)
(0.862808 0.697046 -3.85816e-21)
(0.890469 0.634752 -1.59027e-21)
(0.905814 0.566857 -8.97951e-21)
(0.918471 0.504597 -2.24969e-21)
(0.930068 0.449064 -2.36883e-21)
(0.943787 0.397826 1.82276e-20)
(0.960171 0.352 -2.67181e-21)
(0.281699 0.308276 -1.00944e-20)
(0.589009 0.621026 -5.8615e-21)
(0.748179 0.712475 3.21033e-21)
(0.817513 0.689454 1.69129e-21)
(0.848759 0.626082 -5.79689e-21)
(0.86861 0.558274 2.08301e-20)
(0.885475 0.496466 -1.68704e-20)
(0.901115 0.441463 2.07641e-20)
(0.918784 0.390994 -1.44419e-20)
(0.934773 0.346727 -2.02951e-20)
(0.263838 0.310428 3.55677e-21)
(0.550499 0.618212 -3.96668e-21)
(0.70243 0.704086 1.77471e-21)
(0.772216 0.678217 8.48345e-21)
(0.807304 0.614337 -5.15946e-21)
(0.831736 0.547065 7.62472e-21)
(0.852886 0.486032 9.51322e-21)
(0.872589 0.431715 -5.07494e-21)
(0.893667 0.381766 -1.59967e-20)
(0.91066 0.337691 2.15334e-20)
(0.245081 0.310186 5.22041e-21)
(0.511265 0.61123 6.18919e-21)
(0.656568 0.691517 -7.76812e-21)
(0.727255 0.66336 -6.50388e-21)
(0.766372 0.599538 3.06571e-20)
(0.795415 0.533251 -3.21289e-20)
(0.82085 0.473356 4.03474e-20)
(0.844479 0.420095 -9.85957e-21)
(0.868619 0.371281 1.06954e-20)
(0.887305 0.328449 2.12006e-20)
(0.22569 0.307504 -9.78491e-22)
(0.471731 0.600092 -7.6247e-21)
(0.610998 0.674818 -7.29858e-21)
(0.682959 0.644932 -3.1432e-21)
(0.726226 0.581724 5.67107e-21)
(0.759868 0.516859 -9.68914e-21)
(0.789541 0.458443 -1.19148e-20)
(0.81696 0.40652 -2.78803e-20)
(0.844032 0.359082 2.79715e-20)
(0.864864 0.317698 -8.58635e-21)
(0.205931 0.30237 2.01644e-20)
(0.432319 0.584848 -3.2852e-21)
(0.566113 0.65407 -1.03948e-20)
(0.63965 0.62301 1.2243e-20)
(0.687124 0.560956 -2.15689e-20)
(0.725305 0.497939 6.08562e-20)
(0.759125 0.44135 -3.27537e-20)
(0.790197 0.391087 2.99446e-20)
(0.820134 0.345347 -5.47997e-20)
(0.843348 0.3056 -1.47107e-20)
(0.186064 0.294796 -4.70955e-21)
(0.393434 0.565583 2.16014e-20)
(0.522291 0.629384 4.5572e-21)
(0.597636 0.597692 -1.1892e-20)
(0.649315 0.537315 -2.08117e-20)
(0.691934 0.476559 -6.10431e-23)
(0.729774 0.42213 1.09156e-20)
(0.764358 0.373827 -2.74639e-20)
(0.797086 0.330043 1.31642e-20)
(0.822792 0.292074 1.68601e-21)
(0.166348 0.284822 -3.75013e-20)
(0.355472 0.542417 -8.94572e-21)
(0.479899 0.600895 -2.74041e-21)
(0.557216 0.569101 3.18572e-20)
(0.613041 0.510901 -3.00894e-20)
(0.659954 0.452802 -7.44966e-21)
(0.701661 0.40086 -4.80965e-21)
(0.739605 0.354807 8.55232e-21)
(0.775031 0.313217 -1.12996e-20)
(0.803258 0.277161 -1.7452e-20)
(0.147033 0.272515 3.47231e-20)
(0.318809 0.515501 -2.00474e-20)
(0.439281 0.568771 7.37105e-22)
(0.518672 0.537382 -4.89026e-20)
(0.578531 0.481835 5.3357e-20)
(0.629558 0.42677 -1.68944e-20)
(0.674949 0.377625 1.00988e-20)
(0.716085 0.334093 8.86126e-21)
(0.754091 0.294911 2.56684e-20)
(0.784815 0.260907 -1.08009e-20)
(0.128361 0.257963 -1.39793e-20)
(0.283802 0.485018 4.19422e-20)
(0.400766 0.5332 2.3816e-20)
(0.482272 0.502699 3.96257e-20)
(0.546004 0.450256 -9.018e-21)
(0.600928 0.398579 3.72503e-21)
(0.649798 0.352526 2.98677e-20)
(0.693938 0.31177 6.79837e-21)
(0.734381 0.275193 6.60791e-22)
(0.767539 0.243383 -1.30325e-20)
(0.110561 0.241282 -3.39619e-20)
(0.250789 0.45118 -2.35643e-21)
(0.364658 0.4944 -1.42539e-20)
(0.448265 0.46524 -6.45633e-20)
(0.515665 0.416318 -6.25928e-20)
(0.574239 0.368361 1.03722e-20)
(0.626356 0.325676 -2.57037e-20)
(0.673293 0.287932 1.66387e-20)
(0.716011 0.254139 8.9962e-21)
(0.751502 0.22467 1.84489e-20)
(0.0938489 0.222607 5.09845e-20)
(0.220079 0.414226 -4.1764e-20)
(0.331241 0.452607 -2.13569e-20)
(0.416885 0.425209 3.74303e-20)
(0.487705 0.380194 4.29399e-20)
(0.54965 0.336263 -1.44342e-20)
(0.60476 0.2972 -1.96613e-21)
(0.654268 0.262683 -5.15445e-20)
(0.699082 0.231843 -2.91035e-20)
(0.736777 0.204861 1.1142e-20)
(0.0784234 0.202094 -2.91711e-20)
(0.191959 0.374417 1.225e-20)
(0.300773 0.40808 4.54711e-20)
(0.388343 0.382828 -2.07029e-20)
(0.462298 0.342071 1.77448e-21)
(0.527311 0.302445 5.80068e-20)
(0.585139 0.267235 2.56293e-21)
(0.636976 0.236143 4.9756e-20)
(0.683691 0.208405 2.07069e-20)
(0.723431 0.184054 -3.29442e-20)
(0.064466 0.179917 4.11629e-20)
(0.166687 0.332039 4.68973e-21)
(0.273487 0.361096 3.05801e-21)
(0.362831 0.338336 4.18593e-20)
(0.439603 0.30215 -5.48032e-21)
(0.507356 0.267079 -3.65284e-20)
(0.567608 0.23593 1.78931e-20)
(0.621516 0.208436 -2.86659e-20)
(0.669924 0.183938 -1.19062e-20)
(0.711524 0.162354 1.20296e-20)
(0.0521381 0.156267 -2.56326e-20)
(0.144492 0.287397 -4.953e-20)
(0.24959 0.31195 1.15479e-20)
(0.340518 0.291985 -2.25474e-20)
(0.419761 0.260644 -1.35099e-20)
(0.489905 0.230346 3.2945e-20)
(0.552269 0.203441 -7.96255e-21)
(0.607978 0.179698 7.25585e-21)
(0.657861 0.158559 -8.88962e-21)
(0.701113 0.13987 1.77334e-20)
(0.0415804 0.131347 9.43734e-21)
(0.12557 0.240813 3.3536e-20)
(0.229258 0.260951 -4.67514e-20)
(0.321551 0.244038 2.20211e-20)
(0.402893 0.217777 -1.00577e-20)
(0.47506 0.192438 -2.82902e-20)
(0.539212 0.169934 2.31477e-20)
(0.596442 0.150072 4.79945e-21)
(0.647571 0.132395 -7.41436e-22)
(0.692246 0.116715 -2.06096e-20)
(0.0329116 0.105376 3.13193e-21)
(0.110088 0.192624 1.09388e-20)
(0.212642 0.208419 4.24894e-20)
(0.306053 0.194773 -8.18708e-21)
(0.389101 0.173782 -6.45265e-21)
(0.462909 0.153557 2.35973e-21)
(0.528511 0.135582 1.12939e-21)
(0.586974 0.119707 8.65006e-21)
(0.639114 0.105577 -1.13847e-20)
(0.684961 0.0930031 -7.22744e-21)
(0.0262269 0.0785813 -7.77531e-21)
(0.0981778 0.143179 -1.33052e-20)
(0.199861 0.154689 -3.32294e-20)
(0.294123 0.144472 1.67319e-20)
(0.378467 0.128901 1.36159e-20)
(0.453523 0.113909 5.81403e-22)
(0.520228 0.100562 -2.27458e-20)
(0.579629 0.0887584 -1.01278e-20)
(0.632537 0.0782416 7.97552e-21)
(0.679293 0.0688524 8.55875e-21)
(0.0215976 0.0511972 1.36595e-21)
(0.0899395 0.0928369 -2.81887e-21)
(0.191003 0.100098 6.29863e-21)
(0.285833 0.0934261 -4.26055e-21)
(0.371054 0.0833802 -3.79237e-21)
(0.446954 0.0737048 -2.56568e-21)
(0.514408 0.0650582 4.6993e-21)
(0.574446 0.0573834 1.79057e-20)
(0.627877 0.0505266 2.5817e-21)
(0.675267 0.0443798 -4.57341e-21)
(0.0190705 0.0234647 1.68628e-21)
(0.0854374 0.0419627 -4.63825e-21)
(0.186127 0.0449938 -5.25859e-21)
(0.281232 0.0419311 -3.64646e-21)
(0.3669 0.0374701 3.46989e-21)
(0.443236 0.0331606 1.56467e-21)
(0.511081 0.0292552 -1.55694e-21)
(0.571454 0.0257434 -7.09974e-21)
(0.62516 0.0225731 2.3368e-21)
(0.672895 0.0197003 -2.18271e-21)
(0.0186675 -0.00437223 -1.69865e-21)
(0.0847014 -0.00907463 4.67132e-21)
(0.18526 -0.0102757 5.29186e-21)
(0.280343 -0.00971494 -5.062e-21)
(0.366025 -0.00857578 4.4554e-21)
(0.442386 -0.00750609 2.2296e-21)
(0.510261 -0.00665896 -3.55719e-21)
(0.570666 -0.00599836 -4.13786e-21)
(0.624394 -0.00547435 6.11267e-22)
(0.672179 -0.00505617 -1.71979e-21)
(0.0203851 -0.0320689 1.86143e-21)
(0.0877266 -0.059905 -5.56426e-21)
(0.188397 -0.0653603 1.25158e-20)
(0.283163 -0.061213 -1.09808e-20)
(0.368427 -0.0545037 -5.10285e-22)
(0.444401 -0.0480775 -7.27641e-21)
(0.511947 -0.0424963 1.1826e-20)
(0.57208 -0.0376788 1.6077e-20)
(0.625584 -0.0334735 2.88155e-21)
(0.673141 -0.0297747 -6.19645e-21)
(0.0241948 -0.0593821 -1.61639e-21)
(0.094473 -0.11016 -1.18508e-20)
(0.195502 -0.119912 -2.74983e-20)
(0.289661 -0.112265 2.37692e-20)
(0.374081 -0.100061 4.91492e-21)
(0.449261 -0.0883366 4.33094e-21)
(0.516122 -0.0780699 -2.13576e-20)
(0.575681 -0.0691361 -1.25565e-20)
(0.628715 -0.0612842 -2.77578e-21)
(0.675755 -0.0543477 1.91567e-20)
(0.0300432 -0.0860722 -5.7071e-21)
(0.104866 -0.159476 7.11838e-21)
(0.20651 -0.173585 5.004e-20)
(0.299783 -0.162578 -4.46813e-21)
(0.382941 -0.144998 -1.2808e-20)
(0.456928 -0.128069 9.21263e-21)
(0.522751 -0.113195 5.73115e-22)
(0.58144 -0.10021 3.25256e-21)
(0.633761 -0.0887645 -7.08658e-21)
(0.680005 -0.0786502 -1.87466e-20)
(0.0378526 -0.111906 -3.87551e-21)
(0.118797 -0.207497 2.10027e-20)
(0.221321 -0.226043 -5.05045e-20)
(0.313448 -0.211861 2.19293e-20)
(0.394941 -0.189069 1.97355e-22)
(0.467345 -0.167065 -2.77338e-20)
(0.531787 -0.14769 1.22109e-20)
(0.589314 -0.130742 -1.11024e-21)
(0.640683 -0.115777 4.63954e-21)
(0.685867 -0.102566 -1.44831e-21)
(0.0475211 -0.136659 -4.44221e-20)
(0.136124 -0.253875 -5.29671e-20)
(0.239809 -0.276955 1.38096e-20)
(0.330552 -0.259834 -2.51013e-20)
(0.409994 -0.232036 -7.15113e-21)
(0.480438 -0.205119 1.05563e-20)
(0.543166 -0.181379 3.93857e-21)
(0.599248 -0.160581 1.46518e-20)
(0.649433 -0.142186 -3.15974e-21)
(0.693306 -0.125981 1.68807e-20)
(0.0589241 -0.160116 4.25082e-20)
(0.156671 -0.298278 2.72495e-20)
(0.261815 -0.326002 -2.07382e-20)
(0.350965 -0.306223 3.48533e-20)
(0.427993 -0.273669 -3.04203e-21)
(0.496115 -0.242034 -3.7606e-20)
(0.556809 -0.214091 6.61033e-21)
(0.611171 -0.189579 -3.98539e-20)
(0.65995 -0.167864 1.49954e-21)
(0.702282 -0.148782 1.44965e-20)
(0.0719151 -0.182076 -3.18858e-20)
(0.18023 -0.340387 5.69681e-20)
(0.287153 -0.37288 2.22798e-20)
(0.374533 -0.350768 -2.73958e-20)
(0.44881 -0.313746 1.4656e-22)
(0.51427 -0.277621 6.94464e-20)
(0.572625 -0.245664 3.22445e-21)
(0.625003 -0.217595 3.0822e-20)
(0.672163 -0.192687 3.75199e-20)
(0.712744 -0.170859 -2.10277e-20)
(0.0863269 -0.202354 1.78863e-20)
(0.206565 -0.379902 -8.52867e-21)
(0.315608 -0.417297 -2.02729e-20)
(0.401082 -0.39322 1.54189e-20)
(0.472302 -0.352058 5.85968e-20)
(0.534779 -0.311702 -2.04724e-20)
(0.590508 -0.275943 -3.28779e-21)
(0.640652 -0.244498 -4.47057e-20)
(0.685992 -0.216536 -5.52786e-20)