/*--------------------------------*- C++ -*----------------------------------*\
  =========                 |
  \\      /  F ield         | OpenFOAM: The Open Source CFD Toolbox
   \\    /   O peration     | Website:  https://openfoam.org
    \\  /    A nd           | Version:  7
     \\/     M anipulation  |
\*---------------------------------------------------------------------------*/
FoamFile
{
    version     2.0;
    format      ascii;
    class       volVectorField;
    location    "370";
    object      U;
}
// * * * * * * * * * * * * * * * * * * * * * * * * * * * * * * * * * * * * * //

dimensions      [0 1 -1 0 0 0 0];

internalField   nonuniform List<vector> 
2125
(
(-0.0167677 0.0122599 -7.10062e-20)
(-0.0158452 0.0110465 2.57208e-20)
(-0.00908041 0.0150716 2.78388e-20)
(-0.0141374 0.00946654 -1.74566e-20)
(0.00101362 0.0113182 -1.29374e-20)
(-0.0115559 0.00760501 3.66056e-20)
(0.0138679 0.00711045 -1.01835e-20)
(0.0902342 0.00476664 -6.06568e-21)
(-0.0079993 0.00554882 -1.34688e-20)
(0.0297409 0.00273174 -8.0188e-20)
(0.124238 0.00137737 8.34247e-21)
(0.275267 0.00484835 2.87457e-20)
(-0.00335555 0.00338702 -1.48097e-20)
(0.0488686 -0.00151442 2.84496e-20)
(0.1634 -0.00108345 3.71426e-20)
(0.337558 0.00732707 -2.66082e-20)
(0.559109 0.0280722 9.83023e-21)
(0.796163 0.0589704 -5.98001e-20)
(0.0024919 0.00121364 -1.91778e-20)
(0.0714421 -0.00530862 -6.50125e-21)
(0.207713 -0.00209579 -6.73666e-20)
(0.404992 0.0124381 -1.05324e-20)
(0.642991 0.0408513 -1.07698e-21)
(0.881165 0.0773871 3.60558e-21)
(1.0776 0.111546 6.07558e-21)
(0.00965522 -0.000868531 -5.02411e-21)
(0.0975846 -0.00831787 2.34133e-20)
(0.256964 -0.00115801 3.29513e-20)
(0.476436 0.0205937 2.05884e-20)
(0.726377 0.0566513 -6.06713e-21)
(0.959681 0.0975588 -5.0181e-21)
(1.13817 0.131874 4.91888e-20)
(1.25066 0.153601 6.46678e-21)
(0.0182321 -0.00274483 4.80728e-20)
(0.127329 -0.0101979 3.10198e-20)
(0.310712 0.00219085 -3.14278e-20)
(0.550459 0.0320324 -6.25e-21)
(0.807193 0.0752143 3.26276e-21)
(1.03043 0.119042 -1.18185e-20)
(1.1888 0.152263 -2.53167e-20)
(1.28031 0.171027 -4.13347e-21)
(1.32074 0.177696 2.81798e-22)
(1.33089 0.172913 9.89456e-21)
(0.0282959 -0.00428717 5.99346e-21)
(0.160598 -0.010598 -1.69462e-20)
(0.368286 0.00834715 4.01167e-20)
(0.62545 0.0468143 2.60643e-20)
(0.883662 0.0961842 8.10338e-22)
(1.09272 0.141445 1.83184e-20)
(1.23007 0.172515 2.67858e-21)
(1.3022 0.187876 -1.89765e-20)
(1.32897 0.19106 1.57486e-20)
(1.33135 0.184488 3.92623e-23)
(0.039887 -0.00535462 -3.97788e-20)
(0.197192 -0.00916933 -1.17006e-20)
(0.428803 0.0176186 -1.05413e-20)
(0.699761 0.064843 -1.83055e-20)
(0.954414 0.119172 4.32218e-21)
(1.14636 0.164446 8.71596e-23)
(1.26282 0.192513 1.3959e-20)
(1.31756 0.204201 -2.3121e-21)
(1.33305 0.204039 -1.62965e-20)
(1.32944 0.195858 -1.48339e-20)
(0.0530056 -0.00579608 3.2429e-21)
(0.236784 -0.00557873 1.8987e-20)
(0.491214 0.0302051 9.20117e-21)
(0.771844 0.0859045 -2.86268e-20)
(1.01851 0.143796 -1.40126e-21)
(1.19154 0.187793 -1.22028e-20)
(1.28799 0.212198 3.07724e-22)
(1.32749 0.220078 5.60655e-21)
(1.33385 0.216748 -6.10348e-21)
(1.32571 0.207114 1.68418e-20)
(0.0676069 -0.00545487 7.6515e-21)
(0.278917 0.000474918 -1.86252e-20)
(0.554365 0.0461895 -4.38973e-20)
(0.840344 0.109707 4.03457e-20)
(1.07539 0.169705 -2.99101e-21)
(1.22868 0.21129 8.82859e-21)
(1.30651 0.231552 -1.18739e-21)
(1.33294 0.235588 8.29663e-21)
(1.33205 0.229279 -6.55755e-22)
(1.32053 0.218312 -1.30306e-20)
(0.0835977 -0.00417463 -1.56128e-20)
(0.323017 0.00924254 2.42905e-20)
(0.61707 0.0655393 1.99902e-20)
(0.904163 0.135917 -2.8807e-20)
(1.12484 0.196582 -4.76754e-21)
(1.25835 0.234794 1.80681e-21)
(1.31925 0.250577 1.79229e-20)
(1.33468 0.250802 8.63491e-22)
(1.32815 0.2417 3.36563e-21)
(1.31414 0.229479 -7.22841e-21)
(0.100836 -0.00180618 1.18471e-20)
(0.368413 0.0209083 -1.06294e-20)
(0.678172 0.0881184 -9.06069e-21)
(0.962467 0.164179 1.54678e-20)
(1.16686 0.224147 5.31297e-21)
(1.28116 0.258191 3.9863e-21)
(1.327 0.269289 -1.82688e-20)
(1.33335 0.26578 -6.15351e-21)
(1.3225 0.254052 -5.42684e-21)
(1.30671 0.240617 2.38228e-21)
(0.119132 0.00178521 -5.93717e-21)
(0.414365 0.035577 -1.34122e-22)
(0.736607 0.113703 1.7152e-20)
(1.01467 0.194135 -6.26516e-21)
(1.20165 0.252151 -2.76611e-21)
(1.29777 0.281394 -1.81069e-21)
(1.33044 0.287697 4.41459e-21)
(1.32941 0.280559 7.51944e-21)
(1.31536 0.266351 -2.4158e-22)
(1.29833 0.251708 2.65217e-21)
(0.138254 0.00671271 4.1874e-21)
(0.460089 0.0532668 -1.17399e-21)
(0.79144 0.142002 -3.07733e-21)
(1.06042 0.225428 -2.78124e-21)
(1.2295 0.280372 2.48893e-21)
(1.30879 0.304327 1.92157e-21)
(1.33014 0.305807 -1.76225e-21)
(1.32325 0.295154 6.23271e-22)
(1.3069 0.278586 8.63899e-22)
(1.28905 0.262714 -1.12725e-21)
(0.157931 0.0130613 2.2632e-21)
(0.504796 0.0739079 6.42562e-22)
(0.841887 0.17267 -3.83326e-21)
(1.09953 0.25771 -3.04479e-21)
(1.2508 0.308604 3.15477e-21)
(1.31477 0.326921 6.14588e-22)
(1.32657 0.323607 -1.39377e-21)
(1.31513 0.309558 1.29987e-21)
(1.29721 0.290725 7.0968e-22)
(1.27891 0.273587 -7.94429e-22)
(0.177865 0.0208823 -8.83051e-22)
(0.547721 0.0973455 1.79348e-21)
(0.887324 0.205327 1.18333e-20)
(1.13197 0.290642 -5.2367e-21)
(1.26594 0.336659 -2.53757e-21)
(1.31623 0.349101 -2.82341e-21)
(1.32012 0.341071 5.72538e-21)
(1.30526 0.323742 3.76597e-21)
(1.28638 0.302716 2.95019e-21)
(1.26793 0.284266 1.55926e-21)
(0.197735 0.0301897 1.8181e-20)
(0.588146 0.123348 -9.95554e-21)
(0.927279 0.239565 -1.12797e-20)
(1.15782 0.323895 1.52605e-20)
(1.27533 0.364353 7.95186e-21)
(1.3136 0.37079 -5.16611e-22)
(1.31108 0.358153 -9.51715e-21)
(1.29378 0.337653 -6.77443e-21)
(1.27446 0.314486 -6.85371e-21)
(1.25613 0.294685 3.97136e-21)
(0.217212 0.0409576 -2.4604e-20)
(0.625428 0.151615 2.30514e-20)
(0.961426 0.274962 2.64265e-20)
(1.17723 0.357147 -2.58702e-20)
(1.27939 0.391512 -8.86319e-21)
(1.30728 0.3919 5.58471e-21)
(1.2997 0.374791 9.9782e-21)
(1.28078 0.351221 1.52159e-21)
(1.26145 0.325946 -2.21738e-22)
(1.24351 0.304768 -5.31604e-21)
(0.235965 0.0531199 -3.54791e-21)
(0.659006 0.181791 -3.24515e-20)
(0.989565 0.311088 -3.46033e-20)
(1.19042 0.390089 3.84782e-20)
(1.27849 0.417959 -4.33903e-21)
(1.29759 0.412335 7.75255e-21)
(1.28616 0.390909 1.46114e-21)
(1.26634 0.364362 -4.17005e-21)
(1.24737 0.336996 2.22817e-21)
(1.23 0.314438 -2.3752e-22)
(0.253673 0.0665717 7.19689e-21)
(0.688418 0.213476 2.01153e-20)
(1.01161 0.347511 1.13482e-20)
(1.19767 0.422419 -8.92697e-21)
(1.27301 0.44352 -1.36283e-20)
(1.28483 0.431988 -1.24682e-20)
(1.27063 0.406419 -2.45447e-21)
(1.25051 0.37699 6.29118e-21)
(1.23219 0.347562 -1.31956e-21)
(1.21541 0.323611 2.9383e-21)
(0.270032 0.0811723 -2.72105e-20)
(0.713299 0.246235 -2.52646e-20)
(1.02757 0.3838 -3.9601e-21)
(1.19926 0.453845 -4.48094e-21)
(1.2633 0.468022 -9.94853e-21)
(1.26924 0.450741 5.95067e-21)
(1.25324 0.421217 -1.08615e-21)
(1.23336 0.389022 -5.46756e-21)
(1.21593 0.357635 4.92518e-21)
(1.19964 0.332187 -6.65331e-21)
(0.284765 0.0967483 6.51183e-21)
(0.733388 0.279613 2.13938e-20)
(1.03754 0.419534 1.84346e-20)
(1.19551 0.484086 1.98711e-20)
(1.24968 0.491289 4.71513e-22)
(1.25106 0.468468 1.66478e-20)
(1.2341 0.435184 9.65071e-22)
(1.21494 0.400345 -1.8425e-20)
(1.19867 0.367223 1.27723e-20)
(1.1831 0.340099 4.5962e-21)
(0.297626 0.113098 1.76318e-20)
(0.748522 0.313148 3.91565e-20)
(1.04166 0.454301 -5.17588e-21)
(1.18674 0.512871 -2.49662e-20)
(1.23247 0.513147 1.11243e-20)
(1.23048 0.485037 -1.13015e-20)
(1.21332 0.448197 -1.44491e-20)
(1.19532 0.41082 -9.38307e-22)
(1.18036 0.376086 -1.02321e-20)
(1.16603 0.347371 3.75776e-21)
(0.308411 0.129997 8.21114e-21)
(0.758626 0.346379 5.9713e-21)
(1.04015 0.487708 4.82004e-20)
(1.17329 0.539936 8.83649e-21)
(1.21196 0.533424 -7.55895e-21)
(1.20769 0.50031 -3.83002e-21)
(1.19102 0.460129 2.17112e-20)
(1.17454 0.420379 1.71866e-20)
(1.161 0.384079 8.19992e-21)
(1.14829 0.353849 -9.83773e-22)
(0.316954 0.147203 1.6879e-21)
(0.763706 0.378851 -3.99206e-20)
(1.03326 0.519379 -5.65539e-20)
(1.1555 0.565034 1.59955e-21)
(1.18842 0.551948 1.05526e-20)
(1.18289 0.51414 -1.44213e-20)
(1.16733 0.470852 -3.10809e-20)
(1.15265 0.428903 -8.84148e-21)
(1.14074 0.391114 -4.92477e-22)
(1.12986 0.359422 3.14565e-21)
(0.323137 0.164466 -1.41811e-20)
(0.763845 0.410128 3.54914e-20)
(1.02132 0.548965 3.38343e-20)
(1.13373 0.587931 -3.049e-20)
(1.16212 0.568542 4.69535e-21)
(1.15626 0.526386 3.34741e-20)
(1.14231 0.480241 -6.58454e-21)
(1.12971 0.43628 5.58597e-21)
(1.11963 0.397092 -2.06453e-21)
(1.11076 0.364007 -2.54404e-21)
(0.326881 0.181528 -3.17108e-20)
(0.759203 0.439788 -5.60136e-20)
(1.0047 0.57615 -1.08819e-20)
(1.1083 0.60841 1.75897e-20)
(1.13332 0.583041 1.64284e-20)
(1.12796 0.536896 -3.28542e-20)
(1.1161 0.48817 1.67995e-20)
(1.10582 0.442399 -7.42442e-21)
(1.09774 0.40192 5.08997e-21)
(1.09107 0.367537 4.75098e-22)
(0.328161 0.19813 2.42296e-20)
(0.750018 0.467423 1.85384e-21)
(0.983744 0.600647 -5.34723e-21)
(1.07946 0.626244 -2.11952e-20)
(1.1023 0.595295 1.27853e-20)
(1.09819 0.545527 3.20742e-21)
(1.08881 0.494517 -8.47737e-21)
(1.08107 0.447156 2.27903e-21)
(1.07514 0.405501 -6.66305e-22)
(1.07086 0.369935 -8.05693e-22)
(0.327013 0.214026 -6.48472e-21)
(0.736599 0.492684 -8.78029e-21)
(0.958635 0.62213 2.26783e-20)
(1.04761 0.641271 1.03844e-20)
(1.06938 0.605123 -1.36239e-20)
(1.06711 0.552169 1.669e-20)
(1.06059 0.499175 1.70578e-21)
(1.05557 0.450454 2.46968e-21)
(1.05193 0.407737 3.42693e-21)
(1.05022 0.371112 6.13672e-22)
(0.323519 0.228966 4.17123e-20)
(0.71925 0.515376 3.20573e-20)
(0.929589 0.640247 -2.6642e-21)
(1.01323 0.653288 -4.47247e-21)
(1.03479 0.612411 -5.31564e-21)
(1.03494 0.5567 -2.3875e-21)
(1.03157 0.502041 2.41844e-21)
(1.02944 0.45221 8.16225e-22)
(1.02819 0.408535 -2.84334e-21)
(1.02922 0.370972 -4.72106e-21)
(0.317752 0.242621 2.83683e-21)
(0.698119 0.535203 5.18312e-21)
(0.897293 0.655006 -2.79176e-20)
(0.976727 0.66206 1.18045e-20)
(0.998822 0.617051 1.44178e-21)
(1.00185 0.559019 -2.4759e-21)
(1.0019 0.503025 1.27997e-21)
(1.00278 0.452347 1.15102e-21)
(1.00404 0.407826 -4.35781e-21)
(1.00807 0.369463 5.84604e-21)
(0.309715 0.254707 -1.58651e-20)
(0.673451 0.551672 -1.10302e-20)
(0.862324 0.666226 8.06247e-21)
(0.938394 0.667536 1.19169e-21)
(0.961717 0.618941 -4.85027e-21)
(0.968046 0.559029 3.15648e-21)
(0.971719 0.502035 2.75079e-21)
(0.975699 0.450779 -1.10756e-20)
(0.979741 0.405546 2.53842e-20)
(0.987384 0.366614 9.93532e-21)
(0.299633 0.265007 -1.16541e-20)
(0.645724 0.564491 2.66732e-20)
(0.825006 0.673691 -1.59521e-20)
(0.898565 0.669642 -2.93262e-21)
(0.923741 0.617996 -1.1672e-21)
(0.93371 0.556651 -2.67686e-21)
(0.94114 0.498988 -9.25235e-21)
(0.948319 0.447374 4.86347e-21)
(0.955689 0.401514 -1.50793e-21)
(0.967832 0.362475 -4.67836e-21)
(0.287759 0.273507 -1.44117e-21)
(0.615387 0.573558 -8.07543e-21)
(0.785749 0.67721 3.07938e-21)
(0.857586 0.668298 -7.60444e-22)
(0.885161 0.614157 6.38811e-21)
(0.899029 0.551833 5.38441e-21)
(0.910291 0.493836 1.70773e-20)
(0.920835 0.442031 -1.2527e-20)
(0.932239 0.39537 -2.3836e-20)
(0.948717 0.356432 9.89235e-21)
(0.274219 0.280007 -1.23106e-21)
(0.582896 0.578742 -2.78825e-21)
(0.744978 0.676679 1.07911e-21)
(0.815811 0.663443 8.46368e-21)
(0.846242 0.60738 -1.35487e-20)
(0.8642 0.544544 -2.12991e-20)
(0.879359 0.486574 -6.46114e-21)
(0.893511 0.434862 -1.36078e-21)
(0.909393 0.387288 3.11675e-20)
(0.92731 0.344848 -7.07168e-21)
(0.25923 0.28436 2.58443e-21)
(0.54869 0.579938 -3.81338e-21)
(0.703121 0.672045 -1.01199e-22)
(0.773588 0.655041 6.08466e-22)
(0.807252 0.59764 -8.85509e-21)
(0.829441 0.534756 3.99006e-20)
(0.848596 0.47717 -2.74879e-20)
(0.866557 0.425942 3.2873e-20)
(0.886123 0.379082 -2.31624e-20)
(0.903909 0.338053 -3.0455e-20)
(0.243036 0.286456 -1.94713e-21)
(0.513202 0.577071 -3.56783e-22)
(0.660604 0.663288 1.85274e-22)
(0.731265 0.643083 1.40701e-20)
(0.768458 0.584927 -5.49457e-21)
(0.794977 0.52245 8.42941e-21)
(0.818209 0.465575 1.62304e-20)
(0.839997 0.415011 -8.55886e-21)
(0.862755 0.368699 -2.17318e-20)
(0.881611 0.327969 3.0233e-20)
(0.225891 0.286214 1.18009e-20)
(0.476864 0.570103 1.57733e-20)
(0.617846 0.650421 -1.48747e-20)
(0.689182 0.627589 -1.32855e-20)
(0.730125 0.569257 4.52738e-20)
(0.761029 0.507639 -4.58592e-20)
(0.788348 0.451833 5.46304e-20)
(0.813859 0.402285 -1.37943e-20)
(0.839536 0.357059 1.47692e-20)
(0.860106 0.317487 2.72032e-20)
(0.208055 0.283583 -4.53798e-21)
(0.440103 0.559035 -1.51005e-20)
(0.575259 0.633486 -8.6031e-21)
(0.647675 0.608601 -4.95177e-21)
(0.692519 0.550662 5.13851e-21)
(0.727814 0.490345 -1.16707e-20)
(0.759186 0.435952 -1.6385e-20)
(0.788301 0.387703 -3.52133e-20)
(0.81678 0.34381 3.48571e-20)
(0.839446 0.305597 -1.14099e-20)
(0.18979 0.278538 2.71262e-20)
(0.403343 0.543907 -3.11267e-21)
(0.533241 0.612557 -1.20424e-20)
(0.607068 0.58619 1.57563e-20)
(0.655899 0.529197 -2.83595e-20)
(0.695545 0.470614 7.51319e-20)
(0.73089 0.417978 -3.99838e-20)
(0.76349 0.371343 3.61854e-20)
(0.794708 0.329088 -6.65181e-20)
(0.819667 0.292426 -1.76e-20)
(0.171356 0.271086 -8.94585e-21)
(0.366995 0.524793 2.87422e-20)
(0.492179 0.587735 6.87939e-21)
(0.567674 0.560446 -1.45069e-20)
(0.620516 0.504937 -2.49619e-20)
(0.664428 0.448505 -1.06761e-21)
(0.703633 0.397964 1.33454e-20)
(0.739589 0.353238 -3.24537e-20)
(0.773474 0.312876 1.60906e-20)
(0.800817 0.277916 2.15429e-21)
(0.153013 0.261259 -4.66714e-20)
(0.331459 0.501805 -1.15372e-20)
(0.452441 0.559152 -3.12149e-21)
(0.529797 0.531488 3.71554e-20)
(0.586613 0.477976 -3.4406e-20)
(0.634663 0.424097 -9.04397e-21)
(0.677586 0.375977 -5.4268e-21)
(0.716757 0.333449 1.0136e-20)
(0.753219 0.295215 -1.26623e-20)
(0.782967 0.262102 -1.97999e-20)
(0.135012 0.249114 4.09242e-20)
(0.297118 0.475085 -2.31817e-20)
(0.414383 0.526967 1.20234e-21)
(0.493723 0.499454 -5.62067e-20)
(0.554422 0.448429 6.08913e-20)
(0.606443 0.397487 -1.92519e-20)
(0.652915 0.3521 1.1545e-20)
(0.695141 0.312041 9.9914e-21)
(0.734065 0.27615 2.90026e-20)
(0.766194 0.245032 -1.18128e-20)
(0.117596 0.234736 -1.67016e-20)
(0.264336 0.444809 4.79983e-20)
(0.378337 0.491363 2.70167e-20)
(0.459725 0.464503 4.40376e-20)
(0.524165 0.416429 -1.02417e-20)
(0.579955 0.368785 4.09599e-21)
(0.629777 0.326429 3.29749e-20)
(0.674879 0.289095 7.2992e-21)
(0.71613 0.255746 7.00928e-22)
(0.750573 0.226775 -1.40696e-20)
(0.100999 0.218233 -3.79459e-20)
(0.233456 0.411182 -2.83086e-21)
(0.344616 0.452551 -1.57813e-20)
(0.428058 0.426818 -7.06345e-20)
(0.496051 0.382127 -6.81743e-20)
(0.555372 0.338119 1.14098e-20)
(0.608322 0.299072 -2.79996e-20)
(0.656102 0.264701 1.7771e-20)
(0.699524 0.234079 9.66654e-21)
(0.736182 0.207409 2.03335e-20)
(0.0854385 0.199734 5.54059e-20)
(0.204798 0.374434 -4.53053e-20)
(0.313512 0.410763 -2.2952e-20)
(0.398961 0.386599 4.08117e-20)
(0.470272 0.345689 4.62728e-20)
(0.532859 0.305632 -1.52584e-20)
(0.588691 0.270153 -1.92824e-21)
(0.638929 0.238962 -5.53999e-20)
(0.68435 0.211238 -3.13352e-20)
(0.723093 0.187023 1.1922e-20)
(0.071118 0.17939 -3.1467e-20)
(0.178655 0.334824 1.32678e-20)
(0.285289 0.366253 4.86218e-20)
(0.37265 0.344062 -2.16856e-20)
(0.447009 0.307299 1.65099e-21)
(0.512566 0.271479 6.15024e-20)
(0.571013 0.239804 2.87727e-21)
(0.623473 0.211993 5.28982e-20)
(0.670706 0.187323 2.20594e-20)
(0.711375 0.165713 -3.50479e-20)
(0.0582233 0.15737 4.33235e-20)
(0.155293 0.292631 4.74156e-21)
(0.260189 0.319293 3.11714e-21)
(0.349323 0.299442 4.42497e-20)
(0.426423 0.267153 -5.94595e-21)
(0.49463 0.235827 -3.85396e-20)
(0.555404 0.208169 1.88563e-20)
(0.609837 0.183918 -3.00993e-20)
(0.658679 0.162443 -1.26162e-20)
(0.701089 0.143579 1.27288e-20)
(0.0469208 0.133863 -2.70338e-20)
(0.134949 0.248156 -5.18024e-20)
(0.238425 0.270176 1.19198e-20)
(0.329155 0.252989 -2.33597e-20)
(0.408658 0.225461 -1.4151e-20)
(0.479174 0.198856 3.41699e-20)
(0.54197 0.175404 -8.27046e-21)
(0.598112 0.154869 7.67689e-21)
(0.648351 0.136716 -9.30081e-21)
(0.692291 0.12073 1.84082e-20)
(0.0373565 0.109067 9.71998e-21)
(0.11783 0.201717 3.48133e-20)
(0.220182 0.219205 -4.8265e-20)
(0.312299 0.204963 2.28397e-20)
(0.393842 0.182445 -1.03951e-20)
(0.466305 0.160756 -2.92348e-20)
(0.530802 0.141672 2.38195e-20)
(0.588379 0.124988 5.01621e-21)
(0.639791 0.110265 -7.75009e-22)
(0.68503 0.0972749 -2.13988e-20)
(0.0296544 0.0831996 3.16248e-21)
(0.104109 0.153649 1.11533e-20)
(0.205619 0.166701 4.35852e-20)
(0.298884 0.155637 -8.33431e-21)
(0.382081 0.138334 -6.56442e-21)
(0.456113 0.121723 2.44267e-21)
(0.521979 0.107142 1.03008e-21)
(0.580706 0.0944217 8.87881e-21)
(0.63306 0.0832196 -1.16443e-20)
(0.679348 0.0733271 -7.40849e-21)
(0.0239155 0.056484 -7.92963e-21)
(0.0939292 0.104297 -1.35791e-20)
(0.194863 0.112993 -3.37812e-20)
(0.289014 0.105293 1.6987e-20)
(0.373461 0.0933684 1.38625e-20)
(0.448673 0.0819635 5.87328e-22)
(0.515563 0.0719905 -2.31385e-20)
(0.575149 0.063323 -1.02455e-20)
(0.628207 0.0557145 8.14875e-21)
(0.675278 0.0489994 8.69755e-21)
(0.0202169 0.029154 1.37018e-21)
(0.087398 0.0540187 -2.82373e-21)
(0.188009 0.0584196 6.42291e-21)
(0.28277 0.0542207 -4.3509e-21)
(0.368049 0.0477926 -3.80868e-21)
(0.44404 0.0416867 -2.58554e-21)
(0.511603 0.0363999 4.74882e-21)
(0.57175 0.0318491 1.80749e-20)
(0.625268 0.0278868 2.62525e-21)
(0.672842 0.0244049 -4.64862e-21)
(0.280205 0.00271384 -3.66467e-21)
(0.365889 0.00185642 3.48758e-21)
(0.442253 0.00110741 1.57294e-21)
(0.510132 0.000555043 -1.56753e-21)
(0.570539 0.000161687 -7.12697e-21)
(0.624267 -0.000118002 2.34456e-21)
(0.672048 -0.000312769 -2.19203e-21)
(1.27461 0.247342 -1.26379e-22)
(1.28378 0.238427 -1.2599e-21)
(1.29229 0.229358 -2.49217e-22)
(1.30011 0.220168 -7.99155e-22)
(1.3072 0.210882 4.43026e-21)
(1.31349 0.201517 -4.19482e-21)
(1.31888 0.192074 2.66606e-21)
(1.3232 0.182537 1.08576e-20)
(1.26234 0.235625 -2.84449e-23)
(1.27134 0.227795 1.07793e-21)
(1.27981 0.219833 9.4578e-22)
(1.28774 0.211764 -4.63895e-21)
(1.29511 0.203609 1.52421e-21)
(1.30189 0.195386 -9.42682e-22)
(1.30803 0.187107 2.63089e-21)
(1.31344 0.178776 -5.12596e-21)
(1.25065 0.223732 3.34909e-22)
(1.25914 0.216845 7.64864e-22)
(1.26726 0.209857 4.47196e-22)
(1.27501 0.202791 2.27204e-21)
(1.28237 0.195665 3.01322e-21)
(1.28933 0.188499 4.40284e-21)
(1.29587 0.181305 -1.25048e-22)
(1.30193 0.174099 8.38301e-22)
(1.24013 0.21209 -1.09906e-22)
(1.24801 0.206001 -1.30525e-21)
(1.25563 0.199845 -1.21059e-21)
(1.26298 0.193643 8.91022e-22)
(1.27007 0.187409 -3.3961e-21)
(1.27691 0.181158 -7.9279e-21)
(1.28349 0.174902 3.50855e-21)
(1.28979 0.168654 4.25736e-22)
(1.23068 0.200816 1.40006e-23)
(1.23799 0.195417 6.42969e-22)
(1.24509 0.189966 1.63668e-21)
(1.25198 0.184481 6.17385e-22)
(1.25869 0.178974 -1.27997e-22)
(1.26522 0.173461 1.92989e-21)
(1.27159 0.167948 1.46154e-21)
(1.27779 0.162447 -1.68309e-21)
(1.222 0.189858 7.64528e-25)
(1.22881 0.185059 6.67746e-22)
(1.23543 0.180214 -1.16642e-21)
(1.2419 0.175336 -9.05889e-22)
(1.24821 0.170438 5.81529e-22)
(1.25438 0.16553 1.27389e-21)
(1.26043 0.160622 -2.25864e-21)
(1.26636 0.155721 -1.07519e-21)
(1.21386 0.179148 6.23787e-23)
(1.22021 0.174874 -6.9422e-22)
(1.22642 0.170559 1.04167e-21)
(1.23248 0.166212 6.58539e-22)
(1.23843 0.161845 1.30362e-21)
(1.24426 0.157465 -5.50339e-22)
(1.24999 0.153082 -3.63693e-21)
(1.25562 0.148704 2.44097e-21)
(1.20615 0.168702 -1.48172e-22)
(1.21207 0.16488 -3.00594e-22)
(1.21788 0.161024 -3.40613e-22)
(1.22358 0.157141 -3.98534e-22)
(1.22919 0.153238 2.22964e-22)
(1.2347 0.149324 1.46777e-21)
(1.24014 0.145407 3.98248e-21)
(1.2455 0.141491 8.3102e-22)
(1.19872 0.158477 7.0305e-23)
(1.20425 0.155056 -1.48763e-23)
(1.2097 0.151605 -1.35212e-22)
(1.21506 0.148129 -6.47202e-22)
(1.22035 0.144636 -1.15178e-21)
(1.22556 0.14113 -1.53838e-21)
(1.23072 0.137618 -1.0404e-21)
(1.23582 0.134105 -1.50795e-21)
(1.19161 0.148455 4.29763e-23)
(1.19676 0.145392 5.3656e-22)
(1.20185 0.1423 4.62568e-23)
(1.20688 0.139184 4.64462e-22)
(1.21185 0.13605 3.00718e-23)
(1.21677 0.132901 -2.13999e-21)
(1.22164 0.129744 -1.4625e-22)
(1.22648 0.12658 1.27241e-21)
(1.1847 0.138726 -1.04517e-22)
(1.1895 0.135965 1.34036e-22)
(1.19424 0.133178 -1.51178e-22)
(1.19894 0.130369 -3.02556e-22)
(1.20361 0.127541 -4.44513e-22)
(1.20823 0.1247 1.43992e-21)
(1.21283 0.121848 6.92345e-22)
(1.2174 0.118989 -1.19042e-21)
(1.17797 0.12923 3.32758e-23)
(1.18242 0.126736 -4.40013e-22)
(1.18684 0.124218 2.42292e-22)
(1.19123 0.121679 1.76452e-23)
(1.19559 0.119123 4.88675e-22)
(1.19993 0.116551 -5.0649e-22)
(1.20425 0.113967 6.78655e-22)
(1.20855 0.111375 9.24758e-22)
(1.17139 0.119991 2.02559e-23)
(1.17552 0.117734 1.78488e-22)
(1.17962 0.115454 -4.27053e-22)
(1.18371 0.113152 -7.61619e-23)
(1.18777 0.110833 -4.96215e-22)
(1.19183 0.108497 5.59657e-22)
(1.19587 0.106148 -2.14527e-21)
(1.1999 0.103788 -1.3061e-21)
(1.16494 0.11104 -4.87625e-23)
(1.16876 0.108987 5.49591e-23)
(1.17257 0.106913 3.45569e-22)
(1.17636 0.104819 -1.89793e-22)
(1.18013 0.102706 8.01297e-22)
(1.18391 0.100577 -2.8556e-22)
(1.18767 0.0984339 4.24085e-22)
(1.19143 0.0962776 7.40741e-22)
(1.15858 0.102346 4.65912e-23)
(1.16212 0.100479 -1.77681e-23)
(1.16564 0.0985914 -2.7262e-22)
(1.16915 0.096684 6.43744e-22)
(1.17265 0.0947579 -3.82755e-22)
(1.17615 0.0928146 3.36818e-22)
(1.17964 0.0908552 3.52755e-22)
(1.18314 0.0888812 1.45913e-22)
(1.15237 0.0939175 2.33587e-23)
(1.15563 0.092223 4.34658e-23)
(1.15887 0.090507 1.28521e-22)
(1.16211 0.0887704 -4.60819e-22)
(1.16534 0.0870143 -3.07419e-22)
(1.16857 0.0852395 6.25675e-23)
(1.1718 0.0834472 -3.12245e-22)
(1.17503 0.0816383 3.46747e-22)
(1.17826 0.0798139 -1.43076e-21)
(1.14627 0.0857997 -3.4755e-23)
(1.14926 0.0842566 -1.01601e-23)
(1.15224 0.0826926 -1.09995e-24)
(1.15522 0.0811085 3.21123e-22)
(1.15819 0.0795049 2.20136e-22)
(1.16116 0.0778823 -1.39735e-22)
(1.16414 0.0762414 -2.81713e-22)
(1.16711 0.0745828 4.77265e-23)
(1.17008 0.0729072 2.17291e-22)
(1.14029 0.0779659 2.29949e-23)
(1.14303 0.0765638 -4.29524e-24)
(1.14576 0.0751415 9.73604e-23)
(1.14849 0.0736993 -1.05002e-22)
(1.15122 0.0722376 -2.55502e-23)
(1.15395 0.0707568 2.97757e-22)
(1.15667 0.069257 1.25817e-22)
(1.15939 0.0677386 -4.13776e-22)
(1.16212 0.0662021 -1.76036e-22)
(1.13444 0.0704282 -2.28098e-23)
(1.13695 0.0691576 -2.95771e-23)
(1.13945 0.0678674 -2.37108e-23)
(1.14195 0.0665578 -1.64045e-23)
(1.14444 0.0652289 -1.75612e-22)
(1.14693 0.0638808 1.93593e-22)
(1.14942 0.0625137 -1.39223e-22)
(1.1519 0.0611275 -3.28531e-22)
(1.15438 0.0597226 4.9323e-22)
(1.12876 0.0631831 -9.8395e-24)
(1.13105 0.0620365 2.79607e-23)
(1.13334 0.0608711 -1.0928e-23)
(1.13562 0.0596869 -3.91426e-23)
(1.13789 0.058484 4.53888e-23)
(1.14016 0.0572623 -1.24746e-22)
(1.14242 0.0560217 2.24662e-22)
(1.14467 0.0547622 2.1426e-22)
(1.14692 0.0534835 -3.14798e-23)
(1.12327 0.056225 1.31523e-23)
(1.12536 0.0551969 -1.57349e-23)
(1.12744 0.0541509 -1.02461e-23)
(1.12952 0.0530871 -4.23688e-23)
(1.13159 0.0520054 1.57231e-23)
(1.13365 0.0509055 4.46732e-23)
(1.1357 0.0497872 -2.33213e-23)
(1.13774 0.0486503 -2.44968e-22)
(1.13977 0.0474946 1.71422e-22)
(1.11801 0.049549 3.81918e-25)
(1.11992 0.0486342 -1.11104e-23)
(1.12182 0.0477031 -1.95049e-23)
(1.12371 0.0467554 1.28743e-23)
(1.12558 0.0457909 5.94188e-23)
(1.12745 0.0448091 -6.37406e-23)
(1.1293 0.0438098 -1.4161e-22)
(1.13115 0.0427928 1.67381e-22)
(1.13298 0.0417576 -2.62394e-22)
(1.11302 0.0431337 -9.2359e-25)
(1.11477 0.0423297 -1.75749e-24)
(1.1165 0.0415108 1.86658e-23)
(1.11822 0.0406768 -3.30299e-24)
(1.11992 0.0398271 -4.8135e-23)
(1.12161 0.0389614 7.20177e-23)
(1.12329 0.0380795 -9.41643e-23)
(1.12495 0.037181 -6.11266e-23)
(1.1266 0.0362654 2.03554e-22)
(1.10838 0.0369595 -1.5297e-24)
(1.10998 0.0362648 5.7886e-24)
(1.11156 0.0355566 9.33049e-24)
(1.11312 0.0348346 -9.53473e-24)
(1.11467 0.0340984 -2.88745e-25)
(1.1162 0.0333478 -5.91477e-23)
(1.11772 0.0325823 -6.65113e-24)
(1.11921 0.0318015 7.60151e-23)
(1.12069 0.031005 -1.27753e-22)
(1.10414 0.0310063 3.92048e-25)
(1.1056 0.0304185 -3.95895e-25)
(1.10705 0.0298189 7.36321e-25)
(1.10848 0.0292072 7.65653e-24)
(1.10989 0.0285832 4.01683e-23)
(1.11128 0.0279465 -3.11099e-23)
(1.11265 0.0272966 2.27055e-23)
(1.114 0.0266331 2.83181e-24)
(1.11532 0.0259557 -7.01531e-23)
(1.10036 0.0252332 -6.9484e-25)
(1.10171 0.0247513 1.43596e-24)
(1.10304 0.0242596 9.11508e-25)
(1.10436 0.0237578 -5.68617e-24)
(1.10565 0.0232455 -7.06806e-25)
(1.10692 0.0227223 1.01316e-23)
(1.10816 0.022188 2.72441e-23)
(1.10938 0.0216421 1.20511e-23)
(1.11058 0.0210842 -2.17867e-24)
(1.09714 0.0195996 -1.9292e-24)
(1.09839 0.0192236 9.05934e-25)
(1.09963 0.0188398 1.93007e-25)
(1.10084 0.018448 5.83625e-25)
(1.10203 0.0180477 -5.32287e-24)
(1.1032 0.0176388 7.18872e-24)
(1.10434 0.0172208 9.94175e-24)
(1.10546 0.0167933 -2.68611e-23)
(1.10655 0.0163561 -2.53548e-23)
(1.09455 0.0140357 -4.23912e-25)
(1.09573 0.0137655 5.02473e-24)
(1.09689 0.0134897 -1.53207e-24)
(1.09803 0.013208 3.69263e-24)
(1.09914 0.0129203 -3.63768e-24)
(1.10023 0.0126262 -2.03524e-24)
(1.10129 0.0123254 3.61881e-24)
(1.10232 0.0120177 -2.50976e-23)
(1.10333 0.0117027 4.14865e-23)
(1.0927 0.00850229 -3.26728e-26)
(1.09383 0.00833955 -1.26034e-24)
(1.09494 0.00817322 -1.06565e-24)
(1.09602 0.00800312 3.31464e-24)
(1.09707 0.00782907 -4.10904e-24)
(1.0981 0.00765088 6.92707e-25)
(1.09911 0.00746835 3.83403e-24)
(1.10008 0.00728129 7.30994e-25)
(1.10103 0.00708948 -7.19974e-24)
(1.09172 0.00282436 -2.18074e-25)
(1.09282 0.00277327 5.10395e-24)
(1.09389 0.00272133 -9.45196e-24)
(1.09493 0.00266839 -3.95286e-24)
(1.09595 0.00261431 5.41091e-24)
(1.09695 0.00255891 1.18223e-24)
(1.09792 0.00250204 2.30871e-24)
(1.09886 0.00244355 3.45416e-25)
(1.09977 0.00238326 -2.77234e-24)
(0.96969 0.329134 2.22904e-21)
(0.989056 0.329221 -1.65966e-21)
(1.00688 0.330103 5.125e-21)
(1.02464 0.330779 -1.06625e-21)
(1.04298 0.330869 7.33671e-23)
(1.06124 0.330405 -1.06293e-22)
(1.07906 0.329338 2.80414e-22)
(1.09647 0.327575 -1.05878e-22)
(1.1135 0.325082 6.6364e-23)
(1.13009 0.321873 -2.06878e-21)
(1.14619 0.31797 -1.7059e-21)
(1.16177 0.313411 1.79131e-21)
(1.17683 0.308209 -4.20375e-21)
(1.19133 0.302364 -1.17245e-21)
(1.20539 0.295656 2.20393e-21)
(1.21881 0.288387 -2.95482e-21)
(1.23136 0.280756 5.17095e-22)
(1.24315 0.272811 2.03654e-22)
(1.25428 0.264571 1.12359e-21)
(1.26477 0.256069 1.87244e-22)
(0.98337 0.313558 -3.562e-21)
(1.00245 0.313388 2.60063e-21)
(1.01998 0.313951 -6.24595e-21)
(1.03588 0.314438 -5.08948e-21)
(1.05206 0.314227 -4.66933e-22)
(1.06839 0.313336 3.65478e-22)
(1.08431 0.311852 -2.77483e-22)
(1.09981 0.309744 3.57718e-22)
(1.11498 0.306988 -1.26707e-21)
(1.1298 0.303614 1.25958e-21)
(1.14424 0.299663 -3.27721e-22)
(1.15824 0.295168 -1.93791e-21)
(1.17183 0.290144 1.63418e-21)
(1.18475 0.2846 -1.14664e-21)
(1.19722 0.278492 3.08536e-22)
(1.20946 0.271966 -7.29202e-22)
(1.22116 0.265144 3.05698e-21)
(1.23225 0.25808 -6.05235e-22)
(1.24279 0.250793 -9.46112e-22)
(1.25283 0.243299 8.73002e-24)
(0.997448 0.296542 -1.84522e-21)
(1.01527 0.296842 -3.8224e-21)
(1.03224 0.297155 1.56642e-21)
(1.04681 0.297258 3.82801e-21)
(1.06118 0.296705 -8.70388e-22)
(1.07587 0.295445 1.98523e-23)
(1.0903 0.293626 -2.53687e-22)
(1.10425 0.291293 3.28704e-22)
(1.11784 0.288432 1.67601e-21)
(1.1311 0.285053 -1.11515e-22)
(1.14399 0.281195 2.27815e-21)
(1.15647 0.276878 -3.42767e-22)
(1.16853 0.27214 -3.97524e-22)
(1.18006 0.266975 1.57491e-22)
(1.19125 0.261555 -2.66414e-21)
(1.20227 0.255812 -1.71598e-21)
(1.21283 0.249786 -1.3002e-21)
(1.22289 0.24354 -3.30716e-22)
(1.23252 0.237104 -7.1906e-22)
(1.24177 0.230494 -3.4914e-22)
(1.01074 0.280923 -3.3575e-21)
(1.02704 0.281224 5.05495e-21)
(1.04295 0.28112 -2.10481e-21)
(1.05631 0.2807 1.16617e-22)
(1.06907 0.27977 -4.40909e-22)
(1.08219 0.278241 8.17196e-22)
(1.09523 0.276214 1.70636e-22)
(1.10784 0.273768 -5.63966e-22)
(1.12004 0.270905 -5.13258e-22)
(1.13195 0.267622 1.87925e-21)
(1.14353 0.263947 -1.1883e-21)
(1.15475 0.25991 2.18746e-21)
(1.16559 0.255558 -1.57461e-22)
(1.17602 0.250901 -1.46937e-21)
(1.18608 0.246062 4.04818e-21)
(1.19593 0.240857 1.77229e-21)
(1.2055 0.235387 -5.00037e-22)
(1.21468 0.229752 6.93792e-22)
(1.22348 0.223983 1.13093e-21)
(1.23195 0.218091 1.32262e-22)
(1.02297 0.265888 5.71357e-21)
(1.03772 0.265878 -3.72508e-21)
(1.05236 0.265338 1.32597e-21)
(1.06459 0.264466 -9.26096e-22)
(1.07598 0.263227 5.09068e-22)
(1.08765 0.261528 -3.58802e-22)
(1.09938 0.259404 1.26486e-22)
(1.11074 0.25693 2.88807e-22)
(1.12172 0.254126 -1.01157e-21)
(1.13241 0.250989 -2.18518e-21)
(1.14282 0.247533 -4.27636e-23)
(1.15294 0.243786 -8.79945e-22)
(1.16273 0.239781 5.04343e-22)
(1.17223 0.235535 -5.2876e-22)
(1.18131 0.231099 -1.1887e-21)
(1.19012 0.226426 4.55029e-23)
(1.19881 0.221549 -3.30298e-22)
(1.20723 0.216526 -1.19278e-21)
(1.21533 0.211388 -4.36201e-22)
(1.22313 0.206146 -5.14854e-23)
(1.03409 0.251002 1.14591e-22)
(1.0473 0.250674 2.9081e-21)
(1.06058 0.249818 8.6281e-22)
(1.07171 0.248642 1.69736e-21)
(1.0819 0.247196 -2.03569e-23)
(1.09228 0.245406 2.07822e-22)
(1.10278 0.243263 -2.91059e-22)
(1.11301 0.240821 1.10238e-22)
(1.12288 0.238111 8.30131e-22)
(1.13248 0.235137 6.74026e-22)
(1.14184 0.231906 5.77829e-22)
(1.15096 0.228438 -4.62087e-23)
(1.1598 0.224752 2.45572e-22)
(1.16838 0.220872 1.15262e-21)
(1.17666 0.2168 -9.46042e-22)
(1.1847 0.212609 -2.91929e-22)
(1.19263 0.208287 7.84867e-22)
(1.20034 0.203831 8.8558e-22)
(1.2078 0.199261 -6.38109e-22)
(1.21501 0.194598 2.54181e-23)
(1.04405 0.236303 -2.8731e-21)
(1.05581 0.235726 -2.31183e-21)
(1.06771 0.234665 4.51036e-22)
(1.07776 0.233302 6.30666e-22)
(1.0869 0.231728 -1.11378e-21)
(1.09614 0.229898 -1.2009e-21)
(1.1055 0.227782 -2.63626e-22)
(1.11469 0.225412 -3.31e-22)
(1.12356 0.222822 -2.7547e-22)
(1.13218 0.220023 -6.81835e-23)
(1.1406 0.21702 1.40294e-22)
(1.14881 0.213826 -3.8277e-22)
(1.15681 0.210457 -6.92138e-22)
(1.16459 0.20693 1.44357e-21)
(1.17213 0.203256 3.30736e-22)
(1.1795 0.199457 -6.47346e-22)
(1.18676 0.195582 -6.13078e-22)
(1.19384 0.191605 2.5982e-22)
(1.2007 0.187529 6.66302e-22)
(1.20736 0.183371 -8.84059e-23)
(1.05281 0.221918 2.9795e-21)
(1.06325 0.221148 3.36282e-22)