/*--------------------------------*- C++ -*----------------------------------*\
  =========                 |
  \\      /  F ield         | OpenFOAM: The Open Source CFD Toolbox
   \\    /   O peration     | Website:  https://openfoam.org
    \\  /    A nd           | Version:  7
     \\/     M anipulation  |
\*---------------------------------------------------------------------------*/
FoamFile
{
    version     2.0;
    format      ascii;
    class       volScalarField;
    location    "295";
    object      p;
}
// * * * * * * * * * * * * * * * * * * * * * * * * * * * * * * * * * * * * * //

dimensions      [0 2 -2 0 0 0 0];

internalField   nonuniform List<scalar> 
8500
(
-0.392732
-0.39617
-0.397484
-0.398536
-0.399592
-0.400718
-0.401897
-0.403059
-0.404086
-0.405141
-0.398849
-0.402659
-0.404313
-0.405843
-0.407517
-0.409369
-0.411326
-0.413236
-0.414861
-0.416119
-0.40556
-0.409643
-0.411617
-0.413628
-0.415935
-0.418536
-0.421299
-0.423979
-0.426195
-0.427565
-0.41286
-0.4171
-0.419364
-0.421847
-0.424793
-0.428156
-0.431736
-0.435191
-0.43797
-0.439317
-0.420711
-0.42498
-0.427494
-0.43043
-0.434004
-0.438127
-0.442517
-0.446725
-0.450013
-0.451132
-0.429042
-0.433204
-0.435919
-0.439273
-0.44345
-0.448311
-0.453481
-0.458387
-0.462118
-0.462697
-0.437748
-0.441668
-0.444526
-0.448248
-0.452983
-0.458537
-0.46443
-0.469943
-0.474055
-0.47366
-0.446702
-0.450251
-0.453181
-0.457204
-0.462429
-0.468608
-0.475146
-0.48113
-0.485588
-0.483658
-0.455755
-0.458815
-0.461739
-0.465977
-0.4716
-0.478312
-0.485392
-0.49167
-0.496491
-0.492268
-0.46475
-0.467223
-0.470053
-0.474403
-0.480307
-0.48743
-0.494933
-0.501283
-0.506625
-0.499053
-0.473535
-0.475342
-0.477986
-0.482325
-0.488369
-0.495751
-0.503545
-0.509718
-0.515675
-0.504497
-0.481968
-0.483059
-0.48542
-0.489608
-0.495627
-0.503087
-0.511044
-0.51702
-0.522967
-0.508329
-0.489933
-0.490292
-0.49227
-0.496157
-0.501968
-0.509311
-0.517164
-0.522913
-0.528552
-0.510462
-0.497355
-0.496987
-0.498488
-0.50192
-0.507329
-0.514331
-0.521847
-0.527117
-0.532352
-0.510875
-0.504198
-0.503134
-0.504073
-0.506898
-0.51171
-0.518144
-0.525075
-0.52964
-0.534149
-0.509789
-0.510473
-0.508762
-0.509066
-0.511151
-0.515186
-0.520839
-0.526922
-0.530623
-0.533823
-0.507449
-0.51624
-0.513937
-0.513553
-0.514788
-0.517897
-0.522585
-0.52756
-0.530274
-0.531352
-0.503914
-0.5216
-0.518762
-0.517653
-0.51796
-0.520028
-0.523609
-0.527241
-0.52882
-0.526758
-0.49896
-0.526691
-0.52336
-0.521509
-0.520842
-0.521797
-0.524159
-0.526262
-0.526466
-0.520165
-0.492892
-0.531677
-0.527876
-0.525279
-0.523622
-0.523427
-0.52448
-0.524913
-0.523347
-0.512227
-0.488085
-0.536735
-0.53246
-0.529123
-0.526485
-0.525121
-0.524777
-0.523414
-0.519583
-0.504543
-0.486619
-0.542041
-0.537258
-0.533194
-0.529595
-0.52705
-0.525205
-0.521886
-0.515391
-0.497873
-0.47841
-0.547758
-0.542406
-0.537625
-0.533086
-0.529336
-0.525861
-0.520379
-0.511012
-0.491091
-0.468673
-0.554024
-0.548017
-0.542523
-0.537055
-0.532046
-0.526782
-0.518915
-0.506503
-0.484162
-0.459043
-0.560945
-0.554179
-0.547967
-0.541556
-0.535197
-0.52796
-0.51748
-0.501888
-0.477168
-0.449537
-0.568589
-0.560952
-0.554005
-0.546609
-0.538766
-0.529348
-0.516024
-0.497181
-0.470111
-0.440454
-0.576991
-0.568371
-0.560657
-0.552197
-0.5427
-0.530866
-0.514476
-0.492367
-0.463056
-0.431698
-0.58615
-0.576444
-0.567919
-0.558277
-0.546921
-0.532405
-0.512753
-0.487426
-0.456011
-0.423244
-0.596035
-0.585157
-0.57576
-0.564782
-0.551324
-0.533835
-0.510771
-0.482325
-0.44897
-0.414997
-0.606585
-0.594468
-0.584121
-0.571622
-0.555773
-0.535014
-0.508448
-0.477022
-0.441894
-0.40687
-0.61771
-0.604312
-0.592917
-0.578675
-0.560101
-0.535797
-0.505702
-0.471465
-0.434729
-0.398764
-0.62929
-0.614588
-0.602027
-0.585785
-0.564117
-0.53604
-0.502452
-0.46559
-0.427404
-0.390582
-0.641169
-0.625163
-0.611297
-0.592754
-0.567616
-0.535605
-0.498614
-0.459326
-0.419836
-0.382228
-0.653157
-0.635862
-0.620531
-0.599346
-0.570385
-0.534355
-0.494101
-0.452593
-0.411939
-0.373607
-0.665026
-0.646473
-0.629494
-0.605296
-0.572214
-0.532162
-0.488823
-0.445306
-0.403622
-0.36463
-0.676514
-0.656742
-0.637909
-0.610319
-0.572898
-0.528897
-0.482688
-0.437376
-0.394792
-0.355213
-0.687324
-0.666385
-0.645467
-0.614126
-0.572242
-0.52444
-0.475601
-0.428713
-0.38536
-0.345275
-0.697129
-0.675084
-0.651832
-0.616433
-0.570063
-0.518673
-0.467468
-0.419225
-0.37524
-0.334745
-0.705586
-0.6825
-0.656659
-0.616968
-0.566191
-0.511483
-0.458198
-0.408826
-0.36435
-0.323563
-0.712335
-0.688279
-0.6596
-0.615481
-0.560473
-0.502767
-0.447704
-0.397435
-0.35262
-0.31168
-0.717015
-0.69206
-0.660325
-0.611745
-0.552773
-0.492429
-0.435902
-0.384976
-0.339992
-0.299066
-0.719271
-0.693491
-0.65853
-0.605565
-0.542972
-0.480382
-0.422714
-0.371377
-0.326414
-0.285698
-0.718767
-0.692232
-0.653944
-0.596775
-0.530973
-0.466555
-0.408075
-0.35657
-0.311828
-0.271534
-0.715192
-0.687973
-0.646341
-0.585247
-0.516702
-0.450892
-0.391932
-0.340502
-0.296163
-0.256425
-0.708269
-0.680443
-0.635537
-0.570887
-0.500108
-0.433352
-0.374256
-0.323161
-0.279384
-0.240103
-0.697765
-0.669418
-0.621393
-0.553636
-0.48116
-0.413911
-0.355023
-0.304555
-0.261556
-0.222445
-0.683496
-0.654729
-0.603818
-0.53347
-0.459853
-0.392559
-0.334218
-0.284673
-0.242752
-0.203988
-0.665329
-0.63626
-0.582766
-0.510394
-0.436205
-0.369305
-0.311858
-0.263522
-0.222633
-0.185101
-0.643187
-0.613953
-0.558242
-0.484453
-0.410259
-0.344189
-0.28802
-0.241171
-0.201389
-0.165505
-0.61705
-0.587806
-0.530298
-0.45573
-0.382077
-0.317289
-0.262764
-0.217577
-0.179173
-0.145118
-0.586952
-0.557878
-0.499051
-0.424348
-0.351731
-0.288692
-0.236104
-0.19282
-0.156051
-0.123965
-0.552981
-0.52429
-0.464689
-0.390397
-0.319319
-0.258455
-0.208126
-0.166985
-0.132081
-0.102123
-0.515281
-0.487236
-0.427391
-0.35383
-0.285058
-0.22671
-0.178932
-0.140164
-0.107337
-0.0797005
-0.474058
-0.446968
-0.387115
-0.315036
-0.249028
-0.193589
-0.14864
-0.112458
-0.0819067
-0.0568149
-0.429544
-0.403738
-0.343733
-0.274462
-0.211461
-0.159243
-0.117379
-0.0839712
-0.0558791
-0.0335557
-0.381957
-0.357546
-0.298179
-0.232104
-0.172551
-0.123841
-0.0852921
-0.0548147
-0.0293424
-0.0100113
-0.33158
-0.308559
-0.251062
-0.188231
-0.132493
-0.0875577
-0.0525163
-0.0250876
-0.00244279
0.0134555
-0.27886
-0.257376
-0.202408
-0.143129
-0.0914994
-0.050567
-0.019166
0.00513336
0.0245257
0.0359236
-0.2242
-0.204375
-0.152419
-0.0970747
-0.0498041
-0.0130462
0.0146548
0.0357502
0.0512019
0.0567287
-0.167933
-0.150013
-0.101408
-0.0503488
-0.0076507
0.0248132
0.048781
0.0665046
0.0774685
0.0778717
-0.11049
-0.0947026
-0.0497315
-0.0032448
0.0347116
0.0627966
0.0829433
0.0969513
0.103317
0.104874
-0.0523155
-0.0388536
0.00224254
0.0439353
0.0770297
0.100672
0.11686
0.126961
0.129752
0.131945
0.00613945
0.0171211
0.0541426
0.0908848
0.119045
0.138205
0.150358
0.156634
0.156432
0.15758
0.0644227
0.072805
0.1056
0.137295
0.160495
0.175164
0.183267
0.185849
0.182869
0.182133
0.122083
0.127782
0.15625
0.182861
0.201118
0.211325
0.215418
0.214427
0.208691
0.205602
0.178675
0.181642
0.205736
0.227281
0.240659
0.246474
0.246635
0.242183
0.2337
0.228045
0.233761
0.233982
0.253709
0.270261
0.278867
0.280399
0.276738
0.268939
0.257742
0.249439
0.286918
0.284414
0.299836
0.311517
0.315503
0.312897
0.305553
0.294536
0.280693
0.269735
0.337736
0.332564
0.343793
0.350779
0.350336
0.343771
0.332909
0.318825
0.302437
0.288865
0.385829
0.378077
0.385277
0.387788
0.383146
0.372834
0.358647
0.341668
0.322863
0.306758
0.430829
0.42062
0.424001
0.422302
0.413727
0.399911
0.382616
0.362939
0.341866
0.323342
0.472398
0.459884
0.459699
0.454096
0.441889
0.424839
0.404678
0.382516
0.359347
0.338548
0.510221
0.495584
0.492129
0.482965
0.467454
0.447467
0.424705
0.400292
0.375216
0.352314
0.544018
0.527465
0.521072
0.508722
0.490266
0.46766
0.442582
0.416168
0.389389
0.364581
0.573537
0.555301
0.546333
0.531203
0.510182
0.4853
0.458206
0.430054
0.401792
0.375301
0.598563
0.578896
0.567744
0.550266
0.527084
0.500281
0.471489
0.441875
0.412361
0.38443
0.618916
0.598087
0.585167
0.565793
0.540868
0.512518
0.482359
0.451568
0.421043
0.391935
0.63445
0.612744
0.598489
0.577689
0.551454
0.521943
0.490755
0.45908
0.427795
0.39779
0.64506
0.622771
0.60763
0.585884
0.558784
0.528503
0.496636
0.464375
0.432586
0.401977
0.650677
0.628108
0.612535
0.590334
0.562819
0.532168
0.499972
0.467428
0.435395
0.404479
0.651274
0.628727
0.613184
0.591021
0.563542
0.532924
0.500752
0.468229
0.436212
0.405291
0.646859
0.624639
0.609584
0.587951
0.560961
0.530774
0.498982
0.466781
0.435041
0.404415
0.637481
0.615888
0.601773
0.581156
0.555102
0.525744
0.494679
0.463103
0.431899
0.401869
0.623229
0.602552
0.589819
0.570695
0.546015
0.517875
0.487882
0.457224
0.42681
0.397668
0.604227
0.584746
0.57382
0.55665
0.53377
0.507227
0.478641
0.44919
0.419812
0.391833
0.580639
0.562617
0.553902
0.539128
0.51846
0.493879
0.467022
0.439058
0.410952
0.384395
0.552665
0.536345
0.530221
0.518261
0.500197
0.477926
0.453108
0.426899
0.400289
0.375393
0.520538
0.506143
0.502957
0.494203
0.479111
0.459481
0.436994
0.412794
0.387893
0.364875
0.484526
0.472253
0.47232
0.467131
0.455355
0.438671
0.418789
0.396839
0.373843
0.352894
0.444928
0.434947
0.438542
0.437242
0.429095
0.415641
0.398615
0.379137
0.358225
0.33951
0.402071
0.394523
0.401879
0.404753
0.400517
0.390548
0.376607
0.359803
0.341137
0.324791
0.356311
0.351305
0.362608
0.369899
0.36982
0.363562
0.352909
0.338962
0.32268
0.30881
0.308027
0.305638
0.321028
0.332931
0.33722
0.334865
0.327677
0.316745
0.302965
0.291641
0.25762
0.257891
0.277454
0.294117
0.302941
0.304651
0.301076
0.293296
0.282106
0.27336
0.205509
0.208446
0.232217
0.253737
0.267222
0.273121
0.273278
0.268764
0.260222
0.254039
0.152126
0.157703
0.185661
0.21208
0.230309
0.240484
0.244465
0.243312
0.237442
0.233736
0.0979171
0.106071
0.138141
0.169446
0.192457
0.206954
0.214817
0.217119
0.213923
0.212487
0.0433334
0.0539662
0.0900224
0.126143
0.153924
0.172751
0.184516
0.190368
0.189858
0.190255
-0.0111698
0.00180891
0.0416738
0.0824799
0.114974
0.138099
0.153731
0.163239
0.165602
0.167062
-0.065138
-0.0499839
-0.00653089
0.0387674
0.075872
0.10323
0.122638
0.135855
0.141606
0.142609
-0.118119
-0.101
-0.0542172
-0.00468715
0.0368759
0.068378
0.0914103
0.108144
0.118206
0.11833
-0.169665
-0.150831
-0.101016
-0.0475841
-0.00176146
0.033771
0.0603173
0.0802244
0.0944576
0.0992955
-0.219362
-0.199033
-0.146585
-0.0896346
-0.0397922
-0.000379435
0.0296152
0.0525075
0.0703849
0.0805963
-0.267011
-0.245091
-0.190659
-0.13056
-0.0769745
-0.0338835
-0.00053195
0.025244
0.0461116
0.0604622
-0.311994
-0.288724
-0.233126
-0.170079
-0.113079
-0.0665657
-0.0300158
-0.00146117
0.0219799
0.0394812
-0.353975
-0.32929
-0.273811
-0.207909
-0.147899
-0.0982533
-0.0587209
-0.0275273
-0.00173243
0.0184871
-0.392754
-0.366981
-0.311659
-0.243874
-0.181237
-0.128774
-0.0865122
-0.0528568
-0.0248847
-0.00218029
-0.428099
-0.40155
-0.34638
-0.27779
-0.212879
-0.157966
-0.113252
-0.0773432
-0.047391
-0.0224323
-0.459783
-0.432717
-0.37816
-0.309171
-0.2427
-0.185684
-0.138815
-0.100884
-0.0691676
-0.0421824
-0.48764
-0.460272
-0.406878
-0.337981
-0.270481
-0.21179
-0.163091
-0.123385
-0.0901319
-0.061317
-0.511565
-0.484073
-0.432331
-0.364135
-0.29611
-0.236199
-0.185985
-0.144757
-0.110214
-0.0797331
-0.53151
-0.504046
-0.454377
-0.387512
-0.319508
-0.258845
-0.207441
-0.164919
-0.12935
-0.0973638
-0.547483
-0.520176
-0.472947
-0.408018
-0.340597
-0.279625
-0.227444
-0.183842
-0.147442
-0.114229
-0.559548
-0.532513
-0.488027
-0.4256
-0.359324
-0.298484
-0.245887
-0.201537
-0.164349
-0.130538
-0.567832
-0.541165
-0.499653
-0.440239
-0.375662
-0.315401
-0.262735
-0.217935
-0.180228
-0.14653
-0.572514
-0.546297
-0.507914
-0.451955
-0.389608
-0.330378
-0.277991
-0.233024
-0.194987
-0.161197
-0.573828
-0.548135
-0.512945
-0.4608
-0.401183
-0.34343
-0.291668
-0.246798
-0.208573
-0.174557
-0.572054
-0.546957
-0.514929
-0.466866
-0.410435
-0.354587
-0.303787
-0.259271
-0.221041
-0.186885
-0.567509
-0.543084
-0.514102
-0.470286
-0.417437
-0.363899
-0.314388
-0.270481
-0.232458
-0.198355
-0.560543
-0.53687
-0.510744
-0.471228
-0.422283
-0.371433
-0.323526
-0.280478
-0.24287
-0.209022
-0.551523
-0.528685
-0.505176
-0.469901
-0.425097
-0.377269
-0.331269
-0.28932
-0.252311
-0.218901
-0.54083
-0.51891
-0.497752
-0.466544
-0.426019
-0.381502
-0.337689
-0.297067
-0.260823
-0.228012
-0.528839
-0.507921
-0.488843
-0.461429
-0.425214
-0.384234
-0.342863
-0.303783
-0.268457
-0.236387
-0.515918
-0.496081
-0.478823
-0.45485
-0.422866
-0.385579
-0.346873
-0.309538
-0.27527
-0.244062
-0.50241
-0.483726
-0.468058
-0.447122
-0.419175
-0.385657
-0.349801
-0.314398
-0.281323
-0.251081
-0.488629
-0.471163
-0.456885
-0.438567
-0.41436
-0.384598
-0.351731
-0.31843
-0.286674
-0.257491
-0.474854
-0.45866
-0.445606
-0.429503
-0.408653
-0.382536
-0.352744
-0.321696
-0.291379
-0.263339
-0.46132
-0.446442
-0.434477
-0.420229
-0.402294
-0.379615
-0.352918
-0.324249
-0.295489
-0.268672
-0.44822
-0.434689
-0.423706
-0.41101
-0.395526
-0.375983
-0.352329
-0.326135
-0.299044
-0.273534
-0.435702
-0.423537
-0.413455
-0.40206
-0.388584
-0.371797
-0.351053
-0.327389
-0.302075
-0.277964
-0.423872
-0.413076
-0.403838
-0.393541
-0.381678
-0.367217
-0.349165
-0.328036
-0.304598
-0.281992
-0.4128
-0.403359
-0.394925
-0.38556
-0.374983
-0.362404
-0.346744
-0.328097
-0.306611
-0.285646
-0.402518
-0.394404
-0.386748
-0.378179
-0.368618
-0.357507
-0.343876
-0.327587
-0.3081
-0.288946
-0.393038
-0.386206
-0.379302
-0.371419
-0.362653
-0.352653
-0.340657
-0.326529
-0.309036
-0.291905
-0.384358
-0.378746
-0.372559
-0.365273
-0.357115
-0.347932
-0.337187
-0.324958
-0.309382
-0.294554
-0.376471
-0.372
-0.366484
-0.359714
-0.352008
-0.343403
-0.333565
-0.32293
-0.309114
-0.296894
-0.369381
-0.365952
-0.361043
-0.354712
-0.347327
-0.3391
-0.329878
-0.320532
-0.308203
-0.299036
-0.363098
-0.3606
-0.356217
-0.350249
-0.343078
-0.335061
-0.326208
-0.317861
-0.306718
-0.300839
-0.357643
-0.355959
-0.352008
-0.346329
-0.339287
-0.331345
-0.322652
-0.315053
-0.304651
-0.30262
-0.353064
-0.352038
-0.348439
-0.342985
-0.336009
-0.32804
-0.319359
-0.312177
-0.302167
-0.303
-0.349386
-0.348852
-0.345556
-0.340266
-0.33332
-0.325267
-0.316537
-0.309253
-0.300565
-0.290883
-0.346624
-0.346433
-0.343377
-0.338227
-0.331306
-0.323164
-0.314377
-0.306517
-0.299826
-0.285151
-0.34477
-0.344778
-0.341913
-0.33691
-0.330039
-0.321852
-0.313043
-0.304541
-0.299734
-0.283402
-0.343788
-0.343866
-0.341162
-0.336321
-0.329557
-0.32141
-0.312639
-0.303708
-0.299905
-0.283078
-0.343609
-0.343654
-0.341094
-0.336439
-0.329857
-0.321855
-0.313206
-0.304153
-0.300426
-0.28423
-0.344144
-0.344081
-0.341653
-0.337215
-0.330894
-0.323152
-0.314735
-0.305856
-0.301692
-0.287202
-0.345287
-0.345077
-0.342777
-0.338584
-0.332595
-0.325226
-0.317166
-0.3087
-0.304057
-0.291794
-0.34693
-0.34657
-0.344397
-0.34048
-0.33488
-0.327979
-0.320401
-0.312515
-0.307628
-0.297569
-0.34897
-0.348492
-0.346455
-0.342833
-0.337669
-0.331312
-0.324317
-0.317119
-0.312286
-0.304088
-0.351318
-0.350785
-0.3489
-0.345589
-0.340894
-0.335131
-0.328789
-0.32234
-0.317795
-0.3111
-0.3539
-0.353411
-0.351689
-0.348705
-0.344498
-0.339356
-0.333706
-0.328027
-0.32391
-0.318441
-0.35669
-0.356318
-0.35479
-0.352149
-0.34844
-0.343927
-0.33898
-0.334063
-0.330441
-0.326007
-0.359678
-0.359474
-0.358186
-0.355903
-0.352695
-0.348807
-0.344554
-0.34037
-0.337266
-0.333742
-0.362821
-0.362899
-0.361877
-0.359962
-0.357253
-0.353979
-0.350404
-0.346915
-0.344336
-0.341609
-0.366143
-0.366601
-0.365867
-0.36433
-0.362123
-0.359451
-0.356535
-0.353708
-0.351667
-0.34957
-0.369682
-0.370595
-0.370171
-0.369026
-0.367325
-0.365248
-0.362978
-0.360806
-0.359247
-0.357711
-0.373491
-0.37491
-0.374816
-0.374078
-0.37289
-0.371413
-0.369792
-0.368263
-0.367154
-0.366391
-0.377633
-0.379585
-0.379836
-0.379521
-0.378861
-0.377995
-0.377035
-0.376148
-0.375516
-0.375405
-0.382177
-0.38466
-0.385265
-0.385391
-0.385278
-0.385047
-0.384768
-0.384536
-0.384424
-0.384811
-0.387189
-0.390178
-0.391139
-0.391721
-0.39218
-0.392611
-0.393045
-0.393493
-0.393936
-0.394704
-0.408531
-0.412135
-0.429307
-0.456583
-0.494957
-0.501015
-0.449071
-0.352554
-0.259629
-0.201363
-0.171037
-0.174775
-0.200002
-0.205265
-0.164108
-0.125267
-0.0941171
-0.0799121
-0.0786587
-0.0759719
-0.0776387
-0.0849818
-0.0759841
-0.0679577
-0.0509259
-0.0363886
-0.0557793
-0.0599968
-0.0291795
0.00792188
-0.418597
-0.417116
-0.425526
-0.442417
-0.470669
-0.473331
-0.423829
-0.334777
-0.25045
-0.199521
-0.174802
-0.18339
-0.211502
-0.21702
-0.171576
-0.128631
-0.0941717
-0.0784848
-0.075281
-0.071013
-0.0738224
-0.0823157
-0.0749494
-0.0676714
-0.0510414
-0.0366898
-0.0559575
-0.0598454
-0.0291647
0.00723975
-0.429541
-0.422774
-0.42188
-0.427133
-0.444396
-0.442984
-0.396271
-0.315205
-0.240041
-0.196733
-0.177988
-0.191488
-0.22257
-0.227898
-0.178481
-0.131677
-0.0941368
-0.0770783
-0.0721039
-0.0663431
-0.0700905
-0.0795922
-0.0738616
-0.0673338
-0.051184
-0.037046
-0.0561349
-0.0596731
-0.0291531
0.0065301
-0.441263
-0.429204
-0.418765
-0.411386
-0.416839
-0.410507
-0.366697
-0.293966
-0.228346
-0.19283
-0.180427
-0.198935
-0.233058
-0.237831
-0.184797
-0.134412
-0.0940281
-0.0757025
-0.0691445
-0.0619863
-0.0664673
-0.0768307
-0.0727243
-0.0669457
-0.0513526
-0.0374559
-0.0563086
-0.0594785
-0.0291421
0.00579847
-0.453532
-0.436363
-0.416441
-0.395764
-0.388661
-0.376493
-0.335285
-0.271221
-0.2153
-0.187655
-0.18195
-0.205615
-0.242824
-0.246773
-0.190504
-0.136843
-0.0938603
-0.0743654
-0.0664132
-0.0579589
-0.0629772
-0.0740521
-0.0715413
-0.0665081
-0.0515457
-0.0379167
-0.0564755
-0.05926
-0.029129
0.00505053
-0.465993
-0.444075
-0.415033
-0.380786
-0.360519
-0.341687
-0.302522
-0.247123
-0.200856
-0.181068
-0.18239
-0.211428
-0.251741
-0.254695
-0.19559
-0.138979
-0.0936468
-0.0730734
-0.0639133
-0.05427
-0.0596454
-0.0712794
-0.070317
-0.0660215
-0.0517614
-0.0384253
-0.0566333
-0.0590159
-0.0291109
0.00429201
-0.478195
-0.452038
-0.414523
-0.366871
-0.333055
-0.306933
-0.269019
-0.221812
-0.184995
-0.172951
-0.18159
-0.216286
-0.259696
-0.26158
-0.200047
-0.140832
-0.0934004
-0.071832
-0.0616419
-0.0509222
-0.0564962
-0.0685369
-0.0690561
-0.0654866
-0.0519975
-0.0389775
-0.0567807
-0.0587444
-0.0290845
0.00352861
-0.489649
-0.459872
-0.414753
-0.354318
-0.306853
-0.272918
-0.234849
-0.19544
-0.167728
-0.163204
-0.179408
-0.220109
-0.266593
-0.267414
-0.203873
-0.142413
-0.0931323
-0.0706452
-0.0595897
-0.0479125
-0.0535532
-0.0658499
-0.0677634
-0.064904
-0.0522512
-0.0395687
-0.0569147
-0.0584439
-0.029047
0.00276596
-0.499942
-0.467165
-0.415454
-0.343288
-0.282428
-0.240318
-0.206252
-0.168275
-0.149085
-0.151744
-0.175725
-0.222819
-0.272348
-0.272192
-0.207068
-0.143731
-0.0928528
-0.0695164
-0.0577426
-0.0452328
-0.0508378
-0.0632438
-0.0664444
-0.0642742
-0.0525198
-0.0401941
-0.0570307
-0.058112
-0.0289952
0.00200956
-0.508758
-0.47346
-0.416304
-0.333827
-0.260228
-0.20965
-0.172158
-0.140545
-0.129103
-0.138514
-0.170452
-0.224344
-0.276895
-0.27591
-0.20964
-0.144797
-0.0925704
-0.0684474
-0.0560827
-0.0428711
-0.0483682
-0.0607428
-0.0651044
-0.0635976
-0.0528002
-0.0408488
-0.0571231
-0.0577464
-0.0289261
0.00126475
-0.515373
-0.478398
-0.417049
-0.325935
-0.240656
-0.181537
-0.140442
-0.112524
-0.107837
-0.123494
-0.163529
-0.224619
-0.280178
-0.278569
-0.211595
-0.145618
-0.092293
-0.0674395
-0.0545895
-0.0408119
-0.046159
-0.058369
-0.0637489
-0.0628746
-0.0530892
-0.0415273
-0.057186
-0.0573452
-0.0288368
0.000536733
-0.519716
-0.481892
-0.41748
-0.31958
-0.224062
-0.156366
-0.111933
-0.0842433
-0.0854007
-0.106711
-0.154936
-0.223587
-0.282158
-0.280175
-0.212945
-0.146206
-0.0920288
-0.0664937
-0.0532419
-0.0390364
-0.0442211
-0.0561412
-0.0623832
-0.0621054
-0.0533836
-0.0422234
-0.0572127
-0.0569066
-0.0287244
-0.000169435
-0.521917
-0.483796
-0.417274
-0.314583
-0.210715
-0.134487
-0.085977
-0.0572359
-0.0619765
-0.088256
-0.144693
-0.22121
-0.282811
-0.280736
-0.213706
-0.146574
-0.0917866
-0.0656108
-0.0520185
-0.0375222
-0.0425619
-0.0540737
-0.0610122
-0.0612903
-0.0536799
-0.0429314
-0.0571435
-0.0564288
-0.028586
-0.000848769
-0.522041
-0.483998
-0.416448
-0.310812
-0.200434
-0.11636
-0.0627925
-0.0323626
-0.03785
-0.068298
-0.132861
-0.21747
-0.282123
-0.280261
-0.213892
-0.146723
-0.0915644
-0.0647867
-0.050895
-0.0362415
-0.0411826
-0.0521755
-0.0596401
-0.0604295
-0.0539748
-0.0436457
-0.0570928
-0.0559111
-0.0284182
-0.00149622
-0.520206
-0.482564
-0.414935
-0.308392
-0.193071
-0.102105
-0.0427608
-0.0103049
-0.0135181
-0.0471007
-0.119545
-0.212375
-0.280092
-0.278762
-0.213503
-0.146629
-0.0913363
-0.0640068
-0.0498447
-0.0351612
-0.0400722
-0.0504479
-0.0582702
-0.059523
-0.0542646
-0.0443607
-0.0570141
-0.0553538
-0.0282175
-0.0021066
-0.516619
-0.479622
-0.412721
-0.306981
-0.188994
-0.0916468
-0.0264999
0.0103149
0.0102453
-0.0250376
-0.104896
-0.205958
-0.276738
-0.276273
-0.212539
-0.146275
-0.0910863
-0.0632618
-0.0488551
-0.0342535
-0.0392124
-0.0488815
-0.0569041
-0.058571
-0.0545454
-0.0450722
-0.0568968
-0.0547558
-0.0279831
-0.00267522
-0.511554
-0.475264
-0.409729
-0.306284
-0.187527
-0.0855463
-0.0140561
0.0285483
0.0324254
-0.00259995
-0.0891015
-0.19827
-0.272123
-0.272859
-0.21109
-0.1458
-0.0909356
-0.0626081
-0.0479586
-0.0335094
-0.0386234
-0.047465
-0.0555403
-0.0575731
-0.0548125
-0.0457731
-0.0567337
-0.0541079
-0.0277192
-0.0031993
-0.505441
-0.46993
-0.406464
-0.306743
-0.189068
-0.083647
-0.00635378
0.0421154
0.0520241
0.0195914
-0.0723942
-0.18938
-0.266211
-0.268426
-0.209348
-0.145515
-0.091144
-0.0621657
-0.0472003
-0.0329132
-0.0383868
-0.0462307
-0.0541816
-0.0565291
-0.0550605
-0.046433
-0.0565042
-0.0533959
-0.0274294
-0.00367547
-0.499126
-0.464294
-0.40377
-0.309421
-0.194618
-0.0868127
-0.00406223
0.0506314
0.0679914
0.0407262
-0.0550212
-0.179225
-0.258515
-0.262508
-0.207116
-0.145127
-0.0914287
-0.0617867
-0.0464292
-0.0323421
-0.0384033
-0.0451912
-0.0528455
-0.0554453
-0.0552862
-0.0470197
-0.0561994
-0.0526462
-0.027094
-0.00408632
-0.491039
-0.455478
-0.396865
-0.307726
-0.196985
-0.0886998
-0.00232907
0.0568752
0.0809687
0.0594351
-0.0378094
-0.168182
-0.250452
-0.25576
-0.20306
-0.142563
-0.0900046
-0.0605885
-0.0451404
-0.0315353
-0.0379356
-0.04378
-0.0513909
-0.0542998
-0.0555017
-0.0477913
-0.0559662
-0.0519963
-0.0266496
-0.00439675
-0.47195
-0.439804
-0.379943
-0.29241
-0.184987
-0.0783492
0.00874377
0.0711068
0.0998944
0.0833855
-0.0196221
-0.163055
-0.249413
-0.250994
-0.19661
-0.136812
-0.0858846
-0.0579547
-0.0430791
-0.0303238
-0.0358475
-0.0399805
-0.0485286
-0.0523
-0.0559658
-0.0499503
-0.0560953
-0.0514506
-0.0259691
-0.00470808
-0.444352
-0.412309
-0.35201
-0.269587
-0.169987
-0.0689906
0.0151769
0.0772096
0.10864
0.0962512
-0.00684728
-0.153331
-0.238026
-0.237154
-0.184596
-0.128409
-0.0812394
-0.0550556
-0.0405288
-0.0293079
-0.0348203
-0.0393579
-0.046852
-0.0503945
-0.0555209
-0.0517956
-0.055218
-0.0501185
-0.0249946
-0.0053148
-0.415558
-0.383642
-0.324558
-0.248227
-0.157183
-0.0628801
0.017367
0.0781787
0.110269
0.0987443
-0.00172646
-0.143746
-0.223143
-0.220767
-0.171693
-0.119797
-0.0764233
-0.0520138
-0.0379431
-0.0282708
-0.0339667
-0.0392041
-0.0456921
-0.048614
-0.0544878
-0.053297
-0.0541125
-0.0484945
-0.0239284
-0.00594055
-0.386424
-0.355357
-0.298658
-0.228615
-0.146313
-0.0594947
0.0158419
0.073571
0.105913
0.095304
0.000408545
-0.133238
-0.205787
-0.202491
-0.157885
-0.110684
-0.0713204
-0.0488401
-0.0352605
-0.0271456
-0.0332363
-0.0389132
-0.044381
-0.0467005
-0.0532753
-0.054705
-0.0528814
-0.0465506
-0.0227153
-0.00653992
-0.357033
-0.327879
-0.274528
-0.21073
-0.137021
-0.058158
0.0114809
0.065637
0.0965974
0.0874044
0.00133199
-0.120836
-0.185883
-0.182706
-0.143454
-0.10129
-0.0659912
-0.0455317
-0.0324695
-0.0258703
-0.0325871
-0.0385924
-0.0429005
-0.0446513
-0.0519986
-0.0559434
-0.0514509
-0.0442443
-0.0213325
-0.00710663
-0.328013
-0.301574
-0.252274
-0.194538
-0.129002
-0.0582026
0.00532322
0.0552841
0.083989
0.0764087
0.00158774
-0.106524
-0.164192
-0.162143
-0.12879
-0.0917848
-0.0604825
-0.0420812
-0.0295559
-0.0243864
-0.031967
-0.0383015
-0.0413578
-0.0425133
-0.0505707
-0.0568824
-0.0497705
-0.0415486
-0.019746
-0.007624
-0.30007
-0.27667
-0.231848
-0.179911
-0.121959
-0.0590371
-0.0017304
0.0437254
0.0698084
0.0639787
0.00158352
-0.0910355
-0.141817
-0.141641
-0.114282
-0.082345
-0.054852
-0.038483
-0.0265038
-0.0226267
-0.0313068
-0.037995
-0.0397734
-0.0402705
-0.0488971
-0.0574204
-0.0478086
-0.038443
-0.0179205
-0.00806804
-0.273567
-0.253242
-0.213094
-0.166666
-0.115635
-0.0601972
-0.00900603
0.0319193
0.0554199
0.0515031
0.00144053
-0.075574
-0.120038
-0.122009
-0.100289
-0.0731251
-0.0491539
-0.0347313
-0.0232933
-0.0205165
-0.0305041
-0.0375613
-0.0380859
-0.0378616
-0.0469446
-0.0574526
-0.0455298
-0.0349157
-0.0158184
-0.00841018
-0.248673
-0.231297
-0.19582
-0.154603
-0.109835
-0.0613573
-0.0160254
0.02054
0.0417187
0.0397683
0.000933661
-0.0614144
-0.0999762
-0.103875
-0.0870857
-0.0642463
-0.0434387
-0.030822
-0.0199019
-0.0179738
-0.0294139
-0.0368271
-0.0361874
-0.0352172
-0.0446976
-0.0568552
-0.0428943
-0.0309666
-0.0134038
-0.00861746
-0.225469
-0.210813
-0.179852
-0.143539
-0.104415
-0.0623015
-0.0224267
0.0100264
0.029188
0.0290714
-0.00018864
-0.049416
-0.082336
-0.0876026
-0.0748472
-0.0557941
-0.0377526
-0.0267535
-0.0163062
-0.014911
-0.0278356
-0.0355398
-0.0339299
-0.0322611
-0.0421174
-0.0554858
-0.0398625
-0.0266102
-0.010646
-0.00865248
-0.204031
-0.191758
-0.165039
-0.133309
-0.0992691
-0.0628909
-0.0280398
0.000626692
0.0180218
0.0194844
-0.00195233
-0.0398654
-0.0673622
-0.0733009
-0.0636601
-0.0478238
-0.0321406
-0.0225299
-0.0124826
-0.0112462
-0.0255003
-0.0333468
-0.0311082
-0.0288954
-0.0391406
-0.0532115
-0.0363986
-0.021877
-0.00752515
-0.0084742
-0.184165
-0.174066
-0.151256
-0.123776
-0.0943115
-0.0630462
-0.0327716
-0.00755288
0.00826802
0.0110286
-0.00415742
-0.0325821
-0.0549528
-0.0609148
-0.053548
-0.0403679
-0.026648
-0.0181654
-0.0084115
-0.00691652
-0.022066
-0.0297862
-0.0274381
-0.0250033
-0.0356893
-0.0499042
-0.0324751
-0.0168158
-0.00403778
-0.00803993
-0.165879
-0.157688
-0.138415
-0.114832
-0.089477
-0.0627348
-0.0365868
-0.0144807
-8.4638e-05
0.00371307
-0.00653827
-0.027224
-0.0448416
-0.0502991
-0.044495
-0.0334443
-0.0213223
-0.0136878
-0.00408834
-0.00189864
-0.017134
-0.024312
-0.0225528
-0.0204739
-0.0316779
-0.0454742
-0.0280801
-0.0114969
-0.0002023
-0.00730822
-0.149089
-0.142581
-0.126455
-0.106398
-0.0847185
-0.0619528
-0.0394842
-0.0201726
-0.00708197
-0.0024799
-0.00886139
-0.0234783
-0.0367137
-0.0412734
-0.03646
-0.0270612
-0.0162135
-0.00913806
0.000460254
0.00376418
-0.0103114
-0.0163955
-0.0160459
-0.0152348
-0.0270277
-0.0398952
-0.0232255
-0.00601376
0.0039348
-0.00624336
-0.133715
-0.128651
-0.115328
-0.0984172
-0.0800081
-0.0606567
-0.0414918
-0.0246803
-0.012795
-0.0076019
-0.0109679
-0.0207516
-0.0302189
-0.0336466
-0.0293886
-0.0212192
-0.0113717
-0.0045715
0.00516637
0.00993301
-0.00132337
-0.00568682
-0.00758639
-0.00928618
-0.0216953
-0.0332321
-0.0179525
-0.000484905
0.00829262
-0.00482292
-0.119682
-0.115835
-0.104961
-0.0908593
-0.0753288
-0.058988
-0.0426791
-0.0280856
-0.0173172
-0.011731
-0.0127737
-0.0187612
-0.0250377
-0.0272336
-0.023216
-0.0159121
-0.00684005
-6.22942e-05
0.00992137
0.0163561
0.00979959
0.00775079
0.00288856
-0.00274435
-0.0157102
-0.0256536
-0.0123347
0.00495024
0.0127535
-0.00304419
-0.10691
-0.104084
-0.0953273
-0.0836889
-0.0706982
-0.0569561
-0.0431285
-0.0304907
-0.0207566
-0.0149556
-0.014234
-0.0172867
-0.0209103
-0.0218637
-0.0178696
-0.0111294
-0.00264818
0.00429613
0.0145857
0.0226796
0.0224396
0.0230812
0.0149266
0.00413002
-0.00918745
-0.0174278
-0.00648257
0.0101404
0.0171605
-0.000909412
-0.0953241
-0.0933448
-0.0863943
-0.0768936
-0.0661176
-0.0546185
-0.0429333
-0.0320113
-0.0232314
-0.0173674
-0.0153389
-0.0161572
-0.0176181
-0.0173821
-0.0132725
-0.00685869
0.00118693
0.00840404
0.0189986
0.0285324
0.0351464
0.0382971
0.0273038
0.0110477
-0.00230381
-0.0089048
-0.000550578
0.0149312
0.0213161
0.00148946
-0.0848521
-0.0835645
-0.078139
-0.0704741
-0.0616122
-0.0520399
-0.042194
-0.0327715
-0.0248675
-0.0190536
-0.0161058
-0.0152409
-0.0149781
-0.0136519
-0.00934651
-0.0030868
0.00465296
0.0121672
0.0229947
0.0336201
0.0458974
0.0508777
0.0382885
0.0178677
0.00471117
-0.000490199
0.00525715
0.0191718
0.0249945
0.00401335
-0.0754244
-0.0746937
-0.070543
-0.0644386
-0.0572159
-0.0492902
-0.0410153
-0.0328977
-0.0257979
-0.0201287
-0.0165406
-0.0144415
-0.0128405
-0.0105541
-0.00601534
0.000201431
0.00773714
0.0154998
0.0264096
0.0376947
0.0531909
0.0593507
0.0466143
0.0244988
0.0115302
0.00738326
0.0107029
0.0227281
0.0279554
0.00649434
-0.0669772
-0.066688
-0.0635917
-0.0588004
-0.0529689
-0.0464414
-0.0395013
-0.0325144
-0.0261482
-0.0206924
-0.0166891
-0.0137006
-0.0110868
-0.00798729
-0.0032074
0.00302527
0.0104257
0.0183405
0.0291258
0.0405898
0.0566111
0.0635189
0.0520477
0.0305789
0.0177363
0.0143234
0.0155917
0.0255191
0.0299723
0.0087248
-0.0594533
-0.0595081
-0.0572744
-0.0535769
-0.0489148
-0.0435662
-0.0377538
-0.0317399
-0.0260393
-0.0208383
-0.0165966
-0.0129863
-0.00962632
-0.00586581
-0.000858003
0.00541025
0.0127101
0.0206626
0.0311167
0.0423165
0.0570757
0.0644546
0.0549765
0.035596
0.0230011
0.0200714
0.0197934
0.0275482
0.0309091
0.0105057
-0.0528031
-0.0531205
-0.0515844
-0.048788
-0.0450991
-0.0407357
-0.0358701
-0.0306906
-0.0255779
-0.0206554
-0.0163092
-0.0122854
-0.00839276
-0.00411835
0.00109001
0.0073882
0.0145948
0.0224766
0.0324378
0.0430449
0.0558811
0.0633008
0.0559527
0.0392745
0.0272291
0.0245769
0.0232468
0.0288613
0.030762
0.0117109
-0.0469857
-0.0474992
-0.0465199
-0.0444568
-0.0415683
-0.0380194
-0.0339405
-0.0294796
-0.0248575
-0.0202291
-0.0158761
-0.011599
-0.00734029
-0.00268584
0.00268665
0.00899657
0.0160994
0.023826