/*--------------------------------*- C++ -*----------------------------------*\
  =========                 |
  \\      /  F ield         | OpenFOAM: The Open Source CFD Toolbox
   \\    /   O peration     | Website:  https://openfoam.org
    \\  /    A nd           | Version:  7
     \\/     M anipulation  |
\*---------------------------------------------------------------------------*/
FoamFile
{
    version     2.0;
    format      ascii;
    class       surfaceScalarField;
    location    "295";
    object      phi;
}
// * * * * * * * * * * * * * * * * * * * * * * * * * * * * * * * * * * * * * //

dimensions      [0 3 -1 0 0 0 0];

internalField   nonuniform List<scalar> 
16735
(
-0.000149212
0.000319832
-0.00017062
-0.000507142
-3.56911e-05
0.000393621
-0.00103524
-0.00106523
0.00159332
-0.00170618
-0.00249837
0.00316931
-0.00249547
-0.00417398
0.00496327
-0.0033773
-0.00607728
0.00695911
-0.0043267
-0.00830214
0.00925154
-0.00532655
-0.0109733
0.0119732
-0.00637126
-0.0141906
0.0152353
-0.018034
0.0191314
-0.00746871
-0.000162126
0.000481959
-0.000552419
0.000354602
-0.00112868
-0.000488965
-0.00185991
-0.00176713
-0.00271965
-0.00331424
-0.00368304
-0.00511389
-0.00472905
-0.00725613
-0.00584721
-0.00985515
-0.00704243
-0.0129954
-0.0167332
-0.00834326
-0.000169857
0.000651816
-0.000581245
0.00076599
-0.00118965
0.000119436
-0.0019607
-0.000996082
-0.00286551
-0.00240943
-0.00387878
-0.00410062
-0.00498048
-0.00615443
-0.00616209
-0.00867354
-0.00743342
-0.011724
-0.015332
-0.00883456
-0.000171613
0.000823429
-0.000591252
0.00118563
-0.00121386
0.000742043
-0.00200223
-0.000207712
-0.00292462
-0.00148704
-0.00395368
-0.00307155
-0.00506716
-0.00504095
-0.00625305
-0.00748766
-0.00751929
-0.0104578
-0.0139462
-0.00890514
-0.000166939
0.000990368
-0.000581005
0.00159969
-0.00119864
0.00135968
-0.00198051
0.000574158
-0.00289162
-0.00057594
-0.00390102
-0.00206215
-0.00498096
-0.00396101
-0.00611034
-0.00635827
-0.00728791
-0.00928022
-0.0126985
-0.00853562
-0.000155755
0.00114612
-0.0005501
0.00199404
-0.00114307
0.00195265
-0.00189403
0.00132512
-0.00276433
0.000294363
-0.00371813
-0.00110835
-0.00471938
-0.00295977
-0.00573249
-0.00534516
-0.00674023
-0.00827248
-0.0117123
-0.00772637
-0.000138389
0.00128451
-0.00049923
0.00235488
-0.00104807
0.00250149
-0.00174373
0.00202078
-0.00254389
0.00109452
-0.00340637
-0.00024586
-0.00428511
-0.00208103
-0.00512542
-0.00450486
-0.00588906
-0.00750884
-0.0111034
-0.00649803
-0.000115572
0.00140009
-0.000430211
0.00266952
-0.000916483
0.00298776
-0.00153337
0.00263766
-0.00223458
0.00179573
-0.00297095
0.000490509
-0.00368546
-0.00136653
-0.00430116
-0.00388915
-0.00475615
-0.00705385
-0.0109691
-0.00489041
-8.84189e-05
0.0014885
-0.000345942
0.00292704
-0.000753039
0.00339486
-0.00126928
0.0031539
-0.001844
0.00237045
-0.00242122
0.00106773
-0.0029316
-0.000856147
-0.0032759
-0.00354485
-0.00336791
-0.00696184
-0.0113771
-0.00295995
-5.8368e-05
0.00154687
-0.000250307
0.00311898
-0.000564272
0.00370882
-0.000960519
0.00355015
-0.00138381
0.00279375
-0.00176983
0.00145375
-0.00203883
-0.000587144
-0.00206767
-0.00351602
-0.00174258
-0.00728693
-0.0123256
-0.000794036
-2.70954e-05
0.00157397
-0.000147968
0.00323985
-0.000358257
0.00391911
-0.000618588
0.00381048
-0.000868545
0.0030437
-0.00103439
0.00161959
-0.0010279
-0.000593627
-0.000710302
-0.00383362
0.00018483
-0.00818206
-0.0137924
0.00165164
3.55288e-06
0.00157041
-4.40551e-05
0.00328746
-0.000144152
0.00401921
-0.000256878
0.00392321
-0.000315905
0.00310273
-0.000236846
0.00154053
8.74175e-05
-0.00091789
0.000773417
-0.00451962
0.002116
-0.00952464
-0.0160243
0.00434783
3.20321e-05
0.00153838
5.6212e-05
0.00326328
6.83187e-05
0.0040071
0.000109743
0.00388178
0.000254376
0.0029581
0.000598871
0.00119604
0.0012611
-0.00158012
0.00239456
-0.00565308
0.0042642
-0.0113943
-0.0189467
0.00718664
5.6591e-05
0.00148179
0.000148157
0.00317171
0.000270824
0.00388444
0.00046921
0.0036834
0.000825333
0.00260198
0.00145022
0.000571153
0.00248064
-0.00261055
0.00407608
-0.00724852
0.00653844
-0.0138566
-0.022525
0.0101167
7.6183e-05
0.00140561
0.000228003
0.00301989
0.000455393
0.00365705
0.000808307
0.00333048
0.00137882
0.00203146
0.00229444
-0.000344468
0.00371464
-0.00403074
0.00580206
-0.00933594
0.00889034
-0.0169449
-0.0266919
0.0130573
9.01807e-05
0.00131543
0.000293495
0.00281658
0.00061766
0.00333288
0.00112053
0.00282761
0.00190625
0.00124574
0.0031209
-0.00155912
0.00494842
-0.00585826
0.00755844
-0.011946
0.0112756
-0.0206621
-0.0313305
0.0159142
9.86071e-05
0.00121682
0.000344328
0.00257086
0.000756757
0.00292045
0.00140484
0.00217952
0.00240749
0.000243098
0.00393121
-0.00308284
0.00618182
-0.00810887
0.00934116
-0.0151053
0.013645
-0.0249659
-0.0362782
0.0185927
0.000102155
0.00111467
0.000382273
0.00229074
0.000875931
0.00242679
0.00166692
0.00138854
0.00289241
-0.000982398
0.00474043
-0.00493085
0.00742959
-0.010798
0.0111498
-0.0188255
0.0159362
-0.0297524
-0.0413504
0.0210084
0.000102135
0.00101253
0.000411089
0.00198179
0.000982382
0.0018555
0.00191889
0.00045203
0.00337945
-0.00244296
0.00557325
-0.00712465
0.00871518
-0.01394
0.0129747
-0.023085
0.0180747
-0.0348524
-0.0463755
0.0230999
0.00010034
0.000912192
0.00043611
0.00164602
0.00108641
0.0012052
0.00217739
-0.00063895
0.00389206
-0.00415763
0.00645585
-0.00968844
0.010057
-0.0175412
0.0147795
-0.0278075
0.0199939
-0.0400668
-0.0512361
0.0248545
9.88335e-05
0.000813358
0.00046358
0.00128127
0.00119996
0.000468825
0.00246081
-0.0018998
0.00445316
-0.00614998
0.00740594
-0.0126412
0.0114496
-0.0215848
0.0164982
-0.0328561
0.0217534
-0.045322
-0.0572436
0.0277609
9.96918e-05
0.000713666
0.000499817
0.000881144
0.00133484
-0.000366203
0.00278597
-0.00335093
0.00507939
-0.00844339
0.00842471
-0.0159865
0.0128542
-0.0260143
0.0180675
-0.0380693
0.0233777
-0.0506322
-0.0626021
0.0287361
0.000104741
0.000608926
0.000550355
0.00043553
0.00150088
-0.00131673
0.0031648
-0.00501485
0.00577624
-0.0110548
0.00949284
-0.0197031
0.0142067
-0.0307282
0.019431
-0.0432937
0.0245225
-0.0557237
-0.0672158
0.0291362
0.000115346
0.000493579
0.000619245
-6.83689e-05
0.00170447
-0.00240196
0.00360198
-0.00691236
0.00653521
-0.0139881
0.0105716
-0.0237395
0.015437
-0.0355936
0.0205154
-0.0483721
0.0252082
-0.0604165
-0.0712385
0.0292309
0.000132299
0.00036128
0.000708644
-0.000644714
0.00194774
-0.00364105
0.0040938
-0.00905842
0.00733384
-0.0172281
0.0116087
-0.0280144
0.0164808
-0.0404656
0.0212759
-0.0531672
0.0254973
-0.0646379
-0.0746906
0.0289494
0.000155808
0.000205473
0.000818748
-0.00130765
0.00222851
-0.00505082
0.00462848
-0.0114584
0.00813863
-0.0207382
0.0125487
-0.0324244
0.0172899
-0.0452069
0.0217048
-0.0575822
0.0254219
-0.0683549
-0.0776278
0.0283591
0.000185583
1.98896e-05
0.000948036
-0.00207011
0.00254073
-0.00664351
0.00518756
-0.0141052
0.00891016
-0.0244608
0.0133421
-0.0368564
0.0178382
-0.0497029
0.0218154
-0.0615594
0.0250382
-0.0715777
-0.0801156
0.027526
0.000220982
-0.000201093
0.00109366
-0.00294278
0.00287534
-0.00842519
0.00574798
-0.0169779
0.00960894
-0.0283218
0.0139534
-0.0412009
0.0181205
-0.0538699
0.0216385
-0.0650774
0.0243994
-0.0743386
-0.0822166
0.0265004
0.000261161
-0.000462254
0.00125184
-0.00393346
0.00322116
-0.0103945
0.0062847
-0.0200414
0.0102007
-0.0322378
0.0143628
-0.045363
0.0181486
-0.0576556
0.0212129
-0.0681417
0.0235564
-0.0766821
-0.0839913
0.0253311
0.000305177
-0.000767431
0.00141825
-0.00504654
0.00356573
-0.012542
0.00677322
-0.0232489
0.0106601
-0.0361247
0.0145656
-0.0492685
0.0179454
-0.0610355
0.0205795
-0.0707758
0.0225546
-0.0786572
-0.0854908
0.0240541
0.000352046
-0.00111948
0.00158818
-0.00628267
0.00389608
-0.0148499
0.0071919
-0.0265447
0.0109719
-0.0399048
0.0145689
-0.0528655
0.0175399
-0.0640064
0.0197779
-0.0730138
0.0214321
-0.0803114
-0.0867576
0.0226989
0.000400758
-0.00152023
0.0017567
-0.00763861
0.00419948
-0.0172927
0.00752373
-0.029869
0.0111308
-0.0435119
0.0143885
-0.0561231
0.016963
-0.066581
0.0188435
-0.0748943
0.02022
-0.0816879
-0.087825
0.0212874
0.000450259
-0.00197049
0.00191874
-0.00910709
0.00446427
-0.0198382
0.00775731
-0.033162
0.0111398
-0.0468943
0.0140445
-0.0590279
0.0162451
-0.0687815
0.0178072
-0.0764564
0.018943
-0.0828238
-0.088718
0.019836
0.000499438
-0.00246993
0.00206924
-0.0106769
0.00468054
-0.0224495
0.00788699
-0.0363684
0.0110079
-0.0500152
0.0135597
-0.0615797
0.0154141
-0.070636
0.0166944
-0.0777367
0.0176201
-0.0837494
-0.0894547
0.0183569
0.000547126
-0.00301706
0.00220336
-0.0123331
0.00484074
-0.0250869
0.00791235
-0.0394401
0.0107481
-0.052851
0.0129567
-0.0637882
0.0144949
-0.0721742
0.0155262
-0.078768
0.016266
-0.0844892
-0.0900478
0.0168591
0.000592118
-0.00360918
0.00231667
-0.0140577
0.00494001
-0.0277102
0.00783725
-0.0423373
0.0103758
-0.0553896
0.0122571
-0.0656695
0.0135087
-0.0734259
0.0143192
-0.0795785
0.0148918
-0.0850618
-0.0905055
0.0153495
0.000633216
-0.00424239
0.00240542
-0.0158299
0.00497622
-0.030281
0.0076687
-0.0450298
0.00990698
-0.0576279
0.0114806
-0.0672431
0.0124735
-0.0744187
0.0130865
-0.0801915
0.0135057
-0.0854809
-0.0908331
0.0138333
0.000669273
-0.00491167
0.00246671
-0.0176273
0.0049498
-0.0327641
0.00741575
-0.0474957
0.00935746
-0.0595696
0.0106446
-0.0685303
0.0114038
-0.0751779
0.0118383
-0.0806261
0.0121141
-0.0857567
-0.0910337
0.0123146
0.000699244
-0.00561091
0.00249865
-0.0194267
0.00486327
-0.0351287
0.00708857
-0.049721
0.00874221
-0.0612232
0.00976429
-0.0695523
0.0103116
-0.0757252
0.0105826
-0.080897
0.010722
-0.0858961
-0.0911088
0.0107971
0.000722232
-0.00633314
0.00250034
-0.0212048
0.00472074
-0.0373491
0.00669769
-0.051698
0.00807489
-0.0626004
0.00885235
-0.0703298
0.00920653
-0.0760794
0.00932541
-0.0810159
0.00933314
-0.0859038
-0.0910596
0.00928393
0.000737518
-0.00707066
0.00247189
-0.0229392
0.00452745
-0.0394047
0.0062535
-0.053424
0.00736768
-0.0637146
0.00791948
-0.0708816
0.00809614
-0.076256
0.00807164
-0.0809914
0.00795076
-0.085783
-0.0908862
0.00777738
0.000744585
-0.00781524
0.00241424
-0.0246089
0.00428925
-0.0412797
0.00576586
-0.0549006
0.00663123
-0.06458
0.00697451
-0.0712249
0.00698643
-0.076268
0.00682492
-0.0808299
0.00657741
-0.0855354
-0.0905875
0.00627866
0.000743121
-0.00855836
0.00232905
-0.0261948
0.00401225
-0.0429629
0.00524386
-0.0561323
0.00587477
-0.0652109
0.00602472
-0.0713748
0.00588214
-0.0761254
0.00558803
-0.0805358
0.0052151
-0.0851625
-0.0901619
0.00478952
0.000733019
-0.00929138
0.00221848
-0.0276803
0.00370252
-0.0444469
0.00469571
-0.0571254
0.00510612
-0.0656213
0.00507608
-0.0713448
0.00478728
-0.0758366
0.0043634
-0.0801119
0.00386486
-0.084664
-0.0896078
0.00331081
0.000714369
-0.0100058
0.00208503
-0.0290509
0.00336592
-0.0457278
0.0041287
-0.0578882
0.00433189
-0.0658245
0.0041335
-0.0711464
0.00370548
-0.0754086
0.00315442
-0.0795608
0.00252693
-0.0840365
-0.0889206
0.00183973
0.000687473
-0.0106932
0.00193166
-0.0302951
0.00300796
-0.0468041
0.00354921
-0.0584295
0.00355754
-0.0658328
0.00320074
-0.0707896
0.00263943
-0.0748472
0.0019655
-0.0788869
0.00120549
-0.0832765
-0.0880718
0.000356662
0.000652804
-0.011346
0.00176134
-0.0314036
0.00263373
-0.0476765
0.00296279
-0.0587585
0.00278764
-0.0656577
0.00228086
-0.0702828
0.00159039
-0.0741568
0.000795248
-0.0780918
-6.38999e-05
-0.0824173
-0.0870827
-0.00105297
0.000610966
-0.011957
0.0015769
-0.0323696
0.00224785
-0.0483475
0.00237421
-0.0588849
0.00202597
-0.0653094
0.00137656
-0.0696334
0.000559672
-0.0733399
-0.000359891
-0.0771722
-0.0013646
-0.0814126
-0.0860065
-0.00244085
0.000562675
-0.0125197
0.0013811
-0.033188
0.00185447
-0.0488209
0.00178751
-0.0588179
0.00127555
-0.0647975
0.000489612
-0.0688475
-0.000448689
-0.0724016
-0.00148208
-0.0761388
-0.00261483
-0.0802799
-0.0848065
-0.00381479
0.000508738
-0.0130284
0.0011766
-0.0338559
0.00145735
-0.0491016
0.00120596
-0.0585665
0.000539063
-0.0641306
-0.000377302
-0.0679311
-0.00143128
-0.0713476
-0.00258575
-0.0749843
-0.00383818
-0.0790274
-0.0834785
-0.00516616
0.000450018
-0.0134784
0.000966013
-0.0343719
0.00105983
-0.0491954
0.000632486
-0.0581392
-0.000181444
-0.0633166
-0.00122132
-0.0668912
-0.00239252
-0.0701764
-0.00366418
-0.0737127
-0.00503587
-0.0776557
-0.0820237
-0.00649068
0.000387371
-0.0138658
0.000751865
-0.0347363
0.000664782
-0.0491083
7.47552e-05
-0.0575492
-0.000882948
-0.0623589
-0.00204482
-0.0657294
-0.00332978
-0.0688914
-0.00471599
-0.0723265
-0.00620646
-0.0761653
-0.0804442
-0.00778595
0.000321666
-0.0141875
0.000536487
-0.0349512
0.000277049
-0.0488489
-0.000480231
-0.0567919
-0.00156759
-0.0612716
-0.00284589
-0.0644511
-0.00424183
-0.0674955
-0.00574026
-0.070828
-0.00734818
-0.0745574
-0.0787424
-0.00904997
0.000254203
-0.0144417
0.000321621
-0.0350186
-0.000101116
-0.0484262
-0.00101582
-0.0558772
-0.00223283
-0.0600546
-0.00362375
-0.0630601
-0.0051279
-0.0659914
-0.00673629
-0.0692197
-0.00845963
-0.072834
-0.0769222
-0.0102798
0.000185677
-0.0146273
0.000114235
-0.0349471
-0.000493225
-0.0478187
-0.00153998
-0.0548304
-0.00287758
-0.058717
-0.0043776
-0.0615601
-0.00598737
-0.0643816
-0.00770348
-0.0675035
-0.0095395
-0.070998
-0.0749904
-0.0114714
0.000114098
-0.0147414
-9.88793e-05
-0.0347342
-0.000863754
-0.0470538
-0.00204848
-0.0536457
-0.00350133
-0.0572641
-0.00510674
-0.0599547
-0.00681959
-0.0626687
-0.00864108
-0.0656821
-0.0105865
-0.0690525
-0.0729523
-0.0126246
3.74879e-05
-0.0147789
-0.00032656
-0.0343701
-0.00122535
-0.046155
-0.00253946
-0.0523316
-0.00410337
-0.0557002
-0.00581077
-0.0582473
-0.0076242
-0.0608553
-0.00954859
-0.0637577
-0.011601
-0.0670001
-0.0708047
-0.0137486
-3.72748e-05
-0.0147417
-0.0005392
-0.0338682
-0.001576
-0.0451182
-0.00301242
-0.0508952
-0.00468287
-0.0540297
-0.00648932
-0.0564409
-0.00840162
-0.058943
-0.0104273
-0.061732
-0.0125826
-0.0648448
-0.0685453
-0.014842
-0.000108416
-0.0146332
-0.000743522
-0.0332331
-0.00191422
-0.0439475
-0.00346692
-0.0493425
-0.00523919
-0.0522575
-0.00714183
-0.0545382
-0.00915253
-0.0569323
-0.0112811
-0.0596034
-0.0135273
-0.0625986
-0.0661936
-0.0158791
-0.000180026
-0.0144532
-0.000940856
-0.0324723
-0.00223918
-0.0426492
-0.0039023
-0.0476794
-0.00577165
-0.0503881
-0.0077672
-0.0525427
-0.0098746
-0.0548249
-0.0121077
-0.0573703
-0.0144738
-0.0602326
-0.0639096
-0.0167577
-0.00025033
-0.0142029
-0.00113122
-0.0315914
-0.00255036
-0.04123
-0.00431804
-0.0459117
-0.00627979
-0.0484264
-0.00836437
-0.0504581
-0.0105624
-0.0526269
-0.0128745
-0.0550582
-0.0152594
-0.0578477
-0.0610654
-0.0181036
-0.00031875
-0.0138841
-0.0013142
-0.0305959
-0.00284735
-0.0396969
-0.0047138
-0.0440453
-0.00676346
-0.0463767
-0.00893274
-0.0482888
-0.0112124
-0.0503472
-0.0135975
-0.0526731
-0.0161064
-0.0553387
-0.058247
-0.0189248
-0.000384932
-0.0134992
-0.00148933
-0.0294915
-0.0031298
-0.0380564
-0.00508931
-0.0420857
-0.00722238
-0.0442436
-0.00947228
-0.0460389
-0.0118322
-0.0479873
-0.0143066
-0.0501988
-0.0169315
-0.0527137
-0.0554122
-0.0197664
-0.000448593
-0.0130506
-0.00165617
-0.028284
-0.00339739
-0.0363152
-0.0054443
-0.0400388
-0.00765609
-0.0420319
-0.00998207
-0.0437129
-0.0124182
-0.0455511
-0.0149747
-0.0476423
-0.0176834
-0.050005
-0.0525324
-0.0205633
-0.000509482
-0.0125411
-0.00181434
-0.0269791
-0.00364984
-0.0344797
-0.0057786
-0.0379101
-0.00806449
-0.039746
-0.0104625
-0.0413149
-0.0129718
-0.0430418
-0.0156057
-0.0450085
-0.018389
-0.0472217
-0.0495944
-0.021327
-0.000567375
-0.0119738
-0.00196353
-0.025583
-0.00388692
-0.0325563
-0.00609204
-0.035705
-0.00844741
-0.0373906
-0.0109133
-0.038849
-0.0134917
-0.0404634
-0.0161969
-0.0423033
-0.0190491
-0.0443694
-0.0465924
-0.0220511
-0.000622071
-0.0113517
-0.00210345
-0.0241016
-0.00410844
-0.0305513
-0.00638452
-0.0334289
-0.00880477
-0.0349703
-0.0113343
-0.0363195
-0.0139775
-0.0378203
-0.0167489
-0.0395318
-0.0196664
-0.041452
-0.0435256
-0.0227332
-0.000673392
-0.0106783
-0.00223388
-0.0225411
-0.00431425
-0.028471
-0.00665593
-0.0310872
-0.00913646
-0.0324898
-0.0117254
-0.0337305
-0.0144289
-0.0351168
-0.0172619
-0.0366988
-0.020241
-0.0384728
-0.0403954
-0.0233712
-0.000721182
-0.00995711
-0.00235463
-0.0209076
-0.00450421
-0.0263214
-0.00690622
-0.0286852
-0.0094424
-0.0299536
-0.0120863
-0.0310867
-0.0148457
-0.0323574
-0.0177358
-0.0338087
-0.0207727
-0.0354359
-0.0372049
-0.0239632
-0.000765304
-0.0091918
-0.00246553
-0.0192074
-0.00467824
-0.0241087
-0.00713532
-0.0262281
-0.00972251
-0.0273664
-0.0124169
-0.0283922
-0.0152277
-0.0295467
-0.0181704
-0.030866
-0.021261
-0.0323452
-0.0339579
-0.024508
-0.00080564
-0.00838616
-0.00256644
-0.0174466
-0.00483623
-0.0218389
-0.00734317
-0.0237212
-0.00997673
-0.0247329
-0.0127171
-0.0256518
-0.0155747
-0.0266891
-0.0185654
-0.0278753
-0.0217053
-0.0292053
-0.030659
-0.0250043
-0.000842087
-0.00754408
-0.00265725
-0.0156314
-0.00497812
-0.019518
-0.00752975
-0.0211695
-0.010205
-0.0220576
-0.0129868
-0.02287
-0.0158866
-0.0237893
-0.0189206
-0.0248413
-0.0221051
-0.0260208
-0.027313
-0.0254512
-0.000874559
-0.00666952
-0.00273787
-0.0137681
-0.00510387
-0.017152
-0.00769501
-0.0185784
-0.0104072
-0.0193455
-0.0132259
-0.0200513
-0.0161632
-0.0208519
-0.0192358
-0.0217688
-0.02246
-0.0227966
-0.023925
-0.025848
-0.00090298
-0.00576654
-0.00280821
-0.0118629
-0.00521343
-0.0147468
-0.00783893
-0.0159529
-0.0105833
-0.0166011
-0.0134341
-0.0172005
-0.0164043
-0.0178818
-0.0195105
-0.0186625
-0.0227694
-0.0195377
-0.0205003
-0.0261941
-0.000927286
-0.00483925
-0.0028682
-0.00992198
-0.00530675
-0.0123082
-0.00796148
-0.0132982
-0.0107334
-0.0138292
-0.0136116
-0.0143223
-0.0166097
-0.0148837
-0.0197448
-0.0155274
-0.0230333
-0.0162492
-0.0170443
-0.0264893
-0.000947426
-0.00389182
-0.00291779
-0.00795162
-0.00538381
-0.00984222
-0.00806265
-0.0106193
-0.0108572
-0.0110346
-0.0137581
-0.0114213
-0.0167794
-0.0118624
-0.0199383
-0.0123686
-0.0232513
-0.0129362
-0.0135624
-0.0267331
-0.000963356
-0.00292847
-0.00295694
-0.00595803
-0.00544458
-0.00735459
-0.0081424
-0.00792149
-0.0109549
-0.00822213
-0.0138737
-0.00850251
-0.0169133
-0.00882279
-0.020091
-0.00919089
-0.0234233
-0.00960392
-0.0100602
-0.0269255
-0.000975045
-0.00195342
-0.00298561
-0.00394747
-0.00548904
-0.00485116
-0.00820073
-0.0052098
-0.0110263
-0.00539656
-0.0139583
-0.00557053
-0.0170113
-0.00576977
-0.0202028
-0.00599939
-0.0235492
-0.00625747
-0.00654311
-0.0270664
-0.000982467
-0.000970956
-0.00300378
-0.00192616
-0.00551717
-0.00233776
-0.00823763
-0.00248934
-0.0110715
-0.0025627
-0.0140118
-0.00263024
-0.0170733
-0.00270823
-0.0202736
-0.00279911
-0.023629
-0.00290206
-0.0030165
-0.0271556
-0.000985607
1.46507e-05
-0.00301142
9.96562e-05
-0.00552898
0.000179794
-0.00825309
0.00023477
-0.0110904
0.000274636
-0.0140342
0.000313557
-0.0170994
0.00035692
-0.0203034
0.000404877
-0.0236626
0.000457196
0.000513503
-0.0271926
-0.000984458
0.000999108
-0.00300853
0.00212373
-0.00552443
0.0026957
-0.00824709
0.00295742
-0.0110831
0.00311062
-0.0140256
0.00325606
-0.0170895
0.00342081
-0.0202922
0.00360766
-0.0236503
0.00381527
0.00404325
-0.0271801
-0.000979019
0.00197813
-0.00299511
0.00413982
-0.00550354
0.00520413
-0.00821963
0.00567351
-0.0110495
0.00594045
-0.0139858
0.00619243
-0.0170435
0.00647851
-0.0202401
0.00680419
-0.0235918
0.00716705
0.00756637
-0.027115
-0.000969299
0.00294743
-0.00297116
0.00614169
-0.0054663
0.00769927
-0.00817071
0.00837791
-0.0109895
0.00875929
-0.013915
0.00911788
-0.0169616
0.00952514
-0.0201468
0.00998942
-0.0234871
0.0105073
0.0110775
-0.0269983
-0.000955315
0.00390274
-0.0029367
0.00812307
-0.00541271
0.0101753
-0.00810031
0.0110655
-0.0109034
0.0115623
-0.0138131
0.0120276
-0.0168437
0.0125558
-0.0200127
0.0131583
-0.0233364
0.013831
0.0145713
-0.0268302
-0.000937092
0.00483983
-0.00289174
0.0100777
-0.00534276
0.0126263
-0.00800844
0.0137312
-0.0107909
0.0143448
-0.0136801
0.0149168
-0.0166899
0.0155656
-0.0198375
0.016306
-0.0231395
0.017133
0.0180424
-0.0266106
-0.000914665
0.0057545
-0.00283632
0.0119994
-0.00525648
0.0150465
-0.00789508
0.0163698
-0.0106521
0.0171018
-0.0135161
0.0177807
-0.0165002
0.0185497
-0.0196216
0.0194273
-0.0228967
0.0204081
0.0214854
-0.0263397
-0.000888076
0.00664257
-0.00277047
0.0138818
-0.00515387
0.0174299
-0.00776025
0.0189762
-0.0104871
0.0198287
-0.013321
0.0206146
-0.0162747
0.0215033
-0.0193648
0.0225175
-0.022608
0.0236513
0.0248949
-0.0260175
-0.00085738
0.00749995
-0.00269425
0.0157186
-0.00503494
0.0197706
-0.00760394
0.0215452
-0.0102959
0.0225207
-0.0130951
0.0234138
-0.0160134
0.0244217
-0.0190675
0.0255715
-0.0222736
0.0268575
0.0282656
-0.0256443
-0.000822642
0.0083226
-0.00260771
0.0175037
-0.00489973
0.0220626
-0.00742615
0.0240716
-0.0100784
0.0251729
-0.0128382
0.0261737
-0.0157166
0.0273
-0.0187297
0.0285846
-0.0218939
0.0300217
0.0315921
-0.0252204
-0.00078394
0.00910654
-0.00251094
0.0192307
-0.00474826
0.0242999
-0.00722689
0.0265502
-0.00983474
0.0277808
-0.0125506
0.0288895
-0.0153842
0.0301337
-0.0183517
0.0315521
-0.021469
0.0331391
0.0348695
-0.0247464
-0.000741363
0.0098479
-0.00240403
0.0208934
-0.00458057
0.0264764
-0.00700617
0.0289758
-0.00956491
0.0303395
-0.0122322
0.0315568
-0.0150166
0.0329181
-0.0179336
0.0344691
-0.0209996
0.036205
0.0380928
-0.0242229
-0.000695018
0.0105429
-0.00228709
0.0224854
-0.00439672
0.0285861
-0.006764
0.0313431
-0.00926894
0.0328445
-0.0118831
0.0341709
-0.0146137
0.0356487
-0.0174759
0.0373313
-0.0204859
0.039215
0.0412577
-0.0236508
-0.000645027
0.0111879
-0.00216026
0.0240007
-0.00419677
0.0306226
-0.00650042
0.0336467
-0.00894689
0.0352909
-0.0115036
0.0367276
-0.0141758
0.0383209
-0.0169786
0.0401341
-0.0199285
0.0421648
0.0443603
-0.023031
-0.000591534
0.0117795
-0.0020237
0.0254328
-0.00398082
0.0325797
-0.00621544
0.0358814
-0.00859879
0.0376743
-0.0110935
0.0392224
-0.0137031
0.0409305
-0.016442
0.042873
-0.0193279
0.0450507
0.0473974
-0.0223649
-0.000534701
0.0123142
-0.00187761
0.0267758
-0.00374897
0.0344511
-0.00590913
0.0380415
-0.0082247
0.0399898
-0.0106532
0.0416509
-0.0131956
0.0434729
-0.0158659
0.0455433
-0.0186842
0.047869
0.0503672
-0.021654
-0.000474712
0.0127889
-0.00172222
0.0280233
-0.00350138
0.0362302
-0.00558153
0.0401217
-0.00782467
0.042233
-0.0101828
0.044009
-0.0126537
0.0459438
-0.0152505
0.0481401
-0.0179972
0.0506157
0.05327
-0.0209001
-0.000411777
0.0132007
-0.00155782
0.0291693
-0.00323822
0.0379106
-0.00523274
0.0421162
-0.00739876
0.044399
-0.00968223
0.0462925
-0.0120777
0.0483393
-0.014595
0.0506573
-0.0172645
0.0532853
0.0561105
-0.020105
-0.000346126
0.0135468
-0.00138475
0.0302079
-0.00295972
0.0394856
-0.00486289
0.0440194
-0.00694711
0.0464832
-0.00915187
0.0484972
-0.0114686
0.0506561
-0.0139017
0.0530904
-0.0164852
0.0558688
0.0588998
-0.0192745
-0.00027802
0.0138248
-0.0012034
0.0311333
-0.00266615
0.0409483
-0.00447213
0.0458253
-0.00646978
0.0484809
-0.00859137
0.0506188
-0.0108255
0.0528902
-0.0131677
0.0554326
-0.0156353
0.0583363
0.0616632
-0.0183986
-0.000207763
0.0140326
-0.00101424
0.0319398
-0.00235779
0.0422919
-0.00406069
0.0475282
-0.00596715
0.0503873
-0.00800142
0.0526531
-0.0101511
0.0550399
-0.0124162
0.0576977
-0.0147583
0.0606785
0.0644401
-0.0175353
-0.000135791
0.0141684
-0.000817711
0.0326217
-0.00203501
0.0435092
-0.00362884
0.0491221
-0.00543949
0.052198
-0.00738218
0.0545958
-0.00943928
0.057097
-0.0116232
0.0598816
-0.0139439
0.0629992
0.0667197
-0.0162235
-6.31297e-05
0.0142315
-0.000614071
0.0331726
-0.00169818
0.0445933
-0.00317692
0.0506008
-0.00488692
0.053908
-0.00673418
0.056443
-0.0086931
0.0590559
-0.0107727
0.0619611
-0.0129758
0.0652024
0.0690438
-0.0152999
6.63751e-06
0.0142249
-0.000402617
0.0335819
-0.00134795
0.0455386
-0.00270545
0.0519583
-0.00430981
0.0555123
-0.00605829
0.0581915
-0.00791716
0.0609148
-0.00989317
0.0639371
-0.0120042
0.0673134
0.0712683
-0.0142287
8.84906e-05
0.0141364
-0.00017969
0.0338501
-0.000985369
0.0463443
-0.00221498
0.0531879
-0.00370877
0.0570061
-0.00535542
0.0598382
-0.00711342
0.0626728
-0.00898667
0.0658104
-0.0109933
0.06932
0.0733777
-0.0131027
0.000162795
0.0139736
5.17253e-05
0.0339612
-0.000612175
0.0470082
-0.00170587
0.0542816
-0.00308443
0.0583847
-0.00462603
0.0613798
-0.00628123
0.064328
-0.00804978
0.0675789
-0.00994751
0.0712178
0.0753743
-0.0119441
0.000232669
0.0137409
0.000254845
0.033939
-0.000225536
0.0474886
-0.00117934
0.0552354
-0.00243762
0.059643
-0.00387042
0.0628126
-0.00542015
0.0658777
-0.00708135
0.0692401
-0.00886758
0.073004
0.0772618
-0.0107551
0.000301513
0.0134394
0.000473346
0.0337671
0.000168545
0.0477934
-0.000638548
0.0560425
-0.00176892
0.0607733
-0.00308902
0.0641327
-0.00453048
0.0673192
-0.00608183
0.0707915
-0.00775338
0.0746756
0.0790356
-0.00952714
0.000369292
0.0130701
0.000693119
0.0334433
0.000557768
0.0479287
-7.93331e-05
0.0566796
-0.00107892
0.0617729
-0.00228242
0.0653362
-0.00361277
0.0686495
-0.00505189
0.0722306
-0.00660611
0.0762298
0.0806893
-0.00825987
0.000434317
0.0126358
0.000912229
0.0329654
0.000959166
0.0478818
0.000486411
0.0571524
-0.000369911
0.0626292
-0.00145133
0.0664176
-0.00266763
0.0698658
-0.00399209
0.0735551
-0.00542703
0.0776647
0.0822193
-0.00695701
0.00049561
0.0121402
0.00112873
0.0323323
0.0013647
0.0476458
0.00106805
0.057449
0.000359202
0.0633381
-0.000597007
0.0673738
-0.0016959
0.0709647
-0.00290308
0.0747623
-0.00421739
0.078979
0.0836229
-0.00562101
0.00055231
0.0115879
0.00134003
0.0315446
0.00177119
0.0472147
0.00166012
0.0575601
0.00110672
0.0638915
0.000280076
0.0682004
-0.000699262
0.071944
-0.00178588
0.0758489
-0.00297862
0.0801718
0.0848981
-0.00425377
0.000603494
0.0109844
0.00154341
0.0306047
0.00217545
0.0465826
0.00225939
0.0574761
0.00187063
0.0642802
0.00118207
0.068889
0.000321987
0.0728041
-0.000643798
0.0768147
-0.00171061
0.0812386
0.0860448
-0.00285731
0.00064828
0.0103361
0.0017361
0.0295168
0.00257372
0.045745
0.00286264
0.0571872
0.00264823
0.0644947
0.00210352
0.0694337
0.0013727
0.0735349
0.000525906
0.0776615
-0.000404298
0.0821688
0.0870801
-0.00143964
0.000685866
0.00965022
0.00191523
0.0282875
0.00296179
0.0446985
0.00346592
0.0566831
0.00343666
0.0645239
0.00304339
0.069827
0.00244352
0.0741348
0.0017239
0.0783811
0.000907375
0.0829853
0.0880313
-4.38139e-05
0.000715559
0.00893467
0.00207779
0.0269252
0.00333493
0.0434413
0.00406447
0.0559536
0.00423231
0.0643561
0.00399934
0.07006
0.00353514
0.074599
0.00294155
0.0789747
0.00225804
0.0836688
0.088788
0.00150133
0.000736792
0.00819787
0.00222051
0.0254415
0.00368787
0.041974
0.00465271
0.0549887
0.00503073
0.063978
0.00496844
0.0701222
0.00464617
0.0749213
0.00418284
0.079438
0.00363286
0.0842188
0.0894098
0.00301105
0.000749179
0.00744869
0.00234026
0.0238504
0.00401482
0.0402994
0.00522415
0.0537794
0.00582645
0.0633757
0.00594697
0.0700017
0.00577402
0.0750942
0.00544423
0.0797678
0.00502465
0.0846384
0.0898984
0.00453608
0.000752544
0.00669615
0.00243423
0.0221687
0.00430961
0.038424
0.0057713
0.0523177
0.00661288
0.0625342
0.00693017
0.0696844
0.00691529
0.0751091
0.00672255
0.0799605
0.00643368
0.0849272
0.0902544
0.00607765
0.000746921
0.00594923
0.00249991
0.0204158
0.00456568
0.0363582
0.0062856
0.0505978
0.00738205
0.0614377
0.00791211
0.0691544
0.00806613
0.0749551
0.00801543
0.0800112
0.00785901
0.0850837
0.0904787
0.00763471
0.000732561
0.00521667
0.00253527
0.0186131
0.00477635
0.0341172
0.00675746
0.0486167
0.00812452
0.0600706
0.00888555
0.0683933
0.00922189
0.0746188
0.00932021
0.0799129
0.00929892
0.085105
0.0905713
0.00920632
0.000709945
0.00450672
0.00253903
0.016784
0.00493508
0.0317211
0.00717636
0.0463754
0.00882922
0.0584178
0.00984152
0.067381
0.0103767
0.0740836
0.0106334
0.0796561
0.0107512
0.0849872
0.0905314
0.0107911
0.00067978
0.00382694
0.00251077
0.014953
0.00503585
0.029196
0.00753102
0.0438802
0.00948332
0.0564655
0.0107691
0.0660953
0.0115229
0.0733298
0.0119505
0.0792285
0.0122131
0.0847246
0.0903568
0.0123877
0.000642984
0.00318396
0.00245116
0.0131448
0.00507368
0.0265735
0.00780978
0.0411441
0.0100722
0.0542031
0.0116549
0.0645126
0.0126509
0.0723339
0.0132655
0.0786139
0.0136811
0.0843089
0.0900442
0.0139937
0.000600654
0.00258331
0.00236195
0.0113835
0.00504522
0.0238902
0.0080011
0.0381882
0.0105797
0.0516245
0.0124832
0.0626091
0.0137484
0.0710686
0.0145705
0.0777919
0.0151507
0.0837287
0.0895888
0.0156061
0.000554022
0.00202928
0.00224603
0.0096915
0.00494928
0.021187
0.00809436
0.0350432
0.0109882
0.0487306
0.0132351
0.0603622
0.0148002
0.0695035
0.0158553
0.0767368
0.0166156
0.0829684
0.0889833
0.0172211
0.000504402
0.00152488
0.00210729
0.00808861
0.00478739
0.0185069
0.00808084
0.0317497
0.0112796
0.0455319
0.0138893
0.0577524
0.0157873
0.0676055
0.0171064
0.0754177
0.0180679
0.0820068
0.0882171
0.0188342
0.000453123
0.00107176
0.00195036
0.00659137
0.00456409
0.0158932
0.00795492
0.0283589
0.0114358
0.042051
0.0144216
0.0547666
0.0166868
0.0653403
0.0183066
0.073798
0.0194967
0.0808167
0.0872746
0.0204392
0.000401461
0.000670298
0.00178034
0.0052125
0.0042868
0.0133867
0.00771535
0.0249303
0.0114409
0.0383255
0.014806
0.0514015
0.0174715
0.0626748
0.0194338
0.0718357
0.0208872
0.0793632
0.0861339
0.0220279
0.00035056
0.000319738
0.00160237
0.00396068
0.00396544
0.0110236
0.00736634
0.0215294
0.0112822
0.0344096
0.0150157
0.047668
0.0181097
0.0595808
0.0204602
0.0694853
0.0222198
0.0776036
0.0847649
0.0235888
0.000301362
1.83765e-05
0.0014213
0.00284074
0.00361149
0.00883345
0.00691812
0.0182228
0.0109533
0.0303744
0.0150253
0.043596
0.0185664
0.0560397
0.0213519
0.0666998
0.0234686
0.0754868
0.0831275
0.025106
0.00025454
-0.000236163
0.00124129
0.00185399
0.00323691
0.00683783
0.00638651
0.0150732
0.010456
0.0263049
0.0148133
0.0392387
0.0188041
0.0520489
0.0220685
0.0634354
0.0246
0.0729553
0.08117
0.0265576
0.00021042
-0.000446584
0.00106552
0.00099889
0.00285288
0.00505048
0.00579149
0.0121346
0.00980194
0.0222944
0.0143658
0.0346748
0.018786
0.0476287
0.0225638
0.0596576
0.0255716
0.0699475
0.0788276
0.027914
0.000169041
-0.000615625
0.000896158
0.000271773
0.00246893
0.0034777
0.00515491
0.0094486
0.00901309
0.0184363
0.0136808
0.0300071
0.0184794
0.0428302