/*--------------------------------*- C++ -*----------------------------------*\
  =========                 |
  \\      /  F ield         | OpenFOAM: The Open Source CFD Toolbox
   \\    /   O peration     | Website:  https://openfoam.org
    \\  /    A nd           | Version:  7
     \\/     M anipulation  |
\*---------------------------------------------------------------------------*/
FoamFile
{
    version     2.0;
    format      ascii;
    class       surfaceScalarField;
    location    "385";
    object      phi;
}
// * * * * * * * * * * * * * * * * * * * * * * * * * * * * * * * * * * * * * //

dimensions      [0 3 -1 0 0 0 0];

internalField   nonuniform List<scalar> 
4136
(
-0.000984334
0.000271114
-0.00300806
0.000489244
0.000543953
-0.000985576
0.00125669
-0.00301136
0.00251502
-0.00552888
0.00306148
-0.00825296
0.00325781
-0.0110903
0.00334445
-0.0140341
0.00341962
-0.0170992
0.00350556
-0.0203033
0.00360548
-0.0236626
0.00371843
0.00384406
-0.0271935
-0.000982528
0.00223922
-0.00300412
0.00453661
-0.0055179
0.00557525
-0.00823874
0.00597866
-0.011073
0.00617869
-0.0140136
0.00636027
-0.0170755
0.00656745
-0.0202761
0.00680607
-0.0236318
0.00707416
0.00737089
-0.0271587
-0.000975198
0.00321442
-0.00298636
0.00654778
-0.00549058
0.00807947
-0.00820309
0.00869117
-0.0110294
0.00900504
-0.0139622
0.00929298
-0.0170159
0.00962115
-0.020208
0.00999816
-0.0235549
0.0104211
0.0108883
-0.0270723
-0.000963601
0.00417802
-0.0029581
0.00854227
-0.00544694
0.0105683
-0.00814601
0.0113902
-0.0109597
0.0118187
-0.0138796
0.0122129
-0.0169203
0.0126618
-0.0200988
0.0131767
-0.0234319
0.0137541
0.0143909
-0.0269345
-0.000947761
0.00512578
-0.00291936
0.0105139
-0.005387
0.013036
-0.00806752
0.0140708
-0.0108637
0.0146149
-0.0137661
0.0151154
-0.0167888
0.0156844
-0.0199488
0.0163368
-0.0232628
0.0170681
0.0178733
-0.0267452
-0.00092771
0.00605349
-0.00287017
0.0124563
-0.00531078
0.0154766
-0.00796764
0.0167276
-0.0107415
0.0173888
-0.0136217
0.0179955
-0.0166215
0.0186843
-0.0197581
0.0194734
-0.0230478
0.0203578
0.02133
-0.0265045
-0.000903492
0.00695698
-0.0028106
0.0143634
-0.00521831
0.0178843
-0.00784638
0.0193557
-0.0105932
0.0201356
-0.0134463
0.0208486
-0.0164186
0.0216565
-0.0195266
0.0225814
-0.022787
0.0236181
0.0247555
-0.0262125
-0.000875156
0.00783214
-0.00274067
0.016229
-0.00510962
0.0202532
-0.00770379
0.0219498
-0.0104189
0.0228507
-0.0132402
0.02367
-0.01618
0.0245963
-0.0192547
0.0256562
-0.0224807
0.0268441
0.0281446
-0.0258697
-0.000842766
0.0086749
-0.00266048
0.0180467
-0.00498475
0.0225775
-0.00753987
0.024505
-0.0102184
0.0255292
-0.0130034
0.0264549
-0.0159061
0.027499
-0.0189426
0.0286927
-0.0221291
0.0300306
0.0314919
-0.0254764
-0.000806395
0.0094813
-0.00257008
0.0198103
-0.00484374
0.0248512
-0.00735466
0.0270159
-0.009992
0.0281666
-0.012736
0.0291989
-0.0155968
0.0303598
-0.0185904
0.0316862
-0.0217327
0.0331729
0.0347922
-0.0250331
-0.000766129
0.0102474
-0.00246958
0.0215138
-0.00468665
0.0270682
-0.00714821
0.0294774
-0.00973966
0.030758
-0.0124381
0.0318973
-0.0152525
0.0331743
-0.0181985
0.0346322
-0.0212919
0.0362663
0.0380409
-0.0245406
-0.000722067
0.0109695
-0.00235909
0.0231508
-0.00451353
0.0292227
-0.00692054
0.0318845
-0.00946147
0.033299
-0.0121098
0.0345457
-0.0148734
0.0359379
-0.0177672
0.0375261
-0.0208074
0.0393064
0.0412335
-0.0239999
-0.000674327
0.0116438
-0.00223874
0.0247152
-0.00432448
0.0313084
-0.00667171
0.0342317
-0.00915749
0.0357847
-0.0117514
0.0371395
-0.0144595
0.038646
-0.0172968
0.0403634
-0.0202795
0.0422892
0.0443662
-0.0234122
-0.000623042
0.0122669
-0.00210869
0.0262009
-0.00411959
0.0333193
-0.00640176
0.0365139
-0.0088278
0.0382108
-0.0113628
0.0396746
-0.0140111
0.0412943
-0.0167873
0.0431396
-0.019709
0.0452108
0.0474361
-0.0227789
-0.000568363
0.0128352
-0.00196913
0.0276017
-0.00389898
0.0352492
-0.00611078
0.0387257
-0.00847249
0.0405725
-0.0109444
0.0421465
-0.0135284
0.0438783
-0.0162388
0.04585
-0.019096
0.048068
0.0504418
-0.0221017
-0.000510465
0.0133457
-0.00182028
0.0289115
-0.00366279
0.0370917
-0.00579884
0.0408617
-0.00809164
0.0428653
-0.0104962
0.044551
-0.0130117
0.0463938
-0.0156513
0.0484896
-0.0184403
0.050857
0.0533846
-0.0213831
-0.000449542
0.0137952
-0.0016624
0.0301243
-0.00341122
0.0388405
-0.00546605
0.0429165
-0.00768533
0.0450846
-0.0100184
0.0468841
-0.0124613
0.0488367
-0.0150241
0.0510524
-0.017739
0.0535719
0.0562709
-0.0206254
-0.000385813
0.014181
-0.00149581
0.0312343
-0.00314448
0.0404892
-0.00511256
0.0448846
-0.00725373
0.0472257
-0.00951133
0.0491417
-0.0118787
0.051204
-0.0143598
0.0535335
-0.0169915
0.0562036
0.0591139
-0.0198345
-0.000319521
0.0145006
-0.00132086
0.0322357
-0.00286282
0.0420311
-0.00473853
0.0467603
-0.00679693
0.0492841
-0.00897449
0.0513193
-0.0112622
0.0534917
-0.0136543
0.0559257
-0.0161691
0.0587185
0.0619415
-0.0189968
-0.000250941
0.0147515
-0.00113799
0.0331227
-0.00256654
0.0434597
-0.00434421
0.048538
-0.00631536
0.0512553
-0.00840881
0.0534127
-0.0106155
0.0556984
-0.0129357
0.0582459
-0.0153259
0.0611087
0.0647952
-0.0181796
-0.000180419
0.0149319
-0.000947647
0.0338899
-0.00225599
0.044768
-0.00392985
0.0502119
-0.00580931
0.0531347
-0.00781435
0.0554178
-0.00993107
0.0578151
-0.0121735
0.0604883
-0.0145481
0.0634833
0.0670795
-0.0168324
-0.000108538
0.0150405
-0.000750206
0.0345316
-0.00193152
0.0459493
-0.00349578
0.0517761
-0.00527891
0.0549179
-0.00719167
0.0573305
-0.00921219
0.0598357
-0.0113505
0.0626266
-0.0136054
0.0657383
0.069438
-0.0159639
-3.71308e-05
0.0150776
-0.00054561
0.0350401
-0.00159363
0.0469973
-0.00304249
0.053225
-0.00472459
0.0566
-0.0065418
0.0591477
-0.00846444
0.0617583
-0.0105001
0.0646622
-0.0126645
0.0679026
0.0717058
-0.0149323
3.80719e-05
0.0150395
-0.00033244
0.0354106
-0.0012431
0.047908
-0.00257062
0.0545525
-0.004147
0.0581763
-0.00586585
0.0608666
-0.00769022
0.0635827
-0.00962518
0.0665972
-0.0116875
0.0699649
0.0738624
-0.0138441
0.000115308
0.0149242
-0.000103948
0.0356298
-0.000881404
0.0486855
-0.00208058
0.0557517
-0.00354676
0.0596425
-0.00516437
0.0624842
-0.00688887
0.0653072
-0.0087217
0.06843
-0.0106782
0.0719214
0.0759109
-0.0127266
0.000187555
0.0147367
0.000110999
0.0357064
-0.000510604
0.0493071
-0.00157285
0.0568139
-0.00292464
0.0609943
-0.0044377
0.0639972
-0.00605991
0.0669294
-0.0077882
0.0701583
-0.00963641
0.0737696
0.077855
-0.0115805
0.000256691
0.01448
0.00031854
0.0356446
-0.000118963
0.0497446
-0.00104923
0.0577442
-0.00228133
0.0622264
-0.00368621
0.0654021
-0.00520365
0.0684468
-0.00682515
0.0717798
-0.0085619
0.0755063
0.0796892
-0.010396
0.000324847
0.0141551
0.000534653
0.0354347
0.000262103
0.0500171
-0.000513791
0.0585201
-0.00161725
0.0633299
-0.00291057
0.0666955
-0.00432069
0.0698569
-0.00583323
0.0732924
-0.0074558
0.0771289
0.0814064
-0.00917302
0.000391419
0.0137637
0.000751626
0.0350745
0.000650531
0.0501182
4.35497e-05
0.0591271
-0.000933318
0.0643067
-0.00211148
0.0678736
-0.0034116
0.071157
-0.00481298
0.0746937
-0.00631931
0.0786352
0.0830028
-0.00791571
0.000455066
0.0133086
0.000967713
0.0345619
0.00104718
0.0500387
0.000600114
0.0595741
-0.000232591
0.0651394
-0.00128963
0.0689307
-0.00247707
0.0723445
-0.00376506
0.0759817
-0.0051537
0.0800239
0.0844761
-0.00662698
0.000514902
0.0127937
0.0011807
0.0338961
0.0014471
0.0497723
0.00117509
0.0598461
0.000487705
0.0658268
-0.000446759
0.0698651
-0.00151825
0.073416
-0.00269038
0.0771539
-0.00396054
0.081294
0.0858242
-0.00530865
0.000570085
0.0122237
0.00138812
0.0330781
0.00184743
0.049313
0.00175885
0.0599347
0.0012248
0.0663609
0.00041875
0.0706712
-0.000537372
0.0743721
-0.00159022
0.0782067
-0.00274132
0.0824452
0.0870458
-0.00396297
0.000619745
0.0116039
0.00158739
0.0321104
0.0022449
0.0486555
0.00234863
0.059831
0.00197666
0.0667329
0.00130572
0.0713421
0.000468449
0.0752094
-0.000469734
0.0791449
-0.00149527
0.0834707
0.0881439
-0.00259333
0.000663049
0.0109409
0.00177586
0.0309976
0.00263583
0.0477956
0.00294139
0.0595254
0.00274071
0.0669335
0.00221062
0.0718722
0.00149875
0.0759212
0.000680354
0.0799633
-0.00020778
0.0843588
0.0891442
-0.00120806
0.000699253
0.0102416
0.00195077
0.0297461
0.00301619
0.0467301
0.00353327
0.0590083
0.00351415
0.0669527
0.00313201
0.0722543
0.00254763
0.0765056
0.00185087
0.0806601
0.00106737
0.0851423
0.0900311
0.000180454
0.000727719
0.00951389
0.00210927
0.0283645
0.00338145
0.045458
0.00411968
0.0582701
0.00429344
0.0667789
0.0040675
0.0724803
0.00361464
0.0769585
0.00303951
0.0812352
0.00238556
0.0857963
0.0907461
0.00167057
0.000747938
0.00876595
0.00224841
0.0268641
0.00372661
0.0439798
0.00469528
0.0573014
0.0050743
0.0663999
0.00501427
0.0725403
0.00469854
0.0772742
0.0042488
0.0816849
0.00372255
0.0863225
0.0913306
0.00313799
0.000759559
0.00800639
0.00236508
0.0252585
0.00404621
0.0422986
0.00525391
0.0560937
0.00585153
0.0658023
0.00596877
0.0724231
0.00579686
0.0774461
0.00547494
0.0820068
0.00507284
0.0867246
0.0917885
0.00461494
0.000762445
0.00724395
0.00245668
0.0235643
0.0043344
0.0404209
0.0057885
0.0546396
0.00661885
0.0649719
0.00692646
0.0721155
0.00690631
0.0774663
0.00671486
0.0821983
0.00643644
0.087003
0.0921215
0.00610346
0.000756659
0.00648729
0.00252088
0.0218001
0.00458508
0.0383567
0.006291
0.0529337
0.0073688
0.0638941
0.00788176
0.0716025
0.00802323
0.0773248
0.00796634
0.0822552
0.00781249
0.0871569
0.0923313
0.00760264
0.000742469
0.00574482
0.00255585
0.0199867
0.004792
0.0361206
0.00675248
0.0509732
0.00809254
0.0625541
0.00882789
0.0708671
0.0091433
0.0770094
0.00922693
0.0821716
0.00919934
0.0871845
0.0924195
0.00911115
0.000720346
0.00502447
0.00256038
0.0181467
0.00494908
0.0337319
0.00716315
0.0487591
0.0087798
0.0609374
0.00975655
0.0698904
0.0102611
0.0765049
0.0104934
0.0819392
0.0105948
0.0870831
0.0923861
0.0106283
0.000690972
0.0043335
0.00253413
0.0163035
0.00505074
0.0312153
0.00751258
0.0462973
0.00941873
0.0590313
0.0106577
0.0686515
0.0113696
0.0757929
0.0117615
0.0815473
0.0119962
0.0868484
0.0922301
0.0121522
0.000655212
0.00367829
0.00247771
0.014481
0.00509235
0.0286006
0.00779
0.0435997
0.00999595
0.0568253
0.0115191
0.0671284
0.01246
0.074852
0.0130259
0.0809814
0.0134004
0.0864739
0.0919503
0.0136801
0.000614088
0.0030642
0.00239276
0.0127023
0.00507073
0.0259226
0.00798481
0.0406856
0.0104966
0.0543135
0.0123263
0.0652987
0.0135213
0.073657
0.0142794
0.0802233
0.0148029
0.0859503
0.0915442
0.0152091
0.000568736
0.00249546
0.00228194
0.0109891
0.00498472
0.0232199
0.00808724
0.0375831
0.0109049
0.0514958
0.0130626
0.0631409
0.0145398
0.0721799
0.0155128
0.0792503
0.0161985
0.0852646
0.0910071
0.0167356
0.000520349
0.00197511
0.00214881
0.00936069
0.00483556
0.0205331
0.00808921
0.0343294
0.0112042
0.0483808
0.0137087
0.0606364
0.0154987
0.0703899
0.0167144
0.0780346
0.0175799
0.0843991
0.0903318
0.0182553
0.000470119
0.00150499
0.00199764
0.00783316
0.00462727
0.0179035
0.00798545
0.0309712
0.0113785
0.0449878
0.0142432
0.0577717
0.0163778
0.0682554
0.017869
0.0765433
0.0189376
0.0833305
0.0197627
0.00041919
0.0010858
0.00183316
0.00641919
0.00436661
0.01537
0.00777461
0.0275632
0.0114132
0.0413492
0.0146432
0.0545417
0.0171533
0.0657453
0.0189575
0.0747392
0.000368612
0.000717193
0.00166028
0.00512752
0.00406279
0.0129675
0.00746035
0.0241657
0.0112972
0.0375123
0.0148852
0.0509537
0.017798
0.0628325
0.000319339
0.000397854
0.00148389
0.00396297
0.00372694
0.0107245
0.00705206
0.0208406
0.0110247
0.0335396
0.0149471
0.000272252
0.000125602
0.0013087
0.00292652
0.00337144
0.00866175
0.006565
0.017647
0.000228209
-0.000102606
0.00113931
0.00201541
0.00300915
0.00679191
0.000188103
-0.000290709
0.000980147
0.00122337
0.000152898
-0.000443608
0.00054074
0.000123594
-0.000567202
0.0344289
-0.000881711
0.00180815
0.0334967
-0.00284251
0.00377467
0.0325458
-0.00509471
0.00604564
0.0315869
-0.00615939
0.00711828
0.0306041
-0.00809979
0.00908263
0.0295867
-0.00912138
0.0101388
0.0285213
-0.0113959
0.0124612
0.027392
-0.0127436
0.0138729
0.0261962
-0.0155686
0.0167644
0.0249241
-0.0172448
0.0185169
0.0235978
-0.0206469
0.0219732
0.022226
-0.0223653
0.0237371
0.0208672
-0.0263674
0.0277262
0.0196319
-0.0274908
0.028726
-0.0325793
0.0340316
0.0345559
-8.22809e-05
0.0337396
-0.00202619
0.0328928
-0.00424792
0.0320282
-0.00529475
0.0311286
-0.00720022
0.0301872
-0.00818002
0.0291878
-0.0103964
0.028121
-0.0116768
0.0269767
-0.0144244
0.025757
-0.0160251
0.0244625
-0.0193524
0.0231283
-0.0210311
0.0217409
-0.0249799
0.0204655
-0.0262154
-0.0311105
0.0346778
0.000595236
0.0339743
-0.00132264
0.0332283
-0.00350191
0.0324573
-0.00452378
0.0316404
-0.00638335
0.0307771
-0.00731671
0.0298456
-0.00946493
0.0288442
-0.0106753
0.0277535
-0.0133337
0.026586
-0.0148576
0.0253224
-0.0180888
0.0240194
-0.0197281
0.0226171
-0.0235776
0.0213086
-0.0249069
-0.0296364
0.0347942
0.00115642
0.0341984
-0.000726911
0.0335488
-0.0028523
0.0328677
-0.00384267
0.0321303
-0.00564593
0.0313422
-0.00652864
0.0304764
-0.00859906
0.0295384
-0.0097374
0.0284998
-0.0122951
0.0273837
-0.0137415
0.0261513
-0.0168564
0.0248789
-0.0184557
0.0234723
-0.022171
0.0221355
-0.0235701
-0.0281263
0.0349046
0.00160715
0.0344114
-0.000233723
0.0338534
-0.00229431
0.0332578
-0.00324708
0.0325958
-0.00498393
0.0318794
-0.0058122
0.0310757
-0.00779536
0.0301983
-0.00886004
0.0292089
-0.0113057
0.028142
-0.0126746
0.0269403
-0.0156547
0.0256957
-0.0172111
0.0242907
-0.020766
0.0229284
-0.0222079
-0.026581
0.0350091
0.00195338
0.0346128
0.000162546
0.0341416
-0.00182306
0.033627
-0.00273252
0.0330363
-0.00439322
0.0323878
-0.00516369
0.0316428
-0.0070503
0.0308228
-0.0080401
0.0298798
-0.0103626
0.028859
-0.0116538
0.027687
-0.0144827
0.0264667
-0.0159909
0.0250667
-0.0193659
0.0236829
-0.0208241
-0.0249997
0.0351074
0.00220133
0.0348025
0.000467486
0.0344128
-0.00143336
0.0339746
-0.00229439
0.0334509
-0.0038695
0.0328665
-0.00457926
0.0321764
-0.00636022
0.0314104
-0.00727415
0.0305109
-0.00946305
0.0295327
-0.0106756
0.0283893
-0.0133393
0.0271905
-0.014792
0.0257969
-0.0179723
0.0243951
-0.0194223
-0.0233835
0.0351993
0.00235737
0.03498
0.000686824
0.0346665
-0.00111989
0.0343
-0.00192787
0.0338387
-0.00340827
0.0333143
-0.00405482
0.0326754
-0.00572131
0.0319598
-0.00655852
0.0311007
-0.00860396
0.0301616
-0.00973649
0.0290456
-0.0122234
0.0278655
-0.0136119
0.0264788
-0.0165856
0.0250616
-0.0180052
-0.0217341
0.0352847
0.00242799
0.035145
0.000826494
0.0349023
-0.000877168
0.0346025
-0.00162801
0.0341991
-0.00300495
0.0337305
-0.00358615
0.0331389
-0.00512973
0.0324697
-0.00588933
0.0316482
-0.00778245
0.0307444
-0.00883271
0.0296544
-0.0111333
0.0284906
-0.0124482
0.0271106
-0.0152055
0.0256802
-0.0165749
-0.0200538
0.0353635
0.00241981
0.0352974
0.000892564
0.0351199
-0.000699623
0.0348816
-0.00138974
0.0345315
-0.00265485
0.0341142
-0.00316886
0.0335661
-0.00458159
0.0329393
-0.00526259
0.0321524
-0.00699553
0.0312803
-0.0079606
0.0302143
-0.0100674
0.029065
-0.0112989
0.0276911
-0.0138316
0.0262491
-0.0151329
-0.0183453
0.0354356
0.00233959
0.0354369
0.000891231
0.0353189
-0.00058158
0.035137
-0.00120784
0.0348353
-0.00235324
0.0344649
-0.00279845
0.0339563
-0.00407297
0.0333679
-0.0046742
0.0326126
-0.00624021
0.0317686
-0.00711657
0.0307246
-0.00902343
0.0295878
-0.010162
0.0282192
-0.012463
0.0267668
-0.0136806
-0.0166116
0.0355007
0.00219418
0.0355632
0.000828814
0.0354989
-0.000517289
0.035368
-0.001077
0.0351101
-0.00209531
0.034782
-0.00247031
0.0343089
-0.00359994
0.0337548
-0.00412003
0.033028
-0.0055134
0.0322085
-0.00629713
0.0311844
-0.00799932
0.0300582
-0.00903581
0.0286941
-0.0110988
0.0272324
-0.0122189
-0.0148555
0.0355589
0.00199057
0.035676
0.000711747
0.0356597
-0.000500937
0.0355745
-0.000991789
0.0353554
-0.00187625
0.0350648
-0.00217976
0.0346234
-0.00315851
0.0340993
-0.00359596
0.0333979
-0.00481197
0.0325997
-0.00549893
0.0315931
-0.0069927
0.0304759
-0.00791863
0.0291154
-0.00973833
0.0276452
-0.0107487
-0.01308
0.0356101
0.00173582
0.0357753
0.000546567
0.035801
-0.00052666
0.0357559
-0.000946698
0.0355708
-0.00169115
0.0353131
-0.00192205
0.0348993
-0.00274468
0.0344012
-0.00309786
0.0337219
-0.00413269
0.0329417
-0.00471873
0.0319501
-0.00600114
0.0308403
-0.00680881
0.0294826
-0.00838056
0.0280047
-0.00927087
-0.0112879
0.0356541
0.00143706
0.0358608
0.000339903
0.0359226
-0.000588546
0.0359121
-0.000936122
0.035756
-0.00153511
0.0355263
-0.00169236
0.0351361
-0.00235441
0.0346598
-0.00262164
0.0339994
-0.00347229
0.0332341
-0.00395343
0.0322552
-0.00502219
0.0311512
-0.00570481
0.0297954
-0.00702474
0.0283105
-0.00778602
-0.00948181
0.0356909
0.00110151
0.0359323
9.84657e-05
0.0360244
-0.000680644
0.0360427
-0.000954388
0.0359108
-0.00140317
0.0357043
-0.00148588
0.0353334
-0.00198358
0.034875
-0.00216325
0.0342302
-0.00282741
0.0334768
-0.00320002
0.032508
-0.00405341
0.0314083
-0.00460512
0.0300537
-0.00567013
0.0285626
-0.00629495
-0.00766435
0.0357204
0.00073641
0.0359898
-0.000170943
0.0361062
-0.000796974
0.0361476
-0.000995766
0.0360347
-0.00129036
0.0358466
-0.00129773
0.0354911
-0.00162806
0.0350465
-0.00171868
0.0344138
-0.00219468
0.0336694
-0.00245559
0.0327083
-0.00309235
0.0316115
-0.00350834
0.0302574
-0.00431604
0.0287609
-0.00479846
-0.00583787
0.0357427
0.000349058
0.0360332
-0.00046149
0.0361678
-0.00093151
0.0362265
-0.00105448
0.0361278
-0.00119167
0.0359531
-0.00112306
0.0356088
-0.00128369
0.0351741
-0.00128398
0.03455
-0.00157066
0.0338118
-0.00171732
0.0328561
-0.00213662
0.0317609
-0.00241314
0.0304067
-0.00296187
0.0289056
-0.0032974
-0.00400455
0.0357576
-5.32054e-05
0.0360624
-0.000766332
0.0362091
-0.00107817
0.0362793
-0.00112471
0.0361897
-0.00110208
0.0360237
-0.000956993
0.0356863
-0.000946276
0.0352575
-0.000855213
0.0346388
-0.000951932
0.0339039
-0.000982447
0.0329511
-0.00118386
0.0318563
-0.00131827
0.0305015
-0.00160709
0.0289967
-0.00179267
-0.00216648
0.0357652
0.0360774
0.0362301
0.036306
0.0362205
0.0360582
0.0357234
0.0352967
0.0346798
0.0339456
0.0329935
0.0318978
0.0305419
0.0290344
0.202035
-0.00023144
0.202586
-0.000550504
0.203392
-0.000805742
0.204333
-0.000941597
0.205384
-0.0010513
0.206465
-0.00108078
0.207564
-0.00109911
0.208627
-0.00106279
0.209655
-0.00102813
0.210613
-0.000957474
0.211511
-0.000898715
0.212327
-0.000815493
0.213079
-0.000751966
0.213748
-0.000668872
-0.000610164
0.214358
0.192605
-0.000452494
0.193129
-0.00107418
0.193895
-0.00157257
0.194792
-0.00183821
0.195796
-0.00205523
0.19683
-0.00211524
0.197886
-0.00215506
0.19891
-0.00208663
0.199904
-0.00202193
0.200831
-0.00188488
0.201704
-0.00177137
0.202497
-0.0016082
0.203229
-0.00148419
0.203881
-0.00132043
-0.00120643
0.204477
0.183615
-0.000663656
0.184107
-0.00156652
0.184836
-0.00230111
0.185688
-0.00269091
0.186651
-0.00301774
0.187646
-0.00311001
0.188668
-0.00317757
0.189663
-0.0030816
0.190635
-0.00299362
0.191544
-0.00279434
0.192404
-0.00263137
0.193187
-0.00239076
0.193913
-0.00220987
0.194558
-0.00196627
-0.00179876
0.195151
0.175044
-0.000865438
0.175504
-0.00202586
0.176194
-0.00299131
0.177003
-0.0034997
0.177926
-0.003941
0.178884
-0.0040683
0.179879
-0.00417238
0.180852
-0.00405469
0.181811
-0.00395217
0.182712
-0.0036954
0.18357
-0.00348931
0.184352
-0.00317348
0.185082
-0.00293951
0.185732
-0.00261598
-0.0023973
0.18633
0.166874
-0.00105823
0.167298
-0.00245029
0.16795
-0.00364266
0.168714
-0.00426362
0.169598
-0.00482556
0.170521
-0.00499121
0.171492
-0.00514277
0.172447
-0.00501024
0.173399
-0.00490387
0.174298
-0.00459504
0.175163
-0.00435344
0.175954
-0.00396456
0.176696
-0.00368197
0.177358
-0.00327775
-0.00301042
0.177971
0.159085
-0.00124222
0.159472
-0.00283775
0.160084
-0.00425439
0.160801
-0.00498082
0.161646
-0.00567054
0.162533
-0.00587793
0.16348
-0.0060899
0.16442
-0.00595026
0.165369
-0.00585275
0.166272
-0.005498
0.167148
-0.00523005
0.167954
-0.00477051
0.168717
-0.00444466
0.169398
-0.00395855
-0.00364549
0.170033
0.151659
-0.00141726
0.152007
-0.00318628
0.152578
-0.00482567
0.153246
-0.00564861
0.15405
-0.00647389
0.154898
-0.00672615
0.155821
-0.00701312
0.156745
-0.00687471
0.157693
-0.0068008
0.158603
-0.00640709
0.159496
-0.00612377
0.160322
-0.00559632
0.161111
-0.00523379
0.161817
-0.00466433
-0.00430916
0.162481
0.144578
-0.00158287
0.144886
-0.00349438
0.145416
-0.0053557
0.146031
-0.00626366
0.14679
-0.00723282
0.147596
-0.00753231
0.148493
-0.00791027
0.1494
-0.00778174
0.150348
-0.0077482
0.151264
-0.00732334
0.152178
-0.00703766
0.153027
-0.00644566
0.153848
-0.00605456
0.154584
-0.00540026
-0.00500756
0.155282
0.137827
-0.00173809
0.138094
-0.00376133
0.138582
-0.00584362
0.13914
-0.0068223
0.139851
-0.00794408
0.140611
-0.00829196
0.141479
-0.00877796
0.142365
-0.0086679
0.14331
-0.00869352
0.144233
-0.00824612
0.145169
-0.00797338
0.146044
-0.00732092
0.146901
-0.0069112
0.147671
-0.00617071
-0.00574633
0.14841
0.131389
-0.00188154
0.131615
-0.00398756
0.13206
-0.00628835
0.132558
-0.00732102
0.133219
-0.00860438
0.133927
-0.009
0.13476
-0.00961183
0.135621
-0.00952836
0.136561
-0.00963384
0.137488
-0.00917321
0.138446
-0.00893118
0.139348
-0.00822324
0.140244
-0.007807
0.141053
-0.00697933
-0.00653065
0.141837
0.125249
-0.00201146
0.125436
-0.00417475
0.125836
-0.00668835
0.126272
-0.00775701
0.126878
-0.00921045
0.127529
-0.00965101
0.128324
-0.0104069
0.129153
-0.0103572
0.130084
-0.010565
0.131012
-0.0101009
0.13199
-0.00990997
0.13292
-0.0091525
0.133857
-0.00874431
0.134707
-0.007829
-0.00736523
0.135541
0.119393
-0.00212595
0.119544
-0.00432576
0.119897
-0.00704159
0.120269
-0.00812873
0.120818
-0.00975916
0.121406
-0.0102397
0.122157
-0.0111577
0.122947
-0.0111474
0.123864
-0.0114816
0.124787
-0.0110242
0.125784
-0.0109073
0.126739
-0.0101073
0.127719
-0.00972444
0.128612
-0.00872181
-0.00825426
0.129501
0.113808
-0.00222317
0.113926
-0.00444436
0.11423
-0.00734553
0.114538
-0.00843629
0.115026
-0.0102474
0.115548
-0.0107612
0.116249
-0.0118586
0.116993
-0.0118916
0.117889
-0.0123773
0.118801
-0.0119366
0.119813
-0.0119194
0.120791
-0.0110849
0.121814
-0.0107477
0.122751
-0.00965899
-0.00920136
0.123698
0.108481
-0.00230168
0.108572
-0.00453478
0.108824
-0.00759752
0.109069
-0.00868159
0.109494
-0.0106719
0.109944
-0.011212
0.11059
-0.0125039
0.11128
-0.0125819
0.112148
-0.0132451
0.113042
-0.0128305
0.114063
-0.012941
0.11506
-0.0120814
0.116125
-0.011813
0.117107
-0.0106408
-0.0102095
0.118115
0.103402
-0.00236062
0.103468
-0.00460113
0.103666
-0.00779528
0.103852
-0.00886811
0.10421
-0.0110295
0.104588
-0.0115899
0.105171
-0.0130874
0.1058
-0.0132109
0.106632
-0.0140771
0.107499
-0.0136973
0.108524
-0.0139659
0.109534
-0.0130913
0.110639
-0.0129184
0.111665
-0.0116667
-0.0112808
0.112736
0.0985581
-0.00239991
0.0986039
-0.00464699
0.0987462
-0.0079375
0.0988784
-0.00900039
0.0991658
-0.0113168
0.0994707
-0.0118948
0.0999864
-0.0136031
0.100547
-0.0137719
0.101335
-0.0148651
0.102166
-0.0145274
0.103186
-0.0149864
0.104203
-0.0141079
0.105344
-0.0140601
0.106412
-0.0127347
-0.0124167
0.107548
0.0939404
-0.00242026
0.0939685
-0.0046751
0.0940554
-0.00802434
0.0941384
-0.00908338
0.0943528
-0.0115313
0.0945864
-0.0121283
0.0950276
-0.0140444
0.0955155
-0.0142598
0.0962504
-0.0156
0.0970339
-0.0153109
0.0980413
-0.0159938
0.0990564
-0.015123
0.10023
-0.0152334
0.101337
-0.0138422
-0.0136175
0.102538
0.0895389
-0.00242312
0.089551
-0.00468721
0.0895843
-0.00805763
0.0896228
-0.00912185
0.0897628
-0.0116714
0.089928
-0.0122936
0.0902885
-0.0144048
0.0906998
-0.014671
0.0913717
-0.0162719
0.0920989
-0.0160381
0.0930835
-0.0169784
0.0940875
-0.016127
0.095286
-0.0164319
0.0964289
-0.014985
-0.0148824
0.0976938
0.085344
-0.00241051
0.085341
-0.00468424
0.0853242
-0.00804084
0.0853223
-0.00911991
0.085388
-0.0117371
0.0854888
-0.0123944
0.0857628
-0.0146788
0.0860962
-0.0150045
0.0866944
-0.0168701
0.0873563
-0.0167
0.0883071
-0.0179292
0.089289
-0.017109
0.0905054
-0.0176483
0.0916782
-0.0161578
-0.0162096
0.0930054
0.0813465
-0.00238478
0.0813287
-0.00466638
0.0812667
-0.00797887
0.0812275
-0.00908075
0.0812212
-0.0117307
0.0812615
-0.0124347
0.0814445
-0.0148618
0.0817007
-0.0152606
0.0822136
-0.017383
0.0828031
-0.0172895
0.0837074
-0.0188335
0.0846555
-0.018057
0.0858812
-0.018874
0.0870768
-0.0173535
-0.0175961
0.0884634
0.0775375
-0.00234838
0.0775046
-0.00463347
0.0774032
-0.00787753
0.0773292
-0.00900672
0.0772549
-0.0116565
0.0772384
-0.0124182
0.0773283
-0.0149517
0.0775088
-0.0154411
0.0779252
-0.0177994
0.0784373
-0.0178016
0.0792804
-0.0196766
0.0801826
-0.0189592
0.081408
-0.0200994
0.0826177
-0.0185631
-0.0190382
0.0840598
0.0739081
-0.00230361
0.07386
-0.0045854
0.0737255
-0.00774298
0.0736182
-0.00889946
0.0734822
-0.0115204
0.0734115
-0.0123475
0.073409
-0.0149492
0.0735159
-0.0155481
0.0738254
-0.0181089
0.0742575
-0.0182336
0.075022
-0.0204411
0.0758678
-0.019805
0.0770817
-0.0213133
0.0782948
-0.0197763
-0.0205315
0.079788
0.0704497
-0.0022525
0.0703867
-0.0045224
0.0702249
-0.0075812
0.0700858
-0.0087603
0.0698956
-0.0113302
0.0697726
-0.0122246
0.0696817
-0.0148583
0.0697165
-0.0155829
0.0699117
-0.018304
0.0702627
-0.0185847
0.0709292
-0.0211076
0.0717102
-0.020586
0.0728981
-0.0225012
0.0741032
-0.0209814
-0.022072
0.0756438
0.0671541
-0.00219661
0.0670769
-0.0044452
0.0668932
-0.00739757
0.0667238
-0.00859089
0.0664875
-0.0110939
0.0663137
-0.0120508
0.0661415
-0.0146861
0.0661044
-0.0155458
0.0661822
-0.0183818
0.0664515
-0.018854
0.0670002
-0.0216563
0.0677114
-0.0212971
0.0688534
-0.0236432
0.070038
-0.0221661
-0.0236599
0.071626
0.0640132
-0.0021371
0.0639231
-0.00435508
0.0637221
-0.00719661
0.0635248
-0.00839356
0.06325
-0.0108191
0.0630272
-0.0118281
0.062783
-0.0144419
0.0626733
-0.0154361
0.0626363
-0.0183447
0.0628213
-0.0190391
0.0632356
-0.0220706
0.0638751
-0.0219366
0.064944
-0.024712
0.0660941
-0.0233162
-0.0253035
0.0677377
0.0610195
-0.00207476
0.0609182
-0.00425376
0.0607036
-0.00698199
0.0604816
-0.00817156
0.0601751
-0.0105127
0.0599065
-0.0115594
0.0596
-0.0141353
0.0594175
-0.0152537
0.0592733
-0.0182005
0.0593688
-0.0191346
0.0596381
-0.0223398
0.0602057
-0.0225043
0.0611695
-0.0256758
0.0622719
-0.0244185
-0.0270104
0.0639788
0.058166
-0.00201016
0.0580555
-0.00414318
0.0578302
-0.00675669
0.0575874
-0.00792882
0.0572551
-0.0101804
0.0569455
-0.0112498
0.0565858
-0.0137757
0.0563325
-0.0150003
0.0560916
-0.0179597
0.0560909
-0.0191339
0.056212
-0.0224609
0.0567021
-0.0229944
0.0575308
-0.0265044
0.058588
-0.0254758
-0.0287564
0.060334
0.0554461
-0.00194379
0.0553283
-0.00402536
0.055095
-0.0065234
0.0548359
-0.00766967
0.054483
-0.00982754
0.0541386
-0.0109054
0.0537342
-0.0133713
0.0534148
-0.0146809
0.0530885
-0.0176334
0.0529859
-0.0190313
0.0529615
-0.0224364
0.0533523
-0.0233852
0.0540154
-0.0271676
0.0550743
-0.0265347
-0.030459
0.0567769
0.0528536
-0.00187613
0.0527306
-0.00390231
0.052492
-0.00628481
0.0522209
-0.00739865
0.0518525
-0.00945912
0.0514805
-0.0105334
0.051039
-0.0129297
0.0506611
-0.0143031
0.0502587
-0.0172309
0.050053
-0.0188257
0.0498866
-0.02227
0.050143
-0.0236416
0.0505784
-0.027603
0.0517164
-0.0276727
-0.0320906
0.053348
0.050383
0.0502553
0.0500162
0.0497358
0.0493593
0.0489647
0.0484963
0.0480661
0.0475995
0.0472908
0.046994
0.0470895
0.0472127
0.0482661
0.050207
0.212803
0.00155471
0.211311
0.00149213
0.209891
0.00142002
0.208546
0.00134528
0.207278
0.00126805
0.206089
0.00118846
0.204983
0.00110664
0.20396
0.0010227
0.203023
0.000936762
0.202174
0.000848951
0.201415
0.0007594
0.200747
0.000668245
0.200171
0.000575626
0.199689
0.000481682
0.199303
0.000386561
0.199012
0.000290409
0.198819
0.000193383
0.198723
9.56419e-05
0.198726
-2.42553e-06
-0.00010149
0.198827
0.202991
0.00304036
0.201566
0.00291757
0.20021
0.00277603
0.198926
0.00262934
0.197716
0.00247782
0.196583
0.00232174
0.195528
0.00216133
0.194554
0.00199682
0.193662
0.00182844
0.192855
0.00165645
0.192133
0.0014811
0.191499
0.00130266
0.190953
0.0011214
0.190497
0.000937593
0.190132
0.000751532
0.189859
0.0005635
0.189678
0.000373792
0.189591
0.000182707
0.189598
-9.33413e-06
-0.000202488
0.189699
0.193733
0.00445765
0.192374
0.0042775
0.19108
0.00406911
0.189857
0.00385313
0.188704
0.00363013
0.187626
0.00340056
0.186622
0.00316472
0.185696
0.00292294
0.184849
0.00267555
0.184082
0.00242292
0.183398
0.00216542
0.182797
0.00190346
0.182281
0.00163741
0.181851
0.0013677
0.181508
0.00109472
0.181253
0.000818909
0.181086
0.000540684
0.181008
0.000260496
0.18102
-2.10486e-05
-0.000304227
0.181121
0.18498
0.00580787
0.183684
0.00557348
0.182453
0.00530078
0.181288
0.00501809
0.180191
0.00472637
0.179166
0.00442622
0.178212
0.00411802
0.177333
0.00380214
0.17653
0.00347902
0.175803
0.00314913
0.175156
0.00281298
0.174588
0.00247107
0.174102
0.00212391
0.173697
0.00177203
0.173376
0.00141595
0.173139
0.00105623
0.172986
0.000693423
0.172919
0.000328101
0.172937
-3.90488e-05
-0.000408094
0.17304
0.176687
0.00709213
0.175453
0.00680679
0.174282
0.00647228
0.173175
0.00612539
0.172133
0.00576759
0.17116
0.00539968
0.170256
0.00502207
0.169423
0.00463516
0.168662
0.00423947
0.167976
0.00383558
0.167365
0.00342412
0.16683
0.00300569
0.166373
0.00258093
0.165995
0.00215046
0.165696
0.00171493
0.165477
0.001275
0.165339
0.00083135
0.165283
0.00038469
0.165308
-6.4224e-05
-0.000515317
0.165415
0.168814
0.00831128
0.167642
0.0079784
0.16653
0.00758456
0.165479
0.00717591
0.164492
0.00675463
0.16357
0.00632171
0.162715
0.00587756
0.161927
0.00542258
0.161209
0.00495738
0.160562
0.00448265
0.159987
0.0039991
0.159486
0.00350746
0.159058
0.00300847
0.158706
0.00250284
0.158429
0.00199135
0.15823
0.00147476
0.158107
0.000953861
0.158062
0.000429492
0.158096
-9.75675e-05
-0.000627025
0.158207
0.161326
0.00946588
0.160216
0.00908893
0.159162
0.00863822
0.158168
0.00817024
0.157234
0.00768802
0.156363
0.00719278
0.155556
0.0066849
0.154814
0.00616477
0.154138
0.00563303
0.15353
0.0050905
0.152991
0.004538
0.152522
0.00397635
0.152124
0.00340638
0.151798
0.00282892
0.151545
0.00224483
0.151365
0.00165499
0.151258
0.00106029
0.151226
0.000461697
0.151268
-0.000140032
-0.000744339
0.151386
0.154192
0.0105562
0.153142
0.0101387
0.152147
0.00963354
0.151209