/*--------------------------------*- C++ -*----------------------------------*\
  =========                 |
  \\      /  F ield         | OpenFOAM: The Open Source CFD Toolbox
   \\    /   O peration     | Website:  https://openfoam.org
    \\  /    A nd           | Version:  7
     \\/     M anipulation  |
\*---------------------------------------------------------------------------*/
FoamFile
{
    version     2.0;
    format      ascii;
    class       volScalarField;
    location    "290";
    object      p;
}
// * * * * * * * * * * * * * * * * * * * * * * * * * * * * * * * * * * * * * //

dimensions      [0 2 -2 0 0 0 0];

internalField   nonuniform List<scalar> 
2125
(
0.650437
0.627876
0.61232
0.65141
0.628856
0.613297
0.591118
0.563626
0.532994
0.500812
0.468279
0.436251
0.405317
0.647371
0.625128
0.610026
0.588345
0.561314
0.531092
0.499268
0.467042
0.435279
0.404626
0.638371
0.616737
0.602544
0.581848
0.555725
0.526308
0.495194
0.463575
0.432335
0.402263
0.624495
0.603761
0.590919
0.571684
0.546908
0.518686
0.488623
0.457907
0.427444
0.398244
0.605871
0.586316
0.57525
0.557937
0.534933
0.508285
0.479609
0.450084
0.420643
0.39259
0.58266
0.564548
0.555662
0.540713
0.519893
0.495184
0.468218
0.440162
0.41198
0.385335
0.555063
0.538638
0.53231
0.520144
0.5019
0.479478
0.45453
0.428213
0.401514
0.376515
0.523314
0.508797
0.505377
0.496384
0.481085
0.461279
0.438642
0.414318
0.389314
0.366178
0.487679
0.47527
0.47507
0.469611
0.457598
0.440715
0.420663
0.398571
0.375458
0.354378
0.448459
0.438326
0.441623
0.44002
0.431608
0.417931
0.400715
0.381077
0.360035
0.341175
0.405979
0.398264
0.405291
0.407829
0.4033
0.393083
0.378931
0.36195
0.34314
0.326636
0.360597
0.355408
0.366352
0.373273
0.372873
0.366342
0.355457
0.341315
0.324876
0.310834
0.31269
0.310105
0.325103
0.336604
0.340541
0.337889
0.330448
0.319304
0.305353
0.293844
0.262659
0.26272
0.28186
0.298088
0.306531
0.307919
0.304069
0.296059
0.284684
0.275742
0.210922
0.213637
0.236953
0.258004
0.27108
0.276631
0.276493
0.27173
0.26299
0.256599
0.157913
0.163255
0.190727
0.216644
0.234434
0.244236
0.247899
0.24648
0.240399
0.236475
0.104075
0.111983
0.143537
0.174307
0.196847
0.210946
0.21847
0.220486
0.217067
0.215406
0.0498593
0.0602372
0.0957458
0.131298
0.158578
0.176982
0.188385
0.193932
0.193187
0.19336
-0.00427925
0.00843605
0.0477231
0.0879273
0.119891
0.142567
0.157816
0.166997
0.169111
0.170354
-0.0578873
-0.0430033
-0.000158388
0.0445054
0.0810495
0.107934
0.126936
0.139804
0.145284
0.146089
-0.110514
-0.0936695
-0.047525
0.00133873
0.0423112
0.0733136
0.0959205
0.112284
0.122044
0.121987
-0.161713
-0.143153
-0.0940092
-0.0412735
0.00392883
0.0389356
0.0650367
0.0845569
0.0984587
0.103075
-0.211076
-0.191014
-0.13927
-0.0830428
-0.0338503
0.00501049
0.0345392
0.057029
0.0745511
0.0844901
-0.25839
-0.236746
-0.183042
-0.12369
-0.0707849
-0.0282724
0.00459152
0.0299484
0.0504418
0.0644859
-0.303052
-0.280054
-0.225214
-0.162936
-0.106647
-0.0607376
-0.0246977
0.00342056
0.0264712
0.0436432
-0.34473
-0.320324
-0.265588
-0.2005
-0.141228
-0.0922127
-0.0532126
-0.0224728
0.00291667
0.0227878
-0.383218
-0.35773
-0.303132
-0.236215
-0.174332
-0.122526
-0.0808182
-0.0476337
-0.0200812
0.00225734
-0.41829
-0.392025
-0.337583
-0.269878
-0.205744
-0.151518
-0.107378
-0.071956
-0.0424367
-0.0178592
-0.44972
-0.422933
-0.369108
-0.301006
-0.235354
-0.179043
-0.132765
-0.0953377
-0.0640662
-0.0374751
-0.477345
-0.450249
-0.397584
-0.329583
-0.262928
-0.204962
-0.156872
-0.117684
-0.0848878
-0.0564762
-0.501061
-0.473833
-0.42281
-0.355521
-0.288358
-0.229192
-0.179603
-0.138907
-0.104833
-0.0747582
-0.520823
-0.493612
-0.444647
-0.378695
-0.311566
-0.251663
-0.200906
-0.158925
-0.123839
-0.0922533
-0.536642
-0.509578
-0.463031
-0.399014
-0.332478
-0.272278
-0.220756
-0.177717
-0.141806
-0.108987
-0.548584
-0.52178
-0.477948
-0.416424
-0.351041
-0.290983
-0.239055
-0.195277
-0.158588
-0.125197
-0.556778
-0.53033
-0.48944
-0.430911
-0.367228
-0.307758
-0.255767
-0.211545
-0.174356
-0.141111
-0.561405
-0.535397
-0.497594
-0.442494
-0.381037
-0.322603
-0.270897
-0.226512
-0.188997
-0.155665
-0.562699
-0.537205
-0.502549
-0.451229
-0.392492
-0.335535
-0.284457
-0.240169
-0.202458
-0.168894
-0.560941
-0.536036
-0.504492
-0.457211
-0.401641
-0.346584
-0.296466
-0.25253
-0.214805
-0.181098
-0.556449
-0.532211
-0.503658
-0.460572
-0.408557
-0.3558
-0.306966
-0.263635
-0.226112
-0.192455
-0.549572
-0.52608
-0.500331
-0.461485
-0.413339
-0.363252
-0.316014
-0.273536
-0.23642
-0.203015
-0.540675
-0.518016
-0.494832
-0.460158
-0.416108
-0.369021
-0.323676
-0.282287
-0.245761
-0.212787
-0.530137
-0.508395
-0.487514
-0.456835
-0.417009
-0.373201
-0.330025
-0.28995
-0.254177
-0.221791
-0.518331
-0.497591
-0.478745
-0.451785
-0.416208
-0.375898
-0.33514
-0.296589
-0.261717
-0.230056
-0.505619
-0.485961
-0.4689
-0.445307
-0.413888
-0.377224
-0.3391
-0.302272
-0.268438
-0.23762
-0.492344
-0.473839
-0.458338
-0.437712
-0.410253
-0.377302
-0.341991
-0.307066
-0.2744
-0.244524
-0.478813
-0.461526
-0.447393
-0.429322
-0.405522
-0.376263
-0.343895
-0.311037
-0.27966
-0.250815
-0.465301
-0.449286
-0.43636
-0.420452
-0.399928
-0.374243
-0.344895
-0.314248
-0.284275
-0.256537
-0.45204
-0.43734
-0.42549
-0.411397
-0.393713
-0.371387
-0.34507
-0.316752
-0.288292
-0.261737
-0.439218
-0.425863
-0.414988
-0.402416
-0.387117
-0.367846
-0.3445
-0.318594
-0.291752
-0.42698
-0.414986
-0.405008
-0.393719
-0.380374
-0.363778
-0.343261
-0.319811
-0.415428
-0.404797
-0.395663
-0.38546
-0.373691
-0.359345
-0.34143
-0.404627
-0.395343
-0.387018
-0.377744
-0.367236
-0.394607
-0.386642
-0.379102
-0.370628
-0.385377
-0.378686
-0.371906
-0.376929
-0.371452
-0.369255
-0.364916
-0.362351
0.132868
0.135791
0.139513
0.146387
0.153394
0.163161
0.172394
0.183769
0.193204
0.203615
0.209175
0.213988
0.208469
0.201338
0.171952
0.133146
0.136113
0.139871
0.146854
0.15398
0.163981
0.17353
0.185414
0.195591
0.207091
0.214202
0.221164
0.218509
0.214984
0.191901
0.133407
0.13638
0.140171
0.147231
0.154439
0.16462
0.174431
0.186749
0.197597
0.210084
0.218682
0.22765
0.227942
0.2278
0.210399
0.133644
0.136644
0.140453
0.147596
0.154888
0.165256
0.175326
0.188073
0.199567
0.212999
0.223009
0.233857
0.236979
0.240026
0.227902
0.133858
0.136889
0.140715
0.147938
0.155312
0.16586
0.176179
0.189334
0.201446
0.21577
0.227138
0.239753
0.245618
0.251706
0.244575
0.13405
0.137107
0.140956
0.14825
0.155698
0.166416
0.176967
0.190504
0.203204
0.218364
0.231034
0.245306
0.25381
0.262807
0.260397
0.134219
0.137298
0.14109
0.148531
0.156046
0.166921
0.177691
0.191585
0.20484
0.220778
0.23469
0.25051
0.26152
0.273293
0.27534
0.134364
0.137466
0.141284
0.148776
0.156356
0.167377
0.17835
0.192574
0.206353
0.223011
0.238095
0.255356
0.268724
0.283133
0.289372
0.134485
0.13761
0.141443
0.14898
0.156628
0.167781
0.178942
0.193468
0.207737
0.225054
0.241238
0.259833
0.275399
0.292292
0.302449
0.134581
0.13773
0.141563
0.149128
0.156861
0.168132
0.179465
0.194263
0.208987
0.226905
0.244108
0.263932
0.281524
0.300736
0.314528
0.134652
0.137823
0.141651
0.149287
0.157054
0.168427
0.179916
0.194957
0.210098
0.228557
0.246695
0.267642
0.287082
0.308435
0.325564
0.134699
0.137889
0.141712
0.149433
0.157201
0.168665
0.180293
0.195548
0.211066
0.230007
0.248991
0.270951
0.292058
0.315361
0.335516
0.134719
0.137927
0.141745
0.149511
0.1573
0.168845
0.180595
0.196034
0.211886
0.231249
0.250986
0.27385
0.296437
0.321489
0.344348
0.134714
0.137938
0.141747
0.149548
0.157353
0.168965
0.180819
0.196412
0.212554
0.232281
0.252674
0.276328
0.300205
0.326796
0.352026
0.134683
0.137919
0.141717
0.149548
0.15736
0.169026
0.180964
0.196681
0.213066
0.233098
0.254048
0.278377
0.303352
0.331263
0.358523
0.134626
0.137872
0.141657
0.149508
0.157321
0.169026
0.181028
0.19684
0.21342
0.233696
0.255103
0.279987
0.305865
0.334874
0.363816
0.134542
0.137795
0.141565
0.149429
0.157235
0.168964
0.18101
0.196887
0.213612
0.234073
0.255833
0.28115
0.307737
0.337614
0.367887
0.134433
0.137688
0.141442
0.149312
0.157102
0.168841
0.180909
0.196822
0.21364
0.234227
0.256236
0.281862
0.308959
0.339472
0.370722
0.134297
0.137551
0.141286
0.149156
0.156922
0.168658
0.180727
0.196647
0.213505
0.234158
0.256313
0.282123
0.309531
0.340444
0.372313
0.134135
0.137384
0.141099
0.148961
0.156698
0.168419
0.180466
0.196368
0.213204
0.233855
0.256056
0.281925
0.309447
0.340526
0.37266
0.093652
0.0919428
0.0890009
0.085132
0.0805806
0.0755377
0.0701922
0.0646989
0.0592084
0.0538325
0.0486735
0.043791
0.0392357
0.0350182
0.0311491
0.0940894
0.0923898
0.0894703
0.0856216
0.0810833
0.0760373
0.0706732
0.0651442
0.059605
0.0541686
0.0489419
0.0439853
0.0393537
0.0350573
0.031109
0.0949013
0.0932207
0.0903438
0.0865355
0.0820241
0.0769763
0.0715814
0.0659897
0.0603622
0.0548142
0.0494606
0.0443646
0.0395885
0.0351434
0.0310472
0.0960277
0.0943755
0.0915636
0.0878181
0.0833522
0.0783099
0.0728795
0.067206
0.0614589
0.055756
0.050224
0.04493
0.0399479
0.0352898
0.0309807
0.0974127
0.0957992
0.093078
0.0894214
0.0850249
0.0800017
0.0745393
0.0687733
0.062884
0.0569909
0.0512358
0.0456911
0.0404459
0.035514
0.0309301
0.099005
0.0974415
0.0948404
0.0913022
0.0870045
0.0820212
0.0765389
0.0706793
0.064634
0.0585233
0.0525069
0.0466636
0.0411019
0.035838
0.030919
0.100757
0.0992567
0.0968082
0.0934205
0.0892567
0.0843414
0.0788611
0.0729162
0.066711
0.0603629
0.0540537
0.0478683
0.0419397
0.036287
0.0309734
0.102627
0.101204
0.0989422
0.0957384
0.0917493
0.0869375
0.081491
0.0754794
0.0691201
0.0625234
0.0558962
0.0493302
0.042987
0.0368896
0.0311215
0.104574
0.103245
0.101206
0.0982198
0.0944515
0.0897856
0.0844147
0.0783652
0.0718681
0.0650203
0.0580578
0.051077
0.0442743
0.0376769
0.0313938
0.106564
0.10535
0.103565
0.10083
0.0973332
0.0928617
0.0876179
0.0815695
0.0749621
0.0678707
0.0605635
0.0531396
0.0458353
0.0386829
0.0318228
0.108566
0.107488
0.105986
0.103537
0.100365
0.0961411
0.0910852
0.0850868
0.0784083
0.0710914
0.06344
0.0555506
0.0477062
0.0399444
0.0324438
0.110552
0.109635
0.108438
0.106309
0.103517
0.0995977
0.094799
0.0889089
0.082211
0.0746987
0.066714
0.0583444
0.0499257
0.0415006
0.0332947
0.112501
0.111769
0.110892
0.109118
0.106759
0.103205
0.098739
0.0930243
0.0863719
0.0787069
0.0704121
0.0615561
0.0525345
0.0433939
0.0344165
0.114394
0.113872
0.11332
0.11194
0.11006
0.106934
0.102881
0.0974176
0.090889
0.0831273
0.0745594
0.0652216
0.0555757
0.0456696
0.0358535
0.116216
0.115925
0.115699
0.114751
0.11339
0.110759
0.107199
0.102069
0.0957559
0.0879673
0.0791789
0.0693763
0.0590936
0.0483757
0.0376535
0.117955
0.117914
0.118006
0.11753
0.116718
0.11465
0.11166
0.106957
0.100961
0.0932291
0.0842906
0.0740547
0.0631339
0.0515632
0.0398684
0.119604
0.119826
0.120227
0.12026
0.120015
0.11858
0.116229
0.112054
0.106485
0.0989095
0.0899105
0.0792889
0.0677427
0.0552858
0.0425539
0.121157
0.121648
0.122348
0.122922
0.123254
0.122522
0.120869
0.117333
0.112303
0.104999
0.096049
0.0851074
0.0729663
0.0595997
0.0457695
0.122612
0.123373
0.124359
0.1255
0.126411
0.126448
0.12554
0.122761
0.118379
0.111485
0.102709
0.0915343
0.0788504
0.0645623
0.0495782
0.123967
0.124991
0.126257
0.127978
0.129467
0.130331
0.130205
0.128305
0.124673
0.118346
0.109884
0.0985885
0.0854389
0.0702308
0.0540455
0.125223
0.126501
0.128036
0.130344
0.132405
0.134141
0.134828
0.133927
0.131137
0.125558
0.117555
0.106285
0.0927724
0.0766609
0.0592383
0.126381
0.127898
0.129698
0.132586
0.135213
0.137851
0.139375
0.139584
0.137722
0.13309
0.125692
0.114636
0.100886
0.083907
0.0652249
0.127442
0.129183
0.131241
0.134694
0.137882
0.141434
0.143818
0.14523
0.144377
0.140899
0.134252
0.123649
0.109808
0.0920288
0.0720791
0.128411
0.130358
0.132667
0.136664
0.140404
0.144867
0.148131
0.150815
0.151051
0.148933
0.143183
0.133323
0.119549
0.101099
0.0798936
0.12929
0.131425
0.133979
0.138492
0.142776
0.148131
0.152293
0.156291
0.157698
0.157125
0.152426
0.143642
0.130091
0.111195
0.088786
0.130083
0.13239
0.13518
0.140178
0.144993
0.151212
0.156283
0.161612
0.164273
0.165402
0.16193
0.154577
0.14138
0.122358
0.0988193
0.130795
0.133258
0.136273
0.141726
0.147057
0.154103
0.16009
0.166745
0.170741
0.173689
0.171651
0.166089
0.153365
0.134551
0.109774
0.13143
0.134033
0.137264
0.143137
0.148967
0.156798
0.163702
0.171654
0.177061
0.181892
0.181529
0.178094
0.166095
0.147796
0.120946
0.131993
0.134719
0.138151
0.144408
0.150709
0.159271
0.167069
0.176267
0.183126
0.189853
0.191408
0.19043
0.179805
0.16284
0.132095
0.132489
0.135322
0.138926
0.145525
0.152238
0.161468
0.170085
0.180469
0.188751
0.197425
0.201105
0.203082
0.194911
0.182006
0.147295
0.0286357
0.0273194
0.0260046
0.0246966
0.0233934
0.0220933
0.0207965
0.0195046
0.0182191
0.0169414
0.0156725
0.0144135
0.0131655
0.0119295
0.0107066
0.00949798
0.0083045
0.00712725
0.00596725
0.00482531
0.0285469
0.0272172
0.0258936
0.0245769
0.0232626
0.0219489
0.0206367
0.0193279
0.0180242
0.0167268
0.0154369
0.0141555
0.0128838
0.011623
0.0103743
0.00913886
0.00791779
0.00671218
0.00552304
0.00435137
0.0283893
0.0270209
0.0256658
0.0243167
0.0229667
0.0216142
0.0202617
0.0189117
0.0175662
0.0162262
0.0148929
0.0135675
0.0122513
0.0109456
0.00965169
0.00837088
0.00710438
0.00585344
0.00461929
0.00340286
0.0281807
0.0267493
0.0253426
0.0239429
0.0225384
0.0211284
0.019717
0.0183078
0.0169028
0.0155029
0.0141091
0.0127228
0.0113452
0.0099779
0.00862215
0.00727929
0.00595061
0.00463737
0.00334079
0.00206176
0.0279438
0.0264259
0.0249479
0.0234788
0.0220009
0.0205142
0.0190247
0.0175373
0.0160541
0.0145759
0.0131034
0.011638
0.0101812
0.00873444
0.00729921
0.00587684
0.00446867
0.00307602
0.00170021
0.000341926
0.0277035
0.026075
0.0245048
0.0229469
0.0213765
0.0197936
0.0182068
0.0166224
0.0150426
0.0134679
0.0118988
0.0103368
0.00878329
0.00723998
0.0057083
0.00418963
0.00268533
0.00119673
-0.000274762
-0.00172882
0.0274855
0.0257214
0.0240364
0.0223693
0.0206863
0.0189873
0.0172834
0.0155826
0.0138871
0.0121971
0.0105131
0.00883613
0.00716805
0.00551046
0.00386485
0.00223259
0.000615043
-0.00098642
-0.00257026
-0.0041368
0.0273173
0.0253909
0.0235661
0.0217673
0.0199505
0.0181143
0.0162725
0.0144348
0.0126036
0.0107788
0.00896041
0.0071497
0.00534843
0.00355826
0.00178069
1.70561e-05
-0.00173126
-0.00346284
-0.00517583
-0.0068718
0.0272283
0.0251101
0.0231174
0.0211621
0.0191884
0.0171927
0.0151909
0.0131944
0.0112062
0.00922566
0.00725262
0.00528823
0.00333425
0.00139237
-0.000535971
-0.00244949
-0.00434681
-0.00622639
-0.00808548
-0.00992836
0.0272494
0.0249072
0.0227143
0.0205744
0.0184189
0.0162396
0.0140539
0.0118751
0.00970691
0.00754835
0.00539896
0.00325974
0.00113242
-0.000981366
-0.00308021
-0.00516293
-0.00722811
-0.00927409
-0.0112952
-0.0133027
0.0274141
0.024812
0.0223814
0.0200253
0.0176604
0.0152715
0.012876
0.0104894
0.00811614
0.00575549
0.00340657
0.00107012
-0.00125224
-0.003559
-0.00584884
-0.00812058
-0.0103727
-0.0126017
-0.0148098
-0.0170015
0.0277582
0.024856
0.0221444
0.0195357
0.0169312
0.0143043
0.0116706
0.00904782
0.00644215
0.00385308
0.00127941
-0.00127844
-0.00381908
-0.00634096
-0.00884285
-0.0113238
-0.0137833
-0.0162234
-0.0186499
-0.0210523
0.0283206
0.0250733
0.0220301
0.0191275
0.0162498
0.0133538
0.0104506
0.00756027
0.00469174
0.00184522
-0.000980915
-0.00378698
-0.00657202
-0.00933482
-0.0120744
-0.0147902
-0.0174815
-0.0201479
-0.0227967
-0.0254221
0.0291436
0.0255009
0.0220673
0.0188234
0.0156353
0.0124361
0.0092287
0.006036
0.00287098
-0.000264704
-0.0033733
-0.00645613
-0.00951285
-0.0125424
-0.015544
-0.0185166
-0.0214598
-0.0243728
-0.0272669
-0.0301378
0.0302737
0.0261789
0.0222868
0.0186474
0.015108
0.0115679
0.0080177
0.00448362
0.000984783
-0.00247492
-0.00589868
-0.00928931
-0.0126473
-0.015972
-0.0192623
-0.0225176
-0.0257371
-0.0289188
-0.032081
-0.0352195
0.0317615
0.0271514
0.0227218
0.0186255
0.0146893
0.0107668
0.00683031
0.00291096
-0.000963319
-0.00478554
-0.0085604
-0.012293
-0.0159849
-0.0196356
-0.0232442
-0.0268097
-0.0303304
-0.0338013
-0.0372548
-0.0406856
0.0336622
0.0284664
0.0234088
0.0187862
0.014403
0.0100517
0.00567966
0.0013254
-0.00297075
-0.00719791
-0.0113632
-0.015475
-0.0195363
-0.0235468
-0.0275062
-0.0314135
-0.0352667
-0.0390445
-0.0428104
-0.046556
0.0360359
0.0301766
0.0243879
0.0191614
0.0142759
0.00944354
0.00457952
-0.000266005
-0.00503592
-0.00971487
-0.0143139
-0.018845
-0.0233124
-0.0277155
-0.0320531
-0.0363252
-0.0405295
-0.0446845
-0.0488004
-0.0528765
0.038947
0.0323389
0.0257038
0.0197878
0.0143392
0.00896603
0.00354499
-0.00185604
-0.00715803
-0.0123416
-0.0174235
-0.0224207
-0.0273373
-0.0321708
-0.0369188
-0.0415833
-0.0461737
-0.0507492
-0.0552603
-0.0596941
0.0424634
0.035014
0.0274057
0.0207083
0.0146297
0.00864699
0.00259349
-0.00343579
-0.00933473
-0.0150819
-0.0207033
-0.0262212
-0.0316399
-0.0369564
-0.0421686
-0.0472787
-0.0522893
-0.0572631
-0.0621679
-0.0669861
0.0466541
0.0382634
0.0295478
0.021973
0.0151915
0.00851882
0.00174528
-0.00499367
-0.0115608
-0.0179371
-0.0241616
-0.0302609
-0.0362371
-0.0420848
-0.0478007
-0.0533855
-0.0588358
-0.0642455
-0.069584
-0.0748204
0.0515849
0.042146
0.0321858
0.0236395
0.0160759
0.00861825
0.00102346
-0.00651464
-0.0138271
-0.0209058
-0.0278048
-0.0345531
-0.0411486
-0.047584
-0.0538559
-0.0599626
-0.0658803
-0.0717628
-0.0775685
-0.0832479
0.0573139
0.0467088
0.0353738
0.0257724
0.0173408
0.00898448
0.000453389
-0.00797971
-0.0161214
-0.0239854
-0.0316406
-0.039112
-0.0463915
-0.0534739
-0.0603631
-0.0670524
-0.0735316
-0.0799348
-0.0862189
-0.0923446
0.0638872
0.0519812
0.0391633
0.0284436
0.019047
0.00965573
6.27998e-05
-0.00936439
-0.0184279
-0.0271751
-0.0356827
-0.0439611
-0.0519894
-0.0597522
-0.0672519
-0.0745196
-0.0817784
-0.0888231
-0.0956107
-0.102182
0.0713412
0.0579842
0.0436178
0.0317376
0.021255
0.0106682
-0.000115275
-0.0106359
-0.0207252
-0.0304707
-0.039944
-0.049137
-0.058025
-0.0665993
-0.0748653
-0.0828252
-0.0906976
-0.0983448
-0.105696
-0.112775
0.0796849
0.0647506
0.0488392
0.0357629
0.0240297
0.0120633
-3.48551e-05
-0.0117495
-0.0229848
-0.0338605
-0.0444241
-0.0546468
-0.0645011
-0.0739732
-0.0830482
-0.0917079
-0.100284
-0.108615
-0.116585
-0.124209
0.0888029
0.0722936
0.0549635
0.040655
0.0274476
0.0138988
0.000368722
-0.0126528
-0.0251766
-0.0373259
-0.0491056
-0.0604719
-0.0714101
-0.0819235
-0.0919855
-0.101483
-0.110841
-0.119862
-0.128444
-0.136622
0.098231
0.0804039
0.0620499
0.0465331
0.0316005
0.0162848
0.00121318
-0.0132625
-0.0272527
-0.0408405
-0.0539828
-0.066618
-0.0786897
-0.0901531
-0.101044
-0.112001
-0.122396
-0.132135
-0.141339
-0.150099
0.107065
0.0883306
0.0697857
0.0532041
0.0363898
0.0192589
0.00256965
-0.0135339
-0.0291791
-0.0443759
-0.0590672
-0.0732217
-0.0867946
-0.0996827
-0.111692
-0.123509
-0.134766
-0.14531
-0.155238
-0.164641
0.114833
0.0957355
0.0779537
0.0603498
0.0418274
0.0231349
0.00486104
-0.0129658
-0.0303675
-0.0472728
-0.0636141
-0.0793847
-0.0945922
-0.109192
-0.1227
-0.135865
-0.148194
-0.159628
-0.170324
-0.180377
0.00370182
0.00259776
0.0015142
0.000451983
-0.000588176
-0.00160562
-0.0025997
-0.0035698
-0.00451532
0.00319844
0.00206526
0.000952683
-0.000138443
-0.00120727
-0.00225297
-0.00327479
-0.00427199
-0.00524391
0.00220502
0.00102693
-0.000130297
-0.00126568
-0.00237835
-0.0034675
-0.00453236
-0.00557221
-0.00658638
0.000801429
-0.000438972
-0.00165837
-0.00285581
-0.00403043
-0.0051814
-0.00630795
-0.00740937
-0.008485
-0.000997687
-0.00231731
-0.00361581
-0.00489225
-0.00614577
-0.00737558
-0.00858094
-0.00976116
-0.0109156
-0.00316422
-0.00457955
-0.00597366
-0.00734565
-0.00869475
-0.0100202
-0.0113214
-0.0125976
-0.0138483
-0.00568479
-0.00721265
-0.0087192
-0.0102036
-0.0116652
-0.0131034
-0.0145175
-0.0159071
-0.0172716
-0.00854946
-0.010207
-0.011843
-0.0134569
-0.0150482
-0.0166163
-0.0181607
-0.0196812
-0.0211773
-0.0117535
-0.0135584
-0.0153415
-0.0171023
-0.0188406
-0.0205562
-0.0222486
-0.0239178
-0.0255636
-0.0152945
-0.0172658
-0.0192143
-0.0211399
-0.0230432
-0.0249242
-0.0267827
-0.0286189
-0.0304327
-0.0191778
-0.0213341
-0.0234668
-0.0255758
-0.0276622
-0.0297265
-0.0317692
-0.0337905
-0.0357908
-0.0234272
-0.0257784
-0.0281087
-0.0304177
-0.0327048
-0.0349704
-0.0372152
-0.0394399
-0.0280217
-0.0305959
-0.0331465
-0.0356747
-0.0381812
-0.0406667
-0.0431321
-0.0455786
-0.0329816
-0.035798
-0.0385886
-0.0413557
-0.0441007
-0.0468249
-0.0495295
-0.0522162
-0.0383285
-0.0414068
-0.0444567
-0.0474812
-0.0504827
-0.0534631
-0.0564243
-0.0593686
-0.0440829
-0.0474435
-0.0507713
-0.054071
-0.0573464
-0.0605998
-0.063834
-0.0670517
-0.0502636
-0.0539276
-0.0575526
-0.0611456
-0.0647116
-0.0682541
-0.0717762
-0.0752817
-0.0569072
-0.0608905
-0.0648305
-0.0687334
-0.072605
-0.07645
-0.0802727
-0.0840777
-0.0640607
-0.0683732
-0.07264
-0.0768656
-0.0810543
-0.0852118
-0.0893438
-0.0934563
-0.0717232
-0.0763925
-0.081005
-0.0855674
-0.0900851
-0.0945645
-0.0990122
-0.103436
-0.0799527
-0.084996
-0.0899669
-0.0948757
-0.0997297
-0.104536
-0.109302
-0.114037
-0.0887942
-0.0942274
-0.0995689
-0.104832
-0.110024
-0.115156
-0.120237
-0.125277
-0.098314
-0.104148
-0.109868
-0.115485
-0.121012
-0.126459
-0.131838
-0.137162
-0.108577
-0.114818
-0.120917
-0.126886
-0.132739
-0.138487
-0.144143
-0.149722
-0.119628
-0.126286
-0.132765
-0.139079
-0.145243
-0.151273
-0.157185
-0.162994
-0.131542
-0.138622
-0.145472
-0.152111
-0.158556
-0.164828
-0.17095
-0.176942
-0.144446
-0.151948
-0.159151
-0.166077
-0.17275
-0.179194
-0.185436
-0.191504
-0.158441
-0.166376
-0.173924
-0.181111
-0.187965
-0.194509
-0.200772
-0.206782
-0.173538
-0.181934
-0.189846
-0.1973
-0.204322
-0.210937
-0.21717
-0.223046
-0.189806
-0.198621
-0.206847
-0.214509
-0.221635
-0.228254
-0.234396
-0.240088
)
;

boundaryField
{
    inlet
    {
        type            zeroGradient;
    }
    outlet
    {
        type            fixedValue;
        value           nonuniform 0();
    }
    cylinder
    {
        type            zeroGradient;
    }
    top
    {
        type            symmetryPlane;
    }
    bottom
    {
        type            symmetryPlane;
    }
    defaultFaces
    {
        type            empty;
    }
    procBoundary0to1
    {
        type            processor;
        value           nonuniform List<scalar> 
50
(
-0.266454
-0.266454
-0.294684
-0.294684
-0.320431
-0.354707
-0.320431
-0.339092
-0.354707
-0.361123
-0.361123
-0.36413
-0.36413
-0.365402
-0.365402
-0.359548
-0.359057
-0.359057
-0.356224
-0.00543572
-0.00618992
-0.00757427
-0.00953425
-0.0120438
-0.0150731
-0.0186108
-0.0226489
-0.0271859
-0.0322245
-0.0377707
-0.0416454
-0.0416454
-0.0480074
-0.054887
-0.0622984
-0.0702563
-0.0787747
-0.08787
-0.0975554
-0.107842
-0.118747
-0.130286
-0.142444
-0.155234
-0.168709
-0.182822
-0.197429
-0.212571
-0.22859
-0.245353
)
;
    }
    procBoundary0to2
    {
        type            processor;
        value           nonuniform List<scalar> 
26
(
0.644443
0.62218
0.607086
0.590134
0.590134
0.562632
0.531992
0.499804
0.467267
0.435237
0.404323
0.133947
0.137186
0.140878
0.148725
0.156433
0.168108
0.180108
0.195959
0.212716
0.233275
0.255426
0.281224
0.308666
0.339674
0.371723
)
;
    }
}


// ************************************************************************* //
