/*--------------------------------*- C++ -*----------------------------------*\
  =========                 |
  \\      /  F ield         | OpenFOAM: The Open Source CFD Toolbox
   \\    /   O peration     | Website:  https://openfoam.org
    \\  /    A nd           | Version:  7
     \\/     M anipulation  |
\*---------------------------------------------------------------------------*/
FoamFile
{
    version     2.0;
    format      ascii;
    class       surfaceScalarField;
    location    "290";
    object      phi;
}
// * * * * * * * * * * * * * * * * * * * * * * * * * * * * * * * * * * * * * //

dimensions      [0 3 -1 0 0 0 0];

internalField   nonuniform List<scalar> 
4136
(
-0.000985621
-5.92438e-05
-0.00301147
-5.04771e-05
-2.90138e-06
-0.000984411
0.000925167
-0.00300838
0.00197349
-0.00552416
0.00251288
-0.00824669
0.0027647
-0.0110826
0.00291573
-0.014025
0.00306043
-0.0170888
0.00322451
-0.0202915
0.00341057
-0.0236495
0.00361726
0.00384428
-0.0271792
-0.000978911
0.00190408
-0.00299476
0.00398934
-0.00550291
0.00502103
-0.00821872
0.00548051
-0.0110483
0.00574529
-0.0139844
0.00599657
-0.0170419
0.006282
-0.0202382
0.00660691
-0.0235899
0.00696889
0.00736726
-0.0271128
-0.00096913
0.00287321
-0.00297061
0.00599082
-0.0054653
0.00751572
-0.00816927
0.00818448
-0.0109877
0.00856372
-0.0139128
0.00892163
-0.016959
0.00932827
-0.020144
0.00979183
-0.023484
0.0103089
0.0108782
-0.0269949
-0.000955085
0.00382829
-0.00293595
0.00797168
-0.00541135
0.00999112
-0.00809835
0.0108715
-0.0109008
0.0113662
-0.01381
0.0118308
-0.0168402
0.0123584
-0.0200087
0.0129603
-0.023332
0.0136322
0.0143717
-0.0268256
-0.000936802
0.0047651
-0.00289078
0.00992567
-0.00534103
0.0124414
-0.00800595
0.0135364
-0.0107877
0.0141479
-0.0136762
0.0147194
-0.0166854
0.0153676
-0.0198325
0.0161074
-0.023134
0.0169337
0.0178425
-0.0266047
-0.000914313
0.00567941
-0.00283516
0.0118465
-0.00525438
0.0148606
-0.00789206
0.0161741
-0.0106482
0.0169041
-0.0135114
0.0175825
-0.0164947
0.018351
-0.0196154
0.0192281
-0.0228899
0.0202083
0.021285
-0.0263325
-0.000887665
0.00656707
-0.0027691
0.013728
-0.00515138
0.0172429
-0.00775668
0.0187794
-0.0104825
0.01963
-0.0133155
0.0204154
-0.0162682
0.0213037
-0.0193576
0.0223174
-0.0226
0.0234508
0.024694
-0.026009
-0.000856909
0.00742398
-0.00269268
0.0155637
-0.00503207
0.0195823
-0.00759981
0.0213471
-0.0102906
0.0223208
-0.0130887
0.0232135
-0.016006
0.024221
-0.0190591
0.0253705
-0.0222644
0.0266561
0.028064
-0.0256345
-0.000822113
0.00824609
-0.00260593
0.0173475
-0.00489647
0.0218728
-0.00742145
0.0238721
-0.0100724
0.0249717
-0.0128309
0.0259721
-0.0157081
0.0270982
-0.0187201
0.0283826
-0.0218834
0.0298194
0.0313898
-0.0252092
-0.000783353
0.00902945
-0.00250896
0.0190731
-0.00474461
0.0241085
-0.00722161
0.0263491
-0.00982795
0.027578
-0.0125423
0.0286865
-0.0153747
0.0299305
-0.0183409
0.0313488
-0.0214572
0.0329357
0.0346664
-0.0247338
-0.00074072
0.00977017
-0.00240184
0.0207343
-0.00457652
0.0262831
-0.0070003
0.0287729
-0.00955735
0.0301351
-0.012223
0.0313521
-0.0150059
0.0327134
-0.0179217
0.0342645
-0.0209864
0.0360005
0.0378889
-0.0242088
-0.000694323
0.0104645
-0.00228469
0.0223246
-0.00439225
0.0283907
-0.00675753
0.0311381
-0.0092606
0.0326381
-0.011873
0.0339646
-0.014602
0.0354424
-0.0174626
0.0371252
-0.0204713
0.0390091
0.0410527
-0.0236352
-0.000644283
0.0111088
-0.00215764
0.023838
-0.00419189
0.030425
-0.00649333
0.0334396
-0.00893774
0.0350825
-0.0114925
0.0365193
-0.0141629
0.0381128
-0.0169641
0.0399263
-0.0199124
0.0419575
0.0441541
-0.0230138
-0.000590745
0.0116995
-0.00202088
0.0252681
-0.00397552
0.0323796
-0.00620772
0.0356718
-0.00858882
0.0374636
-0.0110815
0.039012
-0.013689
0.0407204
-0.0164261
0.0426633
-0.0193103
0.0448417
0.0471899
-0.022346
-0.000533873
0.0122334
-0.00187458
0.0266088
-0.00374325
0.0342483
-0.00590076
0.0378293
-0.00821389
0.0397768
-0.0106401
0.0414382
-0.0131804
0.0432606
-0.0158486
0.0453316
-0.018665
0.047658
0.0501581
-0.0216332
-0.000473852
0.0127072
-0.001719
0.027854
-0.00349523
0.0360245
-0.00557252
0.0399066
-0.00781301
0.0420173
-0.0101686
0.0437938
-0.0126372
0.0457292
-0.0152318
0.0479261
-0.0179764
0.0504027
0.0530591
-0.0208774
-0.000410894
0.0131181
-0.00155442
0.0289975
-0.00323165
0.0377017
-0.00522307
0.041898
-0.00738623
0.0441804
-0.00966701
0.0460746
-0.0120599
0.0481221
-0.0145748
0.050441
-0.017242
0.0530699
0.0558973
-0.0200802
-0.000345232
0.0134634
-0.00138117
0.0300334
-0.00295273
0.0392733
-0.00485255
0.0437978
-0.00693368
0.0462616
-0.00913556
0.0482765
-0.0114496
0.0504361
-0.0138801
0.0528716
-0.0164611
0.0556509
0.0586837
-0.0192475
-0.000277131
0.0137405
-0.00119967
0.030956
-0.00265875
0.0407324
-0.00446112
0.0456002
-0.00645545
0.0482559
-0.00857394
0.050395
-0.0108051
0.0526673
-0.0131446
0.0552111
-0.0156099
0.0581161
0.0614436
-0.0183698
-0.000206898
0.0139474
-0.00101036
0.0317594
-0.00235001
0.042072
-0.004049
0.0472992
-0.00595191
0.0501588
-0.00798288
0.0524259
-0.0101294
0.0548138
-0.0123914
0.0574732
-0.0147314
0.060456
0.0642168
-0.0175046
-0.000134978
0.0140824
-0.00081372
0.0324382
-0.00202685
0.0432851
-0.00361649
0.0488888
-0.00542333
0.0519656
-0.0073625
0.0543651
-0.00941619
0.0568675
-0.0115967
0.0596537
-0.0139143
0.0627736
0.0664963
-0.0161937
-6.24086e-05
0.0141448
-0.000609983
0.0329858
-0.00168969
0.0443649
-0.00316393
0.0503631
-0.00486983
0.0536715
-0.00671335
0.0562086
-0.0086687
0.0588229
-0.0107448
0.0617297
-0.0129449
0.0649737
0.0688181
-0.0152666
7.66027e-06
0.0141371
-0.000398462
0.0333919
-0.00133918
0.0453056
-0.00269183
0.0517157
-0.00429181
0.0552715
-0.00603632
0.0579531
-0.00789144
0.060678
-0.00986389
0.0637022
-0.0119718
0.0670816
0.0710397
-0.0141934
8.90262e-05
0.0140481
-0.000175493
0.0336564
-0.000976382
0.0461065
-0.00220075
0.0529401
-0.00368986
0.0567606
-0.00533229
0.0595956
-0.00708634
0.062432
-0.00895584
0.0655717
-0.010959
0.0690847
0.0731461
-0.0130654
0.000163138
0.013885
5.47556e-05
0.0337648
-0.000603029
0.0467642
-0.00169111
0.0540282
-0.00306463
0.0581341
-0.00460173
0.0611327
-0.00625274
0.064083
-0.00801731
0.0673363
-0.00991126
0.0709787
0.0751393
-0.0119044
0.000232911
0.013652
0.000258434
0.0337393
-0.000215892
0.0472386
-0.00116413
0.0549764
-0.00241693
0.0593869
-0.00384493
0.0625607
-0.00539023
0.0656283
-0.00704718
0.0689932
-0.00882927
0.0727608
0.0770228
-0.0107128
0.000301617
0.0133504
0.000476767
0.0335641
0.000177358
0.047538
-0.00062304
0.0557768
-0.00174735
0.0605113
-0.00306237
0.0638757
-0.00449912
0.0670651
-0.00604592
0.07054
-0.00771298
0.0744278
0.0787921
-0.00948227
0.000369193
0.0129812
0.000696276
0.033237
0.000567051
0.0476672
-6.26781e-05
0.0564065
-0.0010565
0.0615051
-0.00225462
0.0650738
-0.00357996
0.0683904
-0.00501421
0.0719743
-0.00656355
0.0759772
0.080441
-0.00821242
0.000433958
0.0125473
0.000914996
0.032756
0.000968222
0.047614
0.000502601
0.0568721
-0.000346868
0.0623545
-0.00142242
0.0661494
-0.00263337
0.0696014
-0.00395264
0.0732935
-0.00538232
0.0774069
0.0819656
-0.00690695
0.000494942
0.0120523
0.00113093
0.03212
0.00137335
0.0473716
0.00108447
0.057161
0.000382913
0.0630561
-0.000567096
0.0670994
-0.00166025
0.0706945
-0.00286188
0.0744952
-0.00417057
0.0787156
0.0833633
-0.00556824
0.000551283
0.0115011
0.00134151
0.0313298
0.00177925
0.0469338
0.00167647
0.0572638
0.00113095
0.0636016
0.000311275
0.067919
-0.000662334
0.0716681
-0.00174294
0.0755758
-0.00292982
0.0799024
0.0846317
-0.00419821
0.000602065
0.010899
0.001544
0.0303878
0.00218267
0.0462951
0.0022754
0.0571711
0.00189516
0.0639819
0.00121397
0.0686002
0.000360739
0.0725214
-0.000599388
0.0765359
-0.00165986
0.0809629
0.0857705
-0.00279871
0.000646407
0.0102526
0.00173562
0.0292986
0.00257981
0.045451
0.00287802
0.0568729
0.00267283
0.064187
0.00213611
0.0691369
0.00141234
0.0732451
0.000572729
0.0773755
-0.000350217
0.0818859
0.0867988
-0.00137853
0.000683515
0.00956907
0.00191348
0.0280687
0.00296641
0.044398
0.00348031
0.056359
0.00346106
0.0642063
0.00307649
0.0695215
0.00248421
0.0738374
0.00177168
0.078088
0.000961077
0.0826965
0.0877489
1.10191e-05
0.000712705
0.00885637
0.00207457
0.0267068
0.00333771
0.0431349
0.00407745
0.0556192
0.00425614
0.0640276
0.0040327
0.069745
0.00357669
0.0742934
0.00299071
0.078674
0.00231522
0.083372
0.0884948
0.00156934
0.000733418
0.00812295
0.00221562
0.0252246
0.0036884
0.0416621
0.00466379
0.0546438
0.00505354
0.0636379
0.00500174
0.0697968
0.00468844
0.0746067
0.00423345
0.079129
0.00369232
0.0839131
0.0891077
0.00307936
0.000745284
0.00737766
0.00233353
0.0236363
0.00401266
0.039983
0.00523276
0.0534237
0.00584772
0.0630229
0.00597981
0.0696647
0.00581673
0.0747698
0.00549595
0.0794498
0.00508549
0.0843236
0.0895872
0.004606
0.000748142
0.00662952
0.0024255
0.021959
0.00430429
0.0381042
0.00577675
0.0519513
0.00663193
0.0621677
0.006962
0.0693346
0.00695804
0.0747738
0.00677501
0.0796328
0.00649572
0.0846028
0.0899334
0.00614957
0.000742038
0.00588748
0.00248907
0.020212
0.00455673
0.0360365
0.00628716
0.0502208
0.00739809
0.0610568
0.00794227
0.0687904
0.0081084
0.0746076
0.00806829
0.0796729
0.00792212
0.084749
0.090147
0.00770844
0.000727238
0.00516025
0.00252227
0.0184169
0.0047633
0.0337955
0.0067543
0.0482298
0.00813663
0.0596745
0.00891322
0.0680138
0.00926308
0.0742578
0.00937306
0.0795629
0.00936282
0.0847593
0.0902283
0.00928159
0.00070424
0.00445601
0.00252388
0.0165973
0.0049175
0.0314019
0.00716759
0.0459797
0.0088363
0.0580058
0.00986571
0.0669844
0.010416
0.0737075
0.0106857
0.0792932
0.0108155
0.0846295
0.0901761
0.0108677
0.000673764
0.00378224
0.00249357
0.0147775
0.00501341
0.028882
0.00751573
0.0434774
0.00948414
0.0560373
0.0107886
0.06568
0.0115594
0.0729366
0.0120016
0.0788511
0.0122773
0.0843537
0.0899883
0.0124651
0.000636742
0.0031455
0.00243207
0.0129822
0.00504619
0.0262679
0.00778705
0.0407366
0.0100654
0.053759
0.0116683
0.0640771
0.0126834
0.0719216
0.0133144
0.0782201
0.0137446
0.0839235
0.0896613
0.0140716
0.000594279
0.00255122
0.00234124
0.0112352
0.00501266
0.0235965
0.00797011
0.0377791
0.0105637
0.0511654
0.0124887
0.0621522
0.0137754
0.0706349
0.014616
0.0773794
0.0152125
0.083327
0.0891901
0.0156837
0.000547615
0.00200361
0.00222406
0.00955875
0.00491186
0.0209087
0.00805446
0.0346365
0.0109616
0.0482583
0.0132308
0.0598829
0.0148197
0.069046
0.015896
0.0763031
0.0166748
0.0825482
0.0885672
0.0172977
0.000498064
0.00150554
0.00208445
0.00797236
0.0047456
0.0182475
0.00803164
0.0313505
0.0112407
0.0450493
0.0138729
0.0572506
0.0157971
0.0671218
0.0171404
0.0749598
0.018123
0.0815657
0.0877813
0.0189088
0.000446956
0.00105859
0.00192711
0.00649221
0.00451866
0.015656
0.00789644
0.0279727
0.0113833
0.0415624
0.0143907
0.0542432
0.0166842
0.0648283
0.0183315
0.0733125
0.0195458
0.0803514
0.0868166
0.0205105
0.00039556
0.000663027
0.00175713
0.00513063
0.00423871
0.0131744
0.00764811
0.0245633
0.0113737
0.0378368
0.0147581
0.0508588
0.0174533
0.0621332
0.0194465
0.0713192
0.020928
0.0788699
0.0220941
0.000345017
0.000318011
0.00157968
0.00389597
0.00391582
0.0108383
0.00729144
0.0211877
0.0111999
0.0339284
0.0149485
0.0471101
0.0180724
0.0590094
0.0204571
0.0689344
0.000296262
2.1748e-05
0.00139956
0.00279268
0.00356157
0.00867627
0.00683724
0.017912
0.0108562
0.0299094
0.0149367
0.0430297
0.018506
0.05544
0.000249963
-0.000228215
0.00122088
0.00182176
0.0031879
0.00670925
0.00630179
0.0147981
0.0103454
0.0258659
0.0147019
0.00020644
-0.000434655
0.0010468
0.000981394
0.00280588
0.00495018
0.00570531
0.0118987
0.000165714
-0.000600369
0.000879371
0.000267737
0.00242482
0.00340472
0.000127539
-0.000727909
0.000719659
-0.000324382
9.15528e-05
-0.000819462
-0.000800924
5.74705e-05
-0.000876932
0.0344359
2.36552e-05
0.000895762
0.0335046
-0.00104889
0.00198016
0.0325454
-0.00339633
0.00435559
0.0315643
-0.00480284
0.00578389
0.0305398
-0.00746065
0.00848518
0.0294758
-0.00898964
0.0100537
0.028349
-0.0118176
0.0129444
0.0271633
-0.0134641
0.0146498
0.0259011
-0.0165173
0.0177796
0.024572
-0.0182839
0.019613
0.0231787
-0.0216621
0.0230553
0.0217494
-0.0233689
0.0247983
0.0203187
-0.027181
0.0286117
0.0190062
-0.0282967
0.0296091
-0.0330624
0.034564
0.0345629
0.000816091
0.0337481
-0.00023405
0.0328932
-0.00254143
0.0320077
-0.00391738
0.0310679
-0.00652088
0.0300821
-0.00800383
0.0290234
-0.0107589
0.0279026
-0.0123433
0.0266943
-0.015309
0.0254203
-0.0170099
0.0240623
-0.0203041
0.0226741
-0.0219808
0.021225
-0.0257318
0.0198817
-0.0269534
-0.0315505
0.0346848
0.00148667
0.0339829
0.000467807
0.0332291
-0.00178764
0.0324389
-0.00312717
0.0315837
-0.00566566
0.0306786
-0.00709878
0.0296908
-0.00977108
0.0286384
-0.0112909
0.0274873
-0.0141579
0.0262684
-0.015791
0.024946
-0.0189818
0.0235915
-0.0206262
0.0221355
-0.0242758
0.0207653
-0.0255832
-0.0300327
0.0348009
0.00204107
0.0342072
0.00106158
0.0335501
-0.00113062
0.0328513
-0.00242833
0.0320774
-0.00489175
0.0312502
-0.00627157
0.0303308
-0.00885176
0.0293448
-0.0103048
0.0282491
-0.0130622
0.0270841
-0.014626
0.0257976
-0.0176953
0.0244756
-0.0193041
0.0230217
-0.022822
0.0216289
-0.0241904
-0.028484
0.0349112
0.00248523
0.0344203
0.0015525
0.0338552
-0.000565526
0.0332433
-0.00181642
0.0325466
-0.00419512
0.0317935
-0.00551848
0.0309393
-0.0079975
0.0300165
-0.00938207
0.0289736
-0.0120193
0.0278602
-0.0135126
0.0266088
-0.0164439
0.0253167
-0.018012
0.0238698
-0.0213751
0.022457
-0.0227776
-0.0269044
0.0350154
0.00282517
0.0346218
0.00194611
0.0341437
-8.74613e-05
0.0336142
-0.00128688
0.0329908
-0.00357172
0.0323081
-0.00483579
0.0315155
-0.00720488
0.0306528
-0.00851942
0.0296599
-0.0110263
0.0285949
-0.0124476
0.0273775
-0.0152266
0.0261121
-0.0167466
0.0246745
-0.0199375
0.0232451
-0.0213481
-0.0252926
0.0351134
0.00306707
0.0348116
0.00224794
0.034415
0.00030918
0.0339634
-0.000835299
0.033409
-0.0030173
0.0327928
-0.00421959
0.0320582
-0.00647031
0.0312522
-0.00771339
0.0303063
-0.0100805
0.0292862
-0.0114275
0.0281016
-0.0140419
0.0268601
-0.0155051
0.0254327
-0.0185101
0.0239895
-0.0199049
-0.0236491
0.0352051
0.00321733
0.034989
0.00246399
0.0346688
0.000629427
0.0342902
-0.000456669
0.0338003
-0.00252747
0.0332465
-0.00366579
0.0325663
-0.00579006
0.0318131
-0.00696027
0.0309114
-0.00917874
0.0299328
-0.0104488
0.0287793
-0.0128885
0.0275593
-0.0142851
0.0261421
-0.0170929
0.0246875
-0.0184503
-0.0219755
0.0352902
0.00328247
0.0351538
0.00260042
0.0349049
0.000878291
0.034594
-0.00014574
0.0341642
-0.00209769
0.0336685
-0.0031701
0.0330388
-0.00516036
0.0323347
-0.0062562
0.0314742
-0.00831823
0.0305333
-0.00950791
0.0294093
-0.0117645
0.0282086
-0.0130844
0.026801
-0.0156853
0.0253368
-0.0169861
-0.0202738
0.0353686
0.00326921
0.0353058
0.00266323
0.0351226
0.0010615
0.0348743
0.000102559
0.0344999
-0.00172334
0.034058
-0.00272813
0.033475
-0.00457736
0.032816
-0.0055972
0.0319937
-0.00749592
0.031087
-0.00860126
0.0299904
-0.0106678
0.0288071
-0.0119011
0.0274083
-0.0142865
0.025936
-0.0155138
-0.0185466
0.0354402
0.00318434
0.0354448
0.00265859
0.035322
0.00118434
0.0351302
0.000294346
0.0348071
-0.0014002
0.0344143
-0.00233534
0.0338741
-0.00403723
0.0332562
-0.00497927
0.0324691
-0.00670876
0.0315932
-0.00772542
0.0305218
-0.00959641
0.029354
-0.0107333
0.0279632
-0.0128957
0.0264837
-0.0140344
-0.0167967
0.0355049
0.00303477
0.0355706
0.00259286
0.0355019
0.00125311
0.0353623
0.000433913
0.035085
-0.00112291
0.0347369
-0.00198718
0.0342357
-0.00353605
0.0336548
-0.00439835
0.0328996
-0.00595362
0.0320513
-0.00687705
0.0310027
-0.00854784
0.0298487
-0.0095793
0.0284648
-0.0115118
0.0269792
-0.0125487
-0.0150267
0.0355626
0.00282748
0.0356829
0.00247258
0.0356624
0.00127357
0.0355697
0.000526701
0.0353334
-0.000886695
0.0350252
-0.00167894
0.034559
-0.00306986
0.0340111
-0.00385042
0.0332848
-0.00522733
0.0324607
-0.00605294
0.0314325
-0.00751969
0.0302907
-0.00843746
0.0289128
-0.0101339
0.0274217
-0.0110576
-0.0132395
0.0356133
0.00256953
0.0357815
0.00230439
0.0358036
0.00125146
0.035752
0.000578334
0.035552
-0.000686702
0.0352789
-0.00140585
0.0348437
-0.00263465
0.0343247
-0.00333143
0.033624
-0.0045266
0.032821
-0.00524998
0.0318108
-0.00650949
0.0306795
-0.0073062
0.0293067
-0.00876111
0.0278109
-0.00956176
-0.0114377
0.0356568
0.00226807
0.0358662
0.00209498
0.035925
0.00119265
0.0359089
0.000594448
0.0357402
-0.000518019
0.0354975
-0.00116312
0.0350892
-0.00222639
0.0345952
-0.00283741
0.0339167
-0.00384812
0.0331319
-0.00446516
0.0321372
-0.00551476
0.031015
-0.00618397
0.0296464
-0.00739258
0.0281465
-0.00806177
-0.0096237
0.0356931
0.00193028
0.035937
0.00185113
0.0360265
0.00110308
0.0360403
0.000580737
0.0358979
-0.000375706
0.0356808
-0.000945947
0.0352953
-0.00184096
0.0348223
-0.0023644
0.0341627
-0.00318851
0.0333931
-0.00369558
0.0324114
-0.00453305
0.0312968
-0.00506934
0.0299318
-0.00602757
0.0284284
-0.00655838
-0.00780005
0.0357222
0.00156342
0.0359937
0.00157966
0.036108
0.000988748
0.0361458
0.000542955
0.0360249
-0.0002548
0.0358284
-0.000749495
0.0354617
-0.00147421
0.0350058
-0.00190847
0.0343616
-0.00254437
0.0336044
-0.00293837
0.0326333
-0.00356195
0.0315249
-0.00396092
0.0301627
-0.00466539
0.0286567
-0.00505236
-0.00596892
0.035744
0.00117477
0.0360362
0.00128747
0.0361692
0.0008557
0.0362253
0.000486899
0.0361208
-0.000150318
0.0359402
-0.000568933
0.035588
-0.00112197
0.0351453
-0.00146576
0.0345132
-0.00191227
0.0337655
-0.00219071
0.0328027
-0.0025991
0.0316992
-0.00285744
0.0303393
-0.00330546
0.0288314
-0.00354454
-0.0041324
0.0357585
0.000771649
0.0360645
0.000981446
0.0362102
0.000710003
0.0362787
0.000418411
0.0361856
-5.72694e-05
0.0360161
-0.000399422
0.0356741
-0.00077998
0.0352408
-0.00103242
0.0346173
-0.00128878
0.0338764
-0.00144981
0.0329195
-0.00164217
0.0318197
-0.00175767
0.0304615
-0.00194727
0.0289528
-0.0020358
-0.00229247
0.0357656
0.0360785
0.0362308
0.0363058
0.0362192
0.0360559
0.0357199
0.0352921
0.0346737
0.0339369
0.0329835
0.0318862
0.0305293
0.0290205
0.201993
-0.000188663
0.20247
-0.00047717
0.203214
-0.000743975
0.204136
-0.000922076
0.205211
-0.00107532
0.206362
-0.0011512
0.207566
-0.00120382
0.208761
-0.00119475
0.209936
-0.0011756
0.211049
-0.00111251
0.212104
-0.00105473
0.21307
-0.00096621
0.213966
-0.000895789
0.214766
-0.000800777
-0.000732489
0.215499
0.192563
-0.000368018
0.193015
-0.000929268
0.193721
-0.0014498
0.194597
-0.00179809
0.195622
-0.00210059
0.196723
-0.00225159
0.197878
-0.00235909
0.199028
-0.00234431
0.200163
-0.00231075
0.201239
-0.0021889
0.202263
-0.00207808
0.203201
-0.00190487
0.204074
-0.00176803
0.204854
-0.00158115
-0.00144908
0.20557
0.183574
-0.000537889
0.183995
-0.00135062
0.184662
-0.00211684
0.185492
-0.00262782
0.186472
-0.00308052
0.187527
-0.003307
0.188643
-0.00347525
0.189758
-0.0034588
0.190865
-0.00341821
0.191918
-0.00324214
0.192925
-0.0030849
0.193851
-0.00283029
0.194715
-0.0026321
0.195488
-0.00235496
-0.00216211
0.196202
0.175003
-0.000698321
0.175391
-0.0017387
0.176018
-0.00274409
0.176801
-0.00341024
0.177737
-0.00401652
0.17875
-0.00431997
0.179832
-0.00455769
0.180918
-0.00454496
0.182007
-0.00450714
0.183047
-0.00428211
0.184049
-0.0040865
0.184972
-0.00375362
0.18584
-0.00349971
0.186618
-0.00313307
-0.00288336
0.187339
0.166832
-0.000849408
0.167185
-0.00209108
0.167771
-0.00333064
0.168505
-0.0041436
0.169397
-0.00490872
0.170368
-0.00529097
0.171419
-0.00560933
0.172481
-0.00560664
0.173558
-0.00558363
0.174591
-0.00531554
0.175596
-0.00509117
0.176525
-0.00468316
0.177406
-0.00438004
0.178197
-0.00392414
-0.00362187
0.178935
0.159043
-0.00099119
0.159357
-0.00240545
0.159902
-0.00387573
0.160584
-0.00482549
0.161431
-0.0057561
0.162359
-0.0062187
0.163381
-0.00663091
0.164419
-0.00664517
0.165487
-0.00665116
0.166518
-0.00634652
0.167531
-0.00610465
0.168473
-0.00562486
0.169373
-0.0052801
0.170184
-0.00473484
-0.00438483
0.170947
0.151616
-0.00112354
0.15189
-0.00267984
0.152393
-0.00437879
0.153021
-0.00545289
0.153821
-0.00655681
0.154703
-0.00710035
0.155694
-0.00762139
0.156708
-0.00765977
0.157768
-0.00771096
0.158798
-0.00737687
0.159824
-0.00713053
0.160782
-0.00658268
0.161707
-0.00620507
0.162542
-0.00557024
-0.00517808
0.163336
0.144535
-0.00124608
0.144768
-0.00291287
0.145229
-0.00483946
0.145798
-0.00602232
0.14655
-0.00730842
0.147381
-0.00793198
0.148338
-0.00857829
0.149326
-0.00864781
0.150378
-0.00876232
0.151407
-0.00840642
0.152447
-0.00817054
0.153423
-0.00755887
0.154377
-0.00715865
0.155241
-0.0064341
-0.00600628
0.156069
0.137783
-0.00135805
0.137975
-0.00310411
0.138393
-0.00525745
0.138901
-0.00653018
0.1396
-0.00800835
0.140377
-0.00870877
0.141297
-0.009498
0.142254
-0.00960513
0.143295
-0.00980285
0.144322
-0.00943324
0.145376
-0.00922479
0.146371
-0.00855418
0.147356
-0.0081432
0.148251
-0.00732906
-0.00687319
0.149118
0.131345
-0.0014583
0.131496
-0.00325433
0.13187
-0.00563232
0.132313
-0.00697317
0.132959
-0.00865401
0.133676
-0.00942536
0.134554
-0.0103762
0.135475
-0.0105263
0.136501
-0.0108288
0.137522
-0.0104539
0.138589
-0.0102919
0.139603
-0.00956802
0.140619
-0.00915995
0.141547
-0.0082568
-0.00778173
0.142456
0.125206
-0.00154537
0.125317
-0.00336569
0.125648
-0.00596312
0.126024
-0.007349
0.126613
-0.00924289
0.127264
-0.0100762
0.128095
-0.011208
0.128974
-0.0114049
0.12998
-0.011835
0.13099
-0.0114636
0.132067
-0.0113693
0.133098
-0.0105986
0.134147
-0.0102091
0.135108
-0.00921814
-0.0087342
0.136061
0.119351
-0.0016176
0.119427
-0.00344158
0.119712
-0.00624826
0.12002
-0.00765686
0.120549
-0.00977245
0.121129
-0.0106562
0.121909
-0.0119884
0.122738
-0.0122338
0.123719
-0.0128157
0.124712
-0.0124563
0.125795
-0.012453
0.12684
-0.0116428
0.12792
-0.0112898
0.128915
-0.0102131
-0.00973227
0.129913
0.113767
-0.00167346
0.113811
-0.00348634
0.114049
-0.00648553
0.11429
-0.00789785
0.114757
-0.0102399
0.115262
-0.0111608
0.115985
-0.0127122
0.116757
-0.0130053
0.117705
-0.0137642
0.118674
-0.0134251
0.119759
-0.0135381
0.120813
-0.0126968
0.121924
-0.0124005
0.122952
-0.011241
-0.0107771
0.123997
0.108441
-0.00171175
0.10846
-0.00350478
0.108646
-0.00667241
0.108824
-0.0080751
0.109226
-0.0106422
0.109652
-0.0115873
0.110314
-0.0133741
0.111021
-0.0137117
0.11193
-0.0146734
0.112867
-0.0143621
0.113947
-0.0146184
0.115006
-0.0137553
0.116144
-0.0135385
0.117203
-0.0123004
-0.0118694
0.118295
0.103363
-0.00173186
0.10336
-0.00350159
0.103494
-0.00680659
0.103612
-0.0081934
0.103946
-0.0109758
0.104293
-0.0119348
0.104888
-0.0139685
0.105522
-0.014346
0.106384
-0.0155357
0.107281
-0.0152585
0.108349
-0.015687
0.109406
-0.0148124
0.110568
-0.0147002
0.111657
-0.0133891
-0.0130093
0.112797
0.0985209
-0.00173399
0.0985002
-0.00348084
0.0985802
-0.00688664
0.0986455
-0.00825863
0.0989067
-0.0112371
0.0991766
-0.0122046
0.0996974
-0.0144893
0.100254
-0.0149024
0.101061
-0.0163433
0.101908
-0.016105
0.102957
-0.0167361
0.104006
-0.0158609
0.105186
-0.0158811
0.106302
-0.0145044
-0.0141964
0.107489
0.0939052
-0.00171912
0.09387
-0.00344561
0.0938959
-0.00691258
0.0939143
-0.00827698
0.0941001
-0.0114229
0.0942958
-0.0124003
0.0947363
-0.0149298
0.0952107
-0.0153767
0.0959551
-0.0170878
0.0967423
-0.0168922
0.0977635
-0.0177573
0.0987953
-0.0168928
0.0999898
-0.0170756
0.101128
-0.0156426
-0.0154298
0.102361
0.0895059
-0.00168905
0.0894581
-0.00339781
0.0894318
-0.00688621
0.089409
-0.0082542
0.0895173
-0.0115312
0.0896437
-0.0125268
0.0899973
-0.0152834
0.0903881
-0.0157675
0.09106
-0.0177597
0.091779
-0.0176112
0.092763
-0.0187412
0.0937687
-0.0178985
0.0949705
-0.0182773
0.0961272
-0.0167993
-0.0167079
0.0974052
0.0853137
-0.00164614
0.0852541
-0.00333828
0.0851791
-0.00681112
0.0851199
-0.00819501
0.0851506
-0.0115619
0.0852133
-0.0125895
0.0854738
-0.0155439
0.0857818
-0.0160755
0.0863708
-0.0183487
0.087014
-0.0182544
0.0879506
-0.0196778
0.0889199
-0.0188679
0.0901216
-0.019479
0.0912914
-0.0179691
-0.0180282
0.0926117
0.0813192
-0.00159306
0.0812478
-0.00326692
0.0811293
-0.00669258
0.0810371
-0.00810285
0.0809926
-0.0115173
0.0809968
-0.0125938
0.0811598
-0.0157069
0.0813875
-0.0163032
0.0818824
-0.0188435
0.0824443
-0.0188163
0.0833218
-0.0205553
0.0842438
-0.0197899
0.0854376
-0.0206728
0.0866137
-0.0191452
-0.0193878
0.0879733
0.0775134
-0.00153255
0.0774297
-0.00318319
0.077274
-0.00653696
0.0771511
-0.00797988
0.0770361
-0.0114024
0.0769862
-0.0125439
0.0770496
-0.0157703
0.0772006
-0.0164542
0.0775903
-0.0192332
0.078068
-0.0192941
0.0788726
-0.0213599
0.0797367
-0.0206541
0.0809138
-0.0218498
0.082088
-0.0203194
-0.0207832
0.0834834
0.0738874
-0.00146708
0.0737908
-0.00308661
0.0736048
-0.00635099
0.0734522
-0.00782729
0.0732741
-0.0112242
0.0731729
-0.0124428
0.0731383
-0.0157357
0.0732158
-0.0165317
0.0734906
-0.019508
0.0738835
-0.019687
0.0745988
-0.0220752
0.0753962
-0.0214514
0.0765463
-0.0229999
0.0777091
-0.0214823
-0.0222105
0.0791364
0.0704324
-0.0013986
0.070323
-0.00297721
0.0701131
-0.00614112
0.0699317
-0.00764587
0.069699
-0.0109915
0.069548
-0.0122918
0.0694208
-0.0156085
0.0694271
-0.0165379
0.0695806
-0.0196615
0.0698895
-0.0199959
0.0704974
-0.022683
0.0712215
-0.0221756
0.0723313
-0.0241097
0.0734726
-0.0226237
-0.0236665
0.0749287
0.0671398
-0.00132846
0.0670183
-0.00285574
0.0667902
-0.00591294
0.0665812
-0.00743689
0.0663031
-0.0107134
0.0661032
-0.012092
0.0658922
-0.0153975
0.0658274
-0.0164731
0.0658586
-0.0196927
0.0660837
-0.020221
0.0665664
-0.0231657
0.0672138
-0.0228229
0.0682649
-0.0251608
0.0693737
-0.0237325
-0.0251524
0.0708596
0.0640016
-0.0012574
0.0638696
-0.00272376
0.0636276
-0.0056709
0.0633933
-0.0072026
0.0630781
-0.0103982
0.0628307
-0.0118447
0.0625466
-0.0151133
0.06241
-0.0163365
0.0623233
-0.019606
0.0624628
-0.0203605
0.0628061
-0.023509
0.0633762
-0.0233931
0.0643439
-0.0261284
0.0654073
-0.0247958
-0.026676
0.0669308
0.0610102
-0.00118573
0.0608698
-0.00258335
0.0606172
-0.00541835
0.060361
-0.00694633
0.0600157
-0.0100529
0.0597239
-0.0115529
0.0593774
-0.0147669
0.0591686
-0.0161277
0.0589735
-0.0194109
0.0590227
-0.0204097
0.0592186
-0.0237049
0.0597118
-0.0238863
0.0605675
-0.0269841
0.0615742
-0.0258025
-0.028242
0.0631403
0.0581585
-0.00111356
0.0580119
-0.00243679
0.0577515
-0.00515792
0.0574773
-0.00667214
0.0571078
-0.00968339
0.0567765
-0.0112215
0.0563775
-0.0143679
0.0560985
-0.0158487
0.0558067
-0.0191191
0.0557596
-0.0203626
0.055807
-0.0237524
0.056218
-0.0242973
0.056936
-0.0277021
0.0578892
-0.0267558
-0.0298261
0.0594733
0.0554399
-0.00104096
0.0552894
-0.00228631
0.0550235
-0.00489198
0.0547358
-0.00638443
0.0543474
-0.00929502
0.0539828
-0.0108569
0.0535401
-0.0139252
0.053196
-0.0155047
0.0528195
-0.0187426
0.0526712
-0.0202143
0.0525742
-0.0236553
0.0528825
-0.0246056
0.0534355
-0.0282551
0.0543792
-0.0276995
-0.0313558
0.0559089
0.0528484
-0.000968115
0.052696
-0.00213394
0.052427
-0.00462298
0.0521303
-0.00608765
0.0517282
-0.00889297
0.0513374
-0.0104661
0.0508592
-0.0134469
0.0504577
-0.0151032
0.0500067
-0.0182916
0.0497569
-0.0199645
0.0495198
-0.0234182
0.0496945
-0.0247802
0.0500224
-0.0285831
0.0510262
-0.0287033
-0.0328175
0.0524879
0.0503786
0.0502248
0.0499574
0.0496537
0.0492459
0.0488335
0.0483309
0.0478775
0.0473655
0.047014
0.0466511
0.0466691
0.0466977
0.0476035
0.04935
0.213977
0.00152183
0.212517
0.0014598
0.211129
0.00138799
0.209816
0.00131359
0.208579
0.00123672
0.207421
0.00115751
0.206345
0.00107608
0.205353
0.000992561
0.204446
0.000907064
0.203626
0.000819723
0.202895
0.000730673
0.202255
0.000640053
0.201707
0.000548005
0.201253
0.000454676
0.200892
0.000360217
0.200628
0.00026478
0.200459
0.000168528
0.200387
7.16384e-05
0.200413
-2.57517e-05
-0.000123667
0.200537
0.204116
0.00297606
0.202722
0.00285406
0.201397
0.00271293
0.200144
0.00256675
0.198965
0.00241578
0.197862
0.00226028
0.196838
0.00210049
0.195894
0.00193665
0.195032
0.001769
0.194254
0.0015978
0.193561
0.00142331
0.192955
0.0012458
0.192438
0.00106555
0.192009
0.000882845
0.191672
0.000697981
0.191425
0.000511254
0.191271
0.000322968
0.191209
0.000133442
0.19124
-5.70573e-05
-0.000248267
0.191365
0.194815
0.00436245
0.193486
0.00418292
0.192224
0.00397483
0.191032
0.00375936
0.189911
0.00353694
0.188863
0.00330797
0.187891
0.00307279
0.186995
0.00283175
0.186179
0.0025852
0.185444
0.0023335
0.18479
0.00207705
0.184219
0.00181624
0.183733
0.00155149
0.183333
0.00128319
0.183019
0.00101179
0.182793
0.000737709
0.182654
0.000461397
0.182605
0.000183336
0.182644
-9.6148e-05
-0.000376652
0.182772
0.18602
0.0056816
0.184756
0.00544718
0.183556
0.00517448
0.182423
0.00489216
0.181359
0.00460087
0.180366
0.00430114
0.179446
0.00399344
0.178599
0.00367817
0.177829
0.00335579
0.177135
0.0030268
0.176521
0.00269168
0.175986
0.00235095
0.175532
0.00200514
0.175161
0.00165479
0.174872
0.00130045
0.174667
0.00094267
0.174546
0.000582032
0.174511
0.000219165
0.17456
-0.000145583
-0.000511534
0.174695
0.177683
0.00693416
0.176482
0.0066476
0.175344
0.00631259
0.17427
0.00596579
0.173263
0.00560811
0.172324
0.00524025
0.171455
0.00486274
0.170657
0.0044761
0.169932
0.00408085
0.169281
0.00367758
0.168706
0.00326691
0.168207
0.00284946
0.167787
0.00242588
0.167445
0.00199681
0.167182
0.00156291
0.167
0.00112487
0.166899
0.000683392
0.166878
0.000239253
0.16694
-0.000207261
-0.000655135
0.167084
0.16976
0.00812068
0.168623
0.00778481
0.167546
0.00738975
0.166531
0.0069808
0.16558
0.00655914
0.164694
0.00612569
0.163876
0.00568104
0.163126
0.00522576
0.162447
0.00476046
0.161838
0.00428584
0.161303
0.00380261
0.160841
0.00331149
0.160453
0.00281325
0.160141
0.00230862
0.159906
0.00179838
0.159748
0.00128334
0.159667
0.000764291
0.159664
0.000242208
0.159739
-0.000282829
-0.000809304
0.159893
0.162215
0.00924156
0.16114
0.00885923
0.160124
0.00840641
0.159167
0.00793759
0.158272
0.00745435
0.15744
0.00695778
0.156672
0.00644857
0.15597
0.00592732
0.155336
0.00539472
0.15477
0.00485155
0.154274
0.00429863
0.153849
0.00373678
0.153496
0.00316685
0.153215
0.00258969
0.153007
0.00200617
0.152873
0.0014172
0.152813
0.000823709
0.152829
0.000226863
0.15292
-0.000373669
-0.00097563
0.153086
0.155014
0.010297
0.154002
0.00987111
0.153045
0.00936279
0.152146
0.00883643
0.151307