/*--------------------------------*- C++ -*----------------------------------*\
  =========                 |
  \\      /  F ield         | OpenFOAM: The Open Source CFD Toolbox
   \\    /   O peration     | Website:  https://openfoam.org
    \\  /    A nd           | Version:  7
     \\/     M anipulation  |
\*---------------------------------------------------------------------------*/
FoamFile
{
    version     2.0;
    format      ascii;
    class       volVectorField;
    location    "5";
    object      U;
}
// * * * * * * * * * * * * * * * * * * * * * * * * * * * * * * * * * * * * * //

dimensions      [0 1 -1 0 0 0 0];

internalField   nonuniform List<vector> 
8500
(
(-0.00514718 0.00415147 8.97543e-22)
(-0.0258013 0.00877235 -2.60932e-21)
(-0.0623436 0.0112859 -3.06548e-21)
(-0.104565 0.012554 3.07745e-21)
(-0.149812 0.0131153 -2.86751e-21)
(-0.196527 0.0133353 -1.56233e-21)
(-0.243976 0.0134179 2.74256e-21)
(-0.291861 0.0134477 3.49316e-21)
(-0.339404 0.0134184 -6.02007e-22)
(-0.387533 0.013359 1.82165e-21)
(-0.00554483 0.0122627 -9.93769e-22)
(-0.0261148 0.02599 3.10034e-21)
(-0.0618205 0.0335137 -7.35553e-21)
(-0.102933 0.0373375 6.72755e-21)
(-0.146875 0.0390412 2.92004e-22)
(-0.192075 0.0397057 5.10275e-21)
(-0.237733 0.0399405 -9.09962e-21)
(-0.283482 0.0400043 -1.3747e-20)
(-0.3284 0.0398867 -2.80249e-21)
(-0.373156 0.0396545 6.55475e-21)
(-0.00630394 0.0198131 9.29188e-22)
(-0.0267153 0.0422448 6.8523e-21)
(-0.060801 0.0547227 1.62036e-20)
(-0.0997513 0.0611562 -1.4837e-20)
(-0.141142 0.0640594 -3.43149e-21)
(-0.183379 0.0651832 -3.17288e-21)
(-0.225542 0.0655336 1.64234e-20)
(-0.267142 0.0655574 1.04808e-20)
(-0.307001 0.065268 2.69497e-21)
(-0.345228 0.0647078 -2.03315e-20)
(-0.00735613 0.0264759 3.29704e-21)
(-0.0275524 0.0569541 -4.00307e-21)
(-0.0593365 0.0742768 -3.03343e-20)
(-0.0951804 0.0833942 2.67878e-21)
(-0.132885 0.0875856 8.49422e-21)
(-0.170843 0.0891958 -6.7767e-21)
(-0.207975 0.08961 -3.57394e-22)
(-0.243634 0.08948 -2.91578e-21)
(-0.276363 0.0888943 6.77537e-21)
(-0.305297 0.0877695 2.04644e-20)
(-0.00860843 0.0319897 2.30835e-21)
(-0.0285562 0.0696216 -1.30631e-20)
(-0.0575002 0.0916037 3.14673e-20)
(-0.0894499 0.103476 -1.44488e-20)
(-0.122495 0.109065 -4.85666e-23)
(-0.15504 0.111203 2.05992e-20)
(-0.185834 0.111625 -9.65866e-21)
(-0.214059 0.111201 1.25437e-21)
(-0.238073 0.110171 -4.09876e-21)
(-0.255461 0.108193 1.48909e-21)
(-0.00995355 0.036177 2.77316e-20)
(-0.0296442 0.0798645 3.36732e-20)
(-0.0553829 0.106219 -8.61099e-21)
(-0.0828447 0.120885 1.66014e-20)
(-0.110457 0.127984 5.3093e-21)
(-0.136678 0.130704 -7.61564e-21)
(-0.160103 0.131084 -2.9458e-21)
(-0.179734 0.130216 -1.37027e-20)
(-0.194019 0.128584 2.95703e-21)
(-0.198176 0.125464 -1.91593e-20)
(-0.0112819 0.0389538 -2.67518e-20)
(-0.0307296 0.0874354 -1.75897e-20)
(-0.0530877 0.11775 1.44562e-20)
(-0.0756894 0.135178 -2.52073e-20)
(-0.0973264 0.143877 2.99121e-21)
(-0.116563 0.147238 3.05029e-20)
(-0.131893 0.147543 -5.50388e-21)
(-0.142106 0.146084 3.81731e-20)
(-0.146229 0.143694 -5.39945e-22)
(-0.136111 0.13931 -1.64493e-20)
(-0.0124938 0.040331 2.27193e-20)
(-0.031731 0.0922348 -4.09857e-20)
(-0.0507251 0.125952 -1.63546e-20)
(-0.0683294 0.146006 1.92113e-20)
(-0.0836978 0.156343 7.02461e-22)
(-0.0955569 0.160395 -5.72106e-20)
(-0.102384 0.160608 -3.5337e-21)
(-0.102678 0.158448 -2.97507e-20)
(-0.0966376 0.155037 -3.97655e-20)
(-0.0720522 0.149872 2.41837e-20)
(-0.0135096 0.0404065 -1.27097e-20)
(-0.0325822 0.0943154 6.0824e-21)
(-0.0484069 0.130731 1.50799e-20)
(-0.0611094 0.153132 -1.36391e-20)
(-0.0701724 0.165056 -4.82598e-20)
(-0.0745305 0.169816 1.69118e-20)
(-0.0727585 0.16994 2.5656e-21)
(-0.0630312 0.167095 4.4679e-20)
(-0.0468191 0.162084 6.10979e-20)
(-0.00830461 0.156774 -2.83395e-20)
(-0.0142788 0.039357 2.02009e-20)
(-0.0332403 0.0938748 1.83162e-20)
(-0.0462407 0.132143 -2.63786e-21)
(-0.0543491 0.156453 6.78023e-20)
(-0.0573154 0.169789 2.89688e-20)
(-0.0543041 0.175213 2.20877e-20)
(-0.0440711 0.175234 3.2185e-20)
(-0.0246751 0.17166 -1.46233e-20)
(0.00134926 0.164785 -2.04188e-20)
(0.0537141 0.158947 -3.47116e-20)
(-0.0147886 0.037414 -1.79658e-21)
(-0.0336965 0.0912316 -2.88908e-20)
(-0.0443237 0.130397 -2.0827e-20)
(-0.0483156 0.156016 -3.35004e-20)
(-0.045608 0.170442 -2.6879e-20)
(-0.0355985 0.176386 2.7226e-20)
(-0.0173017 0.17623 -2.67393e-20)
(0.0113584 0.171856 -1.91127e-20)
(0.0462178 0.163203 2.49549e-21)
(0.11255 0.15579 9.12351e-21)
(-0.0150613 0.0348384 -5.58051e-20)
(-0.0339743 0.0868003 2.65004e-20)
(-0.0427342 0.125849 1.9313e-20)
(-0.0431959 0.152028 1.28823e-20)
(-0.0353897 0.167071 -2.36697e-20)
(-0.0189259 0.173279 -2.04315e-20)
(0.00687144 0.172827 2.99625e-20)
(0.0442952 0.167699 -2.48586e-20)
(0.0870398 0.15708 -1.07942e-21)
(0.167623 0.14731 -2.75891e-20)
(-0.0151527 0.0319009 4.6728e-20)
(-0.0341275 0.0810544 1.88435e-20)
(-0.0415185 0.118971 1.11596e-21)
(-0.0390626 0.144862 -2.35238e-20)
(-0.0267919 0.159915 1.78969e-21)
(-0.00447973 0.166023 2.64126e-20)
(0.0282486 0.1651 -7.66166e-21)
(0.0739952 0.159331 -9.48377e-21)
(0.124106 0.146512 -2.26141e-20)
(0.220166 0.133945 4.18347e-20)
(-0.0151437 0.0288576 3.14812e-20)
(-0.0342279 0.0744839 -5.08679e-20)
(-0.0406736 0.110315 -3.90834e-20)
(-0.0358392 0.135035 1.68833e-20)
(-0.0196691 0.149411 3.45682e-20)
(0.00798463 0.154976 2.93489e-20)
(0.0472982 0.153372 -3.18004e-20)
(0.101267 0.147143 6.32678e-20)
(0.159166 0.131961 -1.90519e-20)
(0.27351 0.117032 -4.91892e-20)
(-0.015129 0.0259302 -4.73759e-20)
(-0.0343462 0.0675535 2.84001e-20)
(-0.0401253 0.100473 -1.34431e-20)
(-0.0332661 0.12318 1.40109e-21)
(-0.0135369 0.136188 1.43046e-20)
(0.019258 0.140752 -4.64045e-20)
(0.0653216 0.138285 4.19194e-20)
(0.128067 0.131862 -4.1194e-20)
(0.195792 0.11426 6.87117e-20)
(0.332463 0.0989354 2.57894e-20)
(-0.0152004 0.0232892 9.92463e-21)
(-0.0345262 0.0606661 5.48295e-20)
(-0.0397037 0.0900274 -1.36776e-20)
(-0.0308737 0.110002 1.38745e-20)
(-0.0075335 0.121034 1.59681e-20)
(0.0307354 0.12421 -4.70538e-21)
(0.0845106 0.120817 3.52017e-20)
(0.157472 0.11453 1.49048e-21)
(0.239218 0.0947696 -4.43873e-20)
(0.401461 0.0825468 6.06824e-20)
(-0.0154307 0.0210435 -2.6683e-20)
(-0.0347588 0.0541325 -5.1852e-20)
(-0.0391232 0.0795035 4.48721e-20)
(-0.0279746 0.0962193 2.23526e-20)
(-0.000427596 0.104833 -1.03956e-19)
(0.044375 0.106398 8.48156e-20)
(0.1078 0.102239 -7.75341e-20)
(0.193331 0.0964012 8.70444e-22)
(0.295342 0.0756378 -1.85004e-20)
(0.481979 0.070491 -5.65925e-20)
(-0.0158575 0.0192342 2.29017e-20)
(-0.0349599 0.0481525 -3.03217e-21)
(-0.0379755 0.0693306 -1.10271e-20)
(-0.0236858 0.082499 -1.35815e-21)
(0.00930626 0.0884903 -6.31634e-21)
(0.0625215 0.0884574 -2.71858e-20)
(0.138468 0.0839834 1.19116e-20)
(0.239653 0.0787735 -1.85733e-20)
(0.368852 0.0598299 5.4802e-21)
(0.570798 0.064425 1.51307e-21)
(-0.0164714 0.0178368 -4.67101e-20)
(-0.0349595 0.0428075 -3.26743e-21)
(-0.0357428 0.0598114 5.03551e-21)
(-0.01699 0.0693995 2.02992e-21)
(0.0233385 0.0728298 3.38921e-20)
(0.0875998 0.0714852 -9.86003e-20)
(0.179534 0.0674266 6.7048e-20)
(0.299859 0.0629156 -5.05237e-20)
(0.461088 0.0504711 4.44339e-20)
(0.661349 0.0639787 5.08616e-20)
(-0.0172086 0.0167689 -5.58812e-21)
(-0.0345063 0.0380698 2.59315e-20)
(-0.0318312 0.0511078 -3.23682e-20)
(-0.00682742 0.0573255 -1.01033e-20)
(0.0432855 0.0585199 1.94284e-20)
(0.121737 0.0564125 9.36141e-20)
(0.233106 0.0536787 -1.89851e-20)
(0.375879 0.0502344 9.25642e-21)
(0.568402 0.0492271 -5.07689e-20)
(0.74902 0.0642578 2.36505e-20)
(-0.0179541 0.0159098 -1.69079e-20)
(-0.0332811 0.033823 -1.31228e-20)
(-0.0256181 0.0432458 3.25096e-21)
(0.00780291 0.0465112 1.27374e-20)
(0.0705168 0.046029 -3.75784e-20)
(0.166438 0.0439366 -1.5206e-20)
(0.299967 0.043487 -4.80198e-20)
(0.467083 0.0424069 5.03775e-20)
(0.68169 0.0540109 5.44597e-20)
(0.83532 0.0567546 -2.39626e-20)
(-0.0185635 0.0151305 -8.02207e-21)
(-0.0309152 0.0298864 3.2912e-20)
(-0.0164953 0.0361412 -3.66726e-20)
(0.0277616 0.0370392 -4.25893e-21)
(0.106022 0.0356351 -1.72364e-20)
(0.222404 0.0345264 3.75893e-20)
(0.379555 0.0373147 4.87549e-20)
(0.56985 0.0406598 -4.71866e-20)
(0.789866 0.0586204 5.11541e-20)
(0.955135 0.0525859 7.14894e-21)
(-0.0188799 0.014299 -2.33194e-20)
(-0.0270257 0.0260512 -6.642e-20)
(-0.00390054 0.0296506 6.47936e-20)
(0.0537249 0.0288928 9.3179e-21)
(0.150357 0.0274821 1.35782e-20)
(0.289469 0.0284753 8.26709e-21)
(0.470006 0.0354394 3.73103e-20)
(0.678208 0.0444562 2.77379e-20)
(0.8955 0.0650963 -9.96754e-20)
(1.06057 0.0627219 -4.99984e-20)
(-0.0187319 0.0132968 -7.98998e-20)
(-0.0212388 0.0221338 1.60958e-20)
(0.0126628 0.0236287 -3.66496e-20)
(0.0861774 0.0220285 7.10937e-21)
(0.203659 0.0216662 1.13783e-20)
(0.366653 0.0259764 -8.20505e-20)
(0.568225 0.0379386 3.63978e-20)
(0.786524 0.0526307 -2.49306e-20)
(0.993755 0.0749375 2.63335e-20)
(1.14389 0.0752665 -9.38048e-21)
(-0.0179486 0.0120423 2.89138e-20)
(-0.0131955 0.018009 3.12551e-20)
(0.0336239 0.0179833 -1.79826e-21)
(0.125425 0.016451 -1.00133e-20)
(0.265659 0.0183171 3.53299e-22)
(0.452234 0.0271586 7.84452e-22)
(0.670257 0.044595 -5.53917e-20)
(0.88991 0.0641253 6.98044e-21)
(1.08008 0.0869188 7.05433e-20)
(1.21096 0.0885799 3.27638e-20)
(-0.0163709 0.0104994 -1.96017e-20)
(-0.00255604 0.0136327 -1.45197e-20)
(0.0593489 0.0127202 6.24547e-20)
(0.171601 0.0122722 1.59976e-21)
(0.335691 0.0176425 -2.6218e-20)
(0.543833 0.0320642 7.04575e-20)
(0.771898 0.054911 1.56209e-20)
(0.984481 0.0779498 1.06705e-21)
(1.15302 0.100092 -3.07752e-20)
(1.2614 0.101964 -4.10131e-20)
(-0.0138531 0.00867524 4.10824e-20)
(0.010994 0.00905402 -1.14272e-20)
(0.0901354 0.00796905 -6.82812e-21)
(0.22465 0.009737 -2.59645e-20)
(0.412651 0.0199112 4.26055e-20)
(0.638576 0.040594 -2.08219e-20)
(0.86929 0.0682086 -2.36153e-20)
(1.06783 0.0932554 -5.504e-21)
(1.21224 0.113764 -1.77039e-20)
(1.29839 0.114844 1.99009e-20)
(-0.0102607 0.00661474 -1.51139e-20)
(0.0277371 0.00441414 -9.00763e-20)
(0.126194 0.00398497 9.37139e-21)
(0.284282 0.00920906 3.24146e-20)
(0.494981 0.0253802 2.318e-20)
(0.733373 0.0524726 -7.75932e-20)
(0.959389 0.0837627 5.00539e-20)
(1.13891 0.10937 -2.2921e-20)
(1.25874 0.127466 3.52237e-20)
(1.32424 0.127199 9.92127e-21)
(-0.0054688 0.00439337 -1.66225e-20)
(0.0479135 -6.46117e-05 3.19488e-20)
(0.167615 0.00113031 4.17841e-20)
(0.349908 0.0111191 -2.99668e-20)
(0.580709 0.0342012 1.11905e-20)
(0.825277 0.067273 -6.8412e-20)
(1.04017 0.100903 -1.26936e-20)
(1.19773 0.125807 1.09634e-20)
(1.29398 0.140948 -2.6783e-20)
(1.34139 0.139009 -2.76836e-20)
(0.000637949 0.00211056 -2.15317e-20)
(0.0717059 -0.00409493 -7.32889e-21)
(0.214325 -0.000158202 -7.58348e-20)
(0.420599 0.015889 -1.19242e-20)
(0.667597 0.0463581 -1.31251e-21)
(0.911803 0.0844867 4.04823e-21)
(1.1106 0.119073 7.06257e-21)
(1.24506 0.142245 -3.44415e-20)
(1.31972 0.154098 6.10998e-22)
(1.35185 0.150396 1.90312e-20)
(0.00816278 -0.000115509 -5.64379e-21)
(0.0992206 -0.0073423 2.63066e-20)
(0.266052 0.000589335 3.70857e-20)
(0.495088 0.0238535 2.32331e-20)
(0.753365 0.061664 -6.87948e-21)
(0.991118 0.103599 -5.75321e-21)
(1.17045 0.137839 5.73527e-20)
(1.28207 0.158493 7.86589e-21)
(1.33765 0.16691 2.62511e-20)
(1.35727 0.161477 -1.15352e-20)
(0.0171911 -0.00215132 5.39378e-20)
(0.130467 -0.00944235 3.48876e-20)
(0.322293 0.00383156 -3.54096e-20)
(0.57184 0.0352043 -7.06563e-21)
(0.835923 0.0798056 3.73079e-21)
(1.06208 0.124144 -1.35904e-20)
(1.22009 0.156894 -2.95028e-20)
(1.31012 0.174465 -4.8729e-21)
(1.34931 0.179432 3.69615e-22)
(1.35894 0.17238 1.24649e-20)
(0.0277834 -0.00385082 6.71601e-21)
(0.165341 -0.0100177 -1.90614e-20)
(0.38231 0.00997278 4.51766e-20)
(0.64917 0.049971 2.94765e-20)
(0.913541 0.100404 9.45172e-22)
(1.12414 0.145724 2.10415e-20)
(1.26026 0.176029 3.08063e-21)
(1.33054 0.190142 -2.25429e-20)
(1.356 0.191743 1.93555e-20)
(1.35783 0.183213 -5.71936e-23)
(0.0399677 -0.00505796 -4.46022e-20)
(0.20361 -0.00869436 -1.31452e-20)
(0.445155 0.0193267 -1.18711e-20)
(0.725394 0.0680376 -2.07306e-20)
(0.984936 0.123067 4.91959e-21)
(1.17727 0.16802 1.25324e-22)
(1.2919 0.195115 1.63818e-20)
(1.34461 0.205549 -2.58778e-21)
(1.35879 0.203927 -1.98796e-20)
(1.35461 0.194056 -1.88356e-20)
(0.0537322 -0.00560979 3.63319e-21)
(0.244909 -0.00511978 2.13303e-20)
(0.509719 0.0320921 1.03636e-20)
(0.798958 0.0891784 -3.24316e-20)
(1.04926 0.147417 -1.64505e-21)
(1.22176 0.190784 -1.40798e-20)
(1.31598 0.214082 3.66742e-22)
(1.35342 0.220735 6.67825e-21)
(1.35852 0.216062 -7.5285e-21)
(1.34978 0.204965 2.12056e-20)
(0.0690199 -0.00534083 8.56176e-21)
(0.28874 0.00101911 -2.09175e-20)
(0.574796 0.0483439 -4.94487e-20)
(0.868536 0.113097 4.56358e-20)
(1.10607 0.17311 -3.42626e-21)
(1.2581 0.213823 1.01448e-20)
(1.33349 0.232897 -1.4407e-21)
(1.3579 0.235752 9.92152e-21)
(1.35581 0.228208 -7.16286e-22)
(1.34366 0.215965 -1.64493e-20)
(0.0857252 -0.00408842 -1.74711e-20)
(0.334492 0.00997761 2.72743e-20)
(0.639163 0.0680379 2.25169e-20)
(0.933068 0.139458 -3.26067e-20)
(1.15521 0.199837 -5.44268e-21)
(1.28694 0.236991 2.0705e-21)
(1.34532 0.251549 2.10475e-20)
(1.35881 0.250648 1.08721e-21)
(1.35114 0.240405 4.17951e-21)
(1.33646 0.227061 -9.02849e-21)
(0.103693 -0.00169927 1.32585e-20)
(0.381456 0.0219377 -1.19282e-20)
(0.701648 0.091025 -1.01963e-20)
(0.991773 0.167907 1.75107e-20)
(1.19677 0.227325 6.05987e-21)
(1.30894 0.260172 4.61421e-21)
(1.35225 0.270036 -2.14482e-20)
(1.35676 0.265459 -7.42377e-21)
(1.34481 0.252669 -6.69867e-21)
(1.32831 0.238234 2.96797e-21)
(0.122721 0.0019636 -6.63865e-21)
(0.428857 0.0369968 -1.5415e-22)
(0.761183 0.11707 1.93082e-20)
(1.04412 0.198088 -7.08131e-21)
(1.23099 0.255326 -3.15089e-21)
(1.32476 0.283274 -2.07899e-21)
(1.35496 0.288354 5.2029e-21)
(1.35219 0.280201 9.04587e-21)
(1.33707 0.264993 -2.85889e-22)
(1.31927 0.249448 3.36014e-21)
(0.142564 0.0070138 4.68256e-21)
(0.475887 0.0551623 -1.31435e-21)
(0.816846 0.14587 -3.46201e-21)
(1.08981 0.229647 -3.14405e-21)
(1.25822 0.283618 2.84562e-21)
(1.33502 0.306214 2.23144e-21)
(1.354 0.306493 -2.0622e-21)
(1.34547 0.294871 7.56236e-22)
(1.32806 0.27735 1.06892e-21)
(1.30939 0.260653 -1.43376e-21)
(0.162938 0.0135351 2.52638e-21)
(0.521736 0.0763511 7.18139e-22)
(0.867872 0.177073 -4.31564e-21)
(1.12869 0.262236 -3.45321e-21)
(1.27886 0.311996 3.60745e-21)
(1.3403 0.328911 7.07361e-22)
(1.34984 0.324425 -1.66392e-21)
(1.33684 0.309444 1.56757e-21)
(1.31787 0.289692 8.82333e-22)
(1.29869 0.271787 -1.02547e-21)
(0.183532 0.0215762 -9.85563e-22)
(0.565626 0.100395 2.01511e-21)
(0.913662 0.21029 1.33191e-20)
(1.16077 0.295514 -5.95087e-21)
(1.29332 0.340266 -2.91422e-21)
(1.34109 0.351285 -3.3006e-21)
(1.34284 0.342111 6.78272e-21)
(1.32649 0.323876 4.57515e-21)
(1.30656 0.30195 3.68236e-21)
(1.28719 0.282782 2.02643e-21)
(0.204017 0.031147 2.03128e-20)
(0.606838 0.127048 -1.11668e-20)
(0.953773 0.24511 -1.27021e-20)
(1.18616 0.329152 1.7302e-20)
(1.30203 0.368242 9.13554e-21)
(1.33784 0.373246 -6.14306e-22)
(1.33328 0.359492 -1.13524e-20)
(1.31455 0.338101 -8.21556e-21)
(1.29418 0.31404 -8.65882e-21)
(1.2749 0.293561 5.19637e-21)
(0.224054 0.0422167 -2.74972e-20)
(0.644728 0.155997 2.58535e-20)
(0.987905 0.281104 2.97922e-20)
(1.20504 0.362825 -2.93948e-20)
(1.30541 0.39574 -1.01812e-20)
(1.33091 0.394697 6.56461e-21)
(1.32141 0.376494 1.19592e-20)
(1.30111 0.352037 1.8985e-21)
(1.28072 0.325864 -3.54726e-22)
(1.26179 0.304045 -7.13487e-21)
(0.243305 0.0547137 -3.96412e-21)
(0.678744 0.186875 -3.64287e-20)
(1.01588 0.317838 -3.90278e-20)
(1.21765 0.396221 4.38432e-20)
(1.30385 0.422582 -4.98671e-21)
(1.32065 0.415533 9.20277e-21)
(1.3074 0.39303 1.82781e-21)
(1.28623 0.365589 -5.14867e-21)
(1.26619 0.337316 2.76475e-21)
(1.24777 0.314158 -3.93267e-22)
(0.261444 0.0685273 8.0571e-21)
(0.708431 0.219269 2.26057e-20)
(1.03765 0.354876 1.28039e-20)
(1.22428 0.429035 -1.0082e-20)
(1.29771 0.448584 -1.57291e-20)
(1.30733 0.435637 -1.46835e-20)
(1.2914 0.409002 -2.98364e-21)
(1.26997 0.378666 7.99956e-21)
(1.25055 0.348322 -1.68687e-21)
(1.23263 0.323819 3.94261e-21)
(0.278164 0.0835109 -3.05387e-20)
(0.733441 0.252737 -2.84539e-20)
(1.05323 0.391783 -4.52997e-21)
(1.22521 0.460972 -5.1073e-21)
(1.28734 0.473567 -1.16336e-20)
(1.2912 0.454883 7.13541e-21)
(1.27354 0.424298 -1.28559e-21)
(1.25237 0.391179 -7.03889e-21)
(1.23382 0.358882 6.40412e-21)
(1.21629 0.332885 -9.40962e-21)
(0.293187 0.0994853 7.22368e-21)
(0.753527 0.286816 2.41502e-20)
(1.06273 0.428135 2.1028e-20)
(1.22078 0.491746 2.28771e-20)
(1.27307 0.497348 4.21411e-22)
(1.27247 0.473137 2.01451e-20)
(1.25392 0.438793 1.37347e-21)
(1.23349 0.40301 -2.40559e-20)
(1.21607 0.369002 1.73892e-20)
(1.19928 0.341223 6.50428e-21)
(0.306268 0.116243 1.98103e-20)
(0.768542 0.321038 4.42896e-20)
(1.06631 0.463517 -5.85254e-21)
(1.21132 0.52108 -2.88489e-20)
(1.25521 0.519747 1.30214e-20)
(1.25134 0.490258 -1.36013e-20)
(1.23265 0.452355 -1.8327e-20)
(1.21341 0.414019 -1.67691e-21)
(1.19728 0.378391 -1.455e-20)
(1.18177 0.349009 5.72745e-21)
(0.317204 0.133555 9.34935e-21)
(0.778426 0.354938 6.98265e-21)
(1.06421 0.497533 5.54473e-20)
(1.19715 0.54871 1.04271e-20)
(1.23404 0.540587 -9.13333e-21)
(1.228 0.506103 -4.68683e-21)
(1.20987 0.464851 2.81957e-20)
(1.19217 0.424124 2.33927e-20)
(1.17744 0.386926 1.17798e-20)
(1.16357 0.355998 -1.63954e-21)
(0.325834 0.151174 1.98658e-21)
(0.783198 0.388059 -4.53624e-20)
(1.05669 0.529806 -6.52698e-20)
(1.17865 0.574382 2.08863e-21)
(1.20985 0.559692 1.29518e-20)
(1.20264 0.520518 -1.79745e-20)
(1.18568 0.476147 -4.15197e-20)
(1.16979 0.433204 -1.25016e-20)
(1.1567 0.394508 -7.72659e-22)
(1.14465 0.362102 6.42053e-21)
(0.332042 0.168846 -1.62596e-20)
(0.782954 0.419962 4.10912e-20)
(1.04408 0.559983 3.93127e-20)
(1.15614 0.597859 -3.64722e-20)
(1.18289 0.576878 5.54867e-21)
(1.17544 0.533356 4.38955e-20)
(1.16015 0.486114 -1.00652e-20)
(1.14636 0.441142 8.44787e-21)
(1.13509 0.401038 -4.31718e-21)
(1.12505 0.367219 -5.86907e-21)
(0.335756 0.18631 -3.67189e-20)
(0.77787 0.450223 -6.4728e-20)
(1.02677 0.587752 -1.27131e-20)
(1.12995 0.618913 2.09234e-20)
(1.15343 0.591972 2.08022e-20)
(1.14656 0.544462 -4.39398e-20)
(1.13341 0.494622 2.43258e-20)
(1.12196 0.447824 -1.3292e-20)
(1.1127 0.406419 1.10882e-20)
(1.10486 0.371283 2.08952e-22)
(0.336955 0.203306 2.79974e-20)
(0.768196 0.478434 1.89742e-21)
(1.00509 0.612829 -6.26472e-21)
(1.10035 0.637322 -2.61715e-20)
(1.12174 0.604814 1.73097e-20)
(1.11619 0.553691 3.5144e-21)
(1.10558 0.501549 -1.43703e-20)
(1.0967 0.453143 2.18034e-21)
(1.0896 0.410553 -3.2487e-21)
(1.08414 0.374213 2.17514e-21)
(0.335683 0.219584 -7.73781e-21)
(0.754253 0.50425 -1.09406e-20)
(0.979225 0.634871 2.76724e-20)
(1.06774 0.652932 1.28933e-20)
(1.08814 0.615224 -1.77227e-20)
(1.08451 0.560921 2.59512e-20)
(1.07679 0.50678 1.70868e-21)
(1.07068 0.457001 1.79281e-21)
(1.06587 0.413337 -1.31102e-21)
(1.06299 0.375915 -6.74416e-23)
(0.33203 0.234893 5.03381e-20)
(0.73635 0.527488 3.88247e-20)
(0.949385 0.653524 -2.50204e-21)
(1.0326 0.665518 -6.22044e-21)
(1.05286 0.623093 -7.31425e-21)
(1.05172 0.566033 -3.65955e-21)
(1.04721 0.510212 1.61842e-21)
(1.04401 0.459309 1.96951e-21)
(1.04161 0.414675 1.68136e-21)
(1.04148 0.376288 -1.48886e-21)
(0.326073 0.248894 4.44443e-21)
(0.714626 0.547845 6.92367e-21)
(0.9163 0.668825 -3.6715e-20)
(0.995325 0.674841 1.65714e-20)
(1.01619 0.628306 5.30619e-21)
(1.018 0.568922 -1.21054e-20)
(1.01695 0.511749 3.91202e-21)
(1.0168 0.459991 1.07291e-21)
(1.01695 0.414495 -2.58167e-21)
(1.01985 0.375279 2.23265e-21)
(0.317814 0.261307 -1.90925e-20)
(0.689321 0.564807 -1.41446e-20)
(0.880541 0.680578 1.22497e-20)
(0.95622 0.680862 3.68181e-21)
(0.978382 0.630759 -6.31525e-21)
(0.983544 0.56949 6.32587e-21)
(0.986171 0.511301 1.56352e-21)
(0.989149 0.458954 -4.27151e-21)
(0.992127 0.412728 1.46038e-20)
(0.998734 0.372922 6.39041e-21)
(0.307482 0.271916 -1.4965e-20)
(0.660939 0.578097 3.86249e-20)
(0.842427 0.688565 -2.50731e-20)
(0.915612 0.683505 -3.26078e-21)
(0.939689 0.630366 -5.05599e-21)
(0.948547 0.567658 1.39992e-21)
(0.95497 0.508781 -5.07706e-21)
(0.961176 0.456059 2.82097e-21)
(0.967566 0.409175 4.13435e-22)
(0.978866 0.369251 -2.53176e-21)
(0.295336 0.280714 -8.45635e-22)
(0.629934 0.587614 -1.13976e-20)
(0.802369 0.69259 6.90967e-21)
(0.873849 0.682688 -4.2478e-21)
(0.900381 0.627066 2.44538e-21)
(0.913189 0.563372 3.73425e-21)
(0.923476 0.504143 1.08873e-20)
(0.933073 0.451207 -8.8489e-21)
(0.943623 0.403457 -1.70947e-20)
(0.959516 0.363591 7.89311e-21)
(0.281506 0.287499 6.87932e-22)
(0.596765 0.593232 -1.38641e-21)
(0.760791 0.692552 7.45827e-22)
(0.831282 0.678351 2.68746e-21)
(0.860724 0.620818 -7.82654e-21)
(0.877668 0.556602 -1.52268e-20)
(0.89188 0.497383 -4.38046e-21)
(0.905118 0.44452 -1.79137e-21)
(0.920282 0.395781 2.43534e-20)
(0.937798 0.352197 -4.79592e-21)
(0.26621 0.292124 -3.24103e-21)
(0.561875 0.594846 -4.64942e-21)
(0.718124 0.688398 1.40426e-21)
(0.788262 0.670456 1.08529e-21)
(0.820984 0.611593 -7.27653e-21)
(0.842201 0.547319 3.03498e-20)
(0.86044 0.488469 -2.2027e-20)
(0.877527 0.436076 2.65137e-20)
(0.89644 0.388049 -1.85492e-20)
(0.913707 0.345922 -2.48784e-20)
(0.249697 0.294481 6.03428e-22)
(0.525698 0.592384 -1.99243e-21)
(0.674793 0.68011 9.05924e-22)
(0.745135 0.658995 1.12282e-20)
(0.781428 0.599383 -5.23018e-21)
(0.807016 0.535505 7.89418e-21)
(0.829363 0.477347 1.2785e-20)
(0.850326 0.425594 -6.7588e-21)
(0.872488 0.378079 -1.85379e-20)
(0.890786 0.336198 2.53635e-20)
(0.232223 0.294491 8.53952e-21)
(0.488666 0.585811 1.10532e-20)
(0.631219 0.667702 -1.13118e-20)
(0.70224 0.643986 -9.91093e-21)
(0.742323 0.584203 3.76871e-20)
(0.772331 0.521172 -3.86399e-20)
(0.7988 0.464066 4.69383e-20)
(0.823526 0.413308 -1.16636e-20)
(0.848635 0.366868 1.25388e-20)
(0.868614 0.326156 2.37328e-20)
(0.21405 0.292103 -2.81123e-21)
(0.45121 0.575129 -1.13594e-20)
(0.587811 0.651217 -7.83449e-21)
(0.659913 0.625474 -4.02449e-21)
(0.703932 0.566085 5.28965e-21)
(0.738367 0.504342 -1.05379e-20)
(0.768921 0.448628 -1.3989e-20)
(0.79729 0.399148 -3.10693e-20)
(0.825228 0.354026 3.09071e-20)
(0.847289 0.314681 -9.78775e-21)
(0.19544 0.287296 2.33947e-20)
(0.41375 0.560381 -3.13392e-21)
(0.544968 0.630731 -1.10577e-20)
(0.618478 0.603527 1.38402e-20)
(0.666515 0.545083 -2.46949e-20)
(0.705334 0.485059 6.71313e-20)
(0.739895 0.431084 -3.5876e-20)
(0.771783 0.383197 3.25511e-20)
(0.802484 0.339703 -5.9623e-20)
(0.826838 0.301917 -1.58318e-20)
(0.176657 0.280078 -6.81167e-21)
(0.3767 0.541643 2.48961e-20)
(0.503075 0.606346 5.67153e-21)
(0.578247 0.578238 -1.30354e-20)
(0.630323 0.521274 -2.25911e-20)
(0.673439 0.463385 -5.7419e-22)
(0.711892 0.411483 1.19637e-20)
(0.74717 0.365485 -2.9498e-20)
(0.780562 0.323875 1.4366e-20)
(0.807307 0.287794 1.88569e-21)
(0.157959 0.27048 -4.15677e-20)
(0.340458 0.519028 -1.01211e-20)
(0.4625 0.578194 -2.88895e-21)
(0.539521 0.549726 3.40429e-20)
(0.595597 0.494751 -3.18022e-20)
(0.642882 0.439397 -8.13845e-21)
(0.685084 0.389895 -5.04071e-21)
(0.72361 0.346074 9.20256e-21)
(0.759603 0.306583 -1.17602e-20)
(0.788767 0.272349 -1.82497e-20)
(0.139597 0.258566 3.73183e-20)
(0.305406 0.492682 -2.13156e-20)
(0.423597 0.546436 9.61702e-22)
(0.502588 0.518129 -5.1835e-20)
(0.562569 0.46563 5.63353e-20)
(0.613854 0.413192 -1.78151e-20)
(0.659635 0.366401 1.06627e-20)
(0.701249 0.325028 9.2737e-21)
(0.739729 0.28787 2.68544e-20)
(0.77129 0.255626 -1.1106e-20)
(0.121817 0.244418 -1.51357e-20)
(0.271908 0.462782 4.43434e-20)
(0.386697 0.511257 2.50602e-20)
(0.467718 0.483607 4.12414e-20)
(0.531461 0.434044 -9.4935e-21)
(0.586542 0.384881 3.85579e-21)
(0.635703 0.341096 3.09491e-20)
(0.680226 0.302426 6.93718e-21)
(0.721058 0.267798 6.71332e-22)
(0.754955 0.237692 -1.32991e-20)
(0.104848 0.228148 -3.54467e-20)
(0.240304 0.429533 -2.55794e-21)
(0.352112 0.472867 -1.48039e-20)
(0.435165 0.446342 -6.66373e-20)
(0.502478 0.400142 -6.44465e-20)
(0.561119 0.354592 1.07348e-20)
(0.613439 0.31409 -2.64493e-20)
(0.66067 0.278358 1.69266e-20)
(0.703698 0.246444 9.16918e-21)
(0.739835 0.218625 1.90332e-20)
(0.0889094 0.209886 5.2436e-20)
(0.210911 0.393169 -4.29093e-20)
(0.320129 0.4315 -2.18366e-20)
(0.405165 0.406535 3.85622e-20)
(0.475814 0.364093 4.39667e-20)
(0.537747 0.322466 -1.46296e-20)
(0.59298 0.285504 -1.91893e-21)
(0.642701 0.252928 -5.26295e-20)
(0.687753 0.223896 -2.97165e-20)
(0.726004 0.198513 1.1316e-20)
(0.0742029 0.189784 -2.98867e-20)
(0.184022 0.353949 1.25752e-20)
(0.291012 0.38741 4.63709e-20)
(0.377934 0.364403 -2.0892e-20)
(0.451647 0.326079 1.68829e-21)
(0.516577 0.288658 5.88835e-20)
(0.574454 0.255471 2.67987e-21)
(0.626431 0.226249 5.05162e-20)
(0.673319 0.200252 2.10209e-20)
(0.713529 0.177451 -3.33771e-20)
(0.060913 0.168014 4.16451e-20)
(0.1599 0.312154 4.6499e-21)
(0.265 0.340871 3.04402e-21)
(0.353667 0.32018 4.24394e-20)
(0.430137 0.286298 -5.63079e-21)
(0.497744 0.253337 -3.69877e-20)
(0.557979 0.224134 1.80962e-20)
(0.611961 0.198442 -2.89305e-20)
(0.660484 0.17562 -1.20635e-20)
(0.702472 0.155539 1.21534e-20)
(0.0492044 0.144762 -2.59596e-20)
(0.138778 0.268085 -4.99465e-20)
(0.242303 0.292173 1.15689e-20)
(0.332538 0.274116 -2.26296e-20)
(0.411427 0.244957 -1.36322e-20)
(0.481369 0.21668 3.30709e-20)
(0.543658 0.191649 -7.99789e-21)
(0.599382 0.169642 7.3492e-21)
(0.649327 0.150116 -8.9414e-21)
(0.692889 0.132884 1.77568e-20)
(0.0392214 0.120231 9.44614e-21)
(0.12086 0.222062 3.36927e-20)
(0.223105 0.241623 -4.68412e-20)
(0.314696 0.226471 2.21133e-20)
(0.395641 0.202278 -1.00813e-20)
(0.467558 0.178877 -2.83471e-20)
(0.531582 0.158176 2.31356e-20)
(0.588774 0.139987 4.82756e-21)
(0.639918 0.123863 -7.49806e-22)
(0.684827 0.109595 -2.06299e-20)
(0.0310858 0.0946364 3.10492e-21)
(0.106318 0.174419 1.0894e-20)
(0.207559 0.18954 4.2438e-20)
(0.300269 0.177518 -8.14635e-21)
(0.382885 0.158492 -6.41774e-21)
(0.456401 0.140125 2.3669e-21)
(0.521828 0.123885 1.06662e-21)
(0.580204 0.109623 8.62972e-21)
(0.632317 0.0969896 -1.13273e-20)
(0.678327 0.0857845 -7.19243e-21)
(0.0248966 0.0682033 -7.74554e-21)
(0.0952889 0.125502 -1.32571e-20)
(0.195791 0.136253 -3.30452e-20)
(0.289358 0.127539 1.6628e-20)
(0.373242 0.113835 1.3548e-20)
(0.44797 0.100627 5.76784e-22)
(0.514457 0.0889522 -2.26049e-20)
(0.573728 0.0787035 -1.00302e-20)
(0.626573 0.0696292 7.93002e-21)
(0.673424 0.0615666 8.47766e-21)
(0.0207285 0.0411656 1.35016e-21)
(0.0878781 0.07567 -2.78393e-21)
(0.187892 0.0820997 6.2729e-21)
(0.282041 0.07682 -4.24583e-21)
(0.366779 0.0685527 -3.74876e-21)
(0.442318 0.0605917 -2.53994e-21)
(0.509516 0.0535571 4.65561e-21)
(0.569387 0.0473832 1.77184e-20)
(0.622723 0.0419184 2.56213e-21)
(0.670141 0.0370569 -4.53082e-21)
(0.0186319 0.0137626 1.66884e-21)
(0.0841551 0.0252849 -4.58891e-21)
(0.183928 0.0274247 -5.19993e-21)
(0.27837 0.0256563 -3.60625e-21)
(0.363536 0.0228929 3.43102e-21)
(0.439483 0.0202332 1.54687e-21)
(0.507038 0.0178834 -1.53982e-21)
(0.567209 0.0158213 -7.00602e-21)
(0.620791 0.0139963 2.30355e-21)
(0.668495 0.0123718 -2.14986e-21)
(0.0186319 -0.0137626 -1.66884e-21)
(0.0841551 -0.0252849 4.58891e-21)
(0.183928 -0.0274247 5.19993e-21)
(0.27837 -0.0256563 -4.97456e-21)
(0.363536 -0.0228929 4.37668e-21)
(0.439483 -0.0202333 2.18939e-21)
(0.507038 -0.0178834 -3.49149e-21)
(0.567209 -0.0158213 -4.0538e-21)
(0.620791 -0.0139963 5.96681e-22)
(0.668495 -0.0123718 -1.68112e-21)
(0.0207285 -0.0411656 1.82961e-21)
(0.0878781 -0.07567 -5.46661e-21)
(0.187892 -0.0820997 1.22436e-20)
(0.282041 -0.07682 -1.07439e-20)
(0.366779 -0.0685527 -5.0745e-22)
(0.442318 -0.0605917 -7.13197e-21)
(0.509516 -0.0535571 1.15775e-20)
(0.569387 -0.0473832 1.5721e-20)
(0.622723 -0.0419184 2.80509e-21)
(0.670141 -0.0370569 -6.03055e-21)
(0.0248966 -0.0682033 -1.5702e-21)
(0.0952889 -0.125502 -1.15599e-20)
(0.195791 -0.136253 -2.68713e-20)
(0.289358 -0.127539 2.32362e-20)
(0.373242 -0.113835 4.78553e-21)
(0.44797 -0.100627 4.23065e-21)
(0.514457 -0.0889522 -2.083e-20)
(0.573728 -0.0787035 -1.22663e-20)
(0.626573 -0.0696293 -2.72199e-21)
(0.673424 -0.0615666 1.86276e-20)
(0.0310858 -0.0946364 -5.53585e-21)
(0.106318 -0.174419 6.95781e-21)
(0.207559 -0.18954 4.87031e-20)
(0.300269 -0.177518 -4.37183e-21)
(0.382885 -0.158492 -1.2489e-20)
(0.456401 -0.140125 8.95286e-21)
(0.521828 -0.123885 6.13396e-22)
(0.580204 -0.109623 3.14769e-21)
(0.632317 -0.0969896 -6.88232e-21)
(0.678327 -0.0857845 -1.81517e-20)
(0.0392214 -0.120231 -3.73928e-21)
(0.12086 -0.222062 2.03142e-20)
(0.223105 -0.241623 -4.90111e-20)
(0.314696 -0.226471 2.1224e-20)
(0.395641 -0.202278 2.01359e-22)
(0.467558 -0.178877 -2.6865e-20)
(0.531582 -0.158176 1.18568e-20)
(0.588774 -0.139987 -1.09526e-21)
(0.639918 -0.123863 4.49483e-21)
(0.684827 -0.109595 -1.34721e-21)
(0.0492044 -0.144762 -4.27872e-20)
(0.138778 -0.268085 -5.11127e-20)
(0.242303 -0.292173 1.33929e-20)
(0.332538 -0.274116 -2.43068e-20)
(0.411427 -0.244957 -6.86691e-21)
(0.481369 -0.21668 1.02403e-20)
(0.543658 -0.191649 3.8004e-21)
(0.599382 -0.169642 1.40605e-20)
(0.649327 -0.150116 -3.02847e-21)
(0.692889 -0.132884 1.62406e-20)
(0.060913 -0.168014 4.09193e-20)
(0.1599 -0.312154 2.62724e-20)
(0.265 -0.340871 -1.98742e-20)
(0.353667 -0.32018 3.34248e-20)
(0.430137 -0.286298 -2.84377e-21)
(0.497744 -0.253337 -3.60731e-20)
(0.557979 -0.224134 6.32636e-21)
(0.611961 -0.198442 -3.82205e-20)
(0.660484 -0.17562 1.49422e-21)
(0.702472 -0.155539 1.38234e-20)
(0.0742029 -0.189784 -3.03651e-20)
(0.184022 -0.353949 5.43475e-20)
(0.291012 -0.38741 2.1289e-20)
(0.377934 -0.364403 -2.63595e-20)
(0.451647 -0.326079 2.41503e-22)
(0.516577 -0.288658 6.64668e-20)
(0.574454 -0.255471 3.00849e-21)
(0.626431 -0.226249 2.9398e-20)
(0.673319 -0.200252 3.57291e-20)
(0.713529 -0.177451 -1.9984e-20)
(0.0889094 -0.209886 1.70219e-20)
(0.210911 -0.393169 -8.14596e-21)
(0.320129 -0.4315 -1.9302e-20)
(0.405165 -0.406535 1.44829e-20)
(0.475814 -0.364093 5.57213e-20)
(0.537747 -0.322466 -1.95854e-20)
(0.59298 -0.285504 -3.20471e-21)
(0.642701 -0.252928 -4.243e-20)
(0.687753 -0.223896 -5.23434e-20)
(0.726004 -0.198513 2.2862e-20)
(0.104848 -0.228148 -2.25457e-20)
(0.240304 -0.429533 -1.97856e-20)