/*--------------------------------*- C++ -*----------------------------------*\
  =========                 |
  \\      /  F ield         | OpenFOAM: The Open Source CFD Toolbox
   \\    /   O peration     | Website:  https://openfoam.org
    \\  /    A nd           | Version:  7
     \\/     M anipulation  |
\*---------------------------------------------------------------------------*/
FoamFile
{
    version     2.0;
    format      ascii;
    class       volScalarField;
    location    "305";
    object      p;
}
// * * * * * * * * * * * * * * * * * * * * * * * * * * * * * * * * * * * * * //

dimensions      [0 2 -2 0 0 0 0];

internalField   nonuniform List<scalar> 
2125
(
-0.291171
-0.320788
-0.296001
-0.347674
-0.323631
-0.300468
-0.382993
-0.366959
-0.347902
-0.325984
-0.304604
-0.389047
-0.377786
-0.364
-0.34754
-0.327836
-0.308439
-0.391534
-0.382608
-0.372569
-0.360633
-0.346603
-0.329159
-0.311994
-0.392432
-0.38489
-0.376585
-0.367449
-0.35696
-0.345121
-0.329917
-0.315309
-0.38591
-0.378852
-0.370994
-0.362498
-0.353089
-0.343142
-0.330084
-0.318393
-0.385298
-0.380056
-0.373398
-0.365844
-0.357769
-0.349126
-0.340752
-0.329625
-0.321375
-0.382444
-0.379595
-0.374857
-0.368521
-0.361155
-0.353321
-0.345174
-0.338055
-0.328606
-0.32411
-0.376704
-0.374669
-0.370322
-0.364235
-0.35697
-0.349229
-0.341349
-0.3352
-0.327009
-0.326921
-0.37191
-0.370502
-0.366469
-0.360576
-0.353355
-0.345601
-0.33782
-0.332293
-0.324947
-0.328503
-0.368069
-0.367102
-0.363348
-0.357597
-0.350392
-0.342571
-0.334819
-0.329361
-0.323729
-0.318221
-0.365182
-0.364495
-0.360965
-0.355343
-0.348164
-0.34028
-0.332556
-0.326647
-0.323358
-0.313266
-0.363225
-0.362667
-0.359319
-0.353838
-0.346732
-0.338845
-0.331193
-0.324731
-0.323646
-0.311925
-0.362139
-0.361575
-0.358381
-0.353076
-0.346116
-0.338328
-0.330821
-0.324021
-0.324235
-0.311929
-0.361832
-0.361158
-0.358098
-0.35301
-0.346285
-0.338724
-0.331452
-0.324651
-0.325158
-0.313388
-0.362191
-0.361335
-0.3584
-0.35357
-0.34717
-0.339966
-0.333043
-0.326568
-0.326757
-0.316694
-0.363089
-0.362006
-0.359213
-0.354669
-0.348676
-0.341951
-0.335504
-0.329601
-0.32936
-0.321654
-0.364398
-0.363095
-0.360442
-0.35622
-0.350702
-0.344556
-0.338705
-0.333536
-0.333068
-0.327774
-0.366
-0.364514
-0.362014
-0.35814
-0.353146
-0.347655
-0.342494
-0.33815
-0.337747
-0.334561
-0.36779
-0.36619
-0.363861
-0.360356
-0.355918
-0.351125
-0.346712
-0.34323
-0.343128
-0.341679
-0.369682
-0.368059
-0.365928
-0.362808
-0.358939
-0.354857
-0.351211
-0.348583
-0.348916
-0.348889
-0.371613
-0.370073
-0.368169
-0.365443
-0.362142
-0.358758
-0.355863
-0.354044
-0.354861
-0.356014
-0.373538
-0.372196
-0.370548
-0.368223
-0.365474
-0.362756
-0.360568
-0.359486
-0.360775
-0.362916
-0.375439
-0.374407
-0.373045
-0.371121
-0.368901
-0.366801
-0.36526
-0.364825
-0.366536
-0.36949
-0.377317
-0.376702
-0.375651
-0.374126
-0.372407
-0.370874
-0.369911
-0.370022
-0.372088
-0.375653
-0.379198
-0.379093
-0.378372
-0.377243
-0.375998
-0.374982
-0.374528
-0.37509
-0.377438
-0.381337
-0.381132
-0.381606
-0.381233
-0.380495
-0.3797
-0.379156
-0.379149
-0.380088
-0.382595
-0.386591
-0.383183
-0.384286
-0.384271
-0.383924
-0.383561
-0.383456
-0.383848
-0.385085
-0.387624
-0.391777
-0.385435
-0.387189
-0.387539
-0.387581
-0.387642
-0.387956
-0.388713
-0.390183
-0.392682
-0.396719
-0.387981
-0.390382
-0.391098
-0.391531
-0.392014
-0.392738
-0.39384
-0.395497
-0.397896
-0.401546
-0.0107746
-0.0116
-0.012397
-0.0131653
-0.0139044
-0.014614
-0.0152936
-0.0159433
-0.0165622
-0.0171519
-0.0177085
-0.011582
-0.0124317
-0.0132521
-0.014043
-0.0148038
-0.0155342
-0.0162339
-0.016903
-0.0175405
-0.018149
-0.0187254
-0.0130718
-0.0139628
-0.0148244
-0.0156559
-0.0164573
-0.0172281
-0.0179681
-0.0186775
-0.0193555
-0.0200062
-0.0206279
-0.0151852
-0.0161375
-0.0170601
-0.0179528
-0.0188152
-0.0196472
-0.0204484
-0.0212194
-0.0219593
-0.0226743
-0.0233649
-0.017894
-0.0189256
-0.0199277
-0.0209001
-0.0218424
-0.0227547
-0.0236365
-0.024489
-0.0253111
-0.0261118
-0.0268945
-0.0211673
-0.0222967
-0.0233971
-0.0244682
-0.0255098
-0.0265222
-0.0275049
-0.0284596
-0.0293849
-0.0302939
-0.0311928
-0.0249935
-0.0262396
-0.0274573
-0.0286466
-0.0298075
-0.0309402
-0.0320445
-0.0331225
-0.0341729
-0.0352132
-0.0362539
-0.0293647
-0.0307467
-0.0321015
-0.0334291
-0.0347296
-0.0360037
-0.037251
-0.0384746
-0.039673
-0.0408692
-0.0420788
-0.0342801
-0.035818
-0.0373302
-0.0388169
-0.0402784
-0.0417158
-0.0431287
-0.0445212
-0.0458918
-0.04727
-0.0486777
-0.0397429
-0.0414574
-0.043148
-0.0448155
-0.0464602
-0.0480837
-0.0496857
-0.0512716
-0.0528398
-0.0544276
-0.0560646
-0.0457599
-0.0476722
-0.049563
-0.0514334
-0.0532843
-0.0551175
-0.0569331
-0.058738
-0.0605304
-0.0623572
-0.0642565
-0.0501889
-0.0523403
-0.054472
-0.0565852
-0.0586814
-0.0607618
-0.0628292
-0.0648835
-0.0669338
-0.0689781
-0.0710742
-0.0732707
-0.0571058
-0.0594954
-0.0618683
-0.0642261
-0.0665711
-0.0689048
-0.0712309
-0.0735494
-0.075872
-0.0781964
-0.0805934
-0.0831233
-0.0645876
-0.0672366
-0.0698724
-0.0724971
-0.0751138
-0.0777244
-0.0803337
-0.0829419
-0.0855637
-0.0881965
-0.0909261
-0.0938262
-0.0726483
-0.0755773
-0.0784967
-0.0814097
-0.0843199
-0.0872301
-0.0901466
-0.0930694
-0.0960168
-0.0989857
-0.102079
-0.105386
-0.0812996
-0.0845284
-0.0877517
-0.0909733
-0.0941979
-0.0974288
-0.100674
-0.103934
-0.107232
-0.110564
-0.114051
-0.1178
-0.090557
-0.0941029
-0.0976475
-0.101196
-0.104754
-0.108325
-0.111919
-0.115536
-0.119204
-0.122921
-0.126829
-0.131052
-0.100435
-0.104312
-0.108192
-0.11208
-0.115985
-0.119911
-0.123871
-0.127865
-0.131923
-0.136042
-0.14039
-0.145112
-0.110944
-0.115165
-0.119392
-0.123631
-0.12789
-0.132178
-0.136509
-0.140886
-0.145347
-0.149888
-0.154696
-0.159936
-0.122095
-0.126663
-0.131241
-0.135839
-0.140463
-0.145121
-0.149826
-0.154582
-0.159436
-0.16439
-0.169663
-0.175435
-0.133899
-0.138812
-0.143733
-0.148676
-0.153654
-0.158683
-0.163771
-0.168925
-0.174174
-0.179531
-0.185236
-0.191525
-0.146366
-0.15162
-0.156877
-0.162152
-0.167452
-0.172807
-0.178227
-0.183757
-0.189403
-0.195207
-0.201345
-0.208146
-0.159482
-0.165059
-0.170641
-0.176251
-0.181876
-0.187555
-0.19325
-0.199069
-0.204975
-0.211171
-0.217708
-0.225096
-0.17325
-0.179099
-0.184943
-0.190832
-0.196749
-0.202777
-0.208805
-0.214993
-0.221103
-0.227588
-0.234253
-0.242216
-0.187706
-0.193783
-0.199822
-0.205878
-0.211928
-0.21813
-0.224355
-0.230945
-0.237397
-0.244454
-0.251184
-0.259741
-0.202807
-0.209085
-0.215308
-0.221521
-0.22766
-0.233881
-0.239985
-0.246537
-0.252899
-0.260515
-0.267446
-0.277154
-0.218417
-0.224779
-0.231101
-0.237443
-0.243756
-0.250163
-0.256368
-0.262884
-0.268777
-0.276186
-0.2824
-0.293445
-0.234571
-0.240794
-0.246945
-0.253105
-0.259313
-0.265733
-0.272214
-0.279203
-0.285621
-0.293445
-0.298794
-0.310605
-0.251564
-0.257474
-0.263195
-0.268791
-0.274332
-0.279972
-0.285784
-0.292244
-0.298952
-0.307702
-0.314548
-0.328321
-0.269174
-0.274693
-0.279904
-0.284835
-0.289524
-0.294027
-0.298425
-0.30293
-0.307668
-0.313841
-0.320411
-0.334483
-0.0190655
-0.0207016
-0.0217946
-0.0222284
-0.0219354
-0.0208155
-0.0188502
-0.0159912
-0.0122791
-0.00774483
-0.00250949
0.0032495
0.00930797
0.0153255
0.0209971
0.0259126
0.0297862
0.0325615
0.0344525
0.0363062
0.0383999
0.041176
0.0444694
0.0482137
0.050107
0.0495468
0.0443085
0.035937
0.0227548
0.00742089
-0.0201513
-0.0218328
-0.0229235
-0.0233219
-0.0229731
-0.0217777
-0.0197155
-0.0167313
-0.012866
-0.00815219
-0.00271985
0.00324177
0.00949751
0.0156857
0.0214829
0.0264507
0.0302561
0.0328635
0.0345121
0.0362096
0.0381825
0.0409186
0.0443811
0.0484227
0.0504978
0.0499771
0.0444512
0.036185
0.0228117
0.00733897
-0.0221961
-0.0239701
-0.025059
-0.0253926
-0.0249386
-0.0236024
-0.0213555
-0.0181345
-0.0139764
-0.00892236
-0.00311382
0.00323252
0.0098666
0.0163817
0.0224241
0.0274931
0.031163
0.0334293
0.0346015
0.0359952
0.0377328
0.040386
0.0441752
0.0487534
0.0512227
0.0507125
0.0446461
0.0366511
0.0228386
0.00712701
-0.0251418
-0.0270491
-0.0281318
-0.0283699
-0.0277642
-0.0262259
-0.0237125
-0.0201495
-0.015567
-0.0100217
-0.00366916
0.00323322
0.0104172
0.0174107
0.023818
0.0290379
0.0324953
0.0342174
0.034668
0.0356175
0.0369956
0.0395323
0.0437968
0.0490898
0.052206
0.0515507
0.0447641
0.0373066
0.0226973
0.00670758
-0.0289466
-0.0310255
-0.0320957
-0.0322079
-0.0314059
-0.0296076
-0.0267492
-0.0227426
-0.0176086
-0.0114267
-0.00436929
0.00325372
0.0111539
0.0187776
0.0256794
0.0311054
0.034256
0.0351819
0.0346402
0.0350089
0.035894
0.0382941
0.0431656
0.0492698
0.0533307
0.0521918
0.0446856
0.0381113
0.0222011
0.00598493
-0.0335894
-0.0358779
-0.0369268
-0.0368814
-0.0358395
-0.0337254
-0.0304452
-0.0258952
-0.0200836
-0.0131232
-0.00520497
0.00329857
0.0120773
0.0204891
0.0280306
0.0337307
0.0364546
0.036263
0.034432
0.0340833
0.0343363
0.0365966
0.0421729
0.0490943
0.0543912
0.0522162
0.0443105
0.0389693
0.0211417
0.00487563
-0.0390662
-0.0416013
-0.0426168
-0.0423811
-0.0410557
-0.0385712
-0.0347931
-0.0295996
-0.0229843
-0.0151058
-0.00617456
0.00336387
0.0131778
0.0225454
0.0308976
0.0369557
0.0390976
0.0373812
0.0339337
0.0327336
0.0322253
0.0343583
0.0406908
0.0483444
0.0550046
0.051124
0.0435408
0.0396578
0.0193746
0.00333677
-0.0453818
-0.0481994
-0.0491671
-0.0487074
-0.0470561
-0.0441478
-0.0397958
-0.0338571
-0.0263108
-0.0173764
-0.007285
0.0034355
0.0144307
0.0249336
0.0342989
0.040821
0.0421753
0.038432
0.0330099
0.0308292
0.0294675
0.0314993
0.0385894
0.046811
0.0545469
0.0484247
0.0422326
0.0397847
0.0169518
0.00141066
-0.0525503
-0.0556858
-0.0565865
-0.0558675
-0.05385
-0.0504665
-0.0454645
-0.0386764
-0.0300695
-0.0199433
-0.00855202
0.00348622
0.0157924
0.0276191
0.0382378
0.0453538
0.0456458
0.0392758
0.0314941
0.0282165
0.0259785
0.0279543
0.0357677
0.0443368
0.0522534
0.0437351
0.0401007
0.038848
0.0141476
-0.000762134
-0.06059
-0.0640766
-0.0648874
-0.0638741
-0.0614536
-0.0575461
-0.0518175
-0.0440716
-0.0342718
-0.0228199
-0.00999791
0.00347466
0.0171953
0.0305396
0.0426904
0.0505479
0.0494096
0.0397313
0.029187
0.0247151
0.0216795
0.023688
0.0321884
0.0408504
0.0476288
0.0369794
0.0367567
0.0363924
0.0113468
-0.00298834
-0.0695219
-0.0733898
-0.0740842
-0.0727433
-0.0698882
-0.0654121
-0.0588795
-0.0500619
-0.0389323
-0.0260233
-0.01165
0.00334659
0.0185481
0.0335887
0.0475909
0.0563358
0.0532781
0.0395711
0.0258503
0.0201104
0.0164922
0.0187077
0.0278793
0.036382
0.0407952
0.0284639
0.0319876
0.0321998
0.00882272
-0.00509992
-0.079367
-0.0836423
-0.0841902
-0.0824926
-0.0791794
-0.0740965
-0.066681
-0.0566704
-0.0440675
-0.0295717
-0.0135381
0.00303881
0.0197423
0.0366064
0.0528133
0.0625409
0.0569456
0.0385096
0.0212023
0.0141453
0.0103395
0.0130612
0.022907
0.0309961
0.0323672
0.0188822
0.0258669
0.0263853
0.00663153
-0.00699218
-0.0901436
-0.0948462
-0.0952154
-0.0931397
-0.0893572
-0.083638
-0.0752581
-0.0639234
-0.0496945
-0.033483
-0.0156912
0.00248339
0.020669
0.0396239
0.0581512
0.068809
0.0599618
0.0362005
0.0149178
0.00651626
0.0031541
0.00681807
0.0173557
0.0248834
0.023222
0.00910804
0.0186787
0.0193197
0.00467447
-0.00860933
-0.101864
-0.107006
-0.107164
-0.104702
-0.100457
-0.0940829
-0.0846532
-0.0718509
-0.0558301
-0.0377729
-0.0181337
0.00161181
0.0211755
0.0418706
0.0632449
0.0745523
0.0617197
0.0322477
0.00663984
-0.00310765
-0.00510186
6.52905e-05
0.0113465
0.0183468
0.0141041
-0.00018566
0.0108015
0.0114862
0.00279867
-0.00992233
-0.114531
-0.120115
-0.120033
-0.117196
-0.112518
-0.105485
-0.0949149
-0.0804858
-0.0624908
-0.042453
-0.0208811
0.000372626
0.0211509
0.0432702
0.0676257
0.078994
0.0615138
0.0263097
-0.00397979
-0.0150352
-0.0144127
-0.00709075
0.00501971
0.0116632
0.00550069
-0.0085795
0.00264417
0.00337772
0.000876266
-0.0109196
-0.128137
-0.134153
-0.13381
-0.130636
-0.125589
-0.117909
-0.106099
-0.0898644
-0.0696926
-0.0475319
-0.0239387
-0.00125818
0.0205086
0.0435673
0.0706299
0.0813775
0.058824
0.0183989
-0.0171435
-0.0294467
-0.0246862
-0.0145361
-0.00149532
0.00503192
-0.0023118
-0.0158659
-0.0054023
-0.00459051
-0.00116094
-0.0115957
-0.142653
-0.149079
-0.148468
-0.145037
-0.139725
-0.131426
-0.118268
-0.100027
-0.0774527
-0.053015
-0.027302
-0.00327575
0.0192181
0.0426966
0.0714736
0.081181
0.0536745
0.00915461
-0.032628
-0.0462119
-0.0357245
-0.0221609
-0.00808944
-0.00140627
-0.00921283
-0.0219907
-0.0130328
-0.0121028
-0.0033164
-0.0119516
-0.158035
-0.16483
-0.163972
-0.160415
-0.154991
-0.146121
-0.131496
-0.111016
-0.08579
-0.0589047
-0.0309587
-0.00565612
0.0173094
0.0408079
0.06955
0.0780319
0.0464724
-0.000412536
-0.0496686
-0.0647651
-0.0472191
-0.0298625
-0.0146668
-0.00755256
-0.015197
-0.0269936
-0.0200375
-0.0189501
-0.00554116
-0.0119803
-0.174209
-0.181317
-0.180269
-0.176788
-0.171465
-0.162089
-0.145863
-0.122878
-0.0947262
-0.0651974
-0.0348973
-0.00836697
0.0148681
0.0381303
0.0648285
0.07163
0.0376186
-0.00973214
-0.0671899
-0.0841596
-0.0587826
-0.0375425
-0.0211382
-0.0133431
-0.0203258
-0.0309652
-0.0262928
-0.025024
-0.00775606
-0.0117036
-0.191073
-0.198421
-0.197303
-0.19418
-0.189235
-0.179441
-0.161463
-0.135667
-0.104285
-0.0718819
-0.039114
-0.0113719
0.0120178
0.0348613
0.0580264
0.0621533
0.027414
-0.0191498
-0.0842449
-0.103305
-0.0700141
-0.0451057
-0.0274195
-0.0187412
-0.0246899
-0.0340196
-0.0317504
-0.0302868
-0.00988855
-0.0111504
-0.208481
-0.215985
-0.215007
-0.212626
-0.208402
-0.198303
-0.178401
-0.149437
-0.114488
-0.0789426
-0.0436123
-0.0146271
0.0088848
0.0311578
0.0500553
0.0505368
0.0163528
-0.0292321
-0.100242
-0.121252
-0.0805732
-0.0524611
-0.0334336
-0.0237292
-0.0283908
-0.0362781
-0.0364204
-0.034757
-0.01188
-0.0103593
-0.226243
-0.233814
-0.233314
-0.232164
-0.229079
-0.218819
-0.196794
-0.164254
-0.125353
-0.086365
-0.0483937
-0.0180828
0.00556756
0.0271729
0.0418477
0.0380556
0.00509858
-0.0400115
-0.114843
-0.137322
-0.0902182
-0.059518
-0.0391143
-0.0283026
-0.0315302
-0.0378662
-0.0403538
-0.0384915
-0.0136866
-0.00937501
-0.244074
-0.251676
-0.252141
-0.252819
-0.251376
-0.241148
-0.216768
-0.180179
-0.136889
-0.0941403
-0.0534466
-0.0216929
0.00212802
0.0230435
0.0338533
0.0257215
-0.00580239
-0.0509621
-0.127837
-0.15109
-0.0988003
-0.0661897
-0.0444089
-0.0324657
-0.0342042
-0.0389004
-0.0436269
-0.0415705
-0.0152794
-0.00824388
-0.261533
-0.269268
-0.271359
-0.274571
-0.275387
-0.265445
-0.238444
-0.197273
-0.149096
-0.102264
-0.0587425
-0.0254267
-0.00140711
0.0188771
0.0263087
0.0140974
-0.0160498
-0.0613818
-0.139075
-0.162344
-0.106245
-0.0723996
-0.0492803
-0.0362291
-0.0365002
-0.0394872
-0.0463279
-0.0440885
-0.0166418
-0.0070098
-0.278067
-0.286232
-0.29072
-0.297277
-0.30114
-0.291832
-0.261917
-0.215574
-0.161965
-0.110732
-0.0642403
-0.0292735
-0.00504946
0.0147519
0.0193159
0.00343824
-0.0255118
-0.0707299
-0.148422
-0.171037
-0.112536
-0.0780854
-0.0537074
-0.0396089
-0.038495
-0.0397229
-0.0485479
-0.0461452
-0.0177728
-0.0057108
-0.292897
-0.301878
-0.309816
-0.320588
-0.328508
-0.320328
-0.287219
-0.235084
-0.175474
-0.119536
-0.0698957
-0.0332414
-0.0088541
0.0107257
0.0129136
-0.00611835
-0.034035
-0.0787597
-0.155802
-0.177244
-0.117698
-0.083203
-0.0576834
-0.0426249
-0.040254
-0.0396932
-0.0503726
-0.047827
-0.0186958
-0.00437881
-0.304874
-0.315691
-0.328038
-0.343887
-0.357103
-0.350725
-0.314259
-0.255748
-0.189572
-0.12865
-0.0756626
-0.0373489
-0.012912
0.00682995
0.00708405
-0.0143987
-0.0413161
-0.0853829
-0.161415
-0.181144
-0.121782
-0.0877268
-0.0612146
-0.045299
-0.0418312
-0.0394761
-0.0518726
-0.0491809
-0.0194542
-0.00304347
-0.313371
-0.327021
-0.344508
-0.366247
-0.386238
-0.382512
-0.34271
-0.277433
-0.204241
-0.138083
-0.0815156
-0.041622
-0.0173324
0.00308736
0.00170605
-0.0211849
-0.047124
-0.0905782
-0.165791
-0.183105
-0.12487
-0.0916471
-0.0643155
-0.0476578
-0.0432678
-0.039124
-0.0530976
-0.0502184
-0.0200686
-0.00173601
-0.318556
-0.335157
-0.358079
-0.38656
-0.414958
-0.41505
-0.372146
-0.299748
-0.219217
-0.147713
-0.0874392
-0.0460867
-0.0222354
-0.000430979
-0.00293936
-0.0266759
-0.0520656
-0.094789
-0.169025
-0.183784
-0.127132
-0.0949933
-0.0670114
-0.0497123
-0.0446179
-0.0386097
-0.0540916
-0.0510178
-0.0204807
-0.000472911
-0.320766
-0.339927
-0.367562
-0.403617
-0.441512
-0.446944
-0.402558
-0.323592
-0.235417
-0.158117
-0.0935503
-0.0507324
-0.0277481
-0.00396195
-0.00636116
-0.0330332
-0.0584094
-0.0991611
-0.169727
-0.184114
-0.128518
-0.0977911
-0.0693467
-0.0515528
-0.0458984
-0.0381687
-0.055039
-0.0519118
-0.0205854
0.000785145
-0.330973
-0.343628
-0.372058
-0.411913
-0.456599
-0.466332
-0.423239
-0.341813
-0.249043
-0.167937
-0.100445
-0.0562033
-0.0341964
-0.00946706
-0.0146
-0.0426873
-0.0664693
-0.102917
-0.165869
-0.16877
-0.127408
-0.0990621
-0.0706115
-0.0525914
-0.0471848
-0.0391568
-0.0562027
-0.0531936
-0.02044
0.00190407
-0.332546
-0.348635
-0.381334
-0.42696
-0.474651
-0.485508
-0.437784
-0.350153
-0.252875
-0.169637
-0.101306
-0.0580832
-0.0377413
-0.012215
-0.0168139
-0.0469701
-0.0704121
-0.105598
-0.165012
-0.16948
-0.126754
-0.0997055
-0.0713295
-0.0533949
-0.0475462
-0.0396161
-0.0565239
-0.0538436
-0.0202877
0.00262713
-0.334546
-0.354018
-0.390363
-0.440378
-0.493506
-0.502994
-0.447867
-0.352166
-0.250511
-0.166165
-0.0987188
-0.0581078
-0.0397543
-0.0142558
-0.0201118
-0.0511149
-0.0741035
-0.107689
-0.163742
-0.169262
-0.125836
-0.0999845
-0.0717701
-0.0541055
-0.0474048
-0.0398264
-0.0566627
-0.0543864
-0.0201342
0.00324898
-0.336827
-0.359459
-0.399906
-0.458022
-0.510655
-0.519127
-0.457732
-0.354867
-0.249213
-0.163738
-0.0972166
-0.0589565
-0.042401
-0.017192
-0.0245267
-0.0554164
-0.0773734
-0.109271
-0.162059
-0.167511
-0.124648
-0.100177
-0.0721613
-0.0547543
-0.0472093
-0.0400093
-0.0568058
-0.0548615
-0.0199802
0.00380772
-0.339434
-0.365268
-0.409645
-0.469663
-0.526665
-0.534568
-0.467674
-0.358439
-0.249257
-0.16275
-0.0971403
-0.060934
-0.046061
-0.0212979
-0.0295272
-0.0597275
-0.0802559
-0.110335
-0.159965
-0.165343
-0.123247
-0.100313
-0.0725289
-0.0553515
-0.0470804
-0.0401939
-0.0569422
-0.0552694
-0.0198283
0.00430039
-0.342719
-0.371607
-0.419543
-0.482713
-0.542104
-0.549151
-0.476946
-0.361694
-0.249381
-0.162149
-0.0977504
-0.0636846
-0.0505153
-0.0265389
-0.0350569
-0.0640273
-0.0827559
-0.110898
-0.157464
-0.16257
-0.121657
-0.100351
-0.0728376
-0.0558965
-0.0469775
-0.04036
-0.0570571
-0.0556162
-0.0196817
0.00472292
-0.346819
-0.378518
-0.429651
-0.495799
-0.556849
-0.562559
-0.485256
-0.364403
-0.249344
-0.16172
-0.0988733
-0.0671507
-0.0557454
-0.0330177
-0.0411234
-0.068297
-0.084882
-0.110974
-0.15456
-0.158225
-0.119886
-0.10027
-0.0730706
-0.0563877
-0.0468668
-0.0405077
-0.0571543
-0.0559087
-0.0195433
0.0050748
-0.351777
-0.385953
-0.43991
-0.508428
-0.57067
-0.574562
-0.492502
-0.366665
-0.249334
-0.16167
-0.100646
-0.0714597
-0.0618752
-0.0408597
-0.047686
-0.0725055
-0.0866421
-0.11058
-0.151272
-0.154421
-0.117957
-0.100068
-0.0732278
-0.0568257
-0.0467494
-0.0406462
-0.05724
-0.0561528
-0.0194159
0.00535635
-0.35754
-0.393767
-0.450157
-0.5205
-0.583343
-0.584953
-0.49853
-0.368456
-0.249422
-0.162129
-0.103163
-0.0767199
-0.0690097
-0.0500584
-0.0546718
-0.0766171
-0.0880469
-0.109741
-0.147612
-0.151055
-0.115886
-0.0997436
-0.0733117
-0.057213
-0.0466376
-0.0407852
-0.0573181
-0.0563538
-0.019302
0.00556793
-0.363944
-0.401735
-0.460156
-0.531791
-0.594595
-0.593506
-0.503158
-0.369671
-0.249571
-0.16312
-0.106444
-0.0829889
-0.0772079
-0.0603332
-0.061975
-0.0805943
-0.0891097
-0.108483
-0.143596
-0.147208
-0.113674
-0.0992952
-0.0733232
-0.0575523
-0.0465407
-0.0409336
-0.0573917
-0.0565165
-0.0192036
0.00571
-0.370736
-0.409577
-0.469607
-0.541968
-0.60409
-0.599981
-0.506202
-0.370204
-0.249744
-0.164642
-0.110499
-0.0902921
-0.0864953
-0.071419
-0.0694815
-0.0843992
-0.0898476
-0.10684
-0.139249
-0.14285
-0.111317
-0.0987187
-0.0732629
-0.0578465
-0.0464642
-0.0410997
-0.0574631
-0.056645
-0.0191228
0.00578318
-0.377617
-0.416994
-0.478151
-0.550637
-0.61144
-0.604124
-0.507498
-0.369965
-0.249907
-0.16669
-0.115341
-0.0986251
-0.0968644
-0.0835599
-0.0771016
-0.0879979
-0.0902805
-0.104851
-0.1346
-0.13803
-0.108823
-0.0980114
-0.0731319
-0.0580982
-0.0464129
-0.0412923
-0.0575344
-0.056743
-0.0190613
0.00578831
-0.384288
-0.423679
-0.4854
-0.557359
-0.616233
-0.605661
-0.506906
-0.368875
-0.250026
-0.169239
-0.120974
-0.107943
-0.108265
-0.0963666
-0.0847508
-0.0913626
-0.0904315
-0.102559
-0.129682
-0.132804
-0.106203
-0.0971715
-0.072932
-0.0583103
-0.046391
-0.0415194
-0.0576067
-0.0568131
-0.0190203
0.00572644
-0.390482
-0.429354
-0.490959
-0.561687
-0.618077
-0.604326
-0.504299
-0.366846
-0.250047
-0.172236
-0.127384
-0.118158
-0.120609
-0.109566
-0.0923471
-0.0944732
-0.090326
-0.100012
-0.124546
-0.127232
-0.103462
-0.0961979
-0.0726654
-0.0584853
-0.0464023
-0.0417881
-0.0576806
-0.0568578
-0.0190012
0.00559885
-0.396
-0.433783
-0.494464
-0.563197
-0.616624
-0.599893
-0.499553
-0.363779
-0.2499
-0.175595
-0.13453
-0.129145
-0.133766
-0.122887
-0.0998174
-0.0973166
-0.0899918
-0.0972626
-0.119243
-0.121372
-0.100609
-0.0950907
-0.0723347
-0.0586258
-0.0464495
-0.0421042
-0.0577562
-0.0568787
-0.0190046
0.00540707
-0.40075
-0.436784
-0.495619
-0.561529
-0.611594
-0.592195
-0.492554
-0.35957
-0.249501
-0.179205
-0.142337
-0.140756
-0.147567
-0.136085
-0.107097
-0.0998865
-0.0894576
-0.0943629
-0.113828
-0.115286
-0.0976567
-0.0938507
-0.0719427
-0.058734
-0.0465344
-0.0424719
-0.0578331
-0.0568769
-0.0190311
0.00515291
-0.404737
-0.43824
-0.494231
-0.556429
-0.603203
-0.58112
-0.483199
-0.354111
-0.248749
-0.182928
-0.150692
-0.152829
-0.161802
-0.148962
-0.114127
-0.102184
-0.0887529
-0.0913667
-0.108358
-0.109041
-0.094617
-0.0924801
-0.0714922
-0.0588119
-0.046658
-0.0428941
-0.0579105
-0.056853
-0.0190809
0.00483855
-0.407883
-0.438163
-0.49023
-0.547763
-0.590379
-0.5666
-0.471404
-0.347298
-0.247527
-0.186608
-0.159438
-0.165206
-0.176233
-0.161363
-0.120858
-0.104214
-0.0879069
-0.0883258
-0.102892
-0.102701
-0.0915007
-0.0909819
-0.0709862
-0.0588611
-0.0468204
-0.0433721
-0.0579872
-0.056807
-0.0191539
0.00446652
-0.410465
-0.436763
-0.483645
-0.535563
-0.573686
-0.54866
-0.457117
-0.339036
-0.245704
-0.190074
-0.168382
-0.177738
-0.190607
-0.17317
-0.12725
-0.10599
-0.0869483
-0.0852889
-0.0974889
-0.0963326
-0.0883201
-0.0893602
-0.0704276
-0.0588828
-0.0470212
-0.0439058
-0.058062
-0.0567385
-0.0192495
0.00403976
-0.412759
-0.434287
-0.474752
-0.519954
-0.553268
-0.527395
-0.440318
-0.329244
-0.243133
-0.193147
-0.177302
-0.190282
-0.204678
-0.184291
-0.133273
-0.107526
-0.0859045
-0.0822995
-0.0922003
-0.0899994
-0.0850895
-0.0876202
-0.0698194
-0.058878
-0.0472595
-0.0444937
-0.058133
)
;

boundaryField
{
    inlet
    {
        type            zeroGradient;
    }
    outlet
    {
        type            fixedValue;
        value           uniform 0;
    }
    cylinder
    {
        type            zeroGradient;
    }
    top
    {
        type            symmetryPlane;
    }
    bottom
    {
        type            symmetryPlane;
    }
    defaultFaces
    {
        type            empty;
    }
    procBoundary1to0
    {
        type            processor;
        value           nonuniform List<scalar> 
50
(
-0.285937
-0.317453
-0.317453
-0.346844
-0.346844
-0.388055
-0.369417
-0.369417
-0.395864
-0.395864
-0.398799
-0.398799
-0.39965
-0.39965
-0.398901
-0.391733
-0.391733
-0.389042
-0.389042
-0.00992137
-0.0107036
-0.0121516
-0.0142037
-0.0168332
-0.020009
-0.0237192
-0.0279554
-0.0327162
-0.0380041
-0.0438255
-0.0438255
-0.0480167
-0.0546977
-0.061923
-0.0697068
-0.0780614
-0.0870048
-0.0965533
-0.106722
-0.117526
-0.128985
-0.141108
-0.153901
-0.167385
-0.181589
-0.196478
-0.211992
-0.228225
-0.245421
-0.263314
)
;
    }
    procBoundary1to3
    {
        type            processor;
        value           nonuniform List<scalar> 
41
(
-0.390919
-0.393934
-0.395011
-0.39584
-0.39675
-0.397888
-0.399327
-0.401144
-0.403384
-0.406429
-0.415063
-0.431078
-0.46397
-0.501316
-0.529331
-0.502965
-0.421033
-0.31786
-0.239658
-0.195641
-0.185965
-0.202703
-0.218224
-0.194652
-0.138901
-0.10884
-0.0848011
-0.0793951
-0.0870762
-0.0837681
-0.0818238
-0.0857686
-0.0691646
-0.0588472
-0.0475338
-0.0451333
-0.0581985
-0.0566467
-0.0193669
0.00356168
-0.0566467
)
;
    }
}


// ************************************************************************* //
