/*--------------------------------*- C++ -*----------------------------------*\
  =========                 |
  \\      /  F ield         | OpenFOAM: The Open Source CFD Toolbox
   \\    /   O peration     | Website:  https://openfoam.org
    \\  /    A nd           | Version:  7
     \\/     M anipulation  |
\*---------------------------------------------------------------------------*/
FoamFile
{
    version     2.0;
    format      ascii;
    class       volVectorField;
    location    "365";
    object      U;
}
// * * * * * * * * * * * * * * * * * * * * * * * * * * * * * * * * * * * * * //

dimensions      [0 1 -1 0 0 0 0];

internalField   nonuniform List<vector> 
2125
(
(1.4126 -0.097728 -1.28506e-20)
(1.4152 -0.093426 -3.7205e-20)
(1.41437 -0.082542 -6.30252e-21)
(1.36113 -0.0755014 2.59109e-20)
(1.40575 -0.0778984 -2.99317e-21)
(1.41386 -0.0673221 3.15813e-20)
(1.00249 -0.0263862 7.37289e-20)
(1.20154 -0.0467982 -1.53474e-19)
(1.32796 -0.0583066 3.11607e-20)
(1.39093 -0.062507 -2.41866e-20)
(1.4103 -0.0520251 -3.34779e-20)
(0.656701 0.00572092 1.52949e-20)
(0.916764 -0.0120954 -1.24783e-19)
(1.13487 -0.0303919 8.44e-20)
(1.28544 -0.0417245 -6.5632e-20)
(1.36945 -0.0473381 6.48971e-20)
(1.40268 -0.0366367 -2.90112e-21)
(0.332551 0.0141449 -6.37991e-22)
(0.567407 0.0110208 5.1039e-20)
(0.824825 -0.000860468 2.6288e-21)
(1.05792 -0.0159253 -6.83721e-20)
(1.23241 -0.0260669 -2.15149e-21)
(1.33981 -0.0325575 -2.83752e-20)
(1.38975 -0.0211236 3.34394e-20)
(0.113523 0.00251842 9.63771e-21)
(0.268299 0.0103144 2.70225e-20)
(0.480724 0.0125451 -4.58589e-20)
(0.728858 0.00685179 1.07739e-19)
(0.971288 -0.00395022 -6.3919e-22)
(1.16795 -0.0117531 -9.25821e-21)
(1.30053 -0.0184301 -5.60979e-20)
(1.36967 -0.00558362 -7.52626e-21)
(0.0796453 -0.00480127 7.55146e-21)
(0.210716 0.00410397 -1.95235e-20)
(0.398872 0.0103794 -2.27247e-20)
(0.631666 0.0106283 -1.48013e-20)
(0.876479 0.00491511 -1.09245e-20)
(1.0917 0.000672626 1.32255e-20)
(1.25 -0.00535262 5.42113e-20)
(1.34111 0.00992252 3.99146e-20)
(-0.00707292 -0.0169942 4.1395e-20)
(0.0510667 -0.0129425 -9.52808e-20)
(0.160271 -0.004184 5.31405e-20)
(0.323755 0.00471879 4.63244e-20)
(0.536442 0.0101719 -1.16934e-19)
(0.776023 0.010023 3.1699e-20)
(1.00407 0.0105598 -1.83238e-21)
(1.18737 0.00608034 2.34239e-20)
(1.30057 0.0250431 -4.46909e-20)
(-0.018435 -0.0144469 1.17075e-19)
(-0.01656 -0.0228958 -3.22844e-20)
(0.0275001 -0.02184 4.68439e-20)
(0.11714 -0.0143385 2.93539e-20)
(0.256815 -0.00418163 -1.61718e-20)
(0.44641 0.00536201 3.76524e-20)
(0.673452 0.0107846 -1.58429e-20)
(0.906726 0.0171168 8.87203e-20)
(1.11183 0.0152625 -1.43607e-19)
(1.24887 0.0390872 -4.86413e-20)
(-0.0190047 -0.0160233 -3.44531e-20)
(-0.0237649 -0.0288874 1.29122e-19)
(0.00855304 -0.0315174 -1.01301e-19)
(0.0812332 -0.0262285 -2.9426e-21)
(0.198963 -0.0160455 -4.66305e-20)
(0.364403 -0.00370652 5.07764e-20)
(0.572989 0.00679884 5.53552e-20)
(0.802623 0.0195568 -2.76231e-20)
(1.02458 0.0210818 2.3194e-20)
(1.17875 0.0516389 2.80517e-20)
(-0.0191716 -0.0175809 7.12828e-21)
(-0.0290861 -0.0351246 -3.55557e-20)
(-0.00626264 -0.0420474 4.39179e-20)
(0.0521936 -0.0397598 -4.11068e-20)
(0.15054 -0.0305766 -5.00076e-20)
(0.292512 -0.0167173 -2.24555e-20)
(0.478921 -0.00196908 -8.40657e-20)
(0.695862 0.0168991 5.17885e-20)
(0.929244 0.0237854 9.61442e-20)
(1.09146 0.0572067 -3.16104e-20)
(-0.0191124 -0.0192524 2.20797e-20)
(-0.0329235 -0.0417847 1.69005e-20)
(-0.0175146 -0.0535039 -4.03569e-21)
(0.0294162 -0.0548188 -7.13354e-20)
(0.111316 -0.0474244 7.39518e-20)
(0.23186 -0.0331502 8.28458e-20)
(0.394692 -0.0151165 2.86572e-20)
(0.592524 0.00785696 -4.04823e-21)
(0.823145 0.0261546 -1.03132e-19)
(1.0221 0.0491804 3.15925e-20)
(-0.018979 -0.0211733 -6.66405e-20)
(-0.0356546 -0.0490303 -8.34177e-21)
(-0.0258201 -0.065917 1.75796e-20)
(0.0120814 -0.0712216 5.5029e-21)
(0.0805307 -0.0661442 2.24297e-20)
(0.182508 -0.0522994 -1.33322e-19)
(0.322376 -0.0319922 8.02332e-20)
(0.498287 -0.00720918 -9.74099e-20)
(0.711813 0.0241254 7.12929e-20)
(0.943875 0.044721 8.88634e-20)
(-0.0188845 -0.0234638 2.94103e-20)
(-0.0376071 -0.0569782 -1.8608e-20)
(-0.0318026 -0.0792394 8.24947e-21)
(-0.000773472 -0.0886849 -3.89335e-20)
(0.0569936 -0.0861768 5.28398e-21)
(0.143535 -0.0733026 -1.04811e-20)
(0.262524 -0.0517408 -5.03973e-20)
(0.41659 -0.0264468 2.65533e-20)
(0.602886 0.015225 5.47265e-20)
(0.855012 0.0403599 -8.14641e-20)
(-0.0188946 -0.026212 -4.07502e-20)
(-0.0390363 -0.0656756 -5.92206e-20)
(-0.0360415 -0.093331 4.63461e-20)
(-0.0101572 -0.106824 4.45065e-20)
(0.0392514 -0.106864 -1.09284e-19)
(0.113278 -0.0951932 1.08722e-19)
(0.214284 -0.0732503 -1.22425e-19)
(0.348181 -0.047661 3.47128e-20)
(0.503704 -5.60063e-05 -3.72844e-20)
(0.758089 0.0329898 -6.2793e-20)
(-0.0190249 -0.0294617 2.09211e-20)
(-0.0401115 -0.0750877 4.76062e-20)
(-0.0390281 -0.107959 1.19975e-20)
(-0.0170203 -0.125171 1.28298e-20)
(0.0257923 -0.12749 -8.80046e-22)
(0.0896971 -0.116978 1.92866e-20)
(0.175755 -0.0952196 3.77385e-20)
(0.291685 -0.0690088 7.34742e-20)
(0.418757 -0.0195968 -7.33901e-20)
(0.658759 0.0220365 2.82374e-20)
(-0.0192463 -0.033207 -5.12508e-20)
(-0.0409156 -0.0850954 1.03586e-21)
(-0.0411378 -0.122814 1.61742e-20)
(-0.0221716 -0.143217 -2.86724e-20)
(0.0152366 -0.147349 5.61667e-20)
(0.0707592 -0.137736 -1.33426e-19)
(0.144506 -0.11638 7.16902e-20)
(0.244584 -0.0891908 -6.83536e-20)
(0.348663 -0.0407683 1.34721e-19)
(0.562878 0.00829316 3.64013e-20)
(-0.0194962 -0.0373927 2.69151e-20)
(-0.0414571 -0.0955023 -5.40344e-20)
(-0.0426242 -0.13753 -1.61719e-20)
(-0.0262316 -0.160445 2.3764e-20)
(0.0064676 -0.165797 3.9985e-20)
(0.0547223 -0.156693 6.25394e-21)
(0.118146 -0.135681 -2.42519e-20)
(0.204166 -0.107396 5.71458e-20)
(0.291027 -0.0611879 -3.38494e-20)
(0.474478 -0.00703035 -4.36496e-21)
(-0.0196921 -0.0419193 7.38402e-20)
(-0.0416916 -0.106049 2.01079e-20)
(-0.0436328 -0.151713 3.73786e-21)
(-0.0296256 -0.176377 -5.24951e-20)
(-0.00131385 -0.182307 4.68829e-20)
(0.0403045 -0.173284 1.54707e-20)
(0.0947275 -0.152412 8.03328e-21)
(0.168125 -0.123189 -1.77167e-20)
(0.24222 -0.0792585 2.19523e-20)
(0.395131 -0.0227283 3.76524e-20)
(-0.019746 -0.0466521 -5.52509e-20)
(-0.0415466 -0.116435 3.00064e-20)
(-0.0442272 -0.164967 -3.32461e-21)
(-0.0326082 -0.190593 7.52904e-20)
(-0.00860543 -0.196484 -8.24759e-20)
(0.026689 -0.187156 2.76138e-20)
(0.0728989 -0.166217 -1.73473e-20)
(0.13485 -0.136375 -1.59992e-20)
(0.198932 -0.0943196 -5.01963e-20)
(0.32448 -0.0378381 1.91875e-20)
(-0.0195766 -0.0514311 2.37032e-20)
(-0.0409452 -0.126334 -5.94943e-20)
(-0.0444193 -0.17692 -3.3278e-20)
(-0.035303 -0.202756 -5.20132e-20)
(-0.0156592 -0.208074 1.42062e-20)
(0.0134551 -0.198152 -4.53162e-21)
(0.051914 -0.177021 -4.48573e-20)
(0.103408 -0.146938 -9.67506e-21)
(0.158864 -0.106416 -7.72094e-22)
(0.261201 -0.0517323 2.29837e-20)
(-0.0191186 -0.0560823 4.23103e-20)
(-0.0398252 -0.135422 4.20976e-21)
(-0.0441963 -0.187242 1.78771e-20)
(-0.0377451 -0.212619 7.84576e-20)
(-0.0225522 -0.216945 7.83158e-20)
(0.000465484 -0.206256 -1.37313e-20)
(0.0314733 -0.184931 3.5955e-20)
(0.0733423 -0.155007 -2.38555e-20)
(0.12076 -0.115938 -1.46391e-20)
(0.204003 -0.0642859 -3.4235e-20)
(-0.018329 -0.0604291 -5.47068e-20)
(-0.0381512 -0.143398 4.52872e-20)
(-0.0435414 -0.195662 2.28557e-20)
(-0.0399182 -0.220019 -4.4514e-20)
(-0.0292514 -0.223066 -5.04672e-20)
(-0.0122408 -0.211553 1.62154e-20)
(0.0115618 -0.190133 1.32368e-21)
(0.0445073 -0.160753 7.34023e-20)
(0.0840291 -0.123244 4.51512e-20)
(0.150962 -0.0750559 -1.9284e-20)
(-0.01719 -0.0643027 2.98693e-20)
(-0.0359212 -0.149994 -1.30285e-20)
(-0.0424473 -0.201976 -4.65031e-20)
(-0.0417814 -0.224876 1.96208e-20)
(-0.0356643 -0.226481 -6.69423e-22)
(-0.0245288 -0.214179 -6.62824e-20)
(-0.00768032 -0.192829 -3.91837e-21)
(0.0169361 -0.164324 -6.78376e-20)
(0.0485626 -0.128553 -3.15681e-20)
(0.10141 -0.0838119 5.4279e-20)
(-0.0157092 -0.0675519 -3.63751e-20)
(-0.0331672 -0.154997 -3.06095e-21)
(-0.0409226 -0.206054 -2.15939e-21)
(-0.0432873 -0.227183 -4.2035e-20)
(-0.041672 -0.227288 6.42294e-21)
(-0.03622 -0.214293 4.04854e-20)
(-0.0260404 -0.193192 -2.17759e-20)
(-0.00923773 -0.165813 3.54596e-20)
(0.0144811 -0.131955 1.65308e-20)
(0.0548369 -0.0903264 -1.95357e-20)
(-0.0139175 -0.0700518 2.29506e-20)
(-0.0299522 -0.158256 4.33979e-20)
(-0.0389931 -0.207838 -9.60336e-21)
(-0.044392 -0.226993 2.00438e-20)
(-0.0471495 -0.225614 1.36085e-20)
(-0.0471222 -0.212067 -3.35479e-20)
(-0.0432711 -0.191368 8.35246e-21)
(-0.0338204 -0.165244 -9.58229e-21)
(-0.0179593 -0.133453 1.25829e-20)
(0.0110484 -0.0944343 -2.51796e-20)
(-0.0118664 -0.0717101 -7.23577e-21)
(-0.0263641 -0.159689 -2.80622e-20)
(-0.0367001 -0.207338 3.89253e-20)
(-0.0450592 -0.224419 -1.98524e-20)
(-0.0519857 -0.221635 9.28366e-21)
(-0.0570449 -0.207667 2.81651e-20)
(-0.059101 -0.187491 -2.42754e-20)
(-0.0565773 -0.162683 -6.44361e-21)
(-0.0483502 -0.132867 5.10901e-22)
(-0.0298491 -0.0960536 3.03978e-20)
(-0.00962342 -0.0724684 -2.15087e-21)
(-0.0225076 -0.159276 -8.29193e-21)
(-0.0341001 -0.204635 -3.41924e-20)
(-0.0452763 -0.219618 6.64495e-21)
(-0.0560777 -0.215547 5.50154e-21)
(-0.0658031 -0.201268 -2.29065e-21)
(-0.0732839 -0.181686 -2.70267e-22)
(-0.0771433 -0.158195 -9.69102e-21)
(-0.0761557 -0.130104 1.3827e-20)
(-0.0675194 -0.0952413 9.57056e-21)
(-0.0072661 -0.0723082 5.6546e-21)
(-0.0185 -0.157059 1.00826e-20)
(-0.0312645 -0.199867 2.54803e-20)
(-0.0450404 -0.212789 -1.30979e-20)
(-0.0593441 -0.207562 -1.14322e-20)
(-0.0732371 -0.193074 -3.95897e-22)
(-0.0855588 -0.174099 2.25342e-20)
(-0.0951336 -0.151833 1.07161e-20)
(-0.100837 -0.125276 -9.74019e-21)
(-0.101084 -0.0920562 -1.11637e-20)
(-0.00487419 -0.0712495 -9.06614e-22)
(-0.0144633 -0.153142 1.96047e-21)
(-0.0282747 -0.193217 -4.84686e-21)
(-0.0443685 -0.204164 3.47937e-21)
(-0.0617347 -0.197922 2.9674e-21)
(-0.0792183 -0.183309 2.13761e-21)
(-0.09569 -0.164922 -4.43375e-21)
(-0.110182 -0.143747 -1.82465e-20)
(-0.121755 -0.118531 -2.95144e-21)
(-0.129611 -0.0865887 5.95024e-21)
(-0.0025283 -0.0693427 1.41642e-21)
(-0.010519 -0.147678 -3.55137e-21)
(-0.0252197 -0.184908 -2.86092e-21)
(-0.0433015 -0.194002 2.01748e-21)
(-0.0632367 -0.186896 -2.78567e-21)
(-0.0836658 -0.172232 -1.33266e-21)
(-0.103498 -0.154397 1.42268e-21)
(-0.121969 -0.134173 7.06374e-21)
(-0.138321 -0.1101 -2.50964e-21)
(-0.152237 -0.0791686 2.62027e-21)
(1.08787 -0.00135355 -1.79468e-22)
(1.08837 -0.00130404 4.69204e-22)
(1.08884 -0.00125449 -4.6005e-22)
(1.08929 -0.00120491 1.47907e-22)
(1.08972 -0.00115533 3.54863e-22)
(1.09013 -0.00110574 -1.02207e-24)
(1.09051 -0.00105628 -1.6682e-22)
(1.09088 -0.00100674 -2.66093e-22)
(1.09123 -0.000957896 1.73995e-22)
(1.09156 -0.000907917 -7.41568e-23)
(1.09186 -0.000861642 5.34604e-23)
(1.08898 -0.00400264 -1.36862e-22)
(1.08948 -0.00384636 -3.67206e-23)
(1.08997 -0.00369096 1.03013e-22)
(1.09043 -0.00353654 2.28894e-22)
(1.09086 -0.00338323 -1.95994e-23)
(1.09128 -0.00323102 -5.79353e-23)
(1.09168 -0.00308031 -7.30099e-23)
(1.09205 -0.00293045 2.36109e-22)
(1.0924 -0.00278355 5.96766e-23)
(1.09274 -0.00263445 -5.91525e-23)
(1.09305 -0.00249641 -9.71067e-23)
(1.09102 -0.00651841 -2.32313e-22)
(1.09154 -0.00625542 1.70466e-23)
(1.09205 -0.00599404 2.60707e-23)
(1.09253 -0.00573437 5.07474e-22)
(1.09298 -0.0054766 -6.71986e-22)
(1.09342 -0.00522072 1.81317e-22)
(1.09383 -0.00496732 1.85671e-22)
(1.09422 -0.00471539 1.05477e-22)
(1.09459 -0.00446808 -1.00855e-22)
(1.09494 -0.00421778 -8.6127e-24)
(1.09527 -0.0039837 5.61738e-24)
(1.09392 -0.00895697 2.73906e-22)
(1.09447 -0.00857837 -1.67954e-22)
(1.095 -0.0082018 4.38584e-22)
(1.09551 -0.00782743 -1.819e-22)
(1.096 -0.00745554 -8.73181e-23)
(1.09646 -0.00708612 -4.52012e-22)
(1.09689 -0.00671994 1.75763e-23)
(1.09731 -0.00635586 1.38825e-23)
(1.0977 -0.00599752 1.3392e-22)
(1.09808 -0.00563632 -1.04232e-22)
(1.09845 -0.0052935 1.52754e-22)
(1.09761 -0.0113054 2.22056e-22)
(1.0982 -0.0107998 -1.67911e-22)
(1.09877 -0.0102964 -9.99464e-23)
(1.09932 -0.00979549 -6.47672e-23)
(1.09984 -0.00929729 2.1468e-22)
(1.10033 -0.00880188 3.30459e-22)
(1.1008 -0.00831006 -1.2622e-25)
(1.10125 -0.00782079 2.64114e-22)
(1.10168 -0.00733751 -9.62753e-23)
(1.10209 -0.00685245 5.64275e-22)
(1.1025 -0.00638366 -2.7788e-22)
(1.10204 -0.0135924 -2.2235e-22)
(1.10268 -0.0129451 2.73741e-22)
(1.1033 -0.0122997 -1.96473e-22)
(1.10389 -0.0116565 -5.94138e-22)
(1.10446 -0.0110157 5.8772e-23)
(1.105 -0.0103775 -4.15153e-22)
(1.10551 -0.00974268 2.03832e-22)
(1.106 -0.00911046 6.63284e-22)
(1.10647 -0.00848322 -9.93543e-23)
(1.10693 -0.00785646 -5.80378e-22)
(1.10739 -0.00723818 -1.81898e-22)
(1.10717 -0.0158275 5.86244e-23)
(1.10787 -0.0150204 -2.10159e-22)
(1.10855 -0.0142143 6.2146e-22)
(1.1092 -0.0134095 2.88284e-22)
(1.10982 -0.0126062 1.21495e-22)
(1.11041 -0.0118047 1.96799e-22)
(1.11098 -0.0110053 -5.25276e-22)
(1.11152 -0.0102083 -1.01052e-21)
(1.11204 -0.00941352 -4.24405e-22)
(1.11255 -0.00862299 2.7529e-23)
(1.11309 -0.00782591 9.63851e-23)
(1.11298 -0.0180295 4.1136e-22)
(1.11376 -0.0170418 3.12872e-22)
(1.1145 -0.0160534 3.73699e-22)
(1.11522 -0.0150645 -7.48971e-22)
(1.11591 -0.0140754 8.65656e-22)
(1.11657 -0.0130865 -2.36295e-22)
(1.1172 -0.0120975 8.01328e-22)
(1.1178 -0.01111 -4.36034e-22)
(1.11838 -0.0101198 6.84744e-22)
(1.11896 -0.00913964 9.20366e-22)
(1.11958 -0.00812921 3.50798e-22)
(1.11946 -0.0202156 3.50393e-22)
(1.12032 -0.0190235 2.82514e-23)
(1.12115 -0.0178281 -1.15239e-21)
(1.12194 -0.0166296 3.96838e-22)
(1.12271 -0.015428 -1.68804e-22)
(1.12345 -0.0142239 -1.1229e-22)
(1.12415 -0.0130161 6.22505e-22)
(1.12483 -0.0118085 -5.68414e-23)
(1.12549 -0.0105905 -6.72351e-22)
(1.12614 -0.00939026 -1.35719e-21)
(1.12687 -0.00812593 1.23843e-22)
(1.12658 -0.0224056 -5.96219e-22)
(1.12754 -0.0209828 1.91878e-22)
(1.12847 -0.019553 1.41238e-21)
(1.12937 -0.0181164 8.79087e-22)
(1.13023 -0.0166725 -1.0178e-21)
(1.13106 -0.0152225 -4.66808e-22)
(1.13186 -0.0137633 -5.0013e-22)
(1.13262 -0.0123021 2.84973e-22)
(1.13336 -0.0108195 5.26504e-22)
(1.13412 -0.00936475 7.93693e-22)
(1.13496 -0.00780036 -2.70149e-22)
(1.13436 -0.0246206 1.2509e-22)
(1.13544 -0.0229386 -1.57404e-21)
(1.13649 -0.0212447 -1.04875e-23)
(1.13749 -0.019539 -1.24037e-21)
(1.13847 -0.0178206 7.61033e-22)
(1.13941 -0.0160909 1.13334e-21)
(1.14031 -0.0143449 -1.59758e-22)
(1.14119 -0.0125941 -8.28636e-22)
(1.14203 -0.0108067 -4.16725e-22)
(1.1429 -0.00906057 4.86883e-22)
(1.1439 -0.00714598 -4.40308e-22)
(1.14154 -0.0288372 7.80978e-22)
(1.14279 -0.0268827 1.03824e-21)
(1.14401 -0.0249108 -3.27176e-23)
(1.14519 -0.0229209 -1.80699e-21)
(1.14633 -0.020913 -9.83709e-22)
(1.14744 -0.0188852 -8.36448e-22)
(1.14851 -0.0168401 1.34049e-21)
(1.14954 -0.0147692 1.82242e-21)
(1.15054 -0.0126906 6.69995e-22)
(1.15152 -0.0105559 6.68162e-23)
(1.15253 -0.00848032 -8.21321e-22)
(1.1537 -0.00616302 1.76233e-21)
(1.15046 -0.031484 -4.81932e-22)
(1.15188 -0.0292142 -2.03408e-21)
(1.15326 -0.0269199 3.36188e-22)
(1.1546 -0.0246 7.47724e-22)
(1.15589 -0.0222544 7.53858e-22)
(1.15715 -0.01988 -9.54074e-22)
(1.15837 -0.0174807 -1.77954e-21)
(1.15955 -0.0150434 -3.80617e-22)
(1.16071 -0.0125951 8.31489e-22)
(1.16183 -0.0100655 1.79827e-21)
(1.163 -0.00761714 -5.19585e-22)
(1.16438 -0.0048363 -2.43656e-21)
(1.16002 -0.0342559 1.31684e-21)
(1.16163 -0.031638 3.95676e-22)
(1.16319 -0.028987 8.08483e-22)
(1.16471 -0.0263013 -1.52105e-22)
(1.16619 -0.0235807 -9.5714e-22)
(1.16763 -0.0208205 7.29217e-23)
(1.16902 -0.0180264 -2.71329e-22)
(1.17038 -0.0151793 -1.60338e-21)
(1.17171 -0.0123172 -2.82315e-21)
(1.17301 -0.00934259 -3.73336e-21)
(1.17438 -0.00647541 3.76612e-21)
(1.17601 -0.00316928 7.97232e-23)
(1.17022 -0.037175 1.93894e-21)
(1.17204 -0.0341749 -7.58527e-22)
(1.17382 -0.0311319 -6.40365e-22)
(1.17555 -0.0280434 1.70969e-22)
(1.17723 -0.0249095 1.01329e-21)
(1.17888 -0.0217233 1.91364e-21)
(1.18048 -0.0184931 -1.19092e-21)
(1.18204 -0.015192 2.17958e-21)
(1.18357 -0.0118722 -8.40162e-22)
(1.18509 -0.00840289 -9.92177e-22)
(1.18669 -0.00507287 -4.20921e-21)
(1.18861 -0.00118226 -8.72368e-22)
(1.18107 -0.0402626 -1.52167e-21)
(1.18313 -0.0368452 1.25571e-21)
(1.18515 -0.0333737 2.21108e-21)
(1.18711 -0.0298446 1.20428e-21)
(1.18904 -0.0262581 -6.96495e-22)
(1.19091 -0.0226046 -2.89872e-21)
(1.19275 -0.0188959 4.58015e-21)
(1.19454 -0.0150953 -1.24581e-21)
(1.19631 -0.0112734 2.81058e-21)
(1.19808 -0.00725768 -2.05601e-21)
(1.19994 -0.00342029 2.8651e-21)
(1.20222 0.00111847 2.63902e-21)
(1.19257 -0.0435366 -2.26486e-22)
(1.1949 -0.0396651 -1.65693e-21)
(1.19718 -0.0357276 -2.12208e-21)
(1.19942 -0.031719 4.28334e-22)
(1.2016 -0.0276399 3.59446e-21)
(1.20374 -0.0234774 -2.05015e-21)
(1.20584 -0.0192477 4.70556e-22)
(1.20791 -0.0149018 -6.70105e-21)
(1.20995 -0.0105329 -1.03165e-21)
(1.21199 -0.00591874 4.70751e-21)
(1.21416 -0.00152999 7.67249e-23)
(1.21684 0.00371965 -5.41228e-21)
(1.20471 -0.0470059 1.00863e-22)
(1.20734 -0.0426442 6.33504e-22)
(1.20992 -0.0382032 2.19364e-21)
(1.21245 -0.0336762 -1.67588e-21)
(1.21493 -0.029065 -3.78744e-21)
(1.21737 -0.0243521 1.85783e-21)
(1.21977 -0.0195602 1.43622e-21)
(1.22214 -0.0146242 9.80651e-21)
(1.22448 -0.00966573 5.45183e-22)
(1.22685 -0.00440221 -4.72701e-21)
(1.22936 0.000580357 8.25533e-22)
(1.23251 0.0066008 -1.19016e-21)
(1.21749 -0.0506806 -4.1889e-22)
(1.22045 -0.0457912 4.12535e-22)
(1.22336 -0.0408086 -5.20057e-22)
(1.22622 -0.0357235 2.64735e-21)
(1.22902 -0.0305403 7.12754e-21)
(1.23179 -0.0252348 7.28268e-21)
(1.23452 -0.0198397 -1.09975e-20)
(1.23723 -0.0142697 1.6663e-21)
(1.23992 -0.00868248 5.80458e-21)
(1.24267 -0.00272283 1.17588e-20)
(1.24556 0.00289071 -1.90282e-21)
(1.24927 0.00973618 2.80572e-21)
(1.23091 -0.0545614 1.57964e-21)
(1.23423 -0.0491057 1.00188e-21)
(1.2375 -0.0435439 -3.50853e-21)
(1.24071 -0.0378625 -2.22868e-21)
(1.24388 -0.0320703 -2.76436e-21)
(1.247 -0.0261324 6.21437e-22)
(1.2501 -0.0200964 6.48963e-21)
(1.25319 -0.0138481 -5.59045e-21)
(1.25626 -0.00759468 -2.91275e-21)
(1.25944 -0.000892374 -1.25532e-20)
(1.26277 0.00538318 3.66043e-21)
(1.26712 0.0131019 1.36636e-20)
(1.24496 -0.0586381 3.04205e-21)
(1.24867 -0.0525776 -8.84472e-22)
(1.25232 -0.0463993 2.07257e-21)
(1.25592 -0.0400836 1.17533e-21)
(1.25948 -0.0336489 -7.72398e-21)
(1.26301 -0.0270433 -1.42786e-20)
(1.26653 -0.0203394 1.01331e-20)
(1.27004 -0.0133766 8.79806e-22)
(1.27356 -0.00643115 -5.85454e-21)
(1.27722 0.00106166 1.21577e-20)
(1.28105 0.00802618 6.59364e-21)
(1.28611 0.0166721 -3.67888e-21)
(1.25965 -0.0628984 -9.51931e-22)
(1.26377 -0.056195 -1.88067e-21)
(1.26784 -0.049364 -1.3596e-21)
(1.27185 -0.0423755 -2.40576e-21)
(1.27586 -0.035264 -4.84058e-21)
(1.2798 -0.0279505 6.87128e-21)
(1.28381 -0.0205539 -1.84535e-20)
(1.28778 -0.012841 -1.04751e-20)
(1.29186 -0.00519821 5.42836e-21)
(1.29602 0.00312466 -1.2574e-20)
(1.30044 0.0107825 -1.33863e-20)
(1.3062 0.0204237 -1.76739e-20)
(1.27499 -0.0673164 -5.21899e-21)
(1.27954 -0.0599344 3.74915e-21)
(1.28409 -0.0524199 3.63467e-21)
(1.28854 -0.0447286 -2.21067e-21)
(1.29306 -0.0369157 2.40651e-21)
(1.29744 -0.0288577 9.3776e-21)
(1.30201 -0.0207411 2.70599e-20)
(1.30638 -0.0122195 2.26131e-20)
(1.3111 -0.00386303 -1.48541e-20)
(1.31566 0.00535533 1.05606e-20)
(1.32082 0.0136854 1.91326e-21)
(1.327 0.0244088 1.2788e-20)
(1.29102 -0.0718629 1.92503e-21)
(1.29605 -0.0637673 -8.51798e-21)
(1.3011 -0.0555371 -1.42192e-20)
(1.30602 -0.0471184 -9.60824e-21)
(1.31112 -0.0385879 2.5697e-20)
(1.31595 -0.0297726 -1.13052e-20)
(1.32118 -0.0209361 -2.17132e-20)
(1.32584 -0.0115668 -1.31536e-20)
(1.33128 -0.00248217 5.61463e-21)
(1.33577 0.00775286 3.03403e-21)
(1.34171 0.0167611 -1.2508e-20)
(1.34747 0.0287338 -1.19477e-20)
(1.30782 -0.0765084 5.11258e-22)
(1.31335 -0.0676639 1.80522e-21)
(1.31892 -0.0586766 8.6989e-21)
(1.3243 -0.0494959 -4.33664e-22)
(1.32994 -0.0402015 -9.08393e-21)
(1.33509 -0.0306044 -1.54429e-20)
(1.341 -0.0210278 3.79482e-21)
(1.34564 -0.0108167 -2.18443e-22)
(1.35191 -0.00104197 1.46979e-20)
(1.35553 0.010265 5.55863e-21)
(1.36227 0.0199292 1.56689e-20)
(1.36576 0.0334018 7.19572e-22)
(1.32545 -0.0811624 5.86217e-21)
(1.33146 -0.0715262 3.4682e-22)
(1.3375 -0.0617336 2.39754e-20)
(1.34324 -0.0517547 1.94262e-20)
(1.34925 -0.0416244 -1.7259e-20)
(1.35442 -0.0311984 6.99118e-21)
(1.36063 -0.0207543 -6.11879e-21)
(1.36453 -0.00965526 5.66512e-21)
(1.37131 0.000906162 -7.8874e-21)
(1.37268 0.0132649 8.04923e-21)
(1.38028 0.023494 -1.91396e-20)
(1.37846 0.0385769 2.27049e-20)
(1.34378 -0.0856257 -1.19625e-20)
(1.35012 -0.0751204 8.84917e-21)
(1.35638 -0.0644563 -2.03343e-20)
(1.36224 -0.0536423 8.82435e-21)
(1.36824 -0.0426335 3.27051e-20)
(1.37308 -0.0313992 8.24639e-21)
(1.37891 -0.0199894 1.41574e-20)
(1.38118 -0.00803243 -5.03542e-21)
(1.38725 0.0036238 9.05492e-22)
(1.38398 0.0170255 -1.38816e-20)
(1.3915 0.0280719 2.56404e-20)
(1.37965 0.0446289 -1.31482e-20)
(1.36238 -0.0897509 3.36256e-21)
(1.36869 -0.0782808 -1.65227e-20)
(1.37472 -0.0666773 1.14227e-21)
(1.38021 -0.0549813 -2.96617e-20)
(1.38547 -0.0430932 -1.9066e-20)
(1.38938 -0.0311166 -1.06606e-20)
(1.39363 -0.0188195 1.59782e-23)
(1.39358 -0.00631212 -8.88407e-21)
(1.39692 0.00647572 2.81366e-20)
(1.38689 0.0203652 8.90426e-21)
(1.39143 0.0328219 -1.87135e-20)
(1.36273 0.0502118 -6.92933e-21)
(1.38045 -0.0936846 1.10078e-20)
(1.38626 -0.0812267 3.20765e-21)
(1.39146 -0.0686815 -1.27037e-20)
(1.39585 -0.0560796 2.2422e-20)
(1.39928 -0.0433281 -2.48102e-20)
(1.40102 -0.0305616 -8.64224e-21)
(1.40152 -0.0174542 5.16733e-21)
(1.39754 -0.00450054 -3.68943e-21)
(1.39419 0.00915979 -3.68825e-20)
(1.37633 0.0225152 -3.59318e-20)
(1.37258 0.0363098 1.25394e-20)
(1.32167 0.0519332 -1.31367e-20)
(1.39667 -0.0970761 -3.46219e-21)
(1.40136 -0.0836151 -1.57326e-21)
(1.40492 -0.0700997 6.80474e-21)
(1.40701 -0.0565177 -1.40956e-20)
(1.40708 -0.0428161 3.59498e-20)
(1.40443 -0.0290311 2.78688e-20)
(1.39816 -0.0149926 -1.82322e-20)
(1.38661 -0.00108465 2.14466e-20)
(1.37028 0.0133853 2.26959e-20)
(1.34145 0.02664 9.72722e-21)
(1.31767 0.0411183 4.22698e-21)
(1.24607 0.0515338 3.53401e-20)
(1.09263 -0.000721872 0)
(1.09341 -0.000472941 0)
(1.09406 -0.000290563 0)
(1.09436 -7.00755e-05 0)
(1.09427 -4.32741e-06 0)
(1.09442 0.000158146 0)
(1.09355 8.2541e-05 0)
(1.09427 0.000185801 0)
(1.09253 6.17766e-06 0)
(1.09458 8.84501e-05 0)
(1.09172 -5.23762e-05 0)
(1.09537 0.000139608 0)
(1.09047 0.000298631 0)
(1.0946 0.000773111 0)
(1.08576 0.00153169 0)
(1.08699 0.00213614 0)
(1.0728 0.0036167 0)
(1.06563 0.00351732 0)
(1.0499 0.0054117 0)
(1.02958 0.00385367 0)
(1.02275 0.00437663 0)
(0.996845 0.00290976 0)
(0.999925 -0.0024749 0)
(1.01565 -0.00419913 0)
(1.03486 -0.0078945 0)
(1.09113 -0.0034668 0)
(1.06732 -0.00253465 0)
(1.11821 0.000850514 0)
(1.05708 0.00682144 0)
(1.04356 0.00100744 0)
(1.09384 -0.00208028 0)
(1.09457 -0.00133441 0)
(1.09514 -0.000790031 0)
(1.09531 -0.000131615 0)
(1.0951 5.88705e-05 0)
(1.09514 0.000537526 0)
(1.09414 0.000297215 0)
(1.09482 0.000586609 0)
(1.09299 2.28036e-05 0)
(1.09512 0.000234647 0)
(1.09229 -0.000217886 0)
(1.09619 0.000325101 0)
(1.09148 0.000771267 0)
(1.09597 0.0021991 0)
(1.08727 0.00444909 0)
(1.08872 0.00632213 0)
(1.07432 0.0107365 0)
(1.06691 0.0105065 0)
(1.05081 0.0162109 0)
(1.02924 0.0115368 0)
(1.02271 0.0132743 0)
(0.994123 0.00897341 0)
(0.996762 -0.00742347 0)
(1.01387 -0.0128536 0)
(1.03572 -0.0238366 0)
(1.09403 -0.0104745 0)
(1.06958 -0.00753302 0)
(1.12208 0.00267637 0)
(1.05786 0.0205896 0)
(1.04191 0.00324188 0)
(1.09611 -0.00328357 0)
(1.09675 -0.00202306 0)
(1.09714 -0.0011097 0)
(1.0971 -9.50998e-06 0)
(1.09662 0.00029613 0)
(1.09647 0.00107385 0)
(1.09518 0.000634834 0)
(1.09579 0.00105232 0)
(1.09376 4.45273e-05 0)
(1.09607 0.000281012 0)
(1.09331 -0.000554141 0)
(1.09768 0.000240751 0)
(1.09338 0.000913548 0)
(1.09851 0.00330045 0)
(1.09017 0.00703474 0)
(1.09195 0.0103337 0)
(1.07729 0.0176851 0)
(1.06927 0.017488 0)
(1.05262 0.0271229 0)
(1.02859 0.0192794 0)
(1.02271 0.022703 0)
(0.988978 0.0158268 0)
(0.99034 -0.0124859 0)
(1.01046 -0.0223703 0)
(1.03726 -0.0404058 0)
(1.09971 -0.0177784 0)
(1.07398 -0.0123785 0)
(1.12908 0.00487867 0)
(1.05979 0.034904 0)
(1.03859 0.00610019 0)
(1.09935 -0.00428677 0)
(1.09985 -0.00246669 0)
(1.09998 -0.00116067 0)
(1.09961 0.000404243 0)
(1.09873 0.000813571 0)
(1.09829 0.00187468 0)
(1.09656 0.00118181 0)
(1.09706 0.00164114 0)
(1.09472 9.70142e-05 0)
(1.09726 0.000197524 0)
(1.09461 -0.00113275 0)
(1.09967 -0.000257022 0)
(1.09604 0.000580653 0)
(1.10208 0.00392279 0)
(1.09445 0.00921934 0)
(1.0965 0.0141665 0)
(1.08177 0.0245684 0)
(1.07253 0.0246267 0)
(1.0554 0.0384239 0)
(1.02768 0.027306 0)
(1.02286 0.0331055 0)
(0.981652 0.024135 0)
(0.980183 -0.0178471 0)
(1.00555 -0.0334152 0)
(1.03915 -0.058334 0)
(1.10831 -0.0256828 0)
(1.0805 -0.0170114 0)
(1.13827 0.0075736 0)
(1.06377 0.0502876 0)
(1.03345 0.0100929 0)
(1.10348 -0.00503903 0)
(1.10381 -0.00259376 0)
(1.10356 -0.000858512 0)
(1.10276 0.00121121 0)
(1.10131 0.00170997 0)
(1.10048 0.00303911 0)
(1.09813 0.00201947 0)
(1.09847 0.0024103 0)
(1.09567 0.000195021 0)
(1.09853 -6.74228e-05 0)
(1.09602 -0.00203919 0)
(1.10198 -0.00131953 0)
(1.09934 -0.000372477 0)
(1.10656 0.00390119 0)
(1.10011 0.0109422 0)
(1.10224 0.0177939 0)
(1.08783 0.0314699 0)
(1.07654 0.0320629 0)
(1.05921 0.050273 0)
(1.02663 0.0358153 0)
(1.02328 0.0448129 0)
(0.972412 0.0346172 0)
(0.965613 -0.0235968 0)
(0.999028 -0.0465557 0)
(1.04077 -0.0784245 0)
(1.12017 -0.0344265 0)
(1.08917 -0.0211952 0)
(1.14848 0.0106282 0)
(1.07107 0.0670632 0)
(1.0264 0.0158724 0)
(1.10847 -0.00551237 0)
(1.10858 -0.0023528 0)
(1.10783 -0.000144811 0)
(1.10647 0.00249545 0)
(1.10428 0.00307828 0)
(1.10295 0.00466522 0)
(1.09976 0.00323314 0)
(1.09986 0.00342363 0)
(1.09645 0.000369733 0)
(1.09965 -0.000539101 0)
(1.09735 -0.00334402 0)
(1.10443 -0.00308557 0)
(1.10318 -0.00211539 0)
(1.11186 0.00305559 0)
(1.10717 0.0121566 0)
(1.1091 0.0211761 0)
(1.09555 0.0384673 0)
(1.08124 0.0399185 0)
(1.06405 0.0627399 0)
(1.02567 0.0449563 0)
(1.02405 0.0580788 0)
(0.961625 0.0480501 0)
(0.945967 -0.0296397 0)
(0.989982 -0.062273 0)
(1.0411 -0.101535 0)
(1.13531 -0.0442668 0)
(1.09988 -0.0245176 0)
(1.15877 0.0137072 0)
(1.08256 0.0853435 0)
(1.01786 0.0241587 0)
(1.11428 -0.00566434 0)
(1.11411 -0.00167577 0)
(1.11274 0.00107198 0)
(1.1107 0.00435399 0)
(1.10756 0.00502092 0)
(1.10556 0.00686033 0)
(1.10132 0.0049205 0)
(1.10105 0.00475837 0)
(1.09686 0.0006708 0)
(1.1004 -0.00121236 0)
(1.0984 -0.00511228 0)
(1.10682 -0.00567853 0)
(1.10741 -0.00482596 0)
(1.11799 0.00119695 0)
(1.11564 0.0128157 0)
(1.11712 0.0242792 0)
(1.10491 0.0456241 0)
(1.08667 0.0483119 0)
(1.06978 0.0758191 0)
(1.02511 0.0547964 0)
(1.0253 0.0730807 0)
(0.949978 0.0652136 0)
(0.920767 -0.0354381 0)
(0.975593 -0.0808484 0)
(1.03775 -0.128628 0)
(1.15214 -0.0555693 0)
(1.11217 -0.0266176 0)
(1.16874 0.0164303 0)
(1.09794 0.105048 0)
(1.00892 0.0354659 0)
(1.12092 -0.00546535 0)
(1.12041 -0.000524528 0)
(1.11826 0.00287316 0)
(1.11537 0.00688163 0)
(1.11108 0.00764455 0)
(1.10823 0.00973314 0)
(1.10269 0.00719277 0)
(1.10186 0.00650127 0)
(1.09675 0.00114889 0)
(1.10052 -0.0020917 0)
(1.09897 -0.00741719 0)
(1.10893 -0.00922372 0)
(1.1119 -0.00870929 0)
(1.12496 -0.00185821 0)
(1.12552 0.0128635 0)
(1.12641 0.0270923 0)
(1.1158 0.0529924 0)
(1.09295 0.0573525 0)
(1.07627 0.0894658 0)
(1.0252 0.065309 0)
(1.0271 0.089836 0)
(0.938819 0.0867846 0)
(0.889999 -0.0395764 0)
(0.950606 -0.102035 0)
(1.02525 -0.160782 0)
(1.16626 -0.0690846 0)
(1.12461 -0.0276244 0)
(1.17836 0.0185165 0)
(1.11568 0.125932 0)
(1.00108 0.0498411 0)
(1.12838 -0.00487547 0)
(1.12747 0.00117204 0)
(1.1244 0.0053256 0)
(1.12045 0.0101704 0)
(1.1148 0.0110629 0)
(1.11085 0.0133991 0)
(1.10378 0.0101681 0)
(1.10211 0.00874734 0)
(1.09593 0.00187277 0)
(1.09977 -0.00316163 0)
(1.09884 -0.0103214 0)
(1.1105 -0.0138479 0)
(1.11653 -0.0140329 0)
(1.13282 -0.00629066 0)
(1.13684 0.0122287 0)
(1.13716 0.0296424 0)
(1.12807 0.0606235 0)
(1.1002 0.0671237 0)
(1.0834 0.103636 0)
(1.02598 0.0764063 0)
(1.02959 0.108012 0)
(0.929953 0.113228 0)
(0.855192 -0.0394098 0)
(0.910214 -0.124433 0)
(0.995814 -0.19894 0)
(1.17049 -0.0862278 0)
(1.13431 -0.0285707 0)
(1.18717 0.0196693 0)
(1.13379 0.147623 0)
(0.995511 0.0668392 0)
(1.1367 -0.00386375 0)
(1.13529 0.00347839 0)
(1.13115 0.00851053 0)
(1.12592 0.0143088 0)
(1.11869 0.0153882 0)
(1.11335 0.0179759 0)
(1.10448 0.0139756 0)
(1.10164 0.0116046 0)
(1.0942 0.00293753 0)
(1.0979 -0.00439064 0)
(1.09776 -0.0138683 0)
(1.11127 -0.0196865 0)
(1.12118 -0.0210943 0)
(1.14162 -0.0122891 0)
(1.14969 0.0108323 0)
(1.14954 0.0320008 0)
(1.14152 0.0685852 0)
(1.10854 0.0776542 0)
(1.09108 0.118345 0)
(1.02728 0.0879436 0)
(1.03319 0.12686 0)
(0.924367 0.144489 0)
(0.821274 -0.0320089 0)
(0.85726 -0.145314 0)
(0.946282 -0.2429 0)
(1.15835 -0.108702 0)
(1.13758 -0.0313108 0)
(1.19389 0.0193847 0)
(1.15055 0.169628 0)
(0.992648 0.0857165 0)
(1.14591 -0.00241019 0)
(1.1439 0.00641627 0)
(1.13852 0.0124963 0)
(1.13177 0.0193829 0)
(1.12273 0.0207289 0)
(1.11565 0.0235824 0)
(1.1047 0.0187501 0)
(1.10031 0.0151955 0)
(1.09137 0.00443261 0)
(1.09469 -0.00573768 0)
(1.09545 -0.0180684 0)
(1.11092 -0.0269026 0)
(1.12575 -0.0302269 0)
(1.15142 -0.0200706 0)
(1.16423 0.00859007 0)
(1.1637 0.0342943 0)
(1.15591 0.0769569 0)
(1.11821 0.0889322 0)
(1.09893 0.133691 0)
(1.02919 0.0996889 0)
(1.03839 0.145517 0)
(0.921258 0.179568 0)
(0.796479 -0.0166178 0)
(0.80592 -0.161764 0)
(0.885332 -0.290286 0)
(1.12909 -0.137276 0)
(1.13205 -0.0376957 0)
(1.19697 0.0170317 0)
(1.16478 0.191368 0)
(0.992238 0.105688 0)
(1.15604 -0.000518773 0)
(1.15333 0.01002 0)
(1.14654 0.017346 0)
(1.13799 0.0254768 0)
(1.12691 0.0271946 0)
(1.11773 0.0303483 0)
(1.10437 0.024618 0)
(1.098 0.0196543 0)
(1.08723 0.00646851 0)
(1.08997 -0.0071291 0)
(1.09157 -0.0228828 0)
(1.10916 -0.035699 0)
(1.13015 -0.041783 0)
(1.1623 -0.0298808 0)
(1.18073 0.00542305 0)
(1.17975 0.0367195 0)
(1.17101 0.085792 0)
(1.12951 0.100981 0)
(1.10613 0.149804 0)
(1.0324 0.111263 0)