/*--------------------------------*- C++ -*----------------------------------*\
  =========                 |
  \\      /  F ield         | OpenFOAM: The Open Source CFD Toolbox
   \\    /   O peration     | Website:  https://openfoam.org
    \\  /    A nd           | Version:  7
     \\/     M anipulation  |
\*---------------------------------------------------------------------------*/
FoamFile
{
    version     2.0;
    format      ascii;
    class       volScalarField;
    location    "25";
    object      p;
}
// * * * * * * * * * * * * * * * * * * * * * * * * * * * * * * * * * * * * * //

dimensions      [0 2 -2 0 0 0 0];

internalField   nonuniform List<scalar> 
8500
(
-0.291391
-0.293354
-0.294274
-0.295016
-0.29565
-0.296199
-0.296688
-0.297132
-0.297505
-0.297862
-0.291586
-0.293527
-0.294435
-0.295164
-0.295784
-0.296319
-0.296792
-0.297219
-0.297572
-0.297896
-0.291971
-0.293871
-0.294754
-0.295457
-0.296051
-0.296557
-0.296998
-0.297389
-0.297701
-0.297956
-0.292543
-0.294381
-0.295226
-0.295891
-0.296444
-0.296905
-0.297296
-0.297634
-0.297883
-0.298023
-0.293293
-0.295052
-0.295847
-0.296459
-0.296956
-0.297357
-0.297679
-0.29794
-0.298105
-0.298071
-0.294211
-0.295874
-0.296607
-0.297153
-0.297578
-0.297902
-0.298134
-0.298293
-0.298355
-0.298064
-0.295287
-0.29684
-0.297498
-0.297963
-0.2983
-0.298529
-0.298648
-0.298676
-0.29862
-0.297957
-0.29651
-0.297941
-0.298512
-0.298881
-0.299113
-0.299228
-0.299211
-0.299073
-0.298892
-0.297692
-0.29787
-0.299168
-0.299639
-0.299897
-0.300007
-0.29999
-0.299814
-0.299469
-0.299172
-0.297172
-0.299359
-0.300514
-0.300872
-0.301003
-0.300974
-0.300807
-0.300453
-0.299857
-0.299488
-0.296319
-0.30097
-0.301974
-0.302205
-0.302191
-0.302005
-0.301673
-0.301124
-0.300229
-0.299855
-0.295433
-0.3027
-0.303543
-0.303632
-0.303456
-0.303096
-0.302582
-0.301829
-0.300587
-0.299975
-0.294528
-0.304549
-0.305222
-0.305152
-0.304793
-0.30424
-0.303531
-0.302571
-0.301089
-0.300042
-0.293316
-0.306522
-0.307014
-0.306765
-0.3062
-0.305434
-0.304516
-0.303328
-0.301615
-0.300208
-0.291847
-0.308629
-0.308926
-0.308475
-0.307677
-0.306673
-0.30553
-0.304109
-0.302168
-0.30043
-0.290256
-0.310885
-0.31097
-0.310289
-0.309228
-0.307958
-0.306567
-0.304902
-0.30277
-0.300624
-0.288744
-0.313314
-0.313164
-0.31222
-0.310861
-0.30929
-0.307624
-0.305688
-0.303434
-0.30064
-0.287478
-0.315946
-0.315531
-0.314288
-0.312593
-0.310683
-0.308706
-0.306456
-0.304178
-0.30025
-0.286364
-0.318818
-0.318096
-0.316525
-0.314448
-0.312156
-0.309833
-0.307227
-0.305051
-0.299397
-0.285704
-0.32198
-0.320899
-0.318959
-0.316458
-0.313745
-0.311038
-0.308042
-0.306023
-0.298593
-0.289384
-0.325483
-0.323986
-0.32163
-0.318665
-0.315493
-0.312367
-0.308947
-0.306838
-0.29839
-0.303411
-0.32938
-0.327405
-0.324586
-0.321121
-0.317455
-0.31387
-0.309999
-0.307394
-0.298872
-0.302618
-0.333735
-0.331205
-0.327878
-0.323879
-0.319691
-0.315601
-0.311237
-0.3078
-0.299374
-0.299833
-0.33861
-0.335436
-0.331557
-0.326995
-0.322258
-0.31761
-0.312669
-0.308225
-0.299645
-0.297069
-0.344062
-0.340151
-0.335678
-0.330524
-0.325205
-0.319931
-0.314289
-0.308703
-0.299625
-0.294184
-0.350142
-0.345396
-0.340291
-0.334516
-0.328571
-0.322578
-0.316081
-0.309207
-0.299253
-0.291314
-0.356895
-0.351214
-0.345443
-0.339015
-0.332377
-0.325547
-0.318012
-0.30967
-0.298516
-0.288393
-0.364352
-0.357643
-0.351174
-0.344051
-0.336628
-0.328812
-0.320018
-0.310007
-0.297405
-0.285356
-0.372532
-0.364709
-0.357514
-0.34964
-0.34131
-0.332318
-0.322004
-0.310125
-0.295911
-0.282131
-0.381435
-0.372425
-0.364476
-0.355773
-0.346384
-0.335977
-0.323857
-0.309933
-0.294022
-0.278654
-0.39104
-0.380786
-0.372054
-0.362419
-0.351776
-0.339663
-0.325452
-0.309352
-0.291716
-0.274867
-0.401301
-0.389766
-0.380212
-0.369513
-0.357374
-0.343221
-0.326664
-0.30831
-0.288965
-0.270718
-0.412141
-0.39931
-0.388879
-0.376952
-0.363018
-0.346482
-0.327375
-0.306738
-0.285733
-0.266155
-0.423452
-0.409327
-0.397949
-0.38459
-0.368511
-0.349268
-0.327472
-0.304573
-0.281977
-0.261128
-0.435085
-0.419689
-0.407273
-0.392233
-0.37363
-0.351407
-0.32685
-0.301749
-0.277646
-0.255588
-0.446854
-0.430227
-0.416657
-0.399641
-0.378137
-0.352732
-0.325407
-0.2982
-0.272686
-0.249483
-0.458534
-0.440729
-0.425865
-0.406538
-0.381794
-0.353085
-0.323048
-0.293859
-0.26704
-0.242765
-0.46986
-0.450944
-0.434621
-0.412627
-0.384368
-0.35232
-0.319678
-0.288657
-0.260648
-0.235387
-0.480535
-0.460586
-0.442608
-0.417601
-0.385641
-0.3503
-0.315208
-0.282523
-0.253451
-0.227307
-0.490234
-0.469338
-0.449489
-0.421159
-0.38541
-0.346899
-0.309553
-0.275391
-0.245392
-0.218486
-0.498611
-0.476859
-0.454911
-0.423016
-0.383491
-0.342002
-0.302631
-0.267195
-0.236417
-0.20889
-0.505311
-0.482798
-0.458527
-0.422911
-0.379721
-0.335507
-0.294369
-0.257876
-0.226482
-0.198493
-0.509977
-0.486797
-0.460005
-0.420611
-0.373962
-0.327324
-0.284699
-0.247378
-0.21555
-0.187282
-0.512265
-0.488511
-0.45904
-0.415917
-0.366097
-0.317378
-0.273562
-0.23565
-0.203586
-0.17524
-0.511849
-0.48761
-0.45537
-0.408668
-0.356034
-0.305609
-0.260911
-0.22265
-0.190545
-0.162299
-0.508435
-0.483798
-0.448774
-0.398739
-0.343709
-0.29198
-0.24672
-0.208355
-0.176379
-0.14828
-0.501768
-0.47682
-0.439083
-0.386048
-0.329086
-0.276469
-0.230975
-0.192762
-0.16108
-0.132993
-0.491637
-0.466472
-0.426172
-0.370549
-0.312151
-0.25907
-0.213663
-0.175876
-0.14472
-0.116587
-0.477885
-0.452609
-0.40997
-0.352232
-0.292912
-0.239781
-0.19478
-0.157732
-0.127302
-0.0997261
-0.460408
-0.435141
-0.390453
-0.331126
-0.271398
-0.218608
-0.174391
-0.138478
-0.10874
-0.0822907
-0.439161
-0.414035
-0.367645
-0.3073
-0.247672
-0.195622
-0.152726
-0.11796
-0.0891951
-0.0641514
-0.414155
-0.389317
-0.341623
-0.280861
-0.221847
-0.171063
-0.1296
-0.0962976
-0.0687636
-0.0453118
-0.385458
-0.361083
-0.312549
-0.251898
-0.194016
-0.144894
-0.105177
-0.0735813
-0.0475203
-0.0258515
-0.353193
-0.329509
-0.280687
-0.22041
-0.164288
-0.11722
-0.0795654
-0.0499068
-0.025541
-0.00587568
-0.317541
-0.29483
-0.246165
-0.186565
-0.132795
-0.0881801
-0.0528852
-0.0253736
-0.00290323
0.0145311
-0.278737
-0.257275
-0.208409
-0.151165
-0.099801
-0.0579307
-0.0252648
-8.42023e-05
0.0203121
0.0352774
-0.236999
-0.21699
-0.16839
-0.113991
-0.0655014
-0.0266441
0.00316677
0.0258668
0.0439677
0.0560249
-0.19258
-0.17394
-0.126884
-0.0753033
-0.03008
0.00550821
0.0322976
0.0524017
0.067791
0.0759616
-0.145904
-0.1288
-0.0838873
-0.0353955
0.00625388
0.0383567
0.0620233
0.0794247
0.0914589
0.0945287
-0.0973943
-0.081915
-0.0396017
0.00544601
0.0432671
0.0717183
0.0921875
0.106706
0.114883
0.113462
-0.0473718
-0.0337266
0.00566221
0.0469353
0.0807171
0.105387
0.122543
0.133846
0.13803
0.137579
0.00374277
0.0153559
0.0515523
0.0887788
0.118355
0.13914
0.152826
0.160709
0.161752
0.161848
0.0555105
0.0649283
0.0977039
0.130675
0.155928
0.17275
0.182865
0.187363
0.185734
0.184892
0.107488
0.114582
0.14375
0.172319
0.193173
0.205988
0.212486
0.213682
0.209548
0.207024
0.159231
0.163904
0.189327
0.213405
0.229834
0.238633
0.24152
0.239493
0.23286
0.228234
0.210296
0.212486
0.234075
0.253631
0.265653
0.270468
0.269789
0.264617
0.255483
0.248555
0.260244
0.259923
0.277642
0.292699
0.300378
0.301282
0.297113
0.28888
0.277263
0.267944
0.30865
0.305821
0.319688
0.330322
0.333766
0.330868
0.323314
0.312121
0.298075
0.286343
0.3551
0.349801
0.359884
0.366222
0.365583
0.359026
0.348221
0.334194
0.317799
0.303678
0.399198
0.3915
0.397919
0.400137
0.395603
0.385565
0.371672
0.354957
0.336322
0.319873
0.440569
0.430574
0.433497
0.431816
0.423616
0.410307
0.393514
0.374281
0.353536
0.334854
0.478864
0.466704
0.466344
0.461027
0.449424
0.433081
0.413603
0.392043
0.369339
0.348549
0.513758
0.499596
0.496206
0.487556
0.472844
0.453735
0.431807
0.408131
0.383637
0.360891
0.544958
0.528981
0.522855
0.51121
0.493712
0.472125
0.448008
0.422442
0.396344
0.371821
0.572203
0.554623
0.546086
0.531814
0.51188
0.488128
0.462098
0.434884
0.407383
0.381286
0.595263
0.576314
0.565723
0.549218
0.52722
0.501635
0.473985
0.445378
0.416686
0.389241
0.613946
0.59388
0.581614
0.563297
0.539624
0.512552
0.48359
0.453855
0.424198
0.39565
0.628096
0.607178
0.59364
0.573946
0.549004
0.520806
0.49085
0.460262
0.429873
0.400481
0.637595
0.616104
0.601708
0.581089
0.555295
0.52634
0.495717
0.464556
0.433675
0.403714
0.642365
0.620585
0.605757
0.584673
0.558451
0.529116
0.498159
0.466711
0.435582
0.405334
0.642365
0.620585
0.605757
0.584673
0.558451
0.529116
0.498159
0.466711
0.435582
0.405334
0.637595
0.616104
0.601708
0.581089
0.555295
0.52634
0.495717
0.464556
0.433675
0.403714
0.628096
0.607178
0.59364
0.573946
0.549004
0.520806
0.49085
0.460262
0.429873
0.400481
0.613946
0.59388
0.581614
0.563297
0.539624
0.512552
0.48359
0.453855
0.424198
0.39565
0.595263
0.576314
0.565723
0.549218
0.52722
0.501635
0.473985
0.445378
0.416686
0.389241
0.572203
0.554623
0.546086
0.531814
0.51188
0.488128
0.462098
0.434884
0.407383
0.381286
0.544958
0.528981
0.522855
0.51121
0.493712
0.472125
0.448008
0.422442
0.396344
0.371821
0.513758
0.499596
0.496206
0.487556
0.472844
0.453735
0.431807
0.408131
0.383637
0.360891
0.478864
0.466704
0.466344
0.461027
0.449424
0.433081
0.413603
0.392043
0.369339
0.348549
0.440569
0.430574
0.433497
0.431816
0.423616
0.410307
0.393514
0.374281
0.353536
0.334854
0.399198
0.3915
0.397919
0.400137
0.395603
0.385565
0.371672
0.354957
0.336322
0.319874
0.3551
0.349801
0.359884
0.366222
0.365583
0.359026
0.348221
0.334194
0.317799
0.303678
0.30865
0.305821
0.319688
0.330322
0.333766
0.330868
0.323314
0.312122
0.298075
0.286343
0.260244
0.259923
0.277642
0.292699
0.300378
0.301282
0.297113
0.28888
0.277263
0.267944
0.210296
0.212486
0.234075
0.253631
0.265653
0.270468
0.269789
0.264617
0.255483
0.248555
0.159231
0.163904
0.189327
0.213405
0.229834
0.238633
0.24152
0.239494
0.23286
0.228234
0.107488
0.114582
0.14375
0.172319
0.193174
0.205988
0.212486
0.213682
0.209548
0.207024
0.0555106
0.0649284
0.097704
0.130675
0.155928
0.17275
0.182865
0.187363
0.185734
0.184892
0.00374287
0.015356
0.0515524
0.0887789
0.118356
0.13914
0.152826
0.160709
0.161752
0.161848
-0.0473717
-0.0337265
0.00566231
0.0469354
0.0807172
0.105387
0.122543
0.133846
0.138031
0.137579
-0.0973942
-0.0819149
-0.0396016
0.0054461
0.0432672
0.0717183
0.0921876
0.106706
0.114883
0.113462
-0.145904
-0.1288
-0.0838871
-0.0353954
0.00625396
0.0383568
0.0620234
0.0794247
0.0914589
0.0945287
-0.19258
-0.173939
-0.126883
-0.0753032
-0.0300799
0.0055083
0.0322976
0.0524017
0.0677911
0.0759617
-0.236999
-0.21699
-0.16839
-0.113991
-0.0655013
-0.026644
0.00316686
0.0258669
0.0439677
0.056025
-0.278737
-0.257275
-0.208409
-0.151164
-0.0998009
-0.0579306
-0.0252648
-8.41237e-05
0.0203122
0.0352775
-0.317541
-0.29483
-0.246165
-0.186565
-0.132795
-0.08818
-0.0528851
-0.0253735
-0.00290315
0.0145312
-0.353193
-0.329509
-0.280687
-0.22041
-0.164288
-0.11722
-0.0795653
-0.0499067
-0.025541
-0.0058756
-0.385458
-0.361083
-0.312549
-0.251898
-0.194016
-0.144894
-0.105177
-0.0735812
-0.0475202
-0.0258515
-0.414155
-0.389317
-0.341623
-0.280861
-0.221847
-0.171063
-0.1296
-0.0962975
-0.0687636
-0.0453118
-0.439161
-0.414035
-0.367645
-0.3073
-0.247672
-0.195621
-0.152726
-0.11796
-0.089195
-0.0641513
-0.460408
-0.43514
-0.390453
-0.331126
-0.271398
-0.218608
-0.174391
-0.138478
-0.10874
-0.0822906
-0.477885
-0.452609
-0.40997
-0.352232
-0.292912
-0.239781
-0.19478
-0.157732
-0.127302
-0.099726
-0.491637
-0.466472
-0.426172
-0.370549
-0.312151
-0.25907
-0.213663
-0.175876
-0.14472
-0.116587
-0.501768
-0.47682
-0.439082
-0.386048
-0.329086
-0.276469
-0.230975
-0.192762
-0.16108
-0.132993
-0.508435
-0.483798
-0.448774
-0.398739
-0.343709
-0.29198
-0.24672
-0.208355
-0.176378
-0.14828
-0.511849
-0.48761
-0.45537
-0.408668
-0.356034
-0.305609
-0.260911
-0.22265
-0.190545
-0.162299
-0.512264
-0.488511
-0.45904
-0.415917
-0.366096
-0.317378
-0.273562
-0.23565
-0.203586
-0.17524
-0.509977
-0.486797
-0.460004
-0.420611
-0.373962
-0.327324
-0.284699
-0.247378
-0.21555
-0.187281
-0.50531
-0.482798
-0.458527
-0.422911
-0.379721
-0.335507
-0.294369
-0.257876
-0.226482
-0.198493
-0.498611
-0.476859
-0.454911
-0.423016
-0.383491
-0.342002
-0.302631
-0.267195
-0.236417
-0.20889
-0.490234
-0.469338
-0.449489
-0.421159
-0.38541
-0.346898
-0.309552
-0.275391
-0.245391
-0.218486
-0.480535
-0.460586
-0.442608
-0.417601
-0.385641
-0.3503
-0.315208
-0.282523
-0.253451
-0.227307
-0.46986
-0.450944
-0.43462
-0.412627
-0.384368
-0.35232
-0.319678
-0.288656
-0.260648
-0.235387
-0.458534
-0.440729
-0.425865
-0.406538
-0.381794
-0.353085
-0.323048
-0.293859
-0.26704
-0.242765
-0.446854
-0.430227
-0.416657
-0.399641
-0.378137
-0.352732
-0.325407
-0.2982
-0.272686
-0.249483
-0.435085
-0.419689
-0.407272
-0.392233
-0.37363
-0.351407
-0.326849
-0.301749
-0.277646
-0.255587
-0.423452
-0.409327
-0.397949
-0.38459
-0.368511
-0.349268
-0.327472
-0.304573
-0.281976
-0.261128
-0.412141
-0.39931
-0.388879
-0.376952
-0.363018
-0.346482
-0.327375
-0.306738
-0.285733
-0.266155
-0.4013
-0.389766
-0.380212
-0.369513
-0.357374
-0.343221
-0.326664
-0.30831
-0.288965
-0.270718
-0.39104
-0.380786
-0.372054
-0.362419
-0.351776
-0.339662
-0.325451
-0.309352
-0.291716
-0.274867
-0.381434
-0.372424
-0.364476
-0.355773
-0.346384
-0.335977
-0.323857
-0.309933
-0.294022
-0.278654
-0.372532
-0.364709
-0.357514
-0.34964
-0.34131
-0.332318
-0.322004
-0.310124
-0.295911
-0.282131
-0.364352
-0.357643
-0.351174
-0.344051
-0.336628
-0.328811
-0.320017
-0.310007
-0.297405
-0.285356
-0.356895
-0.351214
-0.345443
-0.339015
-0.332377
-0.325547
-0.318012
-0.30967
-0.298516
-0.288392
-0.350142
-0.345395
-0.340291
-0.334516
-0.328571
-0.322578
-0.316081
-0.309206
-0.299253
-0.291314
-0.344061
-0.34015
-0.335678
-0.330524
-0.325205
-0.31993
-0.314289
-0.308703
-0.299625
-0.294184
-0.33861
-0.335436
-0.331557
-0.326995
-0.322258
-0.31761
-0.312669
-0.308225
-0.299645
-0.297069
-0.333735
-0.331205
-0.327877
-0.323878
-0.319691
-0.315601
-0.311237
-0.3078
-0.299374
-0.299832
-0.32938
-0.327405
-0.324586
-0.321121
-0.317455
-0.31387
-0.309999
-0.307394
-0.298872
-0.302618
-0.325483
-0.323986
-0.32163
-0.318665
-0.315493
-0.312367
-0.308947
-0.306838
-0.29839
-0.303411
-0.32198
-0.320899
-0.318959
-0.316458
-0.313745
-0.311038
-0.308042
-0.306023
-0.298593
-0.289384
-0.318817
-0.318096
-0.316525
-0.314448
-0.312156
-0.309833
-0.307227
-0.305051
-0.299397
-0.285704
-0.315945
-0.315531
-0.314288
-0.312593
-0.310682
-0.308706
-0.306456
-0.304177
-0.30025
-0.286364
-0.313314
-0.313164
-0.31222
-0.310861
-0.30929
-0.307624
-0.305688
-0.303433
-0.30064
-0.287478
-0.310885
-0.31097
-0.310289
-0.309228
-0.307958
-0.306567
-0.304902
-0.30277
-0.300624
-0.288744
-0.308629
-0.308926
-0.308474
-0.307677
-0.306673
-0.30553
-0.304109
-0.302167
-0.30043
-0.290256
-0.306522
-0.307014
-0.306765
-0.3062
-0.305434
-0.304515
-0.303328
-0.301615
-0.300208
-0.291846
-0.304549
-0.305222
-0.305152
-0.304793
-0.30424
-0.303531
-0.30257
-0.301089
-0.300042
-0.293316
-0.302699
-0.303543
-0.303632
-0.303456
-0.303096
-0.302582
-0.301829
-0.300587
-0.299975
-0.294527
-0.300969
-0.301973
-0.302205
-0.302191
-0.302005
-0.301672
-0.301124
-0.300229
-0.299855
-0.295433
-0.299358
-0.300514
-0.300872
-0.301002
-0.300974
-0.300807
-0.300452
-0.299857
-0.299488
-0.296319
-0.29787
-0.299168
-0.299639
-0.299897
-0.300007
-0.29999
-0.299814
-0.299469
-0.299172
-0.297172
-0.296509
-0.297941
-0.298512
-0.298881
-0.299113
-0.299228
-0.299211
-0.299073
-0.298892
-0.297692
-0.295286
-0.29684
-0.297498
-0.297963
-0.2983
-0.298529
-0.298648
-0.298676
-0.29862
-0.297957
-0.294211
-0.295874
-0.296607
-0.297153
-0.297578
-0.297902
-0.298133
-0.298293
-0.298355
-0.298064
-0.293293
-0.295052
-0.295847
-0.296459
-0.296956
-0.297357
-0.297679
-0.29794
-0.298105
-0.298071
-0.292543
-0.294381
-0.295226
-0.295891
-0.296444
-0.296905
-0.297296
-0.297634
-0.297883
-0.298023
-0.291971
-0.293871
-0.294754
-0.295457
-0.296051
-0.296557
-0.296997
-0.297389
-0.297701
-0.297956
-0.291586
-0.293527
-0.294435
-0.295164
-0.295784
-0.296319
-0.296792
-0.297219
-0.297572
-0.297896
-0.291391
-0.293354
-0.294274
-0.295016
-0.29565
-0.296199
-0.296688
-0.297132
-0.297505
-0.297862
-0.29939
-0.298503
-0.299971
-0.299512
-0.299934
-0.299373
-0.298835
-0.29764
-0.296133
-0.294093
-0.291658
-0.288801
-0.285444
-0.281421
-0.27566
-0.267136
-0.252587
-0.230562
-0.19733
-0.157757
-0.114102
-0.073795
-0.0411874
-0.0164071
-0.00208225
0.00747126
0.00953405
0.0111501
0.00702103
0.00538295
-0.299515
-0.298534
-0.30003
-0.299557
-0.299978
-0.299417
-0.298876
-0.29768
-0.29617
-0.294128
-0.291691
-0.288835
-0.285484
-0.281477
-0.275745
-0.267267
-0.252768
-0.23079
-0.197575
-0.157994
-0.114312
-0.0739629
-0.0413215
-0.0165055
-0.00215833
0.00741684
0.00949238
0.0111211
0.00700134
0.00537264
-0.299762
-0.298593
-0.300145
-0.299645
-0.300066
-0.299503
-0.298956
-0.297758
-0.296242
-0.294196
-0.291755
-0.288901
-0.285561
-0.281586
-0.275908
-0.267519
-0.253119
-0.231234
-0.198056
-0.15846
-0.114728
-0.0742955
-0.0415885
-0.0167025
-0.00231081
0.00730737
0.00940875
0.0110629
0.00696195
0.00535192
-0.300121
-0.298673
-0.30031
-0.299772
-0.30019
-0.299626
-0.299072
-0.29787
-0.296347
-0.294294
-0.291847
-0.288995
-0.285671
-0.28174
-0.276141
-0.267878
-0.253624
-0.231873
-0.198754
-0.159139
-0.11534
-0.0747873
-0.0419866
-0.0169984
-0.00254016
0.00714184
0.00928268
0.0109748
0.00690287
0.00532059
-0.300584
-0.298765
-0.300514
-0.299929
-0.300346
-0.29978
-0.299216
-0.298011
-0.296478
-0.294418
-0.291963
-0.289112
-0.285806
-0.281931
-0.276429
-0.268325
-0.254255
-0.23268
-0.199642
-0.160014
-0.116128
-0.0754373
-0.0425127
-0.0173934
-0.002847
0.00691884
0.00911354
0.010856
0.00682414
0.00527842
-0.301135
-0.298858
-0.300748
-0.300109
-0.300523
-0.299957
-0.299383
-0.298174
-0.296631
-0.294563
-0.292097
-0.289247
-0.285961
-0.282147
-0.276756
-0.268835
-0.254983
-0.233619
-0.200692
-0.16106
-0.117079
-0.0762318
-0.0431633
-0.0178877
-0.00323198
0.00663679
0.00890061
0.0107056
0.00672577
0.00522511
-0.301761
-0.29894
-0.300997
-0.300303
-0.300713
-0.300148
-0.299564
-0.298353
-0.296799
-0.294721
-0.292245
-0.289393
-0.286126
-0.282377
-0.277101
-0.269383
-0.255776
-0.234656
-0.201869
-0.16224
-0.118185
-0.0771621
-0.0439343
-0.018481
-0.00369562
0.00629414
0.00864317
0.0105228
0.00660787
0.00516038
-0.302448
-0.298999
-0.301245
-0.3005
-0.300904
-0.300344
-0.29975
-0.298538
-0.296974
-0.294889
-0.292399
-0.289545
-0.286294
-0.282608
-0.277445
-0.269946
-0.256601
-0.235756
-0.203138
-0.163536
-0.119419
-0.0782186
-0.0448209
-0.0191728
-0.00423815
0.00588954
0.00834062
0.0103066
0.00647055
0.00508402
-0.303208
-0.299015
-0.30148
-0.300688
-0.301085
-0.300535
-0.299932
-0.298723
-0.29715
-0.295057
-0.292556
-0.289696
-0.286459
-0.282832
-0.277841
-0.270501
-0.25743
-0.23688
-0.204465
-0.164924
-0.120765
-0.079391
-0.045818
-0.0199619
-0.00485939
0.00542202
0.00799259
0.0100565
0.00631403
0.00499587
-0.304022
-0.29898
-0.301691
-0.300855
-0.301246
-0.300709
-0.300101
-0.298898
-0.29732
-0.295222
-0.292708
-0.289841
-0.286613
-0.283034
-0.278139
-0.271027
-0.258235
-0.237994
-0.205829
-0.166373
-0.122205
-0.0806689
-0.0469198
-0.0208464
-0.00555855
0.0048912
0.00759899
0.00977204
0.00613859
0.0048959
-0.304591
-0.298999
-0.301846
-0.300991
-0.301375
-0.300856
-0.300247
-0.299054
-0.297475
-0.295375
-0.29285
-0.289976
-0.28675
-0.283202
-0.278422
-0.271507
-0.258994
-0.239077
-0.207197
-0.167863
-0.123722
-0.0820417
-0.0481198
-0.0218233
-0.00633417
0.00429734
0.00716013
0.00945318
0.00594463
0.0047842
-0.305084
-0.299072
-0.301873
-0.301115
-0.301453
-0.300968
-0.300361
-0.299184
-0.297609
-0.295511
-0.292978
-0.290096
-0.286862
-0.283414
-0.278664
-0.27193
-0.259688
-0.240105
-0.208545
-0.169372
-0.1253
-0.0834988
-0.0494113
-0.022889
-0.00718406
0.00364141
0.00667674
0.00910027
0.00573265
0.004661
-0.305569
-0.299101
-0.301843
-0.301178
-0.301478
-0.301032
-0.300432
-0.299279
-0.297713
-0.295622
-0.293084
-0.290192
-0.286954
-0.283505
-0.278854
-0.272285
-0.260304
-0.24106
-0.209856
-0.170883
-0.126925
-0.0850299
-0.0507869
-0.0240391
-0.00810533
0.00292508
0.00614999
0.00871398
0.00550329
0.00452667
-0.306012
-0.299097
-0.301744
-0.301166
-0.301438
-0.301035
-0.300452
-0.299328
-0.297779
-0.295702
-0.293162
-0.290251
-0.287061
-0.28358
-0.27899
-0.272564
-0.26083
-0.241928
-0.211113
-0.172383
-0.128584
-0.0866251
-0.0522393
-0.0252684
-0.00909439
0.00215073
0.00558149
0.00829541
0.00525729
0.00438172
-0.306375
-0.29908
-0.301554
-0.301069
-0.301317
-0.300966
-0.300408
-0.299323
-0.297798
-0.295741
-0.293209
-0.290332
-0.287067
-0.283615
-0.279065
-0.272762
-0.261259
-0.242697
-0.212305
-0.173856
-0.130264
-0.0882733
-0.0537592
-0.02657
-0.0101464
0.00132164
0.00497341
0.00784599
0.00499553
0.00422676
-0.306607
-0.299042
-0.301263
-0.30087
-0.301103
-0.300814
-0.300291
-0.299252
-0.29776
-0.295733
-0.293212
-0.290348
-0.287051
-0.283602
-0.279077
-0.272875
-0.261585
-0.243359
-0.213416
-0.175288
-0.131947
-0.0899594
-0.0553342
-0.027935
-0.0112551
0.000442059
0.00432846
0.00736756
0.00471904
0.00406249
-0.306584
-0.298946
-0.300869
-0.300557
-0.300786
-0.300569
-0.300091
-0.299107
-0.297658
-0.295667
-0.293116
-0.290286
-0.286993
-0.283536
-0.279021
-0.272899
-0.261805
-0.243907
-0.214438
-0.176669
-0.133624
-0.0916763
-0.0569593
-0.029359
-0.0124173
-0.000484991
0.00364883
0.00686196
0.00442881
0.00388973
-0.306211
-0.298783
-0.30037
-0.300119
-0.300352
-0.300218
-0.299799
-0.298881
-0.297483
-0.295541
-0.293118
-0.290183
-0.286883
-0.283412
-0.278895
-0.272836
-0.261927
-0.244362
-0.215405
-0.178042
-0.135342
-0.0934641
-0.0586643
-0.0308592
-0.0136418
-0.00146233
0.00293409
0.00633032
0.0041257
0.00370934
-0.305786
-0.298481
-0.299685
-0.29947
-0.299723
-0.299697
-0.299363
-0.298533
-0.297209
-0.29533
-0.292886
-0.29002
-0.286714
-0.283228
-0.2787
-0.272695
-0.261971
-0.244757
-0.216361
-0.179457
-0.137142
-0.0953499
-0.060462
-0.0324404
-0.0149282
-0.0024882
0.00218642
0.00577431
0.00381091
0.00352214
-0.303325
-0.297229
-0.298629
-0.298471
-0.298807
-0.298937
-0.298722
-0.298006
-0.296778
-0.29498
-0.2926
-0.289779
-0.286478
-0.282979
-0.278432
-0.27244
-0.261841
-0.244887
-0.216976
-0.180492
-0.138575
-0.0969461
-0.0620535
-0.0339096
-0.0161598
-0.00350348
0.00143532
0.00520392
0.00348824
0.00332858
-0.29138
-0.29469
-0.297446
-0.297411
-0.297841
-0.298131
-0.29803
-0.297418
-0.296284
-0.294606
-0.292239
-0.289406
-0.286097
-0.282567
-0.277973
-0.271907
-0.261297
-0.24438
-0.216777
-0.180653
-0.13924
-0.0980183
-0.0633684
-0.0353305
-0.0174609
-0.00466346
0.000546293
0.00450081
0.00308986
0.00308578
-0.286452
-0.292088
-0.295196
-0.295248
-0.295836
-0.296377
-0.296454
-0.295981
-0.294944
-0.293308
-0.291037
-0.288294
-0.285
-0.281415
-0.276695
-0.270419
-0.259654
-0.24268
-0.215491
-0.179972
-0.139429
-0.0989619
-0.0648133
-0.0370426
-0.0190929
-0.00614972
-0.000601221
0.00359501
0.00257789
0.00278108
-0.283209
-0.288684
-0.291722
-0.292104
-0.292992
-0.293869
-0.294201
-0.293928
-0.29305
-0.291558
-0.2894
-0.286734
-0.283455
-0.279802
-0.274929
-0.268393
-0.257431
-0.240382
-0.213653
-0.17885
-0.139319
-0.0997552
-0.0662177
-0.0387963
-0.0208017
-0.00772999
-0.00183094
0.00261974
0.0020259
0.00245767
-0.27962
-0.284048
-0.286829
-0.28783
-0.289202
-0.29051
-0.291192
-0.291202
-0.290557
-0.289272
-0.287272
-0.284708
-0.281463
-0.277747
-0.272719
-0.265915
-0.254765
-0.237667
-0.211467
-0.177487
-0.139073
-0.100522
-0.0676614
-0.0406373
-0.0226063
-0.00940867
-0.00313841
0.00158008
0.00143972
0.00211835
-0.274258
-0.278142
-0.280642
-0.282385
-0.284388
-0.28621
-0.287322
-0.287694
-0.287353
-0.286329
-0.28454
-0.282121
-0.278939
-0.27517
-0.269998
-0.262927
-0.251612
-0.234512
-0.208915
-0.175871
-0.138679
-0.101251
-0.0691328
-0.0425546
-0.0244981
-0.0111788
-0.00451907
0.000479795
0.000821212
0.00176542
-0.266871
-0.271095
-0.273446
-0.275894
-0.278601
-0.280984
-0.282576
-0.283365
-0.283383
-0.28267
-0.281136
-0.27891
-0.275819
-0.272015
-0.266715
-0.259397
-0.247952
-0.230911
-0.205994
-0.174001
-0.13813
-0.101924
-0.0706124
-0.0445266
-0.0264608
-0.0130269
-0.00596494
-0.000674935
0.000172706
0.00140192
-0.257982
-0.263106
-0.265561
-0.268606
-0.272005
-0.274963
-0.277051
-0.278278
-0.278685
-0.278315
-0.277076
-0.275067
-0.272097
-0.268276
-0.262873
-0.255339
-0.243814
-0.226907
-0.202744
-0.171906
-0.137435
-0.102537
-0.0720851
-0.0465329
-0.028477
-0.0149376
-0.00746623
-0.00187628
-0.00050254
0.00103136
-0.248096
-0.254396
-0.257248
-0.260794
-0.264813
-0.268333
-0.270907
-0.272569
-0.273368
-0.273352
-0.272421
-0.270644
-0.267816
-0.263999
-0.258521
-0.250815
-0.239267
-0.222574
-0.199227
-0.169628
-0.136614
-0.103084
-0.0735364
-0.0485524
-0.0305284
-0.0168945
-0.00901216
-0.00311549
-0.0012008
0.000657302
-0.237663
-0.245196
-0.24869
-0.252682
-0.257227
-0.261274
-0.264319
-0.266399
-0.267577
-0.267905
-0.267278
-0.26574
-0.263066
-0.25927
-0.253745
-0.245919
-0.234407
-0.218005
-0.19552
-0.167214
-0.135688
-0.103564
-0.0749525
-0.0505641
-0.0325963
-0.0188805
-0.0105915
-0.0043834
-0.00191815
0.000283261
-0.227076
-0.235712
-0.239997
-0.244427
-0.249409
-0.253938
-0.257435
-0.259914
-0.261452
-0.262108
-0.261767
-0.260436
-0.257954
-0.254195
-0.248653
-0.240759
-0.229341
-0.213297
-0.191699
-0.164715
-0.134681
-0.103974
-0.0763206
-0.0525484
-0.0346628
-0.0208792
-0.012193
-0.00567073
-0.00265056
-8.75154e-05
-0.216583
-0.226108
-0.23124
-0.236125
-0.241476
-0.246433
-0.250362
-0.253224
-0.255107
-0.256071
-0.256009
-0.254905
-0.252579
-0.248877
-0.243349
-0.235442
-0.224168
-0.208538
-0.187837
-0.162172
-0.133613
-0.104315
-0.0776301
-0.0544881
-0.0367114
-0.0228751
-0.0138058
-0.00696849
-0.00339402
-0.000452147
-0.206333
-0.216517
-0.222474
-0.227832
-0.233509
-0.238839
-0.243173
-0.246408
-0.24862
-0.249878
-0.250086
-0.249195
-0.247028
-0.243405
-0.237922
-0.230054
-0.21897
-0.203799
-0.183989
-0.159621
-0.132501
-0.104588
-0.0788722
-0.0563689
-0.0387278
-0.0248542
-0.01542
-0.00826815
-0.00414462
-0.000808203
-0.196425
-0.207053
-0.213753
-0.219589
-0.225564
-0.231216
-0.235923
-0.239516
-0.242048
-0.243588
-0.244055
-0.243373
-0.241369
-0.237847
-0.23244
-0.22466
-0.213808
-0.199128
-0.180195
-0.157087
-0.131359
-0.104792
-0.0800401
-0.058179
-0.0406994
-0.0268042
-0.017026
-0.00956172
-0.0048985
-0.00115373
-0.186928
-0.197809
-0.205137
-0.211434
-0.217688
-0.223615
-0.228655
-0.232588
-0.23543
-0.237242
-0.237959
-0.237486
-0.235651
-0.232252
-0.226952
-0.219306
-0.208722
-0.194557
-0.176483
-0.154586
-0.130197
-0.104929
-0.0811288
-0.0599094
-0.0426154
-0.028714
-0.0186152
-0.0108418
-0.00565185
-0.00148724
-0.177886
-0.188862
-0.19669
-0.203405
-0.209919
-0.216081
-0.221412
-0.22566
-0.2288
-0.230876
-0.231834
-0.23157
-0.229913
-0.226657
-0.221494
-0.214022
-0.203739
-0.190106
-0.172869
-0.15213
-0.129021
-0.105001
-0.0821347
-0.0615527
-0.0444666
-0.0305738
-0.0201794
-0.0121013
-0.00640078
-0.00180764
-0.169334
-0.180274
-0.188473
-0.195549
-0.202298
-0.208659
-0.214237
-0.21877
-0.222192
-0.224523
-0.225714
-0.225658
-0.224186
-0.221093
-0.216095
-0.208833
-0.198878
-0.185789
-0.169363
-0.149729
-0.127838
-0.105011
-0.0830557
-0.0631035
-0.0462448
-0.0323745
-0.0217104
-0.0133336
-0.00714132
-0.00211417
-0.161296
-0.172094
-0.180546
-0.187912
-0.194864
-0.201392
-0.207176
-0.211959
-0.215643
-0.218217
-0.219633
-0.219785
-0.218504
-0.215592
-0.210783
-0.203761
-0.194157
-0.181615
-0.165977
-0.147388
-0.126653
-0.104961
-0.0838908
-0.0645574
-0.0479428
-0.0341077
-0.0232004
-0.0145322
-0.00786928
-0.00240627
-0.153785
-0.164362
-0.172958
-0.180542
-0.187659
-0.194323
-0.200274
-0.205272
-0.209191
-0.211997
-0.213629
-0.213985
-0.2129
-0.210183
-0.205583
-0.198826
-0.189591
-0.177597
-0.162718
-0.145118
-0.125474
-0.104857
-0.0846402
-0.065911
-0.0495538
-0.0357655
-0.0246414
-0.0156908
-0.00858027
-0.00268352
-0.14681
-0.157106
-0.165754
-0.173486
-0.180727
-0.187495
-0.193577
-0.198753
-0.202883
-0.205902
-0.207741
-0.208299
-0.207412
-0.204899
-0.200526
-0.194051
-0.185196
-0.173745
-0.159595
-0.142925
-0.124307
-0.104703
-0.0853047
-0.0671619
-0.0510719
-0.0373403
-0.0260255
-0.0168032
-0.00926971
-0.00294555
-0.140375
-0.150348
-0.158973
-0.166786
-0.174109
-0.180951
-0.187132
-0.192453
-0.196763
-0.199978
-0.202013
-0.202766
-0.202077
-0.199776
-0.19564
-0.18946
-0.180992
-0.170071
-0.156618
-0.140819
-0.12316
-0.104505
-0.0858866
-0.0683085
-0.0524915
-0.0388251
-0.0273447
-0.0178631
-0.0099328
-0.00319197
-0.134478
-0.144105
-0.152646
-0.160485
-0.167849
-0.174735
-0.180985
-0.186419
-0.190881
-0.194272
-0.19649
-0.197431
-0.196938
-0.194851
-0.190959
-0.18508
-0.176998
-0.166592
-0.153799
-0.138811
-0.122042
-0.104271
-0.0863888
-0.0693501
-0.0538076
-0.0402131
-0.0285909
-0.0188645
-0.0105646
-0.00342231
-0.129118
-0.138388
-0.146802
-0.154619
-0.161988
-0.168891
-0.175184
-0.180702
-0.185289
-0.188834
-0.19122
-0.19234
-0.192038
-0.190163
-0.186516
-0.180938
-0.173236
-0.163323
-0.151151
-0.136913
-0.120964
-0.104008
-0.0868151
-0.0702864
-0.0550157
-0.0414977
-0.029756
-0.0198013
-0.0111601
-0.00363599
-0.124292
-0.133208
-0.141464
-0.149223
-0.156568
-0.163464
-0.169777
-0.175354
-0.180041
-0.183717
-0.186256
-0.187543
-0.187424
-0.185756
-0.18235
-0.177066
-0.16973
-0.160284
-0.148688
-0.135137
-0.119938
-0.103725
-0.0871704
-0.0711183
-0.0561117
-0.0426729
-0.030832
-0.020667
-0.0117143
-0.00383226
-0.12
-0.128575
-0.136658
-0.144333
-0.151631
-0.1585
-0.164813
-0.170428
-0.175192
-0.178979
-0.181653
-0.183094
-0.183147
-0.181676
-0.178501
-0.173498
-0.16651
-0.157497
-0.14643
-0.1335
-0.118975
-0.103433
-0.0874603
-0.0718469
-0.0570917
-0.0437325
-0.0318107
-0.0214553
-0.0122217
-0.00401014
-0.116244
-0.124502
-0.132406
-0.139982
-0.147218
-0.154046
-0.160346
-0.165981
-0.170802
-0.17468
-0.177471
-0.17905
-0.17926
-0.177972
-0.175014
-0.170272
-0.163605
-0.154987
-0.144396
-0.132018
-0.118091
-0.103144
-0.087691
-0.0724735
-0.057952
-0.0446702
-0.0326838
-0.0221595
-0.0126773
-0.00416847
-0.113032
-0.121005
-0.128737