/*--------------------------------*- C++ -*----------------------------------*\
  =========                 |
  \\      /  F ield         | OpenFOAM: The Open Source CFD Toolbox
   \\    /   O peration     | Website:  https://openfoam.org
    \\  /    A nd           | Version:  7
     \\/     M anipulation  |
\*---------------------------------------------------------------------------*/
FoamFile
{
    version     2.0;
    format      ascii;
    class       surfaceScalarField;
    location    "25";
    object      phi;
}
// * * * * * * * * * * * * * * * * * * * * * * * * * * * * * * * * * * * * * //

dimensions      [0 3 -1 0 0 0 0];

internalField   nonuniform List<scalar> 
16735
(
-7.34812e-05
7.34841e-05
-2.94966e-09
-0.000261962
0.000188488
-7.37622e-09
-0.000546202
0.000284251
-1.08845e-08
-0.000907291
0.000361102
-1.35694e-08
-0.00132815
0.000420878
-1.56259e-08
-0.00179533
0.000467191
-1.73088e-08
-0.0023011
0.000505794
-1.88591e-08
-0.00284631
0.000545232
-2.04501e-08
-0.00344251
0.000596219
-2.21659e-08
0.000671692
-2.39613e-08
-0.00411418
-7.26507e-05
0.000146135
-0.000259081
0.000374918
-0.000540136
0.000565307
-0.000896826
0.000717792
-0.00131179
0.000835841
-0.00177101
0.000926412
-0.00226591
0.0010007
-0.00279628
0.0010756
-0.00337276
0.0011727
0.00131816
-0.00401923
-7.10249e-05
0.00021716
-0.000253422
0.000557315
-0.000528197
0.000840082
-0.0008762
0.00106579
-0.00127951
0.00123915
-0.00172301
0.00136991
-0.00219639
0.00147408
-0.00269726
0.00157647
-0.00323443
0.00170987
0.00191398
-0.00383024
-6.86708e-05
0.000285831
-0.000245183
0.000733828
-0.000510752
0.00110565
-0.000845987
0.00140103
-0.00123215
0.00162531
-0.00165251
0.00179028
-0.00209416
0.00191573
-0.00255132
0.00203362
-0.00302978
0.00218833
0.00243309
-0.0035489
-6.56819e-05
0.000351512
-0.000234638
0.000902783
-0.000488304
0.00135932
-0.00080697
0.00171969
-0.00117085
0.00198919
-0.00156116
0.00218058
-0.00196148
0.00231605
-0.0023613
0.00243344
-0.00276207
0.0025891
0.00284856
-0.00317753
-6.21702e-05
0.000413683
-0.00022211
0.00106272
-0.000461443
0.00159865
-0.00076005
0.0020183
-0.00109692
0.00232606
-0.00145078
0.00253444
-0.00180092
0.0026662
-0.00213056
0.00276308
-0.00243519
0.00289372
0.00313228
-0.00271891
-5.82571e-05
0.00047194
-0.000207948
0.00121241
-0.000430784
0.00182149
-0.000706133
0.00229365
-0.0010116
0.00263153
-0.00132313
0.00284597
-0.00161497
0.00295804
-0.00186241
0.00301053
-0.00205315
0.00308446
0.00325513
-0.002176
-5.4064e-05
0.000526004
-0.000192489
0.00135084
-0.000396894
0.00202589
-0.000645995
0.00254275
-0.000915877
0.00290141
-0.00117947
0.00310956
-0.00140541
0.00318397
-0.00155936
0.00316448
-0.00161912
0.00314423
0.0031879
-0.0015519
-4.97038e-05
0.000575707
-0.00017603
0.00147717
-0.000360232
0.00221009
-0.000580155
0.00276267
-0.000810209
0.00313147
-0.00102014
0.0033195
-0.00117255
0.00333638
-0.00122176
0.00321368
-0.00113334
0.00305581
0.00290535
-0.000850783
-4.52744e-05
0.000620982
-0.00015881
0.0015907
-0.000321086
0.00237237
-0.000508755
0.00295034
-0.000694297
0.00331701
-0.00084407
0.00346927
-0.000914372
0.00340669
-0.000846039
0.00314535
-0.000586399
0.00279617
0.00241326
-9.43074e-05
-4.08547e-05
0.000661837
-0.000140984
0.00169083
-0.00027954
0.00251093
-0.000431477
0.00310228
-0.000566911
0.00345244
-0.000648457
0.00355082
-0.000626095
0.00338432
-0.000425952
0.00294521
5.95576e-05
0.00231066
0.00163462
0.000838194
-3.65033e-05
0.00069834
-0.000122625
0.00177695
-0.000235454
0.00262375
-0.000347505
0.00321433
-0.000425781
0.00353072
-0.00042843
0.00355346
-0.000298881
0.00325478
3.90369e-05
0.00260729
0.000734444
0.00161525
0.000485205
0.00188386
-3.22588e-05
0.000730599
-0.000103718
0.00184841
-0.000188466
0.0027085
-0.000255536
0.0032814
-0.000267605
0.00354279
-0.000177051
0.00346291
8.23454e-05
0.00299538
0.000606507
0.00208313
0.00154965
0.000672106
-0.0010526
0.00308745
-2.81385e-05
0.000758737
-8.41588e-05
0.00190443
-0.000138004
0.00276235
-0.00015386
0.00329726
-8.83241e-05
0.00347725
0.000114057
0.00326053
0.000529361
0.00258007
0.00126959
0.0013429
0.00252727
-0.000585571
-0.00301722
0.00449189
-2.41341e-05
0.000782871
-6.37395e-05
0.00194404
-8.32763e-05
0.00278188
-4.03714e-05
0.00325435
0.00011675
0.00332013
0.000454526
0.00292275
0.00106269
0.00197191
0.00206755
0.000338044
0.00371351
-0.00223154
-0.00544236
0.00613865
-2.02003e-05
0.000803072
-4.21183e-05
0.00196596
-2.31929e-05
0.00276296
8.73953e-05
0.00314376
0.000352791
0.00305473
0.000854201
0.00242134
0.00169962
0.00112648
0.00303055
-0.000992884
0.00515322
-0.00435421
-0.00834434
0.0080552
-1.62379e-05
0.000819309
-1.87348e-05
0.00196845
4.35347e-05
0.00270069
0.000232419
0.00295488
0.000625468
0.00266168
0.00132311
0.00172371
0.0024568
-7.20769e-06
0.00418488
-0.00272097
0.00687314
-0.00704247
-0.0117085
0.0102373
-1.2087e-05
0.000831396
7.20321e-06
0.00194916
0.000118818
0.00258907
0.000398368
0.00267533
0.000941176
0.00211888
0.00187135
0.000793528
0.00334862
-0.00148447
0.00555248
-0.00492484
0.00886707
-0.0103571
-0.0154814
0.01264
-7.56406e-06
0.00083896
3.62351e-05
0.00190536
0.000205069
0.00242024
0.000589765
0.00229063
0.00130719
0.00140145
0.00250915
-0.000408435
0.00438649
-0.00336181
0.00715143
-0.00768978
0.0110957
-0.0143013
-0.0195762
0.0151905
-2.03846e-06
0.000840999
7.04157e-05
0.00183291
0.000305396
0.00218526
0.000812018
0.00178401
0.00173151
0.000481958
0.00324568
-0.0019226
0.00557428
-0.00569041
0.00897258
-0.0110881
0.0135267
-0.0188555
-0.0238672
0.0178177
4.85124e-06
0.000836148
0.000111187
0.00172657
0.000423385
0.00187306
0.00107123
0.00113616
0.00222236
-0.000669169
0.00408771
-0.00378795
0.00690366
-0.00850636
0.0109279
-0.0151123
0.0160026
-0.0239302
-0.031532
0.0236674
1.34217e-05
0.000822726
0.000160379
0.00157961
0.000562928
0.00147051
0.0013737
0.000325392
0.00278723
-0.0020827
0.00503813
-0.00603884
0.00835897
-0.0118272
0.0129363
-0.0196896
0.0184844
-0.0294783
-0.0388593
0.0258116
2.44808e-05
0.000798245
0.000219921
0.00138417
0.000727841
0.000962594
0.00172504
-0.000671803
0.00343112
-0.00378879
0.00609261
-0.00870033
0.00990947
-0.0156441
0.0149259
-0.0247061
0.0207735
-0.0353259
-0.0457326
0.0276469
3.85337e-05
0.000759711
0.000291565
0.00113114
0.000921363
0.000332796
0.00212906
-0.0018795
0.00415412
-0.00581385
0.00723538
-0.0117816
0.0115012
-0.0199099
0.0168188
-0.0300238
0.022708
-0.0412151
-0.0520523
0.0290277
5.60458e-05
0.000703666
0.000376722
0.000810466
0.00114567
-0.000436155
0.00258669
-0.00332051
0.00494917
-0.00817633
0.00843633
-0.0152687
0.013061
-0.0245345
0.0185057
-0.0354685
0.0242024
-0.0469117
-0.0577175
0.0298676
7.73793e-05
0.000626286
0.000476309
0.000411537
0.00140149
-0.00136133
0.00309505
-0.00501407
0.00580051
-0.0108818
0.00965071
-0.019119
0.014507
-0.0293908
0.0198922
-0.0408537
0.0252134
-0.0522329
-0.0626824
0.0301784
0.000102771
0.000523516
0.000590659
-7.63517e-05
0.00168777
-0.00245844
0.00364689
-0.0069732
0.00668337
-0.0139183
0.010823
-0.0232586
0.0157616
-0.0343294
0.0209179
-0.04601
0.0257459
-0.057061
-0.0669615
0.030025
0.000132324
0.000391192
0.000719461
-0.000663489
0.00200156
-0.00374054
0.00423031
-0.00920194
0.00756508
-0.017253
0.0118942
-0.0275877
0.0167639
-0.039199
0.0215604
-0.0508065
0.0258405
-0.0613411
-0.0706064
0.0294854
0.000166008
0.000225183
0.000861721
-0.0013592
0.00233787
-0.00521669
0.00482885
-0.0116929
0.00840779
-0.020832
0.0128109
-0.0319908
0.0174776
-0.0438657
0.0218306
-0.0551595
0.0255568
-0.0650673
-0.0736898
0.0286402
0.000203653
2.15304e-05
0.00101573
-0.00217128
0.0026896
-0.00689056
0.00542218
-0.0144255
0.00917273
-0.0245825
0.0135322
-0.0363503
0.017892
-0.0482256
0.0217615
-0.059029
0.0249613
-0.0682671
-0.0762897
0.0275612
0.000244937
-0.000223407
0.00117904
-0.00310538
0.00304772
-0.00875925
0.00598745
-0.0173652
0.00982491
-0.02842
0.0140343
-0.0405597
0.0180176
-0.0522088
0.0213986
-0.0624101
0.0241182
-0.0709866
-0.07848
0.0263085
0.000289392
-0.000512799
0.00134847
-0.00416446
0.00340148
-0.0108123
0.00650131
-0.0204651
0.0103372
-0.0322558
0.0143097
-0.0445322
0.0178791
-0.0557783
0.0207911
-0.0653221
0.0230844
-0.0732799
-0.0803254
0.0249298
0.000336365
-0.000849164
0.00152013
-0.00534823
0.00373897
-0.0130311
0.00694219
-0.0236683
0.0106924
-0.0360061
0.0143654
-0.0482051
0.0175099
-0.0589228
0.0199867
-0.0677989
0.0219077
-0.075201
-0.0818793
0.0234616
0.000385034
-0.0012342
0.00168953
-0.00665273
0.00404791
-0.0153895
0.00729253
-0.0269129
0.0108843
-0.0395978
0.0142179
-0.0515388
0.0169458
-0.0616506
0.0190283
-0.0698814
0.0206268
-0.0767995
-0.083184
0.0219315
0.000434409
-0.00166861
0.00185176
-0.00807008
0.0043166
-0.0178543
0.00754013
-0.0301364
0.0109152
-0.0429729
0.0138902
-0.0545138
0.0162222
-0.0639826
0.0179528
-0.0716119
0.0192719
-0.0781187
-0.0842717
0.0203596
0.000483359
-0.00215197
0.0020017
-0.00958842
0.0045349
-0.0203875
0.00767878
-0.0332803
0.010795
-0.0460891
0.0134076
-0.0571264
0.0153719
-0.065947
0.0167908
-0.0730308
0.0178662
-0.079194
-0.0851661
0.0187606
0.000530651
-0.00268262
0.00213437
-0.0111921
0.00469497
-0.0229481
0.00770788
-0.0362932
0.0105377
-0.048919
0.0127958
-0.0593845
0.0144236
-0.0675747
0.015567
-0.0741743
0.0164271
-0.0800541
-0.0858842
0.0171452
0.000575
-0.00325762
0.0022452
-0.0128623
0.00479177
-0.0254947
0.00763153
-0.039133
0.0101603
-0.0514477
0.0120792
-0.0613035
0.0134017
-0.0688972
0.0143009
-0.0750735
0.0149678
-0.080721
-0.0864379
0.0155216
0.000615128
-0.00387274
0.00233033
-0.0145776
0.00482316
-0.0279875
0.00745728
-0.0417671
0.00968032
-0.0536707
0.01128
-0.0629031
0.0123267
-0.0699439
0.0130078
-0.0757546
0.0134982
-0.0812114
-0.0868355
0.0138958
0.000649829
-0.00452257
0.00238684
-0.0163146
0.00478971
-0.0303904
0.00719496
-0.0441723
0.00911534
-0.0555911
0.0104175
-0.0642052
0.0112152
-0.0707416
0.0116993
-0.0762388
0.0120255
-0.0815376
-0.0870826
0.0122727
0.000678018
-0.00520059
0.00241288
-0.0180494
0.00469424
-0.0326717
0.00685563
-0.0463337
0.00848169
-0.0572172
0.00950857
-0.0652321
0.0100807
-0.0713138
0.0103846
-0.0765426
0.0105555
-0.0817086
-0.0871834
0.0106562
0.000698785
-0.00589938
0.0024077
-0.0197583
0.00454128
-0.0348053
0.0064507
-0.0482432
0.00779429
-0.0585607
0.00856726
-0.0660051
0.00893386
-0.0716804
0.00907052
-0.0766793
0.00909252
-0.0817306
-0.08714
0.00904916
0.000711425
-0.0066108
0.00237156
-0.0214185
0.00433651
-0.0367703
0.00599138
-0.049898
0.00706636
-0.0596357
0.00760527
-0.066544
0.00778308
-0.0718582
0.00776251
-0.0766587
0.00764004
-0.0816081
-0.0869539
0.00745393
0.000715459
-0.00732626
0.00230567
-0.0230087
0.00408626
-0.0385509
0.00548826
-0.0513
0.00630939
-0.0604569
0.00663222
-0.0668668
0.006635
-0.071861
0.00646465
-0.0764884
0.00620078
-0.0813442
-0.0866255
0.00587243
0.00071064
-0.0080369
0.00221191
-0.0245099
0.0037971
-0.0401361
0.00495103
-0.052454
0.00553325
-0.0610391
0.00565597
-0.0669895
0.00549493
-0.0716999
0.00518019
-0.0761736
0.00477681
-0.0809408
-0.0861547
0.00430597
0.000696941
-0.00873384
0.00209272
-0.0259057
0.00347552
-0.0415189
0.00438842
-0.0533669
0.00474627
-0.0613969
0.00468296
-0.0669262
0.00436735
-0.0713843
0.00391242
-0.0757187
0.00336979
-0.0803982
-0.0855396
0.00275472
0.000674547
-0.00940839
0.00195084
-0.027182
0.0031277
-0.0426957
0.0038081
-0.0540473
0.00395542
-0.0615442
0.00371832
-0.0666891
0.00325601
-0.070922
0.00266539
-0.0751281
0.00198204
-0.0797149
-0.0847716
0.00121398
0.000643851
-0.0100522
0.00178937
-0.0283275
0.00275943
-0.0436658
0.00321676
-0.0545046
0.00316644
-0.0614939
0.00276607
-0.0662888
0.00216371
-0.0703196
0.00144202
-0.0744064
0.000625079
-0.0788979
-0.0838259
-0.000320599
0.000605427
-0.0106577
0.00161153
-0.0293336
0.00237603
-0.0444303
0.00262014
-0.0547487
0.00238406
-0.0612578
0.0018295
-0.0657342
0.00109269
-0.0695828
0.000234609
-0.0735483
-0.000707686
-0.0779556
-0.0827765
-0.00175707
0.000559979
-0.0112176
0.00142031
-0.030194
0.00198234
-0.0449923
0.00202318
-0.0547896
0.00161199
-0.0608467
0.00091149
-0.0650337
3.58152e-05
-0.0687072
-0.000935632
-0.0725768
-0.00201984
-0.0768714
-0.0816061
-0.00319025
0.000508308
-0.011726
0.00121861
-0.0309043
0.00158273
-0.0453564
0.00143005
-0.0546369
0.000853051
-0.0602697
6.9733e-06
-0.0641876
-0.000978626
-0.0677216
-0.00208232
-0.0714731
-0.00329604
-0.0756577
-0.0803031
-0.00459907
0.000451317
-0.0121773
0.0010092
-0.0314622
0.00118097
-0.0455282
0.000844098
-0.0543
0.000111684
-0.0595372
-0.000858831
-0.0632171
-0.00197501
-0.0666054
-0.0032017
-0.0702465
-0.00454134
-0.0743181
-0.0788676
-0.00597681
0.000389996
-0.0125673
0.000794969
-0.0318671
0.000779963
-0.0455132
0.000269644
-0.0537897
-0.000610852
-0.0586567
-0.00170995
-0.062118
-0.00294508
-0.0653703
-0.00429153
-0.0689
-0.00575533
-0.0728543
-0.077302
-0.00732096
0.000325267
-0.0128925
0.00057897
-0.0321208
0.000383085
-0.0453173
-0.000293592
-0.053113
-0.00131432
-0.057636
-0.00253672
-0.0608956
-0.00388751
-0.0640195
-0.0053508
-0.0674367
-0.00693672
-0.0712684
-0.0756103
-0.00862835
0.000257927
-0.0131505
0.00036315
-0.0322261
1.35393e-05
-0.0449677
-0.000840386
-0.0522591
-0.0019978
-0.0564786
-0.00333829
-0.0595551
-0.00480154
-0.0625562
-0.00637891
-0.0658593
-0.00808406
-0.0695632
-0.0737992
-0.0098952
0.000189586
-0.01334
0.000149387
-0.0321859
-0.00039545
-0.0444228
-0.00137691
-0.0512776
-0.0026595
-0.055196
-0.00411375
-0.0581009
-0.00568644
-0.0609835
-0.00737509
-0.0641707
-0.00919608
-0.0677422
-0.0718736
-0.0111217
0.000118981
-0.013459
-5.79326e-05
-0.0320089
-0.0007711
-0.0437097
-0.00189674
-0.050152
-0.00329876
-0.053794
-0.00486244
-0.0565372
-0.00654173
-0.0593042
-0.00833886
-0.0623736
-0.0102729
-0.0658082
-0.069831
-0.0123154
4.31704e-05
-0.0135022
-0.00028893
-0.0316768
-0.00113754
-0.0428611
-0.00239782
-0.0488917
-0.00391483
-0.052277
-0.00558408
-0.0548679
-0.00736775
-0.0575206
-0.00927124
-0.0604701
-0.0113134
-0.0637661
-0.0676711
-0.0134732
-3.22647e-05
-0.0134699
-0.000502945
-0.0312062
-0.00149277
-0.0418712
-0.00287955
-0.0475049
-0.00450655
-0.05065
-0.00627808
-0.0530964
-0.0081651
-0.0556335
-0.0101755
-0.0584597
-0.0123124
-0.0616292
-0.0654088
-0.0145747
-0.000103219
-0.0133667
-0.000708584
-0.0306008
-0.0018351
-0.0407447
-0.00334154
-0.0459985
-0.00507321
-0.0489183
-0.00694341
-0.0512262
-0.00893179
-0.0536452
-0.0110503
-0.0563412
-0.0133089
-0.0593705
-0.0631827
-0.0155351
-0.000174667
-0.013192
-0.000907071
-0.0298684
-0.00216358
-0.0394882
-0.0037832
-0.0443789
-0.00561427
-0.0470872
-0.00757904
-0.0492614
-0.00966301
-0.0515612
-0.0118671
-0.0541371
-0.0141569
-0.0570807
-0.0604581
-0.0168815
-0.000244771
-0.0129473
-0.00109831
-0.0290149
-0.00247761
-0.0381089
-0.00420406
-0.0426524
-0.00612955
-0.0451617
-0.00818437
-0.0472066
-0.0103555
-0.04939
-0.0126392
-0.0518534
-0.0150524
-0.0546675
-0.0577484
-0.0177621
-0.00031293
-0.0126343
-0.00128182
-0.028046
-0.00277673
-0.036614
-0.00460377
-0.0408254
-0.00661873
-0.0431468
-0.00875927
-0.0450661
-0.0110156
-0.0471337
-0.0133924
-0.0494767
-0.0159228
-0.052137
-0.0550093
-0.018662
-0.000378763
-0.0122556
-0.00145709
-0.0269676
-0.00306053
-0.0350106
-0.00498201
-0.0389039
-0.00708138
-0.0410474
-0.00930296
-0.0428445
-0.0116403
-0.0447963
-0.0141033
-0.0470137
-0.0167221
-0.0495182
-0.0522146
-0.0195168
-0.000441959
-0.0118136
-0.00162366
-0.0257859
-0.00332867
-0.0333056
-0.00533854
-0.036894
-0.00751738
-0.0388686
-0.00981568
-0.0405462
-0.0122306
-0.0423814
-0.014775
-0.0444692
-0.0174735
-0.0468197
-0.0493542
-0.020334
-0.000502249
-0.0113114
-0.00178111
-0.0245071
-0.00358086
-0.0315058
-0.00567319
-0.0348017
-0.00792655
-0.0366152
-0.0102972
-0.0381756
-0.0127853
-0.0398933
-0.0154053
-0.0418493
-0.0181776
-0.0440474
-0.046424
-0.0211077
-0.000559392
-0.010752
-0.00192912
-0.0231373
-0.00381687
-0.0296181
-0.00598583
-0.0326327
-0.00830881
-0.0342922
-0.0107473
-0.0357371
-0.0133043
-0.0373363
-0.0159945
-0.039159
-0.0188365
-0.0412055
-0.0434245
-0.0218361
-0.000613175
-0.0101388
-0.0020674
-0.0216831
-0.0040365
-0.027649
-0.00627636
-0.0303929
-0.00866405
-0.0319045
-0.0111659
-0.0332352
-0.013787
-0.0347152
-0.0165428
-0.0364032
-0.0194505
-0.0382978
-0.0403577
-0.0225173
-0.000663415
-0.00947539
-0.00219571
-0.0201508
-0.00423961
-0.0256051
-0.0065447
-0.0280878
-0.00899221
-0.029457
-0.0115528
-0.0306746
-0.0142335
-0.0320345
-0.01705
-0.0335868
-0.0200193
-0.0353285
-0.0372272
-0.0231498
-0.000709948
-0.00876545
-0.00231385
-0.0185469
-0.00442607
-0.0234928
-0.00679079
-0.0257231
-0.00929322
-0.0269546
-0.0119079
-0.0280599
-0.0146435
-0.029299
-0.017516
-0.0307143
-0.0205424
-0.0323021
-0.034037
-0.0237326
-0.000752635
-0.00801281
-0.00242166
-0.0168779
-0.00459578
-0.0213187
-0.0070146
-0.0233042
-0.00956703
-0.0244022
-0.0122311
-0.0253958
-0.0150168
-0.0265133
-0.0179405
-0.0277906
-0.0210193
-0.0292232
-0.0307919
-0.0242644
-0.000791355
-0.00722146
-0.00251901
-0.0151502
-0.00474867
-0.0190891
-0.00721608
-0.0208368
-0.00981358
-0.0218047
-0.0125222
-0.0226872
-0.0153532
-0.0236824
-0.0183233
-0.0248205
-0.0214497
-0.0260968
-0.027497
-0.0247446
-0.000826006
-0.00639545
-0.00260578
-0.0133705
-0.00488468
-0.0168102
-0.00739522
-0.0183263
-0.0100328
-0.0191671
-0.0127813
-0.0199387
-0.0156526
-0.020811
-0.0186641
-0.021809
-0.0218329
-0.0229279
-0.0241575
-0.0251724
-0.000856501
-0.00553895
-0.00268188
-0.0115451
-0.00500377
-0.0144883
-0.00755199
-0.0157781
-0.0102247
-0.0164943
-0.0130081
-0.0171554
-0.0159149
-0.0179042
-0.0189627
-0.0187612
-0.0221688
-0.0197218
-0.020779
-0.0255474
-0.000882767
-0.00465618
-0.00274724
-0.00968063
-0.00510591
-0.0121296
-0.00768638
-0.0131976
-0.0103893
-0.0137914
-0.0132026
-0.0143421
-0.0161399
-0.0149669
-0.0192189
-0.0156822
-0.022457
-0.0164837
-0.0173669
-0.0258691
-0.000904742
-0.00375144
-0.00280178
-0.00778358
-0.00519106
-0.00974032
-0.00779838
-0.0105903
-0.0105264
-0.0110633
-0.0133648
-0.0115038
-0.0163275
-0.0120041
-0.0194326
-0.0125771
-0.0226974
-0.013219
-0.0139269
-0.0261374
-0.000922379
-0.00282906
-0.00284548
-0.00586048
-0.0052592
-0.0073266
-0.00788799
-0.00796148
-0.0106362
-0.00831513
-0.0134946
-0.00864541
-0.0164777
-0.00902098
-0.0196037
-0.00945108
-0.0228898
-0.00993288
-0.0104646
-0.0263521
-0.000935639
-0.00189342
-0.00287828
-0.00391785
-0.00531031
-0.00489457
-0.0079552
-0.00531659
-0.0107185
-0.00555182
-0.0135919
-0.00577198
-0.0165904
-0.00602251
-0.0197321
-0.00630943
-0.0230342
-0.00663079
-0.00698569
-0.0265131
-0.000944494
-0.000948927
-0.00290016
-0.00196218
-0.00534439
-0.00245033
-0.00800001
-0.00266098
-0.0107734
-0.00277843
-0.0136569
-0.0028885
-0.0166656
-0.00301381
-0.0198177
-0.00315733
-0.0231304
-0.00331806
-0.00349562
-0.0266205
-0.000948926
-4.74245e-10
-0.00291111
-9.70469e-10
-0.00536144
-1.18441e-09
-0.00802241
-1.2417e-09
-0.0108008
-1.24318e-09
-0.0136893
-1.2328e-09
-0.0167032
-1.218e-09
-0.0198605
-1.19926e-09
-0.0231785
-1.17557e-09
-1.14574e-09
-0.0266742
-0.000948926
0.000948926
-0.00291111
0.00196218
-0.00536144
0.00245033
-0.00802241
0.00266098
-0.0108008
0.00277843
-0.0136893
0.0028885
-0.0167032
0.00301381
-0.0198605
0.00315733
-0.0231785
0.00331806
0.00349562
-0.0266742
-0.000944494
0.00189342
-0.00290016
0.00391784
-0.00534439
0.00489457
-0.00800001
0.00531659
-0.0107734
0.00555182
-0.0136569
0.00577198
-0.0166656
0.0060225
-0.0198177
0.00630943
-0.0231304
0.00663079
0.00698568
-0.0266205
-0.000935639
0.00282906
-0.00287828
0.00586048
-0.00531031
0.0073266
-0.0079552
0.00796148
-0.0107185
0.00831513
-0.0135919
0.00864541
-0.0165904
0.00902098
-0.0197321
0.00945108
-0.0230342
0.00993287
0.0104646
-0.0265131
-0.000922379
0.00375144
-0.00284548
0.00778358
-0.0052592
0.00974032
-0.00788799
0.0105903
-0.0106362
0.0110633
-0.0134946
0.0115038
-0.0164777
0.0120041
-0.0196037
0.0125771
-0.0228898
0.013219
0.0139269
-0.0263521
-0.000904742
0.00465618
-0.00280178
0.00968062
-0.00519106
0.0121296
-0.00779838
0.0131976
-0.0105264
0.0137914
-0.0133648
0.0143421
-0.0163275
0.0149669
-0.0194326
0.0156822
-0.0226974
0.0164837
0.0173669
-0.0261374
-0.000882767
0.00553895
-0.00274724
0.0115451
-0.00510591
0.0144883
-0.00768638
0.0157781
-0.0103893
0.0164943
-0.0132026
0.0171554
-0.0161399
0.0179042
-0.0192189
0.0187612
-0.022457
0.0197218
0.020779
-0.0258691
-0.000856501
0.00639545
-0.00268188
0.0133705
-0.00500377
0.0168102
-0.00755199
0.0183263
-0.0102247
0.0191671
-0.0130081
0.0199387
-0.0159149
0.020811
-0.0189627
0.021809
-0.0221688
0.0229279
0.0241575
-0.0255474
-0.000826006
0.00722145
-0.00260578
0.0151502
-0.00488468
0.0190891
-0.00739522
0.0208368
-0.0100328
0.0218047
-0.0127813
0.0226872
-0.0156526
0.0236824
-0.0186641
0.0248205
-0.0218329
0.0260968
0.027497
-0.0251724
-0.000791355
0.00801281
-0.00251901
0.0168779
-0.00474867
0.0213187
-0.00721608
0.0233042
-0.00981358
0.0244022
-0.0125222
0.0253958
-0.0153532
0.0265133
-0.0183233
0.0277906
-0.0214497
0.0292232
0.0307919
-0.0247446
-0.000752635
0.00876544
-0.00242166
0.0185469
-0.00459578
0.0234928
-0.0070146
0.0257231
-0.00956703
0.0269546
-0.0122311
0.0280599
-0.0150168
0.029299
-0.0179405
0.0307143
-0.0210193
0.0323021
0.034037
-0.0242644
-0.000709948
0.00947539
-0.00231385
0.0201508
-0.00442607
0.025605
-0.00679079
0.0280878
-0.00929322
0.029457
-0.0119079
0.0306746
-0.0146435
0.0320345
-0.017516
0.0335868
-0.0205424
0.0353285
0.0372272
-0.0237326
-0.000663415
0.0101388
-0.00219571
0.0216831
-0.00423961
0.027649
-0.0065447
0.0303929
-0.00899221
0.0319045
-0.0115528
0.0332352
-0.0142335
0.0347152
-0.01705
0.0364032
-0.0200193
0.0382978
0.0403577
-0.0231498
-0.000613175
0.010752
-0.0020674
0.0231373
-0.0040365
0.0296181
-0.00627636
0.0326327
-0.00866405
0.0342922
-0.0111659
0.0357371
-0.013787
0.0373363
-0.0165428
0.039159
-0.0194505
0.0412055
0.0434245
-0.0225173
-0.000559392
0.0113114
-0.00192912
0.0245071
-0.00381687
0.0315058
-0.00598583
0.0348017
-0.00830881
0.0366152
-0.0107473
0.0381756
-0.0133043
0.0398933
-0.0159945
0.0418492
-0.0188365
0.0440474
0.046424
-0.0218361
-0.000502249
0.0118136
-0.00178111
0.0257859
-0.00358086
0.0333056
-0.00567319
0.036894
-0.00792655
0.0388686
-0.0102972
0.0405462
-0.0127853
0.0423814
-0.0154053
0.0444692
-0.0181776
0.0468197
0.0493542
-0.0211077
-0.000441959
0.0122556
-0.00162366
0.0269676
-0.00332867
0.0350106
-0.00533854
0.0389039
-0.00751738
0.0410474
-0.00981568
0.0428445
-0.0122306
0.0447963
-0.014775
0.0470137
-0.0174735
0.0495182
0.0522146
-0.020334
-0.000378763
0.0126343
-0.00145709
0.028046
-0.00306053
0.036614
-0.004982
0.0408254
-0.00708138
0.0431468
-0.00930296
0.0450661
-0.0116403
0.0471337
-0.0141033
0.0494767
-0.0167221
0.052137
0.0550093
-0.0195168
-0.00031293
0.0129473
-0.00128182
0.0290149
-0.00277673
0.0381089
-0.00460377
0.0426524
-0.00661873
0.0451617
-0.00875927
0.0472066
-0.0110156
0.04939
-0.0133924
0.0518534
-0.0159228
0.0546675
0.0577484
-0.018662
-0.000244771
0.013192
-0.00109831
0.0298684
-0.00247761
0.0394882
-0.00420406
0.0443789
-0.00612955
0.0470872
-0.00818437
0.0492614
-0.0103555
0.0515612
-0.0126392
0.0541371
-0.0150524
0.0570807
0.0604581
-0.0177621
-0.000174667
0.0133667
-0.000907071
0.0306008
-0.00216358
0.0407447
-0.0037832
0.0459985
-0.00561427
0.0489183
-0.00757904
0.0512262
-0.00966301
0.0536452
-0.0118671
0.0563412
-0.0141569
0.0593705
0.0631827
-0.0168815
-0.000103219
0.0134699
-0.000708584
0.0312062
-0.0018351
0.0418712
-0.00334154
0.0475049
-0.00507321
0.05065
-0.00694341
0.0530964
-0.00893179
0.0556335
-0.0110503
0.0584597
-0.0133089
0.0616292
0.0654088
-0.0155351
-3.22647e-05
0.0135022
-0.000502945
0.0316768
-0.00149277
0.0428611
-0.00287955
0.0488917
-0.00450655
0.052277
-0.00627808
0.0548679
-0.0081651
0.0575206
-0.0101755
0.0604701
-0.0123124
0.0637661
0.0676711
-0.0145747
4.31704e-05
0.013459
-0.00028893
0.0320089
-0.00113754
0.0437097
-0.00239782
0.050152
-0.00391482
0.053794
-0.00558408
0.0565372
-0.00736775
0.0593042
-0.00927124
0.0623736
-0.0113134
0.0658082
0.069831
-0.0134732
0.000118981
0.01334
-5.79325e-05
0.0321859
-0.0007711
0.0444228
-0.00189674
0.0512776
-0.00329876
0.055196
-0.00486244
0.0581009
-0.00654173
0.0609835
-0.00833886
0.0641707
-0.0102728
0.0677422
0.0718736
-0.0123154
0.000189586
0.0131505
0.000149387
0.0322261
-0.00039545
0.0449677
-0.00137691
0.0522591
-0.0026595
0.0564786
-0.00411375
0.0595551
-0.00568644
0.0625562
-0.00737509
0.0658593
-0.00919608
0.0695632
0.0737992
-0.0111217
0.000257927
0.0128925
0.000363151
0.0321208
1.35394e-05
0.0453173
-0.000840385
0.053113
-0.0019978
0.057636
-0.00333829
0.0608956
-0.00480154
0.0640195
-0.00637891
0.0674367
-0.00808406
0.0712683
0.0756103
-0.0098952
0.000325267
0.0125673
0.00057897
0.0318671
0.000383085
0.0455132
-0.000293592
0.0537897
-0.00131432
0.0586567
-0.00253672
0.062118
-0.00388751
0.0653703
-0.0053508
0.0689
-0.00693671
0.0728543
0.077302
-0.00862835
0.000389996
0.0121773
0.000794969
0.0314622
0.000779963
0.0455282
0.000269645
0.0543
-0.000610851
0.0595372
-0.00170995
0.0632171
-0.00294507
0.0666054
-0.00429152
0.0702465
-0.00575533
0.0743181
0.0788676
-0.00732096
0.000451317
0.011726
0.0010092
0.0309043
0.00118097
0.0453564
0.000844098
0.0546369
0.000111684
0.0602697
-0.00085883
0.0641876
-0.00197501
0.0677216
-0.0032017
0.0714731
-0.00454134
0.0756577
0.0803031
-0.00597681
0.000508308
0.0112176
0.00121861
0.030194
0.00158273
0.0449923
0.00143005
0.0547895
0.000853052
0.0608467
6.97399e-06
0.0650337
-0.000978625
0.0687072
-0.00208232
0.0725768
-0.00329604
0.0768714
0.0816061
-0.00459907
0.000559979
0.0106577
0.00142031
0.0293336
0.00198234
0.0444303
0.00202318
0.0547487
0.001612
0.0612578
0.00091149
0.0657342
3.5816e-05
0.0695828
-0.000935631
0.0735483
-0.00201984
0.0779556
0.0827765
-0.00319025
0.000605427
0.0100522
0.00161153
0.0283275
0.00237603
0.0436658
0.00262014
0.0545046
0.00238406
0.0614939
0.0018295
0.0662888
0.00109269
0.0703196
0.00023461
0.0744064
-0.000707685
0.0788979
0.0838259
-0.00175706
0.000643851
0.00940839
0.00178937
0.027182
0.00275943
0.0426957
0.00321676
0.0540473
0.00316644
0.0615442
0.00276607
0.0666891
0.00216371
0.070922
0.00144202
0.0751281
0.00062508
0.0797149
0.0847716
-0.000320597
0.000674547
0.00873384
0.00195084
0.0259057
0.0031277
0.0415188
0.0038081
0.0533669
0.00395542
0.0613969
0.00371832
0.0669262
0.00325601
0.0713843
0.00266539
0.0757187
0.00198204
0.0803982
0.0855396
0.00121398
0.000696941
0.0080369
0.00209272
0.0245099
0.00347552
0.040136
0.00438842
0.052454
0.00474627
0.0610391
0.00468296
0.0669895
0.00436735
0.0716999
0.00391242
0.0761736
0.00336979
0.0809408
0.0861547
0.00275472
0.00071064
0.00732626
0.00221191
0.0230087
0.0037971
0.0385509
0.00495103
0.0513
0.00553325
0.0604569
0.00565597
0.0668668
0.00549493
0.071861
0.00518019
0.0764884
0.00477681
0.0813442
0.0866255
0.00430597
0.000715459
0.0066108
0.00230566
0.0214185
0.00408626
0.0367703
0.00548826
0.049898
0.00630939
0.0596357
0.00663222
0.066544
0.006635
0.0718582
0.00646465
0.0766587
0.00620078
0.0816081
0.0869539
0.00587243
0.000711425
0.00589937
0.00237156
0.0197583
0.00433651
0.0348053
0.00599138
0.0482432
0.00706636
0.0585607
0.00760527
0.0660051
0.00778308
0.0716804
0.00776251
0.0766793
0.00764004
0.0817306
0.08714
0.00745393
0.000698785
0.00520059
0.0024077
0.0180494
0.00454128
0.0326717
0.0064507
0.0463337
0.00779429
0.0572172
0.00856726
0.0652321
0.00893386
0.0713138
0.00907052
0.0765426
0.00909252
0.0817086
0.0871833
0.00904916
0.000678018
0.00452257
0.00241288
0.0163146
0.00469424
0.0303904
0.00685563
0.0441723
0.00848169
0.0555911
0.00950857
0.0642052
0.0100807
0.0707416
0.0103846
0.0762387
0.0105555
0.0815376
0.0870826
0.0106562
0.000649829
0.00387274
0.00238684
0.0145775
0.00478971
0.0279875
0.00719496
0.0417671
0.00911534
0.0536707
0.0104175
0.0629031
0.0112152
0.0699439
0.0116993
0.0757546
0.0120255
0.0812114
0.0868355
0.0122727
0.000615128
0.00325762
0.00233033
0.0128623
0.00482316
0.0254947
0.00745728
0.039133
0.00968032
0.0514477
0.01128
0.0613034
0.0123267
0.0688972
0.0130078
0.0750735
0.0134982
0.080721
0.0864379
0.0138958
0.000574999
0.00268262
0.0022452
0.0111921
0.00479177
0.0229481
0.00763153
0.0362932
0.0101603
0.0489189
0.0120792
0.0593845
0.0134017
0.0675747
0.0143009
0.0741742
0.0149678
0.0800541
0.0858842
0.0155216
0.000530651
0.00215197
0.00213437
0.00958842
0.00469497
0.0203875
0.00770788
0.0332803
0.0105377
0.0460891
0.0127958
0.0571264
0.0144236
0.065947
0.015567
0.0730308
0.0164271
0.079194
0.0851661
0.0171452
0.000483359
0.00166861
0.0020017
0.00807008
0.0045349
0.0178543
0.00767878
0.0301364
0.010795
0.0429729
0.0134076
0.0545138
0.0153719
0.0639826
0.0167908
0.0716119
0.0178662
0.0781187
0.0842717
0.0187606
0.000434409
0.0012342
0.00185176
0.00665273
0.0043166
0.0153895
0.00754013
0.0269129
0.0109152
0.0395978
0.0138902
0.0515388
0.0162222
0.0616506
0.0179528
0.0698814
0.0192719
0.0767995
0.083184
0.0203596
0.000385034
0.000849164
0.00168953
0.00534823
0.00404791
0.0130311
0.00729253
0.0236683
0.0108843
0.0360061
0.0142179
0.0482051
0.0169458
0.0589228
0.0190283
0.0677989
0.0206268
0.075201
0.0818793
0.0219315
0.000336365
0.000512799
0.00152013
0.00416446
0.00373897
0.0108123
0.00694219
0.020465
0.0106924
0.0322558
0.0143654
0.0445322
0.0175099
0.0557783
0.0199867
0.065322
0.0219077
0.0732799
0.0803254
0.0234616
0.000289392
0.000223407
0.00134847
0.00310538
0.00340148
0.00875924
0.0065013
0.0173652
0.0103371
0.02842
0.0143097
0.0405597
0.0178791
0.0522088
0.0207911
0.0624101
0.0230844
0.0709866
0.07848
0.0249298
0.000244937
-2.15302e-05
0.00117904
0.00217128
0.00304772
0.00689056
0.00598745
0.0144255
0.00982491
0.0245825
0.0140343
0.0363503
0.0180176
0.0482255
0.0213986
0.059029
0.0241182
0.0682671
0.0762897
0.0263085
0.000203653
-0.000225183
0.00101573
0.0013592
0.0026896
0.00521669
0.00542218
0.0116929
0.00917273
0.020832
0.0135322
0.0319908
0.017892
0.0438657
0.0217615
0.0551595
0.0249613
0.0650673
0.0736898
0.0275612
0.000166008
-0.000391191
0.000861721
0.000663489
0.00233787
0.00374054
0.00482885
0.00920194
0.00840779
0.017253
0.0128109
0.0275877
0.0174776
0.039199
0.0218306
0.0508065
0.0255568
0.0613411
0.0706063
0.0286402
0.000132324
-0.000523515
0.000719461
7.63519e-05
0.00200156
0.00245844
0.00423031
0.0069732