/*--------------------------------*- C++ -*----------------------------------*\
  =========                 |
  \\      /  F ield         | OpenFOAM: The Open Source CFD Toolbox
   \\    /   O peration     | Website:  https://openfoam.org
    \\  /    A nd           | Version:  7
     \\/     M anipulation  |
\*---------------------------------------------------------------------------*/
FoamFile
{
    version     2.0;
    format      ascii;
    class       volVectorField;
    location    "25";
    object      U;
}
// * * * * * * * * * * * * * * * * * * * * * * * * * * * * * * * * * * * * * //

dimensions      [0 1 -1 0 0 0 0];

internalField   nonuniform List<vector> 
8500
(
(-0.00120527 0.00104429 7.6274e-22)
(-0.00670782 0.00240447 -2.1888e-21)
(-0.0170053 0.00320726 -2.55226e-21)
(-0.0291726 0.00359277 2.53664e-21)
(-0.0421165 0.00366957 -2.33306e-21)
(-0.0549773 0.00354429 -1.24362e-21)
(-0.0671959 0.00331912 2.12398e-21)
(-0.0786002 0.003091 2.63163e-21)
(-0.0892536 0.00294421 -4.31906e-22)
(-0.0994656 0.00294833 1.26978e-21)
(-0.00135647 0.0031165 -8.42576e-22)
(-0.00702 0.00717818 2.60224e-21)
(-0.0173473 0.00957658 -6.10256e-21)
(-0.0294531 0.0107277 5.53293e-21)
(-0.042259 0.0109547 2.46596e-22)
(-0.0549138 0.0105751 4.0588e-21)
(-0.0668597 0.00989411 -7.04931e-21)
(-0.077924 0.00920292 -1.03109e-20)
(-0.0881679 0.00875782 -2.01447e-21)
(-0.097869 0.00877279 4.56623e-21)
(-0.00165544 0.00514074 7.73597e-22)
(-0.0076382 0.0118485 5.70488e-21)
(-0.0180251 0.015813 1.34382e-20)
(-0.030009 0.0177139 -1.21554e-20)
(-0.0425406 0.0180808 -2.74073e-21)
(-0.0547854 0.0174358 -2.49442e-21)
(-0.0661871 0.0162824 1.27358e-20)
(-0.0765715 0.0151071 7.92023e-21)
(-0.085996 0.0143484 1.93238e-21)
(-0.0946621 0.0143806 -1.41495e-20)
(-0.00209551 0.00708711 2.7426e-21)
(-0.00855021 0.0163499 -3.35069e-21)
(-0.0190266 0.0218316 -2.50235e-20)
(-0.0308301 0.0244555 2.21422e-21)
(-0.0429538 0.0249454 6.86203e-21)
(-0.0545874 0.0240165 -5.33147e-21)
(-0.0651763 0.0223631 -2.79101e-22)
(-0.0745406 0.0206668 -2.16251e-21)
(-0.0827353 0.0195654 4.90469e-21)
(-0.0898143 0.0196201 1.41094e-20)
(-0.00266711 0.00892864 1.9072e-21)
(-0.00973816 0.020622 -1.07479e-20)
(-0.0203332 0.0275526 2.58407e-20)
(-0.0318996 0.030862 -1.17427e-20)
(-0.0434847 0.0314512 -4.93288e-23)
(-0.0543095 0.0302133 1.62161e-20)
(-0.0638195 0.0280207 -7.44638e-21)
(-0.0718223 0.0257489 8.47207e-22)
(-0.0783777 0.0242567 -3.05478e-21)
(-0.0832721 0.0243296 1.1105e-21)
(-0.0033583 0.0106422 2.27658e-20)
(-0.0111789 0.0246107 2.7624e-20)
(-0.0219195 0.0329031 -7.06813e-21)
(-0.0331926 0.0368493 1.34761e-20)
(-0.0441101 0.0375081 4.231e-21)
(-0.0539307 0.0359304 -6.04426e-21)
(-0.0620972 0.0331493 -2.32837e-21)
(-0.0683923 0.0302281 -1.0122e-20)
(-0.0729024 0.0282705 2.19285e-21)
(-0.0749486 0.0283342 -1.30879e-20)
(-0.00415535 0.0122089 -2.19391e-20)
(-0.0128446 0.0282696 -1.43922e-20)
(-0.0237528 0.0378179 1.17235e-20)
(-0.0346744 0.0423417 -2.02849e-20)
(-0.0447936 0.0430349 2.30887e-21)
(-0.0534129 0.0410832 2.3761e-20)
(-0.0599682 0.0376567 -4.28059e-21)
(-0.0641982 0.0339934 2.80179e-20)
(-0.0662638 0.0314604 -5.75461e-22)
(-0.0647081 0.0314449 -1.14144e-20)
(-0.00504326 0.0136144 1.83639e-20)
(-0.014703 0.03156 -3.31947e-20)
(-0.0257924 0.0422405 -1.31994e-20)
(-0.0362975 0.0472718 1.54813e-20)
(-0.0454802 0.0479607 5.14732e-22)
(-0.0526922 0.045601 -4.45878e-20)
(-0.0573575 0.0414699 -2.64453e-21)
(-0.0591404 0.0369581 -2.20967e-20)
(-0.0583722 0.0336986 -2.84803e-20)
(-0.0523462 0.0334795 1.68405e-20)
(-0.00600641 0.014849 -1.02609e-20)
(-0.0167179 0.0344512 4.95006e-21)
(-0.0279886 0.046123 1.21837e-20)
(-0.0379987 0.0515813 -1.08869e-20)
(-0.0460904 0.0522249 -3.82315e-20)
(-0.0516678 0.0494282 1.3168e-20)
(-0.0541384 0.0445403 1.91013e-21)
(-0.0530449 0.0390714 3.32139e-20)
(-0.0490538 0.034895 4.36837e-20)
(-0.0375872 0.0343756 -1.97332e-20)
(-0.00702899 0.0159068 1.61362e-20)
(-0.0188496 0.0369197 1.46905e-20)
(-0.030282 0.0494253 -2.11028e-21)
(-0.0396962 0.05522 5.42363e-20)
(-0.0465137 0.0557773 2.30517e-20)
(-0.050191 0.0525252 1.73002e-20)
(-0.0501135 0.0468459 2.45459e-20)
(-0.0456269 0.0403229 -1.07904e-20)
(-0.0379283 0.0349705 -1.4593e-20)
(-0.020084 0.0343545 -2.41148e-20)
(-0.00809543 0.0167858 -1.51542e-21)
(-0.0210547 0.0389487 -2.31924e-20)
(-0.032602 0.0521142 -1.67016e-20)
(-0.0412863 0.0581445 -2.67818e-20)
(-0.0466018 0.0585758 -2.12085e-20)
(-0.0480527 0.0548672 2.13963e-20)
(-0.0449992 0.0483949 -2.0547e-20)
(-0.0364968 0.040758 -1.42171e-20)
(-0.0242125 0.033781 1.86241e-21)
(0.00093903 0.0334271 6.31939e-21)
(-0.00919069 0.0174866 -4.44054e-20)
(-0.0232867 0.0405263 2.12178e-20)
(-0.0348662 0.0541623 1.54744e-20)
(-0.0426399 0.0603168 1.03525e-20)
(-0.0461628 0.0605845 -1.88659e-20)
(-0.0449721 0.0564418 -1.59565e-20)
(-0.0384005 0.0492305 2.31065e-20)
(-0.0252428 0.0405343 -1.88539e-20)
(-0.00712934 0.0315586 -1.08129e-21)
(0.0270252 0.0313845 -1.98327e-20)
(-0.0103004 0.0180124 3.71651e-20)
(-0.025495 0.0416453 1.5113e-20)
(-0.0369784 0.0555464 8.91977e-22)
(-0.0436003 0.0617022 -1.88676e-20)
(-0.0449556 0.06177 1.34305e-21)
(-0.0405849 0.0572416 2.10017e-20)
(-0.0297431 0.0494138 -5.97436e-21)
(-0.0110872 0.0397873 -7.30233e-21)
(0.0140179 0.0288043 -1.656e-20)
(0.0596145 0.028586 3.02379e-20)
(-0.011411 0.0183679 2.51161e-20)
(-0.0276248 0.0423013 -4.07732e-20)
(-0.0388276 0.0562476 -3.1453e-20)
(-0.0439799 0.0622697 1.36006e-20)
(-0.0426868 0.0621 2.77768e-20)
(-0.0344531 0.0572549 2.36011e-20)
(-0.0183884 0.0489909 -2.51306e-20)
(0.00701144 0.0386437 4.8771e-20)
(0.04056 0.0258207 -1.46971e-20)
(0.100191 0.0260676 -3.55278e-20)
(-0.0125092 0.0185589 -3.77439e-20)
(-0.0296157 0.0424929 2.2735e-20)
(-0.0402854 0.0562511 -1.09055e-20)
(-0.0435575 0.0619929 1.14384e-21)
(-0.0390061 0.0615458 1.16947e-20)
(-0.0260462 0.0564732 -3.72369e-20)
(-0.00357216 0.04803 3.31119e-20)
(0.0301124 0.0373666 -3.22534e-20)
(0.074193 0.0229138 5.18692e-20)
(0.150342 0.0250871 1.89155e-20)
(-0.0135817 0.0185917 7.99576e-21)
(-0.0313994 0.0422206 4.41816e-20)
(-0.0412023 0.055548 -1.11179e-20)
(-0.0420732 0.0608554 1.12655e-20)
(-0.0335033 0.0600886 1.31432e-20)
(-0.0147474 0.0548924 -3.95481e-21)
(0.015605 0.0465886 2.84293e-20)
(0.0593643 0.036168 1.43577e-21)
(0.116798 0.0205413 -3.3296e-20)
(0.211187 0.0269412 4.51497e-20)
(-0.014614 0.0184722 -2.13825e-20)
(-0.0328966 0.0414866 -4.18547e-20)
(-0.0414034 0.0541395 3.63359e-20)
(-0.0392222 0.0588567 1.82384e-20)
(-0.0257016 0.0577321 -8.46915e-20)
(0.000146089 0.0525331 6.91399e-20)
(0.0401421 0.0447455 -6.25605e-20)
(0.0959569 0.0351985 9.7974e-22)
(0.17031 0.0193641 -1.41909e-20)
(0.282529 0.0327518 -4.1828e-20)
(-0.0155894 0.0182055 1.85108e-20)
(-0.0340118 0.0402958 -2.50823e-21)
(-0.0406823 0.0520403 -8.92354e-21)
(-0.0346477 0.0560208 -1.03714e-21)
(-0.0150495 0.05452 -5.28649e-21)
(0.0194262 0.0494684 -2.20347e-20)
(0.0711173 0.0426399 9.41084e-21)
(0.141093 0.0345717 -1.48493e-20)
(0.236435 0.0205119 4.43593e-21)
(0.361894 0.0434833 1.23931e-21)
(-0.0164872 0.017795 -3.7793e-20)
(-0.0346328 0.0386595 -2.72634e-21)
(-0.0387905 0.0492771 4.1357e-21)
(-0.027933 0.0524057 1.68632e-21)
(-0.000915269 0.0505543 2.77577e-20)
(0.0439719 0.0458544 -8.10219e-20)
(0.109651 0.0404997 5.47095e-20)
(0.196072 0.0343933 -4.10726e-20)
(0.316339 0.0257351 3.46105e-20)
(0.444692 0.0591307 3.8243e-20)
(-0.017276 0.01724 -4.59678e-21)
(-0.0346248 0.0365898 2.10536e-20)
(-0.0354377 0.0458944 -2.64355e-20)
(-0.018596 0.0481137 -8.28654e-21)
(0.0174085 0.046011 1.59902e-20)
(0.0747179 0.0419548 7.70547e-20)
(0.156773 0.0386516 -1.55005e-20)
(0.262178 0.0349248 7.53536e-21)
(0.409952 0.0366007 -4.00873e-20)
(0.52872 0.0739766 1.86051e-20)
(-0.0179114 0.0165363 -1.38172e-20)
(-0.033819 0.0341009 -1.07503e-20)
(-0.0302889 0.0419618 2.65228e-21)
(-0.00609411 0.0432944 1.04373e-20)
(0.0406863 0.0411509 -3.09353e-20)
(0.112594 0.0381631 -1.25382e-20)
(0.213232 0.0375536 -3.95043e-20)
(0.339926 0.0369347 4.07854e-20)
(0.513033 0.0519382 4.3101e-20)
(0.620804 0.074983 -1.81003e-20)
(-0.018338 0.0156797 -6.59119e-21)
(-0.0320124 0.0312109 2.68611e-20)
(-0.0229604 0.0375695 -3.00561e-20)
(0.0101666 0.0381464 -3.51023e-21)
(0.0697059 0.0363199 -1.41898e-20)
(0.158446 0.0350096 3.09711e-20)
(0.279425 0.0378511 4.00337e-20)
(0.428444 0.0417171 -3.84598e-20)
(0.615738 0.0649375 4.11109e-20)
(0.747063 0.0722597 5.88669e-21)
(-0.0184875 0.0146621 -1.91134e-20)
(-0.0289706 0.0279432 -5.43495e-20)
(-0.0130269 0.0328315 5.30734e-20)
(0.0308097 0.0329155 7.64617e-21)
(0.105223 0.0319381 1.12039e-20)
(0.212912 0.0331224 6.76551e-21)
(0.355255 0.0402906 3.05949e-20)
(0.525274 0.0501522 2.26069e-20)
(0.720001 0.0779214 -7.98955e-20)
(0.867326 0.0863004 -3.98337e-20)
(-0.018273 0.0134732 -6.53869e-20)
(-0.02443 0.0243324 1.31667e-20)
(-3.52525e-05 0.0278875 -3.00244e-20)
(0.0564539 0.027891 5.84573e-21)
(0.147881 0.0284802 9.38517e-21)
(0.276245 0.0331625 -6.75078e-20)
(0.439848 0.0455804 2.98523e-20)
(0.626907 0.0622517 -2.02939e-20)
(0.82288 0.0930146 2.12327e-20)
(0.971256 0.104777 -7.63404e-21)
(-0.0175922 0.0121065 2.36769e-20)
(-0.0181018 0.0204282 2.56095e-20)
(0.0164778 0.0229068 -1.4711e-21)
(0.0876683 0.0234034 -8.22051e-21)
(0.198117 0.0264566 3.14951e-22)
(0.348147 0.0357518 6.64421e-22)
(0.531289 0.054204 -4.54313e-20)
(0.729308 0.0774921 5.80441e-21)
(0.919349 0.109993 5.73029e-20)
(1.05945 0.12388 2.64663e-20)
(-0.0163295 0.0105619 -1.60606e-20)
(-0.00968014 0.0163024 -1.18891e-20)
(0.0369632 0.0180932 5.11822e-20)
(0.12492 0.0198231 1.30899e-21)
(0.25605 0.0263901 -2.14668e-20)
(0.427631 0.0413954 5.77946e-20)
(0.626696 0.0662757 1.27884e-20)
(0.828239 0.095105 8.78307e-22)
(1.00572 0.127949 -2.49952e-20)
(1.13031 0.142337 -3.33962e-20)
(-0.0143588 0.00885047 3.36827e-20)
(0.00114642 0.0120561 -9.36066e-21)
(0.0618332 0.013692 -5.59233e-21)
(0.168517 0.0175579 -2.1275e-20)
(0.321385 0.0287864 3.49408e-20)
(0.512969 0.0503978 -1.70885e-20)
(0.722583 0.0814955 -1.93516e-20)
(0.919992 0.114215 -4.47585e-21)
(1.07972 0.145985 -1.44972e-20)
(1.18521 0.159311 1.62609e-20)
(-0.0115473 0.0069973 -1.23883e-20)
(0.0146814 0.00782656 -7.38473e-20)
(0.0914305 0.00999334 7.67856e-21)
(0.218546 0.0170455 2.65385e-20)
(0.393331 0.0340867 1.89856e-20)
(0.601782 0.0627964 -6.3565e-20)
(0.815422 0.0992457 4.10438e-20)
(1.0019 0.133979 -1.87937e-20)
(1.1407 0.163418 2.89153e-20)
(1.22613 0.174623 8.18594e-21)
(-0.00775991 0.00504482 -1.3637e-20)
(0.0312049 0.0037916 2.61881e-20)
(0.125995 0.00733289 3.42396e-20)
(0.27482 0.0187349 -2.45368e-20)
(0.470573 0.0426067 9.16255e-21)
(0.691294 0.0783474 -5.60425e-20)
(0.902177 0.118767 -1.03471e-20)
(1.07254 0.153707 9.01995e-21)
(1.18919 0.179855 -2.20193e-20)
(1.25547 0.188328 -2.28748e-20)
(-0.0028648 0.00305458 -1.76805e-20)
(0.0509564 0.000171603 -6.02413e-21)
(0.16563 0.00608575 -6.21514e-20)
(0.33682 0.0230545 -9.76466e-21)
(0.551333 0.0544782 -1.07759e-21)
(0.778705 0.0965839 3.31032e-21)
(0.980652 0.139322 5.74552e-21)
(1.13156 0.172924 -2.84159e-20)
(1.22645 0.195144 5.06207e-22)
(1.27557 0.200653 1.5754e-20)
(0.00326183 0.00110775 -4.6437e-21)
(0.0741156 -0.00277236 2.15801e-20)
(0.210264 0.00665348 3.04018e-20)
(0.403682 0.0303676 1.9033e-20)
(0.633521 0.0696228 -5.62658e-21)
(0.861538 0.116923 -4.72902e-21)
(1.04958 0.160302 4.72116e-20)
(1.17946 0.191349 6.57733e-21)
(1.25406 0.209303 2.17718e-20)
(1.28852 0.211876 -9.59981e-21)
(0.0107286 -0.000694456 4.4398e-20)
(0.100783 -0.00474345 2.86526e-20)
(0.259625 0.00944317 -2.90643e-20)
(0.47421 0.0409257 -5.79371e-21)
(0.714959 0.087774 3.0764e-21)
(0.937884 0.138773 -1.12057e-20)
(1.1085 0.181256 -2.43442e-20)
(1.21721 0.208867 -3.97667e-21)
(1.27366 0.222453 2.69295e-22)
(1.29601 0.222277 1.04223e-20)
(0.0196218 -0.00223276 5.57373e-21)
(0.130961 -0.00541888 -1.56655e-20)
(0.31322 0.0148393 3.71177e-20)
(0.546948 0.0548343 2.4194e-20)
(0.793606 0.108538 8.08025e-22)
(1.00648 0.161607 1.73138e-20)
(1.15761 0.201887 2.51499e-21)
(1.24603 0.225477 -1.8701e-20)
(1.28678 0.234766 1.6134e-20)
(1.29942 0.232106 -2.72961e-23)
(0.0299997 -0.00337245 -3.68067e-20)
(0.164539 -0.00446231 -1.08316e-20)
(0.370337 0.0231718 -9.75541e-21)
(0.620295 0.0720447 -1.70384e-20)
(0.867742 0.131464 4.08085e-21)
(1.06667 0.184997 1.08279e-22)
(1.1975 0.222024 1.35889e-20)
(1.26721 0.241251 -2.15576e-21)
(1.29473 0.246431 -1.65853e-20)
(1.29977 0.241571 -1.57993e-20)
(0.0418852 -0.00396674 3.00752e-21)
(0.201281 -0.00153964 1.76073e-20)
(0.430066 0.0346852 8.55682e-21)
(0.692639 0.0923724 -2.67479e-20)
(0.936056 0.156102 -1.35169e-21)
(1.11829 0.208617 -1.16904e-20)
(1.229 0.241591 3.03683e-22)
(1.28197 0.256302 5.55223e-21)
(1.2986 0.257624 -6.3018e-21)
(1.29779 0.250829 1.78238e-20)
(0.0552602 -0.00386143 7.11422e-21)
(0.240824 0.00366279 -1.72985e-20)
(0.491344 0.0495172 -4.08396e-20)
(0.762477 0.115534 3.76888e-20)
(0.997663 0.18204 -2.83634e-21)
(1.16154 0.232229 8.39874e-21)
(1.25303 0.260575 -1.21059e-21)
(1.2914 0.270754 8.28531e-21)
(1.29926 0.268497 -5.91404e-22)
(1.29402 0.259988 -1.38337e-20)
(0.0700615 -0.00290042 -1.45412e-20)
(0.282679 0.011419 2.25991e-20)
(0.553019 0.0676885 1.86062e-20)
(0.828516 0.141185 -2.69885e-20)
(1.05206 0.208912 -4.53218e-21)
(1.19687 0.255667 1.71678e-21)
(1.27054 0.279002 1.75953e-20)
(1.29642 0.28473 9.11736e-22)
(1.29735 0.279169 3.51189e-21)
(1.28882 0.269116 -7.58836e-21)
(0.0861778 -0.000932012 1.10363e-20)
(0.326244 0.021945 -9.90185e-21)
(0.61392 0.0891076 -8.47745e-21)
(0.88971 0.168954 1.4553e-20)
(1.09905 0.236407 5.03829e-21)
(1.22484 0.278818 3.8562e-21)
(1.28238 0.296918 -1.79462e-20)
(1.29781 0.298332 -6.22755e-21)
(1.29336 0.289725 -5.62382e-21)
(1.28242 0.278244 2.49539e-21)
(0.10345 0.0021843 -5.55522e-21)
(0.37083 0.0353838 -1.27024e-22)
(0.67292 0.113585 1.60624e-20)
(0.94528 0.198462 -5.88229e-21)
(1.13869 0.264258 -2.636e-21)
(1.24609 0.301606 -1.73995e-21)
(1.28932 0.314369 4.36116e-21)
(1.29616 0.311643 7.586e-21)
(1.28764 0.300215 -2.39746e-22)
(1.27497 0.287375 2.82591e-21)
(0.121674 0.00657082 3.92168e-21)
(0.415685 0.0517946 -1.09988e-21)
(0.728993 0.14085 -2.88536e-21)
(0.994694 0.229338 -2.62405e-21)
(1.17118 0.292235 2.3818e-21)
(1.26125 0.323976 1.87174e-21)
(1.29204 0.331397 -1.73028e-21)
(1.29196 0.324715 6.3436e-22)
(1.28042 0.310657 8.97202e-22)
(1.26656 0.296483 -1.2052e-21)
(0.140602 0.0123249 2.13297e-21)
(0.460027 0.0711487 6.0357e-22)
(0.781246 0.170573 -3.62134e-21)
(1.03763 0.261222 -2.90292e-21)
(1.19685 0.320137 3.03517e-21)
(1.27094 0.34588 5.95906e-22)
(1.2911 0.348026 -1.3978e-21)
(1.28555 0.337572 1.31531e-21)
(1.27188 0.32104 7.38931e-22)
(1.25724 0.30553 -8.58119e-22)
(0.159955 0.0195129 -8.28666e-22)
(0.503076 0.0933297 1.69324e-21)
(0.828943 0.20238 1.12066e-20)
(1.07395 0.293769 -5.02784e-21)
(1.21607 0.347784 -2.45233e-21)
(1.2757 0.367274 -2.77801e-21)
(1.28695 0.364263 5.70143e-21)
(1.2772 0.350214 3.83259e-21)
(1.26211 0.331329 3.07856e-21)
(1.24705 0.314463 1.69239e-21)
(0.179425 0.0281654 1.7226e-20)
(0.544086 0.11814 -9.42976e-21)
(0.871505 0.235869 -1.06938e-20)
(1.10365 0.326649 1.46041e-20)
(1.22925 0.375007 7.71869e-21)
(1.27604 0.388105 -5.16626e-22)
(1.27997 0.380091 -9.53589e-21)
(1.2671 0.362611 -6.88732e-21)
(1.25118 0.341468 -7.22178e-21)
(1.23602 0.323218 4.31525e-21)
(0.198689 0.0382742 -2.33421e-20)
(0.582368 0.145308 2.18772e-20)
(0.908509 0.270621 2.52382e-20)
(1.12684 0.359542 -2.4898e-20)
(1.23682 0.401647 -8.6055e-21)
(1.2724 0.408314 5.53245e-21)
(1.27044 0.395474 1.00373e-20)
(1.2554 0.374712 1.57862e-21)
(1.23914 0.351378 -2.81779e-22)
(1.22415 0.331721 -5.89555e-21)
(0.217418 0.0497906 -3.39507e-21)
(0.61731 0.174502 -3.09077e-20)
(0.93967 0.306204 -3.30951e-20)
(1.14369 0.392144 3.71881e-20)
(1.23917 0.427546 -4.22713e-21)
(1.26514 0.427826 7.74335e-21)
(1.25861 0.410357 1.5177e-21)
(1.24218 0.386446 -4.29919e-21)
(1.22601 0.360968 2.30271e-21)
(1.21143 0.339887 -2.86165e-22)
(0.235286 0.0626262 6.88035e-21)
(0.648392 0.205338 1.92238e-20)
(0.96483 0.342189 1.08654e-20)
(1.15444 0.424158 -8.56686e-21)
(1.2367 0.452548 -1.33409e-20)
(1.25461 0.446558 -1.23767e-20)
(1.24467 0.424668 -2.49311e-21)
(1.22753 0.397734 6.5868e-21)
(1.21178 0.370143 -1.38135e-21)
(1.19775 0.347632 3.24306e-21)
(0.251979 0.0766546 -2.61758e-20)
(0.675192 0.237395 -2.42633e-20)
(0.983941 0.378146 -3.87318e-21)
(1.15938 0.455299 -4.35833e-21)
(1.22979 0.476495 -9.84507e-21)
(1.2411 0.464411 5.9822e-21)
(1.22877 0.438322 -1.08932e-21)
(1.21151 0.408492 -5.79589e-21)
(1.19645 0.37885 5.26846e-21)
(1.18295 0.35489 -7.53713e-21)
(0.267206 0.0917152 6.15588e-21)
(0.697387 0.270225 2.06183e-20)
(0.997044 0.413652 1.79339e-20)
(1.15881 0.485294 1.94614e-20)
(1.21877 0.499225 3.88768e-22)
(1.22485 0.481276 1.68211e-20)
(1.21104 0.451217 1.06998e-21)
(1.19417 0.41863 -1.95474e-20)
(1.18007 0.387088 1.39665e-20)
(1.16705 0.361607 5.25889e-21)
(0.280706 0.107617 1.7021e-20)
(0.714762 0.303368 3.79169e-20)
(1.00426 0.448295 -4.99835e-21)
(1.15307 0.513875 -2.45324e-20)
(1.20399 0.520577 1.10182e-20)
(1.20608 0.497033 -1.13869e-20)
(1.19159 0.463238 -1.50009e-20)
(1.17557 0.428024 -1.17294e-21)
(1.16266 0.394801 -1.14539e-20)
(1.15048 0.367652 4.43883e-21)
(0.292254 0.124144 8.02261e-21)
(0.727193 0.33636 5.96528e-21)
(1.00577 0.481681 4.73083e-20)
(1.14247 0.54079 8.80787e-21)
(1.18574 0.540389 -7.62724e-21)
(1.18497 0.511557 -3.89438e-21)
(1.17053 0.474258 2.27701e-20)
(1.15586 0.436573 1.85486e-20)
(1.14422 0.401755 9.20123e-21)
(1.13335 0.373072 -1.20616e-21)
(0.301665 0.14106 1.67788e-21)
(0.734643 0.368744 -3.88606e-20)
(1.0018 0.513431 -5.56476e-20)
(1.12738 0.565799 1.69036e-21)
(1.16431 0.558511 1.07292e-20)
(1.16171 0.52471 -1.47722e-20)
(1.14809 0.484154 -3.3023e-20)
(1.13503 0.444173 -9.72622e-21)
(1.12478 0.407855 -5.70539e-22)
(1.11556 0.377676 4.36125e-21)
(0.308798 0.158116 -1.39339e-20)
(0.737155 0.400075 3.50589e-20)
(0.992649 0.543184 3.34472e-20)
(1.10816 0.588673 -3.06182e-20)
(1.14 0.574795 4.68946e-21)
(1.13659 0.536348 3.50955e-20)
(1.12431 0.492794 -7.41473e-21)
(1.11307 0.450729 6.3196e-21)
(1.10447 0.412984 -2.81268e-21)
(1.0971 0.381383 -3.77063e-21)
(0.313556 0.175059 -3.13874e-20)
(0.734844 0.429934 -5.52125e-20)
(0.978649 0.570607 -1.07945e-20)
(1.08515 0.609185 1.76229e-20)
(1.1131 0.589059 1.69376e-20)
(1.10975 0.546363 -3.47234e-20)
(1.09925 0.500056 1.84829e-20)
(1.09014 0.456116 -9.12585e-21)
(1.08335 0.417051 7.08345e-21)
(1.07802 0.384106 3.48071e-22)
(0.315889 0.191633 2.39588e-20)
(0.727919 0.457923 1.72215e-21)
(0.960217 0.595435 -5.32807e-21)
(1.05862 0.627095 -2.16043e-20)
(1.08384 0.601147 1.35506e-20)
(1.08134 0.554593 3.15358e-21)
(1.07307 0.505839 -9.99297e-21)
(1.06632 0.460232 2.1442e-21)
(1.06151 0.419956 -1.60133e-21)
(1.05842 0.38577 3.52635e-22)
(0.315803 0.20758 -6.52087e-21)
(0.716677 0.483656 -8.99397e-21)
(0.937729 0.617463 2.30492e-20)
(1.02881 0.642207 1.06169e-20)
(1.05252 0.610867 -1.42205e-20)
(1.05156 0.560909 1.87815e-20)
(1.0459 0.510023 1.63544e-21)
(1.04172 0.462978 2.14601e-21)
(1.03903 0.421598 1.60531e-21)
(1.03835 0.386281 3.17361e-22)
(0.31336 0.222641 4.21579e-20)
(0.701446 0.506772 3.23681e-20)
(0.911214 0.636286 -2.45349e-21)
(0.99632 0.654529 -4.78903e-21)
(1.01948 0.618067 -5.67751e-21)
(1.02061 0.565185 -2.68788e-21)
(1.0179 0.512506 2.09083e-21)
(1.01644 0.464267 1.18635e-21)
(1.01599 0.421881 -1.15882e-21)
(1.0179 0.385539 -3.38568e-21)
(0.308645 0.236559 3.244e-21)
(0.682431 0.527143 5.47806e-21)
(0.880995 0.651555 -2.92633e-20)
(0.961609 0.663749 1.26871e-20)
(0.984936 0.622738 2.52108e-21)
(0.988671 0.567328 -5.22901e-21)
(0.989191 0.513189 2.06026e-21)
(0.990602 0.464021 1.11105e-21)
(0.992517 0.420734 -3.60587e-21)
(0.997284 0.38349 4.33219e-21)
(0.301732 0.249019 -1.60493e-20)
(0.659822 0.544402 -1.14204e-20)
(0.84792 0.663406 8.96104e-21)
(0.924955 0.669661 1.87626e-21)
(0.949169 0.624742 -5.09381e-21)
(0.955944 0.567244 3.99486e-21)
(0.959917 0.511977 2.29343e-21)
(0.964292 0.462144 -8.56171e-21)
(0.968856 0.418085 2.09909e-20)
(0.977149 0.380157 8.38938e-21)
(0.292698 0.259799 -1.21069e-20)
(0.633938 0.558104 2.90221e-20)
(0.812434 0.671603 -1.79599e-20)
(0.886678 0.672252 -2.91382e-21)
(0.912432 0.623991 -2.25922e-21)
(0.922613 0.564853 -1.38338e-21)
(0.930186 0.508785 -7.71442e-21)
(0.93763 0.458499 4.07155e-21)
(0.94541 0.41374 -7.73561e-22)
(0.958168 0.37558 -3.76881e-21)
(0.281767 0.268757 -1.19547e-21)
(0.605328 0.568112 -8.70466e-21)
(0.774879 0.675953 4.07799e-21)
(0.847123 0.671452 -1.7498e-21)
(0.87499 0.620417 5.03285e-21)
(0.888861 0.560099 4.73801e-21)
(0.900118 0.50356 1.47001e-20)
(0.910797 0.452978 -1.10505e-20)
(0.92252 0.407322 -2.09934e-20)
(0.939638 0.369116 8.96961e-21)
(0.269151 0.275783 -6.09448e-22)
(0.574429 0.574299 -2.26729e-21)
(0.735669 0.676326 9.39565e-22)
(0.806646 0.667205 6.49104e-21)
(0.83711 0.613975 -1.14577e-20)
(0.854882 0.552948 -1.89082e-20)
(0.869897 0.496298 -5.6447e-21)
(0.884058 0.445695 -1.48579e-21)
(0.900177 0.399014 2.81955e-20)
(0.918825 0.357052 -6.07372e-21)
(0.255037 0.280723 7.58408e-22)
(0.54168 0.576557 -3.92048e-21)
(0.69523 0.672655 3.48241e-22)
(0.765597 0.659472 7.32853e-22)
(0.799058 0.604634 -8.1491e-21)
(0.820892 0.543367 3.59986e-20)
(0.839776 0.486963 -2.51616e-20)
(0.857626 0.436732 3.0112e-20)
(0.877329 0.390679 -2.11449e-20)
(0.895652 0.350176 -2.79002e-20)
(0.239658 0.283456 -1.11514e-21)
(0.507519 0.574808 -8.32008e-22)
(0.65399 0.664915 3.98552e-22)
(0.724324 0.64824 1.2827e-20)
(0.761102 0.592385 -5.28348e-21)
(0.787116 0.531334 8.09517e-21)
(0.809957 0.4755 1.47738e-20)
(0.831536 0.425814 -7.78645e-21)
(0.854369 0.380201 -2.02693e-20)
(0.873667 0.339926 2.79773e-20)
(0.223264 0.283897 1.04389e-20)
(0.472376 0.569009 1.38664e-20)
(0.612369 0.653112 -1.33538e-20)
(0.683171 0.633525 -1.18842e-20)
(0.723507 0.577236 4.18584e-20)
(0.753768 0.516856 -4.26177e-20)
(0.78059 0.461949 5.1118e-20)
(0.805801 0.413156 -1.28371e-20)
(0.831482 0.368523 1.376e-20)
(0.852388 0.329347 2.55837e-20)
(0.206109 0.281989 -3.86238e-21)
(0.436681 0.559157 -1.35091e-20)
(0.570781 0.637287 -8.1447e-21)
(0.642471 0.615367 -4.53781e-21)
(0.686539 0.559217 5.10506e-21)
(0.721069 0.499951 -1.10922e-20)
(0.751846 0.446311 -1.52957e-20)
(0.780581 0.398692 -3.32825e-20)
(0.809001 0.355281 3.30216e-20)
(0.831903 0.31739 -1.06486e-20)
(0.188455 0.277704 2.52099e-20)
(0.400856 0.545285 -3.0509e-21)
(0.529626 0.617508 -1.14537e-20)
(0.60255 0.593829 1.47849e-20)
(0.650454 0.538378 -2.65965e-20)
(0.689226 0.480659 7.11874e-20)
(0.72389 0.42863 -3.79854e-20)
(0.756039 0.382494 3.44641e-20)
(0.787138 0.340609 -6.32949e-20)
(0.81224 0.30419 -1.67734e-20)
(0.17056 0.271042 -7.99977e-21)
(0.365315 0.527464 2.67883e-20)
(0.489292 0.593874 6.304e-21)
(0.563724 0.569002 -1.37426e-20)
(0.615503 0.514789 -2.37375e-20)
(0.658445 0.459036 -8.63833e-22)
(0.696893 0.408951 1.26765e-20)
(0.732335 0.364592 -3.10362e-20)
(0.766046 0.324484 1.52872e-20)
(0.793446 0.289682 2.02709e-21)
(0.152683 0.262032 -4.38595e-20)
(0.330459 0.505802 -1.07915e-20)
(0.45015 0.566513 -2.97529e-21)
(0.526295 0.540997 3.54209e-20)
(0.581929 0.488541 -3.29591e-20)
(0.628925 0.435156 -8.59165e-21)
(0.671024 0.387339 -5.23105e-21)
(0.709626 0.345042 9.68279e-21)
(0.745862 0.306944 -1.22492e-20)
(0.775591 0.273899 -1.91032e-20)
(0.135075 0.25073 3.87917e-20)
(0.296672 0.480437 -2.20679e-20)
(0.412556 0.535579 1.09178e-21)
(0.490552 0.50995 -5.37083e-20)
(0.549964 0.459744 5.83594e-20)
(0.600858 0.409109 -1.84943e-20)
(0.646446 0.36387 1.10919e-20)
(0.688056 0.323904 9.65105e-21)
(0.726708 0.288029 2.80115e-20)
(0.758749 0.256884 -1.15036e-20)
(0.11798 0.237216 -1.57936e-20)
(0.264319 0.451542 4.5766e-20)
(0.376844 0.501255 2.58302e-20)
(0.456766 0.476018 4.23522e-20)
(0.519828 0.428526 -9.83741e-21)
(0.574427 0.381003 3.94644e-21)
(0.623315 0.338637 3.19371e-20)
(0.667761 0.301254 7.12889e-21)
(0.708701 0.267799 6.85966e-22)
(0.742997 0.238699 -1.37573e-20)
(0.101629 0.221596 -3.63277e-20)
(0.233745 0.419318 -2.67702e-21)
(0.343329 0.463747 -1.51699e-20)
(0.425193 0.439377 -6.8172e-20)
(0.491728 0.395033 -6.60005e-20)
(0.549806 0.350961 1.10215e-20)
(0.601781 0.311744 -2.71986e-20)
(0.64887 0.277179 1.73914e-20)
(0.691947 0.246326 9.46258e-21)
(0.728409 0.219421 1.97668e-20)
(0.086242 0.203998 5.33634e-20)
(0.205269 0.383996 -4.3686e-20)
(0.3123 0.423284 -2.22152e-20)
(0.396071 0.400224 3.94086e-20)
(0.465857 0.359429 4.49036e-20)
(0.527157 0.319119 -1.49094e-20)
(0.581981 0.283307 -1.92484e-21)
(0.631503 0.251777 -5.41031e-20)
(0.67655 0.223694 -3.06311e-20)
(0.715059 0.199132 1.16977e-20)
(0.0720214 0.184571 -3.03564e-20)
(0.179187 0.345831 1.27942e-20)
(0.284025 0.380118 4.70928e-20)
(0.369617 0.358774 -2.11611e-20)
(0.442393 0.321892 1.67332e-21)
(0.506629 0.285629 6.00562e-20)
(0.564043 0.253457 2.76574e-21)
(0.615769 0.225157 5.1828e-20)
(0.662605 0.199998 2.16437e-20)
(0.703012 0.177924 -3.44392e-20)
(0.0591531 0.163483 4.2074e-20)
(0.155763 0.305102 4.65684e-21)
(0.258744 0.33452 3.05519e-21)
(0.346026 0.315256 4.30753e-20)
(0.421498 0.282614 -5.74653e-21)
(0.488358 0.250654 -3.76812e-20)
(0.548083 0.222332 1.84938e-20)
(0.601769 0.19744 -2.95839e-20)
(0.650198 0.175342 -1.23806e-20)
(0.69233 0.155894 1.25324e-20)
(0.0478031 0.14092 -2.62375e-20)
(0.135236 0.262106 -5.04523e-20)
(0.23667 0.286777 1.16701e-20)
(0.325474 0.269917 -2.2881e-20)
(0.403313 0.241801 -1.38408e-20)
(0.472466 0.214369 3.36014e-20)
(0.534204 0.190082 -8.13436e-21)
(0.589595 0.168752 7.52971e-21)
(0.63941 0.14984 -9.18101e-21)
(0.683068 0.133144 1.82373e-20)
(0.0381168 0.117083 9.50519e-21)
(0.117809 0.217163 3.39877e-20)
(0.217988 0.237193 -4.7256e-20)
(0.308112 0.223014 2.23693e-20)
(0.387966 0.199669 -1.0209e-20)
(0.459057 0.176958 -2.87856e-20)
(0.522496 0.156866 2.35407e-20)
(0.579324 0.139231 4.94937e-21)
(0.630309 0.123609 -7.55934e-22)
(0.675275 0.109781 -2.12077e-20)
(0.0302172 0.0921847 3.11735e-21)
(0.103657 0.170604 1.09638e-20)
(0.202853 0.186085 4.27807e-20)
(0.294068 0.174815 -8.22082e-21)
(0.375559 0.156446 -6.48918e-21)
(0.448221 0.138615 2.40103e-21)
(0.513036 0.122849 1.06518e-21)
(0.571024 0.109018 8.8016e-21)
(0.622955 0.0967744 -1.1587e-20)
(0.668992 0.0859123 -7.37761e-21)
(0.024204 0.0664507 -7.78581e-21)
(0.0929201 0.122776 -1.33413e-20)
(0.191391 0.13378 -3.32807e-20)
(0.283443 0.125601 1.67629e-20)
(0.366179 0.112365 1.36894e-20)
(0.440031 0.0995387 5.79869e-22)
(0.505887 0.0882026 -2.29791e-20)
(0.564751 0.0782616 -1.0226e-20)
(0.617397 0.0694662 8.11332e-21)
(0.66425 0.0616489 8.69837e-21)
(0.0201529 0.0401134 1.35533e-21)
(0.0857029 0.074033 -2.7982e-21)
(0.183697 0.0806143 6.316e-21)
(0.276317 0.0756543 -4.28419e-21)
(0.35989 0.0676674 -3.78434e-21)
(0.43454 0.0599353 -2.5691e-21)
(0.501094 0.0531036 4.72864e-21)
(0.560546 0.0471143 1.80463e-20)
(0.61367 0.0418169 2.61702e-21)
(0.661074 0.0371027 -4.6474e-21)
(0.0181146 0.0134118 1.67587e-21)
(0.0820766 0.0247391 -4.61311e-21)
(0.179834 0.0269293 -5.23293e-21)
(0.272741 0.0252672 -3.63381e-21)
(0.356734 0.0225972 3.46657e-21)
(0.431785 0.0200139 1.56632e-21)
(0.49869 0.0177316 -1.56287e-21)
(0.558436 0.0157311 -7.1355e-21)
(0.611801 0.0139619 2.35259e-21)
(0.659483 0.0123865 -2.20349e-21)
(0.0181146 -0.0134117 -1.67587e-21)
(0.0820766 -0.0247391 4.61311e-21)
(0.179834 -0.0269292 5.23293e-21)
(0.272741 -0.0252672 -5.0142e-21)
(0.356734 -0.0225972 4.41995e-21)
(0.431785 -0.0200138 2.21709e-21)
(0.49869 -0.0177316 -3.54615e-21)
(0.558436 -0.015731 -4.12899e-21)
(0.611801 -0.0139618 6.10681e-22)
(0.659483 -0.0123865 -1.72336e-21)
(0.0201529 -0.0401134 1.83762e-21)
(0.0857029 -0.074033 -5.49523e-21)
(0.183697 -0.0806143 1.23282e-20)
(0.276317 -0.0756542 -1.08332e-20)
(0.35989 -0.0676673 -5.10695e-22)
(0.43454 -0.0599352 -7.22257e-21)
(0.501094 -0.0531036 1.1759e-20)
(0.560546 -0.0471142 1.60194e-20)
(0.61367 -0.0418168 2.86965e-21)
(0.661074 -0.0371027 -6.18283e-21)
(0.024204 -0.0664507 -1.58083e-21)
(0.0929201 -0.122776 -1.1635e-20)
(0.191391 -0.13378 -2.70593e-20)
(0.283443 -0.1256 2.34442e-20)
(0.366179 -0.112365 4.84728e-21)
(0.440031 -0.0995387 4.29085e-21)
(0.505887 -0.0882026 -2.116e-20)
(0.564751 -0.0782616 -1.24906e-20)
(0.617397 -0.0694661 -2.78268e-21)
(0.66425 -0.0616489 1.91006e-20)
(0.0302172 -0.0921846 -5.57512e-21)
(0.103657 -0.170604 6.9971e-21)
(0.202853 -0.186085 4.90934e-20)
(0.294068 -0.174815 -4.40515e-21)
(0.375559 -0.156446 -1.26269e-20)
(0.448221 -0.138615 9.08329e-21)
(0.513036 -0.122849 6.16813e-22)
(0.571024 -0.109018 3.21422e-21)
(0.622955 -0.0967744 -7.03875e-21)
(0.668992 -0.0859123 -1.86321e-20)
(0.0381168 -0.117082 -3.77113e-21)
(0.117809 -0.217163 2.0501e-20)
(0.217988 -0.237193 -4.94528e-20)
(0.308112 -0.223014 2.14585e-20)
(0.387966 -0.199669 1.98911e-22)
(0.459057 -0.176958 -2.72711e-20)
(0.522496 -0.156866 1.20585e-20)
(0.579324 -0.139231 -1.12441e-21)
(0.630309 -0.123609 4.58773e-21)
(0.675275 -0.109781 -1.39057e-21)
(0.0478031 -0.14092 -4.32155e-20)
(0.135236 -0.262106 -5.16301e-20)
(0.23667 -0.286777 1.3514e-20)
(0.325474 -0.269917 -2.45781e-20)
(0.403313 -0.241801 -6.97558e-21)
(0.472466 -0.214369 1.03854e-20)
(0.534204 -0.190082 3.86035e-21)
(0.589595 -0.168752 1.43889e-20)
(0.63941 -0.149839 -3.10067e-21)
(0.683068 -0.133144 1.67001e-20)
(0.0591531 -0.163483 4.13417e-20)
(0.155763 -0.305101 2.65511e-20)
(0.258744 -0.33452 -2.01487e-20)
(0.346026 -0.315256 3.39278e-20)
(0.421498 -0.282614 -2.93021e-21)
(0.488358 -0.250654 -3.67614e-20)
(0.548083 -0.222331 6.45576e-21)
(0.601769 -0.19744 -3.91474e-20)
(0.650198 -0.175342 1.49642e-21)
(0.69233 -0.155894 1.42384e-20)
(0.0720214 -0.184571 -3.08462e-20)
(0.179187 -0.345831 5.52e-20)
(0.284025 -0.380118 2.16294e-20)
(0.369617 -0.358774 -2.67172e-20)
(0.442393 -0.321891 1.95839e-22)
(0.506629 -0.285629 6.77935e-20)
(0.564043 -0.253457 3.1135e-21)
(0.615769 -0.225157 3.01527e-20)
(0.662604 -0.199998 3.67472e-20)
(0.703012 -0.177924 -2.06105e-20)
(0.086242 -0.203998 1.72939e-20)
(0.205269 -0.383996 -8.26963e-21)
(0.3123 -0.423284 -1.96317e-20)
(0.396071 -0.400224 1.48621e-20)
(0.465857 -0.359429 5.68966e-20)
(0.527156 -0.319119 -1.9978e-20)