/*--------------------------------*- C++ -*----------------------------------*\
  =========                 |
  \\      /  F ield         | OpenFOAM: The Open Source CFD Toolbox
   \\    /   O peration     | Website:  https://openfoam.org
    \\  /    A nd           | Version:  7
     \\/     M anipulation  |
\*---------------------------------------------------------------------------*/
FoamFile
{
    version     2.0;
    format      ascii;
    class       volScalarField;
    location    "275";
    object      p;
}
// * * * * * * * * * * * * * * * * * * * * * * * * * * * * * * * * * * * * * //

dimensions      [0 2 -2 0 0 0 0];

internalField   nonuniform List<scalar> 
8500
(
-0.412046
-0.41539
-0.416867
-0.418494
-0.420576
-0.42313
-0.426061
-0.429166
-0.432119
-0.434764
-0.421684
-0.424938
-0.426635
-0.428759
-0.431639
-0.435302
-0.439657
-0.44449
-0.449478
-0.454285
-0.431636
-0.434698
-0.43658
-0.439177
-0.442832
-0.447582
-0.453325
-0.459831
-0.466747
-0.47348
-0.441783
-0.444546
-0.446568
-0.449595
-0.45398
-0.459761
-0.466814
-0.474879
-0.48355
-0.491846
-0.451987
-0.454348
-0.456453
-0.459849
-0.464892
-0.471616
-0.479863
-0.489317
-0.499528
-0.508897
-0.462098
-0.463965
-0.466086
-0.46977
-0.475372
-0.482922
-0.492216
-0.502842
-0.514368
-0.52419
-0.471964
-0.473258
-0.475321
-0.479194
-0.485232
-0.493463
-0.50363
-0.515172
-0.527843
-0.537311
-0.481439
-0.482101
-0.484025
-0.487971
-0.494301
-0.503041
-0.513893
-0.526052
-0.539811
-0.548046
-0.490391
-0.490383
-0.49209
-0.495977
-0.502434
-0.511487
-0.522834
-0.535302
-0.549681
-0.55663
-0.498714
-0.498029
-0.499431
-0.503125
-0.509524
-0.518682
-0.530233
-0.54288
-0.557678
-0.562702
-0.506331
-0.504988
-0.506004
-0.509358
-0.515508
-0.524542
-0.536081
-0.548596
-0.5638
-0.566233
-0.513204
-0.511248
-0.511803
-0.514674
-0.520378
-0.529057
-0.540354
-0.55243
-0.567997
-0.567334
-0.519335
-0.516831
-0.516865
-0.519116
-0.524185
-0.532281
-0.543103
-0.554471
-0.570229
-0.566228
-0.524769
-0.521799
-0.521261
-0.522776
-0.527041
-0.534344
-0.544456
-0.554908
-0.570503
-0.563257
-0.529591
-0.526242
-0.525099
-0.525787
-0.529109
-0.535446
-0.544615
-0.554026
-0.568875
-0.558857
-0.533925
-0.530279
-0.528516
-0.528317
-0.530598
-0.535843
-0.543858
-0.552177
-0.565455
-0.553422
-0.537928
-0.534052
-0.531667
-0.530554
-0.531744
-0.535813
-0.542492
-0.549696
-0.560398
-0.547092
-0.541782
-0.537716
-0.534721
-0.5327
-0.532791
-0.535657
-0.540839
-0.54684
-0.553831
-0.539697
-0.545682
-0.541435
-0.53785
-0.534953
-0.53397
-0.535619
-0.539188
-0.543738
-0.545863
-0.53147
-0.549828
-0.545371
-0.541218
-0.537495
-0.535484
-0.535895
-0.537759
-0.540395
-0.536996
-0.524264
-0.554404
-0.549674
-0.544973
-0.540479
-0.537482
-0.536608
-0.536652
-0.536787
-0.528653
-0.519458
-0.559574
-0.554475
-0.549238
-0.544019
-0.540058
-0.53781
-0.535855
-0.532987
-0.521424
-0.508653
-0.565468
-0.559878
-0.554103
-0.548187
-0.543247
-0.539488
-0.535291
-0.529143
-0.514174
-0.496988
-0.572175
-0.565957
-0.559629
-0.553014
-0.547027
-0.54158
-0.53488
-0.525221
-0.5069
-0.485932
-0.579748
-0.572759
-0.565846
-0.558494
-0.551343
-0.543994
-0.534522
-0.521191
-0.499655
-0.475318
-0.588206
-0.580303
-0.572762
-0.564597
-0.556113
-0.546617
-0.534101
-0.51703
-0.492415
-0.465357
-0.597537
-0.588593
-0.580367
-0.571272
-0.561248
-0.549323
-0.533506
-0.512702
-0.485225
-0.455873
-0.607706
-0.597612
-0.588633
-0.578456
-0.566642
-0.551971
-0.532633
-0.508182
-0.478071
-0.446804
-0.618656
-0.607328
-0.597517
-0.586069
-0.572173
-0.55441
-0.531391
-0.503435
-0.470934
-0.438024
-0.630308
-0.617689
-0.606951
-0.594009
-0.577687
-0.556489
-0.529701
-0.498422
-0.463768
-0.429429
-0.642559
-0.628616
-0.616838
-0.602145
-0.583004
-0.558062
-0.527488
-0.493096
-0.456513
-0.420906
-0.655277
-0.640001
-0.627048
-0.610307
-0.587923
-0.55899
-0.524682
-0.487402
-0.449092
-0.412348
-0.668296
-0.651695
-0.637413
-0.618281
-0.592233
-0.559141
-0.521208
-0.481272
-0.441424
-0.40365
-0.681413
-0.66351
-0.647721
-0.625813
-0.595719
-0.558387
-0.516988
-0.474632
-0.433419
-0.394712
-0.694388
-0.675218
-0.65772
-0.632624
-0.598171
-0.556605
-0.511941
-0.467402
-0.424984
-0.385439
-0.706944
-0.68655
-0.667114
-0.638418
-0.599384
-0.553675
-0.50598
-0.459495
-0.416029
-0.37574
-0.718768
-0.697204
-0.675576
-0.642899
-0.599167
-0.54948
-0.499015
-0.450822
-0.406461
-0.365533
-0.729522
-0.706846
-0.682754
-0.645777
-0.59734
-0.543909
-0.490957
-0.441296
-0.396193
-0.354742
-0.738846
-0.715123
-0.68829
-0.646779
-0.593736
-0.536852
-0.481715
-0.430831
-0.385145
-0.343305
-0.74637
-0.721666
-0.691828
-0.645655
-0.588206
-0.52821
-0.471206
-0.419346
-0.373245
-0.331173
-0.751722
-0.726106
-0.693032
-0.642181
-0.580616
-0.517888
-0.459347
-0.406766
-0.360435
-0.318315
-0.754541
-0.728078
-0.691596
-0.636162
-0.570852
-0.505804
-0.446063
-0.393019
-0.346665
-0.304699
-0.754482
-0.727238
-0.687251
-0.62744
-0.558821
-0.491886
-0.431289
-0.378041
-0.331874
-0.290266
-0.751233
-0.723273
-0.679772
-0.615888
-0.54445
-0.476082
-0.414974
-0.36178
-0.315986
-0.274848
-0.744515
-0.71591
-0.668982
-0.601419
-0.527692
-0.458352
-0.397087
-0.344215
-0.298947
-0.258178
-0.734096
-0.70493
-0.654745
-0.583979
-0.50852
-0.438674
-0.377607
-0.325346
-0.280813
-0.240183
-0.719793
-0.690167
-0.636975
-0.563547
-0.486932
-0.41704
-0.356519
-0.30517
-0.261659
-0.221548
-0.701479
-0.67151
-0.615633
-0.540136
-0.46295
-0.393462
-0.333846
-0.283723
-0.241234
-0.202403
-0.679082
-0.648908
-0.59073
-0.513792
-0.43662
-0.367984
-0.309674
-0.261036
-0.21969
-0.182504
-0.652587
-0.622366
-0.562326
-0.484607
-0.408007
-0.340692
-0.284047
-0.237089
-0.197153
-0.161791
-0.622035
-0.591951
-0.530553
-0.452715
-0.377175
-0.311658
-0.256987
-0.21196
-0.173686
-0.1403
-0.587518
-0.557794
-0.495605
-0.41821
-0.344223
-0.280947
-0.228583
-0.185733
-0.149349
-0.118111
-0.54919
-0.520097
-0.457651
-0.381006
-0.309413
-0.248699
-0.198936
-0.158499
-0.124219
-0.0953316
-0.507263
-0.479121
-0.416618
-0.341555
-0.272797
-0.215049
-0.168167
-0.130358
-0.0983865
-0.0720822
-0.461973
-0.435123
-0.372434
-0.30027
-0.234609
-0.180146
-0.136407
-0.101418
-0.0719408
-0.0484513
-0.413544
-0.388082
-0.326056
-0.257165
-0.195045
-0.144162
-0.103799
-0.0717877
-0.0449703
-0.0245268
-0.362264
-0.338187
-0.278087
-0.212517
-0.154303
-0.107272
-0.0704802
-0.0415658
-0.0176212
-0.000678135
-0.308588
-0.286045
-0.228549
-0.166613
-0.112598
-0.069651
-0.0365634
-0.0108249
0.00981133
0.0221468
-0.252925
-0.23204
-0.177642
-0.119729
-0.0701676
-0.0314766
-0.0021513
0.020338
0.0369608
0.043265
-0.195609
-0.176636
-0.125681
-0.0721503
-0.0272568
0.00705813
0.0325889
0.0516551
0.0636982
0.0647499
-0.137077
-0.120253
-0.0730247
-0.0241702
0.0158835
0.0457371
0.0673824
0.0826667
0.0900117
0.092264
-0.0777786
-0.0633018
-0.0200461
0.0239071
0.0589989
0.0843262
0.101943
0.113247
0.116947
0.1199
-0.0181675
-0.00619949
0.0328812
0.0717731
0.101829
0.12259
0.1361
0.143508
0.144169
0.146108
0.0413004
0.0506352
0.0853857
0.119118
0.14411
0.160293
0.169678
0.173327
0.171173
0.171234
0.100171
0.106784
0.137101
0.165633
0.185579
0.197212
0.202511
0.202524
0.197575
0.195266
0.157995
0.161834
0.187668
0.211017
0.225978
0.23313
0.234422
0.230911
0.223174
0.218269
0.214334
0.215382
0.236738
0.254974
0.265058
0.267837
0.265231
0.258309
0.247813
0.240222
0.268761
0.267035
0.283973
0.297219
0.302576
0.301126
0.294761
0.284558
0.271368
0.26108
0.320866
0.31642
0.32905
0.33748
0.3383
0.332801
0.322841
0.309507
0.293723
0.280777
0.37026
0.36318
0.371665
0.375498
0.372011
0.362675
0.349312
0.33302
0.314767
0.299242
0.416575
0.406981
0.411529
0.411029
0.403502
0.39057
0.374023
0.354966
0.334395
0.316404
0.459468
0.447511
0.448375
0.443848
0.43258
0.416323
0.396833
0.375227
0.352509
0.332193
0.498627
0.484486
0.48196
0.473749
0.459069
0.439783
0.417614
0.393693
0.369016
0.346545
0.533767
0.517649
0.512064
0.500544
0.48281
0.460814
0.436251
0.410264
0.383832
0.359403
0.564637
0.546773
0.538492
0.524068
0.503661
0.479296
0.45264
0.42485
0.396884
0.370716
0.59102
0.57166
0.561076
0.544178
0.521501
0.495125
0.466694
0.437377
0.408105
0.380442
0.612734
0.592148
0.579674
0.560755
0.536227
0.508213
0.478336
0.447778
0.417443
0.388545
0.629634
0.608106
0.594175
0.573705
0.547759
0.518491
0.487509
0.456002
0.424853
0.394998
0.641613
0.619436
0.604496
0.582956
0.556036
0.525907
0.494167
0.462011
0.430304
0.399782
0.648601
0.626077
0.610584
0.588464
0.561019
0.530429
0.498283
0.465779
0.433775
0.402886
0.650569
0.628002
0.612415
0.590208
0.562692
0.532043
0.499844
0.467296
0.435257
0.404303
0.647525
0.625218
0.609998
0.588196
0.56106
0.530751
0.498853
0.466565
0.434751
0.404037
0.639517
0.617771
0.603369
0.582459
0.55615
0.526578
0.495331
0.463602
0.432272
0.402095
0.626631
0.605737
0.592595
0.573053
0.54801
0.519564
0.489311
0.458438
0.427844
0.398496
0.608993
0.58923
0.577774
0.560061
0.53671
0.509769
0.480846
0.451115
0.421505
0.393262
0.586765
0.568396
0.559031
0.54359
0.522342
0.497272
0.47
0.441692
0.413301
0.386424
0.560144
0.543416
0.53652
0.523769
0.505017
0.482165
0.456855
0.430237
0.403291
0.378021
0.529363
0.514499
0.510422
0.500754
0.484865
0.464562
0.441506
0.416832
0.391543
0.368097
0.494689
0.481888
0.480945
0.474718
0.462037
0.44459
0.424061
0.401571
0.378135
0.356707
0.456419
0.445852
0.44832
0.445859
0.436699
0.422391
0.40464
0.384558
0.363155
0.343911
0.41488
0.406691
0.412802
0.414393
0.409036
0.398121
0.383379
0.365907
0.346698
0.329776
0.370425
0.364724
0.374668
0.380554
0.379247
0.371952
0.36042
0.34574
0.328866
0.314373
0.323432
0.320298
0.334215
0.344593
0.347546
0.344064
0.33592
0.324191
0.309769
0.297777
0.2743
0.273778
0.291757
0.306776
0.314157
0.314648
0.310041
0.3014
0.289519
0.280065
0.223445
0.225547
0.247623
0.26738
0.279317
0.283907
0.282956
0.277517
0.268239
0.26131
0.171299
0.176
0.202156
0.226695
0.243271
0.252048
0.254845
0.252704
0.246054
0.24157
0.118304
0.125546
0.15571
0.18502
0.206273
0.219285
0.225887
0.227137
0.223121
0.220887
0.0649078
0.0745983
0.108646
0.14266
0.16858
0.185835
0.196264
0.200998
0.199629
0.19923
0.0115637
0.0235746
0.061333
0.0999224
0.130455
0.151922
0.166146
0.174464
0.175922
0.176614
-0.041278
-0.0271103
0.0141405
0.0571163
0.092159
0.117777
0.135706
0.147661
0.152434
0.152734
-0.0931699
-0.0770479
-0.0325598
0.0145471
0.0539508
0.0836293
0.105119
0.120524
0.129509
0.128977
-0.143667
-0.125832
-0.078403
-0.0274873
0.0160809
0.0497075
0.0746498
0.0931763
0.106241
0.110293
-0.192364
-0.173028
-0.123049
-0.0686997
-0.0212044
0.0162209
0.0445485
0.0660146
0.0826514
0.0919171
-0.239057
-0.218129
-0.166234
-0.108813
-0.0576655
-0.0166421
0.0149774
0.0392797
0.0588515
0.0721495
-0.283143
-0.260852
-0.207839
-0.147549
-0.0930758
-0.0487065
-0.013954
0.013078
0.0351777
0.0515582
-0.324293
-0.300601
-0.247659
-0.184634
-0.127228
-0.0798008
-0.0421293
-0.0125064
0.0119067
0.0309508
-0.362307
-0.337531
-0.284692
-0.219908
-0.159924
-0.109755
-0.0694135
-0.0373743
-0.0108208
0.0106605
-0.396961
-0.371396
-0.318704
-0.253151
-0.190952
-0.138412
-0.0956701
-0.0614196
-0.0329195
-0.00922301
-0.428033
-0.401929
-0.349837
-0.283878
-0.220226
-0.165628
-0.120774
-0.0845406
-0.0543067
-0.0286138
-0.455366
-0.42893
-0.377967
-0.31211
-0.247489
-0.191262
-0.144617
-0.106642
-0.0749015
-0.0474014
-0.478862
-0.452267
-0.402901
-0.337752
-0.272636
-0.215232
-0.167106
-0.127636
-0.0946354
-0.0654881
-0.49848
-0.471873
-0.424507
-0.360675
-0.295596
-0.237466
-0.188195
-0.147439
-0.113441
-0.0828217
-0.514232
-0.487744
-0.442722
-0.380788
-0.316298
-0.257874
-0.207845
-0.166042
-0.131203
-0.0994424
-0.526192
-0.499935
-0.457541
-0.398045
-0.334691
-0.276405
-0.225966
-0.183418
-0.147766
-0.115568
-0.534489
-0.508561
-0.469008
-0.412435
-0.35075
-0.29304
-0.242528
-0.199526
-0.163328
-0.131128
-0.539305
-0.513793
-0.477217
-0.423979
-0.364476
-0.307779
-0.257534
-0.214356
-0.177807
-0.145412
-0.540877
-0.515859
-0.482309
-0.432739
-0.375895
-0.320639
-0.270997
-0.227898
-0.191144
-0.158461
-0.539484
-0.515038
-0.484473
-0.438812
-0.385056
-0.331655
-0.282938
-0.240163
-0.203382
-0.170523
-0.53544
-0.51165
-0.483947
-0.442335
-0.392036
-0.340877
-0.293399
-0.251191
-0.214583
-0.181742
-0.52909
-0.506042
-0.481016
-0.443484
-0.396937
-0.348373
-0.302436
-0.261034
-0.224792
-0.192161
-0.520796
-0.498576
-0.476001
-0.442468
-0.399881
-0.354227
-0.310117
-0.269746
-0.234043
-0.201791
-0.510925
-0.489624
-0.469248
-0.439533
-0.401017
-0.358534
-0.316514
-0.277389
-0.242375
-0.210649
-0.499845
-0.479547
-0.461121
-0.434949
-0.400511
-0.361402
-0.321707
-0.284026
-0.24984
-0.218764
-0.487908
-0.468694
-0.451983
-0.429011
-0.39855
-0.362947
-0.325777
-0.289726
-0.256492
-0.226172
-0.475443
-0.457385
-0.442182
-0.422029
-0.39534
-0.363293
-0.328811
-0.294555
-0.26239
-0.232911
-0.462749
-0.44591
-0.432038
-0.414317
-0.391101
-0.362574
-0.330894
-0.298582
-0.26759
-0.239025
-0.45009
-0.434521
-0.421834
-0.406181
-0.386067
-0.360931
-0.332113
-0.301869
-0.272147
-0.244556
-0.437685
-0.423427
-0.411806
-0.397904
-0.380475
-0.358513
-0.332552
-0.304471
-0.276109
-0.249545
-0.425715
-0.412793
-0.402145
-0.389729
-0.374564
-0.355475
-0.332294
-0.306439
-0.279515
-0.25403
-0.414316
-0.40274
-0.392998
-0.381852
-0.368558
-0.351977
-0.331423
-0.307812
-0.282393
-0.258041
-0.403581
-0.393348
-0.384466
-0.374415
-0.362654
-0.348183
-0.330025
-0.308624
-0.284757
-0.261603
-0.393568
-0.384659
-0.376609
-0.367512
-0.357004
-0.344247
-0.328187
-0.308903
-0.286607
-0.264735
-0.384301
-0.376683
-0.369446
-0.361192
-0.351711
-0.34031
-0.326001
-0.308676
-0.287925
-0.267446
-0.375776
-0.369408
-0.362964
-0.355467
-0.346824
-0.336477
-0.323562
-0.307975
-0.288684
-0.269741
-0.367976
-0.362803
-0.357128
-0.350315
-0.342354
-0.332815
-0.320955
-0.306843
-0.288846
-0.271633
-0.360879
-0.356835
-0.351889
-0.345696
-0.338285
-0.32935
-0.318255
-0.305337
-0.288383
-0.27311
-0.354466
-0.351475
-0.347202
-0.341561
-0.334589
-0.326087
-0.315513
-0.303529
-0.287267
-0.274234
-0.34873
-0.346707
-0.343033
-0.337871
-0.331241
-0.323027
-0.312767
-0.301491
-0.28556
-0.274832
-0.343684
-0.342532
-0.339372
-0.334609
-0.328236
-0.320185
-0.310067
-0.299312
-0.28327
-0.275128
-0.339362
-0.338962
-0.336235
-0.331791
-0.325597
-0.317609
-0.307514
-0.296995
-0.280658
-0.273568
-0.3358
-0.336028
-0.333661
-0.329461
-0.323383
-0.315388
-0.305252
-0.294536
-0.27898
-0.258955
-0.33304
-0.333771
-0.331691
-0.327685
-0.321681
-0.313643
-0.303435
-0.292132
-0.278165
-0.252639
-0.331113
-0.332225
-0.330377
-0.326531
-0.32059
-0.312508
-0.302222
-0.290296
-0.277879
-0.250907
-0.330035
-0.331414
-0.329756
-0.326059
-0.320196
-0.312104
-0.301765
-0.289365
-0.277743
-0.250539
-0.329801
-0.331347
-0.32985
-0.326306
-0.320557
-0.312517
-0.30218
-0.289518
-0.277955
-0.251519
-0.330382
-0.332017
-0.330662
-0.327286
-0.3217
-0.313794
-0.303555
-0.290864
-0.279001
-0.25422
-0.331733
-0.333404
-0.332179
-0.328988
-0.32362
-0.31594
-0.305923
-0.293431
-0.281273
-0.258536
-0.333802
-0.335479
-0.334377
-0.331389
-0.32629
-0.318928
-0.309263
-0.297171
-0.284935
-0.264169
-0.336525
-0.338208
-0.337229
-0.334458
-0.329675
-0.322712
-0.313522
-0.301987
-0.28995
-0.270862
-0.339854
-0.341561
-0.340708
-0.33817
-0.33374
-0.327248
-0.318623
-0.307785
-0.296186
-0.278483
-0.343746
-0.345511
-0.344794
-0.342503
-0.338461
-0.332501
-0.324526
-0.314458
-0.303515
-0.286986
-0.348171
-0.35004
-0.349471
-0.347446
-0.343825
-0.338451
-0.331202
-0.32202
-0.311816
-0.296384
-0.353118
-0.355135
-0.354733
-0.352995
-0.349828
-0.345089
-0.338638
-0.330414
-0.320946
-0.306945
-0.358584
-0.360792
-0.360575
-0.35915
-0.356477
-0.352426
-0.346852
-0.339687
-0.331116
-0.318887
-0.364579
-0.367007
-0.366997
-0.365916
-0.363779
-0.360477
-0.355865
-0.349857
-0.342359
-0.332003
-0.371116
-0.373779
-0.373995
-0.373291
-0.371741
-0.369254
-0.365694
-0.360944
-0.354727
-0.346315
-0.37821
-0.381101
-0.381561
-0.38127
-0.380357
-0.378756
-0.376339
-0.372958
-0.368242
-0.361878
-0.385866
-0.388959
-0.389674
-0.389829
-0.389606
-0.388962
-0.387778
-0.385883
-0.382877
-0.378677
-0.394077
-0.397326
-0.398301
-0.398931
-0.399445
-0.399821
-0.399954
-0.399652
-0.398533
-0.396591
-0.40282
-0.406157
-0.40739
-0.408515
-0.409802
-0.411252
-0.412763
-0.414141
-0.415031
-0.415395
-0.438643
-0.431549
-0.416836
-0.396637
-0.396636
-0.418352
-0.433291
-0.398969
-0.316327
-0.233079
-0.177696
-0.149274
-0.148773
-0.168025
-0.184841
-0.166505
-0.123263
-0.095457
-0.0786777
-0.0684609
-0.0693783
-0.0714623
-0.078379
-0.0817582
-0.067886
-0.0348363
-0.0463925
-0.0587279
-0.0462516
0.00685059
-0.460966
-0.453545
-0.433973
-0.402808
-0.388321
-0.3971
-0.406025
-0.373777
-0.298129
-0.22264
-0.174582
-0.150927
-0.154939
-0.177473
-0.195323
-0.174748
-0.127148
-0.0961693
-0.0778068
-0.0665905
-0.0665049
-0.0682511
-0.0764715
-0.0810705
-0.0674964
-0.0345652
-0.0465615
-0.0584962
-0.0462462
0.00636923
-0.483204
-0.475471
-0.451272
-0.409034
-0.379449
-0.374546
-0.376781
-0.346648
-0.278324
-0.211062
-0.170803
-0.152095
-0.160702
-0.186586
-0.205207
-0.182414
-0.13078
-0.0967675
-0.0769533
-0.0648676
-0.063811
-0.065152
-0.074533
-0.0803263
-0.0670919
-0.0343185
-0.0467373
-0.0582775
-0.046235
0.00587825
-0.504684
-0.496666
-0.4682
-0.415123
-0.370317
-0.351429
-0.34621
-0.317859
-0.257073
-0.198348
-0.166267
-0.152681
-0.165931
-0.19526
-0.214392
-0.189462
-0.134155
-0.0972611
-0.0761209
-0.0632905
-0.061307
-0.0621882
-0.0725754
-0.0795291
-0.0666765
-0.0340986
-0.0469175
-0.0580707
-0.0462143
0.00538041
-0.524725
-0.516466
-0.484193
-0.420814
-0.361172
-0.328277
-0.314944
-0.287676
-0.234574
-0.184516
-0.160887
-0.152593
-0.17051
-0.203396
-0.222794
-0.195862
-0.137269
-0.0976598
-0.0753123
-0.0618536
-0.0590012
-0.0593819
-0.0706114
-0.0786824
-0.0662535
-0.0339074
-0.0470995
-0.0578747
-0.0461806
0.00487853
-0.542718
-0.53426
-0.498714
-0.42584
-0.352201
-0.305528
-0.283845
-0.257818
-0.211049
-0.169615
-0.154585
-0.151738
-0.174341
-0.210902
-0.230357
-0.201593
-0.140118
-0.0979731
-0.0745293
-0.060548
-0.0568999
-0.0567532
-0.0686552
-0.07779
-0.0658253
-0.0337466
-0.0472804
-0.0576882
-0.0461305
0.00437549
-0.558257
-0.549493
-0.511303
-0.429973
-0.343534
-0.283558
-0.253477
-0.225345
-0.186724
-0.153733
-0.147291
-0.150032
-0.177343
-0.217696
-0.237038
-0.206641
-0.1427
-0.0982106
-0.073773
-0.0593624
-0.0550064
-0.0543203
-0.0667213
-0.0768559
-0.0653937
-0.0336172
-0.0474572
-0.0575095
-0.0460606
0.00387423
-0.570974
-0.561841
-0.521649
-0.433033
-0.335278
-0.26276
-0.224559
-0.193263
-0.161923
-0.136992
-0.138947
-0.147394
-0.179452
-0.223702
-0.242831
-0.211011
-0.145015
-0.0983813
-0.0730444
-0.0582834
-0.0533214
-0.0520978
-0.0648249
-0.075884
-0.0649596
-0.0335199
-0.0476267
-0.0573372
-0.0459675
0.00337776
-0.580499
-0.571404
-0.529639
-0.434939
-0.327574
-0.243557
-0.197534
-0.1626
-0.136937
-0.119536
-0.129502
-0.143746
-0.180622
-0.228851
-0.248017
-0.21471
-0.14706
-0.0984938
-0.0723438
-0.057296
-0.0518418
-0.0500963
-0.0629802
-0.0748784
-0.0645232
-0.033455
-0.0477858
-0.0571696
-0.0458478
0.00288918
-0.587224
-0.578088
-0.534789
-0.436099
-0.32056
-0.226418
-0.172679
-0.133986
-0.112068
-0.101521
-0.118907
-0.139018
-0.180819
-0.233088
-0.252409
-0.217745
-0.148832
-0.0985558
-0.0716714
-0.0563849
-0.0505608
-0.0483217
-0.0612005
-0.0738434
-0.064084
-0.0334225
-0.047931
-0.0570049
-0.0456985
0.0024116
-0.591174
-0.581949
-0.53759
-0.436365
-0.314174
-0.21168
-0.150237
-0.107865
-0.0876764
-0.0830906
-0.107123
-0.133146
-0.180023
-0.236367
-0.255782
-0.220119
-0.150332
-0.0985748
-0.0710273
-0.0555349
-0.0494673
-0.0467754
-0.0594963
-0.0727829
-0.0636408
-0.0334221
-0.0480587
-0.0568413
-0.0455162
0.00194821
-0.592417
-0.583058
-0.538243
-0.435709
-0.309032
-0.19896
-0.130589
-0.084526
-0.064257
-0.0643492
-0.0941217
-0.12607
-0.178222
-0.238656
-0.258236
-0.221844
-0.151558
-0.0985587
-0.0704123
-0.0547321
-0.0485459
-0.045454
-0.0578755
-0.0717005
-0.0631915
-0.0334533
-0.0481655
-0.0566765
-0.0452978
0.00150215
-0.591113
-0.581574
-0.536846
-0.434306
-0.305013
-0.188596
-0.113906
-0.0641392
-0.0441915
-0.0453795
-0.0798805
-0.117738
-0.175414
-0.239933
-0.259794
-0.222935
-0.152512
-0.0985159
-0.0698276
-0.0539639
-0.0477767
-0.0443502
-0.0563419
-0.0705998
-0.0627338
-0.0335155
-0.0482477
-0.0565086
-0.0450402
0.00107663
-0.587459
-0.577741
-0.53354
-0.432308
-0.302238
-0.181799
-0.0994956
-0.0466934
-0.0234892
-0.0262499
-0.0643897
-0.108103
-0.171604
-0.24019
-0.260465
-0.223406
-0.153189
-0.0984476
-0.0692693
-0.0532188
-0.0471327
-0.0434513
-0.0548952
-0.0694837
-0.0622643
-0.0336077
-0.0483016
-0.0563352
-0.0447404
0.000674898
-0.581744
-0.571801
-0.528491
-0.429806
-0.30071
-0.177649
-0.0890494
-0.0317194
-0.00503855
-0.00720435
-0.0476632
-0.0971254
-0.166805
-0.239423
-0.260255
-0.223269
-0.153565
-0.0983366
-0.0687241
-0.0524859
-0.0465828
-0.0427359
-0.05353
-0.0683545
-0.0617794
-0.0337291
-0.0483237
-0.0561548
-0.0443962
0.000300188
-0.574279
-0.563986
-0.521831
-0.426753
-0.300182
-0.175877
-0.0819716
-0.0196471
0.0106571
0.0114327
-0.029775
-0.0847789
-0.161032
-0.237642
-0.259186
-0.222539
-0.153623
-0.0981708
-0.0681868
-0.0517603
-0.0461046
-0.0421816
-0.0522343
-0.067213
-0.0612747
-0.0338787
-0.0483109
-0.0559657
-0.0440057
-4.50142e-05
-0.565491
-0.554572
-0.513736
-0.42309
-0.30034
-0.176102
-0.0779388
-0.010499
0.0237794
0.0292455
-0.0109131
-0.0710514
-0.154312
-0.234866
-0.257307
-0.221269
-0.153469
-0.098042
-0.0677181
-0.0510581
-0.045699
-0.0418072
-0.0509977
-0.0660585
-0.0607449
-0.0340552
-0.0482592
-0.0557601
-0.0435644
-0.000359833
-0.555933
-0.544111
-0.504907
-0.41966
-0.302061
-0.179133
-0.0775918
-0.00491906
0.0340619
0.0457708
0.00855772
-0.0559741
-0.146641
-0.231071
-0.254465
-0.219498
-0.153337
-0.0981614
-0.067435
-0.0504054
-0.0453578
-0.0416923
-0.0498386
-0.0649037
-0.060184
-0.0342541
-0.0481569
-0.0555192
-0.0430643
-0.000642481
-0.546262
-0.532988
-0.495821
-0.417281
-0.306367
-0.185868
-0.0815774
-0.00339516
0.0411561
0.060036
0.0279284
-0.0395612
-0.138149
-0.226023
-0.250055
-0.217035
-0.152981
-0.0983254
-0.0671833
-0.0497465
-0.044957
-0.0417339
-0.0487575
-0.0637803
-0.059588
-0.0344644
-0.0479896
-0.0552507
-0.0425079
-0.00087987
-0.535471
-0.519378
-0.482496
-0.409238
-0.304734
-0.187914
-0.0829096
-0.000753849
0.0485124
0.0678816
0.0466616
-0.0225294
-0.128565
-0.220705
-0.245485
-0.213505
-0.150759
-0.0970635
-0.0660982
-0.0488533
-0.0442298
-0.0411945
-0.0474069
-0.06247
-0.0589642
-0.0347528
-0.0478679
-0.05511
-0.0419381
-0.00104231
-0.516571
-0.501849
-0.461899
-0.389102
-0.288049
-0.175484
-0.0726765
0.00986916
0.0619875
0.0928863
0.0744084
0.00102881
-0.120024
-0.222422
-0.246589
-0.209353
-0.14594
-0.0934357
-0.0635919
-0.0475404
-0.0429911
-0.039037
-0.0445711
-0.0594553
-0.0577824
-0.0357166
-0.0481818
-0.0553208
-0.0413197
-0.00117729
-0.488468
-0.471779
-0.428445
-0.358943
-0.26571
-0.161261
-0.0637045
0.0170255
0.0700623
0.0917613
0.0952791
0.0203036
-0.108809
-0.217211
-0.237146
-0.198672
-0.138218
-0.0889766
-0.0607432
-0.0455075
-0.0415614
-0.038376
-0.0440932
-0.0569404
-0.0569033
-0.0363106
-0.047931
-0.0546348
-0.0402709
-0.00141965
-0.458613
-0.439981
-0.395172
-0.330104
-0.245219
-0.149055
-0.0572365
0.0210328
0.0749139
0.104612
0.109382
0.0321111
-0.0996459
-0.208667
-0.224955
-0.186497
-0.12994
-0.0842731
-0.0577068
-0.0433095
-0.0401064
-0.0378874
-0.0440003
-0.0547291
-0.0559876
-0.0365898
-0.0474048
-0.0536548
-0.0390409
-0.0016623
-0.427876
-0.408191
-0.363386
-0.302871
-0.226103
-0.138272
-0.0527476
0.0222126
0.0764461
0.111568
0.118097
0.0400168
-0.0911754
-0.197505
-0.21041
-0.17297
-0.120821
-0.0792025
-0.054484
-0.0409172
-0.038563
-0.0374555
-0.0437326
-0.0523052
-0.0547915
-0.0368976
-0.046796
-0.0524885
-0.0375661
-0.00188473
-0.396453
-0.377026
-0.333462
-0.277487
-0.208436
-0.128821
-0.0499
0.0209131
0.0747344
0.112226
0.120674
0.0447612
-0.0822395
-0.182962
-0.193279
-0.158227
-0.111057
-0.0738123
-0.0510829
-0.0383185
-0.0368819
-0.037046
-0.0433564
-0.0496141
-0.0533365
-0.0373344
-0.0460845
-0.0510556
-0.0358256
-0.00207772
-0.365205
-0.346996
-0.305634
-0.254129
-0.192235
-0.120545
-0.0483148
0.0176306
0.0660467
0.107414
0.11709
0.0464226
-0.0722568
-0.164886
-0.173959
-0.14267
-0.100855
-0.0681371
-0.0475066
-0.0354986
-0.0350213
-0.0365979
-0.0429073
-0.0467063
-0.0516445
-0.0378462
-0.0452104
-0.0493016
-0.0337934
-0.00222699
-0.33495
-0.318415
-0.279931
-0.232794
-0.177433
-0.113254
-0.0476253
0.0132533
0.0595036
0.0986491
0.108645
0.0457926
-0.0609949
-0.143986
-0.153206
-0.126758
-0.0904533
-0.0622289
-0.0437581
-0.0324456
-0.0329235
-0.0360269
-0.0423307
-0.0435869
-0.0496493
-0.0383616
-0.0441476
-0.0471914
-0.0314475
-0.00231671
-0.306102
-0.291428
-0.256236
-0.21336
-0.163928
-0.106765
-0.0475362
0.00817792
0.0516056
0.0873918
0.0972785
0.0439938
-0.0487253
-0.121485
-0.131966
-0.110976
-0.0800953
-0.0561475
-0.0398376
-0.0291497
-0.0305161
-0.0352212
-0.0415256
-0.0402157
-0.047247
-0.0388264
-0.0428788
-0.0446932
-0.0287672
-0.00233009
-0.278884
-0.266093
-0.234385
-0.195654
-0.151603
-0.100924
-0.0478213
0.00272571
0.0430064
0.0750072
0.0847158
0.0416664
-0.0363793
-0.0988815
-0.11126
-0.0957732
-0.0699994
-0.049958
-0.0357428
-0.0256038
-0.0277117
-0.0340365
-0.0403596
-0.0365334
-0.0443455
-0.0391785
-0.0413738
-0.0417807
-0.0257358
-0.00225065
-0.253417
-0.242416
-0.214211
-0.179492
-0.140345
-0.0956027
-0.0483033
-0.0028173
0.0341833
0.0624962
0.0720618
0.0387813
-0.0251961
-0.0783464
-0.0920274
-0.0815028
-0.0603359
-0.043726
-0.0314708
-0.0218036
-0.0244087
-0.0322932
-0.0386637
-0.0324736
-0.0408628
-0.0393278
-0.0395923
-0.0384385
-0.0223422
-0.00206379
-0.22972
-0.220369
-0.195565
-0.164697
-0.130038
-0.0906985
-0.0488402
-0.00821455
0.0254678
0.0504743
0.0598589
0.0351127
-0.016084
-0.0606568
-0.0748718
-0.0683868
-0.0512208
-0.0375167
-0.0270199
-0.0177474
-0.0204958
-0.0297715
-0.0362229
-0.0279595
-0.0367148
-0.0391467
-0.0374875
-0.0346664
-0.0185857
-0.00175745
-0.207762
-0.199909
-0.178326
-0.151113
-0.120575
-0.0861272
-0.0493178
-0.0132806
0.0171139
0.0392706
0.0483682
0.0306455
-0.0093787
-0.0461911
-0.0600168
-0.0565273
-0.0427225
-0.0313948
-0.0223948
-0.0134365
-0.0158656
-0.0262068
-0.0327683
-0.0228959
-0.0318228
-0.0384668
-0.0350078
-0.0304837
-0.0144833
-0.00132161
-0.187493
-0.180981
-0.162389
-0.138607
-0.111851
-0.081817
-0.049645
-0.0178808
0.00931879
0.0290454
0.0377782
0.0256438
-0.00487796
-0.0347169
-0.0474218
-0.0459452
-0.0348744
-0.0254258
-0.017611
-0.00887789
-0.0104416
-0.0213076
-0.0279805
-0.0171686
-0.0261386
-0.0370823
-0.0320985
-0.0259329
-0.0100773
-0.000749605
-0.168847
-0.163519
-0.147668
-0.127068
-0.103776
-0.0777088
-0.0497533
-0.0219238
0.00223279
0.0198773
0.0282361
0.0204644
-0.00214961
-0.0257994
-0.0369057
-0.0366106
-0.0276874
-0.0196741
-0.0126986
-0.00409002
-0.00421321
-0.0148088
-0.0215276
-0.0106595
-0.0196748
-0.0347682
-0.0287081
-0.0210809
-0.00544081
-4.00226e-05
-0.151781
-0.147468
-0.134091
-0.116404
-0.0962676
-0.0737559
-0.0495975
-0.0253532
-0.00403696
0.0117995
0.0198222
0.0154132
-0.000744833
-0.0189814
-0.0282297
-0.0284645
-0.0211587
-0.0142016
-0.00770217
0.000887115
0.00273587
-0.00653955
-0.0131493
-0.0032848
-0.0125331
-0.031321
-0.0247877
-0.0160164
-0.000681604
0.000800727
-0.136191
-0.132772
-0.121593
-0.106538
-0.0892586
-0.0699206
-0.049154
-0.0281448
-0.0094289
0.00481035
0.0125457
0.0107094
-0.000272871
-0.0138523
-0.0211471
-0.0214293
-0.0152761
-0.00906204
-0.0026856
0.00598033
0.0101908
0.00350319
-0.0027679
0.00493502
-0.0049316
-0.0266216
-0.0203273
-0.0108518
0.00405927
0.00175555
-0.122021
-0.11935
-0.110106
-0.0974104
-0.082697
-0.0661776
-0.0484167
-0.0303017
-0.0139284
-0.00111765
0.00636566
0.00648149
-0.00041947
-0.0100546
-0.0154206
-0.0154158
-0.0100211
-0.0042946
0.00225358
0.0110693
0.0177728
0.0150224
0.00936328
0.0137786
0.00278737
-0.0206954
-0.0153737
-0.0057207
0.00861172
0.00279623
-0.109188
-0.107165
-0.0995795
-0.0889758
-0.0765446
-0.0625138
-0.0473977
-0.0318423
-0.0175557
-0.00603479
0.00120956
0.00279075
-0.000941702
-0.00728861
-0.0108345
-0.0103273
-0.00537148
7.83398e-05
0.00697782
0.0159683
0.0249747
0.0271955
0.0224555
0.0227005
0.0101969
-0.0137336
-0.0100047
-0.00077151
0.012786
0.00388379
-0.0975935
-0.0961195
-0.0899676
-0.0812021
-0.0707754
-0.0589235
-0.0461307
-0.0327573
-0.0203561
-0.0100092
-0.00301446
-0.000347385
-0.00167682
-0.0053126
-0.00719772
-0.00606541
-0.00130355
0.00404231
0.0113358
0.0204722
0.0312881
0.0385158
0.0349697
0.0308316
0.0169135
-0.00607803
-0.00437262
0.00384097
0.0163877
0.00496737
-0.0871739
-0.0861669
-0.0813045
-0.0740715
-0.0653792
-0.0554083
-0.0445138
-0.0331641
-0.0224119
-0.0131283
-0.00640481
-0.00294657
-0.00249787
-0.00392962
-0.00434164
-0.00253309
0.00220768
0.00758076
0.0151949
0.0243991
0.0363682
0.0472738
0.0451728
0.0373565
0.0227239
0.00179235
0.00128417
0.00796776
0.0192365
0.00598673
-0.0778554
-0.0772199
-0.0734087
-0.0675438
-0.0603564
-0.0520197
-0.0428469
-0.0331535
-0.023821
-0.0154911
-0.00906126
-0.00504397
-0.0032671
-0.00297339
-0.00211848
0.000361212
0.00518956
0.0106737
0.0184608
0.0276051
0.0399513
0.0525793
0.0521064
0.0420235
0.0275358
0.00925733
0.00666711
0.0114976
0.0212022
0.00687781
-0.0695722
-0.0692339
-0.0663028
-0.0616111
-0.0557129
-0.0487755
-0.0410605
-0.0327919
-0.0246824
-0.0172023
-0.0110838
-0.0066876
-0.00394669
-0.00231675
-0.000402227
0.00270234
0.00767538
0.0133041
0.0210987
0.0300361
0.0420118
0.0546127
0.0557051
0.045051
0.0312694
0.0157428
0.0115126
0.0143795
0.0222447
0.00758576
-0.0622674
-0.0621653
-0.0599628
-0.0562547
-0.0514535
-0.0456971
-0.0392144
-0.0321568
-0.0250944
-0.0183709
-0.0125738
-0.00794665
-0.00451211
-0.00186789
0.000911077
0.00456829
0.00970453
0.015469
0.0231312
0.0317342
0.0428012
0.0537392
0.0566174
0.0467349
0.0339165
0.0209072
0.0156307
0.0166226
0.022419
0.00808283
-0.055893
-0.0559763
-0.0543691
-0.0514753
-0.0475927
-0.0428288
-0.0373727
-0.0313314
-0.025154
-0.0190973
-0.0136201
-0.0088689
-0.00495359
-0.00155934
0.00190598
0.00603081