/*--------------------------------*- C++ -*----------------------------------*\
  =========                 |
  \\      /  F ield         | OpenFOAM: The Open Source CFD Toolbox
   \\    /   O peration     | Website:  https://openfoam.org
    \\  /    A nd           | Version:  7
     \\/     M anipulation  |
\*---------------------------------------------------------------------------*/
FoamFile
{
    version     2.0;
    format      ascii;
    class       volVectorField;
    location    "275";
    object      U;
}
// * * * * * * * * * * * * * * * * * * * * * * * * * * * * * * * * * * * * * //

dimensions      [0 1 -1 0 0 0 0];

internalField   nonuniform List<vector> 
8500
(
(-0.00327313 0.0463872 1.09226e-21)
(-0.0143036 0.0853097 -3.13568e-21)
(-0.033444 0.0905856 -3.65222e-21)
(-0.0556581 0.0762186 3.63226e-21)
(-0.0794806 0.0524644 -3.35702e-21)
(-0.103746 0.0249407 -1.79864e-21)
(-0.127469 -0.00471695 3.08696e-21)
(-0.149988 -0.0371217 3.89373e-21)
(-0.170867 -0.0735684 -6.58419e-22)
(-0.190275 -0.115868 1.90332e-21)
(-0.00510282 0.0502177 -1.20299e-21)
(-0.0174027 0.0940159 3.72611e-21)
(-0.0363825 0.102252 -8.99151e-21)
(-0.0578267 0.0894948 8.16947e-21)
(-0.0805973 0.0663828 3.15487e-22)
(-0.103631 0.0388161 5.96122e-21)
(-0.125918 0.00864748 -1.04899e-20)
(-0.146701 -0.0245164 -1.55293e-20)
(-0.165532 -0.0617282 -3.1634e-21)
(-0.182403 -0.104451 7.19156e-21)
(-0.00711068 0.0536291 1.1831e-21)
(-0.0207168 0.102107 8.52365e-21)
(-0.0392175 0.113403 1.99201e-20)
(-0.0593834 0.10241 -1.80643e-20)
(-0.0804329 0.0800545 -4.21131e-21)
(-0.10141 0.0525011 -3.77189e-21)
(-0.121249 0.0218314 1.95544e-20)
(-0.139058 -0.0120996 1.20331e-20)
(-0.154281 -0.0500881 2.83136e-21)
(-0.166406 -0.0931564 -2.24672e-20)
(-0.00924087 0.0564739 4.22528e-21)
(-0.0241593 0.109295 -4.94766e-21)
(-0.0418594 0.123702 -3.79555e-20)
(-0.0602394 0.114622 3.26105e-21)
(-0.0789015 0.0931483 1.04151e-20)
(-0.097005 0.0656727 -8.35049e-21)
(-0.113416 0.034506 -4.92146e-23)
(-0.127068 -0.000259164 -3.55174e-21)
(-0.137243 -0.0391099 7.8709e-21)
(-0.142481 -0.0826216 2.33205e-20)
(-0.0114242 0.0586211 3.01139e-21)
(-0.0276292 0.115311 -1.67062e-20)
(-0.0442221 0.132825 3.97915e-20)
(-0.0603307 0.125798 -1.84124e-20)
(-0.0759627 0.105342 -2.67171e-23)
(-0.0904102 0.0780256 2.58485e-20)
(-0.10247 0.0463678 -1.18154e-20)
(-0.11086 0.0106711 1.28201e-21)
(-0.114748 -0.0291917 -4.96942e-21)
(-0.111079 -0.0734598 2.3435e-21)
(-0.013582 0.0599661 3.60601e-20)
(-0.0310146 0.119916 4.33296e-20)
(-0.0462251 0.140466 -1.09217e-20)
(-0.059618 0.135615 2.11023e-20)
(-0.0716183 0.116325 6.91979e-21)
(-0.0816736 0.0892746 -9.52002e-21)
(-0.0885277 0.0571554 -3.77821e-21)
(-0.0906361 0.0204369 -1.74441e-20)
(-0.0872734 -0.0206353 3.81586e-21)
(-0.0728124 -0.066204 -2.27595e-20)
(-0.0156312 0.0604389 -3.48121e-20)
(-0.0341988 0.122919 -2.26884e-20)
(-0.0477958 0.146356 1.88664e-20)
(-0.0580855 0.143769 -3.28863e-20)
(-0.0659073 0.125801 4.09457e-21)
(-0.0708883 0.0991505 3.96481e-20)
(-0.0717546 0.0666417 -7.23456e-21)
(-0.0666215 0.0288489 4.85266e-20)
(-0.0553465 -0.0136464 -5.23192e-22)
(-0.0283678 -0.0610729 -2.07065e-20)
(-0.0174909 0.0600105 2.99662e-20)
(-0.0370667 0.124185 -5.38088e-20)
(-0.0488722 0.150268 -2.14495e-20)
(-0.0557401 0.149984 2.48888e-20)
(-0.0589022 0.133483 1.16533e-21)
(-0.0581833 0.107393 -7.48548e-20)
(-0.052347 0.0746238 -4.87868e-21)
(-0.0390389 0.0358119 -3.88299e-20)
(-0.019296 -0.00848911 -5.13203e-20)
(0.0215812 -0.0577494 3.08879e-20)
(-0.0190896 0.0586961 -1.67882e-20)
(-0.0395134 0.12365 7.95144e-21)
(-0.0494056 0.152031 1.98527e-20)
(-0.052611 0.154017 -1.83486e-20)
(-0.0507048 0.139099 -6.40648e-20)
(-0.043715 0.113742 2.2168e-20)
(-0.0304992 0.08089 3.13124e-21)
(-0.00820301 0.0413031 5.92009e-20)
(0.0208156 -0.00525468 8.01853e-20)
(0.0769543 -0.0562889 -3.66296e-20)
(-0.0203703 0.056556 2.69783e-20)
(-0.0414528 0.121324 2.44686e-20)
(-0.0493639 0.15154 -3.48993e-21)
(-0.0487435 0.155664 9.0501e-20)
(-0.0414382 0.142389 3.86915e-20)
(-0.027667 0.117922 2.95631e-20)
(-0.00637915 0.085206 4.33841e-20)
(0.0257043 0.0451374 -1.9109e-20)
(0.0645956 -0.00372252 -2.69828e-20)
(0.138494 -0.0568148 -4.60127e-20)
(-0.0212979 0.0536912 -2.23365e-21)
(-0.0428231 0.117292 -3.87683e-20)
(-0.0487333 0.148765 -2.80086e-20)
(-0.0441955 0.154775 -4.50071e-20)
(-0.0312366 0.143114 -3.62675e-20)
(-0.0102277 0.119644 3.70068e-20)
(0.0197765 0.0872664 -3.64608e-20)
(0.0626555 0.0470146 -2.5805e-20)
(0.1119 -0.00388384 3.45996e-21)
(0.206571 -0.0588005 1.17677e-20)
(-0.021863 0.050238 -7.52095e-20)
(-0.0435918 0.111711 3.5643e-20)
(-0.0475126 0.143759 2.60144e-20)
(-0.039024 0.151274 1.7522e-20)
(-0.0202216 0.141085 -3.24568e-20)
(0.00843323 0.118635 -2.79804e-20)
(0.0477866 0.0867381 4.12269e-20)
(0.102556 0.0467561 -3.44482e-20)
(0.162921 -0.00615656 -1.842e-21)
(0.281558 -0.061786 -3.80364e-20)
(-0.0220831 0.0463586 6.33496e-20)
(-0.043757 0.104807 2.56177e-20)
(-0.0457055 0.13666 1.48837e-21)
(-0.0332601 0.14517 -3.19539e-20)
(-0.00845989 0.136187 2.23124e-21)
(0.0282328 0.114678 3.68095e-20)
(0.077618 0.0833158 -1.07805e-20)
(0.145396 0.0441048 -1.35771e-20)
(0.21822 -0.0109602 -3.17678e-20)
(0.363652 -0.065415 5.79485e-20)
(-0.022001 0.0422284 4.31436e-20)
(-0.0433417 0.0968533 -6.93103e-20)
(-0.0433052 0.127692 -5.35338e-20)
(-0.0268764 0.136575 2.30764e-20)
(0.00409648 0.128416 4.76989e-20)
(0.0492645 0.107663 4.13257e-20)
(0.109515 0.076795 -4.5034e-20)
(0.191426 0.0388037 8.97237e-20)
(0.278947 -0.0184357 -2.75481e-20)
(0.452599 -0.0693848 -6.82085e-20)
(-0.0216798 0.0380231 -6.46059e-20)
(-0.0423839 0.0881543 3.87383e-20)
(-0.0402733 0.11715 -1.86436e-20)
(-0.0197463 0.125713 1.93889e-21)
(0.0176808 0.117907 1.99988e-20)
(0.0719094 0.0976518 -6.51278e-20)
(0.14414 0.0671979 5.96014e-20)
(0.241334 0.0307139 -5.87518e-20)
(0.346905 -0.028168 9.823e-20)
(0.547395 -0.073313 3.62977e-20)
(-0.0211934 0.0339031 1.37277e-20)
(-0.040919 0.0790219 7.5312e-20)
(-0.0365144 0.105389 -1.89529e-20)
(-0.0116026 0.11292 1.92317e-20)
(0.0327796 0.104961 2.26045e-20)
(0.0969381 0.0849239 -6.74034e-21)
(0.182671 0.0548784 5.04642e-20)
(0.296381 0.0199321 2.13663e-21)
(0.424158 -0.0389912 -6.34336e-20)
(0.645928 -0.0766404 8.57316e-20)
(-0.0206148 0.0300008 -3.6712e-20)
(-0.0389595 0.0697499 -7.13527e-20)
(-0.0318501 0.0927997 6.18525e-20)
(-0.00200334 0.0986305 3.10683e-20)
(0.0501748 0.0900457 -1.45655e-19)
(0.125549 0.0700137 1.20071e-19)
(0.226752 0.0405778 -1.11096e-19)
(0.35834 0.00695689 1.31698e-21)
(0.512056 -0.049053 -2.64924e-20)
(0.744761 -0.0786318 -7.94883e-20)
(-0.0200015 0.0264094 3.17007e-20)
(-0.0364724 0.0605902 -4.24832e-21)
(-0.0259989 0.0797775 -1.52119e-20)
(0.00968269 0.0833542 -1.77621e-21)
(0.0709438 0.0737781 -8.83276e-21)
(0.159321 0.0536891 -3.85133e-20)
(0.278257 0.0253782 1.71149e-20)
(0.429127 -0.00713293 -2.67706e-20)
(0.609988 -0.0561222 8.16241e-21)
(0.839414 -0.0786503 2.08195e-21)
(-0.0193823 0.0231751 -6.4681e-20)
(-0.0333604 0.0517347 -4.57538e-21)
(-0.0185678 0.0666951 6.98819e-21)
(0.0242585 0.0676364 2.80989e-21)
(0.0963812 0.0568833 4.75879e-20)
(0.200027 0.0369003 -1.39891e-19)
(0.338903 0.0105406 9.62183e-20)
(0.510095 -0.0205864 -7.27356e-20)
(0.714643 -0.0581349 6.31181e-20)
(0.92568 -0.0771626 7.08687e-20)
(-0.0187459 0.0202963 -7.76127e-21)
(-0.0294508 0.0433034 3.58606e-20)
(-0.00906145 0.0538762 -4.48876e-20)
(0.0426473 0.0520206 -1.40641e-20)
(0.127864 0.0401382 2.7242e-20)
(0.249318 0.0207062 1.32783e-19)
(0.409769 -0.00270004 -2.72069e-20)
(0.601131 -0.0311471 1.35611e-20)
(0.820531 -0.0543816 -7.2242e-20)
(1.00194 -0.0772395 3.11477e-20)
(-0.018035 0.0177278 -2.3445e-20)
(-0.0244945 0.0353437 -1.81528e-20)
(0.00308998 0.0415773 4.45679e-21)
(0.0658065 0.0370093 1.77421e-20)
(0.166665 0.0243126 -5.26295e-20)
(0.308364 0.0061716 -2.14901e-20)
(0.490865 -0.0132544 -6.83877e-20)
(0.699913 -0.0367517 7.16377e-20)
(0.921733 -0.0472038 7.60868e-20)
(1.07028 -0.0823748 -3.37354e-20)
(-0.0171471 0.0153914 -1.10964e-20)
(-0.0181771 0.027839 4.55208e-20)
(0.0184894 0.0299819 -5.08339e-20)
(0.0946285 0.0230391 -5.92658e-21)
(0.213753 0.010122 -2.40667e-20)
(0.377528 -0.0057273 5.30122e-20)
(0.580843 -0.0202002 6.93124e-20)
(0.801906 -0.036764 -6.66009e-20)
(1.0136 -0.0407308 7.01286e-20)
(1.1567 -0.0722131 8.83368e-21)
(-0.0159418 0.0131906 -3.22223e-20)
(-0.0101384 0.0207287 -9.18642e-20)
(0.0377255 0.0192104 8.96961e-20)
(0.129845 0.0104743 1.29325e-20)
(0.269634 -0.00180327 1.90925e-20)
(0.456172 -0.0141886 1.13781e-20)
(0.676962 -0.0228801 5.24658e-20)
(0.901842 -0.0322015 3.88046e-20)
(1.09834 -0.0319251 -1.37711e-19)
(1.22687 -0.0563111 -6.63268e-20)
(-0.0142515 0.0110279 -1.10539e-19)
(3.134e-06 0.0139353 2.22873e-20)
(0.0613297 0.00934392 -5.06287e-20)
(0.171952 -0.000378474 9.90313e-21)
(0.334236 -0.0109265 1.59385e-20)
(0.542641 -0.0186555 -1.15163e-19)
(0.775488 -0.0211147 5.07516e-20)
(0.995912 -0.0238694 -3.47405e-20)
(1.17232 -0.0203427 3.64593e-20)
(1.27927 -0.0394845 -1.23001e-20)
(-0.0118955 0.0088209 3.9938e-20)
(0.0126264 0.00739502 4.30328e-20)
(0.0897428 0.000459092 -2.41159e-21)
(0.221163 -0.00923932 -1.3899e-20)
(0.406868 -0.0168038 6.01579e-22)
(0.634432 -0.0188641 1.26462e-21)
(0.872514 -0.015157 -7.74461e-20)
(1.08117 -0.0124603 9.73555e-21)
(1.23417 -0.00691569 9.53363e-20)
(1.32067 -0.0220107 4.27123e-20)
(-0.00869147 0.0065155 -2.7006e-20)
(0.0280866 0.00108692 -2.00806e-20)
(0.12329 -0.00733508 8.61719e-20)
(0.277382 -0.0158212 2.21507e-21)
(0.486236 -0.0190924 -3.61881e-20)
(0.728534 -0.0148389 9.78252e-20)
(0.964612 -0.0055191 2.13474e-20)
(1.15585 0.00128794 8.9147e-22)
(1.28444 0.0078402 -4.18802e-20)
(1.35024 -0.00457571 -5.34726e-20)
(-0.00446619 0.0040943 5.63095e-20)
(0.0466982 -0.00494548 -1.57715e-20)
(0.162163 -0.0138665 -9.39795e-21)
(0.340183 -0.0198106 -3.58062e-20)
(0.570534 -0.0175734 5.91136e-20)
(0.821858 -0.00683923 -2.90811e-20)
(1.04922 0.00717901 -3.26478e-20)
(1.21937 0.0167541 -7.95375e-21)
(1.32382 0.023381 -2.36744e-20)
(1.37131 0.0125634 2.55468e-20)
(0.000938164 0.00157923 -2.07652e-20)
(0.0687192 -0.0105821 -1.23302e-19)
(0.2064 -0.0188838 1.28934e-20)
(0.408808 -0.0208756 4.4557e-20)
(0.657604 -0.0121753 3.19833e-20)
(0.911625 0.00472449 -1.06528e-19)
(1.12474 0.0223229 6.80597e-20)
(1.27191 0.0334129 -3.0978e-20)
(1.35375 0.03935 4.63256e-20)
(1.38518 0.0293763 1.25866e-20)
(0.00765942 -0.00097007 -2.26751e-20)
(0.0943373 -0.0156249 4.38025e-20)
(0.255861 -0.0220587 5.71419e-20)
(0.482171 -0.0187011 -4.11569e-20)
(0.745149 -0.00297774 1.53022e-20)
(0.995629 0.0193719 -9.36721e-20)
(1.19044 0.0393571 -1.78188e-20)
(1.31425 0.0508599 1.45607e-20)
(1.37565 0.0555111 -3.51925e-20)
(1.39367 0.0458193 -3.5367e-20)
(0.015812 -0.0034608 -2.92117e-20)
(0.123655 -0.0198064 -9.82233e-21)
(0.310211 -0.0230079 -1.0344e-19)
(0.5589 -0.013037 -1.62246e-20)
(0.830966 0.00981052 -1.81693e-21)
(1.07233 0.0366127 5.53774e-21)
(1.24627 0.0578102 9.86045e-21)
(1.34745 0.0687959 -4.55168e-20)
(1.39092 0.0717247 8.205e-22)
(1.39799 0.0619606 2.43956e-20)
(0.0254841 -0.00577319 -7.58147e-21)
(0.156672 -0.0228051 3.58404e-20)
(0.368895 -0.0213297 5.05175e-20)
(0.637426 -0.00373866 3.16331e-20)
(0.913128 0.0258897 -9.44192e-21)
(1.14081 0.055984 -7.70797e-21)
(1.29266 0.0772989 7.66162e-20)
(1.3727 0.0870138 1.00234e-20)
(1.40084 0.0879265 3.4103e-20)
(1.39919 0.0778504 -1.46428e-20)
(0.0367337 -0.0077667 7.24453e-20)
(0.193277 -0.0242648 4.71716e-20)
(0.43115 -0.0166485 -4.7834e-20)
(0.716101 0.00921542 -9.53688e-21)
(0.990097 0.0449087 4.91204e-21)
(1.20069 0.0770694 -1.80374e-20)
(1.33029 0.0975239 -3.91404e-20)
(1.39116 0.105379 -6.5946e-21)
(1.40648 0.104096 5.56397e-22)
(1.39803 0.0935597 1.58156e-20)
(0.0495842 -0.00928581 8.76254e-21)
(0.23323 -0.0238174 -2.56726e-20)
(0.49602 -0.00865522 6.07996e-20)
(0.79332 0.0257298 3.96725e-20)
(1.06076 0.0664964 1.09245e-21)
(1.25201 0.0995065 2.81097e-20)
(1.36004 0.118258 4.18803e-21)
(1.40391 0.123812 -2.94726e-20)
(1.40872 0.120239 2.48811e-20)
(1.39506 0.109141 -3.99868e-23)
(0.0640197 -0.0101656 -5.939e-20)
(0.276164 -0.021105 -1.75566e-20)
(0.562407 0.00286154 -1.59579e-20)
(0.867633 0.0456134 -2.77524e-20)
(1.12441 0.0902845 6.41064e-21)
(1.29508 0.122988 1.50236e-22)
(1.38279 0.139334 2.14515e-20)
(1.4119 0.142269 -3.39185e-21)
(1.40825 0.136372 -2.55732e-20)
(1.39065 0.124637 -2.37796e-20)
(0.0799809 -0.0102372 4.79375e-21)
(0.321587 -0.0158027 2.83028e-20)
(0.629137 0.0180015 1.36929e-20)
(0.937814 0.0686052 -4.29406e-20)
(1.18066 0.115919 -2.20814e-21)
(1.33039 0.147255 -1.83958e-20)
(1.39941 0.16063 4.80697e-22)
(1.41594 0.160728 8.68732e-21)
(1.40559 0.152513 -9.62073e-21)
(1.38508 0.14007 2.684e-20)
(0.0973624 -0.00933409 1.1184e-20)
(0.368892 -0.00763893 -2.75954e-20)
(0.695026 0.036752 -6.53033e-20)
(1.00289 0.0943977 6.01997e-20)
(1.22942 0.14307 -4.50198e-21)
(1.35852 0.172093 1.33316e-20)
(1.41069 0.182055 -1.83665e-21)
(1.41668 0.179176 1.27979e-20)
(1.40112 0.168669 -9.52033e-22)
(1.37849 0.155445 -2.07999e-20)
(0.116012 -0.00729773 -2.27231e-20)
(0.417384 0.00358809 3.57776e-20)
(0.758943 0.0589977 2.96844e-20)
(1.06215 0.122654 -4.27693e-20)
(1.27079 0.171428 -7.05538e-21)
(1.38009 0.197322 2.71153e-21)
(1.41733 0.20354 2.71331e-20)
(1.41464 0.197601 1.38801e-21)
(1.39512 0.184837 5.31803e-21)
(1.37097 0.17075 -1.147e-20)
(0.135732 -0.00398489 1.72356e-20)
(0.466303 0.0179986 -1.55734e-20)
(0.819862 0.0845351 -1.32313e-20)
(1.1151 0.153024 2.27523e-20)
(1.30499 0.20071 7.88018e-21)
(1.3957 0.222786 5.94856e-21)
(1.41995 0.225023 -2.76025e-20)
(1.41021 0.215985 -9.49862e-21)
(1.38776 0.200999 -8.54282e-21)
(1.36259 0.185958 3.76868e-21)
(0.156282 0.000725905 -8.52418e-21)
(0.514854 0.0356247 -2.01318e-22)
(0.876892 0.113089 2.50258e-20)
(1.16144 0.185148 -9.20592e-21)
(1.33235 0.230651 -4.04491e-21)
(1.40593 0.248348 -2.67137e-21)
(1.41903 0.246447 6.67303e-21)
(1.4037 0.2343 1.15818e-20)
(1.37916 0.217124 -3.67008e-22)
(1.35335 0.20103 4.26841e-21)
(0.177389 0.00692807 6.00002e-21)
(0.562244 0.0564098 -1.68539e-21)
(0.929292 0.14433 -4.46737e-21)
(1.20106 0.218667 -4.04724e-21)
(1.35324 0.261006 3.65204e-21)
(1.41129 0.273879 2.85648e-21)
(1.415 0.267752 -2.63941e-21)
(1.39533 0.252504 9.67425e-22)
(1.36939 0.233161 1.36415e-21)
(1.34326 0.215913 -1.82311e-21)
(0.198747 0.0146817 3.18608e-21)
(0.607707 0.0802118 9.13256e-22)
(0.976477 0.177883 -5.49093e-21)
(1.23394 0.253225 -4.38604e-21)
(1.36805 0.29154 4.58263e-21)
(1.41225 0.299257 8.97431e-22)
(1.40818 0.288866 -2.12241e-21)
(1.38526 0.270541 2.00258e-21)
(1.35849 0.249047 1.12916e-21)
(1.33234 0.230546 -1.31254e-21)
(0.220034 0.0240097 -1.25376e-21)
(0.650527 0.10681 2.55616e-21)
(1.01801 0.213346 1.68546e-20)
(1.26018 0.288469 -7.48953e-21)
(1.37717 0.322031 -3.70323e-21)
(1.40921 0.32436 -4.19558e-21)
(1.39883 0.309712 8.63833e-21)
(1.37359 0.288342 5.85108e-21)
(1.3465 0.264698 4.72118e-21)
(1.32059 0.24486 2.59997e-21)
(0.240916 0.0348957 2.53867e-20)
(0.690063 0.135915 -1.40327e-20)
(1.05358 0.250295 -1.60581e-20)
(1.27993 0.324055 2.18048e-20)
(1.38097 0.352264 1.15137e-20)
(1.40251 0.349062 -7.80405e-22)
(1.38715 0.330199 -1.44579e-20)
(1.3604 0.305818 -1.04983e-20)
(1.3334 0.28002 -1.11299e-20)
(1.30799 0.258785 6.71218e-21)
(0.261059 0.0472831 -3.42978e-20)
(0.725758 0.167177 3.23638e-20)
(1.08301 0.288293 3.72315e-20)
(1.29342 0.359646 -3.68132e-20)
(1.37984 0.382027 -1.28208e-20)
(1.39247 0.373235 8.30744e-21)
(1.37332 0.350231 1.52438e-20)
(1.34574 0.322876 2.4467e-21)
(1.31918 0.294909 -4.79909e-22)
(1.29444 0.272245 -9.26735e-21)
(0.280135 0.0610769 -4.86954e-21)
(0.757149 0.2002 -4.53797e-20)
(1.10621 0.326898 -4.86828e-20)
(1.3009 0.394914 5.47777e-20)
(1.37411 0.411114 -6.2406e-21)
(1.37933 0.396744 1.16537e-20)
(1.35746 0.369701 2.35841e-21)
(1.32965 0.339423 -6.6029e-21)
(1.30382 0.309288 3.55593e-21)
(1.27977 0.285166 -5.79832e-22)
(0.297835 0.0761455 9.94035e-21)
(0.783873 0.234553 2.80355e-20)
(1.1232 0.365667 1.59522e-20)
(1.30264 0.429542 -1.25508e-20)
(1.3641 0.439321 -1.9647e-20)
(1.36334 0.419447 -1.85537e-20)
(1.33969 0.388491 -3.81588e-21)
(1.31218 0.355367 1.04082e-20)
(1.28733 0.323148 -2.20932e-21)
(1.26386 0.297459 5.14229e-21)
(0.313876 0.0923237 -3.74258e-20)
(0.805668 0.269782 -3.51168e-20)
(1.13405 0.404161 -5.56826e-21)
(1.29895 0.463221 -6.30331e-21)
(1.35012 0.466445 -1.45562e-20)
(1.34469 0.441199 9.06499e-21)
(1.3201 0.40647 -1.61752e-21)
(1.29338 0.370584 -9.1757e-21)
(1.2698 0.336493 8.36399e-21)
(1.24706 0.309052 -1.27009e-20)
(0.328005 0.109416 8.95701e-21)
(0.822365 0.305422 2.97507e-20)
(1.13891 0.441954 2.59619e-20)
(1.29014 0.495653 2.83906e-20)
(1.33247 0.492289 4.83228e-22)
(1.32356 0.461851 2.56781e-20)
(1.29878 0.423505 1.88376e-21)
(1.27328 0.384926 -3.17246e-20)
(1.25112 0.349095 2.32513e-20)
(1.22963 0.31994 8.69415e-21)
(0.340007 0.127203 2.41847e-20)
(0.833878 0.341007 5.42508e-20)
(1.13798 0.478634 -7.21036e-21)
(1.27651 0.526552 -3.5786e-20)
(1.31141 0.516659 1.62997e-20)
(1.30013 0.481251 -1.72906e-20)
(1.27585 0.439462 -2.39236e-20)
(1.25196 0.398332 -2.52438e-21)
(1.23129 0.360794 -1.98521e-20)
(1.21147 0.329993 7.96468e-21)
(0.349708 0.145447 1.14036e-20)
(0.840204 0.376077 8.52696e-21)
(1.13151 0.513806 6.82609e-20)
(1.25841 0.555643 1.30422e-20)
(1.28721 0.539362 -1.15815e-20)
(1.27457 0.499241 -6.00645e-21)
(1.25143 0.4542 3.72856e-20)
(1.22943 0.41068 3.15837e-20)
(1.21046 0.371506 1.61844e-20)
(1.19252 0.33909 -2.38277e-21)
(0.356977 0.163896 2.46231e-21)
(0.841411 0.410184 -5.54923e-20)
(1.11979 0.547098 -8.03921e-20)
(1.23617 0.582674 2.74023e-21)
(1.26011 0.560204 1.66157e-20)
(1.24707 0.515662 -2.32376e-20)
(1.22559 0.467591 -5.57381e-20)
(1.20574 0.421853 -1.7194e-20)
(1.18868 0.381126 -1.11377e-21)
(1.1728 0.347149 9.9184e-21)
(0.361726 0.182295 -1.98507e-20)
(0.837644 0.442895 5.03969e-20)
(1.10318 0.578166 4.85132e-20)
(1.21012 0.607412 -4.58224e-20)
(1.23035 0.579002 6.9273e-21)
(1.21776 0.530351 5.83971e-20)
(1.19842 0.479501 -1.44544e-20)
(1.18098 0.431737 1.20216e-20)
(1.16602 0.38956 -6.85238e-21)
(1.15236 0.354098 -9.42008e-21)
(0.363915 0.20038 -4.49291e-20)
(0.829125 0.47379 -7.94168e-20)
(1.08204 0.6067 -1.57143e-20)
(1.18047 0.629596 2.61584e-20)
(1.19823 0.595604 2.70646e-20)
(1.18684 0.543153 -5.91033e-20)
(1.17005 0.489801 3.40564e-20)
(1.15526 0.440223 -2.02622e-20)
(1.14254 0.396713 1.78224e-20)
(1.1313 0.359872 -1.21973e-23)
(0.36356 0.217894 3.42166e-20)
(0.816148 0.502489 2.17212e-21)
(1.0566 0.632417 -7.7051e-21)
(1.14755 0.64902 -3.34207e-20)
(1.16403 0.609793 2.33811e-20)
(1.15448 0.553953 4.11921e-21)
(1.1406 0.498377 -2.16116e-20)
(1.12866 0.447208 2.25889e-21)
(1.11834 0.40249 -6.00418e-21)
(1.10969 0.364398 5.19883e-21)
(0.360731 0.234577 -9.61035e-21)
(0.799024 0.528719 -1.3924e-20)
(1.02698 0.654921 3.49278e-20)
(1.11189 0.665546 1.6496e-20)
(1.128 0.621418 -2.34158e-20)
(1.12086 0.56261 3.76946e-20)
(1.11021 0.505116 1.84241e-21)
(1.1013 0.452598 1.23593e-21)
(1.0935 0.40679 -6.10299e-21)
(1.08764 0.36758 -7.01422e-22)
(0.35551 0.250126 6.29293e-20)
(0.777936 0.55226 4.87615e-20)
(0.99369 0.674031 -2.56315e-21)
(1.0739 0.678875 -8.49741e-21)
(1.09039 0.630397 -9.9735e-21)
(1.08616 0.569019 -5.27001e-21)
(1.07904 0.509921 8.66242e-22)
(1.0733 0.456311 3.27818e-21)
(1.06813 0.40952 6.34945e-21)
(1.06523 0.369315 1.57489e-21)
(0.347942 0.264234 6.32905e-21)
(0.753041 0.572658 9.16121e-21)
(0.957447 0.689714 -4.84697e-20)
(1.03388 0.68886 2.27368e-20)
(1.05148 0.636598 9.7943e-21)
(1.05059 0.573074 -2.3263e-20)
(1.04723 0.512703 6.95949e-21)
(1.04477 0.458275 1.02968e-21)
(1.04237 0.410615 -9.61388e-22)
(1.04269 0.36956 -1.13714e-21)
(0.338127 0.276681 -2.37846e-20)
(0.724723 0.589509 -1.83233e-20)
(0.918653 0.701707 1.74539e-20)
(0.992147 0.695457 6.56621e-21)
(1.0115 0.639921 -8.29151e-21)
(1.01433 0.574682 1.01308e-20)
(1.0149 0.513373 4.02648e-22)
(1.01579 0.458398 2.6261e-21)
(1.01647 0.410003 4.48906e-21)
(1.02078 0.368372 3.28e-21)
(0.326296 0.287333 -1.93905e-20)
(0.693507 0.602652 5.35114e-20)
(0.877655 0.709797 -3.62201e-20)
(0.949033 0.698576 -3.81137e-21)
(0.970717 0.640288 -9.55352e-21)
(0.977569 0.573769 5.88926e-21)
(0.982174 0.51185 -8.78591e-22)
(0.986493 0.456538 8.35949e-22)
(0.990867 0.407466 2.3711e-21)
(1.00032 0.365768 -5.67361e-22)
(0.312645 0.296064 -2.94932e-22)
(0.659833 0.611944 -1.55654e-20)
(0.834862 0.713832 1.13711e-20)
(0.904885 0.698139 -8.21434e-21)
(0.929402 0.637643 -1.6827e-21)
(0.940491 0.570291 2.15504e-21)
(0.949169 0.508098 4.87049e-21)
(0.957066 0.452603 -5.42463e-21)
(0.965943 0.402595 -1.11138e-20)
(0.980527 0.36094 6.35864e-21)
(0.297363 0.302704 2.71721e-21)
(0.624143 0.617256 -9.35015e-24)
(0.790699 0.713727 4.48139e-22)
(0.86005 0.694091 -3.33385e-21)
(0.887815 0.631949 -2.07325e-21)
(0.903295 0.564227 -9.45916e-21)
(0.916084 0.502128 -2.40035e-21)
(0.927809 0.446745 -2.33827e-21)
(0.941643 0.395654 1.867e-20)
(0.958131 0.349971 -2.80946e-21)
(0.28068 0.307121 -9.49283e-21)
(0.586871 0.618491 -5.7801e-21)
(0.745591 0.709438 3.06689e-21)
(0.814874 0.686404 1.65139e-21)
(0.846221 0.623186 -5.93437e-21)
(0.866202 0.555555 2.15897e-20)
(0.883195 0.493912 -1.72824e-20)
(0.898956 0.43906 2.1204e-20)
(0.916729 0.388741 -1.47486e-20)
(0.932818 0.344616 -2.06451e-20)
(0.262849 0.309216 3.29261e-21)
(0.548449 0.615587 -3.80333e-21)
(0.699959 0.700954 1.70483e-21)
(0.769701 0.675074 8.74456e-21)
(0.804887 0.611353 -5.18966e-21)
(0.829444 0.54426 7.67194e-21)
(0.850715 0.483395 9.76788e-21)
(0.870532 0.429233 -5.204e-21)
(0.891707 0.379437 -1.62087e-20)
(0.908797 0.335512 2.18411e-20)
(0.244126 0.308918 5.56177e-21)
(0.509307 0.608519 6.67292e-21)
(0.654219 0.688293 -8.12349e-21)
(0.724867 0.660128 -6.81988e-21)
(0.764078 0.596469 3.13198e-20)
(0.793239 0.530364 -3.2712e-20)
(0.81879 0.470639 4.0938e-20)
(0.842528 0.417537 -1.00092e-20)
(0.866759 0.368876 1.08481e-20)
(0.885542 0.326193 2.14267e-20)
(0.224774 0.306184 -1.15947e-21)
(0.469871 0.597299 -8.01305e-21)
(0.608773 0.671508 -7.37818e-21)
(0.680701 0.641617 -3.22898e-21)
(0.724058 0.578573 5.65858e-21)
(0.757812 0.513893 -9.78565e-21)
(0.787594 0.455651 -1.2098e-20)
(0.815115 0.403889 -2.81789e-20)
(0.842275 0.356606 2.82496e-20)
(0.863203 0.315371 -8.68841e-21)
(0.205057 0.300999 2.05615e-20)
(0.43056 0.581977 -3.28257e-21)
(0.564015 0.650679 -1.04914e-20)
(0.637524 0.619615 1.24257e-20)
(0.685084 0.557728 -2.18886e-20)
(0.723372 0.4949 6.1521e-20)
(0.757294 0.438486 -3.30791e-20)
(0.788462 0.388386 3.02101e-20)
(0.818481 0.342803 -5.52805e-20)
(0.841789 0.303202 -1.48265e-20)
(0.185235 0.293376 -4.93527e-21)
(0.39178 0.562638 2.20012e-20)
(0.520325 0.625914 4.68042e-21)
(0.595646 0.594222 -1.20244e-20)
(0.647406 0.534015 -2.10177e-20)
(0.690125 0.473449 -9.93284e-23)
(0.728061 0.419199 1.10235e-20)
(0.762735 0.371061 -2.76844e-20)
(0.795541 0.327435 1.32819e-20)
(0.821336 0.289611 1.70387e-21)
(0.165567 0.283357 -3.80438e-20)
(0.353927 0.539403 -9.0947e-21)
(0.478067 0.597353 -2.76583e-21)
(0.555363 0.56556 3.21486e-20)
(0.611264 0.507533 -3.03243e-20)
(0.658271 0.449627 -7.52445e-21)
(0.700067 0.397866 -4.84036e-21)
(0.738095 0.351979 8.62277e-21)
(0.773594 0.310547 -1.13627e-20)
(0.801905 0.274636 -1.75546e-20)
(0.146304 0.271006 3.51065e-20)
(0.317375 0.512422 -2.02413e-20)
(0.437586 0.56516 7.5974e-22)
(0.516959 0.533775 -4.93167e-20)
(0.57689 0.478404 5.37671e-20)
(0.628003 0.423534 -1.70152e-20)
(0.673478 0.374572 1.01704e-20)
(0.714691 0.331208 8.91473e-21)
(0.752763 0.292185 2.58217e-20)
(0.783567 0.258325 -1.08526e-20)
(0.127686 0.256415 -1.41449e-20)
(0.282484 0.48188 4.23249e-20)
(0.39921 0.529527 2.40126e-20)
(0.4807 0.499031 3.98918e-20)
(0.544499 0.446766 -9.08295e-21)
(0.599503 0.395286 3.74825e-21)
(0.64845 0.349418 3.0032e-20)
(0.692661 0.308832 6.82699e-21)
(0.733165 0.272414 6.63451e-22)
(0.766397 0.240748 -1.30877e-20)
(0.109943 0.239697 -3.42262e-20)
(0.249587 0.447987 -2.38455e-21)
(0.363243 0.490669 -1.43507e-20)
(0.446838 0.461516 -6.49426e-20)
(0.514299 0.412774 -6.2928e-20)
(0.572945 0.365017 1.04322e-20)
(0.625132 0.322517 -2.58313e-20)
(0.672133 0.284944 1.67048e-20)
(0.714907 0.251312 9.03304e-21)
(0.750467 0.221988 1.85407e-20)
(0.0932899 0.220989 5.12971e-20)
(0.218997 0.410982 -4.20123e-20)
(0.32997 0.448824 -2.14666e-20)
(0.415604 0.421434 3.7645e-20)
(0.486479 0.376602 4.31489e-20)
(0.54849 0.332873 -1.44893e-20)
(0.603663 0.293996 -1.9678e-21)
(0.653228 0.259652 -5.17642e-20)
(0.698092 0.228972 -2.9227e-20)
(0.73585 0.202136 1.11856e-20)
(0.0779254 0.200446 -2.93375e-20)
(0.191 0.371129 1.23229e-20)
(0.299647 0.40425 4.56972e-20)
(0.387209 0.379008 -2.07786e-20)
(0.461214 0.338435 1.77117e-21)
(0.526285 0.299013 5.82358e-20)
(0.584169 0.263991 2.57919e-21)
(0.636056 0.233072 4.99467e-20)
(0.682816 0.205495 2.07862e-20)
(0.722612 0.18129 -3.30676e-20)
(0.0640306 0.178242 4.13377e-20)
(0.165852 0.328711 4.69967e-21)
(0.272509 0.357224 3.06601e-21)
(0.361846 0.334475 4.20317e-20)
(0.438662 0.298475 -5.50943e-21)
(0.506466 0.263609 -3.66649e-20)
(0.566766 0.23265 1.79567e-20)
(0.620718 0.20533 -2.87627e-20)
(0.669165 0.180993 -1.19499e-20)
(0.710815 0.159557 1.20724e-20)
(0.051767 0.154568 -2.57445e-20)
(0.143782 0.284035 -4.97201e-20)
(0.24876 0.308042 1.15826e-20)
(0.339684 0.288089 -2.26172e-20)
(0.418964 0.256936 -1.35574e-20)
(0.489151 0.226844 3.30429e-20)
(0.551557 0.20013 -7.98658e-21)
(0.607304 0.176562 7.28231e-21)
(0.657219 0.155585 -8.918e-21)
(0.700514 0.137044 1.77853e-20)
(0.041275 0.12963 9.46543e-21)
(0.124988 0.237422 3.36502e-20)
(0.228578 0.257013 -4.68924e-20)
(0.320868 0.240113 2.20902e-20)
(0.402241 0.214041 -1.00868e-20)
(0.474444 0.18891 -2.83699e-20)
(0.53863 0.166598 2.3208e-20)
(0.595891 0.146911 4.8147e-21)
(0.647047 0.129397 -7.43728e-22)
(0.691757 0.113865 -2.06702e-20)
(0.0326729 0.103643 3.13765e-21)
(0.109634 0.189209 1.09649e-20)
(0.212113 0.204457 4.26026e-20)
(0.305522 0.190824 -8.20512e-21)
(0.388595 0.170023 -6.46651e-21)
(0.462432 0.150007 2.36655e-21)
(0.528061 0.132225 1.12724e-21)
(0.586548 0.116526 8.67173e-21)
(0.638709 0.102559 -1.14121e-20)
(0.684584 0.0901339 -7.24559e-21)
(0.0260557 0.076836 -7.79396e-21)
(0.0978537 0.139747 -1.33377e-20)
(0.199484 0.150707 -3.3302e-20)
(0.293745 0.140505 1.67668e-20)
(0.378108 0.125125 1.36458e-20)
(0.453185 0.110342 5.82465e-22)
(0.51991 0.0971891 -2.27948e-20)
(0.579328 0.0855621 -1.0148e-20)
(0.632251 0.0752082 7.99448e-21)
(0.679027 0.0659686 8.5781e-21)
(0.0214946 0.0494437 1.36794e-21)
(0.0897457 0.089392 -2.82287e-21)
(0.190778 0.0961035 6.3134e-21)
(0.285609 0.0894461 -4.27061e-21)
(0.370842 0.0795921 -3.79834e-21)
(0.446755 0.0701264 -2.57014e-21)
(0.514222 0.061674 4.7082e-21)
(0.574271 0.0541767 1.79397e-20)
(0.627711 0.047483 2.58735e-21)
(0.675112 0.0414866 -4.58376e-21)
(0.0190362 0.0217068 1.689e-21)
(0.0853743 0.0385109 -4.64577e-21)
(0.186055 0.0409917 -5.26683e-21)
(0.281163 0.0379441 -3.65225e-21)
(0.366836 0.0336754 3.4755e-21)
(0.443177 0.0295762 1.56725e-21)
(0.511027 0.0258653 -1.55965e-21)
(0.571405 0.0225314 -7.11189e-21)
(0.625114 0.0195249 2.34092e-21)
(0.672853 0.0168052 -2.18685e-21)
(0.0187019 -0.00613075 -1.69994e-21)
(0.0847692 -0.0125277 4.67515e-21)
(0.185341 -0.0142793 5.29662e-21)
(0.280428 -0.0137033 -5.06694e-21)
(0.366109 -0.0123716 4.45993e-21)
(0.442467 -0.0110915 2.23206e-21)
(0.51034 -0.0100496 -3.56149e-21)
(0.570742 -0.00921096 -4.1429e-21)
(0.624469 -0.00852319 6.1203e-22)
(0.672255 -0.00795323 -1.72231e-21)
(0.0204882 -0.0338242 1.86297e-21)
(0.0879254 -0.0633538 -5.56886e-21)
(0.188632 -0.0693596 1.25214e-20)
(0.283401 -0.0651971 -1.09869e-20)
(0.368658 -0.0582952 -5.11279e-22)
(0.444622 -0.0516585 -7.28336e-21)
(0.512159 -0.0458826 1.1838e-20)
(0.572283 -0.0408872 1.60949e-20)
(0.62578 -0.0365186 2.88461e-21)
(0.673326 -0.032671 -6.20397e-21)
(0.0243663 -0.0611302 -1.61567e-21)
(0.0948025 -0.113599 -1.18516e-20)
(0.19589 -0.123901 -2.75075e-20)
(0.290054 -0.11624 2.37812e-20)
(0.37446 -0.103843 4.91677e-21)
(0.449623 -0.0919081 4.33423e-21)
(0.516466 -0.0814467 -2.13733e-20)
(0.57601 -0.072335 -1.25691e-20)
(0.629031 -0.0643196 -2.77999e-21)
(0.676051 -0.0572337 1.91791e-20)
(0.0302826 -0.0878094 -5.70361e-21)
(0.105326 -0.1629 7.12013e-21)
(0.20705 -0.177558 5.00375e-20)
(0.300329 -0.166537 -4.47039e-21)
(0.383467 -0.148764 -1.28131e-20)
(0.45743 -0.131626 9.21578e-21)
(0.523228 -0.116557 5.77584e-22)
(0.581895 -0.103394 3.25421e-21)
(0.634196 -0.0917853 -7.09286e-21)
(0.680413 -0.0815216 -1.87651e-20)
(0.038159 -0.113628 -3.87083e-21)
(0.119386 -0.210899 2.09865e-20)
(0.222014 -0.229994 -5.04888e-20)
(0.314148 -0.215799 2.19204e-20)
(0.395614 -0.192815 1.97941e-22)
(0.467986 -0.170601 -2.77362e-20)
(0.532396 -0.151033 1.22164e-20)
(0.589894 -0.133907 -1.11301e-21)
(0.641237 -0.118778 4.64207e-21)
(0.686386 -0.105418 -1.44652e-21)
(0.0478935 -0.138363 -4.43644e-20)
(0.136841 -0.257251 -5.29147e-20)
(0.240653 -0.280879 1.38043e-20)
(0.331405 -0.263745 -2.5093e-20)
(0.410814 -0.235757 -7.1456e-21)
(0.481217 -0.20863 1.05578e-20)
(0.543906 -0.184697 3.9377e-21)
(0.599952 -0.163722 1.46523e-20)
(0.650106 -0.145163 -3.1597e-21)
(0.693936 -0.128809 1.68931e-20)
(0.0593613 -0.161798 4.24508e-20)
(0.157515 -0.301622 2.72215e-20)
(0.262809 -0.329893 -2.07079e-20)
(0.35197 -0.310102 3.48149e-20)
(0.428958 -0.277358 -3.03527e-21)
(0.497033 -0.245515 -3.75871e-20)
(0.55768 -0.217379 6.60664e-21)
(0.611999 -0.19269 -3.98565e-20)
(0.660741 -0.170812 1.50065e-21)
(0.703023 -0.151582 1.45001e-20)
(0.0724156 -0.183733 -3.1812e-20)
(0.1812 -0.343694 5.68552e-20)
(0.288296 -0.376732 2.22456e-20)
(0.375689 -0.354609 -2.73726e-20)
(0.449921 -0.317399 1.52973e-22)
(0.515325 -0.281067 6.94013e-20)
(0.573626 -0.248917 3.21964e-21)
(0.625954 -0.220673 3.08133e-20)
(0.673071 -0.1956 3.75171e-20)
(0.713596 -0.173625 -2.10304e-20)
(0.086889 -0.203982 1.78427e-20)
(0.207659 -0.383166 -8.51246e-21)
(0.316899 -0.421105 -2.02317e-20)
(0.402387 -0.397018 1.53803e-20)
(0.473556 -0.355669 5.8517e-20)
(0.53597 -0.315107 -2.04584e-20)
(0.591638 -0.279157 -3.29007e-21)
(0.641726 -0.247536 -4.46832e-20)