/*--------------------------------*- C++ -*----------------------------------*\
  =========                 |
  \\      /  F ield         | OpenFOAM: The Open Source CFD Toolbox
   \\    /   O peration     | Website:  https://openfoam.org
    \\  /    A nd           | Version:  7
     \\/     M anipulation  |
\*---------------------------------------------------------------------------*/
FoamFile
{
    version     2.0;
    format      ascii;
    class       volScalarField;
    location    "130";
    object      p;
}
// * * * * * * * * * * * * * * * * * * * * * * * * * * * * * * * * * * * * * //

dimensions      [0 2 -2 0 0 0 0];

internalField   nonuniform List<scalar> 
8500
(
-0.424503
-0.426394
-0.427111
-0.428306
-0.430546
-0.434061
-0.438957
-0.445354
-0.453212
-0.462741
-0.416911
-0.419368
-0.420179
-0.42124
-0.42306
-0.425795
-0.429472
-0.434118
-0.43951
-0.445784
-0.409444
-0.412415
-0.413303
-0.414215
-0.415599
-0.417526
-0.419943
-0.422769
-0.425579
-0.428389
-0.40225
-0.405675
-0.406627
-0.407387
-0.408333
-0.409453
-0.410602
-0.411594
-0.411791
-0.411042
-0.395467
-0.399286
-0.40029
-0.4009
-0.401422
-0.401755
-0.401661
-0.400851
-0.398485
-0.394175
-0.389223
-0.393371
-0.394418
-0.394886
-0.395005
-0.394587
-0.3933
-0.390758
-0.385945
-0.378145
-0.383632
-0.388044
-0.389123
-0.389459
-0.389202
-0.388083
-0.38567
-0.381491
-0.374401
-0.363214
-0.378793
-0.3834
-0.384501
-0.384714
-0.384113
-0.382348
-0.37889
-0.373186
-0.364026
-0.349548
-0.374785
-0.379517
-0.380627
-0.380727
-0.379816
-0.37747
-0.373059
-0.36595
-0.354953
-0.337235
-0.371672
-0.376451
-0.377556
-0.377553
-0.37637
-0.373515
-0.368254
-0.359864
-0.347293
-0.326298
-0.36949
-0.374238
-0.375321
-0.375225
-0.373811
-0.370527
-0.364531
-0.354989
-0.341138
-0.316686
-0.368257
-0.372886
-0.373929
-0.373749
-0.372149
-0.368523
-0.361922
-0.351359
-0.336553
-0.308207
-0.367961
-0.372381
-0.37336
-0.373105
-0.371361
-0.367481
-0.360418
-0.348979
-0.333612
-0.300667
-0.368566
-0.372682
-0.373569
-0.373238
-0.371385
-0.36733
-0.359941
-0.347785
-0.332313
-0.294635
-0.370012
-0.373727
-0.374483
-0.374064
-0.372119
-0.367941
-0.360334
-0.347614
-0.331841
-0.290791
-0.372216
-0.375435
-0.376012
-0.375473
-0.373427
-0.369139
-0.361373
-0.348451
-0.331739
-0.288816
-0.375084
-0.377716
-0.37805
-0.377339
-0.37515
-0.370729
-0.362765
-0.349856
-0.331886
-0.28823
-0.378517
-0.380476
-0.380495
-0.379534
-0.377128
-0.372528
-0.364281
-0.35138
-0.331787
-0.28842
-0.382419
-0.383632
-0.383251
-0.381948
-0.379255
-0.374343
-0.365741
-0.352828
-0.331096
-0.289378
-0.386714
-0.387115
-0.386245
-0.384502
-0.381402
-0.376093
-0.367041
-0.354002
-0.33018
-0.294596
-0.391347
-0.390881
-0.389437
-0.387144
-0.38353
-0.377724
-0.368136
-0.354661
-0.329838
-0.308177
-0.396295
-0.394914
-0.392813
-0.389872
-0.385642
-0.379234
-0.369027
-0.354836
-0.330403
-0.310035
-0.401562
-0.399227
-0.396397
-0.392725
-0.387786
-0.380664
-0.369731
-0.354653
-0.330635
-0.309318
-0.407183
-0.403856
-0.40024
-0.395768
-0.390036
-0.38208
-0.370284
-0.354201
-0.33026
-0.30774
-0.413215
-0.408854
-0.404412
-0.399086
-0.392476
-0.383555
-0.37073
-0.353491
-0.329305
-0.305437
-0.419723
-0.414285
-0.40899
-0.402767
-0.395184
-0.385145
-0.371098
-0.352526
-0.327765
-0.302734
-0.426776
-0.420215
-0.41405
-0.406884
-0.398213
-0.386881
-0.371386
-0.351288
-0.325706
-0.29966
-0.434431
-0.426699
-0.419653
-0.411488
-0.40159
-0.388757
-0.371557
-0.349754
-0.323179
-0.296257
-0.442724
-0.433775
-0.425836
-0.416594
-0.405304
-0.39072
-0.371548
-0.347893
-0.320227
-0.292519
-0.451664
-0.441457
-0.432606
-0.422183
-0.4093
-0.392677
-0.371281
-0.345672
-0.316871
-0.288437
-0.461229
-0.449734
-0.439936
-0.4282
-0.413478
-0.394502
-0.370669
-0.343055
-0.313115
-0.283986
-0.471357
-0.458558
-0.447761
-0.434544
-0.417691
-0.396048
-0.369623
-0.34
-0.308944
-0.279138
-0.48195
-0.467845
-0.455975
-0.441076
-0.421755
-0.397162
-0.368053
-0.336456
-0.304326
-0.273855
-0.49287
-0.477474
-0.464434
-0.447605
-0.425458
-0.397689
-0.365866
-0.332366
-0.299217
-0.268095
-0.503936
-0.48728
-0.472951
-0.453901
-0.428577
-0.397478
-0.362971
-0.327668
-0.293566
-0.261813
-0.514929
-0.497058
-0.481295
-0.459697
-0.430888
-0.396381
-0.359275
-0.32229
-0.287313
-0.25496
-0.525594
-0.506564
-0.489197
-0.464704
-0.432169
-0.394259
-0.354685
-0.316162
-0.280395
-0.247488
-0.535638
-0.515517
-0.49635
-0.468628
-0.43221
-0.390979
-0.349107
-0.309206
-0.272748
-0.239353
-0.544742
-0.523608
-0.502424
-0.471175
-0.430817
-0.386417
-0.342452
-0.301349
-0.26431
-0.230511
-0.552568
-0.530502
-0.507075
-0.472069
-0.42781
-0.380456
-0.334633
-0.292518
-0.25502
-0.220926
-0.558764
-0.535854
-0.509959
-0.471052
-0.423027
-0.37299
-0.32557
-0.282645
-0.244828
-0.21057
-0.562975
-0.539309
-0.510748
-0.467895
-0.416329
-0.363925
-0.315186
-0.271669
-0.233692
-0.199427
-0.564856
-0.540523
-0.50914
-0.462398
-0.407597
-0.353178
-0.303414
-0.259533
-0.22158
-0.187488
-0.564081
-0.539165
-0.504867
-0.454396
-0.396733
-0.340682
-0.290198
-0.246185
-0.208447
-0.174696
-0.56035
-0.534936
-0.497706
-0.443763
-0.383666
-0.326386
-0.275497
-0.231589
-0.194225
-0.160881
-0.5534
-0.527574
-0.487482
-0.430407
-0.368349
-0.310261
-0.25929
-0.215731
-0.17887
-0.1458
-0.543011
-0.516866
-0.474063
-0.414275
-0.35076
-0.29229
-0.241563
-0.198615
-0.162437
-0.129492
-0.529014
-0.502657
-0.457366
-0.395348
-0.3309
-0.272471
-0.222312
-0.180252
-0.144987
-0.112765
-0.511291
-0.484843
-0.437356
-0.373643
-0.308795
-0.250823
-0.201574
-0.160725
-0.126398
-0.0954808
-0.489784
-0.46338
-0.414046
-0.349215
-0.284498
-0.227402
-0.179466
-0.139997
-0.10681
-0.0774658
-0.464486
-0.438281
-0.387502
-0.322155
-0.258085
-0.202316
-0.155979
-0.118119
-0.086316
-0.0587035
-0.435448
-0.409621
-0.357868
-0.292568
-0.229643
-0.175622
-0.131184
-0.0951704
-0.0649805
-0.0392564
-0.402775
-0.377541
-0.32535
-0.260516
-0.199285
-0.14741
-0.105175
-0.0712399
-0.0428754
-0.0192244
-0.366632
-0.342254
-0.290052
-0.226103
-0.167179
-0.11781
-0.0780621
-0.0464224
-0.0200848
0.00128081
-0.327253
-0.304058
-0.251661
-0.189825
-0.1335
-0.0869669
-0.04997
-0.0208206
0.00330598
0.0221722
-0.284853
-0.263196
-0.210622
-0.15174
-0.0984465
-0.0550447
-0.0210352
0.00545866
0.0272101
0.0433593
-0.23962
-0.219228
-0.168167
-0.112099
-0.0622084
-0.0222142
0.00860593
0.0323143
0.0514851
0.0645065
-0.191926
-0.17309
-0.124165
-0.0711801
-0.0249922
0.0113544
0.0388361
0.0596603
0.0758494
0.0847975
-0.142329
-0.125014
-0.0787566
-0.0292508
0.0129747
0.0454865
0.0695464
0.0873921
0.0999649
0.103654
-0.091043
-0.0754881
-0.0322348
0.0134178
0.0514541
0.0799942
0.100577
0.115274
0.123732
0.122799
-0.0384858
-0.0249272
0.0150499
0.0565401
0.0902014
0.114668
0.131675
0.142908
0.147139
0.1471
0.0149008
0.0262706
0.0627307
0.0998191
0.128967
0.149281
0.162576
0.170164
0.171074
0.171442
0.0686733
0.0777001
0.110438
0.142951
0.167495
0.183604
0.193107
0.197109
0.19519
0.194449
0.122385
0.12895
0.157805
0.185628
0.205525
0.217407
0.223094
0.223619
0.219052
0.216456
0.175588
0.179607
0.204467
0.227546
0.242798
0.25047
0.252369
0.249515
0.242319
0.237459
0.227837
0.22926
0.250066
0.268403
0.279057
0.282576
0.280753
0.274619
0.264803
0.257492
0.278696
0.277507
0.294252
0.307902
0.314052
0.313514
0.308068
0.298755
0.286352
0.276517
0.327739
0.323955
0.336688
0.34576
0.34754
0.343079
0.334135
0.321764
0.306839
0.294473
0.374554
0.368228
0.377047
0.3817
0.379289
0.371071
0.358785
0.343498
0.326146
0.311291
0.418748
0.409966
0.415021
0.415461
0.409076
0.397302
0.381856
0.363818
0.344161
0.326894
0.45995
0.44883
0.450318
0.446797
0.436692
0.421594
0.403196
0.382593
0.360777
0.34121
0.497813
0.484502
0.482667
0.475477
0.46194
0.44378
0.422664
0.399704
0.375892
0.354168
0.532016
0.516693
0.511818
0.501291
0.484643
0.463706
0.440129
0.415037
0.389414
0.365703
0.56227
0.545138
0.537545
0.524047
0.504634
0.481233
0.455473
0.428493
0.401258
0.375756
0.588315
0.569602
0.559646
0.543573
0.52177
0.496238
0.46859
0.439979
0.411348
0.384277
0.609925
0.58988
0.577945
0.559722
0.535924
0.508613
0.479388
0.449418
0.419617
0.39122
0.626911
0.605801
0.592295
0.572368
0.546989
0.518266
0.487791
0.456742
0.42601
0.396548
0.639116
0.617224
0.602576
0.581409
0.554878
0.525125
0.493736
0.461898
0.430483
0.400238
0.646426
0.624043
0.608698
0.586768
0.559526
0.529134
0.497175
0.464845
0.433005
0.40228
0.64876
0.626188
0.610599
0.588395
0.560889
0.530255
0.498077
0.465555
0.433552
0.402636
0.646079
0.623622
0.608248
0.586262
0.558944
0.528469
0.496425
0.464015
0.432102
0.401303
0.638381
0.616343
0.601645
0.580369
0.553692
0.523776
0.492221
0.460225
0.428661
0.398267
0.625706
0.604386
0.590818
0.570741
0.545153
0.516195
0.48548
0.4542
0.423247
0.39356
0.608129
0.58782
0.575826
0.557429
0.533372
0.505763
0.476233
0.445968
0.415882
0.387195
0.585766
0.566749
0.55676
0.540507
0.518412
0.492536
0.464529
0.43557
0.4066
0.37919
0.558769
0.54131
0.533736
0.520076
0.50036
0.476586
0.450431
0.42306
0.395445
0.369572
0.527328
0.511674
0.506901
0.496262
0.479321
0.458005
0.434015
0.408507
0.382475
0.358378
0.491667
0.478044
0.47643
0.46921
0.455424
0.436901
0.415375
0.391989
0.367758
0.345653
0.452045
0.440655
0.442523
0.439092
0.428811
0.413397
0.394616
0.373599
0.351369
0.33145
0.408752
0.399769
0.405406
0.406098
0.399648
0.387634
0.371856
0.353438
0.333395
0.315827
0.36211
0.355677
0.365328
0.370442
0.368114
0.359764
0.347228
0.33162
0.313929
0.298851
0.312465
0.308696
0.32256
0.332351
0.334406
0.329956
0.320873
0.308264
0.293072
0.280592
0.260191
0.259167
0.277395
0.292075
0.298733
0.298389
0.292946
0.283503
0.270932
0.261123
0.205686
0.20745
0.230145
0.249875
0.261319
0.265253
0.263608
0.257477
0.24762
0.240517
0.149363
0.153928
0.181135
0.206028
0.222399
0.230747
0.233033
0.230336
0.223254
0.218838
0.0916539
0.0989937
0.130708
0.160822
0.182218
0.195081
0.201399
0.202243
0.197958
0.196134
0.0330036
0.0430572
0.079217
0.114557
0.141029
0.158466
0.168888
0.173381
0.171894
0.172425
-0.0261354
-0.0134653
0.027025
0.0675375
0.099092
0.121122
0.135679
0.143936
0.145263
0.147649
-0.0853048
-0.0701522
-0.0254976
0.0200747
0.0566714
0.083273
0.101939
0.114091
0.118453
0.121833
-0.144045
-0.126582
-0.0779754
-0.0275188
0.0140337
0.0451567
0.0678432
0.0839676
0.0919688
0.0946586
-0.201899
-0.182338
-0.13003
-0.0749322
-0.0285593
0.00700975
0.0335657
0.0534571
0.0661391
0.0676859
-0.258409
-0.237007
-0.181285
-0.12186
-0.070852
-0.0309334
-0.000609509
0.0226777
0.0399043
0.0466699
-0.313141
-0.290159
-0.231381
-0.168008
-0.112592
-0.0684567
-0.0344081
-0.00791092
0.0132855
0.0260443
-0.365813
-0.3413
-0.280016
-0.21309
-0.153533
-0.105368
-0.0676612
-0.038035
-0.0135755
0.00375574
-0.41592
-0.390114
-0.327041
-0.256819
-0.193439
-0.14149
-0.100266
-0.0675966
-0.0403148
-0.0195236
-0.463036
-0.435735
-0.372576
-0.298885
-0.232101
-0.176649
-0.13211
-0.096525
-0.0666429
-0.0428546
-0.506918
-0.478368
-0.415602
-0.339005
-0.26934
-0.210668
-0.163056
-0.124724
-0.0924155
-0.0658699
-0.547332
-0.517887
-0.455023
-0.377453
-0.304957
-0.24337
-0.192962
-0.152086
-0.117545
-0.0884826
-0.584028
-0.554023
-0.491487
-0.413394
-0.338666
-0.274603
-0.221698
-0.178504
-0.141945
-0.110604
-0.616804
-0.586511
-0.524941
-0.446568
-0.370361
-0.304229
-0.249144
-0.203877
-0.165528
-0.132114
-0.645519
-0.615146
-0.555107
-0.477027
-0.399901
-0.332124
-0.275195
-0.228113
-0.188225
-0.152904
-0.670086
-0.639806
-0.581787
-0.504686
-0.427176
-0.35825
-0.299764
-0.251122
-0.20998
-0.172896
-0.690474
-0.660435
-0.604873
-0.529425
-0.452101
-0.382496
-0.322866
-0.272822
-0.230725
-0.192071
-0.706708
-0.677041
-0.624317
-0.551157
-0.474612
-0.404783
-0.344411
-0.293303
-0.250267
-0.210541
-0.718872
-0.689687
-0.640115
-0.569838
-0.494665
-0.425072
-0.364322
-0.312443
-0.268446
-0.228614
-0.72711
-0.698496
-0.652314
-0.58546
-0.512243
-0.443356
-0.382584
-0.33025
-0.28563
-0.245797
-0.731617
-0.703651
-0.661012
-0.598049
-0.527352
-0.459645
-0.399218
-0.346743
-0.301747
-0.26161
-0.732644
-0.705388
-0.666356
-0.607666
-0.54002
-0.473964
-0.414245
-0.361907
-0.316714
-0.276199
-0.730484
-0.703999
-0.668537
-0.614407
-0.5503
-0.486353
-0.427694
-0.375754
-0.33056
-0.289836
-0.725469
-0.699817
-0.667796
-0.618408
-0.558268
-0.496865
-0.439614
-0.388335
-0.343359
-0.302662
-0.71796
-0.693205
-0.664421
-0.619839
-0.564022
-0.505572
-0.45007
-0.399717
-0.355171
-0.314722
-0.708334
-0.684545
-0.658736
-0.618906
-0.567682
-0.512558
-0.459136
-0.409969
-0.366048
-0.326039
-0.696978
-0.674224
-0.651098
-0.615849
-0.569387
-0.517917
-0.466891
-0.419163
-0.376044
-0.336647
-0.684278
-0.662625
-0.641882
-0.610934
-0.569296
-0.521749
-0.473415
-0.427373
-0.385225
-0.34659
-0.670604
-0.650115
-0.631467
-0.604451
-0.567582
-0.524163
-0.478791
-0.434677
-0.393665
-0.355926
-0.656304
-0.637038
-0.62022
-0.596707
-0.564434
-0.525271
-0.483102
-0.441152
-0.401442
-0.364723
-0.641698
-0.623705
-0.608485
-0.588019
-0.560056
-0.525187
-0.486428
-0.446874
-0.408634
-0.373055
-0.627064
-0.610388
-0.596565
-0.578698
-0.554663
-0.524031
-0.488843
-0.451913
-0.415318
-0.381
-0.612644
-0.59732
-0.584722
-0.569043
-0.548478
-0.521926
-0.490417
-0.456329
-0.421568
-0.388638
-0.598635
-0.584684
-0.573166
-0.559315
-0.541728
-0.518998
-0.491213
-0.460173
-0.427448
-0.396054
-0.585192
-0.572623
-0.562065
-0.549734
-0.534636
-0.51538
-0.491287
-0.463486
-0.433016
-0.403331
-0.572435
-0.561238
-0.551539
-0.540466
-0.527408
-0.511212
-0.490697
-0.466294
-0.438316
-0.410553
-0.560452
-0.550593
-0.541672
-0.531628
-0.520224
-0.506643
-0.489505
-0.468616
-0.443377
-0.41781
-0.549308
-0.540728
-0.532512
-0.523303
-0.513226
-0.501825
-0.487783
-0.470466
-0.448215
-0.425182
-0.539055
-0.531665
-0.524086
-0.515545
-0.506518
-0.496908
-0.485623
-0.47186
-0.452821
-0.43278
-0.529736
-0.523421
-0.516408
-0.508398
-0.500186
-0.492035
-0.483143
-0.472823
-0.457192
-0.440662
-0.52139
-0.516007
-0.509489
-0.501901
-0.494309
-0.487336
-0.480487
-0.473411
-0.461278
-0.449031
-0.514051
-0.509437
-0.503342
-0.496098
-0.488976
-0.482947
-0.477817
-0.473696
-0.46512
-0.45774
-0.50774
-0.503717
-0.497984
-0.491034
-0.484288
-0.479011
-0.475308
-0.473798
-0.468677
-0.467062
-0.502452
-0.498841
-0.493422
-0.486749
-0.480342
-0.47568
-0.473151
-0.473874
-0.471933
-0.475753
-0.498145
-0.494786
-0.489644
-0.483266
-0.477213
-0.473095
-0.471584
-0.473938
-0.476051
-0.476813
-0.494745
-0.491492
-0.48661
-0.480571
-0.474935
-0.471362
-0.470818
-0.474148
-0.48088
-0.48007
-0.492144
-0.488868
-0.484247
-0.478611
-0.473489
-0.470528
-0.470965
-0.474874
-0.4858
-0.48492
-0.490195
-0.486797
-0.482449
-0.47729
-0.472796
-0.470562
-0.472013
-0.476439
-0.490581
-0.48994
-0.488725
-0.485148
-0.481089
-0.476479
-0.472725
-0.471347
-0.473836
-0.478951
-0.495182
-0.495265
-0.487548
-0.483776
-0.480029
-0.476028
-0.473108
-0.472698
-0.476234
-0.482294
-0.499609
-0.501386
-0.486479
-0.482537
-0.479124
-0.475775
-0.473753
-0.474386
-0.478964
-0.486193
-0.503875
-0.508179
-0.485344
-0.48129
-0.478234
-0.475561
-0.474462
-0.476158
-0.481753
-0.490228
-0.50795
-0.515298
-0.483981
-0.479902
-0.477221
-0.475225
-0.475034
-0.477762
-0.484318
-0.494016
-0.511691
-0.522094
-0.482249
-0.478251
-0.475958
-0.474617
-0.475282
-0.478958
-0.486386
-0.497185
-0.514834
-0.528006
-0.480032
-0.476225
-0.474326
-0.473599
-0.475034
-0.479534
-0.487704
-0.499414
-0.51707
-0.532589
-0.477234
-0.473732
-0.472223
-0.472049
-0.474141
-0.479312
-0.488062
-0.500451
-0.518104
-0.535486
-0.473788
-0.470697
-0.469564
-0.469867
-0.472488
-0.478155
-0.487298
-0.500107
-0.517681
-0.536391
-0.469657
-0.467068
-0.466288
-0.466983
-0.469991
-0.47597
-0.485301
-0.498256
-0.515607
-0.535093
-0.464831
-0.462818
-0.462361
-0.463358
-0.466612
-0.472713
-0.482015
-0.494834
-0.511757
-0.531452
-0.459334
-0.45795
-0.457781
-0.458991
-0.462349
-0.46839
-0.47744
-0.48984
-0.506081
-0.525376
-0.453217
-0.452499
-0.452576
-0.453913
-0.457245
-0.463052
-0.471633
-0.483332
-0.498598
-0.516861
-0.446562
-0.446527
-0.4468
-0.448193
-0.451382
-0.456797
-0.464703
-0.47542
-0.489275
-0.50618
-0.439471
-0.440104
-0.440558
-0.441933
-0.444878
-0.449762
-0.456809
-0.46629
-0.47843
-0.493382
-0.432072
-0.433351
-0.433952
-0.435256
-0.437877
-0.442119
-0.448151
-0.456177
-0.466306
-0.478764
-0.482555
-0.50563
-0.516788
-0.491744
-0.42772
-0.352478
-0.303004
-0.29968
-0.317134
-0.313434
-0.263162
-0.192198
-0.144676
-0.116876
-0.108203
-0.126644
-0.136576
-0.126862
-0.109054
-0.0865412
-0.0791243
-0.0645367
-0.0512289
-0.0695832
-0.0804138
-0.0641216
-0.0456595
-0.0470939
-0.0281777
-0.0156336
-0.4607
-0.478056
-0.485605
-0.461703
-0.404748
-0.339956
-0.302705
-0.311617
-0.337559
-0.332004
-0.276548
-0.199966
-0.147253
-0.115611
-0.104447
-0.119637
-0.126991
-0.119323
-0.105018
-0.0854989
-0.0790232
-0.0654446
-0.0527533
-0.0708513
-0.0815641
-0.0645409
-0.0456773
-0.0470152
-0.0284197
-0.0156304
-0.438438
-0.449489
-0.452833
-0.429786
-0.379714
-0.325269
-0.300576
-0.322059
-0.356202
-0.348845
-0.288511
-0.206891
-0.149475
-0.114241
-0.100754
-0.112689
-0.117553
-0.111723
-0.100832
-0.0843775
-0.0788748
-0.0664481
-0.0543759
-0.0721091
-0.0826651
-0.0649249
-0.0456586
-0.046963
-0.028728
-0.0156287
-0.416448
-0.420686
-0.41928
-0.396567
-0.353022
-0.308749
-0.296622
-0.330722
-0.372572
-0.363764
-0.299015
-0.212979
-0.151379
-0.112814
-0.0971755
-0.105894
-0.108384
-0.104133
-0.0965171
-0.0831769
-0.0786825
-0.0675451
-0.0560892
-0.0733491
-0.0837077
-0.0652714
-0.0456033
-0.046939
-0.0291003
-0.015629
-0.395297
-0.392367
-0.385832
-0.36285
-0.325161
-0.290785
-0.2909
-0.337317
-0.386302
-0.376596
-0.308042
-0.218247
-0.152998
-0.111372
-0.0937522
-0.0993421
-0.0995899
-0.0966268
-0.092101
-0.0818978
-0.0784492
-0.0687319
-0.0578839
-0.0745644
-0.0846834
-0.0655784
-0.0455113
-0.0469443
-0.0295341
-0.0156317
-0.375484
-0.365256
-0.353377
-0.329543
-0.296845
-0.271754
-0.283548
-0.341595
-0.397148
-0.387217
-0.315594
-0.222721
-0.154365
-0.109955
-0.090515
-0.0931124
-0.0912636
-0.0892792
-0.0876153
-0.0805418
-0.0781771
-0.0700035
-0.0597483
-0.0757487
-0.0855846
-0.0658438
-0.0453824
-0.0469797
-0.0300263
-0.0156371
-0.357409
-0.339973
-0.322731
-0.29754
-0.268874
-0.252133
-0.274741
-0.343382
-0.404973
-0.395545
-0.321689
-0.226435
-0.15551
-0.108598
-0.0874866
-0.0872704
-0.0834801
-0.0822002
-0.0830968
-0.0791115
-0.0778679
-0.0713544
-0.0616697
-0.076896
-0.0864038
-0.0660656
-0.0452162
-0.0470449
-0.0305732
-0.0156454
-0.341341
-0.316989
-0.294559
-0.267623
-0.242024
-0.232548
-0.264711
-0.342609
-0.409734
-0.401549
-0.326361
-0.229429
-0.156462
-0.10733
-0.084682
-0.0818672
-0.0762952
-0.0753973
-0.0785879
-0.0776106
-0.0775222
-0.072778
-0.0636337
-0.0780004
-0.0871346
-0.0662417
-0.0450127
-0.0471392
-0.0311705
-0.0156565
-0.327441
-0.296616
-0.269336
-0.240385
-0.217208
-0.213439
-0.253724
-0.339325
-0.41148
-0.405249
-0.329657
-0.231745
-0.157246
-0.106177
-0.0821105
-0.0769365
-0.0697457
-0.0689949
-0.0741392
-0.0760441
-0.0771392
-0.0742671
-0.0656252
-0.079056
-0.0877712
-0.06637
-0.0447713
-0.0472611
-0.0318135
-0.0156706
-0.315782
-0.27903
-0.247336
-0.216146
-0.194799
-0.195493
-0.242056
-0.333696
-0.41035
-0.406713
-0.331635
-0.233429
-0.157883
-0.105156
-0.0797757
-0.0724949
-0.0638509
-0.0630711
-0.0698046
-0.074418
-0.0767172
-0.0758141
-0.0676283
-0.0800576
-0.0883087
-0.066448
-0.0444921
-0.0474084
-0.0324962
-0.0156873
-0.306373
-0.264314
-0.228537
-0.195192
-0.175299
-0.179056
-0.22999
-0.325986
-0.406571
-0.406054
-0.332359
-0.234528
-0.158391
-0.104285
-0.0776775
-0.0685428
-0.0586145
-0.0576851
-0.0656373
-0.0727393
-0.0762527
-0.0774109
-0.0696268
-0.0810002
-0.088743
-0.0664734
-0.0441748
-0.0475784
-0.0332121
-0.0157062
-0.299218
-0.252376
-0.212423
-0.177845
-0.158664
-0.164335
-0.217805
-0.316524
-0.400437
-0.403426
-0.331901
-0.235088
-0.15879
-0.103577
-0.0758142
-0.0650672
-0.054025
-0.0528732
-0.0616903
-0.0710161
-0.0757411
-0.0790491
-0.0716046
-0.0818788
-0.0890708
-0.0664437
-0.0438193
-0.0477679
-0.0339535
-0.0157267
-0.294331
-0.242868
-0.200686
-0.163648
-0.145067
-0.151462
-0.205764
-0.305679
-0.392288
-0.399022
-0.33034
-0.235166
-0.159103
-0.103048
-0.0741836
-0.0620437
-0.0500559
-0.0486581
-0.0580137
-0.0692575
-0.0751762
-0.0807202
-0.0735457
-0.0826885
-0.0892896
-0.0663561
-0.0434255
-0.0479726
-0.034712
-0.015748
-0.290918
-0.236248
-0.195526
-0.152608
-0.134226
-0.140487
-0.194108
-0.293831
-0.382511
-0.393036
-0.327759
-0.23481
-0.15934
-0.102694
-0.0727733
-0.0594324
-0.046663
-0.045045
-0.0546516
-0.0674733
-0.0745505
-0.0824152
-0.0754343
-0.0834242
-0.0893983
-0.0662071
-0.0429936
-0.0481865
-0.0354783
-0.0157689
-0.288864
-0.231904
-0.18647
-0.144212
-0.125866
-0.131393
-0.18304
-0.281346
-0.371522
-0.385661
-0.32423
-0.234021
-0.159449
-0.10246
-0.0715475
-0.0571755
-0.0437825
-0.0420144
-0.051638
-0.0656733
-0.073855
-0.0841252
-0.0772559
-0.0840812
-0.0893985
-0.065993
-0.0425238
-0.0484016
-0.0362423
-0.0157881
-0.288125
-0.229892
-0.180358
-0.13832
-0.119748
-0.124109
-0.172722
-0.268548
-0.359686
-0.377103
-0.319817
-0.232772
-0.159377
-0.102301
-0.0704787
-0.0552301
-0.0413514
-0.0395246
-0.0489885
-0.0638658
-0.0730792
-0.0858406
-0.0789983
-0.0846571
-0.0892916
-0.0657123
-0.0420169
-0.0486147
-0.036993
-0.0158041
-0.288364
-0.230072
-0.177928
-0.13481
-0.115655
-0.118529
-0.163285
-0.255718
-0.347385
-0.367587
-0.314705
-0.23127
-0.159353
-0.102409
-0.0696676
-0.0536463
-0.0393553
-0.0375618
-0.0467048
-0.0620552
-0.0722109
-0.0875504
-0.0806473
-0.0851462
-0.0890658
-0.0653693
-0.041473
-0.0488385
-0.0377222
-0.0158151
-0.289024
-0.231817
-0.17769
-0.13348
-0.113441
-0.114503
-0.154769
-0.243024
-0.335356
-0.357067
-0.309226
-0.230133
-0.159986
-0.103236
-0.0693481
-0.0525303
-0.0378007
-0.0361851
-0.0448573
-0.0602504
-0.0712361
-0.0892419
-0.0821542
-0.0855107
-0.0886878
-0.0649685
-0.0408911
-0.0490891
-0.0384273
-0.0158199
-0.290013
-0.235023
-0.179684
-0.134314
-0.113194
-0.112029
-0.14704
-0.23002
-0.323114
-0.344919
-0.303025
-0.22904
-0.160841
-0.10435
-0.069261
-0.0516058
-0.0364434
-0.0352623
-0.0435835
-0.0585082
-0.0701377
-0.0909129
-0.0834532
-0.0857125
-0.0881852
-0.0644894
-0.0402714
-0.0493102
-0.039089
-0.0158188
-0.291042
-0.238666
-0.183909
-0.138854
-0.11458
-0.111723
-0.14158
-0.218124
-0.296452
-0.332106
-0.294085
-0.2243
-0.158281
-0.102874
-0.0677996
-0.0497913
-0.0345758
-0.0339248
-0.042105
-0.0566211
-0.0689133
-0.0925149
-0.0849508
-0.0860389
-0.0878472
-0.0638603
-0.0396152
-0.0492926
-0.0395988
-0.0157977
-0.276506
-0.233451
-0.18051
-0.136395
-0.114525
-0.111826
-0.139422
-0.21383
-0.296182
-0.321716
-0.282019
-0.214118
-0.150824
-0.0975672
-0.064064
-0.046548
-0.0317112
-0.0306678
-0.0365515
-0.0518831
-0.0662555
-0.0951807
-0.0890251
-0.0873346
-0.0880374
-0.0629795
-0.0387819
-0.0488085
-0.0399991
-0.015699
-0.263927
-0.225506
-0.176893
-0.136979
-0.118022
-0.116262
-0.141476
-0.208024
-0.279797
-0.300407
-0.262527
-0.199885
-0.141527
-0.092121
-0.0605806
-0.043348
-0.0293507
-0.0288981
-0.0361398
-0.0496266
-0.064679
-0.0967696
-0.0926424
-0.0869189
-0.0868176
-0.0614058
-0.0375564
-0.0481651
-0.0413153
-0.0156815
-0.251996
-0.217701
-0.174025
-0.138582
-0.122311
-0.121778
-0.144554
-0.201551
-0.262053
-0.277587
-0.242725
-0.185988
-0.132609
-0.0867384
-0.0570496
-0.0402932
-0.0270504
-0.0273263
-0.0355683
-0.0485078
-0.0639266
-0.0975623
-0.0956309
-0.0860114
-0.0850621
-0.0595792
-0.0361757
-0.0474347
-0.0427671
-0.0156298
-0.240434
-0.210076
-0.171347
-0.140385
-0.126344
-0.126535
-0.146239
-0.193483
-0.242969
-0.254161
-0.222707
-0.172018
-0.123607
-0.0812496
-0.0534778
-0.037314
-0.0247293
-0.0257771
-0.0346165
-0.0470982
-0.0630395
-0.0980619
-0.0984962
-0.0849052
-0.0827875
-0.0574129
-0.0346031
-0.0466065
-0.0441357
-0.0155055
-0.228193
-0.202047
-0.168251
-0.141554
-0.129349
-0.129767
-0.146004
-0.183734
-0.223016
-0.230735
-0.20299
-0.158299
-0.114718
-0.0757131
-0.0498556
-0.0343595
-0.0223196
-0.0241522
-0.0334632
-0.0451849
-0.0617226
-0.0983169
-0.101083
-0.0833987
-0.0798989
-0.0548685
-0.0328174
-0.0456416
-0.0454005
-0.0153134
-0.214982
-0.193418
-0.164396
-0.141566
-0.13087
-0.131152
-0.143916
-0.172907
-0.203149
-0.20818
-0.184106
-0.145034
-0.105998
-0.0701623
-0.0461747
-0.0313843
-0.0197607
-0.0223352
-0.0320747
-0.0428374
-0.0599595
-0.0980283
-0.10308
-0.0814163
-0.0763427
-0.0519024
-0.0307908
-0.0444983
-0.0465348
-0.0150459
-0.201221
-0.184187
-0.159656
-0.140237
-0.130804
-0.130732
-0.140287
-0.161758
-0.184258
-0.187144
-0.166391
-0.132367
-0.0975195
-0.0646415
-0.0424301
-0.0283406
-0.0169882
-0.0201958
-0.0303216
-0.040013
-0.0576277
-0.0968331
-0.104218
-0.0788894
-0.0720779
-0.0484718
-0.0284938
-0.0431237
-0.0474725
-0.0146781
-0.187287
-0.174423
-0.154044
-0.137614
-0.129266
-0.128747
-0.135496
-0.150784
-0.166886
-0.167952
-0.150014
-0.120388
-0.0893261
-0.0591839
-0.0386182
-0.0251797
-0.0139362
-0.0175759
-0.0280097
-0.0365185
-0.0544283
-0.0944526
-0.10421
-0.0757403
-0.0670808
-0.0445374
-0.025895
-0.0414487
-0.0481193
-0.0141785
-0.173426
-0.164245
-0.147642
-0.133837
-0.126449
-0.125488
-0.129905
-0.140277
-0.151203
-0.150672
-0.135014
-0.109141
-0.0814487
-0.0538179
-0.034741
-0.0218558
-0.0105413
-0.0142824
-0.0248493
-0.0320438
-0.0499818
-0.0906536
-0.102743
-0.0718909
-0.0613523
-0.0400676
-0.0229617
-0.0393859
-0.0483606
-0.0135143
-0.159855
-0.153796
-0.14056
-0.129074
-0.122557
-0.121216
-0.12378
-0.130335
-0.13714
-0.135211
-0.121346
-0.0986373
-0.0739084
-0.0485673
-0.0308062
-0.0183326
-0.00675041
-0.0100962
-0.020417
-0.0261876
-0.0439015
-0.0852145
-0.0994894
-0.067273
-0.054925
-0.0350437
-0.019662
-0.0368288
-0.0480633
-0.0126514
-0.146713
-0.14321
-0.13292
-0.12349
-0.117783
-0.116146
-0.117281
-0.120937
-0.12452
-0.121402
-0.108926
-0.0888652
-0.0667197
-0.0434535
-0.0268281
-0.0145904
-0.00253554
-0.00479862
-0.0142332
-0.0184852
-0.0358312
-0.0779703
-0.0942154
-0.0618389
-0.0478677
-0.0294668
-0.0159657
-0.0336535
-0.0470751
-0.011556
-0.134072
-0.132611
-0.124853
-0.11724
-0.112299
-0.110458
-0.110522
-0.112021
-0.113143
-0.109054
-0.0976519
-0.0798022
-0.059893
-0.0384973
-0.0228279
-0.0106339
0.00208727
0.00176648
-0.00580812
-0.00847728
-0.025538
-0.0688807
-0.0868002
-0.0555735
-0.0402879
-0.0233653
-0.0118491
-0.0297243
-0.0452281
-0.0101979
-0.12198
-0.122114
-0.116492
-0.110475
-0.106261
-0.104308
-0.103592
-0.103526
-0.102819
-0.0979829
-0.0874205
-0.0714184
-0.0534359
-0.0337193
-0.0188329
-0.00650053
0.00704101
0.00958787
0.00530631
0.00413046
-0.0130843
-0.0580947
-0.0772687
-0.0485054
-0.0323291
-0.0168029
-0.00729978
-0.0249035
-0.0423466
-0.00855639
-0.110477
-0.111819
-0.107971
-0.103341
-0.0998131
-0.0978424
-0.0965775
-0.0954114
-0.0933901
-0.0880211
-0.0781332
-0.0636809
-0.0473538
-0.0291384
-0.0148777
-0.00227134
0.0121745
0.0183436
0.0190029
0.0191428
0.000945111
-0.0459645
-0.0658198
-0.040716
-0.0241609
-0.00988314
-0.0023245
-0.0190696
-0.0382616
-0.00662717
-0.0995885
-0.101816
-0.0994163
-0.0959752
-0.0930888
-0.091178
-0.0895569
-0.0876503
-0.0847271
-0.0790228
-0.0696995
-0.0565552
-0.0416508
-0.0247728
-0.0110073
0.00192497
0.0172597
0.0273112
0.0338393
0.0353038
0.0152837
-0.0329304
-0.0528087
-0.0323512
-0.0159626
-0.00274925
0.00304505
-0.0121438
-0.0328337
-0.00443191
-0.0893337
-0.0921801
-0.0909444
-0.088511
-0.0862139
-0.0844265
-0.0826027
-0.0802318
-0.0767306
-0.0708638
-0.0620374
-0.0500065
-0.0363293
-0.0206432
-0.00727962
0.00592511
0.0220071
0.0355148
0.0472083
0.0501256
0.0282927
-0.019384
-0.038748
-0.0236186
-0.00791795
0.00442297
0.00874505
-0.00412799
-0.0259899
-0.00202752
-0.0797272
-0.0829766
-0.0826588
-0.0810693
-0.0793047
-0.0776873
-0.0757813
-0.0731556
-0.0693257
-0.0634407
-0.0550739
-0.0440013
-0.0313898
-0.0167761
-0.00376633
0.00956746
0.0261178
0.0420866
0.0570875
0.0611725
0.0387737
-0.00577238
-0.0243773
-0.0147818
-0.000214457
0.0114367
0.0146638
0.00485393
-0.017773
0.000487688
-0.070777
-0.0742581
-0.07465
-0.0737574
-0.072465
-0.0710498
-0.069154
-0.0664285
-0.062458
-0.0566695
-0.0487448
-0.0385091
-0.0268323
-0.0132017
-0.000548615
0.0127222
0.0293422
0.0464777
0.0623203
0.0673989
0.046406
0.00711521
-0.0106541
-0.00614556
0.00697142
0.0180863
0.0206131
0.0145169
-0.00840299
0.00297857
-0.062486
-0.0660662
-0.0669946
-0.06667
-0.0657892
-0.0645936
-0.0627757
-0.0600625
-0.0560897
-0.050484
-0.0429949
-0.0335034
-0.0226577
-0.00994712
0.00229942
0.0153167
0.0315388
0.0486283
0.0636727
0.0693758
0.0513871
0.0182838
0.00155008
0.00200592
0.0134963
0.0241704
0.0263308
0.0243545
0.00166187
0.00529769
-0.0548534
-0.0584332
-0.059756
-0.059889
-0.0593757
-0.0583925
-0.0566962
-0.0540722
-0.050196
-0.0448339
-0.0377787
-0.0289612
-0.0188678
-0.00702994
0.00473112
0.0173358
0.0327263
0.048937
0.0625172
0.0683588
0.054047
0.0270694
0.0117329
0.00946913
0.0192737
0.0295109
0.0315354
0.0335943
0.011712
0.00732271
-0.0478752
-0.0513828
-0.0529858
-0.0534805
-0.0532772
-0.0525056
-0.0509595
-0.0484751
-0.0447626
-0.0396832
-0.0330598
-0.024863
-0.0154623
-0.00445666
0.00673769
0.0188042
0.0330543
0.0479645
0.0599749
0.065551
0.0548716
0.0334213
0.0198343
0.0161157
0.024282
0.033989
0.0359748
0.0413069
0.0209153
0.00896309
-0.0415463
-0.0449332
-0.0467261
-0.0475024
-0.0475588
-0.0469864
-0.0456053
-0.0432903
-0.0397832
-0.0350079
-0.0288107
-0.0211915
-0.0124361
-0.00222271
0.00834211
0.0197746
0.0327464
0.046207
0.056786
0.0618958
0.0544189
0.0377235
0.0260867
0.0218709
0.0285357
0.0375557
0.0394952
0.0466829
0.0285247
0.0102207
-0.0358615
-0.0390981
-0.0410118
-0.0420036
-0.0422751
-0.0418838
-0.0406709
-0.0385388
-0.0352589
-0.0307941
-0.0250115
-0.0179312
-0.00977948
-0.000314337
0.00958767
0.020323
0.0320248
0.0440454
0.0534044
0.0580339
0.0531686
0.0404607
0.0308051
0.0267114
0.0320656
0.0402176
0.0420409
0.049337
0.0340074
0.0112768
-0.0308177
-0.03389
-0.0358726
-0.0370262
-0.037474
-0.0372429
-0.0361924
-0.0342436
-0.0311966
-0.0270363
-0.0216493
-0.015069
-0.00747826
0.00128911
0.0105281
0.020538
0.0310717
0.0417648
0.0501116
0.0543505
0.0514903
0.0420703
0.0342909
0.030661
0.0349162
0.0420414