/*--------------------------------*- C++ -*----------------------------------*\
  =========                 |
  \\      /  F ield         | OpenFOAM: The Open Source CFD Toolbox
   \\    /   O peration     | Website:  https://openfoam.org
    \\  /    A nd           | Version:  7
     \\/     M anipulation  |
\*---------------------------------------------------------------------------*/
FoamFile
{
    version     2.0;
    format      ascii;
    class       volScalarField;
    location    "5";
    object      p;
}
// * * * * * * * * * * * * * * * * * * * * * * * * * * * * * * * * * * * * * //

dimensions      [0 2 -2 0 0 0 0];

internalField   nonuniform List<scalar> 
8500
(
-0.356334
-0.36224
-0.364193
-0.364481
-0.363355
-0.360897
-0.357284
-0.352693
-0.347231
-0.340862
-0.357169
-0.362932
-0.364795
-0.365001
-0.363801
-0.361275
-0.3576
-0.352958
-0.347447
-0.340951
-0.358831
-0.364311
-0.365994
-0.366038
-0.364688
-0.362027
-0.358226
-0.353481
-0.347874
-0.34112
-0.361305
-0.366365
-0.367779
-0.367581
-0.366007
-0.363142
-0.359151
-0.354249
-0.3485
-0.341341
-0.364572
-0.369079
-0.370138
-0.369617
-0.367745
-0.364607
-0.360361
-0.355247
-0.34931
-0.341537
-0.368606
-0.372434
-0.373053
-0.372131
-0.369886
-0.366405
-0.361838
-0.356454
-0.35029
-0.341638
-0.373376
-0.376406
-0.376503
-0.375103
-0.372411
-0.368519
-0.363561
-0.357841
-0.351361
-0.34206
-0.378851
-0.38097
-0.380466
-0.378512
-0.375303
-0.370929
-0.365513
-0.359396
-0.352504
-0.342315
-0.384998
-0.3861
-0.38492
-0.38234
-0.378541
-0.373618
-0.367676
-0.361093
-0.353733
-0.342432
-0.391784
-0.391771
-0.389842
-0.386564
-0.38211
-0.376572
-0.370035
-0.362916
-0.355023
-0.342389
-0.399178
-0.397954
-0.395208
-0.391169
-0.385993
-0.379779
-0.372582
-0.364855
-0.356355
-0.342146
-0.407151
-0.404624
-0.400997
-0.396134
-0.390181
-0.383234
-0.375316
-0.366911
-0.357721
-0.341663
-0.41567
-0.411756
-0.407187
-0.401446
-0.394663
-0.386936
-0.378244
-0.369095
-0.359124
-0.340909
-0.424707
-0.419325
-0.413759
-0.40709
-0.399435
-0.39089
-0.381383
-0.371431
-0.360581
-0.339869
-0.434233
-0.427303
-0.420692
-0.413054
-0.404494
-0.395104
-0.384759
-0.373962
-0.362133
-0.33857
-0.444213
-0.435664
-0.427965
-0.419326
-0.409838
-0.399593
-0.388407
-0.376752
-0.363864
-0.337134
-0.454612
-0.444377
-0.435556
-0.425892
-0.415466
-0.404371
-0.392369
-0.379881
-0.365842
-0.335652
-0.465384
-0.453408
-0.443438
-0.432738
-0.421375
-0.409456
-0.396703
-0.383445
-0.367962
-0.333721
-0.476482
-0.462718
-0.451584
-0.439842
-0.427559
-0.414868
-0.401512
-0.387677
-0.37044
-0.331701
-0.487847
-0.472266
-0.459959
-0.44718
-0.433998
-0.420609
-0.406877
-0.392974
-0.375704
-0.339896
-0.499416
-0.482001
-0.468522
-0.454714
-0.440651
-0.426612
-0.412646
-0.399105
-0.386015
-0.382991
-0.511119
-0.49187
-0.477228
-0.462401
-0.447459
-0.432749
-0.418446
-0.404918
-0.392987
-0.397035
-0.522882
-0.501814
-0.486027
-0.470192
-0.454368
-0.438935
-0.424111
-0.410129
-0.3975
-0.401618
-0.534626
-0.511768
-0.494863
-0.47804
-0.461331
-0.445126
-0.429628
-0.414929
-0.401189
-0.403804
-0.546269
-0.521661
-0.503673
-0.485887
-0.468293
-0.451273
-0.434976
-0.419359
-0.404305
-0.404326
-0.55772
-0.531416
-0.512389
-0.493669
-0.475191
-0.457312
-0.440098
-0.423372
-0.406796
-0.403589
-0.56888
-0.540944
-0.520929
-0.501308
-0.481947
-0.46316
-0.444917
-0.426913
-0.408656
-0.40194
-0.579641
-0.550148
-0.529201
-0.508714
-0.48847
-0.468726
-0.449348
-0.429922
-0.409872
-0.399563
-0.589883
-0.55892
-0.537103
-0.515787
-0.494655
-0.473904
-0.453292
-0.432325
-0.410408
-0.39654
-0.599474
-0.567139
-0.544519
-0.522411
-0.500388
-0.478577
-0.456642
-0.434038
-0.41021
-0.392892
-0.608269
-0.574674
-0.551323
-0.528461
-0.50554
-0.482619
-0.459282
-0.434966
-0.40921
-0.3886
-0.616112
-0.581384
-0.557378
-0.5338
-0.509975
-0.485895
-0.461087
-0.435007
-0.40733
-0.383621
-0.622835
-0.587118
-0.562538
-0.538282
-0.513546
-0.488265
-0.46193
-0.434056
-0.404485
-0.377889
-0.628264
-0.591716
-0.566646
-0.541753
-0.516102
-0.489581
-0.461679
-0.432003
-0.400587
-0.37133
-0.632216
-0.595011
-0.569543
-0.544053
-0.517484
-0.489696
-0.460202
-0.428738
-0.395548
-0.363864
-0.634506
-0.596836
-0.571061
-0.545017
-0.517533
-0.48846
-0.457368
-0.424155
-0.389282
-0.355411
-0.634948
-0.597016
-0.571032
-0.54448
-0.51609
-0.485726
-0.453053
-0.418153
-0.38171
-0.345896
-0.633358
-0.59538
-0.569287
-0.542277
-0.512998
-0.481355
-0.447136
-0.410639
-0.372761
-0.335251
-0.629556
-0.591762
-0.565663
-0.538248
-0.508108
-0.475214
-0.439511
-0.401529
-0.362373
-0.323419
-0.623372
-0.585998
-0.56
-0.532239
-0.501277
-0.467181
-0.430081
-0.390755
-0.350497
-0.310352
-0.614649
-0.577938
-0.552149
-0.524106
-0.492376
-0.457148
-0.418764
-0.378259
-0.337096
-0.296017
-0.603243
-0.567442
-0.541971
-0.513721
-0.481292
-0.445025
-0.405496
-0.364
-0.322146
-0.280391
-0.589029
-0.554387
-0.529346
-0.50097
-0.467927
-0.430738
-0.390229
-0.347953
-0.305639
-0.263463
-0.571903
-0.538666
-0.514169
-0.485757
-0.452205
-0.414234
-0.372933
-0.330108
-0.287579
-0.245237
-0.551787
-0.520196
-0.496357
-0.46801
-0.43407
-0.395481
-0.3536
-0.310473
-0.267984
-0.225732
-0.528626
-0.498917
-0.475852
-0.447679
-0.413492
-0.374468
-0.332238
-0.289071
-0.246891
-0.20498
-0.502396
-0.474795
-0.452619
-0.424741
-0.390464
-0.351211
-0.308877
-0.265941
-0.224341
-0.182985
-0.473101
-0.447821
-0.426652
-0.3992
-0.365006
-0.325745
-0.283569
-0.241141
-0.200366
-0.159636
-0.440777
-0.41802
-0.397974
-0.371086
-0.337163
-0.298131
-0.256385
-0.214748
-0.175029
-0.134913
-0.405491
-0.385442
-0.366634
-0.340459
-0.307009
-0.268455
-0.227417
-0.186847
-0.14846
-0.109861
-0.367343
-0.350171
-0.332715
-0.307408
-0.274643
-0.236825
-0.196772
-0.157536
-0.120636
-0.0838357
-0.326462
-0.312318
-0.296327
-0.27205
-0.24019
-0.203368
-0.164574
-0.126941
-0.0917754
-0.0568677
-0.283012
-0.272025
-0.25761
-0.234529
-0.203802
-0.16822
-0.130977
-0.0951909
-0.0619891
-0.0291194
-0.23718
-0.229461
-0.21673
-0.195013
-0.165629
-0.13158
-0.0961354
-0.0624316
-0.0313942
-0.000739972
-0.189167
-0.184838
-0.173881
-0.15369
-0.125888
-0.0936154
-0.0602267
-0.0288237
-0.000130697
0.0281109
-0.139168
-0.138417
-0.129286
-0.110784
-0.0847816
-0.0545315
-0.0234432
0.00546018
0.0316517
0.0572463
-0.0876336
-0.0903173
-0.0831772
-0.0665275
-0.0425364
-0.0145451
0.014012
0.0402488
0.0638202
0.0863937
-0.0347172
-0.0408952
-0.0358205
-0.0211715
0.000607275
0.0261159
0.0519264
0.0753784
0.0962397
0.115118
0.0192763
0.00956284
0.0125089
0.0250189
0.0443985
0.0672154
0.0900815
0.110654
0.128555
0.14278
0.0740138
0.0607627
0.0615221
0.0717675
0.0885804
0.10852
0.128273
0.145805
0.159883
0.167934
0.129159
0.112391
0.110917
0.11879
0.132894
0.149813
0.166345
0.180632
0.189457
0.189858
0.184368
0.164125
0.160384
0.165795
0.177077
0.190874
0.204125
0.215194
0.220733
0.219615
0.23929
0.215631
0.209605
0.212487
0.220858
0.231457
0.241375
0.249146
0.251739
0.249279
0.293573
0.266577
0.258261
0.258567
0.263965
0.271315
0.277864
0.282278
0.281862
0.277584
0.346863
0.316626
0.306034
0.303739
0.30613
0.310206
0.313375
0.314432
0.311012
0.304618
0.39881
0.365445
0.352607
0.347712
0.347092
0.347899
0.347708
0.345439
0.33906
0.330383
0.449072
0.412709
0.397671
0.390202
0.386595
0.384171
0.38067
0.375136
0.365862
0.354819
0.497314
0.458098
0.440925
0.430932
0.424396
0.418811
0.412081
0.403375
0.391292
0.37786
0.543215
0.501306
0.482081
0.46964
0.460262
0.451617
0.441772
0.430018
0.415239
0.399444
0.586466
0.542039
0.520861
0.506073
0.49397
0.482399
0.469584
0.454933
0.437598
0.419506
0.626779
0.580019
0.557004
0.539997
0.525314
0.51098
0.495369
0.478001
0.458271
0.437987
0.663881
0.614986
0.590268
0.571189
0.554101
0.537196
0.51899
0.499107
0.477166
0.454825
0.697523
0.646702
0.620428
0.599448
0.580155
0.560896
0.540319
0.518147
0.494197
0.469962
0.727477
0.674948
0.647281
0.624591
0.603314
0.581943
0.559243
0.535027
0.509284
0.483343
0.753541
0.699531
0.670644
0.646454
0.623436
0.600215
0.57566
0.549661
0.522357
0.494916
0.775537
0.720281
0.69036
0.664895
0.640398
0.615607
0.58948
0.561973
0.533352
0.504634
0.793316
0.737055
0.706296
0.679793
0.654095
0.62803
0.600628
0.571901
0.542215
0.512459
0.806757
0.749739
0.718343
0.691053
0.664443
0.63741
0.609043
0.579393
0.548901
0.518357
0.815769
0.758243
0.72642
0.6986
0.671377
0.643695
0.614679
0.58441
0.553378
0.522304
0.82029
0.76251
0.730473
0.702387
0.674854
0.646846
0.617505
0.586925
0.555622
0.524281
0.82029
0.76251
0.730473
0.702387
0.674854
0.646846
0.617505
0.586925
0.555622
0.524281
0.815769
0.758243
0.72642
0.6986
0.671377
0.643695
0.614679
0.58441
0.553378
0.522304
0.806757
0.749739
0.718343
0.691053
0.664443
0.63741
0.609043
0.579393
0.548901
0.518357
0.793315
0.737055
0.706296
0.679793
0.654095
0.62803
0.600628
0.571901
0.542215
0.512459
0.775536
0.720281
0.69036
0.664895
0.640398
0.615607
0.58948
0.561973
0.533352
0.504634
0.753541
0.699531
0.670644
0.646454
0.623436
0.600215
0.57566
0.549661
0.522357
0.494915
0.727477
0.674948
0.647281
0.624591
0.603314
0.581943
0.559243
0.535027
0.509284
0.483343
0.697523
0.646702
0.620428
0.599448
0.580155
0.560896
0.540319
0.518147
0.494197
0.469962
0.663881
0.614986
0.590268
0.571189
0.554101
0.537196
0.51899
0.499107
0.477166
0.454825
0.626779
0.580018
0.557004
0.539996
0.525314
0.51098
0.495369
0.478001
0.458271
0.437987
0.586466
0.542039
0.520861
0.506073
0.49397
0.482399
0.469584
0.454933
0.437598
0.419506
0.543214
0.501306
0.482081
0.46964
0.460262
0.451616
0.441772
0.430017
0.415239
0.399444
0.497314
0.458098
0.440925
0.430932
0.424396
0.418811
0.412081
0.403375
0.391292
0.37786
0.449072
0.412709
0.397671
0.390202
0.386595
0.384171
0.38067
0.375136
0.365862
0.354819
0.39881
0.365445
0.352606
0.347712
0.347091
0.347899
0.347708
0.345438
0.33906
0.330382
0.346863
0.316625
0.306033
0.303739
0.30613
0.310206
0.313375
0.314432
0.311011
0.304618
0.293573
0.266577
0.258261
0.258566
0.263965
0.271315
0.277863
0.282278
0.281862
0.277583
0.23929
0.215631
0.209605
0.212486
0.220857
0.231457
0.241375
0.249146
0.251739
0.249279
0.184367
0.164124
0.160384
0.165795
0.177076
0.190874
0.204125
0.215194
0.220733
0.219615
0.129159
0.112391
0.110917
0.11879
0.132894
0.149813
0.166344
0.180632
0.189457
0.189858
0.0740135
0.0607624
0.0615219
0.0717672
0.0885801
0.10852
0.128273
0.145805
0.159883
0.167934
0.019276
0.00956254
0.0125087
0.0250186
0.0443982
0.0672151
0.0900813
0.110653
0.128554
0.14278
-0.0347175
-0.0408955
-0.0358208
-0.0211717
0.000607012
0.0261157
0.0519261
0.0753782
0.0962395
0.115117
-0.0876339
-0.0903177
-0.0831775
-0.0665278
-0.0425367
-0.0145453
0.0140117
0.0402486
0.06382
0.0863935
-0.139169
-0.138418
-0.129286
-0.110784
-0.0847819
-0.0545318
-0.0234434
0.00545996
0.0316515
0.0572461
-0.189167
-0.184838
-0.173882
-0.15369
-0.125888
-0.0936157
-0.0602269
-0.028824
-0.000130905
0.0281107
-0.237181
-0.229462
-0.21673
-0.195013
-0.165629
-0.13158
-0.0961356
-0.0624318
-0.0313944
-0.000740165
-0.283012
-0.272025
-0.25761
-0.23453
-0.203802
-0.168221
-0.130977
-0.0951911
-0.0619893
-0.0291196
-0.326463
-0.312318
-0.296328
-0.272051
-0.240191
-0.203368
-0.164574
-0.126941
-0.0917756
-0.0568679
-0.367343
-0.350171
-0.332716
-0.307409
-0.274643
-0.236825
-0.196772
-0.157536
-0.120636
-0.0838359
-0.405492
-0.385442
-0.366634
-0.34046
-0.307009
-0.268456
-0.227417
-0.186847
-0.14846
-0.109861
-0.440777
-0.41802
-0.397974
-0.371086
-0.337163
-0.298132
-0.256385
-0.214748
-0.175029
-0.134914
-0.473102
-0.447822
-0.426653
-0.3992
-0.365006
-0.325745
-0.283569
-0.241141
-0.200366
-0.159636
-0.502397
-0.474795
-0.45262
-0.424742
-0.390464
-0.351211
-0.308877
-0.265942
-0.224341
-0.182985
-0.528627
-0.498918
-0.475852
-0.447679
-0.413492
-0.374469
-0.332238
-0.289072
-0.246891
-0.20498
-0.551788
-0.520197
-0.496358
-0.46801
-0.434071
-0.395481
-0.3536
-0.310474
-0.267984
-0.225732
-0.571904
-0.538666
-0.514169
-0.485757
-0.452205
-0.414234
-0.372934
-0.330108
-0.287579
-0.245238
-0.589029
-0.554387
-0.529346
-0.50097
-0.467928
-0.430739
-0.390229
-0.347953
-0.30564
-0.263464
-0.603243
-0.567443
-0.541971
-0.513722
-0.481292
-0.445026
-0.405496
-0.364
-0.322147
-0.280391
-0.614649
-0.577939
-0.552149
-0.524107
-0.492377
-0.457149
-0.418764
-0.378259
-0.337096
-0.296017
-0.623373
-0.585999
-0.56
-0.532239
-0.501277
-0.467181
-0.430081
-0.390755
-0.350497
-0.310353
-0.629556
-0.591762
-0.565664
-0.538248
-0.508108
-0.475214
-0.439511
-0.401529
-0.362373
-0.323419
-0.633358
-0.595381
-0.569288
-0.542277
-0.512999
-0.481355
-0.447136
-0.410639
-0.372761
-0.335252
-0.634949
-0.597016
-0.571032
-0.54448
-0.51609
-0.485727
-0.453053
-0.418153
-0.38171
-0.345896
-0.634507
-0.596836
-0.571061
-0.545017
-0.517533
-0.48846
-0.457369
-0.424156
-0.389282
-0.355411
-0.632216
-0.595012
-0.569543
-0.544053
-0.517484
-0.489696
-0.460202
-0.428738
-0.395548
-0.363864
-0.628264
-0.591716
-0.566647
-0.541753
-0.516102
-0.489581
-0.461679
-0.432003
-0.400587
-0.37133
-0.622835
-0.587118
-0.562538
-0.538282
-0.513546
-0.488265
-0.46193
-0.434056
-0.404485
-0.377889
-0.616112
-0.581384
-0.557378
-0.5338
-0.509975
-0.485895
-0.461087
-0.435007
-0.40733
-0.383621
-0.608269
-0.574674
-0.551323
-0.528461
-0.50554
-0.482619
-0.459282
-0.434966
-0.40921
-0.388601
-0.599474
-0.567139
-0.544519
-0.522411
-0.500388
-0.478577
-0.456643
-0.434038
-0.41021
-0.392892
-0.589883
-0.55892
-0.537103
-0.515787
-0.494655
-0.473904
-0.453293
-0.432325
-0.410408
-0.39654
-0.579641
-0.550148
-0.529202
-0.508715
-0.48847
-0.468726
-0.449348
-0.429922
-0.409872
-0.399564
-0.56888
-0.540944
-0.520929
-0.501308
-0.481947
-0.46316
-0.444917
-0.426913
-0.408656
-0.40194
-0.55772
-0.531416
-0.512389
-0.493669
-0.475191
-0.457312
-0.440098
-0.423372
-0.406796
-0.403589
-0.546269
-0.521661
-0.503674
-0.485887
-0.468293
-0.451273
-0.434976
-0.419359
-0.404305
-0.404326
-0.534627
-0.511768
-0.494863
-0.47804
-0.461331
-0.445126
-0.429628
-0.414929
-0.401189
-0.403805
-0.522882
-0.501814
-0.486027
-0.470193
-0.454368
-0.438935
-0.424111
-0.410129
-0.3975
-0.401619
-0.511119
-0.49187
-0.477228
-0.462401
-0.447459
-0.432749
-0.418446
-0.404918
-0.392987
-0.397035
-0.499416
-0.482001
-0.468522
-0.454714
-0.440651
-0.426612
-0.412646
-0.399105
-0.386015
-0.382991
-0.487847
-0.472266
-0.459959
-0.44718
-0.433998
-0.420609
-0.406877
-0.392974
-0.375704
-0.339896
-0.476482
-0.462718
-0.451584
-0.439842
-0.427559
-0.414868
-0.401512
-0.387677
-0.37044
-0.331701
-0.465385
-0.453408
-0.443438
-0.432738
-0.421375
-0.409456
-0.396703
-0.383445
-0.367962
-0.333721
-0.454612
-0.444377
-0.435556
-0.425892
-0.415466
-0.404371
-0.392369
-0.379881
-0.365842
-0.335652
-0.444213
-0.435664
-0.427965
-0.419326
-0.409838
-0.399593
-0.388407
-0.376752
-0.363864
-0.337134
-0.434233
-0.427304
-0.420692
-0.413054
-0.404494
-0.395104
-0.384759
-0.373962
-0.362133
-0.33857
-0.424707
-0.419325
-0.413759
-0.40709
-0.399435
-0.39089
-0.381383
-0.371431
-0.360581
-0.339869
-0.41567
-0.411757
-0.407188
-0.401446
-0.394663
-0.386936
-0.378244
-0.369095
-0.359124
-0.340909
-0.407151
-0.404624
-0.400997
-0.396134
-0.390181
-0.383234
-0.375316
-0.366911
-0.357721
-0.341663
-0.399179
-0.397954
-0.395208
-0.391169
-0.385994
-0.379779
-0.372582
-0.364855
-0.356355
-0.342146
-0.391784
-0.391771
-0.389842
-0.386565
-0.38211
-0.376572
-0.370035
-0.362916
-0.355023
-0.342389
-0.384998
-0.3861
-0.384921
-0.38234
-0.378541
-0.373618
-0.367676
-0.361093
-0.353733
-0.342432
-0.378851
-0.38097
-0.380467
-0.378512
-0.375303
-0.370929
-0.365514
-0.359396
-0.352504
-0.342315
-0.373376
-0.376406
-0.376503
-0.375103
-0.372411
-0.368519
-0.363562
-0.357841
-0.351361
-0.34206
-0.368606
-0.372434
-0.373053
-0.372131
-0.369886
-0.366405
-0.361838
-0.356454
-0.35029
-0.341638
-0.364572
-0.369079
-0.370138
-0.369618
-0.367745
-0.364607
-0.360361
-0.355247
-0.34931
-0.341537
-0.361305
-0.366365
-0.367779
-0.367581
-0.366007
-0.363142
-0.359151
-0.354249
-0.3485
-0.341341
-0.358831
-0.364311
-0.365994
-0.366038
-0.364688
-0.362027
-0.358226
-0.353481
-0.347874
-0.34112
-0.357169
-0.362932
-0.364795
-0.365001
-0.363801
-0.361275
-0.3576
-0.352958
-0.347447
-0.340951
-0.356334
-0.36224
-0.364193
-0.364481
-0.363355
-0.360897
-0.357284
-0.352693
-0.347231
-0.340862
-0.334864
-0.325577
-0.315664
-0.304116
-0.291187
-0.276926
-0.261393
-0.244695
-0.226952
-0.208308
-0.18893
-0.169015
-0.148791
-0.128521
-0.108503
-0.0890494
-0.0705176
-0.0531986
-0.0374974
-0.0235177
-0.0118145
-0.00192965
0.00496718
0.0108218
0.0124439
0.0156293
0.0113995
0.0153371
0.00294767
0.0147457
-0.335414
-0.325945
-0.315998
-0.304431
-0.291487
-0.277219
-0.261681
-0.244982
-0.227239
-0.208595
-0.189217
-0.169299
-0.149071
-0.128793
-0.108764
-0.089298
-0.0707506
-0.0534138
-0.0376932
-0.0236928
-0.0119681
-0.00206199
0.00485649
0.0107304
0.012373
0.015572
0.0113623
0.0153016
0.00294031
0.0147116
-0.336501
-0.326641
-0.316658
-0.305053
-0.292079
-0.277796
-0.26225
-0.245549
-0.227807
-0.209163
-0.189784
-0.169862
-0.149625
-0.129332
-0.109284
-0.0897917
-0.0712135
-0.0538415
-0.0380823
-0.024041
-0.0122737
-0.00232537
0.00463612
0.0105483
0.0122316
0.0154576
0.0112881
0.0152307
0.00292564
0.0146436
-0.338114
-0.327648
-0.317628
-0.305967
-0.292947
-0.278643
-0.263087
-0.246383
-0.228643
-0.210002
-0.190622
-0.170694
-0.150444
-0.130131
-0.110053
-0.0905235
-0.0719001
-0.0544764
-0.0386602
-0.0245585
-0.0127281
-0.0027172
0.00430809
0.010277
0.012021
0.0152869
0.0111774
0.0151248
0.00290376
0.0145422
-0.34029
-0.328926
-0.318882
-0.307149
-0.294066
-0.279738
-0.26417
-0.247465
-0.229729
-0.211093
-0.191715
-0.171781
-0.151516
-0.131177
-0.111062
-0.0914834
-0.0728016
-0.0553107
-0.0394202
-0.0252396
-0.0133266
-0.00323371
0.00387534
0.00991882
0.0117426
0.0150611
0.0110309
0.0149844
0.0028748
0.014408
-0.343054
-0.330414
-0.320381
-0.308564
-0.295414
-0.281053
-0.265473
-0.248771
-0.231043
-0.212416
-0.193042
-0.173104
-0.152822
-0.132453
-0.112294
-0.0926585
-0.0739064
-0.0563343
-0.0403537
-0.0260769
-0.0140631
-0.00387002
0.00334169
0.00947655
0.0113986
0.0147816
0.0108496
0.0148103
0.00283895
0.014242
-0.345795
-0.332354
-0.322105
-0.310185
-0.296951
-0.282557
-0.266967
-0.250272
-0.232559
-0.213946
-0.194581
-0.17464
-0.154343
-0.133942
-0.113734
-0.0940335
-0.075201
-0.0575353
-0.0414503
-0.0270618
-0.0149304
-0.00462027
0.00271172
0.00895365
0.0109914
0.0144502
0.0106344
0.0146033
0.00279644
0.0140451
-0.348994
-0.334455
-0.324001
-0.311971
-0.298643
-0.284214
-0.268619
-0.251937
-0.234246
-0.215656
-0.196305
-0.176367
-0.156055
-0.135622
-0.115363
-0.0955911
-0.07667
-0.0589003
-0.0426984
-0.0281843
-0.0159203
-0.00547778
0.0019907
0.00835412
0.0105239
0.0140687
0.0103866
0.0143645
0.00274752
0.0138187
-0.352556
-0.336716
-0.326032
-0.313881
-0.300451
-0.285989
-0.270394
-0.253735
-0.236075
-0.217515
-0.198186
-0.178256
-0.157935
-0.137471
-0.117159
-0.0973127
-0.0782968
-0.0604145
-0.0440854
-0.0294337
-0.0170236
-0.00643521
0.00118442
0.00768236
0.00999932
0.0136397
0.0101078
0.014095
0.00269248
0.0135642
-0.356363
-0.33912
-0.32816
-0.315874
-0.302336
-0.287843
-0.272257
-0.255631
-0.238014
-0.219495
-0.200197
-0.180283
-0.159957
-0.139465
-0.119101
-0.0991787
-0.0800638
-0.0620626
-0.0455977
-0.0307984
-0.0182309
-0.0074847
0.000299112
0.00694312
0.00942114
0.0131654
0.00979936
0.0137961
0.00263165
0.0132831
-0.360361
-0.341638
-0.330341
-0.317905
-0.30426
-0.289741
-0.274174
-0.257593
-0.240031
-0.221565
-0.202309
-0.182419
-0.162096
-0.141581
-0.121168
-0.101169
-0.0819532
-0.0638286
-0.0472214
-0.0322666
-0.0195321
-0.00861806
-0.000658682
0.00614143
0.00879304
0.0126486
0.0094631
0.0134691
0.00256537
0.0129771
-0.364472
-0.344237
-0.332531
-0.319934
-0.306185
-0.291648
-0.276113
-0.25959
-0.242096
-0.223695
-0.204493
-0.184638
-0.164326
-0.143795
-0.123336
-0.103264
-0.0839469
-0.0656966
-0.0489427
-0.0338261
-0.0209169
-0.0098269
-0.00168225
0.00528247
0.00811886
0.0120921
0.00910073
0.0131156
0.00249398
0.012648
-0.368596
-0.346884
-0.334692
-0.32192
-0.308078
-0.293534
-0.278043
-0.261593
-0.244181
-0.22586
-0.206724
-0.186915
-0.166623
-0.146084
-0.125586
-0.105444
-0.0860275
-0.0676511
-0.0507479
-0.0354653
-0.0223755
-0.0111029
-0.00276492
0.00437144
0.00740245
0.0114986
0.00871403
0.0127371
0.00241784
0.0122977
-0.3726
-0.349545
-0.33679
-0.323822
-0.309905
-0.295369
-0.279937
-0.263576
-0.246262
-0.228033
-0.208976
-0.189225
-0.168965
-0.148427
-0.127898
-0.107692
-0.0881786
-0.0696772
-0.0526238
-0.0371728
-0.0238981
-0.0124381
-0.00390009
0.0034135
0.00664771
0.010871
0.00830484
0.0123351
0.00233733
0.011928
-0.376294
-0.352167
-0.338787
-0.325601
-0.311638
-0.297128
-0.281772
-0.265515
-0.248313
-0.230192
-0.211228
-0.191548
-0.17133
-0.150804
-0.130252
-0.109988
-0.0903836
-0.0717599
-0.0545569
-0.0389366
-0.0254743
-0.0138235
-0.00508047
0.00241446
0.00585914
0.0102127
0.00787546
0.0119115
0.00225302
0.0115409
-0.379371
-0.354645
-0.340646
-0.327221
-0.313251
-0.298792
-0.283529
-0.26739
-0.250315
-0.232315
-0.213457
-0.193859
-0.173696
-0.153191
-0.132626
-0.112312
-0.0926222
-0.0738805
-0.0565304
-0.0407417
-0.0270911
-0.0152484
-0.00629706
0.00138144
0.00504225
0.00952763
0.00742861
0.0114684
0.00216559
0.0111385
-0.381379
-0.35689
-0.342377
-0.328672
-0.31473
-0.300349
-0.285194
-0.269188
-0.252251
-0.234383
-0.215642
-0.196139
-0.176042
-0.15557
-0.135002
-0.114647
-0.0948789
-0.0760254
-0.0585327
-0.0425786
-0.0287409
-0.0167067
-0.00754566
0.000317431
0.00419841
0.00881701
0.006964
0.0110068
0.00207414
0.0107226
-0.382023
-0.358951
-0.344031
-0.329967
-0.316072
-0.301793
-0.286763
-0.270902
-0.254119
-0.2364
-0.217794
-0.198402
-0.178387
-0.157963
-0.137405
-0.117021
-0.0971843
-0.0782253
-0.0605935
-0.044475
-0.0304493
-0.0182206
-0.00884628
-0.000793706
0.00331287
0.00807079
0.00647193
0.0105231
0.00197397
0.0102942
-0.380466
-0.360159
-0.345379
-0.330992
-0.317196
-0.303076
-0.28821
-0.272527
-0.255929
-0.23839
-0.219948
-0.200696
-0.180788
-0.160434
-0.139902
-0.1195
-0.0996016
-0.0805386
-0.0627645
-0.0464749
-0.0322514
-0.0198174
-0.0102175
-0.00196451
0.00238006
0.00728563
0.00595397
0.0100171
0.00186847
0.00985438
-0.369997
-0.357806
-0.345814
-0.331489
-0.317964
-0.30411
-0.289456
-0.273972
-0.25757
-0.240215
-0.221937
-0.202823
-0.183021
-0.162734
-0.142229
-0.121811
-0.101851
-0.0826896
-0.0647786
-0.0483281
-0.0339127
-0.0212886
-0.0114652
-0.00303389
0.00155334
0.00656924
0.00551697
0.00953274
0.00181107
0.00941164
-0.336167
-0.350972
-0.346294
-0.332551
-0.319407
-0.30585
-0.291365
-0.27599
-0.259668
-0.242371
-0.224129
-0.20503
-0.185219
-0.164897
-0.144329
-0.123823
-0.103751
-0.0844611
-0.0663976
-0.0497954
-0.0351968
-0.0224209
-0.0123834
-0.00383724
0.00100092
0.00601876
0.00528266
0.00907127
0.00187823
0.00888927
-0.324384
-0.34173
-0.340429
-0.327542
-0.315128
-0.302284
-0.288357
-0.27347
-0.257616
-0.240775
-0.22298
-0.204317
-0.184926
-0.165
-0.144797
-0.124617
-0.104821
-0.0857549
-0.0678494
-0.051353
-0.0367794
-0.0239989
-0.013851
-0.00522892
-0.00014648
0.00493455
0.00459389
0.00828015
0.00175395
0.00822054
-0.318911
-0.332787
-0.33256
-0.320606
-0.308901
-0.296801
-0.283521
-0.269215
-0.253927
-0.237647
-0.22041
-0.202302
-0.183456
-0.164061
-0.144361
-0.124648
-0.105269
-0.086563
-0.0689446
-0.05267
-0.0382251
-0.0255237
-0.0153368
-0.00668383
-0.00139456
0.00374731
0.00379474
0.00741536
0.00156277
0.00752447
-0.314144
-0.323662
-0.323959
-0.313133
-0.302107
-0.290733
-0.278143
-0.26447
-0.249795
-0.234117
-0.217478
-0.199961
-0.181696
-0.162863
-0.1437
-0.124485
-0.105554
-0.0872379
-0.0699351
-0.0539083
-0.039616
-0.0270142
-0.0168052
-0.00813515
-0.00264782
0.00254543
0.00298205
0.00652732
0.00136393
0.00680494
-0.308521
-0.314048
-0.314352
-0.304733
-0.29444
-0.283811
-0.271979
-0.259016
-0.245025
-0.230021
-0.214044
-0.197179
-0.179552
-0.161337
-0.142761
-0.124093
-0.105655
-0.0877703
-0.0708208
-0.0550747
-0.0409638
-0.0284844
-0.0182723
-0.00959835
-0.00392201
0.00131668
0.00214441
0.00561006
0.00115247
0.00606299
-0.301279
-0.303679
-0.303541
-0.295122
-0.285662
-0.275824
-0.264818
-0.25265
-0.239426
-0.225175
-0.209939
-0.193802
-0.176885
-0.159358
-0.141436
-0.12338
-0.105495
-0.0880983
-0.0715541
-0.0561342
-0.042245
-0.02992
-0.0197325
-0.0110728
-0.00522253
5.61213e-05
0.00127249
0.00466153
0.000919931
0.00530403
-0.292015
-0.292286
-0.291502
-0.28425
-0.275741
-0.266749
-0.256632
-0.245336
-0.232961
-0.219542
-0.205124
-0.189789
-0.173656
-0.156887
-0.139689
-0.122309
-0.105042
-0.0881911
-0.0721069
-0.0570617
-0.0434381
-0.0313028
-0.0211712
-0.0125463
-0.00654116
-0.00122881
0.000368965
0.00368715
0.000663958
0.00453559
-0.280562
-0.279693
-0.278284
-0.272161
-0.264707
-0.256627
-0.247452
-0.237096
-0.22564
-0.213126
-0.199598
-0.185137
-0.169858
-0.153915
-0.137506
-0.120867
-0.104278
-0.0880318
-0.0724619
-0.05784
-0.0445262
-0.0326169
-0.0225742
-0.0140061
-0.00786786
-0.00252867
-0.000561106
0.00269388
0.000383775
0.00376581
-0.267023
-0.265862
-0.264022
-0.258969
-0.252644
-0.245537
-0.237345
-0.227982
-0.217507
-0.205959
-0.193384
-0.179861
-0.165498
-0.150444
-0.134886
-0.119048
-0.103195
-0.0876089
-0.0726057
-0.058455
-0.0454953
-0.0338485
-0.0239289
-0.0154404
-0.00919324
-0.00383445
-0.00151286
0.00168874
7.85914e-05
0.00300323
-0.251725
-0.250894
-0.248895
-0.244863
-0.239696
-0.233608
-0.226426
-0.218091
-0.208638
-0.198103
-0.186532
-0.173997
-0.160605
-0.146494
-0.13184
-0.116856
-0.101793
-0.0869175
-0.0725305
-0.0588962
-0.0463336
-0.0349855
-0.0252234
-0.0168379
-0.0105079
-0.00513705
-0.0024811
0.000679043
-0.000252031
0.00225669
-0.235143
-0.235024
-0.233155
-0.230094
-0.226064
-0.221014
-0.214852
-0.207557
-0.199148
-0.189654
-0.179119
-0.167611
-0.155228
-0.142102
-0.128396
-0.114311
-0.100081
-0.0859617
-0.0722345
-0.0591582
-0.0470326
-0.0360177
-0.0264471
-0.0181878
-0.0118023
-0.00642717
-0.00345994
-0.000327574
-0.000607813
0.00153503
-0.217827
-0.218577
-0.217085
-0.21494
-0.211988
-0.207963
-0.20281
-0.196544
-0.189179
-0.180735
-0.17125
-0.160787
-0.149438
-0.137323
-0.124596
-0.111443
-0.0980819
-0.0847533
-0.0717227
-0.0592401
-0.0475875
-0.0369374
-0.0275907
-0.0194802
-0.013067
-0.00769544
-0.00444286
-0.00132333
-0.000987594
0.000846725
-0.200314
-0.201927
-0.200981
-0.199687
-0.197723
-0.194675
-0.190498
-0.185232
-0.178889
-0.171482
-0.163042
-0.153627
-0.143318
-0.132227
-0.120495
-0.108293
-0.0958234
-0.0833117
-0.0710058
-0.059146
-0.0479968
-0.0377394
-0.0286462
-0.020706
-0.0142927
-0.0089327
-0.00542279
-0.0023005
-0.00138924
0.00019944
-0.183074
-0.185436
-0.185118
-0.184596
-0.183511
-0.181367
-0.178113
-0.173799
-0.16844
-0.162038
-0.154621
-0.146237
-0.13696
-0.126889
-0.116153
-0.104908
-0.0933418
-0.0816618
-0.0700995
-0.0588836
-0.048262
-0.0384209
-0.0296075
-0.0218572
-0.0154705
-0.0101301
-0.00639222
-0.00325164
-0.00180957
-0.00040032
-0.166469
-0.169418
-0.169732
-0.169894
-0.169569
-0.16824
-0.165838
-0.162414
-0.157983
-0.152542
-0.146109
-0.138725
-0.130455
-0.121387
-0.111635
-0.101341
-0.0906766
-0.0798326
-0.0690229
-0.0584641
-0.0483875
-0.0389808
-0.0304699
-0.0229268
-0.016592
-0.0112792
-0.00734334
-0.00416969
-0.00224436
-0.000947603
-0.150748
-0.154114
-0.155009
-0.155759
-0.156077
-0.155463
-0.153831
-0.151225
-0.147657
-0.143118
-0.137619
-0.131193
-0.123894
-0.115797
-0.107005
-0.0976443
-0.0878691
-0.0778548
-0.0677977
-0.0579008
-0.0483797
-0.0394205
-0.0312301
-0.0239093
-0.0176494
-0.0123723
-0.00826815
-0.00504817
-0.00268838
-0.00143926
-0.13606
-0.139688
-0.141084
-0.142322
-0.143173
-0.143173
-0.142224
-0.140358
-0.13758
-0.133878
-0.129254
-0.123732
-0.117356
-0.110191
-0.102324
-0.0938677
-0.0849601
-0.0757599
-0.0664465
-0.0572089
-0.0482468
-0.0397426
-0.0318863
-0.0247999
-0.0186358
-0.0134023
-0.00915871
-0.00588129
-0.00313569
-0.00187388
-0.122475
-0.12624
-0.128043
-0.129677
-0.130959
-0.131477
-0.131123
-0.129914
-0.127851
-0.124915
-0.121101
-0.116423
-0.110916
-0.104633
-0.097648
-0.0900595
-0.0819889
-0.0735792
-0.0649928
-0.0564044
-0.0479985
-0.0399515
-0.0324381
-0.0255954
-0.019545
-0.0143628
-0.0100074
-0.00666399
-0.00357991
-0.0022518
-0.110012
-0.113818
-0.115938
-0.117883
-0.119508
-0.120453
-0.120609
-0.119977
-0.118551
-0.116307
-0.113233
-0.109336
-0.104638
-0.0991816
-0.0930292
-0.0862644
-0.0789933
-0.0713432
-0.0634602
-0.0555046
-0.0476459
-0.0400529
-0.0328869
-0.0262939
-0.0203723
-0.0152487
-0.010807
-0.00739204
-0.00401454
-0.0025749
-0.0986563
-0.102436
-0.104794
-0.106975
-0.108867
-0.110159
-0.110743
-0.110611
-0.109745
-0.10812
-0.105716
-0.102531
-0.0985782
-0.0938897
-0.088515
-0.0825244
-0.0760094
-0.069082
-0.0618728
-0.0545275
-0.0472014
-0.0400544
-0.0332354
-0.0268951
-0.0211142
-0.0160558
-0.0115513
-0.00806204
-0.00443323
-0.00284634
-0.0883813
-0.0920892
-0.0946172
-0.0969731
-0.099066
-0.100634
-0.101575
-0.101868
-0.10149
-0.100411
-0.0986051
-0.0960631
-0.0927899
-0.0888063
-0.0841506
-0.0788804
-0.0730731
-0.0668263
-0.0602556
-0.0534927
-0.0466792
-0.0399653
-0.0334884
-0.0274005
-0.0217686
-0.0167813
-0.0122349
-0.00867145
-0.00483014
-0.00307023
-0.079153
-0.0827602
-0.0854054
-0.087885
-0.0901259
-0.0919102
-0.0931417
-0.0937917
-0.0938325
-0.0932295
-0.0919521
-0.089984
-0.0873224
-0.0839786
-0.0799803
-0.0753727
-0.0702206
-0.0646075
-0.0586352
-0.0524218
-0.0460957
-0.0397971
-0.0336529
-0.0278133
-0.0223354
-0.0174236
-0.0128535
-0.0092186
-0.0052001
-0.00325121
-0.0709388
-0.0744295
-0.0771508
-0.0797139
-0.0820596
-0.0840089
-0.0854739
-0.0864199
-0.086815
-0.0866212
-0.085804
-0.0843415
-0.0822238
-0.0794535
-0.0760484
-0.0720428
-0.0674894
-0.062459
-0.0570402
-0.0513384
-0.0454696
-0.0395637
-0.0337379
-0.0281388
-0.0228161
-0.0179827
-0.0134042
-0.00970268
-0.00553886
-0.00339409
-0.0637108
-0.0670791
-0.0698453
-0.0724614
-0.0748778
-0.0769502
-0.0785994
-0.0797871
-0.0804766
-0.0806282
-0.0802067
-0.0791838
-0.0775426
-0.0752786
-0.0724008
-0.0689339
-0.0649193
-0.0604165
-0.0555019
-0.0502689
-0.044822
-0.0392813
-0.033755
-0.0283844
-0.0232141
-0.0184599
-0.0138856
-0.0101236
-0.0058431
-0.0035036
-0.0574488
-0.0606963
-0.0634851
-0.0661313
-0.0685925