/*--------------------------------*- C++ -*----------------------------------*\
  =========                 |
  \\      /  F ield         | OpenFOAM: The Open Source CFD Toolbox
   \\    /   O peration     | Website:  https://openfoam.org
    \\  /    A nd           | Version:  7
     \\/     M anipulation  |
\*---------------------------------------------------------------------------*/
FoamFile
{
    version     2.0;
    format      ascii;
    class       surfaceScalarField;
    location    "5";
    object      phi;
}
// * * * * * * * * * * * * * * * * * * * * * * * * * * * * * * * * * * * * * //

dimensions      [0 3 -1 0 0 0 0];

internalField   nonuniform List<scalar> 
16735
(
-4.56157e-05
4.56146e-05
1.08066e-09
-0.000155978
0.000110359
3.32255e-09
-0.000314056
0.000158072
4.97125e-09
-0.000503442
0.000189381
5.63621e-09
-0.000708787
0.000205339
6.06284e-09
-0.000916586
0.000207792
6.86428e-09
-0.00111624
0.000199651
8.07367e-09
-0.00130163
0.000185374
9.59731e-09
-0.00147203
0.000170391
1.13467e-08
0.000161746
1.32826e-08
-0.00163379
-4.4725e-05
9.03396e-05
-0.000152543
0.000218177
-0.000306289
0.000311819
-0.000489338
0.000372429
-0.000686014
0.000402015
-0.000882374
0.000404152
-0.00106726
0.00038454
-0.00123391
0.00035202
-0.001381
0.000317484
0.00029499
-0.00151425
-4.29607e-05
0.0001333
-0.000145729
0.000320945
-0.000290875
0.000456966
-0.000461334
0.000542887
-0.000640791
0.000581473
-0.000814431
0.000577792
-0.000969988
0.000540097
-0.00109941
0.000481445
-0.00120019
0.000418259
0.000371591
-0.00127679
-4.03559e-05
0.000173656
-0.000135646
0.000416235
-0.000268042
0.000589362
-0.000419828
0.000694673
-0.000573747
0.000735392
-0.000713697
0.000717742
-0.000825759
0.000652159
-0.000899984
0.00055567
-0.000932057
0.000450332
0.00036411
-0.000924576
-3.69561e-05
0.000210612
-0.000122447
0.000501727
-0.000238111
0.000705026
-0.000365379
0.000821941
-0.000485771
0.000855785
-0.000581503
0.000813474
-0.000636487
0.000707143
-0.000638229
0.000557411
-0.000580265
0.000392368
0.000246331
-0.000462487
-3.28165e-05
0.000243429
-0.000106318
0.000575228
-0.000201471
0.000800179
-0.000298671
0.000919141
-0.000377956
0.00093507
-0.000419504
0.000855021
-0.000404561
0.0006922
-0.00031732
0.00047017
-0.000147699
0.000222748
8.57143e-07
9.77746e-05
-2.79968e-05
0.000271426
-8.74593e-05
0.00063469
-0.000158551
0.00087127
-0.000220462
0.000981052
-0.000251524
0.000966133
-0.000229567
0.000833064
-0.00013272
0.000595353
5.84995e-05
0.00027895
0.000358306
-7.7059e-05
-0.000408641
0.000767805
-2.25563e-05
0.000293982
-6.60764e-05
0.00067821
-0.000109787
0.000914981
-0.000131529
0.00100279
-0.000107746
0.00094235
-1.36527e-05
0.00073897
0.000176102
0.000405598
0.000485455
-3.0402e-05
0.000932657
-0.000524261
-0.000999148
0.00152316
-1.65495e-05
0.000310531
-4.23587e-05
0.000704019
-5.55933e-05
0.000928215
-3.2618e-05
0.000979819
5.21451e-05
0.000857586
0.000226261
0.000564854
0.000518918
0.000112941
0.000958954
-0.000470438
0.00157011
-0.00113542
-0.00179074
0.0023617
-1.00216e-05
0.000320553
-1.64677e-05
0.000710466
3.67658e-06
0.000908071
7.56103e-05
0.000907885
0.00022704
0.000706157
0.000488415
0.00030348
0.000892909
-0.000291553
0.00147478
-0.00105231
0.00226421
-0.00192485
-0.00280184
0.00327531
-3.00939e-06
0.000323562
1.14629e-05
0.000695993
6.7716e-05
0.000851818
0.000192617
0.000782984
0.000416017
0.000482756
0.000771263
-5.17664e-05
0.00129555
-0.000815844
0.00202887
-0.00178562
0.00300881
-0.00290479
-0.00404893
0.00425591
4.48498e-06
0.000319078
4.13563e-05
0.000659122
0.000136336
0.000756839
0.000318005
0.000601315
0.000618384
0.000182377
0.00107362
-0.000507005
0.00172479
-0.00146701
0.00261761
-0.00267845
0.00379805
-0.00408524
-0.00554613
0.00529525
1.24325e-05
0.000306645
7.31603e-05
0.000598394
0.000209395
0.000620604
0.000451511
0.000359198
0.000833685
-0.000199797
0.0013947
-0.00106802
0.00217913
-0.00225143
0.0032381
-0.00373742
0.00462654
-0.00547368
-0.00730457
0.00638498
2.08485e-05
0.000285797
0.000106849
0.000512394
0.000286807
0.000440646
0.000592967
5.3038e-05
0.00106165
-0.000668483
0.00173408
-0.00174046
0.00265774
-0.00317509
0.00388834
-0.00496802
0.00548965
-0.00707498
-0.00933155
0.00751664
2.97365e-05
0.00025606
0.000142401
0.000399729
0.000368492
0.000214556
0.000742221
-0.000320691
0.0013021
-0.00122836
0.0020916
-0.00252996
0.00316043
-0.00424392
0.00456746
-0.00637505
0.00638399
-0.00889152
-0.0116294
0.0086818
3.90965e-05
0.000216964
0.000179774
0.000259051
0.000454312
-5.99822e-05
0.000899022
-0.000765401
0.00155472
-0.00188406
0.00246707
-0.0034423
0.00368737
-0.00546421
0.00527583
-0.00796352
0.00730814
-0.0109238
-0.0141937
0.00987245
4.89149e-05
0.000168049
0.000218868
8.90985e-05
0.000544003
-0.000385117
0.00106288
-0.00128428
0.00181883
-0.00264001
0.00285989
-0.00448336
0.00423865
-0.00684297
0.00601486
-0.00973973
0.00826328
-0.0131722
-0.017013
0.0110826
5.91561e-05
0.000108892
0.000259506
-0.000111251
0.000637105
-0.000762716
0.00123291
-0.00188009
0.00209307
-0.00350017
0.0032685
-0.00565879
0.00481367
-0.00838814
0.00678688
-0.0117129
0.00925338
-0.0156387
-0.020073
0.0123134
6.97579e-05
3.91346e-05
0.000301411
-0.000342905
0.000732911
-0.00119422
0.00140768
-0.00255486
0.00237498
-0.00446747
0.00368955
-0.00697335
0.00541016
-0.0101088
0.00759686
-0.0138996
0.0102927
-0.0183346
-0.0233598
0.0135796
8.0632e-05
-4.14974e-05
0.000344209
-0.000606482
0.000830455
-0.00168046
0.00158515
-0.00330955
0.00266068
-0.005543
0.0041165
-0.00842917
0.00601978
-0.012012
0.00844669
-0.0163266
0.0114458
-0.0213338
-0.0268009
0.0148869
9.16729e-05
-0.00013317
0.000387457
-0.000902267
0.000928572
-0.00222158
0.00176272
-0.0041437
0.00294481
-0.00672509
0.00453829
-0.0100227
0.00661894
-0.0140927
0.00928707
-0.0189947
0.0127432
-0.0247899
-0.031797
0.0177394
0.000102772
-0.000235942
0.000430698
-0.00123019
0.00102606
-0.00281694
0.0019377
-0.00505534
0.00322155
-0.00800895
0.00494187
-0.011743
0.00717489
-0.0163257
0.010019
-0.0218388
0.0136341
-0.028405
-0.0363698
0.0182068
0.000113835
-0.000349777
0.000473519
-0.00158988
0.00112184
-0.00346526
0.00210778
-0.00604128
0.00348643
-0.0093876
0.00531897
-0.0135755
0.00767336
-0.0186801
0.0106247
-0.0247901
0.0142559
-0.0320361
-0.0406965
0.0185826
0.000124787
-0.000474564
0.000515588
-0.00198068
0.00121507
-0.00416474
0.0022713
-0.00709751
0.00373673
-0.010853
0.00566642
-0.0155052
0.00811527
-0.0211289
0.0111307
-0.0278055
0.014736
-0.0356415
-0.0448294
0.0188689
0.000135577
-0.000610141
0.00055665
-0.00240175
0.00130511
-0.0049132
0.0024271
-0.0082195
0.00397091
-0.0123968
0.00598351
-0.0175178
0.00850488
-0.0236503
0.0115566
-0.0308573
0.0151207
-0.0392055
-0.0488023
0.0190937
0.000146168
-0.000756308
0.000596498
-0.00285208
0.00139145
-0.00570815
0.00257429
-0.00940234
0.00418795
-0.0140105
0.00627006
-0.0195999
0.0088453
-0.0262255
0.0119127
-0.0339247
0.0154251
-0.042718
-0.0526354
0.0192582
0.000156524
-0.000912832
0.00063494
-0.0033305
0.00147361
-0.00654682
0.00271207
-0.0106408
0.00438688
-0.0156853
0.00652554
-0.0217386
0.00913772
-0.0288377
0.0122028
-0.0369898
0.0156529
-0.0461681
-0.0563346
0.0193521
0.000166603
-0.00107944
0.000671767
-0.00383566
0.00155108
-0.00742613
0.00283955
-0.0119293
0.00456652
-0.0174123
0.0067488
-0.0239209
0.00938154
-0.0314705
0.012427
-0.0400352
0.0158016
-0.0495427
-0.0598964
0.0193634
0.000176351
-0.00125579
0.000706727
-0.00436604
0.00162328
-0.00834269
0.00295569
-0.0132617
0.00472538
-0.019182
0.00693805
-0.0261335
0.00957485
-0.0341073
0.0125829
-0.0430433
0.0158667
-0.0528265
-0.0633111
0.0192814
0.000185695
-0.00144148
0.000739517
-0.00491986
0.0016895
-0.00929267
0.00305929
-0.0146315
0.00486167
-0.0209844
0.007091
-0.0283629
0.00971492
-0.0367312
0.0126672
-0.0459955
0.0158431
-0.0560024
-0.0665655
0.0190975
0.000194543
-0.00163602
0.000769781
-0.0054951
0.00174897
-0.0102719
0.00314897
-0.0160315
0.00497342
-0.0228088
0.00720509
-0.0305945
0.00979876
-0.0393248
0.0126764
-0.0488731
0.0157264
-0.0590524
-0.0696451
0.018806
0.000202788
-0.00183881
0.000797116
-0.00608943
0.0018008
-0.0112755
0.00322329
-0.017454
0.00505855
-0.0246441
0.00727775
-0.0328137
0.0098235
-0.0418706
0.0126076
-0.0516572
0.0155139
-0.0619587
-0.0725352
0.018404
0.00021031
-0.00204912
0.000821089
-0.00670021
0.00184409
-0.0122985
0.00328076
-0.0188906
0.00511502
-0.0264783
0.00730657
-0.0350053
0.00978674
-0.0443508
0.0124588
-0.0543292
0.0152043
-0.0647042
-0.0752222
0.0178913
0.000216979
-0.0022661
0.000841248
-0.00732448
0.00187792
-0.0133352
0.00331995
-0.0203327
0.00514096
-0.0282993
0.00728953
-0.0371539
0.00968674
-0.046748
0.0122292
-0.0568717
0.0147982
-0.0672733
-0.0776943
0.0172703
0.000222664
-0.00248876
0.000857141
-0.00795895
0.0019014
-0.0143795
0.0033395
-0.0217708
0.00513475
-0.0300946
0.00722508
-0.0392442
0.00952261
-0.0490455
0.0119192
-0.0592683
0.0142979
-0.069652
-0.0799416
0.0165452
0.00022723
-0.00271599
0.000868331
-0.00860005
0.0019137
-0.0154248
0.00333826
-0.0231953
0.0050951
-0.0318514
0.00711225
-0.0412613
0.00929429
-0.0512275
0.0115302
-0.0615042
0.013707
-0.0718288
-0.0819568
0.0157222
0.000230551
-0.00294654
0.000874412
-0.00924392
0.00191409
-0.0164645
0.00331526
-0.0245965
0.00502111
-0.0335573
0.0069507
-0.0431909
0.00900263
-0.0532795
0.0110651
-0.0635667
0.0130304
-0.0737941
-0.0837348
0.0148085
0.000232507
-0.00317905
0.000875022
-0.00988643
0.00190196
-0.0174914
0.00326979
-0.0259643
0.00491232
-0.0351998
0.00674073
-0.0450193
0.00864932
-0.055188
0.0105273
-0.0654446
0.0122741
-0.075541
-0.0852729
0.0138122
0.000232993
-0.00341204
0.000869854
-0.0105233
0.00187684
-0.0184984
0.00320141
-0.0272889
0.0047687
-0.0367671
0.00648328
-0.0467339
0.00823683
-0.0569416
0.00992131
-0.0671291
0.0114446
-0.0770643
-0.0865705
0.0127422
0.000231916
-0.00364396
0.000858664
-0.01115
0.0018384
-0.0194782
0.00310997
-0.0285605
0.00459069
-0.0382478
0.00617988
-0.0483231
0.0077683
-0.05853
0.00925234
-0.0686131
0.0105493
-0.0783612
-0.0876285
0.0116073
0.000229201
-0.00387316
0.000841278
-0.0117621
0.0017865
-0.0204234
0.00299562
-0.0297696
0.00437915
-0.0396313
0.0058326
-0.0497766
0.00724747
-0.0599449
0.00852596
-0.0698916
0.00959546
-0.0794307
-0.0884497
0.0104167
0.000224793
-0.00409795
0.000817599
-0.0123549
0.00172113
-0.0213269
0.00285878
-0.0309072
0.00413534
-0.0409079
0.00544401
-0.0510852
0.00667853
-0.0611794
0.00774812
-0.0709612
0.00859072
-0.0802733
-0.089038
0.00917904
0.000218656
-0.00431661
0.000787606
-0.0129239
0.00164249
-0.0221818
0.00270015
-0.0319649
0.0038609
-0.0420687
0.00501706
-0.0522414
0.00606602
-0.0622284
0.00692496
-0.0718201
0.00754256
-0.0808909
-0.0893983
0.00790284
0.000210777
-0.00452739
0.000751355
-0.0134645
0.00155092
-0.0229814
0.00252069
-0.0329347
0.0035578
-0.0431058
0.00455507
-0.0532387
0.00541476
-0.0630881
0.00606271
-0.0724681
0.0064583
-0.0812865
-0.0895361
0.00659611
0.000201162
-0.00472855
0.000708982
-0.0139723
0.00144691
-0.0237193
0.00232161
-0.0338094
0.00322828
-0.0440124
0.00406161
-0.054072
0.00472972
-0.0637562
0.00516755
-0.0729059
0.00534497
-0.0814639
-0.0894575
0.00526633
0.000189841
-0.00491839
0.000660697
-0.0144431
0.00133112
-0.0243897
0.00210432
-0.0345826
0.00287485
-0.044783
0.00354045
-0.0547376
0.00401595
-0.0642317
0.00424556
-0.0731355
0.00420928
-0.0814277
-0.0891685
0.00392033
0.000176864
-0.00509525
0.00060678
-0.014873
0.00120433
-0.0249873
0.0018704
-0.0352486
0.00250018
-0.0454127
0.00299552
-0.0552329
0.00327852
-0.0645147
0.00330264
-0.0731596
0.00305752
-0.0811825
-0.0886754
0.00256442
0.000162303
-0.00525756
0.000547577
-0.0152583
0.00106742
-0.0255071
0.0016216
-0.0358028
0.00210711
-0.0458982
0.00243083
-0.0555567
0.00252251
-0.0646063
0.0023446
-0.0729817
0.00189535
-0.0807333
-0.087984
0.00120395
0.000146247
-0.00540381
0.000483493
-0.0155956
0.000921387
-0.025945
0.00135977
-0.0362412
0.00169855
-0.046237
0.00185042
-0.0557085
0.00175298
-0.0645089
0.00137738
-0.0726061
0.000728814
-0.0800847
-0.0870835
-0.00017168
0.000128805
-0.00553261
0.000414982
-0.0158817
0.000767314
-0.0262973
0.00108687
-0.0365607
0.0012775
-0.0464277
0.00125832
-0.0556894
0.000974792
-0.0642254
0.000406149
-0.0720375
-0.000433025
-0.0792455
-0.0860117
-0.00150479
0.000110099
-0.00564271
0.000342539
-0.0161142
0.000606327
-0.0265611
0.000804882
-0.0367593
0.000846941
-0.0464697
0.000658483
-0.0555009
0.000192675
-0.0637596
-0.00056425
-0.0712806
-0.00159282
-0.078217
-0.0847599
-0.00284464
9.02681e-05
-0.00573298
0.00026669
-0.0162906
0.000439594
-0.026734
0.000515826
-0.0368355
0.000409823
-0.0463637
5.49318e-05
-0.055146
-0.000588773
-0.0631159
-0.00152851
-0.0703408
-0.00273982
-0.0770057
-0.0833303
-0.00416945
6.94611e-05
-0.00580244
0.000187982
-0.0164091
0.000268294
-0.0268144
0.000221701
-0.0367889
-3.07899e-05
-0.0461112
-0.000548997
-0.0546278
-0.00136509
-0.0622998
-0.00248177
-0.0692242
-0.0038711
-0.0756163
-0.0817263
-0.00547513
4.78501e-05
-0.00585029
0.000106974
-0.0164682
9.36076e-05
-0.026801
-7.5571e-05
-0.0366198
-0.00047273
-0.0457141
-0.00114939
-0.0539511
-0.00213194
-0.0613172
-0.00341921
-0.0679369
-0.00498201
-0.0740535
-0.0799503
-0.00675795
2.56769e-05
-0.00587597
2.41879e-05
-0.0164668
-8.33548e-05
-0.0266934
-0.000374249
-0.0363289
-0.000912812
-0.0451755
-0.00174303
-0.0531209
-0.00288524
-0.060175
-0.00433599
-0.0664861
-0.00606764
-0.0723219
-0.0780036
-0.00801431
1.93976e-06
-0.0058779
-5.99057e-05
-0.0164049
-0.000261485
-0.0264919
-0.000672441
-0.0359179
-0.00134888
-0.0444991
-0.0023269
-0.0521429
-0.00362119
-0.0588807
-0.00522727
-0.0648801
-0.0071227
-0.0704264
-0.0758854
-0.00924099
-2.07465e-05
-0.00585716
-0.000144559
-0.0162811
-0.000439719
-0.0261967
-0.000968613
-0.035389
-0.00177883
-0.0436888
-0.00289841
-0.0510233
-0.00433643
-0.0574427
-0.00608834
-0.0631281
-0.00814148
-0.0683733
-0.0735918
-0.010435
-4.42372e-05
-0.00581292
-0.000229438
-0.0160959
-0.000617096
-0.025809
-0.00126133
-0.0347448
-0.00220085
-0.0427493
-0.0034554
-0.0497688
-0.00502817
-0.0558699
-0.00691479
-0.0612415
-0.00911702
-0.0661711
-0.0711185
-0.0115903
-6.78516e-05
-0.00574507
-0.000314047
-0.0158497
-0.000792723
-0.0253304
-0.00154932
-0.0339882
-0.00261344
-0.0416852
-0.00399632
-0.0483859
-0.00569448
-0.0541718
-0.0077023
-0.0592337
-0.0100368
-0.0638366
-0.0684546
-0.0127007
-9.14133e-05
-0.00565366
-0.000397908
-0.0155432
-0.000965758
-0.0247625
-0.00183144
-0.0331225
-0.00301538
-0.0405013
-0.00452029
-0.046881
-0.00633515
-0.0523569
-0.00844835
-0.0571205
-0.0108862
-0.0613987
-0.0655603
-0.0137805
-0.000114783
-0.00553887
-0.000480577
-0.0151774
-0.00113541
-0.0241077
-0.00210663
-0.0321513
-0.00340566
-0.0392022
-0.00502716
-0.0452595
-0.00695302
-0.050431
-0.00915949
-0.054914
-0.011605
-0.0589533
-0.0628409
-0.0143244
-0.000137825
-0.00540105
-0.000561626
-0.0147536
-0.00130089
-0.0233684
-0.00237382
-0.0310783
-0.00378318
-0.0377929
-0.0055164
-0.0435263
-0.00755009
-0.0483973
-0.00985663
-0.0526075
-0.012406
-0.0564039
-0.0600285
-0.0152184
-0.000160406
-0.00524064
-0.000640637
-0.0142734
-0.00146145
-0.0225476
-0.00263196
-0.0299078
-0.00414655
-0.0362783
-0.0059861
-0.0416867
-0.00812294
-0.0462605
-0.0105277
-0.0502027
-0.0131756
-0.0537561
-0.0571382
-0.0160659
-0.0001824
-0.00505824
-0.00071721
-0.0137386
-0.00161637
-0.0216484
-0.00287999
-0.0286442
-0.0044944
-0.0346639
-0.00643427
-0.0397468
-0.00866801
-0.0440268
-0.0111644
-0.0477063
-0.0138989
-0.0510216
-0.0541746
-0.0168624
-0.000203683
-0.00485456
-0.000790973
-0.0131513
-0.00176499
-0.0206744
-0.003117
-0.0272922
-0.00482557
-0.0329553
-0.00685951
-0.0377129
-0.00918351
-0.0417028
-0.0117644
-0.0451254
-0.0145769
-0.0482091
-0.0511439
-0.0176077
-0.000224145
-0.00463041
-0.000861586
-0.0125138
-0.00190672
-0.0196293
-0.00334218
-0.0258567
-0.00513913
-0.0311584
-0.00726085
-0.0355912
-0.00966859
-0.039295
-0.0123275
-0.0424665
-0.0152116
-0.045325
-0.0480501
-0.0183054
-0.00024368
-0.00438673
-0.00092874
-0.0118288
-0.00204102
-0.018517
-0.00355486
-0.0243429
-0.00543434
-0.0292789
-0.00763763
-0.0333879
-0.0101229
-0.0368098
-0.0128538
-0.0397356
-0.0158041
-0.0423746
-0.0448964
-0.0189578
-0.000262195
-0.00412454
-0.000992159
-0.0110988
-0.00216744
-0.0173417
-0.00375444
-0.0227559
-0.0057106
-0.0273227
-0.00798936
-0.0311091
-0.0105461
-0.034253
-0.0133436
-0.0369381
-0.0163555
-0.0393627
-0.0416858
-0.0195662
-0.000279605
-0.00384493
-0.0010516
-0.0103268
-0.00228558
-0.0161077
-0.00394043
-0.0211011
-0.00596741
-0.0252958
-0.00831568
-0.0287608
-0.0109382
-0.0316305
-0.0137971
-0.0340793
-0.0168663
-0.0362934
-0.0384209
-0.0201312
-0.000295833
-0.0035491
-0.00110683
-0.00951582
-0.00239508
-0.0148195
-0.00411239
-0.0193838
-0.00620435
-0.0232038
-0.00861624
-0.026349
-0.011299
-0.0289477
-0.0142143
-0.0311641
-0.0173368
-0.0331709
-0.0351047
-0.0206529
-0.000310809
-0.00323829
-0.00115767
-0.00866896
-0.00249562
-0.0134816
-0.00426994
-0.0176094
-0.00642105
-0.0210527
-0.00889075
-0.0238793
-0.0116283
-0.0262101
-0.0145951
-0.0281973
-0.0177666
-0.0299993
-0.0317406
-0.0211308
-0.00032447
-0.00291382
-0.00120393
-0.0077895
-0.00258691
-0.0120986
-0.00441275
-0.0157836
-0.00661715
-0.0188483
-0.0091389
-0.0213575
-0.0119259
-0.0234231
-0.0149393
-0.0251839
-0.0181557
-0.0267829
-0.028332
-0.0215643
-0.000336759
-0.00257706
-0.00124546
-0.0068808
-0.00266871
-0.0106753
-0.00454049
-0.0139118
-0.00679235
-0.0165964
-0.0093604
-0.0187895
-0.0121914
-0.0205922
-0.0152466
-0.0221287
-0.0185034
-0.0235261
-0.024883
-0.0219525
-0.000347627
-0.00222944
-0.00128211
-0.00594631
-0.00274079
-0.00921665
-0.0046529
-0.0119997
-0.00694634
-0.014303
-0.00955497
-0.0161808
-0.0124246
-0.0177226
-0.0155166
-0.0190367
-0.0188093
-0.0202334
-0.0213977
-0.0222945
-0.000357027
-0.00187241
-0.00131376
-0.00498958
-0.00280295
-0.00772746
-0.00474972
-0.0100529
-0.00707887
-0.0119738
-0.00972232
-0.0135374
-0.0126251
-0.0148198
-0.0157489
-0.015913
-0.0190727
-0.0169095
-0.0178809
-0.0225895
-0.000364921
-0.00150749
-0.0013403
-0.0040142
-0.00285502
-0.00621275
-0.00483075
-0.0080772
-0.00718969
-0.0096149
-0.00986221
-0.0108648
-0.0127927
-0.0118893
-0.0159431
-0.0127626
-0.0192932
-0.0135595
-0.0143374
-0.0228367
-0.000371276
-0.00113621
-0.00136165
-0.00302383
-0.00289685
-0.00467755
-0.00489579
-0.00607826
-0.00727861
-0.00723209
-0.00997441
-0.00816904
-0.0129272
-0.00893647
-0.016099
-0.00959076
-0.0194702
-0.0101883
-0.0107722
-0.0230354
-0.000376066
-0.000760147
-0.00137772
-0.00202217
-0.00292833
-0.00312694
-0.00494471
-0.00406187
-0.00734545
-0.00483136
-0.0100587
-0.00545575
-0.0130283
-0.00596695
-0.0162162
-0.00640283
-0.0196034
-0.00680109
-0.00719063
-0.0231849
-0.000379271
-0.000380876
-0.00138847
-0.00101297
-0.00294936
-0.00156604
-0.00497739
-0.00203385
-0.00739008
-0.00241867
-0.010115
-0.00273079
-0.0130957
-0.00298627
-0.0162944
-0.00320411
-0.0196923
-0.00340322
-0.00359807
-0.0232849
-0.000380876
5.40351e-10
-0.00139385
1.36936e-09
-0.0029599
2.6055e-09
-0.00499375
4.33441e-09
-0.00741242
5.97172e-09
-0.0101432
7.12077e-09
-0.0131295
7.80338e-09
-0.0163336
8.1602e-09
-0.0197368
8.3024e-09
8.32811e-09
-0.0233349
-0.000380876
0.000380877
-0.00139385
0.00101298
-0.0029599
0.00156605
-0.00499375
0.00203385
-0.00741242
0.00241868
-0.0101432
0.0027308
-0.0131295
0.00298628
-0.0163336
0.00320413
-0.0197368
0.00340324
0.00359809
-0.0233349
-0.000379271
0.000760148
-0.00138847
0.00202217
-0.00294936
0.00312695
-0.00497739
0.00406188
-0.00739008
0.00483137
-0.010115
0.00545576
-0.0130957
0.00596697
-0.0162944
0.00640284
-0.0196923
0.00680111
0.00719065
-0.0232849
-0.000376066
0.00113621
-0.00137772
0.00302383
-0.00292833
0.00467755
-0.00494471
0.00607827
-0.00734545
0.0072321
-0.0100587
0.00816905
-0.0130283
0.00893648
-0.0162162
0.00959078
-0.0196034
0.0101883
0.0107722
-0.0231849
-0.000371276
0.00150749
-0.00136165
0.0040142
-0.00289685
0.00621276
-0.0048958
0.00807721
-0.00727861
0.00961491
-0.00997441
0.0108649
-0.0129272
0.0118893
-0.016099
0.0127626
-0.0194702
0.0135595
0.0143374
-0.0230354
-0.000364921
0.00187241
-0.0013403
0.00498958
-0.00285502
0.00772747
-0.00483075
0.0100529
-0.00718969
0.0119739
-0.00986221
0.0135374
-0.0127927
0.0148198
-0.0159431
0.015913
-0.0192932
0.0169095
0.0178809
-0.0228367
-0.000357027
0.00222944
-0.00131376
0.00594632
-0.00280295
0.00921666
-0.00474972
0.0119997
-0.00707887
0.014303
-0.00972232
0.0161808
-0.0126251
0.0177226
-0.0157489
0.0190367
-0.0190727
0.0202334
0.0213977
-0.0225895
-0.000347627
0.00257706
-0.00128211
0.0068808
-0.00274079
0.0106753
-0.0046529
0.0139118
-0.00694634
0.0165964
-0.00955497
0.0187895
-0.0124246
0.0205922
-0.0155166
0.0221288
-0.0188093
0.0235261
0.024883
-0.0222945
-0.00033676
0.00291382
-0.00124546
0.0077895
-0.00266871
0.0120986
-0.00454049
0.0157836
-0.00679235
0.0188483
-0.0093604
0.0213575
-0.0121914
0.0234231
-0.0152466
0.0251839
-0.0185034
0.0267829
0.028332
-0.0219525
-0.00032447
0.00323829
-0.00120393
0.00866897
-0.00258691
0.0134816
-0.00441275
0.0176094
-0.00661715
0.0210527
-0.0091389
0.0238793
-0.0119259
0.0262101
-0.0149393
0.0281974
-0.0181557
0.0299993
0.0317406
-0.0215643
-0.000310809
0.0035491
-0.00115767
0.00951583
-0.00249562
0.0148195
-0.00426994
0.0193838
-0.00642105
0.0232038
-0.00889075
0.026349
-0.0116283
0.0289477
-0.0145951
0.0311641
-0.0177666
0.0331709
0.0351047
-0.0211308
-0.000295833
0.00384494
-0.00110683
0.0103268
-0.00239508
0.0161078
-0.00411239
0.0211011
-0.00620435
0.0252958
-0.00861624
0.0287609
-0.011299
0.0316305
-0.0142143
0.0340793
-0.0173368
0.0362934
0.0384209
-0.0206529
-0.000279605
0.00412454
-0.0010516
0.0110988
-0.00228558
0.0173417
-0.00394043
0.0227559
-0.00596741
0.0273228
-0.00831568
0.0311091
-0.0109382
0.034253
-0.0137971
0.0369381
-0.0168663
0.0393627
0.0416858
-0.0201312
-0.000262195
0.00438674
-0.000992159
0.0118288
-0.00216744
0.018517
-0.00375444
0.0243429
-0.0057106
0.0292789
-0.00798936
0.0333879
-0.0105461
0.0368098
-0.0133436
0.0397356
-0.0163555
0.0423746
0.0448964
-0.0195662
-0.00024368
0.00463042
-0.00092874
0.0125138
-0.00204102
0.0196293
-0.00355486
0.0258567
-0.00543434
0.0311584
-0.00763763
0.0355912
-0.0101229
0.0392951
-0.0128538
0.0424665
-0.0158041
0.045325
0.0480501
-0.0189578
-0.000224145
0.00485456
-0.000861586
0.0131513
-0.00190672
0.0206744
-0.00334218
0.0272922
-0.00513913
0.0329553
-0.00726085
0.0377129
-0.00966859
0.0417028
-0.0123275
0.0451254
-0.0152116
0.0482091
0.0511439
-0.0183054
-0.000203683
0.00505824
-0.000790973
0.0137386
-0.00176499
0.0216485
-0.003117
0.0286442
-0.00482557
0.0346639
-0.00685951
0.0397469
-0.00918351
0.0440268
-0.0117644
0.0477063
-0.0145769
0.0510217
0.0541747
-0.0176077
-0.0001824
0.00524064
-0.00071721
0.0142734
-0.00161637
0.0225476
-0.00287999
0.0299078
-0.0044944
0.0362783
-0.00643427
0.0416867
-0.00866801
0.0462605
-0.0111644
0.0502027
-0.0138989
0.0537561
0.0571382
-0.0168624
-0.000160406
0.00540105
-0.000640637
0.0147536
-0.00146145
0.0233684
-0.00263196
0.0310783
-0.00414655
0.0377929
-0.0059861
0.0435263
-0.00812293
0.0483974
-0.0105277
0.0526075
-0.0131756
0.0564039
0.0600285
-0.0160659
-0.000137825
0.00553888
-0.000561626
0.0151774
-0.00130089
0.0241077
-0.00237382
0.0321513
-0.00378318
0.0392023
-0.0055164
0.0452595
-0.00755009
0.0504311
-0.00985662
0.0549141
-0.012406
0.0589533
0.0628409
-0.0152184
-0.000114783
0.00565366
-0.000480577
0.0155432
-0.00113541
0.0247625
-0.00210663
0.0331225
-0.00340566
0.0405013
-0.00502716
0.046881
-0.00695302
0.0523569
-0.00915948
0.0571205
-0.011605
0.0613988
0.0655603
-0.0143244
-9.14132e-05
0.00574507
-0.000397908
0.0158497
-0.000965758
0.0253304
-0.00183144
0.0339882
-0.00301538
0.0416852
-0.00452029
0.0483859
-0.00633515
0.0541718
-0.00844835
0.0592337
-0.0108862
0.0638366
0.0684546
-0.0137805
-6.78516e-05
0.00581292
-0.000314047
0.0160959
-0.000792722
0.0258091
-0.00154932
0.0347448
-0.00261344
0.0427493
-0.00399632
0.0497688
-0.00569448
0.0558699
-0.0077023
0.0612415
-0.0100368
0.0661711
0.0711186
-0.0127007
-4.42372e-05
0.00585716
-0.000229438
0.0162811
-0.000617096
0.0261967
-0.00126133
0.035389
-0.00220085
0.0436889
-0.0034554
0.0510233
-0.00502817
0.0574427
-0.00691479
0.0631282
-0.00911702
0.0683733
0.0735918
-0.0115903
-2.07464e-05
0.00587791
-0.000144559
0.0164049
-0.000439719
0.0264919
-0.000968613
0.0359179
-0.00177883
0.0444991
-0.0028984
0.0521429
-0.00433643
0.0588807
-0.00608834
0.0648801
-0.00814148
0.0704265
0.0758854
-0.010435
1.93981e-06
0.00587597
-5.99056e-05
0.0164668
-0.000261485
0.0266934
-0.000672441
0.0363289
-0.00134888
0.0451755
-0.0023269
0.0531209
-0.00362119
0.060175
-0.00522727
0.0664862
-0.0071227
0.0723219
0.0780037
-0.00924099
2.5677e-05
0.00585029
2.41881e-05
0.0164683
-8.33544e-05
0.026801
-0.000374248
0.0366198
-0.000912811
0.0457141
-0.00174303
0.0539511
-0.00288524
0.0613172
-0.00433599
0.0679369
-0.00606764
0.0740535
0.0799503
-0.00801431
4.78502e-05
0.00580244
0.000106974
0.0164091
9.3608e-05
0.0268144
-7.55703e-05
0.036789
-0.000472729
0.0461112
-0.00114939
0.0546278
-0.00213194
0.0622998
-0.00341921
0.0692242
-0.00498201
0.0756163
0.0817263
-0.00675795
6.94612e-05
0.00573298
0.000187982
0.0162906
0.000268295
0.026734
0.000221702
0.0368355
-3.07889e-05
0.0463637
-0.000548996
0.055146
-0.00136509
0.0631159
-0.00248177
0.0703408
-0.0038711
0.0770057
0.0833303
-0.00547513
9.02682e-05
0.00564271
0.00026669
0.0161142
0.000439594
0.0265611
0.000515827
0.0367593
0.000409824
0.0464697
5.49331e-05
0.0555009
-0.000588772
0.0637596
-0.00152851
0.0712806
-0.00273982
0.078217
0.0847599
-0.00416945
0.000110099
0.00553261
0.000342539
0.0158817
0.000606327
0.0262974
0.000804883
0.0365608
0.000846942
0.0464277
0.000658484
0.0556894
0.000192677
0.0642254
-0.000564248
0.0720375
-0.00159282
0.0792456
0.0860117
-0.00284463
0.000128805
0.00540381
0.000414983
0.0155956
0.000767314
0.025945
0.00108687
0.0362412
0.0012775
0.046237
0.00125832
0.0557085
0.000974793
0.0645089
0.000406151
0.0726062
-0.000433023
0.0800847
0.0870835
-0.00150479
0.000146247
0.00525756
0.000483494
0.0152583
0.000921388
0.0255071
0.00135977
0.0358028
0.00169855
0.0458983
0.00185042
0.0555567
0.00175298
0.0646064
0.00137738
0.0729817
0.000728816
0.0807333
0.087984
-0.000171678
0.000162303
0.00509526
0.000547578
0.014873
0.00106742
0.0249873
0.0016216
0.0352486
0.00210711
0.0454127
0.00243083
0.055233
0.00252251
0.0645147
0.0023446
0.0731597
0.00189535
0.0811825
0.0886754
0.00120395
0.000176864
0.00491839
0.00060678
0.0144431
0.00120433
0.0243897
0.0018704
0.0345826
0.00250018
0.044783
0.00299552
0.0547376
0.00327852
0.0642317
0.00330264
0.0731355
0.00305752
0.0814277
0.0891685
0.00256442
0.000189841
0.00472855
0.000660697
0.0139723
0.00133112
0.0237193
0.00210432
0.0338094
0.00287485
0.0440124
0.00354045
0.054072
0.00401595
0.0637562
0.00424556
0.0729059
0.00420928
0.0814639
0.0894575
0.00392033
0.000201162
0.00452739
0.000708982
0.0134645
0.00144692
0.0229814
0.00232162
0.0329347
0.00322828
0.0431058
0.00406161
0.0532387
0.00472973
0.0630881
0.00516755
0.0724681
0.00534497
0.0812865
0.0895361
0.00526633
0.000210777
0.00431661
0.000751355
0.0129239
0.00155092
0.0221818
0.00252069
0.0319649
0.0035578
0.0420687
0.00455507
0.0522414
0.00541477
0.0622284
0.00606271
0.0718202
0.0064583
0.0808909
0.0893983
0.00659612
0.000218656
0.00409795
0.000787606
0.0123549
0.00164249
0.0213269
0.00270015
0.0309072
0.0038609
0.0409079
0.00501706
0.0510852
0.00606602
0.0611794
0.00692497
0.0709612
0.00754257
0.0802733
0.089038
0.00790284
0.000224793
0.00387316
0.0008176
0.0117621
0.00172113
0.0204234
0.00285878
0.0297696
0.00413534
0.0396314
0.00544401
0.0497766
0.00667853
0.0599449
0.00774812
0.0698916
0.00859073
0.0794307
0.0884497
0.00917904
0.000229201
0.00364396
0.000841279
0.01115
0.0017865
0.0194782
0.00299562
0.0285605
0.00437915
0.0382478
0.00583261
0.0483231
0.00724747
0.05853
0.00852596
0.0686131
0.00959546
0.0783612
0.0876285
0.0104167
0.000231916
0.00341205
0.000858664
0.0105233
0.0018384
0.0184984
0.00310998
0.0272889
0.00459069
0.0367671
0.00617988
0.0467339
0.0077683
0.0569416
0.00925234
0.0671291
0.0105493
0.0770643
0.0865705
0.0116073
0.000232993
0.00317905
0.000869854
0.00988643
0.00187684
0.0174914
0.00320141
0.0259643
0.0047687
0.0351998
0.00648328
0.0450194
0.00823683
0.0551881
0.00992131
0.0654446
0.0114446
0.075541
0.085273
0.0127422
0.000232507
0.00294654
0.000875022
0.00924392
0.00190196
0.0164645
0.00326979
0.0245965
0.00491232
0.0335573
0.00674074
0.0431909
0.00864932
0.0532795
0.0105273
0.0635667
0.0122741
0.0737941
0.0837348
0.0138122
0.000230551
0.00271599
0.000874412
0.00860006
0.00191409
0.0154248
0.00331526
0.0231953
0.00502111
0.0318514
0.0069507
0.0412613
0.00900263
0.0512275
0.0110651
0.0615042
0.0130304
0.0718288
0.0819568
0.0148085
0.00022723
0.00248876
0.000868331
0.00795895
0.0019137
0.0143795
0.00333826
0.0217708
0.0050951
0.0300946
0.00711225
0.0392442
0.00929429
0.0490455
0.0115302
0.0592683
0.013707
0.069652
0.0799416
0.0157222
0.000222664
0.0022661
0.000857142
0.00732448
0.0019014
0.0133352
0.0033395
0.0203327
0.00513475
0.0282993
0.00722508
0.0371539
0.00952261
0.046748
0.0119192
0.0568717
0.0142979
0.0672733
0.0776943
0.0165452
0.000216979
0.00204912
0.000841249
0.00670021
0.00187792
0.0122985
0.00331995
0.0188906
0.00514096
0.0264783
0.00728953
0.0350053
0.00968674
0.0443508
0.0122292
0.0543293
0.0147982
0.0647042
0.0752222
0.0172703
0.00021031
0.00183881
0.000821089
0.00608943
0.00184409
0.0112755
0.00328077
0.017454
0.00511502
0.0246441
0.00730657
0.0328137
0.00978674
0.0418706
0.0124588
0.0516572
0.0152043
0.0619587
0.0725352
0.0178913
0.000202788
0.00163602
0.000797116
0.0054951
0.0018008
0.0102719
0.00322329
0.0160315
0.00505854
0.0228088
0.00727774
0.0305945
0.0098235
0.0393249
0.0126076
0.0488731
0.0155139
0.0590524
0.0696451
0.018404
0.000194543
0.00144148
0.000769781
0.00491986
0.00174897
0.00929268
0.00314897
0.0146315
0.00497342
0.0209844
0.00720509
0.0283629
0.00979876
0.0367312
0.0126764
0.0459955
0.0157264
0.0560024
0.0665655
0.018806
0.000185695
0.00125579
0.000739517
0.00436604
0.0016895
0.00834269
0.00305929
0.0132617
0.00486167
0.019182
0.007091
0.0261335