/*--------------------------------*- C++ -*----------------------------------*\
  =========                 |
  \\      /  F ield         | OpenFOAM: The Open Source CFD Toolbox
   \\    /   O peration     | Website:  https://openfoam.org
    \\  /    A nd           | Version:  7
     \\/     M anipulation  |
\*---------------------------------------------------------------------------*/
FoamFile
{
    version     2.0;
    format      ascii;
    class       volVectorField;
    location    "5";
    object      U;
}
// * * * * * * * * * * * * * * * * * * * * * * * * * * * * * * * * * * * * * //

dimensions      [0 1 -1 0 0 0 0];

internalField   nonuniform List<vector> 
8500
(
(-0.000821497 0.000648115 4.40282e-22)
(-0.00413703 0.00140792 -1.40647e-21)
(-0.00998718 0.00178038 -1.73181e-21)
(-0.0165298 0.00187032 1.8076e-21)
(-0.0229762 0.00175583 -1.73822e-21)
(-0.0287611 0.0015079 -9.61683e-22)
(-0.0335079 0.00119214 1.69489e-21)
(-0.0370806 0.000869932 2.16131e-21)
(-0.0395394 0.000591852 -3.60023e-22)
(-0.0409998 0.000404898 1.07834e-21)
(-0.000910268 0.00192921 -4.87242e-22)
(-0.00427967 0.00418784 1.67101e-21)
(-0.0100512 0.00529209 -4.14887e-21)
(-0.0164173 0.00555377 3.9502e-21)
(-0.0226025 0.00520587 1.85699e-22)
(-0.0280513 0.00446036 3.14035e-21)
(-0.0323949 0.00351344 -5.63329e-21)
(-0.0355062 0.00254904 -8.45897e-21)
(-0.0374521 0.00171975 -1.68434e-21)
(-0.0382963 0.00116999 3.88389e-21)
(-0.0010839 0.00316515 4.53122e-22)
(-0.0045558 0.0068604 3.68584e-21)
(-0.0101672 0.00865712 9.15025e-21)
(-0.0161787 0.00906626 -8.67845e-21)
(-0.0218411 0.00847183 -2.04157e-21)
(-0.0266185 0.0072237 -1.92411e-21)
(-0.0301572 0.00564664 1.02132e-20)
(-0.0323477 0.00404663 6.52555e-21)
(-0.033272 0.00268056 1.6042e-21)
(-0.0328868 0.00180039 -1.20393e-20)
(-0.00133466 0.00432722 1.6077e-21)
(-0.00494734 0.00935702 -2.15731e-21)
(-0.0103111 0.0117816 -1.70976e-20)
(-0.0157871 0.0122985 1.58349e-21)
(-0.0206642 0.0114362 5.12863e-21)
(-0.0244361 0.00967737 -4.13736e-21)
(-0.026771 0.00747213 -1.94935e-22)
(-0.0275859 0.00524739 -1.77977e-21)
(-0.0269879 0.00336789 4.12689e-21)
(-0.0247642 0.00221073 1.19863e-20)
(-0.00165124 0.0053887 1.12422e-21)
(-0.00542753 0.0116135 -7.01861e-21)
(-0.0104474 0.0145777 1.77124e-20)
(-0.0152017 0.015148 -8.47378e-21)
(-0.0190297 0.0139891 -3.41032e-23)
(-0.0214634 0.0117092 1.26421e-20)
(-0.0221996 0.00887891 -5.97992e-21)
(-0.02119 0.00604425 6.47964e-22)
(-0.0185814 0.00368335 -2.61849e-21)
(-0.0139183 0.00233832 9.52167e-22)
(-0.00201903 0.00632548 1.35132e-20)
(-0.00596149 0.0135714 1.80899e-20)
(-0.0105288 0.016965 -4.84655e-21)
(-0.0143687 0.0175217 9.71124e-21)
(-0.0168812 0.0160313 3.21114e-21)
(-0.0176453 0.0132187 -4.72329e-21)
(-0.0163931 0.00976809 -1.91062e-21)
(-0.0131169 0.00634112 -8.38064e-21)
(-0.00801622 0.00353593 1.8979e-21)
(-0.000349849 0.00216559 -1.10998e-20)
(-0.00242048 0.00711655 -1.30383e-20)
(-0.00650672 0.0151794 -9.43348e-21)
(-0.0104975 0.0188732 8.16418e-21)
(-0.0132208 0.0193384 -1.47877e-20)
(-0.0141476 0.0174773 1.76874e-21)
(-0.0129119 0.0141202 1.86405e-20)
(-0.00928694 0.0100567 -3.50852e-21)
(-0.0033121 0.00605908 2.31183e-20)
(0.00477491 0.0028523 -5.57546e-22)
(0.0159526 0.00158247 -9.76161e-21)
(-0.00283543 0.00774435 1.11189e-20)
(-0.00701377 0.0163939 -2.20866e-20)
(-0.010285 0.0202428 -9.22019e-21)
(-0.0116778 0.0205303 1.1234e-20)
(-0.0107431 0.0182573 4.33805e-22)
(-0.00717721 0.0143464 -3.50713e-20)
(-0.000800576 0.00968193 -2.15328e-21)
(0.00829312 0.00513987 -1.84126e-20)
(0.0198251 0.00157946 -2.41968e-20)
(0.0350703 0.000510118 1.4365e-20)
(-0.00324152 0.00819486 -6.22385e-21)
(-0.00742686 0.0171801 3.28858e-21)
(-0.0098131 0.0210268 8.56686e-21)
(-0.0096469 0.0210453 -8.10437e-21)
(-0.00656704 0.0183201 -2.92536e-20)
(-0.000339495 0.0138513 1.03594e-20)
(0.00916307 0.00860438 1.50522e-21)
(0.0217872 0.00354958 2.775e-20)
(0.0372016 -0.000310886 3.71117e-20)
(0.0570493 -0.00102477 -1.6947e-20)
(-0.00361449 0.00845764 1.00112e-20)
(-0.00768454 0.0175119 1.0011e-20)
(-0.00899436 0.0211909 -1.46289e-21)
(-0.00702302 0.0208478 4.01862e-20)
(-0.00150433 0.0176345 1.77837e-20)
(0.00771931 0.0126125 1.37905e-20)
(0.0207178 0.0068124 2.00385e-20)
(0.0372738 0.00128425 -8.97665e-21)
(0.0569918 -0.00282695 -1.24015e-20)
(0.0819515 -0.00301435 -2.07547e-20)
(-0.00392845 0.00852575 -7.69769e-22)
(-0.00772035 0.0173722 -1.5898e-20)
(-0.00773307 0.0207146 -1.1988e-20)
(-0.00368985 0.0199198 -1.99506e-20)
(0.00457407 0.016191 -1.62968e-20)
(0.0171332 0.0106339 1.71852e-20)
(0.0339943 0.00432526 -1.68786e-20)
(0.0548721 -0.00162519 -1.19089e-20)
(0.0792967 -0.00594002 1.62075e-21)
(0.109856 -0.00542887 5.36722e-21)
(-0.00415603 0.00839533 -2.81503e-20)
(-0.00746352 0.0167528 1.4652e-20)
(-0.00592626 0.0195909 1.11055e-20)
(0.000478922 0.0182612 7.86909e-21)
(0.0118098 0.0140021 -1.47524e-20)
(0.0280511 0.00794636 -1.27473e-20)
(0.0491394 0.0011958 1.90627e-20)
(0.0747166 -0.00510774 -1.59748e-20)
(0.10423 -0.00957814 -1.10205e-21)
(0.140852 -0.00820518 -1.73299e-20)
(-0.0042685 0.00806572 2.39504e-20)
(-0.00683951 0.0156542 1.06354e-20)
(-0.00346499 0.0178261 5.73275e-22)
(0.00561786 0.0158894 -1.43457e-20)
(0.020355 0.0111026 9.08479e-22)
(0.0406346 0.00460832 1.70927e-20)
(0.0663144 -0.00248836 -4.95596e-21)
(0.0969561 -0.00904815 -6.18926e-21)
(0.131915 -0.013619 -1.40848e-20)
(0.175029 -0.0112392 2.61201e-20)
(-0.00423621 0.00753916 1.67377e-20)
(-0.00577105 0.014085 -2.90082e-20)
(-0.000236003 0.0154401 -2.33122e-20)
(0.0118673 0.0128391 1.05762e-20)
(0.0303693 0.00754787 2.21246e-20)
(0.0550549 0.000703834 1.94285e-20)
(0.0856921 -0.00660576 -2.1038e-20)
(0.121751 -0.0132846 4.15144e-20)
(0.162487 -0.0178802 -1.29003e-20)
(0.212468 -0.0143749 -3.11342e-20)
(-0.00402863 0.00682061 -2.47187e-20)
(-0.00417931 0.0120626 1.62641e-20)
(0.003876 0.012465 -8.31939e-21)
(0.0193699 0.00916115 9.78308e-22)
(0.0420153 0.00341199 9.58716e-21)
(0.0714878 -0.00366105 -3.05515e-20)
(0.107452 -0.0110057 2.7613e-20)
(0.149271 -0.0176105 -2.77242e-20)
(0.196086 -0.0221117 4.49056e-20)
(0.253238 -0.0173948 1.63499e-20)
(-0.00361473 0.00591792 5.5396e-21)
(-0.00198524 0.00961239 3.2205e-20)
(0.00898552 0.00894569 -8.67692e-21)
(0.0282665 0.00492088 8.8686e-21)
(0.0554529 -0.00121538 1.08225e-20)
(0.0901064 -0.0083642 -3.45675e-21)
(0.131775 -0.0155172 2.41876e-20)
(0.179692 -0.021784 1.42716e-21)
(0.232871 -0.0259957 -2.85349e-20)
(0.297394 -0.0200128 3.95584e-20)
(-0.0029635 0.004842 -1.4505e-20)
(0.000888671 0.00676847 -3.08419e-20)
(0.0152029 0.00493893 2.77408e-20)
(0.0386905 0.000197153 1.45927e-20)
(0.0708312 -0.00623268 -6.88083e-20)
(0.111071 -0.0132752 5.79408e-20)
(0.158828 -0.0199632 -5.31889e-20)
(0.213185 -0.0255452 1.05445e-21)
(0.273008 -0.0291397 -1.2299e-20)
(0.344969 -0.0218128 -3.65912e-20)
(-0.00204464 0.00360719 1.29791e-20)
(0.00451626 0.00357378 -2.11376e-21)
(0.0226305 0.00051367 -6.81051e-21)
(0.0507616 -0.00491877 -7.18379e-22)
(0.0882794 -0.0115299 -4.72037e-21)
(0.134519 -0.018265 -1.8221e-20)
(0.188757 -0.0241814 7.69414e-21)
(0.249905 -0.0286424 -1.29652e-20)
(0.316644 -0.0310149 4.11717e-21)
(0.39582 -0.0219793 1.85824e-21)
(-0.000829425 0.00223164 -2.66199e-20)
(0.00896538 8.07411e-05 -2.30562e-21)
(0.0313585 -0.0042486 3.37653e-21)
(0.0645792 -0.0103233 1.52796e-21)
(0.107896 -0.0169911 2.28236e-20)
(0.160543 -0.0232171 -6.89985e-20)
(0.221672 -0.028061 4.72292e-20)
(0.29004 -0.0308967 -3.63857e-20)
(0.364044 -0.0309617 3.06364e-20)
(0.44947 -0.0191682 3.30769e-20)
(0.000708361 0.000737668 -3.37326e-21)
(0.0142955 -0.00364813 1.59977e-20)
(0.0414607 -0.00925286 -2.0703e-20)
(0.0802148 -0.0158989 -6.68761e-21)
(0.129733 -0.0224936 1.34307e-20)
(0.18917 -0.028035 6.60496e-20)
(0.257603 -0.0315843 -1.33863e-20)
(0.333836 -0.0323659 6.59164e-21)
(0.41626 -0.0288516 -3.63677e-20)
(0.507225 -0.0136212 1.76289e-20)
(0.00259158 -0.000848016 -1.00717e-20)
(0.0205559 -0.00753979 -8.40899e-21)
(0.0529916 -0.0143892 2.30407e-21)
(0.0977067 -0.0215107 8.52784e-21)
(0.153786 -0.0278986 -2.62716e-20)
(0.220313 -0.032624 -1.08864e-20)
(0.29635 -0.0348115 -3.52703e-20)
(0.381065 -0.0335201 3.6465e-20)
(0.474357 -0.026436 4.0035e-20)
(0.578939 -0.0112794 -1.5229e-20)
(0.00483913 -0.00249439 -4.98616e-21)
(0.0277844 -0.0115106 2.11038e-20)
(0.0659851 -0.0195315 -2.40452e-20)
(0.117059 -0.027001 -2.99914e-21)
(0.179991 -0.0330344 -1.23064e-20)
(0.253771 -0.0368338 2.71914e-20)
(0.337396 -0.0377119 3.56389e-20)
(0.430184 -0.0349548 -3.51533e-20)
(0.532658 -0.0271269 3.94079e-20)
(0.644281 -0.0190307 6.36689e-21)
(0.00746569 -0.00416656 -1.43585e-20)
(0.0360068 -0.015467 -4.26904e-20)
(0.0804554 -0.0245384 4.32319e-20)
(0.138248 -0.0321883 6.39665e-21)
(0.208246 -0.0376862 9.44375e-21)
(0.289296 -0.0404144 6.28111e-21)
(0.380222 -0.0399561 2.76428e-20)
(0.480136 -0.0360007 2.07033e-20)
(0.589209 -0.0280391 -7.61344e-20)
(0.703466 -0.0244531 -3.88965e-20)
(0.0104817 -0.00582652 -4.87556e-20)
(0.0452374 -0.0193075 1.04942e-20)
(0.0963983 -0.0292555 -2.47164e-20)
(0.161225 -0.0368725 4.81346e-21)
(0.238427 -0.0416088 8.07494e-21)
(0.326652 -0.0430582 -5.98315e-20)
(0.424438 -0.041098 2.74829e-20)
(0.530457 -0.0358071 -1.87409e-20)
(0.644071 -0.0272623 2.03343e-20)
(0.759102 -0.0252509 -8.00016e-21)
(0.0138936 -0.00743406 1.78255e-20)
(0.0554785 -0.022925 2.06695e-20)
(0.113792 -0.0335209 -1.31963e-21)
(0.185923 -0.0408439 -6.93222e-21)
(0.2704 -0.0445477 1.24079e-22)
(0.365616 -0.0444559 3.28774e-22)
(0.469751 -0.0407362 -4.15989e-20)
(0.580929 -0.0338049 5.73447e-21)
(0.697615 -0.0241169 5.58346e-20)
(0.812544 -0.0218454 2.65982e-20)
(0.0177037 -0.00894763 -1.2057e-20)
(0.0667207 -0.0262093 -9.47103e-21)
(0.132595 -0.0371693 4.21452e-20)
(0.212252 -0.0438931 1.04183e-21)
(0.304009 -0.046256 -1.89517e-20)
(0.405965 -0.0443254 5.20213e-20)
(0.515893 -0.0385514 1.18677e-20)
(0.631347 -0.0296442 9.37625e-22)
(0.749965 -0.0183344 -2.42557e-20)
(0.864065 -0.014638 -3.38806e-20)
(0.0219102 -0.010325 2.52586e-20)
(0.0789423 -0.0290493 -7.54115e-21)
(0.15275 -0.0400374 -4.51976e-21)
(0.240098 -0.0458176 -1.82903e-20)
(0.339074 -0.0465055 3.05476e-20)
(0.447453 -0.0424248 -1.54434e-20)
(0.562581 -0.0343048 -1.80232e-20)
(0.68146 -0.0231232 -4.20631e-21)
(0.801015 -0.00984315 -1.429e-20)
(0.913554 -0.00403457 1.65957e-20)
(0.026507 -0.0115238 -9.37892e-21)
(0.0921082 -0.0313356 -5.90223e-20)
(0.174175 -0.0419671 6.37249e-21)
(0.269324 -0.0464282 2.2504e-20)
(0.375392 -0.0450937 1.6817e-20)
(0.489812 -0.0385582 -5.75305e-20)
(0.609503 -0.0278337 3.83355e-20)
(0.730962 -0.0141553 -1.80083e-20)
(0.850531 0.0012904 2.8685e-20)
(0.960758 0.00952536 8.25624e-21)
(0.0314832 -0.012502 -1.01474e-20)
(0.10617 -0.0329614 2.10676e-20)
(0.19677 -0.0428091 2.81754e-20)
(0.299763 -0.0455535 -2.09197e-20)
(0.412725 -0.0418487 7.95821e-21)
(0.53274 -0.0325778 -5.07567e-20)
(0.656315 -0.0190444 -9.6987e-21)
(0.779507 -0.00274201 8.66741e-21)
(0.898207 0.0149135 -2.19314e-20)
(1.00537 0.0256081 -2.36309e-20)
(0.0368229 -0.0132181 -1.29339e-20)
(0.121064 -0.0338246 -4.39303e-21)
(0.220412 -0.0424256 -5.08019e-20)
(0.331223 -0.043043 -8.16585e-21)
(0.450809 -0.0366317 -8.46551e-22)
(0.575909 -0.0243829 3.08932e-21)
(0.702649 -0.00790415 5.33465e-21)
(0.826719 0.0110475 -2.75797e-20)
(0.943704 0.0308219 5.17535e-22)
(1.04707 0.0438011 1.64949e-20)
(0.0425043 -0.0136318 -3.26257e-21)
(0.136712 -0.0338291 1.72576e-20)
(0.244954 -0.0406922 2.48563e-20)
(0.363485 -0.0387695 1.60927e-20)
(0.489353 -0.0293389 -4.94775e-21)
(0.618967 -0.0139192 -4.26006e-21)
(0.748117 0.00556593 4.42469e-20)
(0.872216 0.0270924 6.47559e-21)
(0.986682 0.0487787 2.20335e-20)
(1.08558 0.0637165 -9.9072e-21)
(0.0484996 -0.0137042 3.19713e-20)
(0.15302 -0.0328861 2.2143e-20)
(0.270229 -0.0375006 -2.32908e-20)
(0.396306 -0.0326316 -4.77075e-21)
(0.528043 -0.019902 2.56789e-21)
(0.661546 -0.00117619 -1.0024e-20)
(0.792328 0.0212976 -2.28287e-20)
(0.915621 0.0452311 -3.81984e-21)
(1.02683 0.0685277 2.02394e-22)
(1.12067 0.0849924 1.08785e-20)
(0.0547748 -0.0133988 3.63202e-21)
(0.169879 -0.0309158 -1.20438e-20)
(0.29605 -0.0327601 2.95408e-20)
(0.429422 -0.0245552 1.99461e-20)
(0.566547 -0.00828882 5.68915e-22)
(0.70327 0.0138151 1.55501e-20)
(0.834894 0.0391813 2.36018e-21)
(0.956581 0.0652702 -1.83086e-20)
(1.06385 0.0898014 1.64259e-20)
(1.15217 0.107294 1.51751e-22)
(0.061289 -0.0126816 -2.59106e-20)
(0.187164 -0.0278492 -8.1512e-21)
(0.322211 -0.0263995 -7.74046e-21)
(0.462548 -0.0144946 -1.38954e-20)
(0.604522 0.00549729 3.36382e-21)
(0.74376 0.0309843 1.03845e-22)
(0.875443 0.0590717 1.27502e-20)
(0.994771 0.0869924 -2.11568e-21)
(1.09753 0.112328 -1.69287e-20)
(1.17994 0.130314 -1.64551e-20)
(0.0679951 -0.0115226 2.05686e-21)
(0.204738 -0.0236295 1.29553e-20)
(0.348487 -0.0183694 6.42334e-21)
(0.49539 -0.00243398 -2.12877e-20)
(0.641618 0.0214174 -1.20637e-21)
(0.782648 0.050225 -1.03244e-20)
(0.913625 0.0807925 2.87334e-22)
(1.02991 0.110162 5.45159e-21)
(1.12767 0.135837 -6.45354e-21)
(1.20394 0.153773 1.86618e-20)
(0.0748393 -0.00989601 4.72898e-21)
(0.222448 -0.0182138 -1.24369e-20)
(0.374642 -0.00864321 -3.06252e-20)
(0.52764 0.011612 2.96558e-20)
(0.677487 0.0393981 -2.38173e-21)
(0.819578 0.0713973 7.42612e-21)
(0.949123 0.104142 -1.15456e-21)
(1.06175 0.134532 8.14449e-21)
(1.15414 0.160062 -6.00454e-22)
(1.22415 0.177418 -1.44552e-20)
(0.0817623 -0.00778148 -9.42576e-21)
(0.240133 -0.0115748 1.59358e-20)
(0.40043 0.00278088 1.38575e-20)
(0.55899 0.0275979 -2.0963e-20)
(0.711788 0.059333 -3.68359e-21)
(0.854218 0.0943313 1.50651e-21)
(0.981654 0.128896 1.63889e-20)
(1.09012 0.159848 9.27125e-22)
(1.17687 0.184748 3.61065e-21)
(1.24062 0.201022 -8.04943e-21)
(0.0886993 -0.00516483 7.12413e-21)
(0.257621 -0.00370261 -6.87837e-21)
(0.425595 0.0158793 -5.99228e-21)
(0.589132 0.0454473 1.10327e-20)
(0.744194 0.081084 4.11348e-21)
(0.886262 0.118831 3.35598e-21)
(1.01098 0.154817 -1.66768e-20)
(1.11485 0.185853 -6.14791e-21)
(1.19582 0.20965 -5.78515e-21)
(1.25342 0.224383 2.64893e-21)
(0.0955813 -0.00203878 -3.40467e-21)
(0.274733 0.00539476 -7.67501e-23)
(0.449883 0.030602 1.13243e-20)
(0.617763 0.0650536 -4.44615e-21)
(0.774395 0.104484 -2.07806e-21)
(0.915435 0.144677 -1.47955e-21)
(1.0369 0.181652 4.05582e-21)
(1.13586 0.212291 7.47166e-21)
(1.21101 0.234535 -2.39846e-22)
(1.26267 0.247321 2.9731e-21)
(0.102336 0.00159632 2.37423e-21)
(0.291288 0.0156898 -7.22702e-22)
(0.473037 0.0468726 -1.99787e-21)
(0.644592 0.0862811 -1.92761e-21)
(0.802106 0.12934 1.89883e-21)
(0.9415 0.171631 1.61536e-21)
(1.05925 0.209145 -1.58501e-21)
(1.1531 0.238911 6.28753e-22)
(1.22249 0.259185 9.22048e-22)
(1.26851 0.269674 -1.26671e-21)
(0.108887 0.00573201 1.2166e-21)
(0.307103 0.0271351 3.8844e-22)
(0.49481 0.064588 -2.38443e-21)
(0.669346 0.108966 -2.06536e-21)
(0.827069 0.155435 2.34182e-21)
(0.964257 0.199441 4.91503e-22)
(1.07794 0.237031 -1.29616e-21)
(1.16655 0.265469 1.28188e-21)
(1.23035 0.283399 7.5683e-22)
(1.27109 0.2913 -8.97917e-22)
(0.115161 0.0103513 -4.95209e-22)
(0.321997 0.0396633 1.03211e-21)
(0.514962 0.08362 7.19223e-21)
(0.691769 0.132921 -3.47357e-21)
(0.849059 0.18253 -1.9208e-21)
(0.983545 0.227844 -2.36817e-21)
(1.09287 0.265048 5.19089e-21)
(1.17625 0.291729 3.7251e-21)
(1.23469 0.306987 3.13758e-21)
(1.27058 0.312072 1.76671e-21)
(0.12108 0.0154285 9.25911e-21)
(0.335795 0.0531872 -5.49739e-21)
(0.533268 0.103816 -6.85744e-21)
(0.711634 0.157932 1.00289e-20)
(0.867884 0.210373 5.81666e-21)
(0.999244 0.256567 -4.41505e-22)
(1.10404 0.292937 -8.67014e-21)
(1.18225 0.317468 -6.68828e-21)
(1.23565 0.329775 -7.35195e-21)
(1.26716 0.331875 4.48396e-21)
(0.12657 0.0209292 -1.23757e-20)
(0.34833 0.0676001 1.25022e-20)
(0.549523 0.125 1.52975e-20)
(0.72874 0.183769 -1.66602e-20)
(0.883389 0.238697 -6.44951e-21)
(1.01127 0.285337 4.58355e-21)
(1.11144 0.320442 9.14541e-21)
(1.18465 0.342471 1.53576e-21)
(1.23339 0.351601 -2.73002e-22)
(1.26102 0.350606 -6.08859e-21)
(0.131562 0.0268103 -1.66146e-21)
(0.359448 0.0827775 -1.71995e-20)
(0.563541 0.146977 -1.98236e-20)
(0.742916 0.210182 2.46927e-20)
(0.895457 0.267225 -3.03231e-21)
(1.01959 0.313879 6.35991e-21)
(1.11512 0.347317 1.4146e-21)
(1.18356 0.366537 -4.14151e-21)
(1.22806 0.372318 2.32475e-21)
(1.25235 0.368171 -2.57314e-22)
(0.135987 0.0330207 3.38014e-21)
(0.369007 0.0985779 1.03381e-20)
(0.575162 0.169534 6.48697e-21)
(0.754027 0.23691 -5.47109e-21)
(0.904009 0.295676 -9.38813e-21)
(1.0242 0.341922 -1.00652e-20)
(1.11515 0.373324 -2.23189e-21)
(1.17911 0.389479 6.27923e-21)
(1.21985 0.391786 -1.38942e-21)
(1.24132 0.384486 3.32113e-21)
(0.139784 0.0395014 -1.20901e-20)
(0.376884 0.114845 -1.25889e-20)
(0.584252 0.192442 -2.09189e-21)
(0.76197 0.263682 -2.58074e-21)
(0.909003 0.323766 -6.84463e-21)
(1.02513 0.369199 4.84757e-21)
(1.11162 0.398236 -9.43612e-22)
(1.17146 0.411119 -5.64418e-21)
(1.20892 0.409878 5.25723e-21)
(1.22813 0.399469 -7.65654e-21)
(0.1429 0.0461869 3.34445e-21)
(0.382975 0.13141 1.06184e-20)
(0.590709 0.215462 9.99901e-21)
(0.766682 0.290219 1.21065e-20)
(0.910437 0.351214 3.67434e-22)
(1.02244 0.395454 1.33561e-20)
(1.10468 0.421842 9.37463e-22)
(1.16077 0.431294 -1.85163e-20)
(1.19546 0.426473 1.38777e-20)
(1.2129 0.413044 5.39016e-21)
(0.145288 0.0530053 7.57229e-21)
(0.387196 0.148094 1.79559e-20)
(0.594459 0.238346 -2.76298e-21)
(0.768133 0.316244 -1.49053e-20)
(0.908343 0.377744 7.69409e-21)
(1.01623 0.420441 -9.0739e-21)
(1.09445 0.443942 -1.31292e-20)
(1.14722 0.449859 -1.04018e-21)
(1.17963 0.441479 -1.13288e-20)
(1.19572 0.425111 4.45602e-21)
(0.146911 0.0598798 3.15743e-21)
(0.389487 0.164709 2.06139e-21)
(0.595462 0.260842 2.41556e-20)
(0.76633 0.341476 5.40357e-21)
(0.902792 0.403086 -5.07564e-21)
(1.00663 0.443926 -3.09645e-21)
(1.08112 0.464351 1.96197e-20)
(1.13099 0.466683 1.72784e-20)
(1.16162 0.454847 9.03424e-21)
(1.17692 0.435533 -1.17097e-21)
(0.14774 0.0667301 5.80986e-22)
(0.389811 0.181064 -1.78961e-20)
(0.59371 0.282696 -2.7825e-20)
(0.761317 0.365645 1.03992e-21)
(0.893885 0.426984 7.79438e-21)
(0.993786 0.465692 -1.09971e-20)
(1.06486 0.482899 -2.8244e-20)
(1.11226 0.481635 -9.03592e-21)
(1.14161 0.466451 -5.47519e-22)
(1.15671 0.444392 4.20215e-21)
(0.147759 0.0734731 -5.13705e-21)
(0.388156 0.196964 1.37312e-20)
(0.589228 0.303657 1.61838e-20)
(0.753173 0.388483 -1.70419e-20)
(0.881756 0.449193 2.88028e-21)
(0.977886 0.485536 2.63263e-20)
(1.04587 0.499436 -5.90585e-21)
(1.09123 0.494608 5.71133e-21)
(1.11976 0.476192 -2.671e-21)
(1.13513 0.451588 -3.52563e-21)
(0.14696 0.0800245 -1.04028e-20)
(0.384535 0.212215 -2.19765e-20)
(0.582071 0.323479 -5.00141e-21)
(0.742008 0.409739 9.32627e-21)
(0.86657 0.469484 1.04976e-20)
(0.959122 0.503275 -2.56082e-20)
(1.02436 0.513825 1.53866e-20)
(1.0681 0.505512 -8.1172e-21)
(1.09623 0.484006 6.65505e-21)
(1.11231 0.457036 3.65684e-22)
(0.145349 0.086301 7.99428e-21)
(0.378983 0.226626 1.19284e-21)
(0.572326 0.341923 -1.90069e-21)
(0.727966 0.42917 -1.07347e-20)
(0.848514 0.487646 7.61042e-21)
(0.937716 0.518742 2.52117e-21)
(1.00057 0.525949 -7.87326e-21)
(1.04307 0.514268 1.98429e-21)
(1.07117 0.489837 -1.41158e-21)
(1.08838 0.460666 -3.95538e-23)
(0.142938 0.0922203 -1.64409e-21)
(0.37156 0.240015 -1.99632e-21)
(0.560111 0.358763 8.50737e-21)
(0.711216 0.446553 4.95906e-21)
(0.827804 0.503486 -8.85131e-21)
(0.91391 0.531791 1.27035e-20)
(0.974716 0.53571 1.43571e-21)
(1.01633 0.520816 2.03966e-21)
(1.04473 0.493641 1.94924e-21)
(1.06344 0.462408 5.01169e-22)
(0.139744 0.0976953 9.65151e-21)
(0.362357 0.252208 9.49788e-21)
(0.545571 0.373788 -1.80302e-21)
(0.691957 0.461682 -1.79379e-21)
(0.80468 0.516831 -3.43052e-21)
(0.887958 0.542295 -2.11749e-21)
(0.94706 0.543028 1.88046e-21)
(0.988097 0.525116 1.05375e-21)
(1.01703 0.49539 -1.42622e-21)
(1.03757 0.462189 -4.00142e-21)
(0.135813 0.102642 -1.3607e-21)
(0.35148 0.263029 2.06912e-22)
(0.52887 0.386804 -8.39496e-21)
(0.67041 0.474371 4.17861e-21)
(0.779396 0.527529 1.67164e-23)
(0.860133 0.550146 -1.23382e-21)
(0.917865 0.54784 1.4595e-21)
(0.958595 0.527146 1.03999e-21)
(0.988188 0.495072 -3.688e-21)
(1.01082 0.459924 4.97111e-21)
(0.131194 0.107 -3.65453e-21)
(0.339044 0.272326 -1.35773e-21)
(0.510201 0.39763 1.09125e-21)
(0.646817 0.484453 -5.9717e-22)
(0.752227 0.535447 -2.91507e-21)
(0.83072 0.555254 2.27966e-21)
(0.887412 0.5501 2.17703e-21)
(0.92806 0.526904 -8.60336e-21)
(0.95831 0.492692 2.13749e-20)
(0.983234 0.455485 9.41239e-21)
(0.125935 0.1107 -1.22587e-21)
(0.325196 0.279964 -1.82689e-21)
(0.489776 0.406108 9.33713e-22)
(0.621436 0.491786 -1.56594e-21)
(0.723455 0.540474 3.78857e-22)
(0.800013 0.557547 -2.39278e-21)
(0.855999 0.54978 -7.33987e-21)
(0.896761 0.524422 3.90284e-21)
(0.927557 0.488303 -8.1688e-22)
(0.954744 0.448754 -4.21186e-21)
(0.120096 0.113678 -1.68831e-21)
(0.310093 0.285821 3.92473e-22)
(0.467823 0.412103 -1.93219e-21)
(0.594537 0.496249 2.09048e-21)
(0.693374 0.542518 5.55929e-21)
(0.768314 0.556965 4.15129e-21)
(0.823934 0.54686 1.35534e-20)
(0.865038 0.519751 -1.03771e-20)
(0.89635 0.482133 -2.08793e-20)
(0.925119 0.44014 9.20471e-21)
(0.113746 0.115882 -3.75223e-21)
(0.293909 0.289791 -3.59601e-21)
(0.444581 0.415502 1.38005e-21)
(0.566403 0.497745 9.71215e-21)
(0.662278 0.541511 -1.15305e-20)
(0.735915 0.553459 -1.67345e-20)
(0.79152 0.541299 -5.19686e-21)
(0.833334 0.512868 -1.28512e-21)
(0.865632 0.474467 2.77916e-20)
(0.89401 0.430121 -6.82828e-21)
(0.10696 0.117266 1.11107e-20)
(0.276827 0.291787 -9.5991e-22)
(0.420304 0.416217 -1.67777e-21)
(0.537318 0.496205 2.11698e-22)
(0.630458 0.537404 -6.77545e-21)
(0.70309 0.546998 3.13032e-20)
(0.759017 0.533035 -2.22136e-20)
(0.802055 0.503519 2.79373e-20)
(0.836393 0.464795 -2.07124e-20)
(0.866973 0.420575 -2.82566e-20)
(0.0998191 0.117793 -5.32279e-21)
(0.25904 0.291744 2.10685e-21)
(0.395251 0.414183 -7.85938e-22)
(0.507574 0.491586 1.10851e-20)
(0.598204 0.53018 -4.17301e-21)
(0.670095 0.537582 6.46069e-21)
(0.726606 0.522085 1.3157e-20)
(0.771131 0.491732 -7.21365e-21)
(0.807571 0.452838 -1.96527e-20)
(0.839969 0.40916 2.84253e-20)
(0.0924083 0.117435 1.15749e-20)
(0.240747 0.289615 1.59415e-20)
(0.369688 0.409367 -1.33491e-20)
(0.477464 0.483874 -1.13647e-20)
(0.565804 0.519849 3.46404e-20)
(0.637189 0.525244 -3.56282e-20)
(0.69449 0.508505 4.42954e-20)
(0.740657 0.47764 -1.18366e-20)
(0.77919 0.438876 1.33129e-20)
(0.813369 0.396081 2.53945e-20)
(0.0848157 0.116174 -5.35576e-21)
(0.222155 0.285377 -1.45936e-20)
(0.343884 0.401757 -6.29962e-21)
(0.447281 0.473081 -3.85091e-21)
(0.533547 0.506445 3.54188e-21)
(0.604634 0.510035 -9.04072e-21)
(0.662893 0.492364 -1.32774e-20)
(0.710817 0.461339 -3.02939e-20)
(0.751474 0.423074 3.15048e-20)
(0.78752 0.381483 -1.06031e-20)
(0.0771316 0.114002 2.1011e-20)
(0.203469 0.279026 -1.4835e-21)
(0.318109 0.391368 -8.26315e-21)
(0.417318 0.459244 1.18113e-20)
(0.501717 0.490025 -2.12759e-20)
(0.572691 0.492027 5.80919e-20)
(0.632044 0.473737 -3.23925e-20)
(0.681808 0.442904 3.11428e-20)
(0.724612 0.40549 -6.02881e-20)
(0.762592 0.365387 -1.66776e-20)
(0.0694473 0.110922 -8.45204e-21)
(0.184898 0.270582 2.22392e-20)
(0.29263 0.378244 5.74101e-21)
(0.387863 0.442428 -1.01954e-20)
(0.470594 0.470668 -1.83338e-20)
(0.541614 0.471304 -8.50964e-22)
(0.602167 0.452708 1.08229e-20)
(0.653822 0.422406 -2.78423e-20)
(0.69878 0.386168 1.46467e-20)
(0.738732 0.347801 1.87665e-21)
(0.0618538 0.106943 -3.35831e-20)
(0.166647 0.260084 -8.96308e-21)
(0.267712 0.362449 -2.328e-21)
(0.359196 0.422718 2.63308e-20)
(0.440449 0.448472 -2.52699e-20)
(0.511649 0.447966 -6.97008e-21)
(0.573477 0.429369 -4.41991e-21)
(0.627046 0.399923 8.66383e-21)
(0.674141 0.365162 -1.15386e-20)
(0.716073 0.32875 -1.89312e-20)
(0.054441 0.102089 2.80037e-20)
(0.148916 0.24759 -1.60047e-20)
(0.243607 0.344074 9.34323e-22)
(0.331587 0.400225 -3.98483e-20)
(0.411543 0.423557 4.46465e-20)
(0.483031 0.422132 -1.48371e-20)
(0.546178 0.403828 9.3562e-21)
(0.601653 0.375545 8.63696e-21)
(0.650843 0.342536 2.63614e-20)
(0.694736 0.308276 -1.1228e-20)
(0.047296 0.0963901 -1.12963e-20)
(0.1319 0.23318 3.34382e-20)
(0.220563 0.323231 1.87058e-20)
(0.305296 0.375082 3.07954e-20)
(0.384121 0.396061 -7.52623e-21)
(0.455982 0.393932 3.10642e-21)
(0.520461 0.376202 2.676e-20)
(0.577805 0.349369 6.27532e-21)
(0.629021 0.318366 6.15926e-22)
(0.674825 0.286441 -1.3444e-20)
(0.040503 0.0898852 -2.43805e-20)
(0.115783 0.216953 -1.88213e-21)
(0.198811 0.300055 -1.06676e-20)
(0.280565 0.347442 -4.90256e-20)
(0.358415 0.36614 -4.95304e-20)
(0.430708 0.363517 8.70173e-21)
(0.496503 0.346623 -2.26789e-20)
(0.555649 0.321506 1.5359e-20)
(0.608798 0.292742 8.84062e-21)
(0.656434 0.263319 1.92914e-20)
(0.0341414 0.082623 3.46049e-20)
(0.100741 0.199022 -2.99041e-20)
(0.178571 0.274702 -1.51705e-20)
(0.257622 0.317478 2.83672e-20)
(0.33464 0.333968 3.35281e-20)
(0.407399 0.331047 -1.16733e-20)
(0.474468 0.315235 -1.54908e-21)
(0.53532 0.29208 -4.75774e-20)
(0.590282 0.265766 -2.83802e-20)
(0.639647 0.238999 1.14277e-20)
(0.0282856 0.0746599 -1.96672e-20)
(0.0869355 0.179521 8.78591e-21)
(0.160043 0.247347 3.24815e-20)
(0.236678 0.285384 -1.48555e-20)
(0.312994 0.299737 1.18258e-21)
(0.38623 0.296699 4.70686e-20)
(0.454503 0.282195 2.30036e-21)
(0.51694 0.261224 4.55189e-20)
(0.573574 0.237549 2.00914e-20)
(0.624537 0.21358 -3.35089e-20)
(0.0230037 0.0660597 2.63702e-20)
(0.0745148 0.158597 3.07989e-21)
(0.143411 0.218181 2.12923e-21)
(0.217921 0.251366 3.0416e-20)
(0.293653 0.263651 -4.28957e-21)
(0.367357 0.260664 -2.94762e-20)
(0.436739 0.247669 1.53687e-20)
(0.500617 0.229081 -2.57739e-20)
(0.55876 0.208215 -1.13579e-20)
(0.611171 0.187171 1.21947e-20)
(0.0183572 0.0568929 -1.64637e-20)
(0.063612 0.136409 -3.31036e-20)
(0.128841 0.187412 7.79254e-21)
(0.201521 0.215651 -1.59909e-20)
(0.276775 0.22593 -1.0236e-20)
(0.35092 0.223141 2.62162e-20)
(0.421294 0.211834 -6.66068e-21)
(0.486447 0.195805 6.59822e-21)
(0.545917 0.177895 -8.49834e-21)
(0.599605 0.15989 1.76002e-20)
(0.0143999 0.0472361 5.86206e-21)
(0.0543434 0.113132 2.21789e-20)
(0.116474 0.155263 -3.16102e-20)
(0.187626 0.178475 1.56378e-20)
(0.262498 0.186804 -7.51198e-21)
(0.337036 0.184342 -2.24326e-20)
(0.408268 0.174877 1.94066e-20)
(0.474512 0.161555 4.38208e-21)
(0.535113 0.146728 -6.43299e-22)
(0.58989 0.131859 -2.05521e-20)
(0.0111777 0.037171 1.86576e-21)
(0.0468076 0.0889482 7.01798e-21)
(0.106433 0.121968 2.84672e-20)
(0.176358 0.140088 -5.71005e-21)
(0.250937 0.146515 -4.75574e-21)
(0.325808 0.144487 1.86059e-21)
(0.397745 0.136991 8.36833e-22)
(0.464881 0.1265 7.66039e-21)
(0.526402 0.114859 -1.06377e-20)
(0.582067 0.103208 -7.11132e-21)
(0.00872797 0.0267838 -4.73747e-21)
(0.0410848 0.0640504 -8.59526e-21)
(0.0988159 0.0877713 -2.20632e-20)
(0.167819 0.100749 1.16274e-20)
(0.242184 0.105312 1.0018e-20)
(0.317316 0.103802 4.33158e-22)
(0.389794 0.0983756 -1.89358e-20)
(0.45761 0.0908124 -8.92016e-21)
(0.51983 0.0824391 7.45769e-21)
(0.576171 0.0740703 8.41308e-21)
(0.00707889 0.016164 8.247e-22)
(0.0372356 0.0386377 -1.78112e-21)
(0.093696 0.0529244 4.18818e-21)
(0.162084 0.0607253 -2.96979e-21)
(0.23631 0.0634514 -2.76245e-21)
(0.31162 0.0625208 -1.98004e-21)
(0.384464 0.059236 3.88622e-21)
(0.452739 0.0546702 1.5673e-20)
(0.51543 0.0496228 2.39128e-21)
(0.572226 0.0445828 -4.49074e-21)
(0.00624957 0.00540366 1.01149e-21)
(0.0353008 0.0129139 -2.94834e-21)
(0.0911235 0.0176851 -3.45821e-21)
(0.159203 0.0202877 -2.51613e-21)
(0.233361 0.0211945 2.53789e-21)
(0.308762 0.0208802 1.21408e-21)
(0.381791 0.0197804 -1.28113e-21)
(0.450296 0.0182538 -6.20081e-21)
(0.513224 0.0165675 2.1518e-21)
(0.570249 0.0148843 -2.12548e-21)
(0.00624957 -0.00540369 -1.01149e-21)
(0.0353008 -0.0129139 2.94834e-21)
(0.0911235 -0.0176853 3.45821e-21)
(0.159203 -0.0202879 -3.47442e-21)
(0.233361 -0.0211948 3.23128e-21)
(0.308762 -0.0208805 1.71952e-21)
(0.381791 -0.0197807 -2.91726e-21)
(0.450296 -0.0182541 -3.58886e-21)
(0.513224 -0.0165677 5.63563e-22)
(0.570249 -0.0148846 -1.66354e-21)
(0.00707889 -0.016164 1.09934e-21)
(0.0372356 -0.0386377 -3.51807e-21)
(0.093696 -0.0529245 8.16551e-21)
(0.162084 -0.0607255 -7.51793e-21)
(0.23631 -0.0634517 -3.66441e-22)
(0.31162 -0.0625211 -5.60098e-21)
(0.384464 -0.0592363 9.66726e-21)
(0.452739 -0.0546705 1.39426e-20)
(0.51543 -0.049623 2.64032e-21)
(0.572226 -0.044583 -5.96425e-21)
(0.00872797 -0.0267838 -9.5572e-22)
(0.0410848 -0.0640505 -7.47299e-21)
(0.0988159 -0.0877715 -1.79477e-20)
(0.167819 -0.10075 1.62736e-20)
(0.242184 -0.105312 3.56999e-21)
(0.317316 -0.103802 3.34689e-21)
(0.389794 -0.0983759 -1.73759e-20)
(0.45761 -0.0908127 -1.08321e-20)
(0.51983 -0.0824394 -2.55968e-21)
(0.576171 -0.0740705 1.84269e-20)
(0.0111777 -0.037171 -3.4127e-21)
(0.0468077 -0.0889483 4.5175e-21)
(0.106433 -0.121968 3.27019e-20)
(0.176358 -0.140088 -3.05195e-21)
(0.250937 -0.146515 -9.25684e-21)
(0.325808 -0.144487 7.07154e-21)
(0.397745 -0.136991 5.17648e-22)
(0.464881 -0.1265 2.80859e-21)
(0.526403 -0.114859 -6.45858e-21)
(0.582068 -0.103208 -1.80193e-20)
(0.0143999 -0.0472361 -2.39169e-21)
(0.0543434 -0.113132 1.33507e-20)
(0.116474 -0.155263 -3.3014e-20)
(0.187626 -0.178475 1.5014e-20)
(0.262498 -0.186804 1.43304e-22)
(0.337036 -0.184342 -2.12172e-20)
(0.408268 -0.174877 9.92558e-21)
(0.474512 -0.161555 -1.02851e-21)
(0.535113 -0.146728 4.16217e-21)
(0.58989 -0.131859 -1.32849e-21)
(0.0183572 -0.0568929 -2.70153e-20)
(0.063612 -0.136409 -3.3876e-20)
(0.128841 -0.187412 9.03568e-21)
(0.201521 -0.215651 -1.71841e-20)
(0.276775 -0.22593 -5.15547e-21)
(0.35092 -0.223141 8.05138e-21)
(0.421294 -0.211834 3.13481e-21)
(0.486447 -0.195805 1.25894e-20)
(0.545917 -0.177895 -2.82645e-21)
(0.599605 -0.15989 1.6207e-20)
(0.0230037 -0.0660597 2.58597e-20)
(0.0745148 -0.158597 1.73084e-20)
(0.143411 -0.218181 -1.38511e-20)
(0.217921 -0.251366 2.39771e-20)
(0.293653 -0.263651 -2.2244e-21)
(0.367358 -0.260664 -2.87945e-20)
(0.436739 -0.247669 5.30034e-21)
(0.500617 -0.229082 -3.43729e-20)
(0.55876 -0.208215 1.27162e-21)
(0.611171 -0.187172 1.37871e-20)
(0.0282856 -0.07466 -1.98378e-20)
(0.0869355 -0.179521 3.71266e-20)
(0.160043 -0.247347 1.46467e-20)