/*--------------------------------*- C++ -*----------------------------------*\
  =========                 |
  \\      /  F ield         | OpenFOAM: The Open Source CFD Toolbox
   \\    /   O peration     | Website:  https://openfoam.org
    \\  /    A nd           | Version:  7
     \\/     M anipulation  |
\*---------------------------------------------------------------------------*/
FoamFile
{
    version     2.0;
    format      ascii;
    class       surfaceScalarField;
    location    "280";
    object      phi;
}
// * * * * * * * * * * * * * * * * * * * * * * * * * * * * * * * * * * * * * //

dimensions      [0 3 -1 0 0 0 0];

internalField   nonuniform List<scalar> 
4137
(
0.000541937
0.000126706
0.000415231
-0.00058975
0.000154421
0.00026081
-0.00127061
0.000188238
7.25722e-05
0.000975791
-0.00205816
-0.00680734
0.000227205
-0.000154632
0.00113149
-0.00296244
0.00298385
-0.0086597
-0.017564
0.00027035
-0.000424983
0.00129807
-0.00399016
0.00334157
-0.0107032
0.00650633
-0.0207288
0.0105099
-0.0333222
-0.0467296
0.00031674
-0.000741723
0.00147105
-0.00514447
0.00369382
-0.012926
0.00699197
-0.0240269
0.0109417
-0.0372719
0.0148535
-0.0506415
-0.0624843
0.000365465
-0.00110719
0.00164577
-0.00642478
0.00402763
-0.0153078
0.00740089
-0.0274002
0.0112206
-0.0410916
0.0148037
-0.0542247
0.0177218
-0.0654024
-0.0743868
0.000415605
-0.00152279
0.00181742
-0.0078266
0.00433052
-0.0178209
0.00771746
-0.0307871
0.011344
-0.0447182
0.0145735
-0.0574541
0.0170911
-0.0679199
0.018906
-0.0762017
0.020219
-0.0829798
-0.0891375
0.000466177
-0.00198897
0.00198106
-0.00934148
0.00459125
-0.0204311
0.00793187
-0.0341277
0.0113173
-0.0481036
0.0141846
-0.0603215
0.0163278
-0.070063
0.0178295
-0.0777035
0.0189088
-0.0840591
-0.0899744
0.0197457
0.000516117
-0.00250509
0.00213174
-0.0109571
0.00480045
-0.0230998
0.00804006
-0.0373673
0.011151
-0.0512146
0.0136602
-0.0628307
0.0154592
-0.0718619
0.0166848
-0.0789291
0.0175602
-0.0849345
-0.0906607
0.0182466
0.000564277
-0.00306936
0.00226473
-0.0126576
0.00495123
-0.0257863
0.008043
-0.0404591
0.0108595
-0.0540311
0.0130231
-0.0649944
0.0145092
-0.073348
0.0154915
-0.0799113
0.0161863
-0.0856294
-0.091208
0.0167336
0.000609465
-0.00367883
0.00237572
-0.0144238
0.00503941
-0.02845
0.00794567
-0.0433654
0.0104584
-0.0565438
0.0122947
-0.0668307
0.0134983
-0.0745515
0.0142648
-0.0806779
0.0147968
-0.0861614
-0.0916238
0.0152126
0.000650489
-0.00432932
0.00246114
-0.0162345
0.00506355
-0.0310524
0.00775591
-0.0460577
0.00996431
-0.0587522
0.0114943
-0.0683607
0.0124433
-0.0755005
0.0130169
-0.0812515
0.0133993
-0.0865438
-0.0919126
0.0136881
0.000686215
-0.00501553
0.00251827
-0.0180665
0.00502469
-0.0335588
0.00748332
-0.0485164
0.00939296
-0.0606619
0.0106387
-0.0696064
0.0113581
-0.0762199
0.0117572
-0.0816506
0.0119993
-0.0867859
-0.092077
0.0121638
0.000715618
-0.00573115
0.00254543
-0.0198963
0.00492586
-0.0359393
0.00713841
-0.0507289
0.0087592
-0.0622827
0.00974257
-0.0705898
0.0102539
-0.0767312
0.0104928
-0.0818895
0.0106012
-0.0868942
-0.0921186
0.0106427
0.000737828
-0.00646898
0.00254195
-0.0217005
0.00477158
-0.0381689
0.00673185
-0.0526892
0.00807643
-0.0636272
0.00881806
-0.0713315
0.00913975
-0.0770529
0.00922946
-0.0819793
0.00920838
-0.0868731
-0.092038
0.00912778
0.000752161
-0.00722114
0.00250815
-0.0234564
0.00456735
-0.0402281
0.00627407
-0.0543959
0.00735653
-0.0647097
0.00787539
-0.0718503
0.00802261
-0.0772001
0.00797136
-0.081928
0.00782365
-0.0867254
-0.0918353
0.00762094
0.000758133
-0.00797927
0.00244515
-0.0251435
0.00431921
-0.0421022
0.00577483
-0.0558515
0.00660985
-0.0655447
0.00692294
-0.0721634
0.00690808
-0.0771853
0.00672188
-0.0817418
0.00644925
-0.0864528
-0.091509
0.00612302
0.000755471
-0.00873474
0.00235477
-0.0267428
0.00403334
-0.0437807
0.00524309
-0.0570613
0.00584527
-0.0661469
0.00596759
-0.0722857
0.00580054
-0.0770182
0.00548354
-0.0814248
0.00508691
-0.0860561
-0.0910575
0.00463541
0.000744103
-0.00947885
0.00223929
-0.0282379
0.00371585
-0.0452573
0.00468692
-0.0580323
0.00507033
-0.0665303
0.00501499
-0.0722304
0.00470375
-0.076707
0.0042586
-0.0809797
0.00373753
-0.0855351
-0.090479
0.003159
0.000724157
-0.010203
0.00210129
-0.0296151
0.00337257
-0.0465286
0.00411341
-0.0587732
0.00429136
-0.0667083
0.00406974
-0.0720087
0.00362103
-0.0762583
0.0030502
-0.0804088
0.00240121
-0.0848861
-0.0897694
0.00169166
0.000695975
-0.010899
0.00194384
-0.0308629
0.00300896
-0.0475937
0.00352877
-0.059293
0.0035136
-0.0666931
0.00313545
-0.0716306
0.00255491
-0.0756777
0.00186218
-0.0797161
0.00108327
-0.0841072
-0.0888897
0.000203512
0.000660058
-0.011559
0.0017699
-0.0319728
0.00263004
-0.0484538
0.00293837
-0.0596013
0.0027414
-0.0664961
0.00221498
-0.0711042
0.00150668
-0.0749694
0.000692264
-0.0789017
-0.000191132
-0.0832238
-0.0878927
-0.00118811
0.000617036
-0.0121761
0.00158231
-0.0329381
0.00224034
-0.0491119
0.00234683
-0.0597078
0.00197832
-0.0661276
0.00131078
-0.0704366
0.000476891
-0.0741355
-0.000457929
-0.0779669
-0.00147947
-0.0822022
-0.0867987
-0.00257346
0.000567647
-0.0127437
0.00138381
-0.0337542
0.00184392
-0.049572
0.00175803
-0.0596219
0.00122722
-0.0655968
0.00042434
-0.0696338
-0.000528794
-0.0731824
-0.00157831
-0.0769173
-0.00272585
-0.0810547
-0.0855811
-0.00394346
0.000512719
-0.0132564
0.00117708
-0.0344186
0.00144447
-0.0498394
0.00117507
-0.0593525
0.000490704
-0.0649124
-0.000440896
-0.0687021
-0.00150953
-0.0721138
-0.00267861
-0.0757483
-0.00394545
-0.0797878
-0.0842368
-0.00528979
0.00045312
-0.0137096
0.00096468
-0.0349301
0.00104527
-0.04992
0.000600728
-0.058908
-0.000229189
-0.0640825
-0.00128356
-0.0676478
-0.00246836
-0.070929
-0.00375354
-0.0744631
-0.00513909
-0.0784023
-0.0827669
-0.00660891
0.000389689
-0.0140992
0.000749096
-0.0352896
0.000649202
-0.0498201
4.45018e-05
-0.0583033
-0.000929659
-0.0631084
-0.00210531
-0.0664721
-0.00340298
-0.0696313
-0.00480178
-0.0730643
-0.00630529
-0.0768988
-0.0811737
-0.00789854
0.000323309
-0.0144226
0.000532546
-0.0354988
0.00026123
-0.0495487
-0.000512322
-0.0575297
-0.00161339
-0.0620073
-0.0029044
-0.0651811
-0.00431225
-0.0682235
-0.00582242
-0.0715541
-0.00744243
-0.0752788
-0.0794593
-0.00915682
0.00025533
-0.0146779
0.000316786
-0.0355602
-0.000119523
-0.0491124
-0.00104753
-0.0566017
-0.00227737
-0.0607775
-0.00368011
-0.0637784
-0.00519544
-0.0667081
-0.00681478
-0.0699348
-0.00854923
-0.0735443
-0.0776277
-0.0103809
0.000186345
-0.0148642
0.000109581
-0.0354835
-0.000510699
-0.0484922
-0.00157096
-0.0555415
-0.00292065
-0.0594278
-0.00443172
-0.0622673
-0.00605197
-0.0650879
-0.0077783
-0.0682084
-0.00962446
-0.0716982
-0.0756857
-0.0115664
0.000114208
-0.0149784
-0.000105416
-0.0352639
-0.000881285
-0.0477163
-0.00207855
-0.0543442
-0.00354279
-0.0579635
-0.00515855
-0.0606515
-0.00688125
-0.0633652
-0.00871227
-0.0663774
-0.0106669
-0.0697435
-0.073639
-0.0127136
3.70769e-05
-0.0150155
-0.000333393
-0.0348934
-0.00124278
-0.0468069
-0.00256851
-0.0530185
-0.00414309
-0.0563889
-0.00586023
-0.0589344
-0.00768293
-0.0615425
-0.00961624
-0.0644441
-0.011677
-0.0676828
-0.0714839
-0.0138321
-3.78873e-05
-0.0149776
-0.0005463
-0.034385
-0.00159315
-0.04576
-0.00304036
-0.0515713
-0.00472079
-0.0547085
-0.00653641
-0.0571188
-0.00845748
-0.0596214
-0.0104916
-0.0624099
-0.0126546
-0.0655198
-0.0692174
-0.014921
-0.000109249
-0.0148684
-0.000750724
-0.0337435
-0.00193093
-0.0445798
-0.00349366
-0.0500085
-0.00527525
-0.0529269
-0.00718652
-0.0552075
-0.00920558
-0.0576024
-0.0113424
-0.0602732
-0.013596
-0.0632663
-0.06686
-0.0159533
-0.000181046
-0.0146873
-0.000948041
-0.0329765
-0.00225533
-0.0432725
-0.00392778
-0.0483361
-0.00580581
-0.0510489
-0.00780948
-0.0532038
-0.00992482
-0.055487
-0.0121658
-0.0580321
-0.0145392
-0.0608929
-0.0645757
-0.0168235
-0.00025149
-0.0144358
-0.00113829
-0.0320897
-0.00256585
-0.041845
-0.00434221
-0.0465597
-0.00631204
-0.0490791
-0.00840422
-0.0511117
-0.0106097
-0.0532816
-0.0129287
-0.0557131
-0.0153184
-0.0585032
-0.0617232
-0.0181709
-0.000320003
-0.0141158
-0.00132109
-0.0310886
-0.00286211
-0.040304
-0.00473662
-0.0446852
-0.00679381
-0.0470219
-0.0089702
-0.0489353
-0.0112567
-0.050995
-0.0136479
-0.0533219
-0.016162
-0.0559891
-0.0588969
-0.0189884
-0.000386238
-0.0137296
-0.00149598
-0.0299789
-0.00314378
-0.0386562
-0.00511075
-0.0427182
-0.00725081
-0.0448818
-0.00950734
-0.0466787
-0.0118736
-0.0486287
-0.0143539
-0.0508417
-0.0169847
-0.0533583
-0.0560551
-0.0198264
-0.000449919
-0.0132797
-0.00166253
-0.0287663
-0.00341054
-0.0369081
-0.00546436
-0.0406644
-0.00768262
-0.0426636
-0.0100147
-0.0443466
-0.0124567
-0.0461867
-0.0150186
-0.0482798
-0.0177328
-0.0506442
-0.0531696
-0.0206182
-0.000510801
-0.0127689
-0.00182038
-0.0274567
-0.00366215
-0.0350664
-0.00579728
-0.0385293
-0.00808915
-0.0403717
-0.0104928
-0.041943
-0.0130075
-0.043672
-0.0156464
-0.0456409
-0.0184346
-0.0478559
-0.0502274
-0.0213769
-0.000568664
-0.0122002
-0.00196921
-0.0260562
-0.00389838
-0.0331372
-0.00610934
-0.0363183
-0.00847021
-0.0380108
-0.0109413
-0.0394719
-0.0135246
-0.0410888
-0.0162344
-0.0429311
-0.0190909
-0.0449993
-0.047222
-0.0220963
-0.000623312
-0.0115769
-0.00210876
-0.0245707
-0.00411904
-0.0311269
-0.00640046
-0.0340369
-0.00882574
-0.0355855
-0.01136
-0.0369376
-0.0140077
-0.0384411
-0.0167833
-0.0401555
-0.0197045
-0.0420781
-0.0441524
-0.0227742
-0.000674571
-0.0109023
-0.0022388
-0.0230065
-0.00432399
-0.0290417
-0.00667053
-0.0316904
-0.00915564
-0.0331004
-0.0117489
-0.0343443
-0.0144564
-0.0357336
-0.0172932
-0.0373187
-0.0202756
-0.0390957
-0.0410198
-0.0234082
-0.000722287
-0.01018
-0.00235914
-0.0213696
-0.0045131
-0.0268878
-0.0069195
-0.029284
-0.00945982
-0.0305601
-0.0121076
-0.0316965
-0.0148707
-0.0329706
-0.0177641
-0.0344253
-0.0208039
-0.0360559
-0.0378273
-0.0239965
-0.000766326
-0.00941372
-0.00246963
-0.0196663
-0.00468627
-0.0246711
-0.00714729
-0.0268229
-0.00973822
-0.0279692
-0.0124361
-0.0289986
-0.0152502
-0.0301565
-0.0181958
-0.0314796
-0.021289
-0.0329627
-0.0345786
-0.0245377
-0.000806573
-0.00860715
-0.00257013
-0.0179028
-0.00484342
-0.0223979
-0.00735387
-0.0243125
-0.00999075
-0.0253323
-0.0127343
-0.0262551
-0.0155948
-0.027296
-0.0185881
-0.0284863
-0.0217302
-0.0298206
-0.0312782
-0.0250306
-0.000842926
-0.00776422
-0.00266053
-0.0160852
-0.00498448
-0.0200739
-0.0075392
-0.0217578
-0.0102174
-0.0226542
-0.013002
-0.0234705
-0.0159043
-0.0243937
-0.0189406
-0.0254501
-0.022127
-0.0266342
-0.0279309
-0.0254743
-0.000875298
-0.00688892
-0.00274073
-0.0142197
-0.00510941
-0.0177052
-0.00770323
-0.0191639
-0.010418
-0.0199394
-0.013239
-0.0206494
-0.0161786
-0.0214541
-0.0192531
-0.0223756
-0.0224789
-0.0234084
-0.0245418
-0.025868
-0.000903617
-0.00598531
-0.00281066
-0.0123127
-0.00521815
-0.0152977
-0.00784594
-0.0165362
-0.0105925
-0.0171928
-0.0134454
-0.0177966
-0.0164174
-0.0184821
-0.0195253
-0.0192676
-0.0227856
-0.0201481
-0.0211162
-0.0262112
-0.000927819
-0.00505749
-0.00287024
-0.0103703
-0.00531067
-0.0128573
-0.0079673
-0.0138795
-0.010741
-0.0144192
-0.0136209
-0.0149166
-0.0166206
-0.0154824
-0.019757
-0.0161312
-0.0230467
-0.0168585
-0.0176594
-0.0265034
-0.000947854
-0.00410963
-0.00291942
-0.00839869
-0.00538694
-0.0103898
-0.00806729
-0.0111992
-0.0108633
-0.0116232
-0.0137656
-0.0120143
-0.0167881
-0.0124599
-0.0199481
-0.0129712
-0.023262
-0.0135446
-0.014177
-0.0267444
-0.000963678
-0.00314595
-0.00295817
-0.0064042
-0.00544693
-0.00790103
-0.00814589
-0.00850022
-0.0109594
-0.00880962
-0.0138793
-0.00909447
-0.0169198
-0.00941934
-0.0200984
-0.00979267
-0.0234314
-0.0102116
-0.0106744
-0.026934
-0.000975259
-0.0021707
-0.00298643
-0.00439303
-0.00549061
-0.00539685
-0.00820307
-0.00578776
-0.0110294
-0.00598332
-0.013962
-0.00616181
-0.0170157
-0.00636568
-0.0202078
-0.0066006
-0.0235547
-0.00686462
-0.00715692
-0.0270721
-0.000982574
-0.00300419
-0.00551798
-0.00823882
-0.00306692
-0.0110731
-0.00314908
-0.0140137
-0.00322116
-0.0170756
-0.00330379
-0.0202762
-0.0034
-0.0236319
-0.00350889
-0.0036301
-0.0271588
-0.00825314
-0.0110905
-0.0140343
-0.0170995
-0.0203036
-0.023663
-0.0271938
0.060898
0.00859853
-0.0603687
0.0614286
0.0101121
0.0619604
0.0116319
0.0624935
0.013155
0.0630275
0.0146785
0.0635616
0.0161994
0.0640938
0.0177144
0.0192194
0.0630467
0.00807617
-0.0625244
0.0635762
0.00958259
0.0641136
0.0110946
0.064659
0.0126096
0.0652128
0.0141247
0.0657749
0.0156374
0.0663445
0.0171448
0.0186438
0.0653036
0.00757451
-0.064802
0.0658192
0.00906702
0.0663494
0.0105644
0.0668949
0.0120641
0.067456
0.0135636
0.0680328
0.0150606
0.0686252
0.0165523
0.0180363
0.0676981
0.00709738
-0.0672209
0.0681933
0.00857176
0.0687078
0.0100499
0.0692425
0.0115294
0.0697983
0.0130079
0.0703759
0.0144831
0.0709756
0.0159526
0.0174141
0.0702344
0.00664362
-0.0697806
0.0707093
0.00809686
0.0712064
0.00955275
0.0717269
0.0110089
0.0722719
0.0124629
0.0728423
0.0139126
0.0734391
0.0153558
0.0167902
0.0729076
0.00621168
-0.0724757
0.0733635
0.00764096
0.0738442
0.00907203
0.0743507
0.0105024
0.0748839
0.0119298
0.0754446
0.0133518
0.076034
0.0147665
0.0161715
0.0757152
0.00580059
-0.0753041
0.076153
0.00720314
0.0766182
0.00860679
0.0771116
0.0100091
0.0776336
0.0114077
0.0781851
0.0128004
0.0787666
0.014185
0.0155593
0.0786603
0.00540942
-0.0782691
0.0790807
0.00678274
0.079531
0.00815647
0.0800118
0.00952829
0.0805235
0.010896
0.0810665
0.0122574
0.0816413
0.0136103
0.0149524
0.0817462
0.00503782
-0.0813745
0.0821499
0.006379
0.0825861
0.00772027
0.0830551
0.00905928
0.0835572
0.0103939
0.0840928
0.0117218
0.084662
0.0130411
0.0143494
0.0849834
0.00468537
-0.084631
0.0853705
0.00599191
0.0857926
0.00729817
0.08625
0.00860191
0.0867429
0.009901
0.0872714
0.0111934
0.0878355
0.0124769
0.0137495
0.0883765
0.0043515
-0.0880426
0.0887477
0.00562075
0.0891564
0.00688942
0.0896029
0.0081554
0.0900873
0.00941665
0.0906095
0.0106711
0.0911696
0.0119168
0.0131517
0.0919342
0.00403529
-0.091618
0.0922904
0.00526462
0.0926866
0.00649317
0.0931231
0.00771893
0.0935998
0.00893993
0.0941167
0.0101542
0.0946737
0.0113598
0.0125548
0.0956657
0.00373581
-0.0953662
0.0960078
0.00492257
0.0963925
0.00610843
0.0968199
0.00729147
0.0972901
0.00846978
0.0978028
0.00964149
0.0983579
0.0108047
0.0119576
0.0995808
0.00345202
-0.099297
0.0999098
0.00459356
0.100284
0.00573411
0.100704
0.00687185
0.101169
0.00800496
0.101678
0.00913165
0.102233
0.0102501
0.0113586
0.103689
0.00318218
-0.103419
0.104007
0.00427595
0.104372
0.00536868
0.104785
0.00645862
0.105246
0.00754403
0.105755
0.00862321
0.10631
0.00969446
0.0107561
0.108003
0.00292576
-0.107747
0.10831
0.0039689
0.108668
0.00501101
0.109076
0.00605043
0.109534
0.0070855
0.110043
0.00811459
0.110601
0.00913607
0.111209
0.0101483
0.0111497
0.112534
0.00268112
-0.11229
0.112832
0.00367093
0.113184
0.0046597
0.113588
0.00564587
0.114046
0.00662789
0.114556
0.00760421
0.115119
0.0085733
0.115734
0.00953361
0.0104836
0.117296
0.00244711
-0.117062
0.117586
0.0033807
0.117932
0.00431327
0.118335
0.00524338
0.118793
0.00616956
0.119307
0.00709036
0.119876
0.00800432
0.1205
0.00890999
0.00980593
0.1223
0.00222236
-0.122075
0.122584
0.00309678
0.122927
0.00397026
0.123329
0.00484141
0.12379
0.00570888
0.124309
0.0065713
0.124886
0.00742732
0.12552
0.00827557
0.00911471
0.127563
0.00200556
-0.127346
0.127842
0.00281781
0.128183
0.00362919
0.128586
0.00443841
0.129051
0.00524421
0.129577
0.00604532
0.130164
0.00684049
0.130811
0.00762844
0.00840793
0.1331
0.00179543
-0.13289
0.133376
0.00254241
0.133716
0.00328861
0.134122
0.00403283
0.134592
0.00477391
0.135127
0.00551069
0.135725
0.006242
0.136387
0.00696668
0.00768358
0.13893
0.00159071
-0.138725
0.139203
0.00226925
0.139545
0.00294709
0.139954
0.00362314
0.140432
0.00429636
0.140977
0.00496567
0.141589
0.00563003
0.142267
0.00628836
0.00693963
0.145071
0.0013902
-0.144871
0.145343
0.00199701
0.145687
0.0026032
0.146103
0.00320782
0.146589
0.00380991
0.147146
0.00440853
0.147774
0.00500271
0.14847
0.00559152
0.00617402
0.151546
0.00119271
-0.151349
0.151819
0.00172438
0.152166
0.00225552
0.152589
0.00278531
0.153086
0.0033129
0.153657
0.00383746
0.154302
0.00435815
0.155019
0.00487413
0.00538458
0.158379
0.000997041
-0.158184
0.158654
0.00145002
0.159007
0.00190259
0.159438
0.00235402
0.159947
0.00280359
0.160534
0.00325059
0.161198
0.00369431
0.161938
0.00413402
0.00456903
0.165599
0.000801971
-0.165404
0.165876
0.00117257
0.166236
0.00154286
0.166678
0.00191224
0.167201
0.00228012
0.167806
0.00264591
0.168491
0.00300902
0.169256
0.00336887
0.00372488
0.173236
0.000606225
-0.17304
0.173518
0.00089057
0.173886
0.00117469
0.17434
0.00145814
0.17488
0.00174046
0.175505
0.00202119
0.176214
0.00229987
0.177007
0.00257607
0.00284933
0.181328
0.000408391
-0.18113
0.181616
0.000602394
0.181995
0.000796262
0.182463
0.00098969
0.183021
0.00118236
0.183669
0.00137396
0.184404
0.00156418
0.185228
0.00175271
0.00193924
0.189917
0.000206814
-0.189715
0.190213
0.000306121
0.190604
0.000405377
0.191089
0.000504421
0.191669
0.000603089
0.192341
0.000701223
0.193107
0.00079866
0.193964
0.000895242
0.000990808
0.199055
-0.198848
0.199361
0.199766
0.200271
0.200874
0.201575
0.202374
0.203269
0.0503646
-0.0171001
-0.050088
0.0508305
-0.0164193
0.0513489
-0.0154394
0.0518765
-0.0143597
0.0524054
-0.0132425
0.0529369
-0.0120979
0.0534692
-0.0109131
0.0540005
-0.00968818
0.054531
-0.00842904
0.0550612
-0.00713905
0.0555912
-0.00581984
0.0561215
-0.00447373
0.0566517
-0.00310369
0.0571803
-0.00171665
0.0577198
-0.000336024
0.0582587
0.0011528
0.0587871
0.00263061
0.059314
0.00410849
0.0598409
0.0055961
0.00709312
0.0536647
-0.0175402
-0.0532246
0.0540668
-0.0168214
0.0545043
-0.0158769
0.054958
-0.0148134
0.0554025
-0.0136869
0.0558436
-0.0125391
0.056289
-0.0113585
0.0567388
-0.010138
0.0571925
-0.00888273
0.0576507
-0.00759728
0.0581142
-0.00628332
0.0585831
-0.00494271
0.0590577
-0.00357824
0.0595351
-0.00219405
0.0599961
-0.000797056
0.0605002
0.000648747
0.0609986
0.00213216
0.0615005
0.00360662
0.062009
0.0050876
0.00657773
0.0570288
-0.0179227
-0.0566463
0.0573775
-0.0171701
0.0577324
-0.0162318
0.0581078
-0.0151888
0.0584833
-0.0140625
0.0588553
-0.0129111
0.0592317
-0.0117349
0.0596151
-0.0105214
0.0600043
-0.00927192
0.0603991
-0.00799208
0.0608002
-0.00668444
0.0612078
-0.00535034
0.0616216
-0.00399199
0.0620393
-0.00261177
0.0624586
-0.00121634
0.0629193
0.000188018
0.063373
0.00167844
0.0638374
0.00314224
0.0643135
0.00461154
0.00608922
0.0604915
-0.0182181
-0.0601961
0.0607727
-0.0174513
0.0610533
-0.0165123
0.061351
-0.0154865
0.0616573
-0.0143688
0.0619639
-0.0132177
0.0622749
-0.0120458
0.0625943
-0.0108408
0.0629221
-0.00959978
0.0632579
-0.00832781
0.063602
-0.00702859
0.0639553
-0.00570362
0.0643181
-0.00435482
0.0646907
-0.0029843
0.0650714
-0.00159704
0.0654683
-0.000208922
0.0658868
0.00125989
0.0663165
0.00271258
0.0667608
0.00416729
0.00562903
0.0640526
-0.0184361
-0.0638346
0.0642683
-0.017667
0.0644805
-0.0167245
0.0647043
-0.0157103
0.0649402
-0.0146048
0.0651812
-0.0134587
0.0654277
-0.0122923
0.0656837
-0.0110968
0.0659507
-0.00986673
0.0662284
-0.00860559
0.0665174
-0.00731759
0.0668187
-0.00600485
0.0671329
-0.0046691
0.0674612
-0.00331254
0.0678029
-0.00193875
0.0681497
-0.000555781
0.0685348
0.000874833
0.0689324
0.00231495
0.069347
0.00375271
0.0051954
0.067731
-0.0185793
-0.0675878
0.0678791
-0.0178151
0.0680225
-0.016868
0.0681732
-0.015861
0.0683375
-0.014769
0.0685115
-0.0136327
0.0686937
-0.0124745
0.068887
-0.0112901
0.0690938
-0.0100735
0.0693146
-0.00882636
0.0695497
-0.00755275
0.0698002
-0.0062553
0.0700668
-0.00493571
0.0703502
-0.00359596
0.0706502
-0.00223878
0.0709644
-0.000869979
0.0713138
0.000525461
0.07168
0.00194871
0.0720668
0.00336593
0.00478656
0.0715359
-0.0186443
-0.071471
0.0716109
-0.0178901
0.0716832
-0.0169402
0.0717609
-0.0159387
0.0718532
-0.0148613
0.0719594
-0.0137388
0.0720775
-0.0125926
0.0722092
-0.0114218
0.072357
-0.0102212
0.0725218
-0.00899123
0.0727044
-0.00773531
0.0729054
-0.00645632
0.0731258
-0.00515606
0.0733663
-0.00383644
0.0736272
-0.00249978
0.0739075
-0.00115025
0.0742241
0.000208912
0.0745593
0.00161348
0.074919
0.00300618
0.0044015
0.0754682
-0.0186284
-0.075484
0.0754658
-0.0178877
0.0754648
-0.0169392
0.0754699
-0.0159438
0.0754909
-0.0148823
0.0755295
-0.0137774
0.0755841
-0.0126473
0.0756554
-0.0114931
0.0757454
-0.0103113
0.0758557
-0.00910152
0.075987
-0.00786667
0.0761402
-0.00660948
0.076316
-0.00533186
0.0765151
-0.00403558
0.0767379
-0.00272252
0.0769838
-0.0013962
0.0772669
-7.41128e-05
0.0775722
0.0013081
0.0779065
0.00267196
0.00403884
0.0795272
-0.0185316
-0.0796241
0.0794458
-0.0178063
0.0793705
-0.0168639
0.0793039
-0.0158772
0.079255
-0.0148334
0.0792269
-0.0137493
0.0792188
-0.0126392
0.0792308
-0.0115051
0.0792646
-0.010345
0.0793217
-0.00915863
0.0794032
-0.00794816
0.0795098
-0.00671617
0.0796427
-0.0054647
0.0798027
-0.00419562
0.0799912
-0.00291096
0.0802085
-0.00161353
0.0804449
-0.000310485
0.0807256
0.00102737
0.0810347
0.00236285
0.00369899
0.0837154
-0.0183547
-0.0838923
0.0835549
-0.0176457
0.0834053
-0.0167143
0.083268
-0.01574
0.0831509
-0.0147162
0.0830576
-0.013656
0.0829879
-0.0125695
0.0829419
-0.0114591
0.0829207
-0.0103239
0.0829261
-0.00916395
0.082959
-0.00798105
0.0830203
-0.0067775
0.0831109
-0.00555532
0.0832316
-0.0043163
0.083383
-0.00306236
0.0835652
-0.00179572
0.0837763
-0.000521646
0.0840279
0.0007758
0.0843127
0.0020781
0.00338065
0.0880377
-0.0180992
-0.0882931
0.0877989
-0.017407
0.0875758
-0.0164912
0.0873692
-0.0155333
0.0871855
-0.0145326
0.0870285
-0.0134989
0.0868986
-0.0124395
0.0867958
-0.0113563
0.0867211
-0.0102493
0.086676
-0.0091188
0.0866615
-0.00796656
0.0866785
-0.00679456
0.0867279
-0.00560471
0.0868104
-0.00439878
0.0869266
-0.0031786
0.0870772
-0.00194625
0.0872609
-0.000705368
0.0874852
0.000551464
0.0877456
0.00181769
0.00308363
0.0925007
-0.0177667
-0.0928333
0.0921853
-0.0170915
0.0918898
-0.0161957
0.0916151
-0.0152587
0.0913667
-0.0142841
0.0911477
-0.0132799
0.0909589
-0.0122507
0.0908006
-0.0111981
0.0906737
-0.0101224
0.0905794
-0.00902449
0.0905188
-0.00790595
0.0904928
-0.00676854
0.0905021
-0.00561407
0.0905476
-0.00444425
0.0906298
-0.00326083
0.0907493
-0.00206573
0.0909057
-0.000861773
0.0911043
0.000352869
0.0913414
0.00158056
0.00280705
0.0971128
-0.0173587
-0.0975208
0.0967224
-0.0167011
0.0963561
-0.0158293
0.0960149
-0.0149175
0.0957032
-0.0139724
0.0954238
-0.0130005
0.0951776
-0.0120046
0.0949652
-0.0109856
0.0947874
-0.00994451
0.0946452
-0.00888229
0.0945397
-0.00780044
0.0944718
-0.00670063
0.0944422
-0.00558452
0.0944517
-0.00445376
0.0945009
-0.00331003
0.0945903
-0.00215514
0.09472
-0.000991456
0.0948943
0.000178592
0.0951091
0.00136568
0.00254997
0.101883
-0.0168768
-0.102365
0.10142
-0.0162377
0.100984
-0.0153938
0.100578
-0.0145114
0.100205
-0.0135991
0.0998666
-0.0126622
0.0995645
-0.0117025
0.0992992
-0.0107204
0.0990717
-0.00971696
0.0988828
-0.00869342
0.0987337
-0.00765126
0.098625
-0.00659199
0.0985577
-0.00551717
0.0985323
-0.00442836
0.0985494
-0.00332715
0.0986094
-0.00221519
0.0987125
-0.00109454
0.0988649
2.62576e-05
0.0990583
0.00117223
0.00231127
0.106823
-0.0163226
-0.107377
0.106288
-0.0157032
0.105785
-0.0148908
0.105316
-0.0140417
0.104882
-0.0131654
0.104486
-0.0122666
0.10413
-0.0113459
0.103813
-0.0104036
0.103537
-0.00944094
0.103303
-0.00845909
0.103111
-0.00745957
0.102963
-0.0064438
0.102859
-0.00541325
0.1028
-0.0043694
0.102787
-0.00331378
0.102819
-0.00224801
0.102899
-0.00117397
0.103022
-9.73022e-05
0.103197
0.000997502
0.00208913
0.111943
-0.0156977
-0.112568
0.111339
-0.0150996
0.110771
-0.0143221
0.110239
-0.01351
0.109746
-0.0126729
0.109295
-0.0118148
0.108885
-0.010936
0.108518
-0.0100366
0.108194
-0.00911757
0.107916
-0.00818039
0.107682
-0.00722644
0.107496
-0.00625709
0.107356
-0.00527371
0.107264
-0.00427773
0.107221
-0.00327059
0.107227
-0.00225381
0.107282
-0.00122905
0.107385
-0.000199838
0.107541
0.000841663
0.00188311
0.117256
-0.0150036
-0.11795
0.116585
-0.0144287
0.115952
-0.0136893
0.11536
-0.0129176
0.11481
-0.0121228
0.114303
-0.0113082
0.113841
-0.0104741
0.113425
-0.00962031
0.113055
-0.00874794
0.112733
-0.00785834
0.11246
-0.00695287
0.112236
-0.00603283
0.112061
-0.0050995
0.111938
-0.00415424
0.111866
-0.0031984
0.111845
-0.00223342
0.111877
-0.00126082
0.11196
-0.000283224
0.112098
0.000703611
0.00169174
0.122776
-0.0142416
-0.123538
0.12204
-0.0136921
0.121344
-0.0129939
0.120693
-0.0122658
0.120086
-0.0115161
0.119526
-0.0107479
0.119013
-0.00996117
0.118548
-0.0091559
0.118133
-0.00833304
0.117769
-0.00749391
0.117456
-0.0066398
0.117195
-0.00577196
0.116987
-0.00489159
0.116833
-0.00399995
0.116733
-0.00309834
0.116687
-0.0021881
0.116697
-0.00127064
0.116762
-0.00034801
0.116884
0.000581935
0.00151392
0.128519
-0.0134128
-0.129348
0.127718
-0.0128914
0.126962
-0.0122373
0.126251
-0.0115557
0.125589
-0.010854
0.124976
-0.0101349
0.124413
-0.00939827
0.123902
-0.00864427
0.123443
-0.00787376
0.123037
-0.00708798
0.122685
-0.00628814
0.122388
-0.0054754
0.122148
-0.0046509
0.121964
-0.00381583
0.121837
-0.00297139
0.121767
-0.00211885
0.121756
-0.00125951
0.121803
-0.000395066
0.12191
0.000475411
0.00134831
0.134501
-0.0125183
-0.135395
0.133637
-0.0120279
0.13282
-0.0114205
0.132053
-0.0107882
0.131336
-0.0101373
0.130671
-0.00946995
0.130059
-0.00878618
0.129501
-0.00808623
0.128998
-0.00737091
0.128552
-0.00664134
0.128162
-0.00589866
0.127831
-0.00514395
0.127558
-0.00437828
0.127345
-0.00360275
0.127192
-0.00281848
0.1271
-0.00202664
0.127069
-0.00122845
0.127099
-0.000425348
0.127192
0.000382858
0.00119366
0.14074
-0.0115588
-0.1417
0.139815
-0.0111024
0.138939
-0.0105445
0.138115
-0.00996419
0.137344
-0.00936669
0.136628
-0.00875374
0.135967
-0.00812556
0.135363
-0.00748243
0.134817
-0.00682513
0.134331
-0.00615466
0.133904
-0.00547206
0.133539
-0.00477834
0.133235
-0.00407448
0.132994
-0.0033615
0.132815
-0.00264044
0.132701
-0.00191237
0.132651
-0.00117841
0.132666
-0.000439824
0.132745
0.00030316
0.00104877
0.147257
-0.0105348
-0.148281
0.146271
-0.0101159
0.145336
-0.00960988
0.144456
-0.00908413
0.143632
-0.00854258
0.142865
-0.00798672
0.142156
-0.00741686
0.141507
-0.00683335
0.140919
-0.00623691
0.140393
-0.00562844
0.13993
-0.00500888
0.139531
-0.00437913
0.139196
-0.00374012
0.138927
-0.00309277
0.138725
-0.00243802
0.138589
-0.00177686
0.138521
-0.00111029
0.138521
-0.000439424
0.138589
0.00023525
0.000912489
0.154076
-0.00944675
-0.155164
0.153028
-0.00906859
0.152035
-0.00861707
0.1511
-0.00814831
0.150222
-0.00766526
0.149405
-0.00716914
0.148648
-0.00666035
0.147954
-0.00613927
0.147324
-0.00560657
0.146758
-0.00506303
0.146259
-0.0045095
0.145827
-0.00394679
0.145462
-0.00337572
0.145167
-0.00279713
0.144941
-0.00221188
0.144785
-0.00162083
0.144699
-0.00102489
0.144685
-0.000425039
0.144742
0.000178116
0.000783706
0.16122
-0.00829452
-0.162372
0.160112
-0.00796063
0.159061
-0.00756607
0.158069
-0.00715672
0.157138
-0.00673471
0.15627
-0.00630102
0.155466
-0.00585606
0.154727
-0.00540027
0.154055
-0.00493422
0.15345
-0.00445862
0.152915
-0.00397418
0.15245
-0.00348162
0.152056
-0.00298167
0.151734
-0.00247506
0.151484
-0.00196256
0.151308
-0.00144493
0.151206
-0.000922963
0.151179
-0.000397504
0.151226
0.000130793
0.000661342
0.168717
-0.00707787
-0.169934
0.167548
-0.0067917
0.166439
-0.00645658
0.165391
-0.00610908
0.164407
-0.00575065
0.163488
-0.00538209
0.162636
-0.0050038
0.161852
-0.00461619
0.161137
-0.00421979
0.160494
-0.00381517
0.159923
-0.00340296
0.159425
-0.00298375
0.159001
-0.00255819
0.158653
-0.0021269
0.158381
-0.00169052
0.158186
-0.00124972
0.158068
-0.000805182
0.158028
-0.00035761
0.158067
9.23517e-05
0.000544339
0.176599
-0.00579621
-0.177881
0.175369
-0.00556118
0.1742
-0.00528797
0.173096
-0.00500477
0.172058
-0.00471254
0.171088
-0.00441186
0.170187
-0.00410311
0.169357
-0.00378667
0.168601
-0.00346298
0.167918
-0.0031325
0.167311
-0.00279574
0.16678
-0.00245321
0.166327
-0.00210541
0.165953
-0.00175287
0.165659
-0.00139612
0.165445
-0.0010357
0.165312
-0.000672176
0.165261
-0.000306123
0.165291
6.1882e-05
0.000431624
0.184901
-0.0044487
-0.186249
0.183608
-0.00426808
0.182379
-0.0040593
0.181218
-0.00384293
0.180125
-0.00361954
0.179102
-0.00338956
0.178152
-0.00315332
0.177277
-0.00291111
0.176477
-0.00266329
0.175755
-0.00241021
0.175111
-0.00215226
0.174548
-0.00188983
0.174066
-0.00162331
0.173666
-0.0013531
0.17335
-0.00107962
0.173117
-0.000803282
0.17297
-0.000524522
0.172907
-0.000243786
0.172931
3.84318e-05
0.000322102
0.193661
-0.00303424
-0.195075
0.192304
-0.00291113
0.191014
-0.00276933
0.189794
-0.00262238
0.188645
-0.0024706
0.187569
-0.00231424
0.18657
-0.00215356
0.185647
-0.00198877
0.184804
-0.0018201
0.184042
-0.00164782
0.183362
-0.00147216
0.182765
-0.00129341
0.182254
-0.00111183
0.181828
-0.0009277
0.18149
-0.000741302
0.18124
-0.000552923
0.181078
-0.000362857
0.181005
-0.000171406
0.181023
2.10868e-05
0.000214562
0.202923
-0.00155156
-0.204406
0.201501
-0.00148882
0.200148
-0.00141658
0.198867
-0.00134171
0.197661
-0.00126434
0.196531
-0.00118462
0.195481
-0.00110266
0.19451
-0.00101858
0.193623
-0.000932501
0.192819
-0.000844543
0.192102
-0.000754843
0.191472
-0.000663534
0.190931
-0.000570757
0.19048
-0.000476651
0.19012
-0.000381364
0.189852
-0.000285041
0.189677
-0.000187838
0.189596
-8.99185e-05
0.189608
8.46478e-06
0.000107607
0.212736
-0.214288
0.211247
0.209831
0.208489
0.207225
0.20604
0.204937
0.203919
0.202986
0.202142
0.201387
0.200723
0.200153
0.199676
0.199295
0.19901
0.198822
0.198732
0.19874
0.0503824
0.00184898
-0.00178039
0.0502537
0.00375885
-0.00363016
0.0500114
0.00605108
-0.00580875
0.0497273
0.0070904
-0.00680635
0.0493455
0.0091083
-0.00872647
0.0489449
0.010169
-0.00976847
0.0484697
0.0125613
-0.0120861
0.0480315
0.0139555
-0.0135173
0.0475571
0.0168951
-0.0164207
0.0472381
0.0185233
-0.0182042
0.0469322
0.0219812
-0.0216754
0.0470146
0.0233894
-0.0234718
0.0471276
0.0273603
-0.0274733
0.0481628
0.0274696
-0.0285048
0.0318936
-0.0338188
0.052853
0.00191726
0.0527287