/*--------------------------------*- C++ -*----------------------------------*\
  =========                 |
  \\      /  F ield         | OpenFOAM: The Open Source CFD Toolbox
   \\    /   O peration     | Website:  https://openfoam.org
    \\  /    A nd           | Version:  7
     \\/     M anipulation  |
\*---------------------------------------------------------------------------*/
FoamFile
{
    version     2.0;
    format      ascii;
    class       surfaceScalarField;
    location    "190";
    object      phi;
}
// * * * * * * * * * * * * * * * * * * * * * * * * * * * * * * * * * * * * * //

dimensions      [0 3 -1 0 0 0 0];

internalField   nonuniform List<scalar> 
4147
(
-0.000118769
0.000327137
-0.00040781
0.00158656
-0.000840254
0.00329872
-0.00139553
0.00523529
-0.00204942
0.00727314
-0.00277005
0.0094279
-0.00352142
0.0118146
-0.00427157
0.0145729
-0.00499646
0.0178043
0.0215596
-0.00567137
-9.49007e-05
0.000422037
-0.000327224
0.00181888
-0.000676583
0.00364808
-0.00112708
0.00568579
-0.00165622
0.00780228
-0.00222937
0.010001
-0.00280229
0.0123875
-0.00332918
0.0150998
-0.00376895
0.0182441
0.0218565
-0.00406584
-7.0346e-05
0.000492383
-0.000243427
0.00199196
-0.000504385
0.00390904
-0.000841248
0.00602265
-0.00123298
0.00819401
-0.00164224
0.0104103
-0.00201631
0.0127616
-0.00229428
0.0153777
-0.00241776
0.0183675
0.0217408
-0.00230206
-4.64985e-05
0.000538882
-0.000160784
0.00210625
-0.000331973
0.00408023
-0.000550847
0.00624153
-0.000797459
0.00844063
-0.0010321
0.0106449
-0.00119429
0.0129238
-0.00120764
0.0153911
-0.00099283
0.0181527
0.0212219
-0.000473868
-2.46511e-05
0.000563533
-8.34804e-05
0.00216508
-0.00016757
0.00416432
-0.000268893
0.00634285
-0.000368004
0.00853974
-0.000423378
0.0107003
-0.000367829
0.0128682
-0.000113619
0.0151369
0.000445792
0.0175933
0.0202571
0.00141054
-6.00722e-06
0.00056954
-1.52206e-05
0.00217429
-1.84118e-05
0.00416751
-7.4617e-06
0.0063319
3.71621e-05
0.00849511
0.000159161
0.0105783
0.000430111
0.0125973
0.0009496
0.0146174
0.00183091
0.016712
0.0188586
0.00322939
8.78671e-06
0.000560753
4.03783e-05
0.0021427
0.000107125
0.00410076
0.000220149
0.00621888
0.000400496
0.00831477
0.000691924
0.0102869
0.00116912
0.0121201
0.00193917
0.0138473
0.00312767
0.0155235
0.0170602
0.00492605
1.86855e-05
0.000542068
8.12321e-05
0.00208015
0.000205042
0.00397695
0.000405815
0.0060181
0.000707125
0.00801346
0.00115368
0.00984034
0.00182098
0.0114528
0.00282031
0.012848
0.00428421
0.0140596
0.0148953
0.00644912
2.34955e-05
0.000518572
0.00010559
0.00199806
0.000270931
0.00381161
0.000541587
0.00574745
0.000944996
0.00761005
0.00152698
0.00925835
0.00236248
0.0106173
0.00356355
0.0116469
0.00526363
0.0123595
0.0123979
0.00776106
2.30578e-05
0.000495515
0.000112837
0.00190828
0.000302965
0.00362148
0.000623387
0.00542703
0.0011067
0.00712674
0.00180042
0.00856462
0.00277829
0.00963942
0.00415049
0.0102748
0.00604523
0.0104648
0.00959496
0.00884818
1.75554e-05
0.000477959
0.000103479
0.00182236
0.000301709
0.00342325
0.000651202
0.00507753
0.00119092
0.00658702
0.00197119
0.00778436
0.00306508
0.00854552
0.00458001
0.00875982
0.00663572
0.00840907
0.00649685
0.00973383
7.54441e-06
0.000470415
7.92757e-05
0.00175062
0.000270461
0.00323207
0.000629858
0.00471814
0.00120404
0.00601283
0.00204798
0.00694042
0.0032366
0.0073569
0.00487647
0.00711996
0.0070848
0.00620074
0.00308641
0.0104952
-6.20838e-06
0.000476623
4.33195e-05
0.0017011
0.000215517
0.00305987
0.000569663
0.00436399
0.00116152
0.00542097
0.00205383
0.00604812
0.0033286
0.00608213
0.00509745
0.0053511
0.00749796
0.00380024
-0.000688403
0.0112728
-2.20883e-05
0.000498711
4.53342e-07
0.00167855
0.000146256
0.00291407
0.00048667
0.00402358
0.00108867
0.00481897
0.0020276
0.0051092
0.00340123
0.0047085
0.00533607
0.00341626
0.00803311
0.00110319
-0.00490795
0.0122527
-3.86281e-05
0.00053734
-4.42437e-05
0.00168417
7.47634e-05
0.00279506
0.000402222
0.00369612
0.00101996
0.00420123
0.00202276
0.0041064
0.00353575
0.00319551
0.00571237
0.00123964
0.0088694
-0.00205383
-0.00964752
0.013609
-5.37562e-05
0.000591096
-8.3611e-05
0.00171402
1.53336e-05
0.00269612
0.000341421
0.00337003
0.000996236
0.00354642
0.00210204
0.00300059
0.0038234
0.00147415
0.00635216
-0.00128912
0.0101482
-0.00584987
-0.0149225
0.0154232
-6.54245e-05
0.00065652
-0.000110925
0.00175952
-1.72819e-05
0.00260247
0.000330316
0.00302243
0.0010596
0.00281713
0.00232804
0.00173215
0.00434783
-0.000545641
0.00735761
-0.0042989
0.0119172
-0.0104094
-0.0206355
0.0176301
-7.18076e-05
0.000728328
-0.000120109
0.00180783
-1.03704e-05
0.00249273
0.000392206
0.00261986
0.00124677
0.00196256
0.00275171
0.000227216
0.00516656
-0.00296049
0.00877867
-0.00791101
0.0141046
-0.0157354
-0.0265721
0.0200413
-7.15597e-05
0.000799888
-0.000106624
0.00184289
4.48727e-05
0.00234124
0.000544091
0.00212064
0.00158255
0.000924102
0.00340191
-0.00159214
0.00629721
-0.0058558
0.0105914
-0.0122052
0.0165419
-0.0216859
-0.0324657
0.0224355
-6.39975e-05
0.000863885
-6.78689e-05
0.00184676
0.000155832
0.00211754
0.000794481
0.00148199
0.00207583
-0.000357244
0.00427942
-0.00379573
0.00771069
-0.00928708
0.01268
-0.0171745
0.0190289
-0.0280347
-0.0381407
0.0247038
-4.92475e-05
0.000913133
-2.13507e-06
0.00179965
0.00032196
0.00179344
0.00114233
0.000661615
0.00271954
-0.00193445
0.00535839
-0.00643458
0.00933821
-0.0132669
0.0148445
-0.0226808
0.0212875
-0.0344777
-0.0460622
0.0292089
-2.8582e-05
0.000941715
8.3229e-05
0.00168784
0.000538577
0.00133809
0.00157903
-0.000378838
0.00349421
-0.00384964
0.00659322
-0.00953359
0.0110856
-0.0177593
0.0169283
-0.0285235
0.0234163
-0.0409657
-0.053254
0.0306081
-1.59684e-06
0.000190408
0.00149583
0.000799351
0.000729152
0.00209121
-0.00167069
0.00437261
-0.00613104
0.00792634
-0.0130873
0.0128401
-0.022673
0.0188154
-0.0344989
0.0251066
-0.0472568
-0.0595203
0.0313728
0.000313537
0.00109645
-5.37613e-05
0.00266362
-0.00323786
0.00532348
-0.0087909
0.00929414
-0.017058
0.0144934
-0.0278723
0.0204043
-0.0404098
0.0262613
-0.0531137
-0.0649498
0.0316908
0.0014226
-0.00102683
0.00328095
-0.00509621
0.00631329
-0.0118232
0.0106303
-0.021375
0.0159542
-0.0331961
0.0216163
-0.046072
0.0269187
-0.0584161
-0.069585
0.0315539
0.00177173
0.00392821
-0.0072527
0.0073065
-0.0152015
0.0118702
-0.0259387
0.0171532
-0.0384792
0.0224255
-0.0513442
0.0271139
-0.0631045
-0.0734957
0.0310246
0.00458996
0.00826561
-0.0188772
0.012956
-0.030629
0.0180493
-0.0435725
0.0228398
-0.0561347
0.0269107
-0.0671754
-0.0767756
0.0301906
0.00915244
0.0138429
0.0186281
-0.0483577
0.0228922
-0.0603989
0.0263781
-0.0706613
-0.0795156
0.0291181
0.0188978
0.0226287
-0.0641298
0.0255824
-0.073615
-0.0818033
0.0278702
0.0221004
0.0245834
-0.076098
-0.0837147
0.0264947
0.0234313
0.0250296
-0.00602812
0.0494368
-0.00498888
0.0613845
-0.00257051
0.0646619
0.00121746
0.0546624
0.00562363
0.0244329
0.0102896
-0.0238425
0.0147276
-0.0776001
0.017885
-0.118871
0.0194776
-0.138302
0.0183234
-0.145109
0.0151317
-0.152789
0.0157244
-0.135159
0.0214694
-0.0686999
0.0271694
0.0363037
0.0312465
0.104214
0.0330327
0.143972
0.0315192
0.158011
0.0278149
0.175471
0.0263103
0.176662
0.0290923
0.064509
0.0329645
-0.0082443
0.0342619
-0.105802
0.0338696
-0.156515
0.0336386
-0.187796
0.0336628
-0.218228
0.0340643
-0.0503623
0.0349735
0.0135306
0.0354799
0.190724
-0.19123
0.0347457
0.29939
-0.298656
0.0782129
-0.0775086
-0.00392788
0.0492988
-0.00243865
0.0598952
0.000296738
0.0619265
0.00407177
0.0508874
0.00802735
0.0204773
0.0121672
-0.0279823
0.0160445
-0.0814773
0.018631
-0.121457
0.0198135
-0.139484
0.0185717
-0.143867
0.0150847
-0.149302
0.0149794
-0.135054
0.0205034
-0.0742239
0.0265564
0.0302507
0.0310571
0.0997137
0.0331365
0.141892
0.0316985
0.159449
0.0279952
0.179175
0.0265314
0.178125
0.0292645
0.0617759
0.0330674
-0.0120471
0.0342711
-0.107006
0.0338348
-0.156079
0.0336425
-0.187604
0.0336624
-0.218248
0.0340279
-0.0507279
0.0349234
0.0126351
0.0353889
0.190258
0.0346634
0.300116
0.0788646
-0.00166599
0.0486627
0.00021532
0.0580139
0.0032287
0.0589132
0.00688787
0.0472282
0.0104056
0.0169596
0.0140217
-0.0315984
0.0173452
-0.0848009
0.0193774
-0.123489
0.0201436
-0.14025
0.0188356
-0.142559
0.0151542
-0.14562
0.0143542
-0.134254
0.0195467
-0.0794164
0.0259212
0.0238761
0.0308426
0.0947924
0.0332223
0.139513
0.0318781
0.160793
0.0282014
0.182851
0.0267764
0.17955
0.0294357
0.0591166
0.0331567
-0.0157681
0.0342655
-0.108115
0.0337821
-0.155596
0.0336254
-0.187447
0.0336475
-0.21827
0.033984
-0.0510644
0.0348667
0.0117524
0.0352894
0.189835
0.0345751
0.30083
0.0794594
0.000659494
0.0475294
0.00293248
0.0557409
0.00612428
0.0557214
0.00962962
0.0437229
0.0127238
0.0138654
0.0158328
-0.0347074
0.0186144
-0.0875825
0.0201132
-0.124988
0.0204624
-0.140599
0.0191024
-0.141199
0.0153283
-0.141846
0.0138639
-0.13279
0.0186171
-0.0841697
0.025269
0.0172243
0.0306046
0.0894568
0.0332895
0.136828
0.0320587
0.162024
0.0284351
0.186475
0.0270437
0.180942
0.0296042
0.0565562
0.0332308
-0.0193947
0.0342442
-0.109128
0.0337114
-0.155063
0.0335863
-0.187322
0.033617
-0.2183
0.0339319
-0.0513794
0.0348032
0.0108811
0.0351817
0.189457
0.0344816
0.30153
0.0799928
0.00296687
0.045973
0.00557456
0.0531333
0.00891555
0.0523804
0.012248
0.0403904
0.0149499
0.0111635
0.0175823
-0.0373399
0.0198379
-0.0898381
0.020827
-0.125977
0.0207645
-0.140537
0.0193598
-0.139794
0.0155896
-0.138076
0.0135175
-0.130718
0.0177357
-0.0883879
0.0246061
0.0103539
0.0303447
0.0837181
0.0333371
0.133835
0.0322403
0.163121
0.0286965
0.190019
0.0273309
0.182307
0.0297683
0.0541188
0.0332884
-0.0229147
0.0342069
-0.110047
0.033623
-0.154479
0.0335243
-0.187223
0.0335696
-0.218346
0.0338715
-0.0516812
0.0347323
0.0100203
0.0350662
0.189123
0.0343835
0.302213
0.0804606
0.0051909
0.0440115
0.00808364
0.0502405
0.0115368
0.0489272
0.0146959
0.0372313
0.0170561
0.00880335
0.0192544
-0.0395382
0.0210033
-0.091587
0.0215075
-0.126482
0.0210439
-0.140073
0.0195959
-0.138346
0.0159161
-0.134396
0.0133175
-0.128119
0.0169242
-0.0919946
0.0239381
0.00334
0.0300644
0.0775918
0.0333639
0.130536
0.0324223
0.164062
0.0289842
0.193457
0.0276348
0.183657
0.0299262
0.0518273
0.0333282
-0.0263167
0.0341529
-0.110872
0.0335169
-0.153843
0.0334387
-0.187145
0.0335043
-0.218411
0.033802
-0.0519789
0.0346537
0.00916852
0.0349431
0.188834
0.0342815
0.302875
0.0808588
0.00725649
0.0416811
0.0103963
0.0471007
0.0139323
0.0453912
0.0169332
0.0342304
0.019021
0.00671557
0.0208361
-0.0413533
0.0220995
-0.0928503
0.0221433
-0.126525
0.0212948
-0.139225
0.0198002
-0.136852
0.0162838
-0.13088
0.0132591
-0.125094
0.016203
-0.0949385
0.0232718
-0.00372887
0.0297651
0.0710985
0.033368
0.126933
0.0326032
0.164827
0.0292957
0.196764
0.0279512
0.185001
0.0300759
0.0497026
0.0333492
-0.02959
0.0340819
-0.111604
0.0333932
-0.153154
0.0333286
-0.18708
0.03342
-0.218503
0.0337228
-0.0522818
0.0345669
0.00832443
0.0348127
0.188588
0.0341762
0.303511
0.0811834
0.00910858
0.0390216
0.0124616
0.0437477
0.016059
0.0417938
0.0189302
0.0313592
0.0208253
0.00482045
0.0223179
-0.0428459
0.0231171
-0.0936496
0.0227239
-0.126132
0.0215115
-0.138013
0.0199633
-0.135304
0.0166681
-0.127585
0.0133296
-0.121756
0.0155897
-0.0971987
0.0226146
-0.0107537
0.0294481
0.064265
0.0333474
0.123034
0.032781
0.165394
0.0296276
0.199918
0.0282758
0.186353
0.030215
0.0477635
0.0333502
-0.0327252
0.0339934
-0.112248
0.0332518
-0.152413
0.0331936
-0.187022
0.0333155
-0.218624
0.0336334
-0.0525997
0.0344714
0.00748646
0.0346752
0.188384
0.0340682
0.304118
0.0814306
0.0107108
0.0360718
0.014245
0.0402135
0.0178883
0.0381505
0.0206692
0.0285783
0.0224563
0.00303335
0.0236934
-0.044083
0.0240483
-0.0940045
0.0232392
-0.125323
0.0216885
-0.136462
0.0200779
-0.133693
0.0170455
-0.124552
0.013509
-0.118219
0.0150871
-0.0987768
0.021981
-0.0176476
0.029114
0.057132
0.0332998
0.118848
0.0329526
0.165741
0.0299751
0.202895
0.0286037
0.187724
0.0303412
0.0460259
0.0333301
-0.0357141
0.033887
-0.112805
0.0330925
-0.151618
0.0330335
-0.186963
0.0331902
-0.218781
0.0335329
-0.0529424
0.0343666
0.00665284
0.0345309
0.18822
0.0339581
0.304691
0.0815969
0.0120503
0.0328697
0.0157329
0.0365309
0.0194107
0.0344728
0.0221476
0.0258414
0.0239172
0.00126371
0.0249592
-0.045125
0.0248867
-0.093932
0.0236801
-0.124116
0.021821
-0.134603
0.0201384
-0.13201
0.0173947
-0.121809
0.0137718
-0.114596
0.014696
-0.099701
0.021378
-0.0243296
0.028763
0.0497471
0.0332225
0.114388
0.0331146
0.165849
0.0303332
0.205677
0.0289302
0.189127
0.0304522
0.0445039
0.0332882
-0.0385501
0.0337624
-0.113279
0.0329154
-0.150771
0.032848
-0.186896
0.0330434
-0.218977
0.0334207
-0.0533197
0.0342519
0.00582166
0.0343797
0.188092
0.0338463
0.305224
0.0816785
0.0131456
0.029458
0.0169392
0.0327373
0.02064
0.030772
0.0233776
0.0231039
0.0252253
-0.000583969
0.0261128
-0.0460125
0.0256263
-0.0934455
0.0240388
-0.122529
0.0219043
-0.132468
0.0201413
-0.130247
0.0176972
-0.119364
0.0140894
-0.110988
0.0144081
-0.10002
0.0208114
-0.030733
0.0283937
0.0421648
0.0331124
0.10967
0.033263
0.165698
0.0306959
0.208244
0.0292504
0.190573
0.0305459
0.0432083
0.0332234
-0.0412276
0.0336192
-0.113675
0.0327201
-0.149872
0.0326374
-0.186813
0.0328749
-0.219214
0.0332959
-0.0537407
0.0341267
0.00499085
0.0342219
0.187997
0.0337334
0.305713
0.081672
0.0140552
0.025898
0.017911
0.0288815
0.0216184
0.0270646
0.0244157
0.0203065
0.0263822
-0.00255038
0.0271429
-0.0467732
0.0262584
-0.0925609
0.0243088
-0.120579
0.0219343
-0.130094
0.0200843
-0.128397
0.0179371
-0.117217
0.0144338
-0.107485
0.0142104
-0.0997963
0.0202805
-0.0368031
0.0280035
0.0344418
0.0329663
0.104707
0.0333932
0.165271
0.0310573
0.21058
0.0295597
0.192071
0.0306204
0.0421476
0.0331351
-0.0437424
0.0334571
-0.113997
0.0325067
-0.148922
0.0324021
-0.186708
0.0326848
-0.219497
0.0331579
-0.0542137
0.0339905
0.00415825
0.0340574
0.18793
0.0336198
0.30615
0.081574
0.014881
0.0222898
0.0187314
0.025031
0.0224163
0.0233797
0.0253097
0.0174131
0.0274197
-0.00466038
0.0280462
-0.0473997
0.0267715
-0.0912862
0.0244846
-0.118293
0.0219071
-0.127516
0.0199666
-0.126457
0.0181023
-0.115353
0.0147791
-0.104162
0.0140857
-0.0991029
0.0197795
-0.0424969
0.0275875
0.0266337
0.0327802
0.0995141
0.0335006
0.164551
0.0314113
0.212669
0.0298541
0.193628
0.0306743
0.0413274
0.0330227
-0.0460908
0.0332758
-0.11425
0.0322751
-0.147921
0.032143
-0.186576
0.0324734
-0.219827
0.0330061
-0.0547464
0.0338426
0.0033217
0.0338861
0.187886
0.033506
0.306531
0.0813808
0.0157572
0.0187853
0.0195116
0.0212766
0.0231272
0.0197641
0.0261254
0.0144149
0.0283646
-0.00689956
0.0288219
-0.047857
0.0271606
-0.0896249
0.0245631
-0.115695
0.0218203
-0.124773
0.0197896
-0.124426
0.0181845
-0.113748
0.0151039
-0.101081
0.0140149
-0.0980139
0.0192969
-0.0477789
0.027138
0.0187927
0.0325496
0.0941024
0.03358
0.163521
0.0317515
0.214497
0.0301299
0.195249
0.0307067
0.0407506
0.0328857
-0.0482698
0.033075
-0.114439
0.0320255
-0.146871
0.0318609
-0.186412
0.0322414
-0.220208
0.03284
-0.055345
0.0336825
0.00247915
0.0337082
0.187861
0.0333924
0.306846
0.0810891
0.0168211
0.0155731
0.0203721
0.0177256
0.0238559
0.0162803
0.0269315
0.0113394
0.0292375
-0.00920553
0.0294664
-0.048086
0.0274231
-0.0875816
0.0245461
-0.112818
0.0216757
-0.121903
0.0195585
-0.122309
0.018181
-0.11237
0.0153906
-0.098291
0.0139792
-0.0966024
0.0188187
-0.0526184
0.0266451
0.0109662
0.0322694
0.0884781
0.0336263
0.162164
0.0320721
0.216052
0.0303847
0.196937
0.0307174
0.0404179
0.0327239
-0.0502762
0.0328544
-0.114569
0.0317581
-0.145775
0.0315569
-0.186211
0.0319895
-0.22064
0.0326594
-0.0560149
0.0335097
0.00162882
0.0335235
0.187847
0.0332794
0.307091
0.0806954
0.018172
0.0128243
0.0214163
0.0144813
0.0246991
0.0129975
0.0277842
0.00825421
0.0300444
-0.0114657
0.0299699
-0.0480115
0.0275545
-0.0851662
0.0244334
-0.109697
0.0214713
-0.118941
0.0192743
-0.120112
0.0180888
-0.111185
0.0156238
-0.095826
0.0139607
-0.0949393
0.0183307
-0.0569884
0.0260971
0.00319983
0.0319337
0.0826416
0.0336341
0.160463
0.0323673
0.217318
0.0306164
0.198688
0.0307075
0.0403268
0.0325368
-0.0521055
0.0326135
-0.114646
0.0314734
-0.144635
0.031232
-0.185969
0.0317186
-0.221127
0.0324642
-0.0567605
0.0333236
0.000769426
0.033332
0.187838
0.0331675
0.307255
0.0801962
0.0198393
0.0106151
0.0227091
0.0116115
0.0257252
0.00998141
0.0287139
0.00526547
0.0307756
-0.0135274
0.0303151
-0.047551
0.0275389
-0.08239
0.024205
-0.106363
0.0211816
-0.115917
0.018917
-0.117847
0.0178943
-0.110162
0.0157832
-0.0937149
0.0139389
-0.093095
0.0178194
-0.060869
0.0254828
-0.00446349
0.0315359
0.0765885
0.0335979
0.158401
0.0326315
0.218285
0.0308245
0.200495
0.0306786
0.0404728
0.0323244
-0.0537514
0.0323515
-0.114673
0.0311716
-0.143455
0.0308872
-0.185685
0.0314293
-0.221669
0.0322548
-0.0575861
0.0331239
-9.96377e-05
0.0331337
0.187829
0.0330571
0.307332
0.0795879
0.0217909
0.00886551
0.0242775
0.00912489
0.0269679
0.00729099
0.0297174
0.00251601
0.0314199
-0.0152299
0.0304947
-0.0466258
0.0273666
-0.079262
0.0238424
-0.102839
0.020784
-0.112859
0.0184716
-0.115535
0.0175876
-0.109278
0.015853
-0.0919803
0.0138989
-0.091141
0.0172718
-0.0642419
0.0247906
-0.0119823
0.0310681
0.070311
0.0335123
0.155957
0.0328593
0.218938
0.0310132
0.202341
0.0306377
0.0408483
0.0320873
-0.055201
0.0320678
-0.114654
0.0308531
-0.14224
0.0305241
-0.185356
0.0311232
-0.222268
0.0320319
-0.0584948
0.0329099
-0.000977633
0.0329286
0.18781
0.0329488
0.307311
0.078867
0.0239827
0.00731835
0.0261227
0.0069849
0.0284241
0.00498958
0.030765
0.000175137
0.0319486
-0.0164136
0.0305355
-0.0452126
0.0271222
-0.0758487
0.0234706
-0.0991872
0.0204055
-0.109794
0.0180543
-0.113184
0.0172456
-0.108469
0.0158678
-0.0906024
0.0138668
-0.08914
0.0167013
-0.0670763
0.0240067
-0.0192877
0.0305202
0.0637975
0.0333721
0.153105
0.0330449
0.219265
0.0311858
0.2042
0.0305962
0.0414379
0.0318265
-0.0564312
0.0317646
-0.114592
0.03052
-0.140996
0.0301455
-0.184981
0.0308054
-0.222928
0.0317978
-0.0594872
0.0326813
-0.00186106
0.0327165
0.187775
0.0328429
0.307185
0.07803
0.0265424
0.0054798
0.0281393
0.00538798
0.0298633
0.00326557
0.0317053
-0.00166685
0.0322178
-0.0169261
0.0304337
-0.0434285
0.0269323
-0.0723473
0.0232774
-0.0955323
0.0202306
-0.106747
0.0178189
-0.110772
0.0169986
-0.107649
0.0159104
-0.0895142
0.0138931
-0.0871227
0.0161785
-0.0693618
0.023188
-0.0262973
0.0298981
0.0570874
0.0331552
0.149848
0.0331808
0.219239
0.0313376
0.206043
0.0305199
0.0422556
0.0315425
-0.0574538
0.0314465
-0.114496
0.0301796
-0.139729
0.029761
-0.184563
0.0304799
-0.223647
0.0315633
-0.0605706
0.0324404
-0.0027382
0.0324974
0.187718
0.0327398
0.306943
0.0770727
0.0536105
0.00633459
-0.0544653
0.0545505
0.00444801
0.0571348
0.00068127
0.0612642
-0.00579628
0.0652672
-0.0209291
0.0668234
-0.0449847
0.0650789
-0.0706027
0.0608888
-0.0913423
0.0555851
-0.101443
0.0497433
-0.10493
0.0450299
-0.102936
0.0405155
-0.0849997
0.0344244
-0.0810316
0.0327845
-0.0677219
0.0363014
-0.0298142
0.0385209
0.0548679
0.0377103
0.150659
0.0375474
0.219402
0.0423879
0.201202
0.0495916
0.0350519
0.0546344
-0.0624966
0.0550454
-0.114907
0.052938
-0.137621
0.0519639
-0.183589
0.0497716
-0.221455
0.0478712
-0.0586702
0.0465347
-0.00140171
0.0449625
0.18929
0.0463464
0.305559
0.075291
0.0638573
0.0066932
-0.064216
0.0643123
0.00399304
0.0660501
-0.0010565
0.0689784
-0.00872464
0.0715221
-0.0234728
0.0717998
-0.0452624
0.0691409
-0.0679438
0.0642963
-0.0864976
0.0586418
-0.095789
0.0526699
-0.0989584
0.0477729
-0.0980388
0.0434191
-0.0806459
0.0374986
-0.0751111
0.0352368
-0.0654601
0.0380667
-0.0326441
0.0400578
0.0528768
0.0393842
0.151332
0.0400561
0.21873
0.045842
0.195417
0.0533879
0.027506
0.0582678
-0.0673765
0.0583405
-0.11498
0.0559115
-0.135192
0.0547094
-0.182387
0.0523097
-0.219055
0.0501909
-0.0565514
0.0485335
0.000255626
0.0467509
0.191073
0.0485291
0.303781
0.0732575
0.0721219
0.00682501
-0.0722537
0.072643
0.00347199
0.0739119
-0.0023254
0.0758729
-0.0106857
0.0771898
-0.0247897
0.0763476
-0.0444202
0.0729549
-0.0645511
0.067717
-0.0812597
0.0619015
-0.0899735
0.0558678
-0.0929246
0.0507391
-0.0929101
0.0464614
-0.0763682
0.0407936
-0.0694434
0.0379059
-0.0625723
0.0399382
-0.0346763
0.0416308
0.0511842
0.041112
0.151851
0.0427622
0.21708
0.0498036
0.188375
0.0576048
0.0197047
0.062187
-0.0719587
0.0618279
-0.11462
0.0590441
-0.132409
0.0575845
-0.180927
0.0549474
-0.216418
0.0525681
-0.0541721
0.0505684
0.00225533
0.048603
0.193038
0.0508421
0.301541
0.0709442
0.0787611
0.0067301
-0.0786662
0.0793868
0.00284633
0.0803602
-0.00329877
0.081583
-0.0119085
0.0819651
-0.0251717
0.0803079
-0.0427631
0.0764502
-0.0606934
0.0710162
-0.0758256
0.0651375
-0.0840949
0.0591355
-0.0869226
0.053834
-0.0876085
0.0496035
-0.0721376
0.0442732
-0.0641132
0.0408314
-0.0591305
0.0419546
-0.0357995
0.0432643
0.0498744
0.0429103
0.152205
0.0457781
0.214212
0.0542652
0.179888
0.0622267
0.0117432
0.066365
-0.0760969
0.0654979
-0.113753
0.0623314
-0.129242
0.0605838
-0.179179
0.0576747
-0.213509
0.0550026
-0.0515
0.052627
0.0046309
0.0505032
0.195162
0.053305
0.29874
0.0683262
0.0841414
0.00649403
-0.0839053
0.0847877
0.00220008
0.0855375
-0.00404857
0.08621
-0.012581
0.0859383
-0.0249001
0.0837839
-0.0406086
0.0797183
-0.0566278
0.074269
-0.0703764
0.0684195
-0.0782454
0.0625174
-0.0810205
0.0570928
-0.0821839
0.0528535
-0.0678984
0.0479172
-0.0591768
0.0440438
-0.0552571
0.0441676
-0.0359234
0.0449716
0.0490705
0.0448033
0.152373
0.0491822
0.209834
0.0592574
0.169813
0.0672507
0.00374991
0.0707872
-0.0796335
0.0693434
-0.11231
0.0657732
-0.125672
0.0637052
-0.177111
0.0604844
-0.210288
0.057479
-0.0484946
0.054694
0.00741589
0.0524541
0.197402
0.0559351
0.295259
0.0653781
0.0886042
0.00616377
-0.0882739
0.0892206
0.00158358
0.0897867
-0.00461464
0.0900574
-0.0128518
0.0893584
-0.024201
0.0869518
-0.038202
0.0828605
-0.0525365
0.0775232
-0.0650391
0.0717701
-0.0724923
0.0660143
-0.0752647
0.0605307
-0.0767004
0.0562276
-0.0635952
0.0517024
-0.0546517
0.0475529
-0.0511076
0.0466268
-0.0349973
0.0467623
0.0489349
0.0468316
0.152304
0.0530606
0.203604
0.06482
0.158053
0.0726684
-0.00409843
0.0754326
-0.0823977
0.0733521
-0.110229
0.0693666
-0.121686
0.0669443
-0.174689
0.0633644
-0.206708
0.0599785
-0.0451086
0.0567539
0.0106404
0.0544595
0.199696
0.058753
0.290965
0.0620749
0.0925034
0.00575224
-0.0920918
0.0930548
0.00103216
0.0934606
-0.00502042
0.0934438
-0.012835
0.0924766
-0.0232338
0.089978
-0.0357035
0.0859731
-0.0485315
0.0808274
-0.0598934
0.0752213
-0.0668862
0.0696337
-0.069677
0.0641622
-0.0712289
0.059754
-0.059187
0.0556096
-0.0505072
0.0513463
-0.0468443
0.0493588
-0.0330098
0.0486427
0.049651
0.0490669
0.15188
0.057519
0.195152
0.0709761
0.144596
0.0784542
-0.0115766
0.0802678
-0.0842112
0.077506
-0.107467
0.0731068
-0.117287
0.0702944
-0.171877
0.0662984
-0.202712
0.0624799
-0.0412901
0.0587911
0.0143292
0.0565269
0.20196
0.0617842
0.285708
0.0583934
0.0961175
0.00529373
-0.095659
0.0965848
0.00056486
0.0968463
-0.00528191
0.0966239
-0.0126126
0.0954912
-0.0221011
0.0929939
-0.0332062
0.0891346
-0.0446722
0.08422
-0.0549788
0.0788013
-0.0614675
0.0733835
-0.0642593
0.0679945
-0.0658399
0.0634733
-0.0546658
0.0596309
-0.0466648
0.0553971
-0.0426105
0.0523713
-0.029984
0.0506352
0.0513871
0.0516441
0.150871
0.0626954
0.184101
0.0777259
0.129566
0.0845612
-0.0184119
0.0852465
-0.0848966
0.0817819
-0.104003
0.0769877
-0.112493
0.0737461
-0.168635
0.0692659
-0.198232
0.0649618
-0.036986
0.0607908
0.0185002
0.0586721
0.204079
0.0650594
0.279321
0.0543138
0.0996341
0.00481806
-0.0991584
0.100015
0.000183672
0.100147
-0.00541407
0.0997741
-0.0122393
0.0985392
-0.0208662
0.0960907
-0.0307577
0.0924028
-0.0409843
0.0877301
-0.0503061
0.082533
-0.0562704
0.0772759
-0.0590022
0.0720264
-0.0605904
0.0674323
-0.0500717
0.0637773
-0.0430098
0.0596627
-0.0384958
0.0556721
-0.0259934
0.0528275
0.0542317
0.0548219
0.148877
0.0687754
0.170148
0.0850475
0.113294
0.0909136
-0.024278
0.0903087
-0.0842917
0.0861519
-0.0998459
0.0810012
-0.107342
0.0772875
-0.164921
0.0722431
-0.193187
0.0674034
-0.0321462
0.0627422
0.0231614
0.0609221
0.205899
0.0686159
0.271627
0.0498248
0.103172
0.00434221
-0.102696
0.103474
-0.000118924
0.103491
-0.00543016
0.103003
-0.0117513
0.101704
-0.0195676
0.0993247
-0.0283784
0.0958166
-0.0374762
0.0913799
-0.0458694
0.0864315
-0.051322
0.0813284
-0.0538991
0.0762498
-0.0555118
0.0716725
-0.0454944
0.0680839
-0.0394213
0.0640947
-0.0345066
0.0592914
-0.0211901
0.0554826
0.0580404
0.0590751
0.145284
0.0759906
0.153232
0.0928759
0.0964085
0.0973998
-0.0288019
0.0953824
-0.0822744
0.090586
-0.0950494
0.0851388
-0.101895
0.0809044
-0.160687
0.075203
-0.187486
0.0697838
-0.0267271
0.0646427
0.0283025
0.0633185
0.207223
0.072497
0.262448
0.0449269
0.106798
0.00387907
-0.106334
0.107029
-0.000350177
0.106945
-0.00534604
0.106367
-0.011174
0.105031
-0.0182309
0.102728
-0.0260755
0.0994001
-0.0341485
0.0951883
-0.0416577
0.0905045
-0.0466382
0.0855626
-0.0489571
0.080658
-0.0506072
0.0762134
-0.0410498
0.0726085
-0.0358164
0.0686536
-0.0305517
0.0633185
-0.0158551
0.0591808
0.0621782
0.0651302
0.139335
0.0845313
0.133831
0.10105
0.0798895
0.103864
-0.0316159
0.10039
-0.0788004
0.0950551
-0.0897142
0.0893916
-0.0962317
0.0845813
-0.155877
0.0781161
-0.181021
0.0720863
-0.0206973
0.0665042
0.0338846
0.0659211
0.207806
0.0767512
0.251618
0.0396374
0.11054
0.00343916
-0.1101
0.110711
-0.000521382
0.110544
-0.00517826
0.109897
-0.0105273
0.108542
-0.0168757
0.106318
-0.0238514
0.103168
-0.0309985
0.0991732
-0.0376631
0.0947555
-0.0422205
0.0899995
-0.0442012
0.0852565
-0.0458641
0.0810425
-0.0368358
0.0774176
-0.0321915
0.0733333
-0.0264674
0.067915
-0.0104367
0.0647478
0.0653453
0.0736877
0.130395
0.0943003
0.113218
0.109248
0.0649417
0.110111
-0.0324782
0.105264
-0.073954
0.0995365
-0.0839866
0.0937516
-0.0904469
0.088302
-0.150427
0.0809522
-0.173671
0.0743024
-0.0140475
0.0683606
0.0398264
0.0688115
0.207356
0.081431
0.238999
0.033994
0.114418
0.00302806
-0.114007
0.114539
-0.000642315
0.114304
-0.00494386
0.113606
-0.00982885
0.112249
-0.0155186
0.110106
-0.0217088
0.107129
-0.0280218
0.103351
-0.0338849
0.0991892
-0.0380587
0.0946529
-0.0396649
0.0900676
-0.0412788
0.0861247
-0.032893
0.0825566
-0.0286234
0.0782161
-0.0221268
0.0732431
-0.00546373
0.0726683
0.0659201
0.0846872
0.118376
0.104629
0.0932762
0.116965
0.0526064
0.115933
-0.0314467
0.109965
-0.0679862
0.10402
-0.0780414
0.0982122
-0.0846389
0.0920531
-0.144268
0.0836843
-0.165302
0.0764385
-0.00680169
0.0702775
0.0459874
0.0720966
0.205536
0.0865916
0.224504
0.0280605
0.118445
0.00264935
-0.118066
0.118523
-0.000720793
0.118238
-0.00465876
0.117505
-0.00909527
0.11616
-0.0141742
0.114103
-0.0196517
0.111294
-0.0252131
0.107736
-0.0303268
0.103816
-0.0341386
0.0995289
-0.0353775
0.0951213
-0.0368712
0.0914348
-0.0292065
0.0880232
-0.0252118
0.0834965
-0.0176001
0.0793813
-0.0013485
0.082394
0.0629074
0.096761
0.104009
0.114323
0.0757142
0.123659
0.0432702
0.121192
-0.0289794
0.114494
-0.0612888
0.108511
-0.0720584
0.102768
-0.0788958
0.0958268
-0.137326
0.0862946
-0.15577
0.0785252
0.000967781
0.072365
0.0521476
0.0759102
0.201991
0.0922904
0.208123
0.0219322
0.122638
0.00230525
-0.122294
0.12268
-0.000763324
0.122359
-0.00433708
0.121605
-0.00834189
0.120287
-0.0128557
0.11832
-0.0176849
0.115675
-0.0225679
0.112341
-0.0269931
0.108652
-0.0304495
0.104632
-0.0313577
0.100439
-0.0326782
0.0969766
-0.0257439
0.0937852
-0.0220204
0.0893805
-0.0131955
0.0863121
0.00171986
0.092521
0.0566986
0.107868
0.0886623
0.122283
0.0612993
0.129063
0.0364898
0.125892
-0.025808
0.118905
-0.0543018
0.113031
-0.0661849
0.107416
-0.0732805
0.0996273
-0.129538
0.0887867
-0.144929
0.0806299
0.00912456
0.0747893
0.0579882
0.0804149
0.196366
0.0985839
0.189954
0.0157432
0.127015
0.00199649
-0.126706
0.127027
-0.000775609
0.126681
-0.00399095
0.125921
-0.00758248
0.12464
-0.0115745
0.122769
-0.0158136
0.120284
-0.0200832
0.117177
-0.0238856
0.113714
-0.0269864
0.10997
-0.0276146
0.106028
-0.0287361
0.102777
-0.0224927
0.099823
-0.0190663
0.0959264
-0.00929887
0.0939013
0.00374503
0.101823
0.0487767
0.116741
0.0737446
0.128247
0.0497932
0.133368
0.031369
0.130185
-0.0226255
0.123286
-0.0474028
0.11761
-0.0605091
0.11215
-0.0678203
0.103477
-0.120865
0.0912042
-0.132656
0.0828764
0.0174523
0.0777833
0.0630814
0.085815
0.188334
0.105523
0.170246
0.00967347
0.131595
0.00172245
-0.131321
0.131582
-0.000762483
0.131222
-0.00363076
0.130469
-0.00682913
0.129235
-0.0103405
0.127464
-0.0140426
0.125138
-0.0177574
0.122256
-0.0210034
0.119018
-0.0237488
0.115556
-0.0241523
0.111888
-0.0250682
0.108862
-0.0194672
0.106148
-0.0163524
0.103016
-0.00616605
0.101893
0.00486721
0.109987
0.0406828
0.123536
0.0601961
0.132814
0.0405146
0.137073
0.0271102
0.134285
-0.0198376
0.127737
-0.0408547
0.122287
-0.0550586
0.116967
-0.0625008
0.107423
-0.11132
0.0936601
-0.118893
0.085474
0.0256385
0.0816932
0.0668621
0.0923489
0.177678
0.113143
0.149452
0.00395244
0.136401
0.00148161
-0.136161
0.136368
-0.000728593
0.136002
-0.00326523
0.135265
-0.00609215
0.134086
-0.00916183
0.13242
-0.0123759
0.130252
-0.0155892
0.127591
-0.0183431
0.124581
-0.0207384
0.121401
-0.020972
0.118019
-0.0216868
0.115242
-0.0166904
0.112778
-0.0138883
0.110449
-0.00383676
0.110048
0.00526827
0.117389
0.0333417
0.12918
0.048405
0.136832
0.0328626
0.140673
0.0232688
0.138378
-0.0175421
0.132341
-0.0348181
0.127104
-0.0498217
0.121866
-0.0572621
0.111543
-0.100998
0.0963732
-0.103723
0.0887467
0.0332649
0.0869451
0.0686637
0.100237
0.164386
0.121446
0.128243
-0.00114673
0.141455
0.00127155
-0.141245
0.141405
-0.000678289
0.141042
-0.00290171
0.14033
-0.00538028
0.139213
-0.0080451
0.137654
-0.0108172
0.135642
-0.0135772
0.133199
-0.0159001
0.130418
-0.0179568
0.127516
-0.0180702
0.124427
-0.018598
0.121913
-0.0141764
0.119718
-0.0116937
0.11808
-0.00219806
0.118215
0.00513253
0.124502
0.0270556
0.134499
0.0384077
0.140903
0.0264585
0.14448
0.0196915
0.142588
-0.0156496
0.137159
-0.0293889
0.132116
-0.0447795
0.12686
-0.0520053
0.115958
-0.0900964
0.0997045
-0.0874699
0.0931622
0.0398073
0.0939333
0.0678926