/*--------------------------------*- C++ -*----------------------------------*\
  =========                 |
  \\      /  F ield         | OpenFOAM: The Open Source CFD Toolbox
   \\    /   O peration     | Website:  https://openfoam.org
    \\  /    A nd           | Version:  7
     \\/     M anipulation  |
\*---------------------------------------------------------------------------*/
FoamFile
{
    version     2.0;
    format      ascii;
    class       surfaceScalarField;
    location    "240";
    object      phi;
}
// * * * * * * * * * * * * * * * * * * * * * * * * * * * * * * * * * * * * * //

dimensions      [0 3 -1 0 0 0 0];

internalField   nonuniform List<scalar> 
4136
(
-0.000985175
-0.000517481
-0.00301035
-0.0010464
-0.00126947
-0.000984663
0.000467182
-0.00300875
0.000977691
-0.00552443
0.00124621
-0.00824675
0.00138711
-0.0110824
0.00148792
-0.0140245
0.00159207
-0.017088
0.00171179
-0.0202904
0.00184837
-0.023648
0.00200075
0.00216665
-0.0271742
-0.000979862
0.00144704
-0.00299661
0.00299444
-0.00550523
0.00375483
-0.00822123
0.0041031
-0.0110509
0.00431759
-0.0139872
0.00452834
-0.0170448
0.00476947
-0.0202415
0.005045
-0.0235934
0.00535267
0.00569139
-0.0271181
-0.000970781
0.00241783
-0.00297395
0.00499761
-0.00546968
0.00625056
-0.00817423
0.00680766
-0.0109931
0.00713647
-0.0139187
0.0074539
-0.0169656
0.00781635
-0.0201513
0.00823069
-0.0234923
0.00869373
0.00920401
-0.0270049
-0.000957436
0.00337526
-0.00294077
0.00698094
-0.00541777
0.00872756
-0.00810576
0.00949565
-0.010909
0.00993976
-0.0138191
0.0103639
-0.0168502
0.0108475
-0.0200199
0.0114004
-0.0233448
0.0120185
0.0126996
-0.0268404
-0.000939852
0.00431511
-0.0028971
0.00893819
-0.00534951
0.01118
-0.0080158
0.0121619
-0.0107987
0.0127226
-0.0136884
0.0132537
-0.016699
0.0138581
-0.0198477
0.0145491
-0.0231511
0.015322
0.0161731
-0.0266246
-0.000918064
0.00523318
-0.00284296
0.0108631
-0.00526491
0.0136019
-0.00790435
0.0148014
-0.010662
0.0154803
-0.0135266
0.0161183
-0.0165117
0.0168431
-0.0196344
0.0176718
-0.0229114
0.018599
0.0196188
-0.0263572
-0.000892117
0.00612529
-0.0027784
0.0127494
-0.00516397
0.0159875
-0.00777141
0.0174088
-0.010499
0.0182079
-0.0133338
0.0189531
-0.0162886
0.0197979
-0.0193803
0.0207635
-0.0226257
0.0218444
0.0230315
-0.0260384
-0.000862065
0.00698736
-0.00270347
0.0145908
-0.00504673
0.0183308
-0.00761698
0.0199791
-0.0103098
0.0209008
-0.01311
0.0217533
-0.0160297
0.0227176
-0.0190855
0.0238194
-0.0222941
0.025053
0.0264057
-0.0256683
-0.000827975
0.00781533
-0.00261824
0.016381
-0.0049132
0.0206257
-0.00744106
0.0225069
-0.0100943
0.023554
-0.0128553
0.0245142
-0.015735
0.0255973
-0.0187501
0.0268344
-0.0219169
0.0282199
0.0297361
-0.0252474
-0.000789925
0.00860526
-0.00252279
0.0181139
-0.00476343
0.0228663
-0.00724367
0.0249872
-0.00985262
0.026163
-0.0125696
0.0272312
-0.0154048
0.0284325
-0.0183743
0.0298039
-0.0214945
0.0313401
0.0330176
-0.024776
-0.00074801
0.00935327
-0.00241722
0.0197831
-0.00459746
0.0250466
-0.00702482
0.0274145
-0.00958473
0.0287229
-0.0122532
0.0298997
-0.0150392
0.0312185
-0.0179583
0.032723
-0.0210271
0.0344089
0.0362452
-0.0242548
-0.000702337
0.0100556
-0.00230164
0.0213824
-0.00441535
0.0271603
-0.00678455
0.0297837
-0.0092907
0.031229
-0.0119061
0.0325151
-0.0146383
0.0339506
-0.0175025
0.0355873
-0.0205153
0.0374217
0.0394145
-0.0236846
-0.000653034
0.0107086
-0.00217621
0.0229056
-0.00421718
0.0292013
-0.00652288
0.0320894
-0.00897058
0.0336767
-0.0115285
0.035073
-0.0142022
0.0366244
-0.017007
0.038392
-0.0199596
0.0403743
0.0425213
-0.0230664
-0.000600247
0.0113089
-0.00204109
0.0243464
-0.00400306
0.0311632
-0.00623986
0.0343262
-0.00862442
0.0360613
-0.0111203
0.0375689
-0.0137313
0.0392353
-0.016472
0.0411328
-0.0193604
0.0432627
0.0455623
-0.0224015
-0.000544143
0.011853
-0.00189649
0.0256988
-0.00377311
0.0330399
-0.00593555
0.0364887
-0.00825231
0.038378
-0.0106819
0.0399985
-0.0132256
0.041779
-0.0158975
0.0438048
-0.018718
0.0460831
0.0485357
-0.0216913
-0.000484916
0.0123379
-0.00174267
0.0269565
-0.00352751
0.0348247
-0.00561005
0.0385712
-0.00785431
0.0406223
-0.0102133
0.0423575
-0.0126854
0.044251
-0.0152836
0.046403
-0.0180321
0.0488317
0.0514414
-0.0209378
-0.000422781
0.0127607
-0.00157992
0.0281137
-0.00326646
0.0365112
-0.00526346
0.0405682
-0.00743051
0.0427894
-0.00971471
0.0446417
-0.012111
0.0466473
-0.0146296
0.0489215
-0.0173007
0.0515027
0.0542836
-0.0201429
-0.00035798
0.0131187
-0.00140861
0.0291643
-0.00299021
0.0380928
-0.00489594
0.0424739
-0.00698108
0.0448745
-0.00918635
0.046847
-0.0115036
0.0489646
-0.0139378
0.0513557
-0.0165226
0.0540876
0.0570735
-0.0193125
-0.000290782
0.0134095
-0.00122915
0.0301027
-0.00269906
0.0395627
-0.00450769
0.0442826
-0.00650612
0.0468729
-0.00862796
0.0489688
-0.0108622
0.0511989
-0.0132054
0.0536988
-0.0156757
0.056558
0.0598383
-0.0184405
-0.000221496
0.013631
-0.00104205
0.0309232
-0.00239336
0.040914
-0.00409896
0.0459882
-0.00600604
0.04878
-0.00804033
0.0510031
-0.0101898
0.0533484
-0.0124554
0.0559644
-0.0148017
0.0589044
0.0626207
-0.0175842
-0.000150519
0.0137815
-0.000847835
0.0316206
-0.00207349
0.0421397
-0.00367006
0.0475847
-0.00548114
0.0505911
-0.00742354
0.0529455
-0.00947986
0.0554047
-0.0116626
0.0581471
-0.0139824
0.0612241
0.0649008
-0.0162624
-7.86068e-05
0.0138601
-0.000646939
0.0321889
-0.00173989
0.0432327
-0.00322137
0.0490662
-0.0049316
0.0523013
-0.00677819
0.0547921
-0.00873584
0.0573623
-0.0108135
0.0602248
-0.0130146
0.0634252
0.0672213
-0.0153352
-9.63011e-06
0.0138697
-0.000439145
0.0326184
-0.00139313
0.0441866
-0.00275348
0.0504266
-0.00435788
0.0539057
-0.00610529
0.0565395
-0.00796244
0.0592195
-0.0099362
0.0621986
-0.0120449
0.0655339
0.0694416
-0.0142651
6.98854e-05
0.0137999
-0.000222028
0.0329103
-0.00103409
0.0449987
-0.00226709
0.0516596
-0.00376066
0.0553993
-0.00540581
0.0581846
-0.00716158
0.0609753
-0.0090319
0.0640689
-0.0110351
0.0675371
0.0715468
-0.0131403
0.000144288
0.0136556
1.72924e-05
0.0330373
-0.000664507
0.0456805
-0.00176259
0.0527576
-0.00314058
0.0567773
-0.00468026
0.0597243
-0.00633262
0.0626276
-0.00809737
0.0658337
-0.00999022
0.0694299
0.0735376
-0.0119811
0.000212564
0.013443
0.000210214
0.0330397
-0.000285909
0.0461766
-0.001241
0.0537127
-0.0024986
0.0580349
-0.00392903
0.0611548
-0.00547521
0.0641738
-0.00713162
0.0674901
-0.00891142
0.0712097
0.075417
-0.0107908
0.000279763
0.0131632
0.000425193
0.0328942
0.000107713
0.0464941
-0.000705292
0.0545257
-0.00183555
0.0591651
-0.00315262
0.0624718
-0.00458978
0.065611
-0.00613522
0.0690355
-0.00779869
0.0728732
0.0771802
-0.00956192
0.000346185
0.0128171
0.000640956
0.0325995
0.000488515
0.0466465
-0.000154955
0.0551692
-0.00115202
0.0601622
-0.00235175
0.0636716
-0.00367698
0.0669362
-0.00510897
0.0704675
-0.00665332
0.0744175
0.0788212
-0.0082943
0.0004098
0.0124073
0.000855623
0.0321536
0.000883437
0.0466187
0.000405391
0.0556473
-0.000449919
0.0610175
-0.00152726
0.0647489
-0.00273756
0.0681465
-0.00405359
0.0717835
-0.00547679
0.0758407
0.0803362
-0.00699176
0.000469637
0.0119376
0.00106739
0.0315559
0.00128165
0.0464045
0.000978189
0.0559507
0.000270774
0.0617249
-0.000680362
0.0657
-0.00177247
0.0692386
-0.00296995
0.072981
-0.00427057
0.0771414
0.0817226
-0.00565696
0.000524867
0.0114127
0.00127357
0.0308072
0.00167985
0.0459982
0.00156058
0.05607
0.00100863
0.0622769
0.000187295
0.0665214
-0.000783395
0.0702093
-0.0018592
0.0740568
-0.00303628
0.0783184
0.0829784
-0.00429209
0.000574598
0.0108382
0.00147142
0.0299104
0.00207486
0.0453948
0.0021489
0.0559959
0.00176153
0.0626643
0.00107926
0.0672036
0.0002279
0.0710607
-0.000724511
0.0750092
-0.00177412
0.0793681
0.0841038
-0.00289954
0.000617982
0.0102202
0.00165822
0.0288701
0.00246293
0.0445901
0.00273975
0.0557191
0.00252648
0.0628775
0.00198876
0.0677414
0.00126816
0.0717813
0.000435065
0.0758423
-0.000476535
0.0802797
0.0851144
-0.00148716
0.000654265
0.00956591
0.00183115
0.0276932
0.00283976
0.0435814
0.00332902
0.0552299
0.00330041
0.0629061
0.00291484
0.0681269
0.00232629
0.0723698
0.00162231
0.0765463
0.00082809
0.0810739
0.0860329
-9.03934e-05
0.000682801
0.0088831
0.0019873
0.0263887
0.00320064
0.0423681
0.00391181
0.0545187
0.00407947
0.0627385
0.00385484
0.0683516
0.00340314
0.0728215
0.00282663
0.0771228
0.00216622
0.0817343
0.0867611
0.00143802
0.000703075
0.00818003
0.00212357
0.0249683
0.00354033
0.0409513
0.00448243
0.0535766
0.00485893
0.062362
0.00480554
0.0684049
0.00449695
0.0731301
0.00405212
0.0775676
0.00352727
0.0822591
0.0873506
0.00293773
0.00071475
0.00746528
0.00223698
0.023446
0.00385316
0.0393352
0.00503428
0.0523955
0.0056331
0.0617631
0.00576288
0.0682752
0.00560484
0.0732881
0.00529504
0.0778774
0.00490265
0.0826515
0.0878041
0.00444916
0.000717696
0.00674758
0.00232495
0.0218388
0.0041331
0.037527
0.00555981
0.0509688
0.00639509
0.0609279
0.0067217
0.0679486
0.00672299
0.0732868
0.00655174
0.0780487
0.00629197
0.0829113
0.0881221
0.00597397
0.000711984
0.0060356
0.00238521
0.0201655
0.00437389
0.0355383
0.00605051
0.0492922
0.0071367
0.0598417
0.00767568
0.0674096
0.00784706
0.0731154
0.00781937
0.0780764
0.00769394
0.0830367
0.0883054
0.00751064
0.000697902
0.0053377
0.00241601
0.0184474
0.00456919
0.0333852
0.00649691
0.0473644
0.00784828
0.0584903
0.0086171
0.0666408
0.00897186
0.0727607
0.00909479
0.0779534
0.00910634
0.0830252
0.0883542
0.00905759
0.000675956
0.00466174
0.00241634
0.0167071
0.00471296
0.0310885
0.00688875
0.0451886
0.00851862
0.0568604
0.00953657
0.0656228
0.0100909
0.0722064
0.0103739
0.0776705
0.0105263
0.0828727
0.0882677
0.0106129
0.000646866
0.00401487
0.00238607
0.0149679
0.00479983
0.0286748
0.00721524
0.0427732
0.00913489
0.0549408
0.0104227
0.064335
0.0111959
0.0714331
0.0116514
0.077215
0.0119505
0.0825737
0.0880437
0.0121744
0.000611546
0.00340333
0.00232609
0.0132533
0.00482558
0.0261753
0.00746541
0.0401334
0.00968267
0.0527235
0.0112617
0.062756
0.0122765
0.0704183
0.0129203
0.0765712
0.0133743
0.0821197
0.0876791
0.0137389
0.000571073
0.00283226
0.00223835
0.011586
0.0047877
0.0236259
0.00762871
0.0372924
0.0101462
0.050206
0.0120375
0.0608646
0.0133195
0.0691363
0.0141719
0.0757188
0.0147922
0.0814994
0.087169
0.0153023
0.000526644
0.00230561
0.00212582
0.00998685
0.00468588
0.0210659
0.00769584
0.0342824
0.0105087
0.0473932
0.0127313
0.058642
0.0143089
0.0675587
0.0153946
0.0746331
0.0161969
0.0806972
0.086506
0.0168598
0.000479528
0.00182608
0.00199239
0.00847399
0.00452247
0.0185358
0.00765972
0.0311452
0.0107533
0.0442997
0.0133219
0.0560733
0.015225
0.0656556
0.0165737
0.0732844
0.0175786
0.0796923
0.0856794
0.0184052
0.000431014
0.00139507
0.00184264
0.00706237
0.00430263
0.0160758
0.00751666
0.0279312
0.0108639
0.0409524
0.0137859
0.0531514
0.0160442
0.0633973
0.0176903
0.0716383
0.0189247
0.0784579
0.0846735
0.0199305
0.000382361
0.00101271
0.00168158
0.00576315
0.00403425
0.0137231
0.00726748
0.0246979
0.0108272
0.0373927
0.0140988
0.0498799
0.0167391
0.060757
0.0187207
0.0696567
0.020218
0.0769606
0.0214251
0.000334749
0.000677959
0.00151434
0.00458355
0.00372745
0.01151
0.00691842
0.0215069
0.0106338
0.0336773
0.0142363
0.0462773
0.0172786
0.0577147
0.0196356
0.0672996
0.000289225
0.000388735
0.00134586
0.00352692
0.00339379
0.0094621
0.00648138
0.0184194
0.0102813
0.0298774
0.0141768
0.0423818
0.0176289
0.0542625
0.000246642
0.000142093
0.00118053
0.00259303
0.00304524
0.00759738
0.00597331
0.0154913
0.00977543
0.0260753
0.0139037
0.000207598
-6.55055e-05
0.00102192
0.00177871
0.002693
0.0059263
0.00541458
0.0127697
0.000172363
-0.000237868
0.000872479
0.00107859
0.00234645
0.00445232
0.000140829
-0.000378697
0.000733349
0.000486074
0.000112505
-0.000491202
-5.72664e-06
8.65771e-05
-0.000577779
0.0344365
1.66154e-05
0.000902215
0.0335208
-0.000370756
0.00128646
0.0325814
-0.001969
0.00290843
0.0316305
-0.0027169
0.00366776
0.0306363
-0.00485544
0.00584968
0.0296013
-0.00615181
0.00718683
0.0284988
-0.00880292
0.00990537
0.0273288
-0.0105224
0.0116923
0.0260776
-0.0136121
0.0148633
0.0247478
-0.0155881
0.0169179
0.0233519
-0.0190888
0.0204848
0.0219046
-0.0210365
0.0224839
0.0204597
-0.0249928
0.0264377
0.0191049
-0.0263271
0.0276818
-0.0312579
0.0327787
0.0345634
0.000808531
0.0337635
0.000429143
0.0329279
-0.00113339
0.032071
-0.00186002
0.0311603
-0.00394474
0.0302018
-0.00519327
0.0291664
-0.0077675
0.0280597
-0.00941564
0.0268618
-0.0124143
0.0255859
-0.0143122
0.0242257
-0.0177286
0.0228192
-0.01963
0.021358
-0.0235316
0.0199774
-0.0249465
-0.029721
0.0346851
0.00147879
0.0339976
0.00111659
0.0332624
-0.000398167
0.0324992
-0.00109676
0.0316717
-0.0031173
0.0307924
-0.00431393
0.029827
-0.00680211
0.0287876
-0.0083763
0.0276467
-0.0112733
0.0264254
-0.0130908
0.0251012
-0.0164044
0.0237286
-0.0182575
0.0222605
-0.0220635
0.0208581
-0.0235441
-0.0281755
0.0348011
0.00203304
0.0342212
0.00169647
0.0335817
0.000241298
0.0329085
-0.000423533
0.0321609
-0.00236966
0.0313578
-0.00351087
0.03046
-0.0059043
0.029486
-0.00740235
0.0284004
-0.0101877
0.0272327
-0.0119232
0.0259447
-0.0151164
0.0246057
-0.0169185
0.0231395
-0.0205973
0.021719
-0.0221236
-0.0265994
0.0349112
0.00247715
0.0344337
0.00217398
0.0338847
0.000790346
0.0332971
0.000164027
0.0326256
-0.00169811
0.0318951
-0.00278038
0.0310614
-0.00507066
0.0301499
-0.00649076
0.0291167
-0.0091545
0.0280005
-0.010807
0.0267477
-0.0138636
0.0254401
-0.0156109
0.0239807
-0.0191378
0.022544
-0.0206869
-0.0249932
0.0350153
0.00281716
0.0346344
0.00255493
0.0341719
0.00125281
0.033664
0.000671951
0.0330652
-0.00109928
0.0324035
-0.00211873
0.0316306
-0.00429775
0.0307783
-0.00563842
0.0297947
-0.00817097
0.028727
-0.00973933
0.0275083
-0.0126449
0.0262291
-0.0143317
0.0247788
-0.0176875
0.0233284
-0.0192365
-0.023356
0.0351132
0.0030593
0.0348232
0.00284497
0.0344413
0.00163466
0.03401
0.00110322
0.0334788
-0.000568025
0.032882
-0.00152196
0.0321662
-0.00358191
0.0313697
-0.0048419
0.0304328
-0.00723413
0.0294103
-0.00871684
0.0282242
-0.0114588
0.0269705
-0.013078
0.0255305
-0.0162475
0.0240687
-0.0177747
-0.0216888
0.0352047
0.00320996
0.0349996
0.00305004
0.0346934
0.00194091
0.0343332
0.00146337
0.0338657
-0.000100469
0.0333295
-0.000985796
0.0326669
-0.00291935
0.0319226
-0.00409757
0.0310294
-0.00634096
0.0300486
-0.00773604
0.0288936
-0.0103038
0.0276628
-0.0118472
0.0262334
-0.0148181
0.0247621
-0.0163035
-0.019993
0.0352897
0.00327565
0.0351635
0.00317621
0.0349277
0.00217673
0.0346346
0.00175642
0.0342238
0.000310351
0.0337453
-0.000507298
0.0331319
-0.00230601
0.032436
-0.00340164
0.0315835
-0.00548843
0.0306408
-0.00679338
0.0295151
-0.00917809
0.028305
-0.010637
0.0268857
-0.0133988
0.0254065
-0.0148243
-0.0182711
0.035368
0.00326299
0.0353145
0.00322966
0.0351437
0.00234761
0.0349118
0.00198831
0.0345542
0.000667962
0.0341284
-8.15695e-05
0.0335604
-0.001738
0.032909
-0.00275018
0.032094
-0.00467349
0.031186
-0.00588533
0.0300876
-0.00807975
0.028896
-0.0094454
0.0274863
-0.0119892
0.0260004
-0.0133384
-0.0165254
0.0354396
0.00317876
0.0354526
0.00321666
0.0353408
0.00245938
0.0351648
0.00216432
0.0348574
0.000975361
0.0344765
0.000299355
0.0339517
-0.00121325
0.0333407
-0.00213914
0.0325602
-0.00389305
0.0316833
-0.0050084
0.0306102
-0.00700663
0.0294351
-0.00827032
0.0280342
-0.0105883
0.0265426
-0.0118467
-0.0147588
0.0355043
0.00302982
0.0355773
0.00314361
0.0355188
0.0025179
0.0353936
0.00228948
0.0351302
0.00123878
0.0347922
0.000637381
0.034305
-0.000726078
0.0337305
-0.00156463
0.0329814
-0.00314396
0.0321323
-0.00415924
0.0310821
-0.00595646
0.0299217
-0.00710996
0.0285287
-0.00919525
0.0270322
-0.0103502
-0.012974
0.035562
0.00282314
0.0356886
0.00301703
0.0356775
0.00252901
0.0355976
0.00236934
0.0353733
0.00146317
0.0350742
0.000936406
0.0346202
-0.000272051
0.034078
-0.00102239
0.033357
-0.00242295
0.0325323
-0.00333459
0.0315027
-0.00492688
0.0303553
-0.00596256
0.0289693
-0.00780918
0.0274685
-0.00884949
-0.0111738
0.0356127
0.00256577
0.0357862
0.00284349
0.0358166
0.00249863
0.0357763
0.00240962
0.0355869
0.00165265
0.0353212
0.00120207
0.0348966
0.000152525
0.0343828
-0.000508574
0.0336863
-0.00172648
0.032883
-0.00253128
0.0318717
-0.00391555
0.0307356
-0.00482646
0.0293556
-0.0064292
0.0278514
-0.00734526
-0.00936077
0.0356563
0.00226482
0.0358701
0.00262971
0.035936
0.00243273
0.0359295
0.00241607
0.0357702
0.00181203
0.035535
0.00143726
0.0351313
0.000556217
0.0346449
-2.22212e-05
0.0339691
-0.00105062
0.033184
-0.00174627
0.0321886
-0.00292008
0.0310622
-0.00370007
0.0296875
-0.0050545
0.0281804
-0.00583821
-0.0075375
0.0356927
0.00192749
0.03594
0.00238242
0.0360354
0.0023373
0.0360571
0.00239436
0.0359228
0.00194629
0.0357113
0.00164874
0.0353328
0.00093481
0.034859
0.000451523
0.0342051
-0.000396698
0.0334353
-0.000976489
0.0324532
-0.00193797
0.031335
-0.00258186
0.0299648
-0.00368433
0.0284557
-0.00432904
-0.0057064
0.0357218
0.00156103
0.0359958
0.00210845
0.0361147
0.00221838
0.0361588
0.00235028
0.0360443
0.00206077
0.0358525
0.00184052
0.0354904
0.00129694
0.0350341
0.000907831
0.0343927
0.000244683
0.0336366
-0.000220399
0.0326658
-0.000967139
0.0315541
-0.0014702
0.0301878
-0.00231799
0.0286771
-0.00281841
-0.00386964
0.0357437
0.00117271
0.0360374
0.00181467
0.0361738
0.00208203
0.0362344
0.00228964
0.0361347
0.00216055
0.0359575
0.0020177
0.0356081
0.00164632
0.0351668
0.00134911
0.0345348
0.000876716
0.0337836
0.000530819
0.032826
-9.60448e-06
0.031719
-0.000363159
0.0303561
-0.000955071
0.028845
-0.00130734
-0.00202956
0.0357582
0.000769842
0.0360649
0.00150797
0.0362126
0.00193432
0.036284
0.00221828
0.0361938
0.00225071
0.0360263
0.00218521
0.0356859
0.00198667
0.0352526
0.00178244
0.0346299
0.00149948
0.0338911
0.0012696
0.032929
0.000952455
0.0318281
0.000737773
0.0304683
0.000404693
0.0289581
0.000202898
-0.000189619
0.0357654
0.0360781
0.0362311
0.0363073
0.0362217
0.036059
0.035723
0.0352945
0.0346764
0.0339405
0.0329845
0.0318877
0.030531
0.0290205
0.201989
-0.000184835
0.202431
-0.000442764
0.203104
-0.000673032
0.203927
-0.000822686
0.20489
-0.000962435
0.205924
-0.00103436
0.207021
-0.00109657
0.208121
-0.00110058
0.209223
-0.0011018
0.21028
-0.00105727
0.211301
-0.00102049
0.212249
-0.000948801
0.213145
-0.000895318
0.213958
-0.000812721
-0.000755983
0.214714
0.19256
-0.000360766
0.192979
-0.000861646
0.193616
-0.00131044
0.194396
-0.00160233
0.195311
-0.00187804
0.196298
-0.00202079
0.197348
-0.00214676
0.198405
-0.00215729
0.199466
-0.00216339
0.200487
-0.00207782
0.201474
-0.00200806
0.202394
-0.00186793
0.203263
-0.00176429
0.204052
-0.00160197
-0.00149261
0.204788
0.183571
-0.000527668
0.183959
-0.00125053
0.18456
-0.00191066
0.185295
-0.00233737
0.186167
-0.00274988
0.187109
-0.00296296
0.18812
-0.00315773
0.18914
-0.00317783
0.190172
-0.00319516
0.191166
-0.00307221
0.192134
-0.00297521
0.193035
-0.00276949
0.193891
-0.00262023
0.194669
-0.00237975
-0.00222053
0.195397
0.175001
-0.000685716
0.175357
-0.00160651
0.175918
-0.00247217
0.176607
-0.00302589
0.177435
-0.0035782
0.178334
-0.00386202
0.17931
-0.00413335
0.180299
-0.0041673
0.181309
-0.00420449
0.182285
-0.00404863
0.183241
-0.00393156
0.184135
-0.00366305
0.184988
-0.00347324
0.185764
-0.0031555
-0.00295013
0.186493
0.166831
-0.000835135
0.167151
-0.00192689
0.167673
-0.00299376
0.168312
-0.00366564
0.169097
-0.00436236
0.169952
-0.00471762
0.170894
-0.00507554
0.171856
-0.00512855
0.172847
-0.00519636
0.173812
-0.00501273
0.174764
-0.00488419
0.175657
-0.00455581
0.176515
-0.00433134
0.177296
-0.00393684
-0.00368933
0.178036
0.159042
-0.000976081
0.159324
-0.00220913
0.159805
-0.00347455
0.160393
-0.00425402
0.161132
-0.00510093
0.161942
-0.00552815
0.162851
-0.00598454
0.163785
-0.00606247
0.164762
-0.00617358
0.165718
-0.00596802
0.166672
-0.0058381
0.167569
-0.00545305
0.168438
-0.00520073
0.169231
-0.00472969
-0.00444448
0.169986
0.151616
-0.00110852
0.151858
-0.00245108
0.152297
-0.00391404
0.152831
-0.00478805
0.153522
-0.00579188
0.154285
-0.00629093
0.15516
-0.00685914
0.156065
-0.00696823
0.157029
-0.00713712
0.157977
-0.00691617
0.158936
-0.00679653
0.159841
-0.00635842
0.160726
-0.0060861
0.161535
-0.00553867
-0.0052208
0.162312
0.144536
-0.00123212
0.144736
-0.00265125
0.145134
-0.00431204
0.145611
-0.00526444
0.146252
-0.00643285
0.146963
-0.00700244
0.147801
-0.00769697
0.148676
-0.00784354
0.149625
-0.00808637
0.150567
-0.00785722
0.151531
-0.00776118
0.152447
-0.00727419
0.153352
-0.00699095
0.15418
-0.00636734
-0.0060226
0.154982
0.137785
-0.00134609
0.137943
-0.00280922
0.1383
-0.00466854
0.138715
-0.00567987
0.139304
-0.00702147
0.13996
-0.00765856
0.140758
-0.00849473
0.141599
-0.00868487
0.142532
-0.00901927
0.143465
-0.00878975
0.144436
-0.00873238
0.145363
-0.00820139
0.14629
-0.00791771
0.147141
-0.0072184
-0.0068535
0.147972
0.131348
-0.00144921
0.131465
-0.00292588
0.13178
-0.00498331
0.132131
-0.00603147
0.132665
-0.00755549
0.133262
-0.0082548
0.134015
-0.00924846
0.134818
-0.00948765
0.135731
-0.00993257
0.136653
-0.00971103
0.13763
-0.00970926
0.138568
-0.00913996
0.139518
-0.00886794
0.140394
-0.00809382
-0.00771657
0.141257
0.125209
-0.00153988
0.125287
-0.00300358
0.125559
-0.00525562
0.125845
-0.00631737
0.126323
-0.00803283
0.126854
-0.00878652
0.12756
-0.00995383
0.128319
-0.0102465
0.129208
-0.0108219
0.130114
-0.0106172
0.131095
-0.0106898
0.132043
-0.0100888
0.133018
-0.00984235
0.133919
-0.00899491
-0.00861444
0.134817
0.119355
-0.00161625
0.119397
-0.00304601
0.119626
-0.00548405
0.119845
-0.00653721
0.120264
-0.00845154
0.120727
-0.00924938
0.12138
-0.0106064
0.122088
-0.0109552
0.122949
-0.0116822
0.123835
-0.0115031
0.124816
-0.0116709
0.125773
-0.0110457
0.126771
-0.0108409
0.127699
-0.00992234
-0.00954936
0.128633
0.113771
-0.00167655
0.113783
-0.00305788
0.113965
-0.00566648
0.114121
-0.00669253
0.114479
-0.00880952
0.114869
-0.00963979
0.115464
-0.0112016
0.116116
-0.0116075
0.116942
-0.0125074
0.117802
-0.0123631
0.118779
-0.0126484
0.119741
-0.0120077
0.120763
-0.0118626
0.121717
-0.0108762
-0.0105232
0.122691
0.108446
-0.00171935
0.108432
-0.00304438
0.108566
-0.0058004
0.10866
-0.00678686
0.108955
-0.00910441
0.109271
-0.00995548
0.109804
-0.0117349
0.110393
-0.0121966
0.111177
-0.0132912
0.112004
-0.0131901
0.112973
-0.0136171
0.113936
-0.0129707
0.114979
-0.0129059
0.115959
-0.011856
-0.0115375
0.116973
0.103367
-0.00174384
0.103333
-0.00301058
0.103417
-0.00588356
0.103455
-0.00682531
0.103684
-0.00933343
0.103925
-0.010196
0.104391
-0.0122015
0.104911
-0.0127164
0.105647
-0.0140268
0.106433
-0.0139766
0.107387
-0.014571
0.108346
-0.0139295
0.109408
-0.0139681
0.110413
-0.0128605
-0.0125935
0.111469
0.098525
-0.00175001
0.0984753
-0.00296088
0.0985063
-0.0059146
0.098495
-0.00681402
0.0986553
-0.00949371
0.0988222
-0.0103629
0.0992171
-0.0125965
0.0996624
-0.0131617
0.100343
-0.0147072
0.101081
-0.0147143
0.102013
-0.0155032
0.102961
-0.0148782
0.104039
-0.0150458
0.105066
-0.0138879
-0.0136917
0.106164
0.0939088
-0.00173872
0.0938466
-0.00289866
0.0938255
-0.00589358
0.0937709
-0.00675933
0.0938599
-0.00958278
0.0939566
-0.0104595
0.0942744
-0.0129143
0.0946415
-0.0135287
0.0952591
-0.0153249
0.0959395
-0.0153947
0.0968422
-0.0164058
0.0977734
-0.0158094
0.0988618
-0.0161342
0.0999094
-0.0149354
-0.0148322
0.10105
0.0895089
-0.00171162
0.0894363
-0.00282607
0.0893651
-0.00582237
0.0892729
-0.00666711
0.0892894
-0.0095993
0.0893206
-0.0104907
0.0895559
-0.0131496
0.0898431
-0.0138159
0.0903896
-0.0158714
0.0910044
-0.0160095
0.0918691
-0.0172705
0.0927746
-0.0167148
0.0938682
-0.0172279
0.0949324
-0.0159996
-0.0160144
0.0961146
0.085316
-0.00167101
0.085234
-0.00274413
0.0851163
-0.0057046
0.0849913
-0.00654216
0.0849357
-0.00954368
0.0849066
-0.0104616
0.0850545
-0.0132976
0.0852622
-0.0140236
0.0857286
-0.0163378
0.0862706
-0.0165515
0.087088
-0.0180879
0.0879581
-0.0175849
0.0890505
-0.0183203
0.0901268
-0.0170759
-0.017237
0.0913493
0.0813208
-0.00161953
0.0812295
-0.00265288
0.0810704
-0.00554551
0.0809163
-0.00638801
0.0807912
-0.00941857
0.080707
-0.0103774
0.0807641
-0.0133547
0.0808941
-0.0141536
0.0812709
-0.0167145
0.0817344
-0.017015
0.0824936
-0.0188472
0.0833182
-0.0184095
0.0844022
-0.0194043
0.0854846
-0.0181582
-0.0184976
0.0867453
0.0775142
-0.00155987
0.0774132
-0.00255187
0.0772191
-0.00535134
0.0770381
-0.006207
0.0768484
-0.00922887
0.0767132
-0.0102423
0.0766785
-0.0133199
0.0767339
-0.014209
0.0770114
-0.0169921
0.0773929
-0.0173965
0.0780815
-0.0195357
0.0788504
-0.0191785
0.0799176
-0.0204715
0.0809986
-0.0192392
-0.0197937
0.0822947
0.0738875
-0.00149448
0.0737763
-0.00244066
0.0735536
-0.00512868
0.0733471
-0.0060005
0.0730997
-0.0089815
0.0729168
-0.0100594
0.0727921
-0.0131952
0.0727758
-0.0141927
0.072946
-0.0171623
0.073244
-0.0176945
0.0738471
-0.0201388
0.0745512
-0.0198826
0.0755921
-0.0215123
0.0766628
-0.02031
-0.0211219
0.077991
0.0704317
-0.0014253
0.0703102
-0.00231923
0.0700654
-0.00488383
0.0698344
-0.00576952
0.0695376
-0.00868474
0.0693089
-0.00983066
0.0690994
-0.0129856
0.0690136
-0.0141069
0.0690712
-0.01722
0.0692855
-0.0179088
0.0697869
-0.0206402
0.0704191
-0.0205147
0.0714212
-0.0225145
0.0724718
-0.0213606
-0.0224795
0.0738295
0.0671384
-0.0013537
0.0670073
-0.00218817
0.0667458
-0.00462233
0.0664917
-0.00551538
0.0661541
-0.00834714
0.0658811
-0.00955771
0.0655948
-0.0126993
0.0654404
-0.0139526
0.0653844
-0.017164
0.0655148
-0.0180391
0.0658986
-0.021024
0.0664542
-0.0210703
0.0674006
-0.0234609
0.0684204
-0.0223804
-0.0238677
0.0698085
0.0639995
-0.00128051
0.06386
-0.00204869
0.0635864
-0.00434873
0.0633112
-0.00524021
0.0629408
-0.00797667
0.0626255
-0.00924238
0.0622721
-0.012346
0.0620494
-0.0137298
0.0618837
-0.0169983
0.0619286
-0.018084
0.0621817
-0.0212772
0.0626588
-0.0215474
0.0635267
-0.0243289
0.0645031
-0.0233567
-0.0252936
0.065929
0.0610075
-0.00120614
0.0608613
-0.00190251
0.0605791
-0.00406657
0.0602859
-0.00494698
0.0598895
-0.00758027
0.059535
-0.0088879
0.0591247
-0.0119356
0.0588344
-0.0134396
0.0585671
-0.016731
0.058523
-0.0180399
0.0586376
-0.0213917
0.0590355
-0.0219453
0.0597988
-0.0250921
0.0607194
-0.0242773
-0.0267641
0.0621898
0.0581553
-0.00113081
0.0580043
-0.00175152
0.0577164
-0.0037787
0.0574088
-0.00463933
0.0569923
-0.00716381
0.0566034
-0.008499
0.0561454
-0.0114776
0.0557904
-0.0130846
0.0554321
-0.0163727
0.0552948
-0.0179026
0.0552688
-0.0213657
0.0555826
-0.0222591
0.056217
-0.0257265
0.057082
-0.0251423
-0.0282596
0.0585775
0.0554364
-0.00105473
0.0552825
-0.00159756
0.0549914
-0.00348767
0.0546733
-0.00432119
0.0542422
-0.00673267
0.0538248
-0.00808167
0.0533279
-0.0109806
0.0529134
-0.0126701
0.0524754
-0.0159348
0.0522421
-0.0176693
0.0520783
-0.0212019
0.0522898
-0.0224706
0.0527685
-0.0262052
0.0536162
-0.0259901
-0.0297146
0.0550712
0.0528448
-0.000978244
0.0526896
-0.00144241
0.052398
-0.00319604
0.0520735
-0.00399666
0.0516329
-0.00629206
0.0511939
-0.00764274
0.0506662
-0.0104529
0.0502001
-0.012204
0.0496926
-0.0154273
0.0493641
-0.0173407
0.0490664
-0.0209042
0.0491479
-0.0225521
0.0494107
-0.026468
0.0503063
-0.0268857
-0.0311131
0.0517048
0.0503749
0.050219
0.0499314
0.0496025
0.0491601
0.0487042
0.0481567
0.047645
0.047081
0.0466582
0.0462387
0.0461705
0.0461402
0.0469363
0.0486019
0.213209
0.00150457
0.211768
0.00144126
0.210399
0.00136835
0.209106
0.00129285
0.207892
0.00121487
0.206757
0.00113453
0.205705
0.00105195
0.204738
0.000967243
0.203857
0.000880541
0.203065
0.000791965
0.202364
0.000701649
0.201754
0.000609726
0.201238
0.000516337
0.200816
0.000421625
0.20049
0.000325738
0.200261
0.000228826
0.20013
0.000131056
0.200098
3.26633e-05
0.200164
-6.6577e-05
-0.000166112
0.20033
0.20335
0.00294261
0.201973
0.0028181
0.200667
0.00267484
0.199433
0.00252652
0.198275
0.00237337
0.197194
0.00221565
0.196192
0.00205358
0.195272
0.00188741
0.194435
0.00171737
0.193683
0.00154372
0.193018
0.00136671
0.192441
0.00118661
0.191954
0.00100369
0.191557
0.000818232
0.191253
0.000630522
0.191041
0.000440854
0.190922
0.00024953
0.190898
5.69309e-05
0.190968
-0.000137009
-0.000331549
0.191134
0.194026
0.00431379
0.192713
0.00413055
0.191469
0.00391938
0.190294
0.00370081
0.189192
0.00347521
0.188165
0.00324297
0.187214
0.00300444
0.186342
0.00275997
0.185549
0.00250988
0.184838
0.00225456
0.184211
0.00199437
0.183668
0.00172972
0.18321
0.00146099
0.18284
0.00118859
0.182558
0.000912957
0.182364
0.0006345
0.18226
0.000353676
0.182246
7.11089e-05
0.182322
-0.000213563
-0.000498999
0.18249
0.185188
0.00561865
0.18394
0.00537936
0.182756
0.00510272
0.181641
0.00481641
0.180595
0.00452102
0.179621
0.00421707
0.17872
0.00390501
0.177895
0.00358525
0.177146
0.00325827
0.176477
0.00292451
0.175886
0.00258449
0.175377
0.00223871
0.174951
0.00188768
0.174607
0.00153193
0.174348
0.00117201
0.174174
0.000808469
0.174086
0.000441889
0.174084
7.31394e-05
0.174169
-0.00029847
-0.00067094
0.174341
0.176796
0.00685784
0.17561
0.00656529
0.174488
0.00622558
0.17343
0.00587402
0.17244
0.00551142
0.171518
0.00513845
0.170668
0.00475567
0.169889
0.00436356
0.169185
0.00396269
0.168556
0.00355362
0.168003
0.00313695
0.167529
0.00271331
0.167133
0.00228331
0.166817
0.00184761
0.166583
0.00140685
0.166429
0.000961726
0.166358
0.000512937
0.16637
6.17464e-05
0.166465
-0.000393394
-0.000849299
0.166643
0.168812
0.00803196
0.167688
0.00768904
0.166625
0.00728865
0.165625
0.00687428
0.164689
0.00644699
0.16382
0.00600764
0.163019
0.00555688
0.162287
0.00509526
0.161627
0.00462342
0.161038
0.00414203
0.160523
0.00365179
0.160083
0.00315342
0.159719
0.00264766
0.159431
0.00213526
0.159221
0.00161697
0.159089
0.00109361
0.159036
0.000565995
0.159062
3.59991e-05
0.159168
-0.000499641
-0.00103561
0.159354
0.161202
0.00914152
0.16014
0.00875117
0.159136
0.00829249
0.158193
0.00781772
0.157311
0.00732824
0.156494
0.00682512
0.155742
0.00630906
0.155056
0.00578071
0.154439
0.00524075
0.153891
0.00468995
0.153414
0.0041291
0.153008
0.00355903
0.152675
0.00298057
0.152416
0.00239455
0.152231
0.00180185
0.152121
0.00120335
0.152087
0.000600061
0.152127
-4.21825e-06
0.152246
-0.000618273
-0.0012309
0.152441
0.153937
0.0101869
0.152936