/*--------------------------------*- C++ -*----------------------------------*\
  =========                 |
  \\      /  F ield         | OpenFOAM: The Open Source CFD Toolbox
   \\    /   O peration     | Website:  https://openfoam.org
    \\  /    A nd           | Version:  7
     \\/     M anipulation  |
\*---------------------------------------------------------------------------*/
FoamFile
{
    version     2.0;
    format      ascii;
    class       volScalarField;
    location    "5";
    object      p;
}
// * * * * * * * * * * * * * * * * * * * * * * * * * * * * * * * * * * * * * //

dimensions      [0 2 -2 0 0 0 0];

internalField   nonuniform List<scalar> 
2125
(
-0.356334
-0.36224
-0.364193
-0.364481
-0.363355
-0.360897
-0.357284
-0.352693
-0.347231
-0.340862
-0.357169
-0.362932
-0.364795
-0.365001
-0.363801
-0.361275
-0.3576
-0.352958
-0.347447
-0.340951
-0.358831
-0.364311
-0.365994
-0.366038
-0.364688
-0.362027
-0.358226
-0.353481
-0.347874
-0.34112
-0.361305
-0.366365
-0.367779
-0.367581
-0.366007
-0.363142
-0.359151
-0.354249
-0.3485
-0.341341
-0.364572
-0.369079
-0.370138
-0.369617
-0.367745
-0.364607
-0.360361
-0.355247
-0.34931
-0.341537
-0.368606
-0.372434
-0.373053
-0.372131
-0.369886
-0.366405
-0.361838
-0.356454
-0.35029
-0.341638
-0.373376
-0.376406
-0.376503
-0.375103
-0.372411
-0.368519
-0.363561
-0.357841
-0.351361
-0.34206
-0.378851
-0.38097
-0.380466
-0.378512
-0.375303
-0.370929
-0.365513
-0.359396
-0.352504
-0.342315
-0.384998
-0.3861
-0.38492
-0.38234
-0.378541
-0.373618
-0.367676
-0.361093
-0.353733
-0.342432
-0.391784
-0.391771
-0.389842
-0.386564
-0.38211
-0.376572
-0.370035
-0.362916
-0.355023
-0.342389
-0.399178
-0.397954
-0.395208
-0.391169
-0.385993
-0.379779
-0.372582
-0.364855
-0.356355
-0.342146
-0.407151
-0.404624
-0.400997
-0.396134
-0.390181
-0.383234
-0.375316
-0.366911
-0.357721
-0.341663
-0.41567
-0.411756
-0.407187
-0.401446
-0.394663
-0.386936
-0.378244
-0.369095
-0.359124
-0.340909
-0.424707
-0.419325
-0.413759
-0.40709
-0.399435
-0.39089
-0.381383
-0.371431
-0.360581
-0.339869
-0.434233
-0.427303
-0.420692
-0.413054
-0.404494
-0.395104
-0.384759
-0.373962
-0.362133
-0.33857
-0.444213
-0.435664
-0.427965
-0.419326
-0.409838
-0.399593
-0.388407
-0.376752
-0.363864
-0.337134
-0.454612
-0.444377
-0.435556
-0.425892
-0.415466
-0.404371
-0.392369
-0.379881
-0.365842
-0.335652
-0.465384
-0.453408
-0.443438
-0.432738
-0.421375
-0.409456
-0.396703
-0.383445
-0.367962
-0.333721
-0.476482
-0.462718
-0.451584
-0.439842
-0.427559
-0.414868
-0.401512
-0.387677
-0.37044
-0.331701
-0.487847
-0.472266
-0.459959
-0.44718
-0.433998
-0.420609
-0.406877
-0.392974
-0.375704
-0.339896
-0.499416
-0.482001
-0.468522
-0.454714
-0.440651
-0.426612
-0.412646
-0.399105
-0.386015
-0.382991
-0.511119
-0.49187
-0.477228
-0.462401
-0.447459
-0.432749
-0.418446
-0.404918
-0.392987
-0.397035
-0.522882
-0.501814
-0.486027
-0.470192
-0.454368
-0.438935
-0.424111
-0.410129
-0.3975
-0.401618
-0.511768
-0.494863
-0.47804
-0.461331
-0.445126
-0.429628
-0.414929
-0.401189
-0.403804
-0.503673
-0.485887
-0.468293
-0.451273
-0.434976
-0.419359
-0.404305
-0.404326
-0.512389
-0.493669
-0.475191
-0.457312
-0.440098
-0.423372
-0.406796
-0.403589
-0.501308
-0.481947
-0.46316
-0.444917
-0.426913
-0.408656
-0.40194
-0.48847
-0.468726
-0.449348
-0.429922
-0.409872
-0.399563
-0.453292
-0.432325
-0.410408
-0.39654
-0.434038
-0.41021
-0.392892
-0.40921
-0.3886
-0.356334
-0.36224
-0.364193
-0.334864
-0.325577
-0.315664
-0.304116
-0.291187
-0.276926
-0.261393
-0.244695
-0.226952
-0.208308
-0.18893
-0.169015
-0.148791
-0.128521
-0.108503
-0.0890494
-0.0705176
-0.0531986
-0.0374974
-0.0235177
-0.0118145
-0.00192965
0.00496718
0.0108218
0.0124439
0.0156293
0.0113995
0.0153371
0.00294767
0.0147457
-0.335414
-0.325945
-0.315998
-0.304431
-0.291487
-0.277219
-0.261681
-0.244982
-0.227239
-0.208595
-0.189217
-0.169299
-0.149071
-0.128793
-0.108764
-0.089298
-0.0707506
-0.0534138
-0.0376932
-0.0236928
-0.0119681
-0.00206199
0.00485649
0.0107304
0.012373
0.015572
0.0113623
0.0153016
0.00294031
0.0147116
-0.336501
-0.326641
-0.316658
-0.305053
-0.292079
-0.277796
-0.26225
-0.245549
-0.227807
-0.209163
-0.189784
-0.169862
-0.149625
-0.129332
-0.109284
-0.0897917
-0.0712135
-0.0538415
-0.0380823
-0.024041
-0.0122737
-0.00232537
0.00463612
0.0105483
0.0122316
0.0154576
0.0112881
0.0152307
0.00292564
0.0146436
-0.338114
-0.327648
-0.317628
-0.305967
-0.292947
-0.278643
-0.263087
-0.246383
-0.228643
-0.210002
-0.190622
-0.170694
-0.150444
-0.130131
-0.110053
-0.0905235
-0.0719001
-0.0544764
-0.0386602
-0.0245585
-0.0127281
-0.0027172
0.00430809
0.010277
0.012021
0.0152869
0.0111774
0.0151248
0.00290376
0.0145422
-0.34029
-0.328926
-0.318882
-0.307149
-0.294066
-0.279738
-0.26417
-0.247465
-0.229729
-0.211093
-0.191715
-0.171781
-0.151516
-0.131177
-0.111062
-0.0914834
-0.0728016
-0.0553107
-0.0394202
-0.0252396
-0.0133266
-0.00323371
0.00387534
0.00991882
0.0117426
0.0150611
0.0110309
0.0149844
0.0028748
0.014408
-0.343054
-0.330414
-0.320381
-0.308564
-0.295414
-0.281053
-0.265473
-0.248771
-0.231043
-0.212416
-0.193042
-0.173104
-0.152822
-0.132453
-0.112294
-0.0926585
-0.0739064
-0.0563343
-0.0403537
-0.0260769
-0.0140631
-0.00387002
0.00334169
0.00947655
0.0113986
0.0147816
0.0108496
0.0148103
0.00283895
0.014242
-0.345795
-0.332354
-0.322105
-0.310185
-0.296951
-0.282557
-0.266967
-0.250272
-0.232559
-0.213946
-0.194581
-0.17464
-0.154343
-0.133942
-0.113734
-0.0940335
-0.075201
-0.0575353
-0.0414503
-0.0270618
-0.0149304
-0.00462027
0.00271172
0.00895365
0.0109914
0.0144502
0.0106344
0.0146033
0.00279644
0.0140451
-0.348994
-0.334455
-0.324001
-0.311971
-0.298643
-0.284214
-0.268619
-0.251937
-0.234246
-0.215656
-0.196305
-0.176367
-0.156055
-0.135622
-0.115363
-0.0955911
-0.07667
-0.0589003
-0.0426984
-0.0281843
-0.0159203
-0.00547778
0.0019907
0.00835412
0.0105239
0.0140687
0.0103866
0.0143645
0.00274752
0.0138187
-0.352556
-0.336716
-0.326032
-0.313881
-0.300451
-0.285989
-0.270394
-0.253735
-0.236075
-0.217515
-0.198186
-0.178256
-0.157935
-0.137471
-0.117159
-0.0973127
-0.0782968
-0.0604145
-0.0440854
-0.0294337
-0.0170236
-0.00643521
0.00118442
0.00768236
0.00999932
0.0136397
0.0101078
0.014095
0.00269248
0.0135642
-0.356363
-0.33912
-0.32816
-0.315874
-0.302336
-0.287843
-0.272257
-0.255631
-0.238014
-0.219495
-0.200197
-0.180283
-0.159957
-0.139465
-0.119101
-0.0991787
-0.0800638
-0.0620626
-0.0455977
-0.0307984
-0.0182309
-0.0074847
0.000299112
0.00694312
0.00942114
0.0131654
0.00979936
0.0137961
0.00263165
0.0132831
-0.360361
-0.341638
-0.330341
-0.317905
-0.30426
-0.289741
-0.274174
-0.257593
-0.240031
-0.221565
-0.202309
-0.182419
-0.162096
-0.141581
-0.121168
-0.101169
-0.0819532
-0.0638286
-0.0472214
-0.0322666
-0.0195321
-0.00861806
-0.000658682
0.00614143
0.00879304
0.0126486
0.0094631
0.0134691
0.00256537
0.0129771
-0.364472
-0.344237
-0.332531
-0.319934
-0.306185
-0.291648
-0.276113
-0.25959
-0.242096
-0.223695
-0.204493
-0.184638
-0.164326
-0.143795
-0.123336
-0.103264
-0.0839469
-0.0656966
-0.0489427
-0.0338261
-0.0209169
-0.0098269
-0.00168225
0.00528247
0.00811886
0.0120921
0.00910073
0.0131156
0.00249398
0.012648
-0.368596
-0.346884
-0.334692
-0.32192
-0.308078
-0.293534
-0.278043
-0.261593
-0.244181
-0.22586
-0.206724
-0.186915
-0.166623
-0.146084
-0.125586
-0.105444
-0.0860275
-0.0676511
-0.0507479
-0.0354653
-0.0223755
-0.0111029
-0.00276492
0.00437144
0.00740245
0.0114986
0.00871403
0.0127371
0.00241784
0.0122977
-0.3726
-0.349545
-0.33679
-0.323822
-0.309905
-0.295369
-0.279937
-0.263576
-0.246262
-0.228033
-0.208976
-0.189225
-0.168965
-0.148427
-0.127898
-0.107692
-0.0881786
-0.0696772
-0.0526238
-0.0371728
-0.0238981
-0.0124381
-0.00390009
0.0034135
0.00664771
0.010871
0.00830484
0.0123351
0.00233733
0.011928
-0.376294
-0.352167
-0.338787
-0.325601
-0.311638
-0.297128
-0.281772
-0.265515
-0.248313
-0.230192
-0.211228
-0.191548
-0.17133
-0.150804
-0.130252
-0.109988
-0.0903836
-0.0717599
-0.0545569
-0.0389366
-0.0254743
-0.0138235
-0.00508047
0.00241446
0.00585914
0.0102127
0.00787546
0.0119115
0.00225302
0.0115409
-0.379371
-0.354645
-0.340646
-0.327221
-0.313251
-0.298792
-0.283529
-0.26739
-0.250315
-0.232315
-0.213457
-0.193859
-0.173696
-0.153191
-0.132626
-0.112312
-0.0926222
-0.0738805
-0.0565304
-0.0407417
-0.0270911
-0.0152484
-0.00629706
0.00138144
0.00504225
0.00952763
0.00742861
0.0114684
0.00216559
0.0111385
-0.381379
-0.35689
-0.342377
-0.328672
-0.31473
-0.300349
-0.285194
-0.269188
-0.252251
-0.234383
-0.215642
-0.196139
-0.176042
-0.15557
-0.135002
-0.114647
-0.0948789
-0.0760254
-0.0585327
-0.0425786
-0.0287409
-0.0167067
-0.00754566
0.000317431
0.00419841
0.00881701
0.006964
0.0110068
0.00207414
0.0107226
-0.382023
-0.358951
-0.344031
-0.329967
-0.316072
-0.301793
-0.286763
-0.270902
-0.254119
-0.2364
-0.217794
-0.198402
-0.178387
-0.157963
-0.137405
-0.117021
-0.0971843
-0.0782253
-0.0605935
-0.044475
-0.0304493
-0.0182206
-0.00884628
-0.000793706
0.00331287
0.00807079
0.00647193
0.0105231
0.00197397
0.0102942
-0.380466
-0.360159
-0.345379
-0.330992
-0.317196
-0.303076
-0.28821
-0.272527
-0.255929
-0.23839
-0.219948
-0.200696
-0.180788
-0.160434
-0.139902
-0.1195
-0.0996016
-0.0805386
-0.0627645
-0.0464749
-0.0322514
-0.0198174
-0.0102175
-0.00196451
0.00238006
0.00728563
0.00595397
0.0100171
0.00186847
0.00985438
-0.369997
-0.357806
-0.345814
-0.331489
-0.317964
-0.30411
-0.289456
-0.273972
-0.25757
-0.240215
-0.221937
-0.202823
-0.183021
-0.162734
-0.142229
-0.121811
-0.101851
-0.0826896
-0.0647786
-0.0483281
-0.0339127
-0.0212886
-0.0114652
-0.00303389
0.00155334
0.00656924
0.00551697
0.00953274
0.00181107
0.00941164
-0.336167
-0.350972
-0.346294
-0.332551
-0.319407
-0.30585
-0.291365
-0.27599
-0.259668
-0.242371
-0.224129
-0.20503
-0.185219
-0.164897
-0.144329
-0.123823
-0.103751
-0.0844611
-0.0663976
-0.0497954
-0.0351968
-0.0224209
-0.0123834
-0.00383724
0.00100092
0.00601876
0.00528266
0.00907127
0.00187823
0.00888927
-0.324384
-0.34173
-0.340429
-0.327542
-0.315128
-0.302284
-0.288357
-0.27347
-0.257616
-0.240775
-0.22298
-0.204317
-0.184926
-0.165
-0.144797
-0.124617
-0.104821
-0.0857549
-0.0678494
-0.051353
-0.0367794
-0.0239989
-0.013851
-0.00522892
-0.00014648
0.00493455
0.00459389
0.00828015
0.00175395
0.00822054
-0.318911
-0.332787
-0.33256
-0.320606
-0.308901
-0.296801
-0.283521
-0.269215
-0.253927
-0.237647
-0.22041
-0.202302
-0.183456
-0.164061
-0.144361
-0.124648
-0.105269
-0.086563
-0.0689446
-0.05267
-0.0382251
-0.0255237
-0.0153368
-0.00668383
-0.00139456
0.00374731
0.00379474
0.00741536
0.00156277
0.00752447
-0.314144
-0.323662
-0.323959
-0.313133
-0.302107
-0.290733
-0.278143
-0.26447
-0.249795
-0.234117
-0.217478
-0.199961
-0.181696
-0.162863
-0.1437
-0.124485
-0.105554
-0.0872379
-0.0699351
-0.0539083
-0.039616
-0.0270142
-0.0168052
-0.00813515
-0.00264782
0.00254543
0.00298205
0.00652732
0.00136393
0.00680494
-0.308521
-0.314048
-0.314352
-0.304733
-0.29444
-0.283811
-0.271979
-0.259016
-0.245025
-0.230021
-0.214044
-0.197179
-0.179552
-0.161337
-0.142761
-0.124093
-0.105655
-0.0877703
-0.0708208
-0.0550747
-0.0409638
-0.0284844
-0.0182723
-0.00959835
-0.00392201
0.00131668
0.00214441
0.00561006
0.00115247
0.00606299
-0.301279
-0.303679
-0.303541
-0.295122
-0.285662
-0.275824
-0.264818
-0.25265
-0.239426
-0.225175
-0.209939
-0.193802
-0.176885
-0.159358
-0.141436
-0.12338
-0.105495
-0.0880983
-0.0715541
-0.0561342
-0.042245
-0.02992
-0.0197325
-0.0110728
-0.00522253
5.61213e-05
0.00127249
0.00466153
0.000919931
0.00530403
-0.292015
-0.292286
-0.291502
-0.28425
-0.275741
-0.266749
-0.256632
-0.245336
-0.232961
-0.219542
-0.205124
-0.189789
-0.173656
-0.156887
-0.139689
-0.122309
-0.105042
-0.0881911
-0.0721069
-0.0570617
-0.0434381
-0.0313028
-0.0211712
-0.0125463
-0.00654116
-0.00122881
0.000368965
0.00368715
0.000663958
0.00453559
-0.280562
-0.279693
-0.278284
-0.272161
-0.264707
-0.256627
-0.247452
-0.237096
-0.22564
-0.213126
-0.199598
-0.185137
-0.169858
-0.153915
-0.137506
-0.120867
-0.104278
-0.0880318
-0.0724619
-0.05784
-0.0445262
-0.0326169
-0.0225742
-0.0140061
-0.00786786
-0.00252867
-0.000561106
0.00269388
0.000383775
0.00376581
-0.267023
-0.265862
-0.264022
-0.258969
-0.252644
-0.245537
-0.237345
-0.227982
-0.217507
-0.205959
-0.193384
-0.179861
-0.165498
-0.150444
-0.134886
-0.119048
-0.103195
-0.0876089
-0.0726057
-0.058455
-0.0454953
-0.0338485
-0.0239289
-0.0154404
-0.00919324
-0.00383445
-0.00151286
0.00168874
7.85914e-05
0.00300323
-0.251725
-0.250894
-0.248895
-0.244863
-0.239696
-0.233608
-0.226426
-0.218091
-0.208638
-0.198103
-0.186532
-0.173997
-0.160605
-0.146494
-0.13184
-0.116856
-0.101793
-0.0869175
-0.0725305
-0.0588962
-0.0463336
-0.0349855
-0.0252234
-0.0168379
-0.0105079
-0.00513705
-0.0024811
0.000679043
-0.000252031
0.00225669
-0.235143
-0.235024
-0.233155
-0.230094
-0.226064
-0.221014
-0.214852
-0.207557
-0.199148
-0.189654
-0.179119
-0.167611
-0.155228
-0.142102
-0.128396
-0.114311
-0.100081
-0.0859617
-0.0722345
-0.0591582
-0.0470326
-0.0360177
-0.0264471
-0.0181878
-0.0118023
-0.00642717
-0.00345994
-0.000327574
-0.000607813
0.00153503
-0.217827
-0.218577
-0.217085
-0.21494
-0.211988
-0.207963
-0.20281
-0.196544
-0.189179
-0.180735
-0.17125
-0.160787
-0.149438
-0.137323
-0.124596
-0.111443
-0.0980819
-0.0847533
-0.0717227
-0.0592401
-0.0475875
-0.0369374
-0.0275907
-0.0194802
-0.013067
-0.00769544
-0.00444286
-0.00132333
-0.000987594
0.000846725
-0.200314
-0.201927
-0.200981
-0.199687
-0.197723
-0.194675
-0.190498
-0.185232
-0.178889
-0.171482
-0.163042
-0.153627
-0.143318
-0.132227
-0.120495
-0.108293
-0.0958234
-0.0833117
-0.0710058
-0.059146
-0.0479968
-0.0377394
-0.0286462
-0.020706
-0.0142927
-0.0089327
-0.00542279
-0.0023005
-0.00138924
0.00019944
-0.183074
-0.185436
-0.185118
-0.184596
-0.183511
-0.181367
-0.178113
-0.173799
-0.16844
-0.162038
-0.154621
-0.146237
-0.13696
-0.126889
-0.116153
-0.104908
-0.0933418
-0.0816618
-0.0700995
-0.0588836
-0.048262
-0.0384209
-0.0296075
-0.0218572
-0.0154705
-0.0101301
-0.00639222
-0.00325164
-0.00180957
-0.00040032
-0.166469
-0.169418
-0.169732
-0.169894
-0.169569
-0.16824
-0.165838
-0.162414
-0.157983
-0.152542
-0.146109
-0.138725
-0.130455
-0.121387
-0.111635
-0.101341
-0.0906766
-0.0798326
-0.0690229
-0.0584641
-0.0483875
-0.0389808
-0.0304699
-0.0229268
-0.016592
-0.0112792
-0.00734334
-0.00416969
-0.00224436
-0.000947603
-0.150748
-0.154114
-0.155009
-0.155759
-0.156077
-0.155463
-0.153831
-0.151225
-0.147657
-0.143118
-0.137619
-0.131193
-0.123894
-0.115797
-0.107005
-0.0976443
-0.0878691
-0.0778548
-0.0677977
-0.0579008
-0.0483797
-0.0394205
-0.0312301
-0.0239093
-0.0176494
-0.0123723
-0.00826815
-0.00504817
-0.00268838
-0.00143926
-0.13606
-0.139688
-0.141084
-0.142322
-0.143173
-0.143173
-0.142224
-0.140358
-0.13758
-0.133878
-0.129254
-0.123732
-0.117356
-0.110191
-0.102324
-0.0938677
-0.0849601
-0.0757599
-0.0664465
-0.0572089
-0.0482468
-0.0397426
-0.0318863
-0.0247999
-0.0186358
-0.0134023
-0.00915871
-0.00588129
-0.00313569
-0.00187388
-0.122475
-0.12624
-0.128043
-0.129677
-0.130959
-0.131477
-0.131123
-0.129914
-0.127851
-0.124915
-0.121101
-0.116423
-0.110916
-0.104633
-0.097648
-0.0900595
-0.0819889
-0.0735792
-0.0649928
-0.0564044
-0.0479985
-0.0399515
-0.0324381
-0.0255954
-0.019545
-0.0143628
-0.0100074
-0.00666399
-0.00357991
-0.0022518
-0.110012
-0.113818
-0.115938
-0.117883
-0.119508
-0.120453
-0.120609
-0.119977
-0.118551
-0.116307
-0.113233
-0.109336
-0.104638
-0.0991816
-0.0930292
-0.0862644
-0.0789933
-0.0713432
-0.0634602
-0.0555046
-0.0476459
-0.0400529
-0.0328869
-0.0262939
-0.0203723
-0.0152487
-0.010807
-0.00739204
-0.00401454
-0.0025749
-0.0986563
-0.102436
-0.104794
-0.106975
-0.108867
-0.110159
-0.110743
-0.110611
-0.109745
-0.10812
-0.105716
-0.102531
-0.0985782
-0.0938897
-0.088515
-0.0825244
-0.0760094
-0.069082
-0.0618728
-0.0545275
-0.0472014
-0.0400544
-0.0332354
-0.0268951
-0.0211142
-0.0160558
-0.0115513
-0.00806204
-0.00443323
-0.00284634
-0.0883813
-0.0920892
-0.0946172
-0.0969731
-0.099066
-0.100634
-0.101575
-0.101868
-0.10149
-0.100411
-0.0986051
-0.0960631
-0.0927899
-0.0888063
-0.0841506
-0.0788804
-0.0730731
-0.0668263
-0.0602556
-0.0534927
-0.0466792
-0.0399653
-0.0334884
-0.0274005
-0.0217686
-0.0167813
-0.0122349
-0.00867145
-0.00483014
-0.00307023
-0.079153
-0.0827602
-0.0854054
-0.087885
-0.0901259
-0.0919102
-0.0931417
-0.0937917
-0.0938325
-0.0932295
-0.0919521
-0.089984
-0.0873224
-0.0839786
-0.0799803
-0.0753727
-0.0702206
-0.0646075
-0.0586352
-0.0524218
-0.0460957
-0.0397971
-0.0336529
-0.0278133
-0.0223354
-0.0174236
-0.0128535
-0.0092186
-0.0052001
-0.00325121
-0.0709388
-0.0744295
-0.0771508
-0.0797139
-0.0820596
-0.0840089
-0.0854739
-0.0864199
-0.086815
-0.0866212
-0.085804
-0.0843415
-0.0822238
-0.0794535
-0.0760484
-0.0720428
-0.0674894
-0.062459
-0.0570402
-0.0513384
-0.0454696
-0.0395637
-0.0337379
-0.0281388
-0.0228161
-0.0179827
-0.0134042
-0.00970268
-0.00553886
-0.00339409
-0.0637108
-0.0670791
-0.0698453
-0.0724614
-0.0748778
-0.0769502
-0.0785994
-0.0797871
-0.0804766
-0.0806282
-0.0802067
-0.0791838
-0.0775426
-0.0752786
-0.0724008
-0.0689339
-0.0649193
-0.0604165
-0.0555019
-0.0502689
-0.044822
-0.0392813
-0.033755
-0.0283844
-0.0232141
-0.0184599
-0.0138856
-0.0101236
-0.0058431
-0.0035036
-0.0574488
-0.0606963
-0.0634851
-0.0661313
-0.0685925
-0.0707541
-0.0725458
-0.0739266
-0.0748574
-0.0752975
-0.0752092
-0.0745605
-0.0733289
-0.0715036
-0.0690859
-0.0660918
-0.0625532
-0.0585188
-0.0540543
-0.0492424
-0.044177
-0.0389689
-0.0337178
-0.0285595
-0.0235346
-0.018858
-0.0142972
-0.0104821
-0.00611048
-0.00358406
-0.0521425
-0.0552773
-0.0580734
-0.0607338
-0.0632209
-0.065445
-0.0673444
-0.0688767
-0.0700014
-0.0706763
-0.0708622
-0.0705243
-0.0696364
-0.0681818
-0.0661555
-0.0635661
-0.060437
-0.0568079
-0.052735
-0.0482913
-0.0435614
-0.0386475
-0.0336422
-0.0286751
-0.0237844
-0.0191807
-0.0146398
-0.0107791
-0.00633942
-0.00363935
-0.0477969
-0.050832
-0.0536257
-0.0562899
-0.0587898
-0.0610559
-0.0630343
-0.0646819
-0.065957
-0.0668169
-0.0672211
-0.0671331
-0.0665235
-0.0653712
-0.0636662
-0.0614106
-0.058621
-0.0553296
-0.0515845
-0.0474504
-0.0430043
-0.0383405
-0.0335458
-0.0287438
-0.023971
-0.0194326
-0.0149149
-0.0110162
-0.00652868
-0.00367266
-0.0444308
-0.0473848
-0.0501718
-0.0528345
-0.0553394
-0.0576327
-0.0596663
-0.0613975
-0.0627836
-0.0637817
-0.0643507
-0.0644529
-0.0640564
-0.0631371
-0.0616807
-0.0596849
-0.0571605
-0.054134
-0.050647
-0.0467579
-0.0425371
-0.0380729
-0.0334473
-0.0287786
-0.0241027
-0.0196185
-0.0151237
-0.0111946
-0.00667727
-0.0036859
-0.0420979
-0.0449914
-0.0477702
-0.0504289
-0.0529342
-0.0552429
-0.0573116
-0.0590975
-0.0605577
-0.0616491
-0.06233
-0.0625622
-0.0623123
-0.061554
-0.0602703
-0.0584553
-0.0561164
-0.0532757
-0.0499702
-0.0462539
-0.0421927
-0.0378704
-0.0333656
-0.0287923
-0.0241872
-0.0197419
-0.0152677
-0.0113143
-0.00678745
-0.00367783
-0.0408574
-0.0437228
-0.0464985
-0.0491559
-0.051662
-0.0539789
-0.0560656
-0.0578799
-0.0593785
-0.0605185
-0.0612572
-0.0615572
-0.061384
-0.0607102
-0.0595173
-0.0577978
-0.0555569
-0.0528145
-0.0496055
-0.0459811
-0.042005
-0.0377584
-0.0333186
-0.0287959
-0.0242305
-0.0198032
-0.0153476
-0.0113689
-0.00686687
-0.00364738
-0.341371
-0.345421
-0.348972
-0.352169
-0.355173
-0.358154
-0.361309
-0.36486
-0.368903
-0.374007
-0.385424
-0.404064
-0.323186
-0.328907
-0.334349
-0.339651
-0.344972
-0.350486
-0.356409
-0.362979
-0.37023
-0.378577
-0.392614
-0.408377
-0.305383
-0.312194
-0.318762
-0.325182
-0.331559
-0.338011
-0.344683
-0.351732
-0.359103
-0.367108
-0.379881
-0.393802
-0.28586
-0.293192
-0.300328
-0.307342
-0.314319
-0.321354
-0.328574
-0.336109
-0.34392
-0.352319
-0.364882
-0.378198
-0.266444
-0.274098
-0.281622
-0.28908
-0.296542
-0.304087
-0.311817
-0.31983
-0.328077
-0.336805
-0.348924
-0.36139
-0.247485
-0.255253
-0.262939
-0.270594
-0.278273
-0.286039
-0.29397
-0.302139
-0.310501
-0.319267
-0.330794
-0.342537
-0.229002
-0.236685
-0.244317
-0.25194
-0.259598
-0.267343
-0.275237
-0.28334
-0.291622
-0.300268
-0.311138
-0.322143
-0.211145
-0.218601
-0.226027
-0.233455
-0.240922
-0.248471
-0.256152
-0.264014
-0.272039
-0.280384
-0.290475
-0.300624
-0.194032
-0.201163
-0.208272
-0.215387
-0.222536
-0.229753
-0.237079
-0.244553
-0.252165
-0.260052
-0.269263
-0.278464
-0.17773
-0.184469
-0.19119
-0.197912
-0.204658
-0.211453
-0.21833
-0.225317
-0.232415
-0.239735
-0.248014
-0.256225
-0.162281
-0.168594
-0.174885
-0.18117
-0.187465
-0.193789
-0.200167
-0.206619
-0.213148
-0.219843
-0.227193
-0.234432
-0.147713
-0.153584
-0.159429
-0.16526
-0.171087
-0.176924
-0.182787
-0.188692
-0.194642
-0.200703
-0.207176
-0.21352
-0.134038
-0.139469
-0.14487
-0.150248
-0.155611
-0.160967
-0.166327
-0.1717
-0.177093
-0.182547
-0.188231
-0.19379
-0.121257
-0.126261
-0.131232
-0.136173
-0.141089
-0.145986
-0.150869
-0.155746
-0.160619
-0.165516
-0.170516
-0.175411
-0.109362
-0.113961
-0.118523
-0.12305
-0.127546
-0.132014
-0.136456
-0.140877
-0.14528
-0.149678
-0.154097
-0.15844
-0.102557
-0.106736
-0.110879
-0.114986
-0.119058
-0.123097
-0.127105
-0.131085
-0.135042
-0.138972
-0.142856
-0.0920296
-0.0958562
-0.0996438
-0.103393
-0.107104
-0.110777
-0.114415
-0.118017
-0.121585
-0.125102
-0.128597
-0.0823539
-0.0858567
-0.0893198
-0.0927429
-0.0961261
-0.0994695
-0.102774
-0.10604
-0.109264
-0.112427
-0.115588
-0.0735003
-0.0767085
-0.0798768
-0.0830047
-0.0860918
-0.089138
-0.0921434
-0.0951091
-0.0980296
-0.100885
-0.103752
-0.0654376
-0.0683796
-0.0712819
-0.0741437
-0.0769646
-0.0797441
-0.0824824
-0.0851799
-0.0878307
-0.0904179
-0.0930219
-0.0581358
-0.0608387
-0.0635023
-0.0661258
-0.0687085
-0.07125
-0.0737502
-0.0762092
-0.0786211
-0.0809722
-0.0833414
-0.0515665
-0.0540563
-0.0565074
-0.0589189
-0.0612901
-0.0636204
-0.0659097
-0.0681578
-0.0703591
-0.0725031
-0.0746626
-0.0457054
-0.0480069
-0.0502704
-0.0524951
-0.0546801
-0.0568247
-0.0589288
-0.060992
-0.0630093
-0.0649728
-0.0669465
-0.0405326
-0.0426697
-0.0447696
-0.0468314
-0.0488543
-0.0508377
-0.0527812
-0.0546842
-0.0565427
-0.0583509
-0.060162
-0.0360351
-0.0380307
-0.0399901
-0.0419123
-0.0437965
-0.0456421
-0.0474485
-0.0492153
-0.0509391
-0.0526159
-0.0542873
-0.0322074
-0.0340838
-0.035925
-0.0377301
-0.0394982
-0.0412287
-0.042921
-0.0445746
-0.046187
-0.0477556
-0.0493102
-0.0290553
-0.0308348
-0.0325802
-0.0342905
-0.035965
-0.037603
-0.0392039
-0.0407671
-0.0422909
-0.0437736
-0.0452346
-0.0265925
-0.0282967
-0.0299679
-0.0316055
-0.0332085
-0.0347764
-0.0363086
-0.0378044
-0.0392627
-0.0406827
-0.0420745
-0.0248683
-0.026521
-0.028142
-0.0297303
-0.0312854
-0.0328064
-0.0342929
-0.0357441
-0.0371595
-0.0385386
-0.0398852
-0.0238933
-0.0255164
-0.0271099
-0.0286729
-0.0302048
-0.0317049
-0.0331725
-0.0346071
-0.036008
-0.0373749
-0.0387084
)
;

boundaryField
{
    inlet
    {
        type            zeroGradient;
    }
    outlet
    {
        type            fixedValue;
        value           uniform 0;
    }
    cylinder
    {
        type            zeroGradient;
    }
    top
    {
        type            symmetryPlane;
    }
    bottom
    {
        type            symmetryPlane;
    }
    defaultFaces
    {
        type            empty;
    }
    procBoundary3to1
    {
        type            processor;
        value           nonuniform List<scalar> 
41
(
-0.364481
-0.363355
-0.360897
-0.357284
-0.352693
-0.347231
-0.340862
-0.357169
-0.362932
-0.364795
-0.364481
-0.334864
-0.325577
-0.315664
-0.304116
-0.291187
-0.276926
-0.261393
-0.244695
-0.226952
-0.208308
-0.18893
-0.169015
-0.148791
-0.128521
-0.108503
-0.0890494
-0.0705176
-0.0531986
-0.0374974
-0.0235177
-0.0118145
-0.00192965
0.00496718
0.0108218
0.0124439
0.0156293
0.0113995
0.0153371
0.00294767
0.0147457
)
;
    }
    procBoundary3to2
    {
        type            processor;
        value           nonuniform List<scalar> 
50
(
-0.534626
-0.534626
-0.521661
-0.521661
-0.531416
-0.520929
-0.520929
-0.508714
-0.508714
-0.494655
-0.473904
-0.473904
-0.456642
-0.456642
-0.434966
-0.434966
-0.40733
-0.383621
-0.383621
-0.336687
-0.317059
-0.298246
-0.278266
-0.258607
-0.239594
-0.221235
-0.203631
-0.186859
-0.170955
-0.155936
-0.141809
-0.128572
-0.116216
-0.104726
-0.0983385
-0.0983385
-0.0881638
-0.0788115
-0.0702526
-0.0624566
-0.0553945
-0.0490389
-0.0433669
-0.0383594
-0.0340042
-0.0302967
-0.0272425
-0.0248564
-0.0231846
-0.0222413
)
;
    }
}


// ************************************************************************* //
