/*--------------------------------*- C++ -*----------------------------------*\
  =========                 |
  \\      /  F ield         | OpenFOAM: The Open Source CFD Toolbox
   \\    /   O peration     | Website:  https://openfoam.org
    \\  /    A nd           | Version:  7
     \\/     M anipulation  |
\*---------------------------------------------------------------------------*/
FoamFile
{
    version     2.0;
    format      ascii;
    class       surfaceScalarField;
    location    "5";
    object      phi;
}
// * * * * * * * * * * * * * * * * * * * * * * * * * * * * * * * * * * * * * //

dimensions      [0 3 -1 0 0 0 0];

internalField   nonuniform List<scalar> 
4147
(
-4.56157e-05
4.56146e-05
1.08066e-09
-0.000155978
0.000110359
3.32255e-09
-0.000314056
0.000158072
4.97125e-09
-0.000503442
0.000189381
-0.000708787
0.000205339
-0.000916586
0.000207792
-0.00111624
0.000199651
-0.00130163
0.000185374
-0.00147203
0.000170391
0.000161746
-0.00163379
-4.4725e-05
9.03396e-05
-0.000152543
0.000218177
-0.000306289
0.000311819
-0.000489338
0.000372429
-0.000686014
0.000402015
-0.000882374
0.000404152
-0.00106726
0.00038454
-0.00123391
0.00035202
-0.001381
0.000317484
0.00029499
-0.00151425
-4.29607e-05
0.0001333
-0.000145729
0.000320945
-0.000290875
0.000456966
-0.000461334
0.000542887
-0.000640791
0.000581473
-0.000814431
0.000577792
-0.000969988
0.000540097
-0.00109941
0.000481445
-0.00120019
0.000418259
0.000371591
-0.00127679
-4.03559e-05
0.000173656
-0.000135646
0.000416235
-0.000268042
0.000589362
-0.000419828
0.000694673
-0.000573747
0.000735392
-0.000713697
0.000717742
-0.000825759
0.000652159
-0.000899984
0.00055567
-0.000932057
0.000450332
0.00036411
-0.000924576
-3.69561e-05
0.000210612
-0.000122447
0.000501727
-0.000238111
0.000705026
-0.000365379
0.000821941
-0.000485771
0.000855785
-0.000581503
0.000813474
-0.000636487
0.000707143
-0.000638229
0.000557411
-0.000580265
0.000392368
0.000246331
-0.000462487
-3.28165e-05
0.000243429
-0.000106318
0.000575228
-0.000201471
0.000800179
-0.000298671
0.000919141
-0.000377956
0.00093507
-0.000419504
0.000855021
-0.000404561
0.0006922
-0.00031732
0.00047017
-0.000147699
0.000222748
8.57143e-07
9.77746e-05
-2.79968e-05
0.000271426
-8.74593e-05
0.00063469
-0.000158551
0.00087127
-0.000220462
0.000981052
-0.000251524
0.000966133
-0.000229567
0.000833064
-0.00013272
0.000595353
5.84995e-05
0.00027895
0.000358306
-7.7059e-05
-0.000408641
0.000767805
-2.25563e-05
0.000293982
-6.60764e-05
0.00067821
-0.000109787
0.000914981
-0.000131529
0.00100279
-0.000107746
0.00094235
-1.36527e-05
0.00073897
0.000176102
0.000405598
0.000485455
-3.0402e-05
0.000932657
-0.000524261
-0.000999148
0.00152316
-1.65495e-05
0.000310531
-4.23587e-05
0.000704019
-5.55933e-05
0.000928215
-3.2618e-05
0.000979819
5.21451e-05
0.000857586
0.000226261
0.000564854
0.000518918
0.000112941
0.000958954
-0.000470438
0.00157011
-0.00113542
-0.00179074
0.0023617
-1.00216e-05
0.000320553
-1.64677e-05
0.000710466
3.67658e-06
0.000908071
7.56103e-05
0.000907885
0.00022704
0.000706157
0.000488415
0.00030348
0.000892909
-0.000291553
0.00147478
-0.00105231
0.00226421
-0.00192485
-0.00280184
0.00327531
-3.00939e-06
0.000323562
1.14629e-05
0.000695993
6.7716e-05
0.000851818
0.000192617
0.000782984
0.000416017
0.000482756
0.000771263
-5.17664e-05
0.00129555
-0.000815844
0.00202887
-0.00178562
0.00300881
-0.00290479
-0.00404893
0.00425591
4.48498e-06
0.000319078
4.13563e-05
0.000659122
0.000136336
0.000756839
0.000318005
0.000601315
0.000618384
0.000182377
0.00107362
-0.000507005
0.00172479
-0.00146701
0.00261761
-0.00267845
0.00379805
-0.00408524
-0.00554613
0.00529525
1.24325e-05
0.000306645
7.31603e-05
0.000598394
0.000209395
0.000620604
0.000451511
0.000359198
0.000833685
-0.000199797
0.0013947
-0.00106802
0.00217913
-0.00225143
0.0032381
-0.00373742
0.00462654
-0.00547368
-0.00730457
0.00638498
2.08485e-05
0.000285797
0.000106849
0.000512394
0.000286807
0.000440646
0.000592967
5.3038e-05
0.00106165
-0.000668483
0.00173408
-0.00174046
0.00265774
-0.00317509
0.00388834
-0.00496802
0.00548965
-0.00707498
-0.00933155
0.00751664
2.97365e-05
0.00025606
0.000142401
0.000399729
0.000368492
0.000214556
0.000742221
-0.000320691
0.0013021
-0.00122836
0.0020916
-0.00252996
0.00316043
-0.00424392
0.00456746
-0.00637505
0.00638399
-0.00889152
-0.0116294
0.0086818
3.90965e-05
0.000216964
0.000179774
0.000259051
0.000454312
-5.99822e-05
0.000899022
-0.000765401
0.00155472
-0.00188406
0.00246707
-0.0034423
0.00368737
-0.00546421
0.00527583
-0.00796352
0.00730814
-0.0109238
-0.0141937
0.00987245
4.89149e-05
0.000168049
0.000218868
8.90985e-05
0.000544003
-0.000385117
0.00106288
-0.00128428
0.00181883
-0.00264001
0.00285989
-0.00448336
0.00423865
-0.00684297
0.00601486
-0.00973973
0.00826328
-0.0131722
-0.017013
0.0110826
5.91561e-05
0.000108892
0.000259506
-0.000111251
0.000637105
-0.000762716
0.00123291
-0.00188009
0.00209307
-0.00350017
0.0032685
-0.00565879
0.00481367
-0.00838814
0.00678688
-0.0117129
0.00925338
-0.0156387
-0.020073
0.0123134
6.97579e-05
3.91346e-05
0.000301411
-0.000342905
0.000732911
-0.00119422
0.00140768
-0.00255486
0.00237498
-0.00446747
0.00368955
-0.00697335
0.00541016
-0.0101088
0.00759686
-0.0138996
0.0102927
-0.0183346
-0.0233598
0.0135796
8.0632e-05
-4.14974e-05
0.000344209
-0.000606482
0.000830455
-0.00168046
0.00158515
-0.00330955
0.00266068
-0.005543
0.0041165
-0.00842917
0.00601978
-0.012012
0.00844669
-0.0163266
0.0114458
-0.0213338
-0.0268009
0.0148869
9.16729e-05
-0.00013317
0.000387457
-0.000902267
0.000928572
-0.00222158
0.00176272
-0.0041437
0.00294481
-0.00672509
0.00453829
-0.0100227
0.00661894
-0.0140927
0.00928707
-0.0189947
0.0127432
-0.0247899
-0.031797
0.0177394
0.000102772
-0.000235942
0.000430698
-0.00123019
0.00102606
-0.00281694
0.0019377
-0.00505534
0.00322155
-0.00800895
0.00494187
-0.011743
0.00717489
-0.0163257
0.010019
-0.0218388
0.0136341
-0.028405
-0.0363698
0.0182068
0.000113835
0.000473519
-0.00158988
0.00112184
-0.00346526
0.00210778
-0.00604128
0.00348643
-0.0093876
0.00531897
-0.0135755
0.00767336
-0.0186801
0.0106247
-0.0247901
0.0142559
-0.0320361
-0.0406965
0.0185826
0.000515588
0.00121507
-0.00416474
0.0022713
-0.00709751
0.00373673
-0.010853
0.00566642
-0.0155052
0.00811527
-0.0211289
0.0111307
-0.0278055
0.014736
-0.0356415
-0.0448294
0.0188689
0.00130511
-0.0049132
0.0024271
-0.0082195
0.00397091
-0.0123968
0.00598351
-0.0175178
0.00850488
-0.0236503
0.0115566
-0.0308573
0.0151207
-0.0392055
-0.0488023
0.0190937
0.00139145
0.00257429
-0.00940234
0.00418795
-0.0140105
0.00627006
-0.0195999
0.0088453
-0.0262255
0.0119127
-0.0339247
0.0154251
-0.042718
-0.0526354
0.0192582
0.00271207
0.00438688
-0.0156853
0.00652554
-0.0217386
0.00913772
-0.0288377
0.0122028
-0.0369898
0.0156529
-0.0461681
-0.0563346
0.0193521
0.00456652
0.0067488
0.00938154
-0.0314705
0.012427
-0.0400352
0.0158016
-0.0495427
-0.0598964
0.0193634
0.00957485
0.0125829
-0.0430433
0.0158667
-0.0528265
-0.0633111
0.0192814
0.0126672
0.0158431
-0.0560024
-0.0665655
0.0190975
0.0157264
0.018806
-4.56157e-05
-0.000155978
-0.00169838
6.45731e-05
-0.00169608
-2.3176e-06
-0.00161069
-8.54016e-05
-0.00142142
-0.000189291
-0.00111482
-0.000306619
-0.000682929
-0.000431903
-0.000120955
-0.000561987
0.000573607
-0.000694573
0.00140192
-0.000828317
0.00236425
-0.000962337
0.00346007
-0.00109581
0.00468772
-0.00122764
0.00604404
-0.0013563
0.00752378
-0.00147971
0.00911915
-0.00159533
0.0108194
-0.00170023
0.0126108
-0.00179134
0.0144762
-0.00186538
0.0163958
-0.00191954
0.0183462
-0.00195027
0.0203022
-0.00195593
0.0222333
-0.00193112
0.0241113
-0.00187796
0.0258955
-0.00178416
0.0275622
-0.00166663
0.0290537
-0.00149155
0.0303818
-0.00132812
0.031449
-0.00106715
0.0323866
-0.000937595
-0.000575971
-0.0015733
0.000123633
-0.00156524
-1.03841e-05
-0.00147409
-0.000176551
-0.00127999
-0.000383388
-0.000969736
-0.000616874
-0.000535623
-0.000866017
2.70165e-05
-0.00112463
0.000720607
-0.00138816
0.00154638
-0.00165409
0.00250468
-0.00192064
0.0035951
-0.00218622
0.00481612
-0.00244866
0.00616472
-0.0027049
0.00763583
-0.00295081
0.00922181
-0.00318132
0.0109121
-0.00339056
0.0126932
-0.00357241
0.0145482
-0.00372035
0.0164574
-0.00382873
0.0183976
-0.00389049
0.020344
-0.00390231
0.0222663
-0.00385343
0.0241364
-0.00374805
0.0259138
-0.00356157
0.0275749
-0.00332779
0.0290624
-0.00297904
0.0303879
-0.00265356
0.0314538
-0.00213307
0.0323912
-0.001875
-0.00115345
-0.00132511
0.000171955
-0.00130539
-3.01052e-05
-0.00120304
-0.000278903
-0.000999471
-0.000586955
-0.000682074
-0.000934271
-0.000243657
-0.00130443
0.000320146
-0.00168843
0.00101172
-0.00207974
0.00183235
-0.00247471
0.00278258
-0.00287087
0.00386221
-0.00326585
0.00507003
-0.00365648
0.00640331
-0.00403818
0.00785728
-0.00440478
0.00942466
-0.00474871
0.0110953
-0.00506119
0.012856
-0.00533308
0.0146902
-0.00555461
0.0165789
-0.00571736
0.0184991
-0.00581071
0.0204265
-0.00582972
0.0223313
-0.00575821
0.0241857
-0.0056025
0.0259498
-0.0053256
0.0276001
-0.00497815
0.0290796
-0.00445849
0.0303997
-0.00397373
0.0314633
-0.00319663
0.0324004
-0.00281209
-0.001734
-0.000957261
0.00020464
-0.000920423
-6.69433e-05
-0.000801755
-0.000397571
-0.000584423
-0.000804288
-0.00025671
-0.00126198
0.000187776
-0.00174892
0.000753004
-0.00225366
0.00144129
-0.00276803
0.00225405
-0.00328747
0.00319209
-0.00380892
0.00425561
-0.00432937
0.00544379
-0.00484465
0.00675433
-0.00534872
0.00818293
-0.00583339
0.00972284
-0.00628861
0.0113644
-0.00670275
0.013095
-0.00706367
0.0148988
-0.00735839
0.0167571
-0.00757572
0.0186479
-0.00770152
0.0205475
-0.00772923
0.0224265
-0.00763725
0.024258
-0.00743399
0.0260024
-0.00707
0.0276369
-0.00661267
0.0291046
-0.00592619
0.0304171
-0.0052862
0.0314772
-0.00425681
0.032414
-0.00374884
-0.0023192
-0.000474455
0.000216608
-0.000415815
-0.000125583
-0.000276311
-0.000537075
-4.12755e-05
-0.00103932
0.000299249
-0.00160251
0.000751095
-0.00220077
0.00131763
-0.0028202
0.00200107
-0.00345146
0.00280303
-0.00408943
0.00372474
-0.00473063
0.00476687
-0.0053715
0.00592914
-0.00600692
0.00720982
-0.00662941
0.00860524
-0.00722881
0.0101093
-0.00779263
0.0117129
-0.00830643
0.0134044
-0.00875513
0.0151685
-0.00912255
0.0169876
-0.00939478
0.0188403
-0.00955419
0.0207036
-0.00959259
0.0225493
-0.00948293
0.0243511
-0.00923575
0.0260701
-0.008789
0.0276841
-0.00822671
0.0291367
-0.00737875
0.0304393
-0.00658883
0.0314953
-0.00531276
0.0324317
-0.00468532
-0.00291071
0.000121243
0.000193139
0.000201566
-0.000205906
0.000365397
-0.000700906
0.00062105
-0.00129498
0.000976728
-0.00195819
0.00143669
-0.00266073
0.00200388
-0.00338739
0.0026805
-0.00412808
0.00346851
-0.00487743
0.00436964
-0.00563177
0.00538519
-0.00638705
0.00651553
-0.00713726
0.00775963
-0.00787351
0.00911453
-0.00858371
0.0105749
-0.00925298
0.0121326
-0.00986413
0.0137766
-0.0103992
0.0154928
-0.0108388
0.0172645
-0.0111664
0.0190711
-0.0113608
0.0208909
-0.0114124
0.0226964
-0.0112884
0.0244623
-0.0110017
0.0261508
-0.0104775
0.0277403
-0.00981619
0.0291747
-0.00881321
0.0304657
-0.00787979
0.0315168
-0.0063639
0.0324533
-0.00562181
-0.00351023
0.000808484
0.00015246
0.000922219
-0.000319641
0.00111438
-0.000893064
0.00139321
-0.00157381
0.00176514
-0.00233012
0.00223316
-0.00312875
0.0027997
-0.00395393
0.00346706
-0.00479544
0.00423766
-0.00564803
0.0051139
-0.006508
0.00609778
-0.00737093
0.00719046
-0.00822994
0.0083917
-0.00907475
0.00969937
-0.00989138
0.011109
-0.0106626
0.0126135
-0.0113686
0.0142028
-0.0119884
0.0158638
-0.0124998
0.0175807
-0.0128834
0.0193345
-0.0131146
0.0211042
-0.0131821
0.0228636
-0.0130479
0.0245886
-0.0127267
0.0262421
-0.012131
0.0278036
-0.0113776
0.0292175
-0.0102271
0.0304954
-0.00915765
0.0315414
-0.00740992
0.0324784
-0.00655878
-0.0041196
0.00159282
8.28018e-05
0.00173835
-0.000465165
0.00196066
-0.00111538
0.0022641
-0.00187724
0.00265256
-0.00271858
0.00312769
-0.00360388
0.00369152
-0.00451776
0.00434662
-0.00545054
0.00509604
-0.00639745
0.00594296
-0.00735493
0.00689024
-0.00831821
0.00793987
-0.00927957
0.00909252
-0.0102274
0.010347
-0.0111458
0.0116997
-0.0120154
0.0131446
-0.0128135
0.0146728
-0.0135167
0.0162724
-0.0140993
0.0179287
-0.0145397
0.0196238
-0.0148097
0.0213382
-0.0148964
0.0230467
-0.0147563
0.0247264
-0.0144065
0.0263414
-0.013746
0.0278721
-0.0129083
0.0292636
-0.0116186
0.0305274
-0.0104214
0.0315683
-0.00845082
0.0325064
-0.00749693
-0.00474073
0.00246156
-1.70553e-05
0.00264012
-0.000643727
0.00289369
-0.00136895
0.00322205
-0.0022056
0.00362615
-0.00312268
0.00410637
-0.0040841
0.00466458
-0.00507596
0.00530381
-0.00608977
0.00602793
-0.00712158
0.00684106
-0.00816805
0.00774696
-0.00922411
0.00874858
-0.0102812
0.00984749
-0.0113263
0.0110435
-0.0123418
0.012334
-0.0133059
0.0137142
-0.0141936
0.0151761
-0.0149786
0.0167092
-0.0156324
0.0183001
-0.0161306
0.019932
-0.0164416
0.0215868
-0.0165512
0.0232405
-0.0164101
0.0248718
-0.0160377
0.0264456
-0.0153198
0.0279435
-0.0144062
0.0293113
-0.0129865
0.0305606
-0.0116707
0.0315967
-0.00948696
0.032537
-0.00843723
-0.00537566
0.00340591
-0.000147656
0.00361774
-0.000855558
0.00390258
-0.00165378
0.00425488
-0.00255791
0.00467243
-0.00354022
0.00515455
-0.00456623
0.00570327
-0.00562468
0.00632239
-0.00670889
0.00701679
-0.00781597
0.00779159
-0.00894286
0.00865158
-0.0100841
0.00960065
-0.0112303
0.0106414
-0.012367
0.0117744
-0.0134749
0.0129985
-0.01453
0.0143097
-0.0155048
0.0157014
-0.0163704
0.0171642
-0.0170952
0.0186861
-0.0176525
0.0202516
-0.0180071
0.0218438
-0.0181434
0.0234403
-0.0180066
0.0250208
-0.0176182
0.0265517
-0.0168508
0.0280156
-0.0158701
0.0293592
-0.0143301
0.0305938
-0.0129053
0.031626
-0.0105191
0.0325696
-0.00938089
-0.00602654
0.004417
-0.000308753
0.00466158
-0.00110014
0.00497642
-0.00196862
0.00535022
-0.00293171
0.0057775
-0.0039675
0.00625704
-0.00504576
0.00679143
-0.00615907
0.00738558
-0.00730305
0.00804553
-0.00847591
0.00877751
-0.00967484
0.00958733
-0.0108939
0.0104798
-0.0121228
0.0114586
-0.0133457
0.0125252
-0.0145416
0.0136796
-0.0156843
0.0149187
-0.016744
0.0162374
-0.0176891
0.0176274
-0.0184852
0.019078
-0.0191031
0.020575
-0.0195041
0.022103
-0.0196714
0.0236406
-0.0195443
0.0251693
-0.0191468
0.0266565
-0.018338
0.028086
-0.0172996
0.0294054
-0.0156494
0.030626
-0.014126
0.0316552
-0.0115483
0.0326037
-0.0103294
-0.00669564
0.00548627
-0.00049977
0.00576235
-0.00137622
0.00610448
-0.00231074
0.00649559
-0.00332282
0.00692724
-0.00439915
0.00739831
-0.00551683
0.00791258
-0.00667335
0.00847633
-0.0078668
0.0090969
-0.00909648
0.00978166
-0.0103596
0.0105374
-0.0116497
0.01137
-0.0129553
0.0122837
-0.0142595
0.0132814
-0.0155392
0.0143636
-0.0167666
0.0155289
-0.0179092
0.016773
-0.0189331
0.0180889
-0.0198011
0.0194672
-0.0204814
0.0208949
-0.0209319
0.0223581
-0.0211345
0.0238366
-0.0210228
0.0253133
-0.0206234
0.0267569
-0.0197816
0.0281524
-0.018695
0.0294482
-0.0169453
0.0306558
-0.0153336
0.0316835
-0.012576
0.0326387
-0.0112846
-0.00738535
0.00660548
-0.000720273
0.00691127
-0.00168201
0.00727629
-0.00267577
0.00767849
-0.00372502
0.00810728
-0.00482794
0.00856263
-0.00597218
0.00905008
-0.0071608
0.00957756
-0.00839428
0.0101537
-0.00967267
0.0107871
-0.010993
0.0114854
-0.0123479
0.0122552
-0.0137251
0.0131017
-0.015106
0.0140287
-0.0164662
0.0150378
-0.0177757
0.0161283
-0.0189998
0.0172974
-0.0201022
0.0185391
-0.0210428
0.0198452
-0.0217876
0.0212042
-0.0222908
0.0226031
-0.0225334
0.0240233
-0.022443
0.0254488
-0.022049
0.0268498
-0.0211827
0.0282124
-0.0200576
0.029486
-0.0182189
0.0306821
-0.0165297
0.0317102
-0.0136041
0.032674
-0.0122484
-0.00809816
0.00776689
-0.000970526
0.00810021
-0.00201533
0.00848167
-0.00305722
0.00888631
-0.00412966
0.00930306
-0.00524469
0.00973409
-0.00640321
0.0101873
-0.007614
0.0106724
-0.00887936
0.0111993
-0.0101996
0.0117774
-0.0115711
0.0124153
-0.0129858
0.0131203
-0.0144301
0.0138984
-0.0158841
0.0147539
-0.0173217
0.0156896
-0.0187113
0.0167057
-0.0200159
0.0178004
-0.0211969
0.018969
-0.0222114
0.0202044
-0.0230229
0.021496
-0.0235825
0.0228324
-0.0238697
0.0241959
-0.0238065
0.0255721
-0.0234252
0.0269323
-0.0225429
0.0282639
-0.0213892
0.0295173
-0.0194723
0.0307038
-0.0177162
0.0317345
-0.0146347
0.0327092
-0.0132231
-0.00883666
0.00896357
-0.00125229
0.00932191
-0.00237367
0.00971059
-0.00344591
0.0101061
-0.00452521
0.0104996
-0.00563818
0.0108966
-0.00680019
0.0113077
-0.00802506
0.0117442
-0.00931589
0.0122172
-0.0106726
0.0127369
-0.0120908
0.0133122
-0.0135612
0.0139511
-0.015069
0.0146602
-0.0165932
0.0154446
-0.0181061
0.0163077
-0.0195744
0.0172507
-0.020959
0.0182729
-0.0222191
0.0193704
-0.0233089
0.0205374
-0.0241899
0.0217643
-0.0248094
0.0230407
-0.0251461
0.0243503
-0.0251161
0.0256798
-0.0247547
0.0270018
-0.0238649
0.0283048
-0.0226922
0.0295404
-0.0207078
0.0307198
-0.0188957
0.0317555
-0.0156703
0.0327436
-0.0142112
-0.00960354
0.0101901
-0.00156997
0.0105699
-0.00275343
0.0109528
-0.0038288
0.0113244
-0.00489679
0.0116815
-0.00599529
0.0120339
-0.00715264
0.0123949
-0.008386
0.012777
-0.00969807
0.0131921
-0.0110877
0.0136506
-0.0125493
0.014162
-0.0140725
0.0147344
-0.0156414
0.015375
-0.0172337
0.0160894
-0.0188205
0.0168817
-0.0203667
0.0177541
-0.0218314
0.0187064
-0.0231714
0.019736
-0.0243385
0.0208379
-0.0252918
0.0220035
-0.025975
0.0232235
-0.0263661
0.0244826
-0.0263752
0.0257688
-0.0260409
0.0270558
-0.0251519
0.0283334
-0.0239698
0.029554
-0.0219284
0.0307291
-0.0200709
0.0317725
-0.0167137
0.0327768
-0.0152155
-0.0104015
0.011443
-0.00193036
0.0118374
-0.00314788
0.0121967
-0.0041881
0.0125261
-0.00522611
0.0128323
-0.00630152
0.0131295
-0.00744987
0.0134328
-0.00868924
0.0137554
-0.0100207
0.0141093
-0.0114416
0.014505
-0.012945
0.0149519
-0.0145194
0.0154584
-0.0161479
0.0160318
-0.0178072
0.0166783
-0.019467
0.0174026
-0.021091
0.0182075
-0.0226362
0.0190936
-0.0240576
0.0200592
-0.0253041
0.0211001
-0.0263327
0.0222087
-0.0270836
0.0233766
-0.027534
0.0245894
-0.0275881
0.0258363
-0.0272878
0.0270922
-0.0264077
0.0283478
-0.0252254
0.0295569
-0.0231375
0.0307309
-0.0212449
0.031785
-0.0177678
0.0328082
-0.0162387
-0.0112335
0.0127201
-0.00233703
0.0131174
-0.0035452
0.0134294
-0.00450015
0.0136949
-0.00549154
0.013935
-0.00654165
0.0141668
-0.00768173
0.0144057
-0.00892811
0.0146648
-0.0102798
0.0149552
-0.0117321
0.0152873
-0.013277
0.0156701
-0.0149022
0.016112
-0.0165898
0.0166206
-0.0183157
0.0172022
-0.0200486
0.017862
-0.0217508
0.0186034
-0.0233777
0.0194279
-0.0248821
0.0203342
-0.0262104
0.0213191
-0.0273175
0.0223756
-0.0281401
0.0234963
-0.0286546
0.0246677
-0.0287594
0.0258799
-0.0285
0.0271089
-0.0276367
0.0283467
-0.0264632
0.029548
-0.0243388
0.0307242
-0.0224211
0.0317923
-0.018836
0.0328376
-0.0172839
-0.0121022
0.0140381
-0.00279554
0.0144089
-0.00391604
0.0146374
-0.00472863
0.0148135
-0.00566766
0.0149724
-0.00670049
0.0151298
-0.00783921
0.0152991
-0.00909733
0.0154916
-0.0104723
0.0157176
-0.0119581
0.0159864
-0.0135458
0.0163066
-0.0152224
0.0166863
-0.0169696
0.0171331
-0.0187625
0.0176536
-0.0205692
0.0182533
-0.0223505
0.0189361
-0.0240605
0.019704
-0.02565
0.0205565
-0.0270628
0.0214909
-0.0282519
0.0225009
-0.0291502
0.0235799
-0.0297337
0.0247151
-0.0298946
0.0258978
-0.0296827
0.0271047
-0.0288436
0.028329
-0.0276875
0.0295265
-0.0255363
0.0307085
-0.0236031
0.031794
-0.0199214
0.0328644
-0.0183542
-0.0130106
0.0154765
-0.00338518
0.0157104
-0.00414989
0.0157999
-0.00481819
0.0158609
-0.00572862
0.0159252
-0.00676478
0.0160017
-0.00791581
0.0160984
-0.00919397
0.0162237
-0.0105977
0.0163861
-0.0121204
0.0165935
-0.0137532
0.016854
-0.0154829
0.0171752
-0.0172908
0.0175645
-0.0191518
0.0180287
-0.0210333
0.0185734
-0.0228953
0.019203
-0.0246901
0.01992
-0.026367
0.0207244
-0.0278672
0.021614
-0.0291416
0.0225834
-0.0301196
0.0236263
-0.0307766
0.0247309
-0.0309992
0.025889
-0.0308408
0.027079
-0.0300336
0.0282939
-0.0289024
0.0294923
-0.0267347
0.030683
-0.0247938
0.0317907
-0.0210291
0.032887
-0.0194506
-0.0139629
0.0342028
-0.00268617
-0.0349018
0.0339694
-0.00391647
0.0339264
-0.00477521
0.0339444
-0.0057467
0.0340102
-0.00683049
0.0341149
-0.0080205
0.0342537
-0.00933277
0.0344263
-0.0107703
0.0346343
-0.0123284
0.0348801
-0.0139991
0.035167
-0.0157698
0.0354985
-0.0176222
0.0358779
-0.0195313
0.0363088
-0.0214642
0.036794
-0.0233806
0.0373362
-0.0252322
0.0379366
-0.0269674
0.0385955
-0.0285261
0.0393111
-0.0298572
0.0400804
-0.0308889
0.0408974
-0.0315935
0.0417556
-0.0318574
0.0426441
-0.0317293
0.0435523
-0.0309418
0.044464
-0.0298141
0.0453604
-0.0276311
0.0462263
-0.0256596
0.0470266
-0.0218295
0.0477825
-0.0202065
-0.0145837
0.0410889
-0.00199864
-0.0417764
0.0404536
-0.00328114
0.0400537
-0.00437532
0.0397829
-0.00547594
0.039608
-0.00665554
0.0395088
-0.00792132
0.0394695
-0.00929348
0.0394817
-0.0107825
0.0395414
-0.012388
0.0396468
-0.0141045
0.0397982
-0.0159211
0.0399966
-0.0178207
0.040244
-0.0197787
0.0405425
-0.0217627
0.0408946
-0.0237327
0.0413025
-0.0256401
0.0417675
-0.0274324
0.0422905
-0.029049
0.0428702
-0.0304369
0.0435049
-0.0315235
0.0441892
-0.0322779
0.0449192
-0.0325873
0.0456843
-0.0324944
0.0464786
-0.0317362
0.0472842
-0.0306197
0.0480917
-0.0284386
0.048876
-0.026444
0.0496217
-0.0225751
0.0503207
-0.0209055
-0.0151821
0.0481605
-0.00122813
-0.048931
0.0473646
-0.00248529
0.0467182
-0.00372884
0.0461981
-0.00495593
0.0457885
-0.0062459
0.0454749
-0.00760775
0.0452403
-0.0090589
0.0450724
-0.0106146
0.0449633
-0.0122789
0.0449079
-0.0140491
0.0449036
-0.0159168
0.0449491
-0.0178662
0.0450446
-0.0198742
0.0451911
-0.0219092
0.0453902
-0.0239317
0.0456437
-0.0258936
0.0459531
-0.0277419
0.0463197
-0.0294156
0.0467429
-0.0308602
0.0472222
-0.0320029
0.0477536
-0.0328093
0.0483351
-0.0331687
0.0489575
-0.0331168
0.0496188
-0.0323975
0.0503014
-0.0313022
0.0510027
-0.0291399
0.051693
-0.0271344
0.0523695
-0.0232516
0.0530053
-0.0215413
-0.0157487
0.0554959
-0.000383096
-0.0563409
0.0546014
-0.00159087
0.0537899
-0.00291734
0.0530779
-0.00424385
0.0524647
-0.0056327
0.0519481
-0.00709115
0.0515174
-0.00862829
0.0511617
-0.0102588
0.0508719
-0.0119891
0.0506416
-0.0138188
0.050466
-0.0157412
0.0503423
-0.0177425
0.0502692
-0.019801
0.0502464
-0.0218865
0.0502748
-0.0239602
0.050356
-0.0259747
0.0504914
-0.0278773
0.0506829
-0.029607
0.0509308
-0.0311081
0.0512358
-0.0323078
0.0515953
-0.0331689
0.0520094
-0.0335828
0.0524709
-0.0335783
0.0529812
-0.0329077
0.0535238
-0.0318448
0.0541029
-0.0297191
0.054685
-0.0277165
0.05528
-0.0238465
0.0558422
-0.0221035
-0.016276
0.0630143
0.000532431
-0.0639298
0.0620598
-0.000636412
0.0611448
-0.00200233
0.0602978
-0.00339685
0.0595255
-0.00486036
0.0588347
-0.0064004
0.0582238
-0.00801739
0.0576863
-0.00972124
0.0572153
-0.0115182
0.0568048
-0.0134083
0.0564497
-0.0153861
0.0561463
-0.0174392
0.0558925
-0.0195472
0.0556874
-0.0216814
0.0555313
-0.023804
0.0554254
-0.0258689
0.0553717
-0.0278236
0.0553723
-0.0296077
0.0554288
-0.0311646
0.0555431
-0.0324221
0.0557143
-0.0333401
0.0559445
-0.033813
0.0562285
-0.0338623
0.0565715
-0.0332507
0.0569583
-0.0322317
0.0574002
-0.030161
0.0578604
-0.0281766
0.0583615
-0.0243476
0.0588397
-0.0225817
-0.0167561
0.0706038
0.00148958
-0.071561
0.0696245
0.000342937
0.0686561
-0.00103395
0.0677268
-0.00246755
0.0668445
-0.00397804
0.0660197
-0.00557566
0.0652579
-0.0072556
0.0645584
-0.00902166
0.0639179
-0.0108777
0.0633328
-0.0128231
0.062799
-0.0148523
0.0623134
-0.0169536
0.0618739
-0.0191076
0.0614793
-0.0212868
0.0611299
-0.0234547
0.0608273
-0.0255662
0.0605736
-0.0275699
0.0603718
-0.029406
0.0602247
-0.0310174
0.0601356
-0.032333
0.0601052
-0.0333097
0.0601381
-0.0338459
0.060231
-0.0339552
0.0603927
-0.0334124
0.0606101
-0.0324491
0.0609011
-0.030452
0.0612266
-0.028502
0.061622
-0.024743
0.062006
-0.0229658
-0.0171808
0.0781371
0.00244211
-0.0790896
0.077171
0.00130905
0.0761946
-5.75256e-05
0.0752312
-0.00150421
0.074288
-0.0030348
0.0733749
-0.00466255
0.072501
-0.00638172
0.0716704
-0.00819102
0.0708839
-0.0100913
0.0701409
-0.0120801
0.0694398
-0.0141512
0.0687787
-0.0162925
0.0681565
-0.0184854
0.0675728
-0.0207031
0.0670285
-0.0229103
0.0665255
-0.0250632
0.0660668
-0.0271112
0.0656566
-0.0289957
0.0652986
-0.0306595
0.064998
-0.0320324
0.0647575
-0.0330692
0.0645835
-0.033672
0.0644753
-0.0338469
0.0644451
-0.0333822
0.0644821
-0.0324861
0.0646107
-0.0305806
0.0647904
-0.0286817
0.0650691
-0.0250218
0.0653496
-0.0232462
-0.0175419
0.085484
0.00333699
-0.0863789
0.0845733
0.00221975
0.083633
0.000882757
0.0826808
-0.000552011
0.0817235
-0.00207751
0.0807689
-0.0037079
0.0798266
-0.00543947
0.0789036
-0.00726802
0.078004
-0.00919161
0.07713
-0.0112062
0.0762828
-0.013304
0.0754628
-0.0154725
0.0746704
-0.017693
0.0739066
-0.0199393
0.0731733
-0.0221771
0.0724737
-0.0243636
0.071812
-0.0264495
0.0711935
-0.0283772
0.0706236
-0.0300896
0.0701091
-0.031518
0.0696548
-0.0326149
0.0692694
-0.0332866
0.0689545
-0.0335321
0.0687258
-0.0331534
0.0685749
-0.0323352
0.0685323
-0.030538
0.0685576
-0.028707
0.06871
-0.0251743
0.0688785
-0.0234147
-0.017831
0.0925313
0.00412347
-0.0933177
0.0917177
0.00303336
0.0908552
0.00174525
0.0899565
0.000346632
0.0890288
-0.00114978
0.0880777
-0.00275676
0.0871117
-0.00447351
0.0861387
-0.00629506
0.0851648
-0.00821764
0.0841944
-0.0102358
0.083231
-0.0123406
0.0822775
-0.0145189
0.0813362
-0.0167517
0.0804099
-0.019013
0.0795023
-0.0212694
0.078618
-0.0234793
0.0777626
-0.0255941
0.0769431
-0.0275577
0.0761667
-0.0293132
0.0754423
-0.0307935
0.0747766
-0.0319492
0.0741807
-0.0326907
0.0736586
-0.03301
0.0732291
-0.0327239
0.0728869
-0.031993
0.072668
-0.0303191
0.0725328
-0.0285718
0.0725512
-0.0251927
0.0726007
-0.0234642
-0.0180406
0.0991997
0.00476163
-0.0998379
0.0985179
0.00371519
0.0977689
0.00249421
0.0969612
0.00115439
0.0961016
-0.000290202
0.0951948
-0.00184993
0.0942473
-0.00352608
0.0932667
-0.00531444
0.0922595
-0.00721042
0.0912315
-0.00920778
0.0901879
-0.011297
0.0891332
-0.0134643
0.0880719
-0.0156905
0.0870088
-0.0179499
0.0859493
-0.0202099
0.0848997
-0.0224297
0.0838676
-0.024562
0.0828618
-0.0265518
0.0818915
-0.0283429
0.0809674
-0.0298695
0.0800988
-0.0310806
0.079299
-0.0318908
0.0785747
-0.0322857
0.0779473
-0.0320965
0.0774148
-0.0314605
0.0770181
-0.0299224
0.0767196
-0.0282733
0.0765986
-0.0250717
0.076524
-0.0233896
-0.0181633
0.105456
0.00522816
-0.105923
0.104929
0.00424271
0.104319
0.00310421
0.10363
0.00184275
0.10287
0.000469972
0.102042
-0.00102139
0.10115
-0.00263396
0.1002
-0.00436483
0.099199
-0.00620947
0.0981527
-0.0081615
0.097067
-0.0102113
0.0959476
-0.0123449
0.0948005
-0.0145434
0.0936322
-0.0167816
0.0924496
-0.0190274
0.0912612
-0.0212413
0.0900762
-0.023377
0.0889054
-0.025381
0.0877601
-0.0271976
0.0866532
-0.0287626
0.0855963
-0.0300237
0.0846049
-0.0308994
0.0836885
-0.0313692
0.082871
-0.031279
0.0821538
-0.0307433
0.0815819
-0.0293505
0.0811209
-0.0278123
0.0808576
-0.0248085
0.0806559
-0.0231878
-0.0181929
0.111317
0.00551816
-0.111607
0.110951
0.00460824
0.110492
0.00356313
0.109941
0.00239457
0.109301
0.00110973
0.108575
-0.000295955
0.107767
-0.00182581
0.106881
-0.00347821
0.105921
-0.00524933
0.104892
-0.00713317
0.103801
-0.00912048
0.102654
-0.0111978
0.101458
-0.0133467
0.100219
-0.0155428
0.0989467
-0.0177551
0.0976507
-0.0199452
0.0963419
-0.0220683
0.0950331
-0.0240722
0.0937374
-0.025902
0.09247
-0.0274951
0.0912447
-0.0287983
0.0900792
-0.029734
0.0889858
-0.0302758
0.0879906
-0.0302839
0.0870987
-0.0298514
0.0863582
-0.02861
0.0857389
-0.027193
0.0853333
-0.0244029
0.0850035
-0.0228579
-0.0181243
0.116841
0.00564319
-0.116966
0.116631
0.00481837
0.116322
0.0038724
0.115911
0.0028054
0.115401
0.00161967
0.114793
0.000312224
0.114087
-0.00112037
0.113287
-0.00267767
0.112395
-0.00435694
0.111414
-0.00615292
0.110351
-0.00805718
0.10921
-0.0100572
0.107999
-0.0121355
0.106725
-0.0142689
0.105398
-0.0164277
0.104028
-0.0185753
0.102628
-0.0206681
0.101211
-0.0226558
0.099794
-0.0244847
0.0983925
-0.0260936
0.0970229
-0.0274288
0.0957051
-0.0284161
0.094454
-0.0290247
0.0932977
-0.0291276
0.0922448
-0.0287985
0.0913459
-0.027711
0.0905757
-0.0264229
0.0900306
-0.0238578
0.089574
-0.0224014
-0.0179536
0.122119
0.00562639
-0.122102
0.122047
0.00489056
0.121875
0.00404462
0.121598
0.00308221
0.121216
0.00200149
0.120728
0.000799796
0.120134
-0.000525886
0.119433
-0.00197642
0.118626
-0.00355011
0.117716
-0.00524274
0.116706
-0.007047
0.1156
-0.00895163
0.114405
-0.0109406
0.113128
-0.0129922
0.111779
-0.0150785
0.110369
-0.0171648
0.10891
-0.0192094
0.107418
-0.0211641
0.10591
-0.0229762
0.104403
-0.0245868
0.102916
-0.0259419
0.10147
-0.0269706
0.100084
-0.027638
0.0987859
-0.0278296
0.0975889
-0.0276015
0.0965448
-0.0266669
0.0956339
-0.025512
0.0949545
-0.0231785
0.0943746
-0.0218215
-0.0176782
0.127255
0.00549634
-0.127125
0.127297
0.00484853
0.127242
0.00409958
0.127084
0.00324023
0.12682
0.00226556
0.126447
0.00117266
0.125962
-4.13568e-05
0.125364
-0.00137824
0.124651
-0.00283742
0.123825
-0.00441584
0.122885
-0.00610745
0.121836
-0.00790246
0.120682
-0.00978653
0.119429
-0.0117399
0.118088
-0.0137366
0.116667
-0.0157442
0.115181
-0.0177233
0.113645
-0.0196279
0.112076
-0.0214071
0.110493
-0.0230042
0.108917
-0.0243654
0.107369
-0.0254233
0.105871
-0.0261397
0.104453
-0.0264114
0.10313
-0.0262791
0.101956
-0.0254929
0.100917
-0.0244727
0.100111
-0.0223723
0.0994128
-0.0211234
-0.0172969
0.132352
0.00528171
-0.132137
0.132483
0.0047174
0.132523
0.00405982
0.132464
0.00329886
0.132302
0.00242767
0.132032
0.00144279
0.131649
0.000341213
0.131151
-0.00087941
0.130533
-0.00221955
0.129794
-0.00367731
0.128935
-0.00524796
0.127956
-0.0069233
0.12686
-0.00869078
0.125653
-0.0105327
0.124342
-0.0124256
0.122937
-0.0143392
0.12145
-0.016237
0.119898
-0.0180752
0.118296
-0.0198056
0.116666
-0.0213736
0.115026
-0.0227263
0.113403
-0.0237998
0.111817
-0.0245536
0.1103
-0.0248948
0.108872
-0.0248507
0.107585
-0.0242056
0.10643
-0.0233186
0.105506
-0.0214481
0.104696
-0.0203134
-0.0168098
0.137504
0.00500747
-0.13723
0.137701
0.00452015
0.137814
0.00394695
0.137835
0.00327797