/*--------------------------------*- C++ -*----------------------------------*\
  =========                 |
  \\      /  F ield         | OpenFOAM: The Open Source CFD Toolbox
   \\    /   O peration     | Website:  https://openfoam.org
    \\  /    A nd           | Version:  7
     \\/     M anipulation  |
\*---------------------------------------------------------------------------*/
FoamFile
{
    version     2.0;
    format      ascii;
    class       volVectorField;
    location    "5";
    object      U;
}
// * * * * * * * * * * * * * * * * * * * * * * * * * * * * * * * * * * * * * //

dimensions      [0 1 -1 0 0 0 0];

internalField   nonuniform List<vector> 
2125
(
(-0.000821497 0.000648115 4.40282e-22)
(-0.00413703 0.00140792 -1.40647e-21)
(-0.00998718 0.00178038 -1.73181e-21)
(-0.0165298 0.00187032 1.8076e-21)
(-0.0229762 0.00175583 -1.73822e-21)
(-0.0287611 0.0015079 -9.61683e-22)
(-0.0335079 0.00119214 1.69489e-21)
(-0.0370806 0.000869932 2.16131e-21)
(-0.0395394 0.000591852 -3.60023e-22)
(-0.0409998 0.000404898 1.07834e-21)
(-0.000910268 0.00192921 -4.87242e-22)
(-0.00427967 0.00418784 1.67101e-21)
(-0.0100512 0.00529209 -4.14887e-21)
(-0.0164173 0.00555377 3.9502e-21)
(-0.0226025 0.00520587 1.85699e-22)
(-0.0280513 0.00446036 3.14035e-21)
(-0.0323949 0.00351344 -5.63329e-21)
(-0.0355062 0.00254904 -8.45897e-21)
(-0.0374521 0.00171975 -1.68434e-21)
(-0.0382963 0.00116999 3.88389e-21)
(-0.0010839 0.00316515 4.53122e-22)
(-0.0045558 0.0068604 3.68584e-21)
(-0.0101672 0.00865712 9.15025e-21)
(-0.0161787 0.00906626 -8.67845e-21)
(-0.0218411 0.00847183 -2.04157e-21)
(-0.0266185 0.0072237 -1.92411e-21)
(-0.0301572 0.00564664 1.02132e-20)
(-0.0323477 0.00404663 6.52555e-21)
(-0.033272 0.00268056 1.6042e-21)
(-0.0328868 0.00180039 -1.20393e-20)
(-0.00133466 0.00432722 1.6077e-21)
(-0.00494734 0.00935702 -2.15731e-21)
(-0.0103111 0.0117816 -1.70976e-20)
(-0.0157871 0.0122985 1.58349e-21)
(-0.0206642 0.0114362 5.12863e-21)
(-0.0244361 0.00967737 -4.13736e-21)
(-0.026771 0.00747213 -1.94935e-22)
(-0.0275859 0.00524739 -1.77977e-21)
(-0.0269879 0.00336789 4.12689e-21)
(-0.0247642 0.00221073 1.19863e-20)
(-0.00165124 0.0053887 1.12422e-21)
(-0.00542753 0.0116135 -7.01861e-21)
(-0.0104474 0.0145777 1.77124e-20)
(-0.0152017 0.015148 -8.47378e-21)
(-0.0190297 0.0139891 -3.41032e-23)
(-0.0214634 0.0117092 1.26421e-20)
(-0.0221996 0.00887891 -5.97992e-21)
(-0.02119 0.00604425 6.47964e-22)
(-0.0185814 0.00368335 -2.61849e-21)
(-0.0139183 0.00233832 9.52167e-22)
(-0.00201903 0.00632548 1.35132e-20)
(-0.00596149 0.0135714 1.80899e-20)
(-0.0105288 0.016965 -4.84655e-21)
(-0.0143687 0.0175217 9.71124e-21)
(-0.0168812 0.0160313 3.21114e-21)
(-0.0176453 0.0132187 -4.72329e-21)
(-0.0163931 0.00976809 -1.91062e-21)
(-0.0131169 0.00634112 -8.38064e-21)
(-0.00801622 0.00353593 1.8979e-21)
(-0.000349849 0.00216559 -1.10998e-20)
(-0.00242048 0.00711655 -1.30383e-20)
(-0.00650672 0.0151794 -9.43348e-21)
(-0.0104975 0.0188732 8.16418e-21)
(-0.0132208 0.0193384 -1.47877e-20)
(-0.0141476 0.0174773 1.76874e-21)
(-0.0129119 0.0141202 1.86405e-20)
(-0.00928694 0.0100567 -3.50852e-21)
(-0.0033121 0.00605908 2.31183e-20)
(0.00477491 0.0028523 -5.57546e-22)
(0.0159526 0.00158247 -9.76161e-21)
(-0.00283543 0.00774435 1.11189e-20)
(-0.00701377 0.0163939 -2.20866e-20)
(-0.010285 0.0202428 -9.22019e-21)
(-0.0116778 0.0205303 1.1234e-20)
(-0.0107431 0.0182573 4.33805e-22)
(-0.00717721 0.0143464 -3.50713e-20)
(-0.000800576 0.00968193 -2.15328e-21)
(0.00829312 0.00513987 -1.84126e-20)
(0.0198251 0.00157946 -2.41968e-20)
(0.0350703 0.000510118 1.4365e-20)
(-0.00324152 0.00819486 -6.22385e-21)
(-0.00742686 0.0171801 3.28858e-21)
(-0.0098131 0.0210268 8.56686e-21)
(-0.0096469 0.0210453 -8.10437e-21)
(-0.00656704 0.0183201 -2.92536e-20)
(-0.000339495 0.0138513 1.03594e-20)
(0.00916307 0.00860438 1.50522e-21)
(0.0217872 0.00354958 2.775e-20)
(0.0372016 -0.000310886 3.71117e-20)
(0.0570493 -0.00102477 -1.6947e-20)
(-0.00361449 0.00845764 1.00112e-20)
(-0.00768454 0.0175119 1.0011e-20)
(-0.00899436 0.0211909 -1.46289e-21)
(-0.00702302 0.0208478 4.01862e-20)
(-0.00150433 0.0176345 1.77837e-20)
(0.00771931 0.0126125 1.37905e-20)
(0.0207178 0.0068124 2.00385e-20)
(0.0372738 0.00128425 -8.97665e-21)
(0.0569918 -0.00282695 -1.24015e-20)
(0.0819515 -0.00301435 -2.07547e-20)
(-0.00392845 0.00852575 -7.69769e-22)
(-0.00772035 0.0173722 -1.5898e-20)
(-0.00773307 0.0207146 -1.1988e-20)
(-0.00368985 0.0199198 -1.99506e-20)
(0.00457407 0.016191 -1.62968e-20)
(0.0171332 0.0106339 1.71852e-20)
(0.0339943 0.00432526 -1.68786e-20)
(0.0548721 -0.00162519 -1.19089e-20)
(0.0792967 -0.00594002 1.62075e-21)
(0.109856 -0.00542887 5.36722e-21)
(-0.00415603 0.00839533 -2.81503e-20)
(-0.00746352 0.0167528 1.4652e-20)
(-0.00592626 0.0195909 1.11055e-20)
(0.000478922 0.0182612 7.86909e-21)
(0.0118098 0.0140021 -1.47524e-20)
(0.0280511 0.00794636 -1.27473e-20)
(0.0491394 0.0011958 1.90627e-20)
(0.0747166 -0.00510774 -1.59748e-20)
(0.10423 -0.00957814 -1.10205e-21)
(0.140852 -0.00820518 -1.73299e-20)
(-0.0042685 0.00806572 2.39504e-20)
(-0.00683951 0.0156542 1.06354e-20)
(-0.00346499 0.0178261 5.73275e-22)
(0.00561786 0.0158894 -1.43457e-20)
(0.020355 0.0111026 9.08479e-22)
(0.0406346 0.00460832 1.70927e-20)
(0.0663144 -0.00248836 -4.95596e-21)
(0.0969561 -0.00904815 -6.18926e-21)
(0.131915 -0.013619 -1.40848e-20)
(0.175029 -0.0112392 2.61201e-20)
(-0.00423621 0.00753916 1.67377e-20)
(-0.00577105 0.014085 -2.90082e-20)
(-0.000236003 0.0154401 -2.33122e-20)
(0.0118673 0.0128391 1.05762e-20)
(0.0303693 0.00754787 2.21246e-20)
(0.0550549 0.000703834 1.94285e-20)
(0.0856921 -0.00660576 -2.1038e-20)
(0.121751 -0.0132846 4.15144e-20)
(0.162487 -0.0178802 -1.29003e-20)
(0.212468 -0.0143749 -3.11342e-20)
(-0.00402863 0.00682061 -2.47187e-20)
(-0.00417931 0.0120626 1.62641e-20)
(0.003876 0.012465 -8.31939e-21)
(0.0193699 0.00916115 9.78308e-22)
(0.0420153 0.00341199 9.58716e-21)
(0.0714878 -0.00366105 -3.05515e-20)
(0.107452 -0.0110057 2.7613e-20)
(0.149271 -0.0176105 -2.77242e-20)
(0.196086 -0.0221117 4.49056e-20)
(0.253238 -0.0173948 1.63499e-20)
(-0.00361473 0.00591792 5.5396e-21)
(-0.00198524 0.00961239 3.2205e-20)
(0.00898552 0.00894569 -8.67692e-21)
(0.0282665 0.00492088 8.8686e-21)
(0.0554529 -0.00121538 1.08225e-20)
(0.0901064 -0.0083642 -3.45675e-21)
(0.131775 -0.0155172 2.41876e-20)
(0.179692 -0.021784 1.42716e-21)
(0.232871 -0.0259957 -2.85349e-20)
(0.297394 -0.0200128 3.95584e-20)
(-0.0029635 0.004842 -1.4505e-20)
(0.000888671 0.00676847 -3.08419e-20)
(0.0152029 0.00493893 2.77408e-20)
(0.0386905 0.000197153 1.45927e-20)
(0.0708312 -0.00623268 -6.88083e-20)
(0.111071 -0.0132752 5.79408e-20)
(0.158828 -0.0199632 -5.31889e-20)
(0.213185 -0.0255452 1.05445e-21)
(0.273008 -0.0291397 -1.2299e-20)
(0.344969 -0.0218128 -3.65912e-20)
(-0.00204464 0.00360719 1.29791e-20)
(0.00451626 0.00357378 -2.11376e-21)
(0.0226305 0.00051367 -6.81051e-21)
(0.0507616 -0.00491877 -7.18379e-22)
(0.0882794 -0.0115299 -4.72037e-21)
(0.134519 -0.018265 -1.8221e-20)
(0.188757 -0.0241814 7.69414e-21)
(0.249905 -0.0286424 -1.29652e-20)
(0.316644 -0.0310149 4.11717e-21)
(0.39582 -0.0219793 1.85824e-21)
(-0.000829425 0.00223164 -2.66199e-20)
(0.00896538 8.07411e-05 -2.30562e-21)
(0.0313585 -0.0042486 3.37653e-21)
(0.0645792 -0.0103233 1.52796e-21)
(0.107896 -0.0169911 2.28236e-20)
(0.160543 -0.0232171 -6.89985e-20)
(0.221672 -0.028061 4.72292e-20)
(0.29004 -0.0308967 -3.63857e-20)
(0.364044 -0.0309617 3.06364e-20)
(0.44947 -0.0191682 3.30769e-20)
(0.000708361 0.000737668 -3.37326e-21)
(0.0142955 -0.00364813 1.59977e-20)
(0.0414607 -0.00925286 -2.0703e-20)
(0.0802148 -0.0158989 -6.68761e-21)
(0.129733 -0.0224936 1.34307e-20)
(0.18917 -0.028035 6.60496e-20)
(0.257603 -0.0315843 -1.33863e-20)
(0.333836 -0.0323659 6.59164e-21)
(0.41626 -0.0288516 -3.63677e-20)
(0.507225 -0.0136212 1.76289e-20)
(0.00259158 -0.000848016 -1.00717e-20)
(0.0205559 -0.00753979 -8.40899e-21)
(0.0529916 -0.0143892 2.30407e-21)
(0.0977067 -0.0215107 8.52784e-21)
(0.153786 -0.0278986 -2.62716e-20)
(0.220313 -0.032624 -1.08864e-20)
(0.29635 -0.0348115 -3.52703e-20)
(0.381065 -0.0335201 3.6465e-20)
(0.474357 -0.026436 4.0035e-20)
(0.578939 -0.0112794 -1.5229e-20)
(0.00483913 -0.00249439 -4.98616e-21)
(0.0277844 -0.0115106 2.11038e-20)
(0.0659851 -0.0195315 -2.40452e-20)
(0.117059 -0.027001 -2.99914e-21)
(0.179991 -0.0330344 -1.23064e-20)
(0.253771 -0.0368338 2.71914e-20)
(0.337396 -0.0377119 3.56389e-20)
(0.430184 -0.0349548 -3.51533e-20)
(0.532658 -0.0271269 3.94079e-20)
(0.644281 -0.0190307 6.36689e-21)
(0.00746569 -0.00416656 -1.43585e-20)
(0.0360068 -0.015467 -4.26904e-20)
(0.0804554 -0.0245384 4.32319e-20)
(0.138248 -0.0321883 6.39665e-21)
(0.208246 -0.0376862 9.44375e-21)
(0.289296 -0.0404144 6.28111e-21)
(0.380222 -0.0399561 2.76428e-20)
(0.480136 -0.0360007 2.07033e-20)
(0.589209 -0.0280391 -7.61344e-20)
(0.703466 -0.0244531 -3.88965e-20)
(0.0452374 -0.0193075 1.04942e-20)
(0.0963983 -0.0292555 -2.47164e-20)
(0.161225 -0.0368725 4.81346e-21)
(0.238427 -0.0416088 8.07494e-21)
(0.326652 -0.0430582 -5.98315e-20)
(0.424438 -0.041098 2.74829e-20)
(0.530457 -0.0358071 -1.87409e-20)
(0.644071 -0.0272623 2.03343e-20)
(0.759102 -0.0252509 -8.00016e-21)
(0.113792 -0.0335209 -1.31963e-21)
(0.185923 -0.0408439 -6.93222e-21)
(0.2704 -0.0445477 1.24079e-22)
(0.365616 -0.0444559 3.28774e-22)
(0.469751 -0.0407362 -4.15989e-20)
(0.580929 -0.0338049 5.73447e-21)
(0.697615 -0.0241169 5.58346e-20)
(0.812544 -0.0218454 2.65982e-20)
(0.132595 -0.0371693 4.21452e-20)
(0.212252 -0.0438931 1.04183e-21)
(0.304009 -0.046256 -1.89517e-20)
(0.405965 -0.0443254 5.20213e-20)
(0.515893 -0.0385514 1.18677e-20)
(0.631347 -0.0296442 9.37625e-22)
(0.749965 -0.0183344 -2.42557e-20)
(0.864065 -0.014638 -3.38806e-20)
(0.240098 -0.0458176 -1.82903e-20)
(0.339074 -0.0465055 3.05476e-20)
(0.447453 -0.0424248 -1.54434e-20)
(0.562581 -0.0343048 -1.80232e-20)
(0.68146 -0.0231232 -4.20631e-21)
(0.801015 -0.00984315 -1.429e-20)
(0.913554 -0.00403457 1.65957e-20)
(0.375392 -0.0450937 1.6817e-20)
(0.489812 -0.0385582 -5.75305e-20)
(0.609503 -0.0278337 3.83355e-20)
(0.730962 -0.0141553 -1.80083e-20)
(0.850531 0.0012904 2.8685e-20)
(0.960758 0.00952536 8.25624e-21)
(0.656315 -0.0190444 -9.6987e-21)
(0.779507 -0.00274201 8.66741e-21)
(0.898207 0.0149135 -2.19314e-20)
(1.00537 0.0256081 -2.36309e-20)
(0.826719 0.0110475 -2.75797e-20)
(0.943704 0.0308219 5.17535e-22)
(1.04707 0.0438011 1.64949e-20)
(0.986682 0.0487787 2.20335e-20)
(1.08558 0.0637165 -9.9072e-21)
(-0.000821501 -0.000648178 -4.40282e-22)
(-0.00413704 -0.0014081 1.40647e-21)
(-0.00998719 -0.00178063 1.73181e-21)
(-0.0426082 0.000425454 1.94844e-22)
(-0.0438711 3.58515e-06 -4.6483e-22)
(-0.0428345 -0.000508188 3.54515e-23)
(-0.0394733 -0.001079 2.0349e-22)
(-0.0332028 -0.00166811 -2.55141e-24)
(-0.0237634 -0.00224204 3.33602e-23)
(-0.0109849 -0.00278366 2.77069e-23)
(0.00524738 -0.00328291 -2.0294e-22)
(0.0250011 -0.00373615 7.6384e-23)
(0.0483234 -0.00414267 -1.78846e-22)
(0.0752443 -0.00450255 1.52103e-22)
(0.105774 -0.00481533 -1.58442e-22)
(0.139892 -0.00507937 5.18404e-23)
(0.177535 -0.00529198 2.79045e-23)
(0.218579 -0.00544988 -5.55014e-23)
(0.262835 -0.00554967 -3.55697e-23)
(0.310018 -0.00558886 -2.32832e-23)
(0.359801 -0.00556543 8.8047e-24)
(0.411685 -0.00547976 6.2375e-24)
(0.465262 -0.00533095 2.53384e-24)
(0.519705 -0.0051238 -8.25198e-24)
(0.574743 -0.00485403 1.09059e-24)
(0.628828 -0.00453597 2.5009e-24)
(0.682489 -0.00415092 -2.43569e-24)
(0.732307 -0.00374425 6.40091e-24)
(0.78162 -0.00325491 -3.12528e-24)
(0.822028 -0.00282462 -6.59535e-24)
(0.865541 -0.00225543 3.28461e-25)
(0.889963 -0.00195345 -2.05457e-24)
(0.932079 -0.00130486 1.2585e-23)
(-0.0395278 0.00123756 3.71298e-22)
(-0.0406697 -3.83993e-05 9.5671e-22)
(-0.0393823 -0.00156278 -1.42167e-21)
(-0.0357882 -0.00326758 3.75946e-22)
(-0.0293089 -0.00502695 1.9488e-22)
(-0.0196942 -0.00674006 -7.25598e-22)
(-0.00678346 -0.0083563 1.1523e-21)
(0.00953453 -0.00984584 -9.67793e-22)
(0.0293265 -0.0111983 -2.32325e-23)
(0.0526408 -0.0124116 5.24326e-22)
(0.0795098 -0.013486 -7.26386e-23)
(0.109947 -0.0144201 -1.41562e-22)
(0.143933 -0.015209 -9.79647e-23)
(0.18141 -0.0158444 1.67927e-22)
(0.222256 -0.0163165 2.50629e-23)
(0.266285 -0.016615 1.32959e-22)
(0.313219 -0.0167324 -7.54473e-23)
(0.362732 -0.0166625 3.26247e-23)
(0.414333 -0.0164065 7.32738e-24)
(0.467617 -0.0159617 -2.47826e-23)
(0.521765 -0.0153422 -1.6418e-23)
(0.576511 -0.0145353 8.6747e-25)
(0.630315 -0.0135838 3.43482e-25)
(0.683708 -0.0124316 -1.10798e-23)
(0.733283 -0.0112147 7.81764e-25)
(0.782374 -0.00974984 4.4047e-25)
(0.822601 -0.00846185 2.60206e-24)
(0.865948 -0.00675719 6.14353e-24)
(0.890267 -0.00585313 -8.40836e-25)
(0.932254 -0.00391034 -1.49807e-23)
(-0.0333739 0.00193631 2.30785e-21)
(-0.0342743 -0.000217784 -2.09146e-21)
(-0.032487 -0.0027305 6.26168e-22)
(-0.0284349 -0.00554774 -2.3314e-21)
(-0.0215442 -0.00845354 9.97381e-22)
(-0.0115852 -0.0112798 2.29798e-21)
(0.00158385 -0.0139446 1.14666e-22)
(0.0180675 -0.0164 -1.57485e-21)
(0.0379309 -0.0186299 6.63513e-23)
(0.0612253 -0.0206311 4.30337e-22)
(0.0879877 -0.0224043 -3.49536e-22)
(0.118237 -0.0239469 1.57118e-22)
(0.151961 -0.0252505 3.86534e-22)
(0.189105 -0.0263012 2.16844e-22)
(0.229556 -0.0270824 -9.11735e-23)
(0.273136 -0.0275769 -3.93843e-22)
(0.319572 -0.0277719 1.94882e-22)
(0.36855 -0.027657 -1.69351e-22)
(0.419588 -0.0272338 8.9934e-23)
(0.472292 -0.0264976 -3.26797e-23)
(0.525855 -0.025472 5.44989e-23)
(0.580022 -0.0241354 8.65335e-25)
(0.633266 -0.0225589 1.39322e-24)
(0.686129 -0.0206487 1.5681e-23)
(0.735222 -0.018631 1.58045e-25)
(0.783874 -0.0162001 3.50982e-23)
(0.82374 -0.0140632 -2.54758e-24)
(0.866758 -0.0112319 -7.59693e-24)
(0.890873 -0.0097314 3.12297e-24)
(0.932603 -0.00650334 -9.03626e-24)
(-0.0241548 0.00245495 -3.17363e-21)
(-0.0246989 -0.000609705 1.65188e-21)
(-0.02217 -0.00408069 -1.84598e-21)
(-0.0174465 -0.00797628 1.97728e-21)
(-0.00995377 -0.0119888 -2.38204e-21)
(0.000506246 -0.0158853 -2.03564e-22)
(0.0140472 -0.0195558 2.71022e-21)
(0.030765 -0.0229371 -1.50241e-22)
(0.0507233 -0.0260085 -9.11141e-22)
(0.073978 -0.0287668 9.47734e-24)
(0.100573 -0.031213 -2.98381e-23)
(0.130537 -0.0333433 5.1062e-22)
(0.163865 -0.0351455 -1.01445e-22)
(0.200513 -0.0365996 -8.31046e-22)
(0.240375 -0.0376819 5.3082e-22)
(0.283285 -0.038368 -1.13577e-22)
(0.328984 -0.0386396 4.98378e-23)
(0.377168 -0.038482 5.14182e-24)
(0.427372 -0.037897 -3.96612e-23)
(0.479218 -0.0368773 1.64458e-23)
(0.531915 -0.0354559 2.17326e-23)
(0.585224 -0.0336016 -5.99054e-25)
(0.637642 -0.0314141 4.53613e-25)
(0.68972 -0.0287608 1.91115e-24)
(0.738098 -0.025958 -2.7417e-23)
(0.7861 -0.0225768 -1.667e-23)
(0.825432 -0.0196055 8.07929e-24)
(0.867962 -0.015662 -1.04862e-23)
(0.891773 -0.0135743 2.73903e-24)
(0.933121 -0.00907574 4.03869e-23)
(-0.0118787 0.002714 6.63695e-21)
(-0.0119617 -0.00127824 -2.12321e-21)
(-0.0084615 -0.00567467 2.512e-21)
(-0.00286899 -0.0106039 -1.70845e-22)
(0.00539854 -0.0156672 -2.28421e-21)
(0.0164973 -0.020575 1.20915e-21)
(0.0305052 -0.0251923 2.00592e-22)
(0.0475084 -0.0294447 -1.5049e-21)
(0.0675704 -0.0333089 -8.12244e-23)
(0.090754 -0.0367826 7.58837e-22)
(0.117114 -0.0398674 -4.74901e-22)
(0.146689 -0.0425574 -7.96881e-23)
(0.179486 -0.0448364 4.58389e-22)
(0.215474 -0.0466778 -1.88668e-22)
(0.254558 -0.0480506 3.77292e-23)
(0.296587 -0.0489229 -3.04063e-22)
(0.341315 -0.0492704 1.37367e-22)
(0.388459 -0.0490736 4.30432e-23)
(0.437571 -0.0483341 -1.76106e-24)
(0.488292 -0.047042 -2.14811e-23)
(0.539856 -0.0452388 -9.54924e-23)
(0.592045 -0.0428838 4.32303e-25)
(0.643381 -0.0401041 -4.24415e-25)
(0.694431 -0.0367283 -2.71916e-23)
(0.741875 -0.0331619 2.80775e-23)
(0.789024 -0.0288521 3.90773e-24)
(0.827656 -0.0250661 -2.65804e-23)
(0.869545 -0.0200305 -6.61955e-23)
(0.892959 -0.0173684 -8.03187e-24)
(0.933803 -0.0116196 -2.13357e-23)
(0.00344129 0.00258884 1.55555e-21)
(0.00392978 -0.00225189 2.16025e-22)
(0.00860134 -0.0075615 -4.01835e-22)
(0.0152424 -0.0134714 -1.36185e-21)
(0.0244339 -0.0195161 5.69017e-21)
(0.0362831 -0.0253602 -1.74431e-21)
(0.0508283 -0.0308504 -1.17937e-21)
(0.0681454 -0.0359053 -8.33791e-22)
(0.0883005 -0.0405022 1.35965e-21)
(0.111367 -0.0446402 3.1453e-22)
(0.137412 -0.0483211 -6.22128e-22)
(0.166489 -0.051537 -6.64682e-22)
(0.19862 -0.0542665 3.95478e-22)
(0.233786 -0.0564763 -1.52333e-22)
(0.271908 -0.0581272 2.15749e-22)
(0.312852 -0.0591793 1.21959e-22)
(0.35639 -0.0596022 -1.02736e-22)
(0.402259 -0.059371 1.42623e-22)
(0.450036 -0.0584868 -2.30633e-22)
(0.499385 -0.0569362 -1.41096e-23)
(0.549567 -0.0547692 -1.6373e-23)
(0.600387 -0.0519344 -1.06285e-23)
(0.650405 -0.0485865 -1.47269e-23)
(0.7002 -0.0445142 1.95585e-23)
(0.746504 -0.0402108 3.81377e-23)
(0.79261 -0.0349995 5.63405e-23)
(0.830387 -0.0304238 3.94742e-23)
(0.871491 -0.0243212 -2.55381e-24)
(0.894419 -0.0211006 1.0474e-23)
(0.934644 -0.0141272 -6.68744e-24)
(0.02179 0.00210051 -3.86023e-22)
(0.0230005 -0.00360038 -1.71849e-21)
(0.0289715 -0.00978987 2.85662e-21)
(0.0368261 -0.0166097 -4.24061e-21)
(0.0470617 -0.0235531 3.97052e-22)
(0.0597415 -0.0302428 1.84407e-21)
(0.0748627 -0.0365177 3.37027e-24)
(0.0924942 -0.0422951 -2.64885e-21)
(0.112709 -0.0475547 3.06713e-21)
(0.135593 -0.0522981 -1.66486e-21)
(0.161233 -0.0565269 1.3298e-21)
(0.189696 -0.0602302 9.60405e-22)
(0.221022 -0.0633807 -8.98285e-22)
(0.255207 -0.0659375 -7.00768e-22)
(0.29219 -0.0678529 1.14699e-22)
(0.331855 -0.0690785 -1.81112e-22)
(0.373997 -0.0695771 -5.21043e-23)
(0.418375 -0.0693179 -7.3805e-23)
(0.464592 -0.0683011 -8.90323e-23)
(0.51234 -0.0665089 1.30803e-22)
(0.560911 -0.0639994 4.79563e-23)
(0.610139 -0.06071 -3.55685e-24)
(0.658619 -0.0568222 1.66911e-23)
(0.706953 -0.0520838 -5.89644e-23)
(0.751927 -0.0470754 -3.82337e-24)
(0.796816 -0.0409947 -5.02233e-23)
(0.833594 -0.0356586 5.31078e-23)
(0.873777 -0.0285189 4.29003e-23)
(0.896137 -0.0247589 1.12675e-24)
(0.935634 -0.0165914 1.92203e-23)
(0.0431915 0.00129845 5.32019e-21)
(0.0452222 -0.00539372 -1.25721e-22)
(0.0526329 -0.0123907 1.24011e-21)
(0.0618238 -0.0200379 -7.12168e-22)
(0.0731854 -0.0277819 4.82563e-22)
(0.0867362 -0.0352129 3.63916e-21)
(0.102434 -0.0421727 -2.42119e-21)
(0.120348 -0.0485825 -2.23161e-21)
(0.140561 -0.0544276 -1.90631e-22)
(0.163179 -0.0597119 -3.39356e-22)
(0.188307 -0.0644362 2.04936e-21)
(0.216033 -0.0685853 -1.42693e-21)
(0.246413 -0.0721255 6.47456e-22)
(0.279462 -0.075007 -1.21559e-21)
(0.315137 -0.0771731 -3.10327e-22)
(0.353343 -0.0785662 6.4584e-22)
(0.393898 -0.0791421 2.26421e-22)
(0.436586 -0.0788631 3.34663e-23)
(0.48104 -0.0777279 1.18363e-22)
(0.526983 -0.075714 -7.46153e-23)
(0.573738 -0.0728867 -1.00059e-22)
(0.62117 -0.0691714 3.14525e-23)
(0.667919 -0.0647759 -9.10741e-24)
(0.714605 -0.0594062 4.73919e-23)
(0.758078 -0.0537289 -8.02805e-23)
(0.801593 -0.0468154 -4.38566e-23)
(0.837241 -0.0407525 -1.82326e-23)
(0.87638 -0.0326098 -1.84103e-23)
(0.898096 -0.0283319 2.77797e-24)
(0.936765 -0.0190054 -6.35506e-23)
(0.0676664 0.000110309 -3.50489e-21)
(0.0706034 -0.00762355 3.64413e-21)
(0.0795699 -0.0153741 5.29927e-22)
(0.0901812 -0.0237596 -2.08879e-21)
(0.102705 -0.0321921 -2.93296e-21)
(0.11712 -0.0402477 1.36482e-21)
(0.133353 -0.0477827 1.3223e-22)
(0.151478 -0.0547281 -2.6381e-21)
(0.171598 -0.0610764 -4.61623e-22)
(0.193843 -0.066834 1.81288e-21)
(0.21834 -0.0719993 1.73295e-22)
(0.245197 -0.0765517 4.749e-22)
(0.27449 -0.0804494 -6.57533e-22)
(0.306251 -0.0836335 1.25978e-21)
(0.340459 -0.0860371 -4.27766e-22)
(0.377039 -0.0875931 -6.46744e-22)
(0.415833 -0.0882492 5.49994e-22)
(0.456655 -0.0879608 3.56263e-22)
(0.499166 -0.0867241 -2.94076e-22)
(0.543121 -0.0845109 -4.69846e-23)
(0.587881 -0.0813933 8.65187e-24)
(0.633341 -0.077284 -1.05239e-23)
(0.678188 -0.0724166 1.61111e-24)
(0.723062 -0.066454 -4.99736e-23)
(0.764886 -0.0601475 4.25222e-23)
(0.806885 -0.0524416 9.2978e-23)
(0.841289 -0.045689 1.88271e-24)
(0.879273 -0.0365811 -2.41495e-23)
(0.900278 -0.0318094 -4.13277e-24)
(0.938025 -0.0213628 -6.21562e-23)
(0.0952488 -0.00147673 2.65134e-21)
(0.0991809 -0.0102859 2.82205e-21)
(0.10978 -0.0187378 -4.16616e-21)
(0.121851 -0.0277613 -2.39454e-21)
(0.135521 -0.036757 5.6981e-21)
(0.150738 -0.04531 8.98553e-22)
(0.167412 -0.0533033 -3.09354e-21)
(0.185637 -0.0606835 2.04201e-21)
(0.205543 -0.0674512 -1.78399e-21)
(0.227285 -0.0736138 1.26753e-21)
(0.251017 -0.0791658 4.15533e-22)
(0.276867 -0.0840796 9.63829e-22)
(0.30493 -0.088304 -4.97874e-22)
(0.335258 -0.0917697 -6.79425e-22)
(0.367848 -0.0943993 7.79329e-22)
(0.40265 -0.0961152 1.62936e-22)
(0.43953 -0.0968568 -4.39416e-22)
(0.47833 -0.0965713 3.43304e-22)
(0.518742 -0.0952522 -1.0849e-22)
(0.560555 -0.0928647 1.77579e-22)
(0.603167 -0.0894871 8.49364e-23)
(0.646504 -0.0850185 1.43823e-23)
(0.689304 -0.0797176 1.47327e-23)
(0.732227 -0.0732034 -1.57116e-23)
(0.772273 -0.0663108 -2.10965e-23)
(0.812635 -0.057856 -6.35743e-23)
(0.845695 -0.0504538 -8.16298e-23)
(0.882427 -0.0404219 8.92387e-23)
(0.902663 -0.0351821 1.4661e-23)
(0.939404 -0.0236579 9.15399e-23)
(0.12599 -0.00344718 4.06008e-21)
(0.131014 -0.013368 3.29627e-21)
(0.143283 -0.0224629 -9.65635e-21)
(0.156797 -0.032011 -3.84726e-21)
(0.171531 -0.0414316 1.20204e-20)
(0.187425 -0.0503465 -1.03718e-20)
(0.204394 -0.0586782 4.91856e-21)
(0.222564 -0.066392 2.16473e-21)
(0.2421 -0.0734967 -9.27401e-22)
(0.263188 -0.0799983 2.60587e-22)
(0.286006 -0.0858855 -1.56575e-21)
(0.310705 -0.0911212 1.37928e-21)
(0.337396 -0.0956439 1.19577e-21)
(0.366152 -0.0993728 -1.35617e-21)
(0.396988 -0.102219 5.34254e-22)
(0.429875 -0.104094 1.15602e-24)
(0.464706 -0.104929 8.1179e-22)
(0.501351 -0.104661 5.04839e-22)
(0.539535 -0.103281 -1.5887e-22)
(0.579076 -0.100747 4.22167e-23)
(0.619414 -0.0971417 -1.64162e-24)
(0.660505 -0.0923505 -1.02606e-22)
(0.701141 -0.0866571 3.7576e-24)
(0.741998 -0.0796351 6.21169e-23)
(0.78016 -0.0722017 4.35373e-25)
(0.818784 -0.0630442 2.32024e-23)
(0.850416 -0.0550345 2.35032e-23)
(0.88581 -0.0441223 -1.26546e-23)
(0.905229 -0.038442 -2.9282e-23)
(0.940888 -0.0258855 2.31246e-23)
(0.159961 -0.00578073 -1.32192e-21)
(0.166194 -0.016843 1.04862e-20)
(0.180118 -0.0265108 -3.6302e-21)
(0.19499 -0.0364553 -1.24137e-20)
(0.210631 -0.0461506 1.58118e-20)
(0.227005 -0.0552877 -7.17855e-21)
(0.244064 -0.0638384 2.89931e-22)
(0.261981 -0.0717889 -5.96221e-21)
(0.28096 -0.0791531 3.09395e-21)
(0.301223 -0.0859332 1.46136e-21)
(0.322968 -0.0921086 -2.79595e-21)
(0.346367 -0.0976313 9.9721e-22)
(0.371548 -0.102428 2.50805e-23)
(0.3986 -0.106405 1.3528e-22)
(0.427557 -0.109462 -1.03662e-21)
(0.458411 -0.111499 8.42792e-22)
(0.49108 -0.112437 2.43644e-22)
(0.525461 -0.112204 -6.36409e-22)
(0.561311 -0.110787 -3.70974e-22)
(0.598479 -0.108135 8.71717e-23)
(0.636443 -0.104336 1.21069e-22)
(0.675193 -0.0992614 -7.26446e-23)
(0.713571 -0.0932179 3.19651e-23)
(0.752271 -0.0857335 8.20176e-24)
(0.788466 -0.0778064 1.90064e-23)
(0.825271 -0.0679943 4.36864e-23)
(0.855407 -0.0594212 -4.80326e-23)
(0.889393 -0.0476744 -2.71928e-23)
(0.907954 -0.041582 -2.31271e-24)
(0.942467 -0.0280411 -2.74261e-23)
(0.19725 -0.00845228 1.74362e-20)
(0.204847 -0.0206709 5.44998e-23)
(0.220353 -0.0308215 -1.67595e-20)
(0.236406 -0.0410169 1.4529e-20)
(0.252706 -0.0508273 6.05482e-22)
(0.269286 -0.0600469 -5.15582e-21)
(0.286171 -0.0687039 3.90066e-21)
(0.303594 -0.0768024 2.57379e-21)
(0.321805 -0.0843576 -2.27168e-21)
(0.341051 -0.0913634 -3.66353e-21)
(0.361557 -0.0977872 1.06719e-21)
(0.383506 -0.103568 8.01456e-23)
(0.407044 -0.108618 -4.87462e-22)
(0.43227 -0.112833 9.0549e-22)
(0.459238 -0.116098 -4.49474e-22)
(0.487959 -0.118303 4.84144e-22)
(0.518373 -0.119357 -2.02314e-22)
(0.550404 -0.119179 5.53084e-22)
(0.583839 -0.117751 1.32016e-22)
(0.618558 -0.115012 -1.4411e-22)
(0.654078 -0.111056 -1.95474e-22)
(0.690415 -0.105737 1.11926e-22)
(0.726468 -0.0993876 -7.83656e-24)
(0.762946 -0.0914873 1.50961e-24)
(0.797112 -0.0831147 -2.78793e-23)
(0.832034 -0.0726972 3.24509e-23)
(0.860623 -0.0636056 5.0071e-23)
(0.893143 -0.0510716 1.35562e-23)
(0.910815 -0.0445965 6.44054e-24)
(0.944126 -0.0301208 1.09482e-22)
(0.237973 -0.0114401 3.78205e-21)
(0.247148 -0.0248019 -4.67059e-21)
(0.264076 -0.0353107 6.92149e-21)
(0.281014 -0.0455913 2.49363e-21)
(0.29762 -0.0553519 2.52145e-21)
(0.314052 -0.0645215 -4.00542e-21)
(0.330444 -0.0731842 -6.06671e-21)
(0.347097 -0.0813558 4.89754e-21)
(0.364301 -0.0890458 3.55539e-21)
(0.382332 -0.0962352 -6.20598e-21)
(0.401425 -0.102876 7.42476e-22)
(0.421778 -0.108893 1.57008e-21)
(0.443545 -0.114184 -9.2681e-22)
(0.466838 -0.118631 2.59982e-21)
(0.491722 -0.122107 -1.00428e-21)
(0.518227 -0.124488 -5.60304e-23)
(0.546315 -0.125674 1.41303e-22)
(0.575933 -0.125574 4.53332e-22)
(0.606898 -0.124161 -2.1919e-22)
(0.639117 -0.121368 3.41354e-22)
(0.672146 -0.117293 -2.66557e-22)
(0.706027 -0.11177 -1.60337e-23)
(0.739712 -0.105158 -2.04788e-23)
(0.773923 -0.0968891 -2.8695e-24)
(0.806018 -0.0881196 3.98435e-23)
(0.839014 -0.0771464 -9.91294e-23)
(0.866019 -0.067582 -5.33567e-23)
(0.897031 -0.054309 2.87125e-23)
(0.913791 -0.0474809 -9.73675e-24)
(0.945854 -0.0321212 -9.6e-23)
(0.282284 -0.0147392 -6.64725e-21)
(0.293324 -0.0291763 8.84948e-21)
(0.311391 -0.0398619 2.83161e-22)
(0.328761 -0.0500409 -4.19894e-21)
(0.345203 -0.0595903 5.88433e-21)
(0.361054 -0.0685938 -1.41225e-21)
(0.376584 -0.0771817 3.68343e-22)
(0.392162 -0.0853697 5.50874e-21)
(0.40811 -0.0931539 -8.82263e-21)
(0.424717 -0.100498 7.2056e-21)
(0.442229 -0.107335 -2.57416e-21)
(0.460845 -0.113574 -2.33021e-21)
(0.480725 -0.1191 3.98964e-22)
(0.501989 -0.123778 -2.37195e-22)
(0.524712 -0.127471 9.78151e-22)
(0.548938 -0.130042 4.3631e-22)
(0.57465 -0.131379 -1.397e-21)
(0.601815 -0.131379 -3.46666e-23)
(0.630277 -0.130013 7.44116e-22)
(0.659971 -0.127199 -2.98303e-22)
(0.690485 -0.123041 1.9935e-22)
(0.721889 -0.117356 -1.88414e-23)
(0.753186 -0.110526 -7.40823e-24)
(0.785109 -0.101935 3.77793e-24)
(0.815111 -0.0928169 -1.38061e-23)
(0.846153 -0.0813381 3.75913e-23)
(0.871554 -0.0713464 -6.80013e-24)
(0.901024 -0.0573831 5.50496e-23)
(0.91686 -0.0502316 2.33509e-24)
(0.947637 -0.0340397 7.25842e-23)
(0.330409 -0.0183643 -1.03339e-21)
(0.343671 -0.0337078 -1.26814e-20)
(0.362398 -0.0443125 3.10775e-22)
(0.379549 -0.0541901 7.02656e-21)
(0.395232 -0.0633853 3.98567e-22)
(0.410001 -0.0721348 -6.49426e-22)
(0.424265 -0.0805944 -2.54128e-21)
(0.438447 -0.088765 6.84777e-21)
(0.452882 -0.0966208 -4.83184e-21)
(0.467862 -0.104103 -6.8631e-22)
(0.483628 -0.111128 4.20914e-21)
(0.500378 -0.117585 -3.1329e-21)
(0.518268 -0.123344 -3.6558e-22)
(0.537423 -0.12826 1.81748e-21)
(0.557926 -0.132181 1.66078e-21)
(0.579831 -0.134956 -1.27606e-21)
(0.603137 -0.136466 -1.58965e-22)
(0.627831 -0.136594 3.32848e-22)
(0.653782 -0.135303 -1.81148e-22)
(0.680945 -0.132503 -1.39063e-22)
(0.708945 -0.1283 5.19759e-23)
(0.737872 -0.122494 -8.45753e-23)
(0.766782 -0.11549 6.29041e-23)
(0.796413 -0.106623 -6.17871e-24)
(0.824319 -0.0972049 3.25524e-23)
(0.853398 -0.0852702 -2.32566e-23)
(0.877187 -0.0748962 2.435e-24)
(0.905096 -0.0602916 -3.85347e-23)
(0.920001 -0.0528462 5.42261e-24)
(0.949463 -0.0358741 -6.97715e-23)
(0.382735 -0.0223406 1.13194e-20)
(0.398555 -0.0382844 -9.64393e-21)
(0.417158 -0.0484575 1.18077e-20)
(0.433193 -0.0578304 -1.17701e-20)
(0.447406 -0.0665647 3.94127e-21)
(0.460546 -0.0750121 4.75618e-21)
(0.473126 -0.0833228 1.78576e-21)
(0.48559 -0.0914672 -2.55394e-21)
(0.498265 -0.0993905 -5.58896e-21)
(0.511424 -0.10701 4.63308e-21)
(0.525294 -0.114222 -3.62846e-21)
(0.540061 -0.1209 5.70318e-21)
(0.555877 -0.126901 -4.54045e-21)
(0.572862 -0.132064 9.20734e-22)
(0.591103 -0.136227 7.32716e-22)
(0.610664 -0.139228 4.93939e-22)
(0.631555 -0.140933 -9.46851e-22)
(0.653782 -0.141217 -2.18779e-22)
(0.677231 -0.140035 4.67878e-22)
(0.701882 -0.137283 1.11217e-22)
(0.727387 -0.133074 -3.16129e-22)
(0.753857 -0.127186 1.19634e-22)
(0.7804 -0.120052 -5.2694e-24)
(0.807755 -0.110956 2.08582e-23)
(0.833577 -0.101285 -2.16278e-23)
(0.860697 -0.0889431 -8.94986e-24)
(0.882878 -0.0782312 -2.07207e-24)
(0.909218 -0.0630338 1.31841e-23)
(0.923194 -0.0553233 -5.38227e-24)
(0.95132 -0.0376227 2.31641e-23)
(0.439949 -0.0268577 1.39388e-21)
(0.458383 -0.0428582 -1.19991e-20)
(0.475619 -0.0520662 -4.89044e-22)
(0.489384 -0.0607306 2.38152e-21)
(0.50133 -0.0689519 -7.32618e-21)
(0.512283 -0.0770986 -1.18708e-21)
(0.522773 -0.0852765 4.9538e-21)
(0.533216 -0.0934128 -4.47667e-23)
(0.543901 -0.10142 6.93346e-21)
(0.555065 -0.109191 -9.67219e-21)
(0.566909 -0.116603 5.71838e-21)
(0.579598 -0.123515 -3.62952e-21)
(0.593272 -0.129771 2.31434e-21)
(0.608045 -0.135199 -2.11766e-22)
(0.624004 -0.139624 5.76613e-22)
(0.641217 -0.142873 -4.16562e-22)
(0.659705 -0.144801 7.45318e-23)
(0.679485 -0.145269 -1.62928e-21)
(0.700464 -0.144228 6.33297e-22)
(0.722637 -0.14156 -1.21446e-22)
(0.745687 -0.137381 -1.36383e-22)
(0.769738 -0.131452 1.12001e-22)
(0.793949 -0.124229 1.01933e-23)
(0.81906 -0.114946 -9.84548e-24)
(0.842826 -0.105067 -1.66693e-23)
(0.868005 -0.0923641 3.17252e-23)
(0.888593 -0.0813573 1.38271e-24)
(0.913366 -0.0656121 8.94047e-24)
(0.92642 -0.0576649 1.70038e-24)
(0.953198 -0.0392851 -2.74615e-23)
(0.503285 -0.0325353 -8.42426e-21)
(0.523535 -0.0472218 -1.73802e-21)
(0.537536 -0.0547375 6.88343e-21)
(0.547637 -0.0625839 -2.70977e-21)
(0.556501 -0.0703448 2.63206e-21)
(0.564747 -0.0782642 -5.59054e-21)
(0.572781 -0.0863735 8.77393e-21)
(0.580938 -0.0945544 -1.40454e-21)
(0.589436 -0.102687 -3.12379e-21)
(0.598459 -0.110645 6.35987e-21)
(0.60817 -0.118288 -3.82241e-21)
(0.618708 -0.125462 3.19307e-21)
(0.630195 -0.131999 -3.14762e-21)
(0.642735 -0.137717 -5.49777e-22)
(0.656411 -0.14243 -4.48122e-22)
(0.671292 -0.145953 2.12168e-21)
(0.687406 -0.14813 -1.62543e-21)
(0.704781 -0.148812 8.76846e-22)
(0.723337 -0.14794 -4.45537e-22)
(0.743085 -0.145385 4.52973e-22)
(0.763733 -0.141268 -2.55737e-23)
(0.78542 -0.135329 -2.76618e-23)
(0.807351 -0.128053 -3.51017e-23)
(0.830262 -0.11862 2.17412e-23)
(0.852011 -0.108573 -1.94341e-24)