/*--------------------------------*- C++ -*----------------------------------*\
  =========                 |
  \\      /  F ield         | OpenFOAM: The Open Source CFD Toolbox
   \\    /   O peration     | Website:  https://openfoam.org
    \\  /    A nd           | Version:  7
     \\/     M anipulation  |
\*---------------------------------------------------------------------------*/
FoamFile
{
    version     2.0;
    format      ascii;
    class       volScalarField;
    location    "65";
    object      p;
}
// * * * * * * * * * * * * * * * * * * * * * * * * * * * * * * * * * * * * * //

dimensions      [0 2 -2 0 0 0 0];

internalField   nonuniform List<scalar> 
8500
(
-0.250007
-0.251962
-0.252879
-0.253618
-0.254248
-0.254792
-0.255275
-0.255711
-0.256075
-0.25642
-0.250211
-0.252147
-0.253052
-0.253779
-0.254397
-0.254928
-0.255397
-0.255818
-0.256163
-0.256477
-0.250605
-0.252501
-0.253383
-0.254085
-0.254678
-0.255182
-0.25562
-0.256008
-0.256314
-0.25656
-0.251185
-0.253022
-0.253867
-0.254532
-0.255084
-0.255546
-0.255936
-0.256272
-0.256518
-0.256652
-0.251942
-0.253702
-0.254498
-0.255112
-0.25561
-0.256013
-0.256336
-0.256598
-0.256762
-0.256726
-0.252868
-0.254534
-0.255269
-0.255818
-0.256246
-0.256574
-0.256809
-0.256971
-0.257035
-0.256746
-0.253952
-0.255509
-0.256171
-0.25664
-0.256982
-0.257217
-0.257342
-0.257375
-0.257323
-0.256667
-0.255183
-0.25662
-0.257195
-0.25757
-0.257809
-0.257932
-0.257923
-0.257792
-0.257618
-0.256431
-0.256552
-0.257857
-0.258334
-0.258598
-0.258717
-0.25871
-0.258545
-0.258209
-0.257922
-0.255944
-0.258051
-0.259213
-0.259578
-0.259716
-0.259698
-0.259543
-0.259203
-0.258618
-0.258265
-0.255123
-0.259672
-0.260683
-0.260921
-0.260917
-0.260744
-0.260425
-0.259893
-0.259007
-0.258675
-0.254228
-0.261412
-0.262263
-0.26236
-0.262194
-0.261848
-0.261351
-0.260616
-0.259373
-0.258816
-0.253354
-0.263272
-0.263952
-0.26389
-0.263543
-0.263005
-0.262315
-0.261376
-0.259903
-0.258886
-0.252172
-0.265255
-0.265753
-0.265513
-0.26496
-0.264211
-0.263312
-0.262147
-0.260451
-0.259061
-0.250725
-0.267372
-0.267674
-0.267231
-0.266447
-0.265461
-0.264338
-0.26294
-0.261018
-0.259291
-0.249152
-0.269636
-0.269725
-0.269053
-0.268006
-0.266755
-0.265386
-0.263743
-0.261631
-0.259491
-0.247652
-0.272072
-0.271925
-0.270989
-0.269646
-0.268094
-0.26645
-0.264536
-0.262301
-0.25951
-0.246391
-0.274708
-0.274296
-0.273062
-0.271382
-0.269491
-0.267536
-0.265309
-0.263049
-0.259122
-0.245276
-0.277583
-0.276862
-0.275301
-0.273238
-0.270966
-0.268665
-0.266081
-0.263921
-0.258268
-0.244607
-0.280746
-0.279666
-0.277735
-0.275248
-0.272554
-0.269869
-0.266895
-0.26489
-0.257461
-0.248273
-0.284246
-0.282751
-0.280403
-0.277453
-0.274299
-0.271193
-0.267794
-0.265701
-0.257255
-0.262305
-0.288139
-0.286166
-0.283355
-0.279904
-0.276255
-0.272689
-0.268838
-0.266251
-0.257729
-0.261512
-0.292487
-0.28996
-0.286641
-0.282655
-0.278483
-0.274412
-0.270067
-0.266648
-0.258225
-0.258722
-0.297352
-0.294183
-0.290313
-0.285763
-0.281041
-0.276411
-0.271488
-0.267064
-0.258492
-0.255952
-0.302793
-0.298888
-0.294425
-0.289282
-0.283979
-0.278721
-0.273098
-0.267533
-0.258469
-0.253062
-0.308862
-0.304123
-0.299028
-0.293265
-0.287333
-0.281357
-0.27488
-0.268029
-0.258096
-0.250189
-0.315601
-0.30993
-0.304168
-0.297752
-0.291127
-0.284315
-0.276802
-0.268486
-0.257358
-0.247267
-0.323043
-0.316346
-0.309887
-0.302776
-0.295367
-0.287569
-0.2788
-0.26882
-0.256248
-0.244232
-0.331207
-0.323398
-0.316213
-0.308351
-0.300037
-0.291066
-0.28078
-0.268936
-0.254758
-0.241011
-0.340094
-0.331098
-0.323161
-0.314471
-0.305099
-0.294716
-0.28263
-0.268745
-0.252873
-0.23754
-0.349682
-0.339445
-0.330724
-0.321104
-0.310481
-0.298396
-0.284223
-0.268167
-0.250572
-0.233761
-0.359926
-0.348409
-0.338867
-0.328184
-0.316068
-0.30195
-0.285436
-0.267129
-0.247828
-0.229619
-0.37075
-0.357936
-0.347519
-0.33561
-0.321704
-0.305208
-0.28615
-0.265563
-0.244604
-0.225066
-0.382043
-0.367937
-0.356574
-0.343236
-0.327191
-0.307995
-0.286251
-0.263405
-0.240855
-0.220049
-0.393661
-0.378283
-0.365883
-0.350869
-0.332306
-0.310136
-0.285635
-0.260589
-0.236534
-0.214519
-0.405415
-0.388806
-0.375254
-0.358269
-0.336812
-0.311465
-0.2842
-0.257049
-0.231584
-0.208425
-0.417081
-0.399295
-0.384452
-0.365161
-0.340471
-0.311825
-0.28185
-0.252718
-0.225949
-0.201719
-0.428396
-0.409499
-0.393199
-0.371248
-0.34305
-0.311069
-0.27849
-0.247526
-0.219568
-0.194352
-0.439063
-0.419133
-0.401181
-0.376223
-0.34433
-0.309058
-0.274031
-0.241404
-0.212382
-0.186284
-0.448756
-0.427878
-0.40806
-0.379786
-0.344108
-0.305669
-0.268388
-0.234284
-0.204334
-0.177474
-0.45713
-0.435397
-0.413484
-0.381651
-0.3422
-0.300785
-0.26148
-0.226101
-0.195372
-0.167891
-0.463831
-0.441336
-0.417105
-0.381557
-0.338445
-0.294305
-0.253232
-0.216795
-0.18545
-0.157506
-0.468502
-0.44534
-0.418592
-0.379271
-0.332701
-0.286138
-0.243577
-0.206311
-0.174531
-0.146306
-0.470798
-0.447062
-0.417641
-0.374594
-0.324853
-0.276208
-0.232455
-0.194597
-0.16258
-0.134277
-0.470394
-0.446174
-0.413987
-0.367363
-0.31481
-0.264457
-0.21982
-0.181612
-0.149553
-0.121349
-0.466997
-0.442379
-0.407411
-0.357456
-0.302506
-0.250846
-0.205645
-0.167333
-0.135402
-0.107345
-0.460349
-0.43542
-0.397742
-0.344788
-0.287903
-0.235354
-0.189917
-0.151755
-0.120118
-0.0920715
-0.450241
-0.425096
-0.384857
-0.329314
-0.27099
-0.217973
-0.172624
-0.134887
-0.10377
-0.0756737
-0.436515
-0.411259
-0.368682
-0.311023
-0.251774
-0.198704
-0.153762
-0.116759
-0.0863653
-0.0588224
-0.419067
-0.39382
-0.349195
-0.289944
-0.230284
-0.177557
-0.133392
-0.0975157
-0.0678165
-0.0413989
-0.39785
-0.372745
-0.326418
-0.266146
-0.206586
-0.154602
-0.111736
-0.0770126
-0.0482854
-0.0232716
-0.372877
-0.34806
-0.300428
-0.239735
-0.180786
-0.130061
-0.0886303
-0.0553665
-0.0278674
-0.00444398
-0.344214
-0.319861
-0.271386
-0.210802
-0.15298
-0.10391
-0.0642282
-0.0326666
-0.00663757
0.0150048
-0.311984
-0.288322
-0.239555
-0.179347
-0.123277
-0.0762556
-0.0386358
-0.00900834
0.0153283
0.0349695
-0.276368
-0.253676
-0.205059
-0.145538
-0.0918098
-0.0472358
-0.0119741
0.015509
0.037953
0.0553655
-0.237601
-0.216156
-0.167342
-0.110162
-0.058841
-0.017007
0.0156284
0.0407831
0.0611555
0.0761014
-0.1959
-0.175911
-0.127355
-0.0730137
-0.0245652
0.0142592
0.0440427
0.0667192
0.0847987
0.0968389
-0.151518
-0.132894
-0.0858825
-0.0343518
0.0108333
0.0463917
0.0731566
0.0932396
0.10861
0.116766
-0.104878
-0.0877897
-0.0429185
0.00552978
0.0471447
0.079221
0.102866
0.120249
0.132267
0.135326
-0.0564033
-0.0409388
0.0013361
0.0463455
0.0841362
0.112564
0.133014
0.147516
0.15568
0.154251
-0.00641534
0.00721665
0.0465704
0.0878099
0.121565
0.146215
0.163354
0.174644
0.178819
0.178358
0.0446659
0.0562673
0.0924323
0.129629
0.159183
0.179951
0.193623
0.201495
0.202531
0.202618
0.0964016
0.105809
0.138557
0.171503
0.196736
0.213545
0.223648
0.228138
0.226503
0.225653
0.148349
0.155434
0.184578
0.213126
0.233964
0.246767
0.253257
0.254446
0.250308
0.247777
0.200063
0.204729
0.230131
0.254191
0.270607
0.279397
0.282279
0.280248
0.273612
0.26898
0.2511
0.253285
0.274856
0.294397
0.30641
0.311219
0.310536
0.305362
0.296226
0.289294
0.301023
0.300698
0.318402
0.333448
0.34112
0.34202
0.337849
0.329615
0.317999
0.308678
0.349405
0.346574
0.360429
0.371054
0.374494
0.371594
0.36404
0.352849
0.338804
0.327071
0.395833
0.390533
0.400607
0.40694
0.406298
0.399742
0.388939
0.374914
0.358522
0.344401
0.439911
0.432213
0.438626
0.44084
0.436307
0.426272
0.412382
0.395671
0.377039
0.360592
0.481264
0.47127
0.474189
0.472507
0.46431
0.451005
0.434216
0.414989
0.394248
0.375569
0.519542
0.507385
0.507023
0.501708
0.490108
0.473772
0.454299
0.432746
0.410047
0.389261
0.554423
0.540263
0.536874
0.528227
0.513521
0.494418
0.472498
0.44883
0.424342
0.4016
0.585611
0.569638
0.563513
0.551872
0.534382
0.512804
0.488695
0.463137
0.437046
0.412528
0.612845
0.59527
0.586736
0.57247
0.552544
0.528802
0.502782
0.475576
0.448082
0.421992
0.635896
0.616953
0.606366
0.589869
0.56788
0.542305
0.514666
0.486068
0.457385
0.429946
0.654573
0.634513
0.622252
0.603943
0.580281
0.55322
0.524269
0.494544
0.464896
0.436354
0.668719
0.647808
0.634275
0.61459
0.589659
0.561472
0.531528
0.50095
0.47057
0.441185
0.678216
0.656731
0.642341
0.621732
0.595949
0.567006
0.536395
0.505245
0.474372
0.444419
0.682985
0.661212
0.646391
0.625317
0.599106
0.569783
0.538837
0.5074
0.47628
0.44604
0.682987
0.661213
0.646392
0.625318
0.599108
0.569785
0.538839
0.507401
0.476282
0.446041
0.678221
0.656736
0.642346
0.621737
0.595954
0.567011
0.5364
0.50525
0.474377
0.444423
0.668727
0.647816
0.634283
0.614599
0.589668
0.561481
0.531537
0.500959
0.470578
0.441193
0.654585
0.634525
0.622265
0.603956
0.580293
0.553232
0.524281
0.494556
0.464907
0.436365
0.635912
0.616969
0.606382
0.589885
0.567896
0.542321
0.514682
0.486083
0.4574
0.429961
0.612864
0.59529
0.586756
0.57249
0.552564
0.528822
0.502801
0.475596
0.448101
0.42201
0.585634
0.569662
0.563537
0.551896
0.534406
0.512828
0.488719
0.46316
0.437068
0.41255
0.554451
0.540292
0.536902
0.528256
0.513549
0.494446
0.472526
0.448857
0.424368
0.401625
0.519575
0.507418
0.507056
0.50174
0.490141
0.473804
0.454331
0.432777
0.410077
0.389289
0.481302
0.471308
0.474227
0.472545
0.464347
0.451041
0.434252
0.415024
0.394282
0.375601
0.439955
0.432256
0.438669
0.440883
0.436349
0.426313
0.412422
0.395711
0.377077
0.360628
0.395883
0.390583
0.400656
0.406988
0.406345
0.399788
0.388984
0.374958
0.358564
0.34444
0.349462
0.34663
0.360483
0.371108
0.374547
0.371646
0.36409
0.352898
0.338851
0.327114
0.301087
0.300761
0.318463
0.333507
0.341178
0.342077
0.337904
0.329668
0.31805
0.308725
0.251171
0.253356
0.274924
0.294464
0.306474
0.311282
0.310597
0.30542
0.296281
0.289346
0.200142
0.204808
0.230207
0.254265
0.270678
0.279466
0.282345
0.280311
0.273672
0.269036
0.148438
0.155521
0.184662
0.213206
0.234042
0.246842
0.253328
0.254515
0.250373
0.247838
0.0965001
0.105906
0.13865
0.171592
0.196821
0.213626
0.223726
0.228212
0.226573
0.225718
0.0447748
0.0563745
0.0925345
0.129727
0.159276
0.18004
0.193707
0.201575
0.202606
0.202689
-0.00629537
0.00733448
0.0466825
0.087916
0.121666
0.146311
0.163445
0.17473
0.1789
0.178434
-0.0562715
-0.0408096
0.00145877
0.0464611
0.0842457
0.112668
0.133112
0.147608
0.155767
0.154333
-0.104733
-0.0876484
-0.0427845
0.00565531
0.0472631
0.0793329
0.102971
0.120347
0.132359
0.135412
-0.151361
-0.13274
-0.0857363
-0.034216
0.0109609
0.046512
0.0732696
0.0933453
0.108708
0.116857
-0.195729
-0.175744
-0.127196
-0.0728673
-0.0244278
0.0143883
0.0441635
0.0668319
0.0849027
0.0969348
-0.237415
-0.215974
-0.167171
-0.110005
-0.0586934
-0.0168689
0.0157574
0.040903
0.0612659
0.0762026
-0.276168
-0.253479
-0.204872
-0.14537
-0.0916513
-0.0470882
-0.0118367
0.0156364
0.0380698
0.0554722
-0.311768
-0.28811
-0.239356
-0.179164
-0.123106
-0.0760982
-0.0384897
-0.00887328
0.0154518
0.0350819
-0.343982
-0.319633
-0.271174
-0.210605
-0.152798
-0.103743
-0.0640728
-0.0325235
-0.00650728
0.0151229
-0.372629
-0.347817
-0.3002
-0.239524
-0.180592
-0.129884
-0.0884652
-0.0552153
-0.0277302
-0.00432006
-0.397586
-0.372485
-0.326174
-0.265921
-0.20638
-0.154416
-0.11156
-0.076853
-0.0481412
-0.0231417
-0.418785
-0.393543
-0.348935
-0.289705
-0.230065
-0.177356
-0.13321
-0.0973478
-0.0676652
-0.0412628
-0.436217
-0.410965
-0.368406
-0.310769
-0.251541
-0.198491
-0.153569
-0.116584
-0.0862067
-0.0586803
-0.449927
-0.424786
-0.384565
-0.329045
-0.270744
-0.217749
-0.172421
-0.134703
-0.103604
-0.075526
-0.460019
-0.435094
-0.397433
-0.344504
-0.287644
-0.235117
-0.189703
-0.151562
-0.119945
-0.0919188
-0.46665
-0.442036
-0.407086
-0.357156
-0.302232
-0.250597
-0.205421
-0.16713
-0.135221
-0.107185
-0.470032
-0.445816
-0.413646
-0.367048
-0.314522
-0.264196
-0.219584
-0.1814
-0.149364
-0.121182
-0.470421
-0.446689
-0.417285
-0.374263
-0.324552
-0.275935
-0.232208
-0.194375
-0.162382
-0.134104
-0.468111
-0.444953
-0.418221
-0.378926
-0.332386
-0.285851
-0.243318
-0.206079
-0.174325
-0.146126
-0.463427
-0.440936
-0.41672
-0.381197
-0.338115
-0.294005
-0.252962
-0.216553
-0.185235
-0.157318
-0.456715
-0.434985
-0.413085
-0.381277
-0.341857
-0.300473
-0.261198
-0.225848
-0.195148
-0.167696
-0.44833
-0.427456
-0.407649
-0.379398
-0.34375
-0.305343
-0.268094
-0.23402
-0.204101
-0.177272
-0.438628
-0.418701
-0.40076
-0.375823
-0.343959
-0.30872
-0.273725
-0.241129
-0.212139
-0.186073
-0.427953
-0.409059
-0.392768
-0.370836
-0.342666
-0.310716
-0.278171
-0.247239
-0.219314
-0.194133
-0.416631
-0.398848
-0.384013
-0.364739
-0.340075
-0.31146
-0.281517
-0.252419
-0.225684
-0.20149
-0.404959
-0.388353
-0.374808
-0.357838
-0.336404
-0.311087
-0.283855
-0.256738
-0.231308
-0.208187
-0.3932
-0.377826
-0.365431
-0.350429
-0.331887
-0.309745
-0.285276
-0.260264
-0.236245
-0.214269
-0.381579
-0.367476
-0.356117
-0.34279
-0.326763
-0.307591
-0.285878
-0.263065
-0.240553
-0.219787
-0.370282
-0.357472
-0.347059
-0.335158
-0.321267
-0.304793
-0.285762
-0.265208
-0.244287
-0.22479
-0.359456
-0.347943
-0.338404
-0.327728
-0.315623
-0.301523
-0.285034
-0.266758
-0.247495
-0.229329
-0.34921
-0.338977
-0.33026
-0.320644
-0.310029
-0.297958
-0.283806
-0.267779
-0.250221
-0.233453
-0.33962
-0.33063
-0.322696
-0.314009
-0.304642
-0.294268
-0.282198
-0.268338
-0.252502
-0.237213
-0.330733
-0.322928
-0.315746
-0.307887
-0.299575
-0.290608
-0.280334
-0.26851
-0.254366
-0.240663
-0.322567
-0.315876
-0.30942
-0.30231
-0.2949
-0.287103
-0.278338
-0.268374
-0.255833
-0.24386
-0.315124
-0.30946
-0.303701
-0.297284
-0.290657
-0.28384
-0.276326
-0.26802
-0.256918
-0.246868
-0.308383
-0.303652
-0.29856
-0.292795
-0.286858
-0.280873
-0.27439
-0.267542
-0.257629
-0.249762
-0.302314
-0.298418
-0.293957
-0.288811
-0.283499
-0.278229
-0.272594
-0.267026
-0.257975
-0.252605
-0.296873
-0.293713
-0.289844
-0.28529
-0.280557
-0.275911
-0.27097
-0.266537
-0.25797
-0.255465
-0.292008
-0.28949
-0.286172
-0.28218
-0.277995
-0.273904
-0.269536
-0.266102
-0.257675
-0.258205
-0.287662
-0.285699
-0.282888
-0.279428
-0.275763
-0.272173
-0.268295
-0.265687
-0.257153
-0.260969
-0.283774
-0.282288
-0.279938
-0.276978
-0.273804
-0.270671
-0.26724
-0.26512
-0.256656
-0.261741
-0.280279
-0.27921
-0.277274
-0.274775
-0.272059
-0.269343
-0.266332
-0.264296
-0.256842
-0.247669
-0.277127
-0.276415
-0.274848
-0.27277
-0.270473
-0.268138
-0.265515
-0.263318
-0.257634
-0.243991
-0.274266
-0.27386
-0.272618
-0.270922
-0.269003
-0.267013
-0.264744
-0.262444
-0.258481
-0.244656
-0.271646
-0.271503
-0.270559
-0.269197
-0.267617
-0.265934
-0.263977
-0.261701
-0.25887
-0.245774
-0.269231
-0.269321
-0.268639
-0.267572
-0.266291
-0.264883
-0.263196
-0.261043
-0.258861
-0.247046
-0.266989
-0.26729
-0.266836
-0.266032
-0.265016
-0.263855
-0.262412
-0.260449
-0.258678
-0.248564
-0.264899
-0.265393
-0.26514
-0.264568
-0.263789
-0.262852
-0.261642
-0.259909
-0.258472
-0.25016
-0.262943
-0.263616
-0.263542
-0.263174
-0.262608
-0.261881
-0.260899
-0.259399
-0.258324
-0.251637
-0.261113
-0.261954
-0.262038
-0.261853
-0.261479
-0.260948
-0.260174
-0.258916
-0.258274
-0.252859
-0.259403
-0.260402
-0.260628
-0.260605
-0.260406
-0.260056
-0.259487
-0.258575
-0.258174
-0.253777
-0.257812
-0.258961
-0.259313
-0.259434
-0.259392
-0.259208
-0.258835
-0.258222
-0.257832
-0.254669
-0.256344
-0.257634
-0.258098
-0.258347
-0.258445
-0.258411
-0.258218
-0.257855
-0.25754
-0.255537
-0.255004
-0.256425
-0.256989
-0.25735
-0.25757
-0.257669
-0.257636
-0.25748
-0.257282
-0.256075
-0.2538
-0.255343
-0.255994
-0.256451
-0.256776
-0.256991
-0.257094
-0.257105
-0.257033
-0.25636
-0.252743
-0.254395
-0.255121
-0.255659
-0.256073
-0.256384
-0.256601
-0.256745
-0.256791
-0.256487
-0.251842
-0.25359
-0.254378
-0.254983
-0.25547
-0.255859
-0.256168
-0.256414
-0.256565
-0.256516
-0.251109
-0.252936
-0.253774
-0.254432
-0.254976
-0.255427
-0.255806
-0.25613
-0.256365
-0.25649
-0.250552
-0.25244
-0.253317
-0.254015
-0.254601
-0.255097
-0.255528
-0.255907
-0.256205
-0.256445
-0.250179
-0.25211
-0.253013
-0.253737
-0.254351
-0.254878
-0.255342
-0.255758
-0.256098
-0.256408
-0.249997
-0.25195
-0.252866
-0.253604
-0.254233
-0.254775
-0.255256
-0.255691
-0.256053
-0.256397
-0.257917
-0.25698
-0.258367
-0.257783
-0.25802
-0.257182
-0.256241
-0.254453
-0.252088
-0.248779
-0.244469
-0.238989
-0.232096
-0.223714
-0.213318
-0.201212
-0.186091
-0.169659
-0.149673
-0.130397
-0.108527
-0.0894922
-0.0702942
-0.0536563
-0.0397706
-0.0259603
-0.0185381
-0.00885454
-0.0065883
0.00209802
-0.258063
-0.257026
-0.258426
-0.257799
-0.25799
-0.257083
-0.256048
-0.254155
-0.251688
-0.248312
-0.244024
-0.238686
-0.232085
-0.224133
-0.214237
-0.202572
-0.187672
-0.171113
-0.150581
-0.130537
-0.107751
-0.0880384
-0.0688695
-0.0523221
-0.0391275
-0.0263173
-0.0191421
-0.00990217
-0.00736871
0.00203761
-0.25833
-0.2571
-0.258543
-0.257862
-0.258008
-0.257034
-0.255909
-0.253912
-0.251345
-0.247907
-0.243642
-0.238447
-0.232137
-0.224614
-0.215212
-0.203985
-0.189296
-0.172611
-0.151536
-0.130737
-0.107044
-0.0866554
-0.0675013
-0.0510301
-0.0385197
-0.0266924
-0.0197587
-0.0109334
-0.00812986
0.00197575
-0.258712
-0.257198
-0.258713
-0.257968
-0.258071
-0.257033
-0.255818
-0.253724
-0.25106
-0.247565
-0.243323
-0.23827
-0.232246
-0.225144
-0.216226
-0.205428
-0.190943
-0.174136
-0.152527
-0.13099
-0.106411
-0.0853584
-0.0662095
-0.0498228
-0.037961
-0.0270851
-0.0203842
-0.0119386
-0.00886157
0.00191405
-0.259198
-0.25731
-0.258928
-0.258112
-0.258175
-0.257078
-0.255776
-0.25359
-0.250831
-0.247282
-0.243063
-0.23815
-0.232406
-0.225714
-0.217264
-0.206866
-0.192592
-0.175666
-0.153538
-0.131291
-0.105858
-0.0841611
-0.0650109
-0.0486783
-0.0374639
-0.0274953
-0.0210151
-0.0129086
-0.00955529
0.00185356
-0.259776
-0.257426
-0.259176
-0.258286
-0.258313
-0.257161
-0.255777
-0.253505
-0.250657
-0.247057
-0.242861
-0.238081
-0.232607
-0.226311
-0.218307
-0.208241
-0.194222
-0.177185
-0.154559
-0.131635
-0.105388
-0.083084
-0.063912
-0.0476307
-0.0370397
-0.0279226
-0.0216469
-0.0138373
-0.0102043
0.00179479
-0.26043
-0.257534
-0.259445
-0.258483
-0.258475
-0.257277
-0.255816
-0.253465
-0.250533
-0.246885
-0.242709
-0.238058
-0.232841
-0.226922
-0.219342
-0.209642
-0.195818
-0.178677
-0.155576
-0.132019
-0.105006
-0.0821272
-0.0629318
-0.0467028
-0.0366969
-0.0283668
-0.0222762
-0.014723
-0.0108041
0.00173763
-0.261148
-0.257623
-0.259719
-0.258691
-0.258652
-0.257416
-0.255884
-0.253462
-0.250453
-0.246761
-0.242605
-0.238073
-0.233098
-0.227536
-0.220354
-0.211011
-0.197364
-0.180126
-0.156579
-0.132427
-0.104723
-0.0813013
-0.0620789
-0.045904
-0.0364394
-0.0288264
-0.0229034
-0.0155599
-0.011352
0.00168146
-0.261936
-0.257673
-0.259984
-0.2589
-0.258832
-0.257568
-0.255974
-0.25349
-0.250412
-0.24668
-0.24254
-0.238119
-0.233368
-0.22814
-0.22133
-0.21236
-0.198846
-0.18151
-0.15757
-0.132865
-0.104532
-0.0806124
-0.0613596
-0.0452389
-0.0362703
-0.0292971
-0.0235297
-0.0163468
-0.0118472
0.00162518
-0.262779
-0.257672
-0.260232
-0.259094
-0.259003
-0.257722
-0.256077
-0.253542
-0.250402
-0.246634
-0.24251
-0.238188
-0.233644
-0.228725
-0.222246
-0.213621
-0.200243
-0.182837
-0.158538
-0.133332
-0.104435
-0.0800632
-0.0607779
-0.0447106
-0.0362188
-0.0297769
-0.0241418
-0.0170834
-0.0122905
0.00156735
-0.263401
-0.257712
-0.260437
-0.259259
-0.259154
-0.257867
-0.256181
-0.253607
-0.250415
-0.246618
-0.242507
-0.238275
-0.233916
-0.229278
-0.223079
-0.21481
-0.20156
-0.18409
-0.159477
-0.133825
-0.104434
-0.0796544
-0.0603358
-0.0443199
-0.0362364
-0.0302763
-0.0247428
-0.0177689
-0.0126839
0.0015063
-0.263923
-0.257823
-0.260496
-0.259428
-0.259267
-0.257993
-0.256277
-0.253676
-0.250445
-0.246624
-0.242525
-0.23837
-0.234177
-0.229789
-0.224017
-0.215899
-0.202779
-0.185265
-0.160387
-0.134343
-0.104531
-0.0793854
-0.0600328
-0.0440646
-0.0363339
-0.0307824
-0.0253305
-0.0184044
-0.0130306
0.00144022
-0.264431
-0.257888
-0.260502
-0.259537
-0.259333
-0.258085
-0.256352
-0.25374
-0.250481
-0.246643
-0.242556
-0.238468
-0.234421
-0.230234
-0.22473
-0.216887
-0.203896
-0.18636
-0.161265
-0.134886
-0.104724
-0.0792537
-0.0598668
-0.0439409
-0.0365146
-0.0312963
-0.0259026
-0.0189915
-0.0133345
0.00136732
-0.264895
-0.257915
-0.260441
-0.25957
-0.259338
-0.25813
-0.256396
-0.253788
-0.250514
-0.246669
-0.242595
-0.238564
-0.234635
-0.230659
-0.225371
-0.217769
-0.204905
-0.187372
-0.162114
-0.135455
-0.105013
-0.0792559
-0.0598339
-0.0439428
-0.0367702
-0.0318169
-0.0264573
-0.0195323
-0.0135999
0.00128592
-0.265275
-0.257925
-0.260286
-0.259517
-0.259268
-0.258112
-0.256395
-0.253807
-0.250536
-0.246693
-0.242634
-0.238645
-0.234785
-0.231049
-0.225926
-0.218539
-0.205805
-0.1883
-0.162933
-0.136051
-0.105397
-0.0793869
-0.0599285
-0.044063
-0.0370919
-0.0323394
-0.0269928
-0.0200293
-0.0138312
0.00119456
-0.265518
-0.257908
-0.260025
-0.25936
-0.259105
-0.258017
-0.256335
-0.253786
-0.250534
-0.246705
-0.242669
-0.238688
-0.235015
-0.231324
-0.226387
-0.219196
-0.206594
-0.189143
-0.163721
-0.136668
-0.105869
-0.079638
-0.0601425
-0.044292
-0.037471
-0.0328604
-0.0275081
-0.020485
-0.0140328
0.00109208
-0.265502
-0.257828
-0.259654
-0.259084
-0.258836
-0.257832
-0.256204
-0.253711
-0.250495
-0.246695
-0.242701
-0.238815
-0.2351
-0.231538
-0.226749
-0.219734
-0.207268
-0.189899
-0.164476
-0.137307
-0.106426
-0.0800031
-0.0604693
-0.0446216
-0.0378999
-0.0333778
-0.0280024
-0.0209024
-0.0142093
0.000977486
-0.265132
-0.257674
-0.259173
-0.258679
-0.258452
-0.25755
-0.255996
-0.253578
-0.250416
-0.246655
-0.242613
-0.238809
-0.235144
-0.23168
-0.22701
-0.22016
-0.207842
-0.190593
-0.165232
-0.138003
-0.1071
-0.080502
-0.0609197
-0.0450526
-0.0383753
-0.0338913
-0.028477
-0.0212857
-0.0143664
0.00084964
-0.264706
-0.257378
-0.258501
-0.25806
-0.257876
-0.257109
-0.255669
-0.253362
-0.250286
-0.246591
-0.242649
-0.23876
-0.235146
-0.231748
-0.227175
-0.220487
-0.208341
-0.191262
-0.166032
-0.138794
-0.10792
-0.0811505
-0.0614999
-0.0455849
-0.0388946
-0.0344017
-0.0289332
-0.0216384
-0.0145072
0.000708289
-0.262236
-0.256123
-0.25744
-0.257065
-0.256975
-0.256385
-0.255092
-0.252933
-0.249989
-0.246412
-0.242433
-0.238671
-0.235092
-0.231749
-0.227246
-0.220674
-0.208655
-0.191696
-0.166589
-0.139353
-0.108567
-0.0817063
-0.062041
-0.046124
-0.0394202
-0.0348953
-0.0293581
-0.0219528
-0.0146189
0.000558311
-0.25028
-0.253575
-0.256246
-0.255997
-0.256002
-0.255576
-0.2544
-0.252351
-0.249506
-0.246049
-0.242149
-0.238408
-0.234904
-0.231635
-0.227186
-0.220624
-0.208595
-0.191563
-0.166487
-0.139218
-0.108634
-0.0818823
-0.0623866
-0.0466368
-0.0400095
-0.0354601
-0.0298274
-0.0222861
-0.0147086
0.000369459
-0.245317
-0.250939
-0.25395
-0.253773
-0.253924
-0.253744
-0.252751
-0.250863
-0.248159
-0.244818
-0.241095
-0.237544
-0.234132
-0.230883
-0.22637
-0.219694
-0.207587
-0.190517
-0.165662
-0.138591
-0.108531
-0.0821164
-0.062916
-0.0473946
-0.0407732
-0.0360883
-0.0303061
-0.0225917
-0.0147682
0.000122568
-0.242046
-0.247494
-0.250418
-0.25055
-0.250988
-0.251142
-0.250424
-0.248784
-0.246313
-0.243214
-0.239711
-0.236327
-0.232987
-0.229719
-0.225088
-0.218249
-0.206058
-0.188994
-0.16448
-0.137741
-0.108367
-0.0824003
-0.0635434
-0.0482642
-0.0415823
-0.0366934
-0.0307348
-0.0228387
-0.0147999
-0.00015448
-0.238439
-0.242819
-0.245469
-0.246205
-0.247118
-0.247715
-0.247381
-0.246089
-0.243943
-0.241162
-0.23795
-0.234726
-0.231462
-0.228161
-0.223397
-0.216392
-0.204159
-0.187171
-0.163126
-0.136837
-0.108271
-0.0828218
-0.0643162
-0.0492655
-0.0424396
-0.0372886
-0.0311288
-0.023046
-0.0148156
-0.00046499
-0.233066
-0.236881
-0.239235
-0.240703
-0.242249
-0.24338
-0.243526
-0.242677
-0.240939
-0.238542
-0.235643
-0.232648
-0.22947
-0.226131
-0.221236
-0.214076
-0.201862
-0.185036
-0.161597
-0.135884
-0.108245
-0.0833834
-0.0652305
-0.0503907
-0.0433374
-0.0378714
-0.031488
-0.0232183
-0.0148192
-0.00080612
-0.225676
-0.229811
-0.232004
-0.234174
-0.236433
-0.238158
-0.238845
-0.238506
-0.237245
-0.235289
-0.232755
-0.230027
-0.226951
-0.223575
-0.218564
-0.211275
-0.199154
-0.182587
-0.159889
-0.134879
-0.108271
-0.0840657
-0.0662642
-0.0516187
-0.0442641
-0.038438
-0.0318121
-0.0233602
-0.0148138
-0.00117221
-0.21679
-0.221809
-0.224097
-0.226868
-0.229836
-0.232178
-0.23343
-0.233635
-0.232887
-0.231409
-0.229272
-0.226818
-0.223887
-0.220485
-0.215386
-0.208011
-0.196065
-0.179856
-0.158019
-0.133828
-0.108331
-0.0848454
-0.0673912
-0.0529253
-0.0452096
-0.0389886
-0.0321048
-0.0234793
-0.0148032
-0.00155601
-0.206912
-0.213096
-0.215779
-0.219059
-0.222671
-0.225622
-0.227437
-0.228185
-0.227958
-0.226969
-0.225245
-0.22309
-0.22031
-0.216903
-0.211756
-0.204345
-0.192652
-0.176893
-0.156013
-0.132739
-0.108405
-0.0856936
-0.0685814
-0.054284
-0.0461653
-0.0395262
-0.0323729
-0.0235843
-0.0147916
-0.00194893
-0.196494
-0.203907
-0.207231
-0.210971
-0.215137
-0.218668
-0.221033
-0.222307
-0.222588
-0.222076
-0.220762
-0.218905
-0.216291
-0.212907
-0.207756
-0.200362
-0.188993
-0.173761
-0.1539
-0.131619
-0.108471
-0.0865767
-0.0698023
-0.0556672
-0.0471236
-0.040055
-0.0326244
-0.0236842
-0.0147828
-0.00234167
-0.185929
-0.194444
-0.198564
-0.20276
-0.207394
-0.211461
-0.214356
-0.216136
-0.216901
-0.216844
-0.21593
-0.214365
-0.211929
-0.208596
-0.203486
-0.196163
-0.185172
-0.170524
-0.151713
-0.130473
-0.108507
-0.0874601
-0.0710216
-0.0570478
-0.0480776
-0.0405799
-0.0328676
-0.0237874
-0.0147801
-0.00272501
-0.175468
-0.184873
-0.18985
-0.194519
-0.199558
-0.204106
-0.20751
-0.209776
-0.211002
-0.211375
-0.210846
-0.209566
-0.207323
-0.204069
-0.199044
-0.191841
-0.181267
-0.16724
-0.149478
-0.129303
-0.108493
-0.0883122
-0.0722107
-0.0584013
-0.0490209
-0.0411053
-0.0331103
-0.0239007
-0.0147865
-0.00309066
-0.165257
-0.175327
-0.18114
-0.186306
-0.191705
-0.196682
-0.200566
-0.203298
-0.204966
-0.205747
-0.205588
-0.204591
-0.202555
-0.199408
-0.19451
-0.187471
-0.17734
-0.163957
-0.14722
-0.128112
-0.108415
-0.0891068
-0.0733461
-0.0597074
-0.0499474
-0.0416337
-0.0333587
-0.0240288
-0.014804
-0.00343187
-0.155397
-0.16592
-0.172491
-0.178159
-0.183894
-0.189244
-0.193573
-0.196753
-0.198846
-0.200015
-0.200213
-0.199498
-0.197687
-0.194674
-0.18994
-0.18311
-0.173436
-0.160706
-0.144957
-0.126902
-0.108267
-0.0898243
-0.0744103
-0.0609501
-0.0508513
-0.0421662
-0.033617
-0.0241745
-0.0148342
-0.00374379
-0.145957
-0.156743
-0.163959
-0.170113
-0.176165
-0.181843
-0.186574
-0.190178
-0.192679
-0.19422
-0.194762
-0.19433
-0.192738
-0.189911
-0.185375
-0.178791
-0.169583
-0.157509
-0.142701
-0.125673
-0.108043
-0.0904521
-0.0753921
-0.0621182
-0.0517271
-0.0427017
-0.0338873
-0.0243382
-0.0148779
-0.00402361
-0.136981
-0.147873
-0.155609
-0.162208
-0.168558
-0.17452
-0.179608
-0.183606
-0.186497
-0.188396
-0.189273
-0.189125
-0.187787
-0.185151
-0.180843
-0.174538
-0.1658
-0.154379
-0.140462
-0.124426
-0.107746
-0.0909827
-0.0762846
-0.0632041
-0.0525696
-0.0432374
-0.0341697
-0.0245188
-0.0149351
-0.00427037
-0.128501
-0.139371
-0.147499
-0.154485
-0.161109
-0.16732
-0.172718
-0.177075
-0.180334
-0.182576
-0.183775
-0.183913
-0.182836
-0.18042
-0.176364
-0.170367
-0.1621
-0.151322
-0.138248
-0.123164
-0.107378
-0.0914133
-0.0770849
-0.0642032
-0.0533743
-0.0437696
-0.034463
-0.0247138
-0.0150053
-0.00448468
-0.120542
-0.131286
-0.139687
-0.146992
-0.153857
-0.160282
-0.165946
-0.170623
-0.174224
-0.176793
-0.178303
-0.178725
-0.177915
-0.175742
-0.171958
-0.166292
-0.158494
-0.148347
-0.136068
-0.121891
-0.106946
-0.0917444
-0.0777923
-0.0651134
-0.0541369
-0.0442939
-0.0347649
-0.02492
-0.0150877
-0.00466833
-0.113117
-0.123656
-0.132223
-0.139774
-0.146841
-0.153447
-0.159335
-0.164292
-0.168205
-0.171083
-0.172892
-0.173593
-0.173055
-0.171141
-0.167645
-0.162326
-0.154992
-0.145459
-0.133929
-0.12061
-0.106457
-0.0919791
-0.0784079
-0.0659343
-0.0548535
-0.0448055
-0.0350725
-0.0251341
-0.0151806
-0.00482392
-0.106233
-0.116508
-0.125149
-0.132875
-0.140102
-0.146856
-0.152929
-0.158126
-0.162319
-0.165485
-0.167579
-0.168553
-0.168286
-0.166643
-0.163445
-0.158484
-0.151607
-0.142668
-0.131842
-0.119329
-0.105918
-0.0921226
-0.0789342
-0.0666667
-0.0555211
-0.0452998
-0.0353823
-0.0253523
-0.0152824
-0.00495453
-0.0998924
-0.109863
-0.118502
-0.126337
-0.133679
-0.140549
-0.146771
-0.15217
-0.15661
-0.16004
-0.162403
-0.163643
-0.163643
-0.162277
-0.159382
-0.154783
-0.148353
-0.139982
-0.129816
-0.118056
-0.10534
-0.0921822
-0.0793746
-0.0673127
-0.0561367
-0.0457722
-0.0356904
-0.0255711
-0.0153907
-0.00506343
-0.094093
-0.103734
-0.112312
-0.120198
-0.127614
-0.134567
-0.140906
-0.146471
-0.151124
-0.154794
-0.157408
-0.158902
-0.159163
-0.158073
-0.155482
-0.151243
-0.145245
-0.137414
-0.127865
-0.116801
-0.104734
-0.0921669
-0.0797336
-0.0678756
-0.0566984
-0.0462186
-0.0359927
-0.0257869
-0.015503
-0.00515387
-0.0888311
-0.0981338
-0.106604
-0.114493
-0.121945
-0.128952
-0.135377
-0.141076
-0.145909
-0.149793
-0.152637
-0.154373
-0.154885
-0.154066
-0.151773
-0.147886
-0.142302
-0.134979
-0.126002
-0.115577
-0.10411
-0.0920875
-0.0800169
-0.0683593
-0.0572046
-0.046635
-0.0362849
-0.0259965
-0.0156168
-0.00522882
-0.0841027
-0.093069
-0.101401
-0.109254
-0.116711
-0.123745
-0.130229
-0.136033
-0.141016
-0.145086
-0.148139
-0.1501
-0.150851
-0.150292
-0.148287
-0.144737
-0.139544
-0.132694
-0.124242
-0.114399
-0.103482
-0.091956
-0.0802314
-0.0687684
-0.0576544
-0.0470179
-0.0365627
-0.0261966
-0.0157292
-0.00529085
-0.0799054
-0.0885481
-0.0967237
-0.104515
-0.11195
-0.118988
-0.12551
-0.131392
-0.136498
-0.140727
-0.143966
-0.146133
-0.147105
-0.146791
-0.145058
-0.141825
-0.136997
-0.130578
-0.122605
-0.113283
-0.102865
-0.091786
-0.0803851
-0.0691085
-0.0580476
-0.0473642
-0.0368218
-0.0263839
-0.0158375
-0.00534209
-0.0762393
-0.0845806
-0.092594
-0.100305
-0.107701
-0.114726
-0.121266
-0.127205
-0.132408
-0.136771
-0.140172
-0.142522
-0.143697
-0.143608
-0.142126
-0.139184
-0.134688
-0.128656
-0.121111
-0.112249
-0.102275
-0.0915921
-0.0804873
-0.0693852
-0.0583846
-0.047671
-0.0370578
-0.0265551
-0.0159389