/*--------------------------------*- C++ -*----------------------------------*\
  =========                 |
  \\      /  F ield         | OpenFOAM: The Open Source CFD Toolbox
   \\    /   O peration     | Website:  https://openfoam.org
    \\  /    A nd           | Version:  7
     \\/     M anipulation  |
\*---------------------------------------------------------------------------*/
FoamFile
{
    version     2.0;
    format      ascii;
    class       surfaceScalarField;
    location    "65";
    object      phi;
}
// * * * * * * * * * * * * * * * * * * * * * * * * * * * * * * * * * * * * * //

dimensions      [0 3 -1 0 0 0 0];

internalField   nonuniform List<scalar> 
16735
(
-7.31688e-05
7.25588e-05
6.10032e-07
-0.000260892
0.000184101
3.62162e-06
-0.000544
0.000274937
8.17134e-06
-0.000903623
0.000345823
1.37998e-05
-0.0013227
0.000398855
2.02191e-05
-0.00178774
0.000437625
2.74183e-05
-0.00229099
0.000467562
3.56852e-05
-0.00283317
0.000496621
4.55647e-05
-0.00342568
0.00053471
5.77925e-05
0.00059368
7.3322e-05
-0.00409268
-7.24136e-05
0.000144972
-0.000258267
0.000369955
-0.000538463
0.000555133
-0.000894043
0.000701403
-0.00130766
0.000812473
-0.0017653
0.000895263
-0.00225837
0.000960628
-0.0027866
0.00102485
-0.00336058
0.00110869
0.0012371
-0.004004
-7.08709e-05
0.000215843
-0.000252892
0.000551976
-0.000527107
0.000829348
-0.000874394
0.00104869
-0.00127685
0.00121493
-0.00171939
0.0013378
-0.00219173
0.00143297
-0.00269151
0.00152463
-0.00322759
0.00164477
0.00183182
-0.0038223
-6.8603e-05
0.000284446
-0.000244947
0.000728319
-0.000510269
0.00109467
-0.000845205
0.00138363
-0.00123104
0.00160077
-0.00165111
0.00175787
-0.00209258
0.00187443
-0.00254977
0.00198183
-0.0030287
0.00212369
0.00235199
-0.00354887
-6.56985e-05
0.000350145
-0.000234691
0.000897312
-0.000488424
0.0013484
-0.000807209
0.00170241
-0.0011713
0.00196486
-0.00156199
0.00214856
-0.001963
0.00227544
-0.00236401
0.00238285
-0.00276683
0.00252651
0.00277075
-0.00318558
-6.22645e-05
0.000412409
-0.000222433
0.00105748
-0.000462131
0.0015881
-0.000761258
0.00200154
-0.00109885
0.00230246
-0.00145375
0.00250345
-0.00180541
0.0026271
-0.00213734
0.00271478
-0.00244555
0.00283472
0.00305987
-0.00273468
-5.84177e-05
0.000470827
-0.000208506
0.00120757
-0.000431972
0.00181157
-0.000708207
0.00227777
-0.00101487
0.00260913
-0.00132803
0.00281661
-0.00162214
0.00292121
-0.00187285
0.00296548
-0.00206856
0.00303043
0.00318998
-0.00219867
-5.42755e-05
0.000525102
-0.000193233
0.00134653
-0.000398492
0.00201683
-0.00064879
0.00252807
-0.000920278
0.00288062
-0.00118601
0.00308235
-0.00141485
0.00315005
-0.00157284
0.00312347
-0.00163874
0.00309633
0.00313143
-0.0015802
-4.99476e-05
0.00057505
-0.000176903
0.00147348
-0.000362125
0.00220205
-0.000583491
0.00274944
-0.000815476
0.0031126
-0.00102795
0.00329483
-0.00118375
0.00330584
-0.00123753
0.00317726
-0.00115622
0.00301502
0.00285825
-0.000883036
-4.55299e-05
0.00062058
-0.000159746
0.0015877
-0.000323149
0.00236545
-0.000512429
0.00293872
-0.000700137
0.00330031
-0.000852748
0.00344744
-0.000926747
0.00337984
-0.000863215
0.00311373
-0.000612003
0.0027638
0.00237232
-0.000126074
-4.11009e-05
0.000661681
-0.000141916
0.00168851
-0.00028164
0.00250518
-0.00043528
0.00309236
-0.000573024
0.00343805
-0.000657602
0.00353202
-0.000639187
0.00336142
-0.000443455
0.002918
3.70706e-05
0.00228328
0.00160965
0.000799744
-3.67202e-05
0.000698401
-0.000123489
0.00177528
-0.000237464
0.00261915
-0.000351231
0.00320612
-0.000431876
0.0035187
-0.000437655
0.0035378
-0.000312368
0.00323614
1.8226e-05
0.0025874
0.000708174
0.00159333
0.000472426
0.0018454
-3.24288e-05
0.00073083
-0.000104456
0.00184731
-0.000190272
0.00270497
-0.000259002
0.00327485
-0.000273419
0.00353311
-0.000186008
0.00345038
6.94039e-05
0.00298073
0.000588398
0.00206841
0.00152352
0.000658203
-0.00105322
0.00304917
-2.82482e-05
0.000759078
-8.47267e-05
0.00190379
-0.000139517
0.00275976
-0.000156923
0.00329226
-9.36596e-05
0.00346985
0.000105583
0.00325114
0.000516712
0.0025696
0.00125167
0.00133346
0.00250134
-0.000591468
-0.00300552
0.00445364
-2.41754e-05
0.000783253
-6.41097e-05
0.00194372
-8.44404e-05
0.00278009
-4.2946e-05
0.00325076
0.000112
0.0033149
0.000446648
0.00291649
0.00105051
0.00196573
0.00204973
0.000334236
0.00368725
-0.00222899
-0.00541798
0.00609971
-2.01718e-05
0.000803425
-4.22837e-05
0.00196583
-2.39947e-05
0.0027618
8.53329e-05
0.00314144
0.000348639
0.0030516
0.000846881
0.00241825
0.00168773
0.00112489
0.00301246
-0.000990491
0.00512579
-0.00434232
-0.00830681
0.00801462
-1.61451e-05
0.00081957
-1.87099e-05
0.0019684
4.30714e-05
0.00270002
0.000230817
0.00295369
0.000621818
0.0026606
0.00131616
0.00172391
0.00244487
-3.81906e-06
0.00416594
-0.00271156
0.00684367
-0.00702005
-0.0116576
0.0101944
-1.19426e-05
0.000831513
7.37469e-06
0.00194908
0.000118616
0.00258878
0.000397099
0.00267521
0.000937825
0.00211987
0.00186447
0.000797259
0.0033362
-0.00147555
0.00553203
-0.0049074
0.00883497
-0.010323
-0.0154173
0.0125948
-7.38823e-06
0.000838901
3.65081e-05
0.00190519
0.000205017
0.00242027
0.000588638
0.00229159
0.00130384
0.00140467
0.00250192
-0.000400815
0.00437305
-0.00334668
0.00712886
-0.00766321
0.0110609
-0.014255
-0.0195001
0.0151437
-1.82867e-06
0.00084073
7.07167e-05
0.00183264
0.000305351
0.00218563
0.000810794
0.00178614
0.0017278
0.000487655
0.0032376
-0.00191061
0.00555931
-0.0056684
0.00894763
-0.0110515
0.0134899
-0.0187973
-0.0237809
0.0177707
5.02544e-06
0.000835704
0.000111435
0.00172623
0.00042319
0.00187388
0.00106965
0.00113969
0.00221791
-0.00066061
0.00407832
-0.00377101
0.00688675
-0.00847683
0.0109008
-0.0150656
0.0159656
-0.0238621
-0.0314388
0.0236235
1.35671e-05
0.000822137
0.000160502
0.0015793
0.000562432
0.00147195
0.00137151
0.000330611
0.0027817
-0.0020708
0.00502704
-0.00601635
0.00833989
-0.0117897
0.0129075
-0.0196332
0.018447
-0.0294017
-0.0387616
0.0257698
2.4574e-05
0.000797563
0.000219853
0.00138402
0.000726911
0.00096489
0.00172203
-0.000664505
0.00342425
-0.00377302
0.00607965
-0.00867176
0.00988842
-0.0155985
0.0148964
-0.0246411
0.0207378
-0.0352432
-0.0456342
0.0276104
3.85597e-05
0.000759003
0.000291258
0.00113132
0.000919905
0.000336243
0.0021251
-0.0018697
0.00414579
-0.00579371
0.00722064
-0.0117466
0.0114788
-0.0198566
0.0167898
-0.0299521
0.0226759
-0.0411293
-0.0519563
0.028998
5.59961e-05
0.000703007
0.000376147
0.000811167
0.00114363
-0.000431242
0.00258171
-0.00330778
0.00493941
-0.0081514
0.00842015
-0.0152273
0.0130382
-0.0244746
0.0184786
-0.0353925
0.0241752
-0.0468259
-0.0576261
0.0298451
7.72511e-05
0.000625756
0.000475454
0.000412964
0.00139885
-0.00135463
0.00308909
-0.00499802
0.00578951
-0.0108518
0.00963368
-0.0190715
0.0144849
-0.0293259
0.0198684
-0.040776
0.0251919
-0.0521494
-0.062597
0.0301627
0.000102566
0.000523191
0.000589528
-7.3998e-05
0.00168455
-0.00244966
0.00364005
-0.00695352
0.00667147
-0.0138832
0.0108059
-0.0232059
0.0157413
-0.0342613
0.020898
-0.0459327
0.02573
-0.0569814
-0.0668823
0.0300153
0.000132046
0.000391145
0.00071807
-0.000660021
0.00199782
-0.00372941
0.00422274
-0.00917844
0.0075527
-0.0172132
0.0118778
-0.027531
0.0167461
-0.0391297
0.0215449
-0.0507315
0.0258298
-0.0612662
-0.0705332
0.0294807
0.000165663
0.000225482
0.000860091
-0.00135445
0.00233367
-0.00520299
0.00482077
-0.0116655
0.00839544
-0.0207879
0.0127958
-0.0319314
0.017463
-0.0437968
0.0218193
-0.0550879
0.0255506
-0.0649975
-0.0736223
0.0286397
0.000203246
2.22361e-05
0.00101389
-0.00216509
0.00268505
-0.00687415
0.00541386
-0.0143944
0.0091609
-0.0245349
0.0135191
-0.0362896
0.0178806
-0.0481584
0.0217542
-0.0589615
0.024959
-0.0682023
-0.0762272
0.027564
0.000244474
-0.000222238
0.00117702
-0.00309764
0.00304292
-0.00874005
0.00597917
-0.0173306
0.00981404
-0.0283698
0.0140234
-0.0404989
0.0180093
-0.0521444
0.0213948
-0.0623469
0.0241191
-0.0709266
-0.0784219
0.0263138
0.000288878
-0.000511115
0.00134631
-0.00415508
0.00339656
-0.0107903
0.00649334
-0.0204274
0.0103276
-0.0322041
0.0143012
-0.0444724
0.0178739
-0.0557171
0.0207902
-0.0652632
0.0230878
-0.0732241
-0.0802711
0.024937
0.000335807
-0.000846923
0.00151787
-0.00533714
0.00373406
-0.0130065
0.00693481
-0.0236281
0.0106844
-0.0359537
0.0143592
-0.0481472
0.0175072
-0.0588651
0.0199882
-0.0677442
0.0219131
-0.075149
-0.0818284
0.0234703
0.000384439
-0.00123136
0.00168722
-0.00663992
0.00404315
-0.0153624
0.00728594
-0.0268709
0.0108779
-0.0395456
0.0142139
-0.0514832
0.0169454
-0.0615966
0.0190317
-0.0698305
0.0206337
-0.076751
-0.0831361
0.0219414
0.000433787
-0.00166515
0.00184944
-0.00805558
0.00431213
-0.0178251
0.00753449
-0.0300933
0.0109105
-0.0429216
0.0138882
-0.0544609
0.0162237
-0.0639321
0.0179578
-0.0715645
0.0192799
-0.0780732
-0.0842265
0.0203703
0.00048272
-0.00214787
0.00199944
-0.00957229
0.00453083
-0.0203565
0.00767418
-0.0332366
0.0107918
-0.0460393
0.0134073
-0.0570764
0.015375
-0.0658998
0.016797
-0.0729865
0.0178751
-0.0791513
-0.0851234
0.018772
0.000530006
-0.00267787
0.00213221
-0.0111745
0.0046914
-0.0229157
0.00770435
-0.0362496
0.010536
-0.0488709
0.012797
-0.0593374
0.0144279
-0.0675307
0.0155741
-0.0741328
0.0164367
-0.0800138
-0.0858439
0.0171571
0.000574362
-0.00325224
0.0022432
-0.0128433
0.00478877
-0.0254613
0.00762905
-0.0390899
0.0101598
-0.0514017
0.0120816
-0.0612592
0.013407
-0.068856
0.0143087
-0.0750345
0.0149779
-0.0806829
-0.0863998
0.0155338
0.00061451
-0.00386675
0.00232852
-0.0145573
0.00482076
-0.0279535
0.00745579
-0.0417249
0.00968104
-0.053627
0.0112834
-0.0628616
0.0123327
-0.0699053
0.0130161
-0.0757179
0.0135086
-0.0811754
-0.0867994
0.0139082
0.000649242
-0.00451599
0.00238526
-0.0162934
0.00478792
-0.0303561
0.00719438
-0.0441314
0.00911701
-0.0555496
0.0104217
-0.0641663
0.0112218
-0.0707054
0.011708
-0.0762041
0.0120361
-0.0815035
-0.0870485
0.0122853
0.000677474
-0.00519346
0.00241156
-0.0180275
0.00469304
-0.0326376
0.00685586
-0.0462942
0.00848417
-0.0571779
0.00951344
-0.0651955
0.0100878
-0.0712797
0.0103935
-0.0765099
0.0105663
-0.0816762
-0.0871511
0.0106689
0.000698293
-0.00589175
0.00240665
-0.0197358
0.00454064
-0.0347716
0.00645164
-0.0482052
0.00779743
-0.0585237
0.00857262
-0.0659707
0.0089412
-0.0716483
0.00907962
-0.0766483
0.00910333
-0.0816999
-0.0871096
0.00906177
0.000710993
-0.00660275
0.00237079
-0.0213956
0.00433638
-0.0367372
0.00599293
-0.0498617
0.00707002
-0.0596008
0.00761099
-0.0665117
0.00779061
-0.0718279
0.00777169
-0.0766294
0.00765085
-0.0815791
-0.0869252
0.00746647
0.000715094
-0.00731784
0.00230516
-0.0229857
0.0040866
-0.0385187
0.0054903
-0.0512654
0.00631346
-0.0604239
0.00663818
-0.0668364
0.00664264
-0.0718324
0.00647384
-0.0764606
0.00621154
-0.0813168
-0.0865985
0.00588484
0.000710346
-0.00802819
0.00221166
-0.024487
0.00379785
-0.0401048
0.00495349
-0.0524211
0.00553762
-0.0610081
0.0056621
-0.0669609
0.00550262
-0.0716729
0.00518936
-0.0761473
0.00478749
-0.0809149
-0.0861292
0.00431823
0.000696719
-0.00872491
0.00209271
-0.025883
0.00347662
-0.0414888
0.00439121
-0.0533357
0.00475087
-0.0613677
0.00468917
-0.0668992
0.00437503
-0.0713588
0.00392151
-0.0756938
0.00338035
-0.0803738
-0.0855157
0.00276685
0.000674398
-0.00939931
0.00195106
-0.0271596
0.0031291
-0.0426668
0.00381116
-0.0540177
0.00396016
-0.0615167
0.00372456
-0.0666636
0.00326362
-0.0708978
0.00267432
-0.0751045
0.00199239
-0.0796918
-0.0847495
0.00122613
0.000643773
-0.0100431
0.00178979
-0.0283056
0.00276108
-0.0436381
0.00322002
-0.0544767
0.00317128
-0.061468
0.00277231
-0.0662646
0.00217122
-0.0702967
0.00145078
-0.074384
0.00063501
-0.0788761
-0.0838048
-0.000309675
0.000605417
-0.0106485
0.00161211
-0.0293123
0.00237788
-0.0444039
0.00262355
-0.0547223
0.00238894
-0.0612334
0.00183569
-0.0657114
0.00110004
-0.0695611
0.000243423
-0.0735274
-0.000697651
-0.077935
-0.0827566
-0.00174589
0.000560032
-0.0112085
0.00142104
-0.0301734
0.00198435
-0.0449672
0.00202669
-0.0547647
0.00161692
-0.0608236
0.000917531
-0.065012
4.35976e-05
-0.0686872
-0.000927145
-0.0725567
-0.00201017
-0.076852
-0.0815874
-0.00317933
0.000508417
-0.0117169
0.00121946
-0.0308844
0.00158486
-0.0453326
0.00143361
-0.0546134
0.000858062
-0.0602481
1.39505e-05
-0.0641679
-0.000971471
-0.0677017
-0.00207405
-0.0714541
-0.00328665
-0.0756394
-0.0802856
-0.00458848
0.000451474
-0.0121684
0.00101014
-0.0314431
0.00118317
-0.0455056
0.000847666
-0.0542779
0.000116531
-0.0595169
-0.000853144
-0.0631982
-0.00196805
-0.0665868
-0.00319366
-0.0702285
-0.00453221
-0.0743008
-0.0788512
-0.00596656
0.000390191
-0.0125586
0.000795978
-0.0318488
0.000782221
-0.0454918
0.000273171
-0.0537688
-0.000606149
-0.0586376
-0.0017043
-0.0621001
-0.00293831
-0.0653528
-0.00428371
-0.0688831
-0.00574648
-0.0728381
-0.0772866
-0.00731105
0.000325486
-0.0128841
0.000580002
-0.0321034
0.000385391
-0.0452972
-0.000290084
-0.0530934
-0.00130974
-0.057618
-0.00253116
-0.0608786
-0.00388094
-0.0640031
-0.00534323
-0.0674208
-0.00692815
-0.0712531
-0.075596
-0.00861878
0.000258169
-0.0131423
0.000364165
-0.0322094
1.52632e-05
-0.0449483
-0.000837048
-0.0522411
-0.00199332
-0.0564617
-0.00333285
-0.0595391
-0.00479516
-0.0625407
-0.00637157
-0.0658444
-0.00807577
-0.0695489
-0.0737858
-0.00988598
0.000189858
-0.0133321
0.000150396
-0.0321699
-0.000393065
-0.0444049
-0.00137356
-0.0512606
-0.00265513
-0.0551801
-0.00410846
-0.0580858
-0.00568025
-0.060969
-0.00736799
-0.0641566
-0.00918807
-0.0677289
-0.071861
-0.0111128
0.000119305
-0.0134514
-5.6615e-05
-0.031994
-0.000768781
-0.0436927
-0.00189344
-0.0501359
-0.00329451
-0.053779
-0.0048573
-0.056523
-0.00653573
-0.0592905
-0.00833199
-0.0623604
-0.0102651
-0.0657957
-0.0698193
-0.0123069
4.35305e-05
-0.013495
-0.00028776
-0.0316627
-0.0011353
-0.0428452
-0.00239459
-0.0488766
-0.0039107
-0.0522629
-0.0055791
-0.0548546
-0.00736194
-0.0575077
-0.0092646
-0.0604577
-0.0113059
-0.0637544
-0.0676602
-0.013465
-3.19372e-05
-0.013463
-0.000501784
-0.0311928
-0.00149059
-0.0418564
-0.00287641
-0.0474908
-0.00450255
-0.0506368
-0.00627326
-0.0530839
-0.00815949
-0.0556215
-0.0101691
-0.0584481
-0.0123053
-0.0616182
-0.0653986
-0.0145668
-0.000102867
-0.0133602
-0.00070743
-0.0305883
-0.00183297
-0.0407308
-0.00333849
-0.0459853
-0.00506933
-0.048906
-0.00693875
-0.0512144
-0.00892636
-0.0536339
-0.0110441
-0.0563304
-0.013302
-0.0593603
-0.063173
-0.0155276
-0.000174309
-0.0131858
-0.000905927
-0.0298567
-0.00216151
-0.0394752
-0.00378024
-0.0443665
-0.00561052
-0.0470757
-0.00757454
-0.0492504
-0.00965777
-0.0515506
-0.0118612
-0.054127
-0.0141503
-0.0570712
-0.0604492
-0.0168741
-0.00024441
-0.0129414
-0.00109718
-0.0290039
-0.0024756
-0.0380968
-0.00420121
-0.0426409
-0.00612593
-0.045151
-0.00818002
-0.0471963
-0.0103505
-0.0493802
-0.0126334
-0.051844
-0.015046
-0.0546586
-0.0577402
-0.017755
-0.000312568
-0.0126289
-0.00128071
-0.0280357
-0.00277477
-0.0366028
-0.00460101
-0.0408147
-0.00661522
-0.0431367
-0.00875507
-0.0450565
-0.0110107
-0.0471245
-0.0133868
-0.0494679
-0.0159167
-0.0521288
-0.0550017
-0.0186552
-0.000378403
-0.0122505
-0.00145601
-0.0269581
-0.00305863
-0.0350002
-0.00497933
-0.038894
-0.007078
-0.0410381
-0.0092989
-0.0428356
-0.0116356
-0.0447878
-0.014098
-0.0470055
-0.0167162
-0.0495106
-0.0522077
-0.0195102
-0.000441603
-0.0118089
-0.0016226
-0.0257771
-0.00332682
-0.0332959
-0.00533595
-0.0368849
-0.00751411
-0.0388599
-0.00981176
-0.0405379
-0.012226
-0.0423735
-0.0147699
-0.0444617
-0.0174678
-0.0468127
-0.0493478
-0.0203277
-0.000501896
-0.011307
-0.00178008
-0.024499
-0.00357907
-0.0314969
-0.00567069
-0.0347932
-0.00792339
-0.0366072
-0.0102934
-0.0381679
-0.0127809
-0.039886
-0.0154003
-0.0418423
-0.018172
-0.044041
-0.0464182
-0.0211016
-0.000559044
-0.0107479
-0.00192811
-0.0231299
-0.00381513
-0.0296099
-0.00598341
-0.032625
-0.00830574
-0.0342849
-0.0107436
-0.03573
-0.0133
-0.0373296
-0.0159897
-0.0391526
-0.0188312
-0.0411995
-0.0434191
-0.0218302
-0.000612833
-0.0101351
-0.00206641
-0.0216763
-0.00403481
-0.0276415
-0.00627401
-0.0303858
-0.00866108
-0.0318978
-0.0111624
-0.0332288
-0.0137829
-0.034709
-0.0165381
-0.0363974
-0.0194453
-0.0382923
-0.0403528
-0.0225117
-0.000663078
-0.00947201
-0.00219474
-0.0201446
-0.00423797
-0.0255983
-0.00654242
-0.0280813
-0.00898933
-0.0294509
-0.0115494
-0.0306687
-0.0142295
-0.0320289
-0.0170455
-0.0335814
-0.0200143
-0.0353235
-0.0372227
-0.0231444
-0.000709617
-0.00876239
-0.00231291
-0.0185414
-0.00442447
-0.0234867
-0.00678857
-0.0257172
-0.00929042
-0.026949
-0.0119046
-0.0280546
-0.0146396
-0.0292939
-0.0175116
-0.0307094
-0.0205376
-0.0322975
-0.0340329
-0.0237273
-0.000752309
-0.00801008
-0.00242074
-0.0168729
-0.00459422
-0.0213133
-0.00701244
-0.023299
-0.0095643
-0.0243972
-0.0122278
-0.025391
-0.015013
-0.0265087
-0.0179362
-0.0277862
-0.0210147
-0.0292191
-0.0307882
-0.0242594
-0.000791035
-0.00721905
-0.00251811
-0.0151458
-0.00474715
-0.0190842
-0.00721397
-0.0208322
-0.00981092
-0.0218002
-0.0125191
-0.0226829
-0.0153495
-0.0236783
-0.0183191
-0.0248166
-0.0214451
-0.0260931
-0.0274936
-0.0247397
-0.000825691
-0.00639336
-0.0026049
-0.0133666
-0.00488319
-0.0168059
-0.00739315
-0.0183222
-0.0100302
-0.0191631
-0.0127781
-0.019935
-0.015649
-0.0208074
-0.01866
-0.0218055
-0.0218285
-0.0229247
-0.0241545
-0.0251676
-0.00085619
-0.00553717
-0.00268101
-0.0115418
-0.00500231
-0.0144846
-0.00754996
-0.0157746
-0.0102222
-0.0164909
-0.013005
-0.0171521
-0.0159114
-0.017901
-0.0189587
-0.0187582
-0.0221645
-0.019719
-0.0207763
-0.0255427
-0.000882458
-0.00465471
-0.00274638
-0.00967789
-0.00510446
-0.0121266
-0.00768438
-0.0131946
-0.0103868
-0.0137885
-0.0131996
-0.0143393
-0.0161364
-0.0149642
-0.019215
-0.0156796
-0.0224527
-0.0164813
-0.0173646
-0.0258645
-0.000904436
-0.00375027
-0.00280094
-0.00778139
-0.00518963
-0.00973786
-0.00779641
-0.0105879
-0.010524
-0.011061
-0.0133618
-0.0115015
-0.0163241
-0.0120019
-0.0194288
-0.0125749
-0.0226932
-0.0132169
-0.0139249
-0.0261328
-0.000922075
-0.0028282
-0.00284464
-0.00585883
-0.00525778
-0.00732472
-0.00788604
-0.0079596
-0.0106337
-0.00831328
-0.0134916
-0.00864358
-0.0164743
-0.00901918
-0.0195999
-0.00944931
-0.0228856
-0.00993115
-0.010463
-0.0263476
-0.000935335
-0.00189286
-0.00287744
-0.00391673
-0.0053089
-0.00489325
-0.00795325
-0.00531525
-0.0107161
-0.00555048
-0.013589
-0.00577063
-0.016587
-0.00602115
-0.0197283
-0.00630807
-0.02303
-0.00662943
-0.00698433
-0.0265087
-0.00094419
-0.000948672
-0.00289932
-0.0019616
-0.00534298
-0.00244959
-0.00799806
-0.00266017
-0.0107709
-0.00277759
-0.0136539
-0.00288763
-0.0166622
-0.00301289
-0.0198139
-0.00315637
-0.0231263
-0.00331706
-0.00349457
-0.026616
-0.00094862
-5.12013e-08
-0.00291026
4.23771e-08
-0.00536002
1.70259e-07
-0.00802046
2.65683e-07
-0.0107984
3.33795e-07
-0.0136864
3.9872e-07
-0.0166998
4.71354e-07
-0.0198567
5.5221e-07
-0.0231744
6.40662e-07
7.36091e-07
-0.0266697
-0.000948618
0.000948567
-0.00291025
0.00196168
-0.00536001
0.00244993
-0.00802045
0.0026607
-0.0107984
0.00277826
-0.0136864
0.00288842
-0.0166998
0.00301383
-0.0198567
0.00315747
-0.0231744
0.00331834
0.00349604
-0.0266697
-0.000944182
0.00189275
-0.0028993
0.0039168
-0.00534295
0.00489358
-0.00799802
0.00531577
-0.0107709
0.00555113
-0.0136539
0.00577141
-0.0166621
0.00602208
-0.0198138
0.00630916
-0.0231262
0.0066307
0.0069858
-0.0266159
-0.000935322
0.00282807
-0.0028774
0.00585888
-0.00530885
0.00732502
-0.00795318
0.0079601
-0.010716
0.00831393
-0.0135889
0.00864436
-0.0165869
0.0090201
-0.0197282
0.00945039
-0.0230299
0.00993241
0.0104644
-0.0265085
-0.000922056
0.00375013
-0.00284459
0.00778141
-0.0052577
0.00973814
-0.00788594
0.0105883
-0.0106336
0.0110616
-0.0134915
0.0115022
-0.0164742
0.0120028
-0.0195997
0.0125759
-0.0228854
0.0132181
0.0139264
-0.0263474
-0.000904412
0.00465454
-0.00280087
0.00967787
-0.00518953
0.0121268
-0.00779628
0.0131951
-0.0105238
0.0137891
-0.0133616
0.0143401
-0.0163239
0.0149651
-0.0194286
0.0156806
-0.0226929
0.0164825
0.017366
-0.0261326
-0.000882428
0.00553697
-0.0027463
0.0115417
-0.00510434
0.0144848
-0.00768422
0.015775
-0.0103866
0.0164915
-0.0131994
0.0171528
-0.0161362
0.0179019
-0.0192148
0.0187592
-0.0224525
0.0197202
0.0207777
-0.0258642
-0.000856154
0.00639312
-0.00268092
0.0133665
-0.00500217
0.0168061
-0.00754977
0.0183226
-0.010222
0.0191637
-0.0130047
0.0199356
-0.0159111
0.0208082
-0.0189584
0.0218065
-0.0221641
0.0229259
0.0241559
-0.0255423
-0.000825649
0.00721877
-0.00260479
0.0151457
-0.00488302
0.0190843
-0.00739293
0.0208325
-0.01003
0.0218007
-0.0127778
0.0226835
-0.0156487
0.0236791
-0.0186597
0.0248175
-0.0218281
0.0260943
0.027495
-0.0251672
-0.000790988
0.00800976
-0.00251799
0.0168727
-0.00474695
0.0213133
-0.00721372
0.0232992
-0.00981061
0.0243976
-0.0125187
0.0253916
-0.0153491
0.0265095
-0.0183187
0.0277871
-0.0214447
0.0292202
0.0307896
-0.0247392
-0.000752256
0.00876201
-0.00242061
0.018541
-0.004594
0.0234867
-0.00701215
0.0257174
-0.00956396
0.0269494
-0.0122274
0.0280551
-0.0150125
0.0292946
-0.0179358
0.0307103
-0.0210141
0.0322986
0.0340342
-0.0242588
-0.000709558
0.00947157
-0.00231276
0.0201442
-0.00442423
0.0255981
-0.00678825
0.0280814
-0.00929004
0.0294512
-0.0119041
0.0306692
-0.0146391
0.0320295
-0.0175111
0.0335823
-0.020537
0.0353246
0.0372239
-0.0237267
-0.000663013
0.0101346
-0.00219457
0.0216758
-0.0042377
0.0276413
-0.00654206
0.0303858
-0.0089889
0.031898
-0.0115489
0.0332292
-0.014229
0.0347096
-0.0170449
0.0363982
-0.0200137
0.0382933
0.040354
-0.0231438
-0.000612761
0.0107473
-0.00206622
0.0231292
-0.00403452
0.0296096
-0.00627362
0.0326249
-0.00866061
0.034285
-0.0111618
0.0357304
-0.0137823
0.0373301
-0.0165375
0.0391533
-0.0194446
0.0412005
0.0434203
-0.0225109
-0.000558966
0.0113063
-0.00192791
0.0244982
-0.0038148
0.0314965
-0.00598297
0.0347931
-0.00830522
0.0366073
-0.010743
0.0381682
-0.0132993
0.0398864
-0.015989
0.041843
-0.0188304
0.0440419
0.0464194
-0.0218294
-0.000501811
0.0118081
-0.00177985
0.0257762
-0.00357871
0.0332953
-0.00567021
0.0368846
-0.00792282
0.0388599
-0.0102927
0.0405381
-0.0127802
0.0423739
-0.0153995
0.0444623
-0.0181712
0.0468136
0.0493489
-0.0211007
-0.000441511
0.0122496
-0.00162235
0.0269571
-0.00332643
0.0349994
-0.00533543
0.0388936
-0.00751349
0.0410379
-0.00981105
0.0428357
-0.0122252
0.0447881
-0.014769
0.0470061
-0.0174669
0.0495114
0.0522088
-0.0203267
-0.000378305
0.0126279
-0.00145575
0.0280345
-0.0030582
0.0366018
-0.00497876
0.0408141
-0.00707732
0.0431365
-0.00929812
0.0450565
-0.0116347
0.0471247
-0.014097
0.0494684
-0.0167152
0.0521295
0.0550028
-0.0195091
-0.000312464
0.0129404
-0.00128043
0.0290025
-0.00277431
0.0380957
-0.00460039
0.0426402
-0.00661449
0.0451506
-0.00875423
0.0471962
-0.0110098
0.0493803
-0.0133858
0.0518444
-0.0159156
0.0546593
0.0577412
-0.018654
-0.000244298
0.0131847
-0.00109688
0.029855
-0.0024751
0.0394739
-0.00420054
0.0443657
-0.00612513
0.0470752
-0.0081791
0.0492502
-0.0103494
0.0515506
-0.0126323
0.0541273
-0.0150448
0.0570718
0.0604501
-0.0177537
-0.000174191
0.0133589
-0.000905603
0.0305865
-0.00216097
0.0407293
-0.00377953
0.0459842
-0.00560966
0.0489053
-0.00757355
0.0512141
-0.00965667
0.0536337
-0.01186
0.0563306
-0.014149
0.0593608
0.0631738
-0.0168727
-0.000102745
0.0134616
-0.000707084
0.0311908
-0.00183239
0.0418546
-0.00333772
0.0474896
-0.0050684
0.050636
-0.00693769
0.0530834
-0.00892518
0.0556212
-0.0110428
0.0584482
-0.0133006
0.0616186
0.0653994
-0.0155262
-3.18154e-05
0.0134935
-0.000501417
0.0316604
-0.00148996
0.0428431
-0.00287557
0.0488752
-0.00450155
0.0522619
-0.00627211
0.0548539
-0.00815821
0.0575073
-0.0101677
0.0604577
-0.0123038
0.0637547
0.0676609
-0.0145653
4.36747e-05
0.0134498
-0.000287368
0.0319914
-0.00113462
0.0436904
-0.0023937
0.0501342
-0.00390962
0.0537779
-0.00557787
0.0565222
-0.00736057
0.05929
-0.00926312
0.0623602
-0.0113043
0.0657959
0.0698199
-0.0134634
0.000119447
0.0133303
-5.61411e-05
0.032167
-0.00076805
0.0444023
-0.00189249
0.0512587
-0.00329336
0.0551787
-0.00485598
0.0580848
-0.00653426
0.0609683
-0.0083304
0.0641564
-0.0102634
0.067729
0.0718616
-0.0123051
0.000189991
0.0131403
0.000150782
0.0322062
-0.000392276
0.0449454
-0.00137255
0.052239
-0.0026539
0.0564601
-0.00410705
0.0595379
-0.00567868
0.0625399
-0.00736628
0.065844
-0.00918626
0.0695489
0.0737863
-0.0111109
0.000258303
0.012882
0.000364581
0.0321
1.58747e-05
0.0452941
-0.000835993
0.0530908
-0.001992
0.0576161
-0.00333134
0.0608773
-0.00479348
0.0640021
-0.00636975
0.0674202
-0.00807383
0.071253
0.0755964
-0.00988395
0.000325623
0.0125564
0.000580454
0.0318451
0.000386238
0.0454883
-0.000288921
0.053766
-0.00130833
0.0586355
-0.00252955
0.0620985
-0.00387914
0.0653517
-0.00534127
0.0688824
-0.00692607
0.0728378
0.0772869
-0.00861661
0.000390331
0.0121661
0.000796455
0.031439
0.000783104
0.0455016
0.0002744
0.0542747
-0.000604637
0.0595145
-0.00170259
0.0631965
-0.00293638
0.0665855
-0.00428162
0.0702276
-0.00574425
0.0743004
0.0788514
-0.00730873
0.000451614
0.0117145
0.00101063
0.03088
0.00118409
0.0453282
0.000848974
0.0546098
0.000118159
0.0602453
-0.000851334
0.064166
-0.00196598
0.0677001
-0.00319142
0.071453
-0.00452983
0.0756389
0.0802856
-0.00596407
0.000508552
0.0112059
0.00121995
0.0301686
0.00158581
0.0449623
0.00143499
0.0547606
0.000859816
0.0608205
1.61605e-05
0.0650096
-0.000969263
0.0686855
-0.00207165
0.0725554
-0.00328409
0.0768513
0.0815874
-0.0045858
0.00056016
0.0106458
0.00142154
0.0293072
0.00198534
0.0443985
0.00202814
0.0547178
0.00161875
0.0612299
0.000919632
0.0657087
4.60977e-05
0.0695591
-0.000924572
0.0735261
-0.00200743
0.0779342
0.0827564
-0.00317646
0.000605535
0.0100402
0.0016126
0.0283001
0.00237889
0.0436322
0.00262505
0.0544717
0.00239086
0.0614641
0.00183794
0.0662617
0.00110253
0.0702945
0.000246216
0.0743824
-0.000694683
0.0788751
0.0838045
-0.00174282
0.000643878
0.00939634
0.00179026
0.0271538
0.00276209
0.0426604
0.00322158
0.0540122
0.0031733
0.0615124
0.0027747
0.0666603
0.0021739
0.0708953
0.00145369
0.0751026
0.000638088
0.0796907
0.0847492
-0.000306546
0.000674487
0.00872185
0.00195151
0.0258767
0.00313011
0.0414818
0.00381277
0.0533295
0.00396229
0.0613628
0.00372709
0.0668955
0.00326648
0.0713559
0.00267744
0.0756917
0.00199575
0.0803724
0.0855151
0.00122976
0.000696791
0.00802506
0.00209313
0.0244804
0.00347762
0.0400973
0.00439286
0.0524143
0.00475308
0.0610026
0.00469185
0.0669567
0.00437806
0.0716697
0.00392484
0.0761449
0.00338395
0.0809132
0.0861284
0.00277067
0.000710398
0.00731466
0.00221203
0.0229788
0.00379882
0.0385105
0.00495515
0.0512579
0.00553992
0.0604179
0.00566491
0.0668317
0.00550584
0.0718287
0.00519292
0.0764578
0.00479133
0.0813148
0.0865975
0.0043223
0.000715125
0.00659954
0.00230548
0.0213884
0.00408752
0.0367285
0.00549196
0.0498535
0.00631582
0.059594
0.00664113
0.0665064
0.00664605
0.0718238
0.00647762
0.0766262
0.00621563
0.0815768
0.0869239
0.0058892
0.000711001
0.00588854
0.00237104
0.0197284
0.00433723
0.0347623
0.00599455
0.0481962
0.00707243
0.0585161
0.00761405
0.0659648
0.0077942
0.0716437
0.0077757
0.0766447
0.00765521
0.0816973
0.087108
0.00747113
0.000698277
0.00519026
0.00240683
0.0180198
0.00454138
0.0326277
0.00645321
0.0462844
0.00779985
0.0571695
0.00857579
0.0651888
0.00894497
0.0712745
0.00908387
0.0765058
0.00910798
0.0816732
0.0871492
0.00906676
0.000677434
0.00451283
0.00241166
0.0162856
0.00469366
0.0303457
0.00685733
0.0441207
0.00848658
0.0555402
0.00951669
0.0641587
0.0100917
0.0706995
0.010398
0.0761995
0.0105712
0.0815
0.0870462
0.0106742
0.000649179
0.00386365
0.00238527
0.0145495
0.00478839
0.0279426
0.00719571
0.0417134
0.00911936
0.0536166
0.010425
0.062853
0.0112259
0.0698986
0.0117127
0.0757127
0.0120414
0.0811714
0.0867966
0.012291
0.000614425
0.00324922
0.00232844
0.0128355
0.00482106
0.02545
0.00745693
0.0390775
0.00968326
0.0513903
0.0112867
0.0612496
0.0123369
0.0688483
0.0130211
0.0750285
0.0135141
0.0806783
0.0863965
0.0139143
0.000574257
0.00267497
0.00224302
0.0111667
0.00478888
0.0229041
0.00762996
0.0362364
0.0101619
0.0488583
0.0120849
0.0593266
0.0134112
0.067522
0.0143139
0.0741259
0.0149838
0.0800084
0.0858399
0.0155403
0.000529884
0.00214508
0.00213195
0.00956465
0.00469131
0.0203448
0.00770498
0.0332228
0.0105378
0.0460255
0.0128001
0.0570643
0.0144322
0.0658899
0.0155795
0.0729786
0.0164429
0.079145
0.0851188
0.017164
0.000482584
0.0016625
0.0019991
0.00804814
0.00453053
0.0178134
0.00767448
0.0300788
0.0107933
0.0429067
0.0134102
0.0544474
0.0153792
0.0639208
0.0168024
0.0715554
0.0178815
0.0780659
0.084221
0.0187793
0.00043364
0.00122886
0.00184903
0.00663275
0.00431162
0.0153508
0.00753443
0.026856
0.0109115
0.0395296
0.0138907
0.0514682
0.0162278
0.0615837
0.0179633
0.06982
0.0192867
0.0767425
0.0831295
0.0203781
0.000384286
0.000844573
0.00168675
0.00533029
0.00404245
0.0129951
0.00728549
0.023613
0.0108784
0.0359367
0.014216
0.0481307
0.0169492
0.0588505
0.0190372
0.067732
0.0206406
0.0751391
0.0818205
0.0219496
0.000335651
0.000508922
0.00151736
0.00414858
0.00373318
0.0107792
0.00693396
0.0204122
0.0106844
0.0321863
0.0143606
0.0444544
0.0175106
0.0557006
0.0199934
0.0652491
0.0219201
0.0732125
0.0802617
0.0234789
0.000288721
0.000220201
0.00134576
0.00309154
0.00339553
0.00872948
0.00649211
0.0173156
0.0103269
0.0283515
0.0143019
0.0404794
0.0178766
0.0521259
0.0207951
0.0623306
0.0230948
0.0709128
0.0784106
0.0249458
0.000244318
-2.41176e-05
0.00117645
0.00215941
0.00304176
0.00686416
0.00597758
0.0143798
0.0098127
0.0245164
0.0140232
0.0362689
0.0180113
0.0481378
0.0213991
0.0589427
0.0241258
0.0681861
0.0762136
0.0263228
0.00020309
-0.000227207
0.00101328
0.00134922
0.00268378
0.00519367
0.00541195
0.0116516
0.0091589
0.0207694
0.013518
0.0319098
0.0178815
0.0437743
0.0217578
0.0550665
0.0249654
0.0649785
0.0736059
0.0275731
0.000165502
-0.000392709
0.000859452
0.000655268
0.00233229
0.00372083
0.00481857
0.00916531
0.0083928
0.0171952
0.0127937
0.0275089
0.0174626
0.0391054
0.0218217
0.0507074
0.0255562
0.061244
0.0705135
0.0286486
0.000131873
-0.000524582
0.000717378
6.9762e-05
0.00199631
0.0024419
0.00422026
0.00694136