/*--------------------------------*- C++ -*----------------------------------*\
  =========                 |
  \\      /  F ield         | OpenFOAM: The Open Source CFD Toolbox
   \\    /   O peration     | Website:  https://openfoam.org
    \\  /    A nd           | Version:  7
     \\/     M anipulation  |
\*---------------------------------------------------------------------------*/
FoamFile
{
    version     2.0;
    format      ascii;
    class       volVectorField;
    location    "65";
    object      U;
}
// * * * * * * * * * * * * * * * * * * * * * * * * * * * * * * * * * * * * * //

dimensions      [0 1 -1 0 0 0 0];

internalField   nonuniform List<vector> 
8500
(
(-0.00119948 0.00102166 6.54449e-22)
(-0.00667794 0.00229643 -1.88011e-21)
(-0.0169326 0.00298987 -2.19341e-21)
(-0.0290491 0.00325886 2.1808e-21)
(-0.041937 0.00322116 -2.00641e-21)
(-0.0547384 0.00298483 -1.06983e-21)
(-0.0668944 0.0026477 1.82762e-21)
(-0.078232 0.00229928 2.26497e-21)
(-0.088813 0.0020157 -3.71838e-22)
(-0.0989436 0.00185775 1.09316e-21)
(-0.00135061 0.00308602 -7.23107e-22)
(-0.00699151 0.007053 2.23512e-21)
(-0.017281 0.00933636 -5.24577e-21)
(-0.0293428 0.0103675 4.75769e-21)
(-0.0421013 0.0104777 2.119e-22)
(-0.0547067 0.00998528 3.49184e-21)
(-0.0666016 0.0091906 -6.06629e-21)
(-0.0776129 0.0083768 -8.8751e-21)
(-0.0878018 0.0077914 -1.73445e-21)
(-0.0974445 0.00763818 3.93167e-21)
(-0.00164925 0.0051047 6.64574e-22)
(-0.00761086 0.011711 4.90277e-21)
(-0.0179657 0.0155561 1.15523e-20)
(-0.0299135 0.0173341 -1.0454e-20)
(-0.0424075 0.0175824 -2.35878e-21)
(-0.0546145 0.0168233 -2.14658e-21)
(-0.0659792 0.0155552 1.09619e-20)
(-0.0763276 0.0142562 6.81738e-21)
(-0.0857184 0.0133558 1.66322e-21)
(-0.0943555 0.0132165 -1.21838e-20)
(-0.00208893 0.00704794 2.35598e-21)
(-0.00852405 0.0162053 -2.87843e-21)
(-0.0189744 0.0215647 -2.1519e-20)
(-0.0307503 0.0240637 1.90375e-21)
(-0.0428469 0.0244336 5.90394e-21)
(-0.0544557 0.0233898 -4.58943e-21)
(-0.0650232 0.0216215 -2.38357e-22)
(-0.0743705 0.0198022 -1.86246e-21)
(-0.0825561 0.0185602 4.22339e-21)
(-0.0896402 0.0184436 1.21517e-20)
(-0.00266029 0.00888881 1.63846e-21)
(-0.00971341 0.0204755 -9.24461e-21)
(-0.0202885 0.0272826 2.22291e-20)
(-0.0318358 0.030466 -1.0107e-20)
(-0.0434048 0.0309344 -4.1833e-23)
(-0.0542181 0.0295815 1.39627e-20)
(-0.0637232 0.027275 -6.41122e-21)
(-0.071729 0.0248825 7.2889e-22)
(-0.0783011 0.0232539 -2.63082e-21)
(-0.0832377 0.0231596 9.55271e-22)
(-0.00335156 0.010604 1.95725e-20)
(-0.011156 0.0244674 2.37651e-20)
(-0.0218824 0.0326366 -6.08032e-21)
(-0.0331447 0.0364569 1.1599e-20)
(-0.0440566 0.0369949 3.64545e-21)
(-0.053879 0.035303 -5.20364e-21)
(-0.0620567 0.0324101 -2.00548e-21)
(-0.0683748 0.0293725 -8.72203e-21)
(-0.0729272 0.027286 1.88988e-21)
(-0.0750536 0.0271908 -1.1274e-20)
(-0.00414912 0.0121744 -1.88636e-20)
(-0.012824 0.0281341 -1.23844e-20)
(-0.0237231 0.0375614 1.00968e-20)
(-0.0346414 0.0419605 -1.74769e-20)
(-0.0447649 0.042534 1.99374e-21)
(-0.0533984 0.0404697 2.04774e-20)
(-0.0599801 0.0369345 -3.68981e-21)
(-0.0642513 0.0331609 2.41434e-20)
(-0.0663832 0.0305106 -4.94823e-22)
(-0.0649445 0.0303487 -9.83198e-21)
(-0.00503803 0.0135852 1.58102e-20)
(-0.0146851 0.0314362 -2.85939e-20)
(-0.0257698 0.0419997 -1.13751e-20)
(-0.0362779 0.0469089 1.33336e-20)
(-0.0454735 0.0474802 4.49131e-22)
(-0.0527105 0.0450105 -3.84335e-20)
(-0.0574158 0.0407751 -2.28286e-21)
(-0.0592554 0.0361607 -1.90479e-20)
(-0.0585747 0.0328003 -2.45482e-20)
(-0.0526995 0.0324495 1.45018e-20)
(-0.00600265 0.0148262 -8.83214e-21)
(-0.0167032 0.0343422 4.26451e-21)
(-0.0279725 0.0459028 1.05002e-20)
(-0.0379904 0.0512431 -9.39814e-21)
(-0.046102 0.0517724 -3.29722e-20)
(-0.0517135 0.0488693 1.13508e-20)
(-0.0542354 0.0438822 1.64351e-21)
(-0.0532097 0.0383201 2.86385e-20)
(-0.0493258 0.0340664 3.76587e-20)
(-0.0380364 0.0334202 -1.69977e-20)
(-0.00702707 0.015891 1.3912e-20)
(-0.0188382 0.0368276 1.26744e-20)
(-0.0302713 0.0492294 -1.81895e-21)
(-0.0396968 0.0549118 4.67957e-20)
(-0.0465392 0.0553595 1.98886e-20)
(-0.0502575 0.0520056 1.49252e-20)
(-0.0502405 0.0462324 2.11763e-20)
(-0.0458257 0.0396259 -9.30202e-21)
(-0.0382588 0.0342261 -1.2582e-20)
(-0.0206038 0.0334642 -2.07605e-20)
(-0.00809555 0.016777 -1.29514e-21)
(-0.0210467 0.0388743 -2.0027e-20)
(-0.0325955 0.0519451 -1.44231e-20)
(-0.0412929 0.0578707 -2.31195e-20)
(-0.0466367 0.0581985 -1.83052e-20)
(-0.0481339 0.0543935 1.84725e-20)
(-0.0451486 0.0478325 -1.77337e-20)
(-0.0367132 0.0401204 -1.22632e-20)
(-0.024588 0.0331057 1.60768e-21)
(0.000345874 0.0326456 5.44128e-21)
(-0.0091928 0.0174843 -3.83479e-20)
(-0.0232816 0.0404697 1.8325e-20)
(-0.0348624 0.0540214 1.33639e-20)
(-0.0426497 0.0600802 8.94997e-21)
(-0.046203 0.0602522 -1.63043e-20)
(-0.0450623 0.0560198 -1.37779e-20)
(-0.0385686 0.0487266 1.99485e-20)
(-0.0254823 0.0399738 -1.62714e-20)
(-0.00751226 0.0309442 -9.49765e-22)
(0.0263644 0.030756 -1.70751e-20)
(-0.0103042 0.0180155 3.21318e-20)
(-0.025492 0.0416053 1.30763e-20)
(-0.0369756 0.0554338 7.67005e-22)
(-0.0436107 0.0615045 -1.63098e-20)
(-0.0449972 0.0614859 1.14941e-21)
(-0.0406786 0.0568761 1.81572e-20)
(-0.0299185 0.0489756 -5.16161e-21)
(-0.0113574 0.0393098 -6.30592e-21)
(0.013618 0.0282703 -1.42663e-20)
(0.0589003 0.0280949 2.6005e-20)
(-0.0114159 0.0183751 2.17666e-20)
(-0.0276229 0.0422761 -3.52968e-20)
(-0.0388244 0.0561621 -2.72339e-20)
(-0.043989 0.062111 1.17735e-20)
(-0.0427276 0.0618655 2.40307e-20)
(-0.0345485 0.0569482 2.04224e-20)
(-0.018568 0.0486193 -2.1724e-20)
(0.00671859 0.0382361 4.21151e-20)
(0.0401277 0.0253842 -1.26994e-20)
(0.0994064 0.0256997 -3.05572e-20)
(-0.0125144 0.0185685 -3.26732e-20)
(-0.0296137 0.0424798 1.96839e-20)
(-0.0402805 0.0561905 -9.46657e-21)
(-0.0435641 0.0618721 9.95706e-22)
(-0.0390457 0.061361 1.01395e-20)
(-0.0261448 0.0562264 -3.22146e-20)
(-0.0037617 0.0477266 2.86219e-20)
(0.029792 0.0370266 -2.78647e-20)
(0.0737127 0.0225723 4.47714e-20)
(0.149453 0.0248261 1.62383e-20)
(-0.0135862 0.018602 6.95048e-21)
(-0.0313961 0.0422167 3.83282e-20)
(-0.041195 0.0555092 -9.66354e-21)
(-0.0420777 0.06077 9.76862e-21)
(-0.0335437 0.059952 1.1406e-20)
(-0.0148539 0.054705 -3.43497e-21)
(0.0153948 0.0463534 2.46012e-20)
(0.0590005 0.0358962 1.24825e-21)
(0.116243 0.020288 -2.86986e-20)
(0.210153 0.0267667 3.87571e-20)
(-0.0146168 0.0184817 -1.85556e-20)
(-0.0328908 0.0414889 -3.634e-20)
(-0.0413937 0.0541191 3.15326e-20)
(-0.0392267 0.0588031 1.58351e-20)
(-0.0257478 0.0576405 -7.34058e-20)
(2.23881e-05 0.0524024 5.98982e-20)
(0.0398955 0.044576 -5.4134e-20)
(0.0955274 0.0349936 8.58133e-22)
(0.169645 0.0191913 -1.22273e-20)
(0.281323 0.0326439 -3.58754e-20)
(-0.0155895 0.0182128 1.61089e-20)
(-0.0340029 0.0403014 -2.20405e-21)
(-0.0406714 0.0520343 -7.74222e-21)
(-0.0346562 0.0559946 -8.87975e-22)
(-0.0151096 0.0544687 -4.61128e-21)
(0.0192716 0.0493897 -1.90753e-20)
(0.0708131 0.0425317 8.1304e-21)
(0.140571 0.0344312 -1.28397e-20)
(0.235617 0.0204079 3.87576e-21)
(0.360509 0.0434282 1.14967e-21)
(-0.0164839 0.0177991 -3.29039e-20)
(-0.0346207 0.0386659 -2.40278e-21)
(-0.0387806 0.0492815 3.61256e-21)
(-0.0279515 0.0524017 1.47963e-21)
(-0.00100033 0.0505373 2.40791e-20)
(0.0437691 0.0458212 -7.02636e-20)
(0.109264 0.0404459 4.73734e-20)
(0.195427 0.034313 -3.5556e-20)
(0.315334 0.025684 2.98086e-20)
(0.443147 0.0591281 3.2746e-20)
(-0.0172688 0.0172403 -4.02747e-21)
(-0.0346103 0.0365953 1.83253e-20)
(-0.0354326 0.0459058 -2.30014e-20)
(-0.0186325 0.0481267 -7.20313e-21)
(0.0172847 0.0460215 1.38934e-20)
(0.0744462 0.0419587 6.68496e-20)
(0.156278 0.0386423 -1.3424e-20)
(0.261382 0.0348972 6.52419e-21)
(0.408752 0.0365873 -3.45742e-20)
(0.527053 0.0740348 1.61109e-20)
(-0.0179001 0.0165329 -1.20878e-20)
(-0.0338036 0.0341045 -9.40783e-21)
(-0.0302935 0.0419772 2.33256e-21)
(-0.00615829 0.0433196 9.07714e-21)
(0.0405081 0.0411817 -2.6903e-20)
(0.112232 0.0381946 -1.08867e-20)
(0.212605 0.0375772 -3.42546e-20)
(0.338958 0.0369461 3.52849e-20)
(0.511668 0.0519565 3.7145e-20)
(0.619089 0.0750767 -1.55074e-20)
(-0.0183234 0.0156732 -5.8004e-21)
(-0.0319984 0.0312122 2.34819e-20)
(-0.0229807 0.0375869 -2.6232e-20)
(0.0100639 0.0381795 -3.07494e-21)
(0.069457 0.0363644 -1.23701e-20)
(0.157973 0.0350592 2.69155e-20)
(0.278646 0.037896 3.47067e-20)
(0.427299 0.0417494 -3.33064e-20)
(0.614256 0.0649856 3.5478e-20)
(0.745273 0.0723473 5.06815e-21)
(-0.0184704 0.0146532 -1.68126e-20)
(-0.0289614 0.0279428 -4.75743e-20)
(-0.0130698 0.0328499 4.64028e-20)
(0.0306572 0.0329533 6.66547e-21)
(0.104888 0.0319906 9.72943e-21)
(0.212311 0.0331817 5.91537e-21)
(0.354317 0.0403467 2.65466e-20)
(0.523971 0.0501954 1.95769e-20)
(0.718437 0.0779981 -6.89062e-20)
(0.865548 0.0863965 -3.43831e-20)
(-0.0182549 0.013463 -5.74124e-20)
(-0.0244296 0.0243314 1.15236e-20)
(-0.000107975 0.0279069 -2.63153e-20)
(0.0562405 0.0279315 5.10045e-21)
(0.147446 0.0285363 8.16688e-21)
(0.275506 0.0332247 -5.8726e-20)
(0.438755 0.0456403 2.59444e-20)
(0.625487 0.0623049 -1.75632e-20)
(0.821288 0.093116 1.83358e-20)
(0.969582 0.104914 -6.57708e-21)
(-0.0175747 0.0120961 2.08298e-20)
(-0.0181146 0.0204282 2.25568e-20)
(0.0163678 0.0229274 -1.33625e-21)
(0.087384 0.0234453 -7.18472e-21)
(0.197572 0.0265129 2.44168e-22)
(0.347269 0.0358122 5.38567e-22)
(0.530064 0.0542638 -3.94611e-20)
(0.727821 0.0775593 5.07915e-21)
(0.917791 0.110123 4.94603e-20)
(1.05792 0.12407 2.27581e-20)
(-0.0163145 0.0105525 -1.41568e-20)
(-0.00971086 0.016305 -1.04181e-20)
(0.0368086 0.018116 4.49551e-20)
(0.124556 0.0198656 1.14749e-21)
(0.255391 0.0264442 -1.88253e-20)
(0.426622 0.0414511 5.04152e-20)
(0.625372 0.066336 1.11265e-20)
(0.826742 0.0951925 7.40234e-22)
(1.00425 0.128114 -2.15997e-20)
(1.12895 0.142581 -2.86845e-20)
(-0.0143483 0.00884294 2.98137e-20)
(0.00109293 0.0120628 -8.22485e-21)
(0.0616271 0.0137177 -4.92537e-21)
(0.168066 0.0176003 -1.87011e-20)
(0.320611 0.0288362 3.05459e-20)
(0.511849 0.0504481 -1.4901e-20)
(0.721204 0.0815607 -1.6856e-20)
(0.918531 0.114329 -3.90357e-21)
(1.07836 0.146189 -1.25232e-20)
(1.184 0.159605 1.39186e-20)
(-0.0115432 0.00699244 -1.09487e-20)
(0.0146003 0.00783828 -6.53537e-20)
(0.0911669 0.0100222 6.76388e-21)
(0.218006 0.0170869 2.33635e-20)
(0.392448 0.0341308 1.66684e-20)
(0.600576 0.0628432 -5.56035e-20)
(0.814031 0.0993218 3.5777e-20)
(1.00051 0.134122 -1.63074e-20)
(1.13946 0.163659 2.48896e-20)
(1.22506 0.174957 6.97024e-21)
(-0.00776432 0.00504309 -1.21128e-20)
(0.0310917 0.00380874 2.31506e-20)
(0.125669 0.00736449 3.03104e-20)
(0.274188 0.0187738 -2.16298e-20)
(0.469593 0.0426443 8.04389e-21)
(0.690036 0.0783941 -4.90382e-20)
(0.900812 0.118859 -9.03121e-21)
(1.07124 0.153882 7.8031e-21)
(1.18807 0.18013 -1.89598e-20)
(1.25452 0.188693 -1.95148e-20)
(-0.00287958 0.00305612 -1.57603e-20)
(0.0508069 0.000193872 -5.40561e-21)
(0.165237 0.00611887 -5.51138e-20)
(0.336099 0.0230889 -8.63716e-21)
(0.550275 0.0545094 -8.91623e-22)
(0.777426 0.0966347 2.93355e-21)
(0.979341 0.139435 4.98434e-21)
(1.13037 0.173128 -2.46229e-20)
(1.22543 0.195446 4.43354e-22)
(1.27472 0.20104 1.34551e-20)
(0.00323485 0.00111244 -4.16315e-21)
(0.073926 -0.00274593 1.91744e-20)
(0.209802 0.00668611 2.69928e-20)
(0.402878 0.0303954 1.68692e-20)
(0.632407 0.069649 -4.94427e-21)
(0.860268 0.116982 -4.16469e-21)
(1.04834 0.160436 4.1213e-20)
(1.17836 0.191579 5.65509e-21)
(1.25314 0.209626 1.87219e-20)
(1.28774 0.212275 -8.1494e-21)
(0.0106877 -0.000687031 3.98276e-20)
(0.10055 -0.00471444 2.55717e-20)
(0.259093 0.0094727 -2.59207e-20)
(0.473333 0.0409452 -5.1528e-21)
(0.713812 0.0877973 2.73499e-21)
(0.936645 0.138842 -9.87579e-21)
(1.10734 0.18141 -2.12785e-20)
(1.2162 0.209118 -3.46956e-21)
(1.27282 0.22279 2.48615e-22)
(1.2953 0.222682 8.82185e-21)
(0.0195655 -0.00222324 5.07372e-21)
(0.130683 -0.00538941 -1.40117e-20)
(0.312621 0.0148628 3.31843e-20)
(0.546012 0.0548446 2.15396e-20)
(0.792448 0.108561 7.36964e-22)
(1.00529 0.161689 1.52417e-20)
(1.15653 0.202059 2.20878e-21)
(1.24511 0.225743 -1.62158e-20)
(1.286 0.235111 1.37828e-20)
(1.29875 0.232511 -3.2297e-23)
(0.0299266 -0.00336165 -3.31719e-20)
(0.164215 -0.00443489 -9.73722e-21)
(0.369676 0.0231863 -8.72777e-21)
(0.619315 0.0720455 -1.51831e-20)
(0.866593 0.131488 3.65212e-21)
(1.06553 0.185092 8.34486e-23)
(1.19649 0.222211 1.18485e-20)
(1.26636 0.241527 -1.91801e-21)
(1.29401 0.246778 -1.41953e-20)
(1.29913 0.24197 -1.32805e-20)
(0.0417943 -0.00395566 2.72213e-21)
(0.200911 -0.00151701 1.58734e-20)
(0.429348 0.0346883 7.70869e-21)
(0.69163 0.0923641 -2.39209e-20)
(0.93493 0.156129 -1.16012e-21)
(1.11722 0.208723 -1.03108e-20)
(1.22806 0.241789 2.62591e-22)
(1.28118 0.256583 4.80818e-21)
(1.29793 0.257968 -5.34908e-21)
(1.29719 0.251218 1.49314e-20)
(0.0551508 -0.00385118 6.46805e-21)
(0.240409 0.00367779 -1.56335e-20)
(0.490579 0.0495067 -3.67863e-20)
(0.761456 0.115517 3.37999e-20)
(0.996572 0.182069 -2.5129e-21)
(1.16053 0.232343 7.42486e-21)
(1.25217 0.26078 -1.03269e-21)
(1.29066 0.271036 7.1435e-21)
(1.29862 0.268835 -5.41437e-22)
(1.29345 0.260366 -1.15666e-20)
(0.0699332 -0.00289222 -1.32367e-20)
(0.282221 0.0114236 2.04658e-20)
(0.552217 0.0676631 1.67711e-20)
(0.827495 0.141161 -2.42232e-20)
(1.05101 0.208945 -4.04086e-21)
(1.19592 0.255787 1.52199e-21)
(1.26973 0.27921 1.53303e-20)
(1.29573 0.285008 7.5913e-22)
(1.29674 0.279497 2.9413e-21)
(1.28827 0.26948 -6.34439e-21)
(0.0860307 -0.000927142 1.00473e-20)
(0.325748 0.0219367 -8.98464e-21)
(0.613091 0.0890666 -7.68134e-21)
(0.888701 0.168923 1.30885e-20)
(1.09805 0.236442 4.49361e-21)
(1.22395 0.278942 3.39842e-21)
(1.28162 0.297125 -1.56347e-20)
(1.29716 0.298603 -5.30882e-21)
(1.29277 0.290041 -4.7221e-21)
(1.28188 0.278593 2.09163e-21)
(0.103285 0.00218458 -5.07714e-21)
(0.370301 0.0353605 -1.12464e-22)
(0.672075 0.113528 1.45515e-20)
(0.944293 0.198424 -5.30003e-21)
(1.13773 0.264293 -2.35965e-21)
(1.24525 0.301731 -1.54458e-21)
(1.28861 0.314573 3.78498e-21)
(1.29554 0.311904 6.48134e-21)
(1.28708 0.300517 -2.02899e-22)
(1.27445 0.287707 2.31946e-21)
(0.121491 0.00656528 3.5856e-21)
(0.415127 0.0517546 -1.00453e-21)
(0.728141 0.140777 -2.61842e-21)
(0.993734 0.229294 -2.36825e-21)
(1.17027 0.292269 2.12404e-21)
(1.26046 0.324099 1.64502e-21)
(1.29137 0.331594 -1.51047e-21)
(1.29136 0.324964 5.37268e-22)
(1.27988 0.310944 7.48003e-22)
(1.26605 0.296799 -9.83452e-22)
(0.140403 0.0123124 1.95904e-21)
(0.459447 0.0710908 5.53023e-22)
(0.780397 0.170485 -3.29134e-21)
(1.03671 0.261172 -2.61558e-21)
(1.19599 0.320169 2.70983e-21)
(1.27019 0.345999 5.28033e-22)
(1.29046 0.348214 -1.19589e-21)
(1.28497 0.337808 1.11504e-21)
(1.27135 0.321311 6.09174e-22)
(1.25675 0.305829 -6.84245e-22)
(0.159742 0.0194925 -7.60095e-22)
(0.502481 0.0932534 1.54375e-21)
(0.828103 0.202278 1.01965e-20)
(1.07306 0.293713 -4.52502e-21)
(1.21525 0.347812 -2.17925e-21)
(1.275 0.367386 -2.42441e-21)
(1.28634 0.364439 4.90979e-21)
(1.27665 0.350435 3.21471e-21)
(1.2616 0.331583 2.52011e-21)
(1.24658 0.314744 1.33748e-21)
(0.179199 0.0281362 1.58292e-20)
(0.543481 0.118045 -8.6263e-21)
(0.870682 0.235754 -9.7257e-21)
(1.1028 0.326586 1.31764e-20)
(1.22848 0.375031 6.86111e-21)
(1.27537 0.388209 -4.4303e-22)
(1.27938 0.380255 -8.14296e-21)
(1.26657 0.362817 -5.79391e-21)
(1.25069 0.341705 -5.83122e-21)
(1.23556 0.323481 3.35929e-21)
(0.198453 0.0382356 -2.14485e-20)
(0.58176 0.145195 2.00255e-20)
(0.907708 0.270492 2.29575e-20)
(1.12602 0.359472 -2.24237e-20)
(1.23608 0.401664 -7.65108e-21)
(1.27176 0.408408 4.79481e-21)
(1.26988 0.395624 8.52629e-21)
(1.25489 0.374903 1.28115e-21)
(1.23867 0.351599 -1.69649e-22)
(1.22371 0.331968 -4.45751e-21)
(0.217174 0.0497423 -3.12567e-21)
(0.616705 0.174371 -2.82786e-20)
(0.938894 0.306064 -3.00948e-20)
(1.14291 0.392067 3.33921e-20)
(1.23848 0.427556 -3.75743e-21)
(1.26454 0.42791 6.63097e-21)
(1.25807 0.410493 1.22595e-21)
(1.24169 0.386621 -3.53842e-21)
(1.22555 0.361171 1.88224e-21)
(1.211 0.340118 -1.32476e-22)
(0.235036 0.062568 6.31877e-21)
(0.647796 0.20519 1.75771e-20)
(0.964083 0.342038 9.87746e-21)
(1.1537 0.424074 -7.77397e-21)
(1.23605 0.45255 -1.18033e-20)
(1.25404 0.44663 -1.0697e-20)
(1.24415 0.424789 -2.07856e-21)
(1.22706 0.397892 5.19784e-21)
(1.21134 0.37033 -1.08069e-21)
(1.19734 0.347847 2.4341e-21)
(0.251726 0.0765866 -2.3993e-20)
(0.674607 0.237232 -2.2142e-20)
(0.983225 0.377985 -3.47001e-21)
(1.15868 0.455208 -3.9172e-21)
(1.22916 0.476488 -8.57809e-21)
(1.24055 0.464471 5.05891e-21)
(1.22827 0.438428 -9.41088e-22)
(1.21105 0.408635 -4.52456e-21)
(1.19602 0.379021 4.06506e-21)
(1.18256 0.35509 -5.18776e-21)
(0.266953 0.0916377 5.70563e-21)
(0.696819 0.270048 1.8766e-20)
(0.99636 0.413482 1.61119e-20)
(1.15815 0.485196 1.72817e-20)
(1.21818 0.49921 4.53602e-22)
(1.22432 0.481323 1.40518e-20)
(1.21056 0.451308 7.1092e-22)
(1.19372 0.418757 -1.48574e-20)
(1.17965 0.387242 1.00659e-20)
(1.16667 0.361789 3.6579e-21)
(0.280455 0.107531 1.55901e-20)
(0.714213 0.303179 3.44757e-20)
(1.00361 0.448118 -4.53701e-21)
(1.15244 0.513771 -2.16982e-20)
(1.20343 0.520553 9.58849e-21)
(1.20557 0.497068 -9.57921e-21)
(1.19113 0.463313 -1.17987e-20)
(1.17515 0.428137 -4.88882e-22)
(1.16226 0.39494 -7.72118e-21)
(1.15011 0.367817 2.71663e-21)
(0.292006 0.124049 7.24655e-21)
(0.726666 0.336161 5.23511e-21)
(1.00515 0.481497 4.21385e-20)
(1.14188 0.540681 7.59371e-21)
(1.18521 0.540358 -6.38239e-21)
(1.18449 0.511579 -3.20641e-21)
(1.1701 0.474319 1.73073e-20)
(1.15545 0.436671 1.3214e-20)
(1.14384 0.40188 6.08165e-21)
(1.13299 0.373221 -6.13368e-22)
(0.301423 0.140958 1.45876e-21)
(0.734141 0.368536 -3.51546e-20)
(1.00122 0.513242 -4.93867e-20)
(1.12683 0.565683 1.27761e-21)
(1.16381 0.558471 8.79164e-21)
(1.16126 0.524721 -1.18639e-20)
(1.14767 0.4842 -2.40733e-20)
(1.13463 0.444257 -6.52524e-21)
(1.12441 0.407966 -3.1728e-22)
(1.11521 0.377811 1.32607e-21)
(0.308563 0.158007 -1.24945e-20)
(0.736678 0.39986 3.10891e-20)
(0.992102 0.542991 2.94597e-20)
(1.10764 0.588552 -2.59877e-20)
(1.13953 0.574744 4.03939e-21)
(1.13616 0.53635 2.62409e-20)
(1.12391 0.492829 -4.27798e-21)
(1.11269 0.450799 3.75345e-21)
(1.10411 0.413082 -6.99178e-22)
(1.09677 0.381504 -6.45862e-22)
(0.313329 0.174943 -2.7858e-20)
(0.734394 0.429712 -4.90617e-20)
(0.978136 0.570411 -9.45155e-21)
(1.08465 0.609058 1.50736e-20)
(1.11265 0.589 1.33286e-20)
(1.10934 0.546354 -2.52059e-20)
(1.09886 0.500082 1.18043e-20)
(1.08977 0.456174 -3.6947e-21)
(1.08301 0.417136 1.43568e-21)
(1.07771 0.384215 6.3036e-22)
(0.315673 0.191512 2.13165e-20)
(0.727496 0.457697 1.73603e-21)
(0.959736 0.595237 -4.66663e-21)
(1.05815 0.626966 -1.7632e-20)
(1.08342 0.601079 9.68094e-21)
(1.08096 0.554574 2.97165e-21)
(1.0727 0.505855 -4.58063e-21)
(1.06597 0.460279 2.33837e-21)
(1.06119 0.420029 9.00239e-22)
(1.05811 0.385867 -2.61141e-21)
(0.315597 0.207454 -5.59937e-21)
(0.71628 0.483425 -7.32323e-21)
(0.937277 0.617261 1.91821e-20)
(1.02839 0.642078 8.61128e-21)
(1.05213 0.610793 -1.0772e-20)
(1.05119 0.560881 1.04457e-20)
(1.04555 0.51003 1.70041e-21)
(1.04138 0.463015 2.91653e-21)
(1.03872 0.42166 6.41656e-21)
(1.03806 0.386366 1.01629e-21)
(0.313165 0.222512 3.57317e-20)
(0.701073 0.506541 2.72572e-20)
(0.910792 0.636081 -2.68402e-21)
(0.995921 0.654395 -3.30013e-21)
(1.0191 0.617989 -3.94759e-21)
(1.02026 0.56515 -1.53481e-21)
(1.01756 0.512504 2.96479e-21)
(1.01613 0.464294 8.84982e-23)
(1.01569 0.421933 -5.7311e-21)
(1.01761 0.385614 -6.79262e-21)
(0.308461 0.236429 1.9236e-21)
(0.682085 0.526912 4.08756e-21)
(0.880605 0.65135 -2.20548e-20)
(0.961235 0.663611 8.62885e-21)
(0.984587 0.622655 -1.11061e-21)
(0.98834 0.567286 3.95837e-21)
(0.988875 0.513179 -4.58165e-22)
(0.9903 0.464039 1.23178e-21)
(0.992231 0.420776 -5.55762e-21)
(0.997016 0.383554 8.16824e-21)
(0.301561 0.248888 -1.36537e-20)
(0.659503 0.544175 -8.99041e-21)
(0.847559 0.663203 5.36141e-21)
(0.924606 0.66952 -4.17759e-22)
(0.948841 0.624655 -3.86638e-21)
(0.955632 0.567196 1.05116e-21)
(0.959617 0.51196 3.56555e-21)
(0.964005 0.462155 -1.56919e-20)
(0.968584 0.418119 3.27569e-20)
(0.976891 0.380212 1.23626e-20)
(0.292539 0.259668 -9.51874e-21)
(0.633644 0.55788 1.91483e-20)
(0.812102 0.671403 -1.01637e-20)
(0.886353 0.672111 -2.70672e-21)
(0.912125 0.623901 1.39729e-21)
(0.922318 0.5648 -5.40328e-21)
(0.929901 0.508762 -1.2137e-20)
(0.937357 0.458502 6.28235e-21)
(0.94515 0.413767 -2.72579e-21)
(0.957921 0.375626 -6.1047e-21)
(0.281621 0.268627 -1.75956e-21)
(0.605058 0.567892 -5.99062e-21)
(0.774573 0.675757 6.65983e-22)
(0.846823 0.671311 1.4667e-21)
(0.874702 0.620324 9.00851e-21)
(0.888583 0.560042 6.53796e-21)
(0.899849 0.503531 2.14203e-20)
(0.910538 0.452975 -1.51747e-20)
(0.922272 0.407342 -2.87168e-20)
(0.939401 0.369155 1.14316e-20)
(0.269017 0.275655 -2.32521e-21)
(0.574182 0.574085 -3.59801e-21)
(0.735388 0.676134 1.25614e-21)
(0.806368 0.667065 1.21299e-20)
(0.836841 0.61388 -1.73534e-20)
(0.854621 0.552887 -2.55475e-20)
(0.869644 0.496264 -7.93333e-21)
(0.883812 0.445687 -1.14438e-21)
(0.89994 0.399028 3.63582e-20)
(0.918598 0.357084 -8.6432e-21)
(0.254915 0.280598 5.91947e-21)
(0.541456 0.576349 -3.28846e-21)
(0.694973 0.672468 -1.02663e-21)
(0.76534 0.659333 3.00396e-22)
(0.798808 0.604539 -9.95259e-21)
(0.820648 0.543304 4.66894e-20)
(0.839536 0.486926 -3.1575e-20)
(0.857393 0.436718 3.78079e-20)
(0.877103 0.390687 -2.67499e-20)
(0.895436 0.350203 -3.49118e-20)
(0.239548 0.283334 -3.39644e-21)
(0.507316 0.574607 6.16816e-22)
(0.653755 0.664733 -2.45991e-22)
(0.724087 0.648105 1.59398e-20)
(0.760869 0.59229 -5.7104e-21)
(0.786886 0.531269 8.93532e-21)
(0.809731 0.47546 1.87949e-20)
(0.831315 0.425797 -9.90213e-21)
(0.854154 0.380204 -2.4472e-20)
(0.873462 0.339948 3.4314e-20)
(0.223165 0.283779 1.36342e-20)
(0.472193 0.568816 1.85372e-20)
(0.612155 0.652937 -1.70272e-20)
(0.682952 0.633393 -1.54298e-20)
(0.723291 0.577142 5.06303e-20)
(0.753553 0.51679 -5.13296e-20)
(0.780377 0.461906 6.08459e-20)
(0.805592 0.413135 -1.5551e-20)
(0.831278 0.368522 1.664e-20)
(0.852193 0.329364 3.04045e-20)
(0.206021 0.281876 -5.49576e-21)
(0.436517 0.558972 -1.72655e-20)
(0.570587 0.63712 -9.10803e-21)
(0.64227 0.615239 -5.56401e-21)
(0.686338 0.559124 5.17378e-21)
(0.720868 0.499885 -1.26301e-20)
(0.751646 0.446267 -1.82981e-20)
(0.780384 0.398668 -3.89685e-20)
(0.808808 0.355276 3.85768e-20)
(0.831718 0.317401 -1.28446e-20)
(0.188377 0.277596 2.9254e-20)
(0.40071 0.545109 -3.14696e-21)
(0.52945 0.617348 -1.27582e-20)
(0.602366 0.593706 1.70839e-20)
(0.650267 0.538287 -3.11018e-20)
(0.689038 0.480593 8.18295e-20)
(0.723702 0.428585 -4.3646e-20)
(0.755853 0.382469 3.97243e-20)
(0.786954 0.340601 -7.33873e-20)
(0.812064 0.304197 -1.94838e-20)
(0.170492 0.27094 -1.01068e-20)
(0.365186 0.527298 3.10949e-20)
(0.489133 0.593723 7.59051e-21)
(0.563556 0.568884 -1.56527e-20)
(0.61533 0.514701 -2.69423e-20)
(0.658269 0.458971 -1.36913e-21)
(0.696716 0.408906 1.45866e-20)
(0.732159 0.364565 -3.54463e-20)
(0.765871 0.324474 1.78048e-20)
(0.793278 0.289686 2.39221e-21)
(0.152624 0.261936 -4.97218e-20)
(0.330345 0.505646 -1.23938e-20)
(0.450007 0.56637 -3.27759e-21)
(0.526141 0.540885 3.96515e-20)
(0.581769 0.488457 -3.67259e-20)
(0.628761 0.435093 -9.82335e-21)
(0.670857 0.387294 -5.85382e-21)
(0.709459 0.345014 1.10562e-20)
(0.745696 0.306931 -1.38449e-20)
(0.77543 0.2739 -2.18111e-20)
(0.135024 0.250641 4.32071e-20)
(0.296571 0.480292 -2.44934e-20)
(0.412427 0.535446 1.35308e-21)
(0.490411 0.509845 -5.97863e-20)
(0.549816 0.459664 6.49899e-20)
(0.600704 0.409048 -2.06792e-20)
(0.646289 0.363827 1.24484e-20)
(0.687897 0.323876 1.08595e-20)
(0.726551 0.288015 3.16872e-20)
(0.758596 0.256882 -1.28795e-20)
(0.117936 0.237134 -1.76862e-20)
(0.264231 0.451408 5.05788e-20)
(0.376729 0.501131 2.85307e-20)
(0.456637 0.475919 4.65799e-20)
(0.51969 0.42845 -1.09665e-20)
(0.574283 0.380945 4.31869e-21)
(0.623167 0.338595 3.5434e-20)
(0.667611 0.301226 7.86625e-21)
(0.708551 0.267784 7.48249e-22)
(0.74285 0.238695 -1.53901e-20)
(0.101592 0.221521 -3.97571e-20)
(0.233669 0.419196 -3.01636e-21)
(0.343225 0.463633 -1.66283e-20)
(0.425076 0.439286 -7.458e-20)
(0.4916 0.394962 -7.23366e-20)
(0.549671 0.350906 1.21258e-20)
(0.601641 0.311703 -3.00168e-20)
(0.648728 0.277151 1.91923e-20)
(0.691804 0.24631 1.05274e-20)
(0.728269 0.219415 2.22413e-20)
(0.0862113 0.20393 5.78572e-20)
(0.205203 0.383886 -4.74242e-20)
(0.312208 0.423181 -2.41072e-20)
(0.395963 0.400141 4.3048e-20)
(0.465738 0.359364 4.90145e-20)
(0.52703 0.319068 -1.62248e-20)
(0.581849 0.283269 -2.04185e-21)
(0.631367 0.25175 -5.97256e-20)
(0.676413 0.223677 -3.39866e-20)
(0.714924 0.199125 1.30728e-20)
(0.0719963 0.18451 -3.28205e-20)
(0.17913 0.345733 1.3875e-20)
(0.283942 0.380026 5.09656e-20)
(0.369517 0.358699 -2.28133e-20)
(0.442282 0.321832 1.74302e-21)
(0.506509 0.285582 6.54303e-20)
(0.563917 0.253421 3.06897e-21)
(0.615639 0.225132 5.7041e-20)
(0.662473 0.199981 2.39809e-20)
(0.702882 0.177915 -3.835e-20)
(0.0591327 0.16343 4.51491e-20)
(0.155714 0.305016 4.93421e-21)
(0.25867 0.334438 3.2474e-21)
(0.345935 0.31519 4.65831e-20)
(0.421394 0.28256 -6.26686e-21)
(0.488245 0.250612 -4.09805e-20)
(0.547963 0.222299 2.02192e-20)
(0.601645 0.197415 -3.23785e-20)
(0.650071 0.175326 -1.36365e-20)
(0.692204 0.155885 1.39421e-20)
(0.0477868 0.140875 -2.81723e-20)
(0.135193 0.262033 -5.41618e-20)
(0.236603 0.286707 1.25039e-20)
(0.325389 0.269859 -2.45994e-20)
(0.403215 0.241754 -1.49738e-20)
(0.472358 0.214332 3.6391e-20)
(0.534088 0.190052 -8.82358e-21)
(0.589474 0.16873 8.26809e-21)
(0.639287 0.149824 -1.01283e-20)
(0.682946 0.133134 2.01382e-20)
(0.0381039 0.117046 1.01387e-20)
(0.117773 0.217102 3.64119e-20)
(0.217926 0.237135 -5.06394e-20)
(0.308033 0.222965 2.40657e-20)
(0.387872 0.19963 -1.1e-20)
(0.458953 0.176926 -3.11461e-20)
(0.522385 0.15684 2.5554e-20)
(0.579207 0.13921 5.44305e-21)
(0.63019 0.123594 -8.05029e-22)
(0.675156 0.109771 -2.34662e-20)
(0.030207 0.0921564 3.31442e-21)
(0.103625 0.170556 1.17048e-20)
(0.202796 0.186039 4.57882e-20)
(0.293992 0.174776 -8.81039e-21)
(0.37547 0.156413 -6.9742e-21)
(0.448121 0.138588 2.59355e-21)
(0.512928 0.122826 1.12025e-21)
(0.570911 0.109 9.59327e-21)
(0.622839 0.0967603 -1.26978e-20)
(0.668874 0.0859018 -8.12754e-21)
(0.0241958 0.0664308 -8.2921e-21)
(0.0928914 0.122741 -1.42413e-20)
(0.191338 0.133746 -3.55671e-20)
(0.283371 0.12557 1.79383e-20)
(0.366092 0.11234 1.46984e-20)
(0.439933 0.0995169 6.17418e-22)
(0.505781 0.088184 -2.49055e-20)
(0.56464 0.0782459 -1.11387e-20)
(0.617282 0.0694532 8.89505e-21)
(0.664134 0.0616382 9.5905e-21)
(0.020146 0.040102 1.4403e-21)
(0.0856764 0.0740118 -2.9816e-21)
(0.183646 0.0805918 6.74767e-21)
(0.276247 0.0756337 -4.59068e-21)
(0.359805 0.0676491 -4.05703e-21)
(0.434444 0.059919 -2.76223e-21)
(0.500989 0.053089 5.11745e-21)
(0.560435 0.0471011 1.96232e-20)
(0.613556 0.041805 2.86013e-21)
(0.66096 0.037092 -5.12145e-21)
(0.0181083 0.0134089 1.78219e-21)
(0.082051 0.0247312 -4.91627e-21)
(0.179784 0.0269189 -5.58552e-21)
(0.272672 0.0252562 -3.88555e-21)
(0.35665 0.0225864 3.72107e-21)
(0.43169 0.0200032 1.68688e-21)
(0.498586 0.017721 -1.68943e-21)
(0.558326 0.0157204 -7.75887e-21)
(0.611687 0.0139512 2.57092e-21)
(0.659368 0.0123758 -2.42488e-21)
(0.0181082 -0.0134059 -1.7822e-21)
(0.0820508 -0.0247335 4.9163e-21)
(0.179784 -0.0269273 5.58555e-21)
(0.272671 -0.0252684 -5.36402e-21)
(0.35665 -0.0226006 4.74123e-21)
(0.431689 -0.0200189 2.38808e-21)
(0.498585 -0.0177382 -3.83782e-21)
(0.558326 -0.0157391 -4.48998e-21)
(0.611687 -0.0139713 6.69841e-22)
(0.659368 -0.0123971 -1.89712e-21)
(0.0201456 -0.0400989 1.95492e-21)
(0.0856758 -0.0740138 -5.8558e-21)
(0.183645 -0.0806001 1.31705e-20)
(0.276246 -0.0756458 -1.15957e-20)
(0.359804 -0.0676632 -5.44754e-22)
(0.434443 -0.0599347 -7.78057e-21)
(0.500988 -0.0531062 1.27269e-20)
(0.560434 -0.0471198 1.74334e-20)
(0.613555 -0.0418251 3.14556e-21)
(0.660959 -0.0371134 -6.8076e-21)
(0.0241952 -0.0664274 -1.68799e-21)
(0.0928905 -0.122743 -1.24235e-20)
(0.191337 -0.133754 -2.89137e-20)
(0.28337 -0.125582 2.51179e-20)
(0.366091 -0.112354 5.22344e-21)
(0.439931 -0.0995325 4.63338e-21)
(0.505779 -0.0882012 -2.29075e-20)
(0.564638 -0.0782646 -1.35768e-20)
(0.61728 -0.0694733 -3.04757e-21)
(0.664133 -0.0616597 2.10363e-20)
(0.030206 -0.0921525 -5.95522e-21)
(0.103624 -0.170558 7.46117e-21)
(0.202794 -0.186046 5.25407e-20)
(0.29399 -0.174787 -4.7105e-21)
(0.375467 -0.156427 -1.35702e-20)
(0.448119 -0.138603 9.81449e-21)
(0.512926 -0.122843 6.56273e-22)
(0.570908 -0.109018 3.51018e-21)
(0.622836 -0.0967806 -7.71039e-21)
(0.668872 -0.0859233 -2.05613e-20)
(0.0381026 -0.117042 -4.03547e-21)
(0.117771 -0.217103 2.198e-20)
(0.217924 -0.237142 -5.30068e-20)
(0.30803 -0.222976 2.30695e-20)
(0.387869 -0.199643 2.06172e-22)
(0.45895 -0.176941 -2.94925e-20)
(0.522381 -0.156857 1.30789e-20)
(0.579204 -0.139229 -1.2408e-21)
(0.630187 -0.123614 5.00588e-21)
(0.675153 -0.109792 -1.54487e-21)
(0.0477851 -0.14087 -4.63573e-20)
(0.135191 -0.262032 -5.54277e-20)
(0.236599 -0.286713 1.44861e-20)
(0.325386 -0.26987 -2.64268e-20)
(0.403212 -0.241768 -7.55318e-21)
(0.472354 -0.214347 1.12139e-20)
(0.534084 -0.190069 4.17886e-21)
(0.58947 -0.168749 1.57715e-20)
(0.639283 -0.149844 -3.4e-21)
(0.682943 -0.133156 1.84897e-20)
(0.0591304 -0.163424 4.43679e-20)
(0.155711 -0.305014 2.85273e-20)
(0.258666 -0.334444 -2.17516e-20)
(0.34593 -0.3152 3.66965e-20)
(0.421389 -0.282574 -3.24196e-21)
(0.48824 -0.250627 -4.00027e-20)
(0.547958 -0.222316 7.03927e-21)
(0.60164 -0.197434 -4.29743e-20)
(0.650067 -0.175347 1.57521e-21)
(0.6922 -0.155907 1.58023e-20)
(0.0719933 -0.184503 -3.33617e-20)
(0.179126 -0.34573 5.97335e-20)
(0.283937 -0.38003 2.34279e-20)
(0.369512 -0.358709 -2.8834e-20)
(0.442277 -0.321845 1.3002e-22)
(0.506503 -0.285597 7.387e-20)
(0.563911 -0.253438 3.47178e-21)
(0.615633 -0.225151 3.31663e-20)
(0.662468 -0.200002 4.06352e-20)
(0.702877 -0.177938 -2.29236e-20)
(0.0862075 -0.203922 1.87013e-20)
(0.205198 -0.383882 -8.94504e-21)
(0.312202 -0.423184 -2.12917e-20)
(0.395957 -0.40015 1.63331e-20)
(0.465731 -0.359376 6.20903e-20)
(0.527023 -0.319083 -2.17723e-20)