/*--------------------------------*- C++ -*----------------------------------*\
  =========                 |
  \\      /  F ield         | OpenFOAM: The Open Source CFD Toolbox
   \\    /   O peration     | Website:  https://openfoam.org
    \\  /    A nd           | Version:  7
     \\/     M anipulation  |
\*---------------------------------------------------------------------------*/
FoamFile
{
    version     2.0;
    format      ascii;
    class       volScalarField;
    location    "10";
    object      p;
}
// * * * * * * * * * * * * * * * * * * * * * * * * * * * * * * * * * * * * * //

dimensions      [0 2 -2 0 0 0 0];

internalField   nonuniform List<scalar> 
2125
(
-0.485468
-0.496806
-0.472966
-0.507972
-0.482433
-0.518871
-0.491693
-0.472188
-0.529401
-0.500653
-0.480205
-0.460212
-0.539445
-0.509209
-0.487879
-0.467052
-0.446453
-0.426311
-0.548875
-0.517247
-0.495098
-0.473476
-0.452001
-0.430838
-0.409699
-0.557553
-0.524639
-0.501743
-0.479365
-0.457012
-0.434782
-0.412309
-0.389064
-0.565325
-0.531248
-0.507681
-0.484587
-0.461352
-0.438012
-0.414139
-0.389217
-0.362917
-0.340799
-0.57203
-0.536927
-0.512769
-0.489
-0.464881
-0.440392
-0.415065
-0.388432
-0.360317
-0.335366
-0.577495
-0.541521
-0.516857
-0.492455
-0.46745
-0.441776
-0.414954
-0.386597
-0.356707
-0.329138
-0.581541
-0.544866
-0.519786
-0.494793
-0.468904
-0.442019
-0.413675
-0.383603
-0.351997
-0.322031
-0.583985
-0.546796
-0.521393
-0.495855
-0.469086
-0.440971
-0.411097
-0.379339
-0.346097
-0.313963
-0.584642
-0.547141
-0.521512
-0.495477
-0.467836
-0.438486
-0.407091
-0.373701
-0.338925
-0.304856
-0.583329
-0.545729
-0.519976
-0.493493
-0.465
-0.434423
-0.401538
-0.366593
-0.330404
-0.294638
-0.579866
-0.542395
-0.516621
-0.489746
-0.460426
-0.428646
-0.394324
-0.357928
-0.32047
-0.283247
-0.574083
-0.536976
-0.511288
-0.484079
-0.453971
-0.421031
-0.385351
-0.347631
-0.309068
-0.270634
-0.565819
-0.529319
-0.503827
-0.47635
-0.445503
-0.411468
-0.374532
-0.335641
-0.296159
-0.256759
-0.55493
-0.519284
-0.494098
-0.466425
-0.434906
-0.399861
-0.361797
-0.321911
-0.281713
-0.241597
-0.541288
-0.506745
-0.481977
-0.454187
-0.422077
-0.386131
-0.347094
-0.306413
-0.265719
-0.225135
-0.524785
-0.491592
-0.467356
-0.439539
-0.406936
-0.37022
-0.330388
-0.289131
-0.248176
-0.207372
-0.505337
-0.473739
-0.45015
-0.422403
-0.389423
-0.352091
-0.311664
-0.270069
-0.229102
-0.188325
-0.482887
-0.453121
-0.430295
-0.402726
-0.369502
-0.33173
-0.290929
-0.249247
-0.208532
-0.16803
-0.457404
-0.429699
-0.407751
-0.380477
-0.34716
-0.309143
-0.268205
-0.2267
-0.186506
-0.146494
-0.428887
-0.40346
-0.382508
-0.355655
-0.322412
-0.284364
-0.243539
-0.202478
-0.163041
-0.123579
-0.397368
-0.374423
-0.354581
-0.328285
-0.295298
-0.257447
-0.216999
-0.17666
-0.138199
-0.0991492
-0.362907
-0.342633
-0.324017
-0.298422
-0.265885
-0.228473
-0.188675
-0.149335
-0.112188
-0.0745111
-0.325598
-0.308167
-0.290891
-0.266148
-0.234267
-0.197543
-0.158669
-0.120584
-0.0848005
-0.0489689
-0.285566
-0.271132
-0.255307
-0.231575
-0.200564
-0.164783
-0.127104
-0.0905397
-0.0563891
-0.0224283
-0.242967
-0.231664
-0.217401
-0.194842
-0.16492
-0.130331
-0.0941241
-0.0593273
-0.0270525
0.00492319
-0.197986
-0.189928
-0.177334
-0.156114
-0.127486
-0.0943675
-0.0598864
-0.0270905
0.00310288
0.0329247
-0.150829
-0.14612
-0.135293
-0.115564
-0.0884776
-0.0570676
-0.0245657
0.00601105
0.0339401
0.0614142
-0.101706
-0.100483
-0.0914917
-0.0734223
-0.0480867
-0.0186305
0.0116482
0.039806
0.0653107
0.090204
-0.0509439
-0.0532126
-0.0461675
-0.0299142
-0.00653731
0.0207291
0.0485539
0.074124
0.097082
0.11902
0.00118833
-0.00458196
0.000424448
0.0147131
0.0359322
0.0607857
0.0859407
0.108801
0.129116
0.147423
0.0544099
0.0451124
0.0480109
0.0601975
0.0790734
0.101305
0.123592
0.143642
0.161054
0.174775
0.108402
0.0955731
0.0963052
0.106265
0.122632
0.142056
0.161304
0.178383
0.192037
0.19967
0.16283
0.14649
0.145009
0.152635
0.16635
0.182822
0.198922
0.212826
0.221332
0.221479
0.217354
0.197541
0.193813
0.199017
0.209966
0.223384
0.236274
0.247025
0.25232
0.25103
0.271625
0.248398
0.242403
0.245117
0.25321
0.263496
0.273121
0.280639
0.283051
0.280476
0.325292
0.298727
0.290462
0.290638
0.295811
0.30291
0.30923
0.313454
0.312914
0.308568
0.378002
0.348195
0.337671
0.335284
0.337502
0.341386
0.344388
0.345312
0.34182
0.3354
0.429406
0.396469
0.383716
0.378765
0.378021
0.378693
0.378391
0.376044
0.36964
0.360973
0.479161
0.443224
0.428288
0.420796
0.417113
0.414607
0.411048
0.405487
0.396231
0.385232
0.526935
0.488142
0.471087
0.461104
0.454535
0.448916
0.442178
0.433492
0.421466
0.408109
0.572406
0.530916
0.511823
0.499422
0.490052
0.481419
0.471612
0.459919
0.445234
0.429541
0.615265
0.571253
0.55022
0.535501
0.523443
0.511926
0.49919
0.48464
0.46743
0.449467
0.655223
0.608873
0.586018
0.569103
0.554501
0.540259
0.524764
0.507531
0.487956
0.467824
0.692008
0.643519
0.618971
0.600009
0.583032
0.566253
0.548196
0.52848
0.506719
0.484552
0.72537
0.67495
0.648857
0.628014
0.608859
0.589757
0.56936
0.547382
0.523634
0.499592
0.755079
0.702949
0.67547
0.652936
0.631822
0.610634
0.58814
0.564141
0.538621
0.512889
0.780934
0.72732
0.698629
0.67461
0.651776
0.628761
0.604433
0.578672
0.551607
0.524389
0.802757
0.747894
0.718176
0.692895
0.668599
0.644033
0.618151
0.5909
0.562531
0.534049
0.820399
0.764528
0.733977
0.707669
0.682186
0.656359
0.629218
0.60076
0.571337
0.541826
0.833737
0.777107
0.745923
0.718835
0.69245
0.665669
0.637573
0.608201
0.577981
0.547689
0.842681
0.785541
0.753933
0.726321
0.699329
0.671905
0.643168
0.613184
0.582429
0.551612
0.730076
0.702779
0.675033
0.645974
0.615682
0.584659
0.553578
-0.239783
-0.250957
-0.26099
-0.269913
-0.277769
-0.284618
-0.290532
-0.295602
-0.217786
-0.228764
-0.238837
-0.248037
-0.25641
-0.264012
-0.270917
-0.277207
-0.197416
-0.208192
-0.21828
-0.227707
-0.236507
-0.244722
-0.252402
-0.259605
-0.178383
-0.188775
-0.198635
-0.207982
-0.216842
-0.225245
-0.233226
-0.240827
-0.160725
-0.17066
-0.180185
-0.189315
-0.198071
-0.206477
-0.214562
-0.22236
-0.14441
-0.153855
-0.162985
-0.171815
-0.18036
-0.188643
-0.196685
-0.204515
-0.129353
-0.138283
-0.146971
-0.15543
-0.163673
-0.171718
-0.179582
-0.187289
-0.11545
-0.123855
-0.132073
-0.140115
-0.147992
-0.155717
-0.163306
-0.170776
-0.102616
-0.110494
-0.118228
-0.125825
-0.133294
-0.140647
-0.147894
-0.155049
-0.0907537
-0.0981148
-0.105362
-0.112502
-0.119542
-0.126488
-0.133351
-0.140141
-0.07979
-0.086647
-0.0934137
-0.100094
-0.106694
-0.113218
-0.119674
-0.126067
-0.0696509
-0.0760232
-0.0823222
-0.0885508
-0.0947122
-0.10081
-0.10685
-0.112835
-0.0602823
-0.0661909
-0.072039
-0.0778284
-0.0835609
-0.089239
-0.0948652
-0.100443
-0.0516269
-0.0570972
-0.0625165
-0.0678857
-0.0732054
-0.078477
-0.0837017
-0.0888812
-0.0436411
-0.0487
-0.0537151
-0.0586865
-0.0636141
-0.0684981
-0.0733391
-0.0781374
-0.0362828
-0.040959
-0.0455969
-0.0501958
-0.0547552
-0.0592746
-0.0637538
-0.0681924
-0.0725906
-0.0295196
-0.0338416
-0.0381296
-0.0423825
-0.0465993
-0.0507789
-0.0549207
-0.0590239
-0.0630879
-0.023317
-0.0273142
-0.0312806
-0.0352149
-0.0391158
-0.0429818
-0.0468121
-0.0506054
-0.0543608
-0.0176508
-0.021351
-0.0250231
-0.0286656
-0.0322769
-0.0358555
-0.0394001
-0.0429093
-0.046382
-0.0124922
-0.0159232
-0.0193283
-0.0227057
-0.0260539
-0.029371
-0.0326557
-0.0359066
-0.0391222
-0.0078205
-0.0110088
-0.0141729
-0.017311
-0.0204214
-0.0235023
-0.0265522
-0.0295696
-0.0325529
-0.00361588
-0.00658684
-0.00953508
-0.0124587
-0.0153559
-0.018225
-0.0210643
-0.0238723
-0.0266476
0.000137301
-0.00264063
-0.005397
-0.00812992
-0.0108376
-0.0135183
-0.0161704
-0.0187923
-0.0213826
0.00345077
0.000842635
-0.0017449
-0.00430997
-0.00685082
-0.00936574
-0.0118531
-0.0143114
-0.0167392
0.00633271
0.00387193
0.00143097
-0.000988393
-0.00338445
-0.00575554
-0.00810011
-0.0104166
-0.0127037
0.00878278
0.00644781
0.004132
0.00183702
-0.000435494
-0.00268396
-0.00490688
-0.00710282
-0.00927042
0.0107998
0.00856894
0.00635666
0.0041645
0.001994
-0.000153342
-0.00227612
-0.00437298
-0.00644262
0.0123622
0.0102153
0.00808633
0.00597686
0.00388825
0.00182188
-0.000220964
-0.00223904
-0.00423116
0.0134593
0.0113716
0.00930145
0.0072501
0.00521887
0.00320902
0.00122175
-0.000741764
-0.00268044
0.0140299
0.0119857
0.00995846
0.00794925
0.0059591
0.00398902
0.00203997
0.000112915
-0.00179126
0.195459
0.164923
0.135414
0.108713
0.0822398
0.0559469
0.0301815
0.00502363
-0.0194831
-0.0432845
-0.0664064
-0.0889262
-0.109388
-0.129427
-0.148541
-0.166565
-0.183491
-0.199295
-0.213953
-0.22745
0.182195
0.154599
0.12632
0.101689
0.0775711
0.0535413
0.0300494
0.00720058
-0.0150054
-0.0365274
-0.0573225
-0.0773558
-0.0962235
-0.114699
-0.132249
-0.148835
-0.164498
-0.179235
-0.19303
-0.205879
0.164867
0.139147
0.11315
0.0909204
0.0694692
0.0481075
0.0272294
0.00695516
-0.0127398
-0.0318423
-0.050316
-0.0681047
-0.0850028
-0.101741
-0.117645
-0.132754
-0.147135
-0.160796
-0.173728
-0.185932
0.148929
0.12565
0.102391
0.0824934
0.0633808
0.0443454
0.0257176
0.0076285
-0.00994905
-0.0270219
-0.0435785
-0.0596533
-0.0753176
-0.0899185
-0.104238
-0.118036
-0.131245
-0.143879
-0.155945
-0.167444
0.134694
0.113869
0.093261
0.0755255
0.0584981
0.0415416
0.0249252
0.00877455
-0.0069326
-0.02221
-0.0370482
-0.0514448
-0.0654043
-0.0787808
-0.0919021
-0.104521
-0.11665
-0.12833
-0.139568
-0.150364
0.1223
0.103678
0.0854667
0.0696759
0.0544977
0.0393902
0.0245691
0.0101441
-0.00390245
-0.0175859
-0.030901
-0.0438367
-0.0563382
-0.0682481
-0.0805122
-0.0921347
-0.103281
-0.114075
-0.124528
-0.134638
0.111577
0.0949303
0.0788717
0.0648341
0.0513029
0.0378352
0.0246045
0.0117019
-0.000888952
-0.0131869
-0.0251955
-0.0369225
-0.0484307
-0.0598337
-0.0703001
-0.0807683
-0.0910402
-0.101025
-0.110732
-0.120172
0.102329
0.0874666
0.0733224
0.0608538
0.0487871
0.0367708
0.024948
0.0133931
0.00209302
-0.00896825
-0.0197929
-0.0303779
-0.040726
-0.0508503
-0.0606583
-0.0703256
-0.0797956
-0.089033
-0.0980465
-0.10685
0.094402
0.0811488
0.0686899
0.0576121
0.0468421
0.036107
0.0255275
0.0151639
0.00500534
-0.00496152
-0.0147394
-0.0243281
-0.0337294
-0.0429449
-0.0519573
-0.0608382
-0.0695352
-0.0780512
-0.0863992
-0.0945859
0.0876447
0.0758352
0.0648504
0.0549977
0.0453729
0.0357678
0.0262854
0.0169746
0.00782637
-0.00117026
-0.0100173
-0.0187148
-0.0272634
-0.0356534
-0.0438557
-0.052067
-0.0600852
-0.0679432
-0.0756707
-0.0832736
0.08191
0.0713897
0.0616898
0.0529127
0.0442978
0.0356886
0.0271739
0.0187929
0.0105379
0.00239954
-0.00562447
-0.0135349
-0.0213346
-0.0290368
-0.0366598
-0.0440482
-0.0513868
-0.058641
-0.0657911
-0.0728392
0.0770641
0.0676908
0.059109
0.051275
0.0435503
0.0358195
0.0281594
0.020602
0.0131408
0.00576872
-0.00151555
-0.00871172
-0.0158198
-0.0228423
-0.0297837
-0.0366097
-0.0433753
-0.0500677
-0.0566763
-0.0632028
0.0729895
0.0646331
0.0570234
0.0500157
0.0430754
0.0361196
0.0292148
0.0223872
0.0156315
0.00894235
0.00231923
-0.00423725
-0.0107269
-0.0171502
-0.023508
-0.0297909
-0.0360171
-0.0421807
-0.0482787
-0.0543121
0.0695832
0.0621256
0.0553605
0.0490766
0.0428274
0.0365555
0.0303187
0.0241383
0.0180102
0.0119304
0.00589918
-8.24694e-05
-0.00601396
-0.0118951
-0.0177253
-0.0234998
-0.0292296
-0.0349073
-0.0405323
-0.0461054
0.0667554
0.0600903
0.0540584
0.0484082
0.042768
0.0370998
0.0314538
0.0258476
0.020278
0.0147423
0.00924127
0.00377639
-0.00165136
-0.0070412
-0.0123914
-0.0176977
-0.0229755
-0.028207
-0.0333941
-0.0385389
0.0644276
0.0584601
0.0530643
0.0479686
0.0428646
0.0377292
0.0326059
0.0275091
0.0224366
0.0173868
0.012361
0.00736083
0.00238791
-0.00255639
-0.0074691
-0.0123452
-0.0172109
-0.0220348
-0.0268198
-0.0315693
0.0625311
0.0571765
0.0523316
0.0477206
0.0430884
0.0384226
0.0337611
0.0291156
0.0244847
0.0198676
0.0152656
0.0106808
0.00611482
0.00156903
-0.00295737
-0.00746622
-0.0119202
-0.0163602
-0.0207776
-0.0251647
0.0610052
0.0561883
0.0518202
0.0476323
0.0434147
0.0391627
0.0349091
0.0306637
0.0264256
0.0221947
0.0179728
0.0137621
0.00956474
0.00538256
0.00121716
-0.00293015
-0.00705202
-0.0111552
-0.015236
-0.0192905
0.0597959
0.0554501
0.0514936
0.0476742
0.0438202
0.039932
0.0360378
0.0321459
0.0282558
0.0243679
0.0204843
0.0166073
0.012739
0.00888141
0.00503651
0.0012063
-0.00260542
-0.00639945
-0.0101733
-0.0139244
0.0588553
0.0549211
0.0513193
0.0478199
0.0442837
0.0407146
0.0371363
0.0335559
0.0299734
0.0263896
0.0228066
0.0192269
0.0156525
0.0120857
0.00852852
0.00498315
0.00145251
-0.0020627
-0.00556001
-0.00903718
0.05814
0.0545645
0.0512671
0.0480445
0.0447852
0.0414947
0.038193
0.0348861
0.0315744
0.0282589
0.0249419
0.0216258
0.0183126
0.0150047
0.0117042
0.00841338
0.00513478
0.00186974
-0.00137925
-0.00461001
0.0576114
0.0543469
0.0513096
0.0483253
0.0453058
0.0422574
0.0391967
0.0361287
0.0330541
0.0299743
0.0268914
0.0238077
0.0207255
0.017647
0.0145743
0.0115097
0.00845569
0.00541373
0.00238641
-0.000624125
0.0572346
0.054238
0.0514215
0.0486408
0.0458276
0.0429881
0.0401358
0.037275
0.0344068
0.0315324
0.0286541
0.0257741
0.0228946
0.0200178
0.0171459
0.014281
0.0114256
0.00858094
0.00575003
0.00293485
0.0569784
0.0542102
0.0515793
0.0489707
0.0463331
0.0436721
0.0409983
0.0383156
0.0356251
0.0329282
0.0302271
0.027524
0.0248208
0.0221199
0.0194232
0.0167331
0.014052
0.0113798
0.00872109
0.00607755
0.0568153
0.0542389
0.0517618
0.0492966
0.0468063
0.0442955
0.0417726
0.0392408
0.0367013
0.0341558
0.0316061
0.0290544
0.0265027
0.023953
0.0214074
0.0188679
0.0163367
0.0138154
0.0113063
0.00881146
0.0567199
0.0543002
0.0519473
0.0495988
0.047229
0.0448417
0.0424435
0.0400368
0.037623
0.0352038
0.032781
0.0303566
0.0279324
0.0255105
0.0230927
0.0206808
0.0182765
0.0158845
0.0135033
0.0111352
0.056673
0.0543769
0.0521208
0.0498636
0.0475891
0.0453003
0.0430017
0.0406956
0.0383835
0.0360669
0.0337475
0.0314271
0.0291076
0.0267908
0.0244784
0.0221724
0.0198743
0.0175866
0.0153104
0.0130475
0.0566506
0.0544431
0.0522559
0.0500644
0.0478594
0.0456431
0.0434189
0.0411886
0.0389536
0.0367155
0.0344758
0.0322363
0.0299986
0.0277644
0.0255353
0.023313
0.0210992
0.0188958
0.0167041
0.0145257
0.056651
0.0545
0.0523559
0.0502065
0.0480472
0.0458796
0.0437059
0.0415277
0.0393464
0.0371633
0.0349798
0.0327975
0.0306179
0.0284425
0.0262728
0.0241103
0.0219566
0.0198132
0.0176815
0.0155631
0.0566353
0.054497
0.0523603
0.0502198
0.0480733
0.0459221
0.043768
0.0416123
0.0394564
0.0373015
0.0351489
0.0329999
0.0308557
0.0287178
0.0265872
0.0244654
0.0223535
0.020253
0.0181647
0.0160899
0.224956
0.227478
0.232911
0.240294
0.249511
0.260033
0.271326
0.282635
0.292801
0.300532
0.303683
0.300673
0.28753
0.265531
0.215901
0.223893
0.226285
0.231423
0.238358
0.246918
0.256535
0.266605
0.276305
0.284421
0.289626
0.289833
0.283581
0.267248
0.242676
0.194714
0.222728
0.224985
0.229808
0.236265
0.244137
0.252829
0.26169
0.269867
0.276145
0.279238
0.277208
0.268843
0.250965
0.22612
0.181989
0.221443
0.223548
0.228021
0.233951
0.241073
0.248763
0.256331
0.2629
0.267267
0.26821
0.263966
0.253566
0.234371
0.209035
0.167796
0.220033
0.221972
0.226069
0.231437
0.237766
0.244409
0.250643
0.255581
0.258053
0.256912
0.250601
0.238371
0.218148
0.192397
0.153872
0.218491
0.220254
0.223953
0.22873
0.234234
0.239803
0.244696
0.248028
0.248686
0.245624
0.237506
0.223791
0.202956
0.177203
0.141442
0.216813
0.218388
0.221667
0.225827
0.230479
0.234957
0.238513
0.240284
0.239234
0.234434
0.224785
0.209934
0.188861
0.163485
0.130423
0.214992
0.216369
0.219209
0.222727
0.226507
0.229885
0.232119
0.232389
0.22975
0.223405
0.21249
0.196822
0.175808
0.151093
0.120602
0.213023
0.214193
0.216577
0.219433
0.222327
0.224606
0.225551
0.224395
0.220303
0.212614
0.200688
0.184492
0.163779
0.139946
0.111881
0.210904
0.211859
0.213771
0.21595
0.217952
0.219146
0.218848
0.216358
0.210961
0.202132
0.189441
0.172977
0.152762
0.129978
0.104188
0.208633
0.209365
0.210795
0.212289
0.213402
0.213536
0.212055
0.208337
0.20179
0.192026
0.178797
0.162294
0.142731
0.121112
0.0974424
0.206211
0.206714
0.207655
0.208461
0.208698
0.207809
0.205217
0.200387
0.192852
0.182351
0.168791
0.152443
0.133649
0.113261
0.0915593
0.203639
0.203909
0.20436
0.204483
0.203865
0.202001
0.198382
0.192566
0.184203
0.173152
0.159446
0.143412
0.125469
0.10634
0.0864559
0.200923
0.20096
0.200922
0.200373
0.198933
0.196152
0.191599
0.184925
0.175893
0.164464
0.150773
0.135179
0.118138
0.100263
0.0820524
0.198072
0.197876
0.197357
0.196156
0.193933
0.190304
0.184916
0.177514
0.167964
0.156314
0.142771
0.127713
0.111599
0.0949497
0.0782733
0.195097
0.194672
0.193686
0.191858
0.188901
0.184498
0.17838
0.170378
0.160451
0.148716
0.135432
0.120977
0.105795
0.0903231
0.0750479
0.192015
0.191366
0.189931
0.18751
0.183873
0.178778
0.172035
0.163557
0.153381
0.141679
0.128739
0.114931
0.100666
0.0863114
0.0723109
0.188846
0.187981
0.186121
0.183145
0.178891
0.173187
0.165922
0.157085
0.146774
0.135202
0.122671
0.10953
0.0961542
0.0828482
0.0700029
0.185613
0.184544
0.182286
0.178801
0.173994
0.167767
0.160081
0.15099
0.140643
0.129279
0.1172
0.104731
0.0922045
0.0798723
0.0680699
0.182348
0.181087
0.178464
0.174518
0.169226
0.16256
0.154548
0.145297
0.134997
0.123899
0.112297
0.100489
0.0887636
0.0773279
0.0664629
0.179085
0.177647
0.174693
0.170338
0.16463
0.157606
0.149353
0.140025
0.129837
0.119047
0.107932
0.0967613
0.0857823
0.0751647
0.065138
0.175865
0.174266
0.171019
0.166307
0.160249
0.152943
0.144527
0.13519
0.125164
0.114705
0.104074
0.0935067
0.0832152
0.073337
0.0640557
0.172733
0.170992
0.167489
0.162474
0.15613
0.148611
0.140097
0.130804
0.120975
0.110859
0.100693
0.0906879
0.0810212
0.0718044
0.0631808
0.169742
0.167876
0.164157
0.15889
0.152319
0.144647
0.136089
0.126881
0.117268
0.10749
0.0977628
0.0882713
0.0791641
0.0705313
0.0624822
0.16695
0.164978
0.16108
0.155609
0.148865
0.141092
0.132531
0.123433
0.114042
0.104585
0.0952604
0.0862279
0.0776126
0.069487
0.0619326
0.164422
0.162363
0.15832
0.152691
0.145819
0.137985
0.129451
0.120475
0.111298
0.102136
0.0931678
0.0845346
0.0763409
0.068646
0.0615084
0.16223
0.1601
0.155947
0.150199
0.143238
0.135373
0.126882
0.118027
0.109045
0.100139
0.0914738
0.0831745
0.0753296
0.0679879
0.0611909
0.16045
0.158267
0.154034
0.148202
0.141183
0.133307
0.124864
0.116116
0.107296
0.0985985
0.0901753
0.0821389
0.074566
0.0674979
0.0609627
0.15917
0.156948
0.152664
0.146779
0.139725
0.131849
0.123446
0.114781
0.10608
0.0975324
0.0892807
0.0814291
0.0740463
0.067169
0.0608182
0.158483
0.156238
0.151927
0.146017
0.138947
0.131073
0.122695
0.114075
0.10544
0.0969728
0.0888127
0.0810589
0.073776
0.0669974
0.0607388
0.232503
0.235324
0.241702
0.250568
0.262144
0.276258
0.292952
0.312327
0.334326
0.359127
0.386528
0.416655
0.449009
0.483611
0.519035
0.232466
0.235286
0.24166
0.25052
0.262087
0.276187
0.292859
0.312201
0.334149
0.358877
0.386169
0.416144
0.448281
0.482588
0.517615
0.232392
0.235209
0.241576
0.250425
0.261973
0.276045
0.292672
0.311948
0.333795
0.358377
0.385451
0.415122
0.446827
0.480544
0.514781
0.232282
0.235095
0.241451
0.250283
0.261803
0.275831
0.292393
0.311569
0.333265
0.357628
0.384376
0.413593
0.444649
0.477487
0.510545
0.232135
0.234944
0.241285
0.250094
0.261577
0.275548
0.292022
0.311065
0.33256
0.356631
0.382945
0.41156
0.441754
0.473424
0.504923
0.231952
0.234755
0.241079
0.249859
0.261296
0.275196
0.29156
0.310438
0.331682
0.35539
0.381163
0.409028
0.438148
0.46837
0.497937
0.231733
0.234529
0.240831
0.249578
0.26096
0.274774
0.291008
0.309688
0.330633
0.353906
0.379032
0.406002
0.433839
0.46234
0.489613
0.231478
0.234266
0.240536
0.249252
0.26057
0.274285
0.290367
0.308817
0.329415
0.352182
0.376558
0.402489
0.428836
0.455351
0.479981
0.231188
0.233968
0.240195
0.24888
0.260127
0.27373
0.28964
0.307828
0.32803
0.350222
0.373744
0.398498
0.423149
0.447425
0.469073
0.230863
0.233635
0.239876
0.248465
0.259632
0.273109
0.288827
0.306722
0.326483
0.34803
0.370596
0.394035
0.41679
0.438586
0.456921
0.230504
0.233267
0.239458
0.248008
0.259086
0.272425
0.28793
0.305502
0.324775
0.345609
0.367121
0.389111
0.40977
0.42886
0.443557
0.230111
0.232865
0.239012
0.247509
0.258491
0.271679
0.286952
0.30417
0.322911
0.342965
0.363325
0.383734
0.402101
0.418273
0.429008
0.229685
0.232429
0.238536
0.24697
0.257848
0.270873
0.285896
0.30273
0.320895
0.340102
0.359217
0.377914
0.393797
0.406854
0.413297
0.229226
0.231961
0.238027
0.246393
0.257158
0.270009
0.284763
0.301186
0.318733
0.337027
0.354807
0.371663
0.384875
0.394634
0.396437
0.228735
0.231462
0.237483
0.245776
0.256423
0.269087
0.283554
0.299537
0.316424
0.333742
0.350097
0.364982
0.375344
0.381635
0.378429
0.228213
0.230934
0.236904
0.245121
0.25564
0.268104
0.282264
0.297774
0.313955
0.330226
0.345065
0.357843
0.36518
0.367834
0.359223
0.22766
0.230374
0.236296
0.244432
0.254817
0.267071
0.280905
0.295915
0.311346
0.326504
0.339737
0.350269
0.354414
0.353249
0.338774
0.227079
0.229792
0.235672
0.243735
0.253996
0.266052
0.279574
0.294095
0.308784
0.322818
0.334419
0.342615
0.343449
0.338267
0.317391
0.226471
0.229188
0.23503
0.243031
0.253182
0.265061
0.278299
0.292364
0.306344
0.319281
0.329259
0.335063
0.332479
0.322999
0.295192
0.225821
0.228504
0.234249
0.242101
0.252024
0.263563
0.2763
0.289624
0.302533
0.313925
0.321761
0.324594
0.318066
0.303675
0.267608
)
;

boundaryField
{
    inlet
    {
        type            zeroGradient;
    }
    outlet
    {
        type            fixedValue;
        value           nonuniform 0();
    }
    cylinder
    {
        type            zeroGradient;
    }
    top
    {
        type            symmetryPlane;
    }
    bottom
    {
        type            symmetryPlane;
    }
    defaultFaces
    {
        type            empty;
    }
    procBoundary2to0
    {
        type            processor;
        value           nonuniform List<scalar> 
26
(
0.847168
0.789773
0.757951
0.757951
0.730076
0.702779
0.675033
0.645974
0.615682
0.584659
0.553578
0.232503
0.235324
0.241702
0.250568
0.262144
0.276258
0.292952
0.312327
0.334326
0.359127
0.386528
0.416655
0.449009
0.483611
0.519035
)
;
    }
    procBoundary2to3
    {
        type            processor;
        value           nonuniform List<scalar> 
50
(
-0.474046
-0.463376
-0.463376
-0.455505
-0.463926
-0.463926
-0.453066
-0.453066
-0.440489
-0.440489
-0.421321
-0.406432
-0.406432
-0.388078
-0.388078
-0.364597
-0.364597
-0.345511
-0.299935
-0.299935
-0.282984
-0.266398
-0.248098
-0.229911
-0.212165
-0.194864
-0.178148
-0.162129
-0.146869
-0.132408
-0.118773
-0.105975
-0.0940175
-0.082894
-0.082894
-0.0769485
-0.0671123
-0.0580776
-0.0498171
-0.0423013
-0.035501
-0.0293886
-0.0239399
-0.019135
-0.01496
-0.0114084
-0.00848384
-0.00619622
-0.00459321
-0.00367168
)
;
    }
}


// ************************************************************************* //
