/*--------------------------------*- C++ -*----------------------------------*\
  =========                 |
  \\      /  F ield         | OpenFOAM: The Open Source CFD Toolbox
   \\    /   O peration     | Website:  https://openfoam.org
    \\  /    A nd           | Version:  7
     \\/     M anipulation  |
\*---------------------------------------------------------------------------*/
FoamFile
{
    version     2.0;
    format      ascii;
    class       surfaceScalarField;
    location    "10";
    object      phi;
}
// * * * * * * * * * * * * * * * * * * * * * * * * * * * * * * * * * * * * * //

dimensions      [0 3 -1 0 0 0 0];

internalField   nonuniform List<scalar> 
4137
(
-0.000443635
0.000131127
-0.000574762
-0.00227775
0.000141686
-0.000716448
-0.00271497
0.000152029
-0.000868477
0.000617476
-0.00318041
-0.00626269
0.000162118
-0.00103059
0.000654535
-0.00367283
0.00151306
-0.00712122
-0.0114514
0.000171901
-0.0012025
0.000689841
-0.00419077
0.00158646
-0.00801784
0.00289264
-0.0127576
0.0046321
-0.0184695
-0.0251872
0.00018131
-0.00138381
0.000723102
-0.00473256
0.00165418
-0.00894891
0.00299972
-0.0141032
0.00477527
-0.020245
0.00697936
-0.0273913
-0.0355158
0.000190258
-0.00157406
0.000753969
-0.00529627
0.00171543
-0.00991037
0.00309341
-0.0154811
0.00489464
-0.0220462
0.00710645
-0.0296031
0.00968951
-0.0380989
-0.0474222
0.00019864
-0.0017727
0.000782044
-0.00587968
0.00176935
-0.0108977
0.00317224
-0.016884
0.0049881
-0.0238621
0.00719291
-0.0318079
0.00973517
-0.0406412
0.012533
-0.05022
0.0154757
-0.0603467
-0.0707984
0.000206335
-0.00197904
0.000806893
-0.00648023
0.00181501
-0.0119058
0.00323467
-0.0183037
0.0050535
-0.0256809
0.00723614
-0.0339905
0.00971971
-0.0431247
0.0124133
-0.0529135
0.0152029
-0.0631363
-0.0735538
0.0179583
0.000213216
-0.00219226
0.000828059
-0.00709508
0.00185147
-0.0129292
0.00327922
-0.0197314
0.00508885
-0.0274906
0.00723392
-0.0361356
0.00964105
-0.0455319
0.012212
-0.0554845
0.0148317
-0.065756
-0.0760992
0.0173771
0.000219147
-0.0024114
0.000845081
-0.00772101
0.00187783
-0.0139619
0.00330448
-0.0211581
0.00509241
-0.0292785
0.00718447
-0.0382277
0.00949798
-0.0478454
0.0119292
-0.0579158
0.0143639
-0.0681907
-0.0784234
0.0166881
0.000223994
-0.0026354
0.000857511
-0.00835453
0.0018932
-0.0149976
0.0033092
-0.0225741
0.00506273
-0.031032
0.00708661
-0.0402515
0.00929015
-0.0500489
0.0115661
-0.0601917
0.0138029
-0.0704276
-0.0805175
0.0158971
0.000227626
-0.00286302
0.000864927
-0.00899183
0.00189684
-0.0160295
0.00329234
-0.0239696
0.0049988
-0.0327385
0.00693978
-0.0421925
0.00901812
-0.0521272
0.0111249
-0.0622985
0.0131533
-0.072456
-0.0823755
0.0150113
0.000229921
-0.00309294
0.00086695
-0.00962886
0.00188807
-0.0170507
0.00325311
-0.0253346
0.00489998
-0.0343854
0.00674409
-0.0440366
0.00868336
-0.0540665
0.0106091
-0.0642242
0.0124209
-0.0742678
-0.0839933
0.0140388
0.000230767
-0.00332371
0.000863254
-0.0102613
0.00186637
-0.0180538
0.00319098
-0.0266592
0.00476614
-0.0359605
0.00650029
-0.0457708
0.00828813
-0.0558543
0.0100231
-0.0659592
0.0116123
-0.0758571
-0.0853695
0.0129885
0.000230067
-0.00355378
0.000853576
-0.0108849
0.00183139
-0.0190316
0.00310571
-0.0279336
0.00459758
-0.0374524
0.00620975
-0.047383
0.00783543
-0.05748
0.00937174
-0.0674955
0.0107347
-0.07722
-0.0865044
0.0118696
0.000227742
-0.00378152
0.000837721
-0.0114948
0.00178292
-0.0199768
0.00299737
-0.029148
0.00439504
-0.03885
0.00587444
-0.0488624
0.00732889
-0.0589345
0.00866073
-0.0688273
0.00979565
-0.078355
-0.0874
0.0106913
0.000223732
-0.00400525
0.000815573
-0.0120867
0.00172093
-0.0208821
0.00286632
-0.0302934
0.0041597
-0.0401434
0.00549681
-0.0501995
0.00677263
-0.0602103
0.007896
-0.0699507
0.00880281
-0.0792618
-0.0880599
0.0094627
0.000217994
-0.00422325
0.00078709
-0.0126558
0.00164556
-0.0217406
0.00271319
-0.031361
0.00389313
-0.0413234
0.00507976
-0.0513861
0.0061712
-0.0613017
0.00708377
-0.0708633
0.00776388
-0.0799419
-0.0884886
0.00819256
0.000210511
-0.00443376
0.000752313
-0.0131976
0.00155712
-0.0225454
0.00253889
-0.0323428
0.00359723
-0.0423817
0.00462656
-0.0524154
0.0055294
-0.0622046
0.00623035
-0.0715642
0.00668637
-0.0803979
-0.0886914
0.00688922
0.000201285
-0.00463504
0.000711361
-0.0137076
0.00145608
-0.0232901
0.00234459
-0.0332313
0.00327421
-0.0433113
0.00414078
-0.053282
0.00485226
-0.0629161
0.00534206
-0.072054
0.00557756
-0.0806334
-0.0886744
0.00556051
0.000190341
-0.00482538
0.000664429
-0.0141817
0.00134305
-0.0239688
0.00213166
-0.0340199
0.00292654
-0.0441062
0.00362618
-0.0539817
0.00414488
-0.0634348
0.00442511
-0.0723342
0.00444441
-0.0806527
-0.0884436
0.00421362
0.000177726
-0.00500311
0.000611786
-0.0146158
0.00121881
-0.0245758
0.00190166
-0.0347028
0.0025569
-0.0447614
0.00308673
-0.0545115
0.00341241
-0.0637604
0.00348555
-0.0724074
0.00329345
-0.0804606
-0.0880054
0.00285528
0.000163507
-0.00516662
0.000553768
-0.0150061
0.00108423
-0.0251062
0.00165634
-0.0352749
0.00216812
-0.0452732
0.00252647
-0.0548698
0.00266003
-0.063894
0.00252926
-0.0722766
0.00213024
-0.0800616
-0.087367
0.00149184
0.000147771
-0.00531439
0.00049077
-0.0153491
0.000940284
-0.0255557
0.00139754
-0.0357322
0.00176316
-0.0456388
0.00194953
-0.0550562
0.00189295
-0.0638374
0.0015625
-0.0719461
0.000960062
-0.0794591
-0.0865109
0.000103899
0.000130623
-0.00544501
0.000423242
-0.0156417
0.00078805
-0.0259206
0.00112722
-0.0360713
0.00134501
-0.0458566
0.00135998
-0.0550712
0.00111613
-0.0635936
0.000590872
-0.0714209
-0.000201831
-0.0786664
-0.0854817
-0.00123102
0.000112185
-0.0055572
0.000351674
-0.0158812
0.000628656
-0.0261975
0.000847383
-0.0362901
0.000916708
-0.045926
0.00076184
-0.0549163
0.000334364
-0.0631661
-0.000381418
-0.0707051
-0.00136842
-0.0776794
-0.084272
-0.00257811
9.25897e-05
-0.00564979
0.000276591
-0.0160652
0.000463274
-0.0263842
0.000560054
-0.0363868
0.000481237
-0.0458472
0.000159119
-0.0545942
-0.000447603
-0.0625594
-0.0013483
-0.0698044
-0.0025204
-0.0765073
-0.0828813
-0.00391109
7.19853e-05
-0.00572177
0.00019854
-0.0161917
0.000293094
-0.0264788
0.00026725
-0.036361
4.16741e-05
-0.0456216
-0.000444469
-0.054108
-0.00122517
-0.0617787
-0.00230488
-0.0687247
-0.00365737
-0.0751548
-0.0813133
-0.00522535
5.05331e-05
-0.0057723
0.000118079
-0.0162593
0.000119305
-0.02648
-2.89425e-05
-0.0362128
-0.000399596
-0.0452509
-0.00104523
-0.0534624
-0.00199392
-0.06083
-0.00324625
-0.0674724
-0.00477452
-0.0736266
-0.0795708
-0.00651709
2.84498e-05
-0.00580075
3.57522e-05
-0.0162666
-5.6965e-05
-0.0263873
-0.000327077
-0.0359426
-0.000839555
-0.0447384
-0.00163976
-0.0526622
-0.00274967
-0.0597201
-0.00416745
-0.0660546
-0.00586681
-0.0719272
-0.077655
-0.00778258
5.38509e-06
-0.00580614
-4.79274e-05
-0.0162133
-0.00023462
-0.0262006
-0.000624935
-0.0355523
-0.00127589
-0.0440875
-0.00222499
-0.0517131
-0.00348853
-0.0584565
-0.00506356
-0.0644796
-0.00692883
-0.070062
-0.0755653
-0.0090185
-1.77345e-05
-0.0057884
-0.000132367
-0.0160986
-0.000412549
-0.0259204
-0.000921055
-0.0350438
-0.00170646
-0.0433021
-0.00279823
-0.0506213
-0.00420703
-0.0570477
-0.00592976
-0.0627568
-0.00795477
-0.0680369
-0.0732983
-0.0102218
-4.10661e-05
-0.00574734
-0.000217066
-0.0159226
-0.000589789
-0.0255477
-0.00121397
-0.0344196
-0.0021294
-0.0423866
-0.00335728
-0.0493934
-0.00490233
-0.0555027
-0.00676154
-0.0608976
-0.00893755
-0.0658609
-0.0708496
-0.0113862
-6.45968e-05
-0.00568274
-0.000301563
-0.0156857
-0.000765425
-0.0250838
-0.00150237
-0.0336827
-0.00254316
-0.0413459
-0.0039005
-0.0480361
-0.00557242
-0.0538308
-0.00755454
-0.0589155
-0.00986456
-0.0635509
-0.0682083
-0.0125059
-8.81097e-05
-0.00559463
-0.000385387
-0.0153884
-0.0009386
-0.0245306
-0.00178508
-0.0328362
-0.00294648
-0.0401845
-0.00442699
-0.0465556
-0.00621702
-0.0520407
-0.00830621
-0.0568263
-0.0107214
-0.0611357
-0.0653348
-0.0135948
-0.000111455
-0.00548318
-0.000468084
-0.0150318
-0.0011085
-0.0238902
-0.00206101
-0.0318837
-0.00333831
-0.0389072
-0.00493649
-0.0449574
-0.00683887
-0.0501383
-0.00902301
-0.0546422
-0.0114491
-0.0587096
-0.0626292
-0.0141548
-0.000134494
-0.00534868
-0.000549216
-0.014617
-0.00127433
-0.0231651
-0.00232908
-0.030829
-0.00371749
-0.0375187
-0.00542844
-0.0432465
-0.00743987
-0.0481269
-0.00972536
-0.0523567
-0.0122562
-0.0561788
-0.0598317
-0.0150536
-0.000157088
-0.00519159
-0.000628356
-0.0141458
-0.00143532
-0.0223581
-0.00258817
-0.0296761
-0.00408261
-0.0360243
-0.00590088
-0.0414282
-0.00801657
-0.0460112
-0.0104014
-0.0499718
-0.0130314
-0.0535488
-0.0569566
-0.0159065
-0.000179108
-0.00501249
-0.000705096
-0.0136198
-0.00159073
-0.0214725
-0.00283724
-0.0284296
-0.00443226
-0.0344293
-0.00635181
-0.0395086
-0.00856544
-0.0437976
-0.0110429
-0.0474944
-0.0137602
-0.0508315
-0.0540082
-0.0167086
-0.00020043
-0.00481206
-0.000779058
-0.0130411
-0.00173989
-0.0205116
-0.00307533
-0.0270942
-0.00476526
-0.0327394
-0.00677978
-0.0374941
-0.00908465
-0.0414927
-0.0116475
-0.0449315
-0.0144437
-0.0480354
-0.050992
-0.0174599
-0.000220938
-0.00459112
-0.000849892
-0.0124122
-0.00188218
-0.0194794
-0.00330163
-0.0256747
-0.00508066
-0.0309603
-0.00718381
-0.035391
-0.00957334
-0.0391032
-0.0122151
-0.0422898
-0.0150836
-0.0451668
-0.0479121
-0.0181635
-0.000240526
-0.00435059
-0.000917284
-0.0117354
-0.00201707
-0.0183796
-0.00351542
-0.0241764
-0.00537767
-0.0290981
-0.0075632
-0.0332054
-0.0100311
-0.0366353
-0.0127457
-0.0395751
-0.0156813
-0.0422313
-0.0447718
-0.0188216
-0.000259099
-0.00409149
-0.000980952
-0.0110136
-0.00214409
-0.0172164
-0.0037161
-0.0226044
-0.0056557
-0.0271585
-0.00791746
-0.0309437
-0.0104577
-0.0340951
-0.0132397
-0.0367931
-0.0162376
-0.0392334
-0.0415737
-0.0194356
-0.00027657
-0.00381492
-0.00104064
-0.0102495
-0.00226282
-0.0159942
-0.00390318
-0.020964
-0.00591421
-0.0251474
-0.00824617
-0.0286117
-0.0108529
-0.0314883
-0.013697
-0.033949
-0.016753
-0.0361775
-0.0383207
-0.020006
-0.00029286
-0.00352206
-0.00109613
-0.00944624
-0.0023729
-0.0147175
-0.00407618
-0.0192607
-0.00615277
-0.0230708
-0.008549
-0.0262155
-0.0112167
-0.0288206
-0.0141179
-0.0310478
-0.0172277
-0.0330677
-0.0350158
-0.0205326
-0.000307897
-0.00321417
-0.00114721
-0.00860692
-0.00247399
-0.0133907
-0.00423472
-0.0175
-0.00637098
-0.0209346
-0.00882562
-0.0237609
-0.0115487
-0.0260975
-0.0145021
-0.0280945
-0.0176615
-0.0299082
-0.0316623
-0.0210151
-0.000321618
-0.00289255
-0.00119371
-0.00773483
-0.00256581
-0.0120186
-0.00437844
-0.0156874
-0.00656849
-0.0187445
-0.00907571
-0.0212536
-0.0118488
-0.0233245
-0.0148493
-0.0250939
-0.0180542
-0.0267033
-0.0282638
-0.0214527
-0.000333964
-0.00255858
-0.00123545
-0.00683334
-0.00264809
-0.010606
-0.00450703
-0.0138284
-0.00674495
-0.0165066
-0.00929897
-0.0186996
-0.0121165
-0.0205069
-0.0151594
-0.0220511
-0.0184052
-0.0234575
-0.0248243
-0.0218446
-0.000344883
-0.0022137
-0.0012723
-0.00590593
-0.00272061
-0.00915765
-0.00462019
-0.0119288
-0.00690009
-0.0142267
-0.00949509
-0.0161046
-0.0123517
-0.0176503
-0.0154318
-0.018971
-0.0187139
-0.0201754
-0.0213483
-0.02219
-0.000354329
-0.00185937
-0.00130413
-0.00495613
-0.00278315
-0.00767862
-0.00471768
-0.00999431
-0.00703361
-0.0119108
-0.0096638
-0.0134744
-0.012554
-0.0147602
-0.0156662
-0.0158587
-0.0189798
-0.0168618
-0.0178403
-0.0224878
-0.000362263
-0.00149711
-0.00133082
-0.00398757
-0.00283555
-0.0061739
-0.00479927
-0.00803059
-0.00714527
-0.0095648
-0.00980483
-0.0108148
-0.0127231
-0.0118419
-0.0158622
-0.0127196
-0.0192024
-0.0135216
-0.0143052
-0.0227374
-0.000368651
-0.00112846
-0.00135229
-0.00300394
-0.00287765
-0.00464854
-0.00486477
-0.00604346
-0.00723486
-0.00719471
-0.00991795
-0.00813175
-0.0128587
-0.0089012
-0.0160195
-0.00955872
-0.0193811
-0.0101601
-0.0107483
-0.022938
-0.000373467
-0.000754991
-0.00136845
-0.00200895
-0.00290933
-0.00310766
-0.00491403
-0.00403876
-0.00730221
-0.00480653
-0.010003
-0.00543099
-0.0129606
-0.00594355
-0.0161378
-0.00638157
-0.0195155
-0.00678242
-0.00717481
-0.023089
-0.000376688
-0.00137926
-0.0029305
-0.00494694
-0.00202231
-0.00734719
-0.00240629
-0.0100597
-0.00271844
-0.0130287
-0.0029746
-0.0162167
-0.00319352
-0.0196052
-0.00339392
-0.0035902
-0.0231899
-0.00496342
-0.0073697
-0.0100881
-0.0130627
-0.0162563
-0.0196502
-0.0232404
0.0584426
0.0118947
-0.0584677
0.058311
0.0131201
0.0580637
0.014286
0.0576921
0.0153829
0.0571878
0.0164014
0.0565434
0.0173325
0.0557526
0.0181679
0.0189
0.0618458
0.0117956
-0.0617467
0.0618546
0.0131114
0.0617635
0.0143771
0.0615629
0.0155835
0.0612434
0.0167209
0.060796
0.0177799
0.0602127
0.0187512
0.0196262
0.0651648
0.0115807
-0.0649499
0.065308
0.0129682
0.0653698
0.0143153
0.0653403
0.015613
0.0652093
0.016852
0.0649665
0.0180227
0.0646022
0.0191155
0.0201213
0.0684155
0.011267
-0.0681018
0.0686771
0.0127066
0.0688773
0.0141151
0.0690062
0.0154841
0.0690532
0.0168049
0.0690075
0.0180684
0.068858
0.019265
0.0203853
0.0716312
0.0108756
-0.0712398
0.0719901
0.0123477
0.072308
0.0137972
0.0725755
0.0152166
0.0727825
0.016598
0.072918
0.0179328
0.0729708
0.0192122
0.020427
0.0748518
0.010428
-0.0744042
0.0752852
0.0119144
0.0756969
0.0133854
0.0760789
0.0148346
0.076422
0.0162549
0.0767159
0.0176389
0.0769497
0.0189784
0.020265
0.0781166
0.00994348
-0.0776322
0.0786026
0.0114285
0.0790842
0.0129037
0.079555
0.0143638
0.0800071
0.0158029
0.0804316
0.0172144
0.0808188
0.0185913
0.0199261
0.0814614
0.00943847
-0.0809563
0.0819809
0.010909
0.0825108
0.0123738
0.0830459
0.0138287
0.0835803
0.0152685
0.0841067
0.016688
0.0846168
0.0180812
0.0194417
0.0849148
0.00892489
-0.0844012
0.0854531
0.0103706
0.0860135
0.0118135
0.0865923
0.0132498
0.0871851
0.0146757
0.0877865
0.0160866
0.08839
0.0174777
0.0188436
0.0884998
0.00841114
-0.087986
0.0890462
0.00982422
0.0896235
0.0112361
0.0902296
0.0126438
0.0908614
0.0140439
0.0915151
0.0154329
0.092186
0.0168068
0.0181612
0.0922336
0.00790258
-0.0917251
0.0927809
0.009277
0.0933659
0.0106511
0.0939873
0.0120223
0.0946434
0.0133878
0.0953316
0.0147447
0.0960487
0.0160897
0.0174192
0.0961306
0.00740273
-0.0956307
0.0966739
0.00873373
0.0972602
0.0100648
0.0978888
0.0113936
0.0985588
0.0127179
0.0992685
0.014035
0.100016
0.0153422
0.0166367
0.100202
0.00691355
-0.0997125
0.100738
0.00819721
0.101322
0.00948102
0.101953
0.0107629
0.10263
0.0120408
0.103352
0.0133124
0.104119
0.0145754
0.0158274
0.104457
0.00643608
-0.10398
0.104985
0.00766901
0.105564
0.00890206
0.106194
0.0101333
0.106874
0.0113608
0.107604
0.0125825
0.108383
0.0137964
0.0150003
0.108907
0.00597077
-0.108441
0.109426
0.00714989
0.109999
0.00832902
0.110626
0.00950637
0.111307
0.0106801
0.112041
0.0118484
0.112828
0.0130093
0.0141609
0.11356
0.00551765
-0.113107
0.11407
0.00664003
0.114637
0.00776232
0.115261
0.00888281
0.115941
0.00999979
0.116678
0.0111115
0.117471
0.0122162
0.118319
0.0133122
0.0143975
0.118428
0.00507639
-0.117987
0.118929
0.00613919
0.11949
0.00720181
0.12011
0.00826263
0.12079
0.00932003
0.121529
0.0103724
0.122327
0.011418
0.123184
0.0124553
0.0134825
0.123522
0.00464663
-0.123092
0.124014
0.005647
0.124569
0.00664712
0.125186
0.00764547
0.125866
0.00864052
0.126607
0.00963074
0.127411
0.0106146
0.128276
0.0115904
0.0125568
0.128855
0.00422769
-0.128436
0.129339
0.00516277
0.129889
0.00609757
0.130503
0.00703065
0.131183
0.00796059
0.131928
0.00888593
0.132737
0.00980522
0.133611
0.010717
0.0116198
0.13444
0.00381882
-0.134031
0.134917
0.00468571
0.135463
0.0055523
0.136076
0.00641727
0.136757
0.00727927
0.137506
0.00813696
0.138322
0.00898899
0.139205
0.00983398
0.0106706
0.140295
0.00341913
-0.139895
0.140766
0.00421485
0.141308
0.0050103
0.141921
0.00580424
0.142605
0.00659543
0.143359
0.00738263
0.144184
0.00816458
0.145077
0.00894003
0.00970774
0.146438
0.00302759
-0.146046
0.146904
0.0037491
0.147444
0.00447038
0.148058
0.00519029
0.148745
0.0059077
0.149506
0.00662147
0.150341
0.00733046
0.151247
0.00803352
0.00872951
0.15289
0.00264304
-0.152506
0.153352
0.00328721
0.153892
0.00393119
0.154508
0.00457396
0.155201
0.0052145
0.155971
0.0058518
0.156816
0.00648481
0.157737
0.00711252
0.00773389
0.159677
0.00226415
-0.159298
0.160137
0.00282771
0.160677
0.00339113
0.161297
0.00395352
0.161998
0.00451398
0.162778
0.00507161
0.163637
0.00562551
0.164575
0.00617475
0.00671845
0.166827
0.00188938
-0.166452
0.167286
0.0023689
0.167829
0.00284835
0.168455
0.00332696
0.169165
0.00380396
0.169958
0.00427857
0.170834
0.00475001
0.171791
0.00521752
0.0056803
0.174373
0.0015169
-0.174001
0.174833
0.00190879
0.175381
0.00230066
0.176016
0.00269189
0.176738
0.00308184
0.177547
0.00346987
0.178441
0.00385534
0.179421
0.00423761
0.00461603
0.182354
0.00114458
-0.181981
0.182817
0.00144501
0.183373
0.00174547
0.184019
0.00204549
0.184756
0.00234455
0.185584
0.00264219
0.186501
0.00293788
0.187508
0.00323115
0.00352149
0.190813
0.000769904
-0.190438
0.191283
0.000974772
0.191849
0.0011797
0.19251
0.00138436
0.193266
0.00158841
0.194117
0.00179151
0.195061
0.00199331
0.196099
0.00219348
0.00239168
0.199803
0.000389638
-0.199423
0.200283
0.000494526
0.200864
0.00059947
0.201544
0.000704298
0.202323
0.000808831
0.203202
0.0009129
0.204179
0.00101632
0.205253
0.00111892
0.00122053
0.20938
-0.208991
0.209875
0.210474
0.211178
0.211987
0.2129
0.213917
0.215035
0.0483918
-0.0142691
-0.0477175
0.0491057
-0.0132197
0.0498406
-0.0121211
0.0505736
-0.0109549
0.0512977
-0.00974265
0.0520103
-0.00849519
0.0527082
-0.00721494
0.053388
-0.00590513
0.0540464
-0.00456955
0.0546804
-0.00321207
0.0552866
-0.00183721
0.0558438
-0.00045333
0.0563792
0.000956415
0.0568661
0.00236835
0.0573017
0.00377812
0.0576796
0.00518259
0.0579929
0.00657589
0.0582341
0.00795132
0.0583952
0.00930161
0.0106189
0.0519788
-0.0149146
-0.0513333
0.0526066
-0.0138475
0.0532378
-0.0127523
0.0538709
-0.011588
0.0545024
-0.0103742
0.0551315
-0.00912427
0.0557564
-0.00783989
0.0563745
-0.00652324
0.0569827
-0.00517773
0.0575774
-0.0038068
0.0581542
-0.002414
0.058705
-0.00100409
0.05924
0.000421454
0.0597401
0.00186819
0.0602038
0.00331441
0.0606252
0.00476119
0.0609977
0.00620341
0.0613141
0.00763496
0.0615665
0.00904915
0.0104387
0.0556418
-0.0154516
-0.0551048
0.0561775
-0.0143833
0.0567132
-0.0132879
0.0572532
-0.0121279
0.0577969
-0.0109179
0.0583438
-0.00967121
0.0588932
-0.00838928
0.0594434
-0.00707344
0.0599922
-0.00572655
0.060537
-0.0043516
0.0610745
-0.00295149
0.0615995
-0.00152908
0.0621208
-9.98185e-05
0.0626186
0.00137035
0.0630955
0.00283754
0.0635455
0.00431122
0.0639627
0.00578621
0.0643407
0.00725695
0.0646724
0.00871747
0.0101611
0.0594181
-0.0158911
-0.0589786
0.0598634
-0.0148286
0.0603098
-0.0137343
0.0607616
-0.0125797
0.06122
-0.0113763
0.0616849
-0.0101362
0.0621564
-0.00886078
0.062634
-0.00755107
0.0631169
-0.00620938
0.0636037
-0.00483838
0.0640929
-0.00344072
0.0645832
-0.00201943
0.0650631
-0.000579724
0.0655486
0.000884944
0.0660233
0.00236275
0.0664853
0.00384931
0.0669298
0.00534164
0.0673516
0.00683513
0.0677446
0.0083245
0.00980394
0.0632984
-0.0162411
-0.0629483
0.0636565
-0.0151868
0.0640176
-0.0140954
0.0643855
-0.0129476
0.0647622
-0.0117529
0.065148
-0.010522
0.0655435
-0.00925625
0.065949
-0.00795656
0.0663645
-0.0066249
0.0667897
-0.0052636
0.067224
-0.00387498
0.0676661
-0.00246156
0.0681131
-0.00102675
0.0685711
0.000426922
0.0690293
0.00190462
0.0694872
0.0033914
0.0699418
0.00488704
0.0703889
0.00638802
0.0708235
0.00788988
0.0093876
0.0672838
-0.0165035
-0.0670213
0.0675563
-0.0154592
0.0678341
-0.0143732
0.0681208
-0.0132343
0.0684187
-0.0120509
0.0687286
-0.0108318
0.0690512
-0.00957885
0.0693873
-0.00829265
0.0697374
-0.00697501
0.0701017
-0.00562797
0.0704803
-0.00425356
0.0708726
-0.00285378
0.0712762
-0.00143037
0.0717082
-5.14618e-06
0.0721388
0.00147407
0.0725817
0.00294844
0.0730332
0.0044356
0.07349
0.00593124
0.0739485
0.00743139
0.00893187
0.0713797
-0.0166789
-0.0712043
0.0715672
-0.0156468
0.0717633
-0.0145693
0.0719711
-0.0134421
0.072193
-0.0122728
0.07243
-0.0110688
0.072683
-0.00983182
0.072953
-0.00856262
0.0732408
-0.00726287
0.0735474
-0.00593451
0.0738733
-0.00457949
0.0742194
-0.00319984
0.0745869
-0.00179796
0.0749599
-0.000378144
0.0753669
0.00106715
0.07579
0.00252532
0.0762301
0.00399552
0.0766855
0.00547582
0.0771539
0.00696302
0.00845355
0.0755927
-0.0167681
-0.0755035
0.0756965
-0.0157506
0.0758125
-0.0146852
0.0759434
-0.013573
0.0760916
-0.012421
0.0762583
-0.0112355
0.0764443
-0.0100179
0.0766509
-0.00876916
0.0768789
-0.00749093
0.0771294
-0.006185
0.0774031
-0.00485321
0.0777007
-0.00349744
0.0780224
-0.00211967
0.0783667
-0.000722375
0.0787392
0.000694661
0.0791362
0.00212823
0.0795575
0.00357429
0.0800022
0.00503111
0.0804691
0.00649611
0.00796631
0.0799315
-0.0167725
-0.0799271
0.079953
-0.0157722
0.0799904
-0.0147226
0.0800463
-0.013629
0.080123
-0.0124977
0.0802214
-0.0113339
0.0803428
-0.0101392
0.0804882
-0.00891455
0.0806587
-0.00766143
0.0808553
-0.0063816
0.0810789
-0.00507681
0.0813302
-0.00374881
0.0816101
-0.00239947
0.0819186
-0.00103095
0.0822585
0.000354758
0.0826277
0.00175905
0.0830269
0.00317507
0.083456
0.00460201
0.0839145
0.00603769
0.00747957
0.084405
-0.0166935
-0.084484
0.084346
-0.0157132
0.0843066
-0.0146831
0.0842892
-0.0136117
0.0842961
-0.0125045
0.0843283
-0.0113661
0.0843869
-0.0101978
0.0844731
-0.00900074
0.0845879
-0.0077763
0.0847325
-0.00652617
0.0849077
-0.00525202
0.0851144
-0.00395552
0.0853533
-0.00263839
0.0856248
-0.00130241
0.0859344
4.5157e-05
0.0862747
0.00141877
0.0866502
0.00279958
0.0870607
0.00419151
0.0875061
0.00559229
0.00699964
0.0890226
-0.0165328
-0.0891833
0.0888847
-0.0155753
0.0887702
-0.0145686
0.0886814
-0.0135228
0.0886202
-0.0124433
0.0885878
-0.0113337
0.0885854
-0.0101954
0.0886141
-0.00902945
0.088675
-0.00783725
0.0887693
-0.00662042
0.0888979
-0.00538058
0.0890617
-0.00411936
0.0892618
-0.00283844
0.089499
-0.00153965
0.0897702
-0.00022602
0.0900834
0.00110552
0.090435
0.00244801
0.0908257
0.00380084
0.0912557
0.00516227
0.00653024
0.0937932
-0.016292
-0.094034
0.0935782
-0.0153603
0.0933903
-0.0143806
0.0932316
-0.0133642
0.093104
-0.0123157
0.0930087
-0.0112384
0.0929468
-0.0101335
0.0929194
-0.0090021
0.0929277
-0.00784559
0.0929728
-0.0066655
0.0930556
-0.00546339
0.0931771
-0.00424083
0.0933381
-0.00299945
0.0935394
-0.00174095
0.0937808
-0.000467414
0.0940653
0.000821058
0.0943921
0.00212123
0.0947616
0.00343125
0.0951745
0.00474946
0.00607395
0.0987254
-0.0159727
-0.0990446
0.0984351
-0.0150701
0.0981755
-0.014121
0.0979486
-0.0131373
0.0977561
-0.0121232
0.0975993
-0.0110816
0.0974793
-0.0100135
0.0973972
-0.00891999
0.0973541
-0.00780251
0.0973511
-0.00666251
0.0973892
-0.00550146
0.0974692
-0.00432089
0.0975921
-0.00312236
0.0977587
-0.00190748
0.0979693
-0.000678069
0.0982256
0.000564808
0.0985275
0.00181929
0.0988757
0.00308306
0.0992706
0.00435458
0.00563203
0.103828
-0.0155768
-0.104224
0.103464
-0.0147063
0.103134
-0.0137913
0.102841
-0.0128437
0.102585
-0.0118674
0.102368
-0.0108647
0.102191
-0.0098366
0.102055
-0.00878432
0.101962
-0.00770914
0.101912
-0.00661246
0.101906
-0.00549571
0.101946
-0.00436035
0.102031
-0.00320789
0.102164
-0.00203987
0.102344
-0.000857952
0.102572
0.000336287
0.102849
0.00154199
0.103176
0.00275632
0.103553
0.00397793
0.00520511
0.109109
-0.015106
-0.10958
0.108674
-0.0142708
0.108276
-0.0133932
0.107917
-0.012485
0.107599
-0.0115496
0.107323
-0.0105889
0.107091
-0.00960408
0.106903
-0.00859618
0.10676
-0.00756646
0.106664
-0.00651626
0.106615
-0.00544697
0.106615
-0.00435996
0.106664
-0.00325669
0.106762
-0.00213865
0.106912
-0.00100738
0.107113
0.000134948
0.107366
0.0012891
0.107671
0.00245091
0.10803
0.00361956
0.00479341
0.114579
-0.0145622
-0.115123
0.114074
-0.0137652
0.113609
-0.0129282
0.113186
-0.0120625
0.112808
-0.011171
0.112474
-0.0102556
0.112187
-0.00931705
0.111948
-0.0083566
0.111757
-0.00737542
0.111615
-0.00637478
0.111524
-0.005356
0.111485
-0.00432042
0.111497
-0.00326939
0.111563
-0.00220435
0.111683
-0.00112675
0.111857
-3.97082e-05
0.112086
0.00106027
0.11237
0.00216654
0.112711
0.00327926
0.00439684
0.120248
-0.0139469
-0.120863
0.119674
-0.0131911
0.119144
-0.0123979
0.118659
-0.0115776
0.118221
-0.0107331
0.117831
-0.00986572
0.11749
-0.00897653
0.1172
-0.00806654
0.116962
-0.00713691
0.116776
-0.00618886
0.116644
-0.00522362
0.116566
-0.00424249
0.116543
-0.00324676
0.116576
-0.00223779
0.116667
-0.00121699
0.116813
-0.00018607
0.117019
0.000854719
0.117282
0.00190266
0.117605
0.00295657
0.004015
0.126127
-0.0132619
-0.126812
0.125486
-0.0125501
0.124892
-0.0118035
0.124345
-0.0110316
0.123849
-0.0102368
0.123404
-0.00942045
0.123011
-0.00858347
0.122671
-0.00772685
0.122386
-0.0068517
0.122156
-0.00595917
0.121983
-0.00505042
0.121867
-0.00412668
0.12181
-0.00318919
0.121811
-0.00223922
0.121872
-0.0012781
0.121993
-0.000307271
0.122176
0.000672354
0.12242
0.00165895
0.122725
0.00265113
0.00364751
0.132229
-0.0125088
-0.132982
0.131522
-0.0118437
0.130865
-0.0111463
0.130259
-0.0104255
0.129706
-0.00968325
0.129206
-0.00892069
0.128761
-0.00813875
0.128373
-0.00733835
0.128041
-0.00652055
0.127769
-0.00568643
0.127555
-0.00483708
0.127402
-0.00397366
0.12731
-0.00309734
0.127281
-0.00220932
0.127313
-0.00131083
0.127409
-0.000403205
0.127569
0.000512504
0.127793
0.00143481
0.128082
0.00236233
0.00329375
0.138568
-0.0116888
-0.139388
0.137798
-0.011073
0.137079
-0.0104276
0.136414
-0.00976051
0.135804
-0.00907339
0.135251
-0.00836733
0.134755
-0.00764316
0.134318
-0.00690178
0.133942
-0.00614415
0.133627
-0.00537129
0.133374
-0.00458423
0.133184
-0.00378405
0.133059
-0.00297182
0.132998
-0.00214869
0.133003
-0.00131581
0.133074
-0.00047438
0.133212
0.000374491
0.133418
0.00122955
0.133691
0.00208945
0.00295297
0.145162
-0.0108033
-0.146048
0.144328
-0.0102393
0.143549
-0.00964832
0.142826
-0.00903744
0.142161
-0.00840806
0.141555
-0.00776113
0.141009
-0.00709743
0.140525
-0.00641779
0.140104
-0.00572313
0.139747
-0.00501437
0.139455
-0.00429247
0.13923
-0.00355842
0.139071
-0.00281323
0.13898
-0.00205795
0.138958
-0.00129364
0.139005
-0.000521425
0.139122
0.000257627
0.139309
0.00104244
0.139567
0.00183173
0.00262435
0.15203
-0.00985341
-0.15298
0.151134
-0.00934344
0.150295
-0.00880934
0.149515
-0.00825712
0.148795
-0.00768797
0.148136
-0.00710275
0.147541
-0.00650216
0.14701
-0.00588699
0.146545
-0.00525806
0.146147
-0.00461622
0.145817
-0.00396235
0.145556
-0.00329734
0.145365
-0.00262215
0.145244
-0.0019377
0.145196
-0.00124499
0.145219
-0.000545025
0.145316
0.00016116
0.145486
0.000872683
0.145729
0.00158828
0.00230694
0.159193
-0.00883992
-0.160206
0.158236
-0.00838634
0.157338
-0.00791139
0.156501
-0.00742019
0.155727
-0.00691373
0.155017
-0.00639274
0.154372
-0.0058579
0.153795
-0.00530988
0.153287
-0.00474944
0.152848
-0.00417735
0.15248
-0.00359439
0.152184
-0.00300138
0.151961
-0.00239916
0.151812
-0.00178858
0.151737
-0.00117054
0.151738
-0.000545924
0.151815
8.42638e-05
0.151969
0.000719371
0.152199
0.00135814
0.00199968
0.166677
-0.00776355
-0.167753
0.165659
-0.00736857
0.164703
-0.006955
0.16381
-0.00652714
0.162982
-0.00608577
0.162221
-0.00563155
0.161528
-0.00516504
0.160905
-0.00468688
0.160353
-0.00419771
0.159874
-0.00369821
0.159469
-0.00318909
0.159138
-0.00267106
0.158884
-0.00214486
0.158707
-0.00161125
0.158607
-0.001071
0.158586
-0.000524923
0.158644
2.59855e-05
0.158782
0.000581517
0.159
0.00114019
0.00170135
0.17451
-0.00662476
-0.175649
0.173432
-0.00629051
0.172418
-0.00594053
0.171469
-0.00557829
0.170588
-0.00520442
0.169776
-0.00481946
0.169034
-0.00442391
0.168366
-0.00401831
0.167771
-0.00360323
0.167252
-0.00317923
0.16681
-0.00274692
0.166446
-0.00230692
0.166161
-0.00185987
0.165956
-0.0014064
0.165832
-0.000947194
0.16579
-0.000482933
0.165831
-1.45398e-05
0.165955
0.000457968
0.166162
0.000933164
0.00141055
0.182726
-0.00542381
-0.183927
0.181588
-0.00515241
0.180516
-0.00486816
0.179511
-0.00457381
0.178577
-0.00426983
0.177714
-0.00395666
0.176925
-0.00363472
0.176211
-0.00330444
0.175574
-0.0029663
0.175016
-0.00262076
0.174537
-0.00226833
0.17414
-0.0019095
0.173825
-0.00154481
0.173593
-0.00117479
0.173446
-0.000799987
0.173384
-0.000420971
0.173408
-3.83722e-05
0.173518
0.000347418
0.173716
0.000735602
0.00112563
0.191362
-0.00416079
-0.192625
0.190164
-0.0039543
0.189034
-0.00373794
0.187973
-0.00351375
0.186986
-0.00328208
0.186072
-0.00304326
0.185235
-0.00279762
0.184476
-0.00254548
0.183797
-0.00228722
0.1832
-0.00202319
0.182685
-0.00175379
0.182255
-0.00147939
0.181911
-0.00120042
0.181653
-0.000917268
0.181483
-0.00063038
0.181403
-0.000340183
0.181411
-4.71521e-05
0.18151
0.000248354
0.1817
0.000545778
0.000844678
0.20046
-0.00283572
-0.201785
0.199202
-0.00269615
0.198014
-0.00254982
0.196898
-0.00239809
0.195857
-0.00224118
0.194893
-0.00207931
0.194008
-0.0019127
0.193204
-0.0017416
0.192483
-0.00156624
0.191847
-0.00138688
0.191297
-0.00120378
0.190835
-0.00101721
0.190462
-0.000827453
0.190179
-0.000634783
0.189988
-0.000439499
0.18989
-0.000241903
0.189885
-4.23093e-05
0.189975
0.000159012
0.190159
0.000361696
0.000565436
0.210067
-0.00144856
-0.211454
0.208748
-0.00137792
0.207502
-0.00130377
0.206331
-0.00122681
0.205237
-0.00114715
0.204223
-0.00106491
0.20329
-0.000980195
0.202442
-0.000893129
0.201679
-0.000803836
0.201005
-0.000712447
0.20042
-0.000619097
0.199927
-0.000523925
0.199526
-0.000427076
0.19922
-0.000328696
0.19901
-0.000228939
0.198896
-0.000127958
0.198879
-2.59244e-05
0.198961
7.70366e-05
0.199142
0.000180724
0.000284981
0.22024
-0.221688
0.218862
0.217558
0.216331
0.215184
0.214119
0.213139
0.212246
0.211442
0.210729
0.21011
0.209586
0.209159
0.208831
0.208602
0.208474
0.208448
0.208525
0.208706
0.0503664
0.00160822
-0.00152366
0.0501437
0.00434715
-0.00412445
0.0498065
0.00681964
-0.00648243
0.0493708
0.00920144
-0.00876577
0.0488511
0.0116504
-0.0111307
0.048264
0.0142318
-0.0136447
0.0476332
0.0169879
-0.016357
0.0469909
0.0199321
-0.0192898
0.0463838
0.0230462
-0.022439
0.0458711
0.0262837
-0.025771
0.0455315
0.029559
-0.0292193
0.0454475
0.0327362
-0.0326522
0.0457107
0.0356556
-0.0359189
0.04636
0.0379854
-0.0386347
0.0393682
-0.0407257
0.052837