/*--------------------------------*- C++ -*----------------------------------*\
  =========                 |
  \\      /  F ield         | OpenFOAM: The Open Source CFD Toolbox
   \\    /   O peration     | Website:  https://openfoam.org
    \\  /    A nd           | Version:  7
     \\/     M anipulation  |
\*---------------------------------------------------------------------------*/
FoamFile
{
    version     2.0;
    format      ascii;
    class       volVectorField;
    location    "10";
    object      U;
}
// * * * * * * * * * * * * * * * * * * * * * * * * * * * * * * * * * * * * * //

dimensions      [0 1 -1 0 0 0 0];

internalField   nonuniform List<vector> 
2125
(
(0.00978018 -0.00537407 -4.42725e-20)
(0.0130687 -0.00693714 1.62137e-20)
(0.0526531 -0.0214671 1.87783e-20)
(0.0167501 -0.00841463 -1.09765e-20)
(0.0635417 -0.0246745 -8.57381e-21)
(0.0208235 -0.00976488 2.30465e-20)
(0.0754031 -0.0274633 -6.84169e-21)
(0.1463 -0.0376002 -4.0897e-21)
(0.0252838 -0.010946 -8.55558e-21)
(0.0882058 -0.0297247 -5.37246e-20)
(0.167179 -0.0395199 5.77916e-21)
(0.258929 -0.0432184 2.03521e-20)
(0.0301214 -0.0119165 -9.27231e-21)
(0.101905 -0.0313529 1.91736e-20)
(0.18924 -0.0403927 2.56044e-20)
(0.288721 -0.0424137 -1.89414e-20)
(0.398056 -0.0380147 7.17066e-21)
(0.514514 -0.0280217 -4.56357e-20)
(0.0353216 -0.0126351 -1.183e-20)
(0.116441 -0.0322458 -4.00605e-21)
(0.212363 -0.0400802 -4.61882e-20)
(0.31957 -0.0400221 -7.39627e-21)
(0.435517 -0.0329638 -7.28606e-22)
(0.557143 -0.0200317 2.80323e-21)
(0.68082 -0.0027664 4.76518e-21)
(0.0408643 -0.0130618 -2.98682e-21)
(0.131739 -0.0323073 1.57448e-20)
(0.236411 -0.0384569 2.2616e-20)
(0.351265 -0.0359137 1.46064e-20)
(0.473507 -0.0258854 -4.46434e-21)
(0.599759 -0.00981821 -3.84273e-21)
(0.726058 0.0104368 3.97114e-20)
(0.848071 0.0329146 5.78213e-21)
(0.0467232 -0.0131579 2.93285e-20)
(0.147711 -0.0314483 2.02073e-20)
(0.261222 -0.0354128 -2.12187e-20)
(0.383571 -0.0299838 -4.33042e-21)
(0.51172 -0.0167058 2.32455e-21)
(0.641997 0.00263651 -9.04303e-21)
(0.770158 0.0258719 -2.05075e-20)
(0.891672 0.0507711 -3.4188e-21)
(1.00213 0.0752645 1.79401e-22)
(1.09636 0.0931145 9.65292e-21)
(0.0528659 -0.0128866 3.34476e-21)
(0.16425 -0.029588 -1.10023e-20)
(0.286613 -0.0308548 2.69423e-20)
(0.416228 -0.0221539 1.812e-20)
(0.549829 -0.00538678 5.19128e-22)
(0.683483 0.0173086 1.40215e-20)
(0.812731 0.0434371 2.12307e-21)
(0.932945 0.0705154 -1.6392e-20)
(1.03979 0.0962826 1.46187e-20)
(1.12877 0.115209 1.47607e-22)
(0.0592534 -0.0122141 -2.38081e-20)
(0.181238 -0.0266563 -7.46075e-21)
(0.312385 -0.0247093 -7.06126e-21)
(0.44896 -0.0123743 -1.26214e-20)
(0.587495 0.00807399 3.05718e-21)
(0.72384 0.0341348 8.82339e-23)
(0.853398 0.0629941 1.14468e-20)
(0.971552 0.0919357 -1.91903e-21)
(1.07418 0.118551 -1.50853e-20)
(1.15751 0.138017 -1.4559e-20)
(0.0658401 -0.0111097 1.89223e-21)
(0.198538 -0.0225945 1.18635e-20)
(0.338318 -0.0169234 5.86528e-21)
(0.481475 -0.000624185 -1.93502e-20)
(0.624369 0.0236437 -1.07474e-21)
(0.762696 0.0530152 -9.31589e-21)
(0.891803 0.0843725 2.57144e-22)
(1.0072 0.114801 4.8802e-21)
(1.1051 0.1418 -5.73428e-21)
(1.18248 0.161258 1.64943e-20)
(0.0725739 -0.00954712 4.35742e-21)
(0.216004 -0.0173579 -1.13916e-20)
(0.36418 -0.00746715 -2.79605e-20)
(0.513469 0.0130868 2.69869e-20)
(0.660105 0.0412551 -2.15339e-21)
(0.799692 0.0738159 6.708e-21)
(0.927619 0.107376 -1.02869e-21)
(1.03963 0.138867 7.28304e-21)
(1.13239 0.165765 -5.50255e-22)
(1.20368 0.184677 -1.27639e-20)
(0.0793969 -0.00750529 -8.6802e-21)
(0.233476 -0.0109167 1.46005e-20)
(0.389727 0.00366543 1.26519e-20)
(0.544635 0.0287184 -1.90721e-20)
(0.69436 0.0608074 -3.33741e-21)
(0.834491 0.0963729 1.36219e-21)
(0.960554 0.131785 1.47184e-20)
(1.06864 0.163882 8.18748e-22)
(1.15597 0.190191 3.1929e-21)
(1.22112 0.208045 -7.11701e-21)
(0.0862457 -0.00496905 6.55941e-21)
(0.250785 -0.00325816 -6.30554e-21)
(0.414707 0.0164549 -5.47411e-21)
(0.574666 0.0461996 1.00373e-20)
(0.726805 0.0821685 3.72841e-21)
(0.866779 0.120495 3.0266e-21)
(0.990356 0.157364 -1.49761e-20)
(1.09407 0.189591 -5.47584e-21)
(1.1758 0.214833 -5.12067e-21)
(1.23488 0.23116 2.34492e-21)
(0.0930525 -0.00193007 -3.13509e-21)
(0.267755 0.00561257 -6.80812e-23)
(0.438866 0.0308559 1.03424e-20)
(0.603259 0.0654292 -4.04908e-21)
(0.757125 0.105177 -1.88454e-21)
(0.896275 0.145967 -1.33761e-21)
(1.01681 0.183866 3.6367e-21)
(1.11582 0.215738 6.66023e-21)
(1.19186 0.239457 -2.12543e-22)
(1.24506 0.253841 2.60548e-21)
(0.0997454 0.00161255 2.18535e-21)
(0.284205 0.0156712 -6.63864e-22)
(0.461949 0.0467963 -1.82495e-21)
(0.630121 0.0862765 -1.7547e-21)
(0.785032 0.129643 1.71936e-21)
(0.922734 0.172555 1.45461e-21)
(1.03976 0.211033 -1.42396e-21)
(1.13382 0.242073 5.58611e-22)
(1.2042 0.263846 8.13547e-22)
(1.25179 0.275926 -1.10702e-21)
(0.10625 0.00565164 1.12067e-21)
(0.299954 0.0268738 3.57433e-22)
(0.483708 0.0641779 -2.17433e-21)
(0.654976 0.108583 -1.87509e-21)
(0.810262 0.155356 2.11854e-21)
(0.945946 0.200011 4.43309e-22)
(1.05908 0.238605 -1.15466e-21)
(1.14805 0.268353 1.13786e-21)
(1.21291 0.287797 6.64007e-22)
(1.25523 0.297274 -7.75723e-22)
(0.112492 0.0101716 -4.56806e-22)
(0.314821 0.0391563 9.42091e-22)
(0.503901 0.0828767 6.55401e-21)
(0.677567 0.132165 -3.14618e-21)
(0.832582 0.182081 -1.73467e-21)
(0.965743 0.228072 -2.1239e-21)
(1.07469 0.26632 4.63213e-21)
(1.15853 0.294342 3.28876e-21)
(1.21809 0.311121 2.74183e-21)
(1.25553 0.317758 1.51926e-21)
(0.118395 0.0151481 8.50462e-21)
(0.32863 0.0524347 -5.01986e-21)
(0.522303 0.102744 -6.24699e-21)
(0.697659 0.156815 9.09508e-21)
(0.851796 0.209569 5.24193e-21)
(0.981996 0.256471 -3.92641e-22)
(1.08655 0.29392 -7.70328e-21)
(1.16532 0.319816 -5.91316e-21)
(1.21986 0.333644 -6.38209e-21)
(1.2529 0.337266 3.82338e-21)
(0.123884 0.0205482 -1.13581e-20)
(0.341214 0.0666059 1.14096e-20)
(0.538704 0.123609 1.38916e-20)
(0.715047 0.182304 -1.50675e-20)
(0.867741 0.237555 -5.81095e-21)
(0.994617 0.284934 4.08705e-21)
(1.09466 0.32115 8.10585e-21)
(1.16849 0.344561 1.33392e-21)
(1.21838 0.355206 -2.05023e-22)
(1.2475 0.355697 -5.11542e-21)
(0.128889 0.0263302 -1.52161e-21)
(0.352416 0.0815482 -1.5666e-20)
(0.552917 0.14528 -1.79831e-20)
(0.729558 0.208388 2.22761e-20)
(0.880293 0.265765 -2.72316e-21)
(1.00356 0.313188 5.62844e-21)
(1.09906 0.347763 1.22535e-21)
(1.16816 0.368378 -3.61949e-21)
(1.21381 0.375658 2.02631e-21)
(1.23952 0.372959 -1.59639e-22)
(0.133343 0.0324442 3.08755e-21)
(0.362094 0.0971232 9.39019e-21)
(0.564776 0.167546 5.88255e-21)
(0.741047 0.234808 -4.95816e-21)
(0.889365 0.293921 -8.39282e-21)
(1.0088 0.340962 -8.94602e-21)
(1.09981 0.373524 -1.95516e-21)
(1.16446 0.391077 5.35891e-21)
(1.20632 0.394864 -1.1827e-21)
(1.22916 0.38897 2.77404e-21)
(0.137183 0.0388327 -1.09826e-20)
(0.370122 0.113177 -1.13883e-20)
(0.574145 0.190182 -1.85997e-21)
(0.749409 0.261294 -2.30885e-21)
(0.89491 0.32174 -6.04981e-21)
(1.01038 0.367992 4.2528e-21)
(1.097 0.398205 -8.41495e-22)
(1.15754 0.412483 -4.80962e-21)
(1.19609 0.412694 4.44524e-21)
(1.21661 0.403657 -6.10309e-21)
(0.140354 0.0454309 3.09632e-21)
(0.376392 0.129544 9.5795e-21)
(0.580916 0.212952 8.93597e-21)
(0.754573 0.287571 1.07796e-20)
(0.896918 0.348942 3.89118e-22)
(1.00836 0.39402 1.16001e-20)
(1.09077 0.421594 7.22976e-22)
(1.14756 0.432431 -1.54707e-20)
(1.1833 0.429027 1.13144e-20)
(1.20198 0.416944 4.33739e-21)
(0.14281 0.0521683 6.85855e-21)
(0.380818 0.146045 1.60775e-20)
(0.585012 0.23561 -2.48794e-21)
(0.756503 0.313361 -1.32028e-20)
(0.895418 0.375251 6.79763e-21)
(1.00282 0.418802 -7.91926e-21)
(1.08124 0.443492 -1.10927e-20)
(1.1347 0.450779 -6.31687e-22)
(1.1681 0.443769 -8.91888e-21)
(1.18536 0.428704 3.33913e-21)
(0.14451 0.0589688 2.7868e-21)
(0.383338 0.162496 1.6981e-21)
(0.586387 0.257904 2.12509e-20)
(0.755202 0.338388 4.69694e-21)
(0.890471 0.400399 -4.33385e-21)
(0.993888 0.442104 -2.666e-21)
(1.0686 0.463716 1.6203e-20)
(1.11913 0.4674 1.38847e-20)
(1.15071 0.456894 7.02465e-21)
(1.16707 0.438802 -7.90248e-22)
(0.145428 0.0657527 4.78766e-22)
(0.38391 0.178705 -1.5906e-20)
(0.585029 0.279582 -2.43377e-20)
(0.750708 0.362378 8.18156e-22)
(0.882175 0.424129 6.64532e-21)
(0.981712 0.463708 -9.21855e-21)
(1.05301 0.482094 -2.2729e-20)
(1.10105 0.482153 -7.02855e-21)
(1.13129 0.468271 -3.86374e-22)
(1.14736 0.447364 2.2941e-21)
(0.145542 0.0724374 -4.4655e-21)
(0.38252 0.19448 1.17116e-20)
(0.580957 0.300393 1.39967e-20)
(0.743093 0.385067 -1.44261e-20)
(0.87066 0.446195 2.48637e-21)
(0.966466 0.483412 2.10691e-20)
(1.03467 0.498475 -4.04604e-21)
(1.08064 0.49494 4.12627e-21)
(1.10998 0.477787 -1.36679e-21)
(1.12629 0.454285 -1.57042e-21)
(0.144846 0.0789388 -8.80322e-21)
(0.379177 0.209627 -1.8826e-20)
(0.574223 0.320092 -4.27532e-21)
(0.732465 0.4062 7.88585e-21)
(0.856085 0.466369 8.43258e-21)
(0.948346 0.50103 -2.00059e-20)
(1.0138 0.512725 1.13784e-20)
(1.0581 0.505669 -4.83637e-21)
(1.08698 0.485385 3.17507e-21)
(1.10394 0.459467 5.31935e-22)
(0.143343 0.0851732 6.79526e-21)
(0.373914 0.223956 1.17872e-21)
(0.56491 0.338442 -1.55314e-21)
(0.718962 0.425538 -8.56707e-21)
(0.838634 0.48444 5.4614e-21)
(0.927569 0.516397 2.37986e-21)
(0.990622 0.524726 -4.70201e-21)
(1.03363 0.514264 2.06187e-21)
(1.06243 0.49101 1.00873e-22)
(1.08046 0.462843 -1.84978e-21)
(0.141045 0.0910584 -1.24521e-21)
(0.366788 0.237282 -1.21066e-21)
(0.553131 0.355214 6.5245e-21)
(0.702751 0.442855 3.87254e-21)
(0.81852 0.500212 -6.90317e-21)
(0.904375 0.529366 7.96936e-21)
(0.965362 0.534379 1.44806e-21)
(1.00744 0.520664 2.45373e-21)
(1.03648 0.494619 4.79833e-21)
(1.05594 0.464344 9.15249e-22)
(0.137972 0.0965113 6.89488e-21)
(0.357882 0.24943 7.03297e-21)
(0.539026 0.370196 -1.8825e-21)
(0.684023 0.457944 -1.02006e-21)
(0.795979 0.513514 -2.47295e-21)
(0.879017 0.539809 -1.46285e-21)
(0.938277 0.541604 2.34499e-21)
(0.979733 0.524827 4.03172e-22)
(1.00924 0.496184 -4.14968e-21)
(1.03048 0.463895 -6.03258e-21)
(0.13416 0.10145 -1.87555e-21)
(0.347301 0.260231 -4.21008e-22)
(0.52276 0.383192 -4.8257e-21)
(0.662999 0.470617 2.08018e-21)
(0.771264 0.52419 -1.88011e-21)
(0.851766 0.547618 3.78642e-21)
(0.909629 0.546338 2.15709e-23)
(0.950732 0.526734 1.1003e-21)
(0.980844 0.495695 -4.80734e-21)
(1.00412 0.461415 7.25516e-21)
(0.129657 0.105804 -2.62829e-21)
(0.335164 0.269529 -2.38086e-22)
(0.50452 0.394024 -6.44094e-22)
(0.639918 0.480709 -1.73566e-21)
(0.744646 0.532108 -2.22965e-21)
(0.822905 0.552701 6.46857e-22)
(0.879701 0.548536 2.86157e-21)
(0.920675 0.526383 -1.26479e-20)
(0.95139 0.493156 2.81673e-20)
(0.976908 0.456775 1.17259e-20)
(0.124514 0.109508 -1.53795e-22)
(0.321609 0.277186 -6.26711e-21)
(0.484514 0.402531 4.64173e-21)
(0.615034 0.488073 -1.43881e-21)
(0.716406 0.537155 2.28479e-21)
(0.792729 0.554987 -4.54689e-21)
(0.848789 0.548168 -9.73828e-21)
(0.889831 0.523803 5.1405e-21)
(0.921045 0.488622 -1.97603e-21)
(0.948776 0.449864 -5.58929e-21)
(0.11879 0.112499 -1.89722e-21)
(0.306795 0.283078 1.61333e-21)
(0.462969 0.408576 -3.53203e-21)
(0.588617 0.492588 3.67091e-21)
(0.686837 0.539239 7.55835e-21)
(0.761537 0.554414 5.07216e-21)
(0.8172 0.545214 1.71605e-20)
(0.858542 0.519047 -1.26575e-20)
(0.890227 0.482316 -2.52689e-20)
(0.919485 0.441085 1.06108e-20)
(0.112553 0.114722 -4.40409e-21)
(0.290892 0.287099 -4.15156e-21)
(0.440123 0.412045 1.51393e-21)
(0.560946 0.494157 1.24011e-20)
(0.656231 0.538289 -1.44549e-20)
(0.729621 0.550934 -2.01244e-20)
(0.785239 0.539632 -6.41818e-21)
(0.827248 0.512088 -1.07079e-21)
(0.859867 0.474514 3.23692e-20)
(0.888658 0.430873 -8.33065e-21)
(0.105878 0.116133 1.30718e-20)
(0.274081 0.289162 -6.63338e-22)
(0.416227 0.412847 -2.30977e-21)
(0.532305 0.492708 -5.69368e-24)
(0.624879 0.534256 -7.6307e-21)
(0.697255 0.544513 3.67097e-20)
(0.753165 0.531364 -2.55568e-20)
(0.796353 0.50268 3.20859e-20)
(0.83095 0.464725 -2.38458e-20)
(0.86185 0.421167 -3.22906e-20)
(0.0988438 0.116692 -6.18465e-21)
(0.256554 0.289198 2.73285e-21)
(0.391537 0.41092 -1.08169e-21)
(0.502984 0.488198 1.24975e-20)
(0.593069 0.527123 -4.34763e-21)
(0.664695 0.535152 6.84151e-21)
(0.721159 0.520422 1.52574e-20)
(0.765791 0.490851 -8.36189e-21)
(0.802434 0.452677 -2.19605e-20)
(0.835083 0.409622 3.20464e-20)
(0.0915351 0.116373 1.27382e-20)
(0.23851 0.287162 1.78531e-20)
(0.36632 0.406223 -1.4931e-20)
(0.473275 0.480609 -1.29907e-20)
(0.561088 0.516896 3.87852e-20)
(0.6322 0.522882 -3.99199e-20)
(0.689426 0.506865 4.92552e-20)
(0.73566 0.476732 -1.32802e-20)
(0.774349 0.438642 1.48992e-20)
(0.808725 0.396433 2.81265e-20)
(0.0840397 0.115156 -5.95547e-21)
(0.220153 0.283029 -1.61103e-20)
(0.340844 0.398748 -6.68285e-21)
(0.44347 0.469954 -4.31458e-21)
(0.529226 0.503611 3.53827e-21)
(0.600031 0.507756 -9.77118e-21)
(0.658189 0.490759 -1.48113e-20)
(0.706144 0.460419 -3.32697e-20)
(0.746915 0.422782 3.45164e-20)
(0.783117 0.38174 -1.18532e-20)
(0.0764473 0.113033 2.24175e-20)
(0.201689 0.276793 -1.51143e-21)
(0.315376 0.388507 -8.78522e-21)
(0.413862 0.456269 1.28161e-20)
(0.497766 0.487322 -2.33645e-20)
(0.568449 0.489841 6.31881e-20)
(0.627677 0.47218 -3.52169e-20)
(0.677439 0.441984 3.38693e-20)
(0.720322 0.405154 -6.57302e-20)
(0.758424 0.365563 -1.81931e-20)
(0.0688489 0.110005 -9.2089e-21)
(0.183325 0.268472 2.39195e-20)
(0.290186 0.375541 6.28326e-21)
(0.384739 0.439615 -1.10237e-20)
(0.466988 0.468107 -1.97859e-20)
(0.537709 0.469222 -1.11048e-21)
(0.598115 0.451209 1.17761e-20)
(0.649739 0.421497 -3.0115e-20)
(0.694744 0.385801 1.60064e-20)
(0.734788 0.347909 2.08559e-21)
(0.0613355 0.106084 -3.55944e-20)
(0.165267 0.258105 -9.58126e-21)
(0.265534 0.359914 -2.44571e-21)
(0.356379 0.420078 2.81308e-20)
(0.437164 0.446064 -2.6943e-20)
(0.508057 0.446 -7.557e-21)
(0.569717 0.42794 -4.72277e-21)
(0.623229 0.399038 9.37176e-21)
(0.670342 0.364775 -1.23833e-20)
(0.712342 0.328801 -2.04285e-20)
(0.0539965 0.10129 2.94943e-20)
(0.147714 0.24575 -1.69168e-20)
(0.241676 0.341715 1.04578e-21)
(0.329053 0.397767 -4.24158e-20)
(0.408552 0.42131 4.759e-20)
(0.479727 0.42029 -1.58557e-20)
(0.542688 0.402477 1.00187e-20)
(0.598082 0.374692 9.25133e-21)
(0.647266 0.34214 2.83099e-20)
(0.691204 0.308282 -1.19784e-20)
(0.0469192 0.0956529 -1.19414e-20)
(0.13086 0.231485 3.52325e-20)
(0.218857 0.321056 1.97751e-20)
(0.303021 0.372814 3.25525e-20)
(0.3814 0.393984 -8.0273e-21)
(0.452942 0.392224 3.2756e-21)
(0.517218 0.37494 2.84454e-20)
(0.57446 0.348559 6.64269e-21)
(0.625648 0.317971 6.47747e-22)
(0.671477 0.286411 -1.4334e-20)
(0.0401875 0.0892128 -2.55157e-20)
(0.114891 0.215406 -2.01288e-21)
(0.19731 0.298071 -1.12394e-20)
(0.278525 0.345371 -5.16669e-20)
(0.355938 0.36424 -5.22801e-20)
(0.427906 0.361948 9.20665e-21)
(0.493486 0.345457 -2.40284e-20)
(0.552509 0.320748 1.62562e-20)
(0.605611 0.292357 9.39679e-21)
(0.653256 0.263263 2.0648e-20)
(0.033881 0.0820173 3.60705e-20)
(0.0999814 0.197629 -3.12625e-20)
(0.177252 0.272914 -1.59002e-20)
(0.255793 0.315611 2.98628e-20)
(0.332383 0.332252 3.53003e-20)
(0.404812 0.329626 -1.22636e-20)
(0.471652 0.314173 -1.60042e-21)
(0.532366 0.291381 -5.03812e-20)
(0.587263 0.265399 -3.01286e-20)
(0.636622 0.238925 1.2177e-20)
(0.0280739 0.0741225 -2.04652e-20)
(0.086293 0.178285 9.17779e-21)
(0.158887 0.24576 3.39639e-20)
(0.235035 0.283724 -1.55172e-20)
(0.310931 0.29821 1.20747e-21)
(0.383834 0.295432 4.94855e-20)
(0.451866 0.281242 2.4465e-21)
(0.51415 0.26059 4.81087e-20)
(0.570705 0.237208 2.13076e-20)
(0.621649 0.213497 -3.56328e-20)
(0.0228344 0.0655918 2.73518e-20)
(0.0739743 0.15752 3.17376e-21)
(0.142397 0.216798 2.19864e-21)
(0.216441 0.24992 3.18305e-20)
(0.291759 0.262319 -4.51347e-21)
(0.365128 0.259555 -3.09553e-20)
(0.434259 0.246832 1.61837e-20)
(0.497972 0.22852 -2.7152e-20)
(0.556023 0.207906 -1.2007e-20)
(0.608403 0.187085 1.29597e-20)
(0.0182241 0.0564955 -1.70823e-20)
(0.0631587 0.135495 -3.44226e-20)
(0.127947 0.186238 8.1048e-21)
(0.200181 0.214421 -1.66747e-20)
(0.275027 0.224796 -1.07161e-20)
(0.348832 0.222195 2.74569e-20)
(0.418949 0.211117 -6.98203e-21)
(0.483926 0.19532 6.96394e-21)
(0.543293 0.177624 -8.98903e-21)
(0.59694 0.159807 1.86243e-20)
(0.0142969 0.04691 6.06108e-21)
(0.0539624 0.112382 2.30364e-20)
(0.115681 0.154299 -3.28776e-20)
(0.186401 0.177465 1.6314e-20)
(0.260871 0.185872 -7.84422e-21)
(0.335067 0.183563 -2.34806e-20)
(0.406035 0.174285 2.03467e-20)
(0.472094 0.161153 4.62718e-21)
(0.532583 0.1465 -6.67008e-22)
(0.587312 0.131784 -2.17713e-20)
(0.0110987 0.0369168 1.92733e-21)
(0.0464844 0.0883633 7.27811e-21)
(0.105721 0.121216 2.95906e-20)
(0.175225 0.1393 -5.94282e-21)
(0.249406 0.145787 -4.95826e-21)
(0.323934 0.143878 1.94576e-21)
(0.395601 0.136527 8.60193e-22)
(0.462546 0.126183 8.04846e-21)
(0.523948 0.114678 -1.12086e-20)
(0.579558 0.103145 -7.51439e-21)
(0.00866687 0.0266019 -4.89612e-21)
(0.0408047 0.063632 -8.91073e-21)
(0.098163 0.0872332 -2.29137e-20)
(0.166755 0.100185 1.20896e-20)
(0.240725 0.104791 1.04383e-20)
(0.315512 0.103365 4.49155e-22)
(0.387717 0.0980423 -1.98327e-20)
(0.455336 0.0905841 -9.36723e-21)
(0.517433 0.0823073 7.85965e-21)
(0.573714 0.0740234 8.89304e-21)
(0.00702971 0.0160548 8.51117e-22)
(0.0369842 0.0383863 -1.84515e-21)
(0.093083 0.0526011 4.34859e-21)
(0.161066 0.0603864 -3.09076e-21)
(0.234899 0.0631381 -2.87559e-21)
(0.309864 0.0622582 -2.0646e-21)
(0.382432 0.0590354 4.06674e-21)
(0.450506 0.0545324 1.64431e-20)
(0.51307 0.0495429 2.51574e-21)
(0.569803 0.0445537 -4.7456e-21)
(0.158209 0.0201748 -2.61489e-21)
(0.231974 0.0210901 2.64383e-21)
(0.307029 0.0207927 1.26708e-21)
(0.379781 0.0197135 -1.33975e-21)
(0.448084 0.0182079 -6.50527e-21)
(0.510883 0.0165408 2.26356e-21)
(0.567844 0.0148746 -2.24431e-21)
(1.27205 0.278879 -1.19095e-22)
(1.26922 0.259882 -1.18799e-21)
(1.26339 0.24014 -2.29461e-22)
(1.25439 0.219763 -7.64458e-22)
(1.24207 0.198879 4.16099e-21)
(1.22631 0.17764 -3.9115e-21)
(1.207 0.156224 2.48927e-21)
(1.1841 0.134838 9.95474e-21)
(1.28188 0.278534 -2.61448e-23)
(1.2819 0.262325 1.01447e-21)
(1.27936 0.245367 8.87033e-22)
(1.27407 0.227728 -4.34832e-21)
(1.26587 0.209495 1.41821e-21)
(1.25461 0.190773 -8.73863e-22)
(1.24016 0.171688 2.41021e-21)
(1.22242 0.152393 -4.69899e-21)
(1.28643 0.275216 3.16945e-22)
(1.28888 0.261606 7.2482e-22)
(1.28921 0.247278 4.24123e-22)
(1.28723 0.232264 2.15538e-21)
(1.28278 0.216611 2.86622e-21)
(1.27568 0.200375 4.18952e-21)
(1.26578 0.183634 -1.28005e-22)
(1.25293 0.166485 7.88001e-22)
(1.28664 0.269197 -1.04651e-22)
(1.29098 0.257896 -1.24553e-21)
(1.29362 0.245939 -1.15818e-21)
(1.29441 0.233331 8.54867e-22)
(1.29316 0.220084 -3.26045e-21)
(1.28969 0.206219 -7.61615e-21)
(1.28384 0.191772 3.37349e-21)
(1.27542 0.176794 4.11616e-22)
(1.28358 0.260986 1.31711e-23)
(1.28926 0.251685 6.17175e-22)
(1.29364 0.24182 1.57681e-21)
(1.29658 0.231377 5.95692e-22)
(1.29791 0.220345 -1.23931e-22)
(1.29746 0.208717 1.86965e-21)
(1.29505 0.196498 1.43016e-21)
(1.29052 0.183703 -1.63779e-21)
(1.27828 0.251124 6.19597e-25)
(1.28478 0.243486 6.39654e-22)
(1.29033 0.235394 -1.12701e-21)
(1.29481 0.22682 -8.81503e-22)
(1.29808 0.21774 5.68354e-22)
(1.29998 0.208129 1.24687e-21)
(1.30035 0.197969 -2.21177e-21)
(1.29903 0.187247 -1.06223e-21)
(1.27158 0.240117 5.89716e-23)
(1.27847 0.233818 -6.69103e-22)
(1.2847 0.22717 1.01064e-21)
(1.29017 0.220145 6.40011e-22)
(1.29476 0.21271 1.27751e-21)
(1.29836 0.204833 -5.42571e-22)
(1.30081 0.196483 -3.59928e-21)
(1.30197 0.18763 2.42263e-21)
(1.26409 0.228409 -1.41089e-22)
(1.27106 0.223163 -2.87657e-22)
(1.27757 0.217661 -3.30638e-22)
(1.28358 0.211877 -3.9216e-22)
(1.28897 0.205781 2.18101e-22)
(1.29367 0.199338 1.45289e-21)
(1.29755 0.192513 3.96446e-21)
(1.3005 0.18527 8.31811e-22)
(1.25625 0.216355 6.66895e-23)
(1.26306 0.211927 -1.1301e-23)
(1.26959 0.207318 -1.31024e-22)
(1.27578 0.202507 -6.35701e-22)
(1.28156 0.197469 -1.13842e-21)
(1.28688 0.192174 -1.53178e-21)
(1.29164 0.186588 -1.04168e-21)
(1.29576 0.180676 -1.51479e-21)
(1.24831 0.204201 4.01085e-23)
(1.25485 0.200413 5.1528e-22)
(1.26119 0.196499 4.47536e-23)
(1.26733 0.192444 4.53708e-22)
(1.2732 0.188229 2.93663e-23)
(1.27877 0.183832 -2.12874e-21)
(1.28399 0.179224 -1.47402e-22)
(1.28877 0.174375 1.28155e-21)
(1.24043 0.192114 -9.83365e-23)
(1.24661 0.188835 1.26324e-22)
(1.25267 0.185468 -1.46442e-22)
(1.25859 0.182004 -2.97002e-22)
(1.26436 0.178429 -4.37416e-22)
(1.26993 0.174727 1.43842e-21)
(1.27528 0.170879 6.93918e-22)
(1.28036 0.166861 -1.2027e-21)
(1.23268 0.180201 3.12514e-23)
(1.23847 0.177338 -4.16465e-22)
(1.24419 0.174411 2.31838e-22)
(1.24982 0.171416 1.70923e-23)
(1.25535 0.168344 4.83556e-22)
(1.26076 0.165186 -5.0054e-22)
(1.26604 0.161927 6.75133e-22)
(1.27115 0.158552 9.34109e-22)
(1.22511 0.168531 1.85702e-23)
(1.23051 0.166014 1.69341e-22)
(1.23585 0.163451 -4.06366e-22)
(1.24115 0.160838 -7.16329e-23)
(1.24638 0.158171 -4.84031e-22)
(1.25154 0.155444 5.56935e-22)
(1.25661 0.152649 -2.14925e-21)
(1.26159 0.149775 -1.31418e-21)
(1.21772 0.157137 -4.39896e-23)
(1.22273 0.154917 5.07694e-23)
(1.22771 0.152662 3.27146e-22)
(1.23265 0.150369 -1.79379e-22)
(1.23755 0.148038 7.80547e-22)
(1.24241 0.145664 -2.7998e-22)
(1.24722 0.143243 4.24996e-22)
(1.25196 0.140768 7.47583e-22)
(1.21051 0.146037 4.16122e-23)
(1.21516 0.144077 -1.56396e-23)
(1.21977 0.142088 -2.54194e-22)
(1.22437 0.140071 6.14031e-22)
(1.22894 0.138025 -3.72496e-22)
(1.23348 0.135947 3.32648e-22)
(1.23798 0.133836 3.51047e-22)
(1.24245 0.131688 1.47099e-22)
(1.2035 0.135239 1.96122e-23)
(1.20779 0.133507 3.93569e-23)
(1.21207 0.131753 1.20052e-22)
(1.21633 0.129977 -4.31528e-22)
(1.22057 0.128179 -2.94205e-22)
(1.22479 0.126357 6.22653e-23)
(1.22899 0.124511 -3.09155e-22)
(1.23317 0.122638 3.40259e-22)
(1.23731 0.120736 -1.44365e-21)
(1.19667 0.124737 -2.95731e-23)
(1.20064 0.123209 -8.44699e-24)
(1.2046 0.121664 -1.34599e-24)
(1.20854 0.120102 2.97645e-22)
(1.21247 0.118523 2.08028e-22)
(1.21639 0.116926 -1.31981e-22)
(1.22029 0.11531 -2.75752e-22)
(1.22417 0.113675 4.08895e-23)
(1.22803 0.112019 2.17677e-22)
(1.19003 0.11452 1.80081e-23)
(1.1937 0.113177 -3.32042e-24)
(1.19736 0.11182 8.43415e-23)
(1.20102 0.11045 -9.62054e-23)
(1.20466 0.109065 -2.78151e-23)
(1.20828 0.107667 2.8432e-22)
(1.21189 0.106256 1.21249e-22)
(1.21549 0.104829 -4.11754e-22)
(1.21907 0.103388 -1.7386e-22)
(1.1836 0.104578 -1.7574e-23)
(1.187 0.103401 -2.38715e-23)
(1.19039 0.102213 -2.32703e-23)
(1.19376 0.101014 -1.52822e-23)
(1.19713 0.0998053 -1.63197e-22)
(1.20049 0.0985857 1.80113e-22)
(1.20383 0.0973555 -1.33916e-22)
(1.20716 0.0961145 -3.20591e-22)
(1.21048 0.0948624 4.89458e-22)
(1.17739 0.0948898 -6.745e-24)
(1.18054 0.0938627 2.07175e-23)
(1.18368 0.0928275 -9.83505e-24)
(1.18681 0.0917842 -3.40098e-23)
(1.18993 0.0907329 3.90074e-23)
(1.19303 0.0896736 -1.14093e-22)
(1.19613 0.0886061 2.11488e-22)
(1.19921 0.0875306 2.07216e-22)
(1.20227 0.0864467 -3.13502e-23)
(1.17144 0.0854335 7.93943e-24)
(1.17435 0.0845429 -1.03026e-23)
(1.17726 0.0836462 -8.80948e-24)
(1.18016 0.0827434 -3.45243e-23)
(1.18305 0.0818345 1.25995e-23)
(1.18593 0.0809196 3.85611e-23)
(1.1888 0.0799985 -2.31984e-23)
(1.19165 0.0790712 -2.34979e-22)
(1.19449 0.0781377 1.64906e-22)
(1.16576 0.0761833 -9.97129e-26)
(1.16847 0.075417 -4.7285e-24)
(1.17118 0.0746462 -1.37319e-23)
(1.17387 0.0738709 9.13672e-24)
(1.17655 0.0730911 4.78062e-23)
(1.17922 0.0723067 -5.44461e-23)
(1.18188 0.0715177 -1.29092e-22)
(1.18452 0.070724 1.54844e-22)
(1.18714 0.0699254 -2.52881e-22)
(1.16041 0.0671096 -5.27336e-25)
(1.16294 0.066457 6.1245e-25)
(1.16546 0.0658011 1.04943e-23)
(1.16797 0.065142 1.09137e-25)
(1.17046 0.0644796 -3.56389e-23)
(1.17294 0.0638137 5.97301e-23)
(1.17541 0.0631443 -8.08927e-23)
(1.17786 0.0624713 -5.65998e-23)
(1.18029 0.0617945 1.94987e-22)
(1.15544 0.0581778 1.51798e-24)
(1.15781 0.0576297 -8.56643e-25)
(1.16016 0.0570793 4.21409e-24)
(1.1625 0.0565266 -3.056e-24)
(1.16483 0.0559715 5.13524e-25)
(1.16714 0.0554138 -4.60583e-23)
(1.16943 0.0548534 -7.41756e-24)
(1.17171 0.0542902 6.73303e-23)
(1.17397 0.053724 -1.20563e-22)
(1.15091 0.0493484 4.63827e-25)
(1.15313 0.048897 -1.82479e-24)
(1.15534 0.048444 8.55599e-25)
(1.15753 0.0479894 3.54433e-24)
(1.15971 0.0475331 2.15867e-23)
(1.16187 0.0470748 -1.83712e-23)
(1.16402 0.0466145 1.70036e-23)
(1.16615 0.0461519 3.23552e-24)
(1.16825 0.0456869 -6.45477e-23)
(1.14689 0.0405727 -3.13686e-24)
(1.14898 0.0402117 6.99035e-24)
(1.15106 0.0398496 -9.17327e-26)
(1.15313 0.0394865 3.70797e-24)
(1.15518 0.039122 -4.91882e-24)
(1.15722 0.0387561 6.15386e-24)
(1.15923 0.0383886 2.08386e-23)
(1.16123 0.0380193 1.40445e-23)
(1.1632 0.037648 -3.59601e-25)
(1.14345 0.0317974 -4.40745e-24)
(1.14544 0.0315215 2.03355e-24)
(1.14742 0.031245 3.24852e-24)
(1.14938 0.0309677 -7.80528e-24)
(1.15133 0.0306895 6.70321e-24)
(1.15325 0.0304101 -1.05316e-25)
(1.15516 0.0301295 8.31114e-24)
(1.15704 0.0298474 -1.79027e-23)
(1.15891 0.0295636 -2.36341e-23)
(1.14069 0.0229501 -7.36704e-25)
(1.1426 0.0227562 1.06965e-23)
(1.1445 0.0225619 -3.50132e-24)
(1.14638 0.0223671 1.43083e-23)
(1.14824 0.0221717 -1.53222e-23)
(1.15007 0.0219754 -4.03525e-24)
(1.15189 0.0217782 -3.60318e-25)
(1.15369 0.0215797 -1.85781e-23)
(1.15546 0.0213798 3.04745e-23)
(1.13872 0.0139599 -6.28555e-26)
(1.14057 0.0138443 -2.53175e-24)
(1.14241 0.0137284 -2.46282e-24)
(1.14422 0.0136121 7.74106e-24)
(1.14602 0.0134954 -1.16664e-23)
(1.1478 0.013378 7.68476e-24)
(1.14955 0.0132599 -1.5192e-24)
(1.15129 0.0131409 4.01892e-24)
(1.153 0.0130208 -3.85232e-24)
(1.13763 0.00470186 -3.74159e-25)
(1.13945 0.00466763 9.19351e-24)
(1.14124 0.00463325 -1.75362e-23)
(1.14302 0.0045986 -9.60049e-24)
(1.14478 0.00456356 1.02446e-23)
(1.14652 0.00452803 -2.0909e-24)
(1.14825 0.0044919 7.48608e-24)
(1.14995 0.00445504 1.59963e-24)
(1.15162 0.00441735 -1.94939e-24)
(0.955274 0.413585 2.48339e-21)
(0.97998 0.419233 -1.7757e-21)
(1.00358 0.424257 5.56587e-21)
(1.02662 0.427942 -1.15902e-21)
(1.04957 0.430144 1.01071e-22)
(1.07216 0.430863 -1.61101e-22)
(1.09419 0.430089 5.42969e-22)
(1.11554 0.427827 1.36673e-22)
(1.13613 0.424104 3.6829e-23)
(1.15582 0.418953 -1.5261e-21)
(1.17451 0.412415 -1.39222e-21)
(1.19191 0.404511 1.54352e-21)
(1.20804 0.395207 -3.71881e-21)
(1.22285 0.384645 -1.06375e-21)
(1.23604 0.372862 2.0154e-21)
(1.24744 0.359889 -2.72656e-21)
(1.25692 0.345768 4.80457e-22)
(1.2643 0.33055 1.90154e-22)
(1.2694 0.314287 1.05757e-21)
(1.27205 0.297041 1.76576e-22)
(0.978263 0.395502 -3.91445e-21)
(1.00133 0.399178 2.81277e-21)
(1.02294 0.402328 -6.88669e-21)
(1.04347 0.404614 -5.84771e-21)
(1.06393 0.405864 -5.0745e-22)
(1.08422 0.406037 4.53332e-22)
(1.10411 0.405101 -4.33257e-22)
(1.12353 0.403031 -2.66718e-22)
(1.14239 0.39982 -6.15426e-22)
(1.1606 0.395471 9.25966e-22)
(1.17804 0.389984 -2.22535e-22)
(1.19453 0.383368 -1.63244e-21)
(1.21005 0.375737 1.43356e-21)
(1.22452 0.36706 -1.03857e-21)
(1.23769 0.357333 2.82198e-22)
(1.24946 0.34658 -6.74985e-22)
(1.25968 0.334833 2.82695e-21)
(1.2682 0.322121 -5.70321e-22)
(1.27486 0.308476 -8.88675e-22)
(1.27948 0.293933 7.21899e-24)
(0.999654 0.378077 -2.029e-21)
(1.02032 0.380844 -4.16343e-21)
(1.03976 0.382762 1.75176e-21)
(1.05809 0.383892 4.47489e-21)
(1.07635 0.384189 -1.09226e-21)
(1.09452 0.383647 1.35248e-23)
(1.1124 0.382266 -5.59857e-22)
(1.12993 0.380036 -2.83729e-22)
(1.14704 0.376951 7.38751e-22)
(1.16366 0.373011 -7.39185e-23)
(1.1797 0.368218 1.73833e-21)
(1.19504 0.362588 -2.54755e-22)
(1.20969 0.356171 -3.36869e-22)
(1.22355 0.348861 1.34019e-22)
(1.23641 0.340728 -2.37788e-21)
(1.24819 0.331791 -1.55767e-21)
(1.25878 0.322051 -1.20471e-21)
(1.26805 0.311513 -3.10115e-22)
(1.27585 0.300186 -6.7169e-22)
(1.28204 0.288082 -3.2922e-22)
(1.0192 0.360661 -3.69166e-21)
(1.03771 0.362331 5.54277e-21)
(1.05513 0.363207 -2.46731e-21)
(1.07152 0.363427 1.42218e-22)
(1.08781 0.362991 -5.95834e-22)
(1.10401 0.361899 1.24569e-21)
(1.11998 0.360161 4.43214e-22)
(1.13566 0.357783 5.16765e-22)
(1.15102 0.354764 -2.41056e-22)
(1.16601 0.351108 1.14606e-21)
(1.18059 0.34682 -8.93047e-22)
(1.19469 0.341909 1.75344e-21)
(1.20818 0.336392 -1.26915e-22)
(1.22108 0.330195 -1.26934e-21)
(1.23336 0.323381 3.61482e-21)
(1.24484 0.315948 1.61677e-21)
(1.25543 0.307883 -4.54735e-22)
(1.26503 0.29918 6.40182e-22)
(1.27351 0.289835 1.06072e-21)
(1.28077 0.279842 1.25246e-22)
(1.03641 0.343122 6.36494e-21)
(1.05298 0.343873 -4.12629e-21)
(1.06856 0.343958 1.51252e-21)
(1.08324 0.343509 -1.18411e-21)
(1.09778 0.342541 6.80301e-22)
(1.11225 0.341052 -5.47978e-22)
(1.12651 0.339057 3.59451e-22)
(1.14052 0.336566 -2.90733e-22)
(1.15426 0.33359 -2.69887e-22)
(1.16772 0.330134 -1.30972e-21)
(1.18086 0.326203 -2.62477e-23)
(1.19365 0.321796 -6.99097e-22)
(1.20601 0.316913 4.16226e-22)
(1.21796 0.311588 -4.20877e-22)
(1.22944 0.305838 -1.06471e-21)
(1.24034 0.299608 3.49086e-23)
(1.2506 0.292889 -2.93176e-22)
(1.26015 0.285678 -1.10871e-21)
(1.26891 0.277967 -4.10703e-22)
(1.27676 0.269741 -4.84742e-23)
(1.05143 0.325369 1.61131e-22)
(1.06623 0.325451 3.30532e-21)
(1.08013 0.32498 1.0128e-21)
(1.09326 0.324074 2.22163e-21)
(1.10626 0.322752 -3.21455e-23)
(1.11919 0.321012 3.61262e-22)
(1.13193 0.31887 -8.6805e-22)
(1.14445 0.316339 -2.8989e-22)
(1.15675 0.313433 1.7949e-22)
(1.16882 0.310162 3.57508e-22)
(1.18064 0.306537 3.81494e-22)
(1.19218 0.302568 -3.52584e-23)
(1.20339 0.298267 1.85773e-22)
(1.21437 0.293653 9.8385e-22)
(1.22504 0.288642 -8.23052e-22)
(1.23523 0.283287 -2.6571e-22)
(1.24496 0.277594 7.21423e-22)
(1.25421 0.271549 8.15852e-22)
(1.26291 0.265134 -5.93367e-22)
(1.27096 0.258332 2.41409e-23)
(1.0644 0.307583 -3.31321e-21)
(1.07759 0.307176 -2.64815e-21)
(1.08998 0.306319 5.43707e-22)
(1.10172 0.305109 8.89854e-22)
(1.11334 0.303564 -1.67788e-21)
(1.1249 0.301688 -2.1094e-21)
(1.13629 0.299489 -7.65991e-22)
(1.1475 0.296985 7.82271e-22)
(1.15853 0.294188 -1.60548e-23)
(1.16938 0.291109 -4.53098e-23)
(1.18003 0.28776 6.74909e-23)
(1.19048 0.284152 -2.68397e-22)
(1.20072 0.280301 -5.46112e-22)
(1.21063 0.276217 1.18248e-21)
(1.22029 0.271821 2.86019e-22)
(1.22976 0.267177 -5.6511e-22)
(1.23892 0.262297 -5.44131e-22)
(1.24772 0.257167 2.29635e-22)