/*--------------------------------*- C++ -*----------------------------------*\
  =========                 |
  \\      /  F ield         | OpenFOAM: The Open Source CFD Toolbox
   \\    /   O peration     | Website:  https://openfoam.org
    \\  /    A nd           | Version:  7
     \\/     M anipulation  |
\*---------------------------------------------------------------------------*/
FoamFile
{
    version     2.0;
    format      ascii;
    class       volVectorField;
    location    "245";
    object      U;
}
// * * * * * * * * * * * * * * * * * * * * * * * * * * * * * * * * * * * * * //

dimensions      [0 1 -1 0 0 0 0];

internalField   nonuniform List<vector> 
8500
(
(-0.00204016 0.0723141 1.14877e-21)
(-0.00830802 0.160982 -3.28098e-21)
(-0.0204275 0.209929 -3.81486e-21)
(-0.036069 0.229805 3.79232e-21)
(-0.05372 0.231799 -3.50556e-21)
(-0.0718484 0.224965 -1.88553e-21)
(-0.0891971 0.214578 3.26092e-21)
(-0.104908 0.202134 4.1341e-21)
(-0.11811 0.186392 -7.09153e-22)
(-0.12816 0.164119 2.09035e-21)
(-0.00439967 0.0733466 -1.26457e-21)
(-0.0123152 0.164835 3.90046e-21)
(-0.0233516 0.21648 -9.31114e-21)
(-0.0366675 0.238289 8.44728e-21)
(-0.051321 0.241232 3.3883e-22)
(-0.0660336 0.23444 6.21815e-21)
(-0.0795302 0.223392 -1.09881e-20)
(-0.0907332 0.20981 -1.64136e-20)
(-0.0985574 0.192673 -3.37011e-21)
(-0.101804 0.169046 7.78097e-21)
(-0.00676026 0.073442 1.21954e-21)
(-0.0163915 0.16688 8.80398e-21)
(-0.0262911 0.221 2.05763e-20)
(-0.0370631 0.244823 -1.86273e-20)
(-0.0483299 0.248872 -4.29891e-21)
(-0.0590839 0.242216 -3.9035e-21)
(-0.0680529 0.230482 2.01997e-20)
(-0.0739535 0.21561 1.26343e-20)
(-0.0755229 0.196854 3.11783e-21)
(-0.0707306 0.171567 -2.42208e-20)
(-0.00903713 0.0725983 4.34746e-21)
(-0.0204043 0.167042 -5.14039e-21)
(-0.0291519 0.223329 -3.88641e-20)
(-0.0372251 0.249194 3.3754e-21)
(-0.0447845 0.254484 1.06685e-20)
(-0.0511176 0.248063 -8.49168e-21)
(-0.0549925 0.23564 -2.58006e-22)
(-0.0549463 0.219355 -3.62208e-21)
(-0.0496518 0.198771 8.25521e-21)
(-0.0359044 0.171562 2.4854e-20)
(-0.0111517 0.0708487 3.07973e-21)
(-0.0242298 0.165303 -1.697e-20)
(-0.0318493 0.223359 4.04639e-20)
(-0.0371386 0.251224 -1.85339e-20)
(-0.0407534 0.257863 -5.68018e-23)
(-0.0422909 0.251788 2.59918e-20)
(-0.0406154 0.238708 -1.20297e-20)
(-0.0341225 0.220949 1.47087e-21)
(-0.0215572 0.198335 -5.07783e-21)
(0.00168335 0.168943 2.091e-21)
(-0.0130341 0.0682595 3.66184e-20)
(-0.0277527 0.161707 4.38332e-20)
(-0.0343135 0.22104 -1.10962e-20)
(-0.0368066 0.250776 2.12576e-20)
(-0.0363236 0.258833 6.80116e-21)
(-0.0327844 0.253221 -9.60482e-21)
(-0.0252013 0.239565 -3.74393e-21)
(-0.0118865 0.220338 -1.72867e-20)
(0.00814253 0.195589 3.73401e-21)
(0.0414339 0.163643 -2.37783e-20)
(-0.0146302 0.0649305 -3.53062e-20)
(-0.0308756 0.156357 -2.2872e-20)
(-0.0364871 0.216388 1.87554e-20)
(-0.0362471 0.247769 -3.24336e-20)
(-0.0316005 0.25725 3.83114e-21)
(-0.0227884 0.252212 3.87808e-20)
(-0.00903128 0.238109 -7.00217e-21)
(0.0114304 0.217492 4.81104e-20)
(0.0389255 0.190665 -6.13148e-22)
(0.0829077 0.155735 -2.08224e-20)
(-0.015905 0.0609911 2.98663e-20)
(-0.0335259 0.149423 -5.33822e-20)
(-0.0383289 0.209485 -2.11153e-20)
(-0.0354877 0.242176 2.4706e-20)
(-0.0266959 0.25301 9.07219e-22)
(-0.0124964 0.248631 -7.28104e-20)
(0.00762717 0.234235 -4.51629e-21)
(0.035558 0.212402 -3.76943e-20)
(0.0704058 0.183641 -5.03684e-20)
(0.125946 0.145351 3.07807e-20)
(-0.0168459 0.0565935 -1.67634e-20)
(-0.0356619 0.141133 7.90184e-21)
(-0.0398166 0.200486 1.95639e-20)
(-0.0345617 0.234033 -1.75207e-20)
(-0.021719 0.246047 -6.17546e-20)
(-0.00208989 0.242359 2.15352e-20)
(0.0245344 0.227825 3.23054e-21)
(0.0602952 0.205029 5.67649e-20)
(0.102334 0.174552 7.7731e-20)
(0.170764 0.13264 -3.61288e-20)
(-0.017465 0.0519058 2.64426e-20)
(-0.0372764 0.13176 2.38132e-20)
(-0.0409471 0.189615 -3.39428e-21)
(-0.0335023 0.223446 8.71951e-20)
(-0.0167622 0.236345 3.71026e-20)
(0.00828116 0.233299 2.81934e-20)
(0.0415021 0.218742 4.09901e-20)
(0.0855309 0.195291 -1.85545e-20)
(0.134622 0.163336 -2.60104e-20)
(0.218009 0.117717 -4.45509e-20)
(-0.0177992 0.0471023 -2.40046e-21)
(-0.038398 0.121615 -3.74015e-20)
(-0.041734 0.177158 -2.68612e-20)
(-0.0323305 0.210594 -4.30422e-20)
(-0.011878 0.223959 -3.43609e-20)
(0.0185328 0.221395 3.47601e-20)
(0.0584461 0.206849 -3.40946e-20)
(0.111294 0.183078 -2.43658e-20)
(0.167438 0.149784 3.20092e-21)
(0.2688 0.100729 1.16535e-20)
(-0.0179082 0.0423552 -7.25505e-20)
(-0.0390875 0.111027 3.43488e-20)
(-0.0421986 0.163453 2.48997e-20)
(-0.0310363 0.195736 1.65329e-20)
(-0.00704282 0.209024 -3.02448e-20)
(0.0287062 0.206664 -2.60844e-20)
(0.0754827 0.192049 3.82536e-20)
(0.137857 0.168299 -3.17977e-20)
(0.201482 0.133573 -1.37405e-21)
(0.324869 0.0818881 -3.56578e-20)
(-0.0178702 0.0378241 6.05574e-20)
(-0.0394285 0.100322 2.43073e-20)
(-0.0423543 0.148878 1.42368e-21)
(-0.0295501 0.179209 -3.02145e-20)
(-0.00210471 0.191782 2.2731e-21)
(0.0390545 0.189236 3.37534e-20)
(0.093074 0.174355 -9.81636e-21)
(0.165902 0.150952 -1.2232e-20)
(0.238302 0.114416 -2.93792e-20)
(0.388506 0.0616454 5.41936e-20)
(-0.0177746 0.0336465 4.06004e-20)
(-0.0395116 0.0898078 -6.56293e-20)
(-0.0421832 0.13383 -5.02204e-20)
(-0.0277043 0.16142 2.16921e-20)
(0.00328243 0.172595 4.42297e-20)
(0.0501523 0.169397 3.75618e-20)
(0.112199 0.153983 -4.07833e-20)
(0.196715 0.131207 8.13806e-20)
(0.280662 0.0923529 -2.47781e-20)
(0.461862 0.0408021 -6.38515e-20)
(-0.0177109 0.0299288 -6.12185e-20)
(-0.0394121 0.0797518 3.66397e-20)
(-0.0416057 0.118701 -1.72358e-20)
(-0.0251902 0.142834 1.81251e-21)
(0.00972705 0.151949 1.83177e-20)
(0.0630018 0.147622 -5.93338e-20)
(0.134486 0.131433 5.38337e-20)
(0.232323 0.109444 -5.29692e-20)
(0.332529 0.0681199 8.941e-20)
(0.545817 0.0206154 3.3617e-20)
(-0.0177557 0.0267367 1.27776e-20)
(-0.0391646 0.0703614 7.05819e-20)
(-0.0404497 0.10386 -1.75724e-20)
(-0.0215201 0.12395 1.7788e-20)
(0.0181489 0.130437 2.04908e-20)
(0.0790903 0.124581 -6.07159e-21)
(0.162203 0.107543 4.5338e-20)
(0.275455 0.0862675 1.79294e-21)
(0.398362 0.0434542 -5.79483e-20)
(0.640194 0.00312763 7.92074e-20)
(-0.017959 0.0240898 -3.43962e-20)
(-0.0387382 0.0617702 -6.67442e-20)
(-0.0384254 0.0896215 5.7652e-20)
(-0.0160088 0.105269 2.86811e-20)
(0.0297787 0.108732 -1.33196e-19)
(0.100342 0.10111 1.08819e-19)
(0.198021 0.0834469 -9.98697e-20)
(0.329175 0.0625538 1.11437e-21)
(0.481154 0.0208334 -2.41824e-20)
(0.740258 -0.0108158 -7.38399e-20)
(-0.0183306 0.0219571 2.95112e-20)
(-0.0380182 0.054027 -3.91115e-21)
(-0.0351178 0.0762239 -1.41654e-20)
(-0.00779123 0.0872522 -1.7191e-21)
(0.0460825 0.0875243 -8.1639e-21)
(0.12892 0.0781457 -3.48315e-20)
(0.24454 0.0604435 1.5321e-20)
(0.396176 0.0395735 -2.3989e-20)
(0.58048 0.00298905 7.08995e-21)
(0.83933 -0.0204062 1.78567e-21)
(-0.0188317 0.0202599 -6.01998e-20)
(-0.0367991 0.0470945 -4.21902e-21)
(-0.0300001 0.0638139 6.48797e-21)
(0.0041177 0.0702854 2.63078e-21)
(0.0686102 0.0674634 4.34832e-20)
(0.166901 0.0566268 -1.26911e-19)
(0.303684 0.0397734 8.66474e-20)
(0.477833 0.0190631 -6.5467e-20)
(0.691517 -0.00797713 5.78183e-20)
(0.930912 -0.0262509 6.61973e-20)
(-0.0193719 0.0188802 -7.21018e-21)
(-0.0347912 0.0408568 3.33824e-20)
(-0.0224699 0.0524365 -4.1616e-20)
(0.0207291 0.0546464 -1.29746e-20)
(0.09879 0.0490974 2.49822e-20)
(0.215884 0.037403 1.2066e-19)
(0.376176 0.0224252 -2.45477e-20)
(0.573208 0.0030744 1.20119e-20)
(0.806141 -0.0116904 -6.59466e-20)
(1.01186 -0.0315611 2.95545e-20)
(-0.0198166 0.017676 -2.18181e-20)
(-0.0316393 0.0351367 -1.69216e-20)
(-0.0118981 0.0420427 4.20324e-21)
(0.0429756 0.0404972 1.63732e-20)
(0.137734 0.0328471 -4.83903e-20)
(0.276657 0.0211855 -1.95859e-20)
(0.461245 0.00909638 -6.21951e-20)
(0.678516 -0.0066666 6.52514e-20)
(0.915721 -0.0106664 7.02451e-20)
(1.08366 -0.0402551 -3.13629e-20)
(-0.0200002 0.0164996 -1.03715e-20)
(-0.0269496 0.0297232 4.24322e-20)
(0.0023221 0.032516 -4.72494e-20)
(0.0716235 0.0279019 -5.52885e-21)
(0.186099 0.0190133 -2.22903e-20)
(0.349008 0.0085259 4.8652e-20)
(0.556607 0.000290803 6.31724e-20)
(0.787688 -0.00986279 -6.10132e-20)
(1.014 -0.0090086 6.53238e-20)
(1.17388 -0.0371591 8.58118e-21)
(-0.0197391 0.0152141 -3.01349e-20)
(-0.0203174 0.0244074 -8.56749e-20)
(0.0207379 0.023714 8.3551e-20)
(0.107221 0.0168714 1.1987e-20)
(0.24402 0.00781972 1.74691e-20)
(0.431693 -0.000182117 1.07549e-20)
(0.658647 -0.00369234 4.82838e-20)
(0.894286 -0.00785309 3.57608e-20)
(1.1039 -0.0041328 -1.27824e-19)
(1.24636 -0.0260195 -6.26508e-20)
(-0.0188454 0.0137109 -1.03206e-19)
(-0.0113486 0.0190204 2.0767e-20)
(0.0438151 0.0155198 -4.73029e-20)
(0.150078 0.0074262 9.19623e-21)
(0.311099 -0.000527039 1.46654e-20)
(0.522555 -0.00470093 -1.06255e-19)
(0.762942 -0.00294101 4.70687e-20)
(0.994008 -0.00168129 -3.20913e-20)
(1.18173 0.00428121 3.3828e-20)
(1.29974 -0.0132121 -1.1659e-20)
(-0.0171377 0.0119231 3.73544e-20)
(0.000325816 0.013465 4.03698e-20)
(0.0719307 0.00789112 -2.35441e-21)
(0.200269 -0.000341929 -1.29377e-20)
(0.386416 -0.00579538 4.40453e-22)
(0.61873 -0.0049662 1.00736e-21)
(0.865163 0.00212104 -7.16442e-20)
(1.08378 0.00784592 9.07865e-21)
(1.24624 0.0150422 8.94385e-20)
(1.34152 0.000851741 4.06017e-20)
(-0.0144486 0.00983102 -2.53212e-20)
(0.0150417 0.00773566 -1.87436e-20)
(0.105368 0.00089686 8.07175e-20)
(0.257624 -0.0062283 2.08591e-21)
(0.46855 -0.00773291 -3.39764e-20)
(0.716981 -0.0010952 9.12131e-20)
(0.961692 0.0109006 2.00489e-20)
(1.16189 0.0199263 1.08422e-21)
(1.29826 0.0275177 -3.921e-20)
(1.37094 0.0154557 -5.08426e-20)
(-0.0106277 0.00746028 5.30335e-20)
(0.0330931 0.00192717 -1.47606e-20)
(0.144303 -0.00526534 -8.84736e-21)
(0.321706 -0.00991118 -3.35953e-20)
(0.555632 -0.00611844 5.5194e-20)
(0.81409 0.00663341 -2.70166e-20)
(1.04993 0.022754 -3.04981e-20)
(1.22792 0.0339038 -7.27408e-21)
(1.33869 0.0410987 -2.23468e-20)
(1.39159 0.0302022 2.44232e-20)
(-0.0055405 0.00487611 -1.95201e-20)
(0.0547237 -0.00377068 -1.1629e-19)
(0.188784 -0.0102747 1.21163e-20)
(0.391771 -0.0109898 4.19716e-20)
(0.645462 -0.000828971 3.00316e-20)
(0.907212 0.0178266 -1.0017e-19)
(1.12834 0.0370687 6.41381e-20)
(1.28223 0.0492316 -2.91681e-20)
(1.36918 0.0553758 4.39808e-20)
(1.40488 0.0450197 1.20926e-20)
(0.000931999 0.00217532 -2.14354e-20)
(0.0801136 -0.00908666 4.12571e-20)
(0.23869 -0.013713 5.39981e-20)
(0.466747 -0.00905436 -3.87941e-20)
(0.735698 0.00811954 1.44497e-20)
(0.994116 0.0320334 -8.82142e-20)
(1.19628 0.0532986 -1.65723e-20)
(1.32577 0.0654888 1.3799e-20)
(1.39128 0.0700783 -3.34376e-20)
(1.41271 0.0597904 -3.38988e-20)
(0.00889237 -0.000520974 -2.77218e-20)
(0.109363 -0.0136867 -9.42206e-21)
(0.293701 -0.0151052 -9.79586e-20)
(0.545255 -0.00376267 -1.53988e-20)
(0.824082 0.0205737 -1.6664e-21)
(1.07327 0.0487919 5.25154e-21)
(1.2538 0.0709819 9.16669e-21)
(1.35973 0.0823632 -4.3301e-20)
(1.40653 0.0850347 7.8019e-22)
(1.41635 0.0745371 2.33678e-20)
(0.0184232 -0.00307316 -7.24174e-21)
(0.142474 -0.0171944 3.39308e-20)
(0.353272 -0.0139694 4.78858e-20)
(0.62569 0.00510261 3.00113e-20)
(0.908634 0.0362746 -8.90792e-21)
(1.14378 0.0676625 -7.35057e-21)
(1.30143 0.0897432 7.28336e-20)
(1.38542 0.0996369 9.67582e-21)
(1.41627 0.100156 3.2614e-20)
(1.41688 0.0892638 -1.40768e-20)
(0.0295819 -0.00532783 6.91566e-20)
(0.179333 -0.0192117 4.4905e-20)
(0.416625 -0.00986601 -4.55922e-20)
(0.706345 0.0176124 -9.1009e-21)
(0.987781 0.0548992 4.73605e-21)
(1.20532 0.088247 -1.72671e-20)
(1.33996 0.109289 -3.73424e-20)
(1.4041 0.117166 -6.21402e-21)
(1.42164 0.115398 4.89515e-22)
(1.41507 0.104007 1.52267e-20)
(0.0423941 -0.00712128 8.49778e-21)
(0.2197 -0.0193386 -2.44985e-20)
(0.482778 -0.00244079 5.80736e-20)
(0.785554 0.033701 3.78965e-20)
(1.06039 0.0760956 1.11906e-21)
(1.25798 0.110197 2.68287e-20)
(1.37033 0.129397 3.96036e-21)
(1.41691 0.134861 -2.82085e-20)
(1.42356 0.13075 2.38885e-20)
(1.41148 0.118788 -2.87071e-23)
(0.0568471 -0.00828284 -5.69531e-20)
(0.263201 -0.0171935 -1.68272e-20)
(0.550595 0.00854797 -1.52538e-20)
(0.86181 0.0531939 -2.65757e-20)
(1.12574 0.0995084 6.20857e-21)
(1.30211 0.133216 1.42369e-22)
(1.3935 0.149902 2.05682e-20)
(1.42486 0.152672 -3.27992e-21)
(1.42274 0.146211 -2.4577e-20)
(1.40649 0.133623 -2.2934e-20)
(0.0728844 -0.008639 4.61732e-21)
(0.309334 -0.0124331 2.72217e-20)
(0.618855 0.0232181 1.32068e-20)
(0.933842 0.0758387 -4.13318e-20)
(1.18348 0.124794 -2.09121e-21)
(1.33826 0.157054 -1.7722e-20)
(1.41039 0.170685 4.59803e-22)
(1.42878 0.170569 8.33062e-21)
(1.41973 0.161784 -9.26668e-21)
(1.40038 0.148516 2.59174e-20)
(0.0904024 -0.00801832 1.08202e-20)
(0.357478 -0.00477088 -2.66185e-20)
(0.686329 0.0415667 -6.29886e-20)
(1.00065 0.101332 5.80617e-20)
(1.23351 0.151627 -4.33422e-21)
(1.36704 0.181501 1.28218e-20)
(1.42183 0.191656 -1.77524e-21)
(1.42937 0.188536 1.23282e-20)
(1.41491 0.177466 -9.13199e-22)
(1.39328 0.163455 -2.00897e-20)
(0.109249 -0.00625748 -2.20296e-20)
(0.406919 0.00600696 3.46023e-20)
(0.751845 0.0634828 2.86582e-20)
(1.0615 0.129341 -4.13429e-20)
(1.27596 0.179705 -6.83767e-21)
(1.38912 0.206382 2.6124e-21)
(1.42856 0.212744 2.62331e-20)
(1.42715 0.206553 1.33445e-21)
(1.40857 0.193245 5.14429e-21)
(1.3853 0.178414 -1.1088e-20)
(0.129224 -0.00320803 1.67146e-20)
(0.456874 0.0200298 -1.50928e-20)
(0.814342 0.0887641 -1.28614e-20)
(1.11589 0.159513 2.20774e-20)
(1.31109 0.208747 7.62881e-21)
(1.40513 0.231543 5.76501e-21)
(1.43121 0.233889 -2.6716e-20)
(1.42253 0.224597 -9.19884e-21)
(1.40089 0.209093 -8.26452e-21)
(1.37647 0.193355 3.64364e-21)
(0.150085 0.00125674 -8.3096e-21)
(0.506527 0.0373367 -1.95909e-22)
(0.872899 0.117135 2.43351e-20)
(1.16355 0.191492 -8.93423e-21)
(1.33924 0.238492 -3.93881e-21)
(1.41567 0.25685 -2.59614e-21)
(1.43029 0.255033 6.46996e-21)
(1.41584 0.242637 1.12153e-20)
(1.39198 0.22497 -3.59281e-22)
(1.36683 0.208227 4.13464e-21)
(0.171553 0.00723521 5.85458e-21)
(0.555061 0.0578753 -1.645e-21)
(0.926757 0.148262 -4.35251e-21)
(1.20434 0.224916 -3.94299e-21)
(1.36079 0.268695 3.55412e-21)
(1.42127 0.282176 2.77769e-21)
(1.42623 0.276111 -2.56441e-21)
(1.40728 0.260625 9.37486e-22)
(1.38192 0.240823 1.32224e-21)
(1.35636 0.222971 -1.76681e-21)
(0.193318 0.014792 3.12736e-21)
(0.601686 0.0815055 8.93901e-22)
(0.975316 0.181769 -5.37901e-21)
(1.23826 0.25943 -4.29404e-21)
(1.37616 0.299123 4.48153e-21)
(1.42241 0.307397 8.77908e-22)
(1.41936 0.297054 -2.06721e-21)
(1.39703 0.278504 1.94848e-21)
(1.37075 0.256579 1.09714e-21)
(1.34508 0.237517 -1.27378e-21)
(0.21505 0.0239538 -1.22616e-21)
(0.645669 0.108007 2.50811e-21)
(1.01813 0.217251 1.65489e-20)
(1.26542 0.294679 -7.36036e-21)
(1.38576 0.329554 -3.61946e-21)
(1.41951 0.332391 -4.09769e-21)
(1.40995 0.317778 8.42935e-21)
(1.38518 0.296197 5.70534e-21)
(1.35848 0.272154 4.59283e-21)
(1.33299 0.251793 2.5237e-21)
(0.236408 0.0347072 2.50188e-20)
(0.686349 0.137088 -1.38208e-20)
(1.05488 0.254279 -1.57714e-20)
(1.286 0.330318 2.14246e-20)
(1.38997 0.359771 1.13061e-20)
(1.41292 0.357031 -7.6357e-22)
(1.39821 0.338194 -1.41319e-20)
(1.37182 0.313616 -1.02323e-20)
(1.34513 0.287446 -1.08287e-20)
(1.32006 0.265719 6.52405e-21)
(0.25705 0.0469982 -3.38313e-20)
(0.723156 0.168397 3.1925e-20)
(1.0854 0.292413 3.67472e-20)
(1.3002 0.366007 -3.62788e-20)
(1.38917 0.389562 -1.25959e-20)
(1.40296 0.381188 8.15294e-21)
(1.3843 0.3582 1.49019e-20)
(1.35699 0.330665 2.38991e-21)
(1.33066 0.302347 -4.66487e-22)
(1.30623 0.279209 -9.00369e-21)
(0.276642 0.0607327 -4.83202e-21)
(0.755612 0.201535 -4.48572e-20)
(1.10959 0.331208 -4.80934e-20)
(1.30831 0.401416 5.40548e-20)
(1.38372 0.41872 -6.15709e-21)
(1.38988 0.404724 1.14663e-20)
(1.36836 0.37769 2.30669e-21)
(1.34074 0.347248 -6.44659e-21)
(1.31505 0.316769 3.47295e-21)
(1.29133 0.292176 -5.71312e-22)
(0.294867 0.0757801 9.85419e-21)
(0.783347 0.236064 2.77744e-20)
(1.12747 0.370214 1.57659e-20)
(1.3106 0.436226 -1.23985e-20)
(1.37394 0.447037 -1.9427e-20)
(1.37392 0.427496 -1.82524e-20)
(1.35051 0.396542 -3.74311e-21)
(1.32311 0.363271 1.01976e-20)
(1.29836 0.330692 -2.16435e-21)
(1.2752 0.304557 5.00498e-21)
(0.311433 0.091975 -3.72361e-20)
(0.806089 0.271526 -3.48773e-20)
(1.13913 0.40899 -5.55203e-21)
(1.30739 0.470125 -6.26952e-21)
(1.36015 0.47431 -1.44319e-20)
(1.35529 0.449353 8.93493e-21)
(1.33084 0.414618 -1.58408e-21)
(1.30416 0.378598 -8.959e-21)
(1.28068 0.344141 8.1689e-21)
(1.25806 0.316343 -1.23704e-20)
(0.326081 0.109121 8.82954e-21)
(0.823665 0.307451 2.95782e-20)
(1.14471 0.447105 2.58229e-20)
(1.29897 0.502814 2.81956e-20)
(1.34264 0.500338 4.46594e-22)
(1.33415 0.470145 2.53816e-20)
(1.30943 0.43178 1.86391e-21)
(1.28391 0.39305 -3.11187e-20)
(1.26182 0.356913 2.27444e-20)
(1.24029 0.327409 8.45136e-21)
(0.338591 0.126998 2.41121e-20)
(0.835989 0.343367 5.41535e-20)
(1.14441 0.484143 -7.16576e-21)
(1.28569 0.534002 -3.56015e-20)
(1.32169 0.524925 1.61581e-20)
(1.31069 0.489719 -1.70801e-20)
(1.28639 0.447899 -2.35803e-20)
(1.26243 0.406605 -2.49479e-21)
(1.24176 0.368779 -1.94197e-20)
(1.22189 0.337683 7.74752e-21)
(0.348782 0.145366 1.14329e-20)
(0.843052 0.378807 8.63218e-21)
(1.13849 0.519703 6.82461e-20)
(1.26787 0.563415 1.30033e-20)
(1.29755 0.547879 -1.15458e-20)
(1.28508 0.507912 -5.94082e-21)
(1.26186 0.462824 3.68308e-20)
(1.23974 0.419132 3.10672e-20)
(1.2207 0.379685 1.58501e-20)
(1.20268 0.347001 -2.32121e-21)
(0.356519 0.163971 2.48143e-21)
(0.844922 0.413319 -5.54972e-20)
(1.12723 0.553405 -8.04707e-20)
(1.24586 0.590793 2.75224e-21)
(1.2705 0.569007 1.64949e-20)
(1.25752 0.524564 -2.31083e-20)
(1.23589 0.476427 -5.51166e-20)
(1.21588 0.430512 -1.69153e-20)
(1.19869 0.389519 -1.09544e-21)
(1.18271 0.355293 9.63789e-21)
(0.36171 0.182555 -1.99555e-20)
(0.841739 0.446469 5.07532e-20)
(1.111 0.584899 4.86516e-20)
(1.21997 0.61589 -4.59181e-20)
(1.24076 0.588122 6.92791e-21)
(1.22814 0.539516 5.81388e-20)
(1.20859 0.488573 -1.43805e-20)
(1.19095 0.440624 1.18612e-20)
(1.17581 0.398185 -6.7142e-21)
(1.16202 0.362484 -9.15933e-21)
(0.364311 0.200857 -4.53287e-20)
(0.833727 0.477839 -7.99129e-20)
(1.0902 0.613891 -1.57861e-20)
(1.19045 0.638441 2.62572e-20)
(1.20862 0.605051 2.71283e-20)
(1.19711 0.55261 -5.89361e-20)
(1.18006 0.499132 3.37758e-20)
(1.16503 0.449357 -1.9994e-20)
(1.1521 0.405585 1.74702e-20)
(1.1407 0.368509 -3.05788e-25)
(0.364332 0.218613 3.45106e-20)
(0.821189 0.507029 2.11748e-21)
(1.06511 0.640125 -7.80583e-21)
(1.15757 0.658238 -3.36779e-20)
(1.17433 0.619573 2.3576e-20)
(1.16461 0.563712 4.05553e-21)
(1.15045 0.507982 -2.1518e-20)
(1.13824 0.456604 2.23873e-21)
(1.12767 0.41162 -5.85975e-21)
(1.11884 0.373292 5.03492e-21)
(0.361842 0.235561 -9.76278e-21)
(0.804459 0.533717 -1.42323e-20)
(1.03577 0.663172 3.54163e-20)
(1.1219 0.675209 1.66601e-20)
(1.1382 0.631527 -2.34929e-20)
(1.13084 0.57268 3.78243e-20)
(1.11989 0.51501 1.81848e-21)
(1.11068 0.462269 1.22663e-21)
(1.10261 0.416188 -5.92952e-21)
(1.09654 0.376735 -6.54907e-22)
(0.356933 0.251415 6.40529e-20)
(0.783745 0.55776 4.95486e-20)
(1.00257 0.682733 -2.48595e-21)
(1.08387 0.68901 -8.65443e-21)
(1.10048 0.640866 -1.00279e-20)
(1.09597 0.57941 -5.23803e-21)
(1.08852 0.520115 8.2186e-22)
(1.08246 0.466267 3.2248e-21)
(1.077 0.419194 6.20899e-21)
(1.07386 0.378734 1.45977e-21)
(0.34967 0.265837 6.66967e-21)
(0.759173 0.57873 9.45946e-21)
(0.966357 0.698916 -4.94807e-20)
(1.04379 0.699436 2.32109e-20)
(1.06141 0.647438 1.00875e-20)
(1.06021 0.583795 -2.37134e-20)
(1.05649 0.523205 6.95366e-21)
(1.05369 0.468524 9.97575e-22)
(1.05099 0.42057 -9.87984e-22)
(1.05107 0.379246 -1.01307e-21)
(0.340106 0.278602 -2.42161e-20)
(0.731057 0.596136 -1.88293e-20)
(0.92758 0.711432 1.80057e-20)
(1.00195 0.706476 6.84766e-21)
(1.02125 0.651142 -8.3543e-21)
(1.02374 0.585743 1.02325e-20)
(1.02394 0.524189 3.63822e-22)
(1.02447 0.468943 2.70697e-21)
(1.02483 0.420242 4.54797e-21)
(1.02889 0.378325 3.3367e-21)
(0.328479 0.289556 -1.99227e-20)
(0.699983 0.609821 5.55518e-20)
(0.886551 0.720056 -3.76209e-20)
(0.958687 0.71004 -3.82781e-21)
(0.980267 0.651893 -9.87608e-21)
(0.986744 0.585175 6.14199e-21)
(0.990959 0.522986 -6.72283e-22)
(0.994909 0.467385 8.02728e-22)
(0.998951 0.417988 2.32237e-21)
(1.00813 0.375973 -6.13457e-22)
(0.31501 0.298605 -1.45864e-22)
(0.666389 0.61965 -1.61427e-20)
(0.84368 0.724622 1.1956e-20)
(0.914356 0.71005 -8.67732e-21)
(0.938717 0.649635 -2.0814e-21)
(0.949411 0.582045 2.02909e-21)
(0.957688 0.519558 4.578e-21)
(0.965208 0.463757 -5.27536e-21)
(0.973738 0.413414 -1.10236e-20)
(0.988003 0.371382 6.33666e-21)
(0.299873 0.305572 3.14794e-21)
(0.630726 0.625495 3.07181e-22)
(0.799392 0.72504 3.46087e-22)
(0.869301 0.706447 -4.20968e-21)
(0.896868 0.644327 -1.39978e-21)
(0.911939 0.576329 -8.90279e-21)
(0.924323 0.513911 -2.28965e-21)
(0.93567 0.458211 -2.34379e-21)
(0.949147 0.406798 1.85138e-20)
(0.965252 0.360778 -2.82027e-21)
(0.283299 0.310318 -1.07936e-20)
(0.593431 0.627256 -5.90927e-21)
(0.754113 0.721263 3.32521e-21)
(0.823871 0.699199 1.69555e-21)
(0.854985 0.635946 -5.69656e-21)
(0.87455 0.568002 2.0651e-20)
(0.891136 0.506013 -1.68501e-20)
(0.906527 0.450822 2.09077e-20)
(0.923965 0.400163 -1.45986e-20)
(0.939735 0.355681 -2.05401e-20)
(0.265541 0.312741 3.87269e-21)
(0.554938 0.624869 -4.12888e-21)
(0.708268 0.713278 1.83577e-21)
(0.778409 0.6883 8.24122e-21)
(0.813336 0.624489 -5.08741e-21)
(0.837472 0.557047 7.56478e-21)
(0.85834 0.495811 9.52728e-21)
(0.877792 0.441289 -5.0987e-21)
(0.898644 0.391133 -1.60776e-20)
(0.915437 0.346825 2.17228e-20)
(0.246857 0.312768 4.7445e-21)
(0.515679 0.618305 5.56133e-21)
(0.662273 0.701104 -7.33045e-21)
(0.733254 0.673775 -6.20138e-21)
(0.772187 0.609973 3.01587e-20)
(0.800929 0.543485 -3.18793e-20)
(0.826082 0.483363 4.02027e-20)
(0.849463 0.429881 -9.88525e-21)
(0.87338 0.380846 1.07371e-20)
(0.891871 0.337775 2.12878e-20)
(0.227512 0.310352 -7.33702e-22)
(0.476083 0.607574 -7.08783e-21)
(0.616535 0.684788 -7.16461e-21)
(0.688737 0.655671 -3.05974e-21)
(0.731803 0.592436 5.6541e-21)
(0.765143 0.527338 -9.60847e-21)
(0.794536 0.468674 -1.18757e-20)
(0.82171 0.416512 -2.78668e-20)
(0.848564 0.368839 2.79816e-20)
(0.8692 0.327208 -8.64458e-21)
(0.207771 0.305478 1.95236e-20)
(0.436569 0.592723 -3.27694e-21)
(0.57145 0.664409 -1.025e-20)
(0.64518 0.634062 1.20198e-20)
(0.692442 0.571937 -2.13039e-20)
(0.730325 0.508658 6.03994e-20)
(0.76387 0.451798 -3.25923e-20)
(0.794702 0.401279 2.99007e-20)
(0.824425 0.355291 -5.48157e-20)
(0.847445 0.315292 -1.47404e-20)
(0.187897 0.298156 -4.37713e-21)
(0.397549 0.573836 2.09883e-20)
(0.527397 0.640076 4.38453e-21)
(0.602895 0.609045 -1.1754e-20)
(0.654356 0.548555 -2.06234e-20)
(0.696682 0.487509 -5.70669e-23)
(0.734255 0.432789 1.0869e-20)
(0.768606 0.384213 -2.74e-20)
(0.801127 0.340168 1.31795e-20)
(0.826642 0.30194 1.69102e-21)
(0.168149 0.288425 -3.6593e-20)
(0.359418 0.551029 -8.70671e-21)
(0.484745 0.611924 -2.69194e-21)
(0.56218 0.58074 3.14855e-20)
(0.617785 0.52239 -2.9817e-20)
(0.664415 0.463973 -7.39839e-21)
(0.705864 0.411721 -4.78932e-21)
(0.743585 0.365378 8.52838e-21)
(0.778811 0.323515 -1.129e-20)
(0.806853 0.287193 -1.74627e-20)
(0.148779 0.276348 3.40535e-20)
(0.322556 0.524453 -1.97188e-20)
(0.44384 0.580116 7.12686e-22)
(0.523319 0.549292 -4.83445e-20)
(0.582961 0.493559 5.28843e-20)
(0.633716 0.438151 -1.67887e-20)
(0.678863 0.388677 1.00476e-20)
(0.719787 0.34484 8.84119e-21)
(0.757602 0.305374 2.56368e-20)
(0.788148 0.271096 -1.07809e-20)
(0.130031 0.262015 -1.36959e-20)
(0.287321 0.494289 4.1276e-20)
(0.405012 0.544843 2.34994e-20)
(0.486583 0.514863 3.92418e-20)
(0.550104 0.4622 -8.95215e-21)
(0.604771 0.410157 3.68958e-21)
(0.653411 0.363757 2.97382e-20)
(0.697351 0.322683 6.77667e-21)
(0.737615 0.285809 6.57445e-22)
(0.770602 0.253719 -1.30131e-20)
(0.112135 0.245537 -3.34775e-20)
(0.254053 0.460746 -2.31107e-21)
(0.36857 0.506318 -1.40982e-20)
(0.452221 0.47764 -6.40044e-20)
(0.519419 0.428467 -6.21689e-20)
(0.577753 0.380123 1.03004e-20)
(0.629656 0.337074 -2.55911e-20)
(0.676407 0.298998 1.65904e-20)
(0.718959 0.264899 8.97851e-21)
(0.75429 0.235143 1.8428e-20)
(0.0953084 0.22705 5.03917e-20)
(0.223065 0.424061 -4.13069e-20)
(0.334797 0.464776 -2.11728e-20)
(0.420469 0.437825 3.71059e-20)
(0.4911 0.392531 4.26617e-20)
(0.552825 0.348194 -1.43654e-20)
(0.607738 0.308752 -1.95862e-21)
(0.657075 0.273891 -5.13773e-20)
(0.701737 0.242734 -2.90305e-20)
(0.739284 0.215458 1.11253e-20)
(0.0797517 0.206707 -2.88506e-20)
(0.194645 0.384496 1.21115e-20)
(0.303954 0.420476 4.507e-20)
(0.391541 0.39564 -2.05771e-20)
(0.465321 0.354579 1.7755e-21)
(0.530135 0.314529 5.7726e-20)
(0.587786 0.278926 2.54879e-21)
(0.639468 0.247479 4.95977e-20)
(0.686046 0.219416 2.06576e-20)
(0.72565 0.194763 -3.28825e-20)
(0.0656481 0.184681 4.08157e-20)
(0.169053 0.342335 4.66494e-21)
(0.276277 0.373694 3.03891e-21)
(0.365628 0.351321 4.15818e-20)
(0.442244 0.314809 -5.43896e-21)
(0.50982 0.279298 -3.63553e-20)
(0.569915 0.247745 1.78266e-20)
(0.623686 0.219886 -2.85694e-20)
(0.671973 0.195054 -1.18719e-20)
(0.713452 0.173163 1.20062e-20)
(0.053161 0.161162 -2.54109e-20)
(0.146522 0.297881 -4.91608e-20)
(0.251974 0.324723 1.14826e-20)
(0.342903 0.30512 -2.24279e-20)
(0.422009 0.273435 -1.34401e-20)
(0.492 0.242684 3.28106e-20)
(0.554229 0.215364 -7.931e-21)
(0.60982 0.191247 7.23241e-21)
(0.659598 0.169767 -8.86689e-21)
(0.702745 0.150764 1.76894e-20)
(0.042433 0.136354 9.37954e-21)
(0.127249 0.251456 3.33116e-20)
(0.231224 0.273872 -4.64857e-20)
(0.323514 0.257302 2.19046e-20)
(0.40474 0.23068 -1.00115e-20)
(0.476779 0.204877 -2.81783e-20)
(0.540818 0.181949 2.30685e-20)
(0.59795 0.161706 4.78572e-21)
(0.648991 0.143681 -7.38137e-22)
(0.693577 0.127681 -2.05606e-20)
(0.0335847 0.110474 3.11986e-21)
(0.111405 0.203396 1.08865e-20)
(0.21418 0.221461 4.22744e-20)
(0.307585 0.20814 -8.15462e-21)
(0.39054 0.186776 -6.42926e-21)
(0.464247 0.166077 2.34993e-21)
(0.529759 0.147671 1.12764e-21)
(0.588144 0.13141 8.62338e-21)
(0.640213 0.116927 -1.13524e-20)
(0.685989 0.104029 -7.2083e-21)
(0.0267132 0.0837475 -7.73663e-21)
(0.0991241 0.154048 -1.32395e-20)
(0.200962 0.167821 -3.30883e-20)
(0.295217 0.157918 1.66664e-20)
(0.379494 0.141964 1.35644e-20)
(0.454475 0.126491 5.79234e-22)
(0.521113 0.112708 -2.26739e-20)
(0.580457 0.100513 -1.00981e-20)
(0.633312 0.0896408 7.95296e-21)
(0.680015 0.0799242 8.53522e-21)
(0.021892 0.0564097 1.36169e-21)
(0.0905078 0.103772 -2.81041e-21)
(0.191662 0.113293 6.26992e-21)
(0.286486 0.106926 -4.2425e-21)
(0.371663 0.0964907 -3.78093e-21)
(0.447516 0.08633 -2.55772e-21)
(0.514928 0.077243 4.68503e-21)
(0.57493 0.069174 1.78528e-20)
(0.628327 0.0619587 2.57429e-21)
(0.675678 0.0554764 -4.56078e-21)
(0.0191699 0.0287009 1.68053e-21)
(0.0856237 0.0529326 -4.62259e-21)
(0.18634 0.0582213 -5.24187e-21)
(0.28144 0.05546 -3.63511e-21)
(0.36709 0.0506061 3.45941e-21)
(0.443406 0.0458089 1.56002e-21)
(0.511234 0.0414611 -1.55234e-21)
(0.571591 0.0375537 -7.07906e-21)
(0.625277 0.0340221 2.32995e-21)
(0.672982 0.0308046 -2.17628e-21)
(0.0185706 0.000864882 -1.69576e-21)
(0.0845043 0.00189766 4.66272e-21)
(0.185026 0.00295518 5.28118e-21)
(0.280105 0.00381745 -5.05094e-21)
(0.365794 0.00456347 4.44514e-21)
(0.442163 0.00514532 2.22405e-21)
(0.510046 0.00555061 -3.54763e-21)
(0.570455 0.00581753 -4.12605e-21)
(0.624178 0.00598651 6.09315e-22)
(0.671935 0.00609226 -1.71416e-21)
(0.020093 -0.0268537 1.858e-21)
(0.0871472 -0.0489623 -5.55393e-21)
(0.187717 -0.0521557 1.25001e-20)
(0.282479 -0.0477025 -1.09636e-20)
(0.367776 -0.0413834 -5.08618e-22)
(0.443787 -0.035443 -7.25923e-21)
(0.511366 -0.0303019 1.17953e-20)
(0.571526 -0.0258759 1.60308e-20)
(0.625057 -0.0220217 2.87214e-21)
(0.672652 -0.0186211 -6.17468e-21)
(0.0237106 -0.0542113 -1.6174e-21)
(0.0935151 -0.0992789 -1.18455e-20)
(0.194379 -0.106763 -2.74695e-20)
(0.288534 -0.0988022 2.37325e-20)
(0.373012 -0.0869818 4.90628e-21)
(0.448257 -0.0757393 4.3209e-21)
(0.515175 -0.0659098 -2.13053e-20)
(0.574783 -0.0573663 -1.25215e-20)
(0.627863 -0.0498683 -2.76714e-21)
(0.674959 -0.0432537 1.90886e-20)
(0.029372 -0.0809683 -5.71248e-21)
(0.103536 -0.148688 7.11329e-21)
(0.204949 -0.160521 5.00186e-20)
(0.298218 -0.149187 -4.46191e-21)
(0.381458 -0.131982 -1.27876e-20)
(0.455537 -0.115529 9.19454e-21)
(0.521441 -0.101087 5.69862e-22)
(0.5802 -0.0884886 3.24272e-21)
(0.632584 -0.0773941 -7.06327e-21)
(0.678901 -0.0675997 -1.86747e-20)
(0.0370014 -0.106891 -3.8837e-21)
(0.117104 -0.196832 2.10244e-20)
(0.219331 -0.213092 -5.05021e-20)
(0.311451 -0.198567 2.19239e-20)
(0.393049 -0.176138 1.97105e-22)
(0.465571 -0.154601 -2.76848e-20)
(0.530118 -0.135652 1.21815e-20)
(0.587735 -0.119086 -1.10505e-21)
(0.639186 -0.104466 4.62589e-21)
(0.684459 -0.0915714 -1.44008e-21)
(0.0464991 -0.131753 -4.45175e-20)
(0.134079 -0.243365 -5.30406e-20)
(0.237398 -0.264146 1.3811e-20)
(0.328131 -0.246661 -2.50913e-20)
(0.407699 -0.219211 -7.14747e-21)
(0.478286 -0.19275 1.05387e-20)
(0.541142 -0.169428 3.93258e-21)
(0.597333 -0.149005 1.46051e-20)
(0.647618 -0.130952 -3.14911e-21)
(0.691597 -0.115059 1.6808e-20)
(0.0577423 -0.155341 4.26027e-20)
(0.154288 -0.287953 2.72865e-20)
(0.258996 -0.313363 -2.07747e-20)
(0.348129 -0.293195 3.48697e-20)
(0.425303 -0.26097 -3.04006e-21)
(0.493592 -0.229779 -3.75435e-20)
(0.554436 -0.202244 6.59725e-21)
(0.608927 -0.1781 -3.97189e-20)
(0.657822 -0.15672 1.50164e-21)
(0.700275 -0.137947 1.4428e-20)
(0.0705866 -0.177452 -3.20049e-20)
(0.177526 -0.330275 5.71302e-20)
(0.28394 -0.360437 2.23107e-20)
(0.371294 -0.337908 -2.74015e-20)
(0.445735 -0.301193 1.44386e-22)
(0.511384 -0.265497 6.9335e-20)
(0.56991 -0.233937 3.21243e-21)
(0.622435 -0.206227 3.07173e-20)
(0.669727 -0.181647 3.73622e-20)
(0.710444 -0.160123 -2.09225e-20)
(0.0848665 -0.197899 1.79588e-20)
(0.203559 -0.37003 -8.55279e-21)
(0.312018 -0.405076 -2.03254e-20)
(0.397452 -0.380549 1.54408e-20)
(0.468852 -0.33967 5.85757e-20)
(0.53154 -0.299725 -2.04403e-20)
(0.587459 -0.264352 -3.28012e-21)
(0.637767 -0.233254 -4.45422e-20)
(0.683253 -0.205614 -5.50208e-20)
(0.722048 -0.181481 2.40202e-20)
(0.100398 -0.216512 -2.42011e-20)
(0.232122 -0.406939 -2.12489e-20)