/*--------------------------------*- C++ -*----------------------------------*\
  =========                 |
  \\      /  F ield         | OpenFOAM: The Open Source CFD Toolbox
   \\    /   O peration     | Website:  https://openfoam.org
    \\  /    A nd           | Version:  7
     \\/     M anipulation  |
\*---------------------------------------------------------------------------*/
FoamFile
{
    version     2.0;
    format      ascii;
    class       volVectorField;
    location    "105";
    object      U;
}
// * * * * * * * * * * * * * * * * * * * * * * * * * * * * * * * * * * * * * //

dimensions      [0 1 -1 0 0 0 0];

internalField   nonuniform List<vector> 
2125
(
(-0.0132683 0.0108526 -8.94316e-20)
(-0.0111912 0.0087262 3.23209e-20)
(0.00644798 0.00951687 3.48357e-20)
(-0.00845639 0.00652809 -2.18602e-20)
(0.0188827 0.00415839 -1.62831e-20)
(-0.00493535 0.00428247 4.55489e-20)
(0.0340043 -0.00109678 -1.27798e-20)
(0.125738 -0.00658022 -7.58675e-21)
(-0.000487477 0.00201826 -1.68048e-20)
(0.0520946 -0.00605634 -9.9643e-20)
(0.162583 -0.0107591 1.04291e-20)
(0.329 -0.00999552 3.59456e-20)
(0.00503019 -0.000222988 -1.83282e-20)
(0.0733949 -0.0105083 3.54133e-20)
(0.204489 -0.0134504 4.61025e-20)
(0.393448 -0.00760373 -3.3209e-20)
(0.623901 0.0104748 1.2311e-20)
(0.85993 0.0374881 -7.53374e-20)
(0.0117531 -0.00238114 -2.3596e-20)
(0.098084 -0.0142126 -7.8954e-21)
(0.251347 -0.01425 -8.33891e-20)
(0.462471 -0.00214263 -1.3049e-20)
(0.706613 0.0234766 -1.45655e-21)
(0.940523 0.055878 4.45983e-21)
(1.12502 0.0850544 7.88331e-21)
(0.0197998 -0.00437429 -6.11975e-21)
(0.126258 -0.0168977 2.89358e-20)
(0.302838 -0.0127609 4.07207e-20)
(0.534795 0.00664678 2.54675e-20)
(0.787967 0.0396335 -7.59814e-21)
(1.01435 0.0761464 -6.19591e-21)
(1.18003 0.105642 6.13954e-20)
(1.2789 0.123294 7.96238e-21)
(0.029264 -0.00609837 5.85501e-20)
(0.157911 -0.0182631 3.80375e-20)
(0.358425 -0.00861089 -3.85274e-20)
(0.608923 0.0188778 -7.66976e-21)
(0.866051 0.0586218 3.95204e-21)
(1.08038 0.0978468 -1.45045e-20)
(1.22575 0.126468 -3.13877e-20)
(1.30473 0.141665 -5.26251e-21)
(1.33512 0.146192 4.26241e-22)
(1.33764 0.140294 1.24054e-20)
(0.0402076 -0.00742923 7.10152e-21)
(0.192925 -0.0179881 -2.07015e-20)
(0.41736 -0.00147801 4.89858e-20)
(0.683258 0.0345211 3.19202e-20)
(0.939304 0.0800601 8.89195e-22)
(1.13815 0.120591 2.25956e-20)
(1.2628 0.147324 3.3618e-21)
(1.3236 0.159588 -2.35386e-20)
(1.34169 0.161074 1.96661e-20)
(1.33754 0.153814 1.53705e-24)
(0.0526546 -0.00822667 -4.80497e-20)
(0.231056 -0.015747 -1.41734e-20)
(0.47871 0.00888298 -1.28566e-20)
(0.756237 0.0534257 -2.23351e-20)
(1.00657 0.103555 5.17383e-21)
(1.18759 0.144056 1.17345e-22)
(1.29199 0.168078 1.71893e-20)
(1.33662 0.177092 -2.75998e-21)
(1.34461 0.175596 -2.02613e-20)
(1.33536 0.167049 -1.86014e-20)
(0.066587 -0.00833972 3.88474e-21)
(0.271932 -0.0112268 2.28634e-20)
(0.541408 0.0226199 1.10507e-20)
(0.826433 0.0753499 -3.46089e-20)
(1.06709 0.128731 -1.76885e-21)
(1.22896 0.167985 -1.48127e-20)
(1.31419 0.188649 3.82869e-22)
(1.34476 0.194226 6.936e-21)
(1.34462 0.189851 -7.59296e-21)
(1.33154 0.180081 2.10321e-20)
(0.0819411 -0.00761296 9.08476e-21)
(0.315063 -0.00414829 -2.23098e-20)
(0.604316 0.0397732 -5.27126e-20)
(0.892634 0.0999922 4.85619e-20)
(1.12045 0.155238 -3.62775e-21)
(1.26271 0.192173 1.07367e-20)
(1.33026 0.208994 -1.45903e-21)
(1.34883 0.211044 1.02018e-20)
(1.34229 0.203913 -7.84102e-22)
(1.32638 0.192968 -1.62833e-20)
(0.0986061 -0.00589322 -1.84702e-20)
(0.359849 0.005715 2.89549e-20)
(0.666286 0.0602783 2.39662e-20)
(0.953875 0.127017 -3.45349e-20)
(1.16651 0.182762 -5.70263e-21)
(1.2894 0.21646 2.18752e-21)
(1.34099 0.229093 2.17546e-20)
(1.34953 0.227598 1.08762e-21)
(1.33804 0.217837 4.1765e-21)
(1.32009 0.205734 -8.99645e-21)
(0.116424 -0.00303677 1.40093e-20)
(0.405605 0.0185207 -1.2618e-20)
(0.726226 0.0839753 -1.07194e-20)
(1.00944 0.156071 1.84078e-20)
(1.20536 0.21102 6.36644e-21)
(1.30962 0.24072 4.79172e-21)
(1.34709 0.248936 -2.2132e-20)
(1.34739 0.243923 -7.5353e-21)
(1.33216 0.231651 -6.71998e-21)
(1.31277 0.218383 2.96012e-21)
(0.135193 0.00108358 -6.94949e-21)
(0.451588 0.0343461 -1.61002e-22)
(0.783143 0.110625 2.02795e-20)
(1.05885 0.186798 -7.44947e-21)
(1.2372 0.239759 -3.27625e-21)
(1.32397 0.264847 -2.15878e-21)
(1.34917 0.268512 5.34194e-21)
(1.34283 0.26004 9.19803e-21)
(1.32486 0.245361 -2.9032e-22)
(1.30451 0.230897 3.31831e-21)
(0.15467 0.0065716 4.89326e-21)
(0.497025 0.053183 -1.37279e-21)
(0.836179 0.139925 -3.62414e-21)
(1.10181 0.218842 -3.28224e-21)
(1.26236 0.268746 2.95522e-21)
(1.33303 0.288747 2.29934e-21)
(1.34774 0.287806 -2.11859e-21)
(1.33615 0.275949 7.64917e-22)
(1.31627 0.258951 1.06939e-21)
(1.29534 0.243242 -1.41317e-21)
(0.174578 0.0135016 2.61144e-21)
(0.541148 0.0749375 7.46254e-22)
(0.884623 0.171526 -4.46847e-21)
(1.13819 0.251856 -3.56394e-21)
(1.28119 0.297769 3.71293e-21)
(1.3373 0.312333 7.25206e-22)
(1.34321 0.306789 -1.68604e-21)
(1.3276 0.291632 1.58306e-21)
(1.30647 0.272382 8.7958e-22)
(1.28529 0.25537 -1.00502e-21)
(0.194615 0.0219137 -1.02575e-21)
(0.583221 0.0994344 2.08237e-21)
(0.927917 0.205041 1.37332e-20)
(1.168 0.285496 -6.09159e-21)
(1.29408 0.326626 -2.99533e-21)
(1.33725 0.335516 -3.36565e-21)
(1.33592 0.32542 6.88196e-21)
(1.31735 0.307049 4.59569e-21)
(1.29554 0.285598 3.66213e-21)
(1.27439 0.267225 1.98121e-21)
(0.214462 0.0318102 2.08377e-20)
(0.622562 0.126425 -1.1465e-20)
(0.965647 0.240063 -1.30856e-20)
(1.19134 0.319432 1.77421e-20)
(1.30143 0.355125 9.31398e-21)
(1.33328 0.358203 -6.19781e-22)
(1.32614 0.343641 -1.14599e-20)
(1.30551 0.322139 -8.26041e-21)
(1.28349 0.298521 -8.56844e-21)
(1.26265 0.27874 5.07221e-21)
(0.233793 0.0431542 -2.81588e-20)
(0.658564 0.155596 2.64664e-20)
(0.997533 0.276169 3.03953e-20)
(1.20837 0.353337 -2.99508e-20)
(1.30362 0.383079 -1.03721e-20)
(1.32576 0.380296 6.63141e-21)
(1.31408 0.36138 1.20466e-20)
(1.29216 0.336828 1.8849e-21)
(1.27034 0.311062 -3.23264e-22)
(1.25003 0.289836 -6.90232e-21)
(0.252283 0.0558695 -4.01397e-21)
(0.690708 0.186582 -3.71347e-20)
(1.02342 0.312927 -3.97465e-20)
(1.21932 0.386899 4.45119e-20)
(1.30101 0.410305 -5.04541e-21)
(1.31498 0.401686 9.22979e-21)
(1.29991 0.378555 1.81103e-21)
(1.27737 0.351033 -5.12946e-21)
(1.25607 0.323131 2.74992e-21)
(1.23642 0.300435 -3.65572e-22)
(0.26962 0.0698425 8.17135e-21)
(0.718565 0.218976 2.29437e-20)
(1.04324 0.349906 1.3026e-20)
(1.22446 0.419813 -1.02558e-20)
(1.29396 0.43662 -1.58337e-20)
(1.30122 0.422257 -1.47747e-20)
(1.28379 0.395071 -2.97822e-21)
(1.26119 0.364671 7.87648e-21)
(1.24068 0.334678 -1.66195e-21)
(1.22168 0.310484 3.82017e-21)
(0.28551 0.084925 -3.07494e-20)
(0.741809 0.25234 -2.87265e-20)
(1.05703 0.386675 -4.51522e-21)
(1.22407 0.451784 -5.11988e-21)
(1.28281 0.461839 -1.161e-20)
(1.28472 0.441883 7.11686e-21)
(1.26582 0.410822 -1.29446e-21)
(1.24366 0.377649 -6.92142e-21)
(1.22423 0.345699 6.26841e-21)
(1.20584 0.319944 -9.02074e-21)
(0.299688 0.100937 7.4135e-21)
(0.760213 0.286222 2.43137e-20)
(1.06489 0.422813 2.10736e-20)
(1.21846 0.482525 2.28999e-20)
(1.26785 0.485782 4.99314e-22)
(1.26566 0.460433 1.99685e-20)
(1.24609 0.425687 1.29549e-21)
(1.22484 0.389838 -2.34984e-20)
(1.20674 0.356122 1.68121e-20)
(1.18929 0.328662 6.21411e-21)
(0.311924 0.117673 1.98672e-20)
(0.773641 0.320161 4.42714e-20)
(1.06699 0.457915 -5.89154e-21)
(1.20795 0.511765 -2.87684e-20)
(1.24938 0.50827 1.2993e-20)
(1.24422 0.477773 -1.35147e-20)
(1.22467 0.439526 -1.79714e-20)
(1.20489 0.401144 -1.51937e-21)
(1.18817 0.365733 -1.3919e-20)
(1.17211 0.336681 5.3954e-21)
(0.322024 0.134903 9.25942e-21)
(0.782039 0.353701 6.75803e-21)
(1.06354 0.491588 5.49801e-20)
(1.19287 0.539242 1.02989e-20)
(1.22767 0.529138 -8.96111e-21)
(1.22056 0.493768 -4.62581e-21)
(1.20185 0.452209 2.74291e-20)
(1.18379 0.411438 2.25825e-20)
(1.16855 0.374458 1.1239e-20)
(1.15422 0.343823 -1.51997e-21)
(0.329838 0.152388 1.9363e-21)
(0.785433 0.386393 -4.5134e-20)
(1.05481 0.523456 -6.45443e-20)
(1.17356 0.564713 1.98428e-21)
(1.203 0.548229 1.27207e-20)
(1.19498 0.508239 -1.75429e-20)
(1.17767 0.463618 -4.00751e-20)
(1.16147 0.420647 -1.19578e-20)
(1.14801 0.382156 -7.22671e-22)
(1.13559 0.350012 5.72874e-21)
(0.335258 0.169875 -1.6007e-20)
(0.783922 0.417807 4.02446e-20)
(1.04114 0.553174 3.86949e-20)
(1.15036 0.587934 -3.56431e-20)
(1.17565 0.565339 5.4557e-21)
(1.16764 0.521089 4.22533e-20)
(1.15211 0.473617 -9.36575e-21)
(1.13812 0.428646 7.94336e-21)
(1.1266 0.388745 -3.84009e-21)
(1.11629 0.355164 -5.14718e-21)
(0.33822 0.187111 -3.5863e-20)
(0.777687 0.44753 -6.35177e-20)
(1.02291 0.580447 -1.24611e-20)
(1.12354 0.608662 2.04285e-20)
(1.14587 0.580304 2.00331e-20)
(1.13864 0.532142 -4.20282e-20)
(1.12536 0.482109 2.29869e-20)
(1.11381 0.435333 -1.20931e-20)
(1.1044 0.39413 9.79904e-21)
(1.09637 0.359216 2.95722e-22)
(0.338712 0.203838 2.73709e-20)
(0.767 0.475154 1.99429e-21)
(1.00047 0.60503 -6.07853e-21)
(1.09335 0.626688 -2.51755e-20)
(1.11391 0.592933 1.628e-20)
(1.10817 0.541266 3.56592e-21)
(1.09754 0.488967 -1.31015e-20)
(1.08865 0.440604 2.28419e-21)
(1.08149 0.398218 -2.63988e-21)
(1.07594 0.362093 1.41695e-21)
(0.336787 0.21981 -7.42958e-21)
(0.752197 0.500335 -1.03177e-20)
(0.973843 0.626511 2.64937e-20)
(1.06029 0.641944 1.23478e-20)
(1.08011 0.603059 -1.6933e-20)
(1.07644 0.54833 2.38534e-20)
(1.0688 0.494081 1.76889e-21)
(1.06275 0.444367 2.04464e-21)
(1.05796 0.400913 -3.09357e-23)
(1.05506 0.363707 1.17967e-22)
(0.33254 0.234767 4.80758e-20)
(0.733545 0.522973 3.71613e-20)
(0.943266 0.644517 -2.69087e-21)
(1.02484 0.654107 -5.7366e-21)
(1.04469 0.610632 -6.87859e-21)
(1.04362 0.553232 -3.41004e-21)
(1.03927 0.497352 1.91032e-21)
(1.03621 0.446539 1.71424e-21)
(1.0339 0.402124 4.69857e-22)
(1.03382 0.363961 -2.43574e-21)
(0.326048 0.248341 3.78214e-21)
(0.711107 0.542686 6.31749e-21)
(0.90966 0.659254 -3.41807e-20)
(0.987328 0.662942 1.52011e-20)
(1.00794 0.615509 4.11252e-21)
(1.00992 0.555871 -9.34054e-21)
(1.00911 0.49869 3.25684e-21)
(1.00915 0.447048 1.13352e-21)
(1.00945 0.401784 -3.15307e-21)
(1.01245 0.362805 3.31463e-21)
(0.317304 0.260315 -1.82314e-20)
(0.685094 0.558875 -1.31455e-20)
(0.87351 0.670406 1.08731e-20)
(0.948041 0.668474 2.83822e-21)
(0.970085 0.617597 -5.98646e-21)
(0.975516 0.556157 5.49498e-21)
(0.978441 0.498008 1.96241e-21)
(0.981674 0.445806 -6.36643e-21)
(0.984853 0.399829 1.80579e-20)
(0.991604 0.360281 7.57251e-21)
(0.306543 0.270522 -1.3897e-20)
(0.656158 0.571431 3.43533e-20)
(0.835088 0.677739 -2.18684e-20)
(0.907317 0.670608 -3.21808e-21)
(0.931405 0.616812 -3.82719e-21)
(0.940607 0.55401 1.0595e-22)
(0.947386 0.495225 -6.49461e-21)
(0.953896 0.442678 3.48611e-21)
(0.960533 0.396066 -1.16758e-22)
(0.972026 0.356436 -3.20916e-21)
(0.293987 0.27888 -1.15296e-21)
(0.624719 0.580212 -1.02113e-20)
(0.794803 0.681085 5.50028e-21)
(0.865503 0.669263 -2.98969e-21)
(0.892157 0.613097 3.88424e-21)
(0.905375 0.549385 4.35471e-21)
(0.916065 0.490295 1.30495e-20)
(0.92601 0.437565 -1.01677e-20)
(0.936848 0.390103 -1.94773e-20)
(0.952999 0.350585 8.68349e-21)
(0.279801 0.285207 -1.87624e-22)
(0.591214 0.585089 -2.05957e-21)
(0.753077 0.680358 9.35595e-22)
(0.822946 0.664381 5.02638e-21)
(0.852607 0.606415 -1.00644e-20)
(0.870016 0.542255 -1.75953e-20)
(0.884669 0.483225 -5.13136e-21)
(0.898287 0.430595 -1.69862e-21)
(0.913769 0.382138 2.69445e-20)
(0.93158 0.338872 -5.57782e-21)
(0.264208 0.289364 -6.15563e-22)
(0.556075 0.585958 -4.38855e-21)
(0.71034 0.67551 8.00723e-22)
(0.779998 0.65593 9.35599e-22)
(0.813022 0.596742 -8.01329e-21)
(0.834749 0.532598 3.42285e-20)
(0.85346 0.473987 -2.42605e-20)
(0.870947 0.421865 2.90419e-20)
(0.890174 0.374152 -2.03544e-20)
(0.907681 0.332376 -2.71368e-20)
(0.247453 0.291246 -5.6877e-22)
(0.51973 0.58275 -1.30313e-21)
(0.667014 0.666528 6.12476e-22)
(0.737002 0.643904 1.25874e-20)
(0.773667 0.584073 -5.46125e-21)
(0.799801 0.520395 8.24425e-21)
(0.822646 0.462528 1.41625e-20)
(0.844026 0.411086 -7.47052e-21)
(0.866502 0.36392 -1.99219e-20)
(0.885026 0.322428 2.74226e-20)
(0.229791 0.290778 1.02376e-20)
(0.482607 0.575434 1.34356e-20)
(0.623515 0.653428 -1.31118e-20)
(0.694296 0.628327 -1.14938e-20)
(0.734808 0.568425 4.12714e-20)
(0.76539 0.505666 -4.19023e-20)
(0.792375 0.448901 5.04211e-20)
(0.817533 0.398495 -1.25751e-20)
(0.842961 0.352435 1.34949e-20)
(0.863179 0.312131 2.53214e-20)
(0.211479 0.287912 -3.68164e-21)
(0.445132 0.564016 -1.33201e-20)
(0.58025 0.636257 -8.32901e-21)
(0.652213 0.609246 -4.47649e-21)
(0.696708 0.549835 5.32165e-21)
(0.731737 0.488433 -1.1146e-20)
(0.762821 0.433113 -1.50607e-20)
(0.791631 0.384027 -3.3017e-20)
(0.819893 0.33932 3.27824e-20)
(0.842213 0.300407 -1.05057e-20)
(0.192779 0.28263 2.5594e-20)
(0.407724 0.548542 -3.17234e-21)
(0.537614 0.615093 -1.1674e-20)
(0.611074 0.586734 1.48916e-20)
(0.659625 0.528362 -2.65363e-20)
(0.699052 0.468746 7.12301e-20)
(0.734151 0.415216 -3.79522e-20)
(0.766486 0.367765 3.43597e-20)
(0.797516 0.32472 -6.30121e-20)
(0.822147 0.287384 -1.67212e-20)
(0.173951 0.274941 -7.96216e-21)
(0.370791 0.529092 2.7131e-20)
(0.49599 0.590042 6.32954e-21)
(0.571191 0.560888 -1.38396e-20)
(0.623809 0.504084 -2.38793e-20)
(0.667541 0.446668 -7.61098e-22)
(0.706535 0.395263 1.26559e-20)
(0.742262 0.349744 -3.10266e-20)
(0.775986 0.308615 1.5205e-20)
(0.803024 0.273005 2.00846e-21)
(0.155252 0.264882 -4.47109e-20)
(0.33473 0.505781 -1.09674e-20)
(0.455742 0.561239 -3.05013e-21)
(0.532863 0.531826 3.58921e-20)
(0.5895 0.477098 -3.33572e-20)
(0.637402 0.42228 -8.60934e-21)
(0.680144 0.373325 -5.26371e-21)
(0.719117 0.330025 9.68505e-21)
(0.755443 0.291047 -1.22825e-20)
(0.784911 0.257305 -1.91209e-20)
(0.136932 0.252515 3.96492e-20)
(0.299918 0.478757 -2.25305e-20)
(0.417222 0.528846 1.08297e-21)
(0.496374 0.499692 -5.45102e-20)
(0.55693 0.447522 5.90594e-20)
(0.608828 0.395682 -1.86459e-20)
(0.655143 0.349487 1.11622e-20)
(0.697199 0.308677 9.68143e-21)
(0.73601 0.272065 2.80706e-20)
(0.767882 0.240335 -1.15513e-20)
(0.119232 0.237928 -1.61323e-20)
(0.266716 0.448199 4.67688e-20)
(0.380757 0.49305 2.63369e-20)
(0.461993 0.464647 4.3064e-20)
(0.526317 0.415492 -9.9366e-21)
(0.582003 0.366988 4.01709e-21)
(0.631689 0.323847 3.21898e-20)
(0.676644 0.285781 7.18092e-21)
(0.717802 0.251731 6.92917e-22)
(0.752012 0.222162 -1.38117e-20)
(0.102382 0.221231 -3.7179e-20)
(0.235461 0.414316 -2.72828e-21)
(0.346658 0.454065 -1.54638e-20)
(0.429972 0.426877 -6.93341e-20)
(0.497867 0.381161 -6.69183e-20)
(0.557099 0.336326 1.11682e-20)
(0.60993 0.296517 -2.74421e-20)
(0.657581 0.261429 1.75095e-20)
(0.700927 0.230125 9.50412e-21)
(0.737375 0.202868 1.98283e-20)
(0.0865971 0.202557 5.46105e-20)
(0.206469 0.377342 -4.4657e-20)
(0.315208 0.412126 -2.26458e-20)
(0.400546 0.386583 4.01e-20)
(0.471772 0.344698 4.5553e-20)
(0.534278 0.303842 -1.50917e-20)
(0.590004 0.267619 -1.95147e-21)
(0.64013 0.235727 -5.44879e-20)
(0.68549 0.207336 -3.07955e-20)
(0.724044 0.182542 1.17378e-20)
(0.0720785 0.182061 -3.10664e-20)
(0.180028 0.337538 1.30875e-20)
(0.28667 0.367488 4.80511e-20)
(0.373929 0.343986 -2.15204e-20)
(0.448208 0.306289 1.69245e-21)
(0.513689 0.269693 6.07791e-20)
(0.57204 0.23729 2.79616e-21)
(0.624402 0.20879 5.22016e-20)
(0.671583 0.183466 2.17521e-20)
(0.712085 0.161281 -3.45745e-20)
(0.0590082 0.159914 4.29976e-20)
(0.156399 0.295186 4.75141e-21)
(0.261281 0.320429 3.11866e-21)
(0.350314 0.299321 4.38111e-20)
(0.427334 0.266132 -5.845e-21)
(0.495467 0.234049 -3.81402e-20)
(0.556152 0.205675 1.86609e-20)
(0.610498 0.180744 -2.98186e-20)
(0.659297 0.158625 -1.24617e-20)
(0.70156 0.139189 1.25797e-20)
(0.0475492 0.136305 -2.68184e-20)
(0.135814 0.250591 -5.1476e-20)
(0.239247 0.271239 1.18765e-20)
(0.329872 0.25284 -2.32465e-20)
(0.409292 0.224438 -1.40371e-20)
(0.479732 0.197091 3.39805e-20)
(0.542443 0.17293 -8.22105e-21)
(0.598507 0.151721 7.58697e-21)
(0.648708 0.132931 -9.22567e-21)
(0.692524 0.116372 1.83094e-20)
(0.0378437 0.111438 9.6922e-21)
(0.118472 0.204071 3.46514e-20)
(0.220751 0.220226 -4.80887e-20)
(0.312753 0.204805 2.27219e-20)
(0.394206 0.181431 -1.03492e-20)
(0.466589 0.159008 -2.91036e-20)
(0.531004 0.139219 2.37442e-20)
(0.588508 0.121864 4.97748e-21)
(0.639887 0.106508 -7.67735e-22)
(0.685024 0.0929418 -2.12842e-20)
(0.0300118 0.0855287 3.16726e-21)
(0.104544 0.155963 1.11466e-20)
(0.205945 0.167712 4.34918e-20)
(0.299082 0.15549 -8.3316e-21)
(0.382178 0.137341 -6.56392e-21)
(0.456125 0.119999 2.43029e-21)
(0.52191 0.104713 1.06716e-21)
(0.580569 0.091322 8.85948e-21)
(0.632893 0.0794881 -1.16371e-20)
(0.679102 0.0690156 -7.40067e-21)
(0.0241504 0.0588034 -7.92408e-21)
(0.0941645 0.106615 -1.35682e-20)
(0.19495 0.114026 -3.3783e-20)
(0.288958 0.105178 1.69936e-20)
(0.373293 0.0924091 1.38582e-20)
(0.448413 0.080271 5.88195e-22)
(0.515222 0.0695897 -2.31489e-20)
(0.574745 0.0602465 -1.02734e-20)
(0.627774 0.0520035 8.14697e-21)
(0.67479 0.044701 8.71643e-21)
(0.0203326 0.0314967 1.37439e-21)
(0.0874365 0.0563845 -2.83405e-21)
(0.18786 0.0595078 6.41804e-21)
(0.282458 0.0541579 -4.34577e-21)
(0.367612 0.0468799 -3.82232e-21)
(0.443504 0.0400333 -2.5928e-21)
(0.510986 0.0340299 4.76074e-21)
(0.571074 0.0287947 1.81349e-20)
(0.624563 0.0241872 2.62835e-21)
(0.672105 0.02009 -4.65809e-21)
(0.279632 0.00272551 -3.67602e-21)
(0.365178 0.00100367 3.49965e-21)
(0.441434 -0.000499001 1.57881e-21)
(0.509232 -0.00177976 -1.57319e-21)
(0.569582 -0.00286803 -7.16444e-21)
(0.623274 -0.00380091 2.35862e-21)
(0.671014 -0.00461395 -2.2061e-21)
(1.27859 0.228026 -1.626e-22)
(1.28751 0.217942 -1.60172e-21)
(1.29575 0.207622 -3.2962e-22)
(1.30328 0.197091 -9.78666e-22)
(1.31008 0.18637 5.53983e-21)
(1.3161 0.175469 -5.25221e-21)
(1.32127 0.164386 3.32497e-21)
(1.32543 0.153099 1.36467e-20)
(1.26462 0.216642 -3.94727e-23)
(1.27325 0.207711 1.37044e-21)
(1.28132 0.198571 1.19213e-21)
(1.28882 0.189237 -5.88003e-21)
(1.29576 0.179723 1.92091e-21)
(1.30209 0.170036 -1.18816e-21)
(1.30778 0.160179 3.3086e-21)
(1.31275 0.150144 -6.45918e-21)
(1.25135 0.205179 4.34321e-22)
(1.25937 0.197276 9.91212e-22)
(1.26698 0.189198 5.69809e-22)
(1.27418 0.180959 2.89445e-21)
(1.28095 0.17257 3.84288e-21)
(1.2873 0.164037 5.60012e-21)
(1.29319 0.155362 -1.61862e-22)
(1.29858 0.146547 1.05927e-21)
(1.23936 0.194091 -1.43424e-22)
(1.24669 0.187091 -1.69943e-21)
(1.25369 0.179955 -1.57369e-21)
(1.26039 0.172695 1.15263e-21)
(1.26678 0.165319 -4.33854e-21)
(1.27287 0.157831 -1.00991e-20)
(1.27866 0.150233 4.45857e-21)
(1.28412 0.142525 5.40732e-22)
(1.22851 0.183519 1.89902e-23)
(1.2352 0.177316 8.41869e-22)
(1.24163 0.171 2.13069e-21)
(1.24779 0.164582 8.11544e-22)
(1.25372 0.158069 -1.70599e-22)
(1.25941 0.151466 2.45831e-21)
(1.26488 0.144772 1.87587e-21)
(1.27011 0.137988 -2.13432e-21)
(1.21852 0.173382 1.36567e-24)
(1.22465 0.167888 8.9245e-22)
(1.23055 0.162298 -1.53723e-21)
(1.23624 0.156619 -1.17319e-21)
(1.24171 0.150858 7.48574e-22)
(1.24698 0.145016 1.63771e-21)
(1.25206 0.139096 -2.87681e-21)
(1.25695 0.133097 -1.37129e-21)
(1.20916 0.163612 8.59485e-23)
(1.21481 0.158754 -9.27861e-22)
(1.22025 0.153814 1.38043e-21)
(1.2255 0.148799 8.75672e-22)
(1.23057 0.143711 1.70516e-21)
(1.23546 0.138554 -7.09403e-22)
(1.24018 0.13333 -4.67344e-21)
(1.24473 0.128039 3.10927e-21)
(1.20034 0.154169 -2.03709e-22)
(1.20554 0.149886 -4.11921e-22)
(1.21057 0.145534 -4.56146e-22)
(1.21544 0.141118 -5.18946e-22)
(1.22015 0.136642 3.02052e-22)
(1.2247 0.132109 1.91518e-21)
(1.22911 0.12752 5.1308e-21)
(1.23337 0.122876 1.06652e-21)
(1.19201 0.145038 9.80982e-23)
(1.1968 0.141269 -2.8039e-23)
(1.20145 0.137446 -1.84028e-22)
(1.20596 0.13357 -8.61106e-22)
(1.21035 0.129646 -1.51783e-21)
(1.2146 0.125674 -2.00343e-21)
(1.21873 0.121659 -1.34289e-21)
(1.22272 0.117598 -1.93364e-21)
(1.18408 0.136242 6.20311e-23)
(1.1885 0.132927 7.43525e-22)
(1.1928 0.12957 6.3561e-23)
(1.197 0.126172 6.30397e-22)
(1.20108 0.122735 4.08064e-23)
(1.20505 0.119262 -2.82611e-21)
(1.20892 0.115755 -1.89573e-22)
(1.21268 0.112212 1.64353e-21)
(1.17653 0.127732 -1.49914e-22)
(1.18061 0.124823 1.92572e-22)
(1.18459 0.121881 -2.09092e-22)
(1.18849 0.118908 -4.10175e-22)
(1.19229 0.115905 -6.01712e-22)
(1.19601 0.112875 1.90121e-21)
(1.19963 0.109819 9.10339e-22)
(1.20317 0.106738 -1.54173e-21)
(1.16932 0.119499 4.81657e-23)
(1.17309 0.116951 -6.31756e-22)
(1.17678 0.114377 3.43304e-22)
(1.1804 0.11178 2.45677e-23)
(1.18394 0.109162 6.5996e-22)
(1.18742 0.106523 -6.86097e-22)
(1.19082 0.103867 9.09977e-22)
(1.19415 0.101193 1.20634e-21)
(1.16242 0.111542 3.04438e-23)
(1.1659 0.10931 2.56724e-22)
(1.16933 0.10706 -6.13365e-22)
(1.17269 0.104793 -1.11267e-22)
(1.176 0.102512 -6.89553e-22)
(1.17925 0.100217 7.53565e-22)
(1.18244 0.0979096 -2.85718e-21)
(1.18557 0.0955915 -1.72523e-21)
(1.15581 0.103826 -7.51928e-23)
(1.15903 0.101877 8.2296e-23)
(1.16221 0.0999146 5.02448e-22)
(1.16534 0.09794 -2.77964e-22)
(1.16842 0.0959549 1.12182e-21)
(1.17146 0.0939607 -3.96444e-22)
(1.17445 0.091959 5.67051e-22)
(1.1774 0.0899508 9.77231e-22)
(1.14948 0.0963389 7.30421e-23)
(1.15247 0.0946399 -2.834e-23)
(1.15542 0.092931 -4.07123e-22)
(1.15832 0.0912136 9.3307e-22)
(1.1612 0.0894891 -5.38345e-22)
(1.16403 0.0877587 4.63648e-22)
(1.16683 0.0860237 4.80586e-22)
(1.1696 0.0842854 1.94285e-22)
(1.14342 0.0890921 3.96064e-23)
(1.14618 0.0876097 6.7589e-23)
(1.14891 0.0861203 1.92382e-22)
(1.15162 0.0846254 -6.89625e-22)
(1.15429 0.083126 -4.47041e-22)
(1.15694 0.0816233 8.53169e-23)
(1.15957 0.0801183 -4.30734e-22)
(1.16216 0.0786123 4.86736e-22)
(1.16473 0.0771061 -1.90751e-21)
(1.13759 0.0820528 -5.81466e-23)
(1.14015 0.0807618 -1.76213e-23)
(1.14269 0.0794659 -9.80272e-25)
(1.14521 0.0781661 4.89713e-22)
(1.1477 0.0768635 3.27752e-22)
(1.15017 0.075559 -2.10626e-22)
(1.15262 0.0742536 -3.9933e-22)
(1.15505 0.0729481 8.56167e-23)
(1.15746 0.0716435 2.93109e-22)
(1.13201 0.0752144 4.23332e-23)
(1.13438 0.074091 -8.21852e-24)
(1.13674 0.072964 1.6315e-22)
(1.13908 0.0718343 -1.63476e-22)
(1.1414 0.0707026 -2.90416e-23)
(1.1437 0.0695699 4.38767e-22)
(1.14599 0.0684369 1.84277e-22)
(1.14826 0.0673043 -5.71108e-22)
(1.15052 0.0661729 -2.52452e-22)
(1.12666 0.0685646 -4.27675e-23)
(1.12886 0.0675884 -5.39071e-23)
(1.13105 0.0666094 -3.30501e-23)
(1.13323 0.0656284 -2.53815e-23)
(1.13539 0.0646459 -2.71787e-22)
(1.13753 0.0636626 3.00723e-22)
(1.13967 0.062679 -2.07538e-22)
(1.14178 0.0616958 -4.78495e-22)
(1.14389 0.0607135 6.95536e-22)
(1.12155 0.0620913 -2.07325e-23)
(1.12359 0.0612448 5.53412e-23)
(1.12563 0.060396 -1.67957e-23)
(1.12765 0.0595453 -6.72431e-23)
(1.12966 0.0586933 8.00358e-23)
(1.13166 0.0578403 -2.02491e-22)
(1.13364 0.0569868 3.52259e-22)
(1.13562 0.0561333 3.23053e-22)
(1.13758 0.05528 -4.4275e-23)
(1.11669 0.0557824 3.0602e-23)
(1.11859 0.0550508 -3.4746e-23)
(1.12048 0.054317 -1.74465e-23)
(1.12236 0.0535813 -7.99156e-23)
(1.12422 0.0528441 3.06892e-23)
(1.12608 0.0521057 8.04889e-23)
(1.12793 0.0513663 -3.24868e-23)
(1.12976 0.0506262 -3.82251e-22)
(1.13159 0.0498856 2.69768e-22)
(1.11209 0.0496246 1.81017e-24)
(1.11386 0.0489952 -3.20863e-23)
(1.11562 0.0483637 -4.22852e-23)
(1.11736 0.0477303 2.75761e-23)
(1.1191 0.0470951 1.19069e-22)
(1.12083 0.0464583 -1.16837e-22)
(1.12254 0.0458201 -2.45766e-22)
(1.12425 0.0451805 2.86713e-22)
(1.12594 0.0445396 -4.26617e-22)
(1.10779 0.0436037 -2.23079e-24)
(1.10943 0.0430662 -9.92461e-24)
(1.11107 0.0425267 4.89253e-23)
(1.1127 0.0419851 -1.34703e-23)
(1.11431 0.0414416 -1.06597e-22)
(1.11592 0.0408961 1.47347e-22)
(1.11751 0.0403486 -1.85312e-22)
(1.11909 0.0397992 -1.09859e-22)
(1.12066 0.0392478 3.45502e-22)
(1.1038 0.0376979 -1.03989e-23)
(1.10534 0.0372448 2.65549e-23)
(1.10687 0.0367896 2.81321e-23)
(1.10839 0.0363321 -3.46278e-23)
(1.10989 0.0358725 -3.82302e-24)
(1.11138 0.0354105 -1.3484e-22)
(1.11287 0.0349462 -1.15528e-23)
(1.11433 0.0344794 1.49081e-22)
(1.11579 0.03401 -2.40523e-22)
(1.10019 0.0318874 2.17632e-25)
(1.10163 0.0315122 4.06511e-24)
(1.10306 0.0311349 7.27405e-25)
(1.10448 0.0307553 2.41969e-23)
(1.10588 0.0303735 1.28039e-22)
(1.10728 0.0299892 -9.63372e-23)
(1.10865 0.0296023 5.87669e-23)
(1.11002 0.0292127 5.15143e-25)
(1.11137 0.0288202 -1.56311e-22)
(1.09699 0.0261473 6.25659e-24)
(1.09835 0.0258448 -1.4997e-23)
(1.09969 0.0255403 4.85939e-24)
(1.10102 0.0252336 -4.27997e-23)
(1.10234 0.0249247 1.54373e-23)
(1.10364 0.0246135 3.24757e-23)
(1.10493 0.0242996 7.91544e-23)
(1.10621 0.023983 1.58298e-23)
(1.10746 0.0236634 -1.65348e-23)
(1.09427 0.0204426 5.00727e-24)
(1.09555 0.0202097 -2.59295e-24)
(1.09682 0.0199751 -1.16135e-23)
(1.09808 0.0197387 3.20041e-23)
(1.09932 0.0195003 -5.78321e-23)
(1.10055 0.0192597 4.54158e-23)
(1.10176 0.0190167 2.91754e-23)
(1.10296 0.0187712 -9.97757e-23)
(1.10414 0.0185228 -6.79768e-23)
(1.09209 0.0147174 4.81879e-25)
(1.09332 0.0145516 -1.23251e-23)
(1.09453 0.0143845 4.24617e-24)
(1.09573 0.014216 -3.96812e-23)
(1.09691 0.014046 4.21613e-23)
(1.09808 0.0138743 5.87396e-24)
(1.09923 0.0137008 2.67671e-23)
(1.10036 0.0135251 -1.00451e-22)
(1.10147 0.0133473 1.66831e-22)
(1.09054 0.00894847 1.13225e-25)
(1.09172 0.00884946 2.81959e-24)
(1.09289 0.00874948 3.90303e-24)
(1.09405 0.00864842 -1.45133e-23)
(1.09519 0.00854617 2.86961e-23)
(1.09631 0.00844262 -3.51241e-23)
(1.09741 0.00833764 4.31741e-23)
(1.0985 0.00823109 -1.56844e-23)
(1.09957 0.00812281 -4.05772e-23)
(1.08971 0.00298121 2.03771e-25)
(1.09087 0.00295136 -7.69973e-24)
(1.09201 0.00292152 1.73218e-23)
(1.09314 0.00289157 2.0716e-23)
(1.09425 0.00286136 -1.09185e-23)
(1.09534 0.00283079 2.43581e-23)
(1.09642 0.00279972 -2.36973e-23)
(1.09747 0.00276802 -6.87353e-24)
(1.09851 0.00273556 -1.55078e-23)
(0.973594 0.322637 1.75745e-21)
(0.993234 0.322207 -1.27402e-21)
(1.01114 0.32265 3.57249e-21)
(1.02902 0.322905 -6.94644e-22)
(1.04754 0.322579 -5.7968e-24)
(1.06594 0.321698 5.82519e-23)
(1.08387 0.320202 -5.56593e-22)
(1.10138 0.317986 -9.06338e-22)
(1.11848 0.315011 1.90324e-22)
(1.13513 0.311282 -3.88595e-21)
(1.15126 0.306819 -2.79081e-21)
(1.16683 0.30165 2.72519e-21)
(1.18188 0.295789 -6.05047e-21)
(1.19628 0.289242 -1.56769e-21)
(1.21025 0.28184 2.94509e-21)
(1.22369 0.273851 -3.87721e-21)
(1.23617 0.265407 6.34044e-22)
(1.2478 0.256569 2.86294e-22)
(1.25872 0.24737 1.45492e-21)
(1.26899 0.237845 2.41494e-22)
(0.986995 0.306495 -2.9101e-21)
(1.00636 0.305898 1.90993e-21)
(1.02396 0.306118 -4.17177e-21)
(1.03988 0.306274 -2.75173e-21)
(1.05613 0.305709 -2.61954e-22)
(1.07254 0.30444 3.00942e-23)
(1.08851 0.302554 3.16531e-22)
(1.10402 0.300014 2.32544e-21)
(1.1192 0.296792 -3.21958e-21)
(1.13401 0.292918 2.3923e-21)
(1.14841 0.288435 -5.94183e-22)
(1.16233 0.28337 -3.01774e-21)
(1.17578 0.277764 2.38862e-21)
(1.18859 0.271597 -1.59989e-21)
(1.20098 0.264969 4.22427e-22)
(1.21314 0.257676 -9.74409e-22)
(1.22464 0.249979 4.07531e-21)
(1.23547 0.242019 -7.82e-22)
(1.24573 0.23381 -1.22555e-21)
(1.25545 0.225347 1.43836e-23)
(1.0007 0.28897 -1.45698e-21)
(1.01878 0.288932 -2.74294e-21)
(1.03581 0.288926 1.07469e-21)
(1.05036 0.288709 2.01929e-21)
(1.06474 0.287809 -2.46752e-22)
(1.07946 0.286177 4.27453e-23)
(1.09389 0.283966 5.86501e-22)
(1.10782 0.281221 2.02053e-21)
(1.12136 0.277924 4.37293e-21)
(1.13455 0.274084 -2.23174e-22)
(1.14736 0.269739 3.96473e-21)
(1.15974 0.264915 -6.04292e-22)
(1.17166 0.259657 -6.06106e-22)
(1.18314 0.253966 2.40756e-22)
(1.19404 0.248008 -3.81279e-21)
(1.20461 0.241539 -2.38613e-21)
(1.21491 0.234715 -1.7508e-21)
(1.22473 0.227657 -4.36902e-22)
(1.23404 0.220382 -9.55844e-22)
(1.24291 0.212887 -4.564e-22)
(1.01357 0.272971 -2.47891e-21)
(1.03008 0.272978 3.42284e-21)
(1.04603 0.272569 -1.09567e-21)
(1.05934 0.271839 4.96974e-23)
(1.07206 0.270582 -3.44475e-23)
(1.08516 0.268706 -3.34453e-22)
(1.09816 0.266314 -5.52229e-22)
(1.11068 0.263487 -3.5082e-21)
(1.1228 0.260222 -1.31218e-21)
(1.13459 0.256514 3.98471e-21)
(1.14603 0.252389 -2.11293e-21)
(1.15711 0.247875 3.6024e-21)
(1.16777 0.243001 -2.57077e-22)
(1.17804 0.237787 -2.20464e-21)
(1.18781 0.232254 5.83829e-21)
(1.19721 0.226468 2.47608e-21)
(1.20643 0.220408 -7.01313e-22)
(1.21527 0.214112 9.52489e-22)
(1.22368 0.207616 1.51435e-21)
(1.2317 0.200938 1.74347e-22)
(1.02538 0.257609 4.12825e-21)
(1.04027 0.257334 -2.4674e-21)
(1.05492 0.256508 8.31154e-22)
(1.06707 0.255343 -3.01104e-22)
(1.07837 0.253802 6.75522e-23)
(1.08998 0.251785 1.38661e-22)
(1.10162 0.249329 -4.5168e-22)
(1.11287 0.246506 1.8153e-21)
(1.1237 0.243336 -3.00141e-21)
(1.13422 0.239813 -4.69939e-21)
(1.14445 0.235949 -8.72216e-23)
(1.15435 0.231769 -1.4736e-21)
(1.16389 0.227292 8.04136e-22)
(1.17308 0.222544 -8.5865e-22)
(1.18187 0.217531 -1.72068e-21)
(1.19036 0.212322 7.83295e-23)
(1.19866 0.206925 -4.85177e-22)
(1.20665 0.201322 -1.638e-21)
(1.21426 0.195538 -5.87803e-22)
(1.22154 0.189598 -6.95537e-23)
(1.03605 0.242451 -6.91215e-24)
(1.04936 0.241889 1.72402e-21)
(1.0626 0.240776 4.83925e-22)
(1.07362 0.239333 4.84085e-22)
(1.0837 0.237614 4.56988e-24)
(1.09396 0.23554 -1.62225e-22)
(1.10433 0.233099 1.16421e-21)
(1.1144 0.230344 1.09212e-21)
(1.12409 0.227308 2.55564e-21)
(1.13348 0.223992 1.54702e-21)
(1.1426 0.220402 1.14107e-21)
(1.15145 0.216557 -8.07118e-23)
(1.16 0.212477 4.29208e-22)
(1.16824 0.208188 1.76657e-21)
(1.17615 0.203697 -1.42617e-21)
(1.18382 0.199061 -4.17382e-22)
(1.19135 0.19422 1.1075e-21)
(1.19859 0.189205 1.24519e-21)
(1.20551 0.184049 -8.86736e-22)
(1.21214 0.178772 3.42167e-23)
(1.04556 0.227557 -1.9116e-21)
(1.05738 0.226777 -1.36342e-21)
(1.06918 0.225491 2.2709e-22)
(1.07908 0.22389 7.36504e-23)
(1.08808 0.222073 1.5392e-22)
(1.09716 0.219992 9.39501e-22)
(1.10636 0.217614 9.29875e-22)
(1.11535 0.214971 -3.06984e-21)
(1.12401 0.212095 -9.32106e-22)
(1.13238 0.208998 -1.37154e-22)
(1.14053 0.205685 3.28189e-22)
(1.14845 0.202168 -7.19987e-22)
(1.15612 0.198465 -1.16879e-21)
(1.16354 0.1946 2.35381e-21)
(1.17071 0.19058 5.06607e-22)
(1.1776 0.186453 -9.85711e-22)
(1.18432 0.182131 -9.12656e-22)
(1.19089 0.177654 3.88739e-22)
(1.19722 0.173066 9.27833e-22)
(1.20331 0.168384 -1.23124e-22)
(1.05386 0.213063 1.79436e-21)