/*--------------------------------*- C++ -*----------------------------------*\
  =========                 |
  \\      /  F ield         | OpenFOAM: The Open Source CFD Toolbox
   \\    /   O peration     | Website:  https://openfoam.org
    \\  /    A nd           | Version:  7
     \\/     M anipulation  |
\*---------------------------------------------------------------------------*/
FoamFile
{
    version     2.0;
    format      ascii;
    class       surfaceScalarField;
    location    "145";
    object      phi;
}
// * * * * * * * * * * * * * * * * * * * * * * * * * * * * * * * * * * * * * //

dimensions      [0 3 -1 0 0 0 0];

internalField   nonuniform List<scalar> 
16735
(
-0.000105693
-0.00223211
0.00233781
-0.000394373
-0.005057
0.00534568
-0.000848392
-0.00673834
0.00719236
-0.00144371
-0.00751219
0.00810751
-0.00215731
-0.00767693
0.00839053
-0.0029708
-0.00749183
0.00830531
-0.00387035
-0.00709434
0.00799389
-0.00484685
-0.00647043
0.00744694
-0.00589604
-0.00547033
0.00651952
-0.00379054
0.00492032
-0.00702583
-0.000124517
-0.0021076
-0.000448522
-0.004733
-0.00094235
-0.00624451
-0.00157625
-0.00687829
-0.00232666
-0.00692651
-0.00317798
-0.00664051
-0.00412071
-0.00615161
-0.00515068
-0.00544047
-0.00626851
-0.00435249
-0.00257819
-0.00748085
-0.000139844
-0.00196775
-0.000491204
-0.00438164
-0.00101313
-0.00572259
-0.00166989
-0.00622153
-0.0024361
-0.00616031
-0.00329663
-0.00577997
-0.00424306
-0.00520519
-0.00527179
-0.00441173
-0.00638335
-0.00324093
-0.00138611
-0.00757544
-0.000151827
-0.00181592
-0.000523181
-0.00401028
-0.00106263
-0.00518314
-0.00172814
-0.00555601
-0.00249105
-0.0053974
-0.00333433
-0.00493669
-0.00424714
-0.00429238
-0.00522195
-0.00343692
-0.00625434
-0.00220854
-0.00031204
-0.00732841
-0.000160839
-0.00165509
-0.000545806
-0.00362532
-0.00109382
-0.00463513
-0.00175624
-0.00489359
-0.00249977
-0.00465388
-0.00330315
-0.00413332
-0.00414987
-0.00344566
-0.00502402
-0.00256277
-0.0059114
-0.00132116
0.00055486
-0.0067783
-0.000167395
-0.00148769
-0.000560812
-0.0032319
-0.00111034
-0.0040856
-0.00176058
-0.00424336
-0.00247244
-0.00394202
-0.0032185
-0.00338726
-0.0039738
-0.00269035
-0.00470996
-0.00182661
-0.00539836
-0.000632759
0.00114021
-0.00598371
-0.000172069
-0.00131562
-0.000570041
-0.00283393
-0.00111602
-0.00353962
-0.00174783
-0.00361155
-0.00241988
-0.00326996
-0.00309723
-0.00270991
-0.00374445
-0.00204313
-0.00431739
-0.00125367
-0.00476879
-0.000181355
0.0013881
-0.00501669
-0.000175395
-0.00114023
-0.000575153
-0.00243417
-0.00111424
-0.00300053
-0.00172397
-0.00300183
-0.00235197
-0.00264196
-0.00295515
-0.00210672
-0.00348661
-0.00151168
-0.0038842
-0.000856076
-0.0040782
1.26492e-05
0.00126325
-0.00395335
-0.000177767
-0.000962459
-0.000577342
-0.00203459
-0.00110742
-0.00247045
-0.00169325
-0.002416
-0.00227588
-0.00205933
-0.0028041
-0.0015785
-0.00321964
-0.00109613
-0.00344147
-0.000634245
-0.00337428
-5.45494e-05
0.000750196
-0.00286122
-0.000179358
-0.000783101
-0.00057709
-0.00163686
-0.00109646
-0.00195109
-0.00165726
-0.00185519
-0.00219435
-0.00152225
-0.00264891
-0.00112394
-0.00295224
-0.000792802
-0.00300492
-0.000581571
-0.00268379
-0.000375672
-0.000148648
-0.00178495
-0.000180077
-0.000603024
-0.000574025
-0.00124291
-0.00108047
-0.00144464
-0.00161428
-0.00132138
-0.00210444
-0.00103209
-0.00248491
-0.000743471
-0.00267755
-0.000600157
-0.00256628
-0.000692845
-0.00199707
-0.00094488
-0.001408
-0.000737718
-0.000179558
-0.000423465
-0.000566901
-0.000855572
-0.00105669
-0.000954855
-0.0015591
-0.000818967
-0.00199706
-0.000594128
-0.00229686
-0.000443671
-0.00237084
-0.00052618
-0.00208623
-0.00097745
-0.00125266
-0.00177845
-0.00304788
0.000387214
-0.000177214
-0.000246251
-0.000553749
-0.000479038
-0.00102075
-0.000487855
-0.00148346
-0.000356258
-0.00185773
-0.000219862
-0.00206035
-0.000241045
-0.00199244
-0.000594097
-0.00150318
-0.00146671
-0.000311904
-0.00296972
-0.00512226
0.00176248
-0.000172336
-7.39148e-05
-0.000532175
-0.000119198
-0.000967323
-5.27071e-05
-0.00137719
5.36116e-05
-0.00166847
7.14198e-05
-0.00174508
-0.000164438
-0.00149301
-0.000846165
-0.000751115
-0.0022086
0.00080089
-0.00452173
-0.00773152
0.00341014
-0.000164234
9.03194e-05
-0.000499781
0.000216348
-0.000890979
0.000338491
-0.00122982
0.000392454
-0.00141076
0.000252363
-0.00131992
-0.000255279
-0.00082243
-0.00134366
0.000247475
-0.00327851
0.00228423
-0.00655849
-0.0109145
0.00546725
-0.000152397
0.000242717
-0.000454657
0.000518608
-0.000787145
0.00067098
-0.00103247
0.000637781
-0.00106909
0.000288981
-0.000760012
-0.000564356
6.27105e-05
-0.00216638
0.00159126
-0.00480706
0.00421134
-0.00917857
-0.0146533
0.00795011
-0.000136614
0.000379331
-0.000395742
0.000777736
-0.00065301
0.000928247
-0.000779448
0.000764219
-0.000634027
0.00014356
-5.26236e-05
-0.00114576
0.00116161
-0.00338062
0.00323244
-0.00687789
0.00654513
-0.0124913
-0.0188848
0.0107766
-0.000117051
0.000496382
-0.000323081
0.000983765
-0.000487951
0.00109312
-0.000468998
0.000745267
-0.000102961
-0.000222477
0.000804295
-0.00205302
0.00248194
-0.00505826
0.00516577
-0.00956171
0.00918514
-0.0165106
-0.0235174
0.0138177
-9.42414e-05
0.000590623
-0.000237815
0.00112734
-0.000293576
0.00114888
-0.000103304
0.000554995
0.000520277
-0.000846059
0.00180094
-0.00333368
0.00399349
-0.00725082
0.00734469
-0.0129129
0.0119923
-0.0211582
-0.0283554
0.0168303
-6.89862e-05
0.00065961
-0.000141927
0.00120028
-7.32251e-05
0.00108018
0.000312329
0.000169441
0.00122641
-0.00176014
0.00291897
-0.00502624
0.0056556
-0.00998745
0.00967927
-0.0169366
0.0148324
-0.0263113
-0.0333606
0.0198375
-4.2193e-05
0.000701802
-3.76818e-05
0.00119577
0.000168919
0.000873575
0.000771078
-0.000432718
0.00200358
-0.00299264
0.00413502
-0.00715767
0.00741771
-0.0132701
0.0120243
-0.0215431
0.0175113
-0.0317984
-0.0410456
0.0251964
-1.47275e-05
0.00071653
7.23542e-05
0.00110869
0.000428831
0.000517099
0.00126626
-0.00127015
0.00283953
-0.00456591
0.00542309
-0.00974124
0.00922534
-0.0170724
0.0142738
-0.0265916
0.0200718
-0.0375964
-0.0481041
0.0271303
1.31006e-05
0.000703429
0.000187109
0.000934679
0.000703665
5.42623e-07
0.00179251
-0.002359
0.00372276
-0.00649616
0.00675486
-0.0127733
0.0110152
-0.0213327
0.0163414
-0.0319178
0.0221916
-0.0434466
-0.054416
0.0285034
4.08671e-05
0.000662562
0.000305931
0.000669615
0.000992091
-0.000685617
0.00234611
-0.00371301
0.0046418
-0.00879185
0.00809801
-0.0162295
0.0127167
-0.0259514
0.0181458
-0.0373469
0.023779
-0.0490797
-0.0600067
0.0293697
6.90238e-05
0.000593539
0.000429295
0.000309343
0.00129421
-0.00155053
0.00292424
-0.00534304
0.00558312
-0.0114507
0.00941374
-0.0200602
0.0142597
-0.0307973
0.0196087
-0.042696
0.0248512
-0.0543222
-0.0648711
0.0297156
9.81497e-05
0.000495389
0.000558468
-0.000150975
0.00161089
-0.00260295
0.00352339
-0.00725555
0.00652853
-0.0144559
0.0106565
-0.0241881
0.0155803
-0.0357211
0.0206878
-0.0478035
0.0254297
-0.0590641
-0.0690398
0.0295984
0.000129027
0.000366361
0.000694982
-0.00071693
0.00194269
-0.00385066
0.00413747
-0.00945034
0.00745356
-0.017772
0.0117778
-0.0285123
0.0166302
-0.0405735
0.0213727
-0.052546
0.0255663
-0.0632577
-0.0725776
0.0291041
0.000162428
0.000203933
0.000840073
-0.00139457
0.0022887
-0.00529928
0.00475617
-0.0119178
0.00832798
-0.0213438
0.0127325
-0.0329168
0.0173821
-0.0452231
0.0216813
-0.0568452
0.0253256
-0.066902
-0.0755601
0.028308
0.000198935
4.99839e-06
0.000994164
-0.0021898
0.00264566
-0.00695078
0.00536439
-0.0146365
0.00911878
-0.0250982
0.0134858
-0.0372839
0.0178306
-0.0495679
0.0216499
-0.0606645
0.0247743
-0.0700264
-0.0780672
0.0272814
0.000238819
-0.000233821
0.00115653
-0.00310752
0.00300751
-0.00880176
0.00594303
-0.0175721
0.00979461
-0.0289497
0.0140172
-0.0415065
0.0179887
-0.0535394
0.0213247
-0.0640004
0.0239762
-0.0726779
-0.080173
0.026082
0.000282002
-0.000515823
0.00132518
-0.00415069
0.00336549
-0.0108421
0.00647091
-0.0206775
0.0103302
-0.0328091
0.0143212
-0.0454975
0.0178824
-0.0571006
0.0207548
-0.0668728
0.0229872
-0.0749103
-0.0819421
0.0247563
0.000328045
-0.000843868
0.00149692
-0.00531957
0.00370883
-0.013054
0.00692748
-0.0238961
0.0107093
-0.0365909
0.0144049
-0.049193
0.0175448
-0.0602404
0.0199873
-0.0693153
0.0218544
-0.0767774
-0.0834279
0.0233402
0.000376208
-0.00122008
0.00166762
-0.00661098
0.00402571
-0.0154121
0.0072953
-0.0271657
0.0109255
-0.0402211
0.0142852
-0.0525528
0.0170115
-0.0629668
0.0190647
-0.0713685
0.0206159
-0.0783286
-0.0846727
0.0218606
0.000425512
-0.00164559
0.00183247
-0.00801793
0.00430445
-0.0178841
0.00756189
-0.0304232
0.0109808
-0.04364
0.0139844
-0.0555564
0.0163176
-0.0653
0.0180235
-0.0730743
0.0193016
-0.0796067
-0.0857085
0.0203374
0.00047481
-0.0021204
0.00198636
-0.00952948
0.00453467
-0.0204324
0.00772049
-0.033609
0.0108846
-0.0468042
0.0135277
-0.0581994
0.0154954
-0.0672677
0.0168939
-0.0744728
0.0179345
-0.0806474
-0.0865593
0.0187853
0.000522845
-0.00264324
0.0021242
-0.0111308
0.00470814
-0.0230163
0.00776993
-0.0366708
0.0106506
-0.0496849
0.0129402
-0.060489
0.0145734
-0.0689008
0.0157006
-0.0756001
0.0165322
-0.081479
-0.087242
0.0172149
0.000568315
-0.00321156
0.00224131
-0.0128038
0.00481935
-0.0255943
0.00771371
-0.0395651
0.0102952
-0.0522664
0.0122462
-0.06244
0.0135759
-0.0702305
0.0144631
-0.0764873
0.0151078
-0.0821238
-0.0877685
0.0156343
0.000609925
-0.00382148
0.00233365
-0.0145276
0.00486566
-0.0281264
0.00755893
-0.0422584
0.00983576
-0.0545432
0.0114677
-0.0640719
0.0125233
-0.0712861
0.0131966
-0.0771606
0.0136712
-0.0825984
-0.0881469
0.0140496
0.000646449
-0.00446793
0.0023981
-0.0162792
0.0048472
-0.0305755
0.00731501
-0.0447262
0.00928949
-0.0565177
0.0106239
-0.0654064
0.0114323
-0.0720945
0.0119129
-0.0776411
0.0122297
-0.0829152
-0.0883826
0.0124654
0.000676777
-0.00514471
0.00243256
-0.018035
0.00476638
-0.0329093
0.00699271
-0.0469525
0.00867266
-0.0581976
0.00973173
-0.0664654
0.0103165
-0.0726793
0.0106212
-0.0779459
0.010789
-0.0830829
-0.0884794
0.0108858
0.000699962
-0.00584467
0.00243606
-0.0197711
0.00462739
-0.0351006
0.00660324
-0.0489284
0.00800012
-0.0595945
0.00880523
-0.0672705
0.00918652
-0.0730606
0.0093285
-0.0780879
0.0093536
-0.0831081
-0.0884398
0.00931399
0.000715255
-0.00655992
0.00240864
-0.0214645
0.00443567
-0.0371276
0.00615768
-0.0506504
0.00728509
-0.0607219
0.00785617
-0.0678416
0.0080509
-0.0732553
0.00804016
-0.0780771
0.00792689
-0.0829948
-0.0882648
0.00775195
0.000722122
-0.00728205
0.00235125
-0.0230936
0.00419735
-0.0389737
0.00566656
-0.0521196
0.00653912
-0.0615945
0.00689424
-0.0681967
0.00691631
-0.0732774
0.00676034
-0.0779211
0.0065117
-0.0827461
-0.0879548
0.00620166
0.000720255
-0.0080023
0.00226564
-0.024639
0.00391888
-0.040627
0.00513957
-0.0533403
0.00577211
-0.062227
0.00592735
-0.068352
0.00578801
-0.073138
0.00549221
-0.0776253
0.00511023
-0.0823642
-0.0875093
0.0046647
0.000709563
-0.00871186
0.00215406
-0.0260835
0.00360667
-0.0420796
0.00458547
-0.0543191
0.00499249
-0.0626341
0.00496199
-0.0683215
0.00467038
-0.0728464
0.00423851
-0.0771935
0.00372375
-0.0818494
-0.0869279
0.00314239
0.000690163
-0.00940203
0.00201917
-0.0274125
0.00326687
-0.0433273
0.00401198
-0.0550642
0.00420732
-0.0628294
0.0040034
-0.0681176
0.00356725
-0.0724103
0.00300269
-0.0766289
0.00235246
-0.0811992
-0.0862086
0.00163316
0.000662377
-0.0100644
0.00186389
-0.028614
0.00290528
-0.0443687
0.00342587
-0.0555848
0.00342245
-0.062826
0.00305575
-0.0677509
0.0024816
-0.0718361
0.0017888
-0.0759361
0.00100251
-0.0804129
-0.0853017
9.55844e-05
0.000626717
-0.0106911
0.00169143
-0.0296787
0.00252724
-0.0452045
0.00283297
-0.0558905
0.00264268
-0.0626357
0.00212229
-0.0672305
0.0014151
-0.0711289
0.000594386
-0.0751154
-0.000306261
-0.0795122
-0.0842909
-0.00131702
0.00058383
-0.011275
0.00150476
-0.0305997
0.00213758
-0.0458373
0.00223829
-0.0559912
0.00187198
-0.0622694
0.00120573
-0.0665642
0.000368021
-0.0702912
-0.000575712
-0.0741717
-0.00161638
-0.0784716
-0.0831709
-0.00273642
0.000534474
-0.0118094
0.00130674
-0.0313719
0.00174065
-0.0462712
0.00164602
-0.0558966
0.00111347
-0.0617368
0.000307568
-0.0657583
-0.000652366
-0.0693313
-0.00171757
-0.0731065
-0.00288687
-0.0773023
-0.0819215
-0.00413623
0.000479502
-0.0122889
0.00110015
-0.0319926
0.00134031
-0.0465114
0.0010596
-0.0556159
0.000370044
-0.0610473
-0.000567575
-0.0648207
-0.00164809
-0.0682508
-0.00283574
-0.0719188
-0.0041286
-0.0760094
-0.0805417
-0.00550838
0.000419811
-0.0127087
0.000887736
-0.0324605
0.000939897
-0.0465635
0.00048238
-0.0551584
-0.00035608
-0.0602088
-0.00142036
-0.0637564
-0.00261972
-0.0670514
-0.00392635
-0.0706122
-0.00534174
-0.074594
-0.0790334
-0.0068501
0.000356247
-0.013065
0.000672105
-0.0327764
0.000542665
-0.0464341
-7.9904e-05
-0.0545358
-0.00106294
-0.0592258
-0.0022506
-0.0625687
-0.00356537
-0.0657366
-0.00498825
-0.0691893
-0.00652483
-0.0730575
-0.077399
-0.00815924
0.000289769
-0.0133548
0.000455262
-0.0329419
0.000156745
-0.0461356
-0.000636362
-0.0537427
-0.00175145
-0.0581107
-0.00305693
-0.0612633
-0.00448405
-0.0643095
-0.00602064
-0.0676527
-0.00767643
-0.0714017
-0.0756423
-0.00943314
0.00022218
-0.0135769
0.000239219
-0.0329589
-0.00023487
-0.0456615
-0.00117517
-0.0528024
-0.00241922
-0.0568667
-0.00383851
-0.059844
-0.00537504
-0.062773
-0.00702284
-0.0660049
-0.0087951
-0.0696294
-0.0737693
-0.0106681
0.000153464
-0.0137304
3.93827e-05
-0.0328448
-0.000618271
-0.0450038
-0.00170008
-0.0517206
-0.00306556
-0.0555012
-0.00459467
-0.0583149
-0.0062377
-0.0611299
-0.00799407
-0.0642486
-0.00987956
-0.0677439
-0.0717846
-0.0118643
7.99171e-05
-0.0138103
-0.00019248
-0.0325724
-0.000989815
-0.0442065
-0.00220801
-0.0505024
-0.00368977
-0.0540194
-0.00532489
-0.0566797
-0.00707165
-0.0593832
-0.0089338
-0.0623864
-0.0109298
-0.0657479
-0.0696851
-0.0130292
-1.41826e-06
-0.0138089
-0.000412454
-0.0321614
-0.00135092
-0.043268
-0.00269773
-0.0491556
-0.00429099
-0.0524262
-0.00602881
-0.0549419
-0.00787724
-0.0575347
-0.00984299
-0.0604207
-0.0119446
-0.0636463
-0.0674702
-0.0141596
-6.954e-05
-0.0137394
-0.000622036
-0.0316089
-0.00169991
-0.0421901
-0.00316878
-0.0476867
-0.00486852
-0.0507264
-0.00670594
-0.0531045
-0.00865511
-0.0555856
-0.0107249
-0.0583509
-0.012919
-0.0614521
-0.0651538
-0.0152354
-0.000141738
-0.0135976
-0.000824365
-0.0309263
-0.00203578
-0.0409787
-0.00362052
-0.046102
-0.00542174
-0.0489252
-0.00735535
-0.0511709
-0.00940341
-0.0535375
-0.0115781
-0.0561762
-0.0138904
-0.0591398
-0.0628745
-0.0161698
-0.000213117
-0.0133845
-0.00101989
-0.0301195
-0.00235787
-0.0396408
-0.00405239
-0.0444075
-0.00595019
-0.0470274
-0.0079761
-0.049145
-0.0101176
-0.0513961
-0.0123753
-0.0539185
-0.0147142
-0.0568009
-0.0601038
-0.0174849
-0.000282818
-0.0131017
-0.00120826
-0.029194
-0.00266573
-0.0381833
-0.00446401
-0.0426092
-0.00645369
-0.0450377
-0.00856758
-0.0470311
-0.0107943
-0.0491693
-0.0131303
-0.0515825
-0.0155935
-0.0543376
-0.0573482
-0.0183491
-0.000350432
-0.0127513
-0.00138896
-0.0281555
-0.00295898
-0.0366133
-0.00485506
-0.0407131
-0.00693197
-0.0429608
-0.00912969
-0.0448334
-0.0114398
-0.0468592
-0.013867
-0.0491553
-0.0164449
-0.0517597
-0.0545658
-0.0192273
-0.000415649
-0.0123356
-0.00156149
-0.0270097
-0.00323728
-0.0349375
-0.00522529
-0.0387251
-0.00738462
-0.0408015
-0.0096617
-0.0425563
-0.0120512
-0.0444697
-0.0145632
-0.0466433
-0.0172277
-0.0490952
-0.0517302
-0.0200633
-0.000478203
-0.0118574
-0.00172543
-0.0257624
-0.00350033
-0.0331626
-0.00557452
-0.0366509
-0.00781155
-0.0385644
-0.0101638
-0.040204
-0.0126295
-0.0420041
-0.0152214
-0.0440513
-0.0179638
-0.0463528
-0.0488305
-0.0208635
-0.000537851
-0.0113196
-0.00188044
-0.0244199
-0.00374787
-0.0312951
-0.00590259
-0.0344962
-0.0082126
-0.0362544
-0.0106359
-0.0377807
-0.0131735
-0.0394665
-0.0158396
-0.0413853
-0.0186542
-0.0435382
-0.0458627
-0.021622
-0.000594378
-0.0107252
-0.00202621
-0.022988
-0.00397972
-0.0293416
-0.0062094
-0.0322665
-0.0085877
-0.0338761
-0.0110777
-0.0352907
-0.013683
-0.0368613
-0.0164182
-0.0386501
-0.0193012
-0.0406552
-0.0428269
-0.022337
-0.000647591
-0.0100776
-0.00216248
-0.0214731
-0.00419571
-0.0273084
-0.00649486
-0.0299674
-0.00893678
-0.0314342
-0.0114892
-0.0327383
-0.0141577
-0.0341928
-0.0169573
-0.0358504
-0.0199048
-0.0377076
-0.039725
-0.0230067
-0.000697322
-0.00938026
-0.00228906
-0.0198814
-0.00439571
-0.0252017
-0.00675893
-0.0276041
-0.00925976
-0.0289334
-0.0118702
-0.0301279
-0.0145974
-0.0314656
-0.0174568
-0.032991
-0.020465
-0.0346995
-0.0365603
-0.0236296
-0.000743425
-0.00863683
-0.00240577
-0.0182191
-0.00457962
-0.0230279
-0.00700155
-0.0251822
-0.00955661
-0.0263783
-0.0122205
-0.027464
-0.0150019
-0.0286841
-0.0179167
-0.0300762
-0.0209811
-0.031635
-0.033337
-0.0242045
-0.000785772
-0.00785106
-0.00251246
-0.0164924
-0.00474736
-0.020793
-0.00722271
-0.0227068
-0.00982728
-0.0237737
-0.0125401
-0.0247512
-0.0153712
-0.025853
-0.0183366
-0.0271108
-0.0214528
-0.0285188
-0.0300594
-0.0247304
-0.000824254
-0.00702681
-0.00260902
-0.0147076
-0.00489887
-0.0185031
-0.00742238
-0.0201833
-0.0100717
-0.0211244
-0.0128289
-0.021994
-0.015705
-0.022977
-0.0187164
-0.0240994
-0.0218797
-0.0253555
-0.0267325
-0.0252065
-0.000858778
-0.00616803
-0.00269535
-0.012871
-0.00503412
-0.0161644
-0.00760054
-0.0176169
-0.0102899
-0.018435
-0.0130868
-0.0191971
-0.0160032
-0.0200606
-0.0190558
-0.0210468
-0.0222612
-0.0221501
-0.0233615
-0.0256322
-0.000889264
-0.00527877
-0.00277136
-0.0109889
-0.00515307
-0.0137827
-0.0077572
-0.0150128
-0.0104818
-0.0157104
-0.0133137
-0.0163653
-0.0162656
-0.0171087
-0.0193546
-0.0179579
-0.0225971
-0.0189075
-0.0199516
-0.026007
-0.000915646
-0.00436312
-0.00283701
-0.00906758
-0.00525569
-0.011364
-0.00789235
-0.0123761
-0.0106475
-0.0129553
-0.0135096
-0.0135031
-0.0164923
-0.014126
-0.0196126
-0.0148375
-0.0228872
-0.0156329
-0.0165083
-0.0263306
-0.000937868
-0.00342525
-0.00289222
-0.00711323
-0.00534197
-0.00891423
-0.00800598
-0.00971211
-0.0107868
-0.0101745
-0.0136745
-0.0106154
-0.0166831
-0.0111174
-0.0198298
-0.0116908
-0.0231313
-0.0123314
-0.0130369
-0.0266027
-0.000955887
-0.00246937
-0.00293697
-0.00513215
-0.00541189
-0.00643931
-0.00809811
-0.00702589
-0.0108998
-0.00737282
-0.0138083
-0.00770689
-0.0168379
-0.0080878
-0.020006
-0.00852263
-0.0233293
-0.00900812
-0.00954285
-0.0268234
-0.000969667
-0.0014997
-0.00297122
-0.0031306
-0.00546546
-0.00394506
-0.00816874
-0.00432261
-0.0109865
-0.00455509
-0.0139109
-0.00478245
-0.0169567
-0.00504202
-0.0201413
-0.00533803
-0.0234812
-0.0056682
-0.00603157
-0.0269925
-0.000979184
-0.000520516
-0.00299495
-0.00111484
-0.00550266
-0.00143735
-0.00821788
-0.00160739
-0.0110469
-0.00172612
-0.0139824
-0.00184685
-0.0170395
-0.001985
-0.0202354
-0.00214206
-0.0235868
-0.00231685
-0.00250845
-0.0271099
-0.000984419
0.000463904
-0.00300815
0.000908893
-0.0055235
0.001078
-0.00824554
0.00111465
-0.0110809
0.00110927
-0.0140229
0.00109508
-0.0170862
0.00107836
-0.0202885
0.00106021
-0.0236461
0.00104073
0.00101937
-0.0271739
-0.000985366
0.00144927
-0.00301082
0.00293434
-0.00552799
0.00359518
-0.00825174
0.0038384
-0.0110887
0.00394626
-0.0140322
0.00403855
-0.017097
0.00414319
-0.0203007
0.00426391
-0.0236596
0.00439964
0.0045498
-0.0271901
-0.000982022
0.00243129
-0.00300295
0.00495527
-0.00551614
0.00610837
-0.00823649
0.00655874
-0.0110703
0.00678003
-0.0140104
0.00697873
-0.0170718
0.00720458
-0.0202719
0.00746397
-0.023627
0.00775479
0.0080761
-0.0271533
-0.000974396
0.00340569
-0.00298456
0.00696543
-0.00548795
0.00861176
-0.00819979
0.00927058
-0.0110255
0.00960576
-0.0139576
0.00991081
-0.0170106
0.0102576
-0.020202
0.0106554
-0.0235482
0.011101
0.0115927
-0.0270648
-0.000962504
0.00436819
-0.00295567
0.0089586
-0.00544345
0.0110995
-0.00814167
0.0119688
-0.0109546
0.0124187
-0.0138738
0.01283
-0.0169135
0.0132974
-0.0200912
0.013833
-0.0234233
0.014433
0.0150942
-0.0269248
-0.000946369
0.00531456
-0.0029163
0.0109285
-0.00538264
0.0135659
-0.00806214
0.0146483
-0.0108574
0.0152139
-0.0137589
0.0157315
-0.0167806
0.0163191
-0.0199396
0.016992
-0.0232523
0.0177458
0.0185752
-0.0267334
-0.000926024
0.00624058
-0.00286649
0.012869
-0.00530555
0.0160049
-0.00796123
0.017304
-0.0107341
0.0179868
-0.0136131
0.0186106
-0.0166119
0.0193178
-0.0197472
0.0201274
-0.0230355
0.0210341
0.0220303
-0.0264906
-0.00090151
0.00714209
-0.00280628
0.0147738
-0.00521221
0.0184109
-0.00783894
0.0199307
-0.0105846
0.0207324
-0.0134365
0.0214625
-0.0164074
0.0222888
-0.0195141
0.0232341
-0.0227729
0.0242929
0.025454
-0.0261966
-0.000872879
0.00801497
-0.00273573
0.0166366
-0.00510264
0.0207778
-0.0076953
0.0225234
-0.010409
0.0234462
-0.0132291
0.0242825
-0.0161675
0.0252272
-0.0192407
0.0263072
-0.0224649
0.0275171
0.028841
-0.0258518
-0.000840193
0.00885517
-0.00265489
0.0184513
-0.00497689
0.0230998
-0.00753035
0.0250768
-0.0102075
0.0261233
-0.012991
0.027066
-0.0158921
0.0281283
-0.018927
0.0293421
-0.0221116
0.0307017
0.032186
-0.0254566
-0.000803524
0.00965869
-0.00256386
0.0202117
-0.004835
0.0253709
-0.0073441
0.0275859
-0.00997988
0.0287591
-0.0127223
0.0298085
-0.0155815
0.0309876
-0.0185733
0.0323339
-0.0217136
0.033842
0.0354839
-0.0250115
-0.000762958
0.0104216
-0.00246271
0.0219114
-0.00467701
0.0275852
-0.00713659
0.0300455
-0.00972637
0.0313488
-0.0124231
0.0325052
-0.0152359
0.0338003
-0.01818
0.035278
-0.0212713
0.0369333
0.03873
-0.0245174
-0.000718595
0.0111402
-0.00235155
0.0235444
-0.00450298
0.0297367
-0.00690786
0.0324504
-0.00944701
0.033888
-0.0120936
0.0351519
-0.0148554
0.036562
-0.0177473
0.0381699
-0.0207852
0.0399712
0.0419199
-0.0239751
-0.000670548
0.0118108
-0.00223053
0.0251043
-0.004313
0.0318191
-0.00665794
0.0347953
-0.00914185
0.0363719
-0.0117339
0.0377439
-0.0144402
0.0392683
-0.0172755
0.0410052
-0.020256
0.0429517
0.0450498
-0.0233859
-0.000618951
0.0124297
-0.0020998
0.0265852
-0.00410716
0.0338265
-0.0063869
0.0370751
-0.00881097
0.038796
-0.0113441
0.0402771
-0.0139905
0.0419147
-0.0167647
0.0437794
-0.0196842
0.0458712
0.048117
-0.0227513
-0.000563955
0.0129937
-0.00195953
0.0279808
-0.00388557
0.0357525
-0.00609478
0.0392843
-0.00845444
0.0411556
-0.0109244
0.0427471
-0.0135065
0.0444968
-0.0162149
0.0464878
-0.0190699
0.0487262
0.05112
-0.022073
-0.00050573
0.0134994
-0.00180995
0.029285
-0.00364837
0.037591
-0.00578167
0.0414176
-0.00807234
0.0434463
-0.010475
0.0451497
-0.0129885
0.0470103
-0.0156261
0.0491254
-0.0184131
0.0515131
0.0540604
-0.0213535
-0.00044447
0.0139439
-0.00165131
0.0304918
-0.00339574
0.0393354
-0.00544766
0.0434695
-0.00766474
0.0456634
-0.00999586
0.0474808
-0.0124368
0.0494513
-0.0149975
0.0516861
-0.0177105
0.0542261
0.0569448
-0.0205949
-0.00038039
0.0143243
-0.00148393
0.0315954
-0.00312788
0.0409793
-0.00509289
0.0454345
-0.00723179
0.0478023
-0.00948742
0.0497364
-0.0118528
0.0518167
-0.014332
0.0541653
-0.0169617
0.0568557
0.0597861
-0.0198029
-0.000313731
0.014638
-0.00130816
0.0325898
-0.00284505
0.0425162
-0.00471751
0.047307
-0.00677357
0.0498583
-0.00894916
0.051912
-0.011235
0.0541026
-0.0136251
0.0565554
-0.0161373
0.0593679
0.0626112
-0.0189624
-0.000244764
0.0148828
-0.00112442
0.0334694
-0.00254752
0.0439393
-0.00432174
0.0490812
-0.00629049
0.0518271
-0.00838195
0.0540035
-0.0105868
0.0563075
-0.012905
0.0588736
-0.0152921
0.061755
0.0654608
-0.0181417
-0.00017384
0.0150566
-0.000933151
0.0342287
-0.00223561
0.0452418
-0.00390584
0.0507514
-0.00578284
0.0537041
-0.00778589
0.0560065
-0.0099009
0.0584225
-0.0121418
0.0611145
-0.014515
0.0641283
0.0677446
-0.0167988
-0.000101591
0.0151582
-0.000734706
0.0348619
-0.00190966
0.0464168
-0.00347011
0.0523119
-0.00525073
0.0554847
-0.00716153
0.0579173
-0.00918046
0.0604414
-0.0113174
0.0632515
-0.0135714
0.0663823
0.0701032
-0.01593
-3.02216e-05
0.0151884
-0.000528918
0.0353606
-0.00157016
0.047458
-0.00301502
0.0537567
-0.00469454
0.0571642
-0.00650984
0.0597326
-0.00843096
0.0623625
-0.0104654
0.0652859
-0.0126288
0.0685456
0.0723711
-0.0148967
4.65781e-05
0.0151419
-0.000314071
0.0357212
-0.00121791
0.0483618
-0.00254119
0.05508
-0.0041149
0.058738
-0.0058319
0.0614496
-0.00765485
0.0641855
-0.00958876
0.0672199
-0.0116503
0.0706072
0.0745275
-0.0138068
0.000123883
0.015018
-8.16217e-05
0.0359267
-0.000854482
0.0491347
-0.00204891
0.0562744
-0.0035124
0.0602015
-0.00512825
0.0630655
-0.00685144
0.0659087
-0.00868345
0.0690519
-0.0106396
0.0725634
0.0765762
-0.0126883
0.000196082
0.0148219
0.000129628
0.0359932
-0.000482102
0.0497464
-0.00153861
0.0573309
-0.00288788
0.0615507
-0.00439922
0.0645768
-0.00602024
0.0675297
-0.00774797
0.0707796
-0.00959632
0.0744117
0.0785212
-0.0115414
0.000265675
0.0145562
0.000340126
0.0359187
-8.48961e-05
0.0501714
-0.00101222
0.0582583
-0.00224196
0.0627805
-0.00364511
0.0659799
-0.00516151
0.0690461
-0.00678274
0.0724008
-0.00852011
0.0761491
0.080357
-0.0103559
0.000334398
0.0142218
0.000557614
0.0356955
0.00029411
0.0504349
-0.000474352
0.0590267
-0.00157504
0.0638812
-0.00286656
0.0672715
-0.00427582
0.0704553
-0.0057884
0.0739134
-0.00741213
0.0777728
0.0820767
-0.00913175
0.000401421
0.0138204
0.00077608
0.0353208
0.000685846
0.0505252
8.39787e-05
0.0596286
-0.000888122
0.0648533
-0.00206428
0.0684476
-0.00336368
0.0717547
-0.00476543
0.0753151
-0.00627351
0.0792809
0.0836762
-0.00787301
0.000465531
0.0133549
0.000993905
0.0347925
0.00108555
0.0504335
0.000645825
0.0600683
-0.00018365
0.0656827
-0.00123889
0.0695029
-0.00242575
0.0729416
-0.00371443
0.0766038
-0.00510543
0.0806719
0.0851532
-0.00658249
0.000525843
0.012829
0.00120873
0.0341096
0.00148859
0.0501537
0.00122448
0.0603324
0.000540885
0.0663663
-0.000392188
0.0704359
-0.00146309
0.0740125
-0.00263618
0.0777769
-0.00390942
0.0819451
0.0865057
-0.00526194
0.000581475
0.0122475
0.00141803
0.033273
0.00189222
0.0496795
0.00181238
0.0604123
0.00128249
0.0668962
0.00047825
0.0712402
-0.000478136
0.0749689
-0.00153193
0.0788307
-0.00268691
0.0831001
0.0877324
-0.00391357
0.000631536
0.011616
0.00161922
0.0322853
0.00229322
0.0490055
0.00240674
0.0602987
0.00203936
0.0672636
0.00137024
0.0719093
0.000533215
0.0758059
-0.000407429
0.0797714
-0.00143675
0.0841294
0.0888366
-0.00254094
0.000675184
0.0109408
0.00180963
0.0311509
0.00268794
0.0481272
0.00300452
0.0599822
0.00280899
0.0674591
0.00228085
0.0724374
0.00156899
0.0765178
0.000749233
0.0805911
-0.000141035
0.0850197
0.0898481
-0.00115252
0.000711661
0.0102292
0.00198647
0.0298761
0.00307229
0.0470414
0.00360186
0.0594526
0.00358863
0.0674724
0.00320865
0.0728174
0.00262422
0.0771022
0.0019252
0.0812901
0.00113652
0.0858084
0.0907381
0.000246526
0.000740314
0.00948885
0.00214687
0.0284695
0.00344174
0.0457465
0.00419421
0.0587001
0.00437477
0.0672918
0.00415126
0.0730409
0.0036983
0.0775552
0.00312067
0.0818678
0.00246136
0.0864677
0.0914614
0.0017381
0.000760616
0.00872824
0.00228778
0.0269424
0.00379124
0.044243
0.00477623
0.0577151
0.00516318
0.0669048
0.00510599
0.0730981
0.00479017
0.077871
0.00433781
0.0823201
0.0038058
0.0869997
0.0920547
0.00321243
0.000772205
0.00795603
0.00240604
0.0253085
0.00411525
0.0425338
0.00534173
0.0564886
0.00594871
0.0662979
0.00606936
0.0729775
0.00589748
0.0780429
0.00557288
0.0826447
0.00516476
0.0874078
0.0925222
0.0046973
0.000774932
0.0071811
0.00249898
0.0235845
0.00440785
0.0406249
0.0058836
0.0550129
0.00672512
0.0654564
0.00703692
0.0726657
0.00701704
0.0780627
0.00682292
0.0828389
0.00653833
0.0876924
0.0928653
0.00619518
0.000768853
0.00641225
0.00256418
0.0217892
0.0046628
0.0385263
0.00639373
0.0532819
0.00748493
0.0643652
0.00800316
0.0721474
0.0081453
0.0779206
0.00808587
0.0828983
0.00792582
0.0878525
0.0930858
0.00770534
0.00075423
0.00565802
0.00259971
0.0199437
0.00487371
0.0362523
0.00686306
0.0512926
0.00821929
0.0630089
0.00896135
0.0714054
0.00927806
0.0776039
0.00935942
0.0828169
0.00932572
0.0878862
0.0931849
0.00922661
0.000731537
0.00492648
0.00260431
0.0180709
0.00503429
0.0338223
0.00728163
0.0490453
0.00891785
0.0613727
0.00990325
0.07042
0.01041
0.0770972
0.0106405
0.0825864
0.0107361
0.0877906
0.0931625
0.0107585
0.000701456
0.00422503
0.00257754
0.0161948
0.00513876
0.0312611
0.00763877
0.0465453
0.00956866
0.0594428
0.0108188
0.0691698
0.0115342
0.0763817
0.0119251
0.0821955
0.0121544
0.0875613
0.0930176
0.0122993
0.000664866
0.00356016
0.00251996
0.0143397
0.00518221
0.0285989
0.00792343
0.043804
0.0101581
0.0572081
0.0116958
0.0676322
0.0126421
0.0754355
0.0132079
0.0816297
0.0135777
0.0871914
0.0927486
0.0138468
0.000622807
0.00293735
0.0024332
0.0125293
0.00516123
0.0258708
0.00812461
0.0408407
0.0106712
0.0546616
0.0125197
0.0657836
0.0137226
0.0742326
0.0144821
0.0808702
0.0150021
0.0866715
0.0923526
0.0153981
0.000576437
0.00236092
0.00231991
0.0107859
0.00507436
0.0231164
0.00823204
0.037683
0.0110914
0.0518022
0.0132736
0.0636014
0.0147622
0.0727439
0.0157388
0.0798936
0.0164224
0.0859879
0.0918248
0.0169502
0.000526975
0.00183394
0.0021837
0.00912915
0.00492266
0.0203774
0.00823711
0.0343685
0.0114018
0.0486375
0.0139377
0.0610655
0.015744
0.0709377
0.0169664
0.0786712
0.0178319
0.0851224
0.0911574
0.0184993
0.000475635
0.00135831
0.00202887
0.00757592
0.00470997
0.0176963
0.0081339
0.0309446
0.0115854
0.045186
0.0144903
0.0581606
0.0166476
0.0687803
0.0181498
0.077169
0.0192214
0.0840508
0.0903383
0.0200405
0.00042356
0.000934746
0.00186017
0.00613931
0.00444292
0.0151136
0.00792038
0.0274671
0.0116269
0.0414795
0.0149075
0.05488
0.0174491
0.0662388
0.0192702
0.0753479
0.0205786
0.0827424
0.0893501
0.0215668
0.000371765
0.000562982
0.00168245
0.00482863
0.00413061
0.0126654
0.00759955
0.0239982
0.0115137
0.0375653
0.0151649
0.0512288
0.0181205
0.0632832
0.0203038
0.0731646
0.0218874
0.0811588
0.0881685
0.023069
0.00032111
0.000241872
0.00150042
0.00364932
0.00378398
0.0103818
0.00718013
0.0206021
0.0112388
0.0335067
0.0152388
0.0472288
0.0186307
0.0598912
0.0212216
0.0705737
0.0231262
0.0792542
0.0867606
0.0245341
0.000272312
-3.044e-05
0.00131847
0.00260316
0.00341506
0.00828524
0.00667675
0.0173404
0.0108024
0.0293811
0.0151088
0.0429224
0.0189467
0.0560532