/*--------------------------------*- C++ -*----------------------------------*\
  =========                 |
  \\      /  F ield         | OpenFOAM: The Open Source CFD Toolbox
   \\    /   O peration     | Website:  https://openfoam.org
    \\  /    A nd           | Version:  7
     \\/     M anipulation  |
\*---------------------------------------------------------------------------*/
FoamFile
{
    version     2.0;
    format      ascii;
    class       volVectorField;
    location    "145";
    object      U;
}
// * * * * * * * * * * * * * * * * * * * * * * * * * * * * * * * * * * * * * //

dimensions      [0 1 -1 0 0 0 0];

internalField   nonuniform List<vector> 
8500
(
(-0.000329921 -0.066373 1.09224e-21)
(-0.00688111 -0.139974 -3.1367e-21)
(-0.0223834 -0.173771 -3.66158e-21)
(-0.0421657 -0.180723 3.64553e-21)
(-0.0642023 -0.172568 -3.35422e-21)
(-0.0869426 -0.157643 -1.79763e-21)
(-0.109329 -0.140061 3.09756e-21)
(-0.130786 -0.120385 3.82231e-21)
(-0.150696 -0.0969811 -6.22324e-22)
(-0.169003 -0.0666052 1.88325e-21)
(0.00169561 -0.0630045 -1.2106e-21)
(-0.0034712 -0.131974 3.7307e-21)
(-0.0194904 -0.162886 -8.50432e-21)
(-0.0405039 -0.168319 7.71467e-21)
(-0.0640089 -0.159635 3.86232e-22)
(-0.0882528 -0.144824 5.78074e-21)
(-0.112179 -0.127754 -1.00386e-20)
(-0.135358 -0.108816 -1.47312e-20)
(-0.157249 -0.0862337 -2.799e-21)
(-0.177825 -0.0566074 6.39248e-21)
(0.00347202 -0.0590863 1.03205e-21)
(-0.000475024 -0.123071 7.82668e-21)
(-0.0168414 -0.151155 1.86007e-20)
(-0.0387206 -0.155268 -1.68515e-20)
(-0.063159 -0.146247 -3.70606e-21)
(-0.0881936 -0.131669 -3.46615e-21)
(-0.112731 -0.11515 1.75271e-20)
(-0.136442 -0.0969252 1.11721e-20)
(-0.158803 -0.0750913 2.89398e-21)
(-0.17956 -0.0461858 -1.96059e-20)
(0.00495255 -0.0547329 3.62624e-21)
(0.00202111 -0.113487 -4.65401e-21)
(-0.0145494 -0.138841 -3.37924e-20)
(-0.0369558 -0.141855 3.0884e-21)
(-0.0618262 -0.132715 9.35726e-21)
(-0.086977 -0.118532 -7.11188e-21)
(-0.111233 -0.10266 -7.69012e-22)
(-0.13431 -0.0851981 -2.80476e-21)
(-0.15567 -0.0641205 6.61628e-21)
(-0.17455 -0.0359629 1.85646e-20)
(0.00610078 -0.0500543 2.44489e-21)
(0.00394246 -0.103429 -1.40902e-20)
(-0.0127262 -0.126189 3.43084e-20)
(-0.0353632 -0.128346 -1.53136e-20)
(-0.0602167 -0.119335 -1.11254e-22)
(-0.084876 -0.105753 2.11552e-20)
(-0.10804 -0.0906946 -9.89367e-21)
(-0.129402 -0.074136 1.25453e-21)
(-0.148413 -0.0539252 -4.01374e-21)
(-0.163451 -0.0265858 8.50263e-22)
(0.0068895 -0.0451496 2.90999e-20)
(0.0052265 -0.0930829 3.58071e-20)
(-0.0114768 -0.113415 -9.34689e-21)
(-0.0340976 -0.114977 1.76193e-20)
(-0.0585509 -0.10637 5.27683e-21)
(-0.0822 -0.093647 -7.97002e-21)
(-0.103576 -0.0796413 -2.96345e-21)
(-0.122286 -0.0642256 -1.22808e-20)
(-0.137803 -0.0451166 2.64129e-21)
(-0.147222 -0.018745 -1.59245e-20)
(0.00729931 -0.040104 -2.79808e-20)
(0.00582422 -0.0826086 -1.85502e-20)
(-0.0108914 -0.100702 1.47209e-20)
(-0.0332991 -0.101941 -2.53653e-20)
(-0.0570377 -0.094038 2.5933e-21)
(-0.0792569 -0.0824754 2.93126e-20)
(-0.0982897 -0.0698316 -5.20663e-21)
(-0.113589 -0.0558985 3.38248e-20)
(-0.124735 -0.0382715 -1.15481e-21)
(-0.127017 -0.0131199 -1.28106e-20)
(0.00731751 -0.0349875 2.25656e-20)
(0.00570232 -0.0721366 -4.1198e-20)
(-0.0110353 -0.0881978 -1.63702e-20)
(-0.0330736 -0.0893896 1.95972e-20)
(-0.0558422 -0.0824989 3.14087e-22)
(-0.0763036 -0.0724265 -5.44811e-20)
(-0.0925778 -0.0615055 -2.85097e-21)
(-0.103897 -0.0494803 -2.59614e-20)
(-0.110081 -0.0338701 -3.25044e-20)
(-0.103996 -0.0103228 1.84402e-20)
(0.00693779 -0.0298567 -1.25599e-20)
(0.00484691 -0.0617723 6.21289e-21)
(-0.0119375 -0.0760125 1.50104e-20)
(-0.0334707 -0.0774234 -1.28319e-20)
(-0.0550491 -0.0718458 -4.60902e-20)
(-0.0734869 -0.0635953 1.60352e-20)
(-0.0866941 -0.0547775 2.48964e-21)
(-0.093615 -0.0451335 3.8082e-20)
(-0.0945066 -0.0322177 4.81087e-20)
(-0.0790668 -0.0108178 -2.10654e-20)
(0.00616104 -0.0247588 1.91172e-20)
(0.00326832 -0.0516013 1.7478e-20)
(-0.0135792 -0.064227 -2.57488e-21)
(-0.0344623 -0.0660977 6.49223e-20)
(-0.0546246 -0.0621016 2.75609e-20)
(-0.0707799 -0.0559727 2.04449e-20)
(-0.0806448 -0.0496085 2.80989e-20)
(-0.082807 -0.0428002 -1.256e-20)
(-0.0782144 -0.0333433 -1.58752e-20)
(-0.0525442 -0.0147138 -2.38195e-20)
(0.00499731 -0.0197374 -2.14585e-21)
(0.00100667 -0.0416988 -2.73718e-20)
(-0.0158824 -0.0529004 -1.96579e-20)
(-0.0359233 -0.0554293 -3.16647e-20)
(-0.0543839 -0.0532259 -2.48265e-20)
(-0.0679234 -0.0494482 2.46937e-20)
(-0.0740864 -0.0457996 -2.32271e-20)
(-0.0710232 -0.0421622 -1.57487e-20)
(-0.0606717 -0.036859 1.9756e-21)
(-0.0238055 -0.0214755 6.87251e-21)
(0.00346877 -0.0148382 -5.13863e-20)
(-0.00186273 -0.0321389 2.48392e-20)
(-0.0187034 -0.0420815 1.81578e-20)
(-0.0376203 -0.0454102 1.19626e-20)
(-0.0539712 -0.0451312 -2.1576e-20)
(-0.064389 -0.0438295 -1.81053e-20)
(-0.0662528 -0.0430149 2.5733e-20)
(-0.0571412 -0.0426731 -2.03158e-20)
(-0.0402292 -0.0421366 -1.53813e-21)
(0.00902566 -0.0300751 -1.87872e-20)
(0.00161287 -0.0101145 4.2421e-20)
(-0.0052256 -0.0230044 1.7317e-20)
(-0.0218295 -0.0318219 1.09229e-21)
(-0.0392105 -0.036026 -2.18146e-20)
(-0.0528594 -0.0377083 1.7766e-21)
(-0.0593834 -0.0388788 2.33799e-20)
(-0.0559777 -0.0408342 -6.43318e-21)
(-0.039501 -0.0436621 -7.42636e-21)
(-0.0141171 -0.0484386 -1.58726e-20)
(0.0494397 -0.0390712 2.89453e-20)
(-0.000515102 -0.00562997 2.80584e-20)
(-0.00892758 -0.0143939 -4.64101e-20)
(-0.0249847 -0.0221883 -3.5695e-20)
(-0.0402544 -0.0272749 1.55048e-20)
(-0.0503753 -0.0308565 3.14308e-20)
(-0.0518945 -0.0343575 2.59594e-20)
(-0.0417866 -0.038816 -2.70869e-20)
(-0.0161924 -0.0443489 5.08006e-20)
(0.0206725 -0.0543342 -1.48806e-20)
(0.101985 -0.0464181 -3.24111e-20)
(-0.00284104 -0.00145895 -4.25833e-20)
(-0.0127769 -0.00642504 2.57799e-20)
(-0.0278399 -0.0132735 -1.21226e-20)
(-0.0402402 -0.0191867 1.25421e-21)
(-0.0457463 -0.0245147 1.30193e-20)
(-0.0407763 -0.0300808 -4.11956e-20)
(-0.0220009 -0.0365799 3.54041e-20)
(0.0149238 -0.0439689 -3.37624e-20)
(0.0667536 -0.0583632 5.14079e-20)
(0.169912 -0.0498703 1.7334e-20)
(-0.00527355 0.00231711 8.83446e-21)
(-0.0165516 0.000767052 4.9598e-20)
(-0.030032 -0.00519841 -1.23421e-20)
(-0.0386199 -0.0118337 1.2611e-20)
(-0.038168 -0.018685 1.44141e-20)
(-0.0248745 -0.025966 -4.30097e-21)
(0.00504217 -0.0339291 3.03851e-20)
(0.0559193 -0.0423342 1.86832e-21)
(0.126386 -0.0597597 -3.20284e-20)
(0.25357 -0.0476771 4.1051e-20)
(-0.00770791 0.00561624 -2.37823e-20)
(-0.0200092 0.00703782 -4.68307e-20)
(-0.031183 0.00189132 4.07386e-20)
(-0.0348466 -0.00533112 2.03374e-20)
(-0.0268766 -0.0134334 -9.40144e-20)
(-0.00318355 -0.0220277 7.58559e-20)
(0.0405644 -0.0308128 -6.68806e-20)
(0.108287 -0.0394841 1.2483e-21)
(0.201159 -0.057919 -1.3609e-20)
(0.349931 -0.0391577 -3.72661e-20)
(-0.0100323 0.0083644 2.04765e-20)
(-0.0228974 0.0122449 -2.7305e-21)
(-0.0309169 0.00783532 -9.98993e-21)
(-0.0284008 0.000175033 -1.22494e-21)
(-0.0111844 -0.00886789 -5.88298e-21)
(0.0251434 -0.0183173 -2.40917e-20)
(0.0853975 -0.0272335 9.81209e-21)
(0.172465 -0.0354622 -1.5542e-20)
(0.291279 -0.0520518 4.94412e-21)
(0.453239 -0.0245894 1.38285e-21)
(-0.012135 0.0105043 -4.18019e-20)
(-0.0249648 0.0162634 -2.99015e-21)
(-0.0288713 0.012478 4.59014e-21)
(-0.0188047 0.00452991 1.87498e-21)
(0.00949841 -0.00511728 3.07512e-20)
(0.0607435 -0.0149211 -8.87968e-20)
(0.140048 -0.0232535 5.84651e-20)
(0.248419 -0.0304613 -4.29821e-20)
(0.395192 -0.0409983 3.3729e-20)
(0.555879 -0.00611791 3.45187e-20)
(-0.0139115 0.0120027 -5.09968e-21)
(-0.0259678 0.0190019 2.33993e-20)
(-0.0247005 0.0156924 -2.94488e-20)
(-0.00562048 0.00760261 -9.24521e-21)
(0.0356696 -0.00227923 1.77628e-20)
(0.104058 -0.011875 8.44308e-20)
(0.20456 -0.0188536 -1.64888e-20)
(0.335691 -0.0244698 8.04537e-21)
(0.509336 -0.0242174 -3.99067e-20)
(0.656037 0.0107784 1.71281e-20)
(-0.0152693 0.0128548 -1.53045e-20)
(-0.0256722 0.0204162 -1.19444e-20)
(-0.0180689 0.0174067 2.94384e-21)
(0.0115679 0.00932632 1.16066e-20)
(0.0677635 -0.000367224 -3.43496e-20)
(0.155368 -0.00909708 -1.38348e-20)
(0.278532 -0.0138778 -4.27479e-20)
(0.432862 -0.0168429 4.19944e-20)
(0.626559 -0.00423048 4.25424e-20)
(0.754918 0.0128442 -1.69254e-20)
(-0.0161298 0.013084 -7.31085e-21)
(-0.0238538 0.0205218 2.98024e-20)
(-0.00863649 0.0176257 -3.34536e-20)
(0.0331791 0.00973404 -3.89477e-21)
(0.106185 0.000734644 -1.57549e-20)
(0.214814 -0.00632757 3.39628e-20)
(0.361198 -0.00796453 4.29751e-20)
(0.537192 -0.00664842 -4.01424e-20)
(0.73764 0.0123875 4.1164e-20)
(0.881424 0.0164757 5.43569e-21)
(-0.0164234 0.0127386 -2.11839e-20)
(-0.0202917 0.0193955 -6.03361e-20)
(0.00395046 0.016448 5.89958e-20)
(0.0596514 0.00898927 8.52456e-21)
(0.151315 0.00130871 1.24317e-20)
(0.282339 -0.00311349 7.45163e-21)
(0.451332 -0.000595922 3.27894e-20)
(0.644634 0.00618804 2.34114e-20)
(0.844796 0.0280189 -8.02141e-20)
(0.992767 0.0332873 -3.75301e-20)
(-0.0160854 0.0118868 -7.24187e-20)
(-0.0147545 0.0171719 1.46099e-20)
(0.0200663 0.0140773 -3.33458e-20)
(0.0914385 0.00739921 6.49733e-21)
(0.203467 0.00181373 1.04684e-20)
(0.35756 0.00115403 -7.40229e-20)
(0.547022 0.00878375 3.22404e-20)
(0.751119 0.0212981 -2.10326e-20)
(0.944358 0.0448134 2.16644e-20)
(1.08228 0.0514011 -7.36265e-21)
(-0.0150515 0.0106078 2.62234e-20)
(-0.00699924 0.0140375 2.83692e-20)
(0.0401061 0.0108157 -1.5998e-21)
(0.128978 0.00541019 -9.13736e-21)
(0.262793 0.00286102 3.40828e-22)
(0.439603 0.00714314 6.2068e-22)
(0.645598 0.0205528 -4.89499e-20)
(0.852857 0.0382534 6.5433e-21)
(1.03251 0.0623833 5.79948e-20)
(1.15497 0.0695274 2.51278e-20)
(-0.0132473 0.00898474 -1.77895e-20)
(0.00322896 0.0102219 -1.31986e-20)
(0.0644652 0.00705093 5.6762e-20)
(0.172631 0.00358477 1.4392e-21)
(0.329146 0.00515549 -2.36801e-20)
(0.526963 0.0154424 6.32546e-20)
(0.743877 0.0347753 1.36378e-20)
(0.946547 0.0565311 6.44037e-22)
(1.10776 0.080207 -2.56132e-20)
(1.21076 0.0869824 -3.23029e-20)
(-0.0105844 0.00710177 3.72657e-20)
(0.0161933 0.00598578 -1.03834e-20)
(0.0935057 0.00323616 -6.17875e-21)
(0.222597 0.00256253 -2.35706e-20)
(0.401936 0.00940453 3.85689e-20)
(0.617501 0.0264251 -1.88161e-20)
(0.838617 0.0511999 -2.09382e-20)
(1.02989 0.0755764 -4.9365e-21)
(1.16963 0.0978056 -1.4829e-20)
(1.25252 0.103326 1.54388e-20)
(-0.00696016 0.00504282 -1.37177e-20)
(0.0321528 0.00161212 -8.16146e-20)
(0.127513 -0.000133464 8.49961e-21)
(0.27882 0.00300903 2.92773e-20)
(0.480046 0.0162098 2.09647e-20)
(0.708632 0.0401739 -6.92392e-20)
(0.926996 0.0693723 4.39098e-20)
(1.10168 0.0948823 -1.96622e-20)
(1.21886 0.114833 2.89389e-20)
(1.28254 0.118563 7.77246e-21)
(-0.00226087 0.00289331 -1.50632e-20)
(0.051344 -0.00259966 2.89649e-20)
(0.166648 -0.00254324 3.77908e-20)
(0.340913 0.00555846 -2.70945e-20)
(0.561839 0.0259711 1.00078e-20)
(0.797669 0.0564984 -6.09199e-20)
(1.00695 0.0887703 -1.13898e-20)
(1.16171 0.114052 9.26342e-21)
(1.25676 0.131113 -2.21e-20)
(1.30323 0.132751 -2.19693e-20)
(0.00363196 0.000743464 -1.94873e-20)
(0.0739582 -0.00633612 -6.58984e-21)
(0.210902 -0.00347951 -6.85067e-20)
(0.408113 0.0107552 -1.07076e-20)
(0.645302 0.0388382 -1.10613e-21)
(0.882186 0.0750249 3.66645e-21)
(1.07728 0.108908 6.20993e-21)
(1.21051 0.132818 -2.93253e-20)
(1.28493 0.146594 5.49114e-22)
(1.31666 0.146061 1.52728e-20)
(0.0108317 -0.00130692 -5.09687e-21)
(0.100118 -0.00927041 2.3807e-20)
(0.260061 -0.00244873 3.35001e-20)
(0.47929 0.0190032 2.09303e-20)
(0.728273 0.0547248 -6.1781e-21)
(0.960276 0.0953033 -5.09614e-21)
(1.13754 0.129389 4.99945e-20)
(1.24908 0.151031 6.54882e-21)
(1.30501 0.161319 2.18838e-20)
(1.32455 0.158675 -9.1963e-21)
(0.0194365 -0.00314558 4.87729e-20)
(0.129856 -0.0110641 3.14987e-20)
(0.313683 0.00100193 -3.19072e-20)
(0.553018 0.0305341 -6.34495e-21)
(0.808688 0.0733711 3.30424e-21)
(1.03066 0.11689 -1.19904e-20)
(1.18794 0.14992 -2.57081e-20)
(1.27865 0.168635 -4.20999e-21)
(1.31853 0.175386 2.92165e-22)
(1.32827 0.170774 1.00284e-20)
(0.0295197 -0.00464628 6.05628e-21)
(0.163094 -0.0113714 -1.71974e-20)
(0.371096 0.0072617 4.0705e-20)
(0.627695 0.0454029 2.64521e-20)
(0.884782 0.0944204 8.08825e-22)
(1.09264 0.139393 1.85992e-20)
(1.22904 0.170305 2.726e-21)
(1.3005 0.185644 -1.92557e-20)
(1.32681 0.188919 1.59709e-20)
(1.32884 0.182517 3.92906e-23)
(0.0411217 -0.0056694 -4.03097e-20)
(0.199634 -0.00984757 -1.18597e-20)
(0.431421 0.0166327 -1.06938e-20)
(0.701684 0.0635109 -1.85664e-20)
(0.955192 0.117483 4.37107e-21)
(1.14603 0.16249 8.88504e-23)
(1.26166 0.190427 1.41576e-20)
(1.31584 0.202111 -2.3399e-21)
(1.33095 0.202047 -1.65227e-20)
(1.32705 0.19403 -1.50305e-20)
(0.0542422 -0.00606491 3.2824e-21)
(0.239147 -0.00616283 1.92283e-20)
(0.493615 0.0293109 9.31298e-21)
(0.773445 0.0846427 -2.89958e-20)
(1.01898 0.142177 -1.42654e-21)
(1.19101 0.185927 -1.23601e-20)
(1.28674 0.210225 3.12339e-22)
(1.32578 0.218115 5.68648e-21)
(1.33182 0.214883 -6.18589e-21)
(1.32342 0.205406 1.70631e-20)
(0.0688359 -0.005677 7.73561e-21)
(0.281177 -1.88459e-05 -1.88478e-20)
(0.55653 0.0453766 -4.44301e-20)
(0.841635 0.108507 4.08426e-20)
(1.07559 0.168151 -3.02994e-21)
(1.22798 0.209509 8.94588e-21)
(1.3052 0.229682 -1.20232e-21)
(1.33124 0.233737 8.40653e-21)
(1.33008 0.227524 -6.64389e-22)
(1.31834 0.216705 -1.32016e-20)
(0.0848095 -0.00435019 -1.57764e-20)
(0.325154 0.00883292 2.45643e-20)
(0.618985 0.0647961 2.02281e-20)
(0.905159 0.134769 -2.91451e-20)
(1.1248 0.195087 -4.82095e-21)
(1.25751 0.23309 1.8299e-21)
(1.31789 0.248801 1.81413e-20)
(1.33301 0.24905 8.7596e-22)
(1.32624 0.24004 3.40883e-21)
(1.31204 0.227957 -7.32245e-21)
(0.102021 -0.00193615 1.19704e-20)
(0.37041 0.0205747 -1.07433e-20)
(0.679832 0.0874327 -9.1523e-21)
(0.963188 0.163076 1.56339e-20)
(1.16662 0.222706 5.37391e-21)
(1.28022 0.256558 4.03171e-21)
(1.32562 0.267595 -1.84865e-20)
(1.3317 0.264113 -6.22873e-21)
(1.32065 0.252473 -5.49622e-21)
(1.30469 0.239166 2.41303e-21)
(0.120281 0.00169899 -5.99107e-21)
(0.416204 0.0353097 -1.35579e-22)
(0.738012 0.113063 1.73239e-20)
(1.01514 0.193067 -6.33194e-21)
(1.20123 0.250758 -2.79357e-21)
(1.29675 0.279824 -1.82983e-21)
(1.32904 0.286076 4.4657e-21)
(1.32779 0.278965 7.61118e-21)
(1.31357 0.264839 -2.44011e-22)
(1.29638 0.250314 2.68668e-21)
(0.139357 0.00666752 4.22445e-21)
(0.461758 0.0530551 -1.18437e-21)
(0.792595 0.141395 -3.10661e-21)
(1.06066 0.224388 -2.80811e-21)
(1.22894 0.279019 2.51418e-21)
(1.30769 0.302813 1.94197e-21)
(1.32873 0.304248 -1.78155e-21)
(1.32165 0.293623 6.309e-22)
(1.30515 0.27713 8.74727e-22)
(1.28717 0.261367 -1.14197e-21)
(0.158981 0.0130536 2.27977e-21)
(0.506287 0.07374 6.47742e-22)
(0.842801 0.172086 -3.86453e-21)
(1.09956 0.256691 -3.07062e-21)
(1.2501 0.307285 3.18293e-21)
(1.31362 0.325454 6.20126e-22)
(1.32516 0.322102 -1.40884e-21)
(1.31356 0.308079 1.31453e-21)
(1.29551 0.289315 7.18394e-22)
(1.27709 0.272277 -8.05062e-22)
(0.178853 0.020908 -8.90292e-22)
(0.549029 0.0972095 1.80727e-21)
(0.888007 0.204753 1.19231e-20)
(1.13181 0.289636 -5.27642e-21)
(1.26513 0.335367 -2.56082e-21)
(1.31504 0.347673 -2.85085e-21)
(1.31871 0.33961 5.78396e-21)
(1.30372 0.322305 3.80756e-21)
(1.28473 0.301341 2.98614e-21)
(1.26617 0.282984 1.58045e-21)
(0.198655 0.0302438 1.82973e-20)
(0.589269 0.123232 -1.00224e-20)
(0.927746 0.238992 -1.13646e-20)
(1.15749 0.322893 1.53762e-20)
(1.27443 0.363081 8.01575e-21)
(1.31237 0.369393 -5.21617e-22)
(1.30967 0.356727 -9.61275e-21)
(1.29226 0.33625 -6.8494e-21)
(1.27284 0.313138 -6.93946e-21)
(1.25443 0.293423 4.02586e-21)
(0.218059 0.0410347 -2.47564e-20)
(0.626367 0.151507 2.31974e-20)
(0.961691 0.274381 2.65945e-20)
(1.17675 0.356144 -2.60493e-20)
(1.2784 0.390252 -8.93332e-21)
(1.30602 0.390527 5.63355e-21)
(1.29829 0.373392 1.00794e-20)
(1.27928 0.349843 1.53906e-21)
(1.25988 0.324616 -2.26419e-22)
(1.24186 0.303521 -5.39395e-21)
(0.236734 0.0532142 -3.56485e-21)
(0.659765 0.18168 -3.26418e-20)
(0.989643 0.31049 -3.48162e-20)
(1.18981 0.389076 3.8735e-20)
(1.27743 0.416705 -4.36914e-21)
(1.2963 0.410978 7.81798e-21)
(1.28476 0.389529 1.47765e-21)
(1.26486 0.362999 -4.21681e-21)
(1.24584 0.335676 2.25338e-21)
(1.2284 0.313201 -2.42864e-22)
(0.254362 0.0666774 7.23342e-21)
(0.689002 0.213351 2.02234e-20)
(1.01152 0.346886 1.14169e-20)
(1.19694 0.42139 -8.98226e-21)
(1.2719 0.442266 -1.37174e-20)
(1.28352 0.43064 -1.25712e-20)
(1.26924 0.40505 -2.47855e-21)
(1.24906 0.375636 6.36359e-21)
(1.23069 0.346245 -1.33533e-21)
(1.21384 0.322383 2.9812e-21)
(0.270638 0.0812832 -2.73279e-20)
(0.713716 0.246085 -2.53871e-20)
(1.02732 0.383142 -3.97744e-21)
(1.19843 0.452795 -4.50274e-21)
(1.26214 0.466761 -1.0011e-20)
(1.26793 0.449395 6.00032e-21)
(1.25185 0.419852 -1.09614e-21)
(1.23193 0.38767 -5.53687e-21)
(1.21446 0.356318 4.98812e-21)
(1.19809 0.330956 -6.76113e-21)
(0.285287 0.0968583 6.55136e-21)
(0.733647 0.27943 2.14938e-20)
(1.03714 0.418834 1.85245e-20)
(1.19459 0.483009 1.99798e-20)
(1.24848 0.490014 4.76438e-22)
(1.24973 0.467117 1.67808e-20)
(1.23272 0.433818 9.77663e-22)
(1.21353 0.39899 -1.86497e-20)
(1.19722 0.365907 1.29552e-20)
(1.1816 0.338838 4.67196e-21)
(0.298065 0.113201 1.77e-20)
(0.748633 0.312923 3.93056e-20)
(1.04114 0.453554 -5.20089e-21)
(1.18574 0.51176 -2.50955e-20)
(1.23123 0.511854 1.11948e-20)
(1.22915 0.483675 -1.13915e-20)
(1.21194 0.446823 -1.45957e-20)
(1.19393 0.409459 -9.60193e-22)
(1.17893 0.37476 -1.03961e-20)
(1.16457 0.346093 3.83276e-21)
(0.308767 0.130087 8.23573e-21)
(0.7586 0.346104 5.98005e-21)
(1.03951 0.486908 4.83896e-20)
(1.17223 0.538787 8.88314e-21)
(1.21068 0.532106 -7.60412e-21)
(1.20635 0.498932 -3.86136e-21)
(1.18966 0.458742 2.19383e-20)
(1.17317 0.419005 1.74126e-20)
(1.15961 0.382739 8.33271e-21)
(1.14688 0.352548 -1.00769e-21)
(0.317231 0.147275 1.69252e-21)
(0.763554 0.37852 -4.00606e-20)
(1.03253 0.51852 -5.67656e-20)
(1.15438 0.563843 1.60967e-21)
(1.18712 0.550602 1.0631e-20)
(1.18155 0.51274 -1.45294e-20)
(1.16597 0.469447 -3.14289e-20)
(1.1513 0.427512 -8.97042e-21)
(1.13938 0.389755 -5.01855e-22)
(1.12849 0.358098 3.26054e-21)
(0.323337 0.164515 -1.42176e-20)
(0.763578 0.409734 3.55774e-20)
(1.02051 0.548042 3.39526e-20)
(1.13257 0.586694 -3.0626e-20)
(1.16081 0.567164 4.71704e-21)
(1.15492 0.52496 3.37709e-20)
(1.14098 0.478813 -6.68023e-21)
(1.12838 0.434867 5.67849e-21)
(1.1183 0.39571 -2.13761e-21)
(1.10943 0.362658 -2.65799e-21)
(0.327008 0.181548 -3.17745e-20)
(0.758832 0.439326 -5.61571e-20)
(1.00381 0.575161 -1.09169e-20)
(1.10709 0.60712 1.7658e-20)
(1.132 0.581627 1.65283e-20)
(1.12663 0.535439 -3.31536e-20)
(1.11478 0.486714 1.70247e-20)
(1.10451 0.440961 -7.60436e-21)
(1.09644 0.400512 5.28243e-21)
(1.08977 0.36616 4.67502e-22)
(0.328219 0.198118 2.42787e-20)
(0.749556 0.466888 1.86356e-21)
(0.982793 0.599591 -5.35577e-21)
(1.07822 0.624897 -2.12795e-20)
(1.10098 0.593838 1.28676e-20)
(1.09686 0.544038 3.22468e-21)
(1.08751 0.493032 -8.63474e-21)
(1.07978 0.445689 2.27996e-21)
(1.07387 0.404065 -7.4767e-22)
(1.0696 0.368529 -7.12714e-22)
(0.327006 0.213978 -6.49235e-21)
(0.736059 0.492073 -8.78832e-21)
(0.957626 0.621 2.2728e-20)
(1.04634 0.639871 1.04215e-20)
(1.06805 0.603618 -1.37143e-20)
(1.0658 0.550643 1.68986e-20)
(1.0593 0.497657 1.70953e-21)
(1.05431 0.448956 2.45501e-21)
(1.05069 0.40627 3.29013e-21)
(1.04899 0.369674 5.91437e-22)
(0.323456 0.22888 4.17537e-20)
(0.718648 0.514694 3.21074e-20)
(0.928523 0.639035 -2.67382e-21)
(1.01196 0.651828 -4.49166e-21)
(1.03348 0.610859 -5.35682e-21)
(1.03364 0.555134 -2.42342e-21)
(1.0303 0.500487 2.40533e-21)
(1.02821 0.450677 8.51509e-22)
(1.02698 0.407035 -2.71559e-21)
(1.02802 0.369502 -4.62859e-21)
(0.317638 0.242488 2.82335e-21)
(0.697457 0.534449 5.17983e-21)
(0.896194 0.653724 -2.79779e-20)
(0.975448 0.660533 1.18496e-20)
(0.997514 0.615449 1.49296e-21)
(1.00057 0.55741 -2.64554e-21)
(1.00066 0.501432 1.34483e-21)
(1.00158 0.450779 1.15344e-21)
(1.00287 0.406291 -4.31165e-21)
(1.00691 0.367959 5.74362e-21)
(0.309554 0.254525 -1.58784e-20)
(0.67273 0.550832 -1.10304e-20)
(0.861206 0.664872 8.08087e-21)
(0.937117 0.665946 1.21058e-21)
(0.960424 0.617287 -4.87665e-21)
(0.966789 0.557376 3.21894e-21)
(0.970504 0.500402 2.72752e-21)
(0.974524 0.449173 -1.09222e-20)
(0.978598 0.403976 2.51166e-20)
(0.986265 0.365077 9.84294e-21)
(0.29943 0.264776 -1.16539e-20)
(0.64496 0.563567 2.66565e-20)
(0.823875 0.672262 -1.59631e-20)
(0.897296 0.667988 -2.93793e-21)
(0.922468 0.61629 -1.21461e-21)
(0.932479 0.554953 -2.61405e-21)
(0.939955 0.497313 -9.1798e-21)
(0.947177 0.445729 4.8185e-21)
(0.954583 0.399907 -1.45529e-21)
(0.966757 0.360906 -4.62089e-21)
(0.287519 0.273227 -1.44914e-21)
(0.614591 0.57255 -8.0691e-21)
(0.784614 0.675703 3.08495e-21)
(0.856333 0.66658 -7.7647e-22)
(0.883913 0.612397 6.34985e-21)
(0.897827 0.550088 5.36193e-21)
(0.909138 0.492118 1.69675e-20)
(0.919726 0.440346 -1.2458e-20)
(0.931172 0.393723 -2.36848e-20)
(0.947694 0.354829 9.84721e-21)
(0.273949 0.279677 -1.24935e-21)
(0.582078 0.577652 -2.80148e-21)
(0.743846 0.675095 1.08629e-21)
(0.814577 0.661661 8.4522e-21)
(0.845023 0.605566 -1.35068e-20)
(0.863031 0.542751 -2.12296e-20)
(0.87824 0.484813 -6.42598e-21)
(0.892438 0.433135 -1.37e-21)
(0.908365 0.385595 3.10226e-20)
(0.926337 0.34319 -7.01577e-21)
(0.258934 0.283979 2.63903e-21)
(0.54786 0.578767 -3.81382e-21)
(0.701999 0.670384 -1.03234e-22)
(0.772381 0.653196 6.13438e-22)
(0.806067 0.595772 -8.85023e-21)
(0.828307 0.532916 3.97993e-20)
(0.847514 0.475366 -2.74136e-20)
(0.865521 0.424175 3.27571e-20)
(0.885129 0.377353 -2.30698e-20)
(0.902957 0.336364 -3.03334e-20)
(0.24272 0.286024 -1.97256e-21)
(0.512368 0.575819 -3.47499e-22)
(0.6595 0.661552 1.83062e-22)
(0.730089 0.641176 1.40733e-20)
(0.76731 0.583007 -5.50216e-21)
(0.793883 0.520563 8.43013e-21)
(0.817166 0.463728 1.61793e-20)
(0.839 0.413205 -8.52935e-21)
(0.8618 0.366933 -2.16702e-20)
(0.880695 0.326246 3.01295e-20)
(0.225561 0.285731 1.18431e-20)
(0.476034 0.568773 1.5823e-20)
(0.616768 0.648612 -1.49043e-20)
(0.688044 0.62562 -1.32934e-20)
(0.729019 0.567285 4.5252e-20)
(0.759977 0.505706 -4.57967e-20)
(0.787348 0.449945 5.45396e-20)
(0.812904 0.400439 -1.37582e-20)
(0.838622 0.355256 1.47288e-20)
(0.859229 0.315728 2.71348e-20)
(0.207716 0.28305 -4.55973e-21)
(0.439285 0.557629 -1.51462e-20)
(0.574213 0.631606 -8.61451e-21)
(0.646579 0.606573 -4.95347e-21)
(0.691459 0.548639 5.14113e-21)
(0.726809 0.488367 -1.16663e-20)
(0.758231 0.434022 -1.6356e-20)
(0.787391 0.385819 -3.51502e-20)
(0.81591 0.341971 3.47923e-20)
(0.838612 0.303805 -1.13757e-20)
(0.189447 0.277957 2.71867e-20)
(0.402543 0.542427 -3.11298e-21)
(0.532233 0.610608 -1.20515e-20)
(0.606019 0.584103 1.57667e-20)
(0.654888 0.527124 -2.83506e-20)
(0.694588 0.468591 7.50838e-20)
(0.729983 0.416008 -3.99451e-20)
(0.762627 0.369422 3.6133e-20)
(0.793883 0.327215 -6.64024e-20)
(0.818878 0.290601 -1.75656e-20)
(0.171014 0.270458 -8.97707e-21)
(0.366221 0.523243 2.87947e-20)
(0.491214 0.58572 6.89321e-21)
(0.566677 0.558305 -1.45076e-20)
(0.619557 0.502816 -2.4956e-20)
(0.663522 0.44644 -1.06211e-21)
(0.702776 0.395955 1.3331e-20)
(0.738775 0.351282 -3.24143e-20)
(0.772697 0.310969 1.606e-20)
(0.800075 0.276058 2.14935e-21)
(0.152677 0.260584 -4.67554e-20)
(0.330716 0.500187 -1.15586e-20)
(0.451526 0.557075 -3.12608e-21)
(0.528856 0.529294 3.71682e-20)
(0.585711 0.47581 -3.44078e-20)
(0.633812 0.421992 -9.03821e-21)
(0.676782 0.373931 -5.42316e-21)
(0.715994 0.331458 1.01244e-20)
(0.752491 0.293276 -1.26468e-20)
(0.782274 0.260214 -1.97694e-20)
(0.134686 0.248397 4.09848e-20)
(0.296413 0.473404 -2.32083e-20)
(0.413522 0.524831 1.20343e-21)
(0.492842 0.49721 -5.62291e-20)
(0.55358 0.44622 6.08933e-20)
(0.60565 0.395343 -1.92445e-20)
(0.652165 0.350019 1.15381e-20)
(0.694431 0.310018 9.98135e-21)
(0.733389 0.274182 2.89678e-20)
(0.76555 0.243116 -1.18014e-20)
(0.117285 0.233978 -1.6727e-20)
(0.263674 0.443069 4.80533e-20)
(0.377535 0.489173 2.7038e-20)
(0.458907 0.462213 4.40523e-20)
(0.523385 0.41418 -1.02397e-20)
(0.579221 0.366605 4.09755e-21)
(0.629085 0.324315 3.29571e-20)
(0.674223 0.287042 7.29471e-21)
(0.715506 0.253749 7.00781e-22)
(0.749981 0.224831 -1.40557e-20)
(0.100705 0.217436 -3.79864e-20)
(0.232842 0.409386 -2.83451e-21)
(0.343877 0.45031 -1.57902e-20)
(0.427308 0.424485 -7.06529e-20)
(0.495336 0.37984 -6.81717e-20)
(0.554701 0.335906 1.14091e-20)
(0.607689 0.296928 -2.79866e-20)
(0.655502 0.262619 1.77594e-20)
(0.698954 0.232055 9.65815e-21)
(0.735642 0.20544 2.03106e-20)
(0.0851662 0.198902 5.54511e-20)
(0.204236 0.372589 -4.5337e-20)
(0.31284 0.408476 -2.29603e-20)
(0.398281 0.384226 4.08232e-20)
(0.469625 0.343368 4.62715e-20)
(0.532251 0.303388 -1.52548e-20)
(0.588119 0.267981 -1.92817e-21)
(0.638387 0.236855 -5.53658e-20)
(0.683836 0.20919 -3.13111e-20)
(0.722607 0.185031 1.19105e-20)
(0.0708702 0.178527 -3.14908e-20)
(0.178149 0.332934 1.32779e-20)
(0.284688 0.363924 4.86424e-20)
(0.372043 0.341654 -2.16869e-20)
(0.446432 0.304947 1.64995e-21)
(0.512024 0.269207 6.14876e-20)
(0.570503 0.237606 2.87617e-21)
(0.622991 0.209863 5.28674e-20)
(0.670248 0.185253 2.20427e-20)
(0.710942 0.163699 -3.50173e-20)
(0.0580028 0.156479 4.33434e-20)
(0.154847 0.290701 4.74198e-21)
(0.259661 0.316928 3.11783e-21)
(0.348792 0.297003 4.42544e-20)
(0.425918 0.264774 -5.94678e-21)
(0.494156 0.233531 -3.85306e-20)
(0.554958 0.20595 1.88481e-20)
(0.609415 0.181767 -3.00845e-20)
(0.658279 0.160354 -1.26082e-20)
(0.700711 0.141548 1.27181e-20)
(0.0467301 0.132947 -2.7047e-20)
(0.134567 0.246192 -5.1818e-20)
(0.237973 0.267779 1.19204e-20)
(0.328701 0.250523 -2.33589e-20)
(0.408227 0.223059 -1.41494e-20)
(0.47877 0.196539 3.41602e-20)
(0.541589 0.173165 -8.26785e-21)
(0.597752 0.1527 7.6727e-21)
(0.648009 0.13461 -9.29458e-21)
(0.691969 0.118682 1.83957e-20)
(0.0371976 0.108132 9.72148e-21)
(0.117513 0.199725 3.48204e-20)
(0.219809 0.216782 -4.82672e-20)
(0.311925 0.202474 2.28387e-20)
(0.393487 0.180023 -1.03935e-20)
(0.465971 0.158421 -2.92262e-20)
(0.530488 0.139416 2.38101e-20)
(0.588081 0.122804 5.01322e-21)
(0.639508 0.108145 -7.74913e-22)
(0.684764 0.0952136 -2.13836e-20)
(0.0295291 0.0822472 3.16185e-21)
(0.10386 0.151633 1.11525e-20)
(0.205327 0.164257 4.35833e-20)
(0.29859 0.15313 -8.33248e-21)
(0.381802 0.135897 -6.56251e-21)
(0.455851 0.119375 2.44206e-21)
(0.521731 0.104873 1.02965e-21)
(0.580471 0.0922253 8.87458e-21)
(0.632837 0.0810883 -1.16379e-20)
(0.679139 0.0712552 -7.40388e-21)
(0.0238251 0.0555192 -7.92944e-21)
(0.0937498 0.102264 -1.35784e-20)
(0.194652 0.110534 -3.37756e-20)
(0.288802 0.102773 1.69833e-20)
(0.373259 0.0909197 1.38589e-20)
(0.448483 0.0796043 5.87202e-22)
(0.515384 0.0697125 -2.31288e-20)
(0.574978 0.0611175 -1.02405e-20)
(0.628045 0.0535747 8.14424e-21)
(0.675126 0.0469189 8.69235e-21)
(0.0201624 0.0281811 1.36973e-21)
(0.0872892 0.0519746 -2.82266e-21)
(0.187881 0.0559501 6.4222e-21)
(0.28264 0.0516923 -4.35016e-21)
(0.367925 0.0453363 -3.80724e-21)
(0.443923 0.0393207 -2.58456e-21)
(0.511492 0.0341157 4.74679e-21)
(0.571644 0.0296375 1.80664e-20)
(0.625166 0.0257404 2.62388e-21)
(0.672747 0.0223138 -4.64586e-21)
(0.0185933 0.000472566 1.69559e-21)
(0.0845517 0.00112842 -4.66232e-21)
(0.18508 0.000851016 -5.28084e-21)
(0.280158 0.000181591 -3.66337e-21)
(0.365843 -0.000603183 3.48624e-21)
(0.442208 -0.00126159 1.57229e-21)
(0.510089 -0.00173191 -1.56685e-21)
(0.570497 -0.00205217 -7.12358e-21)
(0.624223 -0.002266 2.34339e-21)
(0.671999 -0.00240272 -2.19086e-21)
(0.0191454 -0.0273632 -1.68065e-21)
(0.0855758 -0.0499061 4.62274e-21)
(0.186284 -0.054415 5.24168e-21)
(0.281384 -0.0514611 -5.01686e-21)
(0.367038 -0.0466461 4.41384e-21)
(0.44336 -0.0419258 2.20888e-21)
(0.511192 -0.0376436 -3.52503e-21)
(0.571554 -0.0337909 -4.08977e-21)
(0.625248 -0.0303082 6.01378e-22)
(0.672968 -0.0271411 -1.69989e-21)
(0.0218208 -0.0550812 1.84378e-21)
(0.0903651 -0.100759 -5.50751e-21)
(0.191496 -0.109498 1.22754e-20)
(0.286322 -0.102937 -1.07787e-20)
(0.371512 -0.0925388 -5.18418e-22)
(0.447379 -0.082454 -7.1804e-21)
(0.514803 -0.073432 1.16543e-20)
(0.574815 -0.0654174 1.5831e-20)
(0.628222 -0.0582498 2.81803e-21)
(0.675584 -0.0518146 -6.06891e-21)
(0.0265967 -0.0824379 -1.55889e-21)
(0.0988884 -0.151061 -1.1543e-20)
(0.200687 -0.164049 -2.69032e-20)
(0.294946 -0.153947 2.32898e-20)
(0.379244 -0.138028 4.77885e-21)
(0.454247 -0.122629 4.24485e-21)
(0.520905 -0.108909 -2.08751e-20)
(0.580264 -0.0967671 -1.23332e-20)
(0.633135 -0.0859409 -2.75742e-21)
(0.67985 -0.0762671 1.87292e-20)
(0.0334253 -0.109193 -5.48468e-21)
(0.11108 -0.200447 6.96468e-21)
(0.213799 -0.217723 4.85175e-20)
(0.307209 -0.204197 -4.38515e-21)
(0.390193 -0.182863 -1.24868e-20)
(0.463931 -0.162235 8.92649e-21)
(0.529468 -0.143889 6.79465e-22)
(0.587875 -0.127679 3.13406e-21)
(0.639964 -0.113241 -6.89225e-21)
(0.685755 -0.100384 -1.81773e-20)
(0.0422342 -0.135111 -3.67713e-21)
(0.126839 -0.24856 2.00614e-20)
(0.230742 -0.27018 -4.86452e-20)
(0.323036 -0.253396 2.10069e-20)
(0.404299 -0.226797 2.11436e-22)
(0.476377 -0.201061 -2.66782e-20)
(0.540447 -0.17819 1.18241e-20)
(0.597606 -0.157995 -1.12306e-21)
(0.648672 -0.140013 4.47971e-21)
(0.693275 -0.124052 -1.28373e-21)
(0.052927 -0.159965 -4.1988e-20)
(0.146031 -0.295049 -5.03206e-20)
(0.251395 -0.321088 1.32821e-20)
(0.342327 -0.30126 -2.40772e-20)
(0.421476 -0.26959 -6.73672e-21)
(0.491513 -0.238899 1.01826e-20)
(0.55378 -0.211633 3.75497e-21)
(0.609403 -0.187561 1.38656e-20)
(0.65921 -0.16612 -2.98168e-21)
(0.702376 -0.147154 1.61627e-20)
(0.0653841 -0.183538 4.01228e-20)
(0.16849 -0.33958 2.58412e-20)
(0.275607 -0.370126 -1.93976e-20)
(0.36496 -0.347514 3.26979e-20)
(0.441624 -0.311008 -2.69975e-21)
(0.509253 -0.275552 -3.54104e-20)
(0.569391 -0.244047 6.19498e-21)
(0.623198 -0.216228 -3.76831e-20)
(0.671518 -0.191431 1.51788e-21)
(0.713019 -0.169574 1.36112e-20)
(0.079464 -0.205627 -2.93286e-20)
(0.194017 -0.381829 5.26764e-20)
(0.3032 -0.416986 2.07109e-20)
(0.390785 -0.391895 -2.58989e-20)
(0.464619 -0.350828 3.60147e-22)
(0.529491 -0.310826 6.50608e-20)
(0.58719 -0.275265 2.86501e-21)
(0.638912 -0.243853 2.87785e-20)
(0.685526 -0.215821 3.50162e-20)
(0.725154 -0.1912 -1.96072e-20)