/*--------------------------------*- C++ -*----------------------------------*\
  =========                 |
  \\      /  F ield         | OpenFOAM: The Open Source CFD Toolbox
   \\    /   O peration     | Website:  https://openfoam.org
    \\  /    A nd           | Version:  7
     \\/     M anipulation  |
\*---------------------------------------------------------------------------*/
FoamFile
{
    version     2.0;
    format      ascii;
    class       volVectorField;
    location    "70";
    object      U;
}
// * * * * * * * * * * * * * * * * * * * * * * * * * * * * * * * * * * * * * //

dimensions      [0 1 -1 0 0 0 0];

internalField   nonuniform List<vector> 
2125
(
(-0.00118777 0.000392015 6.55136e-22)
(-0.00665419 0.000963534 -1.88211e-21)
(-0.0169037 0.0013214 -2.19579e-21)
(-0.0290178 0.00150758 2.18318e-21)
(-0.0419037 0.00154134 -2.00851e-21)
(-0.0547014 0.00145838 -1.07093e-21)
(-0.0668509 0.00131474 1.82947e-21)
(-0.0781785 0.00118605 2.26679e-21)
(-0.0887455 0.001155 -3.71991e-22)
(-0.098856 0.00130527 1.09389e-21)
(-0.00131696 0.00245992 -7.23904e-22)
(-0.00692719 0.00572597 2.23751e-21)
(-0.0172109 0.00767292 -5.24904e-21)
(-0.0292775 0.00861876 4.76064e-21)
(-0.0420434 0.00879723 2.12453e-22)
(-0.0546538 0.00845477 3.49463e-21)
(-0.0665481 0.00784995 -6.07035e-21)
(-0.0775518 0.0072519 -8.87995e-21)
(-0.0877237 0.00691449 -1.73434e-21)
(-0.0973344 0.0070636 3.93119e-21)
(-0.00159434 0.00448675 6.64552e-22)
(-0.00750738 0.010398 4.90464e-21)
(-0.0178562 0.0139059 1.15583e-20)
(-0.0298163 0.0155944 -1.04595e-20)
(-0.0423278 0.0159051 -2.35899e-21)
(-0.0545492 0.0152897 -2.14743e-21)
(-0.0659202 0.0142051 1.09641e-20)
(-0.0762643 0.0131147 6.82014e-21)
(-0.0856373 0.012454 1.6648e-21)
(-0.0942332 0.0126057 -1.21807e-20)
(-0.00201395 0.0064428 2.35559e-21)
(-0.0083838 0.0149147 -2.88006e-21)
(-0.0188288 0.0199361 -2.15223e-20)
(-0.030625 0.0223395 1.90496e-21)
(-0.0427501 0.0227636 5.90539e-21)
(-0.0543837 0.0218547 -4.5887e-21)
(-0.0649657 0.0202606 -2.41661e-22)
(-0.0743142 0.0186399 -1.86101e-21)
(-0.0824842 0.0176259 4.22171e-21)
(-0.0895227 0.0177839 1.21401e-20)
(-0.00256695 0.00830115 1.63747e-21)
(-0.00953977 0.0192158 -9.242e-21)
(-0.020111 0.0256843 2.22271e-20)
(-0.0316876 0.0287644 -1.01035e-20)
(-0.0432968 0.0292765 -4.22467e-23)
(-0.0541469 0.028047 1.39564e-20)
(-0.0636767 0.0259029 -6.40931e-21)
(-0.0716919 0.0236963 7.29308e-22)
(-0.0782553 0.0222812 -2.62925e-21)
(-0.0831482 0.0224407 9.49728e-22)
(-0.00324206 0.0100385 1.956e-20)
(-0.0109533 0.0232472 2.37547e-20)
(-0.0216783 0.0310776 -6.07941e-21)
(-0.0329796 0.0347857 1.15953e-20)
(-0.0439447 0.0353545 3.64188e-21)
(-0.0538173 0.033772 -5.20221e-21)
(-0.0620324 0.0310273 -2.00398e-21)
(-0.0683711 0.0281608 -8.70798e-21)
(-0.0729272 0.0262711 1.88674e-21)
(-0.0750196 0.0264054 -1.12523e-20)
(-0.00402614 0.0116355 -1.88509e-20)
(-0.0125973 0.0269619 -1.2378e-20)
(-0.0234988 0.0360509 1.00881e-20)
(-0.0344666 0.0403277 -1.74608e-20)
(-0.0446571 0.0409173 1.98909e-21)
(-0.0533558 0.0389463 2.04528e-20)
(-0.0599901 0.0355432 -3.68472e-21)
(-0.0642964 0.031924 2.41023e-20)
(-0.0664505 0.0294524 -4.98477e-22)
(-0.0649962 0.0294933 -9.80474e-21)
(-0.0049047 0.0130774 1.57917e-20)
(-0.0144404 0.0303204 -2.85646e-20)
(-0.0255322 0.0405472 -1.13635e-20)
(-0.0361009 0.0453233 1.33234e-20)
(-0.0453782 0.0458944 4.45714e-22)
(-0.052697 0.0435001 -3.83829e-20)
(-0.0574723 0.0393787 -2.27617e-21)
(-0.0593645 0.0349008 -1.90101e-20)
(-0.0587311 0.0317022 -2.44883e-20)
(-0.0528666 0.0315234 1.44579e-20)
(-0.00586245 0.0143534 -8.82129e-21)
(-0.0164468 0.0332907 4.26081e-21)
(-0.0277289 0.0445176 1.04885e-20)
(-0.0378188 0.0497139 -9.38256e-21)
(-0.0460273 0.0502256 -3.29254e-20)
(-0.0517381 0.0473786 1.13353e-20)
(-0.0543494 0.0424861 1.64244e-21)
(-0.0533954 0.0370427 2.85733e-20)
(-0.0495933 0.032939 3.75514e-20)
(-0.038344 0.0324183 -1.69415e-20)
(-0.00688373 0.0154569 1.38893e-20)
(-0.0185771 0.0358479 1.26547e-20)
(-0.0300292 0.0479207 -1.81667e-21)
(-0.0395378 0.0534486 4.67268e-20)
(-0.0464922 0.0538608 1.98587e-20)
(-0.050328 0.0505427 1.48997e-20)
(-0.0504206 0.0448437 2.113e-20)
(-0.0460947 0.0383388 -9.2824e-21)
(-0.0386587 0.0330792 -1.25445e-20)
(-0.0210714 0.0323759 -2.0672e-20)
(-0.00795292 0.0163844 -1.29618e-21)
(-0.0207876 0.037973 -1.99944e-20)
(-0.0323619 0.0507218 -1.43992e-20)
(-0.0411529 0.0564832 -2.30822e-20)
(-0.0466232 0.056758 -1.82725e-20)
(-0.0482556 0.0529681 1.84361e-20)
(-0.0454006 0.0464602 -1.76928e-20)
(-0.0370645 0.0388276 -1.22305e-20)
(-0.0251187 0.0319031 1.60284e-21)
(-0.000323791 0.0315392 5.42454e-21)
(-0.00905469 0.0171353 -3.8275e-20)
(-0.0230312 0.039652 1.82932e-20)
(-0.0346436 0.0528911 1.33413e-20)
(-0.0425339 0.0587783 8.93342e-21)
(-0.0462265 0.0588807 -1.62714e-20)
(-0.0452374 0.0546435 -1.37476e-20)
(-0.0388973 0.0473819 1.98992e-20)
(-0.0259345 0.0386818 -1.62235e-20)
(-0.00813717 0.0297 -9.51701e-22)
(0.0255112 0.0296891 -1.69993e-20)
(-0.0101742 0.0177112 3.20661e-20)
(-0.0252563 0.0408749 1.30508e-20)
(-0.036777 0.0544034 7.66061e-22)
(-0.0435223 0.0602976 -1.62796e-20)
(-0.0450587 0.0601949 1.14884e-21)
(-0.0409049 0.0555617 1.81146e-20)
(-0.0303177 0.0476708 -5.14706e-21)
(-0.011912 0.0380447 -6.28364e-21)
(0.0128933 0.0270429 -1.42041e-20)
(0.0578968 0.0270421 2.58911e-20)
(-0.0112969 0.0181154 2.17177e-20)
(-0.0274071 0.041635 -3.52254e-20)
(-0.0386498 0.0552368 -2.71785e-20)
(-0.0439292 0.0610076 1.17502e-20)
(-0.0428251 0.0606665 2.39804e-20)
(-0.0348216 0.0557097 2.03727e-20)
(-0.0190244 0.047372 -2.16642e-20)
(0.0060806 0.0370164 4.19779e-20)
(0.0393134 0.024199 -1.26528e-20)
(0.0982715 0.024674 -3.0408e-20)
(-0.0124089 0.0183524 -3.26028e-20)
(-0.0294215 0.0419281 1.96432e-20)
(-0.0401321 0.0553736 -9.4457e-21)
(-0.043532 0.0608794 9.93423e-22)
(-0.0391742 0.0602652 1.01174e-20)
(-0.026455 0.055079 -3.2138e-20)
(-0.004262 0.0465582 2.85404e-20)
(0.0290961 0.0358672 -2.77776e-20)
(0.0728334 0.0214506 4.45948e-20)
(0.148209 0.0238543 1.61606e-20)
(-0.0134958 0.0184272 6.93451e-21)
(-0.0312302 0.0417524 3.82465e-20)
(-0.0410732 0.0548016 -9.64234e-21)
(-0.0420703 0.0598931 9.74775e-21)
(-0.0336958 0.0589689 1.13796e-20)
(-0.0151883 0.0536627 -3.42702e-21)
(0.0148683 0.0452821 2.45335e-20)
(0.0582724 0.0348183 1.24935e-21)
(0.115326 0.0192543 -2.85748e-20)
(0.208829 0.0258757 3.85677e-20)
(-0.0145419 0.0183449 -1.85136e-20)
(-0.0327523 0.0411079 -3.6262e-20)
(-0.0412976 0.0535188 3.14658e-20)
(-0.0392397 0.0580449 1.58012e-20)
(-0.0259146 0.0567775 -7.32419e-20)
(-0.000322122 0.0514772 5.97556e-20)
(0.0393616 0.043618 -5.39851e-20)
(0.0947923 0.0340189 8.59083e-22)
(0.168712 0.018269 -1.21746e-20)
(0.279951 0.0318591 -3.56923e-20)
(-0.0155293 0.0181094 1.60726e-20)
(-0.0338901 0.039996 -2.19927e-21)
(-0.0405998 0.0515382 -7.72563e-21)
(-0.0346847 0.0553551 -8.86228e-22)
(-0.0152826 0.0537297 -4.60229e-21)
(0.0189299 0.0485899 -1.90283e-20)
(0.070288 0.041699 8.10446e-21)
(0.139849 0.0335783 -1.28004e-20)
(0.23468 0.0196138 3.86663e-21)
(0.359127 0.0427731 1.14777e-21)
(-0.0164374 0.0177238 -3.28299e-20)
(-0.0345311 0.0384287 -2.39787e-21)
(-0.0387301 0.0488839 3.60511e-21)
(-0.0279916 0.0518769 1.47681e-21)
(-0.0011731 0.0499218 2.40257e-20)
(0.0434388 0.0451497 -7.01e-20)
(0.108758 0.0397442 4.72464e-20)
(0.19473 0.0335951 -3.54519e-20)
(0.314398 0.0250256 2.96873e-20)
(0.441785 0.0586232 3.25819e-20)
(-0.0172348 0.0171888 -4.01921e-21)
(-0.0345417 0.0364182 1.82856e-20)
(-0.0353995 0.0455966 -2.29528e-20)
(-0.018681 0.047709 -7.18814e-21)
(0.0171156 0.0455247 1.38639e-20)
(0.0741306 0.0414128 6.66953e-20)
(0.155793 0.0380707 -1.33874e-20)
(0.26071 0.0343184 6.50616e-21)
(0.407821 0.0360632 -3.44449e-20)
(0.525742 0.0736874 1.60417e-20)
(-0.0178768 0.0164996 -1.20622e-20)
(-0.0337537 0.0339775 -9.38858e-21)
(-0.0302753 0.0417457 2.32789e-21)
(-0.00621396 0.0429988 9.05785e-21)
(0.0403419 0.0407944 -2.68463e-20)
(0.111927 0.0377657 -1.08627e-20)
(0.212135 0.0371269 -3.41712e-20)
(0.338301 0.0364974 3.51752e-20)
(0.510763 0.0515588 3.70052e-20)
(0.617904 0.0748507 -1.54332e-20)
(-0.0183077 0.0156529 -5.78884e-21)
(-0.0319647 0.031126 2.34325e-20)
(-0.0229767 0.0374212 -2.61782e-20)
(0.00999947 0.0379432 -3.06892e-21)
(0.0692884 0.0360737 -1.23448e-20)
(0.15767 0.0347336 2.68556e-20)
(0.278179 0.0375521 3.46191e-20)
(0.426643 0.0414104 -3.32111e-20)
(0.613386 0.0646954 3.53581e-20)
(0.744168 0.0721871 5.04987e-21)
(-0.01846 0.0146418 -1.67787e-20)
(-0.0289414 0.0278881 -4.74764e-20)
(-0.0130801 0.0327377 4.63079e-20)
(0.0305801 0.0327873 6.65182e-21)
(0.104708 0.0317811 9.70867e-21)
(0.211996 0.0329426 5.90343e-21)
(0.353838 0.0400912 2.64805e-20)
(0.523307 0.0499446 1.95202e-20)
(0.717598 0.077796 -6.86709e-20)
(0.86453 0.0862965 -3.42479e-20)
(-0.0244216 0.0243001 1.14997e-20)
(-0.000134053 0.0278363 -2.62622e-20)
(0.0561451 0.0278215 5.09016e-21)
(0.147245 0.0283918 8.15026e-21)
(0.275165 0.0330543 -5.85969e-20)
(0.438251 0.0454545 2.58834e-20)
(0.624815 0.0621245 -1.75122e-20)
(0.820484 0.0929825 1.82775e-20)
(0.968669 0.104874 -6.55469e-21)
(0.0163236 0.0228879 -1.33395e-21)
(0.0872637 0.0233777 -7.17022e-21)
(0.19734 0.0264177 2.43232e-22)
(0.346892 0.0356937 5.3592e-22)
(0.52953 0.0541312 -3.93665e-20)
(0.727148 0.0774353 5.07082e-21)
(0.917033 0.110046 4.93087e-20)
(1.05711 0.124082 2.26749e-20)
(0.0367434 0.0180985 4.48655e-20)
(0.124405 0.0198285 1.14515e-21)
(0.255118 0.0263845 -1.87869e-20)
(0.426204 0.0413702 5.03061e-20)
(0.624813 0.0662439 1.10998e-20)
(0.826079 0.0951148 7.37126e-22)
(1.00355 0.128084 -2.15358e-20)
(1.12824 0.142637 -2.8588e-20)
(0.167879 0.0175838 -1.8664e-20)
(0.320294 0.0288006 3.04828e-20)
(0.51139 0.050394 -1.48693e-20)
(0.720629 0.0815007 -1.68176e-20)
(0.917894 0.11429 -3.89427e-21)
(1.07772 0.1462 -1.24884e-20)
(1.18339 0.159696 1.38707e-20)
(0.392086 0.0341107 1.66347e-20)
(0.600085 0.0628084 -5.54838e-20)
(0.813454 0.0992885 3.56944e-20)
(0.999912 0.134117 -1.62658e-20)
(1.13888 0.163704 2.48172e-20)
(1.22452 0.175075 6.94768e-21)
(0.900246 0.118849 -9.01114e-21)
(1.07068 0.153906 7.7826e-21)
(1.18755 0.180202 -1.89058e-20)
(1.25404 0.188831 -1.9454e-20)
(1.12985 0.173175 -2.45615e-20)
(1.22497 0.19554 4.42504e-22)
(1.2743 0.201191 1.34147e-20)
(1.25271 0.209735 1.86728e-20)
(1.28736 0.212434 -8.12507e-21)
(-0.116253 0.0018945 -8.27462e-23)
(-0.136044 0.00174722 2.38942e-23)
(-0.151559 0.00311937 1.10892e-22)
(-0.170114 0.00487216 -1.1202e-22)
(-0.18424 0.0077708 2.83864e-23)
(-0.199694 0.0116951 9.73488e-23)
(-0.212249 0.016502 2.25975e-23)
(-0.224498 0.0216027 -5.37367e-23)
(-0.234537 0.0258003 -5.19501e-23)
(-0.243388 0.0273939 -5.39162e-23)
(-0.249986 0.024295 1.19675e-23)
(-0.254561 0.0145225 -1.03167e-22)
(-0.25597 -0.00298524 6.33307e-23)
(-0.254394 -0.0273027 -2.34113e-23)
(-0.248602 -0.0545281 -1.88038e-23)
(-0.239771 -0.0777234 -1.34576e-23)
(-0.22453 -0.0882841 8.93356e-23)
(-0.205219 -0.0788642 1.31107e-22)
(-0.173016 -0.0442133 4.5756e-24)
(-0.137443 0.00569637 5.14118e-23)
(-0.091307 0.0654237 -1.87468e-23)
(-0.0550824 0.113714 -1.17344e-23)
(-0.0133368 0.11398 -3.98376e-24)
(0.0399157 0.107139 -1.4363e-23)
(0.105192 0.050275 -1.5606e-23)
(0.18375 -0.0411783 -7.02798e-24)
(0.208385 -0.0664288 3.49292e-24)
(0.275668 -0.120766 1.08512e-23)
(0.264494 -0.102149 6.00385e-25)
(0.350322 -0.010252 1.2229e-24)
(-0.114289 0.00824329 3.50079e-23)
(-0.133884 0.00617127 -2.70013e-22)
(-0.148936 0.00768723 -3.77119e-23)
(-0.167164 0.00868863 2.91515e-22)
(-0.180871 0.0112263 -3.02143e-23)
(-0.195879 0.0146827 -3.7191e-22)
(-0.207964 0.0190569 3.0197e-22)
(-0.219711 0.0237455 -2.92685e-22)
(-0.229231 0.0275375 1.81461e-22)
(-0.237523 0.0287384 -3.99993e-22)
(-0.243519 0.0252247 6.86441e-22)
(-0.247445 0.0150133 -6.40583e-22)
(-0.248215 -0.00298623 -2.55749e-23)
(-0.246166 -0.0278141 4.6581e-22)
(-0.240331 -0.0555489 -7.63194e-23)
(-0.232332 -0.0792747 -8.88732e-23)
(-0.219123 -0.0904795 -2.89626e-22)
(-0.203117 -0.0818788 2.24206e-22)
(-0.175174 -0.0481506 1.53954e-22)
(-0.143025 0.00129942 -2.04631e-22)
(-0.0990362 0.0609214 -4.82034e-23)
(-0.0607957 0.10961 7.68809e-23)
(-0.0125297 0.109206 -4.56323e-24)
(0.04627 0.101501 -5.70257e-23)
(0.122736 0.044018 2.94066e-23)
(0.204977 -0.0454357 6.95044e-23)
(0.228013 -0.0697856 8.40825e-25)
(0.294974 -0.12263 -2.03806e-23)
(0.269961 -0.104224 -6.35083e-25)
(0.347608 -0.0129772 -9.86694e-24)
(-0.110289 0.0144526 1.99514e-21)
(-0.129554 0.0104442 -1.51756e-21)
(-0.143755 0.0120994 1.02302e-21)
(-0.161447 0.0123575 -9.42639e-22)
(-0.174475 0.0145183 -3.81395e-22)
(-0.188783 0.0175064 2.01853e-21)
(-0.20015 0.0214494 -6.99673e-22)
(-0.211132 0.0257372 -8.90091e-22)
(-0.219874 0.0291422 4.00669e-22)
(-0.227336 0.0299759 -4.19879e-23)
(-0.232453 0.0260779 1.58118e-22)
(-0.235447 0.0154617 -6.08317e-23)
(-0.235293 -0.00298295 -5.07874e-23)
(-0.232488 -0.0282744 1.75578e-22)
(-0.226322 -0.0564487 5.60258e-23)
(-0.218895 -0.0806167 -1.88996e-22)
(-0.20746 -0.0923721 6.12699e-22)
(-0.194593 -0.0845303 1.55089e-22)
(-0.170762 -0.051757 -9.13176e-23)
(-0.142106 -0.00288592 -1.19769e-22)
(-0.100236 0.0563348 6.63848e-23)
(-0.0601106 0.105084 9.64982e-23)
(-0.00540435 0.103909 -1.57111e-22)
(0.0582026 0.0952027 4.44918e-23)
(0.144901 0.0372483 -9.50655e-23)
(0.23015 -0.0497432 -8.3104e-23)
(0.251728 -0.0730555 9.29166e-24)
(0.318008 -0.123999 3.75035e-23)
(0.279999 -0.105574 -1.48521e-24)
(0.348793 -0.0154272 6.72172e-24)
(-0.104226 0.0204434 -2.24675e-21)
(-0.123057 0.0144933 1.04882e-21)
(-0.136037 0.0162849 -1.39301e-22)
(-0.15299 0.0158237 2.50017e-22)
(-0.165092 0.0175893 -3.44861e-22)
(-0.178458 0.0201126 -1.30789e-21)
(-0.188872 0.0236264 6.85448e-22)
(-0.19884 0.0275251 -1.78962e-22)
(-0.206552 0.0305629 4.79326e-22)
(-0.212922 0.0310554 1.33346e-21)
(-0.216895 0.0268043 -4.0612e-22)
(-0.218687 0.015818 4.8261e-22)
(-0.217334 -0.00302639 -5.36261e-22)
(-0.213499 -0.0287265 -5.74139e-22)
(-0.20672 -0.0572649 8.64155e-23)
(-0.199597 -0.0817827 -2.53321e-22)
(-0.189658 -0.0939873 -5.69749e-22)
(-0.179721 -0.0868363 -1.42847e-22)
(-0.159811 -0.0550392 1.74419e-22)
(-0.134672 -0.00693484 -5.07793e-23)
(-0.0948844 0.0516726 -1.7351e-22)
(-0.0531183 0.100152 -1.04497e-23)
(0.00781752 0.0981391 6.02939e-23)
(0.0754093 0.0883307 5.25365e-24)
(0.171169 0.0300402 3.02874e-23)
(0.258773 -0.0540825 2.76413e-23)
(0.279049 -0.0762355 1.1105e-23)
(0.344378 -0.1249 1.01269e-23)
(0.294473 -0.106215 -4.56349e-24)
(0.3539 -0.017585 3.43872e-24)
(-0.0960443 0.0261393 1.63315e-21)
(-0.114374 0.0182578 1.75201e-21)
(-0.125796 0.0201778 1.00719e-21)
(-0.141816 0.0190371 -1.03389e-21)
(-0.15277 0.0203872 -6.68945e-23)
(-0.164967 0.0224525 -5.61882e-22)
(-0.17421 0.0255398 -1.14647e-21)
(-0.18293 0.0290613 -4.23312e-22)
(-0.18938 0.031752 1.89721e-22)
(-0.194414 0.0319298 -7.7068e-24)
(-0.196994 0.0273581 -5.79188e-22)
(-0.197331 0.0160372 2.0945e-22)
(-0.19452 -0.0031612 1.11303e-21)
(-0.189397 -0.0292111 -6.54355e-22)
(-0.181734 -0.058035 5.95057e-22)
(-0.174655 -0.0828074 5.01402e-23)
(-0.165926 -0.0953546 1.23604e-21)
(-0.158682 -0.0888192 -1.76979e-22)
(-0.142466 -0.0580076 -3.10776e-22)
(-0.120831 -0.0108191 -5.45289e-23)
(-0.0830916 0.0469515 -2.30987e-22)
(-0.0400307 0.0948363 -3.03182e-22)
(0.0268011 0.0919586 -1.4634e-24)
(0.0975218 0.0809829 1.43315e-22)
(0.201003 0.0224766 4.70944e-24)
(0.290318 -0.0584359 3.17147e-23)
(0.309451 -0.0793257 -4.84392e-23)
(0.373642 -0.125371 -5.05514e-23)
(0.313156 -0.106181 8.84126e-24)
(0.36289 -0.0194391 -3.4831e-23)
(-0.0856475 0.0314642 1.02425e-21)
(-0.10346 0.0216926 2.32368e-21)
(-0.113027 0.0237192 8.78605e-22)
(-0.127934 0.0219544 -3.45813e-21)
(-0.137545 0.0228672 3.33597e-21)
(-0.148369 0.0244838 -1.51887e-21)
(-0.156248 0.0271477 -3.10829e-22)
(-0.163514 0.0303035 -7.82433e-22)
(-0.168492 0.0326673 -6.69045e-22)
(-0.171969 0.0325575 2.25108e-21)
(-0.172932 0.0276987 -7.23582e-22)
(-0.17158 0.0160795 -1.79133e-21)
(-0.167074 -0.00342621 -5.59953e-23)
(-0.160428 -0.0297655 9.55207e-22)
(-0.151633 -0.058794 -1.10692e-21)
(-0.144348 -0.0837249 1.20707e-21)
(-0.136551 -0.0965051 -1.29123e-21)
(-0.131745 -0.0905046 6.35908e-22)
(-0.118977 -0.0606735 4.98859e-23)
(-0.100803 -0.0145113 4.18154e-22)
(-0.065087 0.0421999 1.68022e-22)
(-0.0211597 0.0891826 1.35857e-22)
(0.0511205 0.0854243 2.59422e-23)
(0.124125 0.0732651 1.72896e-22)
(0.233871 0.0146505 8.03289e-23)
(0.324257 -0.0627852 -4.15934e-23)
(0.342391 -0.0823282 1.52624e-22)
(0.405321 -0.12546 -4.62842e-23)
(0.335731 -0.105515 -2.82232e-23)
(0.375653 -0.0209842 5.98125e-23)
(-0.072881 0.03634 -2.06435e-21)
(-0.0902222 0.0247721 3.66175e-22)
(-0.0976956 0.0268595 4.33821e-22)
(-0.111325 0.02454 -4.74849e-22)
(-0.119434 0.0249937 5.04024e-22)
(-0.128708 0.0261722 7.09186e-22)
(-0.135063 0.0284163 5.42018e-22)
(-0.1407 0.0312171 -7.60268e-22)
(-0.144028 0.0332728 -9.58898e-22)
(-0.145761 0.0329019 5.61414e-22)
(-0.144907 0.0277914 2.54211e-22)
(-0.141664 0.015911 1.60518e-21)
(-0.135252 -0.00385451 -1.64478e-21)
(-0.126876 -0.0304217 -7.97583e-22)
(-0.116728 -0.0595733 1.24118e-21)
(-0.109015 -0.0845673 5.08839e-22)
(-0.101885 -0.0974707 6.25569e-24)
(-0.0992573 -0.091919 6.10979e-24)
(-0.089682 -0.063049 -2.08663e-22)
(-0.0749053 -0.0180061 -6.41856e-22)
(-0.0411996 0.0374577 -2.65845e-24)
(0.00310051 0.0832432 -1.56657e-22)
(0.0802775 0.0785978 -1.09859e-22)
(0.154777 0.0652864 -9.30855e-23)
(0.269268 0.00667384 -1.77026e-22)
(0.360075 -0.0671103 -3.49968e-23)
(0.377326 -0.0852453 -1.43798e-22)
(0.438915 -0.12522 5.17254e-23)
(0.36181 -0.104273 2.70206e-23)
(0.392017 -0.0222216 -6.8079e-23)
(-0.057513 0.0406722 2.32594e-21)
(-0.0745011 0.027495 3.73025e-22)
(-0.0797145 0.0295612 -7.34347e-23)
(-0.0919195 0.0267669 -2.08437e-22)
(-0.0984104 0.026742 -5.01327e-22)
(-0.105996 0.0274933 2.96626e-21)
(-0.110706 0.0293221 -2.3325e-21)
(-0.114583 0.0317763 -1.01925e-21)
(-0.116123 0.0335402 -7.78776e-22)
(-0.11596 0.0329326 5.02634e-22)
(-0.113129 0.0276068 2.08269e-21)
(-0.107824 0.0155039 -6.10549e-22)
(-0.099328 -0.00447239 -1.43624e-21)
(-0.0890486 -0.0312057 2.25811e-21)
(-0.0773648 -0.0603989 -2.56666e-21)
(-0.0690326 -0.0853628 5.66374e-22)
(-0.0623338 -0.0982815 4.5383e-23)
(-0.061628 -0.0930883 4.7737e-22)
(-0.0549893 -0.0651432 -5.82681e-22)
(-0.0435298 -0.021305 6.97078e-22)
(-0.0118378 0.032745 -4.16078e-23)
(0.0322998 0.0770812 7.43334e-22)
(0.113732 0.0715564 1.5501e-22)
(0.189017 0.0571543 -4.43699e-22)
(0.306728 -0.00145254 2.95245e-23)
(0.397292 -0.0713898 -9.59972e-23)
(0.413734 -0.0880786 2.19116e-23)
(0.473919 -0.124709 -4.00451e-23)
(0.390945 -0.10252 -2.13197e-23)
(0.411753 -0.0231592 6.14176e-23)
(-0.0392187 0.0442858 -1.60272e-21)
(-0.0560403 0.0299099 9.82016e-22)
(-0.0589227 0.031797 1.5734e-21)
(-0.0695821 0.0286188 3.58701e-22)
(-0.074387 0.0280999 -3.06795e-21)
(-0.0801924 0.0284347 2.58671e-22)
(-0.0831847 0.0298533 5.78275e-22)
(-0.0852234 0.0319668 -2.16539e-21)
(-0.0848879 0.0334525 -1.16331e-21)
(-0.0827256 0.0326283 3.21136e-21)
(-0.0777975 0.0271212 -4.72336e-22)
(-0.0703027 0.0148371 1.29287e-21)
(-0.0595832 -0.0052996 -2.4178e-21)
(-0.0472706 -0.0321378 1.24712e-21)
(-0.0339148 -0.0612885 -1.0598e-21)
(-0.0248148 -0.0861327 1.66834e-21)
(-0.0183442 -0.0989575 1.73713e-22)
(-0.0193142 -0.0940374 -6.92335e-22)
(-0.0153619 -0.0669625 1.03563e-21)
(-0.00713068 -0.024415 -5.02093e-22)
(0.0225385 0.0280731 2.38262e-22)
(0.0659635 0.0707862 -1.08833e-22)
(0.150923 0.0643734 -4.73737e-22)
(0.226372 0.0489701 5.05991e-22)
(0.345834 -0.00962118 -9.09807e-23)
(0.435484 -0.0755972 3.27942e-22)
(0.451132 -0.0908272 -1.73049e-22)
(0.50984 -0.123984 8.26218e-23)
(0.422644 -0.100328 3.79481e-23)
(0.434577 -0.0238114 8.29239e-25)
(-0.0175931 0.0468795 1.76114e-22)
(-0.0344457 0.032151 3.91665e-21)
(-0.0350648 0.0335299 -4.76024e-21)
(-0.0440822 0.0301018 -6.8572e-22)
(-0.0471908 0.0290665 4.00681e-21)
(-0.0511826 0.0289976 7.55908e-22)
(-0.0524457 0.0300116 -2.37062e-21)
(-0.0526314 0.0317875 -8.99947e-22)
(-0.0503929 0.0330029 7.15387e-22)
(-0.0461875 0.0319794 1.51706e-21)
(-0.0390954 0.0263204 -1.14133e-22)
(-0.0293311 0.0138967 -1.35896e-22)
(-0.016297 -0.00635024 9.9071e-22)
(-0.00187196 -0.0332335 -9.84086e-22)
(0.0132353 -0.0622532 7.4153e-22)
(0.0231997 -0.086886 -6.41714e-22)
(0.0296019 -0.099506 -2.80546e-22)
(0.0271876 -0.0947927 7.8878e-22)
(0.0286979 -0.0685369 -1.52048e-21)
(0.033795 -0.0273387 6.50751e-22)
(0.0614304 0.0234899 -1.91422e-22)
(0.10361 0.064434 -4.75093e-22)
(0.191295 0.0571196 5.39276e-23)
(0.266381 0.0408285 -1.2344e-22)
(0.386218 -0.0176491 3.29104e-22)
(0.474267 -0.0797031 -1.6077e-22)
(0.489085 -0.0934868 -4.98696e-23)
(0.546209 -0.123099 -3.79998e-23)
(0.456394 -0.0977725 1.92091e-23)
(0.460162 -0.0241981 -4.92145e-24)
(0.00781267 0.0485066 -2.93186e-21)
(-0.00914624 0.0342626 5.37265e-21)
(-0.00776794 0.0347281 -1.18412e-21)
(-0.0150649 0.0312574 -6.3612e-21)
(-0.0165416 0.0296496 7.25436e-21)
(-0.0187562 0.0291999 1.71833e-21)
(-0.0183522 0.0298136 -4.85225e-21)
(-0.0167472 0.031252 -3.58881e-23)
(-0.0126526 0.0321958 -1.80475e-21)
(-0.00643056 0.0309924 5.35367e-22)
(0.00282837 0.025208 -2.32124e-21)
(0.014881 0.0126879 2.16517e-21)
(0.0302621 -0.00761606 -2.64047e-22)
(0.0468177 -0.0344843 3.34926e-22)
(0.0636903 -0.0632991 9.9371e-22)
(0.0745531 -0.0876428 -2.34824e-21)
(0.0809969 -0.099973 1.34211e-21)
(0.0773444 -0.0953803 -6.90404e-22)
(0.0766584 -0.0698929 2.99071e-22)
(0.0787283 -0.0300483 4.64583e-22)
(0.104315 0.0190501 -7.85751e-23)
(0.144763 0.05809 -2.04498e-22)
(0.234314 0.0498647 9.81883e-22)
(0.308588 0.0328145 -4.20232e-22)
(0.427548 -0.0254898 6.31483e-23)
(0.513312 -0.0836768 -2.84748e-22)
(0.527211 -0.0960489 3.54469e-22)
(0.582597 -0.122106 8.88107e-23)
(0.491671 -0.0949336 -5.94764e-23)
(0.488143 -0.0243443 1.21023e-22)
(0.0376958 0.0495392 -1.67933e-21)
(0.0205384 0.0360255 7.10783e-21)
(0.02352 0.0355498 -1.93772e-21)
(0.0179757 0.0320639 -2.30909e-21)
(0.0179675 0.0298938 6.32288e-21)
(0.0174116 0.0290758 -4.88615e-21)
(0.0193303 0.0292961 -2.56761e-21)
(0.0225718 0.0303948 -3.96639e-22)
(0.0283884 0.0310667 4.89754e-21)
(0.036518 0.0296894 -6.09816e-22)
(0.0478686 0.0238016 -9.67122e-22)
(0.062155 0.0112253 1.20434e-22)
(0.0798426 -0.00908279 1.01648e-21)
(0.0984687 -0.0358737 -1.50285e-21)
(0.117041 -0.0644238 1.52524e-21)
(0.128763 -0.0884134 -4.96659e-23)
(0.135308 -0.100391 6.65178e-22)
(0.130598 -0.0958195 8.31064e-23)
(0.127963 -0.0710346 7.99076e-22)
(0.127133 -0.0325288 -8.00064e-22)
(0.150657 0.014785 -2.30279e-22)
(0.188956 0.0518223 3.36178e-22)
(0.279484 0.0426767 -6.05625e-22)
(0.352553 0.0250027 2.16968e-22)
(0.469527 -0.0330741 -2.85958e-22)
(0.552339 -0.0874853 -4.79587e-23)
(0.565188 -0.0985012 -5.06854e-23)
(0.618622 -0.121047 -1.02195e-22)
(0.527961 -0.0918895 1.23644e-23)
(0.518132 -0.0242788 -2.19608e-22)
(0.0730963 0.0501438 -4.20285e-22)
(0.0554931 0.0373834 4.48234e-21)
(0.0595799 0.0361639 -4.81674e-21)
(0.0556896 0.032515 5.4993e-21)
(0.0569066 0.0298688 2.54493e-21)
(0.0577687 0.0286783 -2.78452e-21)
(0.0609448 0.0285158 1.5943e-21)
(0.0655626 0.0292693 -1.94706e-21)
(0.0728625 0.0296679 3.69024e-21)
(0.0826916 0.0281061 -6.36338e-21)
(0.0959676 0.0221291 6.93635e-22)
(0.112344 0.00952837 1.5096e-21)
(0.132211 -0.0107352 -1.65532e-21)
(0.152758 -0.0373883 1.92648e-21)
(0.172872 -0.0656111 -1.87326e-21)
(0.185335 -0.0891823 9.77686e-22)
(0.191974 -0.100749 -9.57221e-22)
(0.186362 -0.0961301 6.7708e-22)
(0.182031 -0.071976 -3.81164e-22)
(0.178463 -0.0347902 -2.58079e-22)
(0.199919 0.0107231 2.38661e-22)
(0.23574 0.0456977 -5.71008e-22)
(0.326346 0.0356214 1.15326e-21)
(0.397849 0.0174599 -4.98866e-22)
(0.51188 -0.0403315 -4.83373e-22)
(0.591105 -0.0910955 -1.14417e-22)
(0.602745 -0.100828 4.59625e-23)
(0.653954 -0.119959 1.32118e-24)
(0.564771 -0.0887161 2.50767e-23)
(0.54972 -0.0240331 1.91909e-22)
(0.11511 0.0504524 4.62949e-21)
(0.0968035 0.0385223 -2.35746e-21)
(0.101412 0.0365955 1.90154e-21)
(0.0989164 0.0327155 -1.10473e-22)
(0.100996 0.0296441 3.21086e-21)
(0.10289 0.0280861 -2.59637e-21)
(0.10694 0.0275483 -3.33523e-21)
(0.112552 0.027946 8.43427e-22)
(0.120981 0.0280565 1.79993e-21)
(0.132189 0.0262965 2.87381e-21)
(0.147117 0.0202346 -4.9943e-21)
(0.165335 0.00763436 4.76254e-21)
(0.18715 -0.0125343 1.45429e-21)
(0.209364 -0.0389905 -6.44099e-22)
(0.230762 -0.0668262 -3.94221e-23)
(0.243759 -0.0899302 -6.46931e-22)
(0.250417 -0.101044 3.56531e-22)
(0.244024 -0.0963305 4.81636e-22)
(0.238257 -0.0727346 -1.00897e-22)
(0.23216 -0.0368383 1.14841e-22)
(0.251563 0.00688803 -2.72738e-22)
(0.284676 0.0397783 1.59402e-22)
(0.37448 0.0287619 -8.36029e-22)
(0.444069 0.0102427 -5.26705e-23)
(0.554341 -0.0472022 3.84268e-22)
(0.629402 -0.0944762 3.83123e-22)
(0.63966 -0.103011 -3.55021e-23)
(0.688322 -0.118867 1.17916e-23)
(0.601645 -0.0854846 -8.65173e-23)
(0.582495 -0.02364 -4.51857e-23)
(0.164832 0.0507772 -3.961e-21)
(0.14576 0.0395835 5.58394e-21)
(0.150254 0.0369223 -1.1185e-21)
(0.148691 0.0327835 -2.19903e-21)
(0.151095 0.0293219 3.23459e-21)
(0.153459 0.0274054 2.91762e-22)
(0.157848 0.0264936 -1.0766e-21)
(0.163938 0.0265181 4.64452e-21)
(0.173016 0.0263151 -6.93938e-21)
(0.185161 0.024334 6.2685e-21)
(0.20135 0.0181812 7.31803e-22)
(0.221043 0.00559841 -2.71081e-21)
(0.244454 -0.0144264 -1.23699e-21)
(0.267963 -0.0406291 1.64031e-21)
(0.290275 -0.068026 -4.49412e-22)
(0.303513 -0.090631 1.54062e-21)
(0.310048 -0.101275 -1.66151e-21)
(0.302957 -0.0964376 5.12122e-22)
(0.296017 -0.0733315 2.61416e-22)
(0.287653 -0.0386803 1.8551e-23)
(0.305056 0.00330394 2.91049e-22)
(0.335329 0.0341181 -2.48354e-23)
(0.423501 0.0221581 3.98569e-22)
(0.490824 0.00339687 -8.82152e-23)
(0.596656 -0.0536362 4.5552e-22)
(0.667041 -0.0975979 5.15633e-23)
(0.675751 -0.105029 1.70445e-22)
(0.72151 -0.117791 -4.98054e-23)
(0.638169 -0.0822594 8.72102e-23)
(0.616045 -0.0231327 -9.22718e-23)
(0.223292 0.0515455 -2.63051e-22)
(0.203879 0.0406739 -2.20018e-21)
(0.207594 0.0372829 -4.55884e-21)
(0.206217 0.0328669 2.50335e-21)
(0.208162 0.0290467 1.97612e-21)
(0.210221 0.0267728 -1.09245e-21)
(0.214247 0.0254758 -5.05281e-22)
(0.220154 0.0250993 3.80176e-21)
(0.229275 0.0245465 -4.3873e-21)
(0.241788 0.0223092 -1.65373e-21)
(0.25872 0.0160493 -9.09804e-22)
(0.279389 0.00348849 -1.88834e-21)
(0.303912 -0.0163445 4.82983e-21)
(0.328215 -0.0422388 -3.62267e-21)
(0.350963 -0.0691529 1.93823e-21)
(0.364064 -0.091242 -1.84449e-21)
(0.370273 -0.10142 -2.71407e-22)
(0.362524 -0.0964543 -8.6043e-22)
(0.354671 -0.0737826 3.10498e-22)
(0.344355 -0.0403247 -6.27268e-22)
(0.359861 4.65383e-05 1.24039e-22)
(0.387264 0.0287617 3.21148e-22)
(0.473045 0.0158633 -2.64842e-22)
(0.537745 -0.00306032 3.40413e-22)
(0.63857 -0.0595922 -7.68878e-22)
(0.703854 -0.100433 3.58056e-22)
(0.710865 -0.10686 -2.88138e-22)
(0.753356 -0.116738 7.68325e-23)
(0.673981 -0.0790963 -2.24798e-23)
(0.649972 -0.0225433 -1.94462e-23)
(0.291527 0.0532293 -2.53304e-22)
(0.272998 0.0419112 -2.2871e-21)
(0.275152 0.0378457 9.14225e-21)
(0.272795 0.0331521 -8.2086e-21)
(0.273172 0.0289938 5.63586e-21)
(0.273908 0.0263463 -4.61162e-21)
(0.276685 0.0246339 1.91252e-21)
(0.281607 0.023815 -2.47207e-22)
(0.290041 0.0228645 -1.75713e-21)
(0.302237 0.0203231 1.04694e-22)
(0.319268 0.0139284 9.04163e-22)
(0.34028 0.00137919 -6.19317e-22)
(0.365287 -0.018211 4.06225e-21)
(0.389749 -0.04374 -3.44415e-21)
(0.412352 -0.0701303 4.59656e-21)
(0.424868 -0.0916984 9.94821e-22)
(0.430502 -0.101437 -2.56569e-21)
(0.422095 -0.0963646 3.5378e-22)
(0.413574 -0.074093 7.67535e-22)
(0.401672 -0.0417744 2.0373e-22)
(0.415443 -0.00303045 -8.82904e-22)
(0.440035 0.0237402 2.15812e-22)
(0.522761 0.0099118 2.71469e-22)
(0.584477 -0.00907875 -1.44404e-22)
(0.679837 -0.0650379 3.65983e-22)
(0.739685 -0.102963 -3.78406e-22)
(0.744877 -0.108487 -4.12268e-23)
(0.783746 -0.115713 9.18602e-23)
(0.708772 -0.0760433 -1.13872e-23)
(0.683896 -0.0219021 4.22256e-23)
(0.371151 0.0559821 1.57033e-22)
(0.355473 0.0432494 -1.22473e-21)
(0.3548 0.0387569 -4.7359e-21)
(0.349675 0.0338404 4.45861e-21)
(0.346972 0.0293494 -7.10571e-21)
(0.345109 0.0262922 -6.91127e-23)
(0.345583 0.0241208 6.85141e-21)
(0.348596 0.0228105 -5.00301e-21)
(0.355515 0.0214086 4.55743e-22)
(0.366607 0.0185077 -1.7345e-21)
(0.38298 0.0119402 4.47544e-21)
(0.403568 -0.000586599 -2.54438e-21)
(0.428292 -0.0199213 9.5774e-22)
(0.45215 -0.0450542 1.35506e-21)
(0.473941 -0.0709173 1.62876e-21)
(0.485378 -0.0920069 4.3628e-22)
(0.490159 -0.101375 -2.2088e-21)
(0.48106 -0.0962483 1.30958e-21)
(0.47209 -0.0743449 -1.96743e-23)
(0.458985 -0.0430886 -3.67915e-22)
(0.471264 -0.00595276 1.77884e-22)
(0.493207 0.0190914 -2.36874e-22)
(0.572308 0.00433341 1.87692e-22)
(0.630686 -0.0145926 -2.57826e-22)
(0.720211 -0.0699595 3.69698e-22)
(0.774392 -0.105196 1.73394e-22)
(0.777676 -0.109918 -7.40276e-23)
(0.812608 -0.114734 -7.6665e-24)
(0.742294 -0.0731467 5.56636e-23)
(0.717465 -0.0212375 1.73247e-23)
(0.466237 0.0576032 -2.31135e-21)
(0.454484 0.0443159 5.7511e-21)
(0.448317 0.04035 -2.88637e-21)
(0.437778 0.0353131 -3.60515e-21)
(0.430069 0.0304434 1.47501e-21)
(0.424118 0.0268864 -3.7641e-21)
(0.421112 0.0241804 4.73554e-21)
(0.421214 0.0223104 1.22965e-21)
(0.425729 0.020399 -4.08029e-21)
(0.434865 0.0170912 2.50986e-21)
(0.449736 0.0103148 -2.7432e-21)
(0.469011 -0.00217863 -1.86475e-21)
(0.492547 -0.0213066 3.86691e-21)
(0.51493 -0.0461182 -6.088e-22)
(0.535185 -0.0715805 -1.59726e-21)
(0.545035 -0.0923571 3.31903e-21)
(0.548691 -0.101501 -3.4109e-21)
(0.538848 -0.096397 1.28176e-21)
(0.529619 -0.0747928 -8.34819e-22)
(0.515706 -0.0444443 6.26729e-22)
(0.526795 -0.00863287 7.78372e-23)
(0.546325 0.0148482 -2.89693e-22)
(0.621344 -0.000714111 5.55534e-23)
(0.67605 -0.0195774 -3.44591e-23)
(0.759454 -0.0743605 -8.05372e-23)
(0.807841 -0.107159 -1.92292e-22)
(0.809168 -0.111167 3.59679e-23)
(0.839908 -0.113815 -1.78101e-23)
(0.774352 -0.0704459 -3.70223e-23)
(0.750356 -0.0205743 -3.30978e-23)
(0.588429 0.056414 -7.96762e-21)
(0.574078 0.047098 1.76956e-21)
(0.556728 0.0440377 -2.66895e-21)
(0.537221 0.0386259 9.0145e-21)
(0.522327 0.0330516 -4.21221e-21)