/*--------------------------------*- C++ -*----------------------------------*\
  =========                 |
  \\      /  F ield         | OpenFOAM: The Open Source CFD Toolbox
   \\    /   O peration     | Website:  https://openfoam.org
    \\  /    A nd           | Version:  7
     \\/     M anipulation  |
\*---------------------------------------------------------------------------*/
FoamFile
{
    version     2.0;
    format      ascii;
    class       volVectorField;
    location    "30";
    object      U;
}
// * * * * * * * * * * * * * * * * * * * * * * * * * * * * * * * * * * * * * //

dimensions      [0 1 -1 0 0 0 0];

internalField   nonuniform List<vector> 
2125
(
(0.00967128 -0.00530251 -4.21693e-20)
(0.0129424 -0.00685998 1.54613e-20)
(0.0522257 -0.0212401 1.7891e-20)
(0.0166055 -0.00833294 -1.04731e-20)
(0.0630642 -0.0244387 -8.14802e-21)
(0.0206599 -0.00967986 2.20216e-20)
(0.0748743 -0.027222 -6.51206e-21)
(0.145343 -0.0372274 -3.88614e-21)
(0.0251006 -0.010859 -8.17413e-21)
(0.0876251 -0.0294815 -5.12521e-20)
(0.166145 -0.0391484 5.49948e-21)
(0.257399 -0.0427296 1.93326e-20)
(0.0299184 -0.0118287 -8.8682e-21)
(0.101272 -0.0311113 1.82893e-20)
(0.188129 -0.0400281 2.44005e-20)
(0.287098 -0.0419383 -1.80068e-20)
(0.395908 -0.0374334 6.79451e-21)
(0.511853 -0.0273315 -4.31729e-20)
(0.0350986 -0.0125481 -1.13208e-20)
(0.115757 -0.0320098 -3.82618e-21)
(0.211178 -0.0397278 -4.40311e-20)
(0.31786 -0.0395667 -7.03368e-21)
(0.43328 -0.0324099 -6.67672e-22)
(0.554405 -0.0193747 2.6694e-21)
(0.677641 -0.00199258 4.4869e-21)
(0.0406214 -0.012977 -2.85957e-21)
(0.131006 -0.0320806 1.50431e-20)
(0.235156 -0.0381222 2.15704e-20)
(0.349475 -0.0354846 1.39093e-20)
(0.471192 -0.0253652 -4.23446e-21)
(0.596958 -0.00920038 -3.64378e-21)
(0.722846 0.0111692 3.75133e-20)
(0.844558 0.0337869 5.43433e-21)
(0.0464607 -0.0130768 2.81155e-20)
(0.146929 -0.0312346 1.93094e-20)
(0.2599 -0.0351009 -2.02543e-20)
(0.381708 -0.0295866 -4.12401e-21)
(0.509338 -0.0162251 2.20949e-21)
(0.639148 0.00321029 -8.57456e-21)
(0.766931 0.0265592 -1.93838e-20)
(0.888188 0.0516009 -3.22488e-21)
(0.998533 0.0762698 1.70365e-22)
(1.09281 0.0943221 9.01715e-21)
(0.0525845 -0.0128108 3.21261e-21)
(0.163424 -0.029391 -1.05201e-20)
(0.285231 -0.0305706 2.5735e-20)
(0.414301 -0.0217941 1.72649e-20)
(0.547392 -0.00495048 4.95401e-22)
(0.680602 0.0178343 1.32914e-20)
(0.809506 0.0440767 2.01012e-21)
(0.929507 0.0713014 -1.54484e-20)
(1.03629 0.0972505 1.37012e-20)
(1.12536 0.116388 1.45549e-22)
(0.0589539 -0.012145 -2.28438e-20)
(0.180369 -0.0264795 -7.14167e-21)
(0.310948 -0.0244572 -6.74582e-21)
(0.446977 -0.0120564 -1.20241e-20)
(0.585014 0.00846173 2.91263e-21)
(0.720941 0.0346094 7.98165e-23)
(0.850192 0.0635842 1.08109e-20)
(0.968177 0.0926772 -1.82706e-21)
(1.07078 0.119481 -1.41519e-20)
(1.15424 0.139166 -1.35626e-20)
(0.0655235 -0.0110488 1.81663e-21)
(0.197631 -0.0224412 1.13585e-20)
(0.336833 -0.0167076 5.60555e-21)
(0.479446 -0.000352338 -1.8441e-20)
(0.621858 0.0239796 -1.01067e-21)
(0.759794 0.0534365 -8.83122e-21)
(0.888632 0.0849121 2.42206e-22)
(1.0039 0.115498 4.59804e-21)
(1.10182 0.142692 -5.36437e-21)
(1.17936 0.162376 1.53511e-20)
(0.0722416 -0.00949569 4.18652e-21)
(0.215062 -0.017231 -1.09073e-20)
(0.362654 -0.00729121 -2.67195e-20)
(0.511405 0.0133093 2.5736e-20)
(0.657577 0.0415365 -2.04464e-21)
(0.796802 0.0741826 6.36508e-21)
(0.924496 0.107864 -9.64669e-22)
(1.03642 0.13952 6.85222e-21)
(1.12923 0.16662 -5.29177e-22)
(1.2007 0.185762 -1.18688e-20)
(0.0790505 -0.00746458 -8.33591e-21)
(0.232504 -0.010819 1.39807e-20)
(0.388167 0.00379853 1.20902e-20)
(0.542547 0.0288889 -1.81836e-20)
(0.691828 0.0610327 -3.1724e-21)
(0.831626 0.0966842 1.29352e-21)
(0.957492 0.132223 1.38947e-20)
(1.06552 0.164491 7.62048e-22)
(1.15294 0.191009 2.97319e-21)
(1.21829 0.209097 -6.62523e-21)
(0.085887 -0.00494017 6.29846e-21)
(0.249788 -0.00319179 -6.03929e-21)
(0.413122 0.0165428 -5.23128e-21)
(0.572563 0.0463162 9.56775e-21)
(0.72428 0.0823368 3.54531e-21)
(0.863952 0.120751 2.86655e-21)
(0.987365 0.157752 -1.4136e-20)
(1.09106 0.190156 -5.13215e-21)
(1.17289 0.215612 -4.77291e-21)
(1.23219 0.232176 2.1851e-21)
(0.0926832 -0.00191394 -3.0095e-21)
(0.266739 0.0056458 -6.39065e-23)
(0.437264 0.0308968 9.88175e-21)
(0.601153 0.0654908 -3.86224e-21)
(0.75462 0.105288 -1.79195e-21)
(0.893497 0.146168 -1.26916e-21)
(1.0139 0.184205 3.42798e-21)
(1.11292 0.21626 6.24658e-21)
(1.18908 0.240198 -1.98331e-22)
(1.24251 0.254818 2.4069e-21)
(0.0993677 0.00161516 2.09716e-21)
(0.283175 0.01567 -6.36308e-22)
(0.460339 0.0467891 -1.74366e-21)
(0.628022 0.0862828 -1.67285e-21)
(0.782557 0.129698 1.63312e-21)
(0.920015 0.172703 1.37568e-21)
(1.03694 0.211324 -1.34421e-21)
(1.13103 0.242554 5.22415e-22)
(1.20156 0.264548 7.56219e-22)
(1.24937 0.276863 -1.02023e-21)
(0.105866 0.00564017 1.07532e-21)
(0.298915 0.0268373 3.42857e-22)
(0.482096 0.0641222 -2.07438e-21)
(0.652893 0.108535 -1.78368e-21)
(0.807827 0.155355 2.01016e-21)
(0.943296 0.200107 4.19689e-22)
(1.05636 0.23885 -1.08226e-21)
(1.14537 0.268792 1.06333e-21)
(1.21039 0.28846 6.1437e-22)
(1.25293 0.298169 -7.08098e-22)
(0.112104 0.0101457 -4.38838e-22)
(0.313779 0.0390841 8.992e-22)
(0.502297 0.0827727 6.24878e-21)
(0.675509 0.132063 -2.987e-21)
(0.830198 0.182026 -1.64385e-21)
(0.963168 0.228119 -2.0017e-21)
(1.07206 0.266521 4.34785e-21)
(1.15597 0.294741 3.05992e-21)
(1.21569 0.311744 2.52874e-21)
(1.25336 0.318609 1.38149e-21)
(0.118004 0.0151076 8.14264e-21)
(0.32759 0.0523269 -4.79033e-21)
(0.520714 0.102593 -5.9546e-21)
(0.695636 0.15666 8.6427e-21)
(0.84947 0.209462 4.95816e-21)
(0.979503 0.25647 -3.67474e-22)
(1.08402 0.294078 -7.20534e-21)
(1.16287 0.320175 -5.50781e-21)
(1.21758 0.334227 -5.85366e-21)
(1.25084 0.338071 3.45315e-21)
(0.123494 0.0204931 -1.08682e-20)
(0.340182 0.0664631 1.08817e-20)
(0.537138 0.123412 1.32074e-20)
(0.713068 0.182099 -1.4287e-20)
(0.86548 0.237399 -5.49532e-21)
(0.992211 0.284888 3.83401e-21)
(1.09224 0.321268 7.56696e-21)
(1.16616 0.344882 1.22488e-21)
(1.21622 0.355749 -1.63826e-22)
(1.24555 0.356454 -4.56133e-21)
(0.128502 0.0262608 -1.45261e-21)
(0.351398 0.0813715 -1.4919e-20)
(0.55138 0.145038 -1.70842e-20)
(0.727628 0.208135 2.10823e-20)
(0.878103 0.265564 -2.56858e-21)
(1.00124 0.3131 5.24921e-21)
(1.09674 0.347843 1.12284e-21)
(1.16594 0.36866 -3.33985e-21)
(1.21175 0.376161 1.86585e-21)
(1.23767 0.373667 -1.01297e-22)
(0.13296 0.0323609 2.94353e-21)
(0.361094 0.096914 8.92411e-21)
(0.563276 0.167262 5.58679e-21)
(0.739173 0.23451 -4.7079e-21)
(0.887252 0.293677 -7.88913e-21)
(1.00658 0.340835 -8.37152e-21)
(1.09759 0.373567 -1.80851e-21)
(1.16235 0.391323 4.85289e-21)
(1.20437 0.395326 -1.06878e-21)
(1.22741 0.389627 2.4624e-21)
(0.136806 0.0387361 -1.04268e-20)
(0.369144 0.112937 -1.07907e-20)
(0.572686 0.189859 -1.7412e-21)
(0.747597 0.260955 -2.17144e-21)
(0.892878 0.321457 -5.63812e-21)
(1.00826 0.367829 3.93978e-21)
(1.09489 0.398214 -7.8863e-22)
(1.15554 0.412694 -4.34734e-21)
(1.19424 0.413118 3.99184e-21)
(1.21494 0.40426 -5.20327e-21)
(0.139986 0.0453218 2.97907e-21)
(0.375441 0.129275 9.05875e-21)
(0.579504 0.212593 8.39728e-21)
(0.752827 0.287195 1.01024e-20)
(0.894971 0.348623 4.07646e-22)
(1.00633 0.393824 1.06652e-20)
(1.08876 0.421571 5.99391e-22)
(1.14566 0.43261 -1.37706e-20)
(1.18154 0.429415 9.85344e-21)
(1.20041 0.417489 3.72272e-21)
(0.142452 0.0520475 6.49595e-21)
(0.379898 0.14575 1.51175e-20)
(0.58365 0.235218 -2.35084e-21)
(0.754828 0.312951 -1.23254e-20)
(0.893557 0.3749 6.33315e-21)
(1.00089 0.418576 -7.30792e-21)
(1.07934 0.443439 -9.974e-21)
(1.13289 0.450927 -3.88754e-22)
(1.16644 0.444122 -7.52723e-21)
(1.18389 0.429201 2.6855e-21)
(0.144164 0.0588375 2.59225e-21)
(0.382451 0.162178 1.49896e-21)
(0.58508 0.257483 1.97378e-20)
(0.7536 0.337948 4.32393e-21)
(0.888699 0.40002 -3.93462e-21)
(0.992056 0.441852 -2.43456e-21)
(1.0668 0.463636 1.43027e-20)
(1.11742 0.467517 1.19612e-20)
(1.14914 0.457207 5.86283e-21)
(1.16568 0.439273 -5.6583e-22)
(0.145094 0.0656119 4.24065e-22)
(0.38306 0.178367 -1.48763e-20)
(0.583779 0.279136 -2.25093e-20)
(0.749182 0.361912 6.93722e-22)
(0.880492 0.423725 6.02436e-21)
(0.979977 0.463431 -8.24583e-21)
(1.05131 0.481988 -1.96273e-20)
(1.09943 0.482239 -5.87848e-21)
(1.12981 0.468546 -2.92323e-22)
(1.14603 0.447795 1.14565e-21)
(0.145223 0.0722883 -4.10675e-21)
(0.381709 0.194124 1.06233e-20)
(0.579767 0.299926 1.28367e-20)
(0.741644 0.384579 -1.30147e-20)
(0.869066 0.44577 2.27717e-21)
(0.964826 0.483114 1.81287e-20)
(1.03307 0.498346 -2.96888e-21)
(1.07912 0.494997 3.20775e-21)
(1.10858 0.478026 -5.87591e-22)
(1.12502 0.454674 -3.89175e-22)
(0.144542 0.0787826 -7.92983e-21)
(0.378406 0.209256 -1.7137e-20)
(0.573095 0.319608 -3.8861e-21)
(0.731094 0.405695 7.10906e-21)
(0.85458 0.465927 7.28678e-21)
(0.946799 0.500714 -1.68521e-20)
(1.01229 0.512575 9.0785e-21)
(1.05667 0.505699 -2.90246e-21)
(1.08566 0.485589 1.09371e-21)
(1.10274 0.459817 6.37425e-22)
(0.143054 0.0850112 6.14127e-21)
(0.373185 0.223573 1.17979e-21)
(0.563845 0.337944 -1.36297e-21)
(0.71767 0.425019 -7.36662e-21)
(0.837217 0.483984 4.24156e-21)
(0.926114 0.516066 2.31498e-21)
(0.989196 0.524556 -2.84872e-21)
(1.03228 0.514269 2.12564e-21)
(1.06118 0.491182 1.01879e-21)
(1.07932 0.463154 -2.96472e-21)
(0.140773 0.0908918 -1.01957e-21)
(0.366102 0.23689 -7.60988e-22)
(0.552129 0.354706 5.41799e-21)
(0.701536 0.442327 3.26758e-21)
(0.817188 0.499746 -5.81162e-21)
(0.903008 0.529023 5.23075e-21)
(0.964022 0.534193 1.46684e-21)
(1.00617 0.520645 2.72113e-21)
(1.03529 0.49476 6.55563e-21)
(1.05487 0.464618 1.17635e-21)
(0.137717 0.0963416 5.32451e-21)
(0.35724 0.249031 5.64928e-21)
(0.538087 0.369682 -1.94356e-21)
(0.682885 0.45741 -5.75186e-22)
(0.794731 0.513041 -1.92801e-21)
(0.877736 0.539456 -1.08399e-21)
(0.937018 0.541403 2.63784e-21)
(0.978534 0.524788 1.39842e-23)
(1.00812 0.496298 -5.82184e-21)
(1.02946 0.464136 -7.30744e-21)
(0.133922 0.101279 -2.19146e-21)
(0.346701 0.25983 -7.91909e-22)
(0.521883 0.382675 -2.77905e-21)
(0.661937 0.470081 8.69212e-22)
(0.770099 0.523714 -3.00892e-21)
(0.850568 0.547258 6.77799e-21)
(0.90845 0.546125 -8.35626e-22)
(0.949605 0.526676 1.14157e-21)
(0.979791 0.495782 -5.51522e-21)
(1.00316 0.461623 8.69023e-21)
(0.129436 0.105632 -2.04311e-21)
(0.334607 0.269128 4.12869e-22)
(0.503705 0.393508 -1.66016e-21)
(0.638929 0.480174 -2.41409e-21)
(0.74356 0.531632 -1.84231e-21)
(0.821786 0.552338 -3.14883e-22)
(0.878597 0.548313 3.2889e-21)
(0.919617 0.526308 -1.51508e-20)
(0.950398 0.493219 3.24407e-20)
(0.975999 0.456954 1.3205e-20)
(0.124309 0.109336 4.73825e-22)
(0.321095 0.276787 -8.89916e-21)
(0.48376 0.402019 6.83495e-21)
(0.614117 0.487542 -1.37443e-21)
(0.715397 0.536681 3.42065e-21)
(0.791686 0.554621 -5.85005e-21)
(0.847756 0.547938 -1.12264e-20)
(0.888838 0.523713 5.91432e-21)
(0.920111 0.488664 -2.68949e-21)
(0.947918 0.450015 -6.46131e-21)
(0.118603 0.112329 -2.03091e-21)
(0.306322 0.282685 2.33673e-21)
(0.462274 0.408071 -4.48915e-21)
(0.587769 0.492065 4.61979e-21)
(0.685901 0.538771 8.78366e-21)
(0.760567 0.55405 5.64984e-21)
(0.816237 0.544978 1.94166e-20)
(0.857612 0.518944 -1.40971e-20)
(0.889348 0.482338 -2.80645e-20)
(0.918674 0.441212 1.15236e-20)
(0.112382 0.114556 -4.81269e-21)
(0.290459 0.286713 -4.50086e-21)
(0.439485 0.41155 1.60074e-21)
(0.560165 0.493644 1.40539e-20)
(0.655366 0.537828 -1.62665e-20)
(0.72872 0.550572 -2.22542e-20)
(0.78434 0.539393 -7.18553e-21)
(0.826376 0.511973 -9.48138e-22)
(0.85904 0.474515 3.53152e-20)
(0.887888 0.430972 -9.2947e-21)
(0.105723 0.11597 1.43008e-20)
(0.273687 0.288785 -4.93313e-22)
(0.415642 0.412365 -2.69375e-21)
(0.531587 0.492208 -1.33945e-22)
(0.62408 0.533806 -8.17964e-21)
(0.69642 0.544157 4.01321e-20)
(0.752327 0.531123 -2.76964e-20)
(0.795536 0.502557 3.47577e-20)
(0.830169 0.46471 -2.58674e-20)
(0.861112 0.421243 -3.49125e-20)
(0.0987037 0.116534 -6.72724e-21)
(0.256197 0.288833 3.11582e-21)
(0.391005 0.410452 -1.26159e-21)
(0.502327 0.487713 1.34005e-20)
(0.592334 0.526685 -4.47384e-21)
(0.663922 0.534803 7.10457e-21)
(0.720379 0.520182 1.65995e-20)
(0.765026 0.490721 -9.09743e-21)
(0.801697 0.452647 -2.34705e-20)
(0.83438 0.409679 3.44124e-20)
(0.0914097 0.11622 1.34927e-20)
(0.238189 0.286811 1.90741e-20)
(0.365838 0.405773 -1.5943e-20)
(0.472675 0.480142 -1.40213e-20)
(0.560413 0.516474 4.1453e-20)
(0.631486 0.522543 -4.26933e-20)
(0.6887 0.506628 5.24854e-20)
(0.734944 0.476598 -1.42197e-20)
(0.773654 0.438602 1.59346e-20)
(0.808057 0.396474 2.99233e-20)
(0.0839281 0.11501 -6.34176e-21)
(0.219865 0.282692 -1.70895e-20)
(0.340408 0.398317 -6.94412e-21)
(0.442925 0.469506 -4.61198e-21)
(0.528607 0.503205 3.55439e-21)
(0.599372 0.507428 -1.02571e-20)
(0.657515 0.490527 -1.58086e-20)
(0.705474 0.460283 -3.52313e-20)
(0.74626 0.422734 3.6507e-20)
(0.782483 0.381769 -1.26724e-20)
(0.0763489 0.112894 2.3364e-20)
(0.201433 0.276472 -1.53516e-21)
(0.314985 0.388097 -9.13951e-21)
(0.413368 0.455842 1.34779e-20)
(0.4972 0.486935 -2.47293e-20)
(0.567842 0.489527 6.65563e-20)
(0.627052 0.471954 -3.70882e-20)
(0.676813 0.441848 3.56804e-20)
(0.719706 0.4051 -6.93426e-20)
(0.757823 0.36558 -1.92004e-20)
(0.0687629 0.109874 -9.70508e-21)
(0.1831 0.26817 2.50348e-20)
(0.289836 0.375153 6.63613e-21)
(0.384291 0.439211 -1.15728e-20)
(0.466472 0.46774 -2.07523e-20)
(0.53715 0.468923 -1.27275e-21)
(0.597534 0.450992 1.24075e-20)
(0.649154 0.421363 -3.16317e-20)
(0.694163 0.385742 1.69077e-20)
(0.734219 0.347916 2.22197e-21)
(0.0612609 0.10596 -3.69631e-20)
(0.165069 0.257821 -9.99525e-21)
(0.265222 0.35955 -2.52734e-21)
(0.355975 0.419699 2.93421e-20)
(0.436693 0.445718 -2.80743e-20)
(0.507543 0.445717 -7.94642e-21)
(0.569178 0.427733 -4.92756e-21)
(0.622681 0.398907 9.84411e-21)
(0.669796 0.364714 -1.29522e-20)
(0.711803 0.328801 -2.14324e-20)
(0.0539326 0.101175 3.05222e-20)
(0.147541 0.245486 -1.75406e-20)
(0.2414 0.341377 1.11763e-21)
(0.32869 0.397415 -4.41536e-20)
(0.408124 0.420988 4.95811e-20)
(0.479254 0.420025 -1.65435e-20)
(0.542188 0.402282 1.04652e-20)
(0.59757 0.374566 9.66573e-21)
(0.646751 0.342078 2.96208e-20)
(0.690694 0.308275 -1.24871e-20)
(0.046865 0.0955468 -1.23828e-20)
(0.130711 0.231241 3.64681e-20)
(0.218613 0.320744 2.05069e-20)
(0.302695 0.372489 3.37575e-20)
(0.38101 0.393686 -8.36631e-21)
(0.452506 0.391978 3.39221e-21)
(0.516753 0.374757 2.95933e-20)
(0.573979 0.348439 6.89453e-21)
(0.625162 0.31791 6.69806e-22)
(0.670994 0.2864 -1.49374e-20)
(0.0401421 0.089116 -2.63112e-20)
(0.114763 0.215184 -2.10057e-21)
(0.197094 0.297787 -1.16339e-20)
(0.278232 0.345074 -5.34904e-20)
(0.355584 0.363967 -5.41744e-20)
(0.427505 0.361722 9.55294e-21)
(0.493053 0.345288 -2.49523e-20)
(0.552058 0.320636 1.68713e-20)
(0.605152 0.292298 9.77535e-21)
(0.652797 0.263248 2.15637e-20)
(0.0338435 0.0819301 3.71101e-20)
(0.0998723 0.197429 -3.22177e-20)
(0.177063 0.272658 -1.64104e-20)
(0.255531 0.315343 3.08978e-20)
(0.332059 0.332006 3.65278e-20)
(0.404441 0.329421 -1.26746e-20)
(0.471248 0.314018 -1.63814e-21)
(0.531941 0.291277 -5.23019e-20)
(0.586828 0.265342 -3.13211e-20)
(0.636185 0.238909 1.26851e-20)
(0.0280433 0.074045 -2.10346e-20)
(0.0862006 0.178108 9.45387e-21)
(0.158721 0.245532 3.50068e-20)
(0.234799 0.283486 -1.59849e-20)
(0.310635 0.297991 1.22758e-21)
(0.38349 0.295249 5.11651e-20)
(0.451488 0.281104 2.54604e-21)
(0.513749 0.260497 4.9888e-20)
(0.570291 0.237156 2.21379e-20)
(0.621231 0.21348 -3.70769e-20)
(0.02281 0.0655243 2.80605e-20)
(0.0738966 0.157366 3.24373e-21)
(0.142251 0.2166 2.24985e-21)
(0.216229 0.249712 3.28245e-20)
(0.291488 0.262127 -4.66878e-21)
(0.364808 0.259395 -3.19858e-20)
(0.433903 0.24671 1.67477e-20)
(0.497591 0.228437 -2.81045e-20)
(0.555628 0.207859 -1.24526e-20)
(0.608002 0.187068 1.34801e-20)
(0.0182049 0.0564382 -1.75283e-20)
(0.0630935 0.135363 -3.53667e-20)
(0.127819 0.186069 8.32841e-21)
(0.199988 0.214244 -1.71604e-20)
(0.274776 0.224633 -1.10533e-20)
(0.348533 0.222059 2.83268e-20)
(0.418612 0.211013 -7.2068e-21)
(0.483563 0.195249 7.21581e-21)
(0.542915 0.177582 -9.32523e-21)
(0.596555 0.159791 1.93251e-20)
(0.0142821 0.0468629 6.20665e-21)
(0.0539076 0.112274 2.36529e-20)
(0.115567 0.154161 -3.3785e-20)
(0.186225 0.17732 1.67936e-20)
(0.260637 0.185738 -8.07919e-21)
(0.334785 0.183451 -2.42164e-20)
(0.405713 0.174199 2.10033e-20)
(0.471746 0.161093 4.79562e-21)
(0.532218 0.146465 -6.84229e-22)
(0.586939 0.13177 -2.26042e-20)
(0.0110873 0.0368801 1.97258e-21)
(0.0464378 0.0882792 7.46628e-21)
(0.105618 0.121108 3.03967e-20)
(0.175063 0.139187 -6.10921e-21)
(0.249186 0.145682 -5.10218e-21)
(0.323664 0.14379 2.00574e-21)
(0.395293 0.136459 8.77839e-22)
(0.462209 0.126136 8.31794e-21)
(0.523594 0.11465 -1.16022e-20)
(0.579195 0.103134 -7.79071e-21)
(0.00865804 0.0265757 -5.01242e-21)
(0.0407643 0.0635718 -9.13921e-21)
(0.0980691 0.0871559 -2.35261e-20)
(0.166602 0.100104 1.24211e-20)
(0.240516 0.104716 1.07376e-20)
(0.315253 0.103302 4.60778e-22)
(0.387418 0.0979939 -2.04607e-20)
(0.455008 0.0905504 -9.67782e-21)
(0.517086 0.0822871 8.13667e-21)
(0.573358 0.0740149 9.22177e-21)
(0.0070226 0.016039 8.70607e-22)
(0.036948 0.0383502 -1.89167e-21)
(0.0929948 0.0525547 4.4642e-21)
(0.16092 0.0603377 -3.17725e-21)
(0.234696 0.063093 -2.95641e-21)
(0.309611 0.0622203 -2.12465e-21)
(0.38214 0.0590062 4.1934e-21)
(0.450185 0.0545121 1.69794e-20)
(0.512729 0.0495306 2.60182e-21)
(0.569452 0.0445485 -4.92026e-21)
(0.158066 0.0201585 -2.68585e-21)
(0.231775 0.0210751 2.7193e-21)
(0.30678 0.02078 1.30458e-21)
(0.379492 0.0197038 -1.38096e-21)
(0.447766 0.0182011 -6.71729e-21)
(0.510545 0.0165367 2.34085e-21)
(0.567495 0.0148728 -2.32584e-21)
(1.26984 0.279999 -1.07316e-22)
(1.26689 0.261043 -1.08211e-21)
(1.26093 0.241339 -2.006e-22)
(1.25179 0.220998 -7.22972e-22)
(1.23932 0.200147 3.86128e-21)
(1.2234 0.178938 -3.63081e-21)
(1.20394 0.157549 2.3303e-21)
(1.18088 0.136188 9.23146e-21)
(1.27987 0.279794 -2.17689e-23)
(1.27977 0.26363 9.24236e-22)
(1.2771 0.246712 8.15028e-22)
(1.27167 0.229111 -3.974e-21)
(1.26333 0.210912 1.30467e-21)
(1.25192 0.19222 -8.04345e-22)
(1.23731 0.173162 2.22809e-21)
(1.21941 0.153892 -4.33812e-21)
(1.28461 0.276612 2.83318e-22)
(1.28696 0.26305 6.47716e-22)
(1.28716 0.248766 3.85716e-22)
(1.28506 0.233793 1.95928e-21)
(1.28047 0.218176 2.59933e-21)
(1.27323 0.201973 3.80772e-21)
(1.26317 0.185261 -1.12066e-22)
(1.25016 0.168137 7.22944e-22)
(1.28501 0.270718 -9.29476e-23)
(1.28925 0.259469 -1.10691e-21)
(1.2918 0.247562 -1.02874e-21)
(1.29247 0.234999 7.62153e-22)
(1.2911 0.221793 -2.94957e-21)
(1.28749 0.207965 -6.90259e-21)
(1.28149 0.193551 3.06078e-21)
(1.27293 0.178601 3.71696e-22)
(1.28213 0.262618 1.11581e-23)
(1.28773 0.253375 5.44724e-22)
(1.29202 0.243565 1.39752e-21)
(1.29486 0.233174 5.17632e-22)
(1.29609 0.222189 -1.04699e-22)
(1.29552 0.210604 1.69558e-21)
(1.29298 0.198424 1.26695e-21)
(1.28831 0.185663 -1.48176e-21)
(1.27701 0.252851 2.04231e-25)
(1.28344 0.245277 5.48431e-22)
(1.28892 0.237245 -9.80967e-22)
(1.29332 0.22873 -7.84833e-22)
(1.2965 0.219704 5.07343e-22)
(1.2983 0.210144 1.11029e-21)
(1.29855 0.200029 -1.99542e-21)
(1.2971 0.189348 -9.43166e-22)
(1.27046 0.241924 4.85198e-23)
(1.2773 0.235693 -5.7363e-22)
(1.28348 0.229112 8.71675e-22)
(1.28888 0.222151 5.43949e-22)
(1.2934 0.214777 1.10935e-21)
(1.29691 0.206959 -4.80188e-22)
(1.29927 0.198662 -3.17408e-21)
(1.30032 0.189859 2.15828e-21)
(1.26312 0.230281 -1.16361e-22)
(1.27005 0.225107 -2.3613e-22)
(1.27653 0.219676 -2.80348e-22)
(1.28248 0.213961 -3.4752e-22)
(1.28782 0.207932 1.73276e-22)
(1.29245 0.201555 1.25043e-21)
(1.29625 0.194792 3.47087e-21)
(1.29911 0.187607 7.20528e-22)
(1.25542 0.218276 5.35682e-23)
(1.26221 0.213923 -8.92694e-25)
(1.26871 0.209388 -1.07339e-22)
(1.27486 0.204651 -5.38331e-22)
(1.2806 0.199685 -9.72515e-22)
(1.28586 0.194461 -1.32376e-21)
(1.29057 0.188945 -9.04858e-22)
(1.29462 0.183098 -1.32096e-21)
(1.24762 0.206159 2.98765e-23)
(1.25414 0.202446 4.13054e-22)
(1.26047 0.198608 3.59382e-23)
(1.26657 0.19463 3.68302e-22)
(1.27242 0.190491 2.36937e-23)
(1.27795 0.186169 -1.77576e-21)
(1.28312 0.181636 -1.24417e-22)
(1.28786 0.17686 1.09088e-21)
(1.23988 0.194098 -7.42338e-23)
(1.24604 0.190894 9.3123e-23)
(1.25209 0.187604 -1.15395e-22)
(1.258 0.184217 -2.41364e-22)
(1.26374 0.18072 -3.50466e-22)
(1.26929 0.177097 1.20015e-21)
(1.27461 0.173327 5.7203e-22)
(1.27965 0.169385 -1.01262e-21)
(1.23226 0.1822 2.29572e-23)
(1.23805 0.179411 -3.0658e-22)
(1.24376 0.17656 1.72973e-22)
(1.24938 0.173642 1.31328e-23)
(1.2549 0.170649 3.87598e-22)
(1.2603 0.16757 -3.90877e-22)
(1.26556 0.164392 5.26091e-22)
(1.27064 0.161096 7.68932e-22)
(1.22483 0.170533 1.23096e-23)
(1.23022 0.168089 1.23617e-22)
(1.23557 0.165601 -2.91583e-22)
(1.24086 0.163064 -4.85436e-23)
(1.24608 0.160476 -3.60861e-22)
(1.25124 0.157828 4.40496e-22)
(1.2563 0.155114 -1.70649e-21)
(1.26127 0.152321 -1.04077e-21)
(1.21757 0.159132 -2.66542e-23)
(1.22259 0.156983 3.33346e-23)
(1.22757 0.154801 2.25778e-22)
(1.23251 0.152584 -1.16306e-22)
(1.23741 0.150329 5.67261e-22)
(1.24227 0.148033 -2.02158e-22)
(1.24707 0.145692 3.34291e-22)
(1.25182 0.143298 5.98343e-22)
(1.2105 0.148015 2.35966e-23)
(1.21515 0.146123 -8.32304e-24)
(1.21978 0.144205 -1.6001e-22)
(1.22438 0.142261 4.12426e-22)
(1.22895 0.14029 -2.67687e-22)
(1.2335 0.138289 2.45994e-22)
(1.23801 0.136256 2.57414e-22)
(1.24248 0.134188 1.12526e-22)
(1.20362 0.137189 7.15272e-24)
(1.20792 0.135523 2.18375e-23)
(1.21221 0.133837 7.39053e-23)
(1.21649 0.132131 -2.59156e-22)
(1.22074 0.130405 -1.8807e-22)
(1.22497 0.128657 4.64761e-23)
(1.22918 0.126887 -2.18957e-22)
(1.23336 0.125092 2.24703e-22)
(1.23751 0.12327 -1.06836e-21)
(1.19692 0.126647 -1.18559e-23)
(1.20091 0.125183 -2.27057e-24)
(1.20488 0.123703 -1.46345e-24)
(1.20884 0.122208 1.65355e-22)
(1.21279 0.120698 1.22306e-22)
(1.21672 0.119172 -6.96633e-23)
(1.22063 0.11763 -1.783e-22)
(1.22453 0.11607 -1.41556e-24)
(1.2284 0.114491 1.59461e-22)
(1.19042 0.116377 1.74661e-24)
(1.19411 0.115095 4.09399e-25)
(1.19779 0.1138 2.78896e-23)
(1.20146 0.112494 -4.82694e-23)
(1.20512 0.111176 -2.73283e-23)
(1.20877 0.109846 1.67744e-22)
(1.2124 0.108505 7.03614e-23)
(1.21601 0.107151 -2.80077e-22)
(1.21961 0.105783 -9.90824e-23)
(1.18411 0.106371 -5.25464e-25)
(1.18753 0.105251 -2.03216e-24)
(1.19095 0.104122 -1.67222e-23)
(1.19435 0.102984 -7.4771e-24)
(1.19774 0.101838 -7.88765e-23)
(1.20112 0.100683 8.36412e-23)
(1.20449 0.0995193 -7.05302e-23)
(1.20784 0.098347 -1.80612e-22)
(1.21118 0.0971656 3.00801e-22)
(1.17803 0.0966043 3.36921e-24)
(1.1812 0.0956307 -4.3987e-24)
(1.18437 0.0946508 -5.71009e-24)
(1.18753 0.0936648 -7.41651e-24)
(1.19067 0.0926725 5.05066e-24)
(1.19381 0.0916742 -3.92624e-23)
(1.19693 0.0906697 8.65954e-23)
(1.20004 0.089659 9.9657e-23)
(1.20313 0.088642 -1.91031e-23)
(1.17219 0.0870562 -8.8796e-24)
(1.17514 0.0862152 7.93922e-24)
(1.17808 0.08537 -2.35791e-24)
(1.18101 0.0845204 2.72995e-24)
(1.18394 0.0836666 -2.65799e-24)
(1.18685 0.0828086 2.02157e-24)
(1.18974 0.0819463 -1.50188e-23)
(1.19263 0.0810797 -9.33207e-23)
(1.1955 0.0802087 6.08329e-23)
(1.16663 0.0776996 -1.64189e-24)
(1.16938 0.0769789 1.70295e-23)
(1.17212 0.0762554 9.28372e-24)
(1.17485 0.0755291 -5.5847e-24)
(1.17756 0.0748 -1.54208e-23)
(1.18027 0.0740681 2.73688e-25)
(1.18296 0.0733334 -1.76991e-23)
(1.18564 0.0725957 2.58786e-23)
(1.1883 0.071855 -7.20695e-23)
(1.1614 0.0685047 7.53952e-25)
(1.16396 0.0678934 1.0065e-23)
(1.16651 0.0672804 -2.1625e-23)
(1.16906 0.0666657 1.0803e-23)
(1.17159 0.0660493 2.74631e-23)
(1.17411 0.0654311 -2.38807e-23)
(1.17661 0.064811 2.05442e-23)
(1.1791 0.0641891 -1.75176e-24)
(1.18158 0.0635651 3.4643e-23)
(1.15652 0.0594363 1.11999e-23)
(1.15893 0.0589249 -2.35129e-23)
(1.16132 0.0584127 -1.63139e-23)
(1.1637 0.0578996 2.54685e-23)
(1.16607 0.0573854 4.86854e-24)
(1.16842 0.0568703 3.99232e-23)
(1.17076 0.0563539 -7.71189e-25)
(1.17308 0.0558363 -1.60261e-23)
(1.17538 0.0553174 1.21416e-23)
(1.15208 0.0504548 7.54048e-25)
(1.15434 0.0500353 -7.11147e-24)
(1.15659 0.0496154 9.20982e-25)
(1.15883 0.0491952 -1.50921e-23)
(1.16105 0.0487745 -8.06986e-23)
(1.16326 0.0483532 5.82214e-23)
(1.16545 0.0479312 -2.54668e-23)
(1.16762 0.0475084 6.59779e-24)
(1.16977 0.0470845 4.06561e-23)
(1.14814 0.0415117 -1.11481e-23)
(1.15028 0.0411774 2.60891e-23)
(1.1524 0.040843 -4.71321e-24)
(1.15452 0.0405087 4.77527e-23)
(1.15661 0.0401741 -2.45495e-23)
(1.15869 0.0398393 -2.0474e-23)
(1.16076 0.0395041 -4.25436e-23)
(1.1628 0.0391682 9.14247e-24)
(1.16482 0.0388315 1.78153e-23)
(1.14477 0.0325532 -1.26329e-23)
(1.14681 0.0322986 6.27463e-24)
(1.14883 0.0320441 1.75722e-23)
(1.15084 0.0317897 -4.54922e-23)
(1.15283 0.0315353 7.03724e-23)
(1.15481 0.0312807 -4.69163e-23)
(1.15676 0.0310259 -1.56441e-23)
(1.1587 0.0307705 7.25664e-23)
(1.16061 0.0305144 3.0102e-23)
(1.14207 0.0235072 -1.85425e-24)
(1.14402 0.0233288 3.16992e-23)
(1.14597 0.0231507 -1.0411e-23)
(1.14789 0.0229727 6.77524e-23)
(1.1498 0.0227947 -7.13601e-23)
(1.15169 0.0226166 -1.39291e-23)
(1.15356 0.0224382 -2.90575e-23)
(1.1554 0.0222593 7.67737e-23)
(1.15723 0.0220798 -1.27959e-22)
(1.14014 0.014304 -2.50033e-25)
(1.14204 0.0141978 -7.51756e-24)
(1.14392 0.0140918 -8.55901e-24)
(1.14578 0.0139858 2.99069e-23)
(1.14762 0.0138797 -5.24898e-23)
(1.14945 0.0137735 5.24397e-23)
(1.15126 0.0136669 -5.13356e-23)
(1.15305 0.0135599 2.45349e-23)
(1.15481 0.0134524 3.85354e-23)
(1.13907 0.00481874 -8.88252e-25)
(1.14093 0.00478779 2.49853e-23)
(1.14277 0.00475682 -5.06552e-23)
(1.1446 0.00472571 -4.04715e-23)
(1.14641 0.00469436 3.04508e-23)
(1.1482 0.00466266 -3.15403e-23)
(1.14997 0.0046305 4.02022e-23)
(1.15173 0.00459777 1.07405e-23)
(1.15346 0.00456436 1.44564e-23)
(0.954493 0.41381 2.76963e-21)
(0.979156 0.419486 -1.99652e-21)
(1.00272 0.424543 6.42068e-21)
(1.02571 0.428262 -1.35802e-21)
(1.04861 0.430501 1.41329e-22)
(1.07115 0.431259 -2.41295e-22)
(1.09312 0.430526 9.38864e-22)
(1.11443 0.428307 5.05171e-22)
(1.13495 0.424628 -1.92473e-23)
(1.15458 0.419523 -7.51734e-22)
(1.17319 0.413033 -9.45816e-22)
(1.19055 0.405174 1.16897e-21)
(1.20663 0.395921 -3.00609e-21)
(1.22136 0.385415 -9.22926e-22)
(1.23446 0.373688 1.7495e-21)
(1.24577 0.360767 -2.407e-21)
(1.25516 0.346697 4.46924e-22)
(1.26244 0.331529 1.58635e-22)
(1.26743 0.315315 9.47476e-22)
(1.26996 0.298116 1.58787e-22)
(0.977491 0.395809 -4.31834e-21)
(1.00052 0.399519 3.20223e-21)
(1.0221 0.402705 -8.01786e-21)
(1.04259 0.405029 -7.07506e-21)
(1.06301 0.406319 -6.14028e-22)
(1.08325 0.406535 6.17494e-22)
(1.10309 0.405643 -7.13361e-22)
(1.12247 0.403619 -1.1643e-21)
(1.14128 0.400457 2.5037e-22)
(1.15944 0.396159 4.42619e-22)
(1.17682 0.390729 -1.0802e-22)
(1.19326 0.384175 -1.19439e-21)
(1.20873 0.376577 1.13889e-21)
(1.22314 0.367958 -8.6815e-22)
(1.23624 0.358288 2.40121e-22)
(1.24792 0.34759 -5.8807e-22)
(1.25806 0.335896 2.46707e-21)
(1.26649 0.323235 -5.12304e-22)
(1.27305 0.309641 -7.96094e-22)
(1.27757 0.295147 4.58823e-24)
(0.998893 0.378456 -2.2675e-21)
(1.01953 0.381259 -4.77414e-21)
(1.03893 0.383216 2.02348e-21)
(1.05723 0.384387 5.43188e-21)
(1.07546 0.384728 -1.41035e-21)
(1.09359 0.384231 1.69591e-24)
(1.11144 0.382897 -9.61413e-22)
(1.12892 0.380718 -1.0741e-21)
(1.14599 0.377685 -4.78495e-22)
(1.16256 0.373801 -2.47825e-23)
(1.17855 0.369067 1.01755e-21)
(1.19384 0.363501 -1.40802e-22)
(1.20845 0.357149 -2.51781e-22)
(1.22229 0.349888 1.00115e-22)
(1.23508 0.341806 -1.93161e-21)
(1.24679 0.332922 -1.30141e-21)
(1.25731 0.323237 -1.04061e-21)
(1.2665 0.312753 -2.72954e-22)
(1.27422 0.301479 -5.86503e-22)
(1.28031 0.289428 -2.92185e-22)
(1.01845 0.361107 -4.22251e-21)
(1.03693 0.362817 6.46406e-21)
(1.05433 0.363734 -3.0152e-21)
(1.07069 0.363996 1.77875e-22)
(1.08695 0.363606 -8.05377e-22)
(1.10313 0.362561 1.82273e-21)
(1.11906 0.360874 7.96382e-22)
(1.13471 0.358547 1.90864e-21)
(1.15003 0.355584 1.21063e-22)
(1.16499 0.351986 1.91923e-22)
(1.17954 0.347759 -4.90509e-22)
(1.19361 0.342915 1.1481e-21)
(1.20704 0.337475 -8.40328e-23)
(1.21988 0.331328 -9.66897e-22)
(1.23212 0.324562 2.90174e-21)
(1.24355 0.317182 1.34306e-21)
(1.25409 0.309175 -3.74659e-22)
(1.26362 0.300531 5.39662e-22)
(1.27204 0.291244 9.18592e-22)
(1.27922 0.281308 1.10191e-22)
(1.03568 0.343635 7.3273e-21)
(1.05223 0.344426 -4.84021e-21)
(1.06779 0.344553 1.785e-21)
(1.08244 0.344148 -1.51851e-21)
(1.09696 0.343227 9.09403e-22)
(1.11141 0.341787 -7.99286e-22)
(1.12564 0.339842 6.52359e-22)
(1.13962 0.337406 -1.02659e-21)
(1.15334 0.334484 6.74813e-22)
(1.16677 0.331085 -1.55193e-22)
(1.17989 0.327213 -5.13422e-24)
(1.19265 0.322865 -4.40791e-22)
(1.20498 0.318041 2.86704e-22)
(1.21687 0.312796 -2.72943e-22)
(1.22831 0.307102 -8.49632e-22)
(1.23917 0.300929 1.88827e-23)
(1.24939 0.294272 -2.25917e-22)
(1.25889 0.287125 -9.34084e-22)
(1.26759 0.279476 -3.5304e-22)
(1.27538 0.271313 -4.142e-23)
(1.05072 0.325947 2.32211e-22)
(1.0655 0.326069 3.97883e-21)
(1.07939 0.325642 1.22149e-21)
(1.0925 0.32478 2.87791e-21)
(1.10549 0.323505 -4.59632e-23)
(1.11839 0.321815 5.552e-22)
(1.13111 0.319723 -1.59912e-21)
(1.14361 0.317245 -7.85886e-22)
(1.1559 0.314393 -6.51461e-22)
(1.16795 0.311178 -5.63142e-23)
(1.17974 0.307609 1.17181e-22)
(1.19126 0.303695 -1.96897e-23)
(1.20247 0.299444 9.91334e-23)
(1.2134 0.29488 7.21734e-22)
(1.224 0.289947 -6.14826e-22)
(1.23416 0.28467 -2.13851e-22)
(1.24387 0.279049 5.89894e-22)
(1.25308 0.273073 6.65457e-22)
(1.26173 0.266727 -4.89294e-22)
(1.26974 0.259993 2.07476e-23)
(1.06373 0.308223 -3.90069e-21)
(1.07691 0.307857 -3.19093e-21)
(1.08928 0.307043 6.67526e-22)
(1.101 0.305878 1.201e-21)
(1.11261 0.30438 -2.36594e-21)
(1.12415 0.302552 -3.24405e-21)
(1.13553 0.300405 -1.39055e-21)
(1.14672 0.297953 2.17066e-21)
(1.15774 0.295209 3.12325e-22)
(1.16856 0.292186 -1.42012e-23)
(1.17919 0.288893 -2.95451e-23)
(1.18961 0.285341 -1.06578e-22)
(1.19981 0.281542 -3.25442e-22)
(1.20973 0.277507 7.58796e-22)
(1.21941 0.273191 2.07564e-22)
(1.22884 0.268627 -4.11761e-22)
(1.23796 0.263822 -4.06935e-22)
(1.24673 0.258763 1.6731e-22)