/*--------------------------------*- C++ -*----------------------------------*\
  =========                 |
  \\      /  F ield         | OpenFOAM: The Open Source CFD Toolbox
   \\    /   O peration     | Website:  https://openfoam.org
    \\  /    A nd           | Version:  7
     \\/     M anipulation  |
\*---------------------------------------------------------------------------*/
FoamFile
{
    version     2.0;
    format      ascii;
    class       volScalarField;
    location    "115";
    object      p;
}
// * * * * * * * * * * * * * * * * * * * * * * * * * * * * * * * * * * * * * //

dimensions      [0 2 -2 0 0 0 0];

internalField   nonuniform List<scalar> 
2125
(
0.649602
0.62704
0.61146
0.647471
0.625019
0.609642
0.58766
0.560354
0.529893
0.497865
0.465471
0.433576
0.402786
0.640331
0.618293
0.603576
0.582295
0.55562
0.525713
0.494167
0.462182
0.43063
0.40023
0.628224
0.6069
0.593296
0.573201
0.547607
0.51865
0.487937
0.456662
0.425715
0.396004
0.611231
0.590911
0.578864
0.560434
0.53636
0.508744
0.479208
0.448939
0.418853
0.390126
0.58947
0.570435
0.560373
0.54407
0.521946
0.496051
0.468029
0.439057
0.410079
0.382613
0.5631
0.545613
0.537943
0.524214
0.504453
0.480648
0.454465
0.427072
0.39944
0.373492
0.532313
0.516619
0.511724
0.500992
0.48399
0.462626
0.438595
0.413052
0.386993
0.362803
0.497337
0.483661
0.481894
0.474555
0.460685
0.442097
0.420513
0.397078
0.372807
0.350589
0.458435
0.446975
0.448656
0.445074
0.434686
0.419185
0.400326
0.379243
0.356959
0.336905
0.415901
0.406829
0.412238
0.412745
0.406157
0.394031
0.378154
0.35965
0.339536
0.321811
0.370058
0.363516
0.372894
0.377781
0.375283
0.366792
0.35413
0.338412
0.320632
0.305373
0.321257
0.317356
0.330896
0.340415
0.342259
0.337636
0.328398
0.315653
0.30035
0.287662
0.269876
0.268692
0.286541
0.300894
0.307298
0.306743
0.301111
0.291503
0.278798
0.268752
0.216313
0.217888
0.24014
0.259485
0.270626
0.274306
0.272435
0.266105
0.256087
0.248716
0.160984
0.165327
0.192023
0.216465
0.232478
0.240524
0.242541
0.239608
0.232337
0.227622
0.104323
0.111407
0.142534
0.172125
0.1931
0.205608
0.21161
0.212178
0.207674
0.205519
0.0467759
0.0565356
0.0920267
0.126763
0.152746
0.16977
0.179823
0.183993
0.182257
0.182432
-0.0112042
0.0011319
0.0408661
0.0806868
0.111676
0.13323
0.147361
0.155243
0.156287
0.158306
-0.0691587
-0.054383
-0.0105764
0.0342077
0.0701564
0.0962126
0.114391
0.126107
0.130145
0.133165
-0.126628
-0.109589
-0.0619245
-0.0123613
0.028452
0.0589547
0.0810895
0.0967094
0.104321
0.106702
-0.183155
-0.164071
-0.112798
-0.0587097
-0.0131755
0.0216921
0.0476297
0.0669488
0.0791464
0.0804526
-0.238281
-0.217419
-0.162819
-0.104534
-0.0544716
-0.0153417
0.0142924
0.0369429
0.053585
0.059984
-0.29157
-0.269199
-0.211626
-0.149542
-0.0951853
-0.0519319
-0.0186523
0.00714063
0.0276613
0.0398998
-0.342805
-0.31889
-0.258922
-0.193454
-0.135071
-0.0878865
-0.0510365
-0.0221888
0.00151528
0.0182148
-0.391399
-0.36625
-0.30459
-0.235992
-0.173893
-0.123029
-0.0827556
-0.0509456
-0.0244953
-0.00442094
-0.436953
-0.410228
-0.348844
-0.276848
-0.211443
-0.157186
-0.113697
-0.0790574
-0.050085
-0.0270942
-0.479263
-0.451319
-0.390343
-0.315737
-0.247537
-0.19018
-0.143723
-0.106428
-0.075111
-0.0494449
-0.518095
-0.489308
-0.428297
-0.352804
-0.281969
-0.221836
-0.172693
-0.13295
-0.099487
-0.0713865
-0.553194
-0.523878
-0.463292
-0.387338
-0.314488
-0.252
-0.200479
-0.158516
-0.123128
-0.0928318
-0.584368
-0.554776
-0.495248
-0.419151
-0.344962
-0.280538
-0.226961
-0.183026
-0.145952
-0.113665
-0.611486
-0.581817
-0.523896
-0.448243
-0.373278
-0.307339
-0.252041
-0.206378
-0.167892
-0.133781
-0.634474
-0.604892
-0.549049
-0.474517
-0.399326
-0.3324
-0.275612
-0.22848
-0.188891
-0.153111
-0.653314
-0.623961
-0.570614
-0.497862
-0.423014
-0.35556
-0.297777
-0.249241
-0.208865
-0.171647
-0.668043
-0.639044
-0.588553
-0.518203
-0.444281
-0.376743
-0.318378
-0.268984
-0.227474
-0.189505
-0.678759
-0.650217
-0.602875
-0.535501
-0.463093
-0.395926
-0.337312
-0.287316
-0.244953
-0.206868
-0.685618
-0.657621
-0.613638
-0.549757
-0.479435
-0.413106
-0.354585
-0.304255
-0.261407
-0.223249
-0.68883
-0.661448
-0.620954
-0.561003
-0.493317
-0.428297
-0.370231
-0.319857
-0.276736
-0.238323
-0.688657
-0.661954
-0.624981
-0.569311
-0.504773
-0.441526
-0.384278
-0.334136
-0.29091
-0.25223
-0.685403
-0.659443
-0.625924
-0.574787
-0.513862
-0.452834
-0.396756
-0.347111
-0.303983
-0.265202
-0.679409
-0.654257
-0.624039
-0.577577
-0.520666
-0.462279
-0.407713
-0.35883
-0.316018
-0.277366
-0.671042
-0.646768
-0.619627
-0.577865
-0.525291
-0.469936
-0.417214
-0.369354
-0.327069
-0.288762
-0.660685
-0.637361
-0.613026
-0.575869
-0.527862
-0.47589
-0.425333
-0.37875
-0.33718
-0.299409
-0.648725
-0.626424
-0.6046
-0.571838
-0.528528
-0.480237
-0.432146
-0.387085
-0.346405
-0.309336
-0.635548
-0.614341
-0.594731
-0.566052
-0.527453
-0.483083
-0.437734
-0.394433
-0.354807
-0.318586
-0.621519
-0.601472
-0.5838
-0.558811
-0.52482
-0.484536
-0.442179
-0.400866
-0.362455
-0.327213
-0.60698
-0.588156
-0.572171
-0.55043
-0.520829
-0.484714
-0.44556
-0.406458
-0.36942
-0.335279
-0.592242
-0.574693
-0.56018
-0.541232
-0.515692
-0.483736
-0.447956
-0.411276
-0.375773
-0.34285
-0.577574
-0.561344
-0.548121
-0.531531
-0.509635
-0.481727
-0.44944
-0.415384
-0.38158
-0.349994
-0.563202
-0.548329
-0.536242
-0.521622
-0.502889
-0.478816
-0.450079
-0.418833
-0.386902
-0.549312
-0.535819
-0.524741
-0.511759
-0.495689
-0.475138
-0.449936
-0.421665
-0.536043
-0.52394
-0.51377
-0.502145
-0.488259
-0.470835
-0.449071
-0.5235
-0.512778
-0.503435
-0.49293
-0.480802
-0.511754
-0.502383
-0.493804
-0.484217
-0.500854
-0.49278
-0.484907
-0.490836
-0.483978
-0.48173
-0.475983
-0.473569
0.126017
0.128677
0.131934
0.138075
0.144189
0.152783
0.160643
0.170395
0.177879
0.186155
0.18907
0.191178
0.182132
0.171607
0.136852
0.126565
0.129272
0.132589
0.138878
0.145155
0.154045
0.16229
0.172644
0.180967
0.190457
0.195046
0.199452
0.193405
0.186788
0.158912
0.127089
0.129832
0.133187
0.139592
0.145996
0.155128
0.163706
0.174583
0.183675
0.194276
0.200481
0.207053
0.204127
0.201031
0.179314
0.127597
0.130377
0.133769
0.140294
0.146824
0.156203
0.165107
0.1765
0.186332
0.197994
0.205741
0.214343
0.214435
0.214678
0.198594
0.128084
0.130908
0.134334
0.140977
0.147631
0.15725
0.16647
0.178358
0.188903
0.201573
0.210808
0.221322
0.224353
0.227795
0.217004
0.12855
0.131389
0.134876
0.141634
0.148405
0.158254
0.167775
0.180131
0.191359
0.204978
0.215649
0.227961
0.233829
0.24034
0.234554
0.128995
0.131878
0.135394
0.142263
0.149144
0.159212
0.169019
0.181818
0.193697
0.208206
0.220253
0.234251
0.242823
0.252276
0.251214
0.129419
0.132345
0.135886
0.142863
0.149848
0.160123
0.170203
0.183416
0.195917
0.211255
0.224611
0.240184
0.25131
0.263566
0.266953
0.129821
0.132785
0.136352
0.143432
0.150515
0.160986
0.171322
0.184922
0.198011
0.214117
0.228709
0.24575
0.259266
0.274175
0.281731
0.130201
0.133201
0.136791
0.14397
0.151145
0.161797
0.172376
0.186333
0.199975
0.216788
0.232538
0.25094
0.266671
0.28407
0.295504
0.130557
0.133592
0.137204
0.144476
0.151736
0.162557
0.173362
0.187645
0.201805
0.219264
0.236086
0.255742
0.273507
0.293218
0.308228
0.130889
0.133958
0.137589
0.144948
0.152286
0.163262
0.174277
0.188857
0.203494
0.22154
0.239345
0.260146
0.27976
0.301591
0.319863
0.131198
0.134298
0.137946
0.145385
0.152795
0.163911
0.17512
0.189965
0.20504
0.223612
0.242306
0.264142
0.285414
0.309165
0.33037
0.131481
0.134611
0.138275
0.145786
0.153262
0.164503
0.175887
0.190968
0.206436
0.225476
0.244962
0.267719
0.290457
0.315917
0.339717
0.13174
0.134896
0.138576
0.14615
0.153685
0.165037
0.176578
0.191864
0.20768
0.227127
0.247305
0.270868
0.294878
0.321827
0.347878
0.131974
0.135155
0.138847
0.146478
0.154065
0.165512
0.17719
0.192652
0.208768
0.228561
0.24933
0.273582
0.298666
0.32688
0.35483
0.132182
0.135387
0.13909
0.146767
0.1544
0.165927
0.177721
0.19333
0.209697
0.229777
0.251032
0.27585
0.301812
0.331061
0.360554
0.132364
0.135587
0.139303
0.147018
0.154689
0.166281
0.178172
0.193896
0.210464
0.23077
0.252406
0.277667
0.304309
0.334361
0.365042
0.13252
0.13576
0.139486
0.147229
0.154933
0.166574
0.178541
0.194354
0.211072
0.231544
0.253458
0.279038
0.306158
0.336777
0.368294
0.132651
0.135903
0.139637
0.147401
0.15513
0.166807
0.178828
0.194701
0.211521
0.2321
0.254191
0.279969
0.307359
0.338292
0.370275
0.0750328
0.0730605
0.0696716
0.0652357
0.0600617
0.0543943
0.048456
0.0424279
0.0364747
0.0307194
0.025264
0.0201656
0.0154661
0.0111687
0.00727294
0.0755403
0.0735735
0.0701986
0.0657718
0.0605968
0.0549095
0.0489335
0.0428493
0.0368271
0.0309909
0.025448
0.0202569
0.0154636
0.0110709
0.0070801
0.0764837
0.0745285
0.0711808
0.0667737
0.0615998
0.0558796
0.0498374
0.0436528
0.0375038
0.0315177
0.0258108
0.0204448
0.015474
0.0109012
0.00673204
0.077796
0.0758593
0.0725554
0.0681832
0.0630191
0.0572613
0.0511344
0.0448153
0.0384925
0.0322974
0.026359
0.0207441
0.0155195
0.0106884
0.00626195
0.0794152
0.0775057
0.0742669
0.0699502
0.0648121
0.0590206
0.0528009
0.046324
0.0397912
0.033337
0.0271081
0.0211771
0.0156278
0.0104639
0.0057046
0.0812847
0.079413
0.0762656
0.0720303
0.0669419
0.0611297
0.0548202
0.0481736
0.0414051
0.0346515
0.0280804
0.0217719
0.0158311
0.0102627
0.00509667
0.0833525
0.0815315
0.0785061
0.0743822
0.0693747
0.0635643
0.0571801
0.0503634
0.0433449
0.0362607
0.0293035
0.0225613
0.0161656
0.0101227
0.00447661
0.0855712
0.0838163
0.0809466
0.0769673
0.0720791
0.0663024
0.0598705
0.0528955
0.0456244
0.0381879
0.0308087
0.0235818
0.0166713
0.0100847
0.00388494
0.0878978
0.0862269
0.0835479
0.0797482
0.0750245
0.0693224
0.0628821
0.0557724
0.0482583
0.0404586
0.0326299
0.0248733
0.0173908
0.0101923
0.00336452
0.0902932
0.088727
0.086273
0.082689
0.0781811
0.0726024
0.0662045
0.0589959
0.0512615
0.0430989
0.034803
0.0264776
0.0183701
0.0104921
0.00296081
0.0927227
0.0912846
0.0890867
0.0857552
0.0815187
0.0761192
0.0698257
0.0625655
0.0546472
0.0461344
0.0373646
0.0284389
0.0196573
0.0110332
0.00272206
0.0951559
0.0938713
0.0919551
0.0889142
0.0850071
0.079848
0.0737305
0.0664773
0.0584263
0.0495895
0.0403513
0.0308024
0.021303
0.0118677
0.00269946
0.0975667
0.0964616
0.0948461
0.0921353
0.0886152
0.0837621
0.0779003
0.0707236
0.0626061
0.0534859
0.0437987
0.0336136
0.0233599
0.0130505
0.00294732
0.0999331
0.0990331
0.0977297
0.0953906
0.092311
0.0878335
0.0823124
0.0752919
0.0671895
0.0578415
0.0477405
0.0369184
0.0258819
0.0146388
0.00352314
0.102237
0.101566
0.100579
0.0986546
0.0960621
0.0920331
0.0869395
0.080165
0.0721739
0.0626691
0.0522073
0.0407614
0.0289241
0.0166926
0.00448775
0.104465
0.104041
0.10337
0.101904
0.0998361
0.0963313
0.0917498
0.0853213
0.0775501
0.0679758
0.057226
0.0451853
0.0325421
0.019274
0.00590536
0.106606
0.106442
0.106084
0.105116
0.103601
0.100698
0.096707
0.0907352
0.0833011
0.073762
0.0628181
0.0502296
0.0367912
0.0224471
0.00784346
0.108652
0.108757
0.108705
0.108272
0.107328
0.105104
0.101772
0.0963775
0.0894013
0.0800216
0.0689988
0.0559293
0.041726
0.0262775
0.0103725
0.110598
0.110973
0.111222
0.111352
0.110989
0.109518
0.106903
0.102216
0.0958162
0.0867422
0.0757744
0.0623136
0.0473993
0.0308313
0.0135655
0.112441
0.113081
0.113625
0.114338
0.114563
0.113908
0.11206
0.108213
0.102503
0.0939055
0.0831402
0.069406
0.0538617
0.0361731
0.0174967
0.114178
0.115076
0.115909
0.117214
0.118029
0.118245
0.117203
0.114329
0.109413
0.101487
0.0910786
0.0772249
0.0611587
0.0423641
0.0222406
0.115809
0.116953
0.118071
0.119968
0.121372
0.122496
0.122295
0.120518
0.116492
0.109453
0.0995583
0.0857856
0.0693298
0.0494633
0.0278709
0.117336
0.118711
0.120109
0.122588
0.12458
0.126633
0.127304
0.126729
0.123686
0.117762
0.108535
0.0950989
0.0784049
0.0575347
0.0344653
0.118759
0.12035
0.122023
0.125066
0.127643
0.130629
0.132201
0.13291
0.130943
0.126356
0.117953
0.105166
0.0883974
0.0666569
0.042122
0.120083
0.121873
0.123814
0.127399
0.130553
0.134461
0.136959
0.139007
0.138208
0.135166
0.127752
0.115972
0.0992884
0.0769159
0.0509674
0.121308
0.123283
0.125484
0.129583
0.133304
0.138113
0.141555
0.144969
0.145435
0.144112
0.137876
0.127487
0.111017
0.0883567
0.0610685
0.122441
0.124584
0.127036
0.13162
0.135897
0.141574
0.145974
0.150758
0.152581
0.153111
0.148274
0.139665
0.123517
0.100928
0.0721714
0.123483
0.12578
0.128472
0.133512
0.138328
0.144837
0.1502
0.156333
0.159602
0.16206
0.158882
0.152413
0.13683
0.114632
0.08347
0.124441
0.126874
0.129792
0.135251
0.140581
0.147872
0.154183
0.16162
0.166389
0.170802
0.169563
0.165596
0.151268
0.130299
0.094679
0.125318
0.127875
0.130989
0.136827
0.142613
0.150627
0.157818
0.166513
0.172777
0.179223
0.180181
0.179291
0.167446
0.150669
0.110346
0.00477099
0.00346753
0.00217368
0.000893282
-0.0003762
-0.00163644
-0.0028868
-0.00412554
-0.00535094
-0.00656163
-0.00775645
-0.00893428
-0.010094
-0.0112345
-0.0123546
-0.0134533
-0.0145296
-0.0155825
-0.0166109
-0.0176138
0.00451791
0.00319804
0.00189599
0.000606864
-0.000675049
-0.0019508
-0.00321844
-0.00447558
-0.00572049
-0.00695193
-0.00816877
-0.00936982
-0.0105538
-0.0117195
-0.0128656
-0.013991
-0.0150945
-0.016175
-0.0172315
-0.018263
0.00405167
0.00268767
0.00135559
3.49092e-05
-0.00128456
-0.00260196
-0.00391269
-0.00521324
-0.00650183
-0.00777744
-0.00903904
-0.0102853
-0.0115148
-0.0127261
-0.0139179
-0.0150889
-0.0162378
-0.0173635
-0.0184646
-0.0195396
0.0034067
0.00197193
0.000590805
-0.000779544
-0.00215607
-0.00353532
-0.00490906
-0.00627223
-0.00762316
-0.00896128
-0.0102857
-0.0115951
-0.0128878
-0.0141623
-0.0154171
-0.016651
-0.0178626
-0.0190507
-0.0202139
-0.0213507
0.00262033
0.00108877
-0.000360623
-0.00179921
-0.00325288
-0.00471495
-0.00617251
-0.00761859
-0.00905171
-0.0104719
-0.0118786
-0.0132703
-0.0146453
-0.0160019
-0.0173386
-0.0186539
-0.0199467
-0.0212153
-0.022458
-0.0236736
0.00173006
7.50856e-05
-0.00146306
-0.00298947
-0.00454107
-0.00610737
-0.00766984
-0.0092193
-0.0107546
-0.0122765
-0.0137848
-0.015278
-0.016754
-0.0182112
-0.0196478
-0.0210626
-0.0224541
-0.0238212
-0.025163
-0.0264787
0.000774139
-0.00103235
-0.00268177
-0.00431727
-0.00598883
-0.00768182
-0.0093713
-0.0110456
-0.012704
-0.0143484
-0.0159788
-0.0175937
-0.0191908
-0.0207682
-0.0223244
-0.023858
-0.0253677
-0.0268521
-0.02831
-0.0297409
-0.000207807
-0.00219607
-0.00398229
-0.0057505
-0.00756584
-0.00940946
-0.0112494
-0.0130715
-0.0148754
-0.0166641
-0.0184383
-0.020196
-0.0219351
-0.0236533
-0.0253493
-0.0270216
-0.0286688
-0.0302898
-0.0318832
-0.0334487
-0.00117419
-0.00337735
-0.00532981
-0.00725748
-0.00924266
-0.0112627
-0.0132784
-0.0152727
-0.0172462
-0.019203
-0.0211441
-0.0230676
-0.0249709
-0.0268519
-0.0287092
-0.0305414
-0.0323473
-0.0341255
-0.0358749
-0.0375957
-0.00208109
-0.00453578
-0.00668888
-0.00880663
-0.0109903
-0.0132147
-0.0154335
-0.0176269
-0.0197962
-0.0219467
-0.0240798
-0.0261935
-0.0282851
-0.0303524
-0.0323941
-0.034409
-0.0363957
-0.0383532
-0.0402802
-0.0421776
-0.00288193
-0.00562894
-0.00802305
-0.0103661
-0.0127801
-0.015239
-0.0176906
-0.0201125
-0.0225064
-0.0248786
-0.027231
-0.0295614
-0.0318671
-0.0341461
-0.0363969
-0.0386185
-0.0408099
-0.0429698
-0.045097
-0.0471937
-0.00352714
-0.00661204
-0.00929469
-0.0119036
-0.0145829
-0.0173094
-0.0200264
-0.022709
-0.0253591
-0.0279838
-0.030585
-0.0331609
-0.0357087
-0.0382264
-0.0407129
-0.0431673
-0.0455886
-0.0479755
-0.0503267
-0.0526466
-0.00396393
-0.00743771
-0.0104647
-0.0133861
-0.0163695
-0.0193994
-0.0224175
-0.0253966
-0.0283379
-0.0312486
-0.034131
-0.0369835
-0.0398035
-0.0425894
-0.0453402
-0.0480552
-0.0507332
-0.0533733
-0.0559731
-0.0585413
-0.00413599
-0.00805569
-0.0114925
-0.0147799
-0.01811
-0.0214824
-0.0248409
-0.0281562
-0.0314273
-0.0346609
-0.0378596
-0.0410225
-0.0441476
-0.0472336
-0.0502798
-0.0532854
-0.0562491
-0.059169
-0.0620406
-0.0648831
-0.0039833
-0.00841262
-0.0123354
-0.01605
-0.0197738
-0.0235313
-0.0272739
-0.0309696
-0.0346133
-0.03821
-0.0417631
-0.0452726
-0.0487376
-0.0521575
-0.0555323
-0.0588626
-0.0621483
-0.0653869
-0.0685503
-0.0716909
-0.00344184
-0.00845167
-0.0129487
-0.0171598
-0.0213289
-0.0255183
-0.0296939
-0.0338196
-0.0378835
-0.0418879
-0.0458367
-0.0497319
-0.0535734
-0.0573603
-0.0610918
-0.0647669
-0.0683855
-0.0719494
-0.0754943
-0.0789856
-0.00244351
-0.00811234
-0.0132848
-0.0180706
-0.0227415
-0.0274146
-0.0320781
-0.03669
-0.0412275
-0.0456888
-0.0500798
-0.0544055
-0.058667
-0.0628638
-0.0669954
-0.0710622
-0.0750658
-0.0790098
-0.0829198
-0.0867763
-0.000916216
-0.00733033
-0.0132932
-0.0187405
-0.0239748
-0.0291892
-0.0344029
-0.0395642
-0.0446345
-0.049607
-0.0544914
-0.0592964
-0.064025
-0.0686766
-0.0732508
-0.0777477
-0.0821691
-0.0865157
-0.0908208
-0.0950716
0.00121571
-0.00603771
-0.0129195
-0.0191239
-0.0249883
-0.0308087
-0.0366436
-0.0424254
-0.0480936
-0.0536368
-0.0590704
-0.0644086
-0.0696555
-0.0748096
-0.0798699
-0.0848362
-0.08971
-0.0944884
-0.0992235
-0.103904
0.00403044
-0.0041638
-0.012106
-0.0191698
-0.0257367
-0.0322365
-0.0387743
-0.0452564
-0.051594
-0.0577724
-0.0638167
-0.0697474
-0.0755695
-0.0812808
-0.0868802
-0.0923642
-0.0977251
-0.102954
-0.108152
-0.113302
0.00760583
-0.00163776
-0.0107917
-0.0188211
-0.0261685
-0.0334333
-0.0407687
-0.0480399
-0.0551242
-0.0620087
-0.0687313
-0.0753181
-0.0817732
-0.0880957
-0.0942956
-0.100385
-0.106369
-0.112022
-0.117699
-0.123337
0.012014
0.00160505
-0.00891444
-0.018013
-0.0262247
-0.0343561
-0.0425991
-0.0507571
-0.0586727
-0.0663429
-0.0738219
-0.0811362
-0.0882812
-0.0952457
-0.10202
-0.1086
-0.115
-0.12155
-0.127888
-0.134043
0.017314
0.00561252
-0.00641544
-0.0166728
-0.0258401
-0.0349608
-0.0442361
-0.0533853
-0.0622238
-0.0707725
-0.0791016
-0.0872346
-0.0951603
-0.10287
-0.110367
-0.117662
-0.124771
-0.131825
-0.138726
-0.145443
0.0235504
0.0104121
-0.00323975
-0.0147217
-0.024948
-0.0352047
-0.0456479
-0.0558948
-0.0657559
-0.0752893
-0.0845756
-0.0936267
-0.102425
-0.110965
-0.119246
-0.127268
-0.135024
-0.142717
-0.150258
-0.157584
0.0307573
0.0160207
0.000678291
-0.0120697
-0.0234841
-0.03505
-0.0467984
-0.058248
-0.0692421
-0.0798819
-0.0902417
-0.100314
-0.110076
-0.119532
-0.128694
-0.137568
-0.146024
-0.154419
-0.162627
-0.17057
0.0389394
0.02247
0.00544812
-0.0086008
-0.0213819
-0.0344547
-0.047639
-0.060397
-0.072652
-0.0845378
-0.0961001
-0.107305
-0.118125
-0.128548
-0.138571
-0.148207
-0.157766
-0.167025
-0.175922
-0.184487
0.0479655
0.0297755
0.0112216
-0.00416916
-0.0185628
-0.0333598
-0.0481026
-0.0622891
-0.0759589
-0.0892473
-0.102154
-0.114629
-0.126649
-0.138202
-0.14928
-0.159888
-0.1704
-0.180531
-0.190186
-0.199423
0.057315
0.0377097
0.0180685
0.00135646
-0.0149253
-0.0316418
-0.0480589
-0.0638331
-0.0791088
-0.0939747
-0.108386
-0.122294
-0.13568
-0.14852
-0.16079
-0.172433
-0.183937
-0.19499
-0.205471
-0.215445
0.06597
0.0454263
0.0256228
0.00774603
-0.0105816
-0.0292597
-0.0474356
-0.0649922
-0.0820803
-0.0987023
-0.114792
-0.130318
-0.145271
-0.15961
-0.173231
-0.186145
-0.198685
-0.210613
-0.221899
-0.23263
0.0734555
0.0525512
0.0335756
0.014578
-0.0055668
-0.0259037
-0.0457919
-0.0652279
-0.0842388
-0.102738
-0.120637
-0.137888
-0.154459
-0.170319
-0.185469
-0.200555
-0.214551
-0.227465
-0.23959
-0.251082
-0.0185911
-0.019542
-0.0204653
-0.0213604
-0.0222266
-0.0230633
-0.02387
-0.0246461
-0.0253914
-0.0192685
-0.0202469
-0.0211975
-0.0221196
-0.0230122
-0.0238748
-0.0247067
-0.0255074
-0.0262763
-0.0205886
-0.0216106
-0.0226042
-0.0235686
-0.024503
-0.0254067
-0.026279
-0.0271195
-0.0279275
-0.0224612
-0.0235445
-0.024599
-0.0256237
-0.0266178
-0.0275807
-0.0285118
-0.0294104
-0.0302762
-0.0248628
-0.026025
-0.0271581
-0.0282606
-0.0293317
-0.0303711
-0.0313781
-0.0323522
-0.033293
-0.0277659
-0.0290232
-0.0302504
-0.031447
-0.0326123
-0.0337454
-0.0348458
-0.0359129
-0.0369464
-0.0311429
-0.0325149
-0.0338561
-0.035166
-0.0364439
-0.0376893
-0.0389016
-0.0400803
-0.0412252
-0.034985
-0.0364906
-0.0379648
-0.0394069
-0.0408167
-0.0421934
-0.0435368
-0.0448465
-0.0461223
-0.0392864
-0.0409456
-0.0425727
-0.0441672
-0.0457288
-0.047257
-0.0487518
-0.0502128
-0.0516401
-0.0440441
-0.0458783
-0.0476794
-0.0494473
-0.0511818
-0.0528828
-0.0545502
-0.0561842
-0.0577848
-0.0492587
-0.0512904
-0.053288
-0.0552515
-0.0571813
-0.0590774
-0.0609401
-0.0627697
-0.0645667
-0.054934
-0.0571868
-0.0594044
-0.0615871
-0.0637356
-0.0658504
-0.0679321
-0.0699813
-0.0610767
-0.0635759
-0.0660382
-0.0684644
-0.070856
-0.073214
-0.0755393
-0.077833
-0.0676942
-0.0704674
-0.0732008
-0.0758962
-0.0785563
-0.0811827
-0.0837772
-0.0863412
-0.074803
-0.0778754
-0.0809058
-0.0838967
-0.0868511
-0.089772
-0.0926616
-0.0955221
-0.0824253
-0.0858193
-0.0891712
-0.0924834
-0.0957587
-0.0990001
-0.102211
-0.105394
-0.0905751
-0.0943211
-0.098021
-0.10168
-0.105301
-0.108888
-0.112445
-0.115976
-0.0992602
-0.103389
-0.107466
-0.111498
-0.115491
-0.11945
-0.123379
-0.127283
-0.108515
-0.113056
-0.117537
-0.121969
-0.126358
-0.130711
-0.135034
-0.139334
-0.11837
-0.123352
-0.128263
-0.133118
-0.137926
-0.142694
-0.147431
-0.152145
-0.128877
-0.134319
-0.139681
-0.144979
-0.150223
-0.155423
-0.160589
-0.165731
-0.140069
-0.145992
-0.151826
-0.157584
-0.163279
-0.168922
-0.174526
-0.180105
-0.151999
-0.158425
-0.164745
-0.170975
-0.177127
-0.183217
-0.189259
-0.195272
-0.164703
-0.171657
-0.178479
-0.185188
-0.191801
-0.198335
-0.204807
-0.21124
-0.178265
-0.185759
-0.193088
-0.200275
-0.207341
-0.214306
-0.221192
-0.228025
-0.192768
-0.200806
-0.208637
-0.216287
-0.223779
-0.231142
-0.238404
-0.245596
-0.208312
-0.216901
-0.225222
-0.233304
-0.241178
-0.248878
-0.25644
-0.263904
-0.224992
-0.234154
-0.242966
-0.251459
-0.259672
-0.267644
-0.275419
-0.283041
-0.242864
-0.252627
-0.261943
-0.270847
-0.27938
-0.287586
-0.295514
-0.303211
-0.261977
-0.27229
-0.282049
-0.291288
-0.300051
-0.308386
-0.316347
-0.323989
)
;

boundaryField
{
    inlet
    {
        type            zeroGradient;
    }
    outlet
    {
        type            fixedValue;
        value           nonuniform 0();
    }
    cylinder
    {
        type            zeroGradient;
    }
    top
    {
        type            symmetryPlane;
    }
    bottom
    {
        type            symmetryPlane;
    }
    defaultFaces
    {
        type            empty;
    }
    procBoundary0to1
    {
        type            processor;
        value           nonuniform List<scalar> 
50
(
-0.356779
-0.356779
-0.391792
-0.391792
-0.423911
-0.466056
-0.423911
-0.447542
-0.466056
-0.473483
-0.473483
-0.476065
-0.476065
-0.476754
-0.476754
-0.469343
-0.468799
-0.468799
-0.466389
-0.0261052
-0.0270129
-0.0287027
-0.0311087
-0.0342001
-0.037946
-0.042336
-0.0473642
-0.0530338
-0.0593524
-0.0663316
-0.0719989
-0.0719989
-0.0800965
-0.0888767
-0.0983561
-0.108553
-0.119486
-0.131169
-0.143618
-0.156845
-0.170859
-0.18567
-0.20127
-0.21765
-0.234823
-0.252745
-0.271309
-0.29056
-0.310733
-0.331368
)
;
    }
    procBoundary0to2
    {
        type            processor;
        value           nonuniform List<scalar> 
26
(
0.646721
0.624351
0.609029
0.589271
0.589271
0.561783
0.531169
0.499013
0.466512
0.434529
0.403638
0.132755
0.136014
0.139756
0.147532
0.155278
0.166972
0.179024
0.194923
0.211784
0.232404
0.254529
0.280369
0.307839
0.338831
0.370878
)
;
    }
}


// ************************************************************************* //
