/*--------------------------------*- C++ -*----------------------------------*\
  =========                 |
  \\      /  F ield         | OpenFOAM: The Open Source CFD Toolbox
   \\    /   O peration     | Website:  https://openfoam.org
    \\  /    A nd           | Version:  7
     \\/     M anipulation  |
\*---------------------------------------------------------------------------*/
FoamFile
{
    version     2.0;
    format      ascii;
    class       volVectorField;
    location    "115";
    object      U;
}
// * * * * * * * * * * * * * * * * * * * * * * * * * * * * * * * * * * * * * //

dimensions      [0 1 -1 0 0 0 0];

internalField   nonuniform List<vector> 
2125
(
(0.0185895 0.000538346 1.69764e-21)
(0.0845009 -0.000269491 -4.66834e-21)
(0.184976 -0.00190548 -5.28829e-21)
(0.0191185 -0.0272761 -1.68582e-21)
(0.0855016 -0.0512723 4.63754e-21)
(0.186148 -0.0571434 5.25879e-21)
(0.2812 -0.054976 -5.03399e-21)
(0.366814 -0.0505853 4.43033e-21)
(0.443103 -0.0461969 2.21786e-21)
(0.510913 -0.0422422 -3.54043e-21)
(0.571259 -0.0387075 -4.11123e-21)
(0.624934 -0.035523 6.05511e-22)
(0.672637 -0.0326226 -1.71029e-21)
(0.0217675 -0.0549469 1.84926e-21)
(0.0902626 -0.102058 -5.52499e-21)
(0.191322 -0.112171 1.23328e-20)
(0.28609 -0.10641 -1.08315e-20)
(0.371226 -0.0964476 -5.17974e-22)
(0.44705 -0.0867025 -7.21476e-21)
(0.514446 -0.0780142 1.17179e-20)
(0.57444 -0.0703232 1.59274e-20)
(0.627829 -0.0634603 2.84106e-21)
(0.675197 -0.0572968 -6.11884e-21)
(0.0265106 -0.0822305 -1.56891e-21)
(0.0987484 -0.152259 -1.16043e-20)
(0.200469 -0.166639 -2.70379e-20)
(0.29466 -0.157361 2.34131e-20)
(0.378892 -0.141893 4.81409e-21)
(0.453842 -0.126846 4.27149e-21)
(0.520467 -0.113469 -2.10231e-20)
(0.579806 -0.101659 -1.24134e-20)
(0.632658 -0.0911466 -2.77032e-21)
(0.679393 -0.0817564 1.88913e-20)
(0.0332967 -0.108887 -5.52246e-21)
(0.110889 -0.20151 6.99655e-21)
(0.213523 -0.220203 4.88271e-20)
(0.306858 -0.207532 -4.40589e-21)
(0.389766 -0.186672 -1.25684e-20)
(0.463442 -0.166411 9.00148e-21)
(0.528943 -0.148421 6.60328e-22)
(0.587328 -0.132554 3.1685e-21)
(0.639397 -0.118439 -6.95668e-21)
(0.685222 -0.105875 -1.83725e-20)
(0.0420504 -0.134682 -3.7086e-21)
(0.126579 -0.249453 2.02254e-20)
(0.230392 -0.272523 -4.90088e-20)
(0.322608 -0.256634 2.11952e-20)
(0.403785 -0.230538 2.08482e-22)
(0.475795 -0.205188 -2.69393e-20)
(0.539826 -0.182689 1.19317e-20)
(0.596965 -0.16285 -1.12604e-21)
(0.648011 -0.145204 4.52651e-21)
(0.692659 -0.129544 -1.32632e-21)
(0.0526723 -0.15939 -4.23824e-20)
(0.14568 -0.295742 -5.0775e-20)
(0.250951 -0.32327 1.33836e-20)
(0.341805 -0.304385 -2.429e-20)
(0.420864 -0.273252 -6.82487e-21)
(0.490827 -0.242972 1.02748e-20)
(0.553054 -0.216095 3.79815e-21)
(0.608659 -0.192395 1.40761e-20)
(0.658448 -0.171304 -3.0294e-21)
(0.701673 -0.15265 1.63896e-20)
(0.0650399 -0.182795 4.05092e-20)
(0.168023 -0.34004 2.60862e-20)
(0.275047 -0.372123 -1.96345e-20)
(0.364325 -0.350511 3.31211e-20)
(0.440897 -0.314582 -2.77353e-21)
(0.50845 -0.279563 -3.5924e-20)
(0.56855 -0.248468 6.29362e-21)
(0.622344 -0.221039 -3.82715e-20)
(0.670649 -0.196611 1.51107e-21)
(0.712222 -0.175077 1.38676e-20)
(0.0790087 -0.204695 -2.9738e-20)
(0.193402 -0.382029 5.33974e-20)
(0.302496 -0.418775 2.10018e-20)
(0.390016 -0.39475 -2.61963e-20)
(0.46376 -0.354306 3.16381e-22)
(0.528557 -0.314771 6.60754e-20)
(0.586222 -0.279644 2.95248e-21)
(0.637937 -0.248643 2.93097e-20)
(0.684542 -0.220998 3.57007e-20)
(0.724257 -0.196713 -2.00136e-20)
(0.0944132 -0.224901 1.66498e-20)
(0.221585 -0.421405 -8.01162e-21)
(0.333089 -0.462934 -1.89463e-20)
(0.418705 -0.436849 1.4099e-20)
(0.489309 -0.392212 5.49672e-20)
(0.551027 -0.348415 -1.94633e-20)
(0.605965 -0.309468 -3.237e-21)
(0.655348 -0.275071 -4.21758e-20)
(0.700048 -0.244349 -5.2155e-20)
(0.737722 -0.217451 2.28476e-20)
(0.111069 -0.243241 -2.17059e-20)
(0.252308 -0.457886 -1.9061e-20)
(0.366586 -0.504325 3.29376e-21)
(0.450198 -0.476575 -7.47111e-20)
(0.517384 -0.428102 -3.18236e-20)
(0.575722 -0.380326 -2.33387e-20)
(0.627663 -0.337794 -3.06795e-20)
(0.674474 -0.300199 1.43349e-20)
(0.717078 -0.266553 1.7065e-20)
(0.752555 -0.237187 2.54409e-20)
(0.128772 -0.259563 4.76913e-21)
(0.28528 -0.491212 2.71501e-20)
(0.402726 -0.542692 2.00715e-20)
(0.484277 -0.513708 3.4453e-20)
(0.547806 -0.461791 2.72777e-20)
(0.602493 -0.410347 -2.59919e-20)
(0.651187 -0.364487 2.43573e-20)
(0.695204 -0.323913 1.68413e-20)
(0.735535 -0.287511 -1.96138e-21)
(0.768687 -0.255825 -7.68615e-21)
(0.147306 -0.273735 4.74147e-20)
(0.320185 -0.52115 -2.36014e-20)
(0.44122 -0.5778 -1.83968e-20)
(0.520709 -0.548045 -1.06976e-20)
(0.580382 -0.49311 2.0123e-20)
(0.631176 -0.438334 1.8438e-20)
(0.676396 -0.389423 -2.58216e-20)
(0.717416 -0.346107 1.98638e-20)
(0.755315 -0.307132 8.90776e-22)
(0.786047 -0.273274 1.84931e-20)
(0.166437 -0.285646 -3.22939e-20)
(0.356682 -0.547491 -1.2137e-20)
(0.481759 -0.609438 -1.93343e-21)
(0.559238 -0.579404 1.95898e-20)
(0.614905 -0.521906 -3.90655e-21)
(0.661597 -0.464157 -1.96506e-20)
(0.703141 -0.412493 5.5418e-21)
(0.74098 -0.366691 5.94142e-21)
(0.77631 -0.325341 1.42931e-20)
(0.804558 -0.289454 -2.84136e-20)
(0.185922 -0.295209 -1.15586e-20)
(0.394409 -0.570056 2.82538e-20)
(0.524011 -0.637419 2.25957e-20)
(0.599595 -0.607621 -1.05583e-20)
(0.651154 -0.548044 -2.43635e-20)
(0.69357 -0.487702 -1.79745e-20)
(0.731263 -0.433597 2.11753e-20)
(0.765757 -0.385583 -4.27064e-20)
(0.798401 -0.342073 1.08403e-20)
(0.824146 -0.304298 2.99422e-20)
(0.205507 -0.302362 2.47258e-20)
(0.432984 -0.588699 -1.50064e-20)
(0.567625 -0.661581 2.93718e-21)
(0.641493 -0.632557 3.71155e-22)
(0.688898 -0.571408 -5.57342e-21)
(0.726901 -0.508873 3.01586e-20)
(0.760595 -0.452654 -2.69937e-20)
(0.791599 -0.402717 2.6241e-20)
(0.821467 -0.357285 -4.00248e-20)
(0.844738 -0.31776 -1.51299e-20)
(0.224933 -0.307071 1.15861e-22)
(0.472008 -0.603304 -1.48825e-20)
(0.612233 -0.68179 3.13924e-22)
(0.684632 -0.654092 -5.25423e-21)
(0.727892 -0.591901 -3.25734e-21)
(0.76139 -0.527588 9.32518e-23)
(0.790965 -0.469591 -1.697e-20)
(0.818342 -0.418032 -1.16781e-21)
(0.845364 -0.370935 2.41763e-20)
(0.86627 -0.329801 -3.05253e-20)
(0.243934 -0.309327 5.36524e-21)
(0.511071 -0.613793 8.21007e-21)
(0.657451 -0.697941 -1.17429e-20)
(0.728698 -0.672131 -4.43776e-21)
(0.767886 -0.609445 4.2681e-20)
(0.796829 -0.543784 -3.60386e-20)
(0.822201 -0.484358 3.75078e-20)
(0.845821 -0.431497 8.74518e-22)
(0.86993 -0.383057 7.46914e-21)
(0.888701 -0.340506 2.80628e-20)
(0.262247 -0.309149 2.84258e-21)
(0.549749 -0.620121 -4.10536e-21)
(0.702881 -0.709957 3.0354e-21)
(0.773368 -0.686603 2.91123e-21)
(0.80862 -0.623984 -3.2341e-21)
(0.833007 -0.557414 1.4515e-20)
(0.854134 -0.4969 -8.30564e-21)
(0.873867 -0.443019 9.40127e-21)
(0.894939 -0.393475 -3.32722e-21)
(0.912008 -0.349705 -1.81213e-21)
(0.279606 -0.306585 -7.86474e-21)
(0.587613 -0.622281 -5.16156e-21)
(0.748115 -0.717792 2.71649e-21)
(0.81831 -0.697462 2.35902e-21)
(0.84983 -0.635482 -9.48698e-21)
(0.869702 -0.568455 2.41798e-20)
(0.886593 -0.507216 -2.20682e-20)
(0.902312 -0.452682 1.64037e-20)
(0.920013 -0.402637 -1.4205e-20)
(0.936041 -0.358681 -1.81497e-20)
(0.295753 -0.301713 -4.37587e-21)
(0.62423 -0.620307 3.80111e-21)
(0.792734 -0.721431 -2.36417e-21)
(0.863182 -0.704689 5.98955e-22)
(0.891247 -0.643925 -1.26019e-21)
(0.906691 -0.576892 -1.62084e-20)
(0.919426 -0.515251 5.59373e-21)
(0.931151 -0.460227 -4.66234e-21)
(0.94494 -0.409451 1.47137e-20)
(0.961231 -0.363991 -4.11806e-21)
(0.310434 -0.29464 -1.02241e-20)
(0.659166 -0.614268 -8.68821e-21)
(0.836312 -0.720887 3.71597e-21)
(0.90764 -0.708289 4.7312e-22)
(0.932605 -0.649318 -1.85011e-21)
(0.943745 -0.582742 1.61363e-21)
(0.952425 -0.521057 4.56446e-21)
(0.960373 -0.465945 -1.02984e-20)
(0.96932 -0.4162 -1.11187e-20)
(0.983887 -0.374611 7.48224e-21)
(0.323423 -0.285509 -8.18723e-21)
(0.691981 -0.604266 1.84803e-20)
(0.878419 -0.716208 -1.37624e-20)
(0.951333 -0.7083 -3.26763e-21)
(0.973637 -0.651689 -5.58468e-21)
(0.980644 -0.586031 3.38364e-21)
(0.985321 -0.524671 -3.68937e-21)
(0.989751 -0.469767 4.21612e-21)
(0.994317 -0.420946 -3.3254e-21)
(1.00398 -0.379387 5.32671e-22)
(0.334568 -0.274516 -2.18587e-20)
(0.722221 -0.590428 -4.29073e-20)
(0.918627 -0.707488 3.48248e-20)
(0.993911 -0.704785 2.50252e-21)
(1.01408 -0.651078 -6.701e-22)
(1.01719 -0.586788 5.93284e-21)
(1.01792 -0.526088 2.50436e-21)
(1.01899 -0.471553 -9.39639e-22)
(1.01996 -0.423424 9.01749e-21)
(1.02464 -0.381985 6.14927e-21)
(0.343623 -0.261703 2.10171e-20)
(0.749452 -0.572877 -9.06473e-21)
(0.956527 -0.694913 -2.58431e-20)
(1.03503 -0.697826 2.40948e-21)
(1.05366 -0.647544 1.57307e-21)
(1.0532 -0.585063 -1.59937e-20)
(1.05008 -0.525351 8.0659e-21)
(1.04788 -0.471396 3.85921e-22)
(1.04586 -0.424016 -8.50202e-22)
(1.04665 -0.383178 -2.04732e-22)
(0.350334 -0.247248 2.61706e-20)
(0.77301 -0.551747 6.53605e-20)
(0.99185 -0.678721 -1.82457e-21)
(1.07435 -0.687517 -4.9426e-21)
(1.09213 -0.641174 -2.5468e-21)
(1.08848 -0.580934 -3.19854e-21)
(1.08171 -0.522543 -9.51058e-21)
(1.07632 -0.469434 3.81997e-21)
(1.07161 -0.422935 6.44723e-21)
(1.06924 -0.382958 -2.56251e-22)
(0.354719 -0.231384 -1.9476e-20)
(0.792679 -0.527662 -1.12951e-20)
(1.0241 -0.659235 4.85624e-20)
(1.11159 -0.673827 7.90461e-22)
(1.12923 -0.632068 -1.78275e-20)
(1.12285 -0.574498 2.85836e-20)
(1.11268 -0.517755 5.95405e-21)
(1.10421 -0.465764 1.85614e-21)
(1.09695 -0.420256 -3.55619e-21)
(1.0917 -0.38128 -3.81936e-21)
(0.356694 -0.21449 4.61918e-20)
(0.808401 -0.50101 -1.03308e-20)
(1.05231 -0.636218 -3.20102e-20)
(1.14641 -0.657003 2.9199e-21)
(1.16471 -0.62038 2.19797e-20)
(1.15611 -0.565859 -7.8085e-21)
(1.14283 -0.511081 -8.66265e-21)
(1.13143 -0.460462 -2.23508e-22)
(1.12174 -0.416049 -4.68994e-21)
(1.11379 -0.378189 2.17802e-21)
(0.356151 -0.196835 -1.64506e-20)
(0.819901 -0.47187 -1.01661e-19)
(1.07623 -0.610052 8.86366e-21)
(1.17835 -0.637399 3.60682e-20)
(1.19831 -0.606158 -1.22382e-21)
(1.18808 -0.555124 -4.35397e-20)
(1.17202 -0.502624 2.38538e-20)
(1.15789 -0.453615 -7.63263e-21)
(1.14591 -0.410409 9.5811e-21)
(1.13544 -0.373788 2.5133e-21)
(0.353027 -0.17867 -1.99751e-20)
(0.826824 -0.440588 3.5635e-20)
(1.09586 -0.581177 4.52471e-20)
(1.20688 -0.615078 -2.68063e-20)
(1.22972 -0.589572 6.7176e-21)
(1.21856 -0.542433 2.62155e-20)
(1.20012 -0.492498 1.03844e-20)
(1.18346 -0.445321 4.10619e-21)
(1.16934 -0.403441 -8.21155e-21)
(1.15656 -0.368176 -7.56566e-21)
(0.347323 -0.160261 -2.69738e-20)
(0.828875 -0.407579 -9.77598e-21)
(1.11087 -0.54984 -8.4183e-20)
(1.23173 -0.59025 -1.13146e-20)
(1.25867 -0.570832 1.53029e-21)
(1.24736 -0.527927 4.14444e-21)
(1.22699 -0.48083 -4.55662e-20)
(1.20805 -0.435687 -2.0348e-20)
(1.19197 -0.395246 4.94296e-22)
(1.17706 -0.36143 6.07225e-21)
(0.339098 -0.141868 -7.32824e-21)
(0.825844 -0.373266 3.20831e-20)
(1.12083 -0.516336 4.24557e-20)
(1.25265 -0.563172 2.40761e-20)
(1.28492 -0.550117 -5.16754e-21)
(1.27436 -0.51177 -4.73542e-21)
(1.25251 -0.467742 3.5698e-20)
(1.23157 -0.424826 3.43219e-20)
(1.21372 -0.385924 4.53417e-21)
(1.19686 -0.353614 -4.52806e-21)
(0.328451 -0.12375 7.00486e-20)
(0.817605 -0.338084 4.37588e-20)
(1.12539 -0.481018 -4.20096e-20)
(1.26931 -0.534094 -7.42526e-21)
(1.3082 -0.527619 3.72891e-21)
(1.29938 -0.49411 -1.17231e-20)
(1.27661 -0.45337 -2.0665e-20)
(1.25388 -0.412858 -1.54928e-21)
(1.23455 -0.375579 -2.06476e-20)
(1.21591 -0.344814 9.09365e-21)
(0.315528 -0.106158 8.73143e-21)
(0.804108 -0.30249 -2.3906e-20)
(1.12427 -0.444267 5.5048e-20)
(1.28137 -0.503277 3.19398e-20)
(1.32826 -0.503525 1.45529e-21)
(1.32223 -0.47511 1.71808e-20)
(1.29925 -0.437835 1.7817e-21)
(1.27504 -0.399922 -1.49895e-20)
(1.25428 -0.364312 1.13828e-20)
(1.23421 -0.335083 1.12334e-21)
(0.30052 -0.0893285 -5.81381e-20)
(0.785376 -0.266953 -1.70025e-20)
(1.11723 -0.406488 -1.45202e-20)
(1.28847 -0.470992 -2.2443e-20)
(1.34481 -0.47802 5.71237e-21)
(1.34271 -0.454936 -1.17362e-22)
(1.32023 -0.421324 1.26306e-20)
(1.29507 -0.386095 -3.17511e-21)
(1.27287 -0.352179 -1.30101e-20)
(1.25185 -0.324639 -1.04979e-20)
(0.283656 -0.0734805 4.67666e-21)
(0.761515 -0.231947 2.72068e-20)
(1.10407 -0.368098 1.26319e-20)
(1.2903 -0.437526 -3.60373e-20)
(1.35757 -0.451299 -7.30309e-22)
(1.36065 -0.433733 -1.33488e-20)
(1.33945 -0.403949 2.49249e-22)
(1.31374 -0.371448 4.64306e-21)
(1.29042 -0.339431 -5.23302e-21)
(1.26882 -0.313426 1.49273e-20)
(0.265204 -0.0588048 1.08161e-20)
(0.73272 -0.197943 -2.64177e-20)
(1.08465 -0.329527 -5.9953e-20)
(1.28654 -0.403179 5.2086e-20)
(1.36624 -0.423557 -3.36802e-21)
(1.37588 -0.411644 9.575e-21)
(1.35683 -0.385835 -1.23488e-21)
(1.33105 -0.356154 8.13441e-21)
(1.30693 -0.326207 -6.6862e-22)
(1.28476 -0.301693 -1.16519e-20)
(0.245465 -0.0454611 -2.16741e-20)
(0.699287 -0.165396 3.38976e-20)
(1.0589 -0.291219 2.72743e-20)
(1.27688 -0.368256 -3.71218e-20)
(1.3705 -0.394993 -5.8759e-21)
(1.38818 -0.388814 2.00916e-21)
(1.37228 -0.367114 2.04039e-20)
(1.34699 -0.340337 7.25593e-22)
(1.32234 -0.312513 3.74173e-21)
(1.29953 -0.289441 -7.5398e-21)
(0.224762 -0.0335739 1.64093e-20)
(0.661619 -0.13474 -1.4668e-20)
(1.02683 -0.25362 -1.20865e-20)
(1.26103 -0.333076 2.0016e-20)
(1.37 -0.365807 6.53456e-21)
(1.3973 -0.365382 4.82565e-21)
(1.38567 -0.347904 -2.139e-20)
(1.36152 -0.324091 -7.39886e-21)
(1.33663 -0.298383 -6.22263e-21)
(1.31328 -0.276708 2.46737e-21)
(0.203433 -0.02323 -7.868e-21)
(0.620219 -0.106367 -1.67858e-22)
(0.988536 -0.217175 2.27806e-20)
(1.23872 -0.297965 -8.15948e-21)
(1.36438 -0.336203 -3.5682e-21)
(1.40295 -0.341479 -2.28305e-21)
(1.39687 -0.328311 5.41446e-21)
(1.37457 -0.307512 9.01307e-21)
(1.34983 -0.283908 -4.47919e-22)
(1.32615 -0.26358 3.29061e-21)
(0.181823 -0.0144755 5.4985e-21)
(0.575687 -0.0806179 -1.53404e-21)
(0.944244 -0.182321 -4.05031e-21)
(1.20975 -0.263258 -3.61347e-21)
(1.35325 -0.306385 3.18751e-21)
(1.40481 -0.317227 2.46425e-21)
(1.40567 -0.308427 -2.24088e-21)
(1.3861 -0.290694 7.85095e-22)
(1.36194 -0.269196 1.11653e-21)
(1.33821 -0.250148 -1.47338e-21)
(0.160273 -0.00731548 2.80598e-21)
(0.528709 -0.0577727 8.1776e-22)
(0.8943 -0.149484 -4.89176e-21)
(1.17394 -0.229299 -3.96088e-21)
(1.33619 -0.276561 4.18362e-21)
(1.40249 -0.292742 8.43815e-22)
(1.41187 -0.288339 -1.97939e-21)
(1.39601 -0.273721 1.85769e-21)
(1.37297 -0.254344 1.06287e-21)
(1.34947 -0.236493 -1.24657e-21)
(0.139111 -0.00171494 -1.1347e-21)
(0.480042 -0.0380364 2.24619e-21)
(0.839197 -0.119066 1.48972e-20)
(1.13123 -0.196437 -6.85775e-21)
(1.31279 -0.246947 -3.39761e-21)
(1.39556 -0.268138 -3.95804e-21)
(1.41515 -0.268116 8.28884e-21)
(1.40418 -0.256661 5.94652e-21)
(1.38288 -0.239437 4.73734e-21)
(1.35992 -0.22269 2.56991e-21)
(0.118641 0.00239864 2.16831e-20)
(0.430493 -0.0215317 -1.20094e-20)
(0.779587 -0.0914382 -1.42033e-20)
(1.08162 -0.165028 1.98188e-20)
(1.28263 -0.217768 1.09827e-20)
(1.3835 -0.243526 -7.87555e-22)
(1.41515 -0.247819 -1.4721e-20)
(1.41042 -0.239566 -1.04078e-20)
(1.39162 -0.224539 -1.16451e-20)
(1.36956 -0.208808 7.41414e-21)
(0.0991358 0.00513055 -2.91232e-20)
(0.38089 -0.00829177 2.74402e-20)
(0.716288 -0.066926 3.25009e-20)
(1.02531 -0.135428 -3.3852e-20)
(1.24532 -0.189262 -1.22524e-20)
(1.36574 -0.219022 8.58437e-21)
(1.4114 -0.227498 1.57937e-20)
(1.41448 -0.222472 2.85593e-21)
(1.39909 -0.209701 -8.24543e-22)
(1.37837 -0.194907 -1.08384e-20)
(0.080827 0.00661303 -3.99275e-21)
(0.332048 0.0017425 -3.82132e-20)
(0.650274 -0.0457951 -4.24546e-20)
(0.962627 -0.107996 5.11345e-20)
(1.20054 -0.161685 -6.11617e-21)
(1.34166 -0.194749 1.2942e-20)
(1.40334 -0.2072 2.86606e-21)
(1.416 -0.2054 -7.25547e-21)
(1.40515 -0.194955 4.05176e-21)
(1.38632 -0.181037 -1.69915e-21)
(0.063902 0.00699838 8.23053e-21)
(0.28474 0.00872017 2.3422e-20)
(0.582661 -0.0282335 1.39146e-20)
(0.894158 -0.0830811 -1.11092e-20)
(1.14805 -0.135314 -1.97677e-20)
(1.31059 -0.170848 -1.98984e-20)
(1.39029 -0.18697 -4.44271e-21)
(1.41451 -0.188361 1.38971e-20)
(1.40959 -0.180322 -3.02859e-21)
(1.39336 -0.167235 6.50613e-21)
(0.0484991 0.00645179 -3.08028e-20)
(0.23966 0.0128724 -2.93918e-20)
(0.514661 -0.0143333 -5.16365e-21)
(0.820728 -0.0610164 -5.85078e-21)
(1.0878 -0.110449 -1.57565e-20)
(1.27188 -0.147485 1.06664e-20)
(1.37146 -0.166861 -1.53987e-21)
(1.40943 -0.171357 -1.17962e-20)
(1.41207 -0.165804 1.10399e-20)
(1.39935 -0.153525 -2.05315e-20)
(0.0347069 0.00514461 7.21059e-21)
(0.1974 0.0144998 2.52735e-20)
(0.447524 -0.00407301 2.38788e-20)
(0.743449 -0.0421024 2.8044e-20)
(1.01993 -0.0874144 -4.84377e-22)
(1.22488 -0.12486 3.2291e-20)
(1.34596 -0.146948 3.80013e-21)
(1.39999 -0.154391 -4.72268e-20)
(1.41214 -0.151394 3.66583e-20)
(1.4041 -0.139916 1.30891e-20)
(0.0225667 0.00324843 1.99032e-20)
(0.158427 0.0139554 4.56513e-20)
(0.382468 0.00269397 -6.22911e-21)
(0.663698 -0.0265828 -3.59629e-20)
(0.944952 -0.0665556 1.77175e-20)
(1.1691 -0.103216 -2.11454e-20)
(1.31281 -0.127336 -3.49424e-20)
(1.38527 -0.137473 -7.04238e-21)
(1.40918 -0.137074 -3.51812e-20)
(0.0120762 0.000930521 9.92407e-21)
(0.123074 0.0116267 8.42864e-21)
(0.3206 0.00624136 6.51126e-20)
(0.583079 -0.0146133 1.4832e-20)
(0.863718 -0.0482291 -1.47965e-20)
(1.10424 -0.0828453 -7.95247e-21)
(1.27103 -0.108173 5.99309e-20)
(1.36417 -0.120637 5.52596e-20)
(0.00319609 -0.00164951 2.50164e-21)
(0.0915418 0.00791703 -4.80177e-20)
(0.262848 0.0069568 -7.80907e-20)
(0.503313 -0.00622503 4.634e-21)
(0.777545 -0.0327836 2.27284e-20)
(1.03035 -0.0640932 -3.36329e-20)
(1.21967 -0.0896701 -9.76867e-20)
(-0.00414169 -0.0043417 -1.80468e-20)
(0.0639046 0.00322901 4.84604e-20)
(0.209917 0.00531314 4.89446e-20)
(0.42611 -0.00129312 -5.52045e-20)
(0.688189 -0.0205271 7.89125e-21)
(-0.010027 -0.00700779 -4.32474e-20)
(0.0401262 -0.00205223 -7.54055e-20)
(0.162271 0.00182717 -1.62852e-20)
(0.353014 0.000470946 3.0454e-20)
(-0.0145644 -0.00952414 3.25482e-20)
(0.0200792 -0.0075768 3.3626e-22)
(0.120145 -0.00298806 -7.88389e-21)
(-0.0178681 -0.0117853 -1.08551e-20)
(0.00356546 -0.0130485 -1.90043e-20)
(-0.0200614 -0.0137108 7.49972e-20)
(-0.0096659 -0.018244 5.92661e-20)
(-0.0212786 -0.0152532 1.45139e-20)
(0.998585 -0.00371917 -1.40245e-22)
(0.998843 -0.00996922 6.34929e-22)
(0.992617 -0.0195305 3.14381e-22)
(0.989793 -0.027083 1.48289e-22)
(0.980477 -0.0394209 3.08697e-22)
(0.975415 -0.0492166 -1.33176e-21)
(0.963562 -0.0662703 -1.82147e-21)
(0.957255 -0.0804173 5.92697e-22)
(0.944031 -0.104985 1.90566e-21)
(0.938768 -0.125536 2.28826e-21)
(0.926702 -0.160779 3.95022e-21)
(0.926954 -0.187991 -9.48482e-22)
(0.920805 -0.237467 -5.6968e-21)
(0.933605 -0.266467 -1.44682e-21)
(0.945373 -0.340392 3.82942e-21)
(0.99863 -0.00357874 -8.02552e-22)
(0.998717 -0.00959027 3.0554e-22)
(0.99252 -0.0188631 -5.15014e-22)
(0.989361 -0.0260839 1.41658e-21)
(0.979991 -0.0380301 -1.27496e-21)
(0.974352 -0.0473335 1.51077e-22)
(0.962257 -0.0638101 1.92462e-21)
(0.954941 -0.0772532 -3.06323e-21)
(0.941085 -0.101058 1.39149e-21)
(0.934047 -0.120784 -5.13056e-21)
(0.920651 -0.155341 5.87163e-21)
(0.917812 -0.182096 -6.14422e-21)
(0.909279 -0.231611 -8.82949e-22)
(0.916154 -0.261648 7.17708e-21)
(0.922832 -0.335121 -1.67511e-21)
(0.998673 -0.00343515 1.06599e-21)
(0.998603 -0.00919157 7.5099e-22)
(0.992446 -0.0181504 9.16113e-22)
(0.988986 -0.0250188 -6.91553e-22)
(0.97958 -0.0365362 -7.24662e-22)
(0.973436 -0.0453218 2.71714e-21)
(0.961131 -0.0611608 -1.50029e-21)
(0.952948 -0.0738584 4.22845e-21)
(0.938518 -0.0967718 -2.62057e-21)
(0.929944 -0.115564 -1.29502e-21)
(0.915307 -0.149078 -1.81401e-21)
(0.909711 -0.175102 1.53535e-21)
(0.898914 -0.223658 4.29045e-21)
(0.900909 -0.254572 -1.20117e-20)
(0.90281 -0.325577 1.32817e-20)
(0.998714 -0.00329267 1.53506e-22)
(0.998498 -0.00879722 -1.2443e-21)
(0.992385 -0.0174484 -2.34105e-21)
(0.988649 -0.0239902 4.11989e-22)
(0.979215 -0.0350857 -8.10896e-23)
(0.972615 -0.0433947 7.72155e-22)
(0.960121 -0.0586005 2.35484e-21)
(0.951158 -0.0706029 -1.58757e-21)
(0.936198 -0.092592 2.06778e-21)
(0.926224 -0.110484 -4.1756e-21)
(0.910423 -0.142767 2.82136e-21)
(0.902253 -0.168014 1.92279e-21)
(0.889206 -0.215031 4.69746e-21)
(0.886805 -0.246496 -8.11791e-21)
(0.884021 -0.315255 2.43805e-22)
(0.998753 -0.00314618 -1.35223e-21)
(0.9984 -0.00838953 -3.26101e-22)
(0.992332 -0.0167406 -3.25425e-22)
(0.988337 -0.0229643 1.82693e-21)
(0.978884 -0.033625 3.41696e-23)
(0.971861 -0.0414658 -2.87091e-22)
(0.959195 -0.0560133 -1.65881e-21)
(0.949509 -0.0673273 -1.43623e-22)
(0.93406 -0.0883373 5.28153e-21)
(0.92277 -0.105331 -6.17224e-21)
(0.905875 -0.136247 1.98009e-21)
(0.895275 -0.160674 3.04205e-21)
(0.880003 -0.205877 1.00549e-21)
(0.873511 -0.237445 -4.56959e-21)
(0.866229 -0.304006 1.00856e-22)
(0.998793 -0.00299579 2.48805e-22)
(0.998306 -0.0079983 2.23363e-22)
(0.992286 -0.016022 7.75752e-22)
(0.988046 -0.0219309 -1.01605e-21)
(0.978581 -0.0321389 2.88659e-22)
(0.971158 -0.0395159 -8.02135e-22)
(0.95834 -0.0533752 4.28641e-22)
(0.94797 -0.0640048 -1.84601e-21)
(0.932073 -0.0839777 3.57673e-21)
(0.919533 -0.100068 -7.54779e-23)
(0.901606 -0.12949 -6.51398e-21)
(0.888711 -0.153026 4.12614e-22)
(0.871268 -0.196196 7.0348e-21)
(0.860931 -0.227446 1.74216e-22)
(0.849352 -0.291588 -8.21797e-21)
(0.99883 -0.00284213 2.16361e-22)
(0.998216 -0.00763041 -1.28618e-21)
(0.992247 -0.0152943 -9.71037e-22)
(0.987772 -0.0208936 1.16425e-21)
(0.978303 -0.0306323 -8.36308e-22)
(0.970498 -0.0375531 6.80064e-22)
(0.957547 -0.0506962 -3.63508e-22)
(0.946523 -0.0606498 -4.14762e-22)
(0.930217 -0.0795305 2.73654e-21)
(0.91649 -0.0947133 -5.50597e-21)
(0.897588 -0.122527 4.43057e-21)
(0.88254 -0.145083 6.23431e-21)
(0.863002 -0.186031 -7.74356e-21)
(0.849046 -0.216594 -1.46354e-21)
(0.83338 -0.27802 -7.02005e-21)
(0.998866 -0.00268594 -1.21104e-22)
(0.99813 -0.0072531 8.02823e-22)
(0.992216 -0.0145577 -8.88729e-22)
(0.987512 -0.0198547 2.08098e-21)
(0.978048 -0.0291073 -2.24683e-21)
(0.969875 -0.0355812 -2.30279e-21)
(0.95681 -0.0479802 -5.75731e-22)
(0.945162 -0.0572662 2.77361e-22)
(0.92848 -0.0750025 -2.15115e-21)
(0.913634 -0.0892684 2.43854e-21)
(0.893809 -0.115375 2.62719e-21)
(0.876752 -0.136854 -9.44141e-22)
(0.855216 -0.175423 -3.2762e-21)
(0.837858 -0.204972 6.84226e-21)
(0.818326 -0.263368 -6.61662e-21)
(0.998902 -0.00252711 -5.26475e-22)
(0.998048 -0.00687102 4.98666e-21)
(0.992192 -0.0138129 1.15578e-22)
(0.987266 -0.018815 1.03604e-21)
(0.977815 -0.0275648 -1.86957e-22)
(0.969287 -0.0336007 3.10657e-21)
(0.956125 -0.045228 4.8491e-22)
(0.943884 -0.0538537 4.93153e-23)
(0.926856 -0.0703975 -3.33998e-21)
(0.910962 -0.083732 -6.06761e-22)
(0.890267 -0.10805 2.96732e-21)
(0.871346 -0.128347 -4.26967e-21)
(0.847922 -0.1644 -3.23802e-21)
(0.827385 -0.192647 3.8689e-21)
(0.804218 -0.247697 -3.34799e-21)
(0.998936 -0.00236551 1.31374e-21)
(0.99797 -0.00648879 -2.80101e-21)
(0.992174 -0.013061 1.50283e-21)
(0.987034 -0.0177755 -2.14514e-21)
(0.977602 -0.0260052 -7.94917e-22)
(0.968735 -0.0316125 4.48329e-22)
(0.955489 -0.0424414 -1.64003e-21)
(0.942689 -0.0504124 2.89396e-21)
(0.925342 -0.0657208 1.57785e-21)
(0.908475 -0.0781042 -9.01596e-22)
(0.886962 -0.100566 2.78448e-21)
(0.866324 -0.119577 -5.25906e-21)
(0.841137 -0.152991 9.17349e-21)
(0.817644 -0.179681 -6.42456e-21)
(0.791088 -0.231077 -3.28787e-21)
(0.99897 -0.00220119 -9.33692e-22)
(0.997895 -0.00610787 1.26745e-22)
(0.99216 -0.0123026 1.18874e-23)
(0.986815 -0.0167368 1.98799e-21)
(0.977408 -0.0244297 4.97124e-22)
(0.968219 -0.0296172 -9.20333e-22)
(0.954901 -0.0396223 1.06773e-21)
(0.941579 -0.0469426 -2.1048e-21)
(0.923935 -0.060978 8.92537e-22)
(0.906175 -0.0723866 5.93539e-22)
(0.883898 -0.0929333 -2.74248e-21)
(0.86169 -0.110559 2.07806e-21)
(0.834872 -0.141221 5.49154e-21)
(0.808659 -0.166129 -2.68172e-21)
(0.77897 -0.213582 -7.30934e-21)
(0.999003 -0.00203431 -1.06368e-21)
(0.997824 -0.00572859 -2.25092e-22)
(0.992152 -0.0115383 -9.72467e-22)
(0.986609 -0.0156995 -2.89453e-21)
(0.977232 -0.0228391 1.40466e-21)
(0.96774 -0.0276152 -1.35509e-21)
(0.954358 -0.0367733 1.82507e-21)
(0.940555 -0.0434445 2.72947e-21)
(0.922637 -0.0561747 -1.78973e-21)
(0.904064 -0.0665816 3.68789e-21)
(0.88108 -0.0851656 -1.98291e-21)
(0.857449 -0.101311 -3.06644e-21)
(0.82914 -0.129119 -1.9585e-21)
(0.80045 -0.152046 7.9963e-21)
(0.767898 -0.195291 -2.64002e-21)
(0.999033 -0.001865 1.10451e-21)
(0.997757 -0.00535118 5.35441e-22)
(0.992146 -0.0107687 -7.74106e-23)
(0.986419 -0.0146638 1.1621e-21)
(0.977072 -0.0212346 -1.8632e-21)
(0.967299 -0.0256068 -4.64684e-22)
(0.953861 -0.0338969 -4.21853e-23)
(0.939619 -0.0399185 -9.21053e-22)
(0.921449 -0.0513165 -2.72947e-21)
(0.902146 -0.060693 -1.41332e-21)
(0.878515 -0.0772736 5.25408e-21)
(0.853606 -0.0918512 -8.14604e-22)
(0.823952 -0.116712 -8.5745e-22)
(0.793035 -0.137481 -7.19527e-22)
(0.757901 -0.176284 -3.43384e-21)
(0.999062 -0.00169338 6.68914e-22)
(0.997695 -0.00497588 -1.23647e-21)
(0.992143 -0.00999396 5.26901e-22)
(0.986245 -0.0136295 -1.4252e-21)
(0.976927 -0.0196174 -9.13418e-23)
(0.966897 -0.0235919 7.80477e-23)
(0.953408 -0.0309955 1.15343e-22)
(0.938772 -0.0363651 1.73537e-22)
(0.920371 -0.0464088 -1.27087e-21)
(0.900421 -0.0547255 1.64759e-21)
(0.876207 -0.0692684 -2.71237e-21)
(0.850168 -0.0821979 5.97486e-22)
(0.819319 -0.104028 1.85918e-21)
(0.786433 -0.122487 -1.26158e-22)
(0.749005 -0.15664 2.32052e-21)
(0.999087 -0.00151962 -6.51718e-22)
(0.997639 -0.00460284 1.50007e-21)
(0.99214 -0.00921406 -9.43793e-22)
(0.986088 -0.0125963 1.1622e-21)
(0.976797 -0.0179885 6.44047e-22)
(0.966536 -0.0215705 -4.04492e-22)
(0.952999 -0.0280716 -7.32337e-23)
(0.938017 -0.0327853 -4.74655e-22)
(0.919407 -0.0414568 1.67936e-22)
(0.898893 -0.0486849 -1.42088e-21)
(0.874163 -0.061161 6.6629e-22)
(0.847141 -0.0723714 -4.66304e-21)
(0.81525 -0.0910984 6.59969e-21)
(0.780658 -0.107113 -1.99706e-21)
(0.741235 -0.136442 -4.35446e-21)
(0.99911 -0.00134395 -3.04032e-22)
(0.997589 -0.00423055 -4.63398e-22)
(0.992138 -0.00842891 3.22724e-22)
(0.985949 -0.0115636 8.01782e-23)
(0.97668 -0.0163491 8.89177e-22)
(0.966216 -0.0195423 -3.2047e-22)
(0.952634 -0.0251278 1.78365e-22)
(0.937353 -0.0291803 -7.44585e-23)
(0.918557 -0.0364653 5.23162e-22)
(0.897562 -0.0425778 1.00304e-21)
(0.872387 -0.0529626 1.46988e-21)
(0.84453 -0.0623921 -2.43876e-21)
(0.811753 -0.0779532 1.08734e-21)
(0.775721 -0.091411 -1.42769e-21)
(0.73461 -0.115772 -4.0976e-21)
(0.999128 -0.00116681 1.0788e-21)
(0.997545 -0.00385516 -1.26415e-22)
(0.992135 -0.00763839 5.05011e-22)
(0.985827 -0.0105307 4.34702e-22)
(0.976575 -0.0147003 -1.38665e-21)
(0.965938 -0.017507 5.34283e-23)
(0.952314 -0.0221661 2.18472e-22)
(0.936781 -0.0255516 1.35728e-22)
(0.917824 -0.0314395 -5.18493e-22)
(0.896432 -0.0364118 4.73551e-22)
(0.870883 -0.044686 2.24818e-21)
(0.84234 -0.0522822 -8.99774e-22)
(0.808836 -0.0646255 2.10034e-21)
(0.771632 -0.0754342 -4.64796e-21)
(0.729143 -0.0947106 5.91063e-21)
(0.999142 -0.000988037 -7.70751e-22)
(0.99751 -0.00349014 1.45076e-23)
(0.99213 -0.00684366 -4.50325e-22)
(0.985725 -0.00949686 -2.2611e-22)
(0.976482 -0.0130428 4.94904e-22)
(0.965702 -0.0154638 -2.59716e-23)
(0.952037 -0.0191883 -9.03637e-22)
(0.936301 -0.0219004 5.24391e-22)
(0.91721 -0.0263838 -2.37409e-22)
(0.895503 -0.0301949 2.11723e-22)
(0.869655 -0.0363445 7.77489e-22)
(0.840576 -0.0420664 2.39771e-22)
(0.806504 -0.0511497 -1.3703e-21)
(0.768399 -0.059234 1.757e-22)
(0.724847 -0.0733367 -1.33375e-21)
(0.999151 -0.000808078 3.75694e-22)
(0.997483 -0.00313377 -2.60401e-23)
(0.992124 -0.00604517 6.57011e-23)
(0.985642 -0.00846088 3.68438e-22)
(0.976401 -0.0113764 -6.72361e-23)
(0.965509 -0.0134101 -3.63966e-22)
(0.951805 -0.0161926 -2.32348e-22)
(0.935914 -0.0182232 2.81554e-22)
(0.916716 -0.0212953 -2.55008e-22)
(0.894775 -0.0239266 3.12976e-22)
(0.868705 -0.0279353 -8.0762e-22)
(0.83924 -0.0317509 4.59928e-22)
(0.804765 -0.0375453 -1.03565e-21)
(0.766026 -0.0428454 4.18325e-22)
(0.721728 -0.0517014 1.80187e-22)
(0.999155 -0.000627735 -6.70312e-23)
(0.997465 -0.00277137 6.58487e-23)
(0.992116 -0.00524311 -8.53103e-23)
(0.985578 -0.00742188 -1.22067e-22)
(0.976331 -0.00970065 1.15116e-22)
(0.965358 -0.0113419 1.84415e-22)
(0.951619 -0.0131737 1.29029e-22)
(0.93562 -0.0145102 -7.88715e-23)
(0.916343 -0.0161589 3.15326e-22)
(0.894251 -0.0175883 5.83176e-23)
(0.868037 -0.0194294 1.51168e-22)
(0.838335 -0.0213036 2.13444e-22)
(0.803623 -0.0238112 -2.78377e-24)
(0.764524 -0.0263106 -1.57441e-22)
(0.719786 -0.0298984 -2.64615e-23)
(1.00001 -0.000274867 0)
(1.00206 -0.000760606 0)
(1.00562 -0.00127438 0)
(1.01025 -0.00169204 0)
(1.0156 -0.0021147 0)
(1.02136 -0.00243101 0)
(1.02731 -0.00273563 0)
(1.03322 -0.00292934 0)
(1.03896 -0.00311429 0)
(1.0444 -0.00319236 0)
(1.04947 -0.00328028 0)
(1.05412 -0.00326401 0)
(1.05835 -0.00328735 0)
(1.06214 -0.00319801 0)
(1.06554 -0.00319214 0)
(1.00002 -0.000811143 0)
(1.00205 -0.00224396 0)
(1.00561 -0.0037622 0)
(1.01022 -0.00499738 0)
(1.01559 -0.00625092 0)
(1.02137 -0.00719083 0)
(1.02737 -0.00810037 0)
(1.03333 -0.00868169 0)
(1.03916 -0.00924013 0)
(1.04467 -0.00947983 0)
(1.04984 -0.00975006 0)
(1.05457 -0.00970815 0)
(1.05891 -0.00978439 0)
(1.06277 -0.00952336 0)
(1.06629 -0.00951065 0)
(1.00002 -0.00132174 0)
(1.00204 -0.00364588 0)
(1.00558 -0.00612791 0)
(1.01017 -0.00814483 0)
(1.01556 -0.0102107 0)
(1.02137 -0.0117606 0)
(1.02746 -0.0132782 0)
(1.03352 -0.0142518 0)
(1.03949 -0.015202 0)
(1.04514 -0.0156164 0)
(1.0505 -0.0160925 0)
(1.05539 -0.0160374 0)
(1.05993 -0.0161901 0)
(1.06394 -0.0157646 0)
(1.06767 -0.0157683 0)
(1.00003 -0.00180782 0)
(1.00201 -0.00495798 0)
(1.00553 -0.00837055 0)
(1.01008 -0.0111349 0)
(1.01548 -0.0140094 0)
(1.02134 -0.016164 0)
(1.02754 -0.0183103 0)
(1.03373 -0.0196911 0)
(1.03991 -0.0210684 0)
(1.04575 -0.0216795 0)
(1.05138 -0.0224003 0)
(1.05648 -0.02235 0)
(1.06131 -0.0226151 0)
(1.06553 -0.0220331 0)
(1.06956 -0.0220858 0)
(1.00004 -0.00226967 0)
(1.00197 -0.00617478 0)
(1.00545 -0.0104892 0)
(1.00994 -0.013967 0)
(1.01535 -0.0176544 0)
(1.02124 -0.0204128 0)
(1.02757 -0.0232204 0)
(1.03391 -0.0250309 0)
(1.04034 -0.0268855 0)
(1.04642 -0.0277236 0)
(1.05238 -0.0287425 0)
(1.05775 -0.0287209 0)
(1.06295 -0.0291469 0)
(1.06744 -0.0284175 0)
(1.07187 -0.0285624 0)