/*--------------------------------*- C++ -*----------------------------------*\
  =========                 |
  \\      /  F ield         | OpenFOAM: The Open Source CFD Toolbox
   \\    /   O peration     | Website:  https://openfoam.org
    \\  /    A nd           | Version:  7
     \\/     M anipulation  |
\*---------------------------------------------------------------------------*/
FoamFile
{
    version     2.0;
    format      ascii;
    class       volScalarField;
    location    "100";
    object      p;
}
// * * * * * * * * * * * * * * * * * * * * * * * * * * * * * * * * * * * * * //

dimensions      [0 2 -2 0 0 0 0];

internalField   nonuniform List<scalar> 
8500
(
-0.378162
-0.380414
-0.381291
-0.38204
-0.382937
-0.384122
-0.385687
-0.387754
-0.390412
-0.393995
-0.37766
-0.380388
-0.381476
-0.382392
-0.383395
-0.384582
-0.385996
-0.387682
-0.389606
-0.391972
-0.377486
-0.380642
-0.381926
-0.382997
-0.384096
-0.385275
-0.386518
-0.387792
-0.388919
-0.389944
-0.377721
-0.381247
-0.382707
-0.383923
-0.385112
-0.386279
-0.387343
-0.388188
-0.388476
-0.388064
-0.378439
-0.382262
-0.383876
-0.385227
-0.386505
-0.387663
-0.38855
-0.388959
-0.388387
-0.386449
-0.379695
-0.383732
-0.385476
-0.386953
-0.388321
-0.389478
-0.390195
-0.390173
-0.388739
-0.385169
-0.381526
-0.385685
-0.387533
-0.389126
-0.390586
-0.391755
-0.392318
-0.391873
-0.389595
-0.384242
-0.383947
-0.388131
-0.390053
-0.39175
-0.393304
-0.394502
-0.39493
-0.394075
-0.390999
-0.383632
-0.386948
-0.391055
-0.393019
-0.394805
-0.396455
-0.397699
-0.398016
-0.396762
-0.392974
-0.383258
-0.390493
-0.394422
-0.39639
-0.398246
-0.399989
-0.401296
-0.401529
-0.399879
-0.395521
-0.382983
-0.394525
-0.398177
-0.400107
-0.402006
-0.403828
-0.405208
-0.405387
-0.403333
-0.398616
-0.382541
-0.398967
-0.402248
-0.404092
-0.405994
-0.407873
-0.409319
-0.409468
-0.406991
-0.402298
-0.381583
-0.403727
-0.406554
-0.408256
-0.410108
-0.411995
-0.413478
-0.413599
-0.410653
-0.406533
-0.380576
-0.408709
-0.41101
-0.412506
-0.414238
-0.416062
-0.417514
-0.417574
-0.414126
-0.409461
-0.380781
-0.413819
-0.415538
-0.416756
-0.418279
-0.419946
-0.421261
-0.421171
-0.417512
-0.411893
-0.380865
-0.418975
-0.42007
-0.420933
-0.422146
-0.423541
-0.424609
-0.424188
-0.420286
-0.413686
-0.380814
-0.424118
-0.424562
-0.42499
-0.425785
-0.426781
-0.42745
-0.426541
-0.422293
-0.414399
-0.380577
-0.429216
-0.428989
-0.428912
-0.429174
-0.429638
-0.429763
-0.428191
-0.423518
-0.413646
-0.379767
-0.434269
-0.433362
-0.432707
-0.432337
-0.432145
-0.43159
-0.429189
-0.423991
-0.411334
-0.378597
-0.43931
-0.437717
-0.436422
-0.435331
-0.43438
-0.433024
-0.429663
-0.423714
-0.408005
-0.380241
-0.444403
-0.442112
-0.440127
-0.438246
-0.43645
-0.434188
-0.429762
-0.422654
-0.404787
-0.388048
-0.449635
-0.446626
-0.443912
-0.441191
-0.438486
-0.435215
-0.429617
-0.421002
-0.402312
-0.385641
-0.455109
-0.451349
-0.447879
-0.444285
-0.440614
-0.436226
-0.429315
-0.418988
-0.399472
-0.380845
-0.460935
-0.456377
-0.452131
-0.447641
-0.442948
-0.43732
-0.428924
-0.416732
-0.39615
-0.375451
-0.467217
-0.4618
-0.456764
-0.451358
-0.445575
-0.438564
-0.428493
-0.414274
-0.392435
-0.369647
-0.474047
-0.467699
-0.461861
-0.455511
-0.448544
-0.439988
-0.428033
-0.411634
-0.388347
-0.363791
-0.481494
-0.474139
-0.467484
-0.460148
-0.451875
-0.441583
-0.427519
-0.408805
-0.383962
-0.357891
-0.489605
-0.481163
-0.473673
-0.465283
-0.45555
-0.443304
-0.426893
-0.405764
-0.379323
-0.351968
-0.498392
-0.488792
-0.48044
-0.470898
-0.459521
-0.445065
-0.426079
-0.402481
-0.374456
-0.345982
-0.507841
-0.497021
-0.487766
-0.476944
-0.463702
-0.446747
-0.42499
-0.398918
-0.369362
-0.339889
-0.517902
-0.505818
-0.495603
-0.48334
-0.467965
-0.448211
-0.423539
-0.39503
-0.364019
-0.33363
-0.52849
-0.515118
-0.503867
-0.489968
-0.472146
-0.449307
-0.421633
-0.390765
-0.358387
-0.327143
-0.539488
-0.52482
-0.512435
-0.496669
-0.476049
-0.449883
-0.419183
-0.386062
-0.352413
-0.320361
-0.550738
-0.534786
-0.521148
-0.503238
-0.479461
-0.449789
-0.416098
-0.380854
-0.346033
-0.313216
-0.562046
-0.544837
-0.529806
-0.509434
-0.482164
-0.448879
-0.412284
-0.375067
-0.339176
-0.305641
-0.573179
-0.554755
-0.538165
-0.514986
-0.483936
-0.447014
-0.407649
-0.368624
-0.331769
-0.297569
-0.583868
-0.564283
-0.545945
-0.519603
-0.484568
-0.444059
-0.402098
-0.361443
-0.323736
-0.288936
-0.593813
-0.573131
-0.55283
-0.522995
-0.483857
-0.439887
-0.395538
-0.353443
-0.315002
-0.279683
-0.602686
-0.580979
-0.558487
-0.524876
-0.481617
-0.434379
-0.387879
-0.344544
-0.305495
-0.269759
-0.610142
-0.587489
-0.562568
-0.524977
-0.477678
-0.427422
-0.379034
-0.334669
-0.295151
-0.259119
-0.615828
-0.59231
-0.564736
-0.523051
-0.471888
-0.418916
-0.368921
-0.323747
-0.283913
-0.247732
-0.619388
-0.595089
-0.564669
-0.518879
-0.464114
-0.408768
-0.357464
-0.311712
-0.271734
-0.235573
-0.620479
-0.595481
-0.562073
-0.512272
-0.454243
-0.3969
-0.344596
-0.298503
-0.25857
-0.222621
-0.61878
-0.593164
-0.556694
-0.503078
-0.442188
-0.383248
-0.330262
-0.284068
-0.244367
-0.208796
-0.613998
-0.587843
-0.548321
-0.491178
-0.427882
-0.367767
-0.314426
-0.268375
-0.229067
-0.193915
-0.605877
-0.57927
-0.53679
-0.476494
-0.411286
-0.350429
-0.297066
-0.251409
-0.212656
-0.177787
-0.594209
-0.567244
-0.521981
-0.458979
-0.392383
-0.331221
-0.278161
-0.233165
-0.195197
-0.16056
-0.578834
-0.551621
-0.503822
-0.438625
-0.371177
-0.310134
-0.257692
-0.213665
-0.176677
-0.142834
-0.559648
-0.532312
-0.48229
-0.415456
-0.347696
-0.287175
-0.235709
-0.193062
-0.157
-0.124499
-0.536602
-0.509284
-0.45741
-0.389536
-0.321994
-0.262413
-0.212441
-0.171176
-0.136319
-0.105428
-0.509703
-0.482562
-0.429259
-0.360966
-0.294167
-0.236035
-0.187725
-0.148132
-0.114722
-0.0856131
-0.479013
-0.452236
-0.397996
-0.329843
-0.264305
-0.208031
-0.16169
-0.124013
-0.0922771
-0.0651169
-0.444645
-0.418464
-0.363858
-0.296193
-0.232521
-0.178496
-0.134435
-0.0989078
-0.0690581
-0.0440383
-0.406778
-0.381476
-0.326935
-0.260165
-0.198957
-0.147562
-0.106073
-0.0729128
-0.0451512
-0.0224902
-0.365651
-0.341571
-0.286761
-0.222378
-0.163829
-0.115379
-0.0767288
-0.0461309
-0.0206421
-0.00055975
-0.321484
-0.298963
-0.244006
-0.182752
-0.127337
-0.082116
-0.0465408
-0.0186694
0.00438247
0.0216636
-0.274478
-0.253201
-0.199902
-0.141565
-0.0896628
-0.047946
-0.0156454
0.00937245
0.0297793
0.0438323
-0.225028
-0.205272
-0.154249
-0.0991063
-0.0510142
-0.0130396
0.015842
0.0379136
0.0552624
0.0650846
-0.173647
-0.155439
-0.107193
-0.0556451
-0.0116205
0.0224283
0.0478157
0.0668541
0.0804863
0.0848069
-0.12059
-0.104174
-0.0590352
-0.0114548
0.0282782
0.0582691
0.0801141
0.0959503
0.105348
0.104848
-0.0662771
-0.0518898
-0.0101294
0.0331771
0.0684358
0.0942713
0.112479
0.124784
0.129834
0.130364
-0.0111511
0.00101381
0.0391555
0.0779519
0.108602
0.130207
0.144637
0.153223
0.154874
0.155935
0.0443425
0.0541296
0.088449
0.122565
0.14852
0.165844
0.176417
0.181349
0.180126
0.18013
0.0997555
0.107045
0.137383
0.166709
0.187929
0.200953
0.207646
0.209039
0.205136
0.203296
0.154639
0.159346
0.185593
0.210077
0.226568
0.235313
0.238156
0.236116
0.229551
0.225432
0.20855
0.210623
0.232722
0.25237
0.264182
0.268707
0.267769
0.262397
0.253179
0.246584
0.26105
0.260474
0.278421
0.293292
0.300522
0.300925
0.296307
0.287707
0.275867
0.266717
0.311714
0.308508
0.322353
0.332559
0.335345
0.331761
0.323592
0.311888
0.297492
0.285777
0.360135
0.354349
0.364195
0.369897
0.36842
0.36102
0.349456
0.33479
0.317934
0.303695
0.40592
0.397642
0.403639
0.405046
0.399526
0.388512
0.373738
0.356277
0.337083
0.320398
0.448701
0.438048
0.440397
0.437763
0.428456
0.414061
0.396287
0.376219
0.354833
0.335811
0.488135
0.475255
0.4742
0.46782
0.455015
0.437501
0.416963
0.394496
0.371084
0.349866
0.523905
0.508976
0.504801
0.495007
0.479025
0.458682
0.435636
0.410998
0.385744
0.362499
0.555725
0.53895
0.531978
0.519136
0.500327
0.477466
0.45219
0.425625
0.398729
0.373651
0.583339
0.564947
0.555532
0.54004
0.518776
0.493732
0.466521
0.438287
0.409963
0.383273
0.606528
0.586767
0.575293
0.557573
0.53425
0.507373
0.47854
0.448907
0.419383
0.391321
0.625106
0.604242
0.591116
0.571613
0.546644
0.518301
0.488171
0.457419
0.426934
0.397759
0.638923
0.617238
0.602886
0.582063
0.555875
0.526446
0.495353
0.463773
0.432572
0.402563
0.64787
0.625653
0.610518
0.58885
0.561881
0.531754
0.500042
0.467928
0.436267
0.405718
0.651873
0.629424
0.613954
0.591925
0.564621
0.534192
0.502208
0.469859
0.437994
0.4072
0.650898
0.628518
0.61317
0.591268
0.564076
0.533742
0.501838
0.469554
0.437741
0.406999
0.644951
0.622942
0.608168
0.586882
0.56025
0.530407
0.498933
0.467015
0.435512
0.405116
0.634076
0.612734
0.598985
0.578796
0.553167
0.524211
0.493513
0.462258
0.431324
0.401572
0.618356
0.59797
0.585683
0.567064
0.542875
0.515191
0.485612
0.455315
0.425201
0.396382
0.597914
0.578761
0.568358
0.551768
0.529443
0.503408
0.47528
0.446227
0.417178
0.389565
0.572909
0.55525
0.547133
0.533012
0.512959
0.488936
0.462582
0.435051
0.407302
0.381151
0.543536
0.527614
0.52216
0.510924
0.493534
0.471871
0.447598
0.421857
0.395631
0.371179
0.510026
0.496063
0.493618
0.485657
0.471298
0.452323
0.430422
0.406725
0.382235
0.359695
0.472644
0.460836
0.461713
0.457385
0.446398
0.430419
0.411163
0.38975
0.367191
0.346753
0.431687
0.422202
0.426676
0.426304
0.419003
0.406301
0.389942
0.371035
0.350585
0.332411
0.38748
0.380458
0.38876
0.392628
0.389296
0.380125
0.366891
0.350693
0.332514
0.316738
0.340377
0.335925
0.348242
0.356593
0.357474
0.352061
0.342155
0.328849
0.31308
0.299805
0.290755
0.288949
0.305419
0.318448
0.323752
0.32229
0.315889
0.305633
0.292391
0.281686
0.239013
0.239895
0.260604
0.278458
0.288355
0.291004
0.288256
0.281187
0.27056
0.262457
0.185572
0.189146
0.214127
0.236904
0.25152
0.258405
0.259431
0.255663
0.247707
0.242186
0.130862
0.1371
0.166334
0.194076
0.213493
0.224702
0.229592
0.229222
0.22396
0.220928
0.0753302
0.0841678
0.117579
0.150272
0.174527
0.190107
0.198922
0.202044
0.199474
0.198715
0.019428
0.0307654
0.0682258
0.105801
0.134884
0.154841
0.1676
0.174313
0.174447
0.1755
-0.0363879
-0.0226871
0.0186455
0.0609712
0.0948258
0.119128
0.135795
0.146209
0.149243
0.151302
-0.0916613
-0.0757714
-0.0307873
0.0160952
0.0546181
0.0832019
0.103683
0.117856
0.124331
0.125815
-0.145938
-0.128076
-0.0796964
-0.028519
0.0145205
0.0472965
0.0714376
0.0891667
0.100039
0.100521
-0.198764
-0.17919
-0.12771
-0.0725707
-0.0252138
0.0116427
0.0393329
0.0602627
0.0753922
0.0807482
-0.249716
-0.22867
-0.174482
-0.115771
-0.0643359
-0.0235469
0.00763135
0.0315732
0.0504151
0.0613431
-0.298627
-0.275971
-0.219743
-0.157839
-0.102602
-0.058082
-0.0235022
0.00335527
0.0252342
0.0404251
-0.344844
-0.320853
-0.263389
-0.198495
-0.139783
-0.0917869
-0.0539622
-0.0242905
0.00019646
0.0186095
-0.388027
-0.362599
-0.305295
-0.23745
-0.175668
-0.124489
-0.0836353
-0.0512883
-0.024417
-0.00323101
-0.427976
-0.401451
-0.344349
-0.274508
-0.210064
-0.156015
-0.112386
-0.0775421
-0.048465
-0.024746
-0.46446
-0.43716
-0.380201
-0.309523
-0.242756
-0.186199
-0.140077
-0.102945
-0.071862
-0.0458473
-0.497246
-0.469439
-0.413085
-0.342
-0.273594
-0.214895
-0.166581
-0.127395
-0.0945244
-0.0664482
-0.526161
-0.49807
-0.442884
-0.371865
-0.30238
-0.241965
-0.191787
-0.150795
-0.116369
-0.0864347
-0.551095
-0.522904
-0.469388
-0.399043
-0.328999
-0.267321
-0.215597
-0.173056
-0.137324
-0.105705
-0.571994
-0.543858
-0.492446
-0.423417
-0.353365
-0.290906
-0.237947
-0.194096
-0.157325
-0.124197
-0.588861
-0.560913
-0.511984
-0.444891
-0.375398
-0.312605
-0.258844
-0.213873
-0.176271
-0.141932
-0.601757
-0.574113
-0.527984
-0.463405
-0.395039
-0.332358
-0.278165
-0.232423
-0.194019
-0.159093
-0.610801
-0.583561
-0.540476
-0.478937
-0.412262
-0.350143
-0.295868
-0.249663
-0.210706
-0.175829
-0.61617
-0.589416
-0.549542
-0.491502
-0.42706
-0.365962
-0.311957
-0.265578
-0.226281
-0.191315
-0.618093
-0.591898
-0.555312
-0.501149
-0.439453
-0.37983
-0.326446
-0.280166
-0.240689
-0.205507
-0.616847
-0.591283
-0.557966
-0.507965
-0.449484
-0.391774
-0.339357
-0.293438
-0.253968
-0.218647
-0.612748
-0.587887
-0.557732
-0.512076
-0.457222
-0.401842
-0.350728
-0.305431
-0.266181
-0.230915
-0.606145
-0.582064
-0.554887
-0.513648
-0.46276
-0.410099
-0.360613
-0.316195
-0.277378
-0.24238
-0.597408
-0.574186
-0.54975
-0.512882
-0.466215
-0.416622
-0.369076
-0.325788
-0.287599
-0.253063
-0.586915
-0.564634
-0.542669
-0.510014
-0.467726
-0.421503
-0.376191
-0.334271
-0.296888
-0.262987
-0.575048
-0.553788
-0.534016
-0.505312
-0.467453
-0.424844
-0.382034
-0.341712
-0.305296
-0.272185
-0.562177
-0.542015
-0.524168
-0.499066
-0.465573
-0.426753
-0.386685
-0.348177
-0.312884
-0.280697
-0.54865
-0.529656
-0.513492
-0.491589
-0.462286
-0.427349
-0.390226
-0.353736
-0.319714
-0.28857
-0.534788
-0.517024
-0.502332
-0.4832
-0.457802
-0.426757
-0.392738
-0.358458
-0.32585
-0.295857
-0.520874
-0.504394
-0.490995
-0.474217
-0.452351
-0.425107
-0.3943
-0.362404
-0.331352
-0.302614
-0.50715
-0.491996
-0.479743
-0.464944
-0.446169
-0.422538
-0.394991
-0.365632
-0.336277
-0.308896
-0.493817
-0.48002
-0.468792
-0.455646
-0.439495
-0.419195
-0.394884
-0.36819
-0.340673
-0.314756
-0.481031
-0.468607
-0.458307
-0.446547
-0.432563
-0.41523
-0.394054
-0.370117
-0.344581
-0.320248
-0.468908
-0.457855
-0.448412
-0.437814
-0.425588
-0.410802
-0.392574
-0.371443
-0.348025
-0.325418
-0.457527
-0.447826
-0.439184
-0.429562
-0.418748
-0.406071
-0.390526
-0.372194
-0.351019
-0.330311
-0.446939
-0.438548
-0.430664
-0.421863
-0.412177
-0.401195
-0.388
-0.372394
-0.353562
-0.33497
-0.437172
-0.43003
-0.422862
-0.414753
-0.405961
-0.396314
-0.385097
-0.372072
-0.355642
-0.339433
-0.428241
-0.422265
-0.415767
-0.408247
-0.400151
-0.39154
-0.381933
-0.371274
-0.357236
-0.343754
-0.420158
-0.415244
-0.40936
-0.402342
-0.394778
-0.386962
-0.378627
-0.370066
-0.358337
-0.347962
-0.412934
-0.408958
-0.403625
-0.397034
-0.389873
-0.382649
-0.375297
-0.368548
-0.358924
-0.352193
-0.406577
-0.403404
-0.398551
-0.392324
-0.385469
-0.378675
-0.372055
-0.366828
-0.359075
-0.356304
-0.401083
-0.398588
-0.394138
-0.388224
-0.381612
-0.375121
-0.369021
-0.365053
-0.358772
-0.360599
-0.39647
-0.394493
-0.390386
-0.384751
-0.378349
-0.372081
-0.366351
-0.3633
-0.358127
-0.363663
-0.392722
-0.391101
-0.387291
-0.381919
-0.375725
-0.369644
-0.364236
-0.361555
-0.358401
-0.354879
-0.38979
-0.388386
-0.384837
-0.379728
-0.373765
-0.367888
-0.362811
-0.359989
-0.359463
-0.351507
-0.387608
-0.386298
-0.382987
-0.378154
-0.372468
-0.366849
-0.362143
-0.359076
-0.360976
-0.351702
-0.386086
-0.384771
-0.381683
-0.377148
-0.371797
-0.366517
-0.362225
-0.359098
-0.362527
-0.353001
-0.385119
-0.383729
-0.380849
-0.376638
-0.371683
-0.366826
-0.362989
-0.360079
-0.364078
-0.355325
-0.38459
-0.383083
-0.380403
-0.376541
-0.372036
-0.367678
-0.364342
-0.361901
-0.365855
-0.358921
-0.384378
-0.382745
-0.380262
-0.376767
-0.372753
-0.368955
-0.366169
-0.364366
-0.368072
-0.363557
-0.38437
-0.382628
-0.380345
-0.377229
-0.373732
-0.370534
-0.368342
-0.367262
-0.37079
-0.368766
-0.384462
-0.382653
-0.380575
-0.377845
-0.374877
-0.372295
-0.370722
-0.370389
-0.37391
-0.374122
-0.384566
-0.382748
-0.380887
-0.378541
-0.376098
-0.374126
-0.373174
-0.373563
-0.377239
-0.379317
-0.384608
-0.382855
-0.381222
-0.379254
-0.377317
-0.375929
-0.375573
-0.376629
-0.380558
-0.384136
-0.384533
-0.382923
-0.38153
-0.37993
-0.378469
-0.377619
-0.377811
-0.379453
-0.383669
-0.38842
-0.384303
-0.382916
-0.381774
-0.380524
-0.3795
-0.379131
-0.379803
-0.381933
-0.386413
-0.392046
-0.383897
-0.382811
-0.381928
-0.381007
-0.380374
-0.38042
-0.381491
-0.383997
-0.388679
-0.394923
-0.383315
-0.382599
-0.381979
-0.381365
-0.381074
-0.381464
-0.382845
-0.38561
-0.390403
-0.396981
-0.382571
-0.382285
-0.38193
-0.381599
-0.3816
-0.382265
-0.383863
-0.386769
-0.391563
-0.39816
-0.381699
-0.381892
-0.381797
-0.381723
-0.381975
-0.382844
-0.384574
-0.387509
-0.392144
-0.398493
-0.380753
-0.381452
-0.381614
-0.381775
-0.382235
-0.383249
-0.38503
-0.38788
-0.392187
-0.398248
-0.379795
-0.381018
-0.381429
-0.381804
-0.382436
-0.383543
-0.385306
-0.387972
-0.391834
-0.397315
-0.378903
-0.380649
-0.381299
-0.381869
-0.382644
-0.383805
-0.385492
-0.38789
-0.3912
-0.395836
-0.403507
-0.419527
-0.448083
-0.479644
-0.501356
-0.478844
-0.410633
-0.324965
-0.257052
-0.224559
-0.230405
-0.244676
-0.231509
-0.186179
-0.131362
-0.108887
-0.0888833
-0.0966382
-0.106317
-0.100804
-0.0880714
-0.0865235
-0.0614302
-0.0520522
-0.0527761
-0.0605051
-0.0612374
-0.0545452
-0.012389
-0.00398124
-0.399024
-0.410257
-0.432383
-0.456809
-0.473702
-0.451323
-0.38944
-0.312828
-0.253258
-0.229815
-0.243453
-0.261477
-0.244805
-0.19466
-0.134823
-0.108324
-0.0862251
-0.0915934
-0.0991885
-0.0942148
-0.085606
-0.0854813
-0.0612207
-0.0524456
-0.0534612
-0.0615333
-0.0611765
-0.0543094
-0.0127109
-0.00431402
-0.394663
-0.400735
-0.416
-0.43267
-0.444151
-0.421675
-0.366124
-0.298728
-0.247762
-0.233894
-0.255854
-0.277271
-0.25701
-0.202317
-0.137961
-0.107647
-0.0836553
-0.0867509
-0.0923588
-0.087689
-0.0830816
-0.0843389
-0.0610082
-0.0528466
-0.0541808
-0.0625683
-0.0610881
-0.0540451
-0.0130592
-0.00469032
-0.390673
-0.391327
-0.399452
-0.407834
-0.413251
-0.390307
-0.3407
-0.282612
-0.24046
-0.236615
-0.267432
-0.291834
-0.268068
-0.209145
-0.140784
-0.106891
-0.0812
-0.0821583
-0.0858839
-0.0812865
-0.0805119
-0.0831021
-0.0607974
-0.0532548
-0.0549329
-0.0636032
-0.0609714
-0.053751
-0.0134314
-0.00510524
-0.387261
-0.382356
-0.383216
-0.382897
-0.381624
-0.357649
-0.313348
-0.264448
-0.231296
-0.237833
-0.277969
-0.304978
-0.277936
-0.215151
-0.143304
-0.106086
-0.0788782
-0.0778517
-0.0798084
-0.0750669
-0.077912
-0.0817777
-0.0605921
-0.0536694
-0.0557151
-0.0646306
-0.0608257
-0.053426
-0.0138244
-0.00555489
-0.384578
-0.37409
-0.367706
-0.358458
-0.349949
-0.324252
-0.284395
-0.24427
-0.22028
-0.237443
-0.287209
-0.316547
-0.286575
-0.220347
-0.145531
-0.105259
-0.0767025
-0.0738545
-0.0741665
-0.0690887
-0.0752988
-0.0803734
-0.060396
-0.0540897
-0.0565248
-0.0656433
-0.0606501
-0.0530685
-0.014235
-0.00603441
-0.382729
-0.366756
-0.353303
-0.33509
-0.318916
-0.290776
-0.2543
-0.222245
-0.207493
-0.235381
-0.294888
-0.326415
-0.293955
-0.22475
-0.147478
-0.104436
-0.0746802
-0.0701777
-0.0689818
-0.0634063
-0.0726909
-0.0788978
-0.0602124
-0.0545146
-0.0573587
-0.0666336
-0.0604437
-0.0526769
-0.0146594
-0.00653839
-0.381754
-0.360523
-0.34032
-0.313304
-0.289188
-0.257954
-0.22368
-0.198695
-0.193099
-0.231628
-0.300761
-0.334466
-0.300059
-0.228383
-0.149156
-0.103637
-0.0728144
-0.0668212
-0.0642679
-0.0580687
-0.0701087
-0.0773601
-0.0600439
-0.054943
-0.0582132
-0.067594
-0.0602057
-0.0522496
-0.0150933
-0.00706097
-0.381628
-0.355487
-0.328989
-0.293521
-0.261368
-0.226541
-0.193307
-0.174088
-0.177352
-0.226214
-0.30463
-0.340633
-0.304881
-0.231271
-0.150578
-0.10288
-0.071104
-0.0637745
-0.0600281
-0.0531155
-0.0675746
-0.0757697
-0.0598928
-0.0553734
-0.0590843
-0.0685166
-0.059935
-0.0517851
-0.0155323
-0.00759586
-0.382272
-0.351672
-0.319456
-0.276059
-0.235952
-0.197454
-0.164027
-0.149057
-0.160593
-0.219217
-0.306369
-0.345436
-0.308427
-0.233442
-0.151754
-0.102178
-0.0695455
-0.0610197
-0.0562556
-0.0485776
-0.0651126
-0.0741359
-0.0597606
-0.0558041
-0.0599674
-0.0693941
-0.0596307
-0.0512817
-0.0159713
-0.00813647
-0.383585
-0.349035
-0.311773
-0.261122
-0.213317
-0.175408
-0.136635
-0.124362
-0.143222
-0.210767
-0.305911
-0.347835
-0.310701
-0.234929
-0.152698
-0.101542
-0.0681337
-0.0585338
-0.0529339
-0.0444719
-0.062747
-0.0724676
-0.0596484
-0.0562332
-0.0608573
-0.0702191
-0.0592919
-0.0507382
-0.0164053
-0.00867603
-0.385452
-0.347398
-0.305896
-0.248815
-0.193552
-0.149581
-0.111683
-0.100754
-0.12568
-0.201032
-0.303287
-0.348274
-0.311724
-0.235764
-0.153422
-0.100984
-0.0668642
-0.0562917
-0.0500378
-0.0408017
-0.0605018
-0.0707728
-0.0595568
-0.0566584
-0.0617486
-0.0709843
-0.0589177
-0.0501533
-0.0168292
-0.00920775
-0.387222
-0.346461
-0.301704
-0.239172
-0.177037
-0.126894
-0.0898596
-0.0788997
-0.108413
-0.19022
-0.298595
-0.346829
-0.311531
-0.235987
-0.153947
-0.100512
-0.0657331
-0.0542683
-0.0475332
-0.0375609
-0.0583992
-0.0690579
-0.0594854
-0.0570771
-0.0626356
-0.0716828
-0.0585072
-0.0495259
-0.0172376
-0.00972505
-0.388436
-0.346411
-0.298914
-0.232101
-0.163933
-0.108578
-0.0714841
-0.0593602
-0.0918387
-0.178562
-0.291998
-0.343593
-0.310161
-0.235632
-0.154279
-0.100122
-0.0647298
-0.0524367
-0.0453727
-0.0347358
-0.0564594
-0.0673273
-0.0594335
-0.0574867
-0.0635124
-0.0723084
-0.0580597
-0.0488552
-0.0176248
-0.0102217
-0.389319
-0.346921
-0.297291
-0.227211
-0.154111
-0.0956179
-0.0557195
-0.0425211
-0.0763154
-0.166304
-0.283712
-0.338687
-0.307662
-0.234711
-0.154391
-0.0997749
-0.0638276
-0.0507679
-0.0434957
-0.0323033
-0.0546986
-0.0655829
-0.0593995
-0.0578838
-0.0643729
-0.0728568
-0.0575748
-0.0481407
-0.0179845
-0.0106916
-0.389694
-0.347466
-0.296636
-0.224893
-0.148022
-0.0854351
-0.0436901
-0.0285987
-0.0621273
-0.153697
-0.273982
-0.332286
-0.304111
-0.233227
-0.154258
-0.0994422
-0.0630114
-0.049246
-0.0418527
-0.0302329
-0.0531227
-0.0638229
-0.0593813
-0.0582652
-0.0652113
-0.0733251
-0.0570518
-0.0473834
-0.0183135
-0.0111297
-0.389378
-0.347798
-0.296459
-0.224271
-0.144933
-0.0789884
-0.0352722
-0.0176539
-0.049483
-0.140989
-0.263081
-0.32458
-0.299634
-0.231327
-0.154056
-0.0992789
-0.0623706
-0.0479006
-0.0404529
-0.0285201
-0.0517318
-0.0620404
-0.0593756
-0.0586267
-0.0660204
-0.073698
-0.0564874
-0.0465842
-0.0186169
-0.0115322
-0.388267
-0.347779
-0.296648
-0.225178
-0.144608
-0.075842
-0.030157
-0.00969381
-0.0384829
-0.128394
-0.251254
-0.315439
-0.294279
-0.229379
-0.154225
-0.0996263
-0.0620915
-0.046782
-0.0393222
-0.0272164
-0.0505969
-0.0602249
-0.0593782
-0.0589616
-0.0667793
-0.0739303
-0.0558765
-0.0457425
-0.0189013
-0.0118969
-0.386823
-0.347767
-0.297673
-0.228172
-0.147654
-0.0764478
-0.0280476
-0.00483432
-0.0292126
-0.115856
-0.238237
-0.304462
-0.287718
-0.227136
-0.154435
-0.100125
-0.0619501
-0.0457524
-0.0382092
-0.0262447
-0.0498729
-0.0583812
-0.0593868
-0.0592563
-0.0674649
-0.0740213
-0.0552312
-0.0448596
-0.0191353
-0.0122125
-0.38377
-0.345581
-0.296761
-0.229993
-0.150976
-0.079105
-0.0321811
-0.00255247
-0.0228451
-0.104652
-0.225241
-0.293767
-0.2798
-0.222312
-0.151968
-0.0985014
-0.0606331
-0.0442976
-0.0363571
-0.0249994
-0.048867
-0.0563889
-0.0593957
-0.059585
-0.0682883
-0.0742813
-0.0546022
-0.0439448
-0.0192035
-0.0124464
-0.368671
-0.336839
-0.288459
-0.222657
-0.144841
-0.0733812
-0.0261298
0.000941067
-0.0171724
-0.0978348
-0.219594
-0.288029
-0.271496
-0.213733
-0.145529
-0.0936505
-0.0573499
-0.0420697
-0.0331691
-0.0223395
-0.0440767
-0.0523391
-0.0592745
-0.0607535
-0.0702297
-0.0754247
-0.0538798
-0.0428271
-0.0190383
-0.0126747
-0.35018
-0.32038
-0.272683
-0.210577
-0.137994
-0.0710046
-0.0276936
-0.00280203
-0.0195743
-0.0950037
-0.208886
-0.272181
-0.254921
-0.200193
-0.136772
-0.0882266
-0.0541975
-0.0393333
-0.0300263
-0.0217714
-0.0425376
-0.0505393
-0.0593592
-0.0615516
-0.070859
-0.0758093
-0.052256
-0.0410791
-0.01889
-0.0133164
-0.331404
-0.302748
-0.256533
-0.19919
-0.133011
-0.0712759
-0.0315427
-0.00994452
-0.0263484
-0.0952958
-0.197509
-0.254204
-0.236925
-0.186284
-0.128032
-0.0827981
-0.0509189
-0.0365378
-0.0269561
-0.0213341
-0.0411324
-0.0497967
-0.0594811
-0.0620488
-0.0709365
-0.0757276
-0.0503962
-0.0390916
-0.0186915
-0.0140187
-0.31236
-0.284992
-0.241093
-0.18906
-0.129889
-0.0737351
-0.0377424
-0.0189911
-0.0342657
-0.095587
-0.185041
-0.234578
-0.217977
-0.171859
-0.11898
-0.0771986
-0.0475214
-0.03365
-0.0238855
-0.0207769
-0.039429
-0.0488948
-0.059518
-0.0625855
-0.0709691
-0.0752423
-0.0483316
-0.0367953
-0.0184101
-0.0147009
-0.292461
-0.26731
-0.22648
-0.179871
-0.127878
-0.0784476
-0.0453077
-0.0289266
-0.0423062
-0.0950375
-0.171224
-0.213532
-0.198445
-0.157279
-0.109833
-0.0715029
-0.0440061
-0.0306488
-0.0207379
-0.0200517
-0.0375169
-0.0476754
-0.0594917
-0.0632359
-0.0708486
-0.0742387
-0.0460108
-0.0341817
-0.0180048
-0.0153563
-0.272018
-0.249923
-0.21271
-0.171346
-0.126234
-0.0827077
-0.0531051
-0.0387232
-0.0497448
-0.0934642
-0.156482
-0.191906
-0.178989
-0.142908
-0.10072
-0.0657563
-0.0403736
-0.0275107
-0.0174609
-0.0190495
-0.0353533
-0.0462577
-0.0593679
-0.0638697
-0.0703856
-0.0726239
-0.0434017
-0.031233
-0.0174309
-0.0159672
-0.251731
-0.232996
-0.199738
-0.163295
-0.124521
-0.0866915
-0.0603651
-0.047596
-0.0560149
-0.0909728
-0.141578
-0.170733
-0.160229
-0.129054
-0.0917774
-0.0600143
-0.036627
-0.024213
-0.0139958
-0.0176316
-0.0328003
-0.0446421
-0.0589846
-0.0643317
-0.069465
-0.0703182
-0.0404728
-0.0279378
-0.0166395
-0.0164989
-0.232003
-0.216606
-0.187467
-0.155583
-0.122464
-0.089942
-0.0666079
-0.0550921
-0.0608991
-0.0878858
-0.127535
-0.150927
-0.142644
-0.115942
-0.0831072
-0.0543235
-0.0327696
-0.0207335
-0.0102803
-0.0156373
-0.0296445
-0.0426557
-0.0581141
-0.0644961
-0.0679785
-0.0672432
-0.0371931
-0.0242865
-0.0155769
-0.0169059
-0.213073
-0.200813
-0.175741
-0.148081
-0.119916
-0.0921901
-0.0715962
-0.0610552
-0.0644637
-0.0845421
-0.114816
-0.133071
-0.126519
-0.103708
-0.0747857
-0.0487252
-0.0288075
-0.0170534
-0.00625229
-0.0128698
-0.025588
-0.0399924
-0.0565151
-0.0642156
-0.0657958
-0.0633307
-0.0335358
-0.0202742
-0.0141854
-0.0171345
-0.195114
-0.185666
-0.164476
-0.1407
-0.116832
-0.0933476
-0.0752728
-0.0655195
-0.066874
-0.0811741
-0.103659
-0.117364
-0.111956
-0.0924112
-0.0668647
-0.043255
-0.0247523
-0.0131615
-0.00185667
-0.00910001
-0.0202388
-0.0362378
-0.0539351
-0.0632885
-0.0627831
-0.0585316
-0.029482
-0.0159025
-0.0124038
-0.017122
-0.178202
-0.171195
-0.1536
-0.133379
-0.113226
-0.0934401
-0.0776726
-0.0685974
-0.0682841
-0.0779388
-0.0940006
-0.103735
-0.0989336
-0.0820583
-0.0593784
-0.0379444
-0.0206234
-0.00906016
0.00294399
-0.00408622
-0.0131348
-0.0308661
-0.0501227
-0.0614703
-0.0588224
-0.0528266
-0.0250249
-0.0111819
-0.0101702
-0.0167976
-0.162344
-0.157413
-0.14307
-0.126078
-0.109146
-0.0925481
-0.0788779
-0.0704253
-0.0688017
-0.0747269
-0.0856475
-0.0919808
-0.0873608
-0.072624
-0.0523487
-0.0328225
-0.0164524
-0.00477468
0.00815
0.00238337
-0.00380968
-0.0232551
-0.0448903
-0.0585033
-0.05381
-0.0462387
-0.0201757
-0.00613542
-0.0074262
-0.0160837
-0.147529
-0.144336
-0.132872
-0.118785
-0.10465
-0.0907798
-0.0789963
-0.0711439
-0.0685301
-0.0715377
-0.0783715
-0.0818493
-0.077117
-0.0640642
-0.0457897
-0.0279172
-0.0122861
-0.000358055
0.0136936
0.0104091
0.00808432
-0.012788
-0.0381988
-0.0541579
-0.0477344
-0.0388454
-0.0149677
-0.000803323
-0.00412579
-0.0149011
-0.133735
-0.131971
-0.123009
-0.111506
-0.0998006
-0.0882558
-0.0781504
-0.0708934
-0.0675693
-0.0683315
-0.0719581
-0.0730917
-0.0680726
-0.0563257
-0.0397106
-0.0232535
-0.00818953
0.0041094
0.0194087
0.0198214
0.0225285
0.000884144
-0.0302306
-0.0482902
-0.0407017
-0.0307928
-0.00946017
0.00475197
-0.000246537
-0.0131759
-0.120929
-0.120321
-0.1135
-0.104265
-0.0946676
-0.0851008
-0.076471
-0.0698125
-0.06601
-0.0650842
-0.0662338
-0.0654849
-0.0601002
-0.0493508
-0.0341173
-0.0188518
-0.00423992
0.00851743
0.0250362
0.0299881
0.0386354
0.0173462
-0.0213789
-0.0408773
-0.0328641
-0.0222974
-0.00374215
0.0104455
0.00419744
-0.0108517
-0.10908
-0.109387
-0.104371
-0.0971006
-0.0893244
-0.0814391
-0.0740979
-0.0680266
-0.0639484
-0.0617877
-0.0610626
-0.0588378
-0.0530795
-0.0430816
-0.0290118
-0.0147301
-0.000514451
0.012721
0.0302722
0.0397915
0.0540707
0.0348483
-0.0119831
-0.0320023
-0.0244687
-0.0136363
0.0020658
0.0161763
0.00913554
-0.00790647
-0.0981527
-0.0991649
-0.0956499
-0.0900591
-0.0838479
-0.0773931
-0.0711734
-0.0656613
-0.0614694
-0.0584481
-0.0563408
-0.0529903
-0.046899
-0.0374623
-0.02439
-0.0109096
0.00291897
0.016554
0.034804
0.048018
0.0660729
0.0506077
-0.0019773
-0.0218804
-0.015843
-0.00512134
0.00781662
0.0218241
0.0144217
-0.00437528
-0.0881106
-0.0896516
-0.0873663
-0.0831935
-0.0783171
-0.0730781
-0.0678307
-0.062865
-0.0586713
-0.0550842
-0.0519919
-0.0478114
-0.0414578
-0.0324417
-0.02024
-0.00742028
0.00600222
0.0198595
0.0383359
0.0538405
0.0728461
0.0623011
0.00879077
-0.011016
-0.00737608
0.00293819
0.0133355
0.0272331
0.0198213
-0.000376737
-0.0789188
-0.0808401
-0.0795483
-0.0765575
-0.0728106
-0.0686021
-0.064194
-0.0597485
-0.0556477
-0.0517226
-0.0479613
-0.0431968
-0.0366659
-0.0279746
-0.0165429
-0.00429607
0.00868626
0.0225231
0.0406807
0.0569842
0.0745331
0.0690408
0.019653
-0.000267428
0.000563271
0.0102792
0.0184398
0.032192
0.0250006
0.00386487
-0.0705432
-0.072723
-0.0722221
-0.0702044
-0.0674048
-0.0640666
-0.0603812
-0.0564223
-0.0524842
-0.0483954
-0.0442129
-0.0390658
-0.0324444
-0.0240211
-0.0132762
-0.00156359
0.0109384
0.0244992
0.0418267
0.0573365
0.0728339
0.0713304
0.0292883
0.00949779
0.00771621
0.0167221
0.0229796
0.0364322
0.0295448
0.00801367
-0.0629523
-0.0652929
-0.0654115
-0.0641854
-0.0621726
-0.0595654
-0.0565008
-0.0529908
-0.0492617
-0.0451394
-0.0407255
-0.0353582
-0.0287266
-0.020545
-0.0104166
0.00076819
0.0127511
0.0258126
0.0419477
0.0562981
0.0694458
0.0703959
0.0367154
0.0177807
0.0139623
0.0221775
0.0268667
0.039674
0.033025
0.0116575
-0.0561182
-0.0585432
-0.0591388
-0.0585486
-0.0571825
-0.0551854
-0.0526511
-0.0495504
-0.0460566
-0.0419945
-0.0374903
-0.0320312
-0.0254578
-0.017513
-0.00794078
0.00271108
0.0141407
0.0265434
0.0412918
0.0543555
0.065423
0.067544
0.0417046
0.0244457
0.0193083
0.0266236
0.0300688
0.0417259
0.0351411
0.0144123
-0.0500172
-0.0524691
-0.0534249
-0.0533389
-0.0524993
-0.0510072
-0.0489212
-0.0461896
-0.0429408
-0.0390024
-0.0345089
-0.0290559
-0.0225946
-0.0148926
-0.00582482
0.00429361
0.0151452
0.0268029
0.0401283
0.0519271
0.0613039
0.0638206
0.0446487
0.0295989
0.0238067
0.030086
0.032602
0.0424868
0.0356168
0.0160694
-0.0446315
-0.047069
-0.0482907
-0.0485992
-0.0481831
-0.0471051
-0.0453946
-0.042991
-0.0399831
-0.0362064
-0.0317914
-0.026415
-0.0201044
-0.0126526