/*--------------------------------*- C++ -*----------------------------------*\
  =========                 |
  \\      /  F ield         | OpenFOAM: The Open Source CFD Toolbox
   \\    /   O peration     | Website:  https://openfoam.org
    \\  /    A nd           | Version:  7
     \\/     M anipulation  |
\*---------------------------------------------------------------------------*/
FoamFile
{
    version     2.0;
    format      ascii;
    class       surfaceScalarField;
    location    "100";
    object      phi;
}
// * * * * * * * * * * * * * * * * * * * * * * * * * * * * * * * * * * * * * //

dimensions      [0 3 -1 0 0 0 0];

internalField   nonuniform List<scalar> 
16735
(
-8.9176e-05
-0.000974227
0.0010634
-0.000324057
-0.00279033
0.00302521
-0.000689835
-0.0045191
0.00488488
-0.00116749
-0.00607894
0.00655659
-0.00173298
-0.00749068
0.00805617
-0.00236071
-0.00886153
0.00948926
-0.0030299
-0.0103307
0.0109998
-0.0037319
-0.0120128
0.0127148
-0.00447399
-0.0139673
0.0147094
-0.0161835
0.0169906
-0.00528109
-0.000109845
-0.000864382
-0.000390824
-0.00250935
-0.000819271
-0.00409066
-0.00137013
-0.00552808
-0.00201665
-0.00684417
-0.00273373
-0.00814444
-0.00350389
-0.0095605
-0.00432444
-0.0111923
-0.00521183
-0.0130799
-0.0151906
-0.0062047
-0.000128602
-0.00073578
-0.000450669
-0.00218728
-0.000933888
-0.00360744
-0.00154731
-0.00491466
-0.00226124
-0.00613023
-0.00305016
-0.00735553
-0.00389764
-0.00871301
-0.00480351
-0.0102864
-0.00578943
-0.012094
-0.0140769
-0.00690315
-0.000144699
-0.000591081
-0.000501457
-0.00183052
-0.00103
-0.0030789
-0.00169384
-0.00425082
-0.00246023
-0.00536384
-0.00330213
-0.00651362
-0.00420184
-0.00781331
-0.00515775
-0.00933052
-0.0061921
-0.0110597
-0.0129125
-0.00735651
-0.000157449
-0.000433632
-0.000541262
-0.00144671
-0.00110429
-0.00251587
-0.00180508
-0.00355002
-0.00260774
-0.00456118
-0.00348275
-0.00563861
-0.00440867
-0.00688739
-0.00537833
-0.00836085
-0.00640919
-0.0100288
-0.0117714
-0.00755026
-0.00016626
-0.000267372
-0.000568415
-0.00104456
-0.00115385
-0.00193044
-0.00187686
-0.00282701
-0.0026984
-0.00373964
-0.00358559
-0.00475143
-0.00451103
-0.00596195
-0.00545772
-0.00741416
-0.00643256
-0.00905396
-0.0107311
-0.00747293
-0.000170658
-9.67139e-05
-0.000581557
-0.000633657
-0.00117623
-0.00133577
-0.00190548
-0.00209775
-0.00272714
-0.00291798
-0.00360426
-0.00387431
-0.00450161
-0.0050646
-0.0053883
-0.00652748
-0.00625474
-0.00818752
-0.00987218
-0.00711363
-0.000170316
7.36023e-05
-0.000579708
-0.000224266
-0.00116953
-0.000745944
-0.0018878
-0.00137948
-0.00268918
-0.0021166
-0.00353212
-0.00303137
-0.00437219
-0.00422453
-0.00516097
-0.00573869
-0.00586708
-0.00748141
-0.00927832
-0.00646094
-0.000165099
0.000238701
-0.00056237
0.000173006
-0.00113256
-0.000175749
-0.00182142
-0.000690633
-0.00258026
-0.00135776
-0.00336236
-0.00224927
-0.00411327
-0.00347362
-0.00476426
-0.0050877
-0.00525813
-0.00698754
-0.00903325
-0.00550321
-0.00015509
0.000393791
-0.000529639
0.000547554
-0.00106506
0.000359668
-0.00170505
-5.06381e-05
-0.00239707
-0.000665731
-0.00308849
-0.00155785
-0.00371445
-0.00284767
-0.00418426
-0.00461789
-0.00441261
-0.00675919
-0.00921519
-0.00423066
-0.000140644
0.000534436
-0.000482282
0.000889191
-0.000967888
0.000845273
-0.00153898
0.000520455
-0.00213812
-6.65873e-05
-0.00270556
-0.000990417
-0.00316566
-0.00238757
-0.0034056
-0.00437796
-0.00331099
-0.0068538
-0.00988474
-0.00264144
-0.000122382
0.000656818
-0.000421859
0.00118867
-0.000843315
0.00126673
-0.00132549
0.00100263
-0.00180464
0.000412562
-0.00221183
-0.000583228
-0.00245989
-0.00213951
-0.00241323
-0.00442462
-0.00192279
-0.00734424
-0.0110386
-0.000768892
-0.000101187
0.000758005
-0.000350678
0.00143816
-0.000695029
0.00161108
-0.00106924
0.00137684
-0.00140136
0.000744686
-0.00161071
-0.000373883
-0.0015979
-0.00215231
-0.00120549
-0.00481703
-0.000134988
-0.00841474
-0.0127008
0.00152716
-7.81525e-05
0.000836157
-0.000271686
0.00163169
-0.000528002
0.0018674
-0.00077709
0.00162593
-0.000936645
0.00090424
-0.000911072
-0.000399456
-0.000586443
-0.00247694
0.000164611
-0.00556808
0.00175684
-0.010007
-0.0151419
0.00419799
-5.44841e-05
0.000890642
-0.000188221
0.00176543
-0.000348083
0.00202726
-0.000457563
0.00173541
-0.000421764
0.000868441
-0.000128089
-0.000693131
0.000563307
-0.00316834
0.00181996
-0.00682473
0.00396877
-0.0121558
-0.0182867
0.00711348
-3.13692e-05
0.000922011
-0.000103642
0.0018377
-0.000161282
0.0020849
-0.000119797
0.00169393
0.000129956
0.000618688
0.000723771
-0.00128695
0.00182068
-0.00426525
0.0036007
-0.00860475
0.0064078
-0.0149629
-0.0220595
0.0101806
-9.82724e-06
0.000931838
-2.08322e-05
0.00184871
2.68639e-05
0.0020372
0.000228375
0.00149241
0.000709268
0.000137795
0.00162593
-0.00220361
0.00316405
-0.00580336
0.00550817
-0.0109489
0.00898616
-0.0184409
-0.0263424
0.0132691
9.44739e-06
0.000922391
5.79728e-05
0.00180018
0.000213219
0.00188196
0.000581413
0.00112422
0.00130655
-0.000587337
0.00256843
-0.00346549
0.00457439
-0.00780933
0.00751584
-0.0138903
0.0116113
-0.0225363
-0.0309766
0.0162455
2.61465e-05
0.000896244
0.000132095
0.00169423
0.000395753
0.0016183
0.000937533
0.000582441
0.00192102
-0.00157082
0.00354891
-0.00509339
0.00604209
-0.0103025
0.0095971
-0.0174453
0.0141904
-0.0271296
-0.0357858
0.0189996
4.04826e-05
0.000855762
0.000202006
0.00153271
0.000575912
0.00124439
0.00129933
-0.000140975
0.0025568
-0.00282829
0.00457127
-0.00710786
0.00756241
-0.0132936
0.0117051
-0.021588
0.0166529
-0.0320775
-0.04062
0.0214872
5.31018e-05
0.00080266
0.000269586
0.00131623
0.000757424
0.000756554
0.00167302
-0.00105657
0.00322214
-0.00437741
0.00564116
-0.00952688
0.00912538
-0.0167779
0.013754
-0.0262166
0.0189506
-0.0372741
-0.0475313
0.0258618
6.5035e-05
0.000737625
0.000337845
0.00104342
0.000945975
0.000148423
0.00206717
-0.00217777
0.00392644
-0.00623668
0.0067599
-0.0123603
0.0107073
-0.0207252
0.015685
-0.0311943
0.0211425
-0.0427316
-0.0537957
0.0274069
7.75495e-05
0.000660075
0.00041045
0.000710516
0.00114821
-0.000589332
0.00249071
-0.00352027
0.00467644
-0.00842241
0.00791881
-0.0156027
0.0122619
-0.0250683
0.0174356
-0.036368
0.0228792
-0.0481752
-0.0593264
0.0284098
9.19747e-05
0.000568101
0.00049119
0.0003113
0.0013705
-0.00146864
0.00295063
-0.0051004
0.0054723
-0.0109441
0.00909536
-0.0192258
0.0137287
-0.0297017
0.0189322
-0.0415715
0.0241155
-0.0533584
-0.0642095
0.0289986
0.000109524
0.000458577
0.000583385
-0.000162561
0.00161779
-0.00250305
0.0034498
-0.00693241
0.00630454
-0.0137988
0.0102523
-0.0231736
0.0150423
-0.0344917
0.020108
-0.0466372
0.0248904
-0.0581409
-0.0684516
0.0291326
0.000131147
0.00032743
0.00068941
-0.000720824
0.00189253
-0.00370617
0.00398534
-0.00902522
0.00715295
-0.0169664
0.0113419
-0.0273625
0.0161432
-0.039293
0.0209307
-0.0514247
0.0252277
-0.0624379
-0.0720888
0.0288649
0.000157438
0.000169992
0.00081038
-0.00137377
0.00219407
-0.00508986
0.00454795
-0.0113791
0.00798792
-0.0204064
0.0123133
-0.0316879
0.016988
-0.0439677
0.021396
-0.0558327
0.0251787
-0.0662206
-0.075182
0.0282719
0.000188604
-1.86114e-05
0.00094603
-0.00213119
0.00251849
-0.00666232
0.00512219
-0.0139828
0.00877416
-0.0240584
0.0131222
-0.0360359
0.0175548
-0.0484002
0.021524
-0.0598019
0.0248016
-0.0694983
-0.077798
0.0274176
0.000224492
-0.000243104
0.00109478
-0.00300148
0.00285878
-0.00842632
0.00568788
-0.0168119
0.0094758
-0.0278463
0.0137364
-0.0402966
0.0178422
-0.052506
0.02135
-0.0633098
0.0241558
-0.0723041
-0.0800061
0.0263639
0.000264653
-0.000507757
0.00125388
-0.0039907
0.0032054
-0.0103779
0.00622221
-0.0198287
0.0100615
-0.0316855
0.0141394
-0.0443745
0.0178654
-0.0562319
0.0209171
-0.0663615
0.0232969
-0.0746839
-0.081869
0.0251599
0.0003084
-0.000816157
0.00141967
-0.00510197
0.00354697
-0.0125052
0.00670234
-0.0229841
0.010508
-0.0354912
0.014329
-0.0481955
0.0176502
-0.0595532
0.0202697
-0.0689809
0.0222734
-0.0766877
-0.0834412
0.0238455
0.000354875
-0.00117103
0.00158779
-0.00633488
0.00387114
-0.0147885
0.0071079
-0.0262208
0.0108021
-0.0391854
0.0143145
-0.0517079
0.0172281
-0.0624668
0.0194497
-0.0712025
0.0211259
-0.0783639
-0.0847666
0.0224514
0.000403086
-0.00157412
0.0017534
-0.0076852
0.00416559
-0.0172007
0.00742295
-0.0294782
0.01094
-0.0427025
0.0141134
-0.0548813
0.0166321
-0.0649855
0.0184948
-0.0730652
0.0198872
-0.0797562
-0.0858798
0.0210004
0.000451935
-0.00202605
0.00191142
-0.00914468
0.00441894
-0.0197082
0.00763711
-0.0326964
0.0109262
-0.0459916
0.0137476
-0.0577027
0.015894
-0.0671319
0.017437
-0.0746081
0.0185828
-0.0809021
-0.0868069
0.0195099
0.000500238
-0.00252629
0.00205672
-0.0107012
0.00462166
-0.0222731
0.00774569
-0.0358204
0.0107709
-0.0490168
0.0132409
-0.0601728
0.0150429
-0.0689339
0.0163027
-0.075868
0.0172327
-0.081832
-0.0875665
0.0179924
0.000546759
-0.00307305
0.00218444
-0.0123388
0.00476665
-0.0248554
0.00774919
-0.0388029
0.010488
-0.0517556
0.0126168
-0.0623015
0.0141043
-0.0704214
0.0151136
-0.0768773
0.0158519
-0.0825703
-0.088172
0.0164573
0.000590242
-0.00366329
0.00229021
-0.0140388
0.00484957
-0.0274147
0.00765226
-0.0416056
0.0100936
-0.0541969
0.0118975
-0.0641054
0.0130998
-0.0716237
0.0138865
-0.0776639
0.0144517
-0.0831356
-0.0886321
0.0149118
0.000629457
-0.00429275
0.00237043
-0.0157798
0.00486888
-0.0299132
0.00746259
-0.0441993
0.0096043
-0.0563386
0.011103
-0.0656041
0.0120478
-0.0725685
0.0126347
-0.0782509
0.0130407
-0.0835415
-0.0889526
0.0133613
0.000663255
-0.004956
0.00242241
-0.0175389
0.00482552
-0.0323163
0.00718974
-0.0465636
0.00903625
-0.0581851
0.0102511
-0.0668189
0.0109628
-0.0732803
0.0113687
-0.0786568
0.0116255
-0.0837983
-0.0891374
0.0118103
0.000690609
-0.00564661
0.00244451
-0.0192928
0.00472249
-0.0345943
0.00684427
-0.0486853
0.00840461
-0.0597455
0.00935674
-0.067771
0.00985702
-0.0737805
0.0100965
-0.0788963
0.0102111
-0.083913
-0.0891888
0.0102626
0.000710661
-0.00635728
0.00243612
-0.0210183
0.00456431
-0.0367225
0.00643698
-0.050558
0.00772313
-0.0610316
0.00843281
-0.0684807
0.00873987
-0.0740876
0.00882414
-0.0789805
0.00880155
-0.0838904
-0.0891083
0.0087211
0.000722748
-0.00708002
0.0023976
-0.0226931
0.0043565
-0.0386814
0.00597839
-0.0521799
0.00700398
-0.0620572
0.00748991
-0.0689667
0.00761894
-0.0742166
0.00755655
-0.0789181
0.00739996
-0.0837338
-0.0888961
0.00718773
0.000726417
-0.00780644
0.00233016
-0.0242969
0.00410514
-0.0404563
0.00547842
-0.0535532
0.00625777
-0.0628366
0.00653679
-0.0692457
0.00650021
-0.07418
0.00629736
-0.0787153
0.00600885
-0.0834453
-0.0885516
0.00566435
0.000721432
-0.00852787
0.00223567
-0.0258111
0.00381648
-0.0420372
0.00494616
-0.0546828
0.00549361
-0.063384
0.00558062
-0.0693327
0.00538848
-0.0739879
0.00504952
-0.0783763
0.00463007
-0.0830258
-0.0880737
0.00415217
0.000707764
-0.00923564
0.00211645
-0.0272198
0.00349667
-0.0434174
0.00438977
-0.0555759
0.00471922
-0.0637135
0.00462731
-0.0692408
0.00428784
-0.0736484
0.003816
-0.0779045
0.00326504
-0.0824749
-0.08746
0.00265129
0.000685587
-0.00992122
0.00197516
-0.0285094
0.00315159
-0.0445938
0.00381645
-0.0562408
0.00394105
-0.0638381
0.00368159
-0.0689813
0.00320174
-0.0731686
0.00260059
-0.0773033
0.00191584
-0.0817901
-0.0867012
0.00115705
0.000655283
-0.0105765
0.00181487
-0.029669
0.00278674
-0.0455657
0.00323247
-0.0566865
0.00316447
-0.0637701
0.0027472
-0.068564
0.0021327
-0.0725541
0.00140608
-0.0765767
0.00059374
-0.0809778
-0.0857733
-0.00033411
0.000617392
-0.0111939
0.00163855
-0.0306901
0.00240717
-0.0463343
0.00264326
-0.0569226
0.00239391
-0.0635207
0.00182714
-0.0679973
0.00108278
-0.0718097
0.000224526
-0.0757185
-0.00070768
-0.0800456
-0.0847446
-0.00173635
0.000572579
-0.0117665
0.00144909
-0.0315666
0.00201747
-0.0469027
0.0020535
-0.0569587
0.00163298
-0.0631002
0.000923933
-0.0672882
4.57254e-05
-0.0709315
-0.000922011
-0.0747507
-0.00199176
-0.0789758
-0.0835988
-0.00313759
0.000521613
-0.0122881
0.00124924
-0.0322943
0.00162177
-0.0472752
0.00146712
-0.056804
0.000884392
-0.0625175
3.57369e-05
-0.0664396
-0.000951909
-0.0699439
-0.00204796
-0.0736547
-0.00324357
-0.0777802
-0.0823241
-0.00451825
0.000465352
-0.0127534
0.00104167
-0.0328706
0.00122369
-0.0474572
0.000887321
-0.0564676
0.000151762
-0.0617819
-0.000821132
-0.0654667
-0.00193337
-0.0688316
-0.00314952
-0.0724385
-0.00446792
-0.0764618
-0.0809203
-0.00587172
0.000404705
-0.0131581
0.000829136
-0.033295
0.000826161
-0.0474543
0.000318141
-0.0559596
-0.000563246
-0.0609005
-0.00166158
-0.0643683
-0.00289067
-0.0676025
-0.00422418
-0.071105
-0.00566421
-0.0750218
-0.0793891
-0.00719545
0.000340498
-0.0134986
0.000614392
-0.0335689
0.000432505
-0.0472724
-0.000240067
-0.055287
-0.00126012
-0.0598805
-0.00247948
-0.063149
-0.00382234
-0.0662597
-0.00527075
-0.0696566
-0.00683091
-0.0734616
-0.0777328
-0.0084872
0.00027368
-0.0137723
0.000399098
-0.0336943
5.8149e-05
-0.0469314
-0.00078491
-0.054444
-0.00193822
-0.0587272
-0.00327382
-0.0618134
-0.00472755
-0.0648059
-0.00628841
-0.0680958
-0.00796663
-0.0717834
-0.0759553
-0.00974415
0.000206245
-0.0139786
0.000185072
-0.0336732
-0.000340311
-0.046406
-0.00131761
-0.0534667
-0.00259587
-0.0574489
-0.00404375
-0.0603655
-0.00560557
-0.0632441
-0.00727648
-0.0664249
-0.00906995
-0.06999
-0.0740629
-0.0109623
0.000137503
-0.0141161
-7.55668e-06
-0.0335281
-0.000715293
-0.0456983
-0.00183565
-0.0523463
-0.00323252
-0.056052
-0.00478857
-0.0588094
-0.00645575
-0.0615769
-0.00823419
-0.0646464
-0.0101396
-0.0680845
-0.0720609
-0.0121417
6.23112e-05
-0.0141784
-0.000248929
-0.0332169
-0.00108251
-0.0448647
-0.00233622
-0.0510926
-0.00384735
-0.0545409
-0.00550785
-0.0571489
-0.00727768
-0.0598071
-0.00916099
-0.0627631
-0.0111757
-0.0660698
-0.0699462
-0.0132905
-1.59568e-05
-0.0141624
-0.000464417
-0.0327684
-0.00143912
-0.04389
-0.00281857
-0.0497132
-0.00443931
-0.0529202
-0.00620117
-0.0553871
-0.00807173
-0.0579365
-0.010058
-0.0607768
-0.0121776
-0.0639502
-0.0677175
-0.0144062
-8.57324e-05
-0.0140767
-0.000670966
-0.0321832
-0.00178331
-0.0427777
-0.00328241
-0.0482141
-0.00500779
-0.0511948
-0.00686799
-0.0535269
-0.00883857
-0.055966
-0.0109288
-0.0586866
-0.0131404
-0.0617386
-0.0653918
-0.0154662
-0.000157524
-0.0139192
-0.000870632
-0.0314701
-0.00211422
-0.0415341
-0.00372699
-0.0466013
-0.00555209
-0.0493697
-0.00750726
-0.0515717
-0.00957608
-0.0538971
-0.0117717
-0.056491
-0.0141031
-0.0594072
-0.063118
-0.0163769
-0.00022826
-0.0136909
-0.00106354
-0.0306348
-0.00243132
-0.0401663
-0.00415176
-0.0448809
-0.00607175
-0.0474497
-0.00811794
-0.0495255
-0.0102792
-0.0517359
-0.0125564
-0.0542137
-0.0149121
-0.0570515
-0.0603154
-0.0177148
-0.000297238
-0.0133937
-0.00124925
-0.0296828
-0.00273419
-0.0386814
-0.00455633
-0.0430587
-0.00656659
-0.0454394
-0.00869944
-0.0473927
-0.0109444
-0.0494909
-0.0132975
-0.0518607
-0.0157768
-0.0545721
-0.0575344
-0.0185579
-0.000364071
-0.0130296
-0.00142723
-0.0286196
-0.00302246
-0.0370861
-0.00494042
-0.0411408
-0.00703632
-0.0433435
-0.00925169
-0.0451773
-0.0115788
-0.0471637
-0.0140224
-0.0494171
-0.0166172
-0.0519773
-0.0547319
-0.0194196
-0.00042846
-0.0126011
-0.001597
-0.0274511
-0.00329578
-0.0353874
-0.00530374
-0.0391328
-0.0074805
-0.0411668
-0.00977385
-0.042884
-0.0121791
-0.0447585
-0.0147063
-0.0468899
-0.0173865
-0.0492971
-0.0518798
-0.0202386
-0.000490138
-0.012111
-0.00175814
-0.0261831
-0.00355386
-0.0335916
-0.00564611
-0.0370406
-0.00789902
-0.0389139
-0.0102662
-0.0405168
-0.0127463
-0.0422784
-0.0153524
-0.0442838
-0.0181092
-0.0465404
-0.0489662
-0.0210228
-0.000548867
-0.0115621
-0.00191029
-0.0248216
-0.00379645
-0.0317055
-0.00596737
-0.0348696
-0.00829172
-0.0365895
-0.0107286
-0.0380799
-0.0132794
-0.0397276
-0.0159584
-0.0416048
-0.018786
-0.0437128
-0.0459862
-0.021766
-0.000604433
-0.0109577
-0.00205317
-0.0233729
-0.00402334
-0.0297353
-0.00626741
-0.0326256
-0.00865851
-0.0341984
-0.0111607
-0.0355777
-0.0137779
-0.0371105
-0.0165248
-0.0388578
-0.0194194
-0.0408182
-0.0429394
-0.0224662
-0.000656649
-0.0103011
-0.00218652
-0.021843
-0.00423436
-0.0276875
-0.00654612
-0.0303138
-0.0089993
-0.0317452
-0.0115625
-0.0330145
-0.0142416
-0.0344314
-0.0170517
-0.0360477
-0.0200096
-0.0378603
-0.0398277
-0.0231212
-0.000705347
-0.00959571
-0.00231013
-0.0202383
-0.00442938
-0.0255682
-0.00680344
-0.0279398
-0.009314
-0.0292347
-0.0119338
-0.0303948
-0.0146703
-0.0316949
-0.0175389
-0.033179
-0.0205562
-0.034843
-0.0366544
-0.0237296
-0.000750384
-0.00884532
-0.00242384
-0.0185648
-0.0046083
-0.0233837
-0.00703932
-0.0255087
-0.00960256
-0.0266714
-0.0122744
-0.027723
-0.0150638
-0.0289055
-0.0179864
-0.0302563
-0.0210588
-0.0317706
-0.0334234
-0.0242899
-0.000791634
-0.00805369
-0.0025275
-0.0168289
-0.00477103
-0.0211402
-0.00725371
-0.023026
-0.0098649
-0.0240603
-0.0125842
-0.0250037
-0.0154218
-0.0260678
-0.0183939
-0.0272843
-0.0215169
-0.0286476
-0.0301392
-0.0248011
-0.00082899
-0.0072247
-0.00262098
-0.0150369
-0.00491749
-0.0188437
-0.00744658
-0.020497
-0.010101
-0.0214059
-0.0128632
-0.0222415
-0.0157444
-0.0231866
-0.0187611
-0.0242675
-0.0219299
-0.0254788
-0.0268068
-0.0252623
-0.000862358
-0.00636234
-0.00270419
-0.0131951
-0.00504765
-0.0165003
-0.00761789
-0.0179267
-0.0103107
-0.018713
-0.0131111
-0.0194411
-0.0160312
-0.0202665
-0.0190878
-0.0212109
-0.0222975
-0.0222691
-0.0234313
-0.025673
-0.00089166
-0.00547068
-0.00277705
-0.0113097
-0.00516145
-0.0141159
-0.00776763
-0.0153205
-0.0104941
-0.0159865
-0.013328
-0.0166072
-0.0162822
-0.0173123
-0.0193737
-0.0181194
-0.0226193
-0.0190236
-0.0200181
-0.0260325
-0.000916831
-0.00455385
-0.00283948
-0.00938706
-0.00525887
-0.0116965
-0.00789578
-0.0126836
-0.0106511
-0.0132312
-0.0135137
-0.0137446
-0.0164972
-0.0143288
-0.0196187
-0.0149979
-0.022895
-0.0157473
-0.0165727
-0.0263405
-0.000937814
-0.00361604
-0.00289143
-0.00743344
-0.00533987
-0.00924803
-0.00800233
-0.0100211
-0.0107817
-0.0104519
-0.0136682
-0.010858
-0.0166761
-0.011321
-0.0198226
-0.0118514
-0.0231244
-0.0124454
-0.0131004
-0.0265967
-0.000954566
-0.00266147
-0.00293286
-0.00545515
-0.00540443
-0.00677646
-0.00808727
-0.00733831
-0.0108858
-0.00765335
-0.0137915
-0.0079523
-0.0168188
-0.00829365
-0.0199853
-0.00868493
-0.0233075
-0.00912319
-0.00960676
-0.0268011
-0.000967052
-0.00169442
-0.00296372
-0.00345848
-0.00545254
-0.00428765
-0.00815058
-0.00464026
-0.0109634
-0.00484048
-0.0138835
-0.00503227
-0.0169254
-0.00525175
-0.0201067
-0.00550359
-0.0234441
-0.00578577
-0.00609724
-0.0269537
-0.000975247
-0.000719174
-0.002984
-0.00144972
-0.00548418
-0.00178747
-0.00819227
-0.00193217
-0.0110146
-0.00201813
-0.0139441
-0.00210277
-0.0169956
-0.00220023
-0.0201868
-0.00231242
-0.0235342
-0.0024384
-0.00257719
-0.0270542
-0.000979133
0.000259959
-0.00299369
0.000564829
-0.00549936
0.000718202
-0.00821233
0.000780802
-0.0110393
0.000808852
-0.0139734
0.000831336
-0.0170296
0.00085594
-0.0202254
0.000883407
-0.0235774
0.00091361
0.000945981
-0.0271006
-0.000978702
0.00123866
-0.00299276
0.00257888
-0.00549806
0.0032235
-0.00821077
0.00349351
-0.0110375
0.0036356
-0.0139714
0.00376522
-0.0170274
0.00391189
-0.020223
0.00407904
-0.0235748
0.0042654
0.00447038
-0.0270992
-0.000973954
0.00221261
-0.00298122
0.00458615
-0.00548028
0.00572257
-0.00818757
0.0062008
-0.0110092
0.00645726
-0.013938
0.00669402
-0.0169888
0.00696268
-0.0201792
0.00726939
-0.0235256
0.00761187
0.0079892
-0.0270445
-0.000964896
0.00317751
-0.00295907
0.00658033
-0.00544603
0.00820953
-0.00814274
0.00889751
-0.0109545
0.00926897
-0.0138733
0.0096129
-0.016914
0.0100033
-0.020094
0.0104494
-0.0234299
0.0109478
0.0114968
-0.0269375
-0.000951546
0.00412906
-0.00292634
0.00855512
-0.00539531
0.0106785
-0.00807628
0.0115785
-0.0108732
0.0120659
-0.0137773
0.012517
-0.016803
0.013029
-0.0199675
0.013614
-0.0232877
0.0142679
0.0149879
-0.0267787
-0.000933927
0.00506298
-0.00288304
0.0105042
-0.00532813
0.0131236
-0.00798819
0.0142385
-0.0107655
0.0148432
-0.01365
0.0154015
-0.0166557
0.0160347
-0.0197998
0.0167581
-0.023099
0.0175671
0.0184569
-0.0265681
-0.000912074
0.00597506
-0.0028292
0.0124214
-0.00524449
0.0155389
-0.00787848
0.0168725
-0.0106313
0.017596
-0.0134915
0.0182617
-0.0164723
0.0190155
-0.019591
0.0198768
-0.0228641
0.0208402
0.0218986
-0.0263057
-0.00088603
0.00686109
-0.00276487
0.0143002
-0.00514442
0.0179184
-0.00774714
0.0194752
-0.0104707
0.0203196
-0.0133017
0.0210927
-0.0162529
0.0219667
-0.0193412
0.022965
-0.022583
0.0240821
0.0253073
-0.0259918
-0.000855847
0.00771694
-0.0026901
0.0161345
-0.00502793
0.0202562
-0.00759418
0.0220415
-0.0102837
0.0230091
-0.0130808
0.0238898
-0.0159975
0.0248834
-0.0190504
0.0260179
-0.022256
0.0272877
0.0286778
-0.0256265
-0.000821591
0.00853853
-0.00260494
0.0179178
-0.00489505
0.0225464
-0.00741962
0.0245661
-0.0100703
0.0256597
-0.0128288
0.0266484
-0.0157063
0.0277609
-0.018719
0.0290306
-0.0218833
0.0304519
0.0320047
-0.0252102
-0.000783339
0.00932187
-0.00250948
0.0196439
-0.00474581
0.0247827
-0.00722346
0.0270437
-0.0098305
0.0282668
-0.0125458
0.0293637
-0.0153794
0.0305945
-0.0183471
0.0319983
-0.0214652
0.03357
0.035283
-0.0247435
-0.000741179
0.010063
-0.0024038
0.0213066
-0.00458026
0.0269592
-0.00700571
0.0294692
-0.00956443
0.0308255
-0.0122319
0.0320312
-0.015017
0.0333795
-0.017935
0.0349164
-0.0210023
0.0366373
0.0385078
-0.0242271
-0.000695218
0.0107583
-0.00228803
0.0228994
-0.00439844
0.0290696
-0.00676641
0.0318371
-0.00927208
0.0333312
-0.0118872
0.0346464
-0.0146191
0.0361114
-0.017483
0.0377802
-0.0204949
0.0396492
0.0416748
-0.0236618
-0.000645578
0.0114038
-0.0021623
0.0244161
-0.00420044
0.0311077
-0.00650557
0.0341423
-0.0089535
0.0357791
-0.0115118
0.0372047
-0.0141861
0.0387856
-0.0169912
0.0405853
-0.0199437
0.0426017
0.0447799
-0.0230488
-0.000592399
0.0119962
-0.00202676
0.0258505
-0.00398634
0.0330673
-0.00622322
0.0363792
-0.00860874
0.0381646
-0.0111058
0.0397018
-0.013718
0.0413978
-0.0164598
0.0433272
-0.019349
0.0454909
0.0478201
-0.0223893
-0.000535842
0.0125321
-0.00188162
0.0271962
-0.00375625
0.0349419
-0.00591942
0.0385423
-0.00823786
0.040483
-0.0106694
0.0421334
-0.013215
0.0439434
-0.0158889
0.046001
-0.0187112
0.0483131
0.0507939
-0.0216849
-0.000476091
0.0130082
-0.00172712
0.0284473
-0.00351032
0.0367251
-0.00559423
0.0406263
-0.00784091
0.0427297
-0.0102026
0.0444951
-0.0126775
0.0464183
-0.0152783
0.0486019
-0.0180299
0.0510647
0.0537017
-0.0209377
-0.000413351
0.0134215
-0.00156352
0.0295974
-0.00324872
0.0384103
-0.00524774
0.0426253
-0.00741794
0.0448999
-0.00970564
0.0467828
-0.0121055
0.0488182
-0.0146274
0.0511238
-0.0173024
0.0537397
0.0565488
-0.0201496
-0.00034785
0.0137694
-0.00139117
0.0306408
-0.00297169
0.0399908
-0.00488007
0.0445336
-0.00696909
0.0469889
-0.00917869
0.0489924
-0.0115005
0.05114
-0.0139388
0.0535621
-0.0165283
0.0563293
0.059347
-0.0193265
-0.000279842
0.0140492
-0.00121046
0.0315714
-0.00267948
0.0414598
-0.00449138
0.0463455
-0.00649444
0.048992
-0.00862138
0.0511193
-0.0108611
0.0533797
-0.0132087
0.0559096
-0.0156813
0.0588019
0.0621219
-0.0184562
-0.000209621
0.0142588
-0.00102185
0.0323836
-0.00237238
0.0428104
-0.00408188
0.048055
-0.00599436
0.0509045
-0.00803448
0.0531594
-0.0101904
0.0555357
-0.0124622
0.0581814
-0.0148097
0.0611494
0.0649139
-0.0176018
-0.000137606
0.0143964
-0.000825806
0.0330718
-0.00205073
0.0440353
-0.00365186
0.0496562
-0.00546911
0.0527217
-0.00741811
0.0551084
-0.00948185
0.0575994
-0.0116732
0.0603727
-0.0140009
0.0634771
0.0671862
-0.0162731
-6.47821e-05
0.0144612
-0.000622576
0.0336296
-0.0017149
0.0451276
-0.00320165
0.0511429
-0.00491882
0.0544389
-0.0067728
0.0569624
-0.00873846
0.0595651
-0.010825
0.0624592
-0.013034
0.0656861
0.0695122
-0.01536
4.2372e-06
0.014457
-0.00041146
0.0340453
-0.00136552
0.0460817
-0.00273177
0.0525092
-0.00434387
0.056051
-0.00609944
0.058718
-0.00796517
0.0614308
-0.00994785
0.0644419
-0.0120647
0.067803
0.0717413
-0.0142938
8.70922e-05
0.0143699
-0.000188785
0.0343212
-0.0010036
0.0468965
-0.00224277
0.0537484
-0.00374487
0.0575531
-0.00539901
0.0603721
-0.0071641
0.0631959
-0.00904412
0.0663219
-0.0110569
0.0698158
0.073856
-0.0131717
0.000161746
0.0142081
4.51608e-05
0.0344378
-0.000630934
0.0475726
-0.00173499
0.0548524
-0.00312245
0.0589406
-0.00467199
0.0619217
-0.00633459
0.0648585
-0.00811021
0.0680976
-0.0100148
0.0717203
0.0758592
-0.0120179
0.000231737
0.0139764
0.000246746
0.0344227
-0.000245562
0.0480649
-0.00120954
0.0558164
-0.00247749
0.0602085
-0.00391869
0.0633629
-0.00547616
0.066416
-0.0071448
0.0697662
-0.0089385
0.073514
0.0777546
-0.0108339
0.000300786
0.0136756
0.000465392
0.0342581
0.000150082
0.0483802
-0.000669567
0.056636
-0.0018106
0.0613495
-0.00313952
0.0646918
-0.00458911
0.0678656
-0.00614831
0.0713254
-0.00782797
0.0751937
0.0795371
-0.00961049
0.000368924
0.0133067
0.000685504
0.0339416
0.000538038
0.0485277
-0.000112469
0.0572865
-0.00112233
0.0623594
-0.00233506
0.0659045
-0.00367395
0.0692045
-0.00512137
0.0727728
-0.00668428
0.0767566
0.0812002
-0.0083474
0.00043441
0.0128723
0.000905177
0.0334708
0.000939572
0.0484933
0.000453604
0.0577725
-0.000414676
0.0632277
-0.00150601
0.0669959
-0.00273127
0.0704297
-0.00406448
0.074106
-0.00550865
0.0782008
0.08274
-0.00704845
0.000496252
0.012376
0.00112254
0.0328445
0.00134556
0.0482703
0.00103454
0.0580835
0.000313015
0.0639492
-0.00065352
0.0679624
-0.00176188
0.0715381
-0.00297825
0.0753224
-0.00430225
0.0795248
0.0841539
-0.00571621
0.000553585
0.0118225
0.00133499
0.0320631
0.00175281
0.0478524
0.00162643
0.0582099
0.0010594
0.0645162
0.000221106
0.0688007
-0.000767325
0.0725265
-0.00186366
0.0764187
-0.00306642
0.0807275
0.0854402
-0.00435263
0.000605482
0.011217
0.0015398
0.0311288
0.00215822
0.047234
0.00222592
0.0581422
0.00182253
0.0649196
0.00112193
0.0695013
0.000250733
0.0733977
-0.00072373
0.0773932
-0.00180108
0.0818049
0.0865991
-0.00295997
0.000651047
0.0105659
0.00173422
0.0300456
0.00255811
0.0464101
0.00282983
0.0578705
0.00259966
0.0651498
0.00204208
0.0700589
0.00130036
0.0741395
0.000442324
0.0782512
-0.000498602
0.0827458
0.0876461
-0.00154563
0.000689474
0.00987645
0.00191537
0.0288197
0.00294832
0.0453772
0.00343429
0.0573845
0.00338804
0.065196
0.00298095
0.0704659
0.00236957
0.0747508
0.0016395
0.0789813
0.000814129
0.0835712
0.0886005
-0.000140249
0.000720054
0.0091564
0.00208027
0.0274595
0.00332416
0.0441333
0.00403464
0.0566741
0.00418415
0.0650465
0.00393624
0.0707139
0.00345986
0.0752272
0.00285524
0.0795859
0.00216007
0.0842663
0.089373
0.00138753
0.000742205
0.00841419
0.00222572
0.025976
0.00368043
0.0426786
0.00462541
0.0557291
0.00498363
0.0646883
0.00490511
0.0707924
0.00456977
0.0755626
0.00409468
0.080061
0.00353262
0.0848284
0.0900069
0.0028987
0.000755517
0.00765868
0.00234847
0.024383
0.00401139
0.0410157
0.00520021
0.0545403
0.00578118
0.0641073
0.00588396
0.0706896
0.00569691
0.0757496
0.00535481
0.0804031
0.00492321
0.08526
0.0905073
0.00442286
0.000759793
0.00689888
0.00244569
0.0226971
0.00431091
0.0391505
0.00575167
0.0530995
0.00657033
0.0632887
0.00686818
0.0703917
0.00683802
0.0757798
0.00663238
0.0806088
0.00633122
0.0855612
0.0908755
0.00596297
0.000755046
0.00614384
0.00251482
0.0209373
0.00457246
0.0370928
0.00627137
0.0514006
0.00734331
0.0622167
0.00785203
0.069883
0.00798933
0.0756425
0.00792491
0.0806732
0.00775569
0.0857304
0.0911125
0.00751866
0.000741507
0.00540233
0.00255378
0.0191251
0.00478936
0.0348572
0.00674985
0.0494401
0.00809087
0.0608757
0.00882843
0.0691455
0.00914634
0.0753246
0.00922987
0.0805896
0.00919509
0.0857652
0.0912185
0.00908913
0.000719635
0.00468269
0.00256117
0.0172835
0.00495501
0.0324634
0.00717667
0.0472184
0.00880215
0.0592502
0.00978868
0.0681589
0.0103033
0.0748099
0.0105439
0.080349
0.0106474
0.0856617
0.0911928
0.0106731
0.000690114
0.00399258
0.00253648
0.0154372
0.0050633
0.0299366
0.00754063
0.0447411
0.00946455
0.0573263
0.0107221
0.0669014
0.011453
0.074079
0.0118628
0.0799393
0.0121099
0.0854146
0.0910335
0.0122693
0.000653843
0.00333874
0.00248021
0.0136108
0.00510909
0.0273077
0.00783009
0.0420201
0.0100637
0.0550927
0.0116158
0.0653493
0.0125861
0.0731087
0.0131806
0.0793447
0.0135794
0.0850158
0.0907374
0.0138755
0.0006119
0.00272684
0.002394
0.0118287
0.00508878
0.0246129
0.00803344
0.0390755
0.0105836
0.0525426
0.0124541
0.0634787
0.0136906
0.0718722
0.01449
0.0785453
0.0150514
0.0844544
0.0903
0.0154888
0.000565501
0.00216134
0.00228062
0.0101136
0.00500086
0.0218927
0.0081399
0.0359364
0.0110067
0.0496758
0.0132188
0.0612666
0.0147518
0.0703392
0.0157811
0.0775161
0.0165203
0.0837151
0.0897145
0.0171058
0.000515943
0.00164539
0.00214381
0.00848572
0.00484648
0.01919
0.00814042
0.0326425
0.0113151
0.0465011
0.0138888
0.0586929
0.0157514
0.0684767
0.0170409
0.0762265
0.0179783
0.0827777
0.0889707
0.018722
0.000464534
0.00118086
0.00198811
0.00696215
0.00462976
0.0165484
0.00802889
0.0292433
0.0114906
0.0430394
0.0144404
0.0557431
0.0166669
0.0662501
0.0182529
0.0746405
0.0194151
0.0816156
0.088054
0.0203318
0.000412526
0.000768333
0.00181852
0.00555615
0.00435775
0.0140091
0.00780343
0.0257977
0.0115168
0.0393261
0.0148477
0.0524122
0.0174719
0.0636259
0.0193958
0.0727165
0.0208167
0.0801947
0.0869434
0.0219273
0.000361038
0.000407295
0.00164015
0.00427703
0.00404003
0.0116093
0.00746749
0.0223702
0.0113807
0.0354129
0.0150841
0.0487087
0.0181354
0.0605747
0.0204428
0.0704092
0.0221643
0.0784731
0.08561
0.0234978
0.000310993
9.63018e-05
0.00145784
0.00313019
0.00368793
0.00937918
0.00703053
0.0190276
0.011075
0.0313684
0.0151241
0.0446596
0.0186229
0.0570759
0.0213609
0.0676711
0.0234332
0.0764008
0.0840151
0.0250281
0.000263076
-0.000166775
0.00127587
0.0021174
0.00331349
0.00734156
0.00650785
0.0158332
0.0106004
0.0272759
0.0149456
0.0403144
0.0188974
0.0531242
0.0221109
0.0644576
0.0245911
0.0739207
0.0821085
0.0264976
0.000217719
-0.000384494
0.00109776
0.00123736
0.00292842
0.00551089
0.0059194
0.0128423
0.00996768
0.0232276
0.014534
0.0357481
0.0189221
0.0487361
0.0226476
0.0607321
0.0255971
0.0709712
0.0798276
0.027878
0.000175148
-0.000559641
0.000926271
0.000486236