/*--------------------------------*- C++ -*----------------------------------*\
  =========                 |
  \\      /  F ield         | OpenFOAM: The Open Source CFD Toolbox
   \\    /   O peration     | Website:  https://openfoam.org
    \\  /    A nd           | Version:  7
     \\/     M anipulation  |
\*---------------------------------------------------------------------------*/
FoamFile
{
    version     2.0;
    format      ascii;
    class       volVectorField;
    location    "100";
    object      U;
}
// * * * * * * * * * * * * * * * * * * * * * * * * * * * * * * * * * * * * * //

dimensions      [0 1 -1 0 0 0 0];

internalField   nonuniform List<vector> 
8500
(
(-0.000843729 -0.0296883 9.88787e-22)
(-0.00654521 -0.0784696 -2.83745e-21)
(-0.0187743 -0.11758 -3.30689e-21)
(-0.0341816 -0.146411 3.28569e-21)
(-0.0512405 -0.166971 -3.02295e-21)
(-0.0684386 -0.182675 -1.61357e-21)
(-0.0845945 -0.196788 2.76281e-21)
(-0.0991827 -0.211381 3.43279e-21)
(-0.112042 -0.227101 -5.6645e-22)
(-0.123352 -0.243352 1.67529e-21)
(-0.0002205 -0.0268308 -1.09268e-21)
(-0.00567762 -0.0718356 3.37328e-21)
(-0.0189108 -0.108583 -7.90729e-21)
(-0.0358033 -0.136176 7.17155e-21)
(-0.0545628 -0.156451 3.17815e-22)
(-0.0735053 -0.172595 5.26886e-21)
(-0.0913873 -0.187571 -9.17134e-21)
(-0.107744 -0.203112 -1.34543e-20)
(-0.122523 -0.21956 -2.63497e-21)
(-0.136156 -0.236093 5.9872e-21)
(0.000151853 -0.0233985 9.98576e-22)
(-0.00528096 -0.0640758 7.38971e-21)
(-0.0194707 -0.0982887 1.74152e-20)
(-0.037629 -0.124672 -1.57611e-20)
(-0.0577369 -0.144773 -3.56286e-21)
(-0.0779594 -0.161467 -3.24313e-21)
(-0.0969835 -0.177371 1.65798e-20)
(-0.114375 -0.193856 1.03278e-20)
(-0.130131 -0.210929 2.5366e-21)
(-0.144808 -0.22751 -1.85406e-20)
(0.00023112 -0.0194727 3.53868e-21)
(-0.00540482 -0.055361 -4.33818e-21)
(-0.0204589 -0.0869049 -3.24476e-20)
(-0.0396096 -0.112114 2.86815e-21)
(-0.0606645 -0.132144 8.91116e-21)
(-0.0816622 -0.149493 -6.94437e-21)
(-0.101209 -0.166408 -3.47107e-22)
(-0.118863 -0.18388 -2.82457e-21)
(-0.134606 -0.201538 6.40352e-21)
(-0.148958 -0.217988 1.83984e-20)
(-1.13053e-05 -0.0151571 2.45471e-21)
(-0.00607457 -0.0458949 -1.39374e-20)
(-0.0218562 -0.074665 3.35371e-20)
(-0.0416756 -0.0987309 -1.5277e-20)
(-0.0632296 -0.118771 -5.82836e-23)
(-0.0844587 -0.136869 2.11628e-20)
(-0.103876 -0.15489 -9.71418e-21)
(-0.120988 -0.17344 1.09193e-21)
(-0.135699 -0.19172 -3.99374e-21)
(-0.148262 -0.207924 1.40889e-21)
(-0.000587543 -0.0105733 2.93959e-20)
(-0.00728772 -0.0359077 3.58371e-20)
(-0.0236165 -0.0618229 -9.17165e-21)
(-0.0437328 -0.0847599 1.75324e-20)
(-0.0652914 -0.104864 5.54575e-21)
(-0.0861655 -0.123779 -7.87989e-21)
(-0.104763 -0.143001 -3.04795e-21)
(-0.12049 -0.162764 -1.32749e-20)
(-0.133133 -0.181785 2.88348e-21)
(-0.142326 -0.197707 -1.69376e-20)
(-0.00149124 -0.00585688 -2.83384e-20)
(-0.00901162 -0.0256496 -1.86878e-20)
(-0.0256651 -0.0486489 1.52849e-20)
(-0.0456601 -0.0704482 -2.65475e-20)
(-0.0666796 -0.0906292 3.08507e-21)
(-0.0865612 -0.110391 3.12655e-20)
(-0.103594 -0.130894 -5.65534e-21)
(-0.117043 -0.152032 3.67453e-20)
(-0.126568 -0.172 -7.7733e-22)
(-0.130638 -0.187702 -1.47685e-20)
(-0.00269672 -0.00115157 2.38215e-20)
(-0.0111833 -0.0153831 -4.32737e-20)
(-0.0278991 -0.0354246 -1.72832e-20)
(-0.04731 -0.0560511 2.02117e-20)
(-0.0671921 -0.0762747 7.54203e-22)
(-0.0853787 -0.0968635 -5.87973e-20)
(-0.100031 -0.118687 -3.55991e-21)
(-0.110217 -0.141363 -2.91932e-20)
(-0.115561 -0.162563 -3.73224e-20)
(-0.112532 -0.178225 2.17985e-20)
(-0.00415945 0.00339671 -1.32835e-20)
(-0.0137109 -0.00537547 6.46227e-21)
(-0.0301903 -0.0224392 1.5933e-20)
(-0.0485115 -0.0418331 -1.44595e-20)
(-0.066598 -0.0620168 -5.05715e-20)
(-0.0823056 -0.0833503 1.73653e-20)
(-0.0936572 -0.10647 2.45107e-21)
(-0.0994689 -0.130805 4.40905e-20)
(-0.0995467 -0.153577 5.73847e-20)
(-0.0871554 -0.169514 -2.55771e-20)
(-0.00581803 0.00764688 2.10606e-20)
(-0.0164778 0.00410949 1.92987e-20)
(-0.032391 -0.00998491 -2.77572e-21)
(-0.0490773 -0.0280691 7.17389e-20)
(-0.0646459 -0.0480868 3.05761e-20)
(-0.0769937 -0.070017 2.30159e-20)
(-0.083998 -0.0943177 3.28335e-20)
(-0.0841354 -0.120335 -1.42152e-20)
(-0.0778369 -0.145033 -1.9205e-20)
(-0.0534987 -0.161643 -3.11955e-20)
(-0.00759827 0.0114702 -1.89838e-21)
(-0.0193488 0.0128223 -3.06595e-20)
(-0.0343401 0.00164904 -2.21558e-20)
(-0.0488128 -0.0150459 -3.55786e-20)
(-0.0610783 -0.0347404 -2.83209e-20)
(-0.0690788 -0.0570597 2.87311e-20)
(-0.07054 -0.0823247 -2.7662e-20)
(-0.0634629 -0.109886 -1.89876e-20)
(-0.0496366 -0.136795 2.51784e-21)
(-0.0105495 -0.154262 8.21202e-21)
(-0.00941789 0.0147576 -5.85282e-20)
(-0.0221782 0.0205379 2.80433e-20)
(-0.0358738 0.0121838 2.0548e-20)
(-0.0475278 -0.00305873 1.38915e-20)
(-0.0556481 -0.0222641 -2.55037e-20)
(-0.0582099 -0.0447254 -2.15264e-20)
(-0.0527796 -0.0706444 3.12554e-20)
(-0.0366582 -0.0994122 -2.55583e-20)
(-0.0138948 -0.128807 -1.82204e-21)
(0.042401 -0.146219 -2.59942e-20)
(-0.0111927 0.0174266 4.93057e-20)
(-0.0248177 0.0270657 2.02077e-20)
(-0.0368319 0.0213612 1.18094e-21)
(-0.0450464 0.00759593 -2.52719e-20)
(-0.0481357 -0.0109723 1.67049e-21)
(-0.0440803 -0.0333181 2.8732e-20)
(-0.0302952 -0.0595099 -8.19864e-21)
(-0.0031357 -0.0889202 -1.00652e-20)
(0.0310889 -0.12155 -2.21586e-20)
(0.106061 -0.13632 3.97654e-20)
(-0.0128436 0.0194267 3.37529e-20)
(-0.0271242 0.03226 -5.46029e-20)
(-0.0370629 0.028956 -4.24435e-20)
(-0.0412087 0.0166345 1.83267e-20)
(-0.0383538 -0.00119059 3.77582e-20)
(-0.0264366 -0.0231834 3.25771e-20)
(-0.00274324 -0.0492188 -3.47085e-20)
(0.037001 -0.0785004 6.69794e-20)
(0.086354 -0.114605 -2.04386e-20)
(0.182244 -0.124916 -4.64403e-20)
(-0.014302 0.0207421 -5.0433e-20)
(-0.0289661 0.0360283 3.04607e-20)
(-0.0364244 0.0347902 -1.49231e-20)
(-0.035866 0.0238069 1.55956e-21)
(-0.0261358 0.00677056 1.61263e-20)
(-0.00506418 -0.01468 -5.1289e-20)
(0.0302964 -0.0401433 4.58301e-20)
(0.0841291 -0.0686495 -4.4554e-20)
(0.151028 -0.10715 7.11417e-20)
(0.270575 -0.1124 2.49357e-20)
(-0.0155148 0.021392 1.08718e-20)
(-0.0302254 0.038337 5.97415e-20)
(-0.0347777 0.0387481 -1.52023e-20)
(-0.0288632 0.0289224 1.54075e-20)
(-0.0113062 0.0126547 1.8315e-20)
(0.020222 -0.00815566 -5.56194e-21)
(0.068973 -0.0327463 3.96689e-20)
(0.138775 -0.0600508 2.07806e-21)
(0.225434 -0.0993273 -4.5303e-20)
(0.368063 -0.0983678 5.98798e-20)
(-0.0164462 0.0214263 -2.88784e-20)
(-0.0307965 0.0392116 -5.67142e-20)
(-0.0319759 0.040788 4.94045e-20)
(-0.0200109 0.0318706 2.50318e-20)
(0.00636421 0.0162942 -1.16859e-19)
(0.0496879 -0.00381123 9.60323e-20)
(0.113511 -0.027226 -8.72507e-20)
(0.200832 -0.0528185 1.45102e-21)
(0.309929 -0.0910349 -1.93645e-20)
(0.470608 -0.0829426 -5.49375e-20)
(-0.0170766 0.0209187 2.5193e-20)
(-0.0305802 0.0387343 -3.46726e-21)
(-0.027846 0.0409437 -1.21384e-20)
(-0.00906117 0.0326443 -1.3351e-21)
(0.0272203 0.0176665 -7.32714e-21)
(0.0837537 -0.0016407 -3.05891e-20)
(0.164351 -0.0235366 1.30783e-20)
(0.270377 -0.0470571 -2.07166e-20)
(0.404147 -0.0811858 6.4806e-21)
(0.573048 -0.0662486 1.75162e-21)
(-0.017398 0.0199584 -5.14611e-20)
(-0.0294766 0.0370318 -3.77172e-21)
(-0.0221723 0.0393294 5.67001e-21)
(0.00432928 0.0313573 2.31325e-21)
(0.0517473 0.016919 3.84006e-20)
(0.12304 -0.00142129 -1.12791e-19)
(0.222094 -0.0213193 7.63909e-20)
(0.347824 -0.0425494 -5.71496e-20)
(0.506647 -0.0681196 4.71281e-20)
(0.670406 -0.0491305 5.02851e-20)
(-0.0174075 0.0186381 -6.29756e-21)
(-0.0273702 0.0342636 2.86899e-20)
(-0.0146851 0.0361373 -3.62009e-20)
(0.020615 0.0282381 -1.14043e-20)
(0.0805922 0.0143634 2.21226e-20)
(0.168338 -0.00269718 1.07233e-19)
(0.287349 -0.0199411 -2.15924e-20)
(0.433585 -0.0383677 1.06914e-20)
(0.614438 -0.0508918 -5.48897e-20)
(0.761228 -0.0362682 2.34008e-20)
(-0.0170982 0.0170448 -1.88671e-20)
(-0.0241203 0.0306096 -1.46646e-20)
(-0.00504825 0.0316204 3.58154e-21)
(0.040358 0.0236258 1.43532e-20)
(0.114531 0.0104701 -4.27399e-20)
(0.220501 -0.00480151 -1.74296e-20)
(0.360507 -0.0185786 -5.49475e-20)
(0.527174 -0.0328769 5.60092e-20)
(0.722294 -0.0316236 5.80214e-20)
(0.84956 -0.0347854 -2.43066e-20)
(-0.0164503 0.0152524 -8.97629e-21)
(-0.019551 0.0262556 3.66012e-20)
(0.00713999 0.0260792 -4.11311e-20)
(0.064205 0.017954 -4.80849e-21)
(0.154388 0.00584763 -1.95292e-20)
(0.280253 -0.00690172 4.28605e-20)
(0.441498 -0.0162818 5.54804e-20)
(0.626438 -0.0246653 -5.26193e-20)
(0.823793 -0.0158428 5.45528e-20)
(0.961283 -0.0265284 7.00118e-21)
(-0.0154235 0.0133171 -2.59908e-20)
(-0.0134464 0.0213828 -7.40794e-20)
(0.0223338 0.0198466 7.24663e-20)
(0.0928408 0.0117295 1.04895e-20)
(0.200927 0.00120912 1.55416e-20)
(0.347952 -0.00807538 9.15298e-21)
(0.529437 -0.0121076 4.19834e-20)
(0.72767 -0.0136269 3.06244e-20)
(0.921187 -0.000765831 -1.06831e-19)
(1.05792 -0.00767966 -5.05812e-20)
(-0.0139516 0.011277 -8.90205e-20)
(-0.00555083 0.0161623 1.79644e-20)
(0.0410175 0.0132739 -4.0873e-20)
(0.12692 0.00550801 8.02831e-21)
(0.254699 -0.00267416 1.29858e-20)
(0.423355 -0.00741349 -9.2997e-20)
(0.622405 -0.00530644 4.07315e-20)
(0.827173 -4.50872e-05 -2.74345e-20)
(1.01067 0.0156308 2.85223e-20)
(1.13457 0.011817 -9.61458e-21)
(-0.011942 0.00915599 3.21756e-20)
(0.0044236 0.0107549 3.46814e-20)
(0.0636728 0.00672038 -1.9087e-21)
(0.166988 -0.000131641 -1.12505e-20)
(0.315895 -0.00502758 5.25727e-22)
(0.505455 -0.00414617 1.01307e-21)
(0.717579 0.00448933 -6.21041e-20)
(0.921422 0.0156976 7.97103e-21)
(1.08909 0.0329063 7.50773e-20)
(1.19666 0.0314002 3.30905e-20)
(-0.00927783 0.00696941 -2.17645e-20)
(0.0167833 0.00531604 -1.62004e-20)
(0.0907399 0.000548576 6.95053e-20)
(0.213398 -0.00460888 1.77605e-21)
(0.384214 -0.00513436 -2.91112e-20)
(0.592451 0.00224222 7.87483e-20)
(0.811695 0.0172295 1.70835e-20)
(1.00746 0.0330494 6.87595e-22)
(1.15547 0.0506333 -3.30589e-20)
(1.24384 0.0502696 -4.18604e-20)
(-0.00582414 0.00473281 4.53703e-20)
(0.0318352 5.58735e-06 -1.27186e-20)
(0.122577 -0.00487561 -7.55766e-21)
(0.266237 -0.00736044 -2.88542e-20)
(0.458782 -0.00240093 4.76659e-20)
(0.681913 0.0119479 -2.3445e-20)
(0.901598 0.0325406 -2.62017e-20)
(1.08338 0.0514359 -6.35165e-21)
(1.20961 0.0683441 -1.88143e-20)
(1.27897 0.0680724 1.99762e-20)
(-0.00143644 0.00247013 -1.6735e-20)
(0.0498661 -0.00500136 -9.92708e-20)
(0.159421 -0.00917933 1.03848e-20)
(0.325263 -0.00785949 3.58178e-20)
(0.538165 0.00358224 2.5738e-20)
(0.771107 0.0248586 -8.55725e-20)
(0.984715 0.0498869 5.45753e-20)
(1.14829 0.0703422 -2.47432e-20)
(1.25239 0.0857036 3.67288e-20)
(1.30398 0.0848193 9.90566e-21)
(0.00403028 0.000220785 -1.8265e-20)
(0.0711207 -0.00950367 3.5274e-20)
(0.201352 -0.0119792 4.59456e-20)
(0.389873 -0.00563989 -3.30879e-20)
(0.620482 0.0130021 1.2286e-20)
(0.857389 0.0406337 -7.52161e-20)
(1.05929 0.0687075 -1.42841e-20)
(1.20222 0.089368 1.16232e-20)
(1.28506 0.102526 -2.79461e-20)
(1.32102 0.100559 -2.79188e-20)
(0.010712 -0.00195499 -2.35276e-20)
(0.0957804 -0.0132667 -7.88645e-21)
(0.248263 -0.0128823 -8.31345e-20)
(0.459104 -0.000326735 -1.30208e-20)
(0.703604 0.0258244 -1.46123e-21)
(0.938525 0.0588118 4.44432e-21)
(1.12442 0.0885018 7.87713e-21)
(1.24579 0.108236 -3.64298e-20)
(1.30914 0.11874 6.6492e-22)
(1.33184 0.115455 1.93153e-20)
(0.0187271 -0.00397403 -6.10786e-21)
(0.123943 -0.0160201 2.88433e-20)
(0.299838 -0.0114965 4.0601e-20)
(0.531679 0.00833285 2.54017e-20)
(0.785393 0.041835 -7.57746e-21)
(1.01286 0.0789048 -6.19613e-21)
(1.17987 0.108866 6.15074e-20)
(1.28 0.126779 8.02895e-21)
(1.32609 0.134362 2.72247e-20)
(1.33792 0.129668 -1.15928e-20)
(0.0281688 -0.00573055 5.84273e-20)
(0.155606 -0.0174623 3.7948e-20)
(0.355542 -0.00744953 -3.84483e-20)
(0.606095 0.0204502 -7.65724e-21)
(0.863922 0.0607029 3.95666e-21)
(1.07937 0.100457 -1.45179e-20)
(1.22596 0.129497 -3.14551e-20)
(1.30602 0.144917 -5.27595e-21)
(1.33727 0.149458 4.31014e-22)
(1.34042 0.143366 1.25529e-20)
(0.0390987 -0.00709864 7.1026e-21)
(0.190651 -0.01727 -2.06602e-20)
(0.414628 -0.000416936 4.88983e-20)
(0.68075 0.0359957 3.18756e-20)
(0.937612 0.0820415 9.00697e-22)
(1.13757 0.123073 2.26046e-20)
(1.26332 0.150182 3.36057e-21)
(1.32504 0.162636 -2.36508e-20)
(1.34383 0.164122 1.984e-20)
(1.34021 0.15669 -1.21611e-23)
(0.0515409 -0.00793649 -4.79792e-20)
(0.228836 -0.0151139 -1.41531e-20)
(0.476162 0.00985011 -1.2835e-20)
(0.754069 0.0548183 -2.23155e-20)
(1.0053 0.105454 5.18113e-21)
(1.18739 0.146427 1.20474e-22)
(1.29276 0.170785 1.72497e-20)
(1.33817 0.17996 -2.75727e-21)
(1.34674 0.178454 -2.04238e-20)
(1.33792 0.169754 -1.88384e-20)
(0.0654776 -0.00809178 3.88141e-21)
(0.269791 -0.0106782 2.28423e-20)
(0.539076 0.0235028 1.10471e-20)
(0.824617 0.0766757 -3.46071e-20)
(1.06621 0.13056 -1.77155e-21)
(1.22909 0.170258 -1.48454e-20)
(1.31517 0.191222 3.8469e-22)
(1.34638 0.196935 6.97241e-21)
(1.34672 0.192543 -7.66347e-21)
(1.33401 0.182639 2.1275e-20)
(0.0808455 -0.00740789 9.08247e-21)
(0.313025 -0.00368042 -2.22986e-20)
(0.602226 0.0405842 -5.26972e-20)
(0.89117 0.101266 4.85664e-20)
(1.11993 0.15701 -3.6323e-21)
(1.26312 0.19436 1.07529e-20)
(1.3314 0.211448 -1.47058e-21)
(1.35052 0.213614 1.02629e-20)
(1.34437 0.206461 -7.81687e-22)
(1.32876 0.195399 -1.64756e-20)
(0.097534 -0.00573061 -1.84715e-20)
(0.357938 0.00610872 2.89516e-20)
(0.664458 0.0610312 2.39623e-20)
(0.952757 0.128252 -3.45531e-20)
(1.16632 0.184487 -5.71352e-21)
(1.29005 0.218573 2.19081e-21)
(1.34227 0.231443 2.18521e-20)
(1.35126 0.230046 1.09945e-21)
(1.34009 0.22026 4.21773e-21)
(1.32239 0.208057 -9.09081e-21)
(0.115386 -0.00291518 1.40111e-20)
(0.403843 0.0188491 -1.26201e-20)
(0.724674 0.0846851 -1.07285e-20)
(1.00866 0.15728 1.84294e-20)
(1.20546 0.212708 6.37685e-21)
(1.31047 0.242768 4.80771e-21)
(1.34848 0.251194 -2.22332e-20)
(1.34915 0.246266 -7.58915e-21)
(1.33418 0.233967 -6.78194e-21)
(1.315 0.220615 2.99067e-21)
(0.134198 0.00116656 -6.95574e-21)
(0.449993 0.0346202 -1.61401e-22)
(0.781874 0.111307 2.02988e-20)
(1.05838 0.187992 -7.45713e-21)
(1.23757 0.241419 -3.28417e-21)
(1.325 0.26684 -2.16511e-21)
(1.35065 0.270693 5.36924e-21)
(1.3446 0.262292 9.26121e-21)
(1.32685 0.247587 -2.9183e-22)
(1.30668 0.233054 3.3565e-21)
(0.153728 0.00661938 4.89844e-21)
(0.495614 0.0534153 -1.37438e-21)
(0.835195 0.140594 -3.62851e-21)
(1.10163 0.220033 -3.2878e-21)
(1.26296 0.270386 2.9632e-21)
(1.3342 0.290695 2.30873e-21)
(1.34929 0.289921 -2.12855e-21)
(1.33794 0.278126 7.70735e-22)
(1.31823 0.261102 1.07937e-21)
(1.29746 0.245337 -1.42975e-21)
(0.173699 0.0135186 2.61652e-21)
(0.539934 0.0751415 7.47395e-22)
(0.883921 0.172196 -4.47829e-21)
(1.13829 0.253053 -3.57405e-21)
(1.282 0.299398 3.72574e-21)
(1.3386 0.314245 7.28149e-22)
(1.34482 0.30885 -1.69716e-21)
(1.3294 0.293747 1.59458e-21)
(1.30842 0.274472 8.88e-22)
(1.28737 0.257416 -1.01753e-21)
(0.193808 0.021905 -1.02711e-21)
(0.582213 0.0996243 2.0871e-21)
(0.927488 0.205726 1.37683e-20)
(1.16836 0.286711 -6.11376e-21)
(1.29508 0.328252 -3.00658e-21)
(1.33866 0.337402 -3.38306e-21)
(1.33758 0.327437 6.92413e-21)
(1.31916 0.309114 4.63201e-21)
(1.29746 0.287639 3.69804e-21)
(1.27642 0.269234 2.00663e-21)
(0.213735 0.0317819 2.08935e-20)
(0.621765 0.126615 -1.14968e-20)
(0.965481 0.240776 -1.31204e-20)
(1.19192 0.320672 1.78021e-20)
(1.30259 0.356757 9.35539e-21)
(1.33479 0.360072 -6.2393e-22)
(1.32784 0.345625 -1.15376e-20)
(1.30732 0.324166 -8.32476e-21)
(1.28539 0.300527 -8.65945e-21)
(1.26464 0.280722 5.13801e-21)
(0.233153 0.0431131 -2.8239e-20)
(0.657981 0.155801 2.65467e-20)
(0.997617 0.276923 3.05039e-20)
(1.20916 0.354614 -3.00717e-20)
(1.30492 0.384725 -1.04188e-20)
(1.32734 0.382157 6.67203e-21)
(1.31581 0.363342 1.21324e-20)
(1.29398 0.338828 1.90323e-21)
(1.27223 0.313043 -3.31373e-22)
(1.25199 0.291803 -7.00265e-21)
(0.251735 0.0558228 -4.02958e-21)
(0.690336 0.186817 -3.72632e-20)
(1.02373 0.313734 -3.98959e-20)
(1.2203 0.38822 4.47111e-20)
(1.30243 0.411974 -5.07124e-21)
(1.31663 0.403548 9.29513e-21)
(1.30168 0.380504 1.82908e-21)
(1.27919 0.353015 -5.17616e-21)
(1.25795 0.325096 2.77579e-21)
(1.23836 0.302399 -3.73908e-22)
(0.269168 0.0697979 8.20263e-21)
(0.718401 0.219255 2.30334e-20)
(1.04377 0.350776 1.30764e-20)
(1.22561 0.421186 -1.02964e-20)
(1.2955 0.438319 -1.59244e-20)
(1.30293 0.424129 -1.4871e-20)
(1.28558 0.397016 -3.00298e-21)
(1.26302 0.366645 7.96266e-21)
(1.24255 0.336635 -1.68022e-21)
(1.22359 0.312453 3.87484e-21)
(0.285158 0.0848903 -3.08915e-20)
(0.741847 0.252676 -2.88558e-20)
(1.05777 0.387619 -4.54392e-21)
(1.22537 0.453218 -5.14893e-21)
(1.28443 0.463578 -1.16911e-20)
(1.28647 0.443774 7.17296e-21)
(1.26763 0.412768 -1.30269e-21)
(1.2455 0.379622 -7.00112e-21)
(1.22607 0.347656 6.34513e-21)
(1.20771 0.321915 -9.1689e-21)
(0.299437 0.100921 7.43068e-21)
(0.760443 0.286627 2.44319e-20)
(1.06581 0.423842 2.11942e-20)
(1.2199 0.48403 2.30413e-20)
(1.26955 0.487569 4.91007e-22)
(1.26745 0.462352 2.01437e-20)
(1.24791 0.42764 1.32078e-21)
(1.22668 0.39182 -2.37864e-20)
(1.20856 0.358095 1.70555e-20)
(1.19111 0.330639 6.31902e-21)
(0.311773 0.117682 1.99678e-20)
(0.774052 0.320647 4.4521e-20)
(1.06808 0.459037 -5.92078e-21)
(1.20951 0.513347 -2.89602e-20)
(1.25115 0.510116 1.30845e-20)
(1.24605 0.479728 -1.36274e-20)
(1.22654 0.441502 -1.81765e-20)
(1.20671 0.403135 -1.55887e-21)
(1.18996 0.367731 -1.41492e-20)
(1.1739 0.338673 5.50203e-21)
(0.321973 0.134947 9.32269e-21)
(0.782621 0.354276 6.82691e-21)
(1.06479 0.49281 5.5369e-20)
(1.19453 0.540908 1.03849e-20)
(1.2295 0.531047 -9.04871e-21)
(1.22245 0.495762 -4.67028e-21)
(1.20372 0.454221 2.77784e-20)
(1.18557 0.413464 2.29057e-20)
(1.17032 0.376473 1.14296e-20)
(1.15597 0.345838 -1.5552e-21)
(0.329884 0.152472 1.95503e-21)
(0.786173 0.387067 -4.54173e-20)
(1.0562 0.524788 -6.50264e-20)
(1.17531 0.566466 2.01532e-21)
(1.20489 0.550196 1.285e-20)
(1.1969 0.510292 -1.77407e-20)
(1.17951 0.465673 -4.06435e-20)
(1.16325 0.422708 -1.21519e-20)
(1.14976 0.384201 -7.37833e-22)
(1.13731 0.352056 5.9062e-21)
(0.335397 0.170007 -1.61305e-20)
(0.784807 0.418588 4.05906e-20)
(1.04264 0.554621 3.90115e-20)
(1.15219 0.58978 -3.59952e-20)
(1.17759 0.567372 5.50417e-21)
(1.16956 0.523195 4.2849e-20)
(1.15395 0.47573 -9.56618e-21)
(1.13989 0.43075 8.10018e-21)
(1.12832 0.390826 -3.96328e-21)
(1.11797 0.357242 -5.32706e-21)
(0.338448 0.187296 -3.61832e-20)
(0.778703 0.448423 -6.40463e-20)
(1.02451 0.582015 -1.25709e-20)
(1.12543 0.61061 2.06293e-20)
(1.14783 0.58241 2.02962e-20)
(1.14056 0.53431 -4.26716e-20)
(1.1272 0.484279 2.34102e-20)
(1.11557 0.437486 -1.24189e-20)
(1.1061 0.396253 1.01275e-20)
(1.09801 0.361331 2.81504e-22)
(0.339022 0.204082 2.76105e-20)
(0.768128 0.476165 1.98842e-21)
(1.00215 0.606714 -6.1391e-21)
(1.0953 0.628748 -2.54931e-20)
(1.11589 0.595122 1.65681e-20)
(1.11009 0.543501 3.57842e-21)
(1.09937 0.491197 -1.34425e-20)
(1.09039 0.44281 2.27814e-21)
(1.08315 0.400389 -2.78065e-21)
(1.07754 0.36425 1.57781e-21)
(0.337171 0.220119 -7.51785e-21)
(0.753417 0.501472 -1.0476e-20)
(0.975601 0.628317 2.68321e-20)
(1.06228 0.644107 1.25121e-20)
(1.0821 0.605342 -1.71829e-20)
(1.07834 0.550639 2.44149e-20)
(1.07061 0.496376 1.7679e-21)
(1.06446 0.446631 2.00655e-21)
(1.05959 0.403137 -2.8954e-22)
(1.05662 0.365908 8.24301e-23)
(0.332992 0.235149 4.86946e-20)
(0.734851 0.524238 3.76319e-20)
(0.945094 0.646456 -2.66961e-21)
(1.02685 0.656378 -5.85653e-21)
(1.04668 0.613008 -7.00253e-21)
(1.04551 0.555618 -3.4823e-21)
(1.04106 0.499714 1.86148e-21)
(1.0379 0.448863 1.77783e-21)
(1.0355 0.404403 7.19081e-22)
(1.03534 0.366207 -2.26361e-21)
(0.326564 0.248804 3.91714e-21)
(0.712491 0.544089 6.45346e-21)
(0.911532 0.661323 -3.48059e-20)
(0.989342 0.665327 1.5533e-20)
(1.00991 0.617982 4.36981e-21)
(1.01178 0.558339 -9.94911e-21)
(1.01086 0.501124 3.41094e-21)
(1.01081 0.449436 1.12756e-21)
(1.011 0.404121 -3.05849e-21)
(1.01392 0.365099 3.12298e-21)
(0.317875 0.26086 -1.84649e-20)
(0.686545 0.560426 -1.33826e-20)
(0.87541 0.672611 1.118e-20)
(0.950055 0.670975 3.01487e-21)
(0.972041 0.620168 -6.08085e-21)
(0.977355 0.558709 5.69249e-21)
(0.980164 0.500516 1.89267e-21)
(0.98329 0.448261 -5.97608e-21)
(0.986366 0.402226 1.74736e-20)
(0.993033 0.362624 7.38791e-21)
(0.30716 0.271146 -1.41498e-20)
(0.657658 0.573125 3.52827e-20)
(0.837005 0.680085 -2.25596e-20)
(0.909321 0.673228 -3.23999e-21)
(0.933333 0.619484 -4.08886e-21)
(0.942411 0.556649 3.67455e-22)
(0.949067 0.497808 -6.24142e-21)
(0.955466 0.445201 3.37072e-21)
(0.962002 0.398521 -9.55961e-24)
(0.973426 0.358826 -3.09518e-21)
(0.294646 0.279588 -1.1003e-21)
(0.626253 0.58205 -1.04712e-20)
(0.796722 0.683575 5.78977e-21)
(0.867485 0.672005 -3.24443e-21)
(0.89405 0.615873 3.61686e-21)
(0.907135 0.552114 4.25153e-21)
(0.917698 0.492957 1.26815e-20)
(0.927527 0.440156 -9.95698e-21)
(0.93827 0.392614 -1.91169e-20)
(0.954375 0.353011 8.58574e-21)
(0.280495 0.286002 -2.49698e-23)
(0.592768 0.587072 -1.94186e-21)
(0.754987 0.682993 9.04429e-22)
(0.824897 0.667247 4.59704e-21)
(0.854456 0.609296 -9.6692e-21)
(0.871725 0.545075 -1.72066e-20)
(0.886247 0.485967 -5.00754e-21)
(0.899745 0.433257 -1.72879e-21)
(0.915141 0.384708 2.65917e-20)
(0.932919 0.341324 -5.45722e-21)
(0.264928 0.290247 -1.10845e-21)
(0.557635 0.588087 -4.45301e-21)
(0.712228 0.67829 9.17806e-22)
(0.781907 0.658921 9.68589e-22)
(0.814817 0.599729 -7.90383e-21)
(0.8364 0.53551 3.36195e-20)
(0.854976 0.476811 -2.39372e-20)
(0.872343 0.4246 2.87002e-20)
(0.891486 0.376788 -2.0115e-20)
(0.908943 0.334901 -2.68683e-20)
(0.248192 0.292219 -3.51702e-22)
(0.521285 0.585026 -1.43622e-21)
(0.668869 0.669453 6.69854e-22)
(0.738858 0.647022 1.23766e-20)
(0.775401 0.587168 -5.44006e-21)
(0.801385 0.523402 8.21385e-21)
(0.824093 0.465435 1.39611e-20)
(0.845354 0.413894 -7.36794e-21)
(0.86775 0.366618 -1.97711e-20)
(0.886216 0.325002 2.71977e-20)
(0.23054 0.291842 9.95512e-21)
(0.484145 0.577856 1.3039e-20)
(0.625324 0.656499 -1.2821e-20)
(0.696091 0.631571 -1.12362e-20)
(0.736471 0.571629 4.07487e-20)
(0.766901 0.508767 -4.14544e-20)
(0.793748 0.451891 4.99841e-20)
(0.818786 0.401376 -1.2465e-20)
(0.844134 0.355198 1.33841e-20)
(0.864285 0.31477 2.51731e-20)
(0.212231 0.289067 -3.53148e-21)
(0.446642 0.566586 -1.30012e-20)
(0.582003 0.639473 -8.26629e-21)
(0.653935 0.612617 -4.40745e-21)
(0.698292 0.553148 5.33914e-21)
(0.733167 0.491629 -1.10781e-20)
(0.764112 0.436186 -1.49239e-20)
(0.792803 0.386981 -3.28169e-20)
(0.820984 0.342147 3.26038e-20)
(0.843232 0.303106 -1.04354e-20)
(0.193526 0.283877 2.52671e-20)
(0.409195 0.551258 -3.17666e-21)
(0.5393 0.618453 -1.16006e-20)
(0.612714 0.590231 1.47488e-20)
(0.661122 0.531784 -2.62922e-20)
(0.700393 0.472037 7.07565e-20)
(0.735352 0.418372 -3.77314e-20)
(0.76757 0.370792 3.41955e-20)
(0.798519 0.327612 -6.27247e-20)
(0.823075 0.290144 -1.66595e-20)
(0.174686 0.27628 -7.77351e-21)
(0.372212 0.531953 2.68084e-20)
(0.497597 0.593546 6.22807e-21)
(0.57274 0.56451 -1.37414e-20)
(0.625209 0.507614 -2.3733e-20)
(0.668785 0.450053 -7.2746e-22)
(0.70764 0.398501 1.25831e-20)
(0.743251 0.352842 -3.08965e-20)
(0.776896 0.31157 1.51346e-20)
(0.803856 0.275825 1.99618e-21)
(0.155968 0.266312 -4.42714e-20)
(0.33609 0.508786 -1.08469e-20)
(0.457261 0.564884 -3.03059e-21)
(0.53431 0.535573 3.56815e-20)
(0.590796 0.480735 -3.31992e-20)
(0.638542 0.425759 -8.55717e-21)
(0.681147 0.376645 -5.24748e-21)
(0.720006 0.333195 9.64203e-21)
(0.756254 0.294066 -1.22608e-20)
(0.785642 0.260182 -1.90864e-20)
(0.137622 0.254035 3.93453e-20)
(0.301207 0.481905 -2.23829e-20)
(0.418642 0.532631 1.06434e-21)
(0.49771 0.503561 -5.42155e-20)
(0.558112 0.451265 5.87856e-20)
(0.609856 0.399252 -1.85722e-20)
(0.656035 0.352887 1.11202e-20)
(0.697979 0.311916 9.65777e-21)
(0.736715 0.275144 2.80094e-20)
(0.768507 0.243267 -1.15407e-20)
(0.11989 0.239538 -1.60005e-20)
(0.267924 0.451488 4.64787e-20)
(0.382068 0.496974 2.61935e-20)
(0.463209 0.468638 4.28885e-20)
(0.527378 0.419339 -9.89598e-21)
(0.582911 0.370648 4.002e-21)
(0.632464 0.327325 3.21146e-20)
(0.67731 0.289087 7.17511e-21)
(0.718394 0.254869 6.92277e-22)
(0.752525 0.225146 -1.38097e-20)
(0.103001 0.222929 -3.69815e-20)
(0.236579 0.417744 -2.70649e-21)
(0.347848 0.458126 -1.5398e-20)
(0.43106 0.430987 -6.9101e-20)
(0.498798 0.38511 -6.67389e-20)
(0.557879 0.340075 1.1134e-20)
(0.61058 0.300071 -2.7391e-20)
(0.658126 0.2648 1.75019e-20)
(0.701401 0.233319 9.50243e-21)
(0.737771 0.2059 1.98078e-20)
(0.087171 0.204344 5.43932e-20)
(0.207486 0.380908 -4.44917e-20)
(0.316269 0.416321 -2.25815e-20)
(0.401495 0.39081 3.99689e-20)
(0.472564 0.348747 4.54502e-20)
(0.534923 0.307677 -1.5077e-20)
(0.590522 0.271246 -1.95621e-21)
(0.640548 0.23916 -5.44421e-20)
(0.685838 0.210584 -3.07791e-20)
(0.724318 0.185619 1.17424e-20)
(0.072601 0.183935 -3.09534e-20)
(0.180935 0.34124 1.30389e-20)
(0.287592 0.371816 4.79195e-20)
(0.37473 0.348327 -2.1493e-20)
(0.448853 0.310435 1.70162e-21)
(0.51419 0.273611 6.07128e-20)
(0.572418 0.240987 2.786e-21)
(0.624685 0.212282 5.21847e-20)
(0.671801 0.186764 2.17539e-20)
(0.712231 0.1644 -3.45922e-20)
(0.0594732 0.161874 4.29005e-20)
(0.157186 0.299023 4.75111e-21)
(0.262053 0.324886 3.11705e-21)
(0.350957 0.303773 4.37354e-20)
(0.427823 0.270372 -5.82763e-21)
(0.495816 0.238046 -3.81066e-20)
(0.556384 0.209439 1.8656e-20)
(0.610638 0.184291 -2.98219e-20)
(0.659376 0.161969 -1.24614e-20)
(0.701573 0.142344 1.25899e-20)
(0.0479506 0.13835 -2.67545e-20)
(0.136471 0.254559 -5.13894e-20)
(0.23986 0.275823 1.18685e-20)
(0.330349 0.257401 -2.32324e-20)
(0.409617 0.22877 -1.40251e-20)
(0.479922 0.201164 3.39833e-20)
(0.542521 0.176758 -8.22204e-21)
(0.598499 0.15532 7.58568e-21)
(0.648643 0.136316 -9.23475e-21)
(0.692398 0.119559 1.83386e-20)
(0.0381754 0.113567 9.68339e-21)
(0.118991 0.208169 3.46092e-20)
(0.221195 0.224935 -4.80561e-20)
(0.313053 0.209471 2.27076e-20)
(0.394357 0.18585 -1.03477e-20)
(0.46661 0.163153 -2.91121e-20)
(0.530919 0.143106 2.3766e-20)
(0.588344 0.125511 4.98157e-21)
(0.63967 0.10993 -7.66575e-22)
(0.684754 0.0961568 -2.13204e-20)
(0.0302677 0.0877399 3.1691e-21)
(0.104914 0.16019 1.11473e-20)
(0.206209 0.172542 4.3482e-20)
(0.299196 0.160257 -8.33664e-21)
(0.382147 0.141843 -6.5701e-21)
(0.45597 0.124213 2.43031e-21)
(0.521656 0.108655 1.07547e-21)
(0.580242 0.0950111 8.87225e-21)
(0.632518 0.0829422 -1.16616e-20)
(0.678681 0.0722516 -7.41788e-21)
(0.0243245 0.0610962 -7.92284e-21)
(0.0943762 0.110968 -1.35677e-20)
(0.195024 0.118974 -3.37976e-20)
(0.288876 0.110043 1.70053e-20)
(0.37307 0.0969902 1.3869e-20)
(0.448073 0.0845484 5.88629e-22)
(0.51479 0.0735812 -2.31877e-20)
(0.574247 0.0639731 -1.02989e-20)
(0.627234 0.055484 8.16495e-21)
(0.674212 0.0479539 8.74237e-21)
(0.0204187 0.0338698 1.376e-21)
(0.08748 0.0608611 -2.83825e-21)
(0.187733 0.0645706 6.41883e-21)
(0.282171 0.0591163 -4.34714e-21)
(0.367189 0.0515354 -3.82915e-21)
(0.442971 0.0443692 -2.59736e-21)
(0.510369 0.0380661 4.77062e-21)
(0.570399 0.0325537 1.81805e-20)
(0.623853 0.0276907 2.6345e-21)
(0.671368 0.0233667 -4.67171e-21)
(0.0185987 0.00630097 1.70193e-21)
(0.0842927 0.0102345 -4.6819e-21)
(0.184395 0.00967671 -5.30615e-21)
(0.279129 0.00777289 -3.68155e-21)
(0.364545 0.00572844 3.50606e-21)
(0.4407 0.00389 1.58211e-21)
(0.508423 0.00229494 -1.57677e-21)
(0.568724 0.000916191 -7.18545e-21)
(0.622393 -0.000284873 2.36642e-21)
(0.670139 -0.00133916 -2.2142e-21)
(0.0188878 -0.0213666 -1.69653e-21)
(0.084847 -0.0405436 4.66811e-21)
(0.185041 -0.0453595 5.29345e-21)
(0.279775 -0.0436905 -5.06827e-21)
(0.365159 -0.0401784 4.46285e-21)
(0.441278 -0.036673 2.23555e-21)
(0.508967 -0.0335464 -3.57099e-21)
(0.56924 -0.0307798 -4.15198e-21)
(0.622889 -0.0283082 6.1284e-22)
(0.67062 -0.0260765 -1.72989e-21)
(0.0212842 -0.0488883 1.8606e-21)
(0.0891408 -0.0911033 -5.56106e-21)
(0.189668 -0.100189 1.24447e-20)
(0.284108 -0.0949755 -1.09307e-20)
(0.369029 -0.0859322 -5.1836e-22)
(0.444702 -0.0771031 -7.27893e-21)
(0.512 -0.0692719 1.18339e-20)
(0.571942 -0.0623752 1.61002e-20)
(0.62532 -0.0562483 2.87895e-21)
(0.672739 -0.0507737 -6.20162e-21)
(0.0257607 -0.0760207 -1.58969e-21)
(0.0971367 -0.141076 -1.17289e-20)
(0.198243 -0.154463 -2.73004e-20)
(0.2921 -0.145785 2.36409e-20)
(0.376133 -0.131281 4.87382e-21)
(0.450955 -0.117184 4.31768e-21)
(0.517505 -0.104695 -2.12716e-20)
(0.576815 -0.0937062 -1.25532e-20)
(0.629674 -0.083954 -2.79707e-21)
(0.676492 -0.075268 1.9155e-20)
(0.0322653 -0.102524 -5.60089e-21)
(0.108763 -0.190098 7.06259e-21)
(0.210701 -0.207837 4.94201e-20)
(0.303697 -0.195825 -4.44579e-21)
(0.386426 -0.175976 -1.27113e-20)
(0.459997 -0.156702 9.12381e-21)
(0.525449 -0.13963 6.3873e-22)
(0.58383 -0.124613 3.22018e-21)
(0.635928 -0.111285 -7.05769e-21)
(0.681869 -0.0994432 -1.86678e-20)
(0.0407213 -0.128165 -3.77451e-21)
(0.123912 -0.237812 2.05538e-20)
(0.226947 -0.259974 -4.96949e-20)
(0.318822 -0.244807 2.15285e-20)
(0.399842 -0.219771 2.05266e-22)
(0.471772 -0.195447 -2.73555e-20)
(0.535783 -0.173898 1.21019e-20)
(0.592945 -0.154939 -1.13308e-21)
(0.644043 -0.138107 4.5977e-21)
(0.688847 -0.12319 -1.37694e-21)
(0.0510281 -0.152717 -4.31922e-20)
(0.142445 -0.283872 -5.16798e-20)
(0.246855 -0.310543 1.35759e-20)
(0.33737 -0.292449 -2.46644e-20)
(0.416296 -0.26243 -6.967e-21)
(0.486209 -0.233214 1.04247e-20)
(0.548446 -0.207322 3.86559e-21)
(0.604104 -0.184532 1.43724e-20)
(0.653971 -0.164285 -3.09544e-21)
(0.69739 -0.146394 1.67066e-20)
(0.063062 -0.175967 4.13007e-20)
(0.164187 -0.327942 2.65651e-20)
(0.270269 -0.359225 -2.00772e-20)
(0.359213 -0.338479 3.38449e-20)
(0.435681 -0.30372 -2.88182e-21)
(0.503216 -0.269808 -3.66968e-20)
(0.563359 -0.239733 6.43788e-21)
(0.617238 -0.213246 -3.90922e-20)
(0.66565 -0.18969 1.51239e-21)
(0.707458 -0.16894 1.4204e-20)
(0.0766771 -0.197712 -3.05571e-20)
(0.188934 -0.369704 5.4789e-20)
(0.297005 -0.405714 2.15169e-20)
(0.384199 -0.382635 -2.67093e-20)
(0.457873 -0.343422 2.56069e-22)
(0.522686 -0.305038 6.7593e-20)
(0.58043 -0.270967 3.06813e-21)
(0.632266 -0.24094 3.00368e-20)
(0.679009 -0.214199 3.66086e-20)
(0.719001 -0.19072 -2.05374e-20)
(0.0917069 -0.217764 1.71182e-20)
(0.216449 -0.408857 -8.21413e-21)
(0.326849 -0.44972 -1.94652e-20)