/*--------------------------------*- C++ -*----------------------------------*\
  =========                 |
  \\      /  F ield         | OpenFOAM: The Open Source CFD Toolbox
   \\    /   O peration     | Website:  https://openfoam.org
    \\  /    A nd           | Version:  7
     \\/     M anipulation  |
\*---------------------------------------------------------------------------*/
FoamFile
{
    version     2.0;
    format      ascii;
    class       volScalarField;
    location    "400";
    object      p;
}
// * * * * * * * * * * * * * * * * * * * * * * * * * * * * * * * * * * * * * //

dimensions      [0 2 -2 0 0 0 0];

internalField   nonuniform List<scalar> 
8500
(
-0.389536
-0.39274
-0.393812
-0.394518
-0.395094
-0.395588
-0.39598
-0.396195
-0.396094
-0.395883
-0.383336
-0.38613
-0.386859
-0.387084
-0.387016
-0.38672
-0.386207
-0.385471
-0.384435
-0.383363
-0.377662
-0.380007
-0.380397
-0.380161
-0.379483
-0.378439
-0.377072
-0.375444
-0.373559
-0.37157
-0.372468
-0.374349
-0.37441
-0.373736
-0.372481
-0.370728
-0.368554
-0.366088
-0.363455
-0.360464
-0.367699
-0.369128
-0.368875
-0.367788
-0.365985
-0.363555
-0.360615
-0.357349
-0.354086
-0.34997
-0.363302
-0.364313
-0.363767
-0.362291
-0.359966
-0.356876
-0.353203
-0.349158
-0.345386
-0.34007
-0.359227
-0.359879
-0.359063
-0.357221
-0.3544
-0.350647
-0.346271
-0.341435
-0.336922
-0.331079
-0.355438
-0.355804
-0.354746
-0.352557
-0.349277
-0.344822
-0.339759
-0.334182
-0.328999
-0.322446
-0.351916
-0.352079
-0.350807
-0.34828
-0.34448
-0.339488
-0.333682
-0.327347
-0.321577
-0.314156
-0.348658
-0.348707
-0.347246
-0.344394
-0.340115
-0.334547
-0.328037
-0.320941
-0.314646
-0.30624
-0.345683
-0.345701
-0.344076
-0.340914
-0.336178
-0.330037
-0.322859
-0.315017
-0.308281
-0.298721
-0.343031
-0.343088
-0.341314
-0.337867
-0.332695
-0.32601
-0.318215
-0.309666
-0.302638
-0.291663
-0.340762
-0.34091
-0.339001
-0.335283
-0.329708
-0.322531
-0.3142
-0.305018
-0.297933
-0.285196
-0.338954
-0.339216
-0.33718
-0.333213
-0.327274
-0.319682
-0.31092
-0.301225
-0.294377
-0.279534
-0.3377
-0.338067
-0.335903
-0.331714
-0.325459
-0.317551
-0.308483
-0.298449
-0.292077
-0.275075
-0.337093
-0.337523
-0.335226
-0.330845
-0.324334
-0.316219
-0.30697
-0.296831
-0.290915
-0.272222
-0.337227
-0.337644
-0.335198
-0.330626
-0.323986
-0.315747
-0.306422
-0.296458
-0.29053
-0.271165
-0.338177
-0.338478
-0.335863
-0.331127
-0.324411
-0.316149
-0.306827
-0.297323
-0.290501
-0.271566
-0.339997
-0.340056
-0.337241
-0.332356
-0.325602
-0.317394
-0.308126
-0.299285
-0.290711
-0.273394
-0.342712
-0.342391
-0.339327
-0.334289
-0.327509
-0.319391
-0.310205
-0.301975
-0.29155
-0.27936
-0.346319
-0.345472
-0.342096
-0.336876
-0.330055
-0.322015
-0.312899
-0.30483
-0.29326
-0.292299
-0.350795
-0.349271
-0.345522
-0.340061
-0.333154
-0.325134
-0.316027
-0.307619
-0.295871
-0.292506
-0.356112
-0.353765
-0.349563
-0.343791
-0.336732
-0.328631
-0.319396
-0.310329
-0.298092
-0.291198
-0.36223
-0.35894
-0.354198
-0.348038
-0.340742
-0.332429
-0.322866
-0.312907
-0.299732
-0.289807
-0.369124
-0.364788
-0.359425
-0.352802
-0.345166
-0.33648
-0.326354
-0.315228
-0.300791
-0.288026
-0.376787
-0.371314
-0.365267
-0.358105
-0.350005
-0.340755
-0.329787
-0.317199
-0.301202
-0.286
-0.385222
-0.378536
-0.371759
-0.363985
-0.35527
-0.345227
-0.333087
-0.318735
-0.300991
-0.283632
-0.394441
-0.38648
-0.378943
-0.37047
-0.360964
-0.349848
-0.336162
-0.319778
-0.300182
-0.280921
-0.404448
-0.395169
-0.386847
-0.377575
-0.367065
-0.354533
-0.338914
-0.32029
-0.298814
-0.277843
-0.415236
-0.40461
-0.395479
-0.385278
-0.373509
-0.359162
-0.341248
-0.320246
-0.296913
-0.274388
-0.426776
-0.414788
-0.404812
-0.393524
-0.380181
-0.363588
-0.343073
-0.319625
-0.294498
-0.270538
-0.439001
-0.425652
-0.414779
-0.40221
-0.386915
-0.367649
-0.344309
-0.318408
-0.291569
-0.266272
-0.451811
-0.437117
-0.42527
-0.41118
-0.393502
-0.371184
-0.344877
-0.316566
-0.288111
-0.261559
-0.46506
-0.449051
-0.436128
-0.420225
-0.39971
-0.374036
-0.3447
-0.314063
-0.284096
-0.256364
-0.47856
-0.461279
-0.44715
-0.429086
-0.405298
-0.376053
-0.343699
-0.310853
-0.279484
-0.250645
-0.49208
-0.473581
-0.458085
-0.437468
-0.410023
-0.37709
-0.341794
-0.306882
-0.274226
-0.244359
-0.505345
-0.485693
-0.468638
-0.445056
-0.413655
-0.37701
-0.338904
-0.30209
-0.268267
-0.237458
-0.518047
-0.497313
-0.478475
-0.451529
-0.415972
-0.375683
-0.334944
-0.296409
-0.261549
-0.229898
-0.529844
-0.508109
-0.487237
-0.456575
-0.416772
-0.372987
-0.329831
-0.289772
-0.254012
-0.221637
-0.540376
-0.517723
-0.49455
-0.459896
-0.41587
-0.368807
-0.323483
-0.282112
-0.245599
-0.212637
-0.549266
-0.525781
-0.500045
-0.461221
-0.413101
-0.36304
-0.315823
-0.273363
-0.236261
-0.202868
-0.55614
-0.531907
-0.50337
-0.460308
-0.408321
-0.35559
-0.306778
-0.263465
-0.225957
-0.192313
-0.560628
-0.53573
-0.504202
-0.456948
-0.401407
-0.346377
-0.296281
-0.252363
-0.214654
-0.18096
-0.562384
-0.536897
-0.50226
-0.450968
-0.392262
-0.335331
-0.284275
-0.240006
-0.202311
-0.16876
-0.56109
-0.535089
-0.497306
-0.442236
-0.38081
-0.322404
-0.27072
-0.226354
-0.188854
-0.155536
-0.556464
-0.530024
-0.489155
-0.430657
-0.367006
-0.307563
-0.255594
-0.211391
-0.174217
-0.140987
-0.548273
-0.521477
-0.477668
-0.416176
-0.350824
-0.290793
-0.238887
-0.195127
-0.158454
-0.125078
-0.536334
-0.509279
-0.462756
-0.398771
-0.332267
-0.272094
-0.220594
-0.177573
-0.141678
-0.108871
-0.520521
-0.493319
-0.444379
-0.378459
-0.311361
-0.251484
-0.200749
-0.158786
-0.123716
-0.0921427
-0.500765
-0.473546
-0.422548
-0.355292
-0.28816
-0.22902
-0.179452
-0.138774
-0.104715
-0.0746527
-0.477056
-0.44997
-0.397331
-0.329362
-0.262737
-0.204797
-0.156727
-0.117557
-0.0847752
-0.0563761
-0.44944
-0.422663
-0.368864
-0.300793
-0.235171
-0.178885
-0.132627
-0.0952163
-0.0639593
-0.0373804
-0.418019
-0.391764
-0.337348
-0.269675
-0.205569
-0.151367
-0.107246
-0.0718411
-0.0423358
-0.0177702
-0.382957
-0.357479
-0.302907
-0.236021
-0.174166
-0.122383
-0.0806942
-0.0475255
-0.0199866
0.00234063
-0.344479
-0.320084
-0.265375
-0.200316
-0.141071
-0.0920777
-0.053096
-0.0223715
0.00300488
0.0228653
-0.302813
-0.279825
-0.225012
-0.162763
-0.106499
-0.060611
-0.0245888
0.00351475
0.0265528
0.0437147
-0.258163
-0.236529
-0.182852
-0.123527
-0.0706465
-0.0281546
0.00469239
0.0300351
0.0505165
0.0645513
-0.210862
-0.19081
-0.139091
-0.0828907
-0.0337218
0.00511932
0.0346319
0.057108
0.0746187
0.0845497
-0.161512
-0.142963
-0.0938428
-0.0411326
0.00404722
0.0390352
0.0651208
0.0846279
0.098519
0.103129
-0.110327
-0.0934921
-0.047371
0.00146827
0.0424193
0.0734038
0.0959958
0.112347
0.122097
0.122035
-0.0577137
-0.0428396
-1.70979e-05
0.0446233
0.081147
0.108014
0.127002
0.139859
0.145329
0.146129
-0.00411981
0.00858576
0.0478514
0.0880335
0.119978
0.142638
0.157873
0.167043
0.169149
0.170385
0.0500043
0.0603727
0.0958611
0.131392
0.158654
0.177043
0.188433
0.19397
0.193217
0.193382
0.104205
0.112104
0.143639
0.174389
0.196912
0.210997
0.218508
0.220515
0.217088
0.21542
0.158028
0.163362
0.190816
0.216714
0.234488
0.244276
0.247928
0.2465
0.240411
0.23648
0.211022
0.213729
0.237028
0.258062
0.271122
0.276661
0.276512
0.271741
0.262994
0.256597
0.262744
0.262797
0.281921
0.298133
0.306562
0.307938
0.304079
0.296061
0.284679
0.275731
0.31276
0.310167
0.32515
0.336637
0.340561
0.337898
0.330448
0.319297
0.30534
0.293825
0.360651
0.355456
0.366386
0.373293
0.372881
0.36634
0.355447
0.341299
0.324855
0.310807
0.406018
0.398296
0.405311
0.407836
0.403296
0.393071
0.378912
0.361925
0.34311
0.326601
0.448482
0.438343
0.441629
0.440015
0.431593
0.417908
0.400685
0.381042
0.359996
0.341131
0.487687
0.475272
0.475063
0.469593
0.457572
0.440682
0.420624
0.398526
0.37541
0.354326
0.523305
0.508784
0.505355
0.496354
0.481047
0.461234
0.438593
0.414264
0.389257
0.366118
0.555039
0.538609
0.532274
0.520101
0.50185
0.479422
0.45447
0.428149
0.401448
0.376446
0.58262
0.564504
0.555612
0.540656
0.519832
0.495117
0.468148
0.440089
0.411905
0.385257
0.605814
0.586257
0.575186
0.557867
0.53486
0.508208
0.479529
0.450001
0.420559
0.392504
0.624423
0.603687
0.590841
0.571602
0.546822
0.518598
0.488533
0.457815
0.427351
0.398149
0.638282
0.616647
0.602452
0.581753
0.555627
0.526209
0.495093
0.463473
0.432232
0.402159
0.647267
0.625023
0.609919
0.588237
0.561204
0.530982
0.499157
0.466931
0.435167
0.404513
0.65129
0.628736
0.613176
0.590997
0.563504
0.532873
0.500691
0.468157
0.43613
0.405196
0.650301
0.627741
0.612185
0.59
0.562499
0.53186
0.499672
0.467135
0.435106
0.404194
0.64429
0.622029
0.606936
0.58524
0.558182
0.527937
0.496099
0.463862
0.432091
0.401503
0.633288
0.611626
0.597453
0.576734
0.550571
0.521119
0.489981
0.458346
0.427093
0.397127
0.617361
0.596593
0.583788
0.564529
0.539703
0.511437
0.481347
0.450614
0.420135
0.391082
0.596616
0.577027
0.566022
0.548692
0.525637
0.498942
0.470241
0.440701
0.411248
0.383387
0.571197
0.553056
0.544267
0.529319
0.508455
0.483704
0.456721
0.428661
0.400473
0.374068
0.541285
0.524845
0.518663
0.506528
0.488257
0.465808
0.440861
0.414556
0.387865
0.363159
0.507095
0.492587
0.489377
0.48046
0.465165
0.445358
0.422749
0.398463
0.373488
0.350702
0.468879
0.456511
0.456603
0.451282
0.439318
0.422474
0.402487
0.380469
0.357416
0.336748
0.426918
0.41687
0.420561
0.419177
0.410877
0.397291
0.380191
0.360675
0.339733
0.321353
0.381525
0.373951
0.381494
0.384354
0.380015
0.369959
0.355988
0.33919
0.320528
0.304582
0.33304
0.328061
0.339666
0.347035
0.346926
0.340642
0.330018
0.316132
0.299903
0.286502
0.28183
0.279535
0.295365
0.307465
0.311814
0.309515
0.30243
0.29163
0.27796
0.267186
0.228283
0.228727
0.248896
0.265899
0.2749
0.276765
0.273386
0.265821
0.254811
0.246705
0.172808
0.176011
0.200579
0.222612
0.236414
0.242588
0.243053
0.238854
0.230571
0.225126
0.115829
0.121776
0.150752
0.177885
0.196597
0.207189
0.211608
0.21089
0.205366
0.202496
0.0577827
0.0664262
0.0997612
0.132013
0.155699
0.170779
0.179231
0.182105
0.17935
0.178838
-0.000882974
0.010371
0.0479649
0.0852981
0.113976
0.133574
0.146098
0.152686
0.15272
0.154093
-0.0597167
-0.0459725
-0.00427227
0.038046
0.0716896
0.0957948
0.112377
0.122811
0.125854
0.128263
-0.118265
-0.102187
-0.0565808
-0.00943449
0.0291025
0.0576768
0.0782396
0.0926043
0.0992435
0.100996
-0.176077
-0.157859
-0.108589
-0.056836
-0.013526
0.0194535
0.0438582
0.0619598
0.073229
0.0738112
-0.232706
-0.212579
-0.159926
-0.103856
-0.0559425
-0.0186423
0.00951593
0.0310066
0.0467937
0.0525411
-0.28772
-0.26593
-0.210237
-0.150201
-0.0978972
-0.0563954
-0.0245161
0.000194298
0.0199467
0.0316165
-0.340782
-0.317457
-0.259206
-0.195589
-0.139146
-0.0936141
-0.0580723
-0.030216
-0.00719166
0.00901339
-0.391493
-0.366775
-0.306631
-0.239744
-0.179455
-0.130121
-0.0910492
-0.0601266
-0.0342584
-0.0145977
-0.4394
-0.413294
-0.352482
-0.282381
-0.218608
-0.165741
-0.123333
-0.089462
-0.0609589
-0.038287
-0.484219
-0.456823
-0.396168
-0.323227
-0.256412
-0.2003
-0.154786
-0.118123
-0.0871469
-0.0616895
-0.525729
-0.497376
-0.436749
-0.362274
-0.29267
-0.233629
-0.185265
-0.146
-0.112734
-0.084717
-0.563698
-0.5347
-0.474317
-0.399097
-0.327152
-0.265576
-0.214641
-0.172986
-0.137631
-0.10728
-0.597917
-0.568541
-0.508928
-0.43328
-0.359789
-0.296009
-0.242795
-0.198981
-0.161749
-0.129261
-0.62824
-0.598701
-0.540411
-0.464886
-0.390345
-0.324794
-0.269625
-0.223895
-0.185012
-0.150552
-0.654575
-0.625056
-0.568576
-0.493822
-0.418721
-0.351869
-0.295046
-0.247641
-0.207362
-0.171075
-0.676887
-0.647544
-0.593301
-0.519961
-0.44485
-0.377154
-0.319037
-0.270142
-0.228733
-0.190801
-0.695194
-0.666164
-0.614528
-0.543217
-0.468669
-0.400568
-0.341546
-0.29143
-0.248985
-0.209802
-0.709571
-0.680972
-0.632254
-0.563546
-0.490134
-0.42207
-0.362492
-0.311453
-0.26795
-0.228334
-0.720147
-0.692081
-0.646519
-0.580938
-0.509224
-0.441648
-0.381858
-0.33019
-0.285919
-0.246124
-0.727107
-0.699659
-0.657413
-0.595418
-0.525946
-0.459313
-0.399657
-0.347649
-0.302822
-0.262592
-0.730683
-0.703928
-0.665075
-0.607042
-0.540325
-0.475089
-0.415913
-0.363826
-0.318597
-0.277838
-0.73115
-0.705158
-0.669684
-0.615901
-0.552414
-0.489015
-0.430656
-0.378739
-0.33329
-0.292126
-0.72882
-0.703661
-0.671467
-0.622123
-0.562286
-0.501146
-0.443937
-0.392438
-0.346973
-0.305609
-0.724031
-0.699775
-0.670692
-0.625871
-0.570037
-0.511554
-0.455822
-0.404991
-0.359705
-0.318338
-0.717138
-0.693856
-0.667663
-0.627339
-0.575783
-0.520324
-0.466389
-0.416469
-0.371536
-0.330337
-0.708507
-0.686268
-0.662713
-0.626753
-0.579659
-0.527551
-0.475719
-0.426949
-0.382525
-0.341639
-0.698498
-0.677367
-0.65619
-0.624362
-0.581817
-0.533339
-0.483901
-0.436511
-0.392744
-0.352291
-0.687461
-0.667498
-0.648442
-0.620438
-0.582426
-0.537797
-0.491025
-0.445243
-0.402273
-0.362355
-0.675724
-0.656981
-0.63981
-0.615265
-0.581667
-0.541043
-0.497185
-0.453235
-0.411199
-0.371905
-0.66359
-0.646108
-0.630608
-0.609136
-0.579735
-0.543197
-0.502473
-0.460577
-0.419614
-0.381021
-0.651325
-0.635136
-0.621117
-0.602335
-0.576832
-0.544383
-0.506981
-0.467359
-0.427609
-0.38979
-0.639162
-0.624282
-0.61158
-0.595135
-0.57317
-0.544729
-0.510798
-0.473665
-0.435279
-0.398304
-0.627295
-0.613725
-0.602195
-0.587774
-0.56896
-0.544369
-0.514008
-0.479575
-0.442711
-0.406661
-0.615881
-0.603603
-0.593122
-0.580456
-0.564411
-0.543439
-0.516692
-0.48516
-0.449989
-0.414961
-0.605048
-0.59402
-0.584484
-0.573342
-0.559716
-0.542083
-0.518931
-0.490482
-0.457186
-0.423304
-0.59489
-0.585047
-0.576373
-0.566557
-0.555047
-0.540446
-0.520804
-0.495594
-0.464363
-0.431795
-0.585473
-0.576728
-0.568849
-0.560196
-0.550546
-0.538673
-0.522393
-0.500539
-0.471559
-0.440527
-0.576838
-0.569086
-0.561949
-0.554332
-0.546325
-0.536903
-0.523787
-0.50535
-0.478788
-0.449606
-0.568996
-0.562117
-0.555686
-0.549015
-0.542471
-0.535253
-0.525073
-0.510051
-0.486048
-0.459068
-0.561926
-0.555799
-0.550049
-0.544274
-0.539051
-0.53382
-0.526335
-0.514663
-0.493283
-0.469032
-0.555571
-0.550081
-0.545001
-0.540105
-0.536105
-0.532669
-0.527642
-0.519181
-0.500497
-0.479226
-0.549837
-0.544883
-0.540476
-0.536468
-0.533637
-0.531833
-0.529031
-0.523595
-0.507617
-0.489684
-0.544596
-0.540102
-0.536377
-0.533284
-0.531603
-0.531299
-0.530506
-0.52787
-0.514669
-0.498817
-0.53969
-0.535607
-0.53258
-0.530433
-0.529901
-0.530999
-0.532047
-0.531787
-0.522779
-0.501523
-0.53494
-0.53125
-0.528935
-0.52776
-0.528377
-0.5308
-0.533564
-0.535159
-0.53122
-0.507255
-0.53016
-0.526877
-0.525281
-0.525081
-0.526833
-0.530509
-0.534861
-0.537893
-0.538412
-0.514133
-0.525171
-0.522334
-0.521451
-0.522203
-0.525044
-0.529886
-0.535653
-0.539876
-0.543722
-0.519931
-0.519811
-0.517479
-0.517288
-0.518936
-0.522778
-0.528666
-0.535631
-0.540907
-0.547016
-0.524344
-0.513953
-0.51219
-0.512652
-0.515106
-0.519822
-0.5266
-0.534511
-0.540734
-0.548225
-0.527564
-0.507505
-0.506376
-0.507432
-0.510575
-0.515999
-0.523466
-0.53207
-0.539108
-0.5473
-0.529494
-0.500422
-0.499977
-0.501555
-0.505244
-0.511189
-0.519124
-0.52817
-0.535833
-0.544282
-0.529834
-0.492706
-0.492973
-0.494987
-0.499069
-0.505334
-0.513507
-0.522754
-0.530798
-0.539324
-0.528294
-0.484402
-0.485387
-0.487741
-0.492062
-0.498451
-0.506638
-0.515845
-0.524049
-0.532581
-0.524697
-0.475597
-0.477275
-0.479874
-0.484284
-0.490612
-0.498605
-0.507531
-0.515823
-0.524131
-0.519062
-0.466411
-0.468729
-0.471477
-0.475841
-0.481943
-0.489555
-0.498031
-0.506183
-0.513697
-0.511879
-0.456987
-0.459866
-0.462673
-0.46687
-0.472606
-0.479683
-0.487552
-0.495304
-0.502172
-0.502681
-0.447479
-0.450819
-0.453601
-0.457531
-0.462784
-0.469203
-0.476337
-0.483474
-0.489724
-0.491604
-0.438043
-0.441729
-0.444411
-0.447991
-0.452671
-0.458334
-0.464623
-0.470972
-0.47654
-0.479106
-0.428826
-0.432733
-0.435249
-0.438414
-0.442456
-0.447293
-0.452651
-0.458078
-0.462866
-0.465598
-0.419956
-0.423953
-0.426249
-0.428954
-0.432312
-0.436281
-0.44065
-0.445064
-0.448968
-0.451477
-0.411535
-0.415496
-0.417527
-0.419742
-0.422396
-0.425475
-0.428829
-0.43218
-0.435116
-0.437134
-0.403635
-0.407442
-0.409174
-0.410884
-0.41283
-0.415023
-0.417361
-0.419638
-0.421558
-0.422917
-0.396298
-0.399847
-0.401255
-0.402459
-0.403709
-0.405036
-0.406381
-0.407605
-0.4085
-0.409103
-0.397959
-0.399854
-0.415276
-0.443556
-0.486971
-0.511829
-0.479703
-0.387961
-0.283172
-0.209852
-0.167534
-0.155353
-0.176769
-0.187981
-0.166361
-0.130515
-0.0986593
-0.0835614
-0.0781203
-0.0768774
-0.0790814
-0.0857217
-0.0793758
-0.0729098
-0.0542719
-0.0336215
-0.0533942
-0.0608298
-0.0345001
0.00973475
-0.386086
-0.391512
-0.413995
-0.451048
-0.502999
-0.532795
-0.500335
-0.403738
-0.292192
-0.212244
-0.164872
-0.1482
-0.166256
-0.174641
-0.156728
-0.125075
-0.0975248
-0.0843674
-0.0809957
-0.0814528
-0.0831405
-0.0886213
-0.0804979
-0.073167
-0.0543058
-0.0336214
-0.0531956
-0.0609763
-0.0345601
0.0103568
-0.375163
-0.383629
-0.412227
-0.45658
-0.515714
-0.550133
-0.51789
-0.417291
-0.299909
-0.214074
-0.161981
-0.141094
-0.155643
-0.161105
-0.146634
-0.119287
-0.0962294
-0.0851032
-0.0839732
-0.0862105
-0.0872642
-0.0914391
-0.0815533
-0.0733606
-0.0543559
-0.0336663
-0.053009
-0.0611126
-0.0346242
0.0109429
-0.365062
-0.376006
-0.409674
-0.459764
-0.524935
-0.563685
-0.532276
-0.428634
-0.306389
-0.215445
-0.158983
-0.134183
-0.145053
-0.147599
-0.136161
-0.113179
-0.0947622
-0.085752
-0.087022
-0.0911089
-0.0914274
-0.0941593
-0.0825385
-0.0734896
-0.0544191
-0.0337522
-0.0528367
-0.061239
-0.034694
0.0114885
-0.355625
-0.368731
-0.405884
-0.460502
-0.530533
-0.573443
-0.543472
-0.437812
-0.311706
-0.216448
-0.155994
-0.127585
-0.134619
-0.134353
-0.125404
-0.10679
-0.0931139
-0.0862961
-0.0901071
-0.0961007
-0.0956038
-0.0967675
-0.0834503
-0.073553
-0.0544918
-0.0338739
-0.0526803
-0.0613552
-0.0347707
0.0119896
-0.346679
-0.361407
-0.401044
-0.458839
-0.532569
-0.579427
-0.551515
-0.444896
-0.315945
-0.217166
-0.153118
-0.121397
-0.12448
-0.121577
-0.114481
-0.100166
-0.0912777
-0.0867169
-0.0931909
-0.101134
-0.0997658
-0.0992505
-0.0842855
-0.0735499
-0.0545696
-0.0340258
-0.0525415
-0.0614606
-0.0348549
0.0124422
-0.338091
-0.353987
-0.395171
-0.454921
-0.531283
-0.581839
-0.5565
-0.449977
-0.319195
-0.217669
-0.150447
-0.115687
-0.114778
-0.109456
-0.103532
-0.0933658
-0.0892504
-0.0869948
-0.0962338
-0.106156
-0.103885
-0.101597
-0.0850409
-0.0734798
-0.0546476
-0.0342013
-0.0524208
-0.0615542
-0.0349469
0.0128426
-0.329878
-0.34649
-0.38836
-0.44901
-0.527035
-0.580931
-0.558574
-0.45316
-0.321548
-0.21802
-0.148057
-0.110498
-0.105649
-0.0981442
-0.0927278
-0.086457
-0.0870324
-0.0871096
-0.099196
-0.111108
-0.107931
-0.103796
-0.0857137
-0.073342
-0.0547205
-0.0343937
-0.0523186
-0.0616346
-0.0350462
0.0131875
-0.322045
-0.33896
-0.380802
-0.441452
-0.520262
-0.577034
-0.557928
-0.454557
-0.323091
-0.218268
-0.146006
-0.105857
-0.0972134
-0.0877564
-0.0822485
-0.0795168
-0.084629
-0.0870405
-0.102038
-0.115938
-0.111877
-0.105839
-0.0863013
-0.0731362
-0.0547827
-0.0345957
-0.0522348
-0.0616999
-0.035152
0.0134735
-0.31466
-0.331484
-0.372742
-0.432629
-0.511433
-0.570522
-0.554804
-0.454282
-0.323904
-0.218454
-0.144335
-0.101775
-0.0895637
-0.0783749
-0.0722995
-0.0726282
-0.0820495
-0.0867672
-0.104723
-0.120589
-0.115695
-0.107718
-0.0868016
-0.072862
-0.0548286
-0.0348001
-0.0521683
-0.0617478
-0.0352627
0.0136979
-0.307858
-0.324187
-0.364438
-0.422926
-0.501012
-0.561799
-0.549463
-0.452457
-0.32406
-0.218606
-0.143066
-0.0982524
-0.08276
-0.070046
-0.0630804
-0.0658788
-0.0793086
-0.0862695
-0.107217
-0.125014
-0.119357
-0.109428
-0.0872126
-0.0725196
-0.0548528
-0.0349998
-0.0521172
-0.0617754
-0.0353764
0.0138579
-0.301807
-0.317223
-0.356139
-0.412702
-0.489426
-0.551265
-0.542163
-0.449215
-0.323634
-0.218753
-0.142209
-0.0952868
-0.0768289
-0.0627762
-0.0545601
-0.0593629
-0.0764267
-0.0855287
-0.109489
-0.129167
-0.122837
-0.110964
-0.0875334
-0.0721091
-0.0548502
-0.035188
-0.0520792
-0.0617793
-0.0354904
0.0139508
-0.296669
-0.310757
-0.348064
-0.402262
-0.477041
-0.539276
-0.533134
-0.444718
-0.322716
-0.218932
-0.141776
-0.0928769
-0.0717667
-0.0565409
-0.0470112
-0.0531743
-0.0734283
-0.0845269
-0.111512
-0.133011
-0.126101
-0.112321
-0.0877633
-0.0716313
-0.0548153
-0.0353583
-0.0520518
-0.0617556
-0.0356015
0.0139744
-0.292562
-0.304946
-0.340386
-0.391847
-0.464146
-0.526125
-0.522591
-0.439129
-0.321392
-0.219171
-0.141749
-0.0910088
-0.0675341
-0.0512804
-0.0405086
-0.047388
-0.0703405
-0.0832482
-0.113262
-0.136512
-0.129121
-0.113495
-0.0879016
-0.0710877
-0.05474
-0.0355034
-0.052032
-0.0616999
-0.0357058
0.0139264
-0.289531
-0.299909
-0.333218
-0.38163
-0.450937
-0.512036
-0.510725
-0.43257
-0.319665
-0.219398
-0.142019
-0.0896144
-0.0640412
-0.0468885
-0.0350387
-0.0420572
-0.067192
-0.0816782
-0.11472
-0.139646
-0.131876
-0.114483
-0.0879465
-0.0704795
-0.054616
-0.0356154
-0.0520152
-0.0616076
-0.035799
0.0138046
-0.287533
-0.295695
-0.326614
-0.371714
-0.437488
-0.497215
-0.497747
-0.425116
-0.317438
-0.219464
-0.14243
-0.0886072
-0.0611887
-0.0432404
-0.0305319
-0.0372084
-0.0640097
-0.0798045
-0.115867
-0.142391
-0.134354
-0.115287
-0.0878976
-0.0698076
-0.0544466
-0.0356903
-0.0519954
-0.0614727
-0.0358762
0.0136068
-0.28638
-0.292269
-0.32058
-0.36214
-0.423932
-0.481799
-0.483963
-0.417038
-0.314962
-0.219634
-0.143229
-0.0881544
-0.0590436
-0.0403123
-0.0269473
-0.0328368
-0.0608123
-0.0776148
-0.11669
-0.144738
-0.136562
-0.115907
-0.0877672
-0.0690745
-0.0542611
-0.0357369
-0.051974
-0.0612895
-0.0359317
0.013331
-0.285765
-0.289474
-0.315043
-0.352876
-0.41119
-0.465534
-0.469558
-0.40907
-0.313337
-0.22101
-0.145298
-0.0888174
-0.0578876
-0.0382028
-0.024348
-0.0290146
-0.0576224
-0.0751016
-0.117157
-0.146657
-0.138466
-0.116325
-0.0875832
-0.0682904
-0.0540859
-0.0357656
-0.0519706
-0.06106
-0.0359595
0.0129769
-0.285842
-0.287146
-0.309668
-0.343513
-0.398352
-0.447835
-0.453908
-0.400905
-0.312276
-0.223214
-0.148134
-0.0902616
-0.0573632
-0.0365535
-0.0225218
-0.026045
-0.0545605
-0.0722298
-0.117282
-0.148074
-0.139716
-0.116516
-0.0873291
-0.0674727
-0.0538247
-0.0357159
-0.0519751
-0.0607913
-0.0359537
0.012545
-0.285144
-0.285442
-0.305017
-0.334515
-0.379822
-0.430986
-0.43656
-0.388336
-0.305364
-0.21997
-0.146499
-0.0890244
-0.0552011
-0.0337973
-0.0201101
-0.0229949
-0.0513729
-0.0691323
-0.116871
-0.149329
-0.140473
-0.116568
-0.0868208
-0.066604
-0.0531702
-0.0354045
-0.0518064
-0.0603548
-0.0359168
0.0120119
-0.275633
-0.283555
-0.30318
-0.330619
-0.373312
-0.417196
-0.418845
-0.36965
-0.289496
-0.208363
-0.13812
-0.0831581
-0.0500724
-0.028965
-0.0151055
-0.0117719
-0.0437284
-0.0623029
-0.116238
-0.154445
-0.145717
-0.116999
-0.0858551
-0.0654656
-0.0518567
-0.0347395
-0.0510824
-0.0591484
-0.0357197
0.0111439
-0.274693
-0.282262
-0.299335
-0.323185
-0.357999
-0.391999
-0.389152
-0.342228
-0.268905
-0.194625
-0.129446
-0.0780129
-0.0456339
-0.0249358
-0.0119506
-0.0163042
-0.0392452
-0.0570231
-0.114447
-0.157064
-0.144123
-0.115504
-0.0836661
-0.0630221
-0.0500995
-0.0349269
-0.050708
-0.0583272
-0.0356589
0.0101545
-0.272008
-0.278589
-0.292454
-0.312407
-0.339801
-0.364691
-0.358752
-0.315643
-0.249527
-0.181842
-0.121286
-0.0729531
-0.041422
-0.0211772
-0.00876486
-0.0123318
-0.0357773
-0.0531145
-0.11215
-0.157687
-0.144393
-0.113303
-0.0810114
-0.0602672
-0.0481842
-0.0350796
-0.0502915
-0.0575941
-0.0354806
0.00916216
-0.266636
-0.271971
-0.28237
-0.298576
-0.319544
-0.336862
-0.328841
-0.289741
-0.230526
-0.169234
-0.113213
-0.067931
-0.0373932
-0.017603
-0.00532044
-0.00772889
-0.0312963
-0.0484858
-0.108725
-0.157439
-0.143865
-0.110362
-0.0778774
-0.0571436
-0.0460202
-0.0350986
-0.0497051
-0.0566438
-0.0350672
0.00809498
-0.258004
-0.262694
-0.269995
-0.282642
-0.298179
-0.309458
-0.300077
-0.264986
-0.212286
-0.157028
-0.105327
-0.0629391
-0.0334861
-0.0141388
-0.00160071
-0.0026806
-0.0255038
-0.0424443
-0.10376
-0.156129
-0.142002
-0.10654
-0.0742115
-0.0536298
-0.0435776
-0.0349577
-0.0489194
-0.0554071
-0.034412
0.00693512
-0.246437
-0.251338
-0.256134
-0.26551
-0.276605
-0.283237
-0.273054
-0.241718
-0.194937
-0.145237
-0.0976374
-0.0579822
-0.0296544
-0.0107077
0.00242574
0.00293995
-0.0184879
-0.0350521
-0.0969732
-0.15317
-0.138551
-0.101771
-0.0699893
-0.049706
-0.0408234
-0.0346036
-0.047879
-0.0538537
-0.0334922
0.00569475
-0.232949
-0.238459
-0.241296
-0.247904
-0.25546
-0.258636
-0.248038
-0.220057
-0.178558
-0.133911
-0.0901818
-0.0530798
-0.025863
-0.00723353
0.0067721
0.00920922
-0.0102656
-0.0264305
-0.0880921
-0.148173
-0.133362
-0.096022
-0.065197
-0.0453592
-0.0377238
-0.033966
-0.0465085
-0.0519195
-0.0322358
0.00438922
-0.218303
-0.224507
-0.226131
-0.230357
-0.235128
-0.235785
-0.225049
-0.200009
-0.163175
-0.123076
-0.0829758
-0.0482557
-0.0220897
-0.00365841
0.0114305
0.0161916
-0.000781786
-0.016557
-0.0770458
-0.140907
-0.126325
-0.0892919
-0.0598376
-0.0405859
-0.0342425
-0.0329618
-0.0447205
-0.0495095
-0.0305504
0.00303251
-0.203054
-0.209871
-0.210825
-0.21319
-0.215786
-0.214634
-0.20398
-0.181507
-0.148777
-0.112746
-0.0760308
-0.0435401
-0.018329
4.28122e-05
0.0163694
0.0239437
0.00999554
-0.00541078
-0.0640967
-0.131211
-0.117389
-0.0816217
-0.0539346
-0.0353945
-0.0303412
-0.031498
-0.042414
-0.0465135
-0.0283501
0.00164036
-0.187649
-0.194891
-0.195558
-0.196563
-0.197489
-0.195069
-0.184675
-0.164455
-0.135331
-0.102931
-0.0693528
-0.0389636
-0.0145955
0.00385307
0.0215264
0.0325557
0.0219367
0.00681136
-0.0498178
-0.119015
-0.106591
-0.0730995
-0.0475337
-0.0298076
-0.0259799
-0.0294754
-0.0394751
-0.0428194
-0.0255616
0.00023255
-0.172384
-0.17984
-0.180469
-0.180545
-0.180233
-0.17696
-0.166965
-0.148741
-0.122796
-0.0936359
-0.0629477
-0.0345527
-0.0109285
0.00771353
0.0267698
0.0423211
0.0345711
0.0195352
-0.0350285
-0.104379
-0.094068
-0.0638601
-0.0407032
-0.0238645
-0.0211199
-0.0267943
-0.0357818
-0.0383228
-0.0221278
-0.00116285
-0.157455
-0.16494
-0.165675
-0.165173
-0.163995
-0.160188
-0.150693
-0.13426
-0.111123
-0.0848622
-0.0568253
-0.0303263
-0.00739322
0.0115246
0.0318592
0.0518484
0.0469042
0.0317222
-0.0206023
-0.0875031
-0.0800869
-0.0540833
-0.0335312
-0.0176227
-0.0157262
-0.0233571
-0.0312163
-0.0329378
-0.0180229
-0.00250372
-0.143014
-0.150375
-0.151285
-0.150476
-0.148743
-0.14465
-0.135726
-0.120913
-0.100266
-0.0766066
-0.0510026
-0.0262981
-0.00407049
0.0151439
0.0365349
0.0603787
0.0576432
0.0421284
-0.00714592
-0.0688282
-0.0650671
-0.0439904
-0.0261215
-0.0111583
-0.00977481
-0.0190738
-0.0256789
-0.0266119
-0.0132721
-0.00373288
-0.12918
-0.136294
-0.137398
-0.136481
-0.134443
-0.130259
-0.121949
-0.108612
-0.0901795
-0.0688626
-0.0454999
-0.0224862
-0.00103718
0.0183914
0.0405137
0.0667769
0.0658043
0.0499692
0.00509798
-0.0492131
-0.0496028
-0.0338328
-0.0185878
-0.00456342
-0.00326398
-0.0138772
-0.0190858
-0.019344
-0.00797035
-0.00477966
-0.116034
-0.122812
-0.124102
-0.123214
-0.121065
-0.11694
-0.109266
-0.0972778
-0.0808245
-0.0616223
-0.0403345
-0.0189204
0.00164591
0.0210825
0.043487
0.0700881
0.0711047
0.0552618
0.0159298
-0.0300246
-0.0344539
-0.0238737
-0.0110489
0.00205923
0.00377395
-0.00774443
-0.0114521
-0.0112067
-0.00229401
-0.00556394
-0.103638
-0.110019
-0.111471
-0.1107
-0.108583
-0.104628
-0.0975974
-0.0868433
-0.0721642
-0.0548786
-0.035517
-0.0156402
0.00393687
0.0230765
0.0451618
0.0702265
0.0736295
0.058389
0.0249453
-0.012778
-0.0203781
-0.0143508
-0.0036265
0.00859949
0.0112605
-0.000717767
-0.00293132
-0.00236858
0.00350007
-0.00600316
-0.0920326
-0.0979796
-0.0995596
-0.0989579
-0.0969711
-0.0932664
-0.0868737
-0.0772496
-0.0641662
-0.0486252
-0.0310531
-0.0126803
0.00580873
0.0243072
0.0454106
0.0678898
0.0734961
0.0596299
0.0317745
0.00156724
-0.0078907
-0.00544522
0.00355243
0.0149377
0.0190486
0.00706478
0.00623669
0.00690102
0.00909042
-0.00602275
-0.0812409
-0.0867358
-0.0884107
-0.0880027
-0.0862094
-0.0828074
-0.0770369
-0.0684469
-0.0568016
-0.042855
-0.0269461
-0.0100573
0.00725535
0.0247964
0.0443737
0.0640061
0.0710437
0.0592633
0.0364591
0.0127882
0.0027742
0.00271748
0.0103535
0.020936
0.0268984
0.015338
0.0156211
0.0162249
0.0141398
-0.00556925
-0.0712721
-0.0763145
-0.0780521
-0.0778436
-0.0762794
-0.0732091
-0.0680377
-0.0603925
-0.050045
-0.0375589
-0.0231968
-0.00776863
0.00829668
0.0246457
0.0423933
0.059355
0.0669533
0.0577111
0.0394044
0.0211916
0.011603
0.0100542
0.0166436
0.0264389
0.0344546
0.0237098
0.024648
0.0250906
0.0183943
-0.00462199
-0.0621277
-0.066727
-0.0684986
-0.0684832
-0.0671643
-0.0644366
-0.0598343
-0.0530504
-0.0438746
-0.0327255
-0.0198023
-0.0057949
0.00897686
0.0240034
0.0398489
0.0544692
0.062
0.0554002
0.0410528
0.0272931
0.0187402
0.0165187
0.0223133
0.0313181
0.0412204
0.0317378
0.0326913
0.0329036
0.0217592
-0.00319669
-0.0537999
-0.0579765
-0.0597582
-0.059922
-0.0588494
-0.0564608
-0.0523923
-0.0463905
-0.0382707
-0.0283417
-0.0167537
-0.00410654
0.00935846
0.0230231
0.0370583
0.0496885
0.0568195
0.0526687
0.0417544
0.0316188
0.0243895
0.0220951
0.0272856
0.0355209
0.0466732
0.0387771
0.0391723
0.0390815
0.0243197
-0.00134257
-0.0462782
-0.0500599
-0.0518331
-0.0521575
-0.051322
-0.0492582
-0.0456836
-0.0403878
-0.0332162
-0.024394
-0.0140372
-0.00267004
0.00951353
0.0218464
0.0342455
0.0452186
0.0518399
0.0497713
0.0417731
0.0339176
0.0287401
0.0267962
0.0315038
0.0390361
0.0504977
0.0443126
0.0436874
0.0432008
0.0262817
0.000839472
-0.0395508
-0.0429703
-0.0447214
-0.0451859
-0.0445713
-0.0428106
-0.0396864
-0.0350228
-0.0286965
-0.0208696
-0.0116361
-0.00145159
0.00951411
0.0205968
0.0315603
0.0411775
0.0473078
0.0469019
0.0413894
0.0357813
0.0320597
0.0306694
0.034947
0.04185
0.0526082
0.0481919
0.0462618
0.0452275
0.0278156
0.0031541
-0.0336071
-0.0367012
-0.038421
-0.0390049
-0.0385904
-0.0371057
-0.0343853
-0.0302813
-0.0247006
-0.017758
-0.00953402
-0.000420184
0.0094226
0.0193705
0.0291042
0.037628
0.0433406
0.044199
0.0407568
0.0370054
0.0345403
0.0337846
0.0376452
0.0439721
0.0532633
0.0505449
0.0474004
0.0455706
0.0289328
0.00531956
-0.02844
-0.0312485