/*--------------------------------*- C++ -*----------------------------------*\
  =========                 |
  \\      /  F ield         | OpenFOAM: The Open Source CFD Toolbox
   \\    /   O peration     | Website:  https://openfoam.org
    \\  /    A nd           | Version:  7
     \\/     M anipulation  |
\*---------------------------------------------------------------------------*/
FoamFile
{
    version     2.0;
    format      ascii;
    class       surfaceScalarField;
    location    "400";
    object      phi;
}
// * * * * * * * * * * * * * * * * * * * * * * * * * * * * * * * * * * * * * //

dimensions      [0 3 -1 0 0 0 0];

internalField   nonuniform List<scalar> 
16735
(
-0.000142065
-0.000406236
0.000548302
-0.000479809
-0.000186254
0.000523998
-0.000973831
0.00077321
-0.000279187
-0.00159798
0.00220568
-0.00158153
-0.00233051
0.00392051
-0.00318798
-0.0031477
0.00585944
-0.00504226
-0.00402353
0.00808769
-0.00721186
-0.00493562
0.0107358
-0.00982372
-0.00586865
0.0139382
-0.0130052
0.0178326
-0.0168906
-0.00681068
-0.000126789
-0.000279447
-0.000426116
0.000113073
-0.000860937
0.00120803
-0.00140721
0.00275195
-0.00204382
0.00455713
-0.00274457
0.00656019
-0.00347652
0.00881963
-0.00420542
0.0114647
-0.00490003
0.0146328
0.0184499
-0.00551728
-0.000109227
-0.00017022
-0.000364848
0.000368694
-0.000732157
0.00157534
-0.00118857
0.00320836
-0.00171297
0.00508153
-0.00227603
0.00712326
-0.00283691
0.00938052
-0.00334755
0.0119753
-0.0037597
0.015045
0.018687
-0.00399689
-9.07062e-05
-7.95136e-05
-0.00030014
0.000578127
-0.00059531
0.00187051
-0.000954203
0.00356726
-0.00135497
0.0054823
-0.00176489
0.00753317
-0.00213509
0.00975071
-0.0024028
0.012243
-0.00250323
0.0151454
0.0185152
-0.00233138
-7.25608e-05
-6.95279e-06
-0.000236171
0.000741738
-0.000458499
0.00209284
-0.000716921
0.00382568
-0.000988115
0.00575349
-0.00123584
0.0077809
-0.00140384
0.00991872
-0.00141467
0.0122539
-0.00118416
0.0149149
0.0179496
-0.000618585
-5.60284e-05
4.90756e-05
-0.000176944
0.000862653
-0.000329657
0.00224555
-0.000489572
0.00398559
-0.000631061
0.00589498
-0.000714344
0.00786418
-0.000676892
0.00988127
-0.000429436
0.0120064
0.000147068
0.0143384
0.0169598
0.00113685
-4.22002e-05
9.12758e-05
-0.000126043
0.000946497
-0.00021607
0.00233558
-0.000284262
0.00405379
-0.000301823
0.00591254
-0.000225325
0.00778768
1.25514e-05
0.00964339
0.000509598
0.0115094
0.00138637
0.0134616
0.0155332
0.00281305
-3.19644e-05
0.00012324
-8.64186e-05
0.00100095
-0.000123902
0.00237306
-0.00011135
0.00404123
-1.56298e-05
0.00581682
0.000207714
0.00756434
0.000631913
0.00921919
0.00136175
0.0107795
0.00252879
0.0122946
0.0137171
0.00434486
-2.59374e-05
0.000149178
-6.0167e-05
0.00103518
-5.77277e-05
0.00237062
2.02621e-05
0.00396324
0.000211586
0.0056255
0.000566189
0.00720974
0.00115702
0.00862835
0.00209343
0.00984313
0.00351514
0.0108729
0.0115442
0.00568807
-2.44204e-05
0.000173598
-4.83515e-05
0.00105911
-1.99387e-05
0.00234221
0.000106397
0.00383691
0.000374658
0.00535724
0.000837696
0.0067467
0.00157009
0.00789596
0.0026822
0.00873101
0.00431727
0.0092378
0.0090432
0.00681823
-2.7362e-05
0.00020096
-5.08557e-05
0.00108261
-1.07363e-05
0.00230209
0.000146355
0.00367982
0.000470669
0.00503292
0.00101891
0.00619846
0.00186701
0.00704786
0.003125
0.00747303
0.00493674
0.00742605
0.00623083
0.0077491
-3.43152e-05
0.000235275
-6.61443e-05
0.00111443
-2.69486e-05
0.00226289
0.000144544
0.00350832
0.000505885
0.00467158
0.00111881
0.00558553
0.00206217
0.0061045
0.00344677
0.00608843
0.00542059
0.00545223
0.00310096
0.00855046
-4.44062e-05
0.000279681
-9.12878e-05
0.00116132
-6.28733e-05
0.00223448
0.000110971
0.00333448
0.000495826
0.00428673
0.00116108
0.00492028
0.00219279
0.00507278
0.00370749
0.00457373
0.00587373
0.003286
-0.000383644
0.00935833
-5.63305e-05
0.000336012
-0.000121919
0.0012269
-0.000109215
0.00222177
6.13201e-05
0.00316394
0.000465562
0.00388249
0.00118482
0.00420103
0.00231999
0.00393761
0.00400227
0.00289145
0.00645372
0.000834548
-0.00428911
0.0103592
-6.84254e-05
0.000404437
-0.000152532
0.00131101
-0.00015447
0.00222371
1.61468e-05
0.00299333
0.000448417
0.00345021
0.00124215
0.0034073
0.00252362
0.00265613
0.00444983
0.000965246
0.0073387
-0.00205433
-0.00868361
0.0117332
-7.88169e-05
0.000483254
-0.000176944
0.00140914
-0.000185535
0.0022323
-9.26061e-07
0.00280872
0.000482598
0.00296669
0.00139197
0.00249792
0.00288982
0.00115828
0.0051691
-0.00131403
0.00866785
-0.00555307
-0.0135909
0.0135752
-8.56404e-05
0.000568895
-0.000188985
0.00151248
-0.000189382
0.0022327
3.22289e-05
0.00258711
0.000605914
0.00239301
0.00169056
0.00141328
0.00349391
-0.000645069
0.00625128
-0.0040714
0.010488
-0.00978978
-0.0189398
0.0158369
-8.7306e-05
0.000656201
-0.000183315
0.00160849
-0.00015448
0.00220387
0.000137166
0.00229546
0.000850043
0.00168013
0.00218136
8.19603e-05
0.00438426
-0.00284797
0.00773715
-0.00742429
0.0127312
-0.0147838
-0.0245523
0.0183437
-8.27579e-05
0.000738958
-0.00015623
0.00168196
-7.27566e-05
0.00212039
0.000327407
0.0018953
0.00123481
0.00077273
0.00288657
-0.00156981
0.0055718
-0.0055332
0.00960268
-0.0114552
0.0152388
-0.0204199
-0.0301967
0.0208831
-7.16358e-05
0.000810594
-0.000106162
0.00171649
5.915e-05
0.00195508
0.000608368
0.00134608
0.00176534
-0.00038424
0.00380327
-0.00360774
0.00702517
-0.00875511
0.0117413
-0.0161713
0.0178297
-0.0265082
-0.0356948
0.0233277
-5.42913e-05
0.000864886
-3.34636e-05
0.00169566
0.000240305
0.00168131
0.000977448
0.000608936
0.00243303
-0.00183982
0.00490565
-0.00608036
0.00867911
-0.0125286
0.0139612
-0.0214534
0.0202238
-0.0327708
-0.0436881
0.0282171
-3.17309e-05
0.000896617
5.87152e-05
0.00160522
0.000466299
0.00127373
0.00142585
-0.000350612
0.00321913
-0.0036331
0.00615169
-0.00901292
0.0104482
-0.0168251
0.0161133
-0.0271185
0.0225013
-0.0391588
-0.0509926
0.0298058
-4.69624e-06
0.000901313
0.000167933
0.00143259
0.000730659
0.000711001
0.00194125
-0.0015612
0.00409909
-0.00579094
0.00748965
-0.0124035
0.01223
-0.0215655
0.0180831
-0.0329716
0.0243516
-0.0454273
-0.0574143
0.0307733
2.52975e-05
0.000876015
0.000290824
0.00116706
0.00102661
-2.47798e-05
0.00251037
-0.00304497
0.0050456
-0.00832616
0.00886262
-0.0162205
0.0139228
-0.0266256
0.0197697
-0.0388185
0.0256659
-0.0513236
-0.063013
0.0312647
5.74262e-05
0.000818589
0.000424617
0.00079987
0.00134818
-0.000948345
0.00312036
-0.00481715
0.00602954
-0.0112353
0.0102103
-0.0204013
0.0154368
-0.0318521
0.0210885
-0.0444702
0.0264707
-0.0567058
-0.0678166
0.0312743
9.14865e-05
0.000727103
0.000567646
0.00032371
0.00169071
-0.00207141
0.0037588
-0.00688525
0.00701955
-0.0144961
0.0114717
-0.0248534
0.0167011
-0.0370815
0.0220055
-0.0497745
0.0267962
-0.0614965
-0.0718846
0.0308642
0.000127448
0.000599655
0.000719133
-0.000267975
0.00205036
-0.00340264
0.00441259
-0.00924748
0.00798136
-0.0180649
0.01259
-0.0294621
0.0176697
-0.0421612
0.0225216
-0.0546265
0.026703
-0.065678
-0.0753049
0.0301234
0.000165596
0.000434058
0.000878767
-0.000981146
0.00242322
-0.00494709
0.00506646
-0.0118907
0.00887859
-0.021877
0.0135188
-0.0341023
0.0183226
-0.046965
0.0226653
-0.0589691
0.0262603
-0.069273
-0.0781671
0.0291225
0.000206298
0.00022776
0.00104613
-0.00182097
0.00280416
-0.00670512
0.00570212
-0.0147887
0.00967556
-0.0258504
0.0142262
-0.0386529
0.0186635
-0.0514023
0.0224804
-0.062786
0.025536
-0.0723286
-0.0805593
0.0279283
0.000249798
-2.20382e-05
0.00122014
-0.00279132
0.00318609
-0.00867107
0.00629864
-0.0179012
0.0103412
-0.029893
0.0146975
-0.0430093
0.0187133
-0.0554182
0.0220176
-0.0660903
0.0245924
-0.0749034
-0.0825593
0.0265923
0.000296078
-0.000318116
0.00139876
-0.003894
0.00355972
-0.010832
0.00683421
-0.0211757
0.0108525
-0.0339112
0.0149332
-0.04709
0.0185035
-0.0589885
0.0213273
-0.0689141
0.0234824
-0.0770585
-0.0842326
0.0251557
0.000344815
-0.000662931
0.00157884
-0.00512803
0.00391397
-0.0131672
0.00728861
-0.0245504
0.0111967
-0.0378193
0.0149458
-0.050839
0.0180707
-0.0621134
0.0204566
-0.0713001
0.0222497
-0.0788516
-0.0856323
0.0236494
0.000395344
-0.00105828
0.00175628
-0.00648896
0.00423691
-0.0156478
0.00764554
-0.027959
0.011371
-0.0415448
0.0147561
-0.0542241
0.0174523
-0.0648095
0.0194467
-0.0732945
0.0209291
-0.080334
-0.0867994
0.0220962
0.00044673
-0.001505
0.00192625
-0.00796848
0.00451695
-0.0182385
0.00789419
-0.0313362
0.0113812
-0.0450318
0.0143894
-0.0572323
0.0166838
-0.067104
0.0183321
-0.0749428
0.0195473
-0.0815492
-0.087765
0.0205128
0.000497831
-0.00200284
0.0020836
-0.00955425
0.00474402
-0.0208989
0.00802972
-0.0346219
0.011239
-0.0482411
0.0138721
-0.0598653
0.0157972
-0.0690291
0.0171414
-0.076287
0.0181247
-0.0825325
-0.0885515
0.0189113
0.000547378
-0.00255021
0.00222323
-0.0112301
0.00491043
-0.0235861
0.00805288
-0.0377644
0.0109604
-0.0511487
0.0132304
-0.0621354
0.0148202
-0.0706188
0.0158972
-0.077364
0.0166767
-0.083312
-0.0891751
0.0173003
0.000594042
-0.00314426
0.00234046
-0.0129765
0.0050114
-0.0262571
0.00796886
-0.0407218
0.010563
-0.0537428
0.0124887
-0.0640611
0.0137761
-0.0719063
0.0146175
-0.0782054
0.0152145
-0.083909
-0.0896469
0.0156863
0.000636509
-0.00378077
0.00243134
-0.0147714
0.00504511
-0.0288708
0.00778609
-0.0434628
0.010065
-0.0560217
0.0116686
-0.0656646
0.0126843
-0.072922
0.0133159
-0.078837
0.0137467
-0.0843398
-0.0899744
0.0140742
0.000673538
-0.0044543
0.00249291
-0.0165907
0.00501252
-0.0313904
0.00751505
-0.0459653
0.00948401
-0.0579906
0.0107891
-0.0669697
0.0115606
-0.0736935
0.0120032
-0.0792796
0.0122795
-0.084616
-0.0901627
0.0124678
0.000704024
-0.00515833
0.00252329
-0.01841
0.00491678
-0.0337839
0.00716715
-0.0482157
0.00883641
-0.0596599
0.00986642
-0.0679998
0.0104173
-0.0742443
0.0106875
-0.0795498
0.0108177
-0.0847462
-0.0902153
0.0108703
0.000727036
-0.00588536
0.00252176
-0.0202047
0.00476275
-0.0360249
0.00675407
-0.050207
0.00813693
-0.0610427
0.00891407
-0.0687769
0.00926442
-0.0745947
0.00937482
-0.0796602
0.00936498
-0.0847364
-0.0901345
0.00928416
0.000741851
-0.00662721
0.00248864
-0.0219515
0.00455633
-0.0380926
0.00628711
-0.0519378
0.00739855
-0.0621542
0.00794323
-0.0693216
0.00810979
-0.0747612
0.00807006
-0.0796205
0.00792426
-0.0845906
-0.0899212
0.00771097
0.000747972
-0.00737519
0.00242515
-0.0236287
0.00430402
-0.0399715
0.00577685
-0.0534107
0.0066325
-0.0630098
0.00696303
-0.0696521
0.00695946
-0.0747577
0.00677678
-0.0794378
0.00649784
-0.0843117
-0.0895754
0.00615203
0.000745132
-0.00812032
0.00233324
-0.0252168
0.00401251
-0.0416507
0.00523297
-0.0546311
0.00584838
-0.0636252
0.00598088
-0.0697846
0.00581816
-0.0745949
0.00549771
-0.0791174
0.00508758
-0.0839015
-0.0890962
0.0046084
0.000733284
-0.0088536
0.00221541
-0.0266989
0.00368835
-0.0431237
0.00466411
-0.0556069
0.00505427
-0.0640154
0.00500284
-0.0697332
0.00468986
-0.074282
0.00423518
-0.0786627
0.00369436
-0.0833607
-0.0884836
0.00308171
0.00071259
-0.00956619
0.00207442
-0.0280607
0.00333775
-0.044387
0.00407784
-0.056347
0.00425691
-0.0641945
0.00403381
-0.0695101
0.0035781
-0.0738263
0.0029924
-0.078077
0.00231719
-0.0826855
-0.087738
0.00157165
0.000683419
-0.0102496
0.00191338
-0.0292907
0.00296652
-0.0454402
0.00348076
-0.0568612
0.00346186
-0.0641756
0.0030776
-0.0691258
0.00248559
-0.0732342
0.00177332
-0.0773647
0.00096296
-0.0818751
-0.0867883
1.32281e-05
0.000646327
-0.0108959
0.00173557
-0.0303799
0.00257997
-0.0462846
0.00287851
-0.0571597
0.00267365
-0.0639707
0.00213721
-0.0685894
0.00141369
-0.0725107
0.000574337
-0.0765254
-0.000348332
-0.0809525
-0.0857602
-0.00137647
0.000602002
-0.0114979
0.00154399
-0.0313219
0.00218288
-0.0469235
0.00227591
-0.0572528
0.00189597
-0.0635908
0.00121505
-0.0679085
0.00036206
-0.0716577
-0.00059786
-0.0755654
-0.0016581
-0.0798922
-0.0846215
-0.00279671
0.000551235
-0.0120492
0.00134153
-0.0321122
0.0017795
-0.0473614
0.001677
-0.0571503
0.00113176
-0.0630455
0.000312331
-0.067089
-0.000661072
-0.0706843
-0.00174146
-0.0744851
-0.00292813
-0.0787056
-0.0833534
-0.00419629
0.000494907
-0.0125441
0.00113098
-0.0327483
0.00137361
-0.0476041
0.00108501
-0.0568617
0.000383707
-0.0623442
-0.000566081
-0.0661392
-0.00165903
-0.0695914
-0.00286046
-0.0732836
-0.00416896
-0.0773971
-0.0819559
-0.00556641
0.000433935
-0.012978
0.000915069
-0.0332294
0.000968507
-0.0476575
0.000503134
-0.0563963
-0.000346093
-0.061495
-0.00142144
-0.0650639
-0.0026322
-0.0683806
-0.00395128
-0.0719645
-0.00538078
-0.0759676
-0.0804315
-0.00690521
0.000369179
-0.0133472
0.000696364
-0.0335566
0.000567347
-0.0475285
-6.2124e-05
-0.0557668
-0.00105574
-0.0605014
-0.00225367
-0.063866
-0.00357883
-0.0670555
-0.00501292
-0.0705305
-0.00656208
-0.0744184
-0.0787828
-0.00821078
0.000301611
-0.0136488
0.000476866
-0.0337319
0.000177641
-0.0472292
-0.000622525
-0.0549667
-0.00174662
-0.0593773
-0.00306146
-0.0625511
-0.00449805
-0.0656189
-0.00604468
-0.0689838
-0.00771158
-0.0727515
-0.0770137
-0.00948072
0.000232911
-0.0138817
0.000258541
-0.0337575
-0.00021558
-0.0467551
-0.00116363
-0.0540186
-0.00241623
-0.0581247
-0.00384407
-0.0611233
-0.0053892
-0.0640737
-0.007046
-0.067327
-0.00882795
-0.0709696
-0.0751303
-0.0107113
0.000163142
-0.0140449
5.48464e-05
-0.0336492
-0.000602731
-0.0460975
-0.00169061
-0.0529307
-0.00306396
-0.0567513
-0.0046009
-0.0595864
-0.00625176
-0.0624229
-0.00801619
-0.0655626
-0.00991001
-0.0690757
-0.0731372
-0.0119031
8.90375e-05
-0.0141339
-0.000175365
-0.0333848
-0.000976088
-0.0452968
-0.00220028
-0.0517065
-0.00368921
-0.0552624
-0.0053315
-0.0579441
-0.00708541
-0.060669
-0.00895478
-0.0636932
-0.0109578
-0.0670727
-0.0710309
-0.0130641
7.68615e-06
-0.0141416
-0.000398333
-0.0329788
-0.00133889
-0.0443563
-0.00269137
-0.0503541
-0.0042912
-0.0536626
-0.00603557
-0.0561997
-0.00789056
-0.058814
-0.00986288
-0.0617209
-0.0119706
-0.0649649
-0.0688094
-0.0141922
-6.23896e-05
-0.0140792
-0.000609854
-0.0324313
-0.00168941
-0.0432767
-0.00316349
-0.04888
-0.00486925
-0.0519568
-0.00671264
-0.0543563
-0.00866786
-0.0568587
-0.0107438
-0.0596449
-0.0129438
-0.062765
-0.0664877
-0.0152655
-0.000134955
-0.0139442
-0.000813593
-0.0317527
-0.00202658
-0.0420637
-0.00361608
-0.0472905
-0.00542278
-0.0501501
-0.00736183
-0.0524173
-0.0094154
-0.0548052
-0.0115958
-0.0574646
-0.0139133
-0.0604475
-0.0642082
-0.0161927
-0.000206874
-0.0137374
-0.00101024
-0.0309493
-0.00234975
-0.0407242
-0.00404861
-0.0455916
-0.00595139
-0.0482473
-0.00798224
-0.0503864
-0.0101286
-0.0526588
-0.0123906
-0.0552026
-0.0147304
-0.0581076
-0.0614351
-0.0175035
-0.000277105
-0.0134603
-0.00119955
-0.0300269
-0.0026585
-0.0392652
-0.00446074
-0.0437894
-0.00645497
-0.0462531
-0.00857335
-0.048268
-0.0108044
-0.0504277
-0.0131439
-0.0528632
-0.015609
-0.0556425
-0.0586753
-0.0183688
-0.000345206
-0.0131151
-0.00138106
-0.028991
-0.0029525
-0.0376938
-0.0048522
-0.0418897
-0.00693322
-0.0441721
-0.009135
-0.0460663
-0.0114489
-0.0481138
-0.0138794
-0.0504327
-0.0164603
-0.0530616
-0.055889
-0.0192466
-0.000410868
-0.0127042
-0.00155431
-0.0278476
-0.00323143
-0.0360167
-0.00522274
-0.0398984
-0.0073858
-0.042009
-0.00966649
-0.0437856
-0.0120593
-0.045721
-0.0145741
-0.0479179
-0.0172413
-0.0503944
-0.0530509
-0.0200794
-0.000473826
-0.0122304
-0.0017189
-0.0266025
-0.00349503
-0.0342405
-0.00557221
-0.0378212
-0.00781261
-0.0397686
-0.0101681
-0.04143
-0.0126367
-0.0432524
-0.0152311
-0.0453235
-0.0179757
-0.0476499
-0.05015
-0.0208766
-0.000533848
-0.0116965
-0.00187448
-0.0252619
-0.00374306
-0.032372
-0.00590048
-0.0356638
-0.00821353
-0.0374556
-0.0106397
-0.0390039
-0.0131798
-0.0407123
-0.0158481
-0.0426552
-0.0186643
-0.0448336
-0.0471818
-0.0216325
-0.000590721
-0.0111058
-0.00202079
-0.0238318
-0.00397534
-0.0304174
-0.00620746
-0.0334317
-0.00858849
-0.0350746
-0.0110811
-0.0365113
-0.0136885
-0.0381048
-0.0164255
-0.0399183
-0.0193097
-0.0419494
-0.0441461
-0.0223454
-0.000644261
-0.0104615
-0.00215756
-0.0223185
-0.00419173
-0.0283833
-0.00649309
-0.0311303
-0.00893743
-0.0326302
-0.0114921
-0.0339566
-0.0141625
-0.0354344
-0.0169636
-0.0371172
-0.0199119
-0.0390011
-0.0410448
-0.0230132
-0.000694301
-0.00976723
-0.00228461
-0.0207282
-0.00439211
-0.0262758
-0.00675731
-0.0287651
-0.00926032
-0.0301272
-0.0118727
-0.0313443
-0.0146016
-0.0327055
-0.0174622
-0.0342566
-0.0204708
-0.0359925
-0.0378809
-0.0236346
-0.000740701
-0.00902653
-0.00240176
-0.0190671
-0.00457638
-0.0241011
-0.0070001
-0.0263414
-0.00955709
-0.0275702
-0.0122227
-0.0286786
-0.0150056
-0.0299227
-0.0179212
-0.0313409
-0.0209859
-0.0329278
-0.0346585
-0.0242083
-0.000783335
-0.00824319
-0.00250889
-0.0173416
-0.00474449
-0.0218655
-0.00722143
-0.0238644
-0.00982772
-0.0249639
-0.0125421
-0.0259643
-0.0153744
-0.0270904
-0.0183405
-0.0283747
-0.0214568
-0.0298115
-0.031382
-0.0247334
-0.000822096
-0.0074211
-0.00260588
-0.0155578
-0.00489636
-0.0195751
-0.00742129
-0.0213395
-0.0100722
-0.0223131
-0.0128307
-0.0232058
-0.0157078
-0.0242133
-0.0187198
-0.0253627
-0.021883
-0.0266483
-0.0280561
-0.0252088
-0.000856895
-0.0065642
-0.00269262
-0.0137221
-0.00503198
-0.0172357
-0.00759967
-0.0187718
-0.0102904
-0.0196223
-0.0130884
-0.0204077
-0.0160057
-0.021296
-0.0190588
-0.0223097
-0.0222641
-0.023443
-0.0246861
-0.0256341
-0.000887652
-0.00567655
-0.00276906
-0.0118407
-0.0051513
-0.0148535
-0.00775656
-0.0161666
-0.0104824
-0.0168965
-0.0133153
-0.0175748
-0.016268
-0.0183433
-0.0193573
-0.0192204
-0.0225998
-0.0202005
-0.0212772
-0.0260087
-0.000914303
-0.00476225
-0.00283512
-0.00991985
-0.00525431
-0.0124343
-0.00789196
-0.0135289
-0.0106481
-0.0141403
-0.0135112
-0.0147117
-0.0164945
-0.01536
-0.0196152
-0.0160997
-0.0228897
-0.016926
-0.0178346
-0.0263323
-0.000936793
-0.00382546
-0.00289075
-0.00796589
-0.00534098
-0.00998405
-0.00800586
-0.010864
-0.0107876
-0.0113586
-0.0136761
-0.0118232
-0.0166853
-0.0123508
-0.0198323
-0.0129526
-0.0231338
-0.0136245
-0.0143639
-0.0266045
-0.000955078
-0.00287038
-0.00293592
-0.00598505
-0.0054113
-0.00750867
-0.00809829
-0.00817703
-0.0109008
-0.00855617
-0.0138099
-0.00891404
-0.0168401
-0.00932064
-0.0200086
-0.00978415
-0.0233319
-0.0103012
-0.0108704
-0.0268254
-0.000969125
-0.00190125
-0.00297059
-0.00398358
-0.00546527
-0.00501399
-0.00816923
-0.00547308
-0.0109876
-0.00573776
-0.0139127
-0.00598899
-0.016959
-0.00627438
-0.0201439
-0.00659924
-0.0234839
-0.00696116
-0.00735947
-0.0269948
-0.000978908
-0.000922345
-0.00299475
-0.00196774
-0.00550289
-0.00250585
-0.00821869
-0.00275728
-0.0110482
-0.0029082
-0.0139844
-0.00305286
-0.0170419
-0.0032169
-0.0202382
-0.00340291
-0.0235898
-0.00360955
-0.00383651
-0.0271128
-0.00098441
6.20649e-05
-0.00300838
5.62278e-05
-0.00552415
9.9235e-06
-0.00824668
-3.47508e-05
-0.0110826
-7.23295e-05
-0.0140249
-0.000110466
-0.0170887
-0.000153101
-0.0202915
-0.000200192
-0.0236495
-0.000251507
-0.000306798
-0.0271792
-0.000985623
0.00104769
-0.00301147
0.00208207
-0.00552906
0.00252752
-0.00825321
0.00268939
-0.0110906
0.00276504
-0.0140344
0.00283338
-0.0170996
0.0029121
-0.0203037
0.00300387
-0.023663
0.00310784
0.00322356
-0.0271934
-0.000982545
0.00203023
-0.00300403
0.00410356
-0.00551763
0.00504112
-0.00823829
0.00541005
-0.0110723
0.00559909
-0.0140128
0.00577385
-0.0170745
0.00597382
-0.020275
0.00620431
-0.0236306
0.00646342
0.00675026
-0.0271573
-0.000975185
0.00300542
-0.00298607
0.00611444
-0.00548986
0.00754492
-0.00820192
0.00812211
-0.0110278
0.00842501
-0.0139601
0.00870615
-0.0170135
0.00902715
-0.0202052
0.00939609
-0.0235519
0.00981011
0.0102676
-0.0270692
-0.000963558
0.00396898
-0.0029576
0.00810848
-0.00544577
0.0100331
-0.00814412
0.0108205
-0.0109571
0.011238
-0.0138764
0.0116255
-0.0169164
0.0120672
-0.0200945
0.0125742
-0.0234272
0.0131428
0.01377
-0.0269296
-0.000947689
0.00491667
-0.00291866
0.0100795
-0.00538538
0.0124998
-0.00806491
0.0135
-0.0108601
0.0140332
-0.0137617
0.014527
-0.0167835
0.0150891
-0.0199429
0.0157336
-0.0232564
0.0164562
0.0172522
-0.0267385
-0.000927611
0.00584428
-0.00286927
0.0120211
-0.0053087
0.0149392
-0.00796429
0.0161556
-0.010737
0.0168059
-0.013616
0.017406
-0.0166148
0.0180879
-0.0197505
0.0188693
-0.0230396
0.0197452
0.0207086
-0.026496
-0.000903366
0.00674764
-0.00280949
0.0139272
-0.00521576
0.0173455
-0.00784229
0.0187821
-0.0105877
0.0195513
-0.0134394
0.0202577
-0.0164104
0.0210589
-0.0195174
0.0219763
-0.022777
0.0230048
0.0241338
-0.0262022
-0.000875005
0.00762265
-0.00273936
0.0157916
-0.00510659
0.0197127
-0.00769893
0.0213745
-0.0104122
0.0222646
-0.013232
0.0230775
-0.0161703
0.0239972
-0.0192438
0.0250498
-0.0224688
0.0262298
0.0275224
-0.0258574
-0.000842592
0.00846524
-0.00265895
0.0176079
-0.00498123
0.022035
-0.00753424
0.0239275
-0.0102108
0.0249411
-0.0129938
0.0258606
-0.0158948
0.0268982
-0.0189298
0.0280848
-0.0221152
0.0294152
0.0308691
-0.0254619
-0.000806202
0.00927144
-0.00256835
0.0193701
-0.00483973
0.0243064
-0.00734824
0.026436
-0.00998326
0.0275761
-0.0127251
0.0286024
-0.015584
0.0297571
-0.0185758
0.0310767
-0.0217168
0.0325562
0.0341688
-0.0250165
-0.000765921
0.0100374
-0.00246765
0.0210718
-0.00468214
0.0265209
-0.00714097
0.0288948
-0.00972981
0.030165
-0.0124258
0.0312983
-0.015238
0.0325693
-0.018182
0.0340207
-0.0212738
0.035648
0.0374166
-0.0245217
-0.000721852
0.0107592
-0.00235696
0.0227069
-0.00450853
0.0286725
-0.00691247
0.0312987
-0.00945047
0.032703
-0.0120961
0.0339439
-0.0148571
0.0353303
-0.0177487
0.0369123
-0.020787
0.0386863
0.0406081
-0.0239785
-0.000674111
0.0114333
-0.00223642
0.0242692
-0.00431897
0.030755
-0.0066628
0.0336426
-0.00914532
0.0351855
-0.0117361
0.0365347
-0.0144414
0.0380355
-0.0172761
0.039747
-0.0202567
0.0416669
0.0437394
-0.023388
-0.000622835
0.0120562
-0.00210619
0.0257526
-0.00411357
0.0327624
-0.006392
0.035921
-0.00881444
0.0376079
-0.0113461
0.0390664
-0.0139912
0.0406806
-0.0167645
0.0425203
-0.0196836
0.044586
0.0468076
-0.0227518
-0.000568179
0.0126243
-0.00196646
0.0271509
-0.00389246
0.0346884
-0.00610015
0.0381287
-0.00845791
0.0399657
-0.0109261
0.0415345
-0.0135066
0.0432612
-0.0162138
0.0452275
-0.0190679
0.0474402
0.0498111
-0.0220715
-0.000510318
0.0131347
-0.00181746
0.028458
-0.0036558
0.0365267
-0.00578735
0.0402602
-0.00807583
0.0422542
-0.0104763
0.043935
-0.012988
0.0457728
-0.015624
0.0478635
-0.0184095
0.0502257
0.052751
-0.0213493
-0.000449453
0.0135841
-0.00165947
0.029668
-0.00340376
0.038271
-0.00545369
0.0423102
-0.00766828
0.0444688
-0.00999691
0.0462636
-0.0124356
0.0482115
-0.0149944
0.0504224
-0.0177055
0.0529367
0.0556333
-0.0205877
-0.000385805
0.0139699
-0.0014928
0.030775
-0.00313658
0.0399148
-0.00509935
0.0442729
-0.00723543
0.0466049
-0.00948818
0.0485163
-0.0118509
0.0505742
-0.0143277
0.0528993
-0.0169552
0.0555642
0.058471
-0.019793
-0.000319624
0.0142895
-0.00131782
0.0317732
-0.00285452
0.0414515
-0.00472449
0.0461429
-0.00677739
0.0486578
-0.00894972
0.0506887
-0.0112323
0.0528568
-0.01362
0.055287
-0.0161313
0.0580755
0.0612929
-0.0189531
-0.000251189
0.0145407
-0.00113497
0.032657
-0.00255791
0.0428745
-0.00432937
0.0479144
-0.00629459
0.050623
-0.00838243
0.0527765
-0.0105836
0.055058
-0.0128987
0.0576021
-0.0152858
0.0604625
0.0641407
-0.0181336
-0.000180852
0.0147216
-0.000944708
0.0334208
-0.00224708
0.0441768
-0.00391426
0.0495815
-0.00578734
0.0524961
-0.00778635
0.0547755
-0.00989713
0.0571687
-0.0121336
0.0598385
-0.0145027
0.0628317
0.0664249
-0.0167869
-0.000109188
0.0148308
-0.000747442
0.0340591
-0.00192244
0.0453518
-0.00347951
0.0511386
-0.00525577
0.0542723
-0.00716208
0.0566818
-0.00917632
0.059183
-0.0113084
0.0619705
-0.0135577
0.065081
0.068779
-0.0159117
-3.79575e-05
0.0148687
-0.000543152
0.0345643
-0.00158451
0.0463932
-0.00302561
0.0525797
-0.00470033
0.055947
-0.00651067
0.0584922
-0.00842667
0.061099
-0.0104559
0.0639998
-0.0126144
0.0672395
0.0710412
-0.0148767
3.67925e-05
0.0148319
-0.000330503
0.0349316
-0.00123407
0.0472968
-0.00255323
0.0538989
-0.0041217
0.0575155
-0.00583322
0.0602037
-0.00765055
0.0629163
-0.00957867
0.0659279
-0.0116345
0.0692954
0.073192
-0.0137853
0.000113616
0.0147183
-0.000102925
0.0351481
-0.000872623
0.0480665
-0.0020628
0.055089
-0.00352051
0.0589732
-0.00513029
0.0618135
-0.00684727
0.0646333
-0.00867274
0.0677534
-0.010622
0.0712446
0.0752335
-0.0126636
0.000185424
0.0145329
0.000111164
0.0352224
-0.000502167
0.0486798
-0.00155483
0.0561417
-0.00289757
0.060316
-0.00440225
0.0633182
-0.0060164
0.0662474
-0.00773675
0.0694737
-0.00957694
0.0730848
0.0771695
-0.0115129
0.000254111
0.0142788
0.000318297
0.0351582
-0.000110787
0.0491089
-0.00103114
0.0570621
-0.00225358
0.0615384
-0.00364948
0.0647141
-0.0051583
0.0677563
-0.00677121
0.0710867
-0.00849908
0.0748127
0.0789943
-0.0103239
0.00032175
0.013957
0.000533448
0.0349465
0.000268561
0.0493738
-0.000495842
0.0578265
-0.00158905
0.0626316
-0.00287269
0.0659977
-0.00427358
0.0691572
-0.00577683
0.0725899
-0.00738965
0.0764255
0.0807011
-0.00909648
0.000387705
0.0135693
0.000749218
0.034585
0.00065619
0.0494668
5.97302e-05
0.0584229
-0.000904971
0.0635963
-0.00207262
0.0671653
-0.00336286
0.0704474
-0.00475421
0.0739813
-0.00624993
0.0779212
0.0822861
-0.0078349
0.000450646
0.0131187
0.000963853
0.0340718
0.00105148
0.0493792
0.000616626
0.0588578
-0.0002041
0.064417
-0.00125006
0.0682113
-0.0024269
0.0716242
-0.00370406
0.0752584
-0.00508128
0.0792985
0.0837469
-0.00654206
0.0005097
0.012609
0.00117508
0.0334064
0.00144951
0.0491047
0.00119022
0.0591171
0.0005159
0.0650914
-0.000406829
0.069134
-0.00146689
0.0726843
-0.0026273
0.0764188
-0.00388539
0.0805565
0.0850814
-0.00521991
0.000564017
0.012045
0.00138038
0.03259
0.00184739
0.0486377
0.0017721
0.0591923
0.00125212
0.0656113
0.000459101
0.0699271
-0.0004853
0.0736287
-0.00152529
0.0774588
-0.00266369
0.0816949
0.0862885
-0.00387081
0.000612735
0.0114322
0.00157718
0.0316256
0.00224181
0.0479731
0.00235939
0.0590748
0.00200251
0.0659682
0.00134552
0.070584
0.000521643
0.0744526
-0.000404045
0.0783845
-0.0014152
0.0827061
0.0873721
-0.00249874
0.000655037
0.0107772
0.0017628
0.0305178
0.00262904
0.0471069
0.00294889
0.0587549
0.00276443
0.0661527
0.00224943
0.071099
0.00155162
0.0751504
0.000748537
0.0791876
-0.000121186
0.0835758
0.088363
-0.00111211
0.000690202
0.010087
0.00193449
0.0292735
0.00300495
0.0460364
0.00353662
0.0582232
0.0035349
0.0661544
0.00316915
0.0714648
0.00259992
0.0757196
0.00191838
0.0798691
0.00115111
0.0843431
0.0892238
0.000290286
0.000717614
0.00936938
0.00208942
0.0279017
0.00336498
0.0447608
0.00411787
0.0574704
0.00431024
0.065962
0.00410211
0.0716729
0.00366557
0.0761561
0.00310658
0.0804281
0.0024705
0.0849792
0.0899197
0.00177461
0.000736789
0.00863259
0.00222463
0.0264139
0.00370408
0.0432814
0.00468717
0.0564873
0.00508597
0.0655632
0.00504532
0.0717136
0.00474726
0.0764542
0.00431482
0.0808606
0.00380728
0.0854867
0.0904833
0.00324372
0.000747411
0.00788518
0.00233712
0.0248242
0.00401673
0.0416018
0.00523821
0.0552658
0.0058567
0.0649447
0.00599505
0.0715752
0.00584236
0.0766069
0.005539
0.0811639
0.00515669
0.085869
0.090919
0.00472094
0.000749374
0.0071358
0.00242436
0.0231492
0.00429711
0.039729
0.00576378
0.0537991
0.00661597
0.0640926
0.00694653
0.0712447
0.00694737
0.076606
0.00677586
0.0813354
0.00651843
0.0861265
0.0912286
0.00620885
0.000742772
0.00639303
0.00248414
0.0214078
0.00453915
0.037674
0.00625575
0.0520825
0.00735604
0.0629923
0.00789392
0.0707068
0.00805838
0.0764416
0.00802301
0.0813708
0.00789152
0.0862579
0.0914135
0.00770658
0.000727901
0.00566513
0.00251475
0.019621
0.0047367
0.0354521
0.00670506
0.0501142
0.00806784
0.0616295
0.0088301
0.0699445
0.00917078
0.0761009
0.00927776
0.0812638
0.00927406
0.0862617
0.0914751
0.0092125
0.000705265
0.00495987
0.00251517
0.0178111
0.00488384
0.0330834
0.00710192
0.0478961
0.00874085
0.0599906
0.00974642
0.068939
0.0102787
0.0755686
0.0105366
0.081006
0.0106636
0.0861346
0.0914132
0.0107255
0.000675567
0.0042843
0.00248521
0.0160014
0.00497525
0.0305934
0.00743594
0.0454354
0.00936302
0.0580635
0.0106324
0.0676696
0.0113749
0.0748261
0.0117948
0.0805861
0.0120571
0.0858724
0.0912268
0.0122434
0.000639694
0.0036446
0.00242569
0.0142154
0.00500666
0.0280124
0.00769654
0.0427455
0.0099208
0.0558392
0.0114755
0.0661148
0.0124499
0.0738517
0.0130466
0.0799893
0.0134509
0.0854681
0.0909146
0.0137632
0.000598681
0.00304592
0.0023384
0.0124757
0.00497534
0.0253755
0.00787343
0.0398474
0.0103993
0.0533133
0.0122609
0.0642533
0.0134922
0.0726205
0.0142843
0.0791972
0.0148403
0.0849121
0.0904735
0.0152814
0.000553667
0.00249226
0.00222618
0.0108032
0.00488066
0.022721
0.00795736
0.0367707
0.0107828
0.0504879
0.0129713
0.0620647
0.0144873
0.0711045
0.015498
0.0781864
0.0162193
0.0841908
0.0898987
0.0167941
0.000505849
0.00198641
0.0020927
0.00921635
0.00472446
0.0200892
0.00794101
0.0335542
0.011055
0.0473739
0.0135873
0.0595323
0.0154178
0.069274
0.016675
0.0769292
0.0175798
0.083286
0.0891824
0.0182962
0.000456424
0.00152998
0.00194233
0.00773044
0.00451132
0.0175202
0.00782011
0.0302454
0.0112005
0.0439936
0.0140874
0.0566453
0.0162628
0.0670986
0.0177992
0.0753929
0.0189113
0.0821739
0.0883122
0.0197814
0.000406551
0.00112343
0.00177989
0.0063571
0.00424855
0.0150516
0.00759453
0.0268994
0.0112058
0.0403823
0.0144489
0.0534022
0.016998
0.0645495
0.0188502
0.0735406
0.0201998
0.0808243
0.0872709
0.0212412
0.000357327
0.000766104
0.00161038
0.00510405
0.00394585
0.0127161
0.00726932
0.0235759
0.0110613
0.0365904
0.014649
0.0498145
0.0175955
0.061603
0.0198031
0.071333
0.0214269
0.0792005
0.0860338
0.022664
0.000309782
0.000456322
0.00143884
0.00397499
0.00361473
0.0105402
0.00685528
0.0203354
0.0107631
0.0326825
0.0146668
0.0459108
0.0180253
0.0582445
0.0206278
0.0687306
0.0225689
0.0772594
0.0845687
0.024034
0.000264904
0.000191417
0.00127017
0.00296973
0.00326785
0.00854253
0.00636891
0.0172343
0.0103156
0.0287358
0.0144861
0.0417404
0.0182563
0.0544743
0.0212893
0.0656975
0.0235956
0.0749531
0.0828338
0.0253306
0.000223664
-3.22462e-05
0.00110911
0.00208428
0.00291823
0.0067334
0.00583155
0.014321
0.00973286
0.0248345
0.0140983
0.037375
0.0182589
0.0503137
0.0217488
0.0622076
0.02447
0.0722319