/*--------------------------------*- C++ -*----------------------------------*\
  =========                 |
  \\      /  F ield         | OpenFOAM: The Open Source CFD Toolbox
   \\    /   O peration     | Website:  https://openfoam.org
    \\  /    A nd           | Version:  7
     \\/     M anipulation  |
\*---------------------------------------------------------------------------*/
FoamFile
{
    version     2.0;
    format      ascii;
    class       volScalarField;
    location    "5";
    object      p;
}
// * * * * * * * * * * * * * * * * * * * * * * * * * * * * * * * * * * * * * //

dimensions      [0 2 -2 0 0 0 0];

internalField   nonuniform List<scalar> 
2125
(
0.82029
0.76251
0.730473
0.82029
0.76251
0.730473
0.702387
0.674854
0.646846
0.617505
0.586925
0.555622
0.524281
0.815769
0.758243
0.72642
0.6986
0.671377
0.643695
0.614679
0.58441
0.553378
0.522304
0.806757
0.749739
0.718343
0.691053
0.664443
0.63741
0.609043
0.579393
0.548901
0.518357
0.793315
0.737055
0.706296
0.679793
0.654095
0.62803
0.600628
0.571901
0.542215
0.512459
0.775536
0.720281
0.69036
0.664895
0.640398
0.615607
0.58948
0.561973
0.533352
0.504634
0.753541
0.699531
0.670644
0.646454
0.623436
0.600215
0.57566
0.549661
0.522357
0.494915
0.727477
0.674948
0.647281
0.624591
0.603314
0.581943
0.559243
0.535027
0.509284
0.483343
0.697523
0.646702
0.620428
0.599448
0.580155
0.560896
0.540319
0.518147
0.494197
0.469962
0.663881
0.614986
0.590268
0.571189
0.554101
0.537196
0.51899
0.499107
0.477166
0.454825
0.626779
0.580018
0.557004
0.539996
0.525314
0.51098
0.495369
0.478001
0.458271
0.437987
0.586466
0.542039
0.520861
0.506073
0.49397
0.482399
0.469584
0.454933
0.437598
0.419506
0.543214
0.501306
0.482081
0.46964
0.460262
0.451616
0.441772
0.430017
0.415239
0.399444
0.497314
0.458098
0.440925
0.430932
0.424396
0.418811
0.412081
0.403375
0.391292
0.37786
0.449072
0.412709
0.397671
0.390202
0.386595
0.384171
0.38067
0.375136
0.365862
0.354819
0.39881
0.365445
0.352606
0.347712
0.347091
0.347899
0.347708
0.345438
0.33906
0.330382
0.346863
0.316625
0.306033
0.303739
0.30613
0.310206
0.313375
0.314432
0.311011
0.304618
0.293573
0.266577
0.258261
0.258566
0.263965
0.271315
0.277863
0.282278
0.281862
0.277583
0.23929
0.215631
0.209605
0.212486
0.220857
0.231457
0.241375
0.249146
0.251739
0.249279
0.184367
0.164124
0.160384
0.165795
0.177076
0.190874
0.204125
0.215194
0.220733
0.219615
0.129159
0.112391
0.110917
0.11879
0.132894
0.149813
0.166344
0.180632
0.189457
0.189858
0.0740135
0.0607624
0.0615219
0.0717672
0.0885801
0.10852
0.128273
0.145805
0.159883
0.167934
0.019276
0.00956254
0.0125087
0.0250186
0.0443982
0.0672151
0.0900813
0.110653
0.128554
0.14278
-0.0347175
-0.0408955
-0.0358208
-0.0211717
0.000607012
0.0261157
0.0519261
0.0753782
0.0962395
0.115117
-0.0876339
-0.0903177
-0.0831775
-0.0665278
-0.0425367
-0.0145453
0.0140117
0.0402486
0.06382
0.0863935
-0.139169
-0.138418
-0.129286
-0.110784
-0.0847819
-0.0545318
-0.0234434
0.00545996
0.0316515
0.0572461
-0.189167
-0.184838
-0.173882
-0.15369
-0.125888
-0.0936157
-0.0602269
-0.028824
-0.000130905
0.0281107
-0.237181
-0.229462
-0.21673
-0.195013
-0.165629
-0.13158
-0.0961356
-0.0624318
-0.0313944
-0.000740165
-0.283012
-0.272025
-0.25761
-0.23453
-0.203802
-0.168221
-0.130977
-0.0951911
-0.0619893
-0.0291196
-0.326463
-0.312318
-0.296328
-0.272051
-0.240191
-0.203368
-0.164574
-0.126941
-0.0917756
-0.0568679
-0.367343
-0.350171
-0.332716
-0.307409
-0.274643
-0.236825
-0.196772
-0.157536
-0.120636
-0.0838359
-0.405492
-0.385442
-0.366634
-0.34046
-0.307009
-0.268456
-0.227417
-0.186847
-0.14846
-0.109861
-0.440777
-0.41802
-0.397974
-0.371086
-0.337163
-0.298132
-0.256385
-0.214748
-0.175029
-0.134914
-0.473102
-0.447822
-0.426653
-0.3992
-0.365006
-0.325745
-0.283569
-0.241141
-0.200366
-0.159636
-0.502397
-0.474795
-0.45262
-0.424742
-0.390464
-0.351211
-0.308877
-0.265942
-0.224341
-0.182985
-0.528627
-0.498918
-0.475852
-0.447679
-0.413492
-0.374469
-0.332238
-0.289072
-0.246891
-0.20498
-0.551788
-0.520197
-0.496358
-0.46801
-0.434071
-0.395481
-0.3536
-0.310474
-0.267984
-0.225732
-0.571904
-0.538666
-0.514169
-0.485757
-0.452205
-0.414234
-0.372934
-0.330108
-0.287579
-0.245238
-0.589029
-0.554387
-0.529346
-0.50097
-0.467928
-0.430739
-0.390229
-0.347953
-0.30564
-0.263464
-0.603243
-0.567443
-0.541971
-0.513722
-0.481292
-0.445026
-0.405496
-0.364
-0.322147
-0.280391
-0.614649
-0.577939
-0.552149
-0.524107
-0.492377
-0.457149
-0.418764
-0.378259
-0.337096
-0.296017
-0.623373
-0.585999
-0.56
-0.532239
-0.501277
-0.467181
-0.430081
-0.390755
-0.350497
-0.310353
-0.629556
-0.591762
-0.565664
-0.538248
-0.508108
-0.475214
-0.439511
-0.401529
-0.362373
-0.323419
-0.633358
-0.595381
-0.569288
-0.542277
-0.512999
-0.481355
-0.447136
-0.410639
-0.372761
-0.335252
-0.634949
-0.597016
-0.571032
-0.54448
-0.51609
-0.485727
-0.453053
-0.418153
-0.38171
-0.345896
-0.634507
-0.596836
-0.571061
-0.545017
-0.517533
-0.48846
-0.457369
-0.424156
-0.389282
-0.355411
-0.632216
-0.595012
-0.569543
-0.544053
-0.517484
-0.489696
-0.460202
-0.428738
-0.395548
-0.363864
-0.628264
-0.591716
-0.566647
-0.541753
-0.516102
-0.489581
-0.461679
-0.432003
-0.400587
-0.37133
-0.622835
-0.587118
-0.562538
-0.538282
-0.513546
-0.488265
-0.46193
-0.434056
-0.404485
-0.377889
-0.616112
-0.581384
-0.557378
-0.5338
-0.509975
-0.485895
-0.461087
-0.435007
-0.40733
-0.608269
-0.574674
-0.551323
-0.528461
-0.50554
-0.482619
-0.459282
-0.434966
-0.599474
-0.567139
-0.544519
-0.522411
-0.500388
-0.478577
-0.456643
-0.589883
-0.55892
-0.537103
-0.515787
-0.494655
-0.579641
-0.550148
-0.529202
-0.508715
-0.56888
-0.540944
-0.520929
-0.55772
-0.531416
-0.546269
-0.521661
-0.534627
0.19646
0.199112
0.204787
0.212549
0.222363
0.233783
0.246397
0.259601
0.2724
0.283692
0.291439
0.294174
0.287529
0.272932
0.236605
0.197103
0.199788
0.205562
0.213473
0.223516
0.235277
0.248395
0.262343
0.27622
0.289067
0.298972
0.304701
0.302036
0.292397
0.264431
0.197705
0.200386
0.206198
0.214173
0.224328
0.236268
0.249672
0.26408
0.27867
0.292619
0.304154
0.312287
0.313063
0.307747
0.286779
0.19828
0.200962
0.206817
0.214866
0.225145
0.237286
0.251004
0.265904
0.281238
0.296315
0.30949
0.319969
0.324077
0.322804
0.308295
0.198827
0.201517
0.207421
0.21555
0.225965
0.238317
0.252363
0.267765
0.283852
0.300047
0.314835
0.327572
0.334893
0.337466
0.328871
0.199343
0.20204
0.207994
0.216202
0.226745
0.239298
0.253653
0.26953
0.286327
0.303573
0.319884
0.334739
0.345104
0.351341
0.348189
0.199829
0.202534
0.208534
0.216814
0.227477
0.240218
0.254862
0.271181
0.288641
0.306868
0.32461
0.341446
0.354678
0.36441
0.366298
0.200283
0.202998
0.209039
0.217388
0.228164
0.241081
0.255995
0.272727
0.290808
0.309951
0.329035
0.347722
0.363639
0.376694
0.383249
0.200705
0.203429
0.209511
0.217924
0.228805
0.241885
0.257051
0.274169
0.292828
0.312822
0.333157
0.353564
0.371979
0.388172
0.399041
0.201094
0.203828
0.209954
0.218419
0.229398
0.24263
0.258029
0.275503
0.294696
0.315473
0.336965
0.358961
0.37968
0.398814
0.413663
0.20145
0.204192
0.210364
0.218874
0.229941
0.243313
0.258926
0.276724
0.296407
0.317901
0.340451
0.363904
0.386729
0.40859
0.427092
0.201772
0.204522
0.210686
0.219287
0.230434
0.243932
0.259738
0.277831
0.297958
0.320099
0.343609
0.368383
0.393113
0.417474
0.439302
0.202059
0.204817
0.211024
0.219656
0.230875
0.244487
0.260466
0.278822
0.299346
0.322064
0.346432
0.37239
0.398823
0.425439
0.450261
0.202311
0.205077
0.211315
0.21998
0.231264
0.244975
0.261106
0.279694
0.300566
0.323793
0.348914
0.375916
0.403845
0.432463
0.459937
0.202528
0.205301
0.211561
0.220259
0.231599
0.245395
0.261658
0.280444
0.301618
0.325281
0.351052
0.378953
0.408171
0.438523
0.468299
0.202709
0.205488
0.211766
0.220493
0.231879
0.245747
0.26212
0.281072
0.302497
0.326526
0.35284
0.381495
0.411791
0.443601
0.475316
0.202854
0.205639
0.211931
0.220681
0.232104
0.24603
0.262491
0.281577
0.303204
0.327525
0.354274
0.383535
0.414697
0.447683
0.480963
0.202963
0.205752
0.212055
0.220822
0.232273
0.246242
0.26277
0.281956
0.303735
0.328276
0.355352
0.38507
0.416882
0.450755
0.485218
0.203036
0.205827
0.212138
0.220916
0.232386
0.246384
0.262957
0.282209
0.304089
0.328777
0.356073
0.386095
0.418342
0.452809
0.488064
0.203073
0.205865
0.212179
0.220963
0.232443
0.246455
0.26305
0.282336
0.304267
0.329028
0.356433
0.386608
0.419073
0.453837
0.48949
0.130082
0.127878
0.123649
0.117855
0.110935
0.103239
0.0950666
0.0866782
0.0782968
0.0701018
0.0622291
0.0547737
0.047796
0.0413254
0.0353739
0.130757
0.128575
0.12437
0.118599
0.111691
0.10399
0.0957887
0.08735
0.0788989
0.0706189
0.0626504
0.0550932
0.0480119
0.0414391
0.035392
0.132013
0.129868
0.125711
0.119988
0.113109
0.105401
0.0971515
0.0886225
0.0800439
0.0716061
0.0634583
0.0557089
0.0484305
0.0416603
0.0354234
0.133761
0.131666
0.127584
0.121939
0.115109
0.107402
0.0990943
0.0904468
0.0816941
0.0730367
0.0646361
0.0566131
0.0490528
0.0419997
0.0354926
0.135914
0.133887
0.12991
0.124375
0.117624
0.109935
0.101571
0.0927889
0.0838274
0.0748991
0.0661811
0.0578106
0.0498887
0.0424702
0.035612
0.138398
0.136456
0.132615
0.127229
0.120593
0.112952
0.104546
0.0956255
0.0864328
0.0771929
0.0681014
0.0593154
0.0509563
0.0430924
0.0358045
0.141142
0.139302
0.135634
0.13044
0.123965
0.11641
0.10799
0.0989406
0.0895069
0.0799258
0.0704131
0.0611492
0.0522804
0.0438917
0.0360941
0.144084
0.142364
0.138904
0.133952
0.127689
0.12027
0.111876
0.102723
0.0930517
0.0831113
0.0731385
0.0633399
0.0538914
0.0448987
0.0365094
0.147165
0.145584
0.142371
0.13771
0.131719
0.124497
0.116181
0.106962
0.0970721
0.0867669
0.0763048
0.0659209
0.055825
0.0461484
0.0370822
0.150334
0.14891
0.145982
0.141666
0.13601
0.129052
0.12088
0.111649
0.101574
0.0909123
0.0799426
0.0689299
0.0581219
0.0476809
0.0378481
0.153547
0.152295
0.14969
0.145772
0.140518
0.133901
0.125949
0.116773
0.106562
0.095568
0.0840849
0.0724084
0.0608272
0.0495408
0.0388463
0.156763
0.155699
0.153452
0.149984
0.1452
0.139005
0.13136
0.122321
0.112039
0.100754
0.0887658
0.0764006
0.0639902
0.0517776
0.0401206
0.159948
0.159085
0.157228
0.154258
0.150014
0.144325
0.137082
0.128275
0.118006
0.106486
0.094019
0.0809531
0.0676638
0.0544457
0.0417188
0.163072
0.162421
0.160982
0.158557
0.154917
0.14982
0.143081
0.134613
0.124455
0.11278
0.0998766
0.0861132
0.0719045
0.0576046
0.0436937
0.166112
0.165681
0.164684
0.162842
0.159869
0.15545
0.149318
0.141307
0.131375
0.119643
0.106368
0.0919284
0.0767712
0.0613188
0.0461029
0.169046
0.168842
0.168305
0.167081
0.16483
0.161172
0.155754
0.148323
0.138748
0.127077
0.113517
0.0984449
0.0823249
0.0656583
0.0490094
0.171859
0.171885
0.171823
0.171243
0.169765
0.166942
0.162344
0.155624
0.146547
0.135075
0.121343
0.105706
0.0886269
0.0706978
0.0524818
0.17454
0.174797
0.175217
0.175301
0.174636
0.172718
0.169041
0.163164
0.154739
0.143624
0.129854
0.11375
0.0957384
0.0765172
0.0565938
0.177079
0.177565
0.178472
0.179232
0.179413
0.178459
0.175797
0.170894
0.16328
0.152698
0.139053
0.122609
0.103718
0.0832003
0.061424
0.179471
0.180184
0.181575
0.183017
0.184066
0.184126
0.182564
0.17876
0.172123
0.162262
0.148929
0.132308
0.112619
0.090834
0.0670546
0.181715
0.182649
0.184517
0.186639
0.188569
0.189681
0.189294
0.186708
0.181209
0.172271
0.159461
0.142858
0.122491
0.0995071
0.0735711
0.183808
0.184956
0.187292
0.190085
0.192901
0.195092
0.19594
0.19468
0.190478
0.182669
0.170612
0.15426
0.133373
0.109307
0.0810603
0.185753
0.187107
0.189896
0.193346
0.197043
0.200326
0.202458
0.202617
0.199862
0.19339
0.182334
0.166497
0.14529
0.120314
0.0896051
0.187553
0.189103
0.192329
0.196416
0.200981
0.20536
0.208807
0.210463
0.209292
0.20436
0.194564
0.179536
0.158255
0.132592
0.0992783
0.189212
0.190948
0.19459
0.199292
0.204704
0.21017
0.214951
0.218165
0.2187
0.215503
0.207237
0.193339
0.172286
0.146226
0.110179
0.190736
0.192648
0.196686
0.201975
0.208208
0.214744
0.220864
0.225682
0.228029
0.226756
0.220296
0.207884
0.187438
0.161365
0.122524
0.192131
0.194207
0.198618
0.204467
0.211491
0.21907
0.226521
0.232969
0.237213
0.238025
0.233638
0.22306
0.203642
0.177978
0.136394
0.193401
0.195629
0.200388
0.206761
0.214533
0.223112
0.231855
0.23991
0.246067
0.249034
0.246868
0.238334
0.220236
0.195062
0.150556
0.194554
0.196916
0.201988
0.208838
0.217294
0.226797
0.236748
0.246327
0.254326
0.259412
0.259492
0.253082
0.236536
0.211633
0.163248
0.195605
0.198096
0.203463
0.210758
0.219869
0.230277
0.24145
0.25264
0.262692
0.270313
0.27335
0.270203
0.256874
0.23457
0.184483
0.0314867
0.0294645
0.027447
0.025429
0.0234085
0.021387
0.0193662
0.0173476
0.0153325
0.0133222
0.0113182
0.00932167
0.00733402
0.00535656
0.00339062
0.00143747
-0.000501585
-0.00242528
-0.00433236
-0.0062217
0.0314367
0.0293998
0.0273737
0.0253455
0.023311
0.0212719
0.0192307
0.017189
0.015148
0.0131093
0.0110744
0.00904477
0.007022
0.00500763
0.00300322
0.00101033
-0.0009695
-0.00293475
-0.00488392
-0.00681554
0.031316
0.0292209
0.0271513
0.0250806
0.0229996
0.0209112
0.018819
0.0167247
0.0146298
0.0125359
0.0104447
0.00835784
0.00627705
0.00420403
0.00214048
8.81008e-05
-0.00195143
-0.00397643
-0.0059853
-0.00797644
0.0311688
0.0289829
0.0268443
0.0247073
0.022556
0.0203943
0.0182271
0.0160565
0.013884
0.0117112
0.00953997
0.00737206
0.00520934
0.00305366
0.000906859
-0.00122924
-0.00335281
-0.00546201
-0.00755514
-0.00963044
0.0310041
0.0286923
0.0264572
0.0242285
0.021981
0.0197201
0.0174525
0.0151807
0.012906
0.0106302
0.00835507
0.0060827
0.00381501
0.00155397
-0.000698479
-0.00294038
-0.00516979
-0.00738475
-0.00958346
-0.0117641
0.0308513
0.0283798
0.0260209
0.0236752
0.0213062
0.0189208
0.0165276
0.0141298
0.0117285
0.00932547
0.00692265
0.00452217
0.0021261
-0.000263519
-0.00264462
-0.00501517
-0.00737313
-0.00971638
-0.0120431
-0.0143514
0.0307349
0.0280683
0.0255561
0.0230666
0.0205492
0.0180122
0.0154671
0.0129172
0.0103638
0.00780826
0.00525284
0.00269971
0.000151033
-0.00239107
-0.00492445
-0.00744702
-0.00995667
-0.0124511
-0.0149286
-0.0173871
0.0306853
0.0277863
0.0250888
0.0224266
0.0197322
0.0170151
0.0142899
0.0115605
0.0088277
0.00609308
0.00335881
0.00062718
-0.00209959
-0.00481931
-0.00752979
-0.0102289
-0.0129145
-0.0155838
-0.0182358
-0.0208681
0.0307345
0.0275628
0.0246447
0.0217781
0.0188755
0.0159475
0.0130118
0.0100732
0.00713208
0.00418984
0.00124875
-0.00168886
-0.00462071
-0.00754459
-0.0104583
-0.0133598
-0.0162472
-0.0191157
-0.0219668
-0.0247978
0.0309184
0.0274298
0.0242513
0.0211453
0.0180004
0.0148276
0.0116483
0.00846811
0.00528702
0.00210623
-0.00107201
-0.00424533
-0.00741148
-0.0105683
-0.0137135
-0.0168457
-0.0199634
-0.0230559
-0.0261317
-0.029187
0.031276
0.0274219
0.0239383
0.0205535
0.0171287
0.013674
0.0102149
0.00675786
0.0033026
-0.000150007
-0.00359774
-0.00703822
-0.0104692
-0.0138886
-0.0172942
-0.0206832
-0.0240523
-0.0274098
-0.0307418
-0.034048
0.0318503
0.0275764
0.0237366
0.0200292
0.0162824
0.0125044
0.00872516
0.00495229
0.00118492
-0.00257643
-0.00632967
-0.0100725
-0.0138027
-0.0175184
-0.0212176
-0.0248981
-0.0285573
-0.0321957
-0.0358091
-0.0393959
0.0326889
0.0279344
0.0236804
0.0196008
0.0154854
0.0113384
0.00719452
0.00306286
-0.00105803
-0.00516814
-0.00926556
-0.0133481
-0.0174138
-0.0214608
-0.0254873
-0.0294915
-0.0334706
-0.0374252
-0.0413524
-0.0452504
0.0338438
0.0285407
0.023806
0.0192985
0.0147623
0.010195
0.00563687
0.00109871
-0.00342158
-0.00792467
-0.0124089
-0.0168723
-0.0213131
-0.0257298
-0.0301208
-0.0344846
-0.0388178
-0.0431224
-0.047396
-0.0516367
0.035373
0.0294446
0.0241535
0.0191551
0.0141395
0.00909472
0.00406687
-0.000930817
-0.00590129
-0.010846
-0.0157638
-0.0206529
-0.0255118
-0.0303392
-0.0351343
-0.0398962
-0.0446181
-0.049308
-0.0539628
-0.0585795
0.0373412
0.0307012
0.024767
0.0192064
0.0136456
0.00805884
0.00249921
-0.00301726
-0.00849443
-0.0139349
-0.0193378
-0.0247021
-0.0300266
-0.0353108
-0.0405558
-0.0457636
-0.050905
-0.0560147
-0.0610855
-0.0661115
0.0398208
0.0323724
0.0256959
0.0194922
0.0133119
0.0071108
0.000949612
-0.00515189
-0.0111986
-0.0171943
-0.0231388
-0.0290312
-0.0348709
-0.0406577
-0.0463913
-0.0520694
-0.057699
-0.0632749
-0.0687969
-0.0742659
0.0428937
0.0345289
0.0269966
0.0200577
0.0131739
0.00627633
-0.000565368
-0.00732682
-0.0140141
-0.0206324
-0.0271823
-0.0336632
-0.0400752
-0.0464188
-0.0526928
-0.0588915
-0.0650454
-0.0711255
-0.0771363
-0.0830831
0.0466531
0.0372521
0.0287339
0.0209551
0.0132727
0.00558576
-0.00202585
-0.00953191
-0.0169397
-0.0242563
-0.0314831
-0.0386199
-0.0456675
-0.052627
-0.0594996
-0.0662782
-0.0729848
-0.0796079
-0.0861479
-0.0926084
0.051205
0.0406357
0.0309832
0.0222456
0.0136568
0.00507506
-0.00340787
-0.0117544
-0.0199732
-0.0280734
-0.0360572
-0.0439247
-0.051677
-0.0593166
-0.0668478
-0.0742453
-0.0815584
-0.0887738
-0.0958845
-0.102894
0.0566698
0.0447883
0.0338321
0.0240009
0.0143839
0.0047876
-0.00468196
-0.0139779
-0.0231106
-0.0320914
-0.0409234
-0.049608
-0.0581488
-0.0665596
-0.0748609
-0.0828955
-0.0908549
-0.0987024
-0.106419
-0.114008
0.0631839
0.0498338
0.037382
0.0263055
0.0155231
0.00477635
-0.00581085
-0.01618
-0.0263428
-0.0363126
-0.0460921
-0.0556819
-0.0650833
-0.074291
-0.0832811
-0.0922078
-0.100923
-0.10945
-0.117811
-0.126016
0.0708968
0.0559109
0.0417492
0.0292592
0.0171572
0.00510602
-0.00674815
-0.0183326
-0.0296609
-0.0407491
-0.0515995
-0.0622122
-0.072589
-0.0827315
-0.0926151
-0.102344
-0.111837
-0.121101
-0.130154
-0.139006
0.0799617
0.0631635
0.0470603
0.0329761
0.0193843
0.00585571
-0.00743318
-0.0203929
-0.03304
-0.0453923
-0.0574512
-0.0692139
-0.0806848
-0.0918771
-0.102689
-0.11331
-0.123669
-0.13374
-0.143534
-0.153065
0.0905342
0.0717315
0.0534464
0.0375817
0.0223155
0.00711866
-0.00779073
-0.0223049
-0.0364437
-0.0502261
-0.0636515
-0.0767234
-0.0894885
-0.102028
-0.113729
-0.125301
-0.136579
-0.147499
-0.15807
-0.168306
0.102813
0.0817763
0.0610628
0.043224
0.0260795
0.00900358
-0.00773126
-0.0240004
-0.0398263
-0.0552219
-0.0701762
-0.0846751
-0.0986748
-0.112026
-0.125512
-0.138337
-0.150619
-0.162455
-0.173858
-0.184828
0.116968
0.0934465
0.0700483
0.0500154
0.0307533
0.0115647
-0.00721676
-0.0254612
-0.0431966
-0.0604295
-0.0771409
-0.0933255
-0.108992
-0.123903
-0.1385
-0.152505
-0.165906
-0.178741
-0.191019
-0.202739
0.132862
0.106871
0.0807018
0.058303
0.0366669
0.015115
-0.00595523
-0.0264259
-0.0463246
-0.0656425
-0.0843554
-0.102505
-0.120171
-0.136516
-0.152526
-0.167886
-0.182516
-0.196427
-0.20962
-0.222095
0.150146
0.122263
0.0937861
0.0689533
0.0446141
0.0203556
-0.00336859
-0.0264533
-0.0488976
-0.070658
-0.0916798
-0.111869
-0.1308
-0.149868
-0.167777
-0.18465
-0.200611
-0.215657
-0.229769
-0.242943
0.163346
0.132501
0.102764
0.0758237
0.0490917
0.0225312
-0.00350914
-0.0289488
-0.0537418
-0.0778287
-0.10122
-0.123979
-0.144843
-0.165303
-0.184753
-0.203107
-0.220383
-0.236551
-0.251581
-0.265457
-0.00809209
-0.00994235
-0.0117714
-0.0135781
-0.0153614
-0.0171204
-0.018854
-0.0205613
-0.0222414
-0.00872813
-0.0106203
-0.0124907
-0.014338
-0.0161609
-0.0179581
-0.0197286
-0.0214711
-0.0231847
-0.00994829
-0.0118993
-0.013828
-0.015733
-0.017613
-0.0194665
-0.0212924
-0.0230894
-0.0248565
-0.0116862
-0.0137208
-0.0157325
-0.01772
-0.0196816
-0.021616
-0.0235218
-0.0253977
-0.0272426
-0.0139248
-0.0160638
-0.0181795
-0.0202702
-0.0223343
-0.0243704
-0.0263771
-0.0283529
-0.0302968
-0.0166394
-0.0189051
-0.0211468
-0.0233629
-0.0255517
-0.0277116
-0.0298413
-0.0319393
-0.0340043
-0.0198247
-0.0222394
-0.0246294
-0.026993
-0.0293285
-0.0316343
-0.033909
-0.0361512
-0.0383595
-0.0234787
-0.0260656
-0.0286269
-0.031161
-0.0336662
-0.0361408
-0.0385834
-0.0409925
-0.043367
-0.027606
-0.0303894
-0.0331462
-0.0358748
-0.0385735
-0.0412406
-0.0438748
-0.0464747
-0.049039
-0.0322182
-0.0352233
-0.0382006
-0.0411486
-0.0440655
-0.0469499
-0.0498004
-0.0526157
-0.0553946
-0.0373286
-0.0405819
-0.0438062
-0.0469997
-0.0501609
-0.0532885
-0.056381
-0.0594375
-0.0624567
-0.042955
-0.0464847
-0.0499835
-0.0534499
-0.0568825
-0.0602802
-0.0636418
-0.0669662
-0.0491178
-0.0529533
-0.0567556
-0.0605233
-0.0642556
-0.0679514
-0.0716097
-0.07523
-0.0558431
-0.0600144
-0.0641497
-0.068248
-0.0723085
-0.0763308
-0.0803143
-0.0842588
-0.0631571
-0.0676954
-0.0721939
-0.0766522
-0.0810701
-0.0854475
-0.0897845
-0.0940814
-0.0710924
-0.0760285
-0.0809201
-0.0857674
-0.0905709
-0.0953312
-0.100049
-0.104726
-0.0796825
-0.0850475
-0.0903616
-0.0956258
-0.100842
-0.106011
-0.111134
-0.116216
-0.0889677
-0.0947911
-0.100555
-0.106262
-0.111914
-0.117514
-0.123065
-0.128572
-0.0989924
-0.105302
-0.111541
-0.117712
-0.12382
-0.129868
-0.135863
-0.141809
-0.109808
-0.11663
-0.123365
-0.130018
-0.136594
-0.143101
-0.149545
-0.155936
-0.121478
-0.128833
-0.13608
-0.143224
-0.150274
-0.157239
-0.164129
-0.170955
-0.134068
-0.141974
-0.149742
-0.157379
-0.164898
-0.172308
-0.179624
-0.18686
-0.147661
-0.156129
-0.164418
-0.172539
-0.180506
-0.188332
-0.196034
-0.203632
-0.162343
-0.171377
-0.180177
-0.188759
-0.197136
-0.205328
-0.213353
-0.221235
-0.178214
-0.187805
-0.197091
-0.206088
-0.214813
-0.223289
-0.23154
-0.239594
-0.195371
-0.205498
-0.215226
-0.22457
-0.233553
-0.242199
-0.250539
-0.258607
-0.213909
-0.22454
-0.23465
-0.244259
-0.253391
-0.262078
-0.270356
-0.278267
-0.233858
-0.244923
-0.255309
-0.265043
-0.274158
-0.282696
-0.290705
-0.298246
-0.255183
-0.266501
-0.276919
-0.28647
-0.295196
-0.303155
-0.310414
-0.317059
-0.278175
-0.289738
-0.300164
-0.309479
-0.317726
-0.32496
-0.331251
-0.336687
)
;

boundaryField
{
    inlet
    {
        type            zeroGradient;
    }
    outlet
    {
        type            fixedValue;
        value           nonuniform 0();
    }
    cylinder
    {
        type            zeroGradient;
    }
    top
    {
        type            symmetryPlane;
    }
    bottom
    {
        type            symmetryPlane;
    }
    defaultFaces
    {
        type            empty;
    }
    procBoundary0to1
    {
        type            processor;
        value           nonuniform List<scalar> 
50
(
-0.383621
-0.383621
-0.40921
-0.40921
-0.434038
-0.473904
-0.434038
-0.453293
-0.473904
-0.48847
-0.48847
-0.501308
-0.501308
-0.512389
-0.512389
-0.503674
-0.511768
-0.511768
-0.522882
-0.0238934
-0.0248684
-0.0265926
-0.0290554
-0.0322075
-0.0360352
-0.0405327
-0.0457055
-0.0515666
-0.0581359
-0.0654377
-0.0702527
-0.0702527
-0.0788116
-0.0881639
-0.0983386
-0.109362
-0.121257
-0.134038
-0.147713
-0.162281
-0.17773
-0.194033
-0.211146
-0.229003
-0.247486
-0.266444
-0.28586
-0.305384
-0.323186
-0.341371
)
;
    }
    procBoundary0to2
    {
        type            processor;
        value           nonuniform List<scalar> 
26
(
0.815769
0.758243
0.72642
0.702387
0.702387
0.674854
0.646846
0.617505
0.586925
0.555622
0.524281
0.203073
0.205865
0.212179
0.220963
0.232443
0.246455
0.26305
0.282336
0.304267
0.329028
0.356433
0.386608
0.419073
0.453837
0.48949
)
;
    }
}


// ************************************************************************* //
