/*--------------------------------*- C++ -*----------------------------------*\
  =========                 |
  \\      /  F ield         | OpenFOAM: The Open Source CFD Toolbox
   \\    /   O peration     | Website:  https://openfoam.org
    \\  /    A nd           | Version:  7
     \\/     M anipulation  |
\*---------------------------------------------------------------------------*/
FoamFile
{
    version     2.0;
    format      ascii;
    class       surfaceScalarField;
    location    "5";
    object      phi;
}
// * * * * * * * * * * * * * * * * * * * * * * * * * * * * * * * * * * * * * //

dimensions      [0 3 -1 0 0 0 0];

internalField   nonuniform List<scalar> 
4136
(
-0.000380876
5.40351e-10
-0.00139385
1.36936e-09
2.6055e-09
-0.000380876
0.000380877
-0.00139385
0.00101298
-0.0029599
0.00156605
-0.00499375
0.00203385
-0.00741242
0.00241868
-0.0101432
0.0027308
-0.0131295
0.00298628
-0.0163336
0.00320413
-0.0197368
0.00340324
0.00359809
-0.0233349
-0.000379271
0.000760148
-0.00138847
0.00202217
-0.00294936
0.00312695
-0.00497739
0.00406188
-0.00739008
0.00483137
-0.010115
0.00545576
-0.0130957
0.00596697
-0.0162944
0.00640284
-0.0196923
0.00680111
0.00719065
-0.0232849
-0.000376066
0.00113621
-0.00137772
0.00302383
-0.00292833
0.00467755
-0.00494471
0.00607827
-0.00734545
0.0072321
-0.0100587
0.00816905
-0.0130283
0.00893648
-0.0162162
0.00959078
-0.0196034
0.0101883
0.0107722
-0.0231849
-0.000371276
0.00150749
-0.00136165
0.0040142
-0.00289685
0.00621276
-0.0048958
0.00807721
-0.00727861
0.00961491
-0.00997441
0.0108649
-0.0129272
0.0118893
-0.016099
0.0127626
-0.0194702
0.0135595
0.0143374
-0.0230354
-0.000364921
0.00187241
-0.0013403
0.00498958
-0.00285502
0.00772747
-0.00483075
0.0100529
-0.00718969
0.0119739
-0.00986221
0.0135374
-0.0127927
0.0148198
-0.0159431
0.015913
-0.0192932
0.0169095
0.0178809
-0.0228367
-0.000357027
0.00222944
-0.00131376
0.00594632
-0.00280295
0.00921666
-0.00474972
0.0119997
-0.00707887
0.014303
-0.00972232
0.0161808
-0.0126251
0.0177226
-0.0157489
0.0190367
-0.0190727
0.0202334
0.0213977
-0.0225895
-0.000347627
0.00257706
-0.00128211
0.0068808
-0.00274079
0.0106753
-0.0046529
0.0139118
-0.00694634
0.0165964
-0.00955497
0.0187895
-0.0124246
0.0205922
-0.0155166
0.0221288
-0.0188093
0.0235261
0.024883
-0.0222945
-0.00033676
0.00291382
-0.00124546
0.0077895
-0.00266871
0.0120986
-0.00454049
0.0157836
-0.00679235
0.0188483
-0.0093604
0.0213575
-0.0121914
0.0234231
-0.0152466
0.0251839
-0.0185034
0.0267829
0.028332
-0.0219525
-0.00032447
0.00323829
-0.00120393
0.00866897
-0.00258691
0.0134816
-0.00441275
0.0176094
-0.00661715
0.0210527
-0.0091389
0.0238793
-0.0119259
0.0262101
-0.0149393
0.0281974
-0.0181557
0.0299993
0.0317406
-0.0215643
-0.000310809
0.0035491
-0.00115767
0.00951583
-0.00249562
0.0148195
-0.00426994
0.0193838
-0.00642105
0.0232038
-0.00889075
0.026349
-0.0116283
0.0289477
-0.0145951
0.0311641
-0.0177666
0.0331709
0.0351047
-0.0211308
-0.000295833
0.00384494
-0.00110683
0.0103268
-0.00239508
0.0161078
-0.00411239
0.0211011
-0.00620435
0.0252958
-0.00861624
0.0287609
-0.011299
0.0316305
-0.0142143
0.0340793
-0.0173368
0.0362934
0.0384209
-0.0206529
-0.000279605
0.00412454
-0.0010516
0.0110988
-0.00228558
0.0173417
-0.00394043
0.0227559
-0.00596741
0.0273228
-0.00831568
0.0311091
-0.0109382
0.034253
-0.0137971
0.0369381
-0.0168663
0.0393627
0.0416858
-0.0201312
-0.000262195
0.00438674
-0.000992159
0.0118288
-0.00216744
0.018517
-0.00375444
0.0243429
-0.0057106
0.0292789
-0.00798936
0.0333879
-0.0105461
0.0368098
-0.0133436
0.0397356
-0.0163555
0.0423746
0.0448964
-0.0195662
-0.00024368
0.00463042
-0.00092874
0.0125138
-0.00204102
0.0196293
-0.00355486
0.0258567
-0.00543434
0.0311584
-0.00763763
0.0355912
-0.0101229
0.0392951
-0.0128538
0.0424665
-0.0158041
0.045325
0.0480501
-0.0189578
-0.000224145
0.00485456
-0.000861586
0.0131513
-0.00190672
0.0206744
-0.00334218
0.0272922
-0.00513913
0.0329553
-0.00726085
0.0377129
-0.00966859
0.0417028
-0.0123275
0.0451254
-0.0152116
0.0482091
0.0511439
-0.0183054
-0.000203683
0.00505824
-0.000790973
0.0137386
-0.00176499
0.0216485
-0.003117
0.0286442
-0.00482557
0.0346639
-0.00685951
0.0397469
-0.00918351
0.0440268
-0.0117644
0.0477063
-0.0145769
0.0510217
0.0541747
-0.0176077
-0.0001824
0.00524064
-0.00071721
0.0142734
-0.00161637
0.0225476
-0.00287999
0.0299078
-0.0044944
0.0362783
-0.00643427
0.0416867
-0.00866801
0.0462605
-0.0111644
0.0502027
-0.0138989
0.0537561
0.0571382
-0.0168624
-0.000160406
0.00540105
-0.000640637
0.0147536
-0.00146145
0.0233684
-0.00263196
0.0310783
-0.00414655
0.0377929
-0.0059861
0.0435263
-0.00812293
0.0483974
-0.0105277
0.0526075
-0.0131756
0.0564039
0.0600285
-0.0160659
-0.000137825
0.00553888
-0.000561626
0.0151774
-0.00130089
0.0241077
-0.00237382
0.0321513
-0.00378318
0.0392023
-0.0055164
0.0452595
-0.00755009
0.0504311
-0.00985662
0.0549141
-0.012406
0.0589533
0.0628409
-0.0152184
-0.000114783
0.00565366
-0.000480577
0.0155432
-0.00113541
0.0247625
-0.00210663
0.0331225
-0.00340566
0.0405013
-0.00502716
0.046881
-0.00695302
0.0523569
-0.00915948
0.0571205
-0.011605
0.0613988
0.0655603
-0.0143244
-9.14132e-05
0.00574507
-0.000397908
0.0158497
-0.000965758
0.0253304
-0.00183144
0.0339882
-0.00301538
0.0416852
-0.00452029
0.0483859
-0.00633515
0.0541718
-0.00844835
0.0592337
-0.0108862
0.0638366
0.0684546
-0.0137805
-6.78516e-05
0.00581292
-0.000314047
0.0160959
-0.000792722
0.0258091
-0.00154932
0.0347448
-0.00261344
0.0427493
-0.00399632
0.0497688
-0.00569448
0.0558699
-0.0077023
0.0612415
-0.0100368
0.0661711
0.0711186
-0.0127007
-4.42372e-05
0.00585716
-0.000229438
0.0162811
-0.000617096
0.0261967
-0.00126133
0.035389
-0.00220085
0.0436889
-0.0034554
0.0510233
-0.00502817
0.0574427
-0.00691479
0.0631282
-0.00911702
0.0683733
0.0735918
-0.0115903
-2.07464e-05
0.00587791
-0.000144559
0.0164049
-0.000439719
0.0264919
-0.000968613
0.0359179
-0.00177883
0.0444991
-0.0028984
0.0521429
-0.00433643
0.0588807
-0.00608834
0.0648801
-0.00814148
0.0704265
0.0758854
-0.010435
1.93981e-06
0.00587597
-5.99056e-05
0.0164668
-0.000261485
0.0266934
-0.000672441
0.0363289
-0.00134888
0.0451755
-0.0023269
0.0531209
-0.00362119
0.060175
-0.00522727
0.0664862
-0.0071227
0.0723219
0.0780037
-0.00924099
2.5677e-05
0.00585029
2.41881e-05
0.0164683
-8.33544e-05
0.026801
-0.000374248
0.0366198
-0.000912811
0.0457141
-0.00174303
0.0539511
-0.00288524
0.0613172
-0.00433599
0.0679369
-0.00606764
0.0740535
0.0799503
-0.00801431
4.78502e-05
0.00580244
0.000106974
0.0164091
9.3608e-05
0.0268144
-7.55703e-05
0.036789
-0.000472729
0.0461112
-0.00114939
0.0546278
-0.00213194
0.0622998
-0.00341921
0.0692242
-0.00498201
0.0756163
0.0817263
-0.00675795
6.94612e-05
0.00573298
0.000187982
0.0162906
0.000268295
0.026734
0.000221702
0.0368355
-3.07889e-05
0.0463637
-0.000548996
0.055146
-0.00136509
0.0631159
-0.00248177
0.0703408
-0.0038711
0.0770057
0.0833303
-0.00547513
9.02682e-05
0.00564271
0.00026669
0.0161142
0.000439594
0.0265611
0.000515827
0.0367593
0.000409824
0.0464697
5.49331e-05
0.0555009
-0.000588772
0.0637596
-0.00152851
0.0712806
-0.00273982
0.078217
0.0847599
-0.00416945
0.000110099
0.00553261
0.000342539
0.0158817
0.000606327
0.0262974
0.000804883
0.0365608
0.000846942
0.0464277
0.000658484
0.0556894
0.000192677
0.0642254
-0.000564248
0.0720375
-0.00159282
0.0792456
0.0860117
-0.00284463
0.000128805
0.00540381
0.000414983
0.0155956
0.000767314
0.025945
0.00108687
0.0362412
0.0012775
0.046237
0.00125832
0.0557085
0.000974793
0.0645089
0.000406151
0.0726062
-0.000433023
0.0800847
0.0870835
-0.00150479
0.000146247
0.00525756
0.000483494
0.0152583
0.000921388
0.0255071
0.00135977
0.0358028
0.00169855
0.0458983
0.00185042
0.0555567
0.00175298
0.0646064
0.00137738
0.0729817
0.000728816
0.0807333
0.087984
-0.000171678
0.000162303
0.00509526
0.000547578
0.014873
0.00106742
0.0249873
0.0016216
0.0352486
0.00210711
0.0454127
0.00243083
0.055233
0.00252251
0.0645147
0.0023446
0.0731597
0.00189535
0.0811825
0.0886754
0.00120395
0.000176864
0.00491839
0.00060678
0.0144431
0.00120433
0.0243897
0.0018704
0.0345826
0.00250018
0.044783
0.00299552
0.0547376
0.00327852
0.0642317
0.00330264
0.0731355
0.00305752
0.0814277
0.0891685
0.00256442
0.000189841
0.00472855
0.000660697
0.0139723
0.00133112
0.0237193
0.00210432
0.0338094
0.00287485
0.0440124
0.00354045
0.054072
0.00401595
0.0637562
0.00424556
0.0729059
0.00420928
0.0814639
0.0894575
0.00392033
0.000201162
0.00452739
0.000708982
0.0134645
0.00144692
0.0229814
0.00232162
0.0329347
0.00322828
0.0431058
0.00406161
0.0532387
0.00472973
0.0630881
0.00516755
0.0724681
0.00534497
0.0812865
0.0895361
0.00526633
0.000210777
0.00431661
0.000751355
0.0129239
0.00155092
0.0221818
0.00252069
0.0319649
0.0035578
0.0420687
0.00455507
0.0522414
0.00541477
0.0622284
0.00606271
0.0718202
0.0064583
0.0808909
0.0893983
0.00659612
0.000218656
0.00409795
0.000787606
0.0123549
0.00164249
0.0213269
0.00270015
0.0309072
0.0038609
0.0409079
0.00501706
0.0510852
0.00606602
0.0611794
0.00692497
0.0709612
0.00754257
0.0802733
0.089038
0.00790284
0.000224793
0.00387316
0.0008176
0.0117621
0.00172113
0.0204234
0.00285878
0.0297696
0.00413534
0.0396314
0.00544401
0.0497766
0.00667853
0.0599449
0.00774812
0.0698916
0.00859073
0.0794307
0.0884497
0.00917904
0.000229201
0.00364396
0.000841279
0.01115
0.0017865
0.0194782
0.00299562
0.0285605
0.00437915
0.0382478
0.00583261
0.0483231
0.00724747
0.05853
0.00852596
0.0686131
0.00959546
0.0783612
0.0876285
0.0104167
0.000231916
0.00341205
0.000858664
0.0105233
0.0018384
0.0184984
0.00310998
0.0272889
0.00459069
0.0367671
0.00617988
0.0467339
0.0077683
0.0569416
0.00925234
0.0671291
0.0105493
0.0770643
0.0865705
0.0116073
0.000232993
0.00317905
0.000869854
0.00988643
0.00187684
0.0174914
0.00320141
0.0259643
0.0047687
0.0351998
0.00648328
0.0450194
0.00823683
0.0551881
0.00992131
0.0654446
0.0114446
0.075541
0.085273
0.0127422
0.000232507
0.00294654
0.000875022
0.00924392
0.00190196
0.0164645
0.00326979
0.0245965
0.00491232
0.0335573
0.00674074
0.0431909
0.00864932
0.0532795
0.0105273
0.0635667
0.0122741
0.0737941
0.0837348
0.0138122
0.000230551
0.00271599
0.000874412
0.00860006
0.00191409
0.0154248
0.00331526
0.0231953
0.00502111
0.0318514
0.0069507
0.0412613
0.00900263
0.0512275
0.0110651
0.0615042
0.0130304
0.0718288
0.0819568
0.0148085
0.00022723
0.00248876
0.000868331
0.00795895
0.0019137
0.0143795
0.00333826
0.0217708
0.0050951
0.0300946
0.00711225
0.0392442
0.00929429
0.0490455
0.0115302
0.0592683
0.013707
0.069652
0.0799416
0.0157222
0.000222664
0.0022661
0.000857142
0.00732448
0.0019014
0.0133352
0.0033395
0.0203327
0.00513475
0.0282993
0.00722508
0.0371539
0.00952261
0.046748
0.0119192
0.0568717
0.0142979
0.0672733
0.0776943
0.0165452
0.000216979
0.00204912
0.000841249
0.00670021
0.00187792
0.0122985
0.00331995
0.0188906
0.00514096
0.0264783
0.00728953
0.0350053
0.00968674
0.0443508
0.0122292
0.0543293
0.0147982
0.0647042
0.0752222
0.0172703
0.00021031
0.00183881
0.000821089
0.00608943
0.00184409
0.0112755
0.00328077
0.017454
0.00511502
0.0246441
0.00730657
0.0328137
0.00978674
0.0418706
0.0124588
0.0516572
0.0152043
0.0619587
0.0178913
0.000202788
0.00163602
0.000797116
0.0054951
0.0018008
0.0102719
0.00322329
0.0160315
0.00505854
0.0228088
0.00727774
0.0305945
0.0098235
0.0393249
0.0126076
0.0488731
0.000194543
0.00144148
0.000769781
0.00491986
0.00174897
0.00929268
0.00314897
0.0146315
0.00497342
0.0209844
0.00720509
0.0283629
0.00979876
0.0367312
0.000185695
0.00125579
0.000739517
0.00436604
0.0016895
0.00834269
0.00305929
0.0132617
0.00486167
0.019182
0.007091
0.000176351
0.00107944
0.000706727
0.00383566
0.00162328
0.00742614
0.00295569
0.0119293
0.000166603
0.000912832
0.000671767
0.0033305
0.00155108
0.00654682
0.000156523
0.000756309
0.00063494
0.00285208
0.000146168
0.000610141
0.00240175
0.000135577
0.000474564
0.0344125
-0.000564541
0.00150736
0.0334141
-0.00307491
0.00407336
0.0323691
-0.00535128
0.00639628
0.031275
-0.00755398
0.00864803
0.0301208
-0.00983009
0.0109843
0.0288927
-0.0122427
0.0134708
0.0275761
-0.01484
0.0161566
0.0261577
-0.0176475
0.0190659
0.0246308
-0.0206708
0.0221978
0.0229954
-0.0238863
0.0255217
0.0212714
-0.0272492
0.0289731
0.01949
-0.0306388
0.0324202
0.017729
-0.0339518
0.0357128
0.0160172
-0.036755
0.0384668
-0.0389184
0.0406112
0.0345405
0.000250338
0.0336586
-0.00219301
0.0327191
-0.0044118
0.0317204
-0.00655529
0.0306523
-0.00876199
0.0295018
-0.0110922
0.0282549
-0.0135932
0.0268989
-0.0162915
0.0254267
-0.0191986
0.0238376
-0.0222972
0.0221492
-0.0255608
0.0203899
-0.0288795
0.0186243
-0.0321862
0.0168959
-0.0350266
-0.0372409
0.0346633
0.000942376
0.0338936
-0.00142328
0.0330562
-0.0035744
0.0321504
-0.00564952
0.0311671
-0.00777865
0.0300941
-0.0100192
0.0289185
-0.0124175
0.0276276
-0.0150007
0.0262143
-0.0177853
0.0246765
-0.0207594
0.0230283
-0.0239125
0.0212937
-0.0271449
0.0195243
-0.0304168
0.0177786
-0.0332809
-0.0355282
0.0347806
0.00151712
0.0341181
-0.000760818
0.0333785
-0.00283476
0.0325618
-0.00483285
0.0316599
-0.00687677
0.0306617
-0.00902096
0.0295548
-0.0113106
0.028327
-0.0137729
0.0269705
-0.0164288
0.025482
-0.0192709
0.0238717
-0.0223022
0.0221595
-0.0254327
0.0203859
-0.0286431
0.0186157
-0.0315108
-0.0337748
0.0348921
0.00198037
0.0343317
-0.000200433
0.0336852
-0.0021882
0.0329534
-0.0041011
0.0321292
-0.00605256
0.0312022
-0.00809398
0.0301607
-0.0102691
0.0289928
-0.012605
0.0276902
-0.0151262
0.0262481
-0.0178288
0.0246728
-0.0207269
0.0229808
-0.0237406
0.0212025
-0.0268648
0.0194039
-0.0297122
-0.0319787
0.0349976
0.00233811
0.0345339
0.000263274
0.0339756
-0.00162991
0.0333244
-0.00344993
0.032574
-0.00530212
0.0317148
-0.00723474
0.0307356
-0.00928994
0.0296247
-0.0114942
0.0283733
-0.0138748
0.0269753
-0.0164307
0.0254331
-0.0191848
0.0237597
-0.0220672
0.0219772
-0.0250824
0.0201487
-0.0278837
-0.0301354
0.0350969
0.00259655
0.0347243
0.000635879
0.0342493
-0.00115487
0.0336742
-0.00287485
0.0329935
-0.00462142
0.0321983
-0.00643961
0.0312782
-0.00836977
0.0302214
-0.0104374
0.0290186
-0.012672
0.0276623
-0.0150744
0.0261516
-0.0176742
0.0244958
-0.0204114
0.0227099
-0.0232964
0.0208511
-0.0260249
-0.028242
0.0351898
0.00276205
0.0349026
0.00092314
0.0345056
-0.000757873
0.0340019
-0.00237117
0.0333867
-0.00400621
0.0326518
-0.00570476
0.0317872
-0.00750511
0.0307814
-0.0094316
0.0296242
-0.0115149
0.0283073
-0.0137575
0.0268264
-0.0161933
0.0251872
-0.0187721
0.0233985
-0.0215078
0.0215105
-0.0241368
-0.0262978
0.0352762
0.00284115
0.0350684
0.00113099
0.0347441
-0.000433569
0.0343069
-0.00193403
0.0337528
-0.00345209
0.0330742
-0.00502617
0.0322614
-0.0066923
0.0313032
-0.00847338
0.0301888
-0.0104004
0.0289087
-0.0124773
0.0274557
-0.0147403
0.0258321
-0.0171485
0.0240415
-0.0197172
0.0221258
-0.0222211
-0.0243032
0.035356
0.00284052
0.0352215
0.00126551
0.0349643
-0.000176449
0.0345887
-0.00155839
0.0340911
-0.00295449
0.0334646
-0.00439966
0.0326998
-0.0059275
0.0317857
-0.00755926
0.0307108
-0.00932563
0.0294649
-0.0112313
0.028038
-0.0133135
0.026429
-0.0155395
0.024637
-0.0179252
0.0226959
-0.02028
-0.0222602
0.0354289
0.00276696
0.0353615
0.00133294
0.0351659
1.9154e-05
0.0348466
-0.00123911
0.0344008
-0.0025087
0.0338221
-0.00382093
0.0331013
-0.00520675
0.0322277
-0.00668561
0.0311892
-0.00828717
0.0299746
-0.0100167
0.0285718
-0.0119107
0.0269765
-0.0139442
0.0251837
-0.0161324
0.0232195
-0.0183158
-0.0201715
0.0354949
0.00262744
0.0354882
0.00133958
0.0353482
0.000159172
0.0350801
-0.000970987
0.0346813
-0.0021099
0.0341459
-0.00328554
0.0334651
-0.00452597
0.0326282
-0.00584872
0.0316228
-0.00728174
0.0304367
-0.00883063
0.029056
-0.01053
0.0274732
-0.0123615
0.02568
-0.0143393
0.0236953
-0.016331
-0.0180405
0.0355538
0.00242898
0.0356014
0.00129197
0.0355112
0.000249363
0.0352888
-0.000748551
0.034932
-0.00175314
0.0344354
-0.00278895
0.0337904
-0.00388097
0.0329864
-0.00504472
0.0320106
-0.00630589
0.03085
-0.00767009
0.0294892
-0.00916914
0.0279179
-0.0107901
0.0261246
-0.012546
0.0241218
-0.0143281
-0.0158712
0.0356056
0.00217876
0.0357009
0.00119665
0.0356545
0.000295737
0.0354723
-0.000566315
0.0351525
-0.00143337
0.03469
-0.0023265
0.0340766
-0.00326748
0.0333015
-0.00426971
0.0323518
-0.00535611
0.0312137
-0.00653206
0.0298705
-0.00782592
0.0283094
-0.00922904
0.0265163
-0.0107529
0.0244978
-0.0123096
-0.0136679
0.0356501
0.00188401
0.0357865
0.00106028
0.0357778
0.000304403
0.0356302
-0.0004187
0.0353423
-0.00114547
0.0349093
-0.00189348
0.0343229
-0.00268113
0.0335729
-0.00351966
0.0326456
-0.00442881
0.0315269
-0.00541346
0.030199
-0.00649796
0.0286468
-0.00767686
0.0268539
-0.00896001
0.0248222
-0.0102779
-0.0114352
0.0356873
0.00155204
0.035858
0.000889584
0.0358809
0.000281532
0.0357622
-0.000300046
0.035501
-0.000884225
0.0350926
-0.00148508
0.034529
-0.0021175
0.0337998
-0.00279051
0.0328913
-0.00352033
0.031789
-0.00431113
0.0304739
-0.00518282
0.0289292
-0.00613223
0.0271367
-0.00716747
0.025094
-0.00823524
-0.00917792
0.0357172
0.00119021
0.0359154
0.000691347
0.0359636
0.000233356
0.0358682
-0.000204635
0.0356283
-0.000644382
0.0352397
-0.00109645
0.0346943
-0.00157211
0.0339819
-0.00207815
0.0330886
-0.00262696
0.0319993
-0.00322187
0.0306945
-0.00387801
0.029156
-0.00459374
0.0273638
-0.00537526
0.0253125
-0.00618393
-0.00690082
0.0357396
0.000805955
0.0359585
0.000472415
0.0360257
0.000166157
0.0359478
-0.000126699
0.035724
-0.000420631
0.0353503
-0.000722692
0.0348186
-0.00104044
0.0341189
-0.00137841
0.0332369
-0.00174498
0.0321575
-0.00214244
0.0308604
-0.002581
0.0293266
-0.00305989
0.0275347
-0.00358333
0.0254769
-0.00412618
-0.00460883
0.0357546
0.000406724
0.0359873
0.000239664
0.0360672
8.62557e-05
0.036001
-6.04314e-05
0.035788
-0.000207629
0.0354241
-0.000358864
0.0349016
-0.00051793
0.0342103
-0.000687099
0.0333359
-0.000870591
0.0322631
-0.00106958
0.0309713
-0.0012892
0.0294405
-0.00152917
0.0276488
-0.00179162
0.0255868
-0.00206416
-0.00230691
0.0357621
0.0360017
0.036088
0.0360276
0.0358199
0.0354611
0.0349432
0.0342561
0.0333855
0.0323159
0.0310267
0.0294976
0.027706
0.0256418
0.202077
-0.000273242
0.202806
-0.000728675
0.203871
-0.00106552
0.205182
-0.0013109
0.206662
-0.00148012
0.208245
-0.00158248
0.209872
-0.00162693
0.211495
-0.00162328
0.213077
-0.00158186
0.21459
-0.00151269
0.216014
-0.00142483
0.21734
-0.0013259
0.218562
-0.00122207
0.21968
-0.00111764
-0.00101757
0.220698
0.192644
-0.000533575
0.193333
-0.00141778
0.194343
-0.00207536
0.195589
-0.00255672
0.196999
-0.00289032
0.198511
-0.0030942
0.200069
-0.00318529
0.201628
-0.0031822
0.203151
-0.00310465
0.20461
-0.00297202
0.205987
-0.00280196
0.207271
-0.00260944
0.208456
-0.00240659
0.20954
-0.00220193
-0.00200531
0.210528
0.183648
-0.000778011
0.184296
-0.00206582
0.185249
-0.00302787
0.186429
-0.00373684
0.187771
-0.00423259
0.189217
-0.00454029
0.190715
-0.00468346
0.192221
-0.00468811
0.193699
-0.00458224
0.195121
-0.00439373
0.196467
-0.00414834
0.197726
-0.00386813
0.19889
-0.00357119
0.199959
-0.00327032
-0.00298068
0.200934
0.17507
-0.00100575
0.175675
-0.00267073
0.176568
-0.00392099
0.177682
-0.00485005
0.178956
-0.00550738
0.18034
-0.0059235
0.181783
-0.00612673
0.183244
-0.00614881
0.184686
-0.00602461
0.186082
-0.00578954
0.18741
-0.00547687
0.188658
-0.00511549
0.189816
-0.00472948
0.190882
-0.00433599
-0.00395593
0.191857
0.166892
-0.00121607
0.167452
-0.00323068
0.168283
-0.00475254
0.169328
-0.0058945
0.170534
-0.00671381
0.171855
-0.00724452
0.173246
-0.00751773
0.174666
-0.00756898
0.17608
-0.0074384
0.177458
-0.00716773
0.178778
-0.00679707
0.180025
-0.00636185
0.181187
-0.00589216
0.182261
-0.00540971
-0.00494183
0.183247
0.159093
-0.00140838
0.159606
-0.00374402
0.160374
-0.00552027
0.161347
-0.00686775
0.162483
-0.0078498
0.163741
-0.00850217
0.16508
-0.00885668
0.166462
-0.00895054
0.16785
-0.00882731
0.169216
-0.00853367
0.170535
-0.00811566
0.171788
-0.00761493
0.172964
-0.00706758
0.174054
-0.00650004
-0.00594685
0.175059
0.151657
-0.00158218
0.152123
-0.0042093
0.152824
-0.00622198
0.153724
-0.00776698
0.154786
-0.00891233
0.155978
-0.00969379
0.157263
-0.0101418
0.158605
-0.0102931
0.15997
-0.0101925
0.161327
-0.00989016
0.162648
-0.00943698
0.163914
-0.00888026
0.165108
-0.00826212
0.166222
-0.00761385
-0.00697813
0.167253
0.144567
-0.00173709
0.144983
-0.00462537
0.145617
-0.00685562
0.146439
-0.00858923
0.147425
-0.00989776
0.148546
-0.0108155
0.149774
-0.0113696
0.151075
-0.0115941
0.152416
-0.0115329
0.153763
-0.0112378
0.15509
-0.0107633
0.156371
-0.0101615
0.157589
-0.00948053
0.158732
-0.00875665
-0.00804159
0.159796
0.137807
-0.00187291
0.138173
-0.00499142
0.138737
-0.00741952
0.13948
-0.00933166
0.140384
-0.0108021
0.141431
-0.0118627
0.142597
-0.0125354
0.143852
-0.0128493
0.145165
-0.0128456
0.146502
-0.0125752
0.147834
-0.0120948
0.149133
-0.0114606
0.150379
-0.0107261
0.151555
-0.00993277
-0.00914223
0.152655
0.131362
-0.0019896
0.131678
-0.00530712
0.132171
-0.00791251
0.132831
-0.00999179
0.13365
-0.0116216
0.134618
-0.0128302
0.135716
-0.0136333
0.13692
-0.0140533
0.1382
-0.0141259
0.139524
-0.0138993
0.140859
-0.0134303
0.142177
-0.0127781
0.143452
-0.012001
0.144664
-0.0111455
-0.0102843
0.145806
0.125217
-0.00208731
0.125482
-0.00557261
0.125904
-0.00833402
0.126479
-0.0105677
0.12721
-0.0123524
0.128093
-0.0137129
0.129117
-0.0146571
0.130263
-0.0151994
0.131505
-0.0153676
0.13281
-0.0152051
0.134147
-0.0147667
0.135482
-0.0141129
0.136787
-0.013306
0.138038
-0.0123973
-0.0114712
0.139225
0.119357
-0.00216638
0.119573
-0.00578859
0.119924
-0.00868424
0.120414
-0.0110582
0.121053
-0.0129917
0.121846
-0.0145057
0.122789
-0.0156003
0.12387
-0.0162801
0.125066
-0.0165635
0.126348
-0.0164865
0.12768
-0.0160995
0.12903
-0.0154626
0.130365
-0.0146407
0.131657
-0.0136897
-0.012706
0.132892
0.113772
-0.00222734
0.113939
-0.00595626
0.114219
-0.00896408
0.114624
-0.011463
0.115169
-0.0135372
0.115868
-0.0152043
0.116724
-0.0164563
0.117732
-0.0172877
0.118873
-0.0177054
0.120123
-0.017736
0.121446
-0.0174228
0.122807
-0.0168236
0.12417
-0.0160039
0.125504
-0.0150236
-0.0139911
0.126789
0.108446
-0.00227092
0.108567
-0.00607736
0.108779
-0.00917522
0.109098
-0.0117828
0.109549
-0.0139877
0.110149
-0.015805
0.110912
-0.017219
0.111839
-0.0182141
0.112917
-0.0187843
0.114126
-0.018945
0.115433
-0.0187295
0.1168
-0.0181908
0.118189
-0.0173928
0.119564
-0.0163988
-0.0153284
0.120902
0.10337
-0.00229799
0.103446
-0.00615406
0.103591
-0.00932007
0.103828
-0.012019
0.104183
-0.0143429
0.104683
-0.016305
0.105347
-0.0178831
0.106184
-0.0190516
0.107191
-0.0197911
0.10835
-0.020104
0.109631
-0.0200109
0.110998
-0.0195578
0.112409
-0.0188038
0.113825
-0.0178145
-0.0167193
0.115216
0.0985304
-0.00230955
0.0985653
-0.00618895
0.0986469
-0.00940171
0.0988022
-0.0121743
0.099063
-0.0146037
0.0994609
-0.0167028
0.100022
-0.018444
0.100763
-0.019793
0.101688
-0.0207163
0.102787
-0.0212028
0.104034
-0.0212575
0.105393
-0.020917
0.106821
-0.0202319
0.108276
-0.019269
-0.0181644
0.109721
0.0939172
-0.00230672
0.0939132
-0.00618494
0.0939353
-0.00942379
0.094013
-0.0122519
0.0941816
-0.0147724
0.094477
-0.0169983
0.0949317
-0.0188987
0.0955705
-0.0204318
0.0964052
-0.021551
0.0974333
-0.0222309
0.0986345
-0.0224586
0.0999769
-0.0222595
0.101416
-0.0216705
0.102906
-0.0207595
-0.0196637
0.104405
0.08952
-0.0022907
0.0894802
-0.0061452
0.0894469
-0.00939045
0.0894512
-0.0122562
0.0895307
-0.0148518
0.0897247
-0.0171924
0.0900711
-0.019245
0.090602
-0.0209627
0.0913377
-0.0222867
0.0922845
-0.0231776
0.093429
-0.0236032
0.0947445
-0.0235751
0.096186
-0.023112
0.0977086
-0.0222821
-0.0212158
0.0992608
0.0853286
-0.00226274
0.0852565
-0.00607303
0.0851722
-0.00930618
0.0851079
-0.0121919
0.0851024
-0.0148464
0.0851975
-0.0172874
0.0854351
-0.0194827
0.0858542
-0.0213818
0.0864833
-0.0229158
0.0873383
-0.0240326
0.0884143
-0.0246792
0.0896916
-0.0248524
0.0911267
-0.0245471
0.0926761
-0.0238315
-0.0228181
0.0942783
0.0813336
-0.00222411
0.0812325
-0.00597186
0.081102
-0.00917577
0.0809746
-0.0120645
0.0808892
-0.014761
0.0808888
-0.017287
0.0810188
-0.0196127
0.0813236
-0.0216865
0.0818399
-0.0234321
0.0825933
-0.024786
0.0835887
-0.0256746
0.0848153
-0.0260789
0.0862331
-0.0259649
0.0878022
-0.0254006
-0.0244655
0.0894497
0.0775259
-0.00217608
0.0773991
-0.00584512
0.0772275
-0.00900415
0.0770427
-0.0118797
0.0768833
-0.0146015
0.0767923
-0.017196
0.0768172
-0.0196376
0.0770068
-0.0218762
0.0774055
-0.0238308
0.0780482
-0.0254288
0.0789511
-0.0265775
0.0801135
-0.0272413
0.0815019
-0.0273533
0.0830815
-0.0269803
-0.0261509
0.0847668
0.0738967
-0.00211989
0.0737477
-0.0056962
0.0735399
-0.00879631
0.0733039
-0.0116437
0.0730768
-0.0143745
0.0729011
-0.0170202
0.0728249
-0.0195614
0.0729004
-0.0219517
0.0731782
-0.0241086
0.0737025
-0.0259531
0.0745014
-0.0273764
0.0755853
-0.0283251
0.0769303
-0.0286983
0.0785086
-0.0285586
-0.0278636
0.0802213
0.0704377
-0.00205672
0.0702699
-0.0055284
0.0700308
-0.00855724
0.0697498
-0.0113627
0.0694621
-0.0140868
0.0692083
-0.0167664
0.0690365
-0.0193896
0.0690004
-0.0219156
0.0691561
-0.0242642
0.0695557
-0.0263528
0.0702395
-0.0280602
0.0712301
-0.0293157
0.0725166
-0.0299848
0.0740782
-0.0301202
-0.0295901
0.0758046
0.067141
-0.00198773
0.0669575
-0.00534492
0.0666921
-0.00829183
0.0663724
-0.011043
0.0660313
-0.0137457
0.0657068
-0.016442
0.0654459
-0.0191287
0.0653027
-0.0217724
0.0653367
-0.0242983
0.0656071
-0.0266232
0.066166
-0.028619
0.067048
-0.0301977
0.0682593
-0.0311961
0.0697851
-0.031646
-0.0313131
0.0715082
0.0639989
-0.00191399
0.0638028
-0.00514879
0.0635158
-0.00800481
0.0631637
-0.0106909
0.0627765
-0.0133585
0.0623895
-0.0160549
0.062047
-0.0187862
0.0618024
-0.0215277
0.0617172
-0.0242131
0.0618557
-0.0267617
0.0622809
-0.0290442
0.0630392
-0.030956
0.064157
-0.032314
0.0656237
-0.0331127
-0.0330139
0.0673245
0.0610044
-0.00183651
0.0607985
-0.0049429
0.0604944
-0.00770076
0.060116
-0.0103125
0.0596902
-0.0129327
0.0592488
-0.0156135
0.0588331
-0.0183706
0.0584942
-0.0211888
0.058294
-0.0240128
0.0583
-0.0267677
0.0585842
-0.0293284
0.0592042
-0.031576
0.0602083
-0.0333181
0.0615872
-0.0344916
-0.0346746
0.0632478
0.0581504
-0.00175624
0.0579374
-0.00472995
0.0576206
-0.00738397
0.0572218
-0.00991361
0.0567646
-0.0124755
0.0562772
-0.0151262
0.0557973
-0.0178906
0.0553724
-0.020764
0.0550631
-0.0237035
0.054938
-0.0266427
0.0550758
-0.0294661
0.0555442
-0.0320444
0.0564127
-0.0341867
0.057669
-0.0357479
-0.0362774
0.0592719
0.0554304
-0.00167408
0.0552129
-0.00451249
0.0548874
-0.00705852
0.0544737
-0.00949986
0.0539922
-0.011994
0.0534674
-0.0146013
0.0529323
-0.0173556
0.0524307
-0.0202623
0.0520196
-0.0232924
0.051767
-0.0263901
0.051755
-0.0294542
0.0520598
-0.0323491
0.0527698
-0.0348966
0.0538703
-0.0368484
-0.0377968
0.0553897
0.0528381
-0.0015909
0.0526185
-0.00429287
0.0522881
-0.00672817
0.0518647
-0.00907642
0.0513656
-0.0114949
0.0508113
-0.014047
0.0502304
-0.0167747
0.0496613
-0.0196932
0.0491566
-0.0227877
0.0487812
-0.0260147
0.0486173
-0.0292902
0.0487464
-0.0324783
0.0492685
-0.0354188
0.0502
-0.0377799
-0.0392054
0.0516085
0.0503674
0.0501479
0.049816
0.0493876
0.048877
0.0483008
0.0476827
0.0470554
0.0464655
0.0459724
0.0456554
0.0455973
0.0458913
0.0465782
0.0479841
0.219222
0.00147598
0.217816
0.00140603
0.216483
0.00133264
0.215226
0.00125647
0.214049
0.00117765
0.212953
0.00109628
0.21194
0.00101248
0.211014
0.000926373
0.210176
0.000838085
0.209428
0.000747749
0.208772
0.000655502
0.208211
0.000561484
0.207745
0.000465842
0.207376
0.000368723
0.207106
0.000270284
0.206935
0.000170678
0.206865
7.00707e-05
0.206897
-3.13812e-05
0.20703
-0.000133515
-0.000236154
0.207266
0.209115
0.00288839
0.207771
0.00275029
0.206498
0.00260555
0.205299
0.00245547
0.204176
0.00230029
0.203132
0.00214022
0.202169
0.00197549
0.201289
0.00180635
0.200494
0.00163304
0.199786
0.00145582
0.199167
0.00127494
0.198638
0.0010907
0.1982
0.000903352
0.197856
0.000713198
0.197605
0.000520535
0.19745
0.000325662
0.197392
0.000128891
0.19743
-6.94722e-05
0.197565
-0.000269104
-0.000469676
0.197799
0.199586
0.00423673
0.198303
0.00403253
0.19709
0.00381862
0.195949
0.00359699
0.194881
0.00336797
0.193889
0.00313191
0.192976
0.00288913
0.192142
0.00263998
0.19139
0.00238481
0.190722
0.00212401
0.190139
0.00185795
0.189643
0.00158704
0.189235
0.00131167
0.188915
0.00103228
0.188687
0.000749284
0.188549
0.000463124
0.188504
0.000174253
0.188551
-0.000116883
0.188692
-0.000409819
-0.000704074
0.188926
0.190572
0.0055212
0.189352
0.00525293
0.188199
0.00497202
0.187114
0.00468112
0.186102
0.00438073
0.185162
0.00407128
0.184298
0.0037532
0.183511
0.00342692
0.182803
0.00309292
0.182176
0.00275169
0.18163
0.00240371
0.181167
0.0020495
0.180789
0.00168959
0.180497
0.00132452
0.180292
0.000954848
0.180174
0.000581133
0.180144
0.000203961
0.180203
-0.000176093
0.180352
-0.000558424
-0.000942411
0.18059
0.182026
0.00674192
0.180868
0.00641166
0.179774
0.00606589
0.178747
0.00570799
0.177789
0.00533863
0.176902
0.00495834
0.176087
0.00456763
0.175347
0.00416703
0.174683
0.00375712
0.174096
0.00333847
0.173588
0.0029117
0.17316
0.00247742
0.172814
0.00203627
0.172549
0.00158891
0.172368
0.00113601
0.172271
0.00067826
0.172259
0.000216365
0.172332
-0.00024899
0.17249
-0.000717054
-0.00118709
0.172735
0.173902
0.00789892
0.172805
0.00750877
0.17177
0.00710027
0.170801
0.00667762
0.169898
0.00624167
0.169063
0.00579303
0.168298
0.0053323
0.167605
0.0048601
0.166985
0.00437709
0.16644
0.00388395
0.16597
0.00338139
0.165577
0.00287013
0.165263
0.00235091
0.165027
0.0018245
0.164871
0.00129167
0.164797
0.00075323
0.164803
0.000210004
0.164891
-0.000337229
0.165062
-0.000887574
-0.00144018
0.165315
0.16616
0.00899204
0.165125
0.00854412
0.16415
0.00807505
0.163238
0.00758991
0.16239
0.00708971
0.161608
0.00657519
0.160893
0.00604702
0.160247
0.00550588
0.159672
0.00495254
0.159168
0.00438775
0.158737
0.00381232
0.15838
0.00322707
0.158098
0.00263283
0.157892
0.00203047
0.157763
0.00142088
0.157711
0.00080495
0.157737
0.000183643
0.157842
-0.000442211
0.158026
-0.00107155
-0.00170343
0.15829
0.158767
0.0100209