/*--------------------------------*- C++ -*----------------------------------*\
  =========                 |
  \\      /  F ield         | OpenFOAM: The Open Source CFD Toolbox
   \\    /   O peration     | Website:  https://openfoam.org
    \\  /    A nd           | Version:  7
     \\/     M anipulation  |
\*---------------------------------------------------------------------------*/
FoamFile
{
    version     2.0;
    format      ascii;
    class       volVectorField;
    location    "5";
    object      U;
}
// * * * * * * * * * * * * * * * * * * * * * * * * * * * * * * * * * * * * * //

dimensions      [0 1 -1 0 0 0 0];

internalField   nonuniform List<vector> 
2125
(
(0.00624957 0.00540366 1.01149e-21)
(0.0353008 0.0129139 -2.94834e-21)
(0.0911235 0.0176851 -3.45821e-21)
(0.00624957 -0.00540369 -1.01149e-21)
(0.0353008 -0.0129139 2.94834e-21)
(0.0911235 -0.0176853 3.45821e-21)
(0.159203 -0.0202879 -3.47442e-21)
(0.233361 -0.0211948 3.23128e-21)
(0.308762 -0.0208805 1.71952e-21)
(0.381791 -0.0197807 -2.91726e-21)
(0.450296 -0.0182541 -3.58886e-21)
(0.513224 -0.0165677 5.63563e-22)
(0.570249 -0.0148846 -1.66354e-21)
(0.00707889 -0.016164 1.09934e-21)
(0.0372356 -0.0386377 -3.51807e-21)
(0.093696 -0.0529245 8.16551e-21)
(0.162084 -0.0607255 -7.51793e-21)
(0.23631 -0.0634517 -3.66441e-22)
(0.31162 -0.0625211 -5.60098e-21)
(0.384464 -0.0592363 9.66726e-21)
(0.452739 -0.0546705 1.39426e-20)
(0.51543 -0.049623 2.64032e-21)
(0.572226 -0.044583 -5.96425e-21)
(0.00872797 -0.0267838 -9.5572e-22)
(0.0410848 -0.0640505 -7.47299e-21)
(0.0988159 -0.0877715 -1.79477e-20)
(0.167819 -0.10075 1.62736e-20)
(0.242184 -0.105312 3.56999e-21)
(0.317316 -0.103802 3.34689e-21)
(0.389794 -0.0983759 -1.73759e-20)
(0.45761 -0.0908127 -1.08321e-20)
(0.51983 -0.0824394 -2.55968e-21)
(0.576171 -0.0740705 1.84269e-20)
(0.0111777 -0.037171 -3.4127e-21)
(0.0468077 -0.0889483 4.5175e-21)
(0.106433 -0.121968 3.27019e-20)
(0.176358 -0.140088 -3.05195e-21)
(0.250937 -0.146515 -9.25684e-21)
(0.325808 -0.144487 7.07154e-21)
(0.397745 -0.136991 5.17648e-22)
(0.464881 -0.1265 2.80859e-21)
(0.526403 -0.114859 -6.45858e-21)
(0.582068 -0.103208 -1.80193e-20)
(0.0143999 -0.0472361 -2.39169e-21)
(0.0543434 -0.113132 1.33507e-20)
(0.116474 -0.155263 -3.3014e-20)
(0.187626 -0.178475 1.5014e-20)
(0.262498 -0.186804 1.43304e-22)
(0.337036 -0.184342 -2.12172e-20)
(0.408268 -0.174877 9.92558e-21)
(0.474512 -0.161555 -1.02851e-21)
(0.535113 -0.146728 4.16217e-21)
(0.58989 -0.131859 -1.32849e-21)
(0.0183572 -0.0568929 -2.70153e-20)
(0.063612 -0.136409 -3.3876e-20)
(0.128841 -0.187412 9.03568e-21)
(0.201521 -0.215651 -1.71841e-20)
(0.276775 -0.22593 -5.15547e-21)
(0.35092 -0.223141 8.05138e-21)
(0.421294 -0.211834 3.13481e-21)
(0.486447 -0.195805 1.25894e-20)
(0.545917 -0.177895 -2.82645e-21)
(0.599605 -0.15989 1.6207e-20)
(0.0230037 -0.0660597 2.58597e-20)
(0.0745148 -0.158597 1.73084e-20)
(0.143411 -0.218181 -1.38511e-20)
(0.217921 -0.251366 2.39771e-20)
(0.293653 -0.263651 -2.2244e-21)
(0.367358 -0.260664 -2.87945e-20)
(0.436739 -0.247669 5.30034e-21)
(0.500617 -0.229082 -3.43729e-20)
(0.55876 -0.208215 1.27162e-21)
(0.611171 -0.187172 1.37871e-20)
(0.0282856 -0.07466 -1.98378e-20)
(0.0869355 -0.179521 3.71266e-20)
(0.160043 -0.247347 1.46467e-20)
(0.236678 -0.285384 -1.88131e-20)
(0.312994 -0.299737 7.83024e-23)
(0.38623 -0.2967 5.31465e-20)
(0.454503 -0.282195 2.63703e-21)
(0.51694 -0.261225 2.64269e-20)
(0.573574 -0.237549 3.3953e-20)
(0.624537 -0.21358 -1.99755e-20)
(0.0341414 -0.0826231 1.13597e-20)
(0.100741 -0.199023 -5.44273e-21)
(0.178571 -0.274702 -1.36851e-20)
(0.257622 -0.317479 1.0743e-20)
(0.33464 -0.333969 4.25012e-20)
(0.407399 -0.331047 -1.56663e-20)
(0.474468 -0.315236 -2.68518e-21)
(0.53532 -0.292081 -3.83289e-20)
(0.590282 -0.265766 -5.00652e-20)
(0.639647 -0.238999 2.29212e-20)
(0.040503 -0.0898852 -1.58051e-20)
(0.115783 -0.216953 -1.45355e-20)
(0.198811 -0.300055 2.2728e-21)
(0.280565 -0.347442 -5.63857e-20)
(0.358415 -0.36614 -2.48352e-20)
(0.430708 -0.363517 -1.91156e-20)
(0.496504 -0.346623 -2.66876e-20)
(0.555649 -0.321507 1.29296e-20)
(0.608798 -0.292742 1.64554e-20)
(0.656434 -0.263319 2.59891e-20)
(0.047296 -0.0963901 2.34041e-21)
(0.1319 -0.233181 2.0862e-20)
(0.220563 -0.323231 1.53902e-20)
(0.305296 -0.375082 2.63964e-20)
(0.384121 -0.396061 2.15512e-20)
(0.455982 -0.393933 -2.17209e-20)
(0.520461 -0.376202 2.13755e-20)
(0.577805 -0.349369 1.5505e-20)
(0.629021 -0.318366 -1.92362e-21)
(0.674825 -0.286441 -7.6432e-21)
(0.054441 -0.102089 3.76073e-20)
(0.148916 -0.24759 -1.90407e-20)
(0.243608 -0.344074 -1.41647e-20)
(0.331587 -0.400226 -8.68018e-21)
(0.411543 -0.423557 1.65081e-20)
(0.483032 -0.422132 1.55591e-20)
(0.546178 -0.403828 -2.29304e-20)
(0.601654 -0.375545 1.86708e-20)
(0.650843 -0.342536 9.22826e-22)
(0.694736 -0.308277 1.93557e-20)
(0.0618538 -0.106944 -2.82356e-20)
(0.166647 -0.260084 -1.09856e-20)
(0.267712 -0.362449 -1.06057e-21)
(0.359196 -0.422718 1.61202e-20)
(0.440449 -0.448473 -2.64361e-21)
(0.511649 -0.447966 -1.73326e-20)
(0.573477 -0.429369 5.1108e-21)
(0.627046 -0.399924 5.90821e-21)
(0.674141 -0.365162 1.46378e-20)
(0.716073 -0.32875 -2.96291e-20)
(0.0694473 -0.110922 -1.45393e-20)
(0.184898 -0.270582 2.82435e-20)
(0.292631 -0.378244 2.09955e-20)
(0.387863 -0.442428 -9.84729e-21)
(0.470594 -0.470668 -2.13201e-20)
(0.541614 -0.471304 -1.6681e-20)
(0.602167 -0.452708 1.98976e-20)
(0.653823 -0.422406 -4.16863e-20)
(0.69878 -0.386168 1.1486e-20)
(0.738732 -0.347801 3.2032e-20)
(0.0771316 -0.114002 2.49408e-20)
(0.203469 -0.279026 -1.56594e-20)
(0.318109 -0.391369 4.61534e-21)
(0.417319 -0.459245 -2.93212e-22)
(0.501717 -0.490025 -5.98033e-21)
(0.572691 -0.492027 2.74253e-20)
(0.632045 -0.473738 -2.55186e-20)
(0.681808 -0.442904 2.59737e-20)
(0.724612 -0.40549 -4.20142e-20)
(0.762592 -0.365387 -1.6301e-20)
(0.0848157 -0.116174 -2.91777e-21)
(0.222155 -0.285377 -2.26208e-20)
(0.343884 -0.401757 3.73217e-21)
(0.447281 -0.473081 -5.81889e-21)
(0.533547 -0.506445 -4.6659e-21)
(0.604635 -0.510036 8.28304e-22)
(0.662894 -0.492365 -1.7332e-20)
(0.710817 -0.46134 -1.11053e-21)
(0.751474 -0.423074 2.57487e-20)
(0.78752 -0.381483 -3.42256e-20)
(0.0924083 -0.117435 1.04011e-20)
(0.240747 -0.289615 1.88296e-20)
(0.369688 -0.409367 -1.70999e-20)
(0.477464 -0.483874 -7.12142e-21)
(0.565804 -0.519849 4.42276e-20)
(0.63719 -0.525244 -3.73349e-20)
(0.69449 -0.508505 3.82098e-20)
(0.740657 -0.47764 5.65701e-22)
(0.77919 -0.438877 8.63869e-21)
(0.813369 -0.396081 3.15481e-20)
(0.0998191 -0.117793 -5.57866e-21)
(0.25904 -0.291744 -9.57594e-22)
(0.395251 -0.414184 4.37646e-21)
(0.507575 -0.491586 2.06017e-21)
(0.598205 -0.53018 -7.89389e-22)
(0.670095 -0.537582 1.40056e-20)
(0.726607 -0.522085 -7.77156e-21)
(0.771131 -0.491733 9.89644e-21)
(0.807571 -0.452838 -3.54474e-21)
(0.839969 -0.40916 -1.94003e-21)
(0.10696 -0.117266 1.04392e-20)
(0.276827 -0.291787 -1.61531e-21)
(0.420304 -0.416217 1.87645e-22)
(0.537319 -0.496205 8.2995e-22)
(0.630459 -0.537404 -1.16628e-20)
(0.70309 -0.546998 3.10633e-20)
(0.759018 -0.533036 -2.53547e-20)
(0.802055 -0.503519 1.95447e-20)
(0.836393 -0.464795 -1.76224e-20)
(0.866974 -0.420575 -2.22679e-20)
(0.113746 -0.115882 -5.01263e-22)
(0.293909 -0.289791 -5.7234e-21)
(0.444581 -0.415502 6.13198e-21)
(0.566403 -0.497745 2.06165e-21)
(0.662278 -0.541511 -3.91996e-21)
(0.735915 -0.55346 -2.47786e-20)
(0.79152 -0.541299 6.71e-21)
(0.833334 -0.512868 -4.97209e-21)
(0.865632 -0.474467 1.89279e-20)
(0.89401 -0.430121 -7.05829e-21)
(0.120096 -0.113678 1.43099e-22)
(0.310093 -0.285821 -7.97423e-22)
(0.467823 -0.412104 8.22329e-22)
(0.594538 -0.496249 -2.51608e-21)
(0.693374 -0.542519 5.17649e-21)
(0.768314 -0.556965 3.44105e-21)
(0.823934 -0.546861 9.81516e-21)
(0.865039 -0.519752 -1.45191e-20)
(0.89635 -0.482133 -1.63499e-20)
(0.92512 -0.44014 9.43034e-21)
(0.125935 -0.1107 -1.55286e-21)
(0.325196 -0.279965 -8.63101e-22)
(0.489776 -0.406108 4.1743e-22)
(0.621436 -0.491786 -1.32039e-21)
(0.723455 -0.540474 -9.01764e-22)
(0.800013 -0.557547 -2.75207e-21)
(0.855999 -0.549781 -9.06169e-21)
(0.896761 -0.524422 9.28486e-21)
(0.927557 -0.488303 -9.17006e-21)
(0.954745 -0.448754 -4.66474e-22)
(0.131194 -0.107 -3.60717e-21)
(0.339045 -0.272327 -3.45914e-21)
(0.510201 -0.39763 2.7336e-21)
(0.646817 -0.484454 -6.5456e-22)
(0.752227 -0.535447 -2.84107e-21)
(0.83072 -0.555254 3.16965e-21)
(0.887412 -0.5501 -2.82575e-21)
(0.928061 -0.526904 -4.06256e-21)
(0.95831 -0.492692 1.99516e-20)
(0.983234 -0.455485 1.2096e-20)
(0.135813 -0.102642 5.79611e-22)
(0.35148 -0.263029 -2.23457e-21)
(0.52887 -0.386804 -4.89163e-21)
(0.67041 -0.474371 6.69288e-22)
(0.779397 -0.527529 -1.02791e-21)
(0.860133 -0.550146 -2.89113e-22)
(0.917865 -0.54784 1.53028e-21)
(0.958595 -0.527146 3.34092e-21)
(0.988188 -0.495073 -3.95137e-21)
(1.01082 -0.459924 1.04895e-21)
(0.139744 -0.0976953 3.9343e-21)
(0.362357 -0.252208 1.31295e-20)
(0.545571 -0.373788 -1.71796e-21)
(0.691957 -0.461682 -1.05779e-21)
(0.80468 -0.516831 -1.60525e-21)
(0.887958 -0.542296 -2.13102e-21)
(0.94706 -0.543028 -1.87034e-22)
(0.988097 -0.525116 2.17424e-21)
(1.01703 -0.49539 -2.91125e-21)
(1.03757 -0.462189 -4.3662e-21)
(0.142938 -0.0922203 -3.76259e-21)
(0.37156 -0.240015 -1.53317e-21)
(0.560111 -0.358764 1.30917e-20)
(0.711216 -0.446554 6.27043e-22)
(0.827804 -0.503486 -7.60016e-21)
(0.91391 -0.531791 1.10507e-20)
(0.974716 -0.535711 2.74463e-21)
(1.01633 -0.520817 1.54526e-21)
(1.04473 -0.493641 5.90684e-22)
(1.06344 -0.462409 1.64046e-21)
(0.145349 -0.086301 1.12667e-20)
(0.378983 -0.226627 -2.06824e-21)
(0.572326 -0.341923 -9.85241e-21)
(0.727966 -0.42917 9.45436e-22)
(0.848514 -0.487646 8.14302e-21)
(0.937716 -0.518742 -2.49685e-21)
(1.00057 -0.525949 -3.66619e-21)
(1.04307 -0.514268 6.22424e-22)
(1.07117 -0.489837 -1.99247e-21)
(1.08838 -0.460666 -4.9798e-22)
(0.14696 -0.0800245 -3.68652e-21)
(0.384535 -0.212215 -2.99117e-20)
(0.582071 -0.323479 2.71272e-21)
(0.742008 -0.409739 1.42941e-20)
(0.86657 -0.469484 -5.53287e-22)
(0.959122 -0.503275 -2.12516e-20)
(1.02436 -0.513825 1.25072e-20)
(1.0681 -0.505512 -3.61785e-21)
(1.09623 -0.484006 4.28433e-21)
(1.11231 -0.457036 1.10431e-21)
(0.147759 -0.0734731 -5.48749e-21)
(0.388157 -0.196964 1.00313e-20)
(0.589228 -0.303657 1.60295e-20)
(0.753173 -0.388484 -1.06347e-20)
(0.881756 -0.449193 3.35182e-21)
(0.977886 -0.485537 1.30649e-20)
(1.04587 -0.499436 6.44268e-21)
(1.09124 -0.494608 2.20565e-21)
(1.11976 -0.476192 -4.04002e-21)
(1.13513 -0.451588 -3.49195e-21)
(0.14774 -0.0667302 -8.12503e-21)
(0.389811 -0.181064 -4.03532e-21)
(0.59371 -0.282696 -3.11959e-20)
(0.761317 -0.365645 -5.13285e-21)
(0.893885 -0.426984 5.90178e-22)
(0.993786 -0.465692 2.04428e-21)
(1.06486 -0.4829 -2.61672e-20)
(1.11226 -0.481635 -1.2273e-20)
(1.14161 -0.466451 3.52564e-22)
(1.15671 -0.444392 3.16626e-21)
(0.146911 -0.0598799 -2.48083e-21)
(0.389487 -0.164709 1.03561e-20)
(0.595462 -0.260842 1.57891e-20)
(0.76633 -0.341476 1.02821e-20)
(0.902792 -0.403086 -2.44505e-21)
(1.00663 -0.443926 -2.68746e-21)
(1.08112 -0.464351 2.12127e-20)
(1.13099 -0.466683 2.14559e-20)
(1.16162 -0.454848 3.0149e-21)
(1.17692 -0.435533 -2.73638e-21)
(0.145288 -0.0530053 2.31087e-20)
(0.387196 -0.148094 1.5618e-20)
(0.594459 -0.238346 -1.68604e-20)
(0.768133 -0.316244 -3.47463e-21)
(0.908344 -0.377744 2.13392e-21)
(1.01623 -0.420441 -6.86982e-21)
(1.09445 -0.443942 -1.27262e-20)
(1.14722 -0.449859 -6.72971e-22)
(1.17963 -0.441479 -1.3718e-20)
(1.19572 -0.425112 6.04378e-21)
(0.1429 -0.0461869 3.50178e-21)
(0.382975 -0.13141 -8.905e-21)
(0.590709 -0.215462 2.2339e-20)
(0.766682 -0.290219 1.47439e-20)
(0.910437 -0.351214 9.78732e-22)
(1.02244 -0.395454 9.86942e-21)
(1.10468 -0.421842 9.70037e-22)
(1.16077 -0.431294 -9.96458e-21)
(1.19546 -0.426473 7.79984e-21)
(1.2129 -0.413045 1.02382e-21)
(0.139784 -0.0395015 -2.03588e-20)
(0.376885 -0.114845 -6.51423e-21)
(0.584252 -0.192442 -5.94579e-21)
(0.76197 -0.263682 -1.06636e-20)
(0.909003 -0.323766 3.07811e-21)
(1.02513 -0.369199 -1.79574e-23)
(1.11162 -0.398236 8.12738e-21)
(1.17146 -0.411119 -2.26548e-21)
(1.20892 -0.409878 -9.10919e-21)
(1.22813 -0.399469 -7.34098e-21)
(0.135987 -0.0330207 1.72379e-21)
(0.369007 -0.0985779 1.08863e-20)
(0.575162 -0.169534 5.6105e-21)
(0.754027 -0.23691 -1.76899e-20)
(0.904009 -0.295676 -5.76113e-22)
(1.0242 -0.341922 -8.12827e-21)
(1.11515 -0.373324 1.54336e-22)
(1.17911 -0.389479 3.14045e-21)
(1.21985 -0.391786 -3.74651e-21)
(1.24132 -0.384486 1.10469e-20)
(0.131562 -0.0268103 4.18676e-21)
(0.359448 -0.0827775 -1.08594e-20)
(0.563541 -0.146977 -2.6686e-20)
(0.742916 -0.210182 2.54978e-20)
(0.895457 -0.267225 -1.90352e-21)
(1.01959 -0.31388 5.70119e-21)
(1.11512 -0.347317 -8.74835e-22)
(1.18356 -0.366537 5.67781e-21)
(1.22806 -0.372318 -4.83356e-22)
(1.25235 -0.368171 -8.63263e-21)
(0.12657 -0.0209292 -8.56595e-21)
(0.34833 -0.0676001 1.43302e-20)
(0.549523 -0.125 1.22166e-20)
(0.72874 -0.183769 -1.85143e-20)
(0.883389 -0.238697 -3.3186e-21)
(1.01127 -0.285337 1.20397e-21)
(1.11144 -0.320442 1.36776e-20)
(1.18465 -0.342471 5.4238e-22)
(1.23339 -0.351601 2.80955e-21)
(1.26102 -0.350606 -5.75211e-21)
(0.12108 -0.0154285 6.50331e-21)
(0.335795 -0.0531872 -6.32097e-21)
(0.533268 -0.103816 -5.68464e-21)
(0.711634 -0.157932 1.02043e-20)
(0.867884 -0.210373 3.65218e-21)
(0.999245 -0.256567 3.00226e-21)
(1.10404 -0.292937 -1.43849e-20)
(1.18225 -0.317468 -5.37627e-21)
(1.23565 -0.329775 -4.69861e-21)
(1.26716 -0.331875 1.8822e-21)
(0.115161 -0.0103513 -3.28576e-21)
(0.321997 -0.0396633 -7.58099e-23)
(0.514962 -0.0836201 1.07771e-20)
(0.691769 -0.132921 -4.12265e-21)
(0.849059 -0.18253 -2.01294e-21)
(0.983545 -0.227844 -1.39734e-21)
(1.09288 -0.265048 3.68693e-21)
(1.17625 -0.291729 6.52367e-21)
(1.23469 -0.306987 -3.44916e-22)
(1.27058 -0.312072 2.57251e-21)
(0.108887 -0.00573202 2.31569e-21)
(0.307103 -0.0271351 -7.10416e-22)
(0.49481 -0.0645881 -1.9389e-21)
(0.669346 -0.108966 -1.86787e-21)
(0.827069 -0.155435 1.82649e-21)
(0.964257 -0.199441 1.55656e-21)
(1.07794 -0.237031 -1.50783e-21)
(1.16655 -0.265469 5.7633e-22)
(1.23035 -0.283399 8.5411e-22)
(1.27109 -0.2913 -1.15836e-21)
(0.102336 -0.00159632 1.25968e-21)
(0.291288 -0.0156898 3.91624e-22)
(0.473037 -0.0468726 -2.45008e-21)
(0.644592 -0.0862811 -2.12935e-21)
(0.802106 -0.12934 2.42231e-21)
(0.9415 -0.171631 5.23945e-22)
(1.05925 -0.209145 -1.37307e-21)
(1.1531 -0.238911 1.3546e-21)
(1.22249 -0.259186 8.19829e-22)
(1.26851 -0.269674 -9.94476e-22)
(0.0955813 0.00203878 -4.92642e-22)
(0.274733 -0.00539477 1.07908e-21)
(0.449883 -0.030602 7.57998e-21)
(0.617763 -0.0650536 -3.77411e-21)
(0.774395 -0.104484 -1.9906e-21)
(0.915435 -0.144677 -2.53541e-21)
(1.0369 -0.181652 5.6691e-21)
(1.13586 -0.212291 4.35429e-21)
(1.21101 -0.234535 3.65384e-21)
(1.26267 -0.247321 2.05457e-21)
(0.0886993 0.00516483 1.00879e-20)
(0.257621 0.0037026 -5.99332e-21)
(0.425595 -0.0158793 -7.25766e-21)
(0.589132 -0.0454473 1.08299e-20)
(0.744194 -0.081084 6.48572e-21)
(0.886262 -0.118831 -5.15271e-22)
(1.01098 -0.154817 -1.01161e-20)
(1.11485 -0.185853 -7.6079e-21)
(1.19582 -0.20965 -9.01068e-21)
(1.25342 -0.224383 5.92945e-21)
(0.0817623 0.00778148 -1.36549e-20)
(0.240133 0.0115748 1.39078e-20)
(0.40043 -0.00278089 1.72792e-20)
(0.558991 -0.0275979 -1.88584e-20)
(0.711788 -0.059333 -7.243e-21)
(0.854218 -0.0943313 5.50471e-21)
(0.981655 -0.128896 1.08908e-20)
(1.09012 -0.159848 2.10297e-21)
(1.17687 -0.184749 -6.51977e-22)
(1.24062 -0.201022 -8.67741e-21)
(0.0748393 0.00989601 -2.00012e-21)
(0.222448 0.0182138 -1.97201e-20)
(0.374642 0.00864321 -2.27073e-20)
(0.52764 -0.011612 2.87882e-20)
(0.677487 -0.0393981 -3.64839e-21)
(0.819579 -0.0713973 8.33902e-21)
(0.949123 -0.104142 2.01657e-21)
(1.06175 -0.134532 -5.32006e-21)
(1.15414 -0.160062 3.09254e-21)
(1.22415 -0.177418 -1.4421e-21)
(0.0679951 0.0115226 4.03749e-21)
(0.204738 0.0236295 1.23004e-20)
(0.348487 0.0183693 7.4762e-21)
(0.49539 0.00243397 -6.22506e-21)
(0.641618 -0.0214174 -1.19238e-20)
(0.782648 -0.050225 -1.27427e-20)
(0.913625 -0.0807925 -3.0542e-21)
(1.02991 -0.110162 1.01086e-20)
(1.12767 -0.135837 -2.29281e-21)
(1.20394 -0.153773 5.31141e-21)
(0.061289 0.0126816 -1.55737e-20)
(0.187164 0.0278492 -1.5737e-20)
(0.322211 0.0263995 -2.93173e-21)
(0.462548 0.0144946 -3.42643e-21)
(0.604522 -0.00549728 -9.65277e-21)
(0.74376 -0.0309843 6.89241e-21)
(0.875443 -0.0590717 -1.06889e-21)
(0.994772 -0.0869924 -8.7315e-21)
(1.09753 -0.112328 8.48103e-21)
(1.17994 -0.130314 -1.64617e-20)
(0.0547748 0.0133988 3.43593e-21)
(0.169879 0.0309158 1.36169e-20)
(0.29605 0.0327601 1.33528e-20)
(0.429422 0.0245552 1.6392e-20)
(0.566547 0.00828885 -3.81254e-22)
(0.70327 -0.013815 2.08242e-20)
(0.834894 -0.0391813 2.58814e-21)
(0.956581 -0.0652702 -3.41635e-20)
(1.06385 -0.0898014 2.78941e-20)
(1.15217 -0.107294 1.0379e-20)
(0.0484996 0.0137042 1.02859e-20)
(0.15302 0.0328861 2.53978e-20)
(0.270229 0.0375007 -3.46023e-21)
(0.396306 0.0326317 -2.12326e-20)
(0.528043 0.0199021 1.08563e-20)
(0.661546 0.00117627 -1.36299e-20)
(0.792328 -0.0212975 -2.37948e-20)
(0.915621 -0.0452311 -4.95099e-21)
(1.02683 -0.0685277 -2.66369e-20)
(0.0425042 0.0136318 5.16397e-21)
(0.136712 0.0338291 4.8495e-21)
(0.244954 0.0406923 3.75992e-20)
(0.363485 0.0387695 8.80157e-21)
(0.489353 0.029339 -9.21082e-21)
(0.618967 0.0139193 -5.13177e-21)
(0.748117 -0.00556587 4.05988e-20)
(0.872216 -0.0270924 3.94146e-20)
(0.0368229 0.0132181 1.20696e-21)
(0.121064 0.0338246 -2.69356e-20)
(0.220412 0.0424256 -4.52623e-20)
(0.331223 0.043043 2.77938e-21)
(0.450809 0.0366318 1.39815e-20)
(0.575909 0.024383 -2.17867e-20)
(0.702649 0.00790419 -6.6009e-20)
(0.0314832 0.012502 -9.49808e-21)
(0.10617 0.0329614 2.77253e-20)
(0.19677 0.0428092 2.85399e-20)
(0.299763 0.0455536 -3.33399e-20)
(0.412725 0.0418488 4.9786e-21)
(0.026507 0.0115238 -2.30964e-20)
(0.0921082 0.0313356 -4.28611e-20)
(0.174175 0.0419671 -9.56783e-21)
(0.269324 0.0464283 1.85397e-20)
(0.0219102 0.010325 1.74569e-20)
(0.0789423 0.0290494 2.17259e-22)
(0.15275 0.0400375 -4.75074e-21)
(0.0177037 0.00894764 -5.80737e-21)
(0.0667208 0.0262093 -1.08172e-20)
(0.0138936 0.00743408 3.99472e-20)
(0.0554785 0.022925 3.3612e-20)
(0.0104817 0.00582654 7.69187e-21)
(0.999873 -0.00367306 -1.69221e-22)
(0.996808 -0.0109766 7.57993e-22)
(0.99105 -0.0190598 3.7265e-22)
(0.983236 -0.0284884 1.7283e-22)
(0.973452 -0.0399926 3.58232e-22)
(0.962037 -0.0541943 -1.54284e-21)
(0.949238 -0.0718083 -2.09288e-21)
(0.935602 -0.0935955 6.80595e-22)
(0.921698 -0.120345 2.17662e-21)
(0.90867 -0.152783 2.60693e-21)
(0.89749 -0.191528 4.51966e-21)
(0.890446 -0.236597 -1.01281e-21)
(0.888025 -0.287924 -6.53497e-21)
(0.894645 -0.342033 -1.77155e-21)
(0.900784 -0.398047 4.70193e-21)
(0.999869 -0.00349242 -9.51983e-22)
(0.996735 -0.0104487 3.56197e-22)
(0.990837 -0.0181526 -5.98265e-22)
(0.982807 -0.0271369 1.63103e-21)
(0.972701 -0.0380946 -1.46072e-21)
(0.96082 -0.0516189 1.75163e-22)
(0.947356 -0.0683984 2.18028e-21)
(0.932784 -0.089172 -3.45985e-21)
(0.917583 -0.114734 1.56749e-21)
(0.902794 -0.145829 -5.77838e-21)
(0.889291 -0.183198 6.61889e-21)
(0.879221 -0.226969 -6.94967e-21)
(0.873136 -0.27749 -1.0575e-21)
(0.87446 -0.331174 8.27545e-21)
(0.876688 -0.386551 -1.92597e-21)
(0.999866 -0.00330678 1.26487e-21)
(0.996675 -0.00990334 8.76526e-22)
(0.990653 -0.0172114 1.0685e-21)
(0.982432 -0.0257316 -7.96531e-22)
(0.972036 -0.036118 -8.31566e-22)
(0.959737 -0.0489344 3.09971e-21)
(0.945671 -0.06484 -1.70688e-21)
(0.930248 -0.0845482 4.78503e-21)
(0.913858 -0.108852 -2.95721e-21)
(0.897431 -0.138506 -1.45419e-21)
(0.881724 -0.174352 -2.03739e-21)
(0.868709 -0.216621 1.71403e-21)
(0.858937 -0.265965 4.84635e-21)
(0.855156 -0.318934 -1.36863e-20)
(0.852879 -0.373475 1.52228e-20)
(0.999865 -0.00312085 1.81787e-22)
(0.996625 -0.00935755 -1.45532e-21)
(0.990494 -0.0162719 -2.7338e-21)
(0.9821 -0.0243329 4.79517e-22)
(0.971444 -0.0341578 -9.27346e-23)
(0.958766 -0.0462817 8.80595e-22)
(0.944154 -0.0613356 2.67293e-21)
(0.927955 -0.0800065 -1.80879e-21)
(0.910469 -0.103082 2.33075e-21)
(0.892516 -0.131318 -4.69969e-21)
(0.874726 -0.165635 3.16637e-21)
(0.858874 -0.206344 2.14682e-21)
(0.845482 -0.2543 5.26908e-21)
(0.836788 -0.306349 -9.11376e-21)
(0.829729 -0.359929 2.33026e-22)
(0.999865 -0.0029341 -1.60207e-21)
(0.996584 -0.0088082 -3.81143e-22)
(0.990355 -0.0153266 -3.77317e-22)
(0.981807 -0.022926 2.11681e-21)
(0.970915 -0.0321871 3.71111e-23)
(0.957894 -0.043616 -3.33581e-22)
(0.942785 -0.0578146 -1.89177e-21)
(0.925875 -0.0754408 -1.59666e-22)
(0.907379 -0.0972721 5.96229e-21)
(0.888005 -0.124056 -6.94637e-21)
(0.868255 -0.156769 2.21927e-21)
(0.849692 -0.195791 3.39341e-21)
(0.832801 -0.242119 1.11115e-21)
(0.8194 -0.292976 -5.03914e-21)
(0.807452 -0.345381 8.54629e-23)
(0.999866 -0.0027463 2.9619e-22)
(0.996549 -0.00825451 2.63373e-22)
(0.990234 -0.0143716 9.07875e-22)
(0.981547 -0.0215032 -1.17911e-21)
(0.970442 -0.0301931 3.36578e-22)
(0.95711 -0.0409174 -9.19894e-22)
(0.941549 -0.0542471 4.91148e-22)
(0.923989 -0.0708087 -2.09478e-21)
(0.904564 -0.0913631 4.04179e-21)
(0.88387 -0.116642 -9.3696e-23)
(0.862285 -0.147658 -7.29003e-21)
(0.841151 -0.184853 4.67813e-22)
(0.820905 -0.22931 7.77071e-21)
(0.80302 -0.278674 2.10296e-22)
(0.786163 -0.329677 -8.98527e-21)
(0.999867 -0.00255769 2.57338e-22)
(0.99652 -0.00769765 -1.50264e-21)
(0.990128 -0.0134079 -1.13809e-21)
(0.981316 -0.0200664 1.35297e-21)
(0.97002 -0.0281788 -9.6907e-22)
(0.956407 -0.0381905 7.83943e-22)
(0.940435 -0.0506405 -4.12496e-22)
(0.92228 -0.0661212 -4.61204e-22)
(0.902003 -0.0853711 3.09176e-21)
(0.880086 -0.1091 -6.1812e-21)
(0.856791 -0.138336 4.9548e-21)
(0.833236 -0.173571 6.89623e-21)
(0.8098 -0.215937 -8.5364e-21)
(0.787662 -0.263495 -1.58788e-21)
(0.76596 -0.312835 -7.55144e-21)
(0.999869 -0.00236857 -1.42484e-22)
(0.996495 -0.0071375 9.44645e-22)
(0.990035 -0.0124373 -1.0435e-21)
(0.981112 -0.0186184 2.41673e-21)
(0.969644 -0.0261481 -2.61473e-21)
(0.955777 -0.035441 -2.64977e-21)
(0.939432 -0.0470028 -6.6701e-22)
(0.920735 -0.0613893 3.12194e-22)
(0.899676 -0.0793111 -2.41903e-21)
(0.876631 -0.10145 2.75653e-21)
(0.85175 -0.128829 2.93495e-21)
(0.825933 -0.161982 -1.04108e-21)
(0.799487 -0.202051 -3.55952e-21)
(0.77334 -0.247491 7.43178e-21)
(0.746925 -0.29487 -7.05355e-21)
(0.99987 -0.00217911 -6.21379e-22)
(0.996474 -0.00657426 5.84337e-21)
(0.989954 -0.0114607 1.38557e-22)
(0.980932 -0.0171604 1.2047e-21)
(0.969309 -0.0241032 -2.12644e-22)
(0.955213 -0.0326719 3.58375e-21)
(0.938531 -0.0433375 5.55361e-22)
(0.919341 -0.0566177 5.16025e-23)
(0.89757 -0.0731894 -3.79424e-21)
(0.873488 -0.0937011 -6.80021e-22)
(0.847145 -0.11915 3.28191e-21)
(0.81923 -0.150104 -4.7268e-21)
(0.789965 -0.187685 -3.51084e-21)
(0.760065 -0.230701 4.18592e-21)
(0.729129 -0.275805 -3.54889e-21)
(0.999872 -0.00198945 1.55242e-21)
(0.996457 -0.00600864 -3.28452e-21)
(0.989884 -0.0104763 1.76513e-21)
(0.980773 -0.0156937 -2.50022e-21)
(0.969012 -0.0220456 -9.25842e-22)
(0.954709 -0.0298851 5.15839e-22)
(0.937724 -0.0396474 -1.87684e-21)
(0.918088 -0.0518101 3.30524e-21)
(0.895671 -0.0670108 1.78636e-21)
(0.870643 -0.0858596 -1.01593e-21)
(0.84296 -0.109314 3.0863e-21)
(0.813116 -0.137958 -5.77798e-21)
(0.781233 -0.172874 9.95078e-21)
(0.747846 -0.213175 -6.91201e-21)
(0.712629 -0.255681 -3.44791e-21)
(0.999874 -0.00179971 -1.10361e-21)
(0.996443 -0.00544113 1.48421e-22)
(0.989823 -0.00948086 1.11834e-23)
(0.980634 -0.0142192 2.31444e-21)
(0.96875 -0.0199769 5.79457e-22)
(0.954263 -0.0270827 -1.06553e-21)
(0.937006 -0.035935 1.22294e-21)
(0.916969 -0.04697 -2.40951e-21)
(0.893969 -0.0607807 9.95837e-22)
(0.868084 -0.0779341 6.43113e-22)
(0.839184 -0.0993334 -3.03951e-21)
(0.807581 -0.125565 2.28772e-21)
(0.773292 -0.157655 5.89431e-21)
(0.736693 -0.194969 -2.92242e-21)
(0.697476 -0.234555 -7.67288e-21)
(0.999877 -0.00160995 -1.25475e-21)
(0.996431 -0.00487196 -2.63477e-22)
(0.989769 -0.00849137 -1.14806e-21)
(0.980511 -0.0127385 -3.37655e-21)
(0.96852 -0.0178984 1.63692e-21)
(0.95387 -0.0242665 -1.56703e-21)
(0.936372 -0.032203 2.10787e-21)
(0.915977 -0.042101 3.10648e-21)
(0.892456 -0.0545044 -2.01619e-21)
(0.865802 -0.069933 4.12782e-21)
(0.835806 -0.0892229 -2.22256e-21)
(0.802617 -0.112949 -3.34986e-21)
(0.766141 -0.142065 -2.08096e-21)
(0.726616 -0.176141 8.50046e-21)
(0.683715 -0.212496 -2.79157e-21)
(0.999879 -0.00142025 1.30449e-21)
(0.996421 -0.00430152 6.27062e-22)
(0.989724 -0.00750771 -9.17973e-23)
(0.980405 -0.0112521 1.35621e-21)
(0.968319 -0.0158114 -2.1811e-21)
(0.953527 -0.0214384 -5.40209e-22)
(0.935816 -0.0284537 -4.62099e-23)
(0.915105 -0.0372066 -1.0503e-21)
(0.891125 -0.0481872 -3.08719e-21)
(0.863789 -0.0618643 -1.56392e-21)
(0.832818 -0.0789967 5.81961e-21)
(0.798217 -0.100132 -8.99748e-22)
(0.759781 -0.126142 -9.13114e-22)
(0.717625 -0.156753 -7.39136e-22)
(0.671383 -0.189583 -3.51148e-21)
(0.99988 -0.00123063 7.8911e-22)
(0.996413 -0.00372999 -1.44742e-21)
(0.989685 -0.0065139 6.1992e-22)
(0.980315 -0.00976079 -1.66156e-21)
(0.968147 -0.0137173 -1.03423e-22)
(0.953231 -0.0186 9.29267e-23)
(0.935337 -0.0246895 1.32566e-22)
(0.914351 -0.0322899 1.98538e-22)
(0.88997 -0.0418341 -1.42044e-21)
(0.862039 -0.053736 1.84884e-21)
(0.830215 -0.0686688 -3.00312e-21)
(0.794376 -0.087139 6.67612e-22)
(0.754212 -0.109924 2.00939e-21)
(0.709731 -0.136867 -1.33419e-22)
(0.660516 -0.165901 2.38692e-21)
(0.999882 -0.0010411 -7.67876e-22)
(0.996406 -0.00315752 1.75636e-21)
(0.989653 -0.00551533 -1.11256e-21)
(0.98024 -0.00826545 1.35738e-21)
(0.968002 -0.0116169 7.48604e-22)
(0.952981 -0.0157528 -4.71671e-22)
(0.93493 -0.0209124 -8.31817e-23)
(0.91371 -0.0273542 -5.39297e-22)
(0.888987 -0.0354501 1.92386e-22)
(0.860546 -0.0455562 -1.57427e-21)
(0.827991 -0.0582528 7.4041e-22)
(0.791091 -0.0739924 -5.05099e-21)
(0.749436 -0.0934493 7.07293e-21)
(0.702943 -0.116549 -2.1265e-21)
(0.651144 -0.141544 -4.47547e-21)
(0.999884 -0.000851648 -3.57789e-22)
(0.9964 -0.00258432 -5.42768e-22)
(0.989626 -0.00451497 3.79601e-22)
(0.980178 -0.00676685 9.29167e-23)
(0.967883 -0.00951152 1.0394e-21)
(0.952774 -0.0128984 -3.69926e-22)
(0.934594 -0.0171246 2.10776e-22)
(0.913179 -0.0224024 -7.77674e-23)
(0.888172 -0.02904 5.97667e-22)
(0.859308 -0.0373328 1.12507e-21)
(0.826142 -0.0477625 1.61984e-21)
(0.788356 -0.0607161 -2.63937e-21)
(0.745454 -0.0767568 1.16866e-21)
(0.697271 -0.0958624 -1.4942e-21)
(0.643293 -0.116609 -4.15415e-21)
(0.999885 -0.000662287 1.26975e-21)
(0.996395 -0.00201057 -1.47917e-22)
(0.989605 -0.00351323 5.96163e-22)
(0.980129 -0.00526566 5.08471e-22)
(0.967788 -0.00740201 -1.6209e-21)
(0.952611 -0.0100381 6.13537e-23)
(0.934327 -0.0133281 2.50284e-22)
(0.912758 -0.0174376 1.5368e-22)
(0.887523 -0.0226086 -5.79215e-22)
(0.85832 -0.0290736 5.36631e-22)
(0.824666 -0.0372115 2.46737e-21)
(0.786171 -0.0473336 -9.83574e-22)
(0.742267 -0.0598855 2.23027e-21)
(0.692723 -0.074874 -4.86045e-21)
(0.636986 -0.0911961 6.05118e-21)
(0.999886 -0.000473003 -9.06658e-22)
(0.996392 -0.00143641 1.69428e-23)
(0.98959 -0.00251031 -5.30976e-22)
(0.980092 -0.00376252 -2.63686e-22)
(0.967718 -0.00528937 5.78225e-22)
(0.952489 -0.00717328 -3.068e-23)
(0.934128 -0.00952484 -1.03855e-21)
(0.912442 -0.0124626 5.99112e-22)
(0.887038 -0.0161608 -2.66456e-22)
(0.857581 -0.0207868 2.37806e-22)
(0.823561 -0.0266133 8.42995e-22)
(0.784534 -0.0338687 2.34975e-22)
(0.739876 -0.042875 -1.47609e-21)
(0.689305 -0.0536501 1.77169e-22)
(0.632239 -0.065409 -1.35515e-21)
(0.999887 -0.000283778 4.41803e-22)
(0.99639 -0.000861961 -3.02787e-23)
(0.98958 -0.00150652 7.72433e-23)
(0.980068 -0.00225804 4.2939e-22)
(0.967672 -0.00317451 -7.88592e-23)
(0.952408 -0.00430525 -4.20853e-22)
(0.933996 -0.00571682 -2.66959e-22)
(0.912233 -0.00748047 3.20767e-22)
(0.886716 -0.0097012 -2.88066e-22)
(0.85709 -0.01248 3.44165e-22)
(0.822824 -0.0159815 -8.87898e-22)
(0.783443 -0.0203448 4.94937e-22)
(0.738281 -0.025765 -1.09986e-21)
(0.687024 -0.0322576 4.41956e-22)
(0.629067 -0.0393533 1.83718e-22)
(0.999887 -9.45896e-05 -7.87405e-23)
(0.996389 -0.000287343 7.69238e-23)
(0.989575 -0.000502236 -1.0056e-22)
(0.980056 -0.000752779 -1.42356e-22)
(0.967648 -0.00105833 1.34202e-22)
(0.952368 -0.00143532 2.12512e-22)
(0.93393 -0.00190595 1.47951e-22)
(0.912128 -0.002494 -8.93071e-23)
(0.886555 -0.00323455 3.5574e-22)
(0.856844 -0.00416137 6.50664e-23)
(0.822456 -0.00532946 1.66522e-22)
(0.782898 -0.00678558 2.30412e-22)
(0.737483 -0.00859503 -5.48031e-24)
(0.685882 -0.0107639 -1.65072e-22)
(0.627479 -0.0131358 -2.59237e-23)
(1.00013 -0.000340163 0)
(1.00265 -0.00100275 0)
(1.00714 -0.00162007 0)
(1.0131 -0.00220044 0)
(1.02007 -0.00274195 0)
(1.02772 -0.00323503 0)
(1.03572 -0.00366985 0)
(1.04382 -0.0040401 0)
(1.0518 -0.0043439 0)
(1.05951 -0.00458336 0)
(1.06682 -0.00476365 0)
(1.07365 -0.00489172 0)
(1.07999 -0.00497567 0)
(1.08579 -0.00502223 0)
(1.09112 -0.00504732 0)
(1.00013 -0.00100488 0)
(1.00262 -0.00295496 0)
(1.00709 -0.0047759 0)
(1.01302 -0.00649212 0)
(1.01999 -0.00809662 0)
(1.02764 -0.009561 0)
(1.03566 -0.0108559 0)
(1.04381 -0.0119617 0)
(1.05187 -0.0128719 0)
(1.05965 -0.0135917 0)
(1.06706 -0.0141356 0)
(1.074 -0.0145237 0)
(1.08043 -0.0147797 0)
(1.08634 -0.0149229 0)
(1.09177 -0.0149993 0)
(1.00012 -0.00163419 0)
(1.00258 -0.00479697 0)
(1.00699 -0.00776008 0)
(1.01288 -0.0105643 0)
(1.01981 -0.0131963 0)
(1.02746 -0.015609 0)
(1.03554 -0.017753 0)
(1.04378 -0.0195936 0)
(1.05195 -0.0211168 0)
(1.0599 -0.0223285 0)
(1.06747 -0.0232503 0)
(1.0746 -0.0239135 0)
(1.08123 -0.0243559 0)
(1.08733 -0.024609 0)
(1.09297 -0.0247491 0)
(1.00012 -0.00222292 0)
(1.00252 -0.00652256 0)
(1.00685 -0.0105665 0)
(1.01265 -0.014414 0)
(1.01953 -0.0180454 0)
(1.02718 -0.0213952 0)
(1.03531 -0.0243921 0)
(1.04366 -0.0269834 0)
(1.05201 -0.029144 0)
(1.06016 -0.0308766 0)
(1.06799 -0.0322067 0)
(1.07538 -0.0331744 0)
(1.08229 -0.0338303 0)
(1.08865 -0.0342164 0)
(1.0946 -0.0344423 0)
(1.00012 -0.00276905 0)
(1.00244 -0.00812689 0)
(1.00666 -0.0131892 0)
(1.01234 -0.0180364 0)
(1.01914 -0.0226437 0)
(1.02676 -0.026927 0)
(1.03494 -0.0307914 0)
(1.04342 -0.0341623 0)
(1.05196 -0.036999 0)
(1.06038 -0.0392963 0)
(1.06851 -0.0410794 0)