/*--------------------------------*- C++ -*----------------------------------*\
  =========                 |
  \\      /  F ield         | OpenFOAM: The Open Source CFD Toolbox
   \\    /   O peration     | Website:  https://openfoam.org
    \\  /    A nd           | Version:  7
     \\/     M anipulation  |
\*---------------------------------------------------------------------------*/
FoamFile
{
    version     2.0;
    format      ascii;
    class       volScalarField;
    location    "370";
    object      p;
}
// * * * * * * * * * * * * * * * * * * * * * * * * * * * * * * * * * * * * * //

dimensions      [0 2 -2 0 0 0 0];

internalField   nonuniform List<scalar> 
8500
(
-0.419446
-0.422246
-0.423341
-0.424708
-0.426762
-0.429577
-0.433111
-0.437247
-0.441678
-0.446385
-0.409986
-0.413032
-0.414014
-0.414991
-0.416323
-0.41803
-0.420019
-0.422123
-0.423906
-0.425305
-0.400873
-0.404092
-0.404949
-0.405541
-0.406163
-0.40678
-0.407245
-0.407338
-0.406497
-0.404548
-0.3922
-0.395531
-0.39626
-0.396482
-0.396426
-0.395996
-0.39499
-0.393146
-0.389798
-0.384575
-0.384046
-0.387439
-0.38804
-0.387918
-0.387227
-0.385811
-0.383416
-0.379747
-0.374085
-0.365738
-0.376471
-0.379889
-0.380369
-0.379931
-0.378654
-0.376326
-0.37264
-0.367281
-0.359546
-0.348279
-0.369524
-0.37294
-0.373308
-0.372583
-0.370772
-0.36761
-0.362738
-0.355832
-0.346294
-0.33232
-0.363242
-0.36664
-0.366904
-0.365921
-0.363626
-0.359707
-0.353757
-0.345441
-0.334372
-0.317871
-0.357659
-0.361031
-0.361197
-0.359979
-0.357248
-0.352647
-0.345726
-0.336122
-0.323778
-0.304835
-0.352805
-0.356144
-0.356216
-0.354783
-0.35166
-0.346454
-0.338671
-0.327893
-0.314499
-0.29304
-0.34871
-0.352007
-0.351986
-0.350356
-0.346885
-0.341152
-0.332628
-0.320801
-0.306598
-0.282345
-0.345405
-0.348644
-0.348528
-0.346717
-0.342942
-0.336767
-0.32764
-0.314939
-0.300267
-0.273613
-0.34292
-0.346073
-0.345856
-0.343879
-0.339848
-0.333322
-0.323743
-0.310368
-0.295578
-0.266103
-0.341278
-0.344304
-0.343976
-0.341848
-0.337612
-0.330826
-0.320936
-0.307061
-0.292072
-0.260438
-0.340496
-0.343335
-0.342882
-0.340616
-0.336224
-0.329267
-0.319197
-0.305122
-0.290001
-0.2564
-0.340574
-0.343153
-0.342553
-0.340154
-0.335648
-0.328595
-0.318445
-0.304473
-0.289107
-0.254055
-0.341498
-0.34373
-0.34295
-0.340414
-0.335816
-0.328721
-0.318537
-0.304848
-0.289019
-0.253347
-0.343235
-0.345021
-0.344018
-0.341321
-0.336631
-0.329512
-0.319321
-0.306009
-0.289164
-0.253801
-0.345734
-0.346974
-0.34569
-0.34279
-0.337983
-0.330821
-0.320604
-0.307738
-0.289243
-0.25543
-0.348939
-0.349531
-0.347894
-0.344729
-0.339748
-0.332502
-0.322213
-0.309723
-0.289586
-0.261847
-0.352791
-0.352636
-0.350566
-0.347055
-0.341827
-0.334429
-0.324008
-0.311548
-0.290687
-0.276794
-0.357238
-0.356243
-0.353659
-0.349712
-0.344151
-0.33651
-0.325884
-0.313089
-0.292728
-0.278992
-0.362248
-0.360327
-0.357146
-0.352676
-0.346693
-0.338702
-0.327761
-0.314396
-0.294475
-0.279014
-0.367803
-0.364888
-0.36103
-0.355956
-0.349463
-0.341001
-0.329594
-0.315509
-0.295632
-0.27848
-0.373914
-0.36994
-0.365342
-0.359595
-0.3525
-0.34343
-0.331375
-0.316387
-0.29619
-0.277306
-0.380608
-0.375515
-0.370132
-0.363652
-0.355852
-0.346018
-0.3331
-0.31699
-0.29611
-0.275721
-0.387924
-0.381658
-0.375459
-0.36819
-0.359565
-0.34878
-0.334743
-0.317267
-0.29543
-0.273702
-0.3959
-0.388413
-0.381378
-0.373258
-0.363665
-0.351706
-0.336253
-0.317175
-0.294187
-0.271273
-0.404565
-0.395815
-0.38793
-0.37888
-0.368147
-0.354745
-0.337555
-0.316672
-0.29242
-0.26843
-0.413928
-0.40388
-0.39513
-0.385048
-0.372966
-0.357799
-0.338562
-0.315726
-0.290157
-0.265167
-0.423969
-0.412602
-0.402958
-0.391713
-0.378027
-0.360738
-0.339183
-0.314302
-0.287411
-0.261473
-0.434635
-0.421939
-0.411357
-0.398786
-0.383186
-0.363413
-0.33933
-0.312368
-0.284178
-0.25733
-0.445834
-0.431815
-0.42023
-0.406129
-0.388255
-0.365665
-0.338912
-0.309882
-0.280439
-0.252711
-0.457434
-0.442111
-0.429434
-0.413555
-0.393018
-0.367332
-0.337842
-0.306797
-0.276162
-0.247585
-0.469258
-0.452669
-0.438785
-0.420831
-0.397243
-0.368261
-0.336031
-0.303059
-0.271305
-0.241912
-0.481091
-0.463283
-0.448053
-0.427683
-0.400696
-0.368301
-0.33339
-0.298606
-0.265817
-0.235653
-0.492677
-0.473712
-0.456965
-0.433815
-0.403149
-0.367311
-0.329831
-0.293374
-0.259642
-0.228765
-0.503724
-0.483671
-0.465213
-0.438922
-0.404383
-0.365155
-0.325263
-0.287293
-0.252722
-0.221205
-0.51391
-0.492849
-0.472457
-0.442701
-0.404196
-0.361708
-0.3196
-0.280292
-0.244998
-0.212935
-0.52289
-0.500907
-0.478344
-0.444863
-0.402402
-0.356852
-0.312757
-0.272302
-0.236413
-0.203919
-0.530306
-0.507491
-0.482521
-0.445141
-0.398835
-0.35048
-0.304655
-0.263258
-0.226918
-0.19413
-0.535797
-0.512239
-0.484646
-0.443293
-0.393348
-0.342496
-0.295219
-0.2531
-0.216472
-0.18355
-0.539009
-0.514796
-0.484406
-0.439113
-0.385817
-0.332816
-0.284383
-0.241772
-0.205041
-0.172172
-0.539605
-0.514821
-0.48152
-0.432427
-0.376142
-0.321372
-0.272088
-0.229221
-0.192584
-0.159956
-0.537275
-0.512004
-0.475756
-0.423098
-0.364246
-0.308111
-0.258294
-0.21541
-0.179039
-0.146756
-0.531745
-0.506069
-0.466924
-0.41103
-0.35008
-0.293002
-0.242978
-0.200327
-0.164362
-0.132321
-0.522784
-0.496793
-0.454887
-0.396163
-0.333618
-0.276026
-0.226129
-0.183982
-0.148608
-0.116606
-0.510212
-0.484007
-0.439551
-0.378473
-0.314858
-0.257183
-0.207744
-0.166385
-0.131859
-0.100368
-0.493903
-0.467599
-0.420873
-0.357971
-0.293826
-0.236491
-0.187853
-0.147581
-0.113933
-0.0836211
-0.473786
-0.447514
-0.398859
-0.334707
-0.270571
-0.214001
-0.166547
-0.127589
-0.0949789
-0.0661634
-0.449848
-0.423758
-0.37357
-0.308768
-0.245165
-0.189805
-0.14386
-0.106426
-0.0751077
-0.0479598
-0.422132
-0.396396
-0.345137
-0.280273
-0.217683
-0.163974
-0.119842
-0.0841734
-0.054387
-0.0290643
-0.390735
-0.365562
-0.313754
-0.249311
-0.188234
-0.136591
-0.0945853
-0.0609188
-0.0328862
-0.00957435
-0.355816
-0.331454
-0.279539
-0.215902
-0.157041
-0.107793
-0.0681989
-0.0367576
-0.0106869
0.0103996
-0.317596
-0.294343
-0.24232
-0.180518
-0.12422
-0.0777232
-0.0408071
-0.0117917
0.0121275
0.0307715
-0.276296
-0.25447
-0.20238
-0.143338
-0.0899774
-0.04654
-0.0125458
0.0138728
0.0354711
0.0514511
-0.232106
-0.211632
-0.160756
-0.104546
-0.0545084
-0.0144132
0.0164495
0.0401354
0.0592029
0.0721063
-0.185361
-0.166508
-0.117573
-0.0644162
-0.0180192
0.0184862
0.0460617
0.0669106
0.0830449
0.0919347
-0.13669
-0.119325
-0.0729572
-0.0232224
0.019264
0.0519838
0.0761813
0.094092
0.106662
0.110371
-0.0862567
-0.0706099
-0.0271802
0.0187601
0.0571027
0.0858916
0.106647
0.121443
0.12995
0.129102
-0.0344763
-0.0207905
0.0194159
0.0612453
0.0952517
0.12
0.137211
0.148571
0.152892
0.152882
0.0182059
0.0297322
0.0664663
0.103936
0.133461
0.154083
0.167607
0.175351
0.176375
0.176744
0.0713449
0.0805519
0.113601
0.146528
0.171473
0.187912
0.197663
0.201843
0.200054
0.199319
0.124492
0.131256
0.160452
0.188714
0.209028
0.221254
0.227204
0.227922
0.223498
0.220922
0.177197
0.181429
0.206653
0.230186
0.245865
0.25389
0.256062
0.253413
0.246368
0.241544
0.229014
0.23066
0.251843
0.270641
0.281726
0.285602
0.284057
0.278134
0.268476
0.261214
0.279503
0.278542
0.295672
0.309783
0.316359
0.316176
0.311008
0.301909
0.289668
0.279892
0.328234
0.324681
0.337798
0.347323
0.349521
0.345407
0.336737
0.324579
0.309816
0.297517
0.374794
0.368696
0.377893
0.382985
0.380977
0.373094
0.361073
0.345994
0.328802
0.314017
0.418786
0.410226
0.415645
0.416504
0.410502
0.399046
0.383854
0.366014
0.346512
0.329317
0.459834
0.448925
0.45076
0.447632
0.437884
0.423084
0.404924
0.384507
0.362837
0.343342
0.497588
0.484476
0.482962
0.476135
0.462926
0.445038
0.424141
0.401352
0.377676
0.35602
0.531724
0.516582
0.511999
0.501799
0.485445
0.464753
0.441373
0.416436
0.390934
0.367285
0.561946
0.544975
0.53764
0.52443
0.505276
0.482089
0.4565
0.429654
0.402526
0.377079
0.587991
0.569417
0.559681
0.543854
0.522269
0.496918
0.469413
0.440915
0.412373
0.385347
0.609629
0.589698
0.577943
0.559918
0.536297
0.50913
0.480021
0.450139
0.420408
0.392046
0.626663
0.605641
0.592272
0.572495
0.547248
0.518633
0.488242
0.457256
0.426574
0.397137
0.638936
0.617103
0.602547
0.581479
0.555034
0.52535
0.494012
0.462212
0.430825
0.400592
0.646324
0.623973
0.608672
0.58679
0.559586
0.529223
0.497283
0.464963
0.433127
0.40239
0.648744
0.626174
0.610582
0.588373
0.560858
0.530212
0.498019
0.46548
0.433452
0.402508
0.646152
0.623666
0.608242
0.586198
0.558823
0.528295
0.496204
0.463748
0.431788
0.40094
0.63854
0.616444
0.601647
0.580261
0.553479
0.52347
0.491834
0.459766
0.428135
0.397683
0.625941
0.604535
0.590822
0.570583
0.544844
0.515753
0.484924
0.453545
0.422505
0.392751
0.608428
0.588006
0.575822
0.557212
0.532958
0.505179
0.475503
0.445112
0.414918
0.386154
0.586111
0.566954
0.556733
0.54022
0.517884
0.4918
0.463616
0.434507
0.405408
0.37791
0.559136
0.541514
0.533668
0.519703
0.499704
0.475686
0.449325
0.421782
0.394019
0.368046
0.52769
0.511851
0.50677
0.495782
0.478521
0.456928
0.432705
0.407002
0.380806
0.3566
0.491991
0.478165
0.47621
0.468603
0.454459
0.43563
0.413846
0.390247
0.365835
0.343613
0.452293
0.440684
0.442184
0.438331
0.427661
0.411913
0.392852
0.371604
0.349181
0.329139
0.408883
0.399669
0.404915
0.405156
0.398288
0.385916
0.36984
0.351177
0.330928
0.313234
0.362077
0.355405
0.364648
0.369286
0.366517
0.357789
0.34494
0.329074
0.31117
0.295965
0.31222
0.308207
0.321652
0.330949
0.332542
0.327699
0.318291
0.305416
0.290005
0.277399
0.25968
0.258411
0.276215
0.290388
0.296571
0.295823
0.290047
0.280334
0.267541
0.25761
0.20485
0.206374
0.228647
0.247865
0.258826
0.262349
0.260369
0.253965
0.243887
0.236669
0.148144
0.152476
0.179271
0.203653
0.21954
0.227476
0.229427
0.22646
0.21916
0.214641
0.0899877
0.0971071
0.128426
0.15804
0.178955
0.19141
0.197399
0.197981
0.193485
0.19157
0.0308244
0.0406748
0.0764636
0.11132
0.137324
0.154362
0.164466
0.168709
0.16702
0.167475
-0.0288954
-0.0164066
0.0237443
0.0637996
0.094904
0.116552
0.130807
0.138831
0.139967
0.142293
-0.0887155
-0.073717
-0.0293637
0.0157864
0.0519598
0.0782024
0.0965876
0.108528
0.112718
0.116041
-0.148178
-0.130836
-0.082487
-0.0324079
0.00875641
0.0395496
0.0619821
0.0779235
0.0857783
0.0883862
-0.206826
-0.187346
-0.13525
-0.0804734
-0.034445
0.000830562
0.0271637
0.0469033
0.0594817
0.0608942
-0.264208
-0.242833
-0.187277
-0.128106
-0.0773892
-0.0377201
-0.00758141
0.0155891
0.032765
0.0394589
-0.319886
-0.296873
-0.238209
-0.175009
-0.119825
-0.0758858
-0.0419768
-0.0155548
0.0056437
0.0184059
-0.373538
-0.348991
-0.287735
-0.2209
-0.161505
-0.113474
-0.0758542
-0.046256
-0.0217454
-0.0043535
-0.424727
-0.39882
-0.335667
-0.265499
-0.202193
-0.150305
-0.109111
-0.0764173
-0.0490352
-0.0281342
-0.473005
-0.445687
-0.382013
-0.308512
-0.241673
-0.186206
-0.141636
-0.105968
-0.0759317
-0.0519831
-0.518095
-0.4895
-0.426063
-0.349658
-0.279752
-0.220998
-0.17329
-0.134811
-0.102289
-0.075529
-0.559768
-0.530245
-0.466852
-0.388972
-0.31623
-0.254512
-0.203931
-0.162836
-0.12802
-0.0986848
-0.597782
-0.567656
-0.504555
-0.425965
-0.350867
-0.286594
-0.233428
-0.189937
-0.153035
-0.121362
-0.631928
-0.601469
-0.539219
-0.460235
-0.383586
-0.317108
-0.261661
-0.216015
-0.177244
-0.143439
-0.662052
-0.631482
-0.570655
-0.491844
-0.414162
-0.345919
-0.288526
-0.240976
-0.200571
-0.16481
-0.688061
-0.657563
-0.598665
-0.520697
-0.442491
-0.372967
-0.313936
-0.264735
-0.222958
-0.185392
-0.709915
-0.679647
-0.623123
-0.546666
-0.468502
-0.398171
-0.337874
-0.287216
-0.244342
-0.205153
-0.727632
-0.697728
-0.643967
-0.569659
-0.492129
-0.421445
-0.360288
-0.308448
-0.264589
-0.22416
-0.741284
-0.711861
-0.661189
-0.589631
-0.513327
-0.442746
-0.381093
-0.328386
-0.283534
-0.242678
-0.751004
-0.722158
-0.674826
-0.606567
-0.532073
-0.462062
-0.400267
-0.347
-0.301458
-0.260505
-0.756976
-0.728788
-0.684967
-0.620489
-0.54837
-0.479401
-0.417825
-0.364295
-0.318283
-0.277005
-0.759439
-0.731975
-0.691749
-0.63145
-0.562244
-0.494787
-0.43379
-0.380269
-0.333946
-0.292254
-0.758675
-0.731998
-0.695353
-0.639542
-0.573744
-0.508257
-0.448191
-0.394943
-0.348499
-0.306514
-0.755005
-0.729177
-0.696008
-0.644888
-0.582941
-0.519864
-0.461078
-0.408367
-0.362019
-0.319951
-0.748779
-0.723864
-0.693987
-0.647653
-0.589929
-0.529679
-0.472516
-0.420607
-0.374567
-0.332627
-0.740366
-0.716431
-0.689604
-0.648032
-0.594824
-0.537785
-0.482579
-0.431733
-0.386193
-0.344571
-0.730146
-0.707256
-0.683201
-0.646253
-0.59776
-0.544273
-0.491347
-0.441817
-0.396955
-0.355818
-0.718497
-0.696716
-0.675143
-0.642571
-0.598887
-0.549245
-0.498903
-0.45094
-0.406921
-0.366414
-0.705786
-0.685175
-0.665799
-0.637267
-0.598373
-0.552807
-0.505334
-0.459183
-0.41617
-0.37642
-0.692359
-0.672974
-0.655529
-0.630634
-0.5964
-0.55507
-0.510726
-0.466631
-0.424787
-0.385911
-0.678536
-0.660421
-0.644672
-0.622978
-0.593163
-0.556147
-0.515165
-0.473367
-0.432859
-0.394967
-0.664598
-0.647794
-0.633531
-0.614603
-0.588868
-0.556157
-0.51873
-0.479471
-0.440473
-0.403676
-0.65079
-0.635325
-0.622368
-0.605799
-0.583729
-0.55522
-0.521497
-0.485017
-0.447716
-0.412131
-0.637318
-0.623208
-0.611399
-0.596826
-0.577966
-0.553459
-0.523537
-0.49007
-0.454669
-0.420427
-0.624346
-0.61159
-0.600796
-0.587906
-0.571793
-0.551006
-0.524914
-0.494685
-0.461408
-0.428667
-0.612007
-0.600584
-0.59069
-0.579212
-0.565416
-0.547997
-0.525691
-0.498906
-0.467998
-0.436951
-0.600399
-0.590264
-0.581176
-0.570875
-0.559019
-0.544578
-0.525936
-0.50277
-0.474491
-0.44539
-0.589606
-0.580684
-0.572317
-0.562992
-0.552756
-0.540901
-0.525721
-0.506305
-0.480925
-0.454086
-0.579687
-0.571876
-0.564157
-0.555637
-0.546749
-0.537121
-0.525139
-0.509537
-0.487314
-0.463167
-0.570689
-0.563863
-0.556723
-0.548873
-0.541104
-0.533388
-0.524302
-0.512493
-0.493668
-0.472704
-0.562645
-0.556655
-0.550033
-0.542756
-0.535916
-0.529843
-0.523341
-0.515218
-0.499948
-0.482907
-0.55557
-0.550255
-0.544099
-0.537334
-0.531284
-0.526623
-0.522405
-0.517757
-0.506186
-0.493604
-0.549449
-0.544647
-0.538917
-0.53264
-0.527299
-0.52386
-0.521642
-0.520184
-0.51234
-0.505041
-0.544236
-0.539791
-0.534465
-0.528688
-0.524032
-0.521675
-0.521198
-0.522597
-0.518398
-0.515864
-0.539843
-0.535618
-0.530691
-0.525455
-0.521511
-0.520155
-0.52124
-0.52493
-0.525498
-0.520388
-0.536146
-0.532028
-0.527509
-0.522875
-0.519708
-0.519332
-0.521887
-0.527228
-0.533232
-0.527008
-0.532983
-0.528895
-0.524803
-0.520842
-0.518536
-0.519169
-0.523148
-0.529673
-0.540494
-0.53473
-0.530169
-0.526071
-0.522431
-0.519209
-0.517848
-0.519545
-0.524904
-0.532411
-0.546942
-0.541999
-0.527507
-0.523399
-0.520234
-0.517804
-0.51745
-0.520267
-0.526934
-0.535435
-0.552529
-0.548764
-0.524798
-0.520717
-0.518049
-0.516439
-0.517122
-0.521078
-0.528956
-0.538552
-0.557172
-0.555319
-0.521856
-0.51787
-0.515712
-0.514921
-0.516627
-0.521691
-0.530654
-0.54142
-0.560743
-0.56157
-0.518515
-0.514712
-0.513069
-0.513066
-0.515733
-0.521819
-0.531717
-0.543646
-0.563104
-0.567067
-0.514634
-0.511116
-0.509976
-0.510703
-0.514228
-0.521195
-0.531856
-0.544802
-0.564101
-0.571254
-0.510103
-0.506972
-0.506313
-0.507683
-0.51193
-0.5196
-0.530831
-0.544578
-0.563573
-0.573646
-0.504847
-0.502195
-0.501981
-0.50389
-0.508697
-0.516866
-0.528461
-0.542738
-0.56136
-0.573892
-0.498824
-0.49673
-0.496914
-0.499243
-0.504436
-0.512889
-0.524626
-0.53914
-0.557337
-0.571766
-0.492032
-0.49055
-0.491076
-0.493702
-0.499102
-0.507619
-0.519272
-0.533722
-0.551422
-0.567125
-0.4845
-0.483664
-0.484469
-0.487266
-0.492697
-0.501068
-0.512403
-0.526492
-0.54357
-0.55988
-0.476295
-0.476113
-0.477129
-0.479977
-0.485276
-0.493297
-0.50408
-0.517522
-0.533766
-0.550033
-0.467511
-0.467966
-0.469124
-0.471919
-0.476931
-0.484414
-0.49442
-0.506914
-0.52187
-0.537791
-0.458263
-0.459318
-0.460561
-0.4632
-0.467793
-0.474569
-0.483586
-0.494838
-0.508244
-0.523073
-0.448689
-0.450288
-0.451559
-0.45396
-0.458022
-0.463947
-0.471785
-0.481531
-0.493086
-0.506112
-0.438932
-0.441008
-0.442257
-0.444354
-0.447799
-0.452758
-0.459261
-0.467282
-0.476685
-0.487335
-0.429137
-0.431614
-0.432802
-0.434548
-0.437315
-0.441226
-0.446279
-0.452409
-0.459411
-0.467245
-0.455593
-0.457582
-0.445053
-0.407737
-0.3686
-0.35676
-0.379106
-0.398492
-0.366192
-0.288092
-0.210708
-0.156646
-0.132422
-0.125695
-0.147241
-0.161775
-0.144714
-0.108476
-0.0937363
-0.0747439
-0.0716414
-0.0645325
-0.0702443
-0.0826377
-0.0812268
-0.0466886
-0.0419523
-0.0536444
-0.0462873
-0.00215202
-0.430284
-0.429052
-0.416994
-0.38582
-0.358848
-0.361387
-0.395689
-0.420382
-0.385343
-0.301548
-0.217919
-0.158412
-0.130147
-0.119955
-0.138727
-0.151248
-0.136488
-0.104771
-0.093006
-0.0751791
-0.0731917
-0.0670646
-0.0725667
-0.083633
-0.0819127
-0.0470391
-0.0419497
-0.0538878
-0.0462135
-0.00197924
-0.405626
-0.400973
-0.389361
-0.363915
-0.34854
-0.364581
-0.410011
-0.439433
-0.402264
-0.313397
-0.224224
-0.159852
-0.127764
-0.114318
-0.130238
-0.140679
-0.127984
-0.100924
-0.0921623
-0.0756222
-0.0748457
-0.0697225
-0.0748955
-0.0845803
-0.0825301
-0.0473809
-0.0419397
-0.054155
-0.046172
-0.00181095
-0.382203
-0.374027
-0.362817
-0.342584
-0.337869
-0.366063
-0.421648
-0.455343
-0.416808
-0.323634
-0.229658
-0.161023
-0.125346
-0.108884
-0.121892
-0.130219
-0.119272
-0.0969523
-0.0912003
-0.0760714
-0.0765953
-0.0724921
-0.0772142
-0.0854742
-0.0830732
-0.0477108
-0.0419221
-0.0544467
-0.0461644
-0.00164809
-0.360493
-0.348768
-0.337937
-0.322278
-0.327072
-0.365623
-0.430209
-0.467922
-0.428885
-0.332279
-0.234267
-0.161974
-0.122959
-0.103735
-0.113804
-0.120015
-0.110434
-0.0928802
-0.0901164
-0.0765233
-0.0784304
-0.0753577
-0.0795077
-0.0863097
-0.0835365
-0.0480254
-0.0418963
-0.0547628
-0.0461919
-0.00149162
-0.340809
-0.325581
-0.315146
-0.303324
-0.316105
-0.363353
-0.43549
-0.477106
-0.438462
-0.339368
-0.238102
-0.162751
-0.120662
-0.0989348
-0.106078
-0.1102
-0.101565
-0.0887343
-0.0889081
-0.0769721
-0.0803384
-0.0783017
-0.0817619
-0.0870828
-0.0839154
-0.048321
-0.0418616
-0.0551033
-0.0462547
-0.00134247
-0.3233
-0.304662
-0.294692
-0.286284
-0.304764
-0.359248
-0.437486
-0.483278
-0.445549
-0.344957
-0.24122
-0.163393
-0.118505
-0.0945238
-0.0988068
-0.100895
-0.0927713
-0.0845458
-0.0875745
-0.0774104
-0.0823051
-0.081305
-0.0839634
-0.0877898
-0.0842056
-0.0485941
-0.0418172
-0.0554674
-0.0463524
-0.00120162
-0.30798
-0.28603
-0.276666
-0.270901
-0.293593
-0.353395
-0.436335
-0.485912
-0.450187
-0.349113
-0.24368
-0.163934
-0.116528
-0.0905254
-0.0920629
-0.0921982
-0.0841727
-0.0803498
-0.0861163
-0.0778286
-0.0843144
-0.0843469
-0.0860997
-0.0884279
-0.0844035
-0.0488409
-0.0417623
-0.0558541
-0.0464837
-0.00107005
-0.294775
-0.269667
-0.261195
-0.257059
-0.282699
-0.345987
-0.432317
-0.485488
-0.45247
-0.351912
-0.245542
-0.164402
-0.114766
-0.0869463
-0.0858993
-0.0841856
-0.0758935
-0.0761857
-0.084536
-0.0782149
-0.086349
-0.0874055
-0.0881593
-0.0889944
-0.0845062
-0.0490577
-0.0416959
-0.0562617
-0.0466463
-0.000948761
-0.283687
-0.25617
-0.247363
-0.244933
-0.272153
-0.337297
-0.425801
-0.482292
-0.452528
-0.353434
-0.246863
-0.164817
-0.113243
-0.0837802
-0.0803446
-0.0769107
-0.068055
-0.0720966
-0.082838
-0.0785559
-0.0883907
-0.0904584
-0.090131
-0.0894877
-0.0845114
-0.0492411
-0.0416172
-0.0566884
-0.0468374
-0.000838794
-0.274878
-0.244496
-0.23559
-0.23441
-0.262068
-0.327642
-0.41721
-0.47665
-0.450522
-0.353761
-0.2477
-0.165197
-0.111975
-0.0810126
-0.0754041
-0.0704034
-0.0607641
-0.0681279
-0.0810283
-0.0788366
-0.0904205
-0.0934824
-0.0920049
-0.0899061
-0.0844177
-0.0493877
-0.0415254
-0.0571314
-0.0470529
-0.000741208
-0.267379
-0.234812
-0.225668
-0.225353
-0.25258
-0.317356
-0.406987
-0.468914
-0.44665
-0.352973
-0.248107
-0.165559
-0.110976
-0.0786263
-0.0710625
-0.0646721
-0.0541043
-0.0643265
-0.079115
-0.0790406
-0.0924195
-0.0964546
-0.0937721
-0.0902484
-0.084224
-0.0494945
-0.0414199
-0.057588
-0.0472882
-0.000657088
-0.2616
-0.227028
-0.217349
-0.217667
-0.243806
-0.306764
-0.395564
-0.459446
-0.441123
-0.351163
-0.248148
-0.165926
-0.110263
-0.0766045
-0.0672877
-0.0597042
-0.0482599
-0.0607396
-0.0771075
-0.0791505
-0.094369
-0.0993524
-0.0954241
-0.0905137
-0.0839297
-0.0495584
-0.0412997
-0.0580548
-0.0475376
-0.000587544
-0.257551
-0.221065
-0.21049
-0.211267
-0.235841
-0.296156
-0.383332
-0.448586
-0.434133
-0.348436
-0.247876
-0.166306
-0.109827
-0.0749198
-0.0640294
-0.055457
-0.0429732
-0.0574126
-0.0750163
-0.0791481
-0.0962511
-0.102154
-0.0969529
-0.0907012
-0.0835352
-0.0495755
-0.0411636
-0.0585275
-0.0477944
-0.000533711
-0.255222
-0.216886
-0.205012
-0.20607
-0.228748
-0.285765
-0.370624
-0.436636
-0.425855
-0.344867
-0.247273
-0.166632
-0.109601
-0.0735164
-0.0612181
-0.0518543
-0.0383992
-0.0543917
-0.0728524
-0.0790146
-0.0980488
-0.104838
-0.0983525
-0.0908106
-0.0830419
-0.0495409
-0.0410101
-0.0589992
-0.0480513
-0.000496742
-0.254482
-0.214495
-0.200877
-0.202001
-0.222554
-0.275761
-0.357683
-0.423875
-0.416477
-0.340493
-0.246272
-0.166821
-0.109515
-0.0723486
-0.0587971
-0.048814
-0.0345174
-0.0517046
-0.0706255
-0.0787304
-0.0997461
-0.107389
-0.0996202
-0.0908414
-0.082452
-0.0494539
-0.0408393
-0.0594625
-0.0482993
-0.000477796
-0.255131
-0.213864
-0.198068
-0.198979
-0.217263
-0.266285
-0.344676
-0.410492
-0.406249
-0.33554
-0.24512
-0.167131
-0.109776
-0.0715376
-0.056803
-0.0463399
-0.0312972
-0.0493575
-0.0683424
-0.0782756
-0.101327
-0.109786
-0.100745
-0.0907892
-0.0817649
-0.0493261
-0.0406538
-0.0599238
-0.0485287
-0.000477993
-0.256632
-0.214771
-0.196598
-0.196896
-0.2128
-0.257384
-0.331727
-0.396257
-0.395282
-0.330594
-0.244649
-0.168311
-0.110937
-0.0713897
-0.0553416
-0.0445077
-0.0287799
-0.0474266
-0.066009
-0.0776294
-0.102777
-0.111982
-0.101666
-0.0906441
-0.0809748
-0.0491723
-0.0404511
-0.0604103
-0.0487315
-0.000498596
-0.257631
-0.216833
-0.196626
-0.195739
-0.209016
-0.248719
-0.318434
-0.380793
-0.383059
-0.325347
-0.244498
-0.169896
-0.112536
-0.0715967
-0.0541514
-0.0429728
-0.0268763
-0.0461473
-0.0636819
-0.0767603
-0.104096
-0.113907
-0.102332
-0.0904244
-0.0800936
-0.0489445
-0.0402095
-0.0608887
-0.0488996
-0.000541954
-0.261734
-0.221273
-0.197889
-0.195819
-0.206822
-0.241587
-0.305475
-0.366482
-0.369433
-0.316344
-0.239811
-0.167514
-0.111148
-0.0701129
-0.0521571
-0.0404117
-0.0247304
-0.044818
-0.0612193
-0.0756884
-0.105212
-0.115973
-0.103148
-0.0902391
-0.079191
-0.0484582
-0.0398995
-0.0610891
-0.0489841
-0.000606864
-0.247174
-0.21841
-0.197517
-0.196124
-0.20652
-0.239054
-0.300734
-0.356287
-0.355893
-0.302173
-0.228322
-0.159386
-0.105295
-0.0658159
-0.0487842
-0.0358368
-0.020526
-0.0387167
-0.0552239
-0.0731744
-0.107587
-0.120939
-0.105556
-0.0901324
-0.0782531
-0.047536
-0.0394517
-0.0606269
-0.0489087
-0.000679823
-0.241761
-0.217101
-0.198651
-0.197528
-0.207674
-0.236597
-0.28971
-0.335502
-0.331713
-0.280991
-0.213254
-0.149771
-0.0994206
-0.0621209
-0.0453946
-0.0318656
-0.0189225
-0.0373265
-0.0522946
-0.0717075
-0.10896
-0.124104
-0.10666
-0.0882796
-0.0761944
-0.046328
-0.0390559
-0.0602675
-0.049759
-0.00068938
-0.235962
-0.215139
-0.198839
-0.198124
-0.207951
-0.232956
-0.276595
-0.312623
-0.306494
-0.260166
-0.198854
-0.140654
-0.0937023
-0.0583761
-0.0421075
-0.028162
-0.0175015
-0.0358656
-0.0508018
-0.0710151
-0.109536
-0.126106
-0.107065
-0.0859527
-0.0737345
-0.0449533
-0.0385441
-0.0598801
-0.050867
-0.000586673
-0.229506
-0.212008
-0.197493
-0.196898
-0.205994
-0.226979
-0.261457
-0.288746
-0.281119
-0.239485
-0.184515
-0.131516
-0.087933
-0.0546064
-0.0388734
-0.0246301
-0.0159341
-0.033934
-0.0488318
-0.0699763
-0.109591
-0.127788
-0.106959
-0.0832831
-0.0707526
-0.0433415
-0.0378864
-0.059406
-0.0518868
-0.000411447
-0.22138
-0.207258
-0.194368
-0.193576
-0.20161
-0.218515
-0.244885
-0.264744
-0.256259
-0.219419
-0.170555
-0.122532
-0.0821606
-0.0507979
-0.0356433
-0.0211748
-0.0141631
-0.0316904
-0.0460252
-0.0681763
-0.109083
-0.128885
-0.106136
-0.0801563
-0.0672175
-0.0414543
-0.0370475
-0.0587995
-0.0527649
-0.000191094
-0.211309
-0.200807
-0.189535
-0.18838
-0.195208
-0.20848
-0.2278
-0.241543
-0.232651
-0.200338
-0.157104
-0.113728
-0.0764072
-0.0469457
-0.0323718
-0.0177285
-0.0120594
-0.0290685
-0.0424426
-0.0655387
-0.107663
-0.128947
-0.104423
-0.0765193
-0.0631002
-0.0392472
-0.035986
-0.0579992
-0.0534941
7.28069e-05
-0.199863
-0.192858
-0.183249
-0.181713
-0.187264
-0.197364
-0.210937
-0.219796
-0.21072
-0.182436
-0.14426
-0.105159
-0.0707093
-0.0430478
-0.0290151
-0.014217
-0.00947976
-0.0259132
-0.0380412
-0.0618913
-0.10492
-0.127648
-0.101683
-0.0723395
-0.0583857
-0.0366741
-0.0346528
-0.0569253
-0.0540133
0.0003871
-0.187576
-0.183684
-0.175785
-0.173955
-0.178201
-0.18569
-0.194766
-0.199788
-0.190616
-0.165791
-0.132077
-0.0968555
-0.0650933
-0.0391037
-0.0255344
-0.0105648
-0.00628042
-0.0219989
-0.0325946
-0.0568812
-0.100576
-0.124702
-0.0977887
-0.0675926
-0.0530741
-0.0336872
-0.0329897
-0.0554753
-0.0542105
0.000754328
-0.17484
-0.173583
-0.167386
-0.165418
-0.168442
-0.173812
-0.179479
-0.181536
-0.172314
-0.150397
-0.120578
-0.0888421
-0.059583
-0.0351186
-0.0219013
-0.00669944
-0.00230937
-0.016973
-0.0257351
-0.0501055
-0.0944657
-0.119853
-0.0926398
-0.0622679
-0.0471861
-0.0302395
-0.0309289
-0.0535209
-0.0539423
0.00117
-0.161991
-0.162844
-0.158262
-0.156323
-0.158308
-0.161969
-0.165095
-0.164915
-0.155697
-0.136203
-0.109763
-0.081137
-0.0541991
-0.0311041
-0.0181039
-0.00256312
0.00258148
-0.0104171
-0.0170277
-0.0412397
-0.0865098
-0.112913
-0.0861795
-0.0563741
-0.0407657
-0.0262883
-0.0283942
-0.0509088
-0.0530431
0.00162327
-0.149257
-0.151716
-0.148599
-0.146834
-0.147984
-0.1503
-0.151565
-0.149751
-0.140608
-0.123136
-0.0996207
-0.0737552
-0.04896
-0.0270811
-0.0141514
0.00186618
0.00849945
-0.00185277
-0.00607615
-0.0301278
-0.0767584
-0.103799
-0.0784053
-0.0499412
-0.0338827
-0.0218018
-0.0253026
-0.0474663
-0.0513275
0.00209694
-0.13678
-0.14041
-0.138572
-0.137091
-0.137619
-0.138892
-0.138823
-0.13587
-0.126887
-0.111117
-0.0901317
-0.0667109
-0.0438814
-0.0230828
-0.0100775
0.00655033
0.015424
0.00912645
0.00730491
-0.0169228
-0.0654363
-0.0919289
-0.0693817
-0.0430236
-0.0266309
-0.0167665
-0.0215696
-0.0430112
-0.0485939
0.00256689
-0.124672
-0.12911
-0.128349
-0.127219
-0.127323
-0.127809
-0.126813
-0.123116
-0.114382
-0.100066
-0.0812719
-0.060018
-0.0389757
-0.0191563
-0.0059449
0.0113757
0.0230875
0.0223904
0.0227573
-0.00230307
-0.0529464
-0.0787896
-0.0592921
-0.0357025
-0.0191237
-0.0111976
-0.0171173
-0.0373688
-0.0446379
0.00300233
-0.11302
-0.11797
-0.118088
-0.117336
-0.117186
-0.117103
-0.115492
-0.11136
-0.102959
-0.0899099
-0.0730145
-0.0536901
-0.0342551
-0.015358
-0.00184903
0.0161514
0.0309086
0.0365776
0.0388747
0.012402
-0.0396549
-0.0641971
-0.0483946
-0.0280866
-0.0114912
-0.00514402
-0.011888
-0.0304001
-0.039276
0.00336896
-0.10189
-0.107116
-0.107931
-0.107553
-0.107289
-0.106821
-0.104831
-0.100499
-0.0925007
-0.0805794
-0.0653319
-0.0477381
-0.0297395
-0.0117446
0.00208762
0.0206331
0.038089
0.0493239
0.0532479
0.0256071
-0.0257907
-0.0486757
-0.0370408
-0.0203093
-0.00387901
0.00130865
-0.00586165
-0.0220409
-0.0323868
0.00363673
-0.0913349
-0.0966548
-0.0980063
-0.0979746
-0.0977006
-0.0970003
-0.094811
-0.0904526
-0.08291
-0.0720109
-0.0581995
-0.0421679
-0.0254609
-0.00836655
0.00572922
0.0245576
0.0438716
0.0586231
0.0637015
0.036286
-0.01166
-0.0329974
-0.0256678
-0.0125222
0.00355703
0.00803181
0.000922829
-0.0123558
-0.0239636
0.00379222
-0.0813955
-0.0866704
-0.0884221
-0.0887126
-0.0884869
-0.0876725
-0.0854171
-0.0811591
-0.0741054
-0.0641466
-0.0515973
-0.0369821
-0.0214585
-0.00526896
0.00894581
0.0276561
0.0477324
0.0634298
0.069358
0.0442246
0.00195874
-0.0181302
-0.0147482
-0.00488909
0.0106632
0.0148458
0.00834052
-0.00158347
-0.0141781
0.00384931
-0.0720993
-0.0772269
-0.0792627
-0.0798351
-0.0797029
-0.0788641
-0.0766398
-0.0725701
-0.0660224
-0.0569355
-0.0455095
-0.0321821
-0.0177673
-0.00249411
0.011629
0.0297448
0.0494341
0.0644508
0.0708038
0.04955
0.0139676
-0.00491443
-0.00468285
0.00242439
0.0172928
0.0215224
0.0161291
0.00987332
-0.0034207
0.00384444
-0.0634636
-0.0683722
-0.070596
-0.0714017
-0.0713941
-0.0705966
-0.0684723
-0.0646483
-0.0586102
-0.0503344
-0.0399227
-0.0277689
-0.0144118
-7.61239e-05
0.0137195
0.0308172
0.0490448
0.0629873
0.069245
0.0524372
0.0235812
0.00616224
0.00428375
0.00926554
0.0233019
0.0277988
0.0238864
0.0214257
0.00770945
0.00381517
-0.0554977
-0.0601412
-0.0624773
-0.0634728
-0.0636004
-0.0628882
-0.0609102
-0.0573661
-0.0518306
-0.0443084
-0.0348238
-0.0237428
-0.0114041
0.00197089
0.015217
0.0310286
0.0475079
0.0601372
0.0658914
0.0532917
0.0306429
0.0150591
0.0120543
0.0155127
0.0285613
0.0333957
0.0311195
0.0318616
0.0183589
0.00387754
-0.0482056
-0.0525584
-0.054948
-0.0560945
-0.0563564
-0.0557555
-0.0539517
-0.050703
-0.0456546
-0.0388303
-0.0301994
-0.0201019
-0.00874411
0.00365347
0.0161747
0.0305874
0.0452446
0.0566081
0.0617204
0.0527144
0.0354854
0.022015
0.0186282
0.0210828
0.0329994
0.0380734
0.0373213
0.040272
0.0275684
0.00424147
-0.0415869
-0.0456402
-0.0480393
-0.0493027
-0.0496914
-0.0492141
-0.0475974
-0.0446456
-0.0400616
-0.0338798
-0.0260359
-0.0168412
-0.00642242
0.00499796
0.0166837
0.0297082
0.0426278
0.0528368
0.0573892
0.0512729
0.0385795
0.0273442
0.0240635
0.0259151
0.0366062
0.0417087
0.0420887
0.0460178
0.0345508
0.00512964
-0.0356401
-0.0393979
-0.0417751
-0.0431264
-0.0436301
-0.0432789
-0.0418508
-0.0391866
-0.0350375
-0.0294425
-0.0223211
-0.0139525
-0.00442183
0.00604672
0.0168485
0.0285699
0.0399343
0.0491069
0.0532768
0.0494044
0.0403687
0.0313499
0.0284538
0.0299822
0.039389
0.0442993
0.0452352
0.0488451
0.0389579
0.00663815
-0.0303639
-0.0338408
-0.0361752
-0.0375904
-0.0381955
-0.0379654
-0.0367188
-0.0343242
-0.0305752
-0.0255097
-0.0190445
-0.0114256
-0.00272
0.00684827
0.0167726
0.0273142
0.0373444
0.0456077
0.0495711
0.047414
0.0412323
0.0342979
0.0319152
0.0333023
0.041401
0.0459544