/*--------------------------------*- C++ -*----------------------------------*\
  =========                 |
  \\      /  F ield         | OpenFOAM: The Open Source CFD Toolbox
   \\    /   O peration     | Website:  https://openfoam.org
    \\  /    A nd           | Version:  7
     \\/     M anipulation  |
\*---------------------------------------------------------------------------*/
FoamFile
{
    version     2.0;
    format      ascii;
    class       volScalarField;
    location    "125";
    object      p;
}
// * * * * * * * * * * * * * * * * * * * * * * * * * * * * * * * * * * * * * //

dimensions      [0 2 -2 0 0 0 0];

internalField   nonuniform List<scalar> 
8500
(
-0.421598
-0.423363
-0.424016
-0.425117
-0.42724
-0.430645
-0.435471
-0.441898
-0.449973
-0.459949
-0.414869
-0.417252
-0.418045
-0.419079
-0.420878
-0.423622
-0.427373
-0.432206
-0.437976
-0.444858
-0.408255
-0.411208
-0.412123
-0.413075
-0.414528
-0.416579
-0.419202
-0.422362
-0.425693
-0.429252
-0.401909
-0.405374
-0.406395
-0.407257
-0.408358
-0.409708
-0.411186
-0.41264
-0.413479
-0.413591
-0.395975
-0.399889
-0.401003
-0.401774
-0.402529
-0.403189
-0.403533
-0.403295
-0.401658
-0.398288
-0.390589
-0.394882
-0.396077
-0.396759
-0.397182
-0.397179
-0.396426
-0.394545
-0.390515
-0.38369
-0.385874
-0.390469
-0.39173
-0.392328
-0.392442
-0.391816
-0.39002
-0.386572
-0.380279
-0.370054
-0.381931
-0.386749
-0.388061
-0.388581
-0.388412
-0.387212
-0.384443
-0.37952
-0.371137
-0.357551
-0.378844
-0.383798
-0.385145
-0.385593
-0.385171
-0.383457
-0.379798
-0.373506
-0.363236
-0.346273
-0.376668
-0.381668
-0.38303
-0.383414
-0.382775
-0.380615
-0.376163
-0.368617
-0.356703
-0.336256
-0.375435
-0.380384
-0.381741
-0.382069
-0.381251
-0.378723
-0.373588
-0.36491
-0.35164
-0.327467
-0.375146
-0.379943
-0.381271
-0.381549
-0.380593
-0.377779
-0.372086
-0.3624
-0.348111
-0.319744
-0.37577
-0.380312
-0.381583
-0.381812
-0.380755
-0.377735
-0.371616
-0.361056
-0.346162
-0.312873
-0.377251
-0.381434
-0.382611
-0.382783
-0.381648
-0.378486
-0.372061
-0.36076
-0.345741
-0.307317
-0.379506
-0.38323
-0.384265
-0.384355
-0.383143
-0.379871
-0.373225
-0.361306
-0.345956
-0.303978
-0.382434
-0.385603
-0.386439
-0.386402
-0.385083
-0.381687
-0.374858
-0.362686
-0.346255
-0.302395
-0.385927
-0.388453
-0.389019
-0.388784
-0.387298
-0.383721
-0.376647
-0.364408
-0.346591
-0.302015
-0.389877
-0.391684
-0.391898
-0.391373
-0.38963
-0.385802
-0.378366
-0.366035
-0.346479
-0.302199
-0.394191
-0.395214
-0.394987
-0.394068
-0.391963
-0.387763
-0.379866
-0.367399
-0.345583
-0.302948
-0.398796
-0.398984
-0.398224
-0.396804
-0.394216
-0.389535
-0.381076
-0.368343
-0.344295
-0.307712
-0.403651
-0.40296
-0.401586
-0.399553
-0.396372
-0.391099
-0.381987
-0.368676
-0.343496
-0.320552
-0.40875
-0.407144
-0.405077
-0.402337
-0.398459
-0.392485
-0.382633
-0.368475
-0.343575
-0.322043
-0.414114
-0.411562
-0.408736
-0.40521
-0.400547
-0.393758
-0.383056
-0.367888
-0.343301
-0.320894
-0.419794
-0.416264
-0.41263
-0.408257
-0.402727
-0.395001
-0.383308
-0.367015
-0.34242
-0.318842
-0.42586
-0.421315
-0.416839
-0.411571
-0.405091
-0.396294
-0.383446
-0.36588
-0.340971
-0.316069
-0.432389
-0.426786
-0.421447
-0.415243
-0.407719
-0.397699
-0.383503
-0.364496
-0.338961
-0.312922
-0.439454
-0.432746
-0.42653
-0.419349
-0.410664
-0.399245
-0.383479
-0.362852
-0.336462
-0.309437
-0.447116
-0.439252
-0.432149
-0.423933
-0.413949
-0.400922
-0.383339
-0.360928
-0.333528
-0.30566
-0.45541
-0.446342
-0.438339
-0.429008
-0.417556
-0.402676
-0.383021
-0.358696
-0.330201
-0.301583
-0.464343
-0.454027
-0.445102
-0.43455
-0.421429
-0.404411
-0.382447
-0.356126
-0.326502
-0.297192
-0.473889
-0.462292
-0.452408
-0.440498
-0.425461
-0.405999
-0.381532
-0.353179
-0.322429
-0.292461
-0.483983
-0.471088
-0.460187
-0.446749
-0.429505
-0.407297
-0.380188
-0.349811
-0.317964
-0.287354
-0.494523
-0.480326
-0.468332
-0.45316
-0.433373
-0.408151
-0.378323
-0.34597
-0.313072
-0.28183
-0.505367
-0.489883
-0.476694
-0.459539
-0.436856
-0.408407
-0.375846
-0.341597
-0.307704
-0.275844
-0.516334
-0.499591
-0.485085
-0.465652
-0.439732
-0.407916
-0.372664
-0.336624
-0.301805
-0.269346
-0.5272
-0.509243
-0.493272
-0.471235
-0.441779
-0.406533
-0.368683
-0.33098
-0.295313
-0.262285
-0.537709
-0.518594
-0.500985
-0.475999
-0.442778
-0.404118
-0.36381
-0.324591
-0.288163
-0.254612
-0.547568
-0.527361
-0.507916
-0.479652
-0.442521
-0.400541
-0.357951
-0.317379
-0.280288
-0.246279
-0.556457
-0.535234
-0.513737
-0.481904
-0.440817
-0.395676
-0.351015
-0.309269
-0.271625
-0.237242
-0.564037
-0.54188
-0.518103
-0.482481
-0.437487
-0.389409
-0.342916
-0.300186
-0.262113
-0.227464
-0.569957
-0.546953
-0.520675
-0.481128
-0.432374
-0.381635
-0.333573
-0.290063
-0.251699
-0.216917
-0.573864
-0.5501
-0.521126
-0.477619
-0.425338
-0.372259
-0.322909
-0.278838
-0.240343
-0.205584
-0.575416
-0.550978
-0.519157
-0.471758
-0.416261
-0.361199
-0.310856
-0.266451
-0.228008
-0.193451
-0.574287
-0.549261
-0.514507
-0.463383
-0.40505
-0.348389
-0.297359
-0.252853
-0.214647
-0.180457
-0.570181
-0.544651
-0.506954
-0.452369
-0.391635
-0.333781
-0.28238
-0.238008
-0.200197
-0.166435
-0.562837
-0.53689
-0.496327
-0.438629
-0.375968
-0.317343
-0.265894
-0.221902
-0.184624
-0.151164
-0.552041
-0.52577
-0.482497
-0.422111
-0.358031
-0.299061
-0.247889
-0.204535
-0.167984
-0.13471
-0.537624
-0.511138
-0.465385
-0.402798
-0.337824
-0.278931
-0.228357
-0.185924
-0.150313
-0.117795
-0.519474
-0.492895
-0.444958
-0.38071
-0.315374
-0.256972
-0.207339
-0.166163
-0.131505
-0.100303
-0.497534
-0.471
-0.421232
-0.355904
-0.290735
-0.23324
-0.184969
-0.145189
-0.111699
-0.0820816
-0.471803
-0.445469
-0.394277
-0.328472
-0.263987
-0.207859
-0.161212
-0.123068
-0.0909872
-0.0631176
-0.442334
-0.41638
-0.36424
-0.298517
-0.235217
-0.180871
-0.136151
-0.0998786
-0.0694346
-0.0434726
-0.409232
-0.383879
-0.331335
-0.26609
-0.204539
-0.15237
-0.10988
-0.0757108
-0.0471141
-0.0232458
-0.372669
-0.348183
-0.295659
-0.231311
-0.172112
-0.122486
-0.0825101
-0.0506597
-0.0241108
-0.00254885
-0.332877
-0.309591
-0.256856
-0.194708
-0.138123
-0.0913651
-0.0541659
-0.024828
-0.00051024
0.0185314
-0.290074
-0.268337
-0.215442
-0.156296
-0.102772
-0.0591716
-0.0249843
0.00167686
0.0236004
0.0399047
-0.244453
-0.223973
-0.172645
-0.116335
-0.0662439
-0.0260772
0.00489799
0.0287539
0.0480783
0.0612336
-0.196392
-0.177454
-0.128307
-0.0751083
-0.0287471
0.00774788
0.0353637
0.0563176
0.0726409
0.081695
-0.146428
-0.129025
-0.0825723
-0.0328826
0.00949094
0.0421291
0.0663044
0.0842637
0.0969485
0.100704
-0.0947918
-0.0791635
-0.0357379
0.0100708
0.0482318
0.0768783
0.0975596
0.112355
0.120902
0.120003
-0.0419024
-0.0282821
0.0118449
0.0534661
0.0872307
0.111786
0.128877
0.140193
0.14449
0.144506
0.0117997
0.0232207
0.0598093
0.0970059
0.126238
0.146624
0.159989
0.167646
0.168607
0.169042
0.065871
0.0749395
0.107786
0.140386
0.164998
0.181164
0.190724
0.194782
0.192904
0.192233
0.119865
0.126463
0.155408
0.183301
0.20325
0.215176
0.220909
0.221477
0.216944
0.214415
0.173333
0.177377
0.202311
0.225444
0.240734
0.24844
0.250374
0.247555
0.240386
0.235587
0.225832
0.227273
0.248137
0.266514
0.277195
0.280739
0.278942
0.272834
0.263039
0.255783
0.276924
0.275747
0.292538
0.306217
0.312383
0.311862
0.306434
0.29714
0.284753
0.274966
0.326185
0.322409
0.335175
0.344266
0.346056
0.341604
0.332672
0.320315
0.305401
0.293078
0.373204
0.366882
0.375725
0.380389
0.377981
0.369767
0.357487
0.34221
0.324865
0.310047
0.417589
0.408807
0.413879
0.414323
0.407936
0.396162
0.380719
0.362685
0.343033
0.325799
0.458969
0.447846
0.449345
0.445823
0.435713
0.420611
0.402214
0.381613
0.359798
0.34026
0.496999
0.483683
0.481854
0.47466
0.461116
0.442949
0.421832
0.398871
0.37506
0.35336
0.531358
0.516029
0.511156
0.500623
0.483966
0.463022
0.439442
0.414349
0.388726
0.365035
0.561759
0.54462
0.537026
0.523521
0.5041
0.480692
0.454927
0.427946
0.40071
0.375226
0.587942
0.569222
0.559264
0.543185
0.521374
0.495835
0.468183
0.439571
0.410938
0.383883
0.609684
0.589633
0.577695
0.559466
0.535661
0.508344
0.479117
0.449145
0.419344
0.39096
0.626795
0.605681
0.592173
0.57224
0.546856
0.51813
0.487653
0.456604
0.425871
0.39642
0.639122
0.617227
0.602578
0.581407
0.554873
0.525119
0.493729
0.461892
0.430477
0.400242
0.64655
0.624167
0.608821
0.58689
0.559647
0.529256
0.497298
0.464971
0.433133
0.402419
0.649002
0.626431
0.610842
0.58864
0.561135
0.530504
0.49833
0.465812
0.433814
0.402904
0.646438
0.623983
0.608612
0.586629
0.559316
0.528846
0.496808
0.464403
0.432497
0.401703
0.63886
0.616825
0.602129
0.58086
0.55419
0.524281
0.492733
0.460744
0.429188
0.398796
0.626306
0.604991
0.591426
0.571357
0.545779
0.51683
0.486123
0.454851
0.423906
0.394218
0.608854
0.588552
0.576561
0.558173
0.534127
0.50653
0.477009
0.446753
0.416675
0.387985
0.586622
0.567612
0.557626
0.541383
0.5193
0.493436
0.46544
0.43649
0.407528
0.380113
0.559764
0.542311
0.534738
0.521089
0.501385
0.477624
0.451479
0.424118
0.396512
0.37063
0.528469
0.512821
0.508047
0.497416
0.480489
0.459185
0.435205
0.409705
0.383682
0.359573
0.492964
0.479346
0.477727
0.470514
0.456739
0.438227
0.41671
0.393332
0.369107
0.346987
0.453509
0.442121
0.44398
0.440551
0.43028
0.414875
0.3961
0.375089
0.352864
0.332926
0.410395
0.401411
0.407032
0.407722
0.401278
0.389269
0.373495
0.35508
0.335039
0.317448
0.363944
0.357507
0.367133
0.372239
0.369912
0.361563
0.349027
0.333417
0.315726
0.300619
0.314505
0.310728
0.324557
0.334331
0.33638
0.331926
0.322838
0.310222
0.295026
0.282511
0.262453
0.261414
0.279596
0.294248
0.300892
0.300537
0.295082
0.285627
0.273047
0.263197
0.208185
0.209928
0.232562
0.252252
0.263672
0.267586
0.265922
0.259772
0.2499
0.242749
0.152116
0.156651
0.183783
0.208621
0.224957
0.233275
0.235532
0.232807
0.225704
0.221233
0.0946782
0.10198
0.1336
0.163644
0.18499
0.197811
0.204089
0.204897
0.200584
0.198696
0.0363171
0.0463231
0.082369
0.11762
0.144026
0.161407
0.171777
0.176222
0.1747
0.175161
-0.0225144
-0.00990263
0.0304521
0.0708538
0.102325
0.124284
0.138774
0.146971
0.148254
0.150567
-0.0813579
-0.0662755
-0.0217796
0.023658
0.0601505
0.0866644
0.105249
0.117324
0.121632
0.124941
-0.139754
-0.122374
-0.0739501
-0.0236549
0.0177703
0.0487865
0.0713747
0.087405
0.0953353
0.0979678
-0.197244
-0.177783
-0.125681
-0.0707739
-0.0245541
0.0108869
0.037327
0.0571066
0.0696924
0.0712014
-0.253372
-0.232089
-0.176594
-0.117394
-0.0665672
-0.0268003
0.00338845
0.0265466
0.0436499
0.0503431
-0.307702
-0.284861
-0.226329
-0.16322
-0.108017
-0.0640596
-0.0301676
-0.00381794
0.0172301
0.0298749
-0.359969
-0.335601
-0.274586
-0.207968
-0.148657
-0.100699
-0.0631727
-0.0337143
-0.00942509
0.007762
-0.409645
-0.384015
-0.321231
-0.251349
-0.188252
-0.136542
-0.0955231
-0.0630438
-0.0359535
-0.0153296
-0.456309
-0.429141
-0.366446
-0.293051
-0.226597
-0.171415
-0.127107
-0.0917355
-0.0620667
-0.0384679
-0.499735
-0.471317
-0.40907
-0.332789
-0.263516
-0.20514
-0.157786
-0.119694
-0.0876209
-0.0612879
-0.539686
-0.510382
-0.447988
-0.370901
-0.298808
-0.23754
-0.187419
-0.14681
-0.112529
-0.0837023
-0.575911
-0.546059
-0.483999
-0.406455
-0.332172
-0.268461
-0.215878
-0.172977
-0.136704
-0.105623
-0.60821
-0.578081
-0.517019
-0.439225
-0.363496
-0.29777
-0.24304
-0.198096
-0.16006
-0.126931
-0.636445
-0.606244
-0.546744
-0.469273
-0.39267
-0.325336
-0.268804
-0.222072
-0.182526
-0.14752
-0.660534
-0.630428
-0.57297
-0.496516
-0.419577
-0.35114
-0.293079
-0.244816
-0.204046
-0.167315
-0.680447
-0.650582
-0.595597
-0.520835
-0.44413
-0.375059
-0.315897
-0.266248
-0.224544
-0.186306
-0.696216
-0.666719
-0.614582
-0.542146
-0.466265
-0.397013
-0.337152
-0.286489
-0.243822
-0.204606
-0.707926
-0.678906
-0.629926
-0.560405
-0.485941
-0.416967
-0.356765
-0.305381
-0.261814
-0.222467
-0.715725
-0.68727
-0.641679
-0.575606
-0.50314
-0.434914
-0.374728
-0.322927
-0.278783
-0.239422
-0.719814
-0.691998
-0.649941
-0.587778
-0.517871
-0.450866
-0.39106
-0.339148
-0.294657
-0.255012
-0.720445
-0.693331
-0.654863
-0.596984
-0.530162
-0.464848
-0.405786
-0.354039
-0.309378
-0.269381
-0.717917
-0.691565
-0.656642
-0.603324
-0.540068
-0.4769
-0.418933
-0.367616
-0.322985
-0.282806
-0.712562
-0.687037
-0.655521
-0.606935
-0.547668
-0.487077
-0.430552
-0.379929
-0.335548
-0.295425
-0.704745
-0.680111
-0.651792
-0.607991
-0.55306
-0.495451
-0.440708
-0.391041
-0.347123
-0.307278
-0.694846
-0.671172
-0.645784
-0.606704
-0.556367
-0.502107
-0.449474
-0.401024
-0.35776
-0.318387
-0.683252
-0.660609
-0.637858
-0.603315
-0.557731
-0.50714
-0.456928
-0.409946
-0.367514
-0.328783
-0.670348
-0.648803
-0.628389
-0.598093
-0.557311
-0.510651
-0.463151
-0.417881
-0.37645
-0.33851
-0.656505
-0.636124
-0.61776
-0.591333
-0.555284
-0.512749
-0.468225
-0.424906
-0.38464
-0.347626
-0.642071
-0.622911
-0.606337
-0.583345
-0.551842
-0.513546
-0.472232
-0.431097
-0.39216
-0.356196
-0.627361
-0.609475
-0.594462
-0.574447
-0.547192
-0.513159
-0.475252
-0.436527
-0.399085
-0.364292
-0.612654
-0.596086
-0.582437
-0.564954
-0.541551
-0.511708
-0.477357
-0.441262
-0.40549
-0.371988
-0.598186
-0.582972
-0.570521
-0.555162
-0.535145
-0.509319
-0.478617
-0.445362
-0.411443
-0.379361
-0.584151
-0.570314
-0.558921
-0.545333
-0.528204
-0.506119
-0.479093
-0.448874
-0.417006
-0.386491
-0.570702
-0.55825
-0.547801
-0.535682
-0.520952
-0.502243
-0.478842
-0.451832
-0.422231
-0.393456
-0.557951
-0.546877
-0.537277
-0.526372
-0.513595
-0.497835
-0.477921
-0.454262
-0.427155
-0.400334
-0.545983
-0.536255
-0.527427
-0.517515
-0.506309
-0.493043
-0.476392
-0.456179
-0.4318
-0.407207
-0.534859
-0.526419
-0.518296
-0.509187
-0.49923
-0.48802
-0.474329
-0.457593
-0.436177
-0.414149
-0.524623
-0.517388
-0.509905
-0.501437
-0.492457
-0.482912
-0.471827
-0.45852
-0.440271
-0.421261
-0.515318
-0.509173
-0.502261
-0.494301
-0.486067
-0.477857
-0.469003
-0.458987
-0.444072
-0.428596
-0.506979
-0.501786
-0.495373
-0.487813
-0.480132
-0.472982
-0.466001
-0.459052
-0.447533
-0.436351
-0.499644
-0.495239
-0.489252
-0.482011
-0.474736
-0.468413
-0.462985
-0.458795
-0.450694
-0.444376
-0.493339
-0.489538
-0.483915
-0.476939
-0.469975
-0.464291
-0.460126
-0.458346
-0.453515
-0.452943
-0.48807
-0.484683
-0.479372
-0.472641
-0.465947
-0.460768
-0.45762
-0.457868
-0.455989
-0.460818
-0.483783
-0.480672
-0.475621
-0.469142
-0.462732
-0.457991
-0.455715
-0.457388
-0.459299
-0.460568
-0.480429
-0.477443
-0.47263
-0.466442
-0.460374
-0.456075
-0.454632
-0.457082
-0.463344
-0.462724
-0.477909
-0.474918
-0.470333
-0.464497
-0.458866
-0.455083
-0.454497
-0.457363
-0.467613
-0.466717
-0.476095
-0.472983
-0.468637
-0.463222
-0.458141
-0.454995
-0.455316
-0.45858
-0.471872
-0.471137
-0.47482
-0.471514
-0.467422
-0.462498
-0.458084
-0.455714
-0.456982
-0.460857
-0.476047
-0.476002
-0.473904
-0.470375
-0.466555
-0.462184
-0.458538
-0.457069
-0.459314
-0.46409
-0.480178
-0.481781
-0.473164
-0.469426
-0.4659
-0.46213
-0.459325
-0.458847
-0.462089
-0.467996
-0.484338
-0.488504
-0.47243
-0.468532
-0.465322
-0.462182
-0.460257
-0.46081
-0.465051
-0.472192
-0.48853
-0.495705
-0.471541
-0.467562
-0.464689
-0.46219
-0.461146
-0.46272
-0.467928
-0.476293
-0.492602
-0.502768
-0.470356
-0.466397
-0.46388
-0.46201
-0.461813
-0.464347
-0.470455
-0.479939
-0.496283
-0.509155
-0.468756
-0.464928
-0.462778
-0.46151
-0.462092
-0.465482
-0.472381
-0.482816
-0.499244
-0.514336
-0.466641
-0.463061
-0.461282
-0.460567
-0.461833
-0.465945
-0.473493
-0.484667
-0.501181
-0.518028
-0.46394
-0.460717
-0.459306
-0.459082
-0.460918
-0.465593
-0.473619
-0.485295
-0.501834
-0.519967
-0.460604
-0.457839
-0.456782
-0.456977
-0.459256
-0.464324
-0.472635
-0.484557
-0.500997
-0.519935
-0.456616
-0.454394
-0.45367
-0.454205
-0.456796
-0.46208
-0.470468
-0.482367
-0.49853
-0.517762
-0.451987
-0.450374
-0.449957
-0.450751
-0.453524
-0.458851
-0.467103
-0.478688
-0.494372
-0.513329
-0.446757
-0.445803
-0.445661
-0.446637
-0.449469
-0.454673
-0.462578
-0.473522
-0.48855
-0.5066
-0.440997
-0.440731
-0.440828
-0.441916
-0.444697
-0.449627
-0.457007
-0.467214
-0.480857
-0.497684
-0.434801
-0.43523
-0.435537
-0.436677
-0.43931
-0.443834
-0.450509
-0.459675
-0.471717
-0.486765
-0.428291
-0.4294
-0.429893
-0.431032
-0.43344
-0.437447
-0.44326
-0.451148
-0.461331
-0.474063
-0.481119
-0.508509
-0.527331
-0.511412
-0.449967
-0.367546
-0.302101
-0.281021
-0.29313
-0.3044
-0.272892
-0.206324
-0.152917
-0.11935
-0.105237
-0.115177
-0.126929
-0.12797
-0.111754
-0.0890897
-0.0817281
-0.0666087
-0.0487857
-0.0651792
-0.0767217
-0.0671408
-0.0478445
-0.0460734
-0.0225687
-0.017412
-0.46119
-0.482656
-0.497054
-0.480909
-0.425617
-0.35294
-0.298155
-0.289078
-0.310858
-0.323334
-0.287731
-0.215446
-0.156958
-0.119048
-0.102512
-0.109164
-0.118316
-0.119893
-0.106642
-0.0875698
-0.081369
-0.0671218
-0.0499614
-0.0663963
-0.077931
-0.0676178
-0.0478284
-0.0459153
-0.022931
-0.0174163
-0.440736
-0.455658
-0.46502
-0.448309
-0.398887
-0.33597
-0.292251
-0.295549
-0.327396
-0.340426
-0.301135
-0.22362
-0.160515
-0.118597
-0.0997827
-0.10324
-0.109905
-0.111817
-0.101402
-0.0859632
-0.0809331
-0.0677097
-0.0512261
-0.0676133
-0.079108
-0.0680546
-0.0477729
-0.0457827
-0.0233592
-0.0174256
-0.420413
-0.428263
-0.432001
-0.414111
-0.370254
-0.316776
-0.284381
-0.300228
-0.342268
-0.355423
-0.313045
-0.230841
-0.163616
-0.11804
-0.0970916
-0.0974905
-0.10179
-0.103828
-0.0960672
-0.0842723
-0.0804227
-0.0683734
-0.0525768
-0.068823
-0.080243
-0.068449
-0.0476778
-0.0456773
-0.0238502
-0.0174403
-0.400789
-0.401166
-0.398942
-0.379052
-0.340147
-0.295696
-0.274627
-0.302947
-0.35503
-0.373733
-0.323437
-0.237112
-0.166288
-0.117417
-0.0944744
-0.0919921
-0.0940557
-0.0960178
-0.0906781
-0.0825005
-0.0798402
-0.0691125
-0.0540086
-0.0700186
-0.0813266
-0.0687988
-0.047543
-0.0455997
-0.0244007
-0.0174608
-0.38233
-0.375035
-0.366976
-0.343997
-0.309215
-0.27318
-0.263144
-0.303591
-0.365142
-0.38452
-0.332154
-0.242446
-0.168559
-0.116765
-0.0919617
-0.0868085
-0.08677
-0.088475
-0.0852808
-0.0806527
-0.079189
-0.0699252
-0.0555148
-0.0711933
-0.0823499
-0.0691022
-0.0473681
-0.0455501
-0.0250075
-0.0174872
-0.365434
-0.350429
-0.337543
-0.309832
-0.27827
-0.249804
-0.250201
-0.302108
-0.372382
-0.392976
-0.339196
-0.246868
-0.170462
-0.116117
-0.0895791
-0.0819891
-0.0799889
-0.0812849
-0.079926
-0.0787354
-0.078472
-0.0708084
-0.0570867
-0.0723411
-0.0833048
-0.0693572
-0.0471528
-0.045528
-0.0256666
-0.0175195
-0.350378
-0.327722
-0.308849
-0.277363
-0.248144
-0.226255
-0.236151
-0.298517
-0.376656
-0.39904
-0.34457
-0.250409
-0.172024
-0.1155
-0.0873471
-0.0775683
-0.0737539
-0.0745221
-0.0746694
-0.0767566
-0.0776926
-0.0717581
-0.0587141
-0.073456
-0.0841836
-0.0695616
-0.0468968
-0.0455321
-0.0263725
-0.0175576
-0.337342
-0.307291
-0.281868
-0.247389
-0.219632
-0.203315
-0.221412
-0.292912
-0.377966
-0.40266
-0.34831
-0.253109
-0.173277
-0.114938
-0.0852808
-0.0735646
-0.0680913
-0.0682508
-0.0695716
-0.0747263
-0.0768536
-0.0727692
-0.0603854
-0.074532
-0.0849792
-0.0697134
-0.0465999
-0.0455606
-0.0271193
-0.017601
-0.326431
-0.289463
-0.258222
-0.220514
-0.19409
-0.181191
-0.206404
-0.285452
-0.37642
-0.403881
-0.35047
-0.255011
-0.174246
-0.11445
-0.0833907
-0.069982
-0.0630126
-0.0625241
-0.0646953
-0.0726565
-0.0759573
-0.0738362
-0.062088
-0.0755636
-0.0856856
-0.0698103
-0.046262
-0.045611
-0.0279005
-0.017649
-0.317687
-0.274434
-0.238261
-0.196949
-0.171546
-0.160999
-0.191519
-0.276368
-0.37221
-0.402805
-0.351112
-0.25616
-0.17496
-0.11405
-0.081683
-0.0668127
-0.0585138
-0.0573795
-0.0601018
-0.0705609
-0.0750056
-0.0749529
-0.0638083
-0.0765453
-0.0862974
-0.0698499
-0.0458831
-0.0456801
-0.028709
-0.0177009
-0.311134
-0.262266
-0.221877
-0.176892
-0.152293
-0.143146
-0.177103
-0.265943
-0.365601
-0.399592
-0.350315
-0.256604
-0.175445
-0.113751
-0.0801628
-0.0640401
-0.054577
-0.0528385
-0.0558479
-0.0684551
-0.0739991
-0.0761128
-0.0655324
-0.0774715
-0.08681
-0.0698296
-0.0454632
-0.0457646
-0.0295366
-0.0177555
-0.306773
-0.252791
-0.208604
-0.161301
-0.135769
-0.127792
-0.163452
-0.254494
-0.356922
-0.394435
-0.348167
-0.2564
-0.175736
-0.113566
-0.0788346
-0.0616408
-0.0511705
-0.0489055
-0.0519822
-0.0663561
-0.0729376
-0.0773088
-0.0672462
-0.078337
-0.0872196
-0.0697468
-0.0450028
-0.0458604
-0.0303745
-0.0178111
-0.303971
-0.245721
-0.19909
-0.148994
-0.122546
-0.114996
-0.150799
-0.242359
-0.346536
-0.387541
-0.344774
-0.255599
-0.175851
-0.113488
-0.0776919
-0.0595799
-0.0482463
-0.0455652
-0.0485419
-0.0642818
-0.0718195
-0.0785338
-0.0689353
-0.0791363
-0.0875236
-0.0695983
-0.0445021
-0.0459614
-0.0312128
-0.0178661
-0.302306
-0.242498
-0.191291
-0.140075
-0.112348
-0.104703
-0.13931
-0.229867
-0.334815
-0.379132
-0.340232
-0.25422
-0.175757
-0.11346
-0.0767016
-0.0578065
-0.0457408
-0.0427771
-0.045548
-0.0622494
-0.070642
-0.0797798
-0.0705861
-0.0798645
-0.0877223
-0.0693811
-0.0439618
-0.0460603
-0.0320412
-0.0179185
-0.301806
-0.241333
-0.186677
-0.13443
-0.104868
-0.0967873
-0.129094
-0.21732
-0.322111
-0.369463
-0.334652
-0.252262
-0.175408
-0.113433
-0.0758379
-0.0562851
-0.0435965
-0.0404876
-0.0430007
-0.0602734
-0.0694003
-0.0810385
-0.072186
-0.0805181
-0.0878163
-0.0690937
-0.0433827
-0.0461553
-0.0328494
-0.0179658
-0.302072
-0.241952
-0.184655
-0.130863
-0.0998571
-0.0910661
-0.120214
-0.204986
-0.308749
-0.358795
-0.328225
-0.249917
-0.175025
-0.113611
-0.0752199
-0.0550766
-0.0418057
-0.0386838
-0.0408987
-0.0583623
-0.0680875
-0.0823004
-0.0737219
-0.0810902
-0.0877926
-0.0687373
-0.0427647
-0.0462583
-0.0336259
-0.0180054
-0.302569
-0.243834
-0.184797
-0.132061
-0.0972149
-0.0873498
-0.112644
-0.193041
-0.294989
-0.347038
-0.321125
-0.247708
-0.175203
-0.114469
-0.0751211
-0.0543094
-0.0403785
-0.0373982
-0.0392587
-0.0565407
-0.0666941
-0.083553
-0.0751593
-0.0815486
-0.0876113
-0.06831
-0.0421083
-0.046382
-0.0343693
-0.0180356
-0.303396
-0.247099
-0.187159
-0.130262
-0.0970595
-0.0856665
-0.106328
-0.181207
-0.280378
-0.333636
-0.312952
-0.245344
-0.175553
-0.115554
-0.0752616
-0.0537243
-0.0390918
-0.0364242
-0.0382905
-0.0548803
-0.0652151
-0.0847941
-0.0764411
-0.0818641
-0.0872955
-0.0678001
-0.0414177
-0.046473
-0.0350733
-0.0180555
-0.303762
-0.250064
-0.191075
-0.134713
-0.0993295
-0.0860427
-0.102596
-0.170989
-0.266016
-0.320788
-0.302857
-0.239651
-0.172527
-0.113852
-0.0738221
-0.0521891
-0.0373201
-0.0349412
-0.0372582
-0.0530465
-0.0636217
-0.0859722
-0.0778676
-0.0823147
-0.0871756
-0.0671893
-0.0406953
-0.0463516
-0.0356128
-0.0180501
-0.28897
-0.244105
-0.186798
-0.130573
-0.0979682
-0.086068
-0.100833
-0.166828
-0.260576
-0.312062
-0.291533
-0.229099
-0.164573
-0.108136
-0.0698198
-0.0491255
-0.0347005
-0.031874
-0.0327582
-0.0483497
-0.0600621
-0.0876809
-0.0816642
-0.0838024
-0.0877558
-0.0664349
-0.0397784
-0.0458207
-0.0358802
-0.017972
-0.27466
-0.234332
-0.181214
-0.13044
-0.100882
-0.0908101
-0.104722
-0.164166
-0.248089
-0.292498
-0.271667
-0.213594
-0.154135
-0.101879
-0.0660621
-0.0461166
-0.0322725
-0.0298371
-0.0319585
-0.046408
-0.0578357
-0.0888571
-0.0851204
-0.0838003
-0.0868625
-0.0649257
-0.0383591
-0.045086
-0.0387796
-0.0180417
-0.261134
-0.224652
-0.176355
-0.131151
-0.105078
-0.0970519
-0.110414
-0.16226
-0.235716
-0.271063
-0.250963
-0.198239
-0.144052
-0.0957585
-0.0622551
-0.0431697
-0.0298916
-0.0279517
-0.0312886
-0.0454726
-0.0565965
-0.0895566
-0.0880152
-0.0832402
-0.0854185
-0.0631387
-0.0367755
-0.0442415
-0.0400866
-0.0181042
-0.248033
-0.215338
-0.172151
-0.132601
-0.109695
-0.103176
-0.115296
-0.159009
-0.219978
-0.248575
-0.229814
-0.182749
-0.133871
-0.0895201
-0.0583851
-0.0402448
-0.0274842
-0.0260621
-0.0304261
-0.0442808
-0.0552574
-0.0899616
-0.0908918
-0.0825168
-0.0835044
-0.0609951
-0.0349911
-0.0432663
-0.0413024
-0.0181065
-0.234359
-0.205848
-0.167852
-0.133821
-0.11379
-0.108281
-0.118605
-0.154041
-0.203059
-0.225682
-0.208786
-0.167495
-0.123825
-0.0832591
-0.0544531
-0.0373043
-0.0249944
-0.0240913
-0.029535
-0.0427024
-0.0535277
-0.0900852
-0.0936902
-0.0814805
-0.0809929
-0.0584491
-0.0329858
-0.0421297
-0.0424345
-0.0180465
-0.219927
-0.196049
-0.163163
-0.134165
-0.116719
-0.111834
-0.120074
-0.147674
-0.185915
-0.203366
-0.18856
-0.152766
-0.114008
-0.0770176
-0.0504595
-0.0343149
-0.0223725
-0.0219448
-0.0284763
-0.0407793
-0.0514415
-0.0897063
-0.0961076
-0.0800009
-0.0778132
-0.0554555
-0.0307341
-0.0407955
-0.0434356
-0.0179148
-0.205164
-0.185924
-0.157902
-0.133344
-0.118191
-0.113669
-0.119788
-0.140445
-0.169397
-0.18244
-0.169604
-0.138765
-0.104511
-0.0708507
-0.0464093
-0.0312423
-0.0195646
-0.0195111
-0.0270952
-0.0384445
-0.0489493
-0.0884793
-0.0978653
-0.0780008
-0.0739132
-0.0519694
-0.0282093
-0.0392166
-0.0442367
-0.0176838
-0.190417
-0.175498
-0.152008
-0.131318
-0.118191
-0.113885
-0.11804
-0.132872
-0.154066
-0.16336
-0.15217
-0.125614
-0.0953924
-0.0647971
-0.0423082
-0.0280507
-0.0165163
-0.0166618
-0.0252049
-0.0354968
-0.0458246
-0.0860848
-0.0986819
-0.075394
-0.0692551
-0.0479496
-0.0253842
-0.0373329
-0.0447477
-0.0173169
-0.175908
-0.164845
-0.145502
-0.128173
-0.116838
-0.112686
-0.115141
-0.125274
-0.140179
-0.146266
-0.136325
-0.113367
-0.0866903
-0.0588875
-0.0381661
-0.0247058
-0.013176
-0.0132478
-0.0225508
-0.0316247
-0.0417302
-0.0822541
-0.098228
-0.0720866
-0.063825
-0.0433634
-0.0222325
-0.0350693
-0.0448617
-0.0167736
-0.161825
-0.154069
-0.138444
-0.124045
-0.1143
-0.110295
-0.111352
-0.117815
-0.12772
-0.131079
-0.12202
-0.102029
-0.0784265
-0.0531454
-0.0339974
-0.0211797
-0.00950046
-0.00910797
-0.0187897
-0.0264223
-0.0362804
-0.0767404
-0.0961488
-0.067992
-0.0576414
-0.0381928
-0.0187298
-0.0323347
-0.0444548
-0.0160096
-0.148285
-0.143273
-0.13092
-0.119082
-0.110754
-0.106917
-0.106881
-0.110535
-0.116534
-0.117617
-0.109148
-0.0915776
-0.070613
-0.0475899
-0.0298207
-0.0174575
-0.00546465
-0.00409859
-0.013506
-0.0194095
-0.0290615
-0.0693526
-0.0921221
-0.0630397
-0.0507616
-0.0324413
-0.014857
-0.0290245
-0.0433872
-0.0149784
-0.13534
-0.132553
-0.123029
-0.113428
-0.10637
-0.102735
-0.101877
-0.103425
-0.106429
-0.105666
-0.0975766
-0.0819707
-0.0632547
-0.042238
-0.0256582
-0.0135444
-0.00107752
0.00186563
-0.00628617
-0.0100988
-0.0196895
-0.0600402
-0.0859184
-0.0571851
-0.0432849
-0.026142
-0.0106034
-0.0250254
-0.0415062
-0.013634
-0.123023
-0.122001
-0.114883
-0.107226
-0.10131
-0.0979116
-0.0964612
-0.0964686
-0.0972288
-0.0950157
-0.0871722
-0.0731603
-0.0563511
-0.0371053
-0.0215353
-0.00947347
0.00360088
0.00875546
0.00316336
0.00184879
-0.00796373
-0.0489794
-0.0774255
-0.0504217
-0.0353518
-0.0193659
-0.0059712
-0.0202241
-0.0386546
-0.0119371
-0.111358
-0.111702
-0.106596
-0.100615
-0.0957215
-0.0925986
-0.0907458
-0.0896602
-0.0887832
-0.0854774
-0.0778088
-0.0650954
-0.0498976
-0.0322069
-0.0174827
-0.00531536
0.0084493
0.0163373
0.0147936
0.0163439
0.00587764
-0.0366136
-0.0666064
-0.0427963
-0.0271355
-0.0122266
-0.000981197
-0.0145225
-0.0346846
-0.00986324
-0.100357
-0.101729
-0.0982796
-0.0937309
-0.089748
-0.0868934
-0.0848308
-0.0830056
-0.0809755
-0.07689
-0.069371
-0.0577245
-0.0438867
-0.027559
-0.0135379
-0.00118488
0.0132855
0.0241033
0.0278486
0.0324006
0.0208071
-0.0235702
-0.0540535
-0.0344441
-0.0188256
-0.00487968
0.00432184
-0.00786123
-0.0294777
-0.0074135
-0.0900281
-0.0921481
-0.0900419
-0.0867041
-0.0835307
-0.0809998
-0.0788185
-0.0765221
-0.073718
-0.0691186
-0.0617554
-0.0509977
-0.0383093
-0.023182
-0.00974656
0.00277581
0.0178716
0.0313944
0.042654
0.0477583
0.0349351
-0.0104224
-0.0401202
-0.0255763
-0.0106151
0.00248564
0.00986499
-0.000253938
-0.0229778
-0.00462819
-0.0803776
-0.0830137
-0.081979
-0.0796544
-0.0771918
-0.0749888
-0.0727957
-0.0702335
-0.066948
-0.0620532
-0.0548706
-0.044868
-0.0331562
-0.0190998
-0.00616661
0.00643218
0.0219425
0.0374456
0.0526915
0.0596733
0.046321
0.00240489
-0.0254766
-0.0164734
-0.00270492
0.00966099
0.0155366
0.00817823
-0.0152342
-0.00159969
-0.0714053
-0.0743717
-0.0741762
-0.0726894
-0.0708444
-0.0689671
-0.0668413
-0.0641679
-0.0606224
-0.055606
-0.0486376
-0.0392926
-0.02842
-0.0153354
-0.00286572
0.00967706
0.0252786
0.0418427
0.0585863
0.0667526
0.0540788
0.0143732
-0.0111499
-0.00748663
0.00470875
0.0164369
0.0211598
0.0171777
-0.00645451
0.00152088
-0.0631081
-0.0662586
-0.0667075
-0.0659041
-0.0645903
-0.063029
-0.0610268
-0.0583548
-0.054714
-0.0497091
-0.0429904
-0.0342341
-0.0240956
-0.0119065
9.19987e-05
0.0124381
0.0277416
0.0444252
0.0606885
0.0693431
0.0584462
0.0246872
0.00178083
0.00103177
0.0114621
0.0226167
0.0264978
0.026296
0.00294343
0.0045358
-0.0554801
-0.0587027
-0.0596351
-0.0593826
-0.0585204
-0.057257
-0.0554158
-0.0528247
-0.0492077
-0.0443121
-0.0378752
-0.0296605
-0.0201784
-0.0088233
0.00266286
0.0146833
0.0293152
0.0453674
0.0601862
0.0687353
0.0601312
0.0327086
0.0125997
0.00882335
0.0174554
0.0280374
0.0313111
0.0348368
0.01231
0.00724184
-0.0485137
-0.0517256
-0.0530113
-0.053196
-0.0527136
-0.0517251
-0.0500662
-0.0476084
-0.0440982
-0.0393802
-0.0332506
-0.0255444
-0.0166626
-0.00608838
0.00483287
0.0164169
0.0300958
0.0450421
0.0581882
0.0661787
0.0599148
0.0383203
0.021096
0.0157339
0.0226601
0.032597
0.035402
0.0419472
0.0208585
0.00947258
-0.0422009
-0.0453438
-0.046879
-0.0474058
-0.047238
-0.0464984
-0.0450302
-0.0427368
-0.0393874
-0.0348912
-0.029086
-0.0218621
-0.0135395
-0.00369677
0.00661511
0.017671
0.0302514
0.0438648
0.055452
0.0626447
0.0585016
0.0418956
0.02752
0.0216849
0.0270901
0.0362536
0.0386661
0.04688
0.027913
0.0111316
-0.0365345
-0.0395702
-0.0412747
-0.0420651
-0.0421515
-0.0416347
-0.0403556
-0.0382411
-0.0350838
-0.0308336
-0.0253596
-0.0185942
-0.0107962
-0.00163748
0.00804386
0.0185009
0.0299628
0.0421995
0.0524417
0.0588109
0.0564292
0.0439474
0.0322535
0.0266611
0.0307818
0.0390145
0.0410747
0.0492461
0.033014
0.0123277
-0.0315097
-0.034417
-0.03623
-0.037222
-0.0375188
-0.037191
-0.0360886
-0.0341535
-0.031201
-0.0272047
-0.0220583
-0.015725
-0.00841716
0.000106342
0.00916351
0.0189799
0.0293939
0.0403241
0.0494388
0.0550976
0.0540776
0.0449394
0.0356597
0.030697