/*--------------------------------*- C++ -*----------------------------------*\
  =========                 |
  \\      /  F ield         | OpenFOAM: The Open Source CFD Toolbox
   \\    /   O peration     | Website:  https://openfoam.org
    \\  /    A nd           | Version:  7
     \\/     M anipulation  |
\*---------------------------------------------------------------------------*/
FoamFile
{
    version     2.0;
    format      ascii;
    class       volVectorField;
    location    "125";
    object      U;
}
// * * * * * * * * * * * * * * * * * * * * * * * * * * * * * * * * * * * * * //

dimensions      [0 1 -1 0 0 0 0];

internalField   nonuniform List<vector> 
8500
(
(0.000461705 -0.0681288 1.09337e-21)
(-0.0031987 -0.156558 -3.13409e-21)
(-0.014624 -0.210223 -3.65413e-21)
(-0.030696 -0.237222 3.63554e-21)
(-0.0493773 -0.247214 -3.34751e-21)
(-0.0687254 -0.248716 -1.79587e-21)
(-0.0873329 -0.247125 3.10048e-21)
(-0.10451 -0.244287 3.85312e-21)
(-0.11961 -0.239175 -6.36929e-22)
(-0.132201 -0.228455 1.92548e-21)
(0.00243983 -0.0657258 -1.21046e-21)
(-1.8538e-06 -0.150169 3.72742e-21)
(-0.0126099 -0.20093 -8.56755e-21)
(-0.0307767 -0.226227 7.77339e-21)
(-0.0518995 -0.235644 3.72453e-22)
(-0.0737715 -0.237413 5.80608e-21)
(-0.0949777 -0.236597 -1.01283e-20)
(-0.115031 -0.234766 -1.49437e-20)
(-0.13347 -0.230705 -2.89334e-21)
(-0.150195 -0.220949 6.64053e-21)
(0.00417562 -0.062444 1.05181e-21)
(0.00271296 -0.142175 7.92231e-21)
(-0.0110197 -0.189929 1.87763e-20)
(-0.0310102 -0.213697 -1.70134e-20)
(-0.0541263 -0.222769 -3.78243e-21)
(-0.0779074 -0.224967 -3.5163e-21)
(-0.100906 -0.224972 1.78743e-20)
(-0.122795 -0.224062 1.13628e-20)
(-0.143241 -0.220844 2.9347e-21)
(-0.16234 -0.211785 -2.04243e-20)
(0.00559276 -0.0583648 3.70443e-21)
(0.00483223 -0.132762 -4.69379e-21)
(-0.00994469 -0.17746 -3.43765e-20)
(-0.0314589 -0.199895 3.10991e-21)
(-0.0561012 -0.208866 9.51243e-21)
(-0.0811672 -0.211684 -7.30879e-21)
(-0.105142 -0.212605 -6.64511e-22)
(-0.127793 -0.212607 -2.93444e-21)
(-0.148847 -0.210091 6.87655e-21)
(-0.168419 -0.201491 1.96275e-20)
(0.00662634 -0.053589 2.51543e-21)
(0.00626196 -0.122142 -1.44561e-20)
(-0.00946051 -0.163777 3.50907e-20)
(-0.0321787 -0.185085 -1.57697e-20)
(-0.0578734 -0.194206 -9.73639e-23)
(-0.0836108 -0.197862 2.18938e-20)
(-0.107766 -0.199858 -1.02135e-20)
(-0.130128 -0.200858 1.28124e-21)
(-0.150408 -0.199009 -4.18263e-21)
(-0.168499 -0.190677 1.01779e-21)
(0.00722574 -0.0482322 2.99956e-20)
(0.00693298 -0.110542 3.68615e-20)
(-0.00961908 -0.149139 -9.57101e-21)
(-0.0332057 -0.169521 1.81336e-20)
(-0.0594792 -0.179039 5.53221e-21)
(-0.0852979 -0.18377 -8.21189e-21)
(-0.108886 -0.187063 -3.09061e-21)
(-0.12997 -0.189259 -1.31185e-20)
(-0.148187 -0.188185 2.82161e-21)
(-0.162865 -0.180003 -1.7169e-20)
(0.00735705 -0.0424214 -2.88637e-20)
(0.00680607 -0.0982016 -1.91371e-20)
(-0.0104397 -0.133803 1.53316e-20)
(-0.0345424 -0.153445 -2.65201e-20)
(-0.0609188 -0.163588 2.84243e-21)
(-0.0862509 -0.169634 3.09754e-20)
(-0.108579 -0.174493 -5.53508e-21)
(-0.127486 -0.178191 3.62124e-20)
(-0.142499 -0.178173 -1.08597e-21)
(-0.151902 -0.170152 -1.40444e-20)
(0.00700536 -0.0362921 2.35569e-20)
(0.00587665 -0.0853655 -4.30347e-20)
(-0.0119007 -0.118025 -1.71527e-20)
(-0.0361425 -0.137081 2.0394e-20)
(-0.0621316 -0.148037 4.7167e-22)
(-0.0864142 -0.155617 -5.77884e-20)
(-0.106825 -0.162327 -3.19062e-21)
(-0.122735 -0.16792 -2.80601e-20)
(-0.13357 -0.169422 -3.54264e-20)
(-0.135923 -0.161744 2.03453e-20)
(0.00617657 -0.0299862 -1.31069e-20)
(0.00417856 -0.0722831 6.47748e-21)
(-0.0139324 -0.102055 1.57414e-20)
(-0.0378994 -0.120635 -1.37669e-20)
(-0.0629732 -0.132535 -4.90584e-20)
(-0.0856125 -0.141814 1.70256e-20)
(-0.103438 -0.150629 2.57328e-21)
(-0.115548 -0.158538 4.15527e-20)
(-0.121372 -0.16218 5.30106e-20)
(-0.114933 -0.155234 -2.33923e-20)
(0.00489864 -0.0236498 2.02246e-20)
(0.00178621 -0.059207 1.85584e-20)
(-0.0164137 -0.0861405 -2.71853e-21)
(-0.0396378 -0.104302 6.91681e-20)
(-0.0632006 -0.117203 2.94424e-20)
(-0.0835208 -0.128259 2.19905e-20)
(-0.0980058 -0.139343 3.07076e-20)
(-0.105429 -0.149928 -1.35912e-20)
(-0.105452 -0.156419 -1.75627e-20)
(-0.0883826 -0.150771 -2.69749e-20)
(0.00322202 -0.0174312 -2.12069e-21)
(-0.00118561 -0.046391 -2.92638e-20)
(-0.0191727 -0.0705307 -2.10829e-20)
(-0.0411148 -0.0882775 -3.39545e-20)
(-0.0624696 -0.102151 -2.68209e-20)
(-0.0796542 -0.114949 2.69049e-20)
(-0.0898676 -0.128318 -2.55678e-20)
(-0.0914924 -0.141767 -1.74114e-20)
(-0.0848252 -0.151773 2.22545e-21)
(-0.0550317 -0.148006 7.59692e-21)
(0.0012185 -0.0114774 -5.5095e-20)
(-0.00458502 -0.0340886 2.66093e-20)
(-0.021993 -0.0554784 1.95039e-20)
(-0.0420295 -0.0727635 1.30085e-20)
(-0.06035 -0.0875004 -2.3672e-20)
(-0.0733885 -0.101885 -1.99027e-20)
(-0.0781346 -0.117362 2.85408e-20)
(-0.0724866 -0.133575 -2.28467e-20)
(-0.0579712 -0.147555 -1.72746e-21)
(-0.0130799 -0.145783 -2.16125e-20)
(-0.00102158 -0.00592934 4.5889e-20)
(-0.00822988 -0.0225472 1.88364e-20)
(-0.0246243 -0.0412413 1.15468e-21)
(-0.0420412 -0.0579826 -2.36868e-20)
(-0.0563571 -0.0734071 1.76259e-21)
(-0.0640141 -0.0891132 2.61173e-20)
(-0.0617798 -0.106334 -7.2886e-21)
(-0.0469223 -0.124868 -8.61515e-21)
(-0.0228158 -0.143 -1.83735e-20)
(0.0393936 -0.142007 3.32702e-20)
(-0.00339357 -0.000915556 3.08706e-20)
(-0.0119171 -0.0120008 -5.06491e-20)
(-0.0267978 -0.0280799 -3.92266e-20)
(-0.0407937 -0.0441802 1.69946e-20)
(-0.0499958 -0.0600777 3.47569e-20)
(-0.0508176 -0.0767703 2.93333e-20)
(-0.0397912 -0.0952223 -3.08262e-20)
(-0.0134041 -0.11533 5.8294e-20)
(0.0232547 -0.137694 -1.73497e-20)
(0.104358 -0.134755 -3.75239e-20)
(-0.00578396 0.00345417 -4.64912e-20)
(-0.0154282 -0.00266943 2.81736e-20)
(-0.0282401 -0.0162516 -1.35772e-20)
(-0.0379389 -0.0316202 1.40967e-21)
(-0.040802 -0.0477683 1.4663e-20)
(-0.0331597 -0.0650856 -4.63862e-20)
(-0.0113187 -0.0841733 4.04768e-20)
(0.0288221 -0.104884 -3.88629e-20)
(0.0821781 -0.131068 5.97529e-20)
(0.183922 -0.123555 2.0116e-20)
(-0.00808238 0.00709611 9.85985e-21)
(-0.0185471 0.0052651 5.48242e-20)
(-0.0286804 -0.00599314 -1.38331e-20)
(-0.0331495 -0.0205707 1.40837e-20)
(-0.0283674 -0.0367643 1.64773e-20)
(-0.0105182 -0.0543546 -4.97413e-21)
(0.0243444 -0.0734716 3.5012e-20)
(0.0802229 -0.0938705 2.10761e-21)
(0.153796 -0.122364 -3.73492e-20)
(0.277397 -0.108745 4.78667e-20)
(-0.0101837 0.00996137 -2.63244e-20)
(-0.0210692 0.0116703 -5.19261e-20)
(-0.0278658 0.00249155 4.527e-20)
(-0.0261248 -0.0112778 2.2828e-20)
(-0.0123402 -0.0273387 -1.06045e-19)
(0.0174788 -0.0448772 8.63612e-20)
(0.0675889 -0.0635079 -7.70287e-20)
(0.141196 -0.0828918 1.44894e-21)
(0.237593 -0.111307 -1.59135e-20)
(0.380327 -0.0906037 -4.34283e-20)
(-0.0119961 0.0120354 2.28741e-20)
(-0.0227984 0.0164617 -3.11971e-21)
(-0.0255512 0.00905156 -1.11088e-20)
(-0.0165766 -0.00393434 -1.26996e-21)
(0.0076124 -0.0197047 -6.68826e-21)
(0.0511573 -0.0369124 -2.74285e-20)
(0.118557 -0.0545342 1.1346e-20)
(0.211573 -0.0723259 -1.80295e-20)
(0.33292 -0.0975725 5.7936e-21)
(0.486329 -0.069609 1.62016e-21)
(-0.0134454 0.0133386 -4.67236e-20)
(-0.0235532 0.0196169 -3.41365e-21)
(-0.0214913 0.0136064 5.16757e-21)
(-0.004207 0.00134408 2.11658e-21)
(0.0318256 -0.0139944 3.48128e-20)
(0.0908615 -0.0305591 -1.01431e-19)
(0.177393 -0.0465798 6.74912e-20)
(0.291022 -0.0623302 -4.98667e-20)
(0.438098 -0.0801569 3.92264e-20)
(0.589147 -0.0471714 4.0065e-20)
(-0.0144755 0.013923 -5.7375e-21)
(-0.0231625 0.021177 2.61464e-20)
(-0.0154263 0.0161586 -3.30318e-20)
(0.0113245 0.00453799 -1.04075e-20)
(0.0606981 -0.0101895 2.01103e-20)
(0.136954 -0.025694 9.64541e-20)
(0.244174 -0.0394659 -1.90358e-20)
(0.379251 -0.0526213 9.39644e-21)
(0.55003 -0.0584877 -4.63397e-20)
(0.686765 -0.0289139 1.93236e-20)
(-0.0150459 0.0138642 -1.71643e-20)
(-0.0214599 0.0212437 -1.33821e-20)
(-0.00707039 0.0167989 3.27469e-21)
(0.0304167 0.00575935 1.30729e-20)
(0.094705 -0.00809692 -3.8862e-20)
(0.189854 -0.0219987 -1.57579e-20)
(0.318792 -0.0327541 -4.90277e-20)
(0.475314 -0.0422045 4.8506e-20)
(0.663078 -0.0349117 4.90117e-20)
(0.783712 -0.0240964 -1.96371e-20)
(-0.0151236 0.013253 -8.1858e-21)
(-0.0182723 0.0199703 3.33531e-20)
(0.00390441 0.0157152 -3.75464e-20)
(0.0535373 0.00526116 -4.38174e-21)
(0.134389 -0.00735266 -1.77746e-20)
(0.249951 -0.018929 3.8634e-20)
(0.400865 -0.0257676 4.92931e-20)
(0.57699 -0.0299507 -4.60683e-20)
(0.769765 -0.0155635 4.68947e-20)
(0.904327 -0.0162394 5.99491e-21)
(-0.0146758 0.0121849 -2.36895e-20)
(-0.013408 0.0175503 -6.75579e-20)
(0.0178711 0.0131837 6.61274e-20)
(0.0812214 0.00342344 9.58138e-21)
(0.180314 -0.00741882 1.41155e-20)
(0.317444 -0.0157509 8.31755e-21)
(0.489489 -0.0177147 3.73685e-20)
(0.680764 -0.0156428 2.67683e-20)
(0.87219 0.002196 -9.16777e-20)
(1.0095 0.00336141 -4.24511e-20)
(-0.0136613 0.0107524 -8.10542e-20)
(-0.00665154 0.0142066 1.63704e-20)
(0.0352437 0.00955589 -3.73078e-20)
(0.114029 0.000748172 7.31533e-21)
(0.232959 -0.00760972 1.18419e-20)
(0.392146 -0.0116261 -8.39144e-20)
(0.582978 -0.00784964 3.64951e-20)
(0.783038 0.000557752 -2.40046e-20)
(0.966801 0.0206262 2.47131e-20)
(1.09379 0.0236188 -8.25548e-21)
(-0.0120227 0.00903925 2.93126e-20)
(0.00223878 0.0101794 3.16417e-20)
(0.0564578 0.00524231 -1.73818e-21)
(0.152481 -0.00216722 -1.02612e-20)
(0.292579 -0.00714456 4.53195e-22)
(0.473277 -0.00573874 8.14952e-22)
(0.678826 0.00431128 -5.55309e-20)
(0.880359 0.0183816 7.33376e-21)
(1.05027 0.0395126 6.54403e-20)
(1.16227 0.04373 2.81684e-20)
(-0.00968139 0.00711897 -1.98473e-20)
(0.0135265 0.0057177 -1.47764e-20)
(0.0819377 0.000694379 6.34204e-20)
(0.196981 -0.00466553 1.60982e-21)
(0.359049 -0.00522215 -2.64696e-20)
(0.559353 0.0025612 7.11752e-20)
(0.774002 0.0188803 1.52931e-20)
(0.969713 0.0373958 5.76403e-22)
(1.12136 0.0584903 -2.89306e-20)
(1.21481 0.0629462 -3.60944e-20)
(-0.00653745 0.00505641 4.14187e-20)
(0.0274862 0.00107475 -1.16034e-20)
(0.112056 -0.00361399 -6.88554e-21)
(0.24772 -0.00606975 -2.63163e-20)
(0.431737 -0.00111128 4.3298e-20)
(0.648227 0.0136446 -2.12238e-20)
(0.865432 0.0356289 -2.35571e-20)
(1.04903 0.0571061 -5.66578e-21)
(1.17974 0.0771472 -1.65971e-20)
(1.25422 0.0809031 1.7172e-20)
(-0.0024736 0.00291251 -1.52717e-20)
(0.0443856 -0.00349207 -9.06296e-20)
(0.147087 -0.00720079 9.47361e-21)
(0.304595 -0.00572533 3.26138e-20)
(0.509451 0.00575754 2.34209e-20)
(0.737344 0.0275631 -7.73952e-20)
(0.950473 0.0541195 4.90473e-20)
(1.11723 0.0770464 -2.20167e-20)
(1.22616 0.0951791 3.22494e-20)
(1.28259 0.0976237 8.58937e-21)
(0.00263747 0.000750821 -1.66862e-20)
(0.0644635 -0.00771731 3.22002e-20)
(0.187165 -0.00958664 4.19256e-20)
(0.367147 -0.00304308 -3.0154e-20)
(0.590497 0.0157234 1.11418e-20)
(0.824093 0.0440972 -6.80133e-20)
(1.02722 0.0738466 -1.2869e-20)
(1.1742 0.0968469 1.03166e-20)
(1.26188 0.112429 -2.45982e-20)
(1.30221 0.113182 -2.43097e-20)
(0.00892365 -0.00135611 -2.15095e-20)
(0.0879069 -0.0113224 -7.21115e-21)
(0.232241 -0.0103036 -7.58656e-20)
(0.434543 0.00245903 -1.18536e-20)
(0.672847 0.0288737 -1.27791e-21)
(0.906168 0.0628578 4.05995e-21)
(1.0946 0.0943384 7.03549e-21)
(1.22047 0.116255 -3.25128e-20)
(1.28842 0.128855 6.06499e-22)
(1.31498 0.127765 1.68945e-20)
(0.016503 -0.00332152 -5.59113e-21)
(0.114828 -0.0140116 2.63464e-20)
(0.282059 -0.00890567 3.70618e-20)
(0.505604 0.0111202 2.31596e-20)
(0.754381 0.0450766 -6.88207e-21)
(0.981787 0.0833923 -5.62153e-21)
(1.15224 0.115208 5.53814e-20)
(1.257 0.135125 7.16354e-21)
(1.30733 0.144502 2.41726e-20)
(1.32252 0.14156 -1.01412e-20)
(0.0254739 -0.00504151 5.35087e-20)
(0.145245 -0.0154715 3.46868e-20)
(0.336139 -0.0049837 -3.51213e-20)
(0.578885 0.0231165 -6.98518e-21)
(0.833115 0.0640473 3.60472e-21)
(1.04978 0.10526 -1.31754e-20)
(1.20037 0.136167 -2.83711e-20)
(1.28496 0.153405 -4.70876e-21)
(1.32003 0.159467 3.54813e-22)
(1.3261 0.154757 1.10375e-20)
(0.0359063 -0.00639469 6.53696e-21)
(0.179063 -0.0153754 -1.88941e-20)
(0.393782 0.00181334 4.47018e-20)
(0.652802 0.0384629 2.90848e-20)
(0.90738 0.0854201 8.30685e-22)
(1.10953 0.128074 2.05001e-20)
(1.23955 0.157019 3.03388e-21)
(1.30557 0.171101 -2.12091e-20)
(1.32776 0.17387 1.7589e-20)
(1.32668 0.167518 3.26154e-23)
(0.0478342 -0.00724432 -4.40095e-20)
(0.216067 -0.0133942 -1.29662e-20)
(0.454095 0.0117555 -1.17354e-20)
(0.725763 0.057036 -2.03659e-20)
(0.975904 0.108805 4.73863e-21)
(1.16089 0.151512 1.00455e-22)
(1.27059 0.177641 1.55515e-20)
(1.31997 0.188264 -2.53914e-21)
(1.33156 0.187836 -1.81688e-20)
(1.32498 0.179975 -1.65321e-20)
(0.0612504 -0.00744239 3.56643e-21)
(0.255913 -0.00921129 2.09478e-20)
(0.516032 0.0250128 1.01265e-20)
(0.796287 0.0786089 -3.16327e-20)
(1.03783 0.133824 -1.5905e-21)
(1.20406 0.17532 -1.34905e-20)
(1.29437 0.197967 3.44544e-22)
(1.32921 0.204962 6.25228e-21)
(1.33222 0.201477 -6.79668e-21)
(1.32151 0.192225 1.87472e-20)
(0.0761022 -0.00683525 8.36251e-21)
(0.298134 -0.00254126 -2.04699e-20)
(0.578462 0.0416457 -4.8307e-20)
(0.863097 0.102886 4.44488e-20)
(1.09265 0.160126 -3.30806e-21)
(1.23945 0.1993 9.77881e-21)
(1.31176 0.217971 -1.3143e-21)
(1.33416 0.221269 9.20765e-21)
(1.33039 0.214886 -7.23035e-22)
(1.3166 0.204332 -1.45062e-20)
(0.0922892 -0.00527006 -1.70185e-20)
(0.342153 0.00685147 2.6603e-20)
(0.640227 0.0616058 2.19725e-20)
(0.925159 0.129534 -3.16422e-20)
(1.14017 0.187396 -5.22288e-21)
(1.2676 0.2233 1.99571e-21)
(1.32361 0.237647 1.97621e-20)
(1.33555 0.237254 9.67357e-22)
(1.32651 0.228129 3.73811e-21)
(1.31049 0.216329 -8.03807e-21)
(0.109663 -0.00260196 1.29095e-20)
(0.387298 0.019136 -1.16075e-20)
(0.700214 0.0847467 -9.86572e-21)
(0.981696 0.158201 1.69009e-20)
(1.18044 0.215352 5.82851e-21)
(1.28913 0.247202 4.374e-21)
(1.33064 0.257001 -2.01165e-20)
(1.33396 0.252969 -6.79988e-21)
(1.32093 0.241248 -6.0238e-21)
(1.30332 0.228224 2.6471e-21)
(0.128031 0.00129871 -6.42352e-21)
(0.432835 0.0344029 -1.47008e-22)
(0.757399 0.110839 1.86672e-20)
(1.03217 0.188528 -6.84265e-21)
(1.21363 0.243745 -3.00988e-21)
(1.30464 0.27091 -1.97747e-21)
(1.3335 0.276039 4.85412e-21)
(1.32985 0.268447 8.30654e-21)
(1.31386 0.254259 -2.64091e-22)
(1.29518 0.240003 2.95393e-21)
(0.147157 0.00653938 4.52496e-21)
(0.477994 0.0526574 -1.26888e-21)
(0.810888 0.139589 -3.34005e-21)
(1.07624 0.220162 -3.0214e-21)
(1.24005 0.272347 2.71171e-21)
(1.31471 0.294343 2.10054e-21)
(1.33273 0.294755 -1.93067e-21)
(1.32356 0.283701 6.89202e-22)
(1.30548 0.267151 9.58275e-22)
(1.28612 0.251635 -1.25649e-21)
(0.166771 0.013199 2.42476e-21)
(0.522003 0.0738188 6.91391e-22)
(0.859937 0.17065 -4.13019e-21)
(1.11376 0.252755 -3.28717e-21)
(1.26005 0.300951 3.41533e-21)
(1.31988 0.317424 6.65943e-22)
(1.32878 0.313135 -1.5288e-21)
(1.31534 0.298721 1.43044e-21)
(1.29588 0.279895 7.87106e-22)
(1.27619 0.263073 -8.89017e-22)
(0.186573 0.0213227 -9.50591e-22)
(0.564116 0.0977237 1.92743e-21)
(0.903952 0.203641 1.27104e-20)
(1.1447 0.285968 -5.62702e-21)
(1.27403 0.329361 -2.75124e-21)
(1.32063 0.340072 -3.07433e-21)
(1.32199 0.331147 6.25826e-21)
(1.30538 0.313476 4.14425e-21)
(1.28513 0.292437 3.27307e-21)
(1.26539 0.274264 1.74836e-21)
(0.206248 0.0309185 1.93833e-20)
(0.603638 0.124134 -1.06404e-20)
(0.94249 0.238157 -1.21118e-20)
(1.16914 0.319471 1.63965e-20)
(1.28238 0.357393 8.57218e-21)
(1.31739 0.362206 -5.63468e-22)
(1.31267 0.348742 -1.04027e-20)
(1.29382 0.327913 -7.45335e-21)
(1.27326 0.304708 -7.62739e-21)
(1.25376 0.285143 4.46315e-21)
(0.225469 0.0419551 -2.6203e-20)
(0.639946 0.152745 2.45853e-20)
(0.975244 0.273778 2.81988e-20)
(1.18725 0.352943 -2.77026e-20)
(1.2855 0.384866 -9.5485e-21)
(1.31052 0.383734 6.05652e-21)
(1.30103 0.365855 1.09182e-20)
(1.28075 0.341959 1.68438e-21)
(1.26031 0.316617 -2.65314e-22)
(1.24127 0.295637 -6.02033e-21)
(0.243913 0.0543617 -3.7484e-21)
(0.672503 0.183199 -3.45245e-20)
(1.00203 0.310074 -3.68855e-20)
(1.19924 0.386073 4.11602e-20)
(1.28376 0.411603 -4.6519e-21)
(1.30035 0.404556 8.40665e-21)
(1.28726 0.38241 1.61703e-21)
(1.26624 0.355534 -4.60224e-21)
(1.24625 0.328075 2.46252e-21)
(1.22783 0.305674 -2.92549e-22)
(0.261262 0.0680294 7.61923e-21)
(0.700864 0.215094 2.13465e-20)
(1.02278 0.346615 1.20902e-20)
(1.20537 0.418559 -9.51643e-21)
(1.27752 0.437427 -1.45893e-20)
(1.28715 0.424562 -1.34942e-20)
(1.27151 0.398315 -2.68754e-21)
(1.25033 0.368555 6.99014e-21)
(1.23108 0.339021 -1.47097e-21)
(1.21327 0.315181 3.32971e-21)
(0.277221 0.0828143 -2.86969e-20)
(0.724683 0.247996 -2.67406e-20)
(1.0375 0.382973 -4.18796e-21)
(1.20593 0.45011 -4.7492e-21)
(1.26712 0.462161 -1.06558e-20)
(1.27117 0.443632 6.46024e-21)
(1.25392 0.413466 -1.18021e-21)
(1.2331 0.380938 -6.1149e-21)
(1.21482 0.349452 5.51979e-21)
(1.19757 0.324066 -7.68928e-21)
(0.29152 0.0985409 6.9209e-21)
(0.743717 0.281455 2.2627e-20)
(1.0463 0.418727 1.95419e-20)
(1.20124 0.480444 2.11526e-20)
(1.25288 0.485629 4.96749e-22)
(1.25262 0.46164 1.80731e-20)
(1.23457 0.427748 1.10327e-21)
(1.21458 0.392565 -2.06363e-20)
(1.19754 0.359342 1.45361e-20)
(1.18116 0.332218 5.30652e-21)
(0.303922 0.115006 1.85523e-20)
(0.757815 0.315009 4.12384e-20)
(1.04932 0.453471 -5.47923e-21)
(1.1916 0.50929 -2.6552e-20)
(1.2351 0.507656 1.19203e-20)
(1.2317 0.478454 -1.22559e-20)
(1.21359 0.441036 -1.59671e-20)
(1.19488 0.403319 -1.17711e-21)
(1.1792 0.368447 -1.183e-20)
(1.16417 0.339718 4.4712e-21)
(0.314229 0.131983 8.61876e-21)
(0.766912 0.348202 6.24549e-21)
(1.04678 0.486813 5.0914e-20)
(1.17736 0.536387 9.43369e-21)
(1.21405 0.528072 -8.13005e-21)
(1.20858 0.493936 -4.16964e-21)
(1.19112 0.453202 2.41388e-20)
(1.17402 0.413114 1.94961e-20)
(1.15983 0.376661 9.51036e-21)
(1.14649 0.346376 -1.21537e-21)
(0.322285 0.149233 1.78007e-21)
(0.771021 0.380583 -4.20023e-20)
(1.03894 0.518378 -5.97156e-20)
(1.15885 0.561489 1.7477e-21)
(1.19003 0.546708 1.1458e-20)
(1.18349 0.507935 -1.57088e-20)
(1.16726 0.464121 -3.48643e-20)
(1.15203 0.421837 -1.01686e-20)
(1.13955 0.383881 -5.89774e-22)
(1.12809 0.352109 4.25515e-21)
(0.327975 0.166505 -1.48704e-20)
(0.770234 0.411721 3.72543e-20)
(1.02612 0.54782 3.5723e-20)
(1.13642 0.584361 -3.25073e-20)
(1.1633 0.563387 4.99827e-21)
(1.15659 0.520318 3.70548e-20)
(1.14208 0.473668 -7.71424e-21)
(1.129 0.429378 6.57449e-21)
(1.11841 0.390015 -2.81316e-21)
(1.10901 0.356828 -3.65705e-21)
(0.331228 0.183543 -3.32164e-20)
(0.764718 0.441198 -5.88227e-20)
(1.0087 0.574837 -1.14846e-20)
(1.11035 0.604771 1.86834e-20)
(1.1341 0.577942 1.78408e-20)
(1.12804 0.530933 -3.65604e-20)
(1.11571 0.481723 1.9352e-20)
(1.10501 0.43563 -9.36606e-21)
(1.09649 0.39497 7.0714e-21)
(1.08934 0.360469 4.00315e-22)
(0.332025 0.200092 2.53717e-20)
(0.754726 0.468605 1.9296e-21)
(0.987033 0.599161 -5.60382e-21)
(1.08092 0.622509 -2.26856e-20)
(1.10273 0.590202 1.41052e-20)
(1.09803 0.539644 3.37178e-21)
(1.08827 0.488167 -1.03467e-20)
(1.08018 0.44049 2.28708e-21)
(1.07386 0.398653 -1.49595e-21)
(1.06915 0.362957 1.29567e-22)
(0.330413 0.21591 -6.80454e-21)
(0.740587 0.493607 -9.28582e-21)
(0.961204 0.620413 2.40177e-20)
(1.04856 0.637459 1.11058e-20)
(1.06947 0.599996 -1.4913e-20)
(1.06675 0.546326 1.94937e-20)
(1.05991 0.492892 1.73845e-21)
(1.0546 0.443865 2.30248e-21)
(1.05062 0.400965 1.99451e-21)
(1.04852 0.364205 4.01923e-22)
(0.326485 0.230741 4.3833e-20)
(0.722602 0.516075 3.38106e-20)
(0.931425 0.638234 -2.70723e-21)
(1.01375 0.649344 -4.91842e-21)
(1.0346 0.607244 -5.9178e-21)
(1.03438 0.550871 -2.8051e-21)
(1.03076 0.495798 2.22951e-21)
(1.02839 0.445671 1.19044e-21)
(1.02685 0.401817 -1.47853e-21)
(1.02753 0.364116 -3.77212e-21)
(0.32032 0.244223 3.08773e-21)
(0.700838 0.535657 5.52362e-21)
(0.898548 0.652779 -3.00324e-20)
(0.976866 0.65793 1.29832e-20)
(0.998365 0.611818 2.4026e-21)
(1.00111 0.553178 -5.05471e-21)
(1.00098 0.496795 2.06849e-21)
(1.00167 0.445837 1.15346e-21)
(1.00268 0.40114 -3.86621e-21)
(1.0064 0.362641 4.79586e-21)
(0.311901 0.256119 -1.66478e-20)
(0.675497 0.551759 -1.16896e-20)
(0.863093 0.663763 8.97884e-21)
(0.93819 0.66323 1.74732e-21)
(0.961029 0.613621 -5.27839e-21)
(0.967154 0.553154 4.05114e-21)
(0.970692 0.495798 2.44787e-21)
(0.974527 0.444276 -9.21891e-21)
(0.978366 0.398874 2.24269e-20)
(0.985767 0.359814 8.9678e-21)
(0.301461 0.266249 -1.23518e-20)
(0.6472 0.564233 2.89889e-20)
(0.825339 0.670953 -1.77987e-20)
(0.898057 0.665151 -3.03867e-21)
(0.922852 0.612573 -2.1135e-21)
(0.932682 0.550722 -1.65356e-21)
(0.940023 0.492722 -8.21625e-21)
(0.947096 0.440856 4.32174e-21)
(0.954319 0.394832 -9.38386e-22)
(0.966321 0.355688 -4.07528e-21)
(0.289233 0.274552 -1.37987e-21)
(0.616371 0.572948 -8.7153e-21)
(0.785694 0.674175 3.83309e-21)
(0.856814 0.663611 -1.48364e-21)
(0.884098 0.608615 5.52494e-21)
(0.897883 0.545832 5.01276e-21)
(0.909094 0.487522 1.55568e-20)
(0.919564 0.435477 -1.16253e-20)
(0.930892 0.38864 -2.2106e-20)
(0.947368 0.349624 9.40692e-21)
(0.275369 0.280838 -9.70654e-22)
(0.58345 0.577774 -2.61012e-21)
(0.744584 0.673338 1.05812e-21)
(0.814812 0.658551 7.39906e-21)
(0.845033 0.601708 -1.23858e-20)
(0.862955 0.538456 -1.99965e-20)
(0.878093 0.480199 -5.96318e-21)
(0.892199 0.428256 -1.4905e-21)
(0.908071 0.380472 2.95021e-20)
(0.926089 0.337853 -6.46759e-21)
(0.260088 0.284967 1.77911e-21)
(0.54887 0.578606 -3.99366e-21)
(0.702438 0.668392 1.65691e-22)
(0.772401 0.649935 7.22668e-22)
(0.805922 0.591827 -8.59495e-21)
(0.828116 0.52857 3.79276e-20)
(0.847277 0.470724 -2.63209e-20)
(0.865214 0.419286 3.14086e-20)
(0.884784 0.372236 -2.20668e-20)
(0.902584 0.331067 -2.91302e-20)
(0.243635 0.286832 -1.60702e-21)
(0.513061 0.575371 -6.16351e-22)
(0.65968 0.659322 3.08128e-22)
(0.729925 0.637759 1.36454e-20)
(0.767033 0.578965 -5.51178e-21)
(0.793591 0.516157 8.38258e-21)
(0.816852 0.459048 1.54717e-20)
(0.83864 0.408291 -8.15219e-21)
(0.861421 0.361799 -2.10249e-20)
(0.880264 0.320934 2.9112e-20)
(0.226264 0.286354 1.14651e-20)
(0.47645 0.568037 1.52294e-20)
(0.616726 0.646144 -1.44445e-20)
(0.687725 0.622043 -1.27809e-20)
(0.728631 0.563141 4.40425e-20)
(0.7596 0.501232 -4.45213e-20)
(0.786969 0.445218 5.31399e-20)
(0.812499 0.395495 -1.33329e-20)
(0.838208 0.350104 1.42795e-20)
(0.858758 0.310412 2.64587e-20)
(0.208232 0.283486 -4.34819e-21)
(0.439466 0.556608 -1.47126e-20)
(0.573986 0.628902 -8.56199e-21)
(0.646132 0.602834 -4.81799e-21)
(0.690981 0.544388 5.20509e-21)
(0.726363 0.48382 -1.15089e-20)
(0.757799 0.429243 -1.59144e-20)
(0.78695 0.380838 -3.43941e-20)
(0.81547 0.336797 3.40687e-20)
(0.83812 0.298481 -1.10477e-20)
(0.1898 0.278206 2.68683e-20)
(0.402526 0.541126 -3.13422e-21)
(0.531855 0.607672 -1.19687e-20)
(0.605471 0.580204 1.554e-20)
(0.654339 0.522763 -2.78075e-20)
(0.694089 0.463966 7.38738e-20)
(0.729511 0.411172 -3.92884e-20)
(0.762159 0.3644 3.55081e-20)
(0.793426 0.322014 -6.51719e-20)
(0.818376 0.285264 -1.72476e-20)
(0.17123 0.270523 -8.75041e-21)
(0.366042 0.52167 2.84375e-20)
(0.490718 0.58256 6.76113e-21)
(0.566053 0.554246 -1.43196e-20)
(0.618957 0.498344 -2.46377e-20)
(0.662984 0.441733 -9.6061e-22)
(0.702276 0.391059 1.31056e-20)
(0.738289 0.346215 -3.19313e-20)
(0.772231 0.305739 1.57463e-20)
(0.799572 0.270704 2.09764e-21)
(0.152777 0.26047 -4.63706e-20)
(0.330411 0.498352 -1.1439e-20)
(0.450942 0.553697 -3.11618e-21)
(0.528179 0.52508 3.68421e-20)
(0.585076 0.471228 -3.41213e-20)
(0.633249 0.417204 -8.90306e-21)
(0.676265 0.368973 -5.37061e-21)
(0.7155 0.326345 9.97332e-21)
(0.752024 0.288014 -1.25102e-20)
(0.781778 0.254839 -1.95189e-20)
(0.134692 0.248109 4.07543e-20)
(0.296011 0.47132 -2.30833e-20)
(0.412878 0.521246 1.1708e-21)
(0.492134 0.492847 -5.5806e-20)
(0.552928 0.44153 6.0391e-20)
(0.605076 0.390473 -1.90611e-20)
(0.651643 0.344998 1.14175e-20)
(0.693937 0.304858 9.87483e-21)
(0.732927 0.268886 2.86383e-20)
(0.765067 0.237717 -1.17073e-20)
(0.117218 0.233525 -1.66199e-20)
(0.263206 0.440749 4.783e-20)
(0.376858 0.485392 2.68964e-20)
(0.45819 0.457708 4.38206e-20)
(0.522733 0.409386 -1.01514e-20)
(0.578648 0.361656 4.07983e-21)
(0.628566 0.319232 3.27067e-20)
(0.673739 0.281833 7.25435e-21)
(0.715057 0.248418 6.98453e-22)
(0.749517 0.219407 -1.39584e-20)
(0.100585 0.216829 -3.78651e-20)
(0.232335 0.406848 -2.81322e-21)
(0.343191 0.446347 -1.5724e-20)
(0.426599 0.419846 -7.03474e-20)
(0.494697 0.374948 -6.7834e-20)
(0.554141 0.330881 1.13426e-20)
(0.607185 0.291786 -2.78104e-20)
(0.655034 0.257364 1.76674e-20)
(0.698524 0.22669 9.59785e-21)
(0.735202 0.19999 2.01259e-20)
(0.0850098 0.198151 5.5342e-20)
(0.203715 0.369849 -4.52373e-20)
(0.312165 0.404345 -2.29003e-20)
(0.397597 0.379464 4.06604e-20)
(0.469013 0.338383 4.60823e-20)
(0.531716 0.298291 -1.52063e-20)
(0.587638 0.262781 -1.93569e-21)
(0.637943 0.231555 -5.5055e-20)
(0.68343 0.203792 -3.11182e-20)
(0.722195 0.179555 1.18384e-20)
(0.0706936 0.177645 -3.14403e-20)
(0.177636 0.330011 1.32532e-20)
(0.284044 0.359642 4.85447e-20)
(0.3714 0.336779 -2.16529e-20)
(0.445858 0.299878 1.66072e-21)
(0.511523 0.264044 6.12763e-20)
(0.570053 0.232354 2.8517e-21)
(0.622577 0.204521 5.26247e-20)
(0.669871 0.179824 2.19283e-20)
(0.710563 0.158199 -3.48318e-20)
(0.0578202 0.155481 4.33137e-20)
(0.154361 0.287617 4.74846e-21)
(0.259066 0.312512 3.12148e-21)
(0.348203 0.292029 4.41596e-20)
(0.425394 0.259629 -5.92221e-21)
(0.493698 0.228308 -3.84144e-20)
(0.554547 0.20065 1.8783e-20)
(0.609037 0.176387 -2.99857e-20)
(0.657936 0.154895 -1.25525e-20)
(0.700368 0.136023 1.2658e-20)
(0.0465541 0.131847 -2.70264e-20)
(0.134125 0.242968 -5.17836e-20)
(0.237441 0.263246 1.19153e-20)
(0.328179 0.245461 -2.33364e-20)
(0.407762 0.217848 -1.412e-20)
(0.478362 0.191264 3.41013e-20)
(0.541223 0.167823 -8.25195e-21)
(0.597415 0.147287 7.6413e-21)
(0.647704 0.129125 -9.26373e-21)
(0.691666 0.113136 1.83486e-20)
(0.0370388 0.106947 9.72192e-21)
(0.11713 0.196383 3.48069e-20)
(0.219353 0.212152 -4.82466e-20)
(0.311478 0.19734 2.28143e-20)
(0.393088 0.174756 -1.03819e-20)
(0.46562 0.153101 -2.91841e-20)
(0.530171 0.134039 2.37791e-20)
(0.587789 0.117362 4.99789e-21)
(0.639244 0.102637 -7.72996e-22)
(0.684504 0.0896483 -2.13277e-20)
(0.0293962 0.0809939 3.16367e-21)
(0.103548 0.148199 1.11548e-20)
(0.204956 0.15955 4.35756e-20)
(0.298227 0.147938 -8.33208e-21)
(0.381476 0.130585 -6.56155e-21)
(0.455563 0.114019 2.43838e-21)
(0.52147 0.0994667 1.03986e-21)
(0.580228 0.0867604 8.86389e-21)
(0.632617 0.0755635 -1.1627e-20)
(0.678924 0.0656777 -7.39486e-21)
(0.0237248 0.0542153 -7.93178e-21)
(0.0935166 0.0987607 -1.35811e-20)
(0.194375 0.105769 -3.37822e-20)
(0.288529 0.0975383 1.6986e-20)
(0.373012 0.0855753 1.3857e-20)
(0.448261 0.0742227 5.87494e-22)
(0.51518 0.0642846 -2.31215e-20)
(0.574787 0.0556352 -1.02422e-20)
(0.627871 0.0480365 8.13752e-21)
(0.674962 0.0413286 8.6902e-21)
(0.0200995 0.0268446 1.37073e-21)
(0.0871417 0.048427 -2.82489e-21)
(0.187703 0.0511487 6.42276e-21)
(0.282462 0.04643 -4.34936e-21)
(0.367759 0.0399711 -3.80997e-21)
(0.44377 0.0339224 -2.5858e-21)
(0.511348 0.0286739 4.74799e-21)
(0.571507 0.0241429 1.80732e-20)
(0.625039 0.0201876 2.62293e-21)
(0.672629 0.0166816 -4.6446e-21)
(0.0185706 -0.000878262 1.6967e-21)
(0.0844935 -0.0024383 -4.66544e-21)
(0.185004 -0.00396579 -5.28448e-21)
(0.280077 -0.00509212 -3.66577e-21)
(0.365761 -0.00597693 3.48856e-21)
(0.442126 -0.00666647 1.57334e-21)
(0.510006 -0.00717867 -1.56773e-21)
(0.570412 -0.00755001 -7.13011e-21)
(0.624128 -0.00781882 2.34588e-21)
(0.671875 -0.00802666 -2.19328e-21)
(0.0191635 -0.0287097 -1.68247e-21)
(0.0856077 -0.0534666 4.62813e-21)
(0.186311 -0.0592261 5.24827e-21)
(0.2814 -0.0567301 -5.02379e-21)
(0.36704 -0.052016 4.42075e-21)
(0.443349 -0.0473272 2.21277e-21)
(0.511171 -0.0430866 -3.53188e-21)
(0.571525 -0.0392837 -4.09953e-21)
(0.625204 -0.0358502 6.03317e-22)
(0.672904 -0.0327202 -1.70482e-21)
(0.0218783 -0.056405 1.84576e-21)
(0.0904852 -0.104288 -5.51389e-21)
(0.191623 -0.114282 1.22963e-20)
(0.286433 -0.108185 -1.07992e-20)
(0.371596 -0.0978923 -5.18254e-22)
(0.447438 -0.0878421 -7.19521e-21)
(0.514843 -0.0788639 1.16826e-20)
(0.57484 -0.0709009 1.58751e-20)
(0.62823 -0.0637855 2.82888e-21)
(0.675583 -0.0573905 -6.09277e-21)
(0.0266903 -0.0837206 -1.56193e-21)
(0.0990921 -0.154533 -1.15631e-20)
(0.200912 -0.168786 -2.69514e-20)
(0.29515 -0.159159 2.33382e-20)
(0.379408 -0.143353 4.79366e-21)
(0.454374 -0.127994 4.25649e-21)
(0.521004 -0.114322 -2.09409e-20)
(0.580341 -0.102236 -1.23697e-20)
(0.63319 -0.0914661 -2.76342e-21)
(0.679901 -0.0818409 1.88067e-20)
(0.0335495 -0.110416 -5.49601e-21)
(0.11136 -0.203838 6.97503e-21)
(0.214114 -0.222391 4.86263e-20)
(0.3075 -0.209357 -4.39294e-21)
(0.390433 -0.188148 -1.25201e-20)
(0.464122 -0.167568 8.95884e-21)
(0.529623 -0.149276 6.71047e-22)
(0.588002 -0.133127 3.15005e-21)
(0.640064 -0.11875 -6.92262e-21)
(0.685852 -0.105946 -1.82715e-20)
(0.0423815 -0.136257 -3.68619e-21)
(0.127185 -0.251845 2.01134e-20)
(0.231139 -0.27476 -4.87729e-20)
(0.323407 -0.258488 2.10777e-20)
(0.404608 -0.23203 2.10007e-22)
(0.476627 -0.206352 -2.67902e-20)
(0.540653 -0.183544 1.18722e-20)
(0.59778 -0.163416 -1.12495e-21)
(0.648814 -0.145501 4.50134e-21)
(0.693415 -0.129598 -1.30453e-21)
(0.053088 -0.161018 -4.21059e-20)
(0.146431 -0.298206 -5.04649e-20)
(0.251862 -0.32556 1.33174e-20)
(0.34277 -0.306271 -2.41581e-20)
(0.421848 -0.27476 -6.77251e-21)
(0.491816 -0.244141 1.02217e-20)
(0.554033 -0.216947 3.7734e-21)
(0.609619 -0.192951 1.39636e-20)
(0.65939 -0.171584 -3.00406e-21)
(0.702556 -0.152682 1.62735e-20)
(0.0655475 -0.184482 4.02387e-20)
(0.168928 -0.342585 2.59209e-20)
(0.276131 -0.374471 -1.94786e-20)
(0.365462 -0.35243 3.2859e-20)
(0.442049 -0.316105 -2.73146e-21)
(0.509602 -0.280735 -3.56336e-20)
(0.569684 -0.249314 6.23861e-21)
(0.623451 -0.221581 -3.79591e-20)
(0.671733 -0.196869 1.51306e-21)
(0.713235 -0.175082 1.37364e-20)
(0.0796165 -0.206446 -2.94548e-20)
(0.194474 -0.384661 5.29116e-20)
(0.303765 -0.421185 2.08168e-20)
(0.391335 -0.396702 -2.60119e-20)
(0.465088 -0.355843 3.41023e-22)
(0.529877 -0.315944 6.55016e-20)
(0.587516 -0.280481 2.90569e-21)
(0.639197 -0.249166 2.90267e-20)
(0.68577 -0.221229 3.53442e-20)
(0.725403 -0.196685 -1.98061e-20)
(0.0951305 -0.226721 1.64884e-20)
(0.222838 -0.424131 -7.94148e-21)