/*--------------------------------*- C++ -*----------------------------------*\
  =========                 |
  \\      /  F ield         | OpenFOAM: The Open Source CFD Toolbox
   \\    /   O peration     | Website:  https://openfoam.org
    \\  /    A nd           | Version:  7
     \\/     M anipulation  |
\*---------------------------------------------------------------------------*/
FoamFile
{
    version     2.0;
    format      ascii;
    class       volScalarField;
    location    "360";
    object      p;
}
// * * * * * * * * * * * * * * * * * * * * * * * * * * * * * * * * * * * * * //

dimensions      [0 2 -2 0 0 0 0];

internalField   nonuniform List<scalar> 
2125
(
-0.403043
-0.443888
-0.410958
-0.482069
-0.450088
-0.418781
-0.532812
-0.511298
-0.485608
-0.456082
-0.426605
-0.542854
-0.528773
-0.510811
-0.488723
-0.461912
-0.434532
-0.546362
-0.536146
-0.524468
-0.509819
-0.491433
-0.467606
-0.442656
-0.547314
-0.538724
-0.529707
-0.520051
-0.508414
-0.49376
-0.473166
-0.451099
-0.539685
-0.531687
-0.523632
-0.515671
-0.506711
-0.495729
-0.478599
-0.459928
-0.539445
-0.532815
-0.525302
-0.518013
-0.511468
-0.50485
-0.497389
-0.483859
-0.469355
-0.537901
-0.532911
-0.526716
-0.519616
-0.512947
-0.507582
-0.50299
-0.4988
-0.488984
-0.479228
-0.53165
-0.527211
-0.521398
-0.514673
-0.508534
-0.504156
-0.501299
-0.500061
-0.493932
-0.489813
-0.526382
-0.522325
-0.516857
-0.510505
-0.504864
-0.501332
-0.499952
-0.501305
-0.498687
-0.499826
-0.522036
-0.518206
-0.513064
-0.507114
-0.501994
-0.499234
-0.499159
-0.502512
-0.504389
-0.502996
-0.518516
-0.514777
-0.509957
-0.504464
-0.499934
-0.497936
-0.499094
-0.503793
-0.510765
-0.508195
-0.515684
-0.511929
-0.507441
-0.502477
-0.498631
-0.497449
-0.499827
-0.505432
-0.516966
-0.514685
-0.513373
-0.50953
-0.505394
-0.501033
-0.497977
-0.497702
-0.501299
-0.507671
-0.522732
-0.521056
-0.511395
-0.507434
-0.503673
-0.499982
-0.497811
-0.498542
-0.503341
-0.510574
-0.528032
-0.527349
-0.509556
-0.505487
-0.502125
-0.499154
-0.497937
-0.499749
-0.505712
-0.513993
-0.532821
-0.533952
-0.507666
-0.503535
-0.500594
-0.498371
-0.498139
-0.501059
-0.508121
-0.517606
-0.537035
-0.540826
-0.505549
-0.501434
-0.498929
-0.497456
-0.498195
-0.502196
-0.510269
-0.520998
-0.540564
-0.547518
-0.503048
-0.499046
-0.496987
-0.496238
-0.497894
-0.502889
-0.511857
-0.523744
-0.54322
-0.553249
-0.500032
-0.496251
-0.494636
-0.49456
-0.497038
-0.502896
-0.512612
-0.525478
-0.54477
-0.557568
-0.496396
-0.492943
-0.491761
-0.492286
-0.495462
-0.502013
-0.512303
-0.525909
-0.544984
-0.560143
-0.492064
-0.489042
-0.488267
-0.489304
-0.493031
-0.500086
-0.510754
-0.524827
-0.543648
-0.560643
-0.486993
-0.484487
-0.484086
-0.485533
-0.489654
-0.497012
-0.507844
-0.522096
-0.54058
-0.558851
-0.481173
-0.479251
-0.47918
-0.480931
-0.485283
-0.492738
-0.50351
-0.517643
-0.535648
-0.554617
-0.474625
-0.473333
-0.473544
-0.475491
-0.479914
-0.487267
-0.497747
-0.511464
-0.528788
-0.547839
-0.467403
-0.466768
-0.467204
-0.469244
-0.473588
-0.480647
-0.490608
-0.503616
-0.519988
-0.538509
-0.459591
-0.45962
-0.460215
-0.46226
-0.46639
-0.472977
-0.482203
-0.494236
-0.509273
-0.526718
-0.451292
-0.451952
-0.45269
-0.454643
-0.458436
-0.464396
-0.472682
-0.483458
-0.496837
-0.512622
-0.442638
-0.443894
-0.444725
-0.446519
-0.449878
-0.455076
-0.462245
-0.471511
-0.482915
-0.496451
-0.433765
-0.435571
-0.436453
-0.438037
-0.440886
-0.445219
-0.451124
-0.458674
-0.467811
-0.478605
-0.0334698
-0.0340467
-0.0345905
-0.0351009
-0.0355779
-0.0360214
-0.0364313
-0.0368076
-0.0371504
-0.0374597
-0.0377366
-0.0344099
-0.0350051
-0.0355663
-0.0360932
-0.0365858
-0.037044
-0.0374679
-0.0378575
-0.0382132
-0.0385353
-0.0388272
-0.0361675
-0.0367948
-0.0373872
-0.0379446
-0.038467
-0.0389545
-0.0394071
-0.039825
-0.0402088
-0.0405598
-0.0408847
-0.0386768
-0.0393522
-0.0399919
-0.0405958
-0.041164
-0.0416965
-0.0421934
-0.0426551
-0.0430824
-0.0434781
-0.0438536
-0.0419083
-0.042647
-0.0433492
-0.0440147
-0.0446437
-0.0452363
-0.0457926
-0.0463131
-0.0467991
-0.0472553
-0.0476995
-0.0458353
-0.0466534
-0.047434
-0.0481773
-0.0488833
-0.0495521
-0.0501841
-0.0507798
-0.0513413
-0.0518753
-0.0524083
-0.0504511
-0.0513657
-0.0522421
-0.0530804
-0.0538806
-0.0546431
-0.0553682
-0.0560569
-0.0567117
-0.0573425
-0.0579863
-0.0557562
-0.0567857
-0.0577764
-0.0587282
-0.0596416
-0.0605167
-0.0613543
-0.0621555
-0.0629239
-0.063673
-0.0644531
-0.0617592
-0.0629238
-0.0640489
-0.0651347
-0.0661818
-0.0671906
-0.0681619
-0.0690973
-0.0700019
-0.0708937
-0.0718391
-0.0684745
-0.0697958
-0.0710773
-0.0723195
-0.073523
-0.0746884
-0.0758169
-0.0769108
-0.0779764
-0.0790372
-0.0801795
-0.0759203
-0.0774219
-0.0788836
-0.0803063
-0.0816907
-0.0830379
-0.0843496
-0.0856285
-0.0868833
-0.0881441
-0.0895203
-0.082371
-0.0841187
-0.0858259
-0.0874936
-0.0891228
-0.0907149
-0.0922712
-0.093794
-0.0952868
-0.096761
-0.0982543
-0.0999056
-0.0911139
-0.0930941
-0.0950341
-0.0969355
-0.0987997
-0.100629
-0.102424
-0.104189
-0.105928
-0.107656
-0.109421
-0.111394
-0.100631
-0.102873
-0.105074
-0.107239
-0.109369
-0.111466
-0.113532
-0.115573
-0.117593
-0.119612
-0.121688
-0.124031
-0.110949
-0.113481
-0.115976
-0.118435
-0.120862
-0.123259
-0.125632
-0.127983
-0.130322
-0.132671
-0.135104
-0.137871
-0.122092
-0.124947
-0.127765
-0.130552
-0.133309
-0.136043
-0.138756
-0.141456
-0.144154
-0.146876
-0.149713
-0.152965
-0.134089
-0.137297
-0.140472
-0.143619
-0.146742
-0.149847
-0.152939
-0.156027
-0.159124
-0.162263
-0.165557
-0.169355
-0.146962
-0.150556
-0.15412
-0.15766
-0.161183
-0.164696
-0.168206
-0.171723
-0.175264
-0.178866
-0.182669
-0.187079
-0.160735
-0.164746
-0.168731
-0.172698
-0.176654
-0.180608
-0.184572
-0.188557
-0.192588
-0.196705
-0.201075
-0.206164
-0.175429
-0.179886
-0.184323
-0.188748
-0.193172
-0.197604
-0.202056
-0.206544
-0.211098
-0.215773
-0.220769
-0.226611
-0.191061
-0.195989
-0.200901
-0.205811
-0.210731
-0.215678
-0.220662
-0.2257
-0.230822
-0.236092
-0.241753
-0.248411
-0.207646
-0.213067
-0.218475
-0.223888
-0.229317
-0.234793
-0.240325
-0.245957
-0.251705
-0.257654
-0.264042
-0.271586
-0.225189
-0.231118
-0.237041
-0.242984
-0.248948
-0.254974
-0.26105
-0.267267
-0.273621
-0.280301
-0.287494
-0.296069
-0.243689
-0.250124
-0.25656
-0.26304
-0.269561
-0.276198
-0.282885
-0.289765
-0.29671
-0.304104
-0.31201
-0.321744
-0.26315
-0.270082
-0.277011
-0.283997
-0.291029
-0.298245
-0.305546
-0.313217
-0.320918
-0.329274
-0.337872
-0.348851
-0.283524
-0.290935
-0.298346
-0.305825
-0.313336
-0.321047
-0.328797
-0.337084
-0.3454
-0.354948
-0.364496
-0.377247
-0.304732
-0.312551
-0.320391
-0.328334
-0.336352
-0.34462
-0.352896
-0.361738
-0.370345
-0.380653
-0.390664
-0.405704
-0.326852
-0.334963
-0.343105
-0.351376
-0.35981
-0.368608
-0.377617
-0.387403
-0.396958
-0.408385
-0.418429
-0.435389
-0.35011
-0.358426
-0.366753
-0.375187
-0.383812
-0.392812
-0.402219
-0.412577
-0.423361
-0.436643
-0.448657
-0.468479
-0.373888
-0.382251
-0.390579
-0.398959
-0.407487
-0.416276
-0.425434
-0.435217
-0.445647
-0.458075
-0.471253
-0.493042
-0.0383455
-0.0387689
-0.0385822
-0.0376905
-0.0360789
-0.033711
-0.0306595
-0.02693
-0.0226796
-0.0179732
-0.0130604
-0.00805056
-0.00317645
0.00148901
0.00590212
0.0101607
0.0144685
0.0189601
0.0237498
0.0286869
0.0337086
0.0383957
0.0421212
0.0437859
0.0408147
0.0332048
0.0249391
0.0171346
0.0121514
0.00478928
-0.0394805
-0.039897
-0.0396464
-0.0386511
-0.0369141
-0.034401
-0.0311893
-0.027285
-0.0228585
-0.0179847
-0.0129333
-0.00782989
-0.00291742
0.00172132
0.0060544
0.010198
0.0144071
0.0188309
0.0236092
0.0286105
0.0337312
0.0387113
0.0426365
0.0443032
0.0411789
0.0332165
0.0247399
0.0167659
0.0122643
0.00482778
-0.0416308
-0.0420358
-0.0416594
-0.0404687
-0.0384925
-0.0357017
-0.0321813
-0.0279401
-0.0231722
-0.0179782
-0.0126596
-0.00737636
-0.00241475
0.00217588
0.00634639
0.0102544
0.0142701
0.0185559
0.023313
0.0284245
0.0337291
0.0392849
0.0435684
0.0452417
0.0418662
0.0331641
0.0243107
0.0160545
0.0124461
0.00486647
-0.0447389
-0.0451266
-0.0445599
-0.0430827
-0.0407541
-0.0375546
-0.0335791
-0.0288419
-0.0235703
-0.0179072
-0.0121974
-0.00665724
-0.00160365
0.00286596
0.00676599
0.0103035
0.014022
0.0180973
0.0228202
0.0280719
0.0336259
0.0400556
0.0447994
0.0464748
0.0428146
0.0329117
0.0235745
0.0162475
0.0126478
0.00486046
-0.0487724
-0.0491347
-0.0483237
-0.0464562
-0.0436569
-0.0399143
-0.0353344
-0.0299387
-0.0239965
-0.0177078
-0.0114879
-0.00562273
-0.000473544
0.00380232
0.00730095
0.0103095
0.0136137
0.0174035
0.0220749
0.0274766
0.0333258
0.0409364
0.0461562
0.0478506
0.0439247
0.0322609
0.0223024
0.0151734
0.0126762
0.0047583
-0.0537231
-0.0540493
-0.0529224
-0.0505629
-0.0471726
-0.0427483
-0.0374071
-0.031182
-0.0243944
-0.0173148
-0.0104657
-0.00421303
0.00102832
0.00505314
0.00793655
0.0102253
0.0129833
0.0164139
0.0210113
0.0265509
0.0327192
0.0417854
0.0473958
0.04919
0.0450094
0.0309594
0.0204004
0.0137703
0.0124031
0.0045335
-0.0596006
-0.059863
-0.0583547
-0.0553942
-0.0512853
-0.0460323
-0.0397627
-0.0325268
-0.0247088
-0.0166646
-0.00906315
-0.00235921
0.00295433
0.00655882
0.00863869
0.00998926
0.0120571
0.0150636
0.0195612
0.0252009
0.0316905
0.0423843
0.0481746
0.0502478
0.0457327
0.0287227
0.0177861
0.0119945
0.0116725
0.00418262
-0.0664368
-0.0666479
-0.0646479
-0.0609578
-0.05599
-0.0497509
-0.0423729
-0.0339313
-0.0248883
-0.0157459
-0.00721126
1.46547e-05
0.00537801
0.00839116
0.00937493
0.00952427
0.0107497
0.0132849
0.0176629
0.0233336
0.0301322
0.0424282
0.048027
0.0506276
0.0455506
0.025327
0.0144104
0.00977099
0.0103279
0.0037086
-0.0742679
-0.0744019
-0.0718157
-0.0672652
-0.0612906
-0.053897
-0.0452167
-0.0353564
-0.0248712
-0.0144211
-0.00482745
0.00299026
0.00837391
0.0105665
0.0100973
0.0087323
0.0089634
0.0110086
0.0152655
0.0208695
0.027961
0.0415634
0.0463608
0.0496492
0.0437074
0.0208092
0.0103402
0.00703252
0.00823827
0.0031073
-0.0831344
-0.0831653
-0.0798864
-0.0743362
-0.0671997
-0.0584712
-0.0482794
-0.0367719
-0.0246134
-0.0126481
-0.00184281
0.00664958
0.0120182
0.0130924
0.0107427
0.0074851
0.00658639
0.00816466
0.0123319
0.0177534
0.0251366
0.0394651
0.0455944
0.0463541
0.0393828
0.0155374
0.00580746
0.00366054
0.00533962
0.00236909
-0.0930918
-0.0929971
-0.0889019
-0.0822002
-0.0737369
-0.0634826
-0.0515553
-0.0381568
-0.024081
-0.0103854
0.00179728
0.0110709
0.016384
0.0159541
0.0111202
0.00561995
0.00349219
0.00468491
0.00883334
0.0139773
0.021664
0.0356628
0.0389385
0.039715
0.0321135
0.0100201
0.00117439
-6.73175e-05
0.00167448
0.00149119
-0.10421
-0.103961
-0.098909
-0.0908926
-0.08093
-0.068949
-0.0550477
-0.0394992
-0.0232526
-0.00760718
0.00612952
0.0163234
0.0215339
0.0191086
0.0110793
0.00295666
-0.000456077
0.000504799
0.00474321
0.00958998
0.0176178
0.0303394
0.0301353
0.0300624
0.0223044
0.00458214
-0.00323149
-0.00399572
-0.00263617
0.00048929
-0.116548
-0.116103
-0.109951
-0.100455
-0.0888152
-0.0748966
-0.0587675
-0.0408
-0.0221237
-0.00431084
0.0111699
0.0224613
0.0275112
0.0224728
0.0104286
-0.000715742
-0.0054043
-0.00443448
4.2071e-05
0.00468054
0.0130863
0.0237948
0.0199582
0.0185345
0.0111601
-0.000682008
-0.00722258
-0.0080019
-0.00742104
-0.000600889
-0.130161
-0.129478
-0.122076
-0.110935
-0.0974372
-0.0813602
-0.0627341
-0.0420712
-0.0207089
-0.00052757
0.0169041
0.029516
0.0343254
0.0259023
0.00887929
-0.00565347
-0.011507
-0.0101853
-0.00527266
-0.00063633
0.00815238
0.0164967
0.0095195
0.00666572
6.09025e-05
-0.00570935
-0.0107103
-0.0119872
-0.0124813
-0.00173243
-0.145121
-0.144149
-0.135335
-0.122387
-0.106849
-0.0883825
-0.0669758
-0.0433363
-0.0190442
0.00358067
0.0232812
0.0374837
0.0419334
0.0291654
0.00605714
-0.0121558
-0.0189226
-0.0167958
-0.0111756
-0.00623006
0.0029418
0.00895595
-0.000293916
-0.00444072
-0.0100547
-0.0104178
-0.0136725
-0.0158722
-0.0176235
-0.00285299
-0.16149
-0.160173
-0.149786
-0.134872
-0.117116
-0.0960134
-0.0715281
-0.0446294
-0.0171674
0.0081379
0.0302234
0.0463075
0.0502062
0.0319204
0.00149608
-0.0205674
-0.0278127
-0.0243113
-0.0176101
-0.0119814
-0.00240557
0.00159577
-0.00897279
-0.0142183
-0.0187646
-0.0147501
-0.0161559
-0.0196021
-0.022674
-0.00390989
-0.179325
-0.177602
-0.165484
-0.14846
-0.128311
-0.104309
-0.0764335
-0.0459962
-0.0151617
0.0128833
0.0375755
0.0558634
0.0588954
0.0336886
-0.00535806
-0.0312484
-0.0383348
-0.0327709
-0.0245031
-0.0177872
-0.00777528
-0.00530539
-0.0163107
-0.0224562
-0.0260048
-0.0186832
-0.0182569
-0.0231432
-0.027479
-0.00486589
-0.198671
-0.196479
-0.18249
-0.163235
-0.140521
-0.113328
-0.0817401
-0.04749
-0.0131246
0.0176747
0.045132
0.0659518
0.0676163
0.0338718
-0.015078
-0.0445385
-0.0506282
-0.0422004
-0.0317782
-0.0235547
-0.0130835
-0.0115996
-0.0222826
-0.0291872
-0.0319201
-0.0222191
-0.0200872
-0.0264732
-0.0319116
-0.00570248
-0.219562
-0.216837
-0.200866
-0.179291
-0.153843
-0.123134
-0.0874989
-0.0491702
-0.0111662
0.0223667
0.052661
0.0762863
0.0759206
0.0318871
-0.0280406
-0.0606425
-0.0647781
-0.0525972
-0.0393573
-0.0292061
-0.0182721
-0.0172212
-0.0269759
-0.0345812
-0.036728
-0.0253897
-0.0217444
-0.0295798
-0.0358756
-0.0064168
-0.242012
-0.238699
-0.220682
-0.196742
-0.168386
-0.133791
-0.093762
-0.0511
-0.00940817
0.0268096
0.0599192
0.0864568
0.0834645
0.0275152
-0.0439949
-0.0794061
-0.0807426
-0.063905
-0.0471569
-0.0346828
-0.0232981
-0.0221684
-0.0305448
-0.0388547
-0.0406441
-0.0282423
-0.0232969
-0.0324576
-0.0393082
-0.00701653
-0.266012
-0.262072
-0.242019
-0.215724
-0.184266
-0.145364
-0.100581
-0.0533462
-0.00797572
0.0308492
0.0666428
0.095808
0.0899888
0.0211823
-0.0617597
-0.100127
-0.0982635
-0.0759859
-0.055084
-0.039945
-0.0281292
-0.0264908
-0.0331654
-0.0422241
-0.0438542
-0.0308227
-0.0247847
-0.0351049
-0.0421778
-0.00751507
-0.291523
-0.286944
-0.264977
-0.236401
-0.201608
-0.157919
-0.108005
-0.0559823
-0.00698715
0.0343264
0.0725001
0.103333
0.0949002
0.0136984
-0.0793331
-0.121617
-0.116814
-0.0886003
-0.0630328
-0.0449667
-0.0327426
-0.0302632
-0.0350091
-0.0448907
-0.0465068
-0.0331669
-0.0262255
-0.0375232
-0.0444793
-0.00792802
-0.318446
-0.313281
-0.289677
-0.258957
-0.220537
-0.171524
-0.116083
-0.0590895
-0.0065448
0.0370701
0.0770457
0.107792
0.0969465
0.00560899
-0.0947945
-0.1424
-0.135645
-0.101415
-0.0708841
-0.0497309
-0.0371225
-0.0335642
-0.0362333
-0.0470388
-0.0487203
-0.0352983
-0.0276218
-0.039717
-0.0462282
-0.00827123
-0.346555
-0.341001
-0.316257
-0.283587
-0.241172
-0.186246
-0.124866
-0.0627533
-0.00673109
0.0388959
0.0797464
0.108114
0.0945932
-0.00313179
-0.107297
-0.16137
-0.153937
-0.11405
-0.0785133
-0.054227
-0.0412563
-0.0364672
-0.0369794
-0.0488086
-0.0505973
-0.0372329
-0.0289652
-0.0416924
-0.0474559
-0.0085596
-0.375506
-0.369951
-0.344844
-0.310466
-0.26361
-0.202145
-0.134414
-0.0670539
-0.00762736
0.0395825
0.0800486
0.103891
0.0869471
-0.0127144
-0.117047
-0.177309
-0.170954
-0.126136
-0.0858019
-0.0584489
-0.0451333
-0.0390405
-0.0373748
-0.0503169
-0.0522301
-0.0389933
-0.0302432
-0.0434518
-0.0482048
-0.00880657
-0.404762
-0.399887
-0.375499
-0.3397
-0.287899
-0.219267
-0.144788
-0.0720544
-0.00934656
0.0388807
0.0778546
0.0955716
0.0744279
-0.022974
-0.124722
-0.190228
-0.186162
-0.137363
-0.0926478
-0.0623935
-0.0487463
-0.0413452
-0.0375282
-0.0516545
-0.0536864
-0.0406153
-0.0314556
-0.044996
-0.0485235
-0.00902376
-0.433304
-0.430379
-0.40811
-0.37123
-0.314
-0.237629
-0.156046
-0.0778051
-0.0120451
0.0365606
0.0732445
0.0840774
0.0586361
-0.0333061
-0.131088
-0.200263
-0.1992
-0.147501
-0.0989712
-0.0660593
-0.0520911
-0.0434336
-0.0375289
-0.0528948
-0.0549719
-0.042126
-0.0326192
-0.0463546
-0.0484653
-0.00922072
-0.460057
-0.46076
-0.442327
-0.404758
-0.341715
-0.257192
-0.168232
-0.0843641
-0.0158973
0.0324343
0.0665124
0.0706328
0.0416943
-0.0431238
-0.136885
-0.208017
-0.209932
-0.156398
-0.10472
-0.0694477
-0.0551701
-0.0453463
-0.0374372
-0.0540817
-0.0560189
-0.0435006
-0.0337408
-0.0476027
-0.0480905
-0.00940503
-0.484811
-0.490183
-0.477535
-0.439887
-0.370755
-0.277737
-0.181223
-0.0917315
-0.0210184
0.0264158
0.0583769
0.0566323
0.0246046
-0.0530768
-0.142568
-0.214245
-0.218655
-0.16404
-0.109845
-0.072553
-0.0579811
-0.0471341
-0.0372737
-0.0551856
-0.0568548
-0.0446704
-0.0347771
-0.0487474
-0.0474691
-0.00958432
-0.507135
-0.51689
-0.511786
-0.475741
-0.401495
-0.300226
-0.195833
-0.100288
-0.0275522
0.0184082
0.0492461
0.0421952
0.00476155
-0.0658975
-0.148036
-0.217651
-0.224899
-0.170555
-0.114543
-0.0753762
-0.0605574
-0.0488812
-0.0371686
-0.0564571
-0.0581154
-0.0456667
-0.0356453
-0.0495209
-0.0466143
-0.00976372
-0.522919
-0.532771
-0.532459
-0.499032
-0.42339
-0.318
-0.208962
-0.109703
-0.0359131
0.0078493
0.0375156
0.0225021
-0.0174492
-0.0796284
-0.150206
-0.214773
-0.223691
-0.172893
-0.117757
-0.0777576
-0.0619233
-0.0503855
-0.0384914
-0.0587259
-0.0606821
-0.0465902
-0.0362272
-0.0494737
-0.0455674
-0.00987091
-0.533048
-0.548557
-0.551336
-0.515645
-0.433327
-0.321571
-0.20865
-0.108559
-0.037374
0.00251195
0.0308346
0.011884
-0.0303687
-0.088894
-0.154784
-0.217684
-0.226313
-0.174354
-0.118874
-0.0787374
-0.0629126
-0.0510562
-0.0391612
-0.0593374
-0.0619619
-0.0471226
-0.036791
-0.0495705
-0.0450615
-0.00995808
-0.543087
-0.563811
-0.567891
-0.527695
-0.436753
-0.318016
-0.202114
-0.103318
-0.0366155
-0.00103939
0.0247773
0.00131833
-0.0427095
-0.0973252
-0.158616
-0.220646
-0.228866
-0.17479
-0.118673
-0.0789476
-0.0637372
-0.0511832
-0.0395172
-0.0596014
-0.063076
-0.0476427
-0.0373448
-0.0496765
-0.0446787
-0.0100268
-0.553413
-0.578191
-0.58334
-0.539426
-0.441214
-0.316554
-0.198248
-0.101034
-0.0385082
-0.0063998
0.0169176
-0.0100744
-0.0542496
-0.104733
-0.161987
-0.22269
-0.230316
-0.174769
-0.118431
-0.0791668
-0.0645395
-0.0512274
-0.0398798
-0.0600144
-0.0641956
-0.0481588
-0.037866
-0.0497513
-0.0442583
-0.0100786
-0.563506
-0.591639
-0.597863
-0.55075
-0.446222
-0.316572
-0.196565
-0.101405
-0.0430121
-0.0136275
0.0070984
-0.0217391
-0.0649263
-0.111203
-0.164783
-0.224006
-0.231003
-0.174424
-0.11833
-0.0795057
-0.0653401
-0.0513388
-0.0403374
-0.0605475
-0.0653112
-0.0486678
-0.0383565
-0.0498002
-0.0437941
-0.0101174
-0.573118
-0.60377
-0.610963
-0.560852
-0.450649
-0.316768
-0.195868
-0.103491
-0.0495256
-0.0222998
-0.00412324
-0.0334121
-0.074769
-0.116772
-0.166992
-0.224631
-0.231063
-0.173695
-0.118193
-0.079856
-0.0661153
-0.051487
-0.0408629
-0.061146
-0.0664249
-0.049171
-0.0388173
-0.0498278
-0.0433128
-0.0101454
-0.582129
-0.61433
-0.622295
-0.569455
-0.454436
-0.317265
-0.196347
-0.107429
-0.0580824
-0.0325688
-0.0173023
-0.0449866
-0.0838039
-0.121475
-0.168585
-0.224532
-0.230464
-0.172548
-0.117937
-0.0801676
-0.0668517
-0.0516436
-0.0414399
-0.0618128
-0.0675444
-0.0496693
-0.0392486
-0.0498378
-0.0428284
-0.0101633
-0.59077
-0.62309
-0.631616
-0.57641
-0.457648
-0.318359
-0.198375
-0.113552
-0.0688217
-0.0447925
-0.0319589
-0.0564212
-0.0920509
-0.125341
-0.169535
-0.22368
-0.229172
-0.17099
-0.117573
-0.0804436
-0.0675475
-0.0518181
-0.042076
-0.0625529
-0.0686743
-0.0501631
-0.0396506
-0.0498333
-0.0423464
-0.0101716
-0.596476
-0.62981
-0.638682
-0.581535
-0.460204
-0.320121
-0.202077
-0.122019
-0.0817616
-0.0592684
-0.0478599
-0.0676979
-0.099525
-0.128395
-0.169813
-0.222052
-0.227172
-0.169036
-0.117114
-0.0806914
-0.0682032
-0.0520337
-0.0427825
-0.0633645
-0.069817
-0.0506526
-0.0400238
-0.0498177
-0.0418713
-0.0101713
-0.599905
-0.634407
-0.643267
-0.584648
-0.461982
-0.32253
-0.207449
-0.132875
-0.0968932
-0.0761563
-0.06474
-0.0787789
-0.106237
-0.130663
-0.169399
-0.219629
-0.224449
-0.166692
-0.116561
-0.0809103
-0.0688194
-0.0523106
-0.0435684
-0.0642483
-0.0709743
-0.0511378
-0.0403688
-0.0497941
-0.0414089
-0.0101633
-0.602105
-0.636728
-0.645152
-0.585598
-0.462853
-0.325529
-0.214442
-0.146094
-0.114263
-0.0954263
-0.0822988
-0.0896058
-0.112194
-0.132173
-0.168278
-0.216402
-0.220993
-0.163967
-0.115906
-0.0810966
-0.0693976
-0.052664
-0.0444413
-0.0652044
-0.0721464
-0.0516187
-0.0406861
-0.0497653
-0.0409648
-0.0101484
-0.602003
-0.636431
-0.644137
-0.584196
-0.462726
-0.328997
-0.222958
-0.161502
-0.133976
-0.116818
-0.10026
-0.100109
-0.11741
-0.132958
-0.166446
-0.212371
-0.216795
-0.160869
-0.115143
-0.0812472
-0.0699408
-0.0531078
-0.0454106
-0.0662291
-0.0733308
-0.0520948
-0.0409763
-0.0497346
-0.0405445
-0.0101273
-0.599319
-0.633177
-0.640002
-0.580293
-0.461515
-0.33272
-0.232823
-0.179642
-0.155157
-0.139742
-0.118351
-0.11022
-0.121899
-0.133057
-0.163907
-0.207548
-0.211853
-0.157409
-0.114265
-0.0813602
-0.0704534
-0.0536545
-0.0464863
-0.0673139
-0.0745231
-0.0525655
-0.0412403
-0.0497047
-0.040153
-0.0101009
-0.593839
-0.626685
-0.632535
-0.573766
-0.459096
-0.336397
-0.243654
-0.199507
-0.178318
-0.162727
-0.136259
-0.119877
-0.125687
-0.132519
-0.160683
-0.201963
-0.206174
-0.153602
-0.113265
-0.0814337
-0.0709414
-0.0543149
-0.0476772
-0.0684507
-0.0757182
-0.05303
-0.0414784
-0.0496785
-0.0397948
-0.0100696
-0.585391
-0.616756
-0.621588
-0.564488
-0.455283
-0.339686
-0.255762
-0.220148
-0.203252
-0.186072
-0.15369
-0.129018
-0.128807
-0.131403
-0.156808
-0.19566
-0.199772
-0.149465
-0.112136
-0.0814661
-0.0714118
-0.055098
-0.0489898
-0.0696329
-0.0769109
-0.0534874
-0.0416913
-0.0496588
-0.0394742
-0.0100341
-0.57391
-0.603272
-0.607128
-0.552337
-0.449872
-0.342192
-0.268411
-0.241689
-0.229461
-0.209125
-0.170421
-0.137594
-0.131302
-0.129776
-0.152334
-0.188703
-0.192673
-0.145014
-0.110872
-0.0814559
-0.0718723
-0.05601
-0.0504281
-0.0708535
-0.0780936
-0.0539364
-0.0418794
-0.0496483
-0.0391952
-0.009995
-0.559232
-0.586238
-0.589201
-0.537211
-0.442703
-0.343814
-0.281046
-0.263732
-0.256225
-0.23159
-0.186285
-0.145573
-0.133221
-0.127714
-0.147328
-0.181169
-0.184916
-0.140272
-0.109464
-0.0814016
-0.0723312
-0.057055
-0.051994
-0.0721016
-0.0792578
-0.0543755
-0.0420431
-0.0496498
-0.0389611
-0.00995276
-0.541438
-0.565765
-0.567555
-0.519479
-0.432769
-0.34455
-0.293556
-0.285785
-0.282927
-0.25325
-0.201158
-0.152934
-0.134619
-0.125293
-0.141874
-0.173152
-0.176552
-0.13526
-0.107908
-0.0813019
-0.0727967
-0.0582349
-0.0536858
-0.0733647
-0.080395
-0.0548032
-0.0421827
-0.0496658
-0.0387748
-0.00990792
-0.521044
-0.542151
-0.542739
-0.498627
-0.420499
-0.343739
-0.305518
-0.307634
-0.308895
-0.273889
-0.214961
-0.159672
-0.135558
-0.122593
-0.136069
-0.164757
-0.167649
-0.130006
-0.106198
-0.0811554
-0.0732766
-0.0595495
-0.0554986
-0.0746324
-0.0814967
-0.0552175
-0.0422984
-0.049699
-0.038639
-0.00986099
-0.498621
-0.51591
-0.515194
-0.474989
-0.405902
-0.341352
-0.316584
-0.329017
-0.333592
-0.293287
-0.227637
-0.165791
-0.136107
-0.119693
-0.13002
-0.156095
-0.158288
-0.124535
-0.104332
-0.0809609
-0.0737781
-0.0609966
-0.0574245
-0.0758949
-0.0825537
-0.0556165
-0.0423901
)
;

boundaryField
{
    inlet
    {
        type            zeroGradient;
    }
    outlet
    {
        type            fixedValue;
        value           uniform 0;
    }
    cylinder
    {
        type            zeroGradient;
    }
    top
    {
        type            symmetryPlane;
    }
    bottom
    {
        type            symmetryPlane;
    }
    defaultFaces
    {
        type            empty;
    }
    procBoundary1to0
    {
        type            processor;
        value           nonuniform List<scalar> 
50
(
-0.394942
-0.437427
-0.437427
-0.478079
-0.478079
-0.536435
-0.511208
-0.511208
-0.549714
-0.549714
-0.554547
-0.554547
-0.555682
-0.555682
-0.555008
-0.546813
-0.546813
-0.545158
-0.545158
-0.03286
-0.0337807
-0.0355056
-0.0379659
-0.0411331
-0.0449798
-0.0494983
-0.0546875
-0.0605548
-0.0671128
-0.0743782
-0.0743782
-0.0805819
-0.0890923
-0.0983491
-0.108377
-0.119199
-0.130843
-0.143333
-0.156691
-0.170942
-0.186106
-0.202202
-0.219243
-0.23724
-0.256203
-0.276102
-0.296904
-0.318715
-0.34173
-0.365409
)
;
    }
    procBoundary1to3
    {
        type            processor;
        value           nonuniform List<scalar> 
41
(
-0.424819
-0.427118
-0.428019
-0.429357
-0.431644
-0.435041
-0.439577
-0.445257
-0.451895
-0.459561
-0.474814
-0.48766
-0.48548
-0.448959
-0.389216
-0.337429
-0.326619
-0.349317
-0.356576
-0.311226
-0.239134
-0.171296
-0.136332
-0.116666
-0.12384
-0.147282
-0.148565
-0.118879
-0.102309
-0.0807171
-0.074307
-0.0625728
-0.0594529
-0.0771422
-0.0835574
-0.0559977
-0.0424577
-0.0497516
-0.0385555
-0.00981248
-0.0497516
)
;
    }
}


// ************************************************************************* //
