/*--------------------------------*- C++ -*----------------------------------*\
  =========                 |
  \\      /  F ield         | OpenFOAM: The Open Source CFD Toolbox
   \\    /   O peration     | Website:  https://openfoam.org
    \\  /    A nd           | Version:  7
     \\/     M anipulation  |
\*---------------------------------------------------------------------------*/
FoamFile
{
    version     2.0;
    format      ascii;
    class       surfaceScalarField;
    location    "160";
    object      phi;
}
// * * * * * * * * * * * * * * * * * * * * * * * * * * * * * * * * * * * * * //

dimensions      [0 3 -1 0 0 0 0];

internalField   nonuniform List<scalar> 
16735
(
-0.000139627
-0.00165121
0.00179084
-0.000485872
-0.00336657
0.00371281
-0.00100136
-0.0039784
0.00449389
-0.00165715
-0.00377652
0.00443231
-0.00243297
-0.00304571
0.00382154
-0.00331412
-0.00197746
0.0028586
-0.00428856
-0.000622176
0.00159662
-0.00534843
0.00109965
-3.97801e-05
-0.0064929
0.00335451
-0.00221004
0.006408
-0.00516812
-0.00773278
-0.000144776
-0.00150644
-0.000495805
-0.00301554
-0.00100928
-0.00346493
-0.00165375
-0.00313205
-0.00240885
-0.00229062
-0.00326023
-0.00112608
-0.00419482
0.000312416
-0.00520183
0.00210667
-0.00627442
0.0044271
0.0075391
-0.00740552
-0.000145945
-0.00136049
-0.000493345
-0.00266814
-0.000992853
-0.00296542
-0.00161008
-0.00251482
-0.00232322
-0.00157747
-0.00311632
-0.000332982
-0.00397261
0.0011687
-0.00487415
0.0030082
-0.00580386
0.00535681
0.00846546
-0.00673022
-0.000143897
-0.00121659
-0.000480978
-0.00233106
-0.000956994
-0.0024894
-0.00153405
-0.00193777
-0.00218757
-0.000923951
-0.00289812
0.000377566
-0.003643
0.00191358
-0.00439385
0.00375905
-0.00512026
0.00608322
0.00910721
-0.005762
-0.00013958
-0.00107701
-0.000461697
-0.00200894
-0.000907586
-0.00204352
-0.00143519
-0.00141016
-0.00201588
-0.000343266
-0.00262527
0.000986958
-0.00323295
0.00252126
-0.00379787
0.00432398
-0.00427458
0.00655992
0.00940486
-0.00457223
-0.000134034
-0.000942979
-0.000438752
-0.00170422
-0.000851015
-0.00163125
-0.00132396
-0.000937211
-0.00182379
0.000156564
-0.00232002
0.00148318
-0.00277349
0.00297474
-0.00312908
0.00467957
-0.00332571
0.00675655
0.00932264
-0.0032435
-0.000128301
-0.000814678
-0.000415365
-0.00141716
-0.000793636
-0.00125298
-0.0012109
-0.000519951
-0.00162733
0.000573001
-0.00200556
0.00186141
-0.00229737
0.00326655
-0.00243289
0.00481509
-0.00233523
0.0066589
0.00885219
-0.00186478
-0.000123319
-0.000691359
-0.000394424
-0.00114605
-0.000741176
-0.000906229
-0.00110561
-0.000155515
-0.00144141
0.000908797
-0.00170392
0.00212392
-0.00183602
0.00339865
-0.00175285
0.00473191
-0.00135836
0.00626441
0.00802913
-0.000535303
-0.000119823
-0.000571536
-0.00037817
-0.000887708
-0.000698106
-0.000586294
-0.00101575
0.000162134
-0.00127814
0.00117118
-0.00143344
0.00227922
-0.00141626
0.00338147
-0.00112726
0.00444292
-0.00042774
0.00556489
0.0068139
0.00078749
-0.000118258
-0.000453277
-0.000367914
-0.000638052
-0.000667039
-0.000287169
-0.000945881
0.000440976
-0.00114498
0.00137028
-0.00120582
0.00234006
-0.00105581
0.00323146
-0.000585512
0.00397262
0.000363686
0.00461569
0.00518251
0.00199508
-0.000118701
-0.000334576
-0.000363805
-0.000392948
-0.000648228
-2.74561e-06
-0.000896479
0.000689227
-0.00104283
0.00151663
-0.00102251
0.00231974
-0.000757423
0.00296637
-0.000138931
0.00335413
0.00103464
0.00344212
0.0031572
0.00305995
-0.000120821
-0.000213756
-0.000364697
-0.000149072
-0.00063925
0.000271807
-0.000863306
0.000913283
-0.000964779
0.0016181
-0.000872203
0.00222716
-0.00050002
0.00259419
0.000276029
0.00257808
0.00165094
0.0020672
0.000758186
0.00404995
-0.000123883
-8.98727e-05
-0.000368158
9.52037e-05
-0.000634989
0.000538638
-0.00083727
0.00111556
-0.000895776
0.00167661
-0.000730438
0.00206182
-0.000244719
0.00210847
0.000689603
0.00164376
0.00230245
0.000454359
-0.00202838
0.00508901
-0.000126811
3.69382e-05
-0.000370665
0.000339058
-0.000627997
0.000795969
-0.00080499
0.00129256
-0.000813427
0.00168504
-0.000561354
0.00180975
6.2252e-05
0.00148486
0.00120134
0.000504677
0.00313086
-0.00147516
-0.00524272
0.0063452
-0.000128314
0.000165252
-0.000367988
0.000578732
-0.000609279
0.00103726
-0.000750187
0.00143347
-0.000690477
0.00162533
-0.000321049
0.00144032
0.000490119
0.000673696
0.00191563
-0.000920832
0.00428777
-0.0038473
-0.00893362
0.00797867
-0.000127072
0.000292324
-0.000355764
0.000807424
-0.000569472
0.00125097
-0.000655869
0.00151986
-0.000498679
0.00146814
3.47988e-05
0.000906846
0.00110826
-0.000399765
0.00292249
-0.00273506
0.00588139
-0.0068062
-0.0131231
0.0100708
-0.000121948
0.000414272
-0.00033014
0.00101562
-0.000500212
0.00142104
-0.000506896
0.00152655
-0.000213441
0.00117469
0.000542252
0.000151152
0.0019618
-0.00181931
0.00427529
-0.00504854
0.00793259
-0.0104635
-0.017768
0.0125775
-0.000112186
0.000526458
-0.000288387
0.00119182
-0.000395398
0.00152805
-0.000292317
0.00142347
0.000182106
0.000700267
0.00122327
-0.000890015
0.00307134
-0.00366738
0.00598274
-0.00795994
0.0103641
-0.0148449
-0.0227472
0.0153433
-9.75463e-05
0.000624004
-0.000229305
0.00132358
-0.000252041
0.00155079
-6.49833e-06
0.00117792
0.000695026
-1.25785e-06
0.00208277
-0.00227776
0.0044284
-0.00601301
0.00800975
-0.0115413
0.0130318
-0.0198669
-0.0278864
0.018171
-7.83208e-05
0.000702325
-0.0001533
0.00139856
-7.05259e-05
0.00146801
0.000349048
0.000758349
0.00132193
-0.00097414
0.00310859
-0.00406442
0.00599524
-0.00889965
0.0102622
-0.0158083
0.0157902
-0.0253949
-0.0330433
0.0209471
-5.5238e-05
0.000757563
-6.20459e-05
0.00140536
0.0001461
0.00125987
0.000769598
0.000134851
0.0020517
-0.00225624
0.00427523
-0.00628795
0.00771356
-0.012338
0.0125709
-0.0206657
0.0183939
-0.0312178
-0.0409707
0.0263214
-2.9309e-05
0.000786872
4.17458e-05
0.00133431
0.000393145
0.000908469
0.00124649
-0.000718498
0.00286813
-0.00387788
0.0055487
-0.00896852
0.00951494
-0.0163042
0.0148087
-0.0259594
0.0208854
-0.0372945
-0.0482549
0.0281696
-8.75934e-07
0.000787748
0.000155575
0.00117786
0.000665624
0.00039842
0.00177061
-0.00182349
0.00375321
-0.00586048
0.00688998
-0.0121053
0.0113193
-0.0207336
0.0168731
-0.0315132
0.0229522
-0.0433737
-0.0547404
0.0294377
2.81841e-05
0.000759564
0.000277602
0.000928439
0.000959404
-0.000283382
0.00233351
-0.0031976
0.00468821
-0.00821518
0.00825614
-0.0156732
0.0130421
-0.0255195
0.0186725
-0.0371436
0.024486
-0.0491872
-0.0604548
0.0302004
5.86169e-05
0.000700947
0.000406681
0.000580375
0.00127165
-0.00114835
0.00292777
-0.00485372
0.00565296
-0.0109404
0.00959948
-0.0196197
0.0146033
-0.0305233
0.0201218
-0.0426622
0.0255006
-0.054566
-0.0654021
0.0304479
9.02495e-05
0.000610697
0.000542668
0.000127957
0.0016007
-0.00220639
0.00354609
-0.00679911
0.00662405
-0.0140183
0.010868
-0.0238636
0.015934
-0.0355893
0.0211778
-0.0479061
0.0260189
-0.0594071
-0.0696225
0.0302394
0.000123517
0.00048718
0.00068608
-0.000434606
0.0019453
-0.00346561
0.00417969
-0.0090335
0.00757337
-0.017412
0.0120091
-0.0282994
0.0169843
-0.0405645
0.0218324
-0.0527541
0.0260956
-0.0636703
-0.0731905
0.0296636
0.000159006
0.000328174
0.000837556
-0.00111316
0.00230344
-0.0049315
0.00481661
-0.0115467
0.00846844
-0.0210638
0.0129763
-0.0328073
0.0177279
-0.0453161
0.0221062
-0.0571324
0.0257976
-0.0673617
-0.0761885
0.0287956
0.000197244
0.00013093
0.000997283
-0.0019132
0.00267138
-0.00660559
0.00544088
-0.0143162
0.00927508
-0.024898
0.0137345
-0.0372667
0.0181614
-0.0497429
0.0220383
-0.0610093
0.0251934
-0.0705168
-0.0787017
0.0277066
0.000238545
-0.000107615
0.00116454
-0.00283919
0.00304292
-0.00848397
0.00603294
-0.0173062
0.00996154
-0.0288266
0.0142642
-0.0415693
0.0183
-0.0537787
0.0216769
-0.0643862
0.0243475
-0.0731874
-0.0808075
0.0264533
0.000282903
-0.000390517
0.00133746
-0.00389376
0.00340935
-0.0105559
0.00657142
-0.0204683
0.0105028
-0.032758
0.0145612
-0.0456278
0.0181717
-0.0573893
0.0210725
-0.0672869
0.0233159
-0.0754309
-0.0825728
0.0250812
0.000329967
-0.000720484
0.00151301
-0.0050768
0.00375993
-0.0128028
0.00703568
-0.023744
0.010883
-0.0366054
0.0146343
-0.049379
0.0178113
-0.0605662
0.020273
-0.0697486
0.0221456
-0.0773035
-0.0840524
0.0236252
0.000379065
-0.00109955
0.00168713
-0.00638486
0.00408286
-0.0151985
0.00740838
-0.0270695
0.0110966
-0.0402936
0.0145015
-0.0527839
0.0172554
-0.0633201
0.0193211
-0.0718144
0.0208742
-0.0788566
-0.0852894
0.0221112
0.000429259
-0.00152881
0.00185508
-0.00781069
0.00436641
-0.0177098
0.00767721
-0.0303803
0.0111467
-0.0437631
0.0141864
-0.0558236
0.0165398
-0.0656734
0.0182535
-0.0735281
0.019531
-0.0801341
-0.0863166
0.0205582
0.000479416
-0.00200822
0.00201173
-0.009343
0.00460016
-0.0202983
0.00783575
-0.0336159
0.0110432
-0.0469706
0.0137149
-0.0584953
0.0156972
-0.0676558
0.0171003
-0.0749312
0.0181387
-0.0811724
-0.0871582
0.0189803
0.00052828
-0.0025365
0.00215198
-0.0109667
0.00477588
-0.0229222
0.00788321
-0.0367232
0.0108006
-0.049888
0.0131127
-0.0608074
0.0147563
-0.0692994
0.0158859
-0.0760608
0.0167143
-0.0820008
-0.0878315
0.0173875
0.000574535
-0.00311104
0.00227107
-0.0126632
0.00488813
-0.0255392
0.00782353
-0.0396586
0.0104358
-0.0525003
0.0124045
-0.0627761
0.0137416
-0.0706364
0.0146297
-0.0769489
0.0152705
-0.0826415
-0.0883485
0.0157875
0.000616872
-0.00372791
0.00236494
-0.0144113
0.00493439
-0.0281087
0.0076642
-0.0423884
0.00996679
-0.0548029
0.0116125
-0.0644218
0.0126735
-0.0716973
0.0133466
-0.0776221
0.0138168
-0.0831117
-0.0887175
0.0141858
0.00065405
-0.00438196
0.00243045
-0.0161877
0.00491493
-0.0305932
0.00741501
-0.0448885
0.00941096
-0.0567988
0.0107563
-0.0657672
0.0115685
-0.0725095
0.0120482
-0.0781019
0.0123604
-0.0834238
-0.0889441
0.0125869
0.000684945
-0.00506691
0.00246552
-0.0179683
0.00483235
-0.03296
0.007087
-0.0471432
0.00878486
-0.0584967
0.00985257
-0.0668349
0.01044
-0.0730969
0.0107435
-0.0784054
0.0109066
-0.0835869
-0.089032
0.0109946
0.000708604
-0.00577551
0.00246919
-0.0197289
0.00469102
-0.0351818
0.00669164
-0.0491438
0.00810349
-0.0599086
0.00891552
-0.0676469
0.0092987
-0.0734801
0.00943926
-0.078546
0.00945969
-0.0836073
-0.0889839
0.00941161
0.000724269
-0.00649978
0.00244155
-0.0214461
0.00449654
-0.0372368
0.00624018
-0.0508874
0.00738016
-0.0610486
0.00795686
-0.0682236
0.00815298
-0.0736762
0.0081407
-0.0785337
0.00802289
-0.0834895
-0.088801
0.00783992
0.000731408
-0.00723119
0.00238361
-0.0230983
0.00425519
-0.0391084
0.00574328
-0.0523755
0.00662647
-0.0619317
0.00698623
-0.0685834
0.00700936
-0.0736994
0.00685186
-0.0783762
0.00659886
-0.0832365
-0.0884834
0.00628129
0.000729714
-0.0079609
0.00229717
-0.0246658
0.00397354
-0.0407848
0.00521074
-0.0536127
0.00585234
-0.0625733
0.0060115
-0.0687425
0.00587303
-0.0735609
0.00557576
-0.0780789
0.00518964
-0.0828504
-0.088031
0.00473721
0.000719103
-0.00868
0.00218456
-0.0261313
0.00365811
-0.0422583
0.00465137
-0.054606
0.0050662
-0.0629882
0.00503908
-0.0687154
0.00474825
-0.0732701
0.00431504
-0.0776457
0.00379642
-0.0823318
-0.0874434
0.00320881
0.000699697
-0.0093797
0.00204847
-0.02748
0.00331512
-0.0435249
0.00407295
-0.0553638
0.00427508
-0.0631903
0.00407416
-0.0685145
0.00363877
-0.0728347
0.00307305
-0.07708
0.00241944
-0.0816782
-0.0867179
0.00169401
0.000671826
-0.0100515
0.00189189
-0.0287001
0.00295041
-0.0445835
0.00348223
-0.0558956
0.00348478
-0.0631929
0.00312081
-0.0681505
0.00254744
-0.0722613
0.00185368
-0.0763862
0.00106456
-0.080889
-0.085812
0.000158616
0.000636013
-0.0106875
0.00171807
-0.0297822
0.00256938
-0.0454348
0.00288507
-0.0562113
0.0027001
-0.0630079
0.00218223
-0.0676326
0.00147585
-0.0715549
0.000654832
-0.0755652
-0.000247076
-0.0799871
-0.0847932
-0.00126583
0.000592917
-0.0112805
0.00153002
-0.0307193
0.00217687
-0.0460816
0.00228646
-0.0563209
0.00192494
-0.0626464
0.00126106
-0.0669688
0.000424427
-0.0707183
-0.000520327
-0.0746205
-0.00156303
-0.0789444
-0.0836688
-0.0026875
0.000543309
-0.0118238
0.00133064
-0.0315066
0.00177725
-0.0465282
0.00169059
-0.0562342
0.0011624
-0.0621182
0.000358884
-0.0661652
-0.00060044
-0.069759
-0.00166566
-0.0735552
-0.002837
-0.0777731
-0.0824162
-0.00408955
0.000488053
-0.0123118
0.00112272
-0.0321413
0.00137439
-0.0467799
0.00110083
-0.0559607
0.000415284
-0.0614326
-0.000520238
-0.0652297
-0.00159958
-0.0686796
-0.00278721
-0.0723676
-0.00408157
-0.0764787
-0.0810339
-0.0054639
0.000428052
-0.0127399
0.00090902
-0.0326222
0.000971714
-0.0468426
0.000520327
-0.0555093
-0.000314152
-0.0605982
-0.00137621
-0.0641677
-0.00257438
-0.0674815
-0.00388081
-0.0710612
-0.00529718
-0.0750624
-0.0795235
-0.00680754
0.000364159
-0.013104
0.000692095
-0.0329502
0.000572425
-0.0467229
-4.27914e-05
-0.0548941
-0.00102367
-0.0596173
-0.00220945
-0.0629819
-0.00352294
-0.066168
-0.00494536
-0.0696388
-0.00648246
-0.0735253
-0.0778876
-0.00811834
0.00029733
-0.0134014
0.000474018
-0.0331268
0.000183435
-0.0464324
-0.000603792
-0.0541068
-0.00171503
-0.058506
-0.00301848
-0.0616784
-0.00444424
-0.0647422
-0.00598013
-0.0681029
-0.00763603
-0.0718694
-0.07613
-0.00939368
0.00022927
-0.0136306
0.000256832
-0.0331544
-0.000207966
-0.0459676
-0.00114449
-0.0531703
-0.00238534
-0.0572652
-0.00380252
-0.0602612
-0.00533759
-0.0632071
-0.00698449
-0.066456
-0.00875649
-0.0700973
-0.0742566
-0.0106299
0.000160084
-0.0137907
5.36781e-05
-0.033048
-0.000594465
-0.0453194
-0.00167135
-0.0520934
-0.00303393
-0.0559026
-0.00456094
-0.0587342
-0.00620241
-0.0615657
-0.00795769
-0.0647007
-0.00984259
-0.0682124
-0.072272
-0.0118272
8.65856e-05
-0.0138773
-0.000175339
-0.0327861
-0.00096739
-0.0445274
-0.00218121
-0.0508796
-0.00366017
-0.0544237
-0.00529322
-0.0571012
-0.00703835
-0.0598205
-0.00889924
-0.0628398
-0.0108943
-0.0662174
-0.0701729
-0.0129934
5.20957e-06
-0.0138825
-0.000397296
-0.0323836
-0.00132988
-0.0435948
-0.00267272
-0.0495368
-0.00426327
-0.0528331
-0.00599903
-0.0553654
-0.00784577
-0.0579738
-0.00981014
-0.0608754
-0.0119107
-0.0641168
-0.0679582
-0.0141254
-6.38348e-05
-0.0138187
-0.000608167
-0.0318392
-0.00168026
-0.0425227
-0.0031454
-0.0480717
-0.00484255
-0.0511359
-0.00667791
-0.0535301
-0.00862533
-0.0560264
-0.0106936
-0.0588072
-0.0128866
-0.0619238
-0.065642
-0.0152028
-0.00013619
-0.0136825
-0.000811502
-0.0311639
-0.00201745
-0.0413167
-0.00359867
-0.0464904
-0.00539739
-0.0493372
-0.00732895
-0.0515985
-0.00937518
-0.0539801
-0.0115482
-0.0566342
-0.0138589
-0.0596131
-0.0633627
-0.0161382
-0.00020786
-0.0134746
-0.0010079
-0.0303639
-0.00234077
-0.0399839
-0.00403197
-0.0447992
-0.00592736
-0.0474418
-0.00795125
-0.0495746
-0.0100908
-0.0518405
-0.0123465
-0.0543785
-0.0146826
-0.057277
-0.0605963
-0.017449
-0.000277871
-0.0131968
-0.00119706
-0.0294447
-0.0026498
-0.0385311
-0.00444494
-0.0430041
-0.00643232
-0.0454544
-0.00854422
-0.0474627
-0.0107691
-0.0496157
-0.0131031
-0.0520444
-0.015564
-0.0548161
-0.0578434
-0.0183169
-0.00034579
-0.012851
-0.00137851
-0.028412
-0.00294414
-0.0369655
-0.00483727
-0.041111
-0.00691197
-0.0433798
-0.00910776
-0.0452669
-0.011416
-0.0473075
-0.0138413
-0.0496191
-0.0164172
-0.0522402
-0.055063
-0.0191976
-0.000411305
-0.0124397
-0.00155175
-0.0272715
-0.00322347
-0.0352938
-0.00520873
-0.0391257
-0.00736595
-0.0412225
-0.00964113
-0.0429918
-0.0120288
-0.0449198
-0.0145389
-0.047109
-0.0172014
-0.0495777
-0.0522294
-0.0200351
-0.000474148
-0.0119655
-0.00171638
-0.0260293
-0.00348751
-0.0335226
-0.00555912
-0.0370541
-0.00779415
-0.0389875
-0.0101446
-0.0406413
-0.0126084
-0.042456
-0.0151985
-0.044519
-0.017939
-0.0468372
-0.0493318
-0.0208366
-0.000534078
-0.0114314
-0.00187205
-0.0246913
-0.00373601
-0.0316587
-0.00588832
-0.0349018
-0.00819644
-0.0366794
-0.010618
-0.0382198
-0.0131538
-0.0399202
-0.0158181
-0.0418547
-0.0186308
-0.0440245
-0.0463662
-0.0215964
-0.000590881
-0.0108405
-0.00201846
-0.0232637
-0.00396878
-0.0297084
-0.00619623
-0.0326743
-0.00857275
-0.0343029
-0.0110611
-0.0357314
-0.0136647
-0.0373166
-0.0163981
-0.0391212
-0.0192792
-0.0411434
-0.0433325
-0.0223129
-0.000644367
-0.0101962
-0.00215536
-0.0217528
-0.00418566
-0.0276781
-0.00648276
-0.0303772
-0.008923
-0.0318626
-0.0114738
-0.0331806
-0.0141407
-0.0346497
-0.0169386
-0.0363233
-0.0198843
-0.0381977
-0.0402328
-0.022984
-0.000694366
-0.00950182
-0.00228255
-0.0201646
-0.00438654
-0.0255741
-0.00674787
-0.0280159
-0.00924716
-0.0293633
-0.0118561
-0.0305717
-0.0145818
-0.031924
-0.0174396
-0.0334655
-0.0204459
-0.0351913
-0.0370703
-0.0236085
-0.000740734
-0.00876108
-0.00239986
-0.0185054
-0.0045713
-0.0234026
-0.00699153
-0.0255957
-0.00954517
-0.0268097
-0.0122077
-0.0279092
-0.0149877
-0.029144
-0.0179009
-0.0305523
-0.0209636
-0.0321286
-0.0338489
-0.024185
-0.000783345
-0.00797774
-0.00250715
-0.0167816
-0.00473989
-0.0211699
-0.00721371
-0.0231219
-0.00981698
-0.0242064
-0.0125285
-0.0251976
-0.0153583
-0.0263143
-0.0183223
-0.0275883
-0.0214369
-0.0290139
-0.0305732
-0.0247126
-0.000822088
-0.00715565
-0.0026043
-0.0149994
-0.00489224
-0.018882
-0.00741438
-0.0205997
-0.0100626
-0.0215582
-0.0128186
-0.0224416
-0.0156935
-0.0234394
-0.0187036
-0.0245782
-0.0218654
-0.0258521
-0.0272481
-0.0251905
-0.000856873
-0.00629878
-0.00269121
-0.0131651
-0.00502832
-0.0165448
-0.00759355
-0.0180345
-0.0102819
-0.0188699
-0.0130778
-0.0196458
-0.0159931
-0.0205241
-0.0190445
-0.0215268
-0.0222486
-0.022648
-0.0238787
-0.025618
-0.000887619
-0.00541116
-0.0027678
-0.0112849
-0.00514809
-0.0141646
-0.00775121
-0.0154314
-0.010475
-0.0161461
-0.013306
-0.0168148
-0.016257
-0.0175731
-0.0193449
-0.0184389
-0.0225863
-0.0194066
-0.0204702
-0.0259947
-0.000914261
-0.0044969
-0.00283402
-0.00936515
-0.00525153
-0.011747
-0.00788735
-0.0127955
-0.0106417
-0.0133917
-0.0135032
-0.0139533
-0.0164851
-0.0145912
-0.0196046
-0.0153194
-0.0228782
-0.016133
-0.0170281
-0.0263203
-0.000936743
-0.00356015
-0.00288981
-0.00741208
-0.00533863
-0.00929823
-0.00800198
-0.0101322
-0.0107822
-0.0106115
-0.0136694
-0.0110661
-0.0166773
-0.0115832
-0.0198234
-0.0121734
-0.0231241
-0.0128323
-0.0135577
-0.0265945
-0.000955022
-0.00260513
-0.00293513
-0.00543197
-0.00540936
-0.00682399
-0.00809511
-0.00744645
-0.0108964
-0.00781021
-0.0138044
-0.00815808
-0.0168336
-0.00855407
-0.0200013
-0.00900569
-0.023324
-0.00950961
-0.0100645
-0.0268172
-0.000969062
-0.00163607
-0.00296995
-0.00343109
-0.00546374
-0.0043302
-0.00816674
-0.00474345
-0.0109842
-0.00499271
-0.0139084
-0.00523388
-0.0169539
-0.00550857
-0.0201382
-0.00582141
-0.0234777
-0.00617009
-0.00655389
-0.0269884
-0.000978838
-0.000657233
-0.00299425
-0.00141567
-0.00550176
-0.00182269
-0.00821687
-0.00202834
-0.0110458
-0.00216381
-0.0139813
-0.00229835
-0.0170382
-0.00245163
-0.0202341
-0.00262555
-0.0235853
-0.00281887
-0.00303127
-0.0271079
-0.000984333
0.0003271
-0.00300802
0.000608017
-0.00552341
0.000692699
-0.00824554
0.000693786
-0.011081
0.00067167
-0.0140231
0.000643682
-0.0170865
0.000611845
-0.020289
0.000576874
-0.0236467
0.000538922
0.000497721
-0.0271757
-0.000985538
0.00131264
-0.00301126
0.00263374
-0.00552872
0.00321016
-0.00825273
0.0034178
-0.01109
0.00350892
-0.0140337
0.00358741
-0.0170988
0.00367695
-0.0203028
0.00378088
-0.0236621
0.00389823
0.00402861
-0.027193
-0.000982454
0.00229509
-0.00300396
0.00465524
-0.00551768
0.00572387
-0.00823847
0.0061386
-0.0110727
0.00634311
-0.0140133
0.00652802
-0.0170751
0.00673879
-0.0202756
0.00698141
-0.0236313
0.00725389
0.00755539
-0.0271581
-0.000975087
0.00327018
-0.00298614
0.0066663
-0.0054903
0.00822803
-0.00820277
0.00885107
-0.0110291
0.00916943
-0.0139618
0.00946069
-0.0170154
0.00979244
-0.0202075
0.0101735
-0.0235543
0.0106008
0.0110727
-0.0270717
-0.000963453
0.00423363
-0.00295782
0.00866067
-0.00544661
0.0107168
-0.00814565
0.0115501
-0.0109593
0.0119831
-0.0138792
0.0123806
-0.0169198
0.012833
-0.0200983
0.013352
-0.0234313
0.0139337
0.0145752
-0.0269338
-0.000947576
0.00518121
-0.00291902
0.0106321
-0.00538661
0.0131844
-0.00806711
0.0142306
-0.0108633
0.0147792
-0.0137657
0.015283
-0.0167883
0.0158557
-0.0199483
0.016512
-0.0232622
0.0172475
0.0180574
-0.0267444
-0.000927488
0.0061087
-0.00286978
0.0125744
-0.00531033
0.015625
-0.00796719
0.0168875
-0.0107411
0.0175532
-0.0136212
0.0181632
-0.0166211
0.0188555
-0.0197576
0.0196485
-0.0230472
0.0205371
0.0215139
-0.0265037
-0.000903232
0.00701193
-0.00281015
0.0144813
-0.00521781
0.0180326
-0.0078459
0.0195156
-0.0105928
0.0203
-0.0134459
0.0210163
-0.0164181
0.0218277
-0.0195261
0.0227565
-0.0227864
0.0237974
0.0249393
-0.0262117
-0.000874859
0.00788679
-0.00274016
0.0163466
-0.00510906
0.0204015
-0.00770326
0.0221098
-0.0104184
0.0230152
-0.0132398
0.0238377
-0.0161796
0.0247675
-0.0192543
0.0258312
-0.0224801
0.0270232
0.0283281
-0.0258689
-0.000842431
0.00872922
-0.00265991
0.0181641
-0.00498414
0.0227257
-0.00753931
0.0246649
-0.0102179
0.0256938
-0.013003
0.0266227
-0.0159057
0.0276702
-0.0189421
0.0288677
-0.0221286
0.0302096
0.0316751
-0.0254756
-0.000806022
0.00953524
-0.00256945
0.0199275
-0.00484307
0.0249994
-0.00735407
0.0271759
-0.00999151
0.0283312
-0.0127356
0.0293668
-0.0155965
0.0305311
-0.01859
0.0318612
-0.0217322
0.0333518
0.0349753
-0.0250324
-0.000765716
0.010301
-0.00246889
0.0216307
-0.00468592
0.0272164
-0.00714758
0.0296376
-0.00973916
0.0309228
-0.0124377
0.0320653
-0.0152522
0.0333456
-0.0181982
0.0348072
-0.0212915
0.0364452
0.0382237
-0.02454
-0.000721614
0.0110226
-0.00235833
0.0232674
-0.00451275
0.0293708
-0.00691988
0.0320447
-0.00946096
0.0334639
-0.0121095
0.0347138
-0.0148731
0.0361093
-0.017767
0.0377011
-0.0208071
0.0394852
0.0414161
-0.0239994
-0.000673831
0.0116964
-0.00223792
0.0248315
-0.00432364
0.0314565
-0.00667101
0.0343921
-0.00915698
0.0359499
-0.011751
0.0373078
-0.0144593
0.0388175
-0.0172966
0.0405385
-0.0202794
0.042468
0.0445485
-0.0234119
-0.000622501
0.0123189
-0.0021078
0.0263168
-0.00411869
0.0334674
-0.00640104
0.0366745
-0.00882729
0.0383761
-0.0113625
0.0398431
-0.014011
0.041466
-0.0167873
0.0433148
-0.019709
0.0453897
0.0476183
-0.0227787
-0.000567776
0.0128867
-0.00196816
0.0277172
-0.00389801
0.0353973
-0.00611002
0.0388865
-0.00847198
0.0407381
-0.0109441
0.0423152
-0.0135283
0.0440502
-0.016239
0.0460254
-0.0190962
0.0482469
0.0506239
-0.0221018
-0.000509827
0.0133965
-0.00181923
0.0290266
-0.00366175
0.0372398
-0.00579804
0.0410228
-0.00809113
0.0430312
-0.010496
0.04472
-0.0130118
0.046566
-0.0156516
0.0486652
-0.0184408
0.0510361
0.0535668
-0.0213836
-0.000448849
0.0138454
-0.00166126
0.030239
-0.0034101
0.0389886
-0.0054652
0.0430779
-0.00768481
0.0452508
-0.0100182
0.0470535
-0.0124615
0.0490092
-0.0150245
0.0512282
-0.0177397
0.0537513
0.0564534
-0.0206263
-0.00038506
0.0142304
-0.00149457
0.0313485
-0.00314326
0.0406373
-0.00511165
0.0450462
-0.0072532
0.0473923
-0.00951119
0.0493115
-0.0118789
0.0513769
-0.0143604
0.0537097
-0.0169924
0.0563833
0.0592968
-0.0198358
-0.000318702
0.0145491
-0.00131952
0.0323493
-0.00286149
0.0421793
-0.00473754
0.0469223
-0.00679638
0.0494512
-0.00897438
0.0514895
-0.0112625
0.053665
-0.013655
0.0561022
-0.0161699
0.0588983
0.0621249
-0.018998
-0.000250049
0.0147992
-0.00113652
0.0332358
-0.00256509
0.0436079
-0.00434313
0.0487003
-0.00631476
0.0514228
-0.00840871
0.0535834
-0.0106159
0.0558722
-0.0129365
0.0584228
-0.0153267
0.0612885
0.0649789
-0.0181807
-0.000179445
0.0149786
-0.000946037
0.0340024
-0.00225438
0.0449162
-0.00392866
0.0503746
-0.00580866
0.0533028
-0.00781425
0.055589
-0.00993155
0.0579895
-0.0121746
0.0606658
-0.0145498
0.0636637
0.0672631
-0.016834
-0.000107484
0.0150861
-0.000748431
0.0346433
-0.00192973
0.0460975
-0.00349446
0.0519393
-0.00527819
0.0550865
-0.00719156
0.0575024
-0.00921273
0.0600107
-0.0113517
0.0628048
-0.0136073
0.0659193
0.0696222
-0.0159664
-3.60526e-05
0.0151221
-0.000543627
0.0351509
-0.00159163
0.0471455
-0.003041
0.0533887
-0.00472376
0.0567693
-0.00654165
0.0593203
-0.00846499
0.0619341
-0.0105014
0.0648412
-0.0126664
0.0680843
0.0718908
-0.014935
3.94321e-05
0.0150827
-0.000330152
0.0355205
-0.00124085
0.0480562
-0.00256893
0.0547168
-0.00414603
0.0583464
-0.00586563
0.0610399
-0.00769077
0.0637592
-0.00962653
0.0667769
-0.0116896
0.0701474
0.0740482
-0.013847
0.000116727
0.014966
-0.000101023
0.0357383
-0.000878878
0.0488341
-0.00207863
0.0559166
-0.00354561
0.0598134
-0.00516405
0.0626583
-0.0068894
0.0654845
-0.00872313
0.0686106
-0.0106806
0.0721048
0.0760976
-0.01273
0.00018903
0.014777
0.000113555
0.0358137
-0.000507807
0.0494554
-0.00157059
0.0569793
-0.00292327
0.061166
-0.00443725
0.0641723
-0.00606039
0.0671077
-0.0077897
0.0703399
-0.00963903
0.0739541
0.078043
-0.0115844
0.000258294
0.0145187
0.000321565
0.0357505
-0.00011542
0.0498924
-0.00104659
0.0579105
-0.00227969
0.0623991
-0.00368557
0.0655782
-0.00520405
0.0686262
-0.00682669
0.0719626
-0.00856474
0.0756922
0.0798787
-0.0104004
0.000326601
0.0141921
0.000538005
0.0355391
0.000265655
0.0501648
-0.000510785
0.0586869
-0.00161528
0.0635036
-0.00290969
0.0668726
-0.00432096
0.0700374
-0.00583477
0.0734764
-0.00745885
0.0773163
0.0815977
-0.00917783
0.000393321
0.0137987
0.000755351
0.035177
0.000654643
0.0502655
4.68667e-05
0.0592947
-0.000930969
0.0644815
-0.00211028
0.0680519
-0.00341166
0.0713388
-0.00481447
0.0748792
-0.00632251
0.0788243
0.0831961
-0.00792091
0.00045713
0.0133416
0.000971879
0.0346623
0.00105191
0.0501854
0.000604184
0.0597424
-0.000229732
0.0653154
-0.00128805
0.0691102
-0.00247687
0.0725276
-0.00376644
0.0761688
-0.00515698
0.0802148
0.0846716
-0.00663251
0.000517141
0.0128245
0.00118536
0.0339941
0.00145252
0.0499183
0.00117985
0.0600151
0.000491191
0.066004
-0.000444693
0.0700461
-0.00151767
0.0736006
-0.00269155
0.0773427
-0.00396381
0.0814871
0.0860222
-0.00531438
0.000572507
0.012252
0.00139334
0.0331732
0.00185364
0.049458
0.00176444
0.0601043
0.00122902
0.0665395
0.000421436
0.0708537
-0.000536328
0.0745584
-0.00159108
0.0783974
-0.00274449
0.0826405
0.0872465
-0.0039688
0.000622353
0.0116296
0.00159322
0.0322024
0.00225201
0.0487992
0.0023552
0.0600011
0.00198178
0.0669129
0.00130918
0.0715263
0.000470097
0.0753975
-0.000470143
0.0793377
-0.0014982
0.0836686
0.0883474
-0.00259907
0.000665844
0.0109638
0.00178234
0.0310859
0.00264398
0.0479375
0.00294909
0.059696
0.0027469
0.0671151
0.002215
0.0720582
0.00150121
0.0761113
0.000680512
0.0801584
-0.000210419
0.0845595
0.0893505
-0.00121355
0.00070223
0.0102615
0.00195796
0.0298301
0.0030255
0.04687
0.0035423
0.0591792
0.0035216
0.0671358
0.00313751
0.0724423
0.00255104
0.0766977
0.00185188
0.0808575
0.0010654
0.085346
0.0902416
0.000174294
0.000730869
0.00953067
0.00211722
0.0284438
0.00339206
0.0455952
0.00413023
0.058441
0.00430238
0.0669636
0.00407433
0.0726703
0.00361922
0.0771528
0.00304153
0.0814352
0.00238436
0.0860031
0.0909603
0.00166563
0.000751245
0.00877943
0.00225715
0.0269379
0.00373866
0.0441137
0.00470759
0.0574721
0.00508498
0.0665862
0.00502269
0.0727326
0.00470453
0.077471
0.00425204
0.0818877
0.00372244
0.0865328
0.091549
0.00313375
0.000763001
0.00801642
0.00237462
0.0253262
0.00405982
0.0424285
0.00526821
0.0562637
0.00586425
0.0659902
0.00597907
0.0726178
0.00580453
0.0776455
0.0054797
0.0822125
0.00507406
0.0869384
0.0920113
0.00461177
0.000765995
0.00725043
0.00246701
0.0236252
0.0043497
0.0405458
0.00580504
0.0548084
0.00663393
0.0651613
0.00693898
0.0723127
0.00691599
0.0776685
0.00672144
0.0824071
0.00643929
0.0872205
0.0923489
0.00610169
0.000760284
0.00649015
0.00253197
0.0218535
0.00460216
0.0384756
0.00631005
0.0531005
0.0073866
0.0640848
0.00789687
0.0718025
0.0080353
0.0775301
0.00797511
0.0824673
0.00781734
0.0873783
0.0925636
0.0076026
0.000746129
0.00574402
0.00256762
0.0200321
0.00481093
0.0362323
0.00677429
0.0511371
0.00811344
0.0627456
0.00884603
0.0710699
0.00915817
0.077218
0.0092383
0.0823871
0.00920659
0.08741
0.092657
0.00911325
0.000724001
0.00502001
0.00257274
0.0181833
0.00496988
0.0338351
0.00718795
0.0489191
0.00880421
0.0611293
0.0097782
0.0700959
0.0102792
0.0767169
0.0105078
0.0821585
0.0106049
0.0873129
0.0926289
0.010633
0.000694576
0.00432544
0.00254694
0.016331
0.00507335
0.0313087
0.00754056
0.0464519
0.00944708
0.0592228
0.0106834
0.0688596
0.0113916
0.0760087
0.0117796
0.0817705
0.0120098
0.0870827
0.0924787
0.0121601
0.000658719
0.00366672
0.0024908
0.0144989
0.00511663
0.0286829
0.00782131
0.0437472
0.0100287
0.0570155
0.0115494
0.0673388
0.0124865
0.0750716
0.0130482
0.0812088
0.013418
0.0867129
0.0922048
0.0136919
0.000617452
0.00304927
0.00240593
0.0127104
0.00509647
0.0259923
0.00801948
0.0408242
0.0105341
0.0545009
0.012362
0.0655109
0.0135531
0.0738805
0.0143067
0.0804552
0.0148254
0.0861942
0.0918048
0.0152254
0.000571914
0.00247735
0.00229497
0.0109873
0.00501155
0.0232758
0.00812516
0.0377106
0.0109474
0.0516786
0.0131042
0.0633541
0.0145777
0.072407
0.0155461
0.0794868
0.0162267
0.0855136
0.0912742
0.0167573
0.0005233
0.00195405
0.00216147
0.00934917
0.00486304
0.0205742
0.0081301
0.0344435
0.011252
0.0485568
0.0137569
0.0608491
0.0155436
0.0706204
0.0167546
0.0782758
0.0176148
0.0846534
0.0906054
0.0182836
0.000472808
0.00148125
0.0020097
0.00781228
0.00465484
0.0179291
0.00802881
0.0310695
0.0114315
0.045154
0.0142987
0.057982
0.0164307
0.0684883
0.0179174
0.0767891
0.0189805
0.0835903
0.0897873
0.0197987
0.000421575
0.00105967
0.00184436
0.00638949
0.00439361
0.0153798
0.00781967
0.0276435
0.0114713
0.0415024
0.0147063
0.054747
0.0172154
0.0659792
0.0190153
0.0749892
0.0203112
0.0822944
0.0888029
0.0212956
0.000370644
0.000689028
0.00167035
0.00508978
0.00408848
0.0129617
0.00750606
0.0242259
0.0113596
0.0376489
0.0149562
0.0511504
0.0178702
0.0630652
0.0200249
0.0728344
0.0215904
0.0807289
0.0876291
0.0227643
0.000320943
0.000368085
0.0014925
0.00391822
0.00375051
0.0107037
0.00709707
0.0208793
0.0110903
0.0336556
0.0150258
0.0472149
0.018365
0.059726
0.0209174
0.070282
0.0227964
0.0788499
0.0862342
0.0241913
0.000273313
9.47721e-05
0.00131547
0.00287606
0.00339194
0.0086272
0.00660769
0.0176636
0.0106646
0.0295987
0.0148962
0.0429834
0.0186678
0.0559543
0.021659
0.0672908
0.0239015
0.0766074
0.084577
0.0255587
0.000228565
-0.000133793
0.00114374