/*--------------------------------*- C++ -*----------------------------------*\
  =========                 |
  \\      /  F ield         | OpenFOAM: The Open Source CFD Toolbox
   \\    /   O peration     | Website:  https://openfoam.org
    \\  /    A nd           | Version:  7
     \\/     M anipulation  |
\*---------------------------------------------------------------------------*/
FoamFile
{
    version     2.0;
    format      ascii;
    class       surfaceScalarField;
    location    "325";
    object      phi;
}
// * * * * * * * * * * * * * * * * * * * * * * * * * * * * * * * * * * * * * //

dimensions      [0 3 -1 0 0 0 0];

internalField   nonuniform List<scalar> 
16735
(
-7.82114e-05
-0.00167241
0.00175062
-0.000304078
-0.00456701
0.00479288
-0.000678241
-0.0071475
0.00752166
-0.0011858
-0.00934175
0.00984931
-0.0017966
-0.0112368
0.0118476
-0.00247303
-0.0130267
0.0137032
-0.00318047
-0.0149101
0.0156175
-0.00389525
-0.017003
0.0177178
-0.00460504
-0.0192997
0.0200095
-0.0216505
0.0223493
-0.00530384
-0.000110653
-0.00156176
-0.000407575
-0.00427009
-0.000876473
-0.0066786
-0.00149275
-0.00872548
-0.00222274
-0.0105068
-0.00303123
-0.0122182
-0.00389069
-0.0140506
-0.00478837
-0.0161053
-0.00572627
-0.0183618
-0.0206593
-0.00671744
-0.000141186
-0.00142057
-0.000503309
-0.00390797
-0.00105705
-0.00612486
-0.00176838
-0.00801415
-0.00260012
-0.00967506
-0.0035184
-0.0113
-0.00450009
-0.0130689
-0.00553943
-0.015066
-0.00664893
-0.0172523
-0.0194519
-0.00785636
-0.0001686
-0.00125197
-0.000587945
-0.00348862
-0.00121439
-0.00549841
-0.00200508
-0.00722346
-0.00291926
-0.00876088
-0.00392304
-0.0102962
-0.00499456
-0.0119974
-0.00613015
-0.0139304
-0.00734775
-0.0160347
-0.0181148
-0.00868485
-0.00019177
-0.0010602
-0.000658457
-0.00302193
-0.00134351
-0.00481336
-0.00219609
-0.00637088
-0.00317188
-0.00778509
-0.00423552
-0.00923254
-0.005363
-0.0108699
-0.00654736
-0.012746
-0.00780567
-0.0147763
-0.0167417
-0.00917874
-0.000209697
-0.000850504
-0.000712191
-0.00251944
-0.00144003
-0.00408552
-0.00233549
-0.00547542
-0.00335065
-0.00676993
-0.00444739
-0.0081358
-0.00559635
-0.00972098
-0.00678161
-0.0115608
-0.00801224
-0.0135457
-0.0154303
-0.00932372
-0.000221547
-0.000628957
-0.000746936
-0.00199405
-0.00150026
-0.0033322
-0.00241806
-0.00455762
-0.00344887
-0.00573912
-0.00455073
-0.00703394
-0.00568624
-0.00858547
-0.00682511
-0.0104219
-0.00796076
-0.0124101
-0.01428
-0.00911106
-0.000226704
-0.000402253
-0.000761021
-0.00145973
-0.00152125
-0.00257197
-0.00243936
-0.00363951
-0.00346033
-0.00471815
-0.00453755
-0.00595671
-0.00562367
-0.00749935
-0.00666934
-0.00937622
-0.00764504
-0.0114344
-0.0133908
-0.00853416
-0.000224818
-0.000177435
-0.00075344
-0.000931111
-0.00150104
-0.00182436
-0.00239596
-0.00274459
-0.00337948
-0.00373463
-0.00439968
-0.00493652
-0.00539817
-0.00650086
-0.00630312
-0.00847127
-0.00705615
-0.0106813
-0.0128604
-0.00758655
-0.000215869
3.84338e-05
-0.000724001
-0.000422979
-0.00143889
-0.00110948
-0.00228589
-0.00189759
-0.00320206
-0.00281846
-0.00412936
-0.00400922
-0.00499811
-0.00563211
-0.00571227
-0.0077571
-0.00618034
-0.0102133
-0.0127786
-0.00626218
-0.000200227
0.000238661
-0.000673485
5.02789e-05
-0.00133561
-0.00044735
-0.00210921
-0.001124
-0.00292606
-0.00200161
-0.00372077
-0.00321451
-0.00441251
-0.00494036
-0.00488147
-0.00728815
-0.0049999
-0.0100948
-0.0132189
-0.00455957
-0.000178583
0.000417244
-0.000603776
0.000475471
-0.0011939
0.000142778
-0.00186871
-0.000449186
-0.0025531
-0.00131722
-0.00317227
-0.00259535
-0.00363412
-0.00447851
-0.00379744
-0.00712483
-0.00349573
-0.0103965
-0.0142204
-0.00249424
-0.000152141
0.000569385
-0.000517673
0.000841003
-0.00101858
0.000643685
-0.00157039
0.00010262
-0.00208957
-0.000798042
-0.0024889
-0.00219601
-0.00266402
-0.00430339
-0.00245466
-0.00733419
-0.00163059
-0.0112206
-0.0156685
-0.000182523
-0.000122371
0.000691756
-0.000419297
0.00113793
-0.000815931
0.00104032
-0.00122356
0.000510245
-0.00154707
-0.000474527
-0.001684
-0.00205908
-0.00151579
-0.00447161
-0.000879799
-0.00797018
0.000621931
-0.0127223
-0.0178381
0.00279158
-9.09558e-05
0.000782711
-0.000313171
0.00136015
-0.000594261
0.00132141
-0.000839745
0.000755729
-0.000941668
-0.000372604
-0.000778572
-0.00222217
-0.000211077
-0.0050391
0.000916212
-0.00909747
0.00299752
-0.0148037
-0.0208137
0.00597311
-5.96053e-05
0.000842317
-0.000204085
0.00150463
-0.000362009
0.00147933
-0.000431919
0.000825639
-0.000291663
-0.00051286
0.000199829
-0.00271367
0.00120976
-0.00604904
0.00290998
-0.0107977
0.00563618
-0.0175298
-0.0244591
0.00928155
-2.98624e-05
0.000872179
-9.64692e-05
0.00157123
-0.000127157
0.00151002
-1.27254e-05
0.000711208
0.000386356
-0.000911942
0.00123401
-0.00356132
0.00271407
-0.00752909
0.00500524
-0.0130889
0.00839536
-0.02092
-0.0286339
0.0125701
-2.95561e-06
0.000875135
6.61251e-06
0.00156166
0.000104099
0.00141253
0.000410142
0.000405165
0.00107964
-0.00158144
0.00229878
-0.00478045
0.00427065
-0.00950096
0.00717226
-0.0159905
0.0111628
-0.0249105
-0.0331679
0.0156969
2.05407e-05
0.000854594
0.000101951
0.00148025
0.000328064
0.00118642
0.000829955
-9.67257e-05
0.001781
-0.00253248
0.00338773
-0.00638719
0.00586223
-0.0119755
0.00937549
-0.0195037
0.0138391
-0.0293741
-0.0378803
0.0185515
4.03999e-05
0.000814194
0.000190335
0.00133032
0.000544068
0.000832689
0.00124708
-0.000799734
0.00249135
-0.00377676
0.00450032
-0.00839616
0.0074793
-0.0149544
0.0115642
-0.0235886
0.0163552
-0.0341651
-0.0426202
0.021095
5.72364e-05
0.000756958
0.000272669
0.00111488
0.000754859
0.000350499
0.00166608
-0.00171095
0.0032168
-0.00532747
0.00563961
-0.010819
0.00910923
-0.0184241
0.0136573
-0.0281367
0.0186874
-0.0391952
-0.0493008
0.025368
7.20711e-05
0.000684887
0.000351862
0.000835094
0.000965752
-0.000263391
0.00209494
-0.00284014
0.00396595
-0.00719848
0.00680595
-0.013659
0.0107274
-0.0223455
0.0156011
-0.0330103
0.0208856
-0.0444797
-0.0553182
0.026903
8.63036e-05
0.000598583
0.000431837
0.000489561
0.0011837
-0.00101526
0.00254296
-0.0041994
0.00474594
-0.00940147
0.00799123
-0.0169043
0.0122903
-0.0266446
0.0173373
-0.0380573
0.0225913
-0.0497337
-0.0606058
0.0278789
0.000101489
0.000497095
0.000516918
7.41311e-05
0.00141595
-0.00191429
0.00301823
-0.00580168
0.0055582
-0.0119414
0.00917477
-0.0205208
0.0137422
-0.031212
0.0187993
-0.0431144
0.0237852
-0.0547196
-0.0652676
0.028447
0.00011911
0.000377985
0.00061113
-0.000417889
0.00166856
-0.00297172
0.00352509
-0.00765821
0.00639494
-0.0148113
0.0103222
-0.0244481
0.0150245
-0.0359143
0.0199308
-0.0480208
0.02452
-0.0593088
-0.0693143
0.0285667
0.000140393
0.000237592
0.000717565
-0.000995062
0.00194515
-0.0041993
0.00406211
-0.00977517
0.00723776
-0.0179869
0.0113893
-0.0285997
0.0160846
-0.0406096
0.0207085
-0.0526446
0.0248247
-0.063425
-0.0727845
0.0282949
0.000166158
7.14343e-05
0.000837961
-0.00166686
0.00224605
-0.00560738
0.00462119
-0.0121503
0.00805887
-0.0214246
0.0123297
-0.0328705
0.0168858
-0.0451657
0.0211336
-0.0568925
0.0247535
-0.0670449
-0.0757382
0.0277072
0.000196772
-0.000125338
0.000972492
-0.00244258
0.002568
-0.00720289
0.00518775
-0.0147701
0.00882488
-0.0250617
0.0131028
-0.0371484
0.0174107
-0.0494736
0.0212293
-0.0607111
0.0243644
-0.0701799
-0.0782394
0.0268655
0.000232168
-0.000357506
0.00111981
-0.00333023
0.00290437
-0.00898746
0.00574226
-0.017608
0.00950191
-0.0288214
0.0136805
-0.041327
0.0176615
-0.0534546
0.021032
-0.0640816
0.0237154
-0.0728633
-0.0803538
0.0258298
0.00027191
-0.000629416
0.00127725
-0.00433556
0.00324574
-0.010956
0.0062625
-0.0206247
0.0100607
-0.0326195
0.0140489
-0.0453153
0.0176548
-0.0570605
0.0205842
-0.0670111
0.0228605
-0.0751396
-0.0821405
0.0246472
0.000315285
-0.000944701
0.00144109
-0.00546137
0.00358075
-0.0130956
0.00672636
-0.0237703
0.0104799
-0.0363731
0.0142079
-0.0490432
0.0174169
-0.0602695
0.0199293
-0.0695235
0.0218463
-0.0770566
-0.0836503
0.0233562
0.000361386
-0.00130609
0.00160689
-0.00670687
0.00389712
-0.0153858
0.00711433
-0.0269875
0.0107481
-0.0400068
0.0141678
-0.052463
0.0169789
-0.0630806
0.019108
-0.0716526
0.0207118
-0.0786604
-0.0849245
0.021986
0.000409166
-0.00171525
0.00176974
-0.00806744
0.00418269
-0.0177988
0.00741139
-0.0302162
0.0108626
-0.043458
0.0139465
-0.0555468
0.0163731
-0.0655072
0.0181565
-0.0734361
0.0194883
-0.0799922
-0.0859951
0.020559
0.000457486
-0.00217274
0.00192449
-0.00953445
0.00442636
-0.0203007
0.00760804
-0.0333979
0.0108286
-0.0466785
0.0135656
-0.0582839
0.0156303
-0.067572
0.0171056
-0.0749114
0.0182007
-0.0810872
-0.0868862
0.0190917
0.000505135
-0.00267787
0.00206605
-0.0110954
0.00461896
-0.0228536
0.00770036
-0.0364793
0.0106566
-0.0496347
0.0130485
-0.0606758
0.0147786
-0.0693021
0.0159808
-0.0761136
0.0168678
-0.0819741
-0.0876149
0.0175965
0.000550865
-0.00322874
0.00218964
-0.0127341
0.00475382
-0.0254178
0.00768936
-0.0394149
0.0103607
-0.052306
0.012418
-0.0627332
0.0138427
-0.0707268
0.0148027
-0.0770736
0.0155042
-0.0826757
-0.0881934
0.0160827
0.000593424
-0.00382216
0.00229099
-0.0144317
0.004827
-0.0279538
0.00758003
-0.0421679
0.00995662
-0.0546826
0.0116959
-0.0644724
0.0128434
-0.0718744
0.0135876
-0.0778178
0.014121
-0.083209
-0.0886295
0.0145571
0.000631601
-0.00445376
0.00236665
-0.0161668
0.00483728
-0.0304244
0.00738015
-0.0447108
0.0094607
-0.0567632
0.0109013
-0.0659131
0.0117982
-0.0727712
0.0123484
-0.078368
0.0127264
-0.083587
-0.0889285
0.0130254
0.000664267
-0.00511803
0.00241409
-0.0179166
0.00478585
-0.0327962
0.00709929
-0.0470242
0.00888869
-0.0585526
0.0100515
-0.0670759
0.0107213
-0.0734411
0.0110951
-0.0787418
0.011327
-0.0838189
-0.0890935
0.011492
0.000690429
-0.00580846
0.00243181
-0.019658
0.00467588
-0.0350402
0.00674786
-0.0490962
0.00825532
-0.06006
0.00916095
-0.0679815
0.00962434
-0.0739045
0.00983537
-0.0789528
0.00992752
-0.083911
-0.0891268
0.00996078
0.000709258
-0.00651772
0.00241933
-0.021368
0.00451193
-0.0371328
0.00633646
-0.0509207
0.00757394
-0.0612975
0.00824204
-0.0686496
0.00851641
-0.0741788
0.00857529
-0.0790117
0.00853211
-0.0838679
-0.0890294
0.0084347
0.000720123
-0.00723784
0.00237711
-0.023025
0.00429953
-0.0390552
0.00587539
-0.0524966
0.00685635
-0.0622784
0.00730502
-0.0690983
0.00740487
-0.0742787
0.00731953
-0.0789264
0.00714391
-0.0836922
-0.0888012
0.00691572
0.000722602
-0.00796044
0.00230643
-0.0246088
0.00404469
-0.0407935
0.00537434
-0.0538262
0.00611285
-0.063017
0.00635835
-0.0693438
0.00629549
-0.0742158
0.00607167
-0.0787026
0.00576533
-0.0833859
-0.0884417
0.0054058
0.000716484
-0.00867693
0.00220917
-0.0261015
0.00375358
-0.0423379
0.00484216
-0.0549148
0.00535227
-0.0635271
0.00540901
-0.0694005
0.005193
-0.0739998
0.00483459
-0.0783442
0.00439812
-0.0829494
-0.0879496
0.00390609
0.000701762
-0.00937869
0.00208768
-0.0274874
0.00343223
-0.0436825
0.00428679
-0.0557694
0.00458208
-0.0638224
0.0044627
-0.0692811
0.00410144
-0.0736386
0.00361147
-0.0778542
0.0030439
-0.0823819
-0.0873217
0.002416
0.000678632
-0.0100573
0.00194462
-0.0287534
0.00308639
-0.0448243
0.00371524
-0.0563982
0.00380853
-0.0639157
0.00352395
-0.0689965
0.00302411
-0.0731387
0.00240646
-0.0772365
0.00170578
-0.0816812
-0.0865442
0.00092826
0.000647491
-0.0107048
0.00178306
-0.029889
0.00272147
-0.0457627
0.00313362
-0.0568104
0.00303685
-0.0638189
0.00259637
-0.0685561
0.00196307
-0.0725054
0.00122204
-0.0764955
0.000398047
-0.0808572
-0.0856089
-0.000537306
0.000608892
-0.0113137
0.00160592
-0.030886
0.00234238
-0.0464991
0.00254723
-0.0570152
0.0022714
-0.0635431
0.00168315
-0.0679678
0.000920045
-0.0717423
4.1529e-05
-0.075617
-0.000900339
-0.0799153
-0.084572
-0.00193719
0.000563503
-0.0118772
0.00141601
-0.0317385
0.00195361
-0.0470367
0.0019606
-0.0570222
0.00151567
-0.0630981
0.000786651
-0.0672388
-0.000106439
-0.0708492
-0.00108807
-0.0746354
-0.00217312
-0.0788303
-0.0834151
-0.00333
0.000512093
-0.0123893
0.00121606
-0.0324425
0.00155922
-0.0473799
0.00137748
-0.0568405
0.000772394
-0.062493
-9.37167e-05
-0.0663727
-0.00109839
-0.0698446
-0.00220754
-0.0735262
-0.00341626
-0.0776215
-0.0821293
-0.00470209
0.00045553
-0.0128448
0.00100871
-0.0329957
0.00116278
-0.047534
0.000800992
-0.0564787
4.41858e-05
-0.0617362
-0.00094597
-0.0653825
-0.00207306
-0.0687175
-0.00330231
-0.072297
-0.00463286
-0.076291
-0.0807148
-0.00604737
0.000394764
-0.0132396
0.000796739
-0.0333977
0.000766974
-0.0475042
0.00023585
-0.0559475
-0.000665323
-0.0608351
-0.00178049
-0.0642674
-0.0030239
-0.0674741
-0.00437027
-0.0709506
-0.00582197
-0.0748393
-0.0791733
-0.00736345
0.000330657
-0.0135703
0.000583138
-0.0336501
0.000375061
-0.0472961
-0.000319786
-0.0552527
-0.00135767
-0.0597972
-0.00259276
-0.0630323
-0.00394947
-0.0661173
-0.00541045
-0.0694896
-0.00698193
-0.0732678
-0.0775072
-0.00864805
0.000263984
-0.0138342
0.000369633
-0.0337558
1.20979e-05
-0.0469386
-0.00085923
-0.0543814
-0.00203143
-0.058625
-0.00338191
-0.0616818
-0.00484894
-0.0646503
-0.00642204
-0.0679165
-0.00811128
-0.0715786
-0.0757202
-0.00989831
0.000196363
-0.0140306
0.000157548
-0.033717
-0.000395792
-0.0463852
-0.00138997
-0.0533872
-0.00268492
-0.05733
-0.00414698
-0.0602197
-0.00572157
-0.0630757
-0.00740435
-0.0662337
-0.00920858
-0.0697743
-0.0738186
-0.0111102
0.000126673
-0.0141573
-4.38924e-05
-0.0335464
-0.000768098
-0.045661
-0.00190527
-0.05225
-0.00331752
-0.0559178
-0.00488713
-0.0586501
-0.00656665
-0.0613962
-0.00835661
-0.0644438
-0.0102725
-0.0678584
-0.0718074
-0.0122837
5.13478e-05
-0.0142086
-0.000277989
-0.0332171
-0.00113243
-0.0448066
-0.00240286
-0.0509796
-0.00392853
-0.0543921
-0.005602
-0.0569766
-0.00738375
-0.0596145
-0.00927823
-0.0625493
-0.0113032
-0.0658334
-0.0696838
-0.0134269
-2.50485e-05
-0.0141836
-0.000492079
-0.03275
-0.0014865
-0.0438122
-0.00288226
-0.0495838
-0.00451687
-0.0527575
-0.00629116
-0.0552024
-0.00817323
-0.0577324
-0.0101703
-0.0605522
-0.0122999
-0.0637039
-0.0674466
-0.0145371
-9.54323e-05
-0.0140881
-0.000697694
-0.0321478
-0.00182845
-0.0426814
-0.00334323
-0.048069
-0.00508193
-0.0510188
-0.00695407
-0.0533302
-0.00893576
-0.0557507
-0.0110364
-0.0584516
-0.0132577
-0.0614826
-0.0651124
-0.0155918
-0.000167002
-0.0139211
-0.000896482
-0.0314183
-0.00215736
-0.0414205
-0.0037851
-0.0464413
-0.005623
-0.0491809
-0.00758969
-0.0513635
-0.00966925
-0.0536711
-0.0118748
-0.056246
-0.0142156
-0.0591418
-0.0628305
-0.0164975
-0.000237453
-0.0136837
-0.0010885
-0.0305673
-0.00247261
-0.0400364
-0.00420733
-0.0447066
-0.00613963
-0.0472486
-0.00819696
-0.0493062
-0.0103686
-0.0514995
-0.0126556
-0.053959
-0.0150205
-0.0567769
-0.0600187
-0.0178323
-0.000306142
-0.0133775
-0.00127331
-0.0296001
-0.00277377
-0.038536
-0.00460953
-0.0428708
-0.00663164
-0.0452265
-0.00877527
-0.0471626
-0.0110304
-0.0492444
-0.0133929
-0.0515965
-0.0158814
-0.0542883
-0.0572292
-0.0186709
-0.00037269
-0.0130049
-0.00145041
-0.0285224
-0.00306042
-0.0369259
-0.00499141
-0.0409398
-0.00709875
-0.0431192
-0.00932457
-0.0449367
-0.0116615
-0.0469075
-0.0141142
-0.0491438
-0.0167176
-0.0516849
-0.0544189
-0.0195279
-0.0004368
-0.0125681
-0.00161932
-0.0273399
-0.00333224
-0.035213
-0.0053527
-0.0389194
-0.00754051
-0.0409314
-0.00984401
-0.0426332
-0.0122588
-0.0444928
-0.0147949
-0.0466076
-0.0174835
-0.0489964
-0.0515593
-0.020343
-0.000498206
-0.0120698
-0.00177964
-0.0260584
-0.00358892
-0.0334037
-0.0056932
-0.0368151
-0.00795682
-0.0386678
-0.0103339
-0.0402561
-0.0128232
-0.0420034
-0.015438
-0.0439929
-0.0182028
-0.0462316
-0.0486383
-0.0211238
-0.000556672
-0.0115132
-0.00193102
-0.0246841
-0.00383022
-0.0315045
-0.00601275
-0.0346325
-0.00834749
-0.036333
-0.010794
-0.0378097
-0.0133538
-0.0394436
-0.0160413
-0.0413054
-0.0188767
-0.0433962
-0.0456512
-0.0218638
-0.000611986
-0.0109012
-0.00207318
-0.0232229
-0.00405592
-0.0295218
-0.00631123
-0.0323772
-0.00871245
-0.0339318
-0.011224
-0.0352981
-0.01385
-0.0368176
-0.0166052
-0.0385502
-0.0195074
-0.040494
-0.0425975
-0.0225611
-0.000663963
-0.0102372
-0.00220587
-0.021681
-0.00426587
-0.0274618
-0.00658855
-0.0300546
-0.0090516
-0.0314688
-0.011624
-0.0327257
-0.0143117
-0.0341299
-0.0171298
-0.0357321
-0.0200951
-0.0375287
-0.0394791
-0.0232135
-0.000712439
-0.00952479
-0.00232889
-0.0200645
-0.00445993
-0.0253308
-0.00684463
-0.0276699
-0.00936485
-0.0289485
-0.0119936
-0.0300969
-0.0147386
-0.0313849
-0.0176151
-0.0328555
-0.0206396
-0.0345042
-0.0362993
-0.0238194
-0.00075727
-0.00876752
-0.00244205
-0.0183797
-0.004638
-0.0231348
-0.00707942
-0.0252284
-0.00965214
-0.0263758
-0.0123328
-0.0274163
-0.0151305
-0.0285873
-0.0180609
-0.0299251
-0.0211403
-0.0314248
-0.0330619
-0.0243776
-0.000798333
-0.00796918
-0.00254523
-0.0166328
-0.00479998
-0.0208801
-0.00729287
-0.0227355
-0.0099134
-0.0237553
-0.0126414
-0.0246882
-0.0154872
-0.0257415
-0.0184669
-0.0269455
-0.0215967
-0.028295
-0.0297716
-0.024887
-0.000835522
-0.00713366
-0.00263831
-0.01483
-0.00494582
-0.0185726
-0.00748496
-0.0201964
-0.0101486
-0.0210917
-0.0129194
-0.0219174
-0.0158087
-0.0228522
-0.0188328
-0.0239213
-0.0220084
-0.0251195
-0.0264332
-0.0253467
-0.000868746
-0.00626492
-0.00272117
-0.0129776
-0.00507546
-0.0162183
-0.00765564
-0.0176162
-0.0103576
-0.0183897
-0.0131666
-0.0191085
-0.0160946
-0.0199241
-0.0191585
-0.0208574
-0.0223749
-0.0219032
-0.0230519
-0.0257561
-0.000897926
-0.00536699
-0.00279375
-0.0110818
-0.00518887
-0.0138232
-0.00780491
-0.0150002
-0.0105405
-0.0156541
-0.0133829
-0.0162661
-0.016345
-0.016962
-0.0194438
-0.0177586
-0.0226958
-0.0186511
-0.0196331
-0.0261147
-0.000922999
-0.00444399
-0.00285597
-0.00914882
-0.005286
-0.0113931
-0.00793275
-0.0123534
-0.0106971
-0.0128897
-0.0135683
-0.013395
-0.0165596
-0.0139706
-0.0196883
-0.0146299
-0.022971
-0.0153684
-0.016182
-0.0264221
-0.000943909
-0.00350008
-0.00290778
-0.00718495
-0.00536684
-0.00893407
-0.00803914
-0.00968114
-0.0108276
-0.0101013
-0.0137226
-0.0104999
-0.0167384
-0.0109549
-0.019892
-0.0114763
-0.0232002
-0.0120602
-0.0127042
-0.026678
-0.000960614
-0.00253947
-0.00294914
-0.00519642
-0.00543136
-0.00645185
-0.00812408
-0.00698843
-0.0109318
-0.00729361
-0.013846
-0.00758567
-0.0168812
-0.00791968
-0.0200548
-0.00830268
-0.0233834
-0.00873164
-0.00920507
-0.0268825
-0.000973078
-0.00156639
-0.00298002
-0.00318948
-0.00547955
-0.00395232
-0.00818756
-0.00428041
-0.0110097
-0.0044715
-0.0139383
-0.00465702
-0.0169882
-0.00486982
-0.0201767
-0.00511414
-0.0235205
-0.00538787
-0.00568985
-0.0270357
-0.000981278
-0.000585111
-0.00300038
-0.00117037
-0.0055114
-0.00144131
-0.00822959
-0.00156222
-0.0110613
-0.00163979
-0.0139995
-0.0017188
-0.0170591
-0.00181026
-0.0202575
-0.00191574
-0.023611
-0.00203437
-0.0021629
-0.0271379
-0.000985197
0.000400087
-0.00301023
0.000854659
-0.00552691
0.00107537
-0.00825016
0.00116103
-0.0110867
0.00119671
-0.0140296
0.00122417
-0.0170939
0.00125402
-0.020297
0.0012873
-0.0236552
0.00132391
0.00136318
-0.0271813
-0.000984828
0.00138491
-0.00300954
0.00287937
-0.00552607
0.0035919
-0.00824927
0.00388423
-0.0110857
0.00403318
-0.0140287
0.0041671
-0.0170929
0.00431826
-0.0202959
0.00449032
-0.023654
0.004682
0.0048922
-0.027183
-0.000980169
0.00236508
-0.00299832
0.00489752
-0.00550889
0.00610247
-0.00822693
0.00660228
-0.0110586
0.00686481
-0.0139966
0.00710517
-0.0170559
0.00737754
-0.0202539
0.00768827
-0.0236069
0.008035
0.00841641
-0.0271311
-0.000971229
0.00333631
-0.00297657
0.00690286
-0.00547537
0.00860126
-0.00818315
0.00931006
-0.0110051
0.00968678
-0.0139335
0.0100336
-0.0169829
0.010427
-0.0201708
0.0108761
-0.0235134
0.0113776
0.0119297
-0.0270266
-0.000958025
0.00429434
-0.00294432
0.00888916
-0.00542551
0.0110825
-0.00811792
0.0120025
-0.0109254
0.0124943
-0.0138394
0.0129475
-0.016874
0.0134616
-0.0200467
0.0140487
-0.0233738
0.0147047
0.0154265
-0.0268707
-0.00094058
0.00523492
-0.00290159
0.0108502
-0.00535934
0.0135402
-0.00803126
0.0146744
-0.0108195
0.0152825
-0.0137142
0.0158423
-0.0167293
0.0164766
-0.0198818
0.0172012
-0.0231882
0.0180112
0.0189016
-0.0266632
-0.000918929
0.00615385
-0.0028484
0.0127796
-0.00527686
0.0159687
-0.00792316
0.0173207
-0.0106874
0.0180468
-0.0135581
0.018713
-0.0165487
0.0194672
-0.019676
0.0203286
-0.0229567
0.0212918
0.0223494
-0.0264044
-0.000893113
0.00704696
-0.0027848
0.0146713
-0.00517808
0.018362
-0.00779365
0.0199363
-0.0105291
0.0207822
-0.0133711
0.021555
-0.0163323
0.0224285
-0.0194297
0.0234259
-0.0226794
0.0245415
0.0257645
-0.0260945
-0.000863185
0.00791014
-0.00271084
0.016519
-0.00506304
0.0207142
-0.00764273
0.0225159
-0.0103446
0.023484
-0.0131532
0.0243636
-0.0160804
0.0253557
-0.0191428
0.0264883
-0.0223565
0.0277553
0.0291416
-0.0257337
-0.000829208
0.00873935
-0.00262658
0.0183163
-0.00493177
0.0230193
-0.00747041
0.0250546
-0.010134
0.0261476
-0.0129045
0.0271341
-0.015793
0.0282442
-0.0188156
0.0295109
-0.0219885
0.0309281
0.0324755
-0.0253224
-0.000791256
0.00953061
-0.0025321
0.0200572
-0.00478429
0.0252715
-0.0072767
0.027547
-0.00989728
0.0287681
-0.0126252
0.029862
-0.0154703
0.0310894
-0.0184484
0.032489
-0.0215755
0.0340553
0.0357611
-0.0248611
-0.000749417
0.01028
-0.00242749
0.0217353
-0.00462064
0.0274647
-0.00706164
0.029988
-0.00963456
0.0313411
-0.0123152
0.0325427
-0.0151124
0.0338865
-0.0180414
0.035418
-0.0211182
0.0371321
0.0389936
-0.0243507
-0.000703793
0.0109838
-0.00231286
0.0233443
-0.00444089
0.0295927
-0.00682523
0.0323723
-0.00934583
0.0338617
-0.0119748
0.0351716
-0.0147195
0.0366312
-0.0175949
0.0382934
-0.0206169
0.0401541
0.0421687
-0.0237921
-0.000654503
0.0116383
-0.00218833
0.0248782
-0.0042451
0.0316495
-0.00656752
0.0346948
-0.00903117
0.0363253
-0.011604
0.0377445
-0.0142917
0.0393189
-0.0171091
0.0411107
-0.0200723
0.0431174
0.0452826
-0.0231862
-0.000601681
0.01224
-0.00205407
0.0263306
-0.00403335
0.0336287
-0.00628853
0.0369499
-0.00869061
0.0387274
-0.011203
0.0402569
-0.0138293
0.0419452
-0.0165841
0.0438655
-0.0194849
0.0460182
0.0483323
-0.0225346
-0.000545484
0.0127855
-0.00191027
0.0276953
-0.00380577
0.0355243
-0.00598831
0.0391325
-0.00832422
0.0410633
-0.0107719
0.0427045
-0.0133324
0.0445058
-0.01602
0.0465532
-0.0188547
0.0488528
0.0513164
-0.0218388
-0.000486088
0.0132716
-0.00175715
0.0289664
-0.00356249
0.0373296
-0.00566693
0.0412369
-0.00793205
0.0433284
-0.0103107
0.0450832
-0.0128013
0.0469964
-0.0154167
0.0491685
-0.0181817
0.0516178
0.0542358
-0.0211011
-0.000423691
0.0136953
-0.00159497
0.0301377
-0.00330367
0.0390383
-0.00532446
0.0432577
-0.00751416
0.0455181
-0.00981977
0.0473888
-0.0122363
0.0494129
-0.0147735
0.0517057
-0.0174629
0.0543072
0.0570963
-0.0203233
-0.000358512
0.0140538
-0.00142406
0.0312032
-0.00302953
0.0406438
-0.00496103
0.0451892
-0.00707068
0.0476278
-0.00929918
0.0496173
-0.0116386
0.0517523
-0.014093
0.0541601
-0.0166977
0.0569119
0.0599099
-0.0195113
-0.000290791
0.0143446
-0.00124481
0.0321572
-0.00274031
0.0421393
-0.00457678
0.0470257
-0.00660167
0.0496527
-0.00874855
0.0517642
-0.0110069
0.0540107
-0.0133713
0.0565245
-0.015859
0.0593995
0.0627019
-0.018651
-0.000220805
0.0145654
-0.00105766
0.0329941
-0.00243629
0.0435179
-0.00417191
0.0487613
-0.0061075
0.0515883
-0.00816866
0.0538254
-0.0103444
0.0561864
-0.0126343
0.0588144
-0.0149962
0.0617615
0.0655117
-0.017806
-0.000148933
0.0147143
-0.000863075
0.0337082
-0.00211776
0.0447726
-0.00374667
0.0503902
-0.00558846
0.0534301
-0.00755964
0.0557966
-0.00964422
0.058271
-0.0118553
0.0610255
-0.014201
0.0641072
0.0677928
-0.0164821
-7.60059e-05
0.0147903
-0.000661393
0.0342936
-0.00178504
0.0458962
-0.00330136
0.0519065
-0.00504463
0.0551733
-0.00692201
0.0576739
-0.00890955
0.0602585
-0.0110167
0.0631326
-0.0132444
0.066335
0.070134
-0.0155857
-6.87561e-06
0.0147972
-0.000452129
0.0347389
-0.0014386
0.0468827
-0.00283648
0.0533044
-0.00447636
0.0568132
-0.00625665
0.0594542
-0.00814534
0.0621472
-0.0101495
0.0651368
-0.0122858
0.0684713
0.0723801
-0.0145319
7.56245e-05
0.0147216
-0.000232292
0.0350468
-0.00107929
0.0477297
-0.00235264
0.0545778
-0.00388425
0.0583448
-0.00556453
0.0611345
-0.00735378
0.0639365
-0.00925643
0.0670394
-0.0112898
0.0705047
0.0745127
-0.0134224
0.000151912
0.0145697
1.29295e-05
0.0351858
-0.000709
0.0484516
-0.00184993
0.0557187
-0.00326882
0.0597637
-0.00484615
0.0627118
-0.00653423
0.0656245
-0.00833377
0.068839
-0.0102604
0.0724313
0.0765353
-0.012283
0.00022202
0.0143476
0.000206882
0.0352009
-0.000329708
0.0489882
-0.00132905
0.056718
-0.00263107
0.0610657
-0.00410181
0.0641826
-0.00568616
0.0672089
-0.00738013
0.0705329
-0.00919748
0.0742487
0.0784522
-0.0111144
0.000291322
0.0140563
0.000425112
0.0350671
7.3083e-05
0.0493402
-0.000792992
0.0575841
-0.0019717
0.0622444
-0.0033318
0.0655427
-0.00480985
0.0686869
-0.00639593
0.072119
-0.00810088
0.0759536
0.0802582
-0.00990692
0.000360151
0.0136962
0.000645129
0.0347821
0.000452949
0.0495324
-0.000243814
0.0582809
-0.00129098
0.0632916
-0.00253667
0.0667884
-0.00390581
0.0700561
-0.00538178
0.073595
-0.00697173
0.0775436
0.0819468
-0.00866031
0.00042665
0.0132695
0.000865319
0.0343435
0.00085309
0.0495447
0.000320162
0.0588138
-0.000590476
0.0642022
-0.00171706
0.067915
-0.00297461
0.0713136
-0.00433813
0.0749585
-0.00581116
0.0790166
0.0835141
-0.00737849
0.0004898
0.0127797
0.0010842
0.0337491
0.0012586
0.0493703
0.000896176
0.0591762
0.000129071
0.0649693
-0.000873754
0.0689178
-0.00201687
0.0724567
-0.00326549
0.0762071
-0.00462032
0.0803714
0.0849579
-0.00606405
0.000548768
0.0122309
0.0012991
0.0329987
0.00166621
0.0490032
0.00148483
0.0593576
0.000868267
0.0655859
-1.56008e-05
0.0698016
-0.00103389
0.073475
-0.00216471
0.077338
-0.0034006
0.0816073
0.0862762
-0.00471894
0.000602613
0.0116283
0.0015073
0.0320941
0.00207323
0.0484372
0.00208213
0.0593487
0.00162559
0.0660424
0.000880617
0.0705466
-3.49593e-05
0.0743906
-0.00103781
0.0783408
-0.00215248
0.082722
0.0874691
-0.00334538
0.000650423
0.0109779
0.00170613
0.0310383
0.00247626
0.0476671
0.00268521
0.0591398
0.00239739
0.0663303
0.00179151
0.0711525
0.001008
0.0751741
0.000104208
0.0792446
-0.000871905
0.0836981
0.0885462
-0.00194904
0.000691366
0.0102865
0.0018928
0.0298369
0.00287131
0.0466886
0.00329044
0.0587206
0.00318143
0.0664393
0.00272169
0.0716122
0.00206543
0.0758304
0.00129589
0.0800142
0.000436495
0.0845575
0.089526
-0.000543286
0.000724701
0.00956184
0.00206441
0.0284972
0.00325394
0.0454991
0.00389355
0.058081
0.00397467
0.0663581
0.00366912
0.0719178
0.00314426
0.0763552
0.00249592
0.0806625
0.00175635
0.085297
0.0903535
0.000928873
0.000749802
0.00881204
0.00221789
0.0270291
0.00361923
0.0440977
0.0044895
0.0572108
0.0047732
0.0660744
0.00463114
0.0720598
0.00424268
0.0767437
0.00371945
0.0811857
0.00311035
0.0859061
0.091034
0.00242988
0.000766186
0.00804585
0.00234991
0.0254454
0.00396172
0.0424859
0.00507239
0.0561001
0.00557222
0.0655746
0.00560468
0.0720274
0.0053591
0.0769893
0.00496505
0.0815798
0.00448416
0.086387
0.0915822
0.00393594
0.000773581
0.00727227
0.00245752
0.0237615
0.00427547
0.040668
0.00563538
0.0547402
0.00636593
0.0648441
0.00658576
0.0718076
0.00649089
0.0770841
0.00622907
0.0818416
0.00587517
0.0867409
0.0920022
0.0054552
0.000771923
0.00650035
0.00253804
0.0219953
0.00455418
0.0386518
0.00617061
0.0531238
0.00714729
0.0638674
0.00756934
0.0713855
0.00763466
0.0770188
0.00750881
0.0819674
0.00728254
0.0869672
0.0922949
0.00698981
0.00076136
0.00573899
0.00258917
0.0201675
0.00479125
0.0364497
0.00666919
0.0512458
0.0079079
0.0626287
0.00854913
0.0707443
0.00878641
0.0767815
0.00880207
0.0819518
0.00870529
0.087064
0.0924608
0.00853937
0.000742257
0.00499673
0.00260918
0.0183006
0.00498002
0.0340789
0.00712121
0.0491046
0.0086378
0.0611121
0.0095174
0.0698647
0.00994123
0.0763577
0.0101062
0.0817868
0.0101418
0.0870283
0.0925001
0.0101026
0.000715207
0.00428152
0.00259716
0.0164186
0.00511412
0.0315619
0.00751588
0.0467029
0.00932538
0.0593026
0.0104646
0.0687254
0.0110928
0.0757295
0.0114175
0.0814622
0.0115899
0.0868559
0.0924116
0.0116784
0.000681018
0.0036005
0.00255314
0.0145465
0.00518789
0.0289272
0.00784178
0.044049
0.00995728
0.0571871
0.0113793
0.0673034
0.0122332
0.0748756
0.0127312
0.0809642
0.0130468
0.0865402
0.0921931
0.0132653
0.000640694
0.00295981
0.00247824
0.012709
0.00519691
0.0262085
0.00808725
0.0411586
0.0105184
0.0547559
0.0122473
0.0655746
0.013352
0.0737709
0.0140411
0.0802751
0.014509
0.0860723
0.0918414
0.0148607
0.000595394
0.00236442
0.00237473
0.0109296
0.00513857
0.0234447
0.00824103
0.0380562
0.0109922
0.0520048
0.0130521
0.0635146
0.0144364
0.0723866
0.0153388
0.0793726
0.0159717
0.0854394
0.0913515
0.0164617
0.000546383
0.00181803
0.00224593
0.0092301
0.00501265
0.0206779
0.00829304
0.0347758
0.0113608
0.0489371
0.0137742
0.0611012
0.0154702
0.0706907
0.0166136
0.0782292
0.0174288
0.0846242
0.0907154
0.0180649
0.00049497
0.00132306
0.00209603
0.00762904
0.00482176
0.0179522
0.00823547
0.0313621
0.0116061
0.0455665
0.0143916
0.0583157
0.0164336
0.0686486
0.0178514
0.0768114
0.018872
0.0836036
0.0899215
0.0196659
0.000442432
0.000880631
0.00192986
0.00614161
0.00457149
0.0153106
0.008064
0.0278696
0.0117106
0.0419198
0.0148796
0.0551467
0.0173029
0.0662254
0.019034
0.0750803
0.0202898
0.0823478
0.0889527
0.0212586
0.000389937
0.000490694
0.00175248
0.00477906
0.0042702
0.0127929
0.00777903
0.0243607
0.0116593
0.0380395
0.0152122
0.0515937
0.01805
0.0633876
0.0201385
0.0729919
0.0216671
0.0808192
0.0877852
0.0228345
0.000338468
0.000152226
0.0015688
0.00354873
0.00392837
0.0104333
0.00738665
0.0209025
0.0114412
0.033985
0.0153631
0.0476718
0.0186428
0.0601078
0.0211362
0.0704984
0.0229834
0.078972
0.0863864
0.0243822
0.000288759
-0.000136533
0.00138326
0.00245422
0.00355765
0.00825892
0.00689892
0.0175612
0.0110519
0.029832
0.0153076
0.0434162
0.0190459
0.0563695
0.0219925
0.0675519
0.0242122
0.0767523
0.0847133
0.0258854
0.000241263
-0.000377796
0.00119954
0.00149595
0.00316978
0.00628868
0.00633322
0.0143977
0.0104962
0.025669
0.0150264
0.0388859
0.0192225
0.0521734
0.0226663
0.0641081
0.025319
0.0740995
0.0827105
0.0273218
0.000196183
-0.000573978
0.00102049
0.00067164
0.00277565
0.00453352
0.00571071