/*--------------------------------*- C++ -*----------------------------------*\
  =========                 |
  \\      /  F ield         | OpenFOAM: The Open Source CFD Toolbox
   \\    /   O peration     | Website:  https://openfoam.org
    \\  /    A nd           | Version:  7
     \\/     M anipulation  |
\*---------------------------------------------------------------------------*/
FoamFile
{
    version     2.0;
    format      ascii;
    class       volVectorField;
    location    "325";
    object      U;
}
// * * * * * * * * * * * * * * * * * * * * * * * * * * * * * * * * * * * * * //

dimensions      [0 1 -1 0 0 0 0];

internalField   nonuniform List<vector> 
8500
(
(-0.000181496 -0.0498299 1.05298e-21)
(-0.00472555 -0.126153 -3.01968e-21)
(-0.0165502 -0.183135 -3.51823e-21)
(-0.0326658 -0.221971 3.49654e-21)
(-0.05118 -0.247416 -3.21906e-21)
(-0.0699959 -0.265494 -1.72302e-21)
(-0.0874154 -0.280984 2.96427e-21)
(-0.102585 -0.296115 3.69483e-21)
(-0.114918 -0.310596 -6.14044e-22)
(-0.123954 -0.322058 1.83544e-21)
(0.00102112 -0.0470913 -1.16418e-21)
(-0.0030145 -0.119373 3.59028e-21)
(-0.0164235 -0.173518 -8.37422e-21)
(-0.0348945 -0.210714 7.59673e-21)
(-0.0560721 -0.235718 3.41837e-22)
(-0.0776171 -0.254351 5.61405e-21)
(-0.0978095 -0.271032 -9.80112e-21)
(-0.115968 -0.287609 -1.44495e-20)
(-0.131704 -0.303501 -2.83551e-21)
(-0.145047 -0.316206 6.48514e-21)
(0.00194465 -0.0434214 1.04947e-21)
(-0.00183971 -0.110815 7.80698e-21)
(-0.0167685 -0.161906 1.84227e-20)
(-0.0373066 -0.197557 -1.66817e-20)
(-0.0606887 -0.222314 -3.76188e-21)
(-0.0843645 -0.241654 -3.4457e-21)
(-0.106584 -0.259581 1.76114e-20)
(-0.126797 -0.277532 1.10556e-20)
(-0.144751 -0.29462 2.77455e-21)
(-0.160823 -0.308211 -2.00419e-20)
(0.00251735 -0.0389117 3.71326e-21)
(-0.00128443 -0.100686 -4.59274e-21)
(-0.0175983 -0.148561 -3.41906e-20)
(-0.0398364 -0.182774 3.03742e-21)
(-0.0648964 -0.207464 9.41497e-21)
(-0.0900501 -0.22766 -7.32737e-21)
(-0.113498 -0.246904 -4.37489e-22)
(-0.134767 -0.266209 -2.98359e-21)
(-0.153652 -0.28434 6.83779e-21)
(-0.170707 -0.298492 1.96978e-20)
(0.00268455 -0.0336899 2.56092e-21)
(-0.00140145 -0.0892436 -1.46164e-20)
(-0.018898 -0.133781 3.52466e-20)
(-0.0423974 -0.166654 -1.60185e-20)
(-0.0685487 -0.191431 -6.78696e-23)
(-0.0944808 -0.212615 2.2248e-20)
(-0.11832 -0.233269 -1.02636e-20)
(-0.139602 -0.253973 1.19618e-21)
(-0.158082 -0.273074 -4.22736e-21)
(-0.17424 -0.287514 1.3389e-21)
(0.00241351 -0.0279153 3.06698e-20)
(-0.00220751 -0.0767878 3.75165e-20)
(-0.0206202 -0.117893 -9.63257e-21)
(-0.0448769 -0.149498 1.83924e-20)
(-0.0714767 -0.174477 5.7859e-21)
(-0.0974424 -0.19675 -8.29286e-21)
(-0.120799 -0.218917 -3.19097e-21)
(-0.141022 -0.241129 -1.38642e-20)
(-0.157751 -0.261236 3.00244e-21)
(-0.171021 -0.275765 -1.78421e-20)
(0.00169698 -0.0217721 -2.95577e-20)
(-0.00367973 -0.063651 -1.95489e-20)
(-0.0226826 -0.101248 1.59371e-20)
(-0.047133 -0.131619 -2.769e-20)
(-0.0734813 -0.156855 3.18677e-21)
(-0.0986837 -0.180276 3.2636e-20)
(-0.120638 -0.204049 -5.89384e-21)
(-0.138695 -0.227928 3.83625e-20)
(-0.152345 -0.249196 -8.96123e-22)
(-0.160606 -0.263714 -1.52599e-20)
(0.000555247 -0.0154617 2.47197e-20)
(-0.0057543 -0.0501883 -4.50379e-20)
(-0.0249681 -0.0842124 -1.80055e-20)
(-0.048993 -0.113336 2.11098e-20)
(-0.0743291 -0.138818 7.51841e-22)
(-0.0979045 -0.163381 -6.13082e-20)
(-0.117471 -0.188814 -3.66592e-21)
(-0.132193 -0.214541 -3.03509e-20)
(-0.14146 -0.237239 -3.86236e-20)
(-0.142425 -0.251772 2.24118e-20)
(-0.000963897 -0.00919356 -1.3768e-20)
(-0.00832817 -0.036766 6.74111e-21)
(-0.027328 -0.0671637 1.65765e-20)
(-0.050258 -0.094979 -1.50092e-20)
(-0.0737544 -0.120626 -5.26211e-20)
(-0.0947535 -0.146244 1.80967e-20)
(-0.110845 -0.173316 2.57488e-21)
(-0.12095 -0.201038 4.56986e-20)
(-0.124547 -0.225525 5.90312e-20)
(-0.115714 -0.240231 -2.61673e-20)
(-0.00278765 -0.00317476 2.17678e-20)
(-0.0112642 -0.0237498 2e-20)
(-0.0295888 -0.0504861 -2.88769e-21)
(-0.050711 -0.0768905 7.45534e-20)
(-0.0714707 -0.102551 3.17973e-20)
(-0.0888404 -0.12905 2.39225e-20)
(-0.100237 -0.157628 3.40427e-20)
(-0.104271 -0.187388 -1.47469e-20)
(-0.100898 -0.214069 -1.97166e-20)
(-0.0795061 -0.229211 -3.1453e-20)
(-0.00482179 0.00239826 -1.99697e-21)
(-0.0143992 -0.0114915 -3.17998e-20)
(-0.031563 -0.0345621 -2.29925e-20)
(-0.0501306 -0.0594294 -3.69562e-20)
(-0.0671903 -0.084899 -2.94199e-20)
(-0.0797647 -0.112018 2.98353e-20)
(-0.0850928 -0.141837 -2.86688e-20)
(-0.0813754 -0.173493 -1.95935e-20)
(-0.0697012 -0.202741 2.58337e-21)
(-0.032759 -0.218521 8.4177e-21)
(-0.0069566 0.00735449 -6.04693e-20)
(-0.0175504 -0.000317344 2.90498e-20)
(-0.033061 -0.0197637 2.13203e-20)
(-0.0483086 -0.0429677 1.44306e-20)
(-0.0606499 -0.068014 -2.65065e-20)
(-0.0671562 -0.0954311 -2.23279e-20)
(-0.064887 -0.126094 3.23589e-20)
(-0.051489 -0.159246 -2.63509e-20)
(-0.0300834 -0.191335 -1.97705e-21)
(0.0252209 -0.207178 -2.60725e-20)
(-0.00907985 0.0115577 5.09513e-20)
(-0.0205306 0.00948911 2.0951e-20)
(-0.033895 -0.0064479 1.2301e-21)
(-0.0450633 -0.0278842 -2.62403e-20)
(-0.0516355 -0.0522817 1.72726e-21)
(-0.0507193 -0.0796545 2.98502e-20)
(-0.0392008 -0.110667 -8.47914e-21)
(-0.0139832 -0.14466 -1.03271e-20)
(0.0191454 -0.179865 -2.2308e-20)
(0.0943284 -0.193164 3.99764e-20)
(-0.0110812 0.0149138 3.49296e-20)
(-0.0231636 0.0177026 -5.65914e-20)
(-0.0338966 0.00507043 -4.40783e-20)
(-0.0402372 -0.0145537 1.90359e-20)
(-0.0399945 -0.0381149 3.92665e-20)
(-0.0302615 -0.0651239 3.38868e-20)
(-0.00778737 -0.0959587 -3.59689e-20)
(0.0313001 -0.129943 6.89146e-20)
(0.0796254 -0.168543 -2.09425e-20)
(0.175252 -0.176463 -4.62009e-20)
(-0.0128625 0.0173775 -5.21596e-20)
(-0.0252837 0.0241666 3.15573e-20)
(-0.0329227 0.0145373 -1.55314e-20)
(-0.0337101 -0.00331189 1.62028e-21)
(-0.025623 -0.0259133 1.682e-20)
(-0.00568644 -0.0522982 -5.33617e-20)
(0.0294879 -0.0824763 4.74587e-20)
(0.0839739 -0.115633 -4.59719e-20)
(0.151044 -0.15699 7.23388e-20)
(0.268765 -0.158469 2.48666e-20)
(-0.0143452 0.0189528 1.12811e-20)
(-0.0267451 0.0288026 6.20141e-20)
(-0.0308345 0.0217684 -1.582e-20)
(-0.025372 0.0055769 1.60427e-20)
(-0.0084373 -0.016019 1.91229e-20)
(0.0230427 -0.0415983 -5.81519e-21)
(0.072672 -0.0707387 4.11889e-20)
(0.144 -0.102405 2.29297e-21)
(0.231899 -0.14467 -4.57347e-20)
(0.371422 -0.139566 5.96455e-20)
(-0.0154745 0.0196899 -2.99208e-20)
(-0.027422 0.0316118 -5.88922e-20)
(-0.0274936 0.0266706 5.13724e-20)
(-0.0150867 0.0119392 2.60859e-20)
(0.0116992 -0.00867415 -1.21816e-19)
(0.0560249 -0.0333386 1.00079e-19)
(0.121722 -0.0611101 -9.0579e-20)
(0.211283 -0.0908169 1.59515e-21)
(0.321907 -0.131667 -1.95341e-20)
(0.478205 -0.119907 -5.44241e-20)
(-0.0162192 0.0196762 2.61556e-20)
(-0.0272014 0.0326702 -3.61498e-21)
(-0.0227438 0.0292543 -1.26205e-20)
(-0.00265834 0.0157122 -1.3732e-21)
(0.0350152 -0.00397197 -7.66255e-21)
(0.0935307 -0.0276094 -3.18516e-20)
(0.176809 -0.0536233 1.35022e-20)
(0.285548 -0.0810036 -2.1426e-20)
(0.420317 -0.117247 6.80585e-21)
(0.583637 -0.0996239 1.83767e-21)
(-0.0165698 0.0190232 -5.34368e-20)
(-0.0259812 0.032128 -3.93791e-21)
(-0.0163874 0.0296242 5.90819e-21)
(0.0122058 0.0169721 2.41338e-21)
(0.0619024 -0.00180935 4.00569e-20)
(0.136021 -0.0242231 -1.1761e-19)
(0.238319 -0.0479802 7.93247e-20)
(0.366868 -0.0727437 -5.90722e-20)
(0.525369 -0.0999957 4.7673e-20)
(0.682928 -0.0795306 4.98737e-20)
(-0.0165257 0.0178575 -6.55964e-21)
(-0.0236562 0.030184 2.98262e-20)
(-0.00817423 0.0279809 -3.77069e-20)
(0.0299124 0.0159463 -1.18977e-20)
(0.0929323 -0.00189758 2.30919e-20)
(0.184168 -0.0227487 1.11795e-19)
(0.306702 -0.0435799 -2.23894e-20)
(0.455401 -0.065125 1.11429e-20)
(0.634045 -0.0791419 -5.58304e-20)
(0.774889 -0.0642372 2.31798e-20)
(-0.0160911 0.0163026 -1.96222e-20)
(-0.0200948 0.0270642 -1.52593e-20)
(0.00221093 0.024617 3.71744e-21)
(0.0509898 0.0129913 1.4963e-20)
(0.128825 -0.00376247 -4.45927e-20)
(0.238742 -0.0225235 -1.81917e-20)
(0.382244 -0.0396 -5.71161e-20)
(0.550519 -0.0565718 5.75049e-20)
(0.741543 -0.0568879 5.87626e-20)
(0.863596 -0.060583 -2.42909e-20)
(-0.015261 0.0144684 -9.33391e-21)
(-0.0151374 0.0230131 3.80572e-20)
(0.0151545 0.0198867 -4.28405e-20)
(0.0760667 0.00858038 -5.00518e-21)
(0.170377 -0.00676492 -2.03508e-20)
(0.300414 -0.022692 4.46099e-20)
(0.464793 -0.0350748 5.75317e-20)
(0.650054 -0.0457871 -5.41355e-20)
(0.842108 -0.0385949 5.53536e-20)
(0.973101 -0.0492507 6.91822e-21)
(-0.0140112 0.0124443 -2.70106e-20)
(-0.00858566 0.0182738 -7.70512e-20)
(0.0311015 0.0141887 7.54226e-20)
(0.105822 0.00328108 1.09363e-20)
(0.21834 -0.0101374 1.62301e-20)
(0.369506 -0.0222857 9.4767e-21)
(0.553415 -0.0290383 4.34257e-20)
(0.750456 -0.0327017 3.14078e-20)
(0.93776 -0.0214452 -1.08525e-19)
(1.06693 -0.0285089 -5.04805e-20)
(-0.0122915 0.0102965 -9.25218e-20)
(-0.000200382 0.0130765 1.86862e-20)
(0.0505316 0.00794614 -4.25083e-20)
(0.140916 -0.00227709 8.36395e-21)
(0.273264 -0.0130371 1.35648e-20)
(0.445758 -0.0203383 -9.66813e-20)
(0.646202 -0.0207161 4.21393e-20)
(0.84828 -0.0175217 -2.81266e-20)
(1.02489 -0.00342293 2.90889e-20)
(1.14095 -0.00761518 -9.64818e-21)
(-0.010022 0.00807017 3.34284e-20)
(0.0102921 0.00763442 3.60133e-20)
(0.0739249 0.0015895 -1.95654e-21)
(0.1819 -0.0074363 -1.17139e-20)
(0.335339 -0.0146129 5.66727e-22)
(0.528151 -0.0160254 1.04856e-21)
(0.740424 -0.00970664 -6.42494e-20)
(0.940285 -0.000530263 8.32357e-21)
(1.10077 0.0151444 7.63099e-20)
(1.20078 0.0131977 3.30644e-20)
(-0.00709508 0.00579528 -2.26003e-20)
(0.0231871 0.00214574 -1.68491e-20)
(0.101719 -0.00445502 7.22276e-20)
(0.229127 -0.0115422 1.84021e-21)
(0.404249 -0.0140805 -3.01988e-20)
(0.614893 -0.00878782 8.16492e-20)
(0.832978 0.00398622 1.75758e-20)
(1.02381 0.0178121 5.82757e-22)
(1.16472 0.0339493 -3.37008e-20)
(1.24613 0.033137 -4.20321e-20)
(-0.00338155 0.00349553 4.7051e-20)
(0.0387829 -0.00319863 -1.32182e-20)
(0.134268 -0.0097699 -7.83862e-21)
(0.282672 -0.013971 -2.99681e-20)
(0.479097 -0.0107979 4.95135e-20)
(0.703593 0.00160345 -2.43625e-20)
(0.920914 0.0200445 -2.7078e-20)
(1.0972 0.0370121 -6.60797e-21)
(1.21671 0.0525942 -1.91595e-20)
(1.2799 0.0519283 1.99647e-20)
(0.00126061 0.0011981 -1.73658e-20)
(0.0573576 -0.00820306 -1.02903e-19)
(0.171794 -0.0139452 1.07789e-20)
(0.342267 -0.0141546 3.71292e-20)
(0.558426 -0.00432964 2.67055e-20)
(0.791599 0.0150643 -8.8466e-20)
(1.00187 0.037989 5.616e-20)
(1.15976 0.0566166 -2.53351e-20)
(1.25768 0.0707962 3.71997e-20)
(1.30394 0.0695974 9.9075e-21)
(0.00697558 -0.00105755 -1.89178e-20)
(0.0791474 -0.0126554 3.65823e-20)
(0.214358 -0.0165751 4.75947e-20)
(0.407273 -0.011606 -3.4302e-20)
(0.640347 0.0055208 1.26982e-20)
(0.87638 0.0312824 -7.76986e-20)
(1.07425 0.0573083 -1.48223e-20)
(1.21158 0.0762692 1.18433e-20)
(1.28891 0.0883996 -2.83241e-20)
(1.32033 0.0862075 -2.80097e-20)
(0.0138992 -0.00321314 -2.43336e-20)
(0.104323 -0.016317 -8.12303e-21)
(0.261827 -0.0172573 -8.60472e-20)
(0.476693 -0.00594756 -1.34541e-20)
(0.722754 0.0187215 -1.49985e-21)
(0.955825 0.049825 4.60404e-21)
(1.13729 0.0775407 8.13997e-21)
(1.25335 0.095721 -3.71491e-20)
(1.31187 0.105351 6.85633e-22)
(1.33075 0.101926 1.94247e-20)
(0.0221494 -0.0051881 -6.30113e-21)
(0.132971 -0.0189187 2.98581e-20)
(0.313857 -0.0156003 4.20103e-20)
(0.549222 0.00306482 2.62666e-20)
(0.803559 0.0350614 -7.84296e-21)
(1.0284 0.07023 -6.37154e-21)
(1.19083 0.0983093 6.30623e-20)
(1.28607 0.114822 8.11752e-21)
(1.32799 0.121675 2.76077e-20)
(1.33662 0.116918 -1.16357e-20)
(0.0318178 -0.0068791 6.02907e-20)
(0.165074 -0.0201625 3.91999e-20)
(0.369886 -0.0112403 -3.96935e-20)
(0.623352 0.0155292 -7.89919e-21)
(0.880904 0.0542161 4.05438e-21)
(1.09317 0.0920629 -1.48955e-20)
(1.23523 0.119329 -3.2214e-20)
(1.31088 0.133503 -5.40905e-21)
(1.33856 0.137443 4.39617e-22)
(1.33903 0.131348 1.26224e-20)
(0.0429633 -0.00816234 7.28155e-21)
(0.2005 -0.0197306 -2.13211e-20)
(0.429143 -0.00386554 5.04416e-20)
(0.697493 0.0314039 3.2862e-20)
(0.953286 0.0758079 8.94157e-22)
(1.14971 0.114945 2.32253e-20)
(1.27113 0.140399 3.46221e-21)
(1.32894 0.151751 -2.40953e-20)
(1.3447 0.152751 2.00623e-20)
(1.33882 0.145358 1.12166e-23)
(0.0556063 -0.00889782 -4.9417e-20)
(0.238992 -0.0173007 -1.45807e-20)
(0.490683 0.00675821 -1.32363e-20)
(0.770102 0.0505306 -2.29756e-20)
(1.01961 0.0994492 5.30177e-21)
(1.198 0.138559 1.17837e-22)
(1.29933 0.161385 1.76089e-20)
(1.34131 0.169593 -2.83318e-21)
(1.3473 0.167696 -2.06793e-20)
(1.33657 0.159063 -1.89118e-20)
(0.0697242 -0.00893489 3.99021e-21)
(0.28017 -0.0125642 2.34979e-20)
(0.553433 0.0207678 1.13486e-20)
(0.839784 0.0726641 -3.55466e-20)
(1.07915 0.124768 -1.81841e-21)
(1.23832 0.162652 -1.51791e-20)
(1.3207 0.182206 3.92073e-22)
(1.34893 0.187073 7.09522e-21)
(1.34709 0.182367 -7.74079e-21)
(1.33273 0.172545 2.14021e-20)
(0.0852489 -0.00811868 9.31877e-21)
(0.32353 -0.00524738 -2.29102e-20)
(0.616256 0.0381942 -5.41306e-20)
(0.905362 0.0975023 4.98542e-20)
(1.13155 0.15142 -3.72114e-21)
(1.27113 0.187019 1.10121e-20)
(1.33607 0.202816 -1.48788e-21)
(1.35261 0.204242 1.04246e-20)
(1.3446 0.196835 -8.06305e-22)
(1.32756 0.185857 -1.65666e-20)
(0.102065 -0.00629708 -1.89341e-20)
(0.368467 0.00487008 2.97104e-20)
(0.678016 0.0589648 2.46048e-20)
(0.965907 0.12471 -3.54259e-20)
(1.17669 0.179092 -5.83926e-21)
(1.29698 0.2115 2.24278e-21)
(1.34622 0.223192 2.22413e-20)
(1.35299 0.221146 1.10805e-21)
(1.34022 0.211151 4.25551e-21)
(1.32127 0.199026 -9.16276e-21)
(0.120011 -0.00332783 1.43601e-20)
(0.414291 0.0179387 -1.2939e-20)
(0.737633 0.0829144 -1.09813e-20)
(1.02074 0.153937 1.88584e-20)
(1.21467 0.207504 6.5219e-21)
(1.31647 0.235966 4.90099e-21)
(1.35183 0.243319 -2.26222e-20)
(1.3506 0.237816 -7.6901e-21)
(1.33425 0.225342 -6.85047e-21)
(1.31396 0.212054 3.01485e-21)
(0.138881 0.000914215 -7.11143e-21)
(0.460257 0.0340289 -1.6491e-22)
(0.794136 0.1098 2.07716e-20)
(1.06939 0.184825 -7.63265e-21)
(1.2457 0.2364 -3.35043e-21)
(1.33018 0.260307 -2.2075e-21)
(1.35351 0.263182 5.45711e-21)
(1.34582 0.254271 9.38866e-21)
(1.32688 0.239412 -2.96631e-22)
(1.3057 0.224923 3.37867e-21)
(0.158429 0.00653041 5.00578e-21)
(0.505596 0.0531254 -1.40437e-21)
(0.846684 0.139316 -3.70988e-21)
(1.11159 0.217023 -3.35841e-21)
(1.27011 0.265549 3.02173e-21)
(1.33866 0.284428 2.34926e-21)
(1.35173 0.282761 -2.16406e-21)
(1.33898 0.270508 7.80494e-22)
(1.31822 0.253343 1.09023e-21)
(1.29654 0.237599 -1.43895e-21)
(0.178378 0.0135923 2.66582e-21)
(0.549545 0.0751283 7.62619e-22)
(0.894587 0.171111 -4.56519e-21)
(1.14724 0.250179 -3.63956e-21)
(1.28825 0.294734 3.79096e-21)
(1.34244 0.308237 7.4016e-22)
(1.3469 0.302025 -1.72033e-21)
(1.33028 0.286505 1.61517e-21)
(1.30837 0.267097 8.96913e-22)
(1.28649 0.250037 -1.02388e-21)
(0.198423 0.022137 -1.04841e-21)
(0.591374 0.0998568 2.12662e-21)
(0.937303 0.2048 1.40198e-20)
(1.17633 0.283954 -6.21234e-21)
(1.30052 0.323754 -3.05805e-21)
(1.34195 0.331641 -3.43442e-21)
(1.33935 0.320927 7.02168e-21)
(1.31989 0.302221 4.68818e-21)
(1.29737 0.280614 3.73469e-21)
(1.27558 0.26218 2.01871e-21)
(0.218246 0.032164 2.1243e-20)
(0.630413 0.127058 -1.16939e-20)
(0.974433 0.239973 -1.33567e-20)
(1.19898 0.318014 1.80982e-20)
(1.30729 0.352414 9.49702e-21)
(1.33759 0.354546 -6.32025e-22)
(1.32934 0.339408 -1.16892e-20)
(1.30793 0.317594 -8.42636e-21)
(1.28526 0.29382 -8.73826e-21)
(1.26382 0.273961 5.172e-21)
(0.237521 0.0436334 -2.86977e-20)
(0.666063 0.156416 2.69799e-20)
(1.00571 0.276207 3.0972e-20)
(1.21537 0.352034 -3.05213e-20)
(1.30896 0.380524 -1.05746e-20)
(1.32972 0.376849 6.76027e-21)
(1.31707 0.357395 1.22872e-20)
(1.29446 0.332549 1.92309e-21)
(1.27204 0.306621 -3.30214e-22)
(1.25117 0.285296 -7.03952e-21)
(0.255927 0.0564664 -4.08182e-21)
(0.697814 0.187562 -3.78271e-20)
(1.03099 0.313072 -4.04886e-20)
(1.22571 0.385699 4.53381e-20)
(1.30587 0.4079 -5.13854e-21)
(1.31862 0.39844 9.40526e-21)
(1.30271 0.374803 1.84774e-21)
(1.27956 0.347005 -5.23185e-21)
(1.25769 0.318933 2.80527e-21)
(1.23753 0.296105 -3.77225e-22)
(0.273151 0.0705471 8.31351e-21)
(0.725249 0.220087 2.33545e-20)
(1.05021 0.350135 1.32668e-20)
(1.23027 0.418704 -1.04442e-20)
(1.29838 0.434355 -1.61172e-20)
(1.30456 0.4192 -1.50556e-20)
(1.2864 0.391533 -3.03712e-21)
(1.26327 0.360883 8.04012e-21)
(1.24222 0.330716 -1.69791e-21)
(1.22273 0.306348 3.8983e-21)
(0.288904 0.0857254 -3.12475e-20)
(0.748052 0.253556 -2.9216e-20)
(1.06341 0.386966 -4.58574e-21)
(1.22934 0.450755 -5.20408e-21)
(1.28682 0.459708 -1.18123e-20)
(1.28778 0.439 7.25171e-21)
(1.26826 0.407472 -1.31822e-21)
(1.24564 0.374078 -7.06832e-21)
(1.22571 0.341974 6.39884e-21)
(1.20686 0.316015 -9.23344e-21)
(0.302925 0.10182 7.55333e-21)
(0.766004 0.287513 2.47185e-20)
(1.07071 0.423147 2.14206e-20)
(1.22323 0.481565 2.32858e-20)
(1.27148 0.483776 5.10529e-22)
(1.26846 0.457712 2.0345e-20)
(1.24836 0.422503 1.32854e-21)
(1.22669 0.386441 -2.39993e-20)
(1.20817 0.352606 1.7199e-20)
(1.1903 0.32493 6.35321e-21)
(0.314985 0.118623 2.01754e-20)
(0.778976 0.321502 4.49584e-20)
(1.07227 0.45827 -5.9895e-21)
(1.21225 0.510859 -2.92435e-20)
(1.25266 0.506381 1.32196e-20)
(1.24679 0.475203 -1.37672e-20)
(1.22682 0.436518 -1.83486e-20)
(1.20659 0.39789 -1.56779e-21)
(1.18953 0.362379 -1.42636e-20)
(1.17308 0.333131 5.53774e-21)
(0.324897 0.135906 9.39185e-21)
(0.786921 0.355065 6.84095e-21)
(1.0683 0.491943 5.58206e-20)
(1.19674 0.538377 1.04693e-20)
(1.23064 0.527351 -9.11796e-21)
(1.22296 0.491326 -4.71496e-21)
(1.20384 0.449356 2.8022e-20)
(1.18535 0.40835 2.30997e-20)
(1.16982 0.371228 1.15209e-20)
(1.15514 0.340421 -1.5671e-21)
(0.332513 0.153427 1.96396e-21)
(0.789867 0.387758 -4.58107e-20)
(1.05908 0.523789 -6.55175e-20)
(1.17704 0.56387 2.02087e-21)
(1.20568 0.546514 1.29614e-20)
(1.19718 0.505928 -1.78813e-20)
(1.17947 0.460904 -4.0981e-20)
(1.16295 0.417696 -1.22526e-20)
(1.1492 0.37905 -7.43854e-22)
(1.13647 0.34674 5.94703e-21)
(0.337729 0.170937 -1.62282e-20)
(0.787917 0.419154 4.07979e-20)
(1.04493 0.553461 3.92688e-20)
(1.15348 0.587096 -3.62142e-20)
(1.17805 0.56369 5.54265e-21)
(1.16962 0.518873 4.31528e-20)
(1.15376 0.471033 -9.62865e-21)
(1.1395 0.425818 8.1648e-21)
(1.12771 0.385751 -3.99585e-21)
(1.11711 0.352007 -5.36807e-21)
(0.340487 0.188184 -3.6339e-20)
(0.781266 0.448848 -6.44047e-20)
(1.02627 0.580677 -1.26424e-20)
(1.1263 0.607797 2.07416e-20)
(1.148 0.578709 2.04042e-20)
(1.14042 0.530008 -4.29517e-20)
(1.12688 0.479628 2.35842e-20)
(1.11509 0.43261 -1.25177e-20)
(1.10544 0.391237 1.0212e-20)
(1.09715 0.35616 2.82421e-22)
(0.340781 0.204909 2.77337e-20)
(0.7702 0.476433 2.02409e-21)
(1.00345 0.605221 -6.16226e-21)
(1.09572 0.625762 -2.55784e-20)
(1.11579 0.591361 1.66117e-20)
(1.10977 0.539198 3.61221e-21)
(1.09893 0.486569 -1.35296e-20)
(1.08983 0.437971 2.29194e-21)
(1.08245 0.395413 -2.80821e-21)
(1.07667 0.359128 1.60214e-21)
(0.338665 0.220851 -7.52584e-21)
(0.755043 0.501537 -1.04517e-20)
(0.976439 0.626664 2.68894e-20)
(1.06234 0.640991 1.25424e-20)
(1.08177 0.601474 -1.72631e-20)
(1.07786 0.546308 2.45218e-20)
(1.07005 0.491751 1.78032e-21)
(1.06383 0.441807 2.01456e-21)
(1.05885 0.398184 -3.18806e-22)
(1.05575 0.360821 7.8144e-23)
(0.334221 0.235748 4.87013e-20)
(0.735988 0.524052 3.76645e-20)
(0.945513 0.644617 -2.71058e-21)
(1.02664 0.65313 -5.85029e-21)
(1.04615 0.609042 -7.02808e-21)
(1.04489 0.551241 -3.50791e-21)
(1.0404 0.495073 1.87303e-21)
(1.0372 0.444038 1.79392e-21)
(1.03473 0.399458 7.48231e-22)
(1.03447 0.361145 -2.24938e-21)
(0.327512 0.249263 3.84276e-21)
(0.713172 0.54359 6.41035e-21)
(0.911601 0.659245 -3.47633e-20)
(0.988878 0.661942 1.55032e-20)
(1.00921 0.61391 4.33181e-21)
(1.01104 0.553899 -9.92456e-21)
(1.01013 0.496449 3.43172e-21)
(1.01005 0.444594 1.13397e-21)
(1.01021 0.399169 -3.05621e-21)
(1.01305 0.360049 3.10935e-21)
(0.318577 0.261172 -1.84624e-20)
(0.686864 0.559638 -1.33254e-20)
(0.875139 0.670265 1.1108e-20)
(0.949356 0.667424 2.96641e-21)
(0.971185 0.615979 -6.09403e-21)
(0.976507 0.55419 5.7009e-21)
(0.979353 0.495791 1.90027e-21)
(0.982494 0.443386 -5.97963e-21)
(0.985558 0.397254 1.74634e-20)
(0.992172 0.357577 7.38327e-21)
(0.307639 0.271315 -1.40898e-20)
(0.657646 0.572047 3.4948e-20)
(0.836438 0.677457 -2.23319e-20)
(0.908415 0.669489 -3.2497e-21)
(0.932344 0.615164 -4.04312e-21)
(0.941475 0.552039 3.30583e-22)
(0.948199 0.493019 -6.27765e-21)
(0.95464 0.440282 3.3746e-21)
(0.961186 0.39352 -1.95753e-24)
(0.972569 0.353778 -3.09085e-21)
(0.294911 0.279591 -1.14492e-21)
(0.625947 0.580674 -1.03771e-20)
(0.795903 0.680659 5.67885e-21)
(0.866404 0.668061 -3.15508e-21)
(0.89295 0.611408 3.70099e-21)
(0.906129 0.547397 4.27914e-21)
(0.916788 0.48809 1.27351e-20)
(0.926684 0.43518 -9.98306e-21)
(0.937457 0.387576 -1.91283e-20)
(0.953528 0.347964 8.58694e-21)
(0.280565 0.285825 -1.3463e-22)
(0.592203 0.585388 -2.02761e-21)
(0.753954 0.679784 9.34063e-22)
(0.823673 0.663085 4.80379e-21)
(0.853269 0.604674 -9.82523e-21)
(0.870668 0.540241 -1.73319e-20)
(0.88531 0.481011 -5.02914e-21)
(0.898897 0.428213 -1.72543e-21)
(0.914338 0.379615 2.66072e-20)
(0.932088 0.336258 -5.45993e-21)
(0.264826 0.289882 -7.84218e-22)
(0.556847 0.586085 -4.43784e-21)
(0.711019 0.674784 8.5996e-22)
(0.780571 0.654531 9.62264e-22)
(0.813567 0.594939 -7.96728e-21)
(0.83531 0.530548 3.38362e-20)
(0.854028 0.471754 -2.40275e-20)
(0.871503 0.419479 2.87444e-20)
(0.890701 0.371636 -2.01313e-20)
(0.908148 0.329772 -2.68682e-20)
(0.247939 0.291658 -5.00026e-22)
(0.520307 0.5827 -1.36089e-21)
(0.667518 0.665645 6.39563e-22)
(0.73744 0.642396 1.2515e-20)
(0.774111 0.582199 -5.47164e-21)
(0.800282 0.518301 8.23973e-21)
(0.823152 0.460269 1.40102e-20)
(0.844535 0.408687 -7.38919e-21)
(0.866995 0.361403 -1.97744e-20)
(0.885462 0.319829 2.71914e-20)
(0.230156 0.291078 1.0191e-20)
(0.483012 0.575202 1.33489e-20)
(0.623868 0.652384 -1.30458e-20)
(0.694619 0.626704 -1.14051e-20)
(0.735165 0.566474 4.10535e-20)
(0.765804 0.503519 -4.16475e-20)
(0.792829 0.446608 5.01272e-20)
(0.818003 0.396078 -1.24806e-20)
(0.843425 0.349911 1.33937e-20)
(0.863595 0.309532 2.51606e-20)
(0.211737 0.288097 -3.65175e-21)
(0.445387 0.563599 -1.32665e-20)
(0.580473 0.63505 -8.33318e-21)
(0.652438 0.607504 -4.45441e-21)
(0.696993 0.547802 5.33755e-21)
(0.732096 0.486228 -1.1118e-20)
(0.763233 0.43078 -1.49681e-20)
(0.792071 0.381585 -3.28445e-20)
(0.820335 0.336785 3.26114e-20)
(0.842618 0.297806 -1.04292e-20)
(0.192943 0.282697 2.55902e-20)
(0.40785 0.547937 -3.18018e-21)
(0.537729 0.61372 -1.16731e-20)
(0.61122 0.584868 1.48646e-20)
(0.659852 0.52624 -2.6443e-20)
(0.699368 0.466477 7.10006e-20)
(0.734531 0.412837 -3.78151e-20)
(0.766904 0.365292 3.42121e-20)
(0.797945 0.322167 -6.27093e-20)
(0.82255 0.284776 -1.66375e-20)
(0.174034 0.274888 -7.94145e-21)
(0.37081 0.528299 2.71134e-20)
(0.496017 0.588501 6.31749e-21)
(0.571275 0.558895 -1.38121e-20)
(0.623992 0.501868 -2.38257e-20)
(0.667825 0.44433 -7.4117e-22)
(0.706894 0.392833 1.2608e-20)
(0.742668 0.347236 -3.09109e-20)
(0.77641 0.306042 1.51273e-20)
(0.803432 0.270387 1.99663e-21)
(0.155267 0.264707 -4.47256e-20)
(0.334661 0.504799 -1.09658e-20)
(0.455701 0.55953 -3.05334e-21)
(0.532901 0.529704 3.58574e-20)
(0.589653 0.474786 -3.33164e-20)
(0.637666 0.41987 -8.58345e-21)
(0.680492 0.370842 -5.25093e-21)
(0.71952 0.32748 9.65009e-21)
(0.755871 0.288451 -1.22391e-20)
(0.785332 0.254674 -1.90413e-20)
(0.13689 0.252218 3.96749e-20)
(0.299781 0.477586 -2.25388e-20)
(0.417132 0.526967 1.07831e-21)
(0.496383 0.497439 -5.44719e-20)
(0.557068 0.445111 5.89866e-20)
(0.609085 0.393196 -1.86091e-20)
(0.655491 0.346947 1.11357e-20)
(0.697607 0.306091 9.65119e-21)
(0.736449 0.269442 2.79716e-20)
(0.768322 0.237688 -1.15156e-20)
(0.119145 0.237509 -1.61408e-20)
(0.26653 0.446841 4.67932e-20)
(0.380637 0.491004 2.63394e-20)
(0.461989 0.462263 4.30468e-20)
(0.526453 0.412981 -9.92059e-21)
(0.582265 0.364424 4.01638e-21)
(0.632047 0.321248 3.21233e-20)
(0.677067 0.283152 7.16506e-21)
(0.718261 0.249079 6.9195e-22)
(0.752478 0.219498 -1.37672e-20)
(0.102262 0.220691 -3.72078e-20)
(0.235244 0.412772 -2.72838e-21)
(0.346524 0.451851 -1.54644e-20)
(0.429972 0.424361 -6.93096e-20)
(0.498014 0.378548 -6.6858e-20)
(0.557378 0.333683 1.11567e-20)
(0.610309 0.293857 -2.73915e-20)
(0.658029 0.258756 1.74687e-20)
(0.701415 0.227443 9.47621e-21)
(0.737876 0.200186 1.97606e-20)
(0.086456 0.201898 5.46516e-20)
(0.206239 0.375616 -4.46809e-20)
(0.31508 0.409747 -2.2647e-20)
(0.400564 0.383936 4.00891e-20)
(0.471944 0.341983 4.55172e-20)
(0.534585 0.30112 -1.50742e-20)
(0.590415 0.264898 -1.95019e-21)
(0.640613 0.23301 -5.43662e-20)
(0.686014 0.204625 -3.07134e-20)
(0.724586 0.179841 1.16991e-20)
(0.0719265 0.181284 -3.109e-20)
(0.179801 0.335632 1.30961e-20)
(0.286563 0.364946 4.80618e-20)
(0.37398 0.341209 -2.15139e-20)
(0.448418 0.303472 1.69076e-21)
(0.514037 0.266891 6.07065e-20)
(0.572492 0.234508 2.79182e-21)
(0.624928 0.206028 5.20873e-20)
(0.672153 0.180725 2.16926e-20)
(0.712675 0.158563 -3.44671e-20)
(0.0588556 0.159022 4.30211e-20)
(0.156191 0.293105 4.75294e-21)
(0.261211 0.317726 3.11986e-21)
(0.350412 0.296416 4.37978e-20)
(0.427595 0.263214 -5.84288e-21)
(0.495866 0.231168 -3.80961e-20)
(0.556656 0.202832 1.8628e-20)
(0.611076 0.177937 -2.97599e-20)
(0.65992 0.155854 -1.24325e-20)
(0.702206 0.136453 1.25406e-20)
(0.047406 0.1353 -2.68338e-20)
(0.135641 0.248337 -5.14892e-20)
(0.239231 0.26838 1.18748e-20)
(0.330032 0.249809 -2.32364e-20)
(0.409617 0.221422 -1.40261e-20)
(0.480195 0.194131 3.39377e-20)
(0.54301 0.170028 -8.2097e-21)
(0.599147 0.148872 7.57112e-21)
(0.649394 0.130131 -9.20081e-21)
(0.693232 0.11362 1.82565e-20)
(0.0377194 0.110323 9.69435e-21)
(0.118349 0.201649 3.46565e-20)
(0.220803 0.217214 -4.80811e-20)
(0.312988 0.201651 2.27111e-20)
(0.394606 0.178318 -1.03409e-20)
(0.467126 0.155973 -2.90663e-20)
(0.531644 0.13626 2.37034e-20)
(0.58922 0.118974 4.9652e-21)
(0.640643 0.103681 -7.67677e-22)
(0.685802 0.0901779 -2.12201e-20)
(0.0299155 0.0843069 3.1662e-21)
(0.104485 0.153378 1.11436e-20)
(0.20608 0.164551 4.34786e-20)
(0.299406 0.152217 -8.32498e-21)
(0.382667 0.134135 -6.55657e-21)
(0.456748 0.116892 2.42767e-21)
(0.522632 0.101699 1.06478e-21)
(0.581362 0.0883935 8.8406e-21)
(0.633728 0.0766386 -1.16065e-20)
(0.679958 0.0662433 -7.37877e-21)
(0.0240909 0.0574779 -7.92354e-21)
(0.0941841 0.103871 -1.35652e-20)
(0.195183 0.11072 -3.37653e-20)
(0.289384 0.10179 1.69811e-20)
(0.373882 0.0891122 1.38445e-20)
(0.449131 0.0770936 5.8788e-22)
(0.516038 0.0665239 -2.31052e-20)
(0.575627 0.0572827 -1.02486e-20)
(0.628698 0.0491334 8.12525e-21)
(0.675731 0.0419179 8.68906e-21)
(0.0203185 0.0300707 1.37354e-21)
(0.0875481 0.0534868 -2.83162e-21)
(0.188204 0.0560623 6.41571e-21)
(0.283 0.0506588 -4.34293e-21)
(0.368313 0.0434967 -3.81728e-21)
(0.44433 0.0367899 -2.58898e-21)
(0.511905 0.0309159 4.75146e-21)
(0.572055 0.0257986 1.80926e-20)
(0.625581 0.0212973 2.62163e-21)
(0.673133 0.0172841 -4.64369e-21)
(0.0186462 0.00232577 1.69933e-21)
(0.0846444 0.00258948 -4.67315e-21)
(0.185204 0.000922229 -5.29411e-21)
(0.280302 -0.000880078 -3.67214e-21)
(0.366003 -0.00246124 3.49473e-21)
(0.442379 -0.00380396 1.57614e-21)
(0.510264 -0.0049373 -1.57011e-21)
(0.57067 -0.00589108 -7.14682e-21)
(0.624386 -0.00670197 2.35201e-21)
(0.672123 -0.00741425 -2.19903e-21)
(0.0190974 -0.0255133 -1.69022e-21)
(0.0855059 -0.0484521 4.64969e-21)
(0.186211 -0.0543512 5.27211e-21)
(0.281315 -0.0525289 -5.04651e-21)
(0.366972 -0.0485087 4.44162e-21)
(0.443296 -0.0444708 2.22357e-21)
(0.511131 -0.0408493 -3.54958e-21)
(0.571496 -0.0376268 -4.12333e-21)
(0.625179 -0.0347326 6.07694e-22)
(0.672891 -0.0321026 -1.71559e-21)
(0.0216702 -0.0532018 1.8539e-21)
(0.0901304 -0.0992677 -5.53933e-21)
(0.191224 -0.109408 1.23769e-20)
(0.286038 -0.103989 -1.08697e-20)
(0.371218 -0.0943919 -5.1783e-22)
(0.447079 -0.0849933 -7.23659e-21)
(0.514506 -0.0766342 1.17558e-20)
(0.574523 -0.0692521 1.59815e-20)
(0.627925 -0.0626766 2.85338e-21)
(0.675311 -0.0567795 -6.14476e-21)
(0.0263375 -0.0804961 -1.57718e-21)
(0.0984808 -0.149489 -1.16539e-20)
(0.20021 -0.1639 -2.71417e-20)
(0.294443 -0.154962 2.35007e-20)
(0.378719 -0.139858 4.83671e-21)
(0.453709 -0.125154 4.28788e-21)
(0.520369 -0.112104 -2.11114e-20)
(0.579736 -0.1006 -1.24591e-20)
(0.632606 -0.0903738 -2.77705e-21)
(0.679371 -0.0812474 1.89755e-20)
(0.0330474 -0.107157 -5.5536e-21)
(0.110485 -0.198752 7.023e-21)
(0.213105 -0.217482 4.90623e-20)
(0.306477 -0.205153 -4.42139e-21)
(0.38943 -0.184657 -1.2623e-20)
(0.463149 -0.164738 9.04795e-21)
(0.528689 -0.147073 6.48919e-22)
(0.587108 -0.13151 3.1877e-21)
(0.639199 -0.117681 -6.99146e-21)
(0.685064 -0.105378 -1.8474e-20)
(0.0417232 -0.132949 -3.73447e-21)
(0.126038 -0.246698 2.03541e-20)
(0.229814 -0.269815 -4.92807e-20)
(0.322062 -0.254274 2.13275e-20)
(0.403286 -0.228543 2.07074e-22)
(0.475341 -0.203535 -2.71011e-20)
(0.539418 -0.18136 1.19952e-20)
(0.596595 -0.161825 -1.12674e-21)
(0.647667 -0.144463 4.55271e-21)
(0.692367 -0.129064 -1.34887e-21)
(0.0522648 -0.157649 -4.26975e-20)
(0.145 -0.292982 -5.11284e-20)
(0.250211 -0.320569 1.34599e-20)
(0.341095 -0.302041 -2.44384e-20)
(0.420202 -0.271276 -6.88174e-21)
(0.490214 -0.241339 1.03329e-20)
(0.552491 -0.214787 3.82492e-21)
(0.608142 -0.191391 1.41929e-20)
(0.657961 -0.170586 -3.0557e-21)
(0.701248 -0.15219 1.65071e-20)
(0.0645486 -0.18104 4.08167e-20)
(0.167197 -0.337268 2.62737e-20)
(0.274141 -0.369424 -1.98072e-20)
(0.363447 -0.34818 3.3408e-20)
(0.44007 -0.312626 -2.81738e-21)
(0.507677 -0.277952 -3.62331e-20)
(0.567832 -0.247183 6.35181e-21)
(0.621678 -0.22006 -3.85949e-20)
(0.670019 -0.195918 1.50977e-21)
(0.711664 -0.174643 1.40013e-20)
(0.0784292 -0.20292 -3.00499e-20)
(0.192425 -0.379237 5.39318e-20)
(0.30142 -0.416074 2.12039e-20)
(0.388967 -0.392431 -2.63999e-20)
(0.462767 -0.352369 2.91757e-22)
(0.527622 -0.313184 6.66846e-20)
(0.585349 -0.278386 3.00055e-21)
(0.637123 -0.247691 2.96029e-20)
(0.68377 -0.220336 3.60666e-20)
(0.723566 -0.196309 -2.02249e-20)
(0.0937404 -0.223101 1.68276e-20)
(0.22045 -0.418587 -8.08907e-21)
(0.331836 -0.460227 -1.91466e-20)
(0.417482 -0.434542 1.43039e-20)