/*--------------------------------*- C++ -*----------------------------------*\
  =========                 |
  \\      /  F ield         | OpenFOAM: The Open Source CFD Toolbox
   \\    /   O peration     | Website:  https://openfoam.org
    \\  /    A nd           | Version:  7
     \\/     M anipulation  |
\*---------------------------------------------------------------------------*/
FoamFile
{
    version     2.0;
    format      ascii;
    class       volVectorField;
    location    "300";
    object      U;
}
// * * * * * * * * * * * * * * * * * * * * * * * * * * * * * * * * * * * * * //

dimensions      [0 1 -1 0 0 0 0];

internalField   nonuniform List<vector> 
2125
(
(1.37506 -0.16105 -8.87063e-21)
(1.35865 -0.156059 -2.57119e-20)
(1.37422 -0.14926 -4.32989e-21)
(1.27318 -0.133388 1.79326e-20)
(1.34258 -0.142637 -2.04685e-21)
(1.36993 -0.137372 2.15631e-20)
(0.856568 -0.0649852 5.03709e-20)
(1.07401 -0.0952956 -1.05063e-19)
(1.22857 -0.11675 2.12811e-20)
(1.31915 -0.128991 -1.63741e-20)
(1.36102 -0.125296 -2.27813e-20)
(0.515478 -0.0254551 1.03924e-20)
(0.764395 -0.0501153 -8.51538e-20)
(0.995053 -0.0781349 5.74972e-20)
(1.17268 -0.100202 -4.43802e-20)
(1.28669 -0.115142 4.38608e-20)
(1.34595 -0.112965 -1.90949e-21)
(0.230999 -0.0116943 -3.62642e-22)
(0.430613 -0.0197709 3.46449e-20)
(0.668394 -0.0379761 1.98588e-21)
(0.906122 -0.0624609 -4.60006e-20)
(1.10452 -0.0840293 -1.17529e-21)
(1.24341 -0.101205 -1.9044e-20)
(1.32284 -0.100305 2.23507e-20)
(0.0564774 -0.016168 6.5486e-21)
(0.175598 -0.0139897 1.84777e-20)
(0.350589 -0.0170092 -3.12398e-20)
(0.571342 -0.0288866 7.26014e-20)
(0.808823 -0.048821 -2.5102e-22)
(1.0237 -0.0686453 -5.82371e-21)
(1.18769 -0.0874067 -3.69091e-20)
(1.2893 -0.0873906 -5.035e-21)
(0.0295593 -0.0210058 5.06065e-21)
(0.126975 -0.0174241 -1.32573e-20)
(0.276975 -0.0167279 -1.5393e-20)
(0.476218 -0.022985 -9.94475e-21)
(0.705741 -0.0377862 -6.96337e-21)
(0.93073 -0.0546005 8.87428e-21)
(1.11815 -0.0741516 3.56039e-20)
(1.24312 -0.0742678 2.60693e-20)
(-0.0269834 -0.0255387 2.82335e-20)
(0.00748984 -0.0255817 -6.48722e-20)
(0.0851465 -0.0215233 3.60811e-20)
(0.210854 -0.0184283 3.10356e-20)
(0.385842 -0.0201985 -7.78591e-20)
(0.60031 -0.0298647 2.10351e-20)
(0.827289 -0.0425665 -1.0294e-21)
(1.03453 -0.0620211 1.48456e-20)
(1.18075 -0.061469 -2.91212e-20)
(-0.0220203 -0.0165102 7.94597e-20)
(-0.0326395 -0.0284081 -2.19648e-20)
(-0.0100747 -0.029703 3.17906e-20)
(0.0499677 -0.0259688 1.97862e-20)
(0.152878 -0.0216805 -1.09847e-20)
(0.30259 -0.0202953 2.51716e-20)
(0.496456 -0.0253967 -1.01387e-20)
(0.716483 -0.033316 5.70564e-20)
(0.937306 -0.0517461 -9.08098e-20)
(1.10232 -0.0496759 -3.07968e-20)
(-0.0212378 -0.0167838 -2.33884e-20)
(-0.0361014 -0.0304829 8.75229e-20)
(-0.0235022 -0.0333183 -6.86812e-20)
(0.0211931 -0.030621 -2.05448e-21)
(0.103373 -0.0262101 -3.12534e-20)
(0.228274 -0.0229996 3.36255e-20)
(0.398094 -0.0244909 3.57116e-20)
(0.602527 -0.0276596 -1.75307e-20)
(0.829848 -0.0444732 1.52445e-20)
(1.00073 -0.0398142 1.80261e-20)
(-0.0199149 -0.0165925 4.76777e-21)
(-0.0377013 -0.0318511 -2.40899e-20)
(-0.0331674 -0.0365083 2.9704e-20)
(-0.00149872 -0.0355058 -2.77084e-20)
(0.0624207 -0.0319228 -3.32394e-20)
(0.164152 -0.0281043 -1.45299e-20)
(0.308605 -0.0270609 -5.37062e-20)
(0.490692 -0.026658 3.25684e-20)
(0.716483 -0.0386746 5.91884e-20)
(0.881102 -0.0435861 -1.85738e-20)
(-0.0182117 -0.016014 1.48289e-20)
(-0.0377463 -0.0326648 1.14239e-20)
(-0.0394948 -0.0394769 -2.7511e-21)
(-0.0185275 -0.040771 -4.7954e-20)
(0.0298756 -0.0388693 4.91079e-20)
(0.11095 -0.0355184 5.39114e-20)
(0.230539 -0.0330094 1.82193e-20)
(0.387368 -0.0311128 -3.05646e-21)
(0.594025 -0.0323635 -6.20315e-20)
(0.789562 -0.0481559 1.99359e-20)
(-0.0162789 -0.015165 -4.475e-20)
(-0.0365746 -0.0331277 -5.62862e-21)
(-0.042974 -0.0424737 1.1866e-20)
(-0.0304171 -0.0466321 3.67747e-21)
(0.0053333 -0.0471709 1.48467e-20)
(0.0688363 -0.0452269 -8.64324e-20)
(0.165594 -0.0423184 5.06299e-20)
(0.297493 -0.0403374 -5.92339e-20)
(0.473496 -0.0314863 4.28376e-20)
(0.693882 -0.0455845 5.12461e-20)
(-0.0142717 -0.0141856 1.97402e-20)
(-0.0345508 -0.0334957 -1.2549e-20)
(-0.0441177 -0.0457463 5.5505e-21)
(-0.0378234 -0.0532792 -2.60978e-20)
(-0.0119181 -0.0569209 3.57691e-21)
(0.0373643 -0.0571943 -6.68105e-21)
(0.114513 -0.0549386 -3.15386e-20)
(0.223721 -0.0533235 1.64803e-20)
(0.365744 -0.0388535 3.15988e-20)
(0.591989 -0.0438449 -4.65178e-20)
(-0.0123307 -0.0132202 -2.75023e-20)
(-0.0320163 -0.0340054 -4.01976e-20)
(-0.0434653 -0.0495009 3.14729e-20)
(-0.0415365 -0.0608364 2.99418e-20)
(-0.0229056 -0.0681026 -7.24648e-20)
(0.0154524 -0.0712495 6.99555e-20)
(0.0768256 -0.0705808 -7.64551e-20)
(0.166443 -0.0694375 2.07432e-20)
(0.27762 -0.0540587 -2.20225e-20)
(0.489236 -0.0482442 -3.48433e-20)
(-0.0105659 -0.0124015 1.40513e-20)
(-0.0292683 -0.0348525 3.23584e-20)
(-0.0415601 -0.0538597 8.2739e-21)
(-0.0424366 -0.0693098 8.62499e-21)
(-0.0288947 -0.0805457 -5.65507e-22)
(0.00147204 -0.0870191 1.25275e-20)
(0.050883 -0.0886477 2.35272e-20)
(0.124425 -0.0882203 4.35832e-20)
(0.211376 -0.0749838 -4.27461e-20)
(0.394884 -0.0602521 1.54635e-20)
(-0.00904933 -0.0118353 -3.49947e-20)
(-0.026548 -0.0361719 8.71914e-22)
(-0.0389125 -0.058857 1.11627e-20)
(-0.0414035 -0.0785686 -1.94735e-20)
(-0.0312575 -0.0939179 3.70817e-20)
(-0.00653544 -0.103937 -8.61675e-20)
(0.0341971 -0.1083 4.50046e-20)
(0.0952019 -0.109033 -4.05454e-20)
(0.165114 -0.0991756 7.73138e-20)
(0.316421 -0.0797543 2.00205e-20)
(-0.00781217 -0.0115881 1.80894e-20)
(-0.0240289 -0.0380279 -3.7208e-20)
(-0.0359545 -0.0644272 -1.10554e-20)
(-0.0392422 -0.0883646 1.59901e-20)
(-0.0313225 -0.10776 2.64933e-20)
(-0.0105867 -0.12131 3.84299e-21)
(0.0239188 -0.12858 -1.5083e-20)
(0.0754761 -0.130974 3.43137e-20)
(0.134198 -0.124668 -1.90883e-20)
(0.256417 -0.105477 -2.28921e-21)
(-0.0068494 -0.0116787 5.09908e-20)
(-0.0218014 -0.0403946 1.38882e-20)
(-0.0330179 -0.0704256 2.67953e-21)
(-0.0366285 -0.0983645 -3.59791e-20)
(-0.0302497 -0.121542 3.17505e-20)
(-0.0125064 -0.138402 9.94406e-21)
(0.0173218 -0.148532 5.03318e-21)
(0.0617058 -0.152992 -1.0697e-20)
(0.113061 -0.150105 1.24497e-20)
(0.212519 -0.13504 2.07904e-20)
(-0.00612212 -0.0120857 -3.86555e-20)
(-0.0198956 -0.0431659 2.12068e-20)
(-0.0303328 -0.0766237 -2.15567e-21)
(-0.0340751 -0.108185 5.19873e-20)
(-0.0289556 -0.134714 -5.59122e-20)
(-0.0137626 -0.154513 1.79777e-20)
(0.0121566 -0.167302 -1.09867e-20)
(0.0507297 -0.174077 -9.58396e-21)
(0.0966672 -0.174524 -2.89323e-20)
(0.179548 -0.165615 1.12782e-20)
(-0.00557488 -0.0127474 1.65009e-20)
(-0.0182924 -0.0461829 -4.22308e-20)
(-0.0280275 -0.082729 -2.35358e-20)
(-0.0319393 -0.117416 -3.65729e-20)
(-0.0280958 -0.146756 9.40271e-21)
(-0.0154077 -0.169032 -3.26019e-21)
(0.00680787 -0.184199 -2.8847e-20)
(0.0401718 -0.193393 -6.17066e-21)
(0.081332 -0.197195 -5.43329e-22)
(0.152009 -0.194836 1.35093e-20)
(-0.00514574 -0.0135663 3.03438e-20)
(-0.0169402 -0.0492274 2.93749e-21)
(-0.0261615 -0.0884193 1.27562e-20)
(-0.0304419 -0.125652 5.57735e-20)
(-0.0280885 -0.157209 5.44404e-20)
(-0.0181019 -0.181472 -9.39095e-21)
(0.000283382 -0.198719 2.35716e-20)
(0.0285444 -0.210349 -1.51932e-20)
(0.0648481 -0.217566 -8.90011e-21)
(0.125719 -0.221262 -1.97124e-20)
(-0.00477671 -0.0144222 -4.01374e-20)
(-0.0157775 -0.0520431 3.33104e-20)
(-0.0247477 -0.0933563 1.67682e-20)
(-0.0296975 -0.132511 -3.17543e-20)
(-0.029156 -0.165689 -3.56531e-20)
(-0.0221802 -0.191481 1.14844e-20)
(-0.00789434 -0.210542 1.18197e-21)
(0.0151319 -0.224587 4.72066e-20)
(0.046214 -0.235247 2.80519e-20)
(0.098284 -0.244253 -1.15416e-20)
(-0.00442129 -0.0151798 2.20886e-20)
(-0.0147498 -0.0543553 -9.67346e-21)
(-0.0237738 -0.097207 -3.45717e-20)
(-0.0297431 -0.13766 1.48343e-20)
(-0.0313702 -0.171907 -7.65307e-22)
(-0.0277292 -0.198835 -4.67927e-20)
(-0.0178218 -0.219501 -2.45641e-21)
(-0.000214186 -0.235933 -4.44627e-20)
(0.0252414 -0.250002 -1.9854e-20)
(0.0687868 -0.263657 3.32762e-20)
(-0.00404975 -0.0156982 -2.79178e-20)
(-0.013822 -0.0558907 -2.62825e-21)
(-0.0232192 -0.0996657 -1.80826e-21)
(-0.0305621 -0.140824 -3.12406e-20)
(-0.0346906 -0.175665 4.49379e-21)
(-0.0346554 -0.203422 2.8906e-20)
(-0.0293341 -0.225551 -1.49871e-20)
(-0.0172719 -0.244334 2.43363e-20)
(0.00222698 -0.261716 1.07514e-20)
(0.0372614 -0.279523 -1.21206e-20)
(-0.00365184 -0.0158385 1.75411e-20)
(-0.0129847 -0.0563982 3.37938e-20)
(-0.0230635 -0.100475 -7.65468e-21)
(-0.0320992 -0.141803 1.56284e-20)
(-0.0389948 -0.176852 1.00904e-20)
(-0.0427403 -0.205227 -2.50066e-20)
(-0.0420965 -0.228731 6.15357e-21)
(-0.0355955 -0.249817 -6.33724e-21)
(-0.0222603 -0.270378 8.31625e-21)
(0.00429327 -0.291911 -1.69178e-20)
(-0.00324001 -0.015476 -5.84111e-21)
(-0.0122559 -0.0556588 -2.2218e-20)
(-0.0232879 -0.0994318 3.108e-20)
(-0.0342686 -0.140477 -1.53968e-20)
(-0.0441025 -0.175451 7.17625e-21)
(-0.0516828 -0.204311 2.1291e-20)
(-0.0556691 -0.229137 -1.82296e-20)
(-0.0546181 -0.252456 -4.34008e-21)
(-0.0474741 -0.276062 4.13821e-22)
(-0.0292022 -0.300777 2.02381e-20)
(-0.0028419 -0.0145106 -1.85273e-21)
(-0.0116709 -0.053506 -6.9201e-21)
(-0.0238783 -0.0964057 -2.78272e-20)
(-0.0369705 -0.136801 5.48968e-21)
(-0.0497938 -0.171516 4.50966e-21)
(-0.0611253 -0.200794 -1.73147e-21)
(-0.0695517 -0.226907 -7.00905e-22)
(-0.0737162 -0.252363 -7.19838e-21)
(-0.0724968 -0.278772 1.02083e-20)
(-0.0621695 -0.306257 6.84348e-21)
(-0.00249995 -0.0128708 4.71213e-21)
(-0.0112841 -0.0498423 8.39663e-21)
(-0.0248225 -0.0913522 2.14101e-20)
(-0.0400857 -0.130815 -1.10114e-20)
(-0.05582 -0.165161 -9.378e-21)
(-0.0706829 -0.19484 -3.56177e-22)
(-0.0832184 -0.222212 1.78573e-20)
(-0.0921766 -0.249677 8.57489e-21)
(-0.0964427 -0.278558 -7.20577e-21)
(-0.0936244 -0.308712 -8.35523e-21)
(-0.00226683 -0.010522 -8.05571e-22)
(-0.0111583 -0.0446409 1.75675e-21)
(-0.0261035 -0.0843046 -4.02136e-21)
(-0.0434817 -0.122626 2.83871e-21)
(-0.0619192 -0.156558 2.60232e-21)
(-0.0799605 -0.18665 1.82908e-21)
(-0.0961327 -0.215247 -3.65815e-21)
(-0.109306 -0.244563 -1.48898e-20)
(-0.118508 -0.275625 -2.25891e-21)
(-0.122421 -0.308261 4.44348e-21)
(-0.00219909 -0.0074719 1.24919e-21)
(-0.0113564 -0.0379505 -3.13524e-21)
(-0.0276966 -0.0753739 -2.5161e-21)
(-0.047017 -0.112408 1.76016e-21)
(-0.067825 -0.145922 -2.42452e-21)
(-0.088567 -0.176452 -1.14776e-21)
(-0.107771 -0.206233 1.20033e-21)
(-0.124432 -0.237229 5.96966e-21)
(-0.137806 -0.270182 -2.09889e-21)
(-0.147335 -0.304864 2.13683e-21)
(1.09674 -0.00151157 -4.69565e-23)
(1.09728 -0.0014306 1.26718e-22)
(1.0978 -0.00134776 -1.31836e-22)
(1.09827 -0.00126294 4.30812e-23)
(1.09872 -0.00117611 1.16542e-22)
(1.09912 -0.00108721 4.23093e-24)
(1.09949 -0.000996223 -5.61067e-23)
(1.09983 -0.000903071 -9.81547e-23)
(1.10013 -0.000807948 6.6408e-23)
(1.10039 -0.000710282 -2.9414e-23)
(1.10064 -0.000611697 2.15829e-23)
(1.09811 -0.00448856 -3.70126e-23)
(1.09868 -0.00423733 -1.30847e-23)
(1.09922 -0.00398174 2.94114e-23)
(1.09973 -0.00372174 7.43612e-23)
(1.1002 -0.00345728 -5.47401e-24)
(1.10063 -0.00318832 -1.79257e-23)
(1.10103 -0.0029149 -2.70769e-23)
(1.10139 -0.00263683 9.03351e-23)
(1.10172 -0.00235467 2.49551e-23)
(1.102 -0.00206676 -2.44794e-23)
(1.10228 -0.00177772 -4.13161e-23)
(1.10064 -0.00740891 -6.83583e-23)
(1.10127 -0.00699342 1.33483e-24)
(1.10186 -0.00657113 5.76496e-24)
(1.10241 -0.00614191 1.78247e-22)
(1.10293 -0.00570569 -2.45112e-22)
(1.10342 -0.00526239 6.78812e-23)
(1.10387 -0.00481203 7.24722e-23)
(1.10428 -0.00435432 4.41073e-23)
(1.10466 -0.00389006 -4.40629e-23)
(1.105 -0.00341671 -5.35881e-24)
(1.10536 -0.00294135 2.61042e-24)
(1.10422 -0.0103771 8.94149e-23)
(1.10492 -0.00979434 -5.5951e-23)
(1.10558 -0.00920226 1.62656e-22)
(1.10621 -0.00860069 -6.35461e-23)
(1.10681 -0.00798956 -3.65701e-23)
(1.10737 -0.00736878 -1.86263e-22)
(1.1079 -0.00673842 8.57035e-24)
(1.10839 -0.00609814 6.9571e-24)
(1.10886 -0.00544894 6.19184e-23)
(1.10927 -0.00478761 -5.3805e-23)
(1.10974 -0.00412323 7.62932e-23)
(1.10874 -0.0134172 8.09214e-23)
(1.10953 -0.0126639 -5.86936e-23)
(1.1103 -0.0118986 -4.0903e-23)
(1.11102 -0.0111213 -1.9839e-23)
(1.11172 -0.0103318 9.37541e-23)
(1.11238 -0.00953009 1.44099e-22)
(1.11302 -0.00871621 -8.3828e-25)
(1.11361 -0.00788978 1.24749e-22)
(1.11419 -0.00705194 -3.90892e-23)
(1.1147 -0.00619886 2.84795e-22)
(1.11531 -0.00534138 -1.40807e-22)
(1.11411 -0.0165916 -9.86366e-23)
(1.11502 -0.0156627 1.17749e-22)
(1.1159 -0.0147191 -9.11854e-23)
(1.11675 -0.0137606 -2.66069e-22)
(1.11758 -0.0127873 3.04368e-23)
(1.11836 -0.0117989 -1.96432e-22)
(1.11913 -0.0107955 9.98133e-23)
(1.11985 -0.00977679 3.49373e-22)
(1.12056 -0.0087439 -4.07048e-23)
(1.12121 -0.00769243 -3.09986e-22)
(1.12198 -0.00663492 -1.0649e-22)
(1.12025 -0.0199357 1.17674e-23)
(1.12131 -0.0188249 -1.00084e-22)
(1.12233 -0.0176966 2.89952e-22)
(1.12333 -0.0165505 1.39797e-22)
(1.1243 -0.0153865 5.65053e-23)
(1.12524 -0.0142045 1.02947e-22)
(1.12615 -0.0130045 -2.89157e-22)
(1.12703 -0.0117861 -5.38747e-22)
(1.12791 -0.0105506 -2.38034e-22)
(1.12871 -0.00929277 6.51795e-24)
(1.12969 -0.00802731 4.85335e-23)
(1.1271 -0.0234889 1.96302e-22)
(1.12832 -0.0221896 1.56146e-22)
(1.12951 -0.0208696 2.02811e-22)
(1.13068 -0.0195288 -3.88823e-22)
(1.13182 -0.0181669 4.68672e-22)
(1.13294 -0.0167838 -1.30194e-22)
(1.13404 -0.0153796 4.3461e-22)
(1.13509 -0.0139536 -2.53673e-22)
(1.13617 -0.0125074 4.0061e-22)
(1.13715 -0.0110347 5.532e-22)
(1.13838 -0.00955316 2.15243e-22)
(1.1346 -0.0272834 1.82347e-22)
(1.13601 -0.0257884 2.16706e-23)
(1.13739 -0.0242696 -6.0984e-22)
(1.13875 -0.0227265 2.19662e-22)
(1.1401 -0.0211592 -7.41613e-23)
(1.14141 -0.0195673 -6.43799e-23)
(1.14272 -0.0179508 3.63172e-22)
(1.14398 -0.0163091 -4.0822e-23)
(1.14528 -0.0146442 -4.15612e-22)
(1.14648 -0.0129478 -8.56308e-22)
(1.14799 -0.0112424 8.63246e-23)
(1.14269 -0.031348 -3.11286e-22)
(1.14431 -0.02965 1.07864e-22)
(1.14591 -0.0279249 7.97961e-22)
(1.14749 -0.0261722 5.20061e-22)
(1.14906 -0.0243919 -5.8649e-22)
(1.15061 -0.0225835 -2.86769e-22)
(1.15215 -0.0207473 -3.06112e-22)
(1.15365 -0.018882 1.77861e-22)
(1.1552 -0.0169907 3.28703e-22)
(1.15664 -0.0150621 5.015e-22)
(1.15847 -0.0131264 -1.72741e-22)
(1.15133 -0.0357064 6.79417e-23)
(1.15319 -0.0337982 -9.11133e-22)
(1.15503 -0.0318594 7.14312e-24)
(1.15686 -0.0298898 -7.30127e-22)
(1.15867 -0.0278891 4.74055e-22)
(1.16047 -0.0258569 6.99819e-22)
(1.16228 -0.0237937 -1.06493e-22)
(1.16404 -0.0216975 -5.40363e-22)
(1.16588 -0.0195731 -2.81182e-22)
(1.16759 -0.0174042 3.24156e-22)
(1.16979 -0.0152335 -2.9976e-22)
(1.15834 -0.0424691 4.48377e-22)
(1.16047 -0.0403768 6.07499e-22)
(1.16259 -0.038251 -3.98615e-23)
(1.16469 -0.0360915 -1.0939e-21)
(1.16679 -0.0338978 -6.20996e-22)
(1.16888 -0.0316699 -5.15513e-22)
(1.17096 -0.0294072 8.7703e-22)
(1.17306 -0.0271104 1.20352e-21)
(1.17512 -0.0247766 4.43147e-22)
(1.17727 -0.0224136 3.72603e-23)
(1.17929 -0.0199973 -5.70245e-22)
(1.18188 -0.0175887 1.24215e-21)
(1.16766 -0.0476861 -2.71411e-22)
(1.17007 -0.0453719 -1.2134e-21)
(1.17247 -0.0430212 1.80365e-22)
(1.17486 -0.0406337 4.60816e-22)
(1.17726 -0.0382092 4.59171e-22)
(1.17965 -0.0357474 -6.18471e-22)
(1.18204 -0.0332478 -1.16535e-21)
(1.18445 -0.0307117 -2.32814e-22)
(1.18683 -0.0281345 5.78168e-22)
(1.18933 -0.0255286 1.24347e-21)
(1.19167 -0.0228587 -3.7763e-22)
(1.19471 -0.0202114 -1.73248e-21)
(1.17738 -0.0532407 7.98135e-22)
(1.18009 -0.0506971 2.35641e-22)
(1.1828 -0.0481143 4.85871e-22)
(1.1855 -0.0454919 -9.70882e-23)
(1.18821 -0.0428298 -6.34848e-22)
(1.19093 -0.040128 4.69095e-23)
(1.19365 -0.0373856 -1.90927e-22)
(1.1964 -0.0346051 -1.09035e-21)
(1.19912 -0.0317796 -1.9574e-21)
(1.202 -0.0289274 -2.63887e-21)
(1.20471 -0.0259993 2.69843e-21)
(1.20821 -0.0231143 4.79092e-23)
(1.18747 -0.0591324 1.20691e-21)
(1.1905 -0.0563511 -4.74926e-22)
(1.19353 -0.0535282 -4.21225e-22)
(1.19657 -0.0506636 1.02803e-22)
(1.19961 -0.047757 6.52265e-22)
(1.20268 -0.0448092 1.28878e-21)
(1.20575 -0.0418186 -8.26838e-22)
(1.20887 -0.0387895 1.51935e-21)
(1.21196 -0.0357116 -6.08751e-22)
(1.21524 -0.0326114 -7.36474e-22)
(1.21833 -0.0294217 -3.04489e-21)
(1.22235 -0.026302 -6.48731e-22)
(1.19789 -0.0653546 -9.37316e-22)
(1.20126 -0.0623261 8.05016e-22)
(1.20464 -0.0592544 1.43499e-21)
(1.20803 -0.0561394 7.96527e-22)
(1.21143 -0.0529811 -4.72151e-22)
(1.21486 -0.0497808 -1.97044e-21)
(1.2183 -0.0465362 3.15866e-21)
(1.22181 -0.0432543 -8.59933e-22)
(1.22528 -0.0399205 1.99428e-21)
(1.22898 -0.0365719 -1.50908e-21)
(1.23248 -0.0331189 2.09259e-21)
(1.23704 -0.0297695 1.94795e-21)
(1.20862 -0.0718892 -1.48986e-22)
(1.21234 -0.0686027 -1.06466e-21)
(1.21608 -0.0652723 -1.38892e-21)
(1.21984 -0.0618984 2.86667e-22)
(1.22361 -0.0584809 2.43669e-21)
(1.22742 -0.0550217 -1.42535e-21)
(1.23125 -0.051518 3.34936e-22)
(1.23516 -0.0479795 -4.75378e-21)
(1.23903 -0.0443865 -7.42247e-22)
(1.24318 -0.0407896 3.40093e-21)
(1.24709 -0.0370728 5.78263e-23)
(1.25222 -0.0335008 -4.02688e-21)
(1.21963 -0.0787097 5.94765e-23)
(1.22372 -0.075153 4.08592e-22)
(1.22783 -0.0715524 1.46193e-21)
(1.23196 -0.0679089 -1.13327e-21)
(1.23612 -0.064223 -2.59108e-21)
(1.24032 -0.0604979 1.28031e-21)
(1.24454 -0.0567302 1.0155e-21)
(1.24887 -0.0529326 6.97634e-21)
(1.25315 -0.0490795 3.90771e-22)
(1.25776 -0.045236 -3.45867e-21)
(1.2621 -0.0412568 6.10179e-22)
(1.26782 -0.0374707 -8.92488e-22)
(1.2309 -0.0857833 -2.76154e-22)
(1.23537 -0.0819414 2.73373e-22)
(1.23985 -0.0780576 -3.41079e-22)
(1.24437 -0.0741322 1.80154e-21)
(1.24891 -0.0701674 4.91721e-21)
(1.25351 -0.0661659 5.09774e-21)
(1.25813 -0.0621268 -7.77439e-21)
(1.26288 -0.0580651 1.19906e-21)
(1.26759 -0.0539523 4.20126e-21)
(1.27267 -0.0498664 8.59597e-21)
(1.27746 -0.0456319 -1.4051e-21)
(1.28379 -0.0416429 2.09543e-21)
(1.24242 -0.0930631 1.04175e-21)
(1.24726 -0.0889182 6.75728e-22)
(1.25213 -0.0847366 -2.37081e-21)
(1.25703 -0.0805165 -1.52326e-21)
(1.26197 -0.0762649 -1.9037e-21)
(1.26697 -0.0719784 4.52365e-22)
(1.272 -0.0676635 4.59025e-21)
(1.27717 -0.0633282 -4.00186e-21)
(1.28229 -0.0589539 -2.11047e-21)
(1.28785 -0.054621 -9.17357e-21)
(1.2931 -0.0501416 2.69773e-21)
(1.30005 -0.0459565 1.0144e-20)
(1.25417 -0.100496 2.0309e-21)
(1.25939 -0.0960247 -5.92732e-22)
(1.26464 -0.0915248 1.4066e-21)
(1.26992 -0.08699 8.08695e-22)
(1.27526 -0.0824401 -5.36692e-21)
(1.28066 -0.0778582 -1.00217e-20)
(1.28612 -0.0732739 7.18625e-21)
(1.29171 -0.0686623 6.30912e-22)
(1.2973 -0.0640412 -4.22804e-21)
(1.3033 -0.0594472 8.86572e-21)
(1.30901 -0.0547364 4.8247e-21)
(1.31654 -0.0503332 -2.7583e-21)
(1.26616 -0.108029 -6.15846e-22)
(1.27176 -0.103209 -1.26883e-21)
(1.27741 -0.0983704 -9.30829e-22)
(1.28305 -0.0934967 -1.66215e-21)
(1.2888 -0.0886283 -3.37627e-21)
(1.29455 -0.0837206 4.82834e-21)
(1.30047 -0.0788587 -1.30721e-20)
(1.30643 -0.0739482 -7.47783e-21)
(1.31256 -0.0691109 3.91231e-21)
(1.31892 -0.0642356 -9.12305e-21)
(1.32517 -0.0593408 -9.80719e-21)
(1.33302 -0.0546511 -1.2969e-20)
(1.27843 -0.115584 -3.50488e-21)
(1.28441 -0.11039 2.5464e-21)
(1.29046 -0.105197 2.48823e-21)
(1.29649 -0.0999749 -1.52846e-21)
(1.30268 -0.0947853 1.67593e-21)
(1.30875 -0.089532 6.57537e-21)
(1.31515 -0.0843794 1.91314e-20)
(1.32129 -0.0791008 1.60935e-20)
(1.32796 -0.0740402 -1.06246e-20)
(1.33434 -0.0687825 7.62676e-21)
(1.3412 -0.0637678 1.39721e-21)
(1.34872 -0.0586374 9.34348e-21)
(1.29104 -0.123085 1.30048e-21)
(1.29738 -0.117477 -5.79688e-21)
(1.30383 -0.11189 -9.76139e-21)
(1.31019 -0.106293 -6.63956e-21)
(1.31685 -0.100769 1.78746e-20)
(1.32318 -0.0951738 -7.93342e-21)
(1.33014 -0.0897539 -1.53149e-20)
(1.3362 -0.0840801 -9.35403e-21)
(1.34342 -0.0788016 4.05234e-21)
(1.34896 -0.0729689 2.1405e-21)
(1.35634 -0.067848 -8.928e-21)
(1.36196 -0.0619192 -8.56426e-21)
(1.30413 -0.130474 3.46749e-22)
(1.31082 -0.124405 1.22683e-21)
(1.3176 -0.118357 5.96629e-21)
(1.32418 -0.112316 -2.94785e-22)
(1.33112 -0.106356 -6.32547e-21)
(1.33742 -0.100346 -1.0753e-20)
(1.34472 -0.094582 2.67726e-21)
(1.3502 -0.0884963 -1.60865e-22)
(1.35793 -0.0830304 1.03763e-20)
(1.36139 -0.0765165 3.86402e-21)
(1.36913 -0.0713522 1.1177e-20)
(1.36986 -0.0640969 6.14354e-22)
(1.31773 -0.137641 3.99372e-21)
(1.3247 -0.131064 2.35854e-22)
(1.3317 -0.124504 1.64753e-20)
(1.33835 -0.117966 1.34092e-20)
(1.34524 -0.11146 -1.19471e-20)
(1.35104 -0.104925 4.88766e-21)
(1.35793 -0.0985553 -4.23921e-21)
(1.36171 -0.091885 3.93138e-21)
(1.369 -0.0859311 -5.53503e-21)
(1.36831 -0.0786106 5.48325e-21)
(1.37597 -0.0734028 -1.32978e-20)
(1.36728 -0.0643666 1.58978e-20)
(1.3316 -0.144311 -8.15848e-21)
(1.3386 -0.13713 6.05872e-21)
(1.34546 -0.129989 -1.39719e-20)
(1.35184 -0.122923 6.05458e-21)
(1.35815 -0.115853 2.25515e-20)
(1.36303 -0.108826 5.71288e-21)
(1.36849 -0.101733 9.80067e-21)
(1.36947 -0.0944457 -3.51068e-21)
(1.37412 -0.0874338 6.29871e-22)
(1.36614 -0.079114 -9.71834e-21)
(1.37126 -0.0731349 1.76976e-20)
(1.34651 -0.0619912 -9.14078e-21)
(1.34516 -0.150173 2.29105e-21)
(1.35167 -0.142209 -1.13091e-20)
(1.35772 -0.134321 7.8326e-22)
(1.36304 -0.126559 -2.03363e-20)
(1.36771 -0.118819 -1.31366e-20)
(1.37066 -0.111234 -7.27643e-21)
(1.37299 -0.103441 -3.32054e-23)
(1.37009 -0.0957467 -6.05595e-21)
(1.36904 -0.0875447 1.90471e-20)
(1.35141 -0.0787483 5.91819e-21)
(1.34885 -0.0708565 -1.26546e-20)
(1.29991 -0.0581897 -4.65787e-21)
(1.35755 -0.155192 7.53663e-21)
(1.36292 -0.146255 2.19475e-21)
(1.36731 -0.137384 -8.67427e-21)
(1.37038 -0.128596 1.53097e-20)
(1.37174 -0.119811 -1.68256e-20)
(1.37054 -0.111132 -5.74846e-21)
(1.3665 -0.102225 3.40688e-21)
(1.35665 -0.093624 -2.36039e-21)
(1.34438 -0.0841696 -2.48501e-20)
(1.31523 -0.0755691 -2.3943e-20)
(1.2971 -0.0655709 8.38308e-21)
(1.21958 -0.054905 -8.46306e-21)
(1.3676 -0.159169 -2.36816e-21)
(1.37103 -0.149114 -1.0853e-21)
(1.37267 -0.139051 4.64713e-21)
(1.3719 -0.128934 -9.59413e-21)
(1.36782 -0.118694 2.43485e-20)
(1.35933 -0.108311 1.87698e-20)
(1.34491 -0.097649 -1.21874e-20)
(1.32265 -0.0870223 1.42044e-20)
(1.2916 -0.0758212 1.48598e-20)
(1.24536 -0.0661376 6.51856e-21)
(1.19806 -0.0545452 2.66337e-21)
(1.09583 -0.0502345 2.29489e-20)
(1.10098 -0.000346877 0)
(1.10148 0.000130334 0)
(1.10047 0.000589951 0)
(1.09979 0.00107136 0)
(1.09686 0.00149792 0)
(1.09488 0.00189669 0)
(1.08982 0.00222068 0)
(1.08674 0.00241865 0)
(1.07993 0.00256056 0)
(1.07636 0.00237691 0)
(1.06921 0.00228964 0)
(1.06605 0.00153454 0)
(1.06151 0.00128696 0)
(1.05955 -4.04603e-05 0)
(1.06161 -0.000258195 0)
(1.06076 -0.00152188 0)
(1.07059 -0.00155281 0)
(1.07021 -0.00103313 0)
(1.0775 -0.000824219 0)
(1.0767 0.00204213 0)
(1.06264 0.00213372 0)
(1.06225 0.0047747 0)
(1.02455 0.00437054 0)
(1.02867 0.00539489 0)
(0.973986 0.00244633 0)
(1.00855 -0.0052627 0)
(1.02262 -0.00461478 0)
(1.05658 -0.00899357 0)
(1.11755 -0.00529477 0)
(1.11222 0.000468249 0)
(1.10267 -0.000995378 0)
(1.10319 0.000424043 0)
(1.10213 0.00179439 0)
(1.10137 0.00323373 0)
(1.0983 0.00450916 0)
(1.09616 0.0057084 0)
(1.09089 0.00667816 0)
(1.08758 0.00728306 0)
(1.08048 0.00770287 0)
(1.07662 0.00716777 0)
(1.06914 0.00689183 0)
(1.0657 0.00463526 0)
(1.06099 0.00386627 0)
(1.05885 -0.000138932 0)
(1.06124 -0.000828501 0)
(1.0604 -0.0046944 0)
(1.07141 -0.00482443 0)
(1.0713 -0.00325463 0)
(1.0796 -0.00260435 0)
(1.07902 0.00604923 0)
(1.06437 0.00640785 0)
(1.06391 0.0142573 0)
(1.02515 0.0131576 0)
(1.02827 0.0164818 0)
(0.969983 0.00751904 0)
(1.00576 -0.0159749 0)
(1.02188 -0.0138823 0)
(1.05699 -0.027072 0)
(1.12154 -0.0158686 0)
(1.1147 0.00154834 0)
(1.10583 -0.00163834 0)
(1.1064 0.00073344 0)
(1.10525 0.00303153 0)
(1.10434 0.00544379 0)
(1.10102 0.00758875 0)
(1.09859 0.00961254 0)
(1.09293 0.0112474 0)
(1.08917 0.0122905 0)
(1.08151 0.0129912 0)
(1.07706 0.0121291 0)
(1.069 0.0116362 0)
(1.06496 0.00786388 0)
(1.05998 0.00650133 0)
(1.05743 -0.000292053 0)
(1.06046 -0.00156129 0)
(1.05963 -0.00828009 0)
(1.0729 -0.00862051 0)
(1.07344 -0.00593283 0)
(1.08355 -0.00474394 0)
(1.08357 0.00992672 0)
(1.06758 0.0108021 0)
(1.06711 0.0237112 0)
(1.02636 0.0222172 0)
(1.02755 0.0285177 0)
(0.96244 0.0132086 0)
(0.999777 -0.0273174 0)
(1.02066 -0.0234119 0)
(1.05762 -0.0456555 0)
(1.12902 -0.0265474 0)
(1.11934 0.00301883 0)
(1.11036 -0.00227802 0)
(1.11099 0.00108285 0)
(1.10971 0.00435795 0)
(1.10858 0.0077839 0)
(1.10491 0.0108535 0)
(1.10206 0.0137495 0)
(1.09585 0.0161014 0)
(1.0914 0.0176286 0)
(1.08299 0.0186351 0)
(1.07761 0.0174592 0)
(1.06878 0.0167202 0)
(1.06373 0.0113655 0)
(1.05844 0.00929644 0)
(1.05516 -0.000502915 0)
(1.05914 -0.00254949 0)
(1.0583 -0.0125584 0)
(1.0749 -0.0133367 0)
(1.07667 -0.00934213 0)
(1.08917 -0.00746543 0)
(1.09039 0.0137184 0)
(1.07203 0.0155148 0)
(1.07186 0.0333001 0)
(1.02819 0.0318851 0)
(1.02663 0.0422112 0)
(0.951869 0.0200564 0)
(0.989424 -0.0397725 0)
(1.01907 -0.0336722 0)
(1.05795 -0.0653711 0)
(1.1394 -0.0376307 0)
(1.12587 0.00503738 0)
(1.11612 -0.00292308 0)
(1.11685 0.00148119 0)
(1.1154 0.00580657 0)
(1.114 0.0103093 0)
(1.1099 0.0143868 0)
(1.10649 0.0182247 0)
(1.09959 0.021375 0)
(1.09421 0.0234456 0)
(1.08487 0.0248075 0)
(1.07819 0.0233217 0)
(1.06844 0.0223187 0)
(1.06191 0.0152759 0)
(1.05631 0.0123529 0)
(1.05189 -0.00072892 0)
(1.05707 -0.00386668 0)
(1.05626 -0.0177657 0)
(1.07721 -0.0193795 0)
(1.08109 -0.0137054 0)
(1.09634 -0.0109752 0)
(1.0996 0.0174694 0)
(1.07756 0.020729 0)
(1.07822 0.0430922 0)
(1.03063 0.042418 0)
(1.0258 0.0581288 0)
(0.938986 0.028778 0)
(0.972752 -0.0535444 0)
(1.01618 -0.0452441 0)
(1.05657 -0.0867377 0)
(1.15158 -0.0493482 0)
(1.13388 0.00766521 0)
(1.12305 -0.00360127 0)
(1.12389 0.00191993 0)
(1.12226 0.00739113 0)
(1.12053 0.0130548 0)
(1.11592 0.0182486 0)
(1.11182 0.0231182 0)
(1.10411 0.027176 0)
(1.09756 0.0298615 0)
(1.08711 0.0316566 0)
(1.07874 0.0298538 0)
(1.06794 0.0285923 0)
(1.05939 0.0197253 0)
(1.05351 0.0157732 0)
(1.04748 -0.000879973 0)
(1.05395 -0.00555898 0)
(1.05328 -0.0241227 0)
(1.07964 -0.0271771 0)
(1.08685 -0.0192403 0)
(1.10506 -0.0154507 0)
(1.11126 0.0212293 0)
(1.08413 0.0266125 0)
(1.08616 0.0531064 0)
(1.03366 0.0539796 0)
(1.02559 0.0766116 0)
(0.924913 0.0403865 0)
(0.94716 -0.068267 0)
(1.00863 -0.0587533 0)
(1.04997 -0.110259 0)
(1.16333 -0.0620887 0)
(1.14257 0.0107807 0)
(1.13107 -0.00432859 0)
(1.13207 0.00239617 0)
(1.13024 0.00912283 0)
(1.12812 0.0160477 0)
(1.12294 0.0224848 0)
(1.11803 0.0284963 0)
(1.10939 0.0335931 0)
(1.10143 0.0369796 0)
(1.08969 0.0393099 0)
(1.07923 0.0371769 0)
(1.06723 0.0356894 0)
(1.05611 0.0248439 0)
(1.0499 0.0196664 0)
(1.04179 -0.000818841 0)
(1.04943 -0.007634 0)
(1.04911 -0.0318539 0)
(1.08201 -0.0371937 0)
(1.09411 -0.0261796 0)
(1.11545 -0.0210004 0)
(1.12532 0.0250511 0)
(1.09196 0.0333272 0)
(1.09544 0.0633544 0)
(1.03727 0.0665804 0)
(1.02671 0.0976436 0)
(0.911242 0.0563184 0)
(0.910602 -0.0824899 0)
(0.99064 -0.074528 0)
(1.03199 -0.136623 0)
(1.17058 -0.0767346 0)
(1.15048 0.013969 0)
(1.14014 -0.00513389 0)
(1.14132 0.0028934 0)
(1.1393 0.0109987 0)
(1.13673 0.0193012 0)
(1.13094 0.0271224 0)
(1.12509 0.0344088 0)
(1.1154 0.0406921 0)
(1.1058 0.0448865 0)
(1.09254 0.0478713 0)
(1.07966 0.0453956 0)
(1.06623 0.0437464 0)
(1.05204 0.0307522 0)
(1.04537 0.0241556 0)
(1.03472 -0.000342511 0)
(1.0431 -0.0100383 0)
(1.04337 -0.0412054 0)
(1.08414 -0.0499283 0)
(1.10308 -0.0347717 0)
(1.12773 -0.0276762 0)
(1.1416 0.0289595 0)
(1.10145 0.0410345 0)
(1.10553 0.0739154 0)
(1.0416 0.0799816 0)
(1.02986 0.120839 0)
(0.899593 0.0780561 0)
(0.864801 -0.0936145 0)
(0.95787 -0.0919593 0)
(0.996559 -0.166524 0)
(1.16829 -0.0947457 0)
(1.15552 0.0164782 0)
(1.1502 -0.00604276 0)
(1.1516 0.00339538 0)
(1.14939 0.0130103 0)
(1.14633 0.0228205 0)
(1.13989 0.0321761 0)
(1.133 0.0408946 0)
(1.12213 0.0485226 0)
(1.11068 0.0536595 0)
(1.09565 0.0574225 0)
(1.08005 0.0546036 0)
(1.06488 0.0528819 0)
(1.04716 0.0375593 0)
(1.03981 0.0293739 0)
(1.02617 0.000781692 0)
(1.03451 -0.0126354 0)
(1.03557 -0.052454 0)
(1.08594 -0.0659395 0)
(1.11395 -0.0452946 0)
(1.14215 -0.0354492 0)
(1.15991 0.0329485 0)
(1.11306 0.049923 0)
(1.1157 0.0849234 0)
(1.04716 0.0937482 0)
(1.03506 0.145513 0)
(0.89096 0.106289 0)
(0.8182 -0.0990708 0)
(0.913344 -0.109278 0)
(0.943746 -0.199893 0)
(1.15338 -0.117731 0)
(1.15583 0.0173518 0)
(1.16122 -0.00708314 0)
(1.16287 0.00387972 0)
(1.16049 0.0151388 0)
(1.1569 0.0265972 0)
(1.14978 0.0376473 0)
(1.14175 0.0479787 0)
(1.12957 0.0571183 0)
(1.11607 0.063365 0)
(1.09898 0.0680207 0)
(1.08042 0.0648833 0)
(1.0631 0.0631933 0)
(1.04153 0.0453538 0)
(1.03315 0.0354646 0)
(1.01614 0.00284206 0)
(1.02318 -0.0151665 0)
(1.02505 -0.0659318 0)
(1.08743 -0.085856 0)
(1.12684 -0.0580536 0)
(1.15913 -0.0441753 0)
(1.18008 0.0370477 0)
(1.12702 0.0602313 0)
(1.12532 0.0964911 0)
(1.05464 0.107387 0)
(1.04138 0.171005 0)
(0.886175 0.139959 0)
(0.782789 -0.0977375 0)
(0.867546 -0.124159 0)
(0.881942 -0.23536 0)
(1.12706 -0.146465 0)
(1.15078 0.0158426 0)
(1.17316 -0.00828227 0)
(1.1751 0.00432165 0)
(1.17256 0.0173622 0)
(1.16841 0.0306149 0)
(1.16062 0.0435302 0)
(1.15134 0.0556745 0)
(1.13775 0.0665026 0)
(1.12199 0.0740599 0)
(1.10252 0.0797011 0)
(1.08081 0.0763075 0)
(1.06084 0.0747488 0)
(1.03522 0.0541974 0)
(1.02533 0.0425674 0)
(1.00475 0.00620729 0)
(1.0085 -0.0172183 0)
(1.0111 -0.0820651 0)
(1.08866 -0.110332 0)
(1.14172 -0.0733683 0)
(1.17919 -0.0537645 0)
(1.20199 0.0413572 0)
(1.14316 0.0721823 0)
(1.13429 0.108635 0)
(1.06429 0.120584 0)
(1.04743 0.196835 0)
(0.886486 0.17666 0)
(0.765825 -0.0900129 0)
(0.830712 -0.13442 0)
(0.822334 -0.270528 0)
(1.09359 -0.18034 0)
(1.14105 0.0117233 0)
(1.18596 -0.00966612 0)
(1.18825 0.00469335 0)
(1.18557 0.0196512 0)
(1.18086 0.0348449 0)
(1.17239 0.0498093 0)
(1.16177 0.0639829 0)
(1.14669 0.0766917 0)
(1.12842 0.0857911 0)
(1.10626 0.0924794 0)
(1.08124 0.0889381 0)
(1.05809 0.0875815 0)
(1.02829 0.0641341 0)
(1.01639 0.0507639 0)
(0.992223 0.0113223 0)
(0.989828 -0.0182519 0)
(0.993015 -0.101369 0)
(1.08935 -0.139994 0)
(1.15829 -0.0916337 0)
(1.20282 -0.0641397 0)
(1.22552 0.0461451 0)
(1.16094 0.0858934 0)
(1.14306 0.121306 0)
(1.07553 0.133387 0)