/*--------------------------------*- C++ -*----------------------------------*\
  =========                 |
  \\      /  F ield         | OpenFOAM: The Open Source CFD Toolbox
   \\    /   O peration     | Website:  https://openfoam.org
    \\  /    A nd           | Version:  7
     \\/     M anipulation  |
\*---------------------------------------------------------------------------*/
FoamFile
{
    version     2.0;
    format      ascii;
    class       volScalarField;
    location    "315";
    object      p;
}
// * * * * * * * * * * * * * * * * * * * * * * * * * * * * * * * * * * * * * //

dimensions      [0 2 -2 0 0 0 0];

internalField   nonuniform List<scalar> 
2125
(
-0.394944
-0.397406
-0.398246
-0.398995
-0.400072
-0.401706
-0.404047
-0.407298
-0.411619
-0.417494
-0.395491
-0.398628
-0.399799
-0.400844
-0.402163
-0.403922
-0.406189
-0.409049
-0.412475
-0.416786
-0.39648
-0.400228
-0.401714
-0.40305
-0.40461
-0.406488
-0.408665
-0.411093
-0.413527
-0.416069
-0.398023
-0.402297
-0.404077
-0.405702
-0.407506
-0.40951
-0.411593
-0.413569
-0.414944
-0.415555
-0.400216
-0.404907
-0.406959
-0.408867
-0.410922
-0.413067
-0.415068
-0.416588
-0.416866
-0.415403
-0.403123
-0.40811
-0.410403
-0.412589
-0.414904
-0.417208
-0.419144
-0.420218
-0.419391
-0.415699
-0.406778
-0.411925
-0.414425
-0.416878
-0.419461
-0.421944
-0.42384
-0.424481
-0.42257
-0.416447
-0.411176
-0.416338
-0.419003
-0.421707
-0.42456
-0.427244
-0.429122
-0.429347
-0.426414
-0.417569
-0.416268
-0.421301
-0.424083
-0.427014
-0.430131
-0.433029
-0.434913
-0.434728
-0.430889
-0.418928
-0.421973
-0.426733
-0.429575
-0.432695
-0.436057
-0.439174
-0.441078
-0.44047
-0.435911
-0.420321
-0.428173
-0.432525
-0.435363
-0.438619
-0.442189
-0.445507
-0.447439
-0.446365
-0.441349
-0.421366
-0.43473
-0.438553
-0.441309
-0.444631
-0.448344
-0.451822
-0.453766
-0.452161
-0.447184
-0.421529
-0.44149
-0.444683
-0.447271
-0.450564
-0.454332
-0.457885
-0.459791
-0.457579
-0.453235
-0.421407
-0.448305
-0.450788
-0.453115
-0.456263
-0.459956
-0.463457
-0.465253
-0.462465
-0.457112
-0.422387
-0.455039
-0.45676
-0.458725
-0.461595
-0.46506
-0.468343
-0.469861
-0.466703
-0.460034
-0.422897
-0.461586
-0.462517
-0.464018
-0.466465
-0.469538
-0.472424
-0.473436
-0.469788
-0.461785
-0.422888
-0.467882
-0.468011
-0.468956
-0.470836
-0.473338
-0.475631
-0.475915
-0.471627
-0.461936
-0.42227
-0.473899
-0.473238
-0.473541
-0.47472
-0.476489
-0.478003
-0.477332
-0.472271
-0.460179
-0.42062
-0.479659
-0.478231
-0.477819
-0.478184
-0.479081
-0.479656
-0.477829
-0.471828
-0.456465
-0.418148
-0.485229
-0.483056
-0.481876
-0.481337
-0.481252
-0.480753
-0.477619
-0.470392
-0.451406
-0.417796
-0.490711
-0.487806
-0.485823
-0.484322
-0.48317
-0.481478
-0.476916
-0.468063
-0.44643
-0.422528
-0.496229
-0.492593
-0.489786
-0.487288
-0.485007
-0.482009
-0.475892
-0.465105
-0.442301
-0.418788
-0.501925
-0.497541
-0.493899
-0.490386
-0.486924
-0.482495
-0.474662
-0.461781
-0.437869
-0.41275
-0.502766
-0.498288
-0.49375
-0.489048
-0.48305
-0.473319
-0.458207
-0.433034
-0.406172
-0.503061
-0.497487
-0.491467
-0.48374
-0.471918
-0.454438
-0.42789
-0.399262
-0.508305
-0.501668
-0.494222
-0.48459
-0.470471
-0.450514
-0.422468
-0.392395
-0.506327
-0.497319
-0.48558
-0.468951
-0.446436
-0.416854
-0.385568
-0.500724
-0.486649
-0.467304
-0.442197
-0.411087
-0.3788
-0.46546
-0.437772
-0.405187
-0.372043
-0.433123
-0.399144
-0.365242
-0.392922
-0.358327
-0.432373
-0.458933
-0.499926
-0.5348
-0.54093
-0.481514
-0.383738
-0.288932
-0.227101
-0.203331
-0.214216
-0.230792
-0.21754
-0.170178
-0.119637
-0.0990793
-0.0815533
-0.0905734
-0.0978264
-0.092234
-0.0853196
-0.083622
-0.0612426
-0.0531107
-0.0493839
-0.0562414
-0.0583198
-0.0516749
-0.0125923
-0.00444811
-0.428159
-0.448144
-0.481375
-0.509262
-0.512767
-0.456129
-0.366639
-0.280645
-0.226324
-0.209838
-0.22642
-0.245691
-0.229
-0.17724
-0.122398
-0.0984801
-0.0791629
-0.0859925
-0.0912634
-0.0864409
-0.0827786
-0.0823447
-0.0608875
-0.053384
-0.0499421
-0.057141
-0.0582681
-0.051501
-0.0129709
-0.00480149
-0.424002
-0.436728
-0.461257
-0.481427
-0.481881
-0.428328
-0.347588
-0.270731
-0.224214
-0.215417
-0.238097
-0.259744
-0.239496
-0.18362
-0.124881
-0.0977906
-0.0768613
-0.0816078
-0.0849836
-0.0807001
-0.080179
-0.0809742
-0.0605159
-0.0536556
-0.050537
-0.0580504
-0.0581965
-0.0513085
-0.0133801
-0.00519604
-0.420285
-0.425236
-0.440266
-0.451886
-0.448812
-0.398325
-0.326634
-0.259027
-0.220582
-0.219837
-0.249113
-0.272759
-0.248982
-0.189313
-0.127098
-0.0970379
-0.0746693
-0.0774603
-0.0790377
-0.0750594
-0.0775358
-0.0795175
-0.0601299
-0.0539233
-0.0511657
-0.0589623
-0.0581036
-0.0510956
-0.0138173
-0.0056282
-0.417321
-0.414188
-0.419114
-0.421298
-0.413877
-0.366325
-0.303759
-0.245385
-0.215262
-0.222892
-0.259302
-0.284567
-0.25742
-0.194321
-0.129062
-0.0962467
-0.0726017
-0.0735813
-0.0734673
-0.069569
-0.0748656
-0.0779827
-0.0597317
-0.0541848
-0.0518252
-0.0598695
-0.057988
-0.0508601
-0.0142792
-0.00609383
-0.415314
-0.40399
-0.39845
-0.390443
-0.377708
-0.332848
-0.278937
-0.229694
-0.208113
-0.224403
-0.268466
-0.295032
-0.26478
-0.198652
-0.130785
-0.0954392
-0.0706674
-0.0699913
-0.0683048
-0.0642799
-0.0721867
-0.0763786
-0.059323
-0.0544376
-0.0525123
-0.0607645
-0.0578484
-0.0505996
-0.0147625
-0.00658828
-0.41437
-0.394975
-0.3789
-0.360097
-0.341381
-0.298386
-0.252206
-0.211913
-0.199024
-0.224225
-0.276383
-0.304037
-0.271044
-0.202317
-0.132282
-0.0946349
-0.0688711
-0.0667
-0.0635735
-0.0592399
-0.0695195
-0.0747147
-0.0589053
-0.0546793
-0.0532235
-0.06164
-0.0576832
-0.0503119
-0.0152631
-0.00710637
-0.414493
-0.38737
-0.361011
-0.330987
-0.305649
-0.263442
-0.223682
-0.192076
-0.18792
-0.222255
-0.282818
-0.311504
-0.276209
-0.205334
-0.133565
-0.0938507
-0.0672134
-0.0637066
-0.0592877
-0.0545033
-0.0668866
-0.0730009
-0.05848
-0.0549071
-0.053955
-0.0624887
-0.057491
-0.0499944
-0.0157765
-0.00764243
-0.415577
-0.381277
-0.345206
-0.30378
-0.271135
-0.229029
-0.193388
-0.170301
-0.174791
-0.218441
-0.287561
-0.317519
-0.280276
-0.20772
-0.134644
-0.0931006
-0.0656922
-0.061001
-0.0554522
-0.0501083
-0.0643119
-0.0712477
-0.0580482
-0.0551183
-0.0547023
-0.0633034
-0.0572704
-0.049645
-0.0162981
-0.00819038
-0.41744
-0.376664
-0.331763
-0.27907
-0.238464
-0.195319
-0.16237
-0.146802
-0.159715
-0.212781
-0.290435
-0.32208
-0.283249
-0.209499
-0.13553
-0.0923959
-0.0643031
-0.0585652
-0.0520631
-0.0460846
-0.0618206
-0.0694652
-0.0576108
-0.0553104
-0.0554612
-0.0640772
-0.0570201
-0.0492613
-0.0168226
-0.0087438
-0.419886
-0.373396
-0.320798
-0.257342
-0.208214
-0.162062
-0.131464
-0.1219
-0.142874
-0.205331
-0.291314
-0.3248
-0.285132
-0.210691
-0.136231
-0.0917457
-0.0630406
-0.0563759
-0.0491079
-0.0424532
-0.0594376
-0.0676633
-0.0571687
-0.0554806
-0.0562266
-0.0648034
-0.0567388
-0.0488413
-0.0173446
-0.0092961
-0.422705
-0.371183
-0.312287
-0.23893
-0.181005
-0.140164
-0.10159
-0.0960802
-0.124562
-0.196196
-0.29014
-0.325773
-0.285937
-0.211325
-0.136758
-0.0911598
-0.0618999
-0.0544071
-0.0465655
-0.0392227
-0.057188
-0.0658512
-0.0567225
-0.0556264
-0.0569934
-0.0654756
-0.0564251
-0.0483833
-0.0178589
-0.00984059
-0.425039
-0.369506
-0.306202
-0.224032
-0.157186
-0.109414
-0.0734482
-0.0699724
-0.105171
-0.185534
-0.286917
-0.325019
-0.285686
-0.211431
-0.137124
-0.0906474
-0.0608767
-0.0526318
-0.0444065
-0.0363919
-0.0550961
-0.0640368
-0.0562726
-0.0557453
-0.0577564
-0.0660876
-0.056078
-0.0478855
-0.0183597
-0.0103708
-0.426048
-0.368525
-0.302439
-0.212715
-0.137558
-0.083566
-0.047864
-0.0443849
-0.0851758
-0.173542
-0.281709
-0.322579
-0.284404
-0.211032
-0.137331
-0.0902047
-0.0599609
-0.0510215
-0.0425897
-0.0339522
-0.0531834
-0.0622264
-0.0558193
-0.0558347
-0.0585101
-0.0666337
-0.0556965
-0.0473466
-0.0188409
-0.0108804
-0.426387
-0.369158
-0.298929
-0.204755
-0.122336
-0.0625878
-0.025596
-0.0202385
-0.0651057
-0.160454
-0.274639
-0.318514
-0.282116
-0.210131
-0.13735
-0.0897983
-0.0591293
-0.0495472
-0.0410611
-0.0318825
-0.051467
-0.0604243
-0.0553626
-0.0558923
-0.059249
-0.0671103
-0.0552801
-0.0467661
-0.0192961
-0.0113636
-0.425939
-0.369426
-0.297202
-0.200055
-0.111145
-0.0473162
-0.00645812
0.00159827
-0.0455045
-0.146524
-0.265878
-0.312933
-0.278868
-0.208724
-0.137153
-0.0894067
-0.0583687
-0.0481924
-0.0397747
-0.0301547
-0.0499535
-0.0586318
-0.0549022
-0.0559155
-0.0599679
-0.0675151
-0.0548281
-0.0461441
-0.0197218
-0.0118149
-0.424582
-0.369193
-0.296374
-0.198376
-0.104848
-0.035906
0.00817816
0.0204102
-0.0268929
-0.132018
-0.25564
-0.305993
-0.274769
-0.206958
-0.136904
-0.0891694
-0.0577514
-0.0469776
-0.0387361
-0.0287688
-0.0486456
-0.0568455
-0.0544376
-0.0559019
-0.0606604
-0.0678339
-0.0543358
-0.045479
-0.0201225
-0.0122308
-0.422328
-0.368563
-0.29641
-0.199248
-0.102702
-0.0293199
0.0183102
0.0356515
-0.00971029
-0.117202
-0.244125
-0.297537
-0.269868
-0.20518
-0.136988
-0.0893839
-0.0574261
-0.0459351
-0.0379655
-0.0277796
-0.0476198
-0.0550612
-0.0539674
-0.0558474
-0.0613097
-0.0680209
-0.0537957
-0.0447673
-0.0205044
-0.0126091
-0.419952
-0.36821
-0.298082
-0.203512
-0.10547
-0.0279616
0.02429
0.046786
0.00571321
-0.102139
-0.231052
-0.286898
-0.263807
-0.203116
-0.137076
-0.0897177
-0.0571967
-0.0449438
-0.037233
-0.0271086
-0.0470333
-0.0532921
-0.0534935
-0.0557458
-0.061895
-0.0680717
-0.0532215
-0.0440156
-0.0208354
-0.0129387
-0.415707
-0.365
-0.297063
-0.206207
-0.108628
-0.0291784
0.019937
0.0541422
0.017846
-0.0878453
-0.217617
-0.276416
-0.256224
-0.198532
-0.134699
-0.0881615
-0.0559759
-0.0436094
-0.0358529
-0.0261508
-0.0461734
-0.051402
-0.0530131
-0.0556439
-0.0625986
-0.0683099
-0.0526854
-0.0432578
-0.0210013
-0.013187
-0.398101
-0.353111
-0.285327
-0.196498
-0.10022
-0.0206864
0.0341643
0.0634341
0.0298412
-0.078058
-0.212256
-0.271357
-0.247996
-0.190364
-0.128715
-0.0837158
-0.0531063
-0.0416918
-0.033338
-0.0238667
-0.0414179
-0.0476263
-0.0521702
-0.0559798
-0.0643613
-0.069518
-0.0521196
-0.0423791
-0.0209567
-0.0134315
-0.374503
-0.331685
-0.265581
-0.182732
-0.0926348
-0.0175413
0.0332764
0.0621577
0.0312299
-0.0716125
-0.199757
-0.254957
-0.231535
-0.177559
-0.120634
-0.0788532
-0.050354
-0.0391973
-0.0310018
-0.0237119
-0.0405154
-0.0460502
-0.0515072
-0.0558892
-0.0648086
-0.0700065
-0.0506292
-0.0409116
-0.0209576
-0.0140844
-0.350485
-0.309627
-0.246528
-0.170707
-0.0881453
-0.0182004
0.0292909
0.0550095
0.0254063
-0.0693167
-0.186
-0.236134
-0.213782
-0.164459
-0.11255
-0.0739436
-0.0474677
-0.0366521
-0.0287748
-0.0237865
-0.0396428
-0.0454719
-0.050931
-0.0554989
-0.0646688
-0.070063
-0.0489033
-0.0392161
-0.020917
-0.014798
-0.32657
-0.288183
-0.229054
-0.16065
-0.0863133
-0.0219855
0.0215854
0.0443786
0.0171976
-0.0676032
-0.171014
-0.215584
-0.195162
-0.150881
-0.104157
-0.0688582
-0.0444631
-0.034017
-0.0265802
-0.0238833
-0.0386689
-0.0448171
-0.0502845
-0.0550492
-0.0644855
-0.0697852
-0.0469896
-0.037219
-0.0208022
-0.0154938
-0.302512
-0.267499
-0.213081
-0.152024
-0.0861736
-0.0287232
0.0114566
0.031657
0.00808018
-0.065338
-0.15459
-0.193598
-0.176041
-0.137164
-0.0956484
-0.063651
-0.041337
-0.0312737
-0.0243327
-0.0239791
-0.0377408
-0.0440058
-0.0496014
-0.0546215
-0.0641938
-0.0690718
-0.0448334
-0.034908
-0.0205721
-0.0161661
-0.278609
-0.247707
-0.198472
-0.144406
-0.08679
-0.0355587
0.000447937
0.0182895
-0.00103844
-0.0623578
-0.137306
-0.171104
-0.157058
-0.12364
-0.0871439
-0.0583562
-0.0380835
-0.0284005
-0.0219687
-0.0239916
-0.036854
-0.0431894
-0.0489014
-0.0541399
-0.0636185
-0.0678372
-0.0424032
-0.0322604
-0.0201819
-0.0167981
-0.255482
-0.228879
-0.185044
-0.137477
-0.087545
-0.0423821
-0.010343
0.00547881
-0.00938308
-0.058861
-0.120076
-0.149212
-0.138807
-0.110589
-0.0787669
-0.053016
-0.0346975
-0.0253762
-0.0194134
-0.0238048
-0.0359241
-0.0424031
-0.0481028
-0.0534964
-0.0626615
-0.0660094
-0.0396696
-0.0292587
-0.0195826
-0.0173565
-0.233469
-0.211006
-0.172585
-0.13099
-0.0880267
-0.0486021
-0.020213
-0.00602365
-0.016585
-0.0552767
-0.104235
-0.128893
-0.121751
-0.0982191
-0.0706165
-0.0476671
-0.0311725
-0.0221777
-0.0165826
-0.0232781
-0.0348036
-0.0415388
-0.0470582
-0.0526138
-0.0612414
-0.0635126
-0.0366031
-0.0258868
-0.0187196
-0.0177977
-0.212721
-0.19431
-0.160916
-0.124761
-0.087978
-0.053854
-0.0287734
-0.0158794
-0.0226404
-0.0519944
-0.0903075
-0.110756
-0.106169
-0.0866595
-0.0627672
-0.0423447
-0.0275025
-0.0187814
-0.0133827
-0.0222311
-0.0332718
-0.0403885
-0.0455946
-0.0514145
-0.0592517
-0.0602715
-0.0331771
-0.0221334
-0.0175334
-0.0180706
-0.193289
-0.178334
-0.149881
-0.118665
-0.087295
-0.0579605
-0.0358758
-0.0240385
-0.0276578
-0.0492109
-0.0785384
-0.0950081
-0.0921632
-0.0759714
-0.0552719
-0.0370825
-0.0236843
-0.0151631
-0.00972096
-0.020423
-0.0310105
-0.0386566
-0.0435077
-0.0497835
-0.0565712
-0.0562216
-0.0293716
-0.0179943
-0.0159612
-0.0181156
-0.175193
-0.163271
-0.139327
-0.112619
-0.0859618
-0.0608887
-0.0415149
-0.0305806
-0.0317206
-0.0469133
-0.068785
-0.0815612
-0.0797146
-0.0661703
-0.0481664
-0.0319148
-0.0197213
-0.0113001
-0.00552238
-0.0175485
-0.0275766
-0.0359352
-0.0405515
-0.0475677
-0.0530862
-0.0513183
-0.0251763
-0.0134745
-0.0139399
-0.0178657
-0.158396
-0.149093
-0.129206
-0.106567
-0.0840046
-0.0626821
-0.0457534
-0.0356291
-0.0348765
-0.0449836
-0.0607578
-0.0701821
-0.0687346
-0.0572436
-0.0414747
-0.0268764
-0.015627
-0.00718192
-0.000745901
-0.0132708
-0.0224065
-0.0316733
-0.0364641
-0.0445925
-0.0487081
-0.0455498
-0.0205958
-0.00859184
-0.0114105
-0.0172482
-0.142848
-0.135776
-0.119477
-0.100476
-0.0814738
-0.0634237
-0.0486909
-0.0393202
-0.0371666
-0.043389
-0.0541416
-0.060588
-0.0591007
-0.0491623
-0.0352131
-0.0220031
-0.0114277
-0.00282573
0.00459925
-0.00727307
-0.0149062
-0.0251931
-0.031031
-0.0406865
-0.0433909
-0.0389477
-0.0156547
-0.00338105
-0.00832469
-0.0161887
-0.128492
-0.123293
-0.110121
-0.0943446
-0.0784339
-0.0632197
-0.050448
-0.0417957
-0.0386357
-0.0417906
-0.0486232
-0.0524981
-0.0506802
-0.0418876
-0.0293921
-0.0173307
-0.00716836
0.00171355
0.0104205
0.000671126
-0.00455823
-0.0157996
-0.02417
-0.0357179
-0.0371478
-0.0315972
-0.0104026
0.00209936
-0.00465465
-0.0146183
-0.115267
-0.111621
-0.101139
-0.0881912
-0.0749581
-0.0621892
-0.0511585
-0.0432019
-0.0393599
-0.0401868
-0.0439461
-0.0456585
-0.0433412
-0.0353731
-0.0240177
-0.0128917
-0.0029211
0.00634575
0.0165102
0.0105143
0.00887744
-0.00302703
-0.0160249
-0.0296426
-0.029944
-0.0236514
-0.00491679
0.00775964
-0.000407158
-0.0124831
-0.103116
-0.100738
-0.0925419
-0.0820483
-0.0711262
-0.0604582
-0.0509645
-0.0436863
-0.0394208
-0.038525
-0.0399095
-0.0398495
-0.0369583
-0.0295658
-0.0190933
-0.00871053
0.00121491
0.0109515
0.0225609
0.0216595
0.024923
0.0129255
-0.00703265
-0.0225426
-0.022162
-0.0153363
0.000697037
0.0134806
0.00435725
-0.00975914
-0.0919802
-0.0906228
-0.0843462
-0.0759597
-0.0670233
-0.0581534
-0.0500108
-0.0433944
-0.0389092
-0.0367756
-0.0363594
-0.0348849
-0.0314151
-0.0244083
-0.0146204
-0.00480474
0.00513426
0.0153818
0.0282317
0.0328325
0.0415041
0.030523
0.00223457
-0.0145719
-0.0140025
-0.00693487
0.00630635
0.0191228
0.00950946
-0.00647262
-0.0818071
-0.0812564
-0.0765731
-0.0699759
-0.0627363
-0.0554008
-0.048439
-0.042461
-0.0379147
-0.0349296
-0.0331804
-0.0306089
-0.0266052
-0.0198419
-0.0105973
-0.00119336
0.00874735
0.019466
0.0332073
0.0424747
0.0554058
0.0468408
0.0114715
-0.00591999
-0.00576862
0.00123247
0.0117585
0.0245248
0.0148431
-0.0027203
-0.0725455
-0.0726199
-0.0692444
-0.0641506
-0.0583515
-0.052322
-0.046392
-0.041005
-0.0365236
-0.0329935
-0.0302893
-0.0268941
-0.022433
-0.0158119
-0.00701655
0.00209741
0.0119816
0.023033
0.0372084
0.0495172
0.0645054
0.0591464
0.020663
0.0030752
0.00218288
0.00885312
0.0168823
0.0294878
0.0200665
0.00131346
-0.0641484
-0.064696
-0.0623815
-0.0585376
-0.0539535
-0.0490315
-0.0439986
-0.0391741
-0.0348318
-0.030988
-0.0276282
-0.0236388
-0.0188143
-0.0122703
-0.00386356
0.00503557
0.0147826
0.0259464
0.0400514
0.0536122
0.0682895
0.0663241
0.0294507
0.0118141
0.00950644
0.0156711
0.0215087
0.0337699
0.0248109
0.0053477
-0.0565729
-0.0574688
-0.0560048
-0.0531894
-0.0496221
-0.0456342
-0.0413754
-0.0370754
-0.0329307
-0.0289429
-0.0251607
-0.0207656
-0.0156761
-0.00917648
-0.00111718
0.00759272
0.0171237
0.0281534
0.0417435
0.0551903
0.0683541
0.0689803
0.0369962
0.0196464
0.0159401
0.0215192
0.025524
0.0371196
0.028683
0.0090232
-0.0497809
-0.0509243
-0.0501338
-0.0481558
-0.0454322
-0.0422274
-0.0386334
-0.0348131
-0.0309029
-0.0268937
-0.0228672
-0.0182181
-0.0129567
-0.00649589
0.00124795
0.00975621
0.0190068
0.0296849
0.0424368
0.0550245
0.066393
0.0684821
0.0426177
0.026185
0.0213799
0.0263282
0.0288757
0.0393562
0.0313636
0.0119812
-0.0437403
-0.0450515
-0.0447873
-0.0434837
-0.0414535
-0.0389
-0.0358706
-0.0324845
-0.0288267
-0.0248806
-0.0207416
-0.0159578
-0.0106058
-0.00419719
0.00325838
0.0115354
0.0204595
0.0306268
0.0423607
0.0536137
0.0634892
0.06616
0.0462268
0.0313445
0.0258731
0.0301101
0.0315587
0.0404003
0.0327106
0.0139735
-0.0384255
-0.0398431
-0.0399843
-0.0392176
-0.0377512
-0.0357349
-0.0331846
-0.0301802
-0.026776
-0.0229469
-0.0187885
-0.0139611
-0.00858392
-0.00225052
0.00494154
0.0129579
0.0215269
0.0310979
0.0417789
0.0517484
0.0602702
0.0630264
0.048203
0.0352558
0.0295202
0.0329359
0.0336125
0.0403091
0.0324544
0.0149735
-0.0338188
-0.0352974
-0.0357456
-0.0354003
-0.0343865
-0.032807
-0.0306553
-0.0279833
-0.0248209
-0.0211378
-0.0170215
-0.0122156
-0.00686207
-0.000627107
0.00632504
0.014063
0.0222658
0.0312248
0.0409068
0.0497872
0.0571066
0.0597415
0.049025
0.038119
0.0324257
0.0349271
0.0351044
0.0393853
0.0315515
0.0151961
-0.0299123
-0.0314194
-0.0320954
-0.032075
-0.031418
-0.0301875
-0.0283618
-0.0259713
-0.0230285
-0.0195003
-0.0154616
-0.0107187
-0.00542098
0.000699371
0.00743547
0.0148955
0.0227395
0.0311242
0.0399109
0.0479001
0.0542298
0.0566931
0.0491172
0.0401322
0.0346866
0.0362419
0.0361064
0.0380322
0.0302006
0.0149226
-0.0267084
-0.0282233
-0.0290636
-0.0292872
-0.028904
-0.0279448
-0.0263776
-0.0242172
-0.0214636
-0.0180828
-0.014136
-0.00947625
-0.00425057
0.00175067
0.00829765
0.0154999
0.0230128
0.0308978
0.0389265
0.0462017
0.0517816
0.0540907
0.0488146
0.0414774
0.0363877
0.0370512
0.0366978
0.0365972
0.0287259
0.014397
-0.0242253
-0.0257362
-0.0266897
-0.0270885
-0.0269058
-0.0261475
-0.0247745
-0.0227915
-0.02019
-0.0169355
-0.0130773
-0.00850203
-0.00334968
0.00254184
0.00893267
0.0159166
0.0231486
0.0306337
0.0380659
0.0447992
0.0498503
0.0520432
0.0483681
0.0423178
0.0376002
0.0375139
0.0369787
0.0353391
0.0273594
0.0138089
-0.0224989
-0.0240018
-0.0250268
-0.0255402
-0.0254913
-0.0248681
-0.0236273
-0.0217663
-0.0192727
-0.0161121
-0.0123244
-0.00781836
-0.00272663
0.00307891
0.0093553
0.0161778
0.0232017
0.0304039
0.037421
0.0437843
0.0485
0.0506161
0.0479595
0.0427913
0.0383804
0.0377559
0.0370681
0.0344128
0.0262956
0.0133095
-0.0215831
-0.0230828
-0.0241436
-0.0247151
-0.0247348
-0.0241815
-0.02301
-0.0212135
-0.0187779
-0.0156686
-0.0119213
-0.00745566
-0.00239899
0.00335694
0.00957174
0.0163044
0.023216
0.0302657
0.0370663
0.0432351
0.0477898
0.0498659
0.0477181
0.0430055
0.0387629
0.0378544
0.0370812
0.0339149
0.0256871
0.0130183
-0.321438
-0.328317
-0.33493
-0.34132
-0.347528
-0.353608
-0.359603
-0.365672
-0.371793
-0.37912
-0.386557
-0.403051
-0.297511
-0.30402
-0.310264
-0.316296
-0.322164
-0.327999
-0.333848
-0.340186
-0.346691
-0.355366
-0.362736
-0.378361
-0.274658
-0.280892
-0.286919
-0.292809
-0.298598
-0.304452
-0.310279
-0.316564
-0.322393
-0.329675
-0.334714
-0.346808
-0.253319
-0.259303
-0.265114
-0.270807
-0.276358
-0.281883
-0.287134
-0.292546
-0.297212
-0.303088
-0.307673
-0.317844
-0.2331
-0.23873
-0.244174
-0.249464
-0.254542
-0.259515
-0.264184
-0.269018
-0.273424
-0.278879
-0.283605
-0.291912
-0.213851
-0.21906
-0.224081
-0.228948
-0.233627
-0.23824
-0.242669
-0.24725
-0.251524
-0.256312
-0.260583
-0.267247
-0.195666
-0.200478
-0.20513
-0.209655
-0.214039
-0.218355
-0.222501
-0.226641
-0.230483
-0.234546
-0.238455
-0.244132
-0.178604
-0.183048
-0.187353
-0.191538
-0.195584
-0.199522
-0.203289
-0.20699
-0.210516
-0.214188
-0.21789
-0.222845
-0.162617
-0.166696
-0.170646
-0.174475
-0.178174
-0.181766
-0.185235
-0.188645
-0.191946
-0.195296
-0.198685
-0.20302
-0.147658
-0.151386
-0.154998
-0.158502
-0.161899
-0.165203
-0.168406
-0.171534
-0.174555
-0.17757
-0.18064
-0.184496
-0.133707
-0.13711
-0.140412
-0.143619
-0.14673
-0.14975
-0.152675
-0.155517
-0.158271
-0.161016
-0.163821
-0.167275
-0.120734
-0.123834
-0.126845
-0.129767
-0.132602
-0.135353
-0.138021
-0.140617
-0.143139
-0.145646
-0.148195
-0.151279
-0.108694
-0.111514
-0.114252
-0.116912
-0.119494
-0.122002
-0.124436
-0.126804
-0.129104
-0.131381
-0.133689
-0.13644
-0.0975509
-0.100112
-0.102601
-0.10502
-0.107369
-0.109651
-0.111866
-0.114019
-0.116111
-0.118178
-0.120268
-0.122721
-0.0872642
-0.0895896
-0.0918501
-0.0940469
-0.0961809
-0.0982539
-0.100266
-0.102223
-0.104125
-0.106001
-0.107892
-0.110074
-0.079903
-0.0819548
-0.083949
-0.0858866
-0.087769
-0.0895969
-0.0913737
-0.0931009
-0.0947997
-0.0965079
-0.0984457
-0.0710117
-0.0728742
-0.0746845
-0.0764433
-0.0781518
-0.0798107
-0.0814224
-0.0829889
-0.0845262
-0.0860674
-0.0877872
-0.0628763
-0.0645676
-0.0662112
-0.0678078
-0.0693581
-0.0708631
-0.0723244
-0.0737443
-0.0751344
-0.0765236
-0.0780488
-0.0554586
-0.0569957
-0.058489
-0.0599389
-0.0613462
-0.0627117
-0.0640365
-0.0653228
-0.0665792
-0.0678302
-0.069182
-0.048723
-0.0501219
-0.0514801
-0.0527983
-0.0540767
-0.0553162
-0.0565176
-0.0576829
-0.0588182
-0.0599443
-0.0611424
-0.0426374
-0.0439129
-0.0451505
-0.0463506
-0.0475136
-0.0486399
-0.0497304
-0.0507867
-0.051813
-0.0528268
-0.0538892
-0.0371729
-0.038339
-0.0394696
-0.0405648
-0.0416249
-0.0426505
-0.0436419
-0.0446007
-0.0455297
-0.0464433
-0.0473865
-0.0323061
-0.0333758
-0.0344118
-0.0354144
-0.0363837
-0.0373201
-0.0382239
-0.0390964
-0.0399394
-0.0407643
-0.0416039
-0.0280182
-0.0290037
-0.0299573
-0.030879
-0.0317689
-0.0326274
-0.0334545
-0.0342514
-0.0350191
-0.0357668
-0.0365171
-0.0242953
-0.0252085
-0.0260912
-0.0269434
-0.0277651
-0.0285565
-0.0293177
-0.0300496
-0.0307528
-0.0314341
-0.0321088
-0.0211329
-0.0219853
-0.0228084
-0.0236021
-0.0243664
-0.0251016
-0.0258075
-0.0264848
-0.0271339
-0.0277597
-0.0283718
-0.0185314
-0.0193342
-0.0201088
-0.0208551
-0.021573
-0.0222626
-0.022924
-0.0235575
-0.0241632
-0.0247446
-0.025307
-0.0165114
-0.0172757
-0.0180126
-0.0187222
-0.0194044
-0.0200591
-0.0206863
-0.0212863
-0.0218592
-0.0224069
-0.0229322
-0.0150925
-0.0158309
-0.0165429
-0.0172283
-0.0178871
-0.0185192
-0.0191244
-0.0197029
-0.0202547
-0.0207807
-0.0212818
-0.014325
-0.0150473
-0.0157442
-0.0164156
-0.0170615
-0.0176818
-0.0182764
-0.0188454
-0.0193887
-0.0199067
-0.0203993
-0.0518317
-0.0122465
-0.00413894
)
;

boundaryField
{
    inlet
    {
        type            zeroGradient;
    }
    outlet
    {
        type            fixedValue;
        value           uniform 0;
    }
    cylinder
    {
        type            zeroGradient;
    }
    top
    {
        type            symmetryPlane;
    }
    bottom
    {
        type            symmetryPlane;
    }
    defaultFaces
    {
        type            empty;
    }
    procBoundary3to1
    {
        type            processor;
        value           nonuniform List<scalar> 
41
(
-0.394716
-0.396462
-0.39696
-0.397405
-0.39823
-0.399722
-0.402103
-0.405679
-0.410774
-0.417952
-0.436254
-0.468581
-0.516336
-0.557538
-0.565863
-0.5042
-0.39882
-0.295738
-0.22675
-0.196142
-0.201602
-0.215264
-0.205172
-0.162446
-0.116588
-0.099559
-0.084005
-0.0953011
-0.104613
-0.0980338
-0.0877888
-0.0848003
-0.0615784
-0.0528375
-0.0488651
-0.0553583
-0.0583529
-0.0519726
-0.0119354
-0.00387652
-0.0583529
)
;
    }
    procBoundary3to2
    {
        type            processor;
        value           nonuniform List<scalar> 
50
(
-0.507937
-0.507937
-0.508374
-0.508374
-0.514457
-0.514077
-0.514077
-0.511463
-0.511463
-0.50437
-0.487702
-0.487702
-0.46334
-0.46334
-0.428205
-0.428205
-0.38647
-0.351226
-0.351226
-0.31425
-0.290702
-0.26818
-0.247139
-0.227287
-0.208461
-0.190694
-0.174021
-0.15841
-0.143814
-0.130201
-0.117541
-0.105792
-0.0949157
-0.0848725
-0.0777925
-0.0777925
-0.0690961
-0.0611366
-0.0538772
-0.0472831
-0.0413238
-0.035971
-0.0312028
-0.0270008
-0.0233516
-0.0202514
-0.0177005
-0.0157201
-0.0143279
-0.0135777
)
;
    }
}


// ************************************************************************* //
