/*--------------------------------*- C++ -*----------------------------------*\
  =========                 |
  \\      /  F ield         | OpenFOAM: The Open Source CFD Toolbox
   \\    /   O peration     | Website:  https://openfoam.org
    \\  /    A nd           | Version:  7
     \\/     M anipulation  |
\*---------------------------------------------------------------------------*/
FoamFile
{
    version     2.0;
    format      ascii;
    class       volVectorField;
    location    "315";
    object      U;
}
// * * * * * * * * * * * * * * * * * * * * * * * * * * * * * * * * * * * * * //

dimensions      [0 1 -1 0 0 0 0];

internalField   nonuniform List<vector> 
2125
(
(-0.00100305 -0.0337104 1.03423e-21)
(-0.00742848 -0.0937032 -2.96908e-21)
(-0.0213459 -0.144943 -3.45914e-21)
(-0.039164 -0.184937 3.43656e-21)
(-0.0591041 -0.21533 -3.16392e-21)
(-0.0791785 -0.240121 -1.69071e-21)
(-0.0976941 -0.263161 2.89989e-21)
(-0.113739 -0.286529 3.61661e-21)
(-0.126742 -0.310234 -6.00961e-22)
(-0.136407 -0.332645 1.77906e-21)
(-0.000408231 -0.0303444 -1.14261e-21)
(-0.00678325 -0.0859483 3.52934e-21)
(-0.0222443 -0.134367 -8.30938e-21)
(-0.0421766 -0.172814 7.53836e-21)
(-0.0644787 -0.202838 3.26594e-22)
(-0.0869834 -0.228244 5.53426e-21)
(-0.107983 -0.252558 -9.65923e-21)
(-0.126711 -0.277474 -1.42128e-20)
(-0.14279 -0.302682 -2.80402e-21)
(-0.156373 -0.326388 6.38393e-21)
(-0.000111234 -0.0261732 1.0546e-21)
(-0.00665776 -0.0766199 7.7838e-21)
(-0.0235271 -0.121978 1.83222e-20)
(-0.0452165 -0.15891 -1.65872e-20)
(-0.0693601 -0.188694 -3.77217e-21)
(-0.0936443 -0.214816 -3.42335e-21)
(-0.116342 -0.240421 1.75494e-20)
(-0.136795 -0.266792 1.09202e-20)
(-0.15475 -0.293281 2.67787e-21)
(-0.170658 -0.31789 -1.97889e-20)
(-0.00016496 -0.0213168 3.7418e-21)
(-0.00709982 -0.0659639 -4.55906e-21)
(-0.025162 -0.10807 -3.42817e-20)
(-0.0481633 -0.143523 3.01302e-21)
(-0.0735476 -0.17317 9.41381e-21)
(-0.0988895 -0.20009 -7.37958e-21)
(-0.122427 -0.227006 -3.03446e-22)
(-0.143557 -0.25478 -3.02552e-21)
(-0.162068 -0.282377 6.83072e-21)
(-0.178509 -0.307527 1.97193e-20)
(-0.000601874 -0.0159319 2.60567e-21)
(-0.00812462 -0.0542785 -1.47965e-20)
(-0.0270906 -0.0929754 3.55446e-20)
(-0.0508809 -0.126969 -1.6258e-20)
(-0.0768346 -0.156551 -5.11309e-23)
(-0.102449 -0.18432 2.25826e-20)
(-0.125904 -0.21257 -1.0347e-20)
(-0.146592 -0.24174 1.14392e-21)
(-0.164252 -0.270343 -4.27219e-21)
(-0.179248 -0.295728 1.56214e-21)
(-0.00142996 -0.0102044 3.12725e-20)
(-0.00971113 -0.0419031 3.8122e-20)
(-0.0292274 -0.0770618 -9.7257e-21)
(-0.0532176 -0.109586 1.86518e-20)
(-0.0790061 -0.139123 5.96583e-21)
(-0.104046 -0.167754 -8.38831e-21)
(-0.126434 -0.197355 -3.26838e-21)
(-0.145496 -0.227959 -1.43733e-20)
(-0.160852 -0.257555 3.12891e-21)
(-0.172237 -0.282948 -1.82542e-20)
(-0.00263045 -0.00434018 -3.01637e-20)
(-0.0118008 -0.0292052 -1.99051e-20)
(-0.0314607 -0.0607173 1.6378e-20)
(-0.0550073 -0.0917249 -2.85179e-20)
(-0.079838 -0.12118 3.39877e-21)
(-0.103394 -0.150633 3.37763e-20)
(-0.123666 -0.18158 -6.1338e-21)
(-0.139847 -0.213687 3.98181e-20)
(-0.151432 -0.244361 -7.82712e-22)
(-0.156834 -0.269645 -1.60495e-20)
(-0.00415768 0.00144547 2.55591e-20)
(-0.0142995 -0.0165668 -4.645e-20)
(-0.0336565 -0.0443451 -1.85896e-20)
(-0.0560739 -0.0737493 2.16478e-20)
(-0.0791011 -0.103026 9.06473e-22)
(-0.100198 -0.133199 -6.36645e-20)
(-0.117227 -0.165439 -3.95479e-21)
(-0.129185 -0.199124 -3.18412e-20)
(-0.13555 -0.231059 -4.07213e-20)
(-0.132372 -0.256255 2.37509e-20)
(-0.0059412 0.00693974 -1.42498e-20)
(-0.0170816 -0.00436933 6.92715e-21)
(-0.0356644 -0.0283539 1.71439e-20)
(-0.0562388 -0.0560355 -1.57653e-20)
(-0.0765695 -0.0849788 -5.48991e-20)
(-0.0941615 -0.115702 1.88135e-20)
(-0.106731 -0.149113 2.60181e-21)
(-0.113008 -0.184405 4.83251e-20)
(-0.112752 -0.217867 6.29196e-20)
(-0.0981657 -0.243153 -2.79594e-20)
(-0.00789046 0.0119448 2.27834e-20)
(-0.0199975 0.00702103 2.09123e-20)
(-0.0373267 -0.0131495 -3.00036e-21)
(-0.0553318 -0.0389709 7.79103e-20)
(-0.0720351 -0.0673805 3.32612e-20)
(-0.0850046 -0.0984175 2.51241e-20)
(-0.0918022 -0.132782 3.6087e-20)
(-0.0907908 -0.169609 -1.55126e-20)
(-0.0825924 -0.204899 -2.11028e-20)
(-0.0535616 -0.230567 -3.4309e-20)
(-0.00990192 0.0162901 -1.95836e-21)
(-0.0228835 0.0172706 -3.33345e-20)
(-0.0384868 0.000876497 -2.4135e-20)
(-0.0532027 -0.0229513 -3.87705e-20)
(-0.0653255 -0.0506041 -3.09891e-20)
(-0.0724926 -0.0816674 3.15648e-20)
(-0.0721113 -0.116671 -3.05135e-20)
(-0.0620259 -0.154781 -2.09401e-20)
(-0.0446675 -0.192153 2.79917e-21)
(0.00185883 -0.218269 8.96823e-21)
(-0.0118673 0.0198432 -6.3759e-20)
(-0.0255729 0.0260941 3.05238e-20)
(-0.039 0.0133602 2.24032e-20)
(-0.0497302 -0.00837455 1.52306e-20)
(-0.0563212 -0.0350521 -2.80943e-20)
(-0.0564637 -0.0658363 -2.37404e-20)
(-0.0474233 -0.101083 3.45806e-20)
(-0.026274 -0.140009 -2.83853e-20)
(0.00161333 -0.179806 -2.10427e-21)
(0.0679083 -0.205071 -2.8828e-20)
(-0.0136828 0.0225186 5.39269e-20)
(-0.0279063 0.0332693 2.21399e-20)
(-0.038741 0.023982 1.28207e-21)
(-0.0448285 0.0043783 -2.76911e-20)
(-0.0449615 -0.0211457 1.76281e-21)
(-0.0368496 -0.0513675 3.18658e-20)
(-0.0176536 -0.0864159 -9.13227e-21)
(0.0165628 -0.125499 -1.12688e-20)
(0.0576548 -0.168838 -2.46737e-20)
(0.14425 -0.189658 4.4115e-20)
(-0.0152583 0.0242829 3.71552e-20)
(-0.0297401 0.0386493 -5.98961e-20)
(-0.0376019 0.0324834 -4.66939e-20)
(-0.03844 0.0149628 2.01419e-20)
(-0.0312327 -0.00930406 4.16846e-20)
(-0.013661 -0.0387234 3.62307e-20)
(0.0171761 -0.073148 -3.86978e-20)
(0.0657102 -0.111685 7.47797e-20)
(0.123813 -0.158446 -2.28729e-20)
(0.23238 -0.173156 -5.14769e-20)
(-0.0165247 0.0251551 -5.53597e-20)
(-0.0309526 0.0421705 3.34369e-20)
(-0.0354898 0.0386848 -1.65102e-20)
(-0.0305184 0.0230991 1.7219e-21)
(-0.0151344 0.000111593 1.78768e-20)
(0.0130506 -0.0283322 -5.69883e-20)
(0.057124 -0.0617971 5.11455e-20)
(0.121268 -0.0990548 -4.97791e-20)
(0.198192 -0.147692 7.94366e-20)
(0.330678 -0.156812 2.77111e-20)
(-0.0174383 0.0252022 1.20113e-20)
(-0.0314443 0.0438549 6.5794e-20)
(-0.0323122 0.042503 -1.68032e-20)
(-0.0209959 0.0286076 1.70315e-20)
(0.00338788 0.00683012 2.03662e-20)
(0.0432843 -0.020586 -6.18726e-21)
(0.102071 -0.0528349 4.42657e-20)
(0.183336 -0.0883565 2.33666e-21)
(0.280901 -0.137187 -5.0511e-20)
(0.435138 -0.140086 6.64655e-20)
(-0.0179803 0.0245278 -3.18354e-20)
(-0.031134 0.0438059 -6.25034e-20)
(-0.0279555 0.0439556 5.44928e-20)
(-0.00974412 0.0314125 2.76848e-20)
(0.0244711 0.0107127 -1.29608e-19)
(0.0772354 -0.0156663 1.06799e-19)
(0.15213 -0.0464061 -9.7345e-20)
(0.251625 -0.0797771 1.60259e-21)
(0.371911 -0.126633 -2.1513e-20)
(0.54139 -0.123094 -6.08592e-20)
(-0.0181527 0.0232629 2.78229e-20)
(-0.0299496 0.0421937 -3.83891e-21)
(-0.0222729 0.0431599 -1.33944e-20)
(0.00347313 0.0315791 -1.45756e-21)
(0.0484364 0.0118228 -8.089e-21)
(0.115301 -0.0134579 -3.40567e-20)
(0.207743 -0.0423454 1.46331e-20)
(0.326203 -0.0733088 -2.31511e-20)
(0.470481 -0.114828 7.30066e-21)
(0.644632 -0.105784 1.93087e-21)
(-0.017974 0.0215483 -5.68334e-20)
(-0.0278143 0.0392371 -4.16892e-21)
(-0.0150588 0.040335 6.25841e-21)
(0.0190132 0.029325 2.54525e-21)
(0.075822 0.0104099 4.25882e-20)
(0.158175 -0.0135999 -1.25314e-19)
(0.269572 -0.0401084 8.50669e-20)
(0.407514 -0.0684435 -6.36026e-20)
(0.574777 -0.100139 5.2175e-20)
(0.740671 -0.0887921 5.54511e-20)
(-0.0174653 0.0195189 -6.94904e-21)
(-0.0246335 0.0351852 3.16661e-20)
(-0.00603355 0.0357811 -3.99846e-20)
(0.0373728 0.0250033 -1.26112e-20)
(0.107366 0.00691594 2.45014e-20)
(0.206772 -0.0154816 1.19057e-19)
(0.338307 -0.0388709 -2.40169e-20)
(0.495913 -0.063887 1.19905e-20)
(0.681619 -0.0817372 -6.07702e-20)
(0.828513 -0.0762865 2.53201e-20)
(-0.016639 0.0172921 -2.08194e-20)
(-0.0202782 0.0302942 -1.61658e-20)
(0.00516548 0.0298591 3.93528e-21)
(0.0591841 0.0190768 1.58712e-20)
(0.143949 0.0019493 -4.72972e-20)
(0.262048 -0.0182798 -1.93359e-20)
(0.414372 -0.0376556 -6.0957e-20)
(0.590751 -0.057799 6.19938e-20)
(0.786356 -0.0618065 6.38616e-20)
(0.911789 -0.0740249 -2.68803e-20)
(-0.0154874 0.0149589 -9.88546e-21)
(-0.0145765 0.0248086 4.03639e-20)
(0.0189727 0.0229635 -4.53833e-20)
(0.0851713 0.0120947 -5.29842e-21)
(0.186489 -0.00374455 -2.15659e-20)
(0.324762 -0.0210213 4.74301e-20)
(0.497589 -0.0354136 6.14756e-20)
(0.689634 -0.048899 -5.81098e-20)
(0.883839 -0.0453386 5.97085e-20)
(1.01515 -0.061692 7.41808e-21)
(-0.0139744 0.0125806 -2.86231e-20)
(-0.0073071 0.0189485 -8.16622e-20)
(0.0358759 0.0155041 7.99084e-20)
(0.116076 0.00466993 1.15828e-20)
(0.235787 -0.00933197 1.72187e-20)
(0.395191 -0.0226776 1.00399e-20)
(0.586834 -0.0311618 4.63493e-20)
(0.788797 -0.0372992 3.37135e-20)
(0.976063 -0.0294262 -1.17188e-19)
(1.10277 -0.0411514 -5.48353e-20)
(0.00179702 0.0129044 1.9811e-20)
(0.0563862 0.00788761 -4.50266e-20)
(0.152577 -0.00256002 8.86071e-21)
(0.29236 -0.013951 1.43694e-20)
(0.472906 -0.0222867 -1.02743e-19)
(0.67992 -0.0241882 4.48674e-20)
(0.884765 -0.0233075 -3.01771e-20)
(1.05936 -0.0123219 3.13083e-20)
(1.17119 -0.0205269 -1.03868e-20)
(0.0809961 0.000507121 -2.07187e-21)
(0.195202 -0.00896315 -1.2408e-20)
(0.356279 -0.0167763 6.09658e-22)
(0.556646 -0.0190883 1.15248e-21)
(0.773899 -0.0141992 -6.84603e-20)
(0.974363 -0.00727407 8.78374e-21)
(1.13132 0.00552027 8.18742e-20)
(1.22628 0.000113235 3.57023e-20)
(0.110135 -0.00626558 7.65051e-20)
(0.244237 -0.0139352 1.95261e-21)
(0.427054 -0.0170855 -3.20163e-20)
(0.644374 -0.0126253 8.67064e-20)
(0.865585 -0.00130296 1.87068e-20)
(1.05512 0.010289 6.15964e-22)
(1.19153 0.0237789 -3.61213e-20)
(1.26763 0.0199725 -4.51901e-20)
(0.299659 -0.0169141 -3.17458e-20)
(0.503596 -0.0143218 5.25075e-20)
(0.733528 -0.00277713 -2.58643e-20)
(0.952087 0.014112 -2.8795e-20)
(1.1256 0.0288676 -7.055e-21)
(1.24014 0.0420381 -2.0467e-20)
(1.29822 0.0388133 2.14724e-20)
(0.58428 -0.00814171 2.83069e-20)
(0.821401 0.010285 -9.39028e-20)
(1.0312 0.0315322 5.96932e-20)
(1.18531 0.0480004 -2.70009e-20)
(1.27819 0.0600116 3.97718e-20)
(1.31976 0.056656 1.06215e-20)
(1.10153 0.0504359 -1.57637e-20)
(1.23451 0.0673275 1.2623e-20)
(1.30699 0.0775343 -3.0258e-20)
(1.33424 0.07355 -2.99938e-20)
(1.27394 0.0865945 -3.95227e-20)
(1.32798 0.0945391 7.24886e-22)
(1.34324 0.0896469 2.07728e-20)
(1.34253 0.111035 2.94005e-20)
(1.34804 0.10509 -1.24389e-20)
(-0.153406 -0.361085 -1.45581e-22)
(-0.148337 -0.381846 2.95996e-23)
(-0.107369 -0.320747 2.15268e-22)
(-0.0356266 -0.166928 -2.24923e-22)
(0.0632265 0.0827902 5.90429e-23)
(0.177904 0.359796 1.636e-22)
(0.282819 0.572894 -6.79342e-24)
(0.35608 0.677956 -7.90674e-23)
(0.378199 0.706575 -5.10184e-23)
(0.305513 0.72556 -4.63713e-23)
(0.285491 0.579681 1.24623e-23)
(0.456063 0.202814 -9.31808e-23)
(0.647033 -0.170254 5.8759e-23)
(0.77883 -0.454133 -1.55618e-23)
(0.836592 -0.52193 -8.44359e-24)
(0.866932 -0.558503 -6.94966e-24)
(0.787559 -0.563424 3.88936e-23)
(0.664857 -0.536985 7.15772e-23)
(0.6683 -0.310996 5.40747e-24)
(0.800879 0.0713524 3.51177e-23)
(0.901707 0.198134 -1.50627e-23)
(0.928957 0.427148 -1.14897e-23)
(0.895257 0.45263 -3.71863e-24)
(0.890262 0.45586 -1.28547e-23)
(0.90364 0.339005 -1.52376e-23)
(0.943407 -0.0937804 -1.08094e-23)
(0.964134 -0.18696 8.1842e-24)
(0.999926 -0.521953 4.49327e-23)
(0.977729 -0.462949 2.26268e-24)
(0.960737 -0.000404043 -2.23144e-24)
(-0.180886 -0.356109 6.66943e-23)
(-0.18658 -0.38695 -4.66794e-22)
(-0.157288 -0.334394 -8.90925e-23)
(-0.0940086 -0.188863 5.70899e-22)
(0.00521704 0.05596 -8.28255e-23)
(0.121824 0.331962 -6.67902e-22)
(0.233422 0.550453 3.91173e-22)
(0.316582 0.665828 -3.77101e-22)
(0.343531 0.710021 1.61949e-22)
(0.276246 0.732678 -3.45788e-22)
(0.293876 0.566201 6.29779e-22)
(0.485396 0.174573 -6.24578e-22)
(0.678327 -0.194149 7.60231e-24)
(0.804097 -0.467629 3.85629e-22)
(0.851418 -0.528268 -4.79289e-23)
(0.877029 -0.554897 -4.35286e-23)
(0.796255 -0.551072 -1.29204e-22)
(0.673871 -0.529352 1.08184e-22)
(0.666913 -0.318888 9.57348e-23)
(0.794606 0.0579815 -1.32276e-22)
(0.895679 0.190935 -3.59427e-23)
(0.921484 0.427377 6.66556e-23)
(0.889353 0.454196 -4.7498e-24)
(0.882087 0.455605 -4.84191e-23)
(0.899877 0.336778 2.9354e-23)
(0.946332 -0.0960186 1.07796e-22)
(0.966809 -0.189086 -9.95203e-26)
(1.00526 -0.522254 -8.48787e-23)
(0.981832 -0.461822 -6.52175e-25)
(0.9603 0.000277672 1.37968e-23)
(-0.200934 -0.348312 3.30727e-21)
(-0.217367 -0.389406 -2.55758e-21)
(-0.199739 -0.346548 1.84664e-21)
(-0.14728 -0.211561 -1.72022e-21)
(-0.0490463 0.0268936 -6.30796e-22)
(0.0693592 0.301439 3.30383e-21)
(0.187197 0.52555 -1.08573e-21)
(0.279006 0.652063 -8.69965e-22)
(0.30988 0.712346 4.17325e-22)
(0.251835 0.736463 -4.23842e-23)
(0.307644 0.549587 1.49003e-22)
(0.516679 0.146649 -6.65323e-23)
(0.710565 -0.216311 -1.51323e-23)
(0.829915 -0.479278 1.66759e-22)
(0.86684 -0.53346 1.63746e-23)
(0.887405 -0.55094 -8.98316e-23)
(0.805189 -0.53878 2.6751e-22)
(0.684289 -0.5215 8.10325e-23)
(0.667326 -0.326625 -4.66381e-23)
(0.789288 0.0443293 -7.38377e-23)
(0.890403 0.183484 4.86075e-23)
(0.914316 0.427366 8.55611e-23)
(0.883377 0.455783 -1.28682e-22)
(0.873908 0.455335 3.98471e-23)
(0.896489 0.334365 -8.64868e-23)
(0.949425 -0.0982652 -1.24609e-22)
(0.969702 -0.191179 1.91775e-23)
(1.0105 -0.522529 1.46319e-22)
(0.985856 -0.460552 -7.94487e-24)
(0.959829 0.00106733 -9.98898e-24)
(-0.212517 -0.337937 -3.66628e-21)
(-0.239452 -0.389138 1.74328e-21)
(-0.233083 -0.356786 -2.26339e-22)
(-0.193567 -0.234363 4.56944e-22)
(-0.0987231 -0.00324133 -6.47806e-22)
(0.021037 0.268268 -1.9382e-21)
(0.144383 0.498282 1.00858e-21)
(0.243425 0.636671 -1.2506e-22)
(0.277731 0.713152 4.59698e-22)
(0.233283 0.736679 1.17818e-21)
(0.32621 0.530366 -3.78701e-22)
(0.549732 0.119387 5.08284e-22)
(0.743577 -0.23668 -5.86796e-22)
(0.856153 -0.489101 -4.59618e-22)
(0.882749 -0.537525 7.97644e-23)
(0.898022 -0.546671 -1.20379e-22)
(0.81435 -0.526632 -2.32665e-22)
(0.6959 -0.513483 -6.5559e-23)
(0.669603 -0.334121 1.0376e-22)
(0.784992 0.0304615 -3.42632e-23)
(0.88593 0.175793 -1.4059e-22)
(0.907479 0.427141 -1.08349e-23)
(0.877325 0.457407 4.79852e-23)
(0.865774 0.455036 5.08889e-24)
(0.8935 0.331764 3.15107e-23)
(0.952682 -0.100513 4.24927e-23)
(0.97282 -0.193228 2.03395e-23)
(1.01563 -0.522768 4.46245e-23)
(0.989772 -0.459141 3.36886e-23)
(0.959313 0.00196313 -3.03511e-24)
(-0.214781 -0.325302 2.64778e-21)
(-0.251739 -0.386151 2.84622e-21)
(-0.255859 -0.364769 1.66248e-21)
(-0.230757 -0.25641 -1.66337e-21)
(-0.142988 -0.0349239 -2.46785e-22)
(-0.0229367 0.232566 -1.00054e-21)
(0.10515 0.468638 -1.44775e-21)
(0.209943 0.619596 -3.47803e-22)
(0.247685 0.711987 1.80144e-22)
(0.221371 0.733198 2.71064e-23)
(0.349067 0.50912 -5.55629e-22)
(0.584419 0.0931368 2.59852e-22)
(0.777195 -0.255204 1.14908e-21)
(0.882676 -0.497124 -5.36786e-22)
(0.899037 -0.540486 4.03578e-22)
(0.908832 -0.542127 5.53043e-23)
(0.82374 -0.514702 5.09776e-22)
(0.708449 -0.505356 -7.0576e-23)
(0.673761 -0.341312 -1.62213e-22)
(0.781792 0.0164439 -1.89033e-23)
(0.882304 0.167876 -1.63642e-22)
(0.900993 0.426725 -2.71129e-22)
(0.871199 0.459079 -3.56024e-24)
(0.857734 0.454691 1.13868e-22)
(0.890928 0.328974 -2.82839e-25)
(0.956101 -0.102756 3.76165e-23)
(0.976163 -0.195224 -9.45845e-23)
(1.02065 -0.52296 -2.07498e-22)
(0.99355 -0.457593 -6.17365e-23)
(0.95874 0.00296261 3.17135e-23)
(-0.207035 -0.310748 1.66053e-21)
(-0.253286 -0.38044 3.64115e-21)
(-0.266867 -0.370163 1.32574e-21)
(-0.25712 -0.276818 -5.23792e-21)
(-0.180636 -0.0681143 4.75497e-21)
(-0.0620279 0.194962 -2.08249e-21)
(0.0696103 0.436585 -2.70651e-22)
(0.178726 0.600733 -6.12652e-22)
(0.220465 0.708364 -5.23472e-22)
(0.21656 0.725994 1.96981e-21)
(0.375791 0.486452 -7.39641e-22)
(0.620605 0.0682399 -2.07384e-21)
(0.811243 -0.271832 -3.42127e-23)
(0.909346 -0.503379 7.79709e-22)
(0.915607 -0.542364 -6.23198e-22)
(0.919774 -0.537348 5.73233e-22)
(0.833372 -0.503045 -5.24225e-22)
(0.721648 -0.497172 2.87782e-22)
(0.679751 -0.348151 3.14629e-23)
(0.779763 0.00234097 2.38005e-22)
(0.879562 0.159747 1.15814e-22)
(0.894876 0.426147 1.10806e-22)
(0.86501 0.460811 1.86112e-23)
(0.849844 0.454285 1.32348e-22)
(0.88879 0.326001 7.5577e-23)
(0.959681 -0.104985 -4.30124e-23)
(0.979728 -0.197158 2.78872e-22)
(1.02554 -0.523092 -1.86448e-22)
(0.997161 -0.455909 9.61668e-23)
(0.958098 0.00406277 -5.26837e-23)
(-0.188709 -0.294642 -3.27783e-21)
(-0.243277 -0.372015 6.14424e-22)
(-0.265193 -0.372696 6.72877e-22)
(-0.270931 -0.294667 -6.23089e-22)
(-0.209995 -0.100953 7.2262e-22)
(-0.0957618 0.15613 8.04234e-22)
(0.0379158 0.402116 4.1618e-22)
(0.150029 0.579937 -6.87244e-22)
(0.196908 0.701791 -7.9188e-22)
(0.218963 0.71514 4.44284e-22)
(0.406002 0.462969 2.83285e-22)
(0.658117 0.044714 1.86413e-21)
(0.845546 -0.286539 -1.6552e-21)
(0.936021 -0.507904 -3.11609e-22)
(0.932369 -0.543181 9.44517e-22)
(0.930781 -0.532373 2.92782e-22)
(0.843269 -0.491704 5.30432e-24)
(0.73521 -0.488982 1.51824e-24)
(0.687444 -0.354617 -1.05002e-22)
(0.778969 -0.0117883 -3.59675e-22)
(0.877727 0.151427 1.21237e-24)
(0.889138 0.425433 -1.20971e-22)
(0.858777 0.462611 -7.66607e-23)
(0.842155 0.453802 -7.51893e-23)
(0.887096 0.322848 -1.26182e-22)
(0.963423 -0.107193 -2.9106e-23)
(0.983507 -0.199019 -2.61899e-22)
(1.03029 -0.523153 2.13692e-22)
(1.00058 -0.454092 -9.15201e-23)
(0.957374 0.00526005 5.76032e-23)
(-0.159352 -0.277424 3.77763e-21)
(-0.221004 -0.360981 5.81579e-22)
(-0.25015 -0.37223 -9.50488e-23)
(-0.2708 -0.309179 -3.0038e-22)
(-0.228976 -0.132191 -6.13816e-22)
(-0.123396 0.117036 2.92826e-21)
(0.0103707 0.365211 -2.24494e-21)
(0.12423 0.557032 -7.68587e-22)
(0.177934 0.691822 -6.91895e-22)
(0.22837 0.700808 2.47878e-22)
(0.439255 0.439211 2.2868e-21)
(0.69673 0.0228225 -7.19359e-22)
(0.879956 -0.299285 -1.55166e-21)
(0.962558 -0.510742 1.81982e-21)
(0.949244 -0.542963 -1.62365e-21)
(0.941781 -0.527241 2.80572e-22)
(0.853449 -0.480706 1.19532e-23)
(0.748867 -0.480824 1.99667e-22)
(0.696627 -0.360707 -2.79162e-22)
(0.779452 -0.0258972 3.6821e-22)
(0.876809 0.142934 -3.39497e-23)
(0.883788 0.424608 6.32007e-22)
(0.852524 0.464483 1.10838e-22)
(0.834723 0.453228 -3.28976e-22)
(0.885855 0.319525 3.03609e-23)
(0.967331 -0.109373 -1.13438e-22)
(0.987491 -0.200797 3.87443e-23)
(1.0349 -0.52313 -1.73209e-22)
(1.00378 -0.452144 5.78263e-23)
(0.956558 0.00655041 -4.99099e-23)
(-0.118661 -0.259596 -2.50716e-21)
(-0.185869 -0.347542 1.48865e-21)
(-0.221208 -0.368742 1.93224e-21)
(-0.255766 -0.319824 1.76001e-22)
(-0.235313 -0.160708 -3.28614e-21)
(-0.143775 0.0786582 3.11358e-22)
(-0.0125251 0.326218 4.31667e-22)
(0.101907 0.531824 -1.48044e-21)
(0.164478 0.678105 -9.6192e-22)
(0.244329 0.683264 2.50546e-21)
(0.475092 0.415658 -6.31073e-22)
(0.736177 0.0028057 1.53152e-21)
(0.914279 -0.310046 -2.49653e-21)
(0.98881 -0.511944 1.11749e-21)
(0.966158 -0.541734 -6.8695e-22)
(0.952705 -0.52199 8.12322e-22)
(0.863921 -0.470067 6.52496e-23)
(0.762401 -0.472721 -2.91648e-22)
(0.707001 -0.366434 4.74945e-22)
(0.781218 -0.0399508 -2.47149e-22)
(0.876804 0.13429 1.87641e-22)
(0.878833 0.423696 -9.47366e-23)
(0.846284 0.466432 -3.42457e-22)
(0.827599 0.45255 3.67168e-22)
(0.885073 0.316041 -4.58568e-23)
(0.971407 -0.111515 4.36775e-22)
(0.991664 -0.202482 -2.96162e-22)
(1.03936 -0.523009 3.2314e-22)
(1.00674 -0.450068 -7.38656e-23)
(0.955639 0.0079294 -2.3927e-25)
(-0.0665324 -0.241684 4.22121e-22)
(-0.13747 -0.332005 5.67099e-21)
(-0.177942 -0.362289 -6.05213e-21)
(-0.225256 -0.326322 -3.32771e-22)
(-0.227038 -0.185524 3.83423e-21)
(-0.155184 0.0417054 4.16647e-22)
(-0.0299815 0.285935 -1.53831e-21)
(0.0838343 0.504119 -5.22678e-22)
(0.15741 0.660414 2.62143e-22)
(0.266227 0.662866 1.15737e-21)
(0.512977 0.392716 -5.87588e-23)
(0.776152 -0.0152595 -1.71673e-22)
(0.948361 -0.318809 1.03925e-21)
(1.01464 -0.511564 -7.31955e-22)
(0.983047 -0.539522 5.86858e-22)
(0.963497 -0.516656 -3.029e-22)
(0.874671 -0.459796 -9.55207e-23)
(0.775661 -0.464681 3.31295e-22)
(0.71821 -0.371823 -6.59128e-22)
(0.784225 -0.0538969 3.05368e-22)
(0.877688 0.125515 -1.4113e-22)
(0.874276 0.422714 -3.88939e-22)
(0.840094 0.468456 5.11501e-23)
(0.82083 0.451757 -8.78026e-23)
(0.884753 0.312408 2.49323e-22)
(0.975651 -0.113612 -1.97804e-22)
(0.996014 -0.204062 -7.99095e-23)
(1.04364 -0.522778 -1.48054e-22)
(1.00944 -0.447865 -3.49233e-23)
(0.954607 0.00939227 2.75319e-24)
(-0.0031592 -0.224302 -4.34716e-21)
(-0.0757341 -0.31481 7.95617e-21)
(-0.120101 -0.352997 -1.65565e-21)
(-0.17898 -0.328597 -5.86665e-21)
(-0.202775 -0.205817 6.20143e-21)
(-0.155291 0.00949343 6.40779e-22)
(-0.0406482 0.245368 -2.74372e-21)
(0.0710445 0.473784 5.35193e-23)
(0.157443 0.638687 -1.04715e-21)
(0.293356 0.640041 2.20378e-22)
(0.552375 0.370708 -2.80396e-21)
(0.816344 -0.0311347 2.58678e-21)
(0.982027 -0.325573 -2.72511e-22)
(1.0399 -0.509664 2.16957e-22)
(0.999846 -0.536356 4.19466e-22)
(0.974111 -0.511271 -1.08134e-21)
(0.885662 -0.449897 5.29285e-22)
(0.78857 -0.456695 -2.62857e-22)
(0.729869 -0.3769 1.20983e-22)
(0.788373 -0.0677308 2.05773e-22)
(0.879415 0.116627 -4.59895e-23)
(0.870123 0.42168 -1.54168e-22)
(0.833995 0.470556 6.89305e-22)
(0.814462 0.450842 -2.91393e-22)
(0.884893 0.30864 5.0404e-23)
(0.980066 -0.115655 -3.42065e-22)
(1.00052 -0.205528 5.88491e-22)
(1.04776 -0.522424 3.95871e-22)
(1.01188 -0.445539 7.82124e-23)
(0.953453 0.0109341 -1.02089e-22)
(0.0707805 -0.208276 -2.43919e-21)
(-0.00105897 -0.296468 9.99234e-21)
(-0.0477978 -0.341085 -3.16037e-21)
(-0.116894 -0.326713 -2.27936e-21)
(-0.161399 -0.220957 4.25351e-21)
(-0.141802 -0.0212596 -2.96162e-21)
(-0.0432428 0.205042 -9.24693e-22)
(0.0648531 0.440838 -2.43559e-22)
(0.16507 0.613042 2.17239e-21)
(0.324961 0.61526 -4.05644e-22)
(0.592751 0.349876 -1.06738e-21)
(0.856454 -0.0448031 1.29716e-22)
(1.01511 -0.330352 1.0771e-21)
(1.06448 -0.506312 -1.20919e-21)
(1.01649 -0.532272 1.04265e-21)
(0.984516 -0.505862 -2.08316e-23)
(0.896827 -0.440376 2.16167e-22)
(0.80112 -0.44874 2.04489e-23)
(0.741602 -0.381684 3.16322e-22)
(0.793502 -0.0814873 -3.10679e-22)
(0.88192 0.107633 -1.4231e-22)
(0.866373 0.420599 2.78818e-22)
(0.82803 0.472726 -3.92187e-22)
(0.808532 0.449799 1.48393e-22)
(0.885493 0.304753 -2.25822e-22)
(0.984648 -0.117636 -9.7415e-23)
(1.00518 -0.206868 -8.96081e-23)
(1.05169 -0.521936 -4.03446e-22)
(1.01404 -0.443091 -4.342e-24)
(0.952171 0.0125501 1.87917e-22)
(0.153871 -0.193935 -1.24694e-22)
(0.0856089 -0.277208 6.90959e-21)
(0.0382208 -0.327033 -4.85591e-21)
(-0.0393897 -0.320902 5.49638e-21)
(-0.103756 -0.231055 1.06663e-21)
(-0.112991 -0.0512455 -1.55591e-21)
(-0.0350013 0.166056 4.36836e-22)
(0.0667894 0.405539 -5.20511e-22)
(0.180519 0.583789 2.08189e-21)
(0.36027 0.589018 -4.49667e-21)
(0.633602 0.330386 8.15901e-23)
(0.896216 -0.0562582 1.72764e-21)
(1.04746 -0.333174 -1.60823e-21)
(1.08826 -0.501583 1.7959e-21)
(1.03293 -0.527316 -1.00833e-21)
(0.994696 -0.500457 5.09869e-22)
(0.908083 -0.431244 -3.27874e-22)
(0.813352 -0.440782 2.40579e-22)
(0.753086 -0.386189 -1.4867e-22)
(0.799403 -0.0951598 -8.41906e-23)
(0.885116 0.0985384 1.91162e-22)
(0.863027 0.419476 -4.32703e-22)
(0.822245 0.474961 7.68347e-22)
(0.803072 0.448625 -3.2957e-22)
(0.886548 0.300764 -3.64767e-22)
(0.989398 -0.119546 -1.80561e-22)
(1.00996 -0.208071 5.61816e-23)
(1.05543 -0.521302 6.84198e-24)
(1.01594 -0.440525 -5.24907e-23)
(0.950756 0.0142356 -1.68732e-22)
(0.244388 -0.180351 7.75697e-21)
(0.182641 -0.257401 -2.99894e-21)
(0.136304 -0.311757 2.63161e-21)
(0.05247 -0.311573 5.26096e-23)
(-0.0301206 -0.235818 1.53467e-21)
(-0.0678998 -0.0744351 -1.14953e-21)
(-0.0142247 0.129167 -5.85999e-22)
(0.078353 0.368419 -8.32927e-23)
(0.203737 0.551425 5.91184e-23)
(0.398508 0.561801 1.6914e-21)
(0.674494 0.312337 -5.59767e-21)
(0.935422 -0.0655141 5.5031e-21)
(1.07893 -0.334071 1.40178e-21)
(1.11113 -0.495555 -7.63341e-22)
(1.04909 -0.52153 -1.11875e-22)
(1.00465 -0.495066 -2.67113e-22)
(0.919336 -0.422509 1.38454e-22)
(0.825333 -0.432779 1.65497e-22)
(0.764085 -0.390405 -4.08526e-23)
(0.805824 -0.108772 3.91981e-23)
(0.888895 0.0893344 -2.02784e-22)
(0.860079 0.418303 1.1088e-22)
(0.81668 0.477255 -5.55376e-22)
(0.798106 0.44732 -3.07594e-23)
(0.888053 0.296688 2.4557e-22)
(0.994313 -0.121375 4.20471e-22)
(1.01484 -0.209126 -5.96397e-23)
(1.05897 -0.520513 2.51932e-23)
(1.01759 -0.437842 1.50896e-22)
(0.949207 0.0159861 3.78504e-23)
(0.341362 -0.166637 -5.84304e-21)
(0.287984 -0.238693 8.46137e-21)
(0.243959 -0.294971 -1.18795e-21)
(0.156635 -0.299132 -9.82926e-22)
(0.0586034 -0.235366 2.14486e-21)
(-0.00641037 -0.0913138 4.44702e-23)
(0.0202169 0.0951815 -9.21262e-23)
(0.100735 0.330277 7.2066e-22)
(0.234386 0.516613 -1.91811e-21)
(0.438904 0.534069 4.2865e-21)
(0.715091 0.295775 1.97989e-21)
(0.97394 -0.0726147 -3.0352e-21)
(1.10938 -0.333073 -1.29331e-21)
(1.133 -0.488276 1.35482e-21)
(1.06493 -0.514917 -3.3217e-22)
(1.01437 -0.489654 6.35402e-22)
(0.930498 -0.414163 -5.93558e-22)
(0.837127 -0.424686 1.81463e-22)
(0.774467 -0.39429 9.61134e-23)
(0.812496 -0.122356 2.14672e-23)
(0.893125 0.0799991 2.24744e-22)
(0.85752 0.417067 -9.98472e-24)
(0.811378 0.4796 2.54264e-22)
(0.793648 0.445887 -5.33013e-23)
(0.890005 0.292545 3.21732e-22)
(0.999391 -0.123118 5.8512e-23)
(1.01983 -0.210025 2.53316e-22)
(1.06232 -0.519561 -2.11788e-22)
(1.01901 -0.435044 -1.33939e-22)
(0.947525 0.0177981 8.55483e-23)
(0.443133 -0.153154 -6.87122e-22)
(0.399651 -0.221831 -3.17682e-21)
(0.358357 -0.27727 -4.15895e-21)
(0.269637 -0.284159 3.34644e-21)
(0.160185 -0.229878 1.31136e-21)
(0.0708524 -0.103471 -1.79559e-22)
(0.0690504 0.0656157 4.87471e-23)
(0.134504 0.292097 2.58228e-22)
(0.271824 0.480139 -6.64671e-22)
(0.480688 0.506233 -1.60671e-21)
(0.755205 0.280709 -1.62968e-21)
(1.01173 -0.0776684 -2.19931e-21)
(1.13867 -0.330221 5.07008e-21)
(1.1538 -0.479767 -3.18696e-21)
(1.08037 -0.507457 9.85674e-22)
(1.02387 -0.484165 -9.92527e-22)
(0.941486 -0.406196 -1.17635e-22)
(0.848779 -0.416467 -2.90804e-22)
(0.784203 -0.3978 1.07027e-22)
(0.819146 -0.135903 -2.48669e-22)
(0.897653 0.0705155 3.38423e-23)
(0.855335 0.415744 2.13653e-22)
(0.806374 0.481985 -1.65178e-22)
(0.789709 0.444331 2.29479e-22)
(0.892404 0.288349 -5.39261e-22)
(1.00463 -0.124776 4.27658e-22)
(1.02488 -0.210759 -4.47178e-22)
(1.06547 -0.51844 2.48296e-22)
(1.0202 -0.432133 3.44124e-23)
(0.945716 0.0196689 2.07695e-23)
(0.548358 -0.140086 2.52021e-22)
(0.51548 -0.206103 -2.00029e-21)
(0.476074 -0.259635 1.08183e-20)
(0.387193 -0.267627 -6.26585e-21)
(0.270817 -0.220565 2.91551e-21)
(0.162049 -0.110357 -4.96773e-22)
(0.132569 0.041363 2.66113e-22)
(0.179561 0.254954 -4.7415e-23)
(0.315124 0.442829 -9.82698e-22)
(0.523114 0.478627 -1.55263e-21)
(0.794896 0.26703 -2.41559e-22)
(1.04888 -0.0809398 -7.72742e-22)
(1.16669 -0.325641 4.3604e-21)
(1.17345 -0.470195 -2.4907e-21)
(1.09537 -0.499327 2.89492e-21)
(1.03315 -0.478725 2.01561e-22)
(0.952237 -0.398702 -9.48468e-22)
(0.860303 -0.408147 1.15205e-22)
(0.793354 -0.400952 2.661e-22)
(0.825532 -0.149422 1.12129e-22)
(0.902292 0.0608859 -5.14721e-22)
(0.853499 0.414306 1.37192e-22)
(0.801699 0.484401 1.66388e-22)
(0.786288 0.442655 -9.18564e-23)
(0.895263 0.284109 2.59722e-22)
(1.01005 -0.126335 -4.39121e-22)
(1.02999 -0.211314 -7.52256e-23)
(1.06843 -0.517145 3.19468e-22)
(1.0212 -0.429124 1.93914e-23)
(0.943788 0.0215941 -4.15619e-23)
(0.656679 -0.127728 -6.15145e-22)
(0.633671 -0.191307 -2.84805e-21)
(0.593456 -0.241912 -5.881e-21)
(0.504414 -0.250624 2.99701e-21)
(0.38558 -0.209081 -3.01776e-21)
(0.263895 -0.111644 8.70888e-22)
(0.210237 0.0225346 -2.11202e-22)
(0.235801 0.220099 3.84436e-22)
(0.363288 0.405557 -6.7864e-22)
(0.565615 0.451347 -1.9278e-21)
(0.834721 0.254379 3.59997e-21)
(1.08562 -0.0823472 -2.67944e-21)
(1.19328 -0.319467 1.18154e-21)
(1.19189 -0.460096 1.22177e-21)
(1.10986 -0.491125 8.43734e-22)
(1.04223 -0.473786 7.53339e-24)
(0.962716 -0.391959 -7.84505e-22)
(0.871693 -0.399806 4.19019e-22)
(0.802039 -0.403843 -6.63316e-24)
(0.831465 -0.163069 -1.40485e-22)
(0.906799 0.0509737 8.94251e-23)
(0.85197 0.412719 -1.52771e-22)
(0.797377 0.486839 1.20312e-22)
(0.783382 0.440868 -1.69097e-22)
(0.898623 0.279871 2.61891e-22)
(1.01564 -0.12771 2.21556e-22)
(1.03513 -0.211666 -1.2435e-22)
(1.07122 -0.515667 -8.17334e-23)
(1.022 -0.426041 -1.08746e-22)
(0.941756 0.0235631 -1.79175e-23)
(0.769661 -0.118229 -3.68171e-21)
(0.752331 -0.17853 7.71802e-21)
(0.70683 -0.225765 -4.31826e-21)
(0.616684 -0.23559 -2.79101e-21)
(0.499085 -0.198797 1.08282e-21)
(0.371823 -0.110893 8.80622e-23)
(0.30059 0.00964673 -5.71161e-23)
(0.304143 0.187864 -1.17169e-22)
(0.41643 0.370074 -1.72601e-22)
(0.608782 0.42537 6.14734e-22)
(0.876619 0.243977 -2.67052e-21)
(1.12241 -0.0800417 -2.09235e-21)
(1.21819 -0.311298 4.04737e-21)
(1.209 -0.449616 -4.08806e-22)
(1.12382 -0.482952 -7.09235e-22)
(1.05116 -0.469308 1.44585e-21)
(0.972935 -0.385942 -1.16515e-21)
(0.882942 -0.391376 4.01956e-22)
(0.810387 -0.406303 -2.71905e-22)
(0.836806 -0.176933 2.27089e-22)
(0.910862 0.0401619 8.24928e-23)
(0.850669 0.410781 -1.77482e-22)
(0.793415 0.48928 3.81805e-23)
(0.781003 0.439048 -3.58491e-23)
(0.90261 0.275825 -5.46943e-23)
(1.02144 -0.12878 -2.04709e-22)
(1.04026 -0.211814 6.01609e-23)
(1.07383 -0.514003 -1.51589e-23)
(1.0226 -0.422872 4.30783e-23)
(0.939648 0.0255766 3.72882e-23)
(0.891895 -0.112428 -1.2453e-20)
(0.86833 -0.163927 3.46482e-21)
(0.812067 -0.207118 -1.59293e-21)
(0.720061 -0.219068 7.83558e-21)
(0.606564 -0.187787 -2.19236e-21)
(0.480742 -0.108902 3.85182e-22)
(0.400543 -0.00369279 -7.67102e-22)
(0.387541 0.157159 8.17962e-22)
(0.481641 0.334604 -2.22324e-22)
(0.661197 0.401795 2.12085e-21)
(0.926738 0.237254 5.32134e-22)
(1.15991 -0.0750224 -5.24238e-21)
(1.24096 -0.300275 -8.65028e-22)
(1.22464 -0.436221 4.7461e-21)
(1.13719 -0.471998 -4.29617e-23)
(1.05996 -0.462847 -1.84908e-22)
(0.982877 -0.379201 -5.52526e-22)
(0.894041 -0.382313 -2.40536e-22)
(0.818498 -0.407361 -1.14624e-22)
(0.841404 -0.190061 2.04004e-22)
(0.914086 0.0288441 -1.65119e-22)
(0.849399 0.408055 -6.7132e-23)
(0.789714 0.491656 9.79323e-23)
(0.779308 0.437349 1.38081e-22)
(0.907586 0.271773 -2.28999e-22)
(1.02746 -0.129966 2.5003e-22)