/*--------------------------------*- C++ -*----------------------------------*\
  =========                 |
  \\      /  F ield         | OpenFOAM: The Open Source CFD Toolbox
   \\    /   O peration     | Website:  https://openfoam.org
    \\  /    A nd           | Version:  7
     \\/     M anipulation  |
\*---------------------------------------------------------------------------*/
FoamFile
{
    version     2.0;
    format      ascii;
    class       volScalarField;
    location    "275";
    object      p;
}
// * * * * * * * * * * * * * * * * * * * * * * * * * * * * * * * * * * * * * //

dimensions      [0 2 -2 0 0 0 0];

internalField   nonuniform List<scalar> 
2125
(
-0.572175
-0.579748
-0.572759
-0.588206
-0.580303
-0.597537
-0.588593
-0.580367
-0.607706
-0.597612
-0.588633
-0.578456
-0.618656
-0.607328
-0.597517
-0.586069
-0.572173
-0.55441
-0.630308
-0.617689
-0.606951
-0.594009
-0.577687
-0.556489
-0.529701
-0.642559
-0.628616
-0.616838
-0.602145
-0.583004
-0.558062
-0.527488
-0.493096
-0.655277
-0.640001
-0.627048
-0.610307
-0.587923
-0.55899
-0.524682
-0.487402
-0.449092
-0.412348
-0.668296
-0.651695
-0.637413
-0.618281
-0.592233
-0.559141
-0.521208
-0.481272
-0.441424
-0.40365
-0.681413
-0.66351
-0.647721
-0.625813
-0.595719
-0.558387
-0.516988
-0.474632
-0.433419
-0.394712
-0.694388
-0.675218
-0.65772
-0.632624
-0.598171
-0.556605
-0.511941
-0.467402
-0.424984
-0.385439
-0.706944
-0.68655
-0.667114
-0.638418
-0.599384
-0.553675
-0.50598
-0.459495
-0.416029
-0.37574
-0.718768
-0.697204
-0.675576
-0.642899
-0.599167
-0.54948
-0.499015
-0.450822
-0.406461
-0.365533
-0.729522
-0.706846
-0.682754
-0.645777
-0.59734
-0.543909
-0.490957
-0.441296
-0.396193
-0.354742
-0.738846
-0.715123
-0.68829
-0.646779
-0.593736
-0.536852
-0.481715
-0.430831
-0.385145
-0.343305
-0.74637
-0.721666
-0.691828
-0.645655
-0.588206
-0.52821
-0.471206
-0.419346
-0.373245
-0.331173
-0.751722
-0.726106
-0.693032
-0.642181
-0.580616
-0.517888
-0.459347
-0.406766
-0.360435
-0.318315
-0.754541
-0.728078
-0.691596
-0.636162
-0.570852
-0.505804
-0.446063
-0.393019
-0.346665
-0.304699
-0.754482
-0.727238
-0.687251
-0.62744
-0.558821
-0.491886
-0.431289
-0.378041
-0.331874
-0.290266
-0.751233
-0.723273
-0.679772
-0.615888
-0.54445
-0.476082
-0.414974
-0.36178
-0.315986
-0.274848
-0.744515
-0.71591
-0.668982
-0.601419
-0.527692
-0.458352
-0.397087
-0.344215
-0.298947
-0.258178
-0.734096
-0.70493
-0.654745
-0.583979
-0.50852
-0.438674
-0.377607
-0.325346
-0.280813
-0.240183
-0.719793
-0.690167
-0.636975
-0.563547
-0.486932
-0.41704
-0.356519
-0.30517
-0.261659
-0.221548
-0.701479
-0.67151
-0.615633
-0.540136
-0.46295
-0.393462
-0.333846
-0.283723
-0.241234
-0.202403
-0.679082
-0.648908
-0.59073
-0.513792
-0.43662
-0.367984
-0.309674
-0.261036
-0.21969
-0.182504
-0.652587
-0.622366
-0.562326
-0.484607
-0.408007
-0.340692
-0.284047
-0.237089
-0.197153
-0.161791
-0.622035
-0.591951
-0.530553
-0.452715
-0.377175
-0.311658
-0.256987
-0.21196
-0.173686
-0.1403
-0.587518
-0.557794
-0.495605
-0.41821
-0.344223
-0.280947
-0.228583
-0.185733
-0.149349
-0.118111
-0.54919
-0.520097
-0.457651
-0.381006
-0.309413
-0.248699
-0.198936
-0.158499
-0.124219
-0.0953316
-0.507263
-0.479121
-0.416618
-0.341555
-0.272797
-0.215049
-0.168167
-0.130358
-0.0983865
-0.0720822
-0.461973
-0.435123
-0.372434
-0.30027
-0.234609
-0.180146
-0.136407
-0.101418
-0.0719408
-0.0484513
-0.413544
-0.388082
-0.326056
-0.257165
-0.195045
-0.144162
-0.103799
-0.0717877
-0.0449703
-0.0245268
-0.362264
-0.338187
-0.278087
-0.212517
-0.154303
-0.107272
-0.0704802
-0.0415658
-0.0176212
-0.000678135
-0.308588
-0.286045
-0.228549
-0.166613
-0.112598
-0.069651
-0.0365634
-0.0108249
0.00981133
0.0221468
-0.252925
-0.23204
-0.177642
-0.119729
-0.0701676
-0.0314766
-0.0021513
0.020338
0.0369608
0.043265
-0.195609
-0.176636
-0.125681
-0.0721503
-0.0272568
0.00705813
0.0325889
0.0516551
0.0636982
0.0647499
-0.137077
-0.120253
-0.0730247
-0.0241702
0.0158835
0.0457371
0.0673824
0.0826667
0.0900117
0.092264
-0.0777786
-0.0633018
-0.0200461
0.0239071
0.0589989
0.0843262
0.101943
0.113247
0.116947
0.1199
-0.0181675
-0.00619949
0.0328812
0.0717731
0.101829
0.12259
0.1361
0.143508
0.144169
0.146108
0.0413004
0.0506352
0.0853857
0.119118
0.14411
0.160293
0.169678
0.173327
0.171173
0.171234
0.100171
0.106784
0.137101
0.165633
0.185579
0.197212
0.202511
0.202524
0.197575
0.195266
0.157995
0.161834
0.187668
0.211017
0.225978
0.23313
0.234422
0.230911
0.223174
0.218269
0.214334
0.215382
0.236738
0.254974
0.265058
0.267837
0.265231
0.258309
0.247813
0.240222
0.268761
0.267035
0.283973
0.297219
0.302576
0.301126
0.294761
0.284558
0.271368
0.26108
0.320866
0.31642
0.32905
0.33748
0.3383
0.332801
0.322841
0.309507
0.293723
0.280777
0.37026
0.36318
0.371665
0.375498
0.372011
0.362675
0.349312
0.33302
0.314767
0.299242
0.416575
0.406981
0.411529
0.411029
0.403502
0.39057
0.374023
0.354966
0.334395
0.316404
0.459468
0.447511
0.448375
0.443848
0.43258
0.416323
0.396833
0.375227
0.352509
0.332193
0.498627
0.484486
0.48196
0.473749
0.459069
0.439783
0.417614
0.393693
0.369016
0.346545
0.533767
0.517649
0.512064
0.500544
0.48281
0.460814
0.436251
0.410264
0.383832
0.359403
0.564637
0.546773
0.538492
0.524068
0.503661
0.479296
0.45264
0.42485
0.396884
0.370716
0.59102
0.57166
0.561076
0.544178
0.521501
0.495125
0.466694
0.437377
0.408105
0.380442
0.612734
0.592148
0.579674
0.560755
0.536227
0.508213
0.478336
0.447778
0.417443
0.388545
0.629634
0.608106
0.594175
0.573705
0.547759
0.518491
0.487509
0.456002
0.424853
0.394998
0.641613
0.619436
0.604496
0.582956
0.556036
0.525907
0.494167
0.462011
0.430304
0.399782
0.588464
0.561019
0.530429
0.498283
0.465779
0.433775
0.402886
-0.301556
-0.313067
-0.324032
-0.334487
-0.344481
-0.354073
-0.363327
-0.372313
-0.280252
-0.290973
-0.301237
-0.311079
-0.320542
-0.329677
-0.338534
-0.34717
-0.260167
-0.270064
-0.279583
-0.288757
-0.297625
-0.306227
-0.314604
-0.322801
-0.241285
-0.25041
-0.259229
-0.267773
-0.276069
-0.284149
-0.292046
-0.299799
-0.223584
-0.231983
-0.240131
-0.248052
-0.255769
-0.263306
-0.270689
-0.277949
-0.20698
-0.21468
-0.222169
-0.229467
-0.236592
-0.243562
-0.250396
-0.257118
-0.191372
-0.198403
-0.205253
-0.21194
-0.218477
-0.224878
-0.231157
-0.237332
-0.17668
-0.183083
-0.189326
-0.195426
-0.201394
-0.207242
-0.21298
-0.218623
-0.162853
-0.168668
-0.174339
-0.179883
-0.18531
-0.190628
-0.195847
-0.200978
-0.149867
-0.155129
-0.160261
-0.16528
-0.170193
-0.175009
-0.179733
-0.184375
-0.137676
-0.142419
-0.147049
-0.151576
-0.156009
-0.160352
-0.164611
-0.168792
-0.126229
-0.130493
-0.134659
-0.138733
-0.14272
-0.146626
-0.150453
-0.154206
-0.115499
-0.119324
-0.123063
-0.126721
-0.130299
-0.133801
-0.137229
-0.140589
-0.105452
-0.10888
-0.11223
-0.115507
-0.118711
-0.121844
-0.124909
-0.127908
-0.0960427
-0.0991228
-0.102128
-0.105061
-0.107926
-0.110725
-0.11346
-0.116133
-0.0872918
-0.0900473
-0.0927352
-0.0953574
-0.0979164
-0.100414
-0.102851
-0.10523
-0.107551
-0.0791676
-0.0816306
-0.084033
-0.0863755
-0.0886594
-0.0908858
-0.0930557
-0.0951698
-0.0972293
-0.0716404
-0.0738438
-0.0759919
-0.0780849
-0.0801237
-0.0821086
-0.0840404
-0.0859195
-0.0877465
-0.0646953
-0.0666688
-0.0685915
-0.0704634
-0.0722847
-0.0740556
-0.0757765
-0.0774475
-0.079069
-0.058318
-0.060089
-0.061813
-0.0634899
-0.0651195
-0.0667018
-0.0682368
-0.0697247
-0.0711656
-0.0524959
-0.0540894
-0.0556393
-0.0571451
-0.0586067
-0.0600238
-0.0613962
-0.0627239
-0.064007
-0.0472186
-0.0486575
-0.0500556
-0.0514125
-0.0527278
-0.054001
-0.0552321
-0.0564208
-0.0575669
-0.0424782
-0.0437834
-0.0450504
-0.0462785
-0.0474674
-0.0486165
-0.0497256
-0.0507944
-0.0518227
-0.0382704
-0.039461
-0.0406156
-0.0417335
-0.0428142
-0.0438573
-0.0448622
-0.0458287
-0.0467566
-0.0345948
-0.0356885
-0.0367481
-0.0377728
-0.0387621
-0.0397155
-0.0406326
-0.041513
-0.0423564
-0.0314575
-0.0324706
-0.0334513
-0.0343987
-0.0353122
-0.0361914
-0.0370357
-0.0378449
-0.0386187
-0.0288696
-0.0298175
-0.0307341
-0.0316189
-0.0324712
-0.0332905
-0.0340763
-0.0348283
-0.0355462
-0.0268595
-0.0277569
-0.0286242
-0.0294607
-0.0302658
-0.0310389
-0.0317797
-0.0324879
-0.0331631
-0.0254486
-0.0263102
-0.0271426
-0.0279452
-0.0287174
-0.0294587
-0.0301688
-0.0308471
-0.0314936
-0.0247232
-0.0255617
-0.0263716
-0.0271522
-0.027903
-0.0286238
-0.0293141
-0.0299737
-0.0306024
0.0573825
0.0354202
0.0154153
-0.00463393
-0.0258951
-0.0473814
-0.068431
-0.0890411
-0.10924
-0.12894
-0.148051
-0.166533
-0.184368
-0.201544
-0.218042
-0.233936
-0.249149
-0.26339
-0.276772
-0.289468
0.0494631
0.027788
0.00688443
-0.0119936
-0.0313409
-0.0510691
-0.0702977
-0.0889051
-0.107048
-0.124728
-0.141879
-0.158467
-0.174488
-0.189911
-0.20465
-0.218458
-0.232032
-0.245029
-0.257336
-0.26905
0.0402825
0.0196025
-0.00109269
-0.0187151
-0.0358917
-0.053539
-0.0708985
-0.0876106
-0.103822
-0.119623
-0.134966
-0.149798
-0.164093
-0.177813
-0.190914
-0.203419
-0.215889
-0.22781
-0.239102
-0.24986
0.0304578
0.0112972
-0.00821687
-0.0244367
-0.0396263
-0.0552478
-0.0708294
-0.0858476
-0.100339
-0.114442
-0.128156
-0.141431
-0.154243
-0.166591
-0.178477
-0.189903
-0.200887
-0.211622
-0.221944
-0.231814
0.0210735
0.00373396
-0.0141366
-0.0289312
-0.0424213
-0.0562175
-0.0701347
-0.0836171
-0.096582
-0.109165
-0.121414
-0.133295
-0.144783
-0.155878
-0.166579
-0.176875
-0.186719
-0.196425
-0.205844
-0.214889
0.0126499
-0.00287021
-0.018943
-0.0323445
-0.0443839
-0.0565772
-0.0689544
-0.0810221
-0.0926182
-0.103843
-0.114772
-0.125393
-0.135681
-0.145629
-0.155236
-0.164504
-0.173435
-0.182237
-0.19079
-0.199032
0.00531439
-0.00852721
-0.0227882
-0.0348247
-0.0455915
-0.0563852
-0.067358
-0.0781212
-0.0884816
-0.0984955
-0.108242
-0.117731
-0.126941
-0.135861
-0.144493
-0.15284
-0.160918
-0.168903
-0.176651
-0.184133
-0.000934868
-0.0132598
-0.0257776
-0.03649
-0.0461152
-0.0556883
-0.0654014
-0.0749717
-0.0842139
-0.0931473
-0.101841
-0.110316
-0.118561
-0.126566
-0.134333
-0.141867
-0.149182
-0.156324
-0.163308
-0.170095
-0.006129
-0.017082
-0.0279787
-0.0374372
-0.0460282
-0.0545336
-0.0631299
-0.0716214
-0.0798524
-0.0878193
-0.0955742
-0.103143
-0.110521
-0.117703
-0.124691
-0.131487
-0.138089
-0.144455
-0.150728
-0.156873
-0.0103141
-0.020024
-0.0294542
-0.0377562
-0.045409
-0.0529753
-0.0605873
-0.0681121
-0.0754314
-0.0825317
-0.0894482
-0.0962039
-0.1028
-0.10923
-0.115492
-0.121585
-0.12751
-0.13326
-0.138918
-0.144463
-0.013557
-0.0221439
-0.0302742
-0.0375321
-0.0443361
-0.0510709
-0.0578163
-0.0644807
-0.0709815
-0.0773043
-0.0834707
-0.0894985
-0.09539
-0.101141
-0.10675
-0.112217
-0.117543
-0.122728
-0.127822
-0.132811
-0.0159406
-0.0235184
-0.0305128
-0.0368425
-0.0428818
-0.0488772
-0.0548588
-0.0607609
-0.0665303
-0.0721566
-0.0776524
-0.0830292
-0.0882896
-0.0934312
-0.0984524
-0.103353
-0.108134
-0.112797
-0.117378
-0.121858
-0.0175557
-0.0242315
-0.0302445
-0.0357584
-0.0411122
-0.0464485
-0.051756
-0.0569846
-0.0621035
-0.0671077
-0.0720043
-0.0767996
-0.0814951
-0.0860894
-0.0905811
-0.0949696
-0.0992561
-0.103443
-0.107559
-0.111579
-0.0184948
-0.0243689
-0.0295413
-0.0343449
-0.0390872
-0.0438358
-0.0485481
-0.0531829
-0.0577253
-0.0621758
-0.0665382
-0.0708152
-0.0750067
-0.0791114
-0.0831279
-0.0870554
-0.0908943
-0.0946499
-0.098335
-0.101938
-0.018849
-0.0240141
-0.0284723
-0.0326622
-0.0368618
-0.0410868
-0.0452735
-0.0493857
-0.053419
-0.057378
-0.0612652
-0.0650808
-0.0688234
-0.0724924
-0.076087
-0.0796073
-0.0830522
-0.086416
-0.0896817
-0.0928914
-0.0187065
-0.0232475
-0.0271031
-0.0307664
-0.0344867
-0.0382463
-0.0419693
-0.0456221
-0.0492068
-0.0527308
-0.0561961
-0.0596009
-0.062943
-0.0662209
-0.0694333
-0.072579
-0.0756561
-0.0786623
-0.0815943
-0.0844715
-0.0181517
-0.0221458
-0.0254958
-0.0287099
-0.0320093
-0.0353566
-0.0386708
-0.0419207
-0.0451112
-0.0482515
-0.0513433
-0.0543838
-0.0573702
-0.0603006
-0.0631736
-0.0659884
-0.0687436
-0.0714379
-0.0740685
-0.0766456
-0.0172643
-0.0207811
-0.0237092
-0.0265424
-0.0294741
-0.0324575
-0.0354124
-0.0383095
-0.0411549
-0.0439581
-0.0467207
-0.0494398
-0.052112
-0.0547353
-0.0573084
-0.0598302
-0.0622994
-0.0647145
-0.0670739
-0.0693829
-0.016119
-0.0192211
-0.0217988
-0.0243105
-0.0269228
-0.0295867
-0.0322268
-0.0348161
-0.0373603
-0.0398685
-0.0423424
-0.0447789
-0.0471746
-0.0495274
-0.0518358
-0.0540987
-0.0563147
-0.0584825
-0.0606006
-0.0626719
-0.0147856
-0.017529
-0.0198167
-0.0220584
-0.024395
-0.0267799
-0.0291453
-0.0314669
-0.0337492
-0.0360005
-0.0382221
-0.0404113
-0.0425648
-0.0446803
-0.0467562
-0.0487915
-0.0507846
-0.0527344
-0.0546394
-0.0565009
-0.0133287
-0.0157632
-0.0178118
-0.0198277
-0.0219279
-0.0240707
-0.0261978
-0.0282874
-0.0303431
-0.0323715
-0.034374
-0.0363479
-0.0382901
-0.0401984
-0.0420714
-0.0439075
-0.0457056
-0.0474642
-0.0491821
-0.0508597
-0.0118077
-0.013978
-0.01583
-0.0176581
-0.0195568
-0.0214912
-0.0234126
-0.0253025
-0.027163
-0.0289993
-0.0308124
-0.0325999
-0.0343591
-0.0360877
-0.0377843
-0.0394474
-0.0410757
-0.0426679
-0.0442227
-0.0457399
-0.0102774
-0.0122232
-0.0139144
-0.0155869
-0.0173153
-0.0190718
-0.0208173
-0.0225363
-0.0242299
-0.0259017
-0.0275523
-0.0291797
-0.0307813
-0.0323552
-0.0338997
-0.0354135
-0.0368952
-0.0383435
-0.0397572
-0.0411358
-0.00878801
-0.0105451
-0.0121054
-0.01365
-0.015236
-0.0168423
-0.0184388
-0.0200131
-0.0215651
-0.0230973
-0.0246098
-0.0261009
-0.0275683
-0.02901
-0.0304246
-0.0318107
-0.0331669
-0.0344921
-0.0357849
-0.0370446
-0.00738591
-0.0089865
-0.0104414
-0.0118822
-0.0133507
-0.014832
-0.0163041
-0.0177573
-0.0191909
-0.0206061
-0.0220028
-0.0233792
-0.0247335
-0.0260639
-0.0273689
-0.0286471
-0.0298973
-0.0311182
-0.0323087
-0.0334678
-0.00611436
-0.00758812
-0.0089596
-0.0103176
-0.0116911
-0.0130706
-0.014441
-0.0157949
-0.0171312
-0.0184502
-0.0197514
-0.0210333
-0.0222942
-0.0235323
-0.0247464
-0.0259352
-0.0270973
-0.0282316
-0.029337
-0.0304126
-0.0050146
-0.00638926
-0.007697
-0.00899119
-0.0102906
-0.0115899
-0.0128797
-0.0141547
-0.0154135
-0.0166556
-0.0178802
-0.0190861
-0.0202717
-0.0214354
-0.022576
-0.0236923
-0.024783
-0.0258471
-0.0268834
-0.0278913
-0.00412702
-0.00542932
-0.0066915
-0.00793956
-0.00918449
-0.0104244
-0.0116541
-0.0128699
-0.0140702
-0.0152542
-0.0164209
-0.017569
-0.0186971
-0.0198039
-0.0208883
-0.0219489
-0.0229848
-0.0239948
-0.0249779
-0.0259329
-0.00349256
-0.00474953
-0.00598388
-0.00720279
-0.00841203
-0.00961213
-0.0108008
-0.0119758
-0.0131354
-0.0142785
-0.015404
-0.0165109
-0.0175978
-0.0186637
-0.0197074
-0.0207278
-0.0217239
-0.0226949
-0.0236398
-0.0245582
-0.00315145
-0.00439111
-0.005618
-0.006829
-0.00802641
-0.00921161
-0.0103839
-0.0115415
-0.0126829
-0.0138068
-0.0149122
-0.0159978
-0.0170629
-0.0181062
-0.0191268
-0.0201238
-0.0210963
-0.0220434
-0.0229642
-0.0238571
0.122671
0.125123
0.127991
0.133455
0.138824
0.146228
0.15284
0.160713
0.166216
0.171646
0.171643
0.169531
0.156483
0.138154
0.0961098
0.121625
0.123942
0.126603
0.131668
0.136558
0.143209
0.148907
0.155482
0.15945
0.162793
0.160542
0.155276
0.139687
0.11706
0.0798082
0.120493
0.122661
0.125084
0.129711
0.134065
0.139909
0.144632
0.14987
0.152305
0.153648
0.149419
0.141594
0.124702
0.100809
0.0679661
0.119269
0.121273
0.123444
0.127598
0.131393
0.136383
0.140116
0.143978
0.144935
0.144318
0.138387
0.128387
0.110872
0.0865807
0.0560921
0.11795
0.119776
0.121684
0.125338
0.128557
0.132659
0.135407
0.13788
0.137444
0.134958
0.127583
0.115796
0.0979094
0.0735724
0.0445534
0.116532
0.118165
0.119802
0.122929
0.125559
0.128747
0.130522
0.131619
0.129883
0.125674
0.117083
0.103917
0.0857944
0.061795
0.0341583
0.115012
0.116437
0.117794
0.12037
0.122402
0.124658
0.125479
0.125236
0.122298
0.116555
0.106947
0.0928016
0.0746019
0.0512969
0.0251393
0.113387
0.114589
0.115661
0.117664
0.119091
0.120411
0.120304
0.118783
0.114743
0.107682
0.0972396
0.0824826
0.0643919
0.0420295
0.0174159
0.111655
0.112619
0.1134
0.114817
0.115636
0.11603
0.115027
0.112318
0.107277
0.0991279
0.0880264
0.0729785
0.0551814
0.0339058
0.0108606
0.109816
0.110528
0.111015
0.111837
0.11205
0.111543
0.10968
0.105893
0.0999567
0.0909519
0.0793658
0.0642916
0.046956
0.026847
0.0053749
0.107868
0.108317
0.108507
0.108737
0.108346
0.106979
0.104299
0.0995614
0.0928412
0.083201
0.0713034
0.0564133
0.0396839
0.0207864
0.000876223
0.105813
0.105991
0.105882
0.105532
0.104543
0.102372
0.0989246
0.0933712
0.0859858
0.0759112
0.0638705
0.0493286
0.0333228
0.0156595
-0.0027176
0.103654
0.103558
0.103145
0.102237
0.100662
0.0977539
0.0935981
0.0873658
0.0794409
0.0691094
0.0570838
0.043017
0.0278226
0.0113975
-0.00549165
0.101395
0.101028
0.100308
0.0988713
0.0967271
0.0931578
0.0883623
0.081584
0.0732494
0.0628151
0.0509459
0.0374512
0.0231269
0.0079267
-0.00753231
0.0990427
0.0984123
0.097382
0.0954563
0.0927677
0.0886159
0.0832595
0.0760605
0.0674455
0.0570399
0.0454478
0.0325968
0.0191752
0.00517103
-0.00892556
0.0966058
0.0957275
0.0943855
0.0920131
0.0888144
0.0841603
0.0783295
0.0708256
0.0620537
0.0517879
0.0405704
0.0284124
0.0159042
0.00305371
-0.00975569
0.0940963
0.0929908
0.0913389
0.0885648
0.0849
0.0798221
0.0736082
0.0659052
0.0570891
0.0470553
0.0362872
0.0248511
0.013249
0.00149879
-0.0101044
0.0915295
0.0902217
0.0882671
0.0851361
0.0810576
0.0756324
0.0691269
0.0613199
0.0525587
0.0428307
0.0325653
0.0218621
0.0111438
0.000432018
-0.0100499
0.0889246
0.0874421
0.0851984
0.0817539
0.0773202
0.0716207
0.064912
0.057085
0.0484617
0.0390959
0.0293671
0.0193919
0.00952294
-0.000218507
-0.00966668
0.0863049
0.0846758
0.0821639
0.0784473
0.0737194
0.0678152
0.0609848
0.0532101
0.0447915
0.0358273
0.0266511
0.0173857
0.00832185
-0.00052177
-0.00902481
0.0836981
0.0819496
0.0791969
0.0752477
0.0702861
0.0642417
0.057362
0.0496995
0.0415356
0.0329967
0.0243741
0.0157886
0.00747779
-0.0005434
-0.00818994
0.081136
0.0792929
0.076332
0.0721884
0.0670499
0.0609235
0.0540561
0.0465529
0.0386778
0.0305729
0.0224911
0.0145464
0.0069305
-0.000345345
-0.00722324
0.078655
0.076739
0.0736051
0.0693042
0.06404
0.0578819
0.0510764
0.043766
0.0361988
0.028523
0.0209574
0.0136063
0.00662273
1.43385e-05
-0.00618134
0.0762955
0.074325
0.0710538
0.066631
0.0612852
0.055136
0.0484294
0.0413323
0.0340774
0.0268136
0.0197294
0.0129181
0.00650066
0.000481568
-0.00511665
0.0741021
0.0720924
0.0687173
0.0642055
0.0588144
0.0527046
0.0461205
0.0392438
0.0322926
0.0254123
0.0187655
0.0124345
0.00651409
0.00100618
-0.00407758
0.0721236
0.0700869
0.0666376
0.062066
0.0566575
0.0506063
0.0441551
0.0374929
0.030824
0.0242884
0.0180268
0.0121117
0.0066167
0.00154171
-0.00310917
0.0704134
0.0683592
0.0648602
0.0602526
0.0548463
0.0488621
0.042541
0.0360745
0.0296546
0.023415
0.017479
0.0119103
0.00676614
0.00204515
-0.00225377
0.0690297
0.066965
0.063435
0.058809
0.0534158
0.0474963
0.04129
0.0349882
0.0287724
0.0227707
0.0170927
0.0117955
0.00692425
0.00247665
-0.00155183
0.0680363
0.0659657
0.062418
0.0577843
0.0524066
0.0465395
0.040421
0.034241
0.0281732
0.0223412
0.0168454
0.0117384
0.00705736
0.00279939
-0.00104253
0.0675023
0.0654294
0.0618728
0.0572366
0.0518687
0.0460321
0.0399629
0.0338504
0.0278629
0.022122
0.0167232
0.0117168
0.00713592
0.00297795
-0.000765067
0.132643
0.135893
0.139627
0.147396
0.155118
0.166793
0.178771
0.194589
0.211433
0.232018
0.254098
0.279889
0.307317
0.338309
0.37033
0.132374
0.135607
0.13932
0.147047
0.154722
0.166326
0.17823
0.193963
0.210659
0.231101
0.252969
0.278532
0.305635
0.336269
0.367785
0.132079
0.135292
0.138982
0.146658
0.15428
0.1658
0.177605
0.193219
0.209722
0.229959
0.251507
0.276715
0.303292
0.333333
0.363984
0.131759
0.134947
0.138614
0.14623
0.153793
0.165214
0.176899
0.192362
0.208623
0.228592
0.249714
0.274442
0.300292
0.329503
0.358928
0.131414
0.134578
0.138216
0.145764
0.15326
0.164568
0.176111
0.191393
0.207362
0.227003
0.247593
0.271716
0.296639
0.324786
0.352622
0.131043
0.134178
0.137788
0.145261
0.152683
0.163863
0.175244
0.190314
0.205943
0.225194
0.245148
0.268544
0.292341
0.319192
0.345079
0.130648
0.133751
0.137332
0.14472
0.152063
0.1631
0.174299
0.189125
0.204369
0.223169
0.242385
0.264933
0.287404
0.312732
0.336313
0.130228
0.133298
0.136848
0.144143
0.1514
0.16228
0.173278
0.18783
0.202643
0.220931
0.239308
0.260892
0.28184
0.305422
0.326345
0.129785
0.132819
0.136336
0.143531
0.150696
0.161404
0.172183
0.18643
0.20077
0.218485
0.235926
0.256429
0.275658
0.297281
0.315199
0.129319
0.132315
0.135798
0.142886
0.149952
0.160474
0.171017
0.184928
0.198754
0.215834
0.232245
0.251555
0.268872
0.288329
0.302908
0.12883
0.131786
0.135233
0.142209
0.149169
0.159492
0.169781
0.183326
0.196599
0.212983
0.228274
0.246278
0.261495
0.278591
0.289505
0.128318
0.131234
0.134643
0.141501
0.148349
0.15846
0.16848
0.181627
0.194311
0.209935
0.224024
0.240609
0.253543
0.268094
0.275031
0.127786
0.130659
0.134028
0.140763
0.147493
0.157379
0.167114
0.179835
0.191894
0.206697
0.219503
0.234558
0.245032
0.256866
0.259528
0.127233
0.13006
0.133389
0.139998
0.146602
0.156252
0.165686
0.177952
0.189354
0.203273
0.214722
0.228134
0.235984
0.244942
0.243038
0.12666
0.12945
0.132726
0.139205
0.145679
0.15508
0.1642
0.175982
0.186696
0.199668
0.209695
0.221346
0.226421
0.232354
0.225602
0.126068
0.128814
0.132041
0.138387
0.144722
0.153865
0.162656
0.173929
0.183923
0.195886
0.204431
0.214202
0.216372
0.219136
0.207251
0.125455
0.128154
0.131334
0.137544
0.143735
0.152609
0.161055
0.171792
0.181036
0.191932
0.19894
0.206712
0.205876
0.205325
0.188016
0.124824
0.12748
0.130612
0.136684
0.142727
0.151327
0.159418
0.169598
0.178065
0.187838
0.193256
0.198906
0.194986
0.190963
0.167892
0.124181
0.126792
0.129874
0.135813
0.141708
0.150037
0.157766
0.167381
0.175039
0.18364
0.187388
0.190773
0.183661
0.175961
0.146602
0.123512
0.126072
0.129085
0.13486
0.140573
0.14858
0.155892
0.164862
0.171635
0.178951
0.180962
0.181945
0.171771
0.159957
0.123571
)
;

boundaryField
{
    inlet
    {
        type            zeroGradient;
    }
    outlet
    {
        type            fixedValue;
        value           nonuniform 0();
    }
    cylinder
    {
        type            zeroGradient;
    }
    top
    {
        type            symmetryPlane;
    }
    bottom
    {
        type            symmetryPlane;
    }
    defaultFaces
    {
        type            empty;
    }
    procBoundary2to0
    {
        type            processor;
        value           nonuniform List<scalar> 
26
(
0.648601
0.626077
0.610584
0.610584
0.590208
0.562692
0.532043
0.499844
0.467296
0.435257
0.404303
0.132886
0.136148
0.139902
0.147703
0.155464
0.167193
0.179213
0.195076
0.212025
0.232694
0.254878
0.280769
0.308321
0.339427
0.371596
)
;
    }
    procBoundary2to3
    {
        type            processor;
        value           nonuniform List<scalar> 
50
(
-0.565468
-0.565957
-0.565957
-0.565846
-0.572762
-0.572762
-0.571272
-0.571272
-0.566642
-0.566642
-0.551971
-0.531391
-0.531391
-0.498422
-0.498422
-0.456513
-0.456513
-0.420906
-0.381106
-0.381106
-0.355645
-0.330867
-0.307445
-0.28511
-0.263745
-0.243419
-0.224184
-0.20603
-0.18894
-0.172902
-0.157891
-0.143882
-0.130844
-0.118745
-0.118745
-0.109816
-0.0992352
-0.0895223
-0.0806416
-0.0725598
-0.0652456
-0.0586707
-0.0528105
-0.0476458
-0.0431627
-0.0393568
-0.0362298
-0.033805
-0.0321078
-0.0311998
)
;
    }
}


// ************************************************************************* //
