/*--------------------------------*- C++ -*----------------------------------*\
  =========                 |
  \\      /  F ield         | OpenFOAM: The Open Source CFD Toolbox
   \\    /   O peration     | Website:  https://openfoam.org
    \\  /    A nd           | Version:  7
     \\/     M anipulation  |
\*---------------------------------------------------------------------------*/
FoamFile
{
    version     2.0;
    format      ascii;
    class       surfaceScalarField;
    location    "275";
    object      phi;
}
// * * * * * * * * * * * * * * * * * * * * * * * * * * * * * * * * * * * * * //

dimensions      [0 3 -1 0 0 0 0];

internalField   nonuniform List<scalar> 
4137
(
0.000566164
0.000123713
0.000442451
-0.000542846
0.000152959
0.000289491
-0.00122545
0.000188115
0.000101377
0.00098003
-0.00201736
-0.00679318
0.00022818
-0.000126803
0.00113907
-0.00292825
0.00300834
-0.00866245
-0.0176451
0.000272192
-0.000398995
0.00130836
-0.00396442
0.00337045
-0.0107245
0.00656302
-0.0208377
0.0105944
-0.0335332
-0.0470219
0.000319255
-0.00071825
0.00148346
-0.00512863
0.00372584
-0.0129669
0.00705001
-0.0241619
0.0110218
-0.037505
0.0149438
-0.0509439
-0.0628212
0.000368509
-0.00108676
0.0016598
-0.00641993
0.0040616
-0.0153687
0.00745829
-0.0275586
0.0112945
-0.0413412
0.0148822
-0.0545316
0.0177951
-0.0657341
-0.0747275
0.000419072
-0.00150583
0.00183264
-0.00783349
0.00436537
-0.0179014
0.00777261
-0.0309658
0.0114107
-0.0449794
0.0146406
-0.0577615
0.0171509
-0.0682443
0.0189553
-0.0765319
0.0202571
-0.0833186
-0.089494
0.000469989
-0.00197582
0.00199708
-0.00936059
0.00462603
-0.0205304
0.00798355
-0.0343233
0.0113763
-0.0483721
0.014241
-0.0606262
0.0163757
-0.0703791
0.0178673
-0.0780234
0.0189362
-0.0843875
-0.0903195
0.0197617
0.000520207
-0.00249603
0.00214823
-0.0109886
0.00483433
-0.0232165
0.00808745
-0.0375764
0.0112022
-0.0514869
0.0137068
-0.0631308
0.015497
-0.0721693
0.016713
-0.0792395
0.0175788
-0.0852533
-0.0909952
0.0182545
0.000568586
-0.00306461
0.00228134
-0.0127014
0.00498354
-0.0259187
0.00808563
-0.0406785
0.0109032
-0.0543044
0.013061
-0.0652887
0.0145384
-0.0736467
0.0155117
-0.0802128
0.0161977
-0.0859393
-0.0915326
0.0167351
0.000613932
-0.00367855
0.00239217
-0.0144796
0.00506962
-0.0285961
0.00798336
-0.0435923
0.0104951
-0.0568162
0.012325
-0.0671185
0.0135202
-0.0748419
0.0142785
-0.0809711
0.0148023
-0.0864631
-0.091939
0.0152088
0.000655051
-0.0043336
0.00247713
-0.0163017
0.00509131
-0.0312103
0.00778872
-0.0462897
0.00999467
-0.0590221
0.011518
-0.0686418
0.0124591
-0.0757831
0.0130252
-0.0815372
0.0134
-0.0868379
-0.0922191
0.01368
0.000690808
-0.0050244
0.00253357
-0.0181444
0.00504979
-0.0337265
0.00751145
-0.0487513
0.00941766
-0.0609283
0.0106568
-0.0698809
0.0113689
-0.0764952
0.0117611
-0.0819293
0.011996
-0.0870728
-0.0923753
0.0121522
0.000720182
-0.00574459
0.00255984
-0.0199841
0.00494821
-0.0361149
0.00716218
-0.0509653
0.0087789
-0.0625451
0.00975583
-0.0708578
0.0102605
-0.0769999
0.0104931
-0.0821619
0.0105947
-0.0871744
-0.092409
0.0106284
0.000742306
-0.00648689
0.00255534
-0.0217971
0.00479122
-0.0383508
0.00675165
-0.0529257
0.00809181
-0.0638852
0.00882732
-0.0715933
0.00914292
-0.0773155
0.00922673
-0.0822457
0.00919934
-0.087147
-0.0923211
0.0091114
0.0007565
-0.00724339
0.00252042
-0.023561
0.00458439
-0.0404148
0.00629029
-0.0546316
0.0073682
-0.0649631
0.00788132
-0.0721065
0.00802296
-0.0774571
0.00796624
-0.082189
0.00781258
-0.0869934
-0.0921115
0.00760297
0.000762291
-0.00800568
0.00245625
-0.025255
0.0043338
-0.0422923
0.0057879
-0.0560857
0.00661837
-0.0657936
0.00692613
-0.0724142
0.00690613
-0.0774371
0.00671484
-0.0819977
0.0064366
-0.0867152
-0.0917787
0.00610385
0.000759411
-0.00876509
0.00236469
-0.0268603
0.00404568
-0.0439733
0.00525341
-0.0572935
0.00585114
-0.0663913
0.00596853
-0.0725316
0.00579676
-0.0772654
0.00547499
-0.0816759
0.00507306
-0.0863132
-0.091321
0.00461538
0.000747797
-0.00951289
0.00224806
-0.0283605
0.00372616
-0.0454514
0.00469487
-0.0582622
0.005074
-0.0667705
0.0050141
-0.0724717
0.00469851
-0.0769498
0.0042489
-0.0812263
0.00372282
-0.0857871
-0.0907367
0.00313845
0.000727587
-0.0102405
0.00210896
-0.0297419
0.00338106
-0.0467235
0.00411934
-0.0590004
0.00429322
-0.0669443
0.00406739
-0.0722459
0.00361466
-0.076497
0.00303966
-0.0806513
0.00238586
-0.0851333
-0.0900219
0.00167105
0.00069913
-0.0109396
0.00195049
-0.0309933
0.00301586
-0.0477889
0.00353299
-0.0595176
0.00351398
-0.0669253
0.00313196
-0.0718639
0.00254769
-0.0759128
0.00185105
-0.0799547
0.00106769
-0.08435
-0.0891352
0.000181001
0.000662935
-0.0116025
0.00177562
-0.032106
0.00263555
-0.0486488
0.00294117
-0.0598232
0.00274059
-0.0667247
0.0022106
-0.0713339
0.00149884
-0.075201
0.000680564
-0.0791364
-0.000207426
-0.083462
-0.088135
-0.00120759
0.00061964
-0.0122222
0.00158718
-0.0330735
0.00224466
-0.0493063
0.00234846
-0.059927
0.00197658
-0.0663529
0.00130574
-0.070663
0.000468565
-0.0743638
-0.000469514
-0.0781983
-0.00149492
-0.0824366
-0.0870371
-0.00259285
0.000569989
-0.0127922
0.00138793
-0.0338914
0.00184723
-0.0497656
0.00175872
-0.0598385
0.00122475
-0.0658189
0.000418792
-0.0698571
-0.000537241
-0.0734078
-0.00158999
-0.0771456
-0.00274098
-0.0812856
-0.0858155
-0.0039625
0.000514814
-0.013307
0.00118053
-0.0345572
0.00144694
-0.050032
0.00117499
-0.0595665
0.000487684
-0.0651316
-0.000446699
-0.0689227
-0.0015181
-0.0723364
-0.00269014
-0.0759735
-0.0039602
-0.0800155
-0.0844676
-0.00530819
0.000454986
-0.013762
0.000967569
-0.0350697
0.00104704
-0.0501115
0.000600038
-0.0591195
-0.000232592
-0.064299
-0.00128956
-0.0678657
-0.00247692
-0.071149
-0.00376483
-0.0746856
-0.00515337
-0.078627
-0.0829944
-0.00662654
0.000391347
-0.0141533
0.0007515
-0.0354299
0.000650419
-0.0500104
4.34957e-05
-0.0585126
-0.000933303
-0.0633222
-0.00211139
-0.0666876
-0.00341144
-0.069849
-0.00481274
-0.0732843
-0.00631899
-0.0771208
-0.0813981
-0.00791529
0.000324781
-0.0144781
0.000534544
-0.0356397
0.000262011
-0.0497379
-0.000513829
-0.0577368
-0.00161722
-0.0622188
-0.00291048
-0.0653944
-0.00432054
-0.0684389
-0.005833
-0.0717719
-0.0074555
-0.0754983
-0.079681
-0.00917263
0.000256632
-0.0147347
0.000318444
-0.0357015
-0.000119049
-0.0493004
-0.00104925
-0.0568066
-0.00228129
-0.0609867
-0.00368612
-0.0639896
-0.00520349
-0.0669216
-0.00682493
-0.0701504
-0.00856161
-0.0737616
-0.0778469
-0.0103957
0.000187501
-0.0149222
0.000110918
-0.0356249
-0.000510666
-0.0486788
-0.00157287
-0.0557444
-0.0029246
-0.059635
-0.0044376
-0.0624766
-0.00605975
-0.0652994
-0.00778799
-0.0684222
-0.00963614
-0.0719134
-0.0759028
-0.0115802
0.000115258
-0.0150375
-0.000104037
-0.0354056
-0.000881457
-0.0479014
-0.00208058
-0.0545452
-0.00354671
-0.0581689
-0.00516427
-0.060859
-0.00688872
-0.063575
-0.0087215
-0.0665894
-0.0106779
-0.069957
-0.0738544
-0.0127263
3.80248e-05
-0.0150755
-0.000332506
-0.0350351
-0.00124314
-0.0469907
-0.00257061
-0.0532178
-0.00414695
-0.0565925
-0.00586575
-0.0591402
-0.00769008
-0.0617506
-0.00962499
-0.0646545
-0.0116872
-0.0678948
-0.0716979
-0.0138438
-3.71675e-05
-0.0150383
-0.000545665
-0.0345266
-0.00159366
-0.0459427
-0.00304248
-0.0517689
-0.00472453
-0.0549105
-0.00654171
-0.057323
-0.0084643
-0.059828
-0.0104999
-0.0626188
-0.0126643
-0.0657305
-0.0694301
-0.0149321
-0.000108574
-0.0149298
-0.000750253
-0.0338849
-0.00193155
-0.0447614
-0.00349577
-0.0502047
-0.00527886
-0.0531274
-0.00719158
-0.0554103
-0.00921206
-0.0578076
-0.0113503
-0.0604806
-0.0136052
-0.0634756
-0.0670716
-0.0159637
-0.000180451
-0.0147493
-0.000947688
-0.0331176
-0.00225601
-0.0434531
-0.00392984
-0.0485309
-0.00580926
-0.051248
-0.00781426
-0.0534053
-0.00993094
-0.0556909
-0.0121733
-0.0582382
-0.014548
-0.0611009
-0.0647873
-0.0168322
-0.00025097
-0.0144984
-0.00113803
-0.0322306
-0.00256656
-0.0420246
-0.00434419
-0.0467533
-0.00631531
-0.0492769
-0.00840873
-0.0513119
-0.0106154
-0.0534842
-0.0129356
-0.0559181
-0.0153258
-0.0587107
-0.0619337
-0.0181794
-0.000319548
-0.0141788
-0.0013209
-0.0312292
-0.00286283
-0.0404827
-0.00473852
-0.0448776
-0.00679689
-0.0472185
-0.00897442
-0.0491343
-0.0112621
-0.0511966
-0.0136542
-0.0535259
-0.016169
-0.0561959
-0.0591061
-0.0189966
-0.000385837
-0.013793
-0.00149583
-0.0301192
-0.00314449
-0.038834
-0.00511255
-0.0429095
-0.00725369
-0.0450773
-0.00951126
-0.0468768
-0.0118786
-0.0488293
-0.0143597
-0.0510448
-0.0169914
-0.0535642
-0.0562631
-0.0198343
-0.000449564
-0.0133434
-0.00166243
-0.0289064
-0.00341123
-0.0370852
-0.00546604
-0.0408547
-0.00768529
-0.0428581
-0.0100184
-0.0445437
-0.0124612
-0.0463864
-0.015024
-0.0484821
-0.0177389
-0.0508493
-0.0533768
-0.0206252
-0.000510485
-0.0128329
-0.0018203
-0.0275966
-0.0036628
-0.0352427
-0.00579883
-0.0387187
-0.0080916
-0.0405653
-0.0104961
-0.0421392
-0.0130116
-0.0438709
-0.0156512
-0.0458425
-0.0184402
-0.0480603
-0.050434
-0.021383
-0.000568381
-0.0122645
-0.00196915
-0.0261958
-0.00389899
-0.0333129
-0.00611077
-0.0365069
-0.00847246
-0.0382036
-0.0109443
-0.0396673
-0.0135283
-0.0412869
-0.0162388
-0.0431321
-0.0190959
-0.0452032
-0.0474283
-0.0221016
-0.000623059
-0.0116415
-0.00210871
-0.0247101
-0.0041196
-0.031302
-0.00640176
-0.0342247
-0.00882777
-0.0357776
-0.0113628
-0.0371323
-0.014011
-0.0386386
-0.0167872
-0.0403559
-0.0197089
-0.0422815
-0.0443584
-0.0227788
-0.000674343
-0.0109671
-0.00223876
-0.0231457
-0.00432449
-0.0292162
-0.0066717
-0.0318775
-0.00915746
-0.0332919
-0.0117513
-0.0345384
-0.0144594
-0.0359305
-0.0172967
-0.0375186
-0.0202795
-0.0392988
-0.0412258
-0.0234121
-0.000722081
-0.0102451
-0.00235911
-0.0215087
-0.00451354
-0.0270618
-0.00692053
-0.0294705
-0.00946145
-0.0307509
-0.0121098
-0.0318901
-0.0148733
-0.033167
-0.0177672
-0.0346248
-0.0208073
-0.0362587
-0.0380332
-0.0239999
-0.000766141
-0.00947892
-0.0024696
-0.0198052
-0.00468666
-0.0248447
-0.00714821
-0.027009
-0.00973965
-0.0281595
-0.0124381
-0.0291917
-0.0152525
-0.0303525
-0.0181985
-0.0316788
-0.0212919
-0.0331653
-0.0347845
-0.0245406
-0.000806406
-0.00867251
-0.0025701
-0.0180415
-0.00484375
-0.0225711
-0.00735466
-0.0244981
-0.00999199
-0.0255222
-0.012736
-0.0264477
-0.0155968
-0.0274916
-0.0185904
-0.0286852
-0.0217327
-0.030023
-0.0314841
-0.0250331
-0.000842776
-0.00782973
-0.00266049
-0.0162238
-0.00498476
-0.0202468
-0.00753987
-0.021943
-0.0102184
-0.0228436
-0.0130034
-0.0236628
-0.015906
-0.024589
-0.0189425
-0.0256487
-0.0221291
-0.0268364
-0.0281368
-0.0254764
-0.000875165
-0.00695457
-0.00274069
-0.0143583
-0.00510963
-0.0178779
-0.00770379
-0.0193488
-0.0104188
-0.0201286
-0.0132402
-0.0208414
-0.01618
-0.0216492
-0.0192547
-0.022574
-0.0224806
-0.0236105
-0.0247478
-0.0258697
-0.0009035
-0.00605107
-0.00281061
-0.0124512
-0.00521832
-0.0154702
-0.00784639
-0.0167207
-0.0105932
-0.0173817
-0.0134463
-0.0179883
-0.0164185
-0.018677
-0.0195266
-0.0194659
-0.022787
-0.0203501
-0.0213222
-0.0262125
-0.000927717
-0.00512335
-0.00287018
-0.0105087
-0.00531079
-0.0130296
-0.00796764
-0.0140639
-0.0107415
-0.0146078
-0.0136217
-0.0151082
-0.0166215
-0.0156771
-0.0197581
-0.0163294
-0.0230478
-0.0170604
-0.0178655
-0.0265045
-0.000947766
-0.00417558
-0.00291936
-0.00853714
-0.00538701
-0.0105619
-0.00806752
-0.0113834
-0.0108637
-0.0118117
-0.0137661
-0.0122058
-0.0167888
-0.0126545
-0.0199488
-0.0131693
-0.0232628
-0.0137465
-0.0143831
-0.0267452
-0.000963605
-0.00321198
-0.0029581
-0.00654264
-0.00544695
-0.00807307
-0.00814601
-0.0086843
-0.0109597
-0.008998
-0.0138796
-0.00928581
-0.0169203
-0.00961384
-0.0200988
-0.00999071
-0.0234319
-0.0104135
-0.0108805
-0.0269345
-0.000975201
-0.00223678
-0.00298636
-0.00453148
-0.00549058
-0.00556885
-0.00820309
-0.00597179
-0.0110294
-0.00617165
-0.0139622
-0.0063531
-0.0170159
-0.00656014
-0.020208
-0.00679861
-0.0235549
-0.00706653
-0.00736308
-0.0270723
-0.00098253
-0.00300412
-0.0055179
-0.00823875
-0.00325094
-0.011073
-0.00333741
-0.0140136
-0.00341245
-0.0170755
-0.00349826
-0.0202761
-0.00359802
-0.0236319
-0.0037108
-0.00383626
-0.0271587
-0.00825296
-0.0110903
-0.0140341
-0.0170992
-0.0203033
-0.0236627
-0.0271935
0.0610844
0.00857777
-0.0605507
0.0616196
0.0100932
0.0621564
0.0116154
0.0626949
0.0131415
0.0632349
0.0146688
0.0637756
0.0161944
0.0643152
0.017715
0.0192268
0.0632369
0.00805106
-0.0627102
0.0637712
0.00955898
0.0643136
0.011073
0.0648646
0.0125905
0.0654246
0.0141088
0.0659935
0.0156254
0.0665709
0.0171376
0.0186423
0.0654977
0.007545
-0.0649916
0.066018
0.00903864
0.0665534
0.0105376
0.0671046
0.0120393
0.067672
0.0135414
0.0682559
0.0150416
0.0688562
0.0165372
0.0180259
0.0678953
0.00706331
-0.0674136
0.0683954
0.00853848
0.0689153
0.0100177
0.0694558
0.0114988
0.070018
0.0129792
0.0706026
0.0144569
0.0712103
0.0159296
0.0173948
0.0704344
0.00660507
-0.0699762
0.0709142
0.00805871
0.0714166
0.00951529
0.071943
0.0109724
0.0724943
0.0124279
0.0730718
0.0138795
0.0736763
0.015325
0.0167622
0.0731091
0.00616875
-0.0726727
0.0735697
0.00759802
0.0740557
0.00902932
0.0745679
0.0104602
0.0751074
0.0118884
0.0756752
0.0133117
0.0762721
0.014728
0.0161351
0.0759171
0.00575343
-0.0755018
0.0763595
0.00715561
0.0768298
0.00855906
0.0773286
0.00996137
0.0778568
0.0113603
0.0784149
0.0127536
0.0790038
0.0141391
0.0155147
0.0788608
0.00535825
-0.0784657
0.0792857
0.00673078
0.0797408
0.00810391
0.0802269
0.00947533
0.0807443
0.0108428
0.0812937
0.0122042
0.0818754
0.0135574
0.0149001
0.0819454
0.00498316
-0.0815703
0.0823529
0.00632327
0.0827933
0.00766356
0.0832669
0.00900171
0.0837742
0.0103356
0.0843154
0.011663
0.0848909
0.0129819
0.0142901
0.0851789
0.00462771
-0.0848234
0.0855693
0.00593284
0.0859951
0.00723775
0.0864566
0.00854024
0.0869539
0.0098382
0.0874874
0.0111295
0.0880571
0.0124122
0.0136841
0.0885671
0.00429133
-0.0882307
0.088941
0.00555893
0.0893528
0.00682597
0.0898027
0.00809038
0.0902908
0.00935011
0.0908171
0.0106032
0.0913818
0.0118475
0.0130812
0.0921184
0.00397327
-0.0918003
0.0924766
0.00520072
0.0928752
0.0064274
0.0933142
0.00765131
0.0937939
0.00887049
0.094314
0.010083
0.0948746
0.0112869
0.0124803
0.095842
0.00367266
-0.0955414
0.0961854
0.00485732
0.0965717
0.00604111
0.0970009
0.00722207
0.0974731
0.00839833
0.0979881
0.009568
0.0985457
0.0107292
0.0118801
0.0997479
0.00338811
-0.0994634
0.100078
0.00452761
0.100453
0.00566604
0.100873
0.00680158
0.101339
0.00793247
0.10185
0.00905693
0.102406
0.0101732
0.0112794
0.103845
0.00311864
-0.103575
0.104162
0.00421011
0.104528
0.00530057
0.104941
0.00638822
0.105402
0.00747133
0.105911
0.00854817
0.106467
0.00961707
0.0106763
0.108148
0.00286301
-0.107892
0.108454
0.00390397
0.108811
0.00494382
0.109218
0.00598092
0.109676
0.00701364
0.110184
0.00804033
0.110741
0.00905938
0.111348
0.0100692
0.0110681
0.112666
0.00262002
-0.112423
0.112963
0.00360764
0.113312
0.00459417
0.113715
0.00557804
0.114171
0.00655772
0.11468
0.00753165
0.115241
0.00849831
0.115854
0.00945614
0.0104036
0.117414
0.00238829
-0.117182
0.117702
0.00331976
0.118046
0.00425016
0.118446
0.00517804
0.118901
0.00610193
0.119413
0.0070204
0.119979
0.00793198
0.1206
0.00883523
0.00972871
0.122404
0.00216644
-0.122182
0.122685
0.00303885
0.123025
0.00391025
0.123424
0.00477927
0.123881
0.00564456
0.124397
0.00650476
0.12497
0.0073585
0.125601
0.00820443
0.00904121
0.127652
0.00195311
-0.127439
0.127927
0.00276347
0.128265
0.0035729
0.128664
0.00438013
0.129125
0.0051839
0.129646
0.00598292
0.130229
0.00677596
0.130872
0.00756174
0.00833901
0.133174
0.00174694
-0.132968
0.133446
0.00249219
0.133782
0.0032366
0.134183
0.003979
0.134649
0.00471821
0.135179
0.00545307
0.135772
0.00618242
0.136429
0.00690511
0.00761997
0.138989
0.00154662
-0.138788
0.139257
0.0022236
0.139594
0.00289983
0.139999
0.00357424
0.140471
0.00424577
0.141011
0.00491336
0.141618
0.00557596
0.14229
0.0062325
0.00688194
0.145115
0.00135088
-0.14492
0.145383
0.00195631
0.145722
0.00256109
0.146132
0.00316426
0.146612
0.00376486
0.147164
0.00436196
0.147785
0.0049546
0.148476
0.00554183
0.00612271
0.151576
0.00115845
-0.151384
0.151844
0.00168893
0.152186
0.00221886
0.152603
0.0027474
0.153094
0.00327372
0.153659
0.00379697
0.154297
0.00431633
0.155008
0.00483095
0.00534002
0.158396
0.000968083
-0.158206
0.158665
0.00142008
0.159013
0.00187163
0.159438
0.00232201
0.159941
0.00277052
0.160522
0.00321644
0.161179
0.00365905
0.161912
0.00409763
0.00453149
0.165604
0.000778506
-0.165414
0.165876
0.00114832
0.166229
0.00151779
0.166665
0.00188634
0.167182
0.00225336
0.16778
0.00261828
0.168459
0.00298051
0.169217
0.00333946
0.00369454
0.17323
0.000588408
-0.17304
0.173506
0.000872158
0.173868
0.00115567
0.174316
0.00143849
0.17485
0.00172017
0.175468
0.00200024
0.17617
0.00227826
0.176955
0.00255378
0.00282634
0.181313
0.000396362
-0.181121
0.181596
0.000589968
0.181968
0.000783427
0.18243
0.000976435
0.182981
0.00116867
0.183622
0.00135983
0.18435
0.0015496
0.185167
0.00173768
0.00192374
0.189895
0.000200721
-0.189699
0.190185
0.000299826
0.19057
0.000398876
0.191049
0.000497708
0.191621
0.000596157
0.192287
0.000694067
0.193045
0.000791275
0.193895
0.000887622
0.000982949
0.199028
-0.198828
0.199328
0.199727
0.200225
0.200821
0.201515
0.202306
0.203194
0.050481
-0.0171104
-0.0502029
0.0509502
-0.0164329
0.051472
-0.0154539
0.052003
-0.0143748
0.0525353
-0.0132586
0.0530702
-0.0121151
0.0536059
-0.0109313
0.0541406
-0.00970735
0.0546745
-0.00844913
0.0552079
-0.00715999
0.0557413
-0.00584157
0.056275
-0.00449618
0.0568089
-0.00312681
0.0573416
-0.00174029
0.0578815
-0.000358872
0.0584251
0.00112742
0.0589573
0.00260632
0.0594879
0.00408475
0.0600188
0.00557298
0.00707098
0.053787
-0.0175537
-0.0533437
0.0541926
-0.0168385
0.0546336
-0.0158949
0.0550907
-0.0148319
0.0555384
-0.0137063
0.0559828
-0.0125595
0.0564313
-0.0113799
0.0568842
-0.0101603
0.057341
-0.00890588
0.0578022
-0.00762127
0.0582688
-0.00630811
0.0587408
-0.0049682
0.0592183
-0.00360435
0.0596986
-0.00222055
0.0601635
-0.000823736
0.060671
0.000619865
0.061173
0.00210434
0.0616785
0.00357927
0.0621908
0.00506069
0.00655153
0.0571581
-0.0179395
-0.0567723
0.0575099
-0.0171903
0.0578678
-0.0162528
0.0582463
-0.0152103
0.0586247
-0.0140848
0.0589996
-0.0129343
0.0593788
-0.0117591
0.0597651
-0.0105465
0.0601572
-0.00929795
0.0605549
-0.00801898
0.0609589
-0.00671218
0.0613696
-0.00537883
0.0617863
-0.0040211
0.062207
-0.0026412
0.0626289
-0.0012457
0.0630942
0.000154597
0.0635509
0.00164763
0.064019
0.00311119
0.064499
0.0045807
0.00605891
0.0606272
-0.0182376
-0.0603291
0.0609111
-0.0174741
0.0611943
-0.0165361
0.0614947
-0.0155107
0.0618037
-0.0143937
0.0621129
-0.0132436
0.0624265
-0.0120727
0.0627486
-0.0108686
0.0630791
-0.00962851
0.0634176
-0.00835746
0.0637645
-0.00705913
0.0641207
-0.00573502
0.0644867
-0.00438704
0.0648628
-0.00301737
0.065248
-0.00163087
0.0656443
-0.000241698
0.0660675
0.00122439
0.066501
0.0026777
0.0669492
0.00413257
0.0055945
0.0641941
-0.018458
-0.0639737
0.0644121
-0.0176921
0.0646266
-0.0167505
0.0648528
-0.0157369
0.0650912
-0.0146321
0.0653346
-0.013487
0.0655834
-0.0123216
0.0658419
-0.011127
0.0661113
-0.00989796
0.0663916
-0.00863778
0.0666833
-0.00735075
0.0669872
-0.00603896
0.0673043
-0.0047041
0.0676352
-0.00334836
0.0679795
-0.00197517
0.0683302
-0.000592366
0.0687187
0.000835932
0.06912
0.0022764
0.0695384
0.00371412
0.00515674
0.0678777
-0.0186034
-0.0677324
0.0680278
-0.0178423
0.0681733
-0.0168961
0.0683262
-0.0158897
0.0684926
-0.0147985
0.0686687
-0.0136631
0.0688531
-0.0125059
0.0690487
-0.0113226
0.0692577
-0.010107
0.0694808
-0.0088609
0.0697184
-0.00758832
0.0699713
-0.00629189
0.0702405
-0.00497327
0.0705266
-0.00363444
0.0708295
-0.0022781
0.071147
-0.000909801
0.0714998
0.000483139
0.0718694
0.00190677
0.0722599
0.00332364
0.00474387
0.0716874
-0.0186703
-0.0716205
0.0717642
-0.0179191
0.0718383
-0.0169702
0.0719178
-0.0159692
0.072012
-0.0148927
0.0721201
-0.0137712
0.0722402
-0.012626
0.0723739
-0.0114563
0.0725237
-0.0102568
0.0726907
-0.0090279
0.0728755
-0.00777311
0.0730788
-0.00649522
0.0733016
-0.00519605
0.0735446
-0.00387742
0.073808
-0.00254155
0.0740908
-0.00119255
0.0744112
0.000162769
0.0747493
0.00156859
0.0751128
0.00296021
0.00435483
0.0756239
-0.0186561
-0.0756381
0.0756231
-0.0179183
0.0756236
-0.0169707
0.0756303
-0.015976
0.0756529
-0.0149153
0.0756931
-0.0138114
0.0757495
-0.0126824
0.0758225
-0.0115293
0.0759143
-0.0103486
0.0760265
-0.00914009
0.0761599
-0.00790645
0.0763151
-0.00665049
0.0764932
-0.00537413
0.076695
-0.00407916
0.0769209
-0.00276751
0.0771709
-0.00144258
0.0774523
-0.000118613
0.0777619
0.001259
0.0780995
0.00262264
0.00398864
0.0796867
-0.0185605
-0.0797822
0.0796065
-0.0178381
0.0795325
-0.0168967
0.0794672
-0.0159107
0.0794196
-0.0148677
0.0793929
-0.0137847
0.0793862
-0.0126757
0.0793997
-0.0115429
0.0794351
-0.010384
0.0794938
-0.00919882
0.079577
-0.00798964
0.0796855
-0.00675898
0.0798202
-0.00550886
0.0799822
-0.00424112
0.0801724
-0.00295778
0.0803914
-0.0016615
0.0806318
-0.000359078
0.0809149
0.000975937
0.0812271
0.00231039
0.00364544
0.083878
-0.0183847
-0.0840538
0.0837184
-0.0176785
0.0835698
-0.0167481
0.0834335
-0.0157744
0.0833175
-0.0147516
0.0832252
-0.0136925
0.0831567
-0.0126072
0.0831119
-0.011498
0.083092
-0.0103641
0.0830987
-0.00920546
0.0831329
-0.00802392
0.0831957
-0.00682178
0.0832879
-0.00560103
0.0834102
-0.00436346
0.0835634
-0.00311098
0.0837477
-0.00184579
0.0839614
-0.000572732
0.0842152
0.00072209
0.0845024
0.00202326
0.00332441
0.0882025
-0.01813
-0.0884573
0.0879645
-0.0174404
0.087742
-0.0165256
0.0875361
-0.0155685
0.0873532
-0.0145688
0.087197
-0.0135362
0.0870679
-0.0124781
0.086966
-0.0113961
0.0868923
-0.0102904
0.0868482
-0.00916131
0.0868347
-0.0080105
0.0868529
-0.00683997
0.0869035
-0.00565164
0.0869874
-0.00444727
0.087105
-0.00322866
0.0872571
-0.00199787
0.0874427
-0.000758354
0.087669
0.000495787
0.0879315
0.00176084
0.00302514
0.0926671
-0.0177979
-0.0929992
0.092352
-0.0171253
0.0920568
-0.0162305
0.0917826
-0.0152943
0.0915346
-0.0143208
0.0913161
-0.0133177
0.0911278
-0.0122898
0.0909701
-0.0112385
0.0908439
-0.0101641
0.0907502
-0.00906766
0.0906903
-0.0079506
0.0906651
-0.00681474
0.0906753
-0.00566186
0.0907217
-0.00449367
0.090805
-0.00331191
0.0909256
-0.00211849
0.0910833
-0.000916095
0.0912835
0.000295589
0.0915221
0.00152225
0.00274691
0.0972796
-0.01739
-0.0976875
0.0968893
-0.016735
0.096523
-0.0158642
0.096182
-0.0149533
0.0958704
-0.0140092
0.0955912
-0.0130385
0.0953452
-0.0120439
0.0951331
-0.0110263
0.0949555
-0.00998654
0.0948136
-0.00892577
0.0947085
-0.00784545
0.0946409
-0.00674722
0.0946118
-0.00563274
0.0946218
-0.00450366
0.0946716
-0.00336167
0.0947616
-0.00220855
0.0948921
-0.00104656
0.0950676
0.000120073
0.0952833
0.00130654
0.00248889
0.10205
-0.0169079
-0.102532
0.101586
-0.0162713
0.10115
-0.0154284
0.100744
-0.0145469
0.10037
-0.0136357
0.100032
-0.0127001
0.0997297
-0.0117416
0.0994643
-0.0107609
0.0992367
-0.00975892
0.0990478
-0.00873686
0.0988986
-0.00769624
0.09879
-0.00663859
0.0987227
-0.00556544
0.0986973
-0.00447834
0.0987146
-0.00337888
0.0987747
-0.00226868
0.0988779
-0.00114983
0.09903
-3.19675e-05
0.0992239
0.00111259
0.00224945
0.106987
-0.0163533
-0.107542
0.106452
-0.0157363
0.105949
-0.014925
0.105479
-0.0140767
0.105045
-0.0132015
0.104649
-0.0123039
0.104291
-0.0113846
0.103974
-0.0104437
0.103698
-0.00948245
0.103463
-0.0085021
0.103271
-0.00750413
0.103122
-0.00649
0.103018
-0.00546115
0.102959
-0.00441908
0.102945
-0.00336533
0.102978
-0.00230152
0.103058
-0.00122946
0.103179
-0.000153476
0.103354
0.000937962
0.00202777
0.112105
-0.0157277
-0.11273
0.1115
-0.0151318
0.110931
-0.0143554
0.110398
-0.0135442
0.109905
-0.0127082
0.109452
-0.0118514
0.109042
-0.0109739
0.108674
-0.0100758
0.10835
-0.00915826
0.10807
-0.00822257
0.107836
-0.00727017
0.107648
-0.00630244
0.107508
-0.00532075
0.107416
-0.0043265
0.107371
-0.00332116
0.107376
-0.00230623
0.10743
-0.00128332
0.107532
-0.000255638
0.107687
0.000783109
0.00182248
0.117414
-0.0150326
-0.118109
0.116742
-0.0144598
0.116108
-0.0137215
0.115514
-0.0129507
0.114963
-0.012157
0.114455
-0.0113437
0.113992
-0.0105108
0.113575
-0.0096584
0.113204
-0.00878744
0.112881
-0.00789929
0.112606
-0.00699534
0.11238
-0.00607688
0.112205
-0.0051452
0.11208
-0.00420164
0.112006
-0.00324757
0.111985
-0.00228441
0.112015
-0.00131368
0.112097
-0.000337748
0.112234
0.000646649
0.00163277
0.122929
-0.0142693
-0.123692
0.122191
-0.0137219
0.121494
-0.0130247
0.120841
-0.0122975
0.120233
-0.0115489
0.119671
-0.0107819
0.119157
-0.00999643
0.118691
-0.00919247
0.118275
-0.00837097
0.117908
-0.00753326
0.117594
-0.00668062
0.117331
-0.00581431
0.117122
-0.00493553
0.116965
-0.00404554
0.116863
-0.00314563
0.116816
-0.00223715
0.116824
-0.00132149
0.116887
-0.000400581
0.117006
0.000527131
0.00145716
0.128665
-0.0134391
-0.129496
0.127863
-0.0129195
0.127105
-0.0122664
0.126393
-0.0115857
0.125729
-0.0108852
0.125114
-0.0101672
0.12455
-0.00943175
0.124036
-0.008679
0.123575
-0.0079098
0.123167
-0.00712537
0.122813
-0.00632693
0.122515
-0.00551565
0.122272
-0.00469267
0.122085
-0.00385916
0.121956
-0.00301635
0.121885
-0.00216548
0.121871
-0.00130786
0.121915
-0.000445108
0.122019
0.000423306
0.00129435
0.13464
-0.0125429
-0.135536
0.133774
-0.0120541
0.132956
-0.0114477
0.132186
-0.0108164
0.131467
-0.0101665
0.130801
-0.0095002
0.130186
-0.00881758
0.129626
-0.00811882
0.129121
-0.00740473
0.128672
-0.00667644
0.12828
-0.00593508
0.127946
-0.00518174
0.127671
-0.00441749
0.127456
-0.00364343
0.1273
-0.00286068
0.127205
-0.00207042
0.127171
-0.00127383
0.127198
-0.000472346
0.127287
0.000333963
0.00114304
0.140871
-0.0115815
-0.141832
0.139943
-0.0111267
0.139065
-0.0105696
0.138239
-0.00999021
0.137466
-0.00939365
0.136748
-0.00878172
0.136085
-0.00815461
0.135478
-0.0075126
0.13493
-0.00685644
0.134441
-0.00618715
0.134012
-0.00550578
0.133643
-0.00481333
0.133336
-0.00411078
0.133092
-0.00339915
0.132911
-0.0026795
0.132793
-0.00195288
0.13274
-0.00122041
0.132751
-0.000483321
0.132827
0.000257935
0.00100197
0.147379
-0.0105555
-0.148405
0.14639
-0.0101379
0.145453
-0.00963274
0.144571
-0.00910782
0.143745
-0.00856714
0.142975
-0.00801222
0.142264
-0.00744334
0.141612
-0.00686085
0.141021
-0.00626545
0.140492
-0.00565806
0.140026
-0.00503961
0.139623
-0.00441102
0.139286
-0.0037732
0.139014
-0.00312708
0.138808
-0.0024736
0.138669
-0.00181375
0.138597
-0.00114852
0.138593
-0.000479025
0.138656
0.000194095
0.000869922
0.154188
-0.00946523
-0.155278
0.153138
-0.00908824
0.152143
-0.00863749
0.151204
-0.00816949
0.150325
-0.00768724
0.149504
-0.00719197
0.148745
-0.00668406
0.148048
-0.00616389
0.147415
-0.00563212
0.146846
-0.00508954
0.146344
-0.00453701
0.145908
-0.00397532
0.14554
-0.00340531
0.145241
-0.00282781
0.145011
-0.00224368
0.144851
-0.00165379
0.144761
-0.00105905
0.144743
-0.000460409
0.144796
0.000141372
0.000745726
0.161322
-0.0083107
-0.162477
0.160212
-0.00797779
0.159158
-0.00758392
0.158164
-0.00717525
0.15723
-0.00675394
0.156359
-0.006321
0.155552
-0.00587681
0.15481
-0.00542181
0.154135
-0.00495658
0.153527
-0.00448181
0.152988
-0.00399823
0.152519
-0.00350656
0.152122
-0.00300753
0.151796
-0.00250187
0.151542
-0.00199034
0.151362
-0.00147371
0.151256
-0.000952774
0.151224
-0.000428365
0.151266
9.87407e-05
0.000628238
0.16881
-0.00709164
-0.170029
0.167639
-0.00680627
0.166526
-0.00647174
0.165476
-0.00612483
0.164489
-0.00576701
0.163567
-0.00539908
0.162712
-0.00502144
0.161924
-0.0046345
0.161207
-0.00423878
0.16056
-0.00383487
0.159985
-0.00342338
0.159483
-0.00300493
0.159056
-0.00258013
0.158704
-0.00214963
0.158427
-0.00171407
0.158228
-0.00127411
0.158105
-0.000830427
0.158061
-0.000383733
0.158094
6.52204e-05
0.000516346
0.176683
-0.00580747
-0.177968
0.17545
-0.00557306
0.174279
-0.00530034
0.173172
-0.00501763
0.17213
-0.00472589
0.171157
-0.00442572
0.170253
-0.0041175
0.16942
-0.0038016
0.16866
-0.00347846
0.167974
-0.00314855
0.167363
-0.00281238
0.166828
-0.00247044
0.166371
-0.00212326
0.165993
-0.00177135
0.165694
-0.00141525
0.165476
-0.00105551
0.165338
-0.000692672
0.165281
-0.000327322
0.165307
3.98601e-05
0.00040893
0.184977
-0.00445735
-0.186327
0.183681
-0.00427718
0.18245
-0.00406877
0.181285
-0.00385277
0.180189
-0.00362976
0.179163
-0.00340017
0.17821
-0.00316433
0.177331
-0.00292253
0.176528
-0.00267512
0.175801
-0.00242247
0.175154
-0.00216496
0.174587
-0.00190298
0.1741
-0.00163692
0.173696
-0.00136718
0.173375
-0.00109419
0.173138
-0.000818356
0.172985
-0.000540111
0.172918
-0.000259903
0.172936
2.16682e-05
0.000304864
0.193731
-0.00304015
-0.195148
0.192371
-0.00291735
0.191078
-0.0027758
0.189854
-0.0026291
0.188702
-0.00247757
0.187623
-0.00232148
0.18662
-0.00216106
0.185694
-0.00199654
0.184847
-0.00182815
0.184081
-0.00165615
0.183396
-0.00148078
0.182796
-0.00130233
0.18228
-0.00112106
0.18185
-0.000937244
0.181507
-0.00075117
0.181252
-0.000563125
0.181085
-0.000373404
0.181007
-0.000182305
0.181019
9.75413e-06
0.000202919
0.202989
-0.00155461
-0.204474
0.201563
-0.00149201
0.200207
-0.0014199
0.198923
-0.00134515
0.197714
-0.00126792
0.196581
-0.00118833
0.195526
-0.0011065
0.194552
-0.00102256
0.19366
-0.000936613
0.192853
-0.000848796
0.192132
-0.00075924
0.191497
-0.000668079
0.190952
-0.000575454
0.190496
-0.000481504
0.190131
-0.000386377
0.189858
-0.000290219
0.189678
-0.000193186
0.189591
-9.54385e-05
0.189598
2.64398e-06
0.000101708
0.212801
-0.214355
0.211308
0.209889
0.208543
0.207276
0.206087
0.204981
0.203958
0.203022
0.202173
0.201413
0.200745
0.20017
0.199688
0.199302
0.199012
0.198819
0.198723
0.198726
0.050383
0.00187532
-0.00180731
0.0502553
0.00389742
-0.00376975
0.050016
0.0062766
-0.00603733
0.0497355
0.00738766
-0.00710715
0.0493588
0.00944642
-0.00906974
0.048964
0.0105201
-0.0101253
0.0484953
0.0129161
-0.0124475
0.0480649
0.0142903
-0.0138598
0.0475981
0.0172185
-0.0167517
0.0472889
0.0188144
-0.0185053
0.0469918
0.0222593
-0.0219621
0.0470868
0.0236321
-0.0237272
0.0472097
0.027594
-0.0277168
0.0482624
0.027665
-0.0287178
0.0320833
-0.0340237
0.0528536
0.00194299
0.0527305
0.00402051
0.0524918