/*--------------------------------*- C++ -*----------------------------------*\
  =========                 |
  \\      /  F ield         | OpenFOAM: The Open Source CFD Toolbox
   \\    /   O peration     | Website:  https://openfoam.org
    \\  /    A nd           | Version:  7
     \\/     M anipulation  |
\*---------------------------------------------------------------------------*/
FoamFile
{
    version     2.0;
    format      ascii;
    class       surfaceScalarField;
    location    "370";
    object      phi;
}
// * * * * * * * * * * * * * * * * * * * * * * * * * * * * * * * * * * * * * //

dimensions      [0 3 -1 0 0 0 0];

internalField   nonuniform List<scalar> 
4136
(
-0.000984383
0.000430199
-0.00300808
0.000832528
0.000978423
-0.00098543
0.00141563
-0.00301098
0.00285808
-0.00552826
0.0034957
-0.00825211
0.00372842
-0.0110892
0.00383087
-0.0140327
0.00391851
-0.0170977
0.00401804
-0.0203015
0.00413307
-0.0236606
0.00426259
0.00440608
-0.0271912
-0.000982188
0.00239782
-0.00300335
0.00487924
-0.00551676
0.00600911
-0.00823729
0.00644895
-0.0110712
0.00666482
-0.0140116
0.00685887
-0.0170732
0.00707962
-0.0202734
0.00733333
-0.0236288
0.00761795
0.00793258
-0.0271553
-0.000974663
0.00337248
-0.0029852
0.00688977
-0.00548892
0.00851283
-0.00820104
0.00916107
-0.011027
0.00949081
-0.0139594
0.00979121
-0.0170127
0.0101329
-0.0202043
0.010525
-0.0235508
0.0109644
0.0114495
-0.0270677
-0.000962872
0.00433535
-0.00295654
0.00888344
-0.00544476
0.0110011
-0.00814336
0.0118597
-0.0109566
0.0123041
-0.0138761
0.0127107
-0.0169163
0.0131731
-0.0200943
0.013703
-0.0234267
0.0142968
0.0149514
-0.0269286
-0.000946837
0.00528219
-0.00291741
0.010854
-0.0053843
0.013468
-0.00806427
0.0145396
-0.01086
0.0150997
-0.0137619
0.0156127
-0.016784
0.0161952
-0.0199434
0.0168625
-0.0232567
0.01761
0.0184329
-0.0267381
-0.000926593
0.00620878
-0.00286783
0.0127952
-0.00530756
0.0159077
-0.0079638
0.0171959
-0.0107372
0.0178731
-0.0136167
0.0184922
-0.016616
0.0191944
-0.0197518
0.0199983
-0.0230407
0.0208989
0.0218885
-0.0264963
-0.00090218
0.00711096
-0.00280786
0.0147009
-0.00521457
0.0183144
-0.00784196
0.0198233
-0.0105882
0.0206194
-0.0134407
0.0213447
-0.0164122
0.0221659
-0.0195195
0.0231056
-0.0227789
0.0241583
0.0253129
-0.0262033
-0.000873649
0.00798461
-0.00273754
0.0165648
-0.00510536
0.0206822
-0.00769877
0.0224167
-0.0104132
0.0233338
-0.0132339
0.0241654
-0.016173
0.025105
-0.0192468
0.0261795
-0.0224717
0.0273832
0.0287006
-0.0258594
-0.000841063
0.00882567
-0.00265694
0.0183807
-0.00497997
0.0230053
-0.00753427
0.024971
-0.0102121
0.0260116
-0.0129964
0.0269497
-0.0158983
0.0280069
-0.0189339
0.0292151
-0.0221193
0.0305686
0.0320464
-0.0254651
-0.000804495
0.00963017
-0.00256615
0.0201423
-0.00483844
0.0252775
-0.00734847
0.027481
-0.00998509
0.0286483
-0.0127283
0.0296929
-0.0155884
0.0308669
-0.018581
0.0322077
-0.0217221
0.0337098
0.0353452
-0.0250209
-0.00076403
0.0103942
-0.00246524
0.0218436
-0.00468081
0.0274931
-0.00714142
0.0299416
-0.00973212
0.031239
-0.0124298
0.0323906
-0.0152434
0.0336806
-0.0181884
0.0351527
-0.0212806
0.0368019
0.0385923
-0.0245277
-0.000719767
0.011114
-0.00235433
0.0234781
-0.00450716
0.0296459
-0.00691316
0.0323476
-0.0094533
0.0337791
-0.0121009
0.0350381
-0.0148636
0.0364432
-0.0177564
0.0380455
-0.0207953
0.0398408
0.0417832
-0.0239863
-0.000671821
0.0117858
-0.00223356
0.0250399
-0.00431755
0.0317299
-0.00666372
0.0346938
-0.0091487
0.0362641
-0.0117418
0.0376312
-0.0144491
0.0391505
-0.0172854
0.0408818
-0.0202669
0.0428224
0.0449142
-0.0233979
-0.000620325
0.0124061
-0.00210307
0.0265226
-0.00411209
0.0337389
-0.00639316
0.0369749
-0.00881838
0.0386893
-0.0113526
0.0401655
-0.0140001
0.041798
-0.0167753
0.0436571
-0.0196959
0.045743
0.0479825
-0.0227641
-0.00056543
0.0129715
-0.00196306
0.0279202
-0.00389089
0.0356668
-0.00610154
0.0391855
-0.00846242
0.0410502
-0.0109335
0.0426366
-0.0135168
0.0443812
-0.0162263
0.0463666
-0.0190824
0.0485991
0.0509867
-0.0220866
-0.000507307
0.0134788
-0.00181374
0.0292267
-0.0036541
0.0375071
-0.00578894
0.0413203
-0.00808091
0.0433421
-0.0104847
0.0450404
-0.0129995
0.0468959
-0.0156383
0.0490054
-0.0184263
0.0513871
0.0539283
-0.0213679
-0.000446151
0.013925
-0.00165537
0.0304359
-0.00340188
0.0392537
-0.00545545
0.0433739
-0.00767391
0.0455606
-0.0100063
0.0473728
-0.0124485
0.0493381
-0.0150104
0.0515673
-0.0177246
0.0541013
0.0568139
-0.0206102
-0.000382175
0.0143072
-0.00148826
0.031542
-0.00313446
0.0408998
-0.00510122
0.0453407
-0.00724159
0.047701
-0.00949854
0.0496298
-0.0118652
0.0517048
-0.0143457
0.0540477
-0.0169766
0.0567322
0.0596564
-0.0198191
-0.000315621
0.0146228
-0.00131277
0.0325391
-0.00285207
0.0424391
-0.0047264
0.047215
-0.00678401
0.0497586
-0.00896098
0.0518067
-0.0112481
0.053992
-0.0136395
0.0564391
-0.0161531
0.0592458
0.0624832
-0.0189798
-0.000246761
0.0148696
-0.00112931
0.0334217
-0.002555
0.0438648
-0.00433123
0.0489912
-0.0063016
0.051729
-0.0083945
0.0538996
-0.0106008
0.0561982
-0.0129203
0.0587587
-0.0153088
0.0616343
0.0653349
-0.0181606
-0.000175944
0.0150455
-0.000938334
0.0341841
-0.00224357
0.0451701
-0.00391594
0.0506636
-0.00579465
0.0536077
-0.0077992
0.0559042
-0.00991561
0.0583146
-0.0121578
0.0610009
-0.0145323
0.0640088
0.0676189
-0.0168163
-0.000103787
0.0151493
-0.000740193
0.0348205
-0.00191814
0.046348
-0.00348086
0.0522263
-0.00526327
0.0553901
-0.00717562
0.0578165
-0.00919596
0.060335
-0.0113342
0.0631392
-0.0135893
0.0662639
0.0699781
-0.0159485
-3.2372e-05
0.0151817
-0.000534752
0.0353228
-0.00157918
0.0473924
-0.00302645
0.0536736
-0.00470785
0.0570715
-0.00652476
0.0596334
-0.00844731
0.0622575
-0.0104831
0.065175
-0.0126476
0.0684284
0.0722468
-0.0149163
4.39605e-05
0.0151377
-0.000320384
0.0356872
-0.00122748
0.0482995
-0.00255333
0.0549995
-0.00412904
0.0586472
-0.00584769
0.0613521
-0.00767209
0.0640819
-0.00960731
0.0671102
-0.01167
0.0704911
0.0744041
-0.0138273
0.000121287
0.0150164
-8.91857e-05
0.0358977
-0.000864589
0.0490749
-0.00206185
0.0561967
-0.00352743
0.0601128
-0.00514496
0.0629696
-0.00686964
0.0658066
-0.00870295
0.0689435
-0.0106602
0.0724484
0.0764536
-0.0127098
0.000193569
0.0148228
0.000123451
0.0359678
-0.000492671
0.0496911
-0.00155245
0.0572565
-0.00290382
0.0614641
-0.0044169
0.0644827
-0.00603944
0.0674292
-0.00776847
0.0706725
-0.0096179
0.0742978
0.0783995
-0.0115638
0.000263079
0.0145598
0.000333035
0.0358978
-9.7404e-05
0.0501215
-0.00102698
0.0581861
-0.00225886
0.062696
-0.00366384
0.0658877
-0.00518179
0.0689471
-0.00680431
0.0722951
-0.00854272
0.0760363
0.0802361
-0.0103793
0.000331689
0.0142281
0.000550214
0.0356793
0.000282652
0.0503891
-0.000489865
0.0589586
-0.00159295
0.0637991
-0.00288642
0.0671812
-0.00429725
0.0703579
-0.00581112
0.0738089
-0.00743584
0.077661
0.0819564
-0.00915613
0.000398652
0.0138294
0.000768359
0.0353096
0.000673391
0.050484
6.82298e-05
0.0595637
-0.000907053
0.0647744
-0.00208533
0.0683594
-0.00338635
0.071659
-0.00478939
0.075212
-0.00629838
0.07917
0.0835565
-0.00789846
0.00046271
0.0133667
0.000985815
0.0347865
0.00107229
0.0503976
0.000628438
0.0600076
-0.000203812
0.0656066
-0.00126121
0.0694168
-0.00244975
0.0728475
-0.00373972
0.0765019
-0.00513154
0.0805618
0.0850341
-0.00660912
0.000522977
0.0128437
0.00120029
0.0341092
0.00147456
0.0501233
0.00120605
0.0602761
0.000519362
0.0662933
-0.000415818
0.070352
-0.00148852
0.0739202
-0.00266294
0.0776764
-0.00393687
0.0818357
0.086387
-0.00528984
0.000578584
0.0122652
0.00140926
0.0332785
0.00187745
0.0496551
0.00179284
0.0603607
0.00125959
0.0668266
0.000452925
0.0711587
-0.000505013
0.0748781
-0.00156031
0.0787317
-0.00271579
0.0829912
0.0876141
-0.00394285
0.000628647
0.0116365
0.00161017
0.032297
0.00227771
0.0489876
0.00238604
0.0602524
0.00201501
0.0671976
0.00134333
0.0718304
0.000504345
0.0757171
-0.000437231
0.0796732
-0.00146732
0.0840213
0.0887183
-0.00257155
0.000672324
0.0109642
0.00180033
0.031169
0.00267169
0.0481162
0.00298261
0.0599415
0.00278309
0.0673971
0.00225219
0.0723613
0.00153835
0.076431
0.000716879
0.0804947
-0.000175346
0.0849135
0.0897274
-0.00118438
0.000708859
0.0102553
0.001977
0.0299008
0.00305534
0.0470379
0.00357873
0.0594181
0.00356109
0.0674148
0.0031781
0.0727443
0.00259156
0.0770175
0.00189115
0.0811951
0.00110192
0.0857027
0.09062
0.000209279
0.000737602
0.00951772
0.00213727
0.0285012
0.00342415
0.045751
0.00416983
0.0586724
0.00434552
0.0672391
0.00411871
0.0729711
0.00366349
0.0774727
0.00308443
0.0817742
0.00242437
0.0863628
0.0913432
0.00170114
0.000758026
0.0087597
0.00227815
0.026981
0.00377307
0.0442561
0.00475061
0.0576948
0.00513215
0.0668575
0.0050713
0.0730319
0.00475304
0.077791
0.00429911
0.0822281
0.00376639
0.0868955
0.0919367
0.00317295
0.000769768
0.00798993
0.00239649
0.0253543
0.0040966
0.0425559
0.00531491
0.0564765
0.00591584
0.0662566
0.0060324
0.0729154
0.00585782
0.0779656
0.00553151
0.0825544
0.00512261
0.0873044
0.0924041
0.00465516
0.000772681
0.00721725
0.0024896
0.0236374
0.00438885
0.0406567
0.00585563
0.0550098
0.00669037
0.0654218
0.00699756
0.0726082
0.00697466
0.0779885
0.00677863
0.0827505
0.00649315
0.0875899
0.0927472
0.00615005
0.000766817
0.00645043
0.00255511
0.0218491
0.00464361
0.0385682
0.00636472
0.0532886
0.0074483
0.0643383
0.00796129
0.0720952
0.0081
0.0778498
0.0080384
0.082812
0.00787728
0.087751
0.0929677
0.00765681
0.000752435
0.00569799
0.00259108
0.0200105
0.00485453
0.0363047
0.00683317
0.05131
0.00818082
0.0629906
0.00891687
0.0713591
0.00922963
0.077537
0.00930848
0.0827332
0.00927347
0.087786
0.0930669
0.00917424
0.000730005
0.00496799
0.00259625
0.0181442
0.00501538
0.0338856
0.00725107
0.0490743
0.00887763
0.0613641
0.00985611
0.0703806
0.0103582
0.0770349
0.0105858
0.0825056
0.0106797
0.0876921
0.0930448
0.0107018
0.000700206
0.00426778
0.00257019
0.0162742
0.00512038
0.0313354
0.00760784
0.0465868
0.00952686
0.059445
0.010769
0.0691385
0.011479
0.0763249
0.0118663
0.0821183
0.0120936
0.0874648
0.0929005
0.0122379
0.000663907
0.00360388
0.00251345
0.0144247
0.00516468
0.0286842
0.00789249
0.043859
0.010115
0.0572225
0.0116434
0.0676102
0.0125832
0.0753851
0.0131448
0.0815567
0.013512
0.0870976
0.0926324
0.0137801
0.000622142
0.00298173
0.00242762
0.0126192
0.00514489
0.0259669
0.0080941
0.0409098
0.0106271
0.0546896
0.0124648
0.0657724
0.01366
0.0741899
0.0144143
0.0808024
0.014931
0.0865809
0.092238
0.0153255
0.000576061
0.00240567
0.00231536
0.0108799
0.00505956
0.0232227
0.00820251
0.0377669
0.0110468
0.0518453
0.0132165
0.0636027
0.0146959
0.0727105
0.0156661
0.0798322
0.0163455
0.0859015
0.0917123
0.0168711
0.000526874
0.0018788
0.00218023
0.00922656
0.00490973
0.0204932
0.00820917
0.0344674
0.0113574
0.0486971
0.0138789
0.0610812
0.015674
0.0709153
0.0168885
0.0786178
0.0177486
0.0850414
0.0910479
0.018413
0.000475787
0.00140301
0.0020265
0.00767584
0.00469922
0.0178205
0.00810825
0.0310584
0.011542
0.0452633
0.0144303
0.0581929
0.0165743
0.0687713
0.0180666
0.0771255
0.0191312
0.0839768
0.0199461
0.000423942
0.00097907
0.00185892
0.00624086
0.00443461
0.0152448
0.00789775
0.0275953
0.0115854
0.0415757
0.0148472
0.0549311
0.0173728
0.0662457
0.0191816
0.0753166
0.000372359
0.00060671
0.00168232
0.0049309
0.00412497
0.0128022
0.0075807
0.0241395
0.0114754
0.037681
0.0151053
0.0513011
0.0180419
0.0633092
0.000321919
0.000284792
0.00150146
0.00375136
0.00378125
0.0105224
0.00716583
0.020755
0.0112049
0.033642
0.0151815
0.000273374
1.14181e-05
0.00132081
0.00270392
0.00341552
0.00842768
0.00666777
0.0175027
0.000227419
-0.000216001
0.00114458
0.00178675
0.00304028
0.00653199
0.000184734
-0.000400735
0.000976806
0.000994683
0.000146152
-0.000546887
0.000319293
0.000112653
-0.000659539
0.0344285
-0.000893821
0.00182063
0.033491
-0.00310348
0.00404096
0.0325332
-0.00560563
0.00656352
0.0315639
-0.00688773
0.00785695
0.0305715
-0.00899145
0.00998392
0.0295448
-0.0100824
0.011109
0.0284722
-0.0124069
0.0134795
0.0273383
-0.0137232
0.0148571
0.0261396
-0.0165335
0.0177322
0.0248685
-0.0181362
0.0194074
0.0235437
-0.0214986
0.0228233
0.0221788
-0.0231355
0.0245004
0.0208256
-0.027092
0.0284452
0.0196055
-0.0281419
0.029362
-0.0331777
0.0346227
0.0345556
-9.40693e-05
0.0337341
-0.002282
0.0328806
-0.00475214
0.0320061
-0.00601323
0.0310973
-0.00808263
0.0301473
-0.00913234
0.0291409
-0.0114004
0.02807
-0.0126524
0.0269229
-0.0153864
0.0257046
-0.0169179
0.0244114
-0.0202054
0.0230841
-0.0218081
0.0217012
-0.0257092
0.0204394
-0.02688
-0.0317182
0.0346776
0.000583689
0.0339691
-0.0015735
0.0332167
-0.00399973
0.0324363
-0.00523288
0.0316106
-0.00725689
0.0307391
-0.00826087
0.0298009
-0.0104622
0.0287957
-0.0116472
0.0277022
-0.014293
0.0265362
-0.0157518
0.0252737
-0.018943
0.0239774
-0.0205118
0.0225796
-0.0243114
0.021283
-0.0255835
-0.0302543
0.034794
0.00114504
0.0341935
-0.000972992
0.0335378
-0.00334406
0.0328478
-0.00454288
0.0321019
-0.00651098
0.0313062
-0.00746513
0.0304338
-0.00958984
0.0294924
-0.0107058
0.028451
-0.0132516
0.0273364
-0.0146372
0.026105
-0.0177116
0.024839
-0.0192457
0.0234369
-0.0229093
0.0221101
-0.0242567
-0.0287543
0.0349045
0.00159584
0.0344068
-0.000475247
0.033843
-0.00278028
0.033239
-0.00393889
0.0325689
-0.00584087
0.0318453
-0.00674151
0.0310353
-0.00877986
0.0301548
-0.00982527
0.0291627
-0.0122594
0.0280973
-0.0135718
0.0268964
-0.0165108
0.0256576
-0.0180069
0.0242573
-0.021509
0.0229037
-0.0229031
-0.0272186
0.035009
0.00194217
0.0346086
-7.48284e-05
0.0341318
-0.00230344
0.0336093
-0.00341645
0.0330109
-0.00524246
0.0323557
-0.00608632
0.0316046
-0.00802877
0.0307818
-0.00900245
0.0298361
-0.0113137
0.0288167
-0.0125524
0.0276455
-0.0153397
0.0264305
-0.0167918
0.0250351
-0.0201136
0.0236589
-0.0215269
-0.0256464
0.0351074
0.00219008
0.0347984
0.000234193
0.0344035
-0.00190858
0.033958
-0.00297094
0.033427
-0.00471142
0.0328363
-0.00549567
0.0321405
-0.00733292
0.0313719
-0.00823387
0.0304697
-0.0104115
0.0294929
-0.0115756
0.0283504
-0.0141972
0.0271561
-0.0155976
0.0257671
-0.0187245
0.024372
-0.0201317
-0.0240385
0.0351994
0.00234607
0.0349762
0.00045733
0.0346579
-0.00159022
0.0342845
-0.00259758
0.0338164
-0.00424331
0.0332862
-0.00496551
0.0326418
-0.00668854
0.0319238
-0.00751581
0.0310622
-0.00954989
0.0301242
-0.0106377
0.0290092
-0.0130821
0.0278331
-0.0144215
0.0264508
-0.0173422
0.0250397
-0.0187206
-0.0223968
0.0352848
0.00241663
0.0351416
0.000600531
0.0348943
-0.00134295
0.0345882
-0.00229142
0.0341784
-0.00383354
0.0337045
-0.00449159
0.0331077
-0.00609177
0.0324363
-0.00684439
0.0316124
-0.00872599
0.0307096
-0.00973491
0.0296204
-0.0119929
0.0284603
-0.0132614
0.0270845
-0.0159664
0.0256595
-0.0172956
-0.0207235
0.0353636
0.00240838
0.0352943
0.000669866
0.0351125
-0.0011612
0.0348685
-0.0020474
0.0345124
-0.00347745
0.0340903
-0.00406952
0.0335373
-0.00553878
0.0329085
-0.0062156
0.0321194
-0.00793684
0.0312482
-0.00886367
0.030183
-0.0109278
0.0290368
-0.0121151
0.0276668
-0.0145964
0.0262297
-0.0158585
-0.0190215
0.0354356
0.00232807
0.035434
0.000671523
0.0353121
-0.00103932
0.035125
-0.00186029
0.0348179
-0.00317034
0.0344432
-0.00369481
0.0339301
-0.00502568
0.0333398
-0.00562534
0.0325824
-0.00717944
0.0317391
-0.00802034
0.030696
-0.00988469
0.0295618
-0.010981
0.0281968
-0.0132314
0.0267489
-0.0144106
-0.0172935
0.0355008
0.0021826
0.0355605
0.000611812
0.0354928
-0.000971552
0.0353573
-0.0017248
0.0350943
-0.00290742
0.0347624
-0.00336284
0.0342852
-0.00454854
0.0337294
-0.00506948
0.0330007
-0.00645074
0.0321818
-0.00720147
0.0311585
-0.00886137
0.0300346
-0.00985713
0.0286738
-0.0118705
0.027216
-0.0129528
-0.0155426
0.035559
0.00197893
0.0356737
0.000497161
0.0356542
-0.000952111
0.0355649
-0.00163548
0.0353414
-0.00268389
0.0350475
-0.00306892
0.0346023
-0.00410341
0.0340767
-0.00454387
0.0333736
-0.00574758
0.0325758
-0.0064037
0.0315699
-0.00785546
0.0304547
-0.00874196
0.0290971
-0.0105129
0.0276304
-0.0114861
-0.0137717
0.0356101
0.00172413
0.0357732
0.000334103
0.0357962
-0.000975136
0.0357476
-0.00158683
0.0355586
-0.00249489
0.0352979
-0.00280831
0.0348809
-0.00368632
0.0343814
-0.00404442
0.0337006
-0.00506674
0.0329207
-0.00562384
0.0319298
-0.00686453
0.0308216
-0.00763384
0.0294664
-0.00915761
0.0279915
-0.0100113
-0.0119834
0.0356541
0.00142535
0.035859
0.000129264
0.0359185
-0.00103472
0.035905
-0.00157324
0.0357456
-0.00233552
0.0355135
-0.00257618
0.0351204
-0.00329321
0.034643
-0.00356703
0.0339812
-0.00440493
0.0332161
-0.0048588
0.0322377
-0.00588611
0.0311351
-0.0065312
0.0297814
-0.00780391
0.0282991
-0.00852898
-0.0101807
0.0356909
0.00108977
0.0359308
-0.000110622
0.036021
-0.00112492
0.0360368
-0.00158904
0.0359021
-0.00220085
0.0356937
-0.00236772
0.0353205
-0.00292
0.0348611
-0.00310767
0.034215
-0.00375878
0.0334618
-0.0041056
0.0324934
-0.00491774
0.0313948
-0.00543257
0.0300419
-0.00645102
0.0285529
-0.00704002
-0.00836593
0.0357205
0.000724659
0.0359886
-0.000378762
0.0361034
-0.00123977
0.0361429
-0.0016285
0.036028
-0.00208592
0.0358383
-0.00217806
0.0354809
-0.00256257
0.0350356
-0.00266235
0.0344017
-0.00312489
0.0336574
-0.00336135
0.0326967
-0.00395698
0.0316006
-0.00433651
0.0302479
-0.00509828
0.028753
-0.00554518
-0.00654155
0.0357427
0.000337326
0.0360323
-0.000668375
0.0361657
-0.00137319
0.036223
-0.00168583
0.0361229
-0.00198574
0.0359471
-0.00200232
0.0356013
-0.00221676
0.0351661
-0.00222713
0.034541
-0.00249982
0.0338029
-0.00262325
0.0328474
-0.00300145
0.0317525
-0.00324167
0.0303993
-0.00374507
0.0288995
-0.00404532
-0.00470976
0.0357576
-6.49114e-05
0.0360618
-0.000972577
0.0362077
-0.00151914
0.0362771
-0.00175522
0.0361867
-0.00189529
0.03602
-0.00183565
0.0356816
-0.00187835
0.0352526
-0.00179812
0.0346328
-0.00188008
0.0338981
-0.00188853
0.0329455
-0.00204881
0.0318506
-0.00214675
0.0304964
-0.00239089
0.0289924
-0.00254132
-0.00287267
0.0357651
0.036077
0.0362294
0.036305
0.0362193
0.0360567
0.0357215
0.0352948
0.034677
0.0339431
0.0329908
0.0318945
0.030539
0.0290316
0.202037
-0.000233634
0.202602
-0.000564516
0.203434
-0.000832257
0.204411
-0.000976848
0.205501
-0.00109007
0.206621
-0.00111984
0.207755
-0.00113426
0.208848
-0.00109307
0.2099
-0.00105132
0.210874
-0.000974355
0.211783
-0.000908543
0.212602
-0.000819754
0.213353
-0.00075062
0.214016
-0.000663493
-0.000601001
0.214617
0.192607
-0.000456712
0.193144
-0.00110168
0.193937
-0.00162463
0.194867
-0.00190762
0.195909
-0.00213167
0.196982
-0.00219245
0.198072
-0.00222469
0.199126
-0.00214683
0.200143
-0.00206832
0.201087
-0.00191892
0.20197
-0.00179162
0.202768
-0.0016175
0.2035
-0.0014825
0.204147
-0.00131076
-0.00118931
0.204736
0.183617
-0.000669711
0.184122
-0.00160716
0.184876
-0.00237806
0.185762
-0.00279384
0.186761
-0.00313131
0.187794
-0.00322514
0.188851
-0.00328178
0.189877
-0.00317217
0.190872
-0.00306402
0.1918
-0.00284664
0.192672
-0.00266341
0.193461
-0.00240662
0.194188
-0.00220952
0.194831
-0.00195401
-0.00177546
0.195417
0.175046
-0.000873107
0.175518
-0.00207938
0.176233
-0.00309268
0.177075
-0.00363584
0.178035
-0.00409155
0.179032
-0.00422165
0.180062
-0.00431179
0.181066
-0.00417665
0.18205
-0.00404795
0.182971
-0.00376763
0.183843
-0.00353509
0.184634
-0.00319796
0.185367
-0.00294273
0.186017
-0.00260329
-0.00237006
0.186611
0.166875
-0.00106725
0.167313
-0.00251655
0.167988
-0.00376806
0.168785
-0.0044328
0.169707
-0.00501322
0.170668
-0.00518332
0.171675
-0.00531833
0.172663
-0.00516494
0.173642
-0.00502681
0.174564
-0.00468921
0.175444
-0.0044153
0.176246
-0.00400006
0.176994
-0.00369136
0.177658
-0.00326715
-0.00298183
0.17827
0.159086
-0.00125228
0.159486
-0.00291668
0.160121
-0.00440349
0.160872
-0.00518297
0.161754
-0.00589555
0.16268
-0.00610947
0.163664
-0.00630273
0.164639
-0.00613919
0.165617
-0.00600484
0.166544
-0.00561634
0.167439
-0.00531059
0.168259
-0.00481967
0.16903
-0.0044631
0.169716
-0.0039528
-0.00361844
0.170353
0.151659
-0.00142804
0.15202
-0.00327789
0.152615
-0.00499811
0.153316
-0.00588364
0.154157
-0.00673655
0.155045
-0.00699775
0.156007
-0.00726439
0.156967
-0.0070994
0.157946
-0.00698411
0.158882
-0.00655187
0.159797
-0.00622569
0.160639
-0.00566188
0.16144
-0.00526433
0.162154
-0.00466635
-0.00428674
0.162822
0.144578
-0.00159402
0.144899
-0.00359867
0.145452
-0.00555105
0.1461
-0.00653144
0.146897
-0.00753339
0.147743
-0.00784446
0.14868
-0.00820111
0.149624
-0.00804359
0.150605
-0.00796478
0.15155
-0.00749676
0.152488
-0.0071637
0.153356
-0.00653036
0.154192
-0.0061003
0.154939
-0.00541303
-0.00499298
0.155645
0.137827
-0.00174927
0.138106
-0.00387834
0.138617
-0.00606137
0.139208
-0.00712258
0.139957
-0.00828275
0.140758
-0.00864491
0.141666
-0.00910938
0.14259
-0.0089681
0.143571
-0.00894528
0.144524
-0.0084502
0.145487
-0.00812617
0.146384
-0.00742741
0.147259
-0.00697524
0.148043
-0.0061972
-0.00574285
0.148793
0.131388
-0.00189243
0.131627
-0.00411728
0.132094
-0.0065279
0.132625
-0.00765344
0.133323
-0.00898119
0.134072
-0.00939372
0.134947
-0.00998471
0.135847
-0.00986783
0.136824
-0.00992255
0.137784
-0.00940976
0.138771
-0.00911323
0.139697
-0.00835398
0.140614
-0.00789232
0.14144
-0.00702239
-0.00654148
0.142238
0.125248
-0.0020218
0.125448
-0.00431709
0.125869
-0.00694905
0.126337
-0.00812106
0.126981
-0.00962529
0.127672
-0.0100852
0.12851
-0.0108219
0.129378
-0.0107364
0.130348
-0.0108921
0.131309
-0.0103714
0.13232
-0.0101236
0.133275
-0.00930972
0.134237
-0.00885372
0.135106
-0.00789135
-0.00739345
0.135958
0.119392
-0.00213552
0.119556
-0.00448055
0.119929
-0.00732272
0.120332
-0.00852375
0.120918
-0.0102117
0.121547
-0.0107136
0.12234
-0.0116154
0.123171
-0.0115667
0.124127
-0.0118485
0.125085
-0.0113298
0.126116
-0.0111544
0.127099
-0.010293
0.128106
-0.00986054
0.129021
-0.00880593
-0.00830278
0.12993
0.113807
-0.00223186
0.113938
-0.00461131
0.114261
-0.00764637
0.114599
-0.00886146
0.115125
-0.0107371
0.115685
-0.0112741
0.116429
-0.0123592
0.117213
-0.0123507
0.118149
-0.012785
0.119098
-0.0122782
0.120145
-0.0122018
0.121153
-0.0113007
0.122205
-0.0109127
0.123166
-0.0097671
-0.00927284
0.124136
0.10848
-0.00230942
0.108582
-0.00471344
0.108853
-0.00791732
0.109128
-0.00913593
0.109589
-0.0111981
0.110077
-0.0117627
0.110766
-0.0130474
0.111495
-0.0130803
0.112405
-0.0136943
0.113335
-0.0132085
0.114393
-0.0132603
0.115421
-0.0123285
0.116518
-0.0120091
0.117525
-0.0107749
-0.0103063
0.118559
0.103401
-0.00236742
0.103478
-0.00479096
0.103694
-0.00813329
0.103909
-0.00935052
0.104302
-0.011591
0.104716
-0.0121772
0.105342
-0.0136736
0.10601
-0.0137478
0.106884
-0.0145684
0.107787
-0.0141117
0.10885
-0.0143231
0.109892
-0.0133707
0.11103
-0.0131472
0.112084
-0.0118282
-0.0114051
0.113183
0.0985572
-0.00240586
0.0986136
-0.00484733
0.0987733
-0.00829296
0.0989324
-0.00950964
0.0992539
-0.0119125
0.0995941
-0.0125175
0.100152
-0.0142312
0.10075
-0.0143462
0.101581
-0.0153988
0.102447
-0.014978
0.103506
-0.0153824
0.104556
-0.0144204
0.105732
-0.014323
0.106829
-0.0129252
-0.0125701
0.107994
0.0939397
-0.0024255
0.0939776
-0.0048852
0.0940811
-0.00839648
0.0941896
-0.00961819
0.0944369
-0.0121598
0.0947044
-0.012785
0.0951866
-0.0147135
0.0957106
-0.0148702
0.0964879
-0.016176
0.097307
-0.0157972
0.0983539
-0.0164293
0.0994024
-0.0154688
0.100611
-0.0155315
0.101748
-0.0140625
-0.0138014
0.10298
0.0895383
-0.00242782
0.0895594
-0.00490626
0.0896085
-0.00844563
0.0896712
-0.00968088
0.0898424
-0.0123309
0.0900403
-0.0129828
0.0904404
-0.0151137
0.0908867
-0.0153164
0.0916005
-0.0168899
0.0923625
-0.0165592
0.093387
-0.0174537
0.0944244
-0.0165062
0.0956589
-0.016766
0.0968323
-0.0152359
-0.015098
0.0981289
0.0853436
-0.00241487
0.0853487
-0.00491136
0.085347
-0.00844386
0.0853679
-0.00970177
0.085463
-0.012426
0.0855951
-0.013115
0.085907
-0.0154255
0.0862743
-0.0156838
0.0869136
-0.0175291
0.0876094
-0.017255
0.0886002
-0.0184445
0.0896152
-0.0175213
0.0908681
-0.0180189
0.092072
-0.0164397
-0.0164577
0.0934316
0.0813464
-0.002389
0.0813357
-0.0049007
0.0812879
-0.00839607
0.0812702
-0.00968405
0.0812913
-0.0124471
0.0813618
-0.0131855
0.0815806
-0.0156443
0.0818697
-0.0159729
0.0824224
-0.0180819
0.0830449
-0.0178775
0.0839891
-0.0193887
0.0849697
-0.0185019
0.0862323
-0.0192815
0.0874592
-0.0176667
-0.0178772
0.0888788
0.0775376
-0.00235266
0.077511
-0.00487409
0.077423
-0.0083081
0.0773689
-0.00963
0.0773202
-0.0123984
0.0773327
-0.013198
0.0774559
-0.0157674
0.0776686
-0.0161856
0.0781229
-0.0185362
0.0786673
-0.0184219
0.0795496
-0.020271
0.0804838
-0.019436
0.0817463
-0.020544
0.0829872
-0.0189076
-0.0193526
0.0844626
0.0739084
-0.00230819
0.0738658
-0.00483146
0.0737438
-0.00818613
0.073655
-0.00954123
0.0735427
-0.0122861
0.0734998
-0.0131551
0.073528
-0.0157956
0.0736665
-0.0163241
0.0740115
-0.0188812
0.0744754
-0.0188859
0.0752781
-0.0210736
0.0761552
-0.0203131
0.0774061
-0.0217949
0.0786502
-0.0201517
-0.0208793
0.0801769
0.0704502
-0.00225756
0.0703918
-0.00477306
0.0702419
-0.00803621
0.0701197
-0.00941903
0.0699515
-0.0121179
0.0698548
-0.0130584
0.0697921
-0.0157329
0.0698579
-0.0163899
0.0700857
-0.019109
0.0704686
-0.0192688
0.0711714
-0.0217765
0.0719834
-0.0211251
0.073208
-0.0230196
0.0744438
-0.0213874
-0.0224533
0.0760177
0.0671548
-0.00220237
0.0670814
-0.00469967
0.0669089
-0.00786375
0.0667549
-0.009265
0.066539
-0.011902
0.0663899
-0.0129093
0.0662436
-0.0155866
0.0662366
-0.0163829
0.0663442
-0.0192166
0.0666454
-0.01957
0.067228
-0.0223591
0.0679702
-0.0218673
0.0691481
-0.0241975
0.070363
-0.0226023
-0.0240747
0.0719844
0.064014
-0.00214372
0.063927
-0.00461266
0.0637366
-0.00767329
0.0635531
-0.00908154
0.0632973
-0.0116462
0.0630975
-0.0127095
0.0628771
-0.0153662
0.0627963
-0.0163021
0.0627864
-0.0192066
0.0630034
-0.019787
0.0634486
-0.0228043
0.0641198
-0.0225384
0.0652231
-0.0253008
0.0664029
-0.0237821
-0.0257519
0.0680801
0.0610205
-0.0020824
0.0609217
-0.00451385
0.0607169
-0.00746845
0.0605073
-0.00887196
0.0602185
-0.0113574
0.059971
-0.012462
0.0596865
-0.0150818
0.0595315
-0.0161471
0.059412
-0.0190872
0.0595392
-0.0199142
0.0598363
-0.0231014
0.0604365
-0.0231386
0.0614324
-0.0262966
0.0625643
-0.024914
-0.0274923
0.0643046
0.0581672
-0.00201893
0.0580586
-0.00440532
0.0578424
-0.0072522
0.0576108
-0.00864036
0.0572948
-0.0110414
0.0570044
-0.0121716
0.0566652
-0.0147425
0.0564374
-0.0159193
0.0562194
-0.0188692
0.0562494
-0.0199441
0.0563957
-0.0232477
0.0569192
-0.0236621
0.0577769
-0.0271543
0.0588646
-0.0260017
-0.0292695
0.0606418
0.0554473
-0.00195377
0.0553312
-0.00428916
0.0551062
-0.00702717
0.054857
-0.00839122
0.054519
-0.0107033
0.0541922
-0.0118449
0.0538066
-0.0143569
0.0535109
-0.0156236
0.0532057
-0.018564
0.0531322
-0.0198706
0.0531307
-0.0232462
0.0535549
-0.0240864
0.0542439
-0.0278433
0.0553361
-0.027094
-0.0309986
0.0570652
0.0528549
-0.00188737
0.0527332
-0.00416748
0.052502
-0.00679603
0.05224
-0.00812923
0.0518851
-0.0103484
0.0515292
-0.011489
0.0511047
-0.0139325
0.0507487
-0.0152676
0.0503656
-0.0181809
0.0501868
-0.0196918
0.0500413
-0.0231007
0.0503299
-0.024375
0.050788
-0.0283014
0.0519641
-0.02827
-0.0326524
0.0536179
0.0503842
0.0502577
0.0500252
0.0497529
0.0493885
0.0490085
0.0485555
0.048145
0.0476963
0.0474119
0.0471345
0.0472599
0.0474038
0.0484957
0.050466
0.213057
0.00156089
0.211558
0.00149874
0.210131
0.001427
0.208778
0.00135262
0.207502
0.00127576
0.206306
0.00119655
0.205191
0.00111512
0.204159
0.00103157
0.203213
0.000946036
0.202355
0.000858638
0.201585
0.000769512
0.200906
0.000678794
0.20032
0.000586625
0.199826
0.000493146
0.199428
0.000398506
0.199125
0.000302852
0.198919
0.000206341
0.19881
0.00010913
0.198798
1.15051e-05
-8.68621e-05
0.198885
0.203244
0.00305233
0.201812
0.0029304
0.20045
0.00278957
0.199159
0.0026436
0.197942
0.0024928
0.196801
0.00233746
0.195738
0.00217781
0.194756
0.00201408
0.193855
0.0018465
0.193039
0.00167533
0.192307
0.00150082
0.191663
0.00132325
0.191107
0.00114288
0.19064
0.000960006
0.190263
0.000774901
0.189978
0.000587859
0.189785
0.000399174
0.189685
0.000209145
0.189679
1.81941e-05
-0.000173802
0.189766
0.193995
0.00447507
0.192629
0.0042962
0.19133
0.00408883
0.190099
0.00387388
0.18894
0.00365195
0.187854
0.00342346
0.186843
0.00318875
0.185909
0.00294812
0.185054
0.00270191
0.184279
0.00245049
0.183585
0.00219424
0.182975
0.00193357
0.182449
0.00166886
0.182008
0.00140052
0.181654
0.00112897
0.181387
0.000854631
0.181209
0.00057793
0.181119
0.000299312
0.181117
1.95126e-05
-0.000262072
0.181205
0.185256
0.00583041
0.183954
0.00559771
0.182717
0.00532632
0.181546
0.00504496
0.180443
0.0047546
0.179411
0.00445586
0.17845
0.00414912
0.177564
0.00383474
0.176752
0.00351317
0.176018
0.00318487
0.175362
0.00285036
0.174785
0.00251014
0.174289
0.00216474
0.173875
0.00181467
0.173544
0.00146047
0.173296
0.00110269
0.173132
0.000741895
0.173052
0.000378648
0.173058
1.40334e-05
-0.000353151
0.173149
0.176981
0.00711947
0.175743
0.00683621
0.174566
0.00650327
0.173453
0.00615796
0.172405
0.00580181
0.171426
0.00543561
0.170515
0.00505976
0.169675
0.00467468
0.168907
0.00428087
0.168213
0.00387893
0.167594
0.00346947
0.167051
0.00305312
0.166585
0.0026305
0.166198
0.00220225
0.165889
0.00176901
0.165661
0.00133146
0.165512
0.000890254
0.165445
0.000446108
0.165458
1.15799e-06
-0.000448472
0.165553
0.169129
0.00834308
0.167953
0.00801265
0.166835
0.0076206
0.16578
0.00721377
0.164787
0.00679437
0.163859
0.00636342
0.162998
0.00592131
0.162204
0.00546846
0.161479
0.00500545
0.160825
0.00453298
0.160243
0.00405178
0.159733
0.00356258
0.159298
0.00306611
0.158937
0.0025631
0.158652
0.00205431
0.158443
0.00154053
0.15831
0.00102253
0.158255
0.000501156
0.158279
-2.22314e-05
-0.000548988
0.158379
0.161663
0.00950179
0.160548
0.00912763
0.15949
0.00867888
0.158491
0.0082129
0.157553
0.00773276
0.156676
0.00723972
0.155863
0.00673413
0.155116
0.00621638
0.154434
0.00568711
0.15382
0.00514713
0.153274
0.00459728
0.152798
0.00403839
0.152393
0.00347128
0.15206
0.00289678
0.151798
0.00231577
0.15161
0.00172911
0.151494
0.0011377
0.151453
0.000542498
0.151486
-5.52474e-05
-0.000656265
0.151593
0.154551
0.0105958
0.153498
0.0101814
0.152498
0.00967834
0.151555
0.00915559
0.150671