/*--------------------------------*- C++ -*----------------------------------*\
  =========                 |
  \\      /  F ield         | OpenFOAM: The Open Source CFD Toolbox
   \\    /   O peration     | Website:  https://openfoam.org
    \\  /    A nd           | Version:  7
     \\/     M anipulation  |
\*---------------------------------------------------------------------------*/
FoamFile
{
    version     2.0;
    format      ascii;
    class       volVectorField;
    location    "175";
    object      U;
}
// * * * * * * * * * * * * * * * * * * * * * * * * * * * * * * * * * * * * * //

dimensions      [0 1 -1 0 0 0 0];

internalField   nonuniform List<vector> 
2125
(
(0.0187821 0.0101634 1.70129e-21)
(0.084925 0.0203018 -4.67937e-21)
(0.185528 0.023185 -5.30235e-21)
(0.0189569 -0.0176754 -1.69393e-21)
(0.0852282 -0.0307396 4.6593e-21)
(0.185889 -0.032089 5.28148e-21)
(0.280999 -0.0291496 -5.05409e-21)
(0.366683 -0.0253605 4.44711e-21)
(0.443036 -0.0217731 2.22575e-21)
(0.510897 -0.0185376 -3.55244e-21)
(0.571283 -0.0156398 -4.12423e-21)
(0.624998 -0.0130354 6.0713e-22)
(0.672743 -0.0106895 -1.71525e-21)
(0.021256 -0.0454199 1.85776e-21)
(0.089298 -0.081633 -5.55069e-21)
(0.190259 -0.0872146 1.24006e-20)
(0.285089 -0.0806655 -1.08841e-20)
(0.370346 -0.0712905 -5.19426e-22)
(0.446288 -0.062336 -7.24102e-21)
(0.513781 -0.0543583 1.17566e-20)
(0.573854 -0.0472963 1.59747e-20)
(0.627314 -0.0410033 2.84736e-21)
(0.674741 -0.0353747 -6.1315e-21)
(0.0256582 -0.0728263 -1.58289e-21)
(0.0971049 -0.132009 -1.1686e-20)
(0.198611 -0.141843 -2.71962e-20)
(0.292869 -0.131749 2.35269e-20)
(0.37727 -0.116848 4.83451e-21)
(0.452391 -0.102575 4.28648e-21)
(0.519159 -0.0898964 -2.10908e-20)
(0.578616 -0.0787044 -1.24501e-20)
(0.631572 -0.0687512 -2.7794e-21)
(0.678395 -0.0598795 1.89273e-20)
(0.0321172 -0.0996537 -5.5749e-21)
(0.108585 -0.181503 7.04263e-21)
(0.210889 -0.195628 4.91639e-20)
(0.304291 -0.182104 -4.42874e-21)
(0.387415 -0.161782 -1.26266e-20)
(0.461313 -0.142275 9.03565e-21)
(0.527001 -0.124966 6.63354e-22)
(0.585543 -0.109702 3.17425e-21)
(0.637749 -0.0961357 -6.96962e-21)
(0.68369 -0.084078 -1.83919e-20)
(0.0405622 -0.125667 -3.75205e-21)
(0.123639 -0.229757 2.04232e-20)
(0.227002 -0.24823 -4.93786e-20)
(0.319281 -0.231441 2.13429e-20)
(0.400719 -0.205846 2.10042e-22)
(0.473 -0.181224 -2.70466e-20)
(0.537262 -0.159384 1.19675e-20)
(0.594593 -0.140132 -1.12726e-21)
(0.645808 -0.123018 4.53568e-21)
(0.690602 -0.107852 -1.31663e-21)
(0.0508983 -0.150639 -4.28856e-20)
(0.142135 -0.27642 -5.13056e-20)
(0.246833 -0.299316 1.34881e-20)
(0.337743 -0.279475 -2.44521e-20)
(0.417102 -0.248799 -6.86645e-21)
(0.487384 -0.219215 1.0318e-20)
(0.549882 -0.192973 3.81416e-21)
(0.605713 -0.169838 1.40888e-20)
(0.655702 -0.149262 -3.03054e-21)
(0.699099 -0.131086 1.63834e-20)
(0.0630075 -0.174352 4.09967e-20)
(0.163908 -0.321156 2.63559e-20)
(0.270233 -0.348565 -1.98512e-20)
(0.359553 -0.32593 3.33927e-20)
(0.436461 -0.290407 -2.78705e-21)
(0.504376 -0.256048 -3.60582e-20)
(0.564785 -0.22556 6.3122e-21)
(0.618838 -0.198673 -3.82913e-20)
(0.667371 -0.174737 1.52778e-21)
(0.70914 -0.153665 1.38388e-20)
(0.0767496 -0.196601 -3.01908e-20)
(0.18876 -0.363643 5.41125e-20)
(0.297023 -0.395669 2.1215e-20)
(0.384565 -0.370543 -2.63985e-20)
(0.458675 -0.330447 3.17038e-22)
(0.523874 -0.291531 6.63244e-20)
(0.581884 -0.256979 2.94722e-21)
(0.633887 -0.226492 2.93129e-20)
(0.680746 -0.199317 3.56502e-20)
(0.720678 -0.175476 -1.99561e-20)
(0.0919635 -0.217195 1.69142e-20)
(0.216463 -0.403575 -8.11986e-21)
(0.326999 -0.440331 -1.91887e-20)
(0.412609 -0.413061 1.42386e-20)
(0.483604 -0.368705 5.53074e-20)
(0.545759 -0.325481 -1.95376e-20)
(0.601074 -0.287073 -3.24706e-21)
(0.650772 -0.253161 -4.21469e-20)
(0.695749 -0.222883 -5.20154e-20)
(0.733659 -0.19641 2.2764e-20)
(0.108468 -0.235961 -2.21375e-20)
(0.24676 -0.440668 -1.94126e-20)
(0.359927 -0.482276 3.31955e-21)
(0.443494 -0.453245 -7.54441e-20)
(0.511089 -0.40498 -3.20473e-20)
(0.569897 -0.357726 -2.34395e-20)
(0.622242 -0.315694 -3.06885e-20)
(0.669391 -0.278552 1.43387e-20)
(0.712293 -0.245323 1.70092e-20)
(0.74802 -0.216362 2.52631e-20)
(0.126066 -0.252743 4.79439e-21)
(0.279367 -0.474658 2.76701e-20)
(0.39555 -0.521244 2.0366e-20)
(0.477009 -0.490873 3.47975e-20)
(0.540956 -0.439085 2.74209e-20)
(0.596139 -0.388108 -2.60851e-20)
(0.64526 -0.342705 2.4351e-20)
(0.689636 -0.302549 1.68067e-20)
(0.730281 -0.266535 -1.95059e-21)
(0.763695 -0.235234 -7.66966e-21)
(0.144541 -0.267403 4.85753e-20)
(0.31397 -0.505307 -2.41067e-20)
(0.433584 -0.556997 -1.86645e-20)
(0.512922 -0.525741 -1.0822e-20)
(0.573015 -0.470847 2.02178e-20)
(0.624324 -0.416478 1.84698e-20)
(0.669991 -0.36798 -2.57969e-20)
(0.711385 -0.325045 1.97752e-20)
(0.749613 -0.286428 8.87221e-22)
(0.780612 -0.252933 1.82783e-20)
(0.163665 -0.27983 -3.32349e-20)
(0.350236 -0.532404 -1.24518e-20)
(0.473725 -0.58932 -1.93108e-21)
(0.550983 -0.557661 1.98425e-20)
(0.607061 -0.500112 -3.92682e-21)
(0.654281 -0.442705 -1.96449e-20)
(0.696286 -0.391406 5.51086e-21)
(0.73451 -0.345947 5.8596e-21)
(0.770178 -0.304922 1.40898e-20)
(0.798699 -0.269378 -2.80879e-20)
(0.183196 -0.289931 -1.21196e-20)
(0.387807 -0.555765 2.9121e-20)
(0.515645 -0.618022 2.30356e-20)
(0.590924 -0.586469 -1.07482e-20)
(0.642876 -0.526739 -2.45144e-20)
(0.685825 -0.466672 -1.7904e-20)
(0.723987 -0.412882 2.10143e-20)
(0.758874 -0.36517 -4.22651e-20)
(0.791863 -0.321951 1.06367e-20)
(0.817879 -0.284499 2.94465e-20)
(0.202886 -0.297641 2.56204e-20)
(0.426307 -0.575238 -1.55e-20)
(0.559 -0.642938 3.01921e-21)
(0.632464 -0.612018 3.46562e-22)
(0.680229 -0.55061 -5.5686e-21)
(0.718765 -0.488278 3.00515e-20)
(0.75293 -0.432321 -2.67244e-20)
(0.784328 -0.382645 2.59227e-20)
(0.814544 -0.337471 -3.93013e-20)
(0.838083 -0.298245 -1.48372e-20)
(0.222477 -0.302919 -9.4239e-24)
(0.465343 -0.590704 -1.56187e-20)
(0.603424 -0.663929 4.06351e-22)
(0.675304 -0.634187 -5.30687e-21)
(0.718882 -0.571622 -3.1454e-21)
(0.752901 -0.507437 3.8234e-23)
(0.782944 -0.44965 -1.66316e-20)
(0.810712 -0.398309 -1.17247e-21)
(0.83808 -0.351435 2.36326e-20)
(0.859248 -0.31058 -2.96506e-20)
(0.241706 -0.305753 5.77956e-21)
(0.504507 -0.602078 8.8488e-21)
(0.648539 -0.680886 -1.21235e-20)
(0.719136 -0.652875 -4.46162e-21)
(0.758583 -0.589696 4.24388e-20)
(0.788028 -0.524084 -3.54882e-20)
(0.813857 -0.464812 3.67454e-20)
(0.837858 -0.412126 9.15822e-22)
(0.862312 -0.363872 7.14822e-21)
(0.881339 -0.321575 2.72198e-20)
(0.260313 -0.306156 2.61737e-21)
(0.543381 -0.609309 -4.13525e-21)
(0.693952 -0.693728 3.14028e-21)
(0.763639 -0.668008 2.98878e-21)
(0.799077 -0.604768 -3.32814e-21)
(0.823935 -0.538167 1.44014e-20)
(0.845502 -0.477751 -8.2455e-21)
(0.865602 -0.424003 9.21038e-21)
(0.887013 -0.374613 -3.29204e-21)
(0.904345 -0.331078 -1.84823e-21)
(0.278034 -0.304172 -7.45431e-21)
(0.58154 -0.612385 -5.24236e-21)
(0.739259 -0.702405 2.75193e-21)
(0.808484 -0.679535 2.3975e-21)
(0.840099 -0.616801 -9.32549e-21)
(0.8604 -0.549659 2.3068e-20)
(0.877705 -0.488461 -2.11123e-20)
(0.893769 -0.434019 1.55483e-20)
(0.9118 -0.384095 -1.32929e-20)
(0.928133 -0.340342 -1.71179e-20)
(0.294614 -0.29987 -4.42449e-21)
(0.618555 -0.611331 3.61368e-21)
(0.784046 -0.706896 -2.36438e-21)
(0.853335 -0.68743 5.40705e-22)
(0.881385 -0.625772 -1.0623e-21)
(0.897203 -0.558538 -1.49575e-20)
(0.910321 -0.496882 5.30416e-21)
(0.922371 -0.441904 -4.58888e-21)
(0.936491 -0.391207 1.3637e-20)
(0.953224 -0.3459 -3.49002e-21)
(0.309802 -0.293352 -1.02901e-20)
(0.653994 -0.60621 -8.80234e-21)
(0.827893 -0.707212 3.75117e-21)
(0.897848 -0.691694 5.0858e-22)
(0.922668 -0.631684 -2.30324e-21)
(0.934114 -0.564819 1.41876e-21)
(0.943137 -0.503065 3.58612e-21)
(0.951377 -0.447972 -9.16046e-21)
(0.960575 -0.39835 -9.74793e-21)
(0.97542 -0.357042 6.98545e-21)
(0.323368 -0.284748 -8.33957e-21)
(0.687424 -0.597119 1.85557e-20)
(0.870373 -0.703399 -1.41218e-20)
(0.941678 -0.692356 -3.41792e-21)
(0.963682 -0.634557 -5.96989e-21)
(0.970912 -0.568523 4.23549e-21)
(0.975878 -0.50704 -2.59225e-21)
(0.980554 -0.452125 3.00557e-21)
(0.985282 -0.403424 -1.77278e-21)
(0.995043 -0.362048 8.30105e-22)
(0.335123 -0.274227 -2.22588e-20)
(0.718405 -0.584187 -4.35344e-20)
(0.911063 -0.69554 3.55415e-20)
(0.984478 -0.689471 2.56305e-21)
(1.00416 -0.634428 -5.64972e-22)
(1.0074 -0.569672 6.30659e-21)
(1.00835 -0.508794 3.54236e-21)
(1.00961 -0.454211 -1.23238e-22)
(1.01066 -0.406177 6.08516e-21)
(1.01533 -0.364862 4.6777e-21)
(0.344872 -0.261917 2.12024e-20)
(0.746499 -0.567556 -9.27999e-21)
(0.949555 -0.683787 -2.64718e-20)
(1.0259 -0.683115 2.59279e-21)
(1.04385 -0.63135 1.707e-21)
(1.04339 -0.568308 -1.81764e-20)
(1.04042 -0.508364 9.25514e-21)
(1.03835 -0.454326 -3.5134e-22)
(1.03635 -0.407019 -4.29686e-23)
(1.03705 -0.366274 -5.60716e-22)
(0.352389 -0.247951 2.66445e-20)
(0.771186 -0.547392 6.68083e-20)
(0.985498 -0.66835 -1.94327e-21)
(1.06561 -0.673378 -5.15011e-21)
(1.08248 -0.625404 -2.61769e-21)
(1.0787 -0.564507 -3.24427e-21)
(1.07199 -0.505832 -1.12281e-20)
(1.06665 -0.452608 4.11872e-21)
(1.0619 -0.406165 9.07195e-21)
(1.05938 -0.36626 9.40289e-22)
(0.357572 -0.232552 -1.9911e-20)
(0.792083 -0.524091 -1.14562e-20)
(1.01849 -0.649489 5.00791e-20)
(1.1033 -0.660308 8.93834e-22)
(1.1198 -0.616687 -1.88328e-20)
(1.11313 -0.55836 3.10633e-20)
(1.10292 -0.501284 6.61493e-21)
(1.09443 -0.449149 2.02518e-21)
(1.08705 -0.403683 -4.70167e-21)
(1.0816 -0.364765 -5.51217e-21)
(0.360375 -0.216022 4.75177e-20)
(0.809031 -0.498106 -1.05488e-20)
(1.04783 -0.62724 -3.31322e-20)
(1.13865 -0.644047 3.00687e-21)
(1.15555 -0.605331 2.33745e-20)
(1.1465 -0.549972 -8.44485e-21)
(1.13307 -0.49481 -9.57526e-21)
(1.12156 -0.44402 -3.36057e-22)
(1.11168 -0.399639 -5.48837e-21)
(1.10345 -0.361832 3.06146e-21)
(0.360721 -0.198663 -1.68673e-20)
(0.821846 -0.469659 -1.05085e-19)
(1.073 -0.601788 9.16505e-21)
(1.17127 -0.624894 3.78155e-20)
(1.18947 -0.591418 -1.25626e-21)
(1.17861 -0.539447 -4.69201e-20)
(1.16229 -0.486507 2.61844e-20)
(1.14795 -0.437303 -8.66179e-21)
(1.13568 -0.394125 1.12928e-20)
(1.12485 -0.357564 3.04452e-21)
(0.35854 -0.180733 -2.06501e-20)
(0.830222 -0.439022 3.67443e-20)
(1.09388 -0.573523 4.70896e-20)
(1.20063 -0.602986 -2.80524e-20)
(1.22132 -0.575096 7.19192e-21)
(1.20929 -0.526925 2.81916e-20)
(1.19044 -0.476484 1.12291e-20)
(1.17346 -0.429091 4.66247e-21)
(1.15895 -0.387242 -9.55119e-21)
(1.14572 -0.352053 -9.06284e-21)
(0.353818 -0.162491 -2.80394e-20)
(0.833869 -0.406577 -1.03582e-20)
(1.11025 -0.542731 -8.78672e-20)
(1.22639 -0.578527 -1.19576e-20)
(1.25081 -0.556579 1.51025e-21)
(1.23835 -0.512521 4.35111e-21)
(1.21739 -0.464858 -4.97639e-20)
(1.19801 -0.419486 -2.26086e-20)
(1.18142 -0.379082 5.34486e-22)
(1.16596 -0.345373 7.13965e-21)
(0.346597 -0.144197 -7.69103e-21)
(0.832567 -0.372741 3.32981e-20)
(1.12174 -0.509718 4.43244e-20)
(1.24835 -0.551774 2.52996e-20)
(1.27763 -0.536019 -5.47972e-21)
(1.26562 -0.496389 -5.08669e-21)
(1.24302 -0.451755 3.89633e-20)
(1.2215 -0.408596 3.8096e-20)
(1.203 -0.369742 5.12856e-21)
(1.18549 -0.337587 -5.25236e-21)
(0.336966 -0.126106 7.33073e-20)
(0.826176 -0.337947 4.58215e-20)
(1.128 -0.474827 -4.41674e-20)
(1.26617 -0.52296 -7.86448e-21)
(1.30156 -0.513599 4.01626e-21)
(1.29094 -0.47869 -1.26333e-20)
(1.26723 -0.437307 -2.25077e-20)
(1.24383 -0.396536 -1.72667e-21)
(1.22365 -0.359314 -2.31602e-20)
(1.20426 -0.328768 1.03814e-20)
(0.325057 -0.108468 9.33866e-21)
(0.814633 -0.302642 -2.51022e-20)
(1.12873 -0.43843 5.79848e-20)
(1.27952 -0.492337 3.38265e-20)
(1.32236 -0.48951 1.60823e-21)
(1.31413 -0.459579 1.84955e-20)
(1.28995 -0.421642 1.92025e-21)
(1.26496 -0.38342 -1.65309e-20)
(1.24328 -0.347902 1.27608e-20)
(1.22223 -0.318991 1.19523e-21)
(0.311046 -0.0915195 -6.11989e-20)
(0.797947 -0.267283 -1.79522e-20)
(1.12369 -0.400919 -1.53091e-20)
(1.28807 -0.460176 -2.38517e-20)
(1.33974 -0.463942 6.13878e-21)
(1.33503 -0.439214 -1.09232e-22)
(1.31106 -0.404898 1.38024e-20)
(1.28487 -0.36937 -3.42155e-21)
(1.26177 -0.335587 -1.44969e-20)
(1.2395 -0.308385 -1.19435e-20)
(0.295147 -0.0754776 4.95338e-21)
(0.776207 -0.232335 2.88753e-20)
(1.1127 -0.362706 1.34836e-20)
(1.2915 -0.426762 -3.85225e-20)
(1.35345 -0.437086 -8.06584e-22)
(1.35344 -0.417744 -1.44727e-20)
(1.33045 -0.387206 2.72976e-22)
(1.30348 -0.35444 5.11742e-21)
(1.27911 -0.322538 -5.84941e-21)
(1.25614 -0.297052 1.67801e-20)
(0.277613 -0.060536 1.15257e-20)
(0.749588 -0.19826 -2.81724e-20)
(1.0956 -0.324215 -6.40188e-20)
(1.2895 -0.392392 5.57566e-20)
(1.36318 -0.409139 -3.63231e-21)
(1.3692 -0.395314 1.03398e-20)
(1.34801 -0.368699 -1.37416e-21)
(1.32077 -0.338779 8.96622e-21)
(1.29541 -0.308972 -7.16755e-22)
(1.27185 -0.285051 -1.31014e-20)
(0.258728 -0.046858 -2.31955e-20)
(0.718359 -0.165509 3.62983e-20)
(1.07232 -0.285882 2.91614e-20)
(1.28178 -0.357371 -3.98754e-20)
(1.36864 -0.380298 -6.36893e-21)
(1.38208 -0.372067 2.17051e-21)
(1.36367 -0.349504 2.23664e-20)
(1.33667 -0.32251 8.20541e-22)
(1.3106 -0.294877 4.1746e-21)
(1.28632 -0.272433 -8.43128e-21)
(0.238799 -0.0345732 1.75739e-20)
(0.682886 -0.134509 -1.57573e-20)
(1.04287 -0.248149 -1.30669e-20)
(1.26807 -0.322015 2.16261e-20)
(1.36948 -0.350766 7.06812e-21)
(1.39187 -0.348142 5.26738e-21)
(1.37729 -0.329738 -2.34668e-20)
(1.35115 -0.305724 -8.19591e-21)
(1.32464 -0.280266 -6.93065e-21)
(1.29968 -0.259268 2.75804e-21)
(0.218151 -0.0237749 -8.50767e-21)
(0.643637 -0.105653 -1.8449e-22)
(1.00733 -0.211455 2.46499e-20)
(1.2481 -0.286649 -8.80998e-21)
(1.36538 -0.320746 -3.89002e-21)
(1.39829 -0.323671 -2.4924e-21)
(1.38874 -0.309503 5.95919e-21)
(1.36415 -0.288511 9.97256e-21)
(1.33756 -0.265214 -4.95297e-22)
(1.3121 -0.24563 3.68188e-21)
(0.197116 -0.0145177 5.95883e-21)
(0.601173 -0.0792842 -1.66684e-21)
(0.96589 -0.176234 -4.39793e-21)
(1.22168 -0.251609 -3.92876e-21)
(1.35596 -0.290447 3.47802e-21)
(1.40105 -0.298778 2.70504e-21)
(1.39786 -0.288892 -2.46529e-21)
(1.37562 -0.270962 8.71174e-22)
(1.34937 -0.249825 1.24392e-21)
(1.32368 -0.231596 -1.64869e-21)
(0.176025 -0.00681673 3.07458e-21)
(0.556134 -0.0556874 8.92118e-22)
(0.918877 -0.142907 -5.37443e-21)
(1.18865 -0.217237 -4.35513e-21)
(1.34085 -0.26008 4.60542e-21)
(1.39977 -0.273584 9.31961e-22)
(1.40443 -0.267992 -2.19837e-21)
(1.38548 -0.253161 2.06509e-21)
(1.36008 -0.234191 1.18649e-21)
(1.33441 -0.217235 -1.39567e-21)
(0.155197 -0.000647822 -1.2326e-21)
(0.509234 -0.0350782 2.47759e-21)
(0.866735 -0.111876 1.64549e-20)
(1.14893 -0.183883 -7.61112e-21)
(1.31964 -0.229867 -3.74233e-21)
(1.39407 -0.248208 -4.38488e-21)
(1.40818 -0.246876 9.20869e-21)
(1.39363 -0.235173 6.63988e-21)
(1.36965 -0.218389 5.29566e-21)
(1.3443 -0.202614 2.87852e-21)
(0.13493 0.00404974 2.40164e-20)
(0.461234 -0.0175936 -1.3354e-20)
(0.810064 -0.0835083 -1.57009e-20)
(1.10254 -0.151902 2.19745e-20)
(1.29197 -0.200039 1.22198e-20)
(1.38347 -0.222769 -8.7934e-22)
(1.40877 -0.225609 -1.64318e-20)
(1.39989 -0.217049 -1.16108e-20)
(1.37804 -0.202482 -1.30396e-20)
(1.35333 -0.18779 8.31e-21)
(0.115496 0.00736947 -3.2338e-20)
(0.412923 -0.00328588 3.06233e-20)
(0.749611 -0.0581324 3.63947e-20)
(1.04963 -0.121653 -3.78476e-20)
(1.25748 -0.170839 -1.36478e-20)
(1.36746 -0.197392 9.61326e-21)
(1.4058 -0.204247 1.7651e-20)
(1.40403 -0.198826 3.21311e-21)
(1.38516 -0.186513 -9.33028e-22)
(1.36149 -0.172811 -1.21561e-20)
(0.0971295 0.00943235 -4.4939e-21)
(0.365083 0.00788106 -4.28766e-20)
(0.686274 -0.0360187 -4.76641e-20)
(0.990505 -0.0934938 5.74291e-20)
(1.21584 -0.142532 -6.88548e-21)
(1.34546 -0.17221 1.46114e-20)
(1.39874 -0.182842 3.23335e-21)
(1.40575 -0.180525 -8.13396e-21)
(1.3909 -0.170508 4.55566e-21)
(1.36876 -0.157712 -1.93099e-21)
(0.0800223 0.0103806 9.26296e-21)
(0.318461 0.0160296 2.64444e-20)
(0.62108 -0.0173663 1.56412e-20)
(0.925682 -0.0677757 -1.24717e-20)
(1.16686 -0.115401 -2.2414e-20)
(1.31688 -0.147376 -2.24127e-20)
(1.387 -0.16145 -5.01099e-21)
(1.40463 -0.162156 1.57476e-20)
(1.39506 -0.154478 -3.43371e-21)
(1.37507 -0.142516 7.30863e-21)
(0.064322 0.0103707 -3.50155e-20)
(0.273738 0.0213618 -3.3417e-20)
(0.555154 -0.00228642 -5.96291e-21)
(0.855902 -0.0448353 -6.71561e-21)
(1.11047 -0.0897559 -1.80545e-20)
(1.28111 -0.123069 1.21198e-20)
(1.36986 -0.140134 -1.70659e-21)
(1.40014 -0.143725 -1.32886e-20)
(1.39736 -0.138417 1.24563e-20)
(1.38033 -0.127225 -2.31902e-20)
(0.0501295 0.00956702 7.96412e-21)
(0.231503 0.0241466 2.88329e-20)
(0.489668 0.00921146 2.73911e-20)
(0.782158 -0.0249808 3.21399e-20)
(1.0468 -0.0659299 -7.10605e-22)
(1.2376 -0.099503 3.70155e-20)
(1.34653 -0.118979 4.42677e-21)
(1.39162 -0.125234 -5.38188e-20)
(1.39739 -0.122308 4.16473e-20)
(1.38435 -0.111826 1.47116e-20)
(0.0374996 0.00813491 2.27292e-20)
(0.192232 0.0247029 5.25655e-20)
(0.425775 0.0172275 -7.11238e-21)
(0.705693 -0.00847427 -4.14248e-20)
(0.976262 -0.0442806 2.02978e-20)
(1.18588 -0.0769371 -2.41698e-20)
(1.31616 -0.0981031 -4.0114e-20)
(1.37824 -0.106697 -8.22462e-21)
(1.39463 -0.106123 -4.01056e-20)
(0.0264438 0.00623464 1.15434e-20)
(0.156275 0.0233782 1.00456e-20)
(0.364547 0.0219691 7.56742e-20)
(0.627961 0.00449211 1.72533e-20)
(0.89963 -0.0251818 -1.72843e-20)
(1.12568 -0.0556811 -9.14822e-21)
(1.27787 -0.0776688 6.93535e-20)
(1.35907 -0.088146 6.36425e-20)
(0.0169343 0.0040154 2.97307e-21)
(0.123856 0.0205263 -5.55991e-20)
(0.306911 0.0237344 -9.10224e-20)
(0.550561 0.0138207 5.50663e-21)
(0.81806 -0.00901048 2.64041e-20)
(1.05706 -0.0361014 -3.92734e-20)
(1.23084 -0.0578998 -1.13648e-19)
(0.0089076 0.00160923 -2.11055e-20)
(0.0950749 0.0164841 5.69718e-20)
(0.253603 0.0228816 5.73019e-20)
(0.475118 0.0195287 -6.49167e-20)
(0.733134 0.00387661 9.23275e-21)
(0.00226927 -0.00087502 -5.09114e-20)
(0.0699178 0.0115511 -8.85218e-20)
(0.20515 0.0197899 -1.91336e-20)
(0.403169 0.0217543 3.5855e-20)
(-0.00310218 -0.0033574 3.82806e-20)
(0.0482713 0.00597212 2.52332e-22)
(0.161866 0.0148203 -9.32407e-21)
(-0.00735156 -0.00579168 -1.29146e-20)
(0.0299372 -7.38592e-05 -2.27459e-20)
(-0.010642 -0.00816783 8.94254e-20)
(0.0146482 -0.00647663 7.05485e-20)
(-0.013148 -0.0105104 1.76265e-20)
(0.998551 -0.00429383 -1.39338e-22)
(0.9988 -0.00944749 6.30714e-22)
(0.992754 -0.0167855 3.11621e-22)
(0.989449 -0.021683 1.46505e-22)
(0.980114 -0.0309965 3.04142e-22)
(0.974228 -0.0385071 -1.31366e-21)
(0.962069 -0.0530818 -1.7891e-21)
(0.954823 -0.0658402 5.87616e-22)
(0.941051 -0.0887497 1.87135e-21)
(0.934879 -0.10868 2.2357e-21)
(0.922064 -0.142963 3.83685e-21)
(0.921529 -0.170034 -9.43431e-22)
(0.91439 -0.219135 -5.51195e-21)
(0.926657 -0.248144 -1.36988e-21)
(0.937078 -0.322632 3.60685e-21)
(0.998603 -0.00414613 -7.98477e-22)
(0.998662 -0.00910281 3.03921e-22)
(0.99266 -0.0161611 -5.10859e-22)
(0.98904 -0.0207548 1.40356e-21)
(0.979659 -0.0296805 -1.26139e-21)
(0.973248 -0.0366939 1.49538e-22)
(0.960844 -0.0506899 1.89462e-21)
(0.952663 -0.0627078 -3.01353e-21)
(0.938246 -0.0848611 1.36323e-21)
(0.930384 -0.103907 -5.02143e-21)
(0.916209 -0.137539 5.73279e-21)
(0.912677 -0.164065 -5.98058e-21)
(0.903104 -0.213295 -8.3876e-22)
(0.909548 -0.243172 6.92323e-21)
(0.914839 -0.317273 -1.61693e-21)
(0.998652 -0.00400374 1.06068e-21)
(0.998535 -0.0087378 7.47802e-22)
(0.992588 -0.0154935 9.10992e-22)
(0.988686 -0.0197638 -6.85537e-22)
(0.979277 -0.0282669 -7.1682e-22)
(0.972411 -0.0347574 2.68506e-21)
(0.959799 -0.0481136 -1.47997e-21)
(0.950816 -0.0593423 4.1602e-21)
(0.935819 -0.0806018 -2.58008e-21)
(0.926488 -0.098634 -1.27094e-21)
(0.911057 -0.131238 -1.77258e-21)
(0.904825 -0.156909 1.50383e-21)
(0.892975 -0.205246 4.17081e-21)
(0.894556 -0.235846 -1.16382e-20)
(0.895096 -0.307498 1.28018e-20)
(0.9987 -0.00387094 1.53141e-22)
(0.998419 -0.00837309 -1.23861e-21)
(0.992528 -0.0148314 -2.32713e-21)
(0.988367 -0.0188 4.08687e-22)
(0.978942 -0.026887 -8.06007e-23)
(0.971667 -0.0328913 7.64404e-22)
(0.958872 -0.0456149 2.32366e-21)
(0.949172 -0.0561015 -1.56818e-21)
(0.933647 -0.0764404 2.03297e-21)
(0.922975 -0.0934911 -4.1022e-21)
(0.906383 -0.124883 2.771e-21)
(0.897623 -0.149656 1.88304e-21)
(0.883542 -0.196492 4.58337e-21)
(0.880725 -0.227512 -7.90861e-21)
(0.876636 -0.296888 2.59033e-22)
(0.998747 -0.00372564 -1.34803e-21)
(0.998311 -0.00799756 -3.25153e-22)
(0.992475 -0.014161 -3.2364e-22)
(0.988075 -0.0178332 1.81583e-21)
(0.97864 -0.025492 3.34721e-23)
(0.97099 -0.0310161 -2.83565e-22)
(0.958033 -0.0430851 -1.6388e-21)
(0.94767 -0.0528356 -1.37928e-22)
(0.931665 -0.0722038 5.20498e-21)
(0.919736 -0.0882761 -6.07602e-21)
(0.902065 -0.118321 1.9489e-21)
(0.890912 -0.142168 2.98397e-21)
(0.874648 -0.187207 9.80402e-22)
(0.867731 -0.218235 -4.47871e-21)
(0.859206 -0.285342 9.71405e-23)
(0.998793 -0.0035737 2.47635e-22)
(0.998209 -0.00764451 2.22126e-22)
(0.992427 -0.0134784 7.72432e-22)
(0.987804 -0.0168555 -1.01075e-21)
(0.978364 -0.0240701 2.87056e-22)
(0.970363 -0.029117 -7.9408e-22)
(0.957265 -0.0405042 4.2496e-22)
(0.946278 -0.0495222 -1.82431e-21)
(0.92984 -0.0678631 3.52973e-21)
(0.916716 -0.0829555 -7.85044e-23)
(0.89804 -0.111523 -6.41561e-21)
(0.884625 -0.134386 4.07233e-22)
(0.866244 -0.177386 6.91098e-21)
(0.855476 -0.208032 1.62404e-22)
(0.842717 -0.272617 -8.05558e-21)
(0.998836 -0.00341897 2.15699e-22)
(0.998114 -0.00730787 -1.285e-21)
(0.992387 -0.012784 -9.67691e-22)
(0.98755 -0.0158702 1.15867e-21)
(0.978111 -0.0226256 -8.30718e-22)
(0.969779 -0.0272023 6.75703e-22)
(0.956558 -0.0378821 -3.58682e-22)
(0.944978 -0.0461761 -4.09793e-22)
(0.928151 -0.0634356 2.70534e-21)
(0.913892 -0.0775475 -5.43731e-21)
(0.894278 -0.104516 4.37315e-21)
(0.878738 -0.12632 6.14099e-21)
(0.858323 -0.167077 -7.62989e-21)
(0.843936 -0.19699 -1.44188e-21)
(0.827151 -0.258751 -6.90322e-21)
(0.998878 -0.00326184 -1.2116e-22)
(0.998025 -0.00695355 7.9995e-22)
(0.992352 -0.012078 -8.86931e-22)
(0.987311 -0.0148793 2.07392e-21)
(0.97788 -0.0211605 -2.23687e-21)
(0.96923 -0.0252751 -2.28859e-21)
(0.955907 -0.0352217 -5.71613e-22)
(0.943761 -0.042801 2.73463e-22)
(0.926584 -0.0589271 -2.12757e-21)
(0.911255 -0.0720546 2.41454e-21)
(0.890763 -0.0973209 2.59712e-21)
(0.873241 -0.11798 -9.31748e-22)
(0.85089 -0.156325 -3.23449e-21)
(0.83311 -0.18519 6.75241e-21)
(0.81252 -0.243815 -6.52787e-21)
(0.998917 -0.00310158 -5.26702e-22)
(0.997943 -0.00659493 4.98442e-21)
(0.992323 -0.0113615 1.15377e-22)
(0.987086 -0.0138837 1.03446e-21)
(0.977668 -0.0196752 -1.8653e-22)
(0.968714 -0.0233363 3.09035e-21)
(0.955307 -0.0325234 4.80566e-22)
(0.942624 -0.0393971 4.72897e-23)
(0.925131 -0.0543413 -3.31174e-21)
(0.908799 -0.0664761 -6.00861e-22)
(0.887487 -0.0899522 2.93624e-21)
(0.86813 -0.109375 -4.22574e-21)
(0.843957 -0.145162 -3.20414e-21)
(0.82301 -0.172699 3.82663e-21)
(0.79885 -0.227875 -3.31123e-21)
(0.998955 -0.00293838 1.31446e-21)
(0.997866 -0.00623575 -2.80094e-21)
(0.992299 -0.010634 1.50257e-21)
(0.986874 -0.0128843 -2.14104e-21)
(0.977475 -0.0181701 -7.92649e-22)
(0.96823 -0.0213869 4.47872e-22)
(0.954756 -0.0297888 -1.63159e-21)
(0.941567 -0.035965 2.87655e-21)
(0.923789 -0.049683 1.56567e-21)
(0.906527 -0.0608125 -8.95079e-22)
(0.884451 -0.0824245 2.75922e-21)
(0.863405 -0.100518 -5.212e-21)
(0.837535 -0.13362 9.09145e-21)
(0.813653 -0.159579 -6.36793e-21)
(0.786173 -0.211003 -3.26073e-21)
(0.99899 -0.00277254 -9.34932e-22)
(0.997796 -0.00587597 1.26794e-22)
(0.992279 -0.00989486 1.30761e-23)
(0.986675 -0.0118825 1.987e-21)
(0.9773 -0.0166462 4.96081e-22)
(0.96778 -0.0194279 -9.16809e-22)
(0.954251 -0.0270195 1.06146e-21)
(0.94059 -0.0325052 -2.09479e-21)
(0.922554 -0.0449579 8.85642e-22)
(0.90444 -0.0550651 5.8884e-22)
(0.881656 -0.0747516 -2.72267e-21)
(0.859071 -0.0914239 2.06249e-21)
(0.831636 -0.121726 5.45177e-21)
(0.805058 -0.145886 -2.66238e-21)
(0.774519 -0.193274 -7.2591e-21)
(0.999024 -0.00260422 -1.06672e-21)
(0.997732 -0.00551556 -2.25573e-22)
(0.992263 -0.00914901 -9.72788e-22)
(0.986489 -0.0108802 -2.89485e-21)
(0.977141 -0.0151044 1.40401e-21)
(0.967363 -0.0174599 -1.35182e-21)
(0.95379 -0.0242179 1.81972e-21)
(0.939696 -0.0290183 2.7189e-21)
(0.921426 -0.0401717 -1.78116e-21)
(0.902541 -0.0492364 3.66938e-21)
(0.879107 -0.0669462 -1.97155e-21)
(0.855132 -0.0821087 -3.04956e-21)
(0.826272 -0.10951 -1.94793e-21)
(0.797246 -0.131672 7.95084e-21)
(0.763921 -0.17477 -2.62369e-21)
(0.999054 -0.00243356 1.10703e-21)
(0.997674 -0.0051552 5.36964e-22)
(0.99225 -0.00840387 -7.73726e-23)
(0.986318 -0.00987863 1.16251e-21)
(0.976999 -0.0135458 -1.86379e-21)
(0.966982 -0.0154835 -4.64186e-22)
(0.953374 -0.0213861 -4.20287e-23)
(0.938886 -0.0255046 -9.17797e-22)
(0.920407 -0.03533 -2.72061e-21)
(0.900831 -0.0433296 -1.40628e-21)
(0.876808 -0.0590205 5.23206e-21)
(0.851592 -0.0725905 -8.11819e-22)
(0.821453 -0.0970015 -8.54296e-22)
(0.790234 -0.116991 -7.16621e-22)
(0.754407 -0.155569 -3.42316e-21)
(0.999081 -0.00226073 6.71387e-22)
(0.997623 -0.0047956 -1.24104e-21)
(0.992238 -0.00765858 5.28769e-22)
(0.986163 -0.00887814 -1.42933e-21)
(0.976871 -0.0119716 -9.15315e-23)
(0.966637 -0.0134991 7.83203e-23)
(0.953001 -0.0185266 1.15415e-22)
(0.938162 -0.021965 1.73311e-22)
(0.919497 -0.0304384 -1.26865e-21)
(0.899313 -0.0373495 1.64291e-21)
(0.874765 -0.0509864 -2.70305e-21)
(0.848459 -0.0628884 5.96005e-22)
(0.81719 -0.084229 1.85353e-21)
(0.784039 -0.101894 -1.25643e-22)
(0.746004 -0.135755 2.31533e-21)
(0.999105 -0.00208593 -6.54637e-22)
(0.997578 -0.00443659 1.50641e-21)
(0.992228 -0.00691049 -9.47316e-22)
(0.986024 -0.00787874 1.16479e-21)
(0.976757 -0.0103829 6.45172e-22)
(0.966331 -0.0115071 -4.0511e-22)
(0.952672 -0.0156421 -7.3055e-23)
(0.937527 -0.0184004 -4.74471e-22)
(0.918698 -0.0255024 1.66936e-22)
(0.897991 -0.0313015 -1.42011e-21)
(0.872985 -0.0428558 6.65664e-22)
(0.845737 -0.053022 -4.65366e-21)
(0.813492 -0.0712236 6.58784e-21)
(0.778674 -0.086432 -1.99336e-21)
(0.738733 -0.115411 -4.3489e-21)
(0.999124 -0.00190938 -3.06002e-22)
(0.997539 -0.00407758 -4.65457e-22)
(0.992217 -0.00615609 3.23907e-22)
(0.985904 -0.00687921 8.01117e-23)
(0.976657 -0.00878082 8.92384e-22)
(0.966064 -0.0095079 -3.20691e-22)
(0.952386 -0.0127353 1.79147e-22)
(0.936981 -0.014813 -7.45963e-23)
(0.918013 -0.020528 5.22869e-22)
(0.896866 -0.0251927 1.00223e-21)
(0.87147 -0.034641 1.46892e-21)
(0.843432 -0.0430126 -2.43743e-21)
(0.810368 -0.0580174 1.08681e-21)
(0.774151 -0.0706585 -1.42686e-21)
(0.732613 -0.0946189 -4.09848e-21)
(0.999139 -0.00173142 1.08532e-21)
(0.997508 -0.00371746 -1.27126e-22)
(0.992204 -0.00539064 5.08026e-22)
(0.985802 -0.00587729 4.36657e-22)
(0.97657 -0.00716628 -1.39245e-21)
(0.965837 -0.00750146 5.39639e-23)
(0.952144 -0.00980906 2.19391e-22)
(0.936526 -0.0112055 1.35444e-22)
(0.917443 -0.0155217 -5.19352e-22)
(0.89594 -0.0190324 4.74279e-22)
(0.870228 -0.026356 2.25002e-21)
(0.84155 -0.032883 -9.00445e-22)
(0.807825 -0.044644 2.10098e-21)
(0.770478 -0.0546264 -4.65049e-21)
(0.727658 -0.0734617 5.91477e-21)
(0.999149 -0.00155231 -7.76023e-22)
(0.997484 -0.00335855 1.45885e-23)
(0.992189 -0.00461396 -4.53001e-22)
(0.985718 -0.00487065 -2.27713e-22)
(0.976494 -0.00554028 4.97365e-22)
(0.965651 -0.00548669 -2.57957e-23)
(0.951945 -0.00686318 -9.06852e-22)
(0.936163 -0.00757471 5.25766e-22)
(0.916991 -0.0104837 -2.37909e-22)
(0.895215 -0.0128251 2.12264e-22)
(0.869261 -0.0180105 7.79108e-22)
(0.840094 -0.0226531 2.40054e-22)
(0.805869 -0.0311346 -1.37249e-21)
(0.767663 -0.0383871 1.75845e-22)
(0.723879 -0.052019 -1.33624e-21)
(0.999154 -0.00137203 3.78484e-22)
(0.997469 -0.00300202 -2.62577e-23)
(0.992172 -0.00382744 6.6235e-23)
(0.985653 -0.00385671 3.70856e-22)
(0.97643 -0.00390252 -6.76448e-23)
(0.965507 -0.00346471 -3.65975e-22)
(0.951791 -0.00389838 -2.33651e-22)
(0.935891 -0.00391114 2.82598e-22)
(0.916659 -0.00540727 -2.56051e-22)
(0.894692 -0.00656248 3.13885e-22)
(0.868573 -0.00960708 -8.10301e-22)
(0.839068 -0.0123388 4.61173e-22)
(0.804506 -0.0175198 -1.03821e-21)
(0.765709 -0.0219928 4.19321e-22)
(0.721283 -0.0303703 1.80675e-22)
(0.999154 -0.00119145 -6.75748e-23)
(0.997464 -0.00264449 6.63711e-23)
(0.992153 -0.00303225 -8.59665e-23)
(0.985607 -0.00283224 -1.22972e-22)
(0.976376 -0.00225029 1.15895e-22)
(0.965405 -0.00143814 1.85525e-22)
(0.951685 -0.000936053 1.2973e-22)
(0.935715 -0.000271466 -7.93407e-23)
(0.916447 -0.00034962 3.16834e-22)
(0.894371 -0.000314961 5.85317e-23)
(0.868163 -0.00120761 1.5174e-22)
(0.838472 -0.0020076 2.14191e-22)
(0.803737 -0.00386922 -2.70462e-24)
(0.764619 -0.00552656 -1.58084e-22)
(0.719872 -0.00861759 -2.65275e-23)
(1.00004 -0.000282418 0)
(1.00209 -0.000736598 0)
(1.00549 -0.00118858 0)
(1.00975 -0.00153539 0)
(1.01457 -0.00189837 0)
(1.0197 -0.00216194 0)
(1.02498 -0.00243858 0)
(1.03024 -0.002614 0)
(1.03538 -0.00280555 0)
(1.04029 -0.00289671 0)
(1.04492 -0.00301642 0)
(1.04921 -0.00303461 0)
(1.05317 -0.00310419 0)
(1.05677 -0.00306177 0)
(1.06004 -0.00310763 0)
(1.00005 -0.000833969 0)
(1.00209 -0.00217346 0)
(1.00548 -0.00350922 0)
(1.00972 -0.00453376 0)
(1.01455 -0.00560965 0)
(1.0197 -0.00639213 0)
(1.02501 -0.00721746 0)
(1.03032 -0.00774338 0)
(1.03552 -0.00831947 0)
(1.04049 -0.00859654 0)
(1.0452 -0.00895879 0)
(1.04956 -0.00901774 0)
(1.0536 -0.0092288 0)
(1.05727 -0.00910587 0)
(1.06063 -0.00924435 0)
(1.00006 -0.00136058 0)
(1.00207 -0.00353169 0)
(1.00546 -0.00571535 0)
(1.00967 -0.0073848 0)
(1.01451 -0.00915758 0)
(1.01967 -0.0104457 0)
(1.02506 -0.0118218 0)
(1.03043 -0.0127005 0)
(1.03576 -0.0136745 0)
(1.04084 -0.0141457 0)
(1.0457 -0.0147665 0)
(1.05019 -0.0148729 0)
(1.05439 -0.0152403 0)
(1.05818 -0.0150385 0)
(1.06172 -0.0152835 0)
(1.00007 -0.00186405 0)
(1.00205 -0.0048026 0)
(1.00542 -0.00780452 0)
(1.00957 -0.0100864 0)
(1.01443 -0.0125537 0)
(1.0196 -0.0143408 0)
(1.02508 -0.0162854 0)
(1.03055 -0.0175279 0)
(1.03604 -0.0189284 0)
(1.04128 -0.0196095 0)
(1.04635 -0.0205183 0)
(1.05103 -0.0206833 0)
(1.05546 -0.0212321 0)
(1.05943 -0.0209536 0)
(1.06321 -0.021326 0)
(1.00008 -0.00234519 0)
(1.00202 -0.00598053 0)
(1.00535 -0.00977543 0)
(1.00943 -0.0126369 0)
(1.01428 -0.0158034 0)
(1.01946 -0.018086 0)
(1.02503 -0.0206276 0)
(1.03062 -0.0222516 0)
(1.03631 -0.0241204 0)
(1.04175 -0.0250351 0)
(1.04709 -0.0262738 0)
(1.052 -0.0265143 0)
(1.05673 -0.0272801 0)