/*--------------------------------*- C++ -*----------------------------------*\
  =========                 |
  \\      /  F ield         | OpenFOAM: The Open Source CFD Toolbox
   \\    /   O peration     | Website:  https://openfoam.org
    \\  /    A nd           | Version:  7
     \\/     M anipulation  |
\*---------------------------------------------------------------------------*/
FoamFile
{
    version     2.0;
    format      ascii;
    class       volScalarField;
    location    "395";
    object      p;
}
// * * * * * * * * * * * * * * * * * * * * * * * * * * * * * * * * * * * * * //

dimensions      [0 2 -2 0 0 0 0];

internalField   nonuniform List<scalar> 
8500
(
-0.392646
-0.395979
-0.397136
-0.397983
-0.398753
-0.399467
-0.400065
-0.400418
-0.400312
-0.399883
-0.385422
-0.388447
-0.389283
-0.389631
-0.389696
-0.389501
-0.389003
-0.388123
-0.386681
-0.384902
-0.378753
-0.38142
-0.381935
-0.381808
-0.381206
-0.380153
-0.378622
-0.376581
-0.3739
-0.370747
-0.372616
-0.374897
-0.375101
-0.374525
-0.373298
-0.371441
-0.368941
-0.365815
-0.362009
-0.35741
-0.366972
-0.368866
-0.368774
-0.367779
-0.365968
-0.363359
-0.359955
-0.355817
-0.35101
-0.344746
-0.36178
-0.363309
-0.362942
-0.361557
-0.359198
-0.355885
-0.351639
-0.346558
-0.340897
-0.332488
-0.357002
-0.358207
-0.357588
-0.355842
-0.352969
-0.34899
-0.343959
-0.338
-0.331735
-0.322904
-0.352602
-0.353544
-0.3527
-0.350617
-0.347257
-0.342642
-0.336875
-0.330075
-0.32311
-0.313777
-0.348562
-0.349312
-0.348268
-0.34587
-0.342046
-0.336815
-0.330318
-0.322767
-0.315149
-0.305021
-0.344877
-0.34551
-0.34429
-0.341595
-0.337333
-0.3315
-0.32432
-0.316022
-0.307846
-0.296751
-0.341561
-0.342149
-0.340773
-0.337797
-0.333105
-0.326728
-0.318898
-0.309875
-0.301239
-0.289009
-0.338647
-0.339251
-0.337735
-0.334492
-0.3294
-0.322516
-0.314098
-0.304401
-0.295457
-0.281843
-0.33619
-0.33685
-0.335205
-0.33171
-0.326254
-0.318916
-0.309997
-0.299711
-0.29069
-0.275361
-0.334258
-0.334991
-0.33322
-0.329491
-0.323713
-0.316
-0.306689
-0.295941
-0.287131
-0.269757
-0.332931
-0.333724
-0.331824
-0.327882
-0.321837
-0.313839
-0.304262
-0.293232
-0.284869
-0.26538
-0.332294
-0.333101
-0.331065
-0.326932
-0.320681
-0.312501
-0.30278
-0.2917
-0.283774
-0.262604
-0.332423
-0.333168
-0.330981
-0.326682
-0.320285
-0.312022
-0.302261
-0.291396
-0.28348
-0.261597
-0.33338
-0.333962
-0.331601
-0.327152
-0.320661
-0.3124
-0.302672
-0.292285
-0.283544
-0.262018
-0.335204
-0.3355
-0.33293
-0.328327
-0.321794
-0.31359
-0.303937
-0.294214
-0.283819
-0.263848
-0.337905
-0.337782
-0.334954
-0.330182
-0.323613
-0.31549
-0.305929
-0.296827
-0.284696
-0.26996
-0.341471
-0.340791
-0.337635
-0.332665
-0.326033
-0.317973
-0.308485
-0.299577
-0.286446
-0.283571
-0.345874
-0.344493
-0.340945
-0.335712
-0.328967
-0.320908
-0.311434
-0.30224
-0.28911
-0.284285
-0.35108
-0.348863
-0.344843
-0.339271
-0.332345
-0.324188
-0.314596
-0.304808
-0.291412
-0.283372
-0.357055
-0.353886
-0.349307
-0.34332
-0.336127
-0.327743
-0.317845
-0.307245
-0.293133
-0.282309
-0.363774
-0.359556
-0.35434
-0.347863
-0.340302
-0.331537
-0.321107
-0.309438
-0.29427
-0.280811
-0.371234
-0.365882
-0.359967
-0.352928
-0.34488
-0.335549
-0.324322
-0.3113
-0.294756
-0.279029
-0.379444
-0.372884
-0.366229
-0.358555
-0.349878
-0.339762
-0.32742
-0.312748
-0.294617
-0.276875
-0.388419
-0.380593
-0.373166
-0.364779
-0.355304
-0.344135
-0.330316
-0.313724
-0.293877
-0.274354
-0.398168
-0.389033
-0.380812
-0.371615
-0.361139
-0.34859
-0.332914
-0.314188
-0.292574
-0.271445
-0.408687
-0.398212
-0.389177
-0.379048
-0.367325
-0.353011
-0.33512
-0.31411
-0.290737
-0.268142
-0.41995
-0.408119
-0.398236
-0.387024
-0.373753
-0.357253
-0.336842
-0.31347
-0.288383
-0.264428
-0.431893
-0.418706
-0.407926
-0.395444
-0.380261
-0.361157
-0.337996
-0.312243
-0.285512
-0.260284
-0.444419
-0.42989
-0.418139
-0.404157
-0.386644
-0.364561
-0.3385
-0.310401
-0.28211
-0.255684
-0.457386
-0.441543
-0.428724
-0.412959
-0.392674
-0.367305
-0.338277
-0.307905
-0.278151
-0.250591
-0.47061
-0.453495
-0.439481
-0.421597
-0.398109
-0.369236
-0.337245
-0.30471
-0.273594
-0.244969
-0.483862
-0.465529
-0.450166
-0.429781
-0.402708
-0.370208
-0.335322
-0.30076
-0.268391
-0.238772
-0.496873
-0.477385
-0.460487
-0.437197
-0.406238
-0.370082
-0.332426
-0.295994
-0.262488
-0.231957
-0.509337
-0.488768
-0.470116
-0.443528
-0.408479
-0.368727
-0.328472
-0.290347
-0.255827
-0.22448
-0.520919
-0.499348
-0.478697
-0.448461
-0.409227
-0.366019
-0.323375
-0.283749
-0.24835
-0.216299
-0.531259
-0.508771
-0.485861
-0.451699
-0.408296
-0.361844
-0.317055
-0.276133
-0.239999
-0.207378
-0.539985
-0.516667
-0.491239
-0.45297
-0.405519
-0.356096
-0.309432
-0.267436
-0.230725
-0.197687
-0.546724
-0.522661
-0.494481
-0.452032
-0.400751
-0.34868
-0.300434
-0.257597
-0.220489
-0.18721
-0.55111
-0.526385
-0.495264
-0.448673
-0.39387
-0.339513
-0.289994
-0.24656
-0.209257
-0.175934
-0.552796
-0.527489
-0.493305
-0.442721
-0.384774
-0.328529
-0.278055
-0.234275
-0.196984
-0.16381
-0.551464
-0.525651
-0.488366
-0.43404
-0.37339
-0.315675
-0.264577
-0.220702
-0.1836
-0.150673
-0.546833
-0.520592
-0.480259
-0.422535
-0.359669
-0.30092
-0.249539
-0.205827
-0.169054
-0.136269
-0.53867
-0.512082
-0.468844
-0.408147
-0.343586
-0.284247
-0.232927
-0.189659
-0.153407
-0.120576
-0.52679
-0.499954
-0.45403
-0.390855
-0.325141
-0.265656
-0.21474
-0.172208
-0.136747
-0.104399
-0.511065
-0.484093
-0.435776
-0.370674
-0.304362
-0.245167
-0.195008
-0.153524
-0.118891
-0.0877128
-0.491426
-0.464446
-0.41409
-0.347652
-0.281299
-0.222832
-0.173825
-0.133624
-0.0999908
-0.0702957
-0.467859
-0.441022
-0.389036
-0.321882
-0.256026
-0.198744
-0.151226
-0.112523
-0.0801546
-0.0521116
-0.44041
-0.413889
-0.360751
-0.293489
-0.228617
-0.172976
-0.127258
-0.0903035
-0.0594481
-0.0332175
-0.409178
-0.383185
-0.329431
-0.262568
-0.199178
-0.145609
-0.102015
-0.0670538
-0.0379398
-0.0137136
-0.374325
-0.349111
-0.295201
-0.229113
-0.167958
-0.116784
-0.0756061
-0.042869
-0.0157108
0.00628803
-0.336074
-0.311941
-0.257908
-0.19361
-0.135052
-0.0866453
-0.0481571
-0.0178508
0.00715587
0.0267012
-0.294652
-0.27192
-0.217797
-0.156272
-0.100674
-0.0553516
-0.0198047
0.00789462
0.0305747
0.0474369
-0.250262
-0.228887
-0.175883
-0.117262
-0.0650217
-0.0230737
0.00931633
0.0342689
0.0544054
0.0681592
-0.203235
-0.183441
-0.132374
-0.0768569
-0.0283033
0.0100161
0.03909
0.0611895
0.0783707
0.0880501
-0.154167
-0.135879
-0.0873868
-0.0353361
0.0092539
0.0437427
0.0694072
0.0885505
0.102132
0.106534
-0.103276
-0.0867023
-0.0411835
0.00702205
0.0474092
0.0779171
0.100105
0.116106
0.125572
0.125339
-0.0509673
-0.0363509
0.00589507
0.0499294
0.0859157
0.112329
0.130931
0.143455
0.148669
0.149283
0.0023141
0.0147674
0.0534826
0.0930874
0.124522
0.14675
0.161617
0.170475
0.172344
0.173376
0.0561185
0.0662418
0.101206
0.13619
0.162969
0.180949
0.191991
0.197235
0.196257
0.196211
0.109993
0.117656
0.148694
0.178927
0.200994
0.214693
0.221877
0.223609
0.219968
0.218089
0.163485
0.168592
0.195578
0.220989
0.238334
0.24776
0.251105
0.249419
0.243127
0.23899
0.216144
0.218634
0.241493
0.262071
0.274731
0.279931
0.279495
0.274483
0.265544
0.258949
0.267525
0.267374
0.286087
0.301874
0.309931
0.310992
0.306865
0.298623
0.287062
0.277927
0.317197
0.314413
0.329015
0.340107
0.343687
0.340733
0.333036
0.321678
0.307553
0.295863
0.364742
0.359368
0.369946
0.376492
0.375763
0.368955
0.357835
0.343496
0.326898
0.312686
0.40976
0.401873
0.408566
0.410761
0.405933
0.395463
0.381097
0.363937
0.344981
0.32832
0.451872
0.441582
0.444578
0.442664
0.433982
0.420077
0.402667
0.382867
0.361693
0.342689
0.490723
0.478173
0.477703
0.471966
0.459712
0.442626
0.4224
0.400163
0.376933
0.355722
0.525987
0.511345
0.507687
0.49845
0.482938
0.462952
0.440163
0.415711
0.390603
0.367352
0.557364
0.540829
0.534296
0.521918
0.503491
0.480913
0.455834
0.429407
0.402618
0.377517
0.584587
0.566383
0.557322
0.542195
0.521221
0.496381
0.469303
0.441155
0.412897
0.386164
0.607423
0.587793
0.576585
0.559126
0.535997
0.509242
0.480476
0.450875
0.421372
0.393247
0.625672
0.60488
0.591928
0.572581
0.547707
0.519403
0.489271
0.458496
0.427984
0.398728
0.639171
0.617496
0.603226
0.582451
0.55626
0.526785
0.495621
0.463961
0.432686
0.402574
0.647796
0.625529
0.610382
0.588655
0.561584
0.531328
0.499476
0.467225
0.435441
0.404763
0.651458
0.628898
0.613326
0.591134
0.56363
0.53299
0.500799
0.468258
0.436223
0.405279
0.650108
0.627559
0.612022
0.589857
0.562372
0.531747
0.49957
0.467042
0.435019
0.404112
0.643737
0.621503
0.606461
0.584815
0.557802
0.527594
0.495787
0.463575
0.431824
0.401257
0.632374
0.610757
0.596666
0.57603
0.549938
0.520547
0.48946
0.457867
0.426647
0.396718
0.616088
0.595382
0.582688
0.563544
0.538818
0.510636
0.480617
0.449941
0.41951
0.39051
0.594984
0.575473
0.564611
0.547428
0.524501
0.497913
0.469303
0.439837
0.410444
0.382652
0.569207
0.551161
0.542546
0.527776
0.507068
0.482447
0.455575
0.427606
0.399492
0.373169
0.538938
0.522608
0.516632
0.504707
0.486619
0.464325
0.439508
0.41331
0.386707
0.362098
0.504393
0.490011
0.487038
0.478363
0.463278
0.443649
0.42119
0.397028
0.372155
0.349479
0.465822
0.453596
0.453956
0.448909
0.437184
0.420541
0.400724
0.378847
0.355908
0.335364
0.423509
0.413618
0.417607
0.41653
0.408495
0.395135
0.378224
0.358866
0.338051
0.319809
0.377765
0.370363
0.378235
0.381433
0.377388
0.367581
0.35382
0.337196
0.318675
0.302878
0.328933
0.324139
0.336104
0.343842
0.344055
0.338043
0.327649
0.313955
0.297879
0.28464
0.277377
0.275281
0.291502
0.304002
0.308702
0.306698
0.299863
0.289271
0.275768
0.265167
0.223488
0.224144
0.244733
0.262169
0.271548
0.273731
0.270622
0.263282
0.252451
0.24453
0.167674
0.171102
0.19612
0.218615
0.232824
0.23934
0.240095
0.236138
0.228046
0.222795
0.110361
0.116545
0.145998
0.173625
0.192772
0.20373
0.208459
0.207998
0.202677
0.200009
0.0519851
0.0608749
0.0947163
0.127494
0.151641
0.16711
0.175892
0.179041
0.176498
0.176194
-0.00700499
0.00450465
0.0426328
0.0805215
0.109689
0.129698
0.142573
0.149453
0.149709
0.151289
-0.066157
-0.0521491
-0.00988751
0.0330161
0.0671759
0.0917163
0.108668
0.119414
0.122691
0.125298
-0.125017
-0.108668
-0.0624743
-0.0147135
0.0243665
0.0533985
0.0743496
0.0890455
0.0959383
0.0978715
-0.183132
-0.164639
-0.114755
-0.0623597
-0.01848
0.0149796
0.0397901
0.0582409
0.0697911
0.0705401
-0.240055
-0.21965
-0.166359
-0.109619
-0.0611099
-0.0233071
0.00527364
0.0271276
0.0432211
0.0491707
-0.295353
-0.273284
-0.216928
-0.156199
-0.103273
-0.0612462
-0.0289271
-0.00384066
0.0162382
0.028154
-0.348687
-0.325084
-0.266149
-0.201815
-0.144724
-0.0986454
-0.062646
-0.0344005
-0.0110341
0.00544628
-0.399658
-0.374663
-0.313817
-0.246192
-0.18523
-0.135327
-0.0957799
-0.0644545
-0.0382315
-0.0182768
-0.447811
-0.42143
-0.359903
-0.289044
-0.224573
-0.171116
-0.128216
-0.0939283
-0.0650589
-0.042078
-0.492859
-0.465185
-0.403823
-0.330098
-0.262558
-0.205838
-0.159815
-0.122723
-0.09137
-0.0655904
-0.534579
-0.505949
-0.444629
-0.369338
-0.298988
-0.239324
-0.190436
-0.150729
-0.117076
-0.0887262
-0.57274
-0.543469
-0.482394
-0.406351
-0.333633
-0.271421
-0.219947
-0.177838
-0.142089
-0.111396
-0.607131
-0.577485
-0.517184
-0.440702
-0.366434
-0.301998
-0.24823
-0.203952
-0.166318
-0.133481
-0.637601
-0.607802
-0.548832
-0.472465
-0.397139
-0.330917
-0.275183
-0.22898
-0.189686
-0.154874
-0.66406
-0.634289
-0.577145
-0.501547
-0.425651
-0.358115
-0.300719
-0.252834
-0.212134
-0.175496
-0.686468
-0.656884
-0.601996
-0.527817
-0.451904
-0.383515
-0.324816
-0.275441
-0.233599
-0.195315
-0.704844
-0.675583
-0.623328
-0.551187
-0.475833
-0.407034
-0.347425
-0.296823
-0.253947
-0.214397
-0.719259
-0.69044
-0.641134
-0.571611
-0.497395
-0.428631
-0.368465
-0.31694
-0.273019
-0.232987
-0.729843
-0.701567
-0.655452
-0.58908
-0.516568
-0.448293
-0.387915
-0.335764
-0.291085
-0.250882
-0.736778
-0.709131
-0.666372
-0.603615
-0.533357
-0.46603
-0.405789
-0.3533
-0.308072
-0.267457
-0.740297
-0.713351
-0.674029
-0.615272
-0.547787
-0.481865
-0.42211
-0.369545
-0.323922
-0.282798
-0.740674
-0.714499
-0.678603
-0.62414
-0.559909
-0.495836
-0.436908
-0.38452
-0.338685
-0.297171
-0.738223
-0.712886
-0.680319
-0.630346
-0.569796
-0.507999
-0.450234
-0.398276
-0.352435
-0.310734
-0.733282
-0.708853
-0.679444
-0.634052
-0.577542
-0.518425
-0.462155
-0.41088
-0.365231
-0.323541
-0.726209
-0.702757
-0.676284
-0.63545
-0.583263
-0.527199
-0.472746
-0.422402
-0.377124
-0.335621
-0.717372
-0.694965
-0.671172
-0.634766
-0.587093
-0.534414
-0.48209
-0.432918
-0.388172
-0.347005
-0.707134
-0.685836
-0.664457
-0.632249
-0.589182
-0.540172
-0.490274
-0.442509
-0.398446
-0.357741
-0.695848
-0.67572
-0.656492
-0.62817
-0.589699
-0.544585
-0.497388
-0.451264
-0.408029
-0.367892
-0.683847
-0.66494
-0.64762
-0.622815
-0.588823
-0.547766
-0.503524
-0.45927
-0.417007
-0.377532
-0.671437
-0.653793
-0.638162
-0.616479
-0.586749
-0.549834
-0.508774
-0.466619
-0.425472
-0.386743
-0.658888
-0.642539
-0.628404
-0.609449
-0.583678
-0.550912
-0.513228
-0.473399
-0.433517
-0.395614
-0.646435
-0.631401
-0.61859
-0.601999
-0.579822
-0.551127
-0.516973
-0.479694
-0.441235
-0.404239
-0.634277
-0.620561
-0.608925
-0.594375
-0.575393
-0.550609
-0.520091
-0.485582
-0.448716
-0.412716
-0.622575
-0.610161
-0.599573
-0.586784
-0.570601
-0.549494
-0.522662
-0.491134
-0.456045
-0.421149
-0.611457
-0.600306
-0.590659
-0.579389
-0.565641
-0.547923
-0.524762
-0.49641
-0.463296
-0.429641
-0.601023
-0.591073
-0.582277
-0.57232
-0.560689
-0.546043
-0.526469
-0.501462
-0.470529
-0.438301
-0.591345
-0.582508
-0.574492
-0.565675
-0.555892
-0.544001
-0.527867
-0.506332
-0.477791
-0.447227
-0.58247
-0.574638
-0.567343
-0.559529
-0.551367
-0.54194
-0.529042
-0.511056
-0.485096
-0.456534
-0.574417
-0.567468
-0.56085
-0.553941
-0.547209
-0.539988
-0.53009
-0.515657
-0.492451
-0.466268
-0.567178
-0.560981
-0.55501
-0.548946
-0.543495
-0.538253
-0.531106
-0.520162
-0.499803
-0.47657
-0.560709
-0.555139
-0.549797
-0.544555
-0.540279
-0.536817
-0.532173
-0.524576
-0.507163
-0.487189
-0.55493
-0.549873
-0.545157
-0.540745
-0.537586
-0.535736
-0.533352
-0.528902
-0.514467
-0.49821
-0.549724
-0.545087
-0.541005
-0.537451
-0.535393
-0.535023
-0.534672
-0.533127
-0.521732
-0.508084
-0.54494
-0.540658
-0.537227
-0.53457
-0.533622
-0.534634
-0.536145
-0.537054
-0.530085
-0.511754
-0.5404
-0.536442
-0.533679
-0.531957
-0.532135
-0.534464
-0.537712
-0.540532
-0.53884
-0.518194
-0.535916
-0.532283
-0.530203
-0.529437
-0.530748
-0.534338
-0.539206
-0.543501
-0.546449
-0.525708
-0.531298
-0.528022
-0.52663
-0.526817
-0.529239
-0.534026
-0.540357
-0.545874
-0.552318
-0.5322
-0.526368
-0.523504
-0.522792
-0.523898
-0.527368
-0.533261
-0.540853
-0.547465
-0.55631
-0.537383
-0.520975
-0.518595
-0.518536
-0.520491
-0.524907
-0.531769
-0.540387
-0.548011
-0.558323
-0.541425
-0.515004
-0.513179
-0.513731
-0.516435
-0.52165
-0.5293
-0.538692
-0.547216
-0.558256
-0.544203
-0.508377
-0.507176
-0.508278
-0.511604
-0.517442
-0.525667
-0.535574
-0.544817
-0.556083
-0.545376
-0.501065
-0.500537
-0.502116
-0.505918
-0.512183
-0.520751
-0.530921
-0.540635
-0.551873
-0.544596
-0.493083
-0.493255
-0.495223
-0.499349
-0.50584
-0.51452
-0.524708
-0.534596
-0.54578
-0.541609
-0.484488
-0.48536
-0.487625
-0.491926
-0.49845
-0.507023
-0.516995
-0.526759
-0.537944
-0.536273
-0.475372
-0.476917
-0.479388
-0.483718
-0.490099
-0.498367
-0.50795
-0.517698
-0.527946
-0.528584
-0.465863
-0.468023
-0.470609
-0.47484
-0.480919
-0.488706
-0.497721
-0.507108
-0.516459
-0.519592
-0.456104
-0.4588
-0.461415
-0.465433
-0.471075
-0.478229
-0.486506
-0.495244
-0.503772
-0.508268
-0.44625
-0.449383
-0.451949
-0.455658
-0.46075
-0.467146
-0.474535
-0.482395
-0.490025
-0.495015
-0.436455
-0.439913
-0.442358
-0.445681
-0.450136
-0.455674
-0.462046
-0.468849
-0.475445
-0.480309
-0.426863
-0.430525
-0.43279
-0.435667
-0.439423
-0.44403
-0.449301
-0.454902
-0.460317
-0.464582
-0.417599
-0.421344
-0.423379
-0.425769
-0.428786
-0.43242
-0.43653
-0.440841
-0.444947
-0.448277
-0.408765
-0.412475
-0.414241
-0.416121
-0.418381
-0.421027
-0.42395
-0.426929
-0.429645
-0.43182
-0.400432
-0.404
-0.40547
-0.406831
-0.408337
-0.410003
-0.411747
-0.413396
-0.414689
-0.41559
-0.400961
-0.398146
-0.403572
-0.420644
-0.458196
-0.49203
-0.479952
-0.404085
-0.299913
-0.21936
-0.170863
-0.14971
-0.165311
-0.180085
-0.174118
-0.140786
-0.104757
-0.0871705
-0.0765557
-0.0737642
-0.0765516
-0.0829619
-0.0809984
-0.077191
-0.0586942
-0.0328804
-0.0510996
-0.0608754
-0.0393274
0.00982914
-0.385903
-0.385712
-0.397799
-0.424362
-0.471647
-0.512341
-0.501406
-0.421633
-0.310918
-0.223693
-0.169696
-0.144489
-0.155954
-0.167572
-0.163526
-0.133986
-0.102669
-0.0874303
-0.0786743
-0.0774635
-0.0804657
-0.0861232
-0.0823354
-0.0775338
-0.0588318
-0.0330302
-0.0508991
-0.0610639
-0.0393908
0.0104223
-0.372107
-0.374195
-0.392167
-0.426716
-0.482295
-0.529143
-0.519658
-0.436747
-0.320413
-0.227314
-0.168245
-0.13926
-0.146477
-0.155085
-0.152503
-0.126814
-0.100401
-0.0875856
-0.0808696
-0.0813359
-0.0844801
-0.0892364
-0.0836059
-0.0778091
-0.0589722
-0.033214
-0.0507128
-0.061251
-0.0394554
0.0109862
-0.35955
-0.363488
-0.386411
-0.427377
-0.489866
-0.5422
-0.534555
-0.449409
-0.328444
-0.230295
-0.166628
-0.134125
-0.13703
-0.142799
-0.141161
-0.119316
-0.097949
-0.0876215
-0.0831195
-0.0853507
-0.0885689
-0.0922821
-0.0848059
-0.0780158
-0.0591112
-0.0334274
-0.0505427
-0.0614367
-0.0395231
0.0115169
-0.348175
-0.353467
-0.380311
-0.42618
-0.494209
-0.551431
-0.54604
-0.45964
-0.335076
-0.232711
-0.16495
-0.12917
-0.127772
-0.130874
-0.129637
-0.11155
-0.0953124
-0.087524
-0.0853976
-0.0894721
-0.0927041
-0.095242
-0.0859314
-0.0781529
-0.0592438
-0.0336651
-0.0503905
-0.0616202
-0.0395956
0.0120103
-0.337934
-0.344048
-0.373685
-0.423136
-0.495293
-0.556915
-0.554146
-0.467495
-0.340387
-0.23463
-0.163305
-0.124469
-0.118856
-0.119455
-0.118144
-0.103583
-0.0924935
-0.0872799
-0.0876739
-0.0936602
-0.0968561
-0.0980995
-0.0869787
-0.0782195
-0.059365
-0.0339214
-0.050257
-0.0618007
-0.0396739
0.0124629
-0.327492
-0.335013
-0.366585
-0.418322
-0.493298
-0.558872
-0.558989
-0.473056
-0.344464
-0.236122
-0.161771
-0.120081
-0.110428
-0.108663
-0.10675
-0.0954913
-0.0894995
-0.0868774
-0.0899155
-0.0978717
-0.100994
-0.100839
-0.0879445
-0.078215
-0.0594691
-0.0341903
-0.0501429
-0.0619766
-0.0397586
0.0128711
-0.317987
-0.326355
-0.359041
-0.411917
-0.488543
-0.55767
-0.560748
-0.476427
-0.347398
-0.23725
-0.160413
-0.116055
-0.102611
-0.0986025
-0.095625
-0.0873702
-0.0863427
-0.0863056
-0.0920878
-0.102061
-0.105084
-0.103448
-0.0888254
-0.0781389
-0.0595506
-0.0344654
-0.0500479
-0.0621462
-0.0398495
0.0132316
-0.309314
-0.31806
-0.351154
-0.404194
-0.481421
-0.553792
-0.559663
-0.477723
-0.349279
-0.238075
-0.159277
-0.112429
-0.0954989
-0.0893589
-0.0850461
-0.0793261
-0.0830408
-0.0855548
-0.0941552
-0.106183
-0.109096
-0.105912
-0.0896185
-0.077991
-0.0596039
-0.0347402
-0.0499714
-0.0623071
-0.039946
0.013541
-0.301407
-0.310141
-0.343089
-0.395478
-0.472354
-0.547918
-0.55599
-0.477073
-0.350191
-0.238652
-0.158393
-0.109232
-0.0891525
-0.0809947
-0.075214
-0.0714734
-0.0796173
-0.0846173
-0.096082
-0.110193
-0.112995
-0.108223
-0.0903211
-0.0777713
-0.0596233
-0.0350083
-0.0499122
-0.0624565
-0.0400468
0.0137964
-0.294313
-0.302655
-0.335037
-0.386107
-0.461739
-0.540435
-0.549947
-0.474613
-0.350209
-0.239025
-0.157775
-0.106485
-0.0835974
-0.0735463
-0.0662775
-0.0639284
-0.0761003
-0.0834871
-0.0978337
-0.114046
-0.116752
-0.11037
-0.090931
-0.0774801
-0.059604
-0.0352633
-0.0498684
-0.0625913
-0.0401497
0.013995
-0.288139
-0.295691
-0.327189
-0.376413
-0.449941
-0.522329
-0.541665
-0.470507
-0.349412
-0.239238
-0.157432
-0.104203
-0.0788311
-0.0670217
-0.0583334
-0.0568026
-0.0725238
-0.0821601
-0.099377
-0.117705
-0.120337
-0.112346
-0.0914465
-0.0771184
-0.0595413
-0.0354992
-0.0498377
-0.0627078
-0.040252
0.0141339
-0.283005
-0.289367
-0.319717
-0.366695
-0.4377
-0.509408
-0.531613
-0.46494
-0.347904
-0.239343
-0.157373
-0.102404
-0.0748296
-0.061399
-0.0514274
-0.0501943
-0.0689258
-0.0806344
-0.100681
-0.121135
-0.12372
-0.114144
-0.0918662
-0.0766876
-0.0594302
-0.03571
-0.0498176
-0.0628018
-0.0403503
0.0142106
-0.279002
-0.283807
-0.312763
-0.357192
-0.425273
-0.495895
-0.52005
-0.458097
-0.345789
-0.239382
-0.157587
-0.101087
-0.0715423
-0.0566219
-0.0455602
-0.0441829
-0.0653463
-0.0789098
-0.101715
-0.124306
-0.126875
-0.115757
-0.0921888
-0.0761898
-0.0592643
-0.0358889
-0.0498051
-0.0628692
-0.0404405
0.0142225
-0.276166
-0.279113
-0.306419
-0.348057
-0.412804
-0.481795
-0.50722
-0.450129
-0.343098
-0.239304
-0.157968
-0.100184
-0.068874
-0.0525922
-0.0406775
-0.0388215
-0.0618239
-0.0769878
-0.102453
-0.127195
-0.129777
-0.117182
-0.092412
-0.0756272
-0.0590369
-0.0360287
-0.0497957
-0.0629048
-0.0405177
0.0141673
-0.274444
-0.275337
-0.300724
-0.339378
-0.400415
-0.467265
-0.49334
-0.441164
-0.339782
-0.238975
-0.158373
-0.099608
-0.0667266
-0.0492053
-0.0366821
-0.0341286
-0.0583911
-0.0748714
-0.102869
-0.129784
-0.132411
-0.118416
-0.0925347
-0.0750012
-0.0587524
-0.0361269
-0.0497847
-0.0629029
-0.0405765
0.0140425
-0.273628
-0.27245
-0.295675
-0.331205
-0.38815
-0.452475
-0.478682
-0.431485
-0.336093
-0.238661
-0.15907
-0.0995459
-0.0651865
-0.0464675
-0.0335249
-0.0300851
-0.0550675
-0.0725637
-0.102937
-0.132058
-0.134764
-0.119453
-0.0925654
-0.0743145
-0.0584361
-0.0361936
-0.0497759
-0.0628582
-0.0406106
0.0138458
-0.273452
-0.270321
-0.291178
-0.323523
-0.376052
-0.437225
-0.463275
-0.421638
-0.333021
-0.239439
-0.160972
-0.100608
-0.064578
-0.0445035
-0.0312504
-0.0265754
-0.0518896
-0.0700665
-0.102628
-0.134007
-0.136747
-0.120247
-0.0925225
-0.0735793
-0.0581093
-0.0362388
-0.0497864
-0.0627781
-0.0406132
0.013576
-0.274043
-0.268855
-0.286971
-0.315908
-0.36397
-0.420752
-0.446471
-0.411266
-0.330274
-0.240951
-0.163571
-0.102407
-0.0645568
-0.0429717
-0.0295477
-0.0241931
-0.0489964
-0.0673972
-0.101915
-0.135613
-0.138218
-0.120752
-0.0923914
-0.0728175
-0.057692
-0.036202
-0.049796
-0.0626688
-0.040578
0.0132326
-0.273605
-0.267978
-0.283673
-0.308948
-0.35159
-0.405199
-0.429025
-0.39742
-0.322075
-0.237026
-0.161534
-0.101203
-0.0627254
-0.0403542
-0.0270152
-0.021751
-0.0459782
-0.0645958
-0.100744
-0.136923
-0.139867
-0.12126
-0.0920428
-0.0720112
-0.0569364
-0.0359029
-0.0496443
-0.0623676
-0.0405063
0.0127979
-0.264132
-0.266426
-0.282516
-0.306103
-0.345924
-0.394321
-0.413114
-0.379271
-0.305696
-0.224742
-0.152637
-0.0950726
-0.0576871
-0.0357952
-0.0221713
-0.0152852
-0.0387174
-0.0576505
-0.0984686
-0.141183
-0.145037
-0.122809
-0.0913773
-0.0709275
-0.0556205
-0.0352502
-0.0490449
-0.061277
-0.040254
0.0120804
-0.263011
-0.265928
-0.28001
-0.300955
-0.333941
-0.373133
-0.385112
-0.351354
-0.283691
-0.209737
-0.143029
-0.0894301
-0.0533511
-0.0318291
-0.0185048
-0.0123359
-0.0349761
-0.0525731
-0.0963746
-0.143292
-0.147384
-0.122318
-0.0894488
-0.0684136
-0.0537427
-0.0352328
-0.0487993
-0.0605583
-0.0403025
0.0112811
-0.260557
-0.263368
-0.274818
-0.292912
-0.319433
-0.349408
-0.355797
-0.323832
-0.262799
-0.195708
-0.134043
-0.0838994
-0.0491432
-0.0281163
-0.0149488
-0.00932083
-0.0320498
-0.0488766
-0.0945708
-0.143648
-0.148236
-0.120938
-0.0870156
-0.0655559
-0.0516702
-0.0351471
-0.0485024
-0.0599112
-0.0403239
0.0104994
-0.255729
-0.258064
-0.266538
-0.281586
-0.302515
-0.324503
-0.326618
-0.296938
-0.242315
-0.181862
-0.125148
-0.0783707
-0.0450537
-0.024574
-0.0113386
-0.00578983
-0.0281917
-0.0444597
-0.0918469
-0.143107
-0.148302
-0.118761
-0.0840755
-0.0623217
-0.0492876
-0.0349252
-0.0480526
-0.0590606
-0.0401324
0.00965685
-0.247821
-0.250134
-0.255904
-0.267983
-0.284029
-0.299437
-0.29833
-0.271171
-0.22266
-0.168466
-0.116472
-0.0728608
-0.0410404
-0.0211218
-0.00762482
-0.00186275
-0.023284
-0.038696
-0.0876292
-0.141631
-0.147124
-0.115598
-0.0805603
-0.0586782
-0.0465746
-0.0345308
-0.0474178
-0.0579425
-0.0396998
0.00872546
-0.237034
-0.240071
-0.243697
-0.252931
-0.264872
-0.275075
-0.271619
-0.246964
-0.204023
-0.155558
-0.108017
-0.0673882
-0.0370734
-0.0176846
-0.00376894
0.00258226
-0.0173616
-0.0316288
-0.0817048
-0.138722
-0.144314
-0.11134
-0.0764343
-0.0546061
-0.0434989
-0.0339097
-0.046542
-0.0565161
-0.0390053
0.00770856
-0.224318
-0.228394
-0.230498
-0.23716
-0.245729
-0.251959
-0.246839
-0.224483
-0.186496
-0.143198
-0.0998193
-0.0619857
-0.0331296
-0.014195
0.000261796
0.00764147
-0.0103579
-0.0233365
-0.0738138
-0.134013
-0.139768
-0.105919
-0.0716743
-0.0500927
-0.0400332
-0.0329963
-0.0453526
-0.0547071
-0.0379761
0.00661379
-0.210417
-0.21554
-0.216712
-0.221197
-0.227041
-0.230314
-0.224054
-0.203743
-0.170104
-0.131418
-0.0918944
-0.0566819
-0.0291945
-0.0106049
0.00448641
0.0133775
-0.00213617
-0.0137668
-0.0636988
-0.127331
-0.13326
-0.0993017
-0.0662751
-0.0451358
-0.0361511
-0.0317134
-0.0437639
-0.0524131
-0.0365065
0.00544766
-0.195877
-0.201904
-0.202617
-0.205371
-0.209055
-0.210155
-0.203173
-0.184673
-0.154826
-0.120233
-0.0842546
-0.0515052
-0.0252679
-0.00689501
0.00890818
0.0198464
0.00743764
-0.0028405
-0.0513399
-0.118578
-0.124687
-0.0915037
-0.0602547
-0.0397466
-0.0318282
-0.0299742
-0.0416767
-0.0495162
-0.0344864
0.00421894
-0.181139
-0.187828
-0.188418
-0.189885
-0.191877
-0.191405
-0.184039
-0.167156
-0.140615
-0.109646
-0.0769091
-0.0464799
-0.0213679
-0.00307813
0.0135032
0.0270779
0.018394
0.00937088
-0.037077
-0.107722
-0.114048
-0.0825992
-0.0536574
-0.033952
-0.0270415
-0.0276866
-0.0389795
-0.0458928
-0.0318135
0.00294176
-0.166497
-0.173584
-0.174264
-0.174843
-0.175548
-0.173965
-0.166482
-0.151065
-0.127414
-0.0996556
-0.0698677
-0.0416246
-0.0175331
0.000799667
0.0181987
0.0349987
0.0304844
0.0224761
-0.0216645
-0.0948072
-0.101453
-0.0727264
-0.0465545
-0.0277971
-0.0217721
-0.0247584
-0.0355516
-0.0414243
-0.0283954
0.00163697
-0.152146
-0.159404
-0.160285
-0.160304
-0.160076
-0.157739
-0.150342
-0.136274
-0.115161
-0.0902529
-0.0631444
-0.0369522
-0.0138206
0.00465793
0.0228675
0.0433034
0.0429345
0.0355848
-0.00626718
-0.0799156
-0.087126
-0.062088
-0.0390425
-0.0213462
-0.0160088
-0.0211045
-0.0312722
-0.0360092
-0.0241596
0.000331902
-0.138235
-0.145477
-0.1466
-0.146313
-0.145455
-0.142646
-0.135482
-0.122668
-0.103799
-0.0814257
-0.0567569
-0.0324749
-0.0102947
0.00837536
0.0273363
0.0513052
0.0543993
0.0473206
0.00785158
-0.0631958
-0.0714379
-0.0509509
-0.0312389
-0.0146833
-0.00975433
-0.0166525
-0.026032
-0.0295815
-0.0190742
-0.000937761
-0.124882
-0.13196
-0.133321
-0.132915
-0.131676
-0.128613
-0.121789
-0.110147
-0.0932715
-0.0731598
-0.0507226
-0.028212
-0.00701104
0.0117947
0.0313897
0.0579774
0.0634805
0.0563825
0.0198766
-0.0451024
-0.0549811
-0.0396431
-0.0232766
-0.00790819
-0.00303314
-0.0113561
-0.0197554
-0.0221302
-0.0131823
-0.00211724
-0.112171
-0.118975
-0.120547
-0.12015
-0.118726
-0.11558
-0.109169
-0.098621
-0.0835294
-0.0654417
-0.0450534
-0.0241951
-0.00401298
0.0147548
0.0347645
0.062106
0.069447
0.0622516
0.0295842
-0.0267382
-0.0385955
-0.0285269
-0.0152968
-0.0011313
0.00409874
-0.00521442
-0.0124309
-0.0137221
-0.00662688
-0.00313144
-0.100164
-0.106617
-0.108361
-0.108057
-0.106593
-0.103495
-0.0975416
-0.0880161
-0.0745267
-0.0582596
-0.039755
-0.0204621
-0.00133752
0.017134
0.0371836
0.0634588
0.0723498
0.0652115
0.0369625
-0.00969318
-0.0232094
-0.0179429
-0.00744294
0.0055331
0.0115402
0.00171591
-0.00413455
-0.00452857
0.000334485
-0.00388776
-0.0889059
-0.0949572
-0.0968311
-0.0966668
-0.095266
-0.0923125
-0.0868421
-0.0782682
-0.0662226
-0.0516026
-0.0348306
-0.0170448
0.000979623
0.0188632
0.0384349
0.0623798
0.0725304
0.0658104
0.0420147
0.00472405
-0.00953624
-0.00814588
0.000141794
0.0119679
0.0191287
0.00928563
0.0051498
0.00516893
0.00733369
-0.00428359
-0.078422
-0.084044
-0.0860058
-0.0860039
-0.0847356
-0.0819919
-0.0770142
-0.0693238
-0.0585817
-0.0454599
-0.0302832
-0.0139607
0.00291341
0.0199353
0.0385045
0.0596273
0.0704222
0.0646045
0.0449629
0.0159427
0.00205832
0.000713954
0.00731447
0.018044
0.0266353
0.0172163
0.0146562
0.0149667
0.0139239
-0.00422119
-0.0687257
-0.0739083
-0.0759206
-0.0760864
-0.0749921
-0.0724993
-0.0680112
-0.0611378
-0.051574
-0.0398195
-0.0261151
-0.0112127
0.00446043
0.0204091
0.0375951
0.0559338
0.0666466
0.0621785
0.0463042
0.0241491
0.0115328
0.00856671
0.0139411
0.023626
0.0337429
0.025136
0.0239216
0.0243318
0.0196668
-0.00362915
-0.0598202
-0.0645678
-0.0665986
-0.0669259
-0.0660268
-0.0638058
-0.0597939
-0.0536727
-0.0451741
-0.0346683
-0.0223256
-0.00879058
0.00564374
0.0203898
0.0360062
0.0518338
0.0619267
0.0590517
0.0465492
0.0298855
0.0190661
0.0153986
0.0199152
0.028607
0.0400387
0.0325858
0.0322862
0.0326418
0.024261
-0.00248088
-0.0517012
-0.0560298
-0.0580539
-0.0585294
-0.0578314
-0.0558876
-0.0523301
-0.0468976
-0.0393608
-0.0299924
-0.0189092
-0.0066747
0.00650929
0.0199983
0.0340225
0.0476834
0.0568939
0.0556052
0.0460889
0.0337426
0.0249286
0.0212315
0.0251623
0.0329428
0.045116
0.0390761
0.0391127
0.0392864
0.0276284
-0.000802247
-0.0443608
-0.0482947
-0.0502932
-0.0509002
-0.0503986
-0.0487256
-0.0455939
-0.0407875
-0.0341159
-0.0257784
-0.0158548
-0.00484038
0.00711548
0.0193555
0.0318689
0.0437072
0.0519932
0.0521038
0.0451983
0.0362317
0.0293948
0.0261128
0.0296299
0.0366173
0.0487389
0.0441704
0.0439355
0.0438021
0.0299138
0.00131131
-0.0377898
-0.0413591
-0.0433184
-0.0440388
-0.0437221
-0.0423055
-0.0395657
-0.0353232
-0.0294245
-0.0220141
-0.0131485
-0.00326068
0.00752389
0.0185716
0.0297114
0.0400455
0.0474911
0.0487321
0.0440655
0.0377536
0.0327219
0.0301129
0.0333019
0.0396163
0.0508469
0.0476954
0.0466937
0.0461064
0.0313667
0.00365396
-0.0319796
-0.0352192
-0.0371313
-0.0379471
-0.0377987
-0.0366178
-0.0342321
-0.0304911
-0.0252759
-0.0186893
-0.010776
-0.00190954
0.00779118
0.0177399
0.027671
0.0367847
0.0435218
0.0456175
0.0428266
0.038606
0.0351343
0.0333155
0.0362092
0.0419478
0.0516539
0.0498519
0.0478656
0.0465974
0.0321686
0.00591251
-0.026925
-0.0298735
-0.0317345