/*--------------------------------*- C++ -*----------------------------------*\
  =========                 |
  \\      /  F ield         | OpenFOAM: The Open Source CFD Toolbox
   \\    /   O peration     | Website:  https://openfoam.org
    \\  /    A nd           | Version:  7
     \\/     M anipulation  |
\*---------------------------------------------------------------------------*/
FoamFile
{
    version     2.0;
    format      ascii;
    class       surfaceScalarField;
    location    "395";
    object      phi;
}
// * * * * * * * * * * * * * * * * * * * * * * * * * * * * * * * * * * * * * //

dimensions      [0 3 -1 0 0 0 0];

internalField   nonuniform List<scalar> 
16735
(
-0.000147579
-0.000754857
0.000902437
-0.000498856
-0.00104918
0.00140045
-0.00101154
-0.000484124
0.00099681
-0.00165772
0.000659938
-1.37654e-05
-0.00241662
0.00216272
-0.00140382
-0.00326808
0.00393002
-0.00307856
-0.00419094
0.00599969
-0.00507683
-0.00516775
0.00849397
-0.00751716
-0.0061881
0.0115606
-0.0105402
0.0153765
-0.0143168
-0.00724782
-0.000137274
-0.000617583
-0.000460558
-0.000725893
-0.000927752
-1.693e-05
-0.00151179
0.00124398
-0.0021922
0.00284313
-0.00294681
0.00468463
-0.00374863
0.00680151
-0.00456988
0.00931521
-0.00538565
0.0123763
0.016153
-0.00616214
-0.000124015
-0.000493568
-0.000412874
-0.000437034
-0.000824954
0.00039515
-0.00133349
0.00175251
-0.00191742
0.00342707
-0.00255158
0.00531879
-0.00320169
0.00745162
-0.00382716
0.00994068
-0.00438653
0.0129357
0.0165788
-0.00481236
-0.000109039
-0.00038453
-0.000359633
-0.000186439
-0.00071044
0.000745956
-0.00113418
0.00217625
-0.00160835
0.00390124
-0.00210408
0.00581452
-0.0025792
0.00792673
-0.00297904
0.0103405
-0.00324537
0.0132021
0.0166104
-0.00327694
-9.36339e-05
-0.000290896
-0.000304859
2.47862e-05
-0.000591983
0.00103308
-0.000926207
0.00251048
-0.00128267
0.0042577
-0.0016284
0.00616025
-0.00191346
0.0082118
-0.00206883
0.0104959
-0.00202028
0.0131535
0.0162336
-0.00164353
-7.9055e-05
-0.000211841
-0.000252514
0.000198245
-0.000477373
0.00125794
-0.000722161
0.00275526
-0.000958749
0.00449429
-0.00114983
0.00635133
-0.00123847
0.00830044
-0.0011418
0.0103992
-0.000762405
0.0127741
0.0155168
-4.55227e-05
-6.64408e-05
-0.0001454
-0.000206245
0.000338049
-0.000373921
0.00142561
-0.000534132
0.00291548
-0.000654615
0.00461477
-0.000693589
0.0063903
-0.000587905
0.00819475
-0.000246636
0.0100579
0.00045915
0.0120683
0.0143191
0.00165681
-5.67414e-05
-8.86584e-05
-0.000169135
0.000450443
-0.000287933
0.00154441
-0.000372824
0.00300037
-0.000386618
0.00462857
-0.000282966
0.00628665
6.69807e-06
0.00790509
0.000582399
0.00948224
0.00157456
0.0110762
0.0127135
0.00318019
-5.06528e-05
-3.80055e-05
-0.000143457
0.000543247
-0.000224182
0.00162514
-0.00024661
0.00302279
-0.000167924
0.00454988
6.21607e-05
0.00605657
0.000515914
0.00745133
0.0013007
0.00869746
0.00255625
0.00982063
0.0107372
0.00453253
-4.85556e-05
1.055e-05
-0.000130455
0.000625146
-0.000185392
0.00168008
-0.00016053
0.00299793
-7.13195e-06
0.00439648
0.000329248
0.00572019
0.000924015
0.00685657
0.00188737
0.0077341
0.00336705
0.00834094
0.00841873
0.0056855
-5.04602e-05
6.10103e-05
-0.000130143
0.000704829
-0.000171781
0.00172171
-0.000115488
0.00294164
9.35124e-05
0.00418748
0.000514966
0.00529873
0.00122605
0.00614548
0.00233858
0.00662158
0.00400607
0.00667345
0.0057765
0.0066483
-5.59636e-05
0.000116974
-0.000141153
0.000790018
-0.000180661
0.00176122
-0.000107226
0.0028682
0.000140735
0.00393952
0.000628463
0.00481101
0.00143679
0.00533715
0.0026796
0.00537877
0.00451904
0.00483401
0.00280851
0.00748703
-6.42215e-05
0.000181195
-0.000160666
0.000886462
-0.000206263
0.00180682
-0.000125986
0.00278793
0.000149689
0.00366385
0.000693587
0.00426711
0.00159404
0.0044367
0.0029713
0.00400151
0.00500986
0.00279545
-0.000516183
0.00833455
-7.39681e-05
0.000255164
-0.000184488
0.000996982
-0.000239855
0.00186219
-0.000156491
0.00270456
0.000145017
0.00336234
0.000749136
0.00366299
0.00175884
0.003427
0.00330895
0.0024514
0.00563438
0.000470019
-0.00425638
0.00937457
-8.35981e-05
0.000338762
-0.000207331
0.00112072
-0.000270319
0.00192517
-0.000179005
0.00261325
0.000158976
0.00302436
0.000845882
0.00297608
0.0020093
0.00226357
0.00380909
0.000651609
0.00656696
-0.00228785
-0.00847563
0.0107862
-9.13275e-05
0.000430089
-0.000223326
0.00125271
-0.00028523
0.00198708
-0.00017136
0.00249938
0.000227889
0.00262511
0.00103994
0.00216404
0.00242768
0.00087583
0.00458539
-0.0015061
0.00794247
-0.00564493
-0.0131991
0.0126659
-9.54234e-05
0.000525513
-0.000226739
0.00138403
-0.000272369
0.00203271
-0.000111648
0.00233866
0.000387011
0.00212645
0.00138351
0.00116754
0.0030837
-0.000824365
0.00572154
-0.00414394
0.00980433
-0.00972771
-0.0183654
0.0149707
-9.44644e-05
0.000619977
-0.000212774
0.00150234
-0.00022145
0.00204138
1.83219e-05
0.00209889
0.00066479
0.00147998
0.00191548
-8.3149e-05
0.00401999
-0.00292887
0.00725186
-0.00737581
0.0120844
-0.0145602
-0.0238137
0.0175326
-8.75698e-05
0.000707547
-0.000178273
0.00159304
-0.000125612
0.00198872
0.000229981
0.00174329
0.00107819
0.000631773
0.00265415
-0.00165911
0.00524339
-0.00551811
0.00915074
-0.0112832
0.0146281
-0.0200376
-0.0293297
0.0201441
-7.45278e-05
0.000782075
-0.000122106
0.00164062
1.80042e-05
0.00184861
0.000528117
0.00123318
0.00163034
-0.000470451
0.00359461
-0.00362338
0.00672113
-0.00864464
0.0113158
-0.0158778
0.0172647
-0.0259865
-0.0347372
0.0226721
-5.5787e-05
0.000837862
-4.50375e-05
0.00162987
0.000207372
0.0015962
0.000909057
0.000531494
0.00231195
-0.00187335
0.00471104
-0.00602246
0.00838971
-0.0123233
0.0135602
-0.0210483
0.0197189
-0.0321452
-0.0427398
0.0277215
-3.23451e-05
0.000870207
5.00555e-05
0.00154747
0.000438397
0.00120786
0.00136404
-0.000394147
0.00310481
-0.00361412
0.00596331
-0.00888097
0.010168
-0.016528
0.0157396
-0.0266199
0.0220606
-0.0384662
-0.050069
0.0293899
-5.07624e-06
0.000875283
0.00016042
0.00138197
0.000704728
0.000663554
0.0018814
-0.00157082
0.00398583
-0.00571854
0.00730278
-0.0121979
0.0119591
-0.0211843
0.0177417
-0.0324024
0.0239786
-0.0447031
-0.0565375
0.030447
2.48907e-05
0.000850392
0.000283187
0.00112368
0.00100017
-5.34252e-05
0.00244896
-0.00301962
0.00492976
-0.00819934
0.00867598
-0.0159441
0.0136651
-0.0261735
0.0194668
-0.0382042
0.0253612
-0.0505975
-0.0621936
0.0310173
5.66269e-05
0.000793765
0.000415878
0.000764427
0.00131947
-0.000957016
0.00305515
-0.0047553
0.00590973
-0.0110539
0.0100257
-0.0200601
0.0151982
-0.0313459
0.0208291
-0.0438351
0.0262303
-0.0559987
-0.0670582
0.0310949
9.01051e-05
0.00070366
0.000557188
0.000297344
0.00165867
-0.0020585
0.00368883
-0.00678545
0.00689641
-0.0142615
0.0112932
-0.0244569
0.0164871
-0.0365399
0.021791
-0.0491389
0.0266137
-0.0608214
-0.0711857
0.0307411
0.000125399
0.000578262
0.000706657
-0.000283914
0.0020146
-0.00336645
0.00433803
-0.00910888
0.00785714
-0.0177806
0.0124223
-0.0290221
0.0174842
-0.0416018
0.0223506
-0.0540053
0.0265704
-0.0650411
-0.0746607
0.0300454
0.000162867
0.000415395
0.00086422
-0.000985267
0.00238385
-0.00488607
0.0049884
-0.0117134
0.00875654
-0.0215488
0.0133663
-0.0336318
0.0181675
-0.046403
0.0225342
-0.0583721
0.0261692
-0.0686761
-0.0775715
0.0290799
0.000202923
0.000212471
0.00102963
-0.00181197
0.00276168
-0.00661813
0.00562229
-0.014574
0.00955919
-0.0254857
0.0140922
-0.0381648
0.0185383
-0.0508491
0.0223844
-0.0622182
0.0254786
-0.0717703
-0.0800058
0.027913
0.000245837
-3.33657e-05
0.00120192
-0.00276806
0.00314131
-0.00855751
0.00621918
-0.0176519
0.0102337
-0.0295002
0.0145836
-0.0425147
0.018616
-0.0548815
0.0219513
-0.0655535
0.0245617
-0.0743807
-0.0820419
0.0265978
0.000291602
-0.000324968
0.00137913
-0.00385559
0.00351361
-0.010692
0.00675733
-0.0208956
0.0107563
-0.0334991
0.0148395
-0.0465979
0.0184311
-0.0584731
0.0212856
-0.068408
0.0234726
-0.0765676
-0.0837462
0.0251768
0.000339896
-0.000664864
0.00155816
-0.00507386
0.00386763
-0.0130015
0.00721634
-0.0242443
0.0111133
-0.037396
0.0148715
-0.0503562
0.01802
-0.0616216
0.0204348
-0.0708228
0.022256
-0.0783888
-0.0851723
0.0236822
0.000390057
-0.00105492
0.00173493
-0.00641873
0.00419146
-0.015458
0.00757953
-0.0276324
0.0113009
-0.0411174
0.0146997
-0.053755
0.0174199
-0.0643417
0.0194406
-0.0728436
0.0209476
-0.0798957
-0.0863624
0.0221376
0.000441154
-0.00149607
0.00190465
-0.00788222
0.00447346
-0.0180268
0.00783558
-0.0309945
0.0113242
-0.044606
0.0143487
-0.0567795
0.0166665
-0.0666595
0.0183384
-0.0745156
0.0195749
-0.0811322
-0.0873479
0.0205605
0.000492051
-0.00198813
0.00206217
-0.00945234
0.00470341
-0.020668
0.00797915
-0.0342703
0.0111944
-0.0478212
0.0138451
-0.0594302
0.0157921
-0.0686066
0.0171573
-0.0758807
0.0181592
-0.0821341
-0.0881521
0.0189634
0.000541481
-0.00252961
0.00220238
-0.0111132
0.00487343
-0.0233391
0.0080105
-0.0374073
0.010927
-0.0507377
0.0132149
-0.0617182
0.0148248
-0.0702164
0.0159203
-0.0769763
0.0167161
-0.0829299
-0.0887916
0.0173556
0.000588119
-0.00311773
0.00232056
-0.0128457
0.00497851
-0.0259971
0.00793445
-0.0403633
0.0105395
-0.0533427
0.0124827
-0.0636614
0.0137884
-0.0715221
0.014646
-0.0778339
0.0152576
-0.0835415
-0.0892777
0.0157437
0.000630649
-0.00374838
0.00241272
-0.0146277
0.00501661
-0.0286009
0.00775917
-0.0431058
0.0100501
-0.0556337
0.0116704
-0.0652817
0.0127025
-0.0725543
0.0133484
-0.0784798
0.0137922
-0.0839852
-0.0896183
0.0141328
0.000667829
-0.0044162
0.00247583
-0.0164357
0.00498846
-0.0311136
0.00749495
-0.0456123
0.00947647
-0.0576152
0.0107971
-0.0666023
0.0115832
-0.0733404
0.0120386
-0.0789351
0.0123266
-0.0842733
-0.0898185
0.0125268
0.000698544
-0.00511475
0.00250795
-0.0182452
0.00489705
-0.0335027
0.00715313
-0.0478684
0.00883497
-0.059297
0.00987931
-0.0676467
0.0104432
-0.0739043
0.0107247
-0.0792167
0.0108657
-0.0844143
-0.0898821
0.0109293
0.000721853
-0.0058366
0.00250827
-0.0200316
0.0047471
-0.0357415
0.00674534
-0.0498666
0.00814047
-0.0606922
0.00893072
-0.0684369
0.00929271
-0.0742663
0.00941333
-0.0793373
0.00941339
-0.0844143
-0.0898113
0.0093426
0.000737022
-0.00657362
0.00247703
-0.0217716
0.00454444
-0.0378089
0.00628289
-0.0516051
0.00740609
-0.0618154
0.0079627
-0.0689935
0.0081397
-0.0744433
0.00810925
-0.0793069
0.00797259
-0.0842776
-0.0896071
0.00776841
0.00074354
-0.00731716
0.0024154
-0.0234434
0.0042955
-0.039689
0.00577642
-0.053086
0.0066432
-0.0626821
0.00698455
-0.0693349
0.00699038
-0.0744491
0.00681622
-0.0791327
0.00654571
-0.0840071
-0.0892696
0.00620819
0.000741128
-0.00805829
0.00232528
-0.0250276
0.00400696
-0.0413707
0.00523567
-0.0543147
0.0058615
-0.063308
0.00600382
-0.0694772
0.00584963
-0.0742949
0.00553704
-0.0788201
0.00513466
-0.0836048
-0.0887982
0.0046633
0.000729725
-0.00878802
0.00220912
-0.026507
0.00368536
-0.0428469
0.00466933
-0.0552987
0.0050692
-0.0637078
0.0050267
-0.0694347
0.00472152
-0.0739897
0.00427416
-0.0783727
0.00374035
-0.083071
-0.0881931
0.0031352
0.000709481
-0.0094975
0.00206967
-0.0278672
0.00333694
-0.0441142
0.00408506
-0.0560468
0.00427314
-0.0638959
0.00405818
-0.0692197
0.00360967
-0.0735412
0.00303083
-0.0777939
0.00236242
-0.0824025
-0.0874529
0.00162225
0.000680752
-0.0101782
0.00190998
-0.0290964
0.00296752
-0.0451717
0.00348952
-0.0565688
0.00347894
-0.0638853
0.00310214
-0.0688429
0.00251676
-0.0729558
0.00181084
-0.077088
0.0010078
-0.0815995
-0.0865228
7.7712e-05
0.000644085
-0.0108223
0.00173336
-0.0301857
0.00258244
-0.0460208
0.0028884
-0.0568748
0.00269124
-0.0636882
0.00216163
-0.0683133
0.0014442
-0.0722384
0.000611206
-0.076255
-0.000304341
-0.080684
-0.0854957
-0.00133142
0.000600158
-0.0114225
0.00154281
-0.0311284
0.00218653
-0.0466645
0.00228662
-0.0569749
0.00191378
-0.0633154
0.00123914
-0.0676386
0.000392028
-0.0713913
-0.000562763
-0.0753002
-0.00161719
-0.0796295
-0.0843608
-0.00275208
0.000549758
-0.0119723
0.00134122
-0.0319198
0.00178406
-0.0471074
0.00168823
-0.056879
0.00114956
-0.0627767
0.000336029
-0.0668251
-0.000632397
-0.0704228
-0.00170751
-0.0742251
-0.00288918
-0.0784479
-0.0830975
-0.00415252
0.000493761
-0.012466
0.0011314
-0.0325575
0.00137885
-0.0473548
0.00109653
-0.0565967
0.000401294
-0.0620814
-0.000543231
-0.0658806
-0.00163127
-0.0693348
-0.00282791
-0.0730285
-0.00413172
-0.077144
-0.0817049
-0.00552434
0.00043308
-0.0128991
0.00091606
-0.0330404
0.000974257
-0.047413
0.000514647
-0.0561371
-0.00032887
-0.0612379
-0.00139928
-0.0648102
-0.00260548
-0.0681286
-0.00392014
-0.0717138
-0.00534522
-0.075719
-0.080185
-0.00686507
0.000368574
-0.0132677
0.000697782
-0.0333696
0.000573444
-0.0472887
-5e-05
-0.0555137
-0.00103887
-0.0602491
-0.0022323
-0.0636168
-0.00355321
-0.0668077
-0.00498318
-0.0702838
-0.00652823
-0.0741739
-0.0785406
-0.00817269
0.000301207
-0.0135689
0.000478595
-0.033547
0.000183538
-0.0469936
-0.000611264
-0.0547188
-0.00173033
-0.05913
-0.00304091
-0.0623062
-0.00447354
-0.0653751
-0.00601634
-0.068741
-0.00767943
-0.0725108
-0.0767753
-0.00944471
0.000232658
-0.0138015
0.000260495
-0.0335749
-0.000209006
-0.0465241
-0.0011525
-0.0537754
-0.00240056
-0.0578819
-0.00382438
-0.0608824
-0.0053658
-0.0638336
-0.00701903
-0.0670878
-0.00879749
-0.0707324
-0.0748953
-0.0106775
0.000163014
-0.0139645
5.65369e-05
-0.0334684
-0.000596388
-0.0458712
-0.00167973
-0.052692
-0.00304891
-0.0565128
-0.00458209
-0.0593492
-0.00622947
-0.0621863
-0.00799056
-0.0653267
-0.00988119
-0.0688417
-0.0729052
-0.0118713
8.90892e-05
-0.0140536
-0.000172871
-0.0332064
-0.000969796
-0.0450743
-0.00218974
-0.0514721
-0.0036748
-0.0550277
-0.00531358
-0.0577104
-0.0070642
-0.0604356
-0.00893044
-0.0634605
-0.0109306
-0.0668416
-0.0708015
-0.0130343
8.01741e-06
-0.0140616
-0.000395754
-0.0328027
-0.0013327
-0.0441373
-0.00268124
-0.0501235
-0.00427745
-0.0534315
-0.00601853
-0.0559693
-0.00787041
-0.0585838
-0.00983977
-0.0614911
-0.0119449
-0.0647365
-0.0685823
-0.014164
-6.21191e-05
-0.0139995
-0.000607244
-0.0322575
-0.00168337
-0.0430612
-0.0031538
-0.0486531
-0.00485619
-0.0517291
-0.00669649
-0.054129
-0.00864874
-0.0566315
-0.0107218
-0.059418
-0.0129192
-0.0625391
-0.0662626
-0.015239
-0.000134608
-0.0138649
-0.000810996
-0.0315811
-0.00202074
-0.0418514
-0.00360684
-0.047067
-0.00541041
-0.0499255
-0.00734655
-0.0521929
-0.00939731
-0.0545807
-0.0115749
-0.0572405
-0.0138898
-0.0602242
-0.0639831
-0.0161692
-0.000206469
-0.0136585
-0.00100768
-0.0307799
-0.00234414
-0.040515
-0.00403986
-0.0453713
-0.00593972
-0.0480257
-0.00796785
-0.0501648
-0.0101116
-0.052437
-0.0123711
-0.054981
-0.0147092
-0.0578861
-0.061213
-0.0174793
-0.000276662
-0.0133818
-0.00119706
-0.0298595
-0.00265316
-0.0390589
-0.00445248
-0.043572
-0.00644398
-0.0460342
-0.00855982
-0.0480489
-0.0107885
-0.0502084
-0.0131257
-0.0526437
-0.0155891
-0.0554227
-0.058456
-0.0183461
-0.000344741
-0.0130371
-0.00137866
-0.0288256
-0.00294744
-0.0374901
-0.00484443
-0.041675
-0.00692293
-0.0439557
-0.00912234
-0.0458495
-0.011434
-0.0478967
-0.0138624
-0.0502153
-0.0164412
-0.0528439
-0.0556721
-0.0192252
-0.000410393
-0.0126267
-0.00155201
-0.027684
-0.00322666
-0.0358154
-0.00521546
-0.0396862
-0.00737619
-0.0417949
-0.00965469
-0.043571
-0.0120455
-0.0455059
-0.0145584
-0.0477024
-0.0172236
-0.0501786
-0.0528359
-0.0200598
-0.000473352
-0.0121533
-0.00171671
-0.0264406
-0.00349056
-0.0340416
-0.00556543
-0.0376113
-0.00780367
-0.0395567
-0.0101572
-0.0412175
-0.0126238
-0.0430393
-0.0152165
-0.0451098
-0.0179593
-0.0474357
-0.0499364
-0.0208588
-0.000533382
-0.0116199
-0.00187242
-0.0251016
-0.00373889
-0.0321751
-0.00589419
-0.035456
-0.00820524
-0.0372456
-0.0106295
-0.0387932
-0.0131679
-0.0405009
-0.0158345
-0.0424432
-0.0186493
-0.044621
-0.0469694
-0.0216163
-0.000590271
-0.0110297
-0.00201886
-0.023673
-0.00397148
-0.0302225
-0.00620165
-0.0332258
-0.00858085
-0.0348664
-0.0110717
-0.0363023
-0.0136776
-0.037895
-0.0164131
-0.0397077
-0.0192959
-0.0417382
-0.0439347
-0.0223306
-0.000643831
-0.0103858
-0.00215577
-0.0221611
-0.00418817
-0.0281901
-0.00648775
-0.0309263
-0.00893043
-0.0324238
-0.0114835
-0.0337492
-0.0141525
-0.0352261
-0.0169522
-0.036908
-0.0198993
-0.038791
-0.0408343
-0.0229998
-0.000693897
-0.00969192
-0.00228295
-0.020572
-0.00438885
-0.0260842
-0.00675244
-0.0285627
-0.00925393
-0.0299223
-0.0118649
-0.0311383
-0.0145924
-0.0324986
-0.0174518
-0.0340486
-0.0204594
-0.0357835
-0.0376712
-0.0236225
-0.000740324
-0.0089516
-0.00240025
-0.0189121
-0.00457342
-0.0239111
-0.00699568
-0.0261404
-0.0095513
-0.0273666
-0.0122156
-0.0284739
-0.0149973
-0.0297169
-0.0179119
-0.031134
-0.0209757
-0.0327197
-0.0344494
-0.0241974
-0.000782988
-0.00816861
-0.00250752
-0.0171876
-0.00474181
-0.0216768
-0.00721745
-0.0236648
-0.00982251
-0.0247616
-0.0125357
-0.0257607
-0.0153669
-0.0268857
-0.0183321
-0.0281688
-0.0214476
-0.0296042
-0.0311734
-0.0247236
-0.000821782
-0.00734683
-0.00260465
-0.0154047
-0.00489398
-0.0193874
-0.00741775
-0.021141
-0.0100675
-0.0221118
-0.012825
-0.0230033
-0.0157012
-0.0240095
-0.0187123
-0.0251576
-0.0218749
-0.0264417
-0.0278481
-0.0252002
-0.000856613
-0.00649022
-0.00269154
-0.0135698
-0.00502988
-0.0170491
-0.00759655
-0.0185743
-0.0102863
-0.0194221
-0.0130834
-0.0202061
-0.0159999
-0.0210931
-0.0190522
-0.0221053
-0.0222569
-0.0232369
-0.0244785
-0.0256265
-0.000887404
-0.00560281
-0.00276811
-0.0116891
-0.00514948
-0.0146677
-0.00775385
-0.01597
-0.0104788
-0.0166971
-0.013311
-0.017374
-0.016263
-0.0181411
-0.0193516
-0.0190166
-0.0225936
-0.019995
-0.0210699
-0.0260021
-0.00091409
-0.00468872
-0.00283431
-0.00976884
-0.00525275
-0.0122493
-0.00788965
-0.0133331
-0.0106451
-0.0139416
-0.0135075
-0.0145116
-0.0164903
-0.0151584
-0.0196104
-0.0158965
-0.0228845
-0.016721
-0.0176277
-0.0263267
-0.000936615
-0.00375211
-0.00289008
-0.00781537
-0.00533969
-0.00979969
-0.00800396
-0.0106688
-0.0107851
-0.0111605
-0.013673
-0.0116236
-0.0166817
-0.0121497
-0.0198283
-0.0127498
-0.0231295
-0.0134198
-0.0141572
-0.0265999
-0.000954936
-0.00279717
-0.00293539
-0.00583492
-0.00541028
-0.0073248
-0.00809677
-0.00798229
-0.0108988
-0.00835849
-0.0138075
-0.00871486
-0.0168373
-0.00911993
-0.0200054
-0.00958171
-0.0233284
-0.0100968
-0.0106639
-0.0268217
-0.000969018
-0.00182815
-0.0029702
-0.00383374
-0.00546451
-0.00483048
-0.0081681
-0.0052787
-0.0109862
-0.00554042
-0.0139109
-0.00579013
-0.0169569
-0.00607396
-0.0201415
-0.00639705
-0.0234813
-0.00675701
-0.00715317
-0.0269921
-0.000978837
-0.000849318
-0.00299449
-0.00181809
-0.00550238
-0.00232258
-0.00821794
-0.00256314
-0.0110473
-0.00271109
-0.0139832
-0.00285421
-0.0170405
-0.00301667
-0.0202366
-0.00320089
-0.0235881
-0.00340553
-0.00363034
-0.0271109
-0.000984374
0.000135056
-0.00300825
0.000205779
-0.0055239
0.000193075
-0.00824631
0.000159265
-0.0110821
0.000124672
-0.0140244
8.80839e-05
-0.0170881
4.70369e-05
-0.0202907
1.75721e-06
-0.0236487
-4.75354e-05
-0.000100723
-0.0271783
-0.000985622
0.00112068
-0.00301147
0.00223163
-0.00552907
0.00271067
-0.00825322
0.00288342
-0.0110906
0.00296205
-0.0140344
0.00303193
-0.0170997
0.00311226
-0.0203038
0.00320585
-0.0236632
0.00331186
0.00342989
-0.0271938
-0.000982579
0.00210326
-0.00300416
0.00425321
-0.00551789
0.0052244
-0.00823867
0.0056042
-0.0110728
0.00579622
-0.0140134
0.00597253
-0.0170753
0.00617409
-0.0202758
0.0064064
-0.0236315
0.00666754
0.00695667
-0.0271583
-0.000975254
0.00307851
-0.00298634
0.0062643
-0.00549038
0.00772845
-0.00820269
0.0083165
-0.0110288
0.00862238
-0.0139614
0.00890506
-0.0170149
0.00922763
-0.0202069
0.00959837
-0.0235537
0.0100144
0.0104741
-0.0270711
-0.000963663
0.00404217
-0.002958
0.00825864
-0.00544655
0.010217
-0.00814527
0.0110152
-0.0109586
0.0114357
-0.0138783
0.0118247
-0.0169186
0.012268
-0.020097
0.0127767
-0.0234298
0.0133473
0.0139767
-0.0269324
-0.000947829
0.00499
-0.00291919
0.01023
-0.00538641
0.0126842
-0.00806644
0.0136953
-0.0108621
0.0142314
-0.0137641
0.0147267
-0.0167864
0.0152903
-0.0199462
0.0159365
-0.0232599
0.016661
0.017459
-0.0267423
-0.000927785
0.00591779
-0.00286994
0.0121722
-0.00530999
0.0151243
-0.00796621
0.0163515
-0.0107395
0.0170047
-0.0136191
0.0176063
-0.0166184
0.0182896
-0.0197546
0.0190727
-0.023044
0.0199505
0.0209157
-0.0265007
-0.000903573
0.00682136
-0.00281029
0.0140789
-0.00521731
0.0175313
-0.0078446
0.0189788
-0.0105907
0.0197508
-0.0134431
0.0204587
-0.0164147
0.0212612
-0.0195223
0.0221803
-0.0227823
0.0232105
0.0243412
-0.0262078
-0.000875246
0.0076966
-0.0027403
0.0159439
-0.00510841
0.0198994
-0.00770164
0.021572
-0.0104158
0.0224649
-0.0132363
0.0232792
-0.0161754
0.0242003
-0.0192495
0.0252544
-0.022475
0.026436
0.0277301
-0.025864
-0.000842865
0.00853947
-0.00266003
0.0177611
-0.00498333
0.0222227
-0.00753736
0.024126
-0.0102149
0.0251424
-0.0129988
0.0260632
-0.0159006
0.0271021
-0.0189364
0.0282902
-0.0221225
0.029622
0.0310772
-0.0254696
-0.000806506
0.00934598
-0.00256956
0.0195241
-0.0048421
0.0244952
-0.00735177
0.0266357
-0.0099879
0.0277786
-0.0127307
0.028806
-0.0155906
0.0299619
-0.0185833
0.0312829
-0.021725
0.0327637
0.0343774
-0.0250252
-0.000766254
0.0101122
-0.00246899
0.0212269
-0.00468479
0.026711
-0.00714493
0.0290958
-0.009735
0.0303686
-0.0124321
0.0315031
-0.0152454
0.0327753
-0.0181904
0.0342279
-0.0212831
0.0358564
0.0376258
-0.0245315
-0.000722211
0.0108344
-0.00235844
0.0228631
-0.00451145
0.028864
-0.00691686
0.0315012
-0.00945623
0.032908
-0.0121031
0.0341501
-0.0148653
0.0355375
-0.0177581
0.0371206
-0.0207973
0.0388956
0.040818
-0.0239895
-0.000674494
0.0115089
-0.00223803
0.0244267
-0.00432218
0.0309482
-0.00666762
0.0338467
-0.00915166
0.0353921
-0.0117439
0.0367423
-0.0144505
0.0382441
-0.0172865
0.0399565
-0.0202682
0.0418773
0.0439501
-0.0234003
-0.000623238
0.0121322
-0.00210793
0.0259113
-0.00411707
0.0329573
-0.00639727
0.0361269
-0.00882138
0.0378162
-0.0113546
0.0392755
-0.0140012
0.0408907
-0.0167759
0.0427312
-0.0196962
0.0447977
0.0470192
-0.0227654
-0.000568597
0.0127008
-0.00196833
0.0273111
-0.00389624
0.0348852
-0.00610587
0.0383365
-0.00846545
0.0401757
-0.0109353
0.0417454
-0.0135175
0.0434728
-0.0162262
0.04544
-0.0190818
0.0476533
0.0500239
-0.0220864
-0.000510745
0.0132115
-0.00181945
0.0286198
-0.00365986
0.0367257
-0.00579352
0.0404702
-0.00808399
0.0424662
-0.0104863
0.0441477
-0.0129998
0.0459862
-0.0156375
0.0480776
-0.0184246
0.0504404
0.0529652
-0.0213659
-0.000449881
0.0136614
-0.00166156
0.0298314
-0.0034081
0.0384722
-0.00546032
0.0425224
-0.00767706
0.044683
-0.0100077
0.0464784
-0.0124483
0.0484269
-0.015009
0.0506383
-0.0177218
0.0531533
0.0558493
-0.020606
-0.000386226
0.0140476
-0.00149498
0.0309402
-0.00314119
0.0401184
-0.00510643
0.0444876
-0.00724484
0.0468214
-0.00949979
0.0487333
-0.0118646
0.0507916
-0.0143434
0.0531171
-0.0169728
0.0557827
0.0586894
-0.019813
-0.000320026
0.0143676
-0.00132008
0.0319403
-0.00285939
0.0416577
-0.00473203
0.0463603
-0.00678743
0.0488768
-0.00896212
0.050908
-0.011247
0.0530765
-0.0136367
0.0555069
-0.0161497
0.0582956
0.0615139
-0.0189742
-0.00025156
0.0146192
-0.00113729
0.032826
-0.00256301
0.0430834
-0.00433735
0.0481346
-0.00630526
0.0508447
-0.00839562
0.0529984
-0.0105993
0.0552802
-0.0129167
0.0578243
-0.0153053
0.0606843
0.0643645
-0.0181559
-0.000181175
0.0148004
-0.000947061
0.0335919
-0.0022524
0.0443888
-0.00392268
0.0498049
-0.00579864
0.0527206
-0.00780034
0.0550001
-0.00991376
0.0573936
-0.0121528
0.0600633
-0.0145244
0.0630559
0.0666487
-0.0168087
-0.000109447
0.0149098
-0.000749799
0.0342322
-0.00192795
0.0455669
-0.00348834
0.0513653
-0.00526769
0.0545
-0.00717687
0.0569093
-0.00919388
0.0594106
-0.0113287
0.0621981
-0.0135804
0.0653076
0.0690047
-0.0159363
-3.81429e-05
0.014948
-0.000545472
0.0347395
-0.00159015
0.0466116
-0.00303483
0.05281
-0.00471286
0.056178
-0.00652625
0.0587226
-0.00844517
0.0613295
-0.0104772
0.0642302
-0.0126383
0.0674687
0.0712693
-0.0149029
3.66776e-05
0.0149113
-0.000332731
0.035109
-0.00123981
0.0475187
-0.00256282
0.054133
-0.00413483
0.05775
-0.00584958
0.0604374
-0.00766999
0.0631499
-0.00960107
0.0661612
-0.0116597
0.0695273
0.0734225
-0.0138129
0.000113675
0.0147976
-0.000105043
0.0353277
-0.000878387
0.048292
-0.00207272
0.0553273
-0.00353421
0.0592115
-0.00514743
0.0620506
-0.00686768
0.0648702
-0.00869631
0.0679899
-0.0106486
0.0714796
0.075467
-0.0126931
0.00018567
0.014612
0.000109667
0.0354037
-0.000507909
0.0489096
-0.00156505
0.0563844
-0.0029118
0.0605583
-0.00442014
0.063559
-0.00603778
0.0664878
-0.00776152
0.0697136
-0.00960508
0.0733232
0.0774063
-0.0115444
0.00025451
0.0143574
0.000316746
0.0353414
-0.000116814
0.0493432
-0.00104159
0.0573092
-0.00226829
0.061785
-0.00366812
0.0649588
-0.00518065
0.0680004
-0.0067972
0.0713302
-0.00852876
0.0750547
0.0792349
-0.0103574
0.000322322
0.0140351
0.000532197
0.0351316
0.000263382
0.049612
-0.000506423
0.058079
-0.00160417
0.0628827
-0.00289203
0.0662466
-0.00429688
0.0694052
-0.00580404
0.0728373
-0.00742088
0.0766716
0.0809459
-0.0091319
0.000388503
0.0136466
0.00074836
0.0347717
0.0006511
0.0497092
4.98008e-05
0.0586803
-0.000920386
0.0638529
-0.00209262
0.0674189
-0.00338708
0.0706997
-0.00478263
0.0742329
-0.00628269
0.0781716
0.0825355
-0.00787224
0.000451706
0.0131949
0.000963476
0.0342599
0.00104673
0.049626
0.000606173
0.0591209
-0.000219857
0.0646789
-0.00127063
0.0684697
-0.00245199
0.071881
-0.00373366
0.0755146
-0.0051155
0.0795535
0.0840012
-0.00658127
0.000511053
0.0126839
0.00117531
0.0335957
0.00144533
0.049356
0.00118007
0.0593861
0.000499949
0.065359
-0.000427843
0.0693974
-0.00149277
0.0729459
-0.00265804
0.0766798
-0.00392097
0.0808164
0.0853412
-0.00526091
0.000565702
0.0121182
0.00138136
0.03278
0.00184399
0.0488933
0.00176243
0.0594677
0.0012362
0.0658853
0.000437541
0.0701961
-0.000511791
0.0738953
-0.00155714
0.0777252
-0.00270054
0.0819598
0.0865541
-0.00391348
0.000614785
0.0115034
0.00157906
0.0318158
0.00223943
0.048233
0.00235042
0.0593567
0.00198682
0.0662489
0.00132381
0.0708591
0.000494271
0.0747248
-0.000436495
0.0786559
-0.00145335
0.0829767
0.0876435
-0.00254269
0.000657483
0.0108459
0.00176573
0.0307075
0.00262794
0.0473708
0.00294092
0.0590437
0.00274922
0.0664406
0.0022277
0.0713806
0.00152396
0.0754286
0.000714504
0.0794654
-0.000162999
0.0838542
0.0886374
-0.0011569
0.000693064
0.0101528
0.00193863
0.0294619
0.00300542
0.046304
0.00352999
0.0585192
0.00352047
0.0664501
0.00314764
0.0717535
0.00257201
0.0760042
0.00188422
0.0801532
0.0011106
0.0846278
0.0895086
0.000239377
0.000720905
0.00943192
0.00209493
0.0280879
0.00336734
0.0450315
0.00411297
0.0577735
0.00429696
0.0662661
0.00408112
0.0719693
0.0036377
0.0764476
0.00307211
0.0807188
0.00242891
0.085271
0.090212
0.00172553
0.000740513
0.0086914
0.00223166
0.0265968
0.00370867
0.0435545
0.00468444
0.0567978
0.00507429
0.0658763
0.00502523
0.0720184
0.00471972
0.0767531
0.00428018
0.0811583
0.00376516
0.085786
0.0907837
0.00319344
0.000751557
0.00793985
0.00234579
0.0250026
0.00402392
0.0418764
0.00523817
0.0555835
0.00584714
0.0652673
0.0059763
0.0718892
0.00581549
0.0769139
0.0055045
0.0814693
0.00511426
0.0861762
0.091228
0.00466994
0.00075392
0.00718593
0.00243476
0.0233217
0.00430726
0.0400039
0.005767
0.0541238
0.00660912
0.0644252
0.00692966
0.0715687
0.00692159
0.076922
0.00674186
0.0816491
0.00647602
0.0864421
0.0915467
0.00615736
0.000747682
0.00643824
0.00249632
0.0215731
0.00455262
0.0379476
0.00626284
0.0524135
0.00735262
0.0633354
0.00787956
0.0710417
0.00803424
0.0767673
0.00798996
0.0816933
0.00784948
0.0865826
0.0917413
0.00765482
0.000733129
0.00570512
0.00252872
0.0197775
0.00475381
0.0357225
0.0067167
0.0504507
0.00806867
0.0619834
0.00881903
0.0702914
0.00914891
0.0764374
0.00924619
0.0815961
0.00923284
0.0865959
0.0918133
0.00916084
0.000710752
0.00499436
0.00253085
0.0179574
0.00490488
0.0333485
0.00711879
0.0482367
0.00874684
0.0603554
0.00973957
0.0692986
0.0102599
0.0759171
0.0105071
0.0813489
0.0106237
0.0864793
0.0917626
0.0106744
0.000681243
0.00431312
0.00250249
0.0161361
0.00500039
0.0308506
0.00745873
0.0457784
0.0093752
0.0584389
0.0106309
0.068043
0.0113601
0.0751878
0.0117683
0.0809407
0.0120193
0.0862283
0.0915883
0.0121936
0.000645479
0.00366764
0.00244435
0.0143373
0.00503595
0.028259
0.00772588
0.0430885
0.00994027
0.0562245
0.0114805
0.0665027
0.0124403
0.074228
0.013024
0.0803571
0.013416
0.0858362
0.091289
0.0137154
0.00060449
0.00306315
0.00235818
0.0125836
0.00500866
0.0256085
0.00790984
0.0401873
0.0104272
0.0537071
0.0122739
0.064656
0.0134892
0.0730127
0.0142668
0.0795795
0.0148094
0.0852937
0.090862
0.0152364
0.000559411
0.00250374
0.00224673
0.0108962
0.00491768
0.0229376
0.00800119
0.0371038
0.0108202
0.0508881
0.012994
0.0624823
0.0144926
0.071514
0.0154871
0.078585
0.0161935
0.0845873
0.0903025
0.016753
0.000511435
0.00199231
0.00211362
0.00929406
0.00476461
0.0202866
0.00799232
0.0338761
0.0111031
0.0477773
0.0136214
0.059964
0.0154334
0.069702
0.0166725
0.0773459
0.0175607
0.0836992
0.0896028
0.0182603
0.000461755
0.00153055
0.00196319
0.00779262
0.00455382
0.017696
0.00787858
0.0305513
0.01126
0.0443959
0.0141346
0.0570894
0.016291
0.0675456
0.0178074
0.0758296
0.0189008
0.0826057
0.0887513
0.0197523
0.000411525
0.00111903
0.00180021
0.00640393
0.00429241
0.0152038
0.00765939
0.0271843
0.0112772
0.040778
0.0145111
0.0538555
0.0170413
0.0650153
0.0188718
0.0739991
0.0202004
0.0812772
0.0877309
0.0212208
0.000361824
0.000757202
0.00162965
0.0051361
0.00398986
0.0128435
0.00733925
0.0238349
0.0111445
0.0369727
0.0147277
0.0502723
0.0176568
0.0620863
0.0198414
0.0718145
0.0214417
0.0796769
0.0865176
0.0226549
0.000313658
0.000443544
0.0014565
0.00399326
0.00365757
0.0106425
0.00692845
0.0205641
0.0108573
0.0330438
0.0147633
0.0463664
0.0181075
0.0587421
0.0206865
0.0692354
0.0226016
0.0777618
0.0850796
0.0240396
0.000267985
0.000175559
0.00128563
0.00297562
0.0033081
0.00862
0.00644301
0.0174292
0.010419
0.0290678
0.0146007
0.0421847
0.018362
0.0549807
0.0213728
0.0662247
0.0236509
0.0754837
0.0833756
0.025355
0.000225748
-5.0189e-05
0.00112174
0.00207962
0.00295448
0.00678727
0.00590398
0.0144797
0.00984275
0.025129
0.0142303
0.0377971
0.0183906
0.0508205