/*--------------------------------*- C++ -*----------------------------------*\
  =========                 |
  \\      /  F ield         | OpenFOAM: The Open Source CFD Toolbox
   \\    /   O peration     | Website:  https://openfoam.org
    \\  /    A nd           | Version:  7
     \\/     M anipulation  |
\*---------------------------------------------------------------------------*/
FoamFile
{
    version     2.0;
    format      ascii;
    class       volVectorField;
    location    "395";
    object      U;
}
// * * * * * * * * * * * * * * * * * * * * * * * * * * * * * * * * * * * * * //

dimensions      [0 1 -1 0 0 0 0];

internalField   nonuniform List<vector> 
8500
(
(-0.00209611 -0.0240057 1.01677e-21)
(-0.0124284 -0.0329649 -2.92449e-21)
(-0.0314083 -0.0187891 -3.41399e-21)
(-0.0535676 0.0069798 3.39429e-21)
(-0.077275 0.0367886 -3.11456e-21)
(-0.101219 0.0674797 -1.65939e-21)
(-0.124265 0.0990919 2.83576e-21)
(-0.145648 0.132961 3.47265e-21)
(-0.164777 0.170325 -5.57648e-22)
(-0.181523 0.21237 1.66993e-21)
(-0.00124238 -0.019918 -1.12656e-21)
(-0.0107301 -0.0242921 3.47766e-21)
(-0.0288527 -0.00764765 -7.94702e-21)
(-0.0500888 0.0193375 7.19591e-21)
(-0.0726692 0.0495191 3.6045e-22)
(-0.0952368 0.0799197 5.33903e-21)
(-0.116627 0.110697 -9.20748e-21)
(-0.136005 0.143369 -1.3393e-20)
(-0.152565 0.179385 -2.52837e-21)
(-0.165601 0.220013 5.73889e-21)
(-0.000622084 -0.0161481 9.74627e-22)
(-0.00939607 -0.0163738 7.33813e-21)
(-0.0265121 0.00244342 1.74036e-20)
(-0.0465055 0.0304631 -1.57205e-20)
(-0.0674847 0.0609225 -3.44617e-21)
(-0.0880479 0.0909689 -3.19911e-21)
(-0.10699 0.120813 1.61437e-20)
(-0.123392 0.152099 1.01892e-20)
(-0.136267 0.186475 2.5778e-21)
(-0.143985 0.225186 -1.76465e-20)
(-0.000209712 -0.0127747 3.43204e-21)
(-0.00841865 -0.00936258 -4.3565e-21)
(-0.0244619 0.0112862 -3.17148e-20)
(-0.0429953 0.0401205 2.88372e-21)
(-0.0620094 0.0707309 8.71644e-21)
(-0.0800561 0.100338 -6.60171e-21)
(-0.0958867 0.129138 -6.538e-22)
(-0.108496 0.158835 -2.5851e-21)
(-0.116828 0.191269 6.02935e-21)
(-0.117912 0.227576 1.69305e-20)
(2.40952e-05 -0.00983872 2.33557e-21)
(-0.00778427 -0.00334631 -1.33132e-20)
(-0.0227736 0.0187482 3.22725e-20)
(-0.039738 0.0481281 -1.44065e-20)
(-0.0565445 0.0787164 -1.00637e-22)
(-0.0716938 0.107768 1.9709e-20)
(-0.0838975 0.135398 -9.1441e-21)
(-0.0920585 0.163298 1.11832e-21)
(-0.0952572 0.193478 -3.68888e-21)
(-0.088732 0.227045 8.73622e-22)
(0.000106964 -0.00734365 2.77687e-20)
(-0.00747984 0.00165387 3.39069e-20)
(-0.0215153 0.0247677 -8.79852e-21)
(-0.0369091 0.0543675 1.65594e-20)
(-0.0513913 0.0847014 4.97143e-21)
(-0.0634019 0.113034 -7.42142e-21)
(-0.0716229 0.13935 -2.77212e-21)
(-0.0748507 0.165242 -1.14705e-20)
(-0.0725182 0.192819 2.47774e-21)
(-0.057898 0.223955 -1.48348e-20)
(5.97018e-05 -0.00525806 -2.671e-20)
(-0.00749863 0.00568091 -1.75684e-20)
(-0.0207519 0.029355 1.39824e-20)
(-0.0346713 0.0587909 -2.39895e-20)
(-0.0468336 0.08857 2.45972e-21)
(-0.0556055 0.115964 2.74731e-20)
(-0.0596537 0.14079 -4.87968e-21)
(-0.0576543 0.164485 3.16114e-20)
(-0.0492671 0.18905 -9.68436e-22)
(-0.0265052 0.217655 -1.2232e-20)
(-0.00010787 -0.00352103 2.1701e-20)
(-0.00784473 0.00883438 -3.92982e-20)
(-0.0205433 0.0325902 -1.55363e-20)
(-0.0331644 0.0614248 1.85023e-20)
(-0.0431173 0.0902783 3.21813e-22)
(-0.0486815 0.116449 -5.11219e-20)
(-0.0485161 0.139565 -2.70245e-21)
(-0.0412464 0.160862 -2.43454e-20)
(-0.0266786 0.182079 -3.0801e-20)
(0.00458142 0.207239 1.7718e-20)
(-0.000399506 -0.0020496 -1.21192e-20)
(-0.00853496 0.0112591 5.89948e-21)
(-0.0209409 0.0346152 1.43046e-20)
(-0.0324917 0.0623706 -1.21989e-20)
(-0.0404239 0.0898651 -4.35133e-20)
(-0.0429234 0.114466 1.50569e-20)
(-0.0386362 0.135614 2.3187e-21)
(-0.0261532 0.154288 3.58338e-20)
(-0.00563836 0.171942 4.5973e-20)
(0.0343376 0.192843 -2.04432e-20)
(-0.000832949 -0.000747888 1.85142e-20)
(-0.00959713 0.0131301 1.67882e-20)
(-0.0219795 0.0356219 -2.44007e-21)
(-0.0327031 0.0618012 6.16559e-20)
(-0.0388371 0.0874606 2.60625e-20)
(-0.0384756 0.110098 1.92642e-20)
(-0.0302551 0.128982 2.64224e-20)
(-0.0126923 0.144814 -1.18291e-20)
(0.013438 0.158618 -1.52018e-20)
(0.062358 0.174519 -2.37822e-20)
(-0.00143782 0.000482736 -2.01556e-21)
(-0.0110638 0.0146354 -2.62036e-20)
(-0.0236658 0.0358362 -1.87601e-20)
(-0.0337736 0.0599519 -3.00769e-20)
(-0.0383076 0.0832919 -2.34361e-20)
(-0.0352764 0.103542 2.32604e-20)
(-0.0233066 0.11985 -2.18279e-20)
(-0.000773818 0.132674 -1.48999e-20)
(0.0306904 0.142355 1.87355e-21)
(0.0892849 0.152419 6.62579e-21)
(-0.00225071 0.00173278 -4.9723e-20)
(-0.0129616 0.0159567 2.38586e-20)
(-0.025962 0.0355 1.73275e-20)
(-0.035577 0.0571083 1.13617e-20)
(-0.0386123 0.0776711 -2.03305e-20)
(-0.032988 0.0951225 -1.70379e-20)
(-0.0173001 0.108573 2.4205e-20)
(0.0103228 0.118311 -1.91727e-20)
(0.0471407 0.123691 -1.17768e-21)
(0.117265 0.127241 -1.87788e-20)
(-0.00330769 0.00307404 4.09948e-20)
(-0.0152964 0.0172509 1.65708e-20)
(-0.0287671 0.0348498 1.0251e-21)
(-0.0378639 0.0535851 -2.07463e-20)
(-0.039311 0.0709813 1.69797e-21)
(-0.0309266 0.0852957 2.18943e-20)
(-0.0112081 0.0956838 -6.02905e-21)
(0.0221291 0.102415 -7.00148e-21)
(0.065033 0.103434 -1.56055e-20)
(0.150223 0.100573 2.87406e-20)
(-0.00463512 0.00455012 2.6974e-20)
(-0.0180375 0.0186328 -4.44548e-20)
(-0.0318998 0.0340956 -3.39419e-20)
(-0.0402414 0.0497019 1.47476e-20)
(-0.0397237 0.0636573 2.96129e-20)
(-0.0280206 0.074616 2.41952e-20)
(-0.00340119 0.081874 -2.5251e-20)
(0.037041 0.0858866 4.78053e-20)
(0.0879657 0.0826023 -1.4003e-20)
(0.1934 0.0749873 -3.28187e-20)
(-0.00623971 0.00616909 -4.10311e-20)
(-0.0211032 0.0201608 2.47187e-20)
(-0.0350869 0.0333999 -1.14397e-20)
(-0.042166 0.0457539 1.19805e-21)
(-0.0389319 0.056147 1.21632e-20)
(-0.022828 0.0636936 -3.83938e-20)
(0.00829872 0.0679351 3.2966e-20)
(0.0581333 0.0697365 -3.15563e-20)
(0.120613 0.0623523 4.9201e-20)
(0.251839 0.0535238 1.74019e-20)
(-0.00810013 0.00790008 8.41884e-21)
(-0.0243516 0.0218281 4.72641e-20)
(-0.0379641 0.0328589 -1.16631e-20)
(-0.0429595 0.0419815 1.187e-20)
(-0.0358207 0.0488648 1.33411e-20)
(-0.0136331 0.0531312 -3.95131e-21)
(0.0264093 0.0546786 2.80878e-20)
(0.0886927 0.0549204 1.55784e-21)
(0.167887 0.0439666 -3.1119e-20)
(0.328078 0.0386992 4.11876e-20)
(-0.0101617 0.00967473 -2.27767e-20)
(-0.0275787 0.0235605 -4.45776e-20)
(-0.0400896 0.0324892 3.86012e-20)
(-0.0418489 0.0385414 1.90945e-20)
(-0.0291656 0.0421433 -8.76778e-20)
(0.00137546 0.0434564 7.02862e-20)
(0.0534399 0.0428466 -6.1843e-20)
(0.131608 0.0421801 1.01823e-21)
(0.233727 0.0290208 -1.32337e-20)
(0.420162 0.0317679 -3.78779e-20)
(-0.0123365 0.0113943 1.94848e-20)
(-0.0305269 0.0252225 -2.56583e-21)
(-0.040971 0.0322236 -9.46555e-21)
(-0.0380257 0.0354866 -1.21054e-21)
(-0.0177503 0.0361946 -5.47654e-21)
(0.0238856 0.0350611 -2.23369e-20)
(0.0914969 0.0330304 9.1283e-21)
(0.188886 0.0319501 -1.44076e-20)
(0.319783 0.0194685 4.36749e-21)
(0.52142 0.0327299 1.12919e-21)
(-0.0145079 0.0129419 -3.9759e-20)
(-0.0328993 0.0266326 -2.80067e-21)
(-0.0400989 0.0319184 4.3247e-21)
(-0.0307151 0.0327675 1.76807e-21)
(-0.000483107 0.031089 2.86161e-20)
(0.055261 0.0281621 -8.21299e-20)
(0.141945 0.0256087 5.39964e-20)
(0.26147 0.0244305 -3.9828e-20)
(0.424451 0.0171773 3.26744e-20)
(0.623122 0.0399686 3.51455e-20)
(-0.0165408 0.0141981 -4.81394e-21)
(-0.0343778 0.0275863 2.21882e-20)
(-0.0369753 0.0313767 -2.77395e-20)
(-0.0192282 0.030245 -8.65493e-21)
(0.023503 0.0267755 1.65382e-20)
(0.0963957 0.0228268 7.81479e-20)
(0.205175 0.0207439 -1.52639e-20)
(0.349051 0.0199389 7.30744e-21)
(0.542336 0.0226719 -3.81941e-20)
(0.720251 0.0473973 1.73538e-20)
(-0.0182934 0.0150573 -1.45107e-20)
(-0.034641 0.027884 -1.13161e-20)
(-0.0311391 0.0303863 2.82396e-21)
(-0.00297762 0.0277326 1.08799e-20)
(0.0548252 0.0231459 -3.20491e-20)
(0.147679 0.0190512 -1.28171e-20)
(0.280581 0.018458 -3.96645e-20)
(0.449504 0.0192525 3.9547e-20)
(0.663814 0.0332863 4.12478e-20)
(0.816267 0.0457816 -1.69701e-20)
(-0.019629 0.0154412 -6.95543e-21)
(-0.0333777 0.0273664 2.82861e-20)
(-0.0221657 0.0287582 -3.15598e-20)
(0.018519 0.0250613 -3.68321e-21)
(0.0938777 0.020109 -1.47964e-20)
(0.20905 0.0168631 3.16969e-20)
(0.366808 0.018812 4.00331e-20)
(0.55874 0.0231385 -3.78566e-20)
(0.777785 0.0425268 3.99747e-20)
(0.94121 0.0433172 5.53482e-21)
(-0.0204198 0.0153071 -2.01885e-20)
(-0.0302948 0.0259351 -5.72413e-20)
(-0.00965808 0.0263688 5.5832e-20)
(0.0456688 0.0221482 8.01286e-21)
(0.140873 0.0176745 1.15326e-20)
(0.280027 0.0164112 7.16236e-21)
(0.461813 0.0219805 3.08582e-20)
(0.671171 0.0311257 2.22476e-20)
(0.88698 0.0524235 -7.76337e-20)
(1.04953 0.0549888 -3.75636e-20)
(-0.0205486 0.0146514 -6.89286e-20)
(-0.025107 0.0235684 1.38539e-20)
(0.00675948 0.0232048 -3.16763e-20)
(0.0788292 0.0190451 6.11889e-21)
(0.195867 0.0160152 9.75187e-21)
(0.359692 0.017993 -6.94797e-20)
(0.562793 0.0281809 3.05375e-20)
(0.781778 0.0423459 -2.00365e-20)
(0.987248 0.0647744 2.08542e-20)
(1.13474 0.0685706 -7.30561e-21)
(-0.0199127 0.0135081 2.50128e-20)
(-0.0175319 0.0203286 2.71289e-20)
(0.0274561 0.0193818 -1.61469e-21)
(0.11831 0.0159682 -8.63295e-21)
(0.258718 0.0154871 2.29153e-22)
(0.446622 0.0219976 4.84812e-22)
(0.666282 0.0374701 -4.62644e-20)
(0.886314 0.0560668 6.16684e-21)
(1.07472 0.0786594 5.64313e-20)
(1.20309 0.0828004 2.51392e-20)
(-0.0184171 0.0119373 -1.7013e-20)
(-0.0072932 0.0163597 -1.25313e-20)
(0.0527917 0.0151465 5.41105e-20)
(0.16434 0.0133009 1.38271e-21)
(0.328993 0.0165977 -2.26568e-20)
(0.538809 0.0287839 6.01108e-20)
(0.768566 0.0496495 1.31315e-20)
(0.9814 0.0715708 8.37118e-22)
(1.14836 0.0933585 -2.48161e-20)
(1.25454 0.0970203 -3.21145e-20)
(-0.0159637 0.0100173 3.58469e-20)
(0.00587913 0.011878 -9.89414e-21)
(0.0830922 0.0108624 -5.9331e-21)
(0.217002 0.0115655 -2.25201e-20)
(0.405844 0.0199188 3.66408e-20)
(0.63371 0.0385473 -1.77818e-20)
(0.866163 0.0642944 -1.99896e-20)
(1.06497 0.0882017 -4.59818e-21)
(1.20807 0.108308 -1.44606e-20)
(1.29239 0.11071 1.54702e-20)
(-0.012449 0.00784053 -1.31627e-20)
(0.0222432 0.00715562 -7.86236e-20)
(0.118611 0.00698391 8.1421e-21)
(0.276137 0.0113689 2.81429e-20)
(0.487919 0.0259656 2.00625e-20)
(0.72847 0.0512446 -6.6524e-20)
(0.956273 0.0808634 4.24125e-20)
(1.13613 0.105408 -1.90451e-20)
(1.25494 0.123113 2.84767e-20)
(1.31898 0.123841 7.79751e-21)
(-0.00776394 0.00550814 -1.45634e-20)
(0.0420301 0.00250519 2.78513e-20)
(0.159481 0.00402413 3.64979e-20)
(0.341264 0.0133299 -2.60652e-20)
(0.573385 0.0350815 9.66253e-21)
(0.820286 0.0666104 -5.86558e-20)
(1.037 0.0988058 -1.07983e-20)
(1.19501 0.122772 9.05487e-21)
(1.29052 0.137566 -2.17436e-20)
(1.33677 0.136386 -2.19347e-20)
(-0.00179746 0.00312923 -1.89414e-20)
(0.0654227 -0.00173231 -6.50049e-21)
(0.205664 0.00252063 -6.63687e-20)
(0.411521 0.0180001 -1.0406e-20)
(0.660078 0.0473781 -1.02966e-21)
(0.906746 0.0842393 3.55415e-21)
(1.10739 0.117636 5.89857e-21)
(1.24239 0.140014 -2.87426e-20)
(1.31655 0.151577 5.3345e-22)
(1.34778 0.148456 1.52059e-20)
(0.00555721 0.000821053 -4.99803e-21)
(0.0925323 -0.00519692 2.30609e-20)
(0.256909 0.0030027 3.24999e-20)
(0.485677 0.025795 2.03273e-20)
(0.745744 0.0627452 -5.9544e-21)
(0.986046 0.103678 -4.98726e-21)
(1.16723 0.136965 4.88182e-20)
(1.27947 0.156968 6.53323e-21)
(1.33473 0.165151 2.16195e-20)
(1.35368 0.160164 -9.18866e-21)
(0.0143925 -0.00128847 4.77886e-20)
(0.123376 -0.00751662 3.07464e-20)
(0.31273 0.0059594 -3.11942e-20)
(0.562209 0.0369515 -6.21126e-21)
(0.828298 0.0809129 3.27958e-21)
(1.05705 0.124495 -1.17941e-20)
(1.21689 0.156508 -2.52091e-20)
(1.30759 0.173559 -4.07805e-21)
(1.34661 0.178345 2.66118e-22)
(1.35575 0.171634 1.0011e-20)
(0.0247763 -0.00306025 6.0549e-21)
(0.157859 -0.00831602 -1.68419e-20)
(0.372398 0.0118086 3.99116e-20)
(0.639432 0.0515228 2.59333e-20)
(0.905999 0.101525 8.61483e-22)
(1.11921 0.146313 1.82245e-20)
(1.25711 0.17607 2.64233e-21)
(1.32809 0.18978 -1.8985e-20)
(1.35349 0.191246 1.58531e-20)
(1.35496 0.182973 2.91742e-23)
(0.0367439 -0.00434459 -3.97319e-20)
(0.195756 -0.0072263 -1.16828e-20)
(0.434974 0.0208699 -1.04962e-20)
(0.715654 0.0694044 -1.82624e-20)
(0.977549 0.1242 4.36182e-21)
(1.17247 0.168822 8.71464e-23)
(1.28881 0.19553 1.39714e-20)
(1.34223 0.205661 -2.32051e-21)
(1.35644 0.203945 -1.64021e-20)
(1.35202 0.194266 -1.50353e-20)
(0.05029 -0.00498319 3.25318e-21)
(0.236714 -0.00389903 1.90259e-20)
(0.499352 0.0333456 9.24691e-21)
(0.789311 0.090376 -2.871e-20)
(1.04209 0.148565 -1.3826e-21)
(1.21711 0.191775 -1.22538e-20)
(1.31298 0.214823 3.07706e-22)
(1.3511 0.221256 5.61926e-21)
(1.35629 0.216524 -6.1594e-21)
(1.34742 0.20557 1.706e-20)
(0.0653633 -0.00481343 7.70774e-21)
(0.280244 0.00197696 -1.87175e-20)
(0.564329 0.0493137 -4.4116e-20)
(0.859061 0.114143 4.05428e-20)
(1.09915 0.174277 -3.0006e-21)
(1.25363 0.214982 8.85004e-21)
(1.33057 0.233919 -1.19969e-21)
(1.35564 0.236625 8.35044e-21)
(1.35369 0.229052 -6.5334e-22)
(1.34149 0.216918 -1.32043e-20)
(0.081863 -0.00367411 -1.57579e-20)
(0.325744 0.0106577 2.44724e-20)
(0.628683 0.0687336 2.01078e-20)
(0.923831 0.140369 -2.90099e-20)
(1.14857 0.201025 -4.81244e-21)
(1.28264 0.238297 1.81383e-21)
(1.34247 0.25281 1.8075e-20)
(1.35661 0.25182 8.70465e-22)
(1.3491 0.241575 3.40932e-21)
(1.33445 0.228315 -7.32157e-21)
(0.0996387 -0.00141214 1.19608e-20)
(0.372513 0.0223281 -1.07292e-20)
(0.691238 0.0914595 -9.1719e-21)
(0.982827 0.168701 1.56315e-20)
(1.19042 0.228532 5.35772e-21)
(1.30481 0.261604 4.02592e-21)
(1.34947 0.271497 -1.84419e-20)
(1.35459 0.266882 -6.22627e-21)
(1.34286 0.254114 -5.49515e-21)
(1.32644 0.23975 2.41278e-21)
(0.118492 0.00211012 -6.02153e-21)
(0.41978 0.0370902 -1.36125e-22)
(0.750919 0.117259 1.73679e-20)
(1.03551 0.198778 -6.33255e-21)
(1.22494 0.25655 -2.80416e-21)
(1.3208 0.284809 -1.83258e-21)
(1.35225 0.28998 4.46454e-21)
(1.35007 0.281831 7.60625e-21)
(1.33518 0.266669 -2.46498e-22)
(1.31753 0.25119 2.69367e-21)
(0.138181 0.0070077 4.25052e-21)
(0.466742 0.0549563 -1.19224e-21)
(0.806796 0.145831 -3.12143e-21)
(1.08155 0.230246 -2.82073e-21)
(1.25247 0.284856 2.52198e-21)
(1.33123 0.30783 1.94697e-21)
(1.35136 0.308248 -1.78488e-21)
(1.34338 0.29667 6.31262e-22)
(1.32623 0.279217 8.76482e-22)
(1.30776 0.262589 -1.14574e-21)
(0.158426 0.0133664 2.30812e-21)
(0.51259 0.0758491 6.53953e-22)
(0.858094 0.176825 -3.90624e-21)
(1.12081 0.262753 -3.10108e-21)
(1.2734 0.31324 3.21068e-21)
(1.33667 0.330588 6.2581e-22)
(1.34726 0.326282 -1.41703e-21)
(1.33479 0.311378 1.32129e-21)
(1.3161 0.291715 7.22156e-22)
(1.29716 0.273888 -8.09726e-22)
(0.178919 0.0212372 -8.97826e-22)
(0.556546 0.0996055 1.83019e-21)
(0.904205 0.209853 1.20817e-20)
(1.15328 0.29596 -5.35107e-21)
(1.28815 0.34151 -2.58166e-21)
(1.33761 0.353003 -2.87372e-21)
(1.34033 0.344042 5.8285e-21)
(1.32449 0.325916 3.83932e-21)
(1.30486 0.304102 3.00726e-21)
(1.28575 0.285021 1.59073e-21)
(0.199333 0.0306329 1.8604e-20)
(0.597885 0.125984 -1.01896e-20)
(0.944675 0.244503 -1.15192e-20)
(1.17906 0.329532 1.55909e-20)
(1.29714 0.369477 8.12493e-21)
(1.3345 0.374987 -5.27516e-22)
(1.33084 0.361473 -9.71105e-21)
(1.31259 0.340222 -6.90187e-21)
(1.29253 0.316299 -6.99568e-21)
(1.27353 0.295915 4.06143e-21)
(0.21933 0.0415256 -2.51957e-20)
(0.63596 0.154677 2.36228e-20)
(0.979196 0.280347 2.70988e-20)
(1.19833 0.363147 -2.65007e-20)
(1.30079 0.39696 -9.06019e-21)
(1.32772 0.396445 5.71409e-21)
(1.31904 0.378506 1.01874e-20)
(1.2992 0.354215 1.5587e-21)
(1.27915 0.328209 -2.31977e-22)
(1.2605 0.306493 -5.44631e-21)
(0.238574 0.0538467 -3.64959e-21)
(0.670213 0.185319 -3.33127e-20)
(1.00759 0.31695 -3.55117e-20)
(1.21133 0.396488 3.94692e-20)
(1.29948 0.423777 -4.45305e-21)
(1.31759 0.417274 7.96093e-21)
(1.3051 0.395054 1.49946e-21)
(1.28438 0.367806 -4.26422e-21)
(1.26468 0.33973 2.28129e-21)
(1.24657 0.316677 -2.55873e-22)
(0.256738 0.0674884 7.40049e-21)
(0.700182 0.217501 2.06892e-20)
(1.02978 0.353875 1.16502e-20)
(1.21834 0.429251 -9.15874e-21)
(1.29359 0.44975 -1.40215e-20)
(1.30441 0.437358 -1.27904e-20)
(1.28918 0.411023 -2.51915e-21)
(1.26818 0.380906 6.48347e-21)
(1.24911 0.350789 -1.36075e-21)
(1.23155 0.326373 3.01465e-21)
(0.273514 0.0823065 -2.80698e-20)
(0.72551 0.250781 -2.60436e-20)
(1.04579 0.390688 -4.10121e-21)
(1.21964 0.46114 -4.62932e-21)
(1.28346 0.474696 -1.02781e-20)
(1.28841 0.456574 6.12988e-21)
(1.2714 0.426303 -1.10866e-21)
(1.25066 0.39343 -5.61678e-21)
(1.23246 0.361376 5.06781e-21)
(1.21536 0.335459 -6.89272e-21)
(0.288622 0.0981246 6.65594e-21)
(0.745944 0.284699 2.20754e-20)
(1.05572 0.426961 1.9048e-20)
(1.21557 0.491869 2.05237e-20)
(1.26942 0.498435 4.48618e-22)
(1.26981 0.474787 1.72247e-20)
(1.25187 0.440771 1.02546e-21)
(1.23186 0.405259 -1.90863e-20)
(1.21481 0.371493 1.32479e-20)
(1.19846 0.343859 4.74791e-21)
(0.301816 0.114737 1.82211e-20)
(0.761328 0.318786 4.05576e-20)
(1.05974 0.462281 -5.3387e-21)
(1.20645 0.521161 -2.58412e-20)
(1.25178 0.520788 1.14922e-20)
(1.24882 0.491861 -1.16754e-20)
(1.2307 0.454297 -1.50023e-20)
(1.21186 0.41625 -1.03941e-21)
(1.1961 0.38088 -1.06829e-20)
(1.18101 0.35165 3.9283e-21)
(0.312889 0.131917 8.54434e-21)
(0.771597 0.352576 6.29581e-21)
(1.05806 0.49625 5.01013e-20)
(1.19261 0.548749 9.19282e-21)
(1.23083 0.541578 -7.89323e-21)
(1.22561 0.507654 -3.97205e-21)
(1.20801 0.466752 2.26904e-20)
(1.1907 0.426329 1.79898e-20)
(1.17636 0.389398 8.59293e-21)
(1.1629 0.358643 -1.04647e-21)
(0.321678 0.149419 1.77573e-21)
(0.776764 0.385611 -4.14389e-20)
(1.05095 0.528489 -5.88818e-20)
(1.17442 0.574381 1.70697e-21)
(1.20685 0.560628 1.09967e-20)
(1.20038 0.522014 -1.50957e-20)
(1.18391 0.478002 -3.26827e-20)
(1.16841 0.435376 -9.31458e-21)
(1.15571 0.396955 -5.28232e-22)
(1.14408 0.364736 3.45018e-21)
(0.328063 0.166988 -1.48107e-20)
(0.77692 0.417452 3.71961e-20)
(1.03875 0.558645 3.53296e-20)
(1.15222 0.59782 -3.19672e-20)
(1.18009 0.577755 4.9012e-21)
(1.17331 0.534794 3.54073e-20)
(1.15849 0.487919 -7.16997e-21)
(1.14507 0.443275 5.98476e-21)
(1.13419 0.403453 -2.32825e-21)
(1.12458 0.369834 -2.86724e-21)
(0.331968 0.184365 -3.32889e-20)
(0.772232 0.447673 -5.86455e-20)
(1.02181 0.586401 -1.13941e-20)
(1.12635 0.618848 1.84581e-20)
(1.15081 0.592787 1.74099e-20)
(1.14457 0.545838 -3.49563e-20)
(1.13185 0.496375 1.80062e-20)
(1.12077 0.449914 -8.23282e-21)
(1.1119 0.408795 5.80083e-21)
(1.10448 0.373872 4.52207e-22)
(0.33337 0.201287 2.54178e-20)
(0.762945 0.475866 1.84946e-21)
(1.0005 0.611462 -5.6453e-21)
(1.09704 0.637231 -2.24964e-20)
(1.11931 0.60558 1.3847e-20)
(1.11433 0.554999 3.24809e-21)
(1.10413 0.503245 -9.46093e-21)
(1.0956 0.455185 2.27857e-21)
(1.08889 0.412884 -9.54841e-22)
(1.08387 0.376769 -4.95705e-22)
(0.332304 0.217505 -6.89635e-21)
(0.749371 0.501677 -9.48359e-21)
(0.975013 0.633512 2.41755e-20)
(1.06468 0.652798 1.10622e-20)
(1.08589 0.615944 -1.45313e-20)
(1.08279 0.562168 1.85165e-20)
(1.07546 0.508419 1.70914e-21)
(1.06968 0.458991 2.38741e-21)
(1.06526 0.415619 2.87791e-21)
(1.06282 0.378433 5.58631e-22)
(0.328855 0.232766 4.456e-20)
(0.731819 0.524901 3.42091e-20)
(0.945558 0.652194 -2.60692e-21)
(1.02979 0.665358 -4.94129e-21)
(1.05079 0.623758 -5.75361e-21)
(1.05013 0.567217 -2.59724e-21)
(1.04598 0.511792 2.28079e-21)
(1.04311 0.461245 9.6462e-22)
(1.04109 0.416905 -2.28668e-21)
(1.0414 0.378765 -4.37993e-21)
(0.323101 0.246745 3.40822e-21)
(0.710452 0.54525 5.77056e-21)
(0.912802 0.667488 -3.05263e-20)
(0.992751 0.674667 1.31153e-20)
(1.0143 0.628918 2.33206e-21)
(1.01655 0.570044 -4.45129e-21)
(1.01584 0.513272 1.71606e-21)
(1.016 0.461871 1.12291e-21)
(1.01651 0.416673 -4.15721e-21)
(1.01984 0.377715 5.46961e-21)
(0.315059 0.259155 -1.69399e-20)
(0.685506 0.562242 -1.20812e-20)
(0.877337 0.679236 9.29539e-21)
(0.953869 0.680663 1.84378e-21)
(0.976651 0.631315 -5.19793e-21)
(0.982229 0.57055 3.79376e-21)
(0.985176 0.512766 2.56e-21)
(0.988448 0.460777 -1.00493e-20)
(0.991775 0.414854 2.40464e-20)
(0.998757 0.375314 9.55964e-21)
(0.304935 0.26978 -1.27689e-20)
(0.657454 0.575575 3.05992e-20)
(0.83951 0.687221 -1.87731e-20)
(0.913476 0.683275 -3.03303e-21)
(0.938122 0.630866 -2.08271e-21)
(0.947368 0.568656 -1.83242e-21)
(0.954096 0.51019 -8.50839e-21)
(0.960588 0.457831 4.56564e-21)
(0.967278 0.411261 -1.26674e-21)
(0.978823 0.371595 -4.44366e-21)
(0.29298 0.278584 -1.23849e-21)
(0.626761 0.585134 -9.18176e-21)
(0.799722 0.691249 4.21994e-21)
(0.871919 0.682423 -1.71966e-21)
(0.898975 0.627508 5.48341e-21)
(0.912148 0.564307 5.0704e-21)
(0.922732 0.505495 1.60262e-20)
(0.932609 0.452935 -1.1953e-20)
(0.943383 0.405539 -2.29775e-20)
(0.959326 0.365921 9.68559e-21)
(0.279338 0.285381 -5.75791e-22)
(0.593881 0.590792 -2.32915e-21)
(0.758398 0.691213 9.5228e-22)
(0.829548 0.678045 6.88853e-21)
(0.859476 0.621197 -1.22023e-20)
(0.876767 0.557472 -2.00774e-20)
(0.891273 0.498676 -6.10601e-21)
(0.904787 0.446202 -1.45041e-21)
(0.920095 0.397885 3.03272e-20)
(0.937485 0.354737 -6.81361e-21)
(0.264224 0.290024 5.84848e-22)
(0.559259 0.592443 -4.09511e-21)
(0.715968 0.687055 3.55141e-22)
(0.786715 0.670104 7.28206e-22)
(0.819892 0.611905 -8.49143e-21)
(0.841443 0.54812 3.79925e-20)
(0.859973 0.489697 -2.65417e-20)
(0.877332 0.437696 3.19805e-20)
(0.896377 0.390086 -2.2573e-20)
(0.913662 0.348346 -2.98661e-20)
(0.247882 0.292401 -1.07147e-21)
(0.52333 0.590011 -8.93914e-22)
(0.672859 0.678754 4.11502e-22)
(0.743767 0.65859 1.33334e-20)
(0.780491 0.599623 -5.42047e-21)
(0.806402 0.536233 8.33804e-21)
(0.829038 0.478509 1.56526e-20)
(0.850259 0.42716 -8.27699e-21)
(0.872534 0.38008 -2.13707e-20)
(0.890901 0.338608 2.97404e-20)
(0.230568 0.292429 1.07093e-20)
(0.486527 0.583458 1.42457e-20)
(0.629493 0.666323 -1.37888e-20)
(0.701047 0.643519 -1.23602e-20)
(0.741539 0.584364 4.35341e-20)
(0.771865 0.521822 -4.44713e-20)
(0.798619 0.465156 5.33545e-20)
(0.823597 0.414812 -1.35047e-20)
(0.848818 0.368813 1.44894e-20)
(0.868904 0.328508 2.68652e-20)
(0.212544 0.290057 -3.94953e-21)
(0.449282 0.572785 -1.38768e-20)
(0.586281 0.649802 -8.38347e-21)
(0.658888 0.624935 -4.71047e-21)
(0.703303 0.56616 5.20796e-21)
(0.738051 0.504907 -1.14568e-20)
(0.768889 0.449643 -1.59871e-20)
(0.797504 0.400587 -3.46771e-20)
(0.825553 0.355914 3.43936e-20)
(0.847746 0.316972 -1.12593e-20)
(0.194071 0.28526 2.59129e-20)
(0.412017 0.558031 -3.14075e-21)
(0.543622 0.629265 -1.17968e-20)
(0.617617 0.602904 1.5262e-20)
(0.666041 0.545065 -2.75626e-20)
(0.705173 0.485535 7.36628e-20)
(0.740016 0.432019 -3.93287e-20)
(0.772148 0.384567 3.574e-20)
(0.802961 0.341528 -6.57868e-20)
(0.827463 0.304142 -1.74622e-20)
(0.175414 0.278042 -8.22351e-21)
(0.375146 0.53927 2.75547e-20)
(0.501905 0.604812 6.50585e-21)
(0.577548 0.57752 -1.41849e-20)
(0.630006 0.521153 -2.44958e-20)
(0.673436 0.463764 -9.65419e-22)
(0.712173 0.412332 1.31328e-20)
(0.747692 0.366782 -3.20916e-20)
(0.781199 0.325633 1.59173e-20)
(0.808104 0.289953 2.12514e-21)
(0.156832 0.268435 -4.5071e-20)
(0.339071 0.516612 -1.10953e-20)
(0.4615 0.576574 -3.05137e-21)
(0.538984 0.548898 3.6456e-20)
(0.595441 0.494517 -3.38955e-20)
(0.643043 0.439672 -8.88381e-21)
(0.685531 0.390652 -5.37849e-21)
(0.724298 0.347293 1.00153e-20)
(0.760407 0.30827 -1.26065e-20)
(0.789741 0.27444 -1.97231e-20)
(0.138577 0.256496 3.98396e-20)
(0.304176 0.490199 -2.26626e-20)
(0.422762 0.544709 1.13675e-21)
(0.502214 0.517176 -5.52263e-20)
(0.56258 0.465273 6.00087e-20)
(0.614188 0.413354 -1.9024e-20)
(0.660257 0.36706 1.14186e-20)
(0.702111 0.326164 9.92436e-21)
(0.740711 0.289483 2.8838e-20)
(0.772449 0.25765 -1.17782e-20)
(0.120895 0.24231 -1.62296e-20)
(0.270827 0.460206 4.69807e-20)
(0.386026 0.509401 2.65267e-20)
(0.467511 0.482514 4.34612e-20)
(0.531644 0.433551 -1.0113e-20)
(0.587055 0.384923 4.04645e-21)
(0.63651 0.341652 3.27436e-20)
(0.681272 0.303475 7.27784e-21)
(0.722227 0.269334 6.98155e-22)
(0.756305 0.239649 -1.4056e-20)
(0.104019 0.225982 -3.72638e-20)
(0.239367 0.426837 -2.75313e-21)
(0.351605 0.470859 -1.55611e-20)
(0.435131 0.445092 -6.98753e-20)
(0.502843 0.399503 -6.75996e-20)
(0.561822 0.354503 1.13016e-20)
(0.614439 0.314535 -2.78371e-20)
(0.66191 0.279316 1.7736e-20)
(0.705065 0.247902 9.65452e-21)
(0.741387 0.220517 2.02748e-20)
(0.0881696 0.207643 5.46744e-20)
(0.210117 0.390324 -4.47494e-20)
(0.31979 0.429314 -2.27421e-20)
(0.405312 0.405109 4.03846e-20)
(0.476372 0.363294 4.59413e-20)
(0.538651 0.322239 -1.52061e-20)
(0.594186 0.285832 -1.93905e-21)
(0.644148 0.25379 -5.52307e-20)
(0.689331 0.225273 -3.12659e-20)
(0.727767 0.200342 1.19237e-20)
(0.0735503 0.187442 -3.10903e-20)
(0.183373 0.350923 1.31028e-20)
(0.29085 0.385021 4.81895e-20)
(0.378273 0.362784 -2.15963e-20)
(0.452409 0.325108 1.678e-21)
(0.517695 0.288283 6.12701e-20)
(0.575879 0.255676 2.84798e-21)
(0.628098 0.227011 5.28024e-20)
(0.67512 0.201547 2.20417e-20)
(0.715514 0.179219 -3.50578e-20)
(0.0603483 0.165548 4.30123e-20)
(0.159401 0.308913 4.74234e-21)
(0.265025 0.338252 3.11204e-21)
(0.354212 0.318349 4.40034e-20)
(0.431119 0.285141 -5.89198e-21)
(0.499092 0.252805 -3.84171e-20)
(0.559638 0.224211 1.88248e-20)
(0.613863 0.199102 -3.00761e-20)
(0.662524 0.176834 -1.26031e-20)
(0.70469 0.15725 1.274e-20)
(0.0487312 0.142149 -2.68283e-20)
(0.138439 0.264595 -5.15224e-20)
(0.24253 0.289297 1.18937e-20)
(0.333306 0.272053 -2.33097e-20)
(0.412646 0.243602 -1.41082e-20)
(0.482964 0.215983 3.41491e-20)
(0.545568 0.191591 -8.26572e-21)
(0.601535 0.170196 7.66604e-21)
(0.651621 0.151249 -9.31139e-21)
(0.695352 0.134542 1.84523e-20)
(0.038846 0.117444 9.69422e-21)
(0.120695 0.218286 3.46785e-20)
(0.223552 0.238461 -4.81582e-20)
(0.315706 0.224158 2.27887e-20)
(0.397117 0.200712 -1.03847e-20)
(0.46942 0.178006 -2.92329e-20)
(0.533761 0.157979 2.38503e-20)
(0.591195 0.140434 5.01985e-21)
(0.642483 0.124917 -7.7233e-22)
(0.68755 0.111203 -2.14553e-20)
(0.0308181 0.0916487 3.16894e-21)
(0.106345 0.170321 1.11547e-20)
(0.208249 0.186064 4.35483e-20)
(0.301544 0.174937 -8.34529e-21)
(0.38464 0.156702 -6.57709e-21)
(0.45855 0.139071 2.44113e-21)
(0.524296 0.123545 1.04946e-21)
(0.582913 0.109962 8.89927e-21)
(0.635171 0.0979667 -1.16853e-20)
(0.681325 0.0873485 -7.43689e-21)
(0.0247494 0.0649868 -7.92727e-21)
(0.0955322 0.121046 -1.35769e-20)
(0.196749 0.132435 -3.38179e-20)
(0.290926 0.124669 1.70152e-20)
(0.375303 0.111811 1.38847e-20)
(0.450429 0.099384 5.88573e-22)
(0.517236 0.0884656 -2.32092e-20)
(0.576745 0.0789345 -1.02917e-20)
(0.629736 0.0705329 8.17899e-21)
(0.676711 0.0630926 8.74159e-21)
(0.0207184 0.0376919 1.37531e-21)
(0.088365 0.0708165 -2.8359e-21)
(0.189151 0.0779113 6.42493e-21)
(0.28393 0.0736455 -4.35339e-21)
(0.369172 0.0662828 -3.82478e-21)
(0.445115 0.0591542 -2.59548e-21)
(0.512631 0.0529215 4.76792e-21)
(0.572734 0.0475071 1.81592e-20)
(0.626214 0.0427528 2.63599e-21)
(0.673734 0.0385505 -4.67174e-21)
(0.0187789 0.0100035 1.70136e-21)
(0.0849189 0.019997 -4.67955e-21)
(0.185521 0.0228385 -5.30253e-21)
(0.280614 0.0221599 -3.67882e-21)
(0.366292 0.0203678 3.5022e-21)
(0.442646 0.0185963 1.57997e-21)
(0.510514 0.0170979 -1.57467e-21)
(0.57091 0.0158405 -7.16641e-21)
(0.624633 0.0147664 2.35865e-21)
(0.672412 0.0138367 -2.20614e-21)
(0.01896 -0.0178353 -1.69385e-21)
(0.085234 -0.0310443 4.65911e-21)
(0.185896 -0.0324355 5.2813e-21)
(0.281006 -0.0294902 -5.05395e-21)
(0.366689 -0.0256813 4.44698e-21)
(0.443042 -0.0220729 2.2257e-21)
(0.510902 -0.018818 -3.55236e-21)
(0.571288 -0.0159023 -4.12411e-21)
(0.625003 -0.0132814 6.07105e-22)
(0.672747 -0.0109202 -1.71521e-21)
(0.0212655 -0.0455795 1.85769e-21)
(0.0893158 -0.0819372 -5.55047e-21)
(0.190279 -0.0875606 1.23996e-20)
(0.28511 -0.0810055 -1.08833e-20)
(0.370366 -0.0716107 -5.19468e-22)
(0.446306 -0.0626354 -7.24071e-21)
(0.513799 -0.0546382 1.17561e-20)
(0.573871 -0.0475583 1.5974e-20)
(0.62733 -0.0412489 2.84717e-21)
(0.674756 -0.0356053 -6.13116e-21)
(0.025674 -0.0729854 -1.58261e-21)
(0.0971347 -0.132313 -1.16846e-20)
(0.198646 -0.142188 -2.71936e-20)
(0.292904 -0.132088 2.3525e-20)
(0.377304 -0.117167 4.83398e-21)
(0.452423 -0.102874 4.28619e-21)
(0.519189 -0.0901754 -2.10891e-20)
(0.578645 -0.0789656 -1.24494e-20)
(0.6316 -0.0689959 -2.77939e-21)
(0.678421 -0.0601091 1.89262e-20)
(0.0321394 -0.0998122 -5.57381e-21)
(0.108626 -0.181806 7.04192e-21)
(0.210937 -0.195972 4.91571e-20)
(0.30434 -0.182442 -4.42839e-21)
(0.387462 -0.1621 -1.26253e-20)
(0.461358 -0.142572 9.03457e-21)
(0.527044 -0.125244 6.63805e-22)
(0.585583 -0.109962 3.17385e-21)
(0.637788 -0.0963792 -6.96903e-21)
(0.683726 -0.0843064 -1.83902e-20)
(0.0405907 -0.125825 -3.75106e-21)
(0.123693 -0.230058 2.04187e-20)
(0.227065 -0.248572 -4.93702e-20)
(0.319345 -0.231777 2.13389e-20)
(0.40078 -0.206162 2.10097e-22)
(0.473058 -0.181519 -2.70425e-20)
(0.537317 -0.15966 1.19661e-20)
(0.594645 -0.14039 -1.12735e-21)
(0.645858 -0.123259 4.53514e-21)
(0.690649 -0.108079 -1.31606e-21)
(0.0509331 -0.150795 -4.28736e-20)
(0.142201 -0.27672 -5.12929e-20)
(0.24691 -0.299656 1.34857e-20)
(0.337821 -0.279809 -2.44476e-20)
(0.417177 -0.249113 -6.8647e-21)
(0.487454 -0.219508 1.03166e-20)
(0.549949 -0.193247 3.81343e-21)
(0.605777 -0.170094 1.4086e-20)
(0.655763 -0.149502 -3.02991e-21)
(0.699156 -0.131311 1.63812e-20)
(0.0630486 -0.174507 4.09849e-20)
(0.163985 -0.321454 2.63492e-20)
(0.270324 -0.348904 -1.98449e-20)
(0.359645 -0.326262 3.33832e-20)
(0.436549 -0.290719 -2.78566e-21)
(0.50446 -0.256339 -3.60495e-20)
(0.564865 -0.225831 6.31059e-21)
(0.618913 -0.198926 -3.82837e-20)
(0.667443 -0.174974 1.52779e-21)
(0.709208 -0.153887 1.38359e-20)
(0.076797 -0.196755 -3.01783e-20)
(0.188849 -0.363938 5.40919e-20)
(0.297128 -0.396004 2.12079e-20)
(0.38467 -0.370872 -2.63919e-20)
(0.458777 -0.330756 3.17919e-22)
(0.523971 -0.291818 6.63071e-20)
(0.581975 -0.257247 2.94589e-21)
(0.633974 -0.226742 2.93056e-20)
(0.680829 -0.199551 3.56417e-20)
(0.720756 -0.175695 -1.99515e-20)
(0.0920171 -0.217348 1.6907e-20)
(0.216565 -0.403868 -8.11686e-21)
(0.327118 -0.440664 -1.91811e-20)
(0.412729 -0.413386 1.42314e-20)
(0.483719 -0.36901 5.52881e-20)
(0.545869 -0.325765 -1.95324e-20)
(0.601178 -0.287338 -3.24682e-21)
(0.65087 -0.253408 -4.21347e-20)