/*--------------------------------*- C++ -*----------------------------------*\
  =========                 |
  \\      /  F ield         | OpenFOAM: The Open Source CFD Toolbox
   \\    /   O peration     | Website:  https://openfoam.org
    \\  /    A nd           | Version:  7
     \\/     M anipulation  |
\*---------------------------------------------------------------------------*/
FoamFile
{
    version     2.0;
    format      ascii;
    class       surfaceScalarField;
    location    "205";
    object      phi;
}
// * * * * * * * * * * * * * * * * * * * * * * * * * * * * * * * * * * * * * //

dimensions      [0 3 -1 0 0 0 0];

internalField   nonuniform List<scalar> 
16735
(
-7.13289e-05
0.00128976
-0.00121843
-0.000269399
0.00382883
-0.00363076
-0.000593749
0.00636507
-0.00604072
-0.00103393
0.00873761
-0.00829743
-0.00156339
0.0109269
-0.0103974
-0.0021424
0.0130479
-0.0124689
-0.00272715
0.0152726
-0.0146879
-0.00327946
0.0177412
-0.0171889
-0.00377065
0.0205047
-0.0200136
0.0234926
-0.0230919
-0.00417132
-4.03928e-05
0.00133015
-0.000166141
0.00395458
-0.000387428
0.00658636
-0.000701681
0.00905186
-0.00108566
0.0113108
-0.00149702
0.0134593
-0.00188285
0.0156585
-0.00218975
0.0180481
-0.00237151
0.0206865
0.0234932
-0.00237218
-1.07667e-05
0.00134092
-6.48663e-05
0.00400868
-0.000181188
0.00670268
-0.000364025
0.0092347
-0.000593459
0.0115403
-0.00082503
0.0136909
-0.000996966
0.0158304
-0.00103964
0.0180908
-0.000886015
0.0205329
0.0230844
-0.000477205
1.64269e-05
0.00132449
3.02809e-05
0.00399482
1.73167e-05
0.00671565
-3.24958e-05
0.00928451
-0.000103046
0.0116108
-0.000147652
0.0137355
-9.66664e-05
0.0157794
0.000132614
0.0178615
0.00063075
0.0200347
0.0222293
0.00148585
3.99335e-05
0.00128456
0.00011569
0.00391907
0.000200133
0.0066312
0.000279888
0.00920476
0.000368578
0.0115221
0.000512443
0.0135916
0.000787015
0.0155048
0.00128923
0.0173593
0.00212171
0.0192023
0.0209337
0.00341734
5.89771e-05
0.00122558
0.000188087
0.00378996
0.000360886
0.0064584
0.000562855
0.00900279
0.000805333
0.0112797
0.00113401
0.0132629
0.00162799
0.0150109
0.00239389
0.0165934
0.00354744
0.0180487
0.0192232
0.00525797
7.28901e-05
0.00115269
0.000244846
0.003618
0.000493478
0.00620977
0.000805692
0.00869057
0.00119176
0.0108936
0.00169604
0.0127586
0.00239863
0.0143083
0.00341243
0.0155796
0.00486045
0.0166007
0.0171284
0.00695516
8.12498e-05
0.00107144
0.000284059
0.00341519
0.000593205
0.00590063
0.0009997
0.00828408
0.00151427
0.010379
0.0021797
0.0120932
0.00307483
0.0134132
0.00431498
0.0143395
0.00602347
0.0148922
0.0146844
0.00846752
8.38688e-05
0.00098757
0.000304624
0.00319444
0.000656916
0.00554833
0.00113841
0.00780259
0.00176209
0.00975535
0.0025695
0.0112858
0.00363667
0.012346
0.005078
0.0128981
0.00700918
0.012961
0.0119223
0.00977128
8.07929e-05
0.000906777
0.000306322
0.00296891
0.00068329
0.00517137
0.00121825
0.00726763
0.00192837
0.00904522
0.00285493
0.0103592
0.00407079
0.0111301
0.0056872
0.0112817
0.00780531
0.0108429
0.008861
0.0108666
7.23121e-05
0.000834465
0.000289901
0.00275132
0.000673135
0.00478813
0.00123924
0.00670152
0.00201155
0.00827292
0.00303276
0.00933803
0.00437379
0.00978909
0.00614251
0.00951299
0.00842407
0.00856136
0.00549685
0.0117882
5.89911e-05
0.000775474
0.000257193
0.00255312
0.000629716
0.00441561
0.00120581
0.00612542
0.00201697
0.00746176
0.0031099
0.0082451
0.00455705
0.00834195
0.00646548
0.00760455
0.00891597
0.00611087
0.00179399
0.0126188
4.17185e-05
0.000733756
0.000211245
0.00238359
0.000559079
0.00406777
0.00112754
0.00555696
0.00195848
0.00663082
0.00310653
0.00709704
0.00465206
0.00679642
0.00670743
0.00554918
0.00938189
0.00343642
-0.00231905
0.0134949
2.17577e-05
0.000711998
0.000156423
0.00224893
0.000470299
0.0037539
0.00101975
0.00500752
0.00185983
0.00579074
0.00305864
0.00589824
0.00471433
0.00514073
0.00695414
0.00330937
0.00997095
0.000419614
-0.00693431
0.0145862
8.13267e-07
0.000711185
9.84177e-05
0.00215132
0.000375435
0.00347688
0.000903521
0.00447943
0.00175478
0.00493947
0.00301821
0.00463481
0.00482224
0.00333669
0.00732117
0.000810432
0.0108502
-0.00310937
-0.0121224
0.0160382
-1.92365e-05
0.000730421
4.40462e-05
0.00208804
0.000288999
0.00323193
0.00080466
0.00396377
0.00168524
0.00405889
0.00304937
0.00327068
0.00506806
0.001318
0.00793572
-0.00205722
0.01215
-0.00732363
-0.0178694
0.0178971
-3.60289e-05
0.00076645
1.55127e-06
0.00205046
0.000226712
0.00300677
0.000751203
0.00343928
0.00169657
0.00311353
0.00321953
0.00174771
0.00554097
-0.00100344
0.00890624
-0.00542248
0.0139082
-0.0123256
-0.0240304
0.0200691
-4.77237e-05
0.000814174
-2.44196e-05
0.00202715
0.000203329
0.00277902
0.000769721
0.00287289
0.00183053
0.00205272
0.00358682
-8.58424e-06
0.0063063
-0.00372292
0.0102867
-0.0094029
0.0160421
-0.0180809
-0.0303444
0.0223561
-5.24633e-05
0.000866637
-2.62632e-05
0.00200095
0.000231164
0.00252159
0.000881155
0.0022229
0.0021177
0.000816174
0.00418732
-0.0020782
0.00738852
-0.00692412
0.0120482
-0.0140625
0.0183706
-0.0244034
-0.0365122
0.0245384
-4.92288e-05
0.000915866
6.07551e-07
0.00195112
0.000317755
0.00220444
0.00109745
0.0014432
0.00257187
-0.000658244
0.00502658
-0.00453291
0.00876126
-0.0106588
0.0140635
-0.0193648
0.0206774
-0.0310172
-0.0423719
0.0265371
-3.82523e-05
0.000954118
5.22292e-05
0.00186064
0.000464662
0.00179201
0.00142032
0.000487538
0.00318885
-0.00242677
0.00607937
-0.00742343
0.0103518
-0.0149312
0.0161299
-0.0251429
0.022721
-0.0376084
-0.0500538
0.0304028
-1.99424e-05
0.000974061
0.00013226
0.00170843
0.000669261
0.00125501
0.0018423
-0.000685504
0.00394925
-0.00453371
0.00729656
-0.0107707
0.0120552
-0.0196899
0.018087
-0.0311746
0.0246096
-0.044131
-0.0569488
0.0315047
6.01963e-06
0.000968041
0.000235873
0.00147858
0.000924687
0.000566195
0.00234946
-0.00211028
0.00482321
-0.00700746
0.00861392
-0.0145614
0.0137481
-0.024824
0.0198232
-0.0372498
0.0260419
-0.0503496
-0.0628796
0.0319727
3.55528e-05
0.000932488
0.000358732
0.0011554
0.00122234
-0.00029741
0.00292448
-0.00381242
0.00577474
-0.00985773
0.00995982
-0.0187465
0.0153178
-0.030182
0.0212408
-0.0431729
0.0269478
-0.0560566
-0.0679786
0.0320467
6.92695e-05
0.000863219
0.000497105
0.000727566
0.00155353
-0.00135383
0.00354901
-0.00580791
0.00676459
-0.0130733
0.0112612
-0.0232431
0.0166743
-0.0355951
0.0222741
-0.0487727
0.0273826
-0.0611651
-0.0723048
0.0317088
0.00010593
0.000757289
0.000647836
0.00018566
0.00191045
-0.00261644
0.00420467
-0.00810213
0.00775175
-0.0166204
0.0124498
-0.0279411
0.0177546
-0.0409
0.0229107
-0.0539288
0.0273871
-0.0656415
-0.0759391
0.0310213
0.000145062
0.000612227
0.00080868
-0.000477958
0.00228616
-0.00409392
0.00487264
-0.0106886
0.00869463
-0.0204424
0.0134688
-0.0327153
0.0185262
-0.0459574
0.0231674
-0.05857
0.0270275
-0.0695015
-0.0789792
0.0300676
0.000186572
0.000425655
0.000978052
-0.00126944
0.00267397
-0.00578984
0.00553285
-0.0135475
0.00955323
-0.0244628
0.0142775
-0.0374396
0.0189832
-0.050663
0.0230829
-0.0626696
0.026371
-0.0727897
-0.0815148
0.0289066
0.000230544
0.000195111
0.00115451
-0.0021934
0.00306647
-0.0077018
0.0061636
-0.0166446
0.0102922
-0.0285913
0.0148532
-0.0420007
0.0191401
-0.0549499
0.0227049
-0.0662344
0.02548
-0.0755647
-0.0836306
0.0275958
0.000277032
-8.19202e-05
0.00133622
-0.00325259
0.00345484
-0.00982042
0.00674237
-0.0199321
0.0108839
-0.0327329
0.0151904
-0.0463071
0.0190251
-0.0587846
0.0220839
-0.0692932
0.0244097
-0.0778905
-0.0853978
0.0261769
0.000325903
-0.000407823
0.00152058
-0.00444727
0.00382862
-0.0121285
0.00724757
-0.0233511
0.0113112
-0.0367965
0.0152972
-0.0502931
0.018673
-0.0621605
0.0212679
-0.0718881
0.0232059
-0.0798284
-0.0868751
0.0246832
0.000376752
-0.000784575
0.00170408
-0.0057746
0.00417621
-0.0146006
0.00766084
-0.0268357
0.0115671
-0.0407028
0.0151916
-0.0539175
0.0181213
-0.0650903
0.0202997
-0.0740664
0.0219055
-0.0814343
-0.0881086
0.023139
0.000428869
-0.00121344
0.00188237
-0.0072281
0.00448578
-0.017204
0.00796877
-0.0303187
0.0116542
-0.0443883
0.0148976
-0.0571609
0.0174063
-0.067599
0.0192159
-0.075876
0.0205375
-0.0827559
-0.0891335
0.0215624
0.000481285
-0.00169473
0.00205055
-0.00879736
0.00474643
-0.0198999
0.00816392
-0.0337362
0.011582
-0.0478064
0.0144414
-0.0600203
0.0165611
-0.0697187
0.0180471
-0.077362
0.0191239
-0.0838327
-0.0899759
0.0199662
0.000532836
-0.00222757
0.00220348
-0.010468
0.00494924
-0.0226456
0.00824466
-0.0370316
0.0113652
-0.0509269
0.0138496
-0.0625047
0.0156152
-0.0714843
0.0168176
-0.0785644
0.0176813
-0.0846963
-0.0906542
0.0183596
0.000582238
-0.0028098
0.00233626
-0.012222
0.00508798
-0.0253974
0.00821439
-0.040158
0.0110207
-0.0537333
0.0131473
-0.0646312
0.0145935
-0.0729305
0.015547
-0.0795179
0.016222
-0.0853713
-0.0911816
0.0167494
0.000628171
-0.00343797
0.00244448
-0.0140383
0.00515937
-0.0281123
0.00808031
-0.043079
0.010567
-0.05622
0.0123574
-0.0664217
0.0135169
-0.0740899
0.0142503
-0.0802514
0.0147553
-0.0858762
-0.0915667
0.0151404
0.000669347
-0.00410732
0.00252463
-0.0158936
0.00516308
-0.0307507
0.00785214
-0.045768
0.0100219
-0.0583898
0.0115001
-0.0678999
0.0124023
-0.0749921
0.0129392
-0.0807883
0.0132878
-0.0862248
-0.0918155
0.0135365
0.000704575
-0.0048119
0.00257423
-0.0177633
0.00510128
-0.0332778
0.00754102
-0.0482078
0.00940254
-0.0602513
0.0105928
-0.0690901
0.0112635
-0.0756628
0.0116225
-0.0811473
0.0118246
-0.086427
-0.0919316
0.0119408
0.000732819
-0.00554472
0.00259194
-0.0196224
0.00497809
-0.0356639
0.00715864
-0.0503883
0.00872435
-0.061817
0.0096499
-0.0700157
0.0101114
-0.0761243
0.0103069
-0.0813428
0.0103697
-0.0864897
-0.0919177
0.0103558
0.000753228
-0.00629794
0.0025775
-0.0214467
0.00479898
-0.0378854
0.00671655
-0.0523059
0.00800116
-0.0631016
0.00868375
-0.0706983
0.00895453
-0.0763951
0.00899778
-0.081386
0.0089259
-0.0864179
-0.0917752
0.00878337
0.000765172
-0.00706312
0.00253169
-0.0232132
0.00457025
-0.039924
0.00622576
-0.0539614
0.00724501
-0.0641209
0.00770428
-0.0711575
0.00779961
-0.0764904
0.00769887
-0.0812853
0.00749564
-0.0862146
-0.0915042
0.00722473
0.000768244
-0.00783136
0.0024561
-0.024901
0.00429856
-0.0417664
0.0056964
-0.0553592
0.00646624
-0.0648907
0.00671962
-0.0714109
0.00665184
-0.0764227
0.00641313
-0.0810466
0.00608061
-0.0858821
-0.0911047
0.00568103
0.000762264
-0.00859362
0.00235294
-0.0264917
0.00399055
-0.043404
0.00513764
-0.0565063
0.0056736
-0.0654267
0.00573635
-0.0714737
0.0055154
-0.0762017
0.00514291
-0.0806741
0.00468194
-0.0854212
-0.0905754
0.00415263
0.000747263
-0.00934089
0.00222487
-0.0279693
0.00365265
-0.0448318
0.00455756
-0.0574112
0.00487445
-0.0657436
0.00475983
-0.071359
0.00439381
-0.0758357
0.00389081
-0.0801711
0.00330073
-0.0848311
-0.0899135
0.00263882
0.00072348
-0.0100644
0.00207477
-0.0293206
0.00329089
-0.0460479
0.00396325
-0.0580836
0.00407484
-0.0658551
0.00379426
-0.0710784
0.00329
-0.0753314
0.00266015
-0.0795413
0.00193908
-0.08411
-0.0891091
0.00113469
0.000691368
-0.0107557
0.00190596
-0.0305352
0.00291083
-0.0470528
0.00336078
-0.0585335
0.00327977
-0.0657741
0.00284294
-0.0706416
0.002206
-0.0746945
0.00145289
-0.0787881
0.000607831
-0.0832649
-0.0881426
-0.000358603
0.000651536
-0.0114073
0.00172156
-0.0316052
0.00251756
-0.0478488
0.00275541
-0.0587714
0.00249332
-0.0655121
0.0019085
-0.0700568
0.00114344
-0.0739294
0.00026049
-0.0779052
-0.000702002
-0.0823025
-0.087078
-0.00176664
0.000604713
-0.012012
0.00152454
-0.0325251
0.00211559
-0.0484398
0.00215155
-0.0588074
0.00171878
-0.0650793
0.000993113
-0.0693311
9.69964e-05
-0.0730333
-0.000893892
-0.0769143
-0.00199159
-0.0812048
-0.0858991
-0.00317052
0.00055172
-0.0125637
0.00131769
-0.033291
0.00170898
-0.0488311
0.00155291
-0.0586513
0.000958627
-0.064485
9.57112e-05
-0.0684682
-0.000910241
-0.0720274
-0.0020265
-0.0757981
-0.0032474
-0.0799839
-0.0845944
-0.00455206
0.000493461
-0.0130572
0.00110374
-0.0339013
0.00130124
-0.0490286
0.000962474
-0.0583125
0.000215901
-0.0637384
-0.000771135
-0.0674812
-0.00189868
-0.0708998
-0.00313328
-0.0745635
-0.00447432
-0.0786428
-0.0831638
-0.00590492
0.000430869
-0.013488
0.000885388
-0.0343558
0.000895261
-0.0490385
0.000383909
-0.0578012
-0.000507701
-0.0628468
-0.00161866
-0.0663702
-0.00286181
-0.0696567
-0.00421193
-0.0732133
-0.00567206
-0.0771827
-0.0816089
-0.00722696
0.000364791
-0.0138528
0.000665266
-0.0346563
0.000494252
-0.0488675
-0.000181427
-0.0571255
-0.00121169
-0.0618166
-0.00244264
-0.0651393
-0.00379827
-0.068301
-0.00526152
-0.0717501
-0.00683933
-0.0756049
-0.079932
-0.00851622
0.000296246
-0.0141491
0.000445022
-0.0348051
0.000109879
-0.0485323
-0.000734357
-0.0562813
-0.001896
-0.0606549
-0.00324212
-0.0637931
-0.00470741
-0.0668357
-0.00628146
-0.070176
-0.00797499
-0.0739113
-0.0781369
-0.0097701
0.000227032
-0.0143761
0.000226418
-0.0348045
-0.000289146
-0.0480168
-0.00127237
-0.055298
-0.00255897
-0.0593683
-0.00401642
-0.0623357
-0.00558868
-0.0652635
-0.00727126
-0.0684934
-0.0090779
-0.0721047
-0.0762301
-0.0109848
0.000156979
-0.0145331
2.89806e-05
-0.0346765
-0.000671444
-0.0473164
-0.00179553
-0.0541739
-0.0032002
-0.0579636
-0.00476498
-0.0607709
-0.00644154
-0.0635869
-0.00823029
-0.0667047
-0.0101469
-0.0701881
-0.0742164
-0.0121606
8.14955e-05
-0.0146146
-0.000211088
-0.0343839
-0.00104302
-0.0464844
-0.00230076
-0.0529162
-0.00381902
-0.0564454
-0.00548747
-0.0591025
-0.00726575
-0.0618086
-0.00915812
-0.0648123
-0.0111822
-0.068164
-0.0720919
-0.0133067
-1.66716e-06
-0.0146129
-0.000432407
-0.0339531
-0.00140373
-0.0455131
-0.00278718
-0.0515328
-0.0044145
-0.0548181
-0.00618358
-0.0573334
-0.00806177
-0.0599304
-0.0100561
-0.062818
-0.0121835
-0.0660366
-0.0698533
-0.0144222
-7.03728e-05
-0.0145425
-0.000642659
-0.0333809
-0.00175173
-0.044404
-0.0032546
-0.0500299
-0.00498608
-0.0530866
-0.00685283
-0.0554667
-0.00883027
-0.057953
-0.0109277
-0.0607206
-0.0131469
-0.0638174
-0.067518
-0.0154822
-0.000143312
-0.0143992
-0.000845182
-0.032679
-0.00208611
-0.0431631
-0.00370244
-0.0484136
-0.00553318
-0.0512558
-0.00749427
-0.0535056
-0.00956914
-0.0558781
-0.0117706
-0.0585191
-0.0141075
-0.0614805
-0.0652374
-0.016388
-0.000215313
-0.0141839
-0.00104058
-0.0318537
-0.00240633
-0.0417974
-0.00413019
-0.0466897
-0.00605543
-0.0493306
-0.00810705
-0.0514539
-0.0102735
-0.0537116
-0.0125546
-0.0562381
-0.0149092
-0.0591259
-0.0624396
-0.0177071
-0.000285471
-0.0138984
-0.00122857
-0.0309106
-0.00271204
-0.0403139
-0.00453755
-0.0448642
-0.00655274
-0.0473154
-0.00869063
-0.049316
-0.0109404
-0.0514619
-0.0132968
-0.0538816
-0.0157772
-0.0566455
-0.0596579
-0.0185589
-0.000353393
-0.013545
-0.00140868
-0.0298553
-0.00300295
-0.0387196
-0.00492426
-0.0429429
-0.00702483
-0.0452148
-0.00924488
-0.047096
-0.0115762
-0.0491305
-0.014023
-0.0514349
-0.01662
-0.0540485
-0.056853
-0.0194249
-0.000418795
-0.0131263
-0.00158046
-0.0286937
-0.00327877
-0.0370213
-0.0052901
-0.0409315
-0.00747134
-0.0430336
-0.00976904
-0.0447983
-0.012178
-0.0467216
-0.014708
-0.0489049
-0.0173903
-0.0513663
-0.0539998
-0.0202435
-0.000481434
-0.0126448
-0.00174353
-0.0274316
-0.00353925
-0.0352256
-0.00563494
-0.0388358
-0.0078922
-0.0407763
-0.0102635
-0.042427
-0.0127471
-0.044238
-0.0153557
-0.0462962
-0.0181141
-0.0486079
-0.0510865
-0.0210274
-0.000541088
-0.0121037
-0.00189755
-0.0260751
-0.00378418
-0.033339
-0.00595865
-0.0366614
-0.00828727
-0.0384477
-0.0107281
-0.0399862
-0.0132821
-0.041684
-0.0159634
-0.0436149
-0.0187921
-0.0457792
-0.0481077
-0.0217709
-0.000597555
-0.0115062
-0.00204226
-0.0246304
-0.00401339
-0.0313678
-0.00626115
-0.0344136
-0.00865651
-0.0360524
-0.0111626
-0.0374801
-0.0137828
-0.0390637
-0.0165319
-0.0408658
-0.0194272
-0.0428839
-0.0450627
-0.0224721
-0.000650658
-0.0108555
-0.00217742
-0.0231036
-0.00422674
-0.0293185
-0.00654238
-0.032098
-0.00899986
-0.0335949
-0.0115669
-0.0349131
-0.014249
-0.0363816
-0.0170611
-0.0380538
-0.0200194
-0.0399256
-0.0419531
-0.023129
-0.000700239
-0.0101553
-0.00230285
-0.021501
-0.00442411
-0.0271972
-0.0068023
-0.0297198
-0.00931727
-0.0310799
-0.0119409
-0.0322894
-0.0146805
-0.033642
-0.0175511
-0.0351832
-0.0205687
-0.036908
-0.0387819
-0.0237399
-0.00074616
-0.00940912
-0.00241838
-0.0198288
-0.00460543
-0.0250102
-0.00704086
-0.0272844
-0.00960868
-0.0285121
-0.0122845
-0.0296136
-0.015077
-0.0308495
-0.0180017
-0.0322586
-0.0210744
-0.0338352
-0.0355529
-0.0243035
-0.000788301
-0.00862082
-0.00252389
-0.0180932
-0.00477061
-0.0227635
-0.00725805
-0.0247969
-0.00987405
-0.0258961
-0.0125976
-0.0268901
-0.0154385
-0.0280085
-0.0184127
-0.0292844
-0.0215362
-0.0307117
-0.0322705
-0.0248187
-0.000826559
-0.00779426
-0.00261926
-0.0163005
-0.00491961
-0.0204631
-0.00745384
-0.0222627
-0.0101133
-0.0232366
-0.01288
-0.0241234
-0.0157648
-0.0251237
-0.0187839
-0.0262652
-0.0219536
-0.0275421
-0.0289394
-0.0252846
-0.000860846
-0.00693341
-0.00270441
-0.0144569
-0.00505239
-0.0181151
-0.00762822
-0.0196869
-0.0103265
-0.0205383
-0.0131317
-0.0213182
-0.0160557
-0.0221997
-0.019115
-0.0232059
-0.0223259
-0.0243312
-0.0255648
-0.0257005
-0.000891086
-0.00604232
-0.00277925
-0.0125688
-0.00516891
-0.0157255
-0.00778117
-0.0170746
-0.0105135
-0.0178059
-0.0133526
-0.0184791
-0.0163111
-0.0192412
-0.0194058
-0.0201113
-0.022653
-0.0210839
-0.0221519
-0.026066
-0.000917216
-0.00512511
-0.00284373
-0.0106423
-0.00526916
-0.0133001
-0.0079127
-0.0144311
-0.0106743
-0.0150443
-0.0135426
-0.0156108
-0.0165308
-0.016253
-0.019656
-0.0169861
-0.0229346
-0.0178053
-0.018706
-0.0263805
-0.000939183
-0.00418593
-0.00289779
-0.00868366
-0.0053531
-0.0108448
-0.00802278
-0.0117614
-0.010809
-0.0122581
-0.0137017
-0.0127181
-0.0167148
-0.0132398
-0.0198655
-0.0138354
-0.0231703
-0.0145006
-0.0152325
-0.0266438
-0.000956944
-0.00322898
-0.0029414
-0.0066992
-0.00542072
-0.00836544
-0.00811142
-0.00907068
-0.0109173
-0.0094522
-0.0138298
-0.00980566
-0.016863
-0.0102066
-0.0200343
-0.0106641
-0.0233601
-0.0111747
-0.0117368
-0.0268558
-0.000970465
-0.00225852
-0.00297452
-0.00469514
-0.00547201
-0.00586795
-0.00817861
-0.00636408
-0.0109995
-0.00663132
-0.0139269
-0.0068783
-0.0169753
-0.00715823
-0.0201621
-0.00747726
-0.0235039
-0.007833
-0.00822438
-0.0270163
-0.000979722
-0.00127879
-0.00299713
-0.00267774
-0.00550696
-0.00335811
-0.00822435
-0.0036467
-0.0110554
-0.0038003
-0.0139929
-0.0039408
-0.0170516
-0.00409949
-0.020249
-0.00427982
-0.0236016
-0.00448046
-0.00470061
-0.0271254
-0.000984699
-0.000294095
-0.00300921
-0.000653223
-0.00552557
-0.000841755
-0.00824863
-0.000923635
-0.011085
-0.000963949
-0.0140278
-0.000997983
-0.0170919
-0.00103535
-0.0202949
-0.00107688
-0.023653
-0.00112239
-0.0011713
-0.0271823
-0.000985386
0.000691291
-0.00301077
0.00137216
-0.00552784
0.00167531
-0.00825147
0.00179999
-0.0110883
0.00187291
-0.0140317
0.00194534
-0.0170963
0.00202929
-0.0202997
0.00212653
-0.0236583
0.00223622
0.00235633
-0.0271859
-0.000981783
0.00167307
-0.00300179
0.00339216
-0.00551376
0.00418728
-0.00823284
0.00451908
-0.0110654
0.00470547
-0.0140044
0.00488438
-0.0170648
0.00508963
-0.0202639
0.00532567
-0.0236182
0.0055905
0.00588291
-0.0271448
-0.0009739
0.00264697
-0.00298229
0.00540055
-0.00548334
0.00668833
-0.00819277
0.00722851
-0.0110162
0.00752891
-0.0139461
0.00781431
-0.0169972
0.00814071
-0.0201869
0.00851537
-0.0235317
0.00893532
0.00939893
-0.0270478
-0.000961751
0.00360873
-0.00295228
0.00739108
-0.00543659
0.00917264
-0.00813125
0.00992318
-0.0109407
0.0103384
-0.0138568
0.0107303
-0.0168937
0.0111776
-0.0200688
0.0116906
-0.0233989
0.0122653
0.0128993
-0.0268993
-0.000945362
0.00455409
-0.00291179
0.0093575
-0.00537351
0.0116344
-0.00804828
0.012598
-0.010839
0.0131292
-0.0137363
0.0136276
-0.0167542
0.0141955
-0.0199098
0.0148462
-0.0232199
0.0155754
0.0163788
-0.0266994
-0.000924765
0.00547885
-0.00286085
0.0112936
-0.00529413
0.0140676
-0.00794388
0.0152477
-0.0107111
0.0158964
-0.0135849
0.0165014
-0.0165788
0.0171894
-0.0197099
0.0179773
-0.0229949
0.0188604
0.0198319
-0.026448
-0.000900005
0.00637886
-0.0027995
0.0131931
-0.00519846
0.0164666
-0.00781806
0.0178673
-0.0105569
0.0186353
-0.0134025
0.0193469
-0.0163676
0.0201545
-0.0194692
0.021079
-0.022724
0.0221151
0.0232531
-0.0261452
-0.000871135
0.00724999
-0.0027278
0.0150497
-0.00508654
0.0188253
-0.00767082
0.0204516
-0.0103766
0.021341
-0.0131892
0.0221595
-0.0161207
0.0230861
-0.0191879
0.0241462
-0.0224073
0.0253344
0.0266371
-0.0257912
-0.000838219
0.00808821
-0.00264582
0.0168574
-0.00495839
0.0211379
-0.00750219
0.0229954
-0.0101701
0.024009
-0.012945
0.0249344
-0.0158383
0.0259793
-0.0188662
0.0271741
-0.0220451
0.0285134
0.0299785
-0.0253865
-0.000801334
0.00888955
-0.00255364
0.0186097
-0.00481407
0.0233983
-0.0073122
0.0254935
-0.00993756
0.0266343
-0.0126702
0.0276671
-0.0155204
0.0288295
-0.0185042
0.0301578
-0.0216379
0.0316471
0.0332722
-0.0249316
-0.00076057
0.00965012
-0.00245135
0.0203004
-0.00465363
0.0256006
-0.00710087
0.0279408
-0.00967895
0.0292124
-0.0123647
0.0303528
-0.0151672
0.031632
-0.0181022
0.0330928
-0.0211859
0.0347308
0.0365133
-0.024427
-0.000716033
0.0103661
-0.00233908
0.0219235
-0.00447712
0.0277387
-0.00686824
0.0303319
-0.00939436
0.0317385
-0.0120287
0.0329872
-0.014779
0.0343823
-0.0176606
0.0359744
-0.0206898
0.03776
0.0396973
-0.0238738
-0.000667843
0.011034
-0.00221696
0.0234726
-0.00428464
0.0298063
-0.00661436
0.0326616
-0.00908385
0.034208
-0.0116623
0.0355656
-0.0143559
0.0370759
-0.0171795
0.0387981
-0.02015
0.0407304
0.0428202
-0.0232729
-0.000616142
0.0116501
-0.00208517
0.0249416
-0.00407629
0.0317974
-0.00633929
0.0349246
-0.00874751
0.0366162
-0.0112657
0.0380838
-0.013898
0.0397082
-0.0166592
0.0415593
-0.0195671
0.0436383
0.045879
-0.0226258
-0.000561091
0.0122112
-0.0019439
0.0263245
-0.0038522
0.0337057
-0.00604309
0.0371155
-0.00838541
0.0389586
-0.010839
0.0405374
-0.0134056
0.0422748
-0.0160997
0.0442533
-0.0189413
0.04648
0.0488717
-0.021934
-0.000502874
0.0127141
-0.0017934
0.027615
-0.00361254
0.0355249
-0.00572587
0.0392288
-0.00799765
0.0412303
-0.0103824
0.0429222
-0.0128791
0.0447715
-0.0155008
0.0468751
-0.0182724
0.0492516
0.051799
-0.0211997
-0.000441697
0.0131558
-0.00163394
0.0288072
-0.0033575
0.0372484
-0.00538773
0.0412591
-0.00758432
0.0434269
-0.00989604
0.0452339
-0.0123186
0.0471941
-0.0148622
0.0494187
-0.0175581
0.0519475
0.054666
-0.0204251
-0.000377795
0.0135336
-0.00146587
0.0298953
-0.00308734
0.0388699
-0.00502886
0.0432006
-0.0071456
0.0455437
-0.0093802
0.0474685
-0.0117255
0.0495394
-0.0141861
0.0518793
-0.0167974
0.0545588
0.0574851
-0.0196166
-0.000311428
0.013845
-0.00128958
0.0308734
-0.00280234
0.0403827
-0.00464942
0.0450477
-0.0066816
0.0475759
-0.00883456
0.0496215
-0.0110986
0.0518034
-0.0134693
0.0542501
-0.0159654
0.0570549
0.0602851
-0.0187655
-0.000242889
0.0140879
-0.00110553
0.0317361
-0.00250284
0.04178
-0.00424971
0.0467945
-0.00619276
0.0495189
-0.00825999
0.0516887
-0.0104412
0.0539846
-0.0127373
0.0565462
-0.0151097
0.0594273
0.063109
-0.0179336
-0.000172549
0.0142605
-0.000914218
0.0324778
-0.00218922
0.043055
-0.00383001
0.0484353
-0.00567936
0.0513683
-0.00765653
0.0536659
-0.00974614
0.0560742
-0.0119616
0.0587617
-0.0143115
0.0617772
0.0653917
-0.0165942
-0.000101022
0.0143615
-0.000716058
0.0330928
-0.00186192
0.0442008
-0.00339068
0.0499641
-0.00514159
0.0531192
-0.00702478
0.055549
-0.00901692
0.0580663
-0.0111276
0.0608723
-0.0133577
0.0640074
0.067732
-0.015698
-3.03364e-05
0.0143918
-0.00051102
0.0335735
-0.00152154
0.0452114
-0.00293227
0.0513748
-0.0045799
0.0547668
-0.00636582
0.057335
-0.00825876
0.0599593
-0.0102661
0.0628796
-0.0124048
0.0661462
0.0699769
-0.0146498
4.52497e-05
0.0143466
-0.000297624
0.0339163
-0.00116898
0.0460827
-0.00245543
0.0526613
-0.00399498
0.0563064
-0.00568072
0.0590207
-0.00747383
0.0617524
-0.00937897
0.0647848
-0.0114137
0.0681809
0.072109
-0.0135457
0.000120926
0.0142256
-6.70661e-05
0.0341043
-0.00080593
0.0468216
-0.00196047
0.0538158
-0.00338748
0.0577334
-0.00497003
0.0606032
-0.00666146
0.0634438
-0.00846261
0.0665859
-0.0103889
0.0701072
0.0741295
-0.0124095
0.000191338
0.0140343
0.000139476
0.0341562
-0.000434447
0.0473955
-0.0014479
0.0548293
-0.00275841
0.0590439
-0.00423415
0.062079
-0.00582128
0.0650309
-0.00751584
0.0682805
-0.00933118
0.0719225
0.0760416
-0.0112432
0.000259254
0.013775
0.000349584
0.0340659
-3.25597e-05
0.0477776
-0.000919824
0.0557165
-0.00210845
0.0602325
-0.00347346
0.063444
-0.00495369
0.0665112
-0.00653921
0.069866
-0.0082403
0.0736236
0.07784
-0.0100387
0.00032614
0.0134489
0.000563419
0.0338286
0.000335649
0.0480054
-0.000382241
0.0564344
-0.00143809
0.0612883
-0.00268874
0.0646946
-0.00405939
0.0678818
-0.0055335
0.0713401
-0.00711756
0.0752077
0.0795182
-0.0087958
0.000390743
0.0130582
0.000777405
0.0334419
0.000725724
0.0480571
0.000172386
0.0569878
-0.000748876
0.0622096
-0.001881
0.0658268
-0.00313909
0.0691399
-0.00449935
0.0727004
-0.00596437
0.0766727
0.0810725
-0.00751869
0.000452097
0.0126061
0.000989893
0.0329041
0.0011209
0.0479261
0.000734733
0.0573739
-4.32285e-05
0.0629876
-0.00105104
0.0668346
-0.00219364
0.0702825
-0.00343754
0.0739443
-0.00478219
0.0780173
0.0825006
-0.00621025
0.000509356
0.0120967
0.00119815
0.0322153
0.00151728
0.047607
0.00130965
0.0575816
0.00068228
0.0636149
-0.000201559
0.0677184
-0.00122441
0.0713054
-0.00234902
0.0750689
-0.00357274
0.0792411
0.0838005
-0.0048727
0.000561599
0.0115351
0.00139945
0.0313775
0.00191216
0.0470942
0.00189165
0.0576021
0.00142232
0.0640843
0.000672877
0.0684679
-0.000235505
0.0722137
-0.00123566
0.076069
-0.00233708
0.0803425
0.084972
-0.00350852
0.000607956
0.0109272
0.00159118
0.0303943
0.00230206
0.0463834
0.00247764
0.0574265
0.00217537
0.0643865
0.00156516
0.0690781
0.000782839
0.0729961
-0.000110013
0.0769619
-0.00107289
0.0813054
0.0860223
-0.0021232
0.00064765
0.0102795
0.00177064
0.0292713
0.00268303
0.045471
0.00306408
0.0570454
0.00293863
0.064512
0.00247428
0.0695424
0.00182067
0.0736497
0.0010611
0.0777215
0.000224717
0.0821417
0.0869745
-0.000727505
0.000679997
0.00959951
0.00193504
0.0280162
0.00305071
0.0443553
0.00364663
0.0564495
0.00370876
0.0644498
0.00339813
0.069853
0.00287654
0.0741713
0.00223922
0.0783588
0.00151899
0.082862
0.0877764
0.000717145
0.00070443
0.00889508
0.00208151
0.0266392
0.00340028
0.0430365
0.00422017
0.0556296
0.00448161
0.0641884
0.00433367
0.070001
0.00394876
0.0745562
0.00343742
0.0788701
0.0028497
0.0834497
0.0884234
0.00220263
0.000720523
0.00817456
0.00220699
0.0251527
0.00372647
0.041517
0.0047788
0.0545773
0.00525216
0.063715
0.00527747
0.0699757
0.00503559
0.0747981
0.00465434
0.0792514
0.00419683
0.0839072
0.0889352
0.00368506
0.000728045
0.00744651
0.00230874
0.023572
0.0040236
0.0398022
0.00531572
0.0532852
0.00601443
0.0630163
0.00622524
0.0697649
0.00613396
0.0748894
0.00588563
0.0794997
0.00555662
0.0842362
0.0893163
0.00517556
0.000726971
0.00671954
0.00238438
0.0219146
0.00428573
0.0379008
0.00582324
0.0517477
0.00676127
0.0620783
0.00717156
0.0693546
0.00723996
0.074821
0.007128
0.0796117
0.00692783
0.0844364
0.0895677
0.00667636
0.000717476
0.00600207
0.00243191
0.0202002
0.00450673
0.035826
0.00629275
0.0499616
0.00748421
0.0608868
0.00810983
0.068729
0.00834911
0.0745817
0.00837871
0.079582
0.00830893
0.0845062
0.0896903
0.00818631
0.000699943
0.00530212
0.00244993
0.0184502
0.00468057
0.0335954
0.00671478
0.0479274
0.00817335
0.0594283
0.00903198
0.0678703
0.00945599
0.0741577
0.00963449
0.0794035
0.00969762
0.084443
0.0896846
0.00970337
0.000674963
0.00462716
0.00243783
0.0166873
0.00480162
0.0312316
0.00707922
0.0456498
0.0088173
0.0576902
0.00992828
0.0667593
0.0105537
0.0735322
0.010891
0.0790663
0.0110909
0.0842432
0.0895497
0.0112258
0.000643327
0.00398383
0.00239589
0.0149347
0.0048651
0.0287624
0.00737556
0.0431394
0.00940315
0.0556626
0.010787
0.0653755
0.0116337
0.0726855
0.0121426
0.0785574
0.012485
0.0839008
0.0892839
0.0127508
0.000605992
0.00337784
0.00232539
0.0132154
0.00486753
0.0262202
0.00759337
0.0404135
0.00991657
0.0533394
0.0115942
0.0636979
0.0126851
0.0715945
0.0133821
0.0778604
0.0138754
0.0834075
0.0888847
0.0142747
0.000564057
0.00281378
0.00222865
0.0115508
0.00480727
0.0236416
0.00772291
0.0374979
0.0103421
0.0507202
0.0123335
0.0617065
0.0136945
0.0702335
0.0146003
0.0769546
0.0152562
0.0827517
0.0883476
0.0157932
0.00051871
0.00229507
0.00210894
0.00996052
0.004685
0.0210656
0.00775598
0.0344269
0.0106637
0.0478124
0.0129863
0.0593839
0.0146454
0.0685744
0.0157852
0.0758148
0.0166196
0.0819173
0.0876658
0.0173014
0.000471182
0.00182389
0.00197035
0.00846136
0.00450402
0.0185319
0.00768695
0.031244
0.0108656
0.0446338
0.0135317
0.0567178
0.0155181
0.0665881
0.0169217
0.0744111
0.0179556
0.0808834
0.0868287
0.0187927
0.000422709
0.00140118
0.00181753
0.00706653
0.00427044
0.016079
0.00751382
0.0280006
0.0109332
0.0412144
0.0139474
0.0537036
0.016289
0.0642464
0.0179905
0.0727097
0.0192509
0.079623
0.0858209
0.0202587
0.000374496
0.00102669
0.00165554
0.00578548
0.00399291
0.0137416
0.00723939
0.0247542
0.0108553
0.0375985
0.0142103
0.0503486
0.0169314
0.0615253
0.0189678
0.0706733
0.020488
0.0781028
0.0846207
0.0216882
0.00032769
0.000698998
0.00148953
0.00462365
0.00368219
0.011549
0.0068719
0.0215644
0.0106255
0.0338449
0.0142984
0.0466756
0.0174155
0.0584081
0.0198246
0.0682643
0.0216442
0.0762832
0.0831987
0.0230661
0.000283371
0.000415627
0.00132452
0.0035825
0.00335037
0.0095231
0.00642527
0.0184895
0.0102444
0.0300258
0.0141933
0.0427268
0.0177098
0.0548915
0.0205268
0.0654474
0.0226904
0.0741195
0.081517
0.0243722
0.000242529
0.000173098
0.00116525
0.00265977
0.00301007
0.00767829
0.00591836
0.0155812
0.00972171
0.0262225
0.0138827
0.0385658
0.0177834
0.0509909
0.0210354
0.0621953
0.0235905
0.0715645
0.0795279
0.0255796
0.000206023
-3.29258e-05
0.0010159
0.00184989
0.00267336
0.00602083
0.00537339
0.0128812
0.00907684
0.022519
0.0133645
0.0342781
0.017609
0.0467464
0.0213087
0.0584956
0.0243009
0.0685723
0.0771757
0.0266531
0.000174511
-0.000207437
0.000879808
0.0011446
0.00235088
0.00454976
0.00481362
0.0104185
0.00833809
0.0189945
0.0126496