/*--------------------------------*- C++ -*----------------------------------*\
  =========                 |
  \\      /  F ield         | OpenFOAM: The Open Source CFD Toolbox
   \\    /   O peration     | Website:  https://openfoam.org
    \\  /    A nd           | Version:  7
     \\/     M anipulation  |
\*---------------------------------------------------------------------------*/
FoamFile
{
    version     2.0;
    format      ascii;
    class       volVectorField;
    location    "205";
    object      U;
}
// * * * * * * * * * * * * * * * * * * * * * * * * * * * * * * * * * * * * * //

dimensions      [0 1 -1 0 0 0 0];

internalField   nonuniform List<vector> 
8500
(
(-0.00182215 0.0365199 1.03354e-21)
(-0.00848169 0.100385 -2.95617e-21)
(-0.0207555 0.154297 -3.43984e-21)
(-0.0361557 0.19586 3.41409e-21)
(-0.0532625 0.226684 -3.13798e-21)
(-0.0702984 0.250861 -1.67612e-21)
(-0.0855903 0.27251 2.8778e-21)
(-0.0980622 0.294067 3.5841e-21)
(-0.106917 0.315853 -5.97509e-22)
(-0.111233 0.336361 1.78369e-21)
(-0.00281076 0.0380663 -1.14085e-21)
(-0.0099429 0.104481 3.51516e-21)
(-0.0206531 0.160542 -8.18718e-21)
(-0.033522 0.203634 7.40666e-21)
(-0.0475013 0.235083 3.36283e-22)
(-0.0610544 0.258879 5.45531e-21)
(-0.0725488 0.279286 -9.50917e-21)
(-0.0807427 0.299048 -1.40238e-20)
(-0.0846344 0.318822 -2.77795e-21)
(-0.0824599 0.337239 6.39841e-21)
(-0.00387254 0.0387038 1.04183e-21)
(-0.0116476 0.106662 7.6598e-21)
(-0.0209061 0.164424 1.80097e-20)
(-0.0312011 0.208947 -1.62427e-20)
(-0.0418356 0.241107 -3.63615e-21)
(-0.051534 0.264637 -3.33904e-21)
(-0.0587376 0.283828 1.70456e-20)
(-0.0620518 0.301667 1.07241e-20)
(-0.0603426 0.31916 2.70584e-21)
(-0.0507881 0.335243 -1.98047e-20)
(-0.00493298 0.0384844 3.69335e-21)
(-0.0134878 0.106965 -4.51483e-21)
(-0.0214767 0.165896 -3.33798e-20)
(-0.0292643 0.211668 2.96674e-21)
(-0.0364548 0.244576 9.12799e-21)
(-0.0420405 0.267937 -7.06354e-21)
(-0.04458 0.285945 -4.73957e-22)
(-0.0425579 0.301762 -2.88867e-21)
(-0.0347593 0.316693 6.69972e-21)
(-0.0172559 0.330232 1.97413e-20)
(-0.00592679 0.0374985 2.56984e-21)
(-0.0153631 0.105502 -1.4308e-20)
(-0.0223247 0.164996 3.4331e-20)
(-0.0277706 0.211737 -1.548e-20)
(-0.0315391 0.245351 -8.23873e-23)
(-0.0328791 0.268608 2.13267e-20)
(-0.0305012 0.285481 -9.88293e-21)
(-0.0228378 0.299211 1.24005e-21)
(-0.00866562 0.311363 -4.08017e-21)
(0.0171944 0.321958 1.30461e-21)
(-0.00680526 0.0358685 3.04756e-20)
(-0.0171876 0.102452 3.66952e-20)
(-0.0234097 0.161844 -9.3879e-21)
(-0.0267728 0.209164 1.77682e-20)
(-0.027255 0.243342 5.47892e-21)
(-0.0243372 0.266516 -7.95949e-21)
(-0.0169185 0.282307 -3.02914e-21)
(-0.00343061 0.293922 -1.32697e-20)
(0.0171524 0.303163 2.84333e-21)
(0.0516172 0.310362 -1.81781e-20)
(-0.00753932 0.0337387 -2.93429e-20)
(-0.0189007 0.0980534 -1.90639e-20)
(-0.0246978 0.156631 1.53694e-20)
(-0.0263105 0.204035 -2.63666e-20)
(-0.0237473 0.238525 2.87153e-21)
(-0.0166778 0.261562 3.06425e-20)
(-0.00422004 0.276312 -5.4692e-21)
(0.0151636 0.285837 3.67742e-20)
(0.0420131 0.292087 -7.56482e-22)
(0.0851744 0.295518 -1.5329e-20)
(-0.00812201 0.0312684 2.42894e-20)
(-0.020473 0.0925881 -4.35318e-20)
(-0.0261682 0.149621 -1.71483e-20)
(-0.0264104 0.196515 2.02197e-20)
(-0.0211281 0.230948 5.15862e-22)
(-0.0101206 0.253703 -5.72366e-20)
(0.00725938 0.267418 -3.25634e-21)
(0.0325148 0.274919 -2.84266e-20)
(0.0653528 0.278178 -3.72823e-20)
(0.117245 0.277461 2.24015e-20)
(-0.00856952 0.0286223 -1.36192e-20)
(-0.0219094 0.0863696 6.48333e-21)
(-0.0278152 0.141136 1.58727e-20)
(-0.0270843 0.186847 -1.37731e-20)
(-0.0194647 0.220737 -4.8712e-20)
(-0.00481672 0.242957 1.68917e-20)
(0.0172722 0.255591 2.59074e-21)
(0.048309 0.26116 4.22492e-20)
(0.0867601 0.261519 5.6555e-20)
(0.147544 0.256198 -2.60376e-20)
(-0.00892049 0.0259628 2.10898e-20)
(-0.0232486 0.0797224 1.89892e-20)
(-0.0296467 0.131539 -2.71408e-21)
(-0.0283222 0.175348 6.9156e-20)
(-0.0187622 0.208104 2.92312e-20)
(-0.000816439 0.22943 2.18259e-20)
(0.0257111 0.240856 3.07119e-20)
(0.062424 0.244593 -1.39203e-20)
(0.106064 0.242228 -1.8795e-20)
(0.176327 0.231749 -3.12269e-20)
(-0.00923313 0.0234409 -2.10981e-21)
(-0.0245582 0.0729646 -2.96685e-20)
(-0.0316773 0.121217 -2.12232e-20)
(-0.0300793 0.162392 -3.39066e-20)
(-0.0189374 0.193354 -2.65843e-20)
(0.00197865 0.213327 2.65718e-20)
(0.0326887 0.223332 -2.5411e-20)
(0.0750542 0.225333 -1.78193e-20)
(0.123518 0.220459 2.28251e-21)
(0.204768 0.204278 8.41577e-21)
(-0.00957995 0.0211889 -5.70987e-20)
(-0.0259228 0.0663896 2.71556e-20)
(-0.0339129 0.110559 1.96291e-20)
(-0.0322545 0.148401 1.29147e-20)
(-0.0197822 0.176879 -2.32021e-20)
(0.00388102 0.194976 -1.96583e-20)
(0.0386533 0.203272 2.83257e-20)
(0.0868909 0.203638 -2.29813e-20)
(0.140118 0.196417 -1.07089e-21)
(0.235426 0.174333 -2.45687e-20)
(-0.0100399 0.0193125 4.73039e-20)
(-0.0274267 0.0602495 1.89932e-20)
(-0.0363276 0.0999355 1.12903e-21)
(-0.0346596 0.133824 -2.3604e-20)
(-0.0209157 0.159159 1.84297e-21)
(0.00550012 0.174838 2.53127e-20)
(0.0445328 0.1811 -7.1418e-21)
(0.0993299 0.179978 -8.59335e-21)
(0.158021 0.170386 -2.02155e-20)
(0.272493 0.143158 3.73754e-20)
(-0.0106878 0.0178839 3.13402e-20)
(-0.0291321 0.0547396 -5.11364e-20)
(-0.0388343 0.0896767 -3.89537e-20)
(-0.036982 0.119116 1.68836e-20)
(-0.02173 0.140741 3.39188e-20)
(0.00782806 0.153515 2.80558e-20)
(0.0518741 0.157446 -2.9764e-20)
(0.114622 0.155068 5.79322e-20)
(0.180913 0.142809 -1.73436e-20)
(0.321264 0.112779 -4.36666e-20)
(-0.0115817 0.0169345 -4.75137e-20)
(-0.0310545 0.0499862 2.84937e-20)
(-0.0412563 0.0800558 -1.32253e-20)
(-0.0387508 0.104718 1.40257e-21)
(-0.021348 0.122218 1.39918e-20)
(0.0122951 0.131727 -4.4407e-20)
(0.0629034 0.133151 3.90468e-20)
(0.135837 0.129837 -3.78903e-20)
(0.213958 0.114485 6.21393e-20)
(0.386411 0.0856294 2.29522e-20)
(-0.0127502 0.0164517 9.80482e-21)
(-0.03314 0.0460338 5.46139e-20)
(-0.0433062 0.0712703 -1.35119e-20)
(-0.0393199 0.0910222 1.36653e-20)
(-0.018617 0.10419 1.54542e-20)
(0.020747 0.110272 -4.58331e-21)
(0.080414 0.109229 3.31105e-20)
(0.166535 0.105317 1.48187e-21)
(0.262977 0.0868851 -4.00152e-20)
(0.469481 0.0638268 5.44307e-20)
(-0.0141828 0.0163735 -2.64893e-20)
(-0.0352456 0.042834 -5.15804e-20)
(-0.0445848 0.0634338 4.45261e-20)
(-0.0378838 0.0783423 2.20222e-20)
(-0.0121635 0.0872064 -1.0111e-19)
(0.0353027 0.0899495 8.14833e-20)
(0.107422 0.0867834 -7.29244e-20)
(0.210189 0.0824736 9.79723e-22)
(0.332749 0.062332 -1.69187e-20)
(0.567027 0.0486285 -5.06479e-20)
(-0.0158271 0.0165931 2.26773e-20)
(-0.0371502 0.0402731 -3.00295e-21)
(-0.0445796 0.0565491 -1.09256e-20)
(-0.033532 0.0668749 -1.36575e-21)
(-0.0005179 0.0717051 -6.33161e-21)
(0.0580936 0.0714653 -2.59377e-20)
(0.146627 0.0668484 1.09353e-20)
(0.269517 0.0621183 -1.72335e-20)
(0.424822 0.0436087 5.04519e-21)
(0.671007 0.0403254 1.27686e-21)
(-0.0175802 0.0169742 -4.62715e-20)
(-0.0385673 0.0381605 -3.26388e-21)
(-0.0427214 0.0505065 5.01335e-21)
(-0.0253232 0.0566868 2.05651e-21)
(0.0177155 0.0579674 3.30341e-20)
(0.0909435 0.0553433 -9.53373e-20)
(0.199829 0.0502215 6.36583e-20)
(0.345889 0.0450341 -4.75445e-20)
(0.535894 0.0329098 4.11783e-20)
(0.772178 0.0376806 4.64861e-20)
(-0.0193023 0.0173571 -5.58322e-21)
(-0.0391364 0.0362345 2.5736e-20)
(-0.0384377 0.0451278 -3.20681e-20)
(-0.0123868 0.0477126 -9.98005e-21)
(0.0436881 0.0461009 1.90928e-20)
(0.135083 0.0418923 9.08028e-20)
(0.267517 0.0373444 -1.80445e-20)
(0.438694 0.032253 8.61445e-21)
(0.657809 0.030515 -4.73715e-20)
(0.865406 0.0362073 2.20004e-20)
(-0.02084 0.0175821 -1.68613e-20)
(-0.0384923 0.0342459 -1.3124e-20)
(-0.031148 0.0401553 3.28968e-21)
(0.00601195 0.0397778 1.25727e-20)
(0.0782012 0.0360761 -3.70565e-20)
(0.190999 0.0312542 -1.48383e-20)
(0.348801 0.0283542 -4.65289e-20)
(0.544677 0.0250112 4.77512e-20)
(0.779299 0.0335965 5.1213e-20)
(0.951978 0.0291137 -2.21624e-20)
(-0.0220206 0.0175184 -8.08074e-21)
(-0.0362809 0.0319439 3.28411e-20)
(-0.0203393 0.0353028 -3.65454e-20)
(0.0304583 0.0326794 -4.28969e-21)
(0.121683 0.0278049 -1.71745e-20)
(0.258421 0.0235033 3.69698e-20)
(0.441637 0.0233064 4.7197e-20)
(0.658108 0.023851 -4.53163e-20)
(0.890239 0.0368194 4.88318e-20)
(1.06378 0.0255814 6.76592e-21)
(-0.022665 0.0170515 -2.34661e-20)
(-0.0321374 0.0291155 -6.64361e-20)
(-0.00557212 0.0303589 6.47399e-20)
(0.0613737 0.0262467 9.25842e-21)
(0.17422 0.0212333 1.3316e-20)
(0.336371 0.0187381 8.41323e-21)
(0.542969 0.0222862 3.64552e-20)
(0.772084 0.0276831 2.67083e-20)
(0.99402 0.0422272 -9.4984e-20)
(1.15673 0.0344762 -4.68692e-20)
(-0.0226117 0.016134 -8.01357e-20)
(-0.0257103 0.0256429 1.6084e-20)
(0.0135532 0.0251911 -3.67721e-20)
(0.0990513 0.0204114 7.10438e-21)
(0.235593 0.0164256 1.12553e-20)
(0.423237 0.0171205 -8.11635e-20)
(0.648881 0.0252782 3.59676e-20)
(0.881376 0.0353575 -2.4049e-20)
(1.08638 0.0510042 2.5294e-20)
(1.22712 0.0453188 -8.91736e-21)
(-0.0217345 0.0147601 2.90807e-20)
(-0.016673 0.0214935 3.15404e-20)
(0.0374043 0.0198 -1.9113e-21)
(0.143672 0.0152657 -1.00197e-20)
(0.305272 0.013608 2.47064e-22)
(0.5168 0.0188327 6.00347e-22)
(0.755118 0.0320308 -5.45381e-20)
(0.982017 0.0460424 7.10985e-21)
(1.16463 0.0618878 6.81044e-20)
(1.28265 0.0574449 3.09481e-20)
(-0.0199065 0.0129572 -1.97787e-20)
(-0.00472761 0.0167468 -1.45508e-20)
(0.0663055 0.0143362 6.29128e-20)
(0.195286 0.0110822 1.62575e-21)
(0.382358 0.0131482 -2.64778e-20)
(0.614324 0.0239829 7.04179e-20)
(0.857701 0.0420901 1.55245e-20)
(1.07134 0.0589417 1.04413e-21)
(1.22892 0.0741744 -2.98553e-20)
(1.32304 0.0701456 -3.90968e-20)
(-0.0170095 0.01079 4.1679e-20)
(0.0104056 0.0115777 -1.14971e-20)
(0.100523 0.00909375 -6.92471e-21)
(0.253753 0.00829507 -2.62193e-20)
(0.465507 0.0154689 4.27661e-20)
(0.712761 0.032522 -2.07854e-20)
(0.953384 0.0548889 -2.35295e-20)
(1.14813 0.0733878 -5.43785e-21)
(1.27983 0.0872698 -1.72802e-20)
(1.35199 0.0828914 1.88723e-20)
(-0.0129303 0.00834992 -1.53028e-20)
(0.0289807 0.00624025 -9.14776e-20)
(0.140232 0.00448654 9.47786e-21)
(0.318669 0.00744405 3.28646e-20)
(0.552916 0.0209272 2.34239e-20)
(0.809084 0.044222 -7.8069e-20)
(1.03991 0.0698428 4.99979e-20)
(1.21226 0.0888362 -2.26042e-20)
(1.31892 0.100762 3.4152e-20)
(1.37149 0.0956205 9.44525e-21)
(-0.00755866 0.00574609 -1.6933e-20)
(0.0512099 0.00104933 3.23989e-20)
(0.185465 0.00101252 4.2531e-20)
(0.389285 0.0090906 -3.0416e-20)
(0.64242 0.0297157 1.13282e-20)
(0.900636 0.0587187 -6.88643e-20)
(1.11602 0.0864126 -1.2706e-20)
(1.26438 0.104875 1.07664e-20)
(1.34788 0.114407 -2.60271e-20)
(1.38383 0.10822 -2.64768e-20)
(-0.000788007 0.00310065 -2.202e-20)
(0.0772442 -0.0036376 -7.57616e-21)
(0.236071 -0.000788739 -7.73676e-20)
(0.464484 0.0137273 -1.21706e-20)
(0.731703 0.0418273 -1.23782e-21)
(0.985359 0.075581 4.14865e-21)
(1.18132 0.10414 6.98868e-21)
(1.30562 0.121214 -3.40428e-20)
(1.36847 0.128064 6.21427e-22)
(1.39067 0.120731 1.82887e-20)
(0.00747856 0.000546379 -5.80702e-21)
(0.107151 -0.00743618 2.68341e-20)
(0.291667 -0.000380113 3.78776e-20)
(0.542815 0.0217049 2.37341e-20)
(0.818541 0.0570821 -6.9752e-21)
(1.06188 0.0943724 -5.84446e-21)
(1.23604 0.122658 5.74779e-20)
(1.33732 0.137664 7.73876e-21)
(1.38228 0.141682 2.57099e-20)
(1.39343 0.133187 -1.10551e-20)
(0.0173199 -0.00177349 5.54686e-20)
(0.140892 -0.00994837 3.57827e-20)
(0.351627 0.00273044 -3.63514e-20)
(0.622606 0.0331971 -7.25457e-21)
(0.901023 0.075186 3.83193e-21)
(1.12949 0.114691 -1.38107e-20)
(1.28084 0.141688 -2.96396e-20)
(1.36086 0.154117 -4.82968e-21)
(1.3907 0.155259 3.34197e-22)
(1.39313 0.145645 1.20051e-20)
(0.0287876 -0.00370588 6.99438e-21)
(0.178309 -0.0107755 -1.95946e-20)
(0.415088 0.00895186 4.64733e-20)
(0.702113 0.0482056 3.02707e-20)
(0.977663 0.0957896 9.91575e-22)
(1.18797 0.136186 2.13576e-20)
(1.31663 0.161032 3.10739e-21)
(1.37755 0.170522 -2.24062e-20)
(1.39486 0.168822 1.88848e-20)
(1.39056 0.158153 6.90138e-24)
(0.0418979 -0.00508915 -4.60402e-20)
(0.219107 -0.00953238 -1.35652e-20)
(0.480992 0.0185815 -1.22206e-20)
(0.779671 0.0665926 -2.131e-20)
(1.04743 0.11853 5.07211e-21)
(1.23752 0.158565 1.07812e-22)
(1.3444 0.180553 1.64269e-20)
(1.38856 0.18687 -2.68545e-21)
(1.3957 0.182408 -1.94913e-20)
(1.38625 0.170745 -1.80735e-20)
(0.0566242 -0.00575565 3.7621e-21)
(0.26286 -0.00586302 2.20701e-20)
(0.548145 0.03179 1.07382e-20)
(0.85381 0.0881215 -3.34374e-20)
(1.10972 0.143056 -1.63534e-21)
(1.27859 0.181587 -1.43188e-20)
(1.36515 0.20016 3.63991e-22)
(1.39489 0.203168 6.63181e-21)
(1.39389 0.196052 -7.34412e-21)
(1.38057 0.18344 2.04736e-20)
(0.0728925 -0.00553613 8.89056e-21)
(0.309011 0.000541094 -2.16885e-20)
(0.615297 0.0486209 -5.1225e-20)
(0.923322 0.112494 4.71551e-20)
(1.16426 0.169039 -3.50229e-21)
(1.31177 0.20506 1.03392e-20)
(1.37981 0.219797 -1.42127e-21)
(1.39735 0.219434 9.86055e-21)
(1.38997 0.20978 -7.4878e-22)
(1.37377 0.196239 -1.58606e-20)
(0.0905787 -0.00426549 -1.81629e-20)
(0.356894 0.00992397 2.83246e-20)
(0.681213 0.0690009 2.33411e-20)
(0.987282 0.139375 -3.37097e-20)
(1.21105 0.196177 -5.59405e-21)
(1.33774 0.228827 2.11514e-21)
(1.38921 0.239426 2.12057e-20)
(1.39662 0.235684 1.04666e-21)
(1.38431 0.223601 4.08089e-21)
(1.366 0.209123 -8.7772e-21)
(0.109509 -0.00178966 1.37862e-20)
(0.405755 0.0224508 -1.24029e-20)
(0.744742 0.0927564 -1.06079e-20)
(1.04504 0.168414 1.81271e-20)
(1.25026 0.224197 6.23023e-21)
(1.35716 0.252755 4.69824e-21)
(1.39409 0.259017 -2.16303e-20)
(1.3932 0.251922 -7.37822e-21)
(1.37716 0.23751 -6.56695e-21)
(1.35734 0.222061 2.88849e-21)
(0.129462 0.00202717 -6.92015e-21)
(0.45479 0.0381986 -1.59748e-22)
(0.804862 0.119633 2.00842e-20)
(1.09617 0.199254 -7.34012e-21)
(1.28222 0.252845 -3.25041e-21)
(1.3707 0.276734 -2.13075e-21)
(1.39504 0.27854 5.24288e-21)
(1.38749 0.26814 9.00392e-21)
(1.3687 0.251482 -2.91951e-22)
(1.34784 0.235007 3.25531e-21)
(0.150177 0.00729545 4.88323e-21)
(0.50317 0.0571523 -1.37117e-21)
(0.860706 0.149313 -3.60533e-21)
(1.14045 0.231538 -3.26248e-21)
(1.3073 0.281889 2.92712e-21)
(1.37893 0.300659 2.27256e-21)
(1.39258 0.297957 -2.08962e-21)
(1.37978 0.284314 7.50311e-22)
(1.35905 0.265474 1.05028e-21)
(1.33752 0.247903 -1.38833e-21)
(0.171356 0.0140939 2.63982e-21)
(0.55008 0.0792066 7.49914e-22)
(0.911574 0.181432 -4.49924e-21)
(1.17783 0.264913 -3.58077e-21)
(1.32591 0.311112 3.71967e-21)
(1.3824 0.32443 7.26972e-22)
(1.38711 0.317223 -1.67432e-21)
(1.37028 0.300401 1.56879e-21)
(1.34826 0.279426 8.6984e-22)
(1.3264 0.260683 -9.92258e-22)
(0.192676 0.0224649 -1.02854e-21)
(0.59475 0.104171 2.10494e-21)
(0.956926 0.215592 1.38986e-20)
(1.20835 0.299033 -6.17257e-21)
(1.33848 0.340305 -2.99648e-21)
(1.38157 0.347945 -3.36232e-21)
(1.37894 0.336275 6.86454e-21)
(1.35913 0.316343 4.58274e-21)
(1.33638 0.293265 3.63492e-21)
(1.31447 0.273277 1.95826e-21)
(0.2138 0.0324107 2.12508e-20)
(0.636472 0.131782 -1.16856e-20)
(0.996376 0.251372 -1.32511e-20)
(1.23216 0.333559 1.79735e-20)
(1.34543 0.369268 9.42182e-21)
(1.37685 0.371099 -6.22586e-22)
(1.36833 0.35504 -1.14854e-20)
(1.34644 0.332061 -8.22603e-21)
(1.32343 0.306897 -8.51577e-21)
(1.30173 0.285603 5.03735e-21)
(0.234384 0.0438926 -2.87741e-20)
(0.674624 0.161707 2.70678e-20)
(1.02967 0.288336 3.11168e-20)
(1.24947 0.368158 -3.05472e-20)
(1.34716 0.397803 -1.05047e-20)
(1.36859 0.393776 6.7077e-21)
(1.35548 0.373429 1.20815e-20)
(1.33227 0.347467 1.89321e-21)
(1.3094 0.32022 -3.26013e-22)
(1.28815 0.297568 -6.85718e-21)
(0.254086 0.056831 -4.1536e-21)
(0.708679 0.193563 -3.815e-20)
(1.05669 0.326044 -4.07735e-20)
(1.26053 0.402508 4.55417e-20)
(1.34404 0.425715 -5.16207e-21)
(1.35709 0.415856 9.40524e-21)
(1.34055 0.391345 1.82596e-21)
(1.31669 0.362466 -5.13942e-21)
(1.29427 0.333138 2.76044e-21)
(1.27361 0.309087 -3.86442e-22)
(0.272581 0.0711076 8.44185e-21)
(0.738209 0.226926 2.36894e-20)
(1.07739 0.364051 1.33748e-20)
(1.26563 0.436294 -1.05138e-20)
(1.33644 0.45281 -1.62926e-20)
(1.3426 0.437209 -1.50382e-20)
(1.32367 0.40868 -3.01835e-21)
(1.29972 0.376962 7.99617e-21)
(1.27804 0.345589 -1.6867e-21)
(1.25796 0.320105 3.80681e-21)
(0.289564 0.0865688 -3.20286e-20)
(0.762894 0.261342 -2.9829e-20)
(1.09184 0.401915 -4.73412e-21)
(1.26508 0.469214 -5.33694e-21)
(1.32469 0.478894 -1.20434e-20)
(1.32537 0.457695 7.2946e-21)
(1.30494 0.425311 -1.30045e-21)
(1.28143 0.390846 -6.96087e-21)
(1.26075 0.357555 6.319e-21)
(1.24123 0.330564 -9.1051e-21)
(0.304759 0.103029 7.55259e-21)
(0.782515 0.296343 2.5306e-20)
(1.10015 0.439208 2.1971e-20)
(1.25919 0.500972 2.38093e-20)
(1.30909 0.503775 4.31303e-22)
(1.30557 0.477173 2.06502e-20)
(1.28446 0.441106 1.37834e-21)
(1.26184 0.403985 -2.40152e-20)
(1.24242 0.368962 1.71053e-20)
(1.22379 0.34029 6.23522e-21)
(0.317929 0.120274 2.07906e-20)
(0.796949 0.331456 4.65227e-20)
(1.10252 0.47551 -6.12443e-21)
(1.24831 0.531285 -3.0052e-20)
(1.28995 0.527266 1.34739e-20)
(1.28339 0.495496 -1.39395e-20)
(1.26233 0.455927 -1.85712e-20)
(1.24107 0.416265 -1.65399e-21)
(1.223 0.379587 -1.42457e-20)
(1.20573 0.349343 5.47382e-21)
(0.328876 0.13807 9.8365e-21)
(0.806156 0.36621 7.38107e-21)
(1.09918 0.510421 5.81066e-20)
(1.23276 0.559882 1.08496e-20)
(1.26754 0.549183 -9.47761e-21)
(1.259 0.512512 -4.80076e-21)
(1.23871 0.469631 2.86241e-20)
(1.21913 0.427582 2.34135e-20)
(1.20254 0.389323 1.15673e-20)
(1.18695 0.357529 -1.56627e-21)
(0.337447 0.156167 2.09704e-21)
(0.810176 0.400148 -4.76584e-20)
(1.09041 0.543559 -6.84537e-20)
(1.2129 0.586504 2.16952e-21)
(1.24213 0.569344 1.33429e-20)
(1.23264 0.528056 -1.85348e-20)
(1.21369 0.482089 -4.2136e-20)
(1.19601 0.437826 -1.2473e-20)
(1.18114 0.398056 -7.64502e-22)
(1.16744 0.364768 5.97202e-21)
(0.343532 0.174307 -1.71374e-20)
(0.80912 0.432829 4.33638e-20)
(1.07656 0.574569 4.12783e-20)
(1.18907 0.610906 -3.81498e-20)
(1.21398 0.587557 5.79331e-21)
(1.20445 0.541985 4.51914e-20)
(1.18732 0.493165 -1.02613e-20)
(1.17183 0.446877 8.45092e-21)
(1.15887 0.405689 -4.1489e-21)
(1.14724 0.370971 -5.44199e-21)
(0.347067 0.192228 -3.88071e-20)
(0.80318 0.463827 -6.8291e-20)
(1.05801 0.603144 -1.3368e-20)
(1.16155 0.632846 2.19412e-20)
(1.18336 0.603643 2.16956e-20)
(1.17459 0.554135 -4.53249e-20)
(1.15972 0.502736 2.4714e-20)
(1.14667 0.454623 -1.3181e-20)
(1.1358 0.412123 1.06516e-20)
(1.12643 0.376069 2.66695e-22)
(0.34804 0.209667 2.95819e-20)
(0.792627 0.492731 1.94308e-21)
(1.03512 0.629008 -6.64724e-21)
(1.13062 0.652106 -2.75373e-20)
(1.15052 0.61742 1.81953e-20)
(1.14323 0.564363 3.57396e-21)
(1.13103 0.510674 -1.4637e-20)
(1.12064 0.460955 2.26015e-21)
(1.11201 0.417258 -2.98871e-21)
(1.1051 0.379984 1.78929e-21)
(0.346502 0.226376 -8.23649e-21)
(0.777801 0.519199 -1.1729e-20)
(1.00798 0.651778 2.93579e-20)
(1.09673 0.66856 1.36037e-20)
(1.11578 0.628712 -1.84876e-20)
(1.11057 0.572537 2.69702e-20)
(1.10138 0.516867 1.75009e-21)
(1.09384 0.465775 1.89299e-21)
(1.08758 0.420992 -8.01559e-22)
(1.08333 0.382619 6.55662e-23)
(0.342556 0.242094 5.3712e-20)
(0.759007 0.543091 4.1363e-20)
(0.976824 0.67109 -2.52354e-21)
(1.06034 0.681929 -6.6429e-21)
(1.07938 0.637431 -7.64554e-21)
(1.07678 0.578542 -3.72655e-21)
(1.07091 0.521207 1.63726e-21)
(1.06639 0.468995 1.91176e-21)
(1.06261 0.423228 1.28048e-21)
(1.06119 0.383871 -1.95246e-21)
(0.336283 0.256461 5.00376e-21)
(0.736348 0.564072 7.53959e-21)
(0.942483 0.687067 -3.93323e-20)
(1.02185 0.69197 1.77648e-20)
(1.0416 0.643445 5.83921e-21)
(1.04208 0.582273 -1.30065e-20)
(1.03978 0.523602 3.97392e-21)
(1.03838 0.470538 1.05538e-21)
(1.03723 0.423897 -2.82687e-21)
(1.03892 0.383693 2.7759e-21)
(0.327668 0.269206 -2.03615e-20)
(0.710048 0.581571 -1.53046e-20)
(0.905501 0.699461 1.33728e-20)
(0.981531 0.698676 4.15732e-21)
(1.00269 0.646651 -6.60991e-21)
(1.00664 0.583633 6.63509e-21)
(1.00811 0.52396 1.60363e-21)
(1.00992 0.470308 -4.55559e-21)
(1.01169 0.422926 1.57934e-20)
(1.01717 0.382126 6.95797e-21)
(0.316958 0.280123 -1.61779e-20)
(0.680676 0.595355 4.25544e-20)
(0.866174 0.708043 -2.7709e-20)
(0.939726 0.701963 -3.39445e-21)
(0.962903 0.646964 -5.62116e-21)
(0.970661 0.582541 1.73197e-21)
(0.976011 0.522195 -5.05442e-21)
(0.981123 0.46817 2.94622e-21)
(0.986403 0.420111 2.44922e-22)
(0.996693 0.379181 -2.84188e-21)
(0.304418 0.289213 -6.90738e-22)
(0.648682 0.605326 -1.25234e-20)
(0.824913 0.712613 7.88152e-21)
(0.896779 0.701748 -4.97214e-21)
(0.922509 0.644322 2.02835e-21)
(0.934319 0.578947 3.71073e-21)
(0.943616 0.518264 1.09994e-20)
(0.952195 0.464031 -9.04354e-21)
(0.961737 0.415084 -1.7881e-20)
(0.976724 0.374141 8.27651e-21)
(0.290175 0.296267 1.25978e-21)
(0.614525 0.611356 -1.02968e-21)
(0.782144 0.713072 6.38852e-22)
(0.853041 0.697968 1.65754e-21)
(0.881773 0.638682 -7.22685e-21)
(0.897815 0.572819 -1.50345e-20)
(0.911117 0.512165 -4.42612e-21)
(0.923421 0.458018 -1.84422e-21)
(0.937685 0.408089 2.52861e-20)
(0.954271 0.363425 -5.13187e-21)
(0.274452 0.301138 -5.01938e-21)
(0.578652 0.613342 -4.95938e-21)
(0.738299 0.709368 1.77512e-21)
(0.808862 0.690584 1.17086e-21)
(0.840963 0.630018 -7.18725e-21)
(0.861369 0.564129 3.01499e-20)
(0.878778 0.50386 -2.22317e-20)
(0.895023 0.450193 2.71799e-20)
(0.913139 0.400983 -1.91523e-20)
(0.929547 0.357776 -2.5929e-20)
(0.257499 0.303717 1.36927e-21)
(0.541497 0.61121 -2.46623e-21)
(0.693804 0.701483 1.09701e-21)
(0.764589 0.679586 1.0911e-20)
(0.800346 0.618321 -5.23916e-21)
(0.825208 0.552858 7.97567e-21)
(0.846806 0.4933 1.29435e-20)
(0.867009 0.440283 -6.88313e-21)
(0.888446 0.391581 -1.91116e-20)
(0.905918 0.348588 2.63589e-20)
(0.239576 0.303922 7.72919e-21)
(0.503494 0.604925 9.94719e-21)
(0.649079 0.689432 -1.06207e-20)
(0.720563 0.664994 -9.41255e-21)
(0.760188 0.603605 3.72896e-20)
(0.789554 0.53902 -3.87534e-20)
(0.815351 0.480534 4.74883e-20)
(0.839396 0.428528 -1.19329e-20)
(0.86384 0.38092 1.28729e-20)
(0.883025 0.339127 2.4507e-20)
(0.220947 0.301705 -2.34536e-21)
(0.465073 0.594491 -1.04939e-20)
(0.604536 0.673258 -7.76879e-21)
(0.677117 0.64685 -3.92308e-21)
(0.720756 0.585902 5.41537e-21)
(0.75463 0.522637 -1.06044e-20)
(0.784589 0.465565 -1.41548e-20)
(0.812348 0.414852 -3.17126e-20)
(0.839676 0.368577 3.16274e-20)
(0.86099 0.328179 -1.01611e-20)
(0.201877 0.297043 2.26746e-20)
(0.426657 0.579947 -3.20637e-21)
(0.560572 0.653037 -1.1037e-20)
(0.634578 0.625225 1.36945e-20)
(0.682308 0.565269 -2.46429e-20)
(0.720645 0.503754 6.76004e-20)
(0.754684 0.448445 -3.63071e-20)
(0.786032 0.399344 3.31991e-20)
(0.81618 0.354719 -6.10846e-20)
(0.839842 0.315908 -1.63226e-20)
(0.18263 0.289942 -6.2883e-21)
(0.38866 0.561372 2.42623e-20)
(0.517574 0.62887 5.45172e-21)
(0.593258 0.600212 -1.30382e-20)
(0.645098 0.54178 -2.26975e-20)
(0.687809 0.482433 -5.54583e-22)
(0.725812 0.429222 1.21225e-20)
(0.760616 0.382032 -3.00425e-20)
(0.793512 0.339315 1.47507e-20)
(0.819624 0.302236 1.9398e-21)
(0.163466 0.280435 -4.07668e-20)
(0.351482 0.538877 -9.88993e-21)
(0.475913 0.600891 -2.86586e-21)
(0.553461 0.571928 3.40749e-20)
(0.609369 0.515531 -3.19781e-20)
(0.656321 0.458753 -8.20694e-21)
(0.698143 0.407968 -5.11744e-21)
(0.73626 0.362979 9.36229e-21)
(0.771815 0.322407 -1.20561e-20)
(0.800405 0.287201 -1.8793e-20)
(0.144639 0.268582 3.68958e-20)
(0.315507 0.512606 -2.11822e-20)
(0.435939 0.569258 9.32253e-22)
(0.515472 0.540512 -5.19156e-20)
(0.575353 0.486637 5.66643e-20)
(0.626377 0.43281 -1.80065e-20)
(0.671845 0.384764 1.08036e-20)
(0.713113 0.34225 9.45846e-21)
(0.751212 0.304038 2.74835e-20)
(0.782259 0.270848 -1.13626e-20)
(0.126393 0.254468 -1.49438e-20)
(0.281098 0.482738 4.41008e-20)
(0.397988 0.534158 2.5029e-20)
(0.479566 0.506125 4.14349e-20)
(0.543272 0.455232 -9.57751e-21)
(0.598162 0.404716 3.8741e-21)
(0.647077 0.359708 3.14143e-20)
(0.691314 0.319925 7.06461e-21)
(0.731821 0.284272 6.80006e-22)
(0.765263 0.253244 -1.36331e-20)
(0.108963 0.238202 -3.53412e-20)
(0.248598 0.449476 -2.53168e-21)
(0.36237 0.4958 -1.48445e-20)
(0.445996 0.468949 -6.70714e-20)
(0.513335 0.421467 -6.50849e-20)
(0.571852 0.374601 1.08382e-20)
(0.623988 0.332908 -2.68456e-20)
(0.670993 0.296094 1.72558e-20)
(0.713751 0.263185 9.37765e-21)
(0.749491 0.234469 1.95111e-20)
(0.0925675 0.219914 5.25095e-20)
(0.218327 0.413055 -4.30278e-20)
(0.329377 0.454417 -2.19825e-20)
(0.415 0.429184 3.88149e-20)
(0.485736 0.38551 4.44258e-20)
(0.54761 0.342606 -1.48338e-20)
(0.602721 0.304488 -1.95058e-21)
(0.652273 0.270862 -5.35887e-20)
(0.697107 0.240865 -3.03327e-20)
(0.735018 0.214612 1.16056e-20)
(0.0774103 0.199756 -2.99589e-20)
(0.190577 0.373732 1.26035e-20)
(0.299273 0.410265 4.66655e-20)
(0.386795 0.38705 -2.1124e-20)
(0.460654 0.347544 1.72983e-21)
(0.525588 0.308888 5.96969e-20)
(0.583403 0.27458 2.71235e-21)
(0.635266 0.244342 5.14552e-20)
(0.681986 0.217413 2.14756e-20)
(0.721912 0.193768 -3.41905e-20)
(0.0636778 0.177897 4.19233e-20)
(0.165614 0.331788 4.70696e-21)
(0.272298 0.363617 3.07676e-21)
(0.361578 0.34278 4.28693e-20)
(0.438251 0.307767 -5.67815e-21)
(0.505923 0.273615 -3.75059e-20)
(0.566154 0.243331 1.84008e-20)
(0.620075 0.216659 -2.94489e-20)
(0.668477 0.192938 -1.23004e-20)
(0.710235 0.172041 1.24509e-20)
(0.0515369 0.154526 -2.61238e-20)
(0.143675 0.287524 -5.03778e-20)
(0.248664 0.314764 1.17049e-20)
(0.339524 0.296624 -2.29119e-20)
(0.418671 0.26639 -1.38086e-20)
(0.488738 0.236967 3.35815e-20)
(0.551078 0.210895 -8.12444e-21)
(0.606791 0.187945 7.48437e-21)
(0.656661 0.167556 -9.13632e-21)
(0.700044 0.149538 1.81639e-20)
(0.0411338 0.129844 9.54541e-21)
(0.124964 0.241258 3.40266e-20)
(0.228558 0.264011 -4.73898e-20)
(0.320786 0.248844 2.23901e-20)
(0.402041 0.223634 -1.02224e-20)
(0.474141 0.199134 -2.87915e-20)
(0.538267 0.177435 2.35396e-20)
(0.595496 0.158343 4.92629e-21)
(0.646609 0.141393 -7.56732e-22)
(0.691387 0.12637 -2.11201e-20)
(0.0325927 0.104065 3.15002e-21)
(0.109657 0.193327 1.10381e-20)
(0.212135 0.21168 4.29814e-20)
(0.305491 0.199712 -8.26828e-21)
(0.388468 0.17973 -6.51979e-21)
(0.462221 0.160315 2.40225e-21)
(0.527801 0.143122 1.08942e-21)
(0.586259 0.127999 8.79471e-21)
(0.638382 0.114578 -1.15674e-20)
(0.684308 0.102651 -7.35685e-21)
(0.0260148 0.0774147 -7.84257e-21)
(0.0978929 0.144075 -1.34285e-20)
(0.199522 0.158098 -3.35169e-20)
(0.293743 0.149513 1.68768e-20)
(0.378037 0.134917 1.37578e-20)
(0.453053 0.120713 5.85002e-22)
(0.519741 0.108133 -2.3017e-20)
(0.579136 0.0970673 -1.02318e-20)
(0.63203 0.0872464 8.10004e-21)
(0.678839 0.0784969 8.67739e-21)
(0.0214773 0.0501271 1.37143e-21)
(0.0897803 0.0938608 -2.82975e-21)
(0.190815 0.103606 6.3585e-21)
(0.285624 0.0985334 -4.30692e-21)
(0.370816 0.0894414 -3.81273e-21)
(0.446693 0.0805406 -2.58365e-21)
(0.514138 0.0726502 4.74146e-21)
(0.574172 0.065704 1.80685e-20)
(0.627591 0.0595335 2.61538e-21)
(0.675006 0.0540157 -4.63692e-21)
(0.0190331 0.0224416 1.69439e-21)
(0.085392 0.0430476 -4.66113e-21)
(0.18608 0.0485483 -5.28441e-21)
(0.281185 0.0470693 -3.66586e-21)
(0.366848 0.0435523 3.49009e-21)
(0.443179 0.0400114 1.5745e-21)
(0.511023 0.0368577 -1.56835e-21)
(0.571394 0.0340707 -7.14695e-21)
(0.625088 0.0315811 2.35289e-21)
(0.672815 0.0293296 -2.20014e-21)
(0.0187101 -0.00539833 -1.69972e-21)
(0.0847661 -0.00799591 4.67453e-21)
(0.18535 -0.00672756 5.29634e-21)
(0.280455 -0.00458183 -5.0668e-21)
(0.366157 -0.00249713 4.45886e-21)
(0.442532 -0.000657219 2.23146e-21)
(0.510414 0.000943988 -3.56095e-21)
(0.570818 0.00233279 -4.13827e-21)
(0.624536 0.00354566 6.10279e-22)
(0.672275 0.00461919 -1.72093e-21)
(0.0205111 -0.033148 1.86312e-21)
(0.0879062 -0.0588997 -5.56834e-21)
(0.188629 -0.0618711 1.24906e-20)
(0.283437 -0.056121 -1.09578e-20)
(0.368746 -0.0484532 -5.15245e-22)
(0.444753 -0.0412476 -7.27168e-21)
(0.512314 -0.0349046 1.18118e-20)
(0.572451 -0.0293513 1.60532e-20)
(0.625963 -0.0244476 2.86888e-21)
(0.673487 -0.0200751 -6.17362e-21)
(0.0244137 -0.0605636 -1.60692e-21)
(0.0947807 -0.109295 -1.18089e-20)
(0.195888 -0.116534 -2.74241e-20)
(0.290108 -0.10725 2.37038e-20)
(0.374594 -0.0940627 4.88572e-21)
(0.449825 -0.0815425 4.31665e-21)
(0.516707 -0.0705014 -2.12619e-20)
(0.576273 -0.0608217 -1.25245e-20)
(0.629321 -0.0522658 -2.78305e-21)
(0.676308 -0.0446749 1.90705e-20)
(0.0303705 -0.0874046 -5.66861e-21)
(0.105323 -0.158817 7.10266e-21)
(0.207068 -0.17037 4.97745e-20)
(0.300417 -0.157674 -4.45941e-21)
(0.383661 -0.139075 -1.27474e-20)
(0.457713 -0.121327 9.14335e-21)
(0.523564 -0.105659 6.18606e-22)
(0.582258 -0.0919124 3.21775e-21)
(0.634594 -0.0797482 -7.0378e-21)
(0.680761 -0.0689753 -1.85905e-20)
(0.0383096 -0.113436 -3.83744e-21)
(0.119434 -0.207107 2.08191e-20)
(0.222078 -0.223039 -5.01367e-20)
(0.314291 -0.207102 2.17168e-20)
(0.395885 -0.183244 2.04193e-22)
(0.468366 -0.160388 -2.74525e-20)
(0.532838 -0.140196 1.21107e-20)
(0.590368 -0.122466 -1.11972e-21)
(0.641752 -0.10676 4.59418e-21)
(0.686832 -0.0928792 -1.37916e-21)
(0.0481353 -0.138432 -4.39303e-20)
(0.136978 -0.253817 -5.24251e-20)
(0.240798 -0.274211 1.37043e-20)
(0.331631 -0.255251 -2.48651e-20)
(0.411183 -0.226329 -7.03359e-21)
(0.481711 -0.198521 1.04616e-20)
(0.544469 -0.173934 3.88598e-21)
(0.600547 -0.152328 1.43857e-20)
(0.650745 -0.13317 -3.09769e-21)
(0.694487 -0.11628 1.66413e-20)
(0.0597285 -0.162174 4.2021e-20)
(0.157788 -0.29861 2.69504e-20)
(0.263077 -0.323564 -2.04176e-20)
(0.352311 -0.301846 3.42807e-20)
(0.429452 -0.268097 -2.92542e-21)
(0.497663 -0.235526 -3.69211e-20)
(0.558382 -0.206701 6.47468e-21)
(0.61273 -0.181351 -3.91081e-20)
(0.661514 -0.158844 1.52157e-21)
(0.703687 -0.139062 1.41654e-20)
(0.0729483 -0.18446 -3.12978e-20)
(0.181665 -0.341165 5.59497e-20)
(0.288736 -0.37079 2.18713e-20)
(0.376185 -0.346623 -2.70124e-20)
(0.450571 -0.308325 2.29143e-22)
(0.516116 -0.27121 6.80544e-20)
(0.574487 -0.238331 3.08717e-21)
(0.626838 -0.209391 3.00918e-20)
(0.673991 -0.183658 3.65902e-20)
(0.714384 -0.161112 -2.04819e-20)
(0.0876327 -0.205098 1.75519e-20)
(0.20838 -0.381179 -8.38565e-21)
(0.317567 -0.415595 -1.98713e-20)
(0.403083 -0.38933 1.49184e-20)
(0.474398 -0.346801 5.71719e-20)
(0.536952 -0.305394 -2.00555e-20)
(0.592682 -0.268669 -3.27323e-21)
(0.64278 -0.236314 -4.34493e-20)
(0.688097 -0.207492 -5.3628e-20)
(0.726523 -0.18232 2.34368e-20)
(0.1036 -0.223917 -2.33565e-20)