/*--------------------------------*- C++ -*----------------------------------*\
  =========                 |
  \\      /  F ield         | OpenFOAM: The Open Source CFD Toolbox
   \\    /   O peration     | Website:  https://openfoam.org
    \\  /    A nd           | Version:  7
     \\/     M anipulation  |
\*---------------------------------------------------------------------------*/
FoamFile
{
    version     2.0;
    format      ascii;
    class       volVectorField;
    location    "380";
    object      U;
}
// * * * * * * * * * * * * * * * * * * * * * * * * * * * * * * * * * * * * * //

dimensions      [0 1 -1 0 0 0 0];

internalField   nonuniform List<vector> 
8500
(
(-0.00134026 -0.050531 1.05655e-21)
(-0.0105216 -0.0967 -3.03882e-21)
(-0.028982 -0.10793 -3.54926e-21)
(-0.0511391 -0.0979196 3.5328e-21)
(-0.0751489 -0.0773513 -3.24622e-21)
(-0.0997074 -0.0525639 -1.73483e-21)
(-0.123866 -0.0257728 2.97662e-21)
(-0.147042 0.0035031 3.65197e-21)
(-0.16872 0.03687 -5.87687e-22)
(-0.189008 0.0767672 1.77002e-21)
(0.000256684 -0.046425 -1.17141e-21)
(-0.00771213 -0.0876848 3.61401e-21)
(-0.0260332 -0.0961958 -8.22744e-21)
(-0.0484306 -0.0848608 7.45848e-21)
(-0.0727224 -0.063853 3.78455e-22)
(-0.097465 -0.0392006 5.57095e-21)
(-0.121687 -0.0129433 -9.63069e-21)
(-0.144851 0.0155551 -1.40499e-20)
(-0.166352 0.0480572 -2.64292e-21)
(-0.186002 0.0871444 6.004e-21)
(0.00159691 -0.042172 9.98627e-22)
(-0.00528763 -0.0785502 7.57006e-21)
(-0.0232612 -0.0845216 1.79942e-20)
(-0.0455085 -0.0720613 -1.62843e-20)
(-0.0695315 -0.0507685 -3.56556e-21)
(-0.0937355 -0.0263538 -3.32924e-21)
(-0.117095 -0.000711752 1.67919e-20)
(-0.139075 0.0269031 1.06623e-20)
(-0.158953 0.0584075 2.73233e-21)
(-0.175924 0.096399 -1.84176e-20)
(0.00266839 -0.0378902 3.50931e-21)
(-0.00329231 -0.0695122 -4.50258e-21)
(-0.0207693 -0.0731612 -3.26599e-20)
(-0.0425439 -0.0597996 2.98749e-21)
(-0.0658224 -0.0384045 9.01919e-21)
(-0.0888478 -0.0143657 -6.82275e-21)
(-0.110509 0.0105342 -7.43553e-22)
(-0.130235 0.0371107 -2.66563e-21)
(-0.147222 0.0674136 6.26285e-21)
(-0.159664 0.10398 1.7445e-20)
(0.00346788 -0.0336745 2.36966e-21)
(-0.0017615 -0.0607448 -1.36214e-20)
(-0.0186613 -0.0623248 3.31421e-20)
(-0.0397219 -0.0483163 -1.47698e-20)
(-0.0618728 -0.0270386 -1.09457e-22)
(-0.0831861 -0.00355721 2.02909e-20)
(-0.102438 0.0204287 -9.45938e-21)
(-0.118987 0.0457574 1.17826e-21)
(-0.132048 0.0745926 -3.81477e-21)
(-0.138375 0.109381 8.3312e-22)
(0.00399712 -0.0295921 2.81931e-20)
(-0.00072473 -0.0523743 3.46162e-20)
(-0.017039 -0.0521715 -9.02845e-21)
(-0.0372312 -0.0378043 1.69894e-20)
(-0.0579746 -0.016907 5.0707e-21)
(-0.0771661 0.00578617 -7.65277e-21)
(-0.0934496 0.0286379 -2.8425e-21)
(-0.106071 0.0524598 -1.16739e-20)
(-0.114451 0.0795012 2.51519e-21)
(-0.113391 0.11216 -1.50175e-20)
(0.00425891 -0.0256812 -2.71086e-20)
(-0.000208375 -0.0444761 -1.7926e-20)
(-0.0159976 -0.0428044 1.42132e-20)
(-0.0352517 -0.0284004 -2.44316e-20)
(-0.0544122 -0.00819155 2.47276e-21)
(-0.0712031 0.0134308 2.80439e-20)
(-0.0841256 0.0348778 -4.97532e-21)
(-0.0922614 0.0568899 3.21354e-20)
(-0.0954862 0.0817523 -1.09187e-21)
(-0.0861418 0.112025 -1.2154e-20)
(0.0042538 -0.0219524 2.18728e-20)
(-0.000236996 -0.0370769 -3.98144e-20)
(-0.0156192 -0.0342698 -1.57828e-20)
(-0.0339382 -0.0201792 1.88809e-20)
(-0.0514348 -0.0010075 2.84836e-22)
(-0.0656699 0.0192125 -5.21091e-20)
(-0.075004 0.0389356 -2.70213e-21)
(-0.0782838 0.0587906 -2.46637e-20)
(-0.0760859 0.0809999 -3.08977e-20)
(-0.0580212 0.108883 1.74985e-20)
(0.00397795 -0.0183934 -1.21898e-20)
(-0.000832519 -0.0301615 5.99673e-21)
(-0.0159642 -0.0265605 1.4491e-20)
(-0.033401 -0.0131505 -1.23201e-20)
(-0.0492223 0.00460732 -4.41879e-20)
(-0.0608461 0.0230573 1.53372e-20)
(-0.0665069 0.0406969 2.37995e-21)
(-0.0647316 0.058 3.61573e-20)
(-0.0568503 0.0769051 4.57783e-20)
(-0.0299977 0.102352 -2.00419e-20)
(0.00342296 -0.0149758 1.85338e-20)
(-0.00201063 -0.0236834 1.6881e-20)
(-0.0170599 -0.0196235 -2.47687e-21)
(-0.033683 -0.00726043 6.23938e-20)
(-0.0478474 0.00870019 2.64258e-20)
(-0.0568567 0.0250013 1.95371e-20)
(-0.058851 0.0401858 2.671e-20)
(-0.051987 0.0545482 -1.19463e-20)
(-0.0381088 0.0694363 -1.5115e-20)
(-0.00221962 0.0917702 -2.28289e-20)
(0.00257772 -0.0116641 -2.082e-21)
(-0.00377423 -0.0175783 -2.63686e-20)
(-0.0188864 -0.0133718 -1.89038e-20)
(-0.034736 -0.00239879 -3.03946e-20)
(-0.0472328 0.0114039 -2.37275e-20)
(-0.053599 0.0252029 2.35358e-20)
(-0.0519104 0.0376043 -2.20495e-20)
(-0.0399857 0.0487552 -1.49487e-20)
(-0.0198837 0.0590588 1.87082e-21)
(0.0259828 0.076949 6.4897e-21)
(0.00143256 -0.00842601 -4.96775e-20)
(-0.00610439 -0.0117803 2.39495e-20)
(-0.0213635 -0.00770006 1.74554e-20)
(-0.0363979 0.00158807 1.1451e-20)
(-0.0471134 0.0129276 -2.05464e-20)
(-0.0506718 0.0239373 -1.72135e-20)
(-0.0450718 0.0333208 2.43998e-20)
(-0.0278522 0.0410983 -1.92094e-20)
(-0.00125519 0.0464967 -1.354e-21)
(0.056425 0.058836 -1.80645e-20)
(-1.47782e-05 -0.00524142 4.09178e-20)
(-0.0089501 -0.00623768 1.66208e-20)
(-0.0243375 -0.0025023 1.04707e-21)
(-0.0383771 0.00487825 -2.08975e-20)
(-0.0470122 0.0135366 1.73517e-21)
(-0.0473454 0.0215718 2.21179e-20)
(-0.0372437 0.0278282 -6.06393e-21)
(-0.0139027 0.0322598 -6.96945e-21)
(0.0201144 0.0326833 -1.51165e-20)
(0.0925678 0.0393545 2.77351e-20)
(-0.0017525 -0.00211101 2.69141e-20)
(-0.0122191 -0.000927626 -4.45293e-20)
(-0.0275751 0.00230869 -3.41026e-20)
(-0.0402482 0.00765075 1.48238e-20)
(-0.0462388 0.0135238 2.98807e-20)
(-0.0425559 0.0185352 2.44503e-20)
(-0.0268184 0.021735 -2.54598e-20)
(0.00419892 0.0232047 4.77734e-20)
(0.0476772 0.0187852 -1.39058e-20)
(0.139051 0.0211514 -3.12341e-20)
(-0.00374859 0.000938933 -4.09497e-20)
(-0.0157715 0.00413266 2.47381e-20)
(-0.030764 0.00678398 -1.1497e-20)
(-0.0414626 0.0100589 1.19379e-21)
(-0.0439156 0.0131718 1.2284e-20)
(-0.034972 0.0152657 -3.88289e-20)
(-0.0118133 0.0157259 3.32195e-20)
(0.0292525 0.0148335 -3.16657e-20)
(0.0854928 0.00603286 4.83874e-20)
(0.200188 0.00719571 1.66518e-20)
(-0.00594659 0.00385535 8.41694e-21)
(-0.0194189 0.0088807 4.73563e-20)
(-0.0335238 0.0109242 -1.1707e-20)
(-0.0413792 0.0122049 1.19556e-20)
(-0.039038 0.0127141 1.34972e-20)
(-0.023083 0.0121585 -4.00293e-21)
(0.00988054 0.0103731 2.83677e-20)
(0.0639956 0.00785203 1.70667e-21)
(0.13747 -0.00440515 -3.02886e-20)
(0.277969 -0.000165286 3.93377e-20)
(-0.00826478 0.00656244 -2.27461e-20)
(-0.0229297 0.0132102 -4.4661e-20)
(-0.0354261 0.0146721 3.87637e-20)
(-0.0393088 0.014121 1.92352e-20)
(-0.0305665 0.0122998 -8.85952e-20)
(-0.00540596 0.0094969 7.11315e-20)
(0.0402571 0.00607478 -6.24546e-20)
(0.110596 0.00274478 1.11475e-21)
(0.206421 -0.0113676 -1.28738e-20)
(0.370448 8.05306e-05 -3.58946e-20)
(-0.0105997 0.00897019 1.9491e-20)
(-0.02604 0.0169803 -2.57058e-21)
(-0.0360206 0.0179153 -9.50445e-21)
(-0.0345651 0.0157629 -1.20636e-21)
(-0.017519 0.011982 -5.52264e-21)
(0.0193613 0.00744524 -2.26003e-20)
(0.0808668 0.00311336 9.176e-21)
(0.170377 -0.000327833 -1.44974e-20)
(0.293269 -0.0134531 4.51124e-21)
(0.47152 0.00773634 1.2008e-21)
(-0.0128326 0.0109859 -3.97761e-20)
(-0.0284674 0.0200316 -2.8111e-21)
(-0.0348593 0.0204986 4.34175e-21)
(-0.0265064 0.0170193 1.77153e-21)
(0.000947649 0.0117326 2.89231e-20)
(0.0522262 0.00605816 -8.31106e-20)
(0.132652 0.00164172 5.45228e-20)
(0.243834 -0.00140985 -4.00691e-20)
(0.396579 -0.00915594 3.19146e-20)
(0.573274 0.021061 3.33087e-20)
(-0.0148392 0.0125272 -4.82847e-21)
(-0.0299251 0.022207 2.22386e-20)
(-0.0315164 0.0222499 -2.78869e-20)
(-0.0145596 0.0177463 -8.72617e-21)
(0.0255302 0.0114466 1.67049e-20)
(0.0938441 0.00531737 7.90317e-20)
(0.195829 0.00171373 -1.5388e-20)
(0.330607 -0.000408745 7.43502e-21)
(0.512116 0.00205191 -3.76121e-20)
(0.671732 0.0336299 1.6587e-20)
(-0.0164983 0.0135335 -1.45289e-20)
(-0.0301313 0.0233753 -1.13366e-20)
(-0.0255932 0.0230138 2.81215e-21)
(0.00175982 0.0177962 1.09587e-20)
(0.0567438 0.0110335 -3.23313e-20)
(0.144544 0.00523251 -1.2965e-20)
(0.269891 0.00337787 -3.99934e-20)
(0.428958 0.00329572 3.94147e-20)
(0.631667 0.0176072 4.03813e-20)
(0.770804 0.0347792 -1.62119e-20)
(-0.0176989 0.0139729 -6.95145e-21)
(-0.0288164 0.0234548 2.83177e-20)
(-0.0167105 0.0226862 -3.16854e-20)
(0.0228956 0.0170873 -3.6879e-21)
(0.0949591 0.0104957 -1.48721e-20)
(0.20435 0.00591358 3.19133e-20)
(0.353787 0.006811 4.02591e-20)
(0.535541 0.0105213 -3.77643e-20)
(0.744776 0.0307529 3.92263e-20)
(0.898147 0.0348544 5.32339e-21)
(-0.0183369 0.0138432 -2.01629e-20)
(-0.0257264 0.0224316 -5.7307e-20)
(-0.00449913 0.0212456 5.59633e-20)
(0.0492613 0.0156423 8.0603e-21)
(0.140468 0.00995084 1.16648e-20)
(0.273 0.00763392 7.11257e-21)
(0.445921 0.012334 3.08845e-20)
(0.645612 0.0211071 2.21083e-20)
(0.853792 0.0436709 -7.62699e-20)
(1.00992 0.0489589 -3.62453e-20)
(-0.0183218 0.013184 -6.88841e-20)
(-0.0206005 0.0203597 1.38719e-20)
(0.01141 0.0187754 -3.16912e-20)
(0.0812552 0.0136274 6.143e-21)
(0.193458 0.00969727 9.84674e-21)
(0.349873 0.0108297 -6.97647e-20)
(0.544 0.0203269 3.04967e-20)
(0.754612 0.0344446 -1.98903e-20)
(0.954826 0.0583712 2.05691e-20)
(1.09912 0.0648036 -7.10387e-21)
(-0.0175783 0.0120524 2.49716e-20)
(-0.0131779 0.0173568 2.7054e-20)
(0.0313965 0.0154812 -1.56778e-21)
(0.11925 0.0113656 -8.65645e-21)
(0.253947 0.0102085 2.71843e-22)
(0.433867 0.0160262 5.22365e-22)
(0.645012 0.0310184 -4.62377e-20)
(0.858469 0.049944 6.19545e-21)
(1.04389 0.0742194 5.54549e-20)
(1.17123 0.0809521 2.43244e-20)
(-0.0160197 0.0105186 -1.6965e-20)
(-0.00319877 0.0136132 -1.25396e-20)
(0.055836 0.0116786 5.40346e-20)
(0.163548 0.00932563 1.37307e-21)
(0.321676 0.0120881 -2.25665e-20)
(0.523285 0.0237066 6.00111e-20)
(0.745524 0.0443567 1.30131e-20)
(0.953759 0.0669803 7.28936e-22)
(1.11957 0.0905733 -2.44455e-20)
(1.22618 0.0967383 -3.12233e-20)
(-0.0135544 0.00866685 3.56537e-20)
(0.00960146 0.00937036 -9.88327e-21)
(0.0850745 0.00777661 -5.90177e-21)
(0.214304 0.00808854 -2.24606e-20)
(0.395967 0.0159813 3.6613e-20)
(0.615831 0.0341737 -1.78024e-20)
(0.842147 0.0600136 -1.98983e-20)
(1.03819 0.084941 -4.6221e-21)
(1.18149 0.106904 -1.42237e-20)
(1.26704 0.111671 1.4986e-20)
(-0.0100817 0.00658782 -1.31061e-20)
(0.0254812 0.00490852 -7.81432e-20)
(0.119388 0.00425252 8.11164e-21)
(0.271434 0.00829436 2.7979e-20)
(0.475628 0.0224596 1.99844e-20)
(0.708804 0.0474656 -6.60815e-20)
(0.932009 0.0774924 4.19958e-20)
(1.11065 0.103289 -1.88106e-20)
(1.23053 0.122837 2.7885e-20)
(1.29615 0.125739 7.56082e-21)
(-0.00549181 0.00437682 -1.44528e-20)
(0.0446751 0.000536557 2.77046e-20)
(0.158932 0.00162372 3.62257e-20)
(0.33453 0.0105767 -2.59084e-20)
(0.558962 0.0319123 9.5803e-21)
(0.799448 0.0633665 -5.82079e-20)
(1.01306 0.0962528 -1.0783e-20)
(1.17101 0.121614 8.90577e-21)
(1.26808 0.138179 -2.13012e-20)
(1.31601 0.138961 -2.1325e-20)
(0.000329015 0.00213471 -1.87544e-20)
(0.0673728 -0.00341601 -6.39284e-21)
(0.203696 0.000419731 -6.57803e-20)
(0.40281 0.0154937 -1.02935e-20)
(0.6439 0.0444864 -1.03196e-21)
(0.885304 0.0814909 3.52115e-21)
(1.08415 0.115803 5.87774e-21)
(1.21991 0.139639 -2.82582e-20)
(1.29584 0.152864 5.28007e-22)
(1.32867 0.151483 1.48106e-20)
(0.00749064 -2.94772e-05 -4.93026e-21)
(0.0936956 -0.00660433 2.28644e-20)
(0.253462 0.00115597 3.21934e-20)
(0.475116 0.0234665 2.01196e-20)
(0.728232 0.0600954 -5.90949e-21)
(0.964469 0.101386 -4.91615e-21)
(1.14491 0.135748 4.81245e-20)
(1.25843 0.157206 6.37591e-21)
(1.3155 0.166919 2.11701e-20)
(1.33589 0.163458 -8.9369e-21)
(0.0160891 -0.00199578 4.71638e-20)
(0.123674 -0.00867242 3.0382e-20)
(0.307781 0.00430765 -3.07967e-20)
(0.549993 0.0347406 -6.12626e-21)
(0.809865 0.07848 3.21486e-21)
(1.03568 0.12261 -1.16018e-20)
(1.1956 0.155795 -2.48125e-20)
(1.28784 0.174254 -4.02919e-21)
(1.3286 0.180429 2.66728e-22)
(1.33901 0.175045 9.74696e-21)
(0.0261966 -0.00363189 5.92864e-21)
(0.157228 -0.00925914 -1.66193e-20)
(0.365969 0.0102831 3.93582e-20)
(0.625802 0.0493797 2.55642e-20)
(0.887017 0.0992846 8.21693e-22)
(1.09829 0.144776 1.79546e-20)
(1.23685 0.175749 2.61355e-21)
(1.30949 0.190788 -1.86308e-20)
(1.33648 0.193503 1.54891e-20)
(1.33906 0.18638 3.6977e-23)
(0.0378528 -0.00479359 -3.9122e-20)
(0.194153 -0.00800725 -1.15028e-20)
(0.427127 0.0193986 -1.03462e-20)
(0.700875 0.0672881 -1.79774e-20)
(0.958324 0.122121 4.2695e-21)
(1.15214 0.167564 8.49392e-23)
(1.26952 0.195493 1.37146e-20)
(1.32461 0.206857 -2.27927e-21)
(1.34025 0.206256 -1.6032e-20)
(1.33681 0.197573 -1.46212e-20)
(0.0510573 -0.00532712 3.19669e-21)
(0.234115 -0.00457667 1.86997e-20)
(0.49019 0.0318589 9.07317e-21)
(0.773647 0.0882513 -2.81899e-20)
(1.02286 0.146611 -1.36634e-21)
(1.19744 0.190724 -1.20177e-20)
(1.29458 0.214966 3.01975e-22)
(1.33431 0.22253 5.50928e-21)
(1.34079 0.218792 -6.00968e-21)
(1.33277 0.208703 1.65996e-20)
(0.0657641 -0.00507356 7.55966e-21)
(0.27665 0.00133893 -1.8371e-20)
(0.553986 0.0477483 -4.32874e-20)
(0.842759 0.111977 3.97738e-20)
(1.08008 0.172405 -2.94475e-21)
(1.23464 0.214064 8.68775e-21)
(1.31297 0.234147 -1.17076e-21)
(1.33956 0.237882 8.16881e-21)
(1.33875 0.231197 -6.44844e-22)
(1.32733 0.219818 -1.28441e-20)
(0.0818789 -0.00387457 -1.54408e-20)
(0.321178 0.00999417 2.39908e-20)
(0.617312 0.0670344 1.97215e-20)
(0.907109 0.138131 -2.84305e-20)
(1.12979 0.199186 -4.71003e-21)
(1.26432 0.237438 1.77961e-21)
(1.32558 0.253038 1.76781e-20)
(1.34111 0.25298 8.48884e-22)
(1.33463 0.243532 3.31848e-21)
(1.3207 0.230937 -7.12536e-21)
(0.099258 -0.0015792 1.17183e-20)
(0.367017 0.0215756 -1.05092e-20)
(0.679003 0.0895794 -8.9697e-21)
(0.965867 0.166357 1.52947e-20)
(1.17201 0.226678 5.24621e-21)
(1.28712 0.260735 3.93721e-21)
(1.3332 0.271649 -1.80284e-20)
(1.3396 0.267877 -6.07163e-21)
(1.3288 0.255832 -5.35091e-21)
(1.31306 0.242058 2.34862e-21)
(0.11771 0.00194888 -5.88744e-21)
(0.413417 0.0361892 -1.32696e-22)
(0.737984 0.115158 1.69825e-20)
(1.01846 0.196297 -6.19598e-21)
(1.20694 0.254631 -2.73931e-21)
(1.3037 0.283866 -1.79103e-21)
(1.33652 0.289989 4.35967e-21)
(1.33551 0.282607 7.41938e-21)
(1.32148 0.268107 -2.39368e-22)
(1.30448 0.253156 2.61521e-21)
(0.137 0.00682416 4.15417e-21)
(0.459587 0.0538532 -1.16479e-21)
(0.793316 0.143476 -3.04985e-21)
(1.06453 0.227594 -2.75568e-21)
(1.2349 0.282822 2.46385e-21)
(1.31467 0.306754 1.90082e-21)
(1.33611 0.30806 -1.74225e-21)
(1.32921 0.297181 6.15045e-22)
(1.31286 0.280344 8.52334e-22)
(1.29502 0.264191 -1.11157e-21)
(0.156854 0.0131327 2.25148e-21)
(0.504731 0.074497 6.38398e-22)
(0.844212 0.174187 -3.80867e-21)
(1.1039 0.2599 -3.02346e-21)
(1.25626 0.311046 3.13024e-21)
(1.3206 0.329326 6.09761e-22)
(1.33244 0.325848 -1.37891e-21)
(1.32096 0.311589 1.28513e-21)
(1.30303 0.292507 7.00732e-22)
(1.28472 0.275111 -7.83328e-22)
(0.176972 0.0209267 -8.77023e-22)
(0.548074 0.0979647 1.7835e-21)
(0.890047 0.206907 1.17699e-20)
(1.13656 0.292874 -5.20883e-21)
(1.27144 0.339114 -2.51685e-21)
(1.322 0.35151 -2.79819e-21)
(1.32588 0.343322 5.67018e-21)
(1.31097 0.325798 3.72612e-21)
(1.29206 0.304539 2.91414e-21)
(1.27358 0.285852 1.53724e-21)
(0.197031 0.0302204 1.81186e-20)
(0.588897 0.124022 -9.91777e-21)
(0.930352 0.241229 -1.12206e-20)
(1.16258 0.326186 1.51792e-20)
(1.28086 0.366842 7.90419e-21)
(1.31931 0.373223 -5.12251e-22)
(1.31675 0.360436 -9.43108e-21)
(1.29938 0.339753 -6.70187e-21)
(1.28 0.316368 -6.76816e-21)
(1.26163 0.296346 3.91604e-21)
(0.216698 0.0409881 -2.45291e-20)
(0.626549 0.152368 2.298e-20)
(0.964804 0.276728 2.63456e-20)
(1.18213 0.359515 -2.57657e-20)
(1.28492 0.394052 -8.81215e-21)
(1.31292 0.394378 5.54664e-21)
(1.30527 0.377125 9.88742e-21)
(1.28627 0.353381 1.50568e-21)
(1.26688 0.327901 -2.17117e-22)
(1.24887 0.306516 -5.23636e-21)
(0.235639 0.0531638 -3.54621e-21)
(0.66047 0.182645 -3.23796e-20)
(0.993205 0.312973 -3.45107e-20)
(1.19543 0.392549 3.83429e-20)
(1.28402 0.420568 -4.32241e-21)
(1.30317 0.414876 7.70719e-21)
(1.29165 0.39331 1.44663e-21)
(1.27172 0.366596 -4.12682e-21)
(1.25267 0.339037 2.20522e-21)
(1.23522 0.316281 -2.33253e-22)
(0.253532 0.0666421 7.19025e-21)
(0.690193 0.214448 2.00899e-20)
(1.01547 0.349528 1.13199e-20)
(1.20276 0.424985 -8.90194e-21)
(1.27852 0.446215 -1.35887e-20)
(1.29034 0.434608 -1.23965e-20)
(1.27603 0.408902 -2.43524e-21)
(1.25579 0.379313 6.23112e-21)
(1.23737 0.3497 -1.30636e-21)
(1.22051 0.325555 2.89511e-21)
(0.27007 0.0812817 -2.72265e-20)
(0.715354 0.247342 -2.5259e-20)
(1.03162 0.385963 -3.96435e-21)
(1.20441 0.456531 -4.48115e-21)
(1.26878 0.470816 -9.92946e-21)
(1.27469 0.453455 5.91959e-21)
(1.25856 0.423794 -1.07758e-21)
(1.23854 0.391445 -5.40363e-21)
(1.221 0.359878 4.86789e-21)
(1.20463 0.334242 -6.55012e-21)
(0.284974 0.0969087 6.49101e-21)
(0.735691 0.280869 2.13971e-20)
(1.04174 0.421854 1.84357e-20)
(1.20069 0.486904 1.98545e-20)
(1.25512 0.494195 4.62045e-22)
(1.25643 0.471287 1.65808e-20)
(1.23933 0.437867 9.5869e-22)
(1.22003 0.402876 -1.82471e-20)
(1.20363 0.369576 1.26136e-20)
(1.18796 0.342286 4.52106e-21)
(0.297997 0.11332 1.76575e-20)
(0.751043 0.314566 3.92319e-20)
(1.04598 0.456788 -5.17516e-21)
(1.19194 0.51583 -2.49638e-20)
(1.23786 0.516176 1.11019e-20)
(1.23577 0.487972 -1.12536e-20)
(1.21845 0.450994 -1.43563e-20)
(1.2003 0.413465 -9.25713e-22)
(1.18521 0.378559 -1.00919e-20)
(1.17075 0.349683 3.686e-21)
(0.308933 0.130291 8.24189e-21)
(0.761335 0.347967 6.01878e-21)
(1.04456 0.490371 4.83111e-20)
(1.17848 0.543045 8.84148e-21)
(1.21729 0.536585 -7.56075e-21)
(1.2129 0.503371 -3.81502e-21)
(1.19606 0.46305 2.15864e-20)
(1.17942 0.423145 1.70285e-20)
(1.16574 0.386677 8.09099e-21)
(1.15289 0.356292 -9.62095e-22)
(0.317617 0.147579 1.69794e-21)
(0.766574 0.380619 -4.0027e-20)
(1.03774 0.522225 -5.6713e-20)
(1.16067 0.5683 1.60495e-21)
(1.19368 0.555249 1.05306e-20)
(1.18802 0.517336 -1.44006e-20)
(1.17227 0.473902 -3.09031e-20)
(1.15743 0.431797 -8.75236e-21)
(1.14536 0.39384 -4.86023e-22)
(1.13434 0.361998 3.04006e-21)
(0.323927 0.164932 -1.42509e-20)
(0.766846 0.412083 3.56938e-20)
(1.02584 0.552 3.39569e-20)
(1.13887 0.591361 -3.05809e-20)
(1.16731 0.571989 4.70486e-21)
(1.16129 0.529721 3.34236e-20)
(1.14716 0.483426 -6.557e-21)
(1.13438 0.439305 5.53088e-21)
(1.12413 0.399951 -2.00946e-21)
(1.11512 0.366719 -2.44226e-21)
(0.327787 0.18209 -3.19178e-20)
(0.762311 0.441935 -5.63136e-20)
(1.00923 0.579378 -1.09305e-20)
(1.1134 0.612013 1.76586e-20)
(1.13842 0.586637 1.64712e-20)
(1.13289 0.540375 -3.28269e-20)
(1.12084 0.491494 1.67084e-20)
(1.11038 0.44556 -7.31858e-21)
(1.10212 0.404914 4.94729e-21)
(1.0953 0.370384 4.82499e-22)
(0.32917 0.198794 2.43845e-20)
(0.753208 0.469766 1.84206e-21)
(0.988276 0.604066 -5.39038e-21)
(1.08449 0.630024 -2.13168e-20)
(1.1073 0.599051 1.28613e-20)
(1.10301 0.549151 3.19391e-21)
(1.09345 0.497983 -8.43321e-21)
(1.08552 0.450456 2.28024e-21)
(1.07941 0.408632 -6.02161e-22)
(1.07497 0.372919 -8.84288e-22)
(0.32811 0.214796 -6.54889e-21)
(0.739843 0.495227 -8.89468e-21)
(0.963154 0.625749 2.28805e-20)
(1.05256 0.645221 1.04563e-20)
(1.07428 0.609044 -1.36642e-20)
(1.07183 0.555944 1.67239e-20)
(1.06511 0.502785 1.70301e-21)
(1.0599 0.453894 2.47895e-21)
(1.05608 0.411006 3.52908e-21)
(1.0542 0.374231 6.36242e-22)
(0.32469 0.229846 4.21685e-20)
(0.722524 0.518107 3.2378e-20)
(0.934086 0.644075 -2.64453e-21)
(1.01809 0.657419 -4.52821e-21)
(1.03958 0.616493 -5.33712e-21)
(1.03953 0.560627 -2.37541e-21)
(1.03597 0.505796 2.41592e-21)
(1.03365 0.455791 7.93008e-22)
(1.03221 0.411941 -2.93073e-21)
(1.03307 0.374225 -4.79808e-21)
(0.318982 0.243619 2.95252e-21)
(0.701411 0.538123 5.28983e-21)
(0.901732 0.659022 -2.82938e-20)
(0.981474 0.666375 1.19713e-20)
(1.00349 0.621298 1.52099e-21)
(1.00632 0.563098 -2.57412e-21)
(1.00617 0.506924 1.26453e-21)
(1.00686 0.456069 1.14401e-21)
(1.00794 0.41137 -4.39313e-21)
(1.0118 0.372847 5.93239e-21)
(0.310999 0.255827 -1.60403e-20)
(0.676751 0.554796 -1.12151e-20)
(0.866681 0.670432 8.24932e-21)
(0.943024 0.67203 1.27531e-21)
(0.966253 0.62335 -4.87629e-21)
(0.972387 0.56326 3.17963e-21)
(0.975863 0.506079 2.75382e-21)
(0.979652 0.454641 -1.11275e-20)
(0.983509 0.409226 2.55587e-20)
(0.990989 0.370129 1.0012e-20)
(0.300955 0.26625 -1.18504e-20)
(0.649005 0.567816 2.73733e-20)
(0.829271 0.678089 -1.64203e-20)
(0.903069 0.674312 -2.94457e-21)
(0.92814 0.622567 -1.25553e-21)
(0.937913 0.561033 -2.62496e-21)
(0.945147 0.503177 -9.23691e-21)
(0.952136 0.451374 4.88076e-21)
(0.959323 0.405326 -1.54237e-21)
(0.971307 0.366114 -4.72424e-21)
(0.289104 0.274867 -1.39764e-21)
(0.618629 0.577078 -8.27541e-21)
(0.78991 0.6818 3.26422e-21)
(0.861954 0.673141 -8.98752e-22)
(0.889415 0.618887 6.2955e-21)
(0.903088 0.556365 5.36784e-21)
(0.914155 0.498167 1.70695e-20)
(0.92451 0.44617 -1.25386e-20)
(0.935737 0.399314 -2.39266e-20)
(0.952055 0.360183 9.93142e-21)
(0.275578 0.281485 -1.09751e-21)
(0.586081 0.582453 -2.69579e-21)
(0.749021 0.681458 1.04894e-21)
(0.820032 0.668456 8.22411e-21)
(0.850344 0.612266 -1.33935e-20)
(0.868108 0.549222 -2.12098e-20)
(0.883075 0.491045 -6.45652e-21)
(0.897044 0.439137 -1.36441e-21)
(0.912756 0.391371 3.126e-20)
(0.9305 0.348745 -7.11385e-21)
(0.260591 0.285955 2.17741e-21)
(0.551803 0.583834 -3.86269e-21)
(0.707033 0.677008 -2.25319e-23)
(0.777654 0.66022 6.21978e-22)
(0.811193 0.602678 -8.80842e-21)
(0.833192 0.539577 3.97567e-20)
(0.85216 0.481777 -2.74574e-20)
(0.869945 0.430348 3.29162e-20)
(0.889355 0.383291 -2.32156e-20)
(0.906989 0.342069 -3.05582e-20)
(0.244389 0.288166 -1.76742e-21)
(0.516229 0.581147 -4.5927e-22)
(0.664373 0.66843 2.26089e-22)
(0.735166 0.648424 1.39541e-20)
(0.772231 0.590114 -5.47603e-21)
(0.798565 0.52741 8.42015e-21)
(0.821615 0.470314 1.62195e-20)
(0.843234 0.419543 -8.56066e-21)
(0.865845 0.373027 -2.17792e-20)
(0.884557 0.332095 3.03272e-20)
(0.227225 0.288036 1.15693e-20)
(0.47979 0.574352 1.54621e-20)
(0.621462 0.655735 -1.46643e-20)
(0.69291 0.633086 -1.3131e-20)
(0.733724 0.574588 4.50505e-20)
(0.764446 0.512734 -4.57531e-20)
(0.791591 0.456701 5.45917e-20)
(0.81694 0.406939 -1.38092e-20)
(0.842477 0.361505 1.4793e-20)
(0.862906 0.321732 2.72704e-20)
(0.20936 0.285514 -4.41317e-21)
(0.442916 0.563452 -1.48448e-20)
(0.57871 0.638965 -8.5571e-21)
(0.65122 0.614249 -4.91313e-21)
(0.695936 0.556131 5.15051e-21)
(0.731057 0.495569 -1.16507e-20)
(0.76226 0.440941 -1.63733e-20)
(0.791222 0.392473 -3.52445e-20)
(0.819567 0.348368 3.49034e-20)
(0.842095 0.309952 -1.14447e-20)
(0.191057 0.280576 2.68594e-20)
(0.40603 0.548483 -3.11922e-21)
(0.536517 0.618193 -1.19978e-20)
(0.610423 0.59198 1.56717e-20)
(0.659128 0.534797 -2.8262e-20)
(0.698607 0.475961 7.50162e-20)
(0.733792 0.423085 -3.99628e-20)
(0.766246 0.376225 3.62178e-20)
(0.797336 0.333755 -6.66226e-20)
(0.822161 0.296889 -1.76438e-20)
(0.172576 0.273225 -8.78879e-21)
(0.369546 0.529521 2.8493e-20)
(0.495269 0.593521 6.8032e-21)
(0.570832 0.566373 -1.44637e-20)
(0.623551 0.510662 -2.49126e-20)
(0.667303 0.453969 -1.05919e-21)
(0.706358 0.403181 1.33415e-20)
(0.742176 0.358226 -3.24779e-20)
(0.77594 0.317645 1.61205e-20)
(0.803153 0.282481 2.15837e-21)
(0.154177 0.263494 -4.63211e-20)
(0.333863 0.506676 -1.14423e-20)
(0.455339 0.565079 -3.10566e-21)
(0.532749 0.537544 3.70498e-20)
(0.589447 0.48382 -3.43455e-20)
(0.637347 0.429673 -9.03282e-21)
(0.680129 0.381299 -5.42861e-21)
(0.719171 0.338537 1.01412e-20)
(0.755519 0.300082 -1.26878e-20)
(0.785143 0.266763 -1.98515e-20)
(0.136112 0.25144 4.06881e-20)
(0.299365 0.480091 -2.30752e-20)
(0.417079 0.533026 1.19091e-21)
(0.496464 0.505629 -5.60552e-20)
(0.557051 0.454383 6.07895e-20)
(0.608932 0.403166 -1.92404e-20)
(0.655271 0.357521 1.15434e-20)
(0.697377 0.317224 1.00037e-20)
(0.736196 0.281108 2.90528e-20)
(0.768206 0.249784 -1.18351e-20)
(0.118626 0.237148 -1.65995e-20)
(0.266418 0.44994 4.7787e-20)
(0.380824 0.497544 2.69254e-20)
(0.462249 0.470791 4.39546e-20)
(0.526584 0.422486 -1.02314e-20)
(0.582244 0.37456 4.08864e-21)
(0.631943 0.33194 3.29903e-20)
(0.676935 0.294364 7.3088e-21)
(0.718088 0.260788 7.01278e-22)
(0.752421 0.231611 -1.41022e-20)
(0.101951 0.220723 -3.78026e-20)
(0.235365 0.416427 -2.81499e-21)
(0.346888 0.458844 -1.5744e-20)
(0.43036 0.433208 -7.05366e-20)
(0.498255 0.388278 -6.81367e-20)
(0.557457 0.343983 1.1402e-20)
(0.610295 0.304668 -2.80152e-20)
(0.657973 0.27005 1.77986e-20)
(0.701307 0.239199 9.68637e-21)
(0.737862 0.212321 2.03772e-20)
(0.0863069 0.202296 5.52601e-20)
(0.206526 0.379784 -4.52015e-20)
(0.315562 0.417158 -2.29228e-20)
(0.401035 0.393081 4.07557e-20)
(0.472257 0.351925 4.62564e-20)
(0.534736 0.311576 -1.52676e-20)
(0.590467 0.275824 -1.93192e-21)
(0.640614 0.244385 -5.54717e-20)
(0.685955 0.216429 -3.13887e-20)
(0.724604 0.192004 1.19519e-20)
(0.0718973 0.182017 -3.13931e-20)
(0.180195 0.340267 1.32359e-20)
(0.287112 0.372739 4.85573e-20)
(0.374492 0.350628 -2.1686e-20)
(0.44877 0.313612 1.6585e-21)
(0.514232 0.277494 6.15365e-20)
(0.572589 0.245543 2.87622e-21)
(0.624969 0.217481 5.29762e-20)
(0.67213 0.192578 2.21028e-20)
(0.712714 0.170756 -3.51314e-20)
(0.0589085 0.160056 4.32749e-20)
(0.15664 0.298157 4.74462e-21)
(0.261779 0.32586 3.11765e-21)
(0.350929 0.306081 4.42366e-20)
(0.427958 0.273533 -5.94031e-21)
(0.496082 0.241906 -3.85646e-20)
(0.556778 0.213969 1.88798e-20)
(0.611141 0.189464 -3.01449e-20)
(0.659922 0.167754 -1.26375e-20)
(0.702255 0.148678 1.27602e-20)
(0.0475078 0.136597 -2.70005e-20)
(0.136098 0.253753 -5.17727e-20)
(0.239779 0.276811 1.1924e-20)
(0.330521 0.259691 -2.33712e-20)
(0.409965 0.231899 -1.41577e-20)
(0.48041 0.204989 3.42101e-20)
(0.543139 0.181256 -8.28072e-21)
(0.599222 0.160465 7.6883e-21)
(0.649409 0.142075 -9.32136e-21)
(0.693284 0.125875 1.8454e-20)
(0.0378416 0.111844 9.72072e-21)
(0.118776 0.207373 3.48073e-20)
(0.221296 0.225898 -4.82816e-20)
(0.313423 0.211717 2.28508e-20)
(0.394917 0.188931 -1.04044e-20)
(0.467322 0.166934 -2.92724e-20)
(0.531765 0.147566 2.38606e-20)
(0.589294 0.130625 5.02624e-21)
(0.640663 0.115665 -7.75171e-22)
(0.685848 0.10246 -2.14544e-20)
(0.0300347 0.0860097 3.1669e-21)
(0.10485 0.159352 1.11636e-20)
(0.20649 0.17344 4.36161e-20)
(0.299763 0.162433 -8.34573e-21)
(0.382922 0.144859 -6.57499e-21)
(0.45691 0.127938 2.44536e-21)
(0.522734 0.11307 1.03515e-21)
(0.581424 0.100091 8.89724e-21)
(0.633745 0.088652 -1.16732e-20)
(0.679991 0.078543 -7.4284e-21)
(0.0241886 0.0593192 -7.93552e-21)
(0.0944612 0.110035 -1.35904e-20)
(0.195488 0.119766 -3.38226e-20)
(0.289646 0.11212 1.70112e-20)
(0.374067 0.0999217 1.38833e-20)
(0.449248 0.0882048 5.88179e-22)
(0.516109 0.077945 -2.31869e-20)
(0.575669 0.0690174 -1.02715e-20)
(0.628704 0.0611712 8.16933e-21)
(0.675744 0.0542399 8.723e-21)
(0.0203814 0.0320057 1.37278e-21)
(0.0877194 0.0597796 -2.82964e-21)
(0.188388 0.0652141 6.42934e-21)
(0.283154 0.0610667 -4.35594e-21)
(0.368419 0.0543641 -3.81688e-21)
(0.444393 0.0479453 -2.59099e-21)
(0.51194 0.042371 4.75966e-21)
(0.572072 0.0375598 1.81205e-20)
(0.625577 0.0333602 2.63189e-21)
(0.673134 0.0296665 -4.66208e-21)
(0.0186662 0.0043089 1.69899e-21)
(0.084699 0.00894901 -4.67231e-21)
(0.185257 0.0101293 -5.293e-21)
(0.28034 0.00956853 -3.67206e-21)
(0.366022 0.00843607 3.49513e-21)
(0.442383 0.0073738 1.57654e-21)
(0.510259 0.00653352 -1.57127e-21)
(0.570663 0.00587916 -7.14627e-21)
(0.624391 0.00536089 2.35135e-21)
(0.672177 0.00494801 -2.19885e-21)
(0.0190718 -0.0235281 -1.6866e-21)
(0.0854397 -0.0420883 4.63918e-21)
(0.18613 -0.0451402 5.25968e-21)
(0.281235 -0.0420774 -5.03376e-21)
(0.366902 -0.0376098 4.42885e-21)
(0.443238 -0.0332929 2.21648e-21)
(0.511083 -0.0293806 -3.53741e-21)
(0.571456 -0.0258625 -4.10492e-21)
(0.625161 -0.0226865 6.03802e-22)
(0.672897 -0.0198084 -1.70664e-21)
(0.0216013 -0.0512604 1.85012e-21)
(0.0899465 -0.0929623 -5.52696e-21)
(0.191011 -0.100244 1.2328e-20)
(0.285841 -0.0935721 -1.08229e-20)
(0.371061 -0.0835195 -5.19333e-22)
(0.446961 -0.0738368 -7.20668e-21)
(0.514415 -0.0651834 1.16981e-20)
(0.574453 -0.0575023 1.5892e-20)
(0.627883 -0.0506398 2.82978e-21)
(0.675272 -0.0444878 -6.09428e-21)
(0.026233 -0.0786441 -1.56841e-21)
(0.0981895 -0.143304 -1.16015e-20)
(0.199874 -0.154834 -2.70246e-20)
(0.294136 -0.144617 2.3388e-20)
(0.37848 -0.12904 4.8007e-21)
(0.453535 -0.11404 4.26191e-21)
(0.52024 -0.100687 -2.09617e-20)
(0.57964 -0.088877 -1.23818e-20)
(0.632547 -0.0783544 -2.7676e-21)
(0.679303 -0.06896 1.88084e-20)
(0.0329201 -0.105439 -5.52016e-21)
(0.110104 -0.192748 6.99725e-21)
(0.212661 -0.208564 4.87751e-20)
(0.306072 -0.194918 -4.40347e-21)
(0.389119 -0.17392 -1.25427e-20)
(0.462926 -0.153688 8.96836e-21)
(0.528527 -0.135706 6.7633e-22)
(0.58699 -0.119825 3.14876e-21)
(0.639128 -0.10569 -6.92205e-21)
(0.684975 -0.0931102 -1.82581e-20)
(0.0415914 -0.131409 -3.70592e-21)
(0.125591 -0.240936 2.02013e-20)
(0.229283 -0.261094 -4.8931e-20)
(0.321576 -0.244182 2.11343e-20)
(0.402916 -0.217914 2.1141e-22)
(0.475082 -0.192569 -2.68153e-20)
(0.539232 -0.170058 1.18785e-20)
(0.596462 -0.150189 -1.12571e-21)
(0.64759 -0.132507 4.50043e-21)
(0.692263 -0.116821 -1.29254e-21)
(0.0521513 -0.156327 -4.23302e-20)
(0.144517 -0.287519 -5.06973e-20)
(0.249619 -0.312093 1.33621e-20)
(0.340548 -0.292127 -2.42195e-20)
(0.41979 -0.26078 -6.78303e-21)
(0.489932 -0.230475 1.02337e-20)
(0.552294 -0.203564 3.77633e-21)
(0.608002 -0.179814 1.39412e-20)
(0.657884 -0.15867 -2.99794e-21)
(0.701135 -0.139976 1.62396e-20)
(0.0644815 -0.179977 4.04551e-20)
(0.166717 -0.332159 2.60368e-20)
(0.273522 -0.361237 -1.95651e-20)
(0.362866 -0.338478 3.29493e-20)
(0.439637 -0.302285 -2.72782e-21)
(0.507388 -0.267206 -3.56351e-20)
(0.567638 -0.236051 6.23475e-21)
(0.621544 -0.208551 -3.78875e-20)
(0.669951 -0.184047 1.52388e-21)
(0.71155 -0.162459 1.36838e-20)
(0.0784412 -0.202153 -2.96465e-20)
(0.191994 -0.374536 5.32044e-20)
(0.300813 -0.408219 2.08931e-20)
(0.388384 -0.382968 -2.60822e-20)
(0.462337 -0.342205 3.48425e-22)
(0.527348 -0.302572 6.54942e-20)
(0.585174 -0.267355 2.88958e-21)
(0.637008 -0.236257 2.89519e-20)
(0.683722 -0.208514 3.52174e-20)
(0.72346 -0.184158 -1.97154e-20)
(0.0938687 -0.222665 1.66014e-20)
(0.220118 -0.414343 -7.98682e-21)
(0.331286 -0.452745 -1.88568e-20)