/*--------------------------------*- C++ -*----------------------------------*\
  =========                 |
  \\      /  F ield         | OpenFOAM: The Open Source CFD Toolbox
   \\    /   O peration     | Website:  https://openfoam.org
    \\  /    A nd           | Version:  7
     \\/     M anipulation  |
\*---------------------------------------------------------------------------*/
FoamFile
{
    version     2.0;
    format      ascii;
    class       volScalarField;
    location    "355";
    object      p;
}
// * * * * * * * * * * * * * * * * * * * * * * * * * * * * * * * * * * * * * //

dimensions      [0 2 -2 0 0 0 0];

internalField   nonuniform List<scalar> 
8500
(
-0.426039
-0.428103
-0.428901
-0.430172
-0.432465
-0.435978
-0.440777
-0.446925
-0.45431
-0.46309
-0.417761
-0.420334
-0.42118
-0.422254
-0.424045
-0.426679
-0.430149
-0.43443
-0.439237
-0.444653
-0.409638
-0.412662
-0.413541
-0.414407
-0.415685
-0.417421
-0.419531
-0.421893
-0.424029
-0.425907
-0.401811
-0.405225
-0.406125
-0.406784
-0.407555
-0.408402
-0.409158
-0.409605
-0.409073
-0.407359
-0.394409
-0.398152
-0.399065
-0.399525
-0.399808
-0.399796
-0.399238
-0.397824
-0.39471
-0.389453
-0.387547
-0.391562
-0.392481
-0.392754
-0.392578
-0.391754
-0.389944
-0.38676
-0.381219
-0.372538
-0.381328
-0.385558
-0.386478
-0.386577
-0.385976
-0.384396
-0.381414
-0.376575
-0.368812
-0.356857
-0.375843
-0.380231
-0.381145
-0.381084
-0.380092
-0.37782
-0.373756
-0.367387
-0.357637
-0.342543
-0.371165
-0.375653
-0.376552
-0.376343
-0.374999
-0.372101
-0.367052
-0.359282
-0.347801
-0.329638
-0.367353
-0.371881
-0.372754
-0.372409
-0.370752
-0.367301
-0.36137
-0.352324
-0.339387
-0.318113
-0.36445
-0.368952
-0.369786
-0.369318
-0.367388
-0.363463
-0.356764
-0.346565
-0.332464
-0.307879
-0.36248
-0.366886
-0.367666
-0.367085
-0.364928
-0.360615
-0.353276
-0.342044
-0.327094
-0.298733
-0.361446
-0.365678
-0.366386
-0.365703
-0.363364
-0.358756
-0.350922
-0.338798
-0.323378
-0.290559
-0.361331
-0.365304
-0.365916
-0.365138
-0.362659
-0.357842
-0.349663
-0.336818
-0.321326
-0.284214
-0.362093
-0.365718
-0.366203
-0.365324
-0.362737
-0.357777
-0.349379
-0.336008
-0.320172
-0.280063
-0.363671
-0.366854
-0.367171
-0.366176
-0.363485
-0.358415
-0.349878
-0.336384
-0.319675
-0.277821
-0.365985
-0.368634
-0.368728
-0.367575
-0.364763
-0.35958
-0.350887
-0.337492
-0.319644
-0.277108
-0.368947
-0.370972
-0.370778
-0.369407
-0.366422
-0.361089
-0.352192
-0.338902
-0.31954
-0.27733
-0.37247
-0.373787
-0.373226
-0.371557
-0.368327
-0.362767
-0.353595
-0.34041
-0.319016
-0.27848
-0.376472
-0.377007
-0.375989
-0.373939
-0.370358
-0.364488
-0.354966
-0.341785
-0.318423
-0.284086
-0.380894
-0.380583
-0.379029
-0.376474
-0.372452
-0.366177
-0.356226
-0.342741
-0.318484
-0.298269
-0.3857
-0.38448
-0.382309
-0.379155
-0.37459
-0.367807
-0.357348
-0.343263
-0.319477
-0.300405
-0.390881
-0.388706
-0.385835
-0.381999
-0.376797
-0.369395
-0.358325
-0.343457
-0.320153
-0.300028
-0.396457
-0.393281
-0.389648
-0.385058
-0.379133
-0.370994
-0.359172
-0.343398
-0.320223
-0.298834
-0.402473
-0.398251
-0.393809
-0.388407
-0.381672
-0.372662
-0.359922
-0.343085
-0.3197
-0.296916
-0.408984
-0.40367
-0.398388
-0.392126
-0.384485
-0.374453
-0.360598
-0.342513
-0.318573
-0.294578
-0.416052
-0.409601
-0.403459
-0.396289
-0.387627
-0.376396
-0.361195
-0.341655
-0.316901
-0.291842
-0.423731
-0.416095
-0.40908
-0.400946
-0.391125
-0.378485
-0.361672
-0.340483
-0.314731
-0.288746
-0.432057
-0.423192
-0.415293
-0.406118
-0.394972
-0.380671
-0.361966
-0.338964
-0.312106
-0.285287
-0.441041
-0.430909
-0.422107
-0.411789
-0.399116
-0.382859
-0.361996
-0.337065
-0.309051
-0.281457
-0.45066
-0.439233
-0.429497
-0.417905
-0.403461
-0.384925
-0.361675
-0.33475
-0.305572
-0.277238
-0.460858
-0.448121
-0.437402
-0.424372
-0.407861
-0.38672
-0.360914
-0.33198
-0.301657
-0.272603
-0.471538
-0.457492
-0.445718
-0.431049
-0.412132
-0.388092
-0.359621
-0.328707
-0.297279
-0.267518
-0.482564
-0.467224
-0.454303
-0.43775
-0.416061
-0.388882
-0.357707
-0.324875
-0.292397
-0.261946
-0.493758
-0.477157
-0.46297
-0.444243
-0.419425
-0.388938
-0.355079
-0.320424
-0.286962
-0.255843
-0.504904
-0.487086
-0.471491
-0.45026
-0.421994
-0.388113
-0.351646
-0.315286
-0.280916
-0.249163
-0.515744
-0.496768
-0.479597
-0.455513
-0.423548
-0.386266
-0.347314
-0.309391
-0.2742
-0.24186
-0.525988
-0.505922
-0.48698
-0.459703
-0.423873
-0.383263
-0.341993
-0.302664
-0.266751
-0.233889
-0.535318
-0.51424
-0.49331
-0.462536
-0.422772
-0.378979
-0.335592
-0.295032
-0.258508
-0.225211
-0.543394
-0.521387
-0.498241
-0.463731
-0.420064
-0.373298
-0.328026
-0.286424
-0.249412
-0.215788
-0.549862
-0.527014
-0.501426
-0.463029
-0.415586
-0.366112
-0.319213
-0.276773
-0.239411
-0.205592
-0.554367
-0.530768
-0.502534
-0.460197
-0.409196
-0.357327
-0.30908
-0.266017
-0.228466
-0.194608
-0.556563
-0.5323
-0.50126
-0.455032
-0.400773
-0.34686
-0.297558
-0.2541
-0.216545
-0.182832
-0.55612
-0.531278
-0.497335
-0.447369
-0.39022
-0.334643
-0.284589
-0.240971
-0.203611
-0.170217
-0.552735
-0.5274
-0.49053
-0.437076
-0.377464
-0.320624
-0.270133
-0.226592
-0.189591
-0.156589
-0.546144
-0.520401
-0.480668
-0.424061
-0.362455
-0.304773
-0.254168
-0.210949
-0.174426
-0.141666
-0.536123
-0.510064
-0.467614
-0.408269
-0.345172
-0.287073
-0.236682
-0.194047
-0.158168
-0.125457
-0.5225
-0.49623
-0.451283
-0.389679
-0.325614
-0.267524
-0.217673
-0.175897
-0.140902
-0.108888
-0.505155
-0.478793
-0.431636
-0.368307
-0.303807
-0.246143
-0.197173
-0.156571
-0.122497
-0.0917873
-0.484025
-0.457707
-0.408686
-0.344205
-0.279803
-0.222986
-0.175292
-0.136051
-0.103091
-0.0739515
-0.459103
-0.432981
-0.382496
-0.317463
-0.253677
-0.198154
-0.152033
-0.114378
-0.0827801
-0.0553603
-0.430436
-0.404688
-0.353204
-0.288189
-0.225512
-0.171708
-0.127462
-0.091632
-0.0616266
-0.0360789
-0.398127
-0.372966
-0.321015
-0.256452
-0.195422
-0.143739
-0.101674
-0.0679001
-0.0397013
-0.0162089
-0.362341
-0.338023
-0.286033
-0.222339
-0.163586
-0.114377
-0.0747761
-0.0432776
-0.0170877
0.00413726
-0.323304
-0.300147
-0.247994
-0.186333
-0.130164
-0.0837656
-0.0468938
-0.0178666
0.00612942
0.0248724
-0.281235
-0.25958
-0.207295
-0.148525
-0.0953576
-0.0520679
-0.0181633
0.00822617
0.0298632
0.0459061
-0.236322
-0.21596
-0.165102
-0.109148
-0.0593575
-0.0194543
0.0112795
0.0348997
0.0539715
0.0669038
-0.188924
-0.170145
-0.12136
-0.0684789
-0.0223702
0.013905
0.0413172
0.062068
0.0781736
0.0870542
-0.139627
-0.122358
-0.0762083
-0.0267871
0.0153777
0.0478355
0.0718406
0.0896258
0.102133
0.105784
-0.0886216
-0.0731007
-0.0299332
0.0156553
0.053648
0.0821491
0.102689
0.117337
0.125749
0.124802
-0.0363277
-0.022793
0.0171174
0.0585626
0.0921958
0.116637
0.133613
0.144808
0.149009
0.148939
0.0168122
0.028167
0.0645776
0.101638
0.130772
0.151071
0.164346
0.171908
0.172797
0.173123
0.0703547
0.0793741
0.112078
0.144577
0.16912
0.185224
0.194716
0.198701
0.196768
0.195985
0.123852
0.130417
0.159251
0.187074
0.206979
0.218865
0.224549
0.225065
0.22049
0.217854
0.176857
0.180881
0.205732
0.228822
0.24409
0.251774
0.253676
0.25082
0.24362
0.238726
0.228924
0.230356
0.251163
0.269519
0.280196
0.283734
0.28192
0.275788
0.265972
0.258633
0.279615
0.278439
0.295194
0.30887
0.315047
0.314532
0.309099
0.299793
0.287393
0.277534
0.328504
0.324738
0.337485
0.346588
0.3484
0.343964
0.335037
0.322676
0.307757
0.295372
0.375179
0.368873
0.377712
0.382398
0.380021
0.371831
0.359564
0.344289
0.326946
0.312073
0.419246
0.410485
0.415563
0.416038
0.409688
0.397943
0.382517
0.364492
0.344845
0.327564
0.460332
0.449233
0.450747
0.447261
0.437191
0.422122
0.403744
0.383155
0.361349
0.341771
0.498091
0.484801
0.482992
0.475837
0.462333
0.444199
0.423104
0.400157
0.376356
0.354621
0.532199
0.516896
0.512046
0.501552
0.484934
0.464023
0.440464
0.415385
0.389772
0.366052
0.562367
0.545253
0.537683
0.524215
0.50483
0.481451
0.455708
0.428739
0.401513
0.376002
0.588333
0.569636
0.5597
0.543654
0.521875
0.496362
0.468727
0.440126
0.411502
0.384423
0.609871
0.58984
0.577922
0.55972
0.535941
0.508645
0.479431
0.449468
0.419673
0.391267
0.62679
0.60569
0.592198
0.572286
0.546921
0.51821
0.487742
0.456698
0.425969
0.396499
0.638932
0.617047
0.602408
0.58125
0.554728
0.524982
0.493596
0.46176
0.430346
0.400093
0.646181
0.623802
0.608461
0.586535
0.559296
0.528905
0.496946
0.464615
0.432773
0.402039
0.648456
0.625884
0.610294
0.588088
0.560579
0.529941
0.49776
0.465234
0.433225
0.402305
0.645716
0.623255
0.607876
0.585881
0.558555
0.528071
0.49602
0.463603
0.431682
0.400878
0.637959
0.615913
0.601203
0.579914
0.553222
0.523293
0.491727
0.459721
0.428147
0.39775
0.625221
0.60389
0.590305
0.570209
0.544601
0.515626
0.484895
0.453603
0.422639
0.392948
0.607577
0.587254
0.57524
0.556818
0.532736
0.505105
0.475557
0.445276
0.415177
0.386488
0.585142
0.566108
0.556096
0.539813
0.517689
0.491787
0.463759
0.434781
0.405796
0.378385
0.558067
0.540589
0.532989
0.519296
0.499545
0.475743
0.449563
0.422173
0.394541
0.368666
0.52654
0.510865
0.506065
0.495389
0.478412
0.457063
0.433047
0.407517
0.381468
0.35737
0.490785
0.47714
0.475498
0.468239
0.454413
0.435856
0.414303
0.390895
0.366645
0.344541
0.451058
0.439646
0.441487
0.438015
0.427695
0.412245
0.393436
0.372397
0.350148
0.330231
0.407649
0.398644
0.404256
0.404909
0.398418
0.386369
0.370563
0.352124
0.332062
0.314499
0.360878
0.354426
0.364055
0.369131
0.366764
0.35838
0.345817
0.330188
0.31248
0.29741
0.311092
0.307306
0.321153
0.330911
0.332928
0.328446
0.319339
0.306711
0.291505
0.279036
0.258663
0.257625
0.275844
0.290494
0.297119
0.296746
0.291282
0.281824
0.269241
0.259448
0.203987
0.205743
0.228436
0.248144
0.25956
0.26347
0.261809
0.255666
0.245801
0.238719
0.147478
0.15204
0.179256
0.204136
0.220486
0.228816
0.231091
0.228388
0.221302
0.216914
0.0895673
0.0969098
0.128646
0.158758
0.180141
0.192993
0.199308
0.200153
0.195869
0.194078
0.0306978
0.0407615
0.076957
0.112308
0.138778
0.156214
0.166641
0.171143
0.169662
0.170232
-0.0286777
-0.0159889
0.0245531
0.0650919
0.0966573
0.118696
0.133268
0.141544
0.142883
0.145313
-0.0881011
-0.0729203
-0.0281964
0.0174197
0.0540421
0.0806657
0.0993577
0.111539
0.115923
0.119345
-0.147113
-0.129611
-0.0809164
-0.030396
0.011199
0.0423583
0.0650835
0.081251
0.0892855
0.092008
-0.205256
-0.185644
-0.133229
-0.0780448
-0.0316101
0.00401144
0.0306197
0.0505677
0.063302
0.0648652
-0.262075
-0.240605
-0.184759
-0.125222
-0.0741298
-0.0341403
-0.00374899
0.0196087
0.0369086
0.0437161
-0.317134
-0.294065
-0.235145
-0.171631
-0.116108
-0.0718806
-0.0377471
-0.0111644
0.0101252
0.0229571
-0.370138
-0.345536
-0.284083
-0.216989
-0.157298
-0.109017
-0.0712059
-0.0414775
-0.0169069
0.0005205
-0.420601
-0.394685
-0.331411
-0.26101
-0.197463
-0.145371
-0.104022
-0.0712328
-0.0438226
-0.0229166
-0.468094
-0.440711
-0.377207
-0.303393
-0.236393
-0.18077
-0.136085
-0.10036
-0.0703311
-0.0464096
-0.51236
-0.483724
-0.420551
-0.343852
-0.2739
-0.215036
-0.167256
-0.128763
-0.0962878
-0.0695897
-0.553167
-0.523631
-0.460425
-0.382556
-0.309786
-0.247994
-0.197393
-0.156333
-0.121605
-0.0923698
-0.590268
-0.560161
-0.497284
-0.41882
-0.343786
-0.27949
-0.226366
-0.182963
-0.146196
-0.114661
-0.623458
-0.593051
-0.531109
-0.452336
-0.375797
-0.30939
-0.254054
-0.208555
-0.169974
-0.136343
-0.652591
-0.622097
-0.561658
-0.483147
-0.405652
-0.337564
-0.280354
-0.233015
-0.192867
-0.157304
-0.677579
-0.647173
-0.588734
-0.511165
-0.433244
-0.363967
-0.305178
-0.256255
-0.214825
-0.177462
-0.698386
-0.668222
-0.612222
-0.536267
-0.458492
-0.388498
-0.328528
-0.278193
-0.235787
-0.19679
-0.715036
-0.685245
-0.63207
-0.558368
-0.48133
-0.411075
-0.350327
-0.298892
-0.255582
-0.215378
-0.72761
-0.698303
-0.648271
-0.57742
-0.501715
-0.431657
-0.370496
-0.318254
-0.273918
-0.233645
-0.736247
-0.707516
-0.660871
-0.593415
-0.519627
-0.450236
-0.389019
-0.336291
-0.2913
-0.251028
-0.741141
-0.713063
-0.669963
-0.606376
-0.535071
-0.466823
-0.405915
-0.353013
-0.307623
-0.267044
-0.742537
-0.715175
-0.675691
-0.616362
-0.548075
-0.481441
-0.421206
-0.368406
-0.322789
-0.281831
-0.740727
-0.714142
-0.678245
-0.623468
-0.55869
-0.494129
-0.434921
-0.382485
-0.336834
-0.295654
-0.736039
-0.710293
-0.67786
-0.627826
-0.56699
-0.504941
-0.447108
-0.395301
-0.349837
-0.308659
-0.728831
-0.703989
-0.674821
-0.629603
-0.573074
-0.513949
-0.457833
-0.406921
-0.361856
-0.320897
-0.719481
-0.695608
-0.669449
-0.629004
-0.577058
-0.521234
-0.46717
-0.417414
-0.372942
-0.332396
-0.708373
-0.685537
-0.662098
-0.626264
-0.579081
-0.526891
-0.475196
-0.426851
-0.383151
-0.343187
-0.695891
-0.674159
-0.65314
-0.621646
-0.579299
-0.531021
-0.481995
-0.435308
-0.39255
-0.353318
-0.682406
-0.66184
-0.642951
-0.615437
-0.577883
-0.53373
-0.487648
-0.442864
-0.401213
-0.362847
-0.668268
-0.648925
-0.6319
-0.607942
-0.575019
-0.53513
-0.49224
-0.449598
-0.40922
-0.371842
-0.653795
-0.635725
-0.62033
-0.599475
-0.57091
-0.535335
-0.495852
-0.455588
-0.416652
-0.380382
-0.63927
-0.622516
-0.608545
-0.590345
-0.565768
-0.534463
-0.498559
-0.460906
-0.423589
-0.388545
-0.624935
-0.609529
-0.596808
-0.58085
-0.559813
-0.532636
-0.500431
-0.465615
-0.430107
-0.396417
-0.610991
-0.596955
-0.585334
-0.571254
-0.553269
-0.52998
-0.501534
-0.46977
-0.436276
-0.404084
-0.597596
-0.584938
-0.57429
-0.561777
-0.546359
-0.526625
-0.501924
-0.473415
-0.442157
-0.411636
-0.584874
-0.573581
-0.563803
-0.552588
-0.539289
-0.52271
-0.50166
-0.47658
-0.447802
-0.419162
-0.572917
-0.562953
-0.553959
-0.54381
-0.53224
-0.518383
-0.500803
-0.479288
-0.453244
-0.426757
-0.561795
-0.553098
-0.544811
-0.535528
-0.525359
-0.513795
-0.499426
-0.481556
-0.458506
-0.434509
-0.551563
-0.544042
-0.53639
-0.527805
-0.518757
-0.509099
-0.497619
-0.483401
-0.463585
-0.442534
-0.542267
-0.535802
-0.528716
-0.520687
-0.512524
-0.504441
-0.4955
-0.484849
-0.468481
-0.450896
-0.533946
-0.528394
-0.521801
-0.514222
-0.506747
-0.499958
-0.49321
-0.485952
-0.473149
-0.459803
-0.526633
-0.521828
-0.515662
-0.508455
-0.501519
-0.495787
-0.490913
-0.486775
-0.477625
-0.469107
-0.52034
-0.516108
-0.510311
-0.503433
-0.496941
-0.492073
-0.48878
-0.487429
-0.481869
-0.47908
-0.515057
-0.511224
-0.505751
-0.499191
-0.49311
-0.488967
-0.486997
-0.488062
-0.485865
-0.488464
-0.510733
-0.507138
-0.501963
-0.495744
-0.490094
-0.486602
-0.48579
-0.488674
-0.490761
-0.490639
-0.507285
-0.503785
-0.498896
-0.493069
-0.487915
-0.485071
-0.485357
-0.489403
-0.49635
-0.494889
-0.50459
-0.501065
-0.496469
-0.491102
-0.486542
-0.484405
-0.485792
-0.49058
-0.50191
-0.500567
-0.50249
-0.498854
-0.494566
-0.489735
-0.48588
-0.484564
-0.487064
-0.492492
-0.507204
-0.506276
-0.500806
-0.497014
-0.493054
-0.488829
-0.485786
-0.485401
-0.489028
-0.495233
-0.512201
-0.512087
-0.499346
-0.495394
-0.491786
-0.488224
-0.486077
-0.486722
-0.491464
-0.498679
-0.516904
-0.518497
-0.497922
-0.493846
-0.490612
-0.487751
-0.48655
-0.488279
-0.494104
-0.502522
-0.521293
-0.52577
-0.496357
-0.492225
-0.489387
-0.487241
-0.486994
-0.489805
-0.496657
-0.506337
-0.525217
-0.532709
-0.494492
-0.490396
-0.487967
-0.486526
-0.487201
-0.491036
-0.498828
-0.509709
-0.528513
-0.539058
-0.492188
-0.488235
-0.486224
-0.485453
-0.486976
-0.491729
-0.50034
-0.512269
-0.530957
-0.544276
-0.489332
-0.485634
-0.484037
-0.48388
-0.486147
-0.491671
-0.50095
-0.513711
-0.53228
-0.547925
-0.485836
-0.482501
-0.481307
-0.481689
-0.484571
-0.490694
-0.500459
-0.513799
-0.532223
-0.549676
-0.481642
-0.478769
-0.477953
-0.478786
-0.48214
-0.488672
-0.498724
-0.512368
-0.530567
-0.549296
-0.476724
-0.474394
-0.473925
-0.475113
-0.478785
-0.485531
-0.495655
-0.509318
-0.52715
-0.546599
-0.471086
-0.46936
-0.4692
-0.470643
-0.474482
-0.481246
-0.491217
-0.504609
-0.521871
-0.54145
-0.464764
-0.463684
-0.463789
-0.465387
-0.469248
-0.475841
-0.485432
-0.498263
-0.51469
-0.533784
-0.457825
-0.457409
-0.457735
-0.459394
-0.463143
-0.46939
-0.478381
-0.490368
-0.505626
-0.523643
-0.450361
-0.450608
-0.451101
-0.452757
-0.456269
-0.462009
-0.470194
-0.48106
-0.494813
-0.511365
-0.442483
-0.443376
-0.444002
-0.44558
-0.448756
-0.453853
-0.461049
-0.470541
-0.482464
-0.496929
-0.434329
-0.43583
-0.436557
-0.438001
-0.440763
-0.445107
-0.451162
-0.459066
-0.468849
-0.480685
-0.480988
-0.499186
-0.504152
-0.472523
-0.408671
-0.342365
-0.310703
-0.323003
-0.339027
-0.315384
-0.252724
-0.181503
-0.139932
-0.116083
-0.114064
-0.136826
-0.143219
-0.123276
-0.10576
-0.0837014
-0.0765557
-0.0631471
-0.0546362
-0.0733536
-0.0825401
-0.0604462
-0.0438281
-0.0482069
-0.0332373
-0.0131293
-0.457597
-0.469958
-0.472607
-0.44329
-0.387552
-0.332753
-0.314599
-0.3384
-0.360393
-0.332974
-0.26456
-0.18789
-0.141178
-0.113977
-0.109165
-0.128976
-0.133203
-0.116514
-0.102672
-0.0830412
-0.0767345
-0.0644325
-0.0564733
-0.0746204
-0.0836013
-0.0608292
-0.0438652
-0.048209
-0.0333621
-0.0131098
-0.433995
-0.439971
-0.439813
-0.412509
-0.364642
-0.321414
-0.316659
-0.352319
-0.37954
-0.348822
-0.275066
-0.193556
-0.142163
-0.111812
-0.104366
-0.121181
-0.123204
-0.109654
-0.0994258
-0.082313
-0.0769039
-0.0658262
-0.0584045
-0.0758664
-0.0846013
-0.0611828
-0.0438708
-0.0482374
-0.0335493
-0.0130902
-0.410887
-0.409922
-0.406617
-0.380848
-0.340444
-0.308645
-0.316888
-0.364257
-0.396122
-0.362778
-0.284233
-0.198517
-0.142932
-0.109636
-0.0997392
-0.113537
-0.113365
-0.10275
-0.0960357
-0.0815154
-0.0770669
-0.0673232
-0.060418
-0.0770846
-0.0855323
-0.0615045
-0.0438447
-0.0482939
-0.0337976
-0.013071
-0.388864
-0.380845
-0.373922
-0.349139
-0.315514
-0.294694
-0.31535
-0.373771
-0.40989
-0.374725
-0.292069
-0.202797
-0.143527
-0.107495
-0.0953432
-0.106134
-0.103819
-0.0958607
-0.0925185
-0.0806475
-0.0772254
-0.0689172
-0.0624999
-0.0782688
-0.0863868
-0.0617922
-0.0437867
-0.0483797
-0.0341048
-0.0130527
-0.368448
-0.353606
-0.342581
-0.318283
-0.290524
-0.279808
-0.312074
-0.38053
-0.420692
-0.384586
-0.2986
-0.206428
-0.143989
-0.105427
-0.0912199
-0.0990586
-0.0946894
-0.089048
-0.0888962
-0.0797088
-0.0773798
-0.0706012
-0.0646351
-0.0794142
-0.0871581
-0.0620436
-0.0436964
-0.0484956
-0.0344687
-0.0130355
-0.350013
-0.328757
-0.313308
-0.289121
-0.26615
-0.264401
-0.307089
-0.384349
-0.428467
-0.392319
-0.303861
-0.209444
-0.14435
-0.103468
-0.0873974
-0.0923826
-0.086081
-0.0823797
-0.0851957
-0.0786991
-0.077529
-0.072367
-0.0668072
-0.0805154
-0.0878401
-0.0622564
-0.0435738
-0.0486417
-0.034886
-0.01302
-0.333772
-0.306811
-0.286622
-0.262345
-0.243124
-0.248839
-0.300494
-0.385188
-0.433231
-0.397927
-0.307901
-0.211887
-0.14464
-0.101643
-0.0838911
-0.0861676
-0.078079
-0.075928
-0.0814489
-0.0776186
-0.0776701
-0.0742059
-0.0689996
-0.0815663
-0.0884273
-0.0624282
-0.0434184
-0.0488176
-0.0353532
-0.0130063
-0.319786
-0.288712
-0.262792
-0.238422
-0.221795
-0.233655
-0.292454
-0.383142
-0.435151
-0.401447
-0.310776
-0.213799
-0.144883
-0.0999769
-0.0807057
-0.0804592
-0.0707449
-0.0697677
-0.0776927
-0.0764683
-0.0777986
-0.0761083
-0.0711955
-0.082561
-0.0889146
-0.0625568
-0.04323
-0.0490222
-0.0358658
-0.0129947
-0.307959
-0.27573
-0.241756
-0.217523
-0.202921
-0.219161
-0.283186
-0.378431
-0.434241
-0.402943
-0.312547
-0.215221
-0.145097
-0.0984858
-0.077838
-0.0752855
-0.0641165
-0.0639758
-0.0739678
-0.0752492
-0.0779084
-0.0780643
-0.0733776
-0.0834932
-0.0892979
-0.0626396
-0.0430083
-0.0492536
-0.0364188
-0.0129852
-0.297973
-0.258679
-0.223307
-0.200043
-0.186458
-0.205563
-0.272949
-0.371372
-0.43079
-0.40251
-0.313279
-0.216197
-0.145296
-0.0971837
-0.0752795
-0.0706567
-0.0582094
-0.0586223
-0.070318
-0.0739633
-0.0779917
-0.0800632
-0.0755289
-0.0843584
-0.0895743
-0.0626743
-0.0427531
-0.0495095
-0.0370062
-0.0129779
-0.290059
-0.244549
-0.209326
-0.184419
-0.172532
-0.193032
-0.262037
-0.362341
-0.425073
-0.400274
-0.313035
-0.216772
-0.145492
-0.0960844
-0.0730195
-0.0665664
-0.0530193
-0.0537711
-0.0667897
-0.0726123
-0.0780392
-0.0820942
-0.077633
-0.0851528
-0.0897413
-0.0626581
-0.0424642
-0.0497868
-0.037621
-0.0129726
-0.284666
-0.234638
-0.197863
-0.171822
-0.160986
-0.181707
-0.250752
-0.351742
-0.417394
-0.396392
-0.311886
-0.216999
-0.145704
-0.0952026
-0.071047
-0.0629931
-0.0485257
-0.0494721
-0.0634276
-0.0711984
-0.0780403
-0.0841459
-0.0796737
-0.0858721
-0.0897973
-0.0625883
-0.0421411
-0.0500818
-0.0382553
-0.012969
-0.280496
-0.227849
-0.188909
-0.161895
-0.151657
-0.171677
-0.239386
-0.33998
-0.408067
-0.391029
-0.309908
-0.21692
-0.145929
-0.0945359
-0.0693417
-0.0598952
-0.04469
-0.0457444
-0.0602721
-0.0697241
-0.0779835
-0.0862071
-0.0816357
-0.0865121
-0.0897423
-0.0624612
-0.0417834
-0.0503886
-0.0389002
-0.0129667
-0.2782
-0.223732
-0.18247
-0.15428
-0.144383
-0.162983
-0.228203
-0.327435
-0.397407
-0.384341
-0.307149
-0.216519
-0.146107
-0.0940373
-0.0678639
-0.05721
-0.0414516
-0.0425846
-0.057359
-0.0681916
-0.0778557
-0.0882662
-0.0835048
-0.0870692
-0.0895786
-0.0622725
-0.0413913
-0.0506988
-0.039546
-0.012965
-0.277314
-0.221867
-0.178792
-0.148767
-0.138984
-0.155625
-0.217417
-0.31443
-0.385735
-0.376509
-0.303639
-0.215752
-0.146173
-0.0936657
-0.0665827
-0.0548875
-0.0387445
-0.0399641
-0.0547129
-0.0666024
-0.0776431
-0.0903114
-0.0852709
-0.0875408
-0.0893079
-0.0620208
-0.0409651
-0.0510083
-0.0401818
-0.0129632
-0.277506
-0.221968
-0.177938
-0.14518
-0.135274
-0.149579
-0.207209
-0.301233
-0.373305
-0.367763
-0.299578
-0.214843
-0.146363
-0.093602
-0.0655815
-0.0529689
-0.0365505
-0.0378681
-0.0523467
-0.0649553
-0.077331
-0.0923297
-0.0869208
-0.0879197
-0.0889196
-0.0617128
-0.0405053
-0.0513296
-0.0407982
-0.0129603
-0.278236
-0.223517
-0.176789
-0.143426
-0.133105
-0.144751
-0.197656
-0.288033
-0.359942
-0.358166
-0.295456
-0.214475
-0.147283
-0.0942726
-0.0650565
-0.051546
-0.0348826
-0.0363758
-0.0503201
-0.0632483
-0.0769031
-0.0943071
-0.0883945
-0.0881976
-0.0883875
-0.0613573
-0.0400097
-0.0516825
-0.041391
-0.0129558
-0.279167
-0.226232
-0.176374
-0.143777
-0.132516
-0.141093
-0.188517
-0.274389
-0.345214
-0.347217
-0.290955
-0.214296
-0.148466
-0.0952772
-0.0647615
-0.0503188
-0.033496
-0.0354525
-0.048752
-0.061511
-0.0763418
-0.0962332
-0.0896167
-0.0883007
-0.0877441
-0.060926
-0.0394738
-0.0520114
-0.0419443
-0.0129507
-0.280845
-0.230339
-0.180964
-0.146261
-0.133341
-0.139579
-0.181311
-0.261475
-0.331325
-0.335041
-0.283127
-0.210299
-0.146256
-0.0939092
-0.0632755
-0.0481996
-0.0316
-0.0342081
-0.0469932
-0.0596395
-0.0756359
-0.0981055
-0.0910619
-0.0885
-0.0872319
-0.0603066
-0.0388968
-0.0520832
-0.0423619
-0.0129341
-0.266364
-0.225757
-0.178077
-0.14504
-0.133809
-0.139362
-0.178688
-0.256727
-0.322644
-0.323384
-0.270804
-0.200591
-0.139219
-0.0889167
-0.0597908
-0.0446403
-0.0285288
-0.0306501
-0.0416845
-0.0550473
-0.0740781
-0.101559
-0.0951211
-0.0898942
-0.0870922
-0.0593595
-0.0381618
-0.051641
-0.0426672
-0.0128473
-0.256317
-0.219607
-0.176657
-0.146715
-0.137204
-0.143016
-0.178371
-0.247292
-0.303728
-0.301611
-0.252115
-0.18757
-0.130869
-0.0840968
-0.0564818
-0.0411668
-0.0263478
-0.0290326
-0.0402562
-0.0526406
-0.073261
-0.103579
-0.0985208
-0.0888268
-0.085583
-0.0577907
-0.0371416
-0.0510976
-0.0439258
-0.01279
-0.245737
-0.213549
-0.17519
-0.148858
-0.141051
-0.147286
-0.178268
-0.23639
-0.282847
-0.27866
-0.233513
-0.174987
-0.122884
-0.0792807
-0.0531341
-0.0379172
-0.0242365
-0.0276749
-0.0395446
-0.0514032
-0.0729948
-0.104598
-0.101232
-0.0875326
-0.0835695
-0.055992
-0.0359743
-0.0504808
-0.0453734
-0.012671
-0.235447
-0.207397
-0.173572
-0.15065
-0.144132
-0.150241
-0.176434
-0.223696
-0.260818
-0.255309
-0.214835
-0.162359
-0.114829
-0.0743728
-0.0497585
-0.0348
-0.022099
-0.0263131
-0.0384337
-0.0498775
-0.0725127
-0.105366
-0.103693
-0.0860034
-0.0810267
-0.0538746
-0.0346253
-0.0497822
-0.0467414
-0.0124702
-0.224361
-0.200573
-0.171205
-0.151401
-0.145772
-0.151266
-0.1726
-0.209591
-0.238329
-0.232171
-0.196545
-0.149974
-0.106863
-0.0694035
-0.0463386
-0.0317508
-0.0198557
-0.0248731
-0.0369741
-0.0477763
-0.0715492
-0.105924
-0.105692
-0.084073
-0.0778705
-0.0514036
-0.0330702
-0.0489593
-0.0480023
-0.0121972
-0.21212
-0.192862
-0.167768
-0.150723
-0.145686
-0.150247
-0.167084
-0.194872
-0.216383
-0.210022
-0.179042
-0.137967
-0.0990225
-0.0643983
-0.042861
-0.0287131
-0.0174331
-0.023232
-0.0351809
-0.0451644
-0.0700245
-0.105901
-0.106945
-0.081645
-0.074057
-0.0485361
-0.0312791
-0.047966
-0.0491373
-0.0118462
-0.199139
-0.184292
-0.163202
-0.148573
-0.143938
-0.14738
-0.158945
-0.180248
-0.195771
-0.189373
-0.162568
-0.126446
-0.0913655
-0.0593907
-0.0393143
-0.025627
-0.0147538
-0.0212424
-0.032931
-0.0420154
-0.0677245
-0.104934
-0.107206
-0.0786558
-0.0695551
-0.0452305
-0.0292188
-0.0467433
-0.0500822
-0.011396
-0.185817
-0.174979
-0.157592
-0.145095
-0.14076
-0.143147
-0.151427
-0.166322
-0.17692
-0.170465
-0.147244
-0.115482
-0.0839271
-0.0544079
-0.0356882
-0.0224326
-0.0117393
-0.0187244
-0.030006
-0.0381382
-0.0642928
-0.102759
-0.1062
-0.07504
-0.0643509
-0.0414476
-0.0268526
-0.0452144
-0.0507387
-0.0108213
-0.172431
-0.165089
-0.151068
-0.140479
-0.136408
-0.13785
-0.143428
-0.153322
-0.159923
-0.153331
-0.133096
-0.105111
-0.076733
-0.0494753
-0.0319768
-0.0190734
-0.00831591
-0.0154482
-0.0260858
-0.0332151
-0.0593514
-0.0991349
-0.103664
-0.0707357
-0.058455
-0.0371546
-0.0241409
-0.0432813
-0.050985
-0.0100974
-0.15922
-0.154803
-0.143781
-0.134921
-0.131116
-0.131747
-0.135193
-0.141265
-0.144674
-0.137884
-0.120093
-0.0953464
-0.0698019
-0.044616
-0.0281819
-0.0155036
-0.00442079
-0.0111387
-0.0207388
-0.0268451
-0.0525691
-0.0938181
-0.0993594
-0.065696
-0.0519078
-0.0323301
-0.0210423
-0.0408239
-0.0506789
-0.00920112
-0.146344
-0.144288
-0.135883
-0.128595
-0.125086
-0.125055
-0.126863
-0.130063
-0.130983
-0.123981
-0.108171
-0.0861891
-0.0631489
-0.0398529
-0.0243147
-0.0116979
-1.60232e-05
-0.00551336
-0.0134635
-0.0185801
-0.0437065
-0.0866248
-0.093128
-0.0598982
-0.0447841
-0.0269701
-0.0175155
-0.0377024
-0.0496575
-0.00811189
-0.133891
-0.133692
-0.127527
-0.121662
-0.118488
-0.117955
-0.118524
-0.11961
-0.118643
-0.111461
-0.0972551
-0.0776289
-0.0567868
-0.0352104
-0.0203956
-0.00766393
0.00488746
0.00164953
-0.00378018
-0.0079985
-0.0327244
-0.0775015
-0.0849206
-0.0533516
-0.0371942
-0.0210956
-0.0135235
-0.0337633
-0.0477397
-0.0068152
-0.121927
-0.123148
-0.118864
-0.11427
-0.111469
-0.110575
-0.11024
-0.109808
-0.107461
-0.100166
-0.0872673
-0.0696502
-0.0507269
-0.0307148
-0.0164548
-0.00344773
0.0101953
0.0103842
0.0085869
0.00512084
-0.0199441
-0.0665733
-0.0748296
-0.0461071
-0.0292804
-0.0147598
-0.00903968
-0.028851
-0.0447346
-0.00530766
-0.110503
-0.112774
-0.11004
-0.106566
-0.104162
-0.103039
-0.102067
-0.100582
-0.0972737
-0.0899538
-0.078132
-0.0622343
-0.0449807
-0.0263911
-0.0125351
0.000861552
0.0157077
0.02032
0.02328
0.0204221
-0.00617583
-0.0541372
-0.0630961
-0.038265
-0.0212068
-0.00805484
-0.00405521
-0.0228274
-0.0404572
-0.00360323
-0.0996553
-0.10267
-0.101193
-0.0986886
-0.0966913
-0.0954541
-0.0940578
-0.0918804
-0.0879455
-0.0806953
-0.0697787
-0.0553605
-0.039561
-0.0222609
-0.00869351
0.00511953
0.0211325
0.0305317
0.0385947
0.0364153
0.00736486
-0.0405685
-0.0500937
-0.0299773
-0.0131436
-0.00111225
0.0014135
-0.0156017
-0.0347541
-0.00173965
-0.0894134
-0.0929228
-0.0924447
-0.0907687
-0.0891738
-0.0879163
-0.0862651
-0.0836668
-0.0793699
-0.0722794
-0.0621438
-0.0490064
-0.0344801
-0.0183467
-0.00499944
0.00913627
0.0261095
0.0397008
0.0518404
0.0505743
0.0195484
-0.0262578
-0.0363529
-0.0214417
-0.00526819
0.00590315
0.00731139
-0.00716806
-0.0275445
0.000216902
-0.0797995
-0.083603
-0.0839042
-0.0829247
-0.0817142
-0.0805101
-0.078736
-0.0759208
-0.0714643
-0.0646114
-0.0551704
-0.0431498
-0.0297477
-0.0146767
-0.00153734
0.0127273
0.0302693
0.0466804
0.0609541
0.0607374
0.0298185
-0.0118104
-0.0226076
-0.0128992
0.00224187
0.0128013
0.0135229
0.00234364
-0.0188755
0.00217383
-0.0708277
-0.074769
-0.0756637
-0.0752605
-0.0744067
-0.0733103
-0.071514
-0.0686314
-0.0641666
-0.057613
-0.0488082
-0.0377698
-0.0253715
-0.0112845
0.00159773
0.0157498
0.0333355
0.050885
0.065293
0.0662407
0.0380226
0.00176553
-0.00969997
-0.00460886
0.00922488
0.0193756
0.0198452
0.0126147
-0.00899101
0.00402713
-0.062506
-0.0664662
-0.0678004
-0.0678664
-0.0673362
-0.0663827
-0.0646382
-0.0617947
-0.0574316
-0.0512215
-0.0430132
-0.0328483
-0.021358
-0.00820283
0.00432436
0.0181284
0.0351913
0.0524968
0.0659139
0.0677995
0.0440443
0.0134455
0.00169592
0.00319775
0.0155506
0.0254137
0.025993
0.0230851
0.0016013
0.00568962
-0.0548373
-0.058729
-0.0603781
-0.0608203
-0.0605764
-0.0597843
-0.0581435
-0.0554125
-0.0512277
-0.0453885
-0.0377478
-0.0283703
-0.0177123
-0.00545616
0.00659979
0.0198627
0.0359042
0.0521601
0.0641748
0.0666075
0.0478576
0.0226693
0.0112478
0.0103516
0.021136
0.0307203
0.0316381
0.0329294
0.0121444
0.00710665
-0.0478206
-0.051583
-0.0534474
-0.0541863
-0.0541913
-0.0535666
-0.0520623
-0.0494905
-0.0455338
-0.0400787
-0.0329809
-0.0243228
-0.0144368
-0.00305367
0.00842296
0.0210072
0.0356951
0.0502124
0.0611121
0.0637952
0.0497714
0.029485
0.0189549
0.0167383
0.025958
0.0351546
0.0364675
0.0411804
0.0217831
0.0082413
-0.041453
-0.0450472
-0.0470489
-0.0480173
-0.0482356
-0.047775
-0.0464246
-0.0440381
-0.040338
-0.0352674
-0.0286883
-0.0206932
-0.0115292
-0.00098871
0.00982839
0.0216473
0.0348768
0.0478471
0.0574861
0.0602453
0.0502758
0.0342765
0.0250072
0.022283
0.0300299
0.0386527
0.0402664
0.0470222
0.0296917
0.00919991
-0.0357311
-0.0391357
-0.0412161
-0.0423588
-0.0427561
-0.0424493
-0.0412585
-0.0390679
-0.0356357
-0.0309397
-0.0248522
-0.0174691
-0.00898093
0.000756796
0.010872
0.0218786
0.0337012
0.045255
0.0537721
0.0565435
0.0498266
0.0375005
0.0296626
0.0269575
0.0333786
0.0412165
0.0429268
0.0501251
0.035294
0.0102
-0.0306528
-0.0338613
-0.0359769
-0.0372489
-0.0377944
-0.0376273
-0.0365924
-0.0345959
-0.0314288
-0.0270883
-0.0214603
-0.0146393
-0.00677793
0.00220774
0.0116182
0.021804
0.0323661
0.0426485
0.0502417
0.0530347
0.0487983
0.0395686
0.0331719
0.0307802
0.0360455
0.0429202
0.0444773
0.0507971