/*--------------------------------*- C++ -*----------------------------------*\
  =========                 |
  \\      /  F ield         | OpenFOAM: The Open Source CFD Toolbox
   \\    /   O peration     | Website:  https://openfoam.org
    \\  /    A nd           | Version:  7
     \\/     M anipulation  |
\*---------------------------------------------------------------------------*/
FoamFile
{
    version     2.0;
    format      ascii;
    class       surfaceScalarField;
    location    "320";
    object      phi;
}
// * * * * * * * * * * * * * * * * * * * * * * * * * * * * * * * * * * * * * //

dimensions      [0 3 -1 0 0 0 0];

internalField   nonuniform List<scalar> 
4148
(
0.0873381
0.0229946
0.0231029
0.0784365
0.0858998
0.0245412
0.0220465
0.0668945
0.02432
0.076163
0.0841793
0.0260405
0.0149449
0.0381523
0.0191887
0.0514131
0.0226945
0.0633886
0.0254094
0.0734481
0.0821194
0.0274692
0.00967306
0.0210004
0.0143978
0.0334275
0.0190675
0.0467434
0.0231066
0.0593494
0.0263269
0.0702278
0.0796509
0.0287954
0.00496324
0.0084317
0.00882638
0.0171373
0.0136168
0.0286372
0.0186501
0.04171
0.023233
0.0547666
0.0270188
0.0664421
0.0766905
0.0299792
0.00195727
0.00150296
0.00429502
0.00609396
0.00789177
0.0135405
0.0126227
0.0239062
0.0179203
0.0364124
0.0230255
0.0496614
0.0274241
0.0620434
0.0731496
0.030965
0.00159869
0.000418528
0.00363834
0.00405431
0.00690964
0.0102692
0.0114548
0.0193611
0.0168814
0.0309857
0.0224443
0.0440985
0.0274768
0.0570109
0.0689303
0.0316961
0.000375533
-0.00144748
0.00126671
-0.000472645
0.00301304
0.00230797
0.00592265
0.00735963
0.0101692
0.0151146
0.0155632
0.0255917
0.0214701
0.0381916
0.0271103
0.0513707
0.0639495
0.0320911
9.26801e-06
-0.00097577
0.000253182
-0.00169139
0.000969654
-0.00118912
0.00243855
0.000839074
0.00497336
0.00482482
0.00883464
0.0112533
0.0140261
0.0204002
0.0201114
0.0321063
0.0262828
0.0451994
0.0581448
0.0320875
-1.6046e-05
-0.000959724
0.000151107
-0.00185855
0.000716554
-0.00175456
0.001934
-0.00037837
0.00410262
0.0026562
0.00752585
0.00783006
0.0123589
0.0155672
0.0184293
0.0260359
0.0249345
0.0386942
0.0513719
0.0317074
-3.3687e-05
-0.000926037
7.35932e-05
-0.00196583
0.000516086
-0.00219706
0.00151713
-0.00137942
0.00334763
0.000825697
0.00631645
0.00486124
0.0106742
0.0112094
0.0165193
0.0201908
0.023125
0.0320885
0.0438004
0.0306965
-4.35691e-05
-0.000882468
2.38064e-05
-0.0020332
0.000374857
-0.00254811
0.00120181
-0.00220637
0.00273871
-0.0007112
0.0052722
0.00232775
0.00909772
0.00738387
0.0144902
0.0147983
0.0211533
0.0254254
0.03791
0.0270437
-4.52663e-05
-0.000837202
3.19989e-06
-0.00208167
0.000295452
-0.00284036
0.000994859
-0.00290578
0.0022948
-0.00201114
0.00444275
0.000179792
0.00773668
0.00408994
0.0125015
0.0100335
0.0189128
0.0190141
0.0316907
0.0251321
-3.91351e-05
-0.000798067
8.6129e-06
-0.00212942
0.00027498
-0.00310673
0.000893502
-0.0035243
0.00201887
-0.00313651
0.00385266
-0.001654
0.00666448
0.00127812
0.0107544
0.00594356
0.0166248
0.0131437
0.0252906
0.0230249
-2.61684e-05
-0.000771898
3.76268e-05
-0.00219321
0.000305356
-0.00337446
0.000884566
-0.00410351
0.00189549
-0.00414744
0.00349481
-0.00325332
0.00590639
-0.00113346
0.00937813
0.00247183
0.0145071
0.00801478
0.0190162
0.0207815
-8.11918e-06
-0.000763779
8.45839e-05
-0.00228591
0.000373903
-0.00366377
0.000946032
-0.00467564
0.00189248
-0.00509389
0.00333116
-0.004692
0.0054361
-0.00323839
0.0084035
-0.000495574
0.0127428
0.00367552
0.0131402
0.0186188
1.30687e-05
-0.000776848
0.000141955
-0.0024148
0.000465195
-0.00398701
0.00105057
-0.00526101
0.00196689
-0.00601021
0.00330201
-0.00602711
0.00518679
-0.00512317
0.00777698
-0.00308576
0.0114182
3.42483e-05
0.00782395
0.0167345
3.49051e-05
-0.000811753
0.000202249
-0.00258214
0.000563369
-0.00434813
0.00116983
-0.00586747
0.00207293
-0.00691331
0.00333932
-0.0072935
0.00506878
-0.00685263
0.00739034
-0.00540732
0.0105007
-0.00307612
0.00309475
0.0152299
5.55558e-05
-0.000867309
0.000258699
-0.00278529
0.000653992
-0.00474343
0.00127815
-0.00649163
0.00216896
-0.00780412
0.00337946
-0.00850401
0.00499095
-0.00846412
0.00711779
-0.00753416
0.00986596
-0.00582429
-0.00111138
0.0140721
7.33819e-05
-0.000940691
0.000305723
-0.00301763
0.000725227
-0.00516293
0.0013549
-0.00712131
0.002222
-0.00867122
0.00337173
-0.00965374
0.00487699
-0.00996938
0.00684668
-0.00950385
0.00935394
-0.00833155
-0.00488606
0.0131286
8.71566e-05
-0.00102785
0.000339073
-0.00326954
0.000768296
-0.00559215
0.00138534
-0.00773836
0.00220937
-0.00949524
0.00328178
-0.0107262
0.00467382
-0.0113614
0.00649476
-0.0113248
0.00882055
-0.0106573
-0.00830532
0.0122398
9.60218e-05
-0.00112387
0.000355816
-0.00352934
0.000777442
-0.00601378
0.00136048
-0.0083214
0.00211819
-0.0102529
0.00309094
-0.0116989
0.00435201
-0.0126225
0.00601361
-0.0129864
0.00816837
-0.0128121
-0.0114107
0.0112737
9.94295e-05
-0.0012233
0.000354206
-0.00378412
0.000749645
-0.00640922
0.0012764
-0.00884815
0.00194397
-0.0109205
0.00279347
-0.0125484
0.00390159
-0.0137306
0.00538339
-0.0144682
0.0073479
-0.0147766
-0.0142111
0.0101483
9.70916e-05
-0.00132039
0.000333543
-0.00402057
0.000684265
-0.00675994
0.00113342
-0.00929731
0.0016888
-0.0114759
0.00239325
-0.0132528
0.00332653
-0.0146639
0.00460454
-0.0157462
0.00634607
-0.0165181
-0.0166917
0.0088267
8.89504e-05
-0.00140934
0.000294053
-0.00422567
0.000582706
-0.00704859
0.000935298
-0.0096499
0.00135975
-0.0119004
0.00190093
-0.013794
0.00264009
-0.015403
0.00369075
-0.0167969
0.00517324
-0.0180006
-0.0188238
0.00730528
7.51685e-05
-0.00148451
0.000236807
-0.00438731
0.000448109
-0.00725989
0.000688498
-0.00989029
0.000967533
-0.0121794
0.00133176
-0.0141583
0.00186157
-0.0159329
0.00266425
-0.0175995
0.00385436
-0.0191907
-0.0205735
0.00560405
5.61309e-05
-0.00154064
0.00016364
-0.00449482
0.000285076
-0.00738133
0.000401574
-0.0100068
0.000525426
-0.0123032
0.000704012
-0.0143368
0.00101419
-0.016243
0.00155332
-0.0181387
0.00242421
-0.0200616
-0.0219103
0.00376107
3.24498e-05
-0.00157309
7.70532e-05
-0.00453942
9.94031e-05
-0.00740368
8.46006e-05
-0.00999199
4.83669e-05
-0.012267
3.78846e-05
-0.0143264
0.000123838
-0.016329
0.000390687
-0.0184055
0.000926544
-0.0205975
-0.0228111
0.0018273
5.04487e-06
-0.00157813
-1.95812e-05
-0.00451479
-0.000102329
-0.00732093
-0.000251591
-0.00984273
-0.000447994
-0.0120706
-0.00064589
-0.0141285
-0.000782552
-0.0161923
-0.000788061
-0.0184
-0.000593524
-0.020792
-0.0232505
-0.000154061
-2.53843e-05
-0.00155275
-0.000123354
-0.00441683
-0.000313062
-0.00713122
-0.000595508
-0.00956028
-0.000947594
-0.0117185
-0.00132594
-0.0137501
-0.00167701
-0.0158413
-0.00194715
-0.0181299
-0.00208999
-0.0206492
-0.0232914
-0.00204916
-5.73053e-05
-0.000229854
-0.000525212
-0.000935798
-0.00143491
-0.00198197
-0.00253283
-0.00304936
-0.00350265
-0.00386276
0.20614
-0.00104435
0.207275
-0.0011344
0.208497
-0.00122282
0.209807
-0.00130946
0.211201
-0.00139418
0.212678
-0.00147681
0.214235
-0.00155723
0.21587
-0.00163528
0.217581
-0.00171083
0.219365
-0.00178375
-0.00185423
0.221219
0.196766
-0.00204517
0.197852
-0.00222102
0.199023
-0.0023937
0.200277
-0.00256292
0.201611
-0.0027284
0.203024
-0.00288984
0.204514
-0.00304697
0.206078
-0.00319953
0.207714
-0.00334724
0.20942
-0.00348984
-0.00362769
0.211194
0.188015
-0.00300838
0.18906
-0.00326618
0.190186
-0.00351936
0.19139
-0.00376752
0.192672
-0.00401021
0.194029
-0.00424703
0.19546
-0.00447758
0.196962
-0.00470146
0.198533
-0.00491828
0.200171
-0.00512767
-0.00533026
0.201873
0.179824
-0.00393946
0.180834
-0.00427568
0.18192
-0.00460593
0.183082
-0.00492966
0.184319
-0.00524632
0.185627
-0.00555537
0.187006
-0.00585631
0.188453
-0.00614861
0.189966
-0.00643176
0.191544
-0.00670528
-0.00697017
0.193184
0.172138
-0.00484306
0.173116
-0.00525446
0.174169
-0.00565862
0.175294
-0.00605485
0.176491
-0.00644251
0.177756
-0.00682093
0.179089
-0.00718949
0.180488
-0.00754758
0.181951
-0.00789456
0.183476
-0.0082298
-0.00855491
0.18506
0.164908
-0.00572341
0.16586
-0.00620701
0.166884
-0.00668217
0.167977
-0.0071481
0.169139
-0.00760404
0.170367
-0.00804922
0.17166
-0.00848293
0.173017
-0.00890443
0.174436
-0.00931297
0.175914
-0.00970779
-0.0100913
0.17745
0.158094
-0.00658432
0.159025
-0.00713737
0.160023
-0.00768087
0.161089
-0.00821393
0.162221
-0.00873569
0.163417
-0.00924529
0.164676
-0.00974189
0.165996
-0.0102247
0.167376
-0.0106928
0.168813
-0.0111453
-0.0115857
0.170308
0.151661
-0.00742925
0.152573
-0.00804921
0.153551
-0.00865861
0.154593
-0.00925647
0.1557
-0.00984181
0.156868
-0.0104137
0.158097
-0.0109712
0.159386
-0.0115134
0.160733
-0.0120394
0.162135
-0.0125479
-0.0130441
0.163594
0.145578
-0.00826136
0.146475
-0.00894591
0.147435
-0.00961898
0.148458
-0.0102795
0.149543
-0.0109264
0.150688
-0.0115587
0.151892
-0.0121753
0.153154
-0.0127753
0.154472
-0.0133575
0.155845
-0.0139206
-0.0144718
0.157272
0.139817
-0.00908353
0.140702
-0.00983053
0.141648
-0.0105652
0.142655
-0.0112865
0.143722
-0.0119931
0.144847
-0.0126841
0.14603
-0.0133583
0.14727
-0.0140146
0.148564
-0.0146519
0.149912
-0.0152684
-0.0158741
0.151314
0.134354
-0.00989836
0.135229
-0.0107059
0.136164
-0.0115003
0.137158
-0.0122806
0.13821
-0.0130454
0.13932
-0.0137936
0.140486
-0.014524
0.141706
-0.0152355
0.142981
-0.0159267
0.144309
-0.0165957
-0.0172557
0.14569
0.128356
-0.00982969
0.129165
-0.0107082
0.130034
-0.0115743
0.13096
-0.0124269
0.131944
-0.0132646
0.132985
-0.0140861
0.134082
-0.0148903
0.135234
-0.0156758
0.136439
-0.0164414
0.137699
-0.0171858
0.139009
-0.0179065
-0.0186211
0.140375
0.123425
-0.010579
0.124232
-0.0115149
0.125096
-0.0124381
0.126016
-0.0133473
0.126993
-0.014241
0.128024
-0.015118
0.129111
-0.0159769
0.130252
-0.0168165
0.131446
-0.0176355
0.132693
-0.0184325
0.133991
-0.0192044
-0.0199739
0.135343
0.11873
-0.0113286
0.119536
-0.0123203
0.120397
-0.013299
0.121313
-0.0142633
0.122284
-0.0152118
0.123309
-0.0161431
0.124388
-0.0170559
0.12552
-0.0179488
0.126705
-0.0188205
0.127942
-0.0196696
0.12923
-0.0204923
-0.0213176
0.130574
0.114254
-0.0120797
0.11506
-0.0131257
0.115919
-0.0141585
0.116832
-0.0151766
0.117799
-0.0161787
0.118819
-0.0171633
0.119893
-0.0181291
0.121019
-0.0190748
0.122197
-0.0199987
0.123427
-0.0208996
0.124707
-0.0217728
-0.0226549
0.126044
0.109982
-0.0128331
0.110789
-0.0139319
0.111648
-0.0150174
0.112559
-0.0160882
0.113523
-0.0171429
0.11454
-0.0181799
0.115609
-0.019198
0.11673
-0.0201958
0.117903
-0.0211715
0.119127
-0.0221241
0.120402
-0.0230478
-0.0239879
0.121735
0.1059
-0.0135895
0.106708
-0.0147396
0.107567
-0.0158766
0.108478
-0.0169989
0.10944
-0.018105
0.110454
-0.0191937
0.111519
-0.0202633
0.112636
-0.0213128
0.113805
-0.02234
0.115025
-0.0233444
0.116296
-0.0243185
-0.025318
0.117626
0.101996
-0.0143488
0.102806
-0.0155488
0.103665
-0.0167359
0.104575
-0.0179086
0.105535
-0.0190654
0.106546
-0.0202049
0.107609
-0.0213256
0.108722
-0.0224263
0.109887
-0.0235048
0.111104
-0.0245611
0.112371
-0.0255857
-0.0266463
0.113699
0.0982587
-0.0151108
0.0990692
-0.0163593
0.0999286
-0.0175953
0.100837
-0.0188172
0.101795
-0.0200237
0.102804
-0.0212132
0.103863
-0.0223844
0.104973
-0.0235363
0.106134
-0.0246662
0.107348
-0.0257746
0.108612
-0.02685
-0.0279733
0.109939
0.0946767
-0.0158748
0.0954878
-0.0171704
0.0963466
-0.0184542
0.0972536
-0.0197242
0.0982095
-0.0209796
0.0992145
-0.0222182
0.10027
-0.0234395
0.101375
-0.024642
0.102533
-0.0258236
0.103743
-0.0269847
0.105005
-0.0281119
-0.029299
0.10633
0.0912414
-0.0166397
0.0920519
-0.0179809
0.0929089
-0.0193112
0.093813
-0.0206283
0.0947657
-0.0219322
0.0957671
-0.0232195
0.0968191
-0.0244915
0.0979206
-0.0257435
0.0990746
-0.0269776
0.10028
-0.0281898
0.101538
-0.0293704
-0.0306204
0.10286
0.0879459
-0.0174047
0.088755
-0.01879
0.0896094
-0.0201656
0.0905093
-0.0215283
0.0914571
-0.02288
0.0924523
-0.0242148
0.0934995
-0.0255386
0.0945955
-0.0268396
0.0957467
-0.0281288
0.0969446
-0.0293877
0.0981973
-0.0306231
-0.0319266
0.0995035
0.0847831
-0.0181685
0.0855899
-0.0195968
0.0864415
-0.0210171
0.0873378
-0.0224246
0.0882814
-0.0238237
0.0892698
-0.0252032
0.0903091
-0.026578
0.0913918
-0.0279223
0.0925321
-0.0292691
0.0937096
-0.0305652
0.0949453
-0.0318588
-0.0331896
0.0962083
0.08175
-0.0189296
0.0825525
-0.0203994
0.0833984
-0.021863
0.0842883
-0.0233145
0.0852254
-0.0247607
0.0862055
-0.0261833
0.0872353
-0.0276078
0.0882975
-0.0289845
0.0894125
-0.030384
0.0905381
-0.0316908
0.0917221
-0.0330428
-0.0343509
0.0928834
0.0788464
-0.0196867
0.0796424
-0.0211954
0.0804779
-0.0226985
0.0813532
-0.0241897
0.0822695
-0.025677
0.0832237
-0.0271375
0.0842221
-0.0286062
0.0852426
-0.030005
0.0863073
-0.0314487
0.0873395
-0.032723
0.0884141
-0.0341175
-0.0353081
0.0893713
0.0760653
-0.0204357
0.0768493
-0.0219794
0.077667
-0.0235163
0.0785175
-0.0250402
0.0793962
-0.0265557
0.0802982
-0.0280395
0.0812195
-0.0295275
0.08214
-0.0309255
0.0830761
-0.0323848
0.083934
-0.0335809
0.0848031
-0.0349865
-0.0359054
0.0854004
0.0733845
-0.0211632
0.0741396
-0.0227344
0.0749197
-0.0242964
0.075723
-0.0258434
0.0765397
-0.0273725
0.077363
-0.0288628
0.0781676
-0.030332
0.078932
-0.0316899
0.0796274
-0.0330801
0.080173
-0.0341265
0.0806387
-0.0354522
-0.0359314
0.0806647
0.0707709
-0.0218481
0.0714699
-0.0234334
0.072178
-0.0250046
0.0728892
-0.0265546
0.073589
-0.0280722
0.0742658
-0.0295396
0.0748788
-0.0309451
0.075408
-0.0322191
0.0757546
-0.0334268
0.0758645
-0.0342364
0.0756631
-0.0352508
-0.0351433
0.0748749
0.0681778
-0.0224667
0.0687913
-0.0240468
0.0693883
-0.0256016
0.069952
-0.0271182
0.0704564
-0.0285766
0.07087
-0.0299532
0.0711363
-0.0312114
0.0712205
-0.0323033
0.0709916
-0.0331979
0.0704582
-0.0337029
0.0693262
-0.0341189
-0.0333726
0.0675555
0.0655715
0.0660659
0.0665048
0.0668558
0.0670746
0.0671005
0.0668542
0.066247
0.0651402
0.0635248
0.0611134
0.0584373
0.221259
-3.96182e-05
0.221174
8.52995e-05
0.220969
0.00020421
0.220624
0.000345612
0.220163
0.000460945
0.219576
0.000587121
0.21891
0.000665944
0.218181
0.000728956
0.217455
0.000726017
0.216803
0.000651491
0.216267
0.000536622
0.216022
0.000244674
0.215927
9.51131e-05
0.216347
-0.000420311
0.216668
-0.000320341
0.217493
-0.000825789
0.217579
-8.55e-05
0.217438
0.000140545
0.216339
0.00109968
0.213658
0.00268074
0.211189
0.00246897
0.206685
0.00450392
0.203382
0.00330297
0.200235
0.00314744
0.202759
-0.00252467
0.209636
-0.00687666
0.214875
-0.00523899
0.222755
-0.00787976
0.223241
-0.000486042
0.00292498
0.211226
-7.18897e-05
0.211134
0.000177736
0.210922
0.00041638
0.210568
0.000699561
0.210097
0.000931965
0.209498
0.00118536
0.208819
0.00134484
0.208076
0.00147231
0.207337
0.00146489
0.206672
0.00131675
0.206131
0.00107723
0.205885
0.000490591
0.205812
0.000168631
0.206267
-0.000875062
0.206655
-0.000708493
0.207568
-0.00173917
0.207738
-0.000254868
0.207672
0.000206481
0.206623
0.00214786
0.203969
0.00533494
0.201526
0.00491242
0.197049
0.00898022
0.193583
0.00676898
0.190241
0.00649036
0.192808
-0.00509227
0.199895
-0.0139637
0.205128
-0.0104722
0.212973
-0.015724
0.213401
-0.000914791
0.00601293
0.201896
-9.44604e-05
0.201789
0.000285127
0.201554
0.000650568
0.201172
0.00108154
0.200665
0.00143965
0.200024
0.00182604
0.199295
0.00207431
0.198498
0.00226927
0.197705
0.00225789
0.19699
0.00203144
0.196417
0.00165001
0.196161
0.000747106
0.196119
0.00021047
0.196653
-0.00140947
0.197178
-0.00123375
0.198285
-0.0028453
0.198613
-0.000583202
0.198669
0.000150419
0.197672
0.00314489
0.194959
0.00804798
0.192468
0.00740349
0.18789
0.0135581
0.184002
0.0106568
0.180178
0.0103141
0.182885
-0.0077988
0.190634
-0.0217124
0.196059
-0.0158978
0.204104
-0.0237687
0.204477
-0.00128808
0.00948087
0.193194
-0.000105135
0.193066
0.000413562
0.192799
0.000917629
0.192373
0.00150709
0.191808
0.00200513
0.191099
0.00253453
0.190288
0.00288531
0.189405
0.00315275
0.188522
0.00314035
0.187728
0.00282631
0.187095
0.00228244
0.186818
0.00102381
0.18681
0.000218444
0.18746
-0.00205913
0.188187
-0.00196102
0.189577
-0.00423529
0.19014
-0.00114577
0.190348
-5.77509e-05
0.189411
0.00408196
0.186561
0.0108985
0.183976
0.00998833
0.179209
0.018325
0.174667
0.0151989
0.17009
0.0148909
0.17295
-0.0106589
0.181784
-0.0305468
0.187592
-0.0217056
0.196003
-0.0321792
0.196341
-0.00162657
0.0134809
0.185058
-0.000103099
0.184905
0.000567129
0.184597
0.00122574
0.184115
0.00198842
0.183475
0.00264566
0.182677
0.00333221
0.181758
0.00380411
0.18076
0.00415128
0.179756
0.00414424
0.178852
0.00372971
0.178132
0.00300251
0.177824
0.00133245
0.177846
0.000196058
0.178638
-0.00285067
0.179633
-0.00295656
0.181391
-0.00599318
0.182267
-0.00202151
0.182647
-0.000437685
0.181779
0.00494947
0.178719
0.0139589
0.176012
0.0126947
0.171014
0.0233236
0.165618
0.0205951
0.160011
0.0204973
0.16287
-0.0135173
0.173172
-0.040849
0.179593
-0.0281271
0.188487
-0.041073
0.188859
-0.00199899
0.018082
0.177435
-8.85758e-05
0.177254
0.000748387
0.176899
0.00158106
0.176352
0.00253536
0.175622
0.00337537
0.174717
0.00423726
0.173668
0.0048536
0.172528
0.00529091
0.171374
0.00529857
0.170335
0.00476893
0.169497
0.00383972
0.169144
0.00168599
0.169183
0.000157072
0.170136
-0.00380397
0.17147
-0.00429072
0.173684
-0.00820722
0.174953
-0.00329006
0.175513
-0.000997902
0.174721
0.00574116
0.171389
0.0172908
0.168542
0.015542
0.163314
0.0285513
0.156929
0.0269803
0.14998
0.0274467
0.152377
-0.0159148
0.164358
-0.0528298
0.171731
-0.0355
0.181312
-0.0506542
0.18187
-0.0025571
0.0232558
0.170282
-6.23925e-05
0.170071
0.000958587
0.169664
0.00198807
0.169044
0.00315556
0.168214
0.00420574
0.167185
0.00526562
0.165986
0.00605343
0.164681
0.00659587
0.16335
0.00662958
0.162147
0.00597188
0.161163
0.0048231
0.160746
0.00210286
0.160781
0.000122658
0.161906
-0.0049292
0.163657
-0.00604185
0.166421
-0.0109708
0.168166
-0.00503493
0.168907
-0.00173973
0.168185
0.00646339
0.164538
0.0209382
0.161519
0.0185607
0.156116
0.0339547
0.148731
0.0343648
0.140077
0.0361004
0.141112
-0.0169493
0.154557
-0.0662745
0.163351
-0.0442942
0.174083
-0.0613863
0.175152
-0.00362595
0.028856
0.163558
-2.69648e-05
0.163318
0.00119838
0.162857
0.00244945
0.162158
0.00385472
0.161218
0.00514602
0.160052
0.00643107
0.158685
0.00742061
0.157192
0.00808882
0.155661
0.00816046
0.154266
0.00736717
0.153108
0.00598094
0.152603
0.00260759
0.152603
0.000122985
0.153901
-0.00622732
0.156151
-0.00829186
0.159576
-0.0143961
0.16188
-0.00733891
0.162792
-0.00265135
0.162122
0.0071331
0.158133
0.0249274
0.154885
0.0218092
0.149405
0.0394343
0.141174
0.0425956
0.130493
0.0467817
0.128961
-0.0154176
0.143029
-0.080342
0.153656
-0.0549209
0.166273
-0.0740036
0.1684
-0.00575308
0.0345931
0.157232
1.36689e-05
0.156963
0.00146718
0.156445
0.002967
0.155663
0.00463682
0.154606
0.00620323
0.153292
0.00774514
0.151743
0.0089699
0.150041
0.00979013
0.14829
0.00991155
0.146673
0.00898402
0.145316
0.00733849
0.144695
0.00322883
0.144612
0.000205766
0.146076
-0.00769124
0.148912
-0.0111284
0.153132
-0.0186157
0.156077
-0.010284
0.157134
-0.00370894
0.15649
0.00777776
0.152142
0.0292752
0.148578
0.0253737
0.143161
0.0448507
0.134347
0.05141
0.121581
0.0595481
0.116631
-0.0104682
0.129992
-0.0937029
0.142347
-0.0672755
0.157464
-0.0891213
0.161331
-0.00962018
0.0400746
0.15127
5.81166e-05
0.150974
0.00176257
0.150401
0.00354051
0.149534
0.005504
0.148354
0.00738265
0.146882
0.00921691
0.145138
0.0107146
0.143211
0.0117172
0.141222
0.0119005
0.139355
0.010851
0.137777
0.00891667
0.137001
0.00400423
0.136779
0.000428217
0.138386
-0.00929848
0.141898
-0.0146401
0.147083
-0.0238009
0.150735
-0.0139365
0.151905
-0.00487833
0.151247
0.00843567
0.146519
0.0340027
0.142562
0.0293314
0.137343
0.0500689
0.128214
0.0605392
0.113821
0.0739417
0.105632
-0.0022798
0.11692
-0.104991
0.130085
-0.0804408
0.147706
-0.106742
0.153826
-0.01574
0.0449196
0.145645
0.000103024
0.145326
0.00208214
0.144698
0.00416839
0.143745
0.0064568
0.14244
0.00868766
0.140804
0.0108532
0.138852
0.0126666
0.136686
0.0138833
0.134443
0.0141429
0.1323
0.0129942
0.130486
0.0107303
0.129514
0.00497692
0.129079
0.000863157
0.130784
-0.0110034
0.13507
-0.0189266
0.141425
-0.0301557
0.145835
-0.0183465
0.147086
-0.00612932
0.14635
0.0091712
0.141211
0.0391426
0.136834
0.0337076
0.131887
0.0550164
0.122664
0.069762
0.107563
0.0890431
0.0972465
0.00803647
0.105469
-0.113213
0.11806
-0.0930318
0.137488
-0.12617
0.145976
-0.0242277
0.0488729
0.140333
0.000144559
0.139992
0.00242303
0.139313
0.00484738
0.138276
0.00749427
0.136844
0.0101196
0.135038
0.0126592
0.132868
0.0148365
0.130453
0.0162981
0.127944
0.0166524
0.125503
0.0154346
0.123447
0.012787
0.12223
0.00619339
0.121496
0.00159712
0.123217
-0.0127246
0.128396
-0.0241049
0.136159
-0.0379192
0.141345
-0.0235323
0.142669
-0.00745387
0.141751
0.0100898
0.136164
0.0447294
0.131412
0.0384594
0.126695
0.0597339
0.11759
0.0788664
0.102813
0.10382
0.0915575
0.0192921
0.0963363
-0.117992
0.107165
-0.103861
0.127376
-0.146381
0.137986
-0.0348379
0.0518323
0.135309
0.000178718
0.134951
0.00278177
0.134225
0.00557259
0.133105
0.0086141
0.131547
0.0116777
0.129568
0.0146387
0.127171
0.0172332
0.124502
0.0189672
0.121715
0.0194397
0.118961
0.0181886
0.116661
0.015087
0.11516
0.00769427
0.114022
0.00273462
0.115636
-0.0143381
0.121839
-0.0303077
0.131254
-0.0473345
0.137233
-0.0295112
0.138637
-0.00885786
0.137395
0.0113318
0.13134
0.0507844
0.126293
0.0435067
0.121677
0.0643494
0.11288
0.0876635
0.0991932
0.117507
0.0878009
0.0306844
0.0892999
-0.119491
0.0977507
-0.112311
0.117765
-0.166396
0.130055
-0.0471278
0.0538106
0.130551
0.00020159
0.130178
0.0031542
0.129414
0.00633738
0.128215
0.00981247
0.126534
0.0133593
0.124378
0.0167949
0.121747
0.0198632
0.11882
0.0218943
0.115748
0.0225117
0.112671
0.0212662
0.110135
0.0176222
0.10832
0.0095099
0.106666
0.00438822
0.108005
-0.0156773
0.115322
-0.0376247
0.126599
-0.0586108
0.133424
-0.0363363
0.134939
-0.0103732
0.13323
0.013041
0.126709
0.0573051
0.121439
0.0487764
0.116773
0.0690157
0.108425
0.0960115
0.096223
0.129709
0.0851483
0.041759
0.0838976
-0.11824
0.0898553
-0.118269
0.108883
-0.185424
0.12234
-0.0605847
0.054891
0.126037
0.000209558
0.125655
0.00353523
0.124859
0.00713342
0.123588
0.0110837
0.121787
0.0151601
0.119451
0.0191309
0.116584
0.0227311
0.113397
0.0250812
0.110037
0.0258717
0.106633
0.0246699
0.103873
0.0203818
0.101732
0.0116514
0.099473
0.00664716
0.100333
-0.0165378
0.108646
-0.0459374
0.12186
-0.0718243
0.129713
-0.0441896
0.131464
-0.0121243
0.129195
0.0153099
0.122238
0.064262
0.11679
0.0542243
0.111954
0.0738521
0.104139
0.103827
0.0935364
0.140312
0.0830225
0.0522729
0.0797146
-0.114932
0.0833807
-0.121935
0.100847
-0.20289
0.11495
-0.0746879
0.055193
0.121745
0.000199417
0.121362
0.00391852
0.120545
0.00795074
0.119208
0.0124199
0.117294
0.0170748
0.114775
0.0216495
0.111667
0.0258391
0.108219
0.0285292
0.104572
0.029519
0.100851
0.0283904
0.0978715
0.0233613
0.0954081
0.0141148
0.0925591
0.00949621
0.0926933
-0.016672
0.101403
-0.0546469
0.116334
-0.0867553
0.125645
-0.0535004
0.127976
-0.0144562
0.125202
0.0180847
0.117884
0.07158
0.112287
0.0598208
0.107215
0.0789248
0.0999613
0.11108
0.0909016
0.149371
0.0810823
0.0620922
0.0763917
-0.110242
0.0781357
-0.123679
0.0936781
-0.218432
0.107955
-0.0889649
0.054851
0.117657
0.000168389
0.117279
0.00429604
0.116453
0.00877757
0.115062
0.0138109
0.113038
0.0190983
0.110334
0.0243534
0.106986
0.0291877
0.103275
0.0322399
0.0993429
0.0334512
0.0953308
0.0324025
0.0921172
0.026575
0.0893498
0.0168821
0.0860895
0.0127566
0.0852214
-0.0158039
0.093093
-0.0625186
0.109031
-0.102693
0.120494
-0.064963
0.124091
-0.0180534
0.12111
0.0210661
0.113591
0.079099
0.107886
0.0655255
0.102559
0.0842517
0.0958604
0.117779
0.0882033
0.157029
0.0791354
0.07116
0.0736379
-0.104744
0.0738574
-0.123899
0.0873332
-0.231908
0.101392
-0.103023
0.0539983
0.113753
0.000114266
0.113391
0.00465787
0.112569
0.00960011
0.111136
0.0152438
0.109009
0.0212258
0.106117
0.0272452
0.102529
0.0327756
0.0985523
0.0362164
0.0943419
0.0376616
0.0900779
0.0366665
0.086589
0.0300638
0.0835674
0.0199038
0.0801723
0.0161517
0.0780647
-0.0136963
0.0835836
-0.0680374
0.0993246
-0.118434
0.113569
-0.079207
0.119353
-0.0238383
0.116733
0.0236871
0.109289
0.0865427
0.103553
0.0712612
0.0979949
0.0898099
0.091824
0.12395
0.0853967
0.163456
0.0770921
0.0794647
0.0712388
-0.098891
0.0703168
-0.122977
0.0817287
-0.24332
0.0952696
-0.116564
0.0527577
0.110018
3.52225e-05
0.109684
0.00499189
0.108882
0.0104024
0.107421
0.0167041
0.105193
0.0234538
0.102111
0.0303277
0.0982857
0.0366008
0.0940376
0.0404645
0.089563
0.0421362
0.0850854
0.041144
0.0812778
0.0338714
0.0780924
0.0230892
0.0747454
0.0194988
0.0713323
-0.0102833
0.0735781
-0.0702832
0.0877638
-0.13262
0.104765
-0.0962081
0.113469
-0.0325428
0.1119
0.0252561
0.104906
0.0935369
0.099263
0.0769043
0.0935297
0.0955432
0.0878527
0.129627
0.0824799
0.168829
0.074922
0.0870225
0.0690425
-0.0930116
0.0673194
-0.121253
0.0767674
-0.252768
0.0895826
-0.129379
0.0512372
0.106436
-7.00416e-05
0.106144
0.00528313
0.105381
0.0111661
0.103909
0.0181759
0.101582
0.0257802
0.0983068
0.0336032
0.0942451
0.0406625
0.0897189
0.0449907
0.0850033
0.0468517
0.0803305
0.0458169
0.0762039
0.037998
0.0729539
0.0263391
0.0696092
0.0228435
0.0651245
-0.00579859
0.0644119
-0.0695706
0.0760387
-0.144247
0.0947903
-0.11496
0.106512
-0.0442649
0.106547
0.0252219
0.100392
0.0996915
0.0949972
0.0822992
0.0891705
0.10137
0.0839542
0.134843
0.0794723
0.17331
0.0726256
0.0938693
0.0669458
-0.0873318
0.0647062
-0.119014
0.0723549
-0.260417
0.0843116
-0.141336
0.049528
0.10299
-0.000200295
0.102758
0.00551458
0.102054
0.0118702
0.100587
0.0196428
0.0981642
0.0282033
0.0946945
0.0370729
0.0903935
0.0449635
0.0855871
0.0497971
0.0806571
0.0517817
0.0757828
0.0506913
0.0714113
0.0423695
0.0681438
0.0296066
0.0645805
0.0264067
0.0595578
-0.000775884
0.0571596
-0.0671723
0.0658659
-0.152953
0.0847494
-0.133843
0.0988709
-0.0583864
0.100744
0.0233489
0.0957361
0.104699
0.0907476
0.0872876
0.0849241
0.107193
0.0801388
0.139628
0.0764027
0.177046
0.0702189
0.100053
0.0648835
-0.0819965
0.062356
-0.116486
0.0684067
-0.266468
0.0794296
-0.152359
0.0477032
0.0996558
-0.000352566
0.0995022
0.00566812
0.0988815
0.012491
0.0974381
0.0210862
0.0949229
0.0307185
0.0912605
0.0407353
0.0867143
0.0495097
0.0816358
0.0548756
0.0765097
0.0569078
0.0714235
0.0557775
0.0669382
0.0468548
0.0635982
0.0329466
0.0596068
0.0303981
0.0546956
0.00413535
0.0519896
-0.0644663
0.0579975
-0.158961
0.0755217
-0.151367
0.0910251
-0.0738898
0.0946575
0.0197165
0.0909687
0.108388
0.0865158
0.0917405
0.0807981
0.112911
0.0764173
0.144009
0.0733015
0.180162
0.0677253
0.105629
0.062819
-0.0770902
0.0601816
-0.113849
0.0648525
-0.271139
0.0749081
-0.162415
0.0458203
0.0963792
-0.000523415
0.0963263
0.00572101
0.0958168
0.0130005
0.0944231
0.0224798
0.0918302
0.0333115
0.0879825
0.044583
0.083187
0.0543052
0.0778567
0.0602059
0.0725383
0.0622261
0.067254
0.0610618
0.0627813
0.0513275
0.0592319
0.036496
0.0547513
0.0348787
0.0505011
0.00838558
0.0483795
-0.0623447
0.0522428
-0.162825
0.067514
-0.166638
0.0833585
-0.0897344
0.0884764
0.0145987
0.0861466
0.110718
0.0823145
0.0955725
0.0767996
0.118426
0.0727997
0.148009
0.0701979
0.182764
0.065171
0.110656
0.0607356
-0.0726547
0.0581223
-0.111235
0.0616358
-0.274652
0.0707189
-0.171498
0.0439246
0.0930611
-0.000701116
0.0931346
0.00564746
0.0927728
0.0133624
0.0914719
0.0237806
0.0888359
0.0359475
0.0848234
0.0485956
0.0797864
0.0593421
0.0742348
0.0657576
0.0687197
0.0677413
0.063287
0.0664945
0.0588959
0.0557185
0.0549787
0.0404133
0.0501218
0.0397356
0.046892
0.0116153
0.0457083
-0.0611609
0.048038
-0.165154
0.06075
-0.17935
0.0761125
-0.105097
0.0823655
0.00834571
0.0813371
0.111746
0.0781682
0.0987414
0.072935
0.123659
0.069294
0.15165
0.0671178
0.18494
0.0625829
0.115191
0.05863
-0.0687019
0.0561375
-0.108743
0.0587047
-0.277219
0.0668347
-0.179628
0.0420514
0.0895475
-0.00087732
0.0897661
0.00542895
0.0896033
0.0135251
0.0884688
0.0249151
0.0858589
0.0385574
0.0817268
0.0527276
0.0764799
0.0645891
0.0707456
0.0714918
0.0650349
0.073452
0.0595307
0.0719986
0.0552172
0.060032
0.0508137
0.0448168
0.0458142
0.0447351
0.0437987
0.0136308
0.0435584
-0.0609206
0.0448438
-0.16644
0.0550689
-0.189576
0.0694056
-0.119434
0.0764499
0.0013014
0.0766051
0.111591
0.0741039
0.101243
0.0692099
0.128553
0.0659068
0.154953
0.0640839
0.186763
0.0599866
0.119288
0.0565075
-0.0652228
0.0542019
-0.106437
0.0560117
-0.279029
0.0632294
-0.186845
0.0402281
0.0855949
-0.00107179
0.085981
0.00504278
0.086092
0.0134142
0.0852435
0.0257637
0.0827804
0.0410205
0.0786158
0.0568922
0.0732254
0.0699795
0.0673571
0.0773602
0.0614712
0.0793379
0.0559803
0.0774896
0.0516838
0.0643285
0.0467481
0.0497525
0.0418966
0.0495866
0.0411677
0.0143597
0.0417083
-0.0614612
0.0422711
-0.167003
0.050264
-0.197568
0.0632781
-0.132448
0.070815
-0.00623552
0.0720061
0.1104
0.0701475
0.103101
0.0656293
0.133072
0.0626429
0.157939
0.0611144
0.188292
0.0574062
0.122996
0.0543783
-0.0621949
0.0523011
-0.10436
0.0535163
-0.280244
0.0598781
-0.193207
0.0384748
0.0808774
-0.00128449
0.0814579
0.00446232
0.0819518
0.0129203
0.0815701
0.0261453
0.0794451
0.0431456
0.0753947
0.0609425
0.0699711
0.0754031
0.064032
0.0832993
0.0580192
0.0853507
0.0526183
0.0828905
0.048252
0.0686948
0.0428149
0.0551896
0.0384002
0.0540013
0.0389443
0.0138155
0.0400492
-0.0625661
0.0400854
-0.167039
0.0461638
-0.203647
0.0577292
-0.144013
0.0655147
-0.014021
0.0675833
0.108331
0.0663217
0.104363
0.062197
0.137196
0.0595053
0.160631
0.0582239
0.189573
0.0548625
0.126358
0.0522555
-0.0595878
0.0504281
-0.102533
0.0511853
-0.281001
0.0567568
-0.198779
0.0368057
0.07508
-0.00148958
0.0758258
0.00371655
0.0768594
0.0118867
0.0771913
0.0258134
0.0756719
0.0446649
0.0719576
0.0646568
0.066664
0.0806967
0.0607403
0.089223
0.0546747
0.0914163
0.0494213
0.0881439
0.0448974
0.0732187
0.0390553
0.0610318
0.0353185
0.057738
0.0370583
0.0120757
0.0385299
-0.0640377
0.0381607
-0.16667
0.0426459
-0.208132
0.0527367
-0.154104
0.0605813
-0.0218656
0.0633681
0.105545
0.0626444
0.105086
0.0589156
0.140925
0.056496