/*--------------------------------*- C++ -*----------------------------------*\
  =========                 |
  \\      /  F ield         | OpenFOAM: The Open Source CFD Toolbox
   \\    /   O peration     | Website:  https://openfoam.org
    \\  /    A nd           | Version:  7
     \\/     M anipulation  |
\*---------------------------------------------------------------------------*/
FoamFile
{
    version     2.0;
    format      ascii;
    class       volVectorField;
    location    "15";
    object      U;
}
// * * * * * * * * * * * * * * * * * * * * * * * * * * * * * * * * * * * * * //

dimensions      [0 1 -1 0 0 0 0];

internalField   nonuniform List<vector> 
2125
(
(0.00620094 0.00536271 1.06548e-21)
(0.0350342 0.0128197 -3.11969e-21)
(0.0904568 0.017564 -3.66933e-21)
(0.00620094 -0.00536271 -1.06548e-21)
(0.0350342 -0.0128197 3.11969e-21)
(0.0904568 -0.017564 3.66933e-21)
(0.158086 -0.0201608 -3.69586e-21)
(0.231802 -0.0210771 3.44592e-21)
(0.306814 -0.0207818 1.84004e-21)
(0.379532 -0.0197051 -3.13364e-21)
(0.447809 -0.018202 -3.86979e-21)
(0.510592 -0.0165372 6.11876e-22)
(0.567543 -0.014873 -1.81137e-21)
(0.00702358 -0.0160412 1.15902e-21)
(0.0369529 -0.0383552 -3.72176e-21)
(0.0930069 -0.0525611 8.67064e-21)
(0.16094 -0.0603444 -8.00109e-21)
(0.234724 -0.0630992 -3.8896e-22)
(0.309646 -0.0622255 -5.99432e-21)
(0.38218 -0.0590102 1.03853e-20)
(0.450229 -0.0545149 1.50439e-20)
(0.512776 -0.0495323 2.86545e-21)
(0.5695 -0.0445492 -6.49579e-21)
(0.00865925 -0.0265793 -1.01062e-21)
(0.0407699 -0.0635801 -7.92019e-21)
(0.098082 -0.0871665 -1.906e-20)
(0.166624 -0.100115 1.73361e-20)
(0.240545 -0.104726 3.82315e-21)
(0.315288 -0.103311 3.58918e-21)
(0.387459 -0.0980006 -1.86726e-20)
(0.455053 -0.090555 -1.16769e-20)
(0.517134 -0.0822898 -2.77569e-21)
(0.573407 -0.074016 2.0074e-20)
(0.0110889 -0.0368852 -3.60728e-21)
(0.0464442 -0.0882908 4.77978e-21)
(0.105632 -0.121123 3.47756e-20)
(0.175085 -0.139203 -3.24506e-21)
(0.249216 -0.145697 -9.88893e-21)
(0.323701 -0.143802 7.58916e-21)
(0.395335 -0.136469 5.46195e-22)
(0.462256 -0.126143 3.0399e-21)
(0.523643 -0.114653 -7.00615e-21)
(0.579245 -0.103136 -1.96633e-20)
(0.0142841 -0.0468694 -2.52689e-21)
(0.0539151 -0.112289 1.41955e-20)
(0.115583 -0.15418 -3.5158e-20)
(0.186249 -0.17734 1.60424e-20)
(0.260669 -0.185756 1.47569e-22)
(0.334823 -0.183466 -2.27917e-20)
(0.405758 -0.174211 1.06845e-20)
(0.471794 -0.161101 -1.12051e-21)
(0.532268 -0.146469 4.5016e-21)
(0.58699 -0.131772 -1.46072e-21)
(0.0182076 -0.0564461 -2.86335e-20)
(0.0631024 -0.135382 -3.60488e-20)
(0.127837 -0.186092 9.62207e-21)
(0.200015 -0.214269 -1.83647e-20)
(0.274811 -0.224655 -5.54695e-21)
(0.348574 -0.222078 8.63729e-21)
(0.418658 -0.211028 3.37106e-21)
(0.483613 -0.195259 1.36736e-20)
(0.542967 -0.177588 -3.07051e-21)
(0.596608 -0.159793 1.77356e-20)
(0.0228134 -0.0655336 2.74197e-20)
(0.0739073 -0.157387 1.84416e-20)
(0.142271 -0.216627 -1.48279e-20)
(0.216258 -0.249741 2.57611e-20)
(0.291525 -0.262154 -2.44065e-21)
(0.364852 -0.259417 -3.11102e-20)
(0.433952 -0.246727 5.73703e-21)
(0.497644 -0.228448 -3.73784e-20)
(0.555682 -0.207865 1.33156e-21)
(0.608057 -0.18707 1.51251e-20)
(0.0280475 -0.0740557 -2.11488e-20)
(0.0862133 -0.178132 3.97504e-20)
(0.158743 -0.245563 1.57504e-20)
(0.234832 -0.283519 -2.01727e-20)
(0.310675 -0.298021 2.76571e-23)
(0.383537 -0.295274 5.74949e-20)
(0.45154 -0.281123 2.91045e-21)
(0.513804 -0.26051 2.87977e-20)
(0.570348 -0.237163 3.71461e-20)
(0.621289 -0.213482 -2.19576e-20)
(0.0338486 -0.0819421 1.20908e-20)
(0.0998873 -0.197457 -5.83465e-21)
(0.177089 -0.272693 -1.47031e-20)
(0.255567 -0.31538 1.17099e-20)
(0.332104 -0.33204 4.60573e-20)
(0.404492 -0.329449 -1.69505e-20)
(0.471304 -0.31404 -2.87936e-21)
(0.531999 -0.291292 -4.18996e-20)
(0.586888 -0.26535 -5.49767e-20)
(0.636245 -0.238911 2.52435e-20)
(0.0401484 -0.0891293 -1.69617e-20)
(0.114781 -0.215215 -1.57041e-20)
(0.197124 -0.297826 2.44951e-21)
(0.278273 -0.345115 -6.11903e-20)
(0.355632 -0.364005 -2.69822e-20)
(0.42756 -0.361753 -2.08084e-20)
(0.493112 -0.345311 -2.9214e-20)
(0.55212 -0.320651 1.40867e-20)
(0.605215 -0.292306 1.80971e-20)
(0.65286 -0.26325 2.88554e-20)
(0.0468725 -0.0955614 2.44697e-21)
(0.130732 -0.231275 2.27179e-20)
(0.218646 -0.320787 1.68015e-20)
(0.30274 -0.372533 2.8776e-20)
(0.381064 -0.393727 2.35341e-20)
(0.452566 -0.392011 -2.38239e-20)
(0.516817 -0.374782 2.34942e-20)
(0.574045 -0.348456 1.70384e-20)
(0.625229 -0.317918 -2.13325e-21)
(0.671061 -0.286401 -8.38727e-21)
(0.0539414 -0.10119 4.08137e-20)
(0.147565 -0.245522 -2.07375e-20)
(0.241438 -0.341423 -1.54726e-20)
(0.32874 -0.397463 -9.60819e-21)
(0.408183 -0.421032 1.82857e-20)
(0.479319 -0.420061 1.71322e-20)
(0.542257 -0.402309 -2.53196e-20)
(0.59764 -0.374584 2.0715e-20)
(0.646822 -0.342086 1.03225e-21)
(0.690764 -0.308276 2.17319e-20)
(0.0612712 -0.105977 -3.09327e-20)
(0.165096 -0.25786 -1.22081e-20)
(0.265265 -0.3596 -1.13481e-21)
(0.356031 -0.419751 1.78097e-20)
(0.436758 -0.445766 -2.76147e-21)
(0.507613 -0.445756 -1.94198e-20)
(0.569253 -0.427761 5.73384e-21)
(0.622757 -0.398925 6.70989e-21)
(0.669871 -0.364722 1.65489e-20)
(0.711877 -0.3288 -3.32793e-20)
(0.0687747 -0.109892 -1.63823e-20)
(0.183131 -0.268211 3.15468e-20)
(0.289884 -0.375206 2.36979e-20)
(0.384353 -0.439267 -1.10756e-20)
(0.466543 -0.46779 -2.39551e-20)
(0.537227 -0.468964 -1.90444e-20)
(0.597614 -0.451022 2.25262e-20)
(0.649234 -0.421382 -4.70201e-20)
(0.694243 -0.38575 1.31633e-20)
(0.734297 -0.347915 3.63404e-20)
(0.0763624 -0.112913 2.76978e-20)
(0.201469 -0.276516 -1.74998e-20)
(0.315039 -0.388153 5.56897e-21)
(0.413436 -0.455901 -3.99723e-22)
(0.497278 -0.486988 -7.10978e-21)
(0.567926 -0.48957 3.11472e-20)
(0.627138 -0.471985 -2.89894e-20)
(0.676899 -0.441866 2.95079e-20)
(0.71979 -0.405107 -4.79607e-20)
(0.757905 -0.365578 -1.86329e-20)
(0.0839435 -0.11503 -3.51293e-21)
(0.219905 -0.282738 -2.62471e-20)
(0.340468 -0.398376 4.71015e-21)
(0.443 -0.469568 -6.85221e-21)
(0.528692 -0.503261 -5.95143e-21)
(0.599463 -0.507473 1.23849e-21)
(0.657608 -0.490559 -2.03426e-20)
(0.705566 -0.460302 -1.26364e-21)
(0.74635 -0.42274 2.9612e-20)
(0.78257 -0.381765 -3.98341e-20)
(0.0914269 -0.116241 1.19798e-20)
(0.238233 -0.286859 2.22794e-20)
(0.365904 -0.405835 -2.02672e-20)
(0.472757 -0.480206 -8.81091e-21)
(0.560506 -0.516532 5.2409e-20)
(0.631584 -0.52259 -4.43449e-20)
(0.6888 -0.50666 4.48362e-20)
(0.735042 -0.476616 4.52288e-22)
(0.773749 -0.438607 1.03109e-20)
(0.808149 -0.396468 3.67721e-20)
(0.098723 -0.116556 -6.96215e-21)
(0.256246 -0.288883 -7.39341e-22)
(0.391079 -0.410516 5.15242e-21)
(0.502417 -0.487779 2.1435e-21)
(0.592435 -0.526745 -2.51126e-22)
(0.664029 -0.534851 1.62227e-20)
(0.720487 -0.520215 -8.75266e-21)
(0.765131 -0.490739 1.15378e-20)
(0.801798 -0.452651 -4.0138e-21)
(0.834476 -0.409671 -2.00428e-21)
(0.105744 -0.115992 1.32681e-20)
(0.273741 -0.288837 -1.37347e-21)
(0.415723 -0.412431 -1.87432e-22)
(0.531686 -0.492277 6.62747e-22)
(0.62419 -0.533868 -1.43661e-20)
(0.696535 -0.544205 3.93845e-20)
(0.752443 -0.531156 -3.1218e-20)
(0.795648 -0.502574 2.41338e-20)
(0.830276 -0.464712 -2.17482e-20)
(0.861213 -0.421232 -2.71516e-20)
(0.112406 -0.114578 -1.46537e-22)
(0.290518 -0.286766 -7.47852e-21)
(0.439572 -0.411618 8.48169e-21)
(0.560272 -0.493715 2.83993e-21)
(0.655485 -0.537892 -5.50093e-21)
(0.728844 -0.550622 -3.27352e-20)
(0.784464 -0.539426 8.37446e-21)
(0.826496 -0.511989 -5.79984e-21)
(0.859154 -0.474515 2.36851e-20)
(0.887994 -0.430959 -9.29356e-21)
(0.118628 -0.112352 1.19628e-21)
(0.306387 -0.282739 1.24372e-22)
(0.462369 -0.408141 5.79622e-22)
(0.587886 -0.492137 -3.49374e-21)
(0.68603 -0.538835 8.25391e-21)
(0.7607 -0.5541 4.73938e-21)
(0.816369 -0.545011 1.41264e-20)
(0.85774 -0.518958 -1.91432e-20)
(0.889469 -0.482335 -2.15274e-20)
(0.918785 -0.441194 1.16904e-20)
(0.124338 -0.10936 -1.0462e-21)
(0.321166 -0.276842 -3.13503e-21)
(0.483864 -0.40209 3.1382e-21)
(0.614243 -0.487615 -9.73412e-22)
(0.715536 -0.536746 5.38201e-22)
(0.79183 -0.554672 -6.01648e-21)
(0.847898 -0.547969 -1.34418e-20)
(0.888975 -0.523725 1.36808e-20)
(0.92024 -0.488658 -1.41496e-20)
(0.948036 -0.449994 -1.20611e-21)
(0.129466 -0.105656 -2.14569e-21)
(0.334683 -0.269183 1.18316e-21)
(0.503817 -0.393579 -2.07146e-21)
(0.639065 -0.480247 -1.37933e-21)
(0.743709 -0.531697 -3.94833e-21)
(0.82194 -0.552388 2.42441e-21)
(0.878749 -0.548343 -6.21264e-21)
(0.919762 -0.526318 -6.66202e-21)
(0.950534 -0.49321 2.96469e-20)
(0.976124 -0.456929 1.69319e-20)
(0.133955 -0.101302 -1.39981e-21)
(0.346784 -0.259885 -1.6731e-21)
(0.522004 -0.382747 -2.15709e-21)
(0.662083 -0.470155 1.00593e-22)
(0.770259 -0.52378 -1.96638e-21)
(0.850732 -0.547308 6.88195e-21)
(0.908612 -0.546154 -1.81197e-21)
(0.94976 -0.526684 5.68801e-21)
(0.979935 -0.49577 -6.53079e-21)
(1.0033 -0.461594 1.99908e-21)
(0.137752 -0.0963649 2.13646e-21)
(0.357328 -0.249086 8.03364e-21)
(0.538216 -0.369752 -1.85871e-21)
(0.683042 -0.457483 -2.63479e-22)
(0.794903 -0.513106 -1.62822e-21)
(0.877912 -0.539505 -2.18977e-21)
(0.937191 -0.541431 4.88271e-21)
(0.978699 -0.524793 1.49216e-21)
(1.00828 -0.496282 -9.99221e-21)
(1.0296 -0.464102 -7.70485e-21)
(0.14081 -0.0909147 -2.53762e-21)
(0.366197 -0.236943 -5.12441e-22)
(0.552267 -0.354776 8.56925e-21)
(0.701703 -0.4424 4.9477e-22)
(0.817371 -0.49981 -5.38595e-21)
(0.903196 -0.52907 4.82885e-21)
(0.964206 -0.534218 1.28914e-21)
(1.00634 -0.520648 1.40473e-21)
(1.03546 -0.494741 3.67357e-21)
(1.05501 -0.46458 5.94447e-21)
(0.143094 -0.0850335 8.70404e-21)
(0.373286 -0.223625 -1.26555e-21)
(0.563991 -0.338012 -7.11127e-21)
(0.717848 -0.425091 7.54178e-22)
(0.837412 -0.484046 4.55469e-21)
(0.926314 -0.516112 -6.64846e-22)
(0.989392 -0.52458 -1.48016e-21)
(1.03247 -0.514268 1.1202e-21)
(1.06135 -0.491158 -1.63742e-22)
(1.07948 -0.463111 -2.63652e-21)
(0.144584 -0.0788041 -2.74569e-21)
(0.378512 -0.209307 -2.3594e-20)
(0.57325 -0.319675 2.00969e-21)
(0.731283 -0.405765 1.08093e-20)
(0.854787 -0.465988 -5.48127e-22)
(0.947012 -0.500758 -1.435e-20)
(1.0125 -0.512595 7.80913e-21)
(1.05686 -0.505695 -1.36906e-21)
(1.08584 -0.485561 5.66736e-22)
(1.10291 -0.459769 -2.78569e-23)
(0.145267 -0.0723088 -4.45469e-21)
(0.38182 -0.194173 7.78966e-21)
(0.579931 -0.29999 1.29044e-20)
(0.741844 -0.384646 -8.24438e-21)
(0.869286 -0.445829 2.52287e-21)
(0.965052 -0.483155 9.12825e-21)
(1.03329 -0.498364 5.15263e-21)
(1.07933 -0.494989 1.10125e-21)
(1.10878 -0.477993 -1.19973e-21)
(1.1252 -0.454621 -3.52278e-22)
(0.14514 -0.0656312 -6.79285e-21)
(0.383177 -0.178413 -3.5232e-21)
(0.583951 -0.279197 -2.55357e-20)
(0.749392 -0.361976 -4.18224e-21)
(0.880724 -0.42378 7.13286e-22)
(0.980215 -0.46347 1.68956e-21)
(1.05154 -0.482003 -1.86553e-20)
(1.09966 -0.482227 -8.16745e-21)
(1.13001 -0.468508 2.87791e-22)
(1.14622 -0.447736 1.00039e-21)
(0.144212 -0.0588555 -2.13439e-21)
(0.382573 -0.162222 8.52743e-21)
(0.58526 -0.257541 1.30306e-20)
(0.753821 -0.338009 8.44436e-21)
(0.888943 -0.400072 -1.86268e-21)
(0.992308 -0.441886 -2.16934e-21)
(1.06704 -0.463647 1.57095e-20)
(1.11765 -0.467501 1.49337e-20)
(1.14935 -0.457164 1.99493e-21)
(1.16588 -0.439208 -1.35773e-21)
(0.142501 -0.0520641 1.98519e-20)
(0.380024 -0.145791 1.32035e-20)
(0.583838 -0.235272 -1.42555e-20)
(0.755058 -0.313008 -2.91732e-21)
(0.893813 -0.374948 1.81746e-21)
(1.00116 -0.418607 -5.63398e-21)
(1.0796 -0.443447 -9.86522e-21)
(1.13314 -0.450906 -2.18569e-22)
(1.16667 -0.444074 -9.38779e-21)
(1.18409 -0.429132 3.76119e-21)
(0.140037 -0.0453368 3.11648e-21)
(0.375572 -0.129312 -7.59772e-21)
(0.579698 -0.212643 1.90454e-20)
(0.753067 -0.287247 1.24289e-20)
(0.895239 -0.348667 8.9678e-22)
(1.00661 -0.393851 7.96687e-21)
(1.08904 -0.421574 6.9191e-22)
(1.14592 -0.432585 -7.5804e-21)
(1.18178 -0.429362 5.52763e-21)
(1.20062 -0.417414 9.95765e-22)
(0.136858 -0.0387493 -1.77159e-20)
(0.369278 -0.11297 -5.63119e-21)
(0.572887 -0.189904 -5.0823e-21)
(0.747847 -0.261002 -9.03435e-21)
(0.893158 -0.321496 2.66697e-21)
(1.00855 -0.367851 -3.60412e-23)
(1.09518 -0.398212 6.4818e-21)
(1.15582 -0.412665 -1.99591e-21)
(1.1945 -0.41306 -6.76697e-21)
(1.21517 -0.404176 -4.90049e-21)
(0.133013 -0.0323723 1.5125e-21)
(0.361231 -0.0969428 9.46908e-21)
(0.563482 -0.167301 4.87373e-21)
(0.739431 -0.234551 -1.5159e-20)
(0.887543 -0.29371 -4.18e-22)
(1.00689 -0.340853 -6.81322e-21)
(1.0979 -0.373561 1.16915e-22)
(1.16264 -0.391289 2.42417e-21)
(1.20464 -0.395263 -2.81322e-21)
(1.22765 -0.389536 8.17469e-21)
(0.128555 -0.0262703 3.70027e-21)
(0.351538 -0.0813958 -9.48327e-21)
(0.551592 -0.145071 -2.31678e-20)
(0.727893 -0.20817 2.19771e-20)
(0.878404 -0.265592 -1.60618e-21)
(1.00156 -0.313112 4.77435e-21)
(1.09706 -0.347832 -7.06241e-22)
(1.16625 -0.368622 4.55425e-21)
(1.21204 -0.376092 -4.23171e-22)
(1.23793 -0.373569 -6.38321e-21)
(0.123548 -0.0205007 -7.57571e-21)
(0.340324 -0.0664828 1.25523e-20)
(0.537354 -0.123439 1.06183e-20)
(0.71334 -0.182127 -1.59948e-20)
(0.865791 -0.237421 -2.85105e-21)
(0.992542 -0.284894 1.01626e-21)
(1.09257 -0.321252 1.14334e-20)
(1.16648 -0.344838 4.00829e-22)
(1.21651 -0.355674 2.2349e-21)
(1.24581 -0.35635 -4.48515e-21)
(0.118058 -0.0151132 5.75149e-21)
(0.327733 -0.0523418 -5.55146e-21)
(0.520933 -0.102614 -4.97625e-21)
(0.695914 -0.156681 8.85322e-21)
(0.84979 -0.209477 3.13529e-21)
(0.979846 -0.25647 2.55435e-21)
(1.08437 -0.294057 -1.2078e-20)
(1.16321 -0.320125 -4.44489e-21)
(1.2179 -0.334147 -3.78076e-21)
(1.25112 -0.33796 1.47014e-21)
(0.112157 -0.0101492 -2.91599e-21)
(0.313922 -0.039094 -6.36081e-23)
(0.502518 -0.0827871 9.43231e-21)
(0.675792 -0.132077 -3.58388e-21)
(0.830526 -0.182034 -1.74399e-21)
(0.963522 -0.228113 -1.20139e-21)
(1.07242 -0.266494 3.10763e-21)
(1.15632 -0.294686 5.40172e-21)
(1.21602 -0.311659 -3.01411e-22)
(1.25366 -0.318492 2.05023e-21)
(0.105919 -0.00564175 2.05499e-21)
(0.299058 -0.0268423 -6.28765e-22)
(0.482318 -0.06413 -1.69988e-21)
(0.653179 -0.108541 -1.62842e-21)
(0.808162 -0.155355 1.57736e-21)
(0.94366 -0.200094 1.33151e-21)
(1.05673 -0.238817 -1.28257e-21)
(1.14574 -0.268732 4.77661e-22)
(1.21074 -0.288369 6.99485e-22)
(1.25325 -0.298046 -9.28595e-22)
(0.0994195 -0.00161481 1.12248e-21)
(0.283316 -0.0156702 3.4798e-22)
(0.46056 -0.0467902 -2.151e-21)
(0.62831 -0.0862821 -1.85751e-21)
(0.782897 -0.129691 2.10213e-21)
(0.920389 -0.172683 4.53868e-22)
(1.03733 -0.211284 -1.16605e-21)
(1.13141 -0.242488 1.14365e-21)
(1.20192 -0.264452 6.82055e-22)
(1.2497 -0.276734 -8.11096e-22)
(0.0927338 0.00191615 -4.39033e-22)
(0.266878 -0.00564129 9.49853e-22)
(0.437484 -0.0308913 6.65984e-21)
(0.601442 -0.0654825 -3.29439e-21)
(0.754964 -0.105273 -1.7232e-21)
(0.893879 -0.146141 -2.17828e-21)
(1.0143 -0.184158 4.84423e-21)
(1.11332 -0.216189 3.69401e-21)
(1.18946 -0.240096 3.05498e-21)
(1.24286 -0.254684 1.67922e-21)
(0.0859362 0.00494412 8.97657e-21)
(0.249925 0.00320085 -5.2928e-21)
(0.41334 -0.0165309 -6.37553e-21)
(0.572852 -0.0463004 9.46634e-21)
(0.724627 -0.082314 5.63325e-21)
(0.864341 -0.120716 -4.41315e-22)
(0.987776 -0.157699 -8.65423e-21)
(1.09147 -0.190079 -6.44477e-21)
(1.17329 -0.215505 -7.52343e-21)
(1.23256 -0.232036 4.89998e-21)
(0.079098 0.00747015 -1.2146e-20)
(0.232638 0.0108323 1.22889e-20)
(0.388382 -0.0037804 1.51843e-20)
(0.542834 -0.0288657 -1.64831e-20)
(0.692176 -0.0610021 -6.29305e-21)
(0.83202 -0.0966418 4.74625e-21)
(0.957913 -0.132163 9.30817e-21)
(1.06595 -0.164408 1.78344e-21)
(1.15336 -0.190897 -5.35772e-22)
(1.21868 -0.208952 -7.1409e-21)
(0.0722872 0.00950273 -1.7827e-21)
(0.215191 0.0172484 -1.7416e-20)
(0.362863 0.00731521 -1.9949e-20)
(0.511689 -0.013279 2.51405e-20)
(0.657924 -0.0414982 -3.17592e-21)
(0.7972 -0.0741327 7.18849e-21)
(0.924926 -0.107798 1.71344e-21)
(1.03686 -0.139431 -4.50812e-21)
(1.12967 -0.166503 2.62304e-21)
(1.20111 -0.185613 -1.25426e-21)
(0.0655669 0.0110571 3.5867e-21)
(0.197755 0.0224622 1.08546e-20)
(0.337037 0.0167371 6.56745e-21)
(0.479725 0.000389378 -5.45833e-21)
(0.622203 -0.0239338 -1.03742e-20)
(0.760193 -0.0533791 -1.10021e-20)
(0.889068 -0.0848386 -2.61482e-21)
(1.00435 -0.115403 8.59647e-21)
(1.10227 -0.14257 -1.95061e-21)
(1.17979 -0.162223 4.42883e-21)
(0.0589949 0.0121545 -1.38158e-20)
(0.180488 0.0265037 -1.38719e-20)
(0.311145 0.0244916 -2.56034e-21)
(0.44725 0.0120997 -2.998e-21)
(0.585355 -0.00840893 -8.37712e-21)
(0.72134 -0.0345448 5.93664e-21)
(0.850633 -0.0635038 -9.14906e-22)
(0.968641 -0.092576 -7.37759e-21)
(1.07125 -0.119354 7.1563e-21)
(1.15469 -0.139009 -1.38329e-20)
(0.052623 0.0128212 3.07334e-21)
(0.163537 0.0294179 1.19885e-20)
(0.285421 0.0306094 1.16758e-20)
(0.414565 0.0218431 1.4289e-20)
(0.547726 0.00500989 -3.16684e-22)
(0.680998 -0.0177628 1.79418e-20)
(0.80995 -0.0439896 2.20429e-21)
(0.92998 -0.0711942 -2.90413e-20)
(1.03677 -0.0971184 2.35559e-20)
(1.12583 -0.116227 8.62613e-21)
(0.0464966 0.0130879 9.12958e-21)
(0.147036 0.0312637 2.23656e-20)
(0.260081 0.0351434 -3.03442e-21)
(0.381963 0.0296407 -1.84986e-20)
(0.509665 0.0162905 9.41811e-21)
(0.63954 -0.00313217 -1.17486e-20)
(0.767375 -0.0264656 -2.03633e-20)
(0.888668 -0.0514878 -4.19703e-21)
(0.999027 -0.0761326 -2.24798e-20)
(0.0406545 0.0129885 4.54258e-21)
(0.131106 0.0321115 4.21482e-21)
(0.235328 0.0381678 3.2843e-20)
(0.349721 0.035543 7.6359e-21)
(0.47151 0.025436 -7.96252e-21)
(0.597343 0.00928446 -4.41646e-21)
(0.723287 -0.0110695 3.47318e-20)
(0.845041 -0.033668 3.35356e-20)
(0.035129 0.0125599 1.03692e-21)
(0.115851 0.0320419 -2.36742e-20)
(0.211341 0.0397758 -3.95084e-20)
(0.318095 0.0396287 2.38838e-21)
(0.433587 0.0324853 1.20487e-20)
(0.554781 0.0194641 -1.87542e-20)
(0.678078 0.00209787 -5.64093e-20)
(0.0299461 0.0118406 -8.34684e-21)
(0.101359 0.0311442 2.42533e-20)
(0.188281 0.0400777 2.4882e-20)
(0.287321 0.042003 -2.89046e-20)
(0.396203 0.0375124 4.32234e-21)
(0.0251256 0.0108708 -2.02745e-20)
(0.0877044 0.0295146 -3.74863e-20)
(0.166286 0.0391989 -8.3371e-21)
(0.257609 0.042796 1.60941e-20)
(0.0206821 0.00969139 1.534e-20)
(0.0749464 0.0272547 2.20997e-22)
(0.145473 0.037278 -4.14472e-21)
(0.0166251 0.008344 -5.07542e-21)
(0.0631292 0.0244707 -9.37898e-21)
(0.0129595 0.0068704 3.48578e-20)
(0.0522838 0.0212709 2.91997e-20)
(0.00968599 0.00531215 6.65746e-21)
(0.999873 -0.00371881 -2.0897e-22)
(0.996763 -0.0111339 9.34406e-22)
(0.990906 -0.0193514 4.55449e-22)
(0.98295 -0.0289283 2.08327e-22)
(0.972979 -0.0405963 4.28656e-22)
(0.961339 -0.0549839 -1.85254e-21)
(0.948274 -0.0728088 -2.47483e-21)
(0.934329 -0.0948236 8.29065e-22)
(0.920069 -0.121799 2.568e-21)
(0.906636 -0.154433 3.04276e-21)
(0.894994 -0.193322 5.25069e-21)
(0.887428 -0.238458 -1.16917e-21)
(0.884398 -0.289746 -7.61091e-21)
(0.890304 -0.343665 -2.11736e-21)
(0.895498 -0.39928 5.67929e-21)
(0.999868 -0.00353564 -1.17616e-21)
(0.996689 -0.0105974 4.38027e-22)
(0.990693 -0.0184285 -7.33123e-22)
(0.98252 -0.027553 1.98386e-21)
(0.972226 -0.0386651 -1.76813e-21)
(0.96012 -0.0523637 2.13864e-22)
(0.946389 -0.0693402 2.58343e-21)
(0.931508 -0.0903259 -4.08879e-21)
(0.915954 -0.116097 1.83109e-21)
(0.900765 -0.147373 -6.72614e-21)
(0.886809 -0.18487 7.67416e-21)
(0.876232 -0.228694 -8.0442e-21)
(0.869559 -0.279162 -1.24354e-21)
(0.870208 -0.332639 9.6405e-21)
(0.871539 -0.387628 -2.22862e-21)
(0.999865 -0.00334744 1.5625e-21)
(0.996629 -0.0100434 1.07919e-21)
(0.990509 -0.0174714 1.30985e-21)
(0.982143 -0.0261236 -9.67876e-22)
(0.97156 -0.0366549 -1.00004e-21)
(0.959035 -0.0496344 3.71288e-21)
(0.944703 -0.0657239 -2.03093e-21)
(0.928975 -0.0856297 5.62712e-21)
(0.912235 -0.110128 -3.47811e-21)
(0.895414 -0.139948 -1.69036e-21)
(0.879266 -0.175911 -2.3484e-21)
(0.865763 -0.218224 1.98008e-21)
(0.855428 -0.267508 5.59272e-21)
(0.851021 -0.320263 -1.58487e-20)
(0.847912 -0.37443 1.77954e-20)
(0.999864 -0.00315899 2.24234e-22)
(0.996579 -0.00948917 -1.79287e-21)
(0.99035 -0.0165161 -3.34821e-21)
(0.981812 -0.0247012 5.84107e-22)
(0.970968 -0.034662 -1.13505e-22)
(0.958065 -0.0469383 1.0513e-21)
(0.943188 -0.0621634 3.15415e-21)
(0.926685 -0.0810179 -2.14833e-21)
(0.908854 -0.104274 2.70993e-21)
(0.890516 -0.132663 -5.45047e-21)
(0.872297 -0.167085 3.66512e-21)
(0.855978 -0.207827 2.46638e-21)
(0.842055 -0.255718 6.04477e-21)
(0.832785 -0.307545 -1.04734e-20)
(0.824967 -0.360764 1.92378e-22)
(0.999864 -0.00296976 -1.97643e-21)
(0.996538 -0.00893148 -4.68565e-22)
(0.990211 -0.0155553 -4.58934e-22)
(0.981518 -0.0232708 2.57843e-21)
(0.97044 -0.0326589 4.27428e-23)
(0.957194 -0.0442297 -4.01502e-22)
(0.941823 -0.0585871 -2.23565e-21)
(0.924612 -0.0763833 -1.67775e-22)
(0.905776 -0.0983804 6.94952e-21)
(0.886026 -0.125305 -8.0552e-21)
(0.865861 -0.158112 2.56267e-21)
(0.846853 -0.197157 3.88148e-21)
(0.82946 -0.243414 1.25982e-21)
(0.815535 -0.294046 -5.74831e-21)
(0.802901 -0.346103 1.12889e-22)
(0.999865 -0.00277948 3.65958e-22)
(0.996504 -0.0083693 3.2342e-22)
(0.99009 -0.0145848 1.10883e-21)
(0.981259 -0.0218247 -1.43639e-21)
(0.969969 -0.0306326 4.06764e-22)
(0.956413 -0.0414884 -1.09734e-21)
(0.940592 -0.0549651 5.84001e-22)
(0.922734 -0.0716834 -2.46116e-21)
(0.902975 -0.0923899 4.69777e-21)
(0.881914 -0.117797 -1.38243e-22)
(0.859928 -0.148897 -8.38182e-21)
(0.838371 -0.186106 5.46441e-22)
(0.817655 -0.23049 8.8361e-21)
(0.799293 -0.279628 2.35829e-22)
(0.781823 -0.330296 -1.02202e-20)
(0.999866 -0.00258844 3.17697e-22)
(0.996475 -0.00780399 -1.84799e-21)
(0.989985 -0.0136057 -1.39298e-21)
(0.98103 -0.0203648 1.64225e-21)
(0.969548 -0.0285864 -1.16885e-21)
(0.955713 -0.0387194 9.39592e-22)
(0.939483 -0.0513046 -4.82925e-22)
(0.921034 -0.0669291 -5.24965e-22)
(0.900428 -0.0863182 3.59591e-21)
(0.878154 -0.110164 -7.12443e-21)
(0.854473 -0.139473 5.69568e-21)
(0.830516 -0.174716 7.83305e-21)
(0.806641 -0.217007 -9.69816e-21)
(0.78407 -0.264343 -1.79278e-21)
(0.761824 -0.313361 -8.55035e-21)
(0.999868 -0.0023969 -1.75249e-22)
(0.99645 -0.00723567 1.1615e-21)
(0.989893 -0.0126199 -1.27743e-21)
(0.980827 -0.0188936 2.93185e-21)
(0.969174 -0.026524 -3.15582e-21)
(0.955086 -0.0359283 -3.1634e-21)
(0.938485 -0.0476138 -7.91219e-22)
(0.919499 -0.0621316 3.59284e-22)
(0.898118 -0.0801801 -2.79583e-21)
(0.874724 -0.102424 3.20486e-21)
(0.849471 -0.129867 3.36427e-21)
(0.823273 -0.163022 -1.17639e-21)
(0.796417 -0.203016 -4.00257e-21)
(0.769878 -0.248241 8.37877e-21)
(0.742985 -0.295314 -7.93593e-21)
(0.99987 -0.00220506 -7.6487e-22)
(0.99643 -0.00666429 7.17904e-21)
(0.989812 -0.0116283 1.69547e-22)
(0.980648 -0.0174129 1.45854e-21)
(0.968842 -0.0244477 -2.56789e-22)
(0.954526 -0.0331181 4.28192e-21)
(0.93759 -0.0438963 6.52294e-22)
(0.918115 -0.0572957 4.89001e-23)
(0.896027 -0.073982 -4.41567e-21)
(0.871606 -0.0945876 -7.81628e-22)
(0.844904 -0.120094 3.73101e-21)
(0.816627 -0.151045 -5.38476e-21)
(0.78698 -0.188552 -3.94986e-21)
(0.756726 -0.231362 4.70746e-21)
(0.725372 -0.276175 -3.9703e-21)
(0.999872 -0.00201304 1.91129e-21)
(0.996413 -0.00609057 -4.03471e-21)
(0.989742 -0.0106292 2.15613e-21)
(0.980491 -0.0159235 -3.03665e-21)
(0.968547 -0.0223591 -1.11408e-21)
(0.954027 -0.0302906 6.1666e-22)
(0.93679 -0.0401547 -2.20843e-21)
(0.916872 -0.0524248 3.88268e-21)
(0.894144 -0.0677286 2.07038e-21)
(0.868786 -0.086661 -1.17514e-21)
(0.840756 -0.110165 3.5078e-21)
(0.810567 -0.138802 -6.5366e-21)
(0.778329 -0.173647 1.11838e-20)
(0.744621 -0.213754 -7.7494e-21)
(0.709043 -0.255986 -3.83838e-21)
(0.999874 -0.00182096 -1.35859e-21)
(0.996399 -0.00551502 1.81596e-22)
(0.989682 -0.0096189 1.17966e-23)
(0.980352 -0.0144266 2.80765e-21)
(0.968287 -0.0202595 6.96792e-22)
(0.953584 -0.027448 -1.27451e-21)
(0.936078 -0.0363915 1.43506e-21)
(0.915763 -0.0475225 -2.83484e-21)
(0.892457 -0.0614252 1.13643e-21)
(0.86625 -0.0786524 7.17086e-22)
(0.837014 -0.100094 -3.46041e-21)
(0.805083 -0.126317 2.59062e-21)
(0.770463 -0.158339 6.582e-21)
(0.733574 -0.195473 -3.2988e-21)
(0.694046 -0.234804 -8.52848e-21)
(0.999876 -0.0016289 -1.54361e-21)
(0.996387 -0.00493788 -3.23159e-22)
(0.989629 -0.00861382 -1.40328e-21)
(0.980231 -0.0129234 -4.09781e-21)
(0.968058 -0.0181505 1.9662e-21)
(0.953194 -0.0245921 -1.86396e-21)
(0.935449 -0.0326095 2.49686e-21)
(0.914779 -0.0425924 3.62884e-21)
(0.890958 -0.055077 -2.32833e-21)
(0.863989 -0.0705702 4.7351e-21)
(0.833668 -0.0898968 -2.54954e-21)
(0.800166 -0.113612 -3.77743e-21)
(0.763381 -0.142665 -2.30919e-21)
(0.723593 -0.176576 9.46193e-21)
(0.680426 -0.212697 -3.10571e-21)
(0.999878 -0.00143691 1.60517e-21)
(0.996378 -0.00435952 7.69735e-22)
(0.989584 -0.00761501 -1.12193e-22)
(0.980126 -0.0114149 1.64188e-21)
(0.96786 -0.0160332 -2.62883e-21)
(0.952855 -0.0217247 -6.46645e-22)
(0.934899 -0.0288108 -5.28061e-23)
(0.913917 -0.0376378 -1.22972e-21)
(0.88964 -0.0486892 -3.57169e-21)
(0.861996 -0.0624222 -1.77352e-21)
(0.83071 -0.0795857 6.62008e-21)
(0.795808 -0.10071 -1.02328e-21)
(0.757084 -0.126662 -1.01681e-21)
(0.714688 -0.157124 -8.07181e-22)
(0.668222 -0.189743 -3.85567e-21)
(0.99988 -0.00124502 9.70644e-22)
(0.996369 -0.00378014 -1.77613e-21)
(0.989546 -0.00660691 7.55997e-22)
(0.980037 -0.00990161 -2.01531e-21)
(0.96769 -0.013909 -1.22581e-22)
(0.952562 -0.0188473 1.13097e-22)
(0.934425 -0.0249977 1.56261e-22)
(0.91317 -0.0326619 2.33769e-22)
(0.888497 -0.0422667 -1.62886e-21)
(0.860263 -0.0542162 2.12214e-21)
(0.828133 -0.069175 -3.41362e-21)
(0.792005 -0.0876342 7.65719e-22)
(0.75157 -0.110367 2.25324e-21)
(0.70687 -0.13718 -1.48195e-22)
(0.657466 -0.166027 2.62418e-21)
(0.999882 -0.00105324 -9.44212e-22)
(0.996362 -0.00319986 2.15541e-21)
(0.989514 -0.00559402 -1.3573e-21)
(0.979963 -0.00838439 1.64702e-21)
(0.967547 -0.0117788 8.9755e-22)
(0.952315 -0.0159615 -5.64058e-22)
(0.934023 -0.0211723 -9.59086e-23)
(0.912536 -0.0276676 -6.28701e-22)
(0.887524 -0.0358143 2.23441e-22)
(0.858786 -0.0459601 -1.79304e-21)
(0.825932 -0.058678 8.47175e-22)
(0.788752 -0.0744072 -5.66452e-21)
(0.746842 -0.0938185 7.89425e-21)
(0.700147 -0.116806 -2.36857e-21)
(0.64819 -0.141641 -4.91725e-21)
(0.999883 -0.000861559 -4.39866e-22)
(0.996357 -0.00261891 -6.66096e-22)
(0.989488 -0.00457927 4.62364e-22)
(0.979901 -0.00686402 1.11687e-22)
(0.967429 -0.0096437 1.24907e-21)
(0.952111 -0.0130687 -4.37657e-22)
(0.933691 -0.0173366 2.55057e-22)
(0.912011 -0.0226579 -8.34884e-23)
(0.886718 -0.0293368 6.96755e-22)
(0.857561 -0.0376615 1.29341e-21)
(0.824102 -0.0481082 1.83665e-21)
(0.786046 -0.0610526 -2.96039e-21)
(0.7429 -0.0770551 1.30828e-21)
(0.69453 -0.0960686 -1.64991e-21)
(0.64042 -0.116682 -4.53786e-21)
(0.999885 -0.000669982 1.56099e-21)
(0.996353 -0.00203743 -1.8174e-22)
(0.989468 -0.00356318 7.27924e-22)
(0.979853 -0.00534115 6.15917e-22)
(0.967336 -0.00750466 -1.94881e-21)
(0.951949 -0.0101703 7.25869e-23)
(0.933427 -0.0134926 2.93796e-22)
(0.911594 -0.0176357 1.77645e-22)
(0.886077 -0.0228387 -6.65055e-22)
(0.856584 -0.0293283 6.22278e-22)
(0.822642 -0.0374791 2.79186e-21)
(0.783883 -0.0475936 -1.1109e-21)
(0.739745 -0.0601152 2.47695e-21)
(0.690026 -0.0750315 -5.36683e-21)
(0.634176 -0.0912486 6.63737e-21)
(0.999886 -0.000478491 -1.11455e-21)
(0.99635 -0.00145557 2.07779e-23)
(0.989452 -0.00254595 -6.48079e-22)
(0.979817 -0.0038164 -3.19898e-22)
(0.967266 -0.00536259 6.94506e-22)
(0.951829 -0.00726757 -3.68745e-23)
(0.93323 -0.0096421 -1.22239e-21)
(0.911283 -0.0126038 7.01097e-22)
(0.885598 -0.0163247 -3.06801e-22)
(0.855853 -0.020968 2.73982e-22)
(0.821548 -0.0268037 9.47271e-22)
(0.782262 -0.0340534 2.45902e-22)
(0.737378 -0.0430379 -1.65454e-21)
(0.686641 -0.0537611 1.91917e-22)
(0.629478 -0.0654443 -1.4822e-21)
(0.999886 -0.000287067 5.43103e-22)
(0.996347 -0.000873449 -3.71017e-23)
(0.989443 -0.00152789 9.42194e-23)
(0.979793 -0.00229035 5.20826e-22)
(0.96722 -0.0032184 -9.44801e-23)
(0.951749 -0.00436176 -5.02305e-22)
(0.9331 -0.00578708 -3.15087e-22)
(0.911076 -0.00756505 3.74917e-22)
(0.885279 -0.00979933 -3.33271e-22)
(0.855367 -0.0125885 3.89991e-22)
(0.82082 -0.0160954 -1.00762e-21)
(0.781182 -0.0204552 5.53998e-22)
(0.7358 -0.0258621 -1.22339e-21)
(0.684382 -0.0323235 4.90896e-22)
(0.626338 -0.0393735 2.01331e-22)
(0.999887 -9.56844e-05 -9.67813e-23)
(0.996346 -0.000291167 9.42914e-23)
(0.989438 -0.000509348 -1.22834e-22)
(0.979782 -0.000763532 -1.72626e-22)
(0.967197 -0.00107294 1.61075e-22)
(0.951709 -0.00145412 2.52624e-22)
(0.933035 -0.00192933 1.73841e-22)
(0.910973 -0.00252214 -1.03774e-22)
(0.88512 -0.0032672 4.11674e-22)
(0.855124 -0.00419746 7.46911e-23)
(0.820456 -0.00536733 1.89141e-22)
(0.780642 -0.00682228 2.58673e-22)
(0.73501 -0.00862727 -7.4105e-24)
(0.683251 -0.0107857 -1.82923e-22)
(0.624766 -0.0131424 -2.7879e-23)
(1.00013 -0.000347168 0)
(1.00271 -0.00102756 0)
(1.00731 -0.00166633 0)
(1.01345 -0.0022711 0)
(1.02066 -0.00284017 0)
(1.02859 -0.00336514 0)
(1.03693 -0.00383725 0)
(1.04542 -0.00425036 0)
(1.05385 -0.00460174 0)
(1.06203 -0.00489189 0)
(1.06986 -0.00512421 0)
(1.07724 -0.00530396 0)
(1.08413 -0.00543794 0)
(1.09049 -0.00553178 0)
(1.09637 -0.00560231 0)
(1.00013 -0.00102551 0)
(1.00268 -0.00302773 0)
(1.00726 -0.00491147 0)
(1.01337 -0.00669918 0)
(1.02056 -0.00838443 0)
(1.02849 -0.00994228 0)
(1.03685 -0.0113466 0)
(1.04538 -0.0125783 0)
(1.05387 -0.0136281 0)
(1.06213 -0.0144968 0)
(1.07004 -0.0151937 0)
(1.07751 -0.0157338 0)
(1.08449 -0.0161369 0)
(1.09094 -0.0164194 0)
(1.09692 -0.0166292 0)
(1.00013 -0.00166747 0)
(1.00264 -0.00491396 0)
(1.00716 -0.0079779 0)
(1.01321 -0.010897 0)
(1.02036 -0.0136587 0)
(1.02828 -0.0162217 0)
(1.03667 -0.0185419 0)
(1.04528 -0.0205854 0)
(1.05387 -0.022334 0)
(1.06226 -0.0237862 0)
(1.07033 -0.0249551 0)
(1.07797 -0.0258642 0)
(1.08513 -0.026545 0)
(1.09176 -0.0270238 0)
(1.09793 -0.0273805 0)
(1.00012 -0.0022676 0)
(1.00257 -0.00667936 0)
(1.00701 -0.0108584 0)
(1.01296 -0.0148597 0)
(1.02005 -0.0186652 0)
(1.02795 -0.0222169 0)
(1.03637 -0.0254508 0)
(1.04507 -0.0283153 0)
(1.0538 -0.0307798 0)
(1.06239 -0.032837 0)
(1.07068 -0.0345012 0)
(1.07856 -0.0358016 0)
(1.08596 -0.0367806 0)
(1.09284 -0.0374731 0)
(1.09928 -0.0379936 0)
(1.00012 -0.0028238 0)
(1.00249 -0.00831879 0)
(1.0068 -0.0135464 0)
(1.01262 -0.0185818 0)
(1.01961 -0.0234024 0)
(1.02746 -0.0279334 0)
(1.03591 -0.0320891 0)
(1.04471 -0.0357963 0)