/*--------------------------------*- C++ -*----------------------------------*\
  =========                 |
  \\      /  F ield         | OpenFOAM: The Open Source CFD Toolbox
   \\    /   O peration     | Website:  https://openfoam.org
    \\  /    A nd           | Version:  7
     \\/     M anipulation  |
\*---------------------------------------------------------------------------*/
FoamFile
{
    version     2.0;
    format      ascii;
    class       volScalarField;
    location    "20";
    object      p;
}
// * * * * * * * * * * * * * * * * * * * * * * * * * * * * * * * * * * * * * //

dimensions      [0 2 -2 0 0 0 0];

internalField   nonuniform List<scalar> 
2125
(
0.866542
0.809202
0.777409
0.866542
0.809202
0.777409
0.749563
0.722298
0.694587
0.665566
0.635312
0.604325
0.573277
0.862059
0.804975
0.773396
0.745812
0.718852
0.691463
0.662763
0.632816
0.602097
0.571313
0.853126
0.79655
0.765395
0.738336
0.711981
0.685233
0.657173
0.627838
0.597653
0.567394
0.839802
0.783987
0.753464
0.727183
0.701728
0.675934
0.648828
0.620404
0.591016
0.561537
0.822181
0.767372
0.737683
0.712427
0.688158
0.663621
0.637773
0.610554
0.582218
0.553766
0.800383
0.746823
0.71816
0.694165
0.671356
0.648367
0.62407
0.59834
0.571306
0.544116
0.774558
0.722483
0.695031
0.672518
0.651425
0.630261
0.607794
0.583824
0.558332
0.532626
0.744883
0.69452
0.668452
0.647628
0.628491
0.609409
0.589035
0.567083
0.54336
0.519343
0.711562
0.66313
0.638606
0.619659
0.602697
0.585934
0.567896
0.548201
0.526463
0.504317
0.674823
0.628531
0.605697
0.588795
0.574203
0.559972
0.544492
0.527276
0.507719
0.487606
0.634916
0.590961
0.56995
0.555239
0.543187
0.531676
0.518949
0.50441
0.487215
0.469267
0.592113
0.550682
0.531608
0.519211
0.509841
0.501209
0.491405
0.479718
0.465043
0.449362
0.546704
0.507971
0.490932
0.480949
0.474374
0.46875
0.462008
0.453323
0.441302
0.427952
0.498997
0.46312
0.448198
0.440703
0.437008
0.434488
0.430919
0.425352
0.416096
0.4051
0.449314
0.416438
0.403697
0.398737
0.397975
0.398626
0.398307
0.395947
0.389537
0.380868
0.397988
0.368242
0.357727
0.355327
0.35752
0.361376
0.364352
0.365256
0.36175
0.355324
0.345361
0.318858
0.310599
0.310756
0.315898
0.32296
0.329246
0.333441
0.332881
0.328522
0.291783
0.268617
0.262626
0.265316
0.273369
0.28361
0.293192
0.300672
0.303056
0.300462
0.237605
0.217853
0.214126
0.219301
0.230202
0.243566
0.256404
0.267108
0.272366
0.271049
0.183179
0.166899
0.165417
0.173009
0.186668
0.203077
0.219114
0.232961
0.24142
0.241528
0.128853
0.116084
0.116813
0.126733
0.143036
0.162387
0.181562
0.198575
0.212166
0.219737
0.0749678
0.0657291
0.0686213
0.0807623
0.0995671
0.121716
0.143919
0.163894
0.181234
0.19488
0.0218566
0.0161439
0.0211414
0.0353793
0.0565195
0.0812799
0.106341
0.129116
0.14935
0.167573
-0.0301626
-0.032374
-0.0253409
-0.00914334
0.014147
0.0413105
0.0690307
0.0945045
0.117373
0.139217
-0.0808117
-0.0795275
-0.0705526
-0.052544
-0.0273022
0.00204124
0.0322045
0.060255
0.0856594
0.110449
-0.129813
-0.125051
-0.114239
-0.0945767
-0.0675897
-0.0363025
-0.00392694
0.026531
0.0543485
0.0817089
-0.176848
-0.168741
-0.156165
-0.135017
-0.106491
-0.0735067
-0.0391625
-0.006497
0.0235731
0.0532708
-0.221707
-0.210358
-0.196115
-0.173629
-0.14382
-0.109373
-0.0733126
-0.0386579
-0.00651869
0.0253218
-0.264184
-0.249707
-0.233905
-0.210248
-0.179357
-0.143724
-0.106203
-0.0697917
-0.03579
-0.00197645
-0.304094
-0.286625
-0.269373
-0.244709
-0.212952
-0.176383
-0.137676
-0.0997556
-0.0641362
-0.0284633
-0.341282
-0.320975
-0.302385
-0.276871
-0.244462
-0.207211
-0.167589
-0.128423
-0.0914617
-0.0539623
-0.375625
-0.352651
-0.332837
-0.306623
-0.273767
-0.236083
-0.19582
-0.155662
-0.117381
-0.0786301
-0.407028
-0.381578
-0.360655
-0.333885
-0.300775
-0.262898
-0.222265
-0.181396
-0.142135
-0.102909
-0.435432
-0.40771
-0.385794
-0.358603
-0.325421
-0.287578
-0.246837
-0.205534
-0.165528
-0.125728
-0.460807
-0.431031
-0.408237
-0.380752
-0.347663
-0.310067
-0.269468
-0.227998
-0.187486
-0.147198
-0.483155
-0.451553
-0.427998
-0.400335
-0.367489
-0.330334
-0.290113
-0.248735
-0.207983
-0.167428
-0.502505
-0.469317
-0.445116
-0.417382
-0.384911
-0.348372
-0.308747
-0.267713
-0.226982
-0.186406
-0.518918
-0.484386
-0.459655
-0.431947
-0.399967
-0.364196
-0.325367
-0.284913
-0.244449
-0.204099
-0.532477
-0.49685
-0.471702
-0.444109
-0.412717
-0.377844
-0.339988
-0.300331
-0.260369
-0.220491
-0.54329
-0.506817
-0.481365
-0.453966
-0.423243
-0.389376
-0.352645
-0.313983
-0.274741
-0.235583
-0.551485
-0.514414
-0.488768
-0.461636
-0.431647
-0.39887
-0.363391
-0.325899
-0.287578
-0.24939
-0.557209
-0.519781
-0.494052
-0.467251
-0.438046
-0.406423
-0.372297
-0.336126
-0.29891
-0.261937
-0.560621
-0.523073
-0.497366
-0.470956
-0.442573
-0.412145
-0.379449
-0.344726
-0.308778
-0.273262
-0.561892
-0.524449
-0.498869
-0.472906
-0.44537
-0.416163
-0.384949
-0.351774
-0.317235
-0.283417
-0.561202
-0.524079
-0.498727
-0.473259
-0.446589
-0.41861
-0.388908
-0.357358
-0.324349
-0.292464
-0.558733
-0.522131
-0.497104
-0.472181
-0.446387
-0.419629
-0.391448
-0.361574
-0.330195
-0.300475
-0.554671
-0.518776
-0.494168
-0.469834
-0.44492
-0.419366
-0.392697
-0.364529
-0.334857
-0.30753
-0.549198
-0.51418
-0.49008
-0.466379
-0.442347
-0.417969
-0.392786
-0.366331
-0.338425
-0.313711
-0.542494
-0.508506
-0.485
-0.461973
-0.438821
-0.415586
-0.391847
-0.367091
-0.340989
-0.534729
-0.501909
-0.479076
-0.456765
-0.434491
-0.41236
-0.390011
-0.366921
-0.526066
-0.494535
-0.472451
-0.450896
-0.429499
-0.408427
-0.387404
-0.516656
-0.486521
-0.465257
-0.444497
-0.423974
-0.506638
-0.477993
-0.457614
-0.437688
-0.496141
-0.469065
-0.449631
-0.485277
-0.459841
-0.47415
-0.450414
-0.462856
0.245482
0.248171
0.253927
0.261795
0.271735
0.283295
0.296052
0.309397
0.322326
0.333737
0.341592
0.344445
0.337942
0.323588
0.287565
0.246133
0.248855
0.254709
0.262725
0.272895
0.284793
0.298052
0.312136
0.326136
0.33909
0.349085
0.354906
0.35234
0.34289
0.315114
0.246743
0.249461
0.255352
0.26343
0.273709
0.285784
0.299327
0.313867
0.328574
0.342625
0.35424
0.362452
0.363301
0.358145
0.337289
0.247324
0.250043
0.255977
0.264128
0.27453
0.286804
0.300658
0.315687
0.331136
0.346309
0.359556
0.370101
0.374258
0.373114
0.358652
0.247878
0.250604
0.256586
0.264817
0.275354
0.287837
0.302016
0.317545
0.333743
0.350029
0.364881
0.37767
0.385016
0.387687
0.379082
0.248401
0.251134
0.257165
0.265473
0.276137
0.28882
0.303307
0.319308
0.336211
0.353544
0.36991
0.384805
0.395172
0.401476
0.39827
0.248893
0.251633
0.25771
0.26609
0.276873
0.289743
0.304516
0.320956
0.33852
0.356828
0.374617
0.391481
0.404696
0.414465
0.416263
0.249353
0.252102
0.25822
0.266669
0.277563
0.290607
0.305648
0.322501
0.340681
0.359901
0.379025
0.397729
0.413611
0.426674
0.433108
0.24978
0.252538
0.258696
0.267208
0.278207
0.291413
0.306705
0.32394
0.342697
0.362763
0.383131
0.403545
0.42191
0.438084
0.448806
0.250174
0.252941
0.259143
0.267707
0.278802
0.29216
0.307683
0.325272
0.34456
0.365406
0.386925
0.408919
0.429573
0.448662
0.463343
0.250534
0.25331
0.259558
0.268165
0.279349
0.292844
0.30858
0.326492
0.346267
0.367826
0.390398
0.41384
0.436589
0.458381
0.476697
0.250859
0.253644
0.259886
0.268581
0.279844
0.293465
0.309393
0.327598
0.347814
0.370017
0.393544
0.418299
0.442944
0.467213
0.48884
0.25115
0.253942
0.260224
0.268953
0.280287
0.294021
0.310121
0.328587
0.349199
0.371976
0.396357
0.422288
0.448627
0.475132
0.49974
0.251405
0.254205
0.260518
0.269279
0.280678
0.29451
0.310761
0.329458
0.350416
0.373699
0.39883
0.425799
0.453627
0.482115
0.509365
0.251624
0.254431
0.260766
0.269561
0.281014
0.294931
0.311313
0.330208
0.351465
0.375183
0.40096
0.428823
0.457933
0.488141
0.517683
0.251808
0.254621
0.260973
0.269796
0.281296
0.295284
0.311775
0.330835
0.352343
0.376424
0.402741
0.431354
0.461537
0.493192
0.524664
0.251955
0.254773
0.261139
0.269985
0.281522
0.295568
0.312147
0.331339
0.353048
0.37742
0.404171
0.433386
0.464431
0.497251
0.530282
0.252065
0.254887
0.261265
0.270127
0.281692
0.295781
0.312426
0.331717
0.353578
0.378168
0.405246
0.434914
0.466607
0.500306
0.534516
0.252139
0.254963
0.261348
0.270222
0.281806
0.295923
0.312612
0.33197
0.353931
0.378668
0.405963
0.435935
0.46806
0.502349
0.537348
0.252176
0.255001
0.26139
0.27027
0.281862
0.295994
0.312705
0.332097
0.354109
0.378919
0.406322
0.436446
0.468788
0.503371
0.538767
0.177982
0.17573
0.171406
0.165475
0.15838
0.150476
0.142063
0.133404
0.124726
0.116213
0.108005
0.100201
0.092867
0.0860369
0.079727
0.178671
0.176443
0.172144
0.16624
0.159162
0.151257
0.14282
0.134116
0.125373
0.11678
0.108481
0.10058
0.093147
0.0862189
0.0798174
0.179955
0.177765
0.17352
0.167669
0.160627
0.152723
0.144246
0.135462
0.126601
0.11786
0.109391
0.101307
0.0936847
0.0865669
0.0799823
0.18174
0.179604
0.175439
0.169674
0.162691
0.1548
0.146277
0.137387
0.128367
0.119419
0.11071
0.102365
0.0944732
0.0870838
0.080239
0.183939
0.181874
0.177821
0.172176
0.165284
0.157425
0.148862
0.139854
0.130641
0.12144
0.11243
0.103754
0.0955154
0.0877751
0.0805918
0.186475
0.184498
0.18059
0.175105
0.168342
0.160547
0.15196
0.142833
0.133409
0.123916
0.114553
0.10548
0.0968229
0.0886547
0.081057
0.189274
0.187405
0.183677
0.178397
0.171811
0.164119
0.155538
0.146304
0.136661
0.12685
0.117088
0.10756
0.0984141
0.0897418
0.0816523
0.192274
0.190529
0.187019
0.181994
0.175636
0.1681
0.159566
0.150251
0.140396
0.13025
0.120054
0.110015
0.100314
0.0910612
0.0824005
0.195414
0.193813
0.19056
0.185839
0.17977
0.17245
0.164017
0.154661
0.144613
0.13413
0.123471
0.112875
0.102553
0.0926427
0.0833278
0.198643
0.197203
0.194245
0.189883
0.184166
0.177131
0.168865
0.159522
0.149315
0.138504
0.127367
0.116172
0.105166
0.0945211
0.0844646
0.201915
0.200652
0.198026
0.194075
0.188777
0.182103
0.174081
0.164819
0.154504
0.14339
0.13177
0.119942
0.108194
0.0967362
0.0858454
0.205188
0.204118
0.201858
0.198371
0.19356
0.187328
0.179635
0.170536
0.160179
0.148803
0.13671
0.124226
0.111682
0.0993326
0.087509
0.208428
0.207564
0.205703
0.202727
0.198471
0.192764
0.185496
0.176654
0.166337
0.154758
0.142218
0.129067
0.115679
0.10236
0.0894986
0.211606
0.210957
0.209523
0.207102
0.203466
0.198371
0.191628
0.183149
0.172971
0.161266
0.148321
0.134508
0.120236
0.105875
0.0918625
0.214695
0.214271
0.213286
0.211461
0.208506
0.204106
0.197991
0.189992
0.180066
0.168332
0.155048
0.140593
0.125409
0.109936
0.0946542
0.217676
0.217482
0.216966
0.215769
0.213551
0.209926
0.204544
0.197147
0.187602
0.175957
0.162419
0.147365
0.131255
0.11461
0.0979326
0.220534
0.220573
0.220539
0.219995
0.218562
0.215788
0.211243
0.204577
0.195553
0.184133
0.17045
0.154865
0.137833
0.119969
0.101762
0.223256
0.223529
0.223984
0.224114
0.223504
0.221649
0.21804
0.212234
0.203883
0.192844
0.179151
0.16313
0.145201
0.126088
0.106214
0.225833
0.226339
0.227286
0.2281
0.228347
0.227468
0.224888
0.220072
0.21255
0.202064
0.18852
0.17219
0.153414
0.133049
0.111362
0.228261
0.228995
0.230432
0.231935
0.233059
0.233205
0.231738
0.228035
0.221504
0.211758
0.198548
0.182066
0.162526
0.140935
0.117286
0.230537
0.231494
0.233414
0.235603
0.237617
0.238825
0.238542
0.236069
0.230689
0.22188
0.209211
0.192771
0.172583
0.149833
0.124069
0.23266
0.233834
0.236225
0.239092
0.241999
0.244293
0.245254
0.244116
0.240044
0.232376
0.220474
0.204305
0.183622
0.159828
0.131795
0.234632
0.236014
0.238862
0.242391
0.246185
0.249579
0.251831
0.25212
0.249502
0.243179
0.23229
0.216651
0.195671
0.170999
0.140545
0.236457
0.238036
0.241325
0.245496
0.250164
0.254658
0.258232
0.260023
0.258994
0.254218
0.244595
0.229775
0.208738
0.183409
0.15039
0.238139
0.239905
0.243614
0.248404
0.253923
0.25951
0.264422
0.267775
0.268455
0.265416
0.257325
0.243642
0.222845
0.197142
0.161428
0.239683
0.241627
0.245734
0.251115
0.25746
0.264121
0.270376
0.275334
0.277828
0.276711
0.270427
0.258228
0.238045
0.212345
0.173874
0.241096
0.243206
0.247689
0.253633
0.260772
0.26848
0.276068
0.282658
0.287048
0.288013
0.283796
0.273428
0.254272
0.228989
0.187807
0.242383
0.244646
0.249479
0.25595
0.26384
0.27255
0.281432
0.28963
0.29593
0.299045
0.297041
0.288707
0.270867
0.246076
0.202005
0.243551
0.245948
0.251097
0.258046
0.266624
0.27626
0.28635
0.296071
0.304209
0.309436
0.309667
0.303444
0.287148
0.26263
0.214736
0.244615
0.247143
0.252587
0.259985
0.269219
0.279762
0.291075
0.302405
0.312592
0.320343
0.323516
0.320532
0.307422
0.285474
0.235917
0.0755874
0.0734298
0.0712731
0.0691121
0.0669445
0.0647716
0.0625952
0.0604166
0.0582371
0.0560579
0.0538803
0.0517056
0.0495352
0.0473702
0.0452119
0.0430615
0.0409204
0.0387898
0.0366708
0.0345645
0.075615
0.073445
0.0712812
0.0691115
0.0669314
0.0647423
0.0625464
0.0603454
0.0581406
0.0559333
0.053725
0.0515171
0.0493111
0.0471086
0.0449111
0.04272
0.0405369
0.0383634
0.0362008
0.0340507
0.0756362
0.0734101
0.0712033
0.0689917
0.0667661
0.0645285
0.0622822
0.0600293
0.0577709
0.0555087
0.0532443
0.0509793
0.0487154
0.0464542
0.0441974
0.0419466
0.0397035
0.0374702
0.0352477
0.0330376
0.075689
0.0733747
0.0710991
0.068822
0.066527
0.0642171
0.0618968
0.0595682
0.0572329
0.0548924
0.0525484
0.0502027
0.0478571
0.0455134
0.0431734
0.0408388
0.0385113
0.0361945
0.0338878
0.0315934
0.0757736
0.0733362
0.0709639
0.0685956
0.0662056
0.0637976
0.0613778
0.0589489
0.0565122
0.0540694
0.0516223
0.0491729
0.0467229
0.0442745
0.0418295
0.0393897
0.0369572
0.0345345
0.0321227
0.0297237
0.0759129
0.0733193
0.0708228
0.0683381
0.0658279
0.0632965
0.0607524
0.0581987
0.0556366
0.0530678
0.0504941
0.0479176
0.0453405
0.0427646
0.0401921
0.0376252
0.0350661
0.0325147
0.0299755
0.0274502
0.076125
0.0733404
0.0706901
0.0680621
0.0654049
0.0627237
0.0600291
0.0573248
0.054612
0.0518922
0.0491674
0.0464398
0.0437116
0.0409849
0.0382617
0.0355443
0.0328349
0.0301349
0.0274472
0.0247736
0.0764346
0.0734223
0.0705865
0.0677865
0.0649542
0.0620949
0.0592221
0.0563402
0.0534501
0.0505533
0.0476518
0.044748
0.041844
0.038942
0.0360442
0.0331528
0.0302701
0.0273978
0.0245384
0.021694
0.076868
0.0735886
0.0705321
0.0675289
0.0644907
0.061423
0.0583423
0.0552536
0.0521577
0.049056
0.0459505
0.0428436
0.0397375
0.0366344
0.0335366
0.0304462
0.0273658
0.0242969
0.0212419
0.0182031
0.0774557
0.0738663
0.0705499
0.0673088
0.0640313
0.060722
0.0574009
0.054074
0.0507416
0.0474048
0.044066
0.0407273
0.037391
0.0340594
0.0307346
0.0274188
0.0241148
0.0208237
0.0175481
0.0142902
0.0782318
0.0742849
0.0706643
0.0671468
0.0635931
0.0600059
0.0564089
0.0528091
0.0492067
0.0456024
0.0419984
0.038397
0.0348004
0.0312108
0.0276303
0.024061
0.0205061
0.0169661
0.0134433
0.00994025
0.0792342
0.074877
0.0709022
0.0670652
0.0631944
0.059289
0.0553769
0.0514664
0.0475572
0.0436497
0.039746
0.0358483
0.0319587
0.0280794
0.0242122
0.0203591
0.0165247
0.0127072
0.00890926
0.00513368
0.0805055
0.0756788
0.0712929
0.0670881
0.0628547
0.0585864
0.0543158
0.0500529
0.0457967
0.0415473
0.0373064
0.0330762
0.0288589
0.0246564
0.0204702
0.0163011
0.0121596
0.00803458
0.00393063
-0.000147247
0.0820932
0.0767304
0.0718685
0.0672415
0.0625945
0.0579135
0.0532361
0.0485742
0.0439263
0.0392917
0.0346717
0.0300682
0.0254829
0.020917
0.0163682
0.0118329
0.00736801
0.00291047
-0.00152764
-0.00593572
0.0840504
0.0780768
0.0726648
0.0675542
0.0624368
0.0572876
0.0521499
0.0470382
0.0419505
0.0368851
0.0318434
0.0268273
0.0218383
0.0168781
0.0119517
0.007068
0.00216802
-0.002679
-0.00748188
-0.0122495
0.0864372
0.0797682
0.0737213
0.0680575
0.0624052
0.0567247
0.0510657
0.045446
0.0398624
0.0343124
0.0287966
0.0233166
0.0178732
0.0124672
0.00710013
0.00177593
-0.00351624
-0.00876321
-0.0139662
-0.0191271
0.0893219
0.0818628
0.0750842
0.0687882
0.0625288
0.0562463
0.0499983
0.0438062
0.037666
0.0315739
0.02553
0.0195353
0.0135906
0.00769592
0.00185188
-0.00393642
-0.00967947
-0.0153713
-0.0210105
-0.0265975
0.0927824
0.0844271
0.0768057
0.0697879
0.0628393
0.0558749
0.0489609
0.0421237
0.035358
0.0286586
0.022025
0.0154577
0.00895707
0.00252233
-0.00384743
-0.0101402
-0.0163774
-0.0225526
-0.0286619
-0.0347062
0.096908
0.0875387
0.0789474
0.0711054
0.0633746
0.0556375
0.0479706
0.0404059
0.0329372
0.0255573
0.0182648
0.0110601
0.00394234
-0.00309209
-0.0100486
-0.016881
-0.0236529
-0.0303506
-0.0369654
-0.0434985
0.101801
0.0912881
0.0815812
0.0727985
0.0641801
0.0555672
0.0470482
0.0386628
0.0304032
0.0222605
0.0142326
0.00631898
-0.00148204
-0.00917563
-0.0167656
-0.0242105
-0.0315676
-0.0388249
-0.0459783
-0.0530304
0.107579
0.0957803
0.0847914
0.0749358
0.0653102
0.0557041
0.0462202
0.0369075
0.027757
0.0187577
0.00990727
0.00120543
-0.00734915
-0.0157529
-0.0239878
-0.0321607
-0.0401695
-0.0480298
-0.0557587
-0.0633612
0.114375
0.101137
0.0886768
0.0775992
0.0668315
0.0560987
0.045521
0.035159
0.0250021
0.0150368
0.00526038
-0.00432723
-0.0137283
-0.0229455
-0.0319567
-0.0408292
-0.0495228
-0.0580373
-0.0663826
-0.074565
0.122337
0.107493
0.093351
0.0808861
0.0688251
0.0568144
0.044997
0.0334475
0.0221531
0.011098
0.000279786
-0.0103006
-0.0206482
-0.0307743
-0.0405931
-0.0502512
-0.0597029
-0.0689261
-0.0779288
-0.0867211
0.131614
0.11499
0.0989378
0.0849075
0.0713855
0.0579271
0.0447054
0.0318119
0.019231
0.00694475
-0.00504903
-0.0167535
-0.028199
-0.039433
-0.0500771
-0.0605791
-0.0708361
-0.0808077
-0.0905021
-0.0999286
0.142361
0.123766
0.105566
0.0897864
0.0746213
0.059527
0.0447183
0.0303052
0.0162696
0.00259535
-0.0107131
-0.0236473
-0.0361804
-0.0482195
-0.0602768
-0.0718389
-0.082977
-0.0937573
-0.104191
-0.11428
0.154775
0.13398
0.113389
0.0956689
0.0786593
0.0617208
0.0451221
0.0289888
0.0132985
-0.00196268
-0.0167838
-0.0311607
-0.0451032
-0.0584415
-0.0715152
-0.084122
-0.0962409
-0.107902
-0.119116
-0.129886
0.169022
0.145779
0.122542
0.102665
0.0835749
0.0645629
0.0459586
0.0278929
0.0103385
-0.00671209
-0.0232503
-0.0393322
-0.0550745
-0.0695342
-0.0837977
-0.0975654
-0.110744
-0.123346
-0.135378
-0.146844
0.184968
0.159288
0.133317
0.111113
0.0896902
0.0683577
0.0475095
0.0272662
0.0076039
-0.0114637
-0.0298997
-0.0476264
-0.0643652
-0.0812295
-0.0971273
-0.112189
-0.126529
-0.140151
-0.153043
-0.165206
0.202303
0.17475
0.1465
0.1219
0.0978152
0.0738201
0.050364
0.0275525
0.00538574
-0.0160971
-0.0368586
-0.0568655
-0.0757152
-0.0941515
-0.111641
-0.128171
-0.143787
-0.158476
-0.172222
-0.185021
0.215576
0.185086
0.155611
0.128946
0.102511
0.0762582
0.050534
0.0254194
0.000958398
-0.0227929
-0.0458355
-0.0681729
-0.0887518
-0.108768
-0.127823
-0.145793
-0.162665
-0.178414
-0.193016
-0.206456
0.032472
0.0303947
0.0283334
0.0262894
0.0242635
0.0222569
0.0202705
0.0183051
0.0163618
0.0319144
0.0297934
0.027689
0.0256027
0.0235356
0.0214891
0.0194644
0.0174626
0.0154847
0.0308417
0.0286615
0.0264986
0.0243543
0.02223
0.0201272
0.0180472
0.0159911
0.0139601
0.0293135
0.0270497
0.0248037
0.022577
0.0203712
0.0181878
0.0160282
0.0138938
0.0117859
0.0273395
0.024972
0.0226229
0.0202939
0.0179866
0.0157027
0.0134436
0.0112108
0.00900572
0.0249402
0.0224475
0.0199738
0.0175211
0.015091
0.0126852
0.0103053
0.00795286
0.00562923
0.0221162
0.0194768
0.0168573
0.0142597
0.0116857
0.00913698
0.00661529
0.00412215
0.00165904
0.0188666
0.0160582
0.0132709
0.0105064
0.0077666
0.00505329
0.00236812
-0.000287325
-0.00291153
0.0151826
0.0121823
0.00920415
0.00625015
0.00332211
0.000421777
-0.00244917
-0.00528913
-0.00809661
0.011052
0.00783565
0.00464295
0.00147584
-0.00166389
-0.0047745
-0.00785434
-0.0109019
-0.0139156
0.00645889
0.00300118
-0.000431008
-0.00383587
-0.00721166
-0.0105567
-0.0138695
-0.0171485
-0.0203923
0.00138242
-0.00234281
-0.00604031
-0.00970837
-0.0133454
-0.0169499
-0.0205203
-0.0240554
-0.00419705
-0.00821764
-0.0122076
-0.0161656
-0.0200901
-0.0239798
-0.0278336
-0.0316502
-0.0103116
-0.0146546
-0.0189638
-0.0232379
-0.0274757
-0.0316764
-0.0358389
-0.0399626
-0.0169818
-0.0216769
-0.0263336
-0.0309512
-0.035529
-0.0400666
-0.0445636
-0.0490195
-0.0242455
-0.0293205
-0.0343516
-0.0393386
-0.0442816
-0.0491806
-0.0540359
-0.058848
-0.0321326
-0.0376162
-0.0430486
-0.0484302
-0.0537621
-0.059045
-0.0642804
-0.0694698
-0.040687
-0.0466057
-0.0524634
-0.0582618
-0.0640026
-0.0696881
-0.0753209
-0.0809039
-0.0499531
-0.0563315
-0.0626361
-0.0688695
-0.0750349
-0.0811361
-0.0871774
-0.0931636
-0.0599847
-0.0668442
-0.0736125
-0.0802939
-0.086893
-0.0934156
-0.0998678
-0.106257
-0.0708399
-0.0781989
-0.0854433
-0.092579
-0.0996129
-0.106553
-0.113407
-0.120186
-0.0825892
-0.0904609
-0.0981867
-0.105775
-0.113233
-0.120573
-0.127806
-0.134945
-0.09531
-0.103702
-0.111907
-0.119934
-0.127794
-0.135501
-0.143069
-0.150516
-0.109094
-0.118006
-0.126675
-0.135113
-0.143334
-0.151353
-0.159191
-0.166868
-0.12403
-0.133451
-0.142556
-0.151358
-0.159874
-0.168125
-0.176134
-0.183929
-0.140218
-0.150124
-0.159617
-0.168714
-0.177434
-0.185802
-0.193847
-0.201604
-0.157748
-0.168103
-0.177924
-0.187232
-0.19605
-0.204409
-0.212344
-0.219899
-0.176646
-0.187379
-0.197422
-0.206803
-0.215555
-0.223721
-0.231351
-0.238504
-0.196878
-0.207805
-0.217826
-0.226973
-0.235293
-0.242843
-0.249695
-0.255933
-0.218731
-0.229847
-0.239822
-0.248686
-0.256484
-0.263275
-0.269134
-0.274152
)
;

boundaryField
{
    inlet
    {
        type            zeroGradient;
    }
    outlet
    {
        type            fixedValue;
        value           nonuniform 0();
    }
    cylinder
    {
        type            zeroGradient;
    }
    top
    {
        type            symmetryPlane;
    }
    bottom
    {
        type            symmetryPlane;
    }
    defaultFaces
    {
        type            empty;
    }
    procBoundary0to1
    {
        type            processor;
        value           nonuniform List<scalar> 
50
(
-0.3191
-0.3191
-0.342641
-0.342641
-0.365926
-0.403919
-0.365926
-0.384146
-0.403919
-0.418038
-0.418038
-0.430577
-0.430577
-0.441406
-0.441406
-0.433025
-0.440866
-0.440866
-0.451478
0.0144413
0.0135319
0.0119555
0.00970565
0.00682956
0.00333581
-0.000772644
-0.00550308
-0.0108702
-0.0168942
-0.0235996
-0.0275539
-0.0275539
-0.0354288
-0.0440467
-0.0534345
-0.0636175
-0.074615
-0.0864408
-0.0991006
-0.112592
-0.126902
-0.142006
-0.157863
-0.174411
-0.191541
-0.209112
-0.227122
-0.245247
-0.261659
-0.278434
)
;
    }
    procBoundary0to2
    {
        type            processor;
        value           nonuniform List<scalar> 
26
(
0.862059
0.804975
0.773396
0.749563
0.749563
0.722298
0.694587
0.665566
0.635312
0.604325
0.573277
0.252176
0.255001
0.26139
0.27027
0.281862
0.295994
0.312705
0.332097
0.354109
0.378919
0.406322
0.436446
0.468788
0.503371
0.538767
)
;
    }
}


// ************************************************************************* //
