/*--------------------------------*- C++ -*----------------------------------*\
  =========                 |
  \\      /  F ield         | OpenFOAM: The Open Source CFD Toolbox
   \\    /   O peration     | Website:  https://openfoam.org
    \\  /    A nd           | Version:  7
     \\/     M anipulation  |
\*---------------------------------------------------------------------------*/
FoamFile
{
    version     2.0;
    format      ascii;
    class       volVectorField;
    location    "20";
    object      U;
}
// * * * * * * * * * * * * * * * * * * * * * * * * * * * * * * * * * * * * * //

dimensions      [0 1 -1 0 0 0 0];

internalField   nonuniform List<vector> 
2125
(
(0.00620019 0.00536208 1.06861e-21)
(0.0350301 0.0128182 -3.12953e-21)
(0.0904466 0.0175621 -3.68142e-21)
(0.00620019 -0.00536208 -1.06861e-21)
(0.0350301 -0.0128182 3.12953e-21)
(0.0904466 -0.0175621 3.68142e-21)
(0.158068 -0.0201588 -3.70849e-21)
(0.231778 -0.0210753 3.45811e-21)
(0.306785 -0.0207803 1.84685e-21)
(0.379497 -0.019704 -3.14581e-21)
(0.447771 -0.0182012 -3.8855e-21)
(0.510551 -0.0165367 6.14559e-22)
(0.567502 -0.0148728 -1.81956e-21)
(0.00702273 -0.0160393 1.16247e-21)
(0.0369486 -0.0383508 -3.73347e-21)
(0.0929964 -0.0525555 8.69952e-21)
(0.160923 -0.0603386 -8.02863e-21)
(0.2347 -0.0630939 -3.9025e-22)
(0.309616 -0.062221 -6.01655e-21)
(0.382145 -0.0590067 1.04256e-20)
(0.45019 -0.0545125 1.51055e-20)
(0.512735 -0.0495308 2.87796e-21)
(0.569459 -0.0445486 -6.52523e-21)
(0.0086582 -0.0265762 -1.01378e-21)
(0.0407651 -0.0635729 -7.94582e-21)
(0.0980708 -0.0871573 -1.91236e-20)
(0.166605 -0.100106 1.73965e-20)
(0.24052 -0.104717 3.83745e-21)
(0.315258 -0.103303 3.60284e-21)
(0.387424 -0.0979948 -1.87455e-20)
(0.455014 -0.090551 -1.17242e-20)
(0.517093 -0.0822874 -2.78769e-21)
(0.573364 -0.074015 2.01653e-20)
(0.0110875 -0.0368808 -3.61848e-21)
(0.0464387 -0.0882807 4.79486e-21)
(0.10562 -0.12111 3.48939e-20)
(0.175066 -0.139189 -3.25609e-21)
(0.24919 -0.145684 -9.92476e-21)
(0.323669 -0.143791 7.61832e-21)
(0.395299 -0.136461 5.47832e-22)
(0.462216 -0.126137 3.0528e-21)
(0.5236 -0.11465 -7.03659e-21)
(0.579202 -0.103134 -1.97543e-20)
(0.0142823 -0.0468638 -2.53467e-21)
(0.0539086 -0.112276 1.42436e-20)
(0.11557 -0.154163 -3.528e-20)
(0.186228 -0.177322 1.61006e-20)
(0.260642 -0.18574 1.47837e-22)
(0.33479 -0.183453 -2.28802e-20)
(0.405719 -0.174201 1.07271e-20)
(0.471752 -0.161094 -1.12559e-21)
(0.532225 -0.146465 4.52053e-21)
(0.586945 -0.13177 -1.468e-21)
(0.0182053 -0.0564392 -2.87262e-20)
(0.0630946 -0.135366 -3.61725e-20)
(0.127821 -0.186072 9.65545e-21)
(0.199992 -0.214248 -1.84315e-20)
(0.274781 -0.224636 -5.56894e-21)
(0.348538 -0.222061 8.67031e-21)
(0.418618 -0.211015 3.38434e-21)
(0.48357 -0.19525 1.37339e-20)
(0.542922 -0.177583 -3.08408e-21)
(0.596562 -0.159791 1.78201e-20)
(0.0228105 -0.0655255 2.7509e-20)
(0.0738981 -0.157368 1.8506e-20)
(0.142254 -0.216603 -1.48831e-20)
(0.216233 -0.249716 2.58615e-20)
(0.291493 -0.262131 -2.45258e-21)
(0.364814 -0.259398 -3.12397e-20)
(0.43391 -0.246712 5.76141e-21)
(0.497598 -0.228438 -3.75453e-20)
(0.555635 -0.20786 1.33508e-21)
(0.60801 -0.187068 1.51989e-20)
(0.0280439 -0.0740464 -2.12231e-20)
(0.0862023 -0.178111 3.98985e-20)
(0.158724 -0.245536 1.58124e-20)
(0.234804 -0.283491 -2.02494e-20)
(0.31064 -0.297995 2.50709e-23)
(0.383496 -0.295252 5.77378e-20)
(0.451494 -0.281106 2.92549e-21)
(0.513756 -0.260499 2.89292e-20)
(0.570299 -0.237157 3.73227e-20)
(0.621239 -0.21348 -2.20668e-20)
(0.0338442 -0.0819317 1.21324e-20)
(0.0998743 -0.197433 -5.85672e-21)
(0.177067 -0.272663 -1.47603e-20)
(0.255535 -0.315348 1.17635e-20)
(0.332065 -0.332011 4.62555e-20)
(0.404448 -0.329425 -1.70222e-20)
(0.471256 -0.314021 -2.8903e-21)
(0.531949 -0.291279 -4.20972e-20)
(0.586836 -0.265343 -5.52476e-20)
(0.636193 -0.238909 2.53713e-20)
(0.0401429 -0.0891177 -1.70267e-20)
(0.114766 -0.215188 -1.57693e-20)
(0.197098 -0.297792 2.45942e-21)
(0.278238 -0.345079 -6.14576e-20)
(0.35559 -0.363972 -2.71016e-20)
(0.427512 -0.361726 -2.09024e-20)
(0.493061 -0.345291 -2.93537e-20)
(0.552066 -0.320638 1.41509e-20)
(0.60516 -0.292299 1.81876e-20)
(0.652805 -0.263249 2.90125e-20)
(0.046866 -0.0955487 2.45328e-21)
(0.130714 -0.231246 2.28206e-20)
(0.218617 -0.32075 1.68795e-20)
(0.302701 -0.372495 2.89078e-20)
(0.381017 -0.393691 2.36439e-20)
(0.452514 -0.391982 -2.394e-20)
(0.516762 -0.37476 2.3611e-20)
(0.573988 -0.348441 1.7123e-20)
(0.625171 -0.317911 -2.14475e-21)
(0.671003 -0.2864 -8.4283e-21)
(0.0539337 -0.101177 4.09917e-20)
(0.147545 -0.245491 -2.08313e-20)
(0.241405 -0.341383 -1.55448e-20)
(0.328697 -0.397421 -9.65894e-21)
(0.408132 -0.420994 1.83831e-20)
(0.479263 -0.42003 1.72188e-20)
(0.542197 -0.402285 -2.54509e-20)
(0.597579 -0.374569 2.08271e-20)
(0.64676 -0.342079 1.03822e-21)
(0.690703 -0.308275 2.18616e-20)
(0.0612623 -0.105963 -3.10812e-20)
(0.165072 -0.257826 -1.22746e-20)
(0.265228 -0.359557 -1.13904e-21)
(0.355983 -0.419706 1.79023e-20)
(0.436702 -0.445725 -2.76856e-21)
(0.507552 -0.445722 -1.95335e-20)
(0.569188 -0.427737 5.76779e-21)
(0.622691 -0.398909 6.75341e-21)
(0.669806 -0.364715 1.66529e-20)
(0.711813 -0.328801 -3.34784e-20)
(0.0687645 -0.109876 -1.64819e-20)
(0.183104 -0.268175 3.17261e-20)
(0.289842 -0.37516 2.38437e-20)
(0.384299 -0.439219 -1.1142e-20)
(0.466482 -0.467747 -2.40981e-20)
(0.53716 -0.468929 -1.91719e-20)
(0.597545 -0.450996 2.26688e-20)
(0.649164 -0.421366 -4.73103e-20)
(0.694174 -0.385743 1.3254e-20)
(0.734229 -0.347916 3.65747e-20)
(0.0763507 -0.112896 2.7848e-20)
(0.201438 -0.276478 -1.75996e-20)
(0.314992 -0.388104 5.61923e-21)
(0.413377 -0.45585 -4.05218e-22)
(0.497211 -0.486942 -7.16971e-21)
(0.567853 -0.489532 3.13485e-20)
(0.627063 -0.471959 -2.91775e-20)
(0.676824 -0.44185 2.96996e-20)
(0.719717 -0.405101 -4.82831e-20)
(0.757834 -0.36558 -1.87593e-20)
(0.0839302 -0.115012 -3.54433e-21)
(0.219871 -0.282698 -2.64401e-20)
(0.340416 -0.398324 4.76118e-21)
(0.442935 -0.469514 -6.90708e-21)
(0.528618 -0.503212 -6.01878e-21)
(0.599384 -0.507434 1.25973e-21)
(0.657527 -0.490531 -2.05038e-20)
(0.705486 -0.460285 -1.27187e-21)
(0.746272 -0.422734 2.98211e-20)
(0.782494 -0.381768 -4.01367e-20)
(0.0914119 -0.116223 1.20642e-20)
(0.238195 -0.286817 2.24619e-20)
(0.365847 -0.405781 -2.04347e-20)
(0.472686 -0.48015 -8.89949e-21)
(0.560426 -0.516481 5.28437e-20)
(0.631499 -0.522549 -4.47179e-20)
(0.688714 -0.506632 4.5191e-20)
(0.734957 -0.476601 4.46723e-22)
(0.773666 -0.438603 1.04006e-20)
(0.808069 -0.396473 3.7054e-20)
(0.0987062 -0.116537 -7.03455e-21)
(0.256204 -0.28884 -7.28845e-22)
(0.391015 -0.410461 5.19357e-21)
(0.502339 -0.487722 2.14866e-21)
(0.592347 -0.526693 -2.24364e-22)
(0.663937 -0.53481 1.63417e-20)
(0.720394 -0.520186 -8.80619e-21)
(0.76504 -0.490724 1.1626e-20)
(0.801711 -0.452648 -4.03922e-21)
(0.834393 -0.409678 -2.00829e-21)
(0.105725 -0.115973 1.34156e-20)
(0.273694 -0.288792 -1.36216e-21)
(0.415653 -0.412374 -2.06142e-22)
(0.531601 -0.492217 6.54795e-22)
(0.624095 -0.533814 -1.45084e-20)
(0.696435 -0.544163 3.98213e-20)
(0.752343 -0.531127 -3.15285e-20)
(0.795551 -0.502559 2.43772e-20)
(0.830183 -0.46471 -2.19681e-20)
(0.861125 -0.421242 -2.74129e-20)
(0.112385 -0.114559 -1.28965e-22)
(0.290467 -0.28672 -7.56952e-21)
(0.439496 -0.411559 8.60279e-21)
(0.560179 -0.493653 2.88012e-21)
(0.655381 -0.537837 -5.58265e-21)
(0.728737 -0.550579 -3.31506e-20)
(0.784356 -0.539397 8.46243e-21)
(0.826392 -0.511975 -5.84424e-21)
(0.859055 -0.474515 2.39378e-20)
(0.887902 -0.430971 -9.41245e-21)
(0.118606 -0.112332 1.24928e-21)
(0.306331 -0.282692 1.7004e-22)
(0.462286 -0.408081 5.6799e-22)
(0.587785 -0.492074 -3.5442e-21)
(0.685918 -0.538779 8.41162e-21)
(0.760584 -0.554056 4.80675e-21)
(0.816254 -0.544983 1.43503e-20)
(0.857629 -0.518946 -1.93866e-20)
(0.889364 -0.482337 -2.18011e-20)
(0.918689 -0.44121 1.18112e-20)
(0.124313 -0.10934 -1.02159e-21)
(0.321104 -0.276795 -3.24924e-21)
(0.483774 -0.402028 3.27464e-21)
(0.614134 -0.487552 -9.56742e-22)
(0.715416 -0.53669 6.10147e-22)
(0.791705 -0.554628 -6.18311e-21)
(0.847775 -0.547942 -1.36692e-20)
(0.888856 -0.523715 1.39099e-20)
(0.920128 -0.488663 -1.44097e-20)
(0.947934 -0.450012 -1.24465e-21)
(0.12944 -0.105635 -2.07428e-21)
(0.334617 -0.269136 1.41347e-21)
(0.50372 -0.393517 -2.31033e-21)
(0.638947 -0.480183 -1.41602e-21)
(0.74358 -0.53164 -4.00574e-21)
(0.821807 -0.552344 2.38858e-21)
(0.878617 -0.548317 -6.3863e-21)
(0.919636 -0.526309 -6.79695e-21)
(0.950416 -0.493218 3.0154e-20)
(0.976016 -0.45695 1.71872e-20)
(0.133926 -0.101282 -1.4989e-21)
(0.346712 -0.259837 -1.64629e-21)
(0.521899 -0.382685 -2.02333e-21)
(0.661956 -0.470091 7.24362e-23)
(0.77012 -0.523723 -2.01416e-21)
(0.850589 -0.547265 7.24431e-21)
(0.908471 -0.546129 -1.98069e-21)
(0.949626 -0.526677 5.80967e-21)
(0.97981 -0.495781 -6.66484e-21)
(1.00318 -0.461619 2.04878e-21)
(0.137722 -0.0963447 2.04825e-21)
(0.357251 -0.249039 7.7867e-21)
(0.538104 -0.369691 -1.86694e-21)
(0.682906 -0.45742 -2.24293e-22)
(0.794754 -0.51305 -1.63053e-21)
(0.87776 -0.539463 -2.19431e-21)
(0.937041 -0.541407 5.13996e-21)
(0.978556 -0.524789 1.45897e-21)
(1.00814 -0.496295 -1.03567e-20)
(1.02948 -0.464131 -7.87933e-21)
(0.140778 -0.0908948 -2.4783e-21)
(0.366115 -0.236897 -4.6225e-22)
(0.552147 -0.354715 8.35132e-21)
(0.701558 -0.442337 4.88534e-22)
(0.817212 -0.499755 -5.27965e-21)
(0.903033 -0.529029 4.52141e-21)
(0.964046 -0.534196 1.21687e-21)
(1.00619 -0.520646 1.39824e-21)
(1.03531 -0.494758 3.83161e-21)
(1.05489 -0.464613 6.16718e-21)
(0.143059 -0.0850142 8.58241e-21)
(0.373199 -0.22358 -1.22658e-21)
(0.563864 -0.337953 -6.98056e-21)
(0.717694 -0.425029 7.45228e-22)
(0.837242 -0.483992 4.37924e-21)
(0.92614 -0.516072 -5.73889e-22)
(0.989221 -0.524559 -1.37163e-21)
(1.03231 -0.514269 1.14577e-21)
(1.0612 -0.491179 -7.13011e-23)
(1.07934 -0.463149 -2.74728e-21)
(0.144547 -0.0787855 -2.70062e-21)
(0.37842 -0.209263 -2.32978e-20)
(0.573115 -0.319617 1.97627e-21)
(0.731119 -0.405704 1.06443e-20)
(0.854607 -0.465936 -5.48314e-22)
(0.946828 -0.50072 -1.40155e-20)
(1.01232 -0.512577 7.57878e-21)
(1.05669 -0.505699 -1.25659e-21)
(1.08568 -0.485585 3.78353e-22)
(1.10277 -0.45981 -8.57144e-23)
(0.145229 -0.072291 -4.40644e-21)
(0.381724 -0.19413 7.68401e-21)
(0.579789 -0.299935 1.27593e-20)
(0.741671 -0.384588 -8.13199e-21)
(0.869095 -0.445778 2.48342e-21)
(0.964856 -0.483119 8.93827e-21)
(1.0331 -0.498348 5.09172e-21)
(1.07914 -0.494996 1.04613e-21)
(1.10861 -0.478022 -1.05634e-21)
(1.12505 -0.454667 -1.92169e-22)
(0.1451 -0.0656144 -6.73159e-21)
(0.383075 -0.178373 -3.50086e-21)
(0.583802 -0.279144 -2.52749e-20)
(0.74921 -0.361921 -4.1383e-21)
(0.880523 -0.423732 7.20295e-22)
(0.980008 -0.463437 1.67332e-21)
(1.05134 -0.48199 -1.82917e-20)
(1.09946 -0.482237 -7.96596e-21)
(1.12983 -0.468541 2.84749e-22)
(1.14606 -0.447788 8.90559e-22)
(0.14417 -0.0588399 -2.11887e-21)
(0.382467 -0.162184 8.44297e-21)
(0.585104 -0.257491 1.2904e-20)
(0.75363 -0.337956 8.35984e-21)
(0.888731 -0.400027 -1.83506e-21)
(0.992089 -0.441856 -2.14519e-21)
(1.06683 -0.463637 1.54448e-20)
(1.11745 -0.467515 1.46149e-20)
(1.14917 -0.457201 1.94432e-21)
(1.16571 -0.439264 -1.28823e-21)
(0.142458 -0.0520497 1.97049e-20)
(0.379915 -0.145756 1.30943e-20)
(0.583675 -0.235225 -1.41378e-20)
(0.754858 -0.312959 -2.89209e-21)
(0.893591 -0.374906 1.80326e-21)
(1.00093 -0.41858 -5.57684e-21)
(1.07938 -0.44344 -9.72919e-21)
(1.13293 -0.450924 -1.9572e-22)
(1.16647 -0.444116 -9.17439e-21)
(1.18392 -0.429192 3.6473e-21)
(0.139993 -0.0453238 3.09997e-21)
(0.375458 -0.12928 -7.53892e-21)
(0.57953 -0.2126 1.88977e-20)
(0.752859 -0.287202 1.23243e-20)
(0.895006 -0.348629 8.9358e-22)
(1.00637 -0.393828 7.87818e-21)
(1.0888 -0.421571 6.78455e-22)
(1.1457 -0.432606 -7.46586e-21)
(1.18157 -0.429408 5.41595e-21)
(1.20044 -0.417479 9.94988e-22)
(0.136813 -0.0387378 -1.75982e-20)
(0.369162 -0.112942 -5.59202e-21)
(0.572713 -0.189865 -5.04366e-21)
(0.74763 -0.260961 -8.96107e-21)
(0.892915 -0.321462 2.64894e-21)
(1.0083 -0.367832 -3.70391e-23)
(1.09493 -0.398213 6.40422e-21)
(1.15558 -0.41269 -1.98435e-21)
(1.19428 -0.41311 -6.65298e-21)
(1.21497 -0.404249 -4.77883e-21)
(0.132967 -0.0323624 1.5032e-21)
(0.361112 -0.0969178 9.40675e-21)
(0.563303 -0.167267 4.84149e-21)
(0.739208 -0.234516 -1.50466e-20)
(0.88729 -0.293681 -4.10313e-22)
(1.00662 -0.340837 -6.75341e-21)
(1.09763 -0.373566 1.15105e-22)
(1.16239 -0.391319 2.38984e-21)
(1.20441 -0.395318 -2.76777e-21)
(1.22744 -0.389615 8.03374e-21)
(0.128509 -0.026262 3.6791e-21)
(0.351416 -0.0813747 -9.42319e-21)
(0.551408 -0.145042 -2.30138e-20)
(0.727663 -0.20814 2.18219e-20)
(0.878143 -0.265567 -1.59276e-21)
(1.00128 -0.313102 4.73217e-21)
(1.09678 -0.347841 -6.98292e-22)
(1.16598 -0.368655 4.50118e-21)
(1.21179 -0.376152 -4.2063e-22)
(1.23771 -0.373654 -6.27271e-21)
(0.123501 -0.0204941 -7.53286e-21)
(0.340201 -0.0664657 1.24751e-20)
(0.537167 -0.123415 1.05484e-20)
(0.713104 -0.182103 -1.58843e-20)
(0.865521 -0.237402 -2.83043e-21)
(0.992255 -0.284889 1.00779e-21)
(1.09228 -0.321266 1.13309e-20)
(1.1662 -0.344876 3.93857e-22)
(1.21626 -0.355739 2.20744e-21)
(1.24558 -0.35644 -4.42399e-21)
(0.118012 -0.0151083 5.71898e-21)
(0.327609 -0.0523289 -5.5182e-21)
(0.520743 -0.102595 -4.94574e-21)
(0.695673 -0.156663 8.79439e-21)
(0.849512 -0.209464 3.11246e-21)
(0.979548 -0.25647 2.53432e-21)
(1.08407 -0.294075 -1.19731e-20)
(1.16291 -0.320168 -4.40175e-21)
(1.21762 -0.334217 -3.73722e-21)
(1.25088 -0.338056 1.45027e-21)
(0.112111 -0.0101461 -2.90018e-21)
(0.313798 -0.0390854 -6.30791e-23)
(0.502326 -0.0827746 9.3744e-21)
(0.675547 -0.132064 -3.56047e-21)
(0.830241 -0.182027 -1.7323e-21)
(0.963215 -0.228118 -1.19278e-21)
(1.07211 -0.266518 3.08141e-21)
(1.15602 -0.294733 5.34982e-21)
(1.21573 -0.311733 -2.9954e-22)
(1.2534 -0.318593 2.02521e-21)
(0.105873 -0.00564038 2.04387e-21)
(0.298934 -0.0268379 -6.25283e-22)
(0.482126 -0.0641232 -1.68963e-21)
(0.652931 -0.108535 -1.6181e-21)
(0.807871 -0.155355 1.56648e-21)
(0.943344 -0.200105 1.32154e-21)
(1.05641 -0.238846 -1.27251e-21)
(1.14542 -0.268784 4.73097e-22)
(1.21044 -0.288448 6.92238e-22)
(1.25297 -0.298152 -9.17614e-22)
(0.0993745 -0.00161511 1.11669e-21)
(0.283193 -0.01567 3.46129e-22)
(0.460368 -0.0467893 -2.13827e-21)
(0.62806 -0.0862827 -1.84586e-21)
(0.782602 -0.129697 2.08831e-21)
(0.920065 -0.172701 4.50843e-22)
(1.03699 -0.211319 -1.15679e-21)
(1.13108 -0.242545 1.13412e-21)
(1.2016 -0.264535 6.757e-22)
(1.24941 -0.276846 -8.0243e-22)
(0.0926899 0.00191423 -4.36757e-22)
(0.266757 -0.00564521 9.44372e-22)
(0.437293 -0.0308961 6.62078e-21)
(0.601191 -0.0654897 -3.27394e-21)
(0.754665 -0.105286 -1.71161e-21)
(0.893548 -0.146165 -2.16263e-21)
(1.01396 -0.184199 4.80775e-21)
(1.11297 -0.216251 3.66446e-21)
(1.18913 -0.240184 3.02754e-21)
(1.24255 -0.2548 1.66151e-21)
(0.0858935 0.00494069 8.9299e-21)
(0.249806 0.00319299 -5.26326e-21)
(0.413151 -0.0165412 -6.33809e-21)
(0.572602 -0.0463141 9.40826e-21)
(0.724326 -0.0823338 5.59667e-21)
(0.864003 -0.120746 -4.3806e-22)
(0.987419 -0.157745 -8.58986e-21)
(1.09111 -0.190146 -6.39258e-21)
(1.17294 -0.215598 -7.45514e-21)
(1.23224 -0.232157 4.85197e-21)
(0.0790568 0.00746532 -1.20827e-20)
(0.232522 0.0108208 1.22207e-20)
(0.388196 -0.00379614 1.50958e-20)
(0.542585 -0.0288858 -1.63822e-20)
(0.691874 -0.0610287 -6.25232e-21)
(0.831678 -0.0966786 4.71338e-21)
(0.957547 -0.132215 9.23838e-21)
(1.06558 -0.16448 1.76918e-21)
(1.153 -0.190994 -5.30309e-22)
(1.21834 -0.209078 -7.06882e-21)
(0.0722477 0.00949662 -1.77365e-21)
(0.215079 0.0172333 -1.73191e-20)
(0.362682 0.00729438 -1.98326e-20)
(0.511442 -0.0133053 2.49856e-20)
(0.657623 -0.0415314 -3.1558e-21)
(0.796855 -0.074176 7.1388e-21)
(0.924553 -0.107856 1.69999e-21)
(1.03647 -0.139508 -4.47176e-21)
(1.12929 -0.166605 2.6021e-21)
(1.20076 -0.185742 -1.24618e-21)
(0.0655292 0.0110499 3.56786e-21)
(0.197647 0.022444 1.07939e-20)
(0.33686 0.0167115 6.52909e-21)
(0.479483 0.000357228 -5.42593e-21)
(0.621904 -0.0239735 -1.03083e-20)
(0.759847 -0.0534289 -1.09271e-20)
(0.888689 -0.0849024 -2.59559e-21)
(1.00396 -0.115485 8.52957e-21)
(1.10188 -0.142676 -1.93553e-21)
(1.17942 -0.162355 4.38798e-21)
(0.0589593 0.0121463 -1.37424e-20)
(0.180384 0.0264827 -1.37936e-20)
(0.310974 0.0244618 -2.54465e-21)
(0.447013 0.0120621 -2.97993e-21)
(0.585059 -0.00845476 -8.32276e-21)
(0.720994 -0.0346009 5.89537e-21)
(0.850251 -0.0635736 -9.08084e-22)
(0.968238 -0.0926638 -7.31681e-21)
(1.07085 -0.119464 7.09662e-21)
(1.1543 -0.139145 -1.37132e-20)
(0.0525896 0.0128122 3.05825e-21)
(0.163439 0.0293946 1.192e-20)
(0.285256 0.0305757 1.16049e-20)
(0.414336 0.0218006 1.41998e-20)
(0.547436 0.00495832 -3.13879e-22)
(0.680654 -0.0178249 1.78177e-20)
(0.809565 -0.0440652 2.18755e-21)
(0.92957 -0.0712872 -2.88152e-20)
(1.03635 -0.0972331 2.33617e-20)
(1.12543 -0.116367 8.54512e-21)
(0.0464655 0.0130783 9.08142e-21)
(0.146944 0.0312384 2.22383e-20)
(0.259924 0.0351065 -3.01648e-21)
(0.381742 0.0295937 -1.83826e-20)
(0.509381 0.0162337 9.35679e-21)
(0.6392 -0.00319998 -1.16676e-20)
(0.76699 -0.0265469 -2.02141e-20)
(0.888252 -0.051586 -4.1639e-21)
(0.998598 -0.0762517 -2.22939e-20)
(0.0406257 0.0129785 4.51651e-21)
(0.131019 0.0320847 4.18788e-21)
(0.235178 0.0381283 3.26418e-20)
(0.349508 0.0354923 7.58625e-21)
(0.471234 0.0253746 -7.90912e-21)
(0.597009 0.00921147 -4.38565e-21)
(0.722904 -0.0111561 3.44769e-20)
(0.844622 -0.0337712 3.32776e-20)
(0.0351026 0.0125496 1.02963e-21)
(0.115769 0.032014 -2.35371e-20)
(0.2112 0.0397342 -3.92648e-20)
(0.317891 0.0395749 2.37154e-21)
(0.433321 0.0324198 1.19658e-20)
(0.554455 0.0193865 -1.86238e-20)
(0.677699 0.00200648 -5.59919e-20)
(0.029922 0.0118303 -8.29847e-21)
(0.101284 0.0311157 2.41066e-20)
(0.188149 0.0400346 2.47269e-20)
(0.287128 0.0419468 -2.87154e-20)
(0.395947 0.0374438 4.29442e-21)
(0.0251039 0.0108605 -2.01559e-20)
(0.0876356 0.0294858 -3.72591e-20)
(0.166163 0.0391551 -8.28487e-21)
(0.257427 0.0427383 1.59898e-20)
(0.0206628 0.00968138 1.52511e-20)
(0.0748838 0.0272263 2.21428e-22)
(0.14536 0.0372341 -4.119e-21)
(0.0166081 0.0083344 -5.04448e-21)
(0.0630728 0.0244429 -9.31745e-21)
(0.0129446 0.00686136 3.46422e-20)
(0.0522334 0.0212442 2.90114e-20)
(0.00967322 0.00530378 6.61324e-21)
(0.999873 -0.00371965 -2.11167e-22)
(0.996762 -0.0111366 9.44151e-22)
(0.990904 -0.0193563 4.60014e-22)
(0.982945 -0.0289356 2.10277e-22)
(0.972971 -0.0406065 4.32518e-22)
(0.961327 -0.0549969 -1.86954e-21)
(0.948258 -0.0728248 -2.49572e-21)
(0.934308 -0.0948427 8.37236e-22)
(0.920042 -0.12182 2.5894e-21)
(0.906603 -0.154457 3.06651e-21)
(0.894954 -0.193348 5.29042e-21)
(0.88738 -0.238485 -1.17775e-21)
(0.884342 -0.289772 -7.66932e-21)
(0.890237 -0.343688 -2.136e-21)
(0.895417 -0.399297 5.73183e-21)
(0.999868 -0.00353643 -1.18855e-21)
(0.996688 -0.0106 4.42546e-22)
(0.99069 -0.0184331 -7.40563e-22)
(0.982515 -0.02756 2.00329e-21)
(0.972218 -0.0386746 -1.78504e-21)
(0.960108 -0.0523761 2.15997e-22)
(0.946372 -0.0693553 2.6055e-21)
(0.931487 -0.0903438 -4.12319e-21)
(0.915928 -0.116117 1.84547e-21)
(0.900732 -0.147395 -6.7778e-21)
(0.886769 -0.184894 7.73162e-21)
(0.876185 -0.228718 -8.10373e-21)
(0.869504 -0.279186 -1.25357e-21)
(0.870143 -0.33266 9.7145e-21)
(0.87146 -0.387643 -2.24508e-21)
(0.999865 -0.00334819 1.57895e-21)
(0.996628 -0.0100459 1.09038e-21)
(0.990507 -0.0174758 1.32317e-21)
(0.982138 -0.0261302 -9.77311e-22)
(0.971552 -0.0366639 -1.00929e-21)
(0.959023 -0.049646 3.74653e-21)
(0.944687 -0.0657381 -2.04868e-21)
(0.928953 -0.0856465 5.67314e-21)
(0.912208 -0.110147 -3.50658e-21)
(0.895381 -0.13997 -1.70324e-21)
(0.879226 -0.175934 -2.36533e-21)
(0.865716 -0.218247 1.99457e-21)
(0.855374 -0.26753 5.63326e-21)
(0.850957 -0.320281 -1.59661e-20)
(0.847836 -0.374444 1.79346e-20)
(0.999864 -0.00315969 2.2658e-22)
(0.996579 -0.00949147 -1.81151e-21)
(0.990347 -0.0165203 -3.38211e-21)
(0.981807 -0.0247074 5.89869e-22)
(0.97096 -0.0346705 -1.14651e-22)
(0.958053 -0.0469492 1.06066e-21)
(0.943172 -0.0621768 3.18048e-21)
(0.926664 -0.0810337 -2.16693e-21)
(0.908828 -0.104291 2.73061e-21)
(0.890484 -0.132683 -5.49141e-21)
(0.872258 -0.167106 3.69231e-21)
(0.855932 -0.207848 2.48378e-21)
(0.842001 -0.255738 6.08694e-21)
(0.832723 -0.307562 -1.05473e-20)
(0.824894 -0.360776 1.90403e-22)
(0.999864 -0.00297041 -1.99711e-21)
(0.996537 -0.00893363 -4.73392e-22)
(0.990209 -0.0155592 -4.6343e-22)
(0.981513 -0.0232766 2.60386e-21)
(0.970432 -0.0326668 4.30485e-23)
(0.957183 -0.0442399 -4.05234e-22)
(0.941806 -0.0585996 -2.25448e-21)
(0.924591 -0.0763981 -1.68186e-22)
(0.90575 -0.0983971 7.00342e-21)
(0.885994 -0.125323 -8.11569e-21)
(0.865823 -0.158131 2.58139e-21)
(0.846808 -0.197176 3.90806e-21)
(0.829408 -0.243432 1.26789e-21)
(0.815475 -0.294061 -5.78691e-21)
(0.802831 -0.346113 1.14309e-22)
(0.999865 -0.00278009 3.69814e-22)
(0.996503 -0.0083713 3.26734e-22)
(0.990088 -0.0145884 1.11991e-21)
(0.981254 -0.0218301 -1.45057e-21)
(0.969961 -0.03064 4.10625e-22)
(0.956402 -0.0414979 -1.10707e-21)
(0.940575 -0.0549767 5.89092e-22)
(0.922713 -0.0716971 -2.48119e-21)
(0.902949 -0.0924055 4.73358e-21)
(0.881882 -0.117814 -1.40698e-22)
(0.859891 -0.148914 -8.44134e-21)
(0.838327 -0.186123 5.50727e-22)
(0.817604 -0.230506 8.89415e-21)
(0.799235 -0.279641 2.37226e-22)
(0.781756 -0.330304 -1.02875e-20)
(0.999866 -0.00258901 3.21033e-22)
(0.996474 -0.00780585 -1.86706e-21)
(0.989982 -0.0136091 -1.40704e-21)
(0.981025 -0.0203698 1.65818e-21)
(0.96954 -0.0285932 -1.17983e-21)
(0.955701 -0.0387282 9.48141e-22)
(0.939467 -0.0513154 -4.86774e-22)
(0.921013 -0.0669417 -5.28431e-22)
(0.900402 -0.0863325 3.62345e-21)
(0.878123 -0.110179 -7.17589e-21)
(0.854435 -0.139489 5.73609e-21)
(0.830473 -0.174732 7.88413e-21)
(0.806592 -0.217022 -9.76151e-21)
(0.784015 -0.264355 -1.80395e-21)
(0.761761 -0.313368 -8.60477e-21)
(0.999868 -0.00239743 -1.77058e-22)
(0.99645 -0.00723739 1.17347e-21)
(0.98989 -0.012623 -1.29034e-21)
(0.980822 -0.0188983 2.96021e-21)
(0.969166 -0.0265304 -3.18558e-21)
(0.955075 -0.0359365 -3.19158e-21)
(0.938469 -0.0476237 -7.98024e-22)
(0.919478 -0.0621432 3.61849e-22)
(0.898092 -0.0801933 -2.8164e-21)
(0.874694 -0.102439 3.22935e-21)
(0.849434 -0.129882 3.38769e-21)
(0.823231 -0.163037 -1.18378e-21)
(0.796369 -0.20303 -4.02677e-21)
(0.769825 -0.248251 8.43046e-21)
(0.742924 -0.295319 -7.9841e-21)
(0.99987 -0.00220554 -7.72796e-22)
(0.996429 -0.00666587 7.25278e-21)
(0.98981 -0.0116311 1.71256e-22)
(0.980643 -0.0174171 1.47251e-21)
(0.968834 -0.0244535 -2.59218e-22)
(0.954514 -0.0331255 4.32025e-21)
(0.937575 -0.0439054 6.57597e-22)
(0.918094 -0.0573064 4.87373e-23)
(0.896002 -0.073994 -4.44962e-21)
(0.871576 -0.0946006 -7.87173e-22)
(0.844868 -0.120107 3.75552e-21)
(0.816586 -0.151058 -5.42064e-21)
(0.786933 -0.188564 -3.97384e-21)
(0.756674 -0.231371 4.73595e-21)
(0.725314 -0.276179 -3.99336e-21)
(0.999872 -0.00201348 1.93111e-21)
(0.996412 -0.00609201 -4.07612e-21)
(0.98974 -0.0106318 2.17769e-21)
(0.980486 -0.0159274 -3.06619e-21)
(0.968539 -0.0223644 -1.12443e-21)
(0.954015 -0.0302974 6.22196e-22)
(0.936774 -0.0401629 -2.22658e-21)
(0.916852 -0.0524345 3.91428e-21)
(0.894118 -0.0677395 2.08589e-21)
(0.868755 -0.0866728 -1.18383e-21)
(0.84072 -0.110177 3.5308e-21)
(0.810527 -0.138814 -6.57802e-21)
(0.778284 -0.173658 1.12512e-20)
(0.744571 -0.213762 -7.79517e-21)
(0.708987 -0.25599 -3.85978e-21)
(0.999874 -0.00182135 -1.37267e-21)
(0.996398 -0.00551631 1.83426e-22)
(0.989679 -0.00962141 1.18283e-23)
(0.980347 -0.0144301 2.8348e-21)
(0.968279 -0.0202643 7.03241e-22)
(0.953573 -0.0274541 -1.28598e-21)
(0.936062 -0.036399 1.44667e-21)
(0.915742 -0.0475313 -2.85812e-21)
(0.892432 -0.061435 1.1441e-21)
(0.86622 -0.078663 7.21114e-22)
(0.836979 -0.100105 -3.48339e-21)
(0.805043 -0.126328 2.60716e-21)
(0.770419 -0.158349 6.61963e-21)
(0.733526 -0.195479 -3.31932e-21)
(0.693994 -0.234807 -8.5754e-21)
(0.999876 -0.00162925 -1.55956e-21)
(0.996387 -0.00493904 -3.26453e-22)
(0.989627 -0.00861606 -1.41736e-21)
(0.980226 -0.0129266 -4.13753e-21)
(0.968051 -0.0181547 1.9843e-21)
(0.953183 -0.0245975 -1.88025e-21)
(0.935434 -0.0326161 2.51818e-21)
(0.914759 -0.0426002 3.65741e-21)
(0.890933 -0.0550857 -2.34538e-21)
(0.86396 -0.0705796 4.76826e-21)
(0.833634 -0.0899065 -2.56738e-21)
(0.800127 -0.113622 -3.80079e-21)
(0.763338 -0.142673 -2.3217e-21)
(0.723546 -0.176581 9.51461e-21)
(0.680376 -0.212699 -3.12293e-21)
(0.999878 -0.00143722 1.62178e-21)
(0.996377 -0.00436054 7.77611e-22)
(0.989581 -0.00761682 -1.13318e-22)
(0.980121 -0.0114177 1.65761e-21)
(0.967852 -0.016037 -2.65346e-21)
(0.952843 -0.0217295 -6.52491e-22)
(0.934884 -0.0288166 -5.31655e-23)
(0.913897 -0.0376446 -1.23954e-21)
(0.889615 -0.0486969 -3.59816e-21)
(0.861966 -0.0624304 -1.78496e-21)
(0.830676 -0.0795942 6.66378e-21)
(0.79577 -0.100718 -1.03002e-21)
(0.757041 -0.126669 -1.02249e-21)
(0.714643 -0.157129 -8.10945e-22)
(0.668173 -0.189744 -3.87465e-21)
(0.99988 -0.00124529 9.80669e-22)
(0.996368 -0.00378102 -1.79427e-21)
(0.989543 -0.00660847 7.63499e-22)
(0.980032 -0.00990399 -2.03479e-21)
(0.967682 -0.0139122 -1.23632e-22)
(0.952551 -0.0188514 1.14208e-22)
(0.934409 -0.0250027 1.57559e-22)
(0.91315 -0.0326677 2.35697e-22)
(0.888472 -0.0422733 -1.64024e-21)
(0.860234 -0.0542233 2.13707e-21)
(0.8281 -0.0691822 -3.43604e-21)
(0.791968 -0.0876411 7.71066e-22)
(0.751529 -0.110373 2.26657e-21)
(0.706825 -0.137184 -1.49003e-22)
(0.657419 -0.166028 2.63725e-21)
(0.999882 -0.00105346 -9.5395e-22)
(0.996362 -0.00320061 2.17743e-21)
(0.989511 -0.00559535 -1.37079e-21)
(0.979958 -0.0083864 1.66297e-21)
(0.967539 -0.0117815 9.05734e-22)
(0.952303 -0.015965 -5.69132e-22)
(0.934007 -0.0211765 -9.66026e-23)
(0.912516 -0.0276725 -6.3359e-22)
(0.8875 -0.0358199 2.25138e-22)
(0.858757 -0.045966 -1.80499e-21)
(0.825899 -0.0586841 8.53005e-22)
(0.788715 -0.0744131 -5.69807e-21)
(0.746802 -0.0938236 7.93921e-21)
(0.700104 -0.11681 -2.38182e-21)
(0.648145 -0.141642 -4.94159e-21)
(0.999883 -0.000861743 -4.44398e-22)
(0.996356 -0.00261952 -6.72904e-22)
(0.989486 -0.00458036 4.66926e-22)
(0.979897 -0.00686566 1.12718e-22)
(0.967421 -0.00964593 1.2606e-21)
(0.9521 -0.0130716 -4.41369e-22)
(0.933675 -0.01734 2.57491e-22)
(0.911992 -0.0226619 -8.37941e-23)
(0.886694 -0.0293413 7.02174e-22)
(0.857532 -0.0376664 1.30261e-21)
(0.82407 -0.0481132 1.84849e-21)
(0.786009 -0.0610574 -2.97794e-21)
(0.74286 -0.0770592 1.31592e-21)
(0.694487 -0.0960713 -1.65847e-21)
(0.640375 -0.116683 -4.55907e-21)
(0.999885 -0.000670125 1.57707e-21)
(0.996352 -0.0020379 -1.83607e-22)
(0.989465 -0.00356403 7.35189e-22)
(0.979848 -0.00534243 6.21832e-22)
(0.967328 -0.00750639 -1.96683e-21)
(0.951938 -0.0101725 7.32028e-23)
(0.933412 -0.0134953 2.96179e-22)
(0.911575 -0.0176388 1.78954e-22)
(0.886053 -0.0228422 -6.69744e-22)
(0.856555 -0.029332 6.26957e-22)
(0.82261 -0.0374829 2.80959e-21)
(0.783847 -0.0475973 -1.11786e-21)
(0.739706 -0.0601184 2.49047e-21)
(0.689984 -0.0750336 -5.39465e-21)
(0.634133 -0.0912491 6.66969e-21)
(0.999886 -0.000478593 -1.12603e-21)
(0.996349 -0.00145591 2.09895e-23)
(0.98945 -0.00254655 -6.54535e-22)
(0.979812 -0.00381731 -3.22994e-22)
(0.967259 -0.00536383 7.00897e-22)
(0.951818 -0.00726915 -3.72149e-23)
(0.933215 -0.00964403 -1.23246e-21)
(0.911263 -0.0126061 7.06678e-22)
(0.885574 -0.0163272 -3.09005e-22)
(0.855825 -0.0209707 2.75958e-22)
(0.821516 -0.0268064 9.52971e-22)
(0.782226 -0.034056 2.46516e-22)
(0.737339 -0.0430401 -1.66429e-21)
(0.6866 -0.0537625 1.92736e-22)
(0.629435 -0.0654446 -1.48922e-21)
(0.999886 -0.000287128 5.48696e-22)
(0.996347 -0.000873651 -3.74782e-23)
(0.98944 -0.00152825 9.51553e-23)
(0.979789 -0.00229089 5.25861e-22)
(0.967213 -0.00321914 -9.53382e-23)
(0.951738 -0.00436271 -5.06776e-22)
(0.933085 -0.00578824 -3.17725e-22)
(0.911057 -0.00756639 3.77879e-22)
(0.885255 -0.00980083 -3.35742e-22)
(0.855339 -0.0125901 3.92494e-22)
(0.820788 -0.016097 -1.01416e-21)
(0.781146 -0.0204568 5.57229e-22)
(0.735761 -0.0258634 -1.23016e-21)
(0.684341 -0.0323244 4.93578e-22)
(0.626296 -0.0393737 2.02302e-22)
(0.999887 -9.57048e-05 -9.77774e-23)
(0.996346 -0.000291235 9.52499e-23)
(0.989435 -0.000509469 -1.24063e-22)
(0.979777 -0.000763715 -1.74293e-22)
(0.96719 -0.00107319 1.62552e-22)
(0.951698 -0.00145444 2.54824e-22)
(0.93302 -0.00192972 1.75258e-22)
(0.910953 -0.00252259 -1.04566e-22)
(0.885096 -0.0032677 4.14731e-22)
(0.855096 -0.004198 7.52167e-23)
(0.820424 -0.00536787 1.90376e-22)
(0.780607 -0.00682279 2.60218e-22)
(0.734971 -0.00862771 -7.5139e-24)
(0.68321 -0.010786 -1.83903e-22)
(0.624724 -0.0131424 -2.79884e-23)
(1.00013 -0.000347296 0)
(1.00271 -0.00102799 0)
(1.00732 -0.00166711 0)
(1.01346 -0.00227229 0)
(1.02067 -0.00284183 0)
(1.02861 -0.00336732 0)
(1.03695 -0.00384001 0)
(1.04545 -0.00425376 0)
(1.05388 -0.00460581 0)
(1.06207 -0.00489666 0)
(1.06991 -0.0051297 0)
(1.0773 -0.00531018 0)
(1.08419 -0.0054449 0)
(1.09057 -0.00553946 0)
(1.09646 -0.00561072 0)
(1.00013 -0.00102589 0)
(1.00268 -0.003029 0)
(1.00726 -0.00491377 0)
(1.01338 -0.00670266 0)
(1.02057 -0.00838927 0)
(1.02851 -0.00994868 0)
(1.03687 -0.0113547 0)
(1.04541 -0.0125882 0)
(1.0539 -0.01364 0)
(1.06217 -0.0145108 0)
(1.07008 -0.0152098 0)
(1.07756 -0.015752 0)
(1.08455 -0.0161573 0)
(1.09101 -0.0164419 0)
(1.097 -0.0166539 0)
(1.00013 -0.00166808 0)
(1.00264 -0.00491599 0)
(1.00716 -0.00798158 0)
(1.01321 -0.0109026 0)
(1.02037 -0.0136665 0)
(1.0283 -0.016232 0)
(1.03669 -0.0185549 0)
(1.0453 -0.0206014 0)
(1.0539 -0.0223532 0)
(1.0623 -0.0238087 0)
(1.07038 -0.0249811 0)
(1.07803 -0.0258936 0)
(1.08519 -0.0265779 0)
(1.09183 -0.0270601 0)
(1.09801 -0.0274203 0)
(1.00012 -0.00226842 0)
(1.00257 -0.0066821 0)
(1.00701 -0.0108633 0)
(1.01297 -0.0148672 0)
(1.02006 -0.0186756 0)
(1.02796 -0.0222307 0)
(1.03639 -0.0254683 0)
(1.04509 -0.0283367 0)
(1.05383 -0.0308055 0)
(1.06242 -0.0328673 0)
(1.07072 -0.0345361 0)
(1.07861 -0.0358412 0)
(1.08602 -0.0368248 0)
(1.0929 -0.0375221 0)
(1.09936 -0.0380472 0)
(1.00012 -0.0028248 0)
(1.00249 -0.00832213 0)
(1.0068 -0.0135524 0)
(1.01263 -0.018591 0)
(1.01962 -0.0234151 0)
(1.02747 -0.0279503 0)
(1.03593 -0.0321105 0)
(1.04473 -0.0358226 0)