/*--------------------------------*- C++ -*----------------------------------*\
  =========                 |
  \\      /  F ield         | OpenFOAM: The Open Source CFD Toolbox
   \\    /   O peration     | Website:  https://openfoam.org
    \\  /    A nd           | Version:  7
     \\/     M anipulation  |
\*---------------------------------------------------------------------------*/
FoamFile
{
    version     2.0;
    format      ascii;
    class       volScalarField;
    location    "10";
    object      p;
}
// * * * * * * * * * * * * * * * * * * * * * * * * * * * * * * * * * * * * * //

dimensions      [0 2 -2 0 0 0 0];

internalField   nonuniform List<scalar> 
2125
(
-0.366078
-0.371769
-0.367702
-0.378131
-0.373188
-0.385198
-0.379276
-0.373266
-0.392993
-0.385998
-0.37928
-0.371865
-0.401528
-0.393378
-0.385922
-0.377741
-0.369014
-0.359509
-0.410798
-0.401425
-0.393202
-0.384167
-0.374331
-0.363317
-0.350423
-0.420779
-0.410131
-0.401109
-0.391105
-0.379944
-0.367101
-0.351971
-0.334894
-0.431417
-0.419464
-0.409599
-0.39848
-0.385725
-0.370698
-0.353079
-0.333634
-0.313284
-0.294159
-0.442629
-0.429362
-0.418595
-0.40618
-0.391506
-0.373936
-0.353634
-0.331811
-0.309725
-0.289192
-0.454298
-0.439726
-0.427977
-0.414047
-0.397076
-0.376639
-0.35353
-0.329366
-0.305628
-0.283759
-0.466267
-0.450416
-0.437586
-0.421869
-0.402206
-0.378636
-0.352666
-0.326237
-0.300946
-0.277813
-0.478338
-0.461253
-0.447216
-0.429395
-0.406655
-0.379765
-0.350946
-0.322364
-0.295626
-0.271303
-0.490275
-0.472011
-0.456617
-0.436337
-0.410184
-0.379872
-0.348278
-0.31768
-0.28961
-0.264182
-0.501801
-0.482428
-0.465497
-0.442389
-0.412562
-0.378815
-0.344571
-0.312118
-0.282842
-0.256405
-0.51261
-0.492206
-0.47353
-0.447242
-0.413574
-0.37646
-0.339738
-0.305612
-0.275262
-0.247929
-0.522365
-0.501017
-0.480368
-0.450595
-0.413021
-0.372686
-0.333696
-0.298093
-0.266813
-0.238716
-0.530715
-0.508514
-0.485654
-0.452165
-0.410723
-0.367381
-0.326367
-0.289499
-0.257445
-0.228734
-0.537296
-0.514335
-0.489036
-0.451695
-0.406524
-0.360446
-0.317678
-0.279771
-0.247114
-0.217958
-0.541751
-0.518121
-0.490185
-0.448956
-0.400287
-0.351793
-0.307562
-0.268852
-0.235784
-0.206378
-0.543731
-0.519523
-0.4888
-0.443758
-0.391903
-0.341351
-0.295962
-0.256692
-0.223412
-0.193972
-0.542914
-0.518214
-0.484624
-0.435944
-0.381285
-0.329064
-0.282839
-0.243253
-0.209948
-0.180643
-0.539008
-0.5139
-0.477446
-0.4254
-0.368372
-0.314897
-0.268169
-0.228524
-0.19535
-0.166188
-0.531762
-0.506332
-0.467103
-0.41205
-0.353131
-0.298828
-0.251933
-0.2125
-0.179656
-0.150464
-0.520973
-0.495317
-0.453482
-0.395854
-0.335554
-0.280851
-0.234106
-0.195136
-0.162976
-0.133767
-0.506491
-0.480716
-0.436519
-0.376813
-0.31566
-0.260977
-0.214696
-0.176425
-0.14523
-0.116622
-0.488223
-0.462451
-0.416199
-0.354961
-0.293487
-0.239242
-0.193806
-0.156739
-0.126206
-0.0988652
-0.466131
-0.440501
-0.392558
-0.33037
-0.269095
-0.21573
-0.171575
-0.135813
-0.106227
-0.0803886
-0.440239
-0.414905
-0.365691
-0.303151
-0.242569
-0.190577
-0.147958
-0.113732
-0.0853896
-0.0612129
-0.410621
-0.38577
-0.335765
-0.273404
-0.214053
-0.163794
-0.123046
-0.0905913
-0.0637607
-0.0414252
-0.377414
-0.353277
-0.302998
-0.241145
-0.183665
-0.135527
-0.0969444
-0.0664937
-0.0414089
-0.0211332
-0.340812
-0.317666
-0.267446
-0.206626
-0.151534
-0.105912
-0.0697778
-0.0415424
-0.0184094
-0.000421585
-0.301046
-0.279175
-0.228832
-0.17043
-0.117902
-0.0751054
-0.0416794
-0.0158425
0.00515747
0.0206193
-0.258336
-0.237879
-0.188067
-0.132489
-0.0829679
-0.0432759
-0.012781
0.0105099
0.029154
0.0416488
-0.212961
-0.193924
-0.145754
-0.0930674
-0.0469249
-0.0105947
0.0168042
0.0374362
0.0533051
0.0618439
-0.16537
-0.147876
-0.10195
-0.0524551
-0.00998892
0.0227669
0.0469714
0.0648392
0.0772823
0.0806361
-0.115949
-0.100117
-0.05688
-0.0109359
0.0276042
0.0566239
0.0775622
0.0924841
0.100992
0.0997864
-0.0650446
-0.0510849
-0.010861
0.0312037
0.0656103
0.0907691
0.108326
0.119967
0.124405
0.124179
-0.0130813
-0.00119175
0.0357509
0.0736682
0.10378
0.124977
0.138999
0.147155
0.148394
0.148719
0.0394987
0.0491552
0.0825891
0.116155
0.141857
0.15902
0.169407
0.174119
0.172642
0.172011
0.0922494
0.0995443
0.129285
0.158358
0.179581
0.192667
0.199377
0.200733
0.196715
0.194373
0.144724
0.149561
0.175474
0.19997
0.216692
0.225697
0.228739
0.226824
0.220271
0.215795
0.196476
0.198795
0.220795
0.240688
0.252932
0.257894
0.257316
0.25221
0.243122
0.236309
0.247067
0.24684
0.264897
0.280214
0.288051
0.289044
0.284927
0.276718
0.265115
0.255876
0.29607
0.293303
0.307438
0.318262
0.321803
0.318942
0.311394
0.300188
0.286124
0.274437
0.34307
0.337801
0.348089
0.354554
0.353954
0.347387
0.336546
0.32247
0.306029
0.291921
0.387671
0.379974
0.386539
0.388825
0.384281
0.374189
0.360221
0.343425
0.324716
0.308251
0.429498
0.419478
0.422493
0.420827
0.412571
0.399168
0.382266
0.362923
0.342079
0.323354
0.468202
0.455993
0.455677
0.450328
0.438627
0.422155
0.402537
0.380841
0.358016
0.337158
0.503458
0.489225
0.485837
0.477113
0.462267
0.442997
0.420903
0.397067
0.372433
0.349596
0.534975
0.518907
0.512746
0.500989
0.483327
0.461552
0.437245
0.411498
0.385243
0.360609
0.562489
0.544802
0.536199
0.521784
0.501658
0.477696
0.451455
0.424044
0.39637
0.370146
0.585773
0.566703
0.556019
0.539347
0.517134
0.491319
0.463442
0.434623
0.405747
0.37816
0.604635
0.584436
0.572057
0.553551
0.529647
0.502329
0.473127
0.443169
0.413318
0.384615
0.618919
0.597861
0.584193
0.564295
0.539108
0.510652
0.480446
0.449627
0.419036
0.389482
0.628507
0.60687
0.592334
0.571501
0.545453
0.516233
0.485353
0.453955
0.422867
0.392738
0.575117
0.548636
0.519032
0.487814
0.456127
0.424789
0.39437
-0.219297
-0.228501
-0.237117
-0.245169
-0.252684
-0.259688
-0.266209
-0.272274
-0.205707
-0.214603
-0.22302
-0.23098
-0.238508
-0.245628
-0.252362
-0.258738
-0.193155
-0.201677
-0.209814
-0.217592
-0.225034
-0.232166
-0.239014
-0.245608
-0.181578
-0.189739
-0.197601
-0.205185
-0.212515
-0.219612
-0.226503
-0.233214
-0.170977
-0.178778
-0.186346
-0.1937
-0.200859
-0.20784
-0.214662
-0.221342
-0.16124
-0.168672
-0.175922
-0.183004
-0.189931
-0.196718
-0.203375
-0.209914
-0.15227
-0.159325
-0.166237
-0.173017
-0.179674
-0.186219
-0.192662
-0.199015
-0.144
-0.150676
-0.15724
-0.1637
-0.170064
-0.176343
-0.182545
-0.188682
-0.136371
-0.142669
-0.14888
-0.155011
-0.161069
-0.16706
-0.172994
-0.178878
-0.129312
-0.135241
-0.141102
-0.1469
-0.152641
-0.15833
-0.163974
-0.169577
-0.122776
-0.128345
-0.13386
-0.139326
-0.144746
-0.150126
-0.15547
-0.160785
-0.116709
-0.121931
-0.127109
-0.132247
-0.13735
-0.142421
-0.147464
-0.152483
-0.11108
-0.115967
-0.120817
-0.125636
-0.130426
-0.13519
-0.139931
-0.144653
-0.105857
-0.110421
-0.114955
-0.119463
-0.123947
-0.12841
-0.132853
-0.137279
-0.101001
-0.105257
-0.109488
-0.113697
-0.117886
-0.122056
-0.126209
-0.130347
-0.0964839
-0.100448
-0.104391
-0.108315
-0.112221
-0.11611
-0.119983
-0.123841
-0.127687
-0.0922828
-0.0959716
-0.0996421
-0.103295
-0.106932
-0.110552
-0.114157
-0.117748
-0.121325
-0.0883787
-0.0918088
-0.0952231
-0.0986213
-0.102003
-0.10537
-0.108721
-0.112057
-0.115378
-0.0847496
-0.0879402
-0.0911157
-0.0942756
-0.0974196
-0.100548
-0.10366
-0.106756
-0.109837
-0.0813861
-0.0843572
-0.0873115
-0.0902497
-0.0931721
-0.0960782
-0.0989676
-0.10184
-0.104696
-0.07829
-0.0810559
-0.0838055
-0.086539
-0.0892564
-0.0919569
-0.0946401
-0.0973053
-0.0999523
-0.0754547
-0.0780321
-0.0805939
-0.0831397
-0.0856689
-0.0881808
-0.0906746
-0.0931496
-0.0956051
-0.0728729
-0.0752803
-0.0776724
-0.0800484
-0.0824074
-0.0847485
-0.0870708
-0.0893733
-0.0916553
-0.0705506
-0.0728062
-0.0750465
-0.0772704
-0.079477
-0.0816651
-0.0838338
-0.0859819
-0.0881088
-0.0684941
-0.070616
-0.0727225
-0.0748123
-0.0768845
-0.0789378
-0.0809712
-0.0829836
-0.084974
-0.0667158
-0.0687223
-0.0707134
-0.0726876
-0.0746439
-0.0765811
-0.0784981
-0.0803937
-0.0822669
-0.0652295
-0.0671392
-0.0690333
-0.0709105
-0.0727697
-0.0746098
-0.0764294
-0.0782277
-0.0800035
-0.0640672
-0.0658996
-0.0677163
-0.0695161
-0.0712979
-0.0730604
-0.0748027
-0.0765237
-0.0782223
-0.0632348
-0.0650102
-0.0667703
-0.0685139
-0.0702399
-0.0719472
-0.0736347
-0.0753014
-0.0769463
-0.0628246
-0.0645618
-0.0662833
-0.0679881
-0.0696753
-0.0713443
-0.0729942
-0.0746241
-0.0762333
0.0920367
0.0727419
0.0545627
0.0366555
0.0178649
-0.00111791
-0.0196961
-0.0378274
-0.0555325
-0.0727385
-0.0893724
-0.105399
-0.120818
-0.135615
-0.150235
-0.163764
-0.176244
-0.187956
-0.199031
-0.209479
0.0834532
0.0644092
0.0452966
0.0282978
0.0111458
-0.00634796
-0.0234276
-0.039927
-0.0559697
-0.0715678
-0.0866598
-0.101188
-0.11508
-0.12824
-0.141188
-0.153494
-0.165054
-0.175992
-0.186405
-0.196311
0.0736598
0.0554966
0.0364769
0.0204629
0.00513966
-0.0105941
-0.0261264
-0.0410755
-0.0555412
-0.0696117
-0.0832522
-0.0964199
-0.109092
-0.121257
-0.13266
-0.143947
-0.154796
-0.165084
-0.174875
-0.184225
0.0631845
0.046318
0.0282376
0.013348
-0.000310797
-0.0143334
-0.0283871
-0.0419505
-0.0550182
-0.067717
-0.0800556
-0.0919876
-0.103474
-0.114482
-0.124987
-0.135405
-0.145486
-0.155099
-0.164281
-0.173097
0.0529425
0.0376177
0.0208809
0.00714895
-0.00508981
-0.0175768
-0.0302501
-0.0425625
-0.0543972
-0.0658743
-0.0770432
-0.0878733
-0.0983301
-0.108409
-0.118119
-0.127756
-0.137084
-0.146023
-0.15462
-0.162929
0.0434016
0.0296127
0.0143536
0.00175518
-0.00927818
-0.0204245
-0.0318262
-0.042992
-0.0537298
-0.064126
-0.074255
-0.0841051
-0.093637
-0.102835
-0.111731
-0.120707
-0.129382
-0.137719
-0.14578
-0.153613
0.03468
0.0222996
0.0085305
-0.002959
-0.0129429
-0.0229249
-0.0331714
-0.0432837
-0.0530376
-0.0624801
-0.071696
-0.0807038
-0.0894953
-0.0980681
-0.106415
-0.114344
-0.122273
-0.130078
-0.137671
-0.145058
0.0267752
0.0156572
0.00332353
-0.00709005
-0.0161384
-0.0251097
-0.0343218
-0.0434719
-0.0523372
-0.0609291
-0.0693237
-0.0775484
-0.0855911
-0.093433
-0.101059
-0.108461
-0.115842
-0.12313
-0.130251
-0.137199
0.01966
0.00967483
-0.00131914
-0.0107112
-0.0189157
-0.0270061
-0.0353016
-0.0435801
-0.0516401
-0.0594688
-0.0671266
-0.0746446
-0.0820186
-0.0892354
-0.096291
-0.103182
-0.110041
-0.116817
-0.123462
-0.129974
0.0132978
0.00433251
-0.00543926
-0.0138842
-0.0213259
-0.0286441
-0.0361311
-0.0436263
-0.0509581
-0.0581005
-0.0650985
-0.0719824
-0.0787538
-0.0854036
-0.0919297
-0.0983358
-0.104719
-0.111021
-0.117215
-0.123307
0.00764035
-0.000407108
-0.00908103
-0.0166638
-0.0234174
-0.0300545
-0.0368286
-0.0436237
-0.0502991
-0.0568239
-0.0632297
-0.0695427
-0.0757662
-0.0818924
-0.0879191
-0.0938572
-0.0998089
-0.105679
-0.111454
-0.117148
0.00263177
-0.00459206
-0.01229
-0.0190975
-0.0252319
-0.0312651
-0.0374092
-0.0435803
-0.0496654
-0.0556341
-0.0615087
-0.0673112
-0.0730474
-0.0787143
-0.0843088
-0.0898301
-0.0952888
-0.100721
-0.106108
-0.111437
-0.00178589
-0.00827316
-0.0151097
-0.0212253
-0.0268035
-0.032299
-0.0378845
-0.043499
-0.0490532
-0.0545197
-0.0599135
-0.0652524
-0.0705419
-0.0757805
-0.0809635
-0.0860839
-0.0911118
-0.0961457
-0.101168
-0.106148
-0.00566864
-0.0114993
-0.0175794
-0.0230806
-0.0281595
-0.0331746
-0.0382632
-0.0433803
-0.0484563
-0.0534674
-0.0584232
-0.0633366
-0.0682118
-0.0730467
-0.0778367
-0.0825777
-0.0872616
-0.0919448
-0.0966166
-0.101257
-0.00906865
-0.0143155
-0.0197339
-0.0246915
-0.0293226
-0.0339073
-0.0385526
-0.0432249
-0.0478703
-0.0524688
-0.0570262
-0.061552
-0.0660491
-0.0705162
-0.0749498
-0.0793477
-0.083706
-0.0880599
-0.0924009
-0.0967163
-0.0120338
-0.0167629
-0.0216042
-0.026082
-0.0303117
-0.0345103
-0.0387596
-0.0430339
-0.0472917
-0.0515169
-0.0557127
-0.0598858
-0.0640381
-0.0681683
-0.0722739
-0.076353
-0.080404
-0.0844507
-0.0884843
-0.0924964
-0.0146076
-0.0188785
-0.0232176
-0.027273
-0.0311433
-0.0349955
-0.0388905
-0.0428085
-0.0467179
-0.0506056
-0.0544733
-0.0583253
-0.0621628
-0.0659846
-0.0697884
-0.0735726
-0.0773366
-0.0810979
-0.084846
-0.0885747
-0.0168298
-0.020696
-0.0245989
-0.0282831
-0.0318322
-0.0353735
-0.0389517
-0.0425509
-0.0461471
-0.04973
-0.0533
-0.0568599
-0.06041
-0.0639491
-0.0674753
-0.0709874
-0.0744856
-0.077984
-0.0814676
-0.0849321
-0.0187361
-0.0222457
-0.0257709
-0.0291294
-0.0323922
-0.0356551
-0.0389501
-0.0422646
-0.0455801
-0.0488884
-0.0521893
-0.0554841
-0.0587723
-0.062052
-0.0653207
-0.0685771
-0.0718226
-0.0750816
-0.0783227
-0.0815441
-0.0203593
-0.0235556
-0.0267541
-0.0298279
-0.032836
-0.0358503
-0.0388929
-0.0419535
-0.0450181
-0.0480805
-0.0511401
-0.0541976
-0.0572527
-0.0603041
-0.0633506
-0.0663895
-0.0694155
-0.0724051
-0.0754011
-0.0783989
-0.021729
-0.0246509
-0.0275677
-0.0303932
-0.0331758
-0.0359684
-0.0387861
-0.0416205
-0.0444607
-0.0473018
-0.0501427
-0.0529834
-0.0558227
-0.0586589
-0.0614898
-0.0643128
-0.067125
-0.0699211
-0.0727165
-0.0755087
-0.0228725
-0.0255554
-0.0282304
-0.0308402
-0.0334239
-0.0360201
-0.0386386
-0.0412723
-0.0439129
-0.0465564
-0.0492016
-0.0518478
-0.0544938
-0.0571378
-0.0597779
-0.0624119
-0.0650376
-0.0676512
-0.0702604
-0.0728631
-0.0238154
-0.0262917
-0.0287603
-0.0311843
-0.0335941
-0.0360175
-0.0384607
-0.0409179
-0.0433825
-0.0458512
-0.0483227
-0.0507961
-0.0532698
-0.0557422
-0.0582113
-0.0606752
-0.0631318
-0.0655785
-0.068019
-0.0704516
-0.0245817
-0.0268812
-0.0291755
-0.0314408
-0.0337003
-0.0359736
-0.0382642
-0.0405676
-0.0428784
-0.045194
-0.047513
-0.0498341
-0.0521558
-0.0544764
-0.0567941
-0.0591069
-0.0614129
-0.06371
-0.066
-0.0682811
-0.0251935
-0.0273443
-0.0294936
-0.0316256
-0.0337572
-0.035902
-0.0380619
-0.0402332
-0.0424118
-0.0445952
-0.046782
-0.0489708
-0.0511602
-0.0533484
-0.0555336
-0.057714
-0.0598878
-0.0620531
-0.0642104
-0.0663582
-0.0256712
-0.0277002
-0.0297316
-0.0317543
-0.0337797
-0.0358171
-0.0378676
-0.039928
-0.0419951
-0.0440667
-0.0461414
-0.0482178
-0.0502943
-0.0523693
-0.054441
-0.0565078
-0.0585679
-0.0606195
-0.0626623
-0.0646951
-0.0260329
-0.0279663
-0.0299059
-0.0318424
-0.0337832
-0.0357344
-0.0376964
-0.0396669
-0.0416431
-0.0436231
-0.0456055
-0.0475889
-0.0495718
-0.0515526
-0.0535296
-0.0555013
-0.0574661
-0.0594223
-0.0613692
-0.0633056
-0.026294
-0.0281583
-0.0300315
-0.0319049
-0.0337829
-0.0356695
-0.0375648
-0.039467
-0.0413738
-0.0432836
-0.0451947
-0.047106
-0.049016
-0.050923
-0.0528257
-0.0547225
-0.0566117
-0.0584916
-0.0603615
-0.0622205
-0.0264661
-0.0282888
-0.0301212
-0.0319548
-0.0337917
-0.0356348
-0.0374843
-0.0393388
-0.0411963
-0.0430555
-0.0449149
-0.0467732
-0.0486293
-0.0504817
-0.052329
-0.05417
-0.0560033
-0.0578277
-0.0596421
-0.061445
-0.0265524
-0.0283629
-0.0301851
-0.0320094
-0.0338357
-0.0356657
-0.0374995
-0.0393359
-0.0411733
-0.0430101
-0.044845
-0.0466769
-0.0485044
-0.0503265
-0.0521417
-0.0539489
-0.0557467
-0.0575337
-0.0593089
-0.061073
0.110331
0.113229
0.117021
0.123704
0.130657
0.139916
0.148718
0.158984
0.167279
0.175624
0.179121
0.1806
0.172201
0.158871
0.124393
0.109519
0.112293
0.115881
0.122187
0.128677
0.137217
0.145136
0.15416
0.160969
0.167325
0.16865
0.167163
0.15628
0.138923
0.108296
0.108621
0.111256
0.114608
0.120491
0.126454
0.134209
0.141167
0.14889
0.154183
0.158601
0.157953
0.154
0.141683
0.123001
0.0961264
0.107633
0.110111
0.113211
0.118634
0.12404
0.130957
0.136927
0.1433
0.147109
0.149608
0.147217
0.141126
0.128001
0.108798
0.0838954
0.10655
0.108856
0.11169
0.116622
0.121448
0.127489
0.132464
0.137463
0.139855
0.140504
0.136597
0.128702
0.115015
0.0955829
0.0718449
0.105367
0.107486
0.110042
0.11445
0.118679
0.123807
0.12779
0.131412
0.132462
0.131377
0.126158
0.116809
0.102688
0.0833408
0.0606669
0.104079
0.105993
0.108261
0.112115
0.115729
0.119918
0.122916
0.12518
0.124967
0.122302
0.115945
0.105484
0.0910702
0.0721117
0.0505728
0.102682
0.104375
0.106343
0.109618
0.112604
0.115836
0.117863
0.11881
0.117415
0.113349
0.106014
0.0947593
0.0802125
0.0618572
0.0414983
0.101172
0.102627
0.104288
0.10696
0.109309
0.11158
0.112655
0.112351
0.109857
0.104584
0.096425
0.0846536
0.0701345
0.0525048
0.0333334
0.0995472
0.100747
0.102094
0.104148
0.105852
0.107173
0.10732
0.105851
0.102346
0.0960634
0.0872306
0.0751744
0.0608279
0.043989
0.0259941
0.097805
0.098736
0.0997615
0.10119
0.102244
0.10264
0.101889
0.0993585
0.0949329
0.087832
0.0784756
0.0663196
0.0522703
0.0362574
0.0194156
0.0959449
0.0965956
0.0972925
0.0980971
0.0984997
0.0980112
0.0963965
0.0929174
0.0876709
0.0799265
0.0701932
0.0580828
0.0444325
0.0292629
0.0135385
0.0939677
0.0943311
0.0946914
0.0948845
0.0946365
0.0933156
0.0908811
0.0865696
0.0806084
0.0723769
0.0624057
0.050455
0.0372811
0.0229583
0.00830513
0.091876
0.0919502
0.0919659
0.0915683
0.0906766
0.0885842
0.0853829
0.0803539
0.0737894
0.065208
0.0551249
0.0434233
0.0307798
0.017295
0.00366003
0.0896743
0.0894633
0.0891266
0.0881672
0.0866459
0.083848
0.0799431
0.0743063
0.0672518
0.0584394
0.048354
0.0369708
0.024891
0.0122247
-0.000449117
0.0873699
0.086884
0.0861884
0.0847015
0.0825738
0.0791388
0.0746025
0.0684607
0.0610263
0.0520861
0.0420897
0.0310766
0.0195772
0.00770087
-0.00407111
0.0849731
0.0842283
0.0831707
0.0811938
0.0784924
0.074489
0.0693999
0.0628487
0.0551376
0.0461577
0.0363237
0.0257167
0.014801
0.00367953
-0.00725099
0.0824981
0.081515
0.0800972
0.0776689
0.074436
0.0699318
0.0643714
0.057499
0.0496042
0.0406591
0.031044
0.0208653
0.010526
0.000119372
-0.0100301
0.0799631
0.0787652
0.0769956
0.0741545
0.0704398
0.0655012
0.0595506
0.0524373
0.04444
0.0355908
0.0262362
0.016496
0.00671718
-0.00301807
-0.0124464
0.0773909
0.0760035
0.0738978
0.0706817
0.0665395
0.0612313
0.0549679
0.0476862
0.0396553
0.0309498
0.0218839
0.0125822
0.00334106
-0.00576847
-0.0145343
0.0748093
0.0732574
0.0708387
0.0672851
0.0627715
0.0571561
0.0506516
0.0432652
0.0352569
0.0267309
0.01797
0.00909791
0.000366189
-0.00816474
-0.0163255
0.0722512
0.0705585
0.067856
0.0640023
0.059173
0.0533092
0.046628
0.0391913
0.0312498
0.0229273
0.0144772
0.00601837
-0.00223672
-0.0102372
-0.0178489
0.0697544
0.0679429
0.0649902
0.0608744
0.0557822
0.0497241
0.0429222
0.0354796
0.0276376
0.0195319
0.0113888
0.00332049
-0.00449455
-0.0120136
-0.0191315
0.0673623
0.0654517
0.0622847
0.0579448
0.0526388
0.0464347
0.0395589
0.0321447
0.0244239
0.0165382
0.00868992
0.000983496
-0.0064315
-0.0135192
-0.0201979
0.0651233
0.0631311
0.059786
0.0552598
0.0497847
0.0434758
0.0365633
0.0292018
0.0216132
0.0139415
0.00636804
-0.0010105
-0.00806875
-0.0147764
-0.0210706
0.0630909
0.0610332
0.0575447
0.0528689
0.047264
0.0408843
0.0339626
0.0266681
0.0192126
0.0117402
0.00441424
-0.00267562
-0.00942387
-0.0158046
-0.0217697
0.0613245
0.0592155
0.055616
0.0508251
0.0451248
0.0387009
0.031788
0.0245646
0.0172336
0.00993723
0.0028245
-0.00402119
-0.01051
-0.0166193
-0.0223124
0.0598888
0.0577417
0.0540606
0.049186
0.0434197
0.036971
0.0300762
0.0229188
0.0156943
0.00854258
0.00160155
-0.00505012
-0.0113344
-0.0172312
-0.0227123
0.0588546
0.0566815
0.0529456
0.0480159
0.042208
0.0357479
0.028872
0.021767
0.0146221
0.00757546
0.000757205
-0.00575699
-0.0118972
-0.0176448
-0.0229776
0.0582977
0.0561115
0.0523463
0.0473884
0.0415593
0.0350954
0.0282319
0.0211575
0.0140567
0.00706739
0.000314938
-0.0061258
-0.0121896
-0.0178574
-0.0231104
0.116155
0.119604
0.12387
0.132196
0.140789
0.153221
0.166201
0.182919
0.200658
0.222029
0.244839
0.27117
0.298984
0.330122
0.362088
0.116126
0.119572
0.123837
0.132154
0.14074
0.153156
0.166116
0.182804
0.200493
0.221804
0.24451
0.270718
0.298338
0.329246
0.360865
0.116069
0.119507
0.123771
0.132071
0.140643
0.153028
0.165945
0.182576
0.200164
0.221354
0.243853
0.269815
0.297047
0.327497
0.358421
0.115983
0.119411
0.123671
0.131947
0.140497
0.152836
0.16569
0.182234
0.199672
0.220682
0.242871
0.268464
0.295116
0.324879
0.354763
0.115868
0.119282
0.123539
0.131781
0.140303
0.152581
0.165352
0.181779
0.199019
0.219788
0.241565
0.26667
0.292549
0.321401
0.349898
0.115725
0.119122
0.123374
0.13158
0.140062
0.152263
0.164932
0.181213
0.198207
0.218676
0.239942
0.26444
0.289355
0.317074
0.343839
0.115554
0.118932
0.123179
0.1313
0.139769
0.151884
0.16443
0.180537
0.197239
0.217349
0.238005
0.26178
0.285541
0.311911
0.336604
0.115355
0.118711
0.122956
0.131081
0.139428
0.151444
0.16385
0.179753
0.196119
0.215811
0.235761
0.258698
0.281118
0.305927
0.328214
0.115129
0.118461
0.122699
0.130728
0.139043
0.150945
0.163193
0.178862
0.19485
0.214064
0.233216
0.255204
0.276099
0.299142
0.318695
0.114876
0.118182
0.122407
0.130369
0.138616
0.150388
0.16246
0.177866
0.193436
0.212114
0.230378
0.251308
0.270495
0.291577
0.308079
0.114596
0.117876
0.122078
0.129969
0.138146
0.149775
0.161655
0.176769
0.191882
0.209965
0.227255
0.247018
0.264321
0.283257
0.296403
0.11429
0.117544
0.121736
0.12953
0.137635
0.149107
0.160779
0.175572
0.190193
0.207621
0.223857
0.242346
0.257595
0.274209
0.283708
0.113959
0.117185
0.121369
0.129056
0.137083
0.148386
0.159835
0.17428
0.188374
0.205088
0.220193
0.237302
0.250334
0.264462
0.270038
0.113602
0.116799
0.120951
0.12855
0.136491
0.147614
0.158825
0.172894
0.186428
0.202369
0.216274
0.231895
0.242558
0.254048
0.255437
0.113221
0.116384
0.120509
0.128014
0.135862
0.146794
0.157752
0.17142
0.184363
0.199473
0.212112
0.226136
0.23429
0.242999
0.239948
0.112816
0.115941
0.120041
0.127446
0.135196
0.145926
0.156616
0.169858
0.182179
0.196402
0.207716
0.220033
0.225558
0.231345
0.22361
0.112389
0.115496
0.119545
0.126849
0.134492
0.14501
0.155418
0.16821
0.179877
0.193158
0.203093
0.213592
0.216394
0.219116
0.206453
0.111939
0.115012
0.119028
0.12623
0.133764
0.144065
0.15418
0.166501
0.177487
0.189775
0.198277
0.206849
0.206846
0.206344
0.188502
0.111468
0.114508
0.118494
0.1256
0.133026
0.143116
0.152936
0.164782
0.175063
0.186317
0.193309
0.199827
0.196911
0.192979
0.169626
0.110971
0.113968
0.1179
0.124877
0.132159
0.141987
0.151455
0.162753
0.172254
0.182373
0.187791
0.19212
0.186369
0.178798
0.149405
)
;

boundaryField
{
    inlet
    {
        type            zeroGradient;
    }
    outlet
    {
        type            fixedValue;
        value           nonuniform 0();
    }
    cylinder
    {
        type            zeroGradient;
    }
    top
    {
        type            symmetryPlane;
    }
    bottom
    {
        type            symmetryPlane;
    }
    defaultFaces
    {
        type            empty;
    }
    procBoundary2to0
    {
        type            processor;
        value           nonuniform List<scalar> 
26
(
0.633321
0.611392
0.59642
0.59642
0.575117
0.548636
0.519032
0.487814
0.456127
0.424789
0.39437
0.116155
0.119604
0.12387
0.132196
0.140789
0.153221
0.166201
0.182919
0.200658
0.222029
0.244839
0.27117
0.298984
0.330122
0.362088
)
;
    }
    procBoundary2to3
    {
        type            processor;
        value           nonuniform List<scalar> 
50
(
-0.361016
-0.362781
-0.362781
-0.363
-0.367852
-0.367852
-0.366549
-0.366549
-0.364075
-0.364075
-0.35581
-0.348556
-0.348556
-0.33565
-0.33565
-0.316344
-0.316344
-0.298708
-0.277908
-0.277908
-0.264781
-0.251983
-0.239774
-0.227893
-0.216341
-0.205286
-0.194762
-0.184716
-0.175146
-0.166074
-0.157483
-0.149358
-0.141692
-0.134472
-0.134472
-0.131521
-0.12489
-0.118686
-0.112902
-0.107534
-0.102581
-0.0980407
-0.0939162
-0.0902136
-0.0869415
-0.0841169
-0.081756
-0.0798977
-0.0785686
-0.0778209
)
;
    }
}


// ************************************************************************* //
