/*--------------------------------*- C++ -*----------------------------------*\
  =========                 |
  \\      /  F ield         | OpenFOAM: The Open Source CFD Toolbox
   \\    /   O peration     | Website:  https://openfoam.org
    \\  /    A nd           | Version:  7
     \\/     M anipulation  |
\*---------------------------------------------------------------------------*/
FoamFile
{
    version     2.0;
    format      ascii;
    class       surfaceScalarField;
    location    "90";
    object      phi;
}
// * * * * * * * * * * * * * * * * * * * * * * * * * * * * * * * * * * * * * //

dimensions      [0 3 -1 0 0 0 0];

internalField   nonuniform List<scalar> 
4137
(
0.000667518
9.03705e-05
0.000577148
0.000245986
0.000112432
0.000464716
-0.00026641
0.000139276
0.00032544
0.00074591
-0.000873044
-0.00415185
0.000170922
0.000154518
0.000882249
-0.00158437
0.00238579
-0.0056554
-0.0124369
0.000207141
-5.26225e-05
0.00103207
-0.0024093
0.00273095
-0.00735428
0.00550217
-0.0152081
0.00929539
-0.0257787
-0.0379952
0.000247499
-0.000300122
0.00119272
-0.00335452
0.00308522
-0.00924678
0.00606282
-0.0181857
0.0099398
-0.0296557
0.0141644
-0.0422198
-0.0542163
0.000291399
-0.00059152
0.00136073
-0.00442385
0.00343751
-0.0113236
0.00657524
-0.0213234
0.0104484
-0.0335289
0.0144336
-0.046205
0.0179772
-0.0577599
-0.0674938
0.000338089
-0.00092961
0.00153202
-0.00561778
0.00377561
-0.0135672
0.00701757
-0.0245654
0.0108039
-0.0373152
0.0144888
-0.0498899
0.0176113
-0.0608824
0.0200334
-0.069916
0.0218768
-0.0773594
-0.0840069
0.000386688
-0.0013163
0.00170197
-0.00693306
0.00408702
-0.0159522
0.00737193
-0.0278503
0.0109996
-0.0409429
0.014346
-0.0532363
0.0170563
-0.0635926
0.0190931
-0.0719528
0.0206265
-0.0788927
-0.085229
0.0218486
0.000436183
-0.00175248
0.00186561
-0.00836248
0.00435991
-0.0184465
0.00762585
-0.0311163
0.0110376
-0.0443546
0.0140269
-0.0562256
0.0163459
-0.0659117
0.0180391
-0.073646
0.0193042
-0.0801578
-0.0862485
0.0203237
0.000485451
-0.00223793
0.00201783
-0.00989486
0.00458395
-0.0210126
0.00777277
-0.0343051
0.0109267
-0.0475086
0.0135556
-0.0588545
0.0155114
-0.0678675
0.0169005
-0.075035
0.017932
-0.0811893
-0.087088
0.0187714
0.00053328
-0.00277121
0.00215363
-0.0115152
0.00475114
-0.0236102
0.00781168
-0.0373656
0.0106806
-0.0503775
0.0129571
-0.061131
0.0145805
-0.0694909
0.0157009
-0.0761555
0.0165265
-0.0820149
-0.0877633
0.0172018
0.00057841
-0.00334962
0.00226841
-0.0132052
0.00485618
-0.0261979
0.00774624
-0.0402557
0.0103155
-0.0529468
0.0122547
-0.0630702
0.0135766
-0.0708128
0.0144593
-0.0770382
0.0151004
-0.082656
-0.0882854
0.0156225
0.000619585
-0.00396921
0.00235827
-0.0149439
0.00489666
-0.0287363
0.00758354
-0.0429425
0.00984831
-0.0552115
0.01147
-0.0646919
0.0125198
-0.0718626
0.0131902
-0.0777087
0.013663
-0.0831287
-0.0886618
0.0140394
0.000655605
-0.00462481
0.00242016
-0.0167084
0.00487283
-0.031189
0.007333
-0.0454027
0.0092961
-0.0571746
0.0106219
-0.0660176
0.011426
-0.0726668
0.0119052
-0.0781878
0.0122215
-0.083445
-0.0888974
0.0124571
0.000685383
-0.0053102
0.0024521
-0.0184752
0.00478721
-0.0335241
0.00700527
-0.0476208
0.0086748
-0.0588442
0.00972672
-0.0670696
0.0103085
-0.0732486
0.0106129
-0.0784921
0.0107812
-0.0836133
-0.0889956
0.0108794
0.000707992
-0.00601819
0.00245316
-0.0202203
0.00464403
-0.035715
0.00661146
-0.0495882
0.00799902
-0.0602317
0.00879834
-0.0678689
0.00917775
-0.073628
0.0093201
-0.0786345
0.00934651
-0.0836397
-0.0889584
0.00930937
0.000722696
-0.00674088
0.00242345
-0.0219211
0.00444874
-0.0377403
0.00616252
-0.051302
0.00728175
-0.0613509
0.00784824
-0.0684354
0.00804192
-0.0738217
0.00803207
-0.0786246
0.00792062
-0.0835283
-0.0887867
0.00774892
0.000728975
-0.00746986
0.00236397
-0.0235561
0.00420744
-0.0395837
0.00566884
-0.0527634
0.00653433
-0.0622164
0.0068859
-0.068787
0.00690755
-0.0738433
0.00675281
-0.0784699
0.00650628
-0.0832818
-0.0884803
0.00619988
0.000726531
-0.00819639
0.00227648
-0.025106
0.00392653
-0.0412338
0.00514
-0.0539768
0.00576651
-0.0628429
0.00591908
-0.0689395
0.00577977
-0.073704
0.00548537
-0.0781755
0.00510562
-0.082902
-0.0880385
0.00466377
0.000715281
-0.00891167
0.00216325
-0.026554
0.00361238
-0.0426829
0.00458462
-0.0549491
0.0049866
-0.0632449
0.00495414
-0.0689071
0.00466288
-0.0734127
0.00423245
-0.0777451
0.00371986
-0.0823894
-0.0874605
0.00314186
0.000695352
-0.00960702
0.00202691
-0.0278856
0.00327109
-0.0439271
0.00401035
-0.0556884
0.00420153
-0.0634361
0.00399626
-0.0687018
0.0035607
-0.0729772
0.00299759
-0.077182
0.00234915
-0.081741
-0.0867439
0.00163255
0.000667076
-0.0102741
0.00187046
-0.0290889
0.00290839
-0.044965
0.00342386
-0.0562038
0.00341706
-0.0634293
0.00304952
-0.0683342
0.00247617
-0.0724038
0.00178494
-0.0764908
0.00100016
-0.0809562
-0.085836
9.22557e-05
0.000630969
-0.0109051
0.00169704
-0.030155
0.00252958
-0.0457976
0.0028309
-0.0565051
0.00263796
-0.0632364
0.00211713
-0.0678134
0.00141089
-0.0716976
0.00059168
-0.0756715
-0.000306521
-0.080058
-0.0848256
-0.00131691
0.000587682
-0.0114927
0.00150961
-0.0310769
0.00213944
-0.0464274
0.00223643
-0.0566021
0.0018681
-0.062868
0.00120177
-0.0671471
0.000365072
-0.0708609
-0.000576987
-0.0747295
-0.00161632
-0.0790187
-0.0837072
-0.00273468
0.000537974
-0.0120307
0.001311
-0.03185
0.00174228
-0.0468587
0.0016446
-0.0565045
0.0011106
-0.062334
0.000304877
-0.0663414
-0.000653752
-0.0699023
-0.00171716
-0.0736661
-0.00288542
-0.0778504
-0.0824595
-0.00413314
0.0004827
-0.0125134
0.001104
-0.0324713
0.00134192
-0.0470966
0.00105878
-0.0562213
0.000368296
-0.0616436
-0.000568782
-0.0654043
-0.00164787
-0.0688232
-0.00283371
-0.0724802
-0.00412539
-0.0765587
-0.081081
-0.00550387
0.000422756
-0.0129362
0.000891317
-0.0329398
0.000941674
-0.0471469
0.000482342
-0.055762
-0.000356582
-0.0608046
-0.00142004
-0.0643408
-0.00261784
-0.0676254
-0.00392256
-0.0711755
-0.00533657
-0.0751447
-0.0795736
-0.00684396
0.000358989
-0.0132952
0.00067557
-0.0332564
0.000544789
-0.0470162
-7.90067e-05
-0.0551382
-0.00106209
-0.0598215
-0.00224872
-0.0631542
-0.00356178
-0.0663123
-0.00498259
-0.0697547
-0.00651754
-0.0736098
-0.07794
-0.00815116
0.000292356
-0.0135875
0.00045875
-0.0334228
0.000159401
-0.0467168
-0.000634467
-0.0543443
-0.00174918
-0.0587068
-0.00305341
-0.06185
-0.0044787
-0.064887
-0.00601302
-0.0682204
-0.00766688
-0.0719559
-0.0761841
-0.00942273
0.000224662
-0.0138122
0.000242884
-0.033441
-0.000231554
-0.0462424
-0.00117215
-0.0534037
-0.00241546
-0.0574635
-0.00383331
-0.0604321
-0.00536787
-0.0633525
-0.00701323
-0.066575
-0.00878318
-0.070186
-0.0743126
-0.0106547
0.000155897
-0.0139681
4.30207e-05
-0.0333281
-0.000614516
-0.0455848
-0.00169588
-0.0523224
-0.00306024
-0.0560992
-0.0045877
-0.0589047
-0.00622867
-0.0617115
-0.0079825
-0.0648212
-0.00986523
-0.0683032
-0.0723305
-0.0118473
8.24198e-05
-0.0140505
-0.000188016
-0.0330577
-0.000985217
-0.0447876
-0.00220253
-0.0511051
-0.0036828
-0.0546189
-0.00531607
-0.0572714
-0.00706072
-0.0599668
-0.00892032
-0.0629616
-0.0109131
-0.0663104
-0.070235
-0.0130087
1.05261e-06
-0.0140516
-0.000408122
-0.0326485
-0.00134545
-0.0438503
-0.00269085
-0.0497597
-0.00428224
-0.0530275
-0.00601804
-0.0555356
-0.00786439
-0.0581205
-0.00982788
-0.0609981
-0.0119263
-0.064212
-0.0680247
-0.0141365
-6.71512e-05
-0.0139844
-0.000617435
-0.0320983
-0.00169347
-0.0427743
-0.00316034
-0.0482928
-0.00485784
-0.05133
-0.00669305
-0.0537004
-0.00864035
-0.0561732
-0.0107087
-0.0589298
-0.0128999
-0.0620208
-0.0657164
-0.0152082
-0.000139248
-0.0138452
-0.000819287
-0.0314182
-0.00202822
-0.0415653
-0.00361037
-0.0467106
-0.0054089
-0.0495315
-0.00734007
-0.0517692
-0.00938646
-0.0541268
-0.011561
-0.0567553
-0.0138727
-0.0597091
-0.0634579
-0.0161312
-0.000210512
-0.0136346
-0.0010142
-0.0306145
-0.00234904
-0.0402305
-0.00404035
-0.0450193
-0.00593496
-0.0476368
-0.00795808
-0.0497461
-0.0100977
-0.0519872
-0.0123547
-0.0544983
-0.0146917
-0.0573721
-0.0606753
-0.0174742
-0.00028005
-0.0133546
-0.00120184
-0.0296927
-0.00265547
-0.0387769
-0.00444987
-0.0432249
-0.00643583
-0.0456509
-0.00854648
-0.0476354
-0.0107707
-0.049763
-0.0131042
-0.0521648
-0.0155649
-0.0549114
-0.0579128
-0.0183274
-0.000347446
-0.0130071
-0.00138168
-0.0286585
-0.00294712
-0.0372114
-0.00483862
-0.0413334
-0.00691121
-0.0435783
-0.0091052
-0.0454414
-0.0114123
-0.0474559
-0.013837
-0.04974
-0.016414
-0.0523344
-0.0551271
-0.0191997
-0.000412392
-0.0125948
-0.00155325
-0.0275176
-0.00322365
-0.035541
-0.00520633
-0.0393508
-0.00736069
-0.0414239
-0.00963341
-0.0431687
-0.0120193
-0.04507
-0.0145283
-0.047231
-0.0171914
-0.0496713
-0.0522907
-0.0200278
-0.00047462
-0.0121201
-0.00171611
-0.0262762
-0.00348474
-0.0337724
-0.0055528
-0.0372827
-0.00778415
-0.0391926
-0.0101314
-0.0408214
-0.0125928
-0.0426087
-0.0151813
-0.0446424
-0.0179217
-0.0469309
-0.0493919
-0.0208205
-0.000533887
-0.0115862
-0.00186991
-0.0249401
-0.00373016
-0.0319121
-0.00587787
-0.035135
-0.00818142
-0.036889
-0.010599
-0.0384039
-0.0131317
-0.040076
-0.0157938
-0.0419804
-0.0186056
-0.0441191
-0.0464261
-0.0215714
-0.000589978
-0.0109963
-0.00201434
-0.0235158
-0.00395968
-0.0299668
-0.00618143
-0.0329132
-0.00855244
-0.034518
-0.0110359
-0.0359204
-0.0136356
-0.0374764
-0.0163661
-0.0392498
-0.0192456
-0.0412396
-0.043393
-0.0222787
-0.000642698
-0.0103536
-0.00214915
-0.0220093
-0.00417314
-0.0279428
-0.00646338
-0.030623
-0.00889709
-0.0320843
-0.0114422
-0.0333753
-0.0141042
-0.0348143
-0.0168984
-0.0364556
-0.0198417
-0.0382963
-0.0402944
-0.0229403
-0.000691878
-0.0096617
-0.00227413
-0.0204271
-0.0043704
-0.0258466
-0.00672366
-0.0282697
-0.00921532
-0.0295927
-0.0118174
-0.0307732
-0.0145374
-0.0320944
-0.0173907
-0.0336023
-0.0203938
-0.0352931
-0.0371337
-0.0235545
-0.000737369
-0.00892433
-0.00238909
-0.0187753
-0.00455135
-0.0236843
-0.00696221
-0.0258589
-0.00950706
-0.0270478
-0.0121617
-0.0281186
-0.0149349
-0.0293211
-0.0178427
-0.0306946
-0.0209014
-0.0322344
-0.0339149
-0.0241202
-0.000779043
-0.00814528
-0.00249389
-0.0170605
-0.00471592
-0.0214623
-0.007179
-0.0233958
-0.00977224
-0.0244546
-0.0124747
-0.0254161
-0.0152967
-0.0264992
-0.0182542
-0.0277371
-0.0213639
-0.0291246
-0.0306425
-0.0246363
-0.000816789
-0.0073285
-0.0025884
-0.0152889
-0.00486401
-0.0191866
-0.00737397
-0.0208858
-0.0100108
-0.0218177
-0.0127565
-0.0226703
-0.0156224
-0.0236333
-0.0186249
-0.0247345
-0.0217809
-0.0259687
-0.0273215
-0.0251019
-0.000850512
-0.00647798
-0.00267252
-0.0134669
-0.0049956
-0.0168636
-0.00754712
-0.0183343
-0.0102227
-0.0191421
-0.013007
-0.0198861
-0.015912
-0.0207283
-0.0189547
-0.0216918
-0.0221519
-0.0227715
-0.0239571
-0.0255163
-0.000880132
-0.00559785
-0.00274618
-0.0116008
-0.00511062
-0.0144991
-0.00769842
-0.0157465
-0.0104079
-0.0164326
-0.0132259
-0.0170681
-0.0161653
-0.017789
-0.0192432
-0.0186139
-0.0224765
-0.0195382
-0.0205546
-0.025879
-0.00090558
-0.00469227
-0.00280928
-0.00969712
-0.00520906
-0.0120993
-0.00782785
-0.0131277
-0.0105664
-0.0136941
-0.0134133
-0.0142212
-0.0163821
-0.0148201
-0.0194903
-0.0155058
-0.0227546
-0.0162739
-0.0171196
-0.0261896
-0.000926801
-0.00376547
-0.00286179
-0.00776213
-0.00529087
-0.00967026
-0.00793539
-0.0104832
-0.0106981
-0.0109314
-0.0135691
-0.0113502
-0.0165625
-0.0118268
-0.0196957
-0.0123725
-0.0229858
-0.0129838
-0.0136576
-0.0264479
-0.000943748
-0.00282172
-0.00290364
-0.00580224
-0.00535604
-0.00721787
-0.00802105
-0.0078182
-0.010803
-0.00814938
-0.0136933
-0.00845998
-0.0167062
-0.00881381
-0.0198595
-0.00921919
-0.0231702
-0.00967316
-0.010174
-0.0266537
-0.000956386
-0.00186534
-0.00293482
-0.0038238
-0.00540455
-0.00474813
-0.0080848
-0.00513795
-0.0108811
-0.00535304
-0.0137857
-0.00555543
-0.0168133
-0.00578626
-0.0199816
-0.00605087
-0.0233075
-0.00634726
-0.00667449
-0.026807
-0.000964688
-0.00295528
-0.00543639
-0.00812665
-0.00244769
-0.0109324
-0.00254726
-0.0138464
-0.00264144
-0.0168836
-0.00274909
-0.0200618
-0.00287271
-0.0233977
-0.00301132
-0.00316445
-0.0269077
-0.00814659
-0.0109569
-0.0138754
-0.0169172
-0.0201001
-0.0234409
-0.0269556
0.0590859
0.0103815
-0.0585881
0.0595835
0.0119595
0.0600796
0.0135432
0.0605732
0.015129
0.0610619
0.0167131
0.061542
0.0182913
0.0620073
0.0198584
0.021408
0.0613509
0.00987921
-0.0608486
0.0618595
0.0114509
0.0623743
0.0130285
0.0628946
0.0146086
0.0634194
0.0161883
0.0639465
0.0177641
0.064473
0.019332
0.0208877
0.0637195
0.00938648
-0.0632268
0.0642262
0.0109442
0.064747
0.0125077
0.0652816
0.014074
0.0658296
0.0156403
0.0663899
0.0172038
0.0669606
0.0187613
0.0203092
0.0662321
0.00890974
-0.0657553
0.0667279
0.0104484
0.0672435
0.011992
0.0677795
0.013538
0.068336
0.0150838
0.0689131
0.0166268
0.0695101
0.0181643
0.0196933
0.0688991
0.0084486
-0.068438
0.0693827
0.00996484
0.0698898
0.011485
0.0704213
0.0130065
0.0709779
0.0145271
0.0715604
0.0160443
0.0721691
0.0175556
0.0190585
0.0717178
0.0080014
-0.0712706
0.0721904
0.00949226
0.0726893
0.0109861
0.0732153
0.0124805
0.0737694
0.013973
0.0743523
0.0154614
0.0749645
0.0169434
0.0184165
0.0746845
0.00756693
-0.07425
0.0751473
0.00902947
0.0756391
0.0104943
0.0761606
0.011959
0.0767123
0.0134213
0.077295
0.0148788
0.0779091
0.0163293
0.0177705
0.0778015
0.00714472
-0.0773793
0.0782549
0.00857597
0.0787403
0.010009
0.0792578
0.0114414
0.0798081
0.012871
0.0803916
0.0142954
0.0810086
0.0157123
0.0171196
0.0810709
0.00673372
-0.0806599
0.0815159
0.00813099
0.0819954
0.00952953
0.0825097
0.0109271
0.0830593
0.0123214
0.0836444
0.0137103
0.0842653
0.0150915
0.0164628
0.0845009
0.00633446
-0.0841017
0.0849371
0.00769481
0.0854106
0.00905606
0.0859217
0.010416
0.0864706
0.0117725
0.0870575
0.0131234
0.0876824
0.0144665
0.0157997
0.0880961
0.00594658
-0.0877082
0.0885237
0.00726718
0.0889914
0.00858837
0.0894994
0.00990803
0.0900478
0.0112241
0.0906367
0.0125345
0.091266
0.0138371
0.0151299
0.0918632
0.00556978
-0.0914863
0.0922825
0.00684783
0.0927446
0.00812623
0.0932497
0.00940293
0.0937979
0.0106759
0.0943891
0.0119433
0.0950233
0.0132029
0.0144529
0.0958097
0.00520366
-0.0954436
0.0962211
0.00643641
0.096678
0.0076693
0.0971806
0.00890037
0.0977288
0.0101277
0.0983227
0.0113494
0.0989621
0.0125635
0.0137682
0.0999438
0.00484787
-0.099588
0.100348
0.00603252
0.1008
0.00721716
0.1013
0.00839992
0.101849
0.00957894
0.102446
0.0107524
0.103091
0.0119185
0.0130753
0.104275
0.00450182
-0.103929
0.104672
0.00563572
0.10512
0.0067694
0.105618
0.00790114
0.106168
0.0090292
0.106769
0.0101518
0.10742
0.0112673
0.0123738
0.10881
0.00416469
-0.108473
0.109201
0.00524499
0.109645
0.00632504
0.110143
0.00740314
0.110695
0.00847761
0.1113
0.00954681
0.111958
0.0106091
0.112669
0.0116627
0.0127061
0.113564
0.00383638
-0.113236
0.113949
0.00486033
0.11439
0.00588394
0.114888
0.00690561
0.115441
0.00792375
0.116051
0.00893681
0.116717
0.00994321
0.117439
0.0109414
0.0119297
0.118545
0.0035162
-0.118225
0.118925
0.00448092
0.119363
0.00544525
0.119861
0.00640768
0.120418
0.00736674
0.121034
0.00832093
0.121709
0.00926878
0.122441
0.0102088
0.0111395
0.123767
0.00320348
-0.123454
0.124142
0.00410608
0.124579
0.00500826
0.125078
0.00590862
0.125639
0.00680577
0.126261
0.0076983
0.126945
0.00858484
0.12769
0.00946399
0.0103344
0.129242
0.00289756
-0.128936
0.129613
0.00373508
0.130049
0.00457218
0.13055
0.00540755
0.131116
0.00623989
0.131747
0.00706792
0.132441
0.00789034
0.133199
0.00870585
0.00951316
0.134987
0.0025977
-0.134687
0.135355
0.00336711
0.135791
0.00413612
0.136295
0.00490352
0.136866
0.00566812
0.137506
0.00642872
0.138212
0.00718412
0.138985
0.00793314
0.00867458
0.141017
0.00230311
-0.140723
0.141383
0.00300131
0.14182
0.00369914
0.142328
0.00439551
0.142907
0.00508931
0.143556
0.00577947
0.144275
0.00646489
0.145064
0.00714448
0.00781716
0.147353
0.00201293
-0.147063
0.147718
0.00263673
0.148157
0.0032602
0.14867
0.00388236
0.149257
0.00450223
0.149918
0.00511883
0.150651
0.00573119
0.151458
0.00633832
0.00693924
0.154017
0.00172622
-0.15373
0.154382
0.00227229
0.154824
0.00281809
0.155343
0.00336276
0.15594
0.00390543
0.156614
0.00444523
0.157364
0.00498132
0.158189
0.00551282
0.00603888
0.161034
0.00144186
-0.160749
0.161399
0.00190675
0.161846
0.00237143
0.162373
0.00283517
0.162981
0.00329722
0.16367
0.00375685
0.164438
0.00421332
0.165285
0.00466588
0.0051138
0.168431
0.00115856
-0.168148
0.168799
0.00153865
0.169252
0.00191859
0.16979
0.00229779
0.170411
0.00267563
0.171117
0.00305151
0.171905
0.00342482
0.172776
0.00379494
0.00416128
0.176243
0.000874814
-0.17596
0.176616
0.00116626
0.177077
0.00145764
0.177626
0.00174847
0.178263
0.00203828
0.178988
0.00232662
0.1798
0.002613
0.180698
0.00289696
0.00317803
0.184508
0.00058868
-0.184222
0.184887
0.000787448
0.185358
0.000986191
0.185922
0.00118459
0.186578
0.00138232
0.187326
0.00157906
0.188164
0.00177449
0.189093
0.00196829
0.00216013
0.193268
0.00029786
-0.192978
0.193656
0.000399568
0.194141
0.00050129
0.194723
0.000602859
0.195401
0.000704105
0.196175
0.000804867
0.197045
0.000904975
0.198009
0.00100426
0.00110257
0.202578
-0.20228
0.202978
0.203479
0.204082
0.204786
0.205591
0.206496
0.2075
0.0491944
-0.0163945
-0.0489311
0.0496235
-0.0156373
0.0501043
-0.0146173
0.0505958
-0.0135003
0.051089
-0.0123405
0.0515851
-0.0111508
0.0520828
-0.00992042
0.0525805
-0.00864888
0.0530783
-0.0073417
0.0535766
-0.00600219
0.054076
-0.00463262
0.0545774
-0.00323605
0.0550806
-0.00182011
0.0555803
-0.000407453
0.0560962
0.00111664
0.0565971
0.00264101
0.0570954
0.00416546
0.057593
0.00570231
0.0580904
0.00725151
0.0088117
0.0524577
-0.0168039
-0.0520483
0.0528282
-0.0160079
0.0532327
-0.0150217
0.0536548
-0.0139224
0.0540699
-0.0127555
0.0544826
-0.0115636
0.0549003
-0.0103381
0.0553233
-0.00907189
0.0557512
-0.00776959
0.0561847
-0.00643571
0.0566245
-0.00507247
0.0570707
-0.00368227
0.0575198
-0.00226918
0.0579538
-0.000841455
0.0584316
0.000638831
0.0589047
0.00216793
0.059381
0.00368917
0.0598636
0.00521964
0.0603529
0.00676227
0.00831596
0.0557935
-0.0171591
-0.0554382
0.0561167
-0.0163312
0.0564463
-0.0153513
0.0567967
-0.0142728
0.0571487
-0.0131075
0.0574982
-0.0119131
0.0578527
-0.0106925
0.0582148
-0.00943402
0.0585836
-0.00813842
0.058959
-0.00681107
0.0593412
-0.00545468
0.0597301
-0.00407111
0.0601235
-0.00266264
0.0605186
-0.00123652
0.0609564
0.000201049
0.0613871
0.00173716
0.0618286
0.00324775
0.0622818
0.0047664
0.0627477
0.0062964
0.00783688
0.0592423
-0.0174337
-0.0589677
0.0595038
-0.0165927
0.0597653
-0.0156128
0.0600442
-0.0145517
0.0603326
-0.013396
0.0606225
-0.012203
0.0609176
-0.0109876
0.061222
-0.00973837
0.0615357
-0.00845215
0.0618583
-0.00713364
0.0621901
-0.00578649
0.0625316
-0.00441268
0.0628829
-0.00301393
0.063242
-0.0015956
0.0636212
-0.000178145
0.0640196
0.0013388
0.0644299
0.00283741
0.0648552
0.00434109
0.0652967
0.0058549
0.00737825
0.0628028
-0.0176357
-0.0626007
0.0630034
-0.0167933
0.0632018
-0.0158112
0.0634128
-0.0147626
0.0636368
-0.0136199
0.0638669
-0.0124331
0.0641037
-0.0112244
0.064351
-0.00998565
0.0646103
-0.00871144
0.0648815
-0.00740484
0.065165
-0.00607006
0.0654619
-0.00470953
0.0657731
-0.00332517
0.0660983
-0.0019208
0.0664267
-0.000506473
0.0667967
0.000968777
0.0671792
0.0024549
0.067579
0.0039413
0.0679982
0.00543562
0.0069385
0.0664924
-0.0177678
-0.0663604
0.0666303
-0.0169311
0.0667654
-0.0159463
0.0669093
-0.0149066
0.0670678
-0.0137785
0.067237
-0.0126024
0.0674157
-0.0114031
0.0676067
-0.0101767
0.0678124
-0.00891705
0.0680331
-0.00762562
0.0682695
-0.00630643
0.0685222
-0.00496225
0.0687921
-0.00359502
0.0690788
-0.00220749
0.0693791
-0.000806793
0.0697172
0.000630684
0.0700727
0.00209942
0.070449
0.00356494
0.070848
0.00503669
0.00651583
0.070321
-0.0178269
-0.0702619
0.0703913
-0.0170014
0.0704609
-0.0160159
0.0705379
-0.0149836
0.0706306
-0.0138712
0.0707383
-0.0127101
0.0708592
-0.0115239
0.0709949
-0.0103124
0.0711479
-0.00907003
0.0713192
-0.00779698
0.0715095
-0.00649672
0.0717195
-0.00517219
0.0719499
-0.00382546
0.0722014
-0.00245897
0.0724722
-0.00107765
0.0727812
0.000321685
0.0731099
0.00177079
0.0734634
0.00321138
0.0738432
0.00465689
0.00610902
0.0742909
-0.0178108
-0.0743069
0.0742897
-0.0170003
0.0742918
-0.016018
0.0743021
-0.0149939
0.0743297
-0.0138988
0.0743759
-0.0127563
0.0744394
-0.0115874
0.0745209
-0.0103939
0.0746225
-0.00917164
0.0747457
-0.00792018
0.0748913
-0.0066423
0.0750599
-0.00534078
0.0752521
-0.00401766
0.0754678
-0.00267473
0.0757061
-0.00131596
0.0759931
3.4762e-05
0.0762942
0.00146966
0.0766261
0.00287949
0.0769877
0.00429528
0.00571746
0.0784026
-0.0177193
-0.0784942
0.0783283
-0.0169259
0.0782618
-0.0159515
0.0782062
-0.0149383
0.0781697
-0.0138623
0.0781553
-0.0127418
0.078162
-0.0115941
0.0781903
-0.0104222
0.0782418
-0.00922315
0.0783182
-0.00799654
0.0784204
-0.00674456
0.0785495
-0.00546985
0.0787064
-0.00417461
0.0788926
-0.00286092
0.0791087
-0.00153208
0.0793433
-0.000199793
0.0796259
0.00118707
0.079938
0.00256738
0.0802824
0.00395087
0.00533994
0.0826588
-0.0175529
-0.0828251
0.0825112
-0.0167783
0.0823761
-0.0158165
0.0822553
-0.0148174
0.0821562
-0.0137632
0.0820821
-0.0126678
0.0820331
-0.0115451
0.0820091
-0.0103982
0.0820117
-0.0092257
0.0820423
-0.00802714
0.0821021
-0.00680438
0.0821921
-0.00555983
0.0823131
-0.00429561
0.0824659
-0.00301371
0.0826504
-0.00171664
0.0828626
-0.00041199
0.0831203
0.000929386
0.0834121
0.00227561
0.0837389
0.00362404
0.00497717
0.0870644
-0.0173129
-0.0873044
0.0868442
-0.0165581
0.086641
-0.0156132
0.0864559
-0.0146324
0.0862955
-0.0136028
0.0861632
-0.0125355
0.0860593
-0.0114412
0.0859841
-0.010323
0.0859387
-0.00918027
0.0859245
-0.00801292
0.0859427
-0.00682257
0.0859942
-0.00561134
0.0860798
-0.00438124
0.0862003
-0.00313418
0.086356
-0.0018724
0.0865451
-0.000601053
0.0867787
0.000695787
0.08705
0.00200434
0.0873596
0.00331436
0.00462863
0.0916261
-0.0170005
-0.0919385
0.0913344
-0.0162664
0.0910639
-0.0153428
0.0908157
-0.0143842
0.0905953
-0.0133824
0.0904059
-0.0123461
0.0902483
-0.0112836
0.0901228
-0.0101975
0.0900303
-0.0090878
0.0899722
-0.00795481
0.0899496
-0.00679998
0.0899635
-0.00562521
0.0900146
-0.00443238
0.0901037
-0.00322331
0.0902314
-0.00200005
0.0903967
-0.000766368
0.0906076
0.000484907
0.0908589
0.00175302
0.0911517
0.00302153
0.00429399
0.0963516
-0.0166168
-0.0967354
0.0959897
-0.0159044
0.0956531
-0.0150062
0.0953429
-0.014074
0.0950637
-0.0131032
0.0948184
-0.0121009
0.0946081
-0.0110732
0.0944331
-0.0100225
0.0942945
-0.00894915
0.0941933
-0.00785365
0.0941308
-0.00673742
0.0941078
-0.0056022
0.0941251
-0.00444973
0.0941836
-0.00328174
0.0942836
-0.00210011
0.0944251
-0.000907806
0.0946142
0.000295783
0.0948461
0.0015211
0.0951225
0.00274516
0.00397289
0.10125
-0.016163
-0.101704
0.100819
-0.0154736
0.100418
-0.0146046
0.100046
-0.0137028
0.0997095
-0.0127663
0.0994095
-0.0118009
0.0991475
-0.0108112
0.098924
-0.00979904
0.0987399
-0.00876512
0.0985965
-0.0077102
0.0984947
-0.00663561
0.0984354
-0.00554295
0.0984196
-0.00443387
0.0984478
-0.00331001
0.0985209
-0.00217313
0.0986387
-0.00102565
0.098807
0.000127488
0.0990199
0.00130816
0.0992801
0.00248496
0.00366501
0.10633
-0.0156403
-0.106853
0.105832
-0.0149754
0.105367
-0.0141394
0.104936
-0.0132717
0.104542
-0.0123728
0.104189
-0.0114471
0.103876
-0.0104983
0.103605
-0.00952782
0.103376
-0.00853648
0.103191
-0.00752518
0.10305
-0.00649524
0.102956
-0.00544813
0.102907
-0.00438534
0.102906
-0.0033084
0.102951
-0.00221887
0.103045
-0.00111901
0.103194
-2.17124e-05
0.103388
0.00111383
0.103633
0.00223981
0.00336942
0.111604
-0.0150498
-0.112194
0.11104
-0.0144112
0.110512
-0.0136115
0.110022
-0.0127818
0.109572
-0.0119234
0.109166
-0.0110404
0.108803
-0.0101354
0.108485
-0.00920962
0.108212
-0.0082639
0.107986
-0.00729927
0.107808
-0.00631702
0.107678
-0.00531853
0.107598
-0.00430525
0.107569
-0.00327865
0.10759
-0.00224029
0.107663
-0.00119203
0.107781
-0.000139512
0.107959
0.000935535
0.108189
0.00200938
0.00308582
0.117081
-0.0143927
-0.117738
0.116452
-0.0137823
0.115863
-0.0130222
0.115315
-0.0122338
0.11481
-0.0114191
0.114352
-0.0105816
0.113939
-0.00972323
0.113575
-0.00884503
0.113259
-0.00794791
0.112992
-0.00703292
0.112777
-0.00610129
0.112613
-0.00515433
0.112501
-0.00419339
0.112442
-0.00321983
0.112437
-0.00223509
0.112485
-0.0012408
0.112587
-0.000241033
0.112747
0.000775088
0.112964
0.00179305
0.00281362
0.122774
-0.0136697
-0.123497
0.122082
-0.0130898
0.121432
-0.0123724
0.120827
-0.0116285
0.120268
-0.0108605
0.119758
-0.0100713
0.119297
-0.00926231
0.118887
-0.00843459
0.118528
-0.00758898
0.118221
-0.00672654
0.117968
-0.00584843
0.11777
-0.00495591
0.117627
-0.00405021
0.11754
-0.00313263
0.117509
-0.00220451
0.117536
-0.00126735
0.117619
-0.000324037
0.117762
0.000631704
0.117964
0.00159089
0.00255252
0.128697
-0.0128817
-0.129485
0.127942
-0.0123348
0.127233
-0.011663
0.126571
-0.0109666
0.125959
-0.0102482
0.125397
-0.00950991
0.124888
-0.00875316
0.124432
-0.00797874
0.124031
-0.00718752
0.123685
-0.00638052
0.123395
-0.00555885
0.123163
-0.00472367
0.122989
-0.00387616
0.122874
-0.00301751
0.122818
-0.00214898
0.122823
-0.00127193
0.122888
-0.000388572
0.123015
0.000504578
0.123203
0.00140208
0.00230181
0.134865
-0.0120294
-0.135717
0.134048
-0.011518
0.13328
-0.0108947
0.132562
-0.0102488
0.131896
-0.00958253
0.131284
-0.00889798
0.130727
-0.00819617
0.130227
-0.00747785
0.129783
-0.00674387
0.129398
-0.00599519
0.129072
-0.00523287
0.128806
-0.00445797
0.128601
-0.00367159
0.128459
-0.00287484
0.128379
-0.00206888
0.128362
-0.00125496
0.128408
-0.000434864
0.128519
0.000393149
0.128695
0.001226
0.00206088
0.141293
-0.0111133
-0.142209
0.140416
-0.0106402
0.139589
-0.010068
0.138815
-0.00947525
0.138097
-0.00886396
0.137435
-0.00823577
0.13683
-0.00759161
0.136284
-0.00693218
0.135799
-0.00625828
0.135374
-0.00557081
0.135012
-0.00487075
0.134713
-0.00415908
0.134479
-0.0034368
0.134309
-0.00270495
0.134204
-0.00196459
0.134166
-0.00121686
0.134195
-0.000463236
0.134291
0.000296876
0.134455
0.00106206
0.00182904
0.148001
-0.0101338
-0.148981
0.147063
-0.00970177
0.146178
-0.00918336
0.145349
-0.00864638
0.144578
-0.00809264
0.143865
-0.00752347
0.143213
-0.00693967
0.142623
-0.00634191
0.142096
-0.00573093
0.141633
-0.00510756
0.141235
-0.00447269
0.140903
-0.00382721
0.140638
-0.00317205
0.140441
-0.00250815
0.140313
-0.00183646
0.140254
-0.00115802
0.140265
-0.000474082
0.140347
0.000215207
0.140499
0.000909614
0.00160559
0.155009
-0.0090909
-0.156051
0.15401
-0.00870303
0.153067
-0.00824086
0.152183
-0.00776224
0.151359
-0.00726863
0.150597
-0.0067611
0.149897
-0.00624038
0.149263
-0.00570708
0.148694
-0.00516188
0.148192
-0.00460552
0.147758
-0.00403881
0.147393
-0.00346255
0.147099
-0.00287757
0.146875
-0.0022847
0.146723
-0.00168483
0.146644
-0.00107885
0.146638
-0.000467842
0.146706
0.000147556
0.146847
0.000768
0.00138976
0.162339
-0.00798476
-0.163445
0.16128
-0.00764396
0.16028
-0.00724051
0.15934
-0.00682276
0.158463
-0.00639182
0.157651
-0.00594859
0.156904
-0.00549367
0.156225
-0.00502764
0.155614
-0.0045511
0.155073
-0.00406471
0.154603
-0.00356918
0.154206
-0.00306521
0.153882
-0.00255353
0.153632
-0.00203488
0.153457
-0.00151003
0.153358
-0.000979768
0.153336
-0.000445008
0.15339
9.32908e-05
0.153521
0.000636478
0.00118071
0.170018
-0.00681514
-0.171188
0.168899
-0.00652438
0.16784
-0.00618209
0.166845
-0.00582767
0.165916
-0.00546197
0.165053
-0.00508568
0.164258
-0.00469932
0.163534
-0.00430341
0.162881
-0.00389847
0.162302
-0.00348507
0.161796
-0.0030638
0.161366
-0.00263527
0.161013
-0.0022001
0.160737
-0.00175893
0.160539
-0.00131241
0.160421
-0.00086123
0.160382
-0.000406136
0.160424
5.16954e-05
0.160546
0.000514217
0.000977478
0.178076
-0.00558171
-0.179309
0.176896
-0.00534388
0.175779
-0.00506516
0.174727
-0.00477655
0.173744
-0.00447866
0.17283
-0.004172
0.171988
-0.00385702
0.171219
-0.00353414
0.170524
-0.0032038
0.169906
-0.00286647
0.169364
-0.00252263
0.168902
-0.00217278
0.168519
-0.00181745
0.168218
-0.00145714
0.167997
-0.00109239
0.16786
-0.000723775
0.167806
-0.000351889
0.167836
2.19555e-05
0.16795
0.000400251
0.000778932
0.186544
-0.00428396
-0.187842
0.185302
-0.00410186
0.184126
-0.00388914
0.183019
-0.00366884
0.181981
-0.00344136
0.181016
-0.00320707
0.180126
-0.00296633
0.179311
-0.00271946
0.178574
-0.00246681
0.177916
-0.00220873
0.177339
-0.0019456
0.176844
-0.0016778
0.176433
-0.00140573
0.176105
-0.00112979
0.175863
-0.000850395
0.175707
-0.000567969
0.175639
-0.000282988
0.175658
2.89348e-06
0.175764
0.000293456
0.00058375
0.19546
-0.00292131
-0.196823
0.194156
-0.00279761
0.19292
-0.00265333
0.191755
-0.00250388
0.190664
-0.00234949
0.189647
-0.0021904
0.188707
-0.00202685
0.187847
-0.00185907
0.187067
-0.0016873
0.186371
-0.00151178
0.185758
-0.00133277
0.18523
-0.00115053
0.18479
-0.000965337
0.184438
-0.000777455
0.184174
-0.000587173
0.184001
-0.000394785
0.183919
-0.000200601
0.183927
-5.52337e-06
0.184028
0.000192289
0.000390207
0.204865
-0.00149321
-0.206293
0.203498
-0.00143033
0.202202
-0.00135693
0.200979
-0.00128088
0.199831
-0.00120229
0.198762
-0.00112127
0.197773
-0.00103795
0.196867
-0.00095245
0.196044
-0.000864882
0.195308
-0.000775371
0.194659
-0.00068405
0.1941
-0.000591049
0.193631
-0.000496508
0.193254
-0.000400567
0.19297
-0.000303375
0.19278
-0.000205082
0.192686
-0.000105865
0.192686
-6.27625e-06
0.192784
9.50576e-05
0.000196319
0.214804
-0.216297
0.213374
0.212017
0.210736
0.209533
0.208412
0.207374
0.206422
0.205557
0.204782
0.204098
0.203506
0.20301
0.202609
0.202306
0.202101
0.201995
0.201989
0.202084
0.0503768
0.00146025
-0.00138608
0.0502243
0.00290158
-0.00274912
0.0499501
0.00506299
-0.00478871
0.0496275
0.00619724
-0.00587467
0.0492
0.00844514
-0.00801763
0.0487503
0.00978399
-0.00933435
0.0482188
0.0124139
-0.0118823
0.0477178
0.0140544
-0.0135534
0.0471743
0.0171101
-0.0165667
0.0467713
0.0189068
-0.0185037
0.0463796
0.0223486
-0.0219569
0.0463443
0.0238838
-0.0238485
0.0463487
0.0277193
-0.0277236
0.0472013
0.0279983
-0.0288509
0.0321823
-0.033912
0.0528469
0.00153457
0.0526969
0.0030516
0.052421
0.00533895
0.0521047