/*--------------------------------*- C++ -*----------------------------------*\
  =========                 |
  \\      /  F ield         | OpenFOAM: The Open Source CFD Toolbox
   \\    /   O peration     | Website:  https://openfoam.org
    \\  /    A nd           | Version:  7
     \\/     M anipulation  |
\*---------------------------------------------------------------------------*/
FoamFile
{
    version     2.0;
    format      ascii;
    class       volScalarField;
    location    "225";
    object      p;
}
// * * * * * * * * * * * * * * * * * * * * * * * * * * * * * * * * * * * * * //

dimensions      [0 2 -2 0 0 0 0];

internalField   nonuniform List<scalar> 
8500
(
-0.419008
-0.419983
-0.420334
-0.421171
-0.423103
-0.426495
-0.431602
-0.438773
-0.448325
-0.460687
-0.423565
-0.423802
-0.423892
-0.424601
-0.426578
-0.430248
-0.435933
-0.444057
-0.455077
-0.469329
-0.427851
-0.42735
-0.427169
-0.427701
-0.429653
-0.4335
-0.439619
-0.448491
-0.460703
-0.476308
-0.431752
-0.430549
-0.430063
-0.430384
-0.432217
-0.436118
-0.442505
-0.451896
-0.464976
-0.481728
-0.435184
-0.433332
-0.432524
-0.432569
-0.434189
-0.438005
-0.44448
-0.454149
-0.467784
-0.485118
-0.438093
-0.435664
-0.434518
-0.434224
-0.435524
-0.439106
-0.445479
-0.455181
-0.469101
-0.486462
-0.440452
-0.437534
-0.436042
-0.435345
-0.436216
-0.439409
-0.44549
-0.45498
-0.468958
-0.485865
-0.442263
-0.438962
-0.437119
-0.435963
-0.436295
-0.438948
-0.444556
-0.453598
-0.467456
-0.483472
-0.443557
-0.439988
-0.437799
-0.436134
-0.435829
-0.437798
-0.442769
-0.451144
-0.464762
-0.479481
-0.444392
-0.440675
-0.438151
-0.43594
-0.434914
-0.436074
-0.440269
-0.447782
-0.461108
-0.474135
-0.444847
-0.441101
-0.438261
-0.435481
-0.433672
-0.433927
-0.43724
-0.443728
-0.456783
-0.467718
-0.445023
-0.441359
-0.438225
-0.434869
-0.432243
-0.431533
-0.4339
-0.439243
-0.452124
-0.460565
-0.445044
-0.441552
-0.438149
-0.434226
-0.430781
-0.429089
-0.430489
-0.434629
-0.447478
-0.453101
-0.445047
-0.441795
-0.438146
-0.433682
-0.429448
-0.426803
-0.42726
-0.430221
-0.443136
-0.445865
-0.445189
-0.442208
-0.438336
-0.433369
-0.42841
-0.424889
-0.424456
-0.426374
-0.439242
-0.439455
-0.445637
-0.44292
-0.43884
-0.433425
-0.427831
-0.423554
-0.4223
-0.42343
-0.435756
-0.434347
-0.446561
-0.444062
-0.439784
-0.433984
-0.427867
-0.422979
-0.420974
-0.421656
-0.432514
-0.430569
-0.448117
-0.445765
-0.441287
-0.435168
-0.42865
-0.423304
-0.420618
-0.421135
-0.429387
-0.427606
-0.450464
-0.448132
-0.443452
-0.437078
-0.430269
-0.424597
-0.421297
-0.421715
-0.426423
-0.425207
-0.453722
-0.45125
-0.446358
-0.439776
-0.432764
-0.426844
-0.422972
-0.422991
-0.423869
-0.425063
-0.457978
-0.455176
-0.450049
-0.443284
-0.436117
-0.429957
-0.425491
-0.424481
-0.422093
-0.427927
-0.463282
-0.459932
-0.454538
-0.447586
-0.440267
-0.433802
-0.428615
-0.425977
-0.421123
-0.421772
-0.469574
-0.465574
-0.459817
-0.45264
-0.445122
-0.438224
-0.432085
-0.427433
-0.419723
-0.414794
-0.476884
-0.472057
-0.465864
-0.458401
-0.450588
-0.443074
-0.4357
-0.428683
-0.417886
-0.408214
-0.485182
-0.479365
-0.472662
-0.46483
-0.456576
-0.448222
-0.439295
-0.429578
-0.415649
-0.401757
-0.494431
-0.48749
-0.480204
-0.471898
-0.463018
-0.453554
-0.442712
-0.430029
-0.412964
-0.395575
-0.504595
-0.496427
-0.488491
-0.479585
-0.469857
-0.45896
-0.445813
-0.429971
-0.409883
-0.389488
-0.515644
-0.50617
-0.497527
-0.48787
-0.477031
-0.464314
-0.448478
-0.429375
-0.406422
-0.383458
-0.527539
-0.516708
-0.5073
-0.496717
-0.484458
-0.469477
-0.45061
-0.428226
-0.402606
-0.377401
-0.540233
-0.528017
-0.517777
-0.50606
-0.49201
-0.474298
-0.452134
-0.426518
-0.398438
-0.371257
-0.55365
-0.540043
-0.52889
-0.515796
-0.499519
-0.478626
-0.452985
-0.424242
-0.393909
-0.36496
-0.567687
-0.552699
-0.54053
-0.525772
-0.506781
-0.482314
-0.453107
-0.421378
-0.38899
-0.358444
-0.582198
-0.565856
-0.55254
-0.53578
-0.513571
-0.485222
-0.452442
-0.417898
-0.383642
-0.351641
-0.596999
-0.579338
-0.56472
-0.545562
-0.519654
-0.487217
-0.450928
-0.41376
-0.37781
-0.344481
-0.611859
-0.592925
-0.576817
-0.554821
-0.524799
-0.488172
-0.448498
-0.408911
-0.371435
-0.336895
-0.626505
-0.606351
-0.588534
-0.563242
-0.528783
-0.487963
-0.44508
-0.403288
-0.364447
-0.328814
-0.640625
-0.619312
-0.599533
-0.570502
-0.531394
-0.48647
-0.440596
-0.396822
-0.356775
-0.320172
-0.653875
-0.63147
-0.609447
-0.576285
-0.532433
-0.483578
-0.434965
-0.38944
-0.348349
-0.310907
-0.665886
-0.642459
-0.617894
-0.580292
-0.531719
-0.479178
-0.428106
-0.381068
-0.339097
-0.300965
-0.676273
-0.651896
-0.624492
-0.582246
-0.529088
-0.473166
-0.419938
-0.371635
-0.328958
-0.290302
-0.684647
-0.659391
-0.628876
-0.581899
-0.524395
-0.465446
-0.410384
-0.361071
-0.317878
-0.278888
-0.690624
-0.664558
-0.630711
-0.579034
-0.517512
-0.455931
-0.39937
-0.349309
-0.30581
-0.266708
-0.693839
-0.667027
-0.629696
-0.57347
-0.508337
-0.44455
-0.386832
-0.336286
-0.292703
-0.253726
-0.69395
-0.666455
-0.62558
-0.565062
-0.496788
-0.431242
-0.372721
-0.321955
-0.278492
-0.239805
-0.690655
-0.66254
-0.618157
-0.553705
-0.482807
-0.415968
-0.357006
-0.306297
-0.263128
-0.224696
-0.683694
-0.655029
-0.607273
-0.53933
-0.466362
-0.398702
-0.339662
-0.289305
-0.24664
-0.208265
-0.672859
-0.643731
-0.592817
-0.521905
-0.447442
-0.379429
-0.320658
-0.270936
-0.229115
-0.190869
-0.657995
-0.628509
-0.574734
-0.501433
-0.426064
-0.358154
-0.299996
-0.251184
-0.210412
-0.172979
-0.639007
-0.609288
-0.553017
-0.477951
-0.402262
-0.334903
-0.277763
-0.230334
-0.19041
-0.154409
-0.615859
-0.586049
-0.527703
-0.451538
-0.376096
-0.309755
-0.254108
-0.208155
-0.169377
-0.135046
-0.588571
-0.558836
-0.498889
-0.422305
-0.347658
-0.282859
-0.228948
-0.184732
-0.147396
-0.114895
-0.557222
-0.52776
-0.466765
-0.390347
-0.317066
-0.254217
-0.202384
-0.160155
-0.124526
-0.0940272
-0.52194
-0.493011
-0.431612
-0.355652
-0.284426
-0.22395
-0.174517
-0.134523
-0.100836
-0.072545
-0.482923
-0.454844
-0.393506
-0.318417
-0.249866
-0.192192
-0.145465
-0.107936
-0.0764088
-0.0505656
-0.440425
-0.413576
-0.351811
-0.279395
-0.213649
-0.159098
-0.115357
-0.0804993
-0.0513311
-0.0281762
-0.394682
-0.369413
-0.30738
-0.238402
-0.175979
-0.124841
-0.0843343
-0.0523217
-0.0256893
-0.00546377
-0.345898
-0.321861
-0.261549
-0.195727
-0.13704
-0.0896009
-0.0525347
-0.0234989
0.000373758
0.0172112
-0.294481
-0.27198
-0.214091
-0.151678
-0.097039
-0.0535499
-0.0200705
0.00589681
0.0265723
0.0389331
-0.241003
-0.220019
-0.165125
-0.106535
-0.056212
-0.0168649
0.0129537
0.0357655
0.0525476
0.0590492
-0.185694
-0.166495
-0.114948
-0.0605791
-0.014805
0.0202622
0.0463696
0.0658367
0.0781579
0.0795504
-0.128988
-0.111842
-0.0639223
-0.0141017
0.0269311
0.0576162
0.0799066
0.0956604
0.103379
0.105847
-0.0713439
-0.0564686
-0.0124268
0.0325928
0.0687414
0.0949637
0.113284
0.12512
0.129251
0.13236
-0.0132199
-0.000791554
0.0391585
0.0791936
0.110364
0.132068
0.146327
0.154316
0.155445
0.15755
0.0449246
0.0547691
0.0904572
0.125388
0.151534
0.168693
0.178861
0.183126
0.181467
0.181725
0.102631
0.109792
0.141098
0.170864
0.191985
0.204614
0.210717
0.21137
0.206935
0.204857
0.159445
0.163858
0.190715
0.215314
0.231457
0.23961
0.241716
0.238858
0.231648
0.227003
0.214922
0.21656
0.238956
0.25844
0.269696
0.273469
0.271676
0.265411
0.255448
0.248138
0.268628
0.267498
0.285475
0.299952
0.306456
0.305981
0.300417
0.290865
0.278206
0.268214
0.320145
0.316292
0.329945
0.33957
0.341501
0.336946
0.327765
0.315067
0.299805
0.287163
0.369076
0.362576
0.372052
0.377031
0.374606
0.366173
0.353558
0.337878
0.320132
0.304912
0.415045
0.406007
0.411501
0.412086
0.405558
0.393479
0.37764
0.359166
0.339079
0.321387
0.457699
0.446267
0.448018
0.444501
0.434161
0.418697
0.399867
0.378808
0.356544
0.336518
0.496715
0.483061
0.481352
0.474064
0.460232
0.441671
0.420108
0.39669
0.372433
0.350236
0.5318
0.516122
0.511273
0.500581
0.483605
0.46226
0.438242
0.412709
0.386659
0.362483
0.56269
0.545213
0.537578
0.523878
0.504134
0.480338
0.454161
0.426772
0.399144
0.373206
0.589158
0.570127
0.56009
0.543805
0.521689
0.495796
0.467773
0.438799
0.40982
0.382358
0.611011
0.590691
0.578659
0.560236
0.536162
0.50854
0.478996
0.448721
0.418629
0.389902
0.628091
0.606762
0.593164
0.573068
0.547465
0.518495
0.487768
0.456481
0.425524
0.39581
0.64028
0.618232
0.603513
0.582221
0.55553
0.525604
0.494039
0.462037
0.430473
0.400065
0.647496
0.62503
0.609642
0.587643
0.560312
0.529827
0.497775
0.465359
0.433449
0.402649
0.649698
0.627117
0.61152
0.589305
0.561788
0.531143
0.498958
0.466432
0.434429
0.403522
0.646881
0.62449
0.609144
0.587206
0.559953
0.529552
0.497587
0.465252
0.433409
0.402705
0.639082
0.617182
0.602541
0.581369
0.55483
0.525069
0.493675
0.461834
0.430414
0.400194
0.626376
0.60526
0.591769
0.571843
0.546459
0.51773
0.487252
0.456203
0.425468
0.396042
0.608874
0.588825
0.576916
0.558702
0.534903
0.507589
0.478365
0.448398
0.418599
0.390251
0.586728
0.568015
0.558098
0.542044
0.520246
0.494717
0.467075
0.438472
0.409847
0.382839
0.560124
0.542998
0.53546
0.521992
0.502594
0.479202
0.453456
0.42649
0.399267
0.373843
0.529284
0.513974
0.509174
0.498693
0.482069
0.461152
0.437599
0.41253
0.386925
0.363306
0.494463
0.481176
0.479439
0.472314
0.458817
0.440689
0.419608
0.396681
0.372897
0.351281
0.455949
0.444864
0.446477
0.443044
0.432998
0.417948
0.3996
0.379044
0.357266
0.337825
0.414058
0.405326
0.410537
0.411093
0.404789
0.393084
0.377704
0.359729
0.340124
0.323001
0.369134
0.362875
0.371887
0.376689
0.374386
0.366259
0.35406
0.338856
0.321571
0.30688
0.321547
0.317848
0.330816
0.340076
0.341996
0.337652
0.328821
0.316554
0.301714
0.289535
0.271686
0.270603
0.287632
0.301514
0.307839
0.307451
0.302145
0.292962
0.280664
0.271039
0.21996
0.221514
0.242657
0.261276
0.272148
0.275853
0.274203
0.268227
0.258538
0.251463
0.166795
0.170972
0.196228
0.219647
0.235164
0.243062
0.245171
0.242508
0.235463
0.230864
0.112626
0.119378
0.148694
0.17692
0.197136
0.209289
0.215227
0.21598
0.211591
0.209277
0.0578967
0.0671421
0.100412
0.133396
0.15832
0.174751
0.18455
0.188824
0.187109
0.186664
0.00305444
0.0146766
0.0517434
0.0893817
0.118975
0.139666
0.153308
0.161217
0.162367
0.163022
-0.0514535
-0.0376063
0.00305708
0.0451823
0.0793619
0.104267
0.121673
0.133282
0.137807
0.138007
-0.105183
-0.0893003
-0.0452782
0.0011026
0.0397369
0.0687815
0.0898171
0.104946
0.113779
0.113016
-0.157695
-0.140006
-0.092895
-0.0425594
0.000349808
0.0334385
0.0580109
0.0763414
0.089374
0.0933451
-0.208569
-0.189315
-0.13944
-0.0855165
-0.0385537
-0.0015517
0.026509
0.0478744
0.064601
0.0739687
-0.257538
-0.236768
-0.184609
-0.127495
-0.0767345
-0.0360006
-0.00452762
0.0197845
0.0395604
0.0530997
-0.304112
-0.282093
-0.228247
-0.168228
-0.113964
-0.0697333
-0.0349912
-0.00782533
0.0145955
0.0313372
-0.347891
-0.324307
-0.270568
-0.207425
-0.150035
-0.102579
-0.0647648
-0.0348709
-0.0100087
0.00952108
-0.38867
-0.363849
-0.310367
-0.244807
-0.184767
-0.134366
-0.0937111
-0.0612512
-0.0341088
-0.012007
-0.426233
-0.400513
-0.346931
-0.280481
-0.217964
-0.164923
-0.121693
-0.0868588
-0.0576171
-0.033157
-0.460341
-0.434006
-0.380755
-0.313807
-0.249403
-0.194102
-0.148586
-0.111591
-0.0804474
-0.0538418
-0.490819
-0.4641
-0.411746
-0.344631
-0.278947
-0.221771
-0.174277
-0.135352
-0.102513
-0.0739493
-0.517554
-0.490636
-0.439666
-0.372936
-0.306485
-0.247833
-0.198668
-0.158052
-0.123738
-0.0933806
-0.540485
-0.513526
-0.464357
-0.398625
-0.331927
-0.272318
-0.221609
-0.179608
-0.144056
-0.112073
-0.559606
-0.532747
-0.485744
-0.421601
-0.355179
-0.295017
-0.243305
-0.199881
-0.163379
-0.130031
-0.574966
-0.548333
-0.503804
-0.441801
-0.376185
-0.315866
-0.263501
-0.21907
-0.181556
-0.147373
-0.586671
-0.560373
-0.518562
-0.459199
-0.39492
-0.334861
-0.282149
-0.237017
-0.198681
-0.164207
-0.594877
-0.569013
-0.53009
-0.473807
-0.41138
-0.352009
-0.29927
-0.253697
-0.214764
-0.179954
-0.599795
-0.57445
-0.538509
-0.485672
-0.425584
-0.367328
-0.314887
-0.269117
-0.229741
-0.194465
-0.601678
-0.576935
-0.543983
-0.494876
-0.437573
-0.380845
-0.32902
-0.28329
-0.243626
-0.207922
-0.600815
-0.576759
-0.546724
-0.501536
-0.447412
-0.392606
-0.341707
-0.296248
-0.256475
-0.220504
-0.597527
-0.574242
-0.546986
-0.505807
-0.455194
-0.402675
-0.353002
-0.308042
-0.26834
-0.232284
-0.592154
-0.569725
-0.545059
-0.507878
-0.46103
-0.411132
-0.362973
-0.318732
-0.279263
-0.24328
-0.585046
-0.563557
-0.541264
-0.507969
-0.465055
-0.41807
-0.371695
-0.328382
-0.289288
-0.253512
-0.576554
-0.556084
-0.535938
-0.506325
-0.467423
-0.423593
-0.379252
-0.337063
-0.298467
-0.263008
-0.567018
-0.547641
-0.52942
-0.503217
-0.468306
-0.427813
-0.38573
-0.34485
-0.306865
-0.271809
-0.55676
-0.538542
-0.522042
-0.498926
-0.467891
-0.430854
-0.391221
-0.351822
-0.314549
-0.279961
-0.546077
-0.529072
-0.514112
-0.493744
-0.46638
-0.432843
-0.39582
-0.35806
-0.321589
-0.287517
-0.535232
-0.519482
-0.505907
-0.487954
-0.463985
-0.433918
-0.399623
-0.363643
-0.328057
-0.294531
-0.524453
-0.509986
-0.497663
-0.481825
-0.460925
-0.434219
-0.402723
-0.368647
-0.334021
-0.301061
-0.513931
-0.500758
-0.489577
-0.475594
-0.457419
-0.433894
-0.405215
-0.373144
-0.339544
-0.307165
-0.503814
-0.491931
-0.481804
-0.469458
-0.453676
-0.433092
-0.40719
-0.3772
-0.344684
-0.312898
-0.494215
-0.483599
-0.47446
-0.463571
-0.449884
-0.431963
-0.40874
-0.380871
-0.349484
-0.31831
-0.485207
-0.475822
-0.467624
-0.458045
-0.446201
-0.430653
-0.409951
-0.384207
-0.353974
-0.323448
-0.476827
-0.468623
-0.461336
-0.452952
-0.442742
-0.429289
-0.410907
-0.387247
-0.358163
-0.328352
-0.469076
-0.461996
-0.455605
-0.448328
-0.439578
-0.427976
-0.411685
-0.390022
-0.362041
-0.333044
-0.461921
-0.455909
-0.450403
-0.444174
-0.436739
-0.426777
-0.412346
-0.392556
-0.365565
-0.33754
-0.455302
-0.450304
-0.445676
-0.440453
-0.434215
-0.425713
-0.412926
-0.394861
-0.368682
-0.341793
-0.449136
-0.445108
-0.441346
-0.437098
-0.43196
-0.424761
-0.413426
-0.396935
-0.371307
-0.345765
-0.443328
-0.440235
-0.437319
-0.434011
-0.429895
-0.423859
-0.413807
-0.398749
-0.373416
-0.349073
-0.437781
-0.435599
-0.433496
-0.431083
-0.427915
-0.422917
-0.413999
-0.400258
-0.374944
-0.351474
-0.432411
-0.43112
-0.429784
-0.4282
-0.425901
-0.421824
-0.413918
-0.401346
-0.376097
-0.351198
-0.427151
-0.426739
-0.426104
-0.425264
-0.42374
-0.420468
-0.413476
-0.401812
-0.378085
-0.340492
-0.42197
-0.422421
-0.422405
-0.4222
-0.421351
-0.418756
-0.412576
-0.401494
-0.380373
-0.337006
-0.416872
-0.418159
-0.418678
-0.418965
-0.418701
-0.416632
-0.411139
-0.400464
-0.381904
-0.336928
-0.411899
-0.413986
-0.414952
-0.415668
-0.415721
-0.414095
-0.409144
-0.398787
-0.382229
-0.336922
-0.40713
-0.409962
-0.411281
-0.412288
-0.412574
-0.41123
-0.406667
-0.396515
-0.381649
-0.336956
-0.402672
-0.406178
-0.407759
-0.408945
-0.409372
-0.408199
-0.403882
-0.393881
-0.380716
-0.337655
-0.398649
-0.402741
-0.404503
-0.405785
-0.406278
-0.405202
-0.401115
-0.391923
-0.379133
-0.33949
-0.395192
-0.399766
-0.401643
-0.40296
-0.403477
-0.40247
-0.398625
-0.390225
-0.377279
-0.343469
-0.392421
-0.397367
-0.399302
-0.400616
-0.401143
-0.400222
-0.396684
-0.389118
-0.376631
-0.348431
-0.390446
-0.39564
-0.397587
-0.398879
-0.399425
-0.398637
-0.395502
-0.388853
-0.37731
-0.353825
-0.389338
-0.394658
-0.396579
-0.397841
-0.398429
-0.397837
-0.395207
-0.389564
-0.379323
-0.359969
-0.389142
-0.394464
-0.396329
-0.397558
-0.398218
-0.397887
-0.395857
-0.391312
-0.382664
-0.367084
-0.389865
-0.395068
-0.396848
-0.398046
-0.398806
-0.398797
-0.397451
-0.394097
-0.387265
-0.375225
-0.391476
-0.396445
-0.398114
-0.399283
-0.400169
-0.400534
-0.399941
-0.39786
-0.393012
-0.384371
-0.393909
-0.398536
-0.400073
-0.401213
-0.402246
-0.403028
-0.403244
-0.402501
-0.399757
-0.394443
-0.397068
-0.401257
-0.402641
-0.403752
-0.404947
-0.406176
-0.407238
-0.407881
-0.407317
-0.405289
-0.400833
-0.404497
-0.405709
-0.406788
-0.408154
-0.409848
-0.411778
-0.413827
-0.41547
-0.416676
-0.405063
-0.408128
-0.409151
-0.410193
-0.41173
-0.413892
-0.416687
-0.420131
-0.42395
-0.428294
-0.409607
-0.412013
-0.41283
-0.413824
-0.415521
-0.418136
-0.421768
-0.426559
-0.432462
-0.439772
-0.414307
-0.416011
-0.416604
-0.417532
-0.419366
-0.422398
-0.426812
-0.432858
-0.440691
-0.450706
-0.487396
-0.525765
-0.563496
-0.568116
-0.516857
-0.419942
-0.32415
-0.259479
-0.23942
-0.251359
-0.254673
-0.217661
-0.166034
-0.125297
-0.105808
-0.101831
-0.112673
-0.129183
-0.119849
-0.0952433
-0.086041
-0.0722795
-0.0479129
-0.0559382
-0.0652142
-0.068462
-0.0524114
-0.0456347
-0.0133115
-0.0172618
-0.500147
-0.543296
-0.585437
-0.592002
-0.537868
-0.433297
-0.328919
-0.25587
-0.227105
-0.233436
-0.235318
-0.204178
-0.157826
-0.122736
-0.106692
-0.105644
-0.11922
-0.13708
-0.126635
-0.0977917
-0.0867792
-0.0724671
-0.0474683
-0.0550006
-0.0640979
-0.0677329
-0.0524199
-0.0459164
-0.0129029
-0.0172662
-0.510764
-0.557986
-0.603924
-0.612447
-0.555891
-0.444468
-0.332119
-0.251385
-0.214463
-0.215619
-0.215222
-0.189835
-0.148921
-0.119831
-0.107349
-0.109359
-0.1257
-0.144868
-0.133231
-0.100236
-0.0874184
-0.0726391
-0.047069
-0.0540931
-0.0630149
-0.0669748
-0.0523908
-0.0462108
-0.0125618
-0.0172874
-0.518704
-0.569465
-0.618887
-0.629303
-0.570908
-0.453585
-0.334031
-0.246296
-0.201822
-0.198085
-0.194728
-0.17473
-0.139358
-0.116559
-0.107734
-0.1129
-0.132022
-0.152453
-0.139588
-0.102571
-0.0879594
-0.0727866
-0.0467116
-0.0532217
-0.0619728
-0.0661924
-0.0523237
-0.0465147
-0.0122902
-0.0173249
-0.524045
-0.577586
-0.630346
-0.642515
-0.582933
-0.460787
-0.334926
-0.240879
-0.18951
-0.180972
-0.17426
-0.158971
-0.129193
-0.112899
-0.107809
-0.116194
-0.138094
-0.159748
-0.145663
-0.104795
-0.0884033
-0.0729008
-0.0463924
-0.0523916
-0.0609784
-0.0653901
-0.0522178
-0.0468244
-0.01209
-0.0173777
-0.526786
-0.582383
-0.638547
-0.652086
-0.592013
-0.466217
-0.335054
-0.23541
-0.177828
-0.164422
-0.154276
-0.142696
-0.118509
-0.108838
-0.107533
-0.119169
-0.143829
-0.16667
-0.151415
-0.106904
-0.0887521
-0.0729735
-0.0461077
-0.051608
-0.0600379
-0.0645728
-0.0520722
-0.0471355
-0.011963
-0.0174448
-0.527047
-0.584
-0.643322
-0.658047
-0.598222
-0.470012
-0.334634
-0.230148
-0.167023
-0.148601
-0.135205
-0.126102
-0.107412
-0.10437
-0.106874
-0.121759
-0.149147
-0.173145
-0.156809
-0.108896
-0.0890079
-0.0729969
-0.0458534
-0.0508751
-0.0591572
-0.0637449
-0.0518859
-0.0474431
-0.0119108
-0.0175252
-0.525093
-0.582677
-0.640754
-0.660474
-0.601659
-0.4723
-0.333851
-0.225321
-0.157281
-0.133711
-0.117406
-0.109466
-0.0960351
-0.099495
-0.105801
-0.123903
-0.153976
-0.179112
-0.161813
-0.110768
-0.0891737
-0.0729644
-0.0456252
-0.0501964
-0.058341
-0.062911
-0.0516575
-0.0477416
-0.0119346
-0.0176176
-0.521283
-0.578973
-0.637561
-0.659731
-0.602443
-0.473194
-0.332853
-0.221115
-0.148723
-0.119969
-0.101131
-0.093096
-0.0845283
-0.0942234
-0.104291
-0.125552
-0.158256
-0.18452
-0.166402
-0.112519
-0.0892528
-0.0728701
-0.0454185
-0.0495746
-0.057592
-0.0620747
-0.0513855
-0.048025
-0.0120356
-0.0177204
-0.516031
-0.573298
-0.632061
-0.656088
-0.600727
-0.472781
-0.331753
-0.217664
-0.141418
-0.107581
-0.0865277
-0.0773213
-0.0730442
-0.0885734
-0.102323
-0.126665
-0.161938
-0.189326
-0.170553
-0.114148
-0.0892492
-0.0727093
-0.0452284
-0.0490114
-0.0569112
-0.0612392
-0.0510684
-0.0482867
-0.0122143
-0.0178321
-0.509757
-0.56604
-0.624418
-0.649799
-0.596719
-0.471134
-0.330629
-0.215041
-0.135396
-0.0967101
-0.0736475
-0.0626688
-0.0617513
-0.0825761
-0.0998847
-0.127212
-0.164986
-0.193503
-0.174248
-0.115653
-0.0891673
-0.0724785
-0.0450498
-0.0485075
-0.0562987
-0.0604064
-0.0507046
-0.04852
-0.0124713
-0.0179509
-0.502844
-0.55757
-0.614924
-0.641118
-0.590622
-0.468358
-0.329532
-0.213268
-0.130663
-0.0874609
-0.0624639
-0.0491472
-0.0508471
-0.076272
-0.0969628
-0.127175
-0.167376
-0.197037
-0.177472
-0.117033
-0.0890125
-0.0721755
-0.0448773
-0.0480622
-0.0557527
-0.0595779
-0.0502926
-0.0487175
-0.0128066
-0.018075
-0.495607
-0.54817
-0.603849
-0.630294
-0.582622
-0.464603
-0.328501
-0.21234
-0.127219
-0.0798803
-0.0529063
-0.0374216
-0.0405033
-0.0697028
-0.0935482
-0.126542
-0.169096
-0.199918
-0.180215
-0.118289
-0.0887912
-0.0717987
-0.044705
-0.0476741
-0.0552702
-0.0587539
-0.0498309
-0.0488716
-0.0132201
-0.0182021
-0.488264
-0.538025
-0.591471
-0.617564
-0.572926
-0.460023
-0.327582
-0.212231
-0.125048
-0.0739486
-0.0448692
-0.0275981
-0.0308368
-0.0629099
-0.0896321
-0.125313
-0.170147
-0.20215
-0.182466
-0.119415
-0.0885082
-0.0713453
-0.0445253
-0.0473381
-0.0548457
-0.0579333
-0.0493182
-0.0489744
-0.013711
-0.0183301
-0.480924
-0.527941
-0.578081
-0.603152
-0.561731
-0.454721
-0.326734
-0.212796
-0.124034
-0.0695374
-0.0381948
-0.0195476
-0.0219435
-0.0559283
-0.0852047
-0.123492
-0.170538
-0.20374
-0.184215
-0.120399
-0.088163
-0.0708111
-0.0443298
-0.047045
-0.054471
-0.0571138
-0.0487531
-0.049018
-0.0142782
-0.0184567
-0.473579
-0.517168
-0.563765
-0.587288
-0.549219
-0.448672
-0.325728
-0.213712
-0.123921
-0.0664163
-0.0327008
-0.0130323
-0.0138948
-0.0487805
-0.0802538
-0.121087
-0.170289
-0.204702
-0.185467
-0.12123
-0.0877557
-0.0701993
-0.0441146
-0.0467903
-0.054133
-0.0562911
-0.0481345
-0.048994
-0.0149208
-0.0185796
-0.466363
-0.504108
-0.548569
-0.570317
-0.535741
-0.442068
-0.324655
-0.215045
-0.12477
-0.0645803
-0.0283926
-0.00785732
-0.00673409
-0.0414709
-0.0747613
-0.11811
-0.169423
-0.20506
-0.186224
-0.121951
-0.0873191
-0.0695367
-0.0438896
-0.0465936
-0.0538281
-0.0554597
-0.0474612
-0.048894
-0.0156364
-0.018695
-0.459799
-0.492398
-0.532418
-0.552511
-0.522005
-0.436063
-0.324927
-0.218148
-0.1276
-0.0646651
-0.0256609
-0.00403287
-0.000523708
-0.034016
-0.0687072
-0.114563
-0.167961
-0.204726
-0.186394
-0.12267
-0.0869326
-0.0688585
-0.0436649
-0.0464801
-0.0535991
-0.054619
-0.0467343
-0.0487095
-0.0164143
-0.0187954
-0.452426
-0.480168
-0.514872
-0.533284
-0.507752
-0.430732
-0.326713
-0.22304
-0.132313
-0.0665334
-0.0242599
-0.00113191
0.00523596
-0.0266058
-0.0620378
-0.11046
-0.165948
-0.203519
-0.185809
-0.123272
-0.0865465
-0.0680949
-0.0433815
-0.0463575
-0.0534432
-0.0537738
-0.0459634
-0.0484334
-0.0172432
-0.0188774
-0.446414
-0.468155
-0.497916
-0.512712
-0.48957
-0.419059
-0.321306
-0.221347
-0.13231
-0.065564
-0.0211005
0.00305706
0.00989137
-0.0189144
-0.0549618
-0.105775
-0.16337
-0.202474
-0.184944
-0.122902
-0.0856253
-0.066958
-0.0428517
-0.0459093
-0.0528887
-0.0528153
-0.0451042
-0.0480631
-0.0182083
-0.0189712
-0.433464
-0.458189
-0.482914
-0.492585
-0.46647
-0.397082
-0.303406
-0.208068
-0.123181
-0.0581669
-0.013906
0.0107408
0.0205055
-0.00404759
-0.041673
-0.099333
-0.164122
-0.20624
-0.185801
-0.121151
-0.0835702
-0.0652128
-0.0419318
-0.0447512
-0.0508863
-0.0511009
-0.0435464
-0.0474437
-0.0198839
-0.0191549
-0.421994
-0.441232
-0.456811
-0.459129
-0.431298
-0.366834
-0.281059
-0.193283
-0.11443
-0.0521719
-0.00832434
0.0168377
0.0275861
0.00735836
-0.030032
-0.0924014
-0.161107
-0.203674
-0.182095
-0.117743
-0.0803753
-0.062442
-0.0408146
-0.0439167
-0.0502531
-0.0502941
-0.0417014
-0.0465426
-0.0215802
-0.0192023
-0.406819
-0.420684
-0.427821
-0.424482
-0.396828
-0.338327
-0.260544
-0.179904
-0.106355
-0.0468069
-0.00356393
0.0225021
0.0352169
0.0181662
-0.0202667
-0.086275
-0.156555
-0.198441
-0.176566
-0.113716
-0.0768495
-0.0593924
-0.0395547
-0.0430426
-0.0498038
-0.0496918
-0.0397071
-0.0453476
-0.0231796
-0.019193
-0.388491
-0.397749
-0.398176
-0.39062
-0.363774
-0.310985
-0.240776
-0.167033
-0.0986112
-0.0419697
0.000493651
0.0277174
0.043467
0.0304738
-0.0095109
-0.0794434
-0.151574
-0.191823
-0.169304
-0.108894
-0.0730135
-0.0559739
-0.0380832
-0.0421115
-0.0492495
-0.048875
-0.0374727
-0.0438219
-0.0248268
-0.0191423
-0.367145
-0.373421
-0.36897
-0.358273
-0.332522
-0.285146
-0.222061
-0.154855
-0.0912881
-0.0375957
0.0039304
0.0322685
0.0517412
0.0438714
0.00264266
-0.0714218
-0.146183
-0.183259
-0.160145
-0.103246
-0.0688618
-0.0521971
-0.0363626
-0.0410864
-0.048624
-0.0478366
-0.0349944
-0.0419642
-0.0264949
-0.0190381
-0.343881
-0.348532
-0.340818
-0.327908
-0.303397
-0.260995
-0.204446
-0.143349
-0.0844014
-0.0336187
0.00681882
0.0360605
0.0597394
0.0574734
0.0154144
-0.0623634
-0.13986
-0.172219
-0.14913
-0.0967607
-0.0643963
-0.0480655
-0.0343529
-0.0399298
-0.0478746
-0.0466083
-0.032285
-0.0397386
-0.0281106
-0.018871
-0.319906
-0.323656
-0.314029
-0.299726
-0.276494
-0.238559
-0.187949
-0.132518
-0.0779781
-0.0300124
0.00920369
0.0390561
0.0670323
0.0703667
0.0278861
-0.0524821
-0.132116
-0.159304
-0.136409
-0.0894576
-0.0596217
-0.0435946
-0.032012
-0.0385899
-0.0469239
-0.0451634
-0.0293446
-0.0370881
-0.0296105
-0.0186306
-0.295893
-0.299178
-0.288701
-0.273708
-0.251755
-0.217791
-0.172551
-0.122348
-0.0720214
-0.0267858
0.0111059
0.041213
0.0730982
0.0815255
0.0392885
-0.0420285
-0.122397
-0.144325
-0.122246
-0.0813992
-0.0545449
-0.0388071
-0.029295
-0.0369982
-0.0456797
-0.0434374
-0.0261719
-0.0339784
-0.030929
-0.0183042
-0.272323
-0.27539
-0.26482
-0.249719
-0.229053
-0.198608
-0.158214
-0.11282
-0.0665185
-0.0239695
0.0125264
0.0424735
0.0757269
0.0897942
0.048963
-0.0312458
-0.110056
-0.127516
-0.107043
-0.0726995
-0.0491757
-0.0337323
-0.0261553
-0.0350682
-0.0440383
-0.0413562
-0.0227785
-0.030412
-0.0319897
-0.017878
-0.249546
-0.252495
-0.242332
-0.227583
-0.208234
-0.180912
-0.144884
-0.103915
-0.0614485
-0.0215861
0.0134502
0.0429402
0.0776338
0.0943141
0.0564916
-0.0201258
-0.0946724
-0.109342
-0.0913221
-0.0635251
-0.0435289
-0.0284018
-0.0225482
-0.0326933
-0.0418512
-0.0388448
-0.0191931
-0.0264207
-0.0327061
-0.0173382
-0.227768
-0.230627
-0.22118
-0.207129
-0.189137
-0.164606
-0.132508
-0.0956151
-0.0567914
-0.0196318
0.0138471
0.0426323
0.0771417
0.094883
0.0618813
-0.00851087
-0.0765667
-0.0905273
-0.0756827
-0.0540857
-0.0376276
-0.0228462
-0.018434
-0.0297483
-0.0389737
-0.0358239
-0.0154594
-0.0220635
-0.0329848
-0.0166714
-0.207109
-0.209881
-0.201323
-0.18821
-0.171613
-0.149595
-0.121033
-0.0878966
-0.0525315
-0.0180777
0.0137001
0.0415794
0.0745018
0.0921814
0.0653101
0.00324892
-0.0570994
-0.0719897
-0.0607086
-0.0446089
-0.0315051
-0.0171
-0.0137804
-0.0260884
-0.035241
-0.0322049
-0.0116338
-0.0174329
-0.0327272
-0.0158653
-0.18765
-0.190323
-0.182729
-0.170703
-0.155525
-0.13579
-0.11041
-0.0807344
-0.0486524
-0.0168853
0.0130304
0.0397868
0.0701386
0.0871891
0.0666856
0.0140003
-0.0382972
-0.0546254
-0.0468627
-0.0353084
-0.0252094
-0.0112074
-0.00856983
-0.0215525
-0.0304752
-0.0278878
-0.00778369
-0.0126578
-0.0318336
-0.0149067
-0.169437
-0.171995
-0.165374
-0.154509
-0.140751
-0.123107
-0.100594
-0.074102
-0.0451319
-0.0160153
0.0118908
0.0372583
0.0645235
0.0806441
0.0657954
0.0225323
-0.0218334
-0.0390768
-0.0344149
-0.0263609
-0.0188068
-0.00522519
-0.00281304
-0.0159786
-0.0244995
-0.0227626
-0.00398087
-0.00789323
-0.0301768
-0.0137841
-0.152486
-0.154914
-0.149231
-0.139548
-0.127189
-0.111467
-0.0915397
-0.0679722
-0.0419413
-0.0154248
0.010359
0.0340634
0.0581315
0.0730627
0.0627879
0.0283021
-0.00850279
-0.0256409
-0.0234524
-0.0179016
-0.0123841
0.000773969
0.00344059
-0.00923242
-0.0171655
-0.0167202
-0.000288904
-0.00330066
-0.0277688
-0.012492
-0.136795
-0.13908
-0.134276
-0.125751
-0.114746
-0.100796
-0.0832052
-0.0623177
-0.0390482
-0.015064
0.00853484
0.0303283
0.0513995
0.0649625
0.0582816
0.0315512
0.00170041
-0.0143281
-0.0139405
-0.0100346
-0.00604714
0.0066935
0.0100931
-0.00124646
-0.00840039
-0.00968437
0.0032521
0.000977048
-0.0245772
-0.0110306
-0.122346
-0.12448
-0.120478
-0.11306
-0.103345
-0.0910279
-0.0755488
-0.0571101
-0.0364182
-0.0148745
0.00652856
0.0263324
0.044698
0.0568527
0.0529894
0.0328643
0.00920561
-0.00500055
-0.00578447
-0.00284251
8.75662e-05
0.0124066
0.0169692
0.00791863
0.00171261
-0.00167682
0.00664185
0.00483566
-0.0206598
-0.00940852
-0.109108
-0.111087
-0.107804
-0.101421
-0.0929199
-0.0821014
-0.068531
-0.0523209
-0.034018
-0.0147963
0.00444737
0.0222807
0.0382965
0.0491276
0.0474649
0.0328141
0.0145462
0.00254277
0.00113551
0.00360961
0.00590493
0.0177649
0.0237778
0.0179694
0.0128288
0.00709888
0.00992576
0.0082177
-0.0161528
-0.00764766
-0.0970423
-0.0988667
-0.0962191
-0.0907889
-0.0834124
-0.0739635
-0.0621144
-0.0479225
-0.0318158
-0.0147734
0.00239489
0.0183443
0.0323701
0.0420333
0.0420741
0.0318656
0.018209
0.0085226
0.0069441
0.00928329
0.011306
0.0226288
0.0301134
0.0282399
0.024217
0.0161692
0.0131661
0.0111224
-0.011267
-0.0057894
-0.086107
-0.0877807
-0.0856869
-0.0811194
-0.0747735
-0.0665675
-0.0562649
-0.0438894
-0.0297838
-0.0147561
0.000462764
0.0146642
0.0270163
0.0356966
0.0370397
0.0303673
0.0205014
0.0131541
0.0117628
0.0141705
0.0162146
0.0269079
0.0355683
0.0376586
0.0346789
0.0247504
0.0164235
0.0136047
-0.00627002
-0.00389993
-0.0762569
-0.0777872
-0.0761706
-0.0723742
-0.0669609
-0.059874
-0.0509528
-0.0401999
-0.0278987
-0.0147055
-0.00128004
0.0113317
0.0222806
0.0301604
0.032485
0.0285974
0.0218579
0.0166543
0.0157063
0.0182918
0.0205639
0.0305495
0.0398911
0.0450799
0.0429552
0.0319712
0.0197522
0.0157499
-0.00145425
-0.00206784
-0.0674486
-0.0688444
-0.0676342
-0.0645186
-0.0599389
-0.0538502
-0.0461532
-0.0368367
-0.0261441
-0.0145971
-0.00278985
0.00840129
0.0181726
0.0254118
0.0284646
0.0267435
0.0225545
0.019233
0.0188839
0.02169
0.0242991
0.0334991
0.0429556
0.049848
0.0483866
0.0373266
0.0231178
0.0176184
0.00290196
-0.000388688
-0.0596374
-0.060911
-0.0600444
-0.0575227
-0.0536785
-0.0484703
-0.0418472
-0.0337895
-0.0245118
-0.0144198
-0.00404587
0.00589447
0.0146762
0.021406
0.0249895
0.02493
0.0228073
0.0210857
0.0213982
0.0244258
0.0273941
0.0357444
0.0448085
0.052016
0.0510883
0.0408435
0.0262858
0.0192076
0.00655925
0.00106095
-0.0527937
-0.0539541
-0.0533745
-0.0513634
-0.0481579
-0.0437162
-0.038023
-0.0310538
-0.0230019
-0.0141756
-0.00504773
0.00380896
0.0117589
0.0180815
0.022044
0.0232431
0.0227577
0.0223703
0.0233442
0.0265695
0.0298618
0.0373384
0.0456543
0.0523129
0.0518421
0.0428228
0.028948
0.0205009
0.00938393
0.0022436
-0.0468911
-0.0479527