/*--------------------------------*- C++ -*----------------------------------*\
  =========                 |
  \\      /  F ield         | OpenFOAM: The Open Source CFD Toolbox
   \\    /   O peration     | Website:  https://openfoam.org
    \\  /    A nd           | Version:  7
     \\/     M anipulation  |
\*---------------------------------------------------------------------------*/
FoamFile
{
    version     2.0;
    format      ascii;
    class       surfaceScalarField;
    location    "225";
    object      phi;
}
// * * * * * * * * * * * * * * * * * * * * * * * * * * * * * * * * * * * * * //

dimensions      [0 3 -1 0 0 0 0];

internalField   nonuniform List<scalar> 
16735
(
-3.13384e-05
0.00218866
-0.00215732
-0.000162002
0.00573636
-0.0056057
-0.000415062
0.00869671
-0.00844365
-0.000786962
0.0110294
-0.0106575
-0.00125173
0.0128591
-0.0123944
-0.00177086
0.014409
-0.0138898
-0.0023042
0.0158922
-0.0153589
-0.00281671
0.0174232
-0.0169107
-0.00327954
0.0189728
-0.01851
0.0203359
-0.019948
-0.00366743
1.03541e-06
0.00218762
-5.4708e-05
0.0057921
-0.00020435
0.00884635
-0.000453239
0.0112783
-0.000778706
0.0131846
-0.00113814
0.0147684
-0.00148082
0.0162349
-0.0017558
0.0176982
-0.00191704
0.0191341
0.0203334
-0.00191457
3.20786e-05
0.00215554
5.00714e-05
0.00577411
6.96595e-06
0.00888945
-0.00011323
0.0113985
-0.000289408
0.0133608
-0.000475694
0.0149547
-0.00061104
0.0163702
-0.000628071
0.0177152
-0.000460679
0.0189667
0.0199384
-6.5626e-05
6.03263e-05
0.00209522
0.000149152
0.00568529
0.000210747
0.00882786
0.000223389
0.0113858
0.000203188
0.013381
0.000199091
0.0149588
0.000281441
0.0162879
0.000532464
0.0174642
0.00103653
0.0184626
0.0190875
0.00188737
8.50456e-05
0.00201017
0.000239372
0.00553096
0.000402488
0.00866474
0.00054683
0.0112415
0.000685141
0.0132427
0.000867606
0.0147763
0.00117171
0.0159838
0.00169271
0.0169432
0.00252789
0.0176274
0.0178057
0.00380973
0.000105403
0.00190477
0.000317652
0.00531871
0.000575228
0.00840717
0.000846925
0.0109698
0.00114212
0.0129475
0.00151084
0.0144076
0.00203499
0.0154596
0.00281987
0.0161583
0.00397159
0.0164757
0.0161123
0.005665
0.000120736
0.00178403
0.000381348
0.0050581
0.000723161
0.00806535
0.00111384
0.0105791
0.00155996
0.0125013
0.00211009
0.0138575
0.00284768
0.014722
0.00388475
0.0151213
0.00532942
0.015031
0.014032
0.0074097
0.000130573
0.00165346
0.000428332
0.00476034
0.000841233
0.00765245
0.00133862
0.0100817
0.00192533
0.0119146
0.00264768
0.0131351
0.00358815
0.0137816
0.00486224
0.0138472
0.00657228
0.013321
0.0115896
0.00901466
0.000134643
0.00151881
0.000457112
0.00443787
0.000925481
0.00718408
0.00151372
0.0094935
0.00222654
0.0112018
0.00310788
0.0122538
0.0042376
0.0126518
0.00573218
0.0123526
0.00768069
0.0113725
0.0088017
0.0104686
0.000132884
0.00138593
0.000466943
0.00410381
0.000973376
0.00667765
0.00163368
0.00883319
0.00245449
0.010381
0.00347811
0.0112302
0.00478154
0.0113484
0.00648088
0.0106533
0.0086478
0.00920557
0.00566787
0.0117816
0.000125455
0.00126048
0.00045794
0.00377133
0.000984195
0.00615139
0.00169591
0.00812148
0.00260399
0.00947291
0.0037509
0.0100833
0.00521239
0.00988691
0.00710439
0.00876127
0.0094858
0.00682415
0.00216268
0.012991
0.000112762
0.00114771
0.000431218
0.00345287
0.000959428
0.00562318
0.00170157
0.00737933
0.0026755
0.00849897
0.00392669
0.00883208
0.00553385
0.00827975
0.00761471
0.00668041
0.0102363
0.0042026
-0.0017689
0.0141678
9.55092e-05
0.0010522
0.000389064
0.00315931
0.000903238
0.00510901
0.00165666
0.00662591
0.00267714
0.0074785
0.00401742
0.0074918
0.00576642
0.00653075
0.00804804
0.00439879
0.01098
0.00127059
-0.00620539
0.0154165
7.47595e-05
0.000977445
0.000335104
0.00289897
0.000822876
0.00462124
0.00157295
0.00587584
0.00262669
0.00642476
0.00405009
0.0060684
0.00595262
0.00462822
0.0084718
0.00187961
0.0118352
-0.00209277
-0.011224
0.0168538
5.19836e-05
0.000925461
0.000274403
0.00267655
0.000728911
0.00416673
0.00146858
0.00513617
0.00255282
0.00534052
0.00406874
0.00455248
0.00615836
0.0025386
0.00898452
-0.000946559
0.0129326
-0.00604084
-0.0168523
0.0185609
2.90693e-05
0.000896392
0.000213391
0.00249223
0.000635013
0.00374511
0.00136764
0.00440354
0.00249436
0.0042138
0.00413256
0.00291428
0.00646731
0.000203848
0.00970186
-0.00418111
0.0143713
-0.0107103
-0.0230118
0.0205307
8.32487e-06
0.000888067
0.000159506
0.00234105
0.00055705
0.00334756
0.00129836
0.00366223
0.00249668
0.00301548
0.00430846
0.0011025
0.00696632
-0.00245401
0.0107257
-0.00794047
0.0161671
-0.0161517
-0.0294941
0.0226494
-8.52803e-06
0.000896595
0.000120356
0.00221216
0.000511395
0.00295653
0.00128966
0.00288396
0.00260496
0.00170019
0.0046592
-0.000951741
0.00772438
-0.00551919
0.0121043
-0.0123204
0.0182245
-0.0222719
-0.0360197
0.0247502
-1.90157e-05
0.000915611
0.000102875
0.00209027
0.000512697
0.0025467
0.00136675
0.00202991
0.00285593
0.00021101
0.00522804
-0.00332385
0.00877375
-0.0090649
0.0138027
-0.0173493
0.0203654
-0.0288347
-0.0422751
0.0266207
-2.15596e-05
0.00093717
0.000112155
0.00195656
0.000571674
0.00208718
0.0015469
0.00105468
0.00327069
-0.00151277
0.00602803
-0.0060812
0.0100943
-0.0131312
0.0156921
-0.0229471
0.0223849
-0.0355275
-0.0481471
0.028257
-1.55556e-05
0.000952726
0.000150856
0.00179015
0.000693637
0.0015444
0.00183697
-8.86494e-05
0.00385138
-0.00352719
0.00703892
-0.00926873
0.0116142
-0.0177065
0.0175866
-0.0289195
0.0241353
-0.0420761
-0.0553133
0.0313015
6.65549e-07
0.00095206
0.000219106
0.00157171
0.000878157
0.000885352
0.00223319
-0.00144369
0.00458216
-0.00587616
0.00821214
-0.0128987
0.0132229
-0.0227172
0.0193357
-0.0350323
0.025704
-0.0484445
-0.0616529
0.0320436
2.17486e-05
0.000930312
0.000314194
0.00127926
0.00111999
7.95579e-05
0.00272317
-0.00304687
0.00543297
-0.00858596
0.00947982
-0.0169456
0.0147935
-0.0280309
0.0208419
-0.0410807
0.0268055
-0.0544081
-0.0670353
0.0321879
5.02822e-05
0.000880029
0.000432719
0.000896824
0.00141076
-0.000898483
0.0032888
-0.00492491
0.00636427
-0.0116614
0.0107644
-0.0213457
0.0162164
-0.0334829
0.0220176
-0.0468819
0.0274101
-0.0598006
-0.0716355
0.0320103
8.39535e-05
0.000796076
0.000570412
0.000410366
0.00174082
-0.00206889
0.00390909
-0.00709319
0.00733131
-0.0150836
0.0119881
-0.0260025
0.0174085
-0.0389033
0.0228153
-0.0522886
0.0275877
-0.064573
-0.0755194
0.0314716
0.000121567
0.000674509
0.000723273
-0.00019134
0.00210048
-0.0034461
0.00456186
-0.00955456
0.00828757
-0.0188093
0.013082
-0.0307969
0.0183172
-0.0441386
0.0232362
-0.0572076
0.027381
-0.0687178
-0.0787731
0.0306347
0.00016234
0.000512169
0.000888015
-0.000917015
0.00248056
-0.00503864
0.00522425
-0.0122982
0.00918773
-0.0227728
0.0139928
-0.035602
0.0189208
-0.0490665
0.0233052
-0.061592
0.0268559
-0.0722685
-0.0814918
0.0295745
0.000205837
0.000306332
0.00106197
-0.00177315
0.00287209
-0.00684877
0.00587274
-0.0152989
0.00999081
-0.0268909
0.014686
-0.0402972
0.0192219
-0.0536024
0.0230641
-0.0654341
0.026074
-0.0752785
-0.0837589
0.0283412
0.000251841
5.44911e-05
0.00124271
-0.00276401
0.0032657
-0.00887176
0.00648345
-0.0185166
0.0106633
-0.0310707
0.015146
-0.0447799
0.019241
-0.0576975
0.0225604
-0.0687535
0.0250917
-0.0778098
-0.0856521
0.0269849
0.000300175
-0.000245684
0.00142763
-0.00389147
0.0036511
-0.0110952
0.00703324
-0.0218988
0.0111814
-0.0352189
0.0153733
-0.0489718
0.0190088
-0.061333
0.021842
-0.0715867
0.0239578
-0.0799255
-0.0872347
0.0255404
0.000350558
-0.000596243
0.00161358
-0.00515449
0.00401699
-0.0134986
0.00750145
-0.0253832
0.0115325
-0.03925
0.0153806
-0.0528199
0.0185606
-0.0645129
0.0209531
-0.0739793
0.022712
-0.0816844
-0.0885584
0.0240357
0.000402479
-0.000998722
0.00179669
-0.00654869
0.00435156
-0.0160535
0.00787174
-0.0289034
0.0117139
-0.0430922
0.0151884
-0.0562943
0.0179325
-0.067257
0.0199325
-0.0759793
0.0213865
-0.0831383
-0.089663
0.022491
0.000455175
-0.0014539
0.00197245
-0.00806597
0.00464337
-0.0187244
0.00813333
-0.0323934
0.0117313
-0.0466902
0.0148212
-0.0593842
0.0171587
-0.0695945
0.0188131
-0.0776337
0.0200057
-0.0843309
-0.0905785
0.0209212
0.000507653
-0.00196155
0.00213597
-0.00969428
0.0048824
-0.0214709
0.00828141
-0.0357924
0.0115967
-0.0500054
0.0143053
-0.0620929
0.0162701
-0.0715593
0.0176217
-0.0789853
0.0185885
-0.0852978
-0.0913267
0.0193367
0.000558747
-0.0025203
0.00228225
-0.0114178
0.00506087
-0.0242495
0.00831663
-0.0390482
0.0113255
-0.0530143
0.0136662
-0.0644336
0.0152934
-0.0731865
0.0163798
-0.0800717
0.0171489
-0.0860669
-0.091923
0.0177452
0.000607191
-0.00312749
0.00240662
-0.0132172
0.00517385
-0.0270167
0.00824408
-0.0421184
0.0109354
-0.0557056
0.0129278
-0.0664259
0.0142513
-0.07451
0.0151045
-0.0809249
0.0156974
-0.0866598
-0.0923779
0.0161523
0.000651696
-0.00377918
0.00250507
-0.0150706
0.00521931
-0.029731
0.00807206
-0.0449711
0.0104443
-0.0580779
0.0121113
-0.0680929
0.0131625
-0.0755612
0.0138088
-0.0815712
0.0142417
-0.0870926
-0.0926982
0.014562
0.000691024
-0.00447021
0.00257449
-0.0169541
0.00519798
-0.0323544
0.00781086
-0.047584
0.00986957
-0.0601366
0.0112354
-0.0694587
0.0120423
-0.0763681
0.0125029
-0.0820319
0.0127874
-0.0873771
-0.0928884
0.0129776
0.000724049
-0.00519426
0.00261285
-0.0188429
0.00511285
-0.0348544
0.00747182
-0.049943
0.00922748
-0.0618922
0.0103161
-0.0705473
0.0109028
-0.0769549
0.0111945
-0.0823236
0.0113389
-0.0875215
-0.0929513
0.0114017
0.000749808
-0.00594406
0.00261922
-0.0207123
0.00496859
-0.0372038
0.00706647
-0.0520409
0.00853263
-0.0633584
0.00936666
-0.0713813
0.00975383
-0.077342
0.0098894
-0.0824592
0.00989946
-0.0875315
-0.0928886
0.00983682
0.000767531
-0.0067116
0.00259375
-0.0225385
0.004771
-0.0393811
0.00660606
-0.0538759
0.00779794
-0.0645503
0.00839823
-0.0719816
0.00860291
-0.0775467
0.00859211
-0.0824484
0.00847177
-0.0874112
-0.0927013
0.00828448
0.000776667
-0.00748826
0.00253752
-0.0242994
0.00452646
-0.04137
0.00610115
-0.0554506
0.0070346
-0.0654837
0.00741983
-0.0723669
0.00745594
-0.0775828
0.00730603
-0.0822985
0.00705794
-0.0871631
-0.0923889
0.0067455
0.000776887
-0.00826515
0.00245235
-0.0259748
0.00424161
-0.0431593
0.00556138
-0.0567704
0.00625218
-0.0661745
0.00643882
-0.0725535
0.00631754
-0.0774615
0.00603359
-0.0820145
0.00565947
-0.086789
-0.0919508
0.00522138
0.000768078
-0.00903323
0.0023406
-0.0275473
0.00392296
-0.0447416
0.00499541
-0.0578428
0.00545877
-0.0666379
0.00546118
-0.0725559
0.00519152
-0.0771919
0.00477691
-0.0815999
0.00427697
-0.086289
-0.0913862
0.00371234
0.000750334
-0.00978356
0.00220498
-0.029002
0.00357671
-0.0461134
0.00441085
-0.058677
0.00466111
-0.0668881
0.00449173
-0.0723865
0.0040812
-0.0767813
0.00353885
-0.0810575
0.00291117
-0.0856614
-0.0906892
0.00221423
0.000723961
-0.0105075
0.00204852
-0.0303265
0.00320867
-0.0472735
0.00381431
-0.0592826
0.00386475
-0.0669386
0.0035342
-0.072056
0.00298908
-0.0762362
0.00232322
-0.0803917
0.00156574
-0.0849039
-0.0898393
0.000715789
0.000689465
-0.011197
0.0018745
-0.0315116
0.0028242
-0.0482232
0.00321151
-0.0596699
0.0030743
-0.0668014
0.00259155
-0.0715732
0.0019163
-0.075561
0.00113055
-0.0796059
0.000259755
-0.0840331
-0.0888443
-0.000735212
0.000647486
-0.0118445
0.00168593
-0.03255
0.00242808
-0.0489654
0.00260734
-0.0598492
0.00229356
-0.0664876
0.00166646
-0.0709461
0.00086407
-0.0747586
-5.61704e-05
-0.0786857
-0.00104796
-0.0830413
-0.0877558
-0.00213643
0.000598772
-0.0124432
0.00148568
-0.0334369
0.00202462
-0.0495043
0.0020059
-0.0598305
0.00152553
-0.0660072
0.000760688
-0.0701813
-0.000167067
-0.0738308
-0.00118787
-0.0776649
-0.00231887
-0.0819103
-0.0865499
-0.00352478
0.000544163
-0.0129874
0.00127648
-0.0341693
0.0016177
-0.0498455
0.0014105
-0.0596233
0.000772654
-0.0653694
-0.000126211
-0.0692824
-0.00116434
-0.0727927
-0.00230893
-0.0765203
-0.00355907
-0.0806602
-0.0852188
-0.00489018
0.000484582
-0.013472
0.00106096
-0.0347456
0.00121068
-0.0499952
0.000823974
-0.0592365
3.58738e-05
-0.0645813
-0.000984038
-0.0682625
-0.00214135
-0.0716354
-0.00340342
-0.0752582
-0.00477139
-0.0792922
-0.0837628
-0.00622745
0.000420993
-0.013893
0.000841887
-0.0351665
0.000806048
-0.0499594
0.000251153
-0.0586817
-0.000678481
-0.0636516
-0.0018219
-0.0671191
-0.00309325
-0.0703641
-0.00446969
-0.0738818
-0.00595515
-0.0778067
-0.0821837
-0.00753423
0.000354223
-0.0142472
0.000622038
-0.0354343
0.000407084
-0.0497444
-0.000311014
-0.0579636
-0.00137529
-0.0625874
-0.00263629
-0.0658581
-0.00401879
-0.0689816
-0.00550711
-0.0723934
-0.00710884
-0.076205
-0.0804839
-0.00880861
0.000285211
-0.0145324
0.000402767
-0.0355519
3.44051e-05
-0.0493761
-0.000855873
-0.0570733
-0.00205219
-0.061391
-0.00342656
-0.0644837
-0.00491734
-0.0674908
-0.00651523
-0.0707956
-0.00823133
-0.0744889
-0.0786673
-0.0100479
0.000215768
-0.0147482
0.000185463
-0.0355216
-0.000374476
-0.0488161
-0.00138996
-0.0560578
-0.0027077
-0.0600733
-0.0041919
-0.0629995
-0.00578837
-0.0658943
-0.0074936
-0.0690903
-0.00932148
-0.072661
-0.0767406
-0.0112482
0.00014527
-0.0148935
-9.05128e-06
-0.0353673
-0.000750823
-0.0480744
-0.00190837
-0.0549002
-0.00334165
-0.05864
-0.00493168
-0.0614095
-0.00663133
-0.0641947
-0.00844164
-0.06728
-0.0103782
-0.0707245
-0.0747092
-0.0124096
6.83272e-05
-0.0149618
-0.00025548
-0.0350435
-0.00111923
-0.0472106
-0.00240831
-0.0536112
-0.00395341
-0.0570949
-0.00564568
-0.0597172
-0.00744598
-0.0623944
-0.00935893
-0.0653671
-0.0114017
-0.0686817
-0.0725686
-0.0135422
-1.2584e-05
-0.0149492
-0.000473792
-0.0345823
-0.00147668
-0.0462077
-0.00288932
-0.0521985
-0.0045419
-0.0554423
-0.00633355
-0.0579256
-0.00823282
-0.0604951
-0.0102469
-0.0633529
-0.0123921
-0.0665365
-0.0703152
-0.0146456
-8.27279e-05
-0.0148665
-0.000682058
-0.0339829
-0.00182122
-0.0450686
-0.0033514
-0.0506684
-0.00510661
-0.0536871
-0.00699479
-0.0560374
-0.00899253
-0.0584973
-0.0111094
-0.0612361
-0.0133458
-0.0643002
-0.0679681
-0.0156929
-0.00015553
-0.0147109
-0.000882845
-0.0332556
-0.00215205
-0.0437994
-0.00379393
-0.0490265
-0.00564696
-0.0518341
-0.00762839
-0.054056
-0.00972281
-0.0564029
-0.0119436
-0.0590153
-0.0142982
-0.0619455
-0.0656862
-0.0165801
-0.000227188
-0.0144838
-0.00107652
-0.0324063
-0.0024687
-0.0424072
-0.00421644
-0.0472787
-0.00616259
-0.0498879
-0.00823346
-0.0519851
-0.0104185
-0.0542178
-0.0127175
-0.0567164
-0.015087
-0.0595759
-0.0628641
-0.0179092
-0.000296931
-0.0141868
-0.00126273
-0.0314405
-0.00277086
-0.040899
-0.00461862
-0.045431
-0.00665342
-0.0478531
-0.00880948
-0.0498291
-0.0110766
-0.0519507
-0.0134492
-0.0543438
-0.0159444
-0.0570807
-0.0600615
-0.0187469
-0.000364391
-0.0138224
-0.00144102
-0.0303638
-0.00305823
-0.0392818
-0.00500024
-0.043489
-0.00711917
-0.0457342
-0.0093563
-0.0475919
-0.011704
-0.049603
-0.0141662
-0.0518817
-0.0167788
-0.0544681
-0.0572391
-0.0196012
-0.000429294
-0.0133931
-0.00161095
-0.0291822
-0.00333055
-0.0375622
-0.00536109
-0.0414584
-0.00755946
-0.0435358
-0.00987316
-0.0452782
-0.0122974
-0.0471787
-0.014842
-0.0493371
-0.0175388
-0.0517714
-0.0543711
-0.0204068
-0.000491399
-0.0129017
-0.00177213
-0.0279015
-0.00358756
-0.0357468
-0.00570103
-0.039345
-0.00797422
-0.0412626
-0.0103605
-0.042892
-0.0128583
-0.0446809
-0.0154806
-0.0467147
-0.0182525
-0.0489995
-0.0514453
-0.0211783
-0.00055049
-0.0123513
-0.00192426
-0.0265277
-0.00382906
-0.033842
-0.00601993
-0.0371541
-0.00836332
-0.0389192
-0.010818
-0.0404373
-0.0133853
-0.0421136
-0.0160794
-0.0440206
-0.0189203
-0.0461586
-0.0484556
-0.0219101
-0.00060637
-0.0117449
-0.00206706
-0.025067
-0.00405489
-0.0318542
-0.00631772
-0.0348913
-0.00872671
-0.0365103
-0.0112456
-0.0379184
-0.0138782
-0.039481
-0.016639
-0.0412598
-0.0195454
-0.0432522
-0.0454008
-0.0226003
-0.000658865
-0.011086
-0.00220032
-0.0235255
-0.0042649
-0.0297896
-0.00659433
-0.0325618
-0.00906433
-0.0340403
-0.0116432
-0.0353395
-0.0143367
-0.0367875
-0.0171595
-0.038437
-0.020128
-0.0402837
-0.0422822
-0.0232465
-0.000707822
-0.0103782
-0.00232385
-0.0219095
-0.00445898
-0.0276545
-0.0068497
-0.0301711
-0.0093761
-0.0315139
-0.0120106
-0.032705
-0.0147605
-0.0340376
-0.017641
-0.0355566
-0.0206678
-0.0372569
-0.0391029
-0.0238471
-0.000753105
-0.00962509
-0.00243749
-0.0202251
-0.00463705
-0.0254549
-0.00708381
-0.0277244
-0.00966198
-0.0289357
-0.0123477
-0.0300194
-0.0151496
-0.0312356
-0.0180832
-0.032623
-0.0211643
-0.0341758
-0.0358665
-0.0244007
-0.000794599
-0.00883049
-0.00254111
-0.0184786
-0.00479903
-0.023197
-0.00729661
-0.0252268
-0.00992192
-0.0263104
-0.0126543
-0.027287
-0.0155037
-0.0283862
-0.018486
-0.0296407
-0.021617
-0.0310448
-0.0325774
-0.0249061
-0.000832202
-0.00799829
-0.00263461
-0.0166762
-0.00494488
-0.0208867
-0.00748809
-0.0226836
-0.0101559
-0.0236426
-0.0129304
-0.0245125
-0.0158228
-0.0254938
-0.018849
-0.0266144
-0.0220253
-0.0278685
-0.0292404
-0.0253623
-0.000865827
-0.00713246
-0.00271789
-0.0148241
-0.00507453
-0.0185301
-0.00765821
-0.0200999
-0.0103637
-0.0209371
-0.0131758
-0.0217003
-0.0161065
-0.0225632
-0.0191721
-0.0235489
-0.0223889
-0.0246517
-0.0258606
-0.0257687
-0.0008954
-0.00623706
-0.00279088
-0.0129287
-0.00518797
-0.016133
-0.00780696
-0.0174809
-0.0105455
-0.0181985
-0.0133906
-0.0188553
-0.0163548
-0.019599
-0.0194549
-0.0204488
-0.0227072
-0.0213993
-0.022443
-0.0261247
-0.00092086
-0.0053162
-0.00285351
-0.010996
-0.00528515
-0.0137014
-0.00793433
-0.0148317
-0.0107012
-0.0154317
-0.0135744
-0.0159821
-0.0165675
-0.016606
-0.0196972
-0.0173191
-0.02298
-0.0181165
-0.0189932
-0.0264298
-0.000942155
-0.00437405
-0.00290574
-0.00903242
-0.00536606
-0.011241
-0.00804029
-0.0121575
-0.0108307
-0.0126413
-0.0137274
-0.0130853
-0.0167445
-0.013589
-0.0198988
-0.0141647
-0.0232071
-0.0148082
-0.0155165
-0.0266838
-0.000959241
-0.0034148
-0.00294752
-0.00704414
-0.00543067
-0.00875788
-0.00812484
-0.00946333
-0.010934
-0.00983214
-0.0138495
-0.0101698
-0.0168857
-0.0105528
-0.0200597
-0.0109906
-0.0233882
-0.0114798
-0.0120184
-0.0268864
-0.000972087
-0.00244272
-0.00297881
-0.00503742
-0.00547896
-0.00625773
-0.00818796
-0.00675433
-0.0110111
-0.00700905
-0.0139405
-0.00724028
-0.016991
-0.00750235
-0.0201798
-0.00780178
-0.0235234
-0.00813623
-0.00850422
-0.0270375
-0.000980668
-0.00146205
-0.0029996
-0.00301849
-0.00551093
-0.0037464
-0.00822965
-0.00403562
-0.0110619
-0.0041768
-0.0140006
-0.00430161
-0.0170604
-0.0044425
-0.0202589
-0.00460329
-0.0236124
-0.00478274
-0.00497956
-0.027137
-0.000984967
-0.000477082
-0.00300987
-0.000993585
-0.00552656
-0.00122971
-0.00824989
-0.00131229
-0.0110865
-0.00134022
-0.0140295
-0.00135858
-0.0170938
-0.00137817
-0.0202969
-0.00140019
-0.023655
-0.00142463
-0.00145076
-0.0271839
-0.000984978
0.000507895
-0.00300961
0.00103104
-0.00552585
0.00128653
-0.00824868
0.00141054
-0.0110848
0.00149588
-0.0140274
0.00158401
-0.0170913
0.00168574
-0.020294
0.00180248
-0.0236519
0.0019333
0.00207414
-0.0271768
-0.0009807
0.0014886
-0.00299881
0.00304916
-0.00550879
0.00379651
-0.00822602
0.00412777
-0.0110568
0.00432669
-0.0139942
0.00452137
-0.0170529
0.00474449
-0.0202506
0.00500012
-0.0236034
0.00528609
0.00560128
-0.0271305
-0.00097214
0.00246074
-0.00297749
0.00505451
-0.00547539
0.00629441
-0.00818189
0.00683428
-0.0110026
0.00714739
-0.0139299
0.00744867
-0.0169785
0.00779306
-0.0201658
0.00818745
-0.0235085
0.00862876
0.00911567
-0.0270229
-0.000959317
0.00342005
-0.00294566
0.00704085
-0.00542563
0.00877438
-0.0081163
0.00952494
-0.0109221
0.00995315
-0.0138345
0.0103611
-0.0168679
0.0108265
-0.0200399
0.0113594
-0.0233669
0.0119558
0.0126134
-0.0268646
-0.000942255
0.00436231
-0.00290334
0.00900193
-0.00535954
0.0112306
-0.00802923
0.0121946
-0.0108152
0.0127392
-0.013708
0.0132538
-0.0167215
0.01384
-0.019873
0.0145109
-0.0231792
0.015262
0.0160894
-0.0266552
-0.000920988
0.00528329
-0.00285056
0.0109315
-0.00527713
0.0136572
-0.0079207
0.0148382
-0.0106822
0.0155006
-0.0135505
0.0161221
-0.0165391
0.0168287
-0.0196652
0.0176371
-0.0229455
0.0185423
0.0195382
-0.0263944
-0.000895559
0.00617885
-0.00278737
0.0128233
-0.0051784
0.0160482
-0.0077907
0.0174505
-0.0105228
0.0182327
-0.0133619
0.0189612
-0.0163208
0.0197876
-0.0194166
0.0207328
-0.0226658
0.0217915
0.0229545
-0.0260821
-0.000866025
0.00704488
-0.00271382
0.0146711
-0.00506338
0.0183977
-0.00763925
0.0200264
-0.0103372
0.0209307
-0.0131424
0.0217663
-0.0160668
0.022712
-0.0191272
0.0237933
-0.0223403
0.0250046
0.0263328
-0.0257186
-0.00083245
0.00787733
-0.00262997
0.0164686
-0.0049321
0.0206999
-0.00746634
0.0225606
-0.0101255
0.0235898
-0.012892
0.0245328
-0.0157771
0.0255972
-0.0187974
0.0268135
-0.0219692
0.0281764
0.0296679
-0.0253042
-0.000794913
0.00867224
-0.00253592
0.0182096
-0.00478461
0.0229486
-0.00727201
0.025048
-0.00988749
0.0262053
-0.0126107
0.0272561
-0.0154519
0.0284384
-0.0184272
0.0297888
-0.0215529
0.0313021
0.0329545
-0.0248395
-0.000753505
0.00942575
-0.00243175
0.0198879
-0.00462095
0.0251378
-0.00705627
0.0274833
-0.0096234
0.0287725
-0.0122988
0.0299314
-0.0150913
0.031231
-0.0180169
0.0327143
-0.0210917
0.034377
0.0361878
-0.024325
-0.000708335
0.0101341
-0.00231758
0.0214971
-0.00444119
0.0272614
-0.00681916
0.0298613
-0.00933324
0.0312865
-0.0119562
0.0325544
-0.0146956
0.0339703
-0.0175668
0.0355855
-0.0205862
0.0373964
0.0393631
-0.0237616
-0.000659528
0.0107936
-0.00219357
0.0230312
-0.00424541
0.0293132
-0.00656071
0.0321766
-0.00901705
0.0337429
-0.0115831
0.0351204
-0.0142647
0.036652
-0.0170771
0.0383978
-0.0200369
0.0403563
0.0424766
-0.0231503
-0.000607228
0.0114008
-0.00205988
0.0244838
-0.00403371
0.031287
-0.00628098
0.0344239
-0.00867492
0.0361368
-0.0111797
0.0376252
-0.0137991
0.0392714
-0.016548
0.0411467
-0.0194442
0.0432525
0.0455249
-0.0224925
-0.000551601
0.0119524
-0.00191672
0.0258489
-0.00380623
0.0331766
-0.00598003
0.0365977
-0.00830691
0.0384637
-0.010746
0.0400643
-0.0132987
0.0418242
-0.0159795
0.0438275
-0.0188084
0.0460814
0.0485061
-0.0217896
-0.000492838
0.0124453
-0.00176434
0.0271204
-0.00356314
0.0349754
-0.00565796
0.0386925
-0.00791311
0.0407188
-0.0102823
0.0424334
-0.012764
0.0443059
-0.0153716
0.046435
-0.0181293
0.0488391
0.0514204
-0.0210436
-0.000431151
0.0128764
-0.00160304
0.0282923
-0.00330464
0.036677
-0.00531489
0.0407028
-0.00749361
0.0428976
-0.00978864
0.0447284
-0.0121953
0.0467126
-0.0147238
0.0489635
-0.0174047
0.05152
0.0542724
-0.0202567
-0.000366781
0.0132432
-0.00143316
0.0293587
-0.00303098
0.0382748
-0.00495098
0.0426227
-0.00704858
0.0449952
-0.00926537
0.0469452
-0.0115937
0.0490409
-0.0140382
0.051408
-0.0166336
0.0541153
0.0570737
-0.0194348
-0.000299995
0.0135432
-0.00125513
0.0303138
-0.00274247
0.0397621
-0.00456641
0.0444467
-0.00657813
0.0470069
-0.00871218
0.0490793
-0.0109581
0.0512868
-0.0133121
0.0537621
-0.0157928
0.056596
0.0598524
-0.0185715
-0.000231097
0.0137743
-0.00106943
0.0311522
-0.00243945
0.0411321
-0.00416146
0.0461687
-0.00608269
0.0489281
-0.00812989
0.0511265
-0.0102917
0.0534487
-0.0125693
0.0560396
-0.0149263
0.0589529
0.0626516
-0.0177255
-0.000160471
0.0139348
-0.000876602
0.0318683
-0.0021223
0.0423778
-0.00373642
0.0477828
-0.00556256
0.0507543
-0.00751855
0.0530825
-0.00958784
0.055518
-0.0117833
0.0582351
-0.0141148
0.0612844
0.0649327
-0.0163959
-8.87962e-05
0.0140236
-0.000677105
0.0324566
-0.00179145
0.0434922
-0.00329169
0.0492831
-0.00501791
0.0524805
-0.00687878
0.0549433
-0.00884982
0.057489
-0.0109403
0.0603255
-0.0131525
0.0634967
0.0672607
-0.0154805
-1.88413e-05
0.0140424
-0.000470882
0.0329087
-0.00144744
0.0444687
-0.00282781
0.0506634
-0.00444921
0.0541019
-0.00621162
0.0567058
-0.00808264
0.05936
-0.0100693
0.0623122
-0.0121896
0.0656169
0.0694901
-0.0144191
5.87063e-05
0.0139837
-0.000256077
0.0332234
-0.00109111
0.0453038
-0.00234555
0.0519179
-0.00385716
0.0556135
-0.00551809
0.0583667
-0.00728829
0.0611302
-0.009172
0.064196
-0.0111872
0.0676321
0.0716054
-0.0133025
0.000133885
0.0138498
-1.50187e-05
0.0333723
-0.000724248
0.046013
-0.00184518
0.0530388
-0.00324237
0.0570107
-0.00479871
0.059923
-0.00646614
0.0627977
-0.00824482
0.0659746
-0.0101503
0.0695376
0.0736074
-0.0121523
0.000202532
0.0136473
0.000177785
0.0333971
-0.000349988
0.0465408
-0.00132744
0.0540163
-0.00260588
0.0582891
-0.00405389
0.061371
-0.00561583
0.0643596
-0.00728678
0.0676456
-0.00907994
0.0713308
0.0754987
-0.0109713
0.000269745
0.0133775
0.000391225
0.0332756
4.90785e-05
0.0468829
-0.000795065
0.0548604
-0.00194852
0.0594426
-0.00328409
0.0627066
-0.00473777
0.0658133
-0.00629845
0.0692063
-0.00797597
0.0730083
0.0772747
-0.00975197
0.000336293
0.0130412
0.000605848
0.0330061
0.000421845
0.0470669
-0.000251063
0.0555333
-0.00127087
0.0604624
-0.00249003
0.0639258
-0.00383267
0.0671559
-0.00528064
0.0706542
-0.0068397
0.0745674
0.0789291
-0.0084941
0.000400197
0.012641
0.00081986
0.0325864
0.000814673
0.0470721
0.000306461
0.0560415
-0.00057462
0.0613435
-0.00167256
0.0650237
-0.00290127
0.0683846
-0.00423407
0.071987
-0.00567262
0.0760059
0.0804582
-0.00720168
0.000460527
0.0121805
0.00103158
0.0320153
0.00121117
0.0468925
0.000874591
0.0563781
0.000139512
0.0620785
-0.000832693
0.0659959
-0.00194441
0.0694964
-0.00315962
0.0732022
-0.00447617
0.0773225
0.0818595
-0.00587752
0.000516454
0.0116641
0.00123823
0.0312936
0.001608
0.0465228
0.00145314
0.056533
0.000870993
0.0626607
2.26123e-05
0.0668443
-0.00096359
0.0704826
-0.00205854
0.0742972
-0.00325191
0.0785159
0.0831315
-0.00452388
0.000567071
0.011097
0.00143704
0.0304236
0.00200224
0.0459576
0.00203801
0.0564972
0.00161828
0.0630804
0.00091022
0.0675523
3.24894e-05
0.0713603
-0.000933281
0.075263
-0.00200053
0.0795831
0.0842743
-0.00314329
0.000611524
0.0104855
0.00162535
0.0294098
0.00239025
0.0451927
0.00262597
0.0562615
0.00237758
0.0633288
0.00181197
0.068118
0.00106894
0.0721033
0.000212325
0.0761196
-0.000717477
0.0805129
0.085299
-0.00174226
0.000649053
0.00983642
0.0018004
0.0282584
0.00276787
0.0442252
0.00321303
0.0558163
0.00314612
0.0633957
0.00273023
0.0685338
0.00211719
0.0727163
0.00139251
0.0768443
0.000583066
0.0813224
0.0862221
-0.000339953
0.000678999
0.00915742
0.00195932
0.0269781
0.00313049
0.043054
0.00379447
0.0551523
0.00392026
0.0632699
0.00366239
0.0687917
0.00318422
0.0731945
0.00258528
0.0774432
0.00190378
0.0820039
0.0869766
0.00114925
0.000700831
0.00845659
0.00209913
0.0255798
0.00347305
0.0416801
0.00436482
0.0542606
0.0046955
0.0629392
0.0046054
0.0688818
0.00426787
0.0735321
0.00379849
0.0779126
0.00325099
0.0825514
0.087586
0.00264159
0.000714177
0.00774241
0.0022168
0.0240772
0.00379005
0.0401068
0.00491777
0.0531328
0.00546642
0.0623906
0.00555547
0.0687928
0.00536552
0.073722
0.00502927
0.0782488
0.00461354
0.0829671
0.0880592
0.00414032
0.000718876
0.00702354
0.00230971
0.0224863
0.00407562
0.0383409
0.00544608
0.0517624
0.00622648
0.0616102
0.00650775
0.0685115
0.00647364
0.0737561
0.00627378
0.0784487
0.00598934
0.0832515
0.0883985
0.00565001
0.000714964
0.00630857
0.00237557
0.0208257
0.00432363
0.0363929
0.00594155
0.0501445
0.00696788
0.0605839
0.00745625
0.0680231
0.00758806
0.0736243
0.00752898
0.0785078
0.00737689
0.0834036
0.088605
0.00717047
0.000702689
0.00560588
0.00241257
0.0191159
0.00452787
0.0342776
0.00639508
0.0482772
0.00768143
0.0592975
0.00839367
0.0673109
0.00870384
0.0733141
0.00879182
0.0784198
0.00877422
0.0834212
0.0886788
0.00870035
0.000682509
0.00492338
0.00241954
0.0173788
0.00468232
0.0320148
0.00679674
0.0461628
0.00835644
0.0577378
0.0093111
0.0663562
0.00981486
0.0728104
0.0100585
0.0781762
0.0101787
0.083301
0.0886199
0.0102376
0.000655097
0.00426828
0.00239619
0.0156377
0.00478155
0.0296294
0.00713604
0.0438083
0.00898065
0.0558932
0.0101978
0.0651391
0.0109133
0.0720948
0.0113239
0.0777656
0.0115869
0.083038
0.0884266
0.0117802
0.000621317
0.00364696
0.00234319
0.0139159
0.00482118
0.0271515
0.00740223
0.0412273
0.00954026
0.0537552
0.0110408
0.0636386
0.0119895
0.071146
0.0125818
0.0771734
0.0129948
0.082625
0.0880963
0.0133251
0.000582202
0.00306476
0.00226224
0.0122358
0.00479834
0.0246154
0.00758489
0.0384407
0.0100201
0.05132
0.0118247
0.061834
0.0130312
0.0699395
0.0138237
0.0763809
0.0143969
0.0820518
0.0876251
0.0148681
0.000538908
0.00252585
0.00215607
0.0106187
0.00471228
0.0220591
0.0076746
0.0354784
0.010404
0.0485906
0.0125319
0.059706
0.0140233
0.0684482
0.0150391
0.0753651
0.0157864
0.0813045
0.0870069
0.0164046
0.000492672
0.00203318
0.00202834
0.00908298
0.00456473
0.0195228
0.00766395
0.0323792
0.0106754
0.0455791
0.0131421
0.0572394
0.0149472
0.0666431
0.0162141
0.0740982
0.0171543
0.0803643
0.0862324
0.0179287
0.000444764
0.00158842
0.00188345
0.0076443
0.0043602
0.017046
0.00754859
0.0291908
0.0108187
0.042309
0.013633
0.054425
0.0157811
0.064495
0.0173313
0.072548
0.0184887
0.0792069
0.0852883
0.0194329
0.00039644
0.00119198
0.00172629
0.00631445
0.00410593
0.0146664
0.00732836
0.0259684
0.0108199
0.0388175
0.0139811
0.0512637
0.0164989
0.0619773
0.0183686
0.0706783
0.019774
0.0778015
0.084155
0.0209073
0.000348904
0.000843073
0.001562
0.00510135
0.00381156
0.0124168
0.0070083
0.0227716
0.0106692
0.0351566
0.0141627
0.0477703
0.0170713
0.0590686
0.019299
0.0684507
0.0209896
0.0761108
0.0828062
0.0223384
0.000303269
0.000539804
0.00139565
0.00400897
0.00348843
0.010324
0.00659905
0.019661
0.0103629
0.0313927
0.0141562
0.0439771
0.0174664
0.0557584
0.0200896
0.0658275
0.0221088
0.0740915
0.0812068
0.0237083
0.000260515
0.000279289
0.00123195
0.00303753
0.00314865
0.00840734
0.00611658
0.0166931
0.00990507
0.0276042
0.0139445
0.0399376
0.0176508
0.0520521
0.0207022
0.0627761
0.0230978
0.0716959
0.079312
0.0249927
0.000221431
5.78589e-05
0.00107501
0.00218395
0.00280409
0.00667826
0.00558086
0.0139163
0.00930912
0.0238759
0.0135188
0.035728
0.0175935
0.0479774
0.0210943
0.0592753
0.0239149
0.0688753
0.0770671
0.0261598
0.000186546
-0.000128687
0.000927996
0.0014425
0.00246523
0.00514103
0.00501373
0.0113678
0.00859786
0.0202918
0.0128814
0.0314445
0.0172686
0.0435902
0.0212207
0.0553231
0.0245102
0.0655858
0.0744093
0.027168
0.000156054
-0.000284741
0.000792862
0.000805688
0.00214025
0.00379365
0.00443621
0.00907184
0.00780132
0.0169267
0.0120489
0.0271969
0.0166613
0.0389778
0.0210384