/*--------------------------------*- C++ -*----------------------------------*\
  =========                 |
  \\      /  F ield         | OpenFOAM: The Open Source CFD Toolbox
   \\    /   O peration     | Website:  https://openfoam.org
    \\  /    A nd           | Version:  7
     \\/     M anipulation  |
\*---------------------------------------------------------------------------*/
FoamFile
{
    version     2.0;
    format      ascii;
    class       volVectorField;
    location    "225";
    object      U;
}
// * * * * * * * * * * * * * * * * * * * * * * * * * * * * * * * * * * * * * //

dimensions      [0 1 -1 0 0 0 0];

internalField   nonuniform List<vector> 
8500
(
(-0.0015002 0.0631769 1.10318e-21)
(-0.00615227 0.152551 -3.14741e-21)
(-0.0155929 0.213229 -3.6581e-21)
(-0.0285154 0.249507 3.63253e-21)
(-0.0435047 0.268691 -3.34951e-21)
(-0.0587736 0.278478 -1.79763e-21)
(-0.0727401 0.2845 3.10491e-21)
(-0.0844072 0.289249 3.91474e-21)
(-0.0929092 0.292319 -6.67067e-22)
(-0.0971471 0.290898 1.98494e-21)
(-0.00343278 0.0635375 -1.21535e-21)
(-0.0094177 0.154866 3.7424e-21)
(-0.0174884 0.217873 -8.83052e-21)
(-0.0277552 0.256017 7.99729e-21)
(-0.0393715 0.276133 3.38819e-22)
(-0.0508691 0.285816 5.89352e-21)
(-0.0606956 0.290886 -1.03686e-20)
(-0.0676442 0.294132 -1.54455e-20)
(-0.0706293 0.295433 -3.13745e-21)
(-0.0677876 0.292206 7.26422e-21)
(-0.00535216 0.0629173 1.14406e-21)
(-0.0127993 0.155145 8.31548e-21)
(-0.0196133 0.220071 1.94724e-20)
(-0.0271878 0.260074 -1.75876e-20)
(-0.0352073 0.281268 -4.0028e-21)
(-0.042547 0.290986 -3.65885e-21)
(-0.0477148 0.295127 1.88298e-20)
(-0.0493201 0.296734 1.18432e-20)
(-0.046128 0.29601 2.97908e-21)
(-0.0353131 0.290826 -2.25521e-20)
(-0.00717266 0.0613792 4.06908e-21)
(-0.0161625 0.153431 -4.87828e-21)
(-0.0218774 0.219776 -3.64609e-20)
(-0.026802 0.261538 3.19962e-21)
(-0.0311014 0.283909 9.98577e-21)
(-0.0339908 0.29379 -7.85087e-21)
(-0.0340943 0.29704 -3.8397e-22)
(-0.0298806 0.296905 -3.29874e-21)
(-0.0199957 0.293919 7.61432e-21)
(-0.000682526 0.286517 2.28518e-20)
(-0.00882259 0.0590217 2.86083e-21)
(-0.0193799 0.149828 -1.57939e-20)
(-0.0241998 0.217013 3.77403e-20)
(-0.0265984 0.260318 -1.71472e-20)
(-0.0271476 0.283903 -7.25199e-23)
(-0.0253999 0.29406 2.38578e-20)
(-0.0201491 0.296481 -1.10711e-20)
(-0.00978522 0.294551 1.3997e-21)
(0.00702289 0.289129 -4.63847e-21)
(0.0352442 0.279018 1.68659e-21)
(-0.0102475 0.0559698 3.39297e-20)
(-0.0223455 0.144504 4.06589e-20)
(-0.0265063 0.211864 -1.03369e-20)
(-0.0265812 0.256396 1.96737e-20)
(-0.0234466 0.281146 6.17771e-21)
(-0.0169803 0.291658 -8.85479e-21)
(-0.00619771 0.293338 -3.40898e-21)
(0.0105346 0.289623 -1.5437e-20)
(0.0342642 0.281685 3.31353e-21)
(0.0716731 0.268473 -2.14743e-20)
(-0.0114131 0.0523713 -3.26892e-20)
(-0.0249806 0.137684 -2.11657e-20)
(-0.0287371 0.204488 1.72025e-20)
(-0.0267562 0.249815 -2.95995e-20)
(-0.0200972 0.275579 3.35653e-21)
(-0.00893202 0.286481 3.49202e-20)
(0.00745491 0.287523 -6.2637e-21)
(0.0306935 0.282105 4.29028e-20)
(0.0611794 0.27167 -6.8265e-22)
(0.108005 0.25501 -1.83868e-20)
(-0.0123078 0.0483898 2.73443e-20)
(-0.0272394 0.129642 -4.88691e-20)
(-0.0308516 0.195112 -1.92657e-20)
(-0.0271309 0.24069 2.2627e-20)
(-0.0171873 0.267202 6.95899e-22)
(-0.0014352 0.278458 -6.53742e-20)
(0.0205353 0.278959 -3.89019e-21)
(0.0503724 0.271986 -3.33048e-20)
(0.0873357 0.259184 -4.43197e-20)
(0.143918 0.238727 2.70129e-20)
(-0.0129439 0.0441971 -1.53486e-20)
(-0.0291127 0.12069 7.25256e-21)
(-0.032831 0.18403 1.78534e-20)
(-0.027711 0.229207 -1.5708e-20)
(-0.0147827 0.256077 -5.54721e-20)
(0.00536849 0.267558 1.9315e-20)
(0.0328255 0.267583 2.95063e-21)
(0.0693457 0.259254 4.97978e-20)
(0.112437 0.244317 6.78025e-20)
(0.179445 0.219698 -3.15297e-20)
(-0.0133579 0.0399649 2.39678e-20)
(-0.0306292 0.111159 2.15541e-20)
(-0.0346772 0.171584 -3.07069e-21)
(-0.0284946 0.215627 7.85527e-20)
(-0.0129111 0.242342 3.32944e-20)
(0.0114027 0.253809 2.50905e-20)
(0.0442029 0.253353 3.59545e-20)
(0.0875312 0.243892 -1.63619e-20)
(0.136388 0.227115 -2.26054e-20)
(0.215128 0.197981 -3.8348e-20)
(-0.0136082 0.035857 -2.28808e-21)
(-0.0318526 0.101385 -3.37388e-20)
(-0.0364086 0.158154 -2.41641e-20)
(-0.02946 0.200276 -3.86334e-20)
(-0.0115377 0.226214 -3.05501e-20)
(0.0166988 0.237313 3.07142e-20)
(0.0547095 0.236274 -2.97963e-20)
(0.105082 0.22591 -2.11782e-20)
(0.159443 0.207554 2.74606e-21)
(0.252292 0.17369 1.01821e-20)
(-0.013771 0.0320215 -6.52645e-20)
(-0.0328729 0.0916907 3.09437e-20)
(-0.0380467 0.14414 2.23721e-20)
(-0.0305451 0.183543 1.47705e-20)
(-0.0105274 0.208007 -2.67485e-20)
(0.021461 0.218276 -2.28909e-20)
(0.0646632 0.216441 3.3311e-20)
(0.122539 0.205401 -2.74122e-20)
(0.182506 0.185551 -1.16447e-21)
(0.293351 0.147195 -3.03086e-20)
(-0.0139339 0.0285834 5.42483e-20)
(-0.0337915 0.0823684 2.1752e-20)
(-0.039596 0.12994 1.27862e-21)
(-0.0316168 0.165865 -2.70028e-20)
(-0.00959383 0.188127 2.07098e-21)
(0.0261544 0.197035 2.95072e-20)
(0.0748104 0.1941 -8.4682e-21)
(0.141024 0.182616 -1.03974e-20)
(0.207556 0.161043 -2.49051e-20)
(0.341911 0.119372 4.60603e-20)
(-0.014186 0.0256372 3.61267e-20)
(-0.0347 0.0736627 -5.86557e-20)
(-0.0410149 0.115932 -4.47331e-20)
(-0.0324308 0.147709 1.93545e-20)
(-0.00823577 0.167079 3.91127e-20)
(0.0316083 0.174082 3.27587e-20)
(0.0864899 0.16971 -3.52043e-20)
(0.162413 0.158031 6.95896e-20)
(0.23804 0.134181 -2.10485e-20)
(0.402145 0.0916961 -5.41453e-20)
(-0.0146066 0.0232396 -5.46385e-20)
(-0.0356552 0.0657556 3.27172e-20)
(-0.0421824 0.102455 -1.52627e-20)
(-0.0325896 0.129557 1.61648e-21)
(-0.00567802 0.14545 1.61613e-20)
(0.0391035 0.150067 -5.17943e-20)
(0.101739 0.143992 4.63411e-20)
(0.189389 0.132344 -4.53379e-20)
(0.278855 0.105693 7.59053e-20)
(0.477189 0.0660592 2.84497e-20)
(-0.0152504 0.021403 1.13293e-20)
(-0.0366538 0.0587545 6.28352e-20)
(-0.0428693 0.0897844 -1.55873e-20)
(-0.0315109 0.111872 1.57547e-20)
(-0.000840286 0.123876 1.79635e-20)
(0.0503906 0.12578 -5.32536e-21)
(0.123232 0.117935 3.91356e-20)
(0.22525 0.106421 1.59289e-21)
(0.335495 0.0772399 -4.91529e-20)
(0.567066 0.0442948 6.73002e-20)
(-0.016134 0.0200913 -3.05639e-20)
(-0.0376109 0.0526836 -5.93812e-20)
(-0.0427215 0.0781143 5.12492e-20)
(-0.0284248 0.0950642 2.54007e-20)
(0.00763417 0.103 -1.17157e-19)
(0.0675872 0.102093 9.50311e-20)
(0.15396 0.0927383 -8.62085e-20)
(0.273427 0.0812226 1.03061e-21)
(0.41215 0.0514399 -2.06363e-20)
(0.667432 0.0277465 -6.27841e-20)
(-0.0172305 0.0192268 2.61847e-20)
(-0.0383463 0.0474771 -3.4694e-21)
(-0.0412648 0.0675417 -1.25829e-20)
(-0.0224121 0.079459 -1.54907e-21)
(0.0212712 0.0834032 -7.27642e-21)
(0.0929359 0.0798639 -3.03276e-20)
(0.196688 0.0696306 1.30874e-20)
(0.336753 0.0578125 -2.05638e-20)
(0.509321 0.0312306 6.00424e-21)
(0.770405 0.0169977 1.52174e-21)
(-0.0184695 0.0186873 -5.34207e-20)
(-0.0385946 0.0429832 -3.75545e-21)
(-0.0379307 0.0580579 5.77277e-21)
(-0.012482 0.0652601 2.35828e-21)
(0.0415869 0.0655448 3.82705e-20)
(0.128445 0.0598357 -1.1107e-19)
(0.253322 0.0496503 7.50582e-20)
(0.416646 0.0374987 -5.64573e-20)
(0.622419 0.0187685 4.97208e-20)
(0.867523 0.0108485 5.68891e-20)
(-0.019731 0.0183161 -6.42128e-21)
(-0.0380235 0.0389872 2.96614e-20)
(-0.032105 0.0495526 -3.69509e-20)
(0.00232659 0.0525384 -1.15014e-20)
(0.0698889 0.0497272 2.20662e-20)
(0.175532 0.0425708 1.0573e-19)
(0.324397 0.0334954 -2.12813e-20)
(0.512189 0.0218844 1.02644e-20)
(0.742575 0.0142632 -5.68498e-20)
(0.955133 0.00611401 2.60569e-20)
(-0.0208553 0.0179429 -1.94164e-20)
(-0.0362587 0.0352373 -1.50854e-20)
(-0.0231786 0.0418353 3.76997e-21)
(0.0228534 0.0412467 1.45057e-20)
(0.107119 0.036103 -4.28049e-20)
(0.234782 0.0284564 -1.72192e-20)
(0.408943 0.0215355 -5.44038e-20)
(0.619519 0.0124555 5.66189e-20)
(0.859352 0.0150114 6.10714e-20)
(1.0341 -0.00272413 -2.69806e-20)
(-0.0216447 0.0173999 -9.27184e-21)
(-0.0329149 0.031488 3.77882e-20)
(-0.01059 0.0346759 -4.20532e-20)
(0.0497584 0.0312637 -4.9343e-21)
(0.153778 0.0247251 -1.98023e-20)
(0.305856 0.0177567 4.29054e-20)
(0.504606 0.0139989 5.5262e-20)
(0.732333 0.00954804 -5.3321e-20)
(0.964535 0.0164115 5.74654e-20)
(1.13416 -0.00397474 7.7856e-21)
(-0.0219104 0.0165864 -2.69307e-20)
(-0.0275819 0.0275184 -7.63801e-20)
(0.00615494 0.0278471 7.44495e-20)
(0.0835044 0.0224599 1.06559e-20)
(0.20992 0.015626 1.54083e-20)
(0.387527 0.0106702 9.65858e-21)
(0.607834 0.0110349 4.25094e-20)
(0.843671 0.011848 3.1365e-20)
(1.06144 0.0207012 -1.12096e-19)
(1.21542 0.00519142 -5.53e-20)
(-0.0215017 0.0154227 -9.20883e-20)
(-0.0198793 0.0231493 1.85015e-20)
(0.0274912 0.021199 -4.22343e-20)
(0.124369 0.0147741 8.18279e-21)
(0.275178 0.00889916 1.29868e-20)
(0.477781 0.00735566 -9.40124e-20)
(0.71425 0.012545 4.17073e-20)
(0.948715 0.0182174 -2.81998e-20)
(1.1461 0.0286002 2.97336e-20)
(1.27575 0.016244 -1.0388e-20)
(-0.0202509 0.0138596 3.33791e-20)
(-0.00947012 0.0183164 3.61487e-20)
(0.0537812 0.0146961 -2.1601e-21)
(0.172457 0.00827389 -1.15272e-20)
(0.348771 0.00474668 3.26972e-22)
(0.573956 0.00790176 7.84809e-22)
(0.819427 0.0181455 -6.33526e-20)
(1.04399 0.0278318 8.13121e-21)
(1.21674 0.0388241 7.93666e-20)
(1.32303 0.0287332 3.61527e-20)
(-0.0180086 0.0119039 -2.2669e-20)
(0.00396181 0.0130585 -1.6722e-20)
(0.0853211 0.00844155 7.21909e-20)
(0.227686 0.0031869 1.86913e-21)
(0.429479 0.00346511 -3.04108e-20)
(0.672956 0.0122739 8.12328e-20)
(0.919527 0.0272844 1.79083e-20)
(1.12742 0.0398858 1.11028e-21)
(1.27403 0.0507108 -3.47775e-20)
(1.35669 0.0419129 -4.54258e-20)
(-0.0146423 0.009607 4.76398e-20)
(0.0207034 0.00751572 -1.31943e-20)
(0.122327 0.00268355 -7.93608e-21)
(0.28975 -0.000108061 -3.00755e-20)
(0.51564 0.00536963 4.9232e-20)
(0.771575 0.020284 -2.40071e-20)
(1.01167 0.0393459 -2.71688e-20)
(1.19832 0.0537199 -6.37154e-21)
(1.31882 0.0636493 -1.99744e-20)
(1.38048 0.0553024 2.18883e-20)
(-0.0100303 0.00705305 -1.75105e-20)
(0.0410022 0.00191867 -1.04534e-19)
(0.164905 -0.00220176 1.08597e-20)
(0.358052 -0.00113294 3.76603e-20)
(0.605192 0.0106939 2.68883e-20)
(0.866854 0.0316074 -8.9709e-20)
(1.09403 0.0537334 5.74797e-20)
(1.25692 0.0687901 -2.60778e-20)
(1.3528 0.0772222 3.94258e-20)
(1.39604 0.0688241 1.08938e-20)
(-0.00405981 0.00435038 -1.93098e-20)
(0.065052 -0.00342944 3.70508e-20)
(0.213006 -0.00574418 4.85883e-20)
(0.431655 0.000607096 -3.48299e-20)
(0.695835 0.0195188 1.29817e-20)
(0.956366 0.0458326 -7.90789e-20)
(1.16575 0.0699105 -1.47134e-20)
(1.30411 0.0846804 1.23871e-20)
(1.37762 0.0911642 -3.00069e-20)
(1.40546 0.0823434 -3.05209e-20)
(0.0033725 0.00162479 -2.50478e-20)
(0.0929755 -0.00817304 -8.57476e-21)
(0.266382 -0.00742385 -8.82818e-20)
(0.509277 0.00553523 -1.38911e-20)
(0.785255 0.0317582 -1.459e-21)
(1.03836 0.0625169 4.73518e-21)
(1.22675 0.0874234 8.12141e-21)
(1.34109 0.101088 -3.90154e-20)
(1.39493 0.10531 7.06367e-22)
(1.41019 0.0958794 2.10522e-20)
(0.0123553 -0.000983814 -6.57675e-21)
(0.124803 -0.0119226 3.05901e-20)
(0.324555 -0.00672018 4.31892e-20)
(0.589357 0.0139368 2.7074e-20)
(0.87135 0.0471904 -7.99705e-21)
(1.11177 0.0812292 -6.65442e-21)
(1.27746 0.105905 6.57065e-20)
(1.36922 0.117805 8.80349e-21)
(1.4062 0.119581 2.94508e-20)
(1.41142 0.109435 -1.27087e-20)
(0.0229553 -0.00332428 6.28022e-20)
(0.160453 -0.0142729 4.06532e-20)
(0.386806 -0.00315972 -4.12989e-20)
(0.670181 0.0259319 -8.24647e-21)
(0.952391 0.0655089 4.32689e-21)
(1.17613 0.101576 -1.56807e-20)
(1.31867 0.125073 -3.37889e-20)
(1.38983 0.134702 -5.56292e-21)
(1.41269 0.133945 4.11112e-22)
(1.41005 0.123048 1.37717e-20)
(0.0352099 -0.00523614 7.82155e-21)
(0.199719 -0.0148187 -2.2223e-20)
(0.452191 0.00364316 5.27034e-20)
(0.750027 0.041486 3.4373e-20)
(1.0271 0.0863672 1.07309e-21)
(1.23141 0.123214 2.43039e-20)
(1.3513 0.144715 3.5608e-21)
(1.40416 0.151704 -2.55499e-20)
(1.4154 0.148401 2.16136e-20)
(1.40672 0.136741 -1.12292e-23)
(0.0491196 -0.00655149 -5.19287e-20)
(0.242259 -0.0131722 -1.5325e-20)
(0.519595 0.0139584 -1.38516e-20)
(0.827305 0.0604409 -2.41545e-20)
(1.09464 0.109411 5.69783e-21)
(1.27793 0.145852 1.26519e-22)
(1.37636 0.16468 1.86753e-20)
(1.41329 0.168773 -3.01193e-21)
(1.41515 0.162959 -2.22682e-20)
(1.40187 0.150532 -2.07472e-20)
(0.0646407 -0.00709826 4.22685e-21)
(0.287597 -0.00898087 2.48655e-20)
(0.587794 0.0279285 1.20855e-20)
(0.900651 0.0825519 -3.77375e-20)
(1.15455 0.134296 -1.87901e-21)
(1.31621 0.169246 -1.61783e-20)
(1.39482 0.18486 4.1588e-22)
(1.41812 0.185896 7.555e-21)
(1.41252 0.177634 -8.39829e-21)
(1.3958 0.164425 2.3474e-20)
(0.0816822 -0.00670485 9.94696e-21)
(0.335137 -0.00194585 -2.43767e-20)
(0.655536 0.0455706 -5.76459e-20)
(0.968974 0.107518 5.31142e-20)
(1.20668 0.160699 -3.95623e-21)
(1.34688 0.193196 1.16918e-20)
(1.40755 0.205181 -1.6163e-21)
(1.41939 0.203067 1.12117e-20)
(1.40797 0.192429 -8.37513e-22)
(1.38871 0.178408 -1.81927e-20)
(0.100103 -0.00520606 -2.02877e-20)
(0.384176 0.00816176 3.17633e-20)
(0.721613 0.0667893 2.62479e-20)
(1.03146 0.135007 -3.78966e-20)
(1.25111 0.188319 -6.27985e-21)
(1.37061 0.217534 2.38676e-21)
(1.41535 0.225583 2.39719e-20)
(1.41771 0.220279 1.20429e-21)
(1.40182 0.207339 4.66852e-21)
(1.3807 0.192456 -1.00531e-20)
(0.119714 -0.00244986 1.53964e-20)
(0.433941 0.0214881 -1.38815e-20)
(0.784915 0.0913938 -1.18547e-20)
(1.08755 0.164668 2.03082e-20)
(1.28808 0.21688 6.99999e-21)
(1.38806 0.242118 5.28704e-21)
(1.41887 0.24602 -2.44338e-20)
(1.41352 0.237519 -8.38479e-21)
(1.39427 0.222343 -7.50495e-21)
(1.37184 0.20653 3.30542e-21)
(0.140281 0.00169545 -7.69152e-21)
(0.483611 0.0380892 -1.79917e-22)
(0.844476 0.119116 2.24378e-20)
(1.13691 0.196145 -8.22035e-21)
(1.31793 0.246125 -3.63315e-21)
(1.39985 0.266821 -2.38873e-21)
(1.41868 0.266441 5.92155e-21)
(1.40717 0.254764 1.02261e-20)
(1.38547 0.237405 -3.2992e-22)
(1.36216 0.22058 3.74309e-21)
(0.161528 0.00733436 5.42352e-21)
(0.53236 0.0579286 -1.52362e-21)
(0.899487 0.14963 -4.02048e-21)
(1.17938 0.229078 -3.64089e-21)
(1.34103 0.275815 3.27545e-21)
(1.40654 0.291526 2.55309e-21)
(1.41524 0.286796 -2.35304e-21)
(1.3989 0.271975 8.53968e-22)
(1.3755 0.252475 1.2011e-21)
(1.35167 0.234544 -1.59853e-21)
(0.183152 0.0145383 2.91421e-21)
(0.579381 0.0808808 8.30498e-22)
(0.949305 0.182562 -4.99337e-21)
(1.21493 0.263112 -3.98126e-21)
(1.35782 0.305722 4.14679e-21)
(1.40864 0.31612 8.11686e-22)
(1.40891 0.307021 -1.89365e-21)
(1.3889 0.289099 1.78052e-21)
(1.36442 0.267486 9.96494e-22)
(1.34038 0.248353 -1.14923e-21)
(0.204822 0.0233412 -1.1389e-21)
(0.623921 0.106737 2.33205e-21)
(0.993444 0.217509 1.53942e-20)
(1.24365 0.297898 -6.84478e-21)
(1.36871 0.335631 -3.34547e-21)
(1.4066 0.340488 -3.77424e-21)
(1.39998 0.327042 7.74059e-21)
(1.3773 0.306067 5.21173e-21)
(1.35224 0.282355 4.1701e-21)
(1.32828 0.261935 2.27393e-21)
(0.226197 0.0337368 2.33907e-20)
(0.665297 0.135217 -1.28976e-20)
(1.03156 0.254046 -1.46742e-20)
(1.26571 0.33309 1.99254e-20)
(1.3741 0.36533 1.04872e-20)
(1.40077 0.36451 -7.01936e-22)
(1.38867 0.346774 -1.29727e-20)
(1.36416 0.322794 -9.34893e-21)
(1.33899 0.296981 -9.8096e-21)
(1.31538 0.275206 5.8704e-21)
(0.246934 0.0456775 -3.16522e-20)
(0.702911 0.165977 2.98344e-20)
(1.06345 0.291734 3.43305e-20)
(1.28132 0.368353 -3.38099e-20)
(1.37439 0.394614 -1.16883e-20)
(1.3915 0.388062 7.52526e-21)
(1.37517 0.366121 1.36675e-20)
(1.34956 0.339184 2.17306e-21)
(1.32465 0.311254 -4.05685e-22)
(1.30161 0.288076 -8.0618e-21)
(0.266692 0.0590756 -4.54521e-21)
(0.736265 0.198621 -4.19891e-20)
(1.08901 0.330127 -4.49603e-20)
(1.29076 0.403359 5.04029e-20)
(1.36993 0.423279 -5.73031e-21)
(1.37906 0.411013 1.05778e-20)
(1.35962 0.384979 2.0975e-21)
(1.33355 0.35514 -5.8743e-21)
(1.30919 0.325083 3.16137e-21)
(1.28679 0.300461 -4.9423e-22)
(0.285149 0.0738054 9.25537e-21)
(0.764962 0.232718 2.60401e-20)
(1.10824 0.368778 1.47439e-20)
(1.2943 0.43779 -1.15921e-20)
(1.36107 0.451123 -1.80916e-20)
(1.3637 0.433224 -1.68653e-20)
(1.34215 0.403227 -3.42904e-21)
(1.31616 0.370567 9.24392e-21)
(1.29263 0.33844 -1.95658e-21)
(1.27079 0.312334 4.48373e-21)
(0.302006 0.0897062 -3.50561e-20)
(0.788709 0.267809 -3.27523e-20)
(1.1212 0.407245 -5.21269e-21)
(1.29226 0.471337 -5.87938e-21)
(1.34814 0.477946 -1.34231e-20)
(1.34562 0.454547 8.23164e-21)
(1.32284 0.420734 -1.46021e-21)
(1.29743 0.385339 -8.08799e-21)
(1.27503 0.351319 7.36251e-21)
(1.25376 0.323701 -1.09563e-20)
(0.316997 0.106586 8.27742e-21)
(0.807314 0.303423 2.77865e-20)
(1.12804 0.445096 2.42112e-20)
(1.28495 0.503702 2.63518e-20)
(1.33143 0.50355 4.3286e-22)
(1.32502 0.474839 2.33688e-20)
(1.30177 0.43737 1.65801e-21)
(1.27736 0.399292 -2.80488e-20)
(1.25636 0.363569 2.03046e-20)
(1.23607 0.334279 7.48675e-21)
(0.329891 0.124227 2.2732e-20)
(0.820676 0.339087 5.09984e-20)
(1.12896 0.481912 -6.72867e-21)
(1.27271 0.534597 -3.32818e-20)
(1.31122 0.527743 1.5024e-20)
(1.30207 0.493949 -1.57415e-20)
(1.27905 0.453016 -2.14386e-20)
(1.25612 0.412357 -2.14182e-21)
(1.23656 0.374961 -1.71894e-20)
(1.21772 0.344124 6.76255e-21)
(0.340501 0.142389 1.07834e-20)
(0.828773 0.374331 8.14048e-21)
(1.12421 0.517291 6.4077e-20)
(1.25587 0.563749 1.21097e-20)
(1.28779 0.550335 -1.06867e-20)
(1.27694 0.511718 -5.45675e-21)
(1.25486 0.467497 3.33446e-20)
(1.23373 0.42444 2.77901e-20)
(1.21567 0.385425 1.40081e-20)
(1.19863 0.353033 -1.99579e-21)
(0.348682 0.160822 2.32757e-21)
(0.831658 0.4087 -5.22785e-20)
(1.11406 0.550849 -7.55492e-20)
(1.23478 0.590897 2.5147e-21)
(1.2614 0.571138 1.51701e-20)
(1.24984 0.527977 -2.11954e-20)
(1.22926 0.480692 -4.96217e-20)
(1.21013 0.435409 -1.50178e-20)
(1.19386 0.394858 -9.54516e-22)
(1.17878 0.360954 8.05856e-21)
(0.354335 0.179269 -1.882e-20)
(0.82946 0.441757 4.77916e-20)
(1.09888 0.582234 4.56505e-20)
(1.20976 0.615792 -4.27446e-20)
(1.23231 0.589963 6.46168e-21)
(1.22092 0.542578 5.27413e-20)
(1.20229 0.492463 -1.26615e-20)
(1.18547 0.445146 1.04159e-20)
(1.17118 0.403157 -5.62139e-21)
(1.15823 0.367799 -7.56223e-21)
(0.357404 0.197468 -4.27335e-20)
(0.82239 0.473082 -7.52415e-20)
(1.07907 0.611155 -1.48069e-20)
(1.18107 0.638172 2.45042e-20)
(1.20077 0.606631 2.49039e-20)
(1.19034 0.555358 -5.3283e-20)
(1.17411 0.502684 2.99697e-20)
(1.15982 0.453537 -1.71151e-20)
(1.14768 0.410222 1.45684e-20)
(1.13706 0.373507 1.13743e-22)
(0.35789 0.215154 3.25477e-20)
(0.810751 0.502259 2.03367e-21)
(1.055 0.63737 -7.35288e-21)
(1.14896 0.657828 -3.12051e-20)
(1.16704 0.620925 2.13974e-20)
(1.15827 0.566178 3.84463e-21)
(1.14483 0.51123 -1.86506e-20)
(1.13329 0.460475 2.24522e-21)
(1.12345 0.415951 -4.63725e-21)
(1.11535 0.377997 3.65114e-21)
(0.355856 0.232073 -9.16778e-21)
(0.794897 0.528939 -1.32747e-20)
(1.02663 0.660428 3.3027e-20)
(1.11399 0.674711 1.54368e-20)
(1.13145 0.632675 -2.14458e-20)
(1.12491 0.574893 3.33656e-20)
(1.1146 0.517987 1.78632e-21)
(1.10599 0.465861 1.50326e-21)
(1.09859 0.420243 -3.76018e-21)
(1.09321 0.381173 -3.44975e-22)
(0.35141 0.247956 6.00422e-20)
(0.775094 0.553049 4.63595e-20)
(0.994203 0.679944 -2.49091e-21)
(1.07661 0.688454 -7.85765e-21)
(1.09423 0.641843 -9.0562e-21)
(1.09044 0.581401 -4.6062e-21)
(1.08355 0.522852 1.15227e-21)
(1.07803 0.46961 2.66902e-21)
(1.07319 0.423001 4.13048e-21)
(1.07069 0.382931 1.36585e-23)
(0.344637 0.262423 6.055e-21)
(0.7514 0.574196 8.73149e-21)
(0.958728 0.696167 -4.5505e-20)
(1.03716 0.698808 2.10635e-20)
(1.05565 0.648271 8.3913e-21)
(1.05506 0.585596 -1.93743e-20)
(1.05183 0.52573 5.71756e-21)
(1.04952 0.471645 1.01537e-21)
(1.04738 0.424156 -1.76107e-21)
(1.04805 0.383224 5.92631e-22)
(0.335521 0.275245 -2.27235e-20)
(0.724033 0.591755 -1.74902e-20)
(0.920683 0.708768 1.62082e-20)
(0.995913 0.705809 5.79455e-21)
(1.01596 0.651858 -7.64827e-21)
(1.01896 0.587382 8.76541e-21)
(1.01958 0.526532 8.71894e-22)
(1.02055 0.47187 -2.97509e-22)
(1.02141 0.423632 9.2506e-21)
(1.02599 0.382102 4.86192e-21)
(0.324314 0.286248 -1.84952e-20)
(0.693664 0.6056 5.06326e-20)
(0.880336 0.717507 -3.38285e-20)
(0.95321 0.70936 -3.65356e-21)
(0.97541 0.652517 -8.18332e-21)
(0.98232 0.58668 4.36667e-21)
(0.986906 0.525175 -2.45185e-21)
(0.991242 0.470145 1.68882e-21)
(0.995709 0.421216 1.44836e-21)
(1.00527 0.379568 -1.55293e-21)
(0.311263 0.295384 -3.39797e-22)
(0.660727 0.615605 -1.47754e-20)
(0.838097 0.722201 1.03968e-20)
(0.909398 0.709381 -7.24294e-21)
(0.934274 0.65019 -4.60136e-22)
(0.94533 0.583441 2.70296e-21)
(0.953928 0.521616 7.19105e-21)
(0.961791 0.466381 -6.81614e-21)
(0.970652 0.416527 -1.38709e-20)
(0.985137 0.374849 7.147e-21)
(0.29652 0.302459 2.45932e-21)
(0.625674 0.621644 -1.7916e-22)
(0.794393 0.722756 4.45595e-22)
(0.864825 0.705807 -1.96349e-21)
(0.892816 0.644835 -3.67788e-21)
(0.908187 0.577637 -1.13394e-20)
(0.920849 0.51586 -3.15679e-21)
(0.932499 0.460716 -2.13922e-21)
(0.946213 0.409831 2.13186e-20)
(0.962428 0.364282 -3.78879e-21)
(0.280314 0.307329 -8.68486e-21)
(0.588945 0.623614 -5.54646e-21)
(0.749653 0.719125 2.73922e-21)
(0.819842 0.698603 1.488e-21)
(0.851302 0.636427 -6.26866e-21)
(0.871111 0.569241 2.44141e-20)
(0.887938 0.507869 -1.9009e-20)
(0.90359 0.453218 2.34733e-20)
(0.921227 0.403068 -1.64761e-20)
(0.937183 0.359021 -2.2784e-20)
(0.262898 0.309889 2.96148e-21)
(0.550975 0.621446 -3.51153e-21)
(0.704304 0.711294 1.5584e-21)
(0.774795 0.687762 9.24705e-21)
(0.809998 0.624957 -5.13156e-21)
(0.834332 0.558236 7.71791e-21)
(0.855403 0.497594 1.09046e-20)
(0.875077 0.443599 -5.82287e-21)
(0.896092 0.39395 -1.73284e-20)
(0.913093 0.350088 2.36514e-20)
(0.244531 0.310061 5.80904e-21)
(0.512196 0.615107 7.14476e-21)
(0.658764 0.699278 -8.52957e-21)
(0.730023 0.673304 -7.40566e-21)
(0.769173 0.610444 3.28923e-20)
(0.798072 0.544637 -3.45817e-20)
(0.823395 0.485087 4.31066e-20)
(0.846963 0.432116 -1.07196e-20)
(0.871022 0.383575 1.16123e-20)
(0.889727 0.340934 2.26203e-20)
(0.225477 0.307798 -1.3108e-21)
(0.473037 0.604606 -8.30556e-21)
(0.613442 0.683125 -7.3736e-21)
(0.685859 0.655276 -3.38383e-21)
(0.729091 0.592921 5.55793e-21)
(0.762553 0.528469 -9.99125e-21)
(0.792087 0.470353 -1.27852e-20)
(0.819419 0.418686 -2.94246e-20)
(0.846395 0.371491 2.94671e-20)
(0.867239 0.330271 -9.27609e-21)
(0.206001 0.303079 2.06176e-20)
(0.433921 0.589985 -3.24851e-21)
(0.568734 0.662911 -1.05311e-20)
(0.642627 0.633749 1.26354e-20)
(0.690012 0.572445 -2.25802e-20)
(0.727986 0.509777 6.3196e-20)
(0.761646 0.453444 -3.40578e-20)
(0.792611 0.403404 3.12329e-20)
(0.822439 0.357877 -5.7377e-20)
(0.845654 0.318269 -1.53963e-20)
(0.186368 0.295914 -5.05183e-21)
(0.39526 0.571325 2.21407e-20)
(0.525026 0.638742 4.76611e-21)
(0.60064 0.608818 -1.22372e-20)
(0.652187 0.549095 -2.1415e-20)
(0.69458 0.488626 -2.54866e-22)
(0.732245 0.434411 1.13657e-20)
(0.766707 0.386297 -2.84619e-20)
(0.799315 0.342695 1.38244e-20)
(0.825008 0.304842 1.79342e-21)
(0.166838 0.286338 -3.80322e-20)
(0.357451 0.54874 -9.11897e-21)
(0.482684 0.610751 -2.74972e-21)
(0.560197 0.580601 3.24389e-20)
(0.615859 0.522966 -3.06263e-20)
(0.662534 0.465097 -7.71288e-21)
(0.704057 0.413327 -4.91874e-21)
(0.741868 0.36743 8.86219e-21)
(0.777166 0.325992 -1.16048e-20)
(0.805369 0.290029 -1.80161e-20)
(0.147664 0.274414 3.5025e-20)
(0.320876 0.522378 -2.02254e-20)
(0.44206 0.5791 7.94196e-22)
(0.521586 0.549241 -4.965e-20)
(0.58126 0.494177 5.43015e-20)
(0.632044 0.439287 -1.72589e-20)
(0.677247 0.390275 1.03435e-20)
(0.718244 0.346868 9.09026e-21)
(0.756117 0.307809 2.63908e-20)
(0.786807 0.273878 -1.10186e-20)
(0.12909 0.260227 -1.41247e-20)
(0.285897 0.492418 4.22468e-20)
(0.403484 0.543977 2.40384e-20)
(0.485077 0.5149 4.00389e-20)
(0.548611 0.462862 -9.19048e-21)
(0.603294 0.41131 3.75599e-21)
(0.651975 0.365353 3.03965e-20)
(0.695975 0.324691 6.8918e-21)
(0.736283 0.28821 6.66066e-22)
(0.769399 0.256454 -1.32694e-20)
(0.111347 0.243889 -3.41091e-20)
(0.252856 0.459067 -2.38821e-21)
(0.367267 0.505593 -1.43627e-20)
(0.450923 0.477761 -6.51197e-20)
(0.51812 0.429174 -6.32624e-20)
(0.576458 0.381296 1.05029e-20)
(0.628391 0.338672 -2.60822e-20)
(0.675189 0.300994 1.68583e-20)
(0.717774 0.267272 9.1422e-21)
(0.75322 0.237839 1.8874e-20)
(0.0946557 0.225532 5.11059e-20)
(0.222067 0.42256 -4.18951e-20)
(0.333696 0.464184 -2.14599e-20)
(0.419359 0.438025 3.77247e-20)
(0.489979 0.393282 4.3321e-20)
(0.551701 0.349388 -1.45449e-20)
(0.606636 0.310354 -1.95505e-21)
(0.656009 0.275878 -5.22608e-20)
(0.700694 0.245084 -2.95586e-20)
(0.738341 0.218122 1.13248e-20)
(0.0792172 0.205308 -2.9223e-20)
(0.193823 0.383157 1.22777e-20)
(0.303035 0.420004 4.56271e-20)
(0.390603 0.395914 -2.07758e-20)
(0.464366 0.355372 1.75916e-21)
(0.529172 0.315745 5.84817e-20)
(0.586837 0.280536 2.61207e-21)
(0.638546 0.24946 5.03417e-20)
(0.68514 0.221747 2.09915e-20)
(0.724832 0.197401 -3.34238e-20)
(0.0652165 0.18339 4.1189e-20)
(0.168385 0.341141 4.67814e-21)
(0.27552 0.37333 3.05088e-21)
(0.364848 0.351662 4.20493e-20)
(0.441443 0.315642 -5.52682e-21)
(0.509008 0.280536 -3.67962e-20)
(0.569111 0.249363 1.80533e-20)
(0.622903 0.221864 -2.89202e-20)
(0.6712 0.197371 -1.20449e-20)
(0.712754 0.175779 1.21907e-20)
(0.0528189 0.159966 -2.5651e-20)
(0.145989 0.296813 -4.95788e-20)
(0.251363 0.324453 1.15617e-20)
(0.342267 0.305521 -2.2605e-20)
(0.421352 0.274303 -1.35784e-20)
(0.491331 0.243942 3.31089e-20)
(0.553565 0.216991 -8.00631e-21)
(0.609171 0.193224 7.33321e-21)
(0.658954 0.172073 -8.97756e-21)
(0.702164 0.153364 1.78865e-20)
(0.0421691 0.135238 9.43627e-21)
(0.126836 0.250493 3.35586e-20)
(0.230745 0.273681 -4.68073e-20)
(0.323012 0.257752 2.20828e-20)
(0.404219 0.231578 -1.00908e-20)
(0.476246 0.206153 -2.84162e-20)
(0.540288 0.183584 2.32559e-20)
(0.59743 0.163683 4.84293e-21)
(0.648474 0.145979 -7.45057e-22)
(0.69311 0.130268 -2.0794e-20)
(0.0333895 0.109422 3.1309e-21)
(0.111098 0.202518 1.09407e-20)
(0.213822 0.221333 4.25289e-20)
(0.307208 0.20863 -8.1976e-21)
(0.390148 0.187699 -6.46438e-21)
(0.463845 0.167368 2.37003e-21)
(0.529358 0.149314 1.11321e-21)
(0.58775 0.133388 8.69298e-21)
(0.639819 0.11922 -1.14418e-20)
(0.685634 0.106606 -7.2707e-21)
(0.0265794 0.082744 -7.77381e-21)
(0.0989138 0.153235 -1.33067e-20)
(0.200716 0.167741 -3.32462e-20)
(0.294959 0.158438 1.67456e-20)
(0.379224 0.142906 1.36386e-20)
(0.454199 0.127793 5.81377e-22)
(0.520839 0.114357 -2.28129e-20)
(0.580186 0.102492 -1.01541e-20)
(0.633039 0.0919305 8.01426e-21)
(0.679768 0.0824938 8.59597e-21)
(0.0218143 0.0554382 1.36546e-21)
(0.090387 0.103 -2.81809e-21)
(0.191523 0.113243 6.3021e-21)
(0.286341 0.107466 -4.26657e-21)
(0.371513 0.0974443 -3.79381e-21)
(0.447363 0.0876388 -2.56818e-21)
(0.514777 0.0788953 4.70821e-21)
(0.574782 0.0711541 1.79432e-20)
(0.628173 0.0642452 2.59145e-21)
(0.675535 0.0580369 -4.59324e-21)
(0.0191452 0.0277446 1.68577e-21)
(0.0855881 0.052179 -4.63734e-21)
(0.186303 0.0581845 -5.25855e-21)
(0.281406 0.0560073 -3.64733e-21)
(0.367058 0.0515643 3.47186e-21)
(0.443375 0.0471206 1.56599e-21)
(0.511205 0.0431153 -1.55899e-21)
(0.571563 0.0395345 -7.10816e-21)
(0.625241 0.0363076 2.33996e-21)
(0.672938 0.0333663 -2.18681e-21)
(0.0185981 -9.33127e-05 -1.69799e-21)
(0.0845528 0.00114007 4.66915e-21)
(0.185091 0.00291413 5.28901e-21)
(0.280182 0.00436122 -5.05888e-21)
(0.36588 0.00551915 4.45207e-21)
(0.442254 0.00645557 2.22775e-21)
(0.510139 0.00720483 -3.55417e-21)
(0.570547 0.00780037 -4.13251e-21)
(0.624261 0.00827974 6.0997e-22)
(0.671995 0.0086934 -1.71766e-21)
(0.0201739 -0.0278308 1.86068e-21)
(0.0872817 -0.0497467 -5.5617e-21)
(0.187885 -0.0522183 1.2504e-20)
(0.282667 -0.0471736 -1.09673e-20)
(0.36798 -0.0404375 -5.11183e-22)
(0.444 -0.0341389 -7.26704e-21)
(0.511582 -0.0286506 1.18067e-20)
(0.571742 -0.0238928 1.60463e-20)
(0.625277 -0.0197242 2.8721e-21)
(0.672859 -0.0160098 -6.177e-21)
(0.0238482 -0.0552243 -1.61517e-21)
(0.0937404 -0.100113 -1.18411e-20)
(0.194656 -0.106864 -2.74701e-20)
(0.288838 -0.0982992 2.37347e-20)
(0.373337 -0.0860528 4.90122e-21)
(0.448595 -0.0744458 4.32125e-21)
(0.515516 -0.0642646 -2.12984e-20)
(0.575122 -0.0553857 -1.25281e-20)
(0.628207 -0.0475731 -2.77457e-21)
(0.675281 -0.0406697 1.90899e-20)
(0.0295719 -0.0820336 -5.70248e-21)
(0.10386 -0.149593 7.11435e-21)
(0.205341 -0.160678 4.99673e-20)
(0.298642 -0.148721 -4.46351e-21)
(0.381908 -0.131076 -1.27796e-20)
(0.456004 -0.11425 9.18001e-21)
(0.521911 -0.0994496 5.8829e-22)
(0.580664 -0.0865096 3.2345e-21)
(0.63305 -0.0750946 -7.05632e-21)
(0.679331 -0.0650124 -1.86494e-20)
(0.0372713 -0.108024 -3.87193e-21)
(0.117537 -0.197831 2.09723e-20)
(0.219847 -0.213321 -5.04108e-20)
(0.312004 -0.198148 2.18652e-20)
(0.393631 -0.175262 1.99873e-22)
(0.466171 -0.15334 -2.76128e-20)
(0.530719 -0.134024 1.21603e-20)
(0.588328 -0.117108 -1.11088e-21)
(0.639777 -0.10216 4.6157e-21)
(0.685001 -0.0889707 -1.4164e-21)
(0.0468488 -0.132971 -4.43625e-20)
(0.134635 -0.244478 -5.28777e-20)
(0.238051 -0.264463 1.37839e-20)
(0.328822 -0.246299 -2.50273e-20)
(0.408421 -0.21837 -7.11066e-21)
(0.479027 -0.19151 1.05156e-20)
(0.541881 -0.16781 3.91741e-21)
(0.598059 -0.147029 1.45269e-20)
(0.648339 -0.128638 -3.13049e-21)
(0.692255 -0.112444 1.67488e-20)
(0.0581836 -0.156657 4.24479e-20)
(0.154984 -0.289199 2.71953e-20)
(0.2598 -0.313782 -2.06699e-20)
(0.34897 -0.292899 3.46862e-20)
(0.426174 -0.260169 -2.99966e-21)
(0.494481 -0.228562 -3.73315e-20)
(0.555319 -0.200636 6.55451e-21)
(0.60979 -0.176122 -3.94994e-20)
(0.658676 -0.154395 1.511e-21)
(0.701053 -0.135315 1.43296e-20)
(0.0711331 -0.178879 -3.18012e-20)
(0.178382 -0.331674 5.67844e-20)
(0.284913 -0.360972 2.21753e-20)
(0.372299 -0.337685 -2.72829e-20)
(0.446766 -0.300436 1.75569e-22)
(0.51243 -0.264305 6.88953e-20)
(0.570943 -0.232339 3.16577e-21)
(0.623441 -0.204247 3.04891e-20)
(0.670717 -0.179307 3.7075e-20)
(0.711345 -0.157469 -2.07558e-20)
(0.0855339 -0.199449 1.78422e-20)
(0.204597 -0.3716 -8.50462e-21)
(0.313179 -0.40574 -2.01884e-20)
(0.398637 -0.380407 1.5266e-20)
(0.470056 -0.33896 5.81013e-20)
(0.532752 -0.298558 -2.03081e-20)
(0.588651 -0.262762 -3.27903e-21)
(0.638923 -0.231269 -4.41384e-20)
(0.684385 -0.203255 -5.44953e-20)
(0.723076 -0.1788 2.37979e-20)
(0.101203 -0.218195 -2.39453e-20)
(0.233366 -0.408694 -2.10135e-20)
(0.344363 -0.447811 3.46887e-21)