/*--------------------------------*- C++ -*----------------------------------*\
  =========                 |
  \\      /  F ield         | OpenFOAM: The Open Source CFD Toolbox
   \\    /   O peration     | Website:  https://openfoam.org
    \\  /    A nd           | Version:  7
     \\/     M anipulation  |
\*---------------------------------------------------------------------------*/
FoamFile
{
    version     2.0;
    format      ascii;
    class       volVectorField;
    location    "160";
    object      U;
}
// * * * * * * * * * * * * * * * * * * * * * * * * * * * * * * * * * * * * * //

dimensions      [0 1 -1 0 0 0 0];

internalField   nonuniform List<vector> 
2125
(
(0.0186687 0.00443729 1.69871e-21)
(0.0847038 0.00920242 -4.6715e-21)
(0.185263 0.0104243 -5.29209e-21)
(0.0190692 -0.0233997 -1.68641e-21)
(0.085435 -0.0418349 4.63861e-21)
(0.186124 -0.0448452 5.25899e-21)
(0.28123 -0.0417827 -5.03304e-21)
(0.366898 -0.0373286 4.42818e-21)
(0.443233 -0.0330268 2.21612e-21)
(0.511079 -0.0291283 -3.53677e-21)
(0.571452 -0.0256229 -4.10413e-21)
(0.625158 -0.0224585 6.03675e-22)
(0.672893 -0.0195912 -1.70625e-21)
(0.0215938 -0.0511323 1.8499e-21)
(0.0899324 -0.0927094 -5.52628e-21)
(0.190995 -0.0999499 1.23267e-20)
(0.285825 -0.0932779 -1.08217e-20)
(0.371046 -0.0832389 -5.19233e-22)
(0.446946 -0.0735711 -7.20554e-21)
(0.514401 -0.0649315 1.16961e-20)
(0.57444 -0.0572631 1.5889e-20)
(0.627871 -0.0504122 2.82921e-21)
(0.675261 -0.0442708 -6.09295e-21)
(0.0262205 -0.0785167 -1.56835e-21)
(0.0981658 -0.143052 -1.16006e-20)
(0.199847 -0.154541 -2.7022e-20)
(0.294109 -0.144324 2.33853e-20)
(0.378454 -0.12876 4.8001e-21)
(0.45351 -0.113776 4.26126e-21)
(0.520216 -0.100436 -2.09584e-20)
(0.579617 -0.0886385 -1.23795e-20)
(0.632526 -0.0781275 -2.76699e-21)
(0.679283 -0.0687437 1.88043e-20)
(0.0329028 -0.105312 -5.51999e-21)
(0.110071 -0.192497 6.99665e-21)
(0.212623 -0.208272 4.87714e-20)
(0.306034 -0.194626 -4.40297e-21)
(0.389082 -0.173642 -1.25413e-20)
(0.462892 -0.153425 8.96721e-21)
(0.528494 -0.135456 6.76029e-22)
(0.586958 -0.119588 3.14824e-21)
(0.639099 -0.105464 -6.92072e-21)
(0.684947 -0.092895 -1.82542e-20)
(0.0415691 -0.131284 -3.70595e-21)
(0.125548 -0.240687 2.02007e-20)
(0.229233 -0.260804 -4.8928e-20)
(0.321526 -0.243892 2.1133e-20)
(0.402869 -0.217637 2.11373e-22)
(0.475037 -0.192307 -2.68122e-20)
(0.53919 -0.169809 1.18767e-20)
(0.596422 -0.149953 -1.12538e-21)
(0.647552 -0.132282 4.49969e-21)
(0.692227 -0.116607 -1.29238e-21)
(0.0521244 -0.156204 -4.23306e-20)
(0.144465 -0.287272 -5.06966e-20)
(0.249559 -0.311805 1.33613e-20)
(0.340487 -0.291839 -2.42178e-20)
(0.419732 -0.260505 -6.78262e-21)
(0.489877 -0.230215 1.02325e-20)
(0.552243 -0.203317 3.77596e-21)
(0.607953 -0.17958 1.39391e-20)
(0.657837 -0.158447 -2.9975e-21)
(0.701091 -0.139764 1.62361e-20)
(0.0644499 -0.179855 4.04556e-20)
(0.166657 -0.331916 2.60364e-20)
(0.273451 -0.360952 -1.95651e-20)
(0.362795 -0.338192 3.29483e-20)
(0.439569 -0.302013 -2.72778e-21)
(0.507323 -0.266949 -3.56317e-20)
(0.567577 -0.235807 6.23415e-21)
(0.621486 -0.208319 -3.78817e-20)
(0.669896 -0.183827 1.52375e-21)
(0.711498 -0.162249 1.36811e-20)
(0.0784051 -0.202034 -2.96486e-20)
(0.191924 -0.374295 5.32066e-20)
(0.300731 -0.407938 2.08931e-20)
(0.388301 -0.382686 -2.60811e-20)
(0.462258 -0.341935 3.4816e-22)
(0.527274 -0.302317 6.54885e-20)
(0.585104 -0.267114 2.8893e-21)
(0.636942 -0.236027 2.89479e-20)
(0.683659 -0.208296 3.52115e-20)
(0.7234 -0.18395 -1.97116e-20)
(0.0938283 -0.222548 1.66027e-20)
(0.220039 -0.414106 -7.98712e-21)
(0.331194 -0.452467 -1.88576e-20)
(0.416838 -0.425069 1.3935e-20)
(0.48766 -0.38006 5.44412e-20)
(0.549608 -0.336137 -1.92883e-20)
(0.60472 -0.29708 -3.22715e-21)
(0.65423 -0.26257 -4.15614e-20)
(0.699046 -0.231735 -5.12982e-20)
(0.736743 -0.204758 2.2462e-20)
(0.110538 -0.241224 -2.15743e-20)
(0.250744 -0.451062 -1.89194e-20)
(0.364606 -0.494262 3.271e-21)
(0.448213 -0.465102 -7.39971e-20)
(0.515615 -0.416186 -3.14843e-20)
(0.574191 -0.368236 -2.3054e-20)
(0.626311 -0.325557 -3.01933e-20)
(0.67325 -0.287819 1.41593e-20)
(0.71597 -0.254033 1.67644e-20)
(0.751464 -0.224569 2.48551e-20)
(0.128336 -0.257906 4.79268e-21)
(0.283754 -0.484902 2.68702e-20)
(0.400709 -0.533064 1.98357e-20)
(0.482214 -0.502563 3.4049e-20)
(0.545949 -0.450126 2.69039e-20)
(0.600876 -0.398456 -2.55648e-20)
(0.649748 -0.35241 2.39087e-20)
(0.693891 -0.31166 1.65355e-20)
(0.734336 -0.275088 -1.91256e-21)
(0.767497 -0.243283 -7.57597e-21)
(0.147006 -0.272459 4.68627e-20)
(0.318756 -0.515387 -2.33374e-20)
(0.439219 -0.568637 -1.81721e-20)
(0.518609 -0.537248 -1.04911e-20)
(0.578471 -0.481708 1.96927e-20)
(0.629501 -0.426649 1.80868e-20)
(0.674895 -0.377511 -2.52726e-20)
(0.716034 -0.333985 1.93694e-20)
(0.754042 -0.294808 8.52676e-22)
(0.784769 -0.260809 1.78867e-20)
(0.166319 -0.284769 -3.17058e-20)
(0.355415 -0.542306 -1.18549e-20)
(0.479832 -0.600764 -1.92479e-21)
(0.557148 -0.56897 1.92306e-20)
(0.612976 -0.510776 -3.9275e-21)
(0.659893 -0.452683 -1.90676e-20)
(0.701602 -0.400748 5.36352e-21)
(0.739549 -0.3547 5.68728e-21)
(0.774978 -0.313116 1.37404e-20)
(0.803208 -0.277065 -2.74807e-20)
(0.186034 -0.294744 -1.09656e-20)
(0.393374 -0.565475 2.74285e-20)
(0.52222 -0.629255 2.18463e-20)
(0.597563 -0.597563 -1.02452e-20)
(0.649245 -0.537191 -2.36403e-20)
(0.691868 -0.476442 -1.72055e-20)
(0.729711 -0.42202 2.03599e-20)
(0.764298 -0.373723 -4.11217e-20)
(0.797029 -0.329945 1.02845e-20)
(0.822739 -0.291981 2.8714e-20)
(0.205899 -0.30232 2.39757e-20)
(0.432254 -0.584742 -1.45388e-20)
(0.566036 -0.653945 2.5589e-21)
(0.639572 -0.622884 4.12868e-22)
(0.687049 -0.560835 -5.1471e-21)
(0.725235 -0.497825 2.89811e-20)
(0.759058 -0.441242 -2.58727e-20)
(0.790133 -0.390986 2.51274e-20)
(0.820073 -0.345251 -3.81197e-20)
(0.843291 -0.305509 -1.44199e-20)
(0.225657 -0.307456 3.9494e-22)
(0.471664 -0.599989 -1.36263e-20)
(0.610917 -0.674696 -1.11106e-22)
(0.682877 -0.644809 -4.87799e-21)
(0.726147 -0.581606 -2.66555e-21)
(0.759792 -0.516748 -1.15404e-22)
(0.789469 -0.458338 -1.58169e-20)
(0.816892 -0.406421 -1.12386e-21)
(0.843968 -0.358988 2.28705e-20)
(0.864803 -0.31761 -2.85908e-20)
(0.245046 -0.31014 4.75307e-21)
(0.511193 -0.61113 6.89042e-21)
(0.656483 -0.691398 -1.05723e-20)
(0.727168 -0.66324 -3.72413e-21)
(0.766288 -0.599424 3.95226e-20)
(0.795335 -0.533143 -3.32758e-20)
(0.820774 -0.473254 3.49631e-20)
(0.844408 -0.419999 9.64519e-22)
(0.868551 -0.37119 6.79155e-21)
(0.887241 -0.328363 2.6247e-20)
(0.263802 -0.310384 3.57255e-21)
(0.550425 -0.618116 -4.30189e-21)
(0.70234 -0.70397 2.75756e-21)
(0.772124 -0.6781 2.96185e-21)
(0.807216 -0.614226 -3.58248e-21)
(0.831653 -0.54696 1.37296e-20)
(0.852807 -0.485933 -8.01122e-21)
(0.872514 -0.431621 8.80564e-21)
(0.893596 -0.381678 -3.18632e-21)
(0.910591 -0.337608 -1.84838e-21)
(0.281662 -0.308234 -9.42041e-21)
(0.588932 -0.620933 -5.41831e-21)
(0.748085 -0.712363 2.96567e-21)
(0.817416 -0.689341 2.49712e-21)
(0.848666 -0.625974 -8.32387e-21)
(0.868522 -0.558172 2.03244e-20)
(0.885392 -0.49637 -1.94557e-20)
(0.901036 -0.441372 1.43669e-20)
(0.918708 -0.390909 -1.23686e-20)
(0.934701 -0.346647 -1.61269e-20)
(0.298369 -0.303759 -4.68329e-21)
(0.626284 -0.619608 4.67615e-21)
(0.793302 -0.716557 -3.56612e-21)
(0.862708 -0.696937 2.06934e-22)
(0.890373 -0.634648 -4.49322e-22)
(0.905722 -0.566758 -1.2296e-20)
(0.918384 -0.504504 4.83083e-21)
(0.929985 -0.448976 -4.37369e-21)
(0.943708 -0.397743 1.25403e-20)
(0.960096 -0.351923 -3.00533e-21)
(0.313671 -0.297061 -1.10536e-20)
(0.662049 -0.614202 -9.38473e-21)
(0.837571 -0.716563 3.91929e-21)
(0.907656 -0.700889 9.62142e-22)
(0.93207 -0.640249 -3.53744e-21)
(0.943023 -0.572733 9.64112e-22)
(0.951569 -0.510387 2.27089e-21)
(0.959337 -0.454749 -7.9723e-21)
(0.968093 -0.404602 -8.54004e-21)
(0.982576 -0.362816 6.50147e-21)
(0.327337 -0.288271 -8.72133e-21)
(0.695793 -0.604815 2.00341e-20)
(0.880464 -0.712425 -1.55513e-20)
(0.951913 -0.701227 -3.57739e-21)
(0.973492 -0.642799 -6.5595e-21)
(0.980203 -0.576119 5.36535e-21)
(0.984673 -0.51405 -1.28096e-21)
(0.988858 -0.458598 1.82042e-21)
(0.993102 -0.409391 -5.58445e-22)
(1.00244 -0.367574 9.93119e-22)
(0.339178 -0.277559 -2.33507e-20)
(0.727071 -0.591571 -4.64583e-20)
(0.921558 -0.704229 3.82291e-20)
(0.995132 -0.698008 2.91928e-21)
(1.01438 -0.642335 -1.23911e-22)
(1.01706 -0.576937 6.58631e-21)
(1.0175 -0.515481 4.57789e-21)
(1.01825 -0.460368 5.68145e-22)
(1.01879 -0.411844 3.73335e-21)
(1.02297 -0.370097 3.60357e-21)
(0.348996 -0.265049 2.26458e-20)
(0.755444 -0.574616 -9.66179e-21)
(0.960444 -0.692129 -2.80309e-20)
(1.03697 -0.691308 2.82844e-21)
(1.05446 -0.638911 2.09825e-21)
(1.05342 -0.575232 -2.06907e-20)
(1.04991 -0.514717 1.03166e-20)
(1.04731 -0.460154 -9.82733e-22)
(1.04477 -0.412366 6.03192e-22)
(1.04496 -0.3712 -7.76352e-22)
(0.35656 -0.250876 2.79919e-20)
(0.780382 -0.55411 7.01135e-20)
(0.996775 -0.676339 -1.8654e-21)
(1.07709 -0.681218 -5.52601e-21)
(1.09347 -0.632609 -2.62712e-21)
(1.08909 -0.571078 -3.25844e-21)
(1.08182 -0.511838 -1.28205e-20)
(1.07593 -0.458095 4.3465e-21)
(1.07062 -0.41118 1.08585e-20)
(1.06757 -0.370866 1.69036e-21)
(0.361773 -0.235262 -2.08215e-20)
(0.801505 -0.530462 -1.21183e-20)
(1.03015 -0.657122 5.25908e-20)
(1.11517 -0.66778 9.33023e-22)
(1.13117 -0.623525 -1.97617e-20)
(1.12387 -0.564568 3.32947e-20)
(1.11307 -0.506934 7.07139e-21)
(1.10402 -0.454286 2.05293e-21)
(1.09607 -0.408355 -5.49377e-21)
(1.09007 -0.36904 -6.50789e-21)
(0.364588 -0.218516 4.94062e-20)
(0.818658 -0.504127 -1.10713e-20)
(1.05983 -0.634504 -3.46391e-20)
(1.15092 -0.651144 3.11878e-21)
(1.16729 -0.611796 2.48346e-20)
(1.15758 -0.555808 -9.12034e-21)
(1.14354 -0.500095 -1.02838e-20)
(1.13145 -0.448798 -4.90062e-22)
(1.12098 -0.403959 -5.96539e-21)
(1.1122 -0.365766 3.54536e-21)
(0.364921 -0.200938 -1.75703e-20)
(0.831656 -0.47532 -1.09126e-19)
(1.08534 -0.608673 9.5631e-21)
(1.18393 -0.631612 3.94583e-20)
(1.20158 -0.597501 -1.27196e-21)
(1.19003 -0.544904 -4.94032e-20)
(1.17307 -0.491419 2.76817e-20)
(1.15813 -0.441714 -9.30194e-21)
(1.14526 -0.398085 1.22311e-20)
(1.13388 -0.361144 3.30432e-21)
(0.362703 -0.182791 -2.14009e-20)
(0.840185 -0.444315 3.81961e-20)
(1.10653 -0.580026 4.88401e-20)
(1.21367 -0.609319 -2.92075e-20)
(1.23379 -0.580792 7.51148e-21)
(1.22103 -0.531997 2.96181e-20)
(1.20152 -0.481016 1.16466e-20)
(1.18393 -0.433128 4.96648e-21)
(1.16882 -0.390834 -1.02745e-20)
(1.15502 -0.355273 -9.79104e-21)
(0.357917 -0.164332 -2.89853e-20)
(0.843951 -0.411494 -1.06444e-20)
(1.12319 -0.548846 -9.09927e-20)
(1.23979 -0.584472 -1.23889e-20)
(1.26363 -0.561887 1.49971e-21)
(1.25041 -0.517203 4.50491e-21)
(1.22877 -0.469004 -5.21505e-20)
(1.20876 -0.423143 -2.37741e-20)
(1.19156 -0.382301 5.53973e-22)
(1.17554 -0.348226 7.64843e-21)
(0.350603 -0.145825 -7.92468e-21)
(0.84273 -0.377277 3.44648e-20)
(1.13495 -0.515441 4.58634e-20)
(1.2621 -0.557333 2.61911e-20)
(1.29081 -0.54094 -5.71789e-21)
(1.278 -0.500679 -5.27262e-21)
(1.25469 -0.455511 4.06991e-20)
(1.23252 -0.41187 3.99306e-20)
(1.21341 -0.372581 5.3813e-21)
(1.19533 -0.340068 -5.57335e-21)
(0.340849 -0.127526 7.55698e-20)
(0.836376 -0.342098 4.72925e-20)
(1.14146 -0.480158 -4.55749e-20)
(1.28027 -0.528136 -8.11848e-21)
(1.31508 -0.518133 4.1335e-21)
(1.30363 -0.482587 -1.3066e-20)
(1.27918 -0.440672 -2.34092e-20)
(1.25513 -0.399422 -1.86187e-21)
(1.23431 -0.36177 -2.42678e-20)
(1.21436 -0.330872 1.09178e-20)
(0.328785 -0.109688 9.57371e-21)
(0.82482 -0.306406 -2.58819e-20)
(1.14241 -0.443368 5.97726e-20)
(1.29396 -0.497134 3.49009e-20)
(1.33622 -0.493663 1.63038e-21)
(1.32713 -0.463086 1.91678e-20)
(1.30217 -0.424615 2.01461e-21)
(1.27652 -0.385918 -1.72049e-20)
(1.25421 -0.349972 1.33333e-20)
(1.23258 -0.320721 1.20342e-21)
(0.314587 -0.0925477 -6.29831e-20)
(0.808064 -0.270661 -1.8479e-20)
(1.13755 -0.405467 -1.5776e-20)
(1.30283 -0.464601 -2.4588e-20)
(1.35395 -0.467722 6.30252e-21)
(1.34833 -0.442337 -1.08003e-22)
(1.32356 -0.407483 1.4304e-20)
(1.29668 -0.371478 -3.50719e-21)
(1.27296 -0.337272 -1.50953e-20)
(1.25008 -0.309735 -1.25097e-20)
(0.298468 -0.0763267 5.091e-21)
(0.78619 -0.235331 2.96913e-20)
(1.12669 -0.366868 1.38553e-20)
(1.30657 -0.430825 -3.96344e-20)
(1.36799 -0.440505 -8.51975e-22)
(1.36706 -0.420492 -1.4915e-20)
(1.34321 -0.389409 2.84314e-22)
(1.31555 -0.356166 5.31804e-21)
(1.29057 -0.32383 -6.08172e-21)
(1.26695 -0.298049 1.74512e-20)
(0.280682 -0.0612204 1.18311e-20)
(0.759369 -0.200881 -2.89445e-20)
(1.10968 -0.327999 -6.57861e-20)
(1.30486 -0.396106 5.7317e-20)
(1.37807 -0.412212 -3.74168e-21)
(1.38312 -0.3977 1.06617e-20)
(1.36105 -0.370528 -1.41923e-21)
(1.33309 -0.34013 9.27498e-21)
(1.30712 -0.309876 -7.36869e-22)
(1.28294 -0.285661 -1.36245e-20)
(0.261514 -0.047395 -2.37978e-20)
(0.72786 -0.167767 3.72668e-20)
(1.08643 -0.289298 2.99586e-20)
(1.29742 -0.360753 -4.09644e-20)
(1.38387 -0.383044 -6.54019e-21)
(1.39632 -0.374109 2.23564e-21)
(1.37698 -0.350973 2.30278e-20)
(1.34924 -0.323496 8.55302e-22)
(1.32256 -0.295406 4.31492e-21)
(1.29769 -0.272644 -8.72989e-21)
(0.241274 -0.0349823 1.80288e-20)
(0.692025 -0.136421 -1.61688e-20)
(1.05695 -0.251209 -1.33996e-20)
(1.28395 -0.325083 2.21911e-20)
(1.38507 -0.353208 7.26073e-21)
(1.40644 -0.349861 5.41188e-21)
(1.39088 -0.330861 -2.41426e-20)
(1.36397 -0.306356 -8.43962e-21)
(1.33684 -0.280431 -7.15628e-21)
(1.31131 -0.259092 2.85533e-21)
(0.220289 -0.0240781 -8.71614e-21)
(0.652327 -0.107242 -1.89284e-22)
(1.02129 -0.214177 2.52751e-20)
(1.26421 -0.289426 -9.03948e-21)
(1.38133 -0.32291 -3.98737e-21)
(1.41321 -0.325091 -2.55677e-21)
(1.40263 -0.3103 6.12463e-21)
(1.37723 -0.288803 1.02684e-20)
(1.35001 -0.265028 -5.06013e-22)
(1.32399 -0.245079 3.80304e-21)
(0.198896 -0.0147392 6.10331e-21)
(0.609323 -0.0805801 -1.70713e-21)
(0.979648 -0.178638 -4.50715e-21)
(1.23797 -0.254119 -4.02658e-21)
(1.37227 -0.292363 3.5659e-21)
(1.41633 -0.29993 2.77481e-21)
(1.41206 -0.28939 -2.53032e-21)
(1.38896 -0.270932 8.96587e-22)
(1.36208 -0.249301 1.28146e-21)
(1.33582 -0.230682 -1.70178e-21)
(0.177429 -0.00698221 3.14392e-21)
(0.563657 -0.0567263 9.12965e-22)
(0.932323 -0.145018 -5.49941e-21)
(1.20507 -0.219507 -4.45677e-21)
(1.35752 -0.261783 4.71358e-21)
(1.41546 -0.274505 9.53377e-22)
(1.41896 -0.26822 -2.25362e-21)
(1.39911 -0.252832 2.11868e-21)
(1.37304 -0.233347 1.21926e-21)
(1.34682 -0.215972 -1.43754e-21)
(0.156214 -0.000784392 -1.26174e-21)
(0.516043 -0.0359032 2.53371e-21)
(0.87975 -0.113721 1.68257e-20)
(1.16541 -0.185942 -7.77882e-21)
(1.33668 -0.231394 -3.83061e-21)
(1.41018 -0.248938 -4.48872e-21)
(1.42308 -0.246872 9.43032e-21)
(1.40756 -0.234575 6.80212e-21)
(1.38289 -0.217249 5.43664e-21)
(1.35699 -0.201018 2.96402e-21)
(0.135556 0.00391445 2.45269e-20)
(0.467251 -0.0182542 -1.36388e-20)
(0.822513 -0.0851218 -1.6053e-20)
(1.11899 -0.153783 2.24605e-20)
(1.30936 -0.20143 1.24868e-20)
(1.40004 -0.223354 -8.99598e-22)
(1.42409 -0.225417 -1.68106e-20)
(1.41416 -0.216219 -1.18989e-20)
(1.39158 -0.201074 -1.33863e-20)
(1.36631 -0.185884 8.54326e-21)
(0.115732 0.00720801 -3.30152e-20)
(0.41808 -0.00383731 3.12591e-20)
(0.761352 -0.0595514 3.71448e-20)
(1.06594 -0.123389 -3.86413e-20)
(1.27519 -0.172137 -1.39436e-20)
(1.38453 -0.197882 9.8194e-21)
(1.42158 -0.203917 1.80568e-20)
(1.41868 -0.197807 3.28746e-21)
(1.39903 -0.184872 -9.59049e-22)
(1.3748 -0.170622 -1.25049e-20)
(0.0969824 0.00921824 -4.57845e-21)
(0.369326 0.00737912 -4.37336e-20)
(0.697155 -0.0372865 -4.86291e-20)
(1.00654 -0.0951176 5.85975e-20)
(1.23384 -0.14378 -7.02325e-21)
(1.36305 -0.17266 1.49046e-20)
(1.41505 -0.182432 3.3052e-21)
(1.42084 -0.17937 -8.3288e-21)
(1.40513 -0.168679 4.66133e-21)
(1.38241 -0.155277 -1.97033e-21)
(0.0795076 0.0100891 9.43949e-21)
(0.321757 0.0155151 2.69486e-20)
(0.630953 -0.0185317 1.59553e-20)
(0.94128 -0.0693213 -1.27257e-20)
(1.18506 -0.116643 -2.28391e-20)
(1.33502 -0.147843 -2.28681e-20)
(1.4039 -0.161024 -5.11678e-21)
(1.42022 -0.160927 1.60839e-20)
(1.40971 -0.152515 -3.50646e-21)
(1.38912 -0.139875 7.50655e-21)
(0.063461 0.00997981 -3.56298e-20)
(0.276074 0.0207731 -3.40182e-20)
(0.563879 -0.00340354 -6.05831e-21)
(0.87086 -0.0463357 -6.82968e-21)
(1.12876 -0.0910326 -1.83685e-20)
(1.2998 -0.123614 1.23513e-20)
(1.38742 -0.139766 -1.74991e-21)
(1.41632 -0.142494 -1.36029e-20)
(1.4125 -0.136385 1.27514e-20)
(1.39483 -0.124434 -2.377e-20)
(0.0489494 0.00905814 8.13928e-21)
(0.232889 0.0234265 2.93378e-20)
(0.497125 0.00808514 2.78564e-20)
(0.796251 -0.0264679 3.26941e-20)
(1.06501 -0.067279 -6.98004e-22)
(1.2568 -0.100186 3.7662e-20)
(1.36482 -0.118748 4.49643e-21)
(1.40849 -0.124087 -5.49155e-20)
(1.41313 -0.120287 4.25779e-20)
(1.39938 -0.10895 1.51106e-20)
(0.0360333 0.00749418 2.31092e-20)
(0.192699 0.0238031 5.33942e-20)
(0.431874 0.016035 -7.23857e-21)
(0.718677 -0.00997804 -4.21023e-20)
(0.99419 -0.0457339 2.06507e-20)
(1.20551 -0.0778173 -2.46037e-20)
(1.33522 -0.0980946 -4.08286e-20)
(1.39592 -0.105732 -8.35875e-21)
(1.41107 -0.104206 -4.0986e-20)
(0.0247295 0.00545462 1.17043e-20)
(0.155879 0.0222655 1.0145e-20)
(0.369234 0.0206609 7.67725e-20)
(0.639589 0.0029444 1.7506e-20)
(0.916982 -0.0267634 -1.7525e-20)
(1.14562 -0.0568139 -9.30294e-21)
(1.29773 -0.0779744 7.04853e-20)
(1.37766 -0.0874739 6.47983e-20)
(0.015016 0.00309742 3.00581e-21)
(0.122671 0.0191883 -5.64255e-20)
(0.31017 0.0222777 -9.22913e-20)
(0.560598 0.0122068 5.5647e-21)
(0.834491 -0.010735 2.68025e-20)
(1.07706 -0.0375358 -3.98268e-20)
(1.25146 -0.0586148 -1.15401e-19)
(0.00683642 0.000566559 -2.1376e-20)
(0.0931932 0.0149365 5.76515e-20)
(0.255459 0.0212712 5.80497e-20)
(0.483363 0.0178354 -6.57168e-20)
(0.748242 0.00200367 9.356e-21)
(0.000104936 -0.00201353 -5.14962e-20)
(0.0674479 0.00984201 -8.96045e-20)
(0.205659 0.0180553 -1.93687e-20)
(0.409465 0.019982 3.62844e-20)
(-0.0052899 -0.00454413 3.8726e-20)
(0.045337 0.00418426 2.84395e-22)
(0.161115 0.013027 -9.42338e-21)
(-0.00948244 -0.00695885 -1.30366e-20)
(0.0266766 -0.00182752 -2.29344e-20)
(-0.012627 -0.00922892 9.02348e-20)
(0.0112123 -0.00806475 7.12125e-20)
(-0.0148948 -0.0113663 1.77351e-20)
(0.998585 -0.0044963 -1.36627e-22)
(0.998833 -0.0105959 6.18524e-22)
(0.9929 -0.0188608 3.05685e-22)
(0.989815 -0.0246967 1.4375e-22)
(0.980658 -0.034797 2.98276e-22)
(0.975168 -0.0428681 -1.28827e-21)
(0.963251 -0.0579583 -1.75356e-21)
(0.956517 -0.0709379 5.773e-22)
(0.943066 -0.0941815 1.83388e-21)
(0.937508 -0.114119 2.18657e-21)
(0.925118 -0.14866 3.73935e-21)
(0.925308 -0.175605 -9.35806e-22)
(0.918748 -0.224946 -5.3546e-21)
(0.931864 -0.253738 -1.3047e-21)
(0.943172 -0.32846 3.41409e-21)
(0.998634 -0.00435523 -7.83361e-22)
(0.998695 -0.0102461 2.98308e-22)
(0.992794 -0.0182349 -5.0112e-22)
(0.989389 -0.0237672 1.37744e-21)
(0.980171 -0.0334929 -1.23783e-21)
(0.974141 -0.041077 1.46591e-22)
(0.961967 -0.0556076 1.85884e-21)
(0.954274 -0.0678666 -2.95647e-21)
(0.940169 -0.0903752 1.33577e-21)
(0.932886 -0.10946 -4.91728e-21)
(0.919132 -0.143373 5.60577e-21)
(0.916278 -0.169819 -5.83518e-21)
(0.907277 -0.219305 -8.00445e-22)
(0.914478 -0.249047 6.69971e-21)
(0.920609 -0.323374 -1.56814e-21)
(0.998681 -0.00421215 1.04067e-21)
(0.998571 -0.0098758 7.34165e-22)
(0.99271 -0.0175636 8.94461e-22)
(0.989016 -0.0227703 -6.73045e-22)
(0.979757 -0.032084 -7.0382e-22)
(0.973256 -0.0391519 2.63652e-21)
(0.960862 -0.0530582 -1.45288e-21)
(0.952342 -0.0645446 4.08272e-21)
(0.937647 -0.0861768 -2.53292e-21)
(0.928862 -0.104277 -1.24641e-21)
(0.913845 -0.137177 -1.73389e-21)
(0.908246 -0.162823 1.47363e-21)
(0.896962 -0.211421 4.05961e-21)
(0.89924 -0.241963 -1.1288e-20)
(0.900563 -0.313774 1.23371e-20)
(0.998727 -0.00407193 1.5044e-22)
(0.998456 -0.00950984 -1.21578e-21)
(0.992639 -0.0168991 -2.28489e-21)
(0.98868 -0.0218017 4.01154e-22)
(0.979389 -0.030709 -7.91938e-23)
(0.972463 -0.0372974 7.51332e-22)
(0.959873 -0.0505842 2.28296e-21)
(0.950611 -0.061345 -1.54055e-21)
(0.935377 -0.082069 1.99554e-21)
(0.925217 -0.0992167 -4.02494e-21)
(0.909027 -0.130913 2.71888e-21)
(0.900858 -0.155714 1.84395e-21)
(0.887327 -0.202806 4.47061e-21)
(0.885162 -0.233868 -7.70005e-21)
(0.881795 -0.303374 2.83854e-22)
(0.99877 -0.00392566 -1.32383e-21)
(0.998349 -0.00913855 -3.19516e-22)
(0.992576 -0.0162272 -3.18138e-22)
(0.988369 -0.0208319 1.78419e-21)
(0.979054 -0.0293202 3.29312e-23)
(0.971736 -0.0354356 -2.78183e-22)
(0.958971 -0.0480798 -1.61065e-21)
(0.94902 -0.0581216 -1.34636e-22)
(0.933294 -0.0778851 5.11458e-21)
(0.921842 -0.0940837 -5.96837e-21)
(0.904559 -0.124438 1.91448e-21)
(0.893955 -0.148363 2.92382e-21)
(0.878217 -0.193656 9.51791e-22)
(0.871918 -0.22481 -4.38326e-21)
(0.864057 -0.292055 8.62873e-23)
(0.998812 -0.00377503 2.42974e-22)
(0.998248 -0.00875721 2.18063e-22)
(0.992518 -0.0155426 7.59188e-22)
(0.988078 -0.0198517 -9.93508e-22)
(0.978747 -0.027904 2.82227e-22)
(0.971059 -0.0335497 -7.80695e-22)
(0.95814 -0.0455225 4.18052e-22)
(0.947537 -0.0548492 -1.79445e-21)
(0.931366 -0.0735939 3.47089e-21)
(0.918685 -0.0888423 -7.89313e-23)
(0.90038 -0.117722 -6.3043e-21)
(0.887475 -0.14071 4.01161e-22)
(0.869589 -0.183965 6.77236e-21)
(0.859406 -0.214801 1.45411e-22)
(0.847259 -0.279554 -7.8628e-21)
(0.998854 -0.00362069 2.11818e-22)
(0.998153 -0.0083969 -1.26345e-21)
(0.992466 -0.0148476 -9.51171e-22)
(0.987805 -0.0188645 1.13946e-21)
(0.978464 -0.0264647 -8.16861e-22)
(0.970423 -0.0316474 6.64918e-22)
(0.95737 -0.0429219 -3.52757e-22)
(0.946146 -0.0515421 -4.03773e-22)
(0.929571 -0.069212 2.66258e-21)
(0.915721 -0.083509 -5.35025e-21)
(0.896459 -0.110793 4.30256e-21)
(0.881391 -0.132765 6.03255e-21)
(0.861438 -0.173781 -7.49659e-21)
(0.847603 -0.203932 -1.41427e-21)
(0.831383 -0.265894 -6.74063e-21)
(0.998893 -0.00346338 -1.19201e-22)
(0.998063 -0.00805095 7.85723e-22)
(0.992421 -0.0141426 -8.7229e-22)
(0.987546 -0.0178723 2.04085e-21)
(0.978202 -0.0250043 -2.20109e-21)
(0.969823 -0.0297322 -2.25329e-21)
(0.956656 -0.040281 -5.62553e-22)
(0.944837 -0.0482039 2.69129e-22)
(0.927898 -0.0647456 -2.09525e-21)
(0.912944 -0.0780864 2.37832e-21)
(0.892782 -0.10367 2.5573e-21)
(0.875697 -0.124536 -9.16082e-22)
(0.853773 -0.163146 -3.17826e-21)
(0.83651 -0.19229 6.63377e-21)
(0.816441 -0.251145 -6.39351e-21)
(0.99893 -0.00330358 -5.18134e-22)
(0.997979 -0.00769013 4.90282e-21)
(0.992383 -0.0134275 1.13503e-22)
(0.987301 -0.0168762 1.01882e-21)
(0.977961 -0.0235232 -1.83852e-22)
(0.969256 -0.0278049 3.04363e-21)
(0.955994 -0.0376004 4.73201e-22)
(0.943609 -0.0448349 4.64024e-23)
(0.926339 -0.0601985 -3.26331e-21)
(0.910348 -0.0725734 -5.92164e-22)
(0.889343 -0.0963685 2.89298e-21)
(0.870387 -0.116032 -4.1641e-21)
(0.846606 -0.152094 -3.15442e-21)
(0.826139 -0.179943 3.76612e-21)
(0.802458 -0.235377 -3.25067e-21)
(0.998966 -0.00314083 1.29311e-21)
(0.997901 -0.00732586 -2.75562e-21)
(0.99235 -0.0127035 1.4793e-21)
(0.98707 -0.0158771 -2.1079e-21)
(0.97774 -0.0220219 -7.80694e-22)
(0.968723 -0.0258663 4.41808e-22)
(0.955381 -0.0348815 -1.60885e-21)
(0.942461 -0.0414352 2.83617e-21)
(0.924889 -0.0555756 1.54373e-21)
(0.907937 -0.0669701 -8.82923e-22)
(0.886143 -0.0889036 2.72076e-21)
(0.865464 -0.107268 -5.13942e-21)
(0.83995 -0.140653 8.96187e-21)
(0.816509 -0.166954 -6.27664e-21)
(0.789466 -0.218661 -3.20812e-21)
(0.999 -0.00297528 -9.20038e-22)
(0.997827 -0.0069614 1.24829e-22)
(0.992322 -0.0119714 1.34203e-23)
(0.986851 -0.0148757 1.95745e-21)
(0.977538 -0.020501 4.88774e-22)
(0.968222 -0.0239171 -9.03412e-22)
(0.954814 -0.0321261 1.04662e-21)
(0.941393 -0.0380053 -2.06626e-21)
(0.923547 -0.0508825 8.74093e-22)
(0.905711 -0.0612779 5.81819e-22)
(0.883183 -0.0812887 -2.68732e-21)
(0.860931 -0.0982571 2.0355e-21)
(0.833817 -0.128854 5.37874e-21)
(0.807641 -0.153378 -2.63072e-21)
(0.777496 -0.201075 -7.156e-21)
(0.999031 -0.00280717 -1.05044e-21)
(0.99776 -0.00659689 -2.22162e-22)
(0.992297 -0.0112318 -9.57828e-22)
(0.986647 -0.0138729 -2.85227e-21)
(0.977353 -0.0189615 1.3843e-21)
(0.967757 -0.021958 -1.33321e-21)
(0.954292 -0.0293364 1.79489e-21)
(0.94041 -0.0345454 2.68422e-21)
(0.922312 -0.046125 -1.759e-21)
(0.903672 -0.0554988 3.62459e-21)
(0.880469 -0.0735363 -1.94706e-21)
(0.856793 -0.0890169 -3.01338e-21)
(0.828218 -0.116724 -1.92422e-21)
(0.799553 -0.139271 7.85175e-21)
(0.766581 -0.182697 -2.59044e-21)
(0.99906 -0.00263666 1.08986e-21)
(0.997697 -0.00623257 5.28947e-22)
(0.992276 -0.010485 -7.6163e-23)
(0.986457 -0.0128688 1.14574e-21)
(0.977185 -0.0174042 -1.83746e-21)
(0.967327 -0.0199892 -4.57789e-22)
(0.953815 -0.0265147 -4.15982e-23)
(0.939511 -0.0310558 -9.06191e-22)
(0.921185 -0.0413087 -2.68806e-21)
(0.901824 -0.0496362 -1.3901e-21)
(0.878005 -0.0656583 5.1725e-21)
(0.853054 -0.0795654 -8.03003e-22)
(0.823166 -0.104291 -8.44952e-22)
(0.792265 -0.124684 -7.07719e-22)
(0.75675 -0.163609 -3.38141e-21)
(0.999087 -0.00246389 6.61371e-22)
(0.997641 -0.00586881 -1.22298e-21)
(0.992258 -0.00973115 5.21251e-22)
(0.986283 -0.0118634 -1.40966e-21)
(0.977032 -0.01583 -9.04927e-23)
(0.966935 -0.0180108 7.7204e-23)
(0.953382 -0.0236634 1.14045e-22)
(0.9387 -0.0275372 1.71211e-22)
(0.920167 -0.0364391 -1.25509e-21)
(0.900169 -0.0436948 1.62432e-21)
(0.875798 -0.0576664 -2.67338e-21)
(0.849721 -0.0699217 5.89698e-22)
(0.818669 -0.0915856 1.83451e-21)
(0.785794 -0.109669 -1.24246e-22)
(0.74803 -0.143893 2.29096e-21)
(0.999109 -0.00228905 -6.45095e-22)
(0.997591 -0.00550446 1.48482e-21)
(0.99224 -0.00897 -9.33855e-22)
(0.986126 -0.0108563 1.14846e-21)
(0.976893 -0.0142399 6.36796e-22)
(0.966582 -0.0160229 -3.99874e-22)
(0.952992 -0.0207851 -7.22297e-23)
(0.937978 -0.0239905 -4.69162e-22)
(0.91926 -0.0315219 1.64705e-22)
(0.898709 -0.0376802 -1.40632e-21)
(0.873852 -0.0495725 6.5892e-22)
(0.846799 -0.0601056 -4.60854e-21)
(0.814738 -0.0786382 6.52542e-21)
(0.780153 -0.0942788 -1.97458e-21)
(0.740442 -0.123632 -4.30752e-21)
(0.999128 -0.00211262 -3.01777e-22)
(0.997548 -0.00513361 -4.5884e-22)
(0.992222 -0.00820091 3.19347e-22)
(0.985985 -0.00984663 7.89846e-23)
(0.976768 -0.0126348 8.81074e-22)
(0.966268 -0.0140253 -3.16805e-22)
(0.952645 -0.0178822 1.76836e-22)
(0.937346 -0.0204172 -7.42514e-23)
(0.918468 -0.0265622 5.16904e-22)
(0.897447 -0.0315991 9.91812e-22)
(0.872174 -0.0413886 1.455e-21)
(0.844295 -0.0501382 -2.4158e-21)
(0.811381 -0.0654803 1.07725e-21)
(0.775354 -0.0785644 -1.41462e-21)
(0.734004 -0.102909 -4.0641e-21)
(0.999143 -0.00193453 1.07016e-21)
(0.997513 -0.00477295 -1.2536e-22)
(0.992203 -0.00742442 5.0117e-22)
(0.985863 -0.00883365 4.30923e-22)
(0.976655 -0.0110155 -1.37504e-21)
(0.965995 -0.0120177 5.34781e-23)
(0.952342 -0.0149573 2.17157e-22)
(0.936805 -0.0168191 1.33925e-22)
(0.917791 -0.0215655 -5.14538e-22)
(0.896383 -0.0254592 4.69468e-22)
(0.870767 -0.0331272 2.2306e-21)
(0.842213 -0.0400414 -8.92746e-22)
(0.808604 -0.0521449 2.08421e-21)
(0.771405 -0.0625791 -4.61468e-21)
(0.728732 -0.0818064 5.86978e-21)
(0.999152 -0.00175502 -7.65424e-22)
(0.997485 -0.00442206 1.43867e-23)
(0.992183 -0.00664079 -4.46914e-22)
(0.985759 -0.00781622 -2.24908e-22)
(0.976554 -0.00938294 4.91332e-22)
(0.965762 -0.00999981 -2.53774e-23)
(0.952083 -0.0120128 -8.97205e-22)
(0.936356 -0.0131981 5.2029e-22)
(0.917231 -0.0165368 -2.35693e-22)
(0.895521 -0.0192695 2.10304e-22)
(0.869636 -0.0248017 7.73214e-22)
(0.840557 -0.0298384 2.39039e-22)
(0.806416 -0.0386663 -1.36201e-21)
(0.768314 -0.0463773 1.74649e-22)
(0.724636 -0.060407 -1.32752e-21)
(0.999156 -0.00157471 3.73398e-22)
(0.997467 -0.00406323 -2.59271e-23)
(0.992162 -0.00584988 6.54081e-23)
(0.985674 -0.00679276 3.66229e-22)
(0.976464 -0.00773612 -6.68595e-23)
(0.965572 -0.00796883 -3.61917e-22)
(0.951867 -0.00904769 -2.31288e-22)
(0.935999 -0.00955267 2.79795e-22)
(0.916791 -0.0114752 -2.53715e-22)
(0.89486 -0.0130349 3.11462e-22)
(0.868783 -0.0164224 -8.04097e-22)
(0.839331 -0.01955 4.57953e-22)
(0.804819 -0.0250762 -1.03125e-21)
(0.766084 -0.0300102 4.16517e-22)
(0.721723 -0.0387881 1.79643e-22)
(0.999155 -0.00139392 -6.66857e-23)
(0.997457 -0.00370206 6.55181e-23)
(0.992138 -0.00505272 -8.48665e-23)
(0.985608 -0.00576178 -1.21479e-22)
(0.976386 -0.00607287 1.14573e-22)
(0.965423 -0.00591824 1.8357e-22)
(0.951695 -0.00605305 1.28456e-22)
(0.935735 -0.00588099 -7.86445e-23)
(0.916471 -0.00638789 3.1403e-22)
(0.894401 -0.00675863 5.80378e-23)
(0.868212 -0.00799479 1.50606e-22)
(0.838537 -0.0091906 2.12762e-22)
(0.803819 -0.0113992 -2.54962e-24)
(0.764718 -0.0135189 -1.57247e-22)
(0.719997 -0.0170132 -2.64032e-23)
(1.00004 -0.000289504 0)
(1.00215 -0.000764825 0)
(1.00568 -0.0012388 0)
(1.01012 -0.00160145 0)
(1.01515 -0.00197265 0)
(1.02048 -0.00223794 0)
(1.02593 -0.0025075 0)
(1.03133 -0.00267209 0)
(1.03656 -0.00284542 0)
(1.04153 -0.00291813 0)
(1.04617 -0.003014 0)
(1.05045 -0.00301083 0)
(1.05436 -0.00305489 0)
(1.05789 -0.00299136 0)
(1.06108 -0.00301232 0)
(1.00004 -0.000854888 0)
(1.00214 -0.00225708 0)
(1.00567 -0.00365807 0)
(1.0101 -0.00473005 0)
(1.01514 -0.00583069 0)
(1.02049 -0.00661886 0)
(1.02598 -0.0074236 0)
(1.03143 -0.00791793 0)
(1.03673 -0.00844052 0)
(1.04176 -0.00866331 0)
(1.0465 -0.00895526 0)
(1.05085 -0.00895106 0)
(1.05485 -0.00908678 0)
(1.05845 -0.00890121 0)
(1.06173 -0.00896609 0)
(1.00005 -0.00139467 0)
(1.00213 -0.00366907 0)
(1.00565 -0.00596009 0)
(1.01006 -0.00770872 0)
(1.01511 -0.00952317 0)
(1.02049 -0.0108223 0)
(1.02606 -0.0121658 0)
(1.03159 -0.0129943 0)
(1.03703 -0.0138818 0)
(1.04219 -0.0142652 0)
(1.04708 -0.0147717 0)
(1.05156 -0.0147751 0)
(1.05574 -0.0150195 0)
(1.05947 -0.014715 0)
(1.06294 -0.0148396 0)
(1.00006 -0.00191066 0)
(1.00211 -0.00499284 0)
(1.00562 -0.00814366 0)
(1.00998 -0.0105371 0)
(1.01505 -0.0130638 0)
(1.02045 -0.0148694 0)
(1.02613 -0.0167713 0)
(1.03178 -0.0179475 0)
(1.03739 -0.0192309 0)
(1.04272 -0.0197934 0)
(1.04785 -0.0205462 0)
(1.05253 -0.0205706 0)
(1.05695 -0.0209509 0)
(1.06087 -0.0205307 0)
(1.0646 -0.0207377 0)
(1.00008 -0.00240366 0)
(1.00208 -0.00622313 0)
(1.00556 -0.010208 0)
(1.00986 -0.0132147 0)
(1.01494 -0.0164595 0)
(1.02036 -0.0187705 0)
(1.02615 -0.0212614 0)
(1.03193 -0.0228062 0)
(1.03777 -0.0245302 0)
(1.04331 -0.0252982 0)
(1.04872 -0.0263422 0)
(1.05366 -0.0264062 0)
(1.0584 -0.0269605 0)