/*--------------------------------*- C++ -*----------------------------------*\
  =========                 |
  \\      /  F ield         | OpenFOAM: The Open Source CFD Toolbox
   \\    /   O peration     | Website:  https://openfoam.org
    \\  /    A nd           | Version:  7
     \\/     M anipulation  |
\*---------------------------------------------------------------------------*/
FoamFile
{
    version     2.0;
    format      ascii;
    class       surfaceScalarField;
    location    "300";
    object      phi;
}
// * * * * * * * * * * * * * * * * * * * * * * * * * * * * * * * * * * * * * //

dimensions      [0 3 -1 0 0 0 0];

internalField   nonuniform List<scalar> 
16735
(
-0.000140908
-5.35766e-05
0.000194485
-0.000481995
-0.000923612
0.0012647
-0.000989431
-0.002313
0.00282044
-0.00163756
-0.00397798
0.00462611
-0.00240029
-0.00579805
0.00656078
-0.00324826
-0.00779832
0.00864629
-0.00415267
-0.0100966
0.011001
-0.00509319
-0.0128198
0.0137603
-0.00606131
-0.0160506
0.0170187
-0.0198304
0.0208291
-0.00706002
-0.000159002
0.000105425
-0.000542888
-0.000539726
-0.00111163
-0.00174427
-0.00183462
-0.00325499
-0.00268364
-0.00494904
-0.00363084
-0.00685112
-0.00465243
-0.00907499
-0.00573614
-0.0117361
-0.00688551
-0.0149012
-0.0185904
-0.00812551
-0.000172368
0.000277793
-0.000588547
-0.000123547
-0.00120343
-0.00112939
-0.00198182
-0.0024766
-0.00289305
-0.00403781
-0.00390962
-0.00583455
-0.00500998
-0.00797462
-0.00618551
-0.0105606
-0.00744681
-0.0136399
-0.0172038
-0.00883333
-0.000180006
0.000457799
-0.000616064
0.000312511
-0.00125967
-0.000485778
-0.00207164
-0.00166463
-0.00301854
-0.0030909
-0.00407174
-0.00478135
-0.00520878
-0.00683759
-0.00641948
-0.00934986
-0.00771509
-0.0123443
-0.0157797
-0.00913924
-0.000181208
0.000639007
-0.000623364
0.000754668
-0.00127665
0.000167507
-0.00209865
-0.000842631
-0.00305285
-0.0021367
-0.00410794
-0.00372627
-0.00523725
-0.00570828
-0.00642342
-0.0081637
-0.00767106
-0.0110967
-0.0144368
-0.00901394
-0.000175617
0.000814624
-0.000609322
0.00118837
-0.00125227
0.00081046
-0.00205965
-3.52593e-05
-0.00299157
-0.00120477
-0.00401259
-0.00270525
-0.00508882
-0.00463204
-0.00619008
-0.00706244
-0.00730695
-0.00997978
-0.013299
-0.0084448
-0.000163277
0.000977901
-0.000573895
0.00159899
-0.0011862
0.00142277
-0.00195387
0.000732413
-0.00283333
-0.000325315
-0.00378376
-0.00175482
-0.00476173
-0.00365408
-0.00571913
-0.00610504
-0.00662618
-0.00907273
-0.0124879
-0.00743726
-0.000144648
0.00112255
-0.000518156
0.0019725
-0.00108
0.00198461
-0.00178312
0.00143554
-0.00257991
0.000471474
-0.00342325
-0.000911487
-0.00425867
-0.00281865
-0.00501636
-0.00534735
-0.00564157
-0.00844752
-0.0121138
-0.00601566
-0.000120607
0.00124316
-0.000444327
0.00229622
-0.000937193
0.00247748
-0.0015519
0.00205024
-0.00223659
0.00115616
-0.00293671
-0.000211361
-0.0035866
-0.00216876
-0.00409275
-0.00484121
-0.00437275
-0.00816752
-0.0122642
-0.00422238
-9.24117e-05
0.00133557
-0.000355727
0.00255954
-0.000763238
0.00288499
-0.00126762
0.00255463
-0.00181214
0.00170068
-0.00233407
0.000310561
-0.00275671
-0.00174611
-0.00296282
-0.0046351
-0.0028414
-0.00828894
-0.0129865
-0.00211904
-6.16339e-05
0.0013972
-0.000256631
0.00275453
-0.000565389
0.00319375
-0.000940403
0.00292964
-0.00131923
0.00207951
-0.00163001
0.00062134
-0.0017856
-0.00159051
-0.00164564
-0.00477507
-0.00104119
-0.00889338
-0.014164
0.000136266
-3.00466e-05
0.00142725
-0.000152017
0.0028765
-0.000352354
0.00339408
-0.000582794
0.00316008
-0.000774291
0.002271
-0.000843623
0.000690671
-0.00069477
-0.00173937
-0.000197294
-0.00527254
0.000985985
-0.0100767
-0.0160825
0.00290449
3.54558e-07
0.00142689
-4.71824e-05
0.00292404
-0.000133672
0.00348057
-0.00020895
0.00323536
-0.000196553
0.0022586
-2.77682e-06
0.000496895
0.000497392
-0.00223954
0.00144026
-0.00621541
0.00312535
-0.0117618
-0.0187405
0.00578339
2.83413e-05
0.00139855
5.27567e-05
0.00289962
8.10864e-05
0.00345224
0.000166605
0.00314984
0.000395378
0.00202983
0.000878712
1.35612e-05
0.00174869
-0.00310952
0.0031678
-0.00763451
0.00543967
-0.0140336
-0.022084
0.00878312
5.19764e-05
0.00134658
0.000143414
0.00280819
0.000283926
0.00331173
0.000531648
0.00290212
0.00098308
0.0015784
0.001766
-0.00076936
0.00303546
-0.00437898
0.00495595
-0.00955499
0.00785756
-0.0169352
-0.026044
0.0118176
7.05526e-05
0.00127602
0.000221683
0.00265706
0.000468395
0.00306502
0.000875968
0.00249455
0.00155304
0.000901332
0.00264608
-0.0018624
0.00433416
-0.00606706
0.00678558
-0.0120064
0.0103225
-0.0204721
-0.0305059
0.0147843
8.37198e-05
0.0011923
0.000286211
0.00245457
0.000631865
0.00271937
0.00119588
0.00193054
0.00210115
-3.94451e-06
0.00351445
-0.0032757
0.00563649
-0.0081891
0.0086439
-0.0150138
0.0127765
-0.0246048
-0.0353102
0.0175809
9.18187e-05
0.00110048
0.000337709
0.00220868
0.000775557
0.00228152
0.00149376
0.00121233
0.00263276
-0.00114294
0.00437973
-0.00502266
0.00694908
-0.0107585
0.0105235
-0.0185883
0.015153
-0.0292342
-0.0402755
0.0201182
9.5846e-05
0.00100464
0.000378925
0.0019256
0.000904707
0.00175574
0.00177879
0.000338245
0.00316174
-0.0025259
0.00526113
-0.00712205
0.00828939
-0.0137867
0.0124122
-0.0227111
0.0173777
-0.0341997
-0.0452293
0.0223315
9.73456e-05
0.000907292
0.000414353
0.00160859
0.00102792
0.00114217
0.00206489
-0.000698723
0.00370828
-0.00416929
0.00618149
-0.00959525
0.00967352
-0.0172788
0.0142743
-0.0273119
0.0193874
-0.0393128
-0.050049
0.0242071
9.82238e-05
0.000809069
0.000449663
0.00125715
0.00115601
0.000435825
0.00236876
-0.00191148
0.0042935
-0.00609403
0.00715786
-0.0124596
0.0110978
-0.0212187
0.0160456
-0.0322597
0.0212338
-0.044501
-0.0561278
0.0273126
0.000100506
0.000708562
0.000490931
0.000866724
0.00130027
-0.00037351
0.00270666
-0.00331788
0.00493411
-0.00832148
0.00819331
-0.0157188
0.0125286
-0.025554
0.0176672
-0.0373983
0.0229473
-0.0497811
-0.0615593
0.0283789
0.00010608
0.000602482
0.000543802
0.000429002
0.00147075
-0.00130045
0.00309118
-0.00493831
0.00563737
-0.0108677
0.00927221
-0.0193537
0.0139067
-0.0301885
0.0190836
-0.0425752
0.0241778
-0.0548753
-0.0662513
0.0288698
0.000116463
0.00048602
0.000612736
-6.72709e-05
0.00167465
-0.00236237
0.00352856
-0.00679222
0.00639769
-0.0137368
0.0103601
-0.023316
0.0151654
-0.0349938
0.0202226
-0.0476325
0.0249409
-0.0595935
-0.0703506
0.0290402
0.000132654
0.000353366
0.000700494
-0.000635111
0.00191532
-0.0035772
0.0040172
-0.0088941
0.00719588
-0.0169155
0.0114083
-0.0275284
0.0162413
-0.0398269
0.0210376
-0.0524288
0.0252983
-0.0638542
-0.073876
0.0288237
0.000155089
0.000198277
0.000807939
-0.00128796
0.00219185
-0.00496111
0.00454744
-0.0112497
0.00800129
-0.0203693
0.0123631
-0.0318902
0.0170855
-0.0445493
0.0215183
-0.0568616
0.0252817
-0.0676175
-0.0768803
0.028286
0.00018368
1.45965e-05
0.000934161
-0.00203844
0.00249938
-0.00652633
0.00510263
-0.0138529
0.00877636
-0.0240431
0.0131755
-0.0362894
0.01767
-0.0490438
0.0216761
-0.0608677
0.0249471
-0.0708885
-0.0794279
0.0274947
0.000217935
-0.000203339
0.00107678
-0.00289729
0.00282975
-0.0082793
0.00566101
-0.0166842
0.00948238
-0.0278644
0.013809
-0.040616
0.0179877
-0.0532225
0.0215407
-0.0644208
0.0243482
-0.073696
-0.081581
0.0265014
0.000257103
-0.000460441
0.00123235
-0.00387254
0.00317239
-0.0102193
0.00619819
-0.01971
0.0100849
-0.0317511
0.0142421
-0.0447732
0.0180487
-0.0570291
0.0211503
-0.0675224
0.0235371
-0.0760828
-0.0834006
0.0253567
0.000300278
-0.000760719
0.00139669
-0.00496895
0.00351515
-0.0123378
0.00668984
-0.0228847
0.0105577
-0.035619
0.0144687
-0.0486842
0.017875
-0.0604354
0.0205461
-0.0701935
0.0225602
-0.0780969
-0.0849387
0.0240983
0.000346485
-0.0011072
0.00156516
-0.00618762
0.00384519
-0.0146178
0.0071141
-0.0261536
0.0108845
-0.0393894
0.0144948
-0.0522944
0.0174949
-0.0634355
0.0197681
-0.0724667
0.0214568
-0.0797857
-0.0862387
0.0227568
0.000394699
-0.0015019
0.00173283
-0.00752576
0.00414976
-0.0170348
0.00745345
-0.0294573
0.0110591
-0.0429951
0.0143352
-0.0555705
0.0169395
-0.0660398
0.0188524
-0.0743795
0.0202592
-0.0811925
-0.0873348
0.0213553
0.00044385
-0.00194575
0.00189463
-0.00897653
0.00441704
-0.0195572
0.00769589
-0.0327361
0.0110835
-0.0463827
0.0140098
-0.0584968
0.0162394
-0.0682694
0.0178306
-0.0759708
0.018993
-0.0823549
-0.0882528
0.019911
0.000492812
-0.00243856
0.00204545
-0.0105292
0.00463692
-0.0221486
0.00783513
-0.0359343
0.010966
-0.0495136
0.0135409
-0.0610717
0.0154227
-0.0701513
0.0167291
-0.0772771
0.017678
-0.0833038
-0.0890117
0.0184369
0.000540408
-0.00297897
0.00218041
-0.0121692
0.00480158
-0.0247698
0.00787022
-0.039003
0.0107195
-0.0523628
0.0129513
-0.0633035
0.0145148
-0.0717148
0.0155692
-0.0783315
0.0163295
-0.0840641
-0.0896245
0.0169424
0.000585425
-0.0035644
0.00229501
-0.0138788
0.00490588
-0.0273807
0.00780457
-0.0419017
0.0103588
-0.054917
0.0122628
-0.0652075
0.0135375
-0.0729895
0.0143684
-0.0791624
0.0149591
-0.0846549
-0.0901001
0.0154347
0.00062666
-0.00419106
0.00238543
-0.0156375
0.00494742
-0.0299427
0.00764487
-0.0445991
0.0099
-0.0571722
0.0114952
-0.0668027
0.0125089
-0.0740032
0.01314
-0.0797935
0.0135755
-0.0850904
-0.0904439
0.0139193
0.000662955
-0.00485401
0.0024487
-0.0174233
0.00492637
-0.0324203
0.00739996
-0.0470727
0.00935898
-0.0591312
0.0106664
-0.0681101
0.0114442
-0.074781
0.0118948
-0.0802441
0.0121853
-0.0853809
-0.0906592
0.0124007
0.000693257
-0.00554727
0.00248282
-0.0192128
0.00484503
-0.0347826
0.00707991
-0.0493076
0.00875076
-0.060802
0.00979154
-0.0691509
0.0103555
-0.075345
0.0106409
-0.0805295
0.0107938
-0.0855337
-0.0907481
0.0108826
0.000716655
-0.00626393
0.00248682
-0.020983
0.00470739
-0.0370031
0.00669522
-0.0512954
0.00808914
-0.062196
0.00888374
-0.0699455
0.00925289
-0.0757141
0.00938481
-0.0806614
0.00940482
-0.0855537
-0.0907116
0.00936838
0.000732415
-0.00699634
0.00246069
-0.0227113
0.00451857
-0.039061
0.00625628
-0.0530331
0.00738645
-0.0633261
0.00795389
-0.0705129
0.00814403
-0.0759043
0.0081314
-0.0806488
0.00802181
-0.0854441
-0.0905502
0.0078604
0.000740003
-0.00773634
0.00240532
-0.0243766
0.00428436
-0.0409401
0.00577301
-0.0545218
0.0066535
-0.0642066
0.00701103
-0.0708705
0.00703515
-0.0759284
0.00688453
-0.0804982
0.00664743
-0.085207
-0.0902629
0.00636007
0.000739091
-0.00847543
0.0023223
-0.0259598
0.00401085
-0.0426286
0.00525457
-0.0557655
0.00589965
-0.0648517
0.00606258
-0.0710334
0.00593111
-0.0757969
0.00564706
-0.0802141
0.00528373
-0.0848437
-0.0898485
0.0048693
0.000729557
-0.00920499
0.00221376
-0.027444
0.00370412
-0.044119
0.00470926
-0.0567706
0.00513288
-0.0652753
0.00511469
-0.0710152
0.00483607
-0.0755183
0.00442147
-0.0797995
0.0039318
-0.084354
-0.0893055
0.00338883
0.000711476
-0.00991647
0.00208215
-0.0288147
0.00337004
-0.0454069
0.00414445
-0.057545
0.00435991
-0.0654908
0.00417236
-0.0708277
0.00375375
-0.0750997
0.00321124
-0.079257
0.00259217
-0.083735
-0.0886285
0.00191516
0.000685133
-0.0106016
0.0019304
-0.0300599
0.00301415
-0.0464906
0.0035666
-0.0580975
0.00358631
-0.0655105
0.00323949
-0.0704809
0.00268698
-0.0745472
0.00202114
-0.0785912
0.00126829
-0.0829821
-0.0877924
0.000432265
0.000650991
-0.0112526
0.00176148
-0.0311704
0.00264157
-0.0473707
0.00298133
-0.0584372
0.00281672
-0.0653459
0.00231913
-0.0699833
0.00163688
-0.0738649
0.000850689
-0.077805
5.91199e-06
-0.0821373
-0.0868022
-0.000984347
0.000609643
-0.0118622
0.00157823
-0.032139
0.00225698
-0.0480494
0.0023935
-0.0585737
0.00205501
-0.0650074
0.00141408
-0.0693423
0.000604882
-0.0730557
-0.000308124
-0.076892
-0.00130652
-0.0811389
-0.0857343
-0.00237441
0.000561798
-0.012424
0.00138343
-0.0329607
0.00186455
-0.0485306
0.00180721
-0.0585164
0.00130431
-0.0645045
0.000526262
-0.0685643
-0.000405363
-0.0721241
-0.00143162
-0.0758657
-0.00255849
-0.0800121
-0.084542
-0.00375075
0.000508255
-0.0129323
0.00117973
-0.0336321
0.0014681
-0.0488189
0.0012258
-0.0582741
0.000567286
-0.063846
-0.000342003
-0.067655
-0.00138928
-0.0710768
-0.00253733
-0.0747177
-0.00378375
-0.0787657
-0.083221
-0.00510478
0.000449877
-0.0133822
0.000969746
-0.034152
0.00107098
-0.0489202
0.000652253
-0.0578554
-0.000154005
-0.0630397
-0.00118708
-0.0666219
-0.00235209
-0.0699118
-0.00361776
-0.073452
-0.00498357
-0.0773998
-0.0817726
-0.006432
0.00038753
-0.0137697
0.000756047
-0.0345205
0.000676067
-0.0488402
9.35297e-05
-0.0572728
-0.000856361
-0.0620898
-0.0020118
-0.0654665
-0.00329096
-0.0686327
-0.00467154
-0.0720714
-0.0061564
-0.075915
-0.0801989
-0.00773003
0.000322078
-0.0140918
0.000541026
-0.0347395
0.000288046
-0.0485872
-0.000461066
-0.0565237
-0.00154181
-0.0610091
-0.00281416
-0.0641941
-0.00420463
-0.0672422
-0.00569778
-0.0705783
-0.00730043
-0.0743123
-0.0785026
-0.00899682
0.000254777
-0.0143465
0.000326411
-0.0348111
-8.86499e-05
-0.0481722
-0.00099708
-0.0556153
-0.00220798
-0.0597982
-0.00359335
-0.0628088
-0.00509234
-0.0657432
-0.00669576
-0.0689748
-0.00841419
-0.0725939
-0.0766873
-0.0102295
0.000186404
-0.014533
0.000118602
-0.0347433
-0.000481937
-0.0475716
-0.0015219
-0.0545753
-0.00285371
-0.0584664
-0.00434853
-0.0613139
-0.00595342
-0.0641383
-0.00766486
-0.0672634
-0.00949633
-0.0707624
-0.0747599
-0.0114238
0.000115077
-0.014648
-9.32817e-05
-0.0345349
-0.000852627
-0.0468123
-0.0020311
-0.0533969
-0.00347848
-0.057019
-0.005079
-0.0597134
-0.00678724
-0.0624301
-0.00860433
-0.0654463
-0.0105456
-0.0688212
-0.0727257
-0.0125798
3.86943e-05
-0.0146867
-0.000321281
-0.034175
-0.00121447
-0.0459191
-0.00252281
-0.0520885
-0.00408158
-0.0554602
-0.00578435
-0.0580106
-0.00759341
-0.060621
-0.00951365
-0.0635261
-0.0115622
-0.0667726
-0.0705815
-0.0137064
-3.6161e-05
-0.0146506
-0.000533996
-0.0336771
-0.00156545
-0.0448876
-0.00299651
-0.0506574
-0.00466213
-0.0537946
-0.00646421
-0.0562086
-0.00837236
-0.0587128
-0.0103941
-0.0615043
-0.0125458
-0.0646209
-0.0683253
-0.014802
-0.000107205
-0.0145434
-0.000738412
-0.0330459
-0.00190406
-0.043722
-0.00345176
-0.0491097
-0.00521952
-0.0520268
-0.00711802
-0.0543101
-0.00912474
-0.0567061
-0.0112495
-0.0593796
-0.0134922
-0.0623782
-0.0659761
-0.0158414
-0.000178775
-0.0143646
-0.000935874
-0.0322888
-0.00222945
-0.0424284
-0.0038879
-0.0474513
-0.00575303
-0.0501617
-0.00774468
-0.0523184
-0.00984829
-0.0546025
-0.0120776
-0.0571503
-0.0144402
-0.0600155
-0.0636924
-0.0167239
-0.000249064
-0.0141155
-0.00112639
-0.0314115
-0.00254108
-0.0410137
-0.00430442
-0.045688
-0.00626223
-0.0482039
-0.00834313
-0.0502375
-0.0105376
-0.0524081
-0.0128463
-0.0548416
-0.0152287
-0.0576332
-0.0608524
-0.0180686
-0.000317487
-0.013798
-0.00130956
-0.0304194
-0.00283856
-0.0394847
-0.00470096
-0.0438256
-0.00674695
-0.0461579
-0.00891277
-0.0480717
-0.0111891
-0.0501317
-0.0135712
-0.0524595
-0.0160775
-0.0551269
-0.0580379
-0.018892
-0.000383689
-0.0134143
-0.00148489
-0.0293182
-0.0031215
-0.0378481
-0.00507725
-0.0418698
-0.00720689
-0.0440283
-0.00945356
-0.045825
-0.0118104
-0.0477749
-0.0142819
-0.049988
-0.016904
-0.0525048
-0.0552064
-0.0197354
-0.000447383
-0.012967
-0.00165196
-0.0281136
-0.00338958
-0.0361105
-0.00543302
-0.0398264
-0.00764161
-0.0418197
-0.00996459
-0.043502
-0.0123979
-0.0453416
-0.0149517
-0.0474343
-0.0176577
-0.0497988
-0.0523293
-0.0205348
-0.000508316
-0.0124586
-0.00181037
-0.0268116
-0.00364253
-0.0342783
-0.00576808
-0.0377008
-0.00805102
-0.0395368
-0.0104463
-0.0411068
-0.0129529
-0.0428349
-0.0155842
-0.044803
-0.0183651
-0.0470179
-0.0493935
-0.0213009
-0.000566261
-0.0118924
-0.0019598
-0.025418
-0.00388012
-0.032358
-0.00608229
-0.0354986
-0.00843493
-0.0371841
-0.0108982
-0.0386435
-0.0134742
-0.040259
-0.016177
-0.0421001
-0.0190271
-0.0441678
-0.0463934
-0.0220272
-0.000621016
-0.0112714
-0.00209998
-0.0239391
-0.00410215
-0.0303559
-0.00637551
-0.0332253
-0.00879325
-0.0347664
-0.0113204
-0.0361163
-0.0139613
-0.0376181
-0.0167306
-0.0393308
-0.0196461
-0.0412523
-0.0433282
-0.0227114
-0.000672403
-0.010599
-0.00223067
-0.0223808
-0.00430846
-0.0282781
-0.00664767
-0.0308861
-0.00912589
-0.0322882
-0.0117126
-0.0335296
-0.0144141
-0.0349167
-0.0172452
-0.0364997
-0.0202225
-0.038275
-0.0401994
-0.0233513
-0.000720262
-0.0098787
-0.00235168
-0.0207494
-0.00449892
-0.0261308
-0.00689868
-0.0284863
-0.00943277
-0.0297541
-0.0120747
-0.0308877
-0.0148322
-0.0321592
-0.0177205
-0.0336113
-0.0207559
-0.0352396
-0.0370102
-0.0239452
-0.000764458
-0.00911424
-0.00246284
-0.019051
-0.00467344
-0.0239202
-0.00712849
-0.0260313
-0.0097138
-0.0271688
-0.0124064
-0.028195
-0.0152155
-0.0293501
-0.0181566
-0.0306702
-0.0212459
-0.0321503
-0.0337643
-0.0244917
-0.00080487
-0.00830937
-0.00256402
-0.0172919
-0.00483192
-0.0216523
-0.00733705
-0.0235261
-0.00996891
-0.0245369
-0.0127077
-0.0254562
-0.0155638
-0.026494
-0.0185531
-0.0276809
-0.0216918
-0.0290116
-0.0304664
-0.0249897
-0.000841396
-0.00746798
-0.00265509
-0.0154782
-0.00497429
-0.0193331
-0.00752431
-0.0209761
-0.010198
-0.0218632
-0.0129785
-0.0226758
-0.0158769
-0.0235956
-0.0189097
-0.0246482
-0.0220931
-0.0258282
-0.0271212
-0.0254383
-0.000873948
-0.00659403
-0.00273597
-0.0136161
-0.00510051
-0.0169686
-0.00769025
-0.0183864
-0.0104011
-0.0191523
-0.0132185
-0.0198584
-0.0161547
-0.0206594
-0.0192262
-0.0215767
-0.0224494
-0.0226049
-0.023734
-0.0258367
-0.00090245
-0.00569158
-0.00280657
-0.011712
-0.00521054
-0.0145646
-0.00783484
-0.0157621
-0.0105781
-0.016409
-0.0134279
-0.0170087
-0.016397
-0.0176903
-0.0195023
-0.0184713
-0.0227604
-0.0193469
-0.0203099
-0.0261844
-0.000926838
-0.00476474
-0.00286682
-0.00977203
-0.00530432
-0.0121271
-0.00795805
-0.0131083
-0.010729
-0.0136381
-0.0136063
-0.0141313
-0.0166036
-0.014693
-0.0197379
-0.0153371
-0.0230257
-0.0160591
-0.0168544
-0.0264811
-0.000947061
-0.00381768
-0.00291667
-0.00780242
-0.00538184
-0.00966196
-0.00805986
-0.0104303
-0.0108537
-0.0108443
-0.0137539
-0.0112311
-0.0167745
-0.0116724
-0.0199327
-0.0121788
-0.0232451
-0.0127467
-0.013373
-0.0267265
-0.000963075
-0.00285461
-0.00295608
-0.00580941
-0.00544307
-0.00717498
-0.00814026
-0.00773312
-0.0109521
-0.00803242
-0.0138704
-0.00831286
-0.0169095
-0.00863336
-0.0200867
-0.00900164
-0.0234185
-0.00941481
-0.00987119
-0.0269204
-0.000974847
-0.00187976
-0.00298501
-0.00379925
-0.00548798
-0.00467201
-0.00819923
-0.00502187
-0.0110244
-0.00520726
-0.013956
-0.00538129
-0.0170086
-0.00558072
-0.0201998
-0.00581049
-0.0235459
-0.00606868
-0.0063543
-0.0270628
-0.000982353
-0.000897405
-0.00300343
-0.00177817
-0.00551657
-0.00215887
-0.00823677
-0.00230167
-0.0110704
-0.00237364
-0.0140104
-0.00244123
-0.0170718
-0.0025194
-0.0202718
-0.00261043
-0.023627
-0.00271347
-0.00282779
-0.0271536
-0.000985577
8.81719e-05
-0.00301133
0.000247579
-0.00552882
0.000358618
-0.00825286
0.000422374
-0.0110901
0.000463622
-0.0140339
0.000502497
-0.0170989
0.000545664
-0.0203028
0.000593461
-0.0236619
0.00064566
0.000701794
-0.0271915
-0.000984512
0.00107268
-0.0030087
0.00227177
-0.00552473
0.00287465
-0.0082475
0.00314515
-0.0110836
0.00329972
-0.0140262
0.00344509
-0.0170902
0.00360963
-0.020293
0.0037963
-0.0236511
0.00400375
0.00423152
-0.0271808
-0.000979157
0.00205184
-0.00299554
0.00428814
-0.00550429
0.0053834
-0.00822068
0.00586154
-0.0110508
0.00612982
-0.0139874
0.00638173
-0.0170454
0.00666758
-0.0202421
0.00699304
-0.0235941
0.0073557
0.00775481
-0.0271174
-0.000969522
0.00302136
-0.00297184
0.00629047
-0.0054675
0.00787905
-0.0081724
0.00856643
-0.0109917
0.00894912
-0.0139176
0.00930761
-0.0169646
0.0097146
-0.0201502
0.0101786
-0.0234908
0.0106963
0.0112662
-0.0270022
-0.000955622
0.00397699
-0.00293764
0.00827248
-0.00541436
0.0103558
-0.00810265
0.0112547
-0.0109063
0.0117528
-0.0138166
0.0122179
-0.0168479
0.0127458
-0.0200173
0.0133481
-0.0233414
0.0140205
0.0147604
-0.0268356
-0.000937484
0.00491447
-0.00289294
0.0102279
-0.00534488
0.0128077
-0.00801143
0.0139213
-0.0107947
0.0145361
-0.0136847
0.0151079
-0.0166952
0.0157563
-0.0198435
0.0164964
-0.023146
0.017323
0.018232
-0.0266176
-0.00091514
0.00582961
-0.00283778
0.0121506
-0.00525906
0.015229
-0.00789873
0.0165609
-0.0106568
0.0172941
-0.0135217
0.0179728
-0.0165067
0.0187413
-0.0196288
0.0196185
-0.0229047
0.0205989
0.0216755
-0.0263482
-0.000888635
0.00671824
-0.0027722
0.0140341
-0.00515692
0.0176137
-0.00776457
0.0191686
-0.0104926
0.0200222
-0.0133277
0.0208078
-0.0162823
0.021696
-0.0193734
0.0227096
-0.0226175
0.0238429
0.0250857
-0.0260276
-0.000858022
0.00757627
-0.00269624
0.0158724
-0.00503847
0.0199559
-0.00760894
0.0217391
-0.0103023
0.0227155
-0.0131027
0.0236083
-0.0160223
0.0246156
-0.0190774
0.0257648
-0.0222846
0.02705
0.0284571
-0.025656
-0.000823366
0.00839963
-0.00260998
0.017659
-0.00490375
0.0222497
-0.00743184
0.0242671
-0.0100857
0.0253693
-0.012847
0.0263696
-0.0157267
0.0274953
-0.018741
0.0287791
-0.0219064
0.0302154
0.0317846
-0.0252338
-0.000784743
0.00918437
-0.00251348
0.0193877
-0.00475278
0.024489
-0.00723329
0.0267477
-0.0098429
0.0279789
-0.0125604
0.0290871
-0.0153956
0.0303305
-0.0183645
0.031748
-0.0214831
0.033334
0.0350629
-0.0247615
-0.000742244
0.00992662
-0.00240684
0.0210523
-0.00458559
0.0266678
-0.00701329
0.0291754
-0.00957399
0.0305396
-0.0122431
0.0317562
-0.0150292
0.0331166
-0.0179479
0.0346667
-0.0210152
0.0364013
0.0382874
-0.0242397
-0.000695975
0.0106226
-0.00229017
0.0226465
-0.00440224
0.0287798
-0.00677186
0.031545
-0.00927896
0.0330467
-0.0118952
0.0343724
-0.0146277
0.0358491
-0.0174917
0.0375306
-0.0205032
0.0394129
0.0414536
-0.0236694
-0.000646056
0.0112686
-0.00216361
0.0241641
-0.00420281
0.030819
-0.00650903
0.0338512
-0.00895787
0.0354956
-0.0115168
0.0369313
-0.0141912
0.0385235
-0.0169959
0.0403354
-0.0199476
0.0423645
0.0445576
-0.0230515
-0.00059263
0.0118613
-0.00202732
0.0255988
-0.00398738
0.0327791
-0.00622482
0.0360886
-0.00861076
0.0378815
-0.011108
0.0394285
-0.0137198
0.0411354
-0.0164609
0.0430765
-0.0193487
0.0452524
0.0475963
-0.0223874
-0.000535857
0.0123971
-0.00188149
0.0269444
-0.00375606
0.0346537
-0.00591929
0.0382519
-0.00823768
0.0401999
-0.0106689
0.0418597
-0.0132138
0.0436803
-0.0158864
0.0457491
-0.0187069
0.0480729
0.0505679
-0.0216785
-0.000475921
0.0128731
-0.00172636
0.0281948
-0.003509
0.0364363
-0.00559249
0.0403354
-0.00783868
0.0424461
-0.0101996
0.0442206
-0.0126733
0.046154
-0.0152726
0.0483484
-0.0180219
0.0508221
0.053473
-0.0209269
-0.000413029
0.0132861
-0.00156221
0.029344
-0.00324637
0.0381205
-0.0052445
0.0423335
-0.00741382
0.0446154
-0.00970038
0.0465072
-0.0120988
0.0485523
-0.0146188
0.0508684
-0.017291
0.0534944
0.0563162
-0.0201342
-0.000347408
0.0136335
-0.00138937
0.030386
-0.0029684
0.0396995
-0.00487547
0.0442406
-0.00696323
0.0467032
-0.00917132
0.0487153
-0.0114913
0.0508723
-0.0139273
0.0533045
-0.0165137
0.0560808
0.0591088
-0.0193064
-0.000279313
0.0139128
-0.00120825
0.0313149
-0.00267534
0.0411666
-0.00448553
0.0460508
-0.00648699
0.0487047
-0.00861213
0.0508404
-0.0108497
0.0531098
-0.0131949
0.0556497
-0.0156652
0.0585511
0.0618762
-0.0184325
-0.000209042
0.0141218
-0.00101928
0.0321251
-0.0023675
0.0425148
-0.00407491
0.0477582
-0.00598546
0.0506152
-0.00802352
0.0528785
-0.0101769
0.0552632
-0.0124454
0.0579183
-0.0147902
0.0608958
0.0646575
-0.0175715
-0.000137019
0.0142589
-0.000822949
0.0328111
-0.0020452
0.043737
-0.00364388
0.0493568
-0.00545891
0.0524302
-0.00740563
0.0548252
-0.00946663
0.0573242
-0.0116544
0.060106
-0.0139786
0.0632201
0.0669373
-0.0162584
-6.42444e-05
0.0143231
-0.000619491
0.0333663
-0.00170882
0.0448264
-0.00319277
0.0508408
-0.00490746
0.0541449
-0.006759
0.0566767
-0.00872199
0.0592872
-0.0108055
0.0621895
-0.0130122
0.0654268
0.0692639
-0.0153388
4.88582e-06
0.0143182
-0.0004082
0.0337794
-0.00135899
0.0457772
-0.0027221
0.0522039
-0.00433148
0.0557543
-0.00608449
0.0584297
-0.00794762
0.0611503
-0.00992769
0.0641696
-0.0120424
0.0675415
0.0714916
-0.0142701
8.75276e-05
0.0142307
-0.000185426
0.0340524
-0.000996736
0.0465885
-0.00223241
0.0534396
-0.00373156
0.0572535
-0.00538302
0.0600812
-0.0071455
0.0629128
-0.00902299
0.0660471
-0.0110335
0.069552
0.0736044
-0.0131463
0.000162021
0.0140687
4.7513e-05
0.0341669
-0.000623802
0.0472598
-0.00172403
0.0545398
-0.00310833
0.0586378
-0.00465504
0.0616279
-0.00631497
0.0645727
-0.00808803
0.0678202
-0.00999
0.071454
0.0756048
-0.0119905
0.000231965
0.0138367
0.000249764
0.0341491
-0.000237907
0.0477475
-0.00119811
0.0555
-0.00246262
0.0599023
-0.00390087
0.0630662
-0.0054556
0.0661274
-0.00712158
0.0694861
-0.00891241
0.0732448
0.0774968
-0.0108043
0.000300926
0.0135358
0.000468374
0.0339816
0.000157151
0.0480587
-0.000657787
0.0563149
-0.00179504
0.0610395
-0.0031209
0.064392
-0.00456766
0.0675742
-0.0061241
0.0710426
-0.00780065
0.0749214
0.0792754
-0.00957932
0.000368902
0.0131669
0.000688356
0.0336622
0.000545633
0.0482014
-9.99157e-05
0.0569605
-0.00110614
0.0620457
-0.00231572
0.0656016
-0.00365171
0.0689102
-0.00509625
0.0724871
-0.00665586
0.076481
0.0809346
-0.008315
0.000434191
0.0127327
0.00090781
0.0331885
0.00094713
0.0481621
0.000466083
0.0574415
-0.000398021
0.0629098
-0.00148604
0.0666896
-0.00270833
0.0701325
-0.00403857
0.0738174
-0.0054793
0.0779217
0.0824704
-0.00701512
0.000495805
0.0122369
0.00112484
0.0325595
0.00135296
0.047934
0.00104727
0.0577472
0.000330135
0.063627
-0.000633023
0.0676528
-0.00173833
0.0712378
-0.00295169
0.0750307
-0.00427215
0.0792422
0.0838804
-0.00568219
0.000552883
0.011684
0.00133686
0.0317755
0.00175994
0.0475109
0.00163922
0.0578679
0.00107686
0.0641893
0.000242329
0.0684873
-0.000743311
0.0722234
-0.0018366
0.076124
-0.0030358
0.0804414
0.0851628
-0.00431814
0.000604498
0.0110795
0.00154114
0.0308389
0.00216495
0.0468871
0.00223864
0.0577943
0.0018402
0.0645878
0.00114336
0.0691841
0.000275556
0.0730912
-0.000696354
0.0770959
-0.0017702
0.0815152
0.0863177
-0.0029251
0.000649762
0.0104297
0.00173493
0.0297537
0.00256429
0.0460577
0.00284233
0.0575162
0.00261743
0.0648127
0.00206375
0.0697378
0.00132515
0.0738298
0.000470398
0.0779507
-0.000467525
0.0824532
0.0873607
-0.00151054
0.000687869
0.00974188
0.00191537
0.0285262
0.00295379
0.0450193
0.00344642
0.0570236
0.00340578
0.0648533
0.00300276
0.0701408
0.0023945
0.0744381
0.00166719
0.078678
0.000844317
0.083276
0.0883127
-0.000107745
0.000718116
0.00902376
0.00207945
0.0271649
0.00332876
0.04377
0.00404623
0.0563061
0.00420172
0.0646978
0.00395808
0.0703845
0.00348482
0.0749114
0.00288293
0.0792799
0.00219077
0.0839682
0.089081
0.00142247
0.000739925
0.00828384
0.00222396
0.0256809
0.00368397
0.04231
0.00463625
0.0553538
0.00500087
0.0643332
0.00492685
0.0704585
0.00459465
0.0752436
0.00412222
0.0797523
0.00356286
0.0845275
0.0897124
0.00293154
0.000752896
0.00753094
0.00234568
0.0240881
0.00401368
0.040642
0.00521009
0.0541574
0.00579789
0.0637454
0.00590545
0.0703509
0.00572158
0.0754274
0.00538196
0.0800919
0.00495265
0.0849569
0.0902107
0.00445433
0.000756837
0.0067741
0.0024418
0.0224031
0.00431174
0.038772
0.00576033
0.0527088
0.00658629
0.0629195
0.00688925
0.070048
0.00686233
0.0754544
0.00665898
0.0802953
0.00635982
0.085256
0.0905772
0.00599328
0.000751766
0.00602234
0.00250977
0.0206451
0.00457163
0.0367102
0.00627854
0.0510019
0.00735827
0.0618397
0.00787248
0.0695337
0.00801312
0.0753137
0.00795085
0.0803575
0.0077834
0.0854235
0.0908128
0.00754785
0.000737919
0.00528442
0.00254752
0.0188355
0.00478665
0.0344711
0.00675522
0.0490334
0.00810454
0.0604904
0.00884804
0.0687902
0.00916943
0.0749923
0.00925502
0.0802719
0.00922181
0.0854567
0.0909174
0.00911718
0.00071576
0.00456866
0.00255368
0.0169976
0.00495021
0.0320745
0.00717991
0.0468037
0.00881418
0.0588562
0.00980717
0.0677972
0.0103255
0.074474
0.0105681
0.0800293
0.010673
0.0853518
0.0908905
0.0106999
0.000685979
0.00388268
0.00252776
0.0151558
0.00505623
0.0295461
0.00754139
0.0443185
0.00947456
0.056923
0.0107391
0.0665327
0.0114741
0.073739
0.0118858
0.0796176
0.0121342
0.0851034
0.0907299
0.0122948
0.000649479
0.0032332
0.0024703
0.013335
0.0050996
0.0269168
0.00782799
0.0415901
0.0100712
0.0546797
0.0116309
0.0649729
0.0126056
0.0727644
0.0132022
0.0790209
0.0136022
0.0847035
0.0904326
0.0138995
0.000607346
0.00262586
0.002383
0.0115593
0.00507675
0.024223
0.00802812
0.0386387
0.0105881
0.0521197
0.0124669
0.0630941
0.0137083
0.0715231
0.0145099
0.0782193
0.0150724
0.084141
0.089994
0.015511
0.000560804
0.00206505
0.00226864
0.00985148
0.00498627
0.0215054
0.00813099
0.035494
0.0110078
0.0492429
0.0132288
0.0608732
0.0147671
0.0699847
0.0157988
0.0771876
0.0165392
0.0834006
0.0894071
0.017126
0.000511162
0.00155389
0.00213102
0.00823162
0.00482942
0.018807
0.00812761
0.0321958
0.011312
0.0460585
0.0138952
0.05829
0.0157636
0.0681163
0.017056
0.0758953
0.0179947
0.0824619
0.0886618
0.01874
0.00045975
0.00109414
0.00197475
0.00671662
0.00461041
0.0161713
0.00801197
0.0287943
0.0114828
0.0425876
0.0144424
0.0553305
0.0166755
0.0658832
0.0182647
0.0743061
0.0194285
0.0812981
0.087743
0.0203472
0.000407848
0.000686291
0.00180488
0.00531959
0.00433644
0.0136398
0.00778227
0.0253484
0.0115036
0.0388663
0.0148445
0.0519897
0.0174758
0.0632518
0.0194035
0.0723784
0.0208264
0.0798752
0.0866297
0.0219397
0.000356605
0.000329686
0.00162657
0.00404963
0.00401719
0.0112491
0.00744211
0.0219235
0.0113615
0.0349468
0.0150747
0.0482765
0.0181336
0.0601929
0.0204454
0.0700666
0.0221696
0.078151
0.0852927
0.0235066
0.000306969
2.27175e-05
0.00144467
0.00291193
0.00366406
0.00902974
0.00700108
0.0185865
0.0110492
0.0308987
0.0151072
0.0442185
0.018614
0.0566861
0.0213573
0.0673233
0.0234331
0.0760752
0.0836929
0.0250329
0.00025962
-0.000236903
0.00126339
0.00190816
0.00328899
0.00700415
0.00647448
0.015401
0.0105672
0.026806
0.0149198
0.039866
0.0188798
0.0527261
0.0220995
0.0641036
0.0245844
0.0735903
0.0817798
0.0264975
0.0002149
-0.000451803
0.001086
0.00103706
0.00290329
0.00518686
0.00588197
0.0124223
0.00992628
0.0227617
0.0144976
0.0352946
0.0188939
0.0483299
0.0226267
0.0603708
0.0255825
0.0706345
0.0794899
0.0278723
0.000172863
-0.000624665
0.000914741
0.000295179
0.0025167
0.0035849
0.00524542
0.00969361
0.00914726
0.0188598
0.013837
0.0306049
0.0186228
0.0435441
0.0228886