/*--------------------------------*- C++ -*----------------------------------*\
  =========                 |
  \\      /  F ield         | OpenFOAM: The Open Source CFD Toolbox
   \\    /   O peration     | Website:  https://openfoam.org
    \\  /    A nd           | Version:  7
     \\/     M anipulation  |
\*---------------------------------------------------------------------------*/
FoamFile
{
    version     2.0;
    format      ascii;
    class       surfaceScalarField;
    location    "115";
    object      phi;
}
// * * * * * * * * * * * * * * * * * * * * * * * * * * * * * * * * * * * * * //

dimensions      [0 3 -1 0 0 0 0];

internalField   nonuniform List<scalar> 
4147
(
-6.65528e-05
-0.00200843
-0.000272828
-0.005181
-0.000624138
-0.00775986
-0.00110662
-0.00975332
-0.0016923
-0.0113166
-0.00234875
-0.0126808
-0.00304836
-0.0140507
-0.00377388
-0.0155288
-0.00451787
-0.0170842
-0.0185246
-0.00528187
-9.73195e-05
-0.00191111
-0.000369899
-0.00490842
-0.000807853
-0.00732191
-0.00138782
-0.00917336
-0.0020786
-0.0106258
-0.00285026
-0.0119091
-0.00368208
-0.0132189
-0.00456736
-0.0146435
-0.00551224
-0.0161393
-0.0175036
-0.00653318
-0.000126516
-0.0017846
-0.000460308
-0.00457463
-0.000976122
-0.00680609
-0.00164117
-0.00850831
-0.00242071
-0.00984628
-0.00328582
-0.011044
-0.00421977
-0.0122849
-0.00522236
-0.0136409
-0.00630936
-0.0150523
-0.0163048
-0.00750818
-0.000153272
-0.00163133
-0.000541722
-0.00418618
-0.0011252
-0.00622261
-0.00186184
-0.00777167
-0.00271297
-0.00899514
-0.003649
-0.010108
-0.00465376
-0.0112802
-0.00572861
-0.0125661
-0.00689383
-0.0138871
-0.0150153
-0.00818338
-0.00017679
-0.00145454
-0.000612067
-0.0037509
-0.00125185
-0.00558283
-0.0020458
-0.00697772
-0.00295101
-0.00808994
-0.00393551
-0.00912346
-0.00498013
-0.0102355
-0.00608232
-0.0114639
-0.00726064
-0.0127088
-0.0137256
-0.00855032
-0.00019635
-0.00125819
-0.000669497
-0.00327776
-0.0013532
-0.00489913
-0.0021895
-0.00614142
-0.00313111
-0.00714833
-0.00414222
-0.00811235
-0.00519733
-0.00918044
-0.00628431
-0.0103769
-0.00741298
-0.0115801
-0.0125255
-0.00861304
-0.000211309
-0.00104688
-0.000712359
-0.00277671
-0.00142664
-0.00418485
-0.0022896
-0.00527846
-0.00324957
-0.00618835
-0.0042659
-0.00709603
-0.00530404
-0.0081423
-0.00633697
-0.00934398
-0.00735824
-0.0105588
-0.0115019
-0.00838194
-0.000221107
-0.00082577
-0.000739183
-0.00225863
-0.0014697
-0.00345433
-0.0023426
-0.00440556
-0.00330204
-0.00522891
-0.00430187
-0.00609621
-0.00529677
-0.0071474
-0.00624036
-0.00840039
-0.00710265
-0.00969655
-0.0107368
-0.00786773
-0.000225294
-0.000600476
-0.000748725
-0.0017352
-0.0014801
-0.00272296
-0.00234487
-0.00354079
-0.00328316
-0.00429062
-0.00424303
-0.00513633
-0.00516763
-0.00622281
-0.00598813
-0.0075799
-0.00664512
-0.00903956
-0.0103073
-0.00707459
-0.000223566
-0.00037691
-0.000740067
-0.0012187
-0.00145589
-0.00200714
-0.00229278
-0.0027039
-0.00318667
-0.00339672
-0.00407961
-0.00424339
-0.0049032
-0.00539922
-0.00556474
-0.00691835
-0.00597189
-0.00863242
-0.0102842
-0.00599497
-0.000215825
-0.000161085
-0.000712777
-0.000721747
-0.00139579
-0.00132413
-0.00218324
-0.00191645
-0.00300626
-0.0025737
-0.00380011
-0.00344954
-0.00448523
-0.0047141
-0.00494541
-0.00645818
-0.00505428
-0.00852355
-0.0107288
-0.00460966
-0.000202251
4.11656e-05
-0.000667109
-0.000256889
-0.00129957
-0.000691663
-0.00201452
-0.0012015
-0.0027369
-0.00185133
-0.00339353
-0.0027929
-0.00389366
-0.00421397
-0.00409926
-0.00625258
-0.00385084
-0.00877197
-0.0116825
-0.00289716
-0.000183358
0.000224524
-0.000604164
0.000163917
-0.00116853
-0.000127296
-0.00178712
-0.000582913
-0.00237668
-0.00126177
-0.00285283
-0.00231675
-0.00311219
-0.00395461
-0.00299571
-0.00636905
-0.00230636
-0.00946132
-0.0131158
-0.000873052
-0.000159929
0.000384452
-0.000525997
0.000529985
-0.0010057
0.000352411
-0.00150446
-8.41617e-05
-0.00192838
-0.000837848
-0.00217837
-0.00206676
-0.00213672
-0.00399626
-0.00162292
-0.00688285
-0.000295088
-0.0107892
-0.0150765
0.00166555
-0.000133132
0.000517584
-0.000435539
0.000832392
-0.000815874
0.000732746
-0.00117303
0.000272999
-0.00139994
-0.000610942
-0.00137907
-0.00208763
-0.000976807
-0.00439853
-5.49714e-05
-0.00780469
0.0018781
-0.0127222
-0.0178344
0.00463607
-0.000104324
0.000621908
-0.000336419
0.00106449
-0.000605249
0.00100158
-0.000801801
0.000469551
-0.000803608
-0.000609135
-0.000471656
-0.00241958
0.000355812
-0.00522599
0.00186321
-0.00931209
0.00438897
-0.015248
-0.0212851
0.00783964
-7.49267e-05
0.000696835
-0.000232526
0.00122209
-0.00038068
0.00114973
-0.000401014
0.000489885
-0.000154546
-0.000855602
0.000522509
-0.00309663
0.00181472
-0.0065182
0.00391181
-0.0114092
0.00712014
-0.0184563
-0.0253035
0.0111385
-4.62524e-05
0.000743087
-0.000127505
0.00130334
-0.000148699
0.00117092
1.81818e-05
0.000323004
0.000533996
-0.00137142
0.00158251
-0.00414515
0.00337073
-0.00830642
0.00608748
-0.0141259
0.0099399
-0.0223087
-0.0297349
0.0143714
-1.93293e-05
0.000762417
-2.42151e-05
0.00130822
8.57977e-05
0.00106091
0.000452106
-4.33036e-05
0.00125112
-0.00217043
0.00269224
-0.00558627
0.00499532
-0.0106095
0.00834713
-0.0174777
0.0127313
-0.026693
-0.0344031
0.0173995
5.23106e-06
0.000757185
7.53938e-05
0.00123806
0.000319642
0.000816663
0.000892669
-0.00061633
0.00199094
-0.0032687
0.00384253
-0.00743786
0.00666698
-0.0134339
0.0106288
-0.0214396
0.0154121
-0.0314762
-0.039156
0.020165
2.73177e-05
0.000729868
0.000171191
0.00109419
0.000552247
0.000435607
0.00134101
-0.00140509
0.00275292
-0.00468061
0.00502802
-0.00971296
0.00836301
-0.0167689
0.0128353
-0.0259118
0.0179149
-0.0365559
-0.0461608
0.0249197
4.73726e-05
0.000682495
0.000264205
0.000877356
0.000785858
-8.60457e-05
0.00180037
-0.0024196
0.00353981
-0.00642005
0.00624321
-0.0124164
0.0100545
-0.0205803
0.0149031
-0.0307605
0.0202838
-0.0419365
-0.0525058
0.0266288
6.62661e-05
0.000356833
0.000586789
0.00102472
-0.000753934
0.00227634
-0.00367122
0.00435489
-0.0084986
0.00747745
-0.0155389
0.0116976
-0.0248004
0.016769
-0.0358318
0.0221711
-0.0473386
-0.0581228
0.0277881
0.000452312
0.0012742
-0.00157582
0.00277481
-0.00517184
0.00519822
-0.010922
0.00871058
-0.0190513
0.0132367
-0.0293265
0.018365
-0.0409601
0.0235355
-0.0525092
-0.0630915
0.0285042
0.00153954
-0.00256124
0.00329967
-0.00693198
0.00606302
-0.0136853
0.00991041
-0.0228987
0.014612
-0.0340281
0.0196288
-0.0459768
0.0244197
-0.0573001
-0.0674165
0.0287447
0.00182459
0.00385058
-0.00895797
0.00693337
-0.0167681
0.0110346
-0.0269999
0.0157685
-0.0387621
0.0205302
-0.0507385
0.02485
-0.0616199
-0.071131
0.0285645
0.00442147
0.00778419
-0.0201309
0.012037
-0.0312527
0.0166651
-0.0433901
0.0210655
-0.0551389
0.0248792
-0.0654336
-0.0742938
0.0280421
0.00858391
0.0128756
0.0172801
-0.0477947
0.0212549
-0.0591138
0.024567
-0.0687456
-0.076971
0.0272442
0.017612
0.0211339
-0.0626357
0.0239742
-0.0715859
-0.0792319
0.0262351
0.0207458
0.0231583
-0.0739984
-0.08114
0.0250663
0.0221692
0.0237796
-0.00582881
-0.0367965
-0.00515601
-0.0318027
-0.00347431
-0.0145466
-0.000770167
0.0173629
0.00241788
0.0593637
0.00514039
0.0978979
0.00621525
0.124679
0.00553108
0.142594
0.00708296
0.138239
0.0134979
0.0892656
0.0208691
0.00274955
0.0262624
-0.0741968
0.0293658
-0.127126
0.0304808
-0.150884
0.0288174
-0.149611
0.0250995
-0.173345
0.0234541
-0.149653
0.0266456
-0.0772366
0.0316405
0.0362947
0.0340356
0.108849
0.0334342
0.135516
0.0320372
0.208758
0.0318209
0.161716
0.0329489
0.132181
0.034404
0.00785331
0.0350411
-0.151191
0.0352592
-0.162371
0.0347694
-0.287063
0.287552
0.0344847
-0.101039
0.101323
0.10563
-0.105237
-0.0074119
-0.0359178
-0.00699684
-0.0322177
-0.00539737
-0.0161461
-0.00248225
0.0144478
0.00104888
0.0558326
0.0041635
0.0947833
0.0056385
0.123204
0.00569329
0.142539
0.0082737
0.135658
0.0149967
0.0825425
0.0220043
-0.00425803
0.0269136
-0.079106
0.0295034
-0.129716
0.0303341
-0.151715
0.0286471
-0.147924
0.0248727
-0.169571
0.0230576
-0.147837
0.0262626
-0.0804416
0.0314589
0.0310984
0.0340001
0.106308
0.0334536
0.136062
0.0320305
0.210181
0.0317873
0.161959
0.0329743
0.130995
0.0344578
0.0063698
0.0350611
-0.151794
0.0352955
-0.162605
0.0348191
-0.286586
0.0344615
-0.100681
0.106068
-0.00867722
-0.0347487
-0.00853627
-0.0323587
-0.00708571
-0.0175967
-0.0040389
0.011401
-0.000192655
0.0519864
0.0033279
0.0912627
0.00525728
0.121274
0.00616959
0.141627
0.00970034
0.132128
0.0165283
0.0757146
0.0231086
-0.0108383
0.0275244
-0.0835219
0.0296151
-0.131807
0.0301707
-0.15227
0.0284737
-0.146227
0.0246741
-0.165771
0.0227068
-0.14587
0.0258904
-0.0836252
0.0312621
0.0257267
0.0339537
0.103616
0.0334588
0.136557
0.0320028
0.211637
0.0317419
0.16222
0.0329939
0.129742
0.0345012
0.00486253
0.0350695
-0.152363
0.0353207
-0.162857
0.0348612
-0.286127
0.0344353
-0.100255
0.106548
-0.00958779
-0.0333443
-0.00971911
-0.0322274
-0.00847502
-0.0188408
-0.00538824
0.00831422
-0.0012746
0.0478727
0.00264808
0.0873401
0.00510109
0.118821
0.00695404
0.139774
0.0113208
0.127761
0.0180763
0.0689591
0.0241744
-0.0169364
0.0280909
-0.0874384
0.0296988
-0.133415
0.0299898
-0.152561
0.0282944
-0.144532
0.0245002
-0.161977
0.0224033
-0.143773
0.0255329
-0.0867547
0.0310522
0.0202073
0.0338971
0.100771
0.0334505
0.137004
0.0319563
0.213131
0.0316864
0.16249
0.0330079
0.128421
0.0345337
0.00333677
0.0350665
-0.152895
0.0353347
-0.163125
0.0348952
-0.285687
0.0344057
-0.0997655
0.107069
-0.0101252
-0.0317694
-0.0105041
-0.0318485
-0.00950276
-0.0198421
-0.00647505
0.00528651
-0.0021635
0.0435612
0.00213793
0.0830386
0.00519714
0.115762
0.00802737
0.136944
0.0130865
0.122702
0.0196245
0.0624211
0.0251958
-0.0225077
0.0286091
-0.0908517
0.0297523
-0.134558
0.0297897
-0.152599
0.0281066
-0.142849
0.0243464
-0.158217
0.022147
-0.141574
0.025194
-0.0898018
0.0308311
0.0145702
0.0338306
0.0977719
0.0334299
0.137404
0.0318936
0.214668
0.0316226
0.162761
0.0330164
0.127027
0.034555
0.00179823
0.0350523
-0.153393
0.0353376
-0.16341
0.0349203
-0.28527
0.0343722
-0.0992174
0.107628
-0.0102894
-0.0300931
-0.0108699
-0.0312679
-0.0101165
-0.0205955
-0.00724161
0.00241159
-0.00281612
0.0391357
0.00183517
0.0783873
0.00556529
0.112032
0.00935934
0.13315
0.0149464
0.117115
0.0211556
0.0562119
0.0261661
-0.0275183
0.0290751
-0.0937607
0.0297735
-0.135256
0.0295688
-0.152394
0.0279074
-0.141187
0.0242074
-0.154517
0.0219355
-0.139302
0.0248773
-0.0927436
0.030601
0.00884659
0.0337544
0.0946185
0.0333979
0.137761
0.0318174
0.216248
0.0315522
0.163026
0.0330194
0.12556
0.0345648
0.000252824
0.0350273
-0.153855
0.0353292
-0.163712
0.0349357
-0.284877
0.0343343
-0.098616
0.108222
-0.0100955
-0.0283795
-0.0108202
-0.0305433
-0.0102831
-0.0211325
-0.00763431
-0.000237209
-0.00318753
0.0346889
0.00177743
0.0734224
0.00621245
0.107597
0.0109097
0.128453
0.0168509
0.111174
0.0226514
0.0504115
0.0270781
-0.031945
0.0294853
-0.096168
0.0297602
-0.135531
0.0293253
-0.151959
0.0276943
-0.139556
0.0240777
-0.1509
0.0217642
-0.136988
0.0245849
-0.0955643
0.030364
0.00306748
0.0336685
0.091314
0.0333557
0.138074
0.0317305
0.217873
0.0314765
0.16328
0.0330168
0.12402
0.0345631
-0.00129346
0.0349914
-0.154283
0.0353092
-0.16403
0.0349409
-0.284508
0.0342917
-0.0979669
0.108849
-0.00956734
-0.0266799
-0.0103818
-0.0297288
-0.00998655
-0.0215278
-0.00762518
-0.00259858
-0.00323765
0.0303014
0.00199814
0.0681866
0.00712987
0.102465
0.0126282
0.122954
0.0187546
0.105047
0.0240926
0.0450735
0.0279241
-0.0357765
0.0298361
-0.09808
0.0297103
-0.135405
0.0290573
-0.151306
0.0274645
-0.137964
0.0239515
-0.147387
0.0216264
-0.134663
0.024317
-0.0982549
0.0301222
-0.00273765
0.0335725
0.0878637
0.0333046
0.138341
0.0316354
0.219542
0.0313965
0.163519
0.0330083
0.122408
0.0345497
-0.0028348
0.0349448
-0.154679
0.0352774
-0.164362
0.034935
-0.284166
0.0342438
-0.0972757
0.109504
-0.00872732
-0.0250272
-0.00959783
-0.0288583
-0.00927889
-0.0218467
-0.00718472
-0.00469275
-0.00294034
0.026057
0.00251869
0.0627276
0.00829321
0.0966908
0.0144566
0.116791
0.0206161
0.0988877
0.0254606
0.040229
0.028697
-0.0390129
0.0301242
-0.0995071
0.0296218
-0.134903
0.0287628
-0.150447
0.0272154
-0.136416
0.0238233
-0.143995
0.021513
-0.132353
0.0240714
-0.100813
0.0298763
-0.00854255
0.0334659
0.0842741
0.0332456
0.138562
0.0315347
0.221253
0.0313131
0.16374
0.0329936
0.120727
0.0345245
-0.00436571
0.0348875
-0.155042
0.0352333
-0.164708
0.0349172
-0.28385
0.0341901
-0.0965486
0.110185
-0.00758633
-0.0234358
-0.00851259
-0.027932
-0.00822396
-0.0221354
-0.00633697
-0.00657974
-0.0022898
0.0220098
0.00334106
0.0570967
0.00966419
0.0903677
0.0163323
0.110123
0.0223979
0.092822
0.0267386
0.0358883
0.0293905
-0.0416648
0.0303467
-0.100463
0.0294928
-0.134049
0.0284401
-0.149394
0.0269441
-0.13492
0.0236878
-0.140739
0.0214137
-0.130079
0.0238422
-0.103242
0.0296267
-0.0143271
0.0333478
0.080553
0.0331797
0.13873
0.0314305
0.223002
0.0312268
0.163944
0.0329722
0.118982
0.0344876
-0.00588114
0.0348194
-0.155373
0.0351765
-0.165065
0.0348869
-0.28356
0.03413
-0.0957916
0.110887
-0.00613858
-0.0219069
-0.0071534
-0.0269172
-0.00688275
-0.022406
-0.00514155
-0.00832094
-0.00131627
0.0181846
0.00444154
0.0513389
0.011192
0.0836172
0.0181936
0.103121
0.0240667
0.086949
0.0279122
0.0320428
0.0299994
-0.0437521
0.0305012
-0.100965
0.0293216
-0.132869
0.0280875
-0.14816
0.026648
-0.133481
0.0235404
-0.137631
0.0213172
-0.127856
0.0236208
-0.105545
0.0293714
-0.0200777
0.0332168
0.0767076
0.0331077
0.138839
0.0313247
0.224785
0.0311378
0.164131
0.0329436
0.117176
0.0344391
-0.00737664
0.0347404
-0.155675
0.0351067
-0.165432
0.0348436
-0.283297
0.034063
-0.0950111
0.111606
-0.00436678
-0.0204373
-0.00552003
-0.0257639
-0.00530289
-0.0226232
-0.00367621
-0.00994762
-0.000147232
0.0146556
0.00576864
0.045423
0.0128146
0.0765712
0.0199832
0.0959525
0.0255939
0.0813383
0.0289698
0.0286669
0.0305198
-0.045302
0.0305856
-0.101031
0.0291064
-0.13139
0.0277037
-0.146758
0.0263242
-0.132101
0.0233769
-0.134684
0.0212119
-0.125691
0.0233963
-0.10773
0.0291071
-0.0257884
0.0330714
0.0727433
0.0330302
0.13888
0.0312186
0.226597
0.031046
0.164304
0.0329071
0.115315
0.0343789
-0.00884842
0.0346506
-0.155946
0.0350236
-0.165805
0.0347866
-0.28306
0.0339887
-0.0942132
0.112337
-0.0022546
-0.0190558
-0.00358776
-0.0244308
-0.00350482
-0.0227061
-0.00201235
-0.0114401
0.00159832
0.0110449
0.0072581
0.0397632
0.014461
0.0693683
0.021649
0.0887645
0.026957
0.0760304
0.0298998
0.0257241
0.0309487
-0.0463509
0.030598
-0.10068
0.0288457
-0.129638
0.0272876
-0.145199
0.0259703
-0.130784
0.0231939
-0.131907
0.0210876
-0.123584
0.0231557
-0.109798
0.028828
-0.0314607
0.0329091
0.0686621
0.0329471
0.138842
0.0311134
0.228431
0.0309512
0.164466
0.0328622
0.113404
0.0343072
-0.0102933
0.0345496
-0.156189
0.0349269
-0.166182
0.0347158
-0.282849
0.0339066
-0.0934039
0.113077
0.000238547
-0.0176287
-0.00133514
-0.0228571
-0.00148242
-0.0225588
-0.00025301
-0.0126695
0.0033284
0.00746349
0.00882232
0.0342693
0.0160546
0.062136
0.0231446
0.0816745
0.0281395
0.0710355
0.0306959
0.0231676
0.031285
-0.04694
0.0305375
-0.0999327
0.0285389
-0.127639
0.0268392
-0.1435
0.0255845
-0.129529
0.0229888
-0.129312
0.0209357
-0.121531
0.0228861
-0.111748
0.0285269
-0.0371014
0.0327272
0.0644618
0.0328583
0.138711
0.0310095
0.23028
0.0308531
0.164622
0.0328083
0.111449
0.0342239
-0.011709
0.0344376
-0.156403
0.0348166
-0.166561
0.0346308
-0.282663
0.0338163
-0.0925894
0.11382
0.00303422
-0.0160269
0.00135582
-0.0211787
0.000881792
-0.0220848
0.0019622
-0.0137499
0.00511501
0.00431068
0.0103822
0.0290021
0.0175223
0.0549959
0.0244309
0.0747659
0.0291318
0.0663345
0.0313586
0.0209409
0.0315271
-0.0471086
0.0304047
-0.0988102
0.0281865
-0.125421
0.0263597
-0.141673
0.0251656
-0.128335
0.0227594
-0.126906
0.0207502
-0.119522
0.0225761
-0.113574
0.0281951
-0.0427205
0.0325221
0.0601348
0.0327631
0.13847
0.0309072
0.232135
0.0307512
0.164778
0.0327448
0.109455
0.0341292
-0.0130934
0.0343145
-0.156588
0.0346927
-0.166939
0.0345315
-0.282502
0.0337176
-0.0917755
0.11456
0.00611948
-0.0143067
0.00442464
-0.0194838
0.0036264
-0.0212865
0.00427536
-0.0143989
0.00696529
0.00162075
0.0118903
0.0240771
0.0188103
0.048076
0.0254823
0.068094
0.0299358
0.061881
0.0318933
0.0189834
0.0316716
-0.0468869
0.0301979
-0.0973365
0.0277863
-0.12301
0.0258471
-0.139734
0.0247111
-0.127199
0.0225024
-0.124697
0.0205274
-0.117547
0.0222166
-0.115263
0.0278236
-0.0483275
0.0322897
0.0556687
0.0326601
0.1381
0.0308064
0.233989
0.0306452
0.164939
0.0326715
0.107429
0.0340232
-0.014445
0.0341803
-0.156745
0.0345553
-0.167314
0.034418
-0.282365
0.0336104
-0.0909679
0.115293
0.00939221
-0.0125604
0.00770478
-0.0177964
0.00660084
-0.0201826
0.00678667
-0.0145847
0.00891976
-0.000512334
0.0133528
0.019644
0.0199046
0.0415242
0.0262974
0.0617011
0.0305667
0.0576116
0.0323121
0.017238
0.0317177
-0.0462924
0.0299097
-0.0955286
0.0273272
-0.120427
0.0252915
-0.137698
0.024214
-0.126122
0.0222117
-0.122694
0.0202651
-0.115601
0.0218011
-0.116799
0.0274027
-0.0539291
0.0320255
0.051046
0.0325478
0.137577
0.0307067
0.23583
0.0305352
0.165111
0.0325889
0.105375
0.0339064
-0.0157626
0.0340351
-0.156874
0.0344046
-0.167684
0.0342905
-0.28225
0.0334948
-0.0901722
0.116015
0.0127433
-0.0109324
0.0110992
-0.0161523
0.00973735
-0.0188208
0.00951065
-0.014358
0.0110035
-0.00200514
0.0148285
0.015819
0.0208513
0.0355014
0.0269208
0.0556316
0.0310685
0.0534639
0.0326389
0.0156675
0.031677
-0.0453305
0.0295391
-0.0933906
0.0268051
-0.117693
0.0246902
-0.135583
0.0236724
-0.125104
0.021885
-0.120907
0.0199662
-0.113682
0.0213288
-0.118162
0.0269221
-0.0595224
0.0317229
0.0462452
0.0324237
0.136877
0.030608
0.237646
0.0304225
0.165296
0.0324984
0.103299
0.0337797
-0.0170439
0.0338789
-0.156973
0.0342411
-0.168046
0.0341499
-0.282159
0.0333716
-0.089394
0.116719
0.0160931
-0.00962589
0.0144758
-0.0145351
0.0128804
-0.0172254
0.0122755
-0.0137531
0.0132511
-0.00298078
0.0163911
0.0126791
0.0217545
0.030138
0.027464
0.0499221
0.0315374
0.0493905
0.032918
0.0142869
0.0315749
-0.0439873
0.0291322
-0.090948
0.0262787
-0.11484
0.0240954
-0.1334
0.0231191
-0.124127
0.0215389
-0.119327
0.0196448
-0.111788
0.0208141
-0.119331
0.0263807
-0.0650891
0.0313753
0.0412506
0.0322836
0.135968
0.0305105
0.239419
0.0303108
0.165496
0.032402
0.101208
0.0336428
-0.0182847
0.0337117
-0.157042
0.0340653
-0.1684
0.0339978
-0.282092
0.033242
-0.0886382
0.117404
0.0196262
-0.00908701
0.0178668
-0.0127757
0.0160647
-0.0154233
0.0151661
-0.0128544
0.0156833
-0.00349799
0.0181762
0.0101861
0.0227647
0.0255496
0.0280413
0.0446454
0.0319621
0.0454697
0.0330825
0.0131666
0.0313792
-0.042284
0.0287555
-0.0883243
0.0258374
-0.111921
0.0235861
-0.131149
0.022612
-0.123153
0.0212035
-0.117918
0.0193276
-0.109912
0.020288
-0.120292
0.0258148
-0.0706159
0.0309936
0.0360719
0.0321225
0.134839
0.0304171
0.241124
0.0302047
0.165709
0.0323003
0.0991125
0.0334885
-0.0194729
0.0335259
-0.157079
0.0338886
-0.168762
0.0338344
-0.282037
0.0331099
-0.0879137
0.118067
0.0465719
-0.00532893
-0.05033
0.0428926
-0.00909636
0.0389422
-0.0114729
0.0351528
-0.00906505
0.0326169
-0.000962077
0.0327187
0.0100844
0.0359879
0.0222803
0.0425615
0.0380718
0.0518559
0.0361753
0.0601517
0.00487076
0.0639097
-0.046042
0.0631947
-0.0876093
0.0595224
-0.108249
0.0547556
-0.126382
0.0506842
-0.119082
0.0463211
-0.113555
0.0419271
-0.105518
0.0402713
-0.118636
0.0425502
-0.0728949
0.0439521
0.03467
0.0407236
0.138068
0.0382152
0.243633
0.0418961
0.162028
0.0485023
0.0925063
0.0531082
-0.0240789
0.0534828
-0.157454
0.0534313
-0.168711
0.0511585
-0.279765
0.0476609
-0.0844161
0.119622
0.056027
-0.00214179
-0.0592141
0.052242
-0.00531136
0.0482579
-0.00748891
0.0445491
-0.00535624
0.0419102
0.00167684
0.0415491
0.0104455
0.0440837
0.0197457
0.0501538
0.0320017
0.058831
0.0274982
0.0662392
-0.00253752
0.0689054
-0.0487081
0.067243
-0.085947
0.0629271
-0.103933
0.0577826
-0.121237
0.0534374
-0.114737
0.0490585
-0.109176
0.0446528
-0.101112
0.0427615
-0.116745
0.0448478
-0.0749811
0.0460404
0.0334773
0.0426003
0.141508
0.0401647
0.246069
0.0444639
0.157728
0.0515639
0.0854063
0.0562564
-0.0287714
0.0564465
-0.157644
0.0562135
-0.168478
0.0536306
-0.277182
0.0497848
-0.0805703
0.121303
0.0639337
0.000685261
-0.0667607
0.0606398
-0.00201748
0.0570771
-0.00392619
0.0537998
-0.00207897
0.0515016
0.00397505
0.0510303
0.0109168
0.0530348
0.0177413
0.0584797
0.0265568
0.0663196
0.0196583
0.0725119
-0.0087298
0.0739163
-0.0501125
0.0712737
-0.0833044
0.0664216
-0.0990809
0.0609815
-0.115797
0.0563622
-0.110117
0.0519578
-0.104772
0.0475509
-0.0967052
0.0453968
-0.11459
0.0472379
-0.0768222
0.0482076
0.0325076
0.0445397
0.145176
0.0423276
0.248281
0.047293
0.152763
0.0548866
0.0778128
0.0596305
-0.0335153
0.0595792
-0.157592
0.0591256
-0.168024
0.0561859
-0.274242
0.0519611
-0.0763455
0.123104
0.0706029
0.00302921
-0.0729469
0.067908
0.000677469
0.0649489
-0.00096713
0.0623063
0.000563707
0.0606342
0.00564715
0.0604217
0.0111292
0.0622404
0.0159227
0.0671361
0.021661
0.0738988
0.0128956
0.0786173
-0.0134483
0.0786952
-0.0501904
0.0751718
-0.0797811
0.0698952
-0.0938043
0.0642511
-0.110153
0.0593981
-0.105264
0.0549856
-0.100359
0.0506099
-0.0923295
0.0481664
-0.112147
0.0497029
-0.0783588
0.0504408
0.0317697
0.0465833
0.149033
0.0447168
0.250147
0.0504244
0.147055
0.0585055
0.0697317
0.0632335
-0.0382433
0.0628845
-0.157244
0.0621627
-0.167302
0.0588153
-0.270895
0.0541835
-0.0717138
0.12502
0.0762406
0.00490778
-0.0781192
0.0741129
0.00280525
0.0717739
0.00137183
0.0697972
0.00254037
0.0688102
0.00663424
0.0690477
0.0108917
0.0709374
0.014033
0.0753956
0.0172028
0.0809919
0.00729929
0.0841981
-0.0166545
0.0830996
-0.0490918
0.0789094
-0.0755909
0.0733617
-0.0882566
0.0676114
-0.104403
0.0625591
-0.100212
0.0581457
-0.0959461
0.0538315
-0.0880152
0.051073
-0.109388
0.0522328
-0.0795186
0.0527253
0.0312772
0.0487488
0.15301
0.0473877
0.251508
0.0539072
0.140536
0.0624475
0.0611914
0.067075
-0.0428708
0.0663656
-0.156534
0.0653227
-0.166259
0.0615096
-0.267081
0.0564432
-0.0666474
0.127033
0.0810654
0.00637403
-0.0825316
0.0794415
0.00442916
0.0776778
0.00313553
0.0762822
0.00393593
0.0758799
0.00703662
0.0765552
0.0102163
0.0785884
0.0119998
0.0826546
0.0131366
0.0871462
0.00280771
0.0890467
-0.018555
0.0870841
-0.0471293
0.0824951
-0.071002
0.0768308
-0.0825922
0.0710654
-0.0986376
0.0658506
-0.0949972
0.0614395
-0.091535
0.0572149
-0.0837906
0.0541137
-0.106287
0.0548165
-0.0802215
0.0550453
0.0310485
0.05105
0.157005
0.0504051
0.252153
0.0578004
0.133141
0.0667372
0.0522546
0.0711626
-0.0472962
0.0700234
-0.155395
0.0686011
-0.164837
0.0642558
-0.262736
0.058729
-0.0611206
0.129124
0.0853541
0.00746536
-0.0864455
0.0841509
0.00563238
0.0828747
0.00441171
0.0819455
0.00486518
0.0819636
0.00701851
0.0829486
0.00923133
0.0850566
0.00989172
0.0887045
0.00948866
0.0922414
-0.000729187
0.0931774
-0.0194909
0.0907081
-0.0446599
0.0859774
-0.0662713
0.0803288
-0.0769436
0.0746216
-0.0929304
0.0692811
-0.0896567
0.0648702
-0.0871241
0.0607583
-0.0796787
0.0572799
-0.102809
0.0574312
-0.0803727
0.0573791
0.0311006
0.0534975
0.160887
0.0538395
0.251811
0.0621643
0.124816
0.0713938
0.0430251
0.0755
-0.0514024
0.0738559
-0.153751
0.0719911
-0.162972
0.0670379
-0.257783
0.0610277
-0.0551104
0.131257
0.0893643
0.00823982
-0.0901388
0.0884917
0.00650504
0.0876049
0.00529844
0.0870336
0.00543646
0.0873164
0.00673579
0.0884594
0.00808827
0.0905244
0.00782672
0.0937093
0.00630376
0.0964653
-0.00348519
0.0967752
-0.0198008
0.0940973
-0.041982
0.0894227
-0.0615968
0.0838858
-0.0714066
0.0782874
-0.087332
0.0728597
-0.084229
0.068442
-0.0827064
0.0644581
-0.0756948
0.0605588
-0.0989096
0.0600393
-0.0798532
0.0596921
0.0314478
0.056104
0.164475
0.0577669
0.250148
0.0670542
0.115528
0.0764277
0.0336516
0.0800853
-0.05506
0.077858
-0.151524
0.0754834
-0.160598
0.069836
-0.252136
0.0633246
-0.048599
0.13339
0.0932857
0.00875777
-0.0938037
0.0926735
0.00711721
0.0920878
0.00588419
0.0917833
0.00574091
0.0922134
0.00630574
0.0933903
0.00691141
0.0953125
0.00590448
0.0980131
0.00360316
0.100146
-0.0056181
0.100083
-0.0197375
0.0973896
-0.0392889
0.092896
-0.0571031
0.0875317
-0.0660423
0.0820691
-0.0818694
0.0765968
-0.0787567
0.0721604
-0.07827
0.0683077
-0.0718421
0.0639364
-0.0945384
0.0625893
-0.0785061
0.061933
0.0321042
0.0588908
0.167517
0.0622685
0.246771
0.072514
0.105283
0.081837
0.0243286
0.0849092
-0.0581322
0.0820208
-0.148635
0.0790663
-0.157643
0.0726277
-0.245697
0.0656036
-0.0415749
0.135459
0.0972484
0.00906194
-0.0975526
0.0968483
0.00751734
0.096493
0.00623948
0.0963838
0.00585009
0.0968849
0.00580466
0.0980129
0.00578342
0.0997325
0.00418491
0.101963
0.00137252
0.103592
-0.0072472
0.103313
-0.019458
0.1007
-0.0366763
0.0964488
-0.0528519
0.0912929
-0.0608864
0.0859716
-0.0765482
0.0805042
-0.0732893
0.0760329
-0.0737988
0.0722974
-0.0681066
0.0674007
-0.0896416
0.0650246
-0.07613
0.0640371
0.0330917
0.0618923
0.169662
0.0674229
0.24124
0.07857
0.0941359
0.0876029
0.0152957
0.0899532
-0.0604826
0.0863313
-0.145013
0.0827257
-0.154038
0.0753882
-0.238359
0.0678486
-0.0340353
0.137385
0.10133
0.00918505
-0.101453
0.101107
0.00773983
0.100931
0.00641552
0.100965
0.00581677
0.101492
0.00527734
0.102525
0.0047508
0.104018
0.00269161
0.105816
-0.000425429
0.107025
-0.0084567
0.106612
-0.019045
0.10411
-0.0341735
0.100117
-0.0488598
0.0951916
-0.0559605
0.0899992
-0.0713557
0.0845942
-0.0678843
0.0800694
-0.069274
0.0764129
-0.0644501
0.0709499
-0.0841786
0.0672955
-0.0724757
0.0659379
0.0344494
0.0651586
0.170441
0.0733043
0.233094
0.0852228
0.0822173
0.0936859
0.0068327
0.095188
-0.0619847
0.0907724
-0.140598
0.0864458
-0.149711
0.0780925
-0.230006
0.0700463
-0.0259892
0.139063
0.105564
0.00915431
-0.105534
0.105495
0.00780894
0.105463
0.00644769
0.105601
0.0056785
0.10613
0.00474843
0.107048
0.00383301
0.108312
0.00142765
0.109727
-0.00184076
0.110576
-0.0093051
0.110067
-0.0185359
0.107669
-0.0317764
0.103926
-0.0451162
0.0992463
-0.051281
0.0941587
-0.0662681
0.088877
-0.0626025
0.0842851
-0.0646821
0.0806368
-0.0608018
0.0745958
-0.0781375
0.0693892
-0.0672692
0.0675944
0.0362442
0.0687654
0.16927
0.0799695
0.22189
0.0924405
0.0697464
0.100022
-0.000749245
0.100573
-0.0625349
0.0953239
-0.135349
0.0902106
-0.144598
0.0807176
-0.220513
0.0721892
-0.0174607
0.140361
0.109964
0.00899159
-0.109801
0.110029
0.00774379
0.110115
0.00636154
0.110332
0.00546188
0.110848
0.00423182
0.111648
0.00303354
0.112693
0.00038297
0.113776
-0.00292418
0.114309
-0.0098378
0.113717
-0.0179447
0.111412
-0.0294713
0.107891
-0.0415948
0.103471
-0.0468612
0.0984628
-0.0612597
0.0933571
-0.0574969
0.0887035
-0.0600284
0.0849562
-0.0570546
0.0783669
-0.0715482
0.0713788
-0.0602811
0.0690394
0.0385836
0.0728236
0.165486
0.0874429
0.207271
0.100152
0.0570372
0.106522
-0.00711923
0.106055
-0.0620673
0.0999632
-0.129258
0.0940059
-0.13864
0.0832474
-0.209755
0.0742807
-0.00849406
0.141112
0.114534
0.00871653
-0.114259
0.114715
0.00756275
0.114899
0.00617788
0.115175
0.0051864
0.11567
0.00373672
0.116356
0.00234687
0.117198
-0.000458401
0.117996
-0.00372298
0.118254
-0.0100955
0.117584
-0.0172741
0.11536
-0.0272475
0.112028
-0.0382629
0.107876
-0.0427092
0.102933
-0.0563171
0.0980319
-0.0525957
0.0933541
-0.0553506
0.0893796
-0.0530801
0.082321
-0.0644896
0.0734911
-0.0514511
0.0704944
0.0415802
0.0775213
0.158459
0.0957206
0.189072
0.108244
0.0445137
0.113071
-0.0119457
0.111572
-0.0605684
0.104668
-0.122354
0.0978219
-0.131794
0.0856785
-0.197611
0.0763442
0.000840291
0.141115
0.119281
0.00834825
-0.118912
0.119559
0.00728405
0.119822
0.00591542
0.120141
0.00486718
0.120608
0.00326952
0.121192
0.00176316
0.121847
-0.00111309
0.122403
-0.00427973
0.122426
-0.0101185
0.121674
-0.0165217
0.119528
-0.0251017
0.116353
-0.0350878
0.112466
-0.0388219
0.107598
-0.0514496
0.102897
-0.0478946
0.0982624
-0.0507157
0.0939589
-0.0487765
0.0865511
-0.0570818
0.076216
-0.041116
0.0727058
0.0450904
0.0833613
0.147803
0.104827
0.167606
0.116557
0.0327837
0.11954
-0.0149295
0.117059
-0.0580871
0.10942
-0.114715
0.101658
-0.124032
0.0880312
-0.183985
0.0784348
0.0104367
0.140126
0.12421
0.00790506
-0.123767
0.124569
0.00692556
0.124893
0.0055913
0.125243
0.00451703
0.125677
0.00283512
0.126168
0.00127256
0.126656
-0.00160144
0.127006
-0.00462966
0.126835
-0.00994731
0.125998
-0.0156841
0.123931
-0.0230349
0.120887
-0.0320436
0.117248
-0.0351829
0.112488
-0.04669
0.107959
-0.0433658
0.103437
-0.046193
0.0987934
-0.0441333
0.09119
-0.0494785
0.0802894
-0.0302154
0.0771473
0.0482326
0.0912882
0.133663
0.114762
0.144132
0.124849
0.0226968
0.125803
-0.0158832
0.122461
-0.0547456
0.114205
-0.106459
0.105523
-0.115349
0.0903646
-0.168827
0.0806577
0.0201436
0.13787
0.129334
0.00740403
-0.128833
0.129755
0.00650446
0.130125
0.00522129
0.130495
0.00414687
0.130894
0.00243653
0.1313
0.000866216
0.131643
-0.00194471
0.131816
-0.00480252
0.131489
-0.00962035
0.130566
-0.0147609
0.12858
-0.0210487
0.125649
-0.0291131
0.122233
-0.0317663
0.117624
-0.0420812
0.113243
-0.0389851
0.108869
-0.0418191
0.103994
-0.0392584
0.0963649
-0.041849
0.0862942
-0.0201448
0.085108
0.0494188
0.101852
0.116919
0.125145
0.120839
0.132743
0.0150987
0.13172
-0.0148601
0.127745
-0.0507708
0.119024
-0.0977377
0.109434
-0.105759
0.0927976
-0.15219
0.0831932
0.0297481
0.134056
0.134664
0.00686072
-0.134121
0.135132
0.00603682
0.135534
0.00481905
0.135914
0.0037669
0.136276
0.00207445
0.136606
0.000536284
0.136825
-0.00216364
0.136847
-0.00482461
0.136398
-0.00917089
0.135394
-0.0137576
0.133487
-0.0191412
0.130662
-0.0262883
0.127441
-0.0285453
0.123017
-0.0376575
0.118789
-0.0347569
0.114557
-0.037587
0.109638
-0.0343397
0.102246
-0.0344573
0.0941273
-0.0120256
0.0961268
0.0474193
0.113968
0.0990779
0.134962
0.0998451
0.139792
0.0102682
0.137217
-0.0122848
0.132918
-0.0464715
0.123893
-0.0887132
0.113519
-0.0953857
0.095537
-0.134208
0.0863299
0.0389552
0.12842
0.140218
0.00628878
-0.139646
0.140717
0.00553718
0.14114
0.00439653
0.141522
0.00338514
0.141847
0.00174926
0.142108
0.000274794
0.142222
-0.00227698
0.142117
-0.00472037
0.141572