/*--------------------------------*- C++ -*----------------------------------*\
  =========                 |
  \\      /  F ield         | OpenFOAM: The Open Source CFD Toolbox
   \\    /   O peration     | Website:  https://openfoam.org
    \\  /    A nd           | Version:  7
     \\/     M anipulation  |
\*---------------------------------------------------------------------------*/
FoamFile
{
    version     2.0;
    format      ascii;
    class       volVectorField;
    location    "115";
    object      U;
}
// * * * * * * * * * * * * * * * * * * * * * * * * * * * * * * * * * * * * * //

dimensions      [0 1 -1 0 0 0 0];

internalField   nonuniform List<vector> 
2125
(
(0.000256526 -0.0593823 1.06884e-21)
(-0.00343938 -0.142314 -3.06368e-21)
(-0.0144086 -0.19798 -3.57059e-21)
(-0.0297926 -0.231037 3.55033e-21)
(-0.047666 -0.248714 -3.26854e-21)
(-0.0660432 -0.258327 -1.75138e-21)
(-0.08342 -0.265067 3.01828e-21)
(-0.0990897 -0.271135 3.75616e-21)
(-0.11252 -0.27605 -6.22588e-22)
(-0.123322 -0.277103 1.8722e-21)
(0.00187905 -0.0569803 -1.18249e-21)
(-0.000909048 -0.136053 3.64323e-21)
(-0.0132339 -0.188912 -8.43174e-21)
(-0.0308291 -0.220321 7.64916e-21)
(-0.051245 -0.237491 3.55812e-22)
(-0.0722299 -0.247492 5.68335e-21)
(-0.0922521 -0.255162 -9.91714e-21)
(-0.110784 -0.26236 -1.46261e-20)
(-0.127485 -0.268365 -2.85095e-21)
(-0.142366 -0.270332 6.53356e-21)
(0.00324785 -0.0536742 1.0454e-21)
(0.00111013 -0.128098 7.82705e-21)
(-0.0125359 -0.177987 1.85117e-20)
(-0.0320944 -0.207884 -1.67671e-20)
(-0.054634 -0.224765 -3.75252e-21)
(-0.0776572 -0.235327 -3.46385e-21)
(-0.0995884 -0.243991 1.76529e-20)
(-0.120036 -0.252257 1.11546e-20)
(-0.138786 -0.259153 2.84281e-21)
(-0.156125 -0.261728 -2.01418e-20)
(0.00428695 -0.0495402 3.68991e-21)
(0.00251508 -0.118628 -4.62209e-21)
(-0.012373 -0.16544 -3.411e-20)
(-0.0335946 -0.193979 3.05948e-21)
(-0.0577973 -0.210793 9.416e-21)
(-0.0822608 -0.2221 -7.27835e-21)
(-0.105339 -0.231864 -5.53354e-22)
(-0.126716 -0.241205 -2.94211e-21)
(-0.146225 -0.24886 6.82266e-21)
(-0.164265 -0.251776 1.95708e-20)
(0.00493363 -0.0446825 2.52402e-21)
(0.00322736 -0.107862 -1.44558e-20)
(-0.0127806 -0.15153 3.49805e-20)
(-0.0353179 -0.178866 -1.58032e-20)
(-0.0606896 -0.195827 -8.31537e-23)
(-0.0859791 -0.20807 2.19423e-20)
(-0.109439 -0.219082 -1.0182e-20)
(-0.130757 -0.229589 1.23555e-21)
(-0.149729 -0.237976 -4.18128e-21)
(-0.166639 -0.241021 1.1642e-21)
(0.00514244 -0.0392289 3.01556e-20)
(0.00319916 -0.0960499 3.69757e-20)
(-0.0137632 -0.136535 -9.55e-21)
(-0.0372254 -0.162809 1.81593e-20)
(-0.0632413 -0.180106 5.62097e-21)
(-0.0887299 -0.193471 -8.20584e-21)
(-0.111811 -0.205916 -3.12082e-21)
(-0.132104 -0.217767 -1.3399e-20)
(-0.149294 -0.226986 2.89054e-21)
(-0.163215 -0.230032 -1.74151e-20)
(0.00488865 -0.0333269 -2.90385e-20)
(0.00241825 -0.0834646 -1.92298e-20)
(-0.0152888 -0.120746 1.55337e-20)
(-0.0392415 -0.146071 -2.69253e-20)
(-0.0653417 -0.163852 2.987e-21)
(-0.0903829 -0.1785 3.15822e-20)
(-0.112327 -0.192577 -5.67173e-21)
(-0.130653 -0.206034 3.70304e-20)
(-0.144897 -0.21633 -9.8968e-22)
(-0.15395 -0.219361 -1.45541e-20)
(0.00417091 -0.0271397 2.39741e-20)
(0.000911566 -0.0703971 -4.3743e-20)
(-0.0172842 -0.104463 -1.74602e-20)
(-0.0412454 -0.128909 2.06202e-20)
(-0.0668245 -0.147266 5.99049e-22)
(-0.0907321 -0.163311 -5.9116e-20)
(-0.110754 -0.179203 -3.39419e-21)
(-0.126171 -0.194572 -2.89793e-20)
(-0.136389 -0.206336 -3.67428e-20)
(-0.138646 -0.209486 2.12262e-20)
(0.00301269 -0.0208407 -1.33452e-20)
(-0.00125327 -0.0571508 6.56699e-21)
(-0.0196332 -0.0879927 1.60483e-20)
(-0.043068 -0.111582 -1.42733e-20)
(-0.0674581 -0.130538 -5.0455e-20)
(-0.089475 -0.148018 1.74323e-20)
(-0.106719 -0.165849 2.56058e-21)
(-0.118219 -0.183425 4.32638e-20)
(-0.123384 -0.19716 5.55558e-20)
(-0.116801 -0.200722 -2.45891e-20)
(0.00146242 -0.014608 2.08352e-20)
(-0.00396903 -0.0440349 1.91336e-20)
(-0.0221788 -0.0716493 -2.78265e-21)
(-0.0444935 -0.0943529 7.13145e-20)
(-0.0669454 -0.113853 3.03833e-20)
(-0.0862061 -0.132712 2.27716e-20)
(-0.099685 -0.152493 3.20952e-20)
(-0.106103 -0.172482 -1.40569e-20)
(-0.105172 -0.188737 -1.8479e-20)
(-0.0874838 -0.193132 -2.89528e-20)
(-0.000408521 -0.00861783 -2.05119e-21)
(-0.00709308 -0.0313574 -3.02981e-20)
(-0.0247294 -0.0557504 -2.18662e-20)
(-0.0452683 -0.0774961 -3.51774e-20)
(-0.0649366 -0.0974107 -2.7889e-20)
(-0.080432 -0.117487 2.81286e-20)
(-0.0889695 -0.139082 -2.68765e-20)
(-0.088884 -0.161498 -1.83358e-20)
(-0.0807176 -0.180761 2.38088e-21)
(-0.0493494 -0.186385 7.94602e-21)
(-0.00250971 -0.0030363 -5.7313e-20)
(-0.0104548 -0.0194171 2.7612e-20)
(-0.0270694 -0.0406161 2.02515e-20)
(-0.0451167 -0.0613031 1.36095e-20)
(-0.0610532 -0.0814452 -2.48776e-20)
(-0.0716094 -0.10248 -2.09289e-20)
(-0.0737993 -0.125583 3.01724e-20)
(-0.0654491 -0.150166 -2.43662e-20)
(-0.048719 -0.172727 -1.8342e-21)
(-0.000926156 -0.179476 -2.36079e-20)
(-0.00473569 0.00198516 4.80194e-20)
(-0.0138648 -0.00849328 1.9735e-20)
(-0.0289721 -0.0265628 1.18273e-21)
(-0.0437602 -0.0460844 -2.47627e-20)
(-0.0549216 -0.0662344 1.72953e-21)
(-0.0592032 -0.0879018 2.77398e-20)
(-0.0534068 -0.112067 -7.8111e-21)
(-0.0346458 -0.138258 -9.37889e-21)
(-0.00754979 -0.164232 -2.0155e-20)
(0.0588517 -0.170499 3.62674e-20)
(-0.00697391 0.00632446 3.26268e-20)
(-0.0171231 0.00116683 -5.31907e-20)
(-0.0302111 -0.0138937 -4.13202e-20)
(-0.0409357 -0.0321622 1.78724e-20)
(-0.0462056 -0.052102 3.67065e-20)
(-0.0427504 -0.0740546 3.13444e-20)
(-0.027167 -0.0987488 -3.30984e-20)
(0.0043585 -0.125738 6.29905e-20)
(0.0449721 -0.155459 -1.90119e-20)
(0.130899 -0.157949 -4.14124e-20)
(-0.00911652 0.00989491 -4.8916e-20)
(-0.0200351 0.00936016 2.96238e-20)
(-0.0305701 -0.0028841 -1.44431e-20)
(-0.0364047 -0.0198566 1.50445e-21)
(-0.0346233 -0.0393985 1.56224e-20)
(-0.0218914 -0.0613057 -4.94541e-20)
(0.00534898 -0.0859528 4.35712e-20)
(0.0514416 -0.112662 -4.1999e-20)
(0.11002 -0.145976 6.55135e-20)
(0.216784 -0.14233 2.22465e-20)
(-0.0110634 0.0126469 1.04875e-20)
(-0.022417 0.0159397 5.79637e-20)
(-0.0298482 0.00623541 -1.47173e-20)
(-0.0299521 -0.00945953 1.49483e-20)
(-0.0199389 -0.0284647 1.76724e-20)
(0.00365193 -0.0500421 -5.36099e-21)
(0.0446201 -0.0740708 3.77946e-20)
(0.106782 -0.0997828 2.17095e-21)
(0.186102 -0.134918 -4.11886e-20)
(0.314767 -0.124571 5.32183e-20)
(-0.0127304 0.0145728 -2.78953e-20)
(-0.0240997 0.0208229 -5.49829e-20)
(-0.0278541 0.0132975 4.7954e-20)
(-0.0213738 -0.00120234 2.42783e-20)
(-0.00193808 -0.0195856 -1.13059e-19)
(0.0340632 -0.0406262 9.25061e-20)
(0.090681 -0.0636375 -8.31298e-20)
(0.170785 -0.0879172 1.52176e-21)
(0.272787 -0.12216 -1.75705e-20)
(0.419756 -0.10486 -4.84236e-20)
(-0.0140534 0.0157049 2.43272e-20)
(-0.0249302 0.0239964 -3.34633e-21)
(-0.0243951 0.0182155 -1.17738e-20)
(-0.0104524 0.0047779 -1.30635e-21)
(0.0196336 -0.0129506 -7.13603e-21)
(0.0695783 -0.0332536 -2.94023e-20)
(0.143604 -0.0548163 1.23114e-20)
(0.24298 -0.0771352 -1.95632e-20)
(0.369481 -0.107463 6.25346e-21)
(0.525728 -0.0835404 1.72223e-21)
(-0.0149882 0.0161088 -4.96997e-20)
(-0.024766 0.0255154 -3.65446e-21)
(-0.0192556 0.020993 5.50125e-21)
(0.00308848 0.00843281 2.25256e-21)
(0.0451007 -0.00859004 3.71622e-20)
(0.110556 -0.0279002 -1.08741e-19)
(0.203612 -0.0475066 7.28675e-20)
(0.32318 -0.0674583 -5.40688e-20)
(0.474489 -0.089632 4.31018e-20)
(0.627134 -0.0617152 4.45574e-20)
(-0.0155075 0.0158739 -6.10756e-21)
(-0.0234705 0.0254961 2.778e-20)
(-0.0121927 0.0217191 -3.5119e-20)
(0.0196141 0.00984977 -1.10751e-20)
(0.0749178 -0.00634999 2.14528e-20)
(0.157486 -0.0243188 1.03401e-19)
(0.270947 -0.0413315 -2.05631e-20)
(0.41133 -0.0583535 1.01884e-20)
(0.584813 -0.0679604 -5.06967e-20)
(0.72241 -0.0445256 2.11099e-20)
(-0.0155937 0.0151034 -1.82638e-20)
(-0.0209002 0.0241049 -1.42231e-20)
(-0.00291366 0.0205813 3.47225e-21)
(0.0395663 0.00926614 1.39203e-20)
(0.10967 -0.0059161 -4.14455e-20)
(0.210948 -0.0220267 -1.68586e-20)
(0.34571 -0.0356645 -5.27128e-20)
(0.506696 -0.0485585 5.26347e-20)
(0.695261 -0.044692 5.35002e-20)
(0.815987 -0.0401221 -2.17654e-20)
(-0.0152304 0.013902 -8.70089e-21)
(-0.0168919 0.0215437 3.5453e-20)
(0.00893078 0.0178522 -3.99201e-20)
(0.0634848 0.00704046 -4.66365e-21)
(0.150021 -0.0067908 -1.89377e-20)
(0.271482 -0.0203239 4.13473e-20)
(0.427677 -0.0296768 5.30536e-20)
(0.607164 -0.0368324 -4.97671e-20)
(0.799175 -0.0256107 5.07942e-20)
(0.931872 -0.0306768 6.43142e-21)
(-0.0143924 0.012367 -2.51759e-20)
(-0.0112552 0.0180371 -7.18055e-20)
(0.0237448 0.0138732 7.02919e-20)
(0.0919732 0.00364833 1.01893e-20)
(0.196632 -0.00831915 1.50714e-20)
(0.33938 -0.0183534 8.84062e-21)
(0.515991 -0.022475 4.01331e-20)
(0.709264 -0.0229857 2.88987e-20)
(0.898626 -0.00799644 -9.94374e-20)
(1.03228 -0.0104455 -4.61716e-20)
(-0.00376683 0.0138185 1.74067e-20)
(0.0419734 0.00903759 -3.96363e-20)
(0.125644 -0.000339753 7.78793e-21)
(0.250038 -0.00973132 1.26193e-20)
(0.414463 -0.0152015 -8.97053e-20)
(0.608918 -0.013277 3.90632e-20)
(0.809485 -0.00717706 -2.58969e-20)
(0.990032 0.0103439 2.67254e-20)
(1.11229 0.0102004 -8.90185e-21)
(0.0640754 0.00377271 -1.83434e-21)
(0.165046 -0.00428939 -1.09141e-20)
(0.310488 -0.0102029 5.07626e-22)
(0.495883 -0.0100322 9.26727e-22)
(0.703881 -0.00161721 -5.9502e-20)
(0.904465 0.01033 7.77898e-21)
(1.0703 0.0291627 7.04439e-20)
(1.17719 0.0307192 3.04418e-20)
(0.0904856 -0.00147587 6.73629e-20)
(0.210569 -0.00753738 1.71348e-21)
(0.377794 -0.00893083 -2.81437e-20)
(0.582044 -0.00222342 7.5911e-20)
(0.797824 0.0125751 1.6331e-20)
(0.991323 0.0290949 5.81319e-22)
(1.13842 0.0481249 -3.11223e-20)
(1.22678 0.0503363 -3.88453e-20)
(0.262365 -0.00942656 -2.79509e-20)
(0.451226 -0.00521728 4.60971e-20)
(0.670704 0.00853986 -2.26425e-20)
(0.887712 0.0290344 -2.51541e-20)
(1.06814 0.048623 -6.09451e-21)
(1.19415 0.0668265 -1.77729e-20)
(1.26389 0.0687235 1.84694e-20)
(0.529484 0.00145097 2.48939e-20)
(0.75926 0.0222511 -8.23876e-20)
(0.971006 0.0473032 5.22724e-20)
(1.134 0.0684523 -2.35323e-20)
(1.23833 0.0849721 3.45285e-20)
(1.29051 0.0859065 9.2012e-21)
(1.04592 0.0668705 -1.37526e-20)
(1.18884 0.0882176 1.10156e-20)
(1.27222 0.102405 -2.6312e-20)
(1.30883 0.101956 -2.60242e-20)
(1.23327 0.107667 -3.46283e-20)
(1.29731 0.119079 6.42073e-22)
(1.32067 0.117052 1.80647e-20)
(1.31509 0.135032 2.57472e-20)
(1.32756 0.131376 -1.08333e-20)
(-0.144641 -0.268879 -1.57663e-22)
(-0.145518 -0.217376 3.34992e-23)
(-0.117847 -0.0900361 2.2571e-22)
(-0.0631429 0.117945 -2.29062e-22)
(0.0175436 0.365232 5.48307e-23)
(0.0968032 0.566651 1.39154e-22)
(0.150812 0.681543 -2.28531e-24)
(0.145703 0.738766 -6.57745e-23)
(0.111576 0.688962 -5.16417e-23)
(0.233404 0.436434 -5.55226e-23)
(0.463442 0.0284349 4.52872e-24)
(0.638858 -0.307428 -1.00721e-22)
(0.750688 -0.514075 5.25972e-23)
(0.80527 -0.586197 -1.31949e-23)
(0.810122 -0.558942 -7.90242e-24)
(0.720205 -0.620471 -7.36468e-24)
(0.616419 -0.508083 4.88256e-23)
(0.633452 -0.243449 9.35867e-23)
(0.790615 0.118964 3.61546e-24)
(0.899397 0.321676 3.59238e-23)
(0.916217 0.37676 -1.48304e-23)
(0.87404 0.552705 -9.74753e-24)
(0.853321 0.409225 -3.63081e-24)
(0.866792 0.320476 -1.42989e-23)
(0.930333 0.0195748 -2.05244e-23)
(0.959814 -0.331411 -1.38116e-23)
(0.979648 -0.339764 7.20819e-24)
(0.977795 -0.573371 4.03375e-23)
(0.968862 -0.19268 2.51605e-24)
(0.964429 0.190924 -8.70041e-24)
(-0.172595 -0.263154 7.37269e-23)
(-0.182622 -0.220683 -4.92342e-22)
(-0.165454 -0.100715 -7.9857e-23)
(-0.116661 0.0998137 5.68112e-22)
(-0.0363074 0.344086 -9.83899e-23)
(0.0459839 0.548797 -5.8564e-22)
(0.107078 0.673818 3.50854e-22)
(0.11017 0.740276 -3.34685e-22)
(0.108417 0.67878 1.89025e-22)
(0.264978 0.405182 -4.63635e-22)
(0.501211 -0.004457 7.86735e-22)
(0.674959 -0.330351 -6.24573e-22)
(0.777368 -0.526474 5.03711e-23)
(0.821095 -0.59057 2.95982e-22)
(0.820465 -0.553109 -3.80253e-23)
(0.733659 -0.607416 -4.15508e-23)
(0.62049 -0.502376 -1.6495e-22)
(0.627677 -0.253995 1.41093e-22)
(0.780548 0.102897 1.09901e-22)
(0.891434 0.313975 -1.43745e-22)
(0.909681 0.377864 -3.52935e-23)
(0.865209 0.555916 6.04161e-23)
(0.846123 0.40936 -4.67919e-24)
(0.861986 0.31729 -5.29972e-23)
(0.933061 0.0157942 4.13785e-23)
(0.964752 -0.33315 1.339e-22)
(0.983125 -0.340622 6.81399e-25)
(0.983798 -0.572748 -7.60159e-23)
(0.969759 -0.192464 -1.68865e-25)
(0.962505 0.191228 5.04759e-23)
(-0.193294 -0.255441 3.40054e-21)
(-0.211898 -0.222418 -2.637e-21)
(-0.205562 -0.110847 1.86112e-21)
(-0.164434 0.0806086 -1.70323e-21)
(-0.0852408 0.321102 -5.25025e-22)
(-0.000482084 0.528927 2.8824e-21)
(0.0676364 0.663999 -9.39196e-22)
(0.0810982 0.73782 -9.28769e-22)
(0.116431 0.663764 4.11867e-22)
(0.301338 0.373001 -6.16262e-23)
(0.540892 -0.035764 2.08713e-22)
(0.711894 -0.351185 -5.22833e-23)
(0.804627 -0.536781 1.538e-24)
(0.837461 -0.593811 1.34951e-22)
(0.831085 -0.54717 2.19577e-23)
(0.747291 -0.59417 -9.57795e-23)
(0.626299 -0.49607 3.0676e-22)
(0.624027 -0.264478 9.92381e-23)
(0.771469 0.0862791 -6.22289e-23)
(0.88417 0.30583 -8.63398e-23)
(0.903624 0.378779 5.32666e-23)
(0.85627 0.559133 7.73979e-23)
(0.838955 0.409499 -1.0965e-22)
(0.857685 0.313914 4.05824e-23)
(0.936136 0.0119583 -1.19326e-22)
(0.969773 -0.334752 -1.56369e-22)
(0.986655 -0.341451 1.47323e-23)
(0.989693 -0.572052 1.31429e-22)
(0.970715 -0.192072 -7.87677e-24)
(0.960553 0.191591 -3.54616e-23)
(-0.206113 -0.246112 -3.66534e-21)
(-0.232402 -0.222577 1.75915e-21)
(-0.236541 -0.120045 -2.35786e-22)
(-0.204917 0.0608489 4.06259e-22)
(-0.128305 0.296526 -6.27796e-22)
(-0.0418233 0.506929 -1.69277e-21)
(0.0334109 0.651719 8.73227e-22)
(0.059904 0.730844 -2.03254e-22)
(0.134796 0.644381 4.58796e-22)
(0.341775 0.340788 1.64623e-21)
(0.582315 -0.0648923 -5.11046e-22)
(0.749401 -0.369871 4.48077e-22)
(0.8323 -0.545035 -5.23406e-22)
(0.854257 -0.59594 -3.40726e-22)
(0.841989 -0.541163 5.63793e-23)
(0.760982 -0.580838 -1.05186e-22)
(0.633766 -0.489234 -2.62964e-22)
(0.62263 -0.274783 -8.60801e-23)
(0.76348 0.0692031 1.18983e-22)
(0.877663 0.297242 -3.9133e-23)
(0.898048 0.37952 -1.49865e-22)
(0.847268 0.562378 -9.69984e-24)
(0.831885 0.409626 3.96275e-23)
(0.85393 0.310342 3.28612e-24)
(0.939545 0.0080862 3.91352e-23)
(0.974867 -0.336208 5.24508e-23)
(0.990253 -0.342243 1.97463e-23)
(0.99546 -0.571285 4.00226e-23)
(0.971711 -0.191506 3.97471e-23)
(0.958567 0.192013 -1.10961e-23)
(-0.210776 -0.235606 2.5475e-21)
(-0.243556 -0.22126 2.80738e-21)
(-0.256972 -0.127952 1.58108e-21)
(-0.236405 0.041191 -1.69649e-21)
(-0.164304 0.27063 -3.00442e-22)
(-0.0770383 0.482811 -8.84561e-22)
(0.00540229 0.636549 -1.2988e-21)
(0.0479683 0.718991 -4.40948e-22)
(0.162163 0.62125 1.89429e-22)
(0.385622 0.309305 3.4581e-25)
(0.625237 -0.0917373 -7.80115e-22)
(0.78724 -0.386362 2.50814e-22)
(0.860224 -0.551284 9.11992e-22)
(0.871374 -0.596982 -3.95729e-22)
(0.853169 -0.53512 2.97175e-22)
(0.774642 -0.567521 2.90804e-23)
(0.642762 -0.481951 5.64189e-22)
(0.623584 -0.284806 -8.95723e-23)
(0.756698 0.0517664 -1.94549e-22)
(0.871963 0.28821 -2.81327e-23)
(0.892947 0.380101 -1.87694e-22)
(0.838261 0.565666 -2.5443e-22)
(0.824983 0.409723 -7.10173e-24)
(0.85075 0.306572 1.25634e-22)
(0.943271 0.00419878 1.63642e-24)
(0.980028 -0.337511 4.41976e-23)
(0.993932 -0.342993 -8.94504e-23)
(1.00108 -0.570443 -1.85544e-22)
(0.972726 -0.190769 -7.25761e-23)
(0.956543 0.192498 9.10955e-23)
(-0.207291 -0.224324 1.55976e-21)
(-0.245218 -0.218618 3.48208e-21)
(-0.265857 -0.134351 1.25284e-21)
(-0.257195 0.0223964 -4.90669e-21)
(-0.191799 0.243811 4.27128e-21)
(-0.104932 0.456699 -1.85141e-21)
(-0.0153578 0.61804 -2.79039e-22)
(0.0464062 0.702144 -9.0363e-22)
(0.196973 0.595108 -1.07732e-21)
(0.432193 0.279134 2.85701e-21)
(0.669343 -0.116107 -9.64976e-22)
(0.825179 -0.400622 -1.881e-21)
(0.888233 -0.555585 4.42654e-23)
(0.888715 -0.596966 5.37035e-22)
(0.864593 -0.529067 -4.86293e-22)
(0.788213 -0.554308 4.96147e-22)
(0.653105 -0.474316 -5.53463e-22)
(0.626938 -0.294458 3.4408e-22)
(0.75125 0.0340714 3.40928e-23)
(0.867115 0.278742 2.9714e-22)
(0.888316 0.380533 1.42986e-22)
(0.829315 0.56901 1.12059e-22)
(0.818317 0.409778 2.07307e-23)
(0.848171 0.302606 1.64329e-22)
(0.947301 0.000319771 1.06653e-22)
(0.985247 -0.338655 -5.492e-23)
(0.9977 -0.343692 2.52468e-22)
(1.00652 -0.569525 -1.67635e-22)
(0.973736 -0.189866 1.15766e-22)
(0.954473 0.193046 -1.46853e-22)
(-0.195812 -0.212633 -3.0081e-21)
(-0.237669 -0.2149 5.5333e-22)
(-0.262808 -0.139265 6.32205e-22)
(-0.265827 0.0057715 -5.39732e-22)
(-0.20923 0.216581 6.67876e-22)
(-0.124199 0.428749 7.2216e-22)
(-0.0278116 0.595852 4.44232e-22)
(0.0557975 0.680441 -6.63641e-22)
(0.237692 0.566776 -1.15965e-21)
(0.48075 0.250702 6.65045e-22)
(0.714251 -0.13785 3.01034e-22)
(0.862991 -0.412629 1.59894e-21)
(0.916158 -0.558002 -1.34627e-21)
(0.906193 -0.595923 -1.6821e-22)
(0.876213 -0.523028 6.5561e-22)
(0.801668 -0.541282 2.18225e-22)
(0.664581 -0.466429 3.69309e-24)
(0.63267 -0.303671 -5.18913e-24)
(0.747264 0.016225 -1.2568e-22)
(0.863154 0.26885 -4.61154e-22)
(0.884145 0.380826 -7.17759e-24)
(0.820506 0.572419 -1.29849e-22)
(0.811952 0.409779 -7.04914e-23)
(0.846209 0.29845 -9.26223e-23)
(0.951622 -0.00353018 -1.84407e-22)
(0.990519 -0.339633 -4.08023e-23)
(1.00156 -0.344334 -2.3766e-22)
(1.01176 -0.568528 1.92312e-22)
(0.974715 -0.188801 -1.09472e-22)
(0.952354 0.193657 1.47596e-22)
(-0.176464 -0.200883 3.3701e-21)
(-0.221458 -0.210444 5.1113e-22)
(-0.247992 -0.142961 -8.89212e-23)
(-0.261411 -0.00939874 -2.82957e-22)
(-0.215288 0.189428 -5.54739e-22)
(-0.133528 0.399153 2.6414e-21)
(-0.0308981 0.56985 -2.01214e-21)
(0.0760086 0.65426 -9.8095e-22)
(0.28291 0.537087 -1.21598e-21)
(0.530522 0.224328 4.58002e-22)
(0.759543 -0.156862 2.75686e-21)
(0.900457 -0.422379 -1.0047e-21)
(0.943831 -0.55861 -1.26404e-21)
(0.923735 -0.593886 1.28159e-21)
(0.887965 -0.517022 -1.17224e-21)
(0.815002 -0.528509 2.26809e-22)
(0.676962 -0.458388 3.31721e-23)
(0.640667 -0.312397 2.29414e-22)
(0.744854 -0.00165011 -3.12316e-22)
(0.860105 0.258554 4.90569e-22)
(0.880425 0.380984 -3.35844e-23)
(0.811911 0.575894 6.28145e-22)
(0.805946 0.409719 1.07145e-22)
(0.844872 0.294114 -3.80221e-22)
(0.956222 -0.00733161 3.6826e-23)
(0.995843 -0.340443 -1.38324e-22)
(1.00549 -0.344909 3.11401e-23)
(1.01678 -0.567448 -1.57294e-22)
(0.975637 -0.187581 6.87118e-23)
(0.950178 0.194334 -1.24134e-22)
(-0.149161 -0.189338 -2.16954e-21)
(-0.19712 -0.205534 1.28807e-21)
(-0.222616 -0.145983 1.73011e-21)
(-0.243901 -0.0242063 1.55174e-22)
(-0.208677 0.162933 -2.88878e-21)
(-0.131747 0.368153 2.65601e-22)
(-0.0236588 0.540153 4.72159e-22)
(0.106204 0.624185 -2.04558e-21)
(0.331341 0.506822 -1.83322e-21)
(0.580742 0.20023 4.24548e-21)
(0.804797 -0.173099 -5.79843e-22)
(0.937371 -0.429888 1.55147e-21)
(0.971089 -0.55749 -1.88096e-21)
(0.941275 -0.590892 8.33552e-22)
(0.899774 -0.511067 -4.90408e-22)
(0.828217 -0.516051 6.17816e-22)
(0.690022 -0.450283 5.70789e-23)
(0.650708 -0.320611 -3.34013e-22)
(0.744102 -0.0195004 5.23013e-22)
(0.857975 0.247877 -3.43003e-22)
(0.877151 0.381007 2.16707e-22)
(0.803608 0.579436 -9.6801e-23)
(0.800352 0.409595 -3.36279e-22)
(0.844162 0.289611 4.29611e-22)
(0.961089 -0.0110622 -6.69311e-23)
(1.00121 -0.341078 4.9864e-22)
(1.0095 -0.345409 -2.66506e-22)
(1.02155 -0.566279 2.91814e-22)
(0.976473 -0.186211 -9.3167e-23)
(0.94794 0.195073 1.14822e-24)
(-0.113462 -0.178136 3.7454e-22)
(-0.164828 -0.200269 4.75842e-21)
(-0.188018 -0.148755 -5.12741e-21)
(-0.214135 -0.0378503 -3.13828e-22)
(-0.188943 0.137589 3.32239e-21)
(-0.118048 0.336036 4.43969e-22)
(-0.005452 0.50714 -1.66739e-21)
(0.14502 0.590971 -1.18165e-21)
(0.381791 0.476663 2.16764e-22)
(0.630701 0.178512 1.91002e-21)
(0.849618 -0.186565 -1.39403e-22)
(0.973541 -0.435191 -1.2632e-22)
(0.997775 -0.554729 7.80779e-22)
(0.958755 -0.586977 -5.25035e-22)
(0.911567 -0.505179 3.99669e-22)
(0.841317 -0.503954 -2.31831e-22)
(0.703564 -0.442189 -8.04448e-23)
(0.662455 -0.328304 3.62657e-22)
(0.745033 -0.0372472 -7.23714e-22)
(0.856764 0.236848 4.25626e-22)
(0.874317 0.380892 -1.68515e-22)
(0.79567 0.583038 -3.98395e-22)
(0.795214 0.409407 4.94932e-23)
(0.844071 0.284956 -9.79267e-23)
(0.966213 -0.0147017 3.4747e-22)
(1.00663 -0.341536 -2.33527e-22)
(1.01356 -0.345822 -6.89108e-23)
(1.02604 -0.565018 -1.34228e-22)
(0.977194 -0.184698 -4.34453e-23)
(0.945633 0.195876 9.74671e-24)
(-0.0685618 -0.167284 -3.51761e-21)
(-0.124115 -0.1945 6.4891e-21)
(-0.145183 -0.151448 -1.3242e-21)
(-0.173615 -0.0501886 -4.94166e-21)
(-0.156628 0.113756 5.29081e-21)
(-0.0922619 0.30308 8.44788e-22)
(0.0237868 0.471398 -2.78765e-21)
(0.1908 0.555479 7.06855e-23)
(0.433143 0.447165 -1.9965e-21)
(0.679781 0.159176 6.00925e-22)
(0.893664 -0.197314 -3.0545e-21)
(1.00879 -0.438339 2.78839e-21)
(1.02374 -0.550419 -1.86413e-22)
(0.976118 -0.582179 1.5158e-22)
(0.923275 -0.499367 3.12569e-22)
(0.854294 -0.492262 -8.21277e-22)
(0.717428 -0.434161 4.56195e-22)
(0.675473 -0.33548 -2.68191e-22)
(0.747604 -0.0547843 1.0325e-22)
(0.856443 0.225498 2.85405e-22)
(0.871919 0.380627 -6.0161e-23)
(0.788165 0.586694 -1.64448e-22)
(0.790566 0.409162 6.93142e-22)
(0.844585 0.280168 -3.50314e-22)
(0.971583 -0.0182311 6.16311e-23)
(1.01209 -0.341812 -3.95424e-22)
(1.01765 -0.346139 5.22332e-22)
(1.03026 -0.563659 3.64633e-22)
(0.977773 -0.183047 1.06111e-22)
(0.943252 0.196738 -2.03687e-22)
(-0.0134746 -0.15678 -1.90722e-21)
(-0.0738407 -0.187915 7.92701e-21)
(-0.0943175 -0.153951 -2.45499e-21)
(-0.123942 -0.0616674 -1.82977e-21)
(-0.113158 0.0917805 3.61267e-21)
(-0.055134 0.269264 -2.59834e-21)
(0.063361 0.433631 -1.56938e-21)
(0.241761 0.5186 -1.32361e-21)
(0.48435 0.41875 4.42776e-21)
(0.727494 0.142144 -8.48515e-22)
(0.936656 -0.205437 -1.22743e-21)
(1.04296 -0.439394 3.67404e-22)
(1.04887 -0.544659 8.5813e-22)
(0.99331 -0.576544 -8.4917e-22)
(0.934846 -0.493643 7.05882e-22)
(0.867124 -0.481012 -1.22983e-23)
(0.731506 -0.426231 1.89457e-22)
(0.689255 -0.342147 1.29767e-23)
(0.751682 -0.0720872 3.64372e-22)
(0.856965 0.213855 -4.37452e-22)
(0.86995 0.380196 -1.79292e-22)
(0.781152 0.590393 3.2041e-22)
(0.786436 0.408869 -3.88451e-22)
(0.845683 0.275266 1.8027e-22)
(0.977188 -0.0216333 -3.01432e-22)
(1.01758 -0.341902 -8.89163e-23)
(1.02175 -0.346348 -6.82142e-23)
(1.03417 -0.562198 -3.70751e-22)
(0.978181 -0.181269 -1.00683e-23)
(0.94079 0.197659 3.69285e-22)
(0.0525338 -0.146815 4.92778e-23)
(-0.012447 -0.180128 5.44513e-21)
(-0.0346242 -0.15583 -3.77827e-21)
(-0.0660573 -0.072262 4.27493e-21)
(-0.0604213 0.0705061 1.00038e-21)
(-0.00829482 0.235749 -1.32708e-21)
(0.111836 0.39465 8.94378e-22)
(0.296076 0.481176 -9.82214e-22)
(0.534444 0.391705 4.36007e-21)
(0.773497 0.127275 -8.05029e-21)
(0.978391 -0.211072 1.20513e-21)
(1.0759 -0.438433 2.04668e-21)
(1.07302 -0.537558 -1.14941e-21)
(1.01027 -0.570128 1.27712e-21)
(0.946244 -0.488017 -6.9538e-22)
(0.879768 -0.470244 3.5263e-22)
(0.745731 -0.418407 -3.11456e-22)
(0.703273 -0.348313 2.17836e-22)
(0.757042 -0.0891406 -1.47806e-22)
(0.858256 0.201939 -1.4713e-22)
(0.868405 0.379576 2.20734e-22)
(0.774677 0.594121 -4.97893e-22)
(0.782842 0.40854 8.00212e-22)
(0.847341 0.270273 -4.01024e-22)
(0.983018 -0.024892 -4.77666e-22)
(1.02311 -0.341801 -1.79128e-22)
(1.02584 -0.346439 5.73355e-23)
(1.03777 -0.560629 7.18778e-24)
(0.978393 -0.179369 -6.57597e-23)
(0.938242 0.198634 -3.15952e-22)
(0.129434 -0.137035 6.21571e-21)
(0.0615694 -0.170574 -2.24436e-21)
(0.0355808 -0.156391 1.98673e-21)
(-6.79424e-06 -0.0814426 3.04606e-23)
(-2.15236e-05 0.0489815 1.34311e-21)
(0.0464852 0.203684 -1.04105e-21)
(0.166939 0.355169 -1.55006e-21)
(0.351887 0.443922 -6.28475e-22)
(0.582573 0.36618 7.89446e-22)
(0.817624 0.114378 3.52203e-21)
(1.01873 -0.214392 -6.39038e-21)
(1.10747 -0.435537 5.83237e-21)
(1.09612 -0.529228 9.85227e-22)
(1.02694 -0.562982 -5.71424e-22)
(0.95745 -0.482488 -7.35465e-23)
(0.892174 -0.459986 -2.00587e-22)
(0.760069 -0.410674 7.86577e-23)
(0.717036 -0.353968 1.44931e-22)
(0.763372 -0.105948 -3.81722e-23)
(0.860214 0.189761 6.83422e-23)
(0.867269 0.378739 -2.51317e-22)
(0.768778 0.597864 1.22895e-22)
(0.779796 0.408191 -5.91506e-22)
(0.849532 0.265209 -4.07481e-23)
(0.989065 -0.0279929 3.50607e-22)
(1.02865 -0.341505 4.86297e-22)
(1.02989 -0.346402 -5.11526e-23)
(1.04105 -0.558947 2.09214e-23)
(0.978386 -0.177355 1.97074e-22)
(0.935603 0.199661 7.42261e-23)
(0.21665 -0.12633 -4.47213e-21)
(0.148953 -0.159599 6.54305e-21)
(0.118096 -0.154931 -8.82794e-22)
(0.0754224 -0.0895093 -8.13328e-22)
(0.0672101 0.0290639 1.64796e-21)
(0.107506 0.172892 6.21808e-23)
(0.226252 0.315876 -3.61725e-22)
(0.407387 0.407386 3.15107e-21)
(0.628077 0.342171 -6.07833e-21)
(0.859921 0.103254 7.73051e-21)
(1.05762 -0.21556 6.87577e-22)
(1.13754 -0.430772 -3.6422e-21)
(1.11807 -0.519735 -1.05806e-21)
(1.04327 -0.5551 9.56535e-22)
(0.968465 -0.477003 -2.28289e-22)
(0.904289 -0.450236 4.6266e-22)
(0.774496 -0.402986 -4.60132e-22)
(0.73015 -0.359074 1.82189e-22)
(0.770296 -0.122518 1.23007e-22)
(0.862707 0.177317 6.78288e-23)
(0.866526 0.377649 2.69325e-22)
(0.76348 0.601603 -2.23229e-23)
(0.777305 0.407841 2.79543e-22)
(0.852231 0.260099 -6.8919e-23)
(0.995323 -0.0309261 4.35296e-22)
(1.03422 -0.341011 6.90629e-23)
(1.0339 -0.346225 2.24675e-22)
(1.044 -0.557144 -2.00107e-22)
(0.978144 -0.175234 -1.80075e-22)
(0.93287 0.200733 1.50642e-22)
(0.313365 -0.114347 -5.98359e-22)
(0.249342 -0.14816 -2.42549e-21)
(0.21379 -0.151137 -2.99626e-21)
(0.16206 -0.095592 2.3593e-21)
(0.142096 0.0123885 9.83411e-22)
(0.173724 0.14375 -2.7418e-22)
(0.287785 0.277455 -2.13526e-22)
(0.461041 0.37195 2.23941e-21)
(0.670672 0.319545 -3.38756e-21)
(0.90071 0.0936462 -2.31103e-21)
(1.09503 -0.214762 -1.0134e-21)
(1.16598 -0.4242 -1.23983e-21)
(1.13881 -0.509095 4.19662e-21)
(1.05918 -0.546443 -2.28037e-21)
(0.979295 -0.471482 6.77723e-22)
(0.916057 -0.440981 -6.64454e-22)
(0.788979 -0.395298 -7.33217e-23)
(0.74237 -0.363588 -2.62896e-22)
(0.777408 -0.138835 1.31264e-22)
(0.865578 0.164598 -3.49717e-22)
(0.86615 0.376261 6.69496e-23)
(0.758795 0.605319 2.70549e-22)
(0.77537 0.407507 -1.74103e-22)
(0.855421 0.254962 3.09702e-22)
(1.00179 -0.0336898 -7.2327e-22)
(1.03978 -0.340317 4.57874e-22)
(1.03784 -0.345899 -4.01654e-22)
(1.04663 -0.555218 2.30496e-22)
(0.977656 -0.173012 4.69419e-23)
(0.930039 0.201848 3.29276e-23)
(0.418144 -0.101646 3.43363e-22)
(0.361313 -0.1365 -1.23269e-21)
(0.322064 -0.14496 7.93843e-21)
(0.260842 -0.0984627 -4.5761e-21)
(0.226271 0.000395466 2.27649e-21)
(0.245684 0.117135 -1.03728e-21)
(0.350748 0.240657 3.06867e-22)
(0.512056 0.337843 -4.44349e-22)
(0.710736 0.297998 -2.33592e-21)
(0.940655 0.0852554 -7.10401e-22)
(1.13102 -0.212249 1.30262e-21)
(1.19267 -0.415986 9.38385e-23)
(1.15831 -0.497502 3.67469e-21)
(1.07463 -0.537237 -1.72388e-21)
(0.989952 -0.466043 1.96664e-21)
(0.927431 -0.432345 1.85452e-22)
(0.803462 -0.387637 -7.08402e-22)
(0.753624 -0.367527 9.55631e-23)
(0.784328 -0.154908 2.81429e-22)
(0.868634 0.151608 2.14227e-22)
(0.866108 0.374532 -6.88006e-22)
(0.754723 0.608988 1.7628e-22)
(0.773999 0.407203 1.83958e-22)
(0.8591 0.24981 -1.19619e-22)
(1.00847 -0.0362702 3.47181e-22)
(1.04533 -0.339417 -4.81736e-22)
(1.04171 -0.345413 -7.10385e-23)
(1.04892 -0.553181 3.02863e-22)
(0.976927 -0.170701 2.67087e-23)
(0.927112 0.203001 -6.95166e-23)
(0.530031 -0.0888172 -6.6542e-22)
(0.482801 -0.124656 -2.44564e-21)
(0.440303 -0.136484 -4.35446e-21)
(0.370974 -0.0978438 2.23233e-21)
(0.321012 -0.00992309 -2.55395e-21)
(0.324993 0.0937863 2.87621e-22)
(0.416215 0.206523 1.50156e-21)
(0.561102 0.305296 -2.139e-21)
(0.749788 0.277018 -6.12057e-22)
(0.980834 0.0775834 -2.55735e-21)
(1.16561 -0.208027 5.38306e-21)
(1.21749 -0.406511 -2.65314e-21)
(1.17651 -0.485691 1.08788e-21)
(1.08956 -0.528234 9.06666e-22)
(1.00047 -0.4612 5.72293e-22)
(0.93839 -0.424679 3.33323e-23)
(0.817877 -0.380126 -5.94935e-22)
(0.764 -0.370969 3.6395e-22)
(0.790751 -0.170982 1.53825e-23)
(0.871656 0.138235 -1.89059e-22)
(0.866349 0.372421 1.26138e-22)
(0.751251 0.61259 -1.95105e-22)
(0.773217 0.406949 1.52714e-22)
(0.863304 0.244698 -2.16101e-22)
(1.01539 -0.0385716 3.37154e-22)
(1.05085 -0.338283 2.28436e-22)
(1.0455 -0.344756 -1.14775e-22)
(1.05089 -0.551046 -7.96449e-23)
(0.975981 -0.168341 -1.46539e-22)
(0.924093 0.204183 -2.8807e-23)
(0.650212 -0.0782009 -2.9345e-21)
(0.611334 -0.114063 5.84531e-21)
(0.564065 -0.127402 -3.29193e-21)
(0.48813 -0.0956701 -2.03001e-21)
(0.42565 -0.0183358 7.60027e-22)
(0.414378 0.0741939 -6.32263e-22)
(0.48744 0.175922 8.9596e-22)
(0.611426 0.275519 8.13542e-22)
(0.791326 0.257733 -2.97614e-21)
(1.02291 0.071415 2.41688e-21)
(1.19874 -0.200853 -3.12504e-21)
(1.24017 -0.395702 -1.21238e-21)
(1.19334 -0.473958 3.61675e-21)
(1.10396 -0.519524 -2.76269e-22)
(1.01092 -0.456942 -4.75705e-22)
(0.948958 -0.417937 1.00715e-21)
(0.832166 -0.372669 -8.90869e-22)
(0.773687 -0.373731 3.2633e-22)
(0.796475 -0.187305 -2.90363e-22)
(0.874424 0.123952 2.85906e-22)
(0.866785 0.369615 9.49634e-23)
(0.748338 0.616076 -2.22241e-22)
(0.773126 0.406951 5.11696e-23)
(0.868164 0.239855 -5.50776e-23)
(1.02257 -0.0404501 -8.3241e-23)
(1.05632 -0.336893 -2.24912e-22)
(1.04918 -0.343937 5.58488e-23)
(1.05253 -0.548783 -9.25956e-24)
(0.974866 -0.165937 6.61003e-23)
(0.920995 0.205381 5.80741e-23)
(0.784106 -0.0724551 -9.96123e-21)
(0.743318 -0.102942 2.90685e-21)
(0.687385 -0.11673 -1.02305e-21)
(0.606936 -0.092245 5.73226e-21)
(0.537002 -0.0254444 -1.71882e-21)
(0.514428 0.0569743 8.50477e-22)
(0.56976 0.147226 5.89009e-22)
(0.671467 0.246717 -1.50486e-21)
(0.84313 0.240293 -4.80605e-23)
(1.06939 0.0691229 4.42576e-21)
(1.23009 -0.190754 -8.29496e-22)
(1.26037 -0.381627 -5.37533e-21)
(1.20875 -0.458949 -2.90108e-22)
(1.1178 -0.507605 3.5458e-21)
(1.02132 -0.450516 -5.23607e-23)
(0.959138 -0.410291 -9.32541e-23)
(0.846264 -0.364408 -3.60442e-22)
(0.782894 -0.374904 -1.90491e-22)
(0.801353 -0.202564 -1.29703e-22)
(0.876749 0.109155 2.6807e-22)
(0.867088 0.365423 -2.27045e-22)
(0.745908 0.619249 -9.14808e-23)
(0.774172 0.407547 1.21475e-22)
(0.874044 0.235069 1.80965e-22)
(1.03007 -0.0424112 -2.69824e-22)
(1.06171 -0.335368 2.93001e-22)
(1.05276 -0.342979 2.98482e-23)