/*--------------------------------*- C++ -*----------------------------------*\
  =========                 |
  \\      /  F ield         | OpenFOAM: The Open Source CFD Toolbox
   \\    /   O peration     | Website:  https://openfoam.org
    \\  /    A nd           | Version:  7
     \\/     M anipulation  |
\*---------------------------------------------------------------------------*/
FoamFile
{
    version     2.0;
    format      ascii;
    class       volScalarField;
    location    "170";
    object      p;
}
// * * * * * * * * * * * * * * * * * * * * * * * * * * * * * * * * * * * * * //

dimensions      [0 2 -2 0 0 0 0];

internalField   nonuniform List<scalar> 
8500
(
-0.397287
-0.400667
-0.401881
-0.402873
-0.403885
-0.40492
-0.405893
-0.406629
-0.406825
-0.406496
-0.389272
-0.392445
-0.393366
-0.393856
-0.394124
-0.394165
-0.393901
-0.393188
-0.39173
-0.389601
-0.381812
-0.384719
-0.385346
-0.385356
-0.38492
-0.384022
-0.382587
-0.380512
-0.377527
-0.373637
-0.374905
-0.37751
-0.377849
-0.377409
-0.376314
-0.374537
-0.372009
-0.36867
-0.364318
-0.358725
-0.368534
-0.370822
-0.370888
-0.37003
-0.368322
-0.36573
-0.362187
-0.357678
-0.352136
-0.344894
-0.362673
-0.364652
-0.364464
-0.36322
-0.360945
-0.357596
-0.353114
-0.34752
-0.340962
-0.332089
-0.357292
-0.358991
-0.358571
-0.356973
-0.354171
-0.350116
-0.344766
-0.338166
-0.33074
-0.320249
-0.352365
-0.353831
-0.353202
-0.351277
-0.347984
-0.343269
-0.337114
-0.329582
-0.321391
-0.309707
-0.347876
-0.349165
-0.348351
-0.346123
-0.34237
-0.337032
-0.330125
-0.32173
-0.312742
-0.300123
-0.34382
-0.344995
-0.344017
-0.341506
-0.33732
-0.331399
-0.323779
-0.314586
-0.304919
-0.291274
-0.340211
-0.341332
-0.340206
-0.337429
-0.332838
-0.326375
-0.318097
-0.308157
-0.297957
-0.283151
-0.337079
-0.338195
-0.336935
-0.333906
-0.328938
-0.321981
-0.313126
-0.302505
-0.291945
-0.275765
-0.334471
-0.335614
-0.334227
-0.330962
-0.325654
-0.318264
-0.308925
-0.297727
-0.287046
-0.269183
-0.332449
-0.333627
-0.332115
-0.328631
-0.323028
-0.315281
-0.305575
-0.293946
-0.283423
-0.263571
-0.331084
-0.332276
-0.330635
-0.326954
-0.321115
-0.313087
-0.303148
-0.291284
-0.281188
-0.259231
-0.330445
-0.331604
-0.329823
-0.325966
-0.319967
-0.31172
-0.301689
-0.289818
-0.280108
-0.256497
-0.330596
-0.331644
-0.329707
-0.325686
-0.319532
-0.311273
-0.301199
-0.289568
-0.279854
-0.25551
-0.331583
-0.33242
-0.330301
-0.326128
-0.319884
-0.311653
-0.301618
-0.290467
-0.279961
-0.255916
-0.33343
-0.333938
-0.331599
-0.327271
-0.32097
-0.312803
-0.302848
-0.292348
-0.280252
-0.257704
-0.336136
-0.336186
-0.333575
-0.329067
-0.322713
-0.314618
-0.304752
-0.294865
-0.281117
-0.263917
-0.33968
-0.33914
-0.336187
-0.33146
-0.32502
-0.316968
-0.307166
-0.297484
-0.282852
-0.278052
-0.344027
-0.342763
-0.339398
-0.334383
-0.327801
-0.319726
-0.309929
-0.299994
-0.285513
-0.279187
-0.34914
-0.347025
-0.343169
-0.337788
-0.330992
-0.322794
-0.312876
-0.302391
-0.287833
-0.278589
-0.354988
-0.351913
-0.34748
-0.341655
-0.33456
-0.326112
-0.315893
-0.304654
-0.289572
-0.277772
-0.361549
-0.357424
-0.352338
-0.345994
-0.338501
-0.329654
-0.318916
-0.306683
-0.290723
-0.276477
-0.368825
-0.363567
-0.35777
-0.350838
-0.342831
-0.333407
-0.321896
-0.308394
-0.291222
-0.274864
-0.376829
-0.37037
-0.363818
-0.35623
-0.347574
-0.337361
-0.324772
-0.309712
-0.291095
-0.272857
-0.38558
-0.377863
-0.370529
-0.36221
-0.352741
-0.341481
-0.327464
-0.310576
-0.290367
-0.270463
-0.395091
-0.386072
-0.377937
-0.368794
-0.358317
-0.345696
-0.329881
-0.310946
-0.289077
-0.267666
-0.405362
-0.39501
-0.386053
-0.37597
-0.364249
-0.349894
-0.331926
-0.310791
-0.287252
-0.26446
-0.416366
-0.404664
-0.394855
-0.383687
-0.37043
-0.353933
-0.33351
-0.310087
-0.284909
-0.260833
-0.428044
-0.414991
-0.404281
-0.391847
-0.376704
-0.357656
-0.334545
-0.308808
-0.282051
-0.256766
-0.440301
-0.425909
-0.414229
-0.400305
-0.38287
-0.360899
-0.334948
-0.306922
-0.278662
-0.252233
-0.452997
-0.437293
-0.424548
-0.408861
-0.388702
-0.363502
-0.334638
-0.304391
-0.274715
-0.247201
-0.465952
-0.448976
-0.435043
-0.417267
-0.393958
-0.365311
-0.333533
-0.301168
-0.270171
-0.241634
-0.478939
-0.460745
-0.445474
-0.425235
-0.3984
-0.366179
-0.331551
-0.297196
-0.264982
-0.235487
-0.491694
-0.472344
-0.455554
-0.432456
-0.401793
-0.365966
-0.328605
-0.292414
-0.259094
-0.228719
-0.503913
-0.483481
-0.464959
-0.438614
-0.403918
-0.364538
-0.324612
-0.286757
-0.25245
-0.221285
-0.515265
-0.49383
-0.473336
-0.443397
-0.404569
-0.361772
-0.319486
-0.280155
-0.244991
-0.213146
-0.525392
-0.50304
-0.480319
-0.44651
-0.40356
-0.357552
-0.313146
-0.272541
-0.236661
-0.204265
-0.533927
-0.510745
-0.485542
-0.447679
-0.400724
-0.351772
-0.305512
-0.26385
-0.227411
-0.194613
-0.540497
-0.516573
-0.488655
-0.446663
-0.395914
-0.344337
-0.296512
-0.254025
-0.2172
-0.184174
-0.544738
-0.520156
-0.489337
-0.443249
-0.389007
-0.335164
-0.286079
-0.243007
-0.205995
-0.172934
-0.546306
-0.521146
-0.487305
-0.437263
-0.379902
-0.324184
-0.274156
-0.230746
-0.19375
-0.160849
-0.544882
-0.519223
-0.482318
-0.428569
-0.368524
-0.311347
-0.260703
-0.217203
-0.1804
-0.147765
-0.540188
-0.514107
-0.474189
-0.41707
-0.354824
-0.29662
-0.245698
-0.202364
-0.165899
-0.133436
-0.531987
-0.505569
-0.462776
-0.402707
-0.338775
-0.279985
-0.229127
-0.18624
-0.150308
-0.117826
-0.520097
-0.493439
-0.447987
-0.385458
-0.320378
-0.261443
-0.210989
-0.16884
-0.13371
-0.101679
-0.504387
-0.477601
-0.42978
-0.365334
-0.299658
-0.241013
-0.191314
-0.15021
-0.115913
-0.0850322
-0.484787
-0.458003
-0.40816
-0.342385
-0.276667
-0.218746
-0.170193
-0.130371
-0.0970703
-0.0676642
-0.461283
-0.43465
-0.383191
-0.316701
-0.251476
-0.194734
-0.147663
-0.109336
-0.0772954
-0.0495368
-0.433919
-0.407609
-0.355008
-0.288411
-0.224158
-0.169049
-0.123771
-0.0871876
-0.0566546
-0.0307043
-0.402793
-0.377016
-0.323804
-0.257609
-0.194818
-0.141771
-0.0986111
-0.0640136
-0.0352164
-0.0112651
-0.368064
-0.34307
-0.289705
-0.224278
-0.163711
-0.113045
-0.072291
-0.0399095
-0.0130618
0.00866967
-0.329955
-0.306042
-0.252566
-0.188906
-0.130926
-0.0830124
-0.0449364
-0.0149768
0.0097264
0.0290139
-0.28869
-0.266177
-0.212621
-0.151712
-0.0966762
-0.0518313
-0.0166838
0.0106784
0.0330629
0.0496782
-0.244474
-0.223321
-0.170877
-0.112854
-0.0611587
-0.0196723
0.0123319
0.0369572
0.0568072
0.0703284
-0.197634
-0.178064
-0.127545
-0.0726093
-0.0245816
0.013293
0.0419944
0.0637763
0.0806825
0.0901518
-0.148767
-0.130703
-0.0827424
-0.0312556
0.0128281
0.0468892
0.0721944
0.0910296
0.104351
0.108577
-0.0980882
-0.0817379
-0.0367324
0.0109289
0.05083
0.0809277
0.10277
0.118474
0.127699
0.127318
-0.0460016
-0.031607
0.0101452
0.0536566
0.0891777
0.115198
0.133468
0.14571
0.150705
0.151163
0.00704765
0.0192829
0.0575246
0.0966291
0.12762
0.149474
0.164024
0.172615
0.174281
0.175144
0.0606113
0.0705217
0.105034
0.139541
0.165898
0.183523
0.194263
0.199256
0.198085
0.197864
0.114237
0.121694
0.152302
0.182082
0.20375
0.217113
0.224012
0.225507
0.221682
0.219626
0.167474
0.172382
0.19896
0.223944
0.240914
0.250023
0.253099
0.25119
0.244723
0.240414
0.21987
0.22217
0.244646
0.264822
0.27713
0.282033
0.281345
0.276124
0.26702
0.26026
0.270983
0.270651
0.289005
0.304418
0.312146
0.31293
0.308568
0.300132
0.288415
0.279122
0.320382
0.317428
0.331695
0.34244
0.345715
0.342504
0.33459
0.323051
0.308782
0.296943
0.367649
0.362116
0.372385
0.37861
0.377601
0.370556
0.359236
0.344731
0.327999
0.313649
0.412384
0.404351
0.410761
0.412663
0.407578
0.396893
0.382344
0.365032
0.345954
0.329164
0.45421
0.443787
0.446525
0.444347
0.435433
0.421333
0.403758
0.383821
0.362536
0.343414
0.492773
0.480101
0.479401
0.473427
0.460966
0.443705
0.423333
0.400973
0.377643
0.356326
0.527744
0.512995
0.509133
0.499687
0.483992
0.463854
0.440935
0.416376
0.39118
0.367833
0.558826
0.542198
0.535488
0.52293
0.504345
0.481635
0.456444
0.429924
0.403059
0.377875
0.585752
0.567468
0.558259
0.54298
0.521874
0.496922
0.469751
0.441525
0.413202
0.386399
0.608289
0.588594
0.577265
0.559683
0.536447
0.509602
0.480759
0.451095
0.42154
0.393357
0.626237
0.605395
0.592351
0.572909
0.547953
0.51958
0.489389
0.458566
0.428014
0.398713
0.639435
0.617725
0.60339
0.582549
0.5563
0.526778
0.495574
0.46388
0.432578
0.402434
0.647756
0.62547
0.610287
0.588523
0.561419
0.531137
0.499262
0.466993
0.435194
0.404497
0.651115
0.628551
0.612972
0.590771
0.56326
0.532614
0.500419
0.467874
0.435836
0.404886
0.649462
0.626925
0.611408
0.589263
0.561796
0.531187
0.499024
0.466507
0.434492
0.403593
0.642789
0.620582
0.605587
0.583991
0.557022
0.526851
0.495075
0.462889
0.431158
0.400612
0.631123
0.609548
0.595533
0.574976
0.548953
0.519619
0.488582
0.457029
0.425843
0.39595
0.614535
0.593886
0.581297
0.56226
0.537628
0.509525
0.479574
0.448954
0.418568
0.389617
0.593131
0.573692
0.562963
0.545916
0.523107
0.49662
0.468095
0.4387
0.409365
0.381635
0.567055
0.549096
0.540641
0.526036
0.505472
0.480973
0.454204
0.42632
0.398276
0.372029
0.536489
0.520261
0.514473
0.502741
0.484822
0.46267
0.437975
0.411877
0.385356
0.360834
0.501649
0.487383
0.484625
0.476172
0.461281
0.441816
0.419496
0.395449
0.37067
0.348094
0.462787
0.450689
0.451292
0.446495
0.434989
0.418531
0.39887
0.377124
0.35429
0.333857
0.420184
0.410436
0.414695
0.413895
0.406104
0.392949
0.376214
0.357
0.336302
0.318182
0.374155
0.366908
0.375076
0.37858
0.374804
0.365223
0.351653
0.335189
0.316797
0.301133
0.32504
0.320415
0.332702
0.340774
0.341279
0.335514
0.32533
0.311809
0.295874
0.282778
0.273207
0.27129
0.287859
0.30072
0.305737
0.304
0.297393
0.286988
0.273637
0.26319
0.219045
0.219891
0.240853
0.258677
0.268397
0.270868
0.268003
0.260866
0.250197
0.242438
0.162964
0.166591
0.192007
0.214917
0.22949
0.236315
0.23733
0.23359
0.22567
0.22059
0.105388
0.111781
0.141656
0.169724
0.189258
0.200544
0.205551
0.205321
0.200181
0.197691
0.0467561
0.0558634
0.0901502
0.123393
0.147952
0.163769
0.172845
0.176239
0.173886
0.173763
-0.012483
-0.000748672
0.0378473
0.0762266
0.105828
0.126204
0.13939
0.146529
0.146984
0.148742
-0.0718763
-0.0576379
-0.0148868
0.0285315
0.0631474
0.0880732
0.105352
0.116372
0.119858
0.122637
-0.130969
-0.114386
-0.0676812
-0.0193826
0.0201753
0.0496108
0.0709037
0.0858906
0.0930074
0.0950997
-0.189308
-0.170577
-0.120163
-0.0672075
-0.0228289
0.011052
0.0362182
0.0549744
0.0667705
0.0676705
-0.246444
-0.225801
-0.17196
-0.11464
-0.0656111
-0.0273695
0.00158018
0.0237506
0.0401096
0.0462381
-0.301944
-0.279638
-0.222714
-0.161386
-0.107921
-0.0654379
-0.0327368
-0.00732442
0.0130355
0.0251645
-0.355468
-0.331629
-0.272112
-0.207162
-0.149513
-0.102961
-0.0665658
-0.0379848
-0.0143257
0.00239073
-0.406617
-0.381387
-0.319948
-0.251692
-0.190152
-0.13976
-0.0998043
-0.0681335
-0.0416085
-0.0214035
-0.454932
-0.428316
-0.366198
-0.294689
-0.229621
-0.175661
-0.132339
-0.0976969
-0.0685175
-0.0452753
-0.500126
-0.472217
-0.410272
-0.335878
-0.267725
-0.210488
-0.164033
-0.126577
-0.0949066
-0.0688563
-0.541976
-0.513113
-0.451219
-0.375244
-0.304265
-0.244073
-0.194742
-0.154662
-0.120687
-0.0920587
-0.580249
-0.550748
-0.489104
-0.412375
-0.339012
-0.276263
-0.224336
-0.181847
-0.14577
-0.114793
-0.614732
-0.584863
-0.523999
-0.446825
-0.371911
-0.306925
-0.252695
-0.208032
-0.170065
-0.136941
-0.645274
-0.615259
-0.555736
-0.478677
-0.402701
-0.33592
-0.279718
-0.233125
-0.193495
-0.158394
-0.671782
-0.641804
-0.584123
-0.507836
-0.431286
-0.363185
-0.305317
-0.25704
-0.216
-0.179073
-0.694217
-0.664435
-0.609031
-0.53417
-0.4576
-0.388644
-0.329469
-0.279703
-0.237517
-0.198943
-0.712595
-0.683145
-0.630399
-0.557588
-0.481581
-0.412214
-0.352129
-0.301134
-0.257917
-0.218068
-0.726987
-0.697989
-0.648218
-0.578045
-0.50318
-0.433851
-0.373212
-0.321297
-0.277046
-0.236688
-0.737521
-0.709076
-0.662528
-0.595528
-0.522379
-0.453544
-0.392697
-0.340161
-0.295162
-0.254646
-0.744381
-0.716572
-0.673415
-0.61006
-0.539179
-0.4713
-0.410597
-0.357728
-0.31219
-0.271283
-0.747798
-0.720698
-0.681016
-0.621694
-0.553606
-0.487144
-0.426936
-0.373999
-0.328074
-0.286676
-0.748048
-0.721724
-0.685508
-0.630521
-0.565711
-0.501113
-0.441744
-0.388994
-0.342866
-0.301092
-0.745444
-0.719963
-0.687116
-0.636664
-0.575564
-0.513262
-0.455071
-0.402764
-0.356643
-0.314694
-0.740328
-0.715757
-0.686108
-0.640285
-0.583261
-0.523661
-0.466983
-0.415376
-0.369462
-0.327541
-0.733059
-0.709467
-0.682789
-0.641576
-0.588915
-0.532395
-0.477556
-0.426899
-0.381375
-0.33966
-0.724006
-0.70146
-0.677495
-0.640763
-0.59266
-0.539557
-0.486873
-0.437411
-0.392441
-0.351085
-0.713536
-0.692101
-0.670576
-0.638095
-0.594648
-0.545249
-0.495018
-0.446991
-0.40273
-0.361864
-0.702005
-0.68174
-0.662389
-0.633844
-0.595044
-0.54958
-0.502083
-0.455727
-0.412325
-0.372059
-0.68975
-0.670707
-0.653281
-0.628297
-0.594027
-0.552664
-0.508158
-0.463707
-0.421312
-0.381745
-0.677078
-0.6593
-0.643576
-0.621749
-0.591793
-0.554618
-0.513334
-0.471022
-0.429783
-0.391004
-0.664264
-0.647785
-0.633563
-0.614492
-0.588542
-0.555563
-0.5177
-0.477759
-0.437832
-0.399928
-0.651546
-0.636387
-0.623493
-0.606804
-0.584486
-0.555625
-0.52134
-0.484
-0.445551
-0.40861
-0.639125
-0.62529
-0.613574
-0.598932
-0.579838
-0.554932
-0.524334
-0.489823
-0.453029
-0.41715
-0.627164
-0.614641
-0.60397
-0.591087
-0.574808
-0.553619
-0.52676
-0.495296
-0.460352
-0.425653
-0.615794
-0.604548
-0.594811
-0.583438
-0.569596
-0.551825
-0.528692
-0.500478
-0.467595
-0.434225
-0.605117
-0.595086
-0.586192
-0.576115
-0.564379
-0.549698
-0.530206
-0.505419
-0.474818
-0.442977
-0.595208
-0.586307
-0.578179
-0.569216
-0.559307
-0.547387
-0.531383
-0.510161
-0.48207
-0.452011
-0.58612
-0.57824
-0.570815
-0.562822
-0.554501
-0.545038
-0.532314
-0.514737
-0.489367
-0.461447
-0.577881
-0.570896
-0.564124
-0.556994
-0.550062
-0.542787
-0.533097
-0.519176
-0.49672
-0.471339
-0.570492
-0.564266
-0.558109
-0.551774
-0.546073
-0.540752
-0.533837
-0.523506
-0.504081
-0.481849
-0.563921
-0.558319
-0.552755
-0.547185
-0.542604
-0.53903
-0.534631
-0.527742
-0.511469
-0.492743
-0.558102
-0.552997
-0.548017
-0.543217
-0.539694
-0.537694
-0.535561
-0.531899
-0.518823
-0.50415
-0.552928
-0.548215
-0.543823
-0.539821
-0.537341
-0.536781
-0.53668
-0.535987
-0.526156
-0.51456
-0.548258
-0.543858
-0.540068
-0.536909
-0.535489
-0.536276
-0.53803
-0.539832
-0.534598
-0.518907
-0.543921
-0.539786
-0.53662
-0.53435
-0.534018
-0.536096
-0.539586
-0.543318
-0.543505
-0.525831
-0.539727
-0.535846
-0.533322
-0.531977
-0.53276
-0.53609
-0.54121
-0.546422
-0.551379
-0.533789
-0.53548
-0.531875
-0.530006
-0.529601
-0.531499
-0.536041
-0.542654
-0.549093
-0.557665
-0.540806
-0.530992
-0.527713
-0.526501
-0.527021
-0.529998
-0.535688
-0.543612
-0.551169
-0.562239
-0.546613
-0.526095
-0.523212
-0.522644
-0.52404
-0.528016
-0.534744
-0.543767
-0.552385
-0.564979
-0.551373
-0.520653
-0.518246
-0.518291
-0.520479
-0.525329
-0.532938
-0.542828
-0.552421
-0.565753
-0.554945
-0.514564
-0.512711
-0.513321
-0.51619
-0.521753
-0.530042
-0.540561
-0.550972
-0.564487
-0.556955
-0.507771
-0.506537
-0.507651
-0.511067
-0.517153
-0.525894
-0.536809
-0.547808
-0.561189
-0.557013
-0.500259
-0.499693
-0.501233
-0.505048
-0.511458
-0.520395
-0.531512
-0.542799
-0.555929
-0.554829
-0.492058
-0.492181
-0.494065
-0.498127
-0.504664
-0.513506
-0.52471
-0.535921
-0.548849
-0.550198
-0.483237
-0.484044
-0.486182
-0.490359
-0.496847
-0.505558
-0.516208
-0.527326
-0.540045
-0.543079
-0.473897
-0.475355
-0.477661
-0.481813
-0.488082
-0.496406
-0.506437
-0.517225
-0.528808
-0.53417
-0.464169
-0.466218
-0.468607
-0.472609
-0.478506
-0.486248
-0.495523
-0.505661
-0.516211
-0.522985
-0.454199
-0.456757
-0.459148
-0.462895
-0.468287
-0.475294
-0.483657
-0.492876
-0.502371
-0.509549
-0.44414
-0.447111
-0.44943
-0.452831
-0.457614
-0.463762
-0.47107
-0.47914
-0.487426
-0.4943
-0.434145
-0.437419
-0.439602
-0.442588
-0.446679
-0.451874
-0.458011
-0.464757
-0.471651
-0.477671
-0.424352
-0.427815
-0.429809
-0.432328
-0.435673
-0.439849
-0.444718
-0.450029
-0.455366
-0.460116
-0.414885
-0.418423
-0.420185
-0.422205
-0.424773
-0.427898
-0.431468
-0.435257
-0.438916
-0.442109
-0.40584
-0.409346
-0.410844
-0.41235
-0.414134
-0.416204
-0.418464
-0.420713
-0.422635
-0.424103
-0.4071
-0.401334
-0.398338
-0.403021
-0.43115
-0.468853
-0.473978
-0.415829
-0.3161
-0.229659
-0.174791
-0.147376
-0.153644
-0.170078
-0.1763
-0.14929
-0.110781
-0.0904112
-0.0767761
-0.0714466
-0.0740834
-0.079071
-0.0809806
-0.0799215
-0.0629204
-0.0331971
-0.0486842
-0.0602012
-0.043081
0.00908672
-0.389183
-0.385019
-0.38796
-0.402454
-0.441707
-0.487694
-0.495689
-0.434722
-0.328839
-0.235816
-0.175077
-0.143689
-0.145492
-0.158864
-0.165119
-0.141286
-0.107677
-0.0901382
-0.0782736
-0.0743916
-0.0777281
-0.0824104
-0.0825453
-0.0803627
-0.063157
-0.0334429
-0.0484988
-0.0604265
-0.0431241
0.00962541
-0.372631
-0.369913
-0.378255
-0.401219
-0.449904
-0.503246
-0.514109
-0.45103
-0.339887
-0.241081
-0.175034
-0.13989
-0.137285
-0.147713
-0.153584
-0.132895
-0.104375
-0.0897402
-0.0798125
-0.0774922
-0.0814969
-0.0857402
-0.0840452
-0.0807359
-0.0633817
-0.0337128
-0.0483278
-0.0606586
-0.0431681
0.0101406
-0.357512
-0.356032
-0.369049
-0.399073
-0.455413
-0.515203
-0.529046
-0.464693
-0.349271
-0.245513
-0.174759
-0.136072
-0.12918
-0.136755
-0.141847
-0.124184
-0.100878
-0.0892053
-0.081377
-0.0807257
-0.085366
-0.0890377
-0.0854749
-0.0810396
-0.0635892
-0.0340024
-0.0481729
-0.060897
-0.0432152
0.0106289
-0.3438
-0.343308
-0.360165
-0.395717
-0.458161
-0.523414
-0.540411
-0.475701
-0.357042
-0.24918
-0.17434
-0.132319
-0.121328
-0.126114
-0.130082
-0.115233
-0.0971958
-0.0885228
-0.0829476
-0.0840647
-0.0893092
-0.0922813
-0.0868294
-0.0812721
-0.0637743
-0.0343067
-0.0480353
-0.061141
-0.0432676
0.011087
-0.331411
-0.331588
-0.351469
-0.391116
-0.458104
-0.527911
-0.548225
-0.484087
-0.36327
-0.252151
-0.173854
-0.128708
-0.113867
-0.11591
-0.118483
-0.106131
-0.0933397
-0.0876843
-0.0845015
-0.0874781
-0.093298
-0.0954506
-0.0881044
-0.0814324
-0.0639313
-0.0346204
-0.0479154
-0.0613893
-0.0433266
0.0115115
-0.320194
-0.320829
-0.342897
-0.385303
-0.455348
-0.528867
-0.552607
-0.489926
-0.368037
-0.254499
-0.173364
-0.125307
-0.106911
-0.106254
-0.107244
-0.0969845
-0.089328
-0.0866838
-0.0860125
-0.0909315
-0.0973015
-0.0985265
-0.0892955
-0.0815194
-0.0640546
-0.0349379
-0.0478135
-0.0616402
-0.0433929
0.0118994
-0.309855
-0.310898
-0.334449
-0.378381
-0.450156
-0.526565
-0.553764
-0.493324
-0.371435
-0.256293
-0.172923
-0.122177
-0.100548
-0.0972468
-0.0965552
-0.0879114
-0.085185
-0.0855181
-0.0874521
-0.0943885
-0.101287
-0.101491
-0.0903987
-0.0815324
-0.0641387
-0.0352535
-0.0477291
-0.0618915
-0.0434668
0.0122476
-0.300509
-0.301744
-0.326105
-0.370545
-0.442892
-0.521385
-0.551973
-0.494417
-0.373555
-0.257603
-0.172568
-0.11937
-0.0948328
-0.0889742
-0.08658
-0.0790418
-0.0809419
-0.0841868
-0.0887896
-0.0978114
-0.105223
-0.104328
-0.0914104
-0.0814712
-0.0641782
-0.0355613
-0.0476612
-0.0621405
-0.0435477
0.012553
-0.292156
-0.293289
-0.317932
-0.362058
-0.433971
-0.513769
-0.547554
-0.493358
-0.37449
-0.258496
-0.172325
-0.116922
-0.0897929
-0.0814985
-0.0774464
-0.0705103
-0.0766371
-0.0826924
-0.0899932
-0.101163
-0.109074
-0.107021
-0.0923273
-0.0813358
-0.0641682
-0.0358555
-0.0476084
-0.0623843
-0.0436343
0.0128129
-0.284799
-0.285519
-0.310042
-0.353202
-0.423826
-0.504177
-0.540851
-0.49033
-0.37432
-0.259029
-0.17221
-0.114862
-0.0854285
-0.074854
-0.0692443
-0.0624484
-0.0723137
-0.0810406
-0.0910305
-0.104407
-0.112809
-0.109559
-0.0931465
-0.0811268
-0.0641041
-0.0361302
-0.0475687
-0.0626193
-0.0437244
0.0130244
-0.278501
-0.278465
-0.302555
-0.344252
-0.412868
-0.493045
-0.532201
-0.485544
-0.373133
-0.259259
-0.172234
-0.113213
-0.0817224
-0.0690456
-0.0620238
-0.0549757
-0.0680202
-0.0792404
-0.0918689
-0.107509
-0.116396
-0.111929
-0.0938655
-0.0808454
-0.0639822
-0.0363798
-0.04754
-0.0628417
-0.0438153
0.0131848
-0.273351
-0.272195
-0.295587
-0.335446
-0.401457
-0.48076
-0.521933
-0.47921
-0.371037
-0.25925
-0.172416
-0.111994
-0.0786471
-0.0640496
-0.0557965
-0.0481897
-0.0638083
-0.0773034
-0.0924764
-0.110441
-0.119806
-0.114119
-0.0944824
-0.0804935
-0.0637985
-0.036599
-0.0475199
-0.0630472
-0.0439033
0.0132916
-0.269422
-0.266802
-0.289235
-0.326973
-0.389879
-0.467692
-0.510345
-0.471515
-0.368152
-0.259054
-0.172755
-0.111201
-0.0761564
-0.0598104
-0.0505306
-0.0421594
-0.059729
-0.0752434
-0.0928213
-0.113174
-0.123012
-0.116122
-0.094995
-0.0800737
-0.0635479
-0.0367815
-0.0475055
-0.0632316
-0.043984
0.0133422
-0.266745
-0.262367
-0.283567
-0.318963
-0.378333
-0.454415
-0.497681
-0.462621
-0.364539
-0.258638
-0.17316
-0.110761
-0.0741631
-0.0562351
-0.0461439
-0.0369204
-0.0558291
-0.0730763
-0.0928726
-0.115688
-0.12599
-0.117928
-0.0954007
-0.0795886
-0.063226
-0.0369209
-0.0474928
-0.0633897
-0.0440521
0.0133341
-0.265252
-0.258942
-0.278613
-0.311488
-0.366933
-0.441738
-0.484127
-0.452675
-0.360189
-0.257887
-0.1735
-0.110575
-0.0725807
-0.0532313
-0.0425254
-0.0324635
-0.0521437
-0.0708188
-0.0925999
-0.117966
-0.12872
-0.119535
-0.0956986
-0.0790398
-0.0628374
-0.0370159
-0.0474785
-0.0635154
-0.0441016
0.0132648
-0.264728
-0.256505
-0.274366
-0.30458
-0.355813
-0.427856
-0.469718
-0.441922
-0.355352
-0.257057
-0.174055
-0.110845
-0.0715243
-0.0508255
-0.0396332
-0.0287669
-0.0486897
-0.0684862
-0.0919725
-0.119992
-0.131183
-0.120931
-0.0958928
-0.0784297
-0.062403
-0.0370776
-0.0474679
-0.0636048
-0.0441258
0.0131319
-0.264924
-0.254963
-0.270733
-0.298206
-0.345144
-0.412048
-0.454167
-0.430708
-0.350882
-0.257189
-0.175757
-0.112219
-0.0713711
-0.049164
-0.0375127
-0.025906
-0.045516
-0.0660932
-0.090962
-0.121755
-0.133313
-0.122048
-0.0959897
-0.0777706
-0.0619392
-0.0371165
-0.0474743
-0.0636701
-0.0441173
0.0129336
-0.265799
-0.254256
-0.267531
-0.292024
-0.334466
-0.395698
-0.436894
-0.4186
-0.346477
-0.257941
-0.178109
-0.114262
-0.0717826
-0.0479221
-0.0358171
-0.0238522
-0.0427663
-0.0637163
-0.0895136
-0.12327
-0.135015
-0.122821
-0.0959769
-0.077087
-0.061383
-0.0370735
-0.0474717
-0.0637157
-0.0440696
0.0126689
-0.265825
-0.253972
-0.265346
-0.286768
-0.32428
-0.379621
-0.419757
-0.403846
-0.337116
-0.253313
-0.175736
-0.113006
-0.0701948
-0.04559
-0.0331827
-0.0214877
-0.0399222
-0.0612518
-0.0876857
-0.124431
-0.136847
-0.123699
-0.0957976
-0.0763656
-0.0605448
-0.0367673
-0.0473234
-0.0635489
-0.0439805
0.0123244
-0.256202
-0.252659
-0.264689
-0.284817
-0.319835
-0.371407
-0.405437
-0.386564
-0.320541
-0.240423
-0.166416
-0.106585
-0.0651474
-0.0413416
-0.0284913
-0.0158847
-0.033017
-0.0544498
-0.0840189
-0.127631
-0.142147
-0.126293
-0.0954957
-0.0753749
-0.0592402
-0.036094
-0.0468167
-0.0625724
-0.0437014
0.0117518
-0.254686
-0.252733
-0.263277
-0.281445
-0.311542
-0.353883
-0.37926
-0.358619
-0.2974
-0.224211
-0.15596
-0.100371
-0.0608228
-0.0375696
-0.0245925
-0.0129376
-0.0301655
-0.0497979
-0.0815233
-0.129122
-0.14503
-0.126679
-0.0938923
-0.072859
-0.0572668
-0.0358574
-0.0466477
-0.0619658
-0.0438733
0.0111394
-0.252187
-0.25101
-0.259524
-0.275597
-0.300489
-0.333698
-0.351332
-0.330545
-0.275181
-0.208972
-0.146188
-0.0943306
-0.0565715
-0.0339806
-0.0208584
-0.010101
-0.0278548
-0.0464878
-0.0799317
-0.129252
-0.146331
-0.1261
-0.0917511
-0.0699702
-0.0550623
-0.035528
-0.0464164
-0.0614078
-0.0440997
0.010569
-0.247626
-0.246759
-0.252859
-0.26672
-0.286725
-0.311825
-0.323191
-0.302959
-0.253367
-0.193925
-0.136497
-0.0882773
-0.0523918
-0.0305082
-0.0171938
-0.00697464
-0.0246768
-0.0424907
-0.0776265
-0.128463
-0.146944
-0.124742
-0.0890842
-0.0667026
-0.0524941
-0.0350535
-0.0460435
-0.0606627
-0.0441407
0.00996023
-0.240184
-0.239946
-0.243804
-0.254933
-0.270979
-0.289261
-0.295669
-0.276424
-0.232413
-0.179373
-0.127046
-0.0822542
-0.0482503
-0.0270833
-0.013532
-0.00352837
-0.0206593
-0.0372819
-0.0739459
-0.126725
-0.146501
-0.122343
-0.0858026
-0.0630107
-0.0495482
-0.0343915
-0.0454943
-0.0596744
-0.0439527
0.0092792
-0.229955
-0.230974
-0.233114
-0.241787
-0.254138
-0.266923
-0.269527
-0.251471
-0.21258
-0.165386
-0.117837
-0.0762844
-0.0441279
-0.023645
-0.00982495
0.000342743
-0.0158162
-0.030869
-0.068759
-0.123645
-0.144555
-0.118737
-0.0818568
-0.0588746
-0.0461928
-0.0334889
-0.0447131
-0.0583927
-0.0435173
0.00852305
-0.217825
-0.220327
-0.221321
-0.227709
-0.236919
-0.245434
-0.245201
-0.228335
-0.193985
-0.152035
-0.108911
-0.0704062
-0.0400114
-0.0201424
-0.00602291
0.00472787
-0.0100347
-0.0232451
-0.0618808
-0.118857
-0.14084
-0.113821
-0.0772119
-0.0542808
-0.0424061
-0.0322843
-0.04363
-0.056735
-0.042763
0.00769298
-0.204511
-0.208426
-0.208807
-0.213225
-0.219823
-0.225107
-0.222803
-0.20705
-0.176658
-0.139357
-0.10029
-0.0646467
-0.0358952
-0.0165419
-0.00208089
0.00969156
-0.00314297
-0.0142861
-0.0529777
-0.112204
-0.13515
-0.107522
-0.0718505
-0.0492272
-0.0381699
-0.0307062
-0.0421621
-0.0545924
-0.041576
0.00678736
-0.190542
-0.195657
-0.195848
-0.198681
-0.203156
-0.206023
-0.202262
-0.18754
-0.16057
-0.127366
-0.0919871
-0.0590297
-0.0317866
-0.0128323
0.00203136
0.0152884
0.00504863
-0.00383444
-0.0417897
-0.103675
-0.127329
-0.0998192
-0.065781
-0.0437254
-0.0334727
-0.0286753
-0.0402126
-0.0518392
-0.0398286
0.00580522
-0.17635
-0.182365
-0.182645
-0.184294
-0.187075
-0.188154
-0.183426
-0.169675
-0.145663
-0.116058
-0.0840163
-0.0535733
-0.0277085
-0.00902571
0.00631701
0.0215467
0.0146827
0.00815687
-0.028334
-0.0933476
-0.116925
-0.0907553
-0.0590423
-0.0378032
-0.028308
-0.0261084
-0.0376724
-0.0483406
-0.0373933
0.00475025
-0.162224
-0.168827
-0.169358
-0.17019
-0.171657
-0.171435
-0.166126
-0.15331
-0.131864
-0.105422
-0.0763899
-0.0482911
-0.0236998
-0.00515797
0.0107374
0.0284245
0.0257091
0.021454
-0.0130447
-0.0814024
-0.104735
-0.0804671
-0.0517064
-0.0315074
-0.0226758
-0.0229238
-0.0344234
-0.0439621
-0.0341477
0.00363361
-0.148355
-0.155278
-0.156128
-0.156449
-0.15694
-0.155798
-0.150204
-0.138299
-0.119099
-0.0954417
-0.0691226
-0.0431945
-0.0198103
-0.0012936
0.0152054
0.0357082
0.0376297
0.0353117
0.00305806
-0.0680161
-0.0906261
-0.0691659
-0.0438772
-0.0249051
-0.016587
-0.0190484
-0.0303452
-0.0385835
-0.0299831
0.00247576
-0.13489
-0.141914
-0.143092
-0.143134
-0.142945
-0.141181
-0.135523
-0.124515
-0.107298
-0.0860954
-0.0622296
-0.0382973
-0.016089
0.00246679
0.0195936
0.0429107
0.0492805
0.0483157
0.0183931
-0.0532663
-0.0749079
-0.0571505
-0.0356871
-0.0180832
-0.010068
-0.0144278
-0.0253277
-0.0321186
-0.0248254
0.00130635
-0.121942
-0.128893
-0.130372
-0.130306
-0.129681
-0.127533
-0.121974
-0.111843
-0.0963928
-0.0773619
-0.0557229
-0.0336224
-0.0125745
0.00599307
0.023733
0.0492727
0.0591167
0.0587963
0.0313946
-0.0372512
-0.0580999
-0.0448054
-0.0272915
-0.0111454
-0.0031672
-0.00903559
-0.0192886
-0.0245407
-0.0186605
0.000161481
-0.109597
-0.116343
-0.118076
-0.118021
-0.117154
-0.114808
-0.109464
-0.100186
-0.0863234
-0.0692216
-0.0496088
-0.0292025
-0.00929746
0.0091509
0.0273957
0.0540005
0.0659916
0.0657267
0.0412361
-0.0205553
-0.0410263
-0.0325842
-0.0188605
-0.0042067
0.00403572
-0.0028856
-0.0122002
-0.0159089
-0.0115729
-0.000908723
-0.0979194
-0.104367
-0.106296
-0.106326
-0.105367
-0.102968
-0.0979194
-0.0894642
-0.077034
-0.0616569
-0.0438891
-0.0250722
-0.0062913
0.0118234
0.030313
0.0565562
0.0696249
0.0691384
0.0478839
-0.00451228
-0.0247345
-0.0209428
-0.0105674
0.00261414
0.0114217
0.00394401
-0.00412124
-0.00639402
-0.00378529
-0.00182451
-0.0869534
-0.093038
-0.0951083
-0.0952648
-0.0943204
-0.0919776
-0.0872778
-0.0796089
-0.0684755
-0.054652
-0.0385644
-0.0212594
-0.00359769
0.0139285
0.0322502
0.0569216
0.0703597
0.0696945
0.051677
0.00939314
-0.010137
-0.0102397
-0.00257841
0.00919514
0.0188303
0.0112912
0.00476339
0.00370259
0.00433012
-0.00247806
-0.076728
-0.0824111
-0.0845723
-0.0848738
-0.0840162
-0.0818064
-0.0774872
-0.0705638
-0.060606
-0.0481913
-0.0336369
-0.0177811
-0.00125698
0.015441
0.0331142
0.0554608
0.0687171
0.0681615
0.0531611
0.0202798
0.00221957
-0.000677875
0.00495186
0.0154095
0.0260489
0.0188977
0.0140967
0.0139433
0.0122682
-0.00274432
-0.0672586
-0.0725222
-0.0747308
-0.0751796
-0.0744539
-0.0724278
-0.068504
-0.0622822
-0.0533909
-0.0422587
-0.0291098
-0.0146423
0.000710781
0.0163928
0.0329853
0.0520674
0.0653121
0.065269
0.0530326
0.028107
0.0122128
0.00767797
0.0118881
0.0211323
0.0327961
0.0264075
0.0234328
0.0237613
0.0194569
-0.00250427
-0.058551
-0.063393
-0.0656135
-0.0662024
-0.0656327
-0.0638199
-0.0602924
-0.0547257
-0.0468018
-0.0368385
-0.0249834
-0.0118391
0.00231507
0.0168641
0.0321633
0.0487407
0.0609225
0.0616353
0.051929
0.0333799
0.0200358
0.0148463
0.0181273
0.0262644
0.0387277
0.0333886
0.0319506
0.0325029
0.0253975
-0.00167416
-0.050604
-0.055035
-0.0572395
-0.0579549
-0.0575509
-0.0559641
-0.0528232
-0.0478629
-0.0408153
-0.0319157
-0.0212532
-0.00935935
0.00358915
0.0169523
0.03087
0.0452535
0.0561591
0.0577005
0.0503051
0.0367233
0.0260011
0.0208875
0.0235992
0.0307615
0.043525
0.0394097
0.038973
0.039523
0.0298093
-0.000231144
-0.0434122
-0.0474523
-0.0496202
-0.0504457
-0.0502065
-0.0488462
-0.0460732
-0.041669
-0.0354123
-0.0274763
-0.0179105
-0.00718509
0.00458121
0.0167572
0.0293029
0.0418049
0.0514602
0.0537586
0.0484477
0.0386922
0.0304366
0.0258861
0.028259
0.0346011
0.0470143
0.044163
0.0440179
0.0443308
0.0327057
0.00175716
-0.0369681
-0.040645
-0.0427625
-0.0436814
-0.0435984
-0.0424557
-0.0400252
-0.0361256
-0.0305777
-0.0235082
-0.0149431
-0.00529483
0.00534318
0.0163747
0.0276273
0.0385454
0.0470966
0.0500065
0.0465353
0.0397208
0.0336439
0.0299421
0.0320982
0.037768
0.0491521
0.0475488
0.0469421
0.0468215
0.0343335
0.0040874
-0.0312656
-0.0346122
-0.0366713
-0.0376671
-0.037727
-0.0367867
-0.0346683
-0.0312201
-0.0263008
-0.0200019
-0.0123382
-0.00366646
0.00592471
0.0158896
0.0259741
0.0355911
0.0432143
0.0465744
0.0446778
0.0401336
0.0358913
0.0331619
0.0351523
0.040273
0.0501084
0.0493398
0.0481713
0.047397
0.0350018
0.00641589
-0.0263012
-0.0293543
-0.0313517
-0.0324096
-0.0325964