/*--------------------------------*- C++ -*----------------------------------*\
  =========                 |
  \\      /  F ield         | OpenFOAM: The Open Source CFD Toolbox
   \\    /   O peration     | Website:  https://openfoam.org
    \\  /    A nd           | Version:  7
     \\/     M anipulation  |
\*---------------------------------------------------------------------------*/
FoamFile
{
    version     2.0;
    format      ascii;
    class       volVectorField;
    location    "170";
    object      U;
}
// * * * * * * * * * * * * * * * * * * * * * * * * * * * * * * * * * * * * * //

dimensions      [0 1 -1 0 0 0 0];

internalField   nonuniform List<vector> 
8500
(
(-0.00192507 -0.0329807 1.02775e-21)
(-0.0121468 -0.0539534 -2.95677e-21)
(-0.0313173 -0.0475567 -3.4527e-21)
(-0.0538008 -0.0262725 3.43424e-21)
(-0.0779063 0.00120576 -3.15242e-21)
(-0.102356 0.03066 -1.68093e-21)
(-0.126103 0.06143 2.87536e-21)
(-0.148457 0.0946163 3.52084e-21)
(-0.168871 0.131595 -5.6484e-22)
(-0.187319 0.17396 1.69373e-21)
(-0.000817665 -0.0287758 -1.13909e-21)
(-0.010061 -0.0449888 3.51616e-21)
(-0.0285879 -0.0360435 -8.02154e-21)
(-0.0505056 -0.0135256 7.26623e-21)
(-0.0739172 0.0143393 3.66522e-22)
(-0.0974658 0.0435606 5.40315e-21)
(-0.120072 0.0736113 -9.32101e-21)
(-0.141008 0.105761 -1.35623e-20)
(-0.159539 0.14158 -2.55287e-21)
(-0.175141 0.182757 5.79089e-21)
(4.44847e-05 -0.024748 9.79634e-22)
(-0.00834653 -0.036515 7.39597e-21)
(-0.0260514 -0.0252824 1.75576e-20)
(-0.0470514 -0.0017202 -1.58694e-20)
(-0.0692615 0.0264143 -3.47526e-21)
(-0.0912414 0.0553218 -3.23271e-21)
(-0.111861 0.0845518 1.63045e-20)
(-0.13033 0.115492 1.03091e-20)
(-0.145743 0.149893 2.61626e-21)
(-0.156734 0.189424 -1.77914e-20)
(0.00067567 -0.0209929 3.44688e-21)
(-0.0070121 -0.0287101 -4.39418e-21)
(-0.023794 -0.0154934 -3.19407e-20)
(-0.0436176 0.00889115 2.91152e-21)
(-0.0642199 0.0371481 8.79238e-21)
(-0.084072 0.0656352 -6.65209e-21)
(-0.101981 0.0939209 -6.84907e-22)
(-0.117078 0.123451 -2.59937e-21)
(-0.128382 0.156146 6.07601e-21)
(-0.133283 0.19357 1.69896e-20)
(0.00109592 -0.0175717 2.33881e-21)
(-0.00605965 -0.0216934 -1.33738e-20)
(-0.0218998 -0.00683695 3.2465e-20)
(-0.0403901 0.0181057 -1.44806e-20)
(-0.0590929 0.0462953 -1.03751e-22)
(-0.0763843 0.0742199 1.98297e-20)
(-0.0910017 0.101414 -9.21327e-21)
(-0.101984 0.129315 1.1321e-21)
(-0.108458 0.160005 -3.71278e-21)
(-0.106123 0.194937 8.79039e-22)
(0.00132587 -0.0145102 2.78152e-20)
(-0.00548951 -0.0155221 3.40321e-20)
(-0.0204501 0.000591985 -8.8481e-21)
(-0.0375537 0.0257798 1.66489e-20)
(-0.0541861 0.0536586 4.98521e-21)
(-0.068621 0.0808324 -7.47253e-21)
(-0.0795271 0.106761 -2.78487e-21)
(-0.0858206 0.132797 -1.14773e-20)
(-0.0869761 0.161149 2.47344e-21)
(-0.0766793 0.19347 -1.48148e-20)
(0.0013818 -0.0117998 -2.67512e-20)
(-0.00530541 -0.0101921 -1.76289e-20)
(-0.0195223 0.00676666 1.40092e-20)
(-0.035282 0.0318362 -2.40481e-20)
(-0.0497914 0.0591003 2.45105e-21)
(-0.0612145 0.0852801 2.75439e-20)
(-0.0681607 0.109731 -4.88946e-21)
(-0.0693763 0.133641 3.16136e-20)
(-0.0648147 0.159178 -1.00831e-21)
(-0.0462531 0.189113 -1.21256e-20)
(0.00127163 -0.00940178 2.16785e-20)
(-0.00551812 -0.00564346 -3.93264e-20)
(-0.0191865 0.0117269 -1.55608e-20)
(-0.0337254 0.0362693 1.8562e-20)
(-0.0461641 0.0625541 3.04903e-22)
(-0.054552 0.0874374 -5.12248e-20)
(-0.057462 0.110159 -2.68583e-21)
(-0.0534722 0.131714 -2.43169e-20)
(-0.0427792 0.153937 -3.06485e-20)
(-0.0158081 0.181195 1.75283e-20)
(0.000992244 -0.00725398 -1.20983e-20)
(-0.00614666 -0.00177061 5.9106e-21)
(-0.0195003 0.0155732 1.43134e-20)
(-0.0329955 0.039146 -1.21868e-20)
(-0.0434939 0.0640352 -4.35521e-20)
(-0.0489281 0.0872631 1.50832e-20)
(-0.0478344 0.107949 2.32865e-21)
(-0.0387331 0.126916 3.57383e-20)
(-0.0219266 0.145518 4.56145e-20)
(0.0138163 0.169044 -2.0173e-20)
(0.000529096 -0.00527943 1.84482e-20)
(-0.00721599 0.00156419 1.67518e-20)
(-0.0204995 0.0184557 -2.44265e-21)
(-0.0331461 0.0406031 6.16462e-20)
(-0.041872 0.0636473 2.60714e-20)
(-0.044506 0.0848194 1.92655e-20)
(-0.0395251 0.103153 2.63756e-20)
(-0.0254009 0.119238 -1.18018e-20)
(-0.00281095 0.133972 -1.50716e-20)
(0.042054 0.152729 -2.33114e-20)
(-0.000141796 -0.00339642 -2.03232e-21)
(-0.00875063 0.00451408 -2.61493e-20)
(-0.0221858 0.0205602 -1.87283e-20)
(-0.0341507 0.0408393 -3.00535e-20)
(-0.0412484 0.0615872 -2.34239e-20)
(-0.0412155 0.0803008 2.32375e-20)
(-0.032485 0.095976 -2.17813e-20)
(-0.0133871 0.108924 -1.48271e-20)
(0.0147405 0.119446 1.85991e-21)
(0.0694305 0.132549 6.54141e-21)
(-0.00104918 -0.00152924 -4.94995e-20)
(-0.0107643 0.00722948 2.37886e-20)
(-0.0245105 0.02209 1.72959e-20)
(-0.035877 0.0401018 1.13393e-20)
(-0.0413917 0.0581383 -2.03014e-20)
(-0.0387092 0.0740216 -1.7007e-20)
(-0.026205 0.0867576 2.41334e-20)
(-0.00196891 0.0964655 -1.90677e-20)
(0.0317797 0.102495 -1.22297e-21)
(0.098025 0.109251 -1.84106e-20)
(-0.00221976 0.000381517 4.07889e-20)
(-0.0132466 0.00983964 1.65115e-20)
(-0.0273579 0.0232459 1.02837e-21)
(-0.0380645 0.0386672 -2.0702e-20)
(-0.041854 0.0536543 1.70587e-21)
(-0.0362923 0.0664131 2.18461e-20)
(-0.0196408 0.0760317 -6.00296e-21)
(0.0104003 0.0825773 -6.94209e-21)
(0.0505659 0.0840005 -1.53307e-20)
(0.131666 0.0844676 2.82139e-20)
(-0.00366923 0.00236854 2.68233e-20)
(-0.016149 0.0124355 -4.42721e-20)
(-0.0305307 0.0242049 -3.38299e-20)
(-0.0403091 0.0368163 1.47023e-20)
(-0.04195 0.048532 2.95505e-20)
(-0.0328925 0.0579997 2.41351e-20)
(-0.0111655 0.0644779 -2.51583e-20)
(0.0261068 0.06817 4.74763e-20)
(0.0746521 0.0650679 -1.38662e-20)
(0.17545 0.0608023 -3.2064e-20)
(-0.00539304 0.00443136 -4.08137e-20)
(-0.0193722 0.0150564 2.46092e-20)
(-0.0337427 0.0251001 -1.13961e-20)
(-0.0420624 0.0348065 1.19006e-21)
(-0.0407674 0.0431754 1.21368e-20)
(-0.0270888 0.0493482 -3.83111e-20)
(0.00135731 0.0528516 3.28325e-20)
(0.0481635 0.0542327 -3.13811e-20)
(0.108558 0.0468921 4.85604e-20)
(0.234253 0.0413027 1.70332e-20)
(-0.00735975 0.00653402 8.37323e-21)
(-0.0227596 0.0176818 4.70557e-20)
(-0.0366224 0.0260027 -1.16131e-20)
(-0.0426529 0.0328413 1.18341e-20)
(-0.037214 0.0379464 1.33087e-20)
(-0.0172221 0.0410077 -3.94163e-21)
(0.0203479 0.0418999 2.79886e-20)
(0.0797182 0.0416633 1.59966e-21)
(0.156921 0.0307318 -3.06106e-20)
(0.310527 0.0284775 4.02805e-20)
(-0.00950673 0.00860662 -2.26513e-20)
(-0.0260981 0.0202296 -4.43749e-20)
(-0.0387294 0.0269103 3.84527e-20)
(-0.0413307 0.0310432 1.90334e-20)
(-0.0301161 0.0331368 -8.74755e-20)
(-0.00156095 0.0334337 7.01229e-20)
(0.0481718 0.0322781 -6.16234e-20)
(0.123478 0.0311317 1.04267e-21)
(0.223363 0.018049 -1.30158e-20)
(0.402395 0.0235339 -3.6953e-20)
(-0.011741 0.0105529 1.93813e-20)
(-0.0291268 0.0225636 -2.551e-21)
(-0.0395805 0.0277438 -9.42871e-21)
(-0.0373154 0.029441 -1.2063e-21)
(-0.0183274 0.0289136 -5.45647e-21)
(0.0214751 0.0269474 -2.22838e-20)
(0.0867856 0.0244915 9.08094e-21)
(0.181264 0.0229959 -1.4335e-20)
(0.309353 0.0106224 4.37953e-21)
(0.503403 0.0264271 1.14077e-21)
(-0.0139448 0.0122626 -3.95483e-20)
(-0.0315518 0.0245085 -2.78601e-21)
(-0.038682 0.0283559 4.30501e-21)
(-0.0298684 0.0279648 1.7584e-21)
(-0.000818714 0.0253083 2.85464e-20)
(0.0531432 0.0217263 -8.19236e-20)
(0.137436 0.0188498 5.37949e-20)
(0.253895 0.0173819 -3.9621e-20)
(0.413383 0.0102159 3.21867e-20)
(0.605033 0.0354947 3.4294e-20)
(-0.0159854 0.0136264 -4.79078e-21)
(-0.0330632 0.0258726 2.20836e-20)
(-0.0355555 0.0285551 -2.76316e-20)
(-0.0183361 0.0264727 -8.62829e-21)
(0.0232243 0.0222572 1.64931e-20)
(0.0942695 0.0178099 7.79331e-20)
(0.200468 0.0154779 -1.51986e-20)
(0.341057 0.014529 7.29497e-21)
(0.530462 0.0173728 -3.77266e-20)
(0.702556 0.0445046 1.69952e-20)
(-0.0177266 0.014551 -1.44348e-20)
(-0.0333514 0.0264754 -1.1259e-20)
(-0.0297582 0.0281453 2.80484e-21)
(-0.00215853 0.0247896 1.08426e-20)
(0.0543881 0.0196528 -3.1948e-20)
(0.145225 0.0151881 -1.27846e-20)
(0.275309 0.0143995 -3.95063e-20)
(0.44076 0.0151538 3.92259e-20)
(0.651407 0.0294686 4.06802e-20)
(0.799738 0.0437835 -1.65971e-20)
(-0.0190386 0.0149718 -6.91488e-21)
(-0.0321169 0.0261793 2.81393e-20)
(-0.0208813 0.0269613 -3.14205e-20)
(0.0191334 0.0227667 -3.66273e-21)
(0.0930628 0.0174235 -1.47323e-20)
(0.205979 0.0139083 3.15662e-20)
(0.3607 0.0157038 3.98379e-20)
(0.549155 0.0200387 -3.75707e-20)
(0.765249 0.0398864 3.94748e-20)
(0.925733 0.0419746 5.43897e-21)
(-0.0198019 0.0148582 -2.00679e-20)
(-0.0290767 0.024909 -5.69423e-20)
(-0.00853589 0.0249072 5.55589e-20)
(0.0459463 0.0203495 7.98228e-21)
(0.139483 0.0156094 1.15046e-20)
(0.276116 0.0141509 7.10532e-21)
(0.454747 0.0196031 3.06674e-20)
(0.66092 0.0288122 2.20553e-20)
(0.874581 0.0506911 -7.66803e-20)
(1.0355 0.0543337 -3.69069e-20)
(-0.0199071 0.0142171 -6.85299e-20)
(-0.0239554 0.0226641 1.3782e-20)
(0.00765195 0.0219969 -3.15038e-20)
(0.0786491 0.0176219 6.09051e-21)
(0.193742 0.0144173 9.72378e-21)
(0.354817 0.0162507 -6.91404e-20)
(0.554809 0.0263615 3.03355e-20)
(0.771162 0.0406818 -1.98583e-20)
(0.97533 0.0637515 2.0626e-20)
(1.12228 0.068577 -7.19843e-21)
(-0.0192573 0.0130896 2.48612e-20)
(-0.0164775 0.0195247 2.69564e-20)
(0.0280531 0.018371 -1.59195e-21)
(0.117571 0.0148297 -8.59065e-21)
(0.255754 0.0142356 2.39373e-22)
(0.440765 0.0206364 4.90107e-22)
(0.657567 0.0360887 -4.59656e-20)
(0.875669 0.0549527 6.14049e-21)
(1.06355 0.0782331 5.57754e-20)
(1.19208 0.0833591 2.47318e-20)
(-0.0177617 0.0115402 -1.69046e-20)
(-0.00637071 0.0156475 -1.24637e-20)
(0.0530323 0.014296 5.37848e-20)
(0.162964 0.0123804 1.37162e-21)
(0.325142 0.0155992 -2.24997e-20)
(0.532057 0.0277056 5.97224e-20)
(0.759389 0.0486318 1.30172e-20)
(0.971025 0.0709325 8.02848e-22)
(1.13807 0.0934323 -2.45453e-20)
(1.24484 0.0980228 -3.16469e-20)
(-0.0153244 0.00964917 3.55942e-20)
(0.00663308 0.0112563 -9.83575e-21)
(0.0829223 0.0101487 -5.89034e-21)
(0.214936 0.0108133 -2.23758e-20)
(0.401118 0.0191029 3.64187e-20)
(0.62623 0.0376891 -1.76813e-20)
(0.856811 0.0635955 -1.98416e-20)
(1.05507 0.0879752 -4.57432e-21)
(1.19867 0.108794 -1.43019e-20)
(1.2838 0.112055 1.52303e-20)
(-0.0118432 0.00750846 -1.30736e-20)
(0.022792 0.00662579 -7.80525e-20)
(0.117985 0.00639049 8.08773e-21)
(0.273356 0.0107454 2.79357e-20)
(0.482388 0.0252808 1.99247e-20)
(0.72048 0.0505709 -6.60052e-20)
(0.946995 0.080451 4.20398e-20)
(1.12683 0.105532 -1.88606e-20)
(1.2464 0.123928 2.81293e-20)
(1.3113 0.12543 7.68106e-21)
(-0.00720881 0.00521768 -1.44524e-20)
(0.0423385 0.00206773 2.76553e-20)
(0.158361 0.00353589 3.62175e-20)
(0.337771 0.0128012 -2.58729e-20)
(0.567165 0.0344935 9.58305e-21)
(0.812009 0.0661022 -5.81828e-20)
(1.02799 0.0986491 -1.07269e-20)
(1.18635 0.123186 8.95722e-21)
(1.28273 0.138632 -2.14825e-20)
(1.32982 0.138139 -2.1624e-20)
(-0.00130957 0.00288351 -1.8786e-20)
(0.0654581 -0.00208017 -6.43525e-21)
(0.204024 0.00212055 -6.58337e-20)
(0.407347 0.0175359 -1.03154e-20)
(0.653317 0.0468662 -1.02288e-21)
(0.898382 0.0838837 3.52489e-21)
(1.09874 0.117701 5.8548e-21)
(1.23436 0.140657 -2.84346e-20)
(1.30941 0.152823 5.2896e-22)
(1.34141 0.150302 1.49995e-20)
(0.00596227 0.000620787 -4.95239e-21)
(0.0922662 -0.00546235 2.28789e-20)
(0.254737 0.00267021 3.22335e-20)
(0.480881 0.025369 2.0155e-20)
(0.738602 0.0622977 -5.90712e-21)
(0.977755 0.103462 -4.93906e-21)
(1.15902 0.137215 4.83382e-20)
(1.27201 0.157783 6.4517e-21)
(1.32813 0.166514 2.13636e-20)
(1.34775 0.162045 -9.06088e-21)
(0.0147004 -0.00144506 4.73601e-20)
(0.122785 -0.00771163 3.04771e-20)
(0.310027 0.00567054 -3.09121e-20)
(0.556873 0.0365422 -6.15298e-21)
(0.820925 0.080522 3.24369e-21)
(1.04894 0.1244 -1.16744e-20)
(1.20913 0.156905 -2.49531e-20)
(1.30063 0.174493 -4.0392e-21)
(1.34045 0.179771 2.63817e-22)
(1.35018 0.173504 9.87571e-21)
(0.0249744 -0.00317709 5.98971e-21)
(0.156926 -0.00845683 -1.66887e-20)
(0.369182 0.0115375 3.95405e-20)
(0.633654 0.0511137 2.56871e-20)
(0.898529 0.101183 8.46797e-22)
(1.11136 0.146318 1.80459e-20)
(1.24978 0.176574 2.61862e-21)
(1.32157 0.190785 -1.87759e-20)
(1.34769 0.192688 1.56561e-20)
(1.34967 0.184795 3.18276e-23)
(0.0368214 -0.00442731 -3.93551e-20)
(0.194472 -0.00733249 -1.15709e-20)
(0.431277 0.0205909 -1.03974e-20)
(0.709537 0.0689826 -1.80828e-20)
(0.970086 0.123897 4.3134e-21)
(1.16491 0.168903 8.58888e-23)
(1.28188 0.196103 1.38204e-20)
(1.33608 0.206695 -2.29714e-21)
(1.35093 0.205364 -1.62015e-20)
(1.34695 0.196012 -1.48266e-20)
(0.050238 -0.00503888 3.22092e-21)
(0.235075 -0.00399246 1.88359e-20)
(0.49522 0.0330348 9.15028e-21)
(0.782952 0.0899309 -2.84116e-20)
(1.03471 0.148288 -1.36961e-21)
(1.20986 0.191906 -1.21214e-20)
(1.3064 0.21543 3.04293e-22)
(1.34526 0.222283 5.55611e-21)
(1.35102 0.217891 -6.08066e-21)
(1.34253 0.207218 1.68266e-20)
(0.0651749 -0.00485033 7.62848e-21)
(0.278259 0.00187333 -1.85249e-20)
(0.559819 0.0489504 -4.36553e-20)
(0.852551 0.113665 4.01147e-20)
(1.09191 0.17401 -2.96879e-21)
(1.24667 0.215138 8.75653e-21)
(1.32431 0.234527 -1.1847e-21)
(1.35006 0.237612 8.25195e-21)
(1.34861 0.230341 -6.47754e-22)
(1.33676 0.21845 -1.30223e-20)
(0.0815341 -0.0037013 -1.55927e-20)
(0.323426 0.010521 2.42145e-20)
(0.623857 0.0683004 1.98959e-20)
(0.917247 0.139848 -2.86973e-20)
(1.1415 0.200753 -4.75897e-21)
(1.27597 0.238451 1.79455e-21)
(1.33649 0.25339 1.78651e-20)
(1.35124 0.252742 8.58958e-22)
(1.34418 0.242766 3.36324e-21)
(1.32985 0.22972 -7.22195e-21)
(0.0991674 -0.00143928 1.18349e-20)
(0.369883 0.0221368 -1.06144e-20)
(0.686158 0.090942 -9.06998e-21)
(0.976232 0.168127 1.54581e-20)
(1.18355 0.228238 5.29874e-21)
(1.29841 0.261733 3.97988e-21)
(1.34373 0.272024 -1.82258e-20)
(1.3494 0.267717 -6.1472e-21)
(1.33807 0.255192 -5.42172e-21)
(1.32195 0.241017 2.3802e-21)
(0.117879 0.00207313 -5.95583e-21)
(0.416867 0.0368244 -1.34422e-22)
(0.745648 0.116646 1.71744e-20)
(1.02895 0.198142 -6.2624e-21)
(1.21827 0.256217 -2.77202e-21)
(1.31465 0.284891 -1.81158e-21)
(1.34671 0.290432 4.41084e-21)
(1.34503 0.282562 7.51047e-21)
(1.33052 0.267623 -2.43108e-22)
(1.31314 0.252312 2.6546e-21)
(0.13743 0.00695099 4.20377e-21)
(0.463578 0.0545989 -1.17897e-21)
(0.801389 0.145113 -3.08621e-21)
(1.07507 0.229537 -2.78867e-21)
(1.24601 0.284467 2.49301e-21)
(1.3253 0.307845 1.92389e-21)
(1.346 0.308607 -1.76344e-21)
(1.33848 0.297283 6.23037e-22)
(1.32167 0.280038 8.64383e-22)
(1.30347 0.263559 -1.12879e-21)
(0.157543 0.0132804 2.28206e-21)
(0.50921 0.0753856 6.46624e-22)
(0.852604 0.175994 -3.8606e-21)
(1.11443 0.261963 -3.06453e-21)
(1.26714 0.312781 3.17242e-21)
(1.33093 0.330519 6.18197e-22)
(1.34206 0.326532 -1.39844e-21)
(1.33001 0.311863 1.30356e-21)
(1.31164 0.292398 7.11646e-22)
(1.29296 0.274703 -7.96809e-22)
(0.177912 0.0211131 -8.87941e-22)
(0.552987 0.0990242 1.80867e-21)
(0.898675 0.208902 1.19386e-20)
(1.14702 0.295077 -5.28615e-21)
(1.28208 0.340966 -2.55069e-21)
(1.33206 0.352835 -2.83753e-21)
(1.33527 0.344172 5.75234e-21)
(1.31982 0.326264 3.78492e-21)
(1.30049 0.304641 2.96207e-21)
(1.28164 0.285679 1.56463e-21)
(0.19821 0.0304625 1.83877e-20)
(0.594183 0.125276 -1.0068e-20)
(0.939144 0.243428 -1.13825e-20)
(1.17294 0.32855 1.54028e-20)
(1.29126 0.368836 8.02354e-21)
(1.32912 0.374707 -5.20343e-22)
(1.32592 0.361474 -9.57846e-21)
(1.30803 0.340428 -6.80539e-21)
(1.28825 0.316692 -6.88575e-21)
(1.26951 0.296416 3.99122e-21)
(0.218103 0.0413017 -2.49006e-20)
(0.63215 0.153836 2.33385e-20)
(0.973695 0.279144 2.67665e-20)
(1.19236 0.362056 -2.61723e-20)
(1.29508 0.396212 -8.94672e-21)
(1.32249 0.396044 5.63704e-21)
(1.31424 0.378369 1.00456e-20)
(1.29474 0.354276 1.53374e-21)
(1.27495 0.328456 -2.24994e-22)
(1.25657 0.306836 -5.34507e-21)
(0.237254 0.0535632 -3.60565e-21)
(0.666327 0.184341 -3.29059e-20)
(1.00214 0.315617 -3.50729e-20)
(1.20551 0.395284 3.89707e-20)
(1.29394 0.422914 -4.39512e-21)
(1.31251 0.416743 7.84643e-21)
(1.30041 0.394775 1.47482e-21)
(1.28002 0.367721 -4.19914e-21)
(1.26057 0.339831 2.24544e-21)
(1.24273 0.316859 -2.45673e-22)
(0.255338 0.0671401 7.31056e-21)
(0.696252 0.216384 2.04318e-20)
(1.02441 0.352409 1.15058e-20)
(1.21267 0.427927 -9.04599e-21)
(1.28822 0.448763 -1.38325e-20)
(1.29946 0.436692 -1.26124e-20)
(1.28461 0.410598 -2.48061e-21)
(1.26391 0.380675 6.36741e-21)
(1.24509 0.350741 -1.33567e-21)
(1.22782 0.326395 2.9573e-21)
(0.272048 0.0818895 -2.7717e-20)
(0.721563 0.249525 -2.57117e-20)
(1.04051 0.389089 -4.04438e-21)
(1.21413 0.459693 -4.56697e-21)
(1.27825 0.47358 -1.01282e-20)
(1.2836 0.455767 6.03618e-21)
(1.26694 0.425731 -1.09411e-21)
(1.24648 0.393051 -5.51655e-21)
(1.22854 0.361174 4.97436e-21)
(1.21175 0.335334 -6.73243e-21)
(0.287102 0.0976358 6.58248e-21)
(0.742005 0.283305 2.179e-20)
(1.05055 0.425229 1.87904e-20)
(1.21021 0.490294 2.02392e-20)
(1.26436 0.497187 4.52481e-22)
(1.26513 0.473838 1.69428e-20)
(1.24752 0.44005 9.96452e-22)
(1.22779 0.404731 -1.87043e-20)
(1.21099 0.371131 1.29555e-20)
(1.19491 0.34361 4.64063e-21)
(0.300254 0.114175 1.79881e-20)
(0.757418 0.317256 4.00124e-20)
(1.05469 0.460416 -5.26966e-21)
(1.20125 0.519457 -2.54717e-20)
(1.24688 0.519405 1.13242e-20)
(1.24427 0.490768 -1.149e-20)
(1.22646 0.453428 -1.47156e-20)
(1.20788 0.415572 -9.89773e-22)
(1.19239 0.380368 -1.04119e-20)
(1.17754 0.351256 3.81515e-21)
(0.311299 0.131279 8.42249e-21)
(0.767733 0.350913 6.18784e-21)
(1.05314 0.494254 4.93679e-20)
(1.18758 0.546915 9.04614e-21)
(1.22607 0.540057 -7.75403e-21)
(1.22119 0.506417 -3.90357e-21)
(1.20388 0.465736 2.22064e-20)
(1.18682 0.425505 1.75603e-20)
(1.17274 0.388738 8.36452e-21)
(1.15952 0.358111 -1.0076e-21)
(0.32007 0.148705 1.74482e-21)
(0.772963 0.38382 -4.08633e-20)
(1.04617 0.526364 -5.79979e-20)
(1.16955 0.572415 1.6652e-21)
(1.20224 0.558969 1.07974e-20)
(1.19609 0.520634 -1.48007e-20)
(1.17989 0.476841 -3.19068e-20)
(1.16464 0.434407 -9.06409e-21)
(1.15218 0.396152 -5.09482e-22)
(1.14078 0.364064 3.26126e-21)
(0.326448 0.166199 -1.45875e-20)
(0.773194 0.415536 3.66003e-20)
(1.0341 0.556394 3.47743e-20)
(1.14751 0.595724 -3.14013e-20)
(1.17564 0.575959 4.82042e-21)
(1.16915 0.533272 3.45675e-20)
(1.15458 0.486616 -6.9088e-21)
(1.14141 0.442164 5.78549e-21)
(1.13077 0.40251 -2.18576e-21)
(1.12138 0.369028 -2.67273e-21)
(0.330356 0.183501 -3.27491e-20)
(0.768593 0.445636 -5.77179e-20)
(1.01731 0.584025 -1.12078e-20)
(1.1218 0.616625 1.81346e-20)
(1.1465 0.590855 1.70238e-20)
(1.14053 0.544177 -3.40597e-20)
(1.12806 0.494933 1.74474e-20)
(1.11721 0.448665 -7.83259e-21)
(1.10857 0.407716 5.42011e-21)
(1.10138 0.372932 4.66056e-22)
(0.33177 0.20035 2.50107e-20)
(0.7594 0.473712 1.84411e-21)
(0.996153 0.608963 -5.54581e-21)
(1.09265 0.634883 -2.2023e-20)
(1.11514 0.603517 1.34473e-20)
(1.11043 0.553202 3.22294e-21)
(1.10046 0.501667 -9.0235e-21)
(1.09215 0.453803 2.27933e-21)
(1.08566 0.411673 -7.96763e-22)
(1.08086 0.375701 -6.71081e-22)
(0.330723 0.216496 -6.76175e-21)
(0.745927 0.499412 -9.25666e-21)
(0.970819 0.630895 2.36677e-20)
(1.06046 0.650325 1.08207e-20)
(1.08187 0.613755 -1.4175e-20)
(1.07902 0.560239 1.77721e-20)
(1.07191 0.50671 1.70601e-21)
(1.06634 0.457479 2.4271e-21)
(1.06214 0.41428 3.16692e-21)
(1.05991 0.377241 5.9476e-22)
(0.327301 0.231687 4.36364e-20)
(0.728482 0.522526 3.34969e-20)
(0.941525 0.649465 -2.61902e-21)
(1.02573 0.662765 -4.77798e-21)
(1.04693 0.621444 -5.58292e-21)
(1.04649 0.565161 -2.50234e-21)
(1.04255 0.509956 2.33675e-21)
(1.03988 0.459608 8.88969e-22)
(1.03807 0.415443 -2.57032e-21)
(1.03859 0.377455 -4.56731e-21)
(0.321578 0.245599 3.23804e-21)
(0.707227 0.542769 5.5876e-21)
(0.90893 0.664648 -2.96565e-20)
(0.98885 0.671959 1.26652e-20)
(1.01058 0.626483 2.00654e-21)
(1.01304 0.567865 -3.6833e-21)
(1.01254 0.511314 1.52468e-21)
(1.01288 0.460112 1.13053e-21)
(1.0136 0.415093 -4.26158e-21)
(1.01713 0.37629 5.67715e-21)
(0.313574 0.257947 -1.65933e-20)
(0.682404 0.559662 -1.17501e-20)
(0.873625 0.676289 8.89004e-21)
(0.950131 0.677844 1.62047e-21)
(0.973085 0.628765 -5.06775e-21)
(0.978863 0.568254 3.5409e-21)
(0.981998 0.510691 2.64142e-21)
(0.985454 0.458902 -1.05083e-20)
(0.988971 0.413161 2.4707e-20)
(0.996134 0.373779 9.76126e-21)
(0.303493 0.268512 -1.24184e-20)
(0.654478 0.572901 2.93694e-20)
(0.835959 0.68417 -1.78693e-20)
(0.9099 0.680348 -2.99799e-21)
(0.934708 0.628204 -1.75203e-21)
(0.944141 0.566247 -2.15474e-21)
(0.951047 0.508004 -8.81e-21)
(0.957714 0.455846 4.70013e-21)
(0.964582 0.409462 -1.38758e-21)
(0.976283 0.369957 -4.5684e-21)
(0.291585 0.277259 -1.29751e-21)
(0.623913 0.582372 -8.83678e-21)
(0.796334 0.688099 3.85207e-21)
(0.868505 0.679393 -1.40023e-21)
(0.895713 0.624739 5.80682e-21)
(0.909062 0.56179 5.19176e-21)
(0.919814 0.503202 1.64605e-20)
(0.92986 0.450845 -1.21994e-20)
(0.940793 0.403642 -2.33889e-20)
(0.956865 0.364195 9.79482e-21)
(0.277995 0.284003 -7.70873e-22)
(0.591164 0.587946 -2.46642e-21)
(0.755173 0.687969 9.87464e-22)
(0.826298 0.674917 7.40544e-21)
(0.856367 0.618326 -1.26732e-20)
(0.873823 0.554852 -2.0535e-20)
(0.888489 0.49628 -6.25156e-21)
(0.902162 0.44401 -1.41511e-21)
(0.917609 0.395891 3.07321e-20)
(0.935118 0.35293 -6.94601e-21)
(0.262936 0.288594 1.18048e-21)
(0.556675 0.589518 -4.0063e-21)
(0.712906 0.683722 2.10795e-22)
(0.783629 0.666883 6.86113e-22)
(0.816937 0.608937 -8.61575e-21)
(0.838643 0.545402 3.87044e-20)
(0.857324 0.487204 -2.69187e-20)
(0.874831 0.435409 3.23783e-20)
(0.894002 0.387996 -2.28502e-20)
(0.911407 0.346441 -3.01725e-20)
(0.246652 0.290922 -1.33142e-21)
(0.520881 0.587011 -7.29841e-22)
(0.669962 0.675337 3.41019e-22)
(0.740846 0.655279 1.35726e-20)
(0.777691 0.596563 -5.44043e-21)
(0.803747 0.533422 8.37068e-21)
(0.826525 0.475924 1.58874e-20)
(0.847883 0.424782 -8.39567e-21)
(0.870274 0.377903 -2.15492e-20)
(0.88876 0.336623 3.00012e-20)
(0.229398 0.290905 1.10287e-20)
(0.484214 0.580389 1.47003e-20)
(0.62676 0.662826 -1.41183e-20)
(0.698291 0.640124 -1.26556e-20)
(0.738896 0.581217 4.41288e-20)
(0.769356 0.518924 -4.49882e-20)
(0.796243 0.462484 5.38642e-20)
(0.821349 0.412348 -1.36343e-20)
(0.846678 0.366551 1.46201e-20)
(0.866883 0.326434 2.70458e-20)
(0.211436 0.28849 -4.12175e-21)
(0.447106 0.569651 -1.42372e-20)
(0.583713 0.646231 -8.44802e-21)
(0.656297 0.621461 -4.78845e-21)
(0.700816 0.562932 5.186e-21)
(0.73569 0.501928 -1.15343e-20)
(0.766652 0.44689 -1.61463e-20)
(0.795385 0.398043 -3.49192e-20)
(0.823535 0.353571 3.46143e-20)
(0.845844 0.314815 -1.13426e-20)
(0.193029 0.283653 2.62623e-20)
(0.409979 0.554836 -3.13286e-21)
(0.54122 0.625624 -1.18731e-20)
(0.615192 0.599356 1.54185e-20)
(0.663711 0.541761 -2.78378e-20)
(0.70296 0.482478 7.42078e-20)
(0.737918 0.429189 -3.95898e-20)
(0.770159 0.381947 3.5945e-20)
(0.801066 0.339109 -6.61535e-20)
(0.825681 0.301906 -1.75455e-20)
(0.174438 0.276398 -8.43257e-21)
(0.373247 0.536019 2.79036e-20)
(0.499667 0.601106 6.6169e-21)
(0.575289 0.573903 -1.42939e-20)
(0.627834 0.517777 -2.46613e-20)
(0.671372 0.460635 -1.0031e-21)
(0.710215 0.409431 1.32193e-20)
(0.745836 0.364091 -3.2257e-20)
(0.779429 0.323142 1.60072e-20)
(0.806441 0.287643 2.13972e-21)
(0.155923 0.266757 -4.55327e-20)
(0.337311 0.513308 -1.12239e-20)
(0.459428 0.572808 -3.07132e-21)
(0.536891 0.545217 3.66857e-20)
(0.593428 0.491076 -3.4073e-20)
(0.641129 0.436477 -8.94408e-21)
(0.683715 0.387685 -5.39973e-21)
(0.722574 0.344535 1.00688e-20)
(0.758764 0.305712 -1.26448e-20)
(0.788198 0.272061 -1.97855e-20)
(0.137737 0.254787 4.01533e-20)
(0.302556 0.486848 -2.28166e-20)
(0.420855 0.540888 1.15739e-21)
(0.500287 0.513436 -5.55463e-20)
(0.560726 0.461771 6.03172e-20)
(0.612424 0.410099 -1.91124e-20)
(0.658583 0.364032 1.14705e-20)
(0.700521 0.323346 9.95963e-21)
(0.739194 0.286863 2.89363e-20)
(0.771026 0.255207 -1.18058e-20)
(0.120125 0.240571 -1.63665e-20)
(0.269346 0.456812 4.72811e-20)
(0.384284 0.50553 2.66775e-20)
(0.465751 0.47872 4.3653e-20)
(0.52995 0.429994 -1.01607e-20)
(0.585442 0.381611 4.06281e-21)
(0.634978 0.338567 3.28493e-20)
(0.679817 0.3006 7.29245e-21)
(0.720837 0.266657 6.99524e-22)
(0.755003 0.237149 -1.40809e-20)
(0.10332 0.224217 -3.74642e-20)
(0.238026 0.423404 -2.77622e-21)
(0.350029 0.466942 -1.56311e-20)
(0.433537 0.441249 -7.01348e-20)
(0.501309 0.395895 -6.78176e-20)
(0.56036 0.351142 1.13422e-20)
(0.61305 0.311401 -2.79142e-20)
(0.660591 0.276391 1.7767e-20)
(0.703805 0.245173 9.67129e-21)
(0.740206 0.217964 2.03251e-20)
(0.0875419 0.205855 5.48941e-20)
(0.208917 0.386855 -4.49205e-20)
(0.31838 0.425356 -2.28126e-20)
(0.403886 0.401223 4.053e-20)
(0.474997 0.359642 4.60703e-20)
(0.537342 0.318831 -1.52335e-20)
(0.592941 0.282652 -1.93674e-21)
(0.642964 0.250819 -5.5344e-20)
(0.688199 0.222497 -3.13266e-20)
(0.726708 0.197742 1.19407e-20)
(0.0729949 0.185633 -3.12042e-20)
(0.182313 0.347422 1.3153e-20)
(0.289605 0.381027 4.83323e-20)
(0.377014 0.358858 -2.16339e-20)
(0.451195 0.321416 1.67119e-21)
(0.516538 0.284836 6.13876e-20)
(0.574779 0.252456 2.85958e-21)
(0.627051 0.223999 5.28888e-20)
(0.674119 0.19873 2.20749e-20)
(0.714577 0.176577 -3.51031e-20)
(0.0598658 0.163722 4.31139e-20)
(0.158482 0.305385 4.74389e-21)
(0.263946 0.334226 3.11452e-21)
(0.35312 0.31439 4.40988e-20)
(0.430065 0.281414 -5.91121e-21)
(0.498087 0.249322 -3.84832e-20)
(0.558682 0.220956 1.8852e-20)
(0.612953 0.196055 -3.01129e-20)
(0.661653 0.173981 -1.26212e-20)
(0.703876 0.154572 1.27539e-20)
(0.0483221 0.140307 -2.68947e-20)
(0.137661 0.261044 -5.16223e-20)
(0.241616 0.285244 1.19072e-20)
(0.33238 0.268066 -2.33376e-20)
(0.411753 0.239846 -1.41301e-20)
(0.482112 0.212471 3.41818e-20)
(0.544757 0.188306 -8.27383e-21)
(0.600762 0.167119 7.67735e-21)
(0.650881 0.148365 -9.31918e-21)
(0.694661 0.131833 1.84611e-20)
(0.0385108 0.115589 9.70554e-21)
(0.120058 0.214717 3.47316e-20)
(0.222804 0.234387 -4.82131e-20)
(0.314948 0.220147 2.28168e-20)
(0.396385 0.196932 -1.03946e-20)
(0.468721 0.174469 -2.92562e-20)
(0.533095 0.154669 2.3862e-20)
(0.59056 0.137332 5.02429e-21)
(0.641875 0.122007 -7.73549e-22)
(0.686982 0.108469 -2.14648e-20)
(0.030557 0.0897836 3.16891e-21)
(0.10585 0.166737 1.11603e-20)
(0.207666 0.181972 4.35825e-20)
(0.300953 0.170907 -8.34756e-21)
(0.384069 0.152902 -6.57812e-21)
(0.458004 0.135515 2.44338e-21)
(0.523775 0.120215 1.0444e-21)
(0.582416 0.10684 8.90171e-21)
(0.634696 0.095036 -1.16854e-20)
(0.68088 0.0845936 -7.43687e-21)
(0.0245627 0.0631143 -7.93185e-21)
(0.0951775 0.11745 -1.35847e-20)
(0.196332 0.12833 -3.38275e-20)
(0.290502 0.120626 1.7018e-20)
(0.374893 0.107997 1.38878e-20)
(0.450037 0.0958131 5.88564e-22)
(0.516861 0.0851206 -2.32086e-20)
(0.576387 0.0757971 -1.02879e-20)
(0.629392 0.0675868 8.17861e-21)
(0.67639 0.0603222 8.73834e-21)
(0.0206062 0.0358146 1.37472e-21)
(0.0881515 0.067214 -2.83437e-21)
(0.188899 0.0737985 6.42797e-21)
(0.283673 0.0695932 -4.35538e-21)
(0.368922 0.0624595 -3.82296e-21)
(0.444875 0.0555738 -2.59458e-21)
(0.512402 0.0495669 4.76641e-21)
(0.572514 0.0443598 1.81512e-20)
(0.626003 0.0397966 2.63546e-21)
(0.673536 0.0357702 -4.67009e-21)
(0.0187414 0.00812405 1.7009e-21)
(0.0848463 0.0163917 -4.67809e-21)
(0.185434 0.0187223 -5.30044e-21)
(0.280524 0.0181037 -3.67733e-21)
(0.366203 0.0165404 3.50061e-21)
(0.442559 0.0150115 1.57919e-21)
(0.51043 0.0137387 -1.57392e-21)
(0.570829 0.0126885 -7.16145e-21)
(0.624554 0.0118057 2.35682e-21)
(0.672337 0.0110542 -2.20431e-21)
(0.0189971 -0.0197141 -1.69172e-21)
(0.0853024 -0.0346484 4.65326e-21)
(0.185974 -0.0365503 5.27499e-21)
(0.281083 -0.0335451 -5.04808e-21)
(0.366761 -0.0295078 4.4417e-21)
(0.443109 -0.025657 2.22302e-21)
(0.510964 -0.0221767 -3.54803e-21)
(0.571346 -0.0190542 -4.11845e-21)
(0.625058 -0.0162426 6.06107e-22)
(0.672801 -0.0137043 -1.71269e-21)
(0.0213771 -0.0474552 1.85548e-21)
(0.0895249 -0.0855361 -5.54357e-21)
(0.190522 -0.0916694 1.23776e-20)
(0.285353 -0.0850544 -1.08648e-20)
(0.370598 -0.0754313 -5.19551e-22)
(0.446526 -0.0662137 -7.23053e-21)
(0.514006 -0.0579916 1.17387e-20)
(0.574068 -0.0507052 1.59493e-20)
(0.627518 -0.0442056 2.84178e-21)
(0.674931 -0.0383877 -6.11981e-21)
(0.02586 -0.0748552 -1.57808e-21)
(0.0974845 -0.135902 -1.16585e-20)
(0.199054 -0.146286 -2.71412e-20)
(0.293314 -0.136126 2.34826e-20)
(0.377696 -0.120977 4.82343e-21)
(0.452795 -0.106441 4.27869e-21)
(0.519542 -0.0935183 -2.10494e-20)
(0.57898 -0.082102 -1.24288e-20)
(0.631919 -0.0719421 -2.77605e-21)
(0.678718 -0.0628807 1.88897e-20)
(0.0323994 -0.101673 -5.55659e-21)
(0.109117 -0.185382 7.02808e-21)
(0.21151 -0.200054 4.90358e-20)
(0.304916 -0.186464 -4.42074e-21)
(0.388015 -0.165893 -1.25993e-20)
(0.461883 -0.146124 9.01339e-21)
(0.527541 -0.128571 6.68512e-22)
(0.586056 -0.113083 3.16572e-21)
(0.638239 -0.0993097 -6.95417e-21)
(0.684146 -0.0870624 -1.83482e-20)
(0.0409245 -0.127675 -3.73639e-21)
(0.124323 -0.233617 2.03484e-20)
(0.227802 -0.252635 -4.92292e-20)
(0.320087 -0.235778 2.12725e-20)
(0.401493 -0.209935 2.10628e-22)
(0.473735 -0.18505 -2.69688e-20)
(0.537959 -0.162967 1.1938e-20)
(0.595255 -0.14349 -1.12711e-21)
(0.646441 -0.126169 4.52394e-21)
(0.691192 -0.110815 -1.30778e-21)
(0.0513403 -0.152631 -4.26964e-20)
(0.142971 -0.280257 -5.10993e-20)
(0.247811 -0.303694 1.34459e-20)
(0.338729 -0.283783 -2.43737e-20)
(0.418049 -0.252859 -6.83764e-21)
(0.488284 -0.223013 1.02898e-20)
(0.550736 -0.196528 3.80124e-21)
(0.606524 -0.173169 1.40378e-20)
(0.656476 -0.152386 -3.01921e-21)
(0.699821 -0.134021 1.63348e-20)
(0.0635287 -0.176327 4.0812e-20)
(0.164895 -0.324966 2.62474e-20)
(0.271389 -0.352912 -1.97527e-20)
(0.360718 -0.330206 3.32396e-20)
(0.437581 -0.294434 -2.76588e-21)
(0.50544 -0.259812 -3.59115e-20)
(0.565795 -0.229081 6.28518e-21)
(0.619797 -0.20197 -3.81515e-20)
(0.668287 -0.177827 1.52695e-21)
(0.709995 -0.156566 1.37846e-20)
(0.0773493 -0.198555 -3.00023e-20)
(0.189899 -0.367421 5.37984e-20)
(0.298357 -0.399978 2.11035e-20)
(0.385909 -0.37478 -2.629e-20)
(0.459967 -0.334434 3.28796e-22)
(0.525103 -0.295256 6.60352e-20)
(0.583049 -0.260461 2.92641e-21)
(0.634994 -0.22975 2.91861e-20)
(0.681803 -0.202368 3.5498e-20)
(0.721665 -0.178338 -1.98713e-20)
(0.092641 -0.219126 1.68058e-20)
(0.217753 -0.407317 -8.07397e-21)
(0.32851 -0.444599 -1.90735e-20)
(0.414132 -0.417253 1.4131e-20)
(0.485068 -0.372648 5.50041e-20)
(0.547151 -0.329162 -1.94513e-20)