/*--------------------------------*- C++ -*----------------------------------*\
  =========                 |
  \\      /  F ield         | OpenFOAM: The Open Source CFD Toolbox
   \\    /   O peration     | Website:  https://openfoam.org
    \\  /    A nd           | Version:  7
     \\/     M anipulation  |
\*---------------------------------------------------------------------------*/
FoamFile
{
    version     2.0;
    format      ascii;
    class       volScalarField;
    location    "330";
    object      p;
}
// * * * * * * * * * * * * * * * * * * * * * * * * * * * * * * * * * * * * * //

dimensions      [0 2 -2 0 0 0 0];

internalField   nonuniform List<scalar> 
8500
(
-0.408996
-0.410798
-0.411413
-0.412265
-0.413897
-0.4166
-0.420565
-0.426059
-0.433265
-0.442617
-0.405516
-0.408039
-0.408913
-0.409892
-0.411483
-0.413901
-0.417253
-0.421691
-0.427198
-0.4341
-0.40225
-0.405448
-0.406563
-0.407654
-0.409184
-0.411285
-0.413972
-0.417269
-0.420928
-0.425122
-0.39935
-0.40316
-0.404498
-0.405691
-0.40715
-0.408921
-0.410917
-0.413025
-0.414741
-0.416047
-0.396964
-0.401304
-0.402847
-0.404136
-0.405523
-0.406967
-0.408269
-0.409173
-0.408905
-0.407204
-0.395223
-0.399997
-0.401723
-0.403104
-0.404429
-0.405562
-0.406187
-0.405899
-0.403658
-0.398866
-0.394234
-0.399335
-0.40122
-0.402691
-0.403967
-0.404818
-0.404799
-0.403356
-0.399197
-0.391228
-0.394079
-0.399386
-0.401405
-0.402964
-0.404209
-0.404816
-0.404202
-0.401657
-0.395682
-0.384406
-0.394801
-0.400188
-0.402311
-0.403955
-0.405191
-0.405601
-0.404452
-0.400871
-0.393233
-0.378446
-0.396407
-0.401742
-0.403935
-0.405661
-0.406909
-0.407175
-0.405563
-0.401015
-0.391929
-0.373338
-0.398863
-0.404015
-0.406238
-0.408035
-0.409315
-0.409488
-0.407492
-0.402038
-0.391782
-0.368995
-0.402109
-0.406939
-0.409147
-0.410995
-0.412313
-0.412438
-0.410137
-0.40382
-0.392725
-0.365127
-0.406026
-0.410421
-0.412556
-0.41442
-0.415765
-0.415864
-0.413328
-0.406185
-0.394731
-0.361353
-0.410497
-0.414344
-0.416343
-0.418166
-0.419498
-0.419558
-0.416826
-0.408909
-0.397532
-0.358641
-0.415387
-0.418589
-0.420372
-0.422077
-0.423323
-0.42328
-0.420352
-0.411836
-0.399616
-0.357494
-0.420557
-0.423038
-0.424516
-0.426001
-0.427057
-0.426799
-0.423588
-0.414839
-0.401096
-0.357174
-0.425887
-0.427589
-0.428668
-0.429812
-0.430546
-0.429956
-0.42627
-0.417217
-0.401852
-0.357224
-0.43128
-0.432168
-0.432749
-0.433425
-0.4337
-0.432608
-0.428279
-0.418797
-0.401373
-0.35703
-0.436675
-0.436734
-0.436724
-0.436798
-0.436467
-0.434727
-0.42959
-0.419567
-0.39944
-0.356647
-0.442071
-0.441264
-0.440589
-0.439949
-0.438878
-0.436352
-0.430273
-0.419507
-0.396553
-0.359323
-0.447471
-0.445801
-0.444387
-0.442935
-0.441013
-0.437576
-0.430447
-0.418595
-0.393871
-0.368685
-0.452934
-0.450397
-0.44819
-0.445852
-0.442988
-0.438522
-0.43024
-0.417035
-0.392007
-0.368102
-0.458547
-0.455132
-0.452094
-0.448816
-0.444933
-0.43932
-0.429754
-0.41505
-0.389768
-0.364879
-0.464415
-0.460097
-0.456203
-0.45195
-0.446977
-0.440089
-0.429084
-0.412761
-0.386975
-0.3608
-0.470645
-0.465387
-0.460625
-0.455368
-0.449228
-0.440921
-0.428302
-0.41022
-0.383707
-0.356117
-0.477338
-0.471092
-0.465454
-0.459165
-0.451759
-0.441872
-0.427445
-0.407463
-0.379994
-0.35122
-0.484579
-0.477286
-0.470766
-0.463403
-0.454609
-0.442957
-0.426508
-0.404495
-0.375923
-0.346143
-0.492426
-0.484024
-0.47661
-0.46811
-0.457778
-0.444148
-0.425453
-0.401305
-0.371547
-0.340932
-0.500906
-0.491334
-0.483006
-0.473277
-0.461229
-0.445374
-0.424218
-0.397873
-0.366904
-0.335562
-0.510013
-0.499217
-0.489942
-0.478861
-0.464881
-0.446527
-0.422724
-0.394166
-0.362001
-0.330004
-0.519703
-0.507644
-0.49737
-0.484782
-0.468614
-0.447476
-0.420891
-0.390143
-0.356822
-0.324212
-0.529897
-0.516552
-0.505205
-0.490925
-0.472266
-0.448076
-0.418629
-0.385752
-0.351333
-0.318132
-0.540479
-0.525841
-0.513328
-0.49713
-0.475646
-0.448179
-0.41585
-0.380935
-0.345482
-0.311708
-0.551292
-0.535374
-0.521579
-0.503195
-0.478544
-0.447636
-0.412461
-0.375622
-0.339211
-0.304879
-0.562144
-0.544971
-0.529756
-0.508879
-0.480743
-0.446302
-0.408368
-0.369739
-0.332449
-0.297582
-0.572801
-0.554416
-0.537619
-0.513915
-0.482027
-0.444038
-0.403475
-0.363208
-0.325125
-0.289758
-0.582997
-0.563454
-0.544889
-0.518017
-0.482187
-0.44071
-0.397688
-0.355946
-0.317166
-0.281347
-0.592433
-0.571795
-0.551255
-0.520897
-0.481023
-0.436189
-0.390912
-0.347873
-0.308498
-0.272294
-0.600785
-0.579124
-0.556385
-0.522274
-0.47835
-0.430354
-0.383053
-0.338906
-0.299051
-0.262551
-0.60771
-0.585106
-0.559939
-0.521883
-0.473999
-0.423094
-0.374025
-0.32897
-0.288761
-0.252076
-0.612857
-0.589393
-0.561581
-0.519481
-0.46782
-0.414307
-0.363745
-0.317993
-0.277574
-0.24084
-0.615878
-0.591637
-0.560997
-0.514851
-0.45968
-0.403899
-0.352135
-0.305909
-0.265444
-0.228823
-0.616434
-0.591498
-0.557897
-0.507809
-0.449468
-0.391792
-0.33913
-0.292658
-0.252327
-0.216003
-0.614206
-0.588659
-0.552032
-0.498203
-0.437097
-0.377923
-0.324675
-0.278189
-0.238167
-0.202296
-0.608906
-0.582831
-0.543195
-0.485919
-0.422502
-0.362249
-0.308737
-0.262471
-0.22291
-0.187517
-0.600286
-0.573768
-0.531226
-0.470879
-0.405644
-0.344744
-0.291292
-0.24549
-0.206555
-0.171502
-0.58814
-0.561278
-0.516007
-0.45304
-0.386508
-0.325388
-0.27231
-0.227235
-0.189177
-0.154448
-0.572314
-0.545219
-0.497471
-0.432392
-0.365097
-0.30417
-0.251778
-0.207725
-0.170738
-0.136882
-0.552707
-0.525506
-0.475596
-0.408963
-0.341435
-0.281103
-0.229761
-0.18715
-0.151131
-0.118684
-0.529274
-0.502109
-0.450409
-0.382818
-0.315582
-0.256261
-0.20646
-0.165313
-0.130538
-0.0997463
-0.502025
-0.475055
-0.421988
-0.354059
-0.287631
-0.229818
-0.181745
-0.142325
-0.109041
-0.0800694
-0.471025
-0.444437
-0.390496
-0.322777
-0.257677
-0.201773
-0.155726
-0.118271
-0.0867057
-0.0597172
-0.436391
-0.410424
-0.356188
-0.288966
-0.225829
-0.172224
-0.128506
-0.0932447
-0.0636061
-0.0387888
-0.398302
-0.373248
-0.319162
-0.252792
-0.192215
-0.141302
-0.100198
-0.0673426
-0.0398291
-0.0173966
-0.356992
-0.333175
-0.27884
-0.214997
-0.15708
-0.109156
-0.0709284
-0.0406691
-0.0154614
0.00437218
-0.312679
-0.290376
-0.236093
-0.175392
-0.120618
-0.0759556
-0.0408349
-0.0133321
0.00940928
0.0264274
-0.265586
-0.244577
-0.191953
-0.134246
-0.0830063
-0.041874
-0.0100549
0.0145672
0.0346389
0.048425
-0.216116
-0.196635
-0.146299
-0.0918527
-0.04445
-0.00708225
0.0212947
0.0429454
0.059941
0.0695151
-0.16474
-0.146847
-0.0992915
-0.048487
-0.00517771
0.028245
0.0531066
0.0716999
0.0849701
0.0890902
-0.111741
-0.0956713
-0.0512302
-0.00442541
0.0345708
0.0639192
0.0852196
0.10059
0.109625
0.108963
-0.0575375
-0.0435188
-0.00246637
0.040043
0.0745493
0.0997292
0.117377
0.129204
0.133897
0.134225
-0.00256997
0.00920981
0.046634
0.0846198
0.114507
0.135447
0.149307
0.157409
0.158704
0.159509
0.0527173
0.062107
0.0957022
0.129
0.154188
0.170842
0.180838
0.185283
0.183698
0.183407
0.107877
0.11476
0.144371
0.172878
0.193331
0.205684
0.211797
0.212702
0.20843
0.206267
0.162461
0.166757
0.192279
0.215949
0.231676
0.239752
0.242017
0.239489
0.23255
0.228093
0.216026
0.217687
0.239067
0.25791
0.268969
0.272831
0.27132
0.265462
0.255868
0.248925
0.268136
0.267149
0.28439
0.29847
0.30496
0.304711
0.299526
0.290447
0.278233
0.268728
0.318368
0.314754
0.327909
0.337344
0.339408
0.335186
0.32646
0.314285
0.299518
0.287448
0.366312
0.360127
0.369304
0.374259
0.372081
0.36406
0.351953
0.336828
0.319607
0.305014
0.411579
0.402911
0.408266
0.408955
0.40276
0.391145
0.375845
0.357937
0.338387
0.321353
0.453801
0.442771
0.444509
0.441189
0.431236
0.416264
0.397984
0.377485
0.355754
0.336391
0.492635
0.479394
0.477763
0.470735
0.457317
0.439254
0.41823
0.395352
0.371606
0.35006
0.527764
0.512493
0.507782
0.497382
0.480824
0.459961
0.436455
0.411426
0.385854
0.362294
0.558903
0.541808
0.534344
0.520944
0.501598
0.478251
0.452542
0.425609
0.398412
0.373038
0.585797
0.56711
0.557252
0.541251
0.519495
0.494
0.466388
0.437811
0.409206
0.38224
0.608227
0.588197
0.576333
0.55816
0.534392
0.507104
0.477903
0.447955
0.418171
0.389856
0.626006
0.604903
0.591445
0.571548
0.546185
0.517475
0.487012
0.455975
0.425251
0.39585
0.638985
0.617092
0.602472
0.581318
0.554791
0.52504
0.493654
0.46182
0.430406
0.400203
0.647053
0.624664
0.609327
0.587396
0.560147
0.529748
0.497785
0.465452
0.43361
0.402914
0.650137
0.627553
0.611954
0.589735
0.562212
0.531563
0.499374
0.466844
0.434838
0.403931
0.648202
0.625728
0.610326
0.588311
0.560968
0.53047
0.498408
0.465984
0.434065
0.403257
0.641253
0.619192
0.604447
0.583129
0.556417
0.526471
0.49489
0.462873
0.431297
0.400873
0.629333
0.607985
0.59435
0.574217
0.548583
0.519587
0.488837
0.45753
0.426557
0.396818
0.612525
0.592181
0.5801
0.561629
0.537515
0.509858
0.480285
0.449983
0.419871
0.39111
0.59095
0.571889
0.561789
0.545444
0.523278
0.497343
0.469282
0.440277
0.411272
0.383768
0.564765
0.547251
0.53954
0.525767
0.505963
0.482116
0.455894
0.428467
0.400808
0.374819
0.534164
0.518444
0.513504
0.502725
0.485679
0.464273
0.440201
0.414623
0.388536
0.364301
0.499379
0.485674
0.483858
0.47647
0.462554
0.443923
0.422297
0.398826
0.374526
0.352261
0.460671
0.449181
0.450808
0.447175
0.436738
0.421192
0.40229
0.381169
0.358855
0.33875
0.418335
0.409231
0.414583
0.415034
0.408395
0.396222
0.3803
0.361755
0.34161
0.323831
0.372698
0.366121
0.375435
0.380262
0.37771
0.369169
0.35646
0.340699
0.322886
0.307569
0.32411
0.32017
0.33364
0.343093
0.344879
0.340203
0.330914
0.318124
0.302786
0.290036
0.272948
0.271723
0.289493
0.303775
0.310116
0.309504
0.303818
0.294161
0.281417
0.271307
0.219613
0.221143
0.243308
0.262574
0.273646
0.277264
0.275334
0.268951
0.258893
0.251454
0.164521
0.168815
0.195414
0.219768
0.235706
0.243685
0.245638
0.242648
0.235332
0.230545
0.108107
0.115136
0.146155
0.175649
0.196541
0.208975
0.214908
0.215413
0.210861
0.208631
0.0508164
0.0605154
0.0958869
0.130515
0.156406
0.173349
0.183326
0.187427
0.185639
0.185737
-0.00689733
0.00537193
0.0449736
0.0846741
0.115562
0.137026
0.151074
0.158879
0.159868
0.16181
-0.0645752
-0.0498732
-0.00621303
0.0384375
0.0742738
0.100232
0.118318
0.129948
0.133925
0.136877
-0.121758
-0.1048
-0.0572963
-0.00788172
0.0328067
0.0632009
0.0852352
0.100759
0.1083
0.110633
-0.177987
-0.158993
-0.107896
-0.0539731
-0.00857755
0.0261705
0.051999
0.0712123
0.0833217
0.084606
-0.232805
-0.212044
-0.157635
-0.0995332
-0.0496244
-0.0106264
0.018889
0.0414255
0.0579602
0.0643064
-0.285776
-0.263516
-0.206151
-0.14427
-0.0900834
-0.0469753
-0.0138258
0.011844
0.0322405
0.0443878
-0.336695
-0.31288
-0.25315
-0.187906
-0.129709
-0.0826841
-0.0459774
-0.0172637
0.0063031
0.0228862
-0.38496
-0.359906
-0.298518
-0.230162
-0.168265
-0.117576
-0.0774609
-0.045797
-0.0194952
0.000446129
-0.430176
-0.40355
-0.342452
-0.270732
-0.205544
-0.151478
-0.108163
-0.0736829
-0.04487
-0.0220266
-0.472144
-0.44431
-0.383605
-0.309336
-0.241359
-0.184213
-0.137948
-0.100826
-0.0696788
-0.0441741
-0.510629
-0.481963
-0.421248
-0.34608
-0.275504
-0.215606
-0.166674
-0.127117
-0.093835
-0.0659094
-0.545379
-0.516187
-0.455919
-0.380294
-0.307739
-0.245504
-0.194213
-0.152452
-0.117254
-0.0871455
-0.576201
-0.546734
-0.487539
-0.411795
-0.337925
-0.273771
-0.220449
-0.176731
-0.139851
-0.107766
-0.602967
-0.573422
-0.515846
-0.440572
-0.365948
-0.300301
-0.245282
-0.199855
-0.161558
-0.127666
-0.625605
-0.596145
-0.540658
-0.466529
-0.391704
-0.325101
-0.268596
-0.221737
-0.182312
-0.146778
-0.644097
-0.614865
-0.561881
-0.489554
-0.415097
-0.347991
-0.290518
-0.2423
-0.202005
-0.165096
-0.658484
-0.629602
-0.579479
-0.509573
-0.436065
-0.368895
-0.31086
-0.261759
-0.220423
-0.182752
-0.668867
-0.640438
-0.593462
-0.52655
-0.454576
-0.387795
-0.329529
-0.279838
-0.237698
-0.199906
-0.675403
-0.647511
-0.603893
-0.540486
-0.470618
-0.404693
-0.346533
-0.296525
-0.253939
-0.216062
-0.678304
-0.651021
-0.610883
-0.551415
-0.484201
-0.419604
-0.361912
-0.311873
-0.269047
-0.230919
-0.677834
-0.651223
-0.614594
-0.55941
-0.495361
-0.432554
-0.375696
-0.325903
-0.282997
-0.24462
-0.674299
-0.648423
-0.615232
-0.564579
-0.504156
-0.443585
-0.387913
-0.338633
-0.295842
-0.257387
-0.668043
-0.642968
-0.613057
-0.567071
-0.510671
-0.452756
-0.398611
-0.350107
-0.307649
-0.269341
-0.659432
-0.635229
-0.608371
-0.567072
-0.515013
-0.460142
-0.407855
-0.360387
-0.318468
-0.280521
-0.648852
-0.625593
-0.601513
-0.5648
-0.517308
-0.465828
-0.415717
-0.369538
-0.328346
-0.290948
-0.636691
-0.614451
-0.592853
-0.560509
-0.517706
-0.469912
-0.422275
-0.377628
-0.337336
-0.300651
-0.623334
-0.602183
-0.582772
-0.554479
-0.516372
-0.472499
-0.427609
-0.384728
-0.345499
-0.309672
-0.609147
-0.589153
-0.571652
-0.547012
-0.513493
-0.473699
-0.4318
-0.390912
-0.352904
-0.318065
-0.594472
-0.575697
-0.559857
-0.538427
-0.509268
-0.47363
-0.434929
-0.396251
-0.359621
-0.32589
-0.579618
-0.562116
-0.547724
-0.529047
-0.503913
-0.472412
-0.437073
-0.400812
-0.365717
-0.333209
-0.564853
-0.54867
-0.535547
-0.519188
-0.497655
-0.470171
-0.438306
-0.404657
-0.371258
-0.340089
-0.550403
-0.535575
-0.523571
-0.509146
-0.490728
-0.467037
-0.438693
-0.407835
-0.376302
-0.346594
-0.53645
-0.523003
-0.511994
-0.499172
-0.483366
-0.463148
-0.438298
-0.410386
-0.380897
-0.35279
-0.523132
-0.511077
-0.500966
-0.489472
-0.475797
-0.458644
-0.437178
-0.412337
-0.38508
-0.358739
-0.51055
-0.499881
-0.490592
-0.480192
-0.468222
-0.453677
-0.435393
-0.413704
-0.388873
-0.364501
-0.498771
-0.48946
-0.480935
-0.471431
-0.460805
-0.448397
-0.433009
-0.414496
-0.392279
-0.370133
-0.487839
-0.479838
-0.472022
-0.463247
-0.453665
-0.442954
-0.430104
-0.41472
-0.39529
-0.375689
-0.477785
-0.471019
-0.463859
-0.455668
-0.446878
-0.437485
-0.426776
-0.414389
-0.397877
-0.381242
-0.468637
-0.463005
-0.456437
-0.448711
-0.440496
-0.432105
-0.423145
-0.413538
-0.400021
-0.386825
-0.460424
-0.455797
-0.449749
-0.442388
-0.434567
-0.426918
-0.419348
-0.412234
-0.401673
-0.392609
-0.453179
-0.449409
-0.4438
-0.436719
-0.429154
-0.422026
-0.415534
-0.410573
-0.402883
-0.398439
-0.446925
-0.44386
-0.438606
-0.43174
-0.424336
-0.417554
-0.411864
-0.408708
-0.40362
-0.404604
-0.441688
-0.439162
-0.434189
-0.427498
-0.420205
-0.413644
-0.408535
-0.406805
-0.403905
-0.409884
-0.43749
-0.4353
-0.430564
-0.424037
-0.416853
-0.41045
-0.405809
-0.40491
-0.405
-0.405738
-0.434287
-0.432257
-0.427726
-0.42138
-0.414347
-0.408112
-0.403923
-0.40324
-0.40687
-0.404823
-0.432007
-0.429981
-0.42564
-0.419514
-0.412714
-0.406726
-0.403037
-0.40231
-0.40923
-0.406403
-0.430546
-0.428392
-0.424233
-0.418386
-0.411926
-0.406317
-0.4032
-0.402535
-0.41182
-0.408731
-0.429763
-0.427387
-0.42341
-0.417906
-0.411905
-0.406828
-0.404363
-0.40407
-0.414601
-0.411989
-0.429499
-0.426851
-0.42306
-0.417958
-0.412528
-0.408133
-0.406406
-0.406834
-0.417733
-0.416723
-0.429589
-0.426658
-0.423063
-0.418417
-0.413652
-0.410065
-0.409161
-0.410569
-0.421415
-0.422899
-0.429875
-0.426683
-0.423304
-0.419155
-0.415124
-0.412432
-0.412425
-0.414956
-0.425709
-0.430023
-0.430202
-0.42681
-0.423671
-0.420047
-0.416789
-0.415038
-0.41597
-0.419663
-0.430475
-0.437516
-0.430437
-0.426932
-0.424057
-0.420974
-0.418498
-0.417687
-0.419558
-0.424375
-0.435415
-0.444832
-0.43046
-0.426949
-0.424364
-0.421823
-0.420108
-0.420195
-0.42296
-0.428802
-0.440179
-0.451587
-0.430173
-0.426775
-0.424503
-0.42249
-0.421489
-0.422394
-0.425964
-0.432692
-0.444433
-0.457458
-0.429496
-0.426334
-0.424393
-0.42288
-0.422524
-0.42414
-0.428394
-0.435833
-0.44789
-0.462172
-0.428375
-0.425567
-0.423968
-0.422919
-0.423122
-0.425322
-0.43011
-0.438062
-0.450322
-0.465498
-0.426778
-0.424436
-0.423183
-0.422549
-0.423218
-0.425864
-0.43102
-0.439269
-0.451568
-0.467248
-0.424702
-0.422921
-0.422011
-0.421744
-0.422779
-0.425731
-0.431081
-0.439402
-0.45153
-0.467278
-0.422173
-0.421031
-0.420458
-0.420501
-0.421809
-0.42493
-0.430299
-0.438466
-0.450179
-0.465476
-0.419243
-0.418802
-0.418554
-0.418852
-0.420346
-0.42351
-0.428734
-0.436526
-0.447538
-0.461857
-0.415994
-0.416295
-0.416346
-0.416868
-0.418466
-0.421562
-0.426489
-0.433693
-0.443681
-0.456813
-0.412536
-0.413591
-0.413931
-0.414634
-0.416273
-0.419209
-0.423708
-0.430136
-0.438847
-0.450305
-0.464006
-0.49714
-0.534809
-0.547917
-0.511882
-0.425108
-0.33136
-0.263147
-0.235791
-0.2487
-0.262316
-0.238947
-0.186592
-0.135333
-0.10648
-0.0945661
-0.0962951
-0.114634
-0.111209
-0.093867
-0.0861681
-0.0753359
-0.050405
-0.0539644
-0.0608667
-0.0679292
-0.0545005
-0.0460788
-0.0112485
-0.0152343
-0.451059
-0.477689
-0.509168
-0.518625
-0.48436
-0.405101
-0.320734
-0.261277
-0.24321
-0.263053
-0.2799
-0.251652
-0.194676
-0.138595
-0.106077
-0.091763
-0.0909921
-0.107489
-0.103657
-0.0903499
-0.0848597
-0.0748472
-0.0506759
-0.0547741
-0.0618995
-0.0686907
-0.0543958
-0.0458276
-0.0118101
-0.0153099
-0.437603
-0.456981
-0.481523
-0.486869
-0.454253
-0.382788
-0.307977
-0.257673
-0.249424
-0.276743
-0.296238
-0.263282
-0.201915
-0.141495
-0.105547
-0.0890108
-0.0858821
-0.100541
-0.0962741
-0.0867561
-0.0834565
-0.0743307
-0.0509801
-0.0555975
-0.0629552
-0.069417
-0.0542564
-0.045586
-0.0124248
-0.0154113
-0.42419
-0.435692
-0.452547
-0.453275
-0.421788
-0.358218
-0.292968
-0.252147
-0.254174
-0.289489
-0.311049
-0.273775
-0.208308
-0.14405
-0.104925
-0.0863473
-0.081026
-0.0938582
-0.0889556
-0.0830989
-0.0819635
-0.0737933
-0.0513193
-0.0564296
-0.0640266
-0.0701032
-0.0540817
-0.0453535
-0.0130894
-0.0155377
-0.411328
-0.414488
-0.422936
-0.418382
-0.387587
-0.331287
-0.275634
-0.24456
-0.257244
-0.300963
-0.324093
-0.283085
-0.213865
-0.14628
-0.104246
-0.0838036
-0.0764731
-0.087502
-0.0818673
-0.0793964
-0.080387
-0.0732412
-0.0516944
-0.0572658
-0.0651059
-0.0707453
-0.053871
-0.0451291
-0.0138003
-0.0156879
-0.399413
-0.393946
-0.393463
-0.382664
-0.352101
-0.302395
-0.255976
-0.234834
-0.258461
-0.310824
-0.335231
-0.291183
-0.218603
-0.148204
-0.103538
-0.0814043
-0.0722591
-0.0815245
-0.0750863
-0.0756698
-0.0787348
-0.0726797
-0.0521059
-0.0581012
-0.0661852
-0.0713391
-0.0536235
-0.044911
-0.0145534
-0.0158607
-0.388769
-0.374615
-0.364931
-0.347258
-0.316009
-0.271972
-0.234128
-0.222979
-0.257712
-0.318764
-0.347403
-0.298049
-0.222546
-0.149841
-0.102826
-0.0791675
-0.068406
-0.0759679
-0.0686833
-0.0719455
-0.0770158
-0.0721132
-0.0525532
-0.0589311
-0.0672566
-0.0718808
-0.0533387
-0.0446971
-0.0153439
-0.0160539
-0.379641
-0.356971
-0.33807
-0.31306
-0.280111
-0.240558
-0.210402
-0.209116
-0.254945
-0.324448
-0.354734
-0.3036
-0.225722
-0.15121
-0.102134
-0.0771051
-0.064922
-0.0708637
-0.0627217
-0.0682542
-0.0752407
-0.0715448
-0.0530355
-0.059751
-0.0683118
-0.0723666
-0.053016
-0.0444848
-0.0161667
-0.0162653
-0.372176
-0.341378
-0.313495
-0.280809
-0.245271
-0.208862
-0.185298
-0.193491
-0.25018
-0.327723
-0.359926
-0.307828
-0.228163
-0.152329
-0.10148
-0.0752235
-0.0618025
-0.0662314
-0.0572539
-0.0646314
-0.0734214
-0.0709765
-0.0535509
-0.060556
-0.0693429
-0.072793
-0.052655
-0.0442713
-0.0170158
-0.0164919
-0.366424
-0.328077
-0.291681
-0.251146
-0.212373
-0.17774
-0.159488
-0.176467
-0.243503
-0.328529
-0.362982
-0.310731
-0.229905
-0.153213
-0.100877
-0.0735242
-0.0590319
-0.062078
-0.0523186
-0.0611156
-0.0715713
-0.0704095
-0.0540968
-0.0613416
-0.0703421
-0.0731566
-0.0522555
-0.0440535
-0.0178848
-0.0167303
-0.362346
-0.317192
-0.272953
-0.224602
-0.182274
-0.148115
-0.133773
-0.1585
-0.235063
-0.326883
-0.363906
-0.312327
-0.230986
-0.153877
-0.100337
-0.0720053
-0.0565866
-0.0583973
-0.0479398
-0.0577468
-0.0697046
-0.0698434
-0.0546701
-0.0621031
-0.0713014
-0.0734541
-0.0518174
-0.0438282
-0.0187668
-0.0169767
-0.359881
-0.308756
-0.257496
-0.201579
-0.155601
-0.120894
-0.109015
-0.140108
-0.225063
-0.322882
-0.362767
-0.312648
-0.231445
-0.154339
-0.0998699
-0.0706644
-0.0544387
-0.0551704
-0.0441261
-0.0545634
-0.0678368
-0.069277
-0.055267
-0.062836
-0.0722123
-0.0736819
-0.0513405
-0.043592
-0.0196547
-0.0172267
-0.358888
-0.302651
-0.245383
-0.182241
-0.132055
-0.0968992
-0.0860422
-0.121824
-0.213747
-0.316697
-0.359671
-0.311734
-0.231327
-0.15462
-0.0994874
-0.0694983
-0.0525578
-0.0523655
-0.0408723
-0.0516
-0.0659834
-0.0687081
-0.0558831
-0.063536
-0.0730663
-0.0738364
-0.0508249
-0.0433414
-0.0205407
-0.0174757
-0.358383
-0.298492
-0.236482
-0.16652
-0.122461
-0.0768365
-0.0655498
-0.104156
-0.201391
-0.308559
-0.354752
-0.309633
-0.230673
-0.15473
-0.0991854
-0.0684945
-0.05091
-0.0499361
-0.0381587
-0.0488846
-0.0641604
-0.068133
-0.0565137
-0.0641988
-0.0738556
-0.0739147
-0.0502711
-0.0430718
-0.0214168
-0.0177185
-0.358035
-0.296411
-0.230244
-0.153901
-0.104774
-0.0602319
-0.0479848
-0.0875394
-0.188292
-0.298732
-0.348164
-0.306395
-0.229495
-0.154632
-0.0989239
-0.0676199
-0.0494563
-0.0478231
-0.0359458
-0.0464351
-0.0623827
-0.0675472
-0.0571538
-0.0648198
-0.0745746
-0.0739152
-0.0496796
-0.0427791
-0.0222736
-0.0179499
-0.357975
-0.296104
-0.22697
-0.147021
-0.0904598
-0.0475893
-0.0335818
-0.0723197
-0.174746
-0.287497
-0.340108
-0.302104
-0.227789
-0.154293
-0.0986706
-0.066854
-0.0481714
-0.045976
-0.0341832
-0.0442541
-0.0606631
-0.0669445
-0.0577982
-0.065395
-0.075221
-0.0738365
-0.0490505
-0.042463
-0.0231032
-0.0181645
-0.357876
-0.296667
-0.225924
-0.143675
-0.0822277
-0.0386818
-0.0224076
-0.0587453
-0.161051
-0.275163
-0.330819
-0.296912
-0.225716
-0.153918
-0.0985793
-0.066301
-0.0470886
-0.0443852
-0.0328664
-0.0423369
-0.0590095
-0.0663168
-0.0584415
-0.0659193
-0.0757899
-0.0736696
-0.0483825
-0.0421291
-0.023905
-0.0183577
-0.357427
-0.297778
-0.226764
-0.143409
-0.0779148
-0.0332348
-0.0144255
-0.0469316
-0.147462
-0.261999
-0.320186
-0.290923
-0.223694
-0.153998
-0.099007
-0.0661781
-0.0462752
-0.0430415
-0.0320638
-0.0407412
-0.0574464
-0.0656536
-0.0590768
-0.0663776
-0.0762426
-0.0733885
-0.0476764
-0.0417801
-0.0246827
-0.0185269
-0.357132
-0.299849
-0.229995
-0.14679
-0.0777091
-0.0314238
-0.00974166
-0.0369214
-0.133869
-0.247638
-0.307621
-0.283739
-0.221462
-0.154129
-0.0996006
-0.0662171
-0.0455664
-0.041733
-0.0316254
-0.0395803
-0.0560483
-0.0649442
-0.0596916
-0.0667456
-0.0765293
-0.0729956
-0.0469447
-0.0413902
-0.0254028
-0.018667
-0.355467
-0.300057
-0.232433
-0.151058
-0.0807806
-0.0337782
-0.00792347
-0.0301359
-0.121633
-0.233403
-0.295527
-0.274817
-0.216411
-0.151285
-0.098029
-0.0648969
-0.0443077
-0.039961
-0.0306367
-0.0382109
-0.0544839
-0.0641954
-0.0603382
-0.0671997
-0.0769967
-0.0726644
-0.0462052
-0.0408915
-0.0259419
-0.0187521
-0.339261
-0.291124
-0.224896
-0.145017
-0.0747723
-0.0292717
-0.00507965
-0.0248421
-0.115208
-0.227783
-0.288167
-0.265058
-0.207189
-0.144207
-0.0932108
-0.0613943
-0.0421362
-0.0374009
-0.0278272
-0.0332273
-0.0500869
-0.0625331
-0.0620022
-0.0687608
-0.0787997
-0.0726852
-0.0452826
-0.0401355
-0.0263477
-0.0187945
-0.31988
-0.275273
-0.212321
-0.13838
-0.0730715
-0.0316661
-0.00989294
-0.0280723
-0.111604
-0.215661
-0.269735
-0.24719
-0.193016
-0.134965
-0.0878945
-0.0580497
-0.0398372
-0.0347303
-0.0265266
-0.0339445
-0.0476014
-0.0621137
-0.063388
-0.0693923
-0.0789239
-0.0719046
-0.0435865
-0.0389809
-0.0271753
-0.0191635
-0.300862
-0.25924
-0.20052
-0.133688
-0.0742102
-0.0367496
-0.0181565
-0.0356076
-0.110399
-0.202392
-0.249298
-0.228208
-0.178813
-0.12591
-0.0825813
-0.0546459
-0.0374841
-0.0321179
-0.0254303
-0.0339429
-0.046095
-0.0623414
-0.0644085
-0.0695059
-0.078565
-0.0707631
-0.0416967
-0.0376654
-0.0280046
-0.0196032
-0.282255
-0.243867
-0.190041
-0.130716
-0.0778027
-0.0438108
-0.0279444
-0.0437735
-0.108702
-0.18796
-0.22762
-0.20851
-0.164373
-0.11665
-0.0771045
-0.0511736
-0.0350528
-0.0294842
-0.0244085
-0.03367
-0.0444763
-0.0624932
-0.065412
-0.0695733
-0.0779638
-0.069234
-0.0395983
-0.036134
-0.0287663
-0.0200242
-0.26339
-0.229026
-0.180493
-0.128531
-0.0820214
-0.0516714
-0.0380422
-0.0514419
-0.105778
-0.171635
-0.205122
-0.188584
-0.15003
-0.107413
-0.0715367
-0.0476273
-0.0325165
-0.026772
-0.023381
-0.0333306
-0.0426089
-0.0624405
-0.0665217
-0.0695691
-0.0768949
-0.0672534
-0.0372626
-0.034369
-0.0294244
-0.0204208
-0.244321
-0.214646
-0.171566
-0.126633
-0.0861852
-0.0592547
-0.0474083
-0.0579748
-0.101733
-0.155334
-0.182831
-0.169125
-0.136081
-0.0983154
-0.0659165
-0.0440025
-0.0298466
-0.0239349
-0.0222526
-0.0328817
-0.0405645
-0.0622141
-0.0676267
-0.0693263
-0.0752788
-0.0647653
-0.0346656
-0.0323418
-0.0299272
-0.0207807
-0.225563
-0.200683
-0.163013
-0.124365
-0.0896548
-0.0658689
-0.0553684
-0.0630154
-0.0969597
-0.139513
-0.161737
-0.150701
-0.122755
-0.0894693
-0.060294
-0.0402954
-0.0270141
-0.02092
-0.0209123
-0.0323437
-0.0383236
-0.0617012
-0.0685305
-0.0687307
-0.0730303
-0.061713
-0.0317829
-0.030022
-0.0302122
-0.021071
-0.207421
-0.187108
-0.154667
-0.121639
-0.0920573
-0.0711472
-0.0616357
-0.0665628
-0.0919356
-0.124892
-0.142507
-0.133681
-0.110203
-0.0809524
-0.0547117
-0.0364998
-0.0239895
-0.0176691
-0.0192165
-0.0315549
-0.0357419
-0.0606219
-0.069041
-0.0676892
-0.0700631
-0.0580415
-0.0285918
-0.0273748
-0.0302077
-0.0212461
-0.19006
-0.173918
-0.146407
-0.118337
-0.0932522
-0.0749735
-0.0662153
-0.0688054
-0.0870036
-0.111887
-0.12544
-0.118236
-0.0985101
-0.0728154
-0.0492077
-0.0326102
-0.0207448
-0.014123
-0.016978
-0.0299914
-0.0325691
-0.0586042
-0.0689533
-0.0660789
-0.0662966
-0.0537032
-0.0250733
-0.024361
-0.0298325
-0.0212514
-0.173603
-0.161125
-0.138151
-0.114447
-0.0932651
-0.0773768
-0.0692414
-0.0699521
-0.0827198
-0.100572
-0.11053
-0.10438
-0.0877038
-0.0650881
-0.0438153
-0.0286251
-0.0172573
-0.0102291
-0.013973
-0.0275947
-0.02847
-0.0552185
-0.0680203
-0.063749
-0.0616718
-0.0486655
-0.0212143
-0.0209387
-0.0289964
-0.0210234
-0.1581
-0.148749
-0.129866
-0.110006
-0.0921922
-0.0784567
-0.0708815
-0.0701179
-0.0783538
-0.0907679
-0.0975969
-0.0920357
-0.0777778
-0.0577871
-0.0385628
-0.0245512
-0.013516
-0.00594944
-0.00993858
-0.0240588
-0.0230177
-0.0499866
-0.0659569
-0.0605438
-0.0561653
-0.0429187
-0.017011
-0.0170644
-0.027602
-0.0204901
-0.143545
-0.136815
-0.121552
-0.105069
-0.0901591
-0.0783457
-0.0713074
-0.0694363
-0.0741914
-0.0822467
-0.086398
-0.0810791
-0.0687019
-0.0509212
-0.033475
-0.0204073
-0.00953241
-0.00127333
-0.00459619
-0.0177937
-0.0156984
-0.0424327
-0.0624677
-0.0563259
-0.0498023
-0.0364865
-0.0124731
-0.0126975
-0.0255487
-0.0195737
-0.129921
-0.125352
-0.113238
-0.0997097
-0.0873008
-0.0771912
-0.070685
-0.0680232
-0.0701507
-0.0747713
-0.0766803
-0.0713719
-0.0604321
-0.044495
-0.0285748
-0.0162284
-0.00534424
0.00376285
0.00221224
-0.00906687
-0.00602989
-0.0322124
-0.0572931
-0.0510012
-0.0426674
-0.0294357
-0.00762738
-0.00780761
-0.0227414
-0.0181951
-0.117205
-0.114388
-0.10497
-0.0940084
-0.0837534
-0.0751481
-0.0691735
-0.0659831
-0.0661671
-0.0681364
-0.0682107
-0.0627769
-0.0529174
-0.038511
-0.0238848
-0.0120691
-0.00101722
0.00906415
0.0104434
0.00253225
0.00630255
-0.0193018
-0.0502885
-0.0445443
-0.0349048
-0.0218846
-0.00252118
-0.00238311
-0.0191035
-0.0162824
-0.105368
-0.103948
-0.0968059
-0.088055
-0.0796513
-0.0723684
-0.0669262
-0.0634204
-0.0622035
-0.0621737
-0.0607853
-0.0551649
-0.0461046
-0.0329708
-0.0194263
-0.00800055
0.00334824
0.0144713
0.0196902
0.0167924
0.0211247
-0.00422432
-0.0415047
-0.0370125
-0.0266995
-0.014004
0.0027755
0.00355745
-0.0145924
-0.0137841
-0.0943838
-0.0940558
-0.0888068
-0.0819433
-0.0751261
-0.0690014
-0.0640813
-0.0604358
-0.0582459
-0.0567514
-0.0542308
-0.048418
-0.0399425
-0.0278737
-0.0152221
-0.00409487
0.00761178
0.0197502
0.0290979
0.0321696
0.0371851
0.0117414
-0.0311183
-0.0284252
-0.0182641
-0.0060114
0.00817001
0.00994846
-0.00922101
-0.0106858
-0.0842237
-0.0847296
-0.0810353
-0.0757668
-0.0703051
-0.0651959
-0.0607822
-0.0571243
-0.0542968
-0.0517693
-0.0484035
-0.0424304
-0.0343839
-0.0232139
-0.0112992
-0.000412344
0.011611
0.0246251
0.0375535
0.04591
0.0518864
0.0267316
-0.0193092
-0.0192066
-0.00985619
0.00184214
0.0135443
0.0166645
-0.00307814
-0.0070306
-0.0748605
-0.0759857
-0.0735502
-0.0696164
-0.0653069
-0.0610828
-0.0571571
-0.0535838
-0.050374
-0.0471541
-0.0431873
-0.0371086
-0.0293856
-0.018979
-0.00768853
0.00299421
0.0151946
0.0288425
0.0441413
0.0561212
0.0626563
0.0390851
-0.0064459
-0.00963986
-0.00175485
0.0092958
0.0187392
0.0235198
0.00379944
-0.00293834
-0.0662674
-0.0678359
-0.0664056
-0.0635765
-0.0602403
-0.0567825
-0.0533223
-0.0499069
-0.0465046
-0.0428554
-0.0384913
-0.0323712
-0.0249085
-0.0151533
-0.00442026
0.00607282
0.0182378
0.0321822
0.0483733
0.061707
0.0684363
0.0480393
0.00647857
-0.000229553
0.00577317
0.016118
0.0235775
0.0302183
0.0109636
0.00137531
-0.058419
-0.060289
-0.0596498
-0.0577246
-0.055205
-0.052408
-0.0493844
-0.0461756
-0.042721
-0.0388419
-0.0342466
-0.0281497
-0.0209161
-0.0117215
-0.00151564
0.00877582
0.0206741
0.0345209
0.0503372
0.063461
0.0700225
0.0536447
0.0180703
0.00849913
0.0125301
0.0221386
0.0278947
0.0363292
0.0178315
0.00558269
-0.0512912
-0.0533511
-0.0533249
-0.0521309
-0.0502911
-0.0480601
-0.0454403
-0.0424664
-0.0390593
-0.0350977
-0.0304028
-0.0243877
-0.017375
-0.00867023
0.00101919
0.0110676
0.0225072
0.0358771
0.0505712
0.0627347
0.0689025
0.0564057
0.0273578
0.0162038
0.0184255
0.0272631
0.0315788
0.0413295
0.0238567
0.00930137
-0.0448624
-0.0470265
-0.0474673
-0.0468583
-0.0455794
-0.0438289
-0.041577
-0.0388498
-0.0355581
-0.031619
-0.0269255
-0.0210413
-0.0142539
-0.00598759
0.0031928
0.0129376
0.0237917
0.0363915
0.0496849
0.0606171
0.0663034
0.0570872
0.0341096
0.0227205
0.0234582
0.0314558
0.0345924
0.044755
0.0285769
0.0121977
-0.0391146
-0.0413192
-0.0421094
-0.0419629
-0.0411425
-0.0397951
-0.037873
-0.0353917
-0.0322574
-0.028412
-0.023793
-0.0180778
-0.0115243
-0.00366083
0.00502475
0.0144024
0.0246117
0.0362713
0.0481598
0.0578456
0.0630415
0.056456
0.0386976
0.028046
0.0276688
0.0347237
0.0369462
0.0463475
0.0317637
0.0141066
-0.0340339
-0.0362343
-0.0372804
-0.037495
-0.0370454
-0.0360306
-0.0344009
-0.0321542
-0.0291983
-0.0254903
-0.0209948
-0.0154744
-0.00916044
-0.00167405
0.00654149
0.0155019
0.0250615