/*--------------------------------*- C++ -*----------------------------------*\
  =========                 |
  \\      /  F ield         | OpenFOAM: The Open Source CFD Toolbox
   \\    /   O peration     | Website:  https://openfoam.org
    \\  /    A nd           | Version:  7
     \\/     M anipulation  |
\*---------------------------------------------------------------------------*/
FoamFile
{
    version     2.0;
    format      ascii;
    class       surfaceScalarField;
    location    "330";
    object      phi;
}
// * * * * * * * * * * * * * * * * * * * * * * * * * * * * * * * * * * * * * //

dimensions      [0 3 -1 0 0 0 0];

internalField   nonuniform List<scalar> 
16735
(
-6.96005e-05
-0.00190001
0.00196961
-0.000281251
-0.00503261
0.00524426
-0.00064021
-0.00769665
0.00805561
-0.00113267
-0.00985833
0.0103508
-0.00172893
-0.011643
0.0122393
-0.00239241
-0.0132699
0.0139334
-0.00309019
-0.0149454
0.0156432
-0.00379989
-0.016779
0.0174887
-0.00450927
-0.0187464
0.0194558
-0.0206641
0.0213673
-0.00521244
-0.000102408
-0.0017976
-0.000385381
-0.00474964
-0.000838518
-0.00724352
-0.00143807
-0.00925877
-0.00215082
-0.0109303
-0.00294278
-0.0124779
-0.00378841
-0.0140998
-0.00467651
-0.0158909
-0.00560924
-0.0178137
-0.019675
-0.00659834
-0.00013357
-0.00166403
-0.000482474
-0.00440074
-0.00102046
-0.00670553
-0.001714
-0.00856523
-0.00252626
-0.010118
-0.00342463
-0.0115796
-0.0043881
-0.0131363
-0.00541271
-0.0148663
-0.00651127
-0.0167151
-0.0184773
-0.00770899
-0.000161991
-0.00150204
-0.000569544
-0.00399318
-0.00118111
-0.00609396
-0.00195389
-0.00779245
-0.00284725
-0.00922466
-0.00382843
-0.0105984
-0.00487764
-0.0120871
-0.00599322
-0.0137507
-0.00719352
-0.0155148
-0.0171581
-0.00851265
-0.00018665
-0.00131539
-0.00064388
-0.00353595
-0.0013161
-0.00542174
-0.002152
-0.00695655
-0.00310702
-0.00826964
-0.00414667
-0.00955874
-0.00524882
-0.010985
-0.00640859
-0.0125909
-0.00764363
-0.0142798
-0.0158107
-0.00899108
-0.000206624
-0.00110877
-0.000703068
-0.00303951
-0.00142153
-0.00470328
-0.00230321
-0.00607487
-0.00329957
-0.00727328
-0.00437298
-0.00848534
-0.00549565
-0.00986231
-0.00665368
-0.0114329
-0.00785683
-0.0130766
-0.0145299
-0.00913764
-0.00022111
-0.000887659
-0.000745012
-0.00251561
-0.00149399
-0.0039543
-0.00240287
-0.00516599
-0.00341924
-0.00625691
-0.0045012
-0.00740337
-0.00561256
-0.00875095
-0.00672491
-0.0103206
-0.00783245
-0.0119691
-0.0134105
-0.00895185
-0.000229459
-0.000658199
-0.000767987
-0.00197708
-0.00153051
-0.00319178
-0.00244666
-0.00424984
-0.00346023
-0.00524335
-0.00452437
-0.00633923
-0.00559253
-0.00768279
-0.00661713
-0.00929596
-0.0075695
-0.0110167
-0.0125455
-0.00843443
-0.000231219
-0.000426981
-0.000770732
-0.00143757
-0.00152874
-0.00243377
-0.00243071
-0.00334787
-0.00341661
-0.00425745
-0.00443417
-0.00532167
-0.00542552
-0.00669143
-0.00632058
-0.0084009
-0.00706194
-0.0102753
-0.0120247
-0.00758278
-0.000226184
-0.000200797
-0.00075259
-0.00091116
-0.00148715
-0.00169921
-0.00235193
-0.00248309
-0.0032827
-0.00332667
-0.00422123
-0.00438314
-0.00509818
-0.00581448
-0.00581927
-0.00767982
-0.00629496
-0.00979964
-0.0119312
-0.00638849
-0.000214467
1.36699e-05
-0.000713682
-0.000411944
-0.00140543
-0.00100746
-0.00220864
-0.00167988
-0.00305406
-0.00248125
-0.00387643
-0.00356077
-0.0045952
-0.00509571
-0.00509225
-0.00718277
-0.00524442
-0.00964748
-0.0123357
-0.00483987
-0.000196572
0.000210242
-0.000655071
4.65546e-05
-0.00128482
-0.000377706
-0.00200137
-0.000963331
-0.00272893
-0.0017537
-0.0033933
-0.0028964
-0.00390256
-0.00458645
-0.00411716
-0.00696817
-0.0038801
-0.00988454
-0.0132826
-0.00293328
-0.000173252
0.000383493
-0.000578902
0.000452205
-0.00112844
0.000171836
-0.00173357
-0.00035821
-0.0023098
-0.00117747
-0.00277115
-0.00243505
-0.00301292
-0.00434468
-0.00287536
-0.00710573
-0.00216166
-0.0105982
-0.0147245
-0.000719681
-0.000145809
0.000529302
-0.000488205
0.000794602
-0.0009414
0.000625031
-0.00141193
0.00011232
-0.00180451
-0.000784892
-0.00201786
-0.0022217
-0.00193314
-0.0044294
-0.00137418
-0.0076647
7.17898e-05
-0.0120442
-0.0166891
0.00203639
-0.000115703
0.000645005
-0.000387035
0.00106593
-0.000730325
0.000968322
-0.00104623
0.000428222
-0.00122589
-0.00060523
-0.00114979
-0.0022978
-0.000680873
-0.00489831
0.00032484
-0.00867041
0.00230929
-0.0140286
-0.019536
0.00515614
-8.45561e-05
0.000729561
-0.000279815
0.00126119
-0.00050316
0.00119167
-0.000647911
0.000572973
-0.000590008
-0.000663133
-0.000189989
-0.00269782
0.000716411
-0.00580471
0.00230808
-0.0102621
0.00491467
-0.0166352
-0.0230713
0.00844999
-5.39397e-05
0.000783501
-0.000170937
0.00137819
-0.000267658
0.00128839
-0.000229025
0.00053434
8.40998e-05
-0.000976258
0.000839641
-0.00345336
0.002218
-0.00718307
0.00440311
-0.0124472
0.00768633
-0.0199185
-0.027159
0.011774
-2.51754e-05
0.000808676
-6.41757e-05
0.00141719
-3.06981e-05
0.00125491
0.000200642
0.000303
0.000788048
-0.00156366
0.00191656
-0.00458188
0.00379134
-0.00905785
0.00659325
-0.0152491
0.0104997
-0.0238249
-0.0316346
0.0149754
6.31471e-07
0.000808045
3.77849e-05
0.00138004
0.00020328
0.00108942
0.000634213
-0.000127933
0.00150664
-0.0024361
0.0030277
-0.00610293
0.00541278
-0.0114429
0.00883827
-0.0186746
0.0132464
-0.0282331
-0.0363187
0.0179305
2.3621e-05
0.000784423
0.000133747
0.00126991
0.000431961
0.000791201
0.00106883
-0.000764804
0.00223916
-0.00360642
0.00416796
-0.00803174
0.0070665
-0.0143415
0.0110818
-0.0226899
0.0158517
-0.033003
-0.0410589
0.0205919
4.34566e-05
0.000740967
0.000224218
0.00108915
0.000656437
0.000358982
0.00150671
-0.00161508
0.00298817
-0.00508788
0.00533629
-0.0103799
0.00873512
-0.0177403
0.0132357
-0.0271905
0.0182732
-0.0380405
-0.0478826
0.0250969
6.10975e-05
0.000679869
0.000311182
0.000839064
0.000880485
-0.000210321
0.00195355
-0.00268815
0.00375951
-0.00689384
0.00653042
-0.0131508
0.0103925
-0.0216024
0.0152426
-0.0320406
0.0205584
-0.0433563
-0.054042
0.0267179
7.77046e-05
0.000602165
0.000397879
0.000518889
0.00110983
-0.000922274
0.002417
-0.00399532
0.00455869
-0.00903552
0.00774143
-0.0163335
0.0119955
-0.0258564
0.0170423
-0.0370874
0.022353
-0.048667
-0.0594723
0.0277833
9.46906e-05
0.000507474
0.000488197
0.000125383
0.00135097
-0.00178504
0.00290434
-0.00554869
0.00538683
-0.011518
0.00894941
-0.0198961
0.0134892
-0.0303962
0.0185683
-0.0421665
0.0236289
-0.0537276
-0.0642671
0.0284237
0.000113498
0.000393976
0.000586005
-0.000347125
0.00160976
-0.0028088
0.00341998
-0.0073589
0.00623702
-0.0143351
0.0101215
-0.0237806
0.0148151
-0.0350898
0.0197623
-0.0471137
0.0244351
-0.0584004
-0.0684349
0.0286028
0.000135396
0.00025858
0.00069451
-0.000906238
0.00189014
-0.00400443
0.00396329
-0.00943205
0.00709238
-0.0174642
0.0112148
-0.027903
0.0159198
-0.0397948
0.0205981
-0.0517919
0.0248
-0.0626023
-0.0720118
0.0283769
0.000161318
9.72624e-05
0.000815752
-0.00156067
0.00219307
-0.00538175
0.00452736
-0.0117663
0.00792668
-0.0208635
0.0121833
-0.0321596
0.0167649
-0.0443764
0.0210749
-0.056102
0.0247772
-0.0663045
-0.0750573
0.0278227
0.000191772
-9.45096e-05
0.000950314
-0.00231921
0.0025161
-0.00694754
0.00509888
-0.0143491
0.00870756
-0.0244721
0.0129861
-0.0364381
0.0173314
-0.0487217
0.0212148
-0.0599854
0.0244257
-0.0695154
-0.077636
0.0270044
0.000226833
-0.000321343
0.00109726
-0.00318964
0.00285335
-0.00870363
0.00565931
-0.0171551
0.00940146
-0.0282143
0.0135936
-0.0406303
0.0176197
-0.0527477
0.0210538
-0.0634196
0.0238048
-0.0722664
-0.0798152
0.025984
0.000266186
-0.000587529
0.00125427
-0.00417772
0.00319604
-0.0106454
0.00618702
-0.0201461
0.0099787
-0.032006
0.0139909
-0.0446425
0.0176455
-0.0564023
0.0206347
-0.0664088
0.0229699
-0.0746016
-0.0816557
0.0248105
0.000309207
-0.000896736
0.0014179
-0.00528642
0.00353323
-0.0127607
0.00666001
-0.0232728
0.0104172
-0.0357632
0.0141764
-0.0484016
0.0174348
-0.0596607
0.0200017
-0.0689757
0.0219693
-0.0765692
-0.0832103
0.0235239
0.000355041
-0.00125178
0.00158388
-0.00651526
0.00385284
-0.0150297
0.00705853
-0.0264785
0.0107045
-0.0394092
0.0141599
-0.051857
0.0170188
-0.0625196
0.0191965
-0.0711534
0.0208434
-0.0782161
-0.0845219
0.022155
0.000402673
-0.00165445
0.00174737
-0.00785995
0.0041427
-0.017425
0.00736706
-0.0297029
0.0108372
-0.0428793
0.0139587
-0.0549785
0.0164302
-0.0649911
0.0182563
-0.0729796
0.0196247
-0.0795845
-0.0856239
0.0207268
0.000450974
-0.00210542
0.00190326
-0.00931224
0.00439161
-0.0199134
0.00757551
-0.0328868
0.0108197
-0.0461236
0.0135946
-0.0577534
0.0157004
-0.0670969
0.0172128
-0.074492
0.018339
-0.0807107
-0.0865418
0.0192568
0.000498734
-0.00260416
0.00204644
-0.0108599
0.00459014
-0.0224571
0.0076794
-0.0359761
0.0106623
-0.0491065
0.0130909
-0.060182
0.0148581
-0.0688641
0.0160924
-0.0757263
0.017006
-0.0816243
-0.0872936
0.0177578
0.000544701
-0.00314886
0.00217206
-0.0124873
0.00473134
-0.0250163
0.00767931
-0.038924
0.0103789
-0.051806
0.012471
-0.0622741
0.0139286
-0.0703218
0.0149164
-0.0767141
0.0156409
-0.0823487
-0.0878922
0.0162395
0.000587613
-0.00373647
0.0022758
-0.0141755
0.00481098
-0.0275515
0.0075799
-0.0416929
0.00998511
-0.0542112
0.0117566
-0.0640456
0.0129334
-0.0714985
0.0137017
-0.0774823
0.014255
-0.0829021
-0.0883462
0.014709
0.000626247
-0.00436272
0.00235409
-0.0159033
0.00482757
-0.030025
0.00738876
-0.0442541
0.00949746
-0.0563199
0.0109677
-0.0655158
0.0118903
-0.0724212
0.0124615
-0.0780535
0.0128572
-0.0832977
-0.0886611
0.0131721
0.000659461
-0.00502218
0.00240431
-0.0176482
0.0047821
-0.0324028
0.00711537
-0.0465874
0.00893188
-0.0581365
0.0101216
-0.0667055
0.0108142
-0.0731138
0.0112063
-0.0784457
0.0114539
-0.0835453
-0.0888406
0.0116334
0.000686241
-0.00570842
0.00242485
-0.0193868
0.00467756
-0.0346555
0.00677015
-0.04868
0.00830331
-0.0596696
0.00923324
-0.0676354
0.00971673
-0.0735973
0.00994407
-0.0786731
0.0100504
-0.0836517
-0.088887
0.0100968
0.00070574
-0.00641416
0.00241514
-0.0210962
0.00451843
-0.0367588
0.00636376
-0.0505253
0.00762533
-0.0609312
0.00831533
-0.0683254
0.00860755
-0.0738895
0.00868099
-0.0787465
0.00865079
-0.0836215
-0.0888017
0.00856547
0.000717308
-0.00713147
0.00237556
-0.0227545
0.00431019
-0.0386934
0.00590661
-0.0521218
0.00690997
-0.0619346
0.00737836
-0.0687938
0.00749415
-0.0740053
0.00742194
-0.0786743
0.00725828
-0.0834578
-0.0885847
0.0070413
0.000720503
-0.00785197
0.00230731
-0.0243413
0.00405885
-0.0404449
0.00540849
-0.0534714
0.0061677
-0.0626938
0.00643099
-0.0690571
0.00638248
-0.0739568
0.00617062
-0.0784624
0.00587543
-0.0831626
-0.0882356
0.00552632
0.000715097
-0.00856707
0.00221225
-0.0258384
0.00377059
-0.0420033
0.00487837
-0.0545792
0.00540754
-0.0632229
0.00548038
-0.0691299
0.00527737
-0.0737538
0.00493
-0.0781151
0.00450408
-0.0827367
-0.0877532
0.00402168
0.000701066
-0.00926814
0.00209271
-0.02723
0.00345149
-0.0433621
0.00432433
-0.055452
0.00463715
-0.0635358
0.00453237
-0.0690251
0.00418291
-0.0734043
0.00370322
-0.0776354
0.00314578
-0.0821793
-0.0871345
0.00252708
0.000678588
-0.00994672
0.0019513
-0.0285028
0.00310736
-0.0445181
0.00375349
-0.0560981
0.0038629
-0.0636452
0.00359165
-0.0687539
0.00310253
-0.0729152
0.00249429
-0.0770271
0.00180327
-0.0814883
-0.0863684
0.00103716
0.000648048
-0.0105948
0.00179109
-0.0296458
0.00274365
-0.0454707
0.00317204
-0.0565265
0.00309011
-0.0635632
0.00266191
-0.0683257
0.00203874
-0.072292
0.00130576
-0.0762941
0.0004891
-0.0806716
-0.0854399
-0.000439434
0.000609988
-0.0112048
0.00161502
-0.0306508
0.00236536
-0.046221
0.0025854
-0.0567466
0.0023232
-0.063301
0.00174619
-0.0677487
0.000993695
-0.0715396
0.000126732
-0.0754272
-0.000810043
-0.0797348
-0.0844091
-0.00184084
0.000565073
-0.0117698
0.00142594
-0.0315117
0.00197703
-0.0467721
0.00199819
-0.0567677
0.00156575
-0.0628686
0.000847116
-0.0670301
-3.97925e-05
-0.0706526
-0.00101234
-0.0744546
-0.00208779
-0.0786594
-0.0832593
-0.00323761
0.000514066
-0.0122839
0.0012266
-0.0322242
0.00158279
-0.0471283
0.0014143
-0.0565992
0.000820424
-0.0622747
-3.75212e-05
-0.0661721
-0.00103174
-0.0696584
-0.00213437
-0.073352
-0.003335
-0.0774587
-0.0819805
-0.0046138
0.000457829
-0.0127417
0.00101964
-0.032786
0.00118623
-0.0472949
0.000836886
-0.0562499
9.08802e-05
-0.0615287
-0.00089012
-0.0651911
-0.00200958
-0.068539
-0.00323202
-0.0721296
-0.00455541
-0.0761354
-0.0805727
-0.00596319
0.000397285
-0.013139
0.000807838
-0.0331966
0.000790151
-0.0472772
0.000270312
-0.0557301
-0.000620927
-0.0606375
-0.00172732
-0.0640847
-0.00296343
-0.0673029
-0.00430308
-0.0707899
-0.00574813
-0.0746903
-0.0790376
-0.00728326
0.000333276
-0.0134723
0.000594049
-0.0334574
0.000397895
-0.0470811
-0.00028622
-0.0550459
-0.00131512
-0.0596086
-0.00254218
-0.0628577
-0.00389187
-0.0659532
-0.00534636
-0.0693354
-0.00691159
-0.0731251
-0.0773774
-0.00857174
0.000266673
-0.013739
0.000379971
-0.0335707
2.93286e-05
-0.0467304
-0.000827973
-0.0541886
-0.00199074
-0.0584458
-0.00333375
-0.0615146
-0.00479411
-0.0644928
-0.006361
-0.0677685
-0.00804435
-0.0714417
-0.075596
-0.00982578
0.000199263
-0.0139382
0.00016732
-0.0335387
-0.000373333
-0.0461898
-0.00135941
-0.0532026
-0.0026461
-0.0571591
-0.00410114
-0.0600596
-0.0056694
-0.0629245
-0.00734627
-0.0660916
-0.00914494
-0.0696431
-0.0736995
-0.0110414
0.000130062
-0.0140683
-3.02174e-05
-0.0333784
-0.000746667
-0.0454733
-0.00187585
-0.0520734
-0.0032806
-0.0557544
-0.00484358
-0.0584966
-0.00651706
-0.0612511
-0.00830138
-0.0643073
-0.0102121
-0.0677323
-0.071693
-0.0122186
5.48619e-05
-0.0141232
-0.000267308
-0.0330563
-0.00111222
-0.0446284
-0.00237476
-0.0508108
-0.00389345
-0.0542357
-0.00556066
-0.0568294
-0.00733664
-0.0594751
-0.00922574
-0.0624182
-0.0112458
-0.0657122
-0.0695736
-0.0133653
-2.20501e-05
-0.0141011
-0.000481747
-0.0325966
-0.00146739
-0.0436428
-0.00285555
-0.0494227
-0.0044836
-0.0526076
-0.00625196
-0.0550611
-0.00812853
-0.0575985
-0.0101204
-0.0604263
-0.0122453
-0.0635873
-0.0673403
-0.0144787
-9.22408e-05
-0.0140089
-0.000687663
-0.0320012
-0.00181034
-0.0425201
-0.00331793
-0.0479151
-0.00505043
-0.0508751
-0.00691697
-0.0531945
-0.00889335
-0.0556221
-0.0109889
-0.0583308
-0.0132057
-0.0613706
-0.0650092
-0.0155367
-0.000163856
-0.013845
-0.000886797
-0.0312782
-0.0021402
-0.0412667
-0.0037612
-0.0462941
-0.00559325
-0.0490431
-0.00755463
-0.0512332
-0.00962907
-0.0535477
-0.0118296
-0.0561303
-0.0141657
-0.0590344
-0.0627277
-0.0164472
-0.000234387
-0.0136106
-0.00107921
-0.0304334
-0.00245637
-0.0398895
-0.0041848
-0.0445657
-0.00611161
-0.0471162
-0.0081639
-0.0491809
-0.0103307
-0.0513809
-0.012613
-0.0538479
-0.014974
-0.0566734
-0.0599222
-0.0177795
-0.000303173
-0.0133074
-0.00126445
-0.0294721
-0.00275844
-0.0383955
-0.00458835
-0.0427358
-0.0066053
-0.0450993
-0.00874417
-0.047042
-0.0109947
-0.0491304
-0.013353
-0.0514897
-0.0158376
-0.0541888
-0.057138
-0.0186218
-0.000369834
-0.0129376
-0.001442
-0.0284
-0.003046
-0.0367915
-0.00497155
-0.0408102
-0.00707405
-0.0429968
-0.00929539
-0.0448207
-0.011628
-0.0467978
-0.0140767
-0.049041
-0.0166761
-0.0515894
-0.0543322
-0.0194819
-0.000434068
-0.0125035
-0.00161138
-0.0272226
-0.00331872
-0.0350842
-0.00533412
-0.0387948
-0.00751742
-0.0408135
-0.00981672
-0.0425214
-0.0122274
-0.044387
-0.0147598
-0.0465086
-0.0174445
-0.0489046
-0.0514764
-0.0203004
-0.000495608
-0.0120079
-0.00177218
-0.0259461
-0.00357629
-0.0332801
-0.00567589
-0.0366952
-0.0079353
-0.0385541
-0.0103084
-0.0401482
-0.012794
-0.0419014
-0.0154052
-0.0438975
-0.0181665
-0.0461434
-0.0485587
-0.0210842
-0.000554217
-0.0114537
-0.00192405
-0.0245762
-0.00381847
-0.0313857
-0.00599667
-0.034517
-0.00832751
-0.0362232
-0.0107703
-0.0377054
-0.0133266
-0.0393451
-0.0160108
-0.0412133
-0.0188429
-0.0433112
-0.0455745
-0.0218272
-0.000609682
-0.010844
-0.00206669
-0.0231192
-0.00404504
-0.0294073
-0.00629637
-0.0322657
-0.00869398
-0.0338256
-0.0112022
-0.0351972
-0.0138249
-0.0367224
-0.016577
-0.0384612
-0.0194762
-0.040412
-0.0425234
-0.0225272
-0.000661815
-0.0101822
-0.00219987
-0.0215812
-0.00425584
-0.0273513
-0.00657487
-0.0299467
-0.00903459
-0.0313659
-0.0116038
-0.032628
-0.0142885
-0.0340377
-0.0171038
-0.035646
-0.0200664
-0.0374494
-0.0394075
-0.0231823
-0.000710451
-0.00947177
-0.00232337
-0.0199683
-0.00445075
-0.025224
-0.00683212
-0.0275653
-0.00934929
-0.0288487
-0.0119752
-0.0300021
-0.0147174
-0.0312955
-0.0175913
-0.0327721
-0.0206133
-0.0344274
-0.0362298
-0.0237909
-0.000755446
-0.00871632
-0.00243702
-0.0182867
-0.00462965
-0.0230313
-0.00706805
-0.0251269
-0.009638
-0.0262788
-0.012316
-0.0273241
-0.0151112
-0.0285004
-0.0180392
-0.0298441
-0.0211163
-0.0313502
-0.0329945
-0.0243517
-0.000796675
-0.00791965
-0.00254069
-0.0165427
-0.00479245
-0.0207796
-0.00728262
-0.0226367
-0.00990065
-0.0236608
-0.0126263
-0.0245984
-0.0154698
-0.0256568
-0.0184473
-0.0268666
-0.0215751
-0.0282224
-0.029706
-0.0248636
-0.000834033
-0.00708561
-0.00263424
-0.0147425
-0.0049391
-0.0184747
-0.00747581
-0.0201
-0.0101372
-0.0209994
-0.0129059
-0.0218297
-0.0157931
-0.0227696
-0.0188154
-0.0238444
-0.0219891
-0.0250487
-0.0263692
-0.0253258
-0.000867427
-0.00621819
-0.00271758
-0.0128923
-0.00506954
-0.0161228
-0.00764759
-0.0175219
-0.0103476
-0.0182994
-0.0131546
-0.0190227
-0.0160809
-0.0198433
-0.0191431
-0.0207822
-0.0223578
-0.021834
-0.0229894
-0.0257377
-0.000896779
-0.00532141
-0.00279064
-0.0109984
-0.00518374
-0.0137297
-0.00779793
-0.0149078
-0.0105318
-0.0155655
-0.0133725
-0.0161819
-0.0163331
-0.0168828
-0.0194304
-0.0176849
-0.022681
-0.0185833
-0.0195718
-0.0260986
-0.000922024
-0.00439938
-0.00285333
-0.00906714
-0.00528166
-0.0113013
-0.00792683
-0.0122626
-0.0106898
-0.0128026
-0.0135595
-0.0133122
-0.0165495
-0.0138928
-0.0196769
-0.0145574
-0.0229585
-0.0153018
-0.0161218
-0.0264084
-0.000943107
-0.00345628
-0.00290562
-0.00710463
-0.00536327
-0.00884368
-0.00803427
-0.00959157
-0.0108215
-0.0100153
-0.0137154
-0.0104183
-0.0167301
-0.0108781
-0.0198827
-0.0114048
-0.0231899
-0.0119945
-0.0126449
-0.0266668
-0.000959985
-0.00249629
-0.00294744
-0.00511717
-0.00542856
-0.00636257
-0.00812026
-0.00689987
-0.010927
-0.0072086
-0.0138403
-0.00750494
-0.0168747
-0.00784377
-0.0200475
-0.00823206
-0.0233753
-0.00866675
-0.00914644
-0.0268737
-0.000972624
-0.00152367
-0.00297879
-0.003111
-0.00547751
-0.00386385
-0.00818478
-0.0041926
-0.0110062
-0.00438719
-0.0139342
-0.00457695
-0.0169834
-0.00479455
-0.0201713
-0.00504411
-0.0235146
-0.00532351
-0.00563161
-0.0270294
-0.000980998
-0.00054267
-0.00299962
-0.00109238
-0.00551012
-0.00135334
-0.00822784
-0.00147488
-0.0110591
-0.00155592
-0.0139969
-0.00163915
-0.0170561
-0.00173538
-0.0202541
-0.00184608
-0.0236072
-0.00197037
-0.00210442
-0.0271344
-0.000985091
0.000442421
-0.00300992
0.000932449
-0.00552639
0.00116312
-0.00824943
0.00124816
-0.0110857
0.00128038
-0.0140285
0.00130363
-0.0170926
0.00132871
-0.0202955
0.00135677
-0.0236536
0.00138773
0.00142092
-0.0271789
-0.000984896
0.00142732
-0.0030097
0.00295725
-0.00552631
0.00367973
-0.00824958
0.00397142
-0.0110861
0.00411691
-0.0140291
0.0042466
-0.0170934
0.00439299
-0.0202964
0.00455982
-0.0236545
0.00474582
0.00494978
-0.0271834
-0.000980411
0.00240773
-0.00299895
0.00497579
-0.00550989
0.00619068
-0.00822827
0.0066898
-0.0110602
0.00694884
-0.0139986
0.00718497
-0.0170581
0.00745255
-0.0202563
0.00775803
-0.0236096
0.00809905
0.00847419
-0.027134
-0.000971646
0.00337937
-0.00297767
0.00698181
-0.00547713
0.00869014
-0.00818552
0.00939819
-0.011008
0.00977137
-0.013937
0.0101139
-0.0169869
0.0105025
-0.0201752
0.0109463
-0.0235183
0.0114421
0.0119879
-0.027032
-0.000958615
0.00433799
-0.00294588
0.00896908
-0.00542804
0.0111723
-0.00812132
0.0120915
-0.0109296
0.0125797
-0.0138444
0.0130286
-0.0168798
0.0135379
-0.0200531
0.0141197
-0.0233809
0.0147699
0.0154854
-0.0268784
-0.000941344
0.00527933
-0.00290362
0.0109313
-0.00536264
0.0136313
-0.0080357
0.0147645
-0.010825
0.015369
-0.0137207
0.0159244
-0.0167367
0.0165539
-0.0198902
0.0172731
-0.0231975
0.0180772
0.0189612
-0.0266733
-0.000919866
0.0061992
-0.0028509
0.0128624
-0.00528093
0.0160614
-0.00792866
0.0174123
-0.0106942
0.0181345
-0.0135662
0.0187963
-0.0165579
0.0195457
-0.0196865
0.0204016
-0.0229682
0.0213589
0.02241
-0.0264169
-0.000894223
0.00709342
-0.00278777
0.0147559
-0.00518293
0.0184565
-0.0078002
0.0200295
-0.0105372
0.0208715
-0.0133807
0.0216399
-0.0163434
0.0225084
-0.0194421
0.0235003
-0.0226931
0.0246099
0.0258263
-0.0261094
-0.000864467
0.00795789
-0.00271429
0.0166057
-0.00506868
0.0208109
-0.00765034
0.0226112
-0.010354
0.0235752
-0.0131643
0.0244502
-0.0160933
0.0254373
-0.0191572
0.0265643
-0.0223725
0.0278252
0.0292048
-0.0257509
-0.00083066
0.00878855
-0.00263051
0.0184056
-0.0049382
0.0231186
-0.0074791
0.0251521
-0.0101448
0.0262408
-0.0129173
0.0272227
-0.0158077
0.0283277
-0.0188321
0.0295887
-0.0220067
0.0309997
0.0325402
-0.0253421
-0.000792878
0.00958143
-0.00253651
0.0201492
-0.00479152
0.0253736
-0.0072865
0.0276471
-0.00990942
0.0288637
-0.0126395
0.0299528
-0.0154868
0.031175
-0.0184669
0.0325688
-0.021596
0.0341288
0.0358275
-0.0248833
-0.000751206
0.0103326
-0.00243238
0.0218304
-0.00462869
0.0275699
-0.00707255
0.0300909
-0.00964808
0.0314393
-0.0123312
0.032636
-0.0151308
0.0339745
-0.018062
0.0355001
-0.0211409
0.0372077
0.0390619
-0.0243754
-0.000705747
0.0110384
-0.00231823
0.0234429
-0.00444977
0.0297015
-0.00683728
0.0324784
-0.00936076
0.0339627
-0.0119925
0.0352677
-0.0147397
0.0367218
-0.0176176
0.038378
-0.020642
0.0402321
0.0422391
-0.0238192
-0.000656618
0.011695
-0.00219419
0.0249804
-0.00425481
0.0317621
-0.00658071
0.0348043
-0.00904752
0.0364295
-0.0116234
0.0378435
-0.0143139
0.0394123
-0.017134
0.0411981
-0.0200998
0.0431979
0.0453552
-0.023216
-0.000603954
0.012299
-0.00206042
0.0264369
-0.00404392
0.0337456
-0.0063029
0.0370633
-0.00870841
0.038835
-0.011224
0.0403591
-0.0138535
0.0420418
-0.0166112
0.0439558
-0.0195148
0.0461015
0.0484074
-0.022567
-0.000547909
0.0128469
-0.0019171
0.0278061
-0.0038172
0.0356457
-0.00600388
0.03925
-0.0083435
0.0411747
-0.0107946
0.0428103
-0.0133586
0.0446057
-0.0160494
0.0466467
-0.0188872
0.0489393
0.0513943
-0.021874
-0.00048866
0.0133355
-0.00176447
0.0290819
-0.00357479
0.037456
-0.00568372
0.0413589
-0.00795285
0.0434438
-0.0103353
0.0451927
-0.0128295
0.0470999
-0.0154483
0.0492655
-0.0182167
0.0517076
0.0543169
-0.0211393
-0.000426402
0.0137619
-0.00160277
0.0302583
-0.00331686
0.0391701
-0.00534249
0.0433845
-0.00753651
0.0456378
-0.00984614
0.0475024
-0.0122665
0.0495202
-0.0148074
0.0518064
-0.0175004
0.0544007
0.0571811
-0.0203646
-0.000361355
0.0141233
-0.00143234
0.0313293
-0.00304362
0.0407814
-0.00498033
0.0453213
-0.0070946
0.0477521
-0.0093274
0.0497352
-0.011671
0.0518638
-0.0141292
0.0542646
-0.0167378
0.0570093
0.0599991
-0.0195558
-0.000293758
0.014417
-0.00125355
0.0322891
-0.0027553
0.0422831
-0.00459737
0.0471633
-0.0066272
0.0497819
-0.00877865
0.0518866
-0.0110414
0.0541265
-0.0134098
0.0566331
-0.0159012
0.0595007
0.0627963
-0.0186985
-0.000223887
0.0146409
-0.00106685
0.033132
-0.00245219
0.0436685
-0.00419383
0.048905
-0.00613468
0.0517228
-0.00820068
0.0539526
-0.0103811
0.0563069
-0.0126754
0.0589274
-0.0150412
0.0618664
0.0656123
-0.0178571
-0.000152116
0.014793
-0.000872707
0.0338526
-0.00213457
0.0449303
-0.00376993
0.0505403
-0.00561732
0.0535702
-0.00759361
0.0559289
-0.0096831
0.0583964
-0.011899
0.0611433
-0.0142492
0.0642166
0.0678937
-0.0165306
-7.92476e-05
0.0148723
-0.00067145
0.0344448
-0.00180277
0.0460617
-0.00332598
0.0520635
-0.00507521
0.0553194
-0.00695797
0.0578117
-0.0089506
0.060389
-0.0110626
0.0632553
-0.0132947
0.0664487
0.0702379
-0.0156389
-9.56945e-06
0.0148819
-0.00046266
0.0348979
-0.00145725
0.0470562
-0.00286247
0.0534688
-0.00450869
0.0569656
-0.00629465
0.0595976
-0.00818862
0.062283
-0.0101978
0.0652645
-0.0123385
0.0685894
0.0724877
-0.0145883
7.21202e-05
0.0148097
-0.00024356
0.0352136
-0.00109882
0.0479115
-0.00238002
0.05475
-0.00391837
0.058504
-0.00560463
0.0612839
-0.00739939
0.0640778
-0.00930718
0.0671723
-0.0113453
0.0706275
0.0746243
-0.0134818
0.000148737
0.014661
2.28292e-06
0.03536
-0.000729419
0.0486432
-0.00187867
0.0558992
-0.00330475
0.05993
-0.00488841
0.0628675
-0.00658226
0.0657716
-0.00838718
0.0689772
-0.0103188
0.0725591
0.0766513
-0.0123458
0.000219043
0.014442
0.000196478
0.0353826
-0.000351534
0.0491912
-0.00135901
0.0569067
-0.00266887
0.0612399
-0.00414632
0.064345
-0.00573671
0.067362
-0.00743631
0.0706768
-0.00925895
0.0743817
0.0785732
-0.0111808
0.000288426
0.0141535
0.000414274
0.0352568
5.38641e-05
0.0495516
-0.00082394
0.0577845
-0.0020114
0.0624274
-0.00337863
0.0657122
-0.004863
0.0688464
-0.00645497
0.0722688
-0.00816554
0.0760923
0.0803846
-0.00997694
0.00035736
0.0137962
0.000633985
0.0349801
0.000430626
0.049755
-0.000276806
0.0584919
-0.00133257
0.0634831
-0.00258591
0.0669656
-0.00396166
0.0702221
-0.00544377
0.0737509
-0.00703968
0.0776882
0.0820789
-0.00873399
0.000424013
0.0133722
0.00085406
0.0345501
0.000830207
0.0497788
0.000286333
0.0590358
-0.000633872
0.0644033
-0.00176891
0.0681006
-0.00303324
0.0714864
-0.0044031
0.0751207
-0.00588251
0.0791676
0.0836523
-0.0074559
0.000487399
0.0128848
0.00107308
0.0339644
0.00123533
0.0496166
0.000860861
0.0594103
8.34382e-05
0.0651807
-0.000928344
0.0691124
-0.00207841
0.0726365
-0.0033334
0.0763757
-0.0046952
0.0805295
0.0851024
-0.00614531
0.000546685
0.0123381
0.00128833
0.0332228
0.00164271
0.0492622
0.00144849
0.0596045
0.000821333
0.0658079
-6.94177e-05
0.0700031
-0.00109851
0.0736656
-0.00223519
0.0775124
-0.00347927
0.0817735
0.0864273
-0.00480415
0.000600922
0.0117372
0.00149707
0.0323266
0.00204974
0.0487095
0.00204491
0.0596093
0.00157645
0.0662764
0.000821409
0.0707582
-9.96259e-05
0.0745866
-0.00111041
0.0785232
-0.00223538
0.0828985
0.0876265
-0.00343462
0.000649193
0.011088
0.00169665
0.0312792
0.00245305
0.0479531
0.00264723
0.0594151
0.00234639
0.0665772
0.00172977
0.0713748
0.000935892
0.0753805
1.85921e-05
0.0794405
-0.000959747
0.0838768
0.088709
-0.00204229
0.000690662
0.0103973
0.00188431
0.0300855
0.00284871
0.0469887
0.00325202
0.0590118
0.00312884
0.0667004
0.00265744
0.0718462
0.00199167
0.0760463
0.00121522
0.0802169
0.000348805
0.0847433
0.0896964
-0.000638574
0.000724585
0.00967271
0.00205717
0.0287529
0.00323235
0.0458136
0.0038551
0.0583891
0.00392084
0.0666346
0.00360272
0.0721643
0.0030679
0.0765811
0.00241087
0.080874
0.00166211
0.085492
0.0905353
0.000823239
0.000750327
0.00892238
0.00221219
0.0272911
0.00359912
0.0444266
0.00445148
0.0575367
0.00471847
0.0663676
0.00456271
0.0723201
0.00416325
0.0769806
0.00363053
0.0814067
0.00301186
0.0861107
0.0912244
0.00232279
0.000767395
0.00815499
0.00234606
0.0257124
0.0039436
0.0428291
0.00503536
0.056445
0.00551698
0.065886
0.00553436
0.0723027
0.0052767
0.0772382
0.00487251
0.0818109
0.00438171
0.0866015
0.0917812
0.00382486
0.000775498
0.00737949
0.00245579
0.0240321
0.00425992
0.041025
0.00560001
0.0551049
0.00631073
0.0651753
0.0065139
0.0720995
0.00640576
0.0773464
0.00613293
0.0820837
0.00576861
0.0869658
0.0922106
0.00533924
0.000774557
0.00660493
0.00253868
0.022268
0.00454182
0.0390218
0.00613769
0.053509
0.00709282
0.0642202
0.0074964
0.071696
0.00754702
0.0772958
0.00740911
0.0822216
0.0071717
0.0872032
0.0925135
0.00686882
0.000764702
0.00584023
0.00259239
0.0204403
0.00478273
0.0368315
0.00663963
0.0516521
0.00785502
0.0630048
0.00847572
0.0710753
0.00869658
0.0770749
0.00869892
0.0822193
0.00859014
0.087312
0.0926903
0.00841328
0.00074628
0.00509395
0.00261515
0.0185714
0.00497603
0.0344706
0.00709605
0.0495321
0.00858757
0.0615133
0.00944432
0.0702185
0.00984968
0.0766695
0.0099998
0.0820691
0.0100224
0.0872894
0.0927415
0.00997123
0.000719864
0.00437409
0.00260596
0.0166854
0.00511532
0.0319612
0.00749628
0.0471511
0.00927906
0.0597305
0.0103929
0.0691047
0.0110002
0.0760622
0.0113082
0.0817612
0.0114664
0.0871313
0.092666
0.0115418
0.000686241
0.00368785
0.00256476
0.0148068
0.00519486
0.0293311
0.00782897
0.044517
0.00991636
0.0576431
0.0113102
0.0677108
0.0121405
0.075232
0.0126196
0.081282
0.0129193
0.0868315
0.092462
0.0131234
0.000646395
0.00304145
0.00249258
0.0129607
0.00521009
0.0266136
0.00808251
0.0416446
0.0104846
0.055241
0.0121826
0.0660129
0.0132603
0.0741542
0.0139278
0.0806145
0.0143779
0.0863815
0.0921263
0.0147136
0.000601471
0.00243998
0.00239155
0.0111706
0.00515823
0.0238469
0.00824561
0.0385572
0.0109674
0.0525192
0.0129936
0.0639866
0.0143473
0.0728005
0.0152249
0.0797369
0.0158375
0.0857688
0.0916542
0.0163096
0.00055272
0.00188726
0.0022649
0.00945839
0.00503877
0.0210731
0.00830806
0.0352879
0.0113471
0.0494802
0.0137244
0.0616093
0.0153858
0.0711391
0.0165005
0.0786223
0.0172923
0.084977
0.0910383
0.0179082
0.000501442
0.00138582
0.00211674
0.00784309
0.00485403
0.0183358
0.00826178
0.0318801
0.0116057
0.0461363
0.0143531
0.0588619
0.0163564
0.0691358
0.0177408
0.0772379
0.0187342
0.0839836
0.0902676
0.0195049
0.000448909
0.000936908
0.00195182
0.00634019
0.00460928
0.0156783
0.00810206
0.0283874
0.0117256
0.0425127
0.0148556
0.0557319
0.017236
0.0667554
0.0189285
0.0755454
0.0201524
0.0827597
0.0893258
0.0210941
0.00039629
0.000540618
0.00177515
0.00496133
0.00431257
0.0131409
0.00782874
0.0248712
0.0116915
0.03865
0.015206
0.0522174
0.0179971
0.0639642
0.0200412
0.0735013
0.0215321
0.0812688
0.0881902
0.0226678
0.000344572
0.000196047
0.00159165
0.00371425
0.00397417
0.0107584
0.00744726
0.0213981
0.0114919
0.0346054
0.015378
0.0483312
0.0186083
0.060734
0.0210512
0.0710584
0.022854
0.079466
0.0868294
0.0242148
0.000294502
-9.84559e-05
0.0014058
0.00260295
0.00360563
0.00855855
0.00696904
0.0180347
0.0111217
0.0304527
0.0153471
0.0441058
0.0190348
0.0570463
0.0219247
0.0681685
0.0240923
0.0772985
0.085202
0.0257197
0.000246562
-0.000345018
0.00122136
0.00162816
0.00321873
0.00656118
0.00641092
0.0148425
0.0105846
0.026279
0.0150931
0.0395973
0.01924
0.0528995
0.0226219
0.0647865
0.0252138
0.0747066
0.0832544
0.0271614
0.000200994
-0.000546012
0.00104134
0.000787811
0.00282455
0.00477796
0.00579384
0.0118732