/*--------------------------------*- C++ -*----------------------------------*\
  =========                 |
  \\      /  F ield         | OpenFOAM: The Open Source CFD Toolbox
   \\    /   O peration     | Website:  https://openfoam.org
    \\  /    A nd           | Version:  7
     \\/     M anipulation  |
\*---------------------------------------------------------------------------*/
FoamFile
{
    version     2.0;
    format      ascii;
    class       volVectorField;
    location    "330";
    object      U;
}
// * * * * * * * * * * * * * * * * * * * * * * * * * * * * * * * * * * * * * //

dimensions      [0 1 -1 0 0 0 0];

internalField   nonuniform List<vector> 
8500
(
(0.000129576 -0.0562987 1.06515e-21)
(-0.00376606 -0.138441 -3.05341e-21)
(-0.0149468 -0.196557 -3.55791e-21)
(-0.0305799 -0.233631 3.53692e-21)
(-0.0487244 -0.255852 -3.25652e-21)
(-0.0672772 -0.270092 -1.74455e-21)
(-0.0845776 -0.281467 3.00546e-21)
(-0.0998081 -0.292212 3.74494e-21)
(-0.112365 -0.301862 -6.22189e-22)
(-0.12174 -0.307721 1.86711e-21)
(0.00159038 -0.0537885 -1.17803e-21)
(-0.00158067 -0.131995 3.63075e-21)
(-0.0142975 -0.187253 -8.433e-21)
(-0.0323097 -0.222649 7.65037e-21)
(-0.0531632 -0.244383 3.50251e-22)
(-0.0744925 -0.259115 5.67202e-21)
(-0.0946167 -0.271596 -9.90376e-21)
(-0.112903 -0.283694 -1.46126e-20)
(-0.128952 -0.294679 -2.85968e-21)
(-0.142729 -0.30173 6.55196e-21)
(0.00278362 -0.0503231 1.05068e-21)
(7.34017e-05 -0.123742 7.84388e-21)
(-0.0141353 -0.175947 1.85318e-20)
(-0.0342589 -0.209784 -1.67838e-20)
(-0.0573794 -0.231247 -3.77041e-21)
(-0.0808972 -0.246638 -3.46875e-21)
(-0.103099 -0.260284 1.77049e-20)
(-0.123496 -0.273663 1.11592e-20)
(-0.141827 -0.285768 2.82815e-21)
(-0.158402 -0.293669 -2.02208e-20)
(0.00363198 -0.0459849 3.71269e-21)
(0.00109913 -0.113876 -4.6239e-21)
(-0.0144963 -0.162888 -3.42617e-20)
(-0.0363943 -0.195302 3.05932e-21)
(-0.0612825 -0.216704 9.4485e-21)
(-0.0863565 -0.232925 -7.3289e-21)
(-0.109848 -0.247824 -5.0248e-22)
(-0.131353 -0.262472 -2.97488e-21)
(-0.150665 -0.275543 6.86523e-21)
(-0.168274 -0.283985 1.97494e-20)
(0.00407352 -0.0408902 2.549e-21)
(0.00142785 -0.102637 -1.45791e-20)
(-0.0153899 -0.148359 3.52222e-20)
(-0.0386626 -0.179483 -1.59578e-20)
(-0.0647694 -0.201013 -7.61962e-23)
(-0.0907337 -0.218229 2.21676e-20)
(-0.114703 -0.234502 -1.02615e-20)
(-0.136288 -0.25048 1.22525e-21)
(-0.155247 -0.264455 -4.22186e-21)
(-0.172012 -0.27318 1.24427e-21)
(0.00406639 -0.0351844 3.04908e-20)
(0.00102529 -0.0903058 3.73517e-20)
(-0.016793 -0.132668 -9.62053e-21)
(-0.0409827 -0.162613 1.83305e-20)
(-0.0677127 -0.184428 5.71856e-21)
(-0.0938701 -0.202785 -8.27673e-21)
(-0.117488 -0.220574 -3.16513e-21)
(-0.138119 -0.238023 -1.36745e-20)
(-0.155409 -0.252958 2.95455e-21)
(-0.169378 -0.261785 -1.77118e-20)
(0.00359264 -0.0290376 -2.93728e-20)
(-0.000103897 -0.0771914 -1.94433e-20)
(-0.0186452 -0.116142 1.5776e-20)
(-0.0432389 -0.144985 -2.73792e-20)
(-0.0699479 -0.167188 3.09328e-21)
(-0.0955626 -0.186796 3.21988e-20)
(-0.117976 -0.206248 -5.79811e-21)
(-0.136613 -0.225373 3.78158e-20)
(-0.150964 -0.241459 -9.51099e-22)
(-0.160109 -0.250313 -1.49496e-20)
(0.00266078 -0.0226377 2.44003e-20)
(-0.00191354 -0.0636264 -4.44997e-20)
(-0.0208472 -0.0991225 -1.77781e-20)
(-0.0452771 -0.126891 2.09213e-20)
(-0.0712641 -0.149524 6.75395e-22)
(-0.095544 -0.170435 -6.03759e-20)
(-0.11585 -0.191665 -3.53693e-21)
(-0.131416 -0.212707 -2.97461e-20)
(-0.141616 -0.230264 -3.7781e-20)
(-0.143797 -0.239208 2.18714e-20)
(0.00130673 -0.0161835 -1.35849e-20)
(-0.00431604 -0.0499566 6.67178e-21)
(-0.0232611 -0.081962 1.63526e-20)
(-0.0469048 -0.108635 -1.46772e-20)
(-0.071401 -0.131664 -5.16698e-20)
(-0.0934717 -0.153848 1.78119e-20)
(-0.110676 -0.176901 2.57622e-21)
(-0.122004 -0.200079 4.4592e-20)
(-0.126874 -0.219529 5.7414e-20)
(-0.11978 -0.228776 -2.54274e-20)
(-0.000407325 -0.00987605 2.13436e-20)
(-0.00718546 -0.036532 1.96113e-20)
(-0.025716 -0.0650199 -2.8421e-21)
(-0.0478973 -0.0905257 7.31162e-20)
(-0.0700554 -0.113841 3.11698e-20)
(-0.0889324 -0.137174 2.34065e-20)
(-0.101904 -0.161983 3.31504e-20)
(-0.107656 -0.187414 -1.44387e-20)
(-0.106005 -0.209222 -1.91347e-20)
(-0.087079 -0.219103 -3.02231e-20)
(-0.00239672 -0.00390869 -2.02879e-21)
(-0.0103642 -0.023696 -3.11252e-20)
(-0.0280163 -0.0486593 -2.24857e-20)
(-0.0480104 -0.0728905 -3.61584e-20)
(-0.066899 -0.096315 -2.87277e-20)
(-0.0814661 -0.120574 2.90577e-20)
(-0.0888984 -0.146925 -2.78419e-20)
(-0.0874856 -0.174534 -1.90057e-20)
(-0.0780681 -0.199109 2.48645e-21)
(-0.0444622 -0.20994 8.19584e-21)
(-0.00455786 0.00153798 -5.90173e-20)
(-0.0136727 -0.0117733 2.83981e-20)
(-0.0299542 -0.0332399 2.0838e-20)
(-0.0469967 -0.0560731 1.40595e-20)
(-0.0616054 -0.0793858 -2.57658e-20)
(-0.0706088 -0.104267 -2.16844e-20)
(-0.0709989 -0.131795 3.13431e-20)
(-0.0605301 -0.16123 -2.54133e-20)
(-0.0419979 -0.188802 -1.91493e-21)
(0.0091901 -0.20038 -2.48554e-20)
(-0.00677508 0.0063134 4.95997e-20)
(-0.0169149 -0.00105994 2.03982e-20)
(-0.031322 -0.0191096 1.20916e-21)
(-0.0446247 -0.0404308 -2.55714e-20)
(-0.0538809 -0.0633978 1.72836e-21)
(-0.0559471 -0.0885542 2.88835e-20)
(-0.0476134 -0.116777 -8.16702e-21)
(-0.0258763 -0.147397 -9.87336e-21)
(0.00357215 -0.178171 -2.12479e-20)
(0.0742963 -0.188527 3.81495e-20)
(-0.00893655 0.0103044 3.38712e-20)
(-0.0198981 0.00819558 -5.50422e-20)
(-0.0319196 -0.0065904 -4.28285e-20)
(-0.0406912 -0.0263227 1.85096e-20)
(-0.0434894 -0.0487338 3.81057e-20)
(-0.0371697 -0.0738224 3.27281e-20)
(-0.018333 -0.1022 -3.46406e-20)
(0.0169462 -0.133167 6.6107e-20)
(0.0607348 -0.167858 -2.00127e-20)
(0.151165 -0.173015 -4.37948e-20)
(-0.010934 0.0134389 -5.06668e-20)
(-0.0224404 0.0158063 3.06742e-20)
(-0.0315653 0.00403866 -1.50416e-20)
(-0.0350201 -0.0140939 1.56828e-21)
(-0.0302532 -0.0357874 1.62839e-20)
(-0.0140741 -0.0605011 -5.15821e-20)
(0.017063 -0.0884957 4.56575e-20)
(0.0674104 -0.118935 -4.41125e-20)
(0.130029 -0.156963 6.90145e-20)
(0.241489 -0.155037 2.35486e-20)
(-0.012675 0.015692 1.09205e-20)
(-0.0243742 0.0216512 6.01788e-20)
(-0.0300955 0.0125608 -1.5325e-20)
(-0.0274589 -0.00403753 1.55512e-20)
(-0.0140281 -0.0249126 1.84754e-20)
(0.0134738 -0.0490109 -5.61457e-21)
(0.0588079 -0.0761331 3.9637e-20)
(0.12566 -0.105294 2.2538e-21)
(0.209241 -0.144524 -4.34925e-20)
(0.342614 -0.136019 5.64177e-20)
(-0.0140881 0.017085 -2.89949e-20)
(-0.0255512 0.0256869 -5.7124e-20)
(-0.0273494 0.0188397 4.98331e-20)
(-0.0178519 0.00363921 2.52787e-20)
(0.00532995 -0.0163747 -1.17883e-19)
(0.0455919 -0.0397159 9.66665e-20)
(0.106877 -0.0655923 -8.71715e-20)
(0.191867 -0.0930232 1.57412e-21)
(0.298194 -0.130963 -1.85765e-20)
(0.449148 -0.115797 -5.13864e-20)
(-0.0151248 0.01768 2.53273e-20)
(-0.0258401 0.0279462 -3.49643e-21)
(-0.0231561 0.022832 -1.22388e-20)
(-0.00599393 0.00882799 -1.34086e-21)
(0.0280432 -0.0103342 -7.43444e-21)
(0.0824823 -0.0327651 -3.07412e-20)
(0.161341 -0.0569867 1.29457e-20)
(0.265587 -0.0822408 -2.05633e-20)
(0.396192 -0.115818 6.55964e-21)
(0.555289 -0.0945823 1.78946e-21)
(-0.0157596 0.0175719 -5.17458e-20)
(-0.0251184 0.0285312 -3.81384e-21)
(-0.0173178 0.0245897 5.72774e-21)
(0.00838394 0.0115401 2.34315e-21)
(0.0544747 -0.00677081 3.87638e-20)
(0.124537 -0.0280499 -1.1364e-19)
(0.22247 -0.0501257 7.63887e-20)
(0.346711 -0.0728463 -5.67699e-20)
(0.501484 -0.0977868 4.54652e-20)
(0.655912 -0.0733237 4.72065e-20)
(-0.0159812 0.0168695 -6.35921e-21)
(-0.0232679 0.0276046 2.89065e-20)
(-0.00959028 0.0242654 -3.65523e-20)
(0.0256536 0.0119353 -1.15326e-20)
(0.0851172 -0.00545609 2.23646e-20)
(0.172334 -0.0252397 1.08042e-19)
(0.2906 -0.0445218 -2.15571e-20)
(0.43528 -0.0641243 1.07094e-20)
(0.611067 -0.0761251 -5.33825e-20)
(0.749692 -0.0568739 2.21463e-20)
(-0.0157819 0.0156915 -1.90143e-20)
(-0.0201551 0.025374 -1.47975e-20)
(0.000326788 0.0221034 3.60764e-21)
(0.0462997 0.0103108 1.4499e-20)
(0.120614 -0.00598736 -4.31966e-20)
(0.226544 -0.0237592 -1.75989e-20)
(0.365926 -0.0394439 -5.51335e-20)
(0.53062 -0.0546526 5.52373e-20)
(0.719993 -0.053051 5.62395e-20)
(0.840905 -0.0526672 -2.30413e-20)
(-0.0151551 0.0141522 -9.05183e-21)
(-0.0156205 0.0220697 3.68911e-20)
(0.0127994 0.0184248 -4.15418e-20)
(0.0709057 0.00709066 -4.8537e-21)
(0.161696 -0.00779043 -1.97238e-20)
(0.287775 -0.0228219 4.31522e-20)
(0.44827 -0.0339849 5.55035e-20)
(0.630608 -0.0431581 -5.21178e-20)
(0.822136 -0.0341136 5.31857e-20)
(0.953419 -0.042005 6.67565e-21)
(-0.0140788 0.012349 -2.61904e-20)
(-0.00947217 0.0179336 -7.47087e-20)
(0.0282513 0.0136092 7.31367e-20)
(0.100115 0.00280638 1.0605e-20)
(0.209076 -0.0101451 1.57172e-20)
(0.356344 -0.0215048 9.19073e-21)
(0.536749 -0.0272055 4.19294e-20)
(0.73176 -0.0295065 3.02423e-20)
(0.919531 -0.0165367 -1.0421e-19)
(1.05029 -0.0213355 -4.83605e-20)
(-0.0125085 0.0103604 -8.96845e-20)
(-0.001481 0.0132051 1.81146e-20)
(0.0471454 0.00807451 -4.12271e-20)
(0.134567 -0.00193113 8.10828e-21)
(0.263303 -0.0122342 1.31475e-20)
(0.432037 -0.0188569 -9.35591e-20)
(0.629553 -0.0183186 4.07456e-20)
(0.830619 -0.0138696 -2.70907e-20)
(1.00859 0.00179508 2.79771e-20)
(1.12708 -0.000434768 -9.28597e-21)
(-0.0103732 0.00824506 3.24095e-20)
(0.00861587 0.00811364 3.49305e-20)
(0.0699524 0.00225881 -1.90006e-21)
(0.174816 -0.0064653 -1.13583e-20)
(0.324604 -0.0132093 5.41595e-22)
(0.513929 -0.0140387 9.92546e-22)
(0.724039 -0.00688359 -6.20967e-20)
(0.923908 0.00349059 8.08493e-21)
(1.08645 0.0206061 7.35382e-20)
(1.18923 0.0203484 3.17793e-20)
(-0.00757437 0.00604617 -2.19182e-20)
(0.0211043 0.00287702 -1.63382e-20)
(0.0971098 -0.00339468 7.00539e-20)
(0.221238 -0.0101284 1.78314e-21)
(0.39273 -0.012268 -2.92763e-20)
(0.600331 -0.00645262 7.90677e-20)
(0.81714 0.00713832 1.70052e-20)
(1.00888 0.0221322 5.73604e-22)
(1.15226 0.039587 -3.24903e-20)
(1.23654 0.0402289 -4.0487e-20)
(-0.00399114 0.0037987 4.56497e-20)
(0.0362761 -0.00229362 -1.28194e-20)
(0.128979 -0.00844634 -7.60211e-21)
(0.273948 -0.0122736 -2.90655e-20)
(0.466868 -0.0087347 4.79847e-20)
(0.68893 0.0041771 -2.35926e-20)
(0.905878 0.0234601 -2.62052e-20)
(1.08376 0.0415682 -6.37716e-21)
(1.20594 0.0583441 -1.85084e-20)
(1.27186 0.0589118 1.92324e-20)
(0.000512151 0.00153813 -1.68458e-20)
(0.0544073 -0.00718504 -9.98454e-20)
(0.1658 -0.0124633 1.04554e-20)
(0.332726 -0.0123043 3.60073e-20)
(0.545639 -0.00213228 2.58927e-20)
(0.777101 0.017807 -8.57143e-20)
(0.987811 0.0416175 5.43806e-20)
(1.14776 0.0613465 -2.44996e-20)
(1.24835 0.076593 3.59299e-20)
(1.2971 0.0764245 9.56205e-21)
(0.00607591 -0.000690926 -1.83602e-20)
(0.0757354 -0.0115715 3.54923e-20)
(0.207655 -0.0150194 4.61795e-20)
(0.396986 -0.00970458 -3.32706e-20)
(0.62721 0.0077758 1.231e-20)
(0.862293 0.0341511 -7.52867e-20)
(1.06127 0.0611032 -1.4341e-20)
(1.20091 0.0811102 1.14556e-20)
(1.28079 0.0941808 -2.73694e-20)
(1.3144 0.0928351 -2.70454e-20)
(0.0128347 -0.00282783 -2.36246e-20)
(0.100437 -0.0152056 -7.89073e-21)
(0.254434 -0.0156959 -8.34985e-20)
(0.465776 -0.00406915 -1.30525e-20)
(0.709495 0.0209894 -1.44571e-21)
(0.942342 0.0527888 4.46793e-21)
(1.1254 0.0814545 7.86659e-21)
(1.24385 0.100612 -3.5971e-20)
(1.30471 0.111058 6.6589e-22)
(1.3255 0.108319 1.87678e-20)
(0.0209073 -0.00479169 -6.12138e-21)
(0.128604 -0.0178132 2.89791e-20)
(0.305818 -0.0140889 4.07699e-20)
(0.537825 0.00486986 2.54873e-20)
(0.790398 0.0373175 -7.60365e-21)
(1.01565 0.0732608 -6.18221e-21)
(1.17998 0.102293 6.11235e-20)
(1.27757 0.119704 7.87055e-21)
(1.32159 0.127259 2.67264e-20)
(1.33186 0.123046 -1.12463e-20)
(0.0303878 -0.00648014 5.85753e-20)
(0.160232 -0.0190944 3.80621e-20)
(0.361266 -0.00982477 -3.85394e-20)
(0.611643 0.0172295 -7.66831e-21)
(0.868026 0.0564454 3.93933e-21)
(1.08121 0.0951316 -1.44591e-20)
(1.22534 0.123335 -3.12406e-20)
(1.30322 0.138322 -5.23305e-21)
(1.33275 0.14286 4.1848e-22)
(1.33462 0.137193 1.22103e-20)
(0.0413383 -0.00777087 7.08905e-21)
(0.195198 -0.0187309 -2.07075e-20)
(0.420029 -0.00258335 4.89887e-20)
(0.685642 0.0329819 3.19065e-20)
(0.940832 0.0779983 8.75739e-22)
(1.13854 0.11802 2.25365e-20)
(1.26208 0.144379 3.35495e-21)
(1.32195 0.156462 -2.33587e-20)
(1.33934 0.157967 1.94243e-20)
(1.33466 0.150907 1.76353e-23)
(0.0537832 -0.00852534 -4.80413e-20)
(0.233258 -0.0163999 -1.41701e-20)
(0.481175 0.0078776 -1.2856e-20)
(0.758265 0.0519769 -2.23134e-20)
(1.00767 0.101588 5.15667e-21)
(1.18761 0.141609 1.13382e-22)
(1.29102 0.165296 1.70841e-20)
(1.33487 0.174155 -2.75829e-21)
(1.34228 0.172683 -2.00323e-20)
(1.33259 0.164309 -1.82916e-20)
(0.0677043 -0.00859405 3.88176e-21)
(0.27404 -0.0117919 2.28463e-20)
(0.543641 0.0217028 1.10353e-20)
(0.828097 0.0739737 -3.45469e-20)
(1.06779 0.12684 -1.76138e-21)
(1.22865 0.165644 -1.47471e-20)
(1.31302 0.186009 3.79947e-22)
(1.34293 0.191453 6.87957e-21)
(1.34232 0.187107 -7.49652e-21)
(1.32888 0.177486 2.07113e-20)
(0.0830376 -0.00782278 9.07257e-21)
(0.317053 -0.00463058 -2.22842e-20)
(0.606291 0.0389305 -5.26377e-20)
(0.893935 0.0986721 4.84698e-20)
(1.12078 0.15341 -3.61565e-21)
(1.26212 0.189924 1.06974e-20)
(1.32892 0.206478 -1.44295e-21)
(1.34696 0.208415 1.01115e-20)
(1.34003 0.201314 -7.8535e-22)
(1.32381 0.190495 -1.60302e-20)
(0.0996722 -0.00605948 -1.84394e-20)
(0.361698 0.00530775 2.89105e-20)
(0.667985 0.0594943 2.39291e-20)
(0.954821 0.125737 -3.44539e-20)
(1.16652 0.180984 -5.68043e-21)
(1.28857 0.21429 2.17963e-21)
(1.33952 0.226684 2.16024e-20)
(1.34762 0.225091 1.07168e-21)
(1.33581 0.215361 4.12102e-21)
(1.3176 0.203364 -8.87038e-21)
(0.11745 -0.00316141 1.39853e-20)
(0.407293 0.0181784 -1.25953e-20)
(0.727637 0.083234 -1.06922e-20)
(1.01005 0.154818 1.83529e-20)
(1.20506 0.20928 6.34349e-21)
(1.30858 0.238616 4.765e-21)
(1.34552 0.246618 -2.19756e-20)
(1.34545 0.241521 -7.45932e-21)
(1.32996 0.229279 -6.63576e-21)
(1.31035 0.216098 2.91925e-21)
(0.136168 0.00099761 -6.93234e-21)
(0.453095 0.0340567 -1.60273e-22)
(0.784259 0.10991 2.0226e-20)
(1.05913 0.185558 -7.42857e-21)
(1.23664 0.238046 -3.26204e-21)
(1.32276 0.262796 -2.14796e-21)
(1.34751 0.266271 5.30105e-21)
(1.34087 0.257725 9.10828e-21)
(1.32268 0.243076 -2.88107e-22)
(1.30215 0.228683 3.26789e-21)
(0.155585 0.0065204 4.88041e-21)
(0.498336 0.0529332 -1.36902e-21)
(0.837 0.139221 -3.61371e-21)
(1.10179 0.217603 -3.27086e-21)
(1.26156 0.267051 2.94133e-21)
(1.33166 0.286739 2.28474e-21)
(1.346 0.285628 -2.10354e-21)
(1.33418 0.273707 7.56794e-22)
(1.31412 0.256736 1.05588e-21)
(1.29304 0.241083 -1.39132e-21)
(0.175424 0.0134804 2.60236e-21)
(0.542252 0.0747128 7.43953e-22)
(0.885154 0.170816 -4.45112e-21)
(1.13789 0.250606 -3.54731e-21)
(1.28018 0.296081 3.69278e-21)
(1.3358 0.310356 7.20748e-22)
(1.34141 0.304661 -1.67036e-21)
(1.32562 0.289448 1.56698e-21)
(1.30435 0.270223 8.68218e-22)
(1.28304 0.253254 -9.88578e-22)
(0.195383 0.0219167 -1.02281e-21)
(0.584109 0.0992196 2.07422e-21)
(0.928167 0.204311 1.36751e-20)
(1.16745 0.284225 -6.05811e-21)
(1.29288 0.324935 -2.97792e-21)
(1.33564 0.33356 -3.34031e-21)
(1.33407 0.323328 6.8221e-21)
(1.31536 0.304908 4.54571e-21)
(1.29343 0.283481 3.6138e-21)
(1.27218 0.26514 1.94787e-21)
(0.215145 0.0318309 2.07498e-20)
(0.623231 0.126204 -1.14148e-20)
(0.965627 0.239299 -1.30289e-20)
(1.19054 0.318128 1.76499e-20)
(1.30006 0.353422 9.25351e-21)
(1.33158 0.356257 -6.14014e-22)
(1.32424 0.341574 -1.13518e-20)
(1.30351 0.320029 -8.17172e-21)
(1.2814 0.296434 -8.4469e-21)
(1.26047 0.276674 4.98577e-21)
(0.234384 0.0431856 -2.8035e-20)
(0.659012 0.155355 2.63437e-20)
(0.997258 0.275358 3.0235e-20)
(1.20736 0.351991 -2.97746e-20)
(1.30211 0.381356 -1.03042e-20)
(1.32397 0.37835 6.57479e-21)
(1.31215 0.359326 1.19278e-20)
(1.29016 0.334737 1.8602e-21)
(1.26827 0.308992 -3.12932e-22)
(1.24789 0.287779 -6.77137e-21)
(0.252778 0.055904 -3.99217e-21)
(0.690937 0.186305 -3.69463e-20)
(1.0229 0.312056 -3.95294e-20)
(1.21812 0.385501 4.42286e-20)
(1.29937 0.408552 -5.00931e-21)
(1.31312 0.399729 9.14091e-21)
(1.29795 0.376502 1.78685e-21)
(1.27536 0.348951 -5.06634e-21)
(1.25401 0.321069 2.71503e-21)
(1.23431 0.298372 -3.54382e-22)
(0.270014 0.069872 8.12722e-21)
(0.71858 0.218649 2.28165e-20)
(1.0425 0.348964 1.29533e-20)
(1.22308 0.418355 -1.01974e-20)
(1.29221 0.434828 -1.57097e-20)
(1.2993 0.420279 -1.46425e-20)
(1.28181 0.393008 -2.94475e-21)
(1.25919 0.362592 7.76175e-21)
(1.23864 0.332619 -1.6376e-21)
(1.21959 0.308405 3.74851e-21)
(0.285801 0.0849413 -3.05577e-20)
(0.741618 0.251951 -2.85493e-20)
(1.05608 0.38565 -4.47782e-21)
(1.22254 0.450256 -5.08128e-21)
(1.28096 0.460002 -1.15022e-20)
(1.28274 0.439875 7.04152e-21)
(1.26381 0.408736 -1.28198e-21)
(1.24167 0.375562 -6.81577e-21)
(1.22221 0.343639 6.16683e-21)
(1.20379 0.317858 -8.82573e-21)
(0.299875 0.100932 7.38571e-21)
(0.759826 0.285757 2.41541e-20)
(1.06375 0.421697 2.09135e-20)
(1.21679 0.480921 2.27118e-20)
(1.26591 0.483892 5.08285e-22)
(1.26363 0.458388 1.97384e-20)
(1.24406 0.423564 1.26744e-21)
(1.22286 0.387728 -2.31079e-20)
(1.20474 0.354051 1.64903e-20)
(1.18729 0.326564 6.07677e-21)
(0.312006 0.117638 1.97343e-20)
(0.773068 0.31961 4.39451e-20)
(1.06568 0.456698 -5.85203e-21)
(1.20616 0.510076 -2.85166e-20)
(1.24737 0.506325 1.28713e-20)
(1.24215 0.475685 -1.33646e-20)
(1.22267 0.437369 -1.77125e-20)
(1.2029 0.39899 -1.46294e-21)
(1.18619 0.363637 -1.36149e-20)
(1.17014 0.334562 5.25541e-21)
(0.322004 0.134831 9.17909e-21)
(0.781294 0.353052 6.67369e-21)
(1.06208 0.49026 5.44809e-20)
(1.19098 0.537463 1.01883e-20)
(1.22561 0.527129 -8.84977e-21)
(1.2185 0.491623 -4.56889e-21)
(1.19984 0.450012 2.69816e-20)
(1.18177 0.409256 2.21409e-20)
(1.16659 0.372315 1.09854e-20)
(1.15228 0.34167 -1.47366e-21)
(0.329719 0.15227 1.91296e-21)
(0.784528 0.385639 -4.4769e-20)
(1.05321 0.522009 -6.39294e-20)
(1.17159 0.562833 1.94576e-21)
(1.2009 0.546138 1.2556e-20)
(1.19292 0.506046 -1.72933e-20)
(1.17563 0.461373 -3.93395e-20)
(1.15948 0.418421 -1.16969e-20)
(1.14607 0.379967 -7.02655e-22)
(1.13369 0.347819 5.49698e-21)
(0.335045 0.169705 -1.58521e-20)
(0.78287 0.416941 3.98134e-20)
(1.03941 0.551599 3.82944e-20)
(1.14833 0.585946 -3.51981e-20)
(1.17351 0.563165 5.39403e-21)
(1.16555 0.518827 4.14992e-20)
(1.15007 0.471326 -9.10975e-21)
(1.13615 0.426372 7.73819e-21)
(1.12469 0.386505 -3.6793e-21)
(1.11443 0.352925 -4.91227e-21)
(0.337919 0.186884 -3.5467e-20)
(0.776506 0.446548 -6.28567e-20)
(1.02108 0.578739 -1.23231e-20)
(1.12144 0.606554 2.01756e-20)
(1.1437 0.578042 1.97021e-20)
(1.13653 0.529806 -4.12147e-20)
(1.12334 0.479758 2.24423e-20)
(1.11186 0.433003 -1.16702e-20)
(1.10253 0.391836 9.37084e-21)
(1.09456 0.356928 3.13954e-22)
(0.338331 0.203548 2.70744e-20)
(0.765711 0.474055 2.0005e-21)
(0.998551 0.603195 -6.00457e-21)
(1.09118 0.624445 -2.47789e-20)
(1.11172 0.590572 1.59203e-20)
(1.10607 0.538852 3.54913e-21)
(1.09553 0.48655 -1.26661e-20)
(1.08673 0.438214 2.29131e-21)
(1.07965 0.395865 -2.45679e-21)
(1.07417 0.359753 1.20805e-21)
(0.336335 0.219445 -7.32187e-21)
(0.750813 0.499107 -1.01208e-20)
(0.971846 0.624551 2.6082e-20)
(1.05809 0.639578 1.21438e-20)
(1.07791 0.600586 -1.66189e-20)
(1.07434 0.54583 2.31455e-20)
(1.06681 0.491592 1.7698e-21)
(1.06085 0.44191 2.09315e-21)
(1.05616 0.398498 3.03485e-22)
(1.05335 0.361312 1.64317e-22)
(0.332017 0.234312 4.73211e-20)
(0.732044 0.521591 3.65784e-20)
(0.941223 0.642437 -2.71322e-21)
(1.02263 0.65162 -5.58935e-21)
(1.04251 0.608051 -6.72309e-21)
(1.04154 0.550643 -3.31766e-21)
(1.03731 0.494786 1.97181e-21)
(1.03435 0.444012 1.63179e-21)
(1.03215 0.399643 1.48072e-22)
(1.03216 0.36151 -2.65861e-21)
(0.325448 0.247802 3.62172e-21)
(0.709509 0.541125 6.15484e-21)
(0.907591 0.657023 -3.34256e-20)
(0.98511 0.660342 1.47951e-20)
(1.00576 0.612821 3.79366e-21)
(1.00786 0.553189 -8.57879e-21)
(1.00718 0.496043 3.06064e-21)
(1.00733 0.444446 1.14056e-21)
(1.00774 0.399235 -3.2752e-21)
(1.01083 0.360298 3.56267e-21)
(0.316646 0.25969 -1.79473e-20)
(0.683448 0.557159 -1.28569e-20)
(0.871406 0.668012 1.05025e-20)
(0.945825 0.66575 2.62198e-21)
(0.967935 0.614798 -5.86892e-21)
(0.973494 0.553378 5.24703e-21)
(0.976548 0.495277 2.05083e-21)
(0.979897 0.443127 -6.86423e-21)
(0.983188 0.397211 1.881e-20)
(0.99003 0.357716 7.81124e-21)
(0.305836 0.269815 -1.35917e-20)
(0.654472 0.56956 3.32324e-20)
(0.832968 0.67518 -2.10335e-20)
(0.905113 0.667752 -3.19126e-21)
(0.929286 0.6139 -3.50358e-21)
(0.938627 0.551133 -2.20458e-22)
(0.945539 0.492406 -6.81371e-21)
(0.952171 0.439923 3.63352e-21)
(0.958919 0.393379 -2.54684e-22)
(0.970485 0.353815 -3.3564e-21)
(0.293237 0.278083 -1.21539e-21)
(0.623006 0.578185 -9.89819e-21)
(0.792681 0.678364 5.14999e-21)
(0.863322 0.666272 -2.67943e-21)
(0.890079 0.61007 4.21454e-21)
(0.903443 0.546407 4.48394e-21)
(0.914273 0.487388 1.35147e-20)
(0.924344 0.43473 -1.04356e-20)
(0.935286 0.387352 -1.99408e-20)
(0.951483 0.347922 8.8103e-21)
(0.279016 0.284316 -3.81386e-22)
(0.589486 0.582904 -2.20002e-21)
(0.750969 0.677475 9.72283e-22)
(0.820802 0.661251 5.54842e-21)
(0.850579 0.603269 -1.05509e-20)
(0.868141 0.539174 -1.80799e-20)
(0.882939 0.480226 -5.28773e-21)
(0.896687 0.427678 -1.66109e-21)
(0.912263 0.379319 2.73995e-20)
(0.930104 0.336181 -5.73317e-21)
(0.263398 0.288377 -2.8336e-23)
(0.554344 0.583613 -4.31081e-21)
(0.708258 0.672465 6.59473e-22)
(0.777901 0.652659 8.95032e-22)
(0.811054 0.593476 -8.14789e-21)
(0.83294 0.529411 3.49879e-20)
(0.851799 0.470895 -2.46684e-20)
(0.869419 0.418866 2.94798e-20)
(0.888735 0.371257 -2.06628e-20)
(0.906293 0.329601 -2.74861e-20)
(0.246626 0.290161 -8.27204e-22)
(0.518008 0.580244 -1.14367e-21)
(0.664971 0.663321 5.4349e-22)
(0.734964 0.640492 1.28438e-20)
(0.771768 0.580685 -5.48661e-21)
(0.798066 0.517103 8.28258e-21)
(0.821062 0.459342 1.44172e-20)
(0.842574 0.408004 -7.60079e-21)
(0.865137 0.360955 -2.01186e-20)
(0.883721 0.319594 2.77167e-20)
(0.228955 0.289594 1.05734e-20)
(0.480906 0.572766 1.39089e-20)
(0.621524 0.65006 -1.34605e-20)
(0.692328 0.624773 -1.18059e-20)
(0.732987 0.564915 4.19145e-20)
(0.763738 0.502266 -4.24625e-20)
(0.790876 0.44562 5.09748e-20)
(0.816165 0.39533 -1.27168e-20)
(0.84168 0.349395 1.36384e-20)
(0.861969 0.309223 2.55176e-20)
(0.210642 0.286628 -3.86001e-21)
(0.443464 0.561187 -1.37001e-20)
(0.578323 0.632728 -8.40419e-21)
(0.650326 0.605551 -4.56045e-21)
(0.694976 0.546203 5.30119e-21)
(0.730176 0.484926 -1.12312e-20)
(0.761414 0.429737 -1.5234e-20)
(0.790354 0.380778 -3.32768e-20)
(0.818703 0.336206 3.30166e-20)
(0.8411 0.297428 -1.05985e-20)
(0.191949 0.281246 2.59821e-20)
(0.406101 0.545552 -3.16758e-21)
(0.535763 0.611403 -1.17632e-20)
(0.609279 0.582897 1.50651e-20)
(0.65799 0.524607 -2.68378e-20)
(0.69759 0.465131 7.18254e-20)
(0.732843 0.411746 -3.82339e-20)
(0.765308 0.364433 3.45751e-20)
(0.796424 0.321531 -6.33938e-20)
(0.821138 0.284336 -1.68056e-20)
(0.173135 0.273457 -8.18589e-21)
(0.369224 0.525941 2.75163e-20)
(0.494225 0.586193 6.45081e-21)
(0.569498 0.55691 -1.39609e-20)
(0.622281 0.500206 -2.40619e-20)
(0.666187 0.442946 -8.02718e-22)
(0.705335 0.391698 1.2749e-20)
(0.74119 0.346329 -3.1198e-20)
(0.775 0.305353 1.52988e-20)
(0.802123 0.269888 2.02453e-21)
(0.154458 0.263298 -4.5234e-20)
(0.33323 0.50247 -1.11109e-20)
(0.454077 0.557231 -3.07344e-21)
(0.531282 0.527709 3.61514e-20)
(0.588089 0.473099 -3.35547e-20)
(0.636165 0.418453 -8.67519e-21)
(0.67906 0.369668 -5.28522e-21)
(0.718159 0.32653 9.74126e-21)
(0.75457 0.287714 -1.23147e-20)
(0.784125 0.254123 -1.91732e-20)
(0.136167 0.25083 4.0012e-20)
(0.298497 0.475287 -2.2708e-20)
(0.415666 0.52468 1.10548e-21)
(0.494915 0.495435 -5.48728e-20)
(0.555645 0.443404 5.94022e-20)
(0.607716 0.39175 -1.87403e-20)
(0.654182 0.345739 1.12167e-20)
(0.696362 0.305103 9.71427e-21)
(0.735256 0.268661 2.81582e-20)
(0.767215 0.237089 -1.15696e-20)
(0.118503 0.236143 -1.62897e-20)
(0.265385 0.444571 4.71176e-20)
(0.379323 0.488728 2.65113e-20)
(0.460668 0.460254 4.3282e-20)
(0.525168 0.411255 -9.9882e-21)
(0.581025 0.362953 4.03585e-21)
(0.63086 0.32001 3.22917e-20)
(0.675936 0.282129 7.19077e-21)
(0.717175 0.24826 6.93906e-22)
(0.751471 0.218857 -1.38209e-20)
(0.101695 0.219346 -3.74165e-20)
(0.234231 0.410531 -2.75447e-21)
(0.345356 0.449589 -1.55447e-20)
(0.428792 0.422349 -6.96266e-20)
(0.496863 0.376808 -6.71504e-20)
(0.556265 0.332192 1.1212e-20)
(0.609241 0.292593 -2.75132e-20)
(0.657009 0.257704 1.75258e-20)
(0.700434 0.22659 9.51059e-21)
(0.736966 0.199507 1.98628e-20)
(0.0859611 0.200574 5.48743e-20)
(0.205351 0.373401 -4.48591e-20)
(0.31405 0.407497 -2.27266e-20)
(0.399521 0.381922 4.02644e-20)
(0.470924 0.340231 4.56878e-20)
(0.533597 0.29961 -1.5114e-20)
(0.589464 0.263612 -1.94639e-21)
(0.639703 0.231931 -5.45645e-20)
(0.685138 0.203741 -3.08287e-20)
(0.723773 0.179129 1.17382e-20)
(0.0714994 0.179979 -3.12039e-20)
(0.179032 0.333443 1.31469e-20)
(0.285668 0.362709 4.8216e-20)
(0.373068 0.339194 -2.15582e-20)
(0.447525 0.301711 1.68213e-21)
(0.513169 0.265366 6.08774e-20)
(0.571657 0.233202 2.8092e-21)
(0.624128 0.204927 5.22428e-20)
(0.671381 0.179814 2.17597e-20)
(0.711959 0.157822 -3.45701e-20)
(0.0584929 0.157735 4.31193e-20)
(0.155536 0.290938 4.75266e-21)
(0.260444 0.315501 3.12112e-21)
(0.349629 0.294402 4.39115e-20)
(0.426826 0.261446 -5.86702e-21)
(0.495118 0.229631 -3.81921e-20)
(0.555935 0.201511 1.86737e-20)
(0.610383 0.176816 -2.98262e-20)
(0.659251 0.15492 -1.24671e-20)
(0.701585 0.135688 1.25738e-20)
(0.0471045 0.134029 -2.68982e-20)
(0.135094 0.246191 -5.15883e-20)
(0.238589 0.266165 1.18888e-20)
(0.329374 0.247796 -2.32693e-20)
(0.408969 0.219648 -1.40553e-20)
(0.479563 0.192585 3.39883e-20)
(0.542401 0.168694 -8.22265e-21)
(0.598561 0.147735 7.59152e-21)
(0.648827 0.129178 -9.21897e-21)
(0.692706 0.112835 1.82833e-20)
(0.0374765 0.109066 9.70452e-21)
(0.117907 0.199522 3.47084e-20)
(0.220282 0.21501 -4.81384e-20)
(0.312453 0.19964 2.27447e-20)
(0.394078 0.17654 -1.03541e-20)
(0.46661 0.154419 -2.91032e-20)
(0.531145 0.134915 2.3727e-20)
(0.588739 0.117824 4.97473e-21)
(0.640177 0.102713 -7.693e-22)
(0.685371 0.0893752 -2.12512e-20)
(0.0297289 0.0830611 3.16587e-21)
(0.104144 0.151265 1.11486e-20)
(0.205677 0.162354 4.35141e-20)
(0.29899 0.150207 -8.32806e-21)
(0.382256 0.132354 -6.5587e-21)
(0.456346 0.115331 2.43103e-21)
(0.522243 0.100346 1.05775e-21)
(0.580986 0.0872334 8.84786e-21)
(0.633364 0.0756578 -1.1613e-20)
(0.679621 0.065428 -7.38365e-21)
(0.023959 0.0562409 -7.92732e-21)
(0.0939418 0.10177 -1.35721e-20)
(0.194896 0.108531 -3.37749e-20)
(0.289087 0.0997812 1.69846e-20)
(0.373586 0.0873299 1.38497e-20)
(0.448842 0.0755293 5.8784e-22)
(0.515757 0.0651649 -2.31117e-20)
(0.575355 0.056115 -1.02475e-20)
(0.628434 0.0481436 8.1292e-21)
(0.67549 0.041093 8.68986e-21)
(0.0202398 0.02884 1.37285e-21)
(0.0874026 0.0513939 -2.82991e-21)
(0.18803 0.0538779 6.41873e-21)
(0.282819 0.0486521 -4.34538e-21)
(0.368133 0.0417138 -3.8155e-21)
(0.444152 0.0352232 -2.58829e-21)
(0.511731 0.0295532 4.75085e-21)
(0.571887 0.0246258 1.80884e-20)
(0.625418 0.0202999 2.62216e-21)
(0.672986 0.0164427 -4.64419e-21)
(0.0186201 0.00109839 1.69875e-21)
(0.0845945 0.000501314 -4.67139e-21)
(0.185143 -0.00125882 -5.29182e-21)
(0.280237 -0.00288518 -3.67063e-21)
(0.365937 -0.00424393 3.49325e-21)
(0.442312 -0.00537129 1.57546e-21)
(0.510197 -0.00630142 -1.56955e-21)
(0.570605 -0.00706592 -7.14259e-21)
(0.624319 -0.00770191 2.35045e-21)
(0.672054 -0.00825813 -2.19758e-21)
(0.0191235 -0.0267401 -1.68801e-21)
(0.0855512 -0.050539 4.64357e-21)
(0.186262 -0.0565308 5.26542e-21)
(0.281366 -0.0545326 -5.0402e-21)
(0.36702 -0.0502902 4.43586e-21)
(0.44334 -0.0460372 2.22061e-21)
(0.511173 -0.0422126 -3.54477e-21)
(0.571533 -0.0388006 -4.11686e-21)
(0.625213 -0.0357304 6.06511e-22)
(0.672917 -0.0329355 -1.71272e-21)
(0.0217487 -0.0544309 1.85159e-21)
(0.0902711 -0.101357 -5.53212e-21)
(0.191388 -0.111588 1.23536e-20)
(0.286204 -0.105991 -1.08496e-20)
(0.37138 -0.0961714 -5.18e-22)
(0.447235 -0.0865572 -7.22513e-21)
(0.514654 -0.0779946 1.17357e-20)
(0.574664 -0.0704227 1.59524e-20)
(0.62806 -0.0636709 2.84671e-21)
(0.675433 -0.0576087 -6.13072e-21)
(0.0264692 -0.0817303 -1.5726e-21)
(0.098718 -0.151584 -1.16271e-20)
(0.200488 -0.166082 -2.70864e-20)
(0.294725 -0.156963 2.34543e-20)
(0.378995 -0.141635 4.82449e-21)
(0.453976 -0.126714 4.27913e-21)
(0.520625 -0.113459 -2.10639e-20)
(0.579981 -0.101765 -1.24345e-20)
(0.632841 -0.0913616 -2.77344e-21)
(0.679587 -0.0820709 1.89298e-20)
(0.0332333 -0.108399 -5.53624e-21)
(0.110821 -0.200856 7.00889e-21)
(0.213497 -0.219668 4.89341e-20)
(0.306877 -0.207154 -4.41322e-21)
(0.389821 -0.186429 -1.25937e-20)
(0.463528 -0.166292 9.02274e-21)
(0.529053 -0.148421 6.55385e-22)
(0.587456 -0.132667 3.17725e-21)
(0.639534 -0.118659 -6.9726e-21)
(0.685373 -0.106191 -1.84189e-20)
(0.0419652 -0.134202 -3.71977e-21)
(0.126474 -0.248815 2.02818e-20)
(0.230323 -0.272007 -4.91307e-20)
(0.322581 -0.256273 2.12543e-20)
(0.403794 -0.23031 2.07911e-22)
(0.475833 -0.205082 -2.70127e-20)
(0.53989 -0.182699 1.19608e-20)
(0.597048 -0.16297 -1.12646e-21)
(0.648104 -0.145428 4.53845e-21)
(0.69277 -0.129864 -1.33658e-21)
(0.0525649 -0.158914 -4.25179e-20)
(0.145539 -0.295114 -5.09286e-20)
(0.250839 -0.322768 1.34177e-20)
(0.341734 -0.304039 -2.43565e-20)
(0.420828 -0.273038 -6.85004e-21)
(0.49082 -0.242877 1.03012e-20)
(0.553073 -0.216114 3.81019e-21)
(0.608699 -0.192522 1.41289e-20)
(0.658498 -0.171535 -3.0413e-21)
(0.701744 -0.152974 1.64434e-20)
(0.0649094 -0.18232 4.06412e-20)
(0.167844 -0.339419 2.61677e-20)
(0.274892 -0.371631 -1.97088e-20)
(0.36421 -0.350177 3.32464e-20)
(0.440816 -0.314379 -2.79259e-21)
(0.508399 -0.279478 -3.60619e-20)
(0.568525 -0.248496 6.31961e-21)
(0.622341 -0.221175 -3.84179e-20)
(0.670657 -0.196848 1.51044e-21)
(0.712254 -0.175406 1.39286e-20)
(0.0788538 -0.204217 -2.98687e-20)
(0.193184 -0.381409 5.36235e-20)
(0.302298 -0.41829 2.10889e-20)
(0.389857 -0.394425 -2.62859e-20)
(0.463635 -0.354114 3.06059e-22)
(0.528462 -0.314696 6.63464e-20)
(0.586154 -0.279681 2.97382e-21)
(0.637893 -0.248786 2.94417e-20)
(0.68451 -0.221243 3.58664e-20)
(0.724251 -0.197048 -2.01099e-20)
(0.0942322 -0.224417 1.6724e-20)
(0.221326 -0.420781 -8.04438e-21)