/*--------------------------------*- C++ -*----------------------------------*\
  =========                 |
  \\      /  F ield         | OpenFOAM: The Open Source CFD Toolbox
   \\    /   O peration     | Website:  https://openfoam.org
    \\  /    A nd           | Version:  7
     \\/     M anipulation  |
\*---------------------------------------------------------------------------*/
FoamFile
{
    version     2.0;
    format      ascii;
    class       surfaceScalarField;
    location    "185";
    object      phi;
}
// * * * * * * * * * * * * * * * * * * * * * * * * * * * * * * * * * * * * * //

dimensions      [0 3 -1 0 0 0 0];

internalField   nonuniform List<scalar> 
4137
(
0.000898951
5.89485e-05
0.000840003
0.000820119
9.36217e-05
0.000746381
0.000332384
0.000130295
0.000616086
0.000734991
-0.000272311
-0.00348118
0.000169177
0.000446909
0.000896836
-0.00099997
0.0024707
-0.00505504
-0.0121447
0.000210582
0.000236326
0.00106628
-0.00185566
0.00285475
-0.00684352
0.00579488
-0.0150848
0.00980667
-0.026323
-0.0392617
0.000254725
-1.83986e-05
0.0012421
-0.00284304
0.00323885
-0.00884026
0.00638983
-0.0182358
0.0104603
-0.0303934
0.0148175
-0.0436189
-0.0560637
0.000301567
-0.000319966
0.00142217
-0.00396364
0.00361346
-0.0110316
0.00692127
-0.0215436
0.0109571
-0.0344292
0.0150286
-0.0476904
0.0185685
-0.0596035
-0.069507
0.000350782
-0.000670748
0.00160327
-0.00521614
0.00396739
-0.0133957
0.00736923
-0.0249454
0.0112853
-0.0383453
0.0150181
-0.0514233
0.0181109
-0.0626963
0.0204599
-0.071856
0.0222183
-0.0793825
-0.0861527
0.000401697
-0.00107244
0.00178126
-0.0065957
0.00428868
-0.0159031
0.00771792
-0.0283747
0.0114433
-0.0420707
0.0148076
-0.0547876
0.0174719
-0.0653606
0.0194329
-0.0738171
0.0208853
-0.0808349
-0.0872923
0.0220249
0.000453369
-0.00152581
0.00195128
-0.00809361
0.00456585
-0.0185177
0.00795714
-0.031766
0.0114377
-0.0455513
0.0144226
-0.0577724
0.0166866
-0.0676246
0.0183053
-0.0754357
0.0194944
-0.082024
-0.088234
0.0204361
0.000504654
-0.00203047
0.00210818
-0.00969714
0.004789
-0.0211985
0.00808269
-0.0350596
0.0112809
-0.0487495
0.0138897
-0.0603812
0.0157867
-0.0695216
0.0171048
-0.0767538
0.0180655
-0.0829847
-0.0889995
0.0188309
0.000554275
-0.00258474
0.00224689
-0.0113897
0.00495071
-0.0239023
0.00809583
-0.0382048
0.0109891
-0.0516428
0.0132351
-0.0626272
0.0147992
-0.0710857
0.0158534
-0.077808
0.016613
-0.0837444
-0.0896043
0.0172178
0.000600905
-0.00318565
0.00236275
-0.0131516
0.00504645
-0.026586
0.00800221
-0.0411605
0.0105802
-0.0542208
0.0124828
-0.0645298
0.0137471
-0.07235
0.0145684
-0.0786293
0.015148
-0.0843239
-0.0900591
0.0156028
0.000643229
-0.00382888
0.00245189
-0.0149603
0.00507471
-0.0292088
0.00781056
-0.0438964
0.0100723
-0.0564825
0.0116542
-0.0661117
0.0126494
-0.0733452
0.0132633
-0.0792432
0.0136784
-0.084739
-0.0903711
0.0139904
0.000680015
-0.00450889
0.00251143
-0.0167917
0.00503667
-0.0317341
0.00753151
-0.0463912
0.00948313
-0.0584341
0.0107681
-0.0673967
0.0115212
-0.0740983
0.0119483
-0.0796703
0.0122104
-0.085001
-0.0905451
0.0123844
0.000710166
-0.00521906
0.0025396
-0.0186211
0.00493571
-0.0341302
0.00717659
-0.0486321
0.00882879
-0.0600863
0.00984039
-0.0684083
0.0103749
-0.0746329
0.0106312
-0.0799265
0.0107485
-0.0851183
-0.0905846
0.0107879
0.000732766
-0.00595182
0.00253576
-0.0204241
0.0047768
-0.0363712
0.00675747
-0.0506128
0.0081239
-0.0614528
0.00888429
-0.0691687
0.00922008
-0.0749687
0.00931794
-0.0800244
0.0092962
-0.0850966
-0.0904915
0.00920315
0.000747108
-0.00669893
0.0025003
-0.0221773
0.00456597
-0.0384369
0.00628543
-0.0523323
0.00738128
-0.0625486
0.00791077
-0.0696981
0.00806429
-0.0751222
0.00801317
-0.0799733
0.00785634
-0.0849398
-0.0902668
0.00763162
0.000752711
-0.00745164
0.00243454
-0.0238591
0.00430975
-0.0403121
0.00577098
-0.0537935
0.006612
-0.0633896
0.00692877
-0.0700149
0.00691345
-0.0751069
0.00672032
-0.0797801
0.00643107
-0.0846505
-0.0899104
0.00607464
0.000749325
-0.00820097
0.0023405
-0.0254503
0.00401484
-0.0419864
0.00522371
-0.0550024
0.00582549
-0.0639914
0.00594554
-0.070135
0.00577219
-0.0749335
0.00544203
-0.07945
0.0050221
-0.0842306
-0.0894214
0.00453316
0.000736917
-0.00893788
0.00222067
-0.0269341
0.00368778
-0.0434535
0.00465218
-0.0559668
0.00502971
-0.0643689
0.004967
-0.0700723
0.00464436
-0.0746109
0.0041807
-0.0789863
0.00363037
-0.0836803
-0.0887993
0.00300821
0.000715663
-0.00965355
0.00207788
-0.0282963
0.00333476
-0.0447104
0.00406386
-0.0566959
0.00423127
-0.0645363
0.0039979
-0.0698389
0.00353338
-0.0741464
0.00293948
-0.0783924
0.00225565
-0.0829964
-0.0880421
0.0014985
0.000685949
-0.0103395
0.00191526
-0.0295256
0.00296155
-0.0457567
0.00346526
-0.0571996
0.0034356
-0.0645067
0.00304197
-0.0694453
0.0024418
-0.0735462
0.0017219
-0.0776725
0.000905143
-0.0821797
-0.087091
-4.60022e-05
0.000648344
-0.0109878
0.00173609
-0.0306133
0.00257342
-0.046594
0.00286195
-0.0574881
0.00264716
-0.0642919
0.00210212
-0.0689002
0.00137103
-0.0728151
0.00052394
-0.0768254
-0.00040655
-0.0812492
-0.0860553
-0.0014422
0.000603541
-0.0115914
0.00154336
-0.0315531
0.0021751
-0.0472258
0.00225868
-0.0575717
0.00186958
-0.0639028
0.00118072
-0.0682114
0.000320349
-0.0719547
-0.000645662
-0.0758594
-0.00171273
-0.0801821
-0.0849083
-0.00285975
0.00055234
-0.0121437
0.00133994
-0.0323407
0.00177082
-0.0476567
0.0016594
-0.0574603
0.00110568
-0.0633491
0.000278749
-0.0673844
-0.00070082
-0.0709751
-0.00178768
-0.0747725
-0.00298066
-0.0789891
-0.0836329
-0.00425608
0.000495627
-0.0126393
0.00112861
-0.0329737
0.0013643
-0.0478923
0.00106733
-0.0571633
0.000358186
-0.0626399
-0.000598276
-0.066428
-0.0016974
-0.069876
-0.00290481
-0.0735651
-0.00421934
-0.0776746
-0.082229
-0.0056232
0.000434321
-0.0130737
0.00091209
-0.0334515
0.000958759
-0.047939
0.000485708
-0.0566903
-0.000370896
-0.0617833
-0.00145255
-0.0653463
-0.00266907
-0.0686595
-0.00399374
-0.0722405
-0.0054289
-0.0762395
-0.0806988
-0.0069591
0.000369286
-0.013443
0.000692966
-0.0337752
0.000557355
-0.0478034
-8.00504e-05
-0.0560528
-0.00107987
-0.0607835
-0.00228359
-0.0641426
-0.00361415
-0.0673289
-0.00505347
-0.0708011
-0.00660789
-0.074685
-0.0790449
-0.00826185
0.0003015
-0.0137445
0.000473184
-0.0339469
0.000168155
-0.0474984
-0.000639218
-0.0552455
-0.00176984
-0.0596529
-0.00309014
-0.0628223
-0.0045318
-0.0658873
-0.00608334
-0.0692496
-0.00775507
-0.0730133
-0.0772709
-0.00952901
0.000232651
-0.0139771
0.000254677
-0.0339689
-0.000225961
-0.0470177
-0.00117999
-0.0542914
-0.0024385
-0.0583944
-0.0038715
-0.0613893
-0.00542141
-0.0643374
-0.00708279
-0.0675882
-0.00886918
-0.0712269
-0.0753832
-0.0107569
0.000162773
-0.0141399
5.15854e-05
-0.0338577
-0.000612576
-0.0463536
-0.00170651
-0.0531975
-0.00308527
-0.0570156
-0.00462706
-0.0598475
-0.00628243
-0.062682
-0.00805115
-0.0658195
-0.00994903
-0.069329
-0.0733865
-0.0119458
8.84614e-05
-0.0142283
-0.000179881
-0.0335894
-0.000985761
-0.0455477
-0.00221559
-0.0519677
-0.00370957
-0.0555216
-0.0053564
-0.0582007
-0.00711456
-0.0609239
-0.00898796
-0.0639461
-0.0109947
-0.0673223
-0.071277
-0.0131042
6.58483e-06
-0.0142349
-0.000402805
-0.03318
-0.00134833
-0.0446022
-0.00270603
-0.05061
-0.00431058
-0.0539171
-0.00605922
-0.056452
-0.00791824
-0.0590648
-0.0098944
-0.0619699
-0.0120056
-0.0652111
-0.0690523
-0.0142302
-6.31655e-05
-0.0141718
-0.000614255
-0.0326289
-0.00169855
-0.0435179
-0.00317747
-0.0491311
-0.00488764
-0.0522069
-0.00673506
-0.0546046
-0.00869413
-0.0571058
-0.0107738
-0.0598903
-0.0129771
-0.0630078
-0.0667282
-0.0153013
-0.000135831
-0.0140359
-0.000817889
-0.0319468
-0.00203536
-0.0423004
-0.00362936
-0.0475371
-0.00544017
-0.0503961
-0.00738301
-0.0526618
-0.00944025
-0.0550485
-0.0116243
-0.0577062
-0.0139451
-0.0606869
-0.0644486
-0.0162247
-0.000207804
-0.0138281
-0.00101441
-0.0311402
-0.00235813
-0.0409567
-0.00406119
-0.045834
-0.0059678
-0.0484895
-0.0080022
-0.0506274
-0.010152
-0.0528987
-0.0124172
-0.055441
-0.0147595
-0.0583447
-0.0616715
-0.0175366
-0.000278062
-0.0135501
-0.00120357
-0.0302147
-0.00266647
-0.0394938
-0.0044726
-0.0440279
-0.00647039
-0.0464917
-0.0085921
-0.0485057
-0.0108264
-0.0506644
-0.0131687
-0.0530987
-0.0156363
-0.055877
-0.058908
-0.0183998
-0.000346168
-0.0132039
-0.00138491
-0.029176
-0.00296003
-0.0379187
-0.00486333
-0.0421246
-0.00694767
-0.0444074
-0.00915256
-0.0463008
-0.0114694
-0.0483476
-0.0139026
-0.0506655
-0.0164862
-0.0532934
-0.0561185
-0.0192757
-0.000411818
-0.0127921
-0.00155797
-0.0280298
-0.00323851
-0.0362381
-0.00523316
-0.0401299
-0.0073993
-0.0422412
-0.00968287
-0.0440172
-0.0120784
-0.045952
-0.0145958
-0.0481482
-0.0172654
-0.0506238
-0.053278
-0.020106
-0.000474752
-0.0123173
-0.00172236
-0.0267822
-0.00350164
-0.0344588
-0.00558192
-0.0380496
-0.00782516
-0.039998
-0.0101834
-0.041659
-0.0126544
-0.0434809
-0.0152512
-0.0455513
-0.0179981
-0.0478769
-0.050375
-0.020901
-0.000534739
-0.0117826
-0.00187774
-0.0254392
-0.00374922
-0.0325874
-0.00590949
-0.0358894
-0.00822516
-0.0376823
-0.0106538
-0.0392304
-0.0131963
-0.0409384
-0.0158667
-0.0428809
-0.018685
-0.0450586
-0.0474052
-0.0216548
-0.000591571
-0.011191
-0.00202382
-0.0240069
-0.00398105
-0.0306301
-0.00621577
-0.0336546
-0.00859921
-0.0352989
-0.0110941
-0.0367355
-0.0137037
-0.0383288
-0.0164426
-0.040142
-0.0193286
-0.0421727
-0.044368
-0.0223657
-0.000645062
-0.010546
-0.00216038
-0.0224916
-0.00419698
-0.0285935
-0.00650072
-0.0313509
-0.00894727
-0.0328523
-0.011504
-0.0341788
-0.0141764
-0.0356565
-0.0169792
-0.0373391
-0.0199292
-0.0392227
-0.0412654
-0.0230318
-0.000695049
-0.0098509
-0.0022872
-0.0208995
-0.00439691
-0.0264838
-0.00676428
-0.0289835
-0.00926929
-0.0303473
-0.0118836
-0.0315645
-0.0146142
-0.0329258
-0.0174765
-0.0344769
-0.0204865
-0.0362127
-0.0381005
-0.0236514
-0.000741392
-0.00910951
-0.00240413
-0.0192367
-0.00458075
-0.0243072
-0.00700642
-0.0265579
-0.00956523
-0.0277885
-0.0122326
-0.0288972
-0.015017
-0.0301414
-0.0179342
-0.0315597
-0.0210001
-0.0331467
-0.0348771
-0.0242235
-0.000783966
-0.00832554
-0.00251103
-0.0175097
-0.00474842
-0.0220698
-0.00722711
-0.0240792
-0.00983503
-0.0251806
-0.0125509
-0.0261813
-0.0153846
-0.0273076
-0.0183521
-0.0285923
-0.0214695
-0.0300293
-0.0315997
-0.0247469
-0.000822667
-0.00750288
-0.00260779
-0.0157246
-0.00489987
-0.0197777
-0.00742635
-0.0215527
-0.0100787
-0.0225282
-0.0128385
-0.0234214
-0.0157169
-0.0244292
-0.0187301
-0.0255791
-0.0218943
-0.0268651
-0.0282731
-0.0252209
-0.000857402
-0.00664548
-0.00269431
-0.0138876
-0.00503506
-0.017437
-0.00760411
-0.0189837
-0.0102961
-0.0198362
-0.0130954
-0.0206222
-0.0160137
-0.0215109
-0.0190678
-0.022525
-0.022274
-0.0236588
-0.0249024
-0.0256447
-0.000888095
-0.00575738
-0.00277053
-0.0120052
-0.00515397
-0.0150535
-0.0077604
-0.0163772
-0.0104873
-0.0171093
-0.0133213
-0.0177882
-0.0162749
-0.0185572
-0.0193651
-0.0194348
-0.0226083
-0.0204156
-0.0214929
-0.0260178
-0.00091468
-0.0048427
-0.00283637
-0.0100835
-0.00525657
-0.0126333
-0.00789521
-0.0137386
-0.0106523
-0.0143522
-0.0135163
-0.0149243
-0.0165004
-0.0155731
-0.0196218
-0.0163134
-0.022897
-0.0171405
-0.0180499
-0.02634
-0.000937105
-0.0039056
-0.00289178
-0.00812885
-0.00534284
-0.0101823
-0.00800854
-0.0110729
-0.010791
-0.0115698
-0.0136803
-0.012035
-0.0166901
-0.0125632
-0.0198377
-0.0131658
-0.0231397
-0.0138385
-0.0145788
-0.0266109
-0.000955325
-0.00295027
-0.00293673
-0.00614744
-0.00541277
-0.00770625
-0.00810039
-0.00838525
-0.0109035
-0.00876668
-0.0138132
-0.00912529
-0.0168439
-0.00953255
-0.0200128
-0.00999684
-0.0233365
-0.0105148
-0.0110849
-0.0268304
-0.000969307
-0.00198096
-0.00297119
-0.00414556
-0.00546635
-0.00521109
-0.00817077
-0.00568082
-0.0109896
-0.00594783
-0.0139151
-0.00619983
-0.0169617
-0.00648591
-0.020147
-0.0068116
-0.0234873
-0.00717447
-0.0075738
-0.0269984
-0.000979024
-0.00299513
-0.00550357
-0.00821967
-0.00296473
-0.0110495
-0.003118
-0.0139859
-0.00326344
-0.0170436
-0.0034282
-0.0202401
-0.00361506
-0.0235919
-0.00382268
-0.00405067
-0.0271151
-0.00824711
-0.0110831
-0.0140256
-0.0170895
-0.0202923
-0.0236503
-0.0271801
0.0601584
0.010254
-0.0596245
0.060694
0.0118489
0.0612305
0.0134539
0.0617671
0.0150661
0.0623024
0.0166826
0.0628332
0.0183001
0.0633546
0.0199147
0.0215213
0.0624572
0.00971542
-0.0619186
0.0630044
0.0113017
0.0635604
0.0128979
0.0641248
0.0145017
0.0646969
0.0161104
0.0652754
0.0177216
0.0658578
0.0193323
0.0209391
0.0648623
0.00918548
-0.0643324
0.0654087
0.0107553
0.0659719
0.0123347
0.0665521
0.0139215
0.0671492
0.0155133
0.0677627
0.0171082
0.0683914
0.0187035
0.020297
0.0674111
0.00866972
-0.0668954
0.0679485
0.010218
0.0685085
0.0117747
0.0690921
0.0133378
0.0697001
0.0149054
0.0703328
0.0164755
0.0709903
0.018046
0.0196147
0.0701121
0.00816846
-0.0696109
0.0706388
0.00969132
0.0711922
0.0112213
0.0717736
0.0127564
0.0723841
0.0142948
0.073025
0.0158346
0.073697
0.017374
0.0189109
0.0729569
0.00767992
-0.0724684
0.0734741
0.00917411
0.0740212
0.0106742
0.0745994
0.0121783
0.0752098
0.0136844
0.0758538
0.0151907
0.0765323
0.0166955
0.0181969
0.0759419
0.00720373
-0.0754657
0.07645
0.00866603
0.076991
0.0101332
0.0775658
0.0116034
0.0781756
0.0130746
0.0788213
0.0145449
0.079504
0.0160128
0.0174762
0.0790663
0.00673928
-0.0786019
0.0795655
0.00816688
0.0801003
0.00959845
0.0806717
0.011032
0.0812805
0.0124657
0.0819278
0.0138976
0.0826145
0.0153261
0.0167493
0.0823354
0.00628806
-0.0818842
0.0828244
0.00767792
0.0833519
0.00907092
0.0839188
0.0104651
0.0845259
0.0118586
0.0851739
0.0132496
0.0858636
0.0146364
0.0160171
0.0857506
0.00585048
-0.085313
0.0862288
0.00719979
0.0867482
0.00855149
0.0873096
0.00990366
0.0879138
0.0112545
0.0885612
0.0126022
0.0892526
0.013945
0.0152812
0.0893167
0.00542697
-0.0888932
0.0897834
0.00673311
0.0902939
0.00804097
0.0908489
0.00934867
0.0914489
0.0106544
0.0920946
0.0119565
0.0927864
0.0132532
0.0145427
0.093039
0.00501845
-0.0926305
0.0934934
0.00627881
0.093994
0.00754029
0.0945416
0.0088011
0.0951366
0.0100595
0.0957794
0.0113137
0.0964704
0.0125621
0.013803
0.0969221
0.00462433
-0.0965279
0.0973642
0.00583666
0.0978549
0.0070496
0.0983946
0.00826138
0.0989838
0.00947027
0.0996229
0.0106746
0.100312
0.0118728
0.0130631
0.100977
0.00424599
-0.100599
0.101406
0.00540792
0.101885
0.00656998
0.102416
0.00773047
0.102999
0.00888772
0.103633
0.0100401
0.10432
0.0111861
0.0123239
0.105209
0.00388358
-0.104846
0.105624
0.00499274
0.106092
0.00610164
0.106614
0.00720864
0.10719
0.00831216
0.107819
0.00941061
0.108503
0.0105024
0.0115861
0.109628
0.00353712
-0.109281
0.110029
0.00459121
0.110486
0.00564472
0.110999
0.0066961
0.111567
0.0077438
0.112191
0.0087863
0.112872
0.00982209
0.113608
0.0108497
0.0118675
0.114244
0.00320661
-0.113913
0.114632
0.00420328
0.115077
0.00519916
0.115581
0.00619274
0.116142
0.00718254
0.116761
0.00816709
0.117438
0.00914494
0.118173
0.0101146
0.0110748
0.119069
0.00289167
-0.118754
0.119443
0.0038287
0.119878
0.00476473
0.120372
0.00569833
0.120927
0.0066281
0.121541
0.00755265
0.122215
0.00847059
0.12295
0.00938055
0.0102812
0.124116
0.00259221
-0.123816
0.124477
0.00346706
0.124901
0.00434083
0.125387
0.00521218
0.125936
0.00607974
0.126546
0.0069422
0.127218
0.00779824
0.127952
0.00864655
0.00948583
0.1294
0.00230714
-0.129115
0.12975
0.00311754
0.130164
0.00392677
0.130642
0.00473358
0.131185
0.0055367
0.131793
0.0063349
0.132464
0.00712693
0.133199
0.00791157
0.0086876
0.13494
0.0020362
-0.134669
0.135278
0.00277956
0.135683
0.00352174
0.136155
0.00426156
0.136694
0.00499787
0.137299
0.0057295
0.137971
0.00645531
0.138708
0.00717415
0.00788489
0.140754
0.00177834
-0.140497
0.141082
0.00245201
0.141479
0.00312453
0.141946
0.00379483
0.142482
0.00446183
0.143087
0.00512449
0.14376
0.00578173
0.144502
0.00643252
0.00707579
0.146866
0.00153242
-0.14662
0.147184
0.00213363
0.147575
0.00273376
0.148038
0.00333185
0.148573
0.00392693
0.149179
0.00451804
0.149857
0.00510422
0.150605
0.00568452
0.00625799
0.1533
0.00129709
-0.153065
0.153611
0.00182292
0.153997
0.00234778
0.154458
0.00287082
0.154994
0.00339117
0.155604
0.00390799
0.156288
0.00442043
0.157045
0.00492764
0.00542878
0.160087
0.00107079
-0.159861
0.160392
0.00151815
0.160775
0.00196467
0.161236
0.00240962
0.161775
0.00285225
0.162391
0.00329184
0.163084
0.00372765
0.163853
0.00415896
0.00458505
0.167259
0.000851728
-0.16704
0.16756
0.0012173
0.167943
0.0015822
0.168406
0.00194579
0.168951
0.00230749
0.169576
0.00266668
0.170281
0.00302276
0.171065
0.00337513
0.00372318
0.174856
0.000637801
-0.174642
0.175155
0.000918046
0.175539
0.00119778
0.176009
0.00147652
0.176562
0.00175381
0.1772
0.00202917
0.17792
0.00230213
0.178723
0.00257223
0.00283899
0.182922
0.000426554
-0.18271
0.183222
0.000617655
0.183611
0.000808417
0.184089
0.000998519
0.184656
0.00118763
0.185309
0.00137543
0.18605
0.00156159
0.186876
0.00174579
0.00192771
0.191508
0.000214989
-0.191296
0.191813
0.000312784
0.192211
0.000410424
0.192701
0.000507738
0.193284
0.000604555
0.193959
0.000700709
0.194725
0.000796029
0.19558
0.00089035
0.000983502
0.200678
-0.200463
0.20099
0.201401
0.201909
0.202513
0.203214
0.20401
0.2049
0.0497738
-0.0165038
-0.0494947
0.0502193
-0.0157468
0.0507161
-0.014727
0.0512249
-0.013613
0.0517369
-0.0124578
0.052253
-0.011273
0.0527717
-0.0100477
0.0532912
-0.00878135
0.0538114
-0.00747933
0.054333
-0.00614478
0.0548567
-0.00477977
0.0553842
-0.00338729
0.055916
-0.001974
0.0564262
-0.000556235
0.0569751
0.00094962
0.0575051
0.00247826
0.0580332
0.00400509
0.0585622
0.00554563
0.0590925
0.00710128
0.00867111
0.0530615
-0.0169285
-0.0526368
0.0534516
-0.0161369
0.0538753
-0.0151507
0.0543168
-0.0140546
0.0547522
-0.0128931
0.0551858
-0.0117067
0.0556248
-0.0104866
0.0560694
-0.00922596
0.0565193
-0.00792922
0.0569752
-0.00660075
0.0574379
-0.00524243
0.0579071
-0.00385654
0.0583794
-0.00244628
0.0588424
-0.00101923
0.0593482
0.000443827
0.0598488
0.00197766
0.0603539
0.00349995
0.0608671
0.00503243
0.0613887
0.00657974
0.00814118
0.056436
-0.0172997
-0.0560648
0.0567783
-0.0164792
0.057127
-0.0154994
0.057496
-0.0144236
0.0578671
-0.0132642
0.0582363
-0.0120759
0.058611
-0.0108613
0.058994
-0.00960891
0.0593843
-0.00831956
0.059782
-0.0069984
0.0601873
-0.00564776
0.0605999
-0.00426913
0.061017
-0.00286343
0.0614345
-0.00143673
0.0619073
-2.89491e-05
0.0623633
0.00152169
0.0628347
0.00302859
0.0633194
0.00454764
0.0638183
0.00608087
0.00762713
0.0599256
-0.0175894
-0.0596358
0.060204
-0.0167577
0.0604831
-0.0157785
0.0607795
-0.01472
0.0610858
-0.0135704
0.0613943
-0.0123844
0.0617088
-0.0111758
0.0620333
-0.0099334
0.062368
-0.00865424
0.0627124
-0.00734285
0.0630674
-0.00600271
0.0634339
-0.00463569
0.0638142
-0.00324367
0.0642089
-0.00183143
0.0645881
-0.000408204
0.0650236
0.0010862
0.0654659
0.00258636
0.0659238
0.00408975
0.0664
0.00560467
0.0071317
0.0635243
-0.0178055
-0.0633081
0.0637398
-0.0169732
0.0639542
-0.0159929
0.0641815
-0.0149474
0.0644223
-0.0138112
0.0646701
-0.0126322
0.0649254
-0.0114311
0.065192
-0.0102
0.0654716
-0.00893381
0.0657641
-0.00763533
0.06607
-0.00630867
0.0663903
-0.00495598
0.0667256
-0.00357897
0.0670744
-0.00218024
0.0674335
-0.000767319
0.0678331
0.000686582
0.068247
0.00217247
0.0686797
0.00365712
0.0691338
0.00515057
0.0066546
0.0672479
-0.0179506
-0.0671028
0.0673992
-0.0171244
0.0675488
-0.0161425
0.0677081
-0.0151066
0.0678825
-0.0139856
0.0680684
-0.0128181
0.0682647
-0.0116274
0.0684743
-0.0104096
0.0686994
-0.00915893
0.0689407
-0.00787664
0.0691986
-0.00656662
0.069474
-0.00523137
0.0697677
-0.00387265
0.0700802
-0.0024927
0.0704094
-0.00109655
0.0707782
0.000317811
0.0711637
0.00178699
0.0715728
0.00324797
0.0720073
0.00471604
0.00619359
0.0711063
-0.0180219
-0.071035
0.0711889
-0.017207
0.0712718
-0.0162255
0.071363
-0.0151978
0.0714707
-0.0140933
0.0715941
-0.0129415
0.0717317
-0.0117649
0.0718851
-0.0105631
0.0720568
-0.00933065
0.072248
-0.00806786
0.0724594
-0.00677799
0.0726917
-0.00546364
0.0729456
-0.00412657
0.0732211
-0.00276816
0.0735167
-0.00139217
0.0738608
-2.62884e-05
0.0742179
0.00142989
0.0746047
0.00286119
0.0750204
0.00430037
0.00574824
0.0751017
-0.0180169
-0.0751067
0.0751117
-0.017217
0.075126
-0.0162398
0.0751495
-0.0152213
0.0751909
-0.0141347
0.0752518
-0.0130025
0.075331
-0.0118441
0.0754292
-0.0106612
0.0755486
-0.00945005
0.0756908
-0.00821008
0.0758568
-0.00694398
0.0760476
-0.00565445
0.0762645
-0.00434349
0.0765093
-0.00301302
0.0767833
-0.00166616
0.0770685
-0.000311417
0.0774074
0.00109099
0.0777736
0.00249499
0.0781712
0.0039027
0.00531758
0.0792344
-0.0179351
-0.0793161
0.0791699
-0.0171526
0.0791144
-0.0161843
0.0790707
-0.0151775
0.0790469
-0.014111
0.079046
-0.0130015
0.0790672
-0.0118653
0.079111
-0.010705
0.0791791
-0.00951816
0.0792733
-0.00830421
0.0793946
-0.00706529
0.079544
-0.00580393
0.0797227
-0.00452212
0.0799313
-0.00322168
0.08017
-0.00190485
0.0804362
-0.000577615
0.0807472
0.000779981
0.0810912
0.00215098
0.0814698
0.00352414
0.00490322
0.0835059
-0.0177773
-0.0836637
0.0833668
-0.0170135
0.0832413
-0.0160588
0.0831311
-0.0150672
0.0830433
-0.0140232
0.0829815
-0.0129397
0.0829456
-0.0118294
0.0829357
-0.0106952
0.0829534
-0.00953585
0.0830002
-0.00835104
0.0830774
-0.0071425
0.083186
-0.00591251
0.0833269
-0.00466303
0.0835011
-0.00339585
0.0837093
-0.00211301
0.08395
-0.000818386
0.0842351
0.000494881
0.0845562
0.00182991
0.0849152
0.00316514
0.00450537
0.0879202
-0.0175445
-0.0881531
0.0877071
-0.0168004
0.0875121
-0.0158637
0.0873361
-0.0148913
0.0871857
-0.0138727
0.087064
-0.012818
0.0869717
-0.0117371
0.086909
-0.0106325
0.086877
-0.0095039
0.0868773
-0.00835132
0.0869111
-0.00717628
0.0869794
-0.0059808
0.0870831
-0.00476675
0.0872232
-0.0035359
0.0874003
-0.00229019
0.0876145
-0.00103258
0.0878753
0.000234066
0.0881732
0.00153207
0.0885122
0.00282614
0.00412437
0.0924829
-0.0172377
-0.0927897
0.0921968
-0.0165142
0.0919329
-0.0155998
0.0916922
-0.0146507
0.0914801
-0.0136606
0.0912998
-0.0126377
0.091152
-0.0115892
0.0910371
-0.0105177
0.0909563
-0.00942304
0.0909107
-0.00830578
0.0909017
-0.00716729
0.0909303
-0.00600937
0.0909973
-0.00483374
0.0911034
-0.00364204
0.0912491
-0.00243583
0.0914341
-0.00121759
0.0916744
-6.23405e-06
0.0919483
0.00125817
0.0922671
0.00250731
0.00376095
0.0972006
-0.0168581
-0.0975802
0.0968426
-0.0161563
0.0965109
-0.0152681
0.0962065
-0.0143463
0.0959338
-0.0133879
0.0956957
-0.0123996
0.0954932
-0.0113868
0.0953269
-0.0103514
0.0951978
-0.0092939
0.095107
-0.00821503
0.0950559
-0.00711614
0.0950454
-0.00599888
0.0950766
-0.00486494
0.0951505
-0.00371597
0.0952684
-0.00255371
0.0954311
-0.0013803
0.0956265
-0.000201573
0.0958815
0.00100314
0.0961813
0.00220746
0.00341435
0.102081
-0.0164066
-0.102532
0.101652
-0.0157278
0.101254
-0.0148697
0.100887
-0.013979
0.100554
-0.0130556
0.100259
-0.0121047
0.100003
-0.0111304
0.0997857
-0.0101342
0.0996088
-0.00911696
0.0994732
-0.00807944
0.0993801
-0.00702303
0.0993305
-0.00594927
0.0993253
-0.00485975
0.0993653
-0.00375601
0.0994513
-0.00263966
0.0995834
-0.00151248
0.0997603
-0.000378458
0.0999907
0.000772751
0.10027
0.0019282
0.00308582
0.107132
-0.0158846
-0.107654
0.106634
-0.0152301
0.10617
-0.0144055
0.105741
-0.0135498
0.10535
-0.0126643
0.104999
-0.0117537
0.104689
-0.0108207
0.104422
-0.00986675
0.104197
-0.0088926
0.104017
-0.0078993
0.103882
-0.00688817
0.103794
-0.00586067
0.103752
-0.00481828
0.103759
-0.00376248
0.103814
-0.00269479
0.103918
-0.00161689
0.104071
-0.000531526
0.104278
0.000565887
0.104536
0.00167
0.00277571
0.112364
-0.0152928
-0.112955
0.111798
-0.0146644
0.111269
-0.0138767
0.110779
-0.0130594
0.110329
-0.012215
0.109923
-0.0113472
0.109561
-0.0104583
0.109243
-0.00954937
0.108972
-0.00862119
0.108747
-0.0076749
0.108571
-0.00671181
0.108444
-0.0057333
0.108366
-0.00474075
0.108339
-0.00373559
0.108364
-0.00271925
0.10844
-0.00169328
0.108568
-0.000659834
0.108752
0.000382154
0.108989
0.00143263
0.00248396
0.117786
-0.0146324
-0.118446
0.117153
-0.014032
0.116561
-0.0132843
0.11601
-0.0125086
0.115503
-0.0117081
0.115042
-0.0108859
0.114627
-0.0100438
0.11426
-0.00918251
0.113942
-0.00830306
0.113674
-0.00740652
0.113456
-0.00649418
0.11329
-0.00556733
0.113177
-0.0046273
0.113117
-0.00367543
0.113111
-0.00271308
0.113159
-0.00174171
0.113262
-0.000763116
0.113423
0.000221305
0.11364
0.00121599
0.00221057
0.12341
-0.0139041
-0.124138
0.122712
-0.013334
0.122057
-0.0126291
0.121446
-0.0118981
0.120883
-0.0111442
0.120367
-0.0103702
0.1199
-0.00957741
0.119485
-0.00876654
0.11912
-0.0079385
0.118808
-0.00709441
0.118549
-0.00623548
0.118345
-0.00536296
0.118196
-0.00447808
0.118102
-0.00358211
0.118066
-0.00267633
0.118086
-0.00176212
0.118164
-0.000841055
0.118302
8.28025e-05
0.118498
0.00101991
0.00195511
0.12925
-0.0131088
-0.130045
0.128487
-0.0125712
0.12777
-0.0119119
0.1271
-0.0112284
0.12648
-0.0105239
0.12591
-0.0098006
0.125393
-0.00905967
0.124928
-0.00830178
0.124517
-0.00752781
0.124162
-0.00673882
0.123862
-0.00593597
0.12362
-0.00512043
0.123435
-0.00429337
0.123309
-0.00345597
0.123242
-0.00260947
0.123235
-0.00175511
0.123288
-0.000894303
0.123403
-3.16583e-05
0.123579
0.000843932
0.00171755
0.13532
-0.012247
-0.136182
0.134494
-0.0117445
0.133715
-0.0111334
0.132987
-0.0105
0.13231
-0.00984739
0.131687
-0.00917735
0.131118
-0.00849083
0.130605
-0.0077885
0.130148
-0.0070712
0.129749
-0.00633995
0.129409
-0.00559583
0.129129
-0.00483993
0.128909
-0.00407335
0.12875
-0.00329721
0.128653
-0.00251264
0.128619
-0.00172083
0.128648
-0.000923059
0.128738
-0.000121768
0.128894
0.000687337
0.00149682
0.141638
-0.0113193
-0.142566
0.140748
-0.0108545
0.139909
-0.010294
0.139122
-0.0097134
0.13839
-0.00911509
0.137713
-0.00850073
0.137093
-0.00787112
0.136532
-0.0072269
0.136029
-0.00656887
0.135587
-0.00589798
0.135207
-0.00521523
0.134889
-0.00452163
0.134633
-0.00381819
0.134442
-0.00310596
0.134316
-0.00238599
0.134254
-0.00165937
0.134258
-0.00092724
0.134328
-0.000191353
0.134465
0.000550125
0.0012928
0.148223
-0.010326
-0.149216
0.14727
-0.0099016
0.14637
-0.00939422
0.145525
-0.00886871
0.144737
-0.00832715
0.144008
-0.0077709
0.143337
-0.00720069
0.142727
-0.00661713
0.142179
-0.00602096
0.141695
-0.00541307
0.141274
-0.00479436
0.140918
-0.00416575
0.140628
-0.00352818
0.140404
-0.0028826
0.140248
-0.00222997
0.14016
-0.00157129
0.140141
-0.000907592
0.14019
-0.000240238
0.140308
0.00043142
0.00110457
0.155097
-0.00926715
-0.156156
0.154082
-0.00888612
0.153121
-0.00843412
0.152219
-0.00796606
0.151375
-0.00748363
0.150592
-0.00698792
0.149871
-0.0064796
0.149213
-0.00595927
0.14862
-0.0054276
0.148092
-0.00488537
0.147631
-0.00433342
0.147238
-0.00377256
0.146914
-0.00320364
0.146659
-0.00262752
0.146474
-0.00204506
0.146359
-0.00145717
0.146317
-0.000864773
0.146345
-0.000268975
0.146447
0.000330261
0.000931078
0.162287
-0.00814288
-0.163411
0.161208
-0.00780804
0.160188
-0.00741369
0.159227
-0.0070054
0.158328
-0.00658444
0.157492
-0.00615172
0.15672
-0.00570784
0.156014
-0.00525333
0.155376
-0.00478882
0.154805
-0.004315
0.154304
-0.00383259
0.153874
-0.00334231
0.153515
-0.00284492
0.153229
-0.00234117
0.153016
-0.00183182
0.152876
-0.00131768
0.152811
-0.000799555
0.15282
-0.000278373
0.152905
0.000245598
0.000771123
0.169821
-0.0069529
-0.171011
0.16868
-0.00666714
0.167599
-0.00633272
0.16658
-0.00598648
0.165625
-0.00562938
0.164735
-0.00526213
0.163913
-0.00488525
0.163159
-0.00449924
0.162474
-0.00410464
0.161861
-0.00370203
0.161321
-0.00329204
0.160854
-0.00287527
0.160461
-0.00245239
0.160144
-0.00202403
0.159903
-0.00159086
0.159739
-0.00115356
0.159652
-0.000712832
0.159643
-0.000269437
0.159713
0.000176216
0.000623324
0.177733
-0.00569682
-0.178989
0.176529
-0.00546299
0.175387
-0.00519076
0.174309
-0.0049089
0.173298
-0.00461807
0.172355
-0.00431883
0.171481
-0.00401161
0.170679
-0.00369685
0.169949
-0.00337498
0.169293
-0.0030465
0.168713
-0.00271191
0.16821
-0.00237172
0.167784
-0.00202646
0.167437
-0.00167667
0.167169
-0.00132289
0.166981
-0.000965694
0.166873
-0.000605645
0.166847
-0.000243364
0.166903
0.00012071
0.000486068
0.186061
-0.00437407
-0.187384
0.184793
-0.00419496
0.18359
-0.00398721
0.182453
-0.00377209
0.181385
-0.00355002
0.180387
-0.0033214
0.179462
-0.00308659
0.178612
-0.00284591
0.177836
-0.00259973
0.177138
-0.00234842
0.176519
-0.00209235
0.175979
-0.00183194
0.17552
-0.00156759
0.175143
-0.0012997
0.174849
-0.00102872
0.174638
-0.000755061
0.174512
-0.000479181
0.17447
-0.000201551
0.174513
7.74293e-05
0.000357507
0.194849
-0.00298398
-0.196239
0.193516
-0.00286224
0.19225
-0.00272134
0.191054
-0.00257539
0.189928
-0.00242465
0.188876
-0.00226938
0.187899
-0.00210983
0.187
-0.00194623
0.186179
-0.00177882
0.185438
-0.00160787
0.18478
-0.00143362
0.184204
-0.00125637
0.183713
-0.00107639
0.183307
-0.000893949
0.182988
-0.000709358
0.182756
-0.000522909
0.182611
-0.000334906
0.182555
-0.000145666
0.182588
4.45072e-05
0.000235437
0.204145
-0.0015259
-0.205603
0.202746
-0.00146399
0.201417
-0.00139229
0.20016
-0.00131801
0.198977
-0.00124125
0.197869
-0.00116215
0.19684
-0.00108084
0.195892
-0.000997437
0.195025
-0.000912059
0.194242
-0.000824838
0.193544
-0.000735912
0.192933
-0.000645416
0.19241
-0.000553497
0.191977
-0.000460298
0.191633
-0.000365972
0.191381
-0.00027067
0.191221
-0.000174557
0.191153
-7.78036e-05
0.191178
1.93972e-05
0.000117195
0.214003
-0.215529
0.212539
0.211147
0.209829
0.208588
0.207425
0.206345
0.205347
0.204435
0.20361
0.202874
0.202229
0.201675
0.201215
0.200849
0.200578
0.200404
0.200326
0.200345
0.0503793
0.00102219
-0.00095056
0.0502275
0.0023266
-0.00217471
0.0499644
0.0049002
-0.00463711
0.049665
0.00642508
-0.00612569
0.0492633
0.00924861
-0.00884692
0.0488572
0.0108185
-0.0104124
0.0483623
0.0137851
-0.0132901
0.0479175
0.0154117
-0.0149669
0.0474147
0.0185799
-0.0180771
0.0470746
0.0202181
-0.019878
0.0467226
0.0236575
-0.0233056
0.046756
0.024985
-0.0250184
0.0467977
0.028783
-0.0288247
0.0477261
0.0288639
-0.0297923
0.032982
-0.0347506
0.0528492
0.00109425
0.052699
0.00247681
0.0524347
0.00516445
0.0521427
0.00671707
0.0517474
0.00964392