/*--------------------------------*- C++ -*----------------------------------*\
  =========                 |
  \\      /  F ield         | OpenFOAM: The Open Source CFD Toolbox
   \\    /   O peration     | Website:  https://openfoam.org
    \\  /    A nd           | Version:  7
     \\/     M anipulation  |
\*---------------------------------------------------------------------------*/
FoamFile
{
    version     2.0;
    format      ascii;
    class       volVectorField;
    location    "185";
    object      U;
}
// * * * * * * * * * * * * * * * * * * * * * * * * * * * * * * * * * * * * * //

dimensions      [0 1 -1 0 0 0 0];

internalField   nonuniform List<vector> 
2125
(
(-0.0217259 0.0154689 -7.13611e-20)
(-0.0210664 0.0142651 2.59038e-20)
(-0.0187895 0.0215884 2.81052e-20)
(-0.0195158 0.0126263 -1.76252e-20)
(-0.00810873 0.0173728 -1.2965e-20)
(-0.0169694 0.0106268 3.71661e-20)
(0.00559233 0.0126603 -1.02439e-20)
(0.0860356 0.0115376 -6.15745e-21)
(-0.0133208 0.00835911 -1.36424e-20)
(0.0225716 0.00771718 -8.15481e-20)
(0.122807 0.00738379 8.44035e-21)
(0.286436 0.0115805 2.92158e-20)
(-0.00846081 0.00592816 -1.51091e-20)
(0.0430558 0.00285798 2.88789e-20)
(0.165006 0.00420234 3.78853e-20)
(0.353361 0.0133663 -2.7055e-20)
(0.592401 0.035017 1.00496e-20)
(0.843845 0.0660409 -6.10137e-20)
(-0.00228001 0.00344801 -1.96635e-20)
(0.0672194 -0.0015695 -6.7657e-21)
(0.212563 0.00253405 -6.89261e-20)
(0.425294 0.0179459 -1.08228e-20)
(0.680225 0.0471872 -1.07526e-21)
(0.930153 0.0833508 3.69277e-21)
(1.13045 0.115418 6.1423e-21)
(0.00532605 0.00104121 -5.19345e-21)
(0.0951621 -0.00519596 2.39361e-20)
(0.26519 0.00291417 3.37558e-20)
(0.50093 0.0257196 2.1128e-20)
(0.766589 0.0624539 -6.18962e-21)
(1.00892 0.102506 -5.1956e-21)
(1.1889 0.134376 5.09208e-20)
(1.29842 0.152835 6.84606e-21)
(0.0144462 -0.00115873 4.9638e-20)
(0.126886 -0.00763907 3.19457e-20)
(0.322359 0.00583669 -3.24304e-20)
(0.578692 0.0369076 -6.46311e-21)
(0.849442 0.0805382 3.41958e-21)
(1.07914 0.123084 -1.22923e-20)
(1.2372 0.153645 -2.6298e-20)
(1.32513 0.169249 -4.25692e-21)
(1.36163 0.172808 2.80433e-22)
(1.36891 0.165055 1.05302e-20)
(0.0251434 -0.00300781 6.29635e-21)
(0.162277 -0.0085145 -1.75046e-20)
(0.383301 0.0117205 4.14988e-20)
(0.656864 0.0515483 2.69853e-20)
(0.92711 0.101085 9.0228e-22)
(1.14038 0.144717 1.89895e-20)
(1.27615 0.173031 2.75237e-21)
(1.34445 0.185406 -1.98424e-20)
(1.36761 0.185794 1.66301e-20)
(1.36748 0.176646 2.22121e-23)
(0.0374479 -0.00435231 -4.12804e-20)
(0.201092 -0.00744655 -1.21443e-20)
(0.447035 0.0208813 -1.09147e-20)
(0.733751 0.0695266 -1.90099e-20)
(0.998372 0.123718 4.5444e-21)
(1.19267 0.167103 9.2527e-23)
(1.30669 0.19241 1.4587e-20)
(1.35761 0.201324 -2.41274e-21)
(1.36984 0.198664 -1.71935e-20)
(1.36403 0.188247 -1.58311e-20)
(0.0513488 -0.00503065 3.38035e-21)
(0.242952 -0.0040827 1.97832e-20)
(0.512424 0.0335139 9.62255e-21)
(0.807806 0.0906165 -2.98942e-20)
(1.06244 0.148073 -1.44306e-21)
(1.23634 0.189999 -1.27767e-20)
(1.32984 0.211708 3.21778e-22)
(1.36567 0.217041 5.87473e-21)
(1.36913 0.211484 -6.46575e-21)
(1.35902 0.199903 1.79534e-20)
(0.066788 -0.00487769 8.00848e-21)
(0.287351 0.00188923 -1.94652e-20)
(0.578244 0.0496867 -4.5907e-20)
(0.877721 0.114521 4.22112e-20)
(1.11892 0.173811 -3.12696e-21)
(1.27193 0.213215 9.22425e-21)
(1.34654 0.230887 -1.2573e-21)
(1.36954 0.232603 8.73728e-21)
(1.36606 0.224306 -6.76619e-22)
(1.35275 0.211632 -1.39003e-20)
(0.0836581 -0.00373049 -1.63744e-20)
(0.333663 0.0107232 2.54521e-20)
(0.643264 0.0693495 2.09253e-20)
(0.942463 0.140906 -3.02065e-20)
(1.16769 0.200625 -5.014e-21)
(1.30008 0.236601 1.88997e-21)
(1.35769 0.249931 1.88821e-20)
(1.36995 0.248051 9.15956e-22)
(1.36109 0.237164 3.5852e-21)
(1.34543 0.223432 -7.70263e-21)
(0.101802 -0.00143507 1.24293e-20)
(0.38117 0.0225997 -1.11582e-20)
(0.706308 0.0923478 -9.54464e-21)
(1.00128 0.169416 1.62763e-20)
(1.20887 0.22824 5.58176e-21)
(1.32147 0.260037 4.19998e-21)
(1.36404 0.26883 -1.92668e-20)
(1.36748 0.263411 -6.52695e-21)
(1.35453 0.25007 -5.77552e-21)
(1.33716 0.235284 2.53729e-21)
(0.121013 0.00214628 -6.25681e-21)
(0.429089 0.0376139 -1.42324e-22)
(0.766313 0.118442 1.80741e-20)
(1.05367 0.199695 -6.59291e-21)
(1.24272 0.256408 -2.92119e-21)
(1.33675 0.283425 -1.91037e-21)
(1.36625 0.287575 4.6673e-21)
(1.36256 0.278697 7.97071e-21)
(1.34657 0.263015 -2.58689e-22)
(1.32802 0.24715 2.84184e-21)
(0.141044 0.00712781 4.4168e-21)
(0.476605 0.055771 -1.23933e-21)
(0.822364 0.147327 -3.24813e-21)
(1.09933 0.231385 -2.93655e-21)
(1.2696 0.2849 2.6281e-21)
(1.34654 0.306676 2.03233e-21)
(1.36488 0.306147 -1.86468e-21)
(1.35554 0.2939 6.62435e-22)
(1.33737 0.275969 9.22216e-22)
(1.31804 0.258979 -1.20986e-21)
(0.16161 0.0135938 2.39724e-21)
(0.522906 0.0769854 6.7947e-22)
(0.873706 0.178645 -4.06476e-21)
(1.13816 0.264136 -3.22925e-21)
(1.2899 0.313508 3.34635e-21)
(1.3514 0.329704 6.52837e-22)
(1.36035 0.324516 -1.48526e-21)
(1.34664 0.308994 1.38684e-21)
(1.32701 0.288883 7.6133e-22)
(1.30724 0.27071 -8.58244e-22)
(0.182397 0.0215931 -9.32456e-22)
(0.567211 0.101086 1.90404e-21)
(0.91975 0.212007 1.25715e-20)
(1.17016 0.297606 -5.57368e-21)
(1.30405 0.342033 -2.6921e-21)
(1.35182 0.352422 -3.00393e-21)
(1.35303 0.342638 6.1045e-21)
(1.33606 0.323932 4.03783e-21)
(1.31554 0.301691 3.17444e-21)
(1.29563 0.282276 1.68855e-21)
(0.203074 0.0311359 1.93261e-20)
(0.6088 0.127824 -1.05972e-20)
(0.960063 0.246997 -1.19866e-20)
(1.19545 0.331458 1.62358e-20)
(1.31247 0.370283 8.47596e-21)
(1.34824 0.374736 -5.53082e-22)
(1.34319 0.36045 -1.01869e-20)
(1.3239 0.338647 -7.25486e-21)
(1.30299 0.314308 -7.40149e-21)
(1.28323 0.293601 4.32231e-21)
(0.2233 0.0421911 -2.61753e-20)
(0.647031 0.156885 2.45667e-20)
(0.994352 0.283184 2.82031e-20)
(1.21423 0.365368 -2.7608e-20)
(1.31558 0.398071 -9.45185e-21)
(1.34101 0.396546 5.98343e-21)
(1.33106 0.377876 1.0696e-20)
(1.31026 0.353055 1.64887e-21)
(1.28939 0.326637 -2.57558e-22)
(1.27001 0.304606 -5.8239e-21)
(0.242738 0.0546873 -3.79065e-21)
(0.681351 0.187897 -3.46485e-20)
(1.02245 0.320132 -3.69626e-20)
(1.22672 0.399017 4.11393e-20)
(1.31376 0.425213 -4.64811e-21)
(1.33048 0.417741 8.3561e-21)
(1.31682 0.394826 1.5878e-21)
(1.29519 0.367063 -4.49953e-21)
(1.27471 0.338573 2.41042e-21)
(1.25587 0.315217 -2.91625e-22)
(0.261059 0.0685135 7.69096e-21)
(0.71131 0.220447 2.15245e-20)
(1.04431 0.357401 1.21265e-20)
(1.23322 0.432097 -9.5325e-21)
(1.30738 0.451523 -1.46512e-20)
(1.3169 0.438203 -1.34046e-20)
(1.3006 0.411201 -2.65486e-21)
(1.27874 0.380578 6.89545e-21)
(1.25892 0.350042 -1.44959e-21)
(1.24063 0.325352 3.22678e-21)
(0.277956 0.0835229 -2.91889e-20)
(0.73656 0.254089 -2.71072e-20)
(1.05995 0.394554 -4.28158e-21)
(1.23402 0.46431 -4.8293e-21)
(1.29679 0.476817 -1.07722e-20)
(1.30053 0.457802 6.45059e-21)
(1.28252 0.426888 -1.16028e-21)
(1.26097 0.39351 -5.9796e-21)
(1.24204 0.361039 5.40553e-21)
(1.22419 0.334864 -7.4832e-21)
(0.293149 0.099536 6.90044e-21)
(0.756857 0.288358 2.29866e-20)
(1.06948 0.431162 1.98741e-20)
(1.22945 0.495367 2.14478e-20)
(1.2823 0.50091 4.40024e-22)
(1.28157 0.476402 1.81766e-20)
(1.2627 0.44176 1.12455e-21)
(1.24191 0.405741 -2.04353e-20)
(1.22414 0.371569 1.42976e-20)
(1.20707 0.34362 5.14567e-21)
(0.306394 0.116345 1.89528e-20)
(0.772055 0.322784 4.22635e-20)
(1.07308 0.46681 -5.56008e-21)
(1.21984 0.524989 -2.70322e-20)
(1.26422 0.52362 1.20466e-20)
(1.26022 0.493862 -1.23031e-20)
(1.24123 0.455685 -1.59898e-20)
(1.22166 0.417133 -1.21137e-21)
(1.2052 0.381346 -1.16554e-20)
(1.18945 0.3518 4.34577e-21)
(0.317486 0.13372 8.91913e-21)
(0.782096 0.3569 6.61897e-21)
(1.07098 0.501099 5.24018e-20)
(1.20553 0.552908 9.66458e-21)
(1.24284 0.544767 -8.34416e-21)
(1.23666 0.510036 -4.20298e-21)
(1.21825 0.46853 2.43431e-20)
(1.20024 0.427602 1.94883e-20)
(1.18522 0.390248 9.40796e-21)
(1.17112 0.359162 -1.18828e-21)
(0.326264 0.151415 1.87012e-21)
(0.787001 0.390247 -4.32286e-20)
(1.06343 0.533648 -6.16425e-20)
(1.18687 0.578867 1.84073e-21)
(1.21843 0.564172 1.16571e-20)
(1.21108 0.52477 -1.60684e-20)
(1.19386 0.480161 -3.53249e-20)
(1.17769 0.437027 -1.0189e-20)
(1.16432 0.398178 -5.93856e-22)
(1.15207 0.365617 4.14144e-21)
(0.332611 0.169173 -1.54909e-20)
(0.786868 0.422384 3.9007e-20)
(1.05078 0.564104 3.70543e-20)
(1.1642 0.602628 -3.37522e-20)
(1.19127 0.58165 5.15743e-21)
(1.18367 0.537915 3.81829e-20)
(1.16814 0.490448 -8.04623e-21)
(1.15408 0.445293 6.67317e-21)
(1.14257 0.405037 -2.83368e-21)
(1.13234 0.371067 -3.57531e-21)
(0.336455 0.186733 -3.49173e-20)
(0.78187 0.452886 -6.14713e-20)
(1.0334 0.592151 -1.19691e-20)
(1.13785 0.623965 1.94688e-20)
(1.16158 0.597027 1.86451e-20)
(1.15458 0.549316 -3.7908e-20)
(1.1412 0.499262 1.98959e-20)
(1.1295 0.452287 -9.61845e-21)
(1.12002 0.41073 7.14904e-21)
(1.112 0.375445 4.00597e-22)
(0.337774 0.203833 2.66458e-20)
(0.77226 0.481343 1.87129e-21)
(1.01164 0.617499 -5.9431e-21)
(1.10807 0.642649 -2.39697e-20)
(1.12968 0.610146 1.5113e-20)
(1.12399 0.558825 3.33551e-21)
(1.11317 0.506478 -1.09304e-20)
(1.10406 0.457902 2.27201e-21)
(1.09675 0.415157 -1.52002e-21)
(1.09115 0.378672 1.38607e-22)
(0.336609 0.220223 -7.29715e-21)
(0.758355 0.507404 -1.01584e-20)
(0.985693 0.639816 2.57137e-20)
(1.07526 0.658519 1.18085e-20)
(1.09585 0.620822 -1.56732e-20)
(1.0921 0.566325 2.09474e-20)
(1.08419 0.511985 1.71894e-21)
(1.07785 0.462038 2.24636e-21)
(1.07286 0.418216 1.84801e-21)
(1.06986 0.380652 4.23079e-22)
(0.333048 0.235649 4.73044e-20)
(0.740466 0.530876 3.63429e-20)
(0.955761 0.658744 -2.5748e-21)
(1.03992 0.671363 -5.44507e-21)
(1.06036 0.628941 -6.30107e-21)
(1.05909 0.571692 -2.91682e-21)
(1.05439 0.515677 2.09358e-21)
(1.051 0.464609 1.22944e-21)
(1.04843 0.419814 -1.2852e-21)
(1.0482 0.381286 -3.70154e-21)
(0.32717 0.249778 3.90062e-21)
(0.718745 0.551464 6.30889e-21)
(0.922547 0.67429 -3.31578e-20)
(1.00244 0.680939 1.44966e-20)
(1.02346 0.634393 3.36376e-21)
(1.02515 0.574822 -6.93946e-21)
(1.02394 0.517461 2.35982e-21)
(1.02359 0.465538 1.10077e-21)
(1.02359 0.41988 -3.78241e-21)
(1.0264 0.380523 4.7166e-21)
(0.318986 0.262323 -1.79674e-20)
(0.693431 0.568668 -1.30575e-20)
(0.886633 0.68628 1.05205e-20)
(0.963121 0.687191 2.53383e-21)
(0.98542 0.63707 -5.60924e-21)
(0.99048 0.575617 4.61603e-21)
(0.992948 0.517244 2.28431e-21)
(0.995749 0.464732 -8.4787e-21)
(0.998581 0.418343 2.17097e-20)
(1.00509 0.378397 8.82788e-21)
(0.308711 0.273069 -1.38019e-20)
(0.665008 0.582193 3.42343e-20)
(0.848358 0.694495 -2.14762e-20)
(0.922292 0.69005 -3.13909e-21)
(0.946495 0.636887 -3.12635e-21)
(0.955261 0.573997 -7.9041e-22)
(0.961539 0.514943 -7.50556e-21)
(0.967583 0.462057 4.10237e-21)
(0.973819 0.415011 -8.41243e-22)
(0.98496 0.374935 -3.9936e-21)
(0.296604 0.281992 -1.06707e-21)
(0.633942 0.591932 -1.01988e-20)
(0.808125 0.698739 5.32731e-21)
(0.880302 0.689433 -2.69649e-21)
(0.906952 0.633781 4.45868e-21)
(0.91968 0.569908 4.67166e-21)
(0.92984 0.510509 1.45691e-20)
(0.939293 0.457419 -1.11129e-20)
(0.949664 0.409527 -2.15249e-20)
(0.965287 0.369475 9.28591e-21)
(0.282802 0.288901 -7.23848e-24)
(0.600689 0.597758 -1.92622e-21)
(0.76636 0.698903 8.52547e-22)
(0.837502 0.685278 5.30769e-21)
(0.867058 0.627709 -1.07179e-20)
(0.883936 0.563319 -1.85897e-20)
(0.898042 0.503937 -5.61803e-21)
(0.911158 0.450932 -1.56401e-21)
(0.926118 0.402102 2.8887e-20)
(0.943227 0.35847 -6.33815e-21)
(0.26752 0.293647 -1.14994e-21)
(0.565695 0.599564 -4.35678e-21)
(0.723493 0.694933 7.87371e-22)
(0.794242 0.677548 8.59376e-22)
(0.827079 0.618643 -8.09817e-21)
(0.848247 0.5542 3.5674e-20)
(0.866402 0.495192 -2.5279e-20)
(0.883392 0.44266 3.05949e-20)
(0.902126 0.394539 -2.1592e-20)
(0.919116 0.352326 -2.87464e-20)
(0.251007 0.296119 -3.14821e-22)
(0.529397 0.597276 -1.37689e-21)
(0.679951 0.686808 6.20936e-22)
(0.750871 0.666231 1.25953e-20)
(0.787283 0.606574 -5.36036e-21)
(0.81284 0.542531 8.22717e-21)
(0.835125 0.484223 1.48618e-20)
(0.856007 0.43234 -7.8721e-21)
(0.877999 0.384741 -2.07228e-20)
(0.896068 0.342779 2.87779e-20)
(0.233519 0.296235 9.77779e-21)
(0.492227 0.590857 1.29089e-20)
(0.636155 0.67454 -1.28078e-20)
(0.707729 0.651346 -1.14598e-20)
(0.747937 0.591514 4.16502e-20)
(0.777935 0.528324 -4.27729e-20)
(0.804364 0.471076 5.16285e-20)
(0.829028 0.420199 -1.30497e-20)
(0.853985 0.373683 1.40234e-20)
(0.873773 0.332898 2.61912e-20)
(0.215317 0.293943 -3.44882e-21)
(0.454617 0.580307 -1.28206e-20)
(0.592517 0.658172 -8.18935e-21)
(0.665151 0.632934 -4.47014e-21)
(0.709307 0.573496 5.26909e-21)
(0.743754 0.511601 -1.12003e-20)
(0.774291 0.455756 -1.54484e-20)
(0.802616 0.406166 -3.38153e-20)
(0.830419 0.360976 3.35931e-20)
(0.852321 0.321562 -1.0947e-20)
(0.196666 0.28922 2.4891e-20)
(0.41699 0.565666 -3.16035e-21)
(0.549437 0.637775 -1.156e-20)
(0.623463 0.611065 1.4779e-20)
(0.671652 0.552573 -2.66807e-20)
(0.710507 0.492406 7.18496e-20)
(0.745073 0.438311 -3.84341e-20)
(0.776937 0.390326 3.50001e-20)
(0.807523 0.346774 -6.44293e-20)
(0.831746 0.308924 -1.71372e-20)
(0.177829 0.282069 -7.61612e-21)
(0.379761 0.547007 2.65212e-20)
(0.507302 0.613452 6.17684e-21)
(0.58298 0.58583 -1.38358e-20)
(0.635225 0.528821 -2.39527e-20)
(0.678402 0.4708 -8.44063e-22)
(0.716884 0.418791 1.28346e-20)
(0.752158 0.372708 -3.1493e-20)
(0.785454 0.33105 1.55817e-20)
(0.812096 0.294913 2.07187e-21)
(0.159067 0.272523 -4.37102e-20)
(0.343331 0.524443 -1.07155e-20)
(0.466483 0.585334 -2.99208e-21)
(0.544004 0.557345 3.57238e-20)
(0.600269 0.502332 -3.33111e-20)
(0.647641 0.446859 -8.68158e-21)
(0.689896 0.397264 -5.30132e-21)
(0.728438 0.353374 9.82396e-21)
(0.764355 0.313846 -1.24487e-20)
(0.793441 0.279565 -1.94591e-20)
(0.140632 0.260639 3.89068e-20)
(0.308083 0.498115 -2.21958e-20)
(0.427334 0.553578 1.0739e-21)
(0.506824 0.525748 -5.42053e-20)
(0.567018 0.473222 5.899e-20)
(0.618417 0.420681 -1.87191e-20)
(0.664274 0.373813 1.12358e-20)
(0.705925 0.332388 9.78886e-21)
(0.74435 0.295206 2.84475e-20)
(0.775857 0.262927 -1.16587e-20)
(0.12277 0.246502 -1.58228e-20)
(0.274383 0.468199 4.60707e-20)
(0.390189 0.518368 2.60579e-20)
(0.471713 0.491199 4.28355e-20)
(0.535693 0.441623 -9.95133e-21)
(0.590916 0.392375 3.99304e-21)
(0.640179 0.348533 3.23502e-20)
(0.684758 0.309829 7.21569e-21)
(0.725556 0.275192 6.92716e-22)
(0.759421 0.245065 -1.39358e-20)
(0.105714 0.230218 -3.66539e-20)
(0.242576 0.434899 -2.68349e-21)
(0.355363 0.479915 -1.53375e-20)
(0.438928 0.45388 -6.90107e-20)
(0.506504 0.407685 -6.68359e-20)
(0.565315 0.36207 1.11611e-20)
(0.617761 0.321533 -2.75434e-20)
(0.665069 0.285788 1.75969e-20)
(0.708084 0.253882 9.5754e-21)
(0.744209 0.226058 2.00565e-20)
(0.0896845 0.211918 5.3988e-20)
(0.212982 0.398447 -4.42061e-20)
(0.323147 0.43845 -2.25059e-20)
(0.408705 0.413989 3.98998e-20)
(0.479646 0.371575 4.54809e-20)
(0.541777 0.329907 -1.5095e-20)
(0.59716 0.292934 -1.94258e-21)
(0.646978 0.260368 -5.47519e-20)
(0.692037 0.231363 -3.09967e-20)
(0.730295 0.205994 1.18339e-20)
(0.0748858 0.191751 -3.07315e-20)
(0.185895 0.359099 1.29447e-20)
(0.293806 0.394226 4.77132e-20)
(0.381264 0.371744 -2.14518e-20)
(0.455297 0.333475 1.69441e-21)
(0.520454 0.296042 6.08003e-20)
(0.578505 0.26287 2.80739e-21)
(0.630598 0.233683 5.24112e-20)
(0.677513 0.207735 2.18796e-20)
(0.717748 0.18497 -3.48125e-20)
(0.0615047 0.169887 4.2669e-20)
(0.161582 0.317135 4.73141e-21)
(0.267583 0.347517 3.10093e-21)
(0.356803 0.327379 4.36554e-20)
(0.433621 0.293583 -5.82639e-21)
(0.501483 0.260641 -3.81452e-20)
(0.561916 0.231485 1.87007e-20)
(0.616033 0.205856 -2.98942e-20)
(0.664602 0.183106 -1.25158e-20)
(0.706629 0.163087 1.26586e-20)
(0.0497089 0.146512 -2.66061e-20)
(0.140282 0.272855 -5.11649e-20)
(0.244693 0.298613 1.1836e-20)
(0.335496 0.281143 -2.31892e-20)
(0.414764 0.252108 -1.4018e-20)
(0.484989 0.223886 3.39822e-20)
(0.547498 0.198933 -8.22429e-21)
(0.603375 0.17702 7.61329e-21)
(0.653384 0.157594 -9.26187e-21)
(0.696996 0.140451 1.8372e-20)
(0.0396455 0.121827 9.64817e-21)
(0.122201 0.226578 3.44762e-20)
(0.22532 0.247819 -4.79234e-20)
(0.317499 0.233297 2.2668e-20)
(0.398851 0.209272 -1.03363e-20)
(0.471079 0.185964 -2.91038e-20)
(0.535343 0.165378 2.37614e-20)
(0.592704 0.147316 4.99317e-21)
(0.64393 0.131322 -7.67645e-22)
(0.688898 0.117173 -2.13625e-20)
(0.0314396 0.0960477 3.16365e-21)
(0.107516 0.178638 1.11199e-20)
(0.209624 0.195455 4.33774e-20)
(0.30294 0.184114 -8.32304e-21)
(0.385991 0.165304 -6.56084e-21)
(0.459844 0.147073 2.42967e-21)
(0.52553 0.130989 1.06188e-21)
(0.584091 0.116891 8.86998e-21)
(0.636301 0.10442 -1.16532e-20)
(0.682377 0.0933669 -7.41524e-21)
(0.0251933 0.0693974 -7.90178e-21)
(0.0963684 0.12938 -1.35324e-20)
(0.197733 0.14185 -3.37302e-20)
(0.291925 0.133875 1.69756e-20)
(0.376271 0.120443 1.38483e-20)
(0.451358 0.107418 5.87571e-22)
(0.518122 0.0959424 -2.31565e-20)
(0.577591 0.0858982 -1.02764e-20)
(0.630548 0.0770231 8.15763e-21)
(0.677468 0.0691475 8.72509e-21)
(0.0209849 0.0421099 1.37445e-21)
(0.0888677 0.0791622 -2.83477e-21)
(0.189744 0.0873417 6.40523e-21)
(0.284534 0.0828696 -4.33973e-21)
(0.369758 0.0749349 -3.82203e-21)
(0.445678 0.0672096 -2.59249e-21)
(0.513169 0.0604204 4.76109e-21)
(0.573249 0.0544937 1.81367e-20)
(0.626709 0.0492668 2.63053e-21)
(0.674195 0.0446273 -4.66276e-21)
(0.280823 0.0313921 -3.67572e-21)
(0.366497 0.0290293 3.49935e-21)
(0.442844 0.0266618 1.5787e-21)
(0.510705 0.0246077 -1.57316e-21)
(0.571094 0.0228385 -7.16249e-21)
(0.624808 0.0212919 2.35759e-21)
(0.672574 0.019921 -2.20499e-21)
(1.30246 0.242547 -1.37377e-22)
(1.31231 0.2328 -1.3614e-21)
(1.32155 0.222936 -2.76325e-22)
(1.33016 0.212999 -8.40816e-22)
(1.33812 0.203028 4.73184e-21)
(1.3454 0.193055 -4.48236e-21)
(1.35192 0.183105 2.82538e-21)
(1.35757 0.173188 1.16456e-20)
(1.2893 0.230067 -3.22401e-23)
(1.29894 0.221395 1.16464e-21)
(1.30811 0.212618 1.01639e-21)
(1.31679 0.203767 -5.01091e-21)
(1.32501 0.194875 1.63967e-21)
(1.33273 0.185971 -1.01507e-21)
(1.33993 0.177083 2.82502e-21)
(1.34656 0.168233 -5.53001e-21)
(1.27675 0.217429 3.65767e-22)
(1.28585 0.209682 8.36557e-22)
(1.29462 0.20185 4.84067e-22)
(1.30308 0.193962 2.46515e-21)
(1.31123 0.186042 3.28445e-21)
(1.31907 0.178114 4.8046e-21)
(1.32659 0.170201 -1.44224e-22)
(1.33377 0.162328 9.11055e-22)
(1.26533 0.205016 -1.2046e-22)
(1.27379 0.198058 -1.43246e-21)
(1.28202 0.191038 -1.33224e-21)
(1.29004 0.183978 9.80658e-22)
(1.29787 0.176897 -3.70946e-21)
(1.30551 0.169813 -8.67381e-21)
(1.31299 0.162742 3.84854e-21)
(1.32029 0.155703 4.70686e-22)
(1.25493 0.192977 1.57085e-23)
(1.26278 0.186702 7.08613e-22)
(1.27045 0.180369 1.80361e-21)
(1.27797 0.173998 6.91512e-22)
(1.28536 0.167603 -1.46317e-22)
(1.29263 0.1612 2.11087e-21)
(1.29981 0.154799 1.63603e-21)
(1.3069 0.148415 -1.86015e-21)
(1.2452 0.181291 1.09716e-24)
(1.2525 0.175602 7.47725e-22)
(1.25965 0.169857 -1.29939e-21)
(1.26669 0.164068 -9.98065e-22)
(1.27362 0.158249 6.42414e-22)
(1.28047 0.152411 1.41328e-21)
(1.28726 0.146562 -2.49155e-21)
(1.29398 0.140713 -1.20649e-21)
(1.23592 0.169893 7.09931e-23)
(1.24271 0.164719 -7.77391e-22)
(1.24939 0.159489 1.16641e-21)
(1.25597 0.154213 7.45643e-22)
(1.26247 0.1489 1.46381e-21)
(1.2689 0.143559 -6.13408e-22)
(1.27529 0.138198 -4.07921e-21)
(1.28163 0.132824 2.73159e-21)
(1.22698 0.158765 -1.68505e-22)
(1.23329 0.154049 -3.43562e-22)
(1.23951 0.149278 -3.84608e-22)
(1.24566 0.14446 -4.40845e-22)
(1.25175 0.139602 2.62706e-22)
(1.25778 0.134709 1.66325e-21)
(1.26379 0.129788 4.48715e-21)
(1.26976 0.124845 9.46644e-22)
(1.21832 0.147943 8.08123e-23)
(1.22417 0.143637 -2.20481e-23)
(1.22995 0.139276 -1.55279e-22)
(1.23568 0.134867 -7.34289e-22)
(1.24136 0.130413 -1.30513e-21)
(1.247 0.12592 -1.73997e-21)
(1.25262 0.121394 -1.17818e-21)
(1.25823 0.116836 -1.70962e-21)
(1.20987 0.137457 5.07489e-23)
(1.21528 0.13351 6.1936e-22)
(1.22063 0.12951 5.34867e-23)
(1.22594 0.125463 5.36666e-22)
(1.23122 0.121371 3.48346e-23)
(1.23648 0.117237 -2.46095e-21)
(1.24172 0.113064 -1.68436e-22)
(1.24695 0.108855 1.4598e-21)
(1.2016 0.127311 -1.22874e-22)
(1.20658 0.123687 1.59099e-22)
(1.21152 0.120014 -1.76217e-22)
(1.21643 0.116293 -3.49527e-22)
(1.22132 0.112526 -5.17486e-22)
(1.22619 0.108716 1.65604e-21)
(1.23105 0.104866 8.02419e-22)
(1.23591 0.100976 -1.37232e-21)
(1.19347 0.117535 3.94696e-23)
(1.19804 0.114201 -5.22487e-22)
(1.20259 0.11082 2.8717e-22)
(1.20711 0.107393 2.07662e-23)
(1.21161 0.103922 5.69256e-22)
(1.21611 0.100408 -5.96054e-22)
(1.2206 0.096852 8.01111e-22)
(1.22509 0.0932558 1.07498e-21)
(1.18546 0.108108 2.46439e-23)
(1.18965 0.105044 2.12563e-22)
(1.19382 0.101935 -5.11628e-22)
(1.19797 0.098781 -9.24918e-23)
(1.2021 0.0955836 -5.90621e-22)
(1.20623 0.0923435 6.56195e-22)
(1.21036 0.0890614 -2.51725e-21)
(1.21448 0.0857381 -1.53623e-21)
(1.1776 0.0990671 -6.0421e-23)
(1.18143 0.0962548 6.70797e-23)
(1.18523 0.093398 4.18033e-22)
(1.18902 0.0904975 -2.3307e-22)
(1.19279 0.0875542 9.60012e-22)
(1.19657 0.0845687 -3.43042e-22)
(1.20034 0.0815415 4.99025e-22)
(1.20411 0.078473 8.68679e-22)
(1.16988 0.0904319 5.83994e-23)
(1.17335 0.0878491 -2.2466e-23)
(1.17681 0.0852247 -3.36205e-22)
(1.18025 0.0825592 7.84401e-22)
(1.18369 0.079853 -4.59921e-22)
(1.18712 0.0771062 4.02397e-22)
(1.19055 0.074319 4.22623e-22)
(1.19398 0.0714916 1.73124e-22)
(1.16229 0.0821962 3.07933e-23)
(1.16544 0.0798305 5.47243e-23)
(1.16857 0.0774258 1.59176e-22)
(1.17169 0.0749823 -5.73148e-22)
(1.17481 0.0725003 -3.78266e-22)
(1.17791 0.0699795 7.46789e-23)
(1.18101 0.0674199 -3.76836e-22)
(1.18411 0.0648217 4.23693e-22)
(1.18721 0.0621846 -1.71092e-21)
(1.15486 0.074367 -4.54383e-23)
(1.1577 0.0722067 -1.36524e-23)
(1.16053 0.0700101 -1.13938e-24)
(1.16335 0.0677772 4.04144e-22)
(1.16616 0.0655081 2.74595e-22)
(1.16896 0.0632026 -1.76685e-22)
(1.17175 0.0608605 -3.45571e-22)
(1.17454 0.0584816 6.707e-23)
(1.17732 0.0560658 2.60643e-22)
(1.1476 0.0669479 3.18986e-23)
(1.15017 0.0649817 -6.18353e-24)
(1.15272 0.0629826 1.29049e-22)
(1.15525 0.0609503 -1.33929e-22)
(1.15778 0.0588843 -2.81999e-23)
(1.16029 0.0567845 3.71081e-22)
(1.16279 0.0546506 1.56885e-22)
(1.16529 0.0524825 -5.02822e-22)
(1.16777 0.0502797 -2.18848e-22)
(1.14055 0.0599233 -3.19918e-23)
(1.14285 0.0581435 -4.10561e-23)
(1.14515 0.056334 -2.85827e-23)
(1.14742 0.0544942 -2.09261e-23)
(1.14968 0.0526236 -2.24505e-22)
(1.15193 0.050722 2.48311e-22)
(1.15417 0.0487891 -1.75519e-22)
(1.15639 0.0468246 -4.10117e-22)
(1.1586 0.0448281 6.07566e-22)
(1.13373 0.0532806 -1.48298e-23)
(1.13581 0.0516821 4.06346e-23)
(1.13786 0.0500561 -1.37883e-23)
(1.1399 0.0484024 -5.28847e-23)
(1.14192 0.0467208 6.2246e-23)
(1.14392 0.0450109 -1.63881e-22)
(1.14591 0.0432725 2.90394e-22)
(1.14788 0.0415052 2.72e-22)
(1.14984 0.0397086 -3.87869e-23)
(1.1272 0.0470163 2.106e-23)
(1.12906 0.0455911 -2.44182e-23)
(1.1309 0.0441412 -1.37504e-23)
(1.13272 0.0426664 -6.01786e-23)
(1.13452 0.0411667 2.2755e-23)
(1.1363 0.0396416 6.19084e-23)
(1.13807 0.0380908 -2.85319e-23)
(1.13981 0.0365141 -3.16034e-22)
(1.14153 0.0349111 2.21956e-22)
(1.121 0.0411054 1.00011e-24)
(1.12266 0.0398472 -2.0412e-23)
(1.12431 0.0385673 -2.99825e-23)
(1.12593 0.0372655 1.96497e-23)
(1.12754 0.0359417 8.72251e-23)
(1.12912 0.0345954 -8.91882e-23)
(1.13068 0.0332264 -1.92307e-22)
(1.13221 0.0318344 2.25652e-22)
(1.13373 0.030419 -3.4437e-22)
(1.11517 0.0355245 -1.51619e-24)
(1.11666 0.0344277 -5.21495e-24)
(1.11814 0.0333122 3.21826e-23)
(1.11959 0.0321776 -7.69893e-24)
(1.12101 0.0310239 -7.47276e-23)
(1.12242 0.0298505 1.06531e-22)
(1.1238 0.0286574 -1.3625e-22)
(1.12515 0.0274442 -8.41339e-23)
(1.12648 0.0262106 2.72158e-22)
(1.10978 0.0302427 -5.29619e-24)
(1.11112 0.0293023 1.46911e-23)
(1.11244 0.0283459 1.75629e-23)
(1.11374 0.0273732 -2.02227e-23)
(1.11501 0.0263842 -1.67561e-24)
(1.11626 0.0253784 -9.27504e-23)
(1.11748 0.0243556 -8.74434e-24)
(1.11867 0.0233156 1.09403e-22)
(1.11983 0.0222581 -1.78834e-22)
(1.10488 0.0252243 3.48361e-25)
(1.1061 0.0244356 1.3871e-24)
(1.10729 0.0236335 7.70028e-25)
(1.10846 0.022818 1.47852e-23)
(1.10959 0.0219888 7.72784e-23)
(1.1107 0.0211456 -5.8525e-23)
(1.11179 0.0202881 3.80596e-23)
(1.11284 0.0194162 2.27661e-24)
(1.11386 0.0185296 -1.06296e-22)
(1.10056 0.0204259 2.12028e-24)
(1.10167 0.0197847 -5.1869e-24)
(1.10275 0.0191329 2.53568e-24)
(1.10381 0.0184701 -2.06855e-23)
(1.10483 0.0177962 5.54773e-24)
(1.10583 0.017111 1.93705e-23)
(1.10679 0.0164143 4.83122e-23)
(1.10773 0.0157057 1.39326e-23)
(1.10863 0.0149851 -7.44367e-24)
(1.09689 0.0158005 7.85424e-25)
(1.09791 0.015304 -4.39432e-25)
(1.0989 0.0147993 -4.40864e-24)
(1.09987 0.0142861 1.30013e-23)
(1.1008 0.0137644 -2.59505e-23)
(1.1017 0.0132338 2.21244e-23)
(1.10257 0.0126942 1.75132e-23)
(1.10341 0.0121455 -5.52492e-23)
(1.10422 0.0115872 -4.19051e-23)
(1.09397 0.0112777 -8.71909e-26)
(1.09492 0.0109232 -1.61399e-24)
(1.09584 0.0105629 7.13829e-25)
(1.09673 0.0101966 -1.27527e-23)
(1.09759 0.0098243 1.38893e-23)
(1.09842 0.00944571 8.47137e-25)
(1.09922 0.00906067 1.24637e-23)
(1.09999 0.00866902 -5.331e-23)
(1.10072 0.00827057 8.8437e-23)
(1.09189 0.00681863 1.95111e-26)
(1.09279 0.00660584 2.78311e-25)
(1.09366 0.00638943 8.0845e-25)
(1.09451 0.00616927 -3.29609e-24)
(1.09532 0.00594525 8.07741e-24)
(1.0961 0.00571722 -1.2613e-23)
(1.09684 0.00548508 1.82129e-23)
(1.09755 0.00524869 -5.35175e-24)
(1.09823 0.00500795 -1.9435e-23)
(1.09079 0.00225665 -6.02354e-26)
(1.09166 0.00218887 3.59163e-25)
(1.0925 0.00212022 4.50702e-25)
(1.09331 0.00205055 5.10407e-24)
(1.09409 0.00197973 -6.35193e-25)
(1.09484 0.00190762 9.56758e-24)
(1.09556 0.00183408 -7.19108e-24)
(1.09624 0.001759 -2.26415e-24)
(1.09689 0.00168224 -7.29645e-24)
(0.985991 0.341292 2.02579e-21)
(1.00598 0.34073 -1.4816e-21)
(1.02427 0.340884 4.4446e-21)
(1.04261 0.340779 -8.94839e-22)
(1.0616 0.340071 5.16755e-23)
(1.08048 0.3388 -4.96985e-23)
(1.0989 0.336913 -3.88089e-23)
(1.11691 0.334316 -3.99124e-22)
(1.13453 0.330976 1.06283e-22)
(1.15169 0.326905 -2.74214e-21)
(1.16837 0.322129 -2.10141e-21)
(1.18451 0.316684 2.12168e-21)
(1.2002 0.310588 -4.84951e-21)
(1.21517 0.303839 -1.31247e-21)
(1.22961 0.29622 2.45241e-21)
(1.24362 0.288044 -3.25735e-21)
(1.2568 0.279505 5.5584e-22)
(1.26918 0.270655 2.29503e-22)
(1.28089 0.261519 1.22567e-21)
(1.29198 0.252135 2.03771e-22)
(0.999743 0.324667 -3.25492e-21)
(1.01945 0.32372 2.30485e-21)
(1.03743 0.323518 -5.37347e-21)
(1.05386 0.323239 -4.14768e-21)
(1.07063 0.32226 -3.73398e-22)
(1.08753 0.320599 2.24419e-22)
(1.10399 0.318337 -3.2881e-23)
(1.12001 0.315436 1.1089e-21)
(1.13569 0.31187 -1.98218e-21)
(1.15103 0.307668 1.67488e-21)
(1.16597 0.302876 -4.16255e-22)
(1.18046 0.297513 -2.31417e-21)
(1.19453 0.291604 1.89396e-21)
(1.20796 0.285093 -1.30283e-21)
(1.22093 0.2781 3.46342e-22)
(1.2337 0.270754 -8.08442e-22)
(1.24591 0.263079 3.38068e-21)
(1.25752 0.255136 -6.60256e-22)
(1.26859 0.246968 -1.03213e-21)
(1.27919 0.238602 1.07709e-23)
(1.01385 0.306493 -1.67736e-21)
(1.03226 0.306067 -3.37307e-21)
(1.04962 0.305669 1.35579e-21)
(1.06465 0.305058 3.10668e-21)
(1.07954 0.303773 -6.2872e-22)
(1.09474 0.301766 2.36825e-23)
(1.10965 0.299183 6.23055e-23)
(1.12407 0.29607 9.35097e-22)
(1.13812 0.292411 2.64146e-21)
(1.15185 0.28822 -1.5054e-22)
(1.1652 0.283538 2.86096e-21)
(1.17813 0.278389 -4.29005e-22)
(1.19062 0.272828 -4.67737e-22)
(1.20256 0.266842 1.84179e-22)
(1.21422 0.260666 -3.03591e-21)
(1.22581 0.254019 -1.93131e-21)
(1.23685 0.247051 -1.44352e-21)
(1.24739 0.239886 -3.63996e-22)
(1.25753 0.232554 -7.93789e-22)
(1.26731 0.225062 -3.82536e-22)
(1.02709 0.289807 -3.01361e-21)
(1.04392 0.289422 4.41102e-21)
(1.06018 0.288632 -1.72888e-21)
(1.07394 0.287514 9.1749e-23)
(1.08716 0.285864 -2.93888e-22)
(1.10074 0.283596 3.9639e-22)
(1.11421 0.280814 -8.76201e-23)
(1.12723 0.277601 -1.61313e-21)
(1.13986 0.273956 -7.993e-22)
(1.15218 0.269878 2.59948e-21)
(1.16419 0.265398 -1.50494e-21)
(1.17585 0.260545 2.6628e-21)
(1.18713 0.255373 -1.90513e-22)
(1.19809 0.249894 -1.71167e-21)
(1.20849 0.24425 4.63217e-21)
(1.21857 0.238165 1.99832e-21)
(1.22859 0.231804 -5.64865e-22)
(1.2383 0.225291 7.77252e-22)
(1.24762 0.218651 1.25321e-21)
(1.25661 0.211889 1.45553e-22)
(1.03919 0.273767 5.10486e-21)
(1.0544 0.273088 -3.23671e-21)
(1.06936 0.27187 1.12737e-21)
(1.08193 0.270307 -7.0018e-22)
(1.09372 0.268359 3.46846e-22)
(1.1058 0.265933 -1.77328e-22)
(1.11791 0.26307 -6.99247e-23)
(1.12965 0.259844 8.21025e-22)
(1.14101 0.256276 -1.69243e-21)
(1.15207 0.252361 -3.04226e-21)
(1.16286 0.248115 -5.73515e-23)
(1.17336 0.243564 -1.07869e-21)
(1.18353 0.238728 6.03478e-22)
(1.1934 0.233634 -6.36235e-22)
(1.20288 0.228261 -1.36435e-21)
(1.21208 0.222768 5.66779e-23)
(1.22119 0.217104 -3.82443e-22)
(1.23006 0.211264 -1.33676e-21)
(1.23861 0.20528 -4.85014e-22)
(1.24689 0.199177 -5.74701e-23)
(1.05009 0.257892 7.8546e-23)
(1.06372 0.256905 2.47432e-21)
(1.07728 0.255378 7.18171e-22)
(1.0887 0.253521 1.26506e-21)
(1.09925 0.251381 -1.22912e-23)
(1.10998 0.248882 8.10741e-23)
(1.12082 0.246016 2.15429e-22)
(1.13139 0.24284 4.41539e-22)
(1.14159 0.239385 1.41789e-21)
(1.15151 0.235653 9.68044e-22)
(1.16121 0.231651 7.65792e-22)
(1.17066 0.2274 -5.76921e-23)
(1.17984 0.222919 3.06481e-22)
(1.18876 0.218232 1.35384e-21)
(1.19738 0.21335 -1.10347e-21)
(1.20581 0.208319 -3.32764e-22)
(1.21413 0.203175 8.89646e-22)
(1.22224 0.197879 1.00551e-21)
(1.2301 0.192448 -7.22396e-22)
(1.23774 0.186911 2.82931e-23)
(1.05977 0.242208 -2.52345e-21)
(1.0719 0.240987 -1.96482e-21)
(1.08403 0.239271 3.68452e-22)
(1.09435 0.237241 4.41991e-22)
(1.10379 0.234991 -6.79326e-22)
(1.11334 0.23247 -4.67635e-22)
(1.12301 0.229651 1.41118e-22)
(1.13248 0.226566 -1.25975e-21)
(1.14165 0.223249 -4.96393e-22)
(1.15056 0.219711 -9.13767e-23)
(1.15927 0.215958 2.03231e-22)
(1.16778 0.212004 -4.95205e-22)
(1.17607 0.207867 -8.50259e-22)
(1.18414 0.203575 1.74734e-21)
(1.19195 0.199134 3.8868e-22)
(1.19965 0.194603 -7.61671e-22)
(1.20731 0.189879 -7.156e-22)
(1.21473 0.185011 3.05728e-22)
(1.22195 0.180047 7.55281e-22)
(1.22901 0.175005 -1.00737e-22)
(1.0682 0.226858 2.56528e-21)
(1.07896 0.225463 2.75743e-22)
(1.0897 0.223634 1.18405e-21)