/*--------------------------------*- C++ -*----------------------------------*\
  =========                 |
  \\      /  F ield         | OpenFOAM: The Open Source CFD Toolbox
   \\    /   O peration     | Website:  https://openfoam.org
    \\  /    A nd           | Version:  7
     \\/     M anipulation  |
\*---------------------------------------------------------------------------*/
FoamFile
{
    version     2.0;
    format      ascii;
    class       volScalarField;
    location    "105";
    object      p;
}
// * * * * * * * * * * * * * * * * * * * * * * * * * * * * * * * * * * * * * //

dimensions      [0 2 -2 0 0 0 0];

internalField   nonuniform List<scalar> 
8500
(
-0.391674
-0.393748
-0.394514
-0.395288
-0.396453
-0.398215
-0.400712
-0.404134
-0.40863
-0.414619
-0.389838
-0.3925
-0.393502
-0.394429
-0.395638
-0.397279
-0.399423
-0.402165
-0.405492
-0.409684
-0.38829
-0.391494
-0.392715
-0.393781
-0.395021
-0.396522
-0.398281
-0.400292
-0.402353
-0.404574
-0.387144
-0.390828
-0.392249
-0.393445
-0.394709
-0.396064
-0.397424
-0.398674
-0.399409
-0.399534
-0.386504
-0.390591
-0.392192
-0.39351
-0.394799
-0.39601
-0.396972
-0.397454
-0.396835
-0.394769
-0.386459
-0.390861
-0.392619
-0.394052
-0.395369
-0.39645
-0.397026
-0.39675
-0.394783
-0.390436
-0.387077
-0.391695
-0.393584
-0.395126
-0.396479
-0.397451
-0.397665
-0.396653
-0.393375
-0.386629
-0.388402
-0.393127
-0.395119
-0.396763
-0.398162
-0.399051
-0.398938
-0.397222
-0.392701
-0.383381
-0.390444
-0.395164
-0.397228
-0.398965
-0.400421
-0.401259
-0.40086
-0.398478
-0.392829
-0.380675
-0.393188
-0.397785
-0.399885
-0.401703
-0.403225
-0.404045
-0.403408
-0.400397
-0.393794
-0.378453
-0.396584
-0.400944
-0.403038
-0.404917
-0.406508
-0.407339
-0.406515
-0.402902
-0.395586
-0.376553
-0.400555
-0.404567
-0.40661
-0.408518
-0.410167
-0.411026
-0.410061
-0.405858
-0.398145
-0.374618
-0.405005
-0.408567
-0.4105
-0.412394
-0.414068
-0.414948
-0.41387
-0.409057
-0.40134
-0.372608
-0.409822
-0.412844
-0.414601
-0.416414
-0.418058
-0.418917
-0.417732
-0.412255
-0.404474
-0.371531
-0.41489
-0.417297
-0.418804
-0.420452
-0.421977
-0.422732
-0.421435
-0.41549
-0.406816
-0.371033
-0.420104
-0.421838
-0.423013
-0.42439
-0.425681
-0.426208
-0.424567
-0.418458
-0.408545
-0.370795
-0.425375
-0.426396
-0.427149
-0.428139
-0.429079
-0.429227
-0.4271
-0.420683
-0.409326
-0.370627
-0.430643
-0.430926
-0.431169
-0.43166
-0.432092
-0.431718
-0.428936
-0.422092
-0.408722
-0.370038
-0.435883
-0.435405
-0.435068
-0.434938
-0.434733
-0.43369
-0.430085
-0.422702
-0.406583
-0.369165
-0.441103
-0.439859
-0.438866
-0.438015
-0.437056
-0.435215
-0.430652
-0.422511
-0.403435
-0.371217
-0.446349
-0.444332
-0.442623
-0.440968
-0.439158
-0.436403
-0.430774
-0.421496
-0.400429
-0.379675
-0.451694
-0.448892
-0.446423
-0.443902
-0.441162
-0.437382
-0.430582
-0.419858
-0.398197
-0.378077
-0.457237
-0.453625
-0.450361
-0.446935
-0.443199
-0.438282
-0.430173
-0.417824
-0.395594
-0.373973
-0.463082
-0.458626
-0.454548
-0.450185
-0.445391
-0.43921
-0.429628
-0.415517
-0.392476
-0.369151
-0.469339
-0.463987
-0.459082
-0.453759
-0.447833
-0.440246
-0.429008
-0.412985
-0.388929
-0.363832
-0.476102
-0.469794
-0.464052
-0.457742
-0.450589
-0.441432
-0.428337
-0.410256
-0.384978
-0.358389
-0.48345
-0.476117
-0.469527
-0.462187
-0.453685
-0.442772
-0.427599
-0.407329
-0.380705
-0.352843
-0.491433
-0.483004
-0.475552
-0.467116
-0.457113
-0.444228
-0.426748
-0.404189
-0.376158
-0.347224
-0.500072
-0.49048
-0.482141
-0.472515
-0.46083
-0.445722
-0.425713
-0.400808
-0.371369
-0.341503
-0.509356
-0.498544
-0.48928
-0.478338
-0.464752
-0.447139
-0.424412
-0.397152
-0.366339
-0.335639
-0.519237
-0.507162
-0.496919
-0.484504
-0.468755
-0.448345
-0.422761
-0.393178
-0.361051
-0.32958
-0.529634
-0.516272
-0.504976
-0.490896
-0.472675
-0.449192
-0.420668
-0.388833
-0.355466
-0.323267
-0.54043
-0.525774
-0.513328
-0.497354
-0.47632
-0.449529
-0.418045
-0.384058
-0.349533
-0.316638
-0.551467
-0.535529
-0.521815
-0.503676
-0.479477
-0.449208
-0.4148
-0.378783
-0.343188
-0.309627
-0.562552
-0.545359
-0.530238
-0.50962
-0.481929
-0.448084
-0.410839
-0.372935
-0.336361
-0.302171
-0.573451
-0.555045
-0.538354
-0.514917
-0.483458
-0.446016
-0.406067
-0.366436
-0.32898
-0.294204
-0.583898
-0.564332
-0.545882
-0.519279
-0.483853
-0.44287
-0.400391
-0.359204
-0.32097
-0.285666
-0.593592
-0.57293
-0.552511
-0.522416
-0.482915
-0.43852
-0.393715
-0.351157
-0.312255
-0.276497
-0.602207
-0.580522
-0.557906
-0.524046
-0.480457
-0.432844
-0.385949
-0.342214
-0.302766
-0.266649
-0.609401
-0.58677
-0.561725
-0.523901
-0.476309
-0.425731
-0.377005
-0.332299
-0.292438
-0.256079
-0.614819
-0.591326
-0.563631
-0.521736
-0.470322
-0.417079
-0.366801
-0.32134
-0.281214
-0.244755
-0.61811
-0.593838
-0.563305
-0.517333
-0.462361
-0.406795
-0.355261
-0.309272
-0.269049
-0.232656
-0.618934
-0.593965
-0.560456
-0.510506
-0.452316
-0.394802
-0.342316
-0.296034
-0.255899
-0.219759
-0.61697
-0.591385
-0.554832
-0.501102
-0.440098
-0.381035
-0.327914
-0.281574
-0.241709
-0.205984
-0.611928
-0.58581
-0.546225
-0.489007
-0.425642
-0.36545
-0.312018
-0.265861
-0.226422
-0.191145
-0.603556
-0.57699
-0.534471
-0.47414
-0.40891
-0.348022
-0.294608
-0.24888
-0.210029
-0.175065
-0.591646
-0.564729
-0.519453
-0.456458
-0.389885
-0.328736
-0.275655
-0.230621
-0.1926
-0.157916
-0.576043
-0.548884
-0.5011
-0.43595
-0.36857
-0.307576
-0.255119
-0.211131
-0.174114
-0.140261
-0.556643
-0.52937
-0.479392
-0.412644
-0.344988
-0.284529
-0.233036
-0.190606
-0.154476
-0.121985
-0.533399
-0.506153
-0.454353
-0.386604
-0.319193
-0.259674
-0.209832
-0.168691
-0.133832
-0.102969
-0.506321
-0.479261
-0.426062
-0.357933
-0.291293
-0.233278
-0.18512
-0.14564
-0.112271
-0.0832109
-0.475471
-0.448784
-0.394679
-0.326724
-0.261379
-0.205266
-0.159086
-0.121529
-0.0898652
-0.062774
-0.440964
-0.414886
-0.36045
-0.29299
-0.229559
-0.175727
-0.131838
-0.0964452
-0.0666908
-0.0417576
-0.40298
-0.377798
-0.323467
-0.25689
-0.195966
-0.144797
-0.103494
-0.0704821
-0.0428346
-0.0202746
-0.361757
-0.337813
-0.283204
-0.219089
-0.160829
-0.112626
-0.0741778
-0.0437415
-0.0183829
0.00158748
-0.317514
-0.295137
-0.240411
-0.179457
-0.124344
-0.0793863
-0.044027
-0.0163302
0.0065775
0.023739
-0.270458
-0.249325
-0.1963
-0.138278
-0.0866923
-0.0452516
-0.013179
0.0116522
0.0319032
0.0458341
-0.220989
-0.201369
-0.15065
-0.095843
-0.0480801
-0.0103928
0.0182502
0.0401237
0.0573081
0.0670165
-0.169601
-0.151544
-0.103616
-0.0524209
-0.00873699
0.0250152
0.0501542
0.0689833
0.0824469
0.0866752
-0.116563
-0.100312
-0.0554986
-0.00828576
0.0310971
0.0607836
0.0823715
0.0979887
0.107217
0.106643
-0.0622936
-0.048081
-0.00665422
0.0362745
0.0711762
0.0967012
0.114644
0.126725
0.131608
0.132046
-0.00723517
0.00474714
0.0425494
0.0809614
0.11125
0.13254
0.146701
0.15506
0.156544
0.157488
0.0481677
0.0577662
0.0917422
0.12547
0.151061
0.168068
0.178369
0.183073
0.181681
0.181549
0.103467
0.110564
0.140557
0.169494
0.19035
0.203057
0.209477
0.210641
0.206565
0.204576
0.158215
0.162726
0.188629
0.212727
0.228856
0.237284
0.239855
0.237586
0.230846
0.226571
0.211967
0.213844
0.235602
0.254868
0.266323
0.270535
0.269327
0.263727
0.254334
0.247577
0.264288
0.263516
0.281128
0.295624
0.302503
0.302598
0.297713
0.288889
0.276874
0.26756
0.314752
0.311352
0.32487
0.334709
0.337154
0.333269
0.324838
0.312913
0.298344
0.286465
0.362951
0.356976
0.366504
0.371852
0.370044
0.36235
0.350532
0.335651
0.318624
0.304222
0.408496
0.400032
0.405725
0.406792
0.400952
0.389655
0.374634
0.356964
0.337604
0.320757
0.451016
0.440184
0.442243
0.439285
0.429672
0.415006
0.396994
0.376725
0.355178
0.335999
0.49017
0.477119
0.475791
0.469104
0.45601
0.438238
0.417472
0.394813
0.371246
0.349876
0.525641
0.51055
0.506121
0.49604
0.479787
0.4592
0.435938
0.411118
0.385716
0.362326
0.557142
0.540217
0.533011
0.519905
0.500844
0.477755
0.452277
0.42554
0.398505
0.37329
0.58442
0.565889
0.556264
0.540532
0.519037
0.493781
0.466383
0.43799
0.409536
0.382719
0.607254
0.587366
0.575708
0.557774
0.534243
0.507173
0.478169
0.44839
0.418747
0.390568
0.625458
0.604482
0.591199
0.571511
0.546358
0.517843
0.487558
0.456675
0.42608
0.396801
0.638884
0.617101
0.602623
0.581644
0.555298
0.525719
0.49449
0.462793
0.431495
0.401396
0.64742
0.625123
0.609892
0.588101
0.561002
0.530749
0.498921
0.466706
0.434962
0.404344
0.650994
0.628483
0.612952
0.590834
0.563428
0.532898
0.500819
0.468387
0.436457
0.405613
0.649572
0.627148
0.611775
0.589821
0.562559
0.53215
0.500173
0.467825
0.435962
0.405192
0.643158
0.621125
0.606365
0.585065
0.558396
0.528507
0.496985
0.465021
0.433484
0.403076
0.631796
0.610453
0.596757
0.576595
0.550966
0.521992
0.491272
0.459994
0.429042
0.399296
0.615571
0.595206
0.583015
0.564467
0.540314
0.512645
0.48307
0.452772
0.422659
0.393868
0.594603
0.575494
0.565233
0.548759
0.52651
0.500523
0.472428
0.443399
0.414371
0.386809
0.569051
0.551461
0.543534
0.529576
0.509642
0.485703
0.459412
0.43193
0.404224
0.378148
0.53911
0.523283
0.518069
0.507048
0.48982
0.468279
0.444101
0.418437
0.392277
0.367925
0.50501
0.491169
0.489017
0.481324
0.467174
0.448361
0.42659
0.402999
0.378598
0.356185
0.467017
0.455358
0.456584
0.452581
0.441852
0.426076
0.406986
0.38571
0.363265
0.342982
0.425425
0.416118
0.421
0.421012
0.414021
0.401566
0.385411
0.366674
0.346366
0.328375
0.38056
0.373746
0.382517
0.386832
0.383864
0.374988
0.361998
0.346004
0.327996
0.312431
0.332775
0.328562
0.341413
0.350276
0.351579
0.346509
0.336891
0.323824
0.308256
0.295223
0.282448
0.280912
0.297983
0.311594
0.31738
0.316313
0.310244
0.300266
0.287255
0.276824
0.229978
0.23116
0.252541
0.27105
0.281492
0.284591
0.282222
0.275471
0.265106
0.257308
0.175784
0.179691
0.205418
0.228924
0.244152
0.251544
0.252999
0.24959
0.241929
0.236746
0.120298
0.126901
0.156956
0.185507
0.205605
0.217381
0.222752
0.222786
0.217851
0.215187
0.063967
0.0732009
0.107512
0.141097
0.166107
0.182316
0.191666
0.195239
0.193029
0.192663
0.00724345
0.0190084
0.0574507
0.0960028
0.125917
0.146568
0.15992
0.167135
0.167662
0.169122
-0.0494148
-0.0352562
0.00714216
0.0505346
0.0852998
0.110363
0.127682
0.138655
0.142121
0.144588
-0.10555
-0.0891738
-0.0430373
0.00500474
0.0445206
0.0739351
0.0951285
0.10992
0.116884
0.118755
-0.160706
-0.142332
-0.0927094
-0.0402776
0.00383989
0.0375193
0.0624328
0.080841
0.0922789
0.0931261
-0.214424
-0.194321
-0.141499
-0.0850105
-0.0364886
0.00134742
0.0298719
0.0515355
0.0673063
0.0731134
-0.266273
-0.2447
-0.189051
-0.128904
-0.0762151
-0.0343667
-0.00228897
0.0224406
0.0419909
0.0534746
-0.316091
-0.292916
-0.235086
-0.17168
-0.115095
-0.0694321
-0.0338835
-0.0061813
0.0164656
0.0322906
-0.363225
-0.338761
-0.279497
-0.213059
-0.152896
-0.103672
-0.0648063
-0.0342297
-0.0089183
0.0101903
-0.407311
-0.38134
-0.322323
-0.252746
-0.189407
-0.136915
-0.0949445
-0.0616301
-0.0338783
-0.0119388
-0.448156
-0.42104
-0.362311
-0.290498
-0.224439
-0.168984
-0.124162
-0.0882866
-0.0582726
-0.0337426
-0.485526
-0.457614
-0.39897
-0.326268
-0.257779
-0.199709
-0.152319
-0.114092
-0.0820152
-0.0551337
-0.51918
-0.490754
-0.43265
-0.359514
-0.289238
-0.228941
-0.179289
-0.138943
-0.105022
-0.0760257
-0.548933
-0.520227
-0.463253
-0.390108
-0.318649
-0.256544
-0.204957
-0.162743
-0.127207
-0.0963046
-0.574669
-0.545873
-0.490549
-0.417995
-0.345894
-0.282425
-0.229224
-0.185401
-0.148497
-0.11587
-0.596326
-0.567599
-0.514376
-0.443069
-0.37088
-0.306561
-0.251995
-0.206832
-0.168827
-0.134661
-0.613897
-0.585377
-0.534651
-0.465226
-0.393517
-0.328797
-0.27336
-0.22695
-0.188103
-0.152687
-0.627435
-0.59924
-0.551346
-0.4844
-0.413744
-0.349062
-0.293137
-0.245884
-0.206172
-0.170087
-0.637051
-0.609281
-0.564483
-0.500563
-0.431532
-0.367338
-0.311271
-0.263499
-0.22314
-0.186981
-0.642914
-0.615652
-0.574134
-0.513724
-0.446875
-0.383633
-0.327772
-0.279774
-0.239021
-0.202749
-0.645244
-0.618564
-0.580424
-0.523926
-0.459788
-0.39796
-0.342661
-0.294713
-0.253753
-0.217244
-0.644315
-0.618282
-0.583522
-0.531248
-0.470311
-0.410348
-0.355962
-0.30833
-0.267342
-0.23065
-0.640438
-0.615122
-0.583649
-0.535811
-0.478508
-0.42084
-0.36771
-0.320654
-0.279846
-0.243156
-0.63396
-0.609433
-0.581074
-0.53777
-0.484468
-0.429497
-0.377957
-0.331738
-0.29132
-0.254852
-0.62525
-0.601587
-0.576107
-0.537321
-0.488302
-0.436396
-0.386767
-0.34164
-0.301814
-0.265769
-0.614691
-0.59197
-0.569096
-0.534693
-0.490144
-0.441626
-0.394212
-0.350424
-0.311373
-0.27593
-0.602668
-0.580967
-0.560411
-0.530147
-0.49015
-0.445287
-0.400371
-0.358158
-0.320049
-0.285368
-0.589557
-0.56895
-0.550432
-0.523969
-0.488493
-0.447486
-0.405322
-0.364909
-0.327902
-0.294123
-0.575716
-0.556273
-0.539533
-0.516469
-0.485365
-0.448337
-0.409147
-0.37075
-0.334998
-0.302245
-0.561474
-0.543257
-0.52807
-0.507966
-0.480972
-0.447961
-0.411927
-0.375749
-0.341403
-0.309791
-0.547127
-0.530189
-0.516361
-0.498782
-0.475539
-0.446485
-0.41374
-0.379971
-0.347181
-0.316819
-0.532928
-0.517315
-0.504684
-0.489226
-0.469296
-0.444041
-0.41466
-0.383474
-0.352392
-0.32339
-0.51909
-0.504835
-0.493267
-0.479579
-0.462484
-0.440767
-0.414759
-0.386306
-0.357088
-0.329562
-0.505779
-0.492902
-0.48229
-0.470077
-0.455336
-0.436809
-0.414104
-0.388506
-0.361312
-0.335393
-0.493121
-0.481627
-0.471887
-0.460903
-0.448074
-0.432319
-0.412762
-0.390102
-0.365094
-0.340938
-0.481205
-0.47108
-0.462149
-0.452187
-0.440887
-0.427453
-0.410803
-0.391114
-0.368451
-0.346246
-0.470088
-0.461297
-0.453125
-0.444011
-0.433924
-0.422368
-0.408308
-0.391558
-0.371383
-0.351368
-0.459807
-0.452293
-0.444832
-0.436421
-0.427286
-0.417209
-0.405369
-0.391453
-0.373878
-0.356347
-0.450383
-0.444066
-0.437267
-0.429439
-0.421032
-0.412103
-0.402096
-0.390831
-0.37591
-0.361246
-0.441837
-0.436613
-0.430417
-0.423069
-0.415206
-0.407151
-0.398612
-0.389744
-0.377464
-0.366095
-0.434187
-0.429929
-0.424268
-0.417316
-0.409845
-0.402437
-0.395046
-0.38828
-0.37851
-0.371045
-0.427455
-0.424019
-0.418818
-0.412191
-0.404998
-0.39805
-0.391529
-0.386545
-0.379112
-0.375948
-0.421647
-0.418897
-0.414076
-0.407717
-0.400727
-0.394093
-0.3882
-0.384696
-0.379248
-0.381102
-0.416784
-0.414555
-0.410049
-0.403924
-0.3971
-0.390681
-0.385237
-0.382855
-0.37898
-0.385186
-0.412867
-0.410977
-0.406743
-0.400838
-0.394181
-0.387934
-0.382864
-0.381031
-0.379589
-0.378431
-0.409845
-0.408139
-0.404143
-0.398469
-0.392012
-0.385955
-0.381264
-0.37942
-0.38099
-0.376
-0.407647
-0.405989
-0.402211
-0.396793
-0.3906
-0.384803
-0.380539
-0.378516
-0.382873
-0.376648
-0.406175
-0.404454
-0.400881
-0.395758
-0.38991
-0.384476
-0.380698
-0.378661
-0.384881
-0.378277
-0.405308
-0.40344
-0.400066
-0.395282
-0.389864
-0.384909
-0.381675
-0.379927
-0.386963
-0.380956
-0.404903
-0.40285
-0.399671
-0.395263
-0.390354
-0.385985
-0.383356
-0.382196
-0.389317
-0.385045
-0.404824
-0.402575
-0.399595
-0.395596
-0.391258
-0.387559
-0.3856
-0.385231
-0.392152
-0.390359
-0.404934
-0.402512
-0.39974
-0.396173
-0.392448
-0.389477
-0.388241
-0.38877
-0.395523
-0.396392
-0.405109
-0.402565
-0.400015
-0.396895
-0.393802
-0.391585
-0.391102
-0.392552
-0.399308
-0.40264
-0.405241
-0.402647
-0.400335
-0.397666
-0.395206
-0.393735
-0.394003
-0.39634
-0.403268
-0.408697
-0.405236
-0.402681
-0.400625
-0.398402
-0.396553
-0.395792
-0.396776
-0.399923
-0.40713
-0.41428
-0.405021
-0.402602
-0.400817
-0.399028
-0.397751
-0.39764
-0.399273
-0.403122
-0.410639
-0.41916
-0.404542
-0.402357
-0.400858
-0.399481
-0.398724
-0.399183
-0.401371
-0.40579
-0.413582
-0.42315
-0.403765
-0.40191
-0.400706
-0.399712
-0.399412
-0.400349
-0.402983
-0.407821
-0.4158
-0.426093
-0.402677
-0.401239
-0.400334
-0.399692
-0.399781
-0.401096
-0.404053
-0.40915
-0.417186
-0.42787
-0.401288
-0.400342
-0.399738
-0.399409
-0.399818
-0.401413
-0.404567
-0.409757
-0.417696
-0.428393
-0.39963
-0.399238
-0.398928
-0.398878
-0.399541
-0.401319
-0.404545
-0.409667
-0.417335
-0.427651
-0.397754
-0.397963
-0.397937
-0.398135
-0.398992
-0.400864
-0.404047
-0.408943
-0.416081
-0.425813
-0.395742
-0.396571
-0.396821
-0.397236
-0.398234
-0.400127
-0.403163
-0.407685
-0.414108
-0.422928
-0.39368
-0.395137
-0.395652
-0.396257
-0.397355
-0.399205
-0.402007
-0.40603
-0.411567
-0.41912
-0.429226
-0.453689
-0.489312
-0.518034
-0.517088
-0.460468
-0.373225
-0.290174
-0.23931
-0.233186
-0.248328
-0.251319
-0.213303
-0.159113
-0.116735
-0.0999493
-0.0895152
-0.106668
-0.109611
-0.0984387
-0.0887957
-0.0817961
-0.0552171
-0.0528939
-0.0574482
-0.0677042
-0.058893
-0.0502574
-0.0105293
-0.0125306
-0.420892
-0.439511
-0.468337
-0.491009
-0.487944
-0.435617
-0.357258
-0.283002
-0.24098
-0.243455
-0.265059
-0.266678
-0.224122
-0.164861
-0.117914
-0.0982131
-0.0855437
-0.100439
-0.101813
-0.0935988
-0.0870143
-0.0810735
-0.0552331
-0.0534781
-0.0582497
-0.06853
-0.0587317
-0.0499858
-0.0110879
-0.0127199
-0.412444
-0.424696
-0.446088
-0.462071
-0.456491
-0.408448
-0.339201
-0.273849
-0.2413
-0.252748
-0.281099
-0.280863
-0.23392
-0.170028
-0.118895
-0.0964463
-0.0817445
-0.0944181
-0.094242
-0.0887169
-0.085145
-0.0802807
-0.0552649
-0.0540743
-0.0590846
-0.0693316
-0.0585361
-0.0497052
-0.0116877
-0.0129421
-0.404264
-0.409761
-0.423213
-0.431853
-0.423177
-0.379138
-0.319044
-0.262584
-0.240078
-0.260891
-0.296096
-0.293782
-0.242672
-0.174621
-0.119706
-0.0946832
-0.078158
-0.088664
-0.0869775
-0.083823
-0.0831973
-0.0794239
-0.0553153
-0.05468
-0.0599491
-0.0701037
-0.0583059
-0.0494143
-0.0123252
-0.0131952
-0.39668
-0.395183
-0.400352
-0.401044
-0.388573
-0.347977
-0.296708
-0.249159
-0.237149
-0.267709
-0.309705
-0.305346
-0.250365
-0.178652
-0.120372
-0.0929533
-0.0748127
-0.0832279
-0.0800884
-0.0789512
-0.0811819
-0.0785099
-0.0553868
-0.0552922
-0.0608385
-0.0708409
-0.0580404
-0.0491117
-0.0129968
-0.0134768
-0.38994
-0.381357
-0.378089
-0.370378
-0.353262
-0.315541
-0.272193
-0.233615
-0.232391
-0.273017
-0.321615
-0.315469
-0.256994
-0.182135
-0.120918
-0.0912819
-0.0717262
-0.0781499
-0.0736331
-0.0741401
-0.0791111
-0.0775453
-0.0554814
-0.0559083
-0.0617478
-0.0715378
-0.0577391
-0.0487956
-0.0136982
-0.013784
-0.384241
-0.368643
-0.356993
-0.340568
-0.317911
-0.282345
-0.245968
-0.216092
-0.225754
-0.276633
-0.331566
-0.324071
-0.262566
-0.18509
-0.121364
-0.0896894
-0.0689055
-0.0734583
-0.0676579
-0.0694329
-0.0769983
-0.0765363
-0.0556004
-0.0565255
-0.0626715
-0.0721892
-0.0574015
-0.0484638
-0.0144249
-0.0141133
-0.379707
-0.35733
-0.337544
-0.312334
-0.292195
-0.249047
-0.218641
-0.196848
-0.217274
-0.278391
-0.339365
-0.331082
-0.267093
-0.187538
-0.12173
-0.0881921
-0.0663484
-0.0691695
-0.0621966
-0.0648756
-0.0748585
-0.075489
-0.0557451
-0.0571408
-0.0636033
-0.0727901
-0.0570271
-0.0481139
-0.0151714
-0.0144606
-0.376387
-0.347616
-0.320118
-0.285937
-0.257957
-0.216102
-0.1908
-0.176275
-0.207084
-0.278165
-0.344885
-0.336453
-0.270598
-0.189503
-0.12203
-0.0868023
-0.064046
-0.0652869
-0.0572701
-0.0605155
-0.0727082
-0.0744085
-0.0559157
-0.0577511
-0.0645364
-0.0733357
-0.0566156
-0.0477435
-0.0159323
-0.0148215
-0.374248
-0.339617
-0.305003
-0.262092
-0.226542
-0.184375
-0.163189
-0.154882
-0.195402
-0.275894
-0.348057
-0.340155
-0.27311
-0.191008
-0.122276
-0.0855286
-0.061984
-0.0618013
-0.0528869
-0.0563979
-0.0705649
-0.0732994
-0.0561123
-0.0583532
-0.065464
-0.0738211
-0.0561665
-0.04735
-0.0167013
-0.0151909
-0.373195
-0.333366
-0.292371
-0.241283
-0.198687
-0.154471
-0.136708
-0.133262
-0.182514
-0.271598
-0.348876
-0.342184
-0.274662
-0.19208
-0.122477
-0.0843774
-0.0601457
-0.0586921
-0.0490432
-0.0525627
-0.0684477
-0.0721652
-0.0563341
-0.058944
-0.0663788
-0.0742418
-0.0556797
-0.0469309
-0.0174719
-0.0155633
-0.373173
-0.328797
-0.282274
-0.223779
-0.174456
-0.126862
-0.112289
-0.112057
-0.168748
-0.265374
-0.347401
-0.342565
-0.275296
-0.192746
-0.122642
-0.0833555
-0.0585143
-0.0559298
-0.0457246
-0.0490415
-0.0663762
-0.0710085
-0.05658
-0.0595201
-0.0672734
-0.0745934
-0.055155
-0.0464837
-0.0182375
-0.0159329
-0.373957
-0.325658
-0.274678
-0.20971
-0.15394
-0.105035
-0.0882926
-0.091863
-0.15445
-0.25739
-0.343756
-0.341348
-0.275056
-0.19304
-0.122783
-0.0824696
-0.0570741
-0.0534774
-0.0429069
-0.0458551
-0.0643701
-0.0698304
-0.0568482
-0.060078
-0.0681405
-0.0748716
-0.0545924
-0.0460057
-0.018991
-0.0162937
-0.374531
-0.323761
-0.269433
-0.198987
-0.137059
-0.0870117
-0.0675505
-0.0732241
-0.139963
-0.247865
-0.338118
-0.338604
-0.273986
-0.192988
-0.122896
-0.0817146
-0.0558048
-0.0512901
-0.040553
-0.0430195
-0.0624487
-0.0686303
-0.0571367
-0.060614
-0.0689728
-0.0750725
-0.0539921
-0.0454939
-0.0197248
-0.0166395
-0.375065
-0.323355
-0.265843
-0.191193
-0.124369
-0.0728872
-0.0503724
-0.0565533
-0.125607
-0.237053
-0.33069
-0.334423
-0.272117
-0.192575
-0.122939
-0.0810578
-0.0546764
-0.0493193
-0.0386075
-0.0405258
-0.0606307
-0.0674059
-0.0574426
-0.0611244
-0.0697636
-0.075194
-0.0533544
-0.0449463
-0.0204304
-0.016964
-0.375396
-0.32363
-0.264214
-0.186637
-0.115409
-0.0628396
-0.0367681
-0.0421441
-0.111668
-0.22523
-0.321679
-0.328931
-0.269486
-0.191785
-0.122876
-0.0804781
-0.0536701
-0.0475311
-0.0370143
-0.037622
-0.0589295
-0.0661526
-0.0577631
-0.0616055
-0.0705078
-0.0752345
-0.0526795
-0.0443631
-0.0211017
-0.0172616
-0.375281
-0.324136
-0.263784
-0.184728
-0.110243
-0.0583362
-0.0266606
-0.0301536
-0.0983934
-0.21269
-0.311336
-0.322296
-0.266227
-0.1908
-0.122882
-0.0801096
-0.0528443
-0.0459341
-0.0357831
-0.0358644
-0.0573565
-0.0648625
-0.0580946
-0.0620526
-0.0711974
-0.075182
-0.0519654
-0.0437478
-0.0217407
-0.0175276
-0.374533
-0.324656
-0.264346
-0.185219
-0.108144
-0.0526449
-0.0198896
-0.0206022
-0.085959
-0.199695
-0.299949
-0.314495
-0.262599
-0.190094
-0.123369
-0.0802371
-0.0523183
-0.0445416
-0.0349536
-0.0345029
-0.0559511
-0.0635242
-0.0584329
-0.0624556
-0.071799
-0.0750003
-0.0512114
-0.0431016
-0.0223521
-0.0177598
-0.373657
-0.325593
-0.266423
-0.188653
-0.109799
-0.049888
-0.0167023
-0.0136095
-0.0743511
-0.186017
-0.287173
-0.305045
-0.258359
-0.189342
-0.123966
-0.0805458
-0.0519046
-0.0431848
-0.0342989
-0.033547
-0.0548071
-0.0621295
-0.0587742
-0.0627944
-0.0722865
-0.0746929
-0.0504313
-0.0424114
-0.022902
-0.0179509
-0.371284
-0.324458
-0.266975
-0.191835
-0.113125
-0.0528994
-0.0165055
-0.00981488
-0.0650274
-0.172881
-0.273848
-0.294914
-0.251883
-0.18565
-0.122044
-0.0791161
-0.0506628
-0.0414252
-0.0329766
-0.0323155
-0.0534079
-0.0606579
-0.0591323
-0.063194
-0.0729581
-0.0745023
-0.049655
-0.0416479
-0.0232704
-0.0180724
-0.355588
-0.315567
-0.258812
-0.185142
-0.107135
-0.0469975
-0.0129733
-0.00566899
-0.0587142
-0.166763
-0.26837
-0.287079
-0.242542
-0.177641
-0.116424
-0.0749472
-0.0480325
-0.0389912
-0.0301243
-0.0288902
-0.0489194
-0.0577115
-0.0599593
-0.0646251
-0.0748401
-0.0748662
-0.0487073
-0.0406401
-0.0234602
-0.0181611
-0.336548
-0.299224
-0.244188
-0.175553
-0.102886
-0.0473936
-0.0162876
-0.00973948
-0.0590016
-0.159587
-0.253399
-0.269766
-0.226574
-0.166196
-0.109512
-0.07073
-0.045405
-0.0361439
-0.0279685
-0.0284287
-0.0465541
-0.0565504
-0.0606253
-0.0653711
-0.0752852
-0.0744037
-0.0468888
-0.0391152
-0.0238861
-0.018616
-0.317509
-0.282178
-0.229773
-0.167237
-0.101158
-0.0504768
-0.0225811
-0.0178213
-0.0631906
-0.153321
-0.236818
-0.25035
-0.210008
-0.154777
-0.102665
-0.0664619
-0.0426698
-0.0333019
-0.0258979
-0.028169
-0.0449579
-0.0563253
-0.0610516
-0.0656805
-0.0751749
-0.0735313
-0.0448556
-0.0373877
-0.0242738
-0.0191401
-0.298526
-0.265405
-0.216406
-0.16046
-0.101456
-0.0557802
-0.030853
-0.0272868
-0.06765
-0.14639
-0.218453
-0.229491
-0.192914
-0.143043
-0.0956001
-0.0620782
-0.0398295
-0.0303977
-0.0238203
-0.0277238
-0.0431644
-0.0560335
-0.0614091
-0.065985
-0.074905
-0.0722636
-0.042611
-0.0353913
-0.0245771
-0.0196374
-0.278991
-0.24896
-0.203964
-0.154608
-0.102856
-0.0621809
-0.039963
-0.0370162
-0.0714281
-0.138177
-0.198693
-0.207795
-0.175681
-0.131297
-0.0884593
-0.0575995
-0.0368694
-0.0273992
-0.0216406
-0.0271745
-0.0411013
-0.0555061
-0.0617979
-0.06631
-0.0743059
-0.0705099
-0.0401179
-0.033114
-0.0247524
-0.0200998
-0.259101
-0.233019
-0.192265
-0.149221
-0.104652
-0.0686382
-0.0488333
-0.046092
-0.0741497
-0.12891
-0.178552
-0.186163
-0.158795
-0.119753
-0.0813147
-0.0530412
-0.0337751
-0.0242761
-0.0192782
-0.0264127
-0.0387671
-0.0548242
-0.0621536
-0.0664916
-0.0732267
-0.0682038
-0.0373513
-0.0305302
-0.0247468
-0.0205122
-0.239465
-0.217548
-0.182186
-0.144041
-0.105903
-0.0744372
-0.0567365
-0.0538508
-0.07569
-0.119211
-0.159068
-0.165456
-0.142651
-0.108593
-0.0742496
-0.0484243
-0.0305339
-0.0209959
-0.0166385
-0.025285
-0.0360701
-0.0539449
-0.062305
-0.0663941
-0.0715699
-0.0652813
-0.0342855
-0.0276167
-0.0245
-0.0208395
-0.220431
-0.202502
-0.171628
-0.138785
-0.106427
-0.0791464
-0.0632732
-0.0600036
-0.0762059
-0.109758
-0.141065
-0.146299
-0.127527
-0.0979491
-0.0673288
-0.0437683
-0.0271332
-0.0175249
-0.0136122
-0.0236071
-0.0328227
-0.052638
-0.0620659
-0.06591
-0.0692309
-0.0616799
-0.0308971
-0.0243487
-0.0239434
-0.0210347
-0.202201
-0.187942
-0.161501
-0.133366
-0.106044
-0.0825668
-0.0683153
-0.0645649
-0.0759492
-0.101036
-0.125017
-0.129029
-0.113576
-0.0879
-0.0606034
-0.0390947
-0.0235641
-0.01383
-0.0100778
-0.0211372
-0.0287459
-0.0505402
-0.0612504
-0.0648995
-0.0661029
-0.0573458
-0.0271674
-0.020702
-0.0230006
-0.021042
-0.184924
-0.173916
-0.151674
-0.12773
-0.104741
-0.0846743
-0.0718936
-0.0676785
-0.075117
-0.0932329
-0.111034
-0.113715
-0.100842
-0.0784869
-0.0541124
-0.0344279
-0.0198238
-0.00988108
-0.00591158
-0.017569
-0.0234708
-0.0471921
-0.0596515
-0.063179
-0.0620946
-0.0522424
-0.0230852
-0.0166544
-0.0215896
-0.020796
-0.168661
-0.160447
-0.142063
-0.121861
-0.102583
-0.085533
-0.0741077
-0.0695149
-0.0738177
-0.0863059
-0.0989704
-0.100263
-0.0893027
-0.0697255
-0.0478857
-0.0297962
-0.0159199
-0.00565864
-0.00100413
-0.0125525
-0.0165566
-0.0420451
-0.0570474
-0.0605459
-0.0571444
-0.0463594
-0.0186506
-0.0121885
-0.0196257
-0.0202225
-0.153412
-0.147556
-0.132632
-0.115768
-0.0996655
-0.0852529
-0.0750857
-0.070234
-0.0721056
-0.0801236
-0.0885762
-0.0885002
-0.0788969
-0.0616158
-0.0419479
-0.0252328
-0.011873
-0.0011675
0.00471396
-0.00573859
-0.00755684
-0.0345031
-0.0532274
-0.0568096
-0.0512397
-0.039724
-0.0138792
-0.00729584
-0.0170271
-0.0192399
-0.139159
-0.135261
-0.123378
-0.109472
-0.0960935
-0.0839671
-0.0749656
-0.0699803
-0.0700137
-0.0745374
-0.0795844
-0.078226
-0.0695454
-0.0541484
-0.0363201
-0.0207769
-0.00772169
0.00354734
0.0112237
0.00314228
0.00386073
-0.0240492
-0.0480304
-0.0518315
-0.0444333
-0.0324111
-0.00880668
-0.0019821
-0.0137252
-0.0177647
-0.125878
-0.123578
-0.114319
-0.103013
-0.0919745
-0.0818183
-0.0738891
-0.0688925
-0.0675613
-0.0694108
-0.0717484
-0.0692461
-0.0611635
-0.0473073
-0.0310207
-0.0164716
-0.0035319
0.00839031
0.0183449
0.0141054
0.0177151
-0.0104827
-0.0414008
-0.045568
-0.0368512
-0.0245525
-0.00349179
0.00372393
-0.00967572
-0.0157208
-0.113538
-0.11252
-0.10549
-0.0964454
-0.0874158
-0.0789525
-0.0720042
-0.0670959
-0.0647913
-0.0646345
-0.064858
-0.0613822
-0.0536679
-0.04107
-0.0260667
-0.0123574
0.000596645
0.0132155
0.0256787
0.0266283
0.0333444
0.00570051
-0.0333977
-0.038092
-0.0286807
-0.0163386
0.00198442
0.00975858
-0.00487546
-0.0130538
-0.102106
-0.102095
-0.0969317
-0.0898306
-0.082523
-0.0755134
-0.0694667
-0.064724
-0.0617483
-0.0601302
-0.0587421
-0.0544761
-0.0469791
-0.0354075
-0.0214757
-0.00846748
0.00454184
0.0178372
0.0326262
0.0393987
0.048889
0.0228954
-0.0240289
-0.0295681
-0.0201605
-0.00801409
0.00751682
0.0160194
0.000614297
-0.0097493
-0.0915503
-0.0923121
-0.088688
-0.083238
-0.0773997
-0.0716355
-0.0664245
-0.0618921
-0.0584901
-0.055846
-0.053264
-0.0483899
-0.0410223
-0.0302861
-0.0172657
-0.00483222
0.00818401
0.022047
0.038574
0.0503641
0.0616441
0.0386398
-0.0131468
-0.0202323
-0.011579
0.000139063
0.0129663
0.0223755
0.00664226
-0.00585809
-0.0818377
-0.0831749
-0.0808029
-0.0767379
-0.0721441
-0.0674386
-0.0630293
-0.0587051
-0.0550779
-0.0517508
-0.0483179
-0.0430053
-0.0357278
-0.0256711
-0.0134511
-0.00148718
0.0114218
0.025643
0.0430729
0.0577053
0.0696927
0.0508326
-0.000902769
-0.00891946
-0.00323797
0.00783686
0.0181736
0.0286427
0.0129523
-0.00152458
-0.0729365
-0.0746859
-0.0733177
-0.0704007
-0.066851
-0.0630086
-0.0589721
-0.0552396
-0.0515723
-0.0478299
-0.0438235
-0.0382232
-0.0310316
-0.0215315
-0.010038
0.00152468
0.0141792
0.0284625
0.0458941
0.0612314
0.0728275
0.0586813
0.01152
0.00106041
0.00449007
0.0148403
0.0229673
0.0345417
0.0191847
0.00299456
-0.0648166
-0.0668457
-0.0662706
-0.0642951
-0.0616249
-0.0585497
-0.0551672
-0.0516772
-0.0480448
-0.0440831
-0.0397225
-0.0339633
-0.0268757
-0.017841
-0.00702177
0.00416081
0.0164205
0.0304357
0.0471259
0.0618256
0.072408
0.0625393
0.0225534
0.00986485
0.0113815
0.0209834
0.0272018
0.0396789
0.0249996
0.00733959
-0.0574498
-0.0596537
-0.0596957
-0.0584839
-0.056548
-0.0541278
-0.0512788
-0.0480833
-0.0445562
-0.0405194
-0.035974
-0.0301629
-0.0232085
-0.0145777
-0.00438916
0.00639514
0.018152
0.0315995
0.0470809
0.0605315
0.0699348
0.0633665
0.0311936
0.0175332
0.0173598
0.0261785
0.0307931
0.0436183
0.0296984
0.0110887
-0.050811
-0.0531087
-0.0536227
-0.0530229
-0.0516925
-0.0498218
-0.0474251
-0.0445348
-0.0411635
-0.0371555
-0.0325523
-0.0267752
-0.019985
-0.0117209
-0.0021215
0.00822783
0.0194121
0.0320752
0.0461458
0.0581916
0.0664597
0.0622512
0.0372646
0.0239179
0.0224422
0.0303962
0.0337189
0.0460418
0.0329729
0.0138706
-0.0448793
-0.0472102
-0.0480787
-0.0479629
-0.047126
-0.0457118
-0.0437034
-0.041107
-0.037922
-0.0340137
-0.0294438
-0.0237666
-0.0171673
-0.0092493
-0.000196011
0.00968316
0.0202607
0.0320233
0.044675
0.0553803
0.0626303
0.0600919
0.041197
0.0290375
0.0266839
0.0336517
0.0360045
0.0467863
0.0347144
0.0155433
-0.0396388
-0.0419599
-0.0430889
-0.0433508
-0.0429116
-0.0418728
-0.0401958
-0.0378712
-0.0348852
-0.0311211
-0.0266455
-0.021115
-0.0147245
-0.00713967
0.00141322
0.0108023
0.0207676
0.0316096
0.0429424
0.0524666
0.0588374