/*--------------------------------*- C++ -*----------------------------------*\
  =========                 |
  \\      /  F ield         | OpenFOAM: The Open Source CFD Toolbox
   \\    /   O peration     | Website:  https://openfoam.org
    \\  /    A nd           | Version:  7
     \\/     M anipulation  |
\*---------------------------------------------------------------------------*/
FoamFile
{
    version     2.0;
    format      ascii;
    class       surfaceScalarField;
    location    "105";
    object      phi;
}
// * * * * * * * * * * * * * * * * * * * * * * * * * * * * * * * * * * * * * //

dimensions      [0 3 -1 0 0 0 0];

internalField   nonuniform List<scalar> 
16735
(
-8.14493e-05
-0.00139861
0.00148006
-0.000307242
-0.00382308
0.00404887
-0.000670763
-0.00599009
0.00635361
-0.00115541
-0.00783871
0.00832336
-0.00173506
-0.00943571
0.0100153
-0.00237997
-0.0109397
0.0115846
-0.00306515
-0.0125241
0.0132093
-0.00377778
-0.0143086
0.0150212
-0.00451951
-0.016325
0.0170668
-0.0184974
0.0192837
-0.00530575
-0.000107594
-0.00129102
-0.000390892
-0.00353978
-0.000831403
-0.00554958
-0.00140468
-0.00726543
-0.00208139
-0.00875899
-0.00283305
-0.010188
-0.00363951
-0.0117177
-0.00449613
-0.0134519
-0.00541612
-0.015405
-0.0174831
-0.00643048
-0.000131942
-0.00115908
-0.000467594
-0.00320413
-0.000976626
-0.00504055
-0.00162689
-0.00661517
-0.00238569
-0.00800019
-0.00322465
-0.00934906
-0.00412597
-0.0108163
-0.0050893
-0.0124886
-0.00613532
-0.014359
-0.0163123
-0.00730614
-0.000153589
-0.00100549
-0.000534834
-0.00282289
-0.0011022
-0.00447319
-0.00181626
-0.0059011
-0.00264081
-0.00717565
-0.00354634
-0.00844352
-0.00451457
-0.00984811
-0.00554499
-0.0114582
-0.00666067
-0.0132433
-0.0150632
-0.00790973
-0.000171701
-0.000833785
-0.00059033
-0.00240426
-0.00120431
-0.00385921
-0.00196762
-0.00513779
-0.00284045
-0.00630282
-0.00379098
-0.007493
-0.00479753
-0.00884156
-0.00585465
-0.0104011
-0.00698191
-0.0121161
-0.0138179
-0.00822718
-0.000185531
-0.000648254
-0.000632055
-0.00195773
-0.00127957
-0.0032117
-0.00207631
-0.00434105
-0.00297887
-0.00540026
-0.00395206
-0.00651981
-0.00496819
-0.00782543
-0.00601196
-0.0093573
-0.00709295
-0.0110351
-0.0126604
-0.00825051
-0.00019445
-0.000453804
-0.000658289
-0.00149389
-0.00132501
-0.00254498
-0.00213805
-0.003528
-0.00305052
-0.0044878
-0.00402302
-0.0055473
-0.00501969
-0.00682876
-0.00601077
-0.00836622
-0.00698911
-0.0100567
-0.0116759
-0.00797359
-0.000197978
-0.000255826
-0.000667681
-0.00102419
-0.00133818
-0.00187448
-0.00214905
-0.00271713
-0.00304993
-0.00358691
-0.00399671
-0.00460053
-0.00494378
-0.00588169
-0.00584297
-0.00746702
-0.00666406
-0.00923566
-0.0109507
-0.00738929
-0.000195827
-5.99992e-05
-0.000659356
-0.000560662
-0.00131729
-0.00121655
-0.00210609
-0.00192833
-0.00297185
-0.00272115
-0.0038652
-0.00370717
-0.00473003
-0.00501686
-0.00549682
-0.00670023
-0.00610702
-0.00862546
-0.0105698
-0.00648784
-0.000187952
0.000127952
-0.000633045
-0.000115569
-0.00126144
-0.000588157
-0.00200694
-0.00118283
-0.00281167
-0.00191643
-0.00362036
-0.00289848
-0.00436612
-0.00427111
-0.00495652
-0.00610983
-0.00530109
-0.00828088
-0.0106131
-0.0052578
-0.00017459
0.000302542
-0.00058922
0.000299061
-0.00117094
-6.44065e-06
-0.00185094
-0.000502821
-0.00256644
-0.00120094
-0.00325511
-0.0022098
-0.0038393
-0.00368692
-0.00420379
-0.00574534
-0.00422387
-0.00826081
-0.0111468
-0.00369024
-0.000156298
0.00045884
-0.000529201
0.000671964
-0.00104759
0.000511949
-0.00163956
8.91456e-05
-0.00223596
-0.000604529
-0.00276548
-0.00168028
-0.00313934
-0.00331306
-0.0032206
-0.00566408
-0.00284682
-0.00863459
-0.0122005
-0.00179313
-0.000133957
0.000592798
-0.000455243
0.00099325
-0.000894784
0.000951489
-0.001377
0.000571358
-0.00182399
-0.000157537
-0.00215296
-0.00135131
-0.00226281
-0.0032032
-0.00199655
-0.00593035
-0.00111325
-0.00951789
-0.0137107
0.000397019
-0.000108731
0.000701529
-0.000370415
0.00125493
-0.000717709
0.00129878
-0.00107002
0.000923671
-0.00133875
0.000111194
-0.00142604
-0.00126402
-0.00121673
-0.00341251
-0.000556158
-0.00659092
0.000938533
-0.0110126
-0.015953
0.00318077
-8.19648e-05
0.000783493
-0.000278383
0.00145135
-0.000522662
0.00154306
-0.000727793
0.0011288
-0.000792696
0.000176097
-0.000600288
-0.00145643
-1.07887e-05
-0.00400201
0.00112815
-0.00772986
0.00319495
-0.0130794
-0.0189505
0.00619252
-5.50549e-05
0.000838548
-0.000183042
0.00157934
-0.000316568
0.00167659
-0.00036086
0.00117309
-0.000200366
1.56037e-05
0.000302635
-0.00195943
0.00130995
-0.00500933
0.00300008
-0.00941999
0.00571607
-0.0157954
-0.0226034
0.00936894
-2.92717e-05
0.00086782
-8.80238e-05
0.00163809
-0.000105999
0.00169456
1.99851e-05
0.00104711
0.000424477
-0.000388888
0.00126612
-0.00280107
0.00272945
-0.00647266
0.00499788
-0.0116884
0.00838573
-0.0191832
-0.0267872
0.0125695
-5.60421e-06
0.000873424
4.24053e-06
0.00162825
0.000104137
0.00159467
0.000410077
0.000741169
0.00107147
-0.00105028
0.002272
-0.00400161
0.00421698
-0.00841763
0.00709228
-0.0145637
0.0110982
-0.0231891
-0.031341
0.015652
1.53393e-05
0.000858085
9.08243e-05
0.00155276
0.000310591
0.0013749
0.000802214
0.000249547
0.00173483
-0.0019829
0.00331378
-0.00558055
0.00575678
-0.0108606
0.00925022
-0.0180572
0.013754
-0.0276929
-0.0360872
0.0185002
3.35172e-05
0.000824568
0.000172749
0.00141353
0.000513156
0.00103449
0.00119777
-0.00043507
0.00241568
-0.00320081
0.00439105
-0.00755592
0.00733909
-0.0138087
0.0114207
-0.0221388
0.0162809
-0.0325531
-0.0408746
0.0210683
4.93996e-05
0.000775168
0.00025077
0.00121216
0.000714371
0.000570893
0.00160103
-0.00132173
0.00311972
-0.0047195
0.0055064
-0.00994261
0.0089506
-0.0172529
0.0135172
-0.0267053
0.0186343
-0.0376702
-0.047737
0.0254967
6.38809e-05
0.000711287
0.000327485
0.000948554
0.000919057
-2.06784e-05
0.00201926
-0.00242193
0.00385473
-0.00655497
0.00665955
-0.0127474
0.0105665
-0.0211598
0.0154819
-0.0316207
0.0208682
-0.0430565
-0.0539442
0.0270754
7.81886e-05
0.000633099
0.000406349
0.000620394
0.00113352
-0.000747851
0.00246083
-0.00374924
0.00462697
-0.00872111
0.00784179
-0.0159623
0.0121423
-0.0254603
0.0172535
-0.0367319
0.02263
-0.0484329
-0.0594207
0.0281064
9.37069e-05
0.000539392
0.000491289
0.000222812
0.00136414
-0.0016207
0.00293294
-0.00531803
0.00543709
-0.0112253
0.00903189
-0.0195571
0.0136201
-0.0300485
0.0187621
-0.0418739
0.0238831
-0.0535539
-0.0642563
0.0287188
0.000111758
0.000427634
0.00058586
-0.00025129
0.00161637
-0.00265122
0.00343918
-0.00714084
0.00627687
-0.0140629
0.0101947
-0.0234749
0.0149378
-0.0347916
0.0199446
-0.0468807
0.0246714
-0.0582807
-0.0684586
0.0288737
0.00013344
0.000294193
0.000692832
-0.000810682
0.00189336
-0.00385175
0.00397778
-0.00922526
0.00712769
-0.0172129
0.0112848
-0.0276321
0.016039
-0.0395458
0.0207721
-0.0516138
0.0250207
-0.0625293
-0.0720635
0.0286256
0.000159505
0.000134689
0.000813755
-0.00146493
0.00219522
-0.00523321
0.00454054
-0.0115706
0.00796153
-0.0206338
0.0122538
-0.0319243
0.0168827
-0.0441748
0.0212418
-0.0559728
0.0249835
-0.066271
-0.0751311
0.0280511
0.000190299
-5.56106e-05
0.000948758
-0.00222339
0.0025187
-0.00680316
0.00511302
-0.0141649
0.00874448
-0.0242653
0.0130587
-0.0362385
0.0174483
-0.0485643
0.0213746
-0.0598992
0.0246181
-0.0695146
-0.0777271
0.0272141
0.000225773
-0.000281383
0.00109655
-0.00309417
0.00285732
-0.00856393
0.00567578
-0.0169833
0.00944176
-0.0280313
0.0136689
-0.0404657
0.0177352
-0.0526306
0.0212062
-0.0633701
0.023984
-0.0722924
-0.0799197
0.0261766
0.000265534
-0.000546917
0.00125458
-0.00408321
0.00320187
-0.0105112
0.00620657
-0.019988
0.0100228
-0.0318475
0.0140685
-0.0445114
0.017759
-0.0563212
0.0207794
-0.0663905
0.0231365
-0.0746495
-0.0817706
0.0249874
0.000308924
-0.000855841
0.00141928
-0.00519356
0.00354117
-0.0126331
0.00668293
-0.0231298
0.010465
-0.0356296
0.0142555
-0.0483019
0.0175455
-0.0596112
0.0201386
-0.0689836
0.022124
-0.0766349
-0.0833333
0.0236867
0.000355084
-0.00121093
0.00158631
-0.00642479
0.00386299
-0.0149098
0.0070848
-0.0263516
0.0107554
-0.0393002
0.0142396
-0.0517861
0.0171261
-0.0624976
0.0193256
-0.0711832
0.0209869
-0.0782962
-0.0846513
0.0223049
0.000403008
-0.00161393
0.00175085
-0.00777263
0.00415508
-0.017314
0.00739643
-0.029593
0.0108904
-0.0427942
0.0140382
-0.0549338
0.0165334
-0.0649928
0.0183777
-0.0730276
0.0197579
-0.0796763
-0.0857586
0.0208652
0.000451583
-0.00206552
0.00190779
-0.00922884
0.00440615
-0.0198124
0.00760759
-0.0327944
0.0108746
-0.0460612
0.0136729
-0.0577322
0.0157991
-0.067119
0.0173268
-0.0745552
0.0184627
-0.0808122
-0.0866808
0.0193849
0.000499614
-0.00256513
0.00205201
-0.0107812
0.00460671
-0.0223671
0.0077137
-0.0359014
0.010718
-0.0490655
0.0131675
-0.0601817
0.0149522
-0.0689037
0.0161993
-0.0758023
0.0171209
-0.0817339
-0.0874364
0.0178765
0.000545856
-0.00311099
0.00217866
-0.012414
0.00474974
-0.0249382
0.00771529
-0.0388669
0.0104347
-0.0517849
0.0125453
-0.0622923
0.0140179
-0.0703763
0.0150165
-0.0768009
0.0157478
-0.0824652
-0.0880383
0.0163498
0.000589051
-0.00370004
0.0022834
-0.0141084
0.00483097
-0.0274858
0.00761701
-0.041653
0.0100405
-0.0542083
0.0118283
-0.0640801
0.013018
-0.071566
0.0137954
-0.0775784
0.0143547
-0.0830245
-0.0884953
0.0148117
0.000627972
-0.00432801
0.00236263
-0.0158431
0.00484886
-0.029972
0.00742652
-0.0442306
0.00955189
-0.0563337
0.0110365
-0.0655647
0.0119703
-0.0724998
0.0125494
-0.0781575
0.0129503
-0.0834254
-0.0888131
0.013268
0.000661474
-0.00498948
0.00241371
-0.0175953
0.0048044
-0.0323627
0.00715333
-0.0465796
0.00898499
-0.0581654
0.0101874
-0.066767
0.0108896
-0.0732021
0.0112887
-0.0785566
0.011541
-0.0836776
-0.0889952
0.0117231
0.000688537
-0.00567802
0.00243501
-0.0193418
0.00470057
-0.0346282
0.00680792
-0.0486869
0.00835482
-0.0597123
0.00929597
-0.0677082
0.00978796
-0.0736941
0.0100214
-0.0787901
0.010132
-0.0837882
-0.0890442
0.010181
0.000708308
-0.00638633
0.00242594
-0.0210594
0.00454187
-0.0367442
0.00640103
-0.0505461
0.00767503
-0.0609863
0.00837501
-0.0684082
0.00867476
-0.0739938
0.0087537
-0.078869
0.00872737
-0.0837618
-0.0889614
0.00864455
0.000720131
-0.00710646
0.00238687
-0.0227261
0.00433381
-0.0386911
0.00594312
-0.0521554
0.00695773
-0.0620009
0.00743504
-0.0688855
0.00755757
-0.0741164
0.00749035
-0.0788018
0.0073303
-0.0836018
-0.0887468
0.00711577
0.000723559
-0.00783002
0.00231901
-0.0243216
0.00408243
-0.0404545
0.00544404
-0.053517
0.00621347
-0.0627703
0.00648478
-0.0691568
0.00644237
-0.074074
0.00623508
-0.0785945
0.00594331
-0.08331
-0.0884001
0.00559659
0.000718358
-0.00854838
0.00222421
-0.0258274
0.00379395
-0.0420243
0.00491283
-0.0546359
0.00545129
-0.0633088
0.00553139
-0.0692369
0.00533398
-0.0738765
0.00499084
-0.0782514
0.00456825
-0.0828874
-0.0879201
0.0040882
0.000704504
-0.00925288
0.00210482
-0.0272277
0.00347447
-0.0433939
0.00435758
-0.055519
0.00467887
-0.0636301
0.00458075
-0.0691387
0.00423648
-0.0735323
0.00376068
-0.0777756
0.00320659
-0.0823333
-0.087304
0.00259051
0.000682171
-0.00993505
0.00196345
-0.028509
0.00312984
-0.0445603
0.00378547
-0.0561746
0.00390265
-0.0637472
0.00363758
-0.0688737
0.00315331
-0.073048
0.00254849
-0.0771708
0.00186072
-0.0816456
-0.0865417
0.00109846
0.000651742
-0.0105868
0.00180318
-0.0296605
0.00276554
-0.0455227
0.00320272
-0.0566118
0.00312793
-0.0636724
0.00270557
-0.0684513
0.00208705
-0.0724295
0.00135694
-0.0764407
0.000542492
-0.0808311
-0.0856138
-0.000385489
0.00061376
-0.0112006
0.00162697
-0.0306737
0.00238657
-0.0462823
0.00261473
-0.0568399
0.00235911
-0.0634168
0.0017876
-0.0678798
0.00104014
-0.071682
0.000176754
-0.0755773
-0.000757854
-0.0798965
-0.0845842
-0.00178743
0.000568889
-0.0117694
0.00143767
-0.0315425
0.00199752
-0.0468421
0.00202616
-0.0568686
0.00159975
-0.0629904
0.000886304
-0.0671664
-9.04079e-07
-0.0707948
-0.000966987
-0.0746112
-0.00203883
-0.0788247
-0.0834366
-0.00318645
0.000517897
-0.0122873
0.00123806
-0.0322626
0.00160255
-0.0472066
0.00144102
-0.0567071
0.00085238
-0.0624018
-3.96857e-06
-0.06631
-0.000990415
-0.0698084
-0.0020905
-0.0735111
-0.00328828
-0.0776269
-0.08216
-0.00456484
0.000461644
-0.012749
0.00103078
-0.0328318
0.00120525
-0.0473811
0.000862487
-0.0563643
0.000121748
-0.061661
-0.000854048
-0.0653342
-0.00197022
-0.0686922
-0.00318982
-0.0722915
-0.0045106
-0.0763061
-0.0807544
-0.00591623
0.000401041
-0.01315
0.000818592
-0.0332493
0.000808464
-0.047371
0.000294651
-0.0558505
-0.000591491
-0.0607749
-0.0016932
-0.0642325
-0.00292589
-0.0674595
-0.00426258
-0.0709548
-0.00570504
-0.0748637
-0.0792213
-0.00723809
0.000336916
-0.0134869
0.000604293
-0.0335167
0.000415531
-0.0471822
-0.000262674
-0.0551723
-0.00128694
-0.0597506
-0.00250979
-0.0630097
-0.00385599
-0.0661133
-0.00530744
-0.0695034
-0.00687006
-0.073301
-0.0775632
-0.00852816
0.000270192
-0.0137571
0.000389529
-0.033636
4.37656e-05
-0.0468364
-0.000805963
-0.0543225
-0.00196376
-0.0585928
-0.00330282
-0.0616706
-0.00475974
-0.0646564
-0.00632356
-0.0679396
-0.00800425
-0.0716203
-0.0757839
-0.00978361
0.000202841
-0.01396
0.000176041
-0.0336092
-0.000356416
-0.046304
-0.00133794
-0.053341
-0.00262023
-0.0573105
-0.00407151
-0.0602193
-0.00563642
-0.0630915
-0.0073102
-0.0662658
-0.00910616
-0.0698244
-0.0738896
-0.0110004
0.000134056
-0.014094
-1.67969e-05
-0.0334584
-0.000730294
-0.0455905
-0.00185516
-0.0522162
-0.0032558
-0.0559099
-0.00481515
-0.05866
-0.00648533
-0.0614213
-0.00826659
-0.0644845
-0.0101745
-0.0679164
-0.0718855
-0.0121787
5.8723e-05
-0.0141527
-0.000258265
-0.0331414
-0.00109684
-0.0447519
-0.00235489
-0.0509581
-0.00386964
-0.0543951
-0.00553333
-0.0569963
-0.00730609
-0.0596485
-0.00919215
-0.0625985
-0.0112094
-0.0658992
-0.0697685
-0.0133264
-1.89124e-05
-0.0141338
-0.000473057
-0.0326872
-0.00145282
-0.0437721
-0.00283645
-0.0495745
-0.00446069
-0.0527709
-0.00622564
-0.0552314
-0.00809905
-0.0577751
-0.010088
-0.0606095
-0.0122101
-0.0637771
-0.0675377
-0.0144409
-8.89088e-05
-0.0140449
-0.000679184
-0.032097
-0.00179641
-0.0426549
-0.00329956
-0.0480713
-0.00502834
-0.0510421
-0.00689154
-0.0533682
-0.00886487
-0.0558018
-0.0109576
-0.0585167
-0.0131717
-0.0615631
-0.0652095
-0.0154999
-0.000160611
-0.0138843
-0.000878526
-0.031379
-0.00212679
-0.0414067
-0.00374348
-0.0464546
-0.00557189
-0.0492137
-0.00752999
-0.05141
-0.00960147
-0.0537303
-0.0117994
-0.0563188
-0.014133
-0.0592294
-0.0629321
-0.0164104
-0.00023124
-0.0136531
-0.00107115
-0.0305391
-0.00244342
-0.0400344
-0.00416765
-0.0447304
-0.00609088
-0.0472905
-0.00813995
-0.049361
-0.0103038
-0.0515665
-0.0125834
-0.0540392
-0.0149416
-0.0568712
-0.0601281
-0.0177457
-0.000300116
-0.013353
-0.0012566
-0.0295826
-0.00274587
-0.0385451
-0.0045717
-0.0429046
-0.00658513
-0.0452771
-0.00872081
-0.0472253
-0.0109684
-0.0493188
-0.0133239
-0.0516837
-0.0158058
-0.0543894
-0.0573456
-0.0185883
-0.000366857
-0.0129861
-0.00143435
-0.0285151
-0.00303377
-0.0369457
-0.00495532
-0.040983
-0.00705434
-0.043178
-0.00927252
-0.0450071
-0.0116022
-0.0469891
-0.0140482
-0.0492378
-0.0166451
-0.0517924
-0.0545416
-0.0194491
-0.000431163
-0.0125549
-0.00160391
-0.0273424
-0.00330677
-0.0352428
-0.00531825
-0.0389716
-0.00749809
-0.0409982
-0.00979423
-0.042711
-0.012202
-0.0445813
-0.0147317
-0.0467081
-0.017414
-0.0491101
-0.0516878
-0.0202678
-0.000492766
-0.0120622
-0.00176486
-0.0260703
-0.00356457
-0.0334431
-0.00566029
-0.0368758
-0.00791626
-0.0387422
-0.0102863
-0.040341
-0.0127689
-0.0420987
-0.0153774
-0.0440997
-0.0181362
-0.0463513
-0.0487722
-0.0210517
-0.00055143
-0.0115107
-0.00191686
-0.0247049
-0.00380693
-0.0315531
-0.00598129
-0.0347015
-0.00830868
-0.0364148
-0.0107483
-0.0379013
-0.0133017
-0.0395453
-0.0159831
-0.0414182
-0.0188128
-0.0435216
-0.0457903
-0.0217948
-0.00060694
-0.0109038
-0.0020596
-0.0232522
-0.00403364
-0.029579
-0.00628112
-0.032454
-0.00867527
-0.0340207
-0.0111803
-0.0353963
-0.0138
-0.0369255
-0.0165494
-0.0386689
-0.0194461
-0.0406248
-0.0427415
-0.0224949
-0.000659108
-0.0102447
-0.00219285
-0.0217185
-0.00424452
-0.0275274
-0.00655969
-0.0301388
-0.00901593
-0.0315644
-0.0115819
-0.0328303
-0.0142637
-0.0342438
-0.0170761
-0.0358564
-0.0200362
-0.0376647
-0.0396279
-0.0231499
-0.000707769
-0.00953693
-0.00231639
-0.0201098
-0.00443946
-0.0254043
-0.00681694
-0.0277614
-0.00933058
-0.0290508
-0.0119532
-0.0302077
-0.0146923
-0.0315047
-0.0175634
-0.0329853
-0.0205829
-0.0346453
-0.0364526
-0.0237582
-0.000752777
-0.00878415
-0.00243006
-0.0184326
-0.00461834
-0.023216
-0.0070528
-0.0253269
-0.00961916
-0.0264844
-0.0122939
-0.027533
-0.0150859
-0.0287126
-0.0180111
-0.0300602
-0.0210857
-0.0315707
-0.0332195
-0.0243187
-0.00079401
-0.00799014
-0.00253369
-0.0166929
-0.00478107
-0.0209686
-0.00726724
-0.0228407
-0.0098816
-0.0238701
-0.0126039
-0.0248107
-0.0154442
-0.0258722
-0.0184188
-0.0270856
-0.021544
-0.0284455
-0.0299334
-0.0248302
-0.000831358
-0.00715878
-0.00262719
-0.0148971
-0.00492759
-0.0186682
-0.00746022
-0.0203081
-0.0101179
-0.0212124
-0.012883
-0.0220456
-0.0157671
-0.0229882
-0.0187864
-0.0240663
-0.0219574
-0.0252744
-0.026599
-0.0252918
-0.00086473
-0.00629405
-0.00271044
-0.0130513
-0.00505785
-0.0163208
-0.00763171
-0.0177342
-0.0103279
-0.0185163
-0.0131313
-0.0192421
-0.0160543
-0.0200652
-0.0191135
-0.0210071
-0.0223255
-0.0220624
-0.0232215
-0.025703
-0.000894047
-0.00540001
-0.00278337
-0.011162
-0.0051718
-0.0139324
-0.00778169
-0.0151243
-0.0105116
-0.0157864
-0.0133486
-0.016405
-0.0163058
-0.0171081
-0.0194
-0.0179129
-0.0226479
-0.0188144
-0.0198062
-0.0260631
-0.000919243
-0.00448076
-0.0028459
-0.00923536
-0.00526942
-0.0115089
-0.00791015
-0.0124836
-0.010669
-0.0130276
-0.0135349
-0.0135391
-0.0165214
-0.0141216
-0.0196456
-0.0147887
-0.0229243
-0.0155357
-0.0163587
-0.0263719
-0.000940264
-0.0035405
-0.00289799
-0.00727763
-0.00535067
-0.0090562
-0.00801707
-0.00981721
-0.0108001
-0.0102446
-0.01369
-0.0106492
-0.016701
-0.0111107
-0.0198503
-0.0116393
-0.0231546
-0.0122314
-0.0128842
-0.0266291
-0.000957066
-0.00258343
-0.00293958
-0.00529512
-0.00541554
-0.00658024
-0.00810245
-0.0071303
-0.0109048
-0.00744227
-0.013814
-0.00773995
-0.0168445
-0.00808009
-0.0200139
-0.00846996
-0.0233387
-0.00890658
-0.00938831
-0.0268346
-0.000969614
-0.00161382
-0.00297064
-0.00329409
-0.00546401
-0.00408687
-0.00816628
-0.00442802
-0.0109831
-0.00462548
-0.0139068
-0.00481627
-0.016952
-0.00503483
-0.0201364
-0.00528557
-0.0234765
-0.00556647
-0.00587636
-0.0269885
-0.000977882
-0.000635937
-0.00299116
-0.00128082
-0.00549607
-0.00158197
-0.00820857
-0.00171552
-0.011035
-0.00179904
-0.0139683
-0.00188296
-0.0170233
-0.0019798
-0.0202177
-0.00209124
-0.0235678
-0.00221638
-0.00235354
-0.0270906
-0.000981855
0.000345918
-0.00300111
0.000738434
-0.00551171
0.000928641
-0.0082293
0.00100207
-0.0110605
0.0010322
-0.0139986
0.00105512
-0.0170584
0.00108001
-0.0202575
0.00110781
-0.0236123
0.00113839
0.00117113
-0.0271369
-0.000981523
0.00132744
-0.00300048
0.00275739
-0.00551094
0.0034391
-0.00822847
0.0037196
-0.0110597
0.00386342
-0.0139977
0.00399316
-0.0170575
0.00413978
-0.0202565
0.00430684
-0.0236112
0.00449307
0.0046977
-0.0271378
-0.000976887
0.00230433
-0.00298928
0.00476978
-0.00549376
0.00594358
-0.0082061
0.00643195
-0.0110325
0.00668978
-0.0139656
0.00692634
-0.0170204
0.00719458
-0.0202144
0.00750079
-0.023564
0.00784264
0.00821906
-0.0270853
-0.000967954
0.00327228
-0.00296751
0.00676934
-0.00546016
0.00843623
-0.00816219
0.00913397
-0.0109788
0.00950642
-0.0139023
0.00984981
-0.0169472
0.0102395
-0.020131
0.0106846
-0.0234702
0.0111818
0.0117294
-0.0269805
-0.00095474
0.00422702
-0.00293519
0.00874979
-0.00541015
0.0109112
-0.00809672
0.0118205
-0.0108988
0.0123085
-0.0138078
0.0127588
-0.0168379
0.0132696
-0.0200065
0.0138532
-0.0233301
0.0145054
0.0152234
-0.0268241
-0.00093727
0.00516429
-0.00289234
0.0107049
-0.00534374
0.0133626
-0.00800972
0.0144865
-0.0107925
0.0150913
-0.0136821
0.0156484
-0.0166925
0.01628
-0.0198409
0.0170015
-0.0231438
0.0178084
0.0186956
-0.026616
-0.000915578
0.00607987
-0.00283899
0.0126283
-0.00526095
0.0157846
-0.00790118
0.0171267
-0.0106598
0.0178499
-0.0135253
0.0185139
-0.0165112
0.0192658
-0.0196343
0.0201247
-0.0229114
0.0210854
0.0221405
-0.0263563
-0.000889706
0.00696957
-0.00277518
0.0145137
-0.00516179
0.0181712
-0.00777111
0.0197361
-0.0105008
0.0205796
-0.0133375
0.0213506
-0.0162939
0.0222223
-0.0193869
0.0232177
-0.022633
0.0243315
0.0255527
-0.0260452
-0.000859706
0.00782928
-0.00270096
0.016355
-0.00504628
0.0205165
-0.00761952
0.0223093
-0.0103155
0.0232755
-0.0131186
0.0241538
-0.0160409
0.0251445
-0.0190988
0.0262757
-0.0223088
0.0275415
0.0289268
-0.025683
-0.000825643
0.00865492
-0.00261641
0.0181458
-0.00491446
0.0228145
-0.00744642
0.0248413
-0.0101039
0.0259329
-0.0128688
0.0269187
-0.0157522
0.0280279
-0.0187702
0.0292937
-0.0219392
0.0307105
0.0322577
-0.02527
-0.000787592
0.00944252
-0.00252158
0.0198797
-0.00476634
0.0250593
-0.00725183
0.0273268
-0.00986608
0.0285472
-0.0125881
0.0296407
-0.0154279
0.0308677
-0.0184013
0.0322671
-0.0215244
0.0338336
0.0355401
-0.0248069
-0.000745641
0.0101882
-0.00241658
0.0215507
-0.00460198
0.0272447
-0.00703576
0.0297605
-0.00960209
0.0311135
-0.0122767
0.0323153
-0.0150683
0.0336593
-0.0179924
0.0351912
-0.021065
0.0369062
0.0387694
-0.0242943
-0.000699895
0.0108881
-0.00230151
0.0231523
-0.00442143
0.0293646
-0.00679823
0.0321373
-0.00931197
0.0336273
-0.0119346
0.034938
-0.0146735
0.0363982
-0.0175438
0.0380615
-0.0205614
0.0399238
0.041941
-0.0237331
-0.000650471
0.0115385
-0.00217651
0.0246783
-0.00422477
0.0314129
-0.00653927
0.0344518
-0.00899575
0.0360837
-0.011562
0.0375043
-0.0142437
0.0390799
-0.0170556
0.0408734
-0.0200142
0.0428824
0.0450512
-0.0231244
-0.00059751
0.012136
-0.00204174
0.0261226
-0.00401207
0.0333832
-0.00625892
0.0366987
-0.00865348
0.0384783
-0.011159
0.0400098
-0.013779
0.0416999
-0.0165281
0.0436225
-0.0194239
0.0457782
0.048097
-0.0224697
-0.000541169
0.0126772
-0.00189739
0.0274788
-0.00378345
0.0352693
-0.00595722
0.0388725
-0.00828523
0.0408063
-0.0107256
0.0424502
-0.0132796
0.0442539
-0.0159612
0.0463041
-0.0187906
0.0486076
0.0510768
-0.0217704
-0.000481627
0.0131588
-0.00174369
0.0287409
-0.00353905
0.0370646
-0.00563423
0.0409676
-0.00789105
0.0430632
-0.0102622
0.0448213
-0.0127458
0.0467375
-0.0153549
0.0489132
-0.0181141
0.0513668
0.0539914
-0.0210287
-0.000419084
0.0135779
-0.00158091
0.0299027
-0.00327905
0.0387628
-0.00529004
0.0429786
-0.007471
0.0452441
-0.00976863
0.047119
-0.0121778
0.0491467
-0.0147084
0.0514437
-0.0173916
0.0540501
0.0568463
-0.0202466
-0.000353765
0.0139317
-0.00140938
0.0309583
-0.00300366
0.040357
-0.00492478
0.0448998
-0.0070252
0.0473445
-0.00924529
0.0493391
-0.011577
0.0514784
-0.0140243
0.0538911
-0.0166226
0.0566483
0.0596536
-0.0194299
-0.000285914
0.0142176
-0.00122949
0.0319019
-0.00271313
0.0418407
-0.00453858
0.0467252
-0.00655372
0.0493597
-0.00869175
0.0514771
-0.0109419
0.0537286
-0.013299
0.0562482
-0.0157802
0.0591295
0.0624388
-0.0185654
-0.000215813
0.0144334
-0.00104169
0.0327278
-0.00240775
0.0432067
-0.00413167
0.0484491
-0.00605694
0.0512849
-0.00810877
0.0535289
-0.0102758
0.0558956
-0.0125579
0.0585302
-0.0149137
0.0614854
0.0652418
-0.0177167
-0.000143854
0.0145773
-0.000846463
0.0334304
-0.00208782
0.0444481
-0.0037043
0.0500656
-0.00553514
0.0531158
-0.00749648
0.0554903
-0.0095719
0.057971
-0.0117744
0.0607328
-0.0141124
0.0638234
0.0675183
-0.0163889
-7.09267e-05
0.0146482
-0.000644095
0.0340035
-0.00175369
0.0455577
-0.00325678
0.0515687
-0.00498841
0.0548474
-0.0068554
0.0573573
-0.00883329
0.0599489
-0.0109314
0.0628309
-0.013151
0.0660429
0.0698527
-0.0154853
-2.24578e-06
0.0146504
-0.000434002
0.0344353
-0.0014059
0.0465296
-0.00278964
0.0529524
-0.00441713
0.0564749
-0.00618642
0.0591265
-0.00806495
0.0618274
-0.0100597
0.0648256
-0.0121875
0.0681707
0.0720913
-0.0144261
8.08681e-05
0.0145696
-0.000212875
0.034729
-0.00104536
0.0473621
-0.00230346
0.0542105
-0.00382189
0.0579933
-0.00549052
0.0607952
-0.00726905
0.063606
-0.00916171
0.0667183
-0.0111861
0.0701951
0.0742161
-0.0133109
0.000156385
0.0144132
2.76857e-05
0.0348577
-0.000673927
0.0480637
-0.00179844
0.0553351
-0.00320326
0.0593981
-0.00476819
0.0623601
-0.00644494
0.0652827
-0.00823389
0.0685072
-0.0101508
0.072112
0.0762302
-0.012165
0.000226388
0.0141868
0.000224632
0.0348595
-0.000291937
0.0485802
-0.00127545
0.0563186
-0.0025622
0.0606849
-0.00401974
0.0638176
-0.00559212
0.0668551
-0.00727484
0.07019
-0.00908179
0.073919
0.0781378
-0.0109893
0.000295558
0.0138912
0.000443129
0.0347119
0.000107202
0.0489162
-0.000737587
0.0571634
-0.00189938
0.0618467
-0.00324552
0.0651638
-0.00471085
0.0683204
-0.00628497
0.0717641
-0.00797878
0.0756128
0.0799336
-0.00977458
0.000364095
0.0135271
0.000663273
0.0344127
0.000491241
0.0490882
-0.000184906
0.0578395
-0.0012152
0.062877
-0.00244609
0.0663947
-0.00380166
0.069676
-0.0052649
0.0732273
-0.00684292
0.0771908
0.081611
-0.00852037
0.000430162
0.013097
0.000883292
0.0339596
0.000892086
0.0490794
0.000380302
0.0583513
-0.000511322
0.0637686
-0.00162213
0.0675055
-0.00286512
0.070919
-0.00421512
0.0745773
-0.00567537
0.078651
0.0831663
-0.00723062
0.00049274
0.0126042
0.00110154
0.0333508
0.00129789
0.0488831
0.000958665
0.0586905
0.000212148
0.0645151
-0.000774613
0.0684922
-0.00190188
0.0720463
-0.00313622
0.0758117
-0.00447723
0.079992
0.084597
-0.00590793
0.000550982
0.0120533
0.00131538
0.0325864
0.00170541
0.048493
0.00154888
0.058847
0.000954739
0.0651093
9.21674e-05
0.0693548
-0.0009133
0.0730517
-0.00202913
0.0769275
-0.00324982
0.0812127
0.0859015
-0.00455431
0.000603955
0.0114493
0.00152208
0.0316683
0.00211177
0.0479033
0.00214727
0.0588116
0.00171474
0.0655418
0.00098961
0.0700799
9.40473e-05
0.0739473
-0.00089618
0.0779177
-0.00199341
0.08231
0.08708
-0.00317193
0.000650755
0.0107985
0.00171894
0.0306001
0.00251345
0.0471088
0.00275081
0.0585742
0.00248907
0.0658035
0.00190497
0.070664
0.00114072
0.0747115
0.000258578
0.0787999
-0.000702998
0.0832716
0.0881442
-0.00176721
0.00069056
0.010108
0.00190315
0.0293875
0.00290637
0.0461056
0.00335581
0.0581248
0.00327524
0.0658841
0.00283934
0.0710999
0.00220346
0.0753474
0.00145143
0.0795519
0.000607476
0.0841155
0.0891103
-0.0003586
0.000722644
0.00938534
0.00207174
0.0280384
0.003286
0.0448913
0.00395779
0.057453
0.00406996
0.0657719
0.00379054
0.0713794
0.00328761
0.0758504
0.0026591
0.0801804
0.00193944
0.0848352
0.0899132
0.00113653
0.000746401
0.00863894
0.0022216
0.0265632
0.00364727
0.0434657
0.00455151
0.0565487
0.00486909
0.0654543
0.00475589
0.0714926
0.00439153
0.0762147
0.00389021
0.0806817
0.00330195
0.0854234
0.090573
0.00264215
0.000761379
0.00787756
0.00234941
0.0249752
0.00398458
0.0418305
0.00513086
0.0554025
0.00566763
0.0649176
0.00573209
0.0714281
0.00551315
0.0764337
0.00514275
0.0810521
0.00468399
0.0858822
0.0910997
0.00415725
0.000767341
0.00711022
0.00245228
0.0232903
0.00429191
0.0399909
0.00568873
0.0540056
0.00645947
0.0641468
0.00671488
0.0711727
0.00664952
0.076499
0.00641332
0.0812883
0.00608344
0.0862121
0.0914963
0.00568688
0.000764259
0.00634596
0.00252759
0.0215269
0.00456284
0.0379556
0.00621703
0.0523514
0.00723724
0.0631266
0.00769888
0.070711
0.00779708
0.0764008
0.00769931
0.0813861
0.00749916
0.0864122
0.0917637
0.00723171
0.000752318
0.00559364
0.00257313
0.0197061
0.00479072
0.035738
0.00670656
0.0504356
0.00799213
0.061841
0.00867744
0.0700257
0.0089516
0.0761267
0.00899833
0.0813393
0.00892999
0.0864806
0.0919024
0.00879135
0.000731927
0.00486172
0.00258731
0.0178507
0.00496892
0.0333564
0.00714718
0.0482574
0.00871376
0.0602745
0.00964239
0.0690971
0.0101078
0.0756612
0.0103074
0.0811397
0.0103742
0.0864138
0.091912
0.0103646
0.000703723
0.00415799
0.00256941
0.015985
0.00509117
0.0308347
0.00752789
0.0458206
0.00939006
0.0584123
0.0105837
0.0679035
0.011259
0.0749859
0.0116227
0.0807761
0.0118295
0.086207
0.0917912
0.0119503
0.000668555
0.00348944
0.00251967
0.0141339
0.00515203
0.0282023
0.00783714
0.0431355
0.0100072
0.0562422
0.0114891
0.0664216
0.0123965
0.0740785
0.0129389
0.0802337
0.0132927
0.0858532
0.0915372
0.0135467
0.000627462
0.00286198
0.00243947
0.0123219
0.00514744
0.0254943
0.0080633
0.0402197
0.0105496
0.0537559
0.0123439
0.0646273
0.0135093
0.0729131
0.0142491
0.0794939
0.0147601
0.0853422
0.0911464
0.0151509
0.000581632
0.00228034
0.0023313
0.0105722
0.00507529
0.0227503
0.00819526
0.0370997
0.0110003
0.0509509
0.0131308
0.0624968
0.0145837
0.0714601
0.0155445
0.0785331
0.0162263
0.0846604
0.0906127
0.01676
0.000532344
0.001748
0.00219867
0.00890592
0.004936
0.020013
0.00822341
0.0338123
0.0113413
0.0478329
0.0138294
0.0600088
0.0156024
0.069687
0.0168133
0.0773223
0.0176847
0.083789
0.0899274
0.01837
0.000480907
0.00126709
0.00204595
0.00734087
0.00473287
0.0173261
0.00814068
0.0304045
0.0115545
0.044419
0.0144169
0.0571465
0.0165446
0.0675593
0.0180401
0.0758268
0.0191259
0.0827033
0.0890773
0.019976
0.000428583
0.00083851
0.00187806
0.00589139
0.00447218
0.014732
0.00794385
0.0269328
0.0116229
0.04074
0.0148682
0.0539012
0.0173852
0.0650423
0.0192056
0.0740064
0.0205374
0.0813715
0.0880437
0.021571
0.000376513
0.000461997
0.00170006
0.00456785
0.00416287
0.0122692
0.00763474
0.0234609
0.0115321
0.0368426
0.0151567
0.0502766
0.0180946
0.0621044
0.0202848
0.0718162
0.0219024
0.0797539
0.0868004
0.0231457
0.000325647
0.00013635
0.00151684
0.00337665
0.00381586
0.00997015
0.00722101
0.0200558
0.011273
0.0327906
0.0152565
0.0462931
0.0186397
0.0587212
0.0212473
0.0692086
0.0231985
0.0778027
0.085312
0.0246869
0.000276695
-0.000140345
0.00133277
0.00232057
0.00344301
0.00785991
0.00671629
0.0167825
0.0108435
0.0286635
0.015144
0.0419925
0.0189843
0.0548809
0.0220561
0.0661368
0.0243965
0.0754623
0.0835322
0.0261763
0.000230106
-0.000370451
0.00115149
0.00139919
0.00305612
0.00595528
0.00613929
0.0136993
0.010251
0.0245517
0.0148021
0.0374415
0.0190914
0.0505916
0.0226683
0.0625599
0.0254591
0.0726714
0.0814021
0.0275892
0.000186115
-0.000556565
0.000975867
0.000609436
0.00266602
0.00426513