/*--------------------------------*- C++ -*----------------------------------*\
  =========                 |
  \\      /  F ield         | OpenFOAM: The Open Source CFD Toolbox
   \\    /   O peration     | Website:  https://openfoam.org
    \\  /    A nd           | Version:  7
     \\/     M anipulation  |
\*---------------------------------------------------------------------------*/
FoamFile
{
    version     2.0;
    format      ascii;
    class       volVectorField;
    location    "105";
    object      U;
}
// * * * * * * * * * * * * * * * * * * * * * * * * * * * * * * * * * * * * * //

dimensions      [0 1 -1 0 0 0 0];

internalField   nonuniform List<vector> 
8500
(
(-0.000426126 -0.0419048 1.02221e-21)
(-0.0053708 -0.106113 -2.93214e-21)
(-0.0171644 -0.154154 -3.41701e-21)
(-0.0326748 -0.187026 3.39573e-21)
(-0.0502125 -0.208602 -3.12489e-21)
(-0.0680236 -0.223887 -1.67035e-21)
(-0.0847372 -0.237055 2.86717e-21)
(-0.0997298 -0.250369 3.56592e-21)
(-0.112702 -0.264103 -5.89917e-22)
(-0.123603 -0.276835 1.75629e-21)
(0.00058146 -0.0391727 -1.13006e-21)
(-0.00388784 -0.0995295 3.48616e-21)
(-0.0169134 -0.145001 -8.1375e-21)
(-0.0343043 -0.176449 7.38097e-21)
(-0.0539913 -0.197652 3.32144e-22)
(-0.074001 -0.213387 5.44345e-21)
(-0.0929089 -0.227498 -9.48583e-21)
(-0.110202 -0.241884 -1.3947e-20)
(-0.125728 -0.256526 -2.72914e-21)
(-0.139777 -0.269813 6.2229e-21)
(0.00132859 -0.0356941 1.02127e-21)
(-0.00290584 -0.0915107 7.58837e-21)
(-0.0171186 -0.134229 1.79044e-20)
(-0.0361518 -0.164322 -1.62083e-20)
(-0.0575996 -0.185312 -3.65295e-21)
(-0.0792925 -0.20164 -3.34039e-21)
(-0.0997423 -0.216765 1.70624e-20)
(-0.118508 -0.2322 1.06818e-20)
(-0.135523 -0.247602 2.65985e-21)
(-0.151281 -0.261163 -1.92405e-20)
(0.00175714 -0.0315511 3.61441e-21)
(-0.00249638 -0.0822375 -4.4631e-21)
(-0.0178002 -0.122062 -3.32422e-20)
(-0.0381769 -0.150881 2.95183e-21)
(-0.0609444 -0.17181 9.14521e-21)
(-0.0837644 -0.188873 -7.11037e-21)
(-0.105069 -0.205109 -4.13594e-22)
(-0.124443 -0.221624 -2.88768e-21)
(-0.141822 -0.23771 6.59649e-21)
(-0.157749 -0.251313 1.89524e-20)
(0.00182344 -0.0268531 2.4956e-21)
(-0.00270474 -0.0719296 -1.42185e-20)
(-0.0189523 -0.108755 3.4276e-20)
(-0.0403175 -0.136374 -1.5576e-20)
(-0.0639157 -0.157376 -6.59807e-23)
(-0.0872705 -0.175306 2.1598e-20)
(-0.108717 -0.192769 -9.94845e-21)
(-0.127807 -0.210458 1.14689e-21)
(-0.144409 -0.227238 -4.08996e-21)
(-0.158876 -0.24072 1.33652e-21)
(0.00150204 -0.0217328 2.98734e-20)
(-0.00354512 -0.0608389 3.65013e-20)
(-0.0205392 -0.0945844 -9.36841e-21)
(-0.0424843 -0.121059 1.78826e-20)
(-0.0663767 -0.142234 5.62228e-21)
(-0.0896361 -0.161138 -8.05219e-21)
(-0.110482 -0.179954 -3.09915e-21)
(-0.128377 -0.19897 -1.3441e-20)
(-0.143063 -0.216557 2.91331e-21)
(-0.154353 -0.229834 -1.72412e-20)
(0.000788562 -0.0163416 -2.87898e-20)
(-0.00499726 -0.0492427 -1.90196e-20)
(-0.0224916 -0.079846 1.55026e-20)
(-0.044557 -0.105203 -2.69176e-20)
(-0.0681561 -0.126603 3.09026e-21)
(-0.0906425 -0.14655 3.16742e-20)
(-0.110102 -0.166833 -5.71844e-21)
(-0.125858 -0.18737 3.71874e-20)
(-0.137503 -0.205984 -8.54174e-22)
(-0.143777 -0.219074 -1.48255e-20)
(-0.000298733 -0.0108436 2.40773e-20)
(-0.00700521 -0.0374355 -4.38189e-20)
(-0.0247071 -0.0648487 -1.7505e-20)
(-0.0463822 -0.0890773 2.05253e-20)
(-0.0690433 -0.1107 7.21916e-22)
(-0.0900147 -0.1317 -5.94932e-20)
(-0.107237 -0.153527 -3.55124e-21)
(-0.11984 -0.17579 -2.94256e-20)
(-0.127325 -0.195749 -3.74928e-20)
(-0.126567 -0.208789 2.18016e-20)
(-0.00171878 -0.00540934 -1.34163e-20)
(-0.00947833 -0.0257212 6.55536e-21)
(-0.0270515 -0.0499109 1.61212e-20)
(-0.0477763 -0.0729633 -1.45641e-20)
(-0.0687888 -0.094745 -5.10717e-20)
(-0.0874183 -0.116737 1.75623e-20)
(-0.10145 -0.140112 2.50287e-21)
(-0.109767 -0.164268 4.4304e-20)
(-0.111963 -0.185962 5.73605e-20)
(-0.101915 -0.199215 -2.54823e-20)
(-0.00340934 -0.000207789 2.11906e-20)
(-0.0122951 -0.0144038 1.94439e-20)
(-0.0293649 -0.0353571 -2.80575e-21)
(-0.0485322 -0.0571539 7.23795e-20)
(-0.0671134 -0.0789706 3.08518e-20)
(-0.0824681 -0.101812 2.31964e-20)
(-0.0922192 -0.126637 3.29818e-20)
(-0.0949333 -0.152751 -1.4307e-20)
(-0.0906662 -0.1766 -1.91633e-20)
(-0.0687773 -0.190422 -3.07535e-20)
(-0.00529034 0.00460156 -1.95389e-21)
(-0.0153091 -0.00377736 -3.08814e-20)
(-0.0314701 -0.0215117 -2.23149e-20)
(-0.0484311 -0.0419556 -3.58551e-20)
(-0.0637237 -0.0636368 -2.85159e-20)
(-0.0747515 -0.0871072 2.88936e-20)
(-0.0789673 -0.113158 -2.77548e-20)
(-0.0745207 -0.141118 -1.89977e-20)
(-0.0625446 -0.167502 2.50493e-21)
(-0.0260029 -0.182122 8.19063e-21)
(-0.00726933 0.00887782 -5.87736e-20)
(-0.0183572 0.00588527 2.82153e-20)
(-0.0331813 -0.00869369 2.0689e-20)
(-0.0472567 -0.0276875 1.3978e-20)
(-0.0583358 -0.0490388 -2.56431e-20)
(-0.0638636 -0.0728581 -2.16111e-20)
(-0.0611183 -0.0997855 3.13151e-20)
(-0.0476782 -0.129247 -2.5512e-20)
(-0.0265582 -0.15844 -1.85719e-21)
(0.02729 -0.173189 -2.55178e-20)
(-0.00924852 0.0125071 4.94684e-20)
(-0.0212705 0.0143447 2.03088e-20)
(-0.0343147 0.00279465 1.19388e-21)
(-0.0448048 -0.0146814 -2.54254e-20)
(-0.0506972 -0.0355087 1.6934e-21)
(-0.0494479 -0.059372 2.88317e-20)
(-0.0381702 -0.086732 -8.19366e-21)
(-0.0136721 -0.117105 -9.99156e-21)
(0.0187357 -0.149395 -2.17745e-20)
(0.0915971 -0.161942 3.91006e-20)
(-0.0111321 0.0154096 3.38379e-20)
(-0.0238828 0.0214072 -5.48452e-20)
(-0.0347001 0.0126812 -4.2658e-20)
(-0.0408958 -0.00325911 1.84262e-20)
(-0.0405984 -0.023401 3.79542e-20)
(-0.0312245 -0.0470222 3.269e-20)
(-0.00974785 -0.0743293 -3.4725e-20)
(0.0277744 -0.104804 6.66639e-20)
(0.0748781 -0.140404 -2.02726e-20)
(0.168177 -0.1484 -4.53185e-20)
(-0.0128336 0.0175447 -5.05786e-20)
(-0.0260385 0.0269356 3.05823e-20)
(-0.0341769 0.0207404 -1.49958e-20)
(-0.0353713 0.00628624 1.56562e-21)
(-0.0278686 -0.0130755 1.62198e-20)
(-0.00898874 -0.0362163 -5.14862e-20)
(0.0244761 -0.0630285 4.58167e-20)
(0.0766268 -0.0928013 -4.44138e-20)
(0.14171 -0.131041 7.02601e-20)
(0.257614 -0.13334 2.43589e-20)
(-0.0142821 0.0189122 1.09066e-20)
(-0.0275975 0.030857 6.0001e-20)
(-0.0325948 0.0268077 -1.52772e-20)
(-0.028081 0.013712 1.54913e-20)
(-0.0123569 -0.00483569 1.84172e-20)
(0.0173948 -0.0273381 -5.59581e-21)
(0.0646614 -0.0532716 3.97173e-20)
(0.133113 -0.0817317 2.1619e-21)
(0.218467 -0.120975 -4.45425e-20)
(0.356825 -0.116845 5.84095e-20)
(-0.0154256 0.01955 -2.89608e-20)
(-0.0284348 0.033166 -5.6961e-20)
(-0.0298017 0.0307979 4.96547e-20)
(-0.0188539 0.0188697 2.51761e-20)
(0.00613806 0.00109685 -1.17484e-19)
(0.0481256 -0.0206504 9.64635e-20)
(0.110887 -0.0453562 -8.7354e-20)
(0.197193 -0.0720398 1.51167e-21)
(0.305131 -0.110185 -1.90371e-20)
(0.4612 -0.0990451 -5.34193e-20)
(-0.0162314 0.0195277 2.52837e-20)
(-0.0284338 0.0339198 -3.48568e-21)
(-0.025625 0.0327146 -1.21978e-20)
(-0.00746756 0.0216937 -1.33744e-21)
(0.0278914 0.00464263 -7.38676e-21)
(0.0835411 -0.0162252 -3.07032e-20)
(0.163447 -0.0393376 1.30384e-20)
(0.268734 -0.0638591 -2.06808e-20)
(0.40114 -0.09783 6.52577e-21)
(0.565323 -0.080137 1.76956e-21)
(-0.0166851 0.0189358 -5.16516e-20)
(-0.0274863 0.0332405 -3.79644e-21)
(-0.0198565 0.0326415 5.70375e-21)
(0.00639788 0.0222494 2.33004e-21)
(0.0533205 0.00590838 3.86203e-20)
(0.124143 -0.0138981 -1.13352e-19)
(0.222787 -0.0349315 7.65168e-20)
(0.347917 -0.0570204 -5.70746e-20)
(0.504914 -0.082413 4.64447e-20)
(0.664165 -0.0610119 4.89573e-20)
(-0.016779 0.0178789 -6.33371e-21)
(-0.0254795 0.0312926 2.88223e-20)
(-0.012239 0.0307498 -3.64066e-20)
(0.0231556 0.0207432 -1.14779e-20)
(0.0830135 0.00515204 2.22645e-20)
(0.170621 -0.013266 1.07768e-19)
(0.289388 -0.0315684 -2.16122e-20)
(0.434981 -0.0506835 1.07192e-20)
(0.613472 -0.0630836 -5.42908e-20)
(0.756332 -0.0464327 2.28524e-20)
(-0.0165076 0.0164587 -1.89576e-20)
(-0.0222732 0.0282657 -1.47433e-20)
(-0.00245427 0.0272937 3.5974e-21)
(0.0433309 0.0174962 1.44387e-20)
(0.117686 0.00281302 -4.30086e-20)
(0.223743 -0.0137022 -1.75332e-20)
(0.36355 -0.0284654 -5.51207e-20)
(0.529356 -0.0433077 5.57486e-20)
(0.72174 -0.0420059 5.72946e-20)
(0.84595 -0.0436806 -2.37663e-20)
(-0.0158571 0.0147671 -9.02177e-21)
(-0.0177003 0.0243679 3.67775e-20)
(0.00988385 0.0225846 -4.13706e-20)
(0.067542 0.0129385 -4.83555e-21)
(0.158118 -0.000512437 -1.96449e-20)
(0.284182 -0.0143938 4.30579e-20)
(0.445154 -0.0246907 5.55797e-20)
(0.628906 -0.0335446 -5.24729e-20)
(0.823459 -0.0247204 5.40022e-20)
(0.957921 -0.0342199 6.85622e-21)
(-0.014796 0.0128794 -2.61132e-20)
(-0.011557 0.0198097 -7.4457e-20)
(0.0252135 0.0169803 7.28622e-20)
(0.0964547 0.00759143 1.05557e-20)
(0.205051 -0.00410516 1.56445e-20)
(0.352278 -0.0144161 9.18136e-21)
(0.533315 -0.0193013 4.20218e-20)
(0.730037 -0.0212737 3.04959e-20)
(0.92077 -0.00844961 -1.05784e-19)
(1.05457 -0.0144737 -4.96227e-20)
(-0.0132683 0.0108526 -8.94316e-20)
(-0.00359975 0.0147954 1.8055e-20)
(0.044009 0.0108645 -4.10843e-20)
(0.130716 0.00203659 8.07557e-21)
(0.259035 -0.00717057 1.3078e-20)
(0.427801 -0.0128388 -9.33881e-20)
(0.626166 -0.011529 4.07952e-20)
(0.829169 -0.00672404 -2.73177e-20)
(1.00998 0.00887176 2.83137e-20)
(1.13119 0.00571665 -9.47433e-21)
(-0.0111912 0.0087262 3.23209e-20)
(0.00644798 0.00951687 3.48357e-20)
(0.0667494 0.00463192 -1.90626e-21)
(0.170877 -0.00310951 -1.13142e-20)
(0.320278 -0.00889792 5.34955e-22)
(0.509784 -0.00885807 1.00706e-21)
(0.720973 -0.000971071 -6.21899e-20)
(0.922899 0.00978021 8.03378e-21)
(1.08806 0.0268818 7.44661e-20)
(1.19325 0.0258947 3.25232e-20)
(-0.00845639 0.00652809 -2.18602e-20)
(0.0188827 0.00415839 -1.62831e-20)
(0.0938728 -0.00131644 6.9839e-20)
(0.2173 -0.0072246 1.78149e-21)
(0.388502 -0.00852941 -2.92219e-20)
(0.596478 -0.0019195 7.89982e-20)
(0.814565 0.0123644 1.70688e-20)
(1.00837 0.0277396 6.32918e-22)
(1.15411 0.0452102 -3.28412e-20)
(1.24044 0.0452665 -4.12729e-20)
(-0.00493535 0.00428247 4.55489e-20)
(0.0340043 -0.00109678 -1.27798e-20)
(0.125738 -0.00658022 -7.58675e-21)
(0.270085 -0.00970623 -2.8985e-20)
(0.462861 -0.00543302 4.78728e-20)
(0.685507 0.00821041 -2.35445e-20)
(0.903873 0.0281449 -2.62376e-20)
(1.08375 0.0466216 -6.37391e-21)
(1.20798 0.0634243 -1.86957e-20)
(1.27563 0.0635075 1.9653e-20)
(-0.000487477 0.00201826 -1.68048e-20)
(0.0520946 -0.00605634 -9.9643e-20)
(0.162583 -0.0107591 1.04291e-20)
(0.329 -0.00999552 3.59456e-20)
(0.541948 0.00083189 2.58396e-20)
(0.774191 0.0214514 -8.57405e-20)
(0.986389 0.0458684 5.45505e-20)
(1.14818 0.0659408 -2.46611e-20)
(1.25055 0.0812133 3.64007e-20)
(1.30072 0.0806362 9.75587e-21)
(0.00503019 -0.000222988 -1.83282e-20)
(0.0733949 -0.0105083 3.54133e-20)
(0.204489 -0.0134504 4.61025e-20)
(0.393448 -0.00760373 -3.3209e-20)
(0.623901 0.0104748 1.2311e-20)
(0.85993 0.0374881 -7.53374e-20)
(1.0604 0.0649992 -1.433e-20)
(1.20171 0.0853174 1.15589e-20)
(1.28308 0.0984067 -2.77103e-20)
(1.31787 0.0967108 -2.75417e-20)
(0.0117531 -0.00238114 -2.3596e-20)
(0.098084 -0.0142126 -7.8954e-21)
(0.251347 -0.01425 -8.33891e-20)
(0.462471 -0.00214263 -1.3049e-20)
(0.706613 0.0234766 -1.45655e-21)
(0.940523 0.055878 4.45983e-21)
(1.12502 0.0850544 7.88331e-21)
(1.24495 0.104488 -3.62565e-20)
(1.30706 0.114944 6.66066e-22)
(1.32881 0.1119 1.90808e-20)
(0.0197998 -0.00437429 -6.11975e-21)
(0.126258 -0.0168977 2.89358e-20)
(0.302838 -0.0127609 4.07207e-20)
(0.534795 0.00664678 2.54675e-20)
(0.787967 0.0396335 -7.59814e-21)
(1.01435 0.0761464 -6.19591e-21)
(1.18003 0.105642 6.13954e-20)
(1.2789 0.123294 7.96238e-21)
(1.32396 0.130848 2.70211e-20)
(1.33502 0.126371 -1.1443e-20)
(0.029264 -0.00609837 5.85501e-20)
(0.157911 -0.0182631 3.80375e-20)
(0.358425 -0.00861089 -3.85274e-20)
(0.608923 0.0188778 -7.66976e-21)
(0.866051 0.0586218 3.95204e-21)
(1.08038 0.0978468 -1.45045e-20)
(1.22575 0.126468 -3.13877e-20)
(1.30473 0.141665 -5.26251e-21)
(1.33512 0.146192 4.26241e-22)
(1.33764 0.140294 1.24054e-20)
(0.0402076 -0.00742923 7.10152e-21)
(0.192925 -0.0179881 -2.07015e-20)
(0.41736 -0.00147801 4.89858e-20)
(0.683258 0.0345211 3.19202e-20)
(0.939304 0.0800601 8.89195e-22)
(1.13815 0.120591 2.25956e-20)
(1.2628 0.147324 3.3618e-21)
(1.3236 0.159588 -2.35386e-20)
(1.34169 0.161074 1.96661e-20)
(1.33754 0.153814 1.53705e-24)
(0.0526546 -0.00822667 -4.80497e-20)
(0.231056 -0.015747 -1.41734e-20)
(0.47871 0.00888298 -1.28566e-20)
(0.756237 0.0534257 -2.23351e-20)
(1.00657 0.103555 5.17383e-21)
(1.18759 0.144056 1.17345e-22)
(1.29199 0.168078 1.71893e-20)
(1.33662 0.177092 -2.75998e-21)
(1.34461 0.175596 -2.02613e-20)
(1.33536 0.167049 -1.86014e-20)
(0.066587 -0.00833972 3.88474e-21)
(0.271932 -0.0112268 2.28634e-20)
(0.541408 0.0226199 1.10507e-20)
(0.826433 0.0753499 -3.46089e-20)
(1.06709 0.128731 -1.76885e-21)
(1.22896 0.167985 -1.48127e-20)
(1.31419 0.188649 3.82869e-22)
(1.34476 0.194226 6.936e-21)
(1.34462 0.189851 -7.59296e-21)
(1.33154 0.180081 2.10321e-20)
(0.0819411 -0.00761296 9.08476e-21)
(0.315063 -0.00414829 -2.23098e-20)
(0.604316 0.0397732 -5.27126e-20)
(0.892634 0.0999922 4.85619e-20)
(1.12045 0.155238 -3.62775e-21)
(1.26271 0.192173 1.07367e-20)
(1.33026 0.208994 -1.45903e-21)
(1.34883 0.211044 1.02018e-20)
(1.34229 0.203913 -7.84102e-22)
(1.32638 0.192968 -1.62833e-20)
(0.0986061 -0.00589322 -1.84702e-20)
(0.359849 0.005715 2.89549e-20)
(0.666286 0.0602783 2.39662e-20)
(0.953875 0.127017 -3.45349e-20)
(1.16651 0.182762 -5.70263e-21)
(1.2894 0.21646 2.18752e-21)
(1.34099 0.229093 2.17546e-20)
(1.34953 0.227598 1.08762e-21)
(1.33804 0.217837 4.1765e-21)
(1.32009 0.205734 -8.99645e-21)
(0.116424 -0.00303677 1.40093e-20)
(0.405605 0.0185207 -1.2618e-20)
(0.726226 0.0839753 -1.07194e-20)
(1.00944 0.156071 1.84078e-20)
(1.20536 0.21102 6.36644e-21)
(1.30962 0.24072 4.79172e-21)
(1.34709 0.248936 -2.2132e-20)
(1.34739 0.243923 -7.5353e-21)
(1.33216 0.231651 -6.71998e-21)
(1.31277 0.218383 2.96012e-21)
(0.135193 0.00108358 -6.94949e-21)
(0.451588 0.0343461 -1.61002e-22)
(0.783143 0.110625 2.02795e-20)
(1.05885 0.186798 -7.44947e-21)
(1.2372 0.239759 -3.27625e-21)
(1.32397 0.264847 -2.15878e-21)
(1.34917 0.268512 5.34194e-21)
(1.34283 0.26004 9.19803e-21)
(1.32486 0.245361 -2.9032e-22)
(1.30451 0.230897 3.31831e-21)
(0.15467 0.0065716 4.89326e-21)
(0.497025 0.053183 -1.37279e-21)
(0.836179 0.139925 -3.62414e-21)
(1.10181 0.218842 -3.28224e-21)
(1.26236 0.268746 2.95522e-21)
(1.33303 0.288747 2.29934e-21)
(1.34774 0.287806 -2.11859e-21)
(1.33615 0.275949 7.64917e-22)
(1.31627 0.258951 1.06939e-21)
(1.29534 0.243242 -1.41317e-21)
(0.174578 0.0135016 2.61144e-21)
(0.541148 0.0749375 7.46254e-22)
(0.884623 0.171526 -4.46847e-21)
(1.13819 0.251856 -3.56394e-21)
(1.28119 0.297769 3.71293e-21)
(1.3373 0.312333 7.25206e-22)
(1.34321 0.306789 -1.68604e-21)
(1.3276 0.291632 1.58306e-21)
(1.30647 0.272382 8.7958e-22)
(1.28529 0.25537 -1.00502e-21)
(0.194615 0.0219137 -1.02575e-21)
(0.583221 0.0994344 2.08237e-21)
(0.927917 0.205041 1.37332e-20)
(1.168 0.285496 -6.09159e-21)
(1.29408 0.326626 -2.99533e-21)
(1.33725 0.335516 -3.36565e-21)
(1.33592 0.32542 6.88196e-21)
(1.31735 0.307049 4.59569e-21)
(1.29554 0.285598 3.66213e-21)
(1.27439 0.267225 1.98121e-21)
(0.214462 0.0318102 2.08377e-20)
(0.622562 0.126425 -1.1465e-20)
(0.965647 0.240063 -1.30856e-20)
(1.19134 0.319432 1.77421e-20)
(1.30143 0.355125 9.31398e-21)
(1.33328 0.358203 -6.19781e-22)
(1.32614 0.343641 -1.14599e-20)
(1.30551 0.322139 -8.26041e-21)
(1.28349 0.298521 -8.56844e-21)
(1.26265 0.27874 5.07221e-21)
(0.233793 0.0431542 -2.81588e-20)
(0.658564 0.155596 2.64664e-20)
(0.997533 0.276169 3.03953e-20)
(1.20837 0.353337 -2.99508e-20)
(1.30362 0.383079 -1.03721e-20)
(1.32576 0.380296 6.63141e-21)
(1.31408 0.36138 1.20466e-20)
(1.29216 0.336828 1.8849e-21)
(1.27034 0.311062 -3.23264e-22)
(1.25003 0.289836 -6.90232e-21)
(0.252283 0.0558695 -4.01397e-21)
(0.690708 0.186582 -3.71347e-20)
(1.02342 0.312927 -3.97465e-20)
(1.21932 0.386899 4.45119e-20)
(1.30101 0.410305 -5.04541e-21)
(1.31498 0.401686 9.22979e-21)
(1.29991 0.378555 1.81103e-21)
(1.27737 0.351033 -5.12946e-21)
(1.25607 0.323131 2.74992e-21)
(1.23642 0.300435 -3.65572e-22)
(0.26962 0.0698425 8.17135e-21)
(0.718565 0.218976 2.29437e-20)
(1.04324 0.349906 1.3026e-20)
(1.22446 0.419813 -1.02558e-20)
(1.29396 0.43662 -1.58337e-20)
(1.30122 0.422257 -1.47747e-20)
(1.28379 0.395071 -2.97822e-21)
(1.26119 0.364671 7.87648e-21)
(1.24068 0.334678 -1.66195e-21)
(1.22168 0.310484 3.82017e-21)
(0.28551 0.084925 -3.07494e-20)
(0.741809 0.25234 -2.87265e-20)
(1.05703 0.386675 -4.51522e-21)
(1.22407 0.451784 -5.11988e-21)
(1.28281 0.461839 -1.161e-20)
(1.28472 0.441883 7.11686e-21)
(1.26582 0.410822 -1.29446e-21)
(1.24366 0.377649 -6.92142e-21)
(1.22423 0.345699 6.26841e-21)
(1.20584 0.319944 -9.02074e-21)
(0.299688 0.100937 7.4135e-21)
(0.760213 0.286222 2.43137e-20)
(1.06489 0.422813 2.10736e-20)
(1.21846 0.482525 2.28999e-20)
(1.26785 0.485782 4.99314e-22)
(1.26566 0.460433 1.99685e-20)
(1.24609 0.425687 1.29549e-21)
(1.22484 0.389838 -2.34984e-20)
(1.20674 0.356122 1.68121e-20)
(1.18929 0.328662 6.21411e-21)
(0.311924 0.117673 1.98672e-20)
(0.773641 0.320161 4.42714e-20)
(1.06699 0.457915 -5.89154e-21)
(1.20795 0.511765 -2.87684e-20)
(1.24938 0.50827 1.2993e-20)
(1.24422 0.477773 -1.35147e-20)
(1.22467 0.439526 -1.79714e-20)
(1.20489 0.401144 -1.51937e-21)
(1.18817 0.365733 -1.3919e-20)
(1.17211 0.336681 5.3954e-21)
(0.322024 0.134903 9.25942e-21)
(0.782039 0.353701 6.75803e-21)
(1.06354 0.491588 5.49801e-20)
(1.19287 0.539242 1.02989e-20)
(1.22767 0.529138 -8.96111e-21)
(1.22056 0.493768 -4.62581e-21)
(1.20185 0.452209 2.74291e-20)
(1.18379 0.411438 2.25825e-20)
(1.16855 0.374458 1.1239e-20)
(1.15422 0.343823 -1.51997e-21)
(0.329838 0.152388 1.9363e-21)
(0.785433 0.386393 -4.5134e-20)
(1.05481 0.523456 -6.45443e-20)
(1.17356 0.564713 1.98428e-21)
(1.203 0.548229 1.27207e-20)
(1.19498 0.508239 -1.75429e-20)
(1.17767 0.463618 -4.00751e-20)
(1.16147 0.420647 -1.19578e-20)
(1.14801 0.382156 -7.22671e-22)
(1.13559 0.350012 5.72874e-21)
(0.335258 0.169875 -1.6007e-20)
(0.783922 0.417807 4.02446e-20)
(1.04114 0.553174 3.86949e-20)
(1.15036 0.587934 -3.56431e-20)
(1.17565 0.565339 5.4557e-21)
(1.16764 0.521089 4.22533e-20)
(1.15211 0.473617 -9.36575e-21)
(1.13812 0.428646 7.94336e-21)
(1.1266 0.388745 -3.84009e-21)
(1.11629 0.355164 -5.14718e-21)
(0.33822 0.187111 -3.5863e-20)
(0.777687 0.44753 -6.35177e-20)
(1.02291 0.580447 -1.24611e-20)
(1.12354 0.608662 2.04285e-20)
(1.14587 0.580304 2.00331e-20)
(1.13864 0.532142 -4.20282e-20)
(1.12536 0.482109 2.29869e-20)
(1.11381 0.435333 -1.20931e-20)
(1.1044 0.39413 9.79904e-21)
(1.09637 0.359216 2.95722e-22)
(0.338712 0.203838 2.73709e-20)
(0.767 0.475154 1.99429e-21)
(1.00047 0.60503 -6.07853e-21)
(1.09335 0.626688 -2.51755e-20)
(1.11391 0.592933 1.628e-20)
(1.10817 0.541266 3.56592e-21)
(1.09754 0.488967 -1.31015e-20)
(1.08865 0.440604 2.28419e-21)
(1.08149 0.398218 -2.63988e-21)
(1.07594 0.362093 1.41695e-21)
(0.336787 0.21981 -7.42958e-21)
(0.752197 0.500335 -1.03177e-20)
(0.973843 0.626511 2.64937e-20)
(1.06029 0.641944 1.23478e-20)
(1.08011 0.603059 -1.6933e-20)
(1.07644 0.54833 2.38534e-20)
(1.0688 0.494081 1.76889e-21)
(1.06275 0.444367 2.04464e-21)
(1.05796 0.400913 -3.09357e-23)
(1.05506 0.363707 1.17967e-22)
(0.33254 0.234767 4.80758e-20)
(0.733545 0.522973 3.71613e-20)
(0.943266 0.644517 -2.69087e-21)
(1.02484 0.654107 -5.7366e-21)
(1.04469 0.610632 -6.87859e-21)
(1.04362 0.553232 -3.41004e-21)
(1.03927 0.497352 1.91032e-21)
(1.03621 0.446539 1.71424e-21)
(1.0339 0.402124 4.69857e-22)
(1.03382 0.363961 -2.43574e-21)
(0.326048 0.248341 3.78214e-21)
(0.711107 0.542686 6.31749e-21)
(0.90966 0.659254 -3.41807e-20)
(0.987328 0.662942 1.52011e-20)
(1.00794 0.615509 4.11252e-21)
(1.00992 0.555871 -9.34054e-21)
(1.00911 0.49869 3.25684e-21)
(1.00915 0.447048 1.13352e-21)
(1.00945 0.401784 -3.15307e-21)
(1.01245 0.362805 3.31463e-21)
(0.317304 0.260315 -1.82314e-20)
(0.685094 0.558875 -1.31455e-20)
(0.87351 0.670406 1.08731e-20)
(0.948041 0.668474 2.83822e-21)
(0.970085 0.617597 -5.98646e-21)
(0.975516 0.556157 5.49498e-21)
(0.978441 0.498008 1.96241e-21)
(0.981674 0.445806 -6.36643e-21)
(0.984853 0.399829 1.80579e-20)
(0.991604 0.360281 7.57251e-21)
(0.306543 0.270522 -1.3897e-20)
(0.656158 0.571431 3.43533e-20)
(0.835088 0.677739 -2.18684e-20)
(0.907317 0.670608 -3.21808e-21)
(0.931405 0.616812 -3.82719e-21)
(0.940607 0.55401 1.0595e-22)
(0.947386 0.495225 -6.49461e-21)
(0.953896 0.442678 3.48611e-21)
(0.960533 0.396066 -1.16758e-22)
(0.972026 0.356436 -3.20916e-21)
(0.293987 0.27888 -1.15296e-21)
(0.624719 0.580212 -1.02113e-20)
(0.794803 0.681085 5.50028e-21)
(0.865503 0.669263 -2.98969e-21)
(0.892157 0.613097 3.88424e-21)
(0.905375 0.549385 4.35471e-21)
(0.916065 0.490295 1.30495e-20)
(0.92601 0.437565 -1.01677e-20)
(0.936848 0.390103 -1.94773e-20)
(0.952999 0.350585 8.68349e-21)
(0.279801 0.285207 -1.87624e-22)
(0.591214 0.585089 -2.05957e-21)
(0.753077 0.680358 9.35595e-22)
(0.822946 0.664381 5.02638e-21)
(0.852607 0.606415 -1.00644e-20)
(0.870016 0.542255 -1.75953e-20)
(0.884669 0.483225 -5.13136e-21)
(0.898287 0.430595 -1.69862e-21)
(0.913769 0.382138 2.69445e-20)
(0.93158 0.338872 -5.57782e-21)
(0.264208 0.289364 -6.15563e-22)
(0.556075 0.585958 -4.38855e-21)
(0.71034 0.67551 8.00723e-22)
(0.779998 0.65593 9.35599e-22)
(0.813022 0.596742 -8.01329e-21)
(0.834749 0.532598 3.42285e-20)
(0.85346 0.473987 -2.42605e-20)
(0.870947 0.421865 2.90419e-20)
(0.890174 0.374152 -2.03544e-20)
(0.907681 0.332376 -2.71368e-20)
(0.247453 0.291246 -5.6877e-22)
(0.51973 0.58275 -1.30313e-21)
(0.667014 0.666528 6.12476e-22)
(0.737002 0.643904 1.25874e-20)
(0.773667 0.584073 -5.46125e-21)
(0.799801 0.520395 8.24425e-21)
(0.822646 0.462528 1.41625e-20)
(0.844026 0.411086 -7.47052e-21)
(0.866502 0.36392 -1.99219e-20)
(0.885026 0.322428 2.74226e-20)
(0.229791 0.290778 1.02376e-20)
(0.482607 0.575434 1.34356e-20)
(0.623515 0.653428 -1.31118e-20)
(0.694296 0.628327 -1.14938e-20)
(0.734808 0.568425 4.12714e-20)
(0.76539 0.505666 -4.19023e-20)
(0.792375 0.448901 5.04211e-20)
(0.817533 0.398495 -1.25751e-20)
(0.842961 0.352435 1.34949e-20)
(0.863179 0.312131 2.53214e-20)
(0.211479 0.287912 -3.68164e-21)
(0.445132 0.564016 -1.33201e-20)
(0.58025 0.636257 -8.32901e-21)
(0.652213 0.609246 -4.47649e-21)
(0.696708 0.549835 5.32165e-21)
(0.731737 0.488433 -1.1146e-20)
(0.762821 0.433113 -1.50607e-20)
(0.791631 0.384027 -3.3017e-20)
(0.819893 0.33932 3.27824e-20)
(0.842213 0.300407 -1.05057e-20)
(0.192779 0.28263 2.5594e-20)
(0.407724 0.548542 -3.17234e-21)
(0.537614 0.615093 -1.1674e-20)
(0.611074 0.586734 1.48916e-20)
(0.659625 0.528362 -2.65363e-20)
(0.699052 0.468746 7.12301e-20)
(0.734151 0.415216 -3.79522e-20)
(0.766486 0.367765 3.43597e-20)
(0.797516 0.32472 -6.30121e-20)
(0.822147 0.287384 -1.67212e-20)
(0.173951 0.274941 -7.96216e-21)
(0.370791 0.529092 2.7131e-20)
(0.49599 0.590042 6.32954e-21)
(0.571191 0.560888 -1.38396e-20)
(0.623809 0.504084 -2.38793e-20)
(0.667541 0.446668 -7.61098e-22)
(0.706535 0.395263 1.26559e-20)
(0.742262 0.349744 -3.10266e-20)
(0.775986 0.308615 1.5205e-20)
(0.803024 0.273005 2.00846e-21)
(0.155252 0.264882 -4.47109e-20)
(0.33473 0.505781 -1.09674e-20)
(0.455742 0.561239 -3.05013e-21)
(0.532863 0.531826 3.58921e-20)
(0.5895 0.477098 -3.33572e-20)
(0.637402 0.42228 -8.60934e-21)
(0.680144 0.373325 -5.26371e-21)
(0.719117 0.330025 9.68505e-21)
(0.755443 0.291047 -1.22825e-20)
(0.784911 0.257305 -1.91209e-20)
(0.136932 0.252515 3.96492e-20)
(0.299918 0.478757 -2.25305e-20)
(0.417222 0.528846 1.08297e-21)
(0.496374 0.499692 -5.45102e-20)
(0.55693 0.447522 5.90594e-20)
(0.608828 0.395682 -1.86459e-20)
(0.655143 0.349487 1.11622e-20)
(0.697199 0.308677 9.68143e-21)
(0.73601 0.272065 2.80706e-20)
(0.767882 0.240335 -1.15513e-20)
(0.119232 0.237928 -1.61323e-20)
(0.266716 0.448199 4.67688e-20)
(0.380757 0.49305 2.63369e-20)
(0.461993 0.464647 4.3064e-20)
(0.526317 0.415492 -9.9366e-21)
(0.582003 0.366988 4.01709e-21)
(0.631689 0.323847 3.21898e-20)
(0.676644 0.285781 7.18092e-21)
(0.717802 0.251731 6.92917e-22)
(0.752012 0.222162 -1.38117e-20)
(0.102382 0.221231 -3.7179e-20)
(0.235461 0.414316 -2.72828e-21)
(0.346658 0.454065 -1.54638e-20)
(0.429972 0.426877 -6.93341e-20)
(0.497867 0.381161 -6.69183e-20)
(0.557099 0.336326 1.11682e-20)
(0.60993 0.296517 -2.74421e-20)
(0.657581 0.261429 1.75095e-20)
(0.700927 0.230125 9.50412e-21)
(0.737375 0.202868 1.98283e-20)
(0.0865971 0.202557 5.46105e-20)
(0.206469 0.377342 -4.4657e-20)
(0.315208 0.412126 -2.26458e-20)
(0.400546 0.386583 4.01e-20)
(0.471772 0.344698 4.5553e-20)
(0.534278 0.303842 -1.50917e-20)
(0.590004 0.267619 -1.95147e-21)
(0.64013 0.235727 -5.44879e-20)
(0.68549 0.207336 -3.07955e-20)
(0.724044 0.182542 1.17378e-20)
(0.0720785 0.182061 -3.10664e-20)
(0.180028 0.337538 1.30875e-20)
(0.28667 0.367488 4.80511e-20)
(0.373929 0.343986 -2.15204e-20)
(0.448208 0.306289 1.69245e-21)
(0.513689 0.269693 6.07791e-20)
(0.57204 0.23729 2.79616e-21)
(0.624402 0.20879 5.22016e-20)
(0.671583 0.183466 2.17521e-20)
(0.712085 0.161281 -3.45745e-20)
(0.0590082 0.159914 4.29976e-20)
(0.156399 0.295186 4.75141e-21)
(0.261281 0.320429 3.11866e-21)
(0.350314 0.299321 4.38111e-20)
(0.427334 0.266132 -5.845e-21)
(0.495467 0.234049 -3.81402e-20)
(0.556152 0.205675 1.86609e-20)
(0.610498 0.180744 -2.98186e-20)
(0.659297 0.158625 -1.24617e-20)
(0.70156 0.139189 1.25797e-20)
(0.0475492 0.136305 -2.68184e-20)
(0.135814 0.250591 -5.1476e-20)
(0.239247 0.271239 1.18765e-20)
(0.329872 0.25284 -2.32465e-20)
(0.409292 0.224438 -1.40371e-20)
(0.479732 0.197091 3.39805e-20)
(0.542443 0.17293 -8.22105e-21)
(0.598507 0.151721 7.58697e-21)
(0.648708 0.132931 -9.22567e-21)
(0.692524 0.116372 1.83094e-20)
(0.0378437 0.111438 9.6922e-21)
(0.118472 0.204071 3.46514e-20)
(0.220751 0.220226 -4.80887e-20)
(0.312753 0.204805 2.27219e-20)
(0.394206 0.181431 -1.03492e-20)
(0.466589 0.159008 -2.91036e-20)
(0.531004 0.139219 2.37442e-20)
(0.588508 0.121864 4.97748e-21)
(0.639887 0.106508 -7.67735e-22)
(0.685024 0.0929418 -2.12842e-20)
(0.0300118 0.0855287 3.16726e-21)
(0.104544 0.155963 1.11466e-20)
(0.205945 0.167712 4.34918e-20)
(0.299082 0.15549 -8.3316e-21)
(0.382178 0.137341 -6.56392e-21)
(0.456125 0.119999 2.43029e-21)
(0.52191 0.104713 1.06716e-21)
(0.580569 0.091322 8.85948e-21)
(0.632893 0.0794881 -1.16371e-20)
(0.679102 0.0690156 -7.40067e-21)
(0.0241504 0.0588034 -7.92408e-21)
(0.0941645 0.106615 -1.35682e-20)
(0.19495 0.114026 -3.3783e-20)
(0.288958 0.105178 1.69936e-20)
(0.373293 0.0924091 1.38582e-20)
(0.448413 0.080271 5.88195e-22)
(0.515222 0.0695897 -2.31489e-20)
(0.574745 0.0602465 -1.02734e-20)
(0.627774 0.0520035 8.14697e-21)
(0.67479 0.044701 8.71643e-21)
(0.0203326 0.0314967 1.37439e-21)
(0.0874365 0.0563845 -2.83405e-21)
(0.18786 0.0595078 6.41804e-21)
(0.282458 0.0541579 -4.34577e-21)
(0.367612 0.0468799 -3.82232e-21)
(0.443504 0.0400333 -2.5928e-21)
(0.510986 0.0340299 4.76074e-21)
(0.571074 0.0287947 1.81349e-20)
(0.624563 0.0241872 2.62835e-21)
(0.672105 0.02009 -4.65809e-21)
(0.0186069 0.00384875 1.70027e-21)
(0.0844277 0.00563602 -4.67649e-21)
(0.184733 0.00450253 -5.29886e-21)
(0.279632 0.00272551 -3.67602e-21)
(0.365178 0.00100367 3.49965e-21)
(0.441434 -0.000499001 1.57881e-21)
(0.509232 -0.00177976 -1.57319e-21)
(0.569582 -0.00286803 -7.16444e-21)
(0.623274 -0.00380091 2.35862e-21)
(0.671014 -0.00461395 -2.2061e-21)
(0.0189967 -0.0238968 -1.69237e-21)
(0.0851711 -0.0452617 4.65616e-21)
(0.185601 -0.0506414 5.27979e-21)
(0.280504 -0.048822 -5.0546e-21)
(0.366011 -0.044967 4.44973e-21)
(0.442222 -0.0411092 2.22831e-21)
(0.509977 -0.0376533 -3.5583e-21)
(0.57029 -0.034582 -4.13505e-21)
(0.623955 -0.0318275 6.09798e-22)
(0.671673 -0.0293298 -1.72162e-21)
(0.0215004 -0.0514953 1.8562e-21)
(0.0896647 -0.0959388 -5.54696e-21)
(0.190462 -0.105574 1.24008e-20)
(0.285074 -0.100186 -1.08917e-20)
(0.370111 -0.0907789 -5.18129e-22)
(0.445866 -0.0815803 -7.25296e-21)
(0.513219 -0.0734046 1.17866e-20)
(0.573192 -0.0661895 1.60292e-20)
(0.626579 -0.0597677 2.86351e-21)
(0.673976 -0.0540172 -6.16765e-21)
(0.0260911 -0.0787032 -1.58155e-21)
(0.0978718 -0.146027 -1.16801e-20)
(0.199282 -0.159948 -2.71976e-20)
(0.293313 -0.151069 2.35512e-20)
(0.377453 -0.13618 4.85026e-21)
(0.452347 -0.121696 4.29918e-21)
(0.518941 -0.108846 -2.11721e-20)
(0.578271 -0.0975256 -1.24962e-20)
(0.631131 -0.0874661 -2.78563e-21)
(0.677914 -0.0784958 1.90472e-20)
(0.0327169 -0.105281 -5.57014e-21)
(0.10972 -0.195161 7.03678e-21)
(0.211998 -0.213418 4.9188e-20)
(0.305169 -0.201177 -4.4301e-21)
(0.387995 -0.180919 -1.2655e-20)
(0.461626 -0.161241 9.07564e-21)
(0.52711 -0.143794 6.46352e-22)
(0.585501 -0.12843 3.19977e-21)
(0.637589 -0.114782 -7.01706e-21)
(0.683482 -0.102645 -1.85491e-20)
(0.0413013 -0.130994 -3.74859e-21)
(0.125105 -0.242985 2.04248e-20)
(0.228514 -0.265645 -4.94264e-20)
(0.320563 -0.250221 2.13983e-20)
(0.40167 -0.224753 2.06469e-22)
(0.473648 -0.200005 -2.71926e-20)
(0.537679 -0.178065 1.20346e-20)
(0.594838 -0.158745 -1.1298e-21)
(0.645916 -0.141579 4.56951e-21)
(0.690654 -0.126358 -1.35802e-21)
(0.0517442 -0.155618 -4.28732e-20)
(0.143885 -0.289152 -5.1324e-20)
(0.248706 -0.3163 1.35006e-20)
(0.339393 -0.297918 -2.45181e-20)
(0.418394 -0.267442 -6.91175e-21)
(0.488341 -0.237785 1.0366e-20)
(0.550583 -0.211485 3.83934e-21)
(0.606225 -0.188319 1.42573e-20)
(0.65606 -0.167724 -3.06986e-21)
(0.699398 -0.149518 1.65816e-20)
(0.063922 -0.178936 4.09888e-20)
(0.165889 -0.333326 2.6377e-20)
(0.272416 -0.365062 -1.99034e-20)
(0.36153 -0.343996 3.35624e-20)
(0.438059 -0.308754 -2.83998e-21)
(0.505613 -0.274381 -3.6397e-20)
(0.565746 -0.243882 6.38209e-21)
(0.619594 -0.217004 -3.87733e-20)
(0.667962 -0.193087 1.51129e-21)
(0.709671 -0.172012 1.40738e-20)
(0.0776894 -0.200748 -3.02331e-20)
(0.190911 -0.375189 5.42401e-20)
(0.299463 -0.411626 2.13152e-20)
(0.386823 -0.388192 -2.65091e-20)
(0.460541 -0.34847 2.79253e-22)
(0.525358 -0.309604 6.7005e-20)
(0.583076 -0.275093 3.02392e-21)
(0.634865 -0.24466 2.97562e-20)
(0.68155 -0.217543 3.62585e-20)
(0.721425 -0.193729 -2.03356e-20)
(0.0928799 -0.220865 1.69327e-20)
(0.218716 -0.414438 -8.13414e-21)
(0.329633 -0.4557 -1.9261e-20)