/*--------------------------------*- C++ -*----------------------------------*\
  =========                 |
  \\      /  F ield         | OpenFOAM: The Open Source CFD Toolbox
   \\    /   O peration     | Website:  https://openfoam.org
    \\  /    A nd           | Version:  7
     \\/     M anipulation  |
\*---------------------------------------------------------------------------*/
FoamFile
{
    version     2.0;
    format      ascii;
    class       volScalarField;
    location    "200";
    object      p;
}
// * * * * * * * * * * * * * * * * * * * * * * * * * * * * * * * * * * * * * //

dimensions      [0 2 -2 0 0 0 0];

internalField   nonuniform List<scalar> 
8500
(
-0.39069
-0.392747
-0.393346
-0.393771
-0.394406
-0.395497
-0.397228
-0.399854
-0.403641
-0.409139
-0.389469
-0.39083
-0.391068
-0.391141
-0.391433
-0.392239
-0.393804
-0.396474
-0.400657
-0.40687
-0.38843
-0.3891
-0.388976
-0.388689
-0.388622
-0.389113
-0.390461
-0.393094
-0.397567
-0.404153
-0.387471
-0.387482
-0.387
-0.386343
-0.38589
-0.386022
-0.387089
-0.389578
-0.394228
-0.400857
-0.38651
-0.385918
-0.385085
-0.384045
-0.383171
-0.382888
-0.383592
-0.385815
-0.390373
-0.397081
-0.38548
-0.384365
-0.383193
-0.381757
-0.380422
-0.379656
-0.379907
-0.381743
-0.3861
-0.392529
-0.384339
-0.382801
-0.381307
-0.379461
-0.377622
-0.3763
-0.376003
-0.377326
-0.381382
-0.387214
-0.383071
-0.38122
-0.379427
-0.377161
-0.374775
-0.372827
-0.371889
-0.372574
-0.376234
-0.381228
-0.381681
-0.379636
-0.377572
-0.37488
-0.371912
-0.369273
-0.367614
-0.367547
-0.370744
-0.374683
-0.380199
-0.378079
-0.375773
-0.372656
-0.369082
-0.365705
-0.363264
-0.362354
-0.365065
-0.367724
-0.378678
-0.376593
-0.374076
-0.370542
-0.366352
-0.362213
-0.358962
-0.357146
-0.359416
-0.360528
-0.377191
-0.375238
-0.372535
-0.368599
-0.363804
-0.358909
-0.354856
-0.352112
-0.354076
-0.35331
-0.375832
-0.374083
-0.371217
-0.3669
-0.361531
-0.355918
-0.351115
-0.347466
-0.349357
-0.346344
-0.374714
-0.37321
-0.370196
-0.365528
-0.359635
-0.353377
-0.347913
-0.343444
-0.345541
-0.340011
-0.373965
-0.372713
-0.369555
-0.364574
-0.358226
-0.351427
-0.345419
-0.34029
-0.342766
-0.334831
-0.373721
-0.372695
-0.369382
-0.364133
-0.357419
-0.350204
-0.343777
-0.33824
-0.340932
-0.331313
-0.374115
-0.373229
-0.369788
-0.364302
-0.357318
-0.349826
-0.343091
-0.337486
-0.339729
-0.329626
-0.375275
-0.374424
-0.370836
-0.365161
-0.358003
-0.350369
-0.34342
-0.338091
-0.338847
-0.329345
-0.377302
-0.376354
-0.37259
-0.366765
-0.359515
-0.351852
-0.344764
-0.339917
-0.338276
-0.330322
-0.380264
-0.379066
-0.375086
-0.369131
-0.361845
-0.354219
-0.34704
-0.342546
-0.338354
-0.334687
-0.384196
-0.382574
-0.37834
-0.372243
-0.364938
-0.357355
-0.350086
-0.3454
-0.339263
-0.343864
-0.389102
-0.38688
-0.382336
-0.376057
-0.368713
-0.361117
-0.35368
-0.348239
-0.340996
-0.341597
-0.394978
-0.391964
-0.387036
-0.380525
-0.373084
-0.365367
-0.357581
-0.351027
-0.342245
-0.338173
-0.401748
-0.397837
-0.392423
-0.385606
-0.377979
-0.369988
-0.361614
-0.353644
-0.342923
-0.334871
-0.409406
-0.404464
-0.398484
-0.391282
-0.383348
-0.374893
-0.365651
-0.355936
-0.343053
-0.331376
-0.417931
-0.411843
-0.405229
-0.397554
-0.389163
-0.380015
-0.369578
-0.357797
-0.342573
-0.327834
-0.427305
-0.419982
-0.412681
-0.404438
-0.395406
-0.385292
-0.373283
-0.359147
-0.341521
-0.324108
-0.437522
-0.428896
-0.420867
-0.411944
-0.402056
-0.390641
-0.376652
-0.359938
-0.339922
-0.320185
-0.448569
-0.438596
-0.429801
-0.420065
-0.409065
-0.395948
-0.379584
-0.360146
-0.337814
-0.31602
-0.460422
-0.449075
-0.439478
-0.428767
-0.416346
-0.401076
-0.381989
-0.359759
-0.335222
-0.311584
-0.473036
-0.460305
-0.449853
-0.437973
-0.423757
-0.405868
-0.38379
-0.358766
-0.332154
-0.306844
-0.486328
-0.472222
-0.460842
-0.44756
-0.431111
-0.410169
-0.384917
-0.357153
-0.328607
-0.301762
-0.500181
-0.484722
-0.472316
-0.457347
-0.438185
-0.413824
-0.385303
-0.354898
-0.324557
-0.296294
-0.514431
-0.497654
-0.484098
-0.467102
-0.444744
-0.416685
-0.384881
-0.351964
-0.319969
-0.290392
-0.528873
-0.510823
-0.495963
-0.476544
-0.450544
-0.41861
-0.383581
-0.348307
-0.314797
-0.284005
-0.543254
-0.523987
-0.507638
-0.485363
-0.455349
-0.419464
-0.381326
-0.343872
-0.308985
-0.277079
-0.557285
-0.536865
-0.518805
-0.493236
-0.458933
-0.419117
-0.378038
-0.338595
-0.302474
-0.269559
-0.570636
-0.549134
-0.52911
-0.499839
-0.461083
-0.417447
-0.373637
-0.33241
-0.295199
-0.261394
-0.582954
-0.560445
-0.538181
-0.504861
-0.461605
-0.414337
-0.36804
-0.325247
-0.287099
-0.252536
-0.593862
-0.570427
-0.545634
-0.50801
-0.460322
-0.409677
-0.361167
-0.317036
-0.278114
-0.242946
-0.602975
-0.578693
-0.551098
-0.509022
-0.457076
-0.403366
-0.352941
-0.307713
-0.268194
-0.232592
-0.60991
-0.584859
-0.554223
-0.507664
-0.451729
-0.395314
-0.34329
-0.297214
-0.257292
-0.221453
-0.614297
-0.588549
-0.554691
-0.503736
-0.444166
-0.385443
-0.332147
-0.285481
-0.245365
-0.209503
-0.615787
-0.589413
-0.55223
-0.497077
-0.434297
-0.373688
-0.31946
-0.272463
-0.23236
-0.196662
-0.614064
-0.587131
-0.546616
-0.487563
-0.422055
-0.360006
-0.305192
-0.258127
-0.218222
-0.182754
-0.608854
-0.581433
-0.537672
-0.475112
-0.407396
-0.344366
-0.28932
-0.242462
-0.202928
-0.167577
-0.59993
-0.572103
-0.525272
-0.459677
-0.390305
-0.326753
-0.271825
-0.225463
-0.186536
-0.151233
-0.58712
-0.558985
-0.509339
-0.441246
-0.370786
-0.307164
-0.252701
-0.207149
-0.169058
-0.134398
-0.570307
-0.541981
-0.489846
-0.419844
-0.348868
-0.285618
-0.231998
-0.187629
-0.150382
-0.11695
-0.549436
-0.521053
-0.466816
-0.395534
-0.324609
-0.262181
-0.209861
-0.166821
-0.130654
-0.0987365
-0.524508
-0.496224
-0.44033
-0.368416
-0.298095
-0.236983
-0.186247
-0.144789
-0.109965
-0.0797464
-0.495581
-0.467582
-0.410541
-0.3386
-0.269415
-0.210068
-0.161235
-0.121616
-0.0883816
-0.0600408
-0.462769
-0.435283
-0.377671
-0.306151
-0.238687
-0.181527
-0.134923
-0.0973923
-0.065977
-0.0397197
-0.426249
-0.39955
-0.341826
-0.271174
-0.206088
-0.151494
-0.107423
-0.0722134
-0.0428354
-0.018896
-0.386259
-0.360682
-0.302717
-0.234184
-0.171793
-0.120118
-0.0788619
-0.046183
-0.0190412
0.00234417
-0.343032
-0.318926
-0.260765
-0.195279
-0.136013
-0.0875674
-0.049379
-0.0194079
0.0053197
0.0239133
-0.296763
-0.273974
-0.217147
-0.154676
-0.0989406
-0.0540162
-0.0191099
0.0080152
0.0301061
0.0454642
-0.247805
-0.226627
-0.171909
-0.112668
-0.0607858
-0.0196373
0.0118311
0.0360092
0.0550379
0.0661331
-0.196814
-0.177108
-0.125157
-0.0695359
-0.02178
0.0153927
0.0433369
0.0644709
0.079767
0.0853086
-0.14395
-0.125966
-0.0771651
-0.0255574
0.0178331
0.0508833
0.0752418
0.0931411
0.104161
0.104842
-0.0896422
-0.0736433
-0.0282841
0.0189773
0.0578043
0.0866214
0.107284
0.121594
0.128193
0.129822
-0.0343462
-0.0205507
0.0211128
0.063767
0.09788
0.122376
0.13919
0.149712
0.152849
0.155004
0.0214829
0.0328994
0.0706481
0.108503
0.1378
0.157913
0.170785
0.177579
0.177793
0.178911
0.0773877
0.0862884
0.119946
0.152873
0.1773
0.192998
0.201894
0.20507
0.202559
0.20184
0.132911
0.139196
0.168636
0.196567
0.216114
0.227407
0.232347
0.232006
0.226782
0.223769
0.187599
0.191203
0.216353
0.239276
0.253984
0.260918
0.261965
0.258202
0.250264
0.244741
0.241007
0.241902
0.262742
0.280702
0.290653
0.293319
0.290564
0.283478
0.272849
0.264724
0.292699
0.290891
0.307457
0.320552
0.325876
0.3244
0.317965
0.30767
0.294408
0.283663
0.342257
0.337788
0.350167
0.358547
0.359415
0.353958
0.343994
0.330628
0.314821
0.301488
0.389281
0.382225
0.390558
0.394421
0.391043
0.381802
0.368486
0.352209
0.333974
0.318124
0.433391
0.423856
0.428332
0.427923
0.420548
0.407749
0.391285
0.37228
0.351758
0.333496
0.474232
0.462359
0.463212
0.458817
0.447728
0.431628
0.412247
0.390719
0.368071
0.347532
0.511477
0.497436
0.494942
0.486887
0.4724
0.453283
0.431238
0.40741
0.382817
0.360165
0.544828
0.528816
0.52329
0.511936
0.494395
0.47257
0.448135
0.422248
0.395907
0.371333
0.574018
0.556257
0.54805
0.533788
0.513565
0.489362
0.46283
0.435141
0.407264
0.380984
0.598815
0.579549
0.56904
0.552291
0.529777
0.503546
0.475228
0.446004
0.416817
0.389071
0.619019
0.598512
0.586106
0.567313
0.542921
0.515027
0.485246
0.454769
0.424508
0.395554
0.63447
0.613
0.599123
0.578748
0.552904
0.523728
0.49282
0.461378
0.43029
0.400403
0.645043
0.6229
0.607994
0.586514
0.559658
0.529588
0.497897
0.465786
0.434125
0.403599
0.650651
0.628135
0.612652
0.590553
0.563133
0.532566
0.500442
0.467963
0.435989
0.405125
0.651246
0.628661
0.613061
0.590836
0.563302
0.53264
0.500436
0.46789
0.435863
0.404952
0.646821
0.624471
0.609213
0.587354
0.56016
0.529803
0.497873
0.465565
0.43374
0.40308
0.637406
0.615591
0.601132
0.580129
0.553724
0.524072
0.492767
0.460997
0.429637
0.399526
0.623069
0.602085
0.588872
0.569206
0.544033
0.515477
0.485145
0.454214
0.423575
0.394315
0.603919
0.58405
0.572515
0.554655
0.531146
0.504072
0.475052
0.445251
0.415585
0.387458
0.580101
0.561616
0.552173
0.536571
0.515146
0.489925
0.462545
0.434159
0.405708
0.378976
0.551796
0.534948
0.527989
0.515073
0.496133
0.473122
0.4477
0.421004
0.393996
0.368904
0.519221
0.504242
0.500129
0.490305
0.474229
0.453768
0.430605
0.40586
0.380516
0.357286
0.482629
0.469726
0.468788
0.462431
0.449576
0.431982
0.411361
0.388817
0.36534
0.34417
0.442301
0.431657
0.434188
0.431637
0.422331
0.407901
0.390084
0.369973
0.348552
0.329615
0.39855
0.390317
0.396571
0.398132
0.392672
0.381674
0.366902
0.349438
0.330243
0.313683
0.351719
0.346019
0.356203
0.362138
0.36079
0.353464
0.341955
0.327332
0.310512
0.296443
0.302171
0.299095
0.313372
0.3239
0.326891
0.323448
0.315392
0.303781
0.289464
0.277967
0.250297
0.249901
0.268381
0.283675
0.291195
0.291812
0.287373
0.278923
0.267209
0.258328
0.196503
0.198809
0.221553
0.241734
0.253932
0.258753
0.258067
0.252907
0.243865
0.237594
0.141213
0.146208
0.173222
0.198361
0.215342
0.224474
0.227649
0.225892
0.219556
0.215817
0.084863
0.0925004
0.123737
0.15385
0.175675
0.189185
0.196299
0.198053
0.194435
0.193026
0.0278969
0.0380948
0.0734522
0.108499
0.135186
0.153103
0.164194
0.169574
0.168695
0.16917
-0.0292357
-0.016594
0.0227322
0.0626161
0.0941345
0.116449
0.1315
0.140634
0.1427
0.144245
-0.0860853
-0.0711516
-0.028056
0.0165069
0.0527831
0.0794533
0.0983906
0.111353
0.116919
0.117897
-0.142205
-0.125167
-0.078543
-0.0295227
0.011389
0.0423491
0.0650368
0.0816429
0.0916986
0.0915874
-0.197151
-0.178235
-0.128362
-0.0751724
-0.0297958
0.00536635
0.0317163
0.0516336
0.0660723
0.0709418
-0.2505
-0.229942
-0.177161
-0.12015
-0.0705233
-0.0312819
-0.00130683
0.0217563
0.0400481
0.0506132
-0.301932
-0.279836
-0.224634
-0.164176
-0.110552
-0.0674056
-0.0338695
-0.00773893
0.0137349
0.0286803
-0.351026
-0.32756
-0.270589
-0.206971
-0.14965
-0.102829
-0.0658661
-0.0367522
-0.0125126
0.00578414
-0.397352
-0.372461
-0.315026
-0.248248
-0.187611
-0.137378
-0.0971812
-0.0652036
-0.0384028
-0.0171838
-0.440647
-0.414492
-0.357226
-0.287744
-0.224247
-0.17088
-0.127677
-0.0929926
-0.0637904
-0.0398686
-0.480693
-0.453593
-0.39625
-0.325555
-0.259365
-0.203165
-0.157212
-0.12001
-0.0885871
-0.0621808
-0.517258
-0.489518
-0.432426
-0.361088
-0.292719
-0.234082
-0.18566
-0.14615
-0.112705
-0.0840319
-0.550148
-0.522022
-0.465734
-0.394054
-0.324203
-0.263503
-0.212904
-0.171313
-0.136057
-0.105305
-0.579229
-0.55092
-0.495956
-0.424474
-0.353663
-0.291304
-0.238844
-0.195407
-0.15857
-0.125897
-0.604423
-0.5761
-0.522912
-0.452262
-0.380994
-0.317442
-0.263394
-0.218347
-0.180185
-0.145734
-0.625703
-0.597516
-0.546505
-0.477307
-0.406119
-0.341813
-0.286567
-0.240056
-0.200829
-0.164804
-0.6431
-0.615182
-0.566692
-0.499532
-0.428977
-0.364341
-0.308267
-0.26063
-0.220328
-0.183203
-0.656699
-0.629166
-0.58348
-0.518901
-0.449532
-0.384995
-0.328425
-0.279928
-0.238598
-0.201168
-0.666641
-0.639593
-0.596921
-0.535412
-0.467768
-0.403769
-0.34703
-0.297953
-0.255888
-0.218233
-0.673118
-0.646642
-0.607118
-0.549096
-0.483696
-0.420676
-0.364104
-0.314719
-0.272121
-0.233969
-0.676367
-0.650542
-0.614217
-0.560021
-0.497349
-0.435742
-0.37967
-0.330226
-0.287248
-0.248538
-0.676669
-0.651571
-0.61841
-0.568288
-0.508784
-0.44901
-0.393761
-0.344494
-0.301313
-0.262199
-0.674335
-0.650042
-0.619931
-0.574033
-0.518081
-0.460537
-0.406429
-0.357575
-0.31438
-0.275072
-0.669701
-0.64629
-0.619056
-0.577429
-0.525342
-0.4704
-0.417742
-0.369535
-0.326503
-0.287184
-0.663119
-0.640666
-0.616093
-0.57868
-0.53069
-0.478686
-0.427777
-0.380443
-0.337731
-0.298551
-0.654943
-0.633523
-0.611374
-0.578016
-0.534267
-0.485494
-0.436617
-0.390375
-0.348121
-0.309206
-0.645524
-0.625204
-0.605239
-0.575694
-0.536233
-0.490932
-0.444349
-0.39941
-0.357742
-0.319194
-0.635196
-0.616038
-0.598028
-0.571986
-0.536762
-0.495116
-0.451068
-0.407633
-0.366671
-0.328572
-0.624273
-0.606329
-0.590063
-0.567178
-0.536044
-0.498167
-0.456867
-0.415132
-0.37499
-0.337404
-0.613038
-0.596348
-0.58164
-0.561556
-0.534279
-0.500213
-0.461844
-0.421997
-0.382783
-0.345763
-0.601741
-0.586332
-0.573019
-0.555396
-0.531675
-0.501386
-0.466093
-0.428313
-0.390137
-0.353724
-0.590594
-0.576479
-0.56442
-0.548952
-0.528446
-0.501824
-0.469707
-0.434163
-0.397133
-0.361367
-0.579775
-0.566948
-0.556022
-0.542445
-0.524802
-0.501668
-0.472778
-0.439624
-0.403852
-0.368773
-0.569423
-0.557858
-0.547967
-0.536057
-0.520944
-0.501061
-0.475392
-0.444766
-0.410362
-0.376024
-0.559642
-0.549293
-0.540359
-0.529927
-0.517051
-0.500149
-0.477636
-0.449649
-0.416723
-0.383198
-0.550502
-0.541307
-0.533271
-0.524161
-0.513273
-0.499071
-0.479592
-0.45432
-0.422973
-0.390375
-0.542043
-0.533921
-0.526743
-0.518832
-0.509722
-0.497958
-0.481342
-0.458819
-0.429132
-0.397616
-0.534265
-0.527129
-0.520784
-0.513984
-0.506475
-0.496914
-0.482958
-0.463171
-0.435185
-0.404981
-0.527138
-0.5209
-0.515373
-0.509629
-0.503578
-0.49601
-0.484503
-0.467388
-0.441101
-0.412462
-0.520595
-0.515175
-0.510461
-0.505745
-0.50104
-0.495282
-0.486011
-0.47147
-0.446797
-0.42008
-0.514539
-0.509868
-0.505969
-0.502271
-0.498832
-0.494719
-0.487485
-0.475382
-0.452247
-0.427477
-0.508842
-0.504874
-0.501792
-0.49911
-0.496881
-0.494271
-0.48888
-0.479073
-0.457358
-0.43448
-0.503362
-0.500071
-0.497804
-0.496133
-0.495068
-0.493835
-0.490117
-0.482434
-0.462209
-0.439355
-0.497947
-0.49533
-0.493868
-0.493185
-0.493236
-0.493267
-0.491085
-0.485201
-0.467942
-0.436227
-0.492454
-0.490525
-0.489843
-0.490106
-0.491201
-0.492384
-0.491615
-0.487106
-0.473768
-0.437705
-0.486756
-0.485544
-0.485601
-0.486736
-0.488779
-0.490984
-0.491476
-0.488029
-0.478187
-0.441047
-0.480763
-0.480297
-0.481034
-0.48294
-0.485802
-0.488871
-0.490421
-0.487848
-0.480558
-0.443445
-0.47442
-0.474727
-0.476067
-0.478618
-0.482139
-0.48589
-0.488257
-0.486421
-0.480869
-0.444655
-0.46772
-0.468815
-0.470666
-0.473717
-0.477719
-0.481951
-0.484895
-0.483647
-0.479327
-0.445054
-0.460707
-0.462576
-0.464844
-0.468247
-0.472548
-0.477054
-0.48035
-0.479525
-0.476244
-0.444709
-0.453463
-0.456071
-0.458654
-0.462264
-0.466697
-0.471306
-0.474718
-0.474267
-0.471887
-0.443502
-0.446106
-0.449392
-0.45219
-0.455877
-0.460295
-0.464846
-0.468269
-0.468444
-0.465919
-0.441579
-0.438778
-0.442656
-0.445577
-0.449229
-0.453509
-0.457884
-0.461232
-0.461863
-0.459132
-0.440538
-0.431635
-0.435996
-0.438955
-0.44248
-0.446533
-0.450648
-0.453863
-0.454819
-0.452249
-0.438185
-0.424827
-0.429545
-0.432466
-0.435793
-0.439557
-0.443363
-0.446413
-0.44761
-0.445459
-0.434895
-0.418492
-0.423428
-0.426245
-0.429323
-0.432755
-0.436229
-0.439101
-0.440487
-0.438926
-0.43125
-0.41274
-0.417745
-0.420407
-0.423197
-0.426275
-0.429412
-0.432105
-0.433656
-0.432785
-0.427542
-0.407649
-0.41258
-0.415035
-0.417512
-0.420228
-0.423032
-0.425555
-0.427265
-0.42713
-0.423978
-0.403258
-0.407975
-0.410183
-0.412331
-0.414684
-0.417169
-0.419536
-0.421409
-0.42202
-0.420715
-0.399568
-0.403941
-0.405869
-0.407678
-0.409674
-0.411857
-0.414084
-0.416125
-0.417471
-0.41784
-0.396543
-0.400457
-0.402079
-0.403545
-0.405192
-0.40709
-0.409192
-0.411404
-0.413453
-0.415354
-0.394118
-0.397478
-0.398773
-0.399893
-0.401199
-0.402825
-0.40481
-0.407186
-0.40989
-0.413179
-0.392202
-0.394935
-0.395887
-0.39666
-0.397631
-0.398991
-0.400857
-0.403378
-0.406667
-0.411171
-0.424173
-0.451395
-0.496802
-0.541142
-0.563724
-0.51859
-0.419637
-0.311225
-0.23401
-0.192805
-0.189563
-0.204022
-0.20801
-0.174157
-0.12387
-0.103161
-0.0842289
-0.08822
-0.0991169
-0.095566
-0.0870672
-0.0868147
-0.0657803
-0.0551616
-0.0471657
-0.0494904
-0.0581982
-0.054039
-0.0151391
-0.000200363
-0.424896
-0.45679
-0.508362
-0.558883
-0.584734
-0.539187
-0.434566
-0.318777
-0.234522
-0.187598
-0.178443
-0.189534
-0.194079
-0.164422
-0.119235
-0.102667
-0.0859594
-0.0921606
-0.10529
-0.101833
-0.0898851
-0.0881849
-0.0662354
-0.0550329
-0.046805
-0.0486905
-0.0581701
-0.0541504
-0.0149234
0.000168202
-0.424951
-0.460588
-0.517163
-0.572994
-0.602102
-0.556643
-0.44724
-0.325009
-0.234337
-0.182112
-0.167189
-0.175121
-0.179539
-0.154019
-0.114269
-0.101965
-0.0876429
-0.0961466
-0.111573
-0.108073
-0.0926257
-0.08944
-0.0666525
-0.0548942
-0.0464859
-0.0479303
-0.0581323
-0.0542418
-0.0147369
0.000485048
-0.423583
-0.462926
-0.523029
-0.583379
-0.615676
-0.570893
-0.4577
-0.330034
-0.233652
-0.176533
-0.156045
-0.160961
-0.1646
-0.143016
-0.108986
-0.10103
-0.0892446
-0.100121
-0.1179
-0.114236
-0.0952785
-0.0905764
-0.0670283
-0.0547453
-0.0462102
-0.0472128
-0.0580863
-0.0543139
-0.0145805
0.000747674
-0.421135
-0.463173
-0.525926
-0.590008
-0.625442
-0.581939
-0.466019
-0.333969
-0.232649
-0.17103
-0.145255
-0.147209
-0.149529
-0.1315
-0.103408
-0.0998383
-0.090727
-0.104023
-0.124202
-0.12027
-0.0978339
-0.0915916
-0.0673595
-0.0545856
-0.0459796
-0.0465401
-0.0580331
-0.0543667
-0.0144548
0.000954
-0.417558
-0.461411
-0.52594
-0.593002
-0.631495
-0.589836
-0.47229
-0.336929
-0.231485
-0.165758
-0.135048
-0.134014
-0.134625
-0.119573
-0.0975652
-0.0983724
-0.0920499
-0.107791
-0.130406
-0.12613
-0.100284
-0.092484
-0.0676428
-0.0544138
-0.0457953
-0.0459125
-0.0579738
-0.0544
-0.0143603
0.00110235
-0.41286
-0.457823
-0.52329
-0.592621
-0.634021
-0.594685
-0.476619
-0.339027
-0.230292
-0.160854
-0.125616
-0.121513
-0.120182
-0.107366
-0.0914972
-0.0966175
-0.0931724
-0.111364
-0.136443
-0.131771
-0.10262
-0.0932528
-0.0678747
-0.0542284
-0.0456578
-0.0453292
-0.0579092
-0.0544127
-0.0142968
0.00119137
-0.407185
-0.452645
-0.518301
-0.589223
-0.633277
-0.596627
-0.479123
-0.340367
-0.229171
-0.156435
-0.117098
-0.109835
-0.106475
-0.0950466
-0.0852513
-0.0945636
-0.0940531
-0.114683
-0.142244
-0.137152
-0.104836
-0.0938981
-0.068052
-0.054027
-0.0455669
-0.0447875
-0.0578395
-0.0544032
-0.0142641
0.00122005
-0.400784
-0.446165
-0.511361
-0.583226
-0.629574
-0.595834
-0.479918
-0.341047
-0.228197
-0.152596
-0.109579
-0.0990945
-0.0937428
-0.0828181
-0.0788832
-0.092206
-0.0946521
-0.117694
-0.147747
-0.142235
-0.106927
-0.0944208
-0.0681715
-0.053807
-0.0455215
-0.044283
-0.0577649
-0.0543695
-0.0142619
0.00118763
-0.393974
-0.438714
-0.502886
-0.575065
-0.623244
-0.592528
-0.479116
-0.34115
-0.227418
-0.149403
-0.10309
-0.0893817
-0.0821633
-0.07091
-0.0724552
-0.089546
-0.0949318
-0.12035
-0.152896
-0.146987
-0.108885
-0.0948223
-0.0682301
-0.0535653
-0.0455195
-0.04381
-0.0576849
-0.0543087
-0.0142895
0.00109359
-0.387099
-0.430638
-0.493284
-0.565152
-0.614636
-0.586958
-0.476825
-0.340754
-0.226856
-0.146896
-0.0976229
-0.0807554
-0.0718477
-0.0595607
-0.0660326
-0.0865914
-0.0948579
-0.122609
-0.157644
-0.151378
-0.110707
-0.0951049
-0.0682254
-0.0532984
-0.045558
-0.0433608
-0.0575987
-0.0542174
-0.0143459
0.000937644
-0.380489
-0.422272
-0.482925
-0.553835
-0.6041
-0.579363
-0.473176
-0.339934
-0.226523
-0.145091
-0.0931446
-0.073239
-0.0628382
-0.0489942
-0.0596854
-0.0833559
-0.0944002
-0.124438
-0.161953
-0.155382
-0.112387
-0.095272
-0.0681554
-0.0530026
-0.0456334
-0.0429267
-0.0575047
-0.0540915
-0.0144301
0.000719717
-0.37442
-0.413914
-0.472109
-0.541568
-0.591964
-0.56996
-0.468337
-0.338774
-0.226438
-0.143995
-0.0896139
-0.0668236
-0.0551153
-0.039376
-0.0534845
-0.0798576
-0.0935329
-0.12581
-0.165798
-0.158975
-0.113922
-0.0953273
-0.0680187
-0.0526738
-0.0457415
-0.0424981
-0.0574012
-0.0539264
-0.0145409
0.00043996
-0.369067
-0.405806
-0.461035
-0.529401
-0.578485
-0.558955
-0.462475
-0.337356
-0.226612
-0.143588
-0.0869765
-0.0614641
-0.0486013
-0.0308376
-0.047494
-0.076117
-0.0922346
-0.126706
-0.169159
-0.162137
-0.115307
-0.095274
-0.0678136
-0.0523076
-0.0458742
-0.0420647
-0.0572858
-0.0537169
-0.0146769
9.87512e-05
-0.364489
-0.398099
-0.449863
-0.516388
-0.563703
-0.546509
-0.455706
-0.335672
-0.226951
-0.143741
-0.0851181
-0.0570608
-0.0431542
-0.023932
-0.0417765
-0.0721557
-0.0904881
-0.127113
-0.172026
-0.164851
-0.116535
-0.0951123
-0.0675367
-0.0518997
-0.0460199
-0.0416152
-0.0571552
-0.053457
-0.0148364
-0.000303376
-0.360647
-0.390852
-0.43881
-0.499303
-0.547561
-0.532796
-0.448071
-0.333571
-0.227242
-0.144238
-0.0838888
-0.0534911
-0.0385855
-0.0176696
-0.0363851
-0.067993
-0.0882798
-0.127022
-0.174398
-0.167115
-0.117598
-0.0948452
-0.0671877
-0.0514492
-0.0461754
-0.0411375
-0.0570048
-0.0531404
-0.0150176
-0.000765803
-0.357419
-0.384052
-0.427909
-0.483827
-0.53037
-0.518162
-0.439835
-0.331268
-0.22771
-0.145261
-0.0834229
-0.0507974
-0.0348501
-0.0125777
-0.0313455
-0.0636398
-0.0855964
-0.126433
-0.176275
-0.168921
-0.118502
-0.0944985
-0.0667828
-0.0509592
-0.0463734
-0.0406238
-0.0568312
-0.0527601
-0.0152187
-0.00128681
-0.354467
-0.377584
-0.417048
-0.46851
-0.512188
-0.503026
-0.431927
-0.330048
-0.229627
-0.147813
-0.0843906
-0.0492911
-0.0321149
-0.00873084
-0.0267305
-0.0590999
-0.0824344
-0.12533
-0.177646
-0.170131
-0.119265
-0.0941229
-0.0663544
-0.0504288
-0.0466614
-0.0400878
-0.0566462
-0.0523087
-0.0154374
-0.00186043
-0.351691
-0.371073
-0.407625
-0.452544
-0.492457
-0.48688
-0.42414
-0.329759
-0.232722
-0.151523
-0.0865109
-0.0486569
-0.0299858
-0.0059905
-0.0228384
-0.054455
-0.0787372
-0.123771
-0.178449
-0.170512
-0.11985
-0.0936814
-0.0658739
-0.049833
-0.0469246
-0.0395676
-0.0564627
-0.0517827
-0.0156721
-0.00248224
-0.349599
-0.364694
-0.396014
-0.437124
-0.472933
-0.468138
-0.411054
-0.322826
-0.229671
-0.150315
-0.0855817
-0.0463819
-0.026287
-0.00294058
-0.0190137
-0.0495841
-0.0746974
-0.121542
-0.179034
-0.170971
-0.120043
-0.0928442
-0.0651245
-0.0491173
-0.046679
-0.038907
-0.0561181
-0.0511618
-0.0159234
-0.00319337
-0.338923
-0.360291
-0.390847
-0.426544
-0.455966
-0.447317
-0.390152
-0.305301
-0.216817
-0.141118
-0.0789714
-0.0408351
-0.0194561
0.00325409
-0.00891271
-0.0391665
-0.067224
-0.119477
-0.183465
-0.175441
-0.119961
-0.0912593
-0.0638541
-0.0481535
-0.0454577
-0.0368833
-0.0549435
-0.0499835
-0.0162623
-0.00428084
-0.33588
-0.354338
-0.378407
-0.405944
-0.426664
-0.414358
-0.36054
-0.283033
-0.201986
-0.131776
-0.0734052
-0.0361124
-0.0136793
0.00694074
-0.00425888
-0.0317131
-0.0609191
-0.115484
-0.182995
-0.176286
-0.117698
-0.0882622
-0.061587
-0.0465841
-0.0445235
-0.0442685
-0.0538913
-0.0491635
-0.0163068
-0.00546647
-0.329309
-0.344318
-0.362038
-0.382297
-0.395583
-0.381394
-0.332275
-0.26234
-0.18834
-0.123079
-0.0680254
-0.0316606
-0.00847036
0.0106848
0.00108667
-0.0255622
-0.0559337
-0.110858
-0.179882
-0.175218
-0.114711
-0.0847748
-0.058999
-0.0448314
-0.0435128
-0.0442482
-0.0527552
-0.0484118
-0.0160429
-0.006635
-0.319356
-0.331163
-0.343116
-0.357082
-0.364579
-0.349459
-0.305004
-0.242226
-0.174997
-0.114574
-0.0627724
-0.0274557
-0.00374603
0.0147768
0.00761437
-0.01806
-0.0502022
-0.105183
-0.175645
-0.172544
-0.111045
-0.0807716
-0.056032
-0.0428112
-0.0424097
-0.0441109
-0.0513511
-0.0474076
-0.0156345
-0.0078149
-0.305977
-0.315496
-0.322707
-0.331434
-0.334515
-0.319073
-0.279129
-0.223053
-0.162184
-0.106359
-0.0576303
-0.0234601
0.000567369
0.0191542
0.0150036
-0.00883784
-0.0430911
-0.0982971
-0.169972
-0.167859
-0.106573
-0.0762418
-0.0526657
-0.0405073
-0.0411751
-0.0439194
-0.0496186
-0.0460729
-0.0151522
-0.0089812
-0.289826
-0.298193
-0.301748
-0.306231
-0.305995
-0.29067
-0.254903
-0.204912
-0.149897
-0.0984381
-0.0526016
-0.0196425
0.00455402
0.0237834
0.0230978
0.00179094
-0.0348002
-0.0901923
-0.16229
-0.160933
-0.10124
-0.0712024
-0.0488832
-0.0378909
-0.0397644
-0.0435868
-0.0475191
-0.0443942
-0.0145787
-0.0101014
-0.272089
-0.27989
-0.280842
-0.282017
-0.279334
-0.264394
-0.232388
-0.187852
-0.138177
-0.0908403
-0.0477154
-0.0159838
0.00829611
0.0285905
0.0318457
0.0134998
-0.0255913
-0.0809659
-0.152427
-0.151681
-0.095013
-0.0656832
-0.044676
-0.0349348
-0.0381218
-0.0430385
-0.0449912
-0.0423215
-0.0138836
-0.0111454
-0.253535
-0.261051
-0.260333
-0.259059
-0.254602
-0.240205
-0.21155
-0.171875
-0.127039
-0.0835737
-0.0430142
-0.0124769
0.0118461
0.0334454
0.0411882
0.0259889
-0.0155876
-0.0709702
-0.140405
-0.140108
-0.0878816
-0.0597293
-0.0400463
-0.0316112
-0.0361772
-0.0421829
-0.0419626
-0.0397665
-0.0130605
-0.0120814
-0.234719
-0.242074
-0.240412
-0.237432
-0.231732
-0.217977
-0.192301
-0.156952
-0.116493
-0.0766412
-0.0385499
-0.00913098
0.0152103
0.0381781
0.0509508
0.0388103
-0.00497136
-0.0607011
-0.126315
-0.126337
-0.0798706
-0.0533988
-0.0350095
-0.0278921
-0.0338462
-0.0409183
-0.0383614
-0.0366316
-0.0121208
-0.0128745
-0.216076
-0.223262
-0.221175
-0.217108
-0.210606
-0.197558
-0.174536
-0.143038
-0.106542
-0.0700424
-0.0343677
-0.00597637
0.0183528
0.0425886
0.0606707
0.0512012
0.00583886
-0.0504884
-0.110344
-0.110657
-0.0710504
-0.0467594
-0.0295954
-0.0237508
-0.0310297
-0.0391342
-0.0341247
-0.0328304
-0.0110807
-0.0134887
-0.197882
-0.204844
-0.20268
-0.198024
-0.191088
-0.178793
-0.158146
-0.130078
-0.097186
-0.0637805
-0.0304937
-0.00306564
0.0212048
0.0464651
0.0694808
0.0621231
0.016255
-0.0402343
-0.0928261
-0.093555
-0.0615518
-0.0398829
-0.0238482
-0.0191624
-0.027616
-0.0367115
-0.0292079
-0.028296
-0.00995743
-0.0138906
-0.180321
-0.187004
-0.184977
-0.180112
-0.17305
-0.161542
-0.143027
-0.118019
-0.0884155
-0.0578663
-0.0269321
-0.000463075
0.0236666
0.0496066
0.0762451
0.0706577
0.0258379
-0.0294341
-0.0743117
-0.0757253
-0.0515736
-0.0328394
-0.0178261
-0.0141061
-0.0234837
-0.0335243
-0.0235959
-0.0229901
-0.00877077
-0.0140526
-0.163531
-0.169882
-0.168117
-0.16332
-0.156375
-0.14568
-0.129089
-0.106814
-0.0802154
-0.0523162
-0.0236756
0.00177171
0.0256104
0.0518308
0.0798869
0.0764294
0.0345027
-0.0176926
-0.055646
-0.0580383
-0.0413812
-0.0256965
-0.011599
-0.00857033
-0.0185077
-0.0294444
-0.0173168
-0.0169166
-0.00754593
-0.0139542
-0.147608
-0.153585
-0.152142
-0.147605
-0.140962
-0.131097
-0.116247
-0.0964192
-0.0725671
-0.0471437
-0.0207192
0.00359189
0.0269007
0.052968
0.0800507
0.0794723
0.0421196
-0.00543632
-0.0379296
-0.0413856
-0.0312695
-0.018526
-0.00524667
-0.00256179
-0.0125724
-0.0243485
-0.0104544
-0.0101405
-0.00630791
-0.0135826
-0.132617
-0.138193
-0.137091
-0.132934
-0.126724
-0.117695
-0.104428
-0.0867965
-0.0654518
-0.0423538
-0.0180644
0.00496623
0.0274208
0.0528852
0.0772597
0.0797858
0.0481057
0.00611259
-0.0221265
-0.0264433
-0.0215158
-0.0114068
0.0011434
0.00388249
-0.00559241
-0.0181326
-0.00315915
-0.00281769
-0.00505388
-0.0129308
-0.118598
-0.123757
-0.122989
-0.11928
-0.113586
-0.105391
-0.0935637
-0.0779095
-0.0588525
-0.0379434
-0.0157139
0.00588908
0.0270971
0.0495552
0.0724144
0.077419
0.0518499
0.015842
-0.00877873
-0.0135563
-0.012344
-0.00442892
0.00747414
0.0106818
0.00244746
-0.0107364
0.00434997
0.00480173
-0.00374481
-0.0119941
-0.10557
-0.110309
-0.10985
-0.106618
-0.101486
-0.0941084
-0.0835959
-0.0697237
-0.0527535
-0.0339029
-0.0136628
0.00639996
0.0262133
0.0469164
0.0665857
0.0728877
0.0532317
0.0232827
0.00207443
-0.00276156
-0.0039108
0.00230401
0.0136323
0.0176961
0.0114358
-0.0021871
0.011785
0.0123804
-0.00230012
-0.0107693
-0.093537
-0.0978623
-0.0976784
-0.0949254
-0.0903691
-0.0837834
-0.0744713
-0.0622068
-0.0471391
-0.0302191
-0.0118941
0.0065545
0.0248545
0.0435142
0.0604002
0.0670657
0.0526953
0.0285661
0.0106765
0.00610186
0.00368942
0.00867968
0.0194819
0.0246985
0.0210751
0.00733541
0.018819
0.0195053
-0.000594413
-0.00926409
-0.0824901
-0.0864152
-0.0864704
-0.0841777
-0.0801908
-0.0743598
-0.066143
-0.0553287
-0.0419931
-0.0268748
-0.0103807
0.00642284
0.0231455
0.0397389
0.054274
0.0607861
0.0508535
0.03207
0.0173474
0.0132696
0.0104163
0.0145908
0.0248746
0.0313488
0.0308172
0.0174213
0.0251412
0.0257326
0.00151206
-0.00749932
-0.072412
-0.0759575
-0.0762146
-0.0743522
-0.0709115
-0.0657898
-0.0585699
-0.0490613
-0.037298
-0.0238502
-0.00908853
0.00608659
0.021228
0.035882
0.0484624
0.0546328
0.048247
0.0341874
0.0224133
0.0189941
0.016273
0.0199483
0.0296819
0.0372448
0.0398243
0.0273689
0.0304867
0.030675
0.00411624
-0.00551203
-0.0632803
-0.0664719
-0.0668957
-0.0654261
-0.0624973
-0.0580332
-0.0517162
-0.0433791
-0.0330364
-0.021124
-0.00798073
0.00562754
0.0192369
0.0321502
0.043119
0.0489396
0.0452936
0.0352609
0.0261771
0.0235103
0.0212891
0.0246787
0.0338131
0.0420902
0.0471121
0.0362413
0.0346874
0.0340965
0.00720034
-0.0033636
-0.0550703
-0.057937
-0.0584959
-0.0573781
-0.0549197
-0.0510565
-0.0455516
-0.0382597
-0.0291913
-0.0186752
-0.00702172
0.00511648
0.0172861
0.0286872
0.0383363
0.0438626
0.0422916
0.0355834
0.0288973
0.0270155
0.0255034
0.0287262
0.0371947
0.0457551
0.0520078
0.0432618
0.0377521
0.0360121
0.0105673
-0.00115938
-0.0477577
-0.050331
-0.0509966
-0.0501885
-0.0481548
-0.0448331
-0.0400515
-0.0336847
-0.025748
-0.0164857
-0.00618171
0.00461061
0.0154635
0.0255754
0.0341551
0.0394517
0.0394358
0.0353863
0.0308094
0.0296829
0.0289611
0.0320742
0.0397987
0.0481901
0.0544386
0.048069
0.0399005
0.0367006
0.0138374
0.000944148
-0.0413213
-0.0436344
-0.0443823
-0.0438419
-0.0421843
-0.0393429
-0.0351976
-0.0296402
-0.0226957
-0.0145422
-0.00543826
0.00415184
0.0138308
0.0228562
0.0305786
0.0357007
0.03684
0.0348533
0.0321166
0.0316587
0.0317145
0.0347533
0.0416682
0.04952
0.0550109
0.0507579
0.0414031
0.0365807
0.0165996
0.00278125
-0.0357445