/*--------------------------------*- C++ -*----------------------------------*\
  =========                 |
  \\      /  F ield         | OpenFOAM: The Open Source CFD Toolbox
   \\    /   O peration     | Website:  https://openfoam.org
    \\  /    A nd           | Version:  7
     \\/     M anipulation  |
\*---------------------------------------------------------------------------*/
FoamFile
{
    version     2.0;
    format      ascii;
    class       surfaceScalarField;
    location    "200";
    object      phi;
}
// * * * * * * * * * * * * * * * * * * * * * * * * * * * * * * * * * * * * * //

dimensions      [0 3 -1 0 0 0 0];

internalField   nonuniform List<scalar> 
16735
(
-8.73087e-05
0.000990889
-0.000903581
-0.000315281
0.00314408
-0.00291611
-0.00067441
0.00544789
-0.00508876
-0.00115092
0.00771773
-0.00724122
-0.00171872
0.00989898
-0.00933117
-0.00233986
0.0120747
-0.0114536
-0.00297196
0.0143999
-0.0137678
-0.00357787
0.0170158
-0.0164099
-0.00412963
0.0199908
-0.0194391
0.0232932
-0.0228247
-0.00459805
-5.80114e-05
0.0010489
-0.000217367
0.00330344
-0.000478034
0.00570856
-0.000833189
0.00807288
-0.00125966
0.0103255
-0.0017168
0.0125319
-0.00215342
0.0148365
-0.00251758
0.01738
-0.00276403
0.0202373
0.0233641
-0.00283498
-2.94572e-05
0.00107836
-0.000120071
0.00339405
-0.00027949
0.00586798
-0.000506965
0.00830036
-0.000782212
0.0106007
-0.00106229
0.012812
-0.00128732
0.0150615
-0.00138949
0.0174822
-0.00130487
0.0201526
0.0230187
-0.000959399
-3.08535e-06
0.00108144
-2.75296e-05
0.00341849
-8.67716e-05
0.00592722
-0.000184616
0.0083982
-0.000303423
0.0107195
-0.000398665
0.0129072
-0.000402728
0.0150656
-0.000233236
0.0173127
0.000202801
0.0197166
0.0222468
0.000974612
2.03309e-05
0.00106111
5.61104e-05
0.00338271
9.20812e-05
0.00589125
0.000121379
0.0083689
0.000159281
0.0106816
0.00025099
0.0128155
0.000470084
0.0148465
0.000911581
0.0168712
0.00167697
0.0189512
0.021025
0.00289876
3.94111e-05
0.0010217
0.000127706
0.00329442
0.000250086
0.00576887
0.000399202
0.00821979
0.00058881
0.010492
0.000863878
0.0125404
0.0013017
0.0144087
0.00200723
0.0161656
0.00309646
0.017862
0.0193856
0.00473586
5.36168e-05
0.000968085
0.000184328
0.00316371
0.000381012
0.00557218
0.000638174
0.00796262
0.000969222
0.0101609
0.00141833
0.0120913
0.00206413
0.0137629
0.00301819
0.0152116
0.00440542
0.0164748
0.0173587
0.00643241
6.2447e-05
0.000905638
0.000223938
0.00300222
0.00047993
0.00531619
0.000829265
0.00761329
0.00128648
0.00970374
0.00189478
0.011483
0.00273202
0.0129256
0.00391254
0.0140311
0.00556368
0.0148236
0.014979
0.00794331
6.566e-05
0.000839978
0.000245325
0.00282255
0.000543548
0.00501797
0.000965837
0.007191
0.00152954
0.00914004
0.00227725
0.0107353
0.00328455
0.0119183
0.00466508
0.0126505
0.00654114
0.0129476
0.0122797
0.00924045
6.32651e-05
0.000776712
0.000248202
0.00263762
0.000570489
0.00469568
0.0010443
0.00671719
0.00169156
0.00849278
0.00255516
0.0098717
0.00370794
0.0107656
0.00526048
0.011098
0.00732308
0.010885
0.00928303
0.0103198
5.55351e-05
0.000721177
0.000233298
0.00245985
0.000561599
0.00436738
0.00106485
0.00621393
0.00177129
0.00778635
0.00272565
0.00891734
0.00399909
0.00949211
0.00569866
0.00939843
0.00792034
0.0086633
0.00599059
0.0112128
4.30383e-05
0.000678139
0.000202477
0.00230041
0.000520269
0.00404959
0.00103222
0.00570198
0.00177464
0.00704393
0.00279651
0.00789547
0.00417047
0.00811815
0.0060025
0.0075664
0.00838373
0.00628207
0.0023728
0.0120015
2.66855e-05
0.000651453
0.000158858
0.00216824
0.000452738
0.00375571
0.000956417
0.0051983
0.00171628
0.00628407
0.00278919
0.00682256
0.00425536
0.00665198
0.00622588
0.00559587
0.0088166
0.00369136
-0.00163606
0.0128255
7.77414e-06
0.000643679
0.000106894
0.00206912
0.000368281
0.00349432
0.000853192
0.00471339
0.00162073
0.00551653
0.00274101
0.00570229
0.00431128
0.00508171
0.00645764
0.00344951
0.00937228
0.000776722
-0.00612592
0.0138621
-1.19978e-05
0.000655677
5.23635e-05
0.00200476
0.000279106
0.00326758
0.000743912
0.00424858
0.00152231
0.00473812
0.00270487
0.00451973
0.0044182
0.00336838
0.00681559
0.00105213
0.0102235
-0.00263118
-0.0111715
0.0152691
-3.06021e-05
0.000686279
2.63975e-06
0.00197152
0.000199708
0.00307051
0.000654328
0.00379396
0.0014629
0.00392955
0.00274496
0.00323767
0.00466882
0.00144451
0.00742753
-0.00170657
0.0115059
-0.00670953
-0.0167712
0.0171055
-4.59977e-05
0.000732277
-3.64755e-05
0.001962
0.000145371
0.00288867
0.000612006
0.00332733
0.00148709
0.00305447
0.00292755
0.00179721
0.00515122
-0.000779157
0.00840097
-0.00495632
0.0132616
-0.0115702
-0.0227966
0.019287
-5.60867e-05
0.000788364
-5.71622e-05
0.00196307
0.00013064
0.00270086
0.00064262
0.00281535
0.00163522
0.00206187
0.00330882
0.000123613
0.00592869
-0.00339903
0.00978956
-0.00881719
0.015412
-0.0171926
-0.0290008
0.0216162
-5.92861e-05
0.00084765
-5.42244e-05
0.00195801
0.000166933
0.00247971
0.000765897
0.00221638
0.00193611
0.000891661
0.00392264
-0.00186292
0.00702366
-0.00650005
0.0115663
-0.0133599
0.0177793
-0.0234055
-0.0350932
0.0238717
-5.47274e-05
0.000902377
-2.42523e-05
0.00192753
0.000261007
0.00219445
0.000992566
0.00148482
0.00240188
-0.00051765
0.00477299
-0.00423404
0.00840878
-0.0101358
0.0136074
-0.0185585
0.0201506
-0.0299487
-0.0409051
0.0259624
-4.2448e-05
0.000944825
3.23771e-05
0.00185271
0.000414124
0.0018127
0.00132336
0.000575585
0.00302724
-0.00222153
0.00583424
-0.00704103
0.0100124
-0.014314
0.0157094
-0.0242555
0.0222678
-0.0365072
-0.0486857
0.0300485
-2.33465e-05
0.000968172
0.000114544
0.00171482
0.000622822
0.00130442
0.00175031
-0.000551901
0.0037926
-0.00426382
0.00705814
-0.0103066
0.0117327
-0.0189886
0.0177124
-0.0302351
0.0242385
-0.0430333
-0.0556957
0.0312485
3.17852e-06
0.000964993
0.000219416
0.00149858
0.000880253
0.000643585
0.00225951
-0.00193116
0.00466877
-0.00667309
0.00838238
-0.0140202
0.0134492
-0.0240554
0.0195024
-0.0362883
0.0257585
-0.0492894
-0.0617499
0.0318127
3.26505e-05
0.000932343
0.000342479
0.00118875
0.00117802
-0.00019196
0.00283422
-0.00358736
0.00562119
-0.00946006
0.00973776
-0.0181367
0.0150501
-0.0293677
0.0209798
-0.0422181
0.0267476
-0.0550572
-0.066967
0.0319647
6.61613e-05
0.000866181
0.000480199
0.000774716
0.00150788
-0.00121964
0.00345704
-0.00553652
0.00661241
-0.0126154
0.0110531
-0.0225775
0.0164442
-0.0347587
0.0220743
-0.0478482
0.0272558
-0.0602387
-0.0714017
0.0316905
0.000102388
0.000763793
0.000629658
0.000247446
0.00186255
-0.00245253
0.00411067
-0.00778464
0.00760314
-0.0161079
0.0122612
-0.0272356
0.0175664
-0.0400639
0.0227691
-0.0530509
0.0273224
-0.0647919
-0.0751319
0.0310526
0.000140949
0.000622844
0.000788877
-0.000400482
0.00223572
-0.00389937
0.0047774
-0.0103263
0.00855307
-0.0198836
0.0133047
-0.0319872
0.018381
-0.0451402
0.0230783
-0.0577482
0.0270132
-0.0687268
-0.0782544
0.0301358
0.000181831
0.000441013
0.00095653
-0.00117518
0.00262124
-0.00556409
0.0054381
-0.0131432
0.00942267
-0.0238681
0.0141412
-0.0367057
0.0188794
-0.0498785
0.0230388
-0.0619077
0.0263962
-0.0720842
-0.0808599
0.0290016
0.000225182
0.000215831
0.0011314
-0.00208139
0.0030122
-0.00744489
0.00607172
-0.0162027
0.0101763
-0.0279727
0.0147461
-0.0412755
0.0190742
-0.0542065
0.0226981
-0.0655316
0.0255351
-0.0749211
-0.0830341
0.0277093
0.000271104
-5.52738e-05
0.00131181
-0.0031221
0.00340012
-0.0095332
0.00665597
-0.0194586
0.0107855
-0.0321022
0.015112
-0.0456021
0.0189922
-0.0580868
0.0221069
-0.0686463
0.0244868
-0.0773009
-0.0848502
0.0263028
0.000319494
-0.000374768
0.0014953
-0.00429791
0.0037748
-0.0118127
0.00716912
-0.0228529
0.0112317
-0.0361648
0.0152457
-0.049616
0.0186681
-0.0615092
0.021314
-0.0712922
0.0232986
-0.0792855
-0.0863683
0.0248168
0.000369969
-0.000744737
0.00167844
-0.00560638
0.00412469
-0.0142589
0.00759233
-0.0263205
0.0115069
-0.0400793
0.0151643
-0.0532734
0.0181392
-0.0644842
0.0203632
-0.0735161
0.0220089
-0.0809312
-0.0876363
0.0232769
0.000421831
-0.00116657
0.00185692
-0.00704147
0.00443793
-0.01684
0.00791155
-0.0297941
0.0116124
-0.0437802
0.0148911
-0.0565521
0.0174423
-0.0670354
0.0192921
-0.0753659
0.0206477
-0.0822869
-0.0886907
0.021702
0.000474117
-0.00164068
0.00202585
-0.0085932
0.00470343
-0.0195175
0.00811858
-0.0332093
0.0115573
-0.047219
0.0144523
-0.0594471
0.0166111
-0.0691942
0.018132
-0.0768868
0.019238
-0.0833928
-0.0895584
0.0201057
0.000525666
-0.00216635
0.00218009
-0.0102476
0.00491198
-0.0222494
0.00821117
-0.0365085
0.0113557
-0.0503634
0.0138748
-0.0619662
0.0156757
-0.070995
0.0169084
-0.0781196
0.0177972
-0.0842816
-0.090259
0.0184978
0.000575196
-0.00274155
0.00231466
-0.0119871
0.00505703
-0.0249918
0.00819221
-0.0396436
0.0110243
-0.0531956
0.0131838
-0.0641257
0.0146615
-0.0724727
0.0156413
-0.0790995
0.0163382
-0.0849784
-0.090806
0.0168853
0.000621382
-0.00336293
0.0024251
-0.0137908
0.00513499
-0.0277017
0.0080685
-0.0425772
0.0105816
-0.0557086
0.0124027
-0.0659468
0.01359
-0.07366
0.0143464
-0.0798559
0.0148706
-0.0855026
-0.0912089
0.0152734
0.000662926
-0.00402586
0.00250778
-0.0156357
0.0051452
-0.0303391
0.00784956
-0.0452815
0.0100455
-0.0579046
0.0115519
-0.0674531
0.0124786
-0.0745868
0.0130357
-0.0804129
0.0134014
-0.0858684
-0.0914736
0.0136662
0.000698626
-0.00472448
0.00256013
-0.0174972
0.0050896
-0.0328686
0.00754645
-0.0477384
0.00943327
-0.0597914
0.0106491
-0.0686689
0.0113416
-0.0752793
0.0117183
-0.0807897
0.011936
-0.086086
-0.0916044
0.0120667
0.000727426
-0.00545191
0.00258067
-0.0193504
0.00497214
-0.0352601
0.00717083
-0.0499371
0.00876061
-0.0613812
0.00970932
-0.0696176
0.0101901
-0.0757601
0.0104015
-0.0810011
0.0104783
-0.0861628
-0.0916039
0.0104778
0.00074846
-0.00620037
0.00256906
-0.021171
0.00479817
-0.0374892
0.00673431
-0.0518732
0.00804153
-0.0626884
0.00874501
-0.0703211
0.00903296
-0.076048
0.00909048
-0.0810586
0.00903149
-0.0861038
-0.0914737
0.00890134
0.000761074
-0.00696144
0.00252598
-0.0229359
0.00457394
-0.0395371
0.00624798
-0.0535472
0.0072883
-0.0637287
0.00776639
-0.0707992
0.00787709
-0.0761587
0.00778933
-0.0809708
0.007598
-0.0859125
-0.0912143
0.00733863
0.000764843
-0.00772628
0.00245295
-0.024624
0.00430608
-0.0413903
0.00572209
-0.0549632
0.00651143
-0.0645181
0.00678179
-0.0710696
0.00672788
-0.0761048
0.0065011
-0.080744
0.00617965
-0.085591
-0.0908256
0.00579088
0.000759568
-0.00848585
0.00235214
-0.0262166
0.00400128
-0.0430394
0.00516592
-0.0561279
0.00571987
-0.065072
0.00579796
-0.0711477
0.00558961
-0.0758965
0.00522823
-0.0803827
0.00477778
-0.0851406
-0.0903065
0.00425873
0.000745265
-0.00923112
0.00222617
-0.0276975
0.00366599
-0.0444792
0.00458769
-0.0570496
0.00492111
-0.0654055
0.00482039
-0.0710469
0.00446589
-0.075542
0.00397323
-0.07989
0.00339345
-0.0845608
-0.0896549
0.00274185
0.000722155
-0.00995327
0.00207791
-0.0290533
0.00330628
-0.0457076
0.00399457
-0.0577379
0.00412136
-0.0655322
0.00385343
-0.070779
0.00335974
-0.0750483
0.00273933
-0.0792696
0.00202809
-0.0838496
-0.0888626
0.00123577
0.000690675
-0.0106439
0.00191064
-0.0302732
0.00292779
-0.0467247
0.00339278
-0.0582029
0.00332573
-0.0654652
0.00290048
-0.0703538
0.00227331
-0.0744211
0.00152888
-0.0785252
0.000691374
-0.0830121
-0.0879019
-0.000269298
0.000651424
-0.0112954
0.00172751
-0.0313493
0.00253564
-0.0475329
0.00278762
-0.0584548
0.0025384
-0.065216
0.00196426
-0.0697796
0.00120814
-0.073665
0.000335096
-0.0776521
-0.000619372
-0.0820576
-0.0868442
-0.00167711
0.000605121
-0.0119005
0.00153151
-0.0322757
0.00213441
-0.0481358
0.00218362
-0.058504
0.00176273
-0.0647951
0.00104697
-0.0690639
0.000161036
-0.0727791
-0.000823928
-0.0766672
-0.00191353
-0.080968
-0.085673
-0.00308471
0.000552583
-0.0124531
0.00132547
-0.0330486
0.00172821
-0.0485385
0.00158453
-0.0583604
0.00100133
-0.0642119
0.000148427
-0.0682109
-0.000850985
-0.0717797
-0.00195933
-0.0755588
-0.00317289
-0.0797544
-0.0843757
-0.00447021
0.00049471
-0.0129478
0.0011121
-0.033666
0.00132059
-0.048747
0.000993414
-0.0580332
0.000257046
-0.0634755
-0.000721884
-0.067232
-0.0018418
-0.0706597
-0.00306911
-0.0743315
-0.00440318
-0.0784204
-0.0829519
-0.00582695
0.000432431
-0.0133802
0.000894122
-0.0341277
0.000914533
-0.0487674
0.00041379
-0.0575325
-0.000468312
-0.0625934
-0.00157142
-0.0661289
-0.0028074
-0.0694238
-0.0041507
-0.0729882
-0.00560426
-0.0769668
-0.0814034
-0.00715276
0.000366602
-0.0137468
0.000674148
-0.0344352
0.000513236
-0.0486065
-0.000151991
-0.0568672
-0.00117387
-0.0615715
-0.00239746
-0.0649053
-0.00374633
-0.0680749
-0.00520317
-0.0715314
-0.00677479
-0.0753952
-0.0797325
-0.00844569
0.00029823
-0.014045
0.000453921
-0.0345909
0.000127175
-0.0482797
-0.000706673
-0.0560334
-0.00185987
-0.0604183
-0.00319899
-0.0635662
-0.00465791
-0.066616
-0.00622591
-0.0699633
-0.00791364
-0.0737075
-0.077943
-0.00970317
0.000229072
-0.0142741
0.000235258
-0.0345971
-0.000270355
-0.0477741
-0.00124557
-0.0550582
-0.00252452
-0.0591394
-0.00397533
-0.0621154
-0.00554154
-0.0650498
-0.00721842
-0.0682865
-0.00901964
-0.0719063
-0.0760412
-0.0109214
0.000159021
-0.0144331
3.58218e-05
-0.0344739
-0.000654042
-0.0470843
-0.00176977
-0.0539424
-0.00316738
-0.0577418
-0.00472591
-0.0605569
-0.00639672
-0.0633789
-0.00818005
-0.0665031
-0.0100916
-0.0699947
-0.0740321
-0.0121008
8.38997e-05
-0.014517
-0.000201445
-0.0341886
-0.00102614
-0.0462596
-0.00227616
-0.0526924
-0.00378779
-0.0562301
-0.00545035
-0.0588943
-0.00722317
-0.0616061
-0.00911039
-0.0646159
-0.0111298
-0.0679753
-0.0719116
-0.0132503
8.48146e-07
-0.0145179
-0.000423375
-0.0337643
-0.00138744
-0.0452955
-0.00276378
-0.0513161
-0.00438488
-0.0546091
-0.00614838
-0.0571308
-0.00802135
-0.0597332
-0.0100107
-0.0626266
-0.0121338
-0.0658523
-0.0696767
-0.0143686
-6.79825e-05
-0.0144499
-0.000634055
-0.0331983
-0.00173613
-0.0441934
-0.00323239
-0.0498198
-0.00495804
-0.0528834
-0.0068195
-0.0552693
-0.00879194
-0.0577607
-0.0108845
-0.0605339
-0.0130994
-0.0636374
-0.0673444
-0.0154317
-0.00014088
-0.014309
-0.000836954
-0.0325022
-0.00207126
-0.0429591
-0.00368142
-0.0482097
-0.00550669
-0.0510581
-0.00746279
-0.0533132
-0.00953284
-0.0556907
-0.0117295
-0.0583372
-0.0140621
-0.0613049
-0.0650642
-0.0163422
-0.000212906
-0.0140961
-0.00103272
-0.0316824
-0.00239225
-0.0415996
-0.00411036
-0.0464916
-0.00603048
-0.049138
-0.00807738
-0.0512663
-0.0102393
-0.0535287
-0.012516
-0.0560605
-0.0148672
-0.0589537
-0.0622722
-0.0176592
-0.00028312
-0.013813
-0.00122109
-0.0307444
-0.00269875
-0.0401219
-0.00451889
-0.0446714
-0.0065293
-0.0471276
-0.00866275
-0.0491329
-0.0109083
-0.0512832
-0.0132608
-0.053708
-0.0157376
-0.0564769
-0.0594955
-0.0185143
-0.000351118
-0.0134619
-0.00140158
-0.0296939
-0.00299045
-0.0385331
-0.00490677
-0.0427551
-0.00700287
-0.0450315
-0.00921875
-0.046917
-0.0115461
-0.0489559
-0.0139891
-0.051265
-0.0165824
-0.0538836
-0.0566948
-0.0193831
-0.000416611
-0.0130453
-0.00157376
-0.0285368
-0.00326705
-0.0368398
-0.00527376
-0.0407484
-0.00745084
-0.0428544
-0.00974465
-0.0446232
-0.0121499
-0.0465506
-0.0146764
-0.0487385
-0.0173552
-0.0512049
-0.0538451
-0.0202048
-0.000479351
-0.0125659
-0.00173723
-0.0272789
-0.00352831
-0.0350487
-0.00561972
-0.038657
-0.00787312
-0.040601
-0.0102408
-0.0422555
-0.0127209
-0.0440705
-0.0153263
-0.0461331
-0.0180815
-0.0484497
-0.0509348
-0.0209919
-0.000539116
-0.0120268
-0.00189166
-0.0259264
-0.00377402
-0.0331663
-0.00594454
-0.0364864
-0.00826959
-0.038276
-0.010707
-0.0398181
-0.0132579
-0.0415197
-0.0159362
-0.0434548
-0.018762
-0.0456239
-0.0479585
-0.0217382
-0.000595702
-0.0114311
-0.00203678
-0.0244853
-0.00400399
-0.0311991
-0.00624813
-0.0342423
-0.0086402
-0.0358839
-0.0111432
-0.0373151
-0.0137605
-0.0389023
-0.0165067
-0.0407086
-0.0193994
-0.0427313
-0.0449158
-0.0224421
-0.000648929
-0.0107822
-0.00217236
-0.0229619
-0.00421809
-0.0291534
-0.00653043
-0.03193
-0.00898489
-0.0334295
-0.0115491
-0.0347509
-0.0142285
-0.0362229
-0.017038
-0.0378991
-0.0199939
-0.0397753
-0.0418082
-0.0231015
-0.000698639
-0.0100835
-0.00229821
-0.0213623
-0.00441621
-0.0270354
-0.00679139
-0.0295548
-0.00930361
-0.0309172
-0.0119247
-0.0321298
-0.0146617
-0.0334858
-0.01753
-0.0350308
-0.0205454
-0.0367598
-0.0386388
-0.0237148
-0.000744692
-0.00933884
-0.00241416
-0.0196928
-0.00459826
-0.0248513
-0.00703098
-0.0271221
-0.00959631
-0.0283519
-0.0122698
-0.0294564
-0.0150601
-0.0306956
-0.0179826
-0.0321083
-0.0210534
-0.033689
-0.0354114
-0.0242808
-0.000786968
-0.00855188
-0.00252008
-0.0179597
-0.00476417
-0.0226072
-0.00724918
-0.0246371
-0.00986294
-0.0257381
-0.0125844
-0.026735
-0.0154233
-0.0278566
-0.0183956
-0.029136
-0.0215174
-0.0305672
-0.0321305
-0.0247983
-0.000825364
-0.00772651
-0.00261587
-0.0161692
-0.00491389
-0.0203092
-0.00744596
-0.022105
-0.0101035
-0.0230806
-0.0128683
-0.0239702
-0.0157513
-0.0249736
-0.0187687
-0.0261186
-0.0219368
-0.0273992
-0.0288008
-0.0252665
-0.00085979
-0.00686672
-0.00270143
-0.0143276
-0.00504737
-0.0179632
-0.00762132
-0.019531
-0.0103179
-0.0203841
-0.0131214
-0.0211666
-0.0160439
-0.0220512
-0.0191017
-0.0230607
-0.0223113
-0.0241896
-0.0254273
-0.0256847
-0.000890171
-0.00597655
-0.00277668
-0.0124411
-0.00516459
-0.0155753
-0.00777524
-0.0169204
-0.0105061
-0.0176532
-0.0133437
-0.018329
-0.0163009
-0.019094
-0.0193943
-0.0199673
-0.0226404
-0.0209435
-0.0220154
-0.0260523
-0.000916442
-0.00506011
-0.00284156
-0.0105159
-0.00526552
-0.0131513
-0.00790771
-0.0142782
-0.0106681
-0.0148928
-0.0135352
-0.0154619
-0.0165223
-0.0161069
-0.0196464
-0.0168432
-0.022924
-0.0176659
-0.0185704
-0.026369
-0.00093855
-0.00412156
-0.00289603
-0.00855846
-0.00535015
-0.0106972
-0.00801874
-0.0116096
-0.0108039
-0.0121077
-0.0136957
-0.0125701
-0.0167079
-0.0130947
-0.0198577
-0.0136934
-0.0231617
-0.0143619
-0.0150976
-0.0266345
-0.000956453
-0.00316511
-0.00294004
-0.00657487
-0.00541844
-0.00821882
-0.00810831
-0.00891976
-0.0109135
-0.00930253
-0.0138252
-0.0096584
-0.0168577
-0.0100622
-0.0200283
-0.0105227
-0.0233535
-0.0110367
-0.0116024
-0.0268486
-0.000970117
-0.00219499
-0.00297356
-0.00457143
-0.00547041
-0.00572197
-0.00817642
-0.00621375
-0.0109968
-0.00648219
-0.0139236
-0.00673155
-0.0169715
-0.00701426
-0.020158
-0.00733633
-0.0234993
-0.00769536
-0.00809043
-0.0270113
-0.000979517
-0.00121547
-0.00299656
-0.00255439
-0.00550603
-0.00321251
-0.00822308
-0.0034967
-0.0110538
-0.00365148
-0.013991
-0.00379434
-0.0170495
-0.0039558
-0.0202467
-0.00413914
-0.023599
-0.00434302
-0.00456684
-0.0271226
-0.000984635
-0.000230837
-0.00300905
-0.000529975
-0.00552531
-0.000696248
-0.00824828
-0.00077372
-0.0110846
-0.000815201
-0.0140273
-0.000851591
-0.0170914
-0.000891709
-0.0202943
-0.000936231
-0.0236524
-0.000984965
-0.00103736
-0.0271818
-0.000985465
0.000754628
-0.003011
0.00149556
-0.00552824
0.00182099
-0.00825203
0.00195007
-0.0110891
0.00202182
-0.0140325
0.00209189
-0.0170973
0.00217309
-0.0203009
0.00226734
-0.0236597
0.0023738
0.00249106
-0.0271881
-0.000982005
0.00173663
-0.00300242
0.00351597
-0.00551482
0.0043334
-0.00823433
0.00466958
-0.0110673
0.00485478
-0.0140067
0.00503131
-0.0170674
0.0052338
-0.0202669
0.00546685
-0.0236216
0.00572848
0.00601754
-0.0271481
-0.000974264
0.0027109
-0.00298331
0.00552502
-0.00548507
0.00683516
-0.00819517
0.00737968
-0.0110192
0.00767884
-0.0139498
0.00796184
-0.0170014
0.00828546
-0.0201917
0.00865709
-0.023537
0.0090738
0.00953388
-0.0270533
-0.000962257
0.00367315
-0.0029537
0.00751647
-0.00543899
0.00932044
-0.00813457
0.0100753
-0.0109449
0.0104892
-0.0138618
0.0108787
-0.0168995
0.0113232
-0.0200754
0.011833
-0.0234061
0.0124045
0.0130348
-0.026907
-0.000946009
0.00461916
-0.00291361
0.00948407
-0.00537659
0.0117834
-0.00805254
0.0127512
-0.0108444
0.0132811
-0.0137427
0.013777
-0.0167616
0.014342
-0.0199182
0.0149896
-0.0232291
0.0157154
0.016515
-0.0267093
-0.000925553
0.00554472
-0.00286307
0.0114216
-0.00529789
0.0142182
-0.00794907
0.0154024
-0.0107176
0.0160496
-0.0135927
0.0166521
-0.0165878
0.0173371
-0.0197201
0.0181219
-0.0230061
0.0190014
0.019969
-0.0264601
-0.000900933
0.00644565
-0.00280213
0.0133228
-0.00520291
0.016619
-0.00782419
0.0180237
-0.0105647
0.0187901
-0.0134117
0.0194991
-0.0163783
0.0203037
-0.0194812
0.0212249
-0.0227372
0.0222574
0.0233913
-0.0261595
-0.000872202
0.00731785
-0.00273084
0.0151814
-0.00509167
0.0189798
-0.00767791
0.0206099
-0.0103855
0.0214977
-0.0131998
0.0223134
-0.016133
0.0232369
-0.0192018
0.0242936
-0.0224226
0.0254781
0.0267765
-0.0258078
-0.000839424
0.00815727
-0.00264926
0.0169913
-0.00496423
0.0212948
-0.00751026
0.023156
-0.0101803
0.0241677
-0.0129572
0.0250903
-0.0158523
0.026132
-0.0188819
0.0273233
-0.0220625
0.0286587
0.0301193
-0.0254053
-0.000802674
0.00895995
-0.00255749
0.0187461
-0.00482062
0.0235579
-0.00732125
0.0256566
-0.00994893
0.0267954
-0.0126838
0.0278252
-0.0155361
0.0289843
-0.0185218
0.030309
-0.0216573
0.0317942
0.0334146
-0.0249526
-0.000762044
0.00972199
-0.00245561
0.0204396
-0.00466089
0.0257632
-0.00711092
0.0281066
-0.00969158
0.029376
-0.0123798
0.0305134
-0.0151847
0.0317892
-0.0181218
0.0332462
-0.0212076
0.0348799
0.0366575
-0.0244504
-0.000717636
0.0104396
-0.00234375
0.0220658
-0.00448511
0.0279046
-0.00687931
0.0305008
-0.00940827
0.031905
-0.0120453
0.0331504
-0.0147982
0.0345421
-0.0176822
0.0361302
-0.0207136
0.0379114
0.0398434
-0.0238996
-0.000669573
0.0111092
-0.00222204
0.0236182
-0.00429336
0.0299759
-0.00662647
0.0328339
-0.00909907
0.0343776
-0.0116805
0.0357318
-0.0143768
0.0372384
-0.0172032
0.0389566
-0.0201761
0.0408843
0.0429684
-0.0233012
-0.000617993
0.0117272
-0.00209066
0.0250909
-0.00408575
0.031971
-0.00635245
0.0351006
-0.00876405
0.0367892
-0.0112854
0.0382532
-0.0139208
0.0398738
-0.0166849
0.0417207
-0.0195955
0.0437949
0.0460295
-0.0226566
-0.000563057
0.0122903
-0.0019498
0.0264776
-0.00386242
0.0338836
-0.00605733
0.0372956
-0.00840331
0.0391352
-0.0108604
0.0407103
-0.0134303
0.0424437
-0.0161274
0.0444178
-0.0189721
0.0466395
0.0490249
-0.0219675
-0.000504946
0.0127952
-0.00179969
0.0277724
-0.00362352
0.0357074
-0.0057412
0.0394132
-0.00801694
0.0414109
-0.0104054
0.0430987
-0.0129056
0.0449439
-0.0155308
0.047043
-0.0183057
0.0494144
0.0519552
-0.021236
-0.000443867
0.0132391
-0.00164063
0.0289691
-0.00336924
0.037436
-0.00540418
0.0414482
-0.00760502
0.0436117
-0.00992072
0.0454144
-0.0123471
0.0473703
-0.0148943
0.0495902
-0.0175938
0.0521139
0.0548258
-0.0204643
-0.00038005
0.0136191
-0.00147293
0.030062
-0.00309984
0.0390629
-0.00504643
0.0433948
-0.00716774
0.0457331
-0.00940661
0.0476533
-0.011756
0.0497197
-0.0142204
0.0520546
-0.0168356
0.054729
0.0576492
-0.019659
-0.000313754
0.0139329
-0.00129701
0.0310453
-0.0028156
0.0405815
-0.00466814
0.0452473
-0.00670521
0.0477701
-0.00886271
0.0498108
-0.0111311
0.051988
-0.0135058
0.0544294
-0.0160056
0.0572288
0.0604544
-0.0188107
-0.00024527
0.0141781
-0.0011133
0.0319133
-0.00251685
0.0419851
-0.00426958
0.047
-0.00621786
0.0497184
-0.00828991
0.0518829
-0.0104758
0.0541739
-0.0127764
0.0567299
-0.0151523
0.0596048
0.0632839
-0.0179819
-0.000174964
0.0143531
-0.00092229
0.0326606
-0.00220397
0.0432668
-0.00385105
0.0486471
-0.00570599
0.0515733
-0.00768826
0.0538651
-0.00978279
0.0562684
-0.0120031
0.0589503
-0.0143575
0.0619592
0.065567
-0.0166406
-0.000103438
0.0144565
-0.000724406
0.0332816
-0.00187739
0.0444198
-0.00341289
0.0501826
-0.00516977
0.0533302
-0.00705835
0.0557537
-0.00905562
0.0582657
-0.0111712
0.0610659
-0.0134058
0.0641937
0.0679105
-0.0157492
-3.26236e-05
0.0144892
-0.000519625
0.0337686
-0.00153768
0.0454378
-0.00295565
0.0516006
-0.00460965
0.0549842
-0.00640126
0.0575453
-0.00829954
0.060164
-0.0103119
0.0630782
-0.0124552
0.066337
0.0701593
-0.0147041
4.26479e-05
0.0144465
-0.000306525
0.0341178
-0.00118571
0.046317
-0.00247998
0.0528949
-0.00402634
0.0565306
-0.00571806
0.059237
-0.00751676
0.0619627
-0.00942718
0.0649887
-0.0114667
0.0683766
0.0722956
-0.013603
0.000118544
0.014328
-7.71203e-05
0.0343134
-0.00082311
0.047063
-0.00198626
0.054058
-0.00342047
0.0579648
-0.00500932
0.0608259
-0.00670663
0.06366
-0.00851333
0.0667954
-0.0104449
0.0703081
0.0743208
-0.0124701
0.000189277
0.0141387
0.000131437
0.0343713
-0.000451902
0.0476463
-0.00147501
0.0550811
-0.00279299
0.0592828
-0.00427542
0.0623083
-0.00586875
0.0652533
-0.00756917
0.0684958
-0.00939009
0.072129
0.0762382
-0.0113074
0.000257341
0.0138814
0.000340606
0.034288
-5.41605e-05
0.0480411
-0.000948251
0.0559752
-0.00214461
0.0604791
-0.00351676
0.0636805
-0.00500352
0.0667401
-0.00659524
0.0700875
-0.0083023
0.073836
0.0780423
-0.0101064
0.000324345
0.013557
0.000554731
0.0340576
0.000317969
0.0482779
-0.00041114
0.0567043
-0.00147585
0.0615438
-0.00273409
0.0649387
-0.00411163
0.0681176
-0.00559231
0.0715682
-0.00718273
0.0754265
0.0797267
-0.00886714
0.000389244
0.0131678
0.000769066
0.0336778
0.00070714
0.0483398
0.000143286
0.0572682
-0.000788089
0.0624752
-0.00192834
0.066079
-0.00319377
0.0693831
-0.00456102
0.0729354
-0.00603279
0.0768982
0.0812876
-0.00759364
0.000450936
0.0127168
0.000981922
0.0331468
0.00110211
0.0482196
0.00070436
0.0576659
-8.35199e-05
0.0632631
-0.00110033
0.0670958
-0.00225076
0.0705335
-0.00350215
0.0741868
-0.00485391
0.07825
0.0827225
-0.00628886
0.00050857
0.0122083
0.00119071
0.0324647
0.00149865
0.0479117
0.00127862
0.0578859
0.000640208
0.0639015
-0.000252468
0.0679884
-0.00128392
0.0715649
-0.00241665
0.0753196
-0.00364783
0.0794812
0.0840296
-0.00495496
0.000561248
0.011647
0.00139278
0.0316331
0.00189395
0.0474105
0.00186024
0.0579196
0.00137903
0.0643827
0.000619558
0.0687479
-0.000296815
0.0724813
-0.00130625
0.076329
-0.00241571
0.0805906
0.0852085
-0.00359453
0.000608105
0.0110389
0.00158551
0.0306557
0.00228459
0.0467114
0.00244616
0.0577581
0.00213107
0.0646978
0.00151007
0.0693689
0.000718442
0.0732729
-0.00018091
0.0772283
-0.00115571
0.0815654
0.0862656
-0.00221288
0.000648358
0.0103905
0.00176621
0.0295379
0.00266668
0.0458109
0.00303289
0.0573919
0.00289357
0.0648371
0.00241752
0.069845
0.00175389
0.0739366
0.000984717
0.0779975
0.000143
0.0824072
0.0872283
-0.000819682
0.000681315
0.00970923
0.0019321
0.0282871
0.0030359
0.0447071
0.00361618
0.0568116
0.00366326
0.06479
0.00333988
0.0701683
0.00280744
0.074469
0.00216021
0.0786447
0.00142952
0.0831379
0.0880434
0.000614413
0.0007064
0.00900283
0.00208034
0.0269132
0.00338752
0.0434
0.004191
0.0560081
0.0044361
0.0645449
0.00427422
0.0703302
0.00387752
0.0748657
0.00335545
0.0791668
0.00275695
0.0837364
0.0887001
0.00210023
0.000723177
0.00827965
0.00220788
0.0254285
0.0037163
0.0418915
0.00475154
0.0549729
0.00520722
0.0640892
0.00521721
0.0703202
0.0049625
0.0751204
0.00456979
0.0795595
0.00410132
0.0842048
0.0892219
0.00357961
0.000731395
0.00754826
0.00231193
0.0238479
0.00401661
0.0401869
0.00529114
0.0536983
0.00597075
0.0634096
0.00616469
0.0701263
0.00605937
0.0752257
0.00579875
0.0798202
0.00545815
0.0845454
0.089614
0.00506598
0.000731013
0.00681725
0.00239008
0.0221889
0.00428254
0.0382944
0.00580221
0.0521787
0.00671971
0.0624921
0.00711139
0.0697346
0.00716429
0.0751728
0.007039
0.0799454
0.00682635
0.0847581
0.0898776
0.00656278
0.000722188
0.00609506
0.00244029
0.0204707
0.00450799
0.0362267
0.00627625
0.0504104
0.00744579
0.0613226
0.00805085
0.0691296
0.00827291
0.0749508
0.00828791
0.0799304
0.00820464
0.0848413
0.0900133
0.00806891
0.000705283
0.00538978
0.00246111
0.0187149
0.0046869
0.0340009
0.0067039
0.0483934
0.00813928
0.0598872
0.00897524
0.0682936
0.00937999
0.074546
0.00954232
0.0797681
0.00959079
0.0847929
0.0900219
0.00958226
0.00068087
0.00470891
0.00245181
0.016944
0.00481361
0.0316391
0.00707513
0.0461319
0.008789
0.0581733
0.00987507
0.0672075
0.0104789
0.0739422
0.0107981
0.0794489
0.0109819
0.0846091
0.0899026
0.0111012
0.000649718
0.00405919
0.00241259
0.0151811
0.00488319
0.0291685
0.00737948
0.0436356
0.00938225
0.0561706
0.0107389
0.0658509
0.0115613
0.0731198
0.0120498
0.0789604
0.0123744
0.0842845
0.0896539
0.012623
0.00061277
0.00344642
0.00234463
0.0134493
0.00489202
0.0266211
0.00760648
0.0409212
0.00990489
0.0538722
0.0115531
0.0642027
0.0126167
0.0720561
0.0132906
0.0782865
0.0137639
0.0838112
0.0892735
0.0141442
0.000571108
0.00287531
0.00225013
0.0117702
0.00483823
0.024033
0.00774631
0.0380131
0.0103416
0.0512769
0.0123017
0.0622426
0.0136321
0.0707257
0.0145115
0.0774071
0.0151447
0.083178
0.0887575
0.0156607
0.000525908
0.0023494
0.00213226
0.0101639
0.0047222
0.0214431
0.00779055
0.0349447
0.0106765
0.048391
0.0129664
0.0599527
0.0145915
0.0691006
0.0157011
0.0762975
0.0165095
0.0823696
0.0880995
0.0171676
0.000478393
0.00187101
0.00199502
0.00864725
0.00454695
0.0188911
0.0077332
0.0317585
0.0108935
0.0452306
0.0135266
0.0573196
0.0154756
0.0671516
0.0168447
0.0749283
0.0178488
0.0813656
0.0872894
0.0186588
0.00042979
0.00144122
0.00184302
0.00723403
0.00431823
0.0164159
0.00757181
0.0285049
0.0109782
0.0418242
0.0139602
0.0543376
0.0162616
0.0648502
0.0179239
0.0732661
0.0191496
0.0801398
0.0863129
0.0201262
0.000381296
0.00105992
0.00168124
0.00593408
0.00404445
0.0140527
0.00730855
0.0252408
0.0109187
0.0382141
0.0142444
0.051012
0.0169234
0.0621712
0.0189155
0.0712739
0.0203955
0.0786598
0.0851491
0.0215593
0.000334057
0.000725867
0.00151485
0.00475329
0.00373614
0.0118314
0.006951
0.0220259
0.010708
0.0344571
0.014357
0.047363
0.0174315
0.0590967
0.0197916
0.0689138
0.0215646
0.0768869
0.0837701
0.0229436
0.000289157
0.00043671
0.0013489
0.00369355
0.00340536
0.00977496
0.00651248
0.0189188
0.0103458
0.0306237
0.0142789
0.0434299
0.0177548
0.0556209
0.020519
0.0661496
0.0226291
0.0747768
0.0821392
0.02426
0.000247609
0.000189101
0.00118822
0.00275294
0.00306478
0.0078984
0.00601144
0.0159721
0.00984074
0.0267944
0.0139974
0.0392733
0.0178625
0.0517558
0.0210597
0.0629524
0.0235541
0.0722823
0.0802104
0.0254829
0.000210329
-2.12281e-05
0.00103718
0.00192609
0.00272682
0.00620877
0.00547005
0.0132289
0.00921113
0.0230533
0.0135088
0.0349756
0.0177269
0.0475376
0.0213724
0.0593069
0.0242977
0.069357
0.0779294
0.0265787
0.000178072
-0.000199301
0.000899449
0.00120471
0.00240266
0.00470555
0.00491202