/*--------------------------------*- C++ -*----------------------------------*\
  =========                 |
  \\      /  F ield         | OpenFOAM: The Open Source CFD Toolbox
   \\    /   O peration     | Website:  https://openfoam.org
    \\  /    A nd           | Version:  7
     \\/     M anipulation  |
\*---------------------------------------------------------------------------*/
FoamFile
{
    version     2.0;
    format      ascii;
    class       volVectorField;
    location    "200";
    object      U;
}
// * * * * * * * * * * * * * * * * * * * * * * * * * * * * * * * * * * * * * //

dimensions      [0 1 -1 0 0 0 0];

internalField   nonuniform List<vector> 
8500
(
(-0.00196713 0.0276089 1.02053e-21)
(-0.00947299 0.0815595 -2.92209e-21)
(-0.0230639 0.130999 -3.40194e-21)
(-0.0397038 0.171883 3.37671e-21)
(-0.0579548 0.20427 -3.10147e-21)
(-0.0760962 0.231126 -1.6547e-21)
(-0.092493 0.255997 2.83624e-21)
(-0.106073 0.281187 3.51942e-21)
(-0.116049 0.307152 -5.82448e-22)
(-0.121614 0.332782 1.73885e-21)
(-0.0026637 0.0296438 -1.12722e-21)
(-0.0103913 0.086478 3.47462e-21)
(-0.0224323 0.138076 -8.06537e-21)
(-0.0366803 0.180396 7.29588e-21)
(-0.0519923 0.213326 3.37449e-22)
(-0.066846 0.239756 5.37474e-21)
(-0.0796356 0.263364 -9.34432e-21)
(-0.089137 0.28675 -1.37373e-20)
(-0.0943534 0.310699 -2.69862e-21)
(-0.0936519 0.334197 6.19967e-21)
(-0.00346363 0.0308185 1.02048e-21)
(-0.0115837 0.089585 7.53043e-21)
(-0.0221545 0.142903 1.77294e-20)
(-0.033933 0.186545 -1.59885e-20)
(-0.0460596 0.220078 -3.56418e-21)
(-0.0572293 0.246172 -3.27695e-21)
(-0.0658937 0.268525 1.66909e-20)
(-0.0706882 0.28997 1.04983e-20)
(-0.0704917 0.311634 2.646e-21)
(-0.0625796 0.332671 -1.91724e-20)
(-0.00429717 0.0311711 3.61402e-21)
(-0.0129547 0.0908931 -4.44391e-21)
(-0.022213 0.14542 -3.27679e-20)
(-0.0315582 0.190193 2.923e-21)
(-0.0403749 0.224337 8.96145e-21)
(-0.0475834 0.25017 -6.9055e-21)
(-0.051729 0.271287 -4.96732e-22)
(-0.0513304 0.290671 -2.80125e-21)
(-0.0452393 0.309727 6.50006e-21)
(-0.0295338 0.328175 1.90114e-20)
(-0.00510418 0.0307758 2.50658e-21)
(-0.0144156 0.0904956 -1.40015e-20)
(-0.0225826 0.145647 3.36435e-20)
(-0.0296401 0.191265 -1.51424e-20)
(-0.0351476 0.225959 -8.47303e-23)
(-0.0382434 0.251573 2.08149e-20)
(-0.037608 0.271483 -9.64065e-21)
(-0.0317061 0.288722 1.2021e-21)
(-0.0193595 0.304934 -3.9627e-21)
(0.00456068 0.32049 1.22494e-21)
(-0.00583474 0.0297409 2.97352e-20)
(-0.0158893 0.0885547 3.58711e-20)
(-0.0232407 0.143686 -9.19555e-21)
(-0.0282503 0.189761 1.73836e-20)
(-0.0305701 0.224848 5.33604e-21)
(-0.0295303 0.250239 -7.78041e-21)
(-0.0239803 0.268972 -2.95236e-21)
(-0.0123807 0.284031 -1.28054e-20)
(0.00629303 0.297275 2.74485e-21)
(0.0387093 0.309418 -1.74007e-20)
(-0.00645984 0.0282027 -2.86257e-20)
(-0.017321 0.0852892 -1.86271e-20)
(-0.0241678 0.139718 1.49869e-20)
(-0.0274474 0.185761 -2.57014e-20)
(-0.0268098 0.220978 2.7709e-21)
(-0.0217358 0.246068 2.9765e-20)
(-0.0112674 0.263638 -5.30744e-21)
(0.00610705 0.276519 3.54548e-20)
(0.0309849 0.286687 -7.80752e-22)
(0.0719987 0.295026 -1.46304e-20)
(-0.00697189 0.0263124 2.36313e-20)
(-0.0186851 0.0809671 -4.24057e-20)
(-0.0253533 0.133993 -1.67089e-20)
(-0.027274 0.179424 1.97258e-20)
(-0.0239981 0.214391 4.77959e-22)
(-0.0151032 0.239013 -5.55675e-20)
(0.000164684 0.255401 -3.1243e-21)
(0.0232828 0.266138 -2.73945e-20)
(0.0541034 0.27318 -3.57382e-20)
(0.103724 0.277336 2.13543e-20)
(-0.00738547 0.0242285 -1.32439e-20)
(-0.0199884 0.0758884 6.32255e-21)
(-0.0267984 0.126821 1.54569e-20)
(-0.027753 0.170987 -1.3372e-20)
(-0.0222163 0.205216 -4.73256e-20)
(-0.00980112 0.229097 1.63942e-20)
(0.0100448 0.244226 2.51361e-21)
(0.0387933 0.252874 4.06573e-20)
(0.0751901 0.256827 5.40929e-20)
(0.133507 0.256324 -2.4796e-20)
(-0.00773693 0.0221083 2.04674e-20)
(-0.0212691 0.070366 1.84429e-20)
(-0.0285146 0.118553 -2.64056e-21)
(-0.0288803 0.16076 6.7208e-20)
(-0.0214766 0.193665 2.83971e-20)
(-0.00588866 0.216431 2.11569e-20)
(0.0182524 0.230147 2.96291e-20)
(0.0524894 0.236768 -1.34005e-20)
(0.0940387 0.237749 -1.79631e-20)
(0.161513 0.231995 -2.96254e-20)
(-0.00808154 0.0200994 -2.07276e-21)
(-0.0225912 0.0647076 -2.88074e-20)
(-0.0305154 0.109565 -2.06061e-20)
(-0.0306116 0.149113 -3.29265e-20)
(-0.0216955 0.180048 -2.57719e-20)
(-0.00326577 0.201232 2.57255e-20)
(0.0249011 0.213305 -2.4511e-20)
(0.0645567 0.217958 -1.71128e-20)
(0.110886 0.216134 2.18563e-21)
(0.18884 0.204512 8.01613e-21)
(-0.00848813 0.0183309 -5.53432e-20)
(-0.0240334 0.0591966 2.63497e-20)
(-0.0328008 0.100234 1.9054e-20)
(-0.0328398 0.136459 1.25286e-20)
(-0.0226564 0.16476 -2.24771e-20)
(-0.00160714 0.183844 -1.89978e-20)
(0.0304548 0.193977 2.73032e-20)
(0.0757017 0.196736 -2.20634e-20)
(0.126733 0.192252 -1.06823e-21)
(0.21801 0.174461 -2.33155e-20)
(-0.00903106 0.0169058 4.58148e-20)
(-0.0256708 0.0540758 1.8409e-20)
(-0.0353344 0.0909177 1.09934e-21)
(-0.0353651 0.123239 -2.28953e-20)
(-0.0239629 0.14828 1.7975e-21)
(-0.000281244 0.164744 2.44602e-20)
(0.0358693 0.172621 -6.87084e-21)
(0.0873603 0.173617 -8.22076e-21)
(0.14376 0.166475 -1.92053e-20)
(0.253251 0.143157 3.54901e-20)
(-0.0097796 0.0158935 3.03191e-20)
(-0.0275541 0.0495314 -4.95399e-20)
(-0.0380152 0.0819334 -3.77408e-20)
(-0.037859 0.109898 1.63649e-20)
(-0.0249881 0.131154 3.28506e-20)
(0.00172977 0.144541 2.71007e-20)
(0.0427216 0.149893 -2.86587e-20)
(0.101839 0.14936 5.55291e-20)
(0.165667 0.139338 -1.65738e-20)
(0.29998 0.112749 -4.13645e-20)
(-0.0107854 0.0153226 -4.59908e-20)
(-0.0296849 0.0456792 2.7596e-20)
(-0.0406514 0.0735411 -1.27985e-20)
(-0.0398346 0.0968604 1.35616e-21)
(-0.0248383 0.113966 1.35448e-20)
(0.00587578 0.123959 -4.29094e-20)
(0.0532562 0.126646 3.75641e-20)
(0.122255 0.124932 -3.63684e-20)
(0.197599 0.111687 5.92294e-20)
(0.363107 0.0858119 2.17601e-20)
(-0.0120702 0.0151754 9.48084e-21)
(-0.0319919 0.0425505 5.28709e-20)
(-0.0429435 0.0659286 -1.30753e-20)
(-0.0406349 0.0845003 1.32305e-20)
(-0.0223536 0.097294 1.49394e-20)
(0.0140043 0.10378 -4.43066e-21)
(0.0702592 0.103884 3.18869e-20)
(0.152188 0.101379 1.47241e-21)
(0.245341 0.084949 -3.80615e-20)
(0.444498 0.0645517 5.16214e-20)
(-0.0136196 0.0153875 -2.56212e-20)
(-0.0343261 0.0401025 -4.99238e-20)
(-0.0444723 0.0591869 4.31123e-20)
(-0.0394531 0.0731061 2.13175e-20)
(-0.0161697 0.0816616 -9.78157e-20)
(0.0282103 0.0847738 7.87254e-20)
(0.0967091 0.0826672 -7.02255e-20)
(0.195073 0.0796564 9.75323e-22)
(0.313687 0.0613355 -1.61204e-20)
(0.541001 0.050223 -4.79747e-20)
(-0.0153712 0.0158546 2.19311e-20)
(-0.0364636 0.038211 -2.9025e-21)
(-0.0447286 0.0532985 -1.05771e-20)
(-0.0353818 0.0628528 -1.32716e-21)
(-0.00484286 0.067473 -6.13078e-21)
(0.0505774 0.0676037 -2.50477e-20)
(0.135251 0.063971 1.04989e-20)
(0.253563 0.0605175 -1.65547e-20)
(0.404359 0.0435428 4.86229e-21)
(0.644706 0.0430506 1.23281e-21)
(-0.0172198 0.0164377 -4.47499e-20)
(-0.0381053 0.0366738 -3.15657e-21)
(-0.0431522 0.048152 4.85306e-21)
(-0.0275015 0.0537818 1.99105e-21)
(0.0129836 0.054971 3.19559e-20)
(0.082871 0.0527425 -9.21142e-20)
(0.187648 0.0485281 6.13272e-20)
(0.328997 0.04463 -4.57123e-20)
(0.514423 0.0337555 3.93381e-20)
(0.746294 0.0417108 4.41615e-20)
(-0.0190259 0.0169808 -5.4038e-21)
(-0.0389031 0.0352415 2.49003e-20)
(-0.0391711 0.0435488 -3.10419e-20)
(-0.0149662 0.0458049 -9.66134e-21)
(0.0384205 0.0442282 1.84755e-20)
(0.126275 0.0404487 8.77324e-20)
(0.254384 0.0367262 -1.73795e-20)
(0.420846 0.032888 8.28567e-21)
(0.636107 0.0322886 -4.53495e-20)
(0.840488 0.0414336 2.10787e-20)
(-0.0206317 0.0173317 -1.63154e-20)
(-0.0384911 0.0336537 -1.27046e-20)
(-0.0322341 0.0392324 3.1845e-21)
(0.00293715 0.0387385 1.21681e-20)
(0.0722393 0.0351872 -3.58565e-20)
(0.181261 0.0308212 -1.43474e-20)
(0.334614 0.0286659 -4.48959e-20)
(0.526052 0.0264556 4.58841e-20)
(0.758173 0.0363049 4.90725e-20)
(0.928778 0.0350905 -2.10913e-20)
(-0.0218721 0.01736 -7.82363e-21)
(-0.0365098 0.0316673 3.17818e-20)
(-0.0218398 0.0349332 -3.53768e-20)
(0.0267695 0.0323683 -4.15078e-21)
(0.114858 0.0277421 -1.66174e-20)
(0.24759 0.0239067 3.57254e-20)
(0.426404 0.0243809 4.55144e-20)
(0.639125 0.0259271 -4.36215e-20)
(0.870122 0.0402724 4.69405e-20)
(1.04337 0.0312815 6.52734e-21)
(-0.0225739 0.016961 -2.27173e-20)
(-0.0326174 0.0290932 -6.43054e-20)
(-0.00754888 0.030436 6.26671e-20)
(0.0569499 0.026525 8.96342e-21)
(0.166381 0.0218332 1.28831e-20)
(0.324367 0.0197942 8.13787e-21)
(0.52686 0.023954 3.51712e-20)
(0.753289 0.0302999 2.57119e-20)
(0.975309 0.0461998 -9.12537e-20)
(1.13928 0.040386 -4.49758e-20)
(-0.0225811 0.0160974 -7.75624e-20)
(-0.0264693 0.0258249 1.55665e-20)
(0.0110311 0.0256196 -3.55981e-20)
(0.0937803 0.0211496 6.87476e-21)
(0.226633 0.0175296 1.08939e-20)
(0.410094 0.0186561 -7.84436e-20)
(0.632229 0.0274005 3.47363e-20)
(0.863268 0.0384424 -2.31575e-20)
(1.06943 0.0553955 2.43295e-20)
(1.21236 0.0514335 -8.58708e-21)
(-0.0217753 0.0147695 2.81516e-20)
(-0.0177447 0.0218388 3.05396e-20)
(0.0342679 0.0204997 -1.85192e-21)
(0.137463 0.0163474 -9.69766e-21)
(0.295153 0.0150702 2.35553e-22)
(0.502684 0.0207038 5.67426e-22)
(0.73835 0.0345123 -5.26545e-20)
(0.964995 0.0495256 6.89055e-21)
(1.14955 0.0666225 6.56208e-20)
(1.27015 0.0636896 2.97723e-20)
(-0.0200332 0.0130084 -1.91512e-20)
(-0.00615089 0.0172246 -1.40846e-20)
(0.0624918 0.0152401 6.09056e-20)
(0.188081 0.0124048 1.5721e-21)
(0.371124 0.0148424 -2.56198e-20)
(0.599516 0.0260853 6.80832e-20)
(0.841246 0.0448695 1.50009e-20)
(1.05565 0.0627585 1.01812e-21)
(1.21563 0.0791667 -2.87737e-20)
(1.31243 0.076451 -3.76708e-20)
(-0.0172396 0.0108814 4.03728e-20)
(0.00859047 0.0121642 -1.11305e-20)
(0.0959807 0.0101452 -6.70308e-21)
(0.245537 0.00976895 -2.53814e-20)
(0.45329 0.0172943 4.13707e-20)
(0.697607 0.034791 -2.00956e-20)
(0.937592 0.0579217 -2.27389e-20)
(1.13386 0.0774715 -5.24122e-21)
(1.26816 0.0924379 -1.66821e-20)
(1.34287 0.0891852 1.81876e-20)
(-0.0132833 0.00848063 -1.48209e-20)
(0.026735 0.00691528 -8.86096e-20)
(0.134925 0.00563591 9.17666e-21)
(0.309471 0.00899191 3.1812e-20)
(0.539924 0.0228122 2.26683e-20)
(0.793936 0.0466211 -7.5514e-20)
(1.02502 0.0730877 4.83459e-20)
(1.19937 0.0931182 -2.18371e-20)
(1.30864 0.106026 3.29705e-20)
(1.36354 0.101834 9.11503e-21)
(-0.00805427 0.0059148 -1.64081e-20)
(0.0484993 0.00179315 3.13801e-20)
(0.179378 0.00221404 4.11942e-20)
(0.379186 0.0106478 -2.94464e-20)
(0.62891 0.0316169 1.09624e-20)
(0.885797 0.0612251 -6.66155e-20)
(1.10215 0.0898259 -1.22731e-20)
(1.25278 0.109287 1.04046e-20)
(1.33875 0.119694 -2.51349e-20)
(1.37674 0.114297 -2.55585e-20)
(-0.00144525 0.00330423 -2.13457e-20)
(0.0740411 -0.00284642 -7.34823e-21)
(0.22921 0.000420731 -7.4947e-20)
(0.45361 0.015243 -1.17865e-20)
(0.717943 0.0437219 -1.19099e-21)
(0.971057 0.0781746 4.01809e-21)
(1.1685 0.107674 6.7441e-21)
(1.29515 0.125688 -3.29267e-20)
(1.36027 0.133308 6.024e-22)
(1.38424 0.126624 1.76621e-20)
(0.00664274 0.000779325 -5.63317e-21)
(0.103437 -0.00662219 2.60021e-20)
(0.284064 0.000794081 3.66971e-20)
(0.531326 0.0231427 2.29897e-20)
(0.804782 0.0589585 -6.74975e-21)
(1.04826 0.0970303 -5.66166e-21)
(1.22423 0.126263 5.56326e-20)
(1.32782 0.14214 7.49417e-21)
(1.37481 0.146827 2.48639e-20)
(1.38747 0.138858 -1.06786e-20)
(0.0162914 -0.00151902 5.38146e-20)
(0.136659 -0.00913952 3.46904e-20)
(0.34334 0.0038281 -3.52381e-20)
(0.610683 0.0345333 -7.03055e-21)
(0.887472 0.0770361 3.71744e-21)
(1.11662 0.117385 -1.33854e-20)
(1.26997 0.145315 -2.87031e-20)
(1.35217 0.158538 -4.66754e-21)
(1.38379 0.160257 3.18464e-22)
(1.38753 0.151067 1.16022e-20)
(0.0275554 -0.00343994 6.80093e-21)
(0.173561 -0.0100028 -1.90018e-20)
(0.406198 0.00993557 4.50649e-20)
(0.68994 0.0494262 2.93423e-20)
(0.964476 0.0976037 9.6921e-22)
(1.17588 0.138886 2.06916e-20)
(1.30659 0.164633 3.00656e-21)
(1.36952 0.17484 -2.16934e-20)
(1.3884 0.173634 1.82643e-20)
(1.38521 0.163306 1.05126e-23)
(0.040455 -0.00482371 -4.46988e-20)
(0.213862 -0.00882864 -1.31646e-20)
(0.471598 0.0194196 -1.18513e-20)
(0.767419 0.067689 -2.06626e-20)
(1.03472 0.120295 4.92618e-21)
(1.22618 0.161238 1.03693e-22)
(1.33508 0.184083 1.5915e-20)
(1.38107 0.191042 -2.60951e-21)
(1.38956 0.187003 -1.88586e-20)
(1.38109 0.175616 -1.74626e-20)
(0.0549678 -0.00550408 3.65519e-21)
(0.257148 -0.00526133 2.14287e-20)
(0.538359 0.0324576 1.04269e-20)
(0.841625 0.0890876 -3.24477e-20)
(1.09753 0.144756 -1.58107e-21)
(1.26795 0.184201 -1.38907e-20)
(1.35644 0.20358 3.52246e-22)
(1.38782 0.207161 6.42189e-21)
(1.38801 0.200408 -7.10321e-21)
(1.37555 0.188022 1.97864e-20)
(0.071024 -0.00531272 8.64508e-21)
(0.302875 0.00100922 -2.10676e-20)
(0.605235 0.0490997 -4.97411e-20)
(0.911324 0.113324 4.57774e-20)
(1.15263 0.170656 -3.39783e-21)
(1.30178 0.207582 1.00288e-20)
(1.37163 0.223072 -1.37634e-21)
(1.39063 0.223221 9.55079e-21)
(1.38429 0.21388 -7.28412e-22)
(1.36887 0.200527 -1.53263e-20)
(0.0885039 -0.0040849 -1.76667e-20)
(0.350385 0.0102302 2.75255e-20)
(0.670989 0.0692786 2.26679e-20)
(0.975561 0.140063 -3.27369e-20)
(1.19998 0.197692 -5.43394e-21)
(1.32832 0.231228 2.05256e-21)
(1.38147 0.242526 2.05656e-20)
(1.39018 0.239242 1.01082e-21)
(1.37879 0.227435 3.94554e-21)
(1.36119 0.213118 -8.48391e-21)
(0.107238 -0.00166636 1.341e-20)
(0.398936 0.022571 -1.20576e-20)
(0.734462 0.0928257 -1.03145e-20)
(1.03366 0.168953 1.76161e-20)
(1.23974 0.225591 6.05092e-21)
(1.34827 0.255009 4.56105e-21)
(1.38672 0.261918 -2.098e-20)
(1.38699 0.255235 -7.14505e-21)
(1.37178 0.24107 -6.35065e-21)
(1.35261 0.225766 2.79263e-21)
(0.12701 0.00207942 -6.73763e-21)
(0.447724 0.038114 -1.54973e-22)
(0.79462 0.11949 1.95299e-20)
(1.08517 0.199637 -7.13376e-21)
(1.27222 0.2541 -3.16009e-21)
(1.36226 0.278818 -2.07021e-21)
(1.388 0.281223 5.08492e-21)
(1.38148 0.271198 8.72077e-21)
(1.36343 0.254765 -2.829e-22)
(1.34319 0.238425 3.14277e-21)
(0.147559 0.00726409 4.75509e-21)
(0.495926 0.0568493 -1.33497e-21)
(0.850582 0.148957 -3.50711e-21)
(1.12986 0.23176 -3.17298e-21)
(1.29779 0.28299 2.84507e-21)
(1.3709 0.302555 2.20673e-21)
(1.38581 0.300409 -2.02798e-21)
(1.37393 0.28711 7.2627e-22)
(1.35388 0.26848 1.01534e-21)
(1.33294 0.25104 -1.33978e-21)
(0.168594 0.013968 2.57377e-21)
(0.542726 0.078677 7.30652e-22)
(0.901632 0.180865 -4.38079e-21)
(1.16766 0.264967 -3.485e-21)
(1.31686 0.312044 3.61792e-21)
(1.37473 0.326122 7.06789e-22)
(1.38058 0.319432 -1.62278e-21)
(1.36458 0.302931 1.51918e-21)
(1.34319 0.282159 8.40301e-22)
(1.32188 0.263546 -9.55843e-22)
(0.189792 0.0222354 -1.00223e-21)
(0.587349 0.103412 2.05028e-21)
(0.947219 0.214816 1.35381e-20)
(1.1986 0.298915 -6.01036e-21)
(1.32985 0.341057 -2.9135e-21)
(1.37423 0.349423 -3.26472e-21)
(1.37262 0.338235 6.6576e-21)
(1.35356 0.318606 4.43459e-21)
(1.33141 0.295727 3.5097e-21)
(1.31002 0.275871 1.88499e-21)
(0.210818 0.0320707 2.07302e-20)
(0.629084 0.130793 -1.13911e-20)
(0.986943 0.250392 -1.29077e-20)
(1.22283 0.333264 1.75025e-20)
(1.3372 0.369829 9.16561e-21)
(1.36981 0.372353 -6.03729e-22)
(1.36221 0.356748 -1.11327e-20)
(1.341 0.334061 -7.96185e-21)
(1.31855 0.309096 -8.213e-21)
(1.29736 0.287935 4.8432e-21)
(0.231328 0.0434374 -2.80722e-20)
(0.667303 0.160494 2.63926e-20)
(1.02054 0.287158 3.03317e-20)
(1.24055 0.367685 -2.97542e-20)
(1.33929 0.398168 -1.02197e-20)
(1.36181 0.394802 6.51172e-21)
(1.34954 0.374884 1.17054e-20)
(1.32697 0.349206 1.82703e-21)
(1.30461 0.322164 -3.07511e-22)
(1.28385 0.29965 -6.57669e-21)
(0.250982 0.056258 -4.05652e-21)
(0.701471 0.192134 -3.7208e-20)
(1.04788 0.324673 -3.97481e-20)
(1.252 0.401855 4.43565e-20)
(1.33652 0.42588 -5.02375e-21)
(1.35056 0.416651 9.12236e-21)
(1.33478 0.392549 1.76152e-21)
(1.31151 0.363948 -4.96584e-21)
(1.28959 0.334832 2.66558e-21)
(1.26941 0.310936 -3.61362e-22)
(0.269452 0.0704161 8.2407e-21)
(0.731154 0.225292 2.31091e-20)
(1.06892 0.362496 1.30392e-20)
(1.25749 0.435463 -1.02499e-20)
(1.32925 0.452772 -1.58523e-20)
(1.33631 0.437772 -1.45975e-20)
(1.31807 0.409634 -2.92013e-21)
(1.29467 0.37819 7.69911e-21)
(1.27347 0.347034 -1.62265e-21)
(1.25386 0.321728 3.64968e-21)
(0.286433 0.0857599 -3.12725e-20)
(0.756025 0.259515 -2.91024e-20)
(1.08371 0.400185 -4.61415e-21)
(1.2573 0.468205 -5.20184e-21)
(1.3178 0.478655 -1.17037e-20)
(1.3193 0.45803 7.06759e-21)
(1.29951 0.426021 -1.26244e-21)
(1.2765 0.39183 -6.69529e-21)
(1.25628 0.358752 6.07227e-21)
(1.23721 0.331946 -8.66852e-21)
(0.301648 0.102105 7.37619e-21)
(0.775859 0.294336 2.46879e-20)
(1.09237 0.43731 2.1413e-20)
(1.25178 0.499789 2.31795e-20)
(1.3025 0.503337 4.32588e-22)
(1.29972 0.477284 1.99873e-20)
(1.2792 0.441579 1.3107e-21)
(1.25705 0.404737 -2.30508e-20)
(1.23805 0.369931 1.63476e-20)
(1.21984 0.341435 5.94127e-21)
(0.314858 0.11924 2.03028e-20)
(0.790525 0.329282 4.53947e-20)
(1.09508 0.473455 -5.97404e-21)
(1.24124 0.529931 -2.92486e-20)
(1.28363 0.526631 1.30925e-20)
(1.27775 0.495387 -1.35005e-20)
(1.25723 0.456172 -1.78784e-20)
(1.23641 0.416791 -1.53543e-21)
(1.21875 0.38034 -1.35474e-20)
(1.20188 0.350266 5.1698e-21)
(0.325863 0.136931 9.59513e-21)
(0.799979 0.363884 7.18308e-21)
(1.09209 0.508218 5.65994e-20)
(1.22602 0.558362 1.05352e-20)
(1.26149 0.548355 -9.1768e-21)
(1.25358 0.512191 -4.64075e-21)
(1.23378 0.46966 2.74776e-20)
(1.21459 0.427896 2.23588e-20)
(1.19841 0.389864 1.09858e-20)
(1.18321 0.358244 -1.46444e-21)
(0.334506 0.154929 2.0377e-21)
(0.804256 0.397684 -4.64886e-20)
(1.08366 0.541218 -6.66571e-20)
(1.20648 0.584823 2.08281e-21)
(1.23635 0.568328 1.28934e-20)
(1.22742 0.527531 -1.78784e-20)
(1.20891 0.481911 -4.03138e-20)
(1.19161 0.437935 -1.18596e-20)
(1.17713 0.398395 -7.18707e-22)
(1.16381 0.365287 5.47873e-21)
(0.340678 0.172976 -1.67057e-20)
(0.803465 0.430239 4.22239e-20)
(1.07013 0.572099 4.01666e-20)
(1.18295 0.60907 -3.69898e-20)
(1.20846 0.586358 5.62523e-21)
(1.19943 0.541264 4.33275e-20)
(1.1827 0.49279 -9.67139e-21)
(1.16758 0.44679 7.97476e-21)
(1.15499 0.405835 -3.79568e-21)
(1.14372 0.371302 -4.93926e-21)
(0.34431 0.190811 -3.77917e-20)
(0.797792 0.461125 -6.65048e-20)
(1.0519 0.600553 -1.30006e-20)
(1.15574 0.630867 2.12905e-20)
(1.17807 0.602271 2.08899e-20)
(1.16976 0.553229 -4.33548e-20)
(1.15527 0.502174 2.34281e-20)
(1.14256 0.454349 -1.22273e-20)
(1.13205 0.412085 9.71122e-21)
(1.12302 0.376222 3.02782e-22)
(0.345388 0.208171 2.88153e-20)
(0.787502 0.489931 1.92279e-21)
(1.02931 0.6263 -6.46399e-21)
(1.12511 0.64999 -2.66011e-20)
(1.14548 0.615888 1.73842e-20)
(1.1386 0.563281 3.50953e-21)
(1.12674 0.509935 -1.365e-20)
(1.11668 0.460505 2.26343e-21)
(1.10838 0.417045 -2.59407e-21)
(1.10181 0.379968 1.34528e-21)
(0.343962 0.224805 -7.99275e-21)
(0.772929 0.516313 -1.1322e-20)
(1.00249 0.64897 2.84086e-20)
(1.09151 0.666305 1.31336e-20)
(1.11097 0.627032 -1.77445e-20)
(1.10613 0.571291 2.53753e-20)
(1.09726 0.515959 1.74164e-21)
(1.09003 0.465157 1.98763e-21)
(1.08408 0.420614 -9.02529e-23)
(1.08015 0.382442 1.62138e-22)
(0.340128 0.240458 5.20511e-20)
(0.754379 0.540112 4.0058e-20)
(0.97166 0.668203 -2.535e-21)
(1.05539 0.679553 -6.33007e-21)
(1.0748 0.635607 -7.29076e-21)
(1.07254 0.577141 -3.51071e-21)
(1.06696 0.520142 1.75833e-21)
(1.06272 0.468218 1.72887e-21)
(1.05925 0.422694 5.92514e-22)
(1.05813 0.383544 -2.42291e-21)
(0.333968 0.254776 4.72118e-21)
(0.731973 0.561007 7.22273e-21)
(0.937617 0.684084 -3.77279e-20)
(1.01716 0.68949 1.69126e-20)
(1.03725 0.641489 5.18924e-21)
(1.03803 0.580728 -1.14048e-20)
(1.036 0.52239 3.54433e-21)
(1.03486 0.469612 1.06702e-21)
(1.034 0.423217 -3.08369e-21)
(1.03597 0.383223 3.29801e-21)
(0.325472 0.267481 -1.97413e-20)
(0.705943 0.578452 -1.47247e-20)
(0.900914 0.69639 1.26328e-20)
(0.977098 0.696094 3.73393e-21)
(0.998553 0.644571 -6.34686e-21)
(1.00278 0.581953 6.10145e-21)
(1.0045 0.522609 1.78477e-21)
(1.00655 0.469244 -5.6021e-21)
(1.00859 0.422109 1.73803e-20)
(1.01433 0.381521 7.46142e-21)
(0.314883 0.278364 -1.55646e-20)
(0.676827 0.592188 4.04094e-20)
(0.861859 0.704894 -2.60971e-20)
(0.935542 0.699285 -3.32788e-21)
(0.958983 0.644768 -4.96684e-21)
(0.96699 0.580737 1.06681e-21)
(0.972568 0.520716 -5.70455e-21)
(0.977909 0.466978 3.25502e-21)
(0.983426 0.41917 -4.5977e-23)
(0.993926 0.378451 -3.15148e-21)
(0.302464 0.287422 -7.86657e-22)
(0.645078 0.602118 -1.19245e-20)
(0.820863 0.709398 7.22024e-21)
(0.892837 0.698981 -4.3805e-21)
(0.918802 0.642019 2.66576e-21)
(0.930837 0.577026 3.96486e-21)
(0.940344 0.516666 1.19479e-20)
(0.949137 0.46272 -9.59521e-21)
(0.958882 0.414035 -1.88586e-20)
(0.974022 0.37331 8.5494e-21)
(0.288343 0.294451 9.35435e-22)
(0.611159 0.608115 -1.25945e-21)
(0.778351 0.709798 6.92903e-22)
(0.849335 0.695119 2.60557e-21)
(0.878275 0.636281 -8.14087e-21)
(0.89452 0.570791 -1.59725e-20)
(0.908017 0.510456 -4.74276e-21)
(0.920519 0.456594 -1.77055e-21)
(0.934951 0.406939 2.62542e-20)
(0.95166 0.362532 -5.45627e-21)
(0.272739 0.299302 -4.02866e-21)
(0.575515 0.610073 -4.80405e-21)
(0.734754 0.706043 1.52e-21)
(0.805386 0.68766 1.08945e-21)
(0.837671 0.627526 -7.42576e-21)
(0.85826 0.562001 3.16077e-20)
(0.875849 0.502048 -2.30412e-20)
(0.892275 0.448664 2.80946e-20)
(0.91054 0.399724 -1.98078e-20)
(0.927087 0.356763 -2.6691e-20)
(0.255904 0.301865 9.38293e-22)
(0.538581 0.607919 -2.18633e-21)
(0.690499 0.698114 9.74353e-22)
(0.761336 0.676595 1.13489e-20)
(0.797255 0.615745 -5.27026e-21)
(0.822284 0.550639 8.04273e-21)
(0.844046 0.491393 1.34537e-20)
(0.864413 0.438657 -7.14682e-21)
(0.885983 0.390229 -1.95472e-20)
(0.903599 0.347491 2.70146e-20)
(0.238097 0.30206 8.25286e-21)
(0.500791 0.601618 1.07064e-20)
(0.646008 0.686023 -1.11834e-20)
(0.717528 0.661941 -9.94316e-21)
(0.757296 0.600953 3.84319e-20)
(0.786813 0.536717 -3.98164e-20)
(0.81276 0.478539 4.85913e-20)
(0.836953 0.426812 -1.22327e-20)
(0.861519 0.379475 1.31827e-20)
(0.88085 0.337931 2.49653e-20)
(0.21958 0.299835 -2.62727e-21)
(0.462575 0.591171 -1.10895e-20)
(0.601689 0.669816 -7.8771e-21)
(0.674296 0.643743 -4.06527e-21)
(0.71806 0.583181 5.37843e-21)
(0.752068 0.520257 -1.07624e-20)
(0.782164 0.463489 -1.44994e-20)
(0.810058 0.413053 -3.22793e-20)
(0.837499 0.367047 3.21595e-20)
(0.858955 0.326891 -1.0375e-20)
(0.200618 0.295168 2.3241e-20)
(0.424358 0.57662 -3.19512e-21)
(0.557944 0.649565 -1.11731e-20)
(0.631964 0.622068 1.39764e-20)
(0.679804 0.562484 -2.51783e-20)
(0.718262 0.501304 6.87281e-20)
(0.752425 0.446294 -3.68758e-20)
(0.783896 0.397469 3.36863e-20)
(0.814147 0.353109 -6.19944e-20)
(0.837944 0.314534 -1.65465e-20)
(0.181476 0.288065 -6.62709e-21)
(0.386552 0.558039 2.4842e-20)
(0.515158 0.625373 5.63782e-21)
(0.590848 0.59701 -1.32478e-20)
(0.642783 0.538939 -2.30295e-20)
(0.685601 0.479919 -6.30649e-22)
(0.723716 0.427004 1.23132e-20)
(0.758632 0.380086 -3.04354e-20)
(0.791622 0.33763 1.49771e-20)
(0.817862 0.300782 1.97565e-21)
(0.162414 0.278559 -4.15207e-20)
(0.349559 0.535541 -1.01015e-20)
(0.473701 0.597372 -2.89826e-21)
(0.551248 0.568686 3.45076e-20)
(0.607239 0.512639 -3.23312e-20)
(0.654288 0.456181 -8.33318e-21)
(0.69621 0.405688 -5.16737e-21)
(0.734427 0.360969 9.48702e-21)
(0.770067 0.320653 -1.21655e-20)
(0.798777 0.285674 -1.89792e-20)
(0.143685 0.266708 3.74123e-20)
(0.313762 0.509271 -2.14442e-20)
(0.433927 0.565721 9.68902e-22)
(0.513454 0.537235 -5.25168e-20)
(0.573406 0.483699 5.72809e-20)
(0.624516 0.430187 -1.81976e-20)
(0.670074 0.382429 1.09201e-20)
(0.711431 0.340181 9.54927e-21)
(0.749606 0.302222 2.77502e-20)
(0.780764 0.269254 -1.1446e-20)
(0.125535 0.252598 -1.51695e-20)
(0.279525 0.479404 4.461e-20)
(0.396169 0.530605 2.52971e-20)
(0.477737 0.502817 4.18052e-20)
(0.541506 0.452253 -9.67734e-21)
(0.596471 0.402047 3.90555e-21)
(0.645465 0.357323 3.16701e-20)
(0.689782 0.317803 7.10716e-21)
(0.730356 0.282399 6.83548e-22)
(0.763899 0.25159 -1.37201e-20)
(0.108197 0.236336 -3.5681e-20)
(0.247193 0.446145 -2.57084e-21)
(0.36074 0.492234 -1.49741e-20)
(0.444353 0.465614 -6.75874e-20)
(0.511746 0.418452 -6.55571e-20)
(0.570328 0.37189 1.0925e-20)
(0.622535 0.330479 -2.70375e-20)
(0.669611 0.293925 1.73529e-20)
(0.712427 0.26126 9.43438e-21)
(0.74826 0.232761 1.96649e-20)
(0.0918902 0.218053 5.28958e-20)
(0.217083 0.409727 -4.33372e-20)
(0.327931 0.450841 -2.21221e-20)
(0.41354 0.425826 3.91037e-20)
(0.484321 0.382463 4.47119e-20)
(0.546253 0.339859 -1.49069e-20)
(0.601425 0.302019 -1.94927e-21)
(0.651039 0.26865 -5.3916e-20)
(0.695924 0.238895 -3.05212e-20)
(0.733918 0.212856 1.16723e-20)
(0.0768194 0.1979 -3.01614e-20)
(0.18949 0.370407 1.26929e-20)
(0.298007 0.406679 4.69449e-20)
(0.385514 0.383671 -2.12147e-20)
(0.459411 0.34447 1.72159e-21)
(0.524395 0.306109 6.00045e-20)
(0.582264 0.272077 2.7379e-21)
(0.63418 0.242093 5.1728e-20)
(0.680944 0.215403 2.15924e-20)
(0.720943 0.191971 -3.4373e-20)
(0.0631708 0.176047 4.21232e-20)
(0.164681 0.328467 4.71459e-21)
(0.271208 0.360024 3.08378e-21)
(0.360474 0.339383 4.30841e-20)
(0.437179 0.304669 -5.71785e-21)
(0.504893 0.270809 -3.76853e-20)
(0.565169 0.240798 1.84866e-20)
(0.619135 0.214378 -2.95781e-20)
(0.667576 0.190892 -1.23625e-20)
(0.709397 0.170208 1.25125e-20)
(0.0511117 0.15268 -2.62528e-20)
(0.142891 0.284207 -5.05924e-20)
(0.247748 0.311164 1.17423e-20)
(0.338595 0.293212 -2.29908e-20)
(0.417768 0.263272 -1.38674e-20)
(0.48787 0.234138 3.36987e-20)
(0.550248 0.208336 -8.15365e-21)
(0.605998 0.185637 7.52137e-21)
(0.6559 0.165481 -9.17408e-21)
(0.699336 0.147675 1.82288e-20)
(0.0407884 0.128002 9.5744e-21)
(0.124327 0.237945 3.41513e-20)
(0.227813 0.260407 -4.75416e-20)
(0.320029 0.24542 2.24691e-20)
(0.401305 0.2205 -1.02555e-20)
(0.473433 0.196287 -2.88841e-20)
(0.53759 0.174855 2.36079e-20)
(0.594849 0.156012 4.94628e-21)
(0.645988 0.139293 -7.59727e-22)
(0.690811 0.124481 -2.11961e-20)
(0.0323256 0.102226 3.15467e-21)
(0.109164 0.190016 1.10629e-20)
(0.211558 0.208072 4.30976e-20)
(0.304904 0.19628 -8.2856e-21)
(0.387898 0.176583 -6.53311e-21)
(0.461673 0.157452 2.41027e-21)
(0.527276 0.140526 1.08297e-21)
(0.585758 0.12565 8.8187e-21)
(0.637901 0.112458 -1.15963e-20)
(0.683862 0.100743 -7.37652e-21)
(0.0258248 0.0755789 -7.86029e-21)
(0.0975429 0.140767 -1.34597e-20)
(0.199112 0.154487 -3.35842e-20)
(0.293327 0.146073 1.69088e-20)
(0.377632 0.13176 1.37867e-20)
(0.452663 0.117839 5.85879e-22)
(0.519369 0.105525 -2.30644e-20)
(0.578781 0.0947045 -1.0249e-20)
(0.631689 0.0851119 8.11967e-21)
(0.678524 0.0765744 8.69537e-21)
(0.0213636 0.048293 1.37276e-21)
(0.0895714 0.0905535 -2.83226e-21)
(0.190571 0.0999933 6.37274e-21)
(0.285375 0.0950882 -4.31697e-21)
(0.370575 0.0862775 -3.81687e-21)
(0.446462 0.0776585 -2.58713e-21)
(0.513917 0.0700327 4.74892e-21)
(0.573962 0.063332 1.80959e-20)
(0.627391 0.057389 2.62078e-21)
(0.674823 0.0520841 -4.6466e-21)
(0.0189951 0.0206083 1.69639e-21)
(0.0853233 0.0397407 -4.6666e-21)
(0.186 0.0449336 -5.29021e-21)
(0.281104 0.0436212 -3.67e-21)
(0.366771 0.0403847 3.49409e-21)
(0.443106 0.037125 1.57635e-21)
(0.510954 0.0342356 -1.57039e-21)
(0.57133 0.0316937 -7.15497e-21)
(0.62503 0.0294314 2.35552e-21)
(0.672764 0.0273915 -2.20285e-21)
(0.0187477 -0.00723188 -1.69969e-21)
(0.0848374 -0.0113034 4.67459e-21)
(0.185435 -0.010343 5.2968e-21)
(0.280543 -0.00803067 -5.0675e-21)
(0.366244 -0.00566546 4.45942e-21)
(0.442617 -0.00354425 2.23181e-21)
(0.510497 -0.00167894 -3.5617e-21)
(0.570899 -4.5054e-05 -4.13852e-21)
(0.624618 0.00139414 6.10157e-22)
(0.672357 0.00267332 -1.72119e-21)
(0.0206244 -0.0349828 1.86325e-21)
(0.0881178 -0.0622087 -5.56849e-21)
(0.188879 -0.0654866 1.24828e-20)
(0.283693 -0.0595685 -1.09517e-20)
(0.368997 -0.0516192 -5.16223e-22)
(0.444996 -0.0441317 -7.27077e-21)
(0.512549 -0.0375242 1.18097e-20)
(0.572677 -0.0317257 1.605e-20)
(0.626183 -0.0265958 2.86711e-21)
(0.673693 -0.0220201 -6.17062e-21)
(0.0246033 -0.0624006 -1.60395e-21)
(0.0951335 -0.112606 -1.17956e-20)
(0.196304 -0.120148 -2.74021e-20)
(0.290532 -0.110694 2.36878e-20)
(0.375009 -0.0972235 4.87998e-21)
(0.450227 -0.0844201 4.31412e-21)
(0.517094 -0.0731136 -2.12457e-20)
(0.576644 -0.0631878 -1.25197e-20)
(0.629679 -0.0544044 -2.78434e-21)
(0.676641 -0.0466056 1.9059e-20)
(0.0306372 -0.0892448 -5.6567e-21)
(0.105819 -0.162131 7.09688e-21)
(0.207651 -0.173983 4.97029e-20)
(0.301012 -0.161112 -4.45685e-21)
(0.384242 -0.142227 -1.27345e-20)
(0.458275 -0.124194 9.13062e-21)
(0.524103 -0.10826 6.2658e-22)
(0.582775 -0.0942658 3.21234e-21)
(0.635093 -0.0818724 -7.03072e-21)
(0.681224 -0.0708886 -1.85689e-20)
(0.0386548 -0.11528 -3.82592e-21)
(0.120074 -0.210425 2.07672e-20)
(0.22283 -0.22665 -5.00416e-20)
(0.315057 -0.210532 2.16678e-20)
(0.396632 -0.186385 2.05291e-22)
(0.469087 -0.163242 -2.74005e-20)
(0.53353 -0.142781 1.20937e-20)
(0.591031 -0.124802 -1.12175e-21)
(0.642391 -0.108865 4.58708e-21)
(0.687426 -0.0947729 -1.36918e-21)
(0.0485605 -0.14028 -4.37878e-20)
(0.137765 -0.25714 -5.22748e-20)
(0.241721 -0.277819 1.36768e-20)
(0.332569 -0.258671 -2.48114e-20)
(0.412098 -0.229454 -7.00999e-21)
(0.482593 -0.201357 1.04437e-20)
(0.545315 -0.176499 3.87622e-21)
(0.601357 -0.154642 1.4344e-20)
(0.651524 -0.135251 -3.08813e-21)
(0.695212 -0.118149 1.6608e-20)
(0.0602357 -0.164028 4.18807e-20)
(0.158725 -0.301938 2.687e-20)
(0.264174 -0.327167 -2.03378e-20)
(0.353424 -0.305252 3.41551e-20)
(0.430536 -0.271204 -2.90415e-21)
(0.498707 -0.238339 -3.67983e-20)
(0.559382 -0.209241 6.45118e-21)
(0.613687 -0.183638 -3.8993e-20)
(0.662435 -0.160896 1.52364e-21)
(0.704544 -0.140901 1.41184e-20)
(0.0735395 -0.186319 -3.11388e-20)
(0.182756 -0.344498 5.56869e-20)
(0.29001 -0.374387 2.17772e-20)
(0.377476 -0.350013 -2.69273e-20)
(0.451826 -0.31141 2.43786e-22)
(0.517324 -0.273998 6.78049e-20)
(0.575643 -0.240843 3.06535e-21)
(0.627942 -0.211647 2.99777e-20)
(0.675053 -0.185675 3.64523e-20)
(0.715372 -0.162914 -2.04047e-20)
(0.0883105 -0.206963 1.74602e-20)
(0.209629 -0.384516 -8.34791e-21)
(0.319022 -0.419184 -1.97728e-20)
(0.404554 -0.392702 1.48158e-20)
(0.475826 -0.349859 5.68967e-20)
(0.538325 -0.308151 -1.99807e-20)
(0.593995 -0.271147 -3.27072e-21)
(0.644033 -0.238533 -4.32543e-20)
(0.6893 -0.209469 -5.33854e-20)
(0.727643 -0.184081 2.33362e-20)
(0.104367 -0.225787 -2.31755e-20)
(0.239085 -0.421708 -2.03275e-20)