/*--------------------------------*- C++ -*----------------------------------*\
  =========                 |
  \\      /  F ield         | OpenFOAM: The Open Source CFD Toolbox
   \\    /   O peration     | Website:  https://openfoam.org
    \\  /    A nd           | Version:  7
     \\/     M anipulation  |
\*---------------------------------------------------------------------------*/
FoamFile
{
    version     2.0;
    format      ascii;
    class       volScalarField;
    location    "150";
    object      p;
}
// * * * * * * * * * * * * * * * * * * * * * * * * * * * * * * * * * * * * * //

dimensions      [0 2 -2 0 0 0 0];

internalField   nonuniform List<scalar> 
2125
(
-0.418717
-0.421536
-0.422639
-0.424005
-0.426045
-0.428831
-0.432315
-0.436379
-0.440707
-0.445273
-0.409254
-0.412311
-0.413296
-0.414268
-0.415582
-0.417257
-0.419197
-0.421231
-0.422919
-0.424189
-0.400142
-0.403364
-0.404221
-0.404804
-0.405406
-0.405989
-0.406405
-0.406433
-0.40551
-0.403456
-0.391475
-0.394802
-0.395525
-0.395736
-0.395657
-0.395192
-0.39414
-0.392238
-0.388822
-0.383518
-0.383329
-0.38671
-0.387303
-0.387166
-0.38645
-0.385001
-0.382562
-0.378845
-0.373132
-0.364728
-0.375763
-0.379161
-0.379631
-0.379176
-0.377872
-0.375511
-0.371786
-0.366388
-0.358624
-0.347324
-0.368823
-0.372214
-0.372568
-0.371825
-0.369986
-0.366791
-0.361885
-0.354949
-0.345404
-0.331424
-0.362547
-0.365915
-0.366163
-0.365158
-0.362836
-0.358884
-0.352903
-0.344565
-0.333515
-0.317034
-0.356965
-0.360303
-0.360451
-0.35921
-0.35645
-0.351818
-0.344868
-0.335249
-0.322946
-0.304054
-0.352108
-0.355411
-0.355463
-0.354006
-0.350853
-0.345615
-0.337805
-0.327013
-0.313682
-0.292323
-0.348005
-0.351265
-0.351224
-0.349568
-0.346065
-0.3403
-0.33175
-0.319908
-0.30578
-0.281731
-0.344687
-0.34789
-0.347752
-0.345913
-0.342106
-0.335899
-0.326747
-0.314027
-0.299415
-0.272986
-0.342183
-0.345302
-0.345063
-0.343056
-0.338992
-0.332433
-0.322832
-0.309444
-0.294688
-0.265468
-0.340519
-0.343514
-0.343163
-0.341004
-0.336733
-0.329913
-0.320003
-0.306126
-0.291183
-0.259769
-0.339712
-0.342524
-0.342048
-0.33975
-0.335321
-0.328327
-0.318239
-0.304173
-0.289105
-0.255709
-0.339765
-0.342321
-0.341697
-0.339266
-0.334721
-0.327631
-0.317459
-0.3035
-0.288201
-0.253349
-0.340663
-0.342876
-0.342074
-0.339505
-0.334868
-0.327737
-0.317531
-0.303855
-0.288106
-0.252629
-0.342375
-0.344148
-0.343124
-0.340395
-0.335667
-0.328512
-0.318303
-0.305009
-0.28825
-0.253076
-0.344854
-0.346085
-0.344781
-0.341851
-0.337007
-0.329814
-0.319583
-0.30674
-0.288336
-0.254709
-0.348043
-0.34863
-0.346975
-0.343781
-0.338768
-0.331495
-0.321197
-0.308738
-0.288697
-0.261125
-0.351884
-0.351727
-0.349641
-0.346105
-0.340848
-0.333428
-0.323005
-0.310582
-0.289821
-0.276094
-0.356325
-0.35533
-0.352732
-0.348764
-0.34318
-0.335522
-0.3249
-0.312148
-0.291886
-0.278291
-0.361333
-0.359413
-0.356221
-0.351733
-0.345732
-0.33773
-0.3268
-0.313482
-0.293656
-0.278319
-0.363977
-0.36011
-0.355022
-0.348516
-0.340049
-0.328659
-0.314623
-0.294837
-0.277795
-0.36443
-0.358672
-0.351568
-0.3425
-0.330467
-0.31553
-0.295418
-0.276634
-0.369229
-0.362741
-0.354937
-0.34511
-0.332219
-0.316161
-0.295361
-0.275062
-0.367293
-0.358669
-0.347895
-0.333889
-0.316466
-0.294702
-0.273056
-0.362788
-0.350846
-0.335426
-0.316399
-0.293479
-0.27064
-0.336753
-0.315921
-0.29173
-0.267807
-0.314997
-0.289485
-0.264555
-0.286754
-0.260871
-0.454192
-0.455721
-0.442564
-0.405498
-0.367506
-0.357283
-0.380698
-0.399968
-0.366837
-0.288086
-0.210577
-0.156848
-0.132766
-0.126574
-0.148305
-0.162268
-0.144358
-0.108161
-0.0934095
-0.0745559
-0.0715948
-0.0646816
-0.0706101
-0.0827597
-0.0810214
-0.0463405
-0.0420015
-0.0538104
-0.0464899
-0.00186315
-0.428926
-0.427293
-0.41479
-0.383968
-0.358213
-0.362368
-0.397612
-0.421901
-0.385776
-0.30131
-0.217613
-0.158475
-0.130401
-0.12072
-0.139707
-0.151707
-0.136224
-0.104535
-0.092726
-0.075023
-0.0731866
-0.0672443
-0.0729314
-0.0837447
-0.0816979
-0.0466912
-0.0419959
-0.0540576
-0.0464156
-0.0016841
-0.404338
-0.399366
-0.387468
-0.362483
-0.348367
-0.365974
-0.412222
-0.440979
-0.402506
-0.312947
-0.223757
-0.159784
-0.127931
-0.114968
-0.131133
-0.141093
-0.12781
-0.100766
-0.091931
-0.075501
-0.0748839
-0.0699325
-0.0752557
-0.0846811
-0.0823063
-0.0470337
-0.0419836
-0.0543286
-0.0463725
-0.0015098
-0.381007
-0.372609
-0.361252
-0.341591
-0.338138
-0.367825
-0.424091
-0.456903
-0.416884
-0.322994
-0.229046
-0.16083
-0.125428
-0.109419
-0.122702
-0.130579
-0.119185
-0.0968713
-0.0910196
-0.075988
-0.0766782
-0.0727317
-0.0775673
-0.0855635
-0.082841
-0.0473649
-0.0419643
-0.0546239
-0.0463626
-0.00134122
-0.359404
-0.347561
-0.336703
-0.321728
-0.32772
-0.367735
-0.432832
-0.469491
-0.428822
-0.331472
-0.233525
-0.161665
-0.122961
-0.104161
-0.114528
-0.120313
-0.110429
-0.0928735
-0.0899876
-0.0764803
-0.0785589
-0.0756258
-0.0798513
-0.0863872
-0.0832964
-0.0476812
-0.0419376
-0.0549435
-0.0463868
-0.00117934
-0.339832
-0.324595
-0.31423
-0.303203
-0.317082
-0.365758
-0.438253
-0.478727
-0.438288
-0.338418
-0.237245
-0.162336
-0.120586
-0.099256
-0.106716
-0.110432
-0.101633
-0.0887989
-0.0888323
-0.076972
-0.0805133
-0.0785968
-0.0820938
-0.087148
-0.0836679
-0.047979
-0.0419026
-0.0552873
-0.0464457
-0.00102513
-0.322431
-0.303892
-0.294065
-0.286467
-0.306104
-0.361889
-0.440356
-0.484765
-0.445289
-0.343888
-0.240265
-0.162884
-0.118355
-0.0947491
-0.0993598
-0.101057
-0.0929026
-0.0846779
-0.087552
-0.0774553
-0.0825266
-0.0816252
-0.0842817
-0.0878423
-0.0839511
-0.0482547
-0.0418586
-0.0556545
-0.0465389
-0.000879572
-0.307207
-0.28547
-0.276286
-0.271349
-0.295228
-0.356218
-0.439292
-0.487446
-0.44987
-0.347949
-0.242643
-0.163342
-0.11631
-0.0906639
-0.0925327
-0.09229
-0.0843543
-0.0805447
-0.086147
-0.0779202
-0.0845827
-0.08469
-0.0864029
-0.0884674
-0.0841427
-0.0485044
-0.0418048
-0.056044
-0.0466649
-0.00074369
-0.294086
-0.269324
-0.260972
-0.257768
-0.284558
-0.348943
-0.435342
-0.487068
-0.452121
-0.350677
-0.244438
-0.163739
-0.114484
-0.0870076
-0.086289
-0.0842113
-0.0761114
-0.0764382
-0.084619
-0.0783547
-0.0866638
-0.0877691
-0.088446
-0.0890208
-0.0842395
-0.0487245
-0.0417401
-0.0564542
-0.0468218
-0.000618516
-0.283079
-0.255882
-0.247379
-0.245853
-0.274173
-0.340344
-0.428877
-0.483914
-0.45217
-0.352152
-0.245708
-0.164095
-0.1129
-0.0837739
-0.0806588
-0.0768754
-0.0682947
-0.0724008
-0.0829715
-0.0787448
-0.0887514
-0.0908397
-0.0904002
-0.0895006
-0.0842394
-0.0489114
-0.0416637
-0.056883
-0.0470066
-0.000505116
-0.274233
-0.244313
-0.2358
-0.235485
-0.264199
-0.330743
-0.420323
-0.478315
-0.450174
-0.352454
-0.246507
-0.164427
-0.111576
-0.0809475
-0.0756485
-0.0703136
-0.0610126
-0.0684767
-0.0812096
-0.0790751
-0.0908263
-0.0938784
-0.0922558
-0.0899054
-0.0841408
-0.0490618
-0.0415747
-0.0573278
-0.0472155
-0.000404581
-0.266782
-0.23471
-0.226024
-0.226539
-0.254774
-0.32048
-0.410124
-0.47062
-0.446328
-0.351662
-0.246891
-0.164751
-0.110527
-0.0785103
-0.0712437
-0.0645345
-0.0543513
-0.0647129
-0.0793403
-0.0793289
-0.0928694
-0.096862
-0.094004
-0.0902342
-0.0839427
-0.0491726
-0.0414726
-0.0577857
-0.0474437
-0.000318029
-0.261018
-0.226976
-0.217819
-0.218929
-0.246025
-0.309886
-0.398712
-0.461189
-0.440839
-0.349868
-0.246922
-0.16509
-0.109768
-0.0764442
-0.0674128
-0.0595255
-0.0483975
-0.0611562
-0.0773721
-0.0794885
-0.0948617
-0.0997679
-0.0956367
-0.090486
-0.0836446
-0.0492407
-0.0413564
-0.0582535
-0.0476856
-0.000246606
-0.256965
-0.221039
-0.211045
-0.212576
-0.238055
-0.299254
-0.386481
-0.450358
-0.433897
-0.347177
-0.246653
-0.165449
-0.109291
-0.0747209
-0.0641052
-0.0552461
-0.0431266
-0.0578529
-0.0753143
-0.0795352
-0.0967852
-0.102574
-0.0971461
-0.0906603
-0.0832467
-0.0492621
-0.0412248
-0.0587269
-0.0479348
-0.000191483
-0.254622
-0.216865
-0.205625
-0.207405
-0.23093
-0.288819
-0.373761
-0.438428
-0.425675
-0.343659
-0.246064
-0.165764
-0.10903
-0.0732837
-0.0612507
-0.0516204
-0.0385457
-0.0548464
-0.0731768
-0.07945
-0.0986228
-0.105259
-0.098526
-0.0907567
-0.0827503
-0.0492321
-0.0410762
-0.0591988
-0.0481837
-0.000153852
-0.25386
-0.214461
-0.201524
-0.203342
-0.224684
-0.278756
-0.360797
-0.425673
-0.416359
-0.339349
-0.245085
-0.165947
-0.108914
-0.0720861
-0.0587917
-0.0485654
-0.0346459
-0.0521648
-0.0709687
-0.0792131
-0.100358
-0.107807
-0.0997741
-0.0907749
-0.0821578
-0.0491499
-0.0409108
-0.0596619
-0.0484235
-0.000134914
-0.254473
-0.213797
-0.198726
-0.200309
-0.219324
-0.269204
-0.347752
-0.412285
-0.406196
-0.334471
-0.243966
-0.166258
-0.109151
-0.0712473
-0.0567637
-0.0460825
-0.0314017
-0.0498169
-0.0686958
-0.0788044
-0.101976
-0.110199
-0.100879
-0.0907106
-0.0814688
-0.0490272
-0.0407313
-0.0601224
-0.0486448
-0.000135832
-0.255903
-0.214648
-0.197242
-0.198199
-0.21478
-0.260212
-0.33475
-0.398043
-0.395313
-0.329627
-0.243542
-0.167445
-0.11029
-0.07107
-0.0552709
-0.0442469
-0.0288595
-0.0478791
-0.066363
-0.078203
-0.103461
-0.112384
-0.101782
-0.0905545
-0.0806782
-0.0488786
-0.0405353
-0.0606075
-0.0488391
-0.000157904
-0.256978
-0.216696
-0.197228
-0.196991
-0.210896
-0.25143
-0.32141
-0.382545
-0.383201
-0.324506
-0.243452
-0.169042
-0.111875
-0.071247
-0.0540502
-0.0427154
-0.0269373
-0.0465807
-0.0640233
-0.0773776
-0.104813
-0.114292
-0.102432
-0.0903254
-0.0797964
-0.0486562
-0.0403007
-0.0610851
-0.0489988
-0.000203491
-0.260881
-0.22098
-0.198413
-0.197021
-0.208595
-0.244147
-0.308344
-0.368225
-0.369614
-0.315577
-0.238811
-0.166674
-0.110488
-0.0697488
-0.0520271
-0.0401588
-0.0247825
-0.0452265
-0.0615467
-0.0763458
-0.105961
-0.116348
-0.103226
-0.0901286
-0.0788886
-0.0481743
-0.0399965
-0.0612853
-0.049076
-0.000271623
-0.246609
-0.218191
-0.198079
-0.197328
-0.208245
-0.241564
-0.30362
-0.357883
-0.355948
-0.301369
-0.227343
-0.158564
-0.104648
-0.0654581
-0.0486284
-0.0355694
-0.0205348
-0.0392144
-0.0555441
-0.0739221
-0.108425
-0.121318
-0.105567
-0.0899978
-0.0779367
-0.0472565
-0.0395536
-0.0608191
-0.0489922
-0.000350891
-0.241263
-0.216983
-0.199227
-0.198689
-0.209298
-0.238916
-0.291844
-0.33684
-0.331686
-0.28023
-0.212351
-0.149004
-0.0988108
-0.0617661
-0.0452156
-0.0316053
-0.0189323
-0.0376563
-0.0525869
-0.072507
-0.109842
-0.124479
-0.106606
-0.088123
-0.0758717
-0.0460634
-0.0391707
-0.0604602
-0.0498293
-0.000366287
-0.235574
-0.215098
-0.199402
-0.199205
-0.209428
-0.235069
-0.278451
-0.313716
-0.306431
-0.259476
-0.198034
-0.139938
-0.0931236
-0.0580254
-0.0419111
-0.0279044
-0.0175127
-0.0361628
-0.0510763
-0.0718418
-0.110429
-0.126478
-0.106948
-0.0857754
-0.0734085
-0.044705
-0.0386726
-0.0600752
-0.0509236
-0.000269266
-0.229204
-0.212013
-0.198011
-0.197866
-0.207285
-0.228912
-0.263003
-0.289623
-0.281041
-0.238872
-0.183776
-0.130855
-0.0873862
-0.0542611
-0.0386632
-0.0243708
-0.0159385
-0.0342022
-0.0490866
-0.0708229
-0.110494
-0.128147
-0.106775
-0.0830834
-0.0704248
-0.0431118
-0.0380294
-0.0596026
-0.0519286
-0.000100934
-0.221139
-0.207285
-0.194818
-0.194407
-0.202678
-0.219483
-0.246096
-0.265441
-0.256182
-0.218887
-0.169898
-0.121923
-0.0816438
-0.0504588
-0.0354217
-0.0209089
-0.0141569
-0.0319135
-0.0462486
-0.0690363
-0.109999
-0.129209
-0.105883
-0.079934
-0.0668904
-0.041245
-0.0372056
-0.0589959
-0.0527906
0.000110864
-0.211107
-0.200838
-0.189909
-0.189072
-0.196081
-0.209302
-0.228748
-0.242097
-0.232585
-0.199882
-0.156521
-0.113168
-0.0759184
-0.0466134
-0.0321402
-0.0174506
-0.0120377
-0.0292349
-0.0426232
-0.0663993
-0.108585
-0.129216
-0.104104
-0.0762757
-0.0627765
-0.0390599
-0.0361595
-0.0581936
-0.0535022
0.000364351
-0.199684
-0.192882
-0.183548
-0.182272
-0.187968
-0.198062
-0.211684
-0.220234
-0.210664
-0.182046
-0.143743
-0.104645
-0.0702463
-0.0427217
-0.0287739
-0.013922
-0.00943657
-0.0260084
-0.03817
-0.0627318
-0.105842
-0.127845
-0.101303
-0.0720767
-0.0580682
-0.0365105
-0.0348416
-0.057116
-0.0540024
0.000666004
-0.187411
-0.183692
-0.176013
-0.174393
-0.178763
-0.186269
-0.19535
-0.20013
-0.190565
-0.165456
-0.131618
-0.0963835
-0.0646537
-0.038783
-0.0252825
-0.0102477
-0.00620952
-0.0220005
-0.0326633
-0.0576763
-0.101496
-0.124815
-0.0973567
-0.0673133
-0.0527657
-0.0335485
-0.0331929
-0.0556602
-0.0541786
0.00101778
-0.17468
-0.173571
-0.16755
-0.165753
-0.168889
-0.174276
-0.179929
-0.181796
-0.172262
-0.150106
-0.120167
-0.0884078
-0.0591647
-0.0348022
-0.0216371
-0.00635555
-0.00220045
-0.0168729
-0.0257359
-0.0508322
-0.0953855
-0.119871
-0.092172
-0.0619762
-0.0468892
-0.0301262
-0.0311446
-0.0536968
-0.0538872
0.00141453
-0.161831
-0.16281
-0.158369
-0.156568
-0.158645
-0.162327
-0.165433
-0.165105
-0.155639
-0.135946
-0.109393
-0.0807359
-0.0538002
-0.0307906
-0.0178259
-0.0021891
0.00274458
-0.0102085
-0.0169554
-0.0418876
-0.0874335
-0.112824
-0.0856936
-0.0560749
-0.0404828
-0.0262004
-0.0286196
-0.0510722
-0.0529624
0.00184476
-0.149093
-0.151658
-0.148655
-0.147
-0.148226
-0.150565
-0.151808
-0.14988
-0.140541
-0.122904
-0.0992838
-0.073383
-0.0485794
-0.0267688
-0.0138589
0.00227173
0.00873162
-0.00153033
-0.00593056
-0.0307066
-0.0776955
-0.103572
-0.0779161
-0.0496397
-0.0336157
-0.0217382
-0.025534
-0.0476134
-0.0512184
0.00229071
-0.136611
-0.14033
-0.138583
-0.137188
-0.137779
-0.139074
-0.138987
-0.135945
-0.126808
-0.110902
-0.0898224
-0.0663634
-0.0435182
-0.0227702
-0.00977056
0.00698649
0.0157363
0.00955716
0.00751391
-0.0174644
-0.0663962
-0.0920812
-0.0689141
-0.0427251
-0.0263806
-0.0167257
-0.0218021
-0.0431391
-0.0484542
0.00272793
-0.124496
-0.129008
-0.12832
-0.127256
-0.127413
-0.12792
-0.12691
-0.123145
-0.11429
-0.0998636
-0.0809852
-0.0596918
-0.0386287
-0.0188433
-0.0056238
0.0118383
0.0234832
0.0229078
0.0230036
-0.00286472
-0.0538985
-0.0788572
-0.0588609
-0.0354123
-0.0188892
-0.0111771
-0.0173453
-0.037476
-0.0444659
0.00312566
-0.112836
-0.117848
-0.118023
-0.11732
-0.117218
-0.117155
-0.115533
-0.111348
-0.102853
-0.0897153
-0.0727462
-0.0533824
-0.0339233
-0.0150453
-0.00151515
0.0166329
0.031378
0.0371375
0.0391125
0.011757
-0.0405551
-0.0642039
-0.0480142
-0.0278097
-0.0112703
-0.00513891
-0.0121046
-0.0304885
-0.0390724
0.00345047
-0.101699
-0.106977
-0.107836
-0.107487
-0.107272
-0.106824
-0.104826
-0.100454
-0.0923827
-0.0803894
-0.0650786
-0.0474464
-0.0294221
-0.0114332
0.00242972
0.0211242
0.0386088
0.0498663
0.0534296
0.0248605
-0.0265985
-0.0486575
-0.0367236
-0.0200499
-0.00366949
0.00130537
-0.00605684
-0.0221153
-0.0321554
0.00367416
-0.0911384
-0.0965014
-0.0978887
-0.0978547
-0.0976459
-0.0969633
-0.0947679
-0.090379
-0.0827802
-0.0718233
-0.0579585
-0.0418905
-0.025157
-0.00805875
0.0060724
0.0250428
0.0444118
0.0590767
0.0638009
0.0354908
-0.0123571
-0.0329918
-0.0254225
-0.0122836
0.0037582
0.00802667
0.000759468
-0.0124189
-0.0237112
0.00378625
-0.0811938
-0.0865071
-0.088299
-0.0886577
-0.0884145
-0.0876046
-0.0853431
-0.0810618
-0.073965
-0.0639601
-0.0513663
-0.0367178
-0.0211673
-0.00496842
0.00928118
0.0281157
0.0482599
0.0637723
0.0693787
0.0434619
0.00136076
-0.0181629
-0.014575
-0.00467309
0.0108592
0.0148453
0.00821414
-0.00163184
-0.0139101
0.00380373
-0.0718925
-0.077053
-0.0791225
-0.0797326
-0.0796056
-0.0787699
-0.0765403
-0.0724529
-0.0658724
-0.0567493
-0.0452867
-0.03193
-0.0174892
-0.00220471
0.011949
0.0301582
0.0497213
0.0646923
0.0707641
0.0488741
0.0134474
-0.00499406
-0.004573
0.00261754
0.0174865
0.0215321
0.0160455
0.00998448
-0.00314389
0.00376447
-0.0632516
-0.0681878
-0.0704386
-0.0712689
-0.0712727
-0.0704794
-0.0683517
-0.0645148
-0.0584522
-0.0501481
-0.039707
-0.0275283
-0.0141474
0.000199262
0.01402
0.0311903
0.0493781
0.0631649
0.0691652
0.0518655
0.0231262
0.00604437
0.00434411
0.00943621
0.0234958
0.0278211
0.0238476
0.0214974
0.00797385
0.00370795
-0.0552808
-0.0599474
-0.062305
-0.0633187
-0.0634581
-0.0627514
-0.0607721
-0.057219
-0.0516657
-0.044122
-0.0346143
-0.0235131
-0.0111537
0.0022298
0.0154961
0.0313569
0.0477996
0.0602709
0.065791
0.0528232
0.0302499
0.0149201
0.0120803
0.0156611
0.0287556
0.0334317
0.0311224
0.0319029
0.0185865
0.00375718
-0.0479841
-0.0523563
-0.0547632
-0.055924
-0.056197
-0.0556025
-0.0537993
-0.0505449
-0.0454841
-0.038644
-0.0299955
-0.0198827
-0.00850825
0.00389486
0.016431
0.0308701
0.0454864
0.0567102
0.0616159
0.0523395
0.0351518
0.0218707
0.018633
0.0212099
0.03319
0.0381239
0.0373547
0.040288
0.0277414
0.00412424
-0.0413613
-0.0454308
-0.0478443
-0.0491198
-0.0495185
-0.0490479
-0.0474334
-0.0444786
-0.0398865
-0.0336939
-0.0258374
-0.0166318
-0.00620106
0.00522202
0.0169162
0.0299489
0.0428267
0.0529169
0.0572922
0.0509774
0.0383015
0.0272065
0.0240571
0.0260236
0.0367868
0.0417712
0.0421426
0.0460123
0.0346612
0.00502888
-0.0354109
-0.0391824
-0.041572
-0.042934
-0.043447
-0.0431023
-0.0416775
-0.0390125
-0.0348591
-0.0292573
-0.0221277
-0.0137524
-0.00421438
0.00625391
0.0170575
0.0287745
0.0400988
0.0491714
0.0531939
0.0491744
0.040141
0.0312263
0.0284425
0.0300753
0.0395544
0.0443662
0.0452946
0.0488323
0.0390103
0.00656015
-0.0301316
-0.0336204
-0.0359658
-0.0373908
-0.0380044
-0.0377806
-0.0365381
-0.0341446
-0.0303942
-0.0253253
-0.0188559
-0.0112341
-0.00252525
0.0070396
0.0169597
0.027489
0.0374817
0.0456618
0.0495051
0.0472367
0.0410488
0.0341926
0.0319032
0.0333822
0.041548
0.0460208
0.0469382
0.0492696
0.0410081
0.00852812
-0.0255248
-0.0287539
-0.0310435
-0.0325125
-0.0332125
-0.0331001
-0.0320257
-0.0298792
-0.0264909
-0.0218949
-0.0160149
-0.0090662
-0.00110954
0.00762715
0.0167164
0.0262054
0.035094
0.0425116
0.0462996
0.0453641
0.0413352
0.0363242
0.0345653
0.0360011
0.0428792
0.0469063
0.0474715
0.0482634
0.0412276
0.0105125
-0.0215973
-0.0245965
-0.0268259
-0.0283243
-0.0290959
-0.0290821
-0.028157
-0.0262276
-0.0231555
-0.0189688
-0.0136023
-0.0072403
5.45214e-05
0.00805908
0.0164052
0.0250115
0.0330159
0.0397984
0.0435991
0.0436802
0.0412455
0.0377994
0.0365563
0.0380047
0.043701
0.0472125
0.0473447
0.0466701
0.0403233
0.0121416
-0.0183626
-0.0211674
-0.0233388
-0.0248561
-0.0256852
-0.0257547
-0.024956
-0.0232095
-0.0204028
-0.0165579
-0.0116216
-0.00575236
0.000984043
0.00837031
0.0160852
0.0239721
0.0312925
0.0375717
0.0414073
0.0422559
0.0409666
0.0387729
0.0379987
0.0394687
0.0441661
0.0471381
0.0469046
0.04504
0.0388764
0.013255
-0.0158478
-0.0184981
-0.020619
-0.0221471
-0.02302
-0.0231557
-0.0224575
-0.0208558
-0.0182581
-0.0146822
-0.0100852
-0.00460534
0.00168927
0.00858682
0.0158016
0.0231359
0.0299539
0.0358595
0.0397273
0.0411341
0.0406374
0.039374
0.0389967
0.0404733
0.0444003
0.046878
0.0463747
0.0436579
0.0373497
0.0138958
-0.0140958
-0.0166373
-0.0187209
-0.0202551
-0.0211568
-0.0213391
-0.020712
-0.0192123
-0.0167616
-0.0133748
-0.00901678
-0.00381157
0.00217151
0.00872497
0.0155882
0.0225421
0.0290254
0.0346824
0.0385714
0.0403478
0.040357
0.039711
0.0396276
0.0410947
0.0444999
0.0465987
0.0459082
0.0426591
0.0360935
0.0142044
-0.0131623
-0.0156491
-0.0177127
-0.0192504
-0.020169
-0.0203775
-0.0197883
-0.0183434
-0.0159706
-0.0126846
-0.00845379
-0.00339476
0.00242239
0.00879318
0.0154703
0.0222249
0.0285373
0.0340671
0.0379683
0.0399328
0.0401965
0.0398594
0.0399402
0.041389
0.0445302
0.0464206
0.0456328
0.042124
0.0353669
0.0143226
-0.234433
-0.238781
-0.242634
-0.245994
-0.248867
-0.251277
-0.25328
-0.255047
-0.25672
-0.259369
-0.262263
-0.27314
-0.216869
-0.22139
-0.22551
-0.229262
-0.232695
-0.235933
-0.23907
-0.242529
-0.246094
-0.251415
-0.254995
-0.265826
-0.200351
-0.205162
-0.209719
-0.214082
-0.21829
-0.222474
-0.226533
-0.230819
-0.234382
-0.23895
-0.240576
-0.248831
-0.184955
-0.189959
-0.194775
-0.199439
-0.203903
-0.208235
-0.212148
-0.216032
-0.218948
-0.222969
-0.225144
-0.232597
-0.170251
-0.175228
-0.18001
-0.184611
-0.188955
-0.193143
-0.196964
-0.20094
-0.204403
-0.208948
-0.212255
-0.218653
-0.156154
-0.16099
-0.165652
-0.170172
-0.174516
-0.178825
-0.182959
-0.187284
-0.191214
-0.195631
-0.19913
-0.204517
-0.142814
-0.147512
-0.152089
-0.156586
-0.160979
-0.165349
-0.169554
-0.173769
-0.177631
-0.181709
-0.185447
-0.190466
-0.130281
-0.134822
-0.139274
-0.143655
-0.147935
-0.152147
-0.156214
-0.160259
-0.164157
-0.168224
-0.172253
-0.177041
-0.118478
-0.122812
-0.127069
-0.131256
-0.135363
-0.139422
-0.143415
-0.147411
-0.151356
-0.155355
-0.159384
-0.163916
-0.107367
-0.111472
-0.115517
-0.119514
-0.123464
-0.127385
-0.13127
-0.135133
-0.138955
-0.142781
-0.146706
-0.15105
-0.0969495
-0.100823
-0.104653
-0.108447
-0.112205
-0.115934
-0.11963
-0.123301
-0.126961
-0.130637
-0.134441
-0.138591
-0.0872008
-0.090835
-0.094434
-0.0980013
-0.10154
-0.105054
-0.10855
-0.112034
-0.115524
-0.119026
-0.122646
-0.126557
-0.0780884
-0.0814796
-0.0848416
-0.0881781
-0.0914935
-0.0947918
-0.0980792
-0.101356
-0.104639
-0.107929
-0.111328
-0.11498
-0.0695863
-0.0727385
-0.0758663
-0.0789728
-0.0820617
-0.0851353
-0.0881988
-0.0912524
-0.0943123
-0.0973801
-0.100549
-0.103928
-0.0616721
-0.0645912
-0.0674884
-0.0703661
-0.0732274
-0.0760744
-0.0789122
-0.0817413
-0.0845764
-0.0874163
-0.0903435
-0.0934435
-0.0570141
-0.0596875
-0.0623424
-0.0649816
-0.0676068
-0.0702224
-0.0728284
-0.0754374
-0.078047
-0.0807305
-0.0835532
-0.0499871
-0.0524463
-0.0548873
-0.0573122
-0.0597224
-0.0621215
-0.0645092
-0.0668967
-0.0692808
-0.0717256
-0.0742798
-0.0434898
-0.0457462
-0.047984
-0.0502048
-0.0524096
-0.0546015
-0.0567801
-0.0589549
-0.0611222
-0.0633373
-0.0656357
-0.0375036
-0.0395699
-0.0416167
-0.0436454
-0.0456568
-0.0476532
-0.0496341
-0.0516075
-0.0535695
-0.0555672
-0.0576258
-0.0320117
-0.0339015
-0.0357709
-0.037621
-0.0394521
-0.0412662
-0.0430627
-0.0448481
-0.0466186
-0.0484138
-0.0502509
-0.0269998
-0.0287273
-0.0304335
-0.0321191
-0.0337844
-0.0354306
-0.0370572
-0.0386695
-0.0402639
-0.041873
-0.0435081
-0.0224548
-0.0240349
-0.0255928
-0.0271289
-0.0286433
-0.030137
-0.0316093
-0.0330643
-0.0344989
-0.0359394
-0.0373928
-0.018369
-0.0198166
-0.0212413
-0.0226431
-0.024022
-0.0253787
-0.0267125
-0.0280266
-0.0293183
-0.0306083
-0.0319005
-0.0147371
-0.0160672
-0.0173738
-0.0186567
-0.0199159
-0.0211515
-0.0223632
-0.023553
-0.0247188
-0.0258768
-0.027028
-0.0115582
-0.012786
-0.0139898
-0.0151693
-0.0163243
-0.017455
-0.0185608
-0.0196433
-0.0207006
-0.0217448
-0.0227752
-0.0088377
-0.00997845
-0.0110949
-0.0121868
-0.0132538
-0.0142958
-0.0153123
-0.0163044
-0.0172703
-0.0182191
-0.0191487
-0.00658386
-0.00765312
-0.00869808
-0.00971836
-0.0107136
-0.0116835
-0.0126276
-0.0135467
-0.0144391
-0.0153113
-0.01616
-0.0048233
-0.0058367
-0.00682595
-0.00779063
-0.0087303
-0.00964472
-0.0105334
-0.0113966
-0.0122332
-0.0130473
-0.0138352
-0.00357739
-0.00455283
-0.00550453
-0.00643201
-0.0073348
-0.00821255
-0.00906473
-0.00989144
-0.0106915
-0.0114676
-0.0122154
-0.00289381
-0.00384593
-0.00477527
-0.00568141
-0.00656392
-0.00742247
-0.00825657
-0.00906625
-0.00985038
-0.010611
-0.0113434
-0.0535863
-0.0465931
-0.002046
)
;

boundaryField
{
    inlet
    {
        type            zeroGradient;
    }
    outlet
    {
        type            fixedValue;
        value           uniform 0;
    }
    cylinder
    {
        type            zeroGradient;
    }
    top
    {
        type            symmetryPlane;
    }
    bottom
    {
        type            symmetryPlane;
    }
    defaultFaces
    {
        type            empty;
    }
    procBoundary3to1
    {
        type            processor;
        value           nonuniform List<scalar> 
41
(
-0.42842
-0.430924
-0.432123
-0.433873
-0.43663
-0.440515
-0.445523
-0.451581
-0.458476
-0.466158
-0.47946
-0.483903
-0.470046
-0.426452
-0.37603
-0.350939
-0.362021
-0.375586
-0.345876
-0.273302
-0.202622
-0.154841
-0.134947
-0.132412
-0.156808
-0.172624
-0.152152
-0.111628
-0.0939871
-0.0740997
-0.0701144
-0.0622572
-0.0683092
-0.0817322
-0.0802832
-0.0459846
-0.0420005
-0.0533846
-0.0467222
-0.00223164
-0.0420005
)
;
    }
    procBoundary3to2
    {
        type            processor;
        value           nonuniform List<scalar> 
50
(
-0.36689
-0.36689
-0.369034
-0.369034
-0.374618
-0.374567
-0.374567
-0.372376
-0.372376
-0.367289
-0.353908
-0.353908
-0.337785
-0.337785
-0.313594
-0.313594
-0.283536
-0.256737
-0.256737
-0.22959
-0.211929
-0.195251
-0.179746
-0.165092
-0.151155
-0.137996
-0.12565
-0.114068
-0.1032
-0.0930285
-0.0835277
-0.0746645
-0.0664063
-0.0587283
-0.0543201
-0.0543201
-0.0475079
-0.0412134
-0.0354171
-0.0301011
-0.0252507
-0.0208524
-0.0168985
-0.0133836
-0.0103068
-0.00767309
-0.00549077
-0.00378625
-0.00257873
-0.00191938
)
;
    }
}


// ************************************************************************* //
