/*--------------------------------*- C++ -*----------------------------------*\
  =========                 |
  \\      /  F ield         | OpenFOAM: The Open Source CFD Toolbox
   \\    /   O peration     | Website:  https://openfoam.org
    \\  /    A nd           | Version:  7
     \\/     M anipulation  |
\*---------------------------------------------------------------------------*/
FoamFile
{
    version     2.0;
    format      ascii;
    class       volScalarField;
    location    "130";
    object      p;
}
// * * * * * * * * * * * * * * * * * * * * * * * * * * * * * * * * * * * * * //

dimensions      [0 2 -2 0 0 0 0];

internalField   nonuniform List<scalar> 
2125
(
-0.407183
-0.413215
-0.408854
-0.419723
-0.414285
-0.426776
-0.420215
-0.41405
-0.434431
-0.426699
-0.419653
-0.411488
-0.442724
-0.433775
-0.425836
-0.416594
-0.405304
-0.39072
-0.451664
-0.441457
-0.432606
-0.422183
-0.4093
-0.392677
-0.371281
-0.461229
-0.449734
-0.439936
-0.4282
-0.413478
-0.394502
-0.370669
-0.343055
-0.471357
-0.458558
-0.447761
-0.434544
-0.417691
-0.396048
-0.369623
-0.34
-0.308944
-0.279138
-0.48195
-0.467845
-0.455975
-0.441076
-0.421755
-0.397162
-0.368053
-0.336456
-0.304326
-0.273855
-0.49287
-0.477474
-0.464434
-0.447605
-0.425458
-0.397689
-0.365866
-0.332366
-0.299217
-0.268095
-0.503936
-0.48728
-0.472951
-0.453901
-0.428577
-0.397478
-0.362971
-0.327668
-0.293566
-0.261813
-0.514929
-0.497058
-0.481295
-0.459697
-0.430888
-0.396381
-0.359275
-0.32229
-0.287313
-0.25496
-0.525594
-0.506564
-0.489197
-0.464704
-0.432169
-0.394259
-0.354685
-0.316162
-0.280395
-0.247488
-0.535638
-0.515517
-0.49635
-0.468628
-0.43221
-0.390979
-0.349107
-0.309206
-0.272748
-0.239353
-0.544742
-0.523608
-0.502424
-0.471175
-0.430817
-0.386417
-0.342452
-0.301349
-0.26431
-0.230511
-0.552568
-0.530502
-0.507075
-0.472069
-0.42781
-0.380456
-0.334633
-0.292518
-0.25502
-0.220926
-0.558764
-0.535854
-0.509959
-0.471052
-0.423027
-0.37299
-0.32557
-0.282645
-0.244828
-0.21057
-0.562975
-0.539309
-0.510748
-0.467895
-0.416329
-0.363925
-0.315186
-0.271669
-0.233692
-0.199427
-0.564856
-0.540523
-0.50914
-0.462398
-0.407597
-0.353178
-0.303414
-0.259533
-0.22158
-0.187488
-0.564081
-0.539165
-0.504867
-0.454396
-0.396733
-0.340682
-0.290198
-0.246185
-0.208447
-0.174696
-0.56035
-0.534936
-0.497706
-0.443763
-0.383666
-0.326386
-0.275497
-0.231589
-0.194225
-0.160881
-0.5534
-0.527574
-0.487482
-0.430407
-0.368349
-0.310261
-0.25929
-0.215731
-0.17887
-0.1458
-0.543011
-0.516866
-0.474063
-0.414275
-0.35076
-0.29229
-0.241563
-0.198615
-0.162437
-0.129492
-0.529014
-0.502657
-0.457366
-0.395348
-0.3309
-0.272471
-0.222312
-0.180252
-0.144987
-0.112765
-0.511291
-0.484843
-0.437356
-0.373643
-0.308795
-0.250823
-0.201574
-0.160725
-0.126398
-0.0954808
-0.489784
-0.46338
-0.414046
-0.349215
-0.284498
-0.227402
-0.179466
-0.139997
-0.10681
-0.0774658
-0.464486
-0.438281
-0.387502
-0.322155
-0.258085
-0.202316
-0.155979
-0.118119
-0.086316
-0.0587035
-0.435448
-0.409621
-0.357868
-0.292568
-0.229643
-0.175622
-0.131184
-0.0951704
-0.0649805
-0.0392564
-0.402775
-0.377541
-0.32535
-0.260516
-0.199285
-0.14741
-0.105175
-0.0712399
-0.0428754
-0.0192244
-0.366632
-0.342254
-0.290052
-0.226103
-0.167179
-0.11781
-0.0780621
-0.0464224
-0.0200848
0.00128081
-0.327253
-0.304058
-0.251661
-0.189825
-0.1335
-0.0869669
-0.04997
-0.0208206
0.00330598
0.0221722
-0.284853
-0.263196
-0.210622
-0.15174
-0.0984465
-0.0550447
-0.0210352
0.00545866
0.0272101
0.0433593
-0.23962
-0.219228
-0.168167
-0.112099
-0.0622084
-0.0222142
0.00860593
0.0323143
0.0514851
0.0645065
-0.191926
-0.17309
-0.124165
-0.0711801
-0.0249922
0.0113544
0.0388361
0.0596603
0.0758494
0.0847975
-0.142329
-0.125014
-0.0787566
-0.0292508
0.0129747
0.0454865
0.0695464
0.0873921
0.0999649
0.103654
-0.091043
-0.0754881
-0.0322348
0.0134178
0.0514541
0.0799942
0.100577
0.115274
0.123732
0.122799
-0.0384858
-0.0249272
0.0150499
0.0565401
0.0902014
0.114668
0.131675
0.142908
0.147139
0.1471
0.0149008
0.0262706
0.0627307
0.0998191
0.128967
0.149281
0.162576
0.170164
0.171074
0.171442
0.0686733
0.0777001
0.110438
0.142951
0.167495
0.183604
0.193107
0.197109
0.19519
0.194449
0.122385
0.12895
0.157805
0.185628
0.205525
0.217407
0.223094
0.223619
0.219052
0.216456
0.175588
0.179607
0.204467
0.227546
0.242798
0.25047
0.252369
0.249515
0.242319
0.237459
0.227837
0.22926
0.250066
0.268403
0.279057
0.282576
0.280753
0.274619
0.264803
0.257492
0.278696
0.277507
0.294252
0.307902
0.314052
0.313514
0.308068
0.298755
0.286352
0.276517
0.327739
0.323955
0.336688
0.34576
0.34754
0.343079
0.334135
0.321764
0.306839
0.294473
0.374554
0.368228
0.377047
0.3817
0.379289
0.371071
0.358785
0.343498
0.326146
0.311291
0.418748
0.409966
0.415021
0.415461
0.409076
0.397302
0.381856
0.363818
0.344161
0.326894
0.45995
0.44883
0.450318
0.446797
0.436692
0.421594
0.403196
0.382593
0.360777
0.34121
0.497813
0.484502
0.482667
0.475477
0.46194
0.44378
0.422664
0.399704
0.375892
0.354168
0.532016
0.516693
0.511818
0.501291
0.484643
0.463706
0.440129
0.415037
0.389414
0.365703
0.56227
0.545138
0.537545
0.524047
0.504634
0.481233
0.455473
0.428493
0.401258
0.375756
0.588315
0.569602
0.559646
0.543573
0.52177
0.496238
0.46859
0.439979
0.411348
0.384277
0.609925
0.58988
0.577945
0.559722
0.535924
0.508613
0.479388
0.449418
0.419617
0.39122
0.626911
0.605801
0.592295
0.572368
0.546989
0.518266
0.487791
0.456742
0.42601
0.396548
0.639116
0.617224
0.602576
0.581409
0.554878
0.525125
0.493736
0.461898
0.430483
0.400238
0.646426
0.624043
0.608698
0.586768
0.559526
0.529134
0.497175
0.464845
0.433005
0.40228
0.588395
0.560889
0.530255
0.498077
0.465555
0.433552
0.402636
-0.197002
-0.206177
-0.214731
-0.222685
-0.230061
-0.236883
-0.243173
-0.248951
-0.179916
-0.188497
-0.196545
-0.204078
-0.211114
-0.217667
-0.223752
-0.229378
-0.163951
-0.171917
-0.179434
-0.186522
-0.193196
-0.199472
-0.205365
-0.210889
-0.149083
-0.156486
-0.163523
-0.170209
-0.176557
-0.182583
-0.188303
-0.193735
-0.135311
-0.142191
-0.148772
-0.155063
-0.161077
-0.166826
-0.172323
-0.177582
-0.122558
-0.128936
-0.135065
-0.140955
-0.146613
-0.152047
-0.157266
-0.162276
-0.11072
-0.116619
-0.122311
-0.127802
-0.133097
-0.138203
-0.143125
-0.147868
-0.0997315
-0.105179
-0.110452
-0.115557
-0.120498
-0.125281
-0.129911
-0.134395
-0.0895313
-0.0945565
-0.0994341
-0.104171
-0.108772
-0.113242
-0.117584
-0.121806
-0.0800848
-0.0847126
-0.0892157
-0.0936013
-0.0978735
-0.102036
-0.106091
-0.110043
-0.0713396
-0.0755949
-0.0797456
-0.0837978
-0.0877547
-0.091619
-0.0953935
-0.0990816
-0.063238
-0.0671471
-0.0709692
-0.0747085
-0.0783674
-0.0819485
-0.0854544
-0.0888881
-0.0557472
-0.0593349
-0.0628508
-0.066297
-0.0696751
-0.0729873
-0.0762359
-0.0794234
-0.0488221
-0.0521148
-0.0553468
-0.0585196
-0.0616344
-0.064693
-0.0676972
-0.070649
-0.042412
-0.0454401
-0.0484126
-0.0513327
-0.0542029
-0.0570246
-0.0597992
-0.0625283
-0.0365169
-0.0392964
-0.042027
-0.0447121
-0.0473539
-0.0499534
-0.0525118
-0.0550302
-0.05751
-0.0311006
-0.0336494
-0.0361567
-0.0386246
-0.0410543
-0.0434468
-0.0458028
-0.0481231
-0.0504089
-0.0261225
-0.0284615
-0.0307649
-0.0330336
-0.0352684
-0.0374697
-0.0396381
-0.0417742
-0.0438788
-0.0215643
-0.0237131
-0.0258306
-0.027917
-0.0299727
-0.0319979
-0.033993
-0.0359583
-0.0378943
-0.0174043
-0.0193809
-0.0213293
-0.0232495
-0.0251417
-0.0270057
-0.0288417
-0.0306498
-0.0324304
-0.0136241
-0.0154454
-0.017241
-0.0190107
-0.0207544
-0.0224718
-0.0241628
-0.0258273
-0.0274655
-0.0102104
-0.0118921
-0.0135503
-0.0151846
-0.0167944
-0.0183793
-0.019939
-0.0214734
-0.0229823
-0.00714989
-0.00870781
-0.0102436
-0.0117569
-0.013247
-0.0147133
-0.0161553
-0.0175728
-0.0189656
-0.00443118
-0.00588161
-0.0073108
-0.00871784
-0.0101023
-0.0114638
-0.0128018
-0.014116
-0.0154059
-0.00206186
-0.00341748
-0.0047526
-0.0060664
-0.00735843
-0.00862821
-0.00987519
-0.0110988
-0.0122987
-4.06852e-05
-0.0013147
-0.00256915
-0.00380322
-0.00501627
-0.00620767
-0.00737681
-0.0085231
-0.00964603
0.00162976
0.000423254
-0.00076436
-0.00193226
-0.00307973
-0.0042061
-0.00531072
-0.006393
-0.00745239
0.00292654
0.00177328
0.000638469
-0.000477067
-0.00157263
-0.00264754
-0.00370117
-0.00473291
-0.00574223
0.00384239
0.00272794
0.00163141
0.000553537
-0.000504977
-0.00154346
-0.00256127
-0.00355782
-0.00453256
0.00430398
0.00321539
0.00214465
0.00109241
5.92024e-05
-0.000954447
-0.00194803
-0.00292107
-0.00387309
0.115269
0.0960177
0.0778328
0.0598903
0.0410731
0.0220644
0.00344649
-0.0147407
-0.0325157
-0.0498068
-0.0665421
-0.0826997
-0.0982729
-0.113234
-0.127319
-0.140986
-0.153751
-0.16561
-0.176727
-0.187187
0.10696
0.088001
0.0690246
0.0521071
0.0350345
0.0176345
0.000645757
-0.0157719
-0.0317371
-0.0472592
-0.0622794
-0.0767626
-0.0906682
-0.103919
-0.116348
-0.128517
-0.140072
-0.150909
-0.161126
-0.170792
0.0975609
0.0795513
0.0608233
0.0450116
0.0298594
0.0143165
-0.00101578
-0.0157688
-0.0300389
-0.0439063
-0.0573281
-0.0702398
-0.0825763
-0.0942783
-0.105377
-0.116705
-0.127333
-0.137257
-0.14663
-0.155524
0.0876676
0.0710279
0.0533808
0.0388022
0.0253929
0.0116451
-0.00210916
-0.0153686
-0.0281291
-0.0405095
-0.0525166
-0.0641089
-0.0752818
-0.0860492
-0.0964065
-0.105912
-0.115365
-0.124478
-0.13311
-0.141298
0.0781908
0.0631524
0.0469747
0.0336558
0.0217393
0.00960331
-0.00267831
-0.0145858
-0.0260107
-0.0370669
-0.0478018
-0.0581869
-0.0681925
-0.0777948
-0.0869564
-0.0956889
-0.104305
-0.112639
-0.120572
-0.128114
0.0695684
0.0561162
0.0415305
0.0294451
0.0188053
0.00808068
-0.00284455
-0.013511
-0.0237413
-0.0336165
-0.0432063
-0.0525011
-0.0614728
-0.0701052
-0.0783996
-0.0863553
-0.0941794
-0.101749
-0.108993
-0.115918
0.0619041
0.0499095
0.0369175
0.0260364
0.0165157
0.00701988
-0.00267437
-0.0122016
-0.0213581
-0.0301853
-0.0387569
-0.0470822
-0.0551396
-0.0629135
-0.0704036
-0.0776212
-0.0847538
-0.0916425
-0.0982524
-0.104603
0.0551888
0.0445065
0.0330406
0.0233215
0.0148013
0.00637418
-0.00222032
-0.0107112
-0.0189012
-0.0267994
-0.0344709
-0.0419373
-0.0491866
-0.0562074
-0.0630003
-0.0695787
-0.0759782
-0.0822252
-0.0882693
-0.0941
0.0493864
0.0398858
0.0298353
0.0212115
0.0135936
0.0060981
-0.00152493
-0.00908271
-0.0164035
-0.0234755
-0.0303498
-0.0370534
-0.0435831
-0.0499318
-0.056096
-0.0620685
-0.0678041
-0.0734574
-0.0789864
-0.0843459
0.0444468
0.0360118
0.0272427
0.0196265
0.0128225
0.00614287
-0.000626895
-0.00735196
-0.0138927
-0.0202275
-0.0263926
-0.032413
-0.0382888
-0.0440122
-0.0495764
-0.0549774
-0.0602081
-0.0653606
-0.0704095
-0.0753203
0.0403053
0.0328291
0.0252
0.018493
0.0124206
0.00645874
0.000437386
-0.00554912
-0.0113926
-0.0170689
-0.0226024
-0.0280133
-0.0333041
-0.0384695
-0.0435047
-0.0484089
-0.0531803
-0.0578777
-0.0624816
-0.0669707
0.0368877
0.0302703
0.0236422
0.017744
0.0123264
0.00699832
0.0016337
-0.0037004
-0.00892301
-0.0140123
-0.0189836
-0.0238524
-0.0286219
-0.0332889
-0.0378495
-0.0423033
-0.0466514
-0.0509359
-0.0551348
-0.0592356
0.0341163
0.0282639
0.0225053
0.0173192
0.0124855
0.00771814
0.00293026
-0.00182907
-0.00650098
-0.0110677
-0.0155386
-0.0199246
-0.0242287
-0.0284488
-0.0325823
-0.0366291
-0.0405914
-0.0445049
-0.0483379
-0.0520836
0.0319137
0.0267395
0.0217296
0.017165
0.01285
0.00857927
0.00429822
4.42772e-05
-0.00414076
-0.00824369
-0.01227
-0.016227
-0.0201164
-0.0239362
-0.0276839
-0.0313589
-0.0349666
-0.038535
-0.0420374
-0.045465
0.0302052
0.0256292
0.0212599
0.0172343
0.0133783
0.00954757
0.00571227
0.00190232
-0.00185311
-0.00554501
-0.00917684
-0.0127533
-0.0162762
-0.0197448
-0.0231587
-0.0265159
-0.0298103
-0.0330148
-0.0361888
-0.0393263
0.0289208
0.0248702
0.0210464
0.0174857
0.0140345
0.0105933
0.00715024
0.00373035
0.000353772
-0.00297373
-0.00625422
-0.0094902
-0.012682
-0.0158281
-0.0189265
-0.0219748
-0.02497
-0.0279071
-0.0308139
-0.0336876
0.0279956
0.0244049
0.0210438
0.0178827
0.0147872
0.0116902
0.00859233
0.005515
0.00247214
-0.000532821
-0.00350111
-0.00643376
-0.0093303
-0.0121893
-0.0150094
-0.017789
-0.0205265
-0.0232185
-0.0258804
-0.0285099
0.0273707
0.024181
0.0212113
0.0183924
0.0156083
0.0128149
0.0100205
0.00724364
0.00449412
0.00177377
-0.000918179
-0.00358184
-0.00621627
-0.00882005
-0.0113918
-0.0139301
-0.0164335
-0.0189002
-0.0213389
-0.0237476
0.0269928
0.0241515
0.0215122
0.0189857
0.0164733
0.0139467
0.0114185
0.00890479
0.00641263
0.00394284
0.00149502
-0.000930394
-0.00333213
-0.0057087
-0.00805871
-0.0103808
-0.0126739
-0.0149364
-0.0171738
-0.019384
0.0268141
0.0242745
0.0219135
0.0196361
0.0173598
0.0150669
0.0127717
0.010488
0.00822112
0.00597143
0.00373873
0.00152384
-0.000671802
-0.00284665
-0.00499932
-0.00712853
-0.00923311
-0.0113119
-0.0133681
-0.0153996
0.026792
0.0245124
0.0223855
0.0203199
0.0182478
0.0161587
0.0140666
0.0119835
0.00991329
0.00785631
0.00581257
0.0037831
0.00176942
-0.000226904
-0.00220447
-0.00416199
-0.00609829
-0.00801232
-0.0099062
-0.0117774
0.0268888
0.0248321
0.0229015
0.0210152
0.019119
0.0172067
0.0152909
0.0133818
0.0114827
0.00959382
0.0077154
0.00584859
0.00399493
0.00215597
0.000333075
-0.00147251
-0.00325966
-0.00502738
-0.00677708
-0.00850526
0.0270709
0.0252038
0.0234371
0.0217021
0.0199562
0.018196
0.0164324
0.0146735
0.0129223
0.0111791
0.00944441
0.00771949
0.00600589
0.0043052
0.00261889
0.000948351
-0.0007054
-0.00234205
-0.00396662
-0.00556968
0.0273082
0.0256009
0.0239702
0.0223616
0.0207432
0.0191127
0.0174788
0.0158484
0.0142237
0.0126055
0.0109943
0.00939138
0.00779807
0.00621581
0.00464591
0.00308956
0.00154828
2.42269e-05
-0.00147597
-0.00296154
0.0275743
0.0259997
0.0244803
0.0229763
0.0214644
0.0199429
0.0184186
0.0168967
0.0153794
0.0138676
0.012362
0.0108639
0.00937456
0.00789552
0.00642812
0.00497368
0.0035336
0.00210936
0.000703347
-0.00068745
0.0278451
0.0263781
0.0249481
0.0235288
0.0221039
0.0206722
0.0192383
0.0178064
0.0163784
0.0149552
0.0135379
0.0121275
0.0107254
0.009333
0.0079515
0.00658218
0.00522631
0.00388519
0.00256062
0.00125164
0.0280986
0.0267154
0.0253545
0.0240013
0.0226451
0.0212847
0.0199231
0.0185633
0.0172071
0.0158557
0.01451
0.0131712
0.0118404
0.0105191
0.00920832
0.00790934
0.00662333
0.00535145
0.00409502
0.00285411
0.0283144
0.0269921
0.025681
0.0243759
0.0230705
0.0217632
0.0204557
0.0191503
0.0178486
0.0165518
0.0152609
0.0139771
0.0127014
0.0114351
0.0101793
0.00893517
0.00770381
0.00648637
0.00528414
0.00409723
0.0284737
0.0271886
0.0259081
0.0246336
0.0233614
0.0220898
0.0208193
0.0195516
0.0182882
0.0170303
0.0157788
0.0145348
0.0132992
0.0120733
0.0108579
0.0096541
0.00846291
0.00728523
0.00612197
0.00497402
0.028562
0.0272898
0.0260176
0.0247509
0.0234886
0.022229
0.0209722
0.0197196
0.0184726
0.0172323
0.0159997
0.0147758
0.0135616
0.0123579
0.0111658
0.00998612
0.0088198
0.00766776
0.00653099
0.00540952
0.130077
0.13293
0.136532
0.14313
0.149877
0.159064
0.16778
0.178139
0.186612
0.195309
0.199306
0.2014
0.193766
0.18114
0.14743
0.129595
0.132338
0.135768
0.142021
0.148354
0.156872
0.164767
0.173935
0.180979
0.187724
0.189583
0.188713
0.178582
0.161873
0.131843
0.129046
0.131663
0.134891
0.140758
0.14662
0.154407
0.161407
0.169327
0.174914
0.179752
0.179667
0.176316
0.164712
0.146594
0.120135
0.128425
0.1309
0.133913
0.139357
0.144721
0.151726
0.157807
0.16443
0.168593
0.171544
0.16974
0.164244
0.151785
0.133092
0.1085
0.127728
0.130045
0.132833
0.137823
0.142669
0.148851
0.154009
0.159312
0.162118
0.163255
0.15996
0.152667
0.139618
0.120684
0.0972251
0.126951
0.129094
0.131646
0.136151
0.140463
0.145788
0.150026
0.154007
0.155531
0.154977
0.150397
0.141673
0.128186
0.109353
0.0869694
0.126088
0.128041
0.130348
0.134339
0.138104
0.142543
0.145871
0.148551
0.148872
0.146786
0.141102
0.131302
0.117538
0.0991272
0.0779155
0.125137
0.126881
0.128937
0.132387
0.135593
0.139132
0.141563
0.142987
0.142187
0.138755
0.132133
0.121585
0.107725
0.0899639
0.0699886
0.124093
0.125612
0.127409
0.130298
0.132937
0.135573
0.137127
0.137364
0.135528
0.130951
0.123551
0.112542
0.0987623
0.0817879
0.0630738
0.122955
0.124231
0.125765
0.128077
0.130142
0.131889
0.13259
0.131731
0.128947
0.123427
0.11541
0.104179
0.0906374
0.0745288
0.0570797
0.121719
0.122739
0.124004
0.125734
0.12722
0.128106
0.127982
0.126134
0.122495
0.116229
0.107751
0.096491
0.0833226
0.0681259
0.0519289
0.120385
0.121138
0.122126
0.123279
0.124183
0.124252
0.123336
0.120617
0.116225
0.10939
0.100606
0.0894682
0.0767812
0.0625208
0.0475471
0.118952
0.119433
0.120135
0.120727
0.121047
0.120355
0.11869
0.115218
0.110182
0.102938
0.0939924
0.0830946
0.07097
0.0576531
0.0438598
0.117421
0.11763
0.118037
0.118091
0.117833
0.116444
0.114082
0.109973
0.104408
0.0968933
0.0879149
0.0773493
0.0658421
0.0534597
0.0407938
0.115796
0.115739
0.11584
0.115389
0.114564
0.112545
0.109551
0.104915
0.0989362
0.0912697
0.0823696
0.0722057
0.0613478
0.0498771
0.0382779
0.114081
0.113772
0.113558
0.112639
0.111267
0.108689
0.105134
0.100072
0.0937914
0.0860759
0.0773444
0.0676318
0.0574362
0.046843
0.0362442
0.112285
0.111743
0.111206
0.109858
0.107972
0.104901
0.100865
0.0954718
0.0889917
0.0813136
0.0728214
0.0635917
0.0540561
0.0442971
0.0346289
0.110418
0.109666
0.108806
0.107068
0.104709
0.101211
0.0967761
0.0911363
0.0845477
0.0769785
0.0687778
0.0600474
0.051157
0.0421824
0.033373
0.108495
0.107558
0.106381
0.104291
0.101508
0.0976469
0.0928926
0.0870839
0.0804649
0.073061
0.0651878
0.0569594
0.0486895
0.0404451
0.0324223
0.106534
0.10544
0.103959
0.101552
0.0983995
0.0942359
0.0892377
0.0833289
0.0767435
0.0695473
0.0620231
0.0542881
0.0466065
0.0390352
0.0317274
0.104558
0.103331
0.101569
0.0988793
0.0954123
0.0910048
0.0858309
0.0798811
0.0733802
0.0664207
0.0592542
0.0519949
0.0448633
0.0379068
0.0312436
0.102593
0.101257
0.0992421
0.0963031
0.0925754
0.0879785
0.0826888
0.0767471
0.0703686
0.0636627
0.0568514
0.0500425
0.0434183
0.0370177
0.0309309
0.100671
0.0992454
0.0970105
0.093856
0.0899176
0.0851808
0.0798256
0.0739306
0.0677006
0.0612539
0.054786
0.0483958
0.0422334
0.0363298
0.0307533
0.0988263
0.0973279
0.094908
0.0915717
0.087468
0.0826343
0.0772545
0.0714339
0.065367
0.0591753
0.0530306
0.0470225
0.0412736
0.0358086
0.0306785
0.0970971
0.0955407
0.0929704
0.0894856
0.0852563
0.0803615
0.0749877
0.069259
0.0633593
0.0574093
0.0515607
0.0458935
0.0405081
0.0354237
0.0306781
0.0955262
0.0939241
0.091236
0.0876347
0.0833136
0.0783857
0.0730387
0.0674089
0.0616705
0.0559411
0.0503549
0.0449837
0.0399097
0.0351481
0.0307263
0.09416
0.092523
0.0897464
0.0860579
0.0816732
0.076732
0.071423
0.0658897
0.0602972
0.0547595
0.0493963
0.0442723
0.0394556
0.0349583
0.0308004
0.0930493
0.0913867
0.0885469
0.0847973
0.0803714
0.0754296
0.0701607
0.0647121
0.0592416
0.0538592
0.0486735
0.0437437
0.0391275
0.0348348
0.0308801
0.092249
0.0905692
0.0876881
0.0838994
0.0794497
0.0745131
0.0692781
0.0638942
0.0585132
0.0532425
0.0481825
0.0433892
0.0389129
0.0347625
0.0309482
0.091818
0.0901297
0.0872267
0.0834185
0.0789572
0.0740256
0.0688108
0.0634636
0.0581318
0.0529214
0.0479285
0.0432074
0.0388049
0.0347297
0.0309904
0.131614
0.134871
0.138612
0.146388
0.154126
0.165819
0.177866
0.193754
0.21063
0.231236
0.253325
0.279242
0.306726
0.337753
0.369857
0.131779
0.135043
0.138798
0.146587
0.154347
0.166059
0.178131
0.19403
0.210919
0.231515
0.25346
0.279438
0.306956
0.337964
0.369939
0.131918
0.135185
0.138952
0.146746
0.154521
0.166237
0.178314
0.194204
0.211031
0.23162
0.253935
0.279437
0.306558
0.337153
0.368513
0.13203
0.135297
0.139075
0.146866
0.15465
0.166357
0.17842
0.194274
0.211112
0.231665
0.253435
0.278753
0.305429
0.335452
0.365899
0.132116
0.13538
0.139167
0.146947
0.154733
0.166418
0.178456
0.194135
0.210984
0.231261
0.252725
0.277667
0.303668
0.332879
0.362058
0.132176
0.135433
0.139228
0.146989
0.154772
0.166426
0.17839
0.194325
0.210631
0.230681
0.25172
0.276139
0.301267
0.329432
0.356985
0.132211
0.135456
0.139259
0.146993
0.154767
0.166388
0.178333
0.193949
0.210124
0.229892
0.25039
0.274166
0.298227
0.325121
0.350699
0.132219
0.135451
0.139259
0.146961
0.15472
0.166286
0.178154
0.193566
0.209478
0.228886
0.248747
0.271759
0.29456
0.319964
0.343221
0.132202
0.135418
0.13923
0.146892
0.15463
0.166104
0.177869
0.193086
0.208679
0.227668
0.246796
0.268928
0.290279
0.313979
0.334577
0.13216
0.135356
0.139171
0.146788
0.154506
0.165829
0.177496
0.192498
0.207732
0.226243
0.244546
0.265682
0.285395
0.307186
0.324797
0.132092
0.135268
0.139083
0.14665
0.154337
0.165706
0.177043
0.191807
0.206643
0.224614
0.242003
0.262031
0.279924
0.299611
0.313917
0.132
0.135153
0.138967
0.146485
0.154102
0.165305
0.17652
0.191018
0.205415
0.222786
0.239177
0.257986
0.27388
0.291279
0.301976
0.131884
0.135013
0.138823
0.146291
0.153962
0.164895
0.175935
0.190133
0.204053
0.220764
0.236078
0.253557
0.267282
0.28222
0.289018
0.131744
0.134848
0.138653
0.146054
0.153629
0.164438
0.175284
0.189153
0.202563
0.218553
0.232715
0.248753
0.26015
0.272464
0.275086
0.131581
0.134658
0.138455
0.145752
0.153285
0.163936
0.174569
0.188083
0.200948
0.216158
0.229101
0.243585
0.252506
0.262043
0.260222
0.131395
0.134447
0.138227
0.145514
0.1529
0.163385
0.173792
0.186923
0.199212
0.213585
0.225244
0.238061
0.244376
0.250988
0.244464
0.131186
0.134214
0.13801
0.145168
0.152475
0.162787
0.17295
0.185674
0.197354
0.210832
0.221151
0.232188
0.235793
0.239328
0.227841
0.130955
0.133958
0.137743
0.144794
0.152026
0.162154
0.172063
0.184359
0.195402
0.207934
0.216857
0.225999
0.226806
0.227095
0.21038
0.130702
0.133687
0.137443
0.144419
0.151572
0.161522
0.171174
0.18304
0.193421
0.204965
0.212414
0.219532
0.217414
0.214236
0.191943
0.130443
0.133385
0.137096
0.143967
0.151005
0.160729
0.170068
0.181426
0.191066
0.201513
0.207409
0.212351
0.207371
0.200526
0.172093
)
;

boundaryField
{
    inlet
    {
        type            zeroGradient;
    }
    outlet
    {
        type            fixedValue;
        value           nonuniform 0();
    }
    cylinder
    {
        type            zeroGradient;
    }
    top
    {
        type            symmetryPlane;
    }
    bottom
    {
        type            symmetryPlane;
    }
    defaultFaces
    {
        type            empty;
    }
    procBoundary2to0
    {
        type            processor;
        value           nonuniform List<scalar> 
26
(
0.64876
0.626188
0.610599
0.610599
0.586262
0.558944
0.528469
0.496425
0.464015
0.432102
0.401303
0.131423
0.134668
0.138395
0.146147
0.153855
0.165512
0.177508
0.193349
0.210149
0.230698
0.252736
0.278522
0.3059
0.336839
0.368809
)
;
    }
    procBoundary2to3
    {
        type            processor;
        value           nonuniform List<scalar> 
50
(
-0.401562
-0.403856
-0.403856
-0.404412
-0.40899
-0.40899
-0.406884
-0.406884
-0.40159
-0.40159
-0.388757
-0.371548
-0.371548
-0.345672
-0.345672
-0.313115
-0.313115
-0.283986
-0.254234
-0.254234
-0.234558
-0.216063
-0.198898
-0.182609
-0.167075
-0.152434
-0.138738
-0.125909
-0.113894
-0.102686
-0.0922526
-0.082552
-0.0735505
-0.0652137
-0.0652137
-0.0599526
-0.0526613
-0.0459527
-0.0398017
-0.0341837
-0.0290774
-0.0244657
-0.0203334
-0.0166712
-0.0134743
-0.0107452
-0.00848841
-0.00672861
-0.00548497
-0.00480367
)
;
    }
}


// ************************************************************************* //
