/*--------------------------------*- C++ -*----------------------------------*\
  =========                 |
  \\      /  F ield         | OpenFOAM: The Open Source CFD Toolbox
   \\    /   O peration     | Website:  https://openfoam.org
    \\  /    A nd           | Version:  7
     \\/     M anipulation  |
\*---------------------------------------------------------------------------*/
FoamFile
{
    version     2.0;
    format      ascii;
    class       surfaceScalarField;
    location    "25";
    object      phi;
}
// * * * * * * * * * * * * * * * * * * * * * * * * * * * * * * * * * * * * * //

dimensions      [0 3 -1 0 0 0 0];

internalField   nonuniform List<scalar> 
4137
(
-0.000438854
0.00013051
-0.000569364
-0.00225898
0.00014106
-0.000710423
-0.00269438
0.000151397
-0.00086182
0.000615033
-0.00315801
-0.00622048
0.000161484
-0.0010233
0.000652114
-0.00364864
0.00150774
-0.00707611
-0.011381
0.000171271
-0.00119457
0.000687462
-0.00416483
0.00158129
-0.00796994
0.00288381
-0.0126835
0.00461906
-0.0183651
-0.0250489
0.000180688
-0.00137526
0.000720785
-0.00470493
0.00164921
-0.00889836
0.00299137
-0.0140257
0.00476317
-0.0201369
0.00696376
-0.0272495
-0.0353387
0.00018965
-0.00156491
0.000751736
-0.00526702
0.00171071
-0.00985734
0.00308562
-0.0154006
0.00488363
-0.0219349
0.0070927
-0.0294585
0.00967435
-0.0379204
-0.047211
0.000198051
-0.00176296
0.000779916
-0.00584888
0.00176492
-0.0108423
0.00316508
-0.0168008
0.00497826
-0.0237481
0.00718113
-0.0316614
0.00972303
-0.0404623
0.0125229
-0.0500109
0.015471
-0.0601122
-0.0705455
0.000205772
-0.00196874
0.000804891
-0.006448
0.00181092
-0.0118484
0.00322822
-0.0182181
0.00504494
-0.0255648
0.00722644
-0.0338429
0.00971063
-0.0429465
0.0124074
-0.0527077
0.0152036
-0.0629083
-0.0733109
0.017969
0.000212684
-0.00218142
0.000826203
-0.00706152
0.00184777
-0.0128699
0.00327355
-0.0196438
0.00508165
-0.0273729
0.00722636
-0.0359876
0.00963507
-0.0453552
0.0122103
-0.055283
0.0148375
-0.0655355
-0.0758671
0.0173937
0.000218651
-0.00240007
0.000843389
-0.00768626
0.00187454
-0.0139011
0.00329963
-0.0210689
0.00508662
-0.0291599
0.00717908
-0.0380801
0.00949505
-0.0476712
0.0119315
-0.0577194
0.0143745
-0.0679785
-0.0782026
0.01671
0.000223539
-0.00262361
0.000855999
-0.00831872
0.00189036
-0.0149355
0.00330522
-0.0224838
0.00505839
-0.0309131
0.00708339
-0.0401051
0.00929019
-0.049878
0.0115721
-0.0600013
0.0138178
-0.0702242
-0.0803085
0.0159237
0.000227217
-0.00285083
0.00086361
-0.00895511
0.00189447
-0.0159663
0.00328925
-0.0238786
0.00499591
-0.0326197
0.00693869
-0.0420478
0.00902101
-0.0519603
0.0111344
-0.0621147
0.0131722
-0.072262
-0.0821782
0.0150419
0.000229561
-0.00308039
0.000865838
-0.00959139
0.00188618
-0.0169867
0.00325092
-0.0252433
0.00489854
-0.0342673
0.00674506
-0.0438944
0.00868893
-0.0539042
0.0106218
-0.0640476
0.0124433
-0.0740835
-0.0838079
0.0140729
0.000230459
-0.00331085
0.000862356
-0.0102233
0.00186498
-0.0179893
0.00318969
-0.026568
0.00476611
-0.0358438
0.00650323
-0.0456315
0.00829619
-0.0556971
0.0100386
-0.06579
0.0116377
-0.0756825
-0.0851957
0.0130255
0.000229814
-0.00354066
0.000852897
-0.0108464
0.0018305
-0.0189669
0.00310532
-0.0278428
0.00459891
-0.0373374
0.00621455
-0.0472471
0.00784577
-0.0573283
0.00938982
-0.0673341
0.0107626
-0.0770552
-0.086342
0.0119088
0.000227546
-0.00376821
0.000837263
-0.0114561
0.00178252
-0.0199121
0.00299784
-0.0290582
0.00439767
-0.0387372
0.00588095
-0.0487304
0.00734127
-0.0587887
0.00868099
-0.0686738
0.00982559
-0.0781998
-0.0872486
0.0107322
0.000223593
-0.0039918
0.000815336
-0.0120478
0.00172102
-0.0208178
0.00286762
-0.0302048
0.00416354
-0.0400331
0.00550488
-0.0500717
0.00678681
-0.0600706
0.00791811
-0.0698051
0.00883439
-0.0791161
-0.087919
0.00950481
0.000217913
-0.00420971
0.00078707
-0.012617
0.00164612
-0.0216769
0.00271527
-0.0312739
0.00389809
-0.0412159
0.00508924
-0.0512629
0.00618694
-0.0611683
0.00710739
-0.0707256
0.00779669
-0.0798054
-0.0883577
0.00823539
0.000210487
-0.0044202
0.000752505
-0.013159
0.00155813
-0.0224825
0.00254171
-0.0322575
0.00360321
-0.0422774
0.00463728
-0.0522969
0.00554646
-0.0620775
0.00625517
-0.0714343
0.00672003
-0.0802703
-0.0885701
0.00693237
0.000201317
-0.00462152
0.000711756
-0.0136694
0.00145751
-0.0232282
0.00234809
-0.0331481
0.00328111
-0.0432104
0.00415257
-0.0531684
0.0048704
-0.0627953
0.00536779
-0.0719317
0.00561174
-0.0805142
-0.0885619
0.00560359
0.000190427
-0.00481194
0.000665017
-0.014144
0.00134488
-0.0239081
0.00213578
-0.033939
0.00293425
-0.0440089
0.00363889
-0.053873
0.0041639
-0.0633203
0.00445149
-0.0722192
0.0044788
-0.0805415
-0.0883394
0.0042563
0.000177863
-0.00498981
0.000612555
-0.0145787
0.001221
-0.0245166
0.00190634
-0.0346243
0.00256532
-0.0446679
0.0031002
-0.0544079
0.0034321
-0.0636522
0.00351234
-0.0722995
0.00332778
-0.080357
-0.0879089
0.00289722
0.000163693
-0.0051535
0.000554704
-0.0149697
0.00108674
-0.0250486
0.0016615
-0.0351991
0.00217714
-0.0451835
0.00254055
-0.0547713
0.00268022
-0.0637919
0.00255629
-0.0721756
0.00216441
-0.0799651
-0.0872771
0.00153265
0.000148002
-0.0053015
0.000491859
-0.0153136
0.000943091
-0.0254998
0.00140312
-0.0356591
0.00177267
-0.0455531
0.00196407
-0.0549627
0.00191345
-0.0637413
0.00158957
-0.0718517
0.000994152
-0.0793697
-0.0864312
0.000148276
0.000130896
-0.0054324
0.000424469
-0.0156072
0.000791112
-0.0258665
0.00113316
-0.0360012
0.00135491
-0.0457748
0.00137484
-0.0549827
0.00113676
-0.0635032
0.000617845
-0.0713328
-0.000167849
-0.078584
-0.0854068
-0.00119228
0.000112495
-0.00554489
0.000353022
-0.0158477
0.000631938
-0.0261454
0.000853607
-0.0362228
0.000926901
-0.0458481
0.000776903
-0.0548327
0.000354979
-0.0630813
-0.000354853
-0.0706229
-0.00133598
-0.0776029
-0.0842028
-0.00254004
9.2933e-05
-0.00563783
0.000278045
-0.0160328
0.000466739
-0.0263341
0.000566505
-0.0363226
0.000491637
-0.0457733
0.000174263
-0.0545153
-0.000427132
-0.0624799
-0.00132222
-0.0697278
-0.00248878
-0.0764363
-0.0828174
-0.00387416
7.23574e-05
-0.00571018
0.000200084
-0.0161605
0.000296709
-0.0264307
0.000273867
-0.0362997
5.2172e-05
-0.0455516
-0.000429333
-0.0540338
-0.00120494
-0.0617043
-0.00227937
-0.0686534
-0.00362666
-0.075089
-0.0812544
-0.00518968
5.09288e-05
-0.00576111
0.000119697
-0.0162293
0.000123042
-0.026434
-2.21592e-05
-0.0361545
-0.000389006
-0.0451847
-0.00103019
-0.0533926
-0.00197403
-0.0607604
-0.00322137
-0.0674061
-0.00474478
-0.0735656
-0.0795164
-0.00648273
2.88613e-05
-0.00578997
3.74315e-05
-0.0162379
-5.31422e-05
-0.0263435
-0.000320262
-0.0358874
-0.000828981
-0.044676
-0.00162489
-0.0525967
-0.00273018
-0.0596551
-0.00414328
-0.065993
-0.00583808
-0.0718708
-0.0776049
-0.00774956
5.85475e-06
-0.00579583
-4.61978e-05
-0.0161858
-0.00023074
-0.0261589
-0.000618087
-0.0355001
-0.00126538
-0.0440287
-0.00221034
-0.0516517
-0.00346949
-0.058396
-0.00504012
-0.0644223
-0.00690115
-0.0700098
-0.0755192
-0.00898683
-1.72917e-05
-0.00577854
-0.000130608
-0.0160725
-0.000408635
-0.0258809
-0.000914214
-0.0349945
-0.00169606
-0.0432469
-0.00278386
-0.0505639
-0.0041885
-0.0569913
-0.00590709
-0.0627038
-0.00792814
-0.0679887
-0.0732559
-0.0101915
-4.06056e-05
-0.00573793
-0.000215284
-0.0158978
-0.000585863
-0.0255103
-0.00120717
-0.0343732
-0.00211915
-0.0423349
-0.00334323
-0.0493399
-0.00488433
-0.0554502
-0.00673966
-0.0608484
-0.00891198
-0.0658164
-0.0708106
-0.0113572
-6.41271e-05
-0.0056738
-0.00029977
-0.0156622
-0.000761507
-0.0250486
-0.00149564
-0.0336391
-0.0025331
-0.0412974
-0.0038868
-0.0479862
-0.00555499
-0.0537821
-0.00753347
-0.0588699
-0.00984004
-0.0635098
-0.0681725
-0.0124782
-8.76347e-05
-0.00558617
-0.000383592
-0.0153662
-0.000934708
-0.0244975
-0.00177844
-0.0327953
-0.00293663
-0.0401392
-0.00441366
-0.0465091
-0.00620017
-0.0519955
-0.00828596
-0.0567841
-0.010698
-0.0610978
-0.065302
-0.0135685
-0.000110978
-0.00547519
-0.000466295
-0.0150109
-0.00110465
-0.0238591
-0.00205449
-0.0318455
-0.00332869
-0.038865
-0.00492355
-0.0449143
-0.0068226
-0.0500965
-0.00900358
-0.0546032
-0.011427
-0.0586744
-0.0625983
-0.0141307
-0.000134016
-0.00534118
-0.00054744
-0.0145975
-0.00127053
-0.023136
-0.00232268
-0.0307933
-0.00370812
-0.0374796
-0.0054159
-0.0432065
-0.00742417
-0.0480882
-0.00970667
-0.0523207
-0.0122349
-0.0561462
-0.059803
-0.0150302
-0.000156613
-0.00518456
-0.0006266
-0.0141275
-0.00143159
-0.022331
-0.00258192
-0.029643
-0.00407349
-0.035988
-0.00588873
-0.0413912
-0.00800143
-0.0459755
-0.0103834
-0.0499387
-0.0130109
-0.0535188
-0.05693
-0.0158838
-0.000178637
-0.00500592
-0.000703365
-0.0136028
-0.00158707
-0.0214473
-0.00283114
-0.0283989
-0.0044234
-0.0343958
-0.00634006
-0.0394746
-0.00855083
-0.0437647
-0.0110256
-0.0474639
-0.0137404
-0.050804
-0.0539837
-0.0166867
-0.000199965
-0.00480596
-0.000777356
-0.0130254
-0.0017363
-0.0204884
-0.00306939
-0.0270659
-0.00475667
-0.0327085
-0.00676842
-0.0374628
-0.00907057
-0.0414626
-0.0116309
-0.0449036
-0.0144247
-0.0480101
-0.0509696
-0.0174388
-0.000220479
-0.00458548
-0.000848222
-0.0123976
-0.00187868
-0.0194579
-0.00329584
-0.0256487
-0.00507232
-0.030932
-0.00717283
-0.0353623
-0.00955977
-0.0390757
-0.0121991
-0.0422643
-0.0150654
-0.0451438
-0.0478918
-0.0181432
-0.000240075
-0.00434541
-0.000915648
-0.0117221
-0.00201365
-0.0183599
-0.00350979
-0.0241526
-0.00536959
-0.0290722
-0.00755259
-0.0331793
-0.010018
-0.0366102
-0.0127303
-0.0395519
-0.0156638
-0.0422104
-0.0447534
-0.0188022
-0.000258657
-0.00408675
-0.000979351
-0.0110014
-0.00214076
-0.0171985
-0.00371063
-0.0225827
-0.00564787
-0.027135
-0.0079072
-0.03092
-0.0104451
-0.0340724
-0.0132248
-0.0367721
-0.0162207
-0.0392146
-0.0415571
-0.019417
-0.000276136
-0.00381061
-0.00103908
-0.0102384
-0.00225957
-0.015978
-0.00389786
-0.0209444
-0.00590662
-0.0251262
-0.00823626
-0.0285903
-0.0108408
-0.0314679
-0.0136828
-0.0339302
-0.0167368
-0.0361606
-0.0383058
-0.019988
-0.000292434
-0.00351818
-0.0010946
-0.00943626
-0.00236973
-0.0147029
-0.00407101
-0.0192431
-0.0061454
-0.0230518
-0.0085394
-0.0261964
-0.0112049
-0.0288023
-0.0141041
-0.031031
-0.0172121
-0.0330526
-0.0350026
-0.0205153
-0.00030748
-0.0032107
-0.00114572
-0.00859803
-0.0024709
-0.0133777
-0.00422969
-0.0174843
-0.00636383
-0.0209177
-0.00881632
-0.0237439
-0.0115373
-0.0260813
-0.0144887
-0.0280796
-0.0176465
-0.0298948
-0.0316506
-0.0209985
-0.000321209
-0.00288949
-0.00119224
-0.00772699
-0.00256279
-0.0120071
-0.00437354
-0.0156736
-0.00656153
-0.0187297
-0.00906668
-0.0212387
-0.0118377
-0.0233103
-0.0148364
-0.0250809
-0.0180397
-0.0266916
-0.0282536
-0.0214367
-0.000333563
-0.00255593
-0.00123402
-0.00682654
-0.00264514
-0.010596
-0.00450224
-0.0138165
-0.00673818
-0.0164938
-0.00929018
-0.0186867
-0.0121058
-0.0204947
-0.0151469
-0.0220398
-0.0183911
-0.0234474
-0.0248156
-0.0218291
-0.000344489
-0.00221144
-0.00127089
-0.00590013
-0.00271772
-0.00914919
-0.00461551
-0.0119187
-0.00689347
-0.0142158
-0.00948652
-0.0160937
-0.0123413
-0.0176399
-0.0154196
-0.0189614
-0.0187002
-0.0201669
-0.0213409
-0.0221749
-0.000353942
-0.0018575
-0.00130274
-0.00495133
-0.00278031
-0.00767162
-0.00471309
-0.00998591
-0.00702712
-0.0119018
-0.00965542
-0.0134654
-0.0125438
-0.0147516
-0.0156543
-0.0158509
-0.0189665
-0.0168547
-0.0178342
-0.0224732
-0.000361881
-0.00149562
-0.00132946
-0.00398375
-0.00283276
-0.00616833
-0.00479476
-0.00802391
-0.0071389
-0.00955762
-0.00979661
-0.0108077
-0.0127131
-0.0118351
-0.0158506
-0.0127133
-0.0191893
-0.0135161
-0.0143004
-0.0227231
-0.000368274
-0.00112734
-0.00135094
-0.00300108
-0.00287489
-0.00464438
-0.00486032
-0.00603848
-0.00722859
-0.00718935
-0.00990986
-0.00812639
-0.0128489
-0.00889611
-0.0160081
-0.00955406
-0.0193682
-0.010156
-0.0107447
-0.0229239
-0.000373093
-0.000754249
-0.00136712
-0.00200705
-0.0029066
-0.0031049
-0.00490964
-0.00403544
-0.00729602
-0.00480297
-0.00999497
-0.00542743
-0.0129509
-0.00594016
-0.0161265
-0.00637848
-0.0195028
-0.00677967
-0.00717243
-0.0230751
-0.000376317
-0.00137794
-0.00292779
-0.00494258
-0.00202066
-0.00734104
-0.00240451
-0.0100518
-0.00271667
-0.0130191
-0.00297291
-0.0162056
-0.00319198
-0.0195927
-0.00339255
-0.00358901
-0.0231761
-0.00495907
-0.00736358
-0.0100802
-0.0130532
-0.0162451
-0.0196377
-0.0232267
0.0583387
0.0119396
-0.0583695
0.058201
0.0131632
0.0579474
0.0143266
0.0575689
0.0154204
0.0570574
0.0164352
0.0564055
0.0173619
0.055607
0.0181922
0.0189186
0.0617461
0.011846
-0.0616525
0.0617489
0.0131604
0.0616514
0.0144242
0.0614438
0.0156279
0.0611169
0.0167621
0.0606617
0.0178171
0.0600702
0.0187837
0.0196534
0.0650703
0.0116362
-0.0648605
0.0652078
0.0130229
0.0652634
0.0143685
0.0652271
0.0156642
0.0650887
0.0169005
0.064838
0.0180678
0.0644651
0.0191566
0.0201574
0.0683267
0.0113272
-0.0680177
0.0685831
0.0127665
0.0687776
0.0141741
0.0689001
0.0155417
0.06894
0.0168606
0.0688865
0.0181213
0.0687286
0.0193145
0.0204306
0.0715487
0.0109398
-0.0711613
0.071903
0.0124122
0.0722157
0.0138614
0.0724774
0.01528
0.0726778
0.0166601
0.0728061
0.017993
0.0728508
0.0192698
0.0204812
0.0747757
0.0104956
-0.0743314
0.0752051
0.0119827
0.0756124
0.0134541
0.0759893
0.0149031
0.0763265
0.0163229
0.0766139
0.0177057
0.0768403
0.0190434
0.0203274
0.078047
0.0100139
-0.0775653
0.0785297
0.0115
0.0790076
0.0129761
0.0794741
0.0144367
0.0799212
0.0158758
0.0803401
0.0172868
0.0807208
0.0186627
0.0199959
0.0813982
0.00951108
-0.0808954
0.0819152
0.0109831
0.0824421
0.0124492
0.0829738
0.0139049
0.0835042
0.0153454
0.0840258
0.0167652
0.0845305
0.0181581
0.0195178
0.0848585
0.00899911
-0.0843465
0.0853949
0.0104466
0.085953
0.0118911
0.0865291
0.0133288
0.0871188
0.0147558
0.0877165
0.0161675
0.0883156
0.017559
0.0189249
0.0884507
0.00848646
-0.0879381
0.0889958
0.00990155
0.0895716
0.0113153
0.0901757
0.0127247
0.0908051
0.0141263
0.091456
0.0155166
0.0921235
0.0168915
0.0182466
0.0921926
0.0079786
-0.0916848
0.092739
0.00935519
0.0933229
0.0107314
0.0939431
0.0121046
0.0945975
0.0134719
0.0952836
0.0148305
0.0959983
0.0161769
0.0175076
0.0960982
0.00747898
-0.0955986
0.0966411
0.00881229
0.0972269
0.0101456
0.0978548
0.0114766
0.0985238
0.012803
0.0992322
0.014122
0.099978
0.0154311
0.0167271
0.100179
0.00698962
-0.0996895
0.100715
0.00827569
0.101299
0.00956189
0.10193
0.0108461
0.102606
0.0121263
0.103328
0.0134001
0.104094
0.0146652
0.015919
0.104445
0.00651155
-0.103967
0.104974
0.00774697
0.105553
0.0089825
0.106183
0.0102162
0.106863
0.0114461
0.107593
0.0126702
0.108372
0.0138863
0.0150924
0.108906
0.00604521
-0.10844
0.109426
0.00722688
0.11
0.00840856
0.110628
0.00958845
0.111309
0.0107647
0.112044
0.0119355
0.112832
0.0130988
0.0142528
0.113573
0.00559065
-0.113118
0.114084
0.0067156
0.114652
0.00784047
0.115277
0.00896356
0.115958
0.0100831
0.116696
0.0111974
0.117491
0.0123047
0.11834
0.0134031
0.0144909
0.118454
0.00514747
-0.118011
0.118957
0.00621284
0.119519
0.00727806
0.120141
0.0083415
0.120823
0.00940154
0.121564
0.0104565
0.122364
0.0115048
0.123222
0.0125447
0.0135744
0.123563
0.00471531
-0.123131
0.124058
0.00571823
0.124615
0.00672094
0.125235
0.00772192
0.125916
0.00871962
0.12666
0.0097125
0.127466
0.010699
0.128333
0.0116775
0.0126465
0.128912
0.00429349
-0.12849
0.129399
0.00523107
0.129951
0.00616842
0.130569
0.0071041
0.131252
0.00803667
0.132
0.00896467
0.132812
0.00988663
0.133689
0.0108011
0.0117066
0.134515
0.00388123
-0.134102
0.134995
0.00475055
0.135544
0.00561962
0.136161
0.00648713
0.136846
0.00735171
0.137598
0.00821202
0.138418
0.00906669
0.139305
0.00991436
0.0107537
0.140388
0.00347763
-0.139984
0.140862
0.00427568
0.141409
0.00507351
0.142026
0.00586989
0.142714
0.00666357
0.143473
0.00745331
0.144301
0.00823784
0.1452
0.00901591
0.00978625
0.14655
0.00308165
-0.146154
0.14702
0.00380536
0.147564
0.00452889
0.148183
0.00525111
0.148876
0.00597088
0.149642
0.00668707
0.150481
0.00739853
0.151393
0.0081041
0.00880265
0.153022
0.00269213
-0.152632
0.153489
0.00333832
0.154033
0.00398438
0.154655
0.0046293
0.155354
0.00527205
0.15613
0.0059116
0.156981
0.00654693
0.157908
0.007177
0.00780079
0.159829
0.00230772
-0.159445
0.160294
0.0028731
0.16084
0.0034384
0.161467
0.00400274
0.162174
0.00456521
0.16296
0.0051249
0.163826
0.00568091
0.164771
0.00623232
0.00677824
0.167
0.0019269
-0.166619
0.167465
0.00240801
0.168014
0.0028891
0.168647
0.00336942
0.169365
0.00384818
0.170165
0.00432461
0.171048
0.00479793
0.172013
0.00526736
0.00573212
0.174566
0.00154785
-0.174187
0.175033
0.00194106
0.175588
0.00233432
0.176231
0.00272697
0.17696
0.0031184
0.177777
0.00350797
0.17868
0.00389502
0.179668
0.00427892
0.00465902
0.182567
0.00116845
-0.182188
0.183039
0.00146991
0.183601
0.00177145
0.184256
0.00207258
0.185001
0.00237281
0.185838
0.00267165
0.186764
0.0029686
0.18778
0.00326316
0.00355483
0.191046
0.000786224
-0.190664
0.191524
0.000991804
0.192098
0.00119748
0.192768
0.00140291
0.193533
0.00160777
0.194393
0.0018117
0.195347
0.00201438
0.196395
0.00221546
0.0024146
0.200055
0.000397981
-0.199667
0.200543
0.000503236
0.201132
0.000608565
0.201821
0.000713794
0.20261
0.000818746
0.203499
0.000923251
0.204486
0.00102713
0.205571
0.0011302
0.0012323
0.209648
-0.20925
0.210151
0.21076
0.211473
0.212292
0.213215
0.214242
0.215373
0.0483517
-0.0142411
-0.0476791
0.0490638
-0.0131902
0.0497968
-0.0120903
0.0505279
-0.0109226
0.05125
-0.00970894
0.0519605
-0.00846004
0.0526561
-0.00717833
0.0533335
-0.00586707
0.0539894
-0.00453004
0.0546204
-0.00317109
0.0552228
-0.00179462
0.0557804
-0.000409385
0.0563116
0.00100145
0.0567949
0.00241396
0.0572266
0.00382462
0.0576004
0.00522972
0.0579095
0.00662333
0.0581461
0.00799874
0.0583023
0.00934864
0.0106651
0.0519376
-0.0148851
-0.0512936
0.0525638
-0.0138164
0.0531932
-0.0127197
0.0538246
-0.0115539
0.0544543
-0.0103387
0.0550815
-0.00908722
0.0557044
-0.00780128
0.0563204
-0.00648305
0.0569263
-0.00513596
0.0575186
-0.00376342
0.0580931
-0.00236904
0.0586416
-0.000957968
0.059174
0.000469041
0.0596711
0.00191693
0.0601313
0.00336439
0.060549
0.00481202
0.0609175
0.00625482
0.0612296
0.00768667
0.0614774
0.00910083
0.0104899
0.0555992
-0.0154207
-0.0550636
0.0561335
-0.0143508
0.0566678
-0.0132539
0.0572062
-0.0120924
0.0577483
-0.0108808
0.0582936
-0.00963252
0.0588413
-0.00834894
0.0593897
-0.00703142
0.0599365
-0.00568281
0.0604792
-0.00430608
0.0610143
-0.00290412
0.0615358
-0.00147954
0.0620583
-5.34254e-05
0.0625522
0.00142298
0.0630259
0.00289075
0.0634725
0.00436539
0.0638861
0.0058412
0.0642603
0.00731255
0.0645877
0.00877341
0.0102171
0.0593744
-0.015859
-0.0589361
0.0598185
-0.0147948
0.0602636
-0.013699
0.060714
-0.0125428
0.0611711
-0.0113379
0.0616347
-0.0100961
0.0621047
-0.008819
0.0625808
-0.00750755
0.0630621
-0.0061641
0.0635474
-0.00479132
0.0640352
-0.00339191
0.0645247
-0.00196902
0.0649995
-0.000528294
0.0654834
0.000939097
0.0659559
0.0024183
0.0664152
0.00390605
0.0668569
0.00539953
0.0672754
0.00689401
0.0676647
0.00838414
0.00986404
0.0632539
-0.016208
-0.0629049
0.063611
-0.0151519
0.063971
-0.014059
0.0643378
-0.0129096
0.0647133
-0.0117134
0.0650979
-0.0104807
0.0654922
-0.00921327
0.0658965
-0.00791182
0.0663108
-0.00657838
0.0667347
-0.00521528
0.0671677
-0.00382488
0.0676084
-0.00240969
0.0680531
-0.000973016
0.0685085
0.0004837
0.0689647
0.00196206
0.0694205
0.00345022
0.0698727
0.00494733
0.0703171
0.00644966
0.0707486
0.00795266
0.00945126
0.0672388
-0.0164695
-0.0669773
0.0675104
-0.0154235
0.0677873
-0.0143359
0.0680731
-0.0131954
0.0683701
-0.0120104
0.0686791
-0.0107896
0.0690007
-0.00953491
0.0693358
-0.00824694
0.0696849
-0.00692751
0.0700483
-0.0055787
0.070426
-0.00420257
0.0708176
-0.00280122
0.0712213
-0.0013768
0.0716465
5.85274e-05
0.0720769
0.00153165
0.0725185
0.00300869
0.0729681
0.00449774
0.0734227
0.00599505
0.0738786
0.00749671
0.00899848
0.0713347
-0.0166442
-0.0711601
0.0715216
-0.0156104
0.0717169
-0.0145313
0.071924
-0.0134025
0.0721452
-0.0122315
0.0723814
-0.0110259
0.0726336
-0.00978708
0.0729027
-0.00851606
0.0731897
-0.00721446
0.0734952
-0.00588421
0.0738198
-0.00452723
0.0741642
-0.00314555
0.0745288
-0.00174142
0.0749066
-0.000319272
0.0753106
0.00112764
0.0757318
0.00258746
0.07617
0.00405959
0.0766233
0.0055417
0.0770895
0.00703057
0.00852264
0.0755483
-0.0167329
-0.0754596
0.0756516
-0.0157137
0.075767
-0.0146467
0.0758974
-0.0135329
0.076045
-0.0123792
0.0762111
-0.0111919
0.0763966
-0.00997253
0.0766025
-0.00872197
0.0768298
-0.00744184
0.0770796
-0.00613396
0.0773525
-0.00480016
0.0776493
-0.00344232
0.0779703
-0.00206242
0.0783141
-0.00066312
0.0786856
0.000756209
0.0790814
0.00219161
0.0795014
0.00363962
0.0799447
0.0050984
0.08041
0.00656528
0.00803727
0.0798881
-0.0167369
-0.0798841
0.0799093
-0.0157349
0.0799464
-0.0146837
0.0800019
-0.0135885
0.0800782
-0.0124555
0.0801763
-0.01129
0.0802973
-0.0100935
0.0804423
-0.00886696
0.0806123
-0.00761192
0.0808085
-0.00633011
0.0810316
-0.00502329
0.0812825
-0.00369322
0.0815619
-0.00234177
0.0818698
-0.000971098
0.0822089
0.000417149
0.0825774
0.00182315
0.0829758
0.00324123
0.0834039
0.00467028
0.0838611
0.00610802
0.0075519
0.0843634
-0.0166578
-0.0844425
0.0843042
-0.0156757
0.0842646
-0.0146441
0.0842472
-0.013571
0.0842539
-0.0124622
0.0842859
-0.011322
0.0843443
-0.010152
0.0844303
-0.00895298
0.084545
-0.00772661
0.0846894
-0.00647451
0.0848645
-0.00519834
0.085071
-0.00389979
0.0853099
-0.00258062
0.0855815
-0.00124268
0.0858892
0.000109435
0.0862294
0.00148295
0.0866045
0.00286617
0.0870144
0.00426035
0.0874591
0.00566334
0.00707286
0.0889835
-0.0164971
-0.0891441
0.0888456
-0.0155379
0.0887311
-0.0145296
0.0886423
-0.0134823
0.0885812
-0.012401
0.0885489
-0.0112897
0.0885465
-0.0101496
0.0885752
-0.00898172
0.0886362
-0.00778758
0.0887304
-0.00656875
0.088859
-0.00532685
0.0890227
-0.0040635
0.0892224
-0.0027804
0.0894591
-0.00147933
0.0897323
-0.000163811
0.090045
0.00117031
0.0903962
0.00251497
0.0907864
0.00387009
0.091216
0.00523381
0.00660404
0.0937573
-0.0162565
-0.0939979
0.0935425
-0.0153232
0.0933548
-0.0143419
0.0931964
-0.0133239
0.0930691
-0.0122737
0.092974
-0.0111946
0.0929124
-0.0100879
0.0928853
-0.00895464
0.0928939
-0.00779618
0.0929392
-0.00661409
0.0930223
-0.00540992
0.093144
-0.00418524
0.0933053
-0.00294169
0.093507
-0.00168096
0.0937484
-0.00040528
0.0940331
0.000885653
0.09436
0.0021881
0.0947296
0.00350046
0.0951424
0.00482102
0.00614786
0.0986935
-0.0159376
-0.0990124
0.0984037
-0.0150333
0.0981445
-0.0140827
0.0979181
-0.0130974
0.0977261
-0.0120817
0.0975698
-0.0110383
0.0974502
-0.00996838
0.0973686
-0.00887303
0.0973261
-0.00775362
0.0973236
-0.00661162
0.0973622
-0.00544852
0.0974428
-0.00426583
0.0975662
-0.00306512
0.0977333
-0.00184802
0.0979444
-0.000616376
0.0982011
0.000628912
0.0985035
0.00188571
0.0988521
0.00315186
0.0992473
0.00442579
0.00570567
0.103801
-0.0155423
-0.104196
0.103438
-0.0146702
0.103109
-0.0137537
0.102816
-0.0128045
0.102561
-0.0118265
0.102345
-0.0108221
0.102168
-0.00979223
0.102033
-0.0087381
0.101941
-0.007661
0.101892
-0.00656234
0.101887
-0.00544355
0.101927
-0.00430609
0.102013
-0.00315146
0.102146
-0.00198122
0.102327
-0.000797051
0.102556
0.000399625
0.102834
0.00160762
0.103162
0.00282436
0.103539
0.00404843
0.00527809
0.109088
-0.0150723
-0.109558
0.108654
-0.0142355
0.108256
-0.0133564
0.107899
-0.0124467
0.107582
-0.0115096
0.107307
-0.0105472
0.107075
-0.00956066
0.106888
-0.00855093
0.106746
-0.00751933
0.106651
-0.00646718
0.106604
-0.00539586
0.106604
-0.00430678
0.106654
-0.00320137
0.106754
-0.00208112
0.106905
-0.000947627
0.107107
0.000197251
0.107361
0.00135358
0.107668
0.00251785
0.108027
0.00368897
0.00486533
0.114565
-0.0145293
-0.115108
0.114061
-0.0137309
0.113597
-0.0128925
0.113175
-0.0120253
0.112798
-0.0111322
0.112466
-0.010215
0.11218
-0.00927479
0.111942
-0.00831256
0.111752
-0.00732952
0.111612
-0.00632697
0.111522
-0.00530619
0.111484
-0.00426854
0.111498
-0.00321539
0.111565
-0.00214815
0.111685
-0.00106826
0.111862
2.02816e-05
0.112092
0.00112342
0.112378
0.00223206
0.11272
0.00334724
0.00446732
0.120242
-0.0139152
-0.120856
0.119669
-0.013158
0.11914
-0.0123633
0.118656
-0.0115416
0.11822
-0.0106955
0.117831
-0.00982654
0.117492
-0.00893568
0.117204
-0.00802396
0.116967
-0.00709252
0.116782
-0.0061426
0.116651
-0.00517543
0.116575
-0.00419229
0.116554
-0.00319449
0.11659
-0.00218338
0.116682
-0.00116038
0.116829
-0.000127383
0.117037
0.000915946
0.117303
0.00196627
0.117627
0.00302262
0.00408354
0.12613
-0.0132315
-0.126814
0.12549
-0.0125184
0.124897
-0.0117703
0.124353
-0.010997
0.123858
-0.0102008
0.123414
-0.00938285
0.123023
-0.00854426
0.122685
-0.00768597
0.122401
-0.00680908
0.122173
-0.00591474
0.122002
-0.00500412
0.121888
-0.00407844
0.121833
-0.00313893
0.121836
-0.00218689
0.1219
-0.00122363
0.122023
-0.000250639
0.122207
0.000731327
0.122453
0.00172026
0.122761
0.00271485
0.00371368
0.132242
-0.0124798
-0.132993
0.131537
-0.0118134
0.130881
-0.0111148
0.130277
-0.0103926
0.129725
-0.00964893
0.129227
-0.0088849
0.128784
-0.00810142
0.128398
-0.00729942
0.128068
-0.00647996
0.127798
-0.0056441
0.127587
-0.00479296
0.127436
-0.00392768
0.127346
-0.00304942
0.127319
-0.0021594
0.127354
-0.00125884
0.127453
-0.000349095
0.127615
0.00056885
0.127842
0.00149342
0.128133
0.00242328
0.00335709
0.138592
-0.0116615
-0.13941
0.137823
-0.0110445
0.137106
-0.0103978
0.136443
-0.00972947
0.135835
-0.00904102
0.135284
-0.00833356
0.13479
-0.00760794
0.134356
-0.00686505
0.133982
-0.00610585
0.133669
-0.00533134
0.133418
-0.00454258
0.133231
-0.00374062
0.133109
-0.00292656
0.133051
-0.00210152
0.133059
-0.00126667
0.133133
-0.000423203
0.133274
0.000427802
0.133482
0.00128503
0.133758
0.00214718
0.00301301
0.145198
-0.0107778
-0.146081
0.144366
-0.0102126
0.143588
-0.00962053
0.142867
-0.00900847
0.142204
-0.00837784
0.1416
-0.00772962
0.141057
-0.00706456
0.140575
-0.00638352
0.140157
-0.00568739
0.139803
-0.00497709
0.139514
-0.00425359
0.139291
-0.00351788
0.139135
-0.00277097
0.139048
-0.00201389
0.139029
-0.00124773
0.139079
-0.000473584
0.139199
0.000307485
0.13939
0.00109436
0.139652
0.00188577
0.00268059
0.152078
-0.00982983
-0.153026
0.151184
-0.00931886
0.150347
-0.00878373
0.149569
-0.00823042
0.148851
-0.00766014
0.148195
-0.00707372
0.147603
-0.0064719
0.147075
-0.00585544
0.146612
-0.00522515
0.146217
-0.0045819
0.14589
-0.00392655
0.145632
-0.00326002
0.145445
-0.00258322
0.145328
-0.00189712
0.145283
-0.00120268
0.14531
-0.000500927
0.14541
0.000207142
0.145584
0.000920573
0.145832
0.00163816
0.00235888
0.159254
-0.0088185
-0.160265
0.158299
-0.00836403
0.157404
-0.00788815
0.156569
-0.00739598
0.155797
-0.0068885
0.15509
-0.00636645
0.154449
-0.00583048
0.153875
-0.0052813
0.153369
-0.00471965
0.152933
-0.00414628
0.152569
-0.00356199
0.152276
-0.00296759
0.152057
-0.00236392
0.151912
-0.00175184
0.151841
-0.00113222
0.151847
-0.000505976
0.151928
0.000125949
0.152085
0.000762782
0.15232
0.00140337
0.00204681
0.166752
-0.00774447
-0.167826
0.165736
-0.00734872
0.164782
-0.00693435
0.163892
-0.00650564
0.163067
-0.00606338
0.162309
-0.00560822
0.161619
-0.00514074
0.160999
-0.00466155
0.160451
-0.00417131
0.159975
-0.00367069
0.159574
-0.0031604
0.159247
-0.00264114
0.158997
-0.00211366
0.158824
-0.00157871
0.158729
-0.00103707
0.158712
-0.000489544
0.158775
6.29953e-05
0.158918
0.000619988
0.159141
0.0011803
0.00174316
0.174599
-0.00660823
-0.175735
0.173524
-0.00627335
0.172512
-0.00592268
0.171566
-0.00555972
0.170688
-0.0051851
0.169879
-0.00479935
0.169141
-0.00440297
0.168476
-0.00399651
0.167885
-0.00358051
0.16737
-0.00315555
0.166932
-0.00272225
0.166572
-0.0022812
0.166291
-0.00183304
0.166091
-0.00137843
0.165972
-0.000918022
0.165935
-0.00045251
0.165981
1.72137e-05
0.16611
0.000491062
0.166322
0.000967676
0.00144654
0.182829
-0.00541006
-0.184027
0.181694
-0.00513815
0.180624
-0.00485335
0.179623
-0.00455842
0.178692
-0.00425384
0.177832
-0.00394003
0.177047
-0.00361742
0.176337
-0.00328644
0.175704
-0.00294755
0.17515
-0.00260123
0.174675
-0.00224798
0.174282
-0.0018883
0.173972
-0.00152271
0.173745
-0.00115174
0.173603
-0.000775948
0.173547
-0.000395898
0.173576
-1.23311e-05
0.173693
0.000374698
0.173896
0.000764054
0.00115531
0.191478
-0.00415006
-0.192738
0.190283
-0.00394319
0.189156
-0.00372642
0.188099
-0.0035018
0.187115
-0.00326968
0.186206
-0.00303038
0.185372
-0.00278422
0.184618
-0.00253156
0.183943
-0.00227273
0.18335
-0.00200812
0.18284
-0.00173809
0.182415
-0.00146304
0.182075
-0.00118337
0.181823
-0.000899504
0.181659
-0.000611859
0.181584
-0.000320868
0.181599
-2.70317e-05
0.181704
0.000269373
0.1819
0.000567707
0.000867557
0.200589
-0.00282827
-0.201911
0.199334
-0.00268845
0.19815
-0.00254186
0.197038
-0.00238984
0.196001
-0.00223263
0.195041
-0.00207044
0.19416
-0.0019035
0.193361
-0.00173204
0.192644
-0.0015563
0.192013
-0.00137655
0.191467
-0.00119303
0.19101
-0.00100602
0.190643
-0.000815795
0.190366
-0.000622636
0.190181
-0.000426839
0.190089
-0.000228703
0.19009
-2.85514e-05
0.190186
0.000173374
0.190377
0.000376681
0.000581074
0.210208
-0.00144467
-0.211591
0.208893
-0.00137392
0.207651
-0.00129964
0.206484
-0.00122254
0.205394
-0.00114274
0.204384
-0.00106034
0.203456
-0.000975456
0.202612
-0.000888213
0.201854
-0.000798734
0.201185
-0.000707146
0.200605
-0.000613587
0.200117
-0.000518194
0.199723
-0.000421111
0.199423
-0.000322484
0.199218
-0.000222466
0.199111
-0.000121211
0.199101
-1.88947e-05
0.19919
8.43761e-05
0.199378
0.000188382
0.000292974
0.220391
-0.221835
0.219017
0.217717
0.216495
0.215352
0.214292
0.213316
0.212428
0.211629
0.210922
0.210308
0.20979
0.209369
0.209047
0.208824
0.208703
0.208684
0.208768
0.208957
0.0503662
0.00161132
-0.00152659
0.050143
0.00435629
-0.00413306
0.0498049
0.00683447
-0.0064964
0.0493681
0.00922153
-0.00878469
0.0488469
0.0116753
-0.0111541
0.0482581
0.0142608
-0.013672
0.0476252
0.0170203
-0.0163875
0.0469808
0.019967
-0.0193225
0.0463711
0.0230826
-0.0224729
0.0458556
0.0263205
-0.025805
0.0455128
0.0295951
-0.0292523
0.0454252
0.0327705
-0.0326829
0.0456843
0.035687
-0.0359461
0.0463284
0.0380128
-0.0386569
0.03939
-0.0407408