/*--------------------------------*- C++ -*----------------------------------*\
  =========                 |
  \\      /  F ield         | OpenFOAM: The Open Source CFD Toolbox
   \\    /   O peration     | Website:  https://openfoam.org
    \\  /    A nd           | Version:  7
     \\/     M anipulation  |
\*---------------------------------------------------------------------------*/
FoamFile
{
    version     2.0;
    format      ascii;
    class       volVectorField;
    location    "25";
    object      U;
}
// * * * * * * * * * * * * * * * * * * * * * * * * * * * * * * * * * * * * * //

dimensions      [0 1 -1 0 0 0 0];

internalField   nonuniform List<vector> 
2125
(
(0.00967151 -0.00530267 -4.21743e-20)
(0.0129426 -0.00686015 1.54631e-20)
(0.0522266 -0.0212406 1.78931e-20)
(0.0166058 -0.00833312 -1.04743e-20)
(0.0630652 -0.0244392 -8.14903e-21)
(0.0206602 -0.00968004 2.2024e-20)
(0.0748754 -0.0272225 -6.51284e-21)
(0.145345 -0.0372282 -3.88662e-21)
(0.025101 -0.0108592 -8.17503e-21)
(0.0876264 -0.029482 -5.12579e-20)
(0.166147 -0.0391492 5.50014e-21)
(0.257402 -0.0427306 1.9335e-20)
(0.0299188 -0.0118289 -8.86916e-21)
(0.101274 -0.0311118 1.82914e-20)
(0.188131 -0.0400289 2.44034e-20)
(0.287102 -0.0419393 -1.8009e-20)
(0.395913 -0.0374346 6.7954e-21)
(0.511859 -0.0273329 -4.31787e-20)
(0.0350991 -0.0125483 -1.13221e-20)
(0.115759 -0.0320103 -3.8266e-21)
(0.211181 -0.0397286 -4.40362e-20)
(0.317864 -0.0395677 -7.03454e-21)
(0.433285 -0.0324111 -6.67816e-22)
(0.554411 -0.0193761 2.66972e-21)
(0.677648 -0.00199422 4.48756e-21)
(0.0406219 -0.0129772 -2.85987e-21)
(0.131007 -0.0320811 1.50447e-20)
(0.235158 -0.038123 2.15729e-20)
(0.349479 -0.0354855 1.39109e-20)
(0.471197 -0.0253663 -4.23501e-21)
(0.596964 -0.00920169 -3.64425e-21)
(0.722853 0.0111677 3.75185e-20)
(0.844565 0.033785 5.43516e-21)
(0.0464613 -0.013077 2.81184e-20)
(0.146931 -0.031235 1.93115e-20)
(0.259903 -0.0351016 -2.02565e-20)
(0.381712 -0.0295875 -4.1245e-21)
(0.509343 -0.0162261 2.20976e-21)
(0.639154 0.00320907 -8.57567e-21)
(0.766938 0.0265578 -1.93865e-20)
(0.888196 0.0515991 -3.22534e-21)
(0.99854 0.0762677 1.70386e-22)
(1.09282 0.0943195 9.01866e-21)
(0.0525851 -0.012811 3.21292e-21)
(0.163425 -0.0293915 -1.05213e-20)
(0.285234 -0.0305712 2.57379e-20)
(0.414305 -0.0217948 1.7267e-20)
(0.547397 -0.00495141 4.95457e-22)
(0.680608 0.0178332 1.32932e-20)
(0.809513 0.0440754 2.01039e-21)
(0.929514 0.0712997 -1.54506e-20)
(1.0363 0.0972485 1.37034e-20)
(1.12537 0.116385 1.45554e-22)
(0.0589545 -0.0121452 -2.28461e-20)
(0.180371 -0.0264799 -7.14242e-21)
(0.310951 -0.0244578 -6.74657e-21)
(0.446982 -0.0120571 -1.20255e-20)
(0.585019 0.00846091 2.91297e-21)
(0.720947 0.0346084 7.98365e-23)
(0.850199 0.0635829 1.08124e-20)
(0.968184 0.0926756 -1.82728e-21)
(1.07079 0.119479 -1.41542e-20)
(1.15425 0.139164 -1.35649e-20)
(0.0655242 -0.0110489 1.81681e-21)
(0.197633 -0.0224416 1.13597e-20)
(0.336836 -0.0167081 5.60617e-21)
(0.47945 -0.000352921 -1.84431e-20)
(0.621864 0.0239788 -1.01082e-21)
(0.759801 0.0534356 -8.83237e-21)
(0.888639 0.084911 2.42242e-22)
(1.00391 0.115496 4.59871e-21)
(1.10182 0.14269 -5.36525e-21)
(1.17937 0.162373 1.53538e-20)
(0.0722424 -0.0094958 4.18693e-21)
(0.215064 -0.0172313 -1.09084e-20)
(0.362657 -0.00729159 -2.67224e-20)
(0.511409 0.0133088 2.57389e-20)
(0.657582 0.0415359 -2.0449e-21)
(0.796809 0.0741818 6.3659e-21)
(0.924503 0.107863 -9.64821e-22)
(1.03642 0.139518 6.85325e-21)
(1.12924 0.166618 -5.29227e-22)
(1.20071 0.18576 -1.1871e-20)
(0.0790513 -0.00746467 -8.33673e-21)
(0.232506 -0.0108192 1.39822e-20)
(0.388171 0.00379825 1.20916e-20)
(0.542551 0.0288885 -1.81857e-20)
(0.691833 0.0610322 -3.1728e-21)
(0.831632 0.0966835 1.29368e-21)
(0.957498 0.132222 1.38966e-20)
(1.06553 0.164489 7.62183e-22)
(1.15295 0.191007 2.97371e-21)
(1.2183 0.209094 -6.6264e-21)
(0.0858878 -0.00494023 6.29908e-21)
(0.24979 -0.00319194 -6.03992e-21)
(0.413126 0.0165426 -5.23185e-21)
(0.572568 0.046316 9.56886e-21)
(0.724285 0.0823365 3.54574e-21)
(0.863958 0.12075 2.86693e-21)
(0.987371 0.157751 -1.4138e-20)
(1.09107 0.190155 -5.13297e-21)
(1.1729 0.21561 -4.77374e-21)
(1.2322 0.232173 2.18548e-21)
(0.092684 -0.00191398 -3.0098e-21)
(0.266741 0.00564573 -6.39164e-23)
(0.437268 0.0308967 9.88284e-21)
(0.601157 0.0654907 -3.86269e-21)
(0.754625 0.105288 -1.79217e-21)
(0.893503 0.146168 -1.26932e-21)
(1.01391 0.184204 3.42847e-21)
(1.11292 0.216259 6.24756e-21)
(1.18909 0.240196 -1.98364e-22)
(1.24251 0.254816 2.40737e-21)
(0.0993685 0.00161515 2.09737e-21)
(0.283177 0.01567 -6.36374e-22)
(0.460342 0.0467892 -1.74385e-21)
(0.628026 0.0862828 -1.67305e-21)
(0.782562 0.129698 1.63332e-21)
(0.920021 0.172703 1.37586e-21)
(1.03695 0.211324 -1.3444e-21)
(1.13103 0.242553 5.22501e-22)
(1.20156 0.264546 7.56355e-22)
(1.24937 0.276861 -1.02044e-21)
(0.105867 0.00564019 1.07543e-21)
(0.298917 0.0268373 3.42892e-22)
(0.4821 0.0641223 -2.07461e-21)
(0.652898 0.108535 -1.7839e-21)
(0.807832 0.155355 2.01042e-21)
(0.943301 0.200107 4.19745e-22)
(1.05636 0.23885 -1.08244e-21)
(1.14538 0.268791 1.0635e-21)
(1.2104 0.288458 6.14488e-22)
(1.25294 0.298167 -7.08259e-22)
(0.112105 0.0101457 -4.38881e-22)
(0.313781 0.0390842 8.99302e-22)
(0.502301 0.0827729 6.24951e-21)
(0.675514 0.132063 -2.98738e-21)
(0.830203 0.182026 -1.64406e-21)
(0.963174 0.228119 -2.00199e-21)
(1.07207 0.266521 4.34853e-21)
(1.15597 0.29474 3.06046e-21)
(1.21569 0.311743 2.52925e-21)
(1.25337 0.318607 1.38182e-21)
(0.118005 0.0151077 8.1435e-21)
(0.327593 0.0523272 -4.79088e-21)
(0.520718 0.102593 -5.9553e-21)
(0.695641 0.15666 8.64378e-21)
(0.849475 0.209462 4.95884e-21)
(0.979508 0.25647 -3.67534e-22)
(1.08403 0.294078 -7.20652e-21)
(1.16287 0.320174 -5.50878e-21)
(1.21759 0.334226 -5.85492e-21)
(1.25084 0.338069 3.45404e-21)
(0.123495 0.0204932 -1.08693e-20)
(0.340185 0.0664634 1.0883e-20)
(0.537142 0.123412 1.3209e-20)
(0.713072 0.182099 -1.42889e-20)
(0.865485 0.237399 -5.49607e-21)
(0.992216 0.284888 3.83461e-21)
(1.09224 0.321267 7.56825e-21)
(1.16616 0.344881 1.22514e-21)
(1.21622 0.355748 -1.63925e-22)
(1.24555 0.356452 -4.56266e-21)
(0.128503 0.0262609 -1.45277e-21)
(0.3514 0.0813719 -1.49208e-20)
(0.551384 0.145038 -1.70864e-20)
(0.727632 0.208136 2.10852e-20)
(0.878108 0.265564 -2.56894e-21)
(1.00125 0.3131 5.25011e-21)
(1.09674 0.347843 1.12309e-21)
(1.16595 0.36866 -3.34052e-21)
(1.21176 0.37616 1.86624e-21)
(1.23768 0.373665 -1.01437e-22)
(0.132961 0.0323611 2.94387e-21)
(0.361096 0.0969145 8.92522e-21)
(0.563279 0.167263 5.5875e-21)
(0.739178 0.234511 -4.7085e-21)
(0.887257 0.293677 -7.89033e-21)
(1.00659 0.340835 -8.37289e-21)
(1.0976 0.373567 -1.80886e-21)
(1.16236 0.391323 4.8541e-21)
(1.20437 0.395325 -1.06905e-21)
(1.22741 0.389625 2.46314e-21)
(0.136807 0.0387363 -1.04281e-20)
(0.369146 0.112938 -1.07921e-20)
(0.572689 0.18986 -1.74148e-21)
(0.747601 0.260956 -2.17177e-21)
(0.892883 0.321457 -5.63911e-21)
(1.00827 0.367829 3.94052e-21)
(1.0949 0.398214 -7.88756e-22)
(1.15554 0.412693 -4.34844e-21)
(1.19425 0.413117 3.99292e-21)
(1.21495 0.404258 -5.20543e-21)
(0.139987 0.045322 2.97934e-21)
(0.375443 0.129276 9.05999e-21)
(0.579507 0.212594 8.39856e-21)
(0.752831 0.287196 1.0104e-20)
(0.894975 0.348624 4.07601e-22)
(1.00634 0.393825 1.06675e-20)
(1.08877 0.421571 5.99688e-22)
(1.14567 0.432609 -1.37746e-20)
(1.18155 0.429414 9.85694e-21)
(1.20041 0.417488 3.72419e-21)
(0.142452 0.0520478 6.49682e-21)
(0.3799 0.145751 1.51198e-20)
(0.583653 0.235219 -2.35117e-21)
(0.754832 0.312952 -1.23275e-20)
(0.893561 0.374901 6.33426e-21)
(1.00089 0.418577 -7.30938e-21)
(1.07935 0.44344 -9.97668e-21)
(1.1329 0.450926 -3.89337e-22)
(1.16644 0.444121 -7.53057e-21)
(1.18389 0.4292 2.68707e-21)
(0.144165 0.0588378 2.59271e-21)
(0.382453 0.162178 1.49943e-21)
(0.585083 0.257484 1.97414e-20)
(0.753604 0.337949 4.32482e-21)
(0.888703 0.400021 -3.93557e-21)
(0.99206 0.441852 -2.43511e-21)
(1.0668 0.463636 1.43072e-20)
(1.11742 0.467516 1.19658e-20)
(1.14914 0.457206 5.86562e-21)
(1.16569 0.439272 -5.6637e-22)
(0.145095 0.0656122 4.24196e-22)
(0.383062 0.178367 -1.48788e-20)
(0.583782 0.279137 -2.25136e-20)
(0.749185 0.361913 6.9402e-22)
(0.880496 0.423726 6.02585e-21)
(0.979981 0.463432 -8.24816e-21)
(1.05131 0.481988 -1.96347e-20)
(1.09944 0.482239 -5.88124e-21)
(1.12981 0.468546 -2.92549e-22)
(1.14604 0.447795 1.1484e-21)
(0.145223 0.0722886 -4.10761e-21)
(0.381711 0.194125 1.06259e-20)
(0.57977 0.299927 1.28395e-20)
(0.741648 0.38458 -1.30181e-20)
(0.86907 0.445771 2.27767e-21)
(0.96483 0.483115 1.81358e-20)
(1.03307 0.498346 -2.97146e-21)
(1.07912 0.494997 3.20996e-21)
(1.10859 0.478025 -5.89463e-22)
(1.12503 0.454673 -3.92013e-22)
(0.144543 0.078783 -7.93192e-21)
(0.378408 0.209257 -1.7141e-20)
(0.573097 0.319609 -3.88703e-21)
(0.731097 0.405696 7.11092e-21)
(0.854583 0.465928 7.28952e-21)
(0.946803 0.500715 -1.68597e-20)
(1.01229 0.512575 9.08402e-21)
(1.05667 0.505699 -2.90711e-21)
(1.08566 0.485588 1.09871e-21)
(1.10275 0.459816 6.37171e-22)
(0.143055 0.0850116 6.14283e-21)
(0.373187 0.223574 1.17979e-21)
(0.563847 0.337945 -1.36342e-21)
(0.717673 0.425021 -7.3695e-21)
(0.83722 0.483985 4.24448e-21)
(0.926117 0.516067 2.31514e-21)
(0.989199 0.524557 -2.85317e-21)
(1.03228 0.514269 2.12549e-21)
(1.06118 0.491181 1.01659e-21)
(1.07932 0.463154 -2.96204e-21)
(0.140773 0.0908921 -1.02011e-21)
(0.366104 0.23689 -7.62067e-22)
(0.552131 0.354707 5.42064e-21)
(0.701539 0.442328 3.26903e-21)
(0.817191 0.499747 -5.81423e-21)
(0.903011 0.529023 5.23732e-21)
(0.964025 0.534193 1.4668e-21)
(1.00617 0.520645 2.72049e-21)
(1.03529 0.49476 6.5514e-21)
(1.05487 0.464618 1.17573e-21)
(0.137717 0.0963419 5.32828e-21)
(0.357241 0.249032 5.65259e-21)
(0.538089 0.369683 -1.94341e-21)
(0.682888 0.457411 -5.76253e-22)
(0.794734 0.513042 -1.92932e-21)
(0.877739 0.539457 -1.0849e-21)
(0.937021 0.541403 2.63713e-21)
(0.978537 0.524788 1.4919e-23)
(1.00813 0.496297 -5.81782e-21)
(1.02947 0.464135 -7.30438e-21)
(0.133923 0.101279 -2.1907e-21)
(0.346703 0.259831 -7.91019e-22)
(0.521885 0.382677 -2.78396e-21)
(0.661939 0.470082 8.72117e-22)
(0.770101 0.523715 -3.00621e-21)
(0.85057 0.547259 6.77081e-21)
(0.908452 0.546125 -8.33567e-22)
(0.949607 0.526676 1.14147e-21)
(0.979793 0.495782 -5.51352e-21)
(1.00317 0.461622 8.68678e-21)
(0.129436 0.105633 -2.04452e-21)
(0.334608 0.269129 4.11306e-22)
(0.503707 0.393509 -1.65772e-21)
(0.638931 0.480175 -2.41246e-21)
(0.743562 0.531633 -1.84324e-21)
(0.821789 0.552338 -3.12574e-22)
(0.878599 0.548313 3.28787e-21)
(0.919619 0.526308 -1.51448e-20)
(0.9504 0.493219 3.24304e-20)
(0.976001 0.456953 1.32015e-20)
(0.12431 0.109337 4.72319e-22)
(0.321096 0.276788 -8.89284e-21)
(0.483762 0.40202 6.82968e-21)
(0.614119 0.487543 -1.37458e-21)
(0.715399 0.536682 3.41792e-21)
(0.791688 0.554622 -5.84692e-21)
(0.847758 0.547938 -1.12228e-20)
(0.88884 0.523713 5.91246e-21)
(0.920113 0.488664 -2.68777e-21)
(0.94792 0.450015 -6.45921e-21)
(0.118603 0.112329 -2.03059e-21)
(0.306323 0.282685 2.33499e-21)
(0.462275 0.408072 -4.48685e-21)
(0.587771 0.492066 4.61751e-21)
(0.685903 0.538772 8.78071e-21)
(0.760569 0.55405 5.64845e-21)
(0.816239 0.544979 1.94111e-20)
(0.857614 0.518944 -1.40937e-20)
(0.88935 0.482338 -2.80578e-20)
(0.918676 0.441212 1.15214e-20)
(0.112382 0.114556 -4.81171e-21)
(0.29046 0.286714 -4.50002e-21)
(0.439486 0.411551 1.60053e-21)
(0.560166 0.493645 1.40499e-20)
(0.655367 0.537829 -1.62622e-20)
(0.728722 0.550573 -2.22491e-20)
(0.784342 0.539393 -7.18369e-21)
(0.826378 0.511974 -9.48432e-22)
(0.859042 0.474515 3.53081e-20)
(0.887889 0.430972 -9.29238e-21)
(0.105723 0.11597 1.42978e-20)
(0.273688 0.288786 -4.93721e-22)
(0.415644 0.412366 -2.69283e-21)
(0.531589 0.492209 -1.33637e-22)
(0.624082 0.533807 -8.17832e-21)
(0.696422 0.544157 4.01238e-20)
(0.752329 0.531123 -2.76912e-20)
(0.795538 0.502557 3.47513e-20)
(0.830171 0.46471 -2.58625e-20)
(0.861114 0.421243 -3.49061e-20)
(0.098704 0.116534 -6.72594e-21)
(0.256198 0.288834 3.1149e-21)
(0.391007 0.410453 -1.26116e-21)
(0.502328 0.487714 1.33983e-20)
(0.592335 0.526686 -4.47354e-21)
(0.663924 0.534804 7.10394e-21)
(0.720381 0.520183 1.65962e-20)
(0.765028 0.490722 -9.09566e-21)
(0.801699 0.452647 -2.34668e-20)
(0.834381 0.409679 3.44067e-20)
(0.0914099 0.11622 1.34909e-20)
(0.23819 0.286811 1.90711e-20)
(0.365839 0.405774 -1.59406e-20)
(0.472676 0.480143 -1.40188e-20)
(0.560415 0.516474 4.14466e-20)
(0.631487 0.522544 -4.26866e-20)
(0.688702 0.506628 5.24777e-20)
(0.734945 0.476598 -1.42174e-20)
(0.773655 0.438602 1.59321e-20)
(0.808058 0.396474 2.9919e-20)
(0.0839284 0.11501 -6.34083e-21)
(0.219866 0.282693 -1.70871e-20)
(0.340409 0.398318 -6.94348e-21)
(0.442926 0.469507 -4.61127e-21)
(0.528609 0.503206 3.55435e-21)
(0.599374 0.507429 -1.02559e-20)
(0.657516 0.490528 -1.58062e-20)
(0.705475 0.460283 -3.52266e-20)
(0.746262 0.422734 3.65022e-20)
(0.782484 0.381769 -1.26705e-20)
(0.0763491 0.112894 2.33617e-20)
(0.201434 0.276473 -1.53511e-21)
(0.314986 0.388097 -9.13866e-21)
(0.413369 0.455843 1.34763e-20)
(0.497202 0.486935 -2.4726e-20)
(0.567843 0.489527 6.65481e-20)
(0.627053 0.471955 -3.70837e-20)
(0.676814 0.441848 3.5676e-20)
(0.719707 0.4051 -6.93339e-20)
(0.757824 0.36558 -1.91979e-20)
(0.0687631 0.109874 -9.70388e-21)
(0.1831 0.26817 2.50321e-20)
(0.289836 0.375154 6.63528e-21)
(0.384292 0.439212 -1.15714e-20)
(0.466473 0.467741 -2.075e-20)
(0.537151 0.468924 -1.27235e-21)
(0.597536 0.450992 1.2406e-20)
(0.649155 0.421364 -3.1628e-20)
(0.694165 0.385743 1.69055e-20)
(0.73422 0.347916 2.22164e-21)
(0.0612611 0.105961 -3.69598e-20)
(0.165069 0.257822 -9.99425e-21)
(0.265223 0.359551 -2.52714e-21)
(0.355976 0.4197 2.93392e-20)
(0.436694 0.445719 -2.80716e-20)
(0.507544 0.445718 -7.94548e-21)
(0.56918 0.427733 -4.92707e-21)
(0.622682 0.398907 9.84297e-21)
(0.669797 0.364714 -1.29508e-20)
(0.711804 0.328801 -2.143e-20)
(0.0539327 0.101175 3.05197e-20)
(0.147542 0.245486 -1.75391e-20)
(0.2414 0.341377 1.11746e-21)
(0.328691 0.397415 -4.41494e-20)
(0.408125 0.420989 4.95763e-20)
(0.479255 0.420025 -1.65418e-20)
(0.542189 0.402282 1.04641e-20)
(0.597571 0.374567 9.66473e-21)
(0.646752 0.342078 2.96176e-20)
(0.690695 0.308275 -1.24859e-20)
(0.0468651 0.095547 -1.23817e-20)
(0.130711 0.231242 3.64651e-20)
(0.218613 0.320745 2.05052e-20)
(0.302695 0.372489 3.37546e-20)
(0.381011 0.393686 -8.3655e-21)
(0.452507 0.391978 3.39193e-21)
(0.516754 0.374757 2.95905e-20)
(0.57398 0.348439 6.89392e-21)
(0.625163 0.31791 6.69752e-22)
(0.670995 0.2864 -1.4936e-20)
(0.0401422 0.0891162 -2.63093e-20)
(0.114764 0.215185 -2.10035e-21)
(0.197095 0.297787 -1.16329e-20)
(0.278233 0.345075 -5.3486e-20)
(0.355584 0.363968 -5.41698e-20)
(0.427506 0.361723 9.55211e-21)
(0.493054 0.345288 -2.495e-20)
(0.552059 0.320636 1.68698e-20)
(0.605153 0.292298 9.77443e-21)
(0.652798 0.263248 2.15615e-20)
(0.0338435 0.0819303 3.71076e-20)
(0.0998725 0.19743 -3.22154e-20)
(0.177063 0.272658 -1.64092e-20)
(0.255531 0.315343 3.08953e-20)
(0.33206 0.332007 3.65248e-20)
(0.404442 0.329421 -1.26736e-20)
(0.471249 0.314019 -1.63805e-21)
(0.531942 0.291278 -5.22972e-20)
(0.586829 0.265343 -3.13182e-20)
(0.636186 0.238909 1.26839e-20)
(0.0280434 0.0740452 -2.10332e-20)
(0.0862008 0.178108 9.4532e-21)
(0.158721 0.245532 3.50043e-20)
(0.2348 0.283487 -1.59837e-20)
(0.310635 0.297992 1.22754e-21)
(0.383491 0.295249 5.11611e-20)
(0.451488 0.281104 2.5458e-21)
(0.51375 0.260497 4.98837e-20)
(0.570292 0.237156 2.21359e-20)
(0.621232 0.21348 -3.70735e-20)
(0.0228101 0.0655245 2.80588e-20)
(0.0738968 0.157366 3.24356e-21)
(0.142251 0.2166 2.24972e-21)
(0.216229 0.249713 3.28221e-20)
(0.291488 0.262128 -4.6684e-21)
(0.364808 0.259395 -3.19833e-20)
(0.433904 0.24671 1.67463e-20)
(0.497592 0.228437 -2.81022e-20)
(0.555629 0.207859 -1.24515e-20)
(0.608003 0.187068 1.34789e-20)
(0.018205 0.0564383 -1.75272e-20)
(0.0630936 0.135364 -3.53644e-20)
(0.127819 0.186069 8.32787e-21)
(0.199989 0.214245 -1.71592e-20)
(0.274777 0.224633 -1.10525e-20)
(0.348533 0.222059 2.83247e-20)
(0.418612 0.211014 -7.20625e-21)
(0.483564 0.195249 7.2152e-21)
(0.542915 0.177583 -9.32442e-21)
(0.596556 0.159791 1.93234e-20)
(0.0142821 0.046863 6.2063e-21)
(0.0539077 0.112274 2.36514e-20)
(0.115568 0.154161 -3.37828e-20)
(0.186225 0.17732 1.67924e-20)
(0.260638 0.185738 -8.07863e-21)
(0.334785 0.183451 -2.42147e-20)
(0.405714 0.174199 2.10017e-20)
(0.471747 0.161093 4.79522e-21)
(0.532219 0.146465 -6.84188e-22)
(0.586939 0.13177 -2.26022e-20)
(0.0110873 0.0368802 1.97247e-21)
(0.0464379 0.0882794 7.46583e-21)
(0.105618 0.121109 3.03948e-20)
(0.175063 0.139187 -6.1088e-21)
(0.249187 0.145683 -5.10183e-21)
(0.323665 0.14379 2.0056e-21)
(0.395294 0.13646 8.77796e-22)
(0.46221 0.126136 8.31728e-21)
(0.523595 0.11465 -1.16012e-20)
(0.579196 0.103134 -7.79004e-21)
(0.00865806 0.0265757 -5.01214e-21)
(0.0407644 0.0635719 -9.13865e-21)
(0.0980693 0.0871561 -2.35246e-20)
(0.166603 0.100104 1.24203e-20)
(0.240516 0.104716 1.07368e-20)
(0.315253 0.103302 4.6075e-22)
(0.387419 0.097994 -2.04591e-20)
(0.455009 0.0905505 -9.67707e-21)
(0.517087 0.0822871 8.136e-21)
(0.573359 0.0740149 9.22098e-21)
(0.00702261 0.016039 8.7056e-22)
(0.036948 0.0383503 -1.89156e-21)
(0.092995 0.0525548 4.46392e-21)
(0.16092 0.0603378 -3.17704e-21)
(0.234697 0.0630931 -2.95621e-21)
(0.309612 0.0622204 -2.1245e-21)
(0.38214 0.0590063 4.1931e-21)
(0.450185 0.0545121 1.69782e-20)
(0.51273 0.0495306 2.60161e-21)
(0.569453 0.0445485 -4.91984e-21)
(0.158066 0.0201586 -2.68568e-21)
(0.231775 0.0210751 2.71911e-21)
(0.306781 0.02078 1.30449e-21)
(0.379493 0.0197038 -1.38086e-21)
(0.447766 0.0182011 -6.71678e-21)
(0.510546 0.0165367 2.34067e-21)
(0.567496 0.0148728 -2.32565e-21)
(1.26985 0.279996 -1.07344e-22)
(1.2669 0.26104 -1.08236e-21)
(1.26094 0.241337 -2.00669e-22)
(1.2518 0.220996 -7.23071e-22)
(1.23933 0.200144 3.86199e-21)
(1.22341 0.178935 -3.63148e-21)
(1.20395 0.157546 2.33068e-21)
(1.18089 0.136185 9.23318e-21)
(1.27988 0.279791 -2.17794e-23)
(1.27978 0.263627 9.24452e-22)
(1.2771 0.246709 8.152e-22)
(1.27168 0.229108 -3.97489e-21)
(1.26333 0.210909 1.30494e-21)
(1.25192 0.192217 -8.04511e-22)
(1.23732 0.173159 2.22852e-21)
(1.21942 0.153888 -4.33899e-21)
(1.28462 0.276609 2.83399e-22)
(1.28696 0.263047 6.47901e-22)
(1.28717 0.248762 3.85808e-22)
(1.28507 0.23379 1.95975e-21)
(1.28048 0.218173 2.59997e-21)
(1.27324 0.20197 3.80863e-21)
(1.26318 0.185258 -1.12105e-22)
(1.25017 0.168133 7.231e-22)
(1.28501 0.270715 -9.29756e-23)
(1.28926 0.259466 -1.10724e-21)
(1.2918 0.247558 -1.02905e-21)
(1.29248 0.234996 7.62375e-22)
(1.2911 0.221789 -2.95031e-21)
(1.2875 0.207961 -6.9043e-21)
(1.2815 0.193547 3.06153e-21)
(1.27293 0.178598 3.71792e-22)
(1.28214 0.262615 1.11629e-23)
(1.28773 0.253371 5.44897e-22)
(1.29203 0.243561 1.39795e-21)
(1.29487 0.23317 5.1782e-22)
(1.29609 0.222185 -1.04745e-22)
(1.29552 0.2106 1.696e-21)
(1.29299 0.19842 1.26734e-21)
(1.28831 0.185658 -1.48214e-21)
(1.27701 0.252847 2.05235e-25)
(1.28344 0.245273 5.4865e-22)
(1.28892 0.237242 -9.81318e-22)
(1.29332 0.228726 -7.85065e-22)
(1.2965 0.2197 5.07489e-22)
(1.2983 0.210139 1.11062e-21)
(1.29856 0.200025 -1.99593e-21)
(1.29711 0.189344 -9.43452e-22)
(1.27046 0.24192 4.8545e-23)
(1.2773 0.235689 -5.73859e-22)
(1.28348 0.229108 8.72009e-22)
(1.28888 0.222147 5.4418e-22)
(1.2934 0.214773 1.10975e-21)
(1.29691 0.206954 -4.80337e-22)
(1.29927 0.198658 -3.1751e-21)
(1.30032 0.189854 2.15892e-21)
(1.26312 0.230277 -1.1642e-22)
(1.27005 0.225103 -2.36254e-22)
(1.27653 0.219671 -2.80469e-22)
(1.28248 0.213957 -3.47627e-22)
(1.28782 0.207928 1.73384e-22)
(1.29245 0.20155 1.25091e-21)
(1.29626 0.194787 3.47205e-21)
(1.29911 0.187602 7.20795e-22)
(1.25542 0.218272 5.35998e-23)
(1.26221 0.213918 -9.17875e-25)
(1.26871 0.209384 -1.07396e-22)
(1.27486 0.204646 -5.38565e-22)
(1.2806 0.199681 -9.72914e-22)
(1.28587 0.194456 -1.32426e-21)
(1.29057 0.188939 -9.05187e-22)
(1.29462 0.183093 -1.32143e-21)
(1.24762 0.206154 2.99012e-23)
(1.25414 0.202442 4.133e-22)
(1.26047 0.198604 3.59595e-23)
(1.26657 0.194625 3.68508e-22)
(1.27242 0.190487 2.37073e-23)
(1.27795 0.186164 -1.77661e-21)
(1.28312 0.181631 -1.24472e-22)
(1.28786 0.176854 1.09134e-21)
(1.23988 0.194093 -7.42919e-23)
(1.24605 0.19089 9.32031e-23)
(1.25209 0.187599 -1.1547e-22)
(1.258 0.184212 -2.41498e-22)
(1.26374 0.180715 -3.50676e-22)
(1.26929 0.177092 1.20072e-21)
(1.27461 0.173322 5.72323e-22)
(1.27966 0.16938 -1.01308e-21)
(1.23227 0.182196 2.29772e-23)
(1.23805 0.179406 -3.06845e-22)
(1.24376 0.176556 1.73115e-22)
(1.24938 0.173638 1.31423e-23)
(1.2549 0.170644 3.87829e-22)
(1.2603 0.167565 -3.91142e-22)
(1.26556 0.164387 5.26451e-22)
(1.27064 0.161091 7.6933e-22)
(1.22483 0.170528 1.23247e-23)
(1.23022 0.168085 1.23728e-22)
(1.23557 0.165596 -2.9186e-22)
(1.24086 0.163059 -4.85994e-23)
(1.24608 0.160471 -3.61158e-22)
(1.25124 0.157823 4.40776e-22)
(1.2563 0.155109 -1.70756e-21)
(1.26127 0.152316 -1.04143e-21)
(1.21757 0.159128 -2.66961e-23)
(1.22259 0.156979 3.33767e-23)
(1.22757 0.154796 2.26023e-22)
(1.23251 0.152579 -1.16459e-22)
(1.23741 0.150324 5.67777e-22)
(1.24227 0.148028 -2.02347e-22)
(1.24708 0.145687 3.3451e-22)
(1.25182 0.143292 5.98703e-22)
(1.2105 0.148011 2.36401e-23)
(1.21515 0.146119 -8.34073e-24)
(1.21978 0.144201 -1.60238e-22)
(1.22438 0.142256 4.12913e-22)
(1.22895 0.140285 -2.6794e-22)
(1.2335 0.138284 2.46203e-22)
(1.23801 0.136251 2.57641e-22)
(1.24248 0.134182 1.12609e-22)
(1.20362 0.137185 7.18287e-24)
(1.20792 0.135519 2.18799e-23)
(1.21221 0.133833 7.40169e-23)
(1.21649 0.132127 -2.59573e-22)
(1.22074 0.1304 -1.88327e-22)
(1.22497 0.128653 4.65143e-23)
(1.22918 0.126882 -2.19175e-22)
(1.23336 0.125087 2.24982e-22)
(1.23751 0.123265 -1.06927e-21)
(1.19692 0.126643 -1.18987e-23)
(1.20091 0.125178 -2.28553e-24)
(1.20488 0.123699 -1.46316e-24)
(1.20884 0.122204 1.65676e-22)
(1.21279 0.120693 1.22513e-22)
(1.21672 0.119167 -6.98143e-23)
(1.22063 0.117625 -1.78536e-22)
(1.22453 0.116065 -1.31273e-24)
(1.2284 0.114486 1.59602e-22)
(1.19041 0.116373 1.78599e-24)
(1.19411 0.11509 4.00356e-25)
(1.19779 0.113796 2.80264e-23)
(1.20146 0.112489 -4.83854e-23)
(1.20512 0.111171 -2.73294e-23)
(1.20877 0.109841 1.68026e-22)
(1.2124 0.1085 7.04847e-23)
(1.21601 0.107146 -2.80396e-22)
(1.21961 0.105778 -9.92639e-23)
(1.18411 0.106367 -5.66763e-25)
(1.18753 0.105247 -2.0851e-24)
(1.19095 0.104117 -1.6738e-23)
(1.19435 0.10298 -7.49602e-24)
(1.19774 0.101833 -7.90808e-23)
(1.20112 0.100678 8.38751e-23)
(1.20449 0.0995146 -7.06839e-23)
(1.20784 0.0983422 -1.80952e-22)
(1.21118 0.0971606 3.01258e-22)
(1.17803 0.0966006 3.34469e-24)
(1.1812 0.0956269 -4.33781e-24)
(1.18437 0.0946469 -5.72006e-24)
(1.18753 0.0936607 -7.48103e-24)
(1.19067 0.0926684 5.13307e-24)
(1.19381 0.0916699 -3.9444e-23)
(1.19693 0.0906653 8.68986e-23)
(1.20004 0.0896545 9.99181e-23)
(1.20313 0.0886373 -1.91328e-23)
(1.17219 0.0870527 -8.8388e-24)
(1.17514 0.0862116 7.89497e-24)
(1.17808 0.0853663 -2.37355e-24)
(1.18101 0.0845166 2.63952e-24)
(1.18394 0.0836627 -2.62094e-24)
(1.18685 0.0828045 2.11031e-24)
(1.18974 0.0819421 -1.50386e-23)
(1.19263 0.0810754 -9.36648e-23)
(1.19549 0.0802043 6.10858e-23)
(1.16663 0.0776963 -1.63814e-24)
(1.16938 0.0769756 1.69767e-23)
(1.17212 0.076252 9.22785e-24)
(1.17484 0.0755256 -5.54897e-24)
(1.17756 0.0747963 -1.52672e-23)
(1.18027 0.0740643 1.40789e-25)
(1.18296 0.0733294 -1.79698e-23)
(1.18563 0.0725917 2.61921e-23)
(1.18829 0.0718509 -7.25092e-23)
(1.16139 0.0685017 7.50843e-25)
(1.16396 0.0678903 1.00421e-23)
(1.16651 0.0672772 -2.1547e-23)
(1.16905 0.0666624 1.07771e-23)
(1.17159 0.0660459 2.73097e-23)
(1.17411 0.0654276 -2.36774e-23)
(1.17661 0.0648075 2.02976e-23)
(1.1791 0.0641854 -1.88517e-24)
(1.18157 0.0635613 3.5033e-23)
(1.15652 0.0594336 1.11763e-23)
(1.15892 0.0589221 -2.34578e-23)
(1.16132 0.0584098 -1.6264e-23)
(1.1637 0.0578966 2.53992e-23)
(1.16606 0.0573824 4.85793e-24)
(1.16842 0.0568671 3.97141e-23)
(1.17076 0.0563507 -7.87407e-25)
(1.17308 0.055833 -1.58234e-23)
(1.17538 0.0553139 1.18186e-23)
(1.15208 0.0504524 7.5334e-25)
(1.15434 0.0500328 -7.09861e-24)
(1.15659 0.0496129 9.20823e-25)
(1.15883 0.0491926 -1.50468e-23)
(1.16105 0.0487718 -8.04498e-23)
(1.16326 0.0483504 5.8035e-23)
(1.16545 0.0479284 -2.53635e-23)
(1.16762 0.0475055 6.58958e-24)
(1.16977 0.0470815 4.03998e-23)
(1.14814 0.0415097 -1.11286e-23)
(1.15027 0.0411753 2.60427e-23)
(1.1524 0.0408409 -4.70197e-24)
(1.15451 0.0405065 4.76455e-23)
(1.15661 0.0401719 -2.45017e-23)
(1.15869 0.039837 -2.04092e-23)
(1.16075 0.0395017 -4.23892e-23)
(1.16279 0.0391657 9.15445e-24)
(1.16482 0.038829 1.7771e-23)
(1.14477 0.0325516 -1.26129e-23)
(1.14681 0.0322969 6.26432e-24)
(1.14883 0.0320424 1.75374e-23)
(1.15084 0.0317879 -4.54005e-23)
(1.15283 0.0315335 7.02175e-23)
(1.1548 0.0312789 -4.68023e-23)
(1.15676 0.0310239 -1.55858e-23)
(1.15869 0.0307685 7.2346e-23)
(1.16061 0.0305124 2.9971e-23)
(1.14207 0.023506 -1.85153e-24)
(1.14402 0.0233276 3.16481e-23)
(1.14596 0.0231494 -1.03942e-23)
(1.14789 0.0229714 6.76223e-23)
(1.14979 0.0227934 -7.12237e-23)
(1.15168 0.0226152 -1.3905e-23)
(1.15355 0.0224368 -2.89876e-23)
(1.1554 0.0222578 7.65413e-23)
(1.15723 0.0220783 -1.27573e-22)
(1.14014 0.0143032 -2.49577e-25)
(1.14203 0.0141971 -7.50543e-24)
(1.14391 0.014091 -8.54417e-24)
(1.14578 0.013985 2.9853e-23)
(1.14762 0.0138789 -5.23904e-23)
(1.14945 0.0137726 5.23307e-23)
(1.15126 0.013666 -5.12142e-23)
(1.15304 0.013559 2.44849e-23)
(1.15481 0.0134514 3.84321e-23)
(1.13907 0.00481849 -8.87001e-25)
(1.14092 0.00478753 2.49469e-23)
(1.14277 0.00475655 -5.05746e-23)
(1.14459 0.00472544 -4.03963e-23)
(1.1464 0.00469408 3.04016e-23)
(1.1482 0.00466237 -3.14686e-23)
(1.14997 0.00463021 4.01226e-23)
(1.15172 0.00459747 1.07183e-23)
(1.15346 0.00456405 1.44164e-23)
(0.954495 0.41381 2.76894e-21)
(0.979158 0.419486 -1.99599e-21)
(1.00272 0.424542 6.41862e-21)
(1.02571 0.428261 -1.35754e-21)
(1.04861 0.4305 1.41232e-22)
(1.07115 0.431258 -2.41102e-22)
(1.09313 0.430525 9.37912e-22)
(1.11443 0.428306 5.04285e-22)
(1.13496 0.424627 -1.91125e-23)
(1.15459 0.419522 -7.53595e-22)
(1.17319 0.413032 -9.46888e-22)
(1.19055 0.405173 1.16987e-21)
(1.20663 0.39592 -3.0078e-21)
(1.22136 0.385414 -9.23264e-22)
(1.23446 0.373686 1.75014e-21)
(1.24578 0.360765 -2.40777e-21)
(1.25516 0.346695 4.47004e-22)
(1.26244 0.331527 1.5871e-22)
(1.26744 0.315313 9.4774e-22)
(1.26997 0.298114 1.58829e-22)
(0.977493 0.395808 -4.31737e-21)
(1.00053 0.399518 3.20129e-21)
(1.0221 0.402704 -8.01513e-21)
(1.04259 0.405028 -7.07211e-21)
(1.06301 0.406318 -6.13772e-22)
(1.08325 0.406534 6.17099e-22)
(1.1031 0.405642 -7.12687e-22)
(1.12247 0.403618 -1.16215e-21)
(1.14128 0.400456 2.48289e-22)
(1.15944 0.396157 4.4378e-22)
(1.17682 0.390727 -1.08296e-22)
(1.19326 0.384174 -1.19544e-21)
(1.20873 0.376575 1.1396e-21)
(1.22314 0.367956 -8.68559e-22)
(1.23624 0.358286 2.40222e-22)
(1.24793 0.347588 -5.88278e-22)
(1.25806 0.335893 2.46793e-21)
(1.2665 0.323233 -5.12443e-22)
(1.27306 0.309638 -7.96316e-22)
(1.27758 0.295144 4.59456e-24)
(0.998895 0.378455 -2.26693e-21)
(1.01953 0.381258 -4.77266e-21)
(1.03893 0.383215 2.02283e-21)
(1.05723 0.384386 5.42957e-21)
(1.07546 0.384727 -1.40959e-21)
(1.0936 0.38423 1.72448e-24)
(1.11144 0.382896 -9.60447e-22)
(1.12892 0.380716 -1.0722e-21)
(1.14599 0.377684 -4.75568e-22)
(1.16257 0.373799 -2.49007e-23)
(1.17856 0.369065 1.01928e-21)
(1.19384 0.363499 -1.41076e-22)
(1.20846 0.357147 -2.51985e-22)
(1.22229 0.349885 1.00196e-22)
(1.23509 0.341803 -1.93268e-21)
(1.24679 0.33292 -1.30203e-21)
(1.25731 0.323234 -1.041e-21)
(1.26651 0.31275 -2.73043e-22)
(1.27423 0.301477 -5.86707e-22)
(1.28032 0.289425 -2.92274e-22)
(1.01845 0.361106 -4.22123e-21)
(1.03694 0.362816 6.46184e-21)
(1.05433 0.363732 -3.01388e-21)
(1.07069 0.363995 1.77789e-22)
(1.08695 0.363605 -8.04872e-22)
(1.10313 0.36256 1.82134e-21)
(1.11907 0.360872 7.95532e-22)
(1.13471 0.358546 1.9053e-21)
(1.15003 0.355582 1.20193e-22)
(1.165 0.351984 1.94218e-22)
(1.17955 0.347757 -4.91477e-22)
(1.19362 0.342913 1.14956e-21)
(1.20704 0.337473 -8.41357e-23)
(1.21988 0.331325 -9.67623e-22)
(1.23212 0.324559 2.90346e-21)
(1.24356 0.31718 1.34372e-21)
(1.25409 0.309172 -3.74851e-22)
(1.26363 0.300528 5.39903e-22)
(1.27205 0.291241 9.18933e-22)
(1.27922 0.281305 1.10228e-22)
(1.03569 0.343634 7.32498e-21)
(1.05223 0.344425 -4.83849e-21)
(1.06779 0.344551 1.78435e-21)
(1.08244 0.344147 -1.51771e-21)
(1.09697 0.343225 9.08851e-22)
(1.11141 0.341786 -7.98681e-22)
(1.12564 0.339841 6.51653e-22)
(1.13962 0.337404 -1.02482e-21)
(1.15334 0.334482 6.7254e-22)
(1.16678 0.331083 -1.5797e-22)
(1.17989 0.327211 -5.18507e-24)
(1.19265 0.322863 -4.41412e-22)
(1.20498 0.318039 2.87015e-22)
(1.21687 0.312793 -2.73301e-22)
(1.22831 0.307099 -8.50148e-22)
(1.23917 0.300926 1.89213e-23)
(1.24939 0.294269 -2.26079e-22)
(1.2589 0.287121 -9.34503e-22)
(1.26759 0.279473 -3.53178e-22)
(1.27538 0.27131 -4.14369e-23)
(1.05073 0.325945 2.32039e-22)
(1.0655 0.326067 3.97721e-21)
(1.07939 0.32564 1.22099e-21)
(1.0925 0.324779 2.87633e-21)
(1.10549 0.323503 -4.59299e-23)
(1.11839 0.321813 5.54733e-22)
(1.13111 0.319721 -1.59736e-21)
(1.14361 0.317243 -7.84692e-22)
(1.1559 0.314391 -6.49461e-22)
(1.16795 0.311176 -5.53184e-23)
(1.17975 0.307607 1.17817e-22)
(1.19127 0.303692 -1.97271e-23)
(1.20247 0.299442 9.93418e-23)
(1.2134 0.294877 7.22366e-22)
(1.224 0.289945 -6.15327e-22)
(1.23416 0.284667 -2.13975e-22)
(1.24387 0.279046 5.9021e-22)
(1.25309 0.27307 6.65819e-22)
(1.26173 0.266724 -4.89544e-22)
(1.26974 0.25999 2.07557e-23)
(1.06373 0.308221 -3.89928e-21)
(1.07691 0.307856 -3.18963e-21)
(1.08928 0.307042 6.67227e-22)
(1.101 0.305876 1.20025e-21)
(1.11261 0.304379 -2.36428e-21)
(1.12415 0.30255 -3.24132e-21)
(1.13553 0.300403 -1.38904e-21)
(1.14672 0.297951 2.16731e-21)
(1.15774 0.295207 3.11534e-22)
(1.16856 0.292183 -1.4276e-23)
(1.17919 0.28889 -2.93115e-23)
(1.18961 0.285338 -1.06967e-22)
(1.19982 0.28154 -3.25973e-22)
(1.20974 0.277505 7.59814e-22)
(1.21941 0.273188 2.07752e-22)
(1.22884 0.268624 -4.1213e-22)
(1.23796 0.263818 -4.07265e-22)
(1.24673 0.258759 1.6746e-22)
(1.25511 0.253434 5.11923e-22)