/*--------------------------------*- C++ -*----------------------------------*\
  =========                 |
  \\      /  F ield         | OpenFOAM: The Open Source CFD Toolbox
   \\    /   O peration     | Website:  https://openfoam.org
    \\  /    A nd           | Version:  7
     \\/     M anipulation  |
\*---------------------------------------------------------------------------*/
FoamFile
{
    version     2.0;
    format      ascii;
    class       volVectorField;
    location    "260";
    object      U;
}
// * * * * * * * * * * * * * * * * * * * * * * * * * * * * * * * * * * * * * //

dimensions      [0 1 -1 0 0 0 0];

internalField   nonuniform List<vector> 
2125
(
(-0.0164339 0.0122358 -1.08665e-19)
(-0.0143796 0.0102476 3.92919e-20)
(0.00738311 0.00992991 4.23969e-20)
(-0.0113948 0.00805237 -2.65993e-20)
(0.0226934 0.00387925 -1.9737e-20)
(-0.00731539 0.00565276 5.55774e-20)
(0.0412781 -0.00206674 -1.5521e-20)
(0.156447 -0.0104888 -9.27578e-21)
(-0.00199561 0.00309309 -2.04768e-20)
(0.063385 -0.00775634 -1.21787e-19)
(0.201312 -0.0155231 1.27138e-20)
(0.406479 -0.0171365 4.39911e-20)
(0.00469254 0.000453015 -2.24192e-20)
(0.0891929 -0.0129546 4.32377e-20)
(0.251501 -0.0188295 5.64972e-20)
(0.481184 -0.0150616 -4.06459e-20)
(0.748988 0.00115961 1.51267e-20)
(1.00385 0.0239241 -9.24847e-20)
(0.0128557 -0.00215713 -2.89339e-20)
(0.118797 -0.017357 -9.77977e-21)
(0.306668 -0.0199792 -1.02376e-19)
(0.559235 -0.00954027 -1.6076e-20)
(0.836148 0.0137878 -1.77296e-21)
(1.08139 0.0408769 5.48466e-21)
(1.25755 0.062058 9.68196e-21)
(0.0225755 -0.00460447 -7.53186e-21)
(0.152191 -0.0206105 3.54629e-20)
(0.366248 -0.0185296 5.00197e-20)
(0.639032 -0.000398789 3.13362e-20)
(0.919424 0.0296944 -9.32988e-21)
(1.15045 0.0599715 -7.65411e-21)
(1.30398 0.081156 7.59895e-20)
(1.38464 0.0905084 1.00195e-20)
(0.0339071 -0.00673964 7.19443e-20)
(0.189253 -0.0223341 4.67946e-20)
(0.429456 -0.0140735 -4.74821e-20)
(0.718894 0.0124037 -9.47285e-21)
(0.997291 0.0485416 4.90171e-21)
(1.2107 0.0808011 -1.79424e-20)
(1.34154 0.101046 -3.88828e-20)
(1.40277 0.1085 -6.51585e-21)
(1.41822 0.106667 5.34161e-22)
(1.41001 0.0954666 1.58045e-20)
(0.0468724 -0.00840088 8.7629e-21)
(0.229736 -0.0221406 -2.54952e-20)
(0.49531 -0.00628073 6.04088e-20)
(0.797193 0.0287834 3.94225e-20)
(1.06866 0.0699686 1.12035e-21)
(1.26223 0.10301 2.79239e-20)
(1.37114 0.1215 4.14305e-21)
(1.4152 0.126636 -2.93316e-20)
(1.42007 0.122529 2.48176e-20)
(1.40658 0.110809 -3.77736e-23)
(0.061454 -0.00941881 -5.90969e-20)
(0.273261 -0.0196585 -1.74685e-20)
(0.562686 0.00507261 -1.58607e-20)
(0.872466 0.0485558 -2.76078e-20)
(1.13284 0.0936144 6.40905e-21)
(1.30539 0.126296 1.49174e-22)
(1.3937 0.142349 2.1361e-20)
(1.42289 0.144866 -3.3869e-21)
(1.41924 0.138458 -2.55152e-20)
(1.40178 0.126144 -2.37874e-20)
(0.077591 -0.00962118 4.77911e-21)
(0.319321 -0.0145534 2.8204e-20)
(0.630381 0.0200918 1.36634e-20)
(0.94348 0.0714633 -4.28124e-20)
(1.1895 0.119131 -2.1865e-21)
(1.34071 0.150405 -1.83508e-20)
(1.41011 0.16347 4.78361e-22)
(1.42664 0.16316 8.65373e-21)
(1.41627 0.15446 -9.61189e-21)
(1.39585 0.14148 2.68615e-20)
(0.0951759 -0.00883834 1.11706e-20)
(0.367298 -0.00654747 -2.75339e-20)
(0.69719 0.0387658 -6.51633e-20)
(1.00927 0.0972005 6.00714e-20)
(1.23855 0.146191 -4.48922e-21)
(1.3688 0.175121 1.32884e-20)
(1.42119 0.184769 -1.83708e-21)
(1.42711 0.181499 1.27769e-20)
(1.41152 0.170534 -9.46143e-22)
(1.38894 0.156813 -2.08205e-20)
(0.114054 -0.00690929 -2.27165e-20)
(0.416479 0.00456497 3.57383e-20)
(0.761965 0.0609781 2.96325e-20)
(1.06912 0.125432 -4.27192e-20)
(1.28012 0.174489 -7.05532e-21)
(1.39029 0.200266 2.70455e-21)
(1.42763 0.206173 2.7122e-20)
(1.42483 0.199863 1.38637e-21)
(1.40525 0.186668 5.32573e-21)
(1.38113 0.172122 -1.14843e-20)
(0.134023 -0.00368839 1.72329e-20)
(0.466089 0.0189057 -1.55697e-20)
(0.823669 0.0865233 -1.32464e-20)
(1.12256 0.155807 2.27624e-20)
(1.31446 0.203742 7.8764e-21)
(1.40581 0.225684 5.95038e-21)
(1.43006 0.227617 -2.7605e-20)
(1.42018 0.218229 -9.50996e-21)
(1.39766 0.202838 -8.55446e-21)
(1.37247 0.187373 3.77322e-21)
(0.154841 0.000947825 -8.54154e-21)
(0.515322 0.0365071 -2.01824e-22)
(0.881406 0.115124 2.50582e-20)
(1.16931 0.187966 -9.21047e-21)
(1.3419 0.233686 -4.05317e-21)
(1.41593 0.251234 -2.67493e-21)
(1.42896 0.249042 6.67986e-21)
(1.41347 0.236564 1.15942e-20)
(1.38883 0.219007 -3.69327e-22)
(1.36298 0.202521 4.2805e-21)
(0.176227 0.00709436 6.01476e-21)
(0.563372 0.0573113 -1.68989e-21)
(0.934434 0.146446 -4.4768e-21)
(1.20926 0.22155 -4.05587e-21)
(1.36284 0.264074 3.65881e-21)
(1.42118 0.27679 2.862e-21)
(1.42476 0.270382 -2.64408e-21)
(1.40491 0.254822 9.691e-22)
(1.37886 0.23512 1.36754e-21)
(1.35266 0.217507 -1.82905e-21)
(0.197874 0.0148124 3.20163e-21)
(0.609462 0.0811739 9.16699e-22)
(0.98217 0.180114 -5.51529e-21)
(1.24239 0.2562 -4.40491e-21)
(1.37765 0.294671 4.60112e-21)
(1.42202 0.302224 9.01382e-22)
(1.41778 0.291564 -2.13026e-21)
(1.39466 0.272944 2.00976e-21)
(1.36777 0.251107 1.13372e-21)
(1.34152 0.232266 -1.31875e-21)
(0.219454 0.0241255 -1.2579e-21)
(0.65287 0.107871 2.56923e-21)
(1.02418 0.215723 1.69459e-20)
(1.26883 0.291564 -7.53468e-21)
(1.38676 0.325254 -3.71771e-21)
(1.41886 0.327413 -4.21329e-21)
(1.40828 0.312506 8.67574e-21)
(1.38283 0.290854 5.8805e-21)
(1.35558 0.266884 4.74421e-21)
(1.32955 0.246728 2.61334e-21)
(0.240628 0.0350174 2.55558e-20)
(0.692949 0.13711 -1.41263e-20)
(1.06015 0.252844 -1.61473e-20)
(1.28874 0.327295 2.19334e-20)
(1.39053 0.355606 1.15837e-20)
(1.41205 0.352229 -7.84924e-22)
(1.39645 0.333116 -1.4537e-20)
(1.36948 0.308462 -1.05477e-20)
(1.3423 0.282352 -1.11907e-20)
(1.31674 0.260817 6.75423e-21)
(0.261059 0.0474313 -3.45402e-20)
(0.72914 0.168539 3.26015e-20)
(1.08993 0.29104 3.75198e-20)
(1.30233 0.363054 -3.70822e-20)
(1.38934 0.385512 -1.29017e-20)
(1.40189 0.37654 8.36402e-21)
(1.38248 0.353293 1.53313e-20)
(1.35466 0.325673 2.46426e-21)
(1.3279 0.297406 -4.86386e-22)
(1.30299 0.274456 -9.33221e-21)
(0.280417 0.0612716 -4.91639e-21)
(0.760976 0.201756 -4.57555e-20)
(1.11341 0.329864 -4.90806e-20)
(1.30988 0.398512 5.52177e-20)
(1.38354 0.414765 -6.29258e-21)
(1.38863 0.400209 1.17533e-20)
(1.36648 0.372927 2.37722e-21)
(1.33841 0.342391 -6.64516e-21)
(1.31236 0.311966 3.58044e-21)
(1.28812 0.287565 -5.93238e-22)
(0.298387 0.0764058 1.00332e-20)
(0.788095 0.236327 2.82969e-20)
(1.13063 0.368871 1.60857e-20)
(1.31166 0.433349 -1.26527e-20)
(1.37346 0.443158 -1.98355e-20)
(1.37251 0.423093 -1.87037e-20)
(1.34856 0.3919 -3.84705e-21)
(1.32079 0.358522 1.0509e-20)
(1.2957 0.326018 -2.23092e-21)
(1.27203 0.300057 5.1825e-21)
(0.314684 0.0926676 -3.78413e-20)
(0.810235 0.271794 -3.54873e-20)
(1.14167 0.40762 -5.64101e-21)
(1.30798 0.467255 -6.37753e-21)
(1.35939 0.470487 -1.47247e-20)
(1.35373 0.445041 9.15524e-21)
(1.32883 0.410077 -1.62684e-21)
(1.30182 0.37394 -9.25174e-21)
(1.27799 0.339564 8.43877e-21)
(1.25504 0.31187 -1.28428e-20)
(0.329053 0.10986 9.0127e-21)
(0.827228 0.30769 3.00814e-20)
(1.14667 0.445683 2.62689e-20)
(1.29914 0.499929 2.8719e-20)
(1.34163 0.496551 4.63697e-22)
(1.33247 0.465905 2.59836e-20)
(1.30736 0.427322 1.9213e-21)
(1.28157 0.388489 -3.20916e-20)
(1.25914 0.352382 2.35244e-20)
(1.23741 0.322977 8.78184e-21)
(0.341277 0.127762 2.44775e-20)
(0.838993 0.343545 5.49626e-20)
(1.14583 0.482644 -7.28932e-21)
(1.28547 0.531083 -3.62373e-20)
(1.32045 0.521155 1.6488e-20)
(1.30889 0.48553 -1.74855e-20)
(1.28428 0.443499 -2.42307e-20)
(1.26008 0.402111 -2.5921e-21)
(1.23914 0.364301 -2.01233e-20)
(1.21906 0.333258 8.07159e-21)
(0.351182 0.146135 1.15809e-20)
(0.845526 0.378896 8.71307e-21)
(1.13942 0.518106 6.92708e-20)
(1.26731 0.560441 1.3236e-20)
(1.29612 0.544105 -1.17688e-20)
(1.28319 0.503754 -6.08343e-21)
(1.25971 0.458467 3.78508e-20)
(1.23739 0.414684 3.20583e-20)
(1.21813 0.375239 1.64236e-20)
(1.19992 0.342586 -2.42399e-21)
(0.358634 0.164725 2.51187e-21)
(0.846899 0.413293 -5.62833e-20)
(1.12772 0.551695 -8.16445e-20)
(1.24498 0.587748 2.80564e-21)
(1.26888 0.565205 1.68633e-20)
(1.25553 0.520417 -2.36232e-20)
(1.2337 0.472093 -5.66889e-20)
(1.21352 0.426089 -1.74818e-20)
(1.19616 0.38509 -1.13666e-21)
(1.18001 0.350878 1.01294e-20)
(0.363545 0.183275 -2.01943e-20)
(0.843257 0.446302 5.13447e-20)
(1.1111 0.583063 4.93335e-20)
(1.21882 0.612764 -4.66576e-20)
(1.23898 0.58427 7.04143e-21)
(1.22606 0.535357 5.95518e-20)
(1.20636 0.484244 -1.48276e-20)
(1.18859 0.436208 1.22737e-20)
(1.17331 0.393758 -7.0327e-21)
(1.15937 0.358061 -9.64749e-21)
(0.365876 0.201521 -4.58141e-20)
(0.834826 0.477501 -8.08706e-20)
(1.08992 0.611906 -1.5999e-20)
(1.18904 0.635228 2.66492e-20)
(1.20669 0.60114 2.76473e-20)
(1.19496 0.548418 -6.03775e-20)
(1.17781 0.49479 3.48092e-20)
(1.16268 0.444933 -2.07968e-20)
(1.14964 0.401147 1.83105e-20)
(1.13811 0.36407 -3.26746e-23)
(0.36564 0.219204 3.48808e-20)
(0.821902 0.506506 2.15845e-21)
(1.06444 0.637944 -7.87718e-21)
(1.15597 0.654935 -3.41874e-20)
(1.1723 0.615597 2.40359e-20)
(1.16241 0.559476 4.13076e-21)
(1.14818 0.503613 -2.22527e-20)
(1.1359 0.452159 2.24455e-21)
(1.12525 0.407161 -6.21241e-21)
(1.1163 0.368828 5.43442e-21)
(0.362909 0.236061 -9.85123e-21)
(0.804805 0.533031 -1.43512e-20)
(1.03475 0.660774 3.58138e-20)
(1.12014 0.67176 1.68984e-20)
(1.13608 0.627487 -2.39639e-20)
(1.1286 0.568392 3.88638e-20)
(1.1176 0.5106 1.83523e-21)
(1.10835 0.45779 1.16246e-21)
(1.10021 0.411697 -6.52442e-21)
(1.09405 0.372239 -7.48123e-22)
(0.357769 0.251795 6.4613e-20)
(0.78373 0.556876 5.00341e-20)
(1.00133 0.68018 -2.5131e-21)
(1.08196 0.685391 -8.79032e-21)
(1.09827 0.636737 -1.0245e-20)
(1.0937 0.575057 -5.4041e-21)
(1.08622 0.515653 7.57812e-22)
(1.08015 0.461744 3.38045e-21)
(1.07465 0.414661 6.76922e-21)
(1.07144 0.374199 1.85628e-21)
(0.350272 0.26609 6.69221e-21)
(0.758821 0.577595 9.52574e-21)
(0.964925 0.696169 -5.00712e-20)
(1.04174 0.695666 2.35579e-20)
(1.05914 0.643207 1.03919e-20)
(1.05791 0.579368 -2.4604e-20)
(1.0542 0.518681 7.25752e-21)
(1.0514 0.463947 1.00526e-21)
(1.04868 0.415986 -7.89087e-22)
(1.0487 0.374666 -1.45202e-21)
(0.340504 0.278722 -2.44195e-20)
(0.730443 0.594759 -1.89676e-20)
(0.925964 0.708472 1.82373e-20)
(0.999793 0.702548 6.99934e-21)
(1.01893 0.646798 -8.50334e-21)
(1.02142 0.581229 1.05525e-20)
(1.02165 0.519593 2.54289e-22)
(1.02221 0.464304 3.41033e-21)
(1.02256 0.415601 3.3769e-21)
(1.02659 0.373694 2.94252e-21)
(0.328698 0.28955 -2.00723e-20)
(0.699141 0.608203 5.599e-20)
(0.88478 0.716872 -3.80221e-20)
(0.956451 0.705949 -3.86426e-21)
(0.977917 0.647429 -1.01686e-20)
(0.984427 0.580566 6.4807e-21)
(0.988696 0.518309 -3.15117e-22)
(0.992687 0.462674 5.98776e-22)
(0.996748 0.413282 2.55403e-21)
(1.00593 0.371294 -3.66611e-22)
(0.315058 0.298459 -1.5433e-22)
(0.665355 0.617788 -1.62608e-20)
(0.841783 0.721211 1.21175e-20)
(0.91206 0.705791 -8.85406e-21)
(0.936352 0.645043 -2.32777e-21)
(0.947104 0.577334 1.91178e-21)
(0.955451 0.514793 4.04956e-21)
(0.963027 0.458966 -4.95501e-21)
(0.971603 0.408626 -1.03615e-20)
(0.985932 0.366647 6.1464e-21)
(0.29977 0.305277 3.15486e-21)
(0.62953 0.623387 3.07323e-22)
(0.797397 0.721401 3.60024e-22)
(0.866968 0.702015 -4.42977e-21)
(0.894504 0.639603 -1.09611e-21)
(0.909654 0.57151 -8.51651e-21)
(0.922119 0.509053 -2.11938e-21)
(0.933533 0.453333 -2.3916e-21)
(0.947084 0.401909 1.78864e-20)
(0.963302 0.355899 -2.57934e-21)
(0.283065 0.309871 -1.08217e-20)
(0.592104 0.624902 -5.94963e-21)
(0.752049 0.717399 3.37151e-21)
(0.821522 0.694592 1.72968e-21)
(0.852638 0.631087 -5.64612e-21)
(0.872297 0.563072 2.00843e-20)
(0.888975 0.501059 -1.64849e-20)
(0.904439 0.445861 2.03918e-20)
(0.921953 0.395202 -1.41957e-20)
(0.937795 0.350745 -2.00299e-20)
(0.265195 0.312139 3.87806e-21)
(0.553508 0.622268 -4.15776e-21)
(0.706161 0.70919 1.85447e-21)
(0.776066 0.683519 8.1845e-21)
(0.811021 0.619493 -5.11505e-21)
(0.835265 0.552003 7.56764e-21)
(0.856232 0.490758 9.28107e-21)
(0.875766 0.436239 -4.96127e-21)
(0.896698 0.386092 -1.58206e-20)
(0.913549 0.341816 2.12947e-20)
(0.246418 0.312008 4.79084e-21)
(0.514174 0.615461 5.59138e-21)
(0.660148 0.696796 -7.33511e-21)
(0.730935 0.668821 -6.13935e-21)
(0.769919 0.60484 2.99271e-20)
(0.798778 0.538325 -3.15319e-20)
(0.824036 0.47821 3.97693e-20)
(0.847503 0.424742 -9.72776e-21)
(0.871502 0.375725 1.05647e-20)
(0.890049 0.332692 2.10134e-20)
(0.226999 0.309437 -7.52265e-22)
(0.474529 0.604492 -7.13737e-21)
(0.614416 0.680266 -7.19382e-21)
(0.686462 0.650547 -3.04413e-21)
(0.729595 0.587166 5.67935e-21)
(0.763059 0.522064 -9.58154e-21)
(0.792562 0.46342 -1.17369e-20)
(0.819826 0.411284 -2.7603e-20)
(0.846763 0.363638 2.77187e-20)
(0.867456 0.322052 -8.50622e-21)
(0.207201 0.304409 1.96459e-20)
(0.434993 0.589409 -3.28613e-21)
(0.569359 0.659679 -1.02721e-20)
(0.642966 0.628772 1.20219e-20)
(0.690309 0.566532 -2.12118e-20)
(0.728319 0.50327 6.01377e-20)
(0.761976 0.446446 -3.24171e-20)
(0.7929 0.395964 2.9691e-20)
(0.822708 0.350012 -5.4363e-20)
(0.845787 0.310064 -1.46119e-20)
(0.187286 0.296937 -4.42154e-21)
(0.395973 0.570298 2.10872e-20)
(0.525356 0.635145 4.40239e-21)
(0.600759 0.603594 -1.17376e-20)
(0.652309 0.543019 -2.05783e-20)
(0.694765 0.482009 -2.45761e-23)
(0.73245 0.427339 1.08056e-20)
(0.766894 0.378811 -2.72471e-20)
(0.7995 0.334812 1.30599e-20)
(0.825075 0.296641 1.67074e-21)
(0.167514 0.28706 -3.67864e-20)
(0.357866 0.547278 -8.75172e-21)
(0.482773 0.606801 -2.70562e-21)
(0.560137 0.575135 3.15021e-20)
(0.615838 0.516727 -2.98102e-20)
(0.662597 0.458365 -7.36893e-21)
(0.704157 0.406176 -4.77686e-21)
(0.74197 0.359892 8.48221e-21)
(0.77728 0.318084 -1.12401e-20)
(0.805382 0.281825 -1.73613e-20)
(0.148136 0.274844 3.42121e-20)
(0.321047 0.520499 -1.97916e-20)
(0.441957 0.574812 7.10411e-22)
(0.521384 0.543539 -4.83914e-20)
(0.581125 0.487775 5.28703e-20)
(0.632007 0.432439 -1.6759e-20)
(0.677262 0.383041 1.00214e-20)
(0.718275 0.339274 8.80785e-21)
(0.756172 0.299871 2.55213e-20)
(0.786778 0.265662 -1.07495e-20)
(0.129393 0.260378 -1.37599e-20)
(0.285877 0.490143 4.14335e-20)
(0.403235 0.539368 2.35609e-20)
(0.484769 0.508972 3.9292e-20)
(0.54839 0.456301 -8.94313e-21)
(0.603179 0.404347 3.69548e-21)
(0.651922 0.358035 2.96878e-20)
(0.695949 0.31704 6.76742e-21)
(0.736291 0.280238 6.57603e-22)
(0.769337 0.248222 -1.29781e-20)
(0.111516 0.243777 -3.36052e-20)
(0.252691 0.456423 -2.31985e-21)
(0.366913 0.500684 -1.41287e-20)
(0.450542 0.471619 -6.40857e-20)
(0.517838 0.422461 -6.2188e-20)
(0.576287 0.37422 1.03006e-20)
(0.628288 0.33127 -2.55615e-20)
(0.67512 0.293283 1.65678e-20)
(0.717747 0.259264 8.9588e-21)
(0.753135 0.229587 1.83608e-20)
(0.0947203 0.225175 5.05588e-20)
(0.221801 0.419576 -4.14294e-20)
(0.333276 0.458997 -2.12137e-20)
(0.418936 0.431685 3.71581e-20)
(0.48966 0.386426 4.26845e-20)
(0.551492 0.342206 -1.43683e-20)
(0.606497 0.302872 -1.963e-21)
(0.65591 0.268109 -5.13066e-20)
(0.700641 0.237039 -2.89749e-20)
(0.738241 0.209848 1.10988e-20)
(0.0792057 0.204729 -2.89434e-20)
(0.193495 0.379864 1.21507e-20)
(0.302582 0.414565 4.51709e-20)
(0.390163 0.389392 -2.06049e-20)
(0.464032 0.348383 1.77795e-21)
(0.528943 0.308463 5.77339e-20)
(0.586677 0.272978 2.54476e-21)
(0.638429 0.241635 4.9547e-20)
(0.68507 0.213666 2.06239e-20)
(0.724725 0.189104 -3.28188e-20)
(0.0651542 0.18261 4.09222e-20)
(0.16803 0.337571 4.67503e-21)
(0.275065 0.367666 3.04632e-21)
(0.364416 0.344977 4.16378e-20)
(0.441111 0.308533 -5.44407e-21)
(0.508775 0.273162 -3.63646e-20)
(0.568944 0.241736 1.78203e-20)
(0.622778 0.213988 -2.85564e-20)
(0.671122 0.189256 -1.18588e-20)
(0.712646 0.167459 1.19857e-20)
(0.0527279 0.159011 -2.54785e-20)
(0.145636 0.293004 -4.92708e-20)
(0.250931 0.318593 1.15013e-20)
(0.341864 0.298693 -2.24565e-20)
(0.42104 0.267089 -1.34507e-20)
(0.491107 0.236486 3.28257e-20)
(0.553401 0.209301 -7.93363e-21)
(0.609047 0.185301 7.22653e-21)
(0.658874 0.163926 -8.85891e-21)
(0.702061 0.145022 1.76769e-20)
(0.0420682 0.134134 9.3984e-21)
(0.126512 0.246483 3.338e-20)
(0.23036 0.267656 -4.65619e-20)
(0.322655 0.250803 2.19315e-20)
(0.403941 0.224274 -1.00207e-20)
(0.476044 0.198628 -2.81928e-20)
(0.540137 0.17584 2.30755e-20)
(0.597315 0.155719 4.78258e-21)
(0.648398 0.137804 -7.386e-22)
(0.693018 0.121906 -2.05442e-20)
(0.0332943 0.108198 3.12403e-21)
(0.110823 0.198345 1.09032e-20)
(0.213501 0.215175 4.23374e-20)
(0.306912 0.201584 -8.16344e-21)
(0.389915 0.180322 -6.43491e-21)
(0.463673 0.159786 2.35132e-21)
(0.529228 0.141524 1.13111e-21)
(0.58765 0.125389 8.62461e-21)
(0.639753 0.11102 -1.13529e-20)
(0.685558 0.0982263 -7.20692e-21)
(0.026502 0.0814301 -7.7495e-21)
(0.0987045 0.148939 -1.32607e-20)
(0.200474 0.161483 -3.31317e-20)
(0.294734 0.151318 1.66855e-20)
(0.379046 0.135473 1.35774e-20)
(0.454064 0.120168 5.79958e-22)
(0.520735 0.106533 -2.26859e-20)
(0.580106 0.094467 -1.01033e-20)
(0.632987 0.0837101 7.95352e-21)
(0.679713 0.0741002 8.53627e-21)
(0.0217635 0.0540641 1.3632e-21)
(0.0902549 0.0986233 -2.8134e-21)
(0.191368 0.106919 6.2787e-21)
(0.286196 0.100297 -4.24736e-21)
(0.371395 0.0899744 -3.7845e-21)
(0.447272 0.0799842 -2.55993e-21)
(0.514704 0.071048 4.68819e-21)
(0.574724 0.0631102 1.78637e-20)
(0.628138 0.0560125 2.57501e-21)
(0.675507 0.0496426 -4.56136e-21)
(0.281346 0.0488152 -3.63876e-21)
(0.367004 0.0440766 3.46256e-21)
(0.44333 0.0394513 1.56134e-21)
(0.511166 0.0352553 -1.55351e-21)
(0.571531 0.0314798 -7.08442e-21)
(0.625228 0.0280674 2.33165e-21)
(0.672954 0.0249672 -2.17763e-21)
(1.33188 0.200548 -2.16159e-22)
(1.3418 0.187938 -2.10142e-21)
(1.35109 0.175092 -4.51625e-22)
(1.35978 0.162049 -1.22118e-21)
(1.36785 0.148848 7.09834e-21)
(1.37533 0.135524 -6.73044e-21)
(1.38219 0.122104 4.21084e-21)
(1.38839 0.108609 1.75565e-20)
(1.31483 0.18804 -5.64877e-23)
(1.32431 0.176641 1.79796e-21)
(1.3333 0.165016 1.54674e-21)
(1.3418 0.15319 -7.68611e-21)
(1.34984 0.141187 2.48999e-21)
(1.35742 0.129031 -1.54056e-21)
(1.36456 0.116742 4.26718e-21)
(1.37124 0.104337 -8.373e-21)
(1.29872 0.175525 5.82509e-22)
(1.30744 0.165216 1.32985e-21)
(1.3158 0.154698 7.49176e-22)
(1.32382 0.143991 3.81114e-21)
(1.33151 0.133113 5.08393e-21)
(1.33889 0.122076 7.4025e-21)
(1.34596 0.11089 -2.28705e-22)
(1.35274 0.099564 1.38699e-21)
(1.28386 0.163531 -1.93658e-22)
(1.29178 0.15418 -2.29337e-21)
(1.29942 0.14465 -2.12667e-21)
(1.3068 0.134956 1.55326e-21)
(1.31394 0.125105 -5.75778e-21)
(1.32087 0.115104 -1.33989e-20)
(1.32759 0.104954 5.92136e-21)
(1.33413 0.0946586 7.24282e-22)
(1.27008 0.15211 2.67437e-23)
(1.27726 0.143632 1.14418e-21)
(1.2842 0.134991 2.88574e-21)
(1.29093 0.126195 1.12306e-21)
(1.29747 0.11725 -2.42817e-22)
(1.30383 0.108159 3.26002e-21)
(1.31004 0.0989212 2.56371e-21)
(1.31612 0.0895367 -2.85463e-21)
(1.25706 0.141249 2.53633e-24)
(1.26357 0.133556 1.24543e-21)
(1.26988 0.125713 -2.11893e-21)
(1.276 0.117722 -1.58345e-21)
(1.28195 0.109587 1.00977e-21)
(1.28775 0.10131 2.21803e-21)
(1.29342 0.0928884 -3.84983e-21)
(1.29896 0.0843195 -1.87394e-21)
(1.24461 0.130908 1.2367e-22)
(1.25052 0.123926 -1.29491e-21)
(1.25624 0.116808 1.91847e-21)
(1.2618 0.109553 1.23388e-21)
(1.26722 0.102163 2.3622e-21)
(1.27249 0.0946361 -9.67238e-22)
(1.27764 0.086972 -6.40908e-21)
(1.28267 0.0791644 4.2325e-21)
(1.23265 0.12107 -2.92612e-22)
(1.23799 0.114742 -5.9401e-22)
(1.24318 0.108291 -6.42875e-22)
(1.24822 0.101716 -7.04951e-22)
(1.25313 0.0950166 4.48657e-22)
(1.25792 0.0881906 2.67897e-21)
(1.26259 0.0812367 7.08479e-21)
(1.26715 0.0741481 1.4906e-21)
(1.22115 0.111721 1.43333e-22)
(1.22597 0.106 -5.4358e-23)
(1.23065 0.100168 -2.66057e-22)
(1.23521 0.0942244 -1.21663e-21)
(1.23965 0.0881681 -2.1324e-21)
(1.24397 0.0819964 -2.79339e-21)
(1.2482 0.0757074 -1.86774e-21)
(1.25233 0.0692951 -2.68512e-21)
(1.21009 0.102898 9.43671e-23)
(1.21442 0.0977315 1.08855e-21)
(1.21863 0.0924676 9.29826e-23)
(1.22273 0.0871051 9.17199e-22)
(1.22672 0.0816428 5.95658e-23)
(1.23062 0.0760778 -4.0469e-21)
(1.23443 0.0704078 -2.70002e-22)
(1.23815 0.0646279 2.32592e-21)
(1.19943 0.0945891 -2.26574e-22)
(1.20331 0.089934 2.94427e-22)
(1.20708 0.0851938 -3.09424e-22)
(1.21076 0.0803681 -5.96402e-22)
(1.21435 0.0754554 -8.82913e-22)
(1.21785 0.0704532 2.72245e-21)
(1.22127 0.065359 1.31501e-21)
(1.2246 0.060169 -2.19865e-21)
(1.18917 0.0867726 7.37272e-23)
(1.19263 0.0825911 -9.66266e-22)
(1.19601 0.0783367 5.22082e-22)
(1.1993 0.0740089 3.68579e-23)
(1.20251 0.0696062 9.68399e-22)
(1.20564 0.0651267 -1.02132e-21)
(1.2087 0.0605681 1.35636e-21)
(1.21168 0.0559273 1.7451e-21)
(1.17931 0.0794589 4.84067e-23)
(1.1824 0.0757102 3.94167e-22)
(1.18541 0.0719018 -9.48327e-22)
(1.18834 0.0680322 -1.7559e-22)
(1.19121 0.0640999 -1.04913e-21)
(1.194 0.0601031 1.11426e-21)
(1.19673 0.05604 -4.21594e-21)
(1.19939 0.0519081 -2.54851e-21)
(1.16982 0.0726055 -1.22639e-22)
(1.17258 0.0692607 1.31241e-22)
(1.17527 0.0658666 7.88248e-22)
(1.17789 0.0624217 -4.4499e-22)
(1.18044 0.0589248 1.7248e-21)
(1.18293 0.0553747 -6.10728e-22)
(1.18536 0.0517698 8.40931e-22)
(1.18773 0.0481082 1.43653e-21)
(1.16077 0.0661819 1.20979e-22)
(1.16322 0.0632148 -4.75083e-23)
(1.16561 0.060206 -6.57207e-22)
(1.16794 0.0571551 1.47664e-21)
(1.17022 0.0540616 -8.31678e-22)
(1.17243 0.0509247 7.07494e-22)
(1.17459 0.0477431 7.34864e-22)
(1.17669 0.0445157 2.91432e-22)
(1.15213 0.0601959 6.98646e-23)
(1.15431 0.0575722 1.12451e-22)
(1.15644 0.0549148 3.12351e-22)
(1.15851 0.0522241 -1.12604e-21)
(1.16053 0.0494996 -7.1731e-22)
(1.1625 0.0467408 1.29708e-22)
(1.16442 0.0439469 -6.67357e-22)
(1.16628 0.041117 7.706e-22)
(1.1681 0.03825 -2.89767e-21)
(1.1439 0.0546029 -1.01579e-22)
(1.14584 0.0522951 -3.18039e-23)
(1.14774 0.0499611 -8.94205e-25)
(1.14958 0.047601 8.13597e-22)
(1.15138 0.0452147 5.37241e-22)
(1.15313 0.042802 -3.52425e-22)
(1.15484 0.0403624 -6.36576e-22)
(1.1565 0.0378954 1.63843e-22)
(1.15811 0.0354002 4.48086e-22)
(1.1361 0.0493719 7.89741e-23)
(1.13783 0.0473533 -1.59336e-23)
(1.13952 0.0453148 2.90236e-22)
(1.14117 0.0432566 -2.76766e-22)
(1.14277 0.0411788 -3.63879e-23)
(1.14433 0.0390814 7.17901e-22)
(1.14585 0.0369641 3.01942e-22)
(1.14733 0.0348266 -8.94815e-22)
(1.14877 0.0326687 -4.12522e-22)
(1.12874 0.0444697 -8.06685e-23)
(1.13029 0.0427152 -1.00895e-22)
(1.1318 0.0409461 -5.11168e-23)
(1.13327 0.0391627 -4.30331e-23)
(1.1347 0.0373652 -4.62053e-22)
(1.1361 0.0355537 5.13931e-22)
(1.13746 0.0337282 -3.46285e-22)
(1.13877 0.0318886 -7.86412e-22)
(1.14006 0.0300349 1.11788e-21)
(1.12182 0.0398611 -4.16729e-23)
(1.12321 0.038347 1.08048e-22)
(1.12456 0.0368225 -2.78891e-23)
(1.12588 0.0352882 -1.22653e-22)
(1.12717 0.0337442 1.48593e-22)
(1.12842 0.0321909 -3.57845e-22)
(1.12964 0.0306283 6.1016e-22)
(1.13082 0.0290566 5.45911e-22)
(1.13197 0.0274758 -7.12082e-23)
(1.11535 0.0355101 6.42227e-23)
(1.11661 0.0342138 -7.14406e-23)
(1.11783 0.0329108 -3.15076e-23)
(1.11902 0.0316013 -1.5364e-22)
(1.12019 0.0302858 6.00923e-23)
(1.12131 0.0289646 1.51445e-22)
(1.12241 0.0276379 -5.15354e-23)
(1.12348 0.0263059 -6.62283e-22)
(1.12451 0.0249689 4.70505e-22)
(1.10936 0.0313802 4.5692e-24)
(1.1105 0.0302809 -7.26435e-23)
(1.11162 0.0291775 -8.6677e-23)
(1.1127 0.0280705 5.6209e-23)
(1.11375 0.0269601 2.3656e-22)
(1.11477 0.0258468 -2.22049e-22)
(1.11577 0.0247308 -4.54254e-22)
(1.11673 0.0236125 5.26193e-22)
(1.11767 0.0224921 -7.59652e-22)
(1.10387 0.0274351 -4.75607e-24)
(1.10491 0.0265135 -2.57293e-23)
(1.10593 0.0255898 1.07724e-22)
(1.10692 0.0246644 -3.30186e-23)
(1.10788 0.0237377 -2.21069e-22)
(1.10881 0.0228101 2.95646e-22)
(1.10972 0.0218819 -3.65266e-22)
(1.1106 0.0209533 -2.06911e-22)
(1.11145 0.0200248 6.30719e-22)
(1.09889 0.0236384 -2.74572e-23)
(1.09985 0.0228769 6.65824e-23)
(1.10079 0.0221147 6.45796e-23)
(1.1017 0.0213522 -8.30963e-23)
(1.10258 0.0205898 -1.0545e-23)
(1.10344 0.0198278 -2.82713e-22)
(1.10427 0.0190665 -2.11625e-23)
(1.10508 0.0183063 2.93214e-22)
(1.10586 0.0175473 -4.62888e-22)
(1.09446 0.0199552 -1.01475e-25)
(1.09536 0.0193377 1.25843e-23)
(1.09622 0.0187207 7.43444e-25)
(1.09707 0.0181042 5.62197e-23)
(1.09789 0.0174888 2.97602e-22)
(1.09868 0.0168745 -2.22097e-22)
(1.09945 0.0162618 1.28539e-22)
(1.1002 0.0156509 -3.43729e-24)
(1.10092 0.015042 -3.22472e-22)
(1.09061 0.0163458 1.95489e-23)
(1.09145 0.015859 -4.63928e-23)
(1.09226 0.0153731 1.24316e-23)
(1.09305 0.0148884 -1.13726e-22)
(1.09382 0.014405 4.60042e-23)
(1.09457 0.0139232 7.53868e-23)
(1.09529 0.0134432 1.78362e-22)
(1.09598 0.0129652 2.34612e-23)
(1.09665 0.0124895 -4.32332e-23)
(1.08739 0.0127753 1.81945e-23)
(1.08818 0.0124086 -9.21976e-24)
(1.08895 0.0120428 -3.40001e-23)
(1.0897 0.0116782 9.17663e-23)
(1.09043 0.0113149 -1.57499e-22)
(1.09113 0.0109532 1.17827e-22)
(1.09181 0.0105931 6.5607e-23)
(1.09246 0.0102349 -2.37581e-22)
(1.0931 0.00987872 -1.48343e-22)
(1.08485 0.00919709 2.18742e-24)
(1.08561 0.00894077 -4.51444e-23)
(1.08635 0.00868538 1.52171e-23)
(1.08706 0.00843105 -1.21373e-22)
(1.08775 0.00817791 1.28629e-22)
(1.08842 0.00792606 2.06325e-23)
(1.08907 0.0076756 7.03563e-23)
(1.0897 0.00742663 -2.4126e-22)
(1.0903 0.00717926 4.01089e-22)
(1.08306 0.00559732 3.84664e-25)
(1.08379 0.00544586 1.0511e-23)
(1.08451 0.00529491 1.32603e-23)
(1.0852 0.00514452 -4.79265e-23)
(1.08587 0.00499474 9.01631e-23)
(1.08651 0.00484563 -1.02151e-22)
(1.08714 0.00469725 1.16347e-22)
(1.08775 0.00454966 -4.6394e-23)
(1.08833 0.00440293 -1.02629e-22)
(1.08211 0.0018567 9.99472e-25)
(1.08283 0.00180928 -3.17571e-23)
(1.08353 0.00176226 6.75728e-23)
(1.0842 0.00171558 6.68086e-23)
(1.08486 0.00166918 -4.1569e-23)
(1.08549 0.001623 6.73629e-23)
(1.0861 0.00157699 -7.21752e-23)
(1.08669 0.0015311 -2.02821e-23)
(1.08726 0.00148531 -3.8959e-23)
(1.00569 0.336509 8.55608e-22)
(1.02665 0.334538 -5.22258e-22)
(1.04546 0.333344 6.40367e-22)
(1.06452 0.331874 1.91485e-23)
(1.08433 0.329788 -1.27986e-22)
(1.10399 0.327125 3.31666e-22)
(1.12311 0.323806 -1.99993e-21)
(1.14177 0.319715 -2.25567e-21)
(1.16001 0.314807 3.87322e-22)
(1.17776 0.309088 -6.92902e-21)
(1.19495 0.302576 -4.58602e-21)
(1.21156 0.295299 4.24349e-21)
(1.22757 0.2873 -9.02453e-21)
(1.24297 0.278597 -2.19994e-21)
(1.25777 0.269182 4.11087e-21)
(1.27208 0.258852 -5.30844e-21)
(1.28563 0.247925 8.17466e-22)
(1.29828 0.236595 4.10533e-22)
(1.31014 0.224909 1.95142e-21)
(1.32133 0.212884 3.22149e-22)
(1.019 0.318 -1.60956e-21)
(1.0397 0.315703 6.1033e-22)
(1.05814 0.314291 -3.29234e-22)
(1.07505 0.312814 1.46463e-21)
(1.09244 0.310587 1.28091e-22)
(1.10994 0.307628 -5.7826e-22)
(1.12691 0.304011 1.37734e-21)
(1.1434 0.299681 5.70087e-21)
(1.15953 0.294606 -6.49113e-21)
(1.17527 0.288816 4.28147e-21)
(1.19056 0.282355 -1.01876e-21)
(1.20539 0.275258 -4.76457e-21)
(1.2197 0.267559 3.5977e-21)
(1.23353 0.25927 -2.32335e-21)
(1.24664 0.250427 6.02528e-22)
(1.25923 0.240922 -1.35233e-21)
(1.27154 0.230961 5.62705e-21)
(1.28327 0.220662 -1.04878e-21)
(1.29434 0.210067 -1.64433e-21)
(1.30485 0.199188 2.32754e-23)
(1.03243 0.298011 -7.13507e-22)
(1.05174 0.296419 -7.39013e-22)
(1.06951 0.294892 1.55446e-22)
(1.08487 0.293135 -1.22752e-21)
(1.1002 0.290636 8.50196e-22)
(1.11587 0.28735 7.25284e-23)
(1.13117 0.283436 2.02667e-21)
(1.14593 0.278935 4.84456e-21)
(1.16029 0.273827 8.84792e-21)
(1.17428 0.268123 -4.05625e-22)
(1.18787 0.261862 6.69477e-21)
(1.201 0.255079 -1.01676e-21)
(1.21365 0.247786 -9.37808e-22)
(1.22582 0.240027 3.66477e-22)
(1.23742 0.231786 -5.5803e-21)
(1.24863 0.223263 -3.41781e-21)
(1.25965 0.214319 -2.4378e-21)
(1.27015 0.205018 -5.97458e-22)
(1.28012 0.195437 -1.31376e-21)
(1.28962 0.185604 -6.17091e-22)
(1.04484 0.279804 -8.74467e-22)
(1.06244 0.278354 4.68703e-22)
(1.07904 0.276467 6.69662e-22)
(1.09301 0.274225 -6.6681e-23)
(1.10653 0.271401 6.58771e-22)
(1.12043 0.267901 -2.2957e-21)
(1.13417 0.263842 -1.76426e-21)
(1.1474 0.259305 -8.41089e-21)
(1.1602 0.254284 -2.63754e-21)
(1.17266 0.248775 7.39603e-21)
(1.18476 0.242801 -3.60407e-21)
(1.19646 0.236398 5.85456e-21)
(1.20774 0.229586 -4.14398e-22)
(1.21859 0.222411 -3.35331e-21)
(1.22902 0.21488 8.60414e-21)
(1.23898 0.207119 3.56099e-21)
(1.24864 0.198929 -1.01125e-21)
(1.25804 0.190406 1.34804e-21)
(1.26704 0.18165 2.09603e-21)
(1.27563 0.172691 2.37732e-22)
(1.05603 0.262378 1.26056e-21)
(1.07186 0.260689 -2.07923e-22)
(1.08706 0.258407 -6.55637e-23)
(1.09975 0.255753 7.71068e-22)
(1.11171 0.25268 -6.90653e-22)
(1.12399 0.249084 9.85412e-22)
(1.13625 0.245008 -1.40173e-21)
(1.14808 0.240528 4.33418e-21)
(1.15948 0.235661 -6.24385e-21)
(1.17055 0.230399 -8.76801e-21)
(1.18131 0.224754 -1.5783e-22)
(1.19172 0.218753 -2.41735e-21)
(1.20178 0.212419 1.27652e-21)
(1.21147 0.205773 -1.38007e-21)
(1.22081 0.198834 -2.5451e-21)
(1.22972 0.191628 1.30811e-22)
(1.23831 0.184168 -7.25581e-22)
(1.24674 0.176462 -2.3193e-21)
(1.25486 0.168537 -8.18554e-22)
(1.26263 0.160415 -9.72841e-23)
(1.06593 0.245219 -2.02262e-22)
(1.08004 0.243282 -3.4658e-22)
(1.09371 0.240747 -1.86381e-22)
(1.10516 0.23785 -1.58427e-21)
(1.11577 0.234645 4.52918e-23)
(1.12659 0.231045 -7.75848e-22)
(1.13746 0.227041 3.57769e-21)
(1.14801 0.222687 2.69284e-21)
(1.15814 0.218015 5.36309e-21)
(1.16796 0.213025 2.95408e-21)
(1.17751 0.207721 2.04133e-21)
(1.18677 0.202121 -1.35543e-22)
(1.19573 0.196246 7.19889e-22)
(1.20436 0.190111 2.72976e-21)
(1.21269 0.183734 -2.17786e-21)
(1.22068 0.177119 -6.1224e-22)
(1.22841 0.170319 1.60418e-21)
(1.23598 0.163335 1.80234e-21)
(1.24329 0.156152 -1.27363e-21)
(1.25031 0.148784 4.76348e-23)
(1.07454 0.228394 -2.1757e-22)
(1.08701 0.226286 2.93887e-22)
(1.09911 0.223626 -1.62708e-22)
(1.10936 0.220619 -8.56432e-22)
(1.11878 0.217368 2.26885e-21)
(1.1283 0.21382 4.48986e-21)
(1.1379 0.20994 2.89095e-21)
(1.14725 0.205759 -7.54355e-21)
(1.15625 0.201312 -1.9959e-21)
(1.16495 0.196608 -2.47907e-22)
(1.17341 0.19165 6.2949e-22)
(1.18163 0.186449 -1.25692e-21)
(1.18959 0.181023 -1.92252e-21)
(1.19728 0.175383 3.7893e-21)
(1.20471 0.169551 7.82184e-22)
(1.21185 0.163528 -1.51555e-21)
(1.2188 0.157357 -1.38625e-21)
(1.22561 0.150996 5.97514e-22)
(1.23219 0.144453 1.33565e-21)
(1.23851 0.137752 -1.78209e-22)
(1.08181 0.212072 -2.5525e-22)
(1.09277 0.209853 -1.35885e-22)