/*--------------------------------*- C++ -*----------------------------------*\
  =========                 |
  \\      /  F ield         | OpenFOAM: The Open Source CFD Toolbox
   \\    /   O peration     | Website:  https://openfoam.org
    \\  /    A nd           | Version:  7
     \\/     M anipulation  |
\*---------------------------------------------------------------------------*/
FoamFile
{
    version     2.0;
    format      ascii;
    class       surfaceScalarField;
    location    "40";
    object      phi;
}
// * * * * * * * * * * * * * * * * * * * * * * * * * * * * * * * * * * * * * //

dimensions      [0 3 -1 0 0 0 0];

internalField   nonuniform List<scalar> 
4147
(
-4.23249e-05
4.23249e-05
1.90427e-12
-0.000145019
0.000102694
1.72653e-12
-0.000292242
0.000147223
1.51959e-12
-0.000468572
0.00017633
-0.000659459
0.000190887
-0.000851993
0.000192533
-0.00103591
0.000183915
-0.00120503
0.000169119
-0.00135819
0.000153158
0.000142409
-0.00150059
-4.15572e-05
8.38821e-05
-0.000142027
0.000203164
-0.000285438
0.000290635
-0.000456175
0.000347067
-0.000639412
0.000374124
-0.000821873
0.000374994
-0.000992836
0.000354878
-0.00114561
0.000321899
-0.0012786
0.000286142
0.000260333
-0.00139652
-4.00333e-05
0.000123915
-0.000136079
0.00029921
-0.00027191
0.000426466
-0.000431518
0.000506675
-0.000599534
0.00054214
-0.000761953
0.000537413
-0.000907139
0.000500064
-0.00102738
0.000442144
-0.00112017
0.000378927
0.000329446
-0.00118928
-3.77758e-05
0.000161691
-0.000127251
0.000388685
-0.00025181
0.000551025
-0.000394866
0.00064973
-0.000540241
0.000687515
-0.000672849
0.00067002
-0.00077969
0.000606906
-0.000851516
0.00051397
-0.000884405
0.000411816
0.000325645
-0.000880604
-3.48157e-05
0.000196507
-0.000115645
0.000469515
-0.000225353
0.000660732
-0.00034659
0.000770968
-0.000462122
0.000803047
-0.00055544
0.000763338
-0.000611736
0.000663201
-0.00061968
0.000521913
-0.000573747
0.000365884
0.000224826
-0.000472928
-3.119e-05
0.000227697
-0.000101384
0.000539709
-0.000192796
0.000752144
-0.000287143
0.000865315
-0.000365899
0.000881803
-0.000410814
0.000808254
-0.000404831
0.000657218
-0.000333759
0.000450841
-0.000190302
0.000222428
1.95454e-05
1.4978e-05
-2.69384e-05
0.000254635
-8.46012e-05
0.000597372
-0.00015442
0.000821963
-0.00021702
0.000927915
-0.000252373
0.000917157
-0.000240186
0.000796067
-0.000160779
0.00057781
2.61916e-06
0.000287443
0.000263888
-3.88407e-05
-0.000338097
0.00062153
-2.20995e-05
0.000276735
-6.54279e-05
0.0006407
-0.000110507
0.000867042
-0.000136726
0.000954133
-0.000122373
0.000902804
-4.48574e-05
0.000718551
0.000118641
0.000414312
0.000389342
1.67422e-05
0.000782324
-0.000431822
-0.000857324
0.00130155
-1.67076e-05
0.000293442
-4.39826e-05
0.000667975
-6.13156e-05
0.000884375
-4.67321e-05
0.00093955
2.33063e-05
0.000832765
0.000173882
0.000567976
0.000431228
0.000156966
0.000820845
-0.000372875
0.00136294
-0.000973915
-0.00155874
0.00206436
-1.07889e-05
0.000304231
-2.03612e-05
0.000677547
-7.05914e-06
0.000871073
5.25556e-05
0.000879935
0.000183962
0.000701359
0.000414867
0.000337072
0.000775125
-0.000203293
0.00129516
-0.000892912
0.00200113
-0.00167988
-0.00246178
0.00290416
-4.36265e-06
0.000308594
5.36855e-06
0.000667816
5.20939e-05
0.000824347
0.000160828
0.000771201
0.000359048
0.000503139
0.000677132
1.8988e-05
0.00114867
-0.000674828
0.00180941
-0.00155365
0.00269251
-0.00256298
-0.00358436
0.00381509
2.57979e-06
0.000306014
3.31634e-05
0.000637233
0.000116052
0.000741459
0.000277885
0.000609367
0.000548187
0.000232837
0.000959978
-0.000392802
0.00155051
-0.00126536
0.00236102
-0.00236417
0.0034327
-0.00363466
-0.00494269
0.00479103
1.00167e-05
0.000295997
6.30215e-05
0.000584228
0.000184763
0.000619717
0.000403619
0.000390511
0.000751179
-0.000114722
0.001263
-0.000904626
0.00197973
-0.00198208
0.00294791
-0.00333235
0.00421751
-0.00490426
-0.00655045
0.00582528
1.79746e-05
0.000278023
9.49384e-05
0.000507264
0.000258205
0.000456451
0.000537977
0.000110739
0.00096795
-0.000544695
0.00158608
-0.00152276
0.00243594
-0.00283194
0.00356869
-0.00446509
0.0050432
-0.00637877
-0.00841792
0.00691066
2.64574e-05
0.000251565
0.000128909
0.000404812
0.000336335
0.000249025
0.000680887
-0.000233814
0.00119845
-0.00106226
0.00192926
-0.00225357
0.00291924
-0.00382192
0.00422292
-0.00576878
0.00590698
-0.00806283
-0.0105506
0.00803963
3.54653e-05
0.0002161
0.000164894
0.000275384
0.000419036
-5.11711e-06
0.00083215
-0.000646927
0.00144246
-0.00167257
0.00229251
-0.00310362
0.00343002
-0.00495942
0.00491127
-0.00725003
0.00680781
-0.00995937
-0.0129475
0.00920473
4.49825e-05
0.000171118
0.000202796
0.000117571
0.000506052
-0.000308373
0.000991298
-0.00113217
0.00169937
-0.00238063
0.00267534
-0.0040796
0.00396856
-0.00625264
0.00563535
-0.00891682
0.00774708
-0.0120711
-0.0156006
0.0104002
5.49696e-05
0.000116148
0.000242427
-6.98864e-05
0.000596914
-0.000662861
0.00115745
-0.00169271
0.00196782
-0.00319101
0.00307627
-0.00518805
0.00453439
-0.00771077
0.00639772
-0.0107801
0.00872897
-0.0144023
-0.0184984
0.0116268
6.53595e-05
5.07885e-05
0.000283499
-0.000288026
0.000690901
-0.00107026
0.00132916
-0.00233097
0.0022454
-0.00410724
0.00349201
-0.00643466
0.00512543
-0.00934418
0.00720359
-0.0128583
0.0097679
-0.0169667
-0.0216301
0.0128996
7.60584e-05
-2.52699e-05
0.000325624
-0.000537591
0.000787021
-0.00153166
0.00150436
-0.00304831
0.0025282
-0.00513108
0.00391609
-0.00782256
0.00573356
-0.0111616
0.00805543
-0.0151802
0.0109288
-0.0198401
-0.0249259
0.0142247
8.69553e-05
-0.000112225
0.000368342
-0.000818977
0.000884085
-0.0020474
0.00168043
-0.00384465
0.00281081
-0.00626146
0.00433744
-0.00934918
0.00633533
-0.0131595
0.00890501
-0.0177499
0.012249
-0.023184
-0.029793
0.0171161
9.79366e-05
-0.000210162
0.00041118
-0.00113222
0.000980856
-0.00261708
0.00185461
-0.00471841
0.00308735
-0.0074942
0.00474279
-0.0110046
0.00689758
-0.0153143
0.00965211
-0.0205044
0.0131708
-0.0267027
-0.0342701
0.0176478
0.000108903
0.000453714
-0.00147703
0.00107623
-0.0032396
0.00202454
-0.00566672
0.00335319
-0.00882285
0.0051236
-0.012775
0.00740534
-0.0175961
0.0102772
-0.0233763
0.013829
-0.0302544
-0.0385281
0.018087
0.000495601
0.00116935
-0.00391334
0.00218851
-0.00668588
0.00360552
-0.0102399
0.00547647
-0.014646
0.00785894
-0.0199785
0.0108054
-0.0263228
0.0143476
-0.0337966
-0.0426154
0.0184349
0.00125955
-0.00463631
0.00234533
-0.00777167
0.00384274
-0.0117373
0.00580052
-0.0166038
0.0082623
-0.0224403
0.0112559
-0.0293164
0.0147723
-0.037313
-0.0465628
0.0187197
0.00134633
0.00249411
-0.00891945
0.00406379
-0.0133069
0.00609548
-0.0186355
0.00861836
-0.0249632
0.0116384
-0.0323364
0.0151179
-0.0407926
-0.0503885
0.0189437
0.00263405
0.0042677
-0.0149406
0.00636078
-0.0207285
0.00892821
-0.0275306
0.0119569
-0.0353651
0.0153883
-0.044224
-0.0540971
0.0190968
0.00445327
0.00659525
0.00919117
-0.0301265
0.0122111
-0.038385
0.0155808
-0.0475936
-0.0576835
0.0191672
0.00940518
0.0123986
-0.0413784
0.0156905
-0.0508856
-0.0611368
0.0191438
0.0125156
0.0157118
-0.0540818
-0.0644422
0.0190173
0.0156398
0.0187813
-4.23249e-05
-0.000145019
-0.0015502
4.96034e-05
-0.00153798
-1.22138e-05
-0.00145164
-8.63474e-05
-0.00127686
-0.000174778
-0.00100726
-0.000269599
-0.00064281
-0.00036445
-0.000187554
-0.000455256
0.000351548
-0.000539102
0.00096594
-0.000614392
0.00164638
-0.000680437
0.00238355
-0.00073717
0.00316843
-0.000784886
0.0039925
-0.000824067
0.00484776
-0.000855262
0.00572679
-0.00087903
0.00662269
-0.000895893
0.00752906
-0.000906377
0.00843993
-0.000910871
0.00934992
-0.000909984
0.0102536
-0.000903718
0.011147
-0.000893383
0.0120244
-0.000877383
0.0128847
-0.000860329
0.0137186
-0.000833836
0.0145348
-0.0008162
0.0153069
-0.000772162
0.0160783
-0.00077141
0.0167624
-0.000684022
0.0175043
-0.000741962
-0.00056999
-0.00144248
9.55635e-05
-0.00142594
-2.87568e-05
-0.00133571
-0.000176577
-0.00115783
-0.000352655
-0.00088613
-0.000541302
-0.000520737
-0.000729843
-6.57372e-05
-0.000910255
0.000471964
-0.0010768
0.00108395
-0.00122638
0.00176115
-0.00135763
0.00249442
-0.00147045
0.00327493
-0.00156539
0.00409428
-0.00164342
0.00494462
-0.0017056
0.00581863
-0.00175304
0.00670949
-0.00178675
0.00761089
-0.00180778
0.00851691
-0.00181688
0.0094222
-0.00181527
0.0103214
-0.00180295
0.0112106
-0.00178251
0.0120839
-0.00175077
0.0129406
-0.00171695
0.013771
-0.00166427
0.0145841
-0.00162932
0.0153536
-0.00154159
0.0161226
-0.00154042
0.0168047
-0.00136613
0.0175448
-0.00148212
-0.00113949
-0.00122804
0.000134319
-0.00120299
-5.38011e-05
-0.0011051
-0.000274471
-0.000921113
-0.000536642
-0.000645295
-0.00081712
-0.000278104
-0.00109703
0.0001763
-0.00136466
0.000711147
-0.00161165
0.00131829
-0.00183352
0.001989
-0.00202834
0.00271449
-0.00219594
0.00348627
-0.00233717
0.00429625
-0.00245339
0.00513681
-0.00254616
0.00600085
-0.00261708
0.00688173
-0.00266763
0.00777327
-0.00269933
0.00866966
-0.00271328
0.00956566
-0.00271127
0.010456
-0.00269329
0.0113367
-0.00266323
0.0122022
-0.00261627
0.0130515
-0.00256626
0.0138752
-0.00248798
0.0146823
-0.00243637
0.0154463
-0.00230565
0.0162106
-0.00230469
0.016889
-0.00204449
0.0176256
-0.00221872
-0.00170805
-0.000908799
0.000162514
-0.000871428
-9.11723e-05
-0.000762246
-0.000383654
-0.000569328
-0.00072956
-0.000287573
-0.00109888
8.20996e-05
-0.00146671
0.000535405
-0.00181796
0.00106582
-0.00214207
0.00166561
-0.00243331
0.00232656
-0.00268929
0.00304042
-0.00290981
0.00379919
-0.00309594
0.00459522
-0.00324942
0.00542128
-0.00337222
0.00627056
-0.00346636
0.00713667
-0.00353374
0.00801364
-0.0035763
0.00889583
-0.00359546
0.00977812
-0.00359357
0.0106554
-0.00357053
0.0115237
-0.00353155
0.0123776
-0.00347014
0.0132161
-0.0034048
0.01403
-0.00330183
0.0148281
-0.00323451
0.0155843
-0.00306182
0.0163416
-0.00306204
0.0170145
-0.00271739
0.017746
-0.00295017
-0.00227533
-0.000487898
0.000177484
-0.000434328
-0.000144742
-0.000310682
-0.0005073
-0.000106305
-0.000933936
0.000182891
-0.00138807
0.000555417
-0.00183923
0.00100692
-0.00226946
0.00153115
-0.0026663
0.00212097
-0.00302313
0.00276885
-0.00333717
0.00346726
-0.00360822
0.00420885
-0.00383753
0.00498653
-0.0040271
0.00579355
-0.00417924
0.00662349
-0.00429631
0.00747029
-0.00438054
0.00832825
-0.00443426
0.00919192
-0.00445913
0.0100564
-0.00445802
0.0109166
-0.00443075
0.0117688
-0.00438379
0.0126076
-0.00430895
0.0134322
-0.0042294
0.0142333
-0.00410291
0.01502
-0.00402116
0.015766
-0.00380785
0.0165145
-0.0038105
0.0171804
-0.00338332
0.0179053
-0.00367504
-0.0028411
4.01789e-05
0.000152283
0.000104461
-0.000209024
0.000244867
-0.000647706
0.000462862
-0.00115193
0.00076068
-0.00168589
0.00113611
-0.00221466
0.00158474
-0.00271809
0.0021008
-0.00318236
0.00267789
-0.00360022
0.00330937
-0.00396866
0.00398858
-0.00428743
0.00470894
-0.00455789
0.00546406
-0.00478222
0.00624776
-0.00496293
0.00705409
-0.00510264
0.00787736
-0.00520382
0.00871219
-0.00526909
0.00955338
-0.00530032
0.0103962
-0.00530085
0.0112358
-0.00527035
0.0120686
-0.00521658
0.0128892
-0.00512959
0.0136971
-0.00503722
0.0144828
-0.00488866
0.0152557
-0.00479402
0.0159896
-0.00454177
0.0167275
-0.00454838
0.0173852
-0.00404106
0.0181024
-0.00439217
-0.00340533
0.000645149
0.000128664
0.000738208
-0.000302083
0.000898941
-0.000808438
0.00113223
-0.00138522
0.0014393
-0.00199296
0.00181715
-0.00259252
0.00226145
-0.00316238
0.00276704
-0.00368795
0.00332849
-0.00416167
0.0039402
-0.00458037
0.00459652
-0.00494375
0.00529179
-0.00525316
0.00602039
-0.00551083
0.0067768
-0.00571933
0.00755559
-0.00588143
0.00835151
-0.00599974
0.00915952
-0.0060771
0.00997469
-0.00611549
0.0107925
-0.00611871
0.0116084
-0.00608621
0.0124188
-0.00602702
0.0132186
-0.00592936
0.0140072
-0.00582583
0.0147755
-0.00565691
0.0155326
-0.00555121
0.0162528
-0.00526197
0.0169788
-0.00527434
0.0176274
-0.00468967
0.0183359
-0.0051007
-0.00396818
0.00134699
8.32286e-05
0.00146302
-0.000418119
0.00164527
-0.000990686
0.0018949
-0.00163485
0.00221119
-0.00230924
0.00259039
-0.00297172
0.00302838
-0.00360037
0.00352087
-0.00418045
0.00406357
-0.00470437
0.0046521
-0.0051689
0.00528195
-0.0055736
0.00594848
-0.00591969
0.00664691
-0.00620926
0.00737242
-0.00644484
0.00812018
-0.00662919
0.00888537
-0.00676493
0.00966334
-0.00685506
0.0104495
-0.00690161
0.0112395
-0.00690874
0.0120289
-0.00687566
0.0128146
-0.00681266
0.0135913
-0.00670607
0.0143587
-0.00659325
0.0151077
-0.00640593
0.0158478
-0.00629124
0.016553
-0.00596726
0.0172661
-0.00598741
0.0179051
-0.00532862
0.0186045
-0.00580015
-0.00453008
0.002132
1.55833e-05
0.00227233
-0.000558447
0.00247705
-0.0011954
0.00274327
-0.00190108
0.00306791
-0.00263389
0.00344662
-0.00335043
0.00387575
-0.0040295
0.00435211
-0.0046568
0.00487275
-0.00522501
0.00543468
-0.00573082
0.00603462
-0.00617354
0.006669
-0.00655407
0.00733397
-0.00687422
0.00802541
-0.00713629
0.0087391
-0.00734288
0.00947071
-0.00749654
0.0102159
-0.0076003
0.0109705
-0.00765617
0.0117304
-0.00766866
0.0124914
-0.00763662
0.0132504
-0.00757162
0.0140023
-0.00745804
0.0147471
-0.00733803
0.0154757
-0.00713449
0.0161976
-0.00701314
0.0168872
-0.00665691
0.0175869
-0.00668708
0.018216
-0.00595776
0.0189063
-0.00649039
-0.00509174
0.00299444
-7.46943e-05
0.00315952
-0.000723527
0.00338694
-0.00142283
0.00366903
-0.00218317
0.00400019
-0.00296504
0.00437571
-0.00372595
0.00479275
-0.00444654
0.00524952
-0.00511357
0.00574462
-0.00572012
0.00627653
-0.00626273
0.00684329
-0.0067403
0.00744244
-0.00715322
0.00807103
-0.00750281
0.00872571
-0.00779096
0.00940283
-0.00802
0.0100986
-0.00819226
0.010809
-0.00831073
0.0115301
-0.00837729
0.0122582
-0.00839675
0.0129892
-0.0083676
0.0137202
-0.00830262
0.0144463
-0.00818418
0.0151676
-0.00805931
0.015875
-0.00784193
0.0165783
-0.00771642
0.0172521
-0.00733069
0.0179383
-0.00737329
0.0185579
-0.00657741
0.0192393
-0.00717177
-0.00565415
0.00392816
-0.000187763
0.00411787
-0.000913234
0.00436725
-0.00167221
0.00466333
-0.00247924
0.00499798
-0.0032997
0.00536662
-0.00409458
0.00576765
-0.00484757
0.00620096
-0.00554688
0.00666687
-0.00618603
0.0071654
-0.00676126
0.00769594
-0.00727084
0.00825712
-0.0077144
0.00884688
-0.00809258
0.00946262
-0.00840669
0.0101012
-0.00865863
0.0107594
-0.0088504
0.0114335
-0.00898487
0.0121199
-0.0090637
0.0128152
-0.00909198
0.0135153
-0.00906771
0.0142176
-0.00900497
0.0149175
-0.008884
0.0156149
-0.00875676
0.0163011
-0.00852813
0.0169859
-0.00840118
0.0176441
-0.00798889
0.0183173
-0.0080465
0.0189282
-0.00718834
0.0196015
-0.00784508
-0.00621865
0.00492685
-0.000323584
0.00514059
-0.00112698
0.00540999
-0.00194162
0.00571676
-0.00278601
0.00605053
-0.00363347
0.0064075
-0.00445155
0.00678785
-0.00522792
0.00719345
-0.00595248
0.00762641
-0.00661899
0.00808834
-0.00722319
0.0085799
-0.0077624
0.00910078
-0.00823528
0.00964978
-0.00864159
0.010225
-0.00898187
0.0108238
-0.00925745
0.0114433
-0.00946992
0.0120803
-0.0096219
0.0127314
-0.00971481
0.0133934
-0.00975392
0.0140624
-0.00973676
0.0147361
-0.00967865
0.0154097
-0.00955764
0.0160837
-0.00943071
0.0167491
-0.00919357
0.017416
-0.00906806
0.0180595
-0.00863236
0.0187206
-0.00870766
0.0193241
-0.00779182
0.0199906
-0.00851159
-0.0067869
0.00598415
-0.000482463
0.00622093
-0.00136376
0.00650696
-0.00222764
0.00681936
-0.00309841
0.00714631
-0.00396042
0.00748568
-0.00479092
0.00784002
-0.00558226
0.00821333
-0.00632579
0.00860959
-0.00701525
0.00903188
-0.00764548
0.00948207
-0.00821259
0.00996081
-0.00871402
0.0104677
-0.00914843
0.0110013
-0.00951548
0.0115596
-0.00981579
0.0121401
-0.0100504
0.0127399
-0.0102217
0.0133557
-0.0103307
0.0139847
-0.0103829
0.0146231
-0.0103752
0.0152687
-0.0103243
0.0159169
-0.0102059
0.0165683
-0.0100821
0.017214
-0.00983931
0.0178642
-0.00971825
0.0184944
-0.00926248
0.019145
-0.00935827
0.0197428
-0.00838962
0.0204042
-0.00917305
-0.00736092
0.00709377
-0.00066557
0.00735232
-0.00162231
0.0076497
-0.00252502
0.00796049
-0.00340921
0.00827296
-0.00427289
0.0085877
-0.00510566
0.00891008
-0.00590463
0.00924637
-0.00666209
0.00960229
-0.00737117
0.00998223
-0.00802542
0.0103891
-0.00861947
0.0108244
-0.00914931
0.0112883
-0.00961233
0.01178
-0.0100072
0.0122978
-0.0103336
0.0128396
-0.0105922
0.0134026
-0.0107847
0.013984
-0.0109121
0.0145809
-0.0109797
0.0151898
-0.0109841
0.0158086
-0.010943
0.0164328
-0.0108301
0.0170631
-0.0107124
0.0176908
-0.010467
0.0183261
-0.0103536
0.0189447
-0.00988117
0.0195868
-0.0100003
0.0201812
-0.008984
0.0208399
-0.00983172
-0.00794307
0.00824973
-0.000875666
0.00852852
-0.0019011
0.00882944
-0.00282594
0.00912873
-0.0037085
0.0094172
-0.00456136
0.00969926
-0.00538772
0.00998337
-0.00618874
0.0102779
-0.00695666
0.0105901
-0.00768336
0.0109255
-0.00836074
0.0112876
-0.00898164
0.0116787
-0.00954043
0.0120996
-0.0100331
0.0125496
-0.0104572
0.0130276
-0.0108116
0.0135316
-0.0110961
0.0140591
-0.0113123
0.0146075
-0.0114604
0.0151738
-0.0115461
0.0157549
-0.0115652
0.0163488
-0.0115369
0.0169509
-0.0114322
0.0175623
-0.0113237
0.0181741
-0.0110789
0.0187969
-0.0109763
0.0194066
-0.0104909
0.0200426
-0.0106364
0.0206363
-0.00957771
0.0212949
-0.0104903
-0.00853603
0.00944725
-0.00111818
0.00974376
-0.00219761
0.0100367
-0.00311891
0.0103114
-0.00398321
0.0105647
-0.00481457
0.0108053
-0.00562834
0.0110447
-0.00642817
0.0112931
-0.00720505
0.0115587
-0.00794895
0.0118477
-0.00864974
0.0121644
-0.00929833
0.0125113
-0.00988736
0.0128895
-0.0104114
0.013299
-0.0108666
0.0137385
-0.0112512
0.0142063
-0.011564
0.0147002
-0.0118062
0.0152175
-0.0119776
0.0157556
-0.0120842
0.0163112
-0.0121208
0.0168826
-0.0121082
0.0174653
-0.0120149
0.0180603
-0.0119187
0.0186591
-0.0116777
0.0192721
-0.0115893
0.0198758
-0.0110946
0.0205088
-0.0112693
0.0211051
-0.010174
0.0217668
-0.0111521
-0.00914285
0.0106829
-0.00140093
0.0109916
-0.00250628
0.0112604
-0.00338775
0.0114942
-0.00421694
0.0116994
-0.00501983
0.0118896
-0.00581854
0.0120783
-0.00661684
0.0122767
-0.00740341
0.0124934
-0.00816571
0.0127351
-0.00889144
0.0130063
-0.0095695
0.0133097
-0.0101908
0.0136466
-0.0107483
0.0140171
-0.0112371
0.0144201
-0.0116542
0.0148541
-0.0119979
0.0153169
-0.012269
0.0158058
-0.0124666
0.0163184
-0.0125968
0.0168516
-0.012654
0.0174035
-0.0126601
0.0179698
-0.0125812
0.0185517
-0.0125006
0.0191407
-0.0122667
0.0197473
-0.0121958
0.0203485
-0.0116958
0.0209819
-0.0119028
0.0215844
-0.0107764
0.0222529
-0.0118206
-0.00976686
0.011954
-0.00172815
0.0122644
-0.00281669
0.0124874
-0.00361069
0.0126604
-0.00438998
0.0128043
-0.0051637
0.0129354
-0.00594968
0.013068
-0.00674943
0.0132133
-0.0075487
0.0133799
-0.00833228
0.0135741
-0.00908568
0.0138005
-0.00979592
0.0140619
-0.0104521
0.0143594
-0.0110459
0.0146933
-0.011571
0.0150627
-0.0120235
0.0154657
-0.012401
0.0159005
-0.0127037
0.0163644
-0.0129304
0.016855
-0.0130874
0.0173691
-0.0131681
0.0179051
-0.0131961
0.0184587
-0.0131348
0.0190312
-0.0130731
0.0196142
-0.0128497
0.0202182
-0.0127998
0.0208207
-0.0122983
0.0214584
-0.0125405
0.0220712
-0.0113892
0.0227505
-0.0124999
-0.0104117
0.0132769
-0.00210553
0.0135623
-0.00310203
0.0137052
-0.00375357
0.0137939
-0.00447874
0.0138628
-0.00523255
0.0139272
-0.0060141
0.0139995
-0.00682174
0.0140898
-0.00763898
0.0142057
-0.00844822
0.0143532
-0.00923315
0.0145364
-0.00997907
0.0147578
-0.0106735
0.0150186
-0.0113067
0.0153189
-0.0118713
0.0156577
-0.0123623
0.0160333
-0.0127767
0.0164438
-0.0131141
0.0168863
-0.013373
0.0173587
-0.0135598
0.0178577
-0.0136671
0.0183818
-0.0137202
0.0189267
-0.0136797
0.0194938
-0.0136403
0.0200749
-0.0134308
0.0206805
-0.0134054
0.0212886
-0.0129065
0.021935
-0.0131869
0.0225625
-0.0120168
0.0232571
-0.0131944
-0.0110813
0.0147338
-0.00261469
0.014887
-0.00325517
0.0148967
-0.00376335
0.0148771
-0.00445908
0.0148591
-0.00521454
0.0148514
-0.00600641
0.0148613
-0.00683166
0.0148963
-0.00767402
0.0149627
-0.00851456
0.0150652
-0.00933566
0.0152074
-0.0101213
0.0153916
-0.0108577
0.0156188
-0.0115339
0.0158887
-0.0121412
0.0162004
-0.0126741
0.0165522
-0.0131284
0.0169419
-0.0135039
0.017367
-0.0137981
0.017825
-0.0140178
0.0183129
-0.014155
0.0188291
-0.0142364
0.0193696
-0.0142202
0.0199355
-0.0142062
0.0205192
-0.0140145
0.0211304
-0.0140166
0.0217492
-0.0135252
0.0224079
-0.0138457
0.0230562
-0.0126651
0.0237687
-0.0139069
-0.0117811
0.0323217
-0.0017586
-0.0331778
0.0319187
-0.00285215
0.0316883
-0.00353295
0.0315014
-0.00427224
0.0313443
-0.00505743
0.0312081
-0.00587023
0.0310887
-0.00671223
0.0309867
-0.00757202
0.0309047
-0.00843254
0.0308461
-0.00927706
0.0308146
-0.0100898
0.0308136
-0.0108568
0.0308459
-0.0115661
0.0309133
-0.0122086
0.0310168
-0.0127776
0.0311566
-0.0132682
0.0313316
-0.013679
0.0315408
-0.0140072
0.0317819
-0.0142589
0.0320528
-0.0144259
0.0323505
-0.0145342
0.032673
-0.0145426
0.0330168
-0.01455
0.0333799
-0.0143776
0.0337605
-0.0143972
0.0341539
-0.0139186
0.0345663
-0.0142581
0.0349823
-0.013081
0.0354235
-0.0143481
-0.0122296
0.0390342
-0.000912494
-0.0398803
0.0382314
-0.00204937
0.0376437
-0.00294532
0.0371673
-0.00379582
0.0367694
-0.00465945
0.0364299
-0.00553078
0.0361342
-0.00641654
0.0358754
-0.00731323
0.0356511
-0.00820824
0.0354613
-0.00908721
0.0353072
-0.0099357
0.0351905
-0.0107401
0.035113
-0.0114886
0.0350758
-0.0121714
0.0350793
-0.0127811
0.0351233
-0.0133122
0.0352068
-0.0137624
0.0353283
-0.0141287
0.0354853
-0.014416
0.0356759
-0.0146165
0.0358966
-0.0147548
0.0361456
-0.0147916
0.0364185
-0.0148229
0.036715
-0.0146741
0.0370297
-0.0147119
0.037364
-0.0142529
0.037713
-0.0146072
0.038081
-0.013449
0.0384565
-0.0147236
-0.0126415
0.0459717
1.2644e-05
-0.0468968
0.0450056
-0.0010833
0.0441711
-0.0021108
0.0434453
-0.0030701
0.0428137
-0.00402785
0.0422625
-0.00497951
0.0417757
-0.00592982
0.0413432
-0.0068807
0.0409592
-0.00782421
0.0406208
-0.00874886
0.0403273
-0.00964216
0.0400787
-0.0104916
0.0398757
-0.0112856
0.0397185
-0.0120142
0.0396072
-0.0126698
0.0395411
-0.0132461
0.039519
-0.0137404
0.0395393
-0.0141489
0.0395993
-0.014476
0.0396969
-0.0147142
0.0398285
-0.0148864
0.0399922
-0.0149554
0.0401832
-0.0150138
0.0404018
-0.0148927
0.0406406
-0.0149507
0.0409049
-0.0145173
0.0411822
-0.0148844
0.0414907
-0.0137575
0.0417946
-0.0150275
-0.0130059
0.053215
0.00100954
-0.0542119
0.0521526
-2.09295e-05
0.0511546
-0.00111279
0.0502388
-0.00215427
0.0494067
-0.00319577
0.0486573
-0.00423015
0.0479816
-0.00525414
0.0473708
-0.00626982
0.0468186
-0.00727203
0.0463213
-0.00825152
0.0458767
-0.00919756
0.0454839
-0.0100988
0.0451427
-0.0109444
0.0448529
-0.0117244
0.0446139
-0.0124308
0.0444251
-0.0130573
0.0442848
-0.0136001
0.0441914
-0.0140555
0.0441422
-0.0144268
0.0441349
-0.0147068
0.0441657
-0.0149171
0.0442329
-0.0150226
0.0443309
-0.0151118
0.044461
-0.0150228
0.0446137
-0.0151035
0.0447981
-0.0147016
0.0449937
-0.01508
0.0452335
-0.0139974
0.0454562
-0.0152502
-0.0133141
0.0606969
0.00206906
-0.0617564
0.0595782
0.00109777
0.0584819
-1.64634e-05
0.0574367
-0.00110908
0.0564519
-0.00221102
0.0555367
-0.00331495
0.0546914
-0.00440878
0.0539121
-0.0054905
0.0531952
-0.00655511
0.0525378
-0.00759415
0.0519381
-0.00859788
0.0513951
-0.00955581
0.0509082
-0.0104575
0.0504772
-0.0112933
0.0501013
-0.012055
0.0497799
-0.0127358
0.0495113
-0.0133316
0.0492939
-0.0138381
0.049125
-0.0142579
0.0490023
-0.0145842
0.0489219
-0.0148367
0.0488822
-0.0149829
0.0488773
-0.0151069
0.0489089
-0.0150544
0.0489659
-0.0151604
0.0490609
-0.0147966
0.0491655
-0.0151847
0.0493278
-0.0141597
0.0494603
-0.0153826
-0.0135572
0.0683109
0.00316202
-0.0694038
0.0671751
0.00223352
0.0660347
0.00112401
0.0649175
8.06486e-06
0.063834
-0.00112755
0.0627979
-0.00227878
0.0618169
-0.00342783
0.0608936
-0.00456718
0.0600284
-0.00568996
0.0592214
-0.00678713
0.0584723
-0.00784881
0.0577812
-0.00886469
0.0571482
-0.00982448
0.0565733
-0.0107184
0.0560564
-0.0115381
0.055597
-0.0122763
0.0551937
-0.0129283
0.0548452
-0.0134896
0.0545489
-0.0139616
0.0543028
-0.0143381
0.054103
-0.0146369
0.0539481
-0.014828
0.0538317
-0.0149905
0.0537565
-0.0149792
0.0537093
-0.0151132
0.0537064
-0.0147937
0.0537118
-0.0151901
0.0537883
-0.0142362
0.0538225
-0.0154169
-0.0137265
0.0759344
0.00424117
-0.0770136
0.0748232
0.00334473
0.0736881
0.00225917
0.0725527
0.0011434
0.0714251
8.0051e-08
0.0703195
-0.00117317
0.0692475
-0.00235585
0.0682169
-0.00353657
0.0672326
-0.00470571
0.0662983
-0.0058528
0.0654165
-0.006967
0.0645893
-0.00803745
0.0638182
-0.00905344
0.0631046
-0.0100048
0.0624492
-0.0108827
0.0618522
-0.0116793
0.0613131
-0.0123892
0.0608309
-0.0130074
0.0604037
-0.0135344
0.0600297
-0.0139641
0.0597054
-0.0143126
0.0594295
-0.0145521
0.0591957
-0.0147566
0.0590071
-0.0147906
0.0588492
-0.0149553
0.0587418
-0.0146863
0.0586412
-0.0150895
0.0586247
-0.0142196
0.0585543
-0.0153465
-0.0138139
0.0834371
0.0052513
-0.0844472
0.0823961
0.00438566
0.0813146
0.0033407
0.0802108
0.00224723
0.0790929
0.00111792
0.0779706
-5.0872e-05
0.0768579
-0.00124314
0.0757653
-0.00244393
0.0747013
-0.00364167
0.0736728
-0.00482438
0.0726857
-0.00597991
0.0717446
-0.00709633
0.0708533
-0.0081621
0.0700148
-0.00916633
0.0692313
-0.0100993
0.0685044
-0.0109524
0.0678347
-0.0117195
0.0672221
-0.0123948
0.0666655
-0.0129778
0.0661638
-0.0134623
0.0657138
-0.0138627
0.065315
-0.0141533
0.064961
-0.0144026
0.0646557
-0.0144854
0.0643833
-0.0146829
0.0641669
-0.0144699
0.0639558
-0.0148784
0.0638408
-0.0141046
0.0636615
-0.0151671
-0.0138124
0.0906994
0.00613852
-0.0915866
0.0897742
0.00531086
0.0887923
0.00432258
0.0877675
0.00327198
0.0867077
0.00217781
0.0856206
0.00103618
0.0845184
-0.000140941
0.083413
-0.00133857
0.082315
-0.00254362
0.0812338
-0.00374318
0.0801778
-0.00492397
0.0791544
-0.00607293
0.0781698
-0.00717746
0.0772291
-0.00822564
0.0763366
-0.00920673
0.0754953
-0.0101112
0.0747075
-0.0109317
0.0739744
-0.0116616
0.073296
-0.0122994
0.0726722
-0.0128385
0.0721007
-0.0132912
0.0715815
-0.0136341
0.0711087
-0.0139297
0.0706871
-0.0140638
0.0702997
-0.0142956
0.069973
-0.0141432
0.0696498
-0.0145553
0.0694331
-0.0138878
0.0691433
-0.0148773
-0.0137164
0.0976307
0.00685918
-0.0983513
0.0968599
0.00608165
0.0960176
0.0051649
0.0951133
0.00417621
0.0941551
0.00313603
0.0931494
0.00204193
0.0921062
0.000902259
0.0910368
-0.000269169
0.0899524
-0.00145926
0.0888639
-0.00265463
0.0877814
-0.00384146
0.0867143
-0.00500583
0.0856709
-0.00613414
0.0846588
-0.00721346
0.083684
-0.00823193
0.0827517
-0.00917888
0.0818657
-0.0100458
0.0810291
-0.010825
0.0802431
-0.0115135
0.079509
-0.0121044
0.0788257
-0.0126078
0.0781939
-0.0130024
0.0776085
-0.0133443
0.0770753
-0.0135306
0.0765766
-0.0137969
0.0761418
-0.0137084
0.0757086
-0.0141221
0.0753899
-0.0135691
0.0749912
-0.0144786
-0.0135226
0.104183
0.00738623
-0.10471
0.103592
0.00667192
0.102919
0.00583862
0.102167
0.00492763
0.101346
0.00395747
0.10046
0.00292797
0.0995171
0.00184498
0.0985277
0.000720277
0.0975021
-0.000433642
0.0964512
-0.00160381
0.0953861
-0.00277632
0.0943172
-0.00393696
0.0932546
-0.00507149
0.0922072
-0.00616611
0.0911833
-0.00720797
0.0901897
-0.00818532
0.0892323
-0.00908834
0.0883156
-0.00990827
0.0874427
-0.0106407
0.0866164
-0.011278
0.0858367
-0.0118281
0.0851057
-0.0122714
0.0844191
-0.0126577
0.0837838
-0.0128953
0.083182
-0.013195
0.0826456
-0.013172
0.0821083
-0.0135848
0.0816905
-0.0131513
0.0811882
-0.0139763
-0.0132302
0.110356
0.0077118
-0.110681
0.109956
0.0070713
0.109466
0.00632895
0.108887
0.00550658
0.108226
0.00461857
0.107487
0.0036667
0.106677
0.00265546
0.105803
0.0015944
0.104874
0.000494896
0.103901
-0.000630915
0.102895
-0.00176973
0.101865
-0.00290745
0.100823
-0.0040297
0.0997794
-0.00512221
0.0987428
-0.0061714
0.0977221
-0.00716459
0.0967246
-0.00809085
0.0957566
-0.00894028
0.0948229
-0.00970702
0.0939277
-0.0103828
0.0930726
-0.010973
0.092261
-0.0114598
0.0914896
-0.0118863
0.0907667
-0.0121724
0.0900745
-0.0125028
0.0894471
-0.0125446
0.088816
-0.0129536
0.0883057
-0.012641
0.087709
-0.0133796
-0.0128414
0.116195
0.00784587
-0.116329
0.115981
0.00728523
0.115674
0.00663622
0.115273
0.00590765
0.114783
0.00510899
0.114206
0.00424316
0.113548
0.00331395
0.112813
0.00232896
0.11201
0.00129802
0.111147
0.000232287
0.110233
-0.000856008
0.109279
-0.00195342
0.108295
-0.00304576
0.107292
-0.00411882
0.106279
-0.00515864
0.105266
-0.00615195
0.104262
-0.00708692
0.103275
-0.00795269
0.10231
-0.00874204
0.101373
-0.00944595
0.100467
-0.0100676
0.0995981
-0.0105905
0.0987628
-0.011051
0.097971
-0.0113806
0.0972054
-0.0117372
0.0965018
-0.011841
0.0957911
-0.0122429
0.0951986
-0.0120486
0.0945204
-0.0127014
-0.0123621
0.121781
0.00781166
-0.121747
0.121735
0.00733175
0.121597
0.00677372
0.121366
0.00613864
0.121044
0.00543143
0.120632
0.00465524
0.120132
0.00381346
0.119549
0.00291204
0.118888
0.00195924
0.118155
0.000964852
0.117359
-5.97322e-05
0.116508
-0.00110261
0.115612
-0.0021498
0.114681
-0.0031877
0.113725
-0.00420236
0.112753
-0.00518028
0.111776
-0.00610907
0.1108
-0.00697718
0.109834
-0.00777623
0.108885
-0.00849658
0.107956
-0.00913921
0.107055
-0.00968893
0.106179
-0.0101755
0.10534
-0.0105417
0.104522
-0.0109187
0.10376
-0.0110792
0.102988
-0.0114704
0.102326
-0.0113875
0.101583
-0.0119577
-0.0118011
0.127214
0.00763939
-0.127042
0.127309
0.00723665
0.127319
0.00676361
0.12724
0.00621734
0.127073
0.00559924
0.126816
0.00491196
0.126471
0.0041585
0.126039
0.00334354
0.125525
0.00247379
0.124932
0.00155772
0.124267
0.000605298
0.123537
-0.000372328
0.122749
-0.00136264
0.121914
-0.00235246
0.12104
-0.00332835
0.120137
-0.00427692
0.119213
-0.00518557
0.118278
-0.00604237
0.11734
-0.00683807
0.116406
-0.00756261
0.115482
-0.00821489
0.114574
-0.00878117
0.113683
-0.00928457
0.112821
-0.00967908
0.111971
-0.0100694
0.111172
-0.0102793
0.110357
-0.0106562
0.109644
-0.0106739
0.108853
-0.0111669
-0.0111707
0.132596
0.00736042
-0.132317
0.132804
0.00702819
0.132936
0.00663193
0.132986
0.00616707
0.132953
0.00563252
0.132835
0.00503009
0.132631
0.00436234
0.132342
0.00363287
0.131968
0.00284708
0.131514
0.00201207
0.130983
0.0011365
0.13038
0.000230458
0.129712
-0.000694854
0.128987
-0.00162713
0.128212
-0.0025536
0.127397
-0.00346132
0.126549