/*--------------------------------*- C++ -*----------------------------------*\
  =========                 |
  \\      /  F ield         | OpenFOAM: The Open Source CFD Toolbox
   \\    /   O peration     | Website:  https://openfoam.org
    \\  /    A nd           | Version:  7
     \\/     M anipulation  |
\*---------------------------------------------------------------------------*/
FoamFile
{
    version     2.0;
    format      ascii;
    class       volVectorField;
    location    "40";
    object      U;
}
// * * * * * * * * * * * * * * * * * * * * * * * * * * * * * * * * * * * * * //

dimensions      [0 1 -1 0 0 0 0];

internalField   nonuniform List<vector> 
2125
(
(-0.000760229 0.000601241 3.61833e-22)
(-0.00384224 0.00130988 -1.15848e-21)
(-0.0092904 0.00165784 -1.42752e-21)
(-0.0153853 0.00174082 1.49021e-21)
(-0.0213842 0.0016309 -1.43269e-21)
(-0.0267512 0.00139414 -7.9198e-22)
(-0.0311269 0.00109191 1.39402e-21)
(-0.0343765 0.000781652 1.77529e-21)
(-0.0365505 0.000510963 -2.94973e-22)
(-0.037751 0.000323046 8.82227e-22)
(-0.000843714 0.00179042 -4.00605e-22)
(-0.00398039 0.00389769 1.3762e-21)
(-0.00936327 0.00492964 -3.42117e-21)
(-0.0153034 0.00517123 3.25766e-21)
(-0.0210706 0.00483759 1.53183e-22)
(-0.0261387 0.0041261 2.5864e-21)
(-0.0301565 0.00322026 -4.63413e-21)
(-0.0329985 0.0022923 -6.94748e-21)
(-0.0347239 0.00148576 -1.38048e-21)
(-0.0353887 0.000933125 3.17795e-21)
(-0.00100723 0.00294004 3.73351e-22)
(-0.00424837 0.00639036 3.03893e-21)
(-0.00949759 0.00807076 7.54697e-21)
(-0.0151264 0.00844907 -7.15798e-21)
(-0.0204291 0.00788031 -1.68355e-21)
(-0.0248991 0.00669052 -1.5844e-21)
(-0.0282012 0.00518369 8.40562e-21)
(-0.0302288 0.00364632 5.36205e-21)
(-0.0310587 0.00231983 1.31375e-21)
(-0.030651 0.00143442 -9.85132e-21)
(-0.00124394 0.00402478 1.32465e-21)
(-0.00462963 0.00872682 -1.77731e-21)
(-0.00967059 0.0109973 -1.4111e-20)
(-0.0148275 0.0114765 1.30599e-21)
(-0.0194306 0.010654 4.22983e-21)
(-0.0230028 0.00898038 -3.40981e-21)
(-0.025232 0.00687707 -1.57062e-22)
(-0.0260394 0.00474386 -1.46245e-21)
(-0.0255316 0.00292265 3.3847e-21)
(-0.02351 0.0017556 9.80516e-21)
(-0.00154381 0.00502086 9.26703e-22)
(-0.00509967 0.0108495 -5.79777e-21)
(-0.00984839 0.01363 1.46277e-20)
(-0.0143665 0.0141612 -7.00182e-21)
(-0.0180318 0.0130602 -2.7515e-23)
(-0.020405 0.0108957 1.04263e-20)
(-0.0212047 0.0082026 -4.92311e-21)
(-0.0203882 0.0054921 5.276e-22)
(-0.0181082 0.00321297 -2.15229e-21)
(-0.0139257 0.00185284 7.73989e-22)
(-0.00189378 0.00590656 1.11567e-20)
(-0.0056264 0.0127053 1.49504e-20)
(-0.0099862 0.0158962 -4.00264e-21)
(-0.0136904 0.0164189 8.02307e-21)
(-0.0161744 0.0150093 2.65591e-21)
(-0.0170458 0.0123464 -3.89629e-21)
(-0.0160601 0.00907288 -1.57738e-21)
(-0.0132164 0.00580885 -6.89176e-21)
(-0.00873086 0.00312159 1.56264e-21)
(-0.00187444 0.00175573 -9.07305e-21)
(-0.00227803 0.00666257 -1.07671e-20)
(-0.00617049 0.0142469 -7.79882e-21)
(-0.0100287 0.0177308 6.76106e-21)
(-0.0127329 0.0181749 -1.22437e-20)
(-0.0137858 0.016423 1.46691e-21)
(-0.0128494 0.013255 1.53936e-20)
(-0.00972284 0.00941434 -2.89754e-21)
(-0.00444956 0.00562888 1.90034e-20)
(0.00271104 0.00257567 -4.65418e-22)
(0.0126618 0.00133272 -7.98319e-21)
(-0.00267825 0.00727228 9.21181e-21)
(-0.00668589 0.0154334 -1.83069e-20)
(-0.00991031 0.0190781 -7.64329e-21)
(-0.0114148 0.019366 9.29337e-21)
(-0.0107783 0.0172366 3.6627e-22)
(-0.0077242 0.0135595 -2.89756e-20)
(-0.00209934 0.00916929 -1.77785e-21)
(0.00599393 0.00489333 -1.51552e-20)
(0.016265 0.0015221 -1.98657e-20)
(0.0298534 0.000484983 1.17392e-20)
(-0.00307391 0.00772194 -5.15564e-21)
(-0.00712029 0.0162308 2.72626e-21)
(-0.00955598 0.0198927 7.10678e-21)
(-0.00964489 0.0199422 -6.73802e-21)
(-0.00705007 0.0174015 -2.42379e-20)
(-0.00156328 0.0132163 8.55908e-21)
(0.00691619 0.00829994 1.23549e-21)
(0.0182234 0.00356823 2.28501e-20)
(0.0320215 -5.08353e-05 3.04628e-20)
(0.0497803 -0.000730149 -1.38609e-20)
(-0.00344245 0.00800067 8.32711e-21)
(-0.00741559 0.0166124 8.33222e-21)
(-0.00888138 0.0201401 -1.21158e-21)
(-0.00731964 0.0198679 3.33782e-20)
(-0.00248491 0.0168865 1.47548e-20)
(0.0057562 0.0122032 1.14197e-20)
(0.0174473 0.006795 1.65465e-20)
(0.0323589 0.00165391 -7.3876e-21)
(0.0500961 -0.00215439 -1.01798e-20)
(0.0725379 -0.00229675 -1.69555e-20)
(-0.00375951 0.00810047 -6.18123e-22)
(-0.00750841 0.0165593 -1.32546e-20)
(-0.00779377 0.0197976 -9.98803e-21)
(-0.00432449 0.0191226 -1.6589e-20)
(0.00304684 0.0156792 -1.35171e-20)
(0.0143725 0.0105206 1.42518e-20)
(0.029634 0.00467019 -1.39519e-20)
(0.048535 -0.000822783 -9.80989e-21)
(0.0706147 -0.00476576 1.335e-21)
(0.0982401 -0.00419035 4.3847e-21)
(-0.00399901 0.00801596 -2.35121e-20)
(-0.00733071 0.0160601 1.22264e-20)
(-0.0061929 0.0188542 9.25266e-21)
(-0.000534824 0.0177018 6.56817e-21)
(0.00968717 0.0137874 -1.22764e-20)
(0.0244379 0.00819385 -1.05639e-20)
(0.0436312 0.00197125 1.57683e-20)
(0.0669004 -0.00379961 -1.31807e-20)
(0.0937128 -0.00782189 -9.37471e-22)
(0.127008 -0.00635599 -1.41676e-20)
(-0.00413323 0.00774463 2.00651e-20)
(-0.00681026 0.0151114 8.91119e-21)
(-0.00397228 0.0173111 4.68706e-22)
(0.00418233 0.0156167 -1.19731e-20)
(0.0175884 0.0112385 7.3412e-22)
(0.0361172 0.00527286 1.42125e-20)
(0.0596072 -0.00122416 -4.1033e-21)
(0.0876161 -0.00717336 -5.10464e-21)
(0.119534 -0.0112137 -1.15297e-20)
(0.158961 -0.00870193 2.12968e-20)
(-0.00413333 0.00728657 1.41105e-20)
(-0.0058716 0.0137169 -2.43471e-20)
(-0.0010206 0.0151814 -1.95459e-20)
(0.009966 0.0128943 8.86263e-21)
(0.0269104 0.00807892 1.8471e-20)
(0.0495841 0.00183127 1.61882e-20)
(0.077741 -0.00480691 -1.74459e-20)
(0.110854 -0.0107971 3.42692e-20)
(0.148229 -0.014776 -1.06337e-20)
(0.194207 -0.0110888 -2.54145e-20)
(-0.00396924 0.00664442 -2.0774e-20)
(-0.00443712 0.0118886 1.36601e-20)
(0.00277603 0.0124901 -7.01577e-21)
(0.0169581 0.0095763 8.32633e-22)
(0.0378164 0.00437229 8.04717e-21)
(0.0650173 -0.00203688 -2.54418e-20)
(0.0982186 -0.00864029 2.28815e-20)
(0.136794 -0.0144808 -2.29237e-20)
(0.179956 -0.0182787 3.69059e-20)
(0.232838 -0.0133185 1.32789e-20)
(-0.00361015 0.00582372 4.70557e-21)
(-0.00242847 0.00964638 2.7165e-20)
(0.00753136 0.00927405 -7.34558e-21)
(0.0252991 0.00571836 7.45402e-21)
(0.0504673 0.000196845 9.09418e-21)
(0.0825936 -0.00622249 -2.90973e-21)
(0.121227 -0.0125681 2.01095e-20)
(0.165624 -0.0180001 1.21195e-21)
(0.214888 -0.0214252 -2.33654e-20)
(0.274932 -0.0151272 3.21463e-20)
(-0.00302504 0.0048331 -1.22707e-20)
(0.000231732 0.00701876 -2.60696e-20)
(0.0133557 0.00558188 2.33918e-20)
(0.0351231 0.00138901 1.23033e-20)
(0.0650146 -0.00435791 -5.76718e-20)
(0.102478 -0.0106087 4.84295e-20)
(0.146943 -0.0164282 -4.42141e-20)
(0.197526 -0.0211116 9.03947e-22)
(0.25321 -0.0238437 -1.00696e-20)
(0.320544 -0.0161211 -2.9694e-20)
(-0.00218343 0.00368478 1.10534e-20)
(0.00361769 0.0040431 -1.83203e-21)
(0.0203522 0.00147425 -5.7411e-21)
(0.0465517 -0.00333099 -5.86285e-22)
(0.0815909 -0.0091943 -4.02225e-21)
(0.124814 -0.01508 -1.51943e-20)
(0.175521 -0.0200727 6.35268e-21)
(0.232675 -0.0235779 -1.07466e-20)
(0.295091 -0.0250224 3.47073e-21)
(0.369563 -0.015504 1.7346e-21)
(-0.00105626 0.00239492 -2.26924e-20)
(0.00779808 0.000766544 -2.00475e-21)
(0.0286123 -0.0029754 2.88667e-21)
(0.0596867 -0.00834846 1.31796e-21)
(0.100299 -0.0142088 1.91714e-20)
(0.149703 -0.0195337 -5.78295e-20)
(0.207086 -0.0234042 3.93485e-20)
(0.271275 -0.0252309 -3.02302e-20)
(0.340817 -0.0243077 2.51339e-20)
(0.421534 -0.0119371 2.66438e-20)
(0.000383134 0.000984053 -2.9069e-21)
(0.0128337 -0.00275337 1.36033e-20)
(0.0382123 -0.00767982 -1.75528e-20)
(0.0746038 -0.0135561 -5.65012e-21)
(0.1212 -0.0192907 1.13269e-20)
(0.177183 -0.0238868 5.54178e-20)
(0.241686 -0.0264182 -1.11527e-20)
(0.313601 -0.0261357 5.47197e-21)
(0.391469 -0.0215641 -3.0012e-20)
(0.47776 -0.00563204 1.46488e-20)
(0.00215817 -0.000522706 -8.65995e-21)
(0.0187754 -0.00644812 -7.21096e-21)
(0.0492094 -0.0125363 1.99504e-21)
(0.0913458 -0.0188286 7.21916e-21)
(0.144294 -0.0243131 -2.22036e-20)
(0.207181 -0.0280583 -9.15732e-21)
(0.27914 -0.0291904 -2.95476e-20)
(0.359461 -0.0267776 3.02985e-20)
(0.448204 -0.0185543 3.31373e-20)
(0.54822 -0.00252089 -1.22224e-20)
(0.00428833 -0.00209572 -4.32788e-21)
(0.025663 -0.0102381 1.80886e-20)
(0.0616413 -0.0174253 -2.0494e-20)
(0.109923 -0.024017 -2.56696e-21)
(0.169527 -0.0291153 -1.04464e-20)
(0.239504 -0.0319114 2.29099e-20)
(0.31895 -0.0317084 2.9833e-20)
(0.407336 -0.0277848 -2.93261e-20)
(0.505396 -0.0187326 3.282e-20)
(0.612844 -0.00949716 5.38505e-21)
(0.00678896 -0.0037013 -1.24489e-20)
(0.0335246 -0.0140334 -3.66325e-20)
(0.0755261 -0.022211 3.69857e-20)
(0.130316 -0.0289473 5.44262e-21)
(0.196805 -0.0334916 7.96407e-21)
(0.273919 -0.0352075 5.35199e-21)
(0.360608 -0.0336582 2.31975e-20)
(0.456175 -0.0285122 1.72706e-20)
(0.561054 -0.0192703 -6.32965e-20)
(0.671621 -0.0143827 -3.24324e-20)
(0.042377 -0.0177356 9.01929e-21)
(0.0908643 -0.0267439 -2.12174e-20)
(0.152486 -0.0334253 4.08727e-21)
(0.226015 -0.0372036 6.83992e-21)
(0.3102 -0.0376462 -5.05068e-20)
(0.403734 -0.0346013 2.31507e-20)
(0.505517 -0.0281174 -1.56444e-20)
(0.615211 -0.0182694 1.69304e-20)
(0.727042 -0.0148824 -6.74686e-21)
(0.107639 -0.0308657 -1.17645e-21)
(0.176372 -0.0372459 -5.9149e-21)
(0.257032 -0.0400011 6.68244e-23)
(0.348135 -0.0389212 2.17742e-22)
(0.448046 -0.034137 -3.49996e-20)
(0.555145 -0.0260268 4.87388e-21)
(0.668228 -0.0150352 4.65988e-20)
(0.780443 -0.0113636 2.22007e-20)
(0.125816 -0.034414 3.62435e-20)
(0.201893 -0.0402022 8.83093e-22)
(0.28971 -0.0416388 -1.62013e-20)
(0.387513 -0.03875 4.40963e-20)
(0.493286 -0.0319414 1.00147e-20)
(0.604862 -0.0218789 7.82174e-22)
(0.720226 -0.00927537 -2.02372e-20)
(0.832101 -0.00417512 -2.82776e-20)
(0.228945 -0.0420932 -1.57218e-20)
(0.323884 -0.0418883 2.60111e-20)
(0.428103 -0.0368876 -1.30948e-20)
(0.539183 -0.0277682 -1.52327e-20)
(0.654425 -0.0154574 -3.54157e-21)
(0.771103 -0.000893759 -1.19481e-20)
(0.881905 0.00632127 1.38334e-20)
(0.359358 -0.0405449 1.43993e-20)
(0.469646 -0.0331329 -4.89156e-20)
(0.585436 -0.0214449 3.24329e-20)
(0.703533 -0.00666004 -1.51407e-20)
(0.820622 0.0100655 2.39522e-20)
(0.929593 0.0197188 6.83221e-21)
(0.631709 -0.0128673 -8.21606e-21)
(0.751844 0.00452599 7.27306e-21)
(0.868473 0.023468 -1.83307e-20)
(0.974843 0.0356063 -1.96778e-20)
(0.798981 0.0180449 -2.32145e-20)
(0.914307 0.0391238 4.39825e-22)
(1.01732 0.0535856 1.37791e-20)
(0.957771 0.0568072 1.84489e-20)
(1.05673 0.073277 -8.21439e-21)
(-0.000760229 -0.000601241 -3.61833e-22)
(-0.00384224 -0.00130988 1.15848e-21)
(-0.0092904 -0.00165784 1.42752e-21)
(-0.0390192 0.000325985 1.58966e-22)
(-0.0399077 -6.97423e-05 -3.78556e-22)
(-0.0387011 -0.000515026 2.9221e-23)
(-0.0354695 -0.000996438 1.6508e-22)
(-0.0298127 -0.0014664 -2.07799e-24)
(-0.0216677 -0.00189123 2.6932e-23)
(-0.0110838 -0.00225415 2.2482e-23)
(0.00180803 -0.00254726 -1.6451e-22)
(0.0168169 -0.0027707 6.24022e-23)
(0.0337267 -0.00292922 -1.47174e-22)
(0.0523122 -0.00303 1.28059e-22)
(0.0723525 -0.00308105 -1.35185e-22)
(0.0936368 -0.00309027 4.5327e-23)
(0.115968 -0.00306488 2.69185e-23)
(0.139162 -0.00301135 -5.3173e-23)
(0.163052 -0.00293522 -3.75799e-23)
(0.187473 -0.00284137 -2.97656e-23)
(0.212298 -0.00273367 1.04893e-23)
(0.237355 -0.00261615 1.15695e-23)
(0.262598 -0.00249063 5.86358e-24)
(0.28776 -0.0023621 -3.35625e-23)
(0.313037 -0.00222772 4.54808e-24)
(0.337764 -0.00209949 -1.36583e-23)
(0.362928 -0.00195905 5.48253e-24)
(0.386471 -0.0018464 -1.08005e-23)
(0.411964 -0.00168948 2.3676e-24)
(0.432769 -0.0016246 6.2518e-24)
(0.460655 -0.00141003 -3.81185e-25)
(0.474685 -0.00145706 4.97863e-24)
(0.510985 -0.00113103 9.25868e-24)
(-0.036347 0.000951254 3.02799e-22)
(-0.0371539 -0.000241636 7.7752e-22)
(-0.0357491 -0.00157152 -1.15562e-21)
(-0.0323473 -0.00300995 3.04994e-22)
(-0.0265434 -0.00441331 1.57469e-22)
(-0.0182842 -0.00568097 -5.86165e-22)
(-0.00762568 -0.00676327 9.31269e-22)
(0.00530108 -0.00763698 -7.84396e-22)
(0.0203075 -0.00830281 -2.22645e-23)
(0.0371821 -0.008775 4.2858e-22)
(0.055705 -0.00907504 -6.28238e-23)
(0.075661 -0.00922678 -1.25782e-22)
(0.0968439 -0.00925371 -9.43231e-23)
(0.119061 -0.0091774 1.51145e-22)
(0.142132 -0.00901705 2.71479e-23)
(0.165893 -0.00878916 1.47986e-22)
(0.190181 -0.00850834 -8.49159e-23)
(0.214872 -0.00818609 4.42976e-23)
(0.239795 -0.00783443 1.63284e-23)
(0.264904 -0.00745881 -4.91473e-23)
(0.289935 -0.00707418 -6.12397e-23)
(0.315083 -0.00667201 5.03885e-24)
(0.339684 -0.00628823 -2.74821e-24)
(0.364725 -0.0058678 2.54445e-23)
(0.388152 -0.00553071 -2.56449e-24)
(0.413528 -0.00506078 -6.95297e-25)
(0.43423 -0.00486682 -3.69676e-24)
(0.461999 -0.00422412 -1.57855e-24)
(0.475952 -0.00436533 2.0512e-24)
(0.512117 -0.00338947 -1.0894e-23)
(-0.0309944 0.00150011 1.88408e-21)
(-0.0316405 -0.000509086 -1.70441e-21)
(-0.0298415 -0.00270666 5.08894e-22)
(-0.0261031 -0.00508465 -1.88706e-21)
(-0.0200089 -0.00740181 8.0835e-22)
(-0.0115257 -0.00949182 1.85558e-21)
(-0.000721912 -0.0112742 9.40733e-23)
(0.0122708 -0.0127118 -1.27321e-21)
(0.0272691 -0.0138066 5.34882e-23)
(0.0440707 -0.0145826 3.54213e-22)
(0.0624669 -0.015075 -2.92257e-22)
(0.0822529 -0.0153233 1.29778e-22)
(0.103233 -0.0153659 3.41046e-22)
(0.125222 -0.0152382 2.06895e-22)
(0.148048 -0.0149718 -8.15109e-23)
(0.171551 -0.0145937 -4.22565e-22)
(0.195575 -0.0141281 2.29517e-22)
(0.219999 -0.0135938 -2.25661e-22)
(0.244653 -0.0130108 1.50054e-22)
(0.269497 -0.0123879 -7.4309e-23)
(0.294266 -0.01175 1.79573e-22)
(0.319156 -0.0110829 1.21818e-23)
(0.343508 -0.0104464 -8.09444e-24)
(0.368304 -0.00974861 -3.46959e-23)
(0.3915 -0.0091896 -1.93241e-24)
(0.416643 -0.0084092 -2.98583e-23)
(0.437141 -0.00808819 4.04906e-24)
(0.464679 -0.00702032 2.72981e-24)
(0.47848 -0.00725608 -8.48983e-24)
(0.514376 -0.00563702 -7.04649e-24)
(-0.0229433 0.0019324 -2.59341e-21)
(-0.0233572 -0.000932495 1.34533e-21)
(-0.0209711 -0.00397066 -1.49893e-21)
(-0.0167366 -0.00725886 1.60134e-21)
(-0.0102172 -0.0104572 -1.92462e-21)
(-0.00140836 -0.0133356 -1.6343e-22)
(0.00960263 -0.0157861 2.18734e-21)
(0.0226846 -0.0177602 -1.18651e-22)
(0.0376625 -0.0192621 -7.39958e-22)
(0.0543485 -0.0203256 7.61946e-24)
(0.07255 -0.0209995 -2.3925e-23)
(0.0920785 -0.0213376 4.42637e-22)
(0.112752 -0.0213927 -7.23792e-23)
(0.1344 -0.021213 -7.65462e-22)
(0.156859 -0.0208419 5.14751e-22)
(0.179978 -0.0203164 -1.06117e-22)
(0.203608 -0.0196695 6.75371e-23)
(0.227633 -0.0189274 1.58983e-23)
(0.251889 -0.0181176 -6.9602e-23)
(0.276337 -0.0172522 1.43325e-23)
(0.300716 -0.0163659 6.17428e-23)
(0.325224 -0.0154385 2.20806e-23)
(0.349206 -0.0145538 -1.49496e-23)
(0.373638 -0.0135831 -3.99477e-24)
(0.396491 -0.0128064 4.69691e-23)
(0.421286 -0.0117197 1.26848e-23)
(0.441482 -0.011275 -4.56012e-24)
(0.468677 -0.0097869 3.59858e-24)
(0.482251 -0.0101178 -5.98052e-24)
(0.517747 -0.00786647 3.01437e-23)
(-0.0121663 0.00218434 5.42375e-21)
(-0.0122892 -0.00156147 -1.73194e-21)
(-0.00912568 -0.00540738 2.03706e-21)
(-0.00424637 -0.00956678 -1.43218e-22)
(0.00282093 -0.0136007 -1.84624e-21)
(0.0120436 -0.0172205 9.74412e-22)
(0.023311 -0.0202952 1.62087e-22)
(0.0364937 -0.0227682 -1.21402e-21)
(0.0514294 -0.0246474 -6.63497e-23)
(0.0679497 -0.0259765 6.23806e-22)
(0.0858837 -0.0268172 -3.90604e-22)
(0.105064 -0.0272364 -6.75397e-23)
(0.125328 -0.0272999 4.04586e-22)
(0.14652 -0.0270679 -1.6706e-22)
(0.168491 -0.0265941 4.40265e-23)
(0.191102 -0.025925 -3.20685e-22)
(0.214211 -0.0251022 1.41958e-22)
(0.237709 -0.0241582 4.8906e-23)
(0.261438 -0.023128 6.60807e-24)
(0.285365 -0.0220267 -3.35643e-24)
(0.309231 -0.0208986 -2.92665e-22)
(0.333236 -0.0197174 -2.42717e-23)
(0.35673 -0.018591 -1.7113e-23)
(0.380683 -0.0173535 6.22446e-23)
(0.403085 -0.0163648 -5.40795e-23)
(0.427425 -0.0149776 -4.28632e-24)
(0.447223 -0.0144138 3.1301e-23)
(0.473965 -0.0125124 1.22998e-23)
(0.487243 -0.0129392 2.55841e-23)
(0.522212 -0.0100707 -1.52919e-23)
(0.00136363 0.00206991 1.27297e-21)
(0.00160152 -0.00239054 1.76566e-22)
(0.0057106 -0.00704983 -3.25448e-22)
(0.0113712 -0.0120369 -1.09857e-21)
(0.0190923 -0.0168487 4.59124e-21)
(0.028799 -0.0211499 -1.40687e-21)
(0.0403541 -0.0247933 -9.49345e-22)
(0.0536335 -0.0277182 -6.73829e-22)
(0.0684923 -0.0299381 1.09905e-21)
(0.0847871 -0.0315063 2.59074e-22)
(0.102374 -0.032496 -5.14398e-22)
(0.121112 -0.0329862 -5.7172e-22)
(0.14086 -0.0330537 3.35173e-22)
(0.161483 -0.0327691 -1.36539e-22)
(0.182847 -0.0321958 2.08294e-22)
(0.204828 -0.0313885 1.26677e-22)
(0.227292 -0.0303964 -1.15008e-22)
(0.25014 -0.0292583 1.98154e-22)
(0.273221 -0.0280159 -3.58539e-22)
(0.296505 -0.026687 -3.69896e-23)
(0.319741 -0.0253257 -3.9402e-23)
(0.343126 -0.023899 -2.77192e-23)
(0.366021 -0.0225389 1.12368e-22)
(0.389386 -0.0210424 -6.9367e-23)
(0.411234 -0.0198491 -8.18989e-23)
(0.435013 -0.0181687 -5.66245e-23)
(0.454323 -0.0174917 -4.08533e-23)
(0.48051 -0.0151856 2.71815e-24)
(0.493426 -0.0157092 -1.89629e-23)
(0.527746 -0.0122426 -4.42057e-24)
(0.0176688 0.00168168 -3.17826e-22)
(0.0184265 -0.00349045 -1.40085e-21)
(0.0235413 -0.00894062 2.31626e-21)
(0.0301213 -0.014692 -3.43118e-21)
(0.0385823 -0.0202109 3.22669e-22)
(0.0488196 -0.025121 1.48336e-21)
(0.0606714 -0.0292671 2.52106e-24)
(0.0740236 -0.0325887 -2.13271e-21)
(0.0887549 -0.0351067 2.47725e-21)
(0.104753 -0.0368837 -1.35413e-21)
(0.121906 -0.0380028 1.09938e-21)
(0.140101 -0.0385529 8.31874e-22)
(0.159227 -0.0386201 -7.48191e-22)
(0.179168 -0.0382838 -6.26714e-22)
(0.199809 -0.0376152 1.11101e-22)
(0.221041 -0.0366765 -1.78218e-22)
(0.242742 -0.0355236 -6.62811e-23)
(0.264822 -0.0342007 -9.20068e-23)
(0.287138 -0.0327562 -1.29978e-22)
(0.309664 -0.0312101 2.72009e-22)
(0.332157 -0.0296257 1.80374e-22)
(0.354814 -0.0279635 -1.28412e-23)
(0.377005 -0.0263795 -9.10091e-23)
(0.399678 -0.0246332 1.92762e-22)
(0.420876 -0.0232442 1.21851e-23)
(0.443997 -0.0212795 4.9354e-23)
(0.462735 -0.0204962 -5.80428e-23)
(0.488269 -0.0177959 -4.76334e-24)
(0.500761 -0.0184175 5.7259e-24)
(0.534318 -0.0143753 1.43806e-23)
(0.0368335 0.00115023 4.35471e-21)
(0.0381809 -0.00495169 -1.01385e-22)
(0.0444232 -0.0111044 1.00682e-21)
(0.0520189 -0.0175453 -5.74781e-22)
(0.0612758 -0.0236882 3.90902e-22)
(0.0720604 -0.0291229 2.92255e-21)
(0.08419 -0.0336962 -1.94424e-21)
(0.0975674 -0.0373528 -1.7926e-21)
(0.112102 -0.0401222 -1.57487e-22)
(0.127718 -0.0420754 -2.82046e-22)
(0.144341 -0.0433035 1.69319e-21)
(0.161891 -0.0439025 -1.17758e-21)
(0.180285 -0.0439659 5.76891e-22)
(0.199432 -0.0435796 -1.0709e-21)
(0.219237 -0.0428217 -3.18028e-22)
(0.239605 -0.04176 6.13735e-22)
(0.26043 -0.0404565 2.47743e-22)
(0.28163 -0.0389602 5.03684e-23)
(0.303071 -0.0373253 1.88742e-22)
(0.324733 -0.0355739 -1.26007e-22)
(0.346378 -0.0337784 -3.06944e-22)
(0.368205 -0.0318924 1.89291e-22)
(0.389595 -0.0300958 8.80401e-23)
(0.411481 -0.0281105 -1.42163e-22)
(0.431939 -0.0265359 1.56704e-22)
(0.454312 -0.0242971 4.02349e-23)
(0.472401 -0.0234155 2.5315e-23)
(0.497191 -0.0203332 5.31788e-24)
(0.509205 -0.0210539 -1.2206e-23)
(0.541891 -0.016462 -4.5102e-23)
(0.0589339 0.000340568 -2.86588e-21)
(0.0609272 -0.00674344 2.9717e-21)
(0.0684061 -0.0135475 4.21835e-22)
(0.0770832 -0.0205997 -1.69554e-21)
(0.0871568 -0.0272709 -2.36167e-21)
(0.098469 -0.0331354 1.09677e-21)
(0.110824 -0.0380528 1.05511e-22)
(0.124152 -0.041978 -2.11435e-21)
(0.1384 -0.0449498 -3.77831e-22)
(0.153535 -0.0470458 1.45683e-21)
(0.169523 -0.0483625 1.34925e-22)
(0.186319 -0.0490007 3.93078e-22)
(0.203871 -0.0490581 -5.71878e-22)
(0.222114 -0.0486256 1.11368e-21)
(0.240972 -0.0477858 -4.01207e-22)
(0.260369 -0.0466114 -6.72915e-22)
(0.28021 -0.0451694 5.81212e-22)
(0.300426 -0.0435127 4.62979e-22)
(0.32089 -0.0417011 -3.9877e-22)
(0.341588 -0.0397581 -7.68972e-23)
(0.36229 -0.037765 4.2578e-23)
(0.383194 -0.0356682 -3.45456e-23)
(0.403693 -0.0336717 -5.83728e-23)
(0.424705 -0.0314596 1.59254e-22)
(0.444343 -0.0297108 -1.07918e-22)
(0.465885 -0.0272094 -1.02071e-22)
(0.483255 -0.0262384 -8.40074e-24)
(0.50722 -0.0227879 8.20266e-25)
(0.518708 -0.023609 1.07887e-23)
(0.550424 -0.0184962 -4.46051e-23)
(0.0840532 -0.000771487 2.1682e-21)
(0.0867594 -0.00886188 2.29091e-21)
(0.09555 -0.0162706 -3.38337e-21)
(0.10534 -0.0238452 -1.92442e-21)
(0.116208 -0.0309369 4.5882e-21)
(0.127983 -0.0371272 7.16024e-22)
(0.140473 -0.0423004 -2.47548e-21)
(0.153646 -0.0464255 1.63325e-21)
(0.167496 -0.0495504 -1.43263e-21)
(0.182035 -0.0517571 1.01284e-21)
(0.197273 -0.0531439 3.34319e-22)
(0.213203 -0.0538132 7.96837e-22)
(0.229802 -0.0538647 -4.29182e-22)
(0.247033 -0.0533916 -6.23207e-22)
(0.264839 -0.0524797 7.02473e-22)
(0.283162 -0.051205 1.68085e-22)
(0.301921 -0.0496385 -4.83718e-22)
(0.321055 -0.0478362 4.22893e-22)
(0.340449 -0.0458632 -1.48859e-22)
(0.360094 -0.0437437 3.03904e-22)
(0.379766 -0.0415681 2.15587e-22)
(0.399663 -0.039275 4.65957e-23)
(0.419191 -0.0370928 -2.71939e-22)
(0.439252 -0.0346671 8.7765e-23)
(0.457998 -0.0327567 4.69882e-23)
(0.478636 -0.0300055 6.91288e-23)
(0.495227 -0.0289548 9.03341e-23)
(0.518292 -0.0251513 -2.17319e-23)
(0.529213 -0.0260741 -4.19517e-23)
(0.559871 -0.0204715 6.4449e-23)
(0.112289 -0.0021713 3.32882e-21)
(0.115791 -0.0113015 2.68e-21)
(0.125932 -0.0192621 -7.83221e-21)
(0.136819 -0.0272572 -3.08038e-21)
(0.148406 -0.0346495 9.67425e-21)
(0.160529 -0.0410549 -8.30348e-21)
(0.173021 -0.0463931 3.93398e-21)
(0.185901 -0.0506502 1.72722e-21)
(0.199216 -0.0538812 -7.41549e-22)
(0.213031 -0.0561692 2.07901e-22)
(0.227397 -0.0576108 -1.28135e-21)
(0.242344 -0.0583065 1.12027e-21)
(0.257881 -0.0583549 1.02101e-21)
(0.273994 -0.0578496 -1.19373e-21)
(0.290649 -0.0568775 4.51015e-22)
(0.307802 -0.0555169 -3.62884e-23)
(0.325387 -0.0538418 8.37332e-22)
(0.343353 -0.0519106 6.31782e-22)
(0.361593 -0.0497931 -1.76971e-22)
(0.380103 -0.0475138 7.05486e-23)
(0.398669 -0.0451722 3.4441e-23)
(0.417486 -0.0426985 -4.17782e-22)
(0.435974 -0.0403457 2.08191e-22)
(0.455016 -0.0377211 -2.68533e-22)
(0.472808 -0.0356626 9.79958e-24)
(0.492478 -0.0326753 -2.88092e-23)
(0.508237 -0.0315552 -2.8307e-23)
(0.530338 -0.0274155 -7.65673e-25)
(0.540659 -0.028441 6.71342e-23)
(0.57018 -0.0223818 1.75431e-23)
(0.143752 -0.00384233 -1.08614e-21)
(0.14816 -0.0140448 8.54867e-21)
(0.159645 -0.0224935 -2.96891e-21)
(0.171556 -0.0307933 -1.00136e-20)
(0.18372 -0.0383556 1.27097e-20)
(0.196016 -0.0448614 -5.75355e-21)
(0.20833 -0.0502753 2.32608e-22)
(0.220745 -0.0546005 -4.74777e-21)
(0.233369 -0.0578959 2.46166e-21)
(0.246316 -0.060241 1.16893e-21)
(0.25968 -0.0617266 -2.26693e-21)
(0.273527 -0.0624477 7.99714e-22)
(0.287893 -0.0624994 1.16283e-23)
(0.302788 -0.061973 1.16013e-22)
(0.318198 -0.0609555 -9.53929e-22)
(0.334095 -0.0595256 7.93205e-22)
(0.350423 -0.0577597 2.86756e-22)
(0.367143 -0.055718 -7.08386e-22)
(0.384155 -0.0534743 -5.14768e-22)
(0.401462 -0.0510534 1.28149e-22)
(0.418856 -0.0485634 3.37228e-22)
(0.436529 -0.0459261 -2.72383e-22)
(0.453918 -0.043419 2.43074e-22)
(0.471883 -0.0406109 -2.2063e-24)
(0.488669 -0.0384186 -4.59809e-23)
(0.507318 -0.0352099 -5.60159e-23)
(0.522204 -0.0340314 6.50561e-23)
(0.543286 -0.0295732 6.91589e-24)
(0.552983 -0.0307025 -3.89091e-24)
(0.581298 -0.0242214 -2.05961e-23)
(0.178569 -0.00577073 1.43048e-20)
(0.184034 -0.0170638 -1.41089e-23)
(0.196804 -0.0259183 -1.36034e-20)
(0.209583 -0.0343907 1.17389e-20)
(0.222103 -0.0419836 4.63856e-22)
(0.234331 -0.0484759 -4.13257e-21)
(0.246237 -0.0538822 3.10273e-21)
(0.257984 -0.0582195 2.04326e-21)
(0.269738 -0.0615454 -1.80063e-21)
(0.281664 -0.0639304 -2.92105e-21)
(0.293892 -0.0654551 8.52342e-22)
(0.306521 -0.0662058 5.88767e-23)
(0.319611 -0.066271 -4.25157e-22)
(0.333195 -0.0657382 7.61219e-22)
(0.347275 -0.0646924 -4.32079e-22)
(0.361836 -0.0632122 4.27465e-22)
(0.376835 -0.0613753 -2.33842e-22)
(0.392242 -0.059243 6.10342e-22)
(0.407964 -0.056893 1.72083e-22)
(0.424009 -0.0543497 -2.25472e-22)
(0.440175 -0.0517299 -4.6655e-22)
(0.456652 -0.0489468 2.76639e-22)
(0.472894 -0.0463026 -1.41897e-22)
(0.489735 -0.0433272 -8.77352e-24)
(0.505474 -0.0410162 9.52375e-23)
(0.523059 -0.0376016 -2.89143e-23)
(0.537038 -0.0363759 -6.7e-23)
(0.557057 -0.0316182 -1.75533e-24)
(0.566113 -0.0328521 -2.78988e-23)
(0.593166 -0.0259847 7.59243e-23)
(0.216884 -0.00794756 3.09135e-21)
(0.22362 -0.020322 -3.77244e-21)
(0.237535 -0.0294679 5.64116e-21)
(0.250917 -0.0379621 2.01012e-21)
(0.263481 -0.0454419 2.01183e-21)
(0.275329 -0.0518135 -3.20757e-21)
(0.286553 -0.0571404 -4.82008e-21)
(0.297398 -0.0614461 3.8916e-21)
(0.308089 -0.0647793 2.82203e-21)
(0.318831 -0.067196 -4.94399e-21)
(0.329788 -0.0687621 5.67494e-22)
(0.341083 -0.0695519 1.25086e-21)
(0.352799 -0.0696454 -7.97403e-22)
(0.364985 -0.0691241 2.19745e-21)
(0.377658 -0.0680702 -8.82568e-22)
(0.390815 -0.0665608 -6.22668e-23)
(0.404424 -0.0646743 9.72238e-23)
(0.418461 -0.0624728 4.82251e-22)
(0.432842 -0.0600375 -2.85037e-22)
(0.447576 -0.0573921 5.61102e-22)
(0.462471 -0.0546622 -5.30754e-22)
(0.477712 -0.0517519 -1.10819e-22)
(0.49277 -0.0489883 -1.59086e-22)
(0.508452 -0.0458625 7.57199e-23)
(0.523112 -0.0434484 -9.94914e-23)
(0.539601 -0.0398441 1.46149e-22)
(0.55265 -0.0385825 5.9393e-23)
(0.571571 -0.0335452 -2.11076e-23)
(0.579979 -0.0348845 1.61759e-23)
(0.605724 -0.0276668 -6.7765e-23)
(0.258876 -0.0103816 -5.47099e-21)
(0.267175 -0.0237746 7.2852e-21)
(0.281976 -0.0330439 2.36554e-22)
(0.295552 -0.04139 -3.37323e-21)
(0.307737 -0.0486163 4.73352e-21)
(0.318825 -0.0547754 -1.12936e-21)
(0.329051 -0.0599694 2.92733e-22)
(0.338739 -0.0642163 4.36167e-21)
(0.348163 -0.067547 -6.98702e-21)
(0.357557 -0.0699974 5.72231e-21)
(0.36711 -0.0716151 -2.03436e-21)
(0.376962 -0.0724599 -1.8801e-21)
(0.387212 -0.072601 3.09798e-22)
(0.397922 -0.0721128 -2.22064e-22)
(0.409122 -0.0710734 8.50473e-22)
(0.420818 -0.069558 4.26547e-22)
(0.432986 -0.0676452 -1.39392e-21)
(0.445609 -0.0653971 -9.34069e-23)
(0.458608 -0.0628986 9.22879e-22)
(0.471996 -0.0601722 -4.30319e-22)
(0.485588 -0.0573525 4.12676e-22)
(0.499563 -0.0543342 4.0145e-23)
(0.51341 -0.0514694 5.12073e-23)
(0.527907 -0.0482106 -1.07178e-22)
(0.541469 -0.0457093 5.65203e-23)
(0.556839 -0.0419319 -5.31235e-23)
(0.568946 -0.0406461 9.94818e-24)
(0.586746 -0.0353499 -1.70752e-23)
(0.594506 -0.0367948 -8.29786e-24)
(0.618908 -0.0292629 4.99802e-23)
(0.30479 -0.0131023 -8.41307e-22)
(0.315017 -0.0273499 -1.03635e-20)
(0.330258 -0.0365017 2.96238e-22)
(0.34343 -0.0445179 5.69561e-21)
(0.3547 -0.0513686 3.22019e-22)
(0.364584 -0.0572501 -5.16843e-22)
(0.373466 -0.0622823 -2.01332e-21)
(0.381731 -0.066463 5.41984e-21)
(0.38968 -0.0697969 -3.82027e-21)
(0.397566 -0.0722946 -5.48334e-22)
(0.405587 -0.0739827 3.34709e-21)
(0.413895 -0.0749045 -2.52305e-21)
(0.422597 -0.0751172 -3.31566e-22)
(0.431766 -0.0746873 1.49929e-21)
(0.441438 -0.073688 1.46939e-21)
(0.451627 -0.0721919 -1.1346e-21)
(0.462316 -0.0702776 -1.69664e-22)
(0.473492 -0.068007 3.61707e-22)
(0.485082 -0.0654683 -1.90933e-22)
(0.497099 -0.0626829 -1.89249e-22)
(0.509366 -0.0597944 9.7113e-23)
(0.522057 -0.0566879 -2.80503e-22)
(0.534678 -0.0537407 1.63539e-22)
(0.547978 -0.0503667 3.57026e-22)
(0.56043 -0.0477943 -1.68378e-22)
(0.57467 -0.0438611 4.01452e-23)
(0.585832 -0.0425624 -3.28804e-24)
(0.602496 -0.0370289 1.03161e-23)
(0.609618 -0.0385793 -2.14219e-23)
(0.632654 -0.0307689 -4.7097e-23)
(0.355021 -0.0161437 9.30002e-21)
(0.36753 -0.0309469 -7.89071e-21)
(0.38247 -0.0396533 9.60334e-21)
(0.394406 -0.0471573 -9.50217e-21)
(0.404115 -0.0535457 3.18657e-21)
(0.412313 -0.0591218 3.7978e-21)
(0.41949 -0.0639938 1.40805e-21)
(0.426064 -0.0681237 -2.0258e-21)
(0.43234 -0.0714823 -4.41133e-21)
(0.438567 -0.0740524 3.65642e-21)
(0.444941 -0.0758379 -2.88698e-21)
(0.451616 -0.0768647 4.56973e-21)
(0.458703 -0.0771776 -3.68863e-21)
(0.466277 -0.0768344 7.4078e-22)
(0.474379 -0.0759032 6.30511e-22)
(0.483028 -0.0744537 4.7322e-22)
(0.492211 -0.0725641 -8.96807e-22)
(0.501918 -0.0702961 -2.53725e-22)
(0.512082 -0.0677412 5.37375e-22)
(0.522716 -0.0649195 2.07504e-22)
(0.53365 -0.0619837 -5.52639e-22)
(0.545048 -0.0588091 2.42626e-22)
(0.556439 -0.0557987 -8.50774e-23)
(0.568537 -0.0523276 -1.07493e-22)
(0.579881 -0.0497005 1.70795e-22)
(0.59299 -0.0456289 1.6097e-23)
(0.603212 -0.0443287 6.03873e-24)
(0.618738 -0.0385798 -3.89127e-24)
(0.625239 -0.0402353 2.8313e-23)
(0.646897 -0.0321808 1.65542e-23)
(0.410257 -0.0197054 1.19683e-21)
(0.425135 -0.0345433 -9.88356e-21)
(0.438592 -0.0423049 -3.89482e-22)
(0.448211 -0.0491159 1.92576e-21)
(0.455633 -0.0550086 -5.86981e-21)
(0.461648 -0.0602993 -9.19439e-22)
(0.466773 -0.0650468 3.94798e-21)
(0.471407 -0.0691651 -3.14602e-23)
(0.475827 -0.0725868 5.46637e-21)
(0.48026 -0.0752658 -7.62862e-21)
(0.484889 -0.0771834 4.52554e-21)
(0.489859 -0.0783483 -2.89423e-21)
(0.495275 -0.0787929 1.87571e-21)
(0.501214 -0.0785664 -1.5373e-22)
(0.507718 -0.0777318 5.3398e-22)
(0.514807 -0.0763559 -3.15499e-22)
(0.52247 -0.0745165 1.51732e-22)
(0.530701 -0.0722751 -1.66237e-21)
(0.539435 -0.0697266 7.2778e-22)
(0.548684 -0.0668899 -1.45647e-22)
(0.558284 -0.0639269 -2.52844e-22)
(0.568395 -0.060703 2.364e-22)
(0.578561 -0.0576475 1.00831e-22)
(0.589464 -0.0540959 -1.37593e-22)
(0.599709 -0.05143 1.4799e-22)
(0.611695 -0.047236 -6.76444e-23)
(0.620992 -0.0459457 -8.17654e-24)
(0.635386 -0.0400018 -6.91928e-24)
(0.64129 -0.0417625 9.42512e-24)
(0.661568 -0.0334955 -1.69273e-23)
(0.471705 -0.02446 -6.93606e-21)
(0.488231 -0.0379951 -1.37503e-21)
(0.498418 -0.0441098 5.62635e-21)
(0.504406 -0.0501363 -2.18e-21)
(0.508792 -0.0556016 2.12401e-21)
(0.512164 -0.0606953 -4.44646e-21)
(0.514924 -0.0653986 6.97326e-21)
(0.5174 -0.0695744 -1.11526e-21)
(0.51981 -0.0731183 -2.46164e-21)
(0.52234 -0.0759574 5.01216e-21)
(0.525146 -0.0780518 -3.0139e-21)
(0.528355 -0.0793943 2.55662e-21)
(0.532064 -0.0800054 -2.51892e-21)
(0.536345 -0.0799264 -4.57704e-22)
(0.541236 -0.0792159 -4.02506e-22)
(0.546758 -0.077938 1.89185e-21)
(0.552901 -0.076171 -1.52859e-21)
(0.559658 -0.0739762 8.68492e-22)
(0.566968 -0.0714528 -5.35908e-22)
(0.574841 -0.0686179 5.71851e-22)