/*--------------------------------*- C++ -*----------------------------------*\
  =========                 |
  \\      /  F ield         | OpenFOAM: The Open Source CFD Toolbox
   \\    /   O peration     | Website:  https://openfoam.org
    \\  /    A nd           | Version:  7
     \\/     M anipulation  |
\*---------------------------------------------------------------------------*/
FoamFile
{
    version     2.0;
    format      ascii;
    class       surfaceScalarField;
    location    "10";
    object      phi;
}
// * * * * * * * * * * * * * * * * * * * * * * * * * * * * * * * * * * * * * //

dimensions      [0 3 -1 0 0 0 0];

internalField   nonuniform List<scalar> 
16735
(
-4.25781e-05
4.2578e-05
1.6255e-11
-0.000145807
0.000103229
-2.21922e-12
-0.000293695
0.000147888
-1.13473e-10
-0.000470682
0.000176987
-3.43328e-10
-0.00066209
0.000191408
-6.85844e-10
-0.000854897
0.000192808
-1.11625e-09
-0.00103876
0.000183861
-1.63988e-09
-0.00120745
0.000168699
-2.27075e-09
-0.00135983
0.000152378
-3.02199e-09
0.000141429
-3.91009e-09
-0.00150125
-4.18001e-05
8.43782e-05
-0.000142777
0.000204206
-0.00028681
0.000291921
-0.00045814
0.000348317
-0.00064181
0.000375078
-0.000824426
0.000375424
-0.000995176
0.000354611
-0.00114733
0.00032085
-0.00127926
0.000284311
0.000258049
-0.00139588
-4.02564e-05
0.000124635
-0.000136757
0.000300707
-0.000273122
0.000428286
-0.000433197
0.000508392
-0.000601473
0.000543354
-0.000763815
0.000537766
-0.00090848
0.000499276
-0.0010277
0.000440067
-0.0011189
0.000375519
0.000325237
-0.00118609
-3.79699e-05
0.000162604
-0.000127823
0.00039056
-0.000252789
0.000553253
-0.000396129
0.000651731
-0.000541512
0.000688737
-0.000673703
0.000669957
-0.000779572
0.000605145
-0.00084978
0.000510275
-0.000880332
0.000406071
0.000318638
-0.000873732
-3.49729e-05
0.000197577
-0.000116081
0.000471669
-0.000226034
0.000663205
-0.00034732
0.000773018
-0.000462537
0.000803953
-0.000555003
0.000762423
-0.000609745
0.000659887
-0.000615312
0.000515841
-0.000566018
0.000356778
0.000214175
-0.000461555
-3.13036e-05
0.000228881
-0.00010166
0.000542025
-0.000193123
0.000754668
-0.00028724
0.000867134
-0.000365297
0.000882011
-0.000408842
0.000805968
-0.000400609
0.000651654
-0.000326309
0.000441542
-0.000177958
0.000208427
6.48824e-08
3.61517e-05
-2.70033e-05
0.000255884
-8.46969e-05
0.000599719
-0.00015435
0.000824321
-0.000216405
0.000929189
-0.000250628
0.000916234
-0.000236495
0.000791834
-0.000154031
0.00056919
1.41092e-05
0.000273401
0.000280835
-5.82994e-05
-0.000364183
0.000645083
-2.21121e-05
0.000277996
-6.53287e-05
0.000642935
-0.000110006
0.000868998
-0.000135339
0.000954523
-0.000119393
0.000900288
-3.93156e-05
0.000711757
0.000128001
0.000401873
0.000403986
-2.58338e-06
0.000804291
-0.000458605
-0.000892278
0.00133239
-1.66655e-05
0.000294662
-4.36793e-05
0.000669949
-6.03624e-05
0.000885682
-4.4536e-05
0.000938696
2.75808e-05
0.000828171
0.000181358
0.00055798
0.000443353
0.000139878
0.000839405
-0.000398635
0.00139016
-0.00100936
-0.00160453
0.00210241
-1.06914e-05
0.000305353
-1.98492e-05
0.000679107
-5.64206e-06
0.000871474
5.55815e-05
0.000877473
0.000189563
0.00069419
0.00042432
0.000323222
0.000790076
-0.000225878
0.00131766
-0.000926216
0.00203368
-0.00172538
-0.00252029
0.00294944
-4.21023e-06
0.000309563
6.08787e-06
0.000668809
5.39741e-05
0.000823588
0.000164686
0.000766761
0.000365976
0.0004929
0.000688559
6.38768e-07
0.00116642
-0.00070374
0.00183577
-0.00159557
0.00273026
-0.00261987
-0.0036573
0.00386726
2.78567e-06
0.000306778
3.40879e-05
0.000637507
0.000118388
0.000739288
0.000282561
0.000602588
0.000556417
0.000219044
0.000973332
-0.000416276
0.00157098
-0.00130139
0.00239109
-0.00241568
0.00347539
-0.00370417
-0.00503159
0.00484969
1.02744e-05
0.000296503
6.41432e-05
0.000583638
0.000187541
0.00061589
0.000409084
0.000381045
0.000760663
-0.000132535
0.0012782
-0.000933815
0.00200278
-0.00202597
0.00298146
-0.00339436
0.00426477
-0.00498748
-0.00665667
0.00588985
1.8281e-05
0.000278222
9.62476e-05
0.000505671
0.000261402
0.000450736
0.000544192
9.8255e-05
0.000978619
-0.000566962
0.00160301
-0.00155821
0.00246139
-0.00288434
0.00360542
-0.00453839
0.00509454
-0.0064766
-0.00854251
0.00698038
2.68094e-05
0.000251413
0.000130394
0.000402087
0.000339925
0.000241204
0.000687804
-0.000249624
0.00121022
-0.00108938
0.00194779
-0.00229578
0.00294685
-0.00388341
0.00426246
-0.005854
0.00596184
-0.00817597
-0.0106943
0.00811362
3.58594e-05
0.000215554
0.000166542
0.000271404
0.00042299
-1.52441e-05
0.00083971
-0.000666343
0.00145523
-0.0017049
0.00231247
-0.00315301
0.00345954
-0.00503048
0.00495322
-0.00734768
0.00686553
-0.0100883
-0.0131107
0.00928198
4.54151e-05
0.000170138
0.000204592
0.000112227
0.000510335
-0.000320987
0.000999436
-0.00115544
0.00171302
-0.00241849
0.00269654
-0.00413652
0.00399969
-0.00633364
0.00567924
-0.00902722
0.00780696
-0.012216
-0.0157834
0.0104796
5.54371e-05
0.000114701
0.000244357
-7.66926e-05
0.000601491
-0.000678122
0.00116609
-0.00172005
0.00198224
-0.00323463
0.00309848
-0.00525277
0.00456679
-0.00780194
0.00644301
-0.0109035
0.00879022
-0.0145632
-0.0187005
0.0117073
6.58582e-05
4.88432e-05
0.000285547
-0.000296382
0.000695733
-0.00108831
0.00133824
-0.00236255
0.00226043
-0.00415683
0.00351502
-0.00650735
0.0051587
-0.00944562
0.00724971
-0.0129945
0.00982968
-0.0171432
-0.0218507
0.0129799
7.65851e-05
-2.77419e-05
0.000327775
-0.000547572
0.00079207
-0.0015526
0.00151379
-0.00308426
0.0025437
-0.00518674
0.00393962
-0.00790327
0.00576727
-0.0112733
0.00810169
-0.0153289
0.0109902
-0.0200317
-0.0251641
0.0143036
8.75065e-05
-0.000115248
0.000370581
-0.000830647
0.00088931
-0.00207133
0.00169012
-0.00388507
0.00282663
-0.00632326
0.00436121
-0.00943785
0.006369
-0.0132811
0.00895056
-0.0179104
0.0123082
-0.0233894
-0.0300475
0.0171916
9.85091e-05
-0.000213758
0.000413493
-0.00114563
0.000986216
-0.00264405
0.00186448
-0.00476333
0.00310331
-0.00756209
0.00476653
-0.0111011
0.00693075
-0.0154453
0.00969616
-0.0206758
0.0132267
-0.02692
-0.0345366
0.0177159
0.000109494
-0.000323251
0.000456084
-0.00149222
0.00108169
-0.00326966
0.00203451
-0.00571615
0.00336916
-0.00889675
0.00514707
-0.012879
0.00743761
-0.0177358
0.0103192
-0.0235575
0.0138808
-0.0304815
-0.0388035
0.0181476
0.000120384
-0.000443635
0.000498014
-0.00186985
0.00117486
-0.00394651
0.0021985
-0.00673979
0.00362135
-0.0103196
0.00549943
-0.014757
0.00788998
-0.0201264
0.010845
-0.0265124
0.014395
-0.0340316
-0.0428966
0.0184882
0.000131127
-0.000574762
0.000539022
-0.00227775
0.00126508
-0.00467257
0.00235526
-0.00782996
0.0038583
-0.0118226
0.00582276
-0.0167215
0.00829182
-0.0225955
0.0112926
-0.0295132
0.014815
-0.037554
-0.0468474
0.0187658
0.000141686
-0.000716448
0.000578905
-0.00271497
0.00135184
-0.0054455
0.00250389
-0.00898202
0.00407893
-0.0133977
0.00611678
-0.0187594
0.00864609
-0.0251248
0.011672
-0.0325391
0.0151557
-0.0410377
-0.0506742
0.0189825
0.000152029
-0.000868477
0.000617476
-0.00318041
0.00143466
-0.00626269
0.00264361
-0.010191
0.00428229
-0.0150364
0.00638096
-0.020858
0.00895388
-0.0276977
0.011987
-0.0355723
0.0154208
-0.0444715
-0.0543818
0.0191284
0.000162118
-0.00103059
0.000654535
-0.00367283
0.00151306
-0.00712122
0.00277353
-0.0114514
0.00446718
-0.01673
0.00661409
-0.0230049
0.00921454
-0.0302981
0.0122376
-0.0385954
0.015608
-0.0478418
-0.0579652
0.0191914
0.000171901
-0.0012025
0.000689841
-0.00419077
0.00158646
-0.00801784
0.00289264
-0.0127576
0.0046321
-0.0184695
0.00681435
-0.0251872
0.00942601
-0.0329098
0.0124212
-0.0415906
0.0157121
-0.0511327
-0.0614137
0.0191606
0.00018131
-0.00138381
0.000723102
-0.00473256
0.00165418
-0.00894891
0.00299972
-0.0141032
0.00477527
-0.020245
0.00697936
-0.0273913
0.00958541
-0.0355158
0.0125341
-0.0445392
0.0157277
-0.0543264
-0.0647127
0.0190268
0.000190258
-0.00157406
0.000753969
-0.00529627
0.00171543
-0.00991037
0.00309341
-0.0154811
0.00489464
-0.0220462
0.00710645
-0.0296031
0.00968951
-0.0380989
0.0125724
-0.0474222
0.0156501
-0.057404
-0.0678463
0.0187837
0.00019864
-0.0017727
0.000782044
-0.00587968
0.00176935
-0.0108977
0.00317224
-0.016884
0.0049881
-0.0238621
0.00719291
-0.0318079
0.00973517
-0.0406412
0.012533
-0.05022
0.0154757
-0.0603467
-0.0707984
0.0184278
0.000206335
-0.00197904
0.000806893
-0.00648023
0.00181501
-0.0119058
0.00323467
-0.0183037
0.0050535
-0.0256809
0.00723614
-0.0339905
0.00971971
-0.0431247
0.0124133
-0.0529135
0.0152029
-0.0631363
-0.0735538
0.0179583
0.000213216
-0.00219226
0.000828059
-0.00709508
0.00185147
-0.0129292
0.00327922
-0.0197314
0.00508885
-0.0274906
0.00723392
-0.0361356
0.00964105
-0.0455319
0.012212
-0.0554845
0.0148317
-0.065756
-0.0760992
0.0173771
0.000219147
-0.0024114
0.000845081
-0.00772101
0.00187783
-0.0139619
0.00330448
-0.0211581
0.00509241
-0.0292785
0.00718447
-0.0382277
0.00949798
-0.0478454
0.0119292
-0.0579158
0.0143639
-0.0681907
-0.0784234
0.0166881
0.000223994
-0.0026354
0.000857511
-0.00835453
0.0018932
-0.0149976
0.0033092
-0.0225741
0.00506273
-0.031032
0.00708661
-0.0402515
0.00929015
-0.0500489
0.0115661
-0.0601917
0.0138029
-0.0704276
-0.0805175
0.0158971
0.000227626
-0.00286302
0.000864927
-0.00899183
0.00189684
-0.0160295
0.00329234
-0.0239696
0.0049988
-0.0327385
0.00693978
-0.0421925
0.00901812
-0.0521272
0.0111249
-0.0622985
0.0131533
-0.072456
-0.0823755
0.0150113
0.000229921
-0.00309294
0.00086695
-0.00962886
0.00188807
-0.0170507
0.00325311
-0.0253346
0.00489998
-0.0343854
0.00674409
-0.0440366
0.00868336
-0.0540665
0.0106091
-0.0642242
0.0124209
-0.0742678
-0.0839933
0.0140388
0.000230767
-0.00332371
0.000863254
-0.0102613
0.00186637
-0.0180538
0.00319098
-0.0266592
0.00476614
-0.0359605
0.00650029
-0.0457708
0.00828813
-0.0558543
0.0100231
-0.0659592
0.0116123
-0.0758571
-0.0853695
0.0129885
0.000230067
-0.00355378
0.000853576
-0.0108849
0.00183139
-0.0190316
0.00310571
-0.0279336
0.00459758
-0.0374524
0.00620975
-0.047383
0.00783543
-0.05748
0.00937174
-0.0674955
0.0107347
-0.07722
-0.0865044
0.0118696
0.000227742
-0.00378152
0.000837721
-0.0114948
0.00178292
-0.0199768
0.00299737
-0.029148
0.00439504
-0.03885
0.00587444
-0.0488624
0.00732889
-0.0589345
0.00866073
-0.0688273
0.00979565
-0.078355
-0.0874
0.0106913
0.000223732
-0.00400525
0.000815573
-0.0120867
0.00172093
-0.0208821
0.00286632
-0.0302934
0.0041597
-0.0401434
0.00549681
-0.0501995
0.00677263
-0.0602103
0.007896
-0.0699507
0.00880281
-0.0792618
-0.0880599
0.0094627
0.000217994
-0.00422325
0.00078709
-0.0126558
0.00164556
-0.0217406
0.00271319
-0.031361
0.00389313
-0.0413234
0.00507976
-0.0513861
0.0061712
-0.0613017
0.00708377
-0.0708633
0.00776388
-0.0799419
-0.0884886
0.00819256
0.000210511
-0.00443376
0.000752313
-0.0131976
0.00155712
-0.0225454
0.00253889
-0.0323428
0.00359723
-0.0423817
0.00462656
-0.0524154
0.0055294
-0.0622046
0.00623035
-0.0715642
0.00668637
-0.0803979
-0.0886914
0.00688922
0.000201285
-0.00463504
0.000711361
-0.0137076
0.00145608
-0.0232901
0.00234459
-0.0332313
0.00327421
-0.0433113
0.00414078
-0.053282
0.00485226
-0.0629161
0.00534206
-0.072054
0.00557756
-0.0806334
-0.0886744
0.00556051
0.000190341
-0.00482538
0.000664429
-0.0141817
0.00134305
-0.0239688
0.00213166
-0.0340199
0.00292654
-0.0441062
0.00362618
-0.0539817
0.00414488
-0.0634348
0.00442511
-0.0723342
0.00444441
-0.0806527
-0.0884436
0.00421362
0.000177726
-0.00500311
0.000611786
-0.0146158
0.00121881
-0.0245758
0.00190166
-0.0347028
0.0025569
-0.0447614
0.00308673
-0.0545115
0.00341241
-0.0637604
0.00348555
-0.0724074
0.00329345
-0.0804606
-0.0880054
0.00285528
0.000163507
-0.00516662
0.000553768
-0.0150061
0.00108423
-0.0251062
0.00165634
-0.0352749
0.00216812
-0.0452732
0.00252647
-0.0548698
0.00266003
-0.063894
0.00252926
-0.0722766
0.00213024
-0.0800616
-0.087367
0.00149184
0.000147771
-0.00531439
0.00049077
-0.0153491
0.000940284
-0.0255557
0.00139754
-0.0357322
0.00176316
-0.0456388
0.00194953
-0.0550562
0.00189295
-0.0638374
0.0015625
-0.0719461
0.000960062
-0.0794591
-0.0865109
0.000103899
0.000130623
-0.00544501
0.000423242
-0.0156417
0.00078805
-0.0259206
0.00112722
-0.0360713
0.00134501
-0.0458566
0.00135998
-0.0550712
0.00111613
-0.0635936
0.000590872
-0.0714209
-0.000201831
-0.0786664
-0.0854817
-0.00123102
0.000112185
-0.0055572
0.000351674
-0.0158812
0.000628656
-0.0261975
0.000847383
-0.0362901
0.000916708
-0.045926
0.00076184
-0.0549163
0.000334364
-0.0631661
-0.000381418
-0.0707051
-0.00136842
-0.0776794
-0.084272
-0.00257811
9.25897e-05
-0.00564979
0.000276591
-0.0160652
0.000463274
-0.0263842
0.000560054
-0.0363868
0.000481237
-0.0458472
0.000159119
-0.0545942
-0.000447603
-0.0625594
-0.0013483
-0.0698044
-0.0025204
-0.0765073
-0.0828813
-0.00391109
7.19853e-05
-0.00572177
0.00019854
-0.0161917
0.000293094
-0.0264788
0.00026725
-0.036361
4.16741e-05
-0.0456216
-0.000444469
-0.054108
-0.00122517
-0.0617787
-0.00230488
-0.0687247
-0.00365737
-0.0751548
-0.0813133
-0.00522535
5.05331e-05
-0.0057723
0.000118079
-0.0162593
0.000119305
-0.02648
-2.89425e-05
-0.0362128
-0.000399596
-0.0452509
-0.00104523
-0.0534624
-0.00199392
-0.06083
-0.00324625
-0.0674724
-0.00477452
-0.0736266
-0.0795708
-0.00651709
2.84498e-05
-0.00580075
3.57522e-05
-0.0162666
-5.6965e-05
-0.0263873
-0.000327077
-0.0359426
-0.000839555
-0.0447384
-0.00163976
-0.0526622
-0.00274967
-0.0597201
-0.00416745
-0.0660546
-0.00586681
-0.0719272
-0.077655
-0.00778258
5.38509e-06
-0.00580614
-4.79274e-05
-0.0162133
-0.00023462
-0.0262006
-0.000624935
-0.0355523
-0.00127589
-0.0440875
-0.00222499
-0.0517131
-0.00348853
-0.0584565
-0.00506356
-0.0644796
-0.00692883
-0.070062
-0.0755653
-0.0090185
-1.77345e-05
-0.0057884
-0.000132367
-0.0160986
-0.000412549
-0.0259204
-0.000921055
-0.0350438
-0.00170646
-0.0433021
-0.00279823
-0.0506213
-0.00420703
-0.0570477
-0.00592976
-0.0627568
-0.00795477
-0.0680369
-0.0732983
-0.0102218
-4.10661e-05
-0.00574734
-0.000217066
-0.0159226
-0.000589789
-0.0255477
-0.00121397
-0.0344196
-0.0021294
-0.0423866
-0.00335728
-0.0493934
-0.00490233
-0.0555027
-0.00676154
-0.0608976
-0.00893755
-0.0658609
-0.0708496
-0.0113862
-6.45968e-05
-0.00568274
-0.000301563
-0.0156857
-0.000765425
-0.0250838
-0.00150237
-0.0336827
-0.00254316
-0.0413459
-0.0039005
-0.0480361
-0.00557242
-0.0538308
-0.00755454
-0.0589155
-0.00986456
-0.0635509
-0.0682083
-0.0125059
-8.81097e-05
-0.00559463
-0.000385387
-0.0153884
-0.0009386
-0.0245306
-0.00178508
-0.0328362
-0.00294648
-0.0401845
-0.00442699
-0.0465556
-0.00621702
-0.0520407
-0.00830621
-0.0568263
-0.0107214
-0.0611357
-0.0653348
-0.0135948
-0.000111455
-0.00548318
-0.000468084
-0.0150318
-0.0011085
-0.0238902
-0.00206101
-0.0318837
-0.00333831
-0.0389072
-0.00493649
-0.0449574
-0.00683887
-0.0501383
-0.00902301
-0.0546422
-0.0114491
-0.0587096
-0.0626292
-0.0141548
-0.000134494
-0.00534868
-0.000549216
-0.014617
-0.00127433
-0.0231651
-0.00232908
-0.030829
-0.00371749
-0.0375187
-0.00542844
-0.0432465
-0.00743987
-0.0481269
-0.00972536
-0.0523567
-0.0122562
-0.0561788
-0.0598317
-0.0150536
-0.000157088
-0.00519159
-0.000628356
-0.0141458
-0.00143532
-0.0223581
-0.00258817
-0.0296761
-0.00408261
-0.0360243
-0.00590088
-0.0414282
-0.00801657
-0.0460112
-0.0104014
-0.0499718
-0.0130314
-0.0535488
-0.0569566
-0.0159065
-0.000179108
-0.00501249
-0.000705096
-0.0136198
-0.00159073
-0.0214725
-0.00283724
-0.0284296
-0.00443226
-0.0344293
-0.00635181
-0.0395086
-0.00856544
-0.0437976
-0.0110429
-0.0474944
-0.0137602
-0.0508315
-0.0540082
-0.0167086
-0.00020043
-0.00481206
-0.000779058
-0.0130411
-0.00173989
-0.0205116
-0.00307533
-0.0270942
-0.00476526
-0.0327394
-0.00677978
-0.0374941
-0.00908465
-0.0414927
-0.0116475
-0.0449315
-0.0144437
-0.0480354
-0.050992
-0.0174599
-0.000220938
-0.00459112
-0.000849892
-0.0124122
-0.00188218
-0.0194794
-0.00330163
-0.0256747
-0.00508066
-0.0309603
-0.00718381
-0.035391
-0.00957334
-0.0391032
-0.0122151
-0.0422898
-0.0150836
-0.0451668
-0.0479121
-0.0181635
-0.000240526
-0.00435059
-0.000917284
-0.0117354
-0.00201707
-0.0183796
-0.00351542
-0.0241764
-0.00537767
-0.0290981
-0.0075632
-0.0332054
-0.0100311
-0.0366353
-0.0127457
-0.0395751
-0.0156813
-0.0422313
-0.0447718
-0.0188216
-0.000259099
-0.00409149
-0.000980952
-0.0110136
-0.00214409
-0.0172164
-0.0037161
-0.0226044
-0.0056557
-0.0271585
-0.00791746
-0.0309437
-0.0104577
-0.0340951
-0.0132397
-0.0367931
-0.0162376
-0.0392334
-0.0415737
-0.0194356
-0.00027657
-0.00381492
-0.00104064
-0.0102495
-0.00226282
-0.0159942
-0.00390318
-0.020964
-0.00591421
-0.0251474
-0.00824617
-0.0286117
-0.0108529
-0.0314883
-0.013697
-0.033949
-0.016753
-0.0361775
-0.0383207
-0.020006
-0.00029286
-0.00352206
-0.00109613
-0.00944624
-0.0023729
-0.0147175
-0.00407618
-0.0192607
-0.00615277
-0.0230708
-0.008549
-0.0262155
-0.0112167
-0.0288206
-0.0141179
-0.0310478
-0.0172277
-0.0330677
-0.0350158
-0.0205326
-0.000307897
-0.00321417
-0.00114721
-0.00860692
-0.00247399
-0.0133907
-0.00423472
-0.0175
-0.00637098
-0.0209346
-0.00882562
-0.0237609
-0.0115487
-0.0260975
-0.0145021
-0.0280945
-0.0176615
-0.0299082
-0.0316623
-0.0210151
-0.000321618
-0.00289255
-0.00119371
-0.00773483
-0.00256581
-0.0120186
-0.00437844
-0.0156874
-0.00656849
-0.0187445
-0.00907571
-0.0212536
-0.0118488
-0.0233245
-0.0148493
-0.0250939
-0.0180542
-0.0267033
-0.0282638
-0.0214527
-0.000333964
-0.00255858
-0.00123545
-0.00683334
-0.00264809
-0.010606
-0.00450703
-0.0138284
-0.00674495
-0.0165066
-0.00929897
-0.0186996
-0.0121165
-0.0205069
-0.0151594
-0.0220511
-0.0184052
-0.0234575
-0.0248243
-0.0218446
-0.000344883
-0.0022137
-0.0012723
-0.00590593
-0.00272061
-0.00915765
-0.00462019
-0.0119288
-0.00690009
-0.0142267
-0.00949509
-0.0161046
-0.0123517
-0.0176503
-0.0154318
-0.018971
-0.0187139
-0.0201754
-0.0213483
-0.02219
-0.000354329
-0.00185937
-0.00130413
-0.00495613
-0.00278315
-0.00767862
-0.00471768
-0.00999431
-0.00703361
-0.0119108
-0.0096638
-0.0134744
-0.012554
-0.0147602
-0.0156662
-0.0158587
-0.0189798
-0.0168618
-0.0178403
-0.0224878
-0.000362263
-0.00149711
-0.00133082
-0.00398757
-0.00283555
-0.0061739
-0.00479927
-0.00803059
-0.00714527
-0.0095648
-0.00980483
-0.0108148
-0.0127231
-0.0118419
-0.0158622
-0.0127196
-0.0192024
-0.0135216
-0.0143052
-0.0227374
-0.000368651
-0.00112846
-0.00135229
-0.00300394
-0.00287765
-0.00464854
-0.00486477
-0.00604346
-0.00723486
-0.00719471
-0.00991795
-0.00813175
-0.0128587
-0.0089012
-0.0160195
-0.00955872
-0.0193811
-0.0101601
-0.0107483
-0.022938
-0.000373467
-0.000754991
-0.00136845
-0.00200895
-0.00290933
-0.00310766
-0.00491403
-0.00403876
-0.00730221
-0.00480653
-0.010003
-0.00543099
-0.0129606
-0.00594355
-0.0161378
-0.00638157
-0.0195155
-0.00678242
-0.00717481
-0.023089
-0.000376688
-0.000378303
-0.00137926
-0.00100638
-0.0029305
-0.00155642
-0.00494694
-0.00202231
-0.00734719
-0.00240629
-0.0100597
-0.00271844
-0.0130287
-0.0029746
-0.0162167
-0.00319352
-0.0196052
-0.00339392
-0.0035902
-0.0231899
-0.000378303
3.23316e-11
-0.00138468
2.95342e-11
-0.0029411
4.48968e-11
-0.00496342
1.26005e-10
-0.0073697
2.3891e-10
-0.0100881
3.27909e-10
-0.0130627
3.90684e-10
-0.0162563
4.30987e-10
-0.0196502
4.57827e-10
4.74187e-10
-0.0232404
-0.000378303
0.000378303
-0.00138468
0.00100638
-0.0029411
0.00155642
-0.00496342
0.00202231
-0.0073697
0.00240629
-0.0100881
0.00271844
-0.0130627
0.0029746
-0.0162563
0.00319352
-0.0196502
0.00339393
0.0035902
-0.0232404
-0.000376688
0.000754991
-0.00137926
0.00200895
-0.0029305
0.00310766
-0.00494694
0.00403876
-0.00734719
0.00480653
-0.0100597
0.00543099
-0.0130287
0.00594355
-0.0162167
0.00638158
-0.0196052
0.00678243
0.00717481
-0.0231899
-0.000373467
0.00112846
-0.00136845
0.00300394
-0.00290933
0.00464854
-0.00491403
0.00604346
-0.00730221
0.00719471
-0.010003
0.00813175
-0.0129606
0.0089012
-0.0161378
0.00955872
-0.0195155
0.0101601
0.0107483
-0.023089
-0.000368651
0.00149711
-0.00135229
0.00398757
-0.00287765
0.0061739
-0.00486477
0.00803059
-0.00723486
0.0095648
-0.00991795
0.0108148
-0.0128587
0.0118419
-0.0160195
0.0127196
-0.0193811
0.0135216
0.0143052
-0.022938
-0.000362263
0.00185937
-0.00133082
0.00495613
-0.00283555
0.00767862
-0.00479927
0.00999431
-0.00714527
0.0119108
-0.00980483
0.0134744
-0.0127231
0.0147602
-0.0158622
0.0158587
-0.0192024
0.0168618
0.0178403
-0.0227374
-0.000354329
0.0022137
-0.00130413
0.00590593
-0.00278315
0.00915765
-0.00471768
0.0119288
-0.00703361
0.0142267
-0.0096638
0.0161046
-0.012554
0.0176503
-0.0156662
0.018971
-0.0189798
0.0201754
0.0213483
-0.0224878
-0.000344883
0.00255858
-0.0012723
0.00683334
-0.00272061
0.010606
-0.00462019
0.0138284
-0.00690009
0.0165066
-0.00949509
0.0186996
-0.0123517
0.0205069
-0.0154318
0.0220511
-0.0187139
0.0234575
0.0248243
-0.02219
-0.000333964
0.00289255
-0.00123545
0.00773483
-0.00264809
0.0120186
-0.00450703
0.0156874
-0.00674496
0.0187445
-0.00929897
0.0212536
-0.0121165
0.0233245
-0.0151594
0.0250939
-0.0184052
0.0267033
0.0282638
-0.0218446
-0.000321618
0.00321417
-0.00119371
0.00860692
-0.00256581
0.0133907
-0.00437844
0.0175
-0.00656849
0.0209346
-0.00907571
0.0237609
-0.0118488
0.0260975
-0.0148493
0.0280945
-0.0180542
0.0299082
0.0316623
-0.0214527
-0.000307897
0.00352206
-0.00114721
0.00944624
-0.00247399
0.0147175
-0.00423472
0.0192607
-0.00637098
0.0230708
-0.00882562
0.0262155
-0.0115487
0.0288206
-0.0145021
0.0310478
-0.0176615
0.0330677
0.0350158
-0.0210151
-0.00029286
0.00381492
-0.00109613
0.0102495
-0.0023729
0.0159942
-0.00407618
0.020964
-0.00615277
0.0251474
-0.008549
0.0286117
-0.0112167
0.0314883
-0.0141179
0.033949
-0.0172277
0.0361775
0.0383207
-0.0205326
-0.00027657
0.00409149
-0.00104064
0.0110136
-0.00226282
0.0172164
-0.00390318
0.0226044
-0.00591421
0.0271585
-0.00824617
0.0309437
-0.0108529
0.0340951
-0.013697
0.0367931
-0.016753
0.0392334
0.0415737
-0.020006
-0.000259099
0.00435059
-0.000980952
0.0117354
-0.00214409
0.0183796
-0.0037161
0.0241764
-0.0056557
0.0290981
-0.00791746
0.0332054
-0.0104577
0.0366353
-0.0132397
0.0395751
-0.0162376
0.0422313
0.0447718
-0.0194356
-0.000240526
0.00459112
-0.000917284
0.0124122
-0.00201707
0.0194794
-0.00351542
0.0256747
-0.00537767
0.0309603
-0.0075632
0.035391
-0.0100311
0.0391032
-0.0127457
0.0422898
-0.0156813
0.0451668
0.0479121
-0.0188216
-0.000220938
0.00481206
-0.000849892
0.0130411
-0.00188218
0.0205116
-0.00330163
0.0270942
-0.00508066
0.0327394
-0.00718381
0.0374941
-0.00957334
0.0414927
-0.0122151
0.0449315
-0.0150836
0.0480354
0.050992
-0.0181635
-0.00020043
0.00501249
-0.000779058
0.0136198
-0.00173989
0.0214725
-0.00307533
0.0284296
-0.00476526
0.0344293
-0.00677978
0.0395086
-0.00908465
0.0437976
-0.0116475
0.0474944
-0.0144437
0.0508315
0.0540082
-0.0174599
-0.000179108
0.00519159
-0.000705097
0.0141458
-0.00159073
0.0223581
-0.00283724
0.0296761
-0.00443226
0.0360243
-0.00635181
0.0414282
-0.00856544
0.0460112
-0.0110429
0.0499718
-0.0137602
0.0535488
0.0569566
-0.0167086
-0.000157088
0.00534868
-0.000628356
0.014617
-0.00143532
0.0231651
-0.00258817
0.030829
-0.00408261
0.0375187
-0.00590088
0.0432465
-0.00801657
0.0481269
-0.0104014
0.0523567
-0.0130314
0.0561788
0.0598317
-0.0159065
-0.000134494
0.00548318
-0.000549216
0.0150318
-0.00127433
0.0238902
-0.00232908
0.0318837
-0.00371749
0.0389072
-0.00542844
0.0449574
-0.00743987
0.0501383
-0.00972536
0.0546422
-0.0122562
0.0587096
0.0626292
-0.0150536
-0.000111455
0.00559463
-0.000468085
0.0153884
-0.0011085
0.0245306
-0.00206101
0.0328362
-0.00333831
0.0401845
-0.00493649
0.0465556
-0.00683888
0.0520407
-0.00902301
0.0568263
-0.0114491
0.0611357
0.0653349
-0.0141548
-8.81097e-05
0.00568274
-0.000385387
0.0156857
-0.0009386
0.0250838
-0.00178508
0.0336827
-0.00294648
0.0413459
-0.00442699
0.0480361
-0.00621702
0.0538308
-0.00830621
0.0589155
-0.0107214
0.0635509
0.0682083
-0.0135948
-6.45968e-05
0.00574734
-0.000301563
0.0159226
-0.000765425
0.0255477
-0.00150237
0.0344196
-0.00254316
0.0423867
-0.0039005
0.0493934
-0.00557242
0.0555027
-0.00755454
0.0608976
-0.00986456
0.0658609
0.0708496
-0.0125059
-4.10661e-05
0.0057884
-0.000217066
0.0160986
-0.000589789
0.0259204
-0.00121397
0.0350438
-0.0021294
0.0433021
-0.00335728
0.0506213
-0.00490233
0.0570477
-0.00676154
0.0627568
-0.00893755
0.0680369
0.0732983
-0.0113862
-1.77345e-05
0.00580614
-0.000132367
0.0162133
-0.00041255
0.0262006
-0.000921056
0.0355523
-0.00170646
0.0440875
-0.00279823
0.0517131
-0.00420703
0.0584565
-0.00592976
0.0644796
-0.00795477
0.070062
0.0755653
-0.0102218
5.38507e-06
0.00580075
-4.79274e-05
0.0162666
-0.00023462
0.0263873
-0.000624935
0.0359426
-0.00127589
0.0447384
-0.00222499
0.0526622
-0.00348853
0.0597201
-0.00506356
0.0660546
-0.00692883
0.0719272
0.077655
-0.0090185
2.84498e-05
0.0057723
3.57522e-05
0.0162593
-5.69651e-05
0.02648
-0.000327077
0.0362128
-0.000839556
0.0452509
-0.00163976
0.0534624
-0.00274967
0.06083
-0.00416745
0.0674724
-0.00586681
0.0736266
0.0795708
-0.00778258
5.05331e-05
0.00572177
0.000118079
0.0161917
0.000119305
0.0264788
-2.89427e-05
0.036361
-0.000399596
0.0456216
-0.00104523
0.054108
-0.00199392
0.0617787
-0.00324625
0.0687247
-0.00477452
0.0751548
0.0813133
-0.00651709
7.19853e-05
0.00564979
0.00019854
0.0160652
0.000293093
0.0263842
0.00026725
0.0363868
4.16737e-05
0.0458472
-0.000444469
0.0545942
-0.00122517
0.0625594
-0.00230488
0.0698044
-0.00365737
0.0765073
0.0828813
-0.00522535
9.25897e-05
0.0055572
0.000276591
0.0158812
0.000463274
0.0261975
0.000560053
0.0362901
0.000481236
0.045926
0.000159118
0.0549163
-0.000447603
0.0631661
-0.0013483
0.0707051
-0.0025204
0.0776794
0.084272
-0.00391109
0.000112185
0.00544501
0.000351674
0.0156417
0.000628656
0.0259206
0.000847382
0.0360713
0.000916708
0.0458566
0.000761839
0.0550712
0.000334363
0.0635936
-0.000381418
0.0714209
-0.00136842
0.0786664
0.0854817
-0.00257811
0.000130623
0.00531439
0.000423242
0.0153491
0.00078805
0.0255558
0.00112722
0.0357322
0.00134501
0.0456389
0.00135998
0.0550562
0.00111613
0.0638374
0.000590871
0.0719461
-0.000201831
0.0794591
0.0865109
-0.00123102
0.000147771
0.00516662
0.00049077
0.0150061
0.000940283
0.0251062
0.00139754
0.0352749
0.00176316
0.0452732
0.00194953
0.0548698
0.00189295
0.063894
0.0015625
0.0722766
0.000960061
0.0800616
0.087367
0.000103898
0.000163507
0.00500311
0.000553768
0.0146158
0.00108423
0.0245758
0.00165634
0.0347028
0.00216812
0.0447615
0.00252647
0.0545115
0.00266003
0.0637604
0.00252926
0.0724074
0.00213024
0.0804606
0.0880054
0.00149184
0.000177726
0.00482538
0.000611786
0.0141817
0.00121881
0.0239688
0.00190166
0.0340199
0.0025569
0.0441062
0.00308673
0.0539817
0.00341241
0.0634348
0.00348555
0.0723342
0.00329345
0.0806527
0.0884436
0.00285528
0.000190341
0.00463504
0.000664429
0.0137077
0.00134305
0.0232901
0.00213166
0.0332313
0.00292654
0.0433113
0.00362618
0.053282
0.00414488
0.0629161
0.00442511
0.072054
0.00444441
0.0806334
0.0886744
0.00421362
0.000201285
0.00443376
0.000711361
0.0131976
0.00145608
0.0225454
0.00234459
0.0323428
0.00327421
0.0423817
0.00414078
0.0524154
0.00485226
0.0622046
0.00534206
0.0715642
0.00557756
0.0803979
0.0886914
0.00556051
0.000210511
0.00422325
0.000752313
0.0126558
0.00155712
0.0217406
0.00253889
0.031361
0.00359723
0.0413234
0.00462656
0.0513861
0.0055294
0.0613017
0.00623035
0.0708633
0.00668637
0.0799419
0.0884886
0.00688922
0.000217994
0.00400525
0.00078709
0.0120867
0.00164556
0.0208821
0.00271319
0.0302934
0.00389313
0.0401434
0.00507976
0.0501995
0.0061712
0.0602103
0.00708377
0.0699507
0.00776388
0.0792618
0.0880599
0.00819256
0.000223732
0.00378152
0.000815573
0.0114948
0.00172093
0.0199768
0.00286632
0.029148
0.0041597
0.03885
0.00549681
0.0488624
0.00677263
0.0589345
0.007896
0.0688273
0.00880281
0.078355
0.0874
0.0094627
0.000227742
0.00355378
0.000837721
0.0108849
0.00178292
0.0190316
0.00299737
0.0279336
0.00439504
0.0374524
0.00587444
0.047383
0.00732889
0.05748
0.00866072
0.0674955
0.00979565
0.07722
0.0865044
0.0106913
0.000230067
0.00332371
0.000853576
0.0102613
0.00183139
0.0180538
0.00310571
0.0266592
0.00459758
0.0359605
0.00620975
0.0457708
0.00783543
0.0558543
0.00937173
0.0659592
0.0107347
0.0758571
0.0853695
0.0118696
0.000230767
0.00309294
0.000863254
0.00962886
0.00186637
0.0170507
0.00319098
0.0253346
0.00476614
0.0343854
0.00650029
0.0440366
0.00828813
0.0540665
0.0100231
0.0642242
0.0116123
0.0742678
0.0839933
0.0129885
0.000229921
0.00286302
0.00086695
0.00899183
0.00188807
0.0160296
0.00325311
0.0239696
0.00489998
0.0327385
0.00674409
0.0421925
0.00868336
0.0521272
0.0106091
0.0622985
0.0124209
0.072456
0.0823755
0.0140388
0.000227626
0.0026354
0.000864927
0.00835453
0.00189684
0.0149976
0.00329234
0.0225741
0.0049988
0.031032
0.00693978
0.0402516
0.00901812
0.0500489
0.0111249
0.0601917
0.0131533
0.0704276
0.0805175
0.0150113
0.000223994
0.0024114
0.000857511
0.00772101
0.0018932
0.0139619
0.0033092
0.0211581
0.00506273
0.0292785
0.00708661
0.0382277
0.00929014
0.0478454
0.0115661
0.0579158
0.0138029
0.0681907
0.0784234
0.0158971
0.000219147
0.00219226
0.000845081
0.00709508
0.00187783
0.0129292
0.00330448
0.0197314
0.00509241
0.0274906
0.00718447
0.0361356
0.00949798
0.0455319
0.0119292
0.0554845
0.0143639
0.065756
0.0760992
0.0166881
0.000213216
0.00197904
0.000828059
0.00648024
0.00185147
0.0119058
0.00327922
0.0183037
0.00508885
0.0256809
0.00723392
0.0339905
0.00964105
0.0431247
0.012212
0.0529135
0.0148317
0.0631363
0.0735538
0.0173771
0.000206335
0.0017727
0.000806893
0.00587968
0.00181501
0.0108977
0.00323467
0.016884
0.0050535
0.0238621
0.00723614
0.0318079
0.0097197
0.0406412
0.0124133
0.05022
0.0152029
0.0603467
0.0707984
0.0179583
0.00019864
0.00157406
0.000782044
0.00529627
0.00176935
0.00991038
0.00317224
0.0154811
0.0049881
0.0220463
0.00719291
0.0296031
0.00973517
0.0380989
0.012533
0.0474222
0.0154757
0.057404
0.0678463
0.0184278
0.000190258
0.00138381
0.000753969
0.00473256
0.00171543
0.00894891
0.00309341
0.0141032
0.00489464
0.020245
0.00710645
0.0273913
0.00968951
0.0355158
0.0125724
0.0445392
0.0156501
0.0543264
0.0647127
0.0187837
0.00018131
0.0012025
0.000723102
0.00419077
0.00165418
0.00801784
0.00299972
0.0127576
0.00477527
0.0184695
0.00697936
0.0251872