/*--------------------------------*- C++ -*----------------------------------*\
  =========                 |
  \\      /  F ield         | OpenFOAM: The Open Source CFD Toolbox
   \\    /   O peration     | Website:  https://openfoam.org
    \\  /    A nd           | Version:  7
     \\/     M anipulation  |
\*---------------------------------------------------------------------------*/
FoamFile
{
    version     2.0;
    format      ascii;
    class       volVectorField;
    location    "10";
    object      U;
}
// * * * * * * * * * * * * * * * * * * * * * * * * * * * * * * * * * * * * * //

dimensions      [0 1 -1 0 0 0 0];

internalField   nonuniform List<vector> 
8500
(
(-0.000765273 0.000604845 3.8911e-22)
(-0.00386451 0.00131671 -1.24428e-21)
(-0.0093392 0.00166528 -1.53264e-21)
(-0.0154588 0.0017471 1.59982e-21)
(-0.0214757 0.00163486 -1.53826e-21)
(-0.0268508 0.00139515 -8.50726e-22)
(-0.0312234 0.00108982 1.49848e-21)
(-0.0344587 0.00077684 1.90972e-21)
(-0.0366089 0.000504125 -3.17769e-22)
(-0.0377808 0.000315807 9.51269e-22)
(-0.000849155 0.00180108 -4.30702e-22)
(-0.00400282 0.00391782 1.47823e-21)
(-0.00941086 0.0049515 -3.67232e-21)
(-0.0153736 0.00518955 3.49664e-21)
(-0.0211559 0.0048489 1.644e-22)
(-0.0262286 0.00412849 2.77812e-21)
(-0.0302389 0.00321333 -4.98084e-21)
(-0.0330618 0.00227714 -7.47392e-21)
(-0.0347574 0.00146446 -1.48685e-21)
(-0.0353871 0.000910758 3.42628e-21)
(-0.00101343 0.00295729 4.00896e-22)
(-0.00427104 0.00642278 3.2622e-21)
(-0.00954268 0.00810572 8.10001e-21)
(-0.0151898 0.00847791 -7.6825e-21)
(-0.0205018 0.00789731 -1.80709e-21)
(-0.0249694 0.00669254 -1.702e-21)
(-0.0282555 0.00517007 9.03202e-21)
(-0.0302542 0.0036189 5.7668e-21)
(-0.0310426 0.00228216 1.41579e-21)
(-0.0305874 0.00139563 -1.06208e-20)
(-0.00125118 0.00404788 1.42237e-21)
(-0.00465249 0.00876989 -1.90868e-21)
(-0.00971179 0.0110432 -1.51396e-20)
(-0.0148805 0.0115134 1.40173e-21)
(-0.0194846 0.0106741 4.53991e-21)
(-0.0230438 0.00897919 -3.66113e-21)
(-0.0252445 0.00685378 -1.70894e-22)
(-0.0260086 0.00470119 -1.57271e-21)
(-0.0254416 0.00286569 3.64391e-21)
(-0.0233556 0.00169907 1.0572e-20)
(-0.00155226 0.00504883 9.9473e-22)
(-0.00512247 0.010901 -6.21721e-21)
(-0.00988407 0.013684 1.56886e-20)
(-0.0144057 0.0142029 -7.5075e-21)
(-0.0180608 0.0130797 -2.98881e-23)
(-0.0204073 0.0108875 1.11904e-20)
(-0.021162 0.00816561 -5.28896e-21)
(-0.0202835 0.00543018 5.70352e-22)
(-0.0179203 0.00313202 -2.31417e-21)
(-0.0136548 0.00177509 8.36926e-22)
(-0.00190347 0.0059382 1.19659e-20)
(-0.0056486 0.0127626 1.60278e-20)
(-0.0100145 0.0159547 -4.29284e-21)
(-0.0137119 0.0164613 8.60324e-21)
(-0.0161722 0.0150238 2.84622e-21)
(-0.0170002 0.0123264 -4.18141e-21)
(-0.0159492 0.0090171 -1.69202e-21)
(-0.013021 0.00572192 -7.40768e-21)
(-0.00842204 0.00300845 1.67832e-21)
(-0.00145905 0.00163886 -9.78537e-21)
(-0.00228885 0.00669654 -1.15466e-20)
(-0.00619128 0.014307 -8.35946e-21)
(-0.0100475 0.0177899 7.24061e-21)
(-0.0127327 0.0182134 -1.31139e-20)
(-0.0137462 0.0164275 1.56971e-21)
(-0.012747 0.0132178 1.65097e-20)
(-0.00953148 0.00933344 -3.10739e-21)
(-0.00414823 0.0055071 2.04302e-20)
(0.00315517 0.00242479 -4.96672e-22)
(0.0132628 0.00116509 -8.60655e-21)
(-0.00268993 0.00730714 9.86134e-21)
(-0.00670413 0.0154931 -1.95956e-20)
(-0.00991716 0.0191335 -8.1814e-21)
(-0.0113889 0.0193957 9.95833e-21)
(-0.0106951 0.0172259 3.88291e-22)
(-0.00755659 0.0134994 -3.10687e-20)
(-0.0018176 0.0090569 -1.90658e-21)
(0.00641679 0.00473069 -1.62807e-20)
(0.0168603 0.00132839 -2.13687e-20)
(0.0306546 0.000269881 1.26604e-20)
(-0.00308599 0.0077562 -5.51921e-21)
(-0.00713448 0.0162866 2.91818e-21)
(-0.00954805 0.0199399 7.60404e-21)
(-0.00958877 0.019958 -7.20164e-21)
(-0.00691702 0.0173699 -2.5951e-20)
(-0.00132206 0.0131275 9.17718e-21)
(0.00729904 0.0081506 1.32938e-21)
(0.0187802 0.00336149 2.45406e-20)
(0.0327851 -0.000296708 3.27684e-20)
(0.0507948 -0.000993129 -1.49393e-20)
(-0.00345431 0.00803286 8.89542e-21)
(-0.00742389 0.0166611 8.8996e-21)
(-0.00885547 0.0201746 -1.29745e-21)
(-0.00722862 0.0198645 3.56927e-20)
(-0.00229558 0.0168284 1.57868e-20)
(0.0060793 0.01208 1.223e-20)
(0.0179417 0.00660282 1.7745e-20)
(0.0330614 0.00139654 -7.9368e-21)
(0.0510427 -0.00245967 -1.09497e-20)
(0.073781 -0.00261666 -1.82795e-20)
(-0.00377038 0.00812919 -6.72662e-22)
(-0.00750866 0.0165976 -1.41464e-20)
(-0.00774634 0.0198151 -1.06639e-20)
(-0.00419357 0.0190952 -1.77295e-20)
(0.00329898 0.0155896 -1.44643e-20)
(0.0147856 0.0103576 1.52514e-20)
(0.0302496 0.00442953 -1.49542e-20)
(0.0493942 -0.0011372 -1.05328e-20)
(0.0717562 -0.00513691 1.43317e-21)
(0.0997228 -0.00457671 4.73023e-21)
(-0.00400798 0.00803992 -2.50659e-20)
(-0.00732045 0.016085 1.30425e-20)
(-0.00612008 0.0188506 9.87872e-21)
(-0.000358733 0.0176458 7.00669e-21)
(0.0100088 0.0136613 -1.31152e-20)
(0.0249489 0.00798613 -1.13085e-20)
(0.0443772 0.00167715 1.68946e-20)
(0.0679262 -0.00417637 -1.41388e-20)
(0.0950594 -0.00826445 -9.90429e-22)
(0.128739 -0.00681549 -1.52615e-20)
(-0.00413927 0.00776265 2.13598e-20)
(-0.00678674 0.0151201 9.48779e-21)
(-0.00386986 0.0172829 5.05162e-22)
(0.00440911 0.015528 -1.27728e-20)
(0.0179862 0.0110717 7.95848e-22)
(0.0367339 0.00501628 1.51886e-20)
(0.0604921 -0.00157566 -4.39388e-21)
(0.0888172 -0.00761648 -5.4754e-21)
(0.121094 -0.011732 -1.24112e-20)
(0.160947 -0.00924004 2.29728e-20)
(-0.00413528 0.00729764 1.49771e-20)
(-0.00583183 0.0137072 -2.59005e-20)
(-0.000884129 0.0151254 -2.08053e-20)
(0.0102492 0.0127695 9.43623e-21)
(0.0273911 0.00786806 1.97019e-20)
(0.0503141 0.00152268 1.7282e-20)
(0.0787726 -0.00521864 -1.86664e-20)
(0.112238 -0.0113091 3.67453e-20)
(0.150009 -0.0153728 -1.14069e-20)
(0.196451 -0.0117095 -2.73893e-20)
(-0.00396589 0.00664773 -2.2082e-20)
(-0.00437794 0.0118586 1.45264e-20)
(0.00295121 0.0124039 -7.44773e-21)
(0.0173035 0.00941274 8.79962e-22)
(0.0383868 0.00411489 8.56125e-21)
(0.0658678 -0.00239957 -2.71687e-20)
(0.0994042 -0.00911378 2.44898e-20)
(0.138367 -0.0150628 -2.45597e-20)
(0.18196 -0.0189548 3.96459e-20)
(0.23534 -0.0140241 1.43419e-20)
(-0.00360022 0.00581862 4.97779e-21)
(-0.00234657 0.00959466 2.88325e-20)
(0.00775005 0.00915596 -7.78381e-21)
(0.0257127 0.00551431 7.92541e-21)
(0.0511339 -0.000108576 9.66956e-21)
(0.0835713 -0.00664019 -3.09083e-21)
(0.122573 -0.0131036 2.14866e-20)
(0.167391 -0.0186514 1.28336e-21)
(0.217118 -0.0221796 -2.51385e-20)
(0.277688 -0.0159176 3.46945e-20)
(-0.00300721 0.00481918 -1.30042e-20)
(0.000339718 0.00694441 -2.76436e-20)
(0.0136227 0.00543083 2.48332e-20)
(0.0356106 0.00114364 1.30624e-20)
(0.0657836 -0.00471171 -6.13975e-20)
(0.103589 -0.0110811 5.16216e-20)
(0.148454 -0.0170245 -4.72452e-20)
(0.19949 -0.0218302 9.51658e-22)
(0.255666 -0.0246732 -1.08296e-20)
(0.323548 -0.0169943 -3.20667e-20)
(-0.00215637 0.0036618 1.16801e-20)
(0.00375514 0.00394574 -1.92111e-21)
(0.0206723 0.00129001 -6.09557e-21)
(0.0471187 -0.00361752 -6.32112e-22)
(0.0824681 -0.00959571 -4.24908e-21)
(0.126063 -0.0156056 -1.62141e-20)
(0.177201 -0.0207275 6.81043e-21)
(0.234836 -0.0243604 -1.14986e-20)
(0.297768 -0.0259225 3.68917e-21)
(0.372801 -0.0164563 1.77331e-21)
(-0.00101864 0.00236285 -2.3969e-20)
(0.00796835 0.000646327 -2.09967e-21)
(0.0289902 -0.00319231 3.04564e-21)
(0.0603385 -0.00867499 1.38483e-21)
(0.10129 -0.0146558 2.03886e-20)
(0.151094 -0.0201097 -6.15577e-20)
(0.208936 -0.0241138 4.19961e-20)
(0.27363 -0.0260732 -3.23027e-20)
(0.343708 -0.0252734 2.69987e-20)
(0.424991 -0.0129647 2.88427e-20)
(0.000432622 0.00094306 -3.0567e-21)
(0.01304 -0.00289578 1.43861e-20)
(0.0386522 -0.00792804 -1.85885e-20)
(0.075345 -0.0139205 -5.99303e-21)
(0.122308 -0.0197803 1.20234e-20)
(0.178719 -0.0245091 5.89589e-20)
(0.243704 -0.0271781 -1.19024e-20)
(0.316144 -0.0270335 5.85099e-21)
(0.394564 -0.0225919 -3.21585e-20)
(0.481418 -0.00673574 1.56548e-20)
(0.00222078 -0.00057228 -9.1143e-21)
(0.0190209 -0.00661156 -7.59858e-21)
(0.0497154 -0.0128137 2.09329e-21)
(0.0921805 -0.0192276 7.65038e-21)
(0.145522 -0.0248409 -2.35458e-20)
(0.208861 -0.0287215 -9.73143e-21)
(0.281323 -0.0299943 -3.14525e-20)
(0.362182 -0.0277252 3.23681e-20)
(0.451479 -0.0196406 3.546e-20)
(0.552051 -0.0037056 -1.32488e-20)
(0.00436528 -0.00215336 -4.53715e-21)
(0.0259504 -0.0104209 1.90641e-20)
(0.062217 -0.0177291 -2.16525e-20)
(0.110854 -0.0244465 -2.70654e-21)
(0.170877 -0.0296758 -1.10549e-20)
(0.241328 -0.0326087 2.43239e-20)
(0.321291 -0.0325483 3.17658e-20)
(0.410218 -0.028773 -3.12714e-20)
(0.508821 -0.01987 3.50249e-20)
(0.616781 -0.0107685 5.71342e-21)
(0.00688139 -0.00376633 -1.30571e-20)
(0.0338566 -0.0142336 -3.859e-20)
(0.0761746 -0.0225377 3.90125e-20)
(0.131347 -0.0294023 5.7548e-21)
(0.198278 -0.0340783 8.45402e-21)
(0.275884 -0.0359307 5.65195e-21)
(0.363099 -0.0345243 2.46701e-20)
(0.459203 -0.029529 1.84151e-20)
(0.5646 -0.0204437 -6.75969e-20)
(0.675622 -0.0157121 -3.46094e-20)
(0.00978018 -0.00537407 -4.42725e-20)
(0.0427558 -0.0179506 9.49472e-21)
(0.091588 -0.0270894 -2.23473e-20)
(0.153618 -0.0339002 4.32464e-21)
(0.227611 -0.0378092 7.24622e-21)
(0.312301 -0.0383864 -5.35749e-20)
(0.406365 -0.0354827 2.4577e-20)
(0.508673 -0.0291496 -1.66762e-20)
(0.618853 -0.0194615 1.80667e-20)
(0.731082 -0.016241 -7.16921e-21)
(0.0130687 -0.00693714 1.62137e-20)
(0.0526531 -0.0214671 1.87783e-20)
(0.10844 -0.0312254 -1.21931e-21)
(0.177606 -0.0377344 -6.24575e-21)
(0.258747 -0.0406178 8.88192e-23)
(0.350367 -0.0396691 2.59147e-22)
(0.450805 -0.035023 -3.71768e-20)
(0.558411 -0.0270617 5.15266e-21)
(0.671943 -0.0162307 4.96776e-20)
(0.784498 -0.0127298 2.36819e-20)
(0.0167501 -0.00841463 -1.09765e-20)
(0.0635417 -0.0246745 -8.57381e-21)
(0.126695 -0.034783 3.81436e-20)
(0.203228 -0.0406977 9.34656e-22)
(0.291543 -0.0422586 -1.70902e-20)
(0.389868 -0.0394964 4.66846e-20)
(0.496161 -0.0328216 1.06224e-20)
(0.608221 -0.0229052 8.34013e-22)
(0.723992 -0.0104619 -2.15727e-20)
(0.836146 -0.00553376 -3.01619e-20)
(0.0208235 -0.00976488 2.30465e-20)
(0.0754031 -0.0274633 -6.84169e-21)
(0.1463 -0.0376002 -4.0897e-21)
(0.230379 -0.0425888 -1.65485e-20)
(0.325828 -0.0425031 2.74859e-20)
(0.430571 -0.0376235 -1.38622e-20)
(0.542159 -0.0286332 -1.61465e-20)
(0.657856 -0.0164654 -3.75984e-21)
(0.774895 -0.00206159 -1.27253e-20)
(0.885917 0.0049799 1.47675e-20)
(0.0252838 -0.010946 -8.55558e-21)
(0.0882058 -0.0297247 -5.37246e-20)
(0.167179 -0.0395199 5.77916e-21)
(0.258929 -0.0432184 2.03521e-20)
(0.361408 -0.0411468 1.51797e-20)
(0.472216 -0.0338499 -5.17153e-20)
(0.588497 -0.0222863 3.43626e-20)
(0.707016 -0.00764197 -1.6086e-20)
(0.824418 0.0089233 2.55318e-20)
(0.933549 0.0184004 7.31599e-21)
(0.0301214 -0.0119165 -9.27231e-21)
(0.101905 -0.0313529 1.91736e-20)
(0.18924 -0.0403927 2.56044e-20)
(0.288721 -0.0424137 -1.89414e-20)
(0.398056 -0.0380147 7.17066e-21)
(0.514514 -0.0280217 -4.56357e-20)
(0.634839 -0.0136781 -8.6993e-21)
(0.755358 0.00357629 7.73462e-21)
(0.872249 0.0223563 -1.95316e-20)
(0.978721 0.034314 -2.10174e-20)
(0.0353216 -0.0126351 -1.183e-20)
(0.116441 -0.0322458 -4.00605e-21)
(0.212363 -0.0400802 -4.61882e-20)
(0.31957 -0.0400221 -7.39627e-21)
(0.435517 -0.0329638 -7.28606e-22)
(0.557143 -0.0200317 2.80323e-21)
(0.68082 -0.0027664 4.76518e-21)
(0.802505 0.0171321 -2.46554e-20)
(0.918042 0.0380457 4.64947e-22)
(1.02111 0.0523208 1.46972e-20)
(0.0408643 -0.0130618 -2.98682e-21)
(0.131739 -0.0323073 1.57448e-20)
(0.236411 -0.0384569 2.2616e-20)
(0.351265 -0.0359137 1.46064e-20)
(0.473507 -0.0258854 -4.46434e-21)
(0.599759 -0.00981821 -3.84273e-21)
(0.726058 0.0104368 3.97114e-20)
(0.848071 0.0329146 5.78213e-21)
(0.961445 0.0557648 1.96455e-20)
(1.0604 0.0720404 -8.79132e-21)
(0.0467232 -0.0131579 2.93285e-20)
(0.147711 -0.0314483 2.02073e-20)
(0.261222 -0.0354128 -2.12187e-20)
(0.383571 -0.0299838 -4.33042e-21)
(0.51172 -0.0167058 2.32455e-21)
(0.641997 0.00263651 -9.04303e-21)
(0.770158 0.0258719 -2.05075e-20)
(0.891672 0.0507711 -3.4188e-21)
(1.00213 0.0752645 1.79401e-22)
(1.09636 0.0931145 9.65292e-21)
(0.0528659 -0.0128866 3.34476e-21)
(0.16425 -0.029588 -1.10023e-20)
(0.286613 -0.0308548 2.69423e-20)
(0.416228 -0.0221539 1.812e-20)
(0.549829 -0.00538678 5.19128e-22)
(0.683483 0.0173086 1.40215e-20)
(0.812731 0.0434371 2.12307e-21)
(0.932945 0.0705154 -1.6392e-20)
(1.03979 0.0962826 1.46187e-20)
(1.12877 0.115209 1.47607e-22)
(0.0592534 -0.0122141 -2.38081e-20)
(0.181238 -0.0266563 -7.46075e-21)
(0.312385 -0.0247093 -7.06126e-21)
(0.44896 -0.0123743 -1.26214e-20)
(0.587495 0.00807399 3.05718e-21)
(0.72384 0.0341348 8.82339e-23)
(0.853398 0.0629941 1.14468e-20)
(0.971552 0.0919357 -1.91903e-21)
(1.07418 0.118551 -1.50853e-20)
(1.15751 0.138017 -1.4559e-20)
(0.0658401 -0.0111097 1.89223e-21)
(0.198538 -0.0225945 1.18635e-20)
(0.338318 -0.0169234 5.86528e-21)
(0.481475 -0.000624185 -1.93502e-20)
(0.624369 0.0236437 -1.07474e-21)
(0.762696 0.0530152 -9.31589e-21)
(0.891803 0.0843725 2.57144e-22)
(1.0072 0.114801 4.8802e-21)
(1.1051 0.1418 -5.73428e-21)
(1.18248 0.161258 1.64943e-20)
(0.0725739 -0.00954712 4.35742e-21)
(0.216004 -0.0173579 -1.13916e-20)
(0.36418 -0.00746715 -2.79605e-20)
(0.513469 0.0130868 2.69869e-20)
(0.660105 0.0412551 -2.15339e-21)
(0.799692 0.0738159 6.708e-21)
(0.927619 0.107376 -1.02869e-21)
(1.03963 0.138867 7.28304e-21)
(1.13239 0.165765 -5.50255e-22)
(1.20368 0.184677 -1.27639e-20)
(0.0793969 -0.00750529 -8.6802e-21)
(0.233476 -0.0109167 1.46005e-20)
(0.389727 0.00366543 1.26519e-20)
(0.544635 0.0287184 -1.90721e-20)
(0.69436 0.0608074 -3.33741e-21)
(0.834491 0.0963729 1.36219e-21)
(0.960554 0.131785 1.47184e-20)
(1.06864 0.163882 8.18748e-22)
(1.15597 0.190191 3.1929e-21)
(1.22112 0.208045 -7.11701e-21)
(0.0862457 -0.00496905 6.55941e-21)
(0.250785 -0.00325816 -6.30554e-21)
(0.414707 0.0164549 -5.47411e-21)
(0.574666 0.0461996 1.00373e-20)
(0.726805 0.0821685 3.72841e-21)
(0.866779 0.120495 3.0266e-21)
(0.990356 0.157364 -1.49761e-20)
(1.09407 0.189591 -5.47584e-21)
(1.1758 0.214833 -5.12067e-21)
(1.23488 0.23116 2.34492e-21)
(0.0930525 -0.00193007 -3.13509e-21)
(0.267755 0.00561257 -6.80812e-23)
(0.438866 0.0308559 1.03424e-20)
(0.603259 0.0654292 -4.04908e-21)
(0.757125 0.105177 -1.88454e-21)
(0.896275 0.145967 -1.33761e-21)
(1.01681 0.183866 3.6367e-21)
(1.11582 0.215738 6.66023e-21)
(1.19186 0.239457 -2.12543e-22)
(1.24506 0.253841 2.60548e-21)
(0.0997454 0.00161255 2.18535e-21)
(0.284205 0.0156712 -6.63864e-22)
(0.461949 0.0467963 -1.82495e-21)
(0.630121 0.0862765 -1.7547e-21)
(0.785032 0.129643 1.71936e-21)
(0.922734 0.172555 1.45461e-21)
(1.03976 0.211033 -1.42396e-21)
(1.13382 0.242073 5.58611e-22)
(1.2042 0.263846 8.13547e-22)
(1.25179 0.275926 -1.10702e-21)
(0.10625 0.00565164 1.12067e-21)
(0.299954 0.0268738 3.57433e-22)
(0.483708 0.0641779 -2.17433e-21)
(0.654976 0.108583 -1.87509e-21)
(0.810262 0.155356 2.11854e-21)
(0.945946 0.200011 4.43309e-22)
(1.05908 0.238605 -1.15466e-21)
(1.14805 0.268353 1.13786e-21)
(1.21291 0.287797 6.64007e-22)
(1.25523 0.297274 -7.75723e-22)
(0.112492 0.0101716 -4.56806e-22)
(0.314821 0.0391563 9.42091e-22)
(0.503901 0.0828767 6.55401e-21)
(0.677567 0.132165 -3.14618e-21)
(0.832582 0.182081 -1.73467e-21)
(0.965743 0.228072 -2.1239e-21)
(1.07469 0.26632 4.63213e-21)
(1.15853 0.294342 3.28876e-21)
(1.21809 0.311121 2.74183e-21)
(1.25553 0.317758 1.51926e-21)
(0.118395 0.0151481 8.50462e-21)
(0.32863 0.0524347 -5.01986e-21)
(0.522303 0.102744 -6.24699e-21)
(0.697659 0.156815 9.09508e-21)
(0.851796 0.209569 5.24193e-21)
(0.981996 0.256471 -3.92641e-22)
(1.08655 0.29392 -7.70328e-21)
(1.16532 0.319816 -5.91316e-21)
(1.21986 0.333644 -6.38209e-21)
(1.2529 0.337266 3.82338e-21)
(0.123884 0.0205482 -1.13581e-20)
(0.341214 0.0666059 1.14096e-20)
(0.538704 0.123609 1.38916e-20)
(0.715047 0.182304 -1.50675e-20)
(0.867741 0.237555 -5.81095e-21)
(0.994617 0.284934 4.08705e-21)
(1.09466 0.32115 8.10585e-21)
(1.16849 0.344561 1.33392e-21)
(1.21838 0.355206 -2.05023e-22)
(1.2475 0.355697 -5.11542e-21)
(0.128889 0.0263302 -1.52161e-21)
(0.352416 0.0815482 -1.5666e-20)
(0.552917 0.14528 -1.79831e-20)
(0.729558 0.208388 2.22761e-20)
(0.880293 0.265765 -2.72316e-21)
(1.00356 0.313188 5.62844e-21)
(1.09906 0.347763 1.22535e-21)
(1.16816 0.368378 -3.61949e-21)
(1.21381 0.375658 2.02631e-21)
(1.23952 0.372959 -1.59639e-22)
(0.133343 0.0324442 3.08755e-21)
(0.362094 0.0971232 9.39019e-21)
(0.564776 0.167546 5.88255e-21)
(0.741047 0.234808 -4.95816e-21)
(0.889365 0.293921 -8.39282e-21)
(1.0088 0.340962 -8.94602e-21)
(1.09981 0.373524 -1.95516e-21)
(1.16446 0.391077 5.35891e-21)
(1.20632 0.394864 -1.1827e-21)
(1.22916 0.38897 2.77404e-21)
(0.137183 0.0388327 -1.09826e-20)
(0.370122 0.113177 -1.13883e-20)
(0.574145 0.190182 -1.85997e-21)
(0.749409 0.261294 -2.30885e-21)
(0.89491 0.32174 -6.04981e-21)
(1.01038 0.367992 4.2528e-21)
(1.097 0.398205 -8.41495e-22)
(1.15754 0.412483 -4.80962e-21)
(1.19609 0.412694 4.44524e-21)
(1.21661 0.403657 -6.10309e-21)
(0.140354 0.0454309 3.09632e-21)
(0.376392 0.129544 9.5795e-21)
(0.580916 0.212952 8.93597e-21)
(0.754573 0.287571 1.07796e-20)
(0.896918 0.348942 3.89118e-22)
(1.00836 0.39402 1.16001e-20)
(1.09077 0.421594 7.22976e-22)
(1.14756 0.432431 -1.54707e-20)
(1.1833 0.429027 1.13144e-20)
(1.20198 0.416944 4.33739e-21)
(0.14281 0.0521683 6.85855e-21)
(0.380818 0.146045 1.60775e-20)
(0.585012 0.23561 -2.48794e-21)
(0.756503 0.313361 -1.32028e-20)
(0.895418 0.375251 6.79763e-21)
(1.00282 0.418802 -7.91926e-21)
(1.08124 0.443492 -1.10927e-20)
(1.1347 0.450779 -6.31687e-22)
(1.1681 0.443769 -8.91888e-21)
(1.18536 0.428704 3.33913e-21)
(0.14451 0.0589688 2.7868e-21)
(0.383338 0.162496 1.6981e-21)
(0.586387 0.257904 2.12509e-20)
(0.755202 0.338388 4.69694e-21)
(0.890471 0.400399 -4.33385e-21)
(0.993888 0.442104 -2.666e-21)
(1.0686 0.463716 1.6203e-20)
(1.11913 0.4674 1.38847e-20)
(1.15071 0.456894 7.02465e-21)
(1.16707 0.438802 -7.90248e-22)
(0.145428 0.0657527 4.78766e-22)
(0.38391 0.178705 -1.5906e-20)
(0.585029 0.279582 -2.43377e-20)
(0.750708 0.362378 8.18156e-22)
(0.882175 0.424129 6.64532e-21)
(0.981712 0.463708 -9.21855e-21)
(1.05301 0.482094 -2.2729e-20)
(1.10105 0.482153 -7.02855e-21)
(1.13129 0.468271 -3.86374e-22)
(1.14736 0.447364 2.2941e-21)
(0.145542 0.0724374 -4.4655e-21)
(0.38252 0.19448 1.17116e-20)
(0.580957 0.300393 1.39967e-20)
(0.743093 0.385067 -1.44261e-20)
(0.87066 0.446195 2.48637e-21)
(0.966466 0.483412 2.10691e-20)
(1.03467 0.498475 -4.04604e-21)
(1.08064 0.49494 4.12627e-21)
(1.10998 0.477787 -1.36679e-21)
(1.12629 0.454285 -1.57042e-21)
(0.144846 0.0789388 -8.80322e-21)
(0.379177 0.209627 -1.8826e-20)
(0.574223 0.320092 -4.27532e-21)
(0.732465 0.4062 7.88585e-21)
(0.856085 0.466369 8.43258e-21)
(0.948346 0.50103 -2.00059e-20)
(1.0138 0.512725 1.13784e-20)
(1.0581 0.505669 -4.83637e-21)
(1.08698 0.485385 3.17507e-21)
(1.10394 0.459467 5.31935e-22)
(0.143343 0.0851732 6.79526e-21)
(0.373914 0.223956 1.17872e-21)
(0.56491 0.338442 -1.55314e-21)
(0.718962 0.425538 -8.56707e-21)
(0.838634 0.48444 5.4614e-21)
(0.927569 0.516397 2.37986e-21)
(0.990622 0.524726 -4.70201e-21)
(1.03363 0.514264 2.06187e-21)
(1.06243 0.49101 1.00873e-22)
(1.08046 0.462843 -1.84978e-21)
(0.141045 0.0910584 -1.24521e-21)
(0.366788 0.237282 -1.21066e-21)
(0.553131 0.355214 6.5245e-21)
(0.702751 0.442855 3.87254e-21)
(0.81852 0.500212 -6.90317e-21)
(0.904375 0.529366 7.96936e-21)
(0.965362 0.534379 1.44806e-21)
(1.00744 0.520664 2.45373e-21)
(1.03648 0.494619 4.79833e-21)
(1.05594 0.464344 9.15249e-22)
(0.137972 0.0965113 6.89488e-21)
(0.357882 0.24943 7.03297e-21)
(0.539026 0.370196 -1.8825e-21)
(0.684023 0.457944 -1.02006e-21)
(0.795979 0.513514 -2.47295e-21)
(0.879017 0.539809 -1.46285e-21)
(0.938277 0.541604 2.34499e-21)
(0.979733 0.524827 4.03172e-22)
(1.00924 0.496184 -4.14968e-21)
(1.03048 0.463895 -6.03258e-21)
(0.13416 0.10145 -1.87555e-21)
(0.347301 0.260231 -4.21008e-22)
(0.52276 0.383192 -4.8257e-21)
(0.662999 0.470617 2.08018e-21)
(0.771264 0.52419 -1.88011e-21)
(0.851766 0.547618 3.78642e-21)
(0.909629 0.546338 2.15709e-23)
(0.950732 0.526734 1.1003e-21)
(0.980844 0.495695 -4.80734e-21)
(1.00412 0.461415 7.25516e-21)
(0.129657 0.105804 -2.62829e-21)
(0.335164 0.269529 -2.38086e-22)
(0.50452 0.394024 -6.44094e-22)
(0.639918 0.480709 -1.73566e-21)
(0.744646 0.532108 -2.22965e-21)
(0.822905 0.552701 6.46857e-22)
(0.879701 0.548536 2.86157e-21)
(0.920675 0.526383 -1.26479e-20)
(0.95139 0.493156 2.81673e-20)
(0.976908 0.456775 1.17259e-20)
(0.124514 0.109508 -1.53795e-22)
(0.321609 0.277186 -6.26711e-21)
(0.484514 0.402531 4.64173e-21)
(0.615034 0.488073 -1.43881e-21)
(0.716406 0.537155 2.28479e-21)
(0.792729 0.554987 -4.54689e-21)
(0.848789 0.548168 -9.73828e-21)
(0.889831 0.523803 5.1405e-21)
(0.921045 0.488622 -1.97603e-21)
(0.948776 0.449864 -5.58929e-21)
(0.11879 0.112499 -1.89722e-21)
(0.306795 0.283078 1.61333e-21)
(0.462969 0.408576 -3.53203e-21)
(0.588617 0.492588 3.67091e-21)
(0.686837 0.539239 7.55835e-21)
(0.761537 0.554414 5.07216e-21)
(0.8172 0.545214 1.71605e-20)
(0.858542 0.519047 -1.26575e-20)
(0.890227 0.482316 -2.52689e-20)
(0.919485 0.441085 1.06108e-20)
(0.112553 0.114722 -4.40409e-21)
(0.290892 0.287099 -4.15156e-21)
(0.440123 0.412045 1.51393e-21)
(0.560946 0.494157 1.24011e-20)
(0.656231 0.538289 -1.44549e-20)
(0.729621 0.550934 -2.01244e-20)
(0.785239 0.539632 -6.41818e-21)
(0.827248 0.512088 -1.07079e-21)
(0.859867 0.474514 3.23692e-20)
(0.888658 0.430873 -8.33065e-21)
(0.105878 0.116133 1.30718e-20)
(0.274081 0.289162 -6.63338e-22)
(0.416227 0.412847 -2.30977e-21)
(0.532305 0.492708 -5.69368e-24)
(0.624879 0.534256 -7.6307e-21)
(0.697255 0.544513 3.67097e-20)
(0.753165 0.531364 -2.55568e-20)
(0.796353 0.50268 3.20859e-20)
(0.83095 0.464725 -2.38458e-20)
(0.86185 0.421167 -3.22906e-20)
(0.0988438 0.116692 -6.18465e-21)
(0.256554 0.289198 2.73285e-21)
(0.391537 0.41092 -1.08169e-21)
(0.502984 0.488198 1.24975e-20)
(0.593069 0.527123 -4.34763e-21)
(0.664695 0.535152 6.84151e-21)
(0.721159 0.520422 1.52574e-20)
(0.765791 0.490851 -8.36189e-21)
(0.802434 0.452677 -2.19605e-20)
(0.835083 0.409622 3.20464e-20)
(0.0915351 0.116373 1.27382e-20)
(0.23851 0.287162 1.78531e-20)
(0.36632 0.406223 -1.4931e-20)
(0.473275 0.480609 -1.29907e-20)
(0.561088 0.516896 3.87852e-20)
(0.6322 0.522882 -3.99199e-20)
(0.689426 0.506865 4.92552e-20)
(0.73566 0.476732 -1.32802e-20)
(0.774349 0.438642 1.48992e-20)
(0.808725 0.396433 2.81265e-20)
(0.0840397 0.115156 -5.95547e-21)
(0.220153 0.283029 -1.61103e-20)
(0.340844 0.398748 -6.68285e-21)
(0.44347 0.469954 -4.31458e-21)
(0.529226 0.503611 3.53827e-21)
(0.600031 0.507756 -9.77118e-21)
(0.658189 0.490759 -1.48113e-20)
(0.706144 0.460419 -3.32697e-20)
(0.746915 0.422782 3.45164e-20)
(0.783117 0.38174 -1.18532e-20)
(0.0764473 0.113033 2.24175e-20)
(0.201689 0.276793 -1.51143e-21)
(0.315376 0.388507 -8.78522e-21)
(0.413862 0.456269 1.28161e-20)
(0.497766 0.487322 -2.33645e-20)
(0.568449 0.489841 6.31881e-20)
(0.627677 0.47218 -3.52169e-20)
(0.677439 0.441984 3.38693e-20)
(0.720322 0.405154 -6.57302e-20)
(0.758424 0.365563 -1.81931e-20)
(0.0688489 0.110005 -9.2089e-21)
(0.183325 0.268472 2.39195e-20)
(0.290186 0.375541 6.28326e-21)
(0.384739 0.439615 -1.10237e-20)
(0.466988 0.468107 -1.97859e-20)
(0.537709 0.469222 -1.11048e-21)
(0.598115 0.451209 1.17761e-20)
(0.649739 0.421497 -3.0115e-20)
(0.694744 0.385801 1.60064e-20)
(0.734788 0.347909 2.08559e-21)
(0.0613355 0.106084 -3.55944e-20)
(0.165267 0.258105 -9.58126e-21)
(0.265534 0.359914 -2.44571e-21)
(0.356379 0.420078 2.81308e-20)
(0.437164 0.446064 -2.6943e-20)
(0.508057 0.446 -7.557e-21)
(0.569717 0.42794 -4.72277e-21)
(0.623229 0.399038 9.37176e-21)
(0.670342 0.364775 -1.23833e-20)
(0.712342 0.328801 -2.04285e-20)
(0.0539965 0.10129 2.94943e-20)
(0.147714 0.24575 -1.69168e-20)
(0.241676 0.341715 1.04578e-21)
(0.329053 0.397767 -4.24158e-20)
(0.408552 0.42131 4.759e-20)
(0.479727 0.42029 -1.58557e-20)
(0.542688 0.402477 1.00187e-20)
(0.598082 0.374692 9.25133e-21)
(0.647266 0.34214 2.83099e-20)
(0.691204 0.308282 -1.19784e-20)
(0.0469192 0.0956529 -1.19414e-20)
(0.13086 0.231485 3.52325e-20)
(0.218857 0.321056 1.97751e-20)
(0.303021 0.372814 3.25525e-20)
(0.3814 0.393984 -8.0273e-21)
(0.452942 0.392224 3.2756e-21)
(0.517218 0.37494 2.84454e-20)
(0.57446 0.348559 6.64269e-21)
(0.625648 0.317971 6.47747e-22)
(0.671477 0.286411 -1.4334e-20)
(0.0401875 0.0892128 -2.55157e-20)
(0.114891 0.215406 -2.01288e-21)
(0.19731 0.298071 -1.12394e-20)
(0.278525 0.345371 -5.16669e-20)
(0.355938 0.36424 -5.22801e-20)
(0.427906 0.361948 9.20665e-21)
(0.493486 0.345457 -2.40284e-20)
(0.552509 0.320748 1.62562e-20)
(0.605611 0.292357 9.39679e-21)
(0.653256 0.263263 2.0648e-20)
(0.033881 0.0820173 3.60705e-20)
(0.0999814 0.197629 -3.12625e-20)
(0.177252 0.272914 -1.59002e-20)
(0.255793 0.315611 2.98628e-20)
(0.332383 0.332252 3.53003e-20)
(0.404812 0.329626 -1.22636e-20)
(0.471652 0.314173 -1.60042e-21)
(0.532366 0.291381 -5.03812e-20)
(0.587263 0.265399 -3.01286e-20)
(0.636622 0.238925 1.2177e-20)
(0.0280739 0.0741225 -2.04652e-20)
(0.086293 0.178285 9.17779e-21)
(0.158887 0.24576 3.39639e-20)
(0.235035 0.283724 -1.55172e-20)
(0.310931 0.29821 1.20747e-21)
(0.383834 0.295432 4.94855e-20)
(0.451866 0.281242 2.4465e-21)
(0.51415 0.26059 4.81087e-20)
(0.570705 0.237208 2.13076e-20)
(0.621649 0.213497 -3.56328e-20)
(0.0228344 0.0655918 2.73518e-20)
(0.0739743 0.15752 3.17376e-21)
(0.142397 0.216798 2.19864e-21)
(0.216441 0.24992 3.18305e-20)
(0.291759 0.262319 -4.51347e-21)
(0.365128 0.259555 -3.09553e-20)
(0.434259 0.246832 1.61837e-20)
(0.497972 0.22852 -2.7152e-20)
(0.556023 0.207906 -1.2007e-20)
(0.608403 0.187085 1.29597e-20)
(0.0182241 0.0564955 -1.70823e-20)
(0.0631587 0.135495 -3.44226e-20)
(0.127947 0.186238 8.1048e-21)
(0.200181 0.214421 -1.66747e-20)
(0.275027 0.224796 -1.07161e-20)
(0.348832 0.222195 2.74569e-20)
(0.418949 0.211117 -6.98203e-21)
(0.483926 0.19532 6.96394e-21)
(0.543293 0.177624 -8.98903e-21)
(0.59694 0.159807 1.86243e-20)
(0.0142969 0.04691 6.06108e-21)
(0.0539624 0.112382 2.30364e-20)
(0.115681 0.154299 -3.28776e-20)
(0.186401 0.177465 1.6314e-20)
(0.260871 0.185872 -7.84422e-21)
(0.335067 0.183563 -2.34806e-20)
(0.406035 0.174285 2.03467e-20)
(0.472094 0.161153 4.62718e-21)
(0.532583 0.1465 -6.67008e-22)
(0.587312 0.131784 -2.17713e-20)
(0.0110987 0.0369168 1.92733e-21)
(0.0464844 0.0883633 7.27811e-21)
(0.105721 0.121216 2.95906e-20)
(0.175225 0.1393 -5.94282e-21)
(0.249406 0.145787 -4.95826e-21)
(0.323934 0.143878 1.94576e-21)
(0.395601 0.136527 8.60193e-22)
(0.462546 0.126183 8.04846e-21)
(0.523948 0.114678 -1.12086e-20)
(0.579558 0.103145 -7.51439e-21)
(0.00866687 0.0266019 -4.89612e-21)
(0.0408047 0.063632 -8.91073e-21)
(0.098163 0.0872332 -2.29137e-20)
(0.166755 0.100185 1.20896e-20)
(0.240725 0.104791 1.04383e-20)
(0.315512 0.103365 4.49155e-22)
(0.387717 0.0980423 -1.98327e-20)
(0.455336 0.0905841 -9.36723e-21)
(0.517433 0.0823073 7.85965e-21)
(0.573714 0.0740234 8.89304e-21)
(0.00702971 0.0160548 8.51117e-22)
(0.0369842 0.0383863 -1.84515e-21)
(0.093083 0.0526011 4.34859e-21)
(0.161066 0.0603864 -3.09076e-21)
(0.234899 0.0631381 -2.87559e-21)
(0.309864 0.0622582 -2.0646e-21)
(0.382432 0.0590354 4.06674e-21)
(0.450506 0.0545324 1.64431e-20)
(0.51307 0.0495429 2.51574e-21)
(0.569803 0.0445537 -4.7456e-21)
(0.00620634 0.00536724 1.04469e-21)
(0.0350637 0.0128301 -3.05417e-21)
(0.0905304 0.0175773 -3.58892e-21)
(0.158209 0.0201748 -2.61489e-21)
(0.231974 0.0210901 2.64383e-21)
(0.307029 0.0207927 1.26708e-21)
(0.379781 0.0197135 -1.33975e-21)
(0.448084 0.0182079 -6.50527e-21)
(0.510883 0.0165408 2.26356e-21)
(0.567844 0.0148746 -2.24431e-21)
(0.00620634 -0.00536724 -1.04469e-21)
(0.0350637 -0.0128301 3.05417e-21)
(0.0905304 -0.0175774 3.58892e-21)
(0.158209 -0.0201748 -3.61183e-21)
(0.231974 -0.0210901 3.36477e-21)
(0.307029 -0.0207927 1.79471e-21)
(0.379781 -0.0197135 -3.05268e-21)
(0.448084 -0.0182079 -3.76517e-21)
(0.510883 -0.0165408 5.94012e-22)
(0.567844 -0.0148746 -1.75684e-21)
(0.00702971 -0.0160548 1.13606e-21)
(0.0369842 -0.0383863 -3.64384e-21)
(0.093083 -0.0526011 8.47848e-21)
(0.161066 -0.0603864 -7.81788e-21)
(0.234899 -0.0631381 -3.80379e-22)
(0.309864 -0.0622582 -5.8464e-21)
(0.382432 -0.0590354 1.01166e-20)
(0.450506 -0.0545324 1.4634e-20)
(0.51307 -0.0495429 2.78216e-21)
(0.569803 -0.0445537 -6.29971e-21)
(0.00866687 -0.0266019 -9.89618e-22)
(0.0408047 -0.063632 -7.74965e-21)
(0.098163 -0.0872332 -1.8637e-20)
(0.166755 -0.100185 1.69337e-20)
(0.240725 -0.104791 3.72797e-21)
(0.315512 -0.103365 3.4983e-21)
(0.387717 -0.0980423 -1.81876e-20)
(0.455336 -0.0905841 -1.13622e-20)
(0.517433 -0.0823073 -2.69573e-21)
(0.573714 -0.0740234 1.94665e-20)
(0.0110987 -0.0369168 -3.5328e-21)
(0.0464844 -0.0883633 4.6795e-21)
(0.105721 -0.121216 3.39886e-20)
(0.175225 -0.1393 -3.17173e-21)
(0.249406 -0.145787 -9.65052e-21)
(0.323934 -0.143878 7.39512e-21)
(0.395601 -0.136527 5.35314e-22)
(0.462546 -0.126183 2.95404e-21)
(0.523948 -0.114678 -6.80343e-21)
(0.579558 -0.103145 -1.90576e-20)
(0.0142969 -0.04691 -2.47511e-21)
(0.0539624 -0.112382 1.3875e-20)
(0.115681 -0.154299 -3.4346e-20)
(0.186401 -0.177465 1.56546e-20)
(0.260871 -0.185872 1.45791e-22)
(0.335067 -0.183563 -2.22019e-20)
(0.406035 -0.174285 1.04011e-20)
(0.472094 -0.161153 -1.08665e-21)
(0.532583 -0.1465 4.37553e-21)
(0.587312 -0.131784 -1.4122e-21)
(0.0182241 -0.0564955 -2.8017e-20)
(0.0631587 -0.135495 -3.52256e-20)
(0.127947 -0.186238 9.39998e-21)
(0.200181 -0.214421 -1.79196e-20)
(0.275027 -0.224796 -5.40052e-21)
(0.348832 -0.222195 8.41748e-21)
(0.418949 -0.211118 3.28265e-21)
(0.483926 -0.19532 1.32721e-20)
(0.543293 -0.177624 -2.98016e-21)
(0.59694 -0.159807 1.71734e-20)
(0.0228344 -0.0655918 2.68258e-20)
(0.0739744 -0.15752 1.8013e-20)
(0.142397 -0.216798 -1.44608e-20)
(0.216441 -0.24992 2.5093e-20)
(0.291759 -0.262319 -2.36114e-21)
(0.365128 -0.259555 -3.02479e-20)
(0.434259 -0.246832 5.57469e-21)
(0.497972 -0.22852 -3.62667e-20)
(0.556023 -0.207906 1.30819e-21)
(0.608403 -0.187085 1.46335e-20)
(0.0280739 -0.0741225 -2.06537e-20)
(0.086293 -0.178285 3.87649e-20)
(0.158887 -0.24576 1.53377e-20)