/*--------------------------------*- C++ -*----------------------------------*\
  =========                 |
  \\      /  F ield         | OpenFOAM: The Open Source CFD Toolbox
   \\    /   O peration     | Website:  https://openfoam.org
    \\  /    A nd           | Version:  7
     \\/     M anipulation  |
\*---------------------------------------------------------------------------*/
FoamFile
{
    version     2.0;
    format      ascii;
    class       volScalarField;
    location    "270";
    object      p;
}
// * * * * * * * * * * * * * * * * * * * * * * * * * * * * * * * * * * * * * //

dimensions      [0 2 -2 0 0 0 0];

internalField   nonuniform List<scalar> 
2125
(
-0.571687
-0.579418
-0.572454
-0.588063
-0.580164
-0.597601
-0.588638
-0.58034
-0.607991
-0.597857
-0.588818
-0.578568
-0.619173
-0.607788
-0.597926
-0.586431
-0.57252
-0.55481
-0.631068
-0.618377
-0.607596
-0.594629
-0.578315
-0.557174
-0.530526
-0.643571
-0.629547
-0.617731
-0.603029
-0.583906
-0.559011
-0.528548
-0.494357
-0.65655
-0.641185
-0.6282
-0.611459
-0.589089
-0.560184
-0.525953
-0.488824
-0.450739
-0.41427
-0.669839
-0.653144
-0.638833
-0.619701
-0.593653
-0.560561
-0.522669
-0.482838
-0.443159
-0.405599
-0.683233
-0.665233
-0.649417
-0.627501
-0.59738
-0.560016
-0.518623
-0.476327
-0.435233
-0.396685
-0.69649
-0.677221
-0.659694
-0.634573
-0.60006
-0.558428
-0.513733
-0.469214
-0.42687
-0.387435
-0.70933
-0.688836
-0.669366
-0.64062
-0.60149
-0.555677
-0.507915
-0.461412
-0.417981
-0.37776
-0.721439
-0.699774
-0.678102
-0.645343
-0.601475
-0.551648
-0.501081
-0.452837
-0.408473
-0.367574
-0.732474
-0.709697
-0.685547
-0.648451
-0.599836
-0.546229
-0.493142
-0.443399
-0.398261
-0.356805
-0.742073
-0.718249
-0.691339
-0.649668
-0.596406
-0.539312
-0.484011
-0.433014
-0.387264
-0.345388
-0.749863
-0.725059
-0.695119
-0.648745
-0.591037
-0.530798
-0.473602
-0.421602
-0.375411
-0.333278
-0.755471
-0.729752
-0.696549
-0.645454
-0.583593
-0.520594
-0.461834
-0.409089
-0.362645
-0.320439
-0.758531
-0.731963
-0.695322
-0.639603
-0.573963
-0.508615
-0.448633
-0.395403
-0.348915
-0.306843
-0.758698
-0.731345
-0.691167
-0.631031
-0.56205
-0.494793
-0.433932
-0.380479
-0.33416
-0.292426
-0.755656
-0.727584
-0.683859
-0.619613
-0.547786
-0.479072
-0.417682
-0.364267
-0.318304
-0.277021
-0.749127
-0.720404
-0.67322
-0.605262
-0.53112
-0.461416
-0.399853
-0.346745
-0.301292
-0.260359
-0.738877
-0.709586
-0.659114
-0.587923
-0.512028
-0.441802
-0.380423
-0.327912
-0.28318
-0.242372
-0.724723
-0.694962
-0.641455
-0.567576
-0.490507
-0.420221
-0.359376
-0.307766
-0.264046
-0.223746
-0.706536
-0.676424
-0.620205
-0.544234
-0.466579
-0.396687
-0.336737
-0.286343
-0.243635
-0.204611
-0.684244
-0.653918
-0.595375
-0.517945
-0.440292
-0.371242
-0.312591
-0.263675
-0.222101
-0.184718
-0.657834
-0.627451
-0.567026
-0.488799
-0.411709
-0.343973
-0.286982
-0.239742
-0.199571
-0.164008
-0.627344
-0.597091
-0.535288
-0.456931
-0.380897
-0.314955
-0.259934
-0.214621
-0.176107
-0.142516
-0.59287
-0.562968
-0.500359
-0.422434
-0.347956
-0.284251
-0.231534
-0.188395
-0.151769
-0.120323
-0.554565
-0.525286
-0.46241
-0.385229
-0.31314
-0.252001
-0.201885
-0.161158
-0.126633
-0.0975378
-0.51264
-0.484307
-0.421372
-0.345756
-0.276509
-0.218338
-0.171106
-0.133008
-0.10079
-0.0742792
-0.467335
-0.44029
-0.377155
-0.304446
-0.238295
-0.183415
-0.139329
-0.104052
-0.0743301
-0.0506366
-0.418873
-0.393221
-0.330719
-0.261302
-0.198697
-0.147403
-0.106697
-0.0744007
-0.0473404
-0.0266975
-0.367542
-0.343269
-0.282689
-0.216603
-0.157911
-0.110477
-0.0733481
-0.0441518
-0.0199675
-0.00283247
-0.313794
-0.291054
-0.233082
-0.170636
-0.116154
-0.0728114
-0.0393937
-0.013377
0.00749366
0.0200074
-0.258046
-0.236961
-0.182095
-0.123681
-0.0736627
-0.0345854
-0.00493676
0.0178267
0.0346761
0.0411372
-0.200631
-0.181453
-0.130041
-0.0760196
-0.0306823
0.00400841
0.0298551
0.0491896
0.0614479
0.0626396
-0.141984
-0.124954
-0.0772813
-0.0279484
0.0125358
0.0427537
0.0647063
0.0802499
0.0877961
0.0901912
-0.0825561
-0.0678747
-0.0241874
0.0202292
0.0557368
0.0814161
0.0993307
0.110883
0.114774
0.117878
-0.0228027
-0.0106325
0.0288653
0.0682041
0.0986601
0.119759
0.133556
0.141202
0.142046
0.144143
0.0368199
0.046353
0.081505
0.115666
0.141041
0.157548
0.167208
0.171084
0.169109
0.169329
0.0958567
0.102663
0.133365
0.162306
0.182617
0.194559
0.20012
0.200349
0.195573
0.193422
0.153858
0.157884
0.184084
0.207822
0.22313
0.230575
0.232115
0.228809
0.221238
0.216487
0.210385
0.211611
0.233315
0.251918
0.262329
0.265384
0.263013
0.256285
0.245946
0.238503
0.265009
0.263454
0.280718
0.294309
0.299971
0.298782
0.292635
0.282615
0.269574
0.259426
0.31732
0.313035
0.32597
0.334721
0.335826
0.330569
0.320814
0.30765
0.292004
0.279191
0.366928
0.359999
0.368766
0.372896
0.369672
0.360559
0.347386
0.331251
0.313127
0.297726
0.413464
0.40401
0.408817
0.408589
0.401303
0.388576
0.372201
0.353289
0.332837
0.31496
0.456586
0.444756
0.445855
0.441575
0.430525
0.414453
0.39512
0.373645
0.351034
0.330823
0.495979
0.481953
0.479638
0.471646
0.457161
0.438041
0.416012
0.392208
0.367628
0.345252
0.531359
0.515343
0.509943
0.498616
0.481053
0.459203
0.434763
0.408879
0.382533
0.358188
0.562474
0.544697
0.536576
0.522317
0.502057
0.477818
0.451269
0.423568
0.395675
0.369581
0.589106
0.569819
0.559367
0.542608
0.520053
0.493782
0.46544
0.436198
0.406989
0.379387
0.611072
0.590545
0.578176
0.559368
0.534938
0.507008
0.477203
0.446704
0.41642
0.387572
0.628226
0.606742
0.592889
0.572502
0.54663
0.517424
0.486496
0.455035
0.423925
0.394108
0.640461
0.618313
0.603424
0.581939
0.555067
0.524981
0.493277
0.461152
0.429472
0.398975
0.587633
0.560212
0.529643
0.497516
0.465029
0.433039
0.402163
-0.30363
-0.315138
-0.326103
-0.336562
-0.346563
-0.356166
-0.365437
-0.374445
-0.282318
-0.29305
-0.30333
-0.313192
-0.322683
-0.331852
-0.340753
-0.349443
-0.262232
-0.272152
-0.2817
-0.29091
-0.299822
-0.308476
-0.316915
-0.325186
-0.243353
-0.252511
-0.261369
-0.26996
-0.278311
-0.286455
-0.294427
-0.302267
-0.225659
-0.234098
-0.242293
-0.250269
-0.258048
-0.265657
-0.273122
-0.280474
-0.209064
-0.216809
-0.224349
-0.231707
-0.238899
-0.245945
-0.252865
-0.259684
-0.193459
-0.20054
-0.207446
-0.214195
-0.220802
-0.227281
-0.233648
-0.239921
-0.178768
-0.185224
-0.191524
-0.197688
-0.203727
-0.209653
-0.215478
-0.221217
-0.164944
-0.170812
-0.17654
-0.182146
-0.187641
-0.193036
-0.198339
-0.203561
-0.151957
-0.157268
-0.162456
-0.167534
-0.172514
-0.177402
-0.182206
-0.186933
-0.139756
-0.144546
-0.149229
-0.153814
-0.15831
-0.162721
-0.167054
-0.171314
-0.128294
-0.132604
-0.136819
-0.140947
-0.144993
-0.14896
-0.152855
-0.156681
-0.117543
-0.121411
-0.125196
-0.128903
-0.132534
-0.136093
-0.139583
-0.143007
-0.107465
-0.110937
-0.114332
-0.117653
-0.120904
-0.124088
-0.127206
-0.130263
-0.0980344
-0.101148
-0.10419
-0.107163
-0.11007
-0.112913
-0.115695
-0.118418
-0.0892522
-0.0920378
-0.094758
-0.0974143
-0.100009
-0.102545
-0.105022
-0.107443
-0.109808
-0.0810893
-0.0835788
-0.0860089
-0.0883806
-0.0906952
-0.0929539
-0.0951576
-0.0973072
-0.0994039
-0.07352
-0.0757459
-0.0779175
-0.0800353
-0.0820997
-0.0841115
-0.0860712
-0.0879793
-0.0898367
-0.0665308
-0.0685232
-0.0704655
-0.0723577
-0.0742
-0.0759926
-0.0777359
-0.0794301
-0.0810756
-0.0601082
-0.0618946
-0.0636345
-0.0653275
-0.0669737
-0.0685731
-0.0701256
-0.0716314
-0.0730908
-0.0542403
-0.055846
-0.0574082
-0.0589265
-0.0604007
-0.0618307
-0.0632162
-0.0645573
-0.0658539
-0.0489176
-0.0503657
-0.051773
-0.0531391
-0.0544636
-0.0557461
-0.0569864
-0.0581843
-0.0593397
-0.0441332
-0.0454449
-0.0467183
-0.0479528
-0.0491478
-0.050303
-0.051418
-0.0524926
-0.0535266
-0.0398835
-0.0410785
-0.0422371
-0.0433589
-0.0444432
-0.0454895
-0.0464975
-0.0474669
-0.0483974
-0.0361694
-0.0372655
-0.0383271
-0.0393536
-0.0403443
-0.0412987
-0.0422165
-0.0430973
-0.0439407
-0.0329976
-0.0340116
-0.0349926
-0.0359399
-0.036853
-0.0377314
-0.0385746
-0.0393822
-0.0401539
-0.0303805
-0.0313278
-0.0322434
-0.0331268
-0.0339772
-0.0347941
-0.0355772
-0.0363261
-0.0370404
-0.0283476
-0.029243
-0.030108
-0.0309418
-0.0317438
-0.0325136
-0.0332505
-0.0339544
-0.0346248
-0.0269168
-0.0277766
-0.0286066
-0.0294062
-0.030175
-0.0309124
-0.0316179
-0.0322914
-0.0329323
-0.0261809
-0.0270173
-0.0278246
-0.028602
-0.0293493
-0.0300659
-0.0307515
-0.0314059
-0.0320288
0.0553267
0.0333308
0.0133381
-0.00671246
-0.0279865
-0.0494839
-0.0705409
-0.0911567
-0.11136
-0.131062
-0.150175
-0.168655
-0.18649
-0.203664
-0.220157
-0.236034
-0.25124
-0.265478
-0.278857
-0.291547
0.0474794
0.0257782
0.00488956
-0.0139869
-0.0333482
-0.05309
-0.0723269
-0.0909403
-0.109088
-0.126772
-0.143925
-0.160514
-0.176534
-0.191955
-0.206692
-0.220501
-0.234079
-0.24708
-0.259391
-0.271109
0.0383713
0.0176618
-0.00302519
-0.0206472
-0.0378374
-0.0554987
-0.0728666
-0.089584
-0.1058
-0.121605
-0.136952
-0.151787
-0.166085
-0.179806
-0.192906
-0.205411
-0.217897
-0.229832
-0.241135
-0.251907
0.028606
0.00941324
-0.0100971
-0.0263157
-0.0415159
-0.0571502
-0.0727403
-0.0877642
-0.102261
-0.11637
-0.13009
-0.143371
-0.15619
-0.168549
-0.18045
-0.191892
-0.202868
-0.213613
-0.223957
-0.233854
0.0192701
0.0018999
-0.0159692
-0.0307624
-0.0442611
-0.058069
-0.0719956
-0.085485
-0.0984566
-0.111047
-0.123304
-0.135194
-0.146692
-0.157797
-0.16851
-0.178817
-0.188677
-0.198406
-0.207854
-0.21693
0.0108884
-0.00465879
-0.0207314
-0.0341327
-0.0461801
-0.058385
-0.0707725
-0.0828489
-0.0944535
-0.105688
-0.116627
-0.12726
-0.13756
-0.147521
-0.157145
-0.166432
-0.175387
-0.184218
-0.192802
-0.201077
0.00358977
-0.0102754
-0.0245373
-0.0365753
-0.0473508
-0.0581563
-0.0691406
-0.0799141
-0.0902851
-0.100311
-0.11007
-0.119573
-0.128798
-0.137736
-0.146385
-0.154751
-0.162851
-0.170872
-0.178657
-0.186176
-0.00262763
-0.0149734
-0.0274931
-0.0382088
-0.0478438
-0.0574294
-0.0671549
-0.0767373
-0.0859919
-0.0949389
-0.103647
-0.112139
-0.120403
-0.128431
-0.136224
-0.143791
-0.151141
-0.158292
-0.165304
-0.172134
-0.00779493
-0.0187669
-0.0296664
-0.0391298
-0.0477317
-0.0562506
-0.0648604
-0.0733653
-0.0816103
-0.0895926
-0.0973642
-0.104951
-0.11235
-0.119554
-0.126565
-0.133386
-0.140014
-0.146416
-0.152729
-0.158917
-0.0119578
-0.0216853
-0.0311195
-0.0394277
-0.0470924
-0.0546731
-0.0622997
-0.069839
-0.0771736
-0.0842905
-0.0912251
-0.0980005
-0.104618
-0.111071
-0.117359
-0.123481
-0.129437
-0.135224
-0.140922
-0.146508
-0.0151825
-0.023786
-0.0319215
-0.0391868
-0.0460035
-0.0527536
-0.0595144
-0.0661943
-0.0727114
-0.0790517
-0.0852373
-0.0912856
-0.0971994
-0.102975
-0.10861
-0.114106
-0.119464
-0.124684
-0.129818
-0.134846
-0.0175517
-0.0251451
-0.0321459
-0.038484
-0.0445367
-0.050548
-0.0565456
-0.0624639
-0.0682503
-0.0738948
-0.0794102
-0.0848081
-0.090091
-0.0952568
-0.100304
-0.105233
-0.110045
-0.114743
-0.119362
-0.123882
-0.0191554
-0.0258462
-0.0318663
-0.0373895
-0.0427572
-0.0481097
-0.0534337
-0.0586788
-0.063815
-0.0688378
-0.0737543
-0.0785709
-0.0832891
-0.0879074
-0.0924243
-0.0968388
-0.101152
-0.105367
-0.109523
-0.113582
-0.0200853
-0.0259739
-0.031154
-0.0359675
-0.0407239
-0.0454887
-0.0502176
-0.0548691
-0.0594289
-0.0638979
-0.0682801
-0.0725783
-0.0767924
-0.0809217
-0.0849653
-0.0889233
-0.0927961
-0.0965845
-0.100282
-0.103911
-0.020432
-0.0256109
-0.0300773
-0.0342773
-0.0384908
-0.0427319
-0.0469351
-0.0510637
-0.0551139
-0.0590909
-0.0629973
-0.0668329
-0.0705969
-0.0742881
-0.0779059
-0.08145
-0.0849189
-0.0883093
-0.0916091
-0.0948519
-0.0202829
-0.0248371
-0.0287008
-0.0323742
-0.0361081
-0.0398834
-0.0436222
-0.047291
-0.0508919
-0.0544329
-0.0579162
-0.06134
-0.0647018
-0.0680004
-0.0712345
-0.0744032
-0.0775049
-0.0805378
-0.0834984
-0.0864037
-0.0197214
-0.023728
-0.0270861
-0.03031
-0.0336225
-0.0369847
-0.040314
-0.043579
-0.0467848
-0.0499411
-0.0530496
-0.0561077
-0.0591124
-0.0620618
-0.0649548
-0.0677905
-0.0705675
-0.0732847
-0.0759398
-0.0785418
-0.0188268
-0.0223555
-0.0252913
-0.0281339
-0.0310779
-0.0340753
-0.0370444
-0.0399556
-0.0428152
-0.0456331
-0.0484111
-0.0511462
-0.053835
-0.0564754
-0.0590662
-0.0616064
-0.0640947
-0.0665298
-0.0689102
-0.0712406
-0.0176735
-0.0207866
-0.0233716
-0.0258922
-0.028516
-0.0311928
-0.0338459
-0.0364481
-0.0390053
-0.0415269
-0.0440146
-0.0464653
-0.0488758
-0.0512437
-0.0535676
-0.0558465
-0.0580789
-0.0602638
-0.0623996
-0.064489
-0.0163308
-0.0190844
-0.0213789
-0.0236288
-0.0259759
-0.0283725
-0.0307498
-0.033083
-0.035377
-0.0376401
-0.039874
-0.0420757
-0.044242
-0.0463706
-0.0484599
-0.0505087
-0.0525158
-0.0544798
-0.0563995
-0.058276
-0.0148633
-0.0173072
-0.0193621
-0.0213855
-0.0234951
-0.0256484
-0.027786
-0.029886
-0.031952
-0.0339908
-0.0360039
-0.0379886
-0.0399418
-0.0418612
-0.0437453
-0.0455928
-0.0474024
-0.0491727
-0.0509025
-0.0525921
-0.0133304
-0.0155092
-0.0173671
-0.0192019
-0.021109
-0.0230526
-0.0249833
-0.0268823
-0.0287517
-0.030597
-0.0324191
-0.0342157
-0.0359841
-0.0377219
-0.0394277
-0.0411
-0.0427376
-0.044339
-0.0459031
-0.0474297
-0.0117871
-0.0137406
-0.0154371
-0.0171157
-0.0188515
-0.0206161
-0.0223696
-0.0240965
-0.0257976
-0.027477
-0.0291352
-0.0307701
-0.0323793
-0.0339606
-0.0355125
-0.0370335
-0.0385224
-0.0399778
-0.0413985
-0.042784
-0.010284
-0.0120479
-0.0136132
-0.0151633
-0.0167558
-0.018369
-0.0199724
-0.0215532
-0.0231117
-0.0246502
-0.026169
-0.0276662
-0.0291395
-0.0305871
-0.0320074
-0.033399
-0.0347606
-0.0360909
-0.0373887
-0.0386532
-0.00886799
-0.0104748
-0.0119343
-0.01338
-0.014854
-0.0163412
-0.0178192
-0.0192779
-0.0207168
-0.0221372
-0.0235389
-0.0249202
-0.0262792
-0.027614
-0.0289232
-0.0302054
-0.0314594
-0.0326838
-0.0338775
-0.0350398
-0.007583
-0.0090623
-0.0104381
-0.0118005
-0.0131789
-0.0145634
-0.0159387
-0.0172972
-0.0186379
-0.0199611
-0.0212662
-0.0225519
-0.0238163
-0.0250577
-0.0262748
-0.0274663
-0.0286308
-0.0297672
-0.0308744
-0.0319516
-0.0064709
-0.00785054
-0.00916236
-0.0104606
-0.0117642
-0.0130678
-0.0143617
-0.0156405
-0.0169029
-0.0181484
-0.0193762
-0.0205849
-0.0217731
-0.0229392
-0.0240818
-0.0251998
-0.0262918
-0.0273569
-0.0283939
-0.0294023
-0.00557286
-0.00687969
-0.00814576
-0.00939757
-0.0106462
-0.0118898
-0.0131229
-0.014342
-0.0155453
-0.016732
-0.0179012
-0.0190515
-0.0201816
-0.0212901
-0.0223758
-0.0234376
-0.0244744
-0.0254851
-0.0264688
-0.0274226
-0.00493059
-0.00619177
-0.00742989
-0.00865232
-0.00986493
-0.0110682
-0.01226
-0.0134377
-0.0145998
-0.0157451
-0.0168726
-0.017981
-0.0190693
-0.0201362
-0.0211805
-0.0222013
-0.0231974
-0.0241678
-0.0251114
-0.026028
-0.00458515
-0.00582885
-0.00705945
-0.00827384
-0.00947442
-0.0106626
-0.0118376
-0.0129977
-0.0141413
-0.0152671
-0.016374
-0.017461
-0.0185269
-0.0195708
-0.0205915
-0.0215883
-0.0225601
-0.0235061
-0.0244253
-0.0253168
0.121887
0.12433
0.127183
0.132626
0.137966
0.145341
0.151903
0.159733
0.16516
0.170524
0.170411
0.168205
0.154994
0.136524
0.094214
0.12083
0.123138
0.125783
0.130827
0.135686
0.142307
0.147955
0.154485
0.158375
0.161652
0.15929
0.153928
0.138181
0.115413
0.0779466
0.119686
0.121845
0.124252
0.128857
0.13318
0.138992
0.143663
0.148855
0.151212
0.152489
0.148152
0.140233
0.123198
0.099177
0.0661691
0.11845
0.120445
0.1226
0.126732
0.130494
0.135451
0.139132
0.142946
0.143826
0.143142
0.137109
0.127018
0.109379
0.0849693
0.0543481
0.117119
0.118936
0.120827
0.124458
0.127644
0.131712
0.134407
0.136831
0.13632
0.133766
0.126296
0.114419
0.0964265
0.0719794
0.0428462
0.115689
0.117312
0.118932
0.122035
0.124632
0.127784
0.129507
0.130552
0.128745
0.124467
0.11579
0.102535
0.0843198
0.0602183
0.03248
0.114156
0.115571
0.116911
0.119462
0.12146
0.123679
0.124449
0.124153
0.121147
0.115334
0.105647
0.0914164
0.0731341
0.0497355
0.0234863
0.112518
0.11371
0.114764
0.116741
0.118135
0.119417
0.11926
0.117684
0.11358
0.106449
0.0959344
0.0810956
0.0629299
0.0404823
0.0157859
0.110773
0.111727
0.11249
0.11388
0.114666
0.11502
0.113968
0.111203
0.106102
0.0978835
0.0867159
0.0715906
0.0537245
0.0323713
0.0092507
0.108919
0.109622
0.110091
0.110886
0.111066
0.110517
0.108607
0.104764
0.098771
0.0896979
0.0780499
0.0629034
0.0455032
0.0253232
0.00378172
0.106957
0.107397
0.107568
0.107771
0.107348
0.105938
0.103213
0.0984184
0.0916447
0.0819385
0.0699823
0.0550247
0.0382345
0.0192712
-0.000703411
0.104888
0.105057
0.104928
0.104551
0.10353
0.101316
0.097825
0.0922154
0.0847786
0.074641
0.0625443
0.0479393
0.031876
0.014151
-0.00428648
0.102715
0.10261
0.102177
0.101241
0.0996341
0.0966833
0.0924853
0.086198
0.0782234
0.0678321
0.0557526
0.0416266
0.0263775
0.00989411
-0.00705207
0.100441
0.100065
0.0993251
0.0978609
0.0956853
0.0920732
0.0872365
0.080405
0.0720221
0.061531
0.04961
0.0360593
0.0216829
0.00642727
-0.00908605
0.0980743
0.0974358
0.0963849
0.0944313
0.0917117
0.0875179
0.0821211
0.0748708
0.0662088
0.0557494
0.0441073
0.0312032
0.0177317
0.00367467
-0.0104738
0.0956227
0.0947367
0.0933739
0.0909737
0.0877446
0.0830492
0.0771787
0.0696258
0.060808
0.0504912
0.0392256
0.027017
0.014461
0.00155998
-0.011299
0.0930987
0.0919857
0.0903131
0.0875114
0.0838165
0.0786987
0.0724456
0.0646957
0.055835
0.0457526
0.0349383
0.023454
0.011806
7.66627e-06
-0.0116428
0.0905176
0.0892024
0.0872273
0.0840691
0.0799609
0.074497
0.067953
0.0601013
0.0512967
0.0415224
0.0312127
0.0204636
0.00970136
-0.00105616
-0.0115829
0.0878986
0.0864088
0.084145
0.0806736
0.0762106
0.0704739
0.0637274
0.0558577
0.0471925
0.0377826
0.0280111
0.0179924
0.00808159
-0.00170307
-0.0111935
0.0852653
0.0836289
0.0810973
0.0773543
0.0725975
0.0666576
0.0597902
0.0519746
0.0435155
0.0345093
0.0252925
0.0159858
0.00688232
-0.00200183
-0.0105443
0.0826453
0.0808893
0.0781175
0.0741425
0.0691524
0.0630737
0.056158
0.0484564
0.0402536
0.0316747
0.0230134
0.014389
0.00604093
-0.00201792
-0.00970086
0.0800707
0.0782199
0.0752405
0.0710718
0.0659052
0.0597459
0.0528435
0.0453028
0.0373905
0.0292476
0.0211291
0.0131479
0.00549723
-0.0018133
-0.00872439
0.0775778
0.0756539
0.0725021
0.0681769
0.0628851
0.0566952
0.0498559
0.0425097
0.0349067
0.027195
0.0195948
0.0122097
0.0051939
-0.00144611
-0.00767173
0.0752072
0.0732286
0.0699401
0.0654939
0.0601209
0.0539411
0.0472018
0.0400705
0.0327815
0.0254837
0.018367
0.011524
0.00507698
-0.000970658
-0.00659556
0.0730037
0.0709857
0.0675939
0.0630595
0.0576417
0.0515023
0.0448866
0.0379772
0.0309934
0.024081
0.0174037
0.0110435
0.00509605
-0.000437451
-0.00554475
0.0710162
0.0689711
0.0655057
0.0609122
0.0554776
0.0493976
0.0429159
0.0362223
0.0295223
0.0229563
0.0166662
0.0107241
0.00520446
0.000106639
-0.00456487
0.0692983
0.0672357
0.063721
0.0590922
0.0536603
0.047648
0.0412974
0.0348007
0.028351
0.0220827
0.0161198
0.0105261
0.00535945
0.000618084
-0.00369889
0.0679085
0.0658353
0.06229
0.0576433
0.052225
0.046278
0.0400429
0.033712
0.0274675
0.0214383
0.0157349
0.0104144
0.00552245
0.00105649
-0.00298791
0.0669107
0.0648316
0.0612688
0.0566148
0.0512124
0.0453182
0.0391715
0.0329632
0.0268675
0.021009
0.0154888
0.0103598
0.0056593
0.00138445
-0.00247185
0.0663743
0.0642929
0.0607215
0.0560652
0.0506727
0.0448093
0.0387122
0.0325717
0.0265568
0.02079
0.0153673
0.0103396
0.00573995
0.00156591
-0.00219061
0.132013
0.135256
0.138987
0.146744
0.154458
0.166121
0.178124
0.193973
0.21079
0.231358
0.25343
0.279213
0.306633
0.337614
0.369624
0.131736
0.134962
0.138671
0.146386
0.154052
0.165647
0.177565
0.193321
0.210001
0.23042
0.252271
0.277818
0.304904
0.335518
0.367009
0.131433
0.134636
0.138325
0.145988
0.1536
0.165112
0.176925
0.192555
0.209038
0.229252
0.250779
0.275964
0.302516
0.332526
0.363139
0.131105
0.13428
0.137948
0.145552
0.153103
0.164517
0.176205
0.191678
0.207916
0.227862
0.248956
0.273655
0.299471
0.328641
0.358016
0.130753
0.133921
0.137541
0.145077
0.152561
0.163862
0.175403
0.190689
0.206633
0.226248
0.246806
0.270894
0.295774
0.32387
0.351645
0.130375
0.13351
0.137105
0.144565
0.151975
0.163147
0.174522
0.189591
0.205192
0.224415
0.244331
0.267686
0.291432
0.318221
0.344036
0.129972
0.133072
0.136641
0.144016
0.151345
0.162374
0.173562
0.188384
0.203596
0.222366
0.241538
0.26404
0.286452
0.311708
0.335205
0.129545
0.13261
0.136148
0.143431
0.150673
0.161543
0.172526
0.18707
0.201848
0.220104
0.238432
0.259963
0.280844
0.304346
0.325172
0.129094
0.132122
0.135629
0.142811
0.149959
0.160657
0.171417
0.185652
0.199953
0.217633
0.23502
0.255465
0.27462
0.296152
0.313964
0.12862
0.131609
0.135082
0.142157
0.149206
0.159717
0.170237
0.184133
0.197916
0.214959
0.23131
0.250556
0.267792
0.287149
0.301611
0.128123
0.131071
0.134509
0.141472
0.148413
0.158724
0.168987
0.182513
0.19574
0.212084
0.22731
0.245245
0.260373
0.277361
0.288149
0.127604
0.13051
0.133911
0.140755
0.147584
0.15768
0.167671
0.180798
0.193431
0.209013
0.22303
0.239543
0.252379
0.266815
0.273617
0.127064
0.129925
0.133288
0.140009
0.146718
0.156588
0.166291
0.178988
0.190994
0.205752
0.21848
0.233459
0.243828
0.25554
0.258057
0.126503
0.129315
0.13264
0.139234
0.145817
0.155449
0.16485
0.177088
0.188434
0.202304
0.213671
0.227003
0.23474
0.24357
0.241514
0.125923
0.128711
0.131969
0.138433
0.144884
0.154266
0.163349
0.175102
0.185756
0.198676
0.208615
0.220185
0.225138
0.230938
0.224025
0.125323
0.128062
0.131275
0.137606
0.143917
0.15304
0.161791
0.173032
0.182962
0.194872
0.203323
0.213011
0.21505
0.217679
0.205623
0.124703
0.127394
0.130561
0.136754
0.14292
0.151772
0.160177
0.170879
0.180056
0.190895
0.197804
0.205491
0.204515
0.203831
0.18634
0.124065
0.126713
0.129831
0.135886
0.141903
0.150479
0.158525
0.168669
0.177065
0.18678
0.192094
0.197656
0.193588
0.189435
0.166163
0.123414
0.126017
0.129085
0.135006
0.140874
0.149176
0.156859
0.166435
0.174019
0.182559
0.186199
0.189493
0.182227
0.1744
0.144816
0.122738
0.125289
0.128288
0.134044
0.139728
0.147706
0.15497
0.163898
0.170594
0.177847
0.179747
0.180641
0.170308
0.158361
0.121719
)
;

boundaryField
{
    inlet
    {
        type            zeroGradient;
    }
    outlet
    {
        type            fixedValue;
        value           nonuniform 0();
    }
    cylinder
    {
        type            zeroGradient;
    }
    top
    {
        type            symmetryPlane;
    }
    bottom
    {
        type            symmetryPlane;
    }
    defaultFaces
    {
        type            empty;
    }
    procBoundary2to0
    {
        type            processor;
        value           nonuniform List<scalar> 
26
(
0.647706
0.625196
0.609727
0.609727
0.589564
0.562047
0.531397
0.4992
0.466654
0.434618
0.403665
0.132264
0.13552
0.139271
0.147061
0.154813
0.166526
0.178585
0.194493
0.211378
0.232036
0.254226
0.280117
0.30767
0.338776
0.370948
)
;
    }
    procBoundary2to3
    {
        type            processor;
        value           nonuniform List<scalar> 
50
(
-0.564862
-0.565513
-0.565513
-0.565435
-0.572536
-0.572536
-0.571139
-0.571139
-0.566703
-0.566703
-0.552066
-0.531956
-0.531956
-0.499501
-0.499501
-0.458061
-0.458061
-0.422801
-0.383268
-0.383268
-0.357983
-0.333339
-0.31001
-0.287741
-0.266419
-0.246116
-0.226884
-0.208714
-0.191593
-0.17551
-0.160444
-0.14637
-0.13326
-0.121083
-0.121083
-0.112121
-0.101449
-0.0916441
-0.0826732
-0.074504
-0.0671063
-0.0604528
-0.0545199
-0.0492888
-0.0447467
-0.0408896
-0.0377199
-0.0352615
-0.0335405
-0.03262
)
;
    }
}


// ************************************************************************* //
