/*--------------------------------*- C++ -*----------------------------------*\
  =========                 |
  \\      /  F ield         | OpenFOAM: The Open Source CFD Toolbox
   \\    /   O peration     | Website:  https://openfoam.org
    \\  /    A nd           | Version:  7
     \\/     M anipulation  |
\*---------------------------------------------------------------------------*/
FoamFile
{
    version     2.0;
    format      ascii;
    class       surfaceScalarField;
    location    "280";
    object      phi;
}
// * * * * * * * * * * * * * * * * * * * * * * * * * * * * * * * * * * * * * //

dimensions      [0 3 -1 0 0 0 0];

internalField   nonuniform List<scalar> 
4148
(
0.083313
0.0236888
0.0234416
0.0739262
0.0815834
0.0251713
0.0218729
0.0617389
0.0245109
0.0712883
0.0795179
0.0265764
0.0139668
0.0332652
0.0184139
0.0459472
0.0222795
0.0578734
0.0254029
0.0681649
0.0770496
0.0278711
0.00864879
0.0175813
0.0132266
0.0286874
0.018018
0.0411558
0.0223985
0.0534929
0.0260625
0.0645009
0.0741004
0.0290117
0.00427514
0.00673985
0.00774906
0.0141074
0.0122713
0.0241652
0.0173099
0.0361171
0.0221803
0.0486226
0.0264261
0.0602551
0.0705829
0.0299435
0.00163322
0.000993858
0.00363073
0.00474235
0.00679074
0.0109474
0.0111349
0.019821
0.01629
0.030962
0.0215835
0.0433291
0.0264249
0.0554137
0.0664106
0.0305972
0.00129726
0.000106525
0.00300186
0.00303775
0.00580824
0.008141
0.00986433
0.0157649
0.0149821
0.0258442
0.0205839
0.0377273
0.0259906
0.050007
0.0615021
0.0308991
0.000278331
-0.00132247
0.000980171
-0.000595316
0.00239943
0.0016185
0.00483267
0.00570775
0.00851464
0.012083
0.0134351
0.0209237
0.019186
0.0319764
0.0250659
0.0441271
0.0558081
0.0307599
-4.67995e-06
-0.000842941
0.000155704
-0.00148285
0.000685191
-0.0011248
0.00183332
0.000470368
0.00389139
0.00364968
0.00714246
0.00883191
0.0117199
0.0163463
0.0174297
0.0262666
0.0236246
0.0379323
0.0493138
0.0301189
-3.22384e-05
-0.000810703
4.41765e-05
-0.00155927
0.000416823
-0.00149745
0.0013138
-0.000426605
0.00300907
0.00195441
0.00580189
0.0060391
0.00992213
0.012226
0.0154017
0.020787
0.0216489
0.031685
0.0419799
0.0289829
-5.65343e-05
-0.000754168
-5.37938e-05
-0.00156201
0.000180642
-0.00173189
0.00085191
-0.00109787
0.00220892
0.000597399
0.00454297
0.00370505
0.00813549
0.00863349
0.0131993
0.0157232
0.0192511
0.0256332
0.0339848
0.0272461
-7.66822e-05
-0.000677486
-0.000135365
-0.00150332
-1.72212e-05
-0.00185003
0.000458597
-0.00157369
0.00151243
-0.000456436
0.00341128
0.0018062
0.00645147
0.0055933
0.0109324
0.0112423
0.0167428
0.0198229
0.0286634
0.0220642
-9.16842e-05
-0.000585802
-0.000197787
-0.00139722
-0.000172857
-0.00187496
0.000142553
-0.0018891
0.000937263
-0.00125115
0.00244504
0.000298428
0.004947
0.00309134
0.00874001
0.00744927
0.0140641
0.0144988
0.0232735
0.0194539
-0.000100998
-0.000484804
-0.000239955
-0.00125826
-0.000283443
-0.00183147
-9.19954e-05
-0.00208055
0.000493425
-0.00183657
0.00166996
-0.000878103
0.00368394
0.00107735
0.00680371
0.0043295
0.0114829
0.00981966
0.0179835
0.0167729
-0.00010468
-0.000380124
-0.000262524
-0.00110042
-0.000351008
-0.00174299
-0.000247982
-0.00218357
0.000179731
-0.00226428
0.00109331
-0.00179168
0.00269662
-0.00052596
0.00522242
0.0018037
0.00916014
0.00588194
0.012993
0.0141507
-0.000103422
-0.000276702
-0.000268077
-0.000935766
-0.000381238
-0.00162983
-0.00033489
-0.00222992
-1.67609e-05
-0.00258241
0.000700852
-0.00250929
0.00198269
-0.0018078
0.00402415
-0.000237762
0.00724676
0.00265933
0.0084476
0.0117921
-9.84586e-05
-0.000178243
-0.00026082
-0.000773405
-0.000383228
-0.00150742
-0.000369152
-0.002244
-0.000123451
-0.00282811
0.000458482
-0.00309123
0.00150588
-0.0028552
0.00318211
-0.00191399
0.00581252
2.89213e-05
0.00440076
0.00985937
-9.13622e-05
-8.68812e-05
-0.000245965
-0.000618802
-0.000368102
-0.00138528
-0.000370537
-0.00224156
-0.000170571
-0.00302808
0.00031876
-0.00358056
0.00120281
-0.00373926
0.00262033
-0.00333151
0.00482017
-0.00217092
0.000828016
0.00839291
-8.37971e-05
-3.08413e-06
-0.000228978
-0.000473622
-0.000347441
-0.00126682
-0.000359812
-0.00222919
-0.000192837
-0.00319505
0.000228917
-0.00400231
0.000996112
-0.00450645
0.00223319
-0.00456858
0.00413972
-0.00407746
-0.00233014
0.00729788
-7.72962e-05
7.42121e-05
-0.000214864
-0.000336054
-0.000331787
-0.0011499
-0.000355751
-0.00220523
-0.00022102
-0.00332978
0.000139958
-0.00436329
0.000809974
-0.00517647
0.00190637
-0.00566498
0.00360317
-0.00577426
-0.00512572
0.00639874
-7.30645e-05
0.000147277
-0.000207631
-0.000201487
-0.000329508
-0.00102802
-0.000373099
-0.00216164
-0.000279298
-0.00342358
1.36659e-05
-0.00465625
0.000583761
-0.00574656
0.00154507
-0.00662628
0.00305741
-0.00728661
-0.00758403
0.00551573
-7.1916e-05
0.000219192
-0.000209972
-6.34312e-05
-0.000346155
-0.000891836
-0.000421405
-0.00208639
-0.000382929
-0.00346206
-0.000174007
-0.00486517
0.000279073
-0.00619964
0.00108775
-0.00743496
0.0023999
-0.00859875
-0.00970313
0.004519
-7.42206e-05
0.000293413
-0.000223145
8.54927e-05
-0.00038426
-0.00073072
-0.0005048
-0.00196585
-0.00053818
-0.00342868
-0.000432811
-0.00497054
-0.000116587
-0.00651587
0.000508742
-0.00806029
0.00158626
-0.00967627
-0.0114621
0.00334519
-7.9923e-05
0.000373336
-0.000247026
0.000252595
-0.000443479
-0.000534267
-0.000622378
-0.00178695
-0.000743122
-0.00330793
-0.000759708
-0.00495396
-0.000607772
-0.0066678
-0.000193473
-0.00847459
0.000623623
-0.0104934
-0.0128261
0.00198763
-8.85901e-05
0.000461926
-0.000280262
0.000444267
-0.000520962
-0.000293566
-0.000768984
-0.00153893
-0.000989265
-0.00308765
-0.00114137
-0.00480186
-0.00116697
-0.00664219
-0.000977341
-0.00866422
-0.000456209
-0.0110145
-0.0137472
0.000464938
-9.94752e-05
0.000561401
-0.000320486
0.000665278
-0.000611858
-2.19454e-06
-0.000936225
-0.00121456
-0.0012634
-0.00276048
-0.00155838
-0.00450687
-0.00176991
-0.00643067
-0.00182316
-0.00861097
-0.00163719
-0.0112005
-0.014289
-0.00109539
-0.000111591
0.000672993
-0.000364577
0.000918263
-0.000709871
0.000343099
-0.00111349
-0.000810942
-0.00154927
-0.00232469
-0.00198735
-0.0040688
-0.00238424
-0.00603377
-0.00267968
-0.00831553
-0.00280894
-0.0110712
-0.0144421
-0.00265584
-0.000123791
0.000796784
-0.000408918
0.00120339
-0.000807826
0.000742008
-0.00128894
-0.000329823
-0.00182918
-0.00178446
-0.00240323
-0.00349475
-0.00297564
-0.00546137
-0.00350035
-0.00779083
-0.00392821
-0.0106434
-0.0142
-0.00417034
-0.000134851
0.000931634
-0.000449682
0.00151822
-0.000898234
0.00119056
-0.00145046
0.000222406
-0.00208531
-0.00114962
-0.00278128
-0.00279877
-0.00351049
-0.00473216
-0.00424017
-0.00706114
-0.00493716
-0.00994636
-0.0135918
-0.00554534
-0.000143561
0.0010752
-0.000483097
0.00185776
-0.000973799
0.00168126
-0.00158643
0.000835035
-0.00230089
-0.000435151
-0.00309845
-0.00200122
-0.00395759
-0.00387302
-0.00485691
-0.00616182
-0.00577821
-0.00902507
-0.012673
-0.00669698
-0.00014881
-0.000505707
-0.00102789
-0.00168642
-0.00246112
-0.00333461
-0.00428983
-0.00531368
-0.00640011
-0.0075514
0.207344
-0.00109941
0.208535
-0.00119031
0.209814
-0.00127955
0.211181
-0.00136698
0.212634
-0.00145243
0.21417
-0.00153576
0.215786
-0.00161681
0.217482
-0.00169542
0.219253
-0.0017715
0.221098
-0.00184475
-0.00191599
0.223014
0.197922
-0.0021547
0.199064
-0.00233223
0.200291
-0.00250654
0.201601
-0.00267731
0.202993
-0.00284425
0.204464
-0.00300706
0.206013
-0.00316546
0.207637
-0.00331912
0.209333
-0.00346789
0.2111
-0.00361116
-0.00375056
0.212934
0.189126
-0.00317307
0.190227
-0.00343348
0.19141
-0.00368919
0.192672
-0.00393977
0.194013
-0.00418478
0.195429
-0.00442378
0.19692
-0.00465638
0.198483
-0.00488209
0.200116
-0.00510072
0.201816
-0.00531132
-0.00551654
0.203582
0.18089
-0.00416097
0.181957
-0.00450088
0.183103
-0.00483473
0.184325
-0.00516195
0.185622
-0.00548197
0.186993
-0.00579424
0.188434
-0.00609825
0.189946
-0.00639337
0.191524
-0.00667937
0.193168
-0.00695494
-0.00722396
0.194875
0.173155
-0.00512358
0.174194
-0.00553996
0.175308
-0.00594901
0.176496
-0.00635003
0.177757
-0.00674236
0.179088
-0.00712531
0.180488
-0.00749829
0.181955
-0.0078605
0.183487
-0.00821174
0.185083
-0.00855021
-0.00888145
0.18674
0.165871
-0.00606535
0.166886
-0.00655544
0.167974
-0.00703704
0.169134
-0.00750933
0.170363
-0.00797154
0.17166
-0.00842288
0.173025
-0.00886267
0.174454
-0.00928995
0.175947
-0.00970457
0.177501
-0.0101042
-0.0104964
0.179116
0.158994
-0.00699002
0.15999
-0.00755132
0.161056
-0.00810305
0.162191
-0.00864432
0.163394
-0.00917424
0.164663
-0.00969192
0.165997
-0.0101966
0.167394
-0.0106872
0.168853
-0.0111636
0.170372
-0.0116228
-0.0120751
0.171951
0.152489
-0.00790075
0.153468
-0.00853094
0.154516
-0.00915062
0.15563
-0.00975877
0.15681
-0.0103545
0.158055
-0.0109366
0.159363
-0.0115046
0.160733
-0.0120569
0.162163
-0.0125937
0.163651
-0.0131112
-0.0136228
0.165199
0.146321
-0.00880013
0.147287
-0.0094971
0.148319
-0.0101827
0.149416
-0.0108559
0.150577
-0.0115155
0.151801
-0.0121606
0.153087
-0.0127902
0.154433
-0.0134029
0.155838
-0.013999
0.1573
-0.0145736
-0.0151442
0.158822
0.140462
-0.00969033
0.141417
-0.0104521
0.142436
-0.0112018
0.143518
-0.0119381
0.144663
-0.0126602
0.145869
-0.0133666
0.147136
-0.0140567
0.148461
-0.0147285
0.149845
-0.0153828
0.151285
-0.0160135
-0.016643
0.152784
0.134888
-0.010573
0.135834
-0.0113977
0.136842
-0.0122097
0.137911
-0.0130077
0.139042
-0.0137906
0.140232
-0.0145571
0.141482
-0.0153063
0.142789
-0.0160362
0.144154
-0.0167479
0.145575
-0.0174338
-0.0181222
0.147054
0.1287
-0.0105517
0.129576
-0.0114494
0.130514
-0.0123353
0.131512
-0.013208
0.132571
-0.0140661
0.133688
-0.0149085
0.134865
-0.0157337
0.1361
-0.016541
0.137391
-0.0173279
0.13874
-0.0180961
0.140142
-0.0188365
-0.0195838
0.141604
0.123636
-0.011363
0.124507
-0.0123205
0.125438
-0.0132659
0.126428
-0.0141976
0.127476
-0.0151144
0.128582
-0.0160149
0.129746
-0.0168976
0.130967
-0.0177619
0.132244
-0.0186049
0.133577
-0.019429
0.134963
-0.0202229
-0.0210295
0.136409
0.118798
-0.0121712
0.119664
-0.0131868
0.120588
-0.01419
0.12157
-0.0151792
0.122609
-0.0161531
0.123704
-0.0171105
0.124856
-0.0180495
0.126064
-0.0189698
0.127327
-0.0198679
0.128645
-0.0207471
0.130016
-0.0215938
-0.0224598
0.131446
0.11417
-0.0129765
0.115032
-0.0140484
0.115949
-0.0151076
0.116923
-0.0161529
0.117952
-0.0171825
0.119037
-0.0181954
0.120177
-0.0191895
0.121372
-0.0201647
0.122621
-0.0211169
0.123925
-0.0220505
0.12528
-0.0229492
-0.0238745
0.126695
0.10974
-0.0137786
0.110596
-0.014905
0.111507
-0.0160187
0.112473
-0.0171183
0.113492
-0.0182022
0.114566
-0.0192692
0.115694
-0.0203171
0.116875
-0.0213462
0.11811
-0.0223514
0.119398
-0.0233386
0.120737
-0.0242884
-0.0252729
0.122135
0.105495
-0.014577
0.106346
-0.0157561
0.10725
-0.0169225
0.108206
-0.0180749
0.109215
-0.0192114
0.110277
-0.0203311
0.111392
-0.0214315
0.112559
-0.0225131
0.113778
-0.0235703
0.115049
-0.0246101
0.116371
-0.02561
-0.0266535
0.117751
0.101425
-0.0153709
0.10227
-0.0166007
0.103165
-0.017818
0.104112
-0.0190213
0.10511
-0.020209
0.106158
-0.0213799
0.107258
-0.0225314
0.108409
-0.0236643
0.109611
-0.0247722
0.110865
-0.0258634
0.112167
-0.0269124
-0.0280143
0.113528
0.0975224
-0.0161592
0.0983595
-0.0174377
0.0992455
-0.018704
0.100181
-0.0199564
0.101165
-0.0211934
0.102199
-0.0224137
0.103282
-0.0236149
0.104416
-0.0247978
0.105599
-0.0259555
0.106833
-0.0270969
0.108114
-0.0281942
-0.0293529
0.109453
0.0937773
-0.0169406
0.0946054
-0.0182658
0.0954806
-0.0195792
0.096403
-0.0208789
0.0973733
-0.0221637
0.0983909
-0.0234313
0.0994568
-0.0246808
0.10057
-0.0259114
0.101733
-0.0271181
0.102944
-0.0283079
0.104203
-0.0294534
-0.0306659
0.105516
0.0901844
-0.0177138
0.0910018
-0.0190832
0.0918643
-0.0204417
0.092772
-0.0217866
0.0937262
-0.0231179
0.0947263
-0.0244314
0.0957744
-0.0257289
0.0968675
-0.0270044
0.0980091
-0.0282598
0.099194
-0.0294928
0.100427
-0.0306866
-0.0319448
0.101706
0.0867386
-0.0184778
0.0875448
-0.0198894
0.088394
-0.0212909
0.0892858
-0.0226784
0.0902222
-0.0240542
0.0912013
-0.0254106
0.0922282
-0.0267558
0.0932966
-0.0280729
0.0944152
-0.0293783
0.0955674
-0.030645
0.0967675
-0.0318868
-0.0331689
0.0979916
0.0834353
-0.0192314
0.0842293
-0.0206835
0.085065
-0.0221266
0.0859417
-0.0235551
0.0868611
-0.0249736
0.0878188
-0.0263683
0.0888205
-0.0277574
0.0898537
-0.0291061
0.0909355
-0.0304601
0.0920326
-0.0317421
0.0931776
-0.0330318
-0.0342923
0.094301
0.0802745
-0.0199732
0.081054
-0.0214631
0.0818722
-0.0229448
0.0827291
-0.0244119
0.0836262
-0.0258707
0.0845581
-0.0273003
0.0855291
-0.0287284
0.0865164
-0.0300934
0.0875401
-0.0314838
0.0885393
-0.0327413
0.089577
-0.0340695
-0.0352291
0.0905138
0.0772579
-0.0207029
0.0780212
-0.0222263
0.0788169
-0.0237405
0.0796439
-0.0252389
0.0805004
-0.0267273
0.0813819
-0.0281817
0.0822891
-0.0296357
0.0831968
-0.031001
0.08412
-0.032407
0.0849635
-0.0335848
0.0858109
-0.0349169
-0.0358415
0.0864233
0.0743749
-0.0214153
0.0751153
-0.0229667
0.0758804
-0.0245056
0.0766663
-0.0260249
0.077464
-0.027525
0.0782648
-0.0289825
0.0790541
-0.0304249
0.0798088
-0.0317558
0.080526
-0.0331242
0.0811037
-0.0341625
0.0816189
-0.0354321
-0.0359333
0.0817107
0.071596
-0.0220943
0.0722925
-0.0236632
0.0730017
-0.0252147
0.0737174
-0.0267406
0.074425
-0.0282326
0.0751102
-0.0296678
0.0757344
-0.0310491
0.0762675
-0.0322889
0.0766473
-0.033504
0.0767947
-0.0343099
0.0767285
-0.0353659
-0.0352651
0.0760603
0.0688846
-0.0227156
0.0695055
-0.0242842
0.0701168
-0.025826
0.0707058
-0.0273297
0.0712509
-0.0287777
0.0717286
-0.0301455
0.0720854
-0.0314058
0.072284
-0.0324876
0.0721951
-0.0334151
0.0717645
-0.0338793
0.0708344
-0.0344358
-0.0336119
0.0691812
0.0661968
-0.0232556
0.0667113
-0.0247987
0.0671819
-0.0262966
0.0675816
-0.0277294
0.0678725
-0.0290685
0.0680059
-0.0302789
0.0679101
-0.03131
0.0675245
-0.0321021
0.0667057
-0.0325963
0.0654496
-0.0326231
0.0634144
-0.0324006
-0.0308737
0.0606762
0.0634966
0.0638691
0.064149
0.0642907
0.0642339
0.0638986
0.0631858
0.0619829
0.0601465
0.0576422
0.0542245
0.050597
0.223234
-0.000219614
0.223316
-8.19689e-05
0.223239
7.67831e-05
0.222982
0.000256594
0.222525
0.00045752
0.221864
0.000660161
0.220973
0.000891607
0.219903
0.00106952
0.218601
0.00130244
0.217247
0.00135435
0.215717
0.00152945
0.214408
0.00130881
0.213086
0.00132232
0.212339
0.000747134
0.211938
0.000401187
0.212191
-0.000252831
0.213373
-0.00118272
0.214484
-0.00111104
0.216353
-0.00186873
0.216622
-0.000268964
0.216398
0.000223928
0.21398
0.00241807
0.210877
0.00310295
0.206582
0.00429465
0.200802
0.00578068
0.202226
-0.00142477
0.204779
-0.00255287
0.213185
-0.00840549
0.223624
-0.0104396
-0.00291203
0.21315
-0.00043589
0.213231
-0.000162492
0.213155
0.00015235
0.212902
0.000510136
0.21245
0.000909417
0.211795
0.00131474
0.210912
0.00177543
0.209847
0.00213421
0.208551
0.00259818
0.207197
0.00270807
0.205669
0.0030574
0.204355
0.00262279
0.203026
0.00265152
0.202276
0.00149779
0.201873
0.000804178
0.202144
-0.000524277
0.203401
-0.00244003
0.204617
-0.00232643
0.206584
-0.00383574
0.206955
-0.000640663
0.206738
0.000441038
0.204328
0.0048282
0.201288
0.00614288
0.196878
0.00870496
0.190889
0.0117696
0.192277
-0.00281269
0.19479
-0.00506613
0.203301
-0.0169162
0.213752
-0.0208902
-0.00567743
0.203802
-0.000655837
0.203885
-0.000245515
0.203809
0.000228205
0.203552
0.000767485
0.203092
0.00136937
0.202423
0.001984
0.201518
0.00268056
0.200422
0.00323033
0.199086
0.00393344
0.197683
0.00411174
0.196098
0.00464228
0.194724
0.00399651
0.193332
0.00404347
0.192543
0.0022868
0.192121
0.00122644
0.19243
-0.000832927
0.193874
-0.00388434
0.195325
-0.00377721
0.197536
-0.00604742
0.198111
-0.001215
0.197878
0.000673612
0.195397
0.00730909
0.19235
0.00919009
0.187604
0.0134508
0.181014
0.01836
0.182309
-0.00410823
0.184874
-0.00763075
0.1939
-0.0259418
0.204769
-0.0317596
-0.00829882
0.195105
-0.000885282
0.195193
-0.000333702
0.195116
0.000305195
0.19485
0.00103314
0.194373
0.00184725
0.193674
0.00268276
0.192725
0.00362909
0.19157
0.00438557
0.190159
0.00534416
0.188665
0.00560575
0.186977
0.00633023
0.185496
0.00547757
0.183996
0.00554362
0.183132
0.00315121
0.182669
0.00168906
0.183015
-0.00117865
0.184751
-0.0056206
0.186555
-0.00558156
0.189143
-0.00863545
0.190007
-0.00207825
0.189729
0.000951642
0.187121
0.00991697
0.184005
0.0123057
0.178771
0.0186846
0.171254
0.0258772
0.172246
-0.00510045
0.174989
-0.0103738
0.184866
-0.0358184
0.196461
-0.0433545
-0.0108116
0.186984
-0.00112935
0.187081
-0.000430463
0.187003
0.000382865
0.186727
0.00130937
0.186225
0.00234974
0.185486
0.00342136
0.184477
0.00463798
0.183242
0.00562083
0.181727
0.00685925
0.18011
0.00722265
0.178282
0.00815831
0.176651
0.00710845
0.175005
0.00718981
0.174025
0.00413043
0.173494
0.00222048
0.17386
-0.0015445
0.175992
-0.0077525
0.178264
-0.00785372
0.18135
-0.0117214
0.182584
-0.0033129
0.182218
0.00131812
0.179446
0.0126895
0.176194
0.0155575
0.170423
0.0244554
0.161697
0.034603
0.161949
-0.00535232
0.164923
-0.013348
0.175844
-0.0467396
0.188495
-0.0560049
-0.0133474
0.179379
-0.001393
0.179488
-0.000539222
0.179411
0.000459767
0.179124
0.00159685
0.178593
0.00288089
0.177807
0.00420675
0.176725
0.00571986
0.175394
0.00695198
0.173752
0.00850182
0.171986
0.00898866
0.169988
0.0101563
0.168168
0.00892769
0.166345
0.00901349
0.165209
0.00526666
0.164568
0.00286092
0.16492
-0.00189658
0.167551
-0.0103829
0.170415
-0.0107179
0.17412
-0.015426
0.17579
-0.00498305
0.175291
0.00181643
0.172322
0.0156591
0.168853
0.0190262
0.162633
0.0306753
0.152463
0.0447734
0.151273
-0.00416226
0.15422
-0.0162955
0.166113
-0.0586324
0.180319
-0.0702112
-0.0162362
0.172238
-0.00168078
0.172363
-0.000663568
0.172289
0.00053356
0.171991
0.00189484
0.17143
0.00344223
0.170593
0.00504313
0.169429
0.0068836
0.167991
0.0083909
0.166202
0.0102901
0.164266
0.0109248
0.162074
0.012348
0.160033
0.0109687
0.158005
0.0110421
0.15667
0.00660139
0.155862
0.00366847
0.156151
-0.002185
0.159378
-0.0136104
0.162981
-0.0143206
0.16742
-0.0198651
0.169578
-0.00714134
0.16891
0.00248522
0.165695
0.0188739
0.161924
0.0227968
0.155473
0.0371271
0.143721
0.0565255
0.140235
-0.000676557
0.142409
-0.0184701
0.154791
-0.0710138
0.171235
-0.086655
-0.020047
0.165515
-0.00199704
0.165659
-0.000806936
0.165591
0.000601027
0.165285
0.00220143
0.164694
0.00403293
0.163805
0.00593246
0.162554
0.00813456
0.160998
0.00994645
0.15905
0.0122381
0.156928
0.0130471
0.154523
0.0147522
0.152232
0.0132598
0.149976
0.013298
0.148405
0.00817289
0.14735
0.00472306
0.147506
-0.00234102
0.151421
-0.0175255
0.155942
-0.0188411
0.161234
-0.0251571
0.163906
-0.00981391
0.163039
0.0033523
0.159498
0.0224155
0.155366
0.0269283
0.148953
0.04354
0.13567
0.0698086
0.129248
0.00574604
0.12962
-0.0188428
0.1416
-0.0829936
0.160806
-0.10586
-0.0254164
0.15917
-0.00234564
0.159336
-0.000972756
0.159279
0.000658261
0.158967
0.0025136
0.15835
0.00465006
0.157407
0.00687489
0.156067
0.00947498
0.154388
0.0116252
0.15227
0.0143565
0.149949
0.0153675
0.147318
0.0173834
0.144756
0.0158221
0.142255
0.0157993
0.140418
0.0100098
0.139007
0.00613352
0.138944
-0.00227749
0.143624
-0.0222054
0.149276
-0.0244931
0.155549
-0.0314306
0.158739
-0.013004
0.157639
0.00445219
0.153659
0.0263963
0.149174
0.031413
0.14298
0.0497335
0.128485
0.0843043
0.11912
0.0151104
0.116949
-0.0166717
0.127476
-0.0935203
0.149302
-0.127687
-0.0327024
0.153168
-0.00272968
0.15336
-0.00116452
0.153317
0.000700935
0.153003
0.00282716
0.152365
0.00528876
0.151371
0.00786889
0.149941
0.0109043
0.148134
0.0134324
0.145838
0.0166521
0.143312
0.0178941
0.140444
0.0202515
0.137596
0.0186696
0.134838
0.0185572
0.132722
0.0121258
0.130816
0.00804016
0.130426
-0.00188767
0.135925
-0.0277047
0.142949
-0.0315166
0.150357
-0.0388392
0.154049
-0.0166953
0.152652
0.00584907
0.148123
0.0309249
0.14335
0.0361861
0.137408
0.0556754
0.122269
0.0994438
0.110673
0.0267065
0.105864
-0.0118632
0.114058
-0.101714
0.137558
-0.151187
-0.0417926
0.147476
-0.00315149
0.147696
-0.00138528
0.147673
0.000724196
0.147364
0.0031367
0.14671
0.00594239
0.145667
0.00891139
0.144152
0.0124196
0.142212
0.015372
0.139735
0.0191292
0.136996
0.0206333
0.133888
0.02336
0.130745
0.0218124
0.127731
0.0215705
0.125342
0.0145157
0.122766
0.0106156
0.121933
-0.00105412
0.128244
-0.034016
0.13688
-0.040153
0.145646
-0.0476046
0.149788
-0.0208374
0.148003
0.00763437
0.142867
0.0360602
0.137873
0.0411799
0.132106
0.061443
0.116957
0.114592
0.104256
0.039408
0.0972043
-0.0048118
0.102573
-0.107083
0.126381
-0.174996
-0.0522259
0.142065
-0.00361239
0.142317
-0.00163779
0.142319
0.000722832
0.14202
0.00343556
0.14136
0.00660265
0.140273
0.00999771
0.138677
0.0140163
0.136601
0.0174476
0.133941
0.0217895
0.130984
0.0235904
0.127638
0.0267056
0.124191
0.0252594
0.120943
0.0248187
0.118296
0.0171628
0.11488
0.014031
0.11347
0.000356288
0.120422
-0.0409678
0.130861
-0.0505919
0.141303
-0.0580466
0.145866
-0.0254006
0.143609
0.00989173
0.137877
0.0417915
0.132686
0.0463714
0.127002
0.0671266
0.112375
0.12922
0.0995295
0.0522533
0.0909104
0.00380728
0.0933875
-0.10956
0.116219
-0.197827
-0.0634284
0.136909
-0.00411224
0.137196
-0.00192482
0.137227
0.000691449
0.136947
0.00371562
0.13629
0.00725975
0.135166
0.0111215
0.133494
0.0156884
0.13128
0.019662
0.128435
0.0246342
0.125257
0.0267691
0.121682
0.0302807
0.117923
0.0290175
0.114482
0.0282598
0.111593
0.0200522
0.107239
0.0183853
0.105098
0.00249727
0.112146
-0.0480158
0.124389
-0.0628355
0.136973
-0.0706301
0.142069
-0.0304965
0.139368
0.0125923
0.133122
0.0480372
0.127704
0.0517896
0.122056
0.0727749
0.108304
0.142972
0.0959457
0.0646112
0.0864708
0.0132822
0.0863299
-0.109419
0.10723
-0.218727
-0.0748524
0.131984
-0.0046498
0.132307
-0.00224813
0.132375
0.000623865
0.132123
0.0039674
0.13148
0.00790248
0.130327
0.0122745
0.128586
0.0174299
0.126231
0.0220165
0.1232
0.0276652
0.1198
0.0301696
0.116001
0.0340789
0.111936
0.0330828
0.108352
0.0318439
0.105218
0.0231863
0.100029
0.0235742
0.0969413
0.00558503
0.102992
-0.0540669
0.116607
-0.0764498
0.131897
-0.0859207
0.137997
-0.0365965
0.135128
0.0154614
0.128537
0.0546284
0.122858
0.0574687
0.117229
0.0784034
0.104554
0.155647
0.0930259
0.0761397
0.0833257
0.0229824
0.0810216
-0.107115
0.0994119
-0.237117
-0.0860375
0.127267
-0.00522226
0.127628
-0.002609
0.127739
0.000513244
0.127526
0.00418002
0.12691
0.00851828
0.125738
0.0134464
0.123934
0.0192344
0.121438
0.0245123
0.118217
0.0308858
0.114597
0.0337899
0.110576
0.0381002
0.106231
0.0374275
0.102533
0.035542
0.0991429
0.0265765
0.09347
0.0292471
0.0892425
0.00981243
0.0928185
-0.0576428
0.106728
-0.0903596
0.125113
-0.104305
0.133097
-0.0445811
0.130663
0.0178953
0.124019
0.0612732
0.118097
0.0633901
0.112492
0.0840083
0.100977
0.167163
0.0904355
0.0866808
0.0809803
0.0324375
0.0770328
-0.103167
0.0926658
-0.25275
-0.0966394
0.122738
-0.00582503
0.123138
-0.0030085
0.123299
0.000352212
0.123138
0.00434092
0.122563
0.00909341
0.121385
0.0146244
0.119523
0.0210959
0.116885
0.0271509
0.113471
0.0342992
0.109633
0.0376279
0.105384
0.0423498
0.100814
0.041997
0.0969879
0.0393681
0.093353
0.0302114
0.0876639
0.0349363
0.0823111
0.0151652
0.0823195
-0.0576512
0.0950152
-0.103055
0.116163
-0.125453
0.126913
-0.0553311
0.125725
0.0190835
0.119445
0.0675532
0.113383
0.0694516
0.107834
0.0895569
0.0974725
0.177525
0.0879611
0.0961922
0.0790265
0.0413721
0.0739605
-0.0981014
0.0868426
-0.265632
-0.106435
0.118378
-0.00645207
0.118817
-0.00344684
0.119037
0.000131984
0.118941
0.00443636
0.118421
0.00961325
0.117253
0.0157932
0.11534
0.023009
0.112556
0.029935
0.108948
0.0379068
0.104889
0.0416868
0.100411
0.0468277
0.0956799
0.0467282
0.0916764
0.0433716
0.0878613
0.0340265
0.0825202
0.0402774
0.0763769
0.0213085
0.0729802
-0.0542544
0.0832101
-0.113285
0.105728
-0.147971
0.119436
-0.069039
0.120163
0.0183564
0.11471
0.0730063
0.108687
0.0754749
0.103255
0.0949884
0.093985
0.186795
0.0854831
0.104694
0.0772221
0.0496331
0.0714793
-0.0923586
0.0817865
-0.275939
-0.115307
0.114171
-0.00709502
0.114649
-0.00392474
0.114937
-0.000156841
0.114922
0.00445152
0.114473
0.0100621
0.113332
0.0169341
0.111371
0.02497
0.108438
0.0328685
0.104635
0.0417096
0.100345
0.045977
0.095654
0.0515186
0.0908033
0.0515789
0.0865815
0.0475934
0.0826921
0.037916
0.0778184
0.0451511
0.0714772
0.0276497
0.0660892
-0.0488664
0.0734344
-0.12063
0.0952579
-0.169794
0.111133
-0.0849142
0.114017
0.0154729
0.109764
0.0772588
0.103991
0.0812485
0.0987547
0.100224
0.0904889
0.195061
0.0829385
0.112244
0.0754249
0.0571467
0.0693492
-0.0862829
0.0773545
-0.283944
-0.123216
0.110102
-0.00774361
0.11062
-0.00444275
0.110988
-0.000525123
0.111067
0.004372
0.110707
0.0104228
0.109615
0.0180259
0.107607
0.0269776
0.10452
0.0359557
0.100519
0.0457111
0.0959856
0.0505102
0.0911098
0.0563944
0.0861479
0.0565408
0.0817178
0.0520235
0.0778423
0.0417915
0.0733661
0.0496273
0.0674156
0.0336002
0.0617595
-0.0432104
0.0665897
-0.125461
0.0859057
-0.18911
0.102612
-0.10162
0.107468
0.0106165
0.104622
0.0801045
0.0992947
0.086576
0.0943355
0.105184
0.08698
0.202416
0.0803056
0.118919
0.0735526
0.0638998
0.0674035
-0.0801339
0.0734258
-0.289967
-0.13018
0.106157
-0.00838443
0.106717
-0.00500237
0.107174
-0.000982587
0.107362
0.00418439
0.10711
0.0106745
0.106092
0.0190445
0.104037
0.0290317
0.100793
0.0392004
0.0965833
0.0499205
0.0918019
0.0552916
0.0867693
0.0614269
0.0816839
0.0616262
0.0771096
0.0565978
0.0732778
0.0456233
0.0690569
0.0538481
0.0638803
0.0387768
0.0591006
-0.0384307
0.062108
-0.128468
0.0779919
-0.204994
0.0943082
-0.117936
0.100739
0.0041862
0.0993461
0.0814969
0.0946144
0.0913077
0.0900035
0.109794
0.0834674
0.208952
0.0775851
0.124801
0.0715681
0.0699167
0.0655335
-0.0740993
0.0699026
-0.294336
-0.136249
0.102319
-0.00899702
0.10292
-0.00560369
0.103474
-0.00153647
0.103781
0.00387745
0.103665
0.0107905
0.102747
0.0199626
0.100648
0.0311301
0.0972432
0.0426055
0.0928121
0.0543516
0.0877891
0.0603146
0.0826154
0.0666007
0.0773982
0.0668433
0.0727688
0.0612273
0.0689492
0.0494429
0.0648595
0.0579379
0.0606188
0.0430175
0.0571435
-0.0349554
0.0589499
-0.130274
0.0713025
-0.217347
0.0864446
-0.133078
0.0940192
-0.0033884
0.0940174
0.0814987
0.0899755
0.0953496
0.0857678
0.114002
0.0799671
0.214753
0.0747898
0.129979
0.0694638
0.0752427
0.0636737
-0.0683092
0.066703
-0.297365
-0.141495
0.098549
-0.0095544
0.099187
-0.00624173
0.0998376
-0.00218701
0.100274
0.00344092
0.100331
0.0107337
0.0995488
0.0207447
0.0974181
0.0332608
0.0938535
0.04617
0.089189
0.0590161
0.083942
0.0655616
0.0786277
0.0719149
0.0732916
0.0721795
0.0686861
0.0658327
0.0648102
0.0533188
0.0607801
0.0619679
0.0575136
0.046284
0.0553528
-0.0327946
0.0563933
-0.131315
0.0655498
-0.226503
0.0791187
-0.146647
0.0874563
-0.011726
0.0887201
0.0802349
0.0854088
0.0986609
0.0816394
0.117772
0.0764988
0.219894
0.07194
0.134537
0.0672505
0.0799322
0.0617902
-0.0628489
0.0637613
-0.299336
-0.145999
0.0947671
-0.0100205
0.0954296
-0.0069042
0.096166
-0.00292342
0.0967442
0.00286269
0.0970259
0.0104521
0.0964333
0.0213373
0.094305
0.0353892
0.090594
0.049881
0.0856957
0.0639144
0.0802503
0.0710071
0.0747885
0.0773767
0.0693696
0.0775985
0.0648363
0.070366
0.0608274
0.0573278
0.0568473
0.0659479
0.0545383
0.048593
0.0535464
-0.0318026
0.054096
-0.131864
0.060537
-0.232944
0.0723742
-0.158485
0.0811597
-0.0205114
0.0835288
0.0778657
0.080945
0.101245
0.07763
0.121087
0.0730834
0.22444
0.0690604
0.13856
0.064949
0.0840436
0.059871
-0.0577709
0.0610274
-0.300493
-0.149848
0.0908318
-0.0103385
0.0914875
-0.00755988
0.092285
-0.00372091
0.0930221
0.00212557
0.093601
0.00987314
0.0932853
0.0216529
0.0912352
0.0374394
0.0874184
0.0536977
0.0823092
0.0690237
0.0766977
0.0766185
0.0710847
0.0829897
0.0656353
0.0830479
0.0611882
0.0748131
0.0569834
0.0615325
0.0530895
0.0698418
0.0517089
0.0499736
0.0516964
-0.0317901
0.0519126
-0.132081
0.0561322
-0.237164
0.0662309
-0.168583
0.0752029
-0.0294833
0.0785046
0.0745639
0.0766118
0.103138
0.0737508
0.123948
0.0697402
0.228451
0.0661765
0.142124
0.0625847
0.0876354
0.0579176
-0.0531039
0.0584641
-0.301039
-0.153121
0.0865297
-0.0104449
0.0871143
-0.00814451
0.0879321
-0.00453867
0.0888505
0.00120715
0.0898238
0.00889987
0.0899242
0.0215525
0.0880923
0.0392713
0.0842589
0.057531
0.0789974
0.0742852
0.0732623
0.0823536
0.0675071
0.0887449
0.0620867
0.0884683
0.0577125
0.0791873
0.0532729
0.0659721
0.0495321
0.0735826
0.0490451
0.0504607
0.0498239
-0.0325689
0.0497859
-0.132043
0.052235
-0.239613
0.0606833
-0.177032
0.0696354
-0.0384355
0.0736933
0.070506
0.0724326
0.104398
0.0700113
0.126369
0.0664839
0.231978
0.0633125
0.145295
0.0601841
0.0907638
0.0559389
-0.0488586
0.0560433
-0.301143
-0.155896
0.0815548
-0.0102889
0.0819773
-0.008567
0.0827671
-0.00532845
0.0838942
7.99916e-05
0.0853819
0.00741218
0.0861045
0.0208299
0.0847157
0.0406602
0.0810248
0.0612218
0.0757177
0.0795923
0.069918
0.0881533
0.0640488
0.0946141
0.0587164
0.0938008
0.0543856
0.083518
0.0496994
0.0706584
0.0461914
0.0770906
0.0465531
0.050099
0.0479556
-0.0339714
0.0477041
-0.131791
0.0487643
-0.240673
0.0557089
-0.183976
0.0644813
-0.0472079
0.0691264
0.0658609
0.0684249
0.1051
0.0664189
0.128375
0.063326
0.235071
0.0604896
0.148132
0.0577723
0.0934811
0.0539471
-0.0450335
0.0537437
-0.30094
-0.158241
0.075546
-0.00977465
0.0756933
-0.00871432
0.0764226
-0.00605769
0.0778006
-0.00129808
0.0799436
0.00526917
0.0815545
0.0192191
0.0809197
0.041295
0.0776102
0.0645314
0.0724181
0.0847844
0.0666349
0.0939365
0.0607019
0.100547
0.0555131
0.0989896
0.051191
0.08784
0.0462731
0.0755763
0.0430726
0.0802911
0.0442169
0.0489547
0.0461079
-0.0358624
0.0456728
-0.131356
0.0456534
-0.240654
0.0512676
-0.18959
0.0597477
-0.055688
0.0648222
0.0607863
0.0646012
0.105321
0.0629786
0.129997
0.0602752
0.237775
0.0577253
0.150682
0.0553714
0.095835
0.0519558
-0.0416179
0.0515499
-0.300534
-0.160219
0.0681856
-0.00877912
0.0679263
-0.00845494
0.0686333
-0.00676475
0.0703557
-0.00302048
0.0733121
0.0023128
0.0760882
0.016443
0.0765479
0.0408353
0.0739167
0.0671625
0.0690509
0.0896502
0.063393
0.0995943
0.0574663
0.106474
0.0524666
0.103989