/*--------------------------------*- C++ -*----------------------------------*\
  =========                 |
  \\      /  F ield         | OpenFOAM: The Open Source CFD Toolbox
   \\    /   O peration     | Website:  https://openfoam.org
    \\  /    A nd           | Version:  7
     \\/     M anipulation  |
\*---------------------------------------------------------------------------*/
FoamFile
{
    version     2.0;
    format      ascii;
    class       volScalarField;
    location    "35";
    object      p;
}
// * * * * * * * * * * * * * * * * * * * * * * * * * * * * * * * * * * * * * //

dimensions      [0 2 -2 0 0 0 0];

internalField   nonuniform List<scalar> 
2125
(
0.866942
0.809603
0.777812
0.866942
0.809603
0.777812
0.749966
0.722701
0.694991
0.66597
0.635717
0.604731
0.573684
0.86246
0.805376
0.773798
0.746215
0.719255
0.691867
0.663168
0.633222
0.602503
0.57172
0.853526
0.796952
0.765798
0.738739
0.712384
0.685637
0.657578
0.628244
0.598059
0.567801
0.840203
0.784389
0.753866
0.727586
0.702132
0.676338
0.649232
0.62081
0.591422
0.561944
0.822582
0.767775
0.738086
0.71283
0.688562
0.664026
0.638178
0.61096
0.582625
0.554173
0.800785
0.747226
0.718564
0.694569
0.67176
0.648772
0.624475
0.598746
0.571712
0.544523
0.77496
0.722886
0.695435
0.672922
0.65183
0.630666
0.6082
0.58423
0.558739
0.533034
0.745286
0.694925
0.668856
0.648033
0.628897
0.609815
0.589442
0.567489
0.543767
0.51975
0.711966
0.663535
0.639011
0.620065
0.603103
0.58634
0.568303
0.548608
0.52687
0.504725
0.675228
0.628937
0.606103
0.589201
0.57461
0.560379
0.544899
0.527683
0.508127
0.488014
0.635322
0.591368
0.570357
0.555646
0.543594
0.532083
0.519356
0.504818
0.487623
0.469676
0.59252
0.55109
0.532016
0.51962
0.510249
0.501617
0.491813
0.480127
0.465452
0.449771
0.547112
0.50838
0.491341
0.481358
0.474784
0.469159
0.462417
0.453732
0.441712
0.428362
0.499407
0.463531
0.448609
0.441113
0.437418
0.434898
0.431329
0.425762
0.416506
0.40551
0.449725
0.41685
0.404109
0.399149
0.398386
0.399037
0.398718
0.396358
0.389947
0.381279
0.3984
0.368655
0.358141
0.35574
0.357933
0.361788
0.364764
0.365667
0.362161
0.355735
0.345775
0.319272
0.311014
0.311171
0.316312
0.323373
0.329659
0.333853
0.333292
0.328934
0.292199
0.269033
0.263042
0.265732
0.273784
0.284025
0.293605
0.301085
0.303468
0.300874
0.238022
0.218271
0.214544
0.219719
0.230619
0.243982
0.256818
0.267522
0.272779
0.271461
0.183598
0.167319
0.165837
0.173428
0.187086
0.203494
0.21953
0.233376
0.241834
0.241941
0.129274
0.116506
0.117234
0.127154
0.143455
0.162805
0.181979
0.19899
0.212581
0.22015
0.0753906
0.066153
0.0690451
0.0811852
0.0999887
0.122136
0.144338
0.164311
0.18165
0.195294
0.0222815
0.0165699
0.0215672
0.0358042
0.0569429
0.0817015
0.106761
0.129534
0.149767
0.167988
-0.0297356
-0.0319459
-0.024913
-0.00871653
0.0145722
0.0417338
0.069452
0.094924
0.117791
0.139633
-0.0803825
-0.0790972
-0.0701227
-0.0521151
-0.0268751
0.00246618
0.0326273
0.0606757
0.0860782
0.110866
-0.129381
-0.124618
-0.113807
-0.0941458
-0.0671607
-0.0358758
-0.00350261
0.0269531
0.0547685
0.0821268
-0.176414
-0.168306
-0.15573
-0.134584
-0.10606
-0.0730782
-0.0387366
-0.00607352
0.0239942
0.0536896
-0.221271
-0.209921
-0.195679
-0.173194
-0.143387
-0.108942
-0.072885
-0.038233
-0.00609633
0.0257417
-0.263745
-0.249268
-0.233466
-0.209811
-0.178922
-0.143291
-0.105774
-0.0693654
-0.0353664
-0.00155558
-0.303653
-0.286183
-0.268932
-0.24427
-0.212515
-0.175949
-0.137245
-0.0993277
-0.0637114
-0.0280414
-0.340839
-0.320531
-0.301942
-0.276429
-0.244022
-0.206775
-0.167156
-0.127994
-0.0910358
-0.0535395
-0.37518
-0.352206
-0.332392
-0.30618
-0.273326
-0.235645
-0.195385
-0.155231
-0.116953
-0.0782076
-0.406581
-0.381131
-0.360208
-0.333439
-0.300332
-0.262458
-0.221829
-0.180963
-0.141706
-0.102484
-0.434983
-0.407261
-0.385345
-0.358155
-0.324976
-0.287136
-0.246399
-0.205099
-0.165097
-0.125301
-0.460356
-0.43058
-0.407786
-0.380302
-0.347216
-0.309623
-0.269028
-0.227562
-0.187054
-0.14677
-0.482701
-0.4511
-0.427546
-0.399884
-0.36704
-0.329889
-0.289671
-0.248298
-0.20755
-0.166999
-0.50205
-0.468862
-0.444662
-0.416929
-0.384461
-0.347925
-0.308304
-0.267275
-0.226547
-0.185976
-0.518461
-0.483929
-0.459199
-0.431492
-0.399515
-0.363747
-0.324922
-0.284472
-0.244013
-0.203667
-0.532018
-0.496392
-0.471245
-0.443653
-0.412264
-0.377394
-0.339542
-0.299889
-0.259932
-0.220058
-0.54283
-0.506358
-0.480906
-0.453509
-0.422789
-0.388925
-0.352197
-0.31354
-0.274302
-0.235149
-0.551024
-0.513953
-0.488309
-0.461178
-0.431191
-0.398417
-0.362942
-0.325454
-0.287138
-0.248954
-0.556747
-0.51932
-0.493591
-0.466792
-0.437589
-0.405969
-0.371846
-0.33568
-0.298469
-0.2615
-0.560158
-0.52261
-0.496904
-0.470496
-0.442115
-0.41169
-0.378998
-0.344279
-0.308335
-0.272824
-0.561428
-0.523987
-0.498407
-0.472445
-0.444912
-0.415707
-0.384497
-0.351325
-0.316791
-0.282978
-0.560737
-0.523616
-0.498264
-0.472798
-0.44613
-0.418153
-0.388455
-0.356908
-0.323904
-0.292024
-0.558268
-0.521668
-0.496642
-0.47172
-0.445927
-0.419172
-0.390994
-0.361124
-0.329749
-0.300034
-0.554206
-0.518312
-0.493705
-0.469372
-0.44446
-0.418908
-0.392243
-0.364078
-0.33441
-0.307087
-0.548733
-0.513716
-0.489618
-0.465918
-0.441887
-0.417512
-0.392331
-0.365879
-0.337977
-0.313267
-0.542028
-0.508042
-0.484537
-0.461512
-0.438362
-0.415129
-0.391392
-0.366639
-0.340541
-0.534264
-0.501445
-0.478614
-0.456304
-0.434032
-0.411902
-0.389556
-0.366468
-0.525601
-0.494072
-0.47199
-0.450436
-0.42904
-0.40797
-0.386949
-0.516191
-0.486059
-0.464796
-0.444038
-0.423515
-0.506175
-0.477531
-0.457153
-0.437229
-0.495677
-0.468604
-0.449171
-0.484814
-0.459381
-0.473689
-0.449954
-0.462395
0.245888
0.248577
0.254334
0.262201
0.272142
0.283702
0.29646
0.309805
0.322734
0.334146
0.342001
0.344855
0.338352
0.323998
0.287977
0.246539
0.249261
0.255116
0.263132
0.273302
0.2852
0.29846
0.312544
0.326544
0.339499
0.349494
0.355315
0.35275
0.3433
0.315525
0.247149
0.249867
0.255758
0.263837
0.274116
0.286191
0.299734
0.314275
0.328983
0.343034
0.354649
0.362861
0.36371
0.358555
0.3377
0.247731
0.250449
0.256384
0.264535
0.274938
0.287211
0.301065
0.316095
0.331544
0.346717
0.359965
0.37051
0.374668
0.373524
0.359062
0.248284
0.25101
0.256993
0.265224
0.275761
0.288244
0.302424
0.317953
0.334151
0.350438
0.36529
0.37808
0.385425
0.388097
0.379492
0.248807
0.25154
0.257572
0.26588
0.276544
0.289228
0.303715
0.319716
0.33662
0.353952
0.370319
0.385214
0.395581
0.401886
0.398679
0.249299
0.252039
0.258117
0.266497
0.27728
0.29015
0.304923
0.321365
0.338928
0.357237
0.375026
0.39189
0.405105
0.414874
0.416672
0.249759
0.252508
0.258627
0.267076
0.27797
0.291014
0.306056
0.322909
0.34109
0.36031
0.379434
0.398138
0.41402
0.427083
0.433517
0.250186
0.252945
0.259103
0.267615
0.278614
0.291821
0.307113
0.324349
0.343105
0.363171
0.38354
0.403954
0.422318
0.438492
0.449215
0.25058
0.253348
0.259549
0.268114
0.27921
0.292567
0.308091
0.32568
0.344968
0.365815
0.387333
0.409327
0.429982
0.449071
0.463751
0.25094
0.253716
0.259964
0.268572
0.279756
0.293252
0.308987
0.3269
0.346676
0.368234
0.390807
0.414248
0.436997
0.458789
0.477105
0.251265
0.25405
0.260292
0.268988
0.280251
0.293872
0.309801
0.328006
0.348223
0.370425
0.393953
0.418708
0.443352
0.467621
0.489248
0.251556
0.254348
0.26063
0.269359
0.280694
0.294428
0.310528
0.328995
0.349607
0.372384
0.396765
0.422697
0.449035
0.47554
0.500148
0.251811
0.254611
0.260924
0.269686
0.281085
0.294917
0.311169
0.329866
0.350825
0.374107
0.399239
0.426207
0.454035
0.482524
0.509773
0.25203
0.254838
0.261173
0.269967
0.281421
0.295339
0.311721
0.330616
0.351874
0.375591
0.401368
0.429231
0.458342
0.48855
0.518091
0.252214
0.255027
0.26138
0.270203
0.281703
0.295692
0.312183
0.331243
0.352751
0.376832
0.40315
0.431762
0.461946
0.4936
0.525072
0.252361
0.255179
0.261546
0.270392
0.281929
0.295975
0.312554
0.331747
0.353456
0.377828
0.404579
0.433794
0.464839
0.497659
0.53069
0.252471
0.255293
0.261671
0.270534
0.282099
0.296188
0.312833
0.332125
0.353986
0.378577
0.405654
0.435323
0.467015
0.500714
0.534923
0.252545
0.25537
0.261755
0.270629
0.282213
0.29633
0.31302
0.332378
0.35434
0.379077
0.406372
0.436343
0.468469
0.502756
0.537755
0.252582
0.255408
0.261797
0.270677
0.28227
0.296402
0.313113
0.332505
0.354517
0.379327
0.406731
0.436854
0.469196
0.503779
0.539174
0.178385
0.176133
0.171808
0.165877
0.158782
0.150878
0.142463
0.133804
0.125126
0.116612
0.108402
0.100597
0.0932624
0.0864314
0.0801205
0.179074
0.176846
0.172547
0.166643
0.159564
0.151658
0.14322
0.134516
0.125773
0.117179
0.108879
0.100977
0.0935426
0.0866135
0.0802111
0.180359
0.178168
0.173922
0.168072
0.161029
0.153124
0.144647
0.135862
0.127001
0.118259
0.109789
0.101703
0.0940806
0.086962
0.0803764
0.182143
0.180007
0.175842
0.170077
0.163094
0.155201
0.146679
0.137788
0.128767
0.119818
0.111109
0.102763
0.0948696
0.0874793
0.0806336
0.184343
0.182278
0.178224
0.172579
0.165686
0.157827
0.149264
0.140255
0.131042
0.12184
0.112829
0.104152
0.0959124
0.0881713
0.0809871
0.186878
0.184902
0.180993
0.175508
0.168745
0.160949
0.152362
0.143234
0.13381
0.124316
0.114952
0.105879
0.0972205
0.0890516
0.081453
0.189678
0.187808
0.18408
0.1788
0.172213
0.164522
0.15594
0.146705
0.137062
0.127251
0.117488
0.107959
0.0988125
0.0901395
0.0820492
0.192677
0.190933
0.187423
0.182397
0.176039
0.168503
0.159969
0.150653
0.140797
0.130651
0.120454
0.110415
0.100713
0.0914597
0.0827983
0.195818
0.194217
0.190964
0.186243
0.180174
0.172854
0.16442
0.155064
0.145015
0.134532
0.123872
0.113276
0.102953
0.0930421
0.0837266
0.199047
0.197607
0.194649
0.190287
0.184569
0.177534
0.169268
0.159925
0.149718
0.138907
0.127769
0.116573
0.105567
0.0949215
0.0848645
0.202319
0.201057
0.19843
0.194479
0.189181
0.182507
0.174484
0.165222
0.154907
0.143793
0.132173
0.120344
0.108596
0.0971375
0.0862463
0.205593
0.204523
0.202263
0.198775
0.193964
0.187732
0.180039
0.17094
0.160583
0.149207
0.137113
0.124629
0.112085
0.099735
0.0879109
0.208833
0.207968
0.206107
0.203131
0.198875
0.193169
0.185901
0.177059
0.166742
0.155162
0.142622
0.129471
0.116082
0.102764
0.0899016
0.21201
0.211362
0.209927
0.207507
0.203871
0.198776
0.192032
0.183554
0.173375
0.161671
0.148726
0.134912
0.12064
0.106279
0.0922665
0.2151
0.214676
0.213691
0.211866
0.208911
0.204512
0.198396
0.190397
0.180471
0.168738
0.155453
0.140998
0.125814
0.110341
0.0950593
0.218081
0.217887
0.217371
0.216174
0.213956
0.210332
0.20495
0.197553
0.188008
0.176363
0.162824
0.147771
0.131661
0.115016
0.0983386
0.220939
0.220978
0.220944
0.220401
0.218967
0.216194
0.211649
0.204982
0.195959
0.184539
0.170856
0.155272
0.13824
0.120376
0.102169
0.223661
0.223934
0.224389
0.224519
0.22391
0.222055
0.218446
0.212641
0.204289
0.19325
0.179558
0.163537
0.145608
0.126496
0.106622
0.226238
0.226744
0.227691
0.228506
0.228752
0.227874
0.225294
0.220478
0.212956
0.202471
0.188928
0.172597
0.153822
0.133457
0.111771
0.228666
0.229401
0.230838
0.232341
0.233465
0.233612
0.232144
0.228442
0.221911
0.212165
0.198955
0.182474
0.162935
0.141344
0.117696
0.230942
0.2319
0.23382
0.236009
0.238023
0.239231
0.238949
0.236476
0.231096
0.222288
0.209619
0.19318
0.172992
0.150242
0.124479
0.233066
0.234239
0.236631
0.239498
0.242405
0.244699
0.245661
0.244523
0.240451
0.232784
0.220882
0.204714
0.184032
0.160238
0.132206
0.235038
0.236419
0.239268
0.242797
0.246592
0.249986
0.252238
0.252527
0.24991
0.243588
0.232698
0.21706
0.19608
0.17141
0.140957
0.236863
0.238442
0.241731
0.245902
0.25057
0.255065
0.258639
0.260431
0.259402
0.254626
0.245004
0.230185
0.209148
0.18382
0.150802
0.238544
0.240311
0.24402
0.24881
0.25433
0.259917
0.264829
0.268182
0.268863
0.265824
0.257734
0.244051
0.223255
0.197553
0.161841
0.240089
0.242033
0.24614
0.251522
0.257867
0.264528
0.270783
0.275742
0.278236
0.27712
0.270836
0.258638
0.238455
0.212757
0.174286
0.241502
0.243612
0.248095
0.254039
0.261178
0.268887
0.276476
0.283066
0.287456
0.288422
0.284205
0.273837
0.254682
0.2294
0.188219
0.242789
0.245052
0.249885
0.256356
0.264246
0.272957
0.28184
0.290038
0.296338
0.299454
0.29745
0.289117
0.271278
0.246488
0.202418
0.243957
0.246354
0.251503
0.258453
0.267031
0.276667
0.286758
0.296479
0.304618
0.309845
0.310076
0.303854
0.287558
0.263042
0.215149
0.245021
0.247549
0.252994
0.260392
0.269626
0.280169
0.291483
0.302813
0.313
0.320752
0.323925
0.320942
0.307833
0.285885
0.23633
0.0759802
0.0738223
0.0716652
0.0695038
0.0673359
0.0651626
0.0629857
0.0608067
0.0586267
0.0564471
0.054269
0.0520939
0.0499229
0.0477574
0.0455986
0.0434477
0.041306
0.0391749
0.0370553
0.0349484
0.0760081
0.0738377
0.0716735
0.0695035
0.067323
0.0651334
0.0629372
0.0607358
0.0585305
0.0563228
0.0541139
0.0519056
0.0496991
0.0474961
0.0452981
0.0431065
0.0409228
0.0387488
0.0365856
0.0344348
0.0760297
0.0738032
0.0715961
0.0693841
0.0671581
0.0649201
0.0626734
0.06042
0.0581613
0.0558986
0.0536338
0.0513683
0.0491038
0.0468421
0.0445848
0.0423335
0.0400899
0.037856
0.0356329
0.0334222
0.0760831
0.0737684
0.0714924
0.0692149
0.0669196
0.0646093
0.0622885
0.0599596
0.0576239
0.0552829
0.0529384
0.0505922
0.0482461
0.0459019
0.0435614
0.0412263
0.0388982
0.0365809
0.0342736
0.0319787
0.0761683
0.0737306
0.071358
0.0689893
0.0665989
0.0641905
0.0617703
0.059341
0.0569039
0.0544607
0.0520131
0.0495632
0.0471128
0.0446638
0.0422183
0.0397781
0.0373451
0.0349218
0.0325093
0.0301097
0.0763085
0.0737146
0.0712177
0.0687326
0.066222
0.0636903
0.0611458
0.0585916
0.0560291
0.0534598
0.0508857
0.0483088
0.0457312
0.0431548
0.0405818
0.0380143
0.0354547
0.0329028
0.0303631
0.0278372
0.0765215
0.0737365
0.0710859
0.0684576
0.0658
0.0631184
0.0604234
0.0577187
0.0550055
0.0522852
0.04956
0.046832
0.0441033
0.0413761
0.0386524
0.0359345
0.0332246
0.0305241
0.0278358
0.0251617
0.076832
0.0738194
0.0709833
0.068183
0.0653503
0.0624906
0.0596175
0.0567352
0.0538446
0.0509474
0.0480455
0.0451412
0.0422368
0.0393343
0.036436
0.0335441
0.0306609
0.0277881
0.0249281
0.0220832
0.0772665
0.0739868
0.07093
0.0679264
0.0648879
0.0618198
0.0587387
0.0556497
0.0525534
0.0494512
0.0463453
0.043238
0.0401315
0.0370279
0.0339296
0.0308388
0.0277578
0.0246884
0.0216329
0.0185936
0.0778553
0.0742657
0.0709489
0.0677074
0.0644296
0.06112
0.0577985
0.0544712
0.0511384
0.0478013
0.044462
0.0411229
0.0377862
0.0344541
0.0311288
0.0278126
0.0245081
0.0212166
0.0179405
0.014682
0.0786325
0.0746854
0.0710645
0.0675466
0.0639926
0.0604051
0.0568077
0.0532076
0.0496048
0.0460001
0.0423957
0.0387938
0.0351968
0.0316068
0.0280259
0.0244561
0.0209008
0.0173603
0.0138371
0.0103335
0.0796361
0.0752787
0.0713035
0.0674662
0.0635951
0.0596894
0.0557769
0.0518661
0.0479565
0.0440487
0.0401446
0.0362465
0.0323565
0.0284768
0.0246092
0.0207557
0.0169209
0.0131029
0.00930452
0.00552847
0.0809086
0.0760817
0.0716954
0.0674904
0.0632566
0.0589881
0.0547171
0.0504539
0.0461974
0.0419476
0.0377063
0.0334758
0.0292581
0.0250552
0.0208685
0.0166989
0.012557
0.00843158
0.00432727
0.000249004
0.0824974
0.0771345
0.0722722
0.0676449
0.0629976
0.0583164
0.0536387
0.0489765
0.0443283
0.0396934
0.0350731
0.0304693
0.0258838
0.0213176
0.0167688
0.0122338
0.00776744
0.00330919
-0.00112927
-0.00553772
0.0844558
0.078482
0.0730697
0.0679589
0.0628412
0.0576917
0.0525537
0.0474418
0.0423537
0.037288
0.032246
0.0272295
0.0222401
0.0172795
0.0123525
0.00746776
0.00256848
-0.00227857
-0.00708185
-0.0118499
0.0868436
0.0801745
0.0741274
0.0684633
0.0628108
0.05713
0.0514708
0.0458508
0.040267
0.0347167
0.0292007
0.0237204
0.0182768
0.0128705
0.00750311
0.00217863
-0.00311376
-0.00836105
-0.0135644
-0.0187257
0.0897294
0.0822702
0.0754914
0.0691952
0.0629356
0.0566529
0.0504047
0.0442124
0.0380719
0.0319796
0.0259354
0.0199405
0.0139955
0.00810062
0.00225632
-0.00353224
-0.00927553
-0.0149676
-0.020607
-0.0261943
0.0931909
0.0848356
0.077214
0.070196
0.0632472
0.0562827
0.0493685
0.0425311
0.0357653
0.0290657
0.0224319
0.0158644
0.00936352
0.00292857
-0.00344142
-0.00973439
-0.0159718
-0.0221471
-0.0282567
-0.0343011
0.0973175
0.0879483
0.0793568
0.0715146
0.0637837
0.0560465
0.0483794
0.0408146
0.0333457
0.0259657
0.0186731
0.0114681
0.00435024
-0.00268441
-0.0096412
-0.0164737
-0.0232456
-0.0299435
-0.0365584
-0.0430917
0.102212
0.0916986
0.0819915
0.0732087
0.0645902
0.0559773
0.0474582
0.0390727
0.0308131
0.0226703
0.0146422
0.00672858
-0.00107249
-0.00876599
-0.0163556
-0.0238012
-0.0311586
-0.038416
-0.0455694
-0.0526217
0.10799
0.0961917
0.0852027
0.075347
0.0657214
0.0561153
0.0466313
0.0373186
0.028168
0.0191687
0.0103182
0.00161634
-0.00693832
-0.0153423
-0.0235775
-0.03175
-0.0397587
-0.0476191
-0.055348
-0.0629505
0.114787
0.101549
0.089089
0.0780113
0.0672437
0.0565109
0.0459333
0.0355713
0.0254144
0.0154491
0.00567273
-0.00391487
-0.013316
-0.0225331
-0.0315444
-0.0404167
-0.0491102
-0.0576247
-0.0659699
-0.0741522
0.122749
0.107905
0.093764
0.0812991
0.0692381
0.0572276
0.0454103
0.0338609
0.0225666
0.0115116
0.000693471
-0.00988678
-0.0202344
-0.0303605
-0.0401794
-0.0498373
-0.0592887
-0.0685117
-0.0775142
-0.0863063
0.132027
0.115403
0.0993515
0.0853212
0.0717994
0.0583411
0.0451197
0.0322263
0.0196456
0.00735955
-0.00463399
-0.0163382
-0.0277828
-0.0390145
-0.0496609
-0.0601632
-0.07042
-0.0803913
-0.0900855
-0.0995117
0.142775
0.12418
0.10598
0.0902009
0.075036
0.0599419
0.0451335
0.0307205
0.0166852
0.00301114
-0.0102971
-0.0232312
-0.0357646
-0.0478051
-0.0598598
-0.0714211
-0.082559
-0.093339
-0.103772
-0.113861
0.155188
0.134395
0.113803
0.096084
0.0790747
0.0621365
0.0455381
0.0294051
0.0137151
-0.0015457
-0.0163665
-0.030743
-0.0446852
-0.0580227
-0.0710957
-0.0837022
-0.0958209
-0.107482
-0.118695
-0.129464
0.169436
0.146194
0.122957
0.10308
0.0839909
0.0649794
0.0463755
0.0283102
0.0107562
-0.00629396
-0.0228319
-0.0389142
-0.0546587
-0.0691148
-0.0833771
-0.0971443
-0.110322
-0.122924
-0.134955
-0.14642
0.185382
0.159703
0.133733
0.111529
0.0901067
0.0687747
0.0479271
0.0276844
0.00802272
-0.0110442
-0.0294794
-0.0472047
-0.0639397
-0.0808074
-0.0967053
-0.111766
-0.126105
-0.139726
-0.152618
-0.16478
0.202717
0.175165
0.146916
0.122316
0.0982321
0.0742377
0.0507823
0.0279715
0.00580542
-0.0156767
-0.0364376
-0.056444
-0.0752933
-0.093729
-0.111217
-0.127747
-0.143361
-0.158049
-0.171795
-0.184593
0.215991
0.185501
0.156027
0.129363
0.102929
0.0766764
0.050953
0.0258392
0.00137903
-0.0223714
-0.0454125
-0.067747
-0.0883277
-0.108343
-0.127397
-0.145366
-0.162237
-0.177986
-0.192586
-0.206025
0.0328554
0.0307774
0.0287155
0.0266708
0.0246443
0.022637
0.0206499
0.0186838
0.0167397
0.0322979
0.0301763
0.0280713
0.0259843
0.0239166
0.0218694
0.019844
0.0178414
0.0158629
0.0312257
0.0290449
0.0268813
0.0247364
0.0226115
0.020508
0.0184272
0.0163704
0.0143388
0.0296981
0.0274337
0.0251871
0.0229597
0.0207533
0.0185692
0.016409
0.0142739
0.0121652
0.027725
0.0253568
0.0230071
0.0206775
0.0183696
0.016085
0.0138252
0.0115917
0.00938592
0.0253266
0.0228333
0.020359
0.0179057
0.0154749
0.0130685
0.010688
0.0083348
0.00601048
0.0225036
0.0198636
0.0172436
0.0146453
0.0120707
0.0095214
0.00699906
0.00450527
0.00204149
0.0192552
0.0164463
0.0136584
0.0108933
0.00815291
0.00543898
0.00275319
9.71181e-05
-0.00252773
0.0155725
0.0125716
0.00959297
0.00663841
0.00370979
0.000808867
-0.00206267
-0.00490324
-0.00771133
0.0114434
0.00822643
0.0050332
0.00186554
-0.00127473
-0.0043859
-0.00746631
-0.0105144
-0.0135287
0.00685165
0.00339344
-3.92571e-05
-0.00344463
-0.00682094
-0.0101665
-0.0134798
-0.0167593
-0.0200037
0.00177674
-0.00194897
-0.00564694
-0.00931549
-0.012953
-0.0165579
-0.0201289
-0.0236645
-0.00380121
-0.00782222
-0.0118127
-0.015771
-0.019696
-0.0235861
-0.0274403
-0.0312574
-0.00991395
-0.0142574
-0.018567
-0.0228415
-0.0270798
-0.0312808
-0.0354438
-0.0395678
-0.0165825
-0.021278
-0.025935
-0.030553
-0.0351312
-0.0396691
-0.0441664
-0.0486227
-0.0238444
-0.0289197
-0.0339511
-0.0389384
-0.0438817
-0.048781
-0.0536366
-0.0584489
-0.0317297
-0.0372135
-0.0426461
-0.0480281
-0.0533601
-0.0586433
-0.0638789
-0.0690684
-0.0402822
-0.0462011
-0.052059
-0.0578575
-0.0635985
-0.0692842
-0.0749171
-0.0805002
-0.0495464
-0.0559249
-0.0622296
-0.0684631
-0.0746286
-0.0807299
-0.0867712
-0.0927574
-0.059576
-0.0664355
-0.0732039
-0.0798852
-0.0864844
-0.0930069
-0.0994591
-0.105848
-0.0704292
-0.0777881
-0.0850324
-0.0921681
-0.0992019
-0.106141
-0.112996
-0.119775
-0.0821764
-0.0900479
-0.0977736
-0.105361
-0.11282
-0.120159
-0.127392
-0.13453
-0.094895
-0.103287
-0.111492
-0.119518
-0.127378
-0.135084
-0.142652
-0.150099
-0.108677
-0.117588
-0.126257
-0.134695
-0.142915
-0.150934
-0.158771
-0.166448
-0.123611
-0.133031
-0.142136
-0.150937
-0.159453
-0.167703
-0.175712
-0.183505
-0.139796
-0.149702
-0.159194
-0.16829
-0.17701
-0.185377
-0.193422
-0.201177
-0.157324
-0.167678
-0.177499
-0.186805
-0.195623
-0.203981
-0.211915
-0.219469
-0.17622
-0.186951
-0.196993
-0.206373
-0.215125
-0.22329
-0.230919
-0.238071
-0.196449
-0.207375
-0.217395
-0.226541
-0.23486
-0.242409
-0.249259
-0.255497
-0.218299
-0.229414
-0.239387
-0.248251
-0.256048
-0.262838
-0.268696
-0.273712
)
;

boundaryField
{
    inlet
    {
        type            zeroGradient;
    }
    outlet
    {
        type            fixedValue;
        value           nonuniform 0();
    }
    cylinder
    {
        type            zeroGradient;
    }
    top
    {
        type            symmetryPlane;
    }
    bottom
    {
        type            symmetryPlane;
    }
    defaultFaces
    {
        type            empty;
    }
    procBoundary0to1
    {
        type            processor;
        value           nonuniform List<scalar> 
50
(
-0.318656
-0.318656
-0.342192
-0.342192
-0.365473
-0.403462
-0.365473
-0.383691
-0.403462
-0.41758
-0.41758
-0.430118
-0.430118
-0.440946
-0.440946
-0.432566
-0.440407
-0.440407
-0.451018
0.0148185
0.0139093
0.0123333
0.0100842
0.00720904
0.00371635
-0.00039086
-0.00511992
-0.0104855
-0.0165078
-0.0232116
-0.0271635
-0.0271635
-0.0350364
-0.0436522
-0.0530379
-0.0632187
-0.0742139
-0.0860372
-0.0986944
-0.112183
-0.12649
-0.141591
-0.157445
-0.17399
-0.191117
-0.208684
-0.226691
-0.244813
-0.261222
-0.277994
)
;
    }
    procBoundary0to2
    {
        type            processor;
        value           nonuniform List<scalar> 
26
(
0.86246
0.805376
0.773798
0.749966
0.749966
0.722701
0.694991
0.66597
0.635717
0.604731
0.573684
0.252582
0.255408
0.261797
0.270677
0.28227
0.296402
0.313113
0.332505
0.354517
0.379327
0.406731
0.436854
0.469196
0.503779
0.539174
)
;
    }
}


// ************************************************************************* //
