/*--------------------------------*- C++ -*----------------------------------*\
  =========                 |
  \\      /  F ield         | OpenFOAM: The Open Source CFD Toolbox
   \\    /   O peration     | Website:  https://openfoam.org
    \\  /    A nd           | Version:  7
     \\/     M anipulation  |
\*---------------------------------------------------------------------------*/
FoamFile
{
    version     2.0;
    format      ascii;
    class       volVectorField;
    location    "35";
    object      U;
}
// * * * * * * * * * * * * * * * * * * * * * * * * * * * * * * * * * * * * * //

dimensions      [0 1 -1 0 0 0 0];

internalField   nonuniform List<vector> 
2125
(
(0.00620008 0.00536199 1.0691e-21)
(0.0350295 0.012818 -3.13109e-21)
(0.0904451 0.0175619 -3.68333e-21)
(0.00620008 -0.00536198 -1.0691e-21)
(0.0350295 -0.012818 3.13109e-21)
(0.0904451 -0.0175618 3.68333e-21)
(0.158066 -0.0201585 -3.71049e-21)
(0.231775 -0.021075 3.46004e-21)
(0.30678 -0.02078 1.84793e-21)
(0.379492 -0.0197038 -3.14773e-21)
(0.447766 -0.0182011 -3.88798e-21)
(0.510545 -0.0165367 6.14983e-22)
(0.567495 -0.0148728 -1.82085e-21)
(0.0070226 -0.016039 1.16301e-21)
(0.0369479 -0.0383502 -3.73532e-21)
(0.0929947 -0.0525546 8.70409e-21)
(0.16092 -0.0603377 -8.03298e-21)
(0.234696 -0.063093 -3.90454e-22)
(0.309611 -0.0622203 -6.02006e-21)
(0.38214 -0.0590062 1.0432e-20)
(0.450184 -0.0545121 1.51152e-20)
(0.512729 -0.0495306 2.87994e-21)
(0.569452 -0.0445485 -6.52989e-21)
(0.00865804 -0.0265757 -1.01428e-21)
(0.0407643 -0.0635718 -7.94987e-21)
(0.098069 -0.0871559 -1.91337e-20)
(0.166602 -0.100104 1.74061e-20)
(0.240516 -0.104716 3.83971e-21)
(0.315253 -0.103302 3.605e-21)
(0.387418 -0.0979939 -1.8757e-20)
(0.455008 -0.0905504 -1.17317e-20)
(0.517086 -0.0822871 -2.78959e-21)
(0.573358 -0.0740149 2.01797e-20)
(0.0110873 -0.0368801 -3.62025e-21)
(0.0464378 -0.0882792 4.79724e-21)
(0.105618 -0.121108 3.49126e-20)
(0.175063 -0.139187 -3.25783e-21)
(0.249186 -0.145682 -9.93042e-21)
(0.323664 -0.14379 7.62293e-21)
(0.395293 -0.136459 5.4809e-22)
(0.462209 -0.126136 3.05484e-21)
(0.523594 -0.11465 -7.04141e-21)
(0.579195 -0.103134 -1.97687e-20)
(0.0142821 -0.0468629 -2.5359e-21)
(0.0539076 -0.112274 1.42512e-20)
(0.115567 -0.15416 -3.52993e-20)
(0.186225 -0.17732 1.61099e-20)
(0.260637 -0.185738 1.47879e-22)
(0.334784 -0.183451 -2.28943e-20)
(0.405713 -0.174199 1.07338e-20)
(0.471746 -0.161093 -1.1264e-21)
(0.532218 -0.146465 4.52353e-21)
(0.586938 -0.13177 -1.46915e-21)
(0.0182049 -0.0564382 -2.87409e-20)
(0.0630934 -0.135363 -3.61921e-20)
(0.127819 -0.186069 9.66073e-21)
(0.199988 -0.214244 -1.84421e-20)
(0.274776 -0.224633 -5.57242e-21)
(0.348532 -0.222059 8.67554e-21)
(0.418612 -0.211013 3.38644e-21)
(0.483563 -0.195249 1.37434e-20)
(0.542915 -0.177582 -3.08622e-21)
(0.596555 -0.159791 1.78334e-20)
(0.02281 -0.0655243 2.75231e-20)
(0.0738966 -0.157366 1.85162e-20)
(0.142251 -0.2166 -1.48918e-20)
(0.216229 -0.249712 2.58774e-20)
(0.291488 -0.262127 -2.45447e-21)
(0.364808 -0.259395 -3.12602e-20)
(0.433903 -0.24671 5.76527e-21)
(0.497591 -0.228437 -3.75717e-20)
(0.555628 -0.207859 1.33563e-21)
(0.608002 -0.187068 1.52105e-20)
(0.0280433 -0.074045 -2.12349e-20)
(0.0862006 -0.178107 3.99219e-20)
(0.158721 -0.245532 1.58222e-20)
(0.234799 -0.283486 -2.02615e-20)
(0.310635 -0.297991 2.46622e-23)
(0.38349 -0.295249 5.77762e-20)
(0.451487 -0.281104 2.92787e-21)
(0.513749 -0.260497 2.895e-20)
(0.570291 -0.237156 3.73506e-20)
(0.621231 -0.21348 -2.20841e-20)
(0.0338435 -0.08193 1.2139e-20)
(0.0998723 -0.197429 -5.86021e-21)
(0.177063 -0.272658 -1.47693e-20)
(0.255531 -0.315343 1.1772e-20)
(0.332059 -0.332006 4.62869e-20)
(0.404441 -0.329421 -1.70336e-20)
(0.471248 -0.314018 -2.89203e-21)
(0.531941 -0.291277 -4.21285e-20)
(0.586828 -0.265342 -5.52905e-20)
(0.636185 -0.238909 2.53916e-20)
(0.0401421 -0.0891159 -1.7037e-20)
(0.114763 -0.215184 -1.57796e-20)
(0.197094 -0.297786 2.46099e-21)
(0.278232 -0.345074 -6.14999e-20)
(0.355583 -0.363967 -2.71204e-20)
(0.427505 -0.361722 -2.09173e-20)
(0.493053 -0.345288 -2.93758e-20)
(0.552058 -0.320636 1.41611e-20)
(0.605151 -0.292298 1.82019e-20)
(0.652797 -0.263248 2.90374e-20)
(0.046865 -0.0955468 2.45428e-21)
(0.130711 -0.231241 2.28369e-20)
(0.218613 -0.320744 1.68918e-20)
(0.302695 -0.372489 2.89286e-20)
(0.38101 -0.393686 2.36612e-20)
(0.452506 -0.391977 -2.39583e-20)
(0.516753 -0.374756 2.36295e-20)
(0.573979 -0.348439 1.71364e-20)
(0.625162 -0.31791 -2.14657e-21)
(0.670994 -0.2864 -8.43479e-21)
(0.0539325 -0.101175 4.10199e-20)
(0.147541 -0.245486 -2.08462e-20)
(0.241399 -0.341377 -1.55562e-20)
(0.32869 -0.397415 -9.66697e-21)
(0.408124 -0.420988 1.83985e-20)
(0.479254 -0.420025 1.72325e-20)
(0.542188 -0.402282 -2.54717e-20)
(0.597569 -0.374566 2.08448e-20)
(0.646751 -0.342078 1.03917e-21)
(0.690694 -0.308275 2.18821e-20)
(0.0612609 -0.10596 -3.11047e-20)
(0.165069 -0.257821 -1.22852e-20)
(0.265222 -0.35955 -1.13971e-21)
(0.355975 -0.419699 1.79169e-20)
(0.436693 -0.445718 -2.76968e-21)
(0.507543 -0.445717 -1.95514e-20)
(0.569178 -0.427733 5.77316e-21)
(0.622681 -0.398907 6.76028e-21)
(0.669796 -0.364714 1.66693e-20)
(0.711803 -0.328801 -3.35099e-20)
(0.0687629 -0.109874 -1.64976e-20)
(0.1831 -0.268169 3.17544e-20)
(0.289835 -0.375153 2.38668e-20)
(0.384291 -0.439211 -1.11525e-20)
(0.466472 -0.46774 -2.41207e-20)
(0.53715 -0.468923 -1.91921e-20)
(0.597534 -0.450992 2.26914e-20)
(0.649153 -0.421363 -4.73562e-20)
(0.694163 -0.385742 1.32684e-20)
(0.734219 -0.347916 3.66117e-20)
(0.0763489 -0.112894 2.78718e-20)
(0.201433 -0.276472 -1.76154e-20)
(0.314985 -0.388096 5.62718e-21)
(0.413367 -0.455842 -4.06086e-22)
(0.4972 -0.486934 -7.17919e-21)
(0.567842 -0.489527 3.13803e-20)
(0.627052 -0.471954 -2.92072e-20)
(0.676813 -0.441848 2.97299e-20)
(0.719705 -0.4051 -4.8334e-20)
(0.757823 -0.36558 -1.87793e-20)
(0.0839281 -0.11501 -3.54929e-21)
(0.219865 -0.282692 -2.64706e-20)
(0.340408 -0.398316 4.76924e-21)
(0.442925 -0.469506 -6.91575e-21)
(0.528607 -0.503205 -6.02942e-21)
(0.599372 -0.507428 1.26309e-21)
(0.657515 -0.490527 -2.05293e-20)
(0.705474 -0.460283 -1.27317e-21)
(0.74626 -0.422734 2.98541e-20)
(0.782483 -0.381769 -4.01846e-20)
(0.0914096 -0.11622 1.20775e-20)
(0.238189 -0.286811 2.24907e-20)
(0.365838 -0.405773 -2.04612e-20)
(0.472675 -0.480142 -8.91349e-21)
(0.560413 -0.516473 5.29124e-20)
(0.631486 -0.522543 -4.47769e-20)
(0.6887 -0.506628 4.52471e-20)
(0.734943 -0.476598 4.45844e-22)
(0.773654 -0.438602 1.04148e-20)
(0.808056 -0.396474 3.70986e-20)
(0.0987036 -0.116534 -7.04599e-21)
(0.256197 -0.288833 -7.27187e-22)
(0.391005 -0.410452 5.20008e-21)
(0.502327 -0.487713 2.14947e-21)
(0.592333 -0.526685 -2.20136e-22)
(0.663922 -0.534803 1.63606e-20)
(0.720379 -0.520182 -8.81465e-21)
(0.765026 -0.490721 1.16399e-20)
(0.801697 -0.452647 -4.04324e-21)
(0.83438 -0.409679 -2.00893e-21)
(0.105723 -0.11597 1.3439e-20)
(0.273687 -0.288785 -1.36037e-21)
(0.415642 -0.412365 -2.09098e-22)
(0.531587 -0.492208 6.53539e-22)
(0.62408 -0.533806 -1.45309e-20)
(0.69642 -0.544156 3.98904e-20)
(0.752327 -0.531123 -3.15776e-20)
(0.795536 -0.502557 2.44156e-20)
(0.830169 -0.46471 -2.20028e-20)
(0.861112 -0.421243 -2.74543e-20)
(0.112382 -0.114555 -1.26189e-22)
(0.290459 -0.286713 -7.58391e-21)
(0.439484 -0.41155 8.62192e-21)
(0.560164 -0.493644 2.88647e-21)
(0.655365 -0.537828 -5.59556e-21)
(0.72872 -0.550572 -3.32162e-20)
(0.78434 -0.539393 8.47633e-21)
(0.826376 -0.511973 -5.85126e-21)
(0.85904 -0.474515 2.39778e-20)
(0.887887 -0.430972 -9.43124e-21)
(0.118602 -0.112329 1.25766e-21)
(0.306322 -0.282684 1.77255e-22)
(0.462274 -0.408071 5.66153e-22)
(0.587769 -0.492065 -3.55218e-21)
(0.685901 -0.538771 8.43654e-21)
(0.760566 -0.554049 4.8174e-21)
(0.816236 -0.544978 1.43857e-20)
(0.857611 -0.518944 -1.94251e-20)
(0.889348 -0.482338 -2.18444e-20)
(0.918674 -0.441212 1.18303e-20)
(0.124309 -0.109336 -1.01771e-21)
(0.321095 -0.276787 -3.26729e-21)
(0.48376 -0.402019 3.2962e-21)
(0.614117 -0.487542 -9.54109e-22)
(0.715397 -0.536681 6.21514e-22)
(0.791686 -0.554621 -6.20944e-21)
(0.847756 -0.547938 -1.37051e-20)
(0.888838 -0.523713 1.39461e-20)
(0.920111 -0.488664 -1.44508e-20)
(0.947918 -0.450015 -1.25074e-21)
(0.129436 -0.105632 -2.063e-21)
(0.334607 -0.269128 1.44986e-21)
(0.503705 -0.393508 -2.34807e-21)
(0.638929 -0.480173 -1.42181e-21)
(0.743559 -0.531631 -4.01481e-21)
(0.821786 -0.552338 2.38292e-21)
(0.878596 -0.548313 -6.41374e-21)
(0.919616 -0.526308 -6.81827e-21)
(0.950397 -0.493219 3.02342e-20)
(0.975999 -0.456954 1.72275e-20)
(0.133922 -0.101279 -1.51455e-21)
(0.346701 -0.25983 -1.64206e-21)
(0.521883 -0.382675 -2.0022e-21)
(0.661937 -0.470081 6.79877e-23)
(0.770098 -0.523714 -2.02171e-21)
(0.850567 -0.547258 7.30157e-21)
(0.908449 -0.546125 -2.00735e-21)
(0.949605 -0.526676 5.8289e-21)
(0.97979 -0.495782 -6.68603e-21)
(1.00316 -0.461623 2.05664e-21)
(0.137717 -0.0963415 2.03431e-21)
(0.357239 -0.249031 7.7477e-21)
(0.538087 -0.369681 -1.86824e-21)
(0.682885 -0.45741 -2.18102e-22)
(0.794731 -0.513041 -1.63089e-21)
(0.877736 -0.539456 -2.19504e-21)
(0.937018 -0.541403 5.18061e-21)
(0.978534 -0.524788 1.45373e-21)
(1.00812 -0.496298 -1.04143e-20)
(1.02946 -0.464136 -7.90691e-21)
(0.140772 -0.0908917 -2.46893e-21)
(0.366102 -0.236889 -4.54321e-22)
(0.552129 -0.354706 8.3169e-21)
(0.701536 -0.442327 4.8755e-22)
(0.817188 -0.499746 -5.26286e-21)
(0.903008 -0.529023 4.47284e-21)
(0.964021 -0.534192 1.20545e-21)
(1.00617 -0.520645 1.39721e-21)
(1.03529 -0.494761 3.85659e-21)
(1.05487 -0.464618 6.20238e-21)
(0.143054 -0.0850112 8.5632e-21)
(0.373185 -0.223573 -1.22042e-21)
(0.563844 -0.337943 -6.95992e-21)
(0.71767 -0.425019 7.43815e-22)
(0.837216 -0.483984 4.35153e-21)
(0.926113 -0.516066 -5.59519e-22)
(0.989195 -0.524556 -1.35448e-21)
(1.03228 -0.514269 1.14982e-21)
(1.06118 -0.491182 -5.66942e-23)
(1.07932 -0.463154 -2.76479e-21)
(0.144542 -0.0787826 -2.6935e-21)
(0.378406 -0.209256 -2.3251e-20)
(0.573094 -0.319608 1.97099e-21)
(0.731094 -0.405695 1.06183e-20)
(0.854579 -0.465927 -5.48343e-22)
(0.946799 -0.500714 -1.39627e-20)
(1.01229 -0.512574 7.54238e-21)
(1.05666 -0.505699 -1.23882e-21)
(1.08566 -0.485589 3.48585e-22)
(1.10274 -0.459817 -9.48577e-23)
(0.145223 -0.0722882 -4.39882e-21)
(0.381709 -0.194124 7.66733e-21)
(0.579767 -0.299926 1.27364e-20)
(0.741644 -0.384579 -8.11425e-21)
(0.869066 -0.44577 2.47718e-21)
(0.964826 -0.483114 8.90827e-21)
(1.03307 -0.498346 5.0821e-21)
(1.07912 -0.494997 1.03742e-21)
(1.10858 -0.478026 -1.03368e-21)
(1.12502 -0.454674 -1.66866e-22)
(0.145094 -0.0656118 -6.72192e-21)
(0.38306 -0.178367 -3.49734e-21)
(0.583779 -0.279136 -2.52337e-20)
(0.749181 -0.361912 -4.13136e-21)
(0.880492 -0.423725 7.21404e-22)
(0.979976 -0.463431 1.67075e-21)
(1.05131 -0.481988 -1.82343e-20)
(1.09943 -0.482239 -7.93413e-21)
(1.12981 -0.468546 2.84269e-22)
(1.14603 -0.447796 8.73204e-22)
(0.144164 -0.0588374 -2.11642e-21)
(0.382451 -0.162178 8.42964e-21)
(0.58508 -0.257483 1.28841e-20)
(0.7536 -0.337948 8.34649e-21)
(0.888698 -0.40002 -1.8307e-21)
(0.992055 -0.441851 -2.14138e-21)
(1.06679 -0.463636 1.5403e-20)
(1.11742 -0.467517 1.45646e-20)
(1.14914 -0.457207 1.93632e-21)
(1.16568 -0.439273 -1.27724e-21)
(0.142451 -0.0520475 1.96817e-20)
(0.379898 -0.14575 1.3077e-20)
(0.58365 -0.235218 -1.41193e-20)
(0.754827 -0.312951 -2.88811e-21)
(0.893556 -0.3749 1.80102e-21)
(1.00089 -0.418576 -5.56781e-21)
(1.07934 -0.443439 -9.70771e-21)
(1.13289 -0.450927 -1.9211e-22)
(1.16644 -0.444122 -9.14068e-21)
(1.18389 -0.429201 3.6293e-21)
(0.139986 -0.0453218 3.09737e-21)
(0.375441 -0.129275 -7.52964e-21)
(0.579503 -0.212593 1.88744e-20)
(0.752827 -0.287195 1.23077e-20)
(0.89497 -0.348623 8.93075e-22)
(1.00633 -0.393824 7.86418e-21)
(1.08876 -0.421571 6.7633e-22)
(1.14566 -0.43261 -7.44777e-21)
(1.18154 -0.429415 5.39831e-21)
(1.20041 -0.41749 9.94868e-22)
(0.136806 -0.038736 -1.75797e-20)
(0.369144 -0.112937 -5.58583e-21)
(0.572686 -0.189859 -5.03757e-21)
(0.747597 -0.260955 -8.9495e-21)
(0.892877 -0.321456 2.64609e-21)
(1.00826 -0.367829 -3.71968e-23)
(1.09489 -0.398214 6.39197e-21)
(1.15554 -0.412694 -1.98253e-21)
(1.19424 -0.413118 -6.63497e-21)
(1.21494 -0.40426 -4.75961e-21)
(0.13296 -0.0323609 1.50174e-21)
(0.361094 -0.0969139 9.39692e-21)
(0.563275 -0.167262 4.8364e-21)
(0.739173 -0.23451 -1.50289e-20)
(0.887251 -0.293677 -4.09099e-22)
(1.00658 -0.340835 -6.74397e-21)
(1.09759 -0.373567 1.14819e-22)
(1.16235 -0.391323 2.38442e-21)
(1.20437 -0.395327 -2.7606e-21)
(1.22741 -0.389627 8.01147e-21)
(0.128502 -0.0262607 3.67576e-21)
(0.351398 -0.0813715 -9.41371e-21)
(0.55138 -0.145038 -2.29895e-20)
(0.727627 -0.208135 2.17975e-20)
(0.878102 -0.265564 -1.59064e-21)
(1.00124 -0.3131 4.72551e-21)
(1.09674 -0.347843 -6.97036e-22)
(1.16594 -0.368661 4.4928e-21)
(1.21175 -0.376161 -4.20229e-22)
(1.23767 -0.373667 -6.25526e-21)
(0.123494 -0.0204931 -7.52609e-21)
(0.340182 -0.0664631 1.2463e-20)
(0.537138 -0.123411 1.05374e-20)
(0.713067 -0.182099 -1.58668e-20)
(0.865479 -0.237399 -2.82717e-21)
(0.99221 -0.284888 1.00645e-21)
(1.09224 -0.321268 1.13147e-20)
(1.16616 -0.344882 3.92755e-22)
(1.21622 -0.355749 2.2031e-21)
(1.24555 -0.356454 -4.41433e-21)
(0.118004 -0.0151076 5.71385e-21)
(0.32759 -0.0523269 -5.51295e-21)
(0.520714 -0.102593 -4.94092e-21)
(0.695635 -0.15666 8.78511e-21)
(0.849469 -0.209462 3.10885e-21)
(0.979502 -0.25647 2.53116e-21)
(1.08402 -0.294078 -1.19565e-20)
(1.16287 -0.320175 -4.39493e-21)
(1.21758 -0.334228 -3.73034e-21)
(1.25084 -0.338071 1.44713e-21)
(0.112104 -0.0101457 -2.89769e-21)
(0.313778 -0.039084 -6.29956e-23)
(0.502297 -0.0827726 9.36526e-21)
(0.675509 -0.132062 -3.55678e-21)
(0.830197 -0.182026 -1.73045e-21)
(0.963167 -0.228119 -1.19142e-21)
(1.07206 -0.266521 3.07727e-21)
(1.15597 -0.294741 5.34163e-21)
(1.21569 -0.311744 -2.99245e-22)
(1.25336 -0.318609 2.02125e-21)
(0.105866 -0.00564016 2.04211e-21)
(0.298914 -0.0268373 -6.24733e-22)
(0.482096 -0.0641222 -1.68801e-21)
(0.652892 -0.108535 -1.61647e-21)
(0.807826 -0.155355 1.56476e-21)
(0.943295 -0.200107 1.31996e-21)
(1.05636 -0.23885 -1.27092e-21)
(1.14537 -0.268792 4.72377e-22)
(1.21039 -0.28846 6.91094e-22)
(1.25293 -0.298169 -9.1588e-22)
(0.0993675 -0.00161516 1.11577e-21)
(0.283174 -0.01567 3.45837e-22)
(0.460338 -0.0467891 -2.13626e-21)
(0.628021 -0.0862828 -1.84402e-21)
(0.782556 -0.129698 2.08613e-21)
(0.920014 -0.172704 4.50366e-22)
(1.03694 -0.211324 -1.15533e-21)
(1.13103 -0.242554 1.13262e-21)
(1.20156 -0.264548 6.74697e-22)
(1.24937 -0.276863 -8.01061e-22)
(0.0926831 0.00191394 -4.36398e-22)
(0.266738 -0.00564582 9.43507e-22)
(0.437264 -0.0308968 6.61462e-21)
(0.601152 -0.0654908 -3.27071e-21)
(0.754619 -0.105288 -1.70979e-21)
(0.893497 -0.146168 -2.16015e-21)
(1.0139 -0.184205 4.80199e-21)
(1.11292 -0.21626 3.6598e-21)
(1.18908 -0.240198 3.0232e-21)
(1.24251 -0.254818 1.65871e-21)
(0.0858869 0.00494016 8.92253e-21)
(0.249788 0.00319177 -5.25859e-21)
(0.413122 -0.0165429 -6.33218e-21)
(0.572563 -0.0463163 9.39909e-21)
(0.724279 -0.0823369 5.5909e-21)
(0.863951 -0.120751 -4.37546e-22)
(0.987364 -0.157752 -8.5797e-21)
(1.09106 -0.190156 -6.38435e-21)
(1.17289 -0.215612 -7.44436e-21)
(1.23219 -0.232176 4.84438e-21)
(0.0790504 0.00746457 -1.20727e-20)
(0.232504 0.010819 1.221e-20)
(0.388167 -0.00379858 1.50819e-20)
(0.542546 -0.0288889 -1.63663e-20)
(0.691827 -0.0610328 -6.24589e-21)
(0.831625 -0.0966843 4.70819e-21)
(0.957491 -0.132223 9.22736e-21)
(1.06552 -0.164491 1.76693e-21)
(1.15294 -0.191009 -5.29447e-22)
(1.21829 -0.209097 -7.05744e-21)
(0.0722415 0.00949567 -1.77222e-21)
(0.215062 0.017231 -1.73038e-20)
(0.362653 0.00729115 -1.98142e-20)
(0.511404 -0.0133093 2.49611e-20)
(0.657576 -0.0415366 -3.15263e-21)
(0.796802 -0.0741827 7.13096e-21)
(0.924495 -0.107865 1.69786e-21)
(1.03641 -0.13952 -4.46601e-21)
(1.12923 -0.166621 2.5988e-21)
(1.2007 -0.185762 -1.2449e-21)
(0.0655234 0.0110487 3.56489e-21)
(0.19763 0.0224412 1.07843e-20)
(0.336832 0.0167076 6.52304e-21)
(0.479445 0.000352246 -5.42082e-21)
(0.621857 -0.0239797 -1.02979e-20)
(0.759793 -0.0534366 -1.09152e-20)
(0.888631 -0.0849123 -2.59255e-21)
(1.0039 -0.115498 8.51902e-21)
(1.10181 -0.142693 -1.93315e-21)
(1.17936 -0.162376 4.38153e-21)
(0.0589538 0.012145 -1.37308e-20)
(0.180368 0.0264794 -1.37812e-20)
(0.310948 0.0244571 -2.54217e-21)
(0.446977 0.0120563 -2.97708e-21)
(0.585013 -0.00846186 -8.31419e-21)
(0.72094 -0.0346096 5.88886e-21)
(0.850191 -0.0635844 -9.07007e-22)
(0.968175 -0.0926775 -7.30722e-21)
(1.07078 -0.119481 7.08719e-21)
(1.15424 -0.139167 -1.36943e-20)
(0.0525844 0.0128108 3.05587e-21)
(0.163423 0.029391 1.19092e-20)
(0.285231 0.0305705 1.15937e-20)
(0.4143 0.021794 1.41857e-20)
(0.547391 0.00495033 -3.13437e-22)
(0.680601 -0.0178345 1.77981e-20)
(0.809505 -0.044077 2.1849e-21)
(0.929506 -0.0713017 -2.87795e-20)
(1.03629 -0.0972509 2.3331e-20)
(1.12536 -0.116388 8.53233e-21)
(0.0464607 0.0130768 9.07382e-21)
(0.146929 0.0312345 2.22182e-20)
(0.2599 0.0351008 -3.01365e-21)
(0.381707 0.0295865 -1.83643e-20)
(0.509337 0.0162249 9.34711e-21)
(0.639147 -0.00321048 -1.16548e-20)
(0.76693 -0.0265595 -2.01905e-20)
(0.888187 -0.0516012 -4.15867e-21)
(0.998532 -0.0762702 -2.22645e-20)
(0.0406213 0.012977 4.5124e-21)
(0.131006 0.0320805 4.18362e-21)
(0.235155 0.0381221 3.26101e-20)
(0.349475 0.0354844 7.57841e-21)
(0.471192 0.0253651 -7.9007e-21)
(0.596957 0.00920017 -4.38079e-21)
(0.722845 -0.0111695 3.44367e-20)
(0.844557 -0.0337872 3.32368e-20)
(0.0350985 0.012548 1.02847e-21)
(0.115757 0.0320097 -2.35155e-20)
(0.211178 0.0397277 -3.92263e-20)
(0.31786 0.0395666 2.36888e-21)
(0.43328 0.0324097 1.19527e-20)
(0.554404 0.0193745 -1.86032e-20)
(0.67764 0.00199232 -5.5926e-20)
(0.0299183 0.0118287 -8.29084e-21)
(0.101272 0.0311112 2.40834e-20)
(0.188128 0.0400279 2.47024e-20)
(0.287098 0.0419382 -2.86855e-20)
(0.395908 0.0374332 4.29001e-21)
(0.0251006 0.0108589 -2.01371e-20)
(0.0876249 0.0294814 -3.72232e-20)
(0.166144 0.0391483 -8.27662e-21)
(0.257398 0.0427294 1.59734e-20)
(0.0206598 0.00967983 1.52371e-20)
(0.0748741 0.0272219 2.21497e-22)
(0.145342 0.0372273 -4.11494e-21)
(0.0166054 0.00833292 -5.0396e-21)
(0.063064 0.0244386 -9.30774e-21)
(0.0129423 0.00685996 3.46082e-20)
(0.0522256 0.0212401 2.89816e-20)
(0.00967124 0.00530249 6.60627e-21)
(0.999873 -0.00371978 -2.11514e-22)
(0.996762 -0.011137 9.45692e-22)
(0.990904 -0.0193571 4.60735e-22)
(0.982944 -0.0289368 2.10586e-22)
(0.97297 -0.040608 4.33129e-22)
(0.961326 -0.0549989 -1.87223e-21)
(0.948255 -0.0728273 -2.49902e-21)
(0.934304 -0.0948456 8.38528e-22)
(0.920038 -0.121824 2.59278e-21)
(0.906598 -0.154461 3.07027e-21)
(0.894948 -0.193352 5.2967e-21)
(0.887373 -0.238489 -1.17911e-21)
(0.884333 -0.289776 -7.67855e-21)
(0.890226 -0.343691 -2.13894e-21)
(0.895404 -0.3993 5.74013e-21)
(0.999868 -0.00353655 -1.19051e-21)
(0.996688 -0.0106004 4.4326e-22)
(0.99069 -0.0184338 -7.41739e-22)
(0.982514 -0.0275611 2.00637e-21)
(0.972217 -0.0386761 -1.78772e-21)
(0.960106 -0.052378 2.16334e-22)
(0.94637 -0.0693577 2.60899e-21)
(0.931484 -0.0903466 -4.12863e-21)
(0.915923 -0.11612 1.84775e-21)
(0.900727 -0.147399 -6.78596e-21)
(0.886763 -0.184898 7.7407e-21)
(0.876178 -0.228722 -8.11314e-21)
(0.869495 -0.27919 -1.25515e-21)
(0.870133 -0.332663 9.72619e-21)
(0.871448 -0.387645 -2.24768e-21)
(0.999865 -0.0033483 1.58155e-21)
(0.996628 -0.0100463 1.09215e-21)
(0.990506 -0.0174764 1.32527e-21)
(0.982138 -0.0261312 -9.78803e-22)
(0.971551 -0.0366653 -1.01076e-21)
(0.959021 -0.0496478 3.75185e-21)
(0.944685 -0.0657403 -2.05149e-21)
(0.92895 -0.0856491 5.68042e-21)
(0.912204 -0.11015 -3.51108e-21)
(0.895376 -0.139973 -1.70527e-21)
(0.87922 -0.175937 -2.36801e-21)
(0.865709 -0.21825 1.99686e-21)
(0.855365 -0.267533 5.63967e-21)
(0.850948 -0.320284 -1.59846e-20)
(0.847824 -0.374446 1.79566e-20)
(0.999864 -0.0031598 2.26951e-22)
(0.996579 -0.00949182 -1.81446e-21)
(0.990347 -0.0165209 -3.38747e-21)
(0.981806 -0.0247084 5.90781e-22)
(0.970959 -0.0346718 -1.14832e-22)
(0.958051 -0.0469509 1.06214e-21)
(0.94317 -0.0621788 3.18464e-21)
(0.926661 -0.0810361 -2.16987e-21)
(0.908824 -0.104294 2.73388e-21)
(0.890479 -0.132686 -5.49789e-21)
(0.872252 -0.167109 3.69661e-21)
(0.855925 -0.207851 2.48653e-21)
(0.841993 -0.255741 6.09361e-21)
(0.832713 -0.307564 -1.0559e-20)
(0.824882 -0.360778 1.90091e-22)
(0.999864 -0.00297051 -2.00038e-21)
(0.996537 -0.00893397 -4.74156e-22)
(0.990208 -0.0155598 -4.6414e-22)
(0.981513 -0.0232775 2.60788e-21)
(0.97043 -0.032668 4.30968e-23)
(0.957181 -0.0442414 -4.05824e-22)
(0.941804 -0.0586015 -2.25745e-21)
(0.924587 -0.0764003 -1.6825e-22)
(0.905746 -0.0983997 7.01194e-21)
(0.885989 -0.125326 -8.12525e-21)
(0.865817 -0.158134 2.58435e-21)
(0.846801 -0.197179 3.91227e-21)
(0.8294 -0.243435 1.26917e-21)
(0.815466 -0.294063 -5.79301e-21)
(0.80282 -0.346114 1.14534e-22)
(0.999865 -0.00278019 3.70424e-22)
(0.996503 -0.00837161 3.27258e-22)
(0.990087 -0.0145889 1.12166e-21)
(0.981253 -0.0218309 -1.45281e-21)
(0.969959 -0.0306412 4.11235e-22)
(0.9564 -0.0414994 -1.10861e-21)
(0.940573 -0.0549785 5.89897e-22)
(0.922709 -0.0716992 -2.48436e-21)
(0.902945 -0.0924079 4.73925e-21)
(0.881878 -0.117817 -1.41087e-22)
(0.859885 -0.148917 -8.45075e-21)
(0.83832 -0.186126 5.51404e-22)
(0.817596 -0.230509 8.90333e-21)
(0.799226 -0.279643 2.37446e-22)
(0.781746 -0.330306 -1.02981e-20)
(0.999866 -0.00258909 3.21561e-22)
(0.996474 -0.00780614 -1.87008e-21)
(0.989982 -0.0136096 -1.40927e-21)
(0.981024 -0.0203706 1.6607e-21)
(0.969539 -0.0285943 -1.18157e-21)
(0.9557 -0.0387296 9.49492e-22)
(0.939464 -0.051317 -4.87383e-22)
(0.92101 -0.0669437 -5.28978e-22)
(0.900398 -0.0863347 3.6278e-21)
(0.878118 -0.110182 -7.18403e-21)
(0.85443 -0.139491 5.74248e-21)
(0.830467 -0.174734 7.89221e-21)
(0.806584 -0.217024 -9.77153e-21)
(0.784006 -0.264356 -1.80572e-21)
(0.761751 -0.313369 -8.61337e-21)
(0.999868 -0.00239751 -1.77345e-22)
(0.996449 -0.00723765 1.17537e-21)
(0.98989 -0.0126235 -1.29238e-21)
(0.980821 -0.018899 2.9647e-21)
(0.969165 -0.0265313 -3.19028e-21)
(0.955073 -0.0359377 -3.19604e-21)
(0.938467 -0.0476252 -7.991e-22)
(0.919475 -0.062145 3.62255e-22)
(0.898088 -0.0801953 -2.81965e-21)
(0.874689 -0.102441 3.23322e-21)
(0.849429 -0.129884 3.39139e-21)
(0.823224 -0.163039 -1.18494e-21)
(0.796361 -0.203032 -4.03059e-21)
(0.769816 -0.248253 8.43864e-21)
(0.742915 -0.29532 -7.99172e-21)
(0.99987 -0.00220561 -7.74049e-22)
(0.996429 -0.00666611 7.26444e-21)
(0.989809 -0.0116316 1.71526e-22)
(0.980642 -0.0174178 1.47472e-21)
(0.968832 -0.0244544 -2.59602e-22)
(0.954512 -0.0331267 4.32631e-21)
(0.937572 -0.0439068 6.58435e-22)
(0.918091 -0.057308 4.87116e-23)
(0.895998 -0.0739959 -4.45499e-21)
(0.871571 -0.0946026 -7.88049e-22)
(0.844862 -0.120109 3.75939e-21)
(0.816579 -0.15106 -5.42632e-21)
(0.786926 -0.188565 -3.97763e-21)
(0.756666 -0.231372 4.74045e-21)
(0.725305 -0.27618 -3.997e-21)
(0.999872 -0.00201354 1.93424e-21)
(0.996412 -0.00609223 -4.08267e-21)
(0.989739 -0.0106322 2.1811e-21)
(0.980485 -0.015928 -3.07086e-21)
(0.968538 -0.0223652 -1.12607e-21)
(0.954013 -0.0302984 6.23071e-22)
(0.936772 -0.0401642 -2.22946e-21)
(0.916849 -0.052436 3.91928e-21)
(0.894115 -0.0677412 2.08835e-21)
(0.868751 -0.0866746 -1.18521e-21)
(0.840715 -0.110179 3.53444e-21)
(0.81052 -0.138816 -6.58457e-21)
(0.778277 -0.17366 1.12619e-20)
(0.744564 -0.213763 -7.80241e-21)
(0.708979 -0.25599 -3.86317e-21)
(0.999874 -0.00182141 -1.3749e-21)
(0.996398 -0.00551652 1.83715e-22)
(0.989679 -0.00962179 1.18332e-23)
(0.980347 -0.0144306 2.8391e-21)
(0.968277 -0.020265 7.04261e-22)
(0.953571 -0.0274551 -1.28779e-21)
(0.93606 -0.0364001 1.44851e-21)
(0.915739 -0.0475326 -2.8618e-21)
(0.892428 -0.0614365 1.14531e-21)
(0.866215 -0.0786647 7.21751e-22)
(0.836974 -0.100107 -3.48702e-21)
(0.805037 -0.12633 2.60977e-21)
(0.770412 -0.15835 6.62558e-21)
(0.733518 -0.19548 -3.32256e-21)
(0.693985 -0.234807 -8.58282e-21)
(0.999876 -0.0016293 -1.56209e-21)
(0.996387 -0.00493922 -3.26974e-22)
(0.989626 -0.00861641 -1.41958e-21)
(0.980225 -0.012927 -4.14381e-21)
(0.968049 -0.0181554 1.98716e-21)
(0.953181 -0.0245984 -1.88283e-21)
(0.935431 -0.0326171 2.52155e-21)
(0.914756 -0.0426014 3.66193e-21)
(0.890929 -0.0550871 -2.34808e-21)
(0.863955 -0.070581 4.7735e-21)
(0.833629 -0.089908 -2.5702e-21)
(0.800121 -0.113623 -3.80448e-21)
(0.763332 -0.142675 -2.32368e-21)
(0.723539 -0.176582 9.52294e-21)
(0.680368 -0.2127 -3.12566e-21)
(0.999878 -0.00143726 1.6244e-21)
(0.996377 -0.0043607 7.78856e-22)
(0.989581 -0.0076171 -1.13496e-22)
(0.980121 -0.0114181 1.6601e-21)
(0.967851 -0.0160375 -2.65735e-21)
(0.952841 -0.0217302 -6.53415e-22)
(0.934882 -0.0288175 -5.32223e-23)
(0.913894 -0.0376457 -1.24109e-21)
(0.889611 -0.0486981 -3.60235e-21)
(0.861962 -0.0624317 -1.78677e-21)
(0.830671 -0.0795955 6.67069e-21)
(0.795764 -0.10072 -1.03109e-21)
(0.757035 -0.12667 -1.02339e-21)
(0.714636 -0.15713 -8.1154e-22)
(0.668166 -0.189745 -3.87765e-21)
(0.99988 -0.00124533 9.82254e-22)
(0.996368 -0.00378115 -1.79714e-21)
(0.989543 -0.00660871 7.64685e-22)
(0.980032 -0.00990435 -2.03787e-21)
(0.967681 -0.0139127 -1.23798e-22)
(0.952549 -0.0188521 1.14384e-22)
(0.934407 -0.0250035 1.57764e-22)
(0.913147 -0.0326687 2.36002e-22)
(0.888469 -0.0422744 -1.64204e-21)
(0.86023 -0.0542244 2.13943e-21)
(0.828094 -0.0691833 -3.43958e-21)
(0.791962 -0.0876422 7.71912e-22)
(0.751523 -0.110374 2.26868e-21)
(0.706819 -0.137184 -1.49131e-22)
(0.657412 -0.166029 2.63932e-21)
(0.999882 -0.0010535 -9.55489e-22)
(0.996361 -0.00320072 2.18092e-21)
(0.989511 -0.00559556 -1.37293e-21)
(0.979957 -0.00838671 1.66549e-21)
(0.967538 -0.0117819 9.07028e-22)
(0.952302 -0.0159655 -5.69934e-22)
(0.934005 -0.0211772 -9.67124e-23)
(0.912513 -0.0276733 -6.34363e-22)
(0.887496 -0.0358208 2.25406e-22)
(0.858753 -0.0459669 -1.80688e-21)
(0.825894 -0.058685 8.53927e-22)
(0.78871 -0.074414 -5.70337e-21)
(0.746795 -0.0938244 7.94632e-21)
(0.700097 -0.11681 -2.38392e-21)
(0.648138 -0.141642 -4.94544e-21)
(0.999883 -0.000861771 -4.45115e-22)
(0.996356 -0.00261961 -6.7398e-22)
(0.989485 -0.00458053 4.67647e-22)
(0.979896 -0.00686591 1.12882e-22)
(0.96742 -0.00964627 1.26242e-21)
(0.952098 -0.013072 -4.41956e-22)
(0.933673 -0.0173406 2.57876e-22)
(0.911989 -0.0226626 -8.38424e-23)
(0.886691 -0.029342 7.0303e-22)
(0.857528 -0.0376671 1.30406e-21)
(0.824065 -0.048114 1.85036e-21)
(0.786003 -0.0610581 -2.98072e-21)
(0.742854 -0.0770598 1.31713e-21)
(0.694481 -0.0960717 -1.65982e-21)
(0.640368 -0.116683 -4.56243e-21)
(0.999885 -0.000670147 1.57961e-21)
(0.996352 -0.00203798 -1.83902e-22)
(0.989465 -0.00356416 7.36338e-22)
(0.979848 -0.00534262 6.22768e-22)
(0.967327 -0.00750666 -1.96968e-21)
(0.951936 -0.0101729 7.33002e-23)
(0.933409 -0.0134957 2.96555e-22)
(0.911572 -0.0176393 1.79161e-22)
(0.886049 -0.0228427 -6.70485e-22)
(0.856551 -0.0293326 6.27697e-22)
(0.822604 -0.0374835 2.81239e-21)
(0.783841 -0.0475978 -1.11896e-21)
(0.7397 -0.0601189 2.49261e-21)
(0.689977 -0.0750339 -5.39905e-21)
(0.634126 -0.0912492 6.6748e-21)
(0.999886 -0.000478609 -1.12784e-21)
(0.996349 -0.00145596 2.1023e-23)
(0.98945 -0.00254664 -6.55556e-22)
(0.979812 -0.00381745 -3.23483e-22)
(0.967257 -0.00536402 7.01908e-22)
(0.951816 -0.0072694 -3.72687e-23)
(0.933213 -0.00964432 -1.23406e-21)
(0.91126 -0.0126064 7.0756e-22)
(0.88557 -0.0163276 -3.09354e-22)
(0.85582 -0.0209711 2.7627e-22)
(0.821511 -0.0268069 9.53872e-22)
(0.782221 -0.0340564 2.46614e-22)
(0.737333 -0.0430404 -1.66584e-21)
(0.686593 -0.0537627 1.92865e-22)
(0.629429 -0.0654447 -1.49033e-21)
(0.999886 -0.000287137 5.49581e-22)
(0.996347 -0.000873682 -3.75377e-23)
(0.98944 -0.0015283 9.53032e-23)
(0.979788 -0.00229098 5.26658e-22)
(0.967211 -0.00321926 -9.54739e-23)
(0.951736 -0.00436286 -5.07483e-22)
(0.933082 -0.00578841 -3.18142e-22)
(0.911054 -0.0075666 3.78348e-22)
(0.885251 -0.00980106 -3.36132e-22)
(0.855334 -0.0125904 3.9289e-22)
(0.820783 -0.0160973 -1.0152e-21)
(0.781141 -0.020457 5.5774e-22)
(0.735755 -0.0258636 -1.23123e-21)
(0.684334 -0.0323245 4.94002e-22)
(0.62629 -0.0393737 2.02456e-22)
(0.999887 -9.57074e-05 -9.79349e-23)
(0.996346 -0.000291245 9.54014e-23)
(0.989435 -0.000509487 -1.24257e-22)
(0.979776 -0.000763742 -1.74557e-22)
(0.967189 -0.00107323 1.62786e-22)
(0.951696 -0.00145449 2.55172e-22)
(0.933017 -0.00192977 1.75482e-22)
(0.91095 -0.00252266 -1.04691e-22)
(0.885092 -0.00326777 4.15215e-22)
(0.855091 -0.00419808 7.52997e-23)
(0.820419 -0.00536795 1.90571e-22)
(0.780601 -0.00682287 2.60462e-22)
(0.734965 -0.00862778 -7.53025e-24)
(0.683204 -0.010786 -1.84058e-22)
(0.624718 -0.0131424 -2.80057e-23)
(1.00013 -0.000347316 0)
(1.00271 -0.00102806 0)
(1.00732 -0.00166724 0)
(1.01346 -0.00227247 0)
(1.02068 -0.00284208 0)
(1.02861 -0.00336766 0)
(1.03696 -0.00384044 0)
(1.04546 -0.00425429 0)
(1.05389 -0.00460644 0)
(1.06208 -0.00489741 0)
(1.06992 -0.00513056 0)
(1.07731 -0.00531115 0)
(1.0842 -0.00544598 0)
(1.09058 -0.00554065 0)
(1.09647 -0.00561203 0)
(1.00013 -0.00102594 0)
(1.00268 -0.0030292 0)
(1.00726 -0.00491412 0)
(1.01338 -0.0067032 0)
(1.02057 -0.00839003 0)
(1.02851 -0.00994967 0)
(1.03687 -0.0113559 0)
(1.04541 -0.0125898 0)
(1.0539 -0.0136419 0)
(1.06217 -0.014513 0)
(1.07009 -0.0152123 0)
(1.07757 -0.0157549 0)
(1.08456 -0.0161605 0)
(1.09103 -0.0164454 0)
(1.09701 -0.0166577 0)
(1.00013 -0.00166817 0)
(1.00264 -0.00491631 0)
(1.00716 -0.00798215 0)
(1.01321 -0.0109034 0)
(1.02037 -0.0136677 0)
(1.0283 -0.0162336 0)
(1.0367 -0.018557 0)
(1.04531 -0.0206039 0)
(1.0539 -0.0223561 0)
(1.06231 -0.0238122 0)
(1.07039 -0.0249851 0)
(1.07803 -0.0258982 0)
(1.0852 -0.0265831 0)
(1.09184 -0.0270658 0)
(1.09802 -0.0274265 0)
(1.00012 -0.00226855 0)
(1.00257 -0.00668252 0)
(1.00701 -0.0108641 0)
(1.01297 -0.0148684 0)
(1.02006 -0.0186773 0)
(1.02796 -0.0222328 0)
(1.03639 -0.025471 0)
(1.0451 -0.0283401 0)
(1.05384 -0.0308095 0)
(1.06243 -0.032872 0)
(1.07073 -0.0345415 0)
(1.07862 -0.0358473 0)
(1.08603 -0.0368317 0)
(1.09291 -0.0375297 0)
(1.09937 -0.0380556 0)
(1.00012 -0.00282495 0)
(1.00249 -0.00832265 0)
(1.0068 -0.0135533 0)
(1.01263 -0.0185924 0)
(1.01962 -0.0234171 0)
(1.02747 -0.0279529 0)
(1.03593 -0.0321138 0)
(1.04473 -0.0358267 0)
(1.05364 -0.0390442 0)