/*--------------------------------*- C++ -*----------------------------------*\
  =========                 |
  \\      /  F ield         | OpenFOAM: The Open Source CFD Toolbox
   \\    /   O peration     | Website:  https://openfoam.org
    \\  /    A nd           | Version:  7
     \\/     M anipulation  |
\*---------------------------------------------------------------------------*/
FoamFile
{
    version     2.0;
    format      ascii;
    class       volScalarField;
    location    "35";
    object      p;
}
// * * * * * * * * * * * * * * * * * * * * * * * * * * * * * * * * * * * * * //

dimensions      [0 2 -2 0 0 0 0];

internalField   nonuniform List<scalar> 
8500
(
-0.267044
-0.269
-0.269918
-0.270657
-0.271287
-0.271832
-0.272315
-0.272751
-0.273115
-0.273461
-0.267238
-0.269173
-0.270078
-0.270805
-0.271421
-0.271951
-0.272419
-0.272838
-0.273182
-0.273495
-0.267622
-0.269516
-0.270396
-0.271097
-0.271687
-0.272188
-0.272623
-0.273008
-0.273311
-0.273555
-0.268191
-0.270024
-0.270867
-0.271529
-0.272078
-0.272536
-0.272921
-0.273252
-0.273493
-0.273624
-0.268937
-0.270692
-0.271485
-0.272095
-0.272589
-0.272986
-0.273303
-0.273557
-0.273716
-0.273673
-0.269852
-0.271512
-0.272243
-0.272787
-0.273209
-0.273529
-0.273756
-0.27391
-0.273965
-0.273669
-0.270924
-0.272475
-0.273132
-0.273595
-0.27393
-0.274155
-0.27427
-0.274293
-0.274231
-0.273565
-0.272143
-0.273573
-0.274143
-0.274511
-0.274741
-0.274853
-0.274832
-0.274689
-0.274503
-0.273304
-0.273499
-0.274797
-0.275268
-0.275525
-0.275633
-0.275613
-0.275435
-0.275086
-0.274784
-0.272791
-0.274984
-0.27614
-0.276498
-0.276628
-0.276598
-0.276429
-0.276073
-0.275475
-0.275102
-0.271945
-0.276592
-0.277597
-0.277829
-0.277815
-0.277629
-0.277295
-0.276745
-0.275847
-0.275477
-0.271054
-0.278319
-0.279164
-0.279254
-0.279078
-0.278719
-0.278205
-0.27745
-0.276203
-0.275598
-0.270156
-0.280165
-0.280841
-0.280772
-0.280414
-0.279863
-0.279154
-0.278193
-0.276708
-0.275661
-0.268952
-0.282136
-0.282631
-0.282384
-0.281821
-0.281056
-0.280138
-0.278951
-0.277237
-0.275825
-0.267489
-0.284241
-0.284541
-0.284092
-0.283297
-0.282296
-0.281153
-0.279733
-0.277791
-0.276045
-0.265903
-0.286495
-0.286583
-0.285905
-0.284847
-0.28358
-0.282191
-0.280527
-0.278395
-0.276237
-0.264394
-0.288922
-0.288775
-0.287834
-0.28648
-0.284913
-0.283249
-0.281314
-0.279059
-0.276252
-0.263128
-0.291551
-0.29114
-0.289901
-0.288211
-0.286305
-0.284332
-0.282083
-0.279804
-0.275864
-0.262013
-0.29442
-0.293702
-0.292136
-0.290064
-0.287778
-0.285459
-0.282855
-0.280678
-0.275013
-0.261348
-0.29758
-0.296503
-0.294568
-0.292072
-0.289365
-0.286664
-0.283671
-0.28165
-0.274212
-0.265023
-0.301079
-0.299586
-0.297236
-0.294277
-0.291111
-0.28799
-0.284575
-0.282467
-0.274014
-0.279067
-0.304971
-0.303001
-0.300188
-0.296729
-0.293071
-0.289491
-0.285625
-0.283025
-0.274499
-0.278282
-0.309321
-0.306796
-0.303475
-0.299483
-0.295302
-0.291219
-0.28686
-0.283431
-0.275005
-0.275502
-0.314189
-0.311021
-0.307149
-0.302594
-0.297864
-0.293224
-0.28829
-0.283856
-0.275283
-0.272744
-0.319633
-0.315729
-0.311264
-0.306117
-0.300806
-0.295539
-0.289907
-0.284335
-0.275271
-0.269867
-0.325705
-0.320966
-0.31587
-0.310103
-0.304166
-0.298182
-0.291697
-0.28484
-0.274908
-0.267005
-0.332448
-0.326777
-0.321014
-0.314594
-0.307965
-0.301146
-0.293627
-0.285307
-0.27418
-0.264093
-0.339895
-0.333197
-0.326736
-0.319622
-0.312209
-0.304406
-0.295632
-0.285648
-0.273078
-0.261067
-0.348064
-0.340253
-0.333066
-0.325202
-0.316884
-0.307909
-0.297619
-0.285772
-0.271595
-0.257853
-0.356956
-0.347958
-0.340019
-0.331327
-0.321951
-0.311565
-0.299475
-0.285588
-0.269716
-0.254388
-0.366549
-0.356309
-0.347587
-0.337964
-0.327338
-0.31525
-0.301074
-0.285015
-0.267421
-0.250613
-0.376799
-0.365278
-0.355734
-0.345049
-0.332931
-0.318809
-0.302292
-0.283982
-0.264682
-0.246476
-0.387628
-0.374811
-0.364391
-0.35248
-0.338572
-0.322072
-0.30301
-0.282421
-0.261461
-0.241925
-0.398927
-0.384817
-0.373452
-0.360112
-0.344064
-0.324863
-0.303115
-0.280266
-0.257716
-0.236911
-0.41055
-0.395169
-0.382766
-0.36775
-0.349183
-0.327008
-0.302503
-0.277453
-0.253397
-0.231383
-0.422311
-0.405698
-0.392143
-0.375155
-0.353694
-0.328341
-0.301071
-0.273916
-0.248449
-0.22529
-0.433983
-0.416193
-0.401347
-0.382052
-0.357356
-0.328704
-0.298722
-0.269586
-0.242815
-0.218585
-0.445303
-0.426402
-0.410099
-0.388143
-0.359938
-0.327949
-0.295365
-0.264396
-0.236435
-0.211219
-0.455975
-0.436041
-0.418086
-0.393122
-0.361221
-0.325941
-0.290908
-0.258275
-0.22925
-0.20315
-0.465673
-0.444791
-0.424969
-0.396688
-0.361001
-0.322553
-0.285266
-0.251156
-0.221203
-0.194341
-0.474052
-0.452315
-0.430397
-0.398556
-0.359095
-0.317671
-0.278358
-0.242974
-0.212241
-0.184757
-0.480756
-0.458258
-0.434022
-0.398464
-0.355341
-0.311191
-0.270111
-0.233668
-0.202319
-0.174372
-0.485431
-0.462266
-0.435511
-0.396179
-0.349599
-0.303025
-0.260456
-0.223184
-0.1914
-0.163172
-0.487729
-0.46399
-0.434562
-0.391503
-0.341751
-0.293095
-0.249334
-0.21147
-0.179449
-0.151143
-0.487328
-0.463104
-0.430909
-0.384273
-0.331707
-0.281344
-0.236699
-0.198485
-0.166421
-0.138214
-0.483932
-0.45931
-0.424333
-0.374365
-0.319403
-0.267732
-0.222524
-0.184205
-0.152269
-0.124208
-0.477284
-0.452352
-0.414664
-0.361697
-0.3048
-0.25224
-0.206795
-0.168627
-0.136985
-0.108934
-0.467176
-0.442027
-0.401778
-0.346221
-0.287885
-0.234859
-0.189501
-0.151757
-0.120637
-0.0925364
-0.453449
-0.428189
-0.385602
-0.327929
-0.268667
-0.215588
-0.170638
-0.133629
-0.103231
-0.0756847
-0.435998
-0.410748
-0.366112
-0.306847
-0.247176
-0.194439
-0.150267
-0.114385
-0.0846811
-0.0582605
-0.41478
-0.389671
-0.343332
-0.283047
-0.223476
-0.171482
-0.12861
-0.093881
-0.0651492
-0.0401324
-0.389804
-0.364983
-0.317339
-0.256634
-0.197674
-0.146939
-0.105503
-0.0722338
-0.0447303
-0.021304
-0.361138
-0.33678
-0.288295
-0.227698
-0.169865
-0.120787
-0.081099
-0.0495325
-0.0234995
-0.00185438
-0.328904
-0.305237
-0.25646
-0.196239
-0.140159
-0.0931304
-0.0555049
-0.025873
-0.00153265
0.0181111
-0.293284
-0.270588
-0.221962
-0.162426
-0.10869
-0.0641087
-0.0288416
-0.00135435
0.021093
0.0385077
-0.254512
-0.233064
-0.18424
-0.127047
-0.0757183
-0.0338778
-0.00123745
0.023921
0.0442964
0.0592443
-0.212806
-0.192813
-0.144249
-0.0898962
-0.0414398
-0.00260951
0.0271784
0.0498584
0.0679405
0.0799824
-0.16842
-0.149792
-0.102772
-0.0512312
-0.00603875
0.0295251
0.0562939
0.07638
0.0917528
0.0999104
-0.121774
-0.104683
-0.0598033
-0.0113463
0.0302753
0.0623564
0.0860048
0.10339
0.11541
0.11847
-0.0732948
-0.0578274
-0.0155445
0.0294726
0.0672693
0.0957013
0.116155
0.130659
0.138824
0.137396
-0.0233019
-0.00966719
0.0296939
0.0709402
0.104701
0.129354
0.146496
0.157787
0.161963
0.161503
0.0277842
0.0393881
0.0755597
0.112763
0.142321
0.163092
0.176766
0.18464
0.185676
0.185764
0.0795247
0.0889345
0.121688
0.15464
0.179876
0.196688
0.206793
0.211283
0.209649
0.208799
0.131477
0.138563
0.167713
0.196265
0.217106
0.229911
0.236402
0.237593
0.233454
0.230923
0.183195
0.187863
0.213269
0.237333
0.253752
0.262543
0.265425
0.263394
0.256758
0.252127
0.234236
0.236422
0.257997
0.277542
0.289556
0.294367
0.293684
0.288509
0.279373
0.272441
0.284163
0.283839
0.301547
0.316594
0.324268
0.325169
0.320998
0.312763
0.301146
0.291824
0.332549
0.329718
0.343576
0.354203
0.357644
0.354744
0.347189
0.335998
0.321952
0.310217
0.37898
0.373681
0.383757
0.390091
0.389449
0.382892
0.372088
0.358063
0.341669
0.327547
0.423061
0.415363
0.421778
0.423993
0.419459
0.409423
0.395532
0.37882
0.360187
0.343738
0.464417
0.454423
0.457343
0.455661
0.447463
0.434157
0.417367
0.398138
0.377395
0.358715
0.502698
0.49054
0.490178
0.484863
0.473262
0.456924
0.43745
0.415895
0.393194
0.372406
0.53758
0.52342
0.520031
0.511383
0.496675
0.477571
0.455649
0.431978
0.407488
0.384745
0.56877
0.552796
0.546671
0.535029
0.517537
0.495956
0.471845
0.446284
0.420191
0.395672
0.596005
0.578429
0.569895
0.555627
0.535699
0.511954
0.485931
0.458723
0.431227
0.405135
0.619058
0.600113
0.589525
0.573026
0.551035
0.525457
0.497815
0.469214
0.440528
0.413088
0.637735
0.617673
0.605411
0.5871
0.563435
0.536371
0.507417
0.477689
0.448038
0.419494
0.65188
0.630968
0.617433
0.597746
0.572812
0.544622
0.514675
0.484094
0.453711
0.424325
0.661377
0.63989
0.625499
0.604887
0.579101
0.550155
0.51954
0.488387
0.457513
0.427557
0.666145
0.644369
0.629547
0.60847
0.582256
0.55293
0.521981
0.490541
0.459419
0.429177
0.666145
0.644369
0.629547
0.60847
0.582256
0.55293
0.521981
0.490541
0.459419
0.429177
0.661377
0.63989
0.625499
0.604887
0.579101
0.550155
0.51954
0.488387
0.457513
0.427557
0.65188
0.630967
0.617433
0.597746
0.572812
0.544622
0.514675
0.484094
0.453711
0.424325
0.637735
0.617673
0.605411
0.5871
0.563435
0.536371
0.507417
0.477689
0.448038
0.419494
0.619058
0.600113
0.589525
0.573026
0.551034
0.525457
0.497815
0.469214
0.440528
0.413088
0.596005
0.578429
0.569895
0.555626
0.535699
0.511954
0.485931
0.458723
0.431227
0.405135
0.56877
0.552796
0.546671
0.535029
0.517536
0.495956
0.471845
0.446284
0.420191
0.395672
0.53758
0.52342
0.52003
0.511383
0.496675
0.477571
0.455649
0.431978
0.407488
0.384745
0.502698
0.49054
0.490178
0.484862
0.473262
0.456924
0.437449
0.415894
0.393194
0.372406
0.464417
0.454423
0.457343
0.455661
0.447463
0.434156
0.417366
0.398138
0.377395
0.358715
0.423061
0.415363
0.421777
0.423993
0.419459
0.409423
0.395532
0.37882
0.360186
0.343738
0.37898
0.37368
0.383757
0.39009
0.389449
0.382892
0.372088
0.358063
0.341669
0.327547
0.332549
0.329718
0.343575
0.354203
0.357644
0.354744
0.347189
0.335997
0.321951
0.310217
0.284163
0.283838
0.301546
0.316594
0.324268
0.325169
0.320997
0.312763
0.301146
0.291824
0.234236
0.236422
0.257997
0.277541
0.289556
0.294366
0.293684
0.288509
0.279373
0.27244
0.183194
0.187862
0.213268
0.237333
0.253751
0.262543
0.265425
0.263394
0.256758
0.252126
0.131476
0.138563
0.167712
0.196264
0.217106
0.229911
0.236402
0.237592
0.233454
0.230923
0.0795239
0.0889338
0.121688
0.154639
0.179876
0.196687
0.206792
0.211283
0.209648
0.208799
0.0277834
0.0393874
0.075559
0.112762
0.142321
0.163092
0.176766
0.184639
0.185675
0.185763
-0.0233027
-0.00966798
0.0296932
0.0709396
0.1047
0.129354
0.146496
0.157787
0.161963
0.161503
-0.0732957
-0.0578282
-0.0155453
0.0294719
0.0672687
0.0957007
0.116154
0.130658
0.138824
0.137395
-0.121775
-0.104684
-0.0598041
-0.0113471
0.0302746
0.0623558
0.0860042
0.10339
0.11541
0.118469
-0.168421
-0.149793
-0.102772
-0.051232
-0.00603945
0.0295244
0.0562933
0.0763795
0.0917523
0.0999099
-0.212807
-0.192814
-0.14425
-0.089897
-0.0414405
-0.00261018
0.0271778
0.0498578
0.06794
0.0799819
-0.254513
-0.233065
-0.184241
-0.127048
-0.075719
-0.0338785
-0.0012381
0.0239204
0.0442959
0.0592437
-0.293285
-0.270589
-0.221962
-0.162427
-0.108691
-0.0641094
-0.0288422
-0.00135498
0.0210924
0.0385072
-0.328905
-0.305238
-0.256461
-0.19624
-0.14016
-0.0931311
-0.0555056
-0.0258737
-0.00153326
0.0181105
-0.361139
-0.336781
-0.288296
-0.227699
-0.169866
-0.120787
-0.0810997
-0.0495332
-0.0235001
-0.00185497
-0.389805
-0.364984
-0.31734
-0.256635
-0.197674
-0.146939
-0.105504
-0.0722345
-0.044731
-0.0213046
-0.414781
-0.389672
-0.343334
-0.283048
-0.223477
-0.171482
-0.128611
-0.0938817
-0.0651499
-0.040133
-0.436
-0.410749
-0.366113
-0.306848
-0.247177
-0.19444
-0.150267
-0.114386
-0.0846818
-0.0582611
-0.45345
-0.42819
-0.385603
-0.32793
-0.268668
-0.215589
-0.170638
-0.13363
-0.103231
-0.0756854
-0.467177
-0.442028
-0.401779
-0.346222
-0.287886
-0.23486
-0.189502
-0.151758
-0.120637
-0.0925371
-0.477286
-0.452353
-0.414665
-0.361698
-0.304801
-0.252241
-0.206796
-0.168628
-0.136985
-0.108935
-0.483933
-0.459311
-0.424334
-0.374366
-0.319404
-0.267733
-0.222525
-0.184206
-0.15227
-0.124209
-0.487329
-0.463105
-0.43091
-0.384274
-0.331708
-0.281345
-0.2367
-0.198486
-0.166422
-0.138214
-0.487731
-0.463992
-0.434563
-0.391504
-0.341752
-0.293096
-0.249335
-0.211471
-0.17945
-0.151143
-0.485432
-0.462267
-0.435512
-0.39618
-0.3496
-0.303026
-0.260457
-0.223185
-0.191401
-0.163173
-0.480758
-0.458259
-0.434023
-0.398465
-0.355342
-0.311192
-0.270112
-0.233669
-0.20232
-0.174373
-0.474053
-0.452316
-0.430398
-0.398557
-0.359097
-0.317672
-0.278359
-0.242975
-0.212242
-0.184758
-0.465674
-0.444793
-0.42497
-0.396689
-0.361002
-0.322554
-0.285267
-0.251157
-0.221204
-0.194342
-0.455977
-0.436042
-0.418087
-0.393123
-0.361222
-0.325942
-0.290909
-0.258276
-0.229251
-0.203151
-0.445305
-0.426404
-0.4101
-0.388144
-0.359939
-0.327951
-0.295366
-0.264397
-0.236436
-0.21122
-0.433984
-0.416194
-0.401348
-0.382053
-0.357357
-0.328705
-0.298723
-0.269587
-0.242816
-0.218586
-0.422312
-0.405699
-0.392145
-0.375156
-0.353695
-0.328342
-0.301072
-0.273917
-0.24845
-0.225291
-0.410552
-0.39517
-0.382768
-0.367751
-0.349184
-0.327009
-0.302504
-0.277454
-0.253398
-0.231384
-0.398929
-0.384818
-0.373453
-0.360113
-0.344065
-0.324864
-0.303116
-0.280267
-0.257717
-0.236912
-0.387629
-0.374812
-0.364393
-0.352481
-0.338573
-0.322074
-0.303011
-0.282422
-0.261462
-0.241926
-0.3768
-0.365279
-0.355735
-0.34505
-0.332932
-0.31881
-0.302293
-0.283983
-0.264683
-0.246477
-0.366551
-0.35631
-0.347588
-0.337965
-0.327339
-0.315251
-0.301075
-0.285016
-0.267422
-0.250614
-0.356957
-0.347959
-0.34002
-0.331328
-0.321952
-0.311566
-0.299476
-0.285589
-0.269717
-0.254389
-0.348065
-0.340254
-0.333067
-0.325203
-0.316885
-0.30791
-0.29762
-0.285773
-0.271596
-0.257854
-0.339897
-0.333198
-0.326737
-0.319623
-0.31221
-0.304407
-0.295633
-0.285649
-0.273079
-0.261068
-0.332449
-0.326778
-0.321015
-0.314595
-0.307966
-0.301147
-0.293628
-0.285308
-0.274181
-0.264094
-0.325706
-0.320967
-0.315871
-0.310104
-0.304167
-0.298183
-0.291698
-0.284841
-0.274909
-0.267006
-0.319634
-0.31573
-0.311265
-0.306118
-0.300807
-0.29554
-0.289908
-0.284336
-0.275273
-0.269868
-0.31419
-0.311022
-0.30715
-0.302595
-0.297865
-0.293225
-0.288291
-0.283857
-0.275284
-0.272746
-0.309322
-0.306797
-0.303476
-0.299484
-0.295303
-0.29122
-0.286861
-0.283432
-0.275007
-0.275504
-0.304972
-0.303002
-0.300189
-0.296731
-0.293072
-0.289492
-0.285626
-0.283026
-0.2745
-0.278283
-0.30108
-0.299587
-0.297237
-0.294278
-0.291112
-0.287991
-0.284576
-0.282469
-0.274016
-0.279069
-0.297581
-0.296504
-0.294569
-0.292073
-0.289366
-0.286665
-0.283672
-0.281652
-0.274214
-0.265025
-0.294422
-0.293703
-0.292137
-0.290065
-0.287779
-0.28546
-0.282856
-0.280679
-0.275014
-0.26135
-0.291552
-0.291141
-0.289902
-0.288212
-0.286306
-0.284333
-0.282084
-0.279805
-0.275865
-0.262015
-0.288923
-0.288776
-0.287835
-0.286481
-0.284914
-0.28325
-0.281316
-0.27906
-0.276254
-0.26313
-0.286496
-0.286584
-0.285906
-0.284848
-0.283581
-0.282193
-0.280528
-0.278396
-0.276239
-0.264396
-0.284242
-0.284542
-0.284093
-0.283298
-0.282297
-0.281154
-0.279734
-0.277792
-0.276046
-0.265905
-0.282137
-0.282632
-0.282385
-0.281822
-0.281057
-0.280139
-0.278952
-0.277238
-0.275826
-0.26749
-0.280166
-0.280842
-0.280773
-0.280415
-0.279864
-0.279155
-0.278194
-0.276709
-0.275663
-0.268954
-0.27832
-0.279165
-0.279255
-0.279079
-0.27872
-0.278206
-0.277452
-0.276204
-0.2756
-0.270158
-0.276593
-0.277598
-0.27783
-0.277816
-0.27763
-0.277296
-0.276746
-0.275848
-0.275478
-0.271056
-0.274985
-0.276141
-0.276499
-0.276629
-0.276599
-0.27643
-0.276074
-0.275476
-0.275104
-0.271947
-0.2735
-0.274798
-0.275268
-0.275525
-0.275634
-0.275614
-0.275436
-0.275087
-0.274786
-0.272793
-0.272144
-0.273574
-0.274144
-0.274512
-0.274742
-0.274853
-0.274833
-0.27469
-0.274505
-0.273306
-0.270924
-0.272476
-0.273132
-0.273596
-0.27393
-0.274156
-0.274271
-0.274294
-0.274232
-0.273567
-0.269852
-0.271513
-0.272244
-0.272788
-0.27321
-0.27353
-0.273757
-0.273911
-0.273966
-0.27367
-0.268938
-0.270693
-0.271486
-0.272096
-0.272589
-0.272987
-0.273303
-0.273558
-0.273716
-0.273674
-0.268191
-0.270025
-0.270867
-0.27153
-0.272079
-0.272536
-0.272922
-0.273252
-0.273494
-0.273624
-0.267622
-0.269516
-0.270396
-0.271097
-0.271687
-0.272188
-0.272624
-0.273009
-0.273312
-0.273556
-0.267238
-0.269173
-0.270078
-0.270805
-0.271421
-0.271952
-0.272419
-0.272839
-0.273182
-0.273495
-0.267044
-0.269001
-0.269918
-0.270657
-0.271287
-0.271832
-0.272315
-0.272751
-0.273115
-0.273461
-0.274962
-0.274031
-0.275429
-0.274865
-0.27513
-0.274334
-0.273446
-0.271722
-0.269413
-0.266155
-0.261878
-0.256332
-0.249233
-0.240565
-0.229718
-0.217217
-0.201747
-0.185571
-0.165702
-0.147458
-0.125451
-0.107096
-0.0868593
-0.06896
-0.0535486
-0.0360869
-0.0266099
-0.0110885
-0.00794147
0.00303114
-0.275086
-0.274063
-0.275489
-0.274911
-0.275177
-0.274382
-0.273493
-0.271772
-0.269465
-0.26621
-0.261938
-0.256396
-0.249304
-0.240641
-0.229796
-0.217297
-0.201826
-0.185648
-0.165772
-0.147525
-0.12551
-0.107152
-0.0869143
-0.0690096
-0.0535991
-0.0361287
-0.026649
-0.0111192
-0.00796506
0.00301386
-0.275332
-0.274123
-0.275606
-0.275003
-0.275269
-0.274476
-0.273586
-0.271869
-0.269566
-0.266319
-0.262055
-0.256522
-0.249447
-0.240789
-0.22995
-0.217457
-0.201982
-0.185803
-0.165913
-0.14766
-0.12563
-0.107264
-0.0870223
-0.069106
-0.0536971
-0.0362103
-0.0267259
-0.0111805
-0.00801254
0.00297902
-0.275692
-0.274205
-0.275774
-0.275133
-0.275402
-0.274611
-0.27372
-0.27201
-0.269712
-0.266477
-0.262225
-0.256704
-0.249646
-0.241004
-0.230175
-0.21769
-0.202213
-0.186033
-0.166124
-0.147862
-0.12581
-0.107431
-0.0871819
-0.0692482
-0.0538414
-0.036331
-0.0268397
-0.0112723
-0.0080831
0.00292692
-0.276154
-0.274299
-0.275983
-0.275297
-0.275567
-0.274781
-0.273889
-0.272188
-0.269899
-0.266679
-0.262442
-0.256939
-0.249903
-0.24128
-0.230464
-0.217993
-0.202513
-0.186332
-0.166399
-0.148126
-0.126046
-0.10765
-0.0873927
-0.0694344
-0.0540303
-0.0364899
-0.0269888
-0.0113939
-0.00817558
0.00285801
-0.276707
-0.274395
-0.276222
-0.275486
-0.275758
-0.274978
-0.274086
-0.272396
-0.270118
-0.266916
-0.262699
-0.257218
-0.250209
-0.24161
-0.230812
-0.218357
-0.202875
-0.186695
-0.166736
-0.14845
-0.126334
-0.107919
-0.0876525
-0.0696628
-0.0542616
-0.0366858
-0.0271714
-0.0115451
-0.00828853
0.00277283
-0.277334
-0.274481
-0.276477
-0.27569
-0.275963
-0.275192
-0.274301
-0.272626
-0.270361
-0.267182
-0.262988
-0.257533
-0.250555
-0.241986
-0.231208
-0.218774
-0.203292
-0.187115
-0.167128
-0.148832
-0.126675
-0.108231
-0.0879586
-0.0699311
-0.0545331
-0.0369173
-0.0273854
-0.011725
-0.00842029
0.002672
-0.278024
-0.274545
-0.276734
-0.275898
-0.276172
-0.275415
-0.274526
-0.272869
-0.27062
-0.267468
-0.2633
-0.257876
-0.250932
-0.242398
-0.231645
-0.219235
-0.203756
-0.187585
-0.167566
-0.149254
-0.127072
-0.108586
-0.0883088
-0.0702372
-0.0548422
-0.037183
-0.0276287
-0.011933
-0.00856902
0.00255617
-0.278787
-0.274568
-0.276978
-0.2761
-0.276372
-0.275633
-0.27475
-0.273115
-0.270885
-0.267763
-0.263626
-0.25823
-0.251331
-0.242836
-0.232112
-0.219733
-0.204257
-0.188097
-0.168053
-0.149717
-0.127512
-0.108981
-0.0887008
-0.0705785
-0.0551863
-0.0374814
-0.0278988
-0.0121682
-0.00873285
0.00242605
-0.279604
-0.274541
-0.2772
-0.276281
-0.276553
-0.275837
-0.274962
-0.273353
-0.271147
-0.268058
-0.263954
-0.258597
-0.251742
-0.243291
-0.2326
-0.220257
-0.204787
-0.188638
-0.168579
-0.150219
-0.127992
-0.109411
-0.0891323
-0.070953
-0.0555631
-0.0378109
-0.0281934
-0.0124297
-0.00890986
0.00228232
-0.280186
-0.274562
-0.277368
-0.276431
-0.276703
-0.276015
-0.275152
-0.273573
-0.271394
-0.268344
-0.264277
-0.259026
-0.252155
-0.243753
-0.233099
-0.220794
-0.205342
-0.189207
-0.169136
-0.150754
-0.128511
-0.109873
-0.0896008
-0.0713582
-0.05597
-0.0381698
-0.0285104
-0.0127165
-0.0090982
0.00212569
-0.280684
-0.274644
-0.277404
-0.276571
-0.276804
-0.276157
-0.275308
-0.273765
-0.271618
-0.268611
-0.264583
-0.259358
-0.252563
-0.244212
-0.2336
-0.221339
-0.20591
-0.189795
-0.169718
-0.151315
-0.129065
-0.110364
-0.0901038
-0.071792
-0.0564046
-0.0385566
-0.0288475
-0.0130274
-0.00929608
0.00195688
-0.281174
-0.274681
-0.277385
-0.276649
-0.276849
-0.27625
-0.275421
-0.27392
-0.271809
-0.268849
-0.264868
-0.259697
-0.252954
-0.24466
-0.234095
-0.221885
-0.206482
-0.190395
-0.17032
-0.151897
-0.129651
-0.110881
-0.0906389
-0.0722524
-0.0568646
-0.0389696
-0.0292027
-0.0133613
-0.00950184
0.0017766
-0.281623
-0.274685
-0.277295
-0.276653
-0.276829
-0.276282
-0.27548
-0.274026
-0.271958
-0.269048
-0.265071
-0.260002
-0.253319
-0.245087
-0.234573
-0.222421
-0.207052
-0.190999
-0.170939
-0.152495
-0.130266
-0.111421
-0.0912039
-0.0727375
-0.0573479
-0.0394071
-0.0295741
-0.0137167
-0.00971394
0.00158558
-0.281991
-0.274674
-0.277116
-0.276569
-0.276727
-0.27624
-0.275474
-0.274073
-0.272054
-0.269203
-0.265375
-0.26027
-0.25365
-0.245485
-0.235028
-0.222942
-0.207615
-0.191602
-0.171568
-0.153106
-0.130905
-0.111981
-0.0917957
-0.073245
-0.057852
-0.0398673
-0.0299596
-0.0140923
-0.00993091
0.0013846
-0.282227
-0.274642
-0.276833
-0.276383
-0.276531
-0.276111
-0.275391
-0.274052
-0.272087
-0.269297
-0.265506
-0.26049
-0.253938
-0.245847
-0.235452
-0.223438
-0.208162
-0.192196
-0.172201
-0.153723
-0.131564
-0.112556
-0.09241
-0.0737719
-0.0583736
-0.0403478
-0.0303569
-0.0144862
-0.0101514
0.00117448
-0.282208
-0.274551
-0.276447
-0.276082
-0.276229
-0.275888
-0.275222
-0.273951
-0.272049
-0.269323
-0.265594
-0.260656
-0.254174
-0.246162
-0.235835
-0.223901
-0.208684
-0.192774
-0.172832
-0.15434
-0.132239
-0.113145
-0.0930451
-0.074317
-0.058912
-0.0408476
-0.0307655
-0.0148974
-0.0103746
0.000955967
-0.28184
-0.274394
-0.275956
-0.275655
-0.275811
-0.275559
-0.274959
-0.273766
-0.271933
-0.269276
-0.265615
-0.260759
-0.254355
-0.246431
-0.23618
-0.224339
-0.209194
-0.193351
-0.173478
-0.154978
-0.132948
-0.113764
-0.0937159
-0.0748919
-0.0594767
-0.0413725
-0.0311896
-0.0153271
-0.0106013
0.00072947
-0.281419
-0.274098
-0.275278
-0.275017
-0.275197
-0.275059
-0.274552
-0.273459
-0.271719
-0.269155
-0.265562
-0.260802
-0.254488
-0.24667
-0.236511
-0.224778
-0.209723
-0.193959
-0.174171
-0.155662
-0.133713
-0.11443
-0.0944337
-0.0755037
-0.0600706
-0.0419242
-0.0316282
-0.0157747
-0.0108303
0.000495616
-0.278955
-0.27285
-0.274226
-0.274026
-0.27429
-0.274313
-0.273929
-0.27296
-0.271331
-0.268867
-0.265379
-0.260728
-0.254506
-0.246788
-0.236713
-0.225077
-0.210108
-0.194408
-0.174716
-0.156194
-0.134348
-0.114978
-0.095051
-0.076042
-0.0605972
-0.0424388
-0.032031
-0.0162136
-0.0110451
0.00025827
-0.267009
-0.270315
-0.273047
-0.272971
-0.27333
-0.273515
-0.273248
-0.272389
-0.270866
-0.268576
-0.265057
-0.260426
-0.254238
-0.246557
-0.236526
-0.224926
-0.210034
-0.194365
-0.174812
-0.156294
-0.134637
-0.115242
-0.0954649
-0.0764542
-0.0610387
-0.0429461
-0.0324257
-0.0167112
-0.0112735
-3.08764e-05
-0.26208
-0.267719
-0.270804
-0.270813
-0.271328
-0.271761
-0.271667
-0.270937
-0.269489
-0.267174
-0.263804
-0.259272
-0.253145
-0.245531
-0.235571
-0.224053
-0.209302
-0.193734
-0.174441
-0.156004
-0.134676
-0.115321
-0.0957959
-0.0768369
-0.0614896
-0.0435164
-0.032871
-0.0173047
-0.0115401
-0.000378919
-0.25885
-0.264326
-0.267342
-0.267676
-0.268486
-0.269248
-0.2694
-0.26886
-0.267552
-0.265378
-0.262102
-0.257654
-0.251594
-0.24406
-0.23419
-0.222777
-0.208207
-0.192774
-0.173799
-0.155485
-0.134548
-0.115275
-0.0960417
-0.077171
-0.061906
-0.0440854
-0.0333112
-0.0179193
-0.0118085
-0.000740218
-0.255284
-0.259707
-0.262465
-0.263414
-0.2647
-0.265888
-0.26638
-0.266112
-0.265022
-0.263047
-0.259913
-0.255591
-0.24964
-0.242226
-0.23249
-0.221218
-0.206881
-0.191618
-0.173018
-0.15486
-0.13436
-0.115196
-0.0962755
-0.0775186
-0.0623311
-0.0446885
-0.0337651
-0.0185694
-0.0120813
-0.00111514
-0.249952
-0.253821
-0.256297
-0.257985
-0.259896
-0.26159
-0.262504
-0.262587
-0.261787
-0.260063
-0.25714
-0.253002
-0.247216
-0.239968
-0.230423
-0.219338
-0.205294
-0.190246
-0.172082
-0.15412
-0.134103
-0.115084
-0.0964933
-0.0778807
-0.0627639
-0.0453254
-0.0342323
-0.0192522
-0.0123583
-0.00149977
-0.242599
-0.2468
-0.249123
-0.251513
-0.254123
-0.256372
-0.257757
-0.258249
-0.257796
-0.256379
-0.253722
-0.249839
-0.244272
-0.237245
-0.22795
-0.217103
-0.203418
-0.188635
-0.170968
-0.153252
-0.133759
-0.11493
-0.0966822
-0.0782491
-0.0631971
-0.0459887
-0.0347092
-0.019961
-0.0126391
-0.00188878
-0.233745
-0.238839
-0.241261
-0.244248
-0.247545
-0.250365
-0.252238
-0.253164
-0.253093
-0.252026
-0.24969
-0.246105
-0.240815
-0.234057
-0.225073
-0.214516
-0.201254
-0.186789
-0.169674
-0.152257
-0.133321
-0.11473
-0.0968357
-0.0786193
-0.0636269
-0.0466723
-0.0351941
-0.0206887
-0.0129239
-0.00227661
-0.223895
-0.230159
-0.232976
-0.236462
-0.240377
-0.243756
-0.246112
-0.247471
-0.247793
-0.247097
-0.245109
-0.241859
-0.236894
-0.230447
-0.221828
-0.211608
-0.198823
-0.184728
-0.168209
-0.151146
-0.132789
-0.114487
-0.0969501
-0.0789872
-0.0640506
-0.0473696
-0.0356854
-0.0214281
-0.0132133
-0.00265762
-0.213498
-0.220994
-0.224448
-0.228381
-0.232821
-0.236727
-0.239553
-0.241334
-0.242046
-0.241721
-0.24009
-0.237177
-0.232593
-0.226486
-0.218272
-0.208428
-0.196162
-0.182484
-0.166589
-0.149931
-0.132165
-0.114201
-0.0970229
-0.079348
-0.0644657
-0.0480734
-0.0361816
-0.0221713
-0.0135078
-0.00302636
-0.202948
-0.211547
-0.21579
-0.220162
-0.22504
-0.22943
-0.232712
-0.234901
-0.235991
-0.236031
-0.234763
-0.232209
-0.228003
-0.222258
-0.214477
-0.205038
-0.193318
-0.180094
-0.164839
-0.148631
-0.131457
-0.113876
-0.0970534
-0.0796965
-0.0648701
-0.048776
-0.0366811
-0.0229103
-0.0138076
-0.00337801
-0.192495
-0.201982
-0.207073
-0.211901
-0.217152
-0.221975
-0.225696
-0.228283
-0.229743
-0.230138
-0.229234
-0.227036
-0.223213
-0.217845
-0.210514
-0.201501
-0.190338
-0.177598
-0.162983
-0.147263
-0.130673
-0.113512
-0.097042
-0.0800277
-0.0652617
-0.0494697
-0.0371821
-0.0236376
-0.0141129
-0.00370861
-0.182287
-0.192435
-0.198352
-0.203657
-0.209239
-0.214443
-0.218581
-0.221558
-0.223381
-0.224123
-0.223581
-0.221736
-0.218301
-0.213318
-0.206443
-0.19787
-0.187266
-0.175029
-0.161046
-0.145841
-0.129823
-0.113112
-0.0969902
-0.0803368
-0.0656389
-0.0501476
-0.0376826
-0.0243464
-0.0144233
-0.00401532
-0.172424
-0.183019
-0.189682
-0.19547
-0.201358
-0.206893
-0.211421
-0.214779
-0.216961
-0.218044
-0.217859
-0.216368
-0.21332
-0.208726
-0.202309
-0.194186
-0.184134
-0.172415
-0.159048
-0.144379
-0.128917
-0.112678
-0.0968996
-0.0806192
-0.0660001
-0.0508034
-0.0381805
-0.0250306
-0.0147379
-0.00429642
-0.162976
-0.173826
-0.181123
-0.187377
-0.193554
-0.199378
-0.204258
-0.207983
-0.21052
-0.211939
-0.212106
-0.210968
-0.208309
-0.204107
-0.198145
-0.190478
-0.180968
-0.169775
-0.157007
-0.142885
-0.127962
-0.112209
-0.0967724
-0.0808714
-0.0663436
-0.0514316
-0.0386735
-0.0256855
-0.0150554
-0.00455134
-0.153986
-0.164935
-0.172738
-0.179419
-0.185868
-0.191942
-0.197136
-0.201207
-0.204091
-0.205841
-0.206354
-0.205568
-0.203295
-0.199488
-0.193976
-0.186769
-0.177788
-0.167126
-0.154936
-0.141368
-0.126968
-0.111708
-0.0966106
-0.08109
-0.0666681
-0.0520277
-0.039159
-0.0263072
-0.0153741
-0.00478048
-0.145488
-0.156407
-0.164589
-0.17164
-0.178338
-0.184629
-0.190096
-0.194487
-0.197705
-0.19978
-0.200632
-0.200194
-0.198302
-0.194891
-0.189821
-0.183075
-0.17461
-0.164477
-0.152848
-0.139833
-0.12594
-0.111174
-0.0964167
-0.0812731
-0.0669721
-0.0525881
-0.0396345
-0.026893
-0.0156917
-0.00498506
-0.137507
-0.148291
-0.156734
-0.164087
-0.171005
-0.177482
-0.183184
-0.187862
-0.191395
-0.193787
-0.194968
-0.194873
-0.193355
-0.190337
-0.185702
-0.179414
-0.171451
-0.161842
-0.150754
-0.138286
-0.124888
-0.11061
-0.0961931
-0.081419
-0.0672544
-0.05311
-0.040097
-0.0274409
-0.0160056
-0.0051669
-0.130057
-0.140627
-0.149225
-0.156808
-0.163908
-0.170543
-0.176442
-0.181375
-0.1852
-0.187896
-0.189395
-0.189634
-0.18848
-0.18585
-0.181638
-0.175804
-0.168327
-0.159233
-0.148668
-0.136736
-0.123818
-0.11002
-0.0959428
-0.0815276
-0.0675137
-0.0535917
-0.0405435
-0.0279499
-0.016313
-0.00532814
-0.123146
-0.133443
-0.142104
-0.149848
-0.157091
-0.163853
-0.169916
-0.175068
-0.179159
-0.182142
-0.183945
-0.184508
-0.183705
-0.181455
-0.177654
-0.172263
-0.165256
-0.156664
-0.146603
-0.135192
-0.12274
-0.109407
-0.0956691
-0.0815993
-0.067749
-0.0540318
-0.0409711
-0.0284197
-0.0166107
-0.00547096
-0.116776
-0.126761
-0.135409
-0.14325
-0.150594
-0.157455
-0.163649
-0.168987
-0.173314
-0.176564
-0.178656
-0.179529
-0.179063
-0.17718
-0.173776
-0.168814
-0.162259
-0.154151
-0.144574
-0.133663
-0.121663
-0.108777
-0.0953757
-0.081636
-0.0679593
-0.05443
-0.0413763
-0.0288505
-0.0168957
-0.00559745
-0.110947
-0.120595
-0.129172
-0.137053
-0.144458
-0.151388
-0.157684
-0.163177
-0.167711
-0.171205
-0.173566
-0.174733
-0.174588
-0.173056
-0.170031
-0.16548
-0.159358
-0.151712
-0.142598
-0.132164
-0.120598
-0.108138
-0.095067
-0.0816403
-0.0681439
-0.0547865
-0.0417559
-0.0292429
-0.0171651
-0.00570949
-0.105655
-0.114957
-0.123419
-0.131293
-0.138723
-0.145696
-0.152067
-0.157685
-0.162395
-0.166108
-0.168718
-0.17016
-0.170316
-0.169116
-0.16645
-0.162289
-0.156578
-0.149369
-0.140692
-0.130709
-0.119556
-0.107498
-0.0947484
-0.0816158
-0.0683025
-0.0551021
-0.0421071
-0.0295975
-0.0174161
-0.00580861
-0.100897
-0.109856
-0.118173
-0.126004
-0.133429
-0.140419
-0.146841
-0.152558
-0.157417
-0.161322
-0.164157
-0.165853
-0.166289
-0.165398
-0.163067
-0.159272
-0.153945
-0.147144
-0.138879
-0.129314
-0.118552
-0.106868
-0.0944261
-0.0815673
-0.0684356
-0.0553779
-0.042427
-0.0299151
-0.0176463
-0.00589599
-0.0966709
-0.105301
-0.113455
-0.121217
-0.128614
-0.135601
-0.142053
-0.147844
-0.152825
-0.156896
-0.159933
-0.161858
-0.16255
-0.161943
-0.159921
-0.156462
-0.15149
-0.145065
-0.137179
-0.127999
-0.117599
-0.106259
-0.0941072
-0.0815
-0.068544
-0.0556155
-0.0427135
-0.0301959
-0.0178538
-0.00597242
-0.0929782
-0.101302
-0.109289
-0.116966
-0.124317
-0.131286
-0.137752
-0.143596
-0.148676
-0.152886
-0.156097
-0.158227
-0.159147
-0.158795
-0.157052
-0.153897
-0.149246
-0.14316
-0.135618
-0.126785
-0.116715
-0.105686
-0.0938002
-0.0814203
-0.0686295
-0.0558163
-0.0429647
-0.0304401
-0.0180369
-0.00603834
-0.0898253
-0.0978733
-0.105699