/*--------------------------------*- C++ -*----------------------------------*\
  =========                 |
  \\      /  F ield         | OpenFOAM: The Open Source CFD Toolbox
   \\    /   O peration     | Website:  https://openfoam.org
    \\  /    A nd           | Version:  7
     \\/     M anipulation  |
\*---------------------------------------------------------------------------*/
FoamFile
{
    version     2.0;
    format      ascii;
    class       surfaceScalarField;
    location    "35";
    object      phi;
}
// * * * * * * * * * * * * * * * * * * * * * * * * * * * * * * * * * * * * * //

dimensions      [0 3 -1 0 0 0 0];

internalField   nonuniform List<scalar> 
16735
(
-7.32278e-05
7.32102e-05
1.75721e-08
-0.000261092
0.000187822
4.21199e-08
-0.000544403
0.000283251
5.97494e-08
-0.000904274
0.0003598
7.15564e-08
-0.00132363
0.000419274
7.90508e-08
-0.00178897
0.000465256
8.38002e-08
-0.00229251
0.00050346
8.7029e-08
-0.00283499
0.000542385
8.93276e-08
-0.00342776
0.000592676
9.05422e-08
0.000667156
8.96448e-08
-0.004095
-7.24081e-05
0.000145618
-0.000258246
0.000373659
-0.000538408
0.000563413
-0.000893928
0.00071532
-0.00130744
0.000832791
-0.00176492
0.000922728
-0.00225771
0.000996256
-0.00278551
0.00107018
-0.00335882
0.00116598
0.00130958
-0.00400124
-7.08028e-05
0.000216421
-0.000252654
0.00055551
-0.000526605
0.000837364
-0.000873529
0.00106224
-0.00127551
0.00123477
-0.00171743
0.00136464
-0.00218893
0.00146776
-0.00268757
0.00156882
-0.00322204
0.00170046
0.00190206
-0.00381452
-6.84778e-05
0.000284899
-0.00024451
0.000731543
-0.000509352
0.00110221
-0.00084364
0.00139653
-0.00122865
0.00161978
-0.00164766
0.00178366
-0.00208775
0.00190785
-0.00254314
0.0020242
-0.00301958
0.0021769
0.00241882
-0.00353634
-6.55244e-05
0.000350423
-0.000234082
0.0009001
-0.000487142
0.00135527
-0.000805022
0.00171441
-0.00116797
0.00198272
-0.0015572
0.00217289
-0.00195635
0.00230701
-0.00235495
0.0024228
-0.00275449
0.00257643
0.00283312
-0.00316879
-6.20526e-05
0.000412476
-0.000221687
0.00105973
-0.000460551
0.00159413
-0.000758556
0.00201242
-0.00109472
0.00231889
-0.00144783
0.00252599
-0.00179722
0.00265641
-0.00212623
0.00275181
-0.0024305
0.0028807
0.00311694
-0.00271432
-5.81812e-05
0.000470657
-0.000207664
0.00120922
-0.000430178
0.00181664
-0.00070512
0.00228736
-0.00101014
0.00262391
-0.00132124
0.00283709
-0.00161276
0.00294794
-0.00186018
0.00299922
-0.00205142
0.00307195
0.00324116
-0.00217564
-5.40292e-05
0.000524686
-0.000192344
0.00134753
-0.000396576
0.00202088
-0.000645469
0.00253625
-0.000915158
0.0028936
-0.00117865
0.00310058
-0.00140469
0.00317398
-0.00155917
0.00315369
-0.00162025
0.00313303
0.00317647
-0.00155556
-4.97072e-05
0.000574394
-0.000176017
0.00147384
-0.000360189
0.00220505
-0.0005801
0.00275616
-0.000810208
0.00312371
-0.00102035
0.00331072
-0.00117325
0.00332688
-0.00122347
0.00320391
-0.00113712
0.00304668
0.0028974
-0.000858043
-4.53111e-05
0.000619705
-0.000158914
0.00158744
-0.000321295
0.00236743
-0.000509135
0.002944
-0.000694968
0.00330954
-0.000845239
0.00346099
-0.000916381
0.00339802
-0.000849458
0.00313699
-0.000592738
0.00278996
0.00240836
-0.000103702
-4.09184e-05
0.000660623
-0.000141188
0.00168771
-0.000279968
0.00250621
-0.000432245
0.00309628
-0.000568192
0.00344549
-0.000650515
0.00354331
-0.000629334
0.00337684
-0.000430818
0.00293847
5.2216e-05
0.00230692
0.00163647
0.000824102
-3.65865e-05
0.00069721
-0.000122907
0.00177403
-0.000236062
0.00261936
-0.000348604
0.00320882
-0.000427601
0.00352449
-0.000431296
0.00354701
-0.000303319
0.00324887
3.18261e-05
0.00260333
0.000724188
0.00161456
0.00049358
0.00186708
-3.23536e-05
0.000729563
-0.000104055
0.00184574
-0.000189211
0.00270452
-0.000256905
0.00327652
-0.00026989
0.00353747
-0.000180647
0.00345776
7.69253e-05
0.00299129
0.000598463
0.00208179
0.00153736
0.000675664
-0.00103692
0.00306785
-2.82372e-05
0.0007578
-8.45268e-05
0.00190203
-0.000138845
0.00275884
-0.000155441
0.00329311
-9.10062e-05
0.00347304
0.000109779
0.00325698
0.000522818
0.00257825
0.00125992
0.00134469
0.00251272
-0.000577133
-0.00299338
0.00446918
-2.42296e-05
0.00078203
-6.41184e-05
0.00194191
-8.41762e-05
0.0027789
-4.2114e-05
0.00325105
0.000113725
0.0033172
0.000449605
0.0029211
0.00105504
0.00197282
0.00205611
0.000343619
0.0036963
-0.00221732
-0.00540945
0.00611237
-2.0287e-05
0.000802317
-4.24921e-05
0.00196412
-2.41254e-05
0.00276053
8.55306e-05
0.00314139
0.000349461
0.00305327
0.000848653
0.0024219
0.0016908
0.00113067
0.00301717
-0.000982746
0.00513293
-0.00433309
-0.00830151
0.008025
-1.63122e-05
0.000818629
-1.90957e-05
0.0019669
4.25917e-05
0.00269884
0.000230452
0.00295353
0.000621844
0.00266188
0.00131692
0.00172683
0.00244673
8.55091e-07
0.00416938
-0.00270539
0.00684956
-0.00701326
-0.0116552
0.0102033
-1.21469e-05
0.000830776
6.87251e-06
0.00194788
0.000117862
0.00258785
0.00039629
0.00267511
0.000937234
0.00212093
0.00186446
0.000799607
0.00333727
-0.00147196
0.00553474
-0.00490287
0.00884032
-0.0103188
-0.0154177
0.0126028
-7.6114e-06
0.000838387
3.5905e-05
0.00190437
0.000204081
0.00241968
0.000587541
0.00229165
0.00130287
0.0014056
0.00250148
-0.000399006
0.00437375
-0.00334422
0.00713143
-0.00766055
0.0110664
-0.0142538
-0.0195028
0.0151515
-2.08624e-06
0.000840474
7.00787e-05
0.0018322
0.000304341
0.00218541
0.000809585
0.0017864
0.00172671
0.000488471
0.00323711
-0.0019094
0.0055601
-0.00566721
0.00895056
-0.011051
0.013496
-0.0187992
-0.0237855
0.0177786
4.80816e-06
0.000835666
0.000110821
0.00172619
0.000422212
0.00187402
0.0010685
0.00114011
0.00221695
-0.000659984
0.00407809
-0.00377054
0.006888
-0.00847711
0.0109044
-0.0150674
0.0159721
-0.0238669
-0.0314463
0.0236328
1.33683e-05
0.000822297
0.000159954
0.0015796
0.000561579
0.0014724
0.00137057
0.000331125
0.00278108
-0.0020705
0.00502734
-0.0060168
0.00834186
-0.0117916
0.0129119
-0.0196374
0.0184541
-0.0294091
-0.0387716
0.0257794
2.44086e-05
0.000797889
0.000219407
0.0013846
0.000726253
0.000965552
0.00172141
-0.000664033
0.00342412
-0.00377321
0.00608063
-0.00867332
0.00989121
-0.0156022
0.0149015
-0.0246477
0.0207452
-0.0352529
-0.0456461
0.0276197
3.84342e-05
0.000759454
0.000290935
0.0011321
0.000919486
0.000337001
0.00212487
-0.00186942
0.00414623
-0.00579456
0.00722234
-0.0117494
0.0114823
-0.0198622
0.0167953
-0.0299607
0.0226832
-0.0411407
-0.0519694
0.0290065
5.59119e-05
0.000703543
0.000375954
0.000812062
0.00114347
-0.000430512
0.00258189
-0.00330784
0.00494041
-0.00815308
0.00842251
-0.0152315
0.0130423
-0.0244819
0.0184843
-0.0354028
0.024182
-0.0468383
-0.0576399
0.0298524
7.72058e-05
0.000626337
0.000475386
0.000413882
0.00139893
-0.00135405
0.00308967
-0.00499858
0.00579104
-0.0108545
0.00963657
-0.0190771
0.0144893
-0.0293346
0.0198739
-0.0407873
0.0251979
-0.0521623
-0.0626108
0.0301688
0.000102554
0.000523782
0.000589574
-7.31379e-05
0.00168486
-0.00244934
0.00364097
-0.00695469
0.00667342
-0.0138869
0.0108091
-0.0232127
0.0157457
-0.0342712
0.0209031
-0.0459448
0.0257352
-0.0569944
-0.0668958
0.0300202
0.000132063
0.000391719
0.000718214
-0.000659289
0.00199833
-0.00372946
0.00422396
-0.00918032
0.00755497
-0.0172179
0.0118812
-0.0275389
0.0167503
-0.0391403
0.0215493
-0.0507438
0.025834
-0.0612791
-0.0705464
0.0294846
0.000165703
0.000226017
0.000860318
-0.0013539
0.00233434
-0.00520348
0.00482222
-0.0116682
0.00839789
-0.0207936
0.0127992
-0.0319402
0.0174668
-0.0438079
0.0218231
-0.0551001
0.025554
-0.06501
-0.073635
0.0286426
0.000203304
2.27129e-05
0.00101419
-0.00216479
0.00268586
-0.00687515
0.00541547
-0.0143978
0.00916342
-0.0245415
0.0135222
-0.036299
0.017884
-0.0481696
0.0217573
-0.0589734
0.0249616
-0.0682143
-0.0762394
0.0275661
0.000244547
-0.000221834
0.00117738
-0.00309761
0.00304383
-0.00874161
0.00598087
-0.0173349
0.00981651
-0.0283772
0.0140262
-0.0405087
0.0180121
-0.0521556
0.0213972
-0.0623585
0.0241209
-0.0709381
-0.0784337
0.0263152
0.000288965
-0.000510799
0.00134671
-0.00415536
0.00339754
-0.0107924
0.00649507
-0.0204324
0.0103299
-0.032212
0.0143037
-0.0444825
0.0178761
-0.055728
0.020792
-0.0652743
0.023089
-0.0732351
-0.0802824
0.0249378
0.000335906
-0.000846705
0.00151831
-0.00533776
0.00373509
-0.0130092
0.00693651
-0.0236338
0.0106865
-0.0359621
0.0143613
-0.0481572
0.017509
-0.0588757
0.0199894
-0.0677547
0.0219138
-0.0751596
-0.0818393
0.0234707
0.000384548
-0.00123125
0.00168769
-0.0066409
0.00404419
-0.0153657
0.00728755
-0.0268772
0.0108798
-0.0395543
0.0142157
-0.0514931
0.0169467
-0.0616067
0.0190325
-0.0698406
0.020634
-0.0767611
-0.0831466
0.0219413
0.000433905
-0.00166516
0.00184993
-0.00805692
0.00431316
-0.017829
0.00753597
-0.0301
0.0109121
-0.0429304
0.0138895
-0.0544705
0.0162246
-0.0639418
0.0179582
-0.0715741
0.0192799
-0.0780828
-0.0842366
0.0203699
0.000482846
-0.002148
0.00199993
-0.00957401
0.00453182
-0.0203608
0.0076755
-0.0332437
0.0107931
-0.046048
0.0134083
-0.0570857
0.0153755
-0.0659091
0.0167971
-0.0729956
0.0178747
-0.0791605
-0.0851331
0.0187712
0.000530138
-0.00267814
0.0021327
-0.0111766
0.00469232
-0.0229205
0.00770549
-0.0362568
0.010537
-0.0488795
0.0127977
-0.0593464
0.0144281
-0.0675395
0.0155739
-0.0741415
0.0164361
-0.0800226
-0.0858531
0.0171561
0.000574497
-0.00325264
0.00224367
-0.0128457
0.0047896
-0.0254664
0.00763
-0.0390972
0.0101606
-0.0514101
0.012082
-0.0612678
0.0134069
-0.0688644
0.0143083
-0.0750429
0.0149771
-0.0806914
-0.0864087
0.0155326
0.000614647
-0.00386729
0.00232898
-0.0145601
0.0048215
-0.0279589
0.00745655
-0.0417323
0.00968156
-0.0536352
0.0112835
-0.0628698
0.0123325
-0.0699133
0.0130155
-0.0757259
0.0135076
-0.0811835
-0.0868079
0.0139068
0.000649377
-0.00451666
0.00238569
-0.0162964
0.00478855
-0.0303618
0.00719496
-0.0441387
0.00911732
-0.0555575
0.0104217
-0.0641741
0.0112214
-0.070713
0.0117072
-0.0762117
0.012035
-0.0815113
-0.0870566
0.0122837
0.000677605
-0.00519427
0.00241194
-0.0180307
0.00469356
-0.0326434
0.00685627
-0.0463014
0.00848429
-0.0571855
0.00951319
-0.065203
0.0100872
-0.071287
0.0103926
-0.0765172
0.010565
-0.0816837
-0.0871589
0.0106672
0.000698418
-0.00589269
0.00240698
-0.0197393
0.00454105
-0.0347775
0.0064519
-0.0482123
0.00779738
-0.058531
0.00857221
-0.0659778
0.00894046
-0.0716552
0.00907857
-0.0766553
0.00910196
-0.0817071
-0.087117
0.00906004
0.00071111
-0.0066038
0.00237108
-0.0213993
0.00433669
-0.0367431
0.00599304
-0.0498686
0.00706982
-0.0596078
0.00761046
-0.0665185
0.00778977
-0.0718346
0.00777055
-0.076636
0.00764939
-0.0815859
-0.0869322
0.00746466
0.000715201
-0.007319
0.0023054
-0.0229895
0.00408681
-0.0385245
0.0054903
-0.0512721
0.00631314
-0.0604306
0.00663755
-0.0668429
0.00664172
-0.0718387
0.00647263
-0.076467
0.00621001
-0.0813233
-0.0866052
0.00588297
0.00071044
-0.00802944
0.00221185
-0.0244909
0.00379797
-0.0401106
0.00495338
-0.0524275
0.00553721
-0.0610145
0.00566139
-0.0669671
0.00550163
-0.071679
0.00518809
-0.0761534
0.00478591
-0.0809211
-0.0861356
0.00431631
0.000696801
-0.00872624
0.00209285
-0.0258869
0.00347665
-0.0414944
0.00439101
-0.0533419
0.00475037
-0.0613738
0.0046884
-0.0669051
0.00437398
-0.0713645
0.00392019
-0.0756996
0.00337873
-0.0803797
-0.0855217
0.0027649
0.000674466
-0.00940071
0.00195115
-0.0271636
0.00312906
-0.0426723
0.00381087
-0.0540237
0.0039596
-0.0615225
0.00372373
-0.0666692
0.00326254
-0.0709033
0.00267298
-0.0751101
0.00199075
-0.0796975
-0.0847551
0.00122412
0.000643828
-0.0100445
0.00178983
-0.0283096
0.00276097
-0.0436434
0.00321966
-0.0544824
0.00317066
-0.0614735
0.00277144
-0.06627
0.00217011
-0.070302
0.00144942
-0.0743894
0.000633399
-0.0788814
-0.0838102
-0.000311522
0.000605459
-0.01065
0.00161212
-0.0293163
0.00237772
-0.0444091
0.00262314
-0.0547278
0.00238828
-0.0612387
0.00183478
-0.0657165
0.00109891
-0.0695661
0.000242015
-0.0735325
-0.00069932
-0.0779401
-0.0827617
-0.00174782
0.00056006
-0.0112101
0.00142101
-0.0301772
0.00198414
-0.0449722
0.00202624
-0.0547699
0.00161622
-0.0608287
0.000916615
-0.0650169
4.2373e-05
-0.0686919
-0.000928535
-0.0725616
-0.00201181
-0.0768568
-0.0815922
-0.00318126
0.000508433
-0.0117185
0.0012194
-0.0308882
0.00158461
-0.0453374
0.00143312
-0.0546184
0.000857325
-0.0602529
1.28917e-05
-0.0641725
-0.000972626
-0.0677064
-0.00207544
-0.0714587
-0.00328828
-0.075644
-0.0802901
-0.00459038
0.000451479
-0.01217
0.00101006
-0.0314467
0.0011829
-0.0455102
0.000847156
-0.0542827
0.00011579
-0.0595215
-0.000854062
-0.0632026
-0.0019692
-0.0665912
-0.00319504
-0.0702329
-0.00453382
-0.0743052
-0.0788555
-0.00596843
0.000390186
-0.0125601
0.000795869
-0.0318524
0.000781917
-0.0454963
0.000272646
-0.0537734
-0.000606891
-0.058642
-0.00170523
-0.0621043
-0.00293946
-0.065357
-0.00428507
-0.0688873
-0.00574807
-0.0728422
-0.0772907
-0.00731288
0.000325474
-0.0128856
0.000579879
-0.0321068
0.000385064
-0.0453015
-0.000290625
-0.0530977
-0.00131048
-0.0576221
-0.0025321
-0.0608827
-0.00388207
-0.064007
-0.00534457
-0.0674248
-0.00692971
-0.0712571
-0.0755999
-0.00862057
0.00025815
-0.0131438
0.000364035
-0.0322127
1.50068e-05
-0.0449524
-0.000837579
-0.0522451
-0.00199406
-0.0564656
-0.00333378
-0.0595429
-0.00479629
-0.0625445
-0.00637289
-0.0658482
-0.0080773
-0.0695527
-0.0737894
-0.00988772
0.00018983
-0.0133336
0.000150258
-0.0321731
-0.000393431
-0.0444088
-0.00137411
-0.0512644
-0.00265588
-0.0551839
-0.00410939
-0.0580894
-0.00568135
-0.0609726
-0.00736929
-0.0641602
-0.00918957
-0.0677324
-0.0718645
-0.0111145
0.000119267
-0.0134529
-5.68052e-05
-0.0319971
-0.000769149
-0.0436964
-0.00189399
-0.0501396
-0.00329525
-0.0537826
-0.00485822
-0.0565265
-0.00653682
-0.059294
-0.00833326
-0.0623638
-0.0102666
-0.0657991
-0.0698225
-0.0123085
4.34837e-05
-0.0134964
-0.000287938
-0.0316657
-0.00113566
-0.0428487
-0.00239514
-0.0488801
-0.00391143
-0.0522663
-0.00558
-0.0548579
-0.00736301
-0.057511
-0.00926585
-0.060461
-0.0113074
-0.0637576
-0.0676633
-0.0134666
-3.19828e-05
-0.0134644
-0.000501967
-0.0311957
-0.00149096
-0.0418597
-0.00287696
-0.0474941
-0.00450327
-0.05064
-0.00627415
-0.053087
-0.00816054
-0.0556246
-0.0101703
-0.0584512
-0.0123066
-0.0616212
-0.0654016
-0.0145684
-0.000102919
-0.0133615
-0.000707618
-0.030591
-0.00183333
-0.040734
-0.00333904
-0.0459884
-0.00507004
-0.048909
-0.00693962
-0.0512174
-0.00892739
-0.0536368
-0.0110453
-0.0563333
-0.0133033
-0.0593632
-0.0631758
-0.0155291
-0.000174364
-0.0131871
-0.00090612
-0.0298592
-0.00216187
-0.0394782
-0.00378078
-0.0443695
-0.00561122
-0.0470786
-0.00757539
-0.0492533
-0.00965878
-0.0515534
-0.0118623
-0.0541297
-0.0141516
-0.0570739
-0.0604518
-0.0168756
-0.000244467
-0.0129426
-0.00109738
-0.0290063
-0.00247596
-0.0380996
-0.00420174
-0.0426437
-0.00612661
-0.0451537
-0.00818085
-0.047199
-0.0103515
-0.0493828
-0.0126346
-0.0518466
-0.0150473
-0.0546612
-0.0577427
-0.0177564
-0.000312628
-0.01263
-0.00128091
-0.028038
-0.00277513
-0.0366054
-0.00460153
-0.0408173
-0.0066159
-0.0431393
-0.00875589
-0.045059
-0.0110117
-0.047127
-0.0133879
-0.0494704
-0.0159179
-0.0521312
-0.0550041
-0.0186565
-0.000378464
-0.0122515
-0.00145621
-0.0269603
-0.00305898
-0.0350026
-0.00497984
-0.0388965
-0.00707866
-0.0410405
-0.00929971
-0.042838
-0.0116365
-0.0447902
-0.0140991
-0.0470079
-0.0167174
-0.0495129
-0.0522099
-0.0195116
-0.000441666
-0.0118099
-0.0016228
-0.0257792
-0.00332718
-0.0332983
-0.00533646
-0.0368872
-0.00751476
-0.0388622
-0.00981255
-0.0405402
-0.012227
-0.0423758
-0.0147709
-0.0444639
-0.017469
-0.0468149
-0.0493499
-0.020329
-0.00050196
-0.0113079
-0.00178028
-0.0245008
-0.00357942
-0.0314991
-0.00567119
-0.0347954
-0.00792403
-0.0366093
-0.0102942
-0.0381701
-0.0127818
-0.0398881
-0.0154013
-0.0418444
-0.0181732
-0.044043
-0.0464201
-0.0211029
-0.000559109
-0.0107488
-0.00192831
-0.0231316
-0.00381548
-0.029612
-0.0059839
-0.032627
-0.00830637
-0.0342869
-0.0107444
-0.035732
-0.0133009
-0.0373316
-0.0159907
-0.0391545
-0.0188323
-0.0412014
-0.043421
-0.0218315
-0.000612899
-0.0101359
-0.00206661
-0.0216779
-0.00403516
-0.0276434
-0.0062745
-0.0303877
-0.0086617
-0.0318997
-0.0111631
-0.0332306
-0.0137838
-0.0347109
-0.0165391
-0.0363992
-0.0194465
-0.0382941
-0.0403545
-0.0225129
-0.000663145
-0.00947275
-0.00219494
-0.0201461
-0.00423831
-0.0256
-0.0065429
-0.0280831
-0.00898994
-0.0294526
-0.0115501
-0.0306704
-0.0142304
-0.0320306
-0.0170465
-0.0335831
-0.0200154
-0.0353252
-0.0372243
-0.0231456
-0.000709684
-0.00876307
-0.00231311
-0.0185427
-0.00442481
-0.0234883
-0.00678905
-0.0257188
-0.00929103
-0.0269506
-0.0119053
-0.0280562
-0.0146405
-0.0292955
-0.0175126
-0.030711
-0.0205386
-0.0322991
-0.0340344
-0.0237285
-0.000752377
-0.00801069
-0.00242094
-0.0168741
-0.00459456
-0.0213147
-0.00701291
-0.0233005
-0.00956491
-0.0243986
-0.0122286
-0.0253925
-0.0150138
-0.0265102
-0.0179372
-0.0277877
-0.0210157
-0.0292206
-0.0307897
-0.0242605
-0.000791103
-0.00721958
-0.00251831
-0.0151469
-0.00474748
-0.0190855
-0.00721444
-0.0208335
-0.00981152
-0.0218016
-0.0125198
-0.0226842
-0.0153503
-0.0236796
-0.0183201
-0.0248179
-0.0214462
-0.0260945
-0.027495
-0.0247408
-0.00082576
-0.00639382
-0.0026051
-0.0133676
-0.00488353
-0.0168071
-0.00739362
-0.0183234
-0.0100308
-0.0191644
-0.0127789
-0.0199362
-0.0156498
-0.0208087
-0.018661
-0.0218068
-0.0218295
-0.022926
-0.0241558
-0.0251687
-0.00085626
-0.00553756
-0.00268121
-0.0115427
-0.00500265
-0.0144857
-0.00755043
-0.0157756
-0.0102228
-0.016492
-0.0130057
-0.0171532
-0.0159122
-0.0179022
-0.0189597
-0.0187593
-0.0221655
-0.0197202
-0.0207775
-0.0255438
-0.00088253
-0.00465504
-0.00274658
-0.00967861
-0.00510481
-0.0121274
-0.00768486
-0.0131956
-0.0103874
-0.0137895
-0.0132003
-0.0143403
-0.0161373
-0.0149652
-0.019216
-0.0156806
-0.0224538
-0.0164824
-0.0173657
-0.0258656
-0.000904509
-0.00375053
-0.00280114
-0.00778198
-0.00518997
-0.00973861
-0.00779689
-0.0105887
-0.0105246
-0.0110618
-0.0133625
-0.0115024
-0.016325
-0.0120028
-0.0194297
-0.0125758
-0.0226942
-0.0132179
-0.013926
-0.026134
-0.000922149
-0.00282838
-0.00284484
-0.00585928
-0.00525813
-0.00732532
-0.00788652
-0.00796028
-0.0106343
-0.008314
-0.0134924
-0.00864434
-0.0164752
-0.00901999
-0.0196009
-0.00945017
-0.0228867
-0.00993206
-0.0104639
-0.0263487
-0.000935411
-0.00189297
-0.00287765
-0.00391704
-0.00530926
-0.00489372
-0.00795375
-0.00531579
-0.0107167
-0.00555107
-0.0135898
-0.00577127
-0.0165879
-0.00602184
-0.0197293
-0.00630882
-0.0230311
-0.00663025
-0.00698522
-0.0265098
-0.000944268
-0.000948697
-0.00289954
-0.00196178
-0.00534335
-0.0024499
-0.00799857
-0.00266057
-0.0107716
-0.00277805
-0.0136547
-0.00288814
-0.0166631
-0.00301347
-0.0198149
-0.00315702
-0.0231273
-0.00331778
-0.00349538
-0.0266172
-0.000948701
3.65986e-09
-0.00291048
7.36541e-09
-0.0053604
8.92453e-09
-0.00802098
9.37067e-09
-0.010799
9.41859e-09
-0.0136872
9.36345e-09
-0.0167007
9.27128e-09
-0.0198577
9.14959e-09
-0.0231755
8.99518e-09
8.79793e-09
-0.0266709
-0.000948701
0.000948705
-0.00291048
0.00196179
-0.0053604
0.00244992
-0.00802098
0.00266059
-0.010799
0.00277807
-0.0136872
0.00288816
-0.0167007
0.00301349
-0.0198577
0.00315704
-0.0231755
0.0033178
0.0034954
-0.0266709
-0.000944268
0.00189297
-0.00289954
0.00391706
-0.00534335
0.00489373
-0.00799857
0.00531581
-0.0107716
0.00555108
-0.0136547
0.00577128
-0.0166631
0.00602186
-0.0198149
0.00630884
-0.0231273
0.00663027
0.00698523
-0.0266172
-0.000935411
0.00282838
-0.00287765
0.0058593
-0.00530926
0.00732534
-0.00795375
0.0079603
-0.0107167
0.00831402
-0.0135898
0.00864436
-0.0165879
0.00902001
-0.0197293
0.00945019
-0.0230311
0.00993208
0.010464
-0.0265098
-0.000922149
0.00375053
-0.00284484
0.00778199
-0.00525813
0.00973863
-0.00788652
0.0105887
-0.0106343
0.0110618
-0.0134924
0.0115024
-0.0164752
0.0120028
-0.0196009
0.0125759
-0.0228867
0.0132179
0.013926
-0.0263487
-0.000904509
0.00465504
-0.00280114
0.00967862
-0.00518997
0.0121275
-0.00779689
0.0131956
-0.0105246
0.0137895
-0.0133625
0.0143403
-0.016325
0.0149653
-0.0194297
0.0156806
-0.0226942
0.0164824
0.0173657
-0.026134
-0.00088253
0.00553757
-0.00274658
0.0115427
-0.00510481
0.0144857
-0.00768486
0.0157757
-0.0103874
0.016492
-0.0132003
0.0171533
-0.0161373
0.0179022
-0.019216
0.0187594
-0.0224538
0.0197202
0.0207776
-0.0258656
-0.00085626
0.00639383
-0.00268121
0.0133676
-0.00500265
0.0168071
-0.00755043
0.0183234
-0.0102228
0.0191644
-0.0130057
0.0199362
-0.0159122
0.0208087
-0.0189597
0.0218068
-0.0221655
0.022926
0.0241558
-0.0255438
-0.00082576
0.00721959
-0.0026051
0.015147
-0.00488353
0.0190856
-0.00739362
0.0208335
-0.0100308
0.0218016
-0.0127789
0.0226843
-0.0156498
0.0236797
-0.018661
0.024818
-0.0218295
0.0260945
0.027495
-0.0251687
-0.000791103
0.0080107
-0.00251831
0.0168742
-0.00474748
0.0213147
-0.00721444
0.0233005
-0.00981152
0.0243987
-0.0125198
0.0253925
-0.0153503
0.0265102
-0.0183201
0.0277877
-0.0214462
0.0292206
0.0307897
-0.0247408
-0.000752377
0.00876307
-0.00242094
0.0185427
-0.00459456
0.0234884
-0.00701291
0.0257188
-0.00956491
0.0269507
-0.0122286
0.0280562
-0.0150138
0.0292955
-0.0179372
0.0307111
-0.0210157
0.0322991
0.0340345
-0.0242605
-0.000709684
0.00947276
-0.00231311
0.0201461
-0.00442481
0.0256001
-0.00678905
0.0280831
-0.00929103
0.0294526
-0.0119053
0.0306705
-0.0146405
0.0320306
-0.0175126
0.0335832
-0.0205386
0.0353252
0.0372243
-0.0237285
-0.000663145
0.0101359
-0.00219494
0.0216779
-0.00423831
0.0276434
-0.0065429
0.0303877
-0.00898995
0.0318997
-0.0115501
0.0332306
-0.0142304
0.0347109
-0.0170465
0.0363992
-0.0200154
0.0382941
0.0403546
-0.0231456
-0.000612899
0.0107488
-0.00206661
0.0231317
-0.00403516
0.029612
-0.0062745
0.032627
-0.0086617
0.0342869
-0.0111631
0.035732
-0.0137838
0.0373316
-0.0165391
0.0391546
-0.0194465
0.0412015
0.043421
-0.0225129
-0.000559109
0.0113079
-0.00192831
0.0245009
-0.00381548
0.0314991
-0.0059839
0.0347954
-0.00830637
0.0366094
-0.0107444
0.0381701
-0.0133009
0.0398881
-0.0159907
0.0418444
-0.0188323
0.044043
0.0464202
-0.0218315
-0.000501961
0.0118099
-0.00178028
0.0257792
-0.00357942
0.0332983
-0.00567119
0.0368872
-0.00792403
0.0388622
-0.0102942
0.0405402
-0.0127818
0.0423758
-0.0154013
0.0444639
-0.0181732
0.0468149
0.0493499
-0.0211029
-0.000441666
0.0122515
-0.0016228
0.0269603
-0.00332718
0.0350027
-0.00533646
0.0388965
-0.00751476
0.0410405
-0.00981255
0.042838
-0.012227
0.0447902
-0.0147709
0.0470079
-0.017469
0.0495129
0.0522099
-0.020329
-0.000378465
0.01263
-0.00145621
0.028038
-0.00305898
0.0366054
-0.00497985
0.0408174
-0.00707866
0.0431393
-0.00929971
0.045059
-0.0116365
0.047127
-0.0140991
0.0494704
-0.0167174
0.0521312
0.0550041
-0.0195116
-0.000312628
0.0129426
-0.00128091
0.0290063
-0.00277513
0.0380997
-0.00460153
0.0426438
-0.0066159
0.0451537
-0.0087559
0.047199
-0.0110117
0.0493828
-0.0133879
0.0518467
-0.0159179
0.0546612
0.0577427
-0.0186565
-0.000244467
0.0131871
-0.00109738
0.0298592
-0.00247596
0.0394783
-0.00420174
0.0443695
-0.00612662
0.0470786
-0.00818086
0.0492533
-0.0103515
0.0515534
-0.0126346
0.0541298
-0.0150473
0.0570739
0.0604519
-0.0177564
-0.000174364
0.0133615
-0.00090612
0.030591
-0.00216187
0.040734
-0.00378078
0.0459884
-0.00561122
0.048909
-0.00757539
0.0512175
-0.00965878
0.0536368
-0.0118623
0.0563333
-0.0141516
0.0593632
0.0631758
-0.0168756
-0.000102919
0.0134644
-0.000707619
0.0311957
-0.00183333
0.0418597
-0.00333904
0.0474941
-0.00507004
0.05064
-0.00693962
0.053087
-0.0089274
0.0556246
-0.0110453
0.0584512
-0.0133033
0.0616213
0.0654016
-0.0155291
-3.19829e-05
0.0134964
-0.000501968
0.0316657
-0.00149096
0.0428487
-0.00287696
0.0488801
-0.00450327
0.0522663
-0.00627415
0.0548579
-0.00816054
0.057511
-0.0101703
0.060461
-0.0123066
0.0637576
0.0676633
-0.0145684
4.34836e-05
0.0134529
-0.000287938
0.0319971
-0.00113566
0.0436964
-0.00239514
0.0501396
-0.00391143
0.0537826
-0.00558
0.0565265
-0.00736302
0.059294
-0.00926585
0.0623638
-0.0113074
0.0657991
0.0698226
-0.0134666
0.000119267
0.0133336
-5.68058e-05
0.0321732
-0.00076915
0.0444088
-0.00189399
0.0512645
-0.00329525
0.0551839
-0.00485822
0.0580895
-0.00653682
0.0609726
-0.00833327
0.0641603
-0.0102666
0.0677324
0.0718645
-0.0123085
0.00018983
0.0131438
0.000150257
0.0322127
-0.000393432
0.0449525
-0.00137411
0.0522451
-0.00265588
0.0564656
-0.00410939
0.059543
-0.00568136
0.0625446
-0.00736929
0.0658482
-0.00918957
0.0695527
0.0737895
-0.0111145
0.00025815
0.0128856
0.000364034
0.0321069
1.50059e-05
0.0453015
-0.000837581
0.0530977
-0.00199407
0.0576221
-0.00333379
0.0608827
-0.00479629
0.0640071
-0.0063729
0.0674248
-0.00807731
0.0712571
0.0755999
-0.00988773
0.000325473
0.0125602
0.000579879
0.0318525
0.000385062
0.0454963
-0.000290627
0.0537734
-0.00131048
0.058642
-0.0025321
0.0621043
-0.00388208
0.065357
-0.00534458
0.0688873
-0.00692971
0.0728422
0.0772908
-0.00862058
0.000390186
0.01217
0.000795869
0.0314468
0.000781916
0.0455103
0.000272644
0.0542827
-0.000606894
0.0595215
-0.00170523
0.0632026
-0.00293946
0.0665913
-0.00428508
0.0702329
-0.00574807
0.0743052
0.0788556
-0.00731289
0.000451479
0.0117185
0.00101006
0.0308882
0.0011829
0.0453374
0.000847154
0.0546184
0.000115787
0.0602529
-0.000854065
0.0641725
-0.0019692
0.0677064
-0.00319504
0.0714588
-0.00453383
0.075644
0.0802902
-0.00596843
0.000508433
0.0112101
0.0012194
0.0301772
0.00158461
0.0449722
0.00143312
0.0547699
0.000857322
0.0608287
1.28876e-05
0.0650169
-0.00097263
0.0686919
-0.00207544
0.0725616
-0.00328828
0.0768569
0.0815923
-0.00459038
0.00056006
0.01065
0.00142101
0.0293163
0.00198414
0.0444091
0.00202623
0.0547278
0.00161622
0.0612387
0.000916611
0.0657165
4.23681e-05
0.0695662
-0.00092854
0.0735325
-0.00201182
0.0779401
0.0827617
-0.00318127
0.000605459
0.0100445
0.00161212
0.0283096
0.00237772
0.0436435
0.00262314
0.0544824
0.00238827
0.0614736
0.00183478
0.06627
0.00109891
0.070302
0.000242009
0.0743894
-0.000699327
0.0788815
0.0838102
-0.00174783
0.000643828
0.00940071
0.00178983
0.0271636
0.00276097
0.0426723
0.00321966
0.0540237
0.00317066
0.0615226
0.00277143
0.0666693
0.00217011
0.0709034
0.00144941
0.0751101
0.000633392
0.0796975
0.0847551
-0.00031153
0.000674467
0.00872625
0.00195115
0.0258869
0.00312906
0.0414944
0.00381087
0.0533419
0.0039596
0.0613739
0.00372373
0.0669051
0.00326253
0.0713646
0.00267297
0.0756996
0.00199075
0.0803797
0.0855218
0.00122411
0.000696802
0.00802945
0.00209285
0.0244909
0.00347665
0.0401106
0.004391
0.0524276
0.00475037
0.0610145
0.00468839
0.0669671
0.00437398
0.071679
0.00392018
0.0761534
0.00337872
0.0809212
0.0861356
0.00276489
0.000710441
0.00731901
0.00221185
0.0229895
0.00379797
0.0385245
0.00495338
0.0512721
0.00553721
0.0604307
0.00566138
0.0668429
0.00550162
0.0718387
0.00518808
0.076467
0.0047859
0.0813234
0.0866052
0.00431631
0.000715201
0.0066038
0.0023054
0.0213993
0.00408681
0.0367431
0.0054903
0.0498687
0.00631314
0.0596078
0.00663755
0.0665185
0.00664171
0.0718346
0.00647262
0.0766361
0.00621001
0.081586
0.0869323
0.00588296
0.000711111
0.00589269
0.00237108
0.0197393
0.00433669
0.0347775
0.00599304
0.0482123
0.00706982
0.058531
0.00761045
0.0659779
0.00778976
0.0716553
0.00777054
0.0766553
0.00764938
0.0817071
0.087117
0.00746465
0.000698419
0.00519427
0.00240698
0.0180307
0.00454105
0.0326434
0.0064519
0.0463015
0.00779738
0.0571856
0.00857221
0.065203
0.00894046
0.071287
0.00907856
0.0765172
0.00910195
0.0816837
0.0871589
0.00906003
0.000677606
0.00451667
0.00241194
0.0162964
0.00469356
0.0303618
0.00685627
0.0441387
0.00848429
0.0555575
0.00951319
0.0641741
0.0100871
0.0707131
0.0103926
0.0762118
0.010565
0.0815113
0.0870567
0.0106672
0.000649378
0.00386729
0.00238569
0.0145601
0.00478855
0.0279589
0.00719497
0.0417323
0.00911732
0.0536352
0.0104217
0.0628698
0.0112214
0.0699134
0.0117072
0.0757259
0.012035
0.0811836
0.0868079
0.0122837
0.000614647
0.00325264
0.00232898
0.0128458
0.0048215
0.0254664
0.00745655
0.0390973
0.00968156
0.0514102
0.0112835
0.0612678
0.0123324
0.0688644
0.0130155
0.0750429
0.0135076
0.0806915
0.0864087
0.0139068
0.000574498
0.00267815
0.00224368
0.0111766
0.0047896
0.0229205
0.00763
0.0362569
0.0101606
0.0488796
0.012082
0.0593464
0.0134069
0.0675395
0.0143083
0.0741415
0.0149771
0.0800227
0.0858532
0.0155326
0.000530139
0.00214801
0.00213271
0.00957402
0.00469233
0.0203609
0.0077055
0.0332437
0.010537
0.0460481
0.0127977
0.0570858
0.0144281
0.0659091
0.0155739
0.0729957
0.0164361
0.0791605
0.0851331
0.0171561
0.000482846
0.00166516
0.00199993
0.00805694
0.00453182
0.017829
0.00767551
0.0301
0.0107931
0.0429304
0.0134083
0.0544706
0.0153755
0.0639419
0.0167971
0.0715741
0.0178747
0.0780829
0.0842366
0.0187712
0.000433906
0.00123126
0.00184993
0.00664091
0.00431316
0.0153657
0.00753598
0.0268772
0.0109121
0.0395543
0.0138895
0.0514932
0.0162246
0.0616068
0.0179582
0.0698406
0.0192799
0.0767611
0.0831466
0.0203699
0.000384549
0.000846707
0.00168769
0.00533777
0.0040442
0.0130092
0.00728756
0.0236338
0.0108798
0.0359621
0.0142157
0.0481573
0.0169467
0.0588758
0.0190325
0.0677548
0.020634
0.0751596
0.0818393
0.0219413
0.000335906
0.0005108
0.00151831
0.00415537
0.00373509
0.0107925
0.00693652
0.0204324
0.0106866
0.0322121
0.0143613
0.0444826
0.017509
0.0557281
0.0199894
0.0652744
0.0219138
0.0732352
0.0802825
0.0234707
0.000288965
0.000221835
0.00134671
0.00309762
0.00339755
0.00874163
0.00649508
0.0173349
0.0103299
0.0283772
0.0143037
0.0405088
0.0178761
0.0521556
0.020792
0.0623585
0.023089
0.0709382
0.0784337
0.0249378
0.000244548
-2.27123e-05
0.00117738
0.00216479
0.00304384
0.00687517
0.00598088
0.0143978
0.00981652
0.0245416
0.0140262
0.0362991
0.0180121
0.0481697
0.0213972
0.0589735
0.0241209
0.0682144
0.0762395
0.0263152
0.000203304
-0.000226017
0.00101419
0.00135391
0.00268586
0.0052035
0.00541547
0.0116682
0.00916343
0.0207936
0.0135223
0.0319403
0.017884
0.043808
0.0217573
0.0551002
0.0249616
0.0650101
0.073635
0.0275661
0.000165703
-0.000391719
0.00086032
0.000659292
0.00233435
0.00372947
0.00482223
0.00918034
0.00839791
0.0172179
0.0127992
0.027539
0.0174668
0.0391404
0.0218231
0.0507439
0.025554
0.0612791
0.0705465
0.0286426
0.000132063
-0.000523783
0.000718215
7.314e-05
0.00199833
0.00244935
0.00422397
0.00695471
0.00755498
0.0138869