/*--------------------------------*- C++ -*----------------------------------*\
  =========                 |
  \\      /  F ield         | OpenFOAM: The Open Source CFD Toolbox
   \\    /   O peration     | Website:  https://openfoam.org
    \\  /    A nd           | Version:  7
     \\/     M anipulation  |
\*---------------------------------------------------------------------------*/
FoamFile
{
    version     2.0;
    format      ascii;
    class       volScalarField;
    location    "15";
    object      p;
}
// * * * * * * * * * * * * * * * * * * * * * * * * * * * * * * * * * * * * * //

dimensions      [0 2 -2 0 0 0 0];

internalField   nonuniform List<scalar> 
2125
(
-0.465777
-0.477078
-0.453329
-0.488209
-0.462761
-0.499077
-0.471989
-0.452546
-0.509579
-0.480921
-0.460533
-0.4406
-0.5196
-0.489453
-0.46818
-0.447413
-0.42688
-0.406814
-0.529012
-0.497469
-0.475378
-0.453815
-0.432408
-0.411325
-0.390288
-0.537677
-0.504846
-0.482005
-0.459686
-0.437403
-0.415259
-0.392895
-0.369787
-0.545443
-0.511444
-0.487931
-0.464896
-0.441734
-0.418486
-0.394731
-0.369955
-0.343829
-0.321912
-0.552148
-0.517119
-0.493012
-0.469303
-0.44526
-0.420869
-0.395668
-0.369192
-0.341261
-0.316518
-0.55762
-0.521715
-0.4971
-0.472758
-0.447833
-0.422264
-0.395577
-0.367386
-0.337688
-0.310332
-0.56168
-0.525069
-0.500036
-0.475104
-0.449298
-0.422525
-0.394325
-0.364427
-0.33302
-0.303271
-0.564146
-0.527015
-0.501656
-0.476181
-0.449499
-0.421502
-0.39178
-0.360205
-0.327168
-0.295253
-0.564832
-0.527382
-0.501796
-0.475824
-0.448276
-0.419051
-0.387816
-0.354614
-0.320047
-0.286198
-0.563556
-0.526001
-0.500289
-0.47387
-0.445474
-0.415028
-0.382309
-0.347559
-0.311582
-0.276036
-0.560138
-0.522705
-0.49697
-0.47016
-0.440941
-0.409299
-0.375149
-0.338952
-0.301706
-0.264703
-0.554407
-0.517331
-0.491681
-0.464539
-0.434536
-0.401739
-0.366235
-0.328716
-0.290366
-0.252148
-0.546204
-0.509727
-0.48427
-0.456862
-0.426124
-0.392237
-0.355481
-0.316791
-0.27752
-0.238333
-0.535381
-0.499752
-0.4746
-0.446997
-0.41559
-0.380696
-0.342815
-0.30313
-0.26314
-0.223233
-0.521812
-0.487279
-0.462544
-0.434826
-0.40283
-0.367038
-0.328184
-0.287702
-0.247211
-0.206832
-0.505389
-0.4722
-0.447995
-0.420251
-0.387764
-0.351203
-0.311553
-0.270493
-0.229734
-0.189131
-0.486027
-0.454426
-0.430867
-0.403193
-0.370331
-0.333155
-0.292908
-0.251505
-0.210726
-0.170145
-0.463667
-0.433892
-0.411094
-0.383599
-0.350493
-0.312876
-0.272253
-0.230757
-0.19022
-0.149906
-0.438279
-0.410559
-0.388639
-0.361438
-0.328239
-0.290375
-0.24961
-0.208283
-0.168254
-0.128429
-0.409861
-0.384414
-0.363487
-0.336707
-0.303582
-0.265684
-0.225027
-0.184135
-0.144853
-0.105598
-0.378444
-0.355474
-0.335656
-0.309432
-0.27656
-0.238856
-0.198571
-0.158391
-0.120088
-0.0813035
-0.344087
-0.323783
-0.305191
-0.279667
-0.247242
-0.209972
-0.170329
-0.131142
-0.0941574
-0.0566383
-0.306884
-0.289419
-0.272165
-0.247491
-0.215719
-0.179132
-0.140405
-0.102464
-0.0668246
-0.0311333
-0.266959
-0.252488
-0.236683
-0.213017
-0.182111
-0.14646
-0.10892
-0.0724905
-0.0384707
-0.00463968
-0.224467
-0.213124
-0.198879
-0.176384
-0.146561
-0.112097
-0.076019
-0.0413471
-0.00919155
0.0226652
-0.179594
-0.171492
-0.158914
-0.137758
-0.10922
-0.0762191
-0.0418584
-0.00917708
0.0209079
0.0506205
-0.132544
-0.127788
-0.116975
-0.0973044
-0.0703054
-0.0390033
-0.0066125
0.0238598
0.0516908
0.0790649
-0.0835282
-0.0822514
-0.0732746
-0.0552585
-0.0300054
-0.000648335
0.0295289
0.0575923
0.0830088
0.107811
-0.0328654
-0.0350837
-0.0280492
-0.0118449
0.0114559
0.0386319
0.0663647
0.0918501
0.114729
0.136585
0.0191675
0.0134478
0.0184463
0.0326904
0.0538402
0.0786118
0.103684
0.126469
0.146713
0.164946
0.0722921
0.0630462
0.0659392
0.0780857
0.0968991
0.119058
0.141271
0.161255
0.178604
0.192259
0.12619
0.113414
0.114143
0.124068
0.140378
0.159739
0.178923
0.195943
0.209542
0.21712
0.180529
0.164241
0.162759
0.170355
0.184021
0.200438
0.216482
0.230337
0.238801
0.238914
0.234967
0.215207
0.21148
0.216659
0.227565
0.240936
0.253779
0.26449
0.269752
0.268438
0.289156
0.265982
0.259991
0.262684
0.270742
0.280988
0.290575
0.29806
0.300447
0.297856
0.342745
0.316233
0.307974
0.308134
0.313279
0.320346
0.326636
0.330835
0.330276
0.32592
0.395381
0.365628
0.355112
0.352713
0.35491
0.358769
0.361748
0.362654
0.35915
0.352724
0.446717
0.413834
0.401091
0.396132
0.395372
0.396026
0.395709
0.39335
0.386941
0.378273
0.496409
0.460525
0.445601
0.438106
0.434412
0.431894
0.428326
0.42276
0.413504
0.402507
0.544124
0.505383
0.488342
0.478359
0.471786
0.466161
0.45942
0.450735
0.438714
0.425363
0.58954
0.548102
0.529025
0.516629
0.507258
0.498626
0.488821
0.477134
0.462458
0.446775
0.63235
0.588388
0.567374
0.552662
0.540609
0.529098
0.516369
0.501829
0.484633
0.466683
0.672263
0.625964
0.603128
0.586224
0.571631
0.557399
0.541917
0.524698
0.505139
0.485024
0.709008
0.660569
0.636042
0.617093
0.600129
0.583364
0.565324
0.545627
0.523885
0.501737
0.742334
0.691964
0.665893
0.645066
0.625927
0.606843
0.586466
0.564511
0.540785
0.516764
0.772013
0.719931
0.692475
0.66996
0.648865
0.627698
0.605227
0.581254
0.555758
0.530049
0.797841
0.744275
0.715609
0.691611
0.668798
0.645806
0.621505
0.595771
0.568734
0.541541
0.819642
0.764827
0.735134
0.709875
0.685603
0.661063
0.63521
0.607988
0.579648
0.551192
0.837266
0.781444
0.750918
0.724633
0.699175
0.673377
0.646266
0.617839
0.588446
0.558963
0.850591
0.794009
0.762851
0.735788
0.709429
0.682677
0.654613
0.625274
0.595084
0.564821
0.859526
0.802435
0.770852
0.743266
0.716301
0.688908
0.660204
0.630252
0.599529
0.568741
0.747017
0.719748
0.692033
0.663007
0.632748
0.601757
0.570705
-0.221466
-0.232589
-0.242571
-0.251442
-0.259247
-0.266045
-0.271911
-0.276935
-0.199595
-0.210529
-0.220556
-0.22971
-0.238036
-0.245592
-0.25245
-0.258695
-0.179347
-0.190085
-0.200133
-0.20952
-0.218278
-0.22645
-0.234086
-0.241245
-0.160433
-0.170792
-0.180618
-0.18993
-0.198753
-0.207117
-0.215059
-0.222619
-0.142887
-0.152797
-0.162294
-0.171394
-0.180119
-0.188492
-0.196542
-0.204303
-0.126684
-0.136108
-0.145216
-0.154021
-0.162541
-0.170796
-0.178809
-0.186607
-0.111733
-0.120648
-0.129319
-0.137759
-0.145983
-0.154005
-0.161846
-0.169527
-0.0979351
-0.106329
-0.114535
-0.122564
-0.130426
-0.138135
-0.145706
-0.153156
-0.0852007
-0.0930731
-0.1008
-0.108389
-0.115849
-0.12319
-0.130424
-0.137565
-0.0734378
-0.080797
-0.0880418
-0.095178
-0.102212
-0.109153
-0.116008
-0.122789
-0.0625695
-0.0694287
-0.0761968
-0.0828781
-0.0894773
-0.096
-0.102453
-0.108842
-0.0525251
-0.0589028
-0.0652066
-0.0714394
-0.0776043
-0.0837051
-0.0897461
-0.0957322
-0.0432467
-0.0491641
-0.0550207
-0.0608179
-0.0665577
-0.0722423
-0.0778742
-0.0834565
-0.0346801
-0.0401621
-0.0455928
-0.050973
-0.0563033
-0.0615849
-0.0668189
-0.0720071
-0.0267816
-0.0318545
-0.0368836
-0.0418686
-0.0468097
-0.0517068
-0.0565603
-0.0613707
-0.0195059
-0.0241987
-0.0288532
-0.0334685
-0.0380441
-0.0425795
-0.0470743
-0.0515281
-0.055941
-0.0128249
-0.0171653
-0.0214719
-0.0257434
-0.0299786
-0.0341767
-0.0383367
-0.0424579
-0.0465395
-0.0066989
-0.0107168
-0.0147041
-0.0186592
-0.0225809
-0.0264678
-0.0303188
-0.0341326
-0.0379084
-0.00110984
-0.004832
-0.00852639
-0.0121913
-0.0158252
-0.0194265
-0.0229938
-0.0265258
-0.0300212
0.00397673
0.000522242
-0.00290669
-0.00630825
-0.0096807
-0.0130224
-0.0163318
-0.0196074
-0.0228478
0.00857912
0.00536613
0.00217689
-0.000986717
-0.00412289
-0.00722991
-0.0103061
-0.01335
-0.0163601
0.0127185
0.00972174
0.00674723
0.00379691
0.000872589
-0.00202397
-0.00489109
-0.00772719
-0.0105308
0.0164108
0.0136061
0.0108225
0.00806178
0.00532588
0.00261651
-6.46703e-05
-0.00271606
-0.00533617
0.0196679
0.0170323
0.0144167
0.011823
0.00925296
0.00670836
0.00419082
0.00170188
-0.000756957
0.0224989
0.02001
0.0175403
0.0150916
0.0126656
0.010264
0.00788839
0.00554024
0.00322101
0.0249042
0.0225406
0.0201955
0.0178706
0.0155676
0.0132879
0.0110332
0.00880483
0.00660423
0.0268834
0.0246235
0.0223816
0.020159
0.0179575
0.0157784
0.0136233
0.0114934
0.00939008
0.0284156
0.0262394
0.0240805
0.0219404
0.0198205
0.0177221
0.0156465
0.013595
0.0115687
0.0294912
0.0273742
0.025274
0.0231918
0.0211291
0.019087
0.0170668
0.0150695
0.0130964
0.0300504
0.027977
0.0259198
0.02388
0.0218584
0.0198562
0.0178743
0.0159135
0.0139749
0.212953
0.182458
0.152979
0.12631
0.0998699
0.0736121
0.047883
0.0227632
-0.0017033
-0.0254605
-0.048512
-0.0708691
-0.0914364
-0.111456
-0.130518
-0.148494
-0.165373
-0.181129
-0.195737
-0.209184
0.199681
0.172123
0.14387
0.119266
0.0951772
0.0711779
0.0477176
0.0249016
0.00273016
-0.0187573
-0.0395228
-0.0595327
-0.0783854
-0.0968257
-0.114322
-0.13086
-0.146481
-0.161176
-0.174928
-0.187733
0.182348
0.156662
0.130689
0.108481
0.0870551
0.065719
0.0448672
0.0246202
0.00495392
-0.014118
-0.0325589
-0.0502943
-0.0670566
-0.0839005
-0.0997979
-0.114865
-0.12921
-0.142837
-0.155734
-0.167902
0.166402
0.143155
0.119915
0.100035
0.080943
0.0619282
0.0433211
0.0252526
0.00769546
-0.0093577
-0.0258979
-0.0419776
-0.0577064
-0.0721878
-0.086459
-0.10023
-0.113412
-0.126018
-0.138055
-0.149524
0.152156
0.131358
0.110765
0.0930431
0.0760313
0.0590907
0.0424899
0.0263545
0.0106622
-0.00460084
-0.019424
-0.0338033
-0.0477477
-0.0610913
-0.0741701
-0.0867781
-0.0988983
-0.110562
-0.121779
-0.132551
0.139745
0.121146
0.102945
0.0871646
0.0719979
0.056902
0.0420918
0.0276773
0.0136403
-3.51085e-05
-0.0133446
-0.0262794
-0.0388104
-0.0508388
-0.0629147
-0.0744826
-0.0856218
-0.0964039
-0.10684
-0.116931
0.129001
0.112374
0.0963214
0.0822901
0.068767
0.0553075
0.0420848
0.0291903
0.0166082
0.00432064
-0.00767475
-0.0193816
-0.0308331
-0.0420828
-0.052711
-0.0632102
-0.0734689
-0.0834421
-0.093138
-0.102566
0.119727
0.104881
0.0907391
0.0782737
0.066212
0.0542007
0.0423827
0.0308326
0.0195375
0.00848176
-0.00233717
-0.0129181
-0.0232658
-0.0333917
-0.04321
-0.0528692
-0.0623227
-0.0715474
-0.0805513
-0.0893449
0.11177
0.0985295
0.0860699
0.0749923
0.0642244
0.0534913
0.0429134
0.0325512
0.0223941
0.0124286
0.0026521
-0.00693564
-0.0163368
-0.0255538
-0.0345652
-0.0434385
-0.0521325
-0.0606472
-0.0689928
-0.0771757
0.104979
0.0931784
0.08219
0.0723347
0.0627093
0.0531033
0.0436196
0.0343071
0.0251569
0.0161579
0.00730786
-0.00139355
-0.00994757
-0.0183502
-0.0265828
-0.0347582
-0.0427675
-0.0506276
-0.0583565
-0.065959
0.0992057
0.0886918
0.0789858
0.0702037
0.0615858
0.0529734
0.0444549
0.03607
0.0278111
0.0196689
0.0116415
0.00372836
-0.00407235
-0.0117665
-0.0193591
-0.0267988
-0.0341542
-0.0414111
-0.0485641
-0.0556157
0.0943183
0.0849485
0.0763584
0.0685173
0.0607873
0.053051
0.0453849
0.0378211
0.0303533
0.0229743
0.0156829
0.00847921
0.00136265
-0.00567033
-0.0126249
-0.019457
-0.0262281
-0.0329251
-0.0395391
-0.0460714
0.0901988
0.0818434
0.0742234
0.0672068
0.0602592
0.0532959
0.046383
0.039547
0.0327825
0.0260844
0.0194521
0.0128861
0.00638678
-4.6599e-05
-0.00641493
-0.0127066
-0.0189425
-0.0251163
-0.0312242
-0.0372672
0.0867448
0.0792859
0.0725089
0.0662144
0.0599562
0.0536751
0.0474284
0.0412378
0.0350991
0.0290084
0.0229661
0.016973
0.0110299
0.00513692
-0.000705424
-0.00649208
-0.0122335
-0.0179237
-0.0235613
-0.0291466
0.0838669
0.0771984
0.0711533
0.0654912
0.0598404
0.0541613
0.0485039
0.0428858
0.0373039
0.0317556
0.0262416
0.0207633
0.0153217
0.00991735
0.0045519
-0.000770535
-0.00606144
-0.0113063
-0.0165068
-0.0216654
0.0814873
0.0755144
0.0701043
0.0649956
0.0598799
0.0547324
0.0495965
0.0444867
0.039401
0.0343377
0.0292983
0.0242847
0.0192983
0.0143411
0.00941936
0.00454391
-0.000363211
-0.00521073
-0.0100109
-0.0147759
0.0795373
0.0741755
0.0693156
0.0646905
0.0600453
0.0553661
0.0506905
0.0460306
0.0413846
0.0367519
0.0321337
0.027532
0.0229483
0.0183837
0.0138347
0.00929533
0.00484226
0.000390007
-0.00404589
-0.00845171
0.077957
0.0731315
0.0687477
0.064545
0.0603134
0.0560471
0.0517786
0.0475177
0.0432638
0.0390166
0.034778
0.0305503
0.0263355
0.0221358
0.0179525
0.0137866
0.00964807
0.00552552
0.0014238
-0.00265169
0.0766931
0.0723373
0.0683647
0.0645298
0.060661
0.0567577
0.0528477
0.0489394
0.0450325
0.0411274
0.037226
0.0333308
0.0294437
0.025567
0.0217025
0.0178522
0.0140205
0.0102059
0.00641096
0.00263838
0.0756981
0.0717527
0.0681344
0.0646191
0.0610675
0.0574825
0.0538877
0.0502903
0.0466902
0.0430884
0.0394869
0.0358881
0.0322943
0.0287074
0.0251298
0.0215634
0.0180115
0.0144745
0.0109549
0.00745491
0.0749293
0.0713416
0.0680274
0.0647885
0.0615132
0.0582063
0.0548875
0.0515629
0.048233
0.0448989
0.0415626
0.0382266
0.0348932
0.0315644
0.0282426
0.0249298
0.0216288
0.018341
0.0150686
0.0118139
0.0743486
0.0710711
0.0680169
0.0650159
0.06198
0.0589146
0.0558363
0.0527501
0.0496568
0.0465577
0.043455
0.0403509
0.0372476
0.0341475
0.0310527
0.0279655
0.0248882
0.0218226
0.018771
0.0157356
0.073922
0.0709116
0.0680782
0.0652805
0.0624505
0.0595936
0.0567233
0.0538439
0.0509564
0.0480623
0.0451636
0.0422627
0.0393617
0.0364627
0.033568
0.0306798
0.0278004
0.0249314
0.0220754
0.0192346
0.0736189
0.0708362
0.0681883
0.0655626
0.0629078
0.060229
0.0575368
0.0548351
0.052125
0.0494079
0.046686
0.0439614
0.0412362
0.0385126
0.0357926
0.0330784
0.0303724
0.0276758
0.0249916
0.0223217
0.0734126
0.0708211
0.068327
0.0658446
0.0633367
0.0608079
0.0582663
0.0557153
0.0531559
0.0505898
0.0480191
0.0454456
0.0428716
0.0402989
0.0377297
0.0351662
0.0326107
0.0300624
0.0275267
0.0250051
0.0732785
0.0708433
0.0684733
0.0661074
0.0637198
0.0613143
0.058897
0.0564708
0.0540369
0.0515969
0.0491527
0.0467062
0.0442593
0.0418141
0.0393723
0.0369358
0.0345064
0.0320879
0.0296799
0.0272846
0.0731985
0.0708863
0.0686131
0.0663384
0.0640459
0.0617385
0.0594208
0.0570949
0.0547624
0.0524248
0.0500837
0.0477411
0.0453986
0.0430582
0.0407215
0.0383904
0.0360665
0.0337531
0.03145
0.0291594
0.0731493
0.0709254
0.068721
0.0665118
0.0642886
0.0620536
0.05981
0.0575597
0.0553042
0.0530449
0.0507835
0.0485215
0.0462607
0.0440028
0.0417493
0.039502
0.0372624
0.0350327
0.0328138
0.0306076
0.0731307
0.070963
0.0688015
0.0666343
0.0644566
0.0622701
0.0600769
0.0578787
0.0556767
0.0534723
0.0512669
0.0490621
0.0468593
0.0446601
0.0424659
0.0402783
0.0380987
0.0359288
0.0337699
0.0316236
0.0731045
0.0709492
0.0687949
0.0666363
0.0644713
0.062301
0.0601273
0.0579514
0.0557747
0.0535984
0.0514239
0.0492523
0.047085
0.0449232
0.0427683
0.0406214
0.0384837
0.0363568
0.0342414
0.0321389
0.242047
0.244575
0.250017
0.257413
0.266646
0.277186
0.288496
0.299824
0.310008
0.317758
0.320928
0.31794
0.304827
0.282872
0.233307
0.240983
0.24338
0.248527
0.255475
0.264051
0.273684
0.283772
0.29349
0.301626
0.30685
0.307078
0.300852
0.284551
0.260027
0.212125
0.239816
0.242078
0.24691
0.253379
0.261267
0.269975
0.278854
0.28705
0.293347
0.29646
0.294453
0.286115
0.268271
0.243473
0.199395
0.238529
0.240638
0.24512
0.251062
0.258199
0.265905
0.273491
0.280078
0.284465
0.285428
0.281208
0.270836
0.251675
0.226386
0.185197
0.237116
0.239059
0.243165
0.248545
0.254888
0.261547
0.267799
0.272755
0.275246
0.274127
0.267839
0.255637
0.235449
0.209743
0.171265
0.235572
0.237339
0.241046
0.245834
0.251352
0.256937
0.261846
0.265197
0.265874
0.262832
0.254738
0.241051
0.22025
0.19454
0.158822
0.233891
0.23547
0.238757
0.242927
0.247593
0.252086
0.255657
0.257446
0.256415
0.251635
0.242009
0.227186
0.206144
0.18081
0.147786
0.232067
0.233448
0.236295
0.239823
0.243615
0.247007
0.249257
0.249543
0.246923
0.240598
0.229705
0.214063
0.193079
0.168402
0.137944
0.230095
0.231268
0.233659
0.236524
0.239429
0.241721
0.242681
0.241541
0.237466
0.229796
0.217891
0.201719
0.181033
0.157234
0.129197
0.227972
0.228929
0.230848
0.233036
0.235049
0.236255
0.23597
0.233495
0.228113
0.219302
0.20663
0.190187
0.169996
0.147242
0.121475
0.225697
0.226431
0.227867
0.229369
0.230492
0.230636
0.229167
0.225462
0.218929
0.209181
0.195969
0.179485
0.159942
0.138347
0.114697
0.22327
0.223775
0.224721
0.225535
0.22578
0.2249
0.222319
0.217501
0.209977
0.19949
0.185944
0.169611
0.150834
0.130466
0.108777
0.220693
0.220966
0.22142
0.221549
0.220939
0.219083
0.215473
0.209666
0.201313
0.190272
0.176578
0.160555
0.142624
0.12351
0.103634
0.217972
0.218011
0.217976
0.217432
0.215997
0.213223
0.208677
0.20201
0.192985
0.181564
0.16788
0.152295
0.135261
0.117396
0.0991888
0.215115
0.214921
0.214405
0.213207
0.210988
0.207363
0.20198
0.194583
0.185037
0.173391
0.159852
0.144798
0.128688
0.112043
0.0953651
0.212135
0.21171
0.210726
0.2089
0.205945
0.201545
0.195429
0.187429
0.177503
0.16577
0.152485
0.13803
0.122847
0.107374
0.092093
0.209046
0.208397
0.206963
0.204543
0.200907
0.195812
0.189068
0.180589
0.170411
0.158707
0.145763
0.13195
0.117679
0.103319
0.0893079
0.20587
0.205005
0.203144
0.200168
0.195912
0.190206
0.182939
0.174097
0.163781
0.152203
0.139663
0.126514
0.113127
0.0998105
0.0869506
0.202631
0.201561
0.199301
0.195814
0.191003
0.184772
0.17708
0.167982
0.157626
0.146252
0.13416
0.121678
0.109137
0.0967889
0.0849678
0.199358
0.198096
0.19547
0.19152
0.186222
0.179549
0.171528
0.162267
0.151954
0.140843
0.129225
0.117399
0.105654
0.0941986
0.083311
0.196088
0.194648
0.19169
0.187329
0.181613
0.174579
0.166315
0.156973
0.146769
0.135961
0.124826
0.113634
0.102632
0.0919898
0.0819369
0.192859
0.191259
0.188006
0.183287
0.177219
0.169901
0.16147
0.152116
0.142071
0.13159
0.120935
0.110342
0.100024
0.0901175
0.0808066
0.18972
0.187976
0.184467
0.179443
0.173087
0.165553
0.157021
0.147709
0.137857
0.127715
0.117522
0.107487
0.0977902
0.0885418
0.0798856
0.186722
0.184853
0.181126
0.175848
0.169263
0.161574
0.152996
0.143764
0.134126
0.124318
0.114561
0.105037
0.0958955
0.0872279
0.0791433
0.183923
0.181947
0.17804
0.172557
0.165797
0.158004
0.14942
0.140296
0.130876
0.121388
0.112029
0.102961
0.094309
0.086146
0.0785534
0.181389
0.179324
0.175272
0.169629
0.16274
0.154884
0.146324
0.13732
0.128112
0.118915
0.10991
0.101239
0.0930059
0.085271
0.0780931
0.17919
0.177055
0.172892
0.167128
0.160148
0.15226
0.143741
0.134855
0.125839
0.116897
0.108193
0.0998537
0.0919673
0.0845837
0.0777446
0.177406
0.175217
0.170973
0.165125
0.158085
0.150184
0.141712
0.132931
0.124076
0.11534
0.106876
0.0987978
0.0911818
0.08407
0.0774913
0.176122
0.173895
0.169598
0.163696
0.156621
0.148719
0.140286
0.131587
0.12285
0.114262
0.105968
0.0980733
0.0906462
0.0837242
0.0773288
0.175433
0.173182
0.16886
0.162931
0.15584
0.147939
0.13953
0.130876
0.122203
0.113696
0.105493
0.0976953
0.0903674
0.0835435
0.0772398
0.249606
0.252431
0.258819
0.267697
0.279288
0.293417
0.310126
0.329516
0.351526
0.376335
0.403739
0.433863
0.466206
0.500792
0.536191
0.249569
0.252393
0.258777
0.267649
0.279231
0.293346
0.310033
0.329389
0.351349
0.376085
0.403379
0.433351
0.465479
0.499769
0.534772
0.249496
0.252317
0.258693
0.267554
0.279117
0.293204
0.309847
0.329136
0.350995
0.375585
0.402662
0.432331
0.464025
0.497727
0.53194
0.249385
0.252203
0.258568
0.267412
0.278947
0.292991
0.309567
0.328758
0.350465
0.374836
0.401587
0.430802
0.461849
0.494671
0.527706
0.249238
0.252051
0.258402
0.267223
0.278721
0.292707
0.309196
0.328254
0.349761
0.37384
0.400157
0.42877
0.458955
0.490611
0.522087
0.249055
0.251862
0.258195
0.266988
0.278439
0.292354
0.308734
0.327627
0.348883
0.372599
0.398376
0.426239
0.455351
0.485561
0.515105
0.248835
0.251635
0.257947
0.266707
0.278103
0.291933
0.308182
0.326877
0.347834
0.371115
0.396246
0.423215
0.451044
0.479534
0.506787
0.24858
0.251372
0.257653
0.26638
0.277712
0.291444
0.307542
0.326006
0.346616
0.369392
0.393772
0.419704
0.446043
0.47255
0.497161
0.24829
0.251074
0.257314
0.266008
0.277269
0.290888
0.306814
0.325017
0.345232
0.367433
0.390959
0.415714
0.44036
0.46463
0.486259
0.247964
0.25074
0.256987
0.265593
0.276774
0.290267
0.306001
0.323911
0.343684
0.365241
0.387813
0.411255
0.434004
0.455797
0.474115
0.247605
0.250372
0.256572
0.265135
0.276228
0.289583
0.305104
0.322691
0.341977
0.362822
0.38434
0.406333
0.426988
0.446077
0.46076
0.247211
0.249969
0.256126
0.264636
0.275632
0.288837
0.304126
0.321359
0.340114
0.360178
0.380546
0.400959
0.419324
0.435498
0.446222
0.246784
0.249533
0.25565
0.264096
0.274989
0.28803
0.303069
0.31992
0.338098
0.357317
0.37644
0.395142
0.411025
0.424087
0.430522
0.246324
0.249063
0.255139
0.263518
0.274299
0.287166
0.301937
0.318375
0.335937
0.354243
0.372032
0.388895
0.402109
0.411877
0.413675
0.245833
0.248565
0.254595
0.262901
0.273563
0.286244
0.300728
0.316726
0.333628
0.350959
0.367324
0.382218
0.392584
0.398887
0.395681
0.245309
0.248035
0.254016
0.262245
0.272779
0.28526
0.299437
0.314964
0.33116
0.347444
0.362294
0.375083
0.382427
0.385096
0.37649
0.244756
0.247474
0.253407
0.261556
0.271956
0.284227
0.298079
0.313105
0.328552
0.343724
0.356969
0.367512
0.371669
0.370522
0.356058
0.244174
0.246892
0.252782
0.260858
0.271135
0.283207
0.296748
0.311286
0.325991
0.34004
0.351653
0.359863
0.36071
0.355551
0.334693
0.243565
0.246286
0.252139
0.260153
0.270321
0.282217
0.295473
0.309555
0.323552
0.336504
0.346497
0.352316
0.349749
0.340295
0.312515
0.242914
0.245602
0.251357
0.259223
0.269161
0.280718
0.293473
0.306815
0.319742
0.331151
0.339003
0.341854
0.335349
0.32099
0.284962
)
;

boundaryField
{
    inlet
    {
        type            zeroGradient;
    }
    outlet
    {
        type            fixedValue;
        value           nonuniform 0();
    }
    cylinder
    {
        type            zeroGradient;
    }
    top
    {
        type            symmetryPlane;
    }
    bottom
    {
        type            symmetryPlane;
    }
    defaultFaces
    {
        type            empty;
    }
    procBoundary2to0
    {
        type            processor;
        value           nonuniform List<scalar> 
26
(
0.864009
0.806663
0.774867
0.774867
0.747017
0.719748
0.692033
0.663007
0.632748
0.601757
0.570705
0.249606
0.252431
0.258819
0.267697
0.279288
0.293417
0.310126
0.329516
0.351526
0.376335
0.403739
0.433863
0.466206
0.500792
0.536191
)
;
    }
    procBoundary2to3
    {
        type            processor;
        value           nonuniform List<scalar> 
50
(
-0.454395
-0.443776
-0.443776
-0.435931
-0.444316
-0.444316
-0.433484
-0.433484
-0.420941
-0.420941
-0.401846
-0.387029
-0.387029
-0.368793
-0.368793
-0.345484
-0.345484
-0.326591
-0.281223
-0.281223
-0.264426
-0.247994
-0.229848
-0.211816
-0.194224
-0.177074
-0.160505
-0.144629
-0.129506
-0.115178
-0.101669
-0.0889928
-0.0771512
-0.0661386
-0.0661386
-0.060313
-0.050581
-0.0416451
-0.0334788
-0.0260517
-0.0193349
-0.0133004
-0.00792358
-0.00318431
0.000932061
0.00443267
0.00731453
0.00956879
0.0111484
0.0120592
)
;
    }
}


// ************************************************************************* //
