/*--------------------------------*- C++ -*----------------------------------*\
  =========                 |
  \\      /  F ield         | OpenFOAM: The Open Source CFD Toolbox
   \\    /   O peration     | Website:  https://openfoam.org
    \\  /    A nd           | Version:  7
     \\/     M anipulation  |
\*---------------------------------------------------------------------------*/
FoamFile
{
    version     2.0;
    format      ascii;
    class       volVectorField;
    location    "15";
    object      U;
}
// * * * * * * * * * * * * * * * * * * * * * * * * * * * * * * * * * * * * * //

dimensions      [0 1 -1 0 0 0 0];

internalField   nonuniform List<vector> 
2125
(
(0.00968598 -0.00531214 -4.2477e-20)
(0.0129595 -0.0068704 1.55714e-20)
(0.0522838 -0.0212708 1.80208e-20)
(0.0166251 -0.008344 -1.05468e-20)
(0.0631292 -0.0244706 -8.21034e-21)
(0.0206821 -0.00969139 2.21715e-20)
(0.0749464 -0.0272547 -6.5603e-21)
(0.145473 -0.037278 -3.91593e-21)
(0.0251256 -0.0108708 -8.22993e-21)
(0.0877044 -0.0295145 -5.16138e-20)
(0.166286 -0.0391989 5.54041e-21)
(0.257609 -0.042796 1.94818e-20)
(0.0299461 -0.0118406 -8.92731e-21)
(0.101359 -0.0311442 1.84187e-20)
(0.188281 -0.0400777 2.45767e-20)
(0.287321 -0.042003 -1.81436e-20)
(0.396203 -0.0375124 6.84958e-21)
(0.512219 -0.0274253 -4.35335e-20)
(0.035129 -0.0125599 -1.13953e-20)
(0.115851 -0.0320419 -3.8525e-21)
(0.211341 -0.0397758 -4.43468e-20)
(0.318095 -0.0396287 -7.08675e-21)
(0.433587 -0.0324852 -6.76608e-22)
(0.554781 -0.0194641 2.68899e-21)
(0.678078 -0.00209786 4.52766e-21)
(0.0406545 -0.0129885 -2.87819e-21)
(0.131106 -0.0321115 1.51457e-20)
(0.235328 -0.0381678 2.17234e-20)
(0.349721 -0.035543 1.40113e-20)
(0.47151 -0.025436 -4.26811e-21)
(0.597343 -0.00928445 -3.67291e-21)
(0.723287 0.0110695 3.78353e-20)
(0.845041 0.033668 5.48534e-21)
(0.0464966 -0.0130879 2.82929e-20)
(0.147036 -0.0312637 1.94408e-20)
(0.260081 -0.0351434 -2.03954e-20)
(0.381963 -0.0296407 -4.15422e-21)
(0.509665 -0.0162905 2.22634e-21)
(0.63954 0.00313218 -8.64316e-21)
(0.767375 0.0264656 -1.95484e-20)
(0.888668 0.0514878 -3.25328e-21)
(0.999027 0.0761326 1.71675e-22)
(1.0933 0.094157 9.11048e-21)
(0.052623 -0.0128212 3.23194e-21)
(0.163537 -0.0294179 -1.05907e-20)
(0.285421 -0.0306093 2.59117e-20)
(0.414565 -0.0218431 1.73901e-20)
(0.547726 -0.00500989 4.9888e-22)
(0.680998 0.0177628 1.33984e-20)
(0.80995 0.0439896 2.02666e-21)
(0.92998 0.0711942 -1.55867e-20)
(1.03677 0.0971183 1.38358e-20)
(1.12583 0.116227 1.45853e-22)
(0.0589949 -0.0121545 -2.29849e-20)
(0.180488 -0.0265037 -7.18836e-21)
(0.311145 -0.0244916 -6.79198e-21)
(0.44725 -0.0120997 -1.21116e-20)
(0.585355 0.00840893 2.93379e-21)
(0.72134 0.0345448 8.10531e-23)
(0.850633 0.0635038 1.09041e-20)
(0.968641 0.092576 -1.84053e-21)
(1.07125 0.119354 -1.42889e-20)
(1.15469 0.139009 -1.37089e-20)
(0.0655669 -0.0110571 1.82769e-21)
(0.197755 -0.0224622 1.14324e-20)
(0.337037 -0.0167371 5.64357e-21)
(0.479725 -0.000389376 -1.85741e-20)
(0.622203 0.0239338 -1.02006e-21)
(0.760193 0.0533791 -8.90222e-21)
(0.889068 0.0848386 2.44396e-22)
(1.00435 0.115403 4.6394e-21)
(1.10227 0.14257 -5.41866e-21)
(1.17979 0.162223 1.5519e-20)
(0.0722872 -0.00950273 4.21153e-21)
(0.215191 -0.0172484 -1.09781e-20)
(0.362863 -0.00731521 -2.69011e-20)
(0.511688 0.013279 2.59191e-20)
(0.657924 0.0414982 -2.06057e-21)
(0.7972 0.0741327 6.41531e-21)
(0.924926 0.107798 -9.74064e-22)
(1.03686 0.139431 6.9154e-21)
(1.12967 0.166503 -5.32252e-22)
(1.20111 0.185613 -1.20003e-20)
(0.079098 -0.00747015 -8.3863e-21)
(0.232638 -0.0108323 1.40714e-20)
(0.388382 0.0037804 1.21725e-20)
(0.542834 0.0288657 -1.83137e-20)
(0.692176 0.0610021 -3.19657e-21)
(0.83202 0.0966418 1.30358e-21)
(0.957913 0.132163 1.40154e-20)
(1.06595 0.164408 7.70373e-22)
(1.15336 0.190897 3.00546e-21)
(1.21868 0.208952 -6.69746e-21)
(0.0859362 -0.00494412 6.33665e-21)
(0.249925 -0.00320085 -6.07826e-21)
(0.41334 0.0165309 -5.26683e-21)
(0.572852 0.0463004 9.63651e-21)
(0.724627 0.082314 3.57212e-21)
(0.864341 0.120716 2.89e-21)
(0.987776 0.157699 -1.42592e-20)
(1.09147 0.190079 -5.1826e-21)
(1.17329 0.215505 -4.82398e-21)
(1.23256 0.232036 2.20857e-21)
(0.0927338 -0.00191615 -3.02789e-21)
(0.266878 0.00564129 -6.45182e-23)
(0.437484 0.0308913 9.94919e-21)
(0.601442 0.0654825 -3.8896e-21)
(0.754964 0.105273 -1.80552e-21)
(0.893879 0.146141 -1.27919e-21)
(1.0143 0.184158 3.45859e-21)
(1.11332 0.216189 6.30728e-21)
(1.18946 0.240096 -2.00418e-22)
(1.24286 0.254684 2.43608e-21)
(0.0994195 0.00161481 2.11007e-21)
(0.283316 0.0156702 -6.40343e-22)
(0.46056 0.0467902 -1.75556e-21)
(0.62831 0.0862821 -1.68484e-21)
(0.782897 0.129691 1.64575e-21)
(0.920389 0.172683 1.38725e-21)
(1.03733 0.211284 -1.3559e-21)
(1.13141 0.242488 5.27729e-22)
(1.20192 0.264452 7.6464e-22)
(1.2497 0.276734 -1.03299e-21)
(0.105919 0.00564175 1.08196e-21)
(0.299058 0.0268423 3.44992e-22)
(0.482318 0.06413 -2.08902e-21)
(0.653179 0.108541 -1.79708e-21)
(0.808162 0.155355 2.02605e-21)
(0.94366 0.200094 4.23152e-22)
(1.05673 0.238817 -1.09289e-21)
(1.14574 0.268732 1.07427e-21)
(1.21074 0.288369 6.21664e-22)
(1.25325 0.298046 -7.18044e-22)
(0.112157 0.0101492 -4.41469e-22)
(0.313922 0.039094 9.05483e-22)
(0.502518 0.0827871 6.29351e-21)
(0.675792 0.132077 -3.01034e-21)
(0.830526 0.182034 -1.65716e-21)
(0.963522 0.228113 -2.01963e-21)
(1.07242 0.266494 4.38957e-21)
(1.15632 0.294686 3.09353e-21)
(1.21602 0.311659 2.56006e-21)
(1.25366 0.318492 1.40175e-21)
(0.118058 0.0151132 8.19569e-21)
(0.327733 0.0523418 -4.82397e-21)
(0.520933 0.102614 -5.99745e-21)
(0.695914 0.156681 8.70901e-21)
(0.84979 0.209477 4.99978e-21)
(0.979846 0.25647 -3.71169e-22)
(1.08437 0.294057 -7.27844e-21)
(1.16321 0.320125 -5.56735e-21)
(1.2179 0.334147 -5.93135e-21)
(1.25112 0.33796 3.50763e-21)
(0.123548 0.0205007 -1.094e-20)
(0.340324 0.0664828 1.09591e-20)
(0.537354 0.123439 1.33077e-20)
(0.71334 0.182127 -1.44014e-20)
(0.865791 0.237421 -5.54161e-21)
(0.992542 0.284894 3.87115e-21)
(1.09257 0.321252 7.6461e-21)
(1.16648 0.344838 1.24091e-21)
(1.21651 0.355674 -1.699e-22)
(1.24581 0.35635 -4.6429e-21)
(0.128555 0.0262703 -1.46273e-21)
(0.351538 0.0813958 -1.50286e-20)
(0.551592 0.145071 -1.7216e-20)
(0.727893 0.20817 2.12574e-20)
(0.878404 0.265592 -2.59126e-21)
(1.00156 0.313112 5.3049e-21)
(1.09706 0.347832 1.13791e-21)
(1.16625 0.368622 -3.38095e-21)
(1.21204 0.376092 1.88944e-21)
(1.23793 0.373569 -1.09897e-22)
(0.133013 0.0323723 2.96465e-21)
(0.361231 0.0969428 8.99246e-21)
(0.563482 0.167301 5.63016e-21)
(0.739431 0.234551 -4.74459e-21)
(0.887543 0.29371 -7.96305e-21)
(1.00689 0.340853 -8.45587e-21)
(1.0979 0.373561 -1.83006e-21)
(1.16264 0.391289 4.92731e-21)
(1.20464 0.395263 -1.08553e-21)
(1.22765 0.389536 2.50827e-21)
(0.136858 0.0387493 -1.05084e-20)
(0.369278 0.11297 -1.08783e-20)
(0.572887 0.189904 -1.75864e-21)
(0.747847 0.261002 -2.19161e-21)
(0.893158 0.321496 -5.69859e-21)
(1.00855 0.367851 3.98577e-21)
(1.09518 0.398212 -7.96392e-22)
(1.15582 0.412665 -4.41534e-21)
(1.1945 0.41306 4.05855e-21)
(1.21517 0.404176 -5.33581e-21)
(0.140037 0.0453368 2.99624e-21)
(0.375572 0.129312 9.13516e-21)
(0.579698 0.212643 8.47635e-21)
(0.753067 0.287247 1.02018e-20)
(0.895239 0.348667 4.04895e-22)
(1.00661 0.393851 1.08026e-20)
(1.08904 0.421574 6.17591e-22)
(1.14592 0.432585 -1.40207e-20)
(1.18178 0.429362 1.00685e-20)
(1.20062 0.417414 3.81319e-21)
(0.142501 0.0520641 6.54918e-21)
(0.380024 0.145791 1.52585e-20)
(0.583838 0.235272 -2.37095e-21)
(0.755058 0.313008 -1.24543e-20)
(0.893813 0.374948 6.40137e-21)
(1.00116 0.418607 -7.39775e-21)
(1.0796 0.443447 -1.01385e-20)
(1.13314 0.450906 -4.24556e-22)
(1.16667 0.444074 -7.73214e-21)
(1.18409 0.429132 2.7819e-21)
(0.144212 0.0588555 2.62083e-21)
(0.382573 0.162222 1.52825e-21)
(0.58526 0.257541 1.99601e-20)
(0.753821 0.338009 4.37874e-21)
(0.888943 0.400072 -3.99331e-21)
(0.992308 0.441886 -2.46858e-21)
(1.06704 0.463647 1.45823e-20)
(1.11765 0.467501 1.22443e-20)
(1.14935 0.457164 6.03392e-21)
(1.16588 0.439208 -5.9894e-22)
(0.14514 0.0656312 4.32106e-22)
(0.383177 0.178413 -1.50275e-20)
(0.583951 0.279197 -2.27779e-20)
(0.749392 0.361976 7.12035e-22)
(0.880724 0.42378 6.11566e-21)
(0.980215 0.46347 -8.38889e-21)
(1.05154 0.482003 -2.00838e-20)
(1.09966 0.482227 -6.04781e-21)
(1.13001 0.468508 -3.06177e-22)
(1.14622 0.447736 1.31499e-21)
(0.145267 0.0723088 -4.15948e-21)
(0.38182 0.194173 1.07833e-20)
(0.579931 0.29999 1.30072e-20)
(0.741844 0.384646 -1.32222e-20)
(0.869286 0.445829 2.30792e-21)
(0.965052 0.483155 1.85614e-20)
(1.03329 0.498364 -3.12752e-21)
(1.07933 0.494989 3.34304e-21)
(1.10878 0.477993 -7.02437e-22)
(1.1252 0.454621 -5.63359e-22)
(0.144584 0.0788041 -8.05828e-21)
(0.378512 0.209307 -1.73853e-20)
(0.57325 0.319675 -3.94332e-21)
(0.731283 0.405765 7.22327e-21)
(0.854787 0.465988 7.45536e-21)
(0.947012 0.500758 -1.73163e-20)
(1.0125 0.512595 9.41715e-21)
(1.05686 0.505695 -3.18741e-21)
(1.08584 0.485561 1.40049e-21)
(1.10291 0.459769 6.21858e-22)
(0.143094 0.0850335 6.23745e-21)
(0.373286 0.223625 1.1796e-21)
(0.563991 0.338012 -1.39094e-21)
(0.717848 0.425091 -7.54324e-21)
(0.837412 0.484046 4.42114e-21)
(0.926314 0.516112 2.32448e-21)
(0.989392 0.52458 -3.12174e-21)
(1.03247 0.514268 2.11618e-21)
(1.06135 0.491158 8.83446e-22)
(1.07948 0.463111 -2.80026e-21)
(0.14081 0.0909147 -1.05279e-21)
(0.366197 0.236943 -8.27203e-22)
(0.552267 0.354776 5.58082e-21)
(0.701703 0.4424 3.35659e-21)
(0.817371 0.49981 -5.97226e-21)
(0.903196 0.52907 5.63409e-21)
(0.964206 0.534218 1.46404e-21)
(1.00634 0.520648 2.68165e-21)
(1.03546 0.494741 6.29642e-21)
(1.05501 0.46458 1.13782e-21)
(0.137752 0.0963649 5.55572e-21)
(0.357328 0.249086 5.85293e-21)
(0.538216 0.369752 -1.93451e-21)
(0.683042 0.457483 -6.40701e-22)
(0.794903 0.513106 -2.00824e-21)
(0.877912 0.539505 -1.13979e-21)
(0.937191 0.541431 2.59462e-21)
(0.978699 0.524793 7.1349e-23)
(1.00828 0.496282 -5.57522e-21)
(1.0296 0.464102 -7.11932e-21)
(0.133955 0.101302 -2.14487e-21)
(0.346784 0.259885 -7.37255e-22)
(0.522004 0.382747 -3.08043e-21)
(0.662083 0.470155 1.04756e-21)
(0.770259 0.52378 -2.84256e-21)
(0.850732 0.547308 6.33708e-21)
(0.908612 0.546154 -7.09288e-22)
(0.94976 0.526684 1.13547e-21)
(0.979935 0.49577 -5.41075e-21)
(1.0033 0.461594 8.47846e-21)
(0.129466 0.105656 -2.12927e-21)
(0.334683 0.269183 3.16981e-22)
(0.503817 0.393579 -1.51047e-21)
(0.639065 0.480247 -2.31409e-21)
(0.743709 0.531697 -1.89933e-21)
(0.82194 0.552388 -1.73175e-22)
(0.878749 0.548343 3.22585e-21)
(0.919762 0.526318 -1.47816e-20)
(0.950534 0.49321 3.18101e-20)
(0.976124 0.456929 1.29867e-20)
(0.124338 0.10936 3.81361e-22)
(0.321166 0.276842 -8.51128e-21)
(0.483864 0.40209 6.51175e-21)
(0.614243 0.487615 -1.38388e-21)
(0.715536 0.536746 3.25324e-21)
(0.79183 0.554672 -5.65792e-21)
(0.847898 0.547969 -1.10068e-20)
(0.888975 0.523725 5.80015e-21)
(0.920239 0.488658 -2.58425e-21)
(0.948036 0.449994 -6.3326e-21)
(0.118628 0.112352 -2.01118e-21)
(0.306387 0.282739 2.23012e-21)
(0.462369 0.408141 -4.34807e-21)
(0.587886 0.492137 4.47991e-21)
(0.68603 0.538835 8.60295e-21)
(0.7607 0.5541 5.5646e-21)
(0.816369 0.545011 1.90837e-20)
(0.85774 0.518958 -1.38847e-20)
(0.889469 0.482335 -2.76518e-20)
(0.918785 0.441194 1.13888e-20)
(0.112406 0.114578 -4.7524e-21)
(0.290518 0.286766 -4.44932e-21)
(0.439572 0.411618 1.58792e-21)
(0.560272 0.493715 1.38101e-20)
(0.655485 0.537892 -1.59993e-20)
(0.728844 0.550622 -2.19399e-20)
(0.784464 0.539426 -7.0723e-21)
(0.826496 0.511989 -9.66196e-22)
(0.859154 0.474515 3.48802e-20)
(0.887994 0.430959 -9.15237e-21)
(0.105744 0.115992 1.41194e-20)
(0.273741 0.288837 -5.1835e-22)
(0.415723 0.412431 -2.63713e-21)
(0.531686 0.492277 -1.15047e-22)
(0.62419 0.533868 -8.0986e-21)
(0.696535 0.544205 3.9627e-20)
(0.752443 0.531156 -2.73805e-20)
(0.795648 0.502573 3.43632e-20)
(0.830276 0.464712 -2.55689e-20)
(0.861213 0.421232 -3.45253e-20)
(0.098723 0.116556 -6.64717e-21)
(0.256246 0.288883 3.05934e-21)
(0.391079 0.410516 -1.23506e-21)
(0.502417 0.487779 1.32672e-20)
(0.592435 0.526745 -4.45516e-21)
(0.664029 0.534851 7.06568e-21)
(0.720487 0.520215 1.64014e-20)
(0.765131 0.490739 -8.98885e-21)
(0.801798 0.452651 -2.32475e-20)
(0.834476 0.409671 3.4063e-20)
(0.0914269 0.116241 1.33813e-20)
(0.238233 0.286859 1.88939e-20)
(0.365904 0.405835 -1.57936e-20)
(0.472757 0.480206 -1.38692e-20)
(0.560506 0.516532 4.10591e-20)
(0.631584 0.52259 -4.22838e-20)
(0.6888 0.50666 5.20084e-20)
(0.735042 0.476616 -1.40809e-20)
(0.773749 0.438607 1.57817e-20)
(0.808149 0.396468 2.96579e-20)
(0.0839435 0.11503 -6.28473e-21)
(0.219905 0.282738 -1.69449e-20)
(0.340468 0.398376 -6.9055e-21)
(0.443 0.469568 -4.56808e-21)
(0.528692 0.503261 3.55195e-21)
(0.599463 0.507473 -1.01853e-20)
(0.657608 0.490559 -1.56613e-20)
(0.705566 0.460302 -3.49415e-20)
(0.74635 0.42274 3.62129e-20)
(0.78257 0.381765 -1.25514e-20)
(0.0763624 0.112913 2.32241e-20)
(0.201469 0.276516 -1.53164e-21)
(0.315039 0.388153 -9.08715e-21)
(0.413436 0.455901 1.33801e-20)
(0.497278 0.486988 -2.45277e-20)
(0.567926 0.48957 6.60587e-20)
(0.627138 0.471985 -3.68118e-20)
(0.676899 0.441866 3.54128e-20)
(0.71979 0.405107 -6.88089e-20)
(0.757905 0.365578 -1.90515e-20)
(0.0687747 0.109892 -9.6318e-21)
(0.183131 0.268211 2.487e-20)
(0.289884 0.375206 6.58402e-21)
(0.384353 0.439267 -1.14917e-20)
(0.466543 0.46779 -2.06095e-20)
(0.537227 0.468964 -1.2488e-21)
(0.597614 0.451022 1.23142e-20)
(0.649234 0.421382 -3.14076e-20)
(0.694243 0.38575 1.67746e-20)
(0.734297 0.347915 2.20183e-21)
(0.0612712 0.105977 -3.67608e-20)
(0.165096 0.25786 -9.93408e-21)
(0.265265 0.3596 -2.51527e-21)
(0.356031 0.419751 2.91631e-20)
(0.436758 0.445766 -2.79071e-20)
(0.507613 0.445756 -7.88889e-21)
(0.569253 0.427761 -4.8973e-21)
(0.622757 0.398925 9.77432e-21)
(0.669871 0.364722 -1.28681e-20)
(0.711877 0.3288 -2.1284e-20)
(0.0539414 0.10119 3.03702e-20)
(0.147565 0.245522 -1.74484e-20)
(0.241438 0.341423 1.10702e-21)
(0.32874 0.397463 -4.38968e-20)
(0.408183 0.421032 4.92869e-20)
(0.479319 0.420061 -1.64418e-20)
(0.542257 0.402309 1.03992e-20)
(0.59764 0.374584 9.60449e-21)
(0.646822 0.342086 2.9427e-20)
(0.690764 0.308276 -1.24119e-20)
(0.0468725 0.0955614 -1.23176e-20)
(0.130732 0.231275 3.62854e-20)
(0.218646 0.320787 2.03988e-20)
(0.30274 0.372533 3.35793e-20)
(0.381064 0.393727 -8.31621e-21)
(0.452566 0.392011 3.37497e-21)
(0.516817 0.374782 2.94236e-20)
(0.574045 0.348456 6.85729e-21)
(0.625229 0.317918 6.66544e-22)
(0.671061 0.286401 -1.48482e-20)
(0.0401484 0.0891293 -2.61936e-20)
(0.114781 0.215215 -2.08761e-21)
(0.197124 0.297826 -1.15756e-20)
(0.278273 0.345115 -5.32208e-20)
(0.355632 0.364005 -5.38943e-20)
(0.42756 0.361753 9.50175e-21)
(0.493112 0.345311 -2.48157e-20)
(0.55212 0.320651 1.67803e-20)
(0.605215 0.292306 9.71938e-21)
(0.65286 0.26325 2.14284e-20)
(0.0338486 0.0819421 3.69564e-20)
(0.0998873 0.197457 -3.20764e-20)
(0.177089 0.272693 -1.63349e-20)
(0.255567 0.31538 3.07448e-20)
(0.332104 0.33204 3.63463e-20)
(0.404492 0.329449 -1.26138e-20)
(0.471304 0.31404 -1.63256e-21)
(0.531999 0.291292 -5.20179e-20)
(0.586888 0.26535 -3.11448e-20)
(0.636245 0.238911 1.261e-20)
(0.0280475 0.0740557 -2.09503e-20)
(0.0862133 0.178132 9.41304e-21)
(0.158743 0.245563 3.48525e-20)
(0.234832 0.283519 -1.59157e-20)
(0.310675 0.298021 1.2246e-21)
(0.383537 0.295274 5.09168e-20)
(0.45154 0.281123 2.53133e-21)
(0.513804 0.26051 4.96249e-20)
(0.570348 0.237163 2.20152e-20)
(0.621289 0.213482 -3.68635e-20)
(0.0228134 0.0655336 2.79557e-20)
(0.0739073 0.157387 3.23337e-21)
(0.142271 0.216627 2.24227e-21)
(0.216258 0.249741 3.26775e-20)
(0.291525 0.262154 -4.64581e-21)
(0.364852 0.259417 -3.18334e-20)
(0.433952 0.246727 1.66643e-20)
(0.497644 0.228448 -2.79636e-20)
(0.555682 0.207865 -1.23867e-20)
(0.608057 0.18707 1.34032e-20)
(0.0182076 0.0564461 -1.74623e-20)
(0.0631024 0.135382 -3.5227e-20)
(0.127837 0.186092 8.29532e-21)
(0.200015 0.214269 -1.70885e-20)
(0.274811 0.224655 -1.10034e-20)
(0.348574 0.222078 2.81982e-20)
(0.418658 0.211028 -7.17355e-21)
(0.483613 0.195259 7.17857e-21)
(0.542967 0.177588 -9.27552e-21)
(0.596608 0.159793 1.92215e-20)
(0.0142841 0.0468694 6.18511e-21)
(0.0539151 0.112289 2.35617e-20)
(0.115583 0.15418 -3.36507e-20)
(0.186249 0.17734 1.67226e-20)
(0.260669 0.185756 -8.04443e-21)
(0.334823 0.183466 -2.41076e-20)
(0.405758 0.174211 2.09062e-20)
(0.471794 0.161101 4.77072e-21)
(0.532268 0.146469 -6.81681e-22)
(0.58699 0.131772 -2.24811e-20)
(0.0110889 0.0368852 1.96588e-21)
(0.0464442 0.0882908 7.43844e-21)
(0.105632 0.121123 3.02775e-20)
(0.175085 0.139203 -6.08459e-21)
(0.249216 0.145697 -5.08089e-21)
(0.323701 0.143802 1.99687e-21)
(0.395335 0.136469 8.75225e-22)
(0.462256 0.126143 8.27808e-21)
(0.523643 0.114653 -1.1544e-20)
(0.579245 0.103136 -7.74985e-21)
(0.00865925 0.0265793 -4.99521e-21)
(0.0407699 0.0635801 -9.1054e-21)
(0.098082 0.0871665 -2.34355e-20)
(0.166624 0.100115 1.2372e-20)
(0.240545 0.104726 1.06933e-20)
(0.315288 0.103311 4.59058e-22)
(0.387459 0.0980006 -2.03678e-20)
(0.455053 0.090555 -9.63189e-21)
(0.517134 0.0822898 8.09571e-21)
(0.573407 0.074016 9.17317e-21)
(0.00702358 0.0160412 8.67722e-22)
(0.0369529 0.0383552 -1.88479e-21)
(0.0930069 0.052561 4.44709e-21)
(0.16094 0.0603444 -3.16445e-21)
(0.234724 0.0630992 -2.94445e-21)
(0.309646 0.0622255 -2.11577e-21)
(0.38218 0.0590102 4.17467e-21)
(0.450229 0.0545149 1.69001e-20)
(0.512776 0.0495323 2.58909e-21)
(0.5695 0.0445492 -4.89444e-21)
(0.158086 0.0201608 -2.67535e-21)
(0.231802 0.0210771 2.70813e-21)
(0.306814 0.0207817 1.29904e-21)
(0.379532 0.0197051 -1.37486e-21)
(0.447809 0.018202 -6.68594e-21)
(0.510592 0.0165372 2.32942e-21)
(0.567543 0.014873 -2.31379e-21)
(1.27015 0.279845 -1.0905e-22)
(1.26721 0.260883 -1.09768e-21)
(1.26127 0.241175 -2.04853e-22)
(1.25215 0.220829 -7.29052e-22)
(1.2397 0.199973 3.90531e-21)
(1.2238 0.17876 -3.67205e-21)
(1.20436 0.157367 2.35363e-21)
(1.18133 0.136003 9.33771e-21)
(1.28015 0.279621 -2.24144e-23)
(1.28007 0.26345 9.37512e-22)
(1.27741 0.246527 8.25616e-22)
(1.272 0.228921 -4.02906e-21)
(1.26368 0.210717 1.32137e-21)
(1.25229 0.192021 -8.14565e-22)
(1.2377 0.17296 2.25485e-21)
(1.21983 0.153686 -4.39116e-21)
(1.28486 0.27642 2.8827e-22)
(1.28722 0.262851 6.59071e-22)
(1.28745 0.248561 3.91368e-22)
(1.28536 0.233583 1.98814e-21)
(1.28079 0.217961 2.63862e-21)
(1.27357 0.201754 3.86392e-21)
(1.26353 0.185038 -1.14418e-22)
(1.25054 0.16791 7.32513e-22)
(1.28523 0.270508 -9.46714e-23)
(1.28949 0.259253 -1.12733e-21)
(1.29205 0.247338 -1.04781e-21)
(1.29274 0.23477 7.75813e-22)
(1.29138 0.221558 -2.99534e-21)
(1.2878 0.207725 -7.00764e-21)
(1.28182 0.193306 3.10682e-21)
(1.27327 0.178353 3.77576e-22)
(1.28233 0.262393 1.1455e-23)
(1.28794 0.253142 5.554e-22)
(1.29225 0.243325 1.42393e-21)
(1.2951 0.232926 5.29145e-22)
(1.29634 0.221935 -1.07538e-22)
(1.29579 0.210345 1.7212e-21)
(1.29327 0.198159 1.29101e-21)
(1.28862 0.185393 -1.50474e-21)
(1.27718 0.252613 2.65727e-25)
(1.28362 0.24503 5.61886e-22)
(1.28911 0.23699 -1.0025e-21)
(1.29353 0.228467 -7.99076e-22)
(1.29671 0.219434 5.16333e-22)
(1.29853 0.209866 1.13042e-21)
(1.2988 0.199746 -2.02728e-21)
(1.29737 0.189059 -9.60723e-22)
(1.27061 0.241675 5.00625e-23)
(1.27746 0.235434 -5.87712e-22)
(1.28364 0.228844 8.92172e-22)
(1.28906 0.221874 5.58127e-22)
(1.29359 0.214493 1.13415e-21)
(1.29711 0.206666 -4.89385e-22)
(1.29948 0.198362 -3.23679e-21)
(1.30055 0.189552 2.19725e-21)
(1.26326 0.230023 -1.2001e-22)
(1.27019 0.224839 -2.43738e-22)
(1.27667 0.219398 -2.87769e-22)
(1.28263 0.213674 -3.54098e-22)
(1.28798 0.207636 1.79903e-22)
(1.29261 0.201249 1.28031e-21)
(1.29643 0.194478 3.54369e-21)
(1.2993 0.187285 7.36956e-22)
(1.25553 0.218011 5.55057e-23)
(1.26233 0.213647 -2.43458e-24)
(1.26883 0.209103 -1.10837e-22)
(1.27498 0.204355 -5.52704e-22)
(1.28073 0.19938 -9.97003e-22)
(1.286 0.194146 -1.35446e-21)
(1.29072 0.18862 -9.25051e-22)
(1.29478 0.182764 -1.34957e-21)
(1.24772 0.205889 3.13888e-23)
(1.25424 0.202166 4.28154e-22)
(1.26057 0.198317 3.72407e-23)
(1.26667 0.194328 3.80921e-22)
(1.27252 0.190179 2.4532e-23)
(1.27806 0.185847 -1.82791e-21)
(1.28324 0.181303 -1.27813e-22)
(1.28798 0.176517 1.11904e-21)
(1.23995 0.193824 -7.77959e-23)
(1.24612 0.19061 9.80322e-23)
(1.25217 0.187309 -1.19984e-22)
(1.25808 0.183912 -2.49585e-22)
(1.26383 0.180404 -3.6332e-22)
(1.26938 0.17677 1.23535e-21)
(1.2747 0.172989 5.90047e-22)
(1.27975 0.169037 -1.04071e-21)
(1.23232 0.181924 2.41834e-23)
(1.23811 0.179125 -3.22829e-22)
(1.24382 0.176264 1.81678e-22)
(1.24944 0.173335 1.37183e-23)
(1.25496 0.170331 4.01783e-22)
(1.26036 0.167241 -4.07099e-22)
(1.26562 0.164052 5.48145e-22)
(1.27071 0.160745 7.93355e-22)
(1.22486 0.170256 1.32358e-23)
(1.23026 0.167803 1.30379e-22)
(1.23561 0.165304 -3.08565e-22)
(1.2409 0.162757 -5.19611e-23)
(1.24612 0.160158 -3.79087e-22)
(1.25128 0.157499 4.57717e-22)
(1.25634 0.154774 -1.77199e-21)
(1.26131 0.15197 -1.08123e-21)
(1.21759 0.158857 -2.922e-23)
(1.2226 0.156698 3.59146e-23)
(1.22759 0.154506 2.4078e-22)
(1.23253 0.152278 -1.25647e-22)
(1.23743 0.150013 5.98831e-22)
(1.24229 0.147706 -2.13682e-22)
(1.24709 0.145354 3.47711e-22)
(1.25184 0.142949 6.20421e-22)
(1.2105 0.147742 2.62638e-23)
(1.21515 0.14584 -9.40628e-24)
(1.21978 0.143913 -1.73957e-22)
(1.22438 0.141959 4.42277e-22)
(1.22895 0.139977 -2.83202e-22)
(1.2335 0.137965 2.58822e-22)
(1.238 0.135922 2.71282e-22)
(1.24248 0.133843 1.17645e-22)
(1.2036 0.13692 8.99863e-24)
(1.20791 0.135245 2.44322e-23)
(1.2122 0.13355 8.07397e-23)
(1.21647 0.131834 -2.84692e-22)
(1.22072 0.130098 -2.03794e-22)
(1.22495 0.12834 4.88135e-23)
(1.22915 0.126559 -2.32319e-22)
(1.23333 0.124753 2.41832e-22)
(1.23749 0.12292 -1.12397e-21)
(1.19688 0.126384 -1.44806e-23)
(1.20087 0.124911 -3.18595e-24)
(1.20484 0.123422 -1.44621e-24)
(1.2088 0.121918 1.84959e-22)
(1.21275 0.120398 1.3501e-22)
(1.21668 0.118862 -7.89049e-23)
(1.22059 0.117309 -1.92746e-22)
(1.22448 0.115739 4.86838e-24)
(1.22835 0.11415 1.68085e-22)
(1.19036 0.116121 4.15696e-24)
(1.19405 0.11483 -1.43694e-25)
(1.19773 0.113526 3.62591e-23)
(1.2014 0.112211 -5.53741e-23)
(1.20506 0.110884 -2.73976e-23)
(1.2087 0.109545 1.85024e-22)
(1.21233 0.108194 7.79078e-23)
(1.21594 0.10683 -2.99597e-22)
(1.21954 0.105452 -1.10181e-22)
(1.18404 0.106124 -3.05291e-24)
(1.18746 0.104995 -5.27144e-24)
(1.19087 0.103858 -1.76912e-23)
(1.19427 0.102712 -8.63432e-24)
(1.19766 0.101557 -9.13812e-23)
(1.20104 0.100393 9.79512e-23)
(1.2044 0.0992203 -7.99346e-23)
(1.20775 0.0980385 -2.01382e-22)
(1.21108 0.0968472 3.28791e-22)
(1.17794 0.0963674 1.86884e-24)
(1.18111 0.0953864 -6.73024e-25)
(1.18427 0.0943989 -6.32066e-24)
(1.18743 0.0934049 -1.13624e-23)
(1.19057 0.0924045 1.00906e-23)
(1.1937 0.0913977 -5.03682e-23)
(1.19682 0.0903845 1.05134e-22)
(1.19993 0.0893648 1.15624e-22)
(1.20302 0.0883384 -2.09204e-23)
(1.17209 0.086832 -6.3838e-24)
(1.17503 0.0859842 5.23235e-24)
(1.17797 0.0851318 -3.31473e-24)
(1.1809 0.0842748 -2.80024e-24)
(1.18382 0.0834134 -3.92524e-25)
(1.18672 0.0825474 7.44728e-24)
(1.18961 0.081677 -1.62318e-23)
(1.19249 0.080802 -1.14358e-22)
(1.19536 0.0799223 7.62924e-23)
(1.16651 0.0774901 -1.41284e-24)
(1.16926 0.0767631 1.37988e-23)
(1.17199 0.076033 5.86681e-24)
(1.17471 0.0752999 -3.39931e-24)
(1.17742 0.0745638 -6.02947e-24)
(1.18012 0.0738246 -7.85217e-24)
(1.18281 0.0730823 -3.42473e-23)
(1.18548 0.0723368 4.50397e-23)
(1.18814 0.0715881 -9.8939e-23)
(1.16126 0.0683119 5.63803e-25)
(1.16382 0.0676949 8.66013e-24)
(1.16637 0.0670759 -1.68546e-23)
(1.16891 0.0664551 9.215e-24)
(1.17143 0.0658322 1.80888e-23)
(1.17395 0.0652074 -1.14555e-23)
(1.17645 0.0645805 5.46915e-24)
(1.17893 0.0639514 -9.90439e-24)
(1.1814 0.0633201 5.84776e-23)
(1.15638 0.0592623 9.76168e-24)
(1.15877 0.0587459 -2.01473e-23)
(1.16116 0.0582284 -1.32642e-23)
(1.16353 0.0577097 2.12291e-23)
(1.1659 0.0571899 4.22074e-24)
(1.16824 0.0566688 2.71426e-23)
(1.17058 0.0561463 -1.76113e-24)
(1.17289 0.0556224 -3.63436e-24)
(1.17519 0.0550968 -7.59417e-24)
(1.15192 0.0503019 7.10805e-25)
(1.15418 0.0498779 -6.32555e-24)
(1.15642 0.0494535 9.11233e-25)
(1.15865 0.0490285 -1.23224e-23)
(1.16087 0.0486028 -6.54916e-23)
(1.16307 0.0481763 4.68327e-23)
(1.16525 0.047749 -1.91512e-23)
(1.16742 0.0473206 6.09663e-24)
(1.16956 0.046891 2.50028e-23)
(1.14797 0.041382 -9.95747e-24)
(1.1501 0.0410439 2.32504e-23)
(1.15222 0.0407057 -4.02612e-24)
(1.15433 0.0403673 4.12035e-23)
(1.15642 0.0400286 -2.16298e-23)
(1.15849 0.0396895 -1.65138e-23)
(1.16055 0.0393497 -3.31137e-23)
(1.16258 0.0390091 9.87289e-24)
(1.1646 0.0386676 1.51098e-23)
(1.14459 0.0324487 -1.14101e-23)
(1.14662 0.0321911 5.64401e-24)
(1.14864 0.0319335 1.54419e-23)
(1.15064 0.031676 -3.98879e-23)
(1.15263 0.0314182 6.09024e-23)
(1.15459 0.0311602 -3.99524e-23)
(1.15654 0.0309018 -1.2079e-23)
(1.15847 0.0306427 5.91036e-23)
(1.16037 0.0303827 2.21026e-23)
(1.14188 0.0234302 -1.68804e-24)
(1.14383 0.0232496 2.8576e-23)
(1.14576 0.0230692 -9.38369e-24)
(1.14768 0.0228889 5.98019e-23)
(1.14958 0.0227085 -6.30246e-23)
(1.15146 0.0225279 -1.24569e-23)
(1.15333 0.0223468 -2.47874e-23)
(1.15517 0.0221652 6.25793e-23)
(1.15699 0.0219828 -1.04374e-22)
(1.13994 0.0142564 -2.22176e-25)
(1.14183 0.0141489 -6.77605e-24)
(1.14371 0.0140415 -7.65223e-24)
(1.14557 0.0139341 2.66092e-23)
(1.1474 0.0138265 -4.64159e-23)
(1.14922 0.0137187 4.57799e-23)
(1.15102 0.0136106 -4.39204e-23)
(1.1528 0.0135019 2.1482e-23)
(1.15456 0.0133926 3.22252e-23)
(1.13887 0.00480259 -8.11807e-25)
(1.14072 0.00477118 2.26364e-23)
(1.14256 0.00473974 -4.57287e-23)
(1.14438 0.00470813 -3.58779e-23)
(1.14618 0.00467627 2.74451e-23)
(1.14797 0.00464404 -2.71566e-23)
(1.14974 0.00461132 3.53335e-23)
(1.15148 0.00457801 9.38e-24)
(1.15321 0.00454401 1.20134e-23)
(0.9546 0.413779 2.72738e-21)
(0.979269 0.419451 -1.96392e-21)
(1.00283 0.424503 6.29452e-21)
(1.02584 0.428217 -1.32866e-21)
(1.04874 0.430452 1.35387e-22)
(1.07129 0.431205 -2.29462e-22)
(1.09327 0.430466 8.80462e-22)
(1.11458 0.428241 4.50817e-22)
(1.13511 0.424555 -1.09769e-23)
(1.15475 0.419444 -8.65903e-22)
(1.17337 0.412948 -1.01161e-21)
(1.19073 0.405083 1.22413e-21)
(1.20682 0.395823 -3.11111e-21)
(1.22156 0.385309 -9.43661e-22)
(1.23467 0.373574 1.78866e-21)
(1.246 0.360646 -2.45405e-21)
(1.2554 0.346569 4.51848e-22)
(1.26269 0.331394 1.63282e-22)
(1.2677 0.315174 9.63684e-22)
(1.27025 0.297968 1.61405e-22)
(0.977597 0.395766 -4.25871e-21)
(1.00063 0.399472 3.14474e-21)
(1.02221 0.402653 -7.8509e-21)
(1.04271 0.404972 -6.89393e-21)
(1.06314 0.406256 -5.98305e-22)
(1.08338 0.406466 5.93278e-22)
(1.10323 0.405568 -6.72048e-22)
(1.12261 0.403538 -1.03192e-21)
(1.14143 0.400369 1.22679e-22)
(1.1596 0.396064 5.13882e-22)
(1.17699 0.390626 -1.24922e-22)
(1.19343 0.384065 -1.25893e-21)
(1.20891 0.376462 1.18233e-21)
(1.22332 0.367834 -8.93258e-22)
(1.23644 0.358157 2.46319e-22)
(1.24813 0.347451 -6.00871e-22)
(1.25828 0.335749 2.52007e-21)
(1.26673 0.323082 -5.20842e-22)
(1.2733 0.30948 -8.09723e-22)
(1.27783 0.29498 4.9769e-24)
(0.998998 0.378404 -2.23229e-21)
(1.01964 0.381202 -4.68398e-21)
(1.03905 0.383154 1.98338e-21)
(1.05735 0.384319 5.29064e-21)
(1.07558 0.384653 -1.36341e-21)
(1.09372 0.384151 3.44446e-24)
(1.11157 0.38281 -9.0217e-22)
(1.12906 0.380623 -9.57491e-22)
(1.14613 0.377584 -2.98943e-22)
(1.16271 0.373692 -3.203e-23)
(1.17871 0.36895 1.12385e-21)
(1.19401 0.363375 -1.57606e-22)
(1.20862 0.357014 -2.64335e-22)
(1.22246 0.349746 1.05113e-22)
(1.23526 0.341657 -1.9974e-21)
(1.24698 0.332766 -1.33918e-21)
(1.25751 0.323073 -1.06478e-21)
(1.26672 0.312582 -2.78427e-22)
(1.27445 0.301301 -5.99054e-22)
(1.28055 0.289243 -2.97639e-22)
(1.01856 0.361046 -4.14413e-21)
(1.03704 0.36275 6.32805e-21)
(1.05444 0.363661 -2.93432e-21)
(1.07081 0.363917 1.72612e-22)
(1.08707 0.363521 -7.74448e-22)
(1.10325 0.36247 1.73757e-21)
(1.11919 0.360775 7.44265e-22)
(1.13484 0.358442 1.70328e-21)
(1.15017 0.355471 6.765e-23)
(1.16513 0.351865 3.32687e-22)
(1.17969 0.347629 -5.49881e-22)
(1.19376 0.342776 1.23737e-21)
(1.2072 0.337325 -9.03502e-23)
(1.22005 0.331171 -1.01149e-21)
(1.23229 0.324399 3.00687e-21)
(1.24373 0.317012 1.38341e-21)
(1.25427 0.308997 -3.86466e-22)
(1.26382 0.300345 5.54481e-22)
(1.27225 0.29105 9.39537e-22)
(1.27943 0.281106 1.12409e-22)
(1.03578 0.343564 7.1852e-21)
(1.05233 0.34435 -4.73481e-21)
(1.06789 0.344471 1.74479e-21)
(1.08255 0.34406 -1.46915e-21)
(1.09708 0.343132 8.75589e-22)
(1.11153 0.341686 -7.62198e-22)
(1.12576 0.339734 6.09117e-22)
(1.13975 0.33729 -9.18002e-22)
(1.15347 0.334361 5.354e-22)
(1.1669 0.330954 -3.25534e-22)
(1.18002 0.327074 -8.25245e-24)
(1.19278 0.322718 -4.78881e-22)
(1.20512 0.317887 3.0581e-22)
(1.21702 0.312631 -2.9488e-22)
(1.22846 0.306928 -8.81337e-22)
(1.23933 0.300747 2.12486e-23)
(1.24955 0.294081 -2.35842e-22)
(1.25907 0.286925 -9.59829e-22)
(1.26777 0.279268 -3.61539e-22)
(1.27557 0.271096 -4.24601e-23)
(1.05082 0.325867 2.21709e-22)
(1.0656 0.325984 3.87938e-21)
(1.07949 0.32555 1.19069e-21)
(1.09261 0.324683 2.78102e-21)
(1.10559 0.323401 -4.39222e-23)
(1.1185 0.321704 5.26566e-22)
(1.13122 0.319605 -1.49121e-21)
(1.14373 0.31712 -7.1266e-22)
(1.15601 0.314261 -5.28825e-22)
(1.16807 0.311038 4.7614e-24)
(1.17987 0.307461 1.56192e-22)
(1.19139 0.303539 -2.19866e-23)
(1.2026 0.299282 1.11915e-22)
(1.21353 0.29471 7.60502e-22)
(1.22414 0.289767 -6.45555e-22)
(1.23431 0.284479 -2.21496e-22)
(1.24402 0.278849 6.0929e-22)
(1.25324 0.272863 6.87643e-22)
(1.26189 0.266507 -5.04648e-22)
(1.2699 0.259764 2.12478e-23)
(1.06382 0.308134 -3.81394e-21)
(1.077 0.307763 -3.11079e-21)
(1.08937 0.306943 6.49247e-22)
(1.1011 0.305772 1.15505e-21)
(1.11271 0.304268 -2.26434e-21)
(1.12425 0.302433 -3.07652e-21)
(1.13563 0.300279 -1.29833e-21)
(1.14683 0.297819 1.96569e-21)
(1.15784 0.295068 2.63847e-22)
(1.16867 0.292037 -1.87912e-23)
(1.1793 0.288736 -1.522e-23)
(1.18973 0.285177 -1.30458e-22)
(1.19994 0.28137 -3.58009e-22)
(1.20986 0.277328 8.21252e-22)
(1.21953 0.273001 2.1914e-22)
(1.22897 0.268427 -4.34399e-22)
(1.23809 0.263611 -4.2719e-22)
(1.24686 0.258543 1.76515e-22)
(1.25525 0.253208 5.28016e-22)