/*--------------------------------*- C++ -*----------------------------------*\
  =========                 |
  \\      /  F ield         | OpenFOAM: The Open Source CFD Toolbox
   \\    /   O peration     | Website:  https://openfoam.org
    \\  /    A nd           | Version:  7
     \\/     M anipulation  |
\*---------------------------------------------------------------------------*/
FoamFile
{
    version     2.0;
    format      ascii;
    class       surfaceScalarField;
    location    "5";
    object      phi;
}
// * * * * * * * * * * * * * * * * * * * * * * * * * * * * * * * * * * * * * //

dimensions      [0 3 -1 0 0 0 0];

internalField   nonuniform List<scalar> 
4148
(
0.0696451
0.018404
0.0157264
0.0560024
0.0665655
0.018806
0.0126672
0.0430433
0.0158431
0.0528265
0.0633111
0.0190975
0.00693805
0.0239209
0.00957485
0.0314705
0.0125829
0.0400352
0.0158667
0.0495427
0.0598964
0.0192814
0.00456652
0.0156853
0.0067488
0.0217386
0.00938155
0.0288377
0.012427
0.0369898
0.0158016
0.0461681
0.0563346
0.0193634
0.00271207
0.00940235
0.00438688
0.0140105
0.00652554
0.0195999
0.00913772
0.0262255
0.0122028
0.0339247
0.0156529
0.042718
0.0526354
0.0193521
0.00139145
0.0049132
0.00257429
0.0082195
0.00418795
0.0123968
0.00627006
0.0175178
0.0088453
0.0236503
0.0119127
0.0308573
0.0154251
0.0392055
0.0488023
0.0192582
0.00130511
0.00416474
0.0024271
0.00709751
0.00397091
0.010853
0.00598352
0.0155052
0.00850488
0.0211289
0.0115566
0.0278055
0.0151207
0.0356415
0.0448294
0.0190937
0.000515588
0.00158988
0.00121507
0.00346526
0.0022713
0.00604128
0.00373673
0.0093876
0.00566643
0.0135755
0.00811527
0.0186801
0.0111307
0.0247901
0.014736
0.0320361
0.0406965
0.0188689
0.000113835
0.000235943
0.000473519
0.00123019
0.00112184
0.00281694
0.00210778
0.00505534
0.00348643
0.00800895
0.00531898
0.011743
0.00767337
0.0163257
0.0106247
0.0218388
0.0142559
0.028405
0.0363698
0.0185826
0.000102772
0.000133171
0.000430698
0.000902268
0.00102606
0.00222158
0.0019377
0.0041437
0.00322155
0.00672509
0.00494188
0.0100227
0.00717489
0.0140927
0.010019
0.0189947
0.0136341
0.0247899
0.031797
0.0182068
9.1673e-05
4.1498e-05
0.000387458
0.000606483
0.000928573
0.00168046
0.00176272
0.00330955
0.00294481
0.005543
0.0045383
0.00842917
0.00661894
0.012012
0.00928708
0.0163266
0.0127432
0.0213338
0.0268008
0.0177394
8.06321e-05
-3.91341e-05
0.00034421
0.000342906
0.000830455
0.00119422
0.00158515
0.00255486
0.00266069
0.00446747
0.0041165
0.00697335
0.00601978
0.0101087
0.0084467
0.0138996
0.0114458
0.0183346
0.0233598
0.0148869
6.9758e-05
-0.000108892
0.000301412
0.000111252
0.000732912
0.000762717
0.00140769
0.00188009
0.00237498
0.00350017
0.00368955
0.00565879
0.00541016
0.00838814
0.00759687
0.0117129
0.0102927
0.0156387
0.020073
0.0135796
5.91562e-05
-0.000168048
0.000259506
-8.9098e-05
0.000637106
0.000385117
0.00123291
0.00128428
0.00209307
0.00264001
0.0032685
0.00448336
0.00481367
0.00684297
0.00678689
0.00973972
0.00925339
0.0131722
0.017013
0.0123134
4.8915e-05
-0.000216963
0.000218868
-0.000259051
0.000544004
5.99817e-05
0.00106288
0.0007654
0.00181884
0.00188406
0.0028599
0.0034423
0.00423865
0.00546421
0.00601486
0.00796351
0.00826329
0.0109238
0.0141937
0.0110826
3.90967e-05
-0.00025606
0.000179774
-0.000399729
0.000454313
-0.000214557
0.000899024
0.000320688
0.00155472
0.00122836
0.00246707
0.00252995
0.00368737
0.00424391
0.00527584
0.00637505
0.00730815
0.00889151
0.0116294
0.00987245
2.97366e-05
-0.000285797
0.000142402
-0.000512394
0.000368493
-0.000440648
0.000742222
-5.30409e-05
0.0013021
0.000668479
0.0020916
0.00174045
0.00316043
0.00317508
0.00456746
0.00496802
0.006384
0.00707497
0.00933154
0.00868181
2.08486e-05
-0.000306645
0.00010685
-0.000598395
0.000286808
-0.000620607
0.000592969
-0.000359202
0.00106166
0.000199792
0.00173409
0.00106802
0.00265775
0.00225142
0.00388835
0.00373741
0.00548966
0.00547366
0.00730455
0.00751665
1.24326e-05
-0.000319078
7.31609e-05
-0.000659123
0.000209396
-0.000756841
0.000451513
-0.000601319
0.000833688
-0.000182383
0.00139471
0.000506998
0.00217913
0.001467
0.00323811
0.00267844
0.00462655
0.00408523
0.00554612
0.00638499
4.48518e-06
-0.000323563
4.1357e-05
-0.000695995
0.000136337
-0.000851821
0.000318007
-0.000782989
0.000618387
-0.000482762
0.00107363
5.17581e-05
0.00172479
0.000815833
0.00261762
0.00178561
0.00379806
0.00290478
0.00404892
0.00529526
-3.00917e-06
-0.000320554
1.14637e-05
-0.000710468
6.77175e-05
-0.000908075
0.000192619
-0.000907891
0.00041602
-0.000706164
0.000771267
-0.000303489
0.00129556
0.000291542
0.00202887
0.0010523
0.00300882
0.00192483
0.00280182
0.00425592
-1.00214e-05
-0.000310533
-1.64668e-05
-0.000704022
3.67809e-06
-0.00092822
7.56126e-05
-0.000979825
0.000227043
-0.000857595
0.000488419
-0.000564864
0.000892914
-0.000112953
0.00147479
0.000470425
0.00226422
0.0011354
0.00179072
0.00327532
-1.65493e-05
-0.000293983
-4.23578e-05
-0.000678214
-5.55918e-05
-0.000914986
-3.26157e-05
-0.0010028
5.21481e-05
-0.000942358
0.000226265
-0.000738981
0.000518922
-0.000405611
0.00095896
3.03872e-05
0.00157012
0.000524244
0.000999128
0.00236171
-2.25561e-05
-0.000271427
-6.60755e-05
-0.000634694
-0.000109786
-0.000871276
-0.000131527
-0.00098106
-0.000107743
-0.000966142
-1.36491e-05
-0.000833075
0.000176107
-0.000595367
0.00048546
-0.000278966
0.000932663
7.70411e-05
0.000408619
0.00152317
-2.79965e-05
-0.000243431
-8.74584e-05
-0.000575233
-0.000158549
-0.000800186
-0.000220459
-0.00091915
-0.000251522
-0.00093508
-0.000229563
-0.000855033
-0.000132716
-0.000692214
5.85044e-05
-0.000470186
0.000358312
-0.000222766
-8.82935e-07
0.000767813
-3.28163e-05
-0.000210614
-0.000106317
-0.000501732
-0.000201469
-0.000705033
-0.000298669
-0.00082195
-0.000377953
-0.000855795
-0.000419501
-0.000813486
-0.000404557
-0.000707157
-0.000317315
-0.000557429
-0.000147693
-0.000392388
-0.000246356
9.77806e-05
-3.69559e-05
-0.000173658
-0.000122447
-0.000416241
-0.00023811
-0.00058937
-0.000365377
-0.000694682
-0.000485769
-0.000735403
-0.000581501
-0.000717755
-0.000636484
-0.000652174
-0.000638225
-0.000555688
-0.00058026
-0.000450353
-0.000364135
-0.000462481
-4.03558e-05
-0.000133303
-0.000135646
-0.000320952
-0.000268041
-0.000456975
-0.000419826
-0.000542898
-0.000573745
-0.000581484
-0.000713694
-0.000577805
-0.000825756
-0.000540112
-0.000899981
-0.000481463
-0.000932053
-0.00041828
-0.000371617
-0.000924571
-4.29608e-05
-9.03419e-05
-0.000145729
-0.000218184
-0.000290875
-0.000311828
-0.000461333
-0.00037244
-0.00064079
-0.000402027
-0.00081443
-0.000404165
-0.000969986
-0.000384556
-0.00109941
-0.000352039
-0.00120019
-0.000317506
-0.000295016
-0.00127679
-4.47251e-05
-0.000152543
-0.000306289
-0.000489337
-0.000189392
-0.000686013
-0.000205351
-0.000882373
-0.000207806
-0.00106726
-0.000199667
-0.00123391
-0.000185393
-0.001381
-0.000170414
-0.000161773
-0.00151424
-0.000503442
-0.000708787
-0.000916586
-0.00111624
-0.00130163
-0.00147203
-0.00163379
0.215261
-0.00125239
0.21661
-0.00134915
0.218055
-0.00144432
0.219592
-0.00153775
0.221222
-0.00162925
0.22294
-0.00171866
0.224746
-0.0018058
0.226637
-0.0018905
0.228609
-0.00197256
0.230661
-0.00205171
-0.00212743
0.232788
0.205501
-0.00245372
0.206795
-0.00264251
0.208178
-0.00282821
0.209651
-0.00301048
0.211211
-0.00318901
0.212856
-0.00336345
0.214583
-0.00353349
0.216392
-0.00369877
0.218278
-0.0038589
0.22024
-0.00401333
-0.00416105
0.222273
0.196399
-0.00361265
0.197646
-0.0038893
0.198979
-0.00416141
0.200397
-0.0044285
0.201898
-0.0046901
0.20348
-0.00494573
0.205142
-0.00519491
0.20688
-0.00543713
0.208693
-0.0056718
0.210578
-0.00589813
-0.00611454
0.212531
0.187882
-0.00473584
0.18909
-0.00509656
0.19038
-0.00545137
0.191751
-0.00579965
0.193202
-0.00614079
0.19473
-0.00647417
0.196334
-0.00679916
0.198012
-0.0071151
0.199762
-0.00742121
0.20158
-0.00771645
-0.00799864
0.203464
0.179888
-0.00582881
0.181061
-0.00627018
0.182314
-0.00670434
0.183645
-0.00713054
0.185052
-0.00754804
0.186534
-0.00795609
0.188089
-0.00835392
0.189715
-0.00874072
0.191409
-0.00911554
0.19317
-0.00947705
-0.00982242
0.194993
0.172362
-0.00689616
0.173507
-0.00741502
0.174728
-0.00792546
0.176024
-0.0084266
0.177394
-0.00891757
0.178835
-0.0093975
0.180347
-0.0098655
0.181926
-0.0103206
0.183573
-0.0107617
0.185283
-0.0111871
-0.0115933
0.187054
0.16526
-0.00794174
0.16638
-0.00853519
0.167574
-0.00911907
0.16884
-0.0096924
0.170176
-0.0102542
0.171582
-0.0108035
0.173056
-0.0113392
0.174596
-0.0118602
0.176199
-0.0123653
0.177865
-0.0128525
-0.0133175
0.179589
0.158543
-0.0089688
0.159642
-0.0096341
0.160812
-0.0102888
0.162051
-0.0109318
0.163359
-0.0115619
0.164734
-0.0121781
0.166174
-0.0127793
0.167678
-0.0133642
0.169244
-0.0139313
0.170869
-0.0144783
-0.015
0.172552
0.152178
-0.00998006
0.153258
-0.0107147
0.154407
-0.0114377
0.155623
-0.0121479
0.156905
-0.0128441
0.158252
-0.0135251
0.159662
-0.0141896
0.161134
-0.0148363
0.162667
-0.0154634
0.164257
-0.0160684
-0.016645
0.165902
0.146135
-0.0109778
0.147199
-0.0117793
0.14833
-0.0125682
0.149525
-0.0133433
0.150785
-0.0141034
0.152107
-0.014847
0.15349
-0.0155728
0.154933
-0.0162793
0.156434
-0.0169646
0.157991
-0.0176257
-0.0182554
0.159602
0.140389
-0.011964
0.14144
-0.0128299
0.142554
-0.0136825
0.143731
-0.0145203
0.14497
-0.015342
0.146269
-0.0161462
0.147628
-0.0169312
0.149044
-0.0176954
0.150516
-0.0184368
0.152042
-0.019152
-0.0198326
0.153619
0.133944
-0.0119994
0.13492
-0.0129401
0.135958
-0.0138681
0.137058
-0.0147821
0.138218
-0.0156804
0.139437
-0.0165615
0.140715
-0.0174238
0.142049
-0.0182657
0.143439
-0.0190854
0.144883
-0.0198804
0.146378
-0.0206471
-0.0213762
0.147921
0.128739
-0.0129061
0.129706
-0.0139071
0.130733
-0.0148949
0.131818
-0.0158678
0.132962
-0.0168241
0.134163
-0.0177621
0.135419
-0.0186801
0.136729
-0.0195761
0.138092
-0.0204482
0.139505
-0.0212936
0.140967
-0.0221082
-0.0228822
0.142473
0.123771
-0.0138066
0.12473
-0.0148655
0.125745
-0.0159105
0.126817
-0.0169396
0.127944
-0.0179511
0.129125
-0.0189429
0.130358
-0.0199131
0.131641
-0.0208595
0.132973
-0.0217798
0.13435
-0.0226708
0.13577
-0.0235282
-0.0243417
0.13723
0.119024
-0.0147007
0.119974
-0.0158147
0.120977
-0.0169137
0.122033
-0.0179957
0.123141
-0.0190587
0.124298
-0.0201002
0.125503
-0.021118
0.126753
-0.0221094
0.128045
-0.0230717
0.129375
-0.0240014
0.130741
-0.0248936
-0.0257385
0.132137
0.114481
-0.0155868
0.115419
-0.0167522
0.116407
-0.0179014
0.117443
-0.0190319
0.118525
-0.0201413
0.119652
-0.0212267
0.120819
-0.0222852
0.122024
-0.0233139
0.123261
-0.0243093
0.124527
-0.0252673
0.125816
-0.0261825
-0.0270473
0.127125
0.110123
-0.0164614
0.111044
-0.0176735
0.11201
-0.0188674
0.113019
-0.0200402
0.114066
-0.0211887
0.115149
-0.0223096
0.116263
-0.0233993
0.117403
-0.0244539
0.118563
-0.0254694
0.119737
-0.0264412
0.120918
-0.0273634
-0.0282318
0.122102
0.105928
-0.0173178
0.106825
-0.01857
0.107758
-0.0198011
0.108725
-0.0210073
0.109721
-0.0221848
0.110741
-0.0233294
0.111778
-0.0244365
0.112826
-0.0255016
0.113877
-0.02652
0.114922
-0.0274864
0.115953
-0.0283942
-0.0292454
0.116966
0.101869
-0.0181453
0.102728
-0.0194286
0.103613
-0.0206862
0.104519
-0.0219137
0.105441
-0.0231061
0.10637
-0.0242584
0.107298
-0.025365
0.108217
-0.0264206
0.109117
-0.0274198
0.109988
-0.0283569
0.110818
-0.0292248
-0.0300341
0.111607
0.0979134
-0.0189282
0.0987148
-0.02023
0.0995286
-0.0214999
0.100347
-0.0227324
0.101163
-0.0239216
0.101966
-0.0250612
0.102746
-0.026145
0.103492
-0.0271669
0.104193
-0.0281212
0.104838
-0.029002
0.105415
-0.0298016
-0.0305419
0.105923
0.0940191
-0.0196446
0.0947377
-0.0209487
0.0954504
-0.0222126
0.0961479
-0.0234299
0.0968198
-0.0245935
0.097455
-0.0256964
0.0980417
-0.0267317
0.0985677
-0.0276928
0.0990209
-0.0285744
0.0993896
-0.0293707
0.0996615
-0.0300735
-0.0307183
0.0998379
0.0901379
-0.0202665
0.0907422
-0.021553
0.0913187
-0.0227891
0.0918563
-0.0239674
0.0923431
-0.0250803
0.0927667
-0.0261201
0.0931147
-0.0270797
0.0933745
-0.0279526
0.0935344
-0.0287343
0.0935835
-0.0294198
0.09351
-0.03
-0.030526
0.0933178
0.0862168
-0.0207617
0.0866712
-0.0220074
0.0870734
-0.0231912
0.087411
-0.024305
0.0876715
-0.0253408
0.0878423
-0.0262909
0.0879113
-0.0271487
0.0878671
-0.0279084
0.0876995
-0.0285668
0.0873998
-0.02912
0.0869577
-0.0295579
-0.0299472
0.0863789
0.0822027
-0.0210954
0.0824711
-0.0222758
0.0826618
-0.023382
0.0827626
-0.0244057
0.0827611
-0.0253393
0.0826458
-0.0261757
0.0824064
-0.0269093
0.082034
-0.0275359
0.0815214
-0.0280543
0.080863
-0.0284616
0.0800502
-0.0287451
-0.0289867
0.0790897
0.0780492
-0.0212346
0.0780988
-0.0223254
0.0780467
-0.0233299
0.0778815
-0.0242406
0.0775926
-0.0250504
0.0771709
-0.025754
0.0766091
-0.0263474
0.0759019
-0.0268287
0.0750464
-0.0271988
0.0740404
-0.0274557
0.072877
-0.0275816
-0.0276707
0.071561
0.0737243
-0.0211518
0.0735298
-0.0221308
0.0732129
-0.0230131
0.0727643
-0.0237919
0.072176
-0.0244621
0.0714425
-0.0250205
0.0705607
-0.0254656
0.0695302
-0.0257982
0.068353
-0.0260216
0.0670307
-0.0261334
0.0655568
-0.0261077
-0.0260437
0.0639298
0.069218
-0.0208291
0.0687654
-0.0216783
0.0681747
-0.0224224
0.0674393
-0.0230565
0.0665549
-0.0235778
0.0655202
-0.0239858
0.0643367
-0.0242821
0.0630093
-0.0244707
0.0615452
-0.0245575
0.0599508
-0.0245389
0.0582204
-0.0243774
-0.0241642
0.0563409
0.0645383
-0.0202597
0.0638264
-0.0209663
0.0629666
-0.0215626
0.0619562
-0.022046
0.0607949
-0.0224165
0.0594857
-0.0226765
0.0580349
-0.0228314
0.056452
-0.0228879
0.0547485
-0.022854
0.0529341
-0.0227245
0.0510047
-0.022448
-0.0220905
0.048931
0.059709
-0.0194454
0.0587444
-0.0200017
0.0576278
-0.020446
0.0563604
-0.0207786
0.0549462
-0.0210023
0.0533928
-0.0211232
0.051711
-0.0211495
0.0499146
-0.0210915
0.0480194
-0.0209588
0.0460406
-0.0207457
0.0439814
-0.0203887
-0.0198856
0.0417764
0.0548234
0.0536277
0.0522792
0.050782
0.0491431
0.0473721
0.0454807
0.0434829
0.041393
0.0392299
0.037048
0.0349018
0.233235
-0.000446256
0.233662
-0.000427504
0.234065
-0.000402918
0.234437
-0.000371666
0.234769
-0.000332725
0.235055
-0.000285177
0.235283
-0.000228176
0.235444
-0.000160891
0.235526
-8.25058e-05
0.235518
7.72385e-06
0.235408
0.000110113
0.235183
0.000225231
0.23483
0.000352954
0.234337
0.000492802
0.233694
0.000643752
0.232889
0.000804125
0.231918
0.000971496
0.230775
0.00114265
0.229462
0.0013136
0.227982
0.00147966
0.226346
0.00163558
0.224571
0.00177586
0.222676
0.00189479
0.220689
0.00198725
0.21864
0.00204845
0.216566
0.00207434
0.2145
0.00206624
0.212487
0.00201216
0.210531
0.00195634
0.00178453
0.222702
-0.00087545
0.223113
-0.000837701
0.223498
-0.000788322
0.223852
-0.000725704
0.224167
-0.000647848
0.224435
-0.00055299
0.224646
-0.00043951
0.224791
-0.000305814
0.224859
-0.000150347
0.224839
2.82256e-05
0.224718
0.000230678
0.224485
0.000457863
0.224129
0.000709549
0.223637
0.000984744
0.222999
0.00128139
0.222207
0.00159616
0.221255
0.00192425
0.220138
0.00225934
0.218858
0.0025936
0.21742
0.00291784
0.215833
0.00322179
0.214115
0.00349456
0.212284
0.00372534
0.210368
0.00390315
0.208396
0.0040209
0.206405
0.00406543
0.20442
0.00405119
0.202502
0.00393016
0.200618
0.00383999
0.00346898
0.212947
-0.00129133
0.213343
-0.00123311
0.213712
-0.00115748
0.214048
-0.00106204
0.214344
-0.000943829
0.214591
-0.000800317
0.214781
-0.00062918
0.214903
-0.000428149
0.214948
-0.00019502
0.214904
7.19664e-05
0.214761
0.000374083
0.214507
0.00071222
0.21413
0.00108598
0.213621
0.00149378
0.21297
0.00193248
0.212169
0.00239706
0.211213
0.00288037
0.210099
0.00337306
0.208829
0.00386353
0.207409
0.00433821
0.205849
0.00478205
0.204164
0.00517889
0.202377
0.00551313
0.200512
0.00576801
0.198598
0.00593453
0.196673
0.00599017
0.194761
0.00596323
0.192922
0.00576959
0.191124
0.00563815
0.00506813
0.20387
-0.00169699
0.204253
-0.00161604
0.204607
-0.00151177
0.204926
-0.00138095
0.205202
-0.00121977
0.205426
-0.00102497
0.205591
-0.000793629
0.205686
-0.000522903
0.205701
-0.000210047
0.205626
0.000146947
0.20545
0.000549786
0.205163
0.000999227
0.204754
0.00149458
0.204215
0.00203356
0.203535
0.00261186
0.20271
0.00322271
0.201733
0.00385661
0.200605
0.00450117
0.199328
0.00514113
0.197907
0.00575865
0.196355
0.00633405
0.194688
0.00684608
0.192927
0.00727458
0.191098
0.00759703
0.189229
0.00780303
0.187359
0.00786017
0.18551
0.00781189
0.183744
0.00753642
0.182025
0.00735636
0.00658171
0.195391
-0.00209471
0.195763
-0.00198807
0.196103
-0.00185196
0.196405
-0.00168239
0.19666
-0.00147468
0.19686
-0.00122498
0.196996
-0.000929853
0.197059
-0.000586
0.197039
-0.00019024
0.196927
0.000259435
0.196711
0.000765133
0.196383
0.00132728
0.195933
0.00194475
0.195352
0.00261443
0.194633
0.00333072
0.193771
0.00408503
0.192762
0.00486548
0.191607
0.00565663
0.190308
0.00643961
0.188875
0.00719242
0.187318
0.00789089
0.185655
0.00850881
0.183908
0.00902175
0.182103
0.00940141
0.18027
0.00963647
0.178446
0.00968406
0.176654
0.00960404
0.174955
0.00923551
0.173313
0.00899785
0.00800973
0.187445
-0.00248611
0.187807
-0.00235019
0.188133
-0.00217841
0.188417
-0.00196599
0.18865
-0.00170747
0.188823
-0.00139847
0.188929
-0.00103521
0.188957
-0.000614036
0.188898
-0.000131301
0.188743
0.000414406
0.188482
0.00102587
0.188107
0.00170286
0.187608
0.00244366
0.186978
0.00324419
0.186211
0.00409743
0.185303
0.00499289
0.184253
0.00591621
0.18306
0.00684892
0.181731
0.00776857
0.180275
0.00864907
0.178704
0.00946191
0.177036
0.0101761
0.175295
0.0107632
0.173507
0.011189
0.171702
0.0114419
0.169918
0.0114678
0.168178
0.0113445
0.166543
0.0108699
0.164976
0.0105648
0.00935188
0.179975
-0.00287212
0.180328
-0.00270279
0.18064
-0.00249091
0.180905
-0.00223095
0.181114
-0.00191674
0.181259
-0.00154348
0.181331
-0.00110717
0.181321
-0.000603977
0.181219
-2.95992e-05
0.181018
0.000615937
0.180707
0.00133659
0.180279
0.00213102
0.179726
0.0029968
0.179041
0.00392871
0.178221
0.0049182
0.177261
0.00595275
0.176161
0.00701547
0.174926
0.00808478
0.173559
0.00913472
0.172073
0.0101351
0.170482
0.0110534
0.168804
0.0118539
0.167063
0.0125043
0.165287
0.0129648
0.163505
0.0132237
0.161758
0.0132148
0.160067
0.0130362
0.158496
0.0124411
0.157002
0.0120583
0.0106073
0.172933
-0.00325301
0.173276
-0.00304558
0.173573
-0.00278867
0.173818
-0.00247599
0.174002
-0.0021007
0.174117
-0.00165776
0.174152
-0.001143
0.174101
-0.000552484
0.173954
0.000117224
0.173702
0.000867964
0.173337
0.00170124
0.172853
0.00261589
0.172241
0.00360848
0.171497
0.00467248
0.170618
0.00579765
0.169601
0.0069693
0.168449
0.0081679
0.167165
0.00936877
0.165757
0.0105424
0.164238
0.0116547
0.162622
0.0126691
0.16093
0.0135453
0.159187
0.014248
0.157421
0.014731
0.15566
0.0149838
0.153949
0.0149263
0.152305
0.0146799
0.150797
0.0139489
0.149377
0.0134785
0.0117748
0.166277
-0.00362818
0.166609
-0.00337745
0.16689
-0.00307006
0.167113
-0.00269902
0.167269
-0.00225691
0.16735
-0.00173855
0.167347
-0.00113979
0.167251
-0.00045673
0.167055
0.000313729
0.166749
0.00117359
0.166327
0.00212332
0.165782
0.00316108
0.165108
0.00428233
0.164301
0.00547909
0.16336
0.00673925
0.162283
0.00804583
0.161075
0.00937656
0.15974
0.0107036
0.158288
0.0119938
0.156734
0.0132094
0.155093
0.0143101
0.153387
0.0152511
0.151641
0.0159943
0.149884
0.0164872
0.148147
0.0167214
0.146472
0.0166012
0.144877
0.0162746
0.143435
0.0153915
0.142089
0.0148242
0.0128526
0.15997
-0.00399593
0.160288
-0.00369611
0.160551
-0.00333234
0.160748
-0.00289688
0.160873
-0.00238185
0.160917
-0.00178212
0.160871
-0.00109364
0.160727
-0.000312585
0.160477
0.000563624
0.160113
0.00153686
0.15963
0.00260664
0.159021
0.0037702
0.158282
0.00502171
0.157409
0.00635158
0.156403
0.00774564
0.155264
0.00918447
0.153998
0.0106429
0.152611
0.01209
0.151116
0.0134891
0.149527
0.0147986
0.147862
0.0159749
0.146144
0.0169689
0.144398
0.0177406
0.142655
0.0182302
0.140943
0.0184332
0.139309
0.0182358
0.137766
0.017817
0.136392
0.0167655
0.135123
0.0160933
0.0138385
0.153976
-0.00435287
0.154278
-0.0039976
0.154516
-0.00357104
0.154684
-0.00306469
0.154773
-0.00247038
0.154774
-0.00178316
0.154679
-0.000999225
0.154482
-0.000114771
0.154173
0.000871911
0.153748
0.00196257
0.153199
0.00315561
0.152522
0.00444715
0.151714
0.00582993
0.150773
0.00729251
0.1497
0.00881851
0.148498
0.0103859
0.147174
0.0119668
0.145738
0.0135266
0.144201
0.0150257
0.142581
0.0164187
0.140897
0.017659
0.139172
0.0186936
0.137432
0.0194808
0.135708
0.0199537
0.134029
0.020113
0.132441
0.0198238
0.130956
0.0193016
0.129656
0.0180656
0.128467
0.0172821
0.0147299
0.148262
-0.00469317
0.14854
-0.00427553
0.148748
-0.00377929
0.148878
-0.0031952
0.148923
-0.00251503
0.148874
-0.00173417
0.148724
-0.000849097
0.148466
0.000143429
0.148092
0.00124525
0.147598
0.00245667
0.146979
0.00377536
0.14623
0.00519609
0.14535
0.00670997
0.144339
0.00830356
0.143199
0.00995816
0.141936
0.0116491
0.140557
0.0133453
0.139075
0.0150092
0.137502
0.0165979
0.135858
0.0180628
0.134163
0.0193545
0.13244
0.0204162
0.130715
0.0212057
0.129021
0.0216482
0.127383
0.0217512
0.12585
0.0213562
0.124431
0.0207204
0.123212
0.0192852
0.122108
0.0183858
0.015524
0.142787
-0.00500746
0.143031
-0.00452014
0.143199
-0.00394694
0.143282
-0.00327796
0.143272
-0.00250535
0.143163
-0.00162501
0.142948
-0.000633718
0.14262
0.000471353
0.142173
0.00169152
0.141604
0.00302597
0.140908
0.00447128
0.140084
0.00602077
0.13913
0.00766375
0.138049
0.0093847
0.136844
0.0111625
0.135524
0.0129696
0.134097
0.0147722
0.132576
0.0165297
0.130978
0.0181961
0.129321
0.0197196
0.127627
0.0210491
0.125919
0.0221239
0.124222
0.0229023
0.12257
0.0233007
0.120986
0.0233356
0.11952
0.0228214
0.118177
0.0220634
0.117047
0.0204158
0.116034
0.0193984
0.0162182
0.137504
-0.00528171
0.137701
-0.0047174
0.137814
-0.00405981
0.137835
-0.00329885
0.137757
-0.00242766
0.137575
-0.00144278
0.137282
-0.000341202
0.136874
0.000879422
0.136346
0.00221956
0.135695
0.00367732
0.134918
0.00524798
0.134016
0.00692332
0.132989
0.00869081
0.131841
0.0105328
0.130577
0.0124256
0.129208
0.0143393
0.127743
0.016237
0.126197
0.0180753
0.124588
0.0198057
0.122934
0.0213736
0.121257
0.0227264
0.119581
0.0237998
0.117929
0.0245536
0.116335
0.0248948
0.11482
0.0248507
0.113436
0.0242056
0.112181
0.0233186
0.111148
0.0214481
0.110234
0.0203133
0.0168098
0.132352
-0.00549634
0.132483
-0.00484852
0.132523
-0.00409957
0.132464
-0.00324022
0.132302
-0.00226555
0.132032
-0.00117265
0.131649
4.13672e-05
0.131151
0.00137825
0.130533
0.00283743
0.129794
0.00441585
0.128935
0.00610747
0.127956
0.00790249
0.12686
0.00978655
0.125653
0.0117399
0.124342
0.0137367
0.122937
0.0157442
0.12145
0.0177234
0.119898
0.0196279
0.118296
0.0214072
0.116666
0.0230042
0.115026
0.0243654
0.113403
0.0254233
0.111817
0.0261397
0.1103
0.0264114
0.108872
0.0262791
0.107584
0.0254929
0.10643
0.0244727
0.105506
0.0223723
0.104696
0.0211233
0.0172969
0.127255
-0.00562638
0.127297
-0.00489056
0.127242
-0.00404461
0.127084
-0.0030822
0.12682
-0.00200148
0.126447
-0.000799787
0.125962
0.000525896
0.125364
0.00197643
0.124651
0.00355012
0.123825
0.00524276
0.122885
0.00704703
0.121836
0.00895165
0.120682
0.0109406
0.119429
0.0129922
0.118088
0.0150786
0.116667
0.0171648
0.115181
0.0192095
0.113645
0.0211641
0.112076
0.0229763
0.110493
0.0245869
0.108917
0.0259419
0.107369
0.0269706
0.105871
0.0276381
0.104453
0.0278297
0.10313
0.0276015
0.101956
0.0266668
0.100917
0.025512
0.100111
0.0231785
0.0994128
0.0218214
0.0176782
0.122119
-0.00564319
0.122047
-0.00481836
0.121875
-0.0038724
0.121598
-0.00280539
0.121216
-0.00161967
0.120728
-0.000312216
0.120134
0.00112038
0.119433
0.00267768
0.118626
0.00435696
0.117716
0.00615294
0.116706
0.0080572
0.1156
0.0100572
0.114405
0.0121355
0.113128
0.014269
0.111779
0.0164278
0.110369
0.0185753
0.10891
0.0206681
0.107418
0.0226559
0.10591
0.0244847
0.104403
0.0260936
0.102916
0.0274288
0.10147
0.0284162
0.100084
0.0290247
0.0987859
0.0291276
0.0975889
0.0287985
0.0965447
0.027711
0.0956339
0.0264228
0.0949545
0.0238578
0.0943746
0.0224013
0.0179536
0.116841
-0.00551815
0.116631
-0.00460824
0.116322
-0.00356313
0.115911
-0.00239457
0.115401
-0.00110972
0.114793
0.000295963
0.114087
0.00182582
0.113287
0.00347822
0.112395
0.00524935
0.111414
0.00713319
0.110351
0.0091205
0.10921
0.0111978
0.107999
0.0133468
0.106725
0.0155429
0.105398
0.0177551
0.104028
0.0199453
0.102628
0.0220683
0.101211
0.0240722
0.099794
0.0259021
0.0983925
0.0274952
0.0970229
0.0287984
0.0957051
0.029734
0.094454
0.0302758
0.0932977
0.0302839
0.0922448
0.0298514
0.0913459
0.0286099
0.0905757
0.027193
0.0900306
0.0244029
0.089574
0.0228579
0.0181243
0.111317
-0.00522815
0.110951
-0.00424271
0.110492
-0.0031042
0.109941
-0.00184274
0.109301
-0.000469966
0.108575
0.00102139
0.107767
0.00263397
0.106881
0.00436484
0.105921
0.00620948
0.104892
0.00816152
0.103801
0.0102113
0.102654
0.0123449
0.101458
0.0145434
0.100219
0.0167816
0.0989467
0.0190274
0.0976507
0.0212413
0.096342
0.023377
0.0950331
0.0253811
0.0937374
0.0271977
0.09247
0.0287626
0.0912447
0.0300237
0.0900792
0.0308995
0.0889858
0.0313692
0.0879906
0.0312791
0.0870987
0.0307433
0.0863582
0.0293505
0.0857389
0.0278123
0.0853333
0.0248084
0.0850035
0.0231878
0.0181929
0.105456
-0.00476163
0.104929
-0.00371518
0.104319
-0.00249421
0.10363
-0.00115439
0.10287
0.000290206
0.102042
0.00184994
0.10115
0.00352609
0.1002
0.00531446
0.099199
0.00721043
0.0981527
0.0092078
0.097067
0.011297
0.0959476
0.0134643
0.0948006
0.0156905
0.0936322
0.01795
0.0924497
0.0202099
0.0912612
0.0224298
0.0900762
0.024562
0.0889054
0.0265519
0.0877601
0.028343
0.0866532
0.0298695
0.0855963
0.0310806
0.0846049
0.0318909
0.0836885
0.0322857
0.082871
0.0320966
0.0821538
0.0314605
0.0815819
0.0299224
0.0811209
0.0282733
0.0808576
0.0250717
0.0806558
0.0233895
0.0181633
0.0991997
-0.00412347
0.0985179
-0.00303335
0.097769
-0.00174524
0.0969612
-0.000346629
0.0961016
0.00114978
0.0951948
0.00275676
0.0942474
0.00447351
0.0932667
0.00629507
0.0922595
0.00821765
0.0912315
0.0102358
0.0901879
0.0123407
0.0891332
0.014519
0.088072
0.0167517
0.0870089
0.0190131
0.0859493
0.0212695
0.0848997
0.0234793
0.0838676
0.0255941
0.0828618
0.0275577
0.0818915
0.0293133
0.0809674
0.0307936
0.0800988
0.0319492
0.079299
0.0326907
0.0785747
0.03301
0.0779473
0.032724
0.0774148
0.031993
0.0770181
0.0303191
0.0767196
0.0285717
0.0765986
0.0251927
0.076524
0.0234641
0.0180405
0.0925313
-0.00333699
0.0917177
-0.00221975
0.0908552
-0.000882755
0.0899565
0.000552013
0.0890288
0.00207751
0.0880777
0.0037079
0.0871117
0.00543948
0.0861388
0.00726803
0.0851648
0.00919162
0.0841944
0.0112062
0.0832311
0.013304
0.0822775
0.0154725
0.0813362
0.017693
0.08041
0.0199393
0.0795023
0.0221771
0.078618
0.0243637
0.0777626
0.0264495
0.0769431
0.0283772
0.0761667
0.0300896
0.0754423
0.031518
0.0747766
0.0326149
0.0741807
0.0332866
0.0736586
0.0335321
0.0732291
0.0331534
0.0728869
0.0323352
0.072668
0.030538
0.0725328
0.028707
0.0725512
0.0251742
0.0726007
0.0234146
0.017831
0.085484
-0.00244211
0.0845733
-0.00130904
0.0836331
5.75263e-05
0.0826809
0.00150421
0.0817236
0.0030348
0.0807689
0.00466255
0.0798267
0.00638173
0.0789037
0.00819103
0.078004
0.0100913
0.0771301
0.0120801
0.0762829
0.0141512
0.0754628
0.0162926
0.0746704
0.0184855
0.0739066
0.0207031
0.0731733
0.0229104
0.0724738
0.0250633
0.071812
0.0271113
0.0711935
0.0289958
0.0706236
0.0306595
0.0701091
0.0320325
0.0696548
0.0330692
0.0692694
0.033672
0.0689545
0.033847
0.0687258
0.0333822
0.0685748
0.0324861
0.0685323
0.0305805
0.0685576
0.0286817
0.06871
0.0250218
0.0688785
0.0232462
0.0175418
0.0781371
-0.00148958
0.077171
-0.000342937
0.0761946
0.00103395
0.0752313
0.00246755
0.074288
0.00397804
0.0733749
0.00557566
0.072501
0.0072556
0.0716704
0.00902166
0.070884
0.0108777
0.070141
0.0128231
0.0694398
0.0148524
0.0687787
0.0169536
0.0681565
0.0191077
0.0675729
0.0212868
0.0670285
0.0234547
0.0665255
0.0255663
0.0660668
0.0275699
0.0656566
0.029406
0.0652986
0.0310175
0.064998
0.0323331
0.0647575
0.0333098
0.0645835
0.0338459
0.0644753
0.0339552
0.0644451
0.0334124
0.0644821
0.0324491
0.0646106
0.030452
0.0647904
0.028502
0.0650691
0.024743
0.0653496
0.0229657
0.0171808
0.0706038
-0.000532432
0.0696245
0.000636411
0.0686561
0.00200233
0.0677268
0.00339684
0.0668445
0.00486035
0.0660198
0.0064004
0.065258
0.00801739
0.0645584
0.00972125
0.063918
0.0115182
0.0633328
0.0134083
0.062799
0.0153861
0.0623135
0.0174392
0.0618739
0.0195473
0.0614793
0.0216814
0.0611299
0.0238041
0.0608273
0.0258689
0.0605736
0.0278236
0.0603719
0.0296077
0.0602247
0.0311646
0.0601356
0.0324222
0.0601053
0.0333401
0.0601381
0.0338131
0.060231
0.0338623
0.0603927
0.0332507
0.0606101
0.0322317
0.0609011
0.030161
0.0612266
0.0281766
0.061622
0.0243476
0.062006
0.0225817
0.0167561
0.0630143
0.000383093
0.0620599
0.00159087
0.0611448
0.00291734
0.0602978
0.00424385
0.0595255
0.00563269
0.0588348
0.00709114
0.0582238
0.00862829
0.0576863
0.0102588
0.0572153
0.0119891
0.0568048
0.0138188
0.0564497
0.0157412
0.0561464
0.0177425
0.0558926
0.0198011
0.0556875
0.0218865
0.0555313
0.0239602
0.0554255
0.0259748
0.0553717
0.0278774
0.0553723
0.0296071
0.0554288
0.0311082
0.0555431
0.0323079
0.0557143
0.0331689
0.0559445
0.0335829
0.0562285
0.0335783
0.0565715
0.0329078
0.0569583
0.0318448
0.0574002
0.0297191
0.0578603
0.0277164
0.0583615
0.0238465
0.0588397
0.0221035
0.016276
0.0554959
0.00122813
0.0546015
0.00248529
0.05379
0.00372884
0.0530779
0.00495592
0.0524647
0.00624589
0.0519481
0.00760774
0.0515175
0.0090589
0.0511617
0.0106146
0.0508719
0.0122789
0.0506416
0.0140492
0.050466
0.0159168
0.0503423
0.0178662
0.0502692
0.0198742
0.0502464
0.0219093
0.0502749
0.0239318
0.050356
0.0258936
0.0504915
0.0277419
0.0506829
0.0294157
0.0509308
0.0308603
0.0512358
0.0320029
0.0515953
0.0328094
0.0520095
0.0331687
0.0524709
0.0331169
0.0529812
0.0323975
0.0535238
0.0313023
0.0541029
0.0291399
0.054685
0.0271343
0.05528
0.0232515
0.0558422
0.0215413
0.0157487
0.0481605
0.00199863
0.0473646
0.00328113
0.0467182
0.00437531
0.0461982
0.00547593
0.0457885
0.00665553
0.045475
0.00792132
0.0452404
0.00929348
0.0450725
0.0107825
0.0449633
0.012388
0.044908
0.0141045
0.0449036