/*--------------------------------*- C++ -*----------------------------------*\
  =========                 |
  \\      /  F ield         | OpenFOAM: The Open Source CFD Toolbox
   \\    /   O peration     | Website:  https://openfoam.org
    \\  /    A nd           | Version:  7
     \\/     M anipulation  |
\*---------------------------------------------------------------------------*/
FoamFile
{
    version     2.0;
    format      ascii;
    class       volVectorField;
    location    "5";
    object      U;
}
// * * * * * * * * * * * * * * * * * * * * * * * * * * * * * * * * * * * * * //

dimensions      [0 1 -1 0 0 0 0];

internalField   nonuniform List<vector> 
2125
(
(1.12067 -0.0849924 -8.94069e-21)
(0.986682 -0.0487787 -2.43553e-20)
(1.08558 -0.0637166 -4.40912e-21)
(0.826719 -0.0110475 1.60934e-20)
(0.943704 -0.0308219 -1.89378e-21)
(1.04707 -0.0438012 2.14451e-20)
(0.53274 0.0325778 4.08739e-20)
(0.656315 0.0190444 -8.89775e-20)
(0.779507 0.00274199 1.88799e-20)
(0.898207 -0.0149136 -1.52351e-20)
(1.00537 -0.0256082 -2.27077e-20)
(0.375392 0.0450938 8.07705e-21)
(0.489812 0.0385583 -6.92009e-20)
(0.609503 0.0278337 4.86728e-20)
(0.730962 0.0141552 -3.92864e-20)
(0.850531 -0.00129045 4.08008e-20)
(0.960758 -0.00952545 -1.69229e-21)
(0.240098 0.0458177 -1.60699e-22)
(0.339075 0.0465056 2.73772e-20)
(0.447453 0.0424248 1.58862e-21)
(0.562581 0.0343047 -3.89292e-20)
(0.68146 0.0231232 -9.75372e-22)
(0.801015 0.00984308 -1.78029e-20)
(0.913554 0.00403448 2.19679e-20)
(0.132596 0.0371694 4.88302e-21)
(0.212252 0.0438931 1.41436e-20)
(0.304009 0.0462561 -2.4547e-20)
(0.405965 0.0443253 5.91787e-20)
(0.515893 0.0385513 -1.94212e-22)
(0.631347 0.0296441 -5.0455e-21)
(0.749965 0.0183343 -3.40866e-20)
(0.864065 0.014638 -5.28653e-21)
(0.113792 0.0335209 3.6936e-21)
(0.185923 0.040844 -1.00936e-20)
(0.2704 0.0445477 -1.20896e-20)
(0.365617 0.0444559 -8.02567e-21)
(0.469751 0.0407361 -5.8352e-21)
(0.580929 0.0338048 7.79917e-21)
(0.697615 0.0241169 3.25495e-20)
(0.812544 0.0218453 2.53081e-20)
(0.0452374 0.0193075 1.99125e-20)
(0.0963984 0.0292556 -4.75446e-20)
(0.161225 0.0368725 2.75227e-20)
(0.238427 0.0416087 2.43213e-20)
(0.326652 0.0430582 -6.34463e-20)
(0.424438 0.0410979 1.77449e-20)
(0.530457 0.035807 -8.40829e-22)
(0.644071 0.0272622 1.35115e-20)
(0.759102 0.0252508 -2.78904e-20)
(0.00746571 0.00416657 5.27716e-20)
(0.0360069 0.015467 -1.56342e-20)
(0.0804555 0.0245384 2.30625e-20)
(0.138248 0.0321884 1.48734e-20)
(0.208246 0.0376862 -8.73812e-21)
(0.289296 0.0404143 2.05411e-20)
(0.380222 0.039956 -8.4701e-21)
(0.480136 0.0360006 4.96582e-20)
(0.589209 0.028039 -8.20158e-20)
(0.703466 0.024453 -2.90637e-20)
(0.00483915 0.0024944 -1.54207e-20)
(0.0277844 0.0115106 6.14266e-20)
(0.0659851 0.0195315 -5.00789e-20)
(0.117059 0.027001 -1.67156e-21)
(0.179991 0.0330344 -2.45136e-20)
(0.253771 0.0368337 2.7335e-20)
(0.337396 0.0377118 2.99975e-20)
(0.430184 0.0349547 -1.51473e-20)
(0.532658 0.0271268 1.39645e-20)
(0.644281 0.0190306 1.74366e-20)
(0.00259159 0.00084803 2.90914e-21)
(0.020556 0.00753981 -1.70088e-20)
(0.0529916 0.0143892 2.14245e-20)
(0.0977068 0.0215107 -2.08512e-20)
(0.153786 0.0278985 -2.57676e-20)
(0.220313 0.0326239 -1.16394e-20)
(0.29635 0.0348114 -4.48832e-20)
(0.381065 0.03352 2.80816e-20)
(0.474357 0.0264359 5.26961e-20)
(0.578939 0.0112793 -1.49075e-20)
(0.000708374 -0.000737656 9.3193e-21)
(0.0142956 0.00364815 7.58628e-21)
(0.0414607 0.00925287 -1.91582e-21)
(0.0802149 0.0158989 -3.55714e-20)
(0.129733 0.0224936 3.79029e-20)
(0.18917 0.0280349 4.31666e-20)
(0.257603 0.0315842 1.51823e-20)
(0.333836 0.0323658 -2.86137e-21)
(0.41626 0.0288515 -5.38137e-20)
(0.507226 0.0136211 1.82506e-20)
(-0.000829414 -0.00223163 -2.83269e-20)
(0.0089654 -8.07279e-05 -4.117e-21)
(0.0313585 0.0042486 8.51009e-21)
(0.0645792 0.0103232 2.81236e-21)
(0.107896 0.0169911 1.11594e-20)
(0.160543 0.023217 -6.88746e-20)
(0.221672 0.0280609 4.18241e-20)
(0.29004 0.0308966 -5.02126e-20)
(0.364045 0.0309616 3.73646e-20)
(0.44947 0.0191681 4.29014e-20)
(-0.00204463 -0.00360718 1.24452e-20)
(0.00451628 -0.00357377 -8.62343e-21)
(0.0226306 -0.000513681 4.01776e-21)
(0.0507617 0.00491872 -1.87038e-20)
(0.0882794 0.0115298 2.4146e-21)
(0.134519 0.0182649 -4.92523e-21)
(0.188758 0.0241813 -2.60764e-20)
(0.249905 0.0286422 1.41076e-20)
(0.316644 0.0310148 2.65444e-20)
(0.39582 0.0219791 -3.97052e-20)
(-0.0029635 -0.00484199 -1.65186e-20)
(0.000888686 -0.00676847 -2.62757e-20)
(0.015203 -0.00493895 2.14928e-20)
(0.0386905 -0.000197205 2.16651e-20)
(0.0708312 0.0062326 -5.41148e-20)
(0.111071 0.0132751 5.47451e-20)
(0.158829 0.019963 -6.20571e-20)
(0.213185 0.025545 1.74177e-20)
(0.273008 0.0291395 -1.8943e-20)
(0.344969 0.0218127 -2.92168e-20)
(-0.00361473 -0.00591792 8.61562e-21)
(-0.00198523 -0.0096124 2.10089e-20)
(0.00898554 -0.00894572 5.23421e-21)
(0.0282666 -0.00492095 6.15095e-21)
(0.0554529 0.00121528 6.31693e-23)
(0.0901064 0.00836407 9.41749e-21)
(0.131775 0.0155171 1.9172e-20)
(0.179693 0.0217838 3.60402e-20)
(0.232871 0.0259955 -3.61813e-20)
(0.297394 0.0200126 1.27952e-20)
(-0.00402863 -0.00682061 -1.99693e-20)
(-0.0041793 -0.0120626 2.50126e-22)
(0.00387601 -0.0124651 7.00041e-21)
(0.01937 -0.00916123 -1.34142e-20)
(0.0420153 -0.00341211 2.72131e-20)
(0.0714878 0.0036609 -6.53162e-20)
(0.107452 0.0110055 3.55614e-20)
(0.149271 0.0176103 -3.31151e-20)
(0.196086 0.0221115 6.43697e-20)
(0.253238 0.0173946 1.67927e-20)
(-0.00423621 -0.00753916 1.08358e-20)
(-0.00577104 -0.014085 -2.30681e-20)
(-0.000235993 -0.0154401 -7.40441e-21)
(0.0118673 -0.0128392 1.08871e-20)
(0.0303693 -0.00754799 1.8876e-20)
(0.0550549 -0.000703994 3.28185e-21)
(0.0856921 0.00660557 -1.19416e-20)
(0.121751 0.0132844 2.78192e-20)
(0.162487 0.01788 -1.58338e-20)
(0.212468 0.0143747 -1.64417e-21)
(-0.0042685 -0.00806573 2.82625e-20)
(-0.00683951 -0.0156542 8.54016e-21)
(-0.00346499 -0.0178262 1.62793e-21)
(0.00561787 -0.0158895 -2.38654e-20)
(0.020355 -0.0111027 2.19273e-20)
(0.0406346 -0.0046085 7.51039e-21)
(0.0663144 0.00248815 3.78275e-21)
(0.0969562 0.00904793 -8.71272e-21)
(0.131915 0.0136187 9.69819e-21)
(0.175029 0.0112389 1.67868e-20)
(-0.00415603 -0.00839535 -2.08031e-20)
(-0.00746353 -0.0167529 1.24132e-20)
(-0.00592626 -0.019591 -1.48653e-21)
(0.000478938 -0.0182613 3.41153e-20)
(0.0118098 -0.0140023 -3.85563e-20)
(0.0280512 -0.00794655 1.30323e-20)
(0.0491395 -0.00119602 -8.35256e-21)
(0.0747166 0.0051075 -7.45333e-21)
(0.10423 0.00957788 -2.29172e-20)
(0.140852 0.00820491 8.9292e-21)
(-0.00392846 -0.00852577 8.96019e-21)
(-0.00772036 -0.0173723 -2.45209e-20)
(-0.00773307 -0.0207147 -1.44141e-20)
(-0.00368983 -0.01992 -2.33423e-20)
(0.00457409 -0.0161911 6.47653e-21)
(0.0171333 -0.0106341 -2.26803e-21)
(0.0339943 -0.0043255 -2.11677e-20)
(0.0548721 0.00162493 -4.51231e-21)
(0.0792967 0.00593975 -4.17466e-22)
(0.109857 0.00542858 1.02583e-20)
(-0.0036145 -0.00845767 1.56308e-20)
(-0.00768455 -0.017512 1.76378e-21)
(-0.00899436 -0.021191 7.6647e-21)
(-0.007023 -0.020848 3.50323e-20)
(-0.0015043 -0.0176347 3.58828e-20)
(0.00771935 -0.0126127 -6.57137e-21)
(0.0207178 -0.00681264 1.70046e-20)
(0.0372739 -0.00128452 -1.09087e-20)
(0.0569918 0.00282667 -6.56603e-21)
(0.0819516 0.00301404 -1.53724e-20)
(-0.00324153 -0.00819489 -2.00179e-20)
(-0.00742687 -0.0171802 1.83787e-20)
(-0.00981309 -0.0210269 9.74352e-21)
(-0.00964688 -0.0210454 -1.98529e-20)
(-0.00656701 -0.0183203 -2.3167e-20)
(-0.000339449 -0.0138515 7.58324e-21)
(0.00916312 -0.00860464 6.65476e-22)
(0.0217873 -0.00354986 3.44632e-20)
(0.0372016 0.000310584 2.10277e-20)
(0.0570494 0.00102444 -8.49948e-21)
(-0.00283544 -0.00774439 1.08917e-20)
(-0.00701378 -0.016394 -5.30951e-21)
(-0.010285 -0.020243 -1.98675e-20)
(-0.0116778 -0.0205305 8.74928e-21)
(-0.010743 -0.0182575 -3.08151e-22)
(-0.00717716 -0.0143467 -3.10459e-20)
(-0.000800519 -0.00968219 -1.86724e-21)
(0.00829318 -0.00514016 -3.17502e-20)
(0.0198251 -0.00157977 -1.44741e-20)
(0.0350704 -0.000510463 2.44306e-20)
(-0.00242048 -0.0071166 -1.32528e-20)
(-0.00650673 -0.0151795 -1.25714e-21)
(-0.0104975 -0.0188734 -9.33036e-22)
(-0.0132208 -0.0193386 -1.87104e-20)
(-0.0141476 -0.0174775 2.9544e-21)
(-0.0129118 -0.0141205 1.90126e-20)
(-0.00928688 -0.010057 -1.01881e-20)
(-0.00331203 -0.00605938 1.70537e-20)
(0.00477498 -0.00285261 7.88397e-21)
(0.0159527 -0.00158275 -8.76675e-21)
(-0.00201904 -0.00632553 8.35736e-21)
(-0.00596149 -0.0135715 1.76798e-20)
(-0.0105288 -0.0169652 -4.15405e-21)
(-0.0143687 -0.0175219 9.02833e-21)
(-0.0168812 -0.0160316 6.25674e-21)
(-0.0176453 -0.0132189 -1.58809e-20)
(-0.016393 -0.00976837 4.09007e-21)
(-0.0131169 -0.00634143 -4.49477e-21)
(-0.00801612 -0.00353625 5.81101e-21)
(-0.000349752 -0.00216589 -1.18579e-20)
(-0.00165125 -0.00538876 -2.6608e-21)
(-0.00542754 -0.0116136 -1.14705e-20)
(-0.0104474 -0.0145779 1.68675e-20)
(-0.0152017 -0.0151482 -8.91526e-21)
(-0.0190297 -0.0139893 4.33389e-21)
(-0.0214633 -0.0117095 1.34185e-20)
(-0.0221996 -0.00887919 -1.17938e-20)
(-0.02119 -0.00604457 -2.94536e-21)
(-0.0185813 -0.00368369 3.51292e-22)
(-0.0139183 -0.0023387 1.40627e-20)
(-0.00133467 -0.00432729 -8.15884e-22)
(-0.00494735 -0.00935719 -3.46258e-21)
(-0.0103111 -0.0117819 -1.49265e-20)
(-0.015787 -0.0122987 3.06009e-21)
(-0.0206642 -0.0114364 2.63343e-21)
(-0.024436 -0.00967764 -1.10085e-21)
(-0.0267709 -0.00747242 -3.12336e-22)
(-0.0275858 -0.00524771 -4.76456e-21)
(-0.0269878 -0.00336824 6.81784e-21)
(-0.0247641 -0.00221111 4.66709e-21)
(-0.00108391 -0.00316522 2.1121e-21)
(-0.00455582 -0.00686057 4.20219e-21)
(-0.0101672 -0.00865735 1.12829e-20)
(-0.0161787 -0.00906651 -6.10335e-21)
(-0.0218411 -0.00847208 -5.48706e-21)
(-0.0266185 -0.00722397 -2.19146e-22)
(-0.0301572 -0.00564693 1.12253e-20)
(-0.0323477 -0.00404695 5.45058e-21)
(-0.0332719 -0.00268091 -4.78378e-21)
(-0.0328868 -0.00180078 -5.52836e-21)
(-0.000910276 -0.00192928 -3.50082e-22)
(-0.00427968 -0.00418802 8.51041e-22)
(-0.0100512 -0.00529234 -2.13139e-21)
(-0.0164173 -0.00555403 1.59327e-21)
(-0.0226025 -0.00520613 1.47687e-21)
(-0.0280513 -0.00446063 1.09269e-21)
(-0.0323949 -0.00351373 -2.26746e-21)
(-0.0355061 -0.00254936 -9.45362e-21)
(-0.0374521 -0.00172011 -1.49767e-21)
(-0.0382963 -0.00117038 2.94176e-21)
(-0.0165298 -0.00187058 1.30183e-21)
(-0.0229762 -0.00175609 -1.37615e-21)
(-0.0287611 -0.00150817 -6.78675e-22)
(-0.0335079 -0.00119243 7.38635e-22)
(-0.0370806 -0.000870257 3.7299e-21)
(-0.0395394 -0.000592207 -1.33881e-21)
(-0.0409998 -0.000405283 1.37506e-21)
(1.14116 -0.00355639 -9.89077e-23)
(1.14248 -0.00350196 2.64086e-22)
(1.14378 -0.003446 -2.69231e-22)
(1.14504 -0.00338837 8.7363e-23)
(1.14628 -0.00332895 2.28442e-22)
(1.14748 -0.00326758 6.07918e-24)
(1.14866 -0.00320403 -1.08966e-22)
(1.1498 -0.00313792 -1.87217e-22)
(1.15091 -0.00306854 1.25678e-22)
(1.15199 -0.00299435 -5.56409e-23)
(1.15303 -0.00291195 4.29785e-23)
(1.14268 -0.0104799 -7.53021e-23)
(1.14403 -0.0103137 -2.44698e-23)
(1.14536 -0.0101447 5.81038e-23)
(1.14665 -0.00997247 1.41311e-22)
(1.14792 -0.00979683 -9.65589e-24)
(1.14915 -0.00961735 -3.59088e-23)
(1.15036 -0.00943339 -5.12303e-23)
(1.15153 -0.00924379 1.64958e-22)
(1.15267 -0.00904621 4.38752e-23)
(1.15377 -0.00883552 -4.33184e-23)
(1.15484 -0.00860011 -7.83313e-23)
(1.14544 -0.0172317 -1.2988e-22)
(1.14686 -0.0169553 4.35875e-24)
(1.14825 -0.0166745 1.10117e-23)
(1.14961 -0.0163888 3.18498e-22)
(1.15094 -0.0160978 -4.33625e-22)
(1.15224 -0.0158009 1.1432e-22)
(1.15351 -0.015497 1.23396e-22)
(1.15474 -0.0151841 7.31441e-23)
(1.15595 -0.0148583 -7.35911e-23)
(1.15712 -0.0145107 -5.69337e-24)
(1.15826 -0.0141213 5.10969e-24)
(1.14931 -0.0238761 1.53949e-22)
(1.15082 -0.0234851 -9.74368e-23)
(1.1523 -0.0230883 2.70754e-22)
(1.15376 -0.0226852 -1.10832e-22)
(1.15518 -0.0222752 -5.79703e-23)
(1.15658 -0.0218575 -3.05474e-22)
(1.15794 -0.0214306 1.10205e-23)
(1.15927 -0.0209917 1.07773e-23)
(1.16057 -0.020535 9.88406e-23)
(1.16184 -0.0200477 -7.85574e-23)
(1.16307 -0.0195008 1.24111e-22)
(1.15415 -0.0304868 1.29314e-22)
(1.15578 -0.0299763 -9.75562e-23)
(1.15739 -0.0294586 -6.23607e-23)
(1.15896 -0.028933 -3.9522e-23)
(1.16051 -0.0283989 1.40102e-22)
(1.16203 -0.0278551 2.2141e-22)
(1.16351 -0.0272999 -1.40874e-24)
(1.16497 -0.0267297 1.90065e-22)
(1.16639 -0.0261365 -6.78418e-23)
(1.16779 -0.0255031 4.22415e-22)
(1.16915 -0.0247902 -2.24995e-22)
(1.15988 -0.0371164 -1.38158e-22)
(1.16165 -0.036479 1.6804e-22)
(1.1634 -0.0358327 -1.24036e-22)
(1.16512 -0.0351769 -3.86912e-22)
(1.16681 -0.0345109 4.06625e-23)
(1.16847 -0.0338334 -2.83211e-22)
(1.17011 -0.0331421 1.43234e-22)
(1.17172 -0.0324325 4.81309e-22)
(1.1733 -0.0316945 -7.0577e-23)
(1.17485 -0.0309058 -4.35418e-22)
(1.17637 -0.0300152 -1.48468e-22)
(1.16638 -0.0438089 2.68322e-23)
(1.16832 -0.0430354 -1.35396e-22)
(1.17024 -0.0422513 3.96311e-22)
(1.17213 -0.041456 1.88063e-22)
(1.17399 -0.0406486 7.9136e-23)
(1.17583 -0.0398276 1.35857e-22)
(1.17764 -0.0389904 -3.73949e-22)
(1.17942 -0.0381312 -7.31286e-22)
(1.18118 -0.0372378 -3.15891e-22)
(1.18291 -0.0362818 2.00166e-23)
(1.18462 -0.0351984 7.81492e-23)
(1.1736 -0.0505997 2.57609e-22)
(1.17572 -0.0496793 2.01006e-22)
(1.17783 -0.0487463 2.49076e-22)
(1.17991 -0.0478001 -5.02611e-22)
(1.18197 -0.0468396 5.92083e-22)
(1.184 -0.0458633 -1.67902e-22)
(1.18601 -0.0448679 5.6814e-22)
(1.18799 -0.0438468 -3.17314e-22)
(1.18995 -0.0427848 5.06129e-22)
(1.19189 -0.0416469 6.91586e-22)
(1.1938 -0.0403524 2.84715e-22)
(1.18145 -0.0575164 2.20509e-22)
(1.18379 -0.0564364 2.15636e-23)
(1.18611 -0.0553416 -7.59033e-22)
(1.1884 -0.0542312 2.71205e-22)
(1.19068 -0.053104 -1.10216e-22)
(1.19293 -0.0519583 -8.07665e-23)
(1.19516 -0.0507904 4.45029e-22)
(1.19736 -0.0495924 -4.35056e-23)
(1.19954 -0.0483458 -5.01088e-22)
(1.20171 -0.0470083 -1.02147e-21)
(1.20385 -0.0454807 1.00421e-22)
(1.18989 -0.0645811 -3.78821e-22)
(1.19246 -0.0633271 1.27338e-22)
(1.19501 -0.0620554 9.49961e-22)
(1.19755 -0.0607652 6.08101e-22)
(1.20006 -0.0594553 -7.06679e-22)
(1.20255 -0.0581235 -3.33019e-22)
(1.20502 -0.0567655 -3.60342e-22)
(1.20746 -0.0553721 2.06772e-22)
(1.20989 -0.0539215 3.88855e-22)
(1.2123 -0.0523629 5.95492e-22)
(1.21469 -0.0505758 -2.17789e-22)
(1.19887 -0.071809 7.93165e-23)
(1.2017 -0.0703644 -1.05336e-21)
(1.2045 -0.0688985 -4.29287e-24)
(1.20729 -0.0674105 -8.5329e-22)
(1.21006 -0.0658987 5.36081e-22)
(1.21281 -0.0643606 8.06563e-22)
(1.21554 -0.0627912 -1.18017e-22)
(1.21824 -0.0611795 -6.10246e-22)
(1.22092 -0.0595 -3.11301e-22)
(1.22359 -0.0576926 3.65957e-22)
(1.22624 -0.0556138 -3.54214e-22)
(1.20524 -0.08084 5.05646e-22)
(1.20835 -0.0792101 6.86439e-22)
(1.21145 -0.0775556 -2.79024e-23)
(1.21453 -0.0758753 -1.23705e-21)
(1.2176 -0.0741677 -6.90941e-22)
(1.22064 -0.0724308 -5.88555e-22)
(1.22366 -0.0706612 9.66695e-22)
(1.22666 -0.0688529 1.32945e-21)
(1.22963 -0.0669927 4.93711e-22)
(1.23257 -0.0650512 4.96851e-23)
(1.23549 -0.0629586 -6.16269e-22)
(1.2384 -0.060547 1.41564e-21)
(1.21489 -0.0886437 -3.10967e-22)
(1.2183 -0.0867869 -1.35474e-21)
(1.22169 -0.0848998 2.1725e-22)
(1.22506 -0.0829805 5.14457e-22)
(1.22841 -0.0810267 5.21244e-22)
(1.23174 -0.0790352 -6.80479e-22)
(1.23504 -0.0770013 -1.28179e-21)
(1.23831 -0.0749172 -2.70925e-22)
(1.24155 -0.0727674 6.1433e-22)
(1.24474 -0.0705179 1.33581e-21)
(1.24789 -0.0680894 -3.90288e-22)
(1.25102 -0.0652913 -1.95134e-21)
(1.22496 -0.0966411 8.73566e-22)
(1.22868 -0.0945318 2.63718e-22)
(1.23237 -0.0923842 5.42366e-22)
(1.23604 -0.0901951 -1.05867e-22)
(1.23969 -0.0879605 -6.77816e-22)
(1.2433 -0.0856754 5.31559e-23)
(1.24687 -0.0833327 -1.97925e-22)
(1.2504 -0.0809218 -1.17205e-21)
(1.25387 -0.0784242 -2.08312e-21)
(1.25726 -0.0758011 -2.77667e-21)
(1.26059 -0.0729656 2.81724e-21)
(1.26385 -0.0697094 6.35621e-23)
(1.23541 -0.104816 1.29998e-21)
(1.23944 -0.102422 -5.1324e-22)
(1.24344 -0.0999779 -4.488e-22)
(1.24741 -0.0974781 1.13876e-22)
(1.25133 -0.0949161 7.09095e-22)
(1.2552 -0.0922834 1.37065e-21)
(1.25901 -0.0895695 -8.66324e-22)
(1.26274 -0.0867599 1.5954e-21)
(1.26636 -0.0838319 -6.22269e-22)
(1.26987 -0.0807429 -7.40663e-22)
(1.27324 -0.0774012 -3.14299e-21)
(1.27646 -0.0735932 -6.92481e-22)
(1.24618 -0.113133 -1.01306e-21)
(1.25052 -0.110411 8.60642e-22)
(1.25481 -0.107621 1.53229e-21)
(1.25905 -0.104754 8.47687e-22)
(1.2632 -0.101799 -4.94855e-22)
(1.26727 -0.0987431 -2.08084e-21)
(1.27122 -0.0955704 3.31557e-21)
(1.27504 -0.0922614 -9.0559e-22)
(1.27868 -0.0887889 2.07197e-21)
(1.28212 -0.0851079 -1.52527e-21)
(1.2853 -0.081128 2.13467e-21)
(1.2882 -0.0766508 2.08986e-21)
(1.2572 -0.121523 -1.56736e-22)
(1.26181 -0.118412 -1.13002e-21)
(1.26634 -0.115208 -1.47165e-21)
(1.27076 -0.111894 2.99475e-22)
(1.27506 -0.108455 2.55482e-21)
(1.27919 -0.10487 -1.48171e-21)
(1.28313 -0.101119 3.41079e-22)
(1.28683 -0.0971744 -4.89838e-21)
(1.29025 -0.093007 -7.60172e-22)
(1.29333 -0.0885721 3.4775e-21)
(1.29596 -0.0837904 5.56261e-23)
(1.29807 -0.0785091 -4.26953e-21)
(1.26832 -0.129872 6.53379e-23)
(1.27313 -0.126288 4.30942e-22)
(1.27779 -0.122571 1.52967e-21)
(1.28226 -0.118699 -1.18452e-21)
(1.28651 -0.114649 -2.69734e-21)
(1.2905 -0.110395 1.33031e-21)
(1.29415 -0.105907 1.04011e-21)
(1.29742 -0.101155 7.1495e-21)
(1.30023 -0.096108 3.98679e-22)
(1.30251 -0.0907287 -3.48579e-21)
(1.30408 -0.0849625 6.09892e-22)
(1.30478 -0.0787412 -9.34222e-22)
(1.27932 -0.138001 -2.87763e-22)
(1.28418 -0.133825 2.84425e-22)
(1.28877 -0.129461 -3.6e-22)
(1.29307 -0.124881 1.86636e-21)
(1.297 -0.120055 5.07481e-21)
(1.30048 -0.114951 5.23027e-21)
(1.30345 -0.109534 -7.94418e-21)
(1.30581 -0.103773 1.20955e-21)
(1.30749 -0.0976422 4.2401e-21)
(1.30838 -0.0911201 8.63023e-21)
(1.30821 -0.0841939 -1.402e-21)
(1.30666 -0.0769257 2.1989e-21)
(1.28985 -0.145648 1.08212e-21)
(1.2945 -0.140718 6.98025e-22)
(1.29875 -0.135532 -2.45023e-21)
(1.30251 -0.130054 -1.56956e-21)
(1.30569 -0.12425 -1.95955e-21)
(1.3082 -0.118086 4.43884e-22)
(1.30993 -0.111527 4.67239e-21)
(1.31077 -0.104548 -4.0482e-21)
(1.31061 -0.0971369 -2.12596e-21)
(1.30937 -0.0893 -9.15348e-21)
(1.30664 -0.0810855 2.67667e-21)
(1.30188 -0.0727306 1.06164e-20)
(1.29937 -0.152457 2.09054e-21)
(1.30347 -0.14657 -6.12229e-22)
(1.30694 -0.140346 1.44382e-21)
(1.30967 -0.133748 8.27172e-22)
(1.31154 -0.126742 -5.4593e-21)
(1.31244 -0.119298 -1.01587e-20)
(1.31223 -0.111391 7.2416e-21)
(1.31077 -0.103012 6.30058e-22)
(1.30798 -0.0941715 -4.21631e-21)
(1.30376 -0.0849193 8.79073e-21)
(1.29758 -0.0753811 4.75986e-21)
(1.28859 -0.0660052 -2.87108e-21)
(1.30716 -0.15798 -6.38008e-22)
(1.31021 -0.150898 -1.29654e-21)
(1.31233 -0.143396 -9.46413e-22)
(1.3134 -0.135444 -1.68352e-21)
(1.31326 -0.127017 -3.38748e-21)
(1.31179 -0.118098 4.85605e-21)
(1.30883 -0.108683 -1.30729e-20)
(1.30424 -0.0987904 -7.43637e-21)
(1.29793 -0.0884681 3.87398e-21)
(1.28987 -0.0778178 -8.97543e-21)
(1.27936 -0.0670544 -9.62486e-21)
(1.26521 -0.0568531 -1.34635e-20)
(1.31227 -0.161702 -3.56459e-21)
(1.31364 -0.153173 2.57592e-21)
(1.31373 -0.144157 2.51188e-21)
(1.31238 -0.134638 -1.52929e-21)
(1.30944 -0.124611 1.70918e-21)
(1.30476 -0.114087 6.52455e-21)
(1.29819 -0.103096 1.89527e-20)
(1.28961 -0.0916925 1.58534e-20)
(1.27896 -0.0799728 -1.04006e-20)
(1.26627 -0.0680961 7.44071e-21)
(1.25068 -0.0563628 1.36265e-21)
(1.23062 -0.0456612 9.64805e-21)
(1.31357 -0.163093 1.31224e-21)
(1.31253 -0.152882 -5.82144e-21)
(1.30981 -0.142152 -9.74307e-21)
(1.30524 -0.130913 -6.58047e-21)
(1.29866 -0.119194 1.76921e-20)
(1.28994 -0.107044 -7.83859e-21)
(1.27896 -0.0945366 -1.50245e-20)
(1.26562 -0.0817762 -9.14911e-21)
(1.24993 -0.0689097 3.97746e-21)
(1.232 -0.056148 2.03161e-21)
(1.21082 -0.0438537 -8.56213e-21)
(1.18438 -0.0330728 -8.73416e-21)
(1.30982 -0.161661 3.4558e-22)
(1.30559 -0.14959 1.22707e-21)
(1.29926 -0.137024 5.93378e-21)
(1.29066 -0.124013 -2.25675e-22)
(1.27967 -0.110629 -6.23802e-21)
(1.26618 -0.0969722 -1.04242e-20)
(1.25011 -0.0831705 2.60888e-21)
(1.23143 -0.0693805 -1.60649e-22)
(1.21022 -0.0557958 9.9109e-21)
(1.18671 -0.0426567 3.60103e-21)
(1.1597 -0.0303341 1.06405e-20)
(1.12679 -0.019925 6.87421e-22)
(1.29979 -0.157026 3.93039e-21)
(1.29162 -0.143001 2.35306e-22)
(1.28093 -0.12858 1.60375e-20)
(1.2676 -0.113862 1.30248e-20)
(1.25153 -0.0989753 -1.14908e-20)
(1.23269 -0.08408 4.75441e-21)
(1.21107 -0.0693649 -3.99266e-21)
(1.1867 -0.0550416 3.68448e-21)
(1.15978 -0.0413378 -5.2221e-21)
(1.13064 -0.0284834 4.98075e-21)
(1.09794 -0.0167628 -1.23707e-20)
(1.0588 -0.00714101 1.57562e-20)
(1.28246 -0.14905 -7.94668e-21)
(1.26968 -0.133094 5.84731e-21)
(1.25403 -0.116923 -1.34718e-20)
(1.23541 -0.100695 5.72426e-21)
(1.21382 -0.0845984 2.13174e-20)
(1.18927 -0.0688603 5.38733e-21)
(1.16184 -0.0537347 9.14708e-21)
(1.13168 -0.0394885 -3.28741e-21)
(1.09907 -0.0263711 5.84461e-22)
(1.06452 -0.0145567 -8.99895e-21)
(1.02652 -0.00411948 1.62473e-20)
(0.981757 0.00439278 -8.93501e-21)
(1.25709 -0.137786 2.23466e-21)
(1.23922 -0.120067 -1.07647e-20)
(1.2182 -0.102412 7.4191e-22)
(1.19401 -0.0850372 -1.90346e-20)
(1.1667 -0.0681986 -1.22874e-20)
(1.13638 -0.0521881 -6.65724e-21)
(1.10323 -0.0373253 -7.23457e-23)
(1.06747 -0.0239275 -5.45321e-21)
(1.02949 -0.0122484 1.69503e-20)
(0.989919 -0.00235005 5.1156e-21)
(0.947138 0.00607793 -1.13052e-20)
(0.897427 0.0134066 -4.36685e-21)
(1.22307 -0.12283 7.06328e-21)
(1.19975 -0.103541 2.10622e-21)
(1.17309 -0.0847007 -7.91811e-21)
(1.14317 -0.0665939 1.40228e-20)
(1.11012 -0.0495487 -1.5081e-20)
(1.07417 -0.0339322 -4.95731e-21)
(1.03558 -0.0201394 2.91431e-21)
(0.994676 -0.0085552 -1.95527e-21)
(0.951956 0.000541773 -2.17966e-20)
(0.908172 0.00718636 -2.06039e-20)
(0.861707 0.0122157 7.33491e-21)
(0.808179 0.0179915 -7.55248e-21)
(1.18069 -0.104473 -2.19086e-21)
(1.15168 -0.0837411 -1.04043e-21)
(1.11919 -0.0638755 4.17872e-21)
(1.08338 -0.0452274 -8.66548e-21)
(1.04448 -0.0281893 2.17247e-20)
(1.00276 -0.0131934 1.65481e-20)
(0.958583 -0.000704936 -1.06474e-20)
(0.912323 0.00881019 1.22573e-20)
(0.864513 0.014974 1.26716e-20)
(0.816015 0.0176671 5.48359e-21)
(0.766169 0.0176168 2.20322e-21)
(0.711386 0.019094 2.02159e-20)
(1.15469 -0.00274998 0)
(1.15686 -0.00251109 0)
(1.15892 -0.00225678 0)
(1.16085 -0.0019857 0)
(1.1626 -0.00169638 0)
(1.16414 -0.00138842 0)
(1.16542 -0.00106213 0)
(1.1664 -0.000718205 0)
(1.16701 -0.000357676 0)
(1.16721 1.78698e-05 0)
(1.16693 0.000406287 0)
(1.16611 0.000804446 0)
(1.16469 0.00120835 0)
(1.1626 0.00161305 0)
(1.15979 0.00201254 0)
(1.15621 0.00239977 0)
(1.15181 0.00276679 0)
(1.14656 0.00310495 0)
(1.14047 0.00340527 0)
(1.13353 0.00365899 0)
(1.12579 0.00385791 0)
(1.11729 0.00399535 0)
(1.10818 0.0040659 0)
(1.09846 0.00406734 0)
(1.08853 0.00399864 0)
(1.07798 0.00386264 0)
(1.06829 0.00366929 0)
(1.05679 0.00340988 0)
(1.04969 0.00316175 0)
(1.03443 0.00274991 0)
(1.15653 -0.00812529 0)
(1.15872 -0.00741845 0)
(1.16079 -0.00666365 0)
(1.16272 -0.00585741 0)
(1.16446 -0.00499579 0)
(1.16599 -0.00407816 0)
(1.16724 -0.00310594 0)
(1.16818 -0.00208153 0)
(1.16874 -0.00100831 0)
(1.16888 0.000108782 0)
(1.16852 0.00126303 0)
(1.16761 0.00244509 0)
(1.16609 0.00364305 0)
(1.1639 0.00484214 0)
(1.16097 0.00602454 0)
(1.15725 0.00716943 0)
(1.15272 0.00825328 0)
(1.14733 0.00925059 0)
(1.14109 0.0101349 0)
(1.13401 0.0108804 0)
(1.12612 0.011463 0)
(1.11749 0.0118628 0)
(1.10825 0.0120647 0)
(1.09841 0.0120601 0)
(1.08838 0.0118514 0)
(1.07773 0.0114354 0)
(1.06799 0.0108662 0)
(1.05642 0.0100705 0)
(1.04931 0.00936704 0)
(1.03408 0.00810014 0)
(1.16002 -0.0133302 0)
(1.16224 -0.0121496 0)
(1.16431 -0.0108901 0)
(1.16624 -0.00954625 0)
(1.16797 -0.00811166 0)
(1.16946 -0.00658582 0)
(1.17067 -0.00497162 0)
(1.17153 -0.00327345 0)
(1.17199 -0.00149732 0)
(1.17201 0.000348205 0)
(1.17151 0.00225151 0)
(1.17043 0.00419709 0)
(1.16872 0.0061652 0)
(1.16632 0.00813146 0)
(1.16316 0.0100667 0)
(1.1592 0.0119367 0)
(1.15441 0.0137032 0)
(1.14876 0.0153248 0)
(1.14225 0.0167584 0)
(1.13489 0.0179619 0)
(1.12674 0.0188968 0)
(1.11785 0.0195302 0)
(1.10836 0.0198394 0)
(1.0983 0.0198071 0)
(1.08808 0.0194452 0)
(1.07726 0.0187326 0)
(1.06739 0.0177923 0)
(1.05575 0.0164389 0)
(1.0486 0.0153186 0)
(1.03341 0.0131665 0)
(1.16496 -0.0183851 0)
(1.16722 -0.0167168 0)
(1.1693 -0.0149394 0)
(1.17122 -0.0130452 0)
(1.17293 -0.011026 0)
(1.17438 -0.00888202 0)
(1.1755 -0.00661828 0)
(1.17625 -0.00424177 0)
(1.17657 -0.00176166 0)
(1.17641 0.000809267 0)
(1.17571 0.00345415 0)
(1.17439 0.00615104 0)
(1.17241 0.00887222 0)
(1.16971 0.0115838 0)
(1.16622 0.0142455 0)
(1.16192 0.0168104 0)
(1.15676 0.0192261 0)
(1.15074 0.0214358 0)
(1.14384 0.0233812 0)
(1.1361 0.0250049 0)
(1.12757 0.026255 0)
(1.11832 0.0270864 0)
(1.1085 0.02747 0)
(1.09812 0.02738 0)
(1.08762 0.0268392 0)
(1.07658 0.0258068 0)
(1.06653 0.0244785 0)
(1.05479 0.0225524 0)
(1.04757 0.021006 0)
(1.03246 0.0179666 0)
(1.17119 -0.023333 0)
(1.1735 -0.0211507 0)
(1.17558 -0.0188296 0)
(1.1775 -0.0163602 0)
(1.17918 -0.0137329 0)
(1.18056 -0.0109495 0)
(1.18158 -0.0080179 0)
(1.18219 -0.00494836 0)
(1.18233 -0.00175391 0)
(1.18194 0.0015477 0)
(1.18097 0.00493406 0)
(1.17934 0.00837632 0)
(1.17702 0.0118386 0)
(1.17393 0.0152777 0)
(1.17003 0.0186422 0)
(1.16529 0.0218732 0)
(1.15967 0.0249046 0)
(1.15316 0.0276654 0)
(1.14579 0.030083 0)
(1.13756 0.0320857 0)
(1.12856 0.0336094 0)
(1.11885 0.0345979 0)
(1.1086 0.0350169 0)
(1.09784 0.0348322 0)
(1.087 0.0340792 0)
(1.07568 0.0326955 0)
(1.06541 0.0309531 0)
(1.05355 0.0284302 0)
(1.04624 0.0264393 0)
(1.03126 0.0225036 0)
(1.17858 -0.0281938 0)
(1.18096 -0.0254632 0)
(1.18304 -0.0225649 0)
(1.18494 -0.0194874 0)
(1.18658 -0.0162207 0)
(1.18788 -0.012769 0)
(1.18877 -0.00914406 0)
(1.1892 -0.00536024 0)
(1.18911 -0.00143503 0)
(1.18845 0.00260793 0)
(1.18715 0.00674057 0)
(1.18515 0.0109264 0)
(1.18241 0.0151212 0)
(1.17886 0.0192723 0)
(1.17446 0.0233178 0)
(1.16919 0.0271867 0)
(1.16302 0.0308003 0)
(1.15595 0.0340743 0)
(1.14799 0.0369224 0)
(1.1392 0.0392602 0)
(1.12964 0.0410125 0)
(1.1194 0.0421132 0)
(1.10865 0.042524 0)
(1.09743 0.0422024 0)
(1.08619 0.0411985 0)
(1.07455 0.0394256 0)
(1.06403 0.0372369 0)
(1.05205 0.0340849 0)
(1.04463 0.0316286 0)
(1.02982 0.0267769 0)
(1.18704 -0.0329846 0)
(1.18948 -0.0296637 0)
(1.19156 -0.0261468 0)
(1.19343 -0.0224214 0)
(1.19502 -0.0184774 0)
(1.19621 -0.0143225 0)
(1.19694 -0.00997341 0)
(1.19715 -0.00544951 0)
(1.19679 -0.000774323 0)
(1.1958 0.00402567 0)
(1.19412 0.00891272 0)
(1.19168 0.0138427 0)
(1.18845 0.0187633 0)
(1.18436 0.0236123 0)
(1.17939 0.0283174 0)
(1.17351 0.0327963 0)
(1.1667 0.0369581 0)
(1.15898 0.040706 0)
(1.15036 0.0439412 0)
(1.14092 0.0465678 0)
(1.13072 0.048501 0)
(1.11988 0.0496655 0)
(1.10856 0.0500212 0)
(1.09684 0.0495166 0)
(1.08517 0.0482192 0)
(1.07318 0.0460143 0)
(1.06237 0.0433436 0)
(1.05028 0.0395239 0)
(1.04275 0.0365796 0)
(1.02818 0.0307847 0)
(1.19647 -0.0377127 0)
(1.19897 -0.0337528 0)
(1.20103 -0.0295702 0)
(1.20287 -0.0251515 0)
(1.20438 -0.0204873 0)
(1.20544 -0.0155901 0)
(1.20597 -0.0104822 0)
(1.20592 -0.00518876 0)
(1.20524 0.000260873 0)
(1.20387 0.00583291 0)
(1.20174 0.0114825 0)
(1.1988 0.017158 0)
(1.19501 0.0227981 0)
(1.19032 0.0283312 0)
(1.18469 0.0336746 0)
(1.17812 0.038735 0)
(1.17059 0.04341 0)
(1.16213 0.0475909 0)
(1.15279 0.051168 0)
(1.14262 0.0540346 0)
(1.13172 0.0560981 0)
(1.12022 0.0572753 0)
(1.10829 0.057526 0)
(1.09602 0.0567896 0)
(1.08387 0.0551535 0)
(1.07152 0.0524706 0)
(1.06042 0.0492801 0)
(1.04823 0.0447496 0)
(1.0406 0.0412943 0)
(1.02633 0.0345237 0)
(1.20678 -0.0423772 0)
(1.20934 -0.0377232 0)
(1.21136 -0.0328225 0)
(1.21314 -0.0276606 0)
(1.21455 -0.0222298 0)
(1.21544 -0.0165484 0)
(1.21574 -0.0106453 0)
(1.21538 -0.00455175 0)
(1.21433 0.00169684 0)
(1.21251 0.00805644 0)
(1.20987 0.0144773 0)
(1.20636 0.0208995 0)
(1.20193 0.0272525 0)
(1.19655 0.033455 0)
(1.1902 0.0394143 0)
(1.18285 0.0450263 0)
(1.17453 0.0501776 0)
(1.16527 0.0547486 0)
(1.15512 0.0586197 0)
(1.14416 0.0616749 0)
(1.13252 0.0638154 0)
(1.1203 0.0649514 0)
(1.10773 0.065045 0)
(1.09489 0.0640252 0)
(1.08225 0.062004 0)
(1.06954 0.0587947 0)
(1.05815 0.0550461 0)
(1.0459 0.0497587 0)
(1.03817 0.0457711 0)
(1.02429 0.0379893 0)
(1.2179 -0.046965 0)
(1.2205 -0.0415565 0)
(1.22246 -0.0358805 0)
(1.22414 -0.0299221 0)
(1.22541 -0.023676 0)
(1.22609 -0.0171674 0)
(1.22609 -0.0104324 0)
(1.22537 -0.00350927 0)
(1.22387 0.00355951 0)
(1.22154 0.0107235 0)
(1.21832 0.0179241 0)
(1.21416 0.0250927 0)
(1.20902 0.0321502 0)
(1.20287 0.0390055 0)
(1.1957 0.0455557 0)
(1.18751 0.0516866 0)
(1.17833 0.0572742 0)
(1.16819 0.0621891 0)
(1.15718 0.0663027 0)
(1.14538 0.0694915 0)
(1.13294 0.0716526 0)
(1.11999 0.0726907 0)
(1.10675 0.0725728 0)
(1.09335 0.0712166 0)
(1.08022 0.068763 0)
(1.06718 0.0649777 0)
(1.05551 0.0606341 0)
(1.04327 0.0545425 0)
(1.03545 0.0500048 0)
(1.02207 0.0411753 0)
(1.22974 -0.0514473 0)
(1.23235 -0.0452181 0)
(1.23419 -0.038706 0)
(1.23574 -0.0318952 0)
(1.23681 -0.0247838 0)
(1.23721 -0.0174049 0)
(1.23684 -0.00980265 0)
(1.23568 -0.00202221 0)
(1.23366 0.00588791 0)
(1.23073 0.013869 0)
(1.22683 0.0218537 0)
(1.22193 0.0297648 0)
(1.21599 0.0375141 0)
(1.20899 0.0450011 0)
(1.20093 0.0521129 0)
(1.19182 0.058725 0)
(1.1817 0.0647041 0)
(1.17063 0.0699115 0)
(1.15871 0.0742116 0)
(1.14605 0.0774747 0)
(1.13279 0.0795962 0)
(1.11911 0.0804767 0)
(1.10521 0.0800914 0)
(1.09127 0.0783445 0)
(1.07769 0.0754119 0)
(1.06435 0.0710014 0)
(1.05247 0.0660283 0)
(1.0403 0.0590865 0)
(1.03244 0.0539858 0)
(1.01967 0.0440745 0)
(1.24219 -0.0557708 0)
(1.24474 -0.0486506 0)
(1.2464 -0.0412385 0)
(1.24773 -0.0335178 0)
(1.24852 -0.0254912 0)
(1.24854 -0.0172009 0)
(1.24772 -0.00869849 0)
(1.246 -3.58301e-05 0)
(1.24336 0.00873111 0)
(1.23972 0.0175358 0)
(1.23505 0.0263026 0)
(1.22931 0.0349455 0)
(1.22247 0.043367 0)
(1.21453 0.0514571 0)
(1.20549 0.0590933 0)
(1.1954 0.0661416 0)
(1.18429 0.0724598 0)
(1.17226 0.0779017 0)
(1.15941 0.0823263 0)
(1.14587 0.0855993 0)
(1.13182 0.0876175 0)
(1.11743 0.0882782 0)
(1.10293 0.0875686 0)
(1.08849 0.0853769 0)
(1.07452 0.0819203 0)
(1.06099 0.0768374 0)
(1.04895 0.071205 0)