/*--------------------------------*- C++ -*----------------------------------*\
  =========                 |
  \\      /  F ield         | OpenFOAM: The Open Source CFD Toolbox
   \\    /   O peration     | Website:  https://openfoam.org
    \\  /    A nd           | Version:  7
     \\/     M anipulation  |
\*---------------------------------------------------------------------------*/
FoamFile
{
    version     2.0;
    format      ascii;
    class       volVectorField;
    location    "310";
    object      U;
}
// * * * * * * * * * * * * * * * * * * * * * * * * * * * * * * * * * * * * * //

dimensions      [0 1 -1 0 0 0 0];

internalField   nonuniform List<vector> 
8500
(
(-0.00146447 -0.0243482 1.02873e-21)
(-0.00897964 -0.074107 -2.95496e-21)
(-0.0241647 -0.120831 -3.44277e-21)
(-0.0430476 -0.160184 3.41998e-21)
(-0.0639132 -0.192166 -3.14906e-21)
(-0.0848731 -0.219633 -1.6816e-21)
(-0.104282 -0.245878 2.88005e-21)
(-0.12122 -0.272861 3.59317e-21)
(-0.135126 -0.300727 -5.96986e-22)
(-0.145792 -0.328249 1.75757e-21)
(-0.00120137 -0.0206444 -1.13608e-21)
(-0.00889006 -0.0658076 3.51217e-21)
(-0.0255226 -0.109708 -8.30865e-21)
(-0.0462985 -0.147554 7.53848e-21)
(-0.0692649 -0.179182 3.20207e-22)
(-0.0923936 -0.20725 5.51747e-21)
(-0.114032 -0.234749 -9.62997e-21)
(-0.133391 -0.263262 -1.41569e-20)
(-0.150103 -0.29262 -2.80093e-21)
(-0.164375 -0.321411 6.36097e-21)
(-0.00124044 -0.0162387 1.06131e-21)
(-0.00929843 -0.0561107 7.80154e-21)
(-0.0271986 -0.096944 1.83411e-20)
(-0.0494686 -0.133282 -1.66044e-20)
(-0.0739758 -0.164644 -3.79256e-21)
(-0.0985838 -0.193383 -3.42673e-21)
(-0.121626 -0.222125 1.75948e-20)
(-0.142406 -0.252061 1.09008e-20)
(-0.160682 -0.282678 2.63992e-21)
(-0.176904 -0.312319 -1.97495e-20)
(-0.00162196 -0.0112673 3.77071e-21)
(-0.0102328 -0.045284 -4.55964e-21)
(-0.0291413 -0.0828508 -3.44543e-20)
(-0.0524192 -0.117678 3.01247e-21)
(-0.0778263 -0.14884 9.45054e-21)
(-0.103149 -0.178292 -7.43613e-21)
(-0.126691 -0.20827 -2.38539e-22)
(-0.147797 -0.239557 -3.06066e-21)
(-0.16626 -0.271249 6.8596e-21)
(-0.182561 -0.301359 1.98256e-20)
(-0.00236461 -0.00590081 2.63833e-21)
(-0.0116886 -0.0336447 -1.49388e-20)
(-0.0312758 -0.0677802 3.58216e-20)
(-0.0550015 -0.101078 -1.64348e-20)
(-0.0805979 -0.132065 -4.33888e-23)
(-0.105805 -0.162243 2.28387e-20)
(-0.128872 -0.193449 -1.04333e-20)
(-0.149128 -0.226058 1.12494e-21)
(-0.166307 -0.258708 -4.31439e-21)
(-0.180604 -0.288969 1.6867e-21)
(-0.00346215 -0.000334636 3.1689e-20)
(-0.0136269 -0.0215466 3.8556e-20)
(-0.033505 -0.0521135 -9.80741e-21)
(-0.0570584 -0.0838334 1.88477e-20)
(-0.0820738 -0.114624 6.07416e-21)
(-0.106275 -0.145502 -8.46888e-21)
(-0.127831 -0.177917 -3.31888e-21)
(-0.145986 -0.21186 -1.46909e-20)
(-0.160359 -0.245441 3.20614e-21)
(-0.170357 -0.275631 -1.85609e-20)
(-0.00488215 0.00522097 -3.05764e-20)
(-0.0159737 -0.00936536 -2.01505e-20)
(-0.035711 -0.0362515 1.66465e-20)
(-0.0584271 -0.0663116 -2.90131e-20)
(-0.0820409 -0.0968307 3.51018e-21)
(-0.104288 -0.128333 3.44562e-20)
(-0.123231 -0.161917 -6.2723e-21)
(-0.137967 -0.197233 4.07225e-20)
(-0.148006 -0.231818 -7.26874e-22)
(-0.151189 -0.261841 -1.65332e-20)
(-0.00656675 0.0105529 2.60566e-20)
(-0.0186231 0.00251542 -4.72852e-20)
(-0.0377606 -0.0206053 -1.89292e-20)
(-0.0589451 -0.0488918 2.19853e-20)
(-0.0802951 -0.0790104 9.77731e-22)
(-0.099584 -0.111003 -6.50335e-20)
(-0.114748 -0.145672 -4.10597e-21)
(-0.124665 -0.182407 -3.27029e-20)
(-0.128883 -0.218171 -4.19566e-20)
(-0.122513 -0.24809 2.45483e-20)
(-0.00843681 0.0154578 -1.45357e-20)
(-0.0214429 0.0137218 7.03899e-21)
(-0.039511 -0.00558623 1.74704e-20)
(-0.058458 -0.0319629 -1.61615e-20)
(-0.0766507 -0.0615046 -5.61542e-20)
(-0.0919241 -0.0937954 1.92285e-20)
(-0.102073 -0.129399 2.63316e-21)
(-0.105674 -0.167555 4.97907e-20)
(-0.102671 -0.204762 6.51302e-20)
(-0.083805 -0.234819 -2.89999e-20)
(-0.0103967 0.0197551 2.33412e-20)
(-0.0242838 0.0239061 2.14045e-20)
(-0.0408191 0.00840487 -3.06392e-21)
(-0.0568284 -0.0159217 7.97132e-20)
(-0.0709541 -0.0446766 3.40474e-20)
(-0.0811068 -0.0770184 2.57714e-20)
(-0.0849376 -0.113325 3.71805e-20)
(-0.0806033 -0.152801 -1.59575e-20)
(-0.0691128 -0.191768 -2.18818e-20)
(-0.034663 -0.222286 -3.58925e-20)
(-0.0123426 0.0232985 -1.95529e-21)
(-0.0269878 0.0327626 -3.41387e-20)
(-0.0415505 0.0209909 -2.47281e-20)
(-0.0539458 -0.00116601 -3.97204e-20)
(-0.0630972 -0.0289136 -3.1811e-20)
(-0.0669899 -0.0610266 3.24546e-20)
(-0.063142 -0.0977195 -3.1472e-20)
(-0.0491155 -0.138246 -2.16648e-20)
(-0.0279695 -0.179316 2.91033e-21)
(0.0249107 -0.209986 9.29839e-21)
(-0.0141711 0.0259855 -6.54759e-20)
(-0.0294 0.0400436 3.1292e-20)
(-0.0415862 0.0318326 2.29632e-20)
(-0.0497322 0.011915 1.56273e-20)
(-0.0530235 -0.0146334 -2.88784e-20)
(-0.049509 -0.0462279 -2.44588e-20)
(-0.0365922 -0.0829204 3.5711e-20)
(-0.0110056 -0.124022 -2.94192e-20)
(0.02136 -0.167691 -2.1259e-21)
(0.0942216 -0.196161 -3.03005e-20)
(-0.0157885 0.0277648 5.54376e-20)
(-0.0313783 0.0455733 2.27295e-20)
(-0.0408275 0.0406446 1.3112e-21)
(-0.0441463 0.0229573 -2.84156e-20)
(-0.0407322 -0.00225539 1.8001e-21)
(-0.0286737 -0.0330708 3.2833e-20)
(-0.00530145 -0.0693546 -9.44863e-21)
(0.0335231 -0.110297 -1.17216e-20)
(0.0800682 -0.157137 -2.58627e-20)
(0.173896 -0.181348 4.63056e-20)
(-0.0171194 0.0286385 3.82341e-20)
(-0.0328002 0.0492575 -6.15216e-20)
(-0.0391929 0.0472137 -4.79538e-20)
(-0.0371653 0.0316494 2.06766e-20)
(-0.0262601 0.00783366 4.28431e-20)
(-0.00455229 -0.0220174 3.73203e-20)
(0.0307387 -0.0575362 -3.99919e-20)
(0.0840545 -0.0976386 7.76357e-20)
(0.147429 -0.147449 -2.38015e-20)
(0.264746 -0.166869 -5.42402e-20)
(-0.0181122 0.0286599 -5.69419e-20)
(-0.0335669 0.0510882 3.43593e-20)
(-0.0366106 0.0514156 -1.69589e-20)
(-0.028763 0.0377601 1.76743e-21)
(-0.00963285 0.0153077 1.83542e-20)
(0.0227679 -0.0135093 -5.86878e-20)
(0.0714098 -0.0479895 5.28882e-20)
(0.140618 -0.0867137 -5.15988e-20)
(0.222557 -0.138215 8.28872e-20)
(0.364147 -0.152202 2.91797e-20)
(-0.0187416 0.0279239 1.23518e-20)
(-0.0336025 0.0511434 6.75879e-20)
(-0.0330005 0.0532254 -1.72522e-20)
(-0.018871 0.0411584 1.74879e-20)
(0.00919832 0.0199399 2.09135e-20)
(0.053314 -0.00783334 -6.34398e-21)
(0.116664 -0.0410433 4.56697e-20)
(0.203077 -0.0779378 2.34351e-21)
(0.305654 -0.129606 -5.28613e-20)
(0.468593 -0.137302 6.98712e-20)
(-0.0190057 0.026559 -3.27484e-20)
(-0.0328458 0.0495753 -6.42031e-20)
(-0.028259 0.0527195 5.59485e-20)
(-0.00734626 0.0418383 2.84109e-20)
(0.030434 0.0216687 -1.33154e-19)
(0.0873334 -0.00506102 1.09837e-19)
(0.166775 -0.0367855 -1.00438e-19)
(0.271366 -0.0714864 1.58852e-21)
(0.396773 -0.121025 -2.24657e-20)
(0.573999 -0.122229 -6.40945e-20)
(-0.0189244 0.0247109 2.85968e-20)
(-0.0312398 0.0465929 -3.93577e-21)
(-0.0222334 0.0500778 -1.37553e-20)
(0.00607137 0.0399419 -1.50421e-21)
(0.0544621 0.0206358 -8.26989e-21)
(0.125359 -0.00501374 -3.50628e-20)
(0.222333 -0.0349105 1.51635e-20)
(0.345796 -0.0672433 -2.39475e-20)
(0.495225 -0.111105 7.52244e-21)
(0.675805 -0.106821 1.97263e-21)
(-0.0185266 0.022525 -5.84064e-20)
(-0.0287177 0.0424444 -4.26748e-21)
(-0.0147028 0.0455697 6.41502e-21)
(0.0217896 0.0357492 2.60254e-21)
(0.0819038 0.0171723 4.3725e-20)
(0.168221 -0.00723759 -1.28746e-19)
(0.284155 -0.0347408 8.76508e-20)
(0.426991 -0.0645116 -6.56592e-20)
(0.599121 -0.098154 5.43103e-20)
(0.770031 -0.0916607 5.81886e-20)
(-0.0178388 0.020133 -7.1233e-21)
(-0.0251862 0.0373924 3.25138e-20)
(-0.00536505 0.0395326 -4.10184e-20)
(0.040365 0.0296658 -1.29312e-20)
(0.113591 0.0117912 2.51281e-20)
(0.216956 -0.0110308 1.22283e-19)
(0.353042 -0.0353545 -2.47496e-20)
(0.515369 -0.0618058 1.23717e-20)
(0.705136 -0.08134 -6.30832e-20)
(0.855712 -0.0807199 2.63519e-20)
(-0.0168734 0.0176416 -2.13635e-20)
(-0.0205114 0.0316928 -1.65766e-20)
(0.00616672 0.0323491 4.03557e-21)
(0.0624832 0.0221991 1.62795e-20)
(0.150486 0.00516099 -4.85002e-20)
(0.272603 -0.0154987 -1.98424e-20)
(0.429458 -0.0357143 -6.26681e-20)
(0.610206 -0.0571795 6.4049e-20)
(0.808636 -0.0628528 6.62543e-20)
(0.936246 -0.0792835 -2.81347e-20)
(-0.0156174 0.0151261 -1.01349e-20)
(-0.0145097 0.0255773 4.14171e-20)
(0.0203525 0.0244211 -4.65306e-20)
(0.0889082 0.0139276 -5.42968e-21)
(0.193555 -0.00193301 -2.21082e-20)
(0.335939 -0.0196234 4.8685e-20)
(0.513167 -0.0347478 6.32414e-20)
(0.708937 -0.0493926 -5.99182e-20)
(0.9047 -0.0475152 6.17354e-20)
(1.03661 -0.0666557 7.6555e-21)
(-0.014025 0.0126291 -2.93563e-20)
(-0.00694588 0.0192444 -8.37579e-20)
(0.0377015 0.0161498 8.19397e-20)
(0.120406 0.00546937 1.18731e-20)
(0.243607 -0.00864132 1.76554e-20)
(0.407186 -0.0223633 1.02971e-20)
(0.602904 -0.0314803 4.76667e-20)
(0.807649 -0.0386668 3.4768e-20)
(0.995317 -0.0323781 -1.21218e-19)
(1.12119 -0.0463882 -5.69133e-20)
(-0.0120156 0.0101654 -1.00652e-19)
(0.00246123 0.0128578 2.0322e-20)
(0.0587373 0.00791953 -4.61704e-20)
(0.157658 -0.0025511 9.08318e-21)
(0.301118 -0.0141094 1.47256e-20)
(0.485798 -0.0227766 -1.05454e-19)
(0.696315 -0.025248 4.60998e-20)
(0.902839 -0.0253723 -3.11153e-20)
(1.0768 -0.0158584 3.2334e-20)
(1.18688 -0.0260199 -1.0735e-20)
(-0.00947583 0.00773094 3.63499e-20)
(0.0140236 0.00655375 3.91256e-20)
(0.083955 9.18782e-05 -2.12742e-21)
(0.201166 -0.0095285 -1.27206e-20)
(0.366082 -0.0175395 6.25157e-22)
(0.570368 -0.0201498 1.19584e-21)
(0.790325 -0.0158231 -7.03605e-20)
(0.991362 -0.00990165 8.98798e-21)
(1.14688 0.00152116 8.4457e-20)
(1.23965 -0.005578 3.69553e-20)
(-0.00626716 0.00531431 -2.45599e-20)
(0.0280658 0.000453437 -1.831e-20)
(0.113778 -0.00699233 7.84528e-20)
(0.251174 -0.0148926 2.00397e-21)
(0.437909 -0.0182512 -3.28454e-20)
(0.658725 -0.0140868 8.89948e-20)
(0.881704 -0.00337097 1.92252e-20)
(1.07084 0.00720261 6.38131e-22)
(1.2053 0.019424 -3.72405e-20)
(1.27905 0.0141467 -4.66806e-20)
(-0.0022358 0.00290832 5.10977e-20)
(0.0449027 -0.0053193 -1.4361e-20)
(0.148517 -0.0130018 -8.51997e-21)
(0.307603 -0.0181179 -3.25567e-20)
(0.515405 -0.0157362 5.38625e-20)
(0.74822 -0.00452556 -2.65405e-20)
(0.967598 0.0116825 -2.95756e-20)
(1.13996 0.0254128 -7.25508e-21)
(1.25228 0.0374208 -2.10732e-20)
(1.30807 0.0329304 2.21881e-20)
(0.00277609 0.000521147 -1.88633e-20)
(0.064815 -0.0106196 -1.11754e-19)
(0.188337 -0.0176018 1.17097e-20)
(0.370016 -0.0187334 4.0366e-20)
(0.596857 -0.00969885 2.90378e-20)
(0.836123 0.00831967 -9.6389e-20)
(1.04588 0.0288063 6.13158e-20)
(1.19833 0.0442612 -2.77682e-20)
(1.28893 0.0552207 4.09738e-20)
(1.32837 0.0507893 1.09606e-20)
(0.0089197 -0.00181613 -2.05362e-20)
(0.0880289 -0.0152677 3.97317e-20)
(0.233227 -0.0204441 5.17016e-20)
(0.437609 -0.0163407 -3.72811e-20)
(0.680211 -6.51452e-05 1.38221e-20)
(0.919982 0.0240584 -8.46605e-20)
(1.11526 0.0474726 -1.61895e-20)
(1.24628 0.0633842 1.29848e-20)
(1.31654 0.0726517 -3.11614e-20)
(1.34191 0.0677646 -3.09323e-20)
(0.0163304 -0.00404546 -2.64032e-20)
(0.114695 -0.0190412 -8.81275e-21)
(0.282978 -0.0211655 -9.34665e-20)
(0.509241 -0.010638 -1.4626e-20)
(0.763303 0.0130435 -1.65128e-21)
(0.997871 0.0422245 5.00033e-21)
(1.1752 0.067218 8.91986e-21)
(1.28461 0.0825228 -4.06269e-20)
(1.33657 0.0896389 7.42949e-22)
(1.35018 0.0839982 2.14089e-20)
(0.0251199 -0.00608132 -6.83098e-21)
(0.144874 -0.0216742 3.24163e-20)
(0.33717 -0.0194001 4.56262e-20)
(0.583509 -0.00144396 2.85399e-20)
(0.84409 0.0293634 -8.53495e-21)
(1.06847 0.0623485 -6.92766e-21)
(1.22575 0.0876663 6.87487e-20)
(1.31437 0.101512 8.86516e-21)
(1.35036 0.106182 3.02407e-20)
(1.35444 0.0996223 -1.28191e-20)
(0.0353702 -0.00781303 6.53397e-20)
(0.178514 -0.0228647 4.25375e-20)
(0.395168 -0.0148025 -4.30845e-20)
(0.65885 0.0112909 -8.57824e-21)
(0.920823 0.0485467 4.39765e-21)
(1.13104 0.0839996 -1.61848e-20)
(1.26738 0.108529 -3.50831e-20)
(1.3367 0.120264 -5.92072e-21)
(1.35911 0.122325 4.98746e-22)
(1.35567 0.114775 1.38745e-20)
(0.0471281 -0.00910915 7.86215e-21)
(0.21545 -0.0222891 -2.31274e-20)
(0.456141 -0.00707776 5.47239e-20)
(0.733672 0.0274913 3.56768e-20)
(0.992139 0.0702109 9.5648e-22)
(1.18531 0.106804 2.52516e-20)
(1.30079 0.129598 3.77369e-21)
(1.35271 0.138743 -2.62854e-20)
(1.36384 0.138134 2.19827e-20)
(1.35457 0.129574 -9.70902e-24)
(0.0604009 -0.00982304 -5.34935e-20)
(0.255386 -0.0196205 -1.57972e-20)
(0.519094 0.00398943 -1.43584e-20)
(0.80647 0.046978 -2.49331e-20)
(1.05708 0.0939718 5.73821e-21)
(1.23139 0.130447 1.31143e-22)
(1.32682 0.150726 1.91689e-20)
(1.36342 0.156954 -3.05604e-21)
(1.36536 0.15368 -2.26264e-20)
(1.35167 0.14411 -2.08042e-20)
(0.0751528 -0.00979915 4.31363e-21)
(0.297904 -0.01455 2.54379e-20)
(0.582925 0.018516 1.22852e-20)
(0.875915 0.0694956 -3.85235e-20)
(1.11506 0.119463 -1.98429e-21)
(1.26963 0.154673 -1.64685e-20)
(1.34632 0.171818 4.28143e-22)
(1.36971 0.174916 7.73861e-21)
(1.36431 0.16903 -8.48007e-21)
(1.34733 0.158448 2.35091e-20)
(0.091302 -0.00887967 1.0058e-20)
(0.34247 -0.00680874 -2.47823e-20)
(0.646487 0.036513 -5.85941e-20)
(0.94091 0.0947377 5.39901e-20)
(1.16581 0.146343 -4.03533e-21)
(1.30052 0.179275 1.19483e-20)
(1.3601 0.192813 -1.62401e-21)
(1.37231 0.19266 1.13659e-20)
(1.36117 0.184235 -8.67415e-22)
(1.34177 0.172629 -1.82043e-20)
(0.10872 -0.00691144 -2.04243e-20)
(0.388448 0.00381413 3.21125e-20)
(0.708652 0.0578903 2.66275e-20)
(1.00061 0.122368 -3.8339e-20)
(1.20929 0.174303 -6.31723e-21)
(1.32464 0.204082 2.43103e-21)
(1.3689 0.213668 2.41658e-20)
(1.37181 0.210209 1.21817e-21)
(1.35627 0.199325 4.66554e-21)
(1.33515 0.186667 -1.00543e-20)
(0.127233 -0.00375307 1.54896e-20)
(0.435129 0.017456 -1.39745e-20)
(0.768368 0.0824677 -1.18561e-20)
(1.0544 0.152037 2.03826e-20)
(1.24563 0.203059 7.05785e-21)
(1.34257 0.228957 5.31117e-21)
(1.37337 0.234352 -2.45734e-20)
(1.3687 0.22758 -8.39089e-21)
(1.34987 0.214316 -7.50428e-21)
(1.32757 0.200557 3.30625e-21)
(0.146623 0.000718062 -7.65593e-21)
(0.481754 0.0341719 -1.78957e-22)
(0.824695 0.10999 2.24235e-20)
(1.10188 0.183386 -8.24816e-21)
(1.27511 0.232354 -3.61858e-21)
(1.3549 0.253779 -2.38766e-21)
(1.37407 0.254836 5.9297e-21)
(1.36333 0.244773 1.02395e-20)
(1.34213 0.229198 -3.22858e-22)
(1.31907 0.214275 3.71824e-21)
(0.166635 0.00659931 5.38757e-21)
(0.52755 0.0539307 -1.5121e-21)
(0.876837 0.140145 -4.00196e-21)
(1.14285 0.216062 -3.62416e-21)
(1.29804 0.26195 3.26549e-21)
(1.36216 0.278439 2.54511e-21)
(1.37146 0.275083 -2.34776e-21)
(1.35596 0.261772 8.52604e-22)
(1.33314 0.243943 1.19515e-21)
(1.30967 0.227782 -1.58511e-21)
(0.186984 0.0139571 2.86119e-21)
(0.571757 0.0766165 8.19782e-22)
(0.924142 0.172572 -4.91496e-21)
(1.17722 0.249713 -3.92211e-21)
(1.31481 0.291624 4.09132e-21)
(1.36483 0.302835 7.99635e-22)
(1.3659 0.295048 -1.87319e-21)
(1.34681 0.278545 1.76256e-21)
(1.32298 0.258506 9.84871e-22)
(1.29941 0.241027 -1.13264e-21)
(0.20736 0.0228224 -1.12665e-21)
(0.613657 0.102034 2.28786e-21)
(0.96611 0.206881 1.50814e-20)
(1.20503 0.283994 -6.68832e-21)
(1.32579 0.321168 -3.30309e-21)
(1.36336 0.326864 -3.72266e-21)
(1.35769 0.314673 7.63332e-21)
(1.33599 0.295039 5.1259e-21)
(1.31169 0.27282 4.10611e-21)
(1.28829 0.253951 2.23722e-21)
(0.227441 0.0331883 2.27734e-20)
(0.652592 0.129918 -1.25589e-20)
(1.00238 0.242659 -1.43671e-20)
(1.22642 0.318569 1.94811e-20)
(1.33136 0.350379 1.02485e-20)
(1.35811 0.350419 -6.87519e-22)
(1.34708 0.333888 -1.27276e-20)
(1.32363 0.311186 -9.20801e-21)
(1.29928 0.286802 -9.63512e-21)
(1.27633 0.266483 5.74777e-21)
(0.2469 0.0450085 -3.07581e-20)
(0.687982 0.15994 2.89585e-20)
(1.03271 0.279479 3.32663e-20)
(1.24156 0.35311 -3.2839e-20)
(1.33191 0.37906 -1.141e-20)
(1.34941 0.373387 7.33403e-21)
(1.33426 0.352612 1.33938e-20)
(1.30976 0.326903 2.11731e-21)
(1.28576 0.30035 -3.84681e-22)
(1.26349 0.278537 -7.8705e-21)
(0.265415 0.0581978 -4.36431e-21)
(0.719337 0.191725 -4.05785e-20)
(1.05698 0.316908 -4.34804e-20)
(1.25069 0.387298 4.87935e-20)
(1.32778 0.407019 -5.54131e-21)
(1.33755 0.395651 1.02285e-20)
(1.31937 0.370753 2.0362e-21)
(1.29447 0.342108 -5.74263e-21)
(1.2711 0.31338 3.08369e-21)
(1.24959 0.290028 -4.50283e-22)
(0.282677 0.0726346 8.89919e-21)
(0.746263 0.224854 2.50434e-20)
(1.07517 0.354509 1.42454e-20)
(1.25408 0.420823 -1.12138e-20)
(1.3193 0.434062 -1.73941e-20)
(1.32277 0.417084 -1.634e-20)
(1.30255 0.388207 -3.32368e-21)
(1.2778 0.356716 8.90639e-21)
(1.25535 0.325873 -1.88519e-21)
(1.23446 0.300946 4.36703e-21)
(0.2984 0.0881634 -3.34353e-20)
(0.768463 0.258888 -3.13212e-20)
(1.08731 0.391852 -4.92976e-21)
(1.25203 0.453387 -5.59323e-21)
(1.30681 0.460001 -1.27911e-20)
(1.3053 0.437551 7.90956e-21)
(1.28391 0.404854 -1.42992e-21)
(1.25979 0.37061 -7.84634e-21)
(1.23857 0.337853 7.12186e-21)
(1.21826 0.311391 -1.05009e-20)
(0.312327 0.104598 8.073e-21)
(0.78574 0.293369 2.65053e-20)
(1.09354 0.428517 2.30278e-20)
(1.24483 0.484699 2.51008e-20)
(1.29059 0.48465 5.11795e-22)
(1.28533 0.456916 2.22563e-20)
(1.26352 0.420568 1.52366e-21)
(1.24049 0.383637 -2.68034e-20)
(1.22068 0.349156 1.93996e-20)
(1.20144 0.321008 7.20875e-21)
(0.324238 0.121727 2.15815e-20)
(0.79798 0.327838 4.81985e-20)
(1.09404 0.464094 -6.42392e-21)
(1.2328 0.514482 -3.15514e-20)
(1.27092 0.507823 1.43188e-20)
(1.26303 0.47504 -1.50341e-20)
(1.24153 0.435232 -2.03502e-20)
(1.21999 0.395747 -1.89997e-21)
(1.20164 0.359577 -1.62817e-20)
(1.18396 0.329844 6.41645e-21)
(0.333949 0.139318 1.00795e-20)
(0.805154 0.361838 7.39502e-21)
(1.08902 0.498192 6.01224e-20)
(1.21628 0.54247 1.13665e-20)
(1.24809 0.529342 -9.97495e-21)
(1.23859 0.491772 -5.17592e-21)
(1.21805 0.448699 3.1314e-20)
(1.19833 0.406834 2.61347e-20)
(1.18158 0.369045 1.31975e-20)
(1.16573 0.337732 -1.85964e-21)
(0.341322 0.157127 2.13099e-21)
(0.807304 0.394925 -4.91571e-20)
(1.07878 0.530438 -7.06339e-20)
(1.19559 0.568412 2.26399e-21)
(1.22235 0.549024 1.42487e-20)
(1.21221 0.50696 -1.97544e-20)
(1.19318 0.460848 -4.61928e-20)
(1.1755 0.41678 -1.40123e-20)
(1.1606 0.377456 -8.74618e-22)
(1.14675 0.344618 7.36384e-21)
(0.346257 0.174903 -1.74518e-20)
(0.804551 0.42667 4.40175e-20)
(1.06364 0.56049 4.24226e-20)
(1.17108 0.592071 -3.94967e-20)
(1.19396 0.566692 6.01967e-21)
(1.18404 0.520456 4.84441e-20)
(1.16698 0.471553 -1.12947e-20)
(1.15163 0.425473 9.5217e-21)
(1.13875 0.384718 -5.00112e-21)
(1.12708 0.350425 -6.80706e-21)
(0.348705 0.192389 -3.91981e-20)
(0.797098 0.456661 -6.94573e-20)
(1.044 0.588053 -1.36832e-20)
(1.14296 0.613193 2.2581e-20)
(1.16317 0.582179 2.26744e-20)
(1.15425 0.532111 -4.85273e-20)
(1.1396 0.48069 2.72339e-20)
(1.1268 0.432806 -1.52224e-20)
(1.11611 0.390737 1.28858e-20)
(1.1068 0.355093 1.80736e-22)
(0.348671 0.209327 2.98937e-20)
(0.78523 0.484506 2.09134e-21)
(1.02013 0.612871 -6.66667e-21)
(1.11154 0.631581 -2.82079e-20)
(1.13026 0.595281 1.88809e-20)
(1.12302 0.541795 3.80495e-21)
(1.11116 0.488143 -1.63089e-20)
(1.10112 0.438679 2.28946e-21)
(1.09275 0.395418 -3.92739e-21)
(1.08598 0.35855 2.85884e-21)
(0.346211 0.22546 -8.20371e-21)
(0.769255 0.509886 -1.15636e-20)
(0.992104 0.634536 2.95253e-20)
(1.07736 0.647148 1.38589e-20)
(1.09554 0.605843 -1.93536e-20)
(1.09054 0.549374 2.89875e-20)
(1.08179 0.493805 1.80989e-21)
(1.07469 0.442997 1.75661e-21)
(1.06877 0.398665 -2.31614e-21)
(1.06473 0.360707 -1.95801e-22)
(0.341406 0.240505 5.33035e-20)
(0.749367 0.532626 4.1276e-20)
(0.960318 0.652779 -2.68249e-21)
(1.04085 0.659577 -6.71628e-21)
(1.05925 0.613816 -8.02256e-21)
(1.05699 0.554747 -4.11759e-21)
(1.05165 0.497577 1.54539e-21)
(1.04762 0.445682 2.31165e-21)
(1.04427 0.400386 2.67727e-21)
(1.04311 0.361464 -9.33333e-22)
(0.334308 0.254149 4.60497e-21)
(0.72572 0.552309 7.27629e-21)
(0.925565 0.667641 -3.92025e-20)
(1.00229 0.668686 1.78576e-20)
(1.02163 0.619057 6.1165e-21)
(1.02257 0.557814 -1.43472e-20)
(1.02088 0.499373 4.63263e-21)
(1.02004 0.446663 1.1077e-21)
(1.01937 0.400516 -2.34628e-21)
(1.02137 0.360777 1.65014e-21)
(0.324993 0.266165 -2.01812e-20)
(0.698643 0.568493 -1.49094e-20)
(0.888262 0.678859 1.31364e-20)
(0.961996 0.674443 4.12081e-21)
(0.982952 0.62147 -6.83112e-21)
(0.987478 0.558483 7.18443e-21)
(0.989611 0.499104 1.40526e-21)
(0.992043 0.445851 -3.09433e-21)
(0.994338 0.398992 1.30868e-20)
(1.00019 0.358692 5.99463e-21)
(0.313681 0.276408 -1.57708e-20)
(0.668676 0.581016 4.07754e-20)
(0.848745 0.68622 -2.67194e-20)
(0.920314 0.67676 -3.43995e-21)
(0.943471 0.620971 -5.83648e-21)
(0.951888 0.556679 2.15278e-21)
(0.95796 0.496692 -4.50714e-21)
(0.963743 0.44311 2.52788e-21)
(0.969601 0.39561 8.12224e-22)
(0.980365 0.355252 -2.23182e-21)
(0.300576 0.28476 -8.94953e-22)
(0.636251 0.589732 -1.20046e-20)
(0.807422 0.689572 7.4705e-21)
(0.877586 0.675561 -4.7595e-21)
(0.903451 0.617505 1.97859e-21)
(0.91599 0.552359 3.59551e-21)
(0.92605 0.492096 1.01591e-20)
(0.935334 0.438342 -8.48891e-21)
(0.945522 0.389968 -1.6466e-20)
(0.961147 0.349727 7.85218e-21)
(0.285858 0.29105 7.25475e-22)
(0.601805 0.594513 -1.42381e-21)
(0.764715 0.688826 7.95563e-22)
(0.83416 0.670793 2.26664e-21)
(0.863158 0.611036 -7.37478e-21)
(0.879982 0.545497 -1.48211e-20)
(0.894073 0.485325 -4.17234e-21)
(0.907097 0.431687 -1.93401e-21)
(0.922059 0.382284 2.39975e-20)
(0.939461 0.338187 -4.5697e-21)
(0.269754 0.295146 -3.41569e-21)
(0.565771 0.595257 -4.86559e-21)
(0.721048 0.683937 1.54519e-21)
(0.790383 0.662426 1.18596e-21)
(0.822857 0.601543 -7.34557e-21)
(0.844084 0.536074 2.99565e-20)
(0.862296 0.476353 -2.18777e-20)
(0.879259 0.423248 2.6302e-20)
(0.898037 0.374611 -1.8374e-20)
(0.915084 0.332036 -2.48295e-20)
(0.252511 0.296946 6.41756e-22)
(0.528579 0.591901 -2.10976e-21)
(0.676843 0.674893 9.68944e-22)
(0.746599 0.650459 1.13745e-20)
(0.782813 0.589023 -5.407e-21)
(0.808523 0.524074 8.08282e-21)
(0.830932 0.465128 1.26497e-20)
(0.851854 0.412721 -6.6844e-21)
(0.873941 0.364638 -1.86274e-20)
(0.891995 0.322328 2.54513e-20)
(0.234383 0.296378 8.83374e-21)
(0.490656 0.584417 1.1374e-20)
(0.632513 0.661711 -1.15864e-20)
(0.703144 0.634917 -1.00156e-20)
(0.743292 0.573497 3.8085e-20)
(0.773519 0.509518 -3.88721e-20)
(0.800127 0.451707 4.72545e-20)
(0.824884 0.40036 -1.16905e-20)
(0.849965 0.353404 1.25772e-20)
(0.869718 0.312309 2.39675e-20)
(0.215631 0.293397 -2.91576e-21)
(0.452427 0.572815 -1.17275e-20)
(0.588464 0.644443 -8.07046e-21)
(0.660349 0.615849 -4.08548e-21)
(0.704558 0.555002 5.45309e-21)
(0.739294 0.49243 -1.07224e-20)
(0.770054 0.436097 -1.40683e-20)
(0.798515 0.386093 -3.13831e-20)
(0.826467 0.340513 3.12432e-20)
(0.848346 0.300836 -9.86674e-21)
(0.196514 0.287988 2.41663e-20)
(0.414312 0.557145 -3.21937e-21)
(0.545089 0.623166 -1.13437e-20)
(0.618533 0.59333 1.41533e-20)
(0.666866 0.533601 -2.50721e-20)
(0.706056 0.472863 6.81437e-20)
(0.74088 0.418353 -3.63743e-20)
(0.772914 0.370009 3.29761e-20)
(0.80367 0.326116 -6.03923e-20)
(0.827891 0.288046 -1.60701e-20)
(0.177295 0.280164 -7.06809e-21)
(0.376716 0.537488 2.56572e-20)
(0.502769 0.597989 5.84189e-21)
(0.578007 0.567459 -1.32873e-20)
(0.630468 0.509373 -2.29968e-20)
(0.674011 0.450882 -5.35106e-22)
(0.712776 0.398529 1.21239e-20)
(0.748245 0.352143 -2.99264e-20)
(0.781731 0.310194 1.45486e-20)
(0.808392 0.273876 1.90328e-21)
(0.158228 0.269961 -4.28612e-20)
(0.340034 0.513964 -1.0438e-20)
(0.461866 0.56905 -2.97702e-21)
(0.539069 0.538358 3.48006e-20)
(0.595602 0.482417 -3.24625e-20)
(0.64336 0.426571 -8.26523e-21)
(0.685914 0.376699 -5.13061e-21)
(0.724669 0.33256 9.33712e-21)
(0.760789 0.292791 -1.19773e-20)
(0.789915 0.258364 -1.85894e-20)
(0.139565 0.257446 3.84236e-20)
(0.304642 0.486722 -2.19108e-20)
(0.422729 0.536512 9.83134e-22)
(0.502001 0.50617 -5.30197e-20)
(0.562499 0.452854 5.74973e-20)
(0.614293 0.400029 -1.81455e-20)
(0.660457 0.35295 1.08517e-20)
(0.702331 0.311327 9.43217e-21)
(0.740968 0.273952 2.73271e-20)
(0.772531 0.241561 -1.13248e-20)
(0.121545 0.242708 -1.55904e-20)
(0.270899 0.455944 4.55825e-20)
(0.385685 0.500566 2.57033e-20)
(0.467071 0.47106 4.21814e-20)
(0.531377 0.420822 -9.67977e-21)
(0.586994 0.371374 3.94395e-21)
(0.636563 0.327381 3.15247e-20)
(0.68137 0.288529 7.07193e-21)
(0.722383 0.253744 6.84557e-22)
(0.756316 0.223535 -1.35758e-20)
(0.104397 0.22586 -3.6417e-20)
(0.23914 0.42184 -2.6327e-21)
(0.35104 0.461425 -1.51646e-20)
(0.434531 0.433215 -6.81314e-20)
(0.502441 0.386474 -6.57843e-20)
(0.561636 0.340737 1.09556e-20)
(0.61438 0.300106 -2.6954e-20)
(0.661913 0.26426 1.72607e-20)
(0.705141 0.232246 9.35281e-21)
(0.741344 0.204369 1.94036e-20)
(0.0883371 0.207036 5.37896e-20)
(0.209678 0.384649 -4.39937e-20)
(0.319079 0.419328 -2.2342e-20)
(0.404612 0.392837 3.94343e-20)
(0.475882 0.349983 4.4883e-20)
(0.538379 0.308262 -1.49235e-20)
(0.594047 0.271248 -1.96074e-21)
(0.644082 0.238624 -5.36484e-20)
(0.689347 0.20955 -3.02994e-20)
(0.727687 0.184155 1.15579e-20)
(0.0735627 0.186392 -3.06455e-20)
(0.182799 0.34463 1.28988e-20)
(0.29006 0.374531 4.74627e-20)
(0.377527 0.35015 -2.13367e-20)
(0.451875 0.311535 1.71902e-21)
(0.517372 0.274111 6.00632e-20)
(0.575688 0.240945 2.73025e-21)
(0.627986 0.211739 5.15147e-20)
(0.675094 0.185758 2.14473e-20)
(0.715411 0.162989 -3.40901e-20)
(0.0602556 0.164101 4.26206e-20)
(0.158762 0.30207 4.7482e-21)
(0.264217 0.327311 3.11143e-21)
(0.353468 0.305389 4.33555e-20)
(0.430579 0.27133 -5.75314e-21)
(0.498748 0.238453 -3.77303e-20)
(0.559421 0.209345 1.84554e-20)
(0.613725 0.183732 -2.95072e-20)
(0.662471 0.16098 -1.23046e-20)
(0.704577 0.140977 1.24173e-20)
(0.0485772 0.140353 -2.65726e-20)
(0.137796 0.257272 -5.10789e-20)
(0.241757 0.277963 1.18127e-20)
(0.332606 0.258808 -2.30979e-20)
(0.412134 0.229581 -1.39115e-20)
(0.482628 0.201472 3.37313e-20)
(0.545348 0.176603 -8.15749e-21)
(0.601389 0.154737 7.49518e-21)
(0.651555 0.135336 -9.13079e-21)
(0.695241 0.118227 1.81481e-20)
(0.0386684 0.115353 9.64753e-21)
(0.120099 0.210557 3.44339e-20)
(0.22286 0.226795 -4.78284e-20)
(0.315087 0.21067 2.25706e-20)
(0.396661 0.186512 -1.02848e-20)
(0.469115 0.163357 -2.89116e-20)
(0.533557 0.142886 2.35996e-20)
(0.591057 0.124897 4.92822e-21)
(0.642416 0.108952 -7.61544e-22)
(0.687449 0.0948513 -2.10936e-20)
(0.0306478 0.0893175 3.16424e-21)
(0.105838 0.162263 1.11141e-20)
(0.207674 0.174128 4.33085e-20)
(0.301035 0.161251 -8.3061e-21)
(0.384265 0.142355 -6.54284e-21)
(0.458297 0.12431 2.4138e-21)
(0.524124 0.108366 1.08747e-21)
(0.582796 0.0943621 8.80718e-21)
(0.635112 0.0819598 -1.15724e-20)
(0.681242 0.0709678 -7.35436e-21)
(0.0246107 0.0624733 -7.90186e-21)
(0.0951474 0.112738 -1.35266e-20)
(0.19632 0.120294 -3.36975e-20)
(0.290549 0.110833 1.69521e-20)
(0.375026 0.0973513 1.38131e-20)
(0.450243 0.0845369 5.87459e-22)
(0.517109 0.07322 -2.30599e-20)
(0.576659 0.0632847 -1.02414e-20)
(0.629693 0.0544924 8.10327e-21)
(0.676653 0.0466855 8.67629e-21)
(0.0206289 0.0350554 1.37468e-21)
(0.0881261 0.0623408 -2.83495e-21)
(0.188889 0.0656318 6.39856e-21)
(0.283703 0.0597075 -4.33009e-21)
(0.369007 0.0517473 -3.81975e-21)
(0.445005 0.0442488 -2.58884e-21)
(0.512558 0.037631 4.74879e-21)
(0.572686 0.0318228 1.80878e-20)
(0.626191 0.0266842 2.61707e-21)
(0.673701 0.0221007 -4.63658e-21)
(0.0187492 0.00730445 1.69976e-21)
(0.0848402 0.0114355 -4.6748e-21)
(0.185438 0.0104882 -5.29705e-21)
(0.280546 0.00816975 -3.67388e-21)
(0.366247 0.00579364 3.49644e-21)
(0.44262 0.00366143 1.57691e-21)
(0.5105 0.00178581 -1.57045e-21)
(0.570902 0.000142384 -7.15346e-21)
(0.624621 -0.00130559 2.35461e-21)
(0.67236 -0.00259272 -2.20124e-21)
(0.0189936 -0.0205357 -1.69654e-21)
(0.0853205 -0.0396086 4.66702e-21)
(0.185997 -0.0447884 5.29069e-21)
(0.281101 -0.0434822 -5.0637e-21)
(0.366768 -0.0402566 4.45724e-21)
(0.443103 -0.0370079 2.23146e-21)
(0.510951 -0.0341287 -3.56218e-21)
(0.571327 -0.0315964 -4.14053e-21)
(0.625027 -0.029343 6.10895e-22)
(0.672763 -0.0273114 -1.72297e-21)
(0.0213591 -0.0482204 1.86038e-21)
(0.0895631 -0.0904214 -5.55972e-21)
(0.190561 -0.0998481 1.24473e-20)
(0.285365 -0.0949493 -1.09296e-20)
(0.370565 -0.0861495 -5.16803e-22)
(0.446453 -0.0775416 -7.26849e-21)
(0.513908 -0.069926 1.18117e-20)
(0.573954 -0.0632349 1.60612e-20)
(0.627383 -0.0573008 2.87212e-21)
(0.674816 -0.0520042 -6.18348e-21)
(0.0258173 -0.0755062 -1.59204e-21)
(0.097529 -0.140634 -1.17382e-20)
(0.199096 -0.154342 -2.7311e-20)
(0.29331 -0.145934 2.36396e-20)
(0.377616 -0.131632 4.87367e-21)
(0.452648 -0.117722 4.31323e-21)
(0.519354 -0.105418 -2.12495e-20)
(0.578767 -0.0946078 -1.25279e-20)
(0.631676 -0.0850241 -2.78582e-21)
(0.678512 -0.0764949 1.91025e-20)
(0.0323151 -0.102153 -5.61032e-21)
(0.109145 -0.189884 7.06673e-21)
(0.211535 -0.207927 4.94668e-20)
(0.304881 -0.196141 -4.44588e-21)
(0.387875 -0.176455 -1.27119e-20)
(0.461651 -0.157336 9.12427e-21)
(0.527256 -0.14042 6.26655e-22)
(0.585738 -0.125554 3.21882e-21)
(0.637882 -0.112371 -7.04572e-21)
(0.683845 -0.100664 -1.86314e-20)
(0.0407748 -0.127929 -3.78339e-21)
(0.124302 -0.237813 2.05908e-20)
(0.227783 -0.260263 -4.97599e-20)
(0.319999 -0.245282 2.1561e-20)
(0.401276 -0.220373 2.04234e-22)
(0.473405 -0.196171 -2.73733e-20)
(0.537564 -0.17475 1.20985e-20)
(0.594824 -0.155917 -1.12595e-21)
(0.645963 -0.139207 4.59506e-21)
(0.690788 -0.124403 -1.38716e-21)
(0.0510949 -0.152607 -4.3295e-20)
(0.14286 -0.284074 -5.17854e-20)
(0.247712 -0.31102 1.35951e-20)
(0.338558 -0.293075 -2.46988e-20)
(0.417732 -0.263146 -6.98312e-21)
(0.487835 -0.234024 1.04302e-20)
(0.550215 -0.208232 3.87095e-21)
(0.605967 -0.185543 1.43885e-20)
(0.65587 -0.165395 -3.09973e-21)
(0.699309 -0.147598 1.66939e-20)
(0.0631509 -0.175974 4.1401e-20)
(0.164644 -0.328335 2.6622e-20)
(0.271165 -0.35988 -2.01321e-20)
(0.360431 -0.339246 3.39321e-20)
(0.437136 -0.304544 -2.89744e-21)
(0.504852 -0.270695 -3.67713e-20)
(0.565131 -0.240694 6.45295e-21)
(0.619098 -0.214285 -3.91348e-20)
(0.66754 -0.190808 1.50762e-21)
(0.709364 -0.170132 1.42203e-20)
(0.0767962 -0.197827 -3.06595e-20)
(0.189448 -0.370275 5.49603e-20)
(0.297957 -0.406536 2.15816e-20)
(0.385464 -0.383534 -2.6768e-20)
(0.459362 -0.344345 2.44411e-22)
(0.524348 -0.305997 6.7752e-20)
(0.582219 -0.271975 3.08488e-21)
(0.634137 -0.242001 3.01005e-20)
(0.680903 -0.21532 3.6678e-20)
(0.720905 -0.191896 -2.05728e-20)
(0.0918636 -0.21798 1.71769e-20)
(0.217034 -0.409594 -8.23823e-21)
(0.327874 -0.450697 -1.953e-20)