/*--------------------------------*- C++ -*----------------------------------*\
  =========                 |
  \\      /  F ield         | OpenFOAM: The Open Source CFD Toolbox
   \\    /   O peration     | Website:  https://openfoam.org
    \\  /    A nd           | Version:  7
     \\/     M anipulation  |
\*---------------------------------------------------------------------------*/
FoamFile
{
    version     2.0;
    format      ascii;
    class       surfaceScalarField;
    location    "15";
    object      phi;
}
// * * * * * * * * * * * * * * * * * * * * * * * * * * * * * * * * * * * * * //

dimensions      [0 3 -1 0 0 0 0];

internalField   nonuniform List<scalar> 
16735
(
-7.79125e-05
7.79119e-05
5.92683e-10
-0.000277287
0.000199373
1.55683e-09
-0.000578699
0.000301409
2.40569e-09
-0.000963899
0.000385197
3.15527e-09
-0.00141732
0.00045342
3.82029e-09
-0.00192796
0.000510635
4.44318e-09
-0.00249166
0.00056369
5.07475e-09
-0.00311415
0.000622487
5.75731e-09
-0.00381353
0.000699369
6.52385e-09
0.000810058
7.38791e-09
-0.00462359
-7.68016e-05
0.000154714
-0.000273493
0.000396064
-0.000570764
0.00059868
-0.000950234
0.000764668
-0.00139593
0.000899111
-0.00189606
0.00101077
-0.00244528
0.00111291
-0.00304778
0.00122499
-0.00372009
0.00137167
0.00158418
-0.00449421
-7.46391e-05
0.000229353
-0.000266084
0.00058751
-0.000555237
0.000887832
-0.000923461
0.00113289
-0.00135397
0.00132962
-0.00183349
0.00149028
-0.00235429
0.00163371
-0.00291751
0.00178821
-0.0035365
0.00199067
0.00228728
-0.0042396
-7.15384e-05
0.000300891
-0.000255402
0.000771373
-0.000532772
0.0011652
-0.000884639
0.00148476
-0.00129307
0.00173806
-0.00174262
0.00193983
-0.00222212
0.00211321
-0.00272805
0.00229415
-0.00326908
0.00253169
0.00288583
-0.00386763
-6.76567e-05
0.000368548
-0.00024192
0.000945637
-0.000504271
0.00142755
-0.000835226
0.00181572
-0.00121543
0.00211826
-0.0016267
0.00235111
-0.00205343
0.00253993
-0.00248595
0.00272667
-0.00292659
0.00297233
0.00334829
-0.00338905
-6.3181e-05
0.000431729
-0.000226199
0.00110866
-0.000470798
0.00167215
-0.000776924
0.00212184
-0.00112359
0.00246493
-0.00148949
0.00271701
-0.00185372
0.00290416
-0.0021989
0.00307185
-0.00251939
0.00329283
0.00364526
-0.00281636
-5.83121e-05
0.000490041
-0.000208838
0.00125918
-0.000433474
0.00189679
-0.000711495
0.00239986
-0.00102017
0.0027736
-0.00133478
0.00303162
-0.0016285
0.00319787
-0.00187475
0.0033181
-0.00205816
0.00347623
0.00374973
-0.00216262
-5.32474e-05
0.000543288
-0.000190418
0.00139635
-0.000393358
0.00209973
-0.000640554
0.00264706
-0.000907439
0.00304049
-0.00116581
0.00328999
-0.0013825
0.00341456
-0.00152026
0.00345586
-0.00155209
0.00350807
0.00363798
-0.00144034
-4.81654e-05
0.000591454
-0.000171449
0.00151963
-0.000351343
0.00227962
-0.000565354
0.00286107
-0.000787016
0.00326215
-0.000984606
0.00348758
-0.00111848
0.00354843
-0.00113925
0.00347663
-0.00100547
0.00337429
0.00329524
-0.000662727
-4.32132e-05
0.000634667
-0.000152331
0.00162875
-0.000308053
0.00243534
-0.000486606
0.00303962
-0.000659472
0.00343501
-0.00079138
0.00361949
-0.000836265
0.00359332
-0.00073115
0.00337151
-0.00040829
0.00305143
0.00272395
0.000163002
-3.84984e-05
0.000673165
-0.000133321
0.00172358
-0.000263777
0.0025658
-0.00040434
0.00318019
-0.000524083
0.00355476
-0.000583984
0.00367939
-0.0005317
0.00354104
-0.000292643
0.00313246
0.000244523
0.00251426
0.00183619
0.00113229
-3.40851e-05
0.00070725
-0.000114517
0.00180401
-0.000218436
0.00266972
-0.000317834
0.00327958
-0.00037868
0.0036156
-0.000357578
0.00365829
-0.00019517
0.00337863
0.000191926
0.00274536
0.000943309
0.00176288
0.000588703
0.00219079
-2.99942e-05
0.000737245
-9.58553e-05
0.00186987
-0.000171579
0.00274544
-0.000225632
0.00333364
-0.000219687
0.00360966
-0.000104736
0.00354334
0.000187021
0.00308687
0.000754987
0.0021774
0.00176002
0.00075785
-0.00104534
0.00339407
-2.62048e-05
0.000763449
-7.7117e-05
0.00192078
-0.000122407
0.00279073
-0.000125625
0.00333686
-4.23709e-05
0.0035264
0.000184223
0.00331675
0.000631992
0.0026391
0.00141481
0.00139458
0.002733
-0.00056034
-0.00310392
0.00479158
-2.26539e-05
0.000786103
-5.79255e-05
0.00195605
-6.97909e-05
0.0028026
-1.51009e-05
0.00328217
0.000158934
0.00335237
0.0005203
0.00295538
0.00116067
0.00199873
0.00220817
0.000347071
0.00391517
-0.00226734
-0.00562129
0.00643254
-1.92321e-05
0.000805335
-3.77348e-05
0.00197456
-1.2189e-05
0.00277705
0.000109031
0.00316094
0.000390451
0.00307095
0.000915042
0.00243079
0.00179321
0.00112057
0.00316854
-0.00102826
0.00535598
-0.00445478
-0.00861474
0.00834943
-1.57746e-05
0.00082111
-1.57646e-05
0.00197455
5.19707e-05
0.00270932
0.000250531
0.00296238
0.000658975
0.00266251
0.00138
0.00170976
0.00254821
-4.76339e-05
0.00432458
-0.00280463
0.00708391
-0.00721411
-0.0120694
0.0105386
-1.20634e-05
0.000833173
8.88095e-06
0.0019536
0.000125161
0.00259304
0.000413728
0.00267382
0.000971884
0.00210435
0.00192659
0.000755053
0.00344141
-0.00156245
0.00569933
-0.00506255
0.00909133
-0.0106061
-0.015929
0.012951
-7.85408e-06
0.000841028
3.70976e-05
0.00190865
0.000210069
0.00242006
0.000603682
0.0022802
0.00133721
0.00137082
0.00256585
-0.000473588
0.00448474
-0.00348134
0.00731037
-0.00788818
0.0113351
-0.0146308
-0.0201019
0.0155079
-2.52297e-06
0.00084355
7.08902e-05
0.00183524
0.000310015
0.00218094
0.000826147
0.00176407
0.00176338
0.000433589
0.0033073
-0.00201751
0.00568173
-0.00585577
0.00914581
-0.0113523
0.013777
-0.019262
-0.0244593
0.0181344
4.41682e-06
0.000839134
0.000111799
0.00172785
0.000428673
0.00186407
0.00108733
0.00110541
0.00225866
-0.00073774
0.00415749
-0.00391633
0.00702323
-0.00872151
0.0111142
-0.0154432
0.0162525
-0.0244003
-0.0321659
0.023959
1.31208e-05
0.000826013
0.000161618
0.00157936
0.000569887
0.0014558
0.00139341
0.000281885
0.00283022
-0.00217455
0.00511846
-0.00620457
0.00849193
-0.012095
0.013132
-0.0200833
0.0187341
-0.0300023
-0.0395197
0.0260879
2.44533e-05
0.00080156
0.000222205
0.00138161
0.000737308
0.000940693
0.00174966
-0.00073047
0.00348237
-0.00390726
0.00618448
-0.00890668
0.0100543
-0.0159648
0.0151252
-0.0251542
0.0210108
-0.0358879
-0.0463949
0.0278861
3.88735e-05
0.000762686
0.000295206
0.00112527
0.000933945
0.000301954
0.00215944
-0.00195597
0.0042143
-0.00596211
0.00733808
-0.0120305
0.0116535
-0.0202802
0.0170131
-0.0305138
0.0229198
-0.0417947
-0.0526963
0.0292212
5.68076e-05
0.000705878
0.000381911
0.00080017
0.00116171
-0.00047785
0.00262316
-0.00341742
0.00501795
-0.00835691
0.0085474
-0.0155599
0.0132144
-0.0249472
0.0186853
-0.0359847
0.0243804
-0.0474898
-0.0583292
0.0300133
7.85852e-05
0.000627293
0.000483125
0.00039563
0.00142108
-0.00141581
0.00313744
-0.00513378
0.00587661
-0.0110961
0.00976622
-0.0194495
0.0146543
-0.0298353
0.0200493
-0.0413797
0.0253538
-0.0527943
-0.0632544
0.0302789
0.000104419
0.000522874
0.000599097
-9.90478e-05
0.00171081
-0.00252752
0.00369458
-0.00711755
0.00676463
-0.0141661
0.0109381
-0.0236229
0.015896
-0.0347933
0.0210475
-0.0465311
0.0258486
-0.0575954
-0.0674915
0.0300857
0.000134399
0.000388475
0.00072945
-0.000694099
0.00202775
-0.00382582
0.00428225
-0.00937204
0.00764866
-0.0175325
0.0120038
-0.0279781
0.0168803
-0.0396698
0.0216607
-0.0513115
0.0259083
-0.061843
-0.0710959
0.0295127
0.000168489
0.000219987
0.000873145
-0.00139876
0.00236676
-0.00531943
0.00488365
-0.0118889
0.0084905
-0.0211394
0.0129104
-0.032398
0.0175731
-0.0443324
0.0219023
-0.0556407
0.0255942
-0.0655349
-0.074142
0.0286403
0.000206514
1.34726e-05
0.00102844
-0.00222068
0.00272063
-0.00701163
0.00547818
-0.0146465
0.00925136
-0.0249126
0.0136184
-0.0367651
0.0179654
-0.0486794
0.021807
-0.0594822
0.0249731
-0.068701
-0.0767087
0.0275397
0.000248149
-0.000234677
0.00119285
-0.00316538
0.00308019
-0.00889897
0.00604282
-0.0176091
0.00989659
-0.0287663
0.014105
-0.0409735
0.0180694
-0.0526439
0.021421
-0.0628338
0.0241091
-0.0713891
-0.0788697
0.0262701
0.000292926
-0.000527603
0.00136315
-0.0042356
0.00343457
-0.0109704
0.00655419
-0.0207287
0.0103997
-0.0326118
0.0143644
-0.0449382
0.0179112
-0.0561907
0.020794
-0.0657166
0.0230586
-0.0736537
-0.0806893
0.0248783
0.000340183
-0.000867786
0.00153541
-0.00543082
0.00377178
-0.0132068
0.0069909
-0.0239479
0.0107444
-0.0363653
0.0144042
-0.0485979
0.0175243
-0.0593109
0.0199735
-0.0681657
0.0218688
-0.0755491
-0.0822205
0.0234001
0.000389084
-0.00125687
0.0017051
-0.00674683
0.00407952
-0.0155812
0.00733565
-0.027204
0.010925
-0.0399547
0.014242
-0.0519149
0.0169452
-0.0620141
0.019002
-0.0702226
0.0205778
-0.0771248
-0.083505
0.0218622
0.000438631
-0.0016955
0.00186727
-0.00817547
0.00434613
-0.0180601
0.00757668
-0.0304345
0.0109448
-0.0433228
0.0139009
-0.054871
0.016209
-0.0643222
0.0179163
-0.0719299
0.0192151
-0.0784236
-0.0845744
0.0202844
0.000487681
-0.00218318
0.0020168
-0.00970459
0.00456157
-0.0206048
0.00770819
-0.0335811
0.0108139
-0.0464285
0.0134067
-0.0574638
0.0153484
-0.0662639
0.0167463
-0.0733278
0.0178034
-0.0794808
-0.0854519
0.018681
0.000534992
-0.00271817
0.0021487
-0.0113183
0.00471817
-0.0231743
0.00772999
-0.036593
0.0105468
-0.0492453
0.012785
-0.059702
0.0143917
-0.0678706
0.0155163
-0.0744523
0.0163599
-0.0803244
-0.0861544
0.0170624
0.000579276
-0.00329745
0.00225842
-0.0129974
0.00481107
-0.0257269
0.00764651
-0.0394284
0.0101607
-0.0517595
0.0120602
-0.0616015
0.0133633
-0.0691737
0.0142456
-0.0753346
0.0148974
-0.0809763
-0.0866933
0.0154364
0.000619255
-0.0039167
0.00234216
-0.0147204
0.00483834
-0.0282231
0.00746555
-0.0420556
0.00967318
-0.0539671
0.0112542
-0.0631825
0.0122833
-0.0702028
0.012949
-0.0760003
0.0134255
-0.0814527
-0.0870769
0.013809
0.000653723
-0.00457043
0.00239705
-0.0164637
0.00480073
-0.0306268
0.00719711
-0.044452
0.00910177
-0.0558718
0.0103864
-0.0644672
0.011168
-0.0709844
0.0116381
-0.0764704
0.0119513
-0.0817659
-0.0873107
0.0121851
0.000681605
-0.00525203
0.00242131
-0.0182034
0.00470122
-0.0329067
0.00685232
-0.0466031
0.00846278
-0.0574823
0.00947328
-0.0654777
0.0100308
-0.0715419
0.0103217
-0.0767614
0.0104804
-0.0819246
-0.0873986
0.0105683
0.000702
-0.00595403
0.00241426
-0.0199157
0.00454445
-0.0350369
0.00644265
-0.0485013
0.00777104
-0.0588107
0.0085288
-0.0662354
0.008882
-0.0718951
0.0090067
-0.0768861
0.00901705
-0.0819349
-0.0873429
0.0089614
0.000714216
-0.00666825
0.00237625
-0.0215777
0.0043362
-0.0369968
0.0059793
-0.0501444
0.00703965
-0.059871
0.00756447
-0.0667602
0.00772996
-0.0720606
0.00769822
-0.0768543
0.00756463
-0.0818013
-0.087145
0.0073667
0.000717789
-0.00738604
0.00230851
-0.0231684
0.00408284
-0.0387712
0.00547282
-0.0515344
0.00628001
-0.0606782
0.00658979
-0.06707
0.00658118
-0.072052
0.00640028
-0.0766734
0.00612576
-0.0815268
-0.0868053
0.00578606
0.000712484
-0.00809852
0.002213
-0.0246689
0.00379095
-0.0403491
0.00493286
-0.0526763
0.00550187
-0.0612472
0.0056125
-0.0671806
0.00544089
-0.0718804
0.0051161
-0.0763487
0.0047024
-0.0811131
-0.0863236
0.0042207
0.000698288
-0.00879681
0.00209218
-0.0260628
0.00346703
-0.041724
0.00436808
-0.0535773
0.00471347
-0.0615926
0.00463893
-0.0671061
0.00431348
-0.071555
0.00384898
-0.0758842
0.00329621
-0.0805603
-0.0856978
0.00267037
0.000675399
-0.00947221
0.00194883
-0.0273362
0.00311725
-0.0428924
0.00378609
-0.0542462
0.00392168
-0.0617282
0.00367413
-0.0668586
0.00320259
-0.0710834
0.00260304
-0.0752846
0.00190993
-0.0798672
-0.0849174
0.00112951
0.000644225
-0.0101164
0.00178607
-0.0284781
0.00274738
-0.0438537
0.00319351
-0.0546923
0.00313214
-0.0616668
0.00272202
-0.0664484
0.00211091
-0.0704723
0.00138093
-0.0745546
0.000556031
-0.0790423
-0.0839645
-0.000396824
0.000605351
-0.0107218
0.00160711
-0.0294798
0.00236272
-0.0446093
0.00259606
-0.0549256
0.00234953
-0.0614203
0.00178572
-0.0658846
0.00104079
-0.0697274
0.000173175
-0.073687
-0.000777324
-0.0780918
-0.0829073
-0.00183456
0.000559487
-0.0112813
0.00141495
-0.0303353
0.00196806
-0.0451624
0.00199862
-0.0549562
0.00157768
-0.0609993
0.000867783
-0.0651747
-1.69377e-05
-0.0688427
-0.000994217
-0.0727097
-0.00208687
-0.0769992
-0.0817283
-0.00326586
0.000507441
-0.0117887
0.00121247
-0.0310403
0.00156773
-0.0455177
0.00140523
-0.0547937
0.000819395
-0.0604135
-3.29843e-05
-0.0643224
-0.00102754
-0.0678481
-0.00213962
-0.0715977
-0.00336114
-0.0757776
-0.080417
-0.00467239
0.000450121
-0.0122388
0.00100245
-0.0315927
0.00116549
-0.0456807
0.000819196
-0.0544474
7.80908e-05
-0.0596724
-0.000900638
-0.0633436
-0.00202313
-0.0667256
-0.00325743
-0.0703634
-0.00460458
-0.0744305
-0.0789738
-0.00604777
0.000388528
-0.0126274
0.000787772
-0.0319919
0.000764191
-0.0456572
0.000245078
-0.0539283
-0.000643675
-0.0587837
-0.00175045
-0.0622369
-0.00299214
-0.0654839
-0.00434563
-0.0690099
-0.00581663
-0.0729595
-0.0774009
-0.00738953
0.000323589
-0.0129509
0.000571511
-0.0322398
0.000367273
-0.0454529
-0.000318127
-0.0532429
-0.0013465
-0.0577553
-0.00257599
-0.0610074
-0.00393332
-0.0641266
-0.0054033
-0.0675399
-0.00699604
-0.0713668
-0.0757025
-0.0086945
0.000256098
-0.013207
0.000355609
-0.0323393
-1.13653e-06
-0.0450962
-0.000864196
-0.0523798
-0.00202921
-0.0565903
-0.00337639
-0.0596602
-0.00484601
-0.062657
-0.00642976
-0.0659561
-0.00814139
-0.0696551
-0.0738849
-0.00995893
0.000187575
-0.0133946
0.000142116
-0.0322939
-0.000411702
-0.0445424
-0.00140046
-0.0513911
-0.00269007
-0.0553007
-0.0041507
-0.0581995
-0.00572951
-0.0610782
-0.00742429
-0.0642614
-0.00925142
-0.067828
-0.0719533
-0.011183
0.000116629
-0.0135113
-6.72075e-05
-0.03211
-0.000787057
-0.0438225
-0.0019198
-0.0502583
-0.00332842
-0.053892
-0.00489821
-0.0566298
-0.00658339
-0.059393
-0.00838639
-0.0624584
-0.0103262
-0.0658882
-0.0699052
-0.0123744
4.0577e-05
-0.0135518
-0.000297214
-0.0317723
-0.00115313
-0.0429666
-0.00242028
-0.0489912
-0.00394357
-0.0523688
-0.00561866
-0.0549547
-0.007408
-0.0576036
-0.00931712
-0.0605492
-0.0113648
-0.0638405
-0.06774
-0.01353
-3.46073e-05
-0.0135172
-0.000511127
-0.0312957
-0.00150797
-0.0419698
-0.00290136
-0.0475978
-0.00453436
-0.0507358
-0.00631148
-0.0531776
-0.00820396
-0.0557112
-0.0102198
-0.0585334
-0.012362
-0.0616983
-0.0654729
-0.0146292
-0.00010572
-0.0134115
-0.00071669
-0.0306848
-0.0018499
-0.0408366
-0.00336267
-0.046085
-0.00510007
-0.0489984
-0.00697565
-0.051302
-0.00896927
-0.0537175
-0.0110929
-0.0564097
-0.0133567
-0.0594345
-0.0632429
-0.0155867
-0.000177205
-0.0132343
-0.000915073
-0.0299469
-0.00217797
-0.0395737
-0.00380364
-0.0444593
-0.0056402
-0.0471618
-0.00761013
-0.0493321
-0.00969913
-0.0516285
-0.0119081
-0.0542007
-0.0142024
-0.0571403
-0.060513
-0.0169322
-0.000247318
-0.012987
-0.00110617
-0.029088
-0.00249159
-0.0381882
-0.00422382
-0.0427271
-0.00615456
-0.045231
-0.00821433
-0.0472723
-0.0103903
-0.0494526
-0.0126786
-0.0519124
-0.0150963
-0.0547225
-0.0577984
-0.017811
-0.000315469
-0.0126715
-0.00128953
-0.028114
-0.00279028
-0.0366875
-0.00462284
-0.0408945
-0.00664284
-0.0432111
-0.00878814
-0.045127
-0.0110491
-0.0471916
-0.0134303
-0.0495312
-0.0159652
-0.0521876
-0.0550548
-0.0187088
-0.000381281
-0.0122902
-0.00146462
-0.0270306
-0.00307365
-0.0350785
-0.00500041
-0.0389678
-0.00710462
-0.0411068
-0.00933077
-0.0429008
-0.0116725
-0.0448498
-0.0141398
-0.0470639
-0.0167629
-0.0495646
-0.0522561
-0.0195616
-0.000444446
-0.0118458
-0.00163099
-0.0258441
-0.00334137
-0.0333681
-0.00535629
-0.0369529
-0.00753978
-0.0389234
-0.00984248
-0.0405981
-0.0122616
-0.0424307
-0.0148102
-0.0445153
-0.0175127
-0.0468621
-0.0493918
-0.0203769
-0.000504697
-0.0113411
-0.00178825
-0.0245605
-0.00359315
-0.0315632
-0.00569032
-0.0348557
-0.00794814
-0.0366655
-0.010323
-0.0382233
-0.0128152
-0.0399385
-0.0154391
-0.0418915
-0.0182152
-0.0440861
-0.0464582
-0.0211488
-0.000561795
-0.0107793
-0.00193606
-0.0231863
-0.00382875
-0.0296705
-0.00600237
-0.0326821
-0.00832963
-0.0343383
-0.0107722
-0.0357807
-0.0133331
-0.0373776
-0.0160271
-0.0391974
-0.0188727
-0.0412405
-0.0434554
-0.0218755
-0.00061553
-0.0101638
-0.00207414
-0.0217277
-0.004048
-0.0276966
-0.00629233
-0.0304377
-0.00868416
-0.0319464
-0.0111899
-0.0332749
-0.0138149
-0.0347527
-0.0165742
-0.0364381
-0.0194853
-0.0383295
-0.0403855
-0.0225551
-0.000665719
-0.00949804
-0.00220225
-0.0201911
-0.00425074
-0.0256481
-0.00656014
-0.0281284
-0.00901164
-0.0294949
-0.0115761
-0.0307105
-0.0142604
-0.0320684
-0.0170803
-0.0336182
-0.0200528
-0.035357
-0.0372521
-0.0231862
-0.000712202
-0.00878584
-0.00232021
-0.0185831
-0.00443685
-0.0235315
-0.00680574
-0.0257595
-0.00931203
-0.0269886
-0.0119304
-0.0280921
-0.0146695
-0.0293293
-0.0175452
-0.0307424
-0.0205747
-0.0323275
-0.0340592
-0.0237676
-0.000754839
-0.008031
-0.00242785
-0.0169101
-0.00460625
-0.0213531
-0.00702909
-0.0233366
-0.00958526
-0.0244325
-0.0122529
-0.0254245
-0.0150419
-0.0265403
-0.0179688
-0.0278155
-0.0210506
-0.0292457
-0.0308115
-0.0242983
-0.000793511
-0.00723749
-0.00252504
-0.0151786
-0.00475885
-0.0191193
-0.00723016
-0.0208653
-0.00983129
-0.0218313
-0.0125434
-0.0227124
-0.0153776
-0.0237061
-0.0183508
-0.0248423
-0.02148
-0.0261165
-0.0275141
-0.0247774
-0.000828117
-0.00640937
-0.00261166
-0.013395
-0.0048946
-0.0168363
-0.00740892
-0.018351
-0.0100501
-0.0191902
-0.0128019
-0.0199606
-0.0156764
-0.0208316
-0.0186908
-0.0218279
-0.0218624
-0.0229449
-0.0241722
-0.0252042
-0.000858571
-0.0055508
-0.00268763
-0.011566
-0.00501345
-0.0145105
-0.00756537
-0.0157991
-0.0102416
-0.016514
-0.0130282
-0.017174
-0.0159381
-0.0179216
-0.0189888
-0.0187772
-0.0221975
-0.0197362
-0.0207914
-0.0255783
-0.0008848
-0.004666
-0.00275287
-0.00969791
-0.00511539
-0.012148
-0.00769948
-0.013215
-0.0104058
-0.0138077
-0.0132223
-0.0143575
-0.0161626
-0.0149813
-0.0192444
-0.0156954
-0.022485
-0.0164956
-0.0173771
-0.0258993
-0.000906745
-0.00375926
-0.00280732
-0.00779733
-0.00520037
-0.00975496
-0.00781125
-0.0106041
-0.0105426
-0.0110763
-0.0133841
-0.011516
-0.0163498
-0.0120156
-0.0194577
-0.0125876
-0.0227249
-0.0132284
-0.013935
-0.026167
-0.000924356
-0.0028349
-0.00285094
-0.00587075
-0.00526837
-0.00733753
-0.00790067
-0.0079718
-0.0106521
-0.0083248
-0.0135136
-0.00865454
-0.0164997
-0.00902953
-0.0196283
-0.00945893
-0.0229168
-0.00993988
-0.0104707
-0.0263812
-0.000937597
-0.0018973
-0.00288368
-0.00392467
-0.00531938
-0.00490183
-0.00796773
-0.00532345
-0.0107343
-0.00555824
-0.0136108
-0.00577804
-0.0166121
-0.00602818
-0.0197564
-0.00631464
-0.0230609
-0.00663544
-0.00698969
-0.0265419
-0.000946439
-0.000950864
-0.00290552
-0.00196558
-0.0053534
-0.00245396
-0.00801245
-0.0026644
-0.0107891
-0.00278164
-0.0136756
-0.00289153
-0.0166871
-0.00301664
-0.0198418
-0.00315993
-0.0231569
-0.00332038
-0.00349761
-0.026649
-0.000950865
2.04786e-10
-0.00291645
4.34971e-10
-0.0053704
5.85989e-10
-0.0080348
6.81682e-10
-0.0108164
7.16394e-10
-0.013708
7.33196e-10
-0.0167246
7.48166e-10
-0.0198845
7.64549e-10
-0.0232049
7.81535e-10
7.97963e-10
-0.0267025
-0.000950865
0.000950865
-0.00291645
0.00196558
-0.0053704
0.00245396
-0.0080348
0.0026644
-0.0108164
0.00278164
-0.013708
0.00289153
-0.0167246
0.00301664
-0.0198845
0.00315993
-0.0232049
0.00332038
0.00349761
-0.0267025
-0.000946439
0.0018973
-0.00290552
0.00392467
-0.0053534
0.00490183
-0.00801245
0.00532345
-0.0107891
0.00555824
-0.0136756
0.00577805
-0.0166871
0.00602818
-0.0198418
0.00631464
-0.0231569
0.00663544
0.00698969
-0.026649
-0.000937597
0.0028349
-0.00288368
0.00587075
-0.00531938
0.00733753
-0.00796773
0.0079718
-0.0107343
0.0083248
-0.0136108
0.00865454
-0.0166121
0.00902953
-0.0197564
0.00945893
-0.0230609
0.00993988
0.0104707
-0.0265419
-0.000924356
0.00375926
-0.00285094
0.00779733
-0.00526837
0.00975496
-0.00790067
0.0106041
-0.0106521
0.0110763
-0.0135136
0.011516
-0.0164997
0.0120156
-0.0196283
0.0125876
-0.0229168
0.0132284
0.013935
-0.0263812
-0.000906745
0.004666
-0.00280732
0.00969791
-0.00520037
0.012148
-0.00781125
0.013215
-0.0105426
0.0138077
-0.0133841
0.0143575
-0.0163498
0.0149813
-0.0194577
0.0156954
-0.0227249
0.0164956
0.0173771
-0.026167
-0.000884801
0.0055508
-0.00275287
0.011566
-0.00511539
0.0145105
-0.00769948
0.0157991
-0.0104058
0.016514
-0.0132223
0.017174
-0.0161626
0.0179216
-0.0192444
0.0187772
-0.022485
0.0197362
0.0207914
-0.0258993
-0.000858571
0.00640937
-0.00268763
0.013395
-0.00501345
0.0168363
-0.00756537
0.018351
-0.0102416
0.0191902
-0.0130282
0.0199606
-0.0159381
0.0208316
-0.0189888
0.0218279
-0.0221975
0.0229449
0.0241722
-0.0255783
-0.000828117
0.00723749
-0.00261166
0.0151786
-0.0048946
0.0191193
-0.00740892
0.0208653
-0.0100501
0.0218313
-0.0128019
0.0227124
-0.0156764
0.0237061
-0.0186908
0.0248423
-0.0218624
0.0261165
0.0275141
-0.0252042
-0.000793511
0.008031
-0.00252504
0.0169101
-0.00475885
0.0213531
-0.00723016
0.0233366
-0.00983129
0.0244325
-0.0125434
0.0254245
-0.0153776
0.0265403
-0.0183508
0.0278155
-0.02148
0.0292457
0.0308115
-0.0247774
-0.000754839
0.00878584
-0.00242785
0.0185831
-0.00460625
0.0235315
-0.00702909
0.0257595
-0.00958526
0.0269886
-0.0122529
0.0280921
-0.0150419
0.0293293
-0.0179688
0.0307424
-0.0210506
0.0323275
0.0340592
-0.0242983
-0.000712202
0.00949804
-0.00232021
0.0201911
-0.00443685
0.0256481
-0.00680574
0.0281284
-0.00931203
0.0294949
-0.0119304
0.0307105
-0.0146695
0.0320684
-0.0175452
0.0336182
-0.0205747
0.035357
0.0372521
-0.0237676
-0.000665719
0.0101638
-0.00220225
0.0217277
-0.00425074
0.0276966
-0.00656014
0.0304377
-0.00901164
0.0319464
-0.0115761
0.0332749
-0.0142604
0.0347527
-0.0170803
0.0364381
-0.0200528
0.0383295
0.0403855
-0.0231862
-0.00061553
0.0107793
-0.00207414
0.0231863
-0.004048
0.0296705
-0.00629233
0.0326821
-0.00868416
0.0343383
-0.0111899
0.0357807
-0.0138149
0.0373776
-0.0165742
0.0391974
-0.0194853
0.0412405
0.0434554
-0.0225551
-0.000561795
0.0113411
-0.00193606
0.0245605
-0.00382875
0.0315632
-0.00600237
0.0348557
-0.00832963
0.0366655
-0.0107722
0.0382233
-0.0133331
0.0399385
-0.0160271
0.0418915
-0.0188727
0.0440861
0.0464582
-0.0218755
-0.000504697
0.0118458
-0.00178825
0.0258441
-0.00359315
0.0333681
-0.00569032
0.0369529
-0.00794814
0.0389234
-0.010323
0.0405981
-0.0128152
0.0424307
-0.0154391
0.0445153
-0.0182152
0.0468621
0.0493918
-0.0211488
-0.000444446
0.0122902
-0.00163099
0.0270306
-0.00334137
0.0350785
-0.00535629
0.0389678
-0.00753978
0.0411068
-0.00984248
0.0429008
-0.0122616
0.0448498
-0.0148102
0.0470639
-0.0175127
0.0495646
0.0522561
-0.0203769
-0.000381281
0.0126715
-0.00146462
0.028114
-0.00307365
0.0366875
-0.00500041
0.0408945
-0.00710462
0.0432111
-0.00933077
0.045127
-0.0116725
0.0471916
-0.0141398
0.0495312
-0.0167629
0.0521876
0.0550548
-0.0195616
-0.000315469
0.012987
-0.00128953
0.029088
-0.00279028
0.0381882
-0.00462284
0.0427271
-0.00664284
0.045231
-0.00878814
0.0472723
-0.0110491
0.0494526
-0.0134303
0.0519124
-0.0159652
0.0547225
0.0577984
-0.0187088
-0.000247318
0.0132343
-0.00110617
0.0299469
-0.00249159
0.0395737
-0.00422382
0.0444593
-0.00615456
0.0471618
-0.00821433
0.0493321
-0.0103903
0.0516285
-0.0126786
0.0542007
-0.0150963
0.0571403
0.060513
-0.017811
-0.000177205
0.0134115
-0.000915073
0.0306848
-0.00217797
0.0408366
-0.00380364
0.046085
-0.0056402
0.0489984
-0.00761013
0.051302
-0.00969913
0.0537175
-0.0119081
0.0564097
-0.0142024
0.0594345
0.0632429
-0.0169322
-0.00010572
0.0135172
-0.00071669
0.0312957
-0.0018499
0.0419698
-0.00336267
0.0475978
-0.00510007
0.0507358
-0.00697565
0.0531776
-0.00896927
0.0557112
-0.0110929
0.0585334
-0.0133567
0.0616983
0.0654729
-0.0155867
-3.46073e-05
0.0135518
-0.000511126
0.0317723
-0.00150797
0.0429666
-0.00290136
0.0489912
-0.00453436
0.0523688
-0.00631148
0.0549547
-0.00820396
0.0576036
-0.0102198
0.0605492
-0.012362
0.0638405
0.06774
-0.0146292
4.05771e-05
0.0135113
-0.000297214
0.03211
-0.00115313
0.0438225
-0.00242028
0.0502583
-0.00394357
0.053892
-0.00561866
0.0566298
-0.007408
0.059393
-0.00931712
0.0624584
-0.0113648
0.0658882
0.0699052
-0.01353
0.000116629
0.0133946
-6.72074e-05
0.0322939
-0.000787057
0.0445424
-0.0019198
0.0513911
-0.00332842
0.0553007
-0.00489821
0.0581995
-0.00658339
0.0610782
-0.00838639
0.0642614
-0.0103262
0.067828
0.0719534
-0.0123744
0.000187575
0.013207
0.000142116
0.0323393
-0.000411702
0.0450962
-0.00140046
0.0523798
-0.00269007
0.0565903
-0.0041507
0.0596602
-0.0057295
0.062657
-0.00742429
0.0659561
-0.00925142
0.0696551
0.0738849
-0.011183
0.000256098
0.0129509
0.000355609
0.0322398
-1.1364e-06
0.0454529
-0.000864196
0.0532429
-0.00202921
0.0577553
-0.00337639
0.0610074
-0.00484601
0.0641266
-0.00642976
0.0675399
-0.00814139
0.0713668
0.0757025
-0.00995893
0.000323589
0.0126274
0.000571511
0.0319919
0.000367273
0.0456572
-0.000318127
0.0539283
-0.0013465
0.0587837
-0.00257599
0.0622369
-0.00393332
0.0654839
-0.0054033
0.0690099
-0.00699604
0.0729595
0.0774009
-0.0086945
0.000388528
0.0122388
0.000787772
0.0315927
0.000764191
0.0456807
0.000245078
0.0544474
-0.000643675
0.0596724
-0.00175045
0.0633436
-0.00299214
0.0667256
-0.00434563
0.0703634
-0.00581663
0.0744305
0.0789738
-0.00738953
0.000450121
0.0117887
0.00100245
0.0310403
0.00116549
0.0455177
0.000819196
0.0547937
7.8091e-05
0.0604135
-0.000900637
0.0643224
-0.00202313
0.0678481
-0.00325743
0.0715977
-0.00460458
0.0757776
0.080417
-0.00604777
0.000507441
0.0112813
0.00121247
0.0303353
0.00156773
0.0451624
0.00140523
0.0549562
0.000819396
0.0609993
-3.29841e-05
0.0651747
-0.00102754
0.0688427
-0.00213962
0.0727097
-0.00336114
0.0769992
0.0817283
-0.00467239
0.000559487
0.0107218
0.00141495
0.0294798
0.00196806
0.0446093
0.00199862
0.0549256
0.00157768
0.0614203
0.000867783
0.0658846
-1.69374e-05
0.0697274
-0.000994216
0.073687
-0.00208687
0.0780918
0.0829073
-0.00326586
0.000605351
0.0101164
0.00160711
0.0284781
0.00236272
0.0438537
0.00259606
0.0546923
0.00234953
0.0616668
0.00178572
0.0664484
0.00104079
0.0704723
0.000173176
0.0745546
-0.000777323
0.0790423
0.0839645
-0.00183456
0.000644225
0.00947221
0.00178607
0.0273362
0.00274738
0.0428924
0.00319351
0.0542462
0.00313214
0.0617282
0.00272202
0.0668586
0.00211091
0.0710834
0.00138093
0.0752846
0.000556032
0.0798672
0.0849174
-0.000396823
0.000675399
0.00879681
0.00194883
0.0260628
0.00311725
0.041724
0.00378609
0.0535773
0.00392168
0.0615926
0.00367413
0.0671061
0.00320259
0.071555
0.00260304
0.0758842
0.00190993
0.0805603
0.0856978
0.00112951
0.000698288
0.00809852
0.00209218
0.0246689
0.00346703
0.0403491
0.00436808
0.0526763
0.00471347
0.0612472
0.00463893
0.0671806
0.00431348
0.0718804
0.00384898
0.0763487
0.00329621
0.0811131
0.0863236
0.00267037
0.000712484
0.00738604
0.002213
0.0231684
0.00379095
0.0387712
0.00493286
0.0515344
0.00550187
0.0606782
0.0056125
0.06707
0.00544089
0.072052
0.0051161
0.0766734
0.0047024
0.0815268
0.0868053
0.0042207
0.000717789
0.00666825
0.00230851
0.0215777
0.00408284
0.0369968
0.00547282
0.0501444
0.00628001
0.059871
0.00658979
0.0667602
0.00658118
0.0720606
0.00640028
0.0768543
0.00612576
0.0818013
0.087145
0.00578607
0.000714216
0.00595403
0.00237625
0.0199157
0.0043362
0.0350369
0.0059793
0.0485013
0.00703965
0.0588107
0.00756447
0.0662354
0.00772996
0.0718951
0.00769822
0.0768861
0.00756463
0.0819349
0.0873429
0.0073667
0.000702
0.00525203
0.00241426
0.0182034
0.00454445
0.0329067
0.00644265
0.0466031
0.00777104
0.0574823
0.0085288
0.0654777
0.008882
0.0715419
0.0090067
0.0767614
0.00901705
0.0819246
0.0873986
0.0089614
0.000681605
0.00457043
0.00242131
0.0164637
0.00470122
0.0306268
0.00685232
0.044452
0.00846278
0.0558718
0.00947328
0.0644672
0.0100308
0.0709844
0.0103217
0.0764704
0.0104804
0.0817659
0.0873107
0.0105683
0.000653723
0.0039167
0.00239705
0.0147204
0.00480073
0.0282231
0.00719711
0.0420556
0.00910177
0.0539671
0.0103864
0.0631825
0.011168
0.0702028
0.0116381
0.0760003
0.0119513
0.0814527
0.0870769
0.0121851
0.000619255
0.00329745
0.00234216
0.0129974
0.00483834
0.0257269
0.00746555
0.0394284
0.00967318
0.0517595
0.0112542
0.0616015
0.0122833
0.0691737
0.012949
0.0753346
0.0134255
0.0809763
0.0866933
0.013809
0.000579276
0.00271817
0.00225842
0.0113183
0.00481107
0.0231743
0.00764651
0.036593
0.0101607
0.0492453
0.0120602
0.059702
0.0133633
0.0678706
0.0142456
0.0744523
0.0148974
0.0803244
0.0861544
0.0154364
0.000534992
0.00218318
0.0021487
0.00970459
0.00471817
0.0206048
0.00772999
0.0335811
0.0105468
0.0464285
0.012785
0.0574638
0.0143917
0.0662639
0.0155163
0.0733278
0.0163599
0.0794808
0.0854519
0.0170624
0.000487681
0.0016955
0.0020168
0.00817547
0.00456157
0.0180601
0.00770819
0.0304345
0.0108139
0.0433228
0.0134067
0.054871
0.0153484
0.0643222
0.0167463
0.0719299
0.0178034
0.0784236
0.0845744
0.018681
0.000438631
0.00125687
0.00186727
0.00674683
0.00434613
0.0155812
0.00757668
0.027204
0.0109448
0.0399547
0.0139009
0.0519149
0.016209
0.0620141
0.0179163
0.0702226
0.0192151
0.0771248
0.083505
0.0202844
0.000389084
0.000867785
0.0017051
0.00543082
0.00407952
0.0132068
0.00733565
0.0239479
0.010925
0.0363653
0.014242
0.0485979
0.0169452
0.0593109
0.019002
0.0681658
0.0205778
0.0755491
0.0822205
0.0218622
0.000340183
0.000527603
0.00153541
0.0042356
0.00377178
0.0109704
0.0069909
0.0207287
0.0107444
0.0326118
0.0144042
0.0449382
0.0175243
0.0561907
0.0199735
0.0657166
0.0218688
0.0736537
0.0806893
0.0234001
0.000292926
0.000234676
0.00136315
0.00316538
0.00343457
0.00889897
0.00655419
0.0176091
0.0103997
0.0287663
0.0143644
0.0409735
0.0179112
0.0526439
0.020794
0.0628338
0.0230586
0.0713891
0.0788697
0.0248783
0.000248149
-1.34728e-05
0.00119285
0.00222068
0.00308019
0.00701163
0.00604282
0.0146465
0.00989659
0.0249126
0.014105
0.0367651
0.0180694
0.0486794
0.021421
0.0594822
0.0241091
0.068701
0.0767087
0.0262701
0.000206514
-0.000219987
0.00102844
0.00139876
0.00272063
0.00531943
0.00547818
0.0118889
0.00925136
0.0211394
0.0136184
0.032398
0.0179654
0.0443324
0.021807
0.0556407
0.0249731
0.0655349
0.074142
0.0275397
0.000168488
-0.000388475
0.000873145
0.000694098
0.00236676
0.00382582
0.00488365
0.00937204
0.0084905
0.0175325
0.0129104
0.0279781
0.0175731
0.0396698
0.0219023
0.0513115
0.0255942
0.061843
0.0710959
0.0286403
0.000134399
-0.000522874
0.00072945
9.90474e-05
0.00202775
0.00252752
0.00428225
0.00711755
0.00764866
0.0141661