/*--------------------------------*- C++ -*----------------------------------*\
  =========                 |
  \\      /  F ield         | OpenFOAM: The Open Source CFD Toolbox
   \\    /   O peration     | Website:  https://openfoam.org
    \\  /    A nd           | Version:  7
     \\/     M anipulation  |
\*---------------------------------------------------------------------------*/
FoamFile
{
    version     2.0;
    format      ascii;
    class       volVectorField;
    location    "15";
    object      U;
}
// * * * * * * * * * * * * * * * * * * * * * * * * * * * * * * * * * * * * * //

dimensions      [0 1 -1 0 0 0 0];

internalField   nonuniform List<vector> 
8500
(
(-0.0012823 0.00110779 7.99162e-22)
(-0.00710281 0.00254461 -2.29338e-21)
(-0.0179964 0.00340349 -2.67431e-21)
(-0.0309298 0.00383858 2.6582e-21)
(-0.0448141 0.00396713 -2.44527e-21)
(-0.058814 0.00390237 -1.3039e-21)
(-0.0724126 0.00375183 2.22816e-21)
(-0.0855004 0.00361724 2.76244e-21)
(-0.0982052 0.00358739 -4.54007e-22)
(-0.110938 0.00374164 1.33637e-21)
(-0.00143818 0.00330309 -8.8281e-22)
(-0.00741285 0.00759123 2.72657e-21)
(-0.0183123 0.0101563 -6.39442e-21)
(-0.0311511 0.011455 5.79804e-21)
(-0.0448551 0.0118358 2.58322e-22)
(-0.0585949 0.0116355 4.25552e-21)
(-0.0718503 0.0111751 -7.3947e-21)
(-0.0845056 0.0107596 -1.08242e-20)
(-0.096676 0.0106588 -2.11726e-21)
(-0.10872 0.0111146 4.8048e-21)
(-0.00174574 0.0054384 8.10637e-22)
(-0.00802635 0.0125114 5.97755e-21)
(-0.0189395 0.016748 1.40808e-20)
(-0.0315929 0.0188906 -1.27381e-20)
(-0.0449409 0.0195087 -2.8729e-21)
(-0.0581663 0.0191552 -2.6157e-21)
(-0.0707423 0.0183585 1.3358e-20)
(-0.0825401 0.0176269 8.31272e-21)
(-0.0936529 0.0174206 2.0321e-21)
(-0.104322 0.0181563 -1.48881e-20)
(-0.00219686 0.00747705 2.87397e-21)
(-0.00893037 0.0172265 -3.51083e-21)
(-0.0198685 0.0230769 -2.62199e-20)
(-0.0322522 0.0260302 2.32019e-21)
(-0.0450775 0.0268612 7.19202e-21)
(-0.0575451 0.0263252 -5.58978e-21)
(-0.0691186 0.0251486 -2.94061e-22)
(-0.0796484 0.0240416 -2.26974e-21)
(-0.0892014 0.02367 5.15268e-21)
(-0.0978117 0.0246472 1.48461e-20)
(-0.00278011 0.00938696 1.99877e-21)
(-0.0101061 0.0216655 -1.12615e-20)
(-0.0210848 0.0290496 2.7076e-20)
(-0.0331229 0.032767 -1.23043e-20)
(-0.04527 0.0337769 -5.17655e-23)
(-0.0567509 0.0330189 1.69995e-20)
(-0.0670161 0.0314026 -7.80983e-21)
(-0.0758862 0.029836 8.92376e-22)
(-0.0834081 0.0292105 -3.20606e-21)
(-0.0892727 0.030369 1.1599e-21)
(-0.00348151 0.0111419 2.38574e-20)
(-0.0115298 0.0257676 2.89439e-20)
(-0.0225681 0.0345832 -7.40603e-21)
(-0.0341933 0.0390045 1.4121e-20)
(-0.0455183 0.0401508 4.43335e-21)
(-0.0557986 0.0391225 -6.33567e-21)
(-0.0644688 0.0369925 -2.44026e-21)
(-0.0713066 0.034858 -1.06202e-20)
(-0.0763643 0.0338562 2.29996e-21)
(-0.0787798 0.0351047 -1.37667e-20)
(-0.0042854 0.0127224 -2.29909e-20)
(-0.0131728 0.0294834 -1.50796e-20)
(-0.0242912 0.0396074 1.22825e-20)
(-0.0354425 0.0446592 -2.12523e-20)
(-0.0458109 0.0458916 2.41872e-21)
(-0.0546893 0.0445392 2.49042e-20)
(-0.0614934 0.041812 -4.4859e-21)
(-0.0659405 0.0389797 2.93998e-20)
(-0.0681435 0.0374391 -6.02105e-22)
(-0.0663684 0.0386432 -1.19905e-20)
(-0.00517537 0.0141156 1.92432e-20)
(-0.0150032 0.0327755 -3.4777e-20)
(-0.0262196 0.0440651 -1.38274e-20)
(-0.0368375 0.0496612 1.6221e-20)
(-0.0461176 0.0509238 5.37694e-22)
(-0.0533972 0.0491926 -4.67285e-20)
(-0.0580711 0.0457815 -2.77089e-21)
(-0.0597688 0.0421074 -2.31738e-20)
(-0.0587669 0.0398219 -2.98905e-20)
(-0.0519999 0.0408136 1.76843e-20)
(-0.006135 0.0153154 -1.07532e-20)
(-0.0169856 0.0356184 5.18534e-21)
(-0.0283096 0.0479122 1.27633e-20)
(-0.0383281 0.0539544 -1.14009e-20)
(-0.0463815 0.0551883 -4.00504e-20)
(-0.0518562 0.0530279 1.38002e-20)
(-0.054125 0.0488543 2.0053e-21)
(-0.0526874 0.0441925 3.48247e-20)
(-0.0481377 0.0409061 4.58344e-20)
(-0.0355362 0.0415986 -2.0718e-20)
(-0.00714856 0.016321 1.69063e-20)
(-0.0190816 0.0379969 1.5387e-20)
(-0.0305071 0.0511167 -2.21076e-21)
(-0.0398437 0.0574957 5.68037e-20)
(-0.0465101 0.0586411 2.41441e-20)
(-0.0499442 0.0560133 1.81232e-20)
(-0.0494963 0.0510192 2.57194e-20)
(-0.0444725 0.04524 -1.13175e-20)
(-0.035907 0.0406123 -1.53098e-20)
(-0.016673 0.041181 -2.53154e-20)
(-0.00820136 0.0171366 -1.58986e-21)
(-0.0212501 0.0399047 -2.42851e-20)
(-0.032746 0.0536569 -1.74879e-20)
(-0.041288 0.0602531 -2.80454e-20)
(-0.0463666 0.0612521 -2.22118e-20)
(-0.047468 0.0581376 2.24062e-20)
(-0.0439199 0.0523035 -2.15224e-20)
(-0.0347826 0.0453315 -1.4901e-20)
(-0.0213919 0.0389434 1.95029e-21)
(0.00542329 0.0394596 6.63615e-21)
(-0.00927998 0.0177693 -4.65061e-20)
(-0.023447 0.0413418 2.22179e-20)
(-0.0349469 0.0555188 1.62027e-20)
(-0.0425356 0.0622028 1.08355e-20)
(-0.0457631 0.0630008 -1.97472e-20)
(-0.0441494 0.0594059 -1.67087e-20)
(-0.0369886 0.0527698 2.41986e-20)
(-0.0231223 0.0446263 -1.9749e-20)
(-0.00388909 0.036179 -1.12098e-21)
(0.0322446 0.0363792 -2.07912e-20)
(-0.0103722 0.0182282 3.89111e-20)
(-0.0256243 0.0423126 1.58166e-20)
(-0.0370148 0.0566942 9.34833e-22)
(-0.0434287 0.0633271 -1.97493e-20)
(-0.0444542 0.0638724 1.41148e-21)
(-0.0396179 0.0598317 2.19762e-20)
(-0.0281363 0.052502 -6.25279e-21)
(-0.0086727 0.0433073 -7.64184e-21)
(0.0175139 0.0327458 -1.73535e-20)
(0.0652995 0.0325221 3.17088e-20)
(-0.0114667 0.0185234 2.62769e-20)
(-0.0277294 0.0428239 -4.26665e-20)
(-0.0388377 0.0571786 -3.29068e-20)
(-0.043774 0.0636119 1.42302e-20)
(-0.0421333 0.0638549 2.90628e-20)
(-0.033408 0.0594288 2.46847e-20)
(-0.0166757 0.0515867 -2.62921e-20)
(0.00960894 0.0415912 5.10489e-20)
(0.0442553 0.0289987 -1.53786e-20)
(0.106302 0.0289746 -3.72467e-20)
(-0.0125524 0.0186646 -3.95018e-20)
(-0.029703 0.0428831 2.37903e-20)
(-0.0402838 0.0569704 -1.14001e-20)
(-0.0433398 0.063048 1.19498e-21)
(-0.0384307 0.06294 1.22255e-20)
(-0.0249554 0.0582112 -3.89512e-20)
(-0.0017766 0.0501135 3.46405e-20)
(0.0328738 0.039748 -3.37475e-20)
(0.0781251 0.0253423 5.43038e-20)
(0.157021 0.0270738 1.98331e-20)
(-0.0136176 0.0186601 8.35724e-21)
(-0.0314771 0.042497 4.62029e-20)
(-0.0411978 0.0560713 -1.16186e-20)
(-0.0418526 0.0616344 1.17789e-20)
(-0.0329108 0.0611278 1.37331e-20)
(-0.0136035 0.0561972 -4.12992e-21)
(0.0175204 0.0481652 2.97244e-20)
(0.0623635 0.0380026 1.4962e-21)
(0.121124 0.0222769 -3.48722e-20)
(0.218673 0.0281842 4.73251e-20)
(-0.0146486 0.0185164 -2.23613e-20)
(-0.0329709 0.0416713 -4.37591e-20)
(-0.0413976 0.0544916 3.79901e-20)
(-0.0389913 0.0593833 1.90623e-20)
(-0.025069 0.0584382 -8.85412e-20)
(0.00139264 0.0534271 7.22785e-20)
(0.0422717 0.0458427 -6.54121e-20)
(0.0993382 0.0365217 1.01748e-21)
(0.175285 0.0204879 -1.48616e-20)
(0.291038 0.0334428 -4.38532e-20)
(-0.0156287 0.0182374 1.93418e-20)
(-0.0340865 0.0404123 -2.61387e-21)
(-0.040668 0.0522499 -9.33022e-21)
(-0.0343817 0.0563268 -1.0892e-21)
(-0.0143258 0.0549287 -5.51756e-21)
(0.0208646 0.0499915 -2.30396e-20)
(0.0736039 0.0433037 9.8449e-21)
(0.145047 0.0354276 -1.55289e-20)
(0.242352 0.0211327 4.62898e-21)
(0.3715 0.0437662 1.27313e-21)
(-0.0165358 0.0178245 -3.94851e-20)
(-0.0347076 0.0387287 -2.83904e-21)
(-0.0387511 0.0493736 4.31654e-21)
(-0.0275906 0.0525287 1.75818e-21)
(-2.4887e-05 0.0507107 2.90113e-20)
(0.0457228 0.0460598 -8.46714e-20)
(0.112668 0.040792 5.71867e-20)
(0.20081 0.0348309 -4.29323e-20)
(0.323444 0.0259831 3.62467e-20)
(0.455297 0.0590412 4.01082e-20)
(-0.0173368 0.0172738 -4.79457e-21)
(-0.0346938 0.0366279 2.19963e-20)
(-0.0353476 0.0459059 -2.76174e-20)
(-0.0181219 0.0480923 -8.65786e-21)
(0.0185602 0.0459652 1.67062e-20)
(0.0769213 0.0419048 8.05178e-20)
(0.160498 0.0386468 -1.62018e-20)
(0.267894 0.0350089 7.87537e-21)
(0.418304 0.0365908 -4.19634e-20)
(0.540077 0.0734698 1.94499e-20)
(-0.0179844 0.0165769 -1.44183e-20)
(-0.0338713 0.0341193 -1.12169e-20)
(-0.030114 0.0419116 2.76489e-21)
(-0.005422 0.0431645 1.09038e-20)
(0.0422051 0.0409526 -3.23149e-20)
(0.115395 0.0379233 -1.30999e-20)
(0.217823 0.0373317 -4.12827e-20)
(0.346752 0.036764 4.26454e-20)
(0.522417 0.0517171 4.51273e-20)
(0.632401 0.0742163 -1.89874e-20)
(-0.0184198 0.0157267 -6.86886e-21)
(-0.0320318 0.0312157 2.8035e-20)
(-0.0226603 0.0374746 -3.1378e-20)
(0.0111091 0.037938 -3.66155e-21)
(0.0716999 0.0360141 -1.48163e-20)
(0.161981 0.0346424 3.23547e-20)
(0.284997 0.0374883 4.18384e-20)
(0.436407 0.0414108 -4.02042e-20)
(0.625842 0.0645188 4.30246e-20)
(0.759092 0.0715395 6.15802e-21)
(-0.0185723 0.0147128 -1.99215e-20)
(-0.0289357 0.0279347 -5.67066e-20)
(-0.0125565 0.0327021 5.53878e-20)
(0.0320968 0.0326515 7.9841e-21)
(0.107793 0.0315621 1.17058e-20)
(0.217285 0.0326817 7.06213e-21)
(0.36186 0.0398504 3.19723e-20)
(0.534233 0.0497731 2.36322e-20)
(0.73059 0.0773129 -8.36325e-20)
(0.879204 0.0855231 -4.16718e-20)
(-0.0183528 0.0135231 -6.81786e-20)
(-0.0243158 0.0243068 1.37382e-20)
(0.00065271 0.027728 -3.13177e-20)
(0.0581568 0.0275872 6.10301e-21)
(0.151113 0.0280635 9.80224e-21)
(0.281517 0.032691 -7.05148e-20)
(0.44744 0.045109 3.11898e-20)
(0.636594 0.0618017 -2.12195e-20)
(0.833594 0.0922382 2.22187e-20)
(0.982397 0.103729 -7.98666e-21)
(-0.0176571 0.0121499 2.46775e-20)
(-0.0178803 0.0203793 2.66849e-20)
(0.017431 0.0227175 -1.52301e-21)
(0.0898519 0.0230704 -8.57942e-21)
(0.202073 0.0260217 3.35333e-22)
(0.354323 0.0352808 7.02164e-22)
(0.539723 0.053724 -4.74705e-20)
(0.739378 0.0769424 6.05438e-21)
(0.92979 0.10902 5.99601e-20)
(1.06961 0.122486 2.771e-20)
(-0.0163682 0.0105936 -1.67324e-20)
(-0.00932197 0.0162235 -1.24019e-20)
(0.0382282 0.017873 5.33634e-20)
(0.127639 0.0194689 1.36559e-21)
(0.260764 0.0259557 -2.23908e-20)
(0.43465 0.0409439 6.03433e-20)
(0.635737 0.065782 1.33592e-20)
(0.838334 0.0944153 9.23813e-22)
(1.01559 0.126741 -2.61499e-20)
(1.13938 0.140591 -3.49745e-20)
(-0.0143593 0.00886579 3.50602e-20)
(0.00167142 0.0119418 -9.75881e-21)
(0.0634538 0.0134404 -5.82763e-21)
(0.171814 0.017191 -2.21785e-20)
(0.326854 0.0283685 3.64664e-20)
(0.520704 0.0499711 -1.78433e-20)
(0.731949 0.0809605 -2.02109e-20)
(0.929801 0.113347 -4.67385e-21)
(1.08883 0.144524 -1.51647e-20)
(1.19324 0.157243 1.70399e-20)
(-0.0114974 0.00699313 -1.28993e-20)
(0.0154032 0.00767388 -7.68695e-20)
(0.0934461 0.00971304 8.00097e-21)
(0.222449 0.0166771 2.76578e-20)
(0.399511 0.0336989 1.97977e-20)
(0.61005 0.0623857 -6.63329e-20)
(0.824828 0.0986314 4.28582e-20)
(1.0112 0.132909 -1.96405e-20)
(1.14899 0.161708 3.02649e-20)
(1.23324 0.172289 8.58641e-21)
(-0.00764752 0.00501962 -1.41837e-20)
(0.0321524 0.00360129 2.72664e-20)
(0.128439 0.00703099 3.56396e-20)
(0.279332 0.0183796 -2.55644e-20)
(0.477379 0.0422576 9.55461e-21)
(0.699884 0.0779319 -5.84788e-20)
(0.911383 0.118038 -1.08051e-20)
(1.0812 0.15243 9.43077e-21)
(1.19668 0.177923 -2.30446e-20)
(1.2618 0.18579 -2.39807e-20)
(-0.00267801 0.00300854 -1.83746e-20)
(0.0521563 -5.16346e-05 -6.25129e-21)
(0.168526 0.0057742 -6.46688e-20)
(0.341924 0.022729 -1.01662e-20)
(0.558643 0.054169 -1.13714e-21)
(0.787402 0.0961368 3.44538e-21)
(0.989479 0.138458 6.00789e-21)
(1.13955 0.171451 -2.96973e-20)
(1.23321 0.193029 5.27789e-22)
(1.28127 0.197975 1.65102e-20)
(0.00353471 0.00104252 -4.81954e-21)
(0.0755911 -0.00301997 2.24437e-20)
(0.213625 0.00634865 3.16244e-20)
(0.409332 0.0300881 1.98067e-20)
(0.641187 0.0693463 -5.86651e-21)
(0.870153 0.116419 -4.92702e-21)
(1.05791 0.159294 4.92738e-20)
(1.18677 0.189706 6.8801e-21)
(1.26019 0.207049 2.27832e-20)
(1.29371 0.209114 -1.00712e-20)
(0.0110986 -0.00077555 4.60725e-20)
(0.102553 -0.00500307 2.97692e-20)
(0.26345 0.00916465 -3.02026e-20)
(0.480336 0.0407053 -6.02452e-21)
(0.722823 0.0875174 3.19827e-21)
(0.946267 0.138195 -1.16709e-20)
(1.1163 0.180111 -2.53973e-20)
(1.2239 0.207087 -4.15286e-21)
(1.27926 0.220105 2.79745e-22)
(1.30081 0.219479 1.09374e-20)
(0.0200987 -0.002325 5.76302e-21)
(0.133038 -0.00567523 -1.62678e-20)
(0.317493 0.014608 3.85491e-20)
(0.553458 0.0546803 2.5151e-20)
(0.801522 0.108287 8.33721e-22)
(1.01453 0.160948 1.80391e-20)
(1.16486 0.200621 2.62295e-21)
(1.25217 0.223595 -1.95357e-20)
(1.29194 0.232367 1.69013e-20)
(1.3039 0.229313 -2.84377e-23)
(0.0305919 -0.00346998 -3.81514e-20)
(0.166929 -0.0046979 -1.12343e-20)
(0.375024 0.0230077 -1.013e-20)
(0.627084 0.0719585 -1.77076e-20)
(0.875583 0.131205 4.23497e-21)
(1.07432 0.184258 1.15426e-22)
(1.20423 0.220661 1.41793e-20)
(1.27287 0.239304 -2.23903e-21)
(1.29953 0.244018 -1.73664e-20)
(1.304 0.238814 -1.66e-20)
(0.0425992 -0.00406267 3.11397e-21)
(0.203983 -0.00173566 1.8249e-20)
(0.435119 0.0346057 8.86989e-21)
(0.699598 0.0923512 -2.77718e-20)
(0.943721 0.155829 -1.41582e-21)
(1.12552 0.207807 -1.21684e-20)
(1.23524 0.240157 3.1747e-22)
(1.28723 0.254323 5.80092e-21)
(1.30312 0.255228 -6.6082e-21)
(1.30182 0.248132 1.87352e-20)
(0.0561005 -0.00394806 7.35729e-21)
(0.243825 0.00352546 -1.79175e-20)
(0.496704 0.0495353 -4.23344e-20)
(0.769506 0.115572 3.91051e-20)
(1.00508 0.181749 -2.95009e-21)
(1.16834 0.231361 8.73957e-21)
(1.25885 0.259098 -1.26773e-21)
(1.29631 0.268775 8.66147e-21)
(1.30353 0.266145 -6.10866e-22)
(1.29788 0.257371 -1.45461e-20)
(0.0710296 -0.00296948 -1.50325e-20)
(0.28596 0.0113587 2.33949e-20)
(0.558617 0.0678128 1.92838e-20)
(0.835522 0.141277 -2.79941e-20)
(1.05918 0.208606 -4.70589e-21)
(1.20326 0.254759 1.78522e-21)
(1.27597 0.277509 1.83524e-20)
(1.30105 0.282776 9.59521e-22)
(1.30142 0.276882 3.69098e-21)
(1.29254 0.266592 -7.97829e-21)
(0.0872729 -0.000974937 1.14089e-20)
(0.329779 0.0219783 -1.02451e-20)
(0.619684 0.0893422 -8.77313e-21)
(0.896618 0.169096 1.50849e-20)
(1.10585 0.23609 5.23155e-21)
(1.23084 0.27789 4.01273e-21)
(1.28747 0.295432 -1.87175e-20)
(1.30219 0.296426 -6.52243e-21)
(1.29727 0.287519 -5.90775e-21)
(1.28601 0.275824 2.6223e-21)
(0.104668 0.00217607 -5.73607e-21)
(0.374584 0.0355246 -1.3217e-22)
(0.67878 0.11393 1.66227e-20)
(0.952031 0.198651 -6.09515e-21)
(1.14516 0.263939 -2.73387e-21)
(1.25173 0.300675 -1.80765e-21)
(1.29412 0.312913 4.55143e-21)
(1.30034 0.309803 7.94184e-21)
(1.2914 0.298102 -2.51336e-22)
(1.27844 0.285063 2.98113e-21)
(0.123008 0.0066055 4.04879e-21)
(0.419619 0.0520537 -1.13585e-21)
(0.734882 0.141304 -2.98457e-21)
(1.00124 0.229571 -2.71722e-21)
(1.17732 0.291924 2.4721e-21)
(1.26657 0.32306 1.94827e-21)
(1.29659 0.329989 -1.80348e-21)
(1.29595 0.322955 6.65226e-22)
(1.28406 0.308647 9.43708e-22)
(1.26991 0.294286 -1.27277e-21)
(0.142043 0.01241 2.19883e-21)
(0.464097 0.0715332 6.22708e-22)
(0.787105 0.171132 -3.74301e-21)
(1.04395 0.2615 -3.00561e-21)
(1.20266 0.319844 3.14834e-21)
(1.27595 0.344995 6.19018e-22)
(1.29542 0.346681 -1.46258e-21)
(1.28938 0.335904 1.37886e-21)
(1.27539 0.319139 7.78887e-22)
(1.26049 0.303449 -9.10166e-22)
(0.16149 0.0196549 -8.54722e-22)
(0.50724 0.0938432 1.74881e-21)
(0.83472 0.20304 1.15784e-20)
(1.08001 0.294093 -5.20511e-21)
(1.22157 0.347518 -2.54618e-21)
(1.28045 0.366434 -2.89487e-21)
(1.29107 0.362993 5.95758e-21)
(1.28089 0.348645 4.02611e-21)
(1.26551 0.32954 3.24944e-21)
(1.2502 0.312499 1.79806e-21)
(0.181041 0.0283695 1.77508e-20)
(0.5483 0.118783 -9.72905e-21)
(0.877159 0.236624 -1.10492e-20)
(1.10945 0.327019 1.51121e-20)
(1.23446 0.374778 8.01117e-21)
(1.28054 0.387323 -5.40243e-22)
(1.28391 0.378906 -9.98077e-21)
(1.27066 0.361147 -7.23085e-21)
(1.25447 0.339793 -7.64279e-21)
(1.23907 0.321371 4.59788e-21)
(0.20037 0.0385442 -2.40519e-20)
(0.58659 0.146077 2.25655e-20)
(0.914003 0.271463 2.6065e-20)
(1.13236 0.35996 -2.57673e-20)
(1.24175 0.401463 -8.93091e-21)
(1.27667 0.407597 5.77221e-21)
(1.27421 0.394381 1.05168e-20)
(1.25883 0.373356 1.6692e-21)
(1.24233 0.349818 -3.12794e-22)
(1.2271 0.32999 -6.31502e-21)
(0.219149 0.0501288 -3.4948e-21)
(0.621503 0.175392 -3.18776e-20)
(0.944979 0.307129 -3.41792e-20)
(1.14894 0.392609 3.85063e-20)
(1.24383 0.427414 -4.38617e-21)
(1.2692 0.427183 8.09835e-21)
(1.26223 0.40936 1.60625e-21)
(1.2455 0.3852 -4.53302e-21)
(1.22909 0.35952 2.43137e-21)
(1.21429 0.338266 -3.28315e-22)
(0.237048 0.0630332 7.08754e-21)
(0.652521 0.206341 1.98266e-20)
(0.969933 0.343188 1.12214e-20)
(1.15942 0.424671 -8.8502e-21)
(1.24112 0.452472 -1.3855e-20)
(1.25848 0.445993 -1.29194e-20)
(1.24814 0.42377 -2.62204e-21)
(1.23073 0.396598 7.00342e-21)
(1.21475 0.368807 -1.47129e-21)
(1.2005 0.346113 3.47861e-21)
(0.253757 0.0771297 -2.69681e-20)
(0.679225 0.238502 -2.50297e-20)
(0.988823 0.379212 -4.00996e-21)
(1.1641 0.455861 -4.50988e-21)
(1.23396 0.476478 -1.02568e-20)
(1.24478 0.463927 6.27289e-21)
(1.23211 0.437525 -1.13678e-21)
(1.21459 0.407469 -6.17435e-21)
(1.19931 0.377628 5.62408e-21)
(1.18559 0.353473 -8.20933e-21)
(0.268984 0.0922564 6.32995e-21)
(0.701301 0.271426 2.12795e-20)
(1.0017 0.414777 1.856e-20)
(1.16327 0.485903 2.01918e-20)
(1.22273 0.49927 3.76147e-22)
(1.22836 0.480871 1.76829e-20)
(1.21425 0.450519 1.17305e-21)
(1.19713 0.417717 -2.09347e-20)
(1.18283 0.385984 1.50995e-20)
(1.16961 0.360307 5.71481e-21)
(0.282468 0.108221 1.7536e-20)
(0.718534 0.304652 3.91332e-20)
(1.00867 0.449473 -5.16147e-21)
(1.15727 0.514531 -2.54737e-20)
(1.20772 0.520684 1.14818e-20)
(1.20942 0.496707 -1.19526e-20)
(1.19467 0.462635 -1.5963e-20)
(1.17842 0.427214 -1.36462e-21)
(1.16533 0.3938 -1.25254e-20)
(1.15296 0.366469 4.92477e-21)
(0.293986 0.124806 8.28981e-21)
(0.730808 0.337714 6.20151e-21)
(1.00994 0.482904 4.90421e-20)
(1.14644 0.541491 9.19585e-21)
(1.18927 0.540561 -8.01477e-21)
(1.18815 0.511308 -4.10605e-21)
(1.17347 0.473742 2.43894e-20)
(1.15861 0.435864 2.01053e-20)
(1.14679 0.400851 1.00957e-20)
(1.13574 0.371995 -1.37227e-21)
(0.303354 0.141775 1.74894e-21)
(0.738089 0.370157 -4.01473e-20)
(1.00574 0.514691 -5.77316e-20)
(1.13112 0.566541 1.81208e-21)
(1.16765 0.558746 1.13249e-20)
(1.16475 0.524548 -1.56573e-20)
(1.15089 0.483716 -3.56474e-20)
(1.13767 0.443554 -1.06514e-20)
(1.12725 0.407048 -6.42419e-22)
(1.11785 0.376696 5.19885e-21)
(0.310433 0.158878 -1.44205e-20)
(0.740422 0.401536 3.6375e-20)
(0.996355 0.544472 3.47567e-20)
(1.11167 0.589451 -3.20756e-20)
(1.14316 0.575084 4.8966e-21)
(1.13948 0.536269 3.77231e-20)
(1.12699 0.492444 -8.31352e-21)
(1.1156 0.450186 7.05256e-21)
(1.10684 0.412265 -3.3995e-21)
(1.0993 0.380495 -4.63062e-21)
(0.315127 0.175862 -3.2556e-20)
(0.737927 0.431432 -5.72627e-20)
(0.982124 0.571916 -1.12316e-20)
(1.08844 0.609995 1.84303e-20)
(1.11608 0.589402 1.80265e-20)
(1.1125 0.546354 -3.753e-20)
(1.10181 0.499791 2.04077e-20)
(1.09256 0.455652 -1.06526e-20)
(1.08562 0.416415 8.64998e-21)
(1.08014 0.383304 2.74292e-22)
(0.31739 0.192471 2.48369e-20)
(0.730816 0.459449 1.73091e-21)
(0.96347 0.596758 -5.54349e-21)
(1.0617 0.627929 -2.28219e-20)
(1.08665 0.601539 1.46902e-20)
(1.08394 0.554648 3.22077e-21)
(1.07551 0.505649 -1.15276e-20)
(1.06863 0.459844 2.1031e-21)
(1.06369 0.419398 -2.28592e-21)
(1.06044 0.385051 1.15425e-21)
(0.317229 0.208447 -6.81407e-21)
(0.719392 0.4852 -9.50735e-21)
(0.940767 0.618798 2.42504e-20)
(1.03169 0.643057 1.12295e-20)
(1.05516 0.611301 -1.52479e-20)
(1.05402 0.561024 2.11733e-20)
(1.04823 0.509902 1.62609e-21)
(1.04393 0.46266 1.947e-21)
(1.04111 0.421113 3.08944e-22)
(1.04029 0.385638 1.31462e-22)
(0.314708 0.223528 4.41813e-20)
(0.703983 0.508324 3.39728e-20)
(0.914031 0.637625 -2.40521e-21)
(0.998997 0.655398 -5.22568e-21)
(1.02196 0.618533 -6.18407e-21)
(1.02294 0.565353 -3.01776e-21)
(1.02011 0.512446 1.86031e-21)
(1.01855 0.464015 1.49072e-21)
(1.01798 0.421464 7.76848e-23)
(1.01975 0.384969 -2.48021e-21)
(0.309909 0.237454 3.62701e-21)
(0.684779 0.528689 5.8932e-21)
(0.883604 0.652894 -3.14183e-20)
(0.964109 0.664632 1.38765e-20)
(0.987265 0.623236 3.53727e-21)
(0.990872 0.567543 -7.78969e-21)
(0.991294 0.513183 2.76091e-21)
(0.992607 0.463828 1.08152e-21)
(0.994412 0.420379 -3.09237e-21)
(0.999062 0.382987 3.31544e-21)
(0.302906 0.249916 -1.68036e-20)
(0.661982 0.545925 -1.21588e-20)
(0.850336 0.664735 1.00064e-20)
(0.92728 0.670555 2.52114e-21)
(0.951352 0.625266 -5.4573e-21)
(0.958021 0.567499 4.82485e-21)
(0.961909 0.512021 1.95472e-21)
(0.966198 0.462005 -6.6477e-21)
(0.970663 0.417786 1.78812e-20)
(0.97885 0.379717 7.35038e-21)
(0.293783 0.260692 -1.28919e-20)
(0.635925 0.559602 3.19238e-20)
(0.81466 0.672912 -2.02201e-20)
(0.888836 0.67315 -2.98514e-21)
(0.914475 0.624537 -3.28168e-21)
(0.924569 0.565142 -2.79501e-22)
(0.93207 0.508871 -6.53035e-21)
(0.939438 0.458408 3.48404e-21)
(0.947131 0.413492 -2.4765e-22)
(0.959801 0.375199 -3.1532e-21)
(0.282767 0.269642 -1.04379e-21)
(0.607147 0.569578 -9.50594e-21)
(0.776924 0.677236 5.04722e-21)
(0.849122 0.672347 -2.6514e-21)
(0.876898 0.620979 3.95391e-21)
(0.8907 0.560417 4.26145e-21)
(0.901898 0.503683 1.29151e-20)
(0.912511 0.45293 -9.96509e-21)
(0.924162 0.407118 -1.89756e-20)
(0.941207 0.368787 8.33879e-21)
(0.270064 0.276655 -1.31521e-22)
(0.576087 0.575728 -1.90554e-21)
(0.737543 0.677577 8.54746e-22)
(0.808493 0.668091 4.95208e-21)
(0.838888 0.614547 -9.87288e-21)
(0.856609 0.553289 -1.71525e-20)
(0.871576 0.496452 -5.03938e-21)
(0.88568 0.445684 -1.58497e-21)
(0.901744 0.39885 2.60845e-20)
(0.920323 0.356762 -5.40313e-21)
(0.255866 0.281575 -6.86021e-22)
(0.543185 0.577941 -4.11451e-21)
(0.696943 0.67387 7.32626e-22)
(0.7673 0.660343 8.55374e-22)
(0.800713 0.605212 -7.68187e-21)
(0.822511 0.543725 3.31924e-20)
(0.841357 0.487143 -2.34965e-20)
(0.859162 0.436753 2.81249e-20)
(0.878819 0.390554 -1.9699e-20)
(0.897077 0.349927 -2.61078e-20)
(0.240406 0.284283 -4.80188e-22)
(0.508878 0.576142 -1.24029e-21)
(0.65555 0.666088 5.79644e-22)
(0.725892 0.649092 1.2014e-20)
(0.76264 0.592962 -5.18434e-21)
(0.78863 0.531704 7.89284e-21)
(0.811445 0.4757 1.37278e-20)
(0.832989 0.425863 -7.23736e-21)
(0.855784 0.380107 -1.92018e-20)
(0.87502 0.33971 2.63668e-20)
(0.223934 0.284695 9.58628e-21)
(0.473598 0.570287 1.26172e-20)
(0.613787 0.65424 -1.23836e-20)
(0.684611 0.634353 -1.09472e-20)
(0.724935 0.577807 3.95915e-20)
(0.755184 0.517233 -4.03777e-20)
(0.781989 0.462164 4.86358e-20)
(0.807174 0.413227 -1.21437e-20)
(0.832824 0.368459 1.30259e-20)
(0.853671 0.329166 2.43696e-20)
(0.206705 0.282753 -3.42067e-21)
(0.437774 0.560375 -1.25127e-20)
(0.572066 0.638365 -7.90681e-21)
(0.643791 0.616165 -4.27082e-21)
(0.687861 0.559777 5.10349e-21)
(0.722392 0.500329 -1.0708e-20)
(0.75316 0.446537 -1.45284e-20)
(0.781878 0.39878 -3.18489e-20)
(0.810273 0.355241 3.16245e-20)
(0.833121 0.317239 -1.0094e-20)
(0.188981 0.278431 2.41738e-20)
(0.401829 0.546439 -3.03554e-21)
(0.530786 0.618533 -1.11334e-20)
(0.603759 0.594595 1.4202e-20)
(0.651678 0.538923 -2.54501e-20)
(0.690461 0.481034 6.85117e-20)
(0.725125 0.428862 -3.65657e-20)
(0.757263 0.382597 3.31482e-20)
(0.788342 0.340591 -6.07698e-20)
(0.813397 0.304067 -1.60987e-20)
(0.171021 0.271729 -7.44211e-21)
(0.366177 0.528551 2.56878e-20)
(0.490337 0.594842 5.97024e-21)
(0.564829 0.569731 -1.3264e-20)
(0.616635 0.515315 -2.29375e-20)
(0.659597 0.459404 -7.29413e-22)
(0.698053 0.409185 1.21973e-20)
(0.733491 0.364705 -2.99381e-20)
(0.767186 0.324484 1.46569e-20)
(0.794545 0.289583 1.93506e-21)
(0.153083 0.262677 -4.23825e-20)
(0.331218 0.506817 -1.03845e-20)
(0.451089 0.56742 -2.9015e-21)
(0.527304 0.541686 3.43751e-20)
(0.582976 0.489043 -3.20333e-20)
(0.63 0.435512 -8.28319e-21)
(0.672113 0.387571 -5.07806e-21)
(0.710717 0.345161 9.34071e-21)
(0.746943 0.306958 -1.18572e-20)
(0.776637 0.273821 -1.8436e-20)
(0.135419 0.25133 3.7698e-20)
(0.297337 0.481379 -2.14713e-20)
(0.413397 0.536423 1.02383e-21)
(0.491472 0.510595 -5.22139e-20)
(0.550932 0.460219 5.67306e-20)
(0.601861 0.40945 -1.79567e-20)
(0.64747 0.364097 1.07576e-20)
(0.689087 0.324026 9.35358e-21)
(0.727735 0.288054 2.7106e-20)
(0.759746 0.256824 -1.11675e-20)
(0.118272 0.237769 -1.53229e-20)
(0.264898 0.452408 4.45875e-20)
(0.377597 0.502033 2.5171e-20)
(0.457605 0.476616 4.13272e-20)
(0.520723 0.42897 -9.56011e-21)
(0.575364 0.381326 3.85673e-21)
(0.624279 0.338855 3.10843e-20)
(0.668738 0.301376 6.95038e-21)
(0.709677 0.267832 6.71009e-22)
(0.743949 0.238655 -1.33596e-20)
(0.101875 0.2221 -3.54978e-20)
(0.234246 0.420107 -2.59252e-21)
(0.344001 0.464457 -1.48176e-20)
(0.425959 0.439926 -6.66296e-20)
(0.492557 0.395444 -6.44728e-20)
(0.550683 0.351262 1.0754e-20)
(0.60269 0.31195 -2.65149e-20)
(0.649797 0.277298 1.69557e-20)
(0.692877 0.246364 9.20361e-21)
(0.729321 0.219389 1.91608e-20)
(0.0864465 0.204452 5.22929e-20)
(0.205702 0.384706 -4.27951e-20)
(0.312901 0.423924 -2.17654e-20)
(0.396771 0.400722 3.85345e-20)
(0.466627 0.359804 4.39178e-20)
(0.527979 0.319396 -1.45956e-20)
(0.582841 0.283499 -1.8984e-21)
(0.632383 0.25189 -5.27411e-20)
(0.677438 0.223735 -2.98157e-20)
(0.715933 0.19911 1.13631e-20)
(0.0721891 0.184973 -2.97723e-20)
(0.179558 0.34646 1.2537e-20)
(0.284563 0.380687 4.61761e-20)
(0.370258 0.359218 -2.0773e-20)
(0.44311 0.322228 1.65898e-21)
(0.507403 0.285879 5.87719e-20)
(0.564858 0.253631 2.69176e-21)
(0.616609 0.225262 5.05695e-20)
(0.663455 0.200039 2.10769e-20)
(0.703853 0.177909 -3.34893e-20)
(0.0592886 0.163833 4.13569e-20)
(0.156082 0.305648 4.59456e-21)
(0.259226 0.335015 3.01156e-21)
(0.346617 0.315645 4.22465e-20)
(0.422168 0.282909 -5.62196e-21)
(0.48909 0.250875 -3.68948e-20)
(0.548859 0.222487 1.808e-20)
(0.602574 0.197535 -2.89131e-20)
(0.651015 0.175382 -1.20773e-20)
(0.693142 0.155885 1.21904e-20)
(0.0479113 0.141217 -2.57858e-20)
(0.135509 0.26257 -4.95883e-20)
(0.237105 0.287198 1.14769e-20)
(0.326022 0.270248 -2.24796e-20)
(0.403945 0.242054 -1.3573e-20)
(0.473161 0.214559 3.29409e-20)
(0.534946 0.190216 -7.97076e-21)
(0.590368 0.168836 7.35186e-21)
(0.640199 0.149876 -8.9523e-21)
(0.683856 0.13314 1.77785e-20)
(0.0382022 0.117327 9.3597e-21)
(0.118045 0.217543 3.34257e-20)
(0.218384 0.237539 -4.64715e-20)
(0.308624 0.223286 2.19724e-20)
(0.388564 0.199879 -1.00234e-20)
(0.459723 0.177116 -2.82274e-20)
(0.523211 0.156978 2.30624e-20)
(0.580072 0.139301 4.83041e-21)
(0.631075 0.123641 -7.44543e-22)
(0.676042 0.109779 -2.0662e-20)
(0.0302845 0.092375 3.07254e-21)
(0.103863 0.170901 1.07936e-20)
(0.203218 0.186355 4.20854e-20)
(0.29455 0.175029 -8.08402e-21)
(0.376131 0.15661 -6.37589e-21)
(0.448863 0.138739 2.35562e-21)
(0.513729 0.122937 1.05306e-21)
(0.571752 0.109074 8.61261e-21)
(0.623702 0.0968007 -1.13204e-20)
(0.669741 0.085912 -7.19695e-21)
(0.0242578 0.0665869 -7.67005e-21)
(0.0931039 0.122988 -1.31346e-20)
(0.191733 0.133974 -3.27541e-20)
(0.283904 0.125753 1.64912e-20)
(0.366731 0.112483 1.34542e-20)
(0.440654 0.0996278 5.71278e-22)
(0.506563 0.0882664 -2.25226e-20)
(0.565463 0.0783023 -1.00084e-20)
(0.618129 0.0694856 7.92572e-21)
(0.664987 0.0616493 8.48344e-21)
(0.0201977 0.0401952 1.33602e-21)
(0.0858719 0.0741604 -2.7563e-21)
(0.184024 0.0807305 6.21667e-21)
(0.276763 0.0757463 -4.2131e-21)
(0.360429 0.0677382 -3.721e-21)
(0.435151 0.059989 -2.52395e-21)
(0.501759 0.0531422 4.63668e-21)
(0.561247 0.047139 1.76711e-20)
(0.614393 0.0418288 2.55883e-21)
(0.661803 0.0371032 -4.53324e-21)
(0.0181549 0.013439 1.65167e-21)
(0.0822381 0.0247816 -4.5438e-21)
(0.180153 0.026968 -5.15198e-21)
(0.27318 0.0252979 -3.57572e-21)
(0.357267 0.0226209 3.40728e-21)
(0.43239 0.0200318 1.53805e-21)
(0.499349 0.0177445 -1.533e-21)
(0.559132 0.0157393 -6.98716e-21)
(0.612519 0.0139659 2.30037e-21)
(0.660207 0.0123867 -2.15024e-21)
(0.0181549 -0.013439 -1.65167e-21)
(0.0822381 -0.0247816 4.5438e-21)
(0.180153 -0.026968 5.15198e-21)
(0.27318 -0.0252979 -4.93338e-21)
(0.357267 -0.0226209 4.34523e-21)
(0.43239 -0.0200318 2.17697e-21)
(0.499349 -0.0177445 -3.47718e-21)
(0.559132 -0.0157393 -4.04308e-21)
(0.612519 -0.0139659 5.96478e-22)
(0.660207 -0.0123867 -1.68156e-21)
(0.0201977 -0.0401952 1.81091e-21)
(0.0858719 -0.0741604 -5.41282e-21)
(0.184024 -0.0807305 1.21344e-20)
(0.276763 -0.0757463 -1.06568e-20)
(0.360429 -0.0677382 -5.02871e-22)
(0.435151 -0.059989 -7.09167e-21)
(0.501759 -0.0531422 1.15302e-20)
(0.561247 -0.047139 1.56826e-20)
(0.614393 -0.0418288 2.80346e-21)
(0.661803 -0.0371032 -6.0325e-21)
(0.0242578 -0.0665869 -1.55617e-21)
(0.0931039 -0.122988 -1.14539e-20)
(0.191733 -0.133974 -2.66325e-20)
(0.283904 -0.125753 2.30561e-20)
(0.366731 -0.112483 4.75898e-21)
(0.440654 -0.0996279 4.21016e-21)
(0.506563 -0.0882665 -2.07466e-20)
(0.565463 -0.0783023 -1.22322e-20)
(0.618129 -0.0694857 -2.71924e-21)
(0.664987 -0.0616493 1.86348e-20)
(0.0302845 -0.092375 -5.48756e-21)
(0.103863 -0.170901 6.89085e-21)
(0.203218 -0.186355 4.82969e-20)
(0.29455 -0.175029 -4.3347e-21)
(0.376131 -0.15661 -1.24067e-20)
(0.448863 -0.138739 8.91088e-21)
(0.513729 -0.122937 6.07793e-22)
(0.571752 -0.109074 3.14342e-21)
(0.623702 -0.0968008 -6.87769e-21)
(0.669741 -0.085912 -1.81671e-20)
(0.0382022 -0.117327 -3.7099e-21)
(0.118045 -0.217543 2.01578e-20)
(0.218384 -0.237539 -4.86286e-20)
(0.308624 -0.223286 2.10824e-20)
(0.388564 -0.199879 1.97477e-22)
(0.459723 -0.177116 -2.67466e-20)
(0.523211 -0.156978 1.18164e-20)
(0.580072 -0.139301 -1.09636e-21)
(0.631075 -0.123641 4.48779e-21)
(0.676042 -0.109779 -1.35301e-21)
(0.0479113 -0.141217 -4.2484e-20)
(0.135509 -0.26257 -5.0746e-20)
(0.237105 -0.287198 1.32885e-20)
(0.326022 -0.270248 -2.41463e-20)
(0.403945 -0.242054 -6.83891e-21)
(0.473161 -0.214559 1.01902e-20)
(0.534946 -0.190216 3.785e-21)
(0.590368 -0.168836 1.40568e-20)
(0.640199 -0.149877 -3.02869e-21)
(0.683856 -0.13314 1.62678e-20)
(0.0592886 -0.163833 4.06365e-20)
(0.156082 -0.305648 2.60904e-20)
(0.259226 -0.335015 -1.97713e-20)
(0.346617 -0.315645 3.3274e-20)
(0.422168 -0.282909 -2.85437e-21)
(0.48909 -0.250875 -3.59887e-20)
(0.548859 -0.222487 6.31625e-21)
(0.602574 -0.197535 -3.82268e-20)
(0.651015 -0.175382 1.47874e-21)
(0.693142 -0.155885 1.38595e-20)
(0.0721891 -0.184973 -3.02502e-20)
(0.179558 -0.34646 5.41271e-20)
(0.284563 -0.380687 2.12037e-20)
(0.370258 -0.359218 -2.62193e-20)
(0.44311 -0.322228 2.13915e-22)
(0.507403 -0.285879 6.63423e-20)
(0.564858 -0.253631 3.02592e-21)
(0.616609 -0.225262 2.94258e-20)
(0.663455 -0.200039 3.58063e-20)
(0.703853 -0.177909 -2.00491e-20)
(0.0864465 -0.204452 1.69603e-20)
(0.205702 -0.384706 -8.11004e-21)
(0.312901 -0.423924 -1.92376e-20)
(0.396771 -0.400722 1.45063e-20)
(0.466627 -0.359804 5.56528e-20)
(0.527979 -0.319396 -1.95494e-20)