/*--------------------------------*- C++ -*----------------------------------*\
  =========                 |
  \\      /  F ield         | OpenFOAM: The Open Source CFD Toolbox
   \\    /   O peration     | Website:  https://openfoam.org
    \\  /    A nd           | Version:  7
     \\/     M anipulation  |
\*---------------------------------------------------------------------------*/
FoamFile
{
    version     2.0;
    format      ascii;
    class       volScalarField;
    location    "115";
    object      p;
}
// * * * * * * * * * * * * * * * * * * * * * * * * * * * * * * * * * * * * * //

dimensions      [0 2 -2 0 0 0 0];

internalField   nonuniform List<scalar> 
8500
(
-0.410991
-0.412748
-0.413374
-0.414286
-0.416014
-0.418831
-0.422908
-0.428477
-0.435686
-0.444929
-0.406466
-0.408891
-0.40973
-0.410702
-0.412299
-0.414716
-0.418045
-0.422414
-0.427776
-0.434414
-0.402109
-0.405158
-0.406192
-0.40721
-0.408652
-0.410637
-0.413169
-0.416256
-0.419633
-0.423433
-0.39807
-0.401684
-0.402897
-0.403948
-0.405227
-0.406767
-0.408476
-0.41024
-0.411552
-0.412362
-0.39449
-0.398599
-0.399972
-0.401051
-0.402167
-0.403265
-0.404152
-0.404584
-0.403809
-0.401547
-0.391501
-0.396021
-0.397537
-0.398641
-0.3996
-0.400274
-0.400359
-0.399481
-0.396649
-0.39127
-0.389216
-0.394054
-0.395692
-0.396819
-0.397637
-0.397915
-0.397234
-0.395092
-0.390279
-0.381744
-0.387724
-0.392778
-0.394515
-0.395666
-0.396361
-0.396284
-0.39489
-0.391546
-0.384868
-0.373101
-0.387087
-0.392247
-0.394058
-0.395234
-0.39583
-0.395446
-0.393405
-0.388935
-0.380553
-0.365408
-0.387332
-0.392482
-0.394341
-0.395541
-0.396066
-0.395433
-0.392824
-0.387314
-0.377445
-0.358675
-0.388453
-0.393476
-0.395351
-0.396574
-0.397054
-0.396233
-0.393146
-0.386681
-0.375609
-0.352838
-0.39041
-0.395187
-0.397042
-0.398278
-0.398735
-0.397787
-0.394319
-0.386977
-0.375053
-0.347664
-0.393131
-0.397546
-0.399337
-0.400567
-0.401008
-0.399978
-0.396221
-0.388075
-0.375801
-0.342832
-0.396518
-0.400462
-0.402135
-0.403322
-0.403733
-0.402636
-0.398649
-0.389715
-0.377782
-0.338979
-0.400453
-0.403828
-0.405318
-0.406406
-0.406742
-0.40555
-0.401344
-0.39155
-0.379363
-0.33731
-0.404815
-0.407536
-0.408766
-0.409674
-0.409859
-0.408503
-0.40407
-0.394249
-0.380186
-0.336657
-0.409485
-0.411483
-0.412368
-0.412993
-0.412923
-0.411301
-0.406499
-0.396523
-0.38073
-0.336616
-0.414363
-0.415583
-0.416031
-0.416257
-0.415819
-0.413789
-0.408465
-0.3982
-0.380401
-0.336598
-0.419375
-0.41978
-0.419698
-0.419414
-0.41846
-0.415892
-0.409897
-0.399249
-0.378889
-0.336654
-0.424483
-0.424043
-0.423348
-0.422434
-0.420841
-0.417605
-0.410815
-0.399607
-0.376639
-0.340131
-0.429683
-0.428381
-0.426995
-0.425348
-0.423004
-0.41898
-0.411292
-0.399193
-0.374689
-0.350856
-0.435009
-0.432827
-0.430687
-0.428224
-0.425033
-0.420107
-0.411425
-0.398164
-0.373567
-0.351039
-0.440524
-0.437443
-0.4345
-0.431158
-0.427039
-0.421095
-0.411298
-0.39672
-0.372072
-0.348569
-0.446313
-0.442304
-0.438526
-0.434259
-0.429138
-0.422052
-0.41099
-0.394977
-0.370001
-0.345218
-0.452469
-0.447496
-0.442862
-0.437635
-0.431433
-0.423067
-0.41057
-0.392979
-0.367418
-0.34122
-0.459086
-0.453102
-0.447599
-0.441379
-0.434002
-0.424198
-0.410074
-0.390753
-0.364346
-0.33695
-0.466244
-0.459195
-0.452814
-0.445561
-0.436889
-0.425469
-0.4095
-0.388299
-0.360867
-0.332445
-0.474004
-0.465831
-0.458561
-0.450216
-0.440105
-0.426857
-0.408811
-0.385602
-0.357035
-0.327749
-0.482397
-0.473043
-0.464867
-0.455342
-0.44362
-0.428299
-0.407943
-0.382638
-0.352888
-0.322846
-0.491421
-0.480837
-0.471726
-0.460906
-0.447363
-0.429692
-0.406821
-0.379376
-0.34844
-0.317711
-0.501041
-0.489188
-0.479097
-0.466836
-0.45122
-0.430905
-0.405359
-0.375775
-0.34368
-0.312304
-0.511183
-0.498041
-0.486903
-0.473021
-0.455035
-0.431794
-0.403469
-0.371787
-0.338579
-0.306579
-0.521737
-0.5073
-0.495028
-0.479308
-0.458619
-0.432208
-0.401061
-0.367354
-0.333093
-0.300484
-0.532554
-0.516833
-0.503318
-0.485501
-0.461761
-0.431997
-0.398043
-0.362412
-0.327166
-0.293965
-0.543444
-0.526468
-0.511578
-0.491362
-0.464244
-0.431014
-0.39432
-0.356889
-0.320735
-0.286964
-0.554181
-0.535991
-0.519571
-0.496625
-0.465848
-0.429115
-0.389799
-0.350709
-0.313731
-0.279423
-0.564501
-0.545152
-0.527021
-0.501004
-0.466359
-0.426166
-0.384384
-0.343794
-0.306084
-0.271288
-0.574108
-0.553666
-0.533621
-0.504209
-0.465576
-0.422037
-0.377981
-0.336063
-0.297723
-0.262505
-0.582681
-0.561219
-0.539039
-0.505954
-0.46331
-0.416605
-0.370499
-0.327438
-0.28858
-0.253028
-0.589878
-0.567477
-0.542934
-0.505971
-0.459388
-0.409757
-0.36185
-0.317843
-0.278594
-0.242817
-0.595349
-0.572092
-0.544968
-0.504012
-0.453656
-0.401389
-0.351951
-0.307208
-0.267709
-0.231843
-0.598743
-0.574716
-0.544821
-0.499856
-0.445979
-0.391409
-0.340728
-0.295468
-0.255883
-0.220087
-0.59972
-0.575007
-0.542201
-0.493313
-0.436244
-0.379736
-0.328112
-0.282565
-0.243073
-0.207529
-0.597958
-0.572644
-0.536851
-0.484228
-0.42436
-0.366307
-0.314048
-0.268447
-0.229229
-0.194099
-0.593167
-0.567334
-0.52856
-0.472482
-0.410259
-0.351073
-0.2985
-0.25308
-0.214294
-0.17962
-0.585091
-0.558825
-0.517162
-0.457992
-0.3939
-0.334007
-0.281445
-0.236453
-0.19825
-0.163903
-0.573521
-0.546919
-0.502534
-0.440711
-0.375264
-0.315094
-0.262863
-0.218559
-0.181159
-0.147083
-0.558296
-0.531469
-0.484603
-0.420627
-0.354356
-0.294326
-0.242739
-0.19942
-0.163018
-0.12976
-0.539312
-0.512384
-0.463345
-0.397764
-0.3312
-0.271714
-0.22112
-0.179178
-0.143731
-0.111829
-0.516517
-0.489628
-0.438779
-0.372183
-0.305852
-0.24732
-0.198216
-0.157675
-0.12345
-0.0931631
-0.489916
-0.463225
-0.410982
-0.343983
-0.278403
-0.221322
-0.173886
-0.135027
-0.102261
-0.0737587
-0.459569
-0.43326
-0.380108
-0.31326
-0.248943
-0.193717
-0.148254
-0.111314
-0.0802308
-0.0536773
-0.425588
-0.39989
-0.346391
-0.280039
-0.217583
-0.164601
-0.121416
-0.0866276
-0.0574349
-0.0330176
-0.388149
-0.363342
-0.309925
-0.244468
-0.184465
-0.134105
-0.0934867
-0.0610625
-0.0339593
-0.0118917
-0.347487
-0.323909
-0.270243
-0.207163
-0.149806
-0.102378
-0.0645893
-0.0347221
-0.00989016
0.00961346
-0.303821
-0.281804
-0.228021
-0.168042
-0.113801
-0.0695872
-0.0348616
-0.00771377
0.0146852
0.0314078
-0.257352
-0.236585
-0.184466
-0.127382
-0.0766333
-0.0359062
-0.00444063
0.0198616
0.0396233
0.0531497
-0.208478
-0.189231
-0.139378
-0.0854708
-0.0385094
-0.00150499
0.0265566
0.0479197
0.0646395
0.0739998
-0.157696
-0.140008
-0.0929091
-0.0425761
0.000341841
0.0334416
0.0580225
0.0763579
0.0893907
0.0933596
-0.105268
-0.0893799
-0.0453606
0.00102912
0.0396815
0.0687451
0.0897963
0.104937
0.113777
0.113015
-0.0516133
-0.0377557
0.00291349
0.0450579
0.0792642
0.104195
0.121623
0.13325
0.137788
0.13799
0.00282798
0.0144651
0.051546
0.0892124
0.11884
0.139563
0.153232
0.161164
0.162332
0.162992
0.057612
0.0668765
0.100168
0.133188
0.158152
0.174621
0.184453
0.188755
0.187061
0.186624
0.112292
0.119067
0.148411
0.176679
0.196941
0.209137
0.215113
0.215897
0.211532
0.209231
0.166419
0.170622
0.195912
0.219379
0.234947
0.242892
0.245042
0.242414
0.235396
0.230814
0.219551
0.221134
0.242315
0.260987
0.271914
0.275669
0.274063
0.268125
0.258466
0.25141
0.271252
0.2702
0.287272
0.30121
0.307593
0.307258
0.301998
0.292855
0.280588
0.270986
0.321096
0.31743
0.330444
0.339763
0.341742
0.337453
0.32867
0.316445
0.301638
0.289484
0.368675
0.362449
0.371509
0.376372
0.37413
0.366059
0.35391
0.338747
0.321497
0.306833
0.413597
0.404899
0.41016
0.410777
0.404535
0.392886
0.377556
0.359624
0.340054
0.32296
0.455494
0.444444
0.446107
0.442735
0.43275
0.417757
0.399459
0.378946
0.357203
0.337792
0.494022
0.480769
0.479081
0.472016
0.45858
0.440507
0.419477
0.396593
0.372844
0.351258
0.528863
0.513588
0.508835
0.498412
0.481848
0.460985
0.437481
0.412454
0.386885
0.363295
0.559731
0.542638
0.535145
0.521734
0.502391
0.479053
0.453354
0.426429
0.39924
0.373845
0.586369
0.567687
0.557813
0.541812
0.520067
0.494588
0.466992
0.438428
0.409836
0.382857
0.608555
0.588536
0.576666
0.5585
0.534751
0.507485
0.478305
0.448375
0.418608
0.390287
0.626103
0.605015
0.591559
0.571677
0.546338
0.517654
0.487216
0.456202
0.425498
0.396098
0.638863
0.616987
0.602376
0.581243
0.554745
0.525024
0.493666
0.461858
0.430466
0.400271
0.646721
0.624351
0.609029
0.587124
0.559907
0.529541
0.497609
0.465303
0.433485
0.4028
0.649602
0.62704
0.61146
0.589271
0.561783
0.531169
0.499013
0.466512
0.434529
0.403638
0.647471
0.625019
0.609642
0.58766
0.560354
0.529893
0.497865
0.465471
0.433576
0.402786
0.640331
0.618293
0.603576
0.582295
0.55562
0.525713
0.494167
0.462182
0.43063
0.40023
0.628224
0.6069
0.593296
0.573201
0.547607
0.51865
0.487937
0.456662
0.425715
0.396004
0.611231
0.590911
0.578864
0.560434
0.53636
0.508744
0.479208
0.448939
0.418853
0.390126
0.58947
0.570435
0.560373
0.54407
0.521946
0.496051
0.468029
0.439057
0.410079
0.382613
0.5631
0.545613
0.537943
0.524214
0.504453
0.480648
0.454465
0.427072
0.39944
0.373492
0.532313
0.516619
0.511724
0.500992
0.48399
0.462626
0.438595
0.413052
0.386993
0.362803
0.497337
0.483661
0.481894
0.474555
0.460685
0.442097
0.420513
0.397078
0.372807
0.350589
0.458435
0.446975
0.448656
0.445074
0.434686
0.419185
0.400326
0.379243
0.356959
0.336905
0.415901
0.406829
0.412238
0.412745
0.406157
0.394031
0.378154
0.35965
0.339536
0.321811
0.370058
0.363516
0.372894
0.377781
0.375283
0.366792
0.35413
0.338412
0.320632
0.305373
0.321257
0.317356
0.330896
0.340415
0.342259
0.337636
0.328398
0.315653
0.30035
0.287662
0.269876
0.268692
0.286541
0.300894
0.307298
0.306743
0.301111
0.291503
0.278798
0.268752
0.216313
0.217888
0.24014
0.259485
0.270626
0.274306
0.272435
0.266105
0.256087
0.248716
0.160984
0.165327
0.192023
0.216465
0.232478
0.240524
0.242541
0.239608
0.232337
0.227622
0.104323
0.111407
0.142534
0.172125
0.1931
0.205608
0.21161
0.212178
0.207674
0.205519
0.0467759
0.0565356
0.0920267
0.126763
0.152746
0.16977
0.179823
0.183993
0.182257
0.182432
-0.0112042
0.0011319
0.0408661
0.0806868
0.111676
0.13323
0.147361
0.155243
0.156287
0.158306
-0.0691587
-0.054383
-0.0105764
0.0342077
0.0701564
0.0962126
0.114391
0.126107
0.130145
0.133165
-0.126628
-0.109589
-0.0619245
-0.0123613
0.028452
0.0589547
0.0810895
0.0967094
0.104321
0.106702
-0.183155
-0.164071
-0.112798
-0.0587097
-0.0131755
0.0216921
0.0476297
0.0669488
0.0791464
0.0804526
-0.238281
-0.217419
-0.162819
-0.104534
-0.0544716
-0.0153417
0.0142924
0.0369429
0.053585
0.059984
-0.29157
-0.269199
-0.211626
-0.149542
-0.0951853
-0.0519319
-0.0186523
0.00714063
0.0276613
0.0398998
-0.342805
-0.31889
-0.258922
-0.193454
-0.135071
-0.0878865
-0.0510365
-0.0221888
0.00151528
0.0182148
-0.391399
-0.36625
-0.30459
-0.235992
-0.173893
-0.123029
-0.0827556
-0.0509456
-0.0244953
-0.00442094
-0.436953
-0.410228
-0.348844
-0.276848
-0.211443
-0.157186
-0.113697
-0.0790574
-0.050085
-0.0270942
-0.479263
-0.451319
-0.390343
-0.315737
-0.247537
-0.19018
-0.143723
-0.106428
-0.075111
-0.0494449
-0.518095
-0.489308
-0.428297
-0.352804
-0.281969
-0.221836
-0.172693
-0.13295
-0.099487
-0.0713865
-0.553194
-0.523878
-0.463292
-0.387338
-0.314488
-0.252
-0.200479
-0.158516
-0.123128
-0.0928318
-0.584368
-0.554776
-0.495248
-0.419151
-0.344962
-0.280538
-0.226961
-0.183026
-0.145952
-0.113665
-0.611486
-0.581817
-0.523896
-0.448243
-0.373278
-0.307339
-0.252041
-0.206378
-0.167892
-0.133781
-0.634474
-0.604892
-0.549049
-0.474517
-0.399326
-0.3324
-0.275612
-0.22848
-0.188891
-0.153111
-0.653314
-0.623961
-0.570614
-0.497862
-0.423014
-0.35556
-0.297777
-0.249241
-0.208865
-0.171647
-0.668043
-0.639044
-0.588553
-0.518203
-0.444281
-0.376743
-0.318378
-0.268984
-0.227474
-0.189505
-0.678759
-0.650217
-0.602875
-0.535501
-0.463093
-0.395926
-0.337312
-0.287316
-0.244953
-0.206868
-0.685618
-0.657621
-0.613638
-0.549757
-0.479435
-0.413106
-0.354585
-0.304255
-0.261407
-0.223249
-0.68883
-0.661448
-0.620954
-0.561003
-0.493317
-0.428297
-0.370231
-0.319857
-0.276736
-0.238323
-0.688657
-0.661954
-0.624981
-0.569311
-0.504773
-0.441526
-0.384278
-0.334136
-0.29091
-0.25223
-0.685403
-0.659443
-0.625924
-0.574787
-0.513862
-0.452834
-0.396756
-0.347111
-0.303983
-0.265202
-0.679409
-0.654257
-0.624039
-0.577577
-0.520666
-0.462279
-0.407713
-0.35883
-0.316018
-0.277366
-0.671042
-0.646768
-0.619627
-0.577865
-0.525291
-0.469936
-0.417214
-0.369354
-0.327069
-0.288762
-0.660685
-0.637361
-0.613026
-0.575869
-0.527862
-0.47589
-0.425333
-0.37875
-0.33718
-0.299409
-0.648725
-0.626424
-0.6046
-0.571838
-0.528528
-0.480237
-0.432146
-0.387085
-0.346405
-0.309336
-0.635548
-0.614341
-0.594731
-0.566052
-0.527453
-0.483083
-0.437734
-0.394433
-0.354807
-0.318586
-0.621519
-0.601472
-0.5838
-0.558811
-0.52482
-0.484536
-0.442179
-0.400866
-0.362455
-0.327213
-0.60698
-0.588156
-0.572171
-0.55043
-0.520829
-0.484714
-0.44556
-0.406458
-0.36942
-0.335279
-0.592242
-0.574693
-0.56018
-0.541232
-0.515692
-0.483736
-0.447956
-0.411276
-0.375773
-0.34285
-0.577574
-0.561344
-0.548121
-0.531531
-0.509635
-0.481727
-0.44944
-0.415384
-0.38158
-0.349994
-0.563202
-0.548329
-0.536242
-0.521622
-0.502889
-0.478816
-0.450079
-0.418833
-0.386902
-0.356779
-0.549312
-0.535819
-0.524741
-0.511759
-0.495689
-0.475138
-0.449936
-0.421665
-0.391792
-0.363273
-0.536043
-0.52394
-0.51377
-0.502145
-0.488259
-0.470835
-0.449071
-0.423911
-0.39629
-0.369544
-0.5235
-0.512778
-0.503435
-0.49293
-0.480802
-0.466056
-0.447542
-0.425588
-0.400422
-0.375656
-0.511754
-0.502383
-0.493804
-0.484217
-0.473483
-0.460953
-0.445417
-0.42671
-0.404197
-0.381675
-0.500854
-0.49278
-0.484907
-0.476065
-0.466426
-0.455676
-0.442777
-0.427285
-0.407613
-0.387658
-0.490836
-0.483978
-0.476754
-0.468512
-0.459712
-0.450367
-0.43972
-0.427332
-0.410645
-0.393689
-0.48173
-0.475983
-0.469343
-0.461578
-0.453402
-0.445148
-0.436368
-0.426884
-0.413279
-0.399804
-0.473569
-0.468799
-0.462671
-0.455284
-0.447552
-0.440128
-0.432863
-0.426012
-0.415467
-0.40618
-0.466389
-0.462433
-0.456744
-0.449654
-0.44223
-0.435419
-0.429358
-0.42481
-0.417262
-0.412659
-0.460215
-0.456897
-0.451577
-0.444728
-0.43752
-0.431147
-0.426016
-0.423428
-0.418631
-0.419519
-0.455013
-0.452232
-0.447189
-0.440545
-0.433512
-0.427457
-0.423034
-0.422027
-0.419593
-0.425512
-0.450835
-0.448381
-0.443582
-0.437142
-0.43029
-0.424493
-0.420663
-0.420646
-0.4214
-0.422274
-0.447629
-0.445315
-0.44074
-0.434529
-0.427905
-0.422379
-0.419125
-0.41948
-0.424004
-0.42245
-0.445304
-0.442976
-0.438615
-0.432678
-0.426366
-0.42119
-0.418556
-0.419002
-0.426992
-0.424749
-0.443736
-0.441277
-0.437126
-0.431522
-0.42563
-0.420927
-0.418976
-0.41959
-0.430092
-0.427667
-0.442773
-0.440114
-0.43617
-0.430962
-0.425602
-0.421515
-0.42031
-0.421373
-0.43326
-0.431404
-0.442259
-0.439358
-0.43563
-0.430875
-0.426149
-0.422811
-0.422412
-0.42425
-0.436626
-0.436417
-0.442029
-0.438882
-0.435385
-0.43113
-0.427118
-0.424636
-0.4251
-0.427952
-0.440342
-0.442647
-0.441922
-0.438562
-0.435315
-0.431593
-0.428349
-0.426787
-0.428158
-0.432142
-0.444444
-0.449614
-0.441787
-0.43828
-0.435303
-0.432135
-0.429681
-0.429059
-0.431352
-0.436483
-0.448793
-0.456734
-0.441492
-0.437927
-0.435242
-0.432633
-0.43096
-0.431255
-0.434443
-0.440657
-0.453113
-0.46349
-0.440922
-0.437405
-0.435031
-0.432969
-0.432041
-0.43319
-0.437206
-0.444382
-0.457076
-0.469489
-0.439981
-0.436625
-0.434579
-0.433039
-0.432792
-0.434699
-0.43944
-0.447418
-0.460371
-0.474416
-0.438596
-0.435515
-0.433806
-0.43275
-0.433103
-0.435646
-0.440978
-0.449568
-0.462728
-0.478007
-0.436717
-0.434019
-0.432648
-0.432028
-0.432884
-0.435928
-0.441692
-0.450683
-0.463933
-0.480042
-0.434318
-0.432101
-0.431064
-0.430823
-0.43208
-0.435479
-0.441501
-0.450669
-0.463836
-0.480343
-0.431401
-0.429747
-0.429033
-0.429113
-0.430665
-0.434272
-0.440374
-0.449486
-0.46235
-0.478782
-0.427994
-0.426968
-0.426563
-0.426904
-0.42865
-0.432326
-0.438327
-0.447149
-0.459454
-0.475297
-0.424156
-0.423806
-0.423689
-0.424234
-0.426084
-0.429697
-0.435427
-0.443733
-0.455175
-0.469963
-0.419966
-0.420322
-0.420468
-0.421176
-0.423046
-0.426483
-0.431787
-0.439359
-0.449642
-0.463038
-0.415537
-0.416599
-0.416995
-0.417821
-0.419645
-0.42281
-0.427554
-0.434203
-0.443066
-0.454592
-0.465638
-0.496537
-0.528963
-0.534462
-0.493444
-0.408572
-0.322491
-0.265307
-0.252554
-0.270275
-0.275593
-0.234323
-0.177656
-0.130159
-0.106568
-0.0988865
-0.106354
-0.122145
-0.114431
-0.0936981
-0.0863763
-0.0728898
-0.0488412
-0.0576049
-0.067278
-0.0702318
-0.0532174
-0.0464396
-0.0142979
-0.0179045
-0.450664
-0.475249
-0.501921
-0.504248
-0.466232
-0.389679
-0.312995
-0.265652
-0.262876
-0.287468
-0.293069
-0.246229
-0.184713
-0.132309
-0.105419
-0.0951145
-0.0999666
-0.114281
-0.107306
-0.0909186
-0.085444
-0.0727076
-0.0493797
-0.0585634
-0.0684124
-0.0708616
-0.0531119
-0.0461965
-0.0148779
-0.0179547
-0.435202
-0.452811
-0.473082
-0.471672
-0.436589
-0.368439
-0.301243
-0.264331
-0.272003
-0.303765
-0.309146
-0.257053
-0.190999
-0.134176
-0.104168
-0.091435
-0.0937747
-0.106587
-0.100168
-0.0880525
-0.0844125
-0.0725324
-0.04997
-0.0595342
-0.0695543
-0.0714489
-0.0529663
-0.0459691
-0.0155178
-0.0180219
-0.419816
-0.429901
-0.44315
-0.437328
-0.404855
-0.344868
-0.287171
-0.261152
-0.279703
-0.318736
-0.323651
-0.266749
-0.196526
-0.135788
-0.102853
-0.0878976
-0.0878511
-0.0991458
-0.0930838
-0.085109
-0.0832841
-0.0723709
-0.0506134
-0.0605118
-0.0706946
-0.0719906
-0.0527802
-0.0457574
-0.0162142
-0.0181057
-0.405012
-0.407174
-0.412863
-0.401928
-0.37145
-0.319141
-0.27081
-0.255981
-0.285761
-0.331969
-0.336421
-0.275278
-0.201311
-0.13717
-0.101514
-0.0845428
-0.0822582
-0.0920301
-0.0861253
-0.0820994
-0.0820622
-0.0722284
-0.0513105
-0.0614911
-0.0718231
-0.0724837
-0.0525529
-0.045561
-0.0169632
-0.0182058
-0.391185
-0.385202
-0.38301
-0.366244
-0.336962
-0.291627
-0.252287
-0.248759
-0.289977
-0.343112
-0.347315
-0.282612
-0.205378
-0.138345
-0.100183
-0.0814015
-0.0770457
-0.0853047
-0.079366
-0.0790379
-0.0807517
-0.0721087
-0.0520605
-0.0624668
-0.0729069
-0.0729252
-0.0522841
-0.0453787
-0.0177604
-0.0183213
-0.378671
-0.364535
-0.354348
-0.331276
-0.302163
-0.262863
-0.231889
-0.239539
-0.292182
-0.351904
-0.356235
-0.288738
-0.208758
-0.139338
-0.098889
-0.0784956
-0.0722491
-0.0790236
-0.0728784
-0.0759416
-0.0793587
-0.0720145
-0.0528619
-0.063434
-0.0739827
-0.0733125
-0.0519734
-0.0452087
-0.0186008
-0.0184512
-0.367722
-0.345621
-0.32758
-0.305821
-0.267954
-0.233522
-0.210074
-0.228489
-0.29225
-0.358179
-0.363114
-0.293655
-0.211486
-0.14017
-0.0976564
-0.0758379
-0.0678892
-0.0732295
-0.0667366
-0.0728313
-0.0778905
-0.0719469
-0.0537119
-0.0643874
-0.0750237
-0.073643
-0.0516203
-0.0450487
-0.019479
-0.018594
-0.358498
-0.328794
-0.302862
-0.273025
-0.234875
-0.204382
-0.187458
-0.215881
-0.290121
-0.36186
-0.367924
-0.297374
-0.213598
-0.140857
-0.0965051
-0.0734334
-0.0639716
-0.0679524
-0.0610134
-0.0697318
-0.0763559
-0.0719059
-0.0546065
-0.065322
-0.0760193
-0.0739139
-0.0512248
-0.0448958
-0.0203886
-0.0187478
-0.351077
-0.314293
-0.280818
-0.243196
-0.203885
-0.176279
-0.164741
-0.202067
-0.285818
-0.362946
-0.370674
-0.299917
-0.215133
-0.141415
-0.0954505
-0.0712802
-0.0604874
-0.0632082
-0.0557466
-0.0666729
-0.0747647
-0.0718901
-0.0555408
-0.0662325
-0.0769609
-0.0741224
-0.0507869
-0.044747
-0.0213228
-0.0189102
-0.345461
-0.302263
-0.261876
-0.217418
-0.175591
-0.150072
-0.142648
-0.187445
-0.279452
-0.36151
-0.371411
-0.301317
-0.216128
-0.141857
-0.0945042
-0.0693719
-0.0574155
-0.0589995
-0.0509962
-0.0636866
-0.0731275
-0.0718969
-0.0565088
-0.0671137
-0.0778408
-0.0742659
-0.0503066
-0.0445988
-0.0222739
-0.0190786
-0.341627
-0.292764
-0.246221
-0.19567
-0.150239
-0.126515
-0.121872
-0.172426
-0.271214
-0.35769
-0.370218
-0.301614
-0.216625
-0.142196
-0.0936778
-0.0677
-0.0547258
-0.0553155
-0.0467929
-0.0608052
-0.0714554
-0.071923
-0.057504
-0.0679606
-0.0786516
-0.0743415
-0.0497844
-0.0444478
-0.0232341
-0.0192495
-0.339491
-0.285716
-0.233854
-0.177731
-0.12966
-0.105349
-0.102989
-0.157402
-0.261358
-0.351689
-0.367219
-0.300854
-0.21667
-0.142452
-0.0929824
-0.0662547
-0.0523817
-0.0521309
-0.0431482
-0.0580607
-0.0697596
-0.0719636
-0.0585188
-0.0687681
-0.0793864
-0.0743464
-0.0492207
-0.0442898
-0.0241947
-0.0194195
-0.338291
-0.280813
-0.22461
-0.163235
-0.113127
-0.0877186
-0.0863726
-0.142727
-0.25018
-0.343763
-0.362556
-0.299089
-0.216302
-0.142624
-0.0924156
-0.0650166
-0.0503395
-0.0494021
-0.040059
-0.0554823
-0.068051
-0.0720133
-0.0595457
-0.0695311
-0.0800396
-0.0742776
-0.048616
-0.0441194
-0.0251471
-0.0195846
-0.337599
-0.27829
-0.21818
-0.152766
-0.100313
-0.0736909
-0.0722348
-0.128703
-0.238
-0.334194
-0.35638
-0.296367
-0.21552
-0.142667
-0.0919397
-0.063948
-0.0485494
-0.0470681
-0.0375007
-0.053093
-0.0663398
-0.0720655
-0.0605763
-0.0702447
-0.0806076
-0.0741334
-0.0479715
-0.0439312
-0.0260813
-0.0197404
-0.337503
-0.277724
-0.214629
-0.145543
-0.0916562
-0.0630261
-0.0606654
-0.115576
-0.225145
-0.323256
-0.34887
-0.292747
-0.214305
-0.14254
-0.091524
-0.0630241
-0.046976
-0.0450709
-0.0354289
-0.0509042
-0.0646344
-0.0721124
-0.0616027
-0.0709043
-0.0810886
-0.0739125
-0.0472873
-0.0437245
-0.0269877
-0.0198822
-0.337631
-0.27834
-0.213412
-0.141744
-0.0855424
-0.0555072
-0.0516338
-0.103535
-0.21194
-0.311236
-0.340245
-0.28839
-0.212837
-0.142455
-0.0913167
-0.062337
-0.0456402
-0.0433971
-0.03383
-0.0489194
-0.0629391
-0.0721449
-0.0626165
-0.0715042
-0.08147
-0.0736087
-0.0465631
-0.0435074
-0.0278634
-0.0200058
-0.337582
-0.279714
-0.214122
-0.140886
-0.0874576
-0.0510346
-0.0450115
-0.092675
-0.198652
-0.298411
-0.330471
-0.283544
-0.21162
-0.142923
-0.0916611
-0.0620802
-0.0445904
-0.0420408
-0.0327824
-0.0471881
-0.0612631
-0.0721514
-0.0636052
-0.0720236
-0.0817075
-0.0732046
-0.0458004
-0.0432844
-0.0287113
-0.0201086
-0.337718
-0.282152
-0.217184
-0.143107
-0.084341
-0.0496185
-0.0408446
-0.0829417
-0.185014
-0.284405
-0.319006
-0.277889
-0.210367
-0.143505
-0.0922182
-0.0619929
-0.0436529
-0.0407641
-0.0321984
-0.0457923
-0.0596548
-0.07212
-0.0645427
-0.0724334
-0.0817944
-0.0727017
-0.0450103
-0.043018
-0.029499
-0.0201869
-0.336773
-0.283193
-0.220121
-0.147056
-0.0877913
-0.0509662
-0.0394894
-0.075855
-0.172386
-0.270203
-0.307233
-0.269943
-0.206016
-0.141065
-0.0907426
-0.0606665
-0.0422243
-0.0389511
-0.031153
-0.044174
-0.0579056
-0.0720504
-0.0655364
-0.0729582
-0.0820949
-0.0722056
-0.0442027
-0.0426026
-0.0300992
-0.0202177
-0.321193
-0.275404
-0.213901
-0.141839
-0.0824845
-0.0488935
-0.0377266
-0.0716185
-0.166917
-0.264404
-0.298613
-0.259551
-0.197001
-0.13434
-0.0861472
-0.0573371
-0.0399763
-0.0361115
-0.0279664
-0.0397108
-0.0534526
-0.0715137
-0.0680761
-0.0746611
-0.0835397
-0.0718512
-0.0431847
-0.041867
-0.0305756
-0.0201854
-0.303769
-0.261752
-0.203674
-0.137098
-0.082774
-0.0525885
-0.042859
-0.0739973
-0.161357
-0.250009
-0.279559
-0.242016
-0.183843
-0.126
-0.0813684
-0.054171
-0.0376008
-0.0334125
-0.0267873
-0.0388112
-0.0507144
-0.0717089
-0.0702951
-0.0752382
-0.0833025
-0.0706664
-0.0414572
-0.0407793
-0.0316168
-0.020419
-0.286891
-0.247976
-0.194112
-0.134199
-0.0852302
-0.0584487
-0.0508489
-0.0794714
-0.156587
-0.234016
-0.258533
-0.22384
-0.170838
-0.117882
-0.0765736
-0.0509624
-0.0352021
-0.0307821
-0.0258438
-0.0384778
-0.0490069
-0.0722127
-0.0720556
-0.0752464
-0.0825579
-0.0691491
-0.039544
-0.0395437
-0.0326783
-0.0207021
-0.270504
-0.234748
-0.185626
-0.132706
-0.0892899
-0.0655222
-0.0595089
-0.084715
-0.150851
-0.216431
-0.236344
-0.205165
-0.157662
-0.109599
-0.071649
-0.0477063
-0.0327363
-0.0281458
-0.0249207
-0.0378488
-0.047148
-0.0725465
-0.0738408
-0.0751658
-0.0814735
-0.067254
-0.0374186
-0.0381169
-0.0336542
-0.0209519
-0.253603
-0.221815
-0.177758
-0.131801
-0.0938235
-0.0727219
-0.0677525
-0.08884
-0.143652
-0.197648
-0.213656
-0.186469
-0.144624
-0.10134
-0.06664
-0.0443879
-0.0301692
-0.0254259
-0.0239568
-0.037
-0.0449323
-0.0726129
-0.075755
-0.0749336
-0.0798835
-0.0649145
-0.0350573
-0.0364758
-0.0345131
-0.0211621
-0.23628
-0.209058
-0.170168
-0.130668
-0.0978923
-0.0791602
-0.0747903
-0.0915119
-0.135325
-0.178689
-0.191433
-0.16832
-0.131947
-0.0931858
-0.0615726
-0.0409951
-0.0274658
-0.0225636
-0.0228466
-0.0359406
-0.0424352
-0.0723588
-0.0776123
-0.0743766
-0.0776713
-0.062079
-0.032437
-0.0345893
-0.0352041
-0.0213186
-0.219022
-0.19647
-0.162682
-0.129
-0.100947
-0.0843207
-0.0801798
-0.0927048
-0.126513
-0.160516
-0.170505
-0.151143
-0.1198
-0.0852255
-0.0564831
-0.0375158
-0.0245904
-0.019491
-0.0214589
-0.0345518
-0.0396467
-0.0715639
-0.0791713
-0.0733863
-0.0747594
-0.0586959
-0.0295341
-0.03242
-0.035661
-0.021388
-0.202155
-0.18404
-0.155154
-0.126587
-0.102723
-0.0879961
-0.0838435
-0.0926347
-0.117853
-0.143808
-0.151387
-0.135207
-0.108299
-0.0775192
-0.0514032
-0.0339357
-0.0215075
-0.0161325
-0.0196333
-0.0326311
-0.0364135
-0.0698782
-0.0802076
-0.0718644
-0.071077
-0.0547162
-0.0263268
-0.0299231
-0.0358042
-0.0213255
-0.185866
-0.17178
-0.147487
-0.123388
-0.103184
-0.0901879
-0.0859165
-0.0915704
-0.109706
-0.128901
-0.134284
-0.120626
-0.0975063
-0.0701078
-0.0463636
-0.0302422
-0.018185
-0.0124114
-0.0171617
-0.0298923
-0.0324746
-0.0669133
-0.080466
-0.0696876
-0.066568
-0.0501002
-0.0227963
-0.0270461
-0.0355421
-0.0210784
-0.170303
-0.159734
-0.139645
-0.119446
-0.102412
-0.0909958
-0.0866011
-0.0897304
-0.1022
-0.115804
-0.119164
-0.107405
-0.0874467
-0.0630176
-0.0413927
-0.0264272
-0.0145984
-0.00826195
-0.0137811
-0.0259505
-0.0274949
-0.0622694
-0.079636
-0.06672
-0.0612059
-0.0448242
-0.0189295
-0.0237302
-0.0347718
-0.020586
-0.155541
-0.147947
-0.13163
-0.11484
-0.100539
-0.0905607
-0.0860984
-0.0872618
-0.0952924
-0.104343
-0.105868
-0.0954827
-0.07812
-0.0562655
-0.0365163
-0.0224924
-0.0107377
-0.00363996
-0.0092003
-0.020334
-0.0210743
-0.0555626
-0.0773666
-0.0628326
-0.0550046
-0.0388883
-0.0147217
-0.0199112
-0.0333806
-0.0197809
-0.141597
-0.136469
-0.12347
-0.109658
-0.0977151
-0.0890389
-0.0845871
-0.0842681
-0.0888773
-0.0942865
-0.0941898
-0.0847656
-0.0695085
-0.0498632
-0.0317582
-0.018454
-0.00662012
0.0014634
-0.00313919
-0.0125542
-0.0127628
-0.0465094
-0.0733128
-0.0579176
-0.0480265
-0.0323264
-0.0101804
-0.0155232
-0.0312509
-0.0185923
-0.12847
-0.12535
-0.11522
-0.103999
-0.094091
-0.0865879
-0.0822281
-0.080822
-0.0828484
-0.0854001
-0.0839164
-0.0751489
-0.0615834
-0.0438201
-0.0271419
-0.014349
-0.00229613
0.00699189
0.0045997
-0.00220118
-0.00214843
-0.0350643
-0.0672112
-0.051854
-0.0403871
-0.0252149
-0.00533049
-0.0105064
-0.0282688
-0.016951
-0.116154
-0.114637
-0.106947
-0.0979667
-0.0898151
-0.0833651
-0.0791602
-0.0770002
-0.0771183
-0.0774792
-0.0748503
-0.0665272
-0.0543099
-0.0381449
-0.022692
-0.0102409
0.00214967
0.0127992
0.0139573
0.010858
0.0109403
-0.021575
-0.058973
-0.0447665
-0.0322563
-0.0176792
-0.000216988
-0.00482159
-0.0243328
-0.0147982
-0.104637
-0.104374
-0.098727
-0.0916683
-0.0850309
-0.0795276
-0.075539
-0.0728783
-0.0716264
-0.0703538
-0.0668158
-0.0588002
-0.047651
-0.0328479
-0.0184343
-0.00621574
0.00659236
0.0186456
0.024401
0.0260232
0.0260244
-0.00690773
-0.0487082
-0.0367036
-0.0238398
-0.00989398
0.00509356
0.00153327
-0.0193029
-0.0120987
-0.0939023
-0.0945978
-0.0906368
-0.085211
-0.0798753
-0.0752194
-0.0714943
-0.0685367
-0.0663371
-0.0638881
-0.0596613
-0.051875
-0.0415709
-0.0279387
-0.0143982
-0.00236287
0.0108663
0.0242194
0.0348073
0.041306
0.0414186
0.00765018
-0.0366496
-0.0278455
-0.0153597
-0.00207457
0.0105117
0.00849983
-0.0132947
-0.00885943
-0.0839356
-0.0853411
-0.0827508
-0.0786987
-0.0744766
-0.0705755
-0.0671457
-0.0640546
-0.0612337
-0.0579762
-0.0532584
-0.045667
-0.036037
-0.0234234
-0.010619
0.00124149
0.0147872
0.0291989
0.0437345
0.0540319
0.0545241
0.0208523
-0.0231695
-0.0184619
-0.00705529
0.00553981
0.0159192
0.0159407
-0.00635839
-0.00514991
-0.0747193
-0.0766306
-0.0751377
-0.0722289
-0.0689542
-0.0657227
-0.062607
-0.0595062
-0.056314
-0.0525383
-0.0475018
-0.040101
-0.03102
-0.0193009
-0.00713783
0.00453347
0.0181905
0.03329
0.0501094
0.0624372
0.0634
0.0319163
-0.00904769
-0.00894072
0.000825674
0.0127091
0.0211481
0.0236336
0.00128178
-0.00112388
-0.0662356
-0.0684875
-0.0678595
-0.0658913
-0.0634174
-0.0607762
-0.0579822
-0.054962
-0.0515862
-0.0475164
-0.0423073
-0.0351108
-0.0264935
-0.0155648
-0.00399427
0.00745483
0.0209533
0.0362683
0.0535654
0.0662267
0.0677444
0.0404741
0.00440088
0.000242053
0.00806212
0.0192258
0.0260057
0.0312168
0.00923464
0.00296929
-0.0584662
-0.0609281
-0.0609701
-0.0597667
-0.0579653
-0.0558394
-0.0533648
-0.0504877
-0.0470666
-0.0428715
-0.0376098
-0.0306397
-0.0224329
-0.0122072
-0.00121583
0.00996161
0.0230292
0.0380571
0.0545687
0.0665825
0.0685672
0.0464048
0.0159421
0.00867861
0.0145102
0.0249388
0.0303145
0.0381441
0.0169435
0.00680607
-0.0513935
-0.0539645
-0.0545159
-0.0539272
-0.0526861
-0.0510051
-0.0488393
-0.0461453
-0.0427769
-0.0385798
-0.0333609
-0.0266408
-0.0188142
-0.00922002
0.00118862
0.0120302
0.0244508
0.0387519
0.053893
0.0647921
0.0671337
0.0498944
0.0249774
0.0161118
0.0201147
0.0297655
0.0339543
0.0437526
0.0237564
0.0100563
-0.0450013
-0.0476061
-0.0485369
-0.0484359
-0.047657
-0.0463632
-0.0444845
-0.0419932
-0.038743
-0.0346304
-0.0295261
-0.0230763
-0.015614
-0.00659425
0.00322844
0.0136626
0.0253074
0.0385602
0.0515206
0.0618065
0.0644589
0.0514741
0.0315838
0.0224024
0.0248841
0.0336752
0.0368845
0.0474775
0.0291551
0.0124738
-0.0392756
-0.0418605
-0.043067
-0.0433481
-0.042947
-0.0419814
-0.0403677
-0.0380852
-0.0349936
-0.0310223
-0.026083
-0.0199174
-0.0128087
-0.00431855
0.00492724
0.0148889
0.025717
0.0378227
0.0493419
0.0583861
0.0612413
0.0517477
0.036184
0.0273781
0.0288641
0.0366789
0.0391162
0.0490184
0.0328693
0.0140177
-0.0342066
-0.0367358
-0.0381369
-0.0387131
-0.0386173
-0.0379262
-0.0365512
-0.0344729
-0.03156
-0.0277628
-0.0230191
-0.0171431
-0.0103764
-0.00237725
0.00631622
0.0157607
0.0257942
0.0367618
0.047039
0.0549654
0.057921
0.0512162