/*--------------------------------*- C++ -*----------------------------------*\
  =========                 |
  \\      /  F ield         | OpenFOAM: The Open Source CFD Toolbox
   \\    /   O peration     | Website:  https://openfoam.org
    \\  /    A nd           | Version:  7
     \\/     M anipulation  |
\*---------------------------------------------------------------------------*/
FoamFile
{
    version     2.0;
    format      ascii;
    class       surfaceScalarField;
    location    "115";
    object      phi;
}
// * * * * * * * * * * * * * * * * * * * * * * * * * * * * * * * * * * * * * //

dimensions      [0 3 -1 0 0 0 0];

internalField   nonuniform List<scalar> 
16735
(
-6.65528e-05
-0.00200843
0.00207499
-0.000272828
-0.005181
0.00538728
-0.000624138
-0.00775986
0.00811117
-0.00110662
-0.00975332
0.0102358
-0.0016923
-0.0113166
0.0119023
-0.00234875
-0.0126808
0.0133372
-0.00304836
-0.0140507
0.0147503
-0.00377388
-0.0155288
0.0162543
-0.00451787
-0.0170842
0.0178282
-0.0185246
0.0192886
-0.00528187
-9.73195e-05
-0.00191111
-0.000369899
-0.00490842
-0.000807853
-0.00732191
-0.00138782
-0.00917336
-0.0020786
-0.0106258
-0.00285026
-0.0119091
-0.00368208
-0.0132189
-0.00456736
-0.0146435
-0.00551224
-0.0161393
-0.0175036
-0.00653318
-0.000126516
-0.0017846
-0.000460308
-0.00457463
-0.000976122
-0.00680609
-0.00164117
-0.00850831
-0.00242071
-0.00984628
-0.00328582
-0.011044
-0.00421977
-0.0122849
-0.00522236
-0.0136409
-0.00630936
-0.0150523
-0.0163048
-0.00750818
-0.000153272
-0.00163133
-0.000541722
-0.00418618
-0.0011252
-0.00622261
-0.00186184
-0.00777167
-0.00271297
-0.00899514
-0.003649
-0.010108
-0.00465376
-0.0112802
-0.00572861
-0.0125661
-0.00689383
-0.0138871
-0.0150153
-0.00818338
-0.00017679
-0.00145454
-0.000612067
-0.0037509
-0.00125185
-0.00558283
-0.0020458
-0.00697772
-0.00295101
-0.00808994
-0.00393551
-0.00912346
-0.00498013
-0.0102355
-0.00608232
-0.0114639
-0.00726064
-0.0127088
-0.0137256
-0.00855032
-0.00019635
-0.00125819
-0.000669497
-0.00327776
-0.0013532
-0.00489913
-0.0021895
-0.00614142
-0.00313111
-0.00714833
-0.00414222
-0.00811235
-0.00519733
-0.00918044
-0.00628431
-0.0103769
-0.00741298
-0.0115801
-0.0125255
-0.00861304
-0.000211309
-0.00104688
-0.000712359
-0.00277671
-0.00142664
-0.00418485
-0.0022896
-0.00527846
-0.00324957
-0.00618835
-0.0042659
-0.00709603
-0.00530404
-0.0081423
-0.00633697
-0.00934398
-0.00735824
-0.0105588
-0.0115019
-0.00838194
-0.000221107
-0.00082577
-0.000739183
-0.00225863
-0.0014697
-0.00345433
-0.0023426
-0.00440556
-0.00330204
-0.00522891
-0.00430187
-0.00609621
-0.00529677
-0.0071474
-0.00624036
-0.00840039
-0.00710265
-0.00969655
-0.0107368
-0.00786773
-0.000225294
-0.000600476
-0.000748725
-0.0017352
-0.0014801
-0.00272296
-0.00234487
-0.00354079
-0.00328316
-0.00429062
-0.00424303
-0.00513633
-0.00516763
-0.00622281
-0.00598813
-0.0075799
-0.00664512
-0.00903956
-0.0103073
-0.00707459
-0.000223566
-0.00037691
-0.000740067
-0.0012187
-0.00145589
-0.00200714
-0.00229278
-0.0027039
-0.00318667
-0.00339672
-0.00407961
-0.00424339
-0.0049032
-0.00539922
-0.00556474
-0.00691835
-0.00597189
-0.00863242
-0.0102842
-0.00599497
-0.000215825
-0.000161085
-0.000712777
-0.000721747
-0.00139579
-0.00132413
-0.00218324
-0.00191645
-0.00300626
-0.0025737
-0.00380011
-0.00344954
-0.00448523
-0.0047141
-0.00494541
-0.00645818
-0.00505428
-0.00852355
-0.0107288
-0.00460966
-0.000202251
4.11656e-05
-0.000667109
-0.000256889
-0.00129957
-0.000691663
-0.00201452
-0.0012015
-0.0027369
-0.00185133
-0.00339353
-0.0027929
-0.00389366
-0.00421397
-0.00409926
-0.00625258
-0.00385084
-0.00877197
-0.0116825
-0.00289716
-0.000183358
0.000224524
-0.000604164
0.000163917
-0.00116853
-0.000127296
-0.00178712
-0.000582913
-0.00237668
-0.00126177
-0.00285283
-0.00231675
-0.00311219
-0.00395461
-0.00299571
-0.00636905
-0.00230636
-0.00946132
-0.0131158
-0.000873052
-0.000159929
0.000384452
-0.000525997
0.000529985
-0.0010057
0.000352411
-0.00150446
-8.41617e-05
-0.00192838
-0.000837848
-0.00217837
-0.00206676
-0.00213672
-0.00399626
-0.00162292
-0.00688285
-0.000295088
-0.0107892
-0.0150765
0.00166555
-0.000133132
0.000517584
-0.000435539
0.000832392
-0.000815874
0.000732746
-0.00117303
0.000272999
-0.00139994
-0.000610942
-0.00137907
-0.00208763
-0.000976807
-0.00439853
-5.49714e-05
-0.00780469
0.0018781
-0.0127222
-0.0178344
0.00463607
-0.000104324
0.000621908
-0.000336419
0.00106449
-0.000605249
0.00100158
-0.000801801
0.000469551
-0.000803608
-0.000609135
-0.000471656
-0.00241958
0.000355812
-0.00522599
0.00186321
-0.00931209
0.00438897
-0.015248
-0.0212851
0.00783964
-7.49267e-05
0.000696835
-0.000232526
0.00122209
-0.00038068
0.00114973
-0.000401014
0.000489885
-0.000154546
-0.000855602
0.000522509
-0.00309663
0.00181472
-0.0065182
0.00391181
-0.0114092
0.00712014
-0.0184563
-0.0253035
0.0111385
-4.62524e-05
0.000743087
-0.000127505
0.00130334
-0.000148699
0.00117092
1.81818e-05
0.000323004
0.000533996
-0.00137142
0.00158251
-0.00414515
0.00337073
-0.00830642
0.00608748
-0.0141259
0.0099399
-0.0223087
-0.0297349
0.0143714
-1.93293e-05
0.000762417
-2.42151e-05
0.00130822
8.57977e-05
0.00106091
0.000452106
-4.33036e-05
0.00125112
-0.00217043
0.00269224
-0.00558627
0.00499532
-0.0106095
0.00834713
-0.0174777
0.0127313
-0.026693
-0.0344031
0.0173995
5.23106e-06
0.000757185
7.53938e-05
0.00123806
0.000319642
0.000816663
0.000892669
-0.00061633
0.00199094
-0.0032687
0.00384253
-0.00743786
0.00666698
-0.0134339
0.0106288
-0.0214396
0.0154121
-0.0314762
-0.039156
0.020165
2.73177e-05
0.000729868
0.000171191
0.00109419
0.000552247
0.000435607
0.00134101
-0.00140509
0.00275292
-0.00468061
0.00502802
-0.00971296
0.00836301
-0.0167689
0.0128353
-0.0259118
0.0179149
-0.0365559
-0.0461608
0.0249197
4.73726e-05
0.000682495
0.000264205
0.000877356
0.000785858
-8.60457e-05
0.00180037
-0.0024196
0.00353981
-0.00642005
0.00624321
-0.0124164
0.0100545
-0.0205803
0.0149031
-0.0307605
0.0202838
-0.0419365
-0.0525058
0.0266288
6.62661e-05
0.000616229
0.000356833
0.000586789
0.00102472
-0.000753934
0.00227634
-0.00367122
0.00435489
-0.0084986
0.00747745
-0.0155389
0.0116976
-0.0248004
0.016769
-0.0358318
0.0221711
-0.0473386
-0.0581228
0.0277881
8.51881e-05
0.000531041
0.000452312
0.000219665
0.0012742
-0.00157582
0.00277481
-0.00517184
0.00519822
-0.010922
0.00871058
-0.0190513
0.0132367
-0.0293265
0.018365
-0.0409601
0.0235355
-0.0525092
-0.0630915
0.0285042
0.000105449
0.000425592
0.000554112
-0.000228998
0.00153954
-0.00256124
0.00329967
-0.00693198
0.00606302
-0.0136853
0.00991041
-0.0228987
0.014612
-0.0340281
0.0196288
-0.0459768
0.0244197
-0.0573001
-0.0674165
0.0287447
0.000128283
0.000297309
0.000665326
-0.000766041
0.00182459
-0.0037205
0.00385058
-0.00895797
0.00693337
-0.0167681
0.0110346
-0.0269999
0.0157685
-0.0387621
0.0205302
-0.0507385
0.02485
-0.0616199
-0.071131
0.0285645
0.000154671
0.000142638
0.000788126
-0.0013995
0.00213067
-0.00506305
0.00442147
-0.0112488
0.00778419
-0.0201309
0.012037
-0.0312527
0.0166651
-0.0433901
0.0210655
-0.0551389
0.0248792
-0.0654336
-0.0742938
0.0280421
0.000185228
-4.25906e-05
0.00092339
-0.00213766
0.00245596
-0.00659562
0.00500009
-0.0137929
0.00858391
-0.0237147
0.0128756
-0.0355444
0.0172801
-0.0477947
0.0212549
-0.0591138
0.024567
-0.0687456
-0.076971
0.0272442
0.000220159
-0.00026275
0.00107055
-0.00298805
0.00279531
-0.00832038
0.00556883
-0.0165664
0.00929908
-0.0274449
0.0135193
-0.0397646
0.017612
-0.0518874
0.0211339
-0.0626357
0.0239742
-0.0715859
-0.0792319
0.0262351
0.000259274
-0.000522024
0.00122766
-0.00395644
0.00314055
-0.0102333
0.00610664
-0.0195325
0.00989941
-0.0312377
0.0139511
-0.0438163
0.0176753
-0.0556116
0.0207458
-0.0657061
0.0231583
-0.0739984
-0.08114
0.0250663
0.000302052
-0.000824076
0.00139157
-0.00504596
0.00348121
-0.0123229
0.0065916
-0.0226429
0.0103618
-0.0350079
0.0141683
-0.0476228
0.0174956
-0.0589389
0.0201357
-0.0683463
0.0221692
-0.0760319
-0.0827503
0.0237796
0.000347714
-0.00117179
0.0015582
-0.00625644
0.00380546
-0.0145702
0.00700362
-0.025841
0.0106726
-0.0386769
0.0141796
-0.0511299
0.0171041
-0.0618634
0.0193466
-0.0705887
0.0210492
-0.0777346
-0.0841081
0.022407
0.000395288
-0.00156708
0.00172285
-0.007584
0.00410114
-0.0169485
0.00732659
-0.0290665
0.0108273
-0.0421775
0.014002
-0.0543046
0.0165342
-0.0643956
0.0184167
-0.0724712
0.0198322
-0.0791501
-0.0852488
0.020973
0.000443671
-0.00201075
0.00188045
-0.00902079
0.00435689
-0.0194249
0.00754972
-0.0322593
0.0108297
-0.0454575
0.013657
-0.0571319
0.0158179
-0.0665566
0.0173791
-0.0740324
0.0185451
-0.080316
-0.0861994
0.0194957
0.000491661
-0.00250241
0.00202589
-0.010555
0.00456303
-0.021962
0.00766785
-0.0353642
0.0106895
-0.0484792
0.0131683
-0.0596107
0.0149849
-0.0683731
0.0162611
-0.0753087
0.0172086
-0.0812635
-0.0869794
0.0179885
0.000538004
-0.00304041
0.00215424
-0.0121713
0.00471222
-0.02452
0.00768102
-0.038333
0.0104206
-0.0512187
0.0125597
-0.0617498
0.0140611
-0.0698745
0.015085
-0.0763325
0.0158385
-0.082017
-0.0876024
0.0164615
0.000581429
-0.00362184
0.0022611
-0.0138509
0.0047999
-0.0270588
0.00759352
-0.0411266
0.0100386
-0.0536638
0.0118534
-0.0635647
0.0130688
-0.0710899
0.0138682
-0.077132
0.0144468
-0.0825955
-0.0880779
0.0149223
0.000620697
-0.00424254
0.00234277
-0.015573
0.00482427
-0.0295403
0.00741273
-0.043715
0.0095602
-0.0558112
0.0110699
-0.0650744
0.0120265
-0.0720464
0.0126247
-0.0777303
0.0130425
-0.0830133
-0.0884121
0.0133766
0.000654648
-0.00489719
0.00239651
-0.0173149
0.00478604
-0.0319298
0.00714806
-0.0460771
0.00900156
-0.0576647
0.010227
-0.0662998
0.0109494
-0.0727688
0.0113652
-0.0781462
0.0116325
-0.0832805
-0.0886089
0.0118293
0.000682244
-0.00557943
0.00242058
-0.0190532
0.00468804
-0.0341973
0.00680995
-0.048199
0.00837793
-0.0592327
0.00934004
-0.0672619
0.0098498
-0.0732785
0.0100981
-0.0783945
0.0102222
-0.0834046
-0.0886711
0.0102843
0.000702616
-0.00628205
0.00241429
-0.0207649
0.00453463
-0.0363176
0.00640916
-0.0500735
0.00770318
-0.0605267
0.00842209
-0.0679808
0.00873759
-0.073594
0.00882979
-0.0784867
0.00881569
-0.0833905
-0.0886002
0.00874483
0.000715087
-0.00699713
0.00237793
-0.0224277
0.00433126
-0.038271
0.00595624
-0.0516985
0.00698963
-0.0615601
0.00748399
-0.0684752
0.00762055
-0.0737306
0.0075653
-0.0784314
0.00741645
-0.0832416
-0.0883966
0.00721286
0.000719191
-0.00771632
0.00231264
-0.0240212
0.00408393
-0.0400422
0.00546113
-0.0530757
0.00624801
-0.062347
0.00653468
-0.0687618
0.00650484
-0.0737008
0.0063085
-0.0782351
0.00602709
-0.0829602
-0.0880599
0.00569041
0.00071468
-0.008431
0.00222022
-0.0255267
0.00379887
-0.0416209
0.00493298
-0.0542098
0.00548757
-0.0629016
0.00558149
-0.0688558
0.00539542
-0.0735147
0.00506245
-0.0779021
0.0046496
-0.0825474
-0.0875892
0.00417888
0.00070151
-0.00913251
0.00210297
-0.0269282
0.00348224
-0.0430002
0.00438003
-0.0551076
0.00471615
-0.0632377
0.00463046
-0.0687701
0.00429647
-0.0731807
0.00383016
-0.0774358
0.00328548
-0.0820027
-0.0869823
0.0026786
0.000679842
-0.00981236
0.0019635
-0.0282118
0.00313991
-0.0441766
0.00380953
-0.0557772
0.00394031
-0.0633685
0.00368645
-0.0685162
0.00321155
-0.0727058
0.00261544
-0.0768397
0.00193661
-0.0813239
-0.086231
0.0011853
0.000650042
-0.0104624
0.00180484
-0.0293666
0.00277741
-0.0451491
0.00322785
-0.0562277
0.00316553
-0.0633062
0.0027533
-0.068104
0.0021433
-0.0720958
0.00142123
-0.0761176
0.000613799
-0.0805164
-0.0853091
-0.000308126
0.000612642
-0.011075
0.00162999
-0.030384
0.00239982
-0.045919
0.00264048
-0.0564683
0.00239632
-0.063062
0.0018341
-0.0675418
0.00109377
-0.0713555
0.000240379
-0.0752642
-0.000687229
-0.0795888
-0.0842859
-0.00171041
0.000568297
-0.0116433
0.00144181
-0.0312575
0.00201174
-0.0464889
0.00205214
-0.0565087
0.00163635
-0.0626462
0.000931433
-0.0668369
5.77765e-05
-0.0704818
-0.000906932
-0.0742995
-0.001972
-0.0785238
-0.0831452
-0.00311274
0.000517767
-0.0121611
0.00124307
-0.0319828
0.00161736
-0.0468632
0.00146683
-0.0563582
0.000888451
-0.0620678
4.39718e-05
-0.0659924
-0.000940976
-0.0694969
-0.00203336
-0.0732071
-0.00322469
-0.0773324
-0.0818752
-0.00449469
0.000461906
-0.012623
0.00103644
-0.0325573
0.00122033
-0.0470471
0.000887797
-0.0560257
0.000156142
-0.0613362
-0.0008136
-0.0650226
-0.00192274
-0.0683877
-0.0031356
-0.0719943
-0.00445013
-0.0760179
-0.0804757
-0.00584962
0.000401617
-0.0130246
0.000824683
-0.0329804
0.000823608
-0.047046
0.000319088
-0.0555211
-0.000558811
-0.0604583
-0.00165423
-0.0639272
-0.00288054
-0.0671614
-0.00421112
-0.0706637
-0.0056477
-0.0745813
-0.0789484
-0.00717499
0.000337727
-0.0133624
0.000610557
-0.0332532
0.000430524
-0.046866
-0.000238798
-0.0548518
-0.00125576
-0.0594413
-0.00247247
-0.0627105
-0.00381284
-0.0658211
-0.00525869
-0.0692178
-0.00681584
-0.0730242
-0.0772957
-0.00846854
0.000271179
-0.0136335
0.000395757
-0.0333778
5.65089e-05
-0.0465267
-0.000783563
-0.0540117
-0.00193408
-0.0582908
-0.00326729
-0.0613773
-0.0047188
-0.0643695
-0.00627745
-0.0676592
-0.00795311
-0.0713485
-0.0755213
-0.00972748
0.000203964
-0.0138375
0.000182111
-0.033356
-0.000341596
-0.046003
-0.00131629
-0.053037
-0.00259207
-0.057015
-0.00403782
-0.0599316
-0.00559767
-0.0628097
-0.00726668
-0.0659902
-0.00905804
-0.0695571
-0.0736315
-0.0109478
0.000135368
-0.0139729
-1.05773e-05
-0.03321
-0.000716378
-0.0452972
-0.00183445
-0.051919
-0.00322918
-0.0556203
-0.00478334
-0.0583774
-0.00644877
-0.0611442
-0.00822557
-0.0642134
-0.0101294
-0.0676534
-0.0716311
-0.0121298
6.02893e-05
-0.0140332
-0.000251497
-0.0328982
-0.00108356
-0.0444651
-0.00233527
-0.0506673
-0.00384455
-0.054111
-0.00550339
-0.0567186
-0.00727167
-0.059376
-0.00915355
-0.0623315
-0.0111671
-0.0656398
-0.0695173
-0.0132809
-1.75076e-05
-0.0140156
-0.000466588
-0.0324491
-0.00144021
-0.0434915
-0.00281799
-0.0492895
-0.00443716
-0.0524919
-0.00619756
-0.0549581
-0.00806672
-0.0575068
-0.0100517
-0.0603466
-0.0121703
-0.0635212
-0.0672892
-0.0143984
-8.73553e-05
-0.0139283
-0.000672996
-0.0318635
-0.00178452
-0.04238
-0.00328229
-0.0477917
-0.00500638
-0.0507678
-0.00686533
-0.0530992
-0.00883457
-0.0555376
-0.0109233
-0.0582578
-0.013134
-0.0613105
-0.0649625
-0.0154607
-0.000159056
-0.0137692
-0.000872647
-0.0311499
-0.00211567
-0.041137
-0.00372744
-0.0461799
-0.00555153
-0.0489437
-0.00750567
-0.0511451
-0.00957322
-0.05347
-0.011767
-0.056064
-0.014097
-0.0589806
-0.0626826
-0.0163769
-0.000229722
-0.0135395
-0.00106562
-0.030314
-0.0024331
-0.0397695
-0.00415286
-0.0444602
-0.00607215
-0.0470244
-0.00811755
-0.0490996
-0.0102777
-0.0513099
-0.0125537
-0.053788
-0.0149092
-0.0566251
-0.0598851
-0.0177067
-0.000298661
-0.0132409
-0.00125146
-0.0293612
-0.00273639
-0.0382846
-0.00455819
-0.0426384
-0.00656804
-0.0450145
-0.00870036
-0.0469673
-0.0109447
-0.0490656
-0.0132971
-0.0514356
-0.0157763
-0.0541459
-0.0571078
-0.0185535
-0.000365489
-0.0128754
-0.00142963
-0.0282971
-0.00302516
-0.0366891
-0.00494311
-0.0407204
-0.0070389
-0.0429187
-0.00925404
-0.0447522
-0.0115808
-0.0467388
-0.0140238
-0.0489925
-0.0166177
-0.051552
-0.0543079
-0.0194177
-0.000429901
-0.0124455
-0.00159964
-0.0271273
-0.00329905
-0.0349896
-0.00530735
-0.0387121
-0.00748433
-0.0407418
-0.00977775
-0.0424588
-0.0121829
-0.0443337
-0.0147099
-0.0464654
-0.0173895
-0.0488725
-0.0514572
-0.0202402
-0.000491629
-0.0119538
-0.00176108
-0.0258579
-0.00355778
-0.0331929
-0.00565073
-0.0366192
-0.0079042
-0.0384883
-0.0102718
-0.0400912
-0.0127521
-0.0418534
-0.0153582
-0.0438593
-0.0181146
-0.0461161
-0.048544
-0.0210278
-0.000550434
-0.0114034
-0.00191358
-0.0244947
-0.00380109
-0.0313054
-0.00597308
-0.0344472
-0.00829834
-0.036163
-0.0107359
-0.0376536
-0.0132872
-0.0393021
-0.0159666
-0.0411799
-0.0187943
-0.0432885
-0.045564
-0.0217743
-0.0006061
-0.0107973
-0.00205686
-0.023044
-0.00402876
-0.0293335
-0.00627429
-0.0322017
-0.00866667
-0.0337707
-0.0111699
-0.0351503
-0.013788
-0.036684
-0.0165356
-0.0384323
-0.0194306
-0.0403935
-0.0425168
-0.0224778
-0.000658438
-0.0101389
-0.00219066
-0.0215118
-0.00424064
-0.0272835
-0.00655427
-0.029888
-0.00900909
-0.0313158
-0.0115737
-0.0325857
-0.014254
-0.0340037
-0.0170651
-0.0356212
-0.0200237
-0.0374348
-0.0394044
-0.0231361
-0.000707282
-0.00943158
-0.00231477
-0.0199043
-0.00443659
-0.0251617
-0.00681294
-0.0275117
-0.00932554
-0.0288032
-0.0119471
-0.0299641
-0.0146852
-0.0312657
-0.0175552
-0.0327513
-0.0205735
-0.0344165
-0.0362301
-0.0237478
-0.000752486
-0.00867909
-0.00242903
-0.0182277
-0.00461651
-0.0229742
-0.00705025
-0.0250779
-0.00961594
-0.0262376
-0.01229
-0.0272901
-0.0150813
-0.0284743
-0.0180056
-0.0298269
-0.0210794
-0.0313427
-0.0329978
-0.0243116
-0.000793925
-0.00788517
-0.00253329
-0.0164884
-0.0047803
-0.0207272
-0.00726617
-0.0225921
-0.00988024
-0.0236235
-0.0126022
-0.0245682
-0.0154421
-0.0256344
-0.0184162
-0.0268528
-0.0215409
-0.0282181
-0.0297121
-0.0248265
-0.000831492
-0.00705367
-0.00262742
-0.0146924
-0.00492791
-0.0184267
-0.00746066
-0.0200593
-0.0101184
-0.0209658
-0.0128836
-0.021803
-0.0157676
-0.0227504
-0.0187867
-0.0238337
-0.0219575
-0.0250473
-0.026378
-0.0252916
-0.000865094
-0.00618858
-0.00271133
-0.0128462
-0.0050593
-0.0160788
-0.0076337
-0.0174849
-0.0103303
-0.0182691
-0.0131342
-0.0189991
-0.0160574
-0.0198272
-0.0191168
-0.0207744
-0.0223288
-0.0218352
-0.0230006
-0.0257063
-0.000894652
-0.00529393
-0.00278494
-0.0109559
-0.00517441
-0.0136893
-0.00778527
-0.014874
-0.0105161
-0.0155383
-0.0133539
-0.0161613
-0.0163116
-0.0168694
-0.0194063
-0.0176797
-0.0226546
-0.018587
-0.0195852
-0.02607
-0.000920101
-0.00437383
-0.00284819
-0.00902781
-0.00527321
-0.0112643
-0.00791536
-0.0122319
-0.0106755
-0.0127782
-0.0135426
-0.0132943
-0.01653
-0.013882
-0.0196551
-0.0145546
-0.0229345
-0.0153076
-0.0161371
-0.0263825
-0.000941386
-0.00343244
-0.002901
-0.0070682
-0.00535569
-0.00880961
-0.00802397
-0.00956362
-0.0108087
-0.00999347
-0.0137002
-0.0104027
-0.0167125
-0.0108696
-0.019863
-0.0114041
-0.0231683
-0.0120023
-0.012662
-0.0266435
-0.000958462
-0.00247398
-0.00294335
-0.0050833
-0.00542182
-0.00633114
-0.00811108
-0.00687435
-0.0109155
-0.00718901
-0.0138268
-0.00749152
-0.0168591
-0.00783728
-0.02003
-0.00823321
-0.0233561
-0.00867628
-0.00916505
-0.026853
-0.000971296
-0.00150268
-0.00297521
-0.00307939
-0.0054716
-0.00383475
-0.0081767
-0.00416924
-0.0109961
-0.00436961
-0.0139222
-0.00456544
-0.0169696
-0.00478983
-0.0201559
-0.00504691
-0.0234977
-0.00533454
-0.0056516
-0.0270111
-0.000979861
-0.000522823
-0.00299654
-0.00106272
-0.00550501
-0.00132627
-0.00822084
-0.00145342
-0.0110503
-0.0015401
-0.0139865
-0.00162929
-0.0170441
-0.00173221
-0.0202407
-0.00185029
-0.0235927
-0.00198262
-0.002126
-0.0271183
-0.000984143
0.00046132
-0.00300733
0.000960466
-0.00552206
0.00118846
-0.00824348
0.001268
-0.0110783
0.0012947
-0.0140197
0.00131209
-0.0170825
0.0013306
-0.0202842
0.00135141
-0.0236412
0.00137446
0.00139901
-0.0271663
-0.000984131
0.00144545
-0.00300758
0.00298391
-0.00552274
0.00370362
-0.00824464
0.0039899
-0.0110799
0.00412997
-0.0140217
0.0042539
-0.0170849
0.00439382
-0.0202871
0.00455353
-0.0236444
0.00473178
0.00492741
-0.0271728
-0.000979827
0.00242528
-0.00299729
0.00500138
-0.00550706
0.00621339
-0.00822433
0.00670717
-0.0110552
0.00696087
-0.0139927
0.00719133
-0.0170514
0.00745255
-0.0202489
0.00775102
-0.0236015
0.00808443
0.00845142
-0.0271255
-0.000971237
0.00339651
-0.00297646
0.0070066
-0.00547503
0.00871196
-0.00818255
0.00941469
-0.0110043
0.0097826
-0.0139325
0.0101196
-0.0169818
0.0105019
-0.0201696
0.0109388
-0.0235123
0.0114271
0.0119649
-0.0270257
-0.000958378
0.00435489
-0.00294512
0.00899335
-0.00542665
0.0111935
-0.00811931
0.0121073
-0.010927
0.0125903
-0.0138413
0.0130338
-0.0168763
0.0135368
-0.0200493
0.0141119
-0.0233769
0.0147547
0.0154623
-0.0268743
-0.000941274
0.00529617
-0.00290329
0.0109554
-0.00536194
0.0136521
-0.00803461
0.01478
-0.0108236
0.0153793
-0.013719
0.0159292
-0.0167348
0.0165526
-0.0198881
0.0172652
-0.0231955
0.018062
0.0189382
-0.0266714
-0.000919958
0.00621612
-0.00285099
0.0128864
-0.00528091
0.0160821
-0.00792847
0.0174276
-0.0106938
0.0181447
-0.0135657
0.0188011
-0.0165575
0.0195444
-0.0196861
0.0203938
-0.022968
0.0213439
0.0223873
-0.0264171
-0.000894472
0.0071106
-0.00278827
0.0147802
-0.00518357
0.0184774
-0.0078009
0.0200449
-0.0105379
0.0208817
-0.0133816
0.0216447
-0.0163445
0.0225073
-0.0194434
0.0234927
-0.0226948
0.0245953
0.025804
-0.0261115
-0.000864869
0.00797546
-0.00271519
0.0166305
-0.00506997
0.0208321
-0.00765191
0.0226269
-0.0103558
0.0235856
-0.0131665
0.0244554
-0.0160958
0.0254366
-0.0191602
0.0265572
-0.022376
0.0278111
0.0291831
-0.0257551
-0.00083121
0.00880667
-0.0026318
0.0184311
-0.00494012
0.0231405
-0.00748152
0.0251683
-0.0101476
0.0262518
-0.0129207
0.0272284
-0.0158116
0.0283276
-0.0188367
0.0295822
-0.0220119
0.0309864
0.0325193
-0.0253481
-0.00079357
0.00960024
-0.00253819
0.0201757
-0.00479407
0.0253963
-0.00728975
0.0276639
-0.00991333
0.0288753
-0.0126441
0.0299592
-0.0154921
0.0311756
-0.0184731
0.0325632
-0.021603
0.0341163
0.0358075
-0.0248912
-0.000752036
0.0103523
-0.00243443
0.0218581
-0.00463185
0.0275938
-0.00707662
0.0301087
-0.00965299
0.0314517
-0.012337
0.0326432
-0.0151374
0.0339761
-0.0180697
0.0354954
-0.0211496
0.0371962
0.039043
-0.0243851
-0.00070671
0.011059
-0.00232064
0.0234721
-0.00445352
0.0297266
-0.00684216
0.0324973
-0.00936666
0.0339762
-0.0119994
0.035276
-0.0147478
0.0367244
-0.0176268
0.0383744
-0.0206524
0.0402218
0.0422214
-0.0238308
-0.000657707
0.0117167
-0.00219696
0.0250113
-0.00425916
0.0317888
-0.00658639
0.0348246
-0.0090544
0.0364442
-0.0116314
0.037853
-0.0143232
0.0394162
-0.0171446
0.0411958
-0.0201118
0.043189
0.0453389
-0.0232293
-0.000605164
0.0123219
-0.00206354
0.0264697
-0.00404885
0.0337741
-0.00630936
0.0370851
-0.00871626
0.0388511
-0.0112332
0.04037
-0.0138641
0.042047
-0.0166233
0.043955
-0.0195284
0.0460941
0.0483926
-0.0225821
-0.000549235
0.0128711
-0.00192056
0.027841
-0.0038227
0.0356763
-0.00601111
0.0392735
-0.0083523
0.0411923
-0.0108049
0.0428227
-0.0133704
0.0446125
-0.0160628
0.0466474
-0.0189023
0.0489335
0.0513811
-0.0218908
-0.000490095
0.0133612
-0.00176825
0.0291192
-0.00358085
0.0374889
-0.00569171
0.0413844
-0.00796258
0.0434632
-0.0103467
0.0452068
-0.0128426
0.0471084
-0.0154632
0.049268
-0.0182334
0.0517037
0.0543056
-0.0211578
-0.00042794
0.0137891
-0.00160687
0.0302981
-0.00332347
0.0392055
-0.00535125
0.0434121
-0.00754716
0.0456591
-0.00985862
0.0475183
-0.0122808
0.0495306
-0.0148235
0.0518107
-0.0175186
0.0543988
0.057172
-0.020385
-0.00036299
0.0141521
-0.00143675
0.0313719
-0.00305077
0.0408195
-0.00498984
0.0453512
-0.00710617
0.0477754
-0.00934094
0.049753
-0.0116865
0.0518761
-0.0141467
0.0542709
-0.0167575
0.0570095
0.0599926
-0.0195781
-0.000295485
0.0144476
-0.00125826
0.0323346
-0.002763
0.0423242
-0.00460763
0.0471958
-0.00663968
0.0498075
-0.00879324
0.0519066
-0.0110581
0.054141
-0.0134286
0.0566414
-0.015922
0.059503
0.0627932
-0.0187226
-0.000225699
0.0146733
-0.00107185
0.0331808
-0.00246042
0.0437128
-0.00420482
0.0489402
-0.00614807
0.0517507
-0.0082163
0.0539748
-0.010399
0.0563236
-0.0126957
0.0589381
-0.0150635
0.0618708
0.0656134
-0.0178837
-0.000154005
0.0148273
-0.000877981
0.0339048
-0.00214334
0.0449781
-0.00378167
0.0505786
-0.0056316
0.0536007
-0.00761026
0.0559535
-0.0097021
0.0584155
-0.0119205
0.0611565
-0.014273
0.0642233
0.067894
-0.0165536
-8.11869e-05
0.0149085
-0.000676997
0.0345006
-0.00181206
0.0461132
-0.00333846
0.052105
-0.00509039
0.0553526
-0.00697563
0.0578387
-0.00897065
0.0604105
-0.011085
0.0632708
-0.0133191
0.0664574
0.0702393
-0.0156644
-1.1237e-05
0.0149197
-0.000468514
0.0349579
-0.00146707
0.0471118
-0.00287569
0.0535136
-0.00452478
0.0570017
-0.00631331
0.0596273
-0.00820972
0.0623069
-0.0102212
0.0652823
-0.012364
0.0686003
0.0724907
-0.0146155
6.99711e-05
0.0148498
-0.000249879
0.0352777
-0.00110917
0.047971
-0.00239397
0.0547984
-0.00393535
0.0585431
-0.00562432
0.0613162
-0.00742159
0.0641042
-0.00933176
0.0671925
-0.011372
0.0706405
0.0746292
-0.0135104
0.000146739
0.014703
-3.78239e-06
0.0354282
-0.000740291
0.0487076
-0.00189335
0.0559515
-0.00332264
0.0599724
-0.00490915
0.0629027
-0.00660559
0.0658006
-0.00841295
0.0689998
-0.0103468
0.0725744
0.0766583
-0.012376
0.000217121
0.0144859
0.000190547
0.0354548
-0.000363222
0.0492613
-0.00137433
0.0569626
-0.0026877
0.0612857
-0.00416813
0.0643832
-0.00576121
0.0673937
-0.00746332
0.0707019
-0.00928833
0.0743994
0.0785824
-0.0112125
0.000286505
0.0141994
0.000408031
0.0353333
4.37439e-05
0.0496256
-0.000839777
0.0578461
-0.00203117
0.0624771
-0.00340153
0.0657535
-0.00488871
0.0688809
-0.00648326
0.0722965
-0.00819631
0.0761124
0.0803963
-0.0100101
0.00035545
0.0138439
0.000627465
0.0350613
0.000418521
0.0498346
-0.00029378
0.0585584
-0.00135329
0.0635366
-0.00260994
0.0670102
-0.00398861
0.0702595
-0.00547339
0.0737813
-0.00707187
0.0777109
0.082093
-0.00876865
0.000422131
0.0134218
0.000847357
0.034636
0.000817711
0.0498642
0.000268831
0.0591073
-0.000655524
0.064461
-0.00179416
0.0681488
-0.00306147
0.0715268
-0.0044341
0.0751539
-0.00591613
0.0791929
0.0836689
-0.00749201
0.000485582
0.0129362
0.00106631
0.0340553
0.00122248
0.049708
0.000842476
0.0594873
6.04734e-05
0.065243
-0.000954849
0.0691641
-0.00210794
0.0726799
-0.00336584
0.0764118
-0.00473027
0.0805574
0.0851215
-0.0061829
0.000544971
0.0123913
0.00128158
0.0333187
0.00162956
0.0493601
0.00142945
0.0596874
0.000797679
0.0658747
-9.63485e-05
0.0700582
-0.00112932
0.0737129
-0.00226918
0.0775517
-0.00351579
0.081804
0.086449
-0.00484324
0.000599343
0.0117919
0.00149041
0.0324276
0.00203636
0.0488141
0.00202523
0.0596985
0.00155165
0.0663483
0.000792502
0.0708173
-0.000131118
0.0746365
-0.00114585
0.0785664
-0.00227341
0.0829315
0.0876509
-0.00347531
0.000647778
0.0111441
0.00169015
0.0313853
0.00243953
0.0480647
0.00262694
0.0595111
0.00232057
0.0666547
0.0016996
0.0714383
0.000902193
0.0754339
-1.69629e-05
0.0794856
-0.000999873
0.0839145
0.0887355
-0.0020845
0.000689442
0.0104547
0.00187808
0.0301966
0.00283515
0.0471076
0.0032312
0.0591151
0.00310205
0.0667839
0.00262601
0.0719143
0.00195649
0.0761035
0.00117669
0.0802654
0.000308515
0.0847826
0.0897257
-0.000681619
0.000723587
0.00973111
0.00205129
0.0288689
0.00321889
0.04594
0.00383385
0.0585001
0.0038931
0.0667246
0.00356998
0.0722374
0.00303114
0.0766423
0.00237093
0.0809256
0.00161877
0.0855348
0.0905687
0.000775753
0.00074958
0.00898153
0.00220678
0.0274117
0.00358591
0.0445609
0.00442993
0.0576561
0.00468985
0.0664647
0.00452866
0.0723986
0.00412496
0.077046
0.00358876
0.0814618
0.0029668
0.0861568
0.0912604
0.00227506
0.000766921
0.00821461
0.00234124
0.0258374
0.00393081
0.0429713
0.00501369
0.0565732
0.0054876
0.0659908
0.00549906
0.0723872
0.00523688
0.0773082
0.00482892
0.0818697
0.004335
0.0866507
0.0918198
0.00377562
0.000775315
0.0074393
0.00245168
0.024161
0.00424777
0.0411753
0.00557842
0.0552425
0.00628073
0.0652885
0.00647741
0.0721905
0.00636437
0.0774212
0.00608757
0.0821465
0.00572
0.0870183
0.0922519
0.00528791
0.000774678
0.00666462
0.00253539
0.0224003
0.00453054
0.0391801
0.00611644
0.0536566
0.00706239
0.0643425
0.00745879
0.0717941
0.00750407
0.0773759
0.00736193
0.0822887
0.00712102
0.0872592
0.0925577
0.00681525
0.000765132
0.00589949
0.00259004
0.0205754
0.00477258
0.0369976
0.00661902
0.0518102
0.00782441
0.0631371
0.00843714
0.0711814
0.00865209
0.077161
0.00864987
0.0822909
0.0085373
0.0873717
0.0927376
0.00835732
0.000747021
0.00515247
0.00261383
0.0187086
0.00496727
0.0346441
0.00707643
0.049701
0.00855708
0.0616565
0.00940496
0.0703335
0.00980373
0.0767622
0.00994884
0.0821458
0.00996735
0.0873532
0.0927922
0.00991274
0.000720907
0.00443156
0.00260574
0.0168238
0.00510823
0.0321417
0.00747805
0.0473312
0.00924909
0.0598854
0.0103531
0.0692295
0.010953
0.0761623
0.0112554
0.0818433
0.011409
0.0871996
0.0927206
0.0114807
0.000687572
0.00374399
0.0025657
0.0149456
0.00518971
0.0295176
0.0078126
0.0447083
0.00988738
0.0578106
0.0112702
0.0678466
0.012092
0.0753406
0.0125649
0.0813705
0.0128596
0.0869048
0.0925208
0.0130595
0.00064799
0.003096
0.00249468
0.0130989
0.00520715
0.0268052
0.00806851
0.041847
0.0104572
0.055422
0.0121429
0.066161
0.0132111
0.0742724
0.0138714
0.0807102
0.0143158
0.0864603
0.0921898
0.0146468
0.000603298
0.0024927
0.00239478
0.0113075
0.00515768
0.0240423
0.00823449
0.0387702
0.0109422
0.0527143
0.0129549
0.0641483
0.0142976
0.0729296
0.0151669
0.0798409
0.0157731
0.0858542
0.0917232
0.0162397
0.000554737
0.00193796
0.00226918
0.00959302
0.00504074
0.0212707
0.00830033
0.0355106
0.0113249
0.0496897
0.0136873
0.0617858
0.0153362
0.0712807
0.0164412
0.0787359
0.0172255
0.0850698
0.0911136
0.0178351
0.000503599
0.00143436
0.00212195
0.00797467
0.00485855
0.0185341
0.00825793
0.0321112
0.0115873
0.0463604
0.0143186
0.0590545
0.0163077
0.0692917
0.0176808
0.0773628
0.0186653
0.0840853
0.0903503
0.0194286
0.000451146
0.000983218
0.00195778
0.00646804
0.00461625
0.0158756
0.00810248
0.028625
0.0117119
0.0427509
0.0148248
0.0559417
0.0171891
0.0669274
0.0188683
0.0756836
0.0200816
0.082872
0.0894174
0.0210145
0.000398538
0.00058468
0.00178168
0.00508489
0.00432179
0.0133355
0.00783368
0.0251131
0.0116834
0.0389011
0.0151801
0.052445
0.0179533
0.0641542
0.0199818
0.0736551
0.0214601
0.0813937
0.0882924
0.022585
0.00034676
0.00023792
0.00159855
0.0038331
0.00398534
0.0109487
0.00745679
0.0216416
0.0114903
0.0348676
0.0153585
0.0485768
0.018569
0.0609437
0.0209938
0.0712303
0.0227813
0.0796062
0.0869446
0.0241291
0.000296566
-5.86456e-05
0.00141288
0.00271679
0.00361843
0.00874319
0.00698306
0.018277
0.0111273
0.0307234
0.0153354
0.0443687
0.0190017
0.0572774
0.0218708
0.0683612
0.02402
0.077457
0.0853332
0.0256314
0.000248466
-0.000307111
0.00122852
0.00173674
0.00323289
0.00673881
0.00642924
0.0150806
0.010598
0.0265546
0.0150908
0.0398759
0.0192152
0.0531529
0.0225734
0.065003
0.0251434
0.074887
0.0834055
0.0270712
0.00020275
-0.000509861
0.00104863
0.00089086
0.00284004
0.0049474
0.0058163