/*--------------------------------*- C++ -*----------------------------------*\
  =========                 |
  \\      /  F ield         | OpenFOAM: The Open Source CFD Toolbox
   \\    /   O peration     | Website:  https://openfoam.org
    \\  /    A nd           | Version:  7
     \\/     M anipulation  |
\*---------------------------------------------------------------------------*/
FoamFile
{
    version     2.0;
    format      ascii;
    class       volScalarField;
    location    "40";
    object      p;
}
// * * * * * * * * * * * * * * * * * * * * * * * * * * * * * * * * * * * * * //

dimensions      [0 2 -2 0 0 0 0];

internalField   nonuniform List<scalar> 
8500
(
-0.292817
-0.29833
-0.300176
-0.300474
-0.299459
-0.297207
-0.29389
-0.28968
-0.284688
-0.27889
-0.293582
-0.298969
-0.300733
-0.300956
-0.299871
-0.297555
-0.294178
-0.289917
-0.284877
-0.278959
-0.295106
-0.300243
-0.301843
-0.301916
-0.300691
-0.298245
-0.294747
-0.290385
-0.285252
-0.279089
-0.297378
-0.302143
-0.303498
-0.303347
-0.301911
-0.299271
-0.295591
-0.291074
-0.285805
-0.279253
-0.300384
-0.304657
-0.305688
-0.305238
-0.303521
-0.300621
-0.296695
-0.29197
-0.286516
-0.279347
-0.304104
-0.307769
-0.308398
-0.307575
-0.305507
-0.302282
-0.298045
-0.293052
-0.287366
-0.279238
-0.308516
-0.311463
-0.311612
-0.310343
-0.307855
-0.304237
-0.299624
-0.294285
-0.28834
-0.27966
-0.313595
-0.315718
-0.315313
-0.313526
-0.310548
-0.30647
-0.301418
-0.295706
-0.289318
-0.279863
-0.319318
-0.320514
-0.319481
-0.317107
-0.313571
-0.308968
-0.303408
-0.297248
-0.29038
-0.279878
-0.325659
-0.325829
-0.324098
-0.321068
-0.316909
-0.311717
-0.305582
-0.298901
-0.291502
-0.279717
-0.332593
-0.331641
-0.329144
-0.325394
-0.320549
-0.314708
-0.307933
-0.300661
-0.292659
-0.279343
-0.340097
-0.337929
-0.334601
-0.330069
-0.32448
-0.317934
-0.31046
-0.302528
-0.29384
-0.278716
-0.348144
-0.344671
-0.34045
-0.335079
-0.328695
-0.321395
-0.313169
-0.30451
-0.295047
-0.277803
-0.356711
-0.351844
-0.346673
-0.340413
-0.333188
-0.325094
-0.316073
-0.306629
-0.296295
-0.276585
-0.365771
-0.359424
-0.35325
-0.346057
-0.337956
-0.32904
-0.319199
-0.308926
-0.29762
-0.275084
-0.375292
-0.367386
-0.360162
-0.352
-0.342997
-0.333246
-0.322578
-0.311462
-0.299106
-0.273418
-0.385239
-0.3757
-0.367387
-0.358229
-0.348311
-0.337727
-0.326253
-0.314315
-0.300819
-0.271674
-0.395569
-0.384333
-0.374901
-0.364729
-0.353894
-0.342498
-0.330282
-0.31758
-0.302656
-0.269451
-0.406234
-0.393249
-0.382675
-0.371482
-0.35974
-0.347582
-0.334767
-0.321487
-0.304814
-0.26709
-0.417177
-0.402405
-0.390677
-0.378461
-0.365832
-0.352983
-0.339794
-0.326434
-0.309709
-0.274785
-0.428334
-0.411753
-0.398866
-0.385632
-0.37213
-0.358638
-0.345219
-0.33222
-0.319703
-0.317305
-0.439638
-0.421242
-0.4072
-0.392952
-0.378578
-0.364422
-0.350676
-0.337705
-0.326366
-0.331042
-0.451017
-0.430813
-0.415631
-0.400378
-0.385125
-0.370254
-0.356003
-0.34261
-0.330619
-0.335435
-0.462393
-0.440406
-0.424105
-0.407864
-0.391728
-0.376096
-0.361195
-0.34713
-0.334103
-0.337536
-0.473687
-0.449953
-0.432565
-0.415357
-0.398339
-0.381906
-0.366237
-0.351313
-0.337067
-0.338056
-0.484813
-0.45938
-0.440945
-0.422799
-0.404901
-0.387627
-0.371081
-0.35512
-0.339458
-0.337376
-0.495676
-0.468603
-0.449169
-0.430117
-0.411343
-0.393185
-0.37566
-0.358502
-0.341271
-0.335833
-0.506173
-0.47753
-0.457152
-0.437228
-0.417579
-0.398496
-0.379893
-0.361403
-0.342495
-0.333605
-0.51619
-0.486057
-0.464794
-0.444036
-0.423514
-0.40346
-0.38369
-0.363753
-0.343095
-0.330771
-0.5256
-0.494071
-0.471988
-0.450435
-0.429038
-0.407969
-0.386948
-0.365472
-0.343016
-0.327352
-0.534262
-0.501444
-0.478613
-0.456303
-0.434031
-0.411901
-0.389555
-0.366467
-0.342191
-0.323328
-0.542027
-0.508041
-0.484536
-0.46151
-0.43836
-0.415127
-0.391391
-0.366638
-0.340539
-0.318655
-0.548732
-0.513715
-0.489617
-0.465916
-0.441886
-0.417511
-0.39233
-0.365878
-0.337976
-0.313266
-0.554204
-0.518311
-0.493704
-0.469371
-0.444459
-0.418907
-0.392241
-0.364077
-0.334409
-0.307086
-0.558267
-0.521666
-0.49664
-0.471718
-0.445926
-0.41917
-0.390993
-0.361123
-0.329748
-0.300033
-0.560736
-0.523615
-0.498263
-0.472797
-0.446129
-0.418152
-0.388454
-0.356907
-0.323903
-0.292022
-0.561427
-0.523985
-0.498406
-0.472444
-0.44491
-0.415706
-0.384495
-0.351324
-0.31679
-0.282976
-0.560156
-0.522609
-0.496903
-0.470495
-0.442114
-0.411689
-0.378997
-0.344277
-0.308334
-0.272823
-0.556745
-0.519319
-0.49359
-0.466791
-0.437588
-0.405967
-0.371845
-0.335679
-0.298467
-0.261498
-0.551023
-0.513952
-0.488307
-0.461176
-0.43119
-0.398416
-0.36294
-0.325453
-0.287137
-0.248953
-0.542829
-0.506356
-0.480905
-0.453508
-0.422787
-0.388923
-0.352196
-0.313538
-0.274301
-0.235148
-0.532017
-0.496391
-0.471244
-0.443652
-0.412262
-0.377393
-0.33954
-0.299888
-0.25993
-0.220057
-0.51846
-0.483928
-0.459198
-0.431491
-0.399514
-0.363746
-0.324921
-0.284471
-0.244012
-0.203666
-0.502049
-0.46886
-0.44466
-0.416927
-0.38446
-0.347923
-0.308303
-0.267273
-0.226546
-0.185974
-0.4827
-0.451099
-0.427544
-0.399882
-0.367039
-0.329887
-0.28967
-0.248297
-0.207548
-0.166998
-0.460355
-0.430578
-0.407785
-0.380301
-0.347215
-0.309622
-0.269027
-0.227561
-0.187052
-0.146769
-0.434982
-0.407259
-0.385343
-0.358154
-0.324974
-0.287135
-0.246398
-0.205098
-0.165096
-0.1253
-0.40658
-0.381129
-0.360207
-0.333438
-0.300331
-0.262457
-0.221827
-0.180962
-0.141705
-0.102482
-0.375178
-0.352204
-0.332391
-0.306178
-0.273325
-0.235644
-0.195384
-0.15523
-0.116952
-0.0782064
-0.340838
-0.32053
-0.301941
-0.276428
-0.244021
-0.206773
-0.167155
-0.127993
-0.0910347
-0.0535383
-0.303652
-0.286182
-0.268931
-0.244268
-0.212513
-0.175948
-0.137244
-0.0993265
-0.0637102
-0.0280402
-0.263744
-0.249267
-0.233465
-0.20981
-0.178921
-0.14329
-0.105773
-0.0693642
-0.0353652
-0.00155442
-0.221269
-0.20992
-0.195677
-0.173193
-0.143385
-0.108941
-0.0728839
-0.0382318
-0.00609516
0.0257428
-0.176413
-0.168305
-0.155729
-0.134582
-0.106059
-0.073077
-0.0387354
-0.00607235
0.0239954
0.0536908
-0.12938
-0.124617
-0.113806
-0.0941446
-0.0671595
-0.0358746
-0.00350144
0.0269542
0.0547697
0.0821279
-0.0803814
-0.079096
-0.0701215
-0.0521139
-0.0268739
0.00246736
0.0326285
0.0606769
0.0860794
0.110867
-0.0297344
-0.0319447
-0.0249119
-0.00871535
0.0145734
0.0417349
0.0694531
0.0949251
0.117792
0.139634
0.0222827
0.0165711
0.0215684
0.0358053
0.0569441
0.0817026
0.106762
0.129535
0.149768
0.167989
0.0753918
0.0661542
0.0690463
0.0811864
0.0999899
0.122137
0.144339
0.164312
0.181651
0.195295
0.129275
0.116507
0.117236
0.127155
0.143457
0.162807
0.181981
0.198992
0.212582
0.220152
0.183599
0.16732
0.165838
0.173429
0.187087
0.203495
0.219531
0.233377
0.241835
0.241942
0.238024
0.218272
0.214545
0.21972
0.23062
0.243983
0.256819
0.267523
0.27278
0.271462
0.2922
0.269034
0.263044
0.265733
0.273786
0.284026
0.293606
0.301086
0.303469
0.300875
0.345776
0.319273
0.311015
0.311172
0.316313
0.323375
0.32966
0.333855
0.333293
0.328935
0.398401
0.368656
0.358142
0.355741
0.357934
0.361789
0.364765
0.365668
0.362163
0.355736
0.449726
0.416851
0.40411
0.39915
0.398387
0.399039
0.398719
0.396359
0.389948
0.38128
0.499408
0.463532
0.44861
0.441114
0.437419
0.4349
0.43133
0.425763
0.416507
0.405511
0.547113
0.508381
0.491342
0.481359
0.474785
0.46916
0.462419
0.453733
0.441713
0.428363
0.592521
0.551091
0.532017
0.519621
0.510251
0.501618
0.491814
0.480128
0.465453
0.449772
0.635323
0.591369
0.570358
0.555647
0.543595
0.532084
0.519358
0.504819
0.487624
0.469677
0.675229
0.628938
0.606104
0.589203
0.574611
0.56038
0.5449
0.527684
0.508128
0.488015
0.711967
0.663536
0.639012
0.620066
0.603104
0.586342
0.568304
0.54861
0.526871
0.504726
0.745287
0.694926
0.668858
0.648034
0.628898
0.609816
0.589443
0.567491
0.543769
0.519752
0.774961
0.722888
0.695436
0.672923
0.651831
0.630668
0.608201
0.584232
0.55874
0.533035
0.800786
0.747228
0.718565
0.69457
0.671761
0.648773
0.624476
0.598747
0.571714
0.544524
0.822583
0.767776
0.738087
0.712831
0.688563
0.664027
0.638179
0.610961
0.582626
0.554174
0.840204
0.78439
0.753868
0.727587
0.702133
0.67634
0.649234
0.620811
0.591423
0.561945
0.853528
0.796953
0.765799
0.73874
0.712386
0.685638
0.657579
0.628245
0.598061
0.567802
0.862461
0.805377
0.773799
0.746216
0.719256
0.691868
0.663169
0.633223
0.602504
0.571721
0.866943
0.809604
0.777813
0.749967
0.722703
0.694992
0.665971
0.635718
0.604732
0.573685
0.866943
0.809604
0.777813
0.749967
0.722703
0.694992
0.665971
0.635718
0.604732
0.573685
0.862461
0.805377
0.773799
0.746216
0.719256
0.691868
0.663169
0.633223
0.602504
0.571721
0.853528
0.796953
0.765799
0.73874
0.712386
0.685638
0.657579
0.628245
0.598061
0.567802
0.840204
0.78439
0.753868
0.727587
0.702133
0.67634
0.649234
0.620811
0.591423
0.561945
0.822583
0.767776
0.738087
0.712831
0.688563
0.664027
0.638179
0.610961
0.582626
0.554174
0.800786
0.747228
0.718565
0.69457
0.671761
0.648773
0.624476
0.598747
0.571714
0.544524
0.774961
0.722888
0.695436
0.672923
0.651831
0.630668
0.608201
0.584232
0.55874
0.533035
0.745287
0.694926
0.668858
0.648034
0.628898
0.609816
0.589443
0.567491
0.543769
0.519752
0.711967
0.663536
0.639012
0.620066
0.603104
0.586342
0.568304
0.54861
0.526871
0.504726
0.675229
0.628938
0.606104
0.589203
0.574611
0.56038
0.5449
0.527684
0.508128
0.488015
0.635323
0.591369
0.570358
0.555647
0.543595
0.532084
0.519358
0.504819
0.487624
0.469677
0.592521
0.551091
0.532017
0.519621
0.510251
0.501618
0.491814
0.480128
0.465453
0.449772
0.547113
0.508381
0.491342
0.481359
0.474785
0.46916
0.462419
0.453733
0.441713
0.428363
0.499408
0.463532
0.44861
0.441114
0.437419
0.4349
0.43133
0.425763
0.416507
0.405511
0.449726
0.416851
0.40411
0.39915
0.398387
0.399039
0.398719
0.396359
0.389948
0.38128
0.398401
0.368656
0.358142
0.355741
0.357934
0.361789
0.364765
0.365668
0.362163
0.355736
0.345776
0.319273
0.311015
0.311172
0.316313
0.323375
0.32966
0.333855
0.333293
0.328935
0.2922
0.269034
0.263044
0.265733
0.273786
0.284026
0.293606
0.301086
0.303469
0.300875
0.238024
0.218272
0.214545
0.21972
0.23062
0.243983
0.256819
0.267523
0.27278
0.271462
0.183599
0.16732
0.165838
0.173429
0.187087
0.203495
0.219531
0.233377
0.241835
0.241942
0.129275
0.116507
0.117236
0.127155
0.143457
0.162807
0.181981
0.198992
0.212582
0.220152
0.0753918
0.0661542
0.0690463
0.0811864
0.0999899
0.122137
0.144339
0.164312
0.181651
0.195295
0.0222827
0.0165711
0.0215684
0.0358053
0.0569441
0.0817026
0.106762
0.129535
0.149768
0.167989
-0.0297344
-0.0319447
-0.0249119
-0.00871534
0.0145734
0.0417349
0.0694531
0.0949251
0.117792
0.139634
-0.0803814
-0.079096
-0.0701215
-0.0521139
-0.0268739
0.00246736
0.0326285
0.0606769
0.0860794
0.110867
-0.12938
-0.124617
-0.113806
-0.0941446
-0.0671595
-0.0358746
-0.00350143
0.0269542
0.0547697
0.0821279
-0.176413
-0.168305
-0.155729
-0.134582
-0.106059
-0.073077
-0.0387354
-0.00607235
0.0239954
0.0536908
-0.221269
-0.20992
-0.195677
-0.173193
-0.143385
-0.108941
-0.0728839
-0.0382318
-0.00609516
0.0257428
-0.263744
-0.249267
-0.233465
-0.20981
-0.178921
-0.14329
-0.105773
-0.0693642
-0.0353652
-0.00155442
-0.303652
-0.286182
-0.268931
-0.244268
-0.212513
-0.175948
-0.137244
-0.0993265
-0.0637102
-0.0280402
-0.340838
-0.32053
-0.301941
-0.276428
-0.244021
-0.206773
-0.167155
-0.127993
-0.0910347
-0.0535383
-0.375178
-0.352204
-0.332391
-0.306178
-0.273325
-0.235644
-0.195384
-0.15523
-0.116952
-0.0782064
-0.40658
-0.381129
-0.360207
-0.333438
-0.300331
-0.262457
-0.221827
-0.180962
-0.141705
-0.102482
-0.434982
-0.407259
-0.385343
-0.358154
-0.324974
-0.287135
-0.246398
-0.205098
-0.165096
-0.1253
-0.460355
-0.430578
-0.407785
-0.380301
-0.347215
-0.309622
-0.269027
-0.227561
-0.187052
-0.146769
-0.4827
-0.451099
-0.427544
-0.399882
-0.367039
-0.329887
-0.28967
-0.248297
-0.207548
-0.166998
-0.502049
-0.46886
-0.44466
-0.416927
-0.38446
-0.347923
-0.308303
-0.267273
-0.226546
-0.185974
-0.51846
-0.483928
-0.459198
-0.431491
-0.399514
-0.363746
-0.324921
-0.284471
-0.244012
-0.203666
-0.532017
-0.496391
-0.471243
-0.443652
-0.412262
-0.377393
-0.33954
-0.299888
-0.25993
-0.220057
-0.542829
-0.506356
-0.480905
-0.453508
-0.422787
-0.388923
-0.352196
-0.313538
-0.274301
-0.235148
-0.551023
-0.513952
-0.488307
-0.461176
-0.43119
-0.398416
-0.36294
-0.325453
-0.287137
-0.248953
-0.556745
-0.519319
-0.49359
-0.466791
-0.437588
-0.405967
-0.371845
-0.335679
-0.298467
-0.261498
-0.560156
-0.522609
-0.496903
-0.470495
-0.442114
-0.411689
-0.378997
-0.344277
-0.308334
-0.272823
-0.561427
-0.523985
-0.498406
-0.472444
-0.44491
-0.415706
-0.384495
-0.351324
-0.31679
-0.282976
-0.560736
-0.523615
-0.498263
-0.472797
-0.446129
-0.418152
-0.388454
-0.356907
-0.323903
-0.292022
-0.558267
-0.521666
-0.49664
-0.471718
-0.445926
-0.41917
-0.390993
-0.361123
-0.329748
-0.300033
-0.554204
-0.518311
-0.493704
-0.469371
-0.444459
-0.418907
-0.392241
-0.364077
-0.334409
-0.307086
-0.548732
-0.513715
-0.489617
-0.465916
-0.441886
-0.417511
-0.39233
-0.365878
-0.337976
-0.313266
-0.542027
-0.508041
-0.484536
-0.46151
-0.43836
-0.415127
-0.391391
-0.366638
-0.340539
-0.318655
-0.534262
-0.501444
-0.478613
-0.456303
-0.434031
-0.411901
-0.389555
-0.366467
-0.342191
-0.323328
-0.5256
-0.494071
-0.471988
-0.450435
-0.429038
-0.407969
-0.386948
-0.365472
-0.343016
-0.327352
-0.51619
-0.486057
-0.464794
-0.444036
-0.423514
-0.40346
-0.38369
-0.363753
-0.343095
-0.330771
-0.506173
-0.47753
-0.457152
-0.437228
-0.417579
-0.398496
-0.379893
-0.361403
-0.342495
-0.333605
-0.495676
-0.468603
-0.449169
-0.430117
-0.411343
-0.393185
-0.37566
-0.358502
-0.341271
-0.335833
-0.484813
-0.45938
-0.440945
-0.422799
-0.404901
-0.387627
-0.371081
-0.35512
-0.339458
-0.337376
-0.473687
-0.449953
-0.432565
-0.415357
-0.398339
-0.381906
-0.366237
-0.351313
-0.337067
-0.338056
-0.462393
-0.440406
-0.424105
-0.407864
-0.391728
-0.376096
-0.361195
-0.34713
-0.334103
-0.337536
-0.451017
-0.430813
-0.415631
-0.400378
-0.385125
-0.370254
-0.356003
-0.34261
-0.330619
-0.335435
-0.439638
-0.421242
-0.4072
-0.392952
-0.378578
-0.364422
-0.350676
-0.337705
-0.326366
-0.331042
-0.428334
-0.411753
-0.398866
-0.385632
-0.37213
-0.358638
-0.345219
-0.33222
-0.319703
-0.317305
-0.417177
-0.402405
-0.390677
-0.378461
-0.365832
-0.352983
-0.339794
-0.326434
-0.309709
-0.274785
-0.406234
-0.393249
-0.382675
-0.371482
-0.35974
-0.347582
-0.334767
-0.321487
-0.304814
-0.26709
-0.395569
-0.384333
-0.374901
-0.364729
-0.353894
-0.342498
-0.330282
-0.31758
-0.302656
-0.269451
-0.385239
-0.3757
-0.367387
-0.358229
-0.348311
-0.337727
-0.326253
-0.314315
-0.300819
-0.271674
-0.375292
-0.367386
-0.360162
-0.352
-0.342997
-0.333246
-0.322578
-0.311462
-0.299106
-0.273418
-0.365771
-0.359424
-0.35325
-0.346057
-0.337956
-0.32904
-0.319199
-0.308926
-0.29762
-0.275084
-0.356711
-0.351844
-0.346673
-0.340413
-0.333188
-0.325094
-0.316073
-0.306629
-0.296295
-0.276585
-0.348144
-0.344671
-0.34045
-0.335079
-0.328695
-0.321395
-0.313169
-0.30451
-0.295047
-0.277803
-0.340097
-0.337929
-0.334601
-0.330069
-0.32448
-0.317934
-0.31046
-0.302528
-0.29384
-0.278716
-0.332593
-0.331641
-0.329144
-0.325394
-0.320549
-0.314708
-0.307933
-0.300661
-0.292659
-0.279343
-0.325659
-0.325829
-0.324098
-0.321068
-0.316909
-0.311717
-0.305582
-0.298901
-0.291502
-0.279717
-0.319318
-0.320514
-0.319481
-0.317107
-0.313571
-0.308968
-0.303408
-0.297248
-0.29038
-0.279878
-0.313595
-0.315718
-0.315313
-0.313526
-0.310548
-0.30647
-0.301418
-0.295706
-0.289318
-0.279863
-0.308516
-0.311463
-0.311612
-0.310343
-0.307855
-0.304237
-0.299624
-0.294285
-0.28834
-0.27966
-0.304104
-0.307769
-0.308398
-0.307575
-0.305507
-0.302282
-0.298045
-0.293052
-0.287366
-0.279238
-0.300384
-0.304657
-0.305688
-0.305238
-0.303521
-0.300621
-0.296695
-0.29197
-0.286516
-0.279347
-0.297378
-0.302143
-0.303498
-0.303347
-0.301911
-0.299271
-0.295591
-0.291074
-0.285805
-0.279253
-0.295106
-0.300243
-0.301843
-0.301916
-0.300691
-0.298245
-0.294747
-0.290385
-0.285252
-0.279089
-0.293582
-0.298969
-0.300733
-0.300956
-0.299871
-0.297555
-0.294178
-0.289917
-0.284877
-0.278959
-0.292817
-0.29833
-0.300176
-0.300474
-0.299459
-0.297207
-0.29389
-0.28968
-0.284688
-0.27889
-0.273468
-0.26517
-0.256422
-0.246419
-0.235469
-0.223694
-0.211239
-0.198283
-0.184995
-0.171546
-0.158092
-0.144777
-0.131725
-0.119045
-0.106828
-0.0951438
-0.0840626
-0.0735983
-0.0638403
-0.0546837
-0.0463689
-0.0384444
-0.031723
-0.024686
-0.0199743
-0.0128881
-0.0114581
-0.00191484
-0.00735521
0.0108012
-0.273942
-0.265446
-0.256679
-0.246646
-0.23567
-0.223876
-0.211405
-0.198434
-0.185134
-0.171674
-0.158211
-0.144886
-0.131825
-0.119135
-0.10691
-0.0952168
-0.0841275
-0.0736556
-0.0638904
-0.0547273
-0.0464062
-0.0384766
-0.0317496
-0.0247093
-0.0199915
-0.0129059
-0.0114658
-0.00193235
-0.00735016
0.0107715
-0.27488
-0.265988
-0.257189
-0.247095
-0.236068
-0.224236
-0.211732
-0.198735
-0.185411
-0.17193
-0.158446
-0.145102
-0.132023
-0.119315
-0.107072
-0.0953626
-0.0842572
-0.07377
-0.0639905
-0.0548142
-0.0464808
-0.0385408
-0.0318026
-0.024756
-0.0200257
-0.0129416
-0.0114811
-0.00196732
-0.00734015
0.0107123
-0.276274
-0.266785
-0.257942
-0.247758
-0.236654
-0.224766
-0.212216
-0.199179
-0.185822
-0.172309
-0.158797
-0.145425
-0.132318
-0.119584
-0.107315
-0.0955803
-0.0844509
-0.073941
-0.0641402
-0.0549444
-0.0465924
-0.0386369
-0.031882
-0.0248258
-0.0200771
-0.0129949
-0.0115041
-0.00201959
-0.00732528
0.010624
-0.278214
-0.267794
-0.258918
-0.248619
-0.237415
-0.225456
-0.212845
-0.199759
-0.186359
-0.172807
-0.159258
-0.14585
-0.132708
-0.119939
-0.107637
-0.0958687
-0.0847077
-0.074168
-0.0643388
-0.0551172
-0.0467407
-0.0387646
-0.0319875
-0.0249186
-0.0201453
-0.0130657
-0.0115348
-0.00208896
-0.00730578
0.0105071
-0.280893
-0.268909
-0.260087
-0.24966
-0.238335
-0.22629
-0.21361
-0.200466
-0.187015
-0.173418
-0.159825
-0.146374
-0.13319
-0.120379
-0.108035
-0.0962265
-0.0850266
-0.0744499
-0.0645858
-0.0553321
-0.0469251
-0.0389235
-0.0321189
-0.0250342
-0.0202304
-0.0131539
-0.0115732
-0.00217517
-0.00728188
0.0103623
-0.283084
-0.270595
-0.261445
-0.25086
-0.239396
-0.227253
-0.214494
-0.201287
-0.187781
-0.174133
-0.160491
-0.146992
-0.133759
-0.120899
-0.108507
-0.0966518
-0.0854061
-0.0747857
-0.0648802
-0.0555885
-0.0471452
-0.0391132
-0.0322758
-0.0251722
-0.0203321
-0.0132592
-0.0116194
-0.00227788
-0.0072539
0.0101903
-0.285873
-0.272367
-0.262945
-0.252196
-0.240574
-0.228325
-0.215483
-0.202209
-0.188646
-0.174945
-0.161251
-0.147699
-0.134412
-0.121498
-0.109052
-0.0971424
-0.0858445
-0.0751739
-0.0652209
-0.0558853
-0.0474002
-0.0393331
-0.0324577
-0.0253324
-0.0204502
-0.0133813
-0.0116734
-0.00239671
-0.00722218
0.00999233
-0.289071
-0.274265
-0.26457
-0.25364
-0.241847
-0.229486
-0.21656
-0.20322
-0.189599
-0.175844
-0.162096
-0.148488
-0.135144
-0.122171
-0.109665
-0.097696
-0.0863398
-0.0756132
-0.0656066
-0.0562217
-0.0476893
-0.0395826
-0.0326643
-0.0255141
-0.0205845
-0.0135199
-0.0117351
-0.00253119
-0.00718714
0.00976936
-0.29254
-0.276303
-0.266292
-0.255162
-0.24319
-0.230715
-0.217706
-0.204303
-0.190629
-0.176821
-0.163019
-0.149354
-0.13595
-0.122914
-0.110343
-0.0983098
-0.0868898
-0.0761016
-0.066036
-0.0565965
-0.0480117
-0.0398609
-0.0328948
-0.0257171
-0.0207347
-0.0136746
-0.0118047
-0.00268084
-0.00714917
0.00952269
-0.296216
-0.27846
-0.268076
-0.256733
-0.244577
-0.231991
-0.218906
-0.205446
-0.191722
-0.177866
-0.164011
-0.15029
-0.136824
-0.123723
-0.111084
-0.0989811
-0.0874924
-0.0766374
-0.0665075
-0.0570084
-0.0483662
-0.0401671
-0.0331486
-0.0259406
-0.0209004
-0.013845
-0.0118822
-0.00284512
-0.00710874
0.00925368
-0.300039
-0.280712
-0.269888
-0.25832
-0.245985
-0.233293
-0.22014
-0.206633
-0.192867
-0.178968
-0.165066
-0.151289
-0.137761
-0.124592
-0.111882
-0.0997066
-0.0881448
-0.0772183
-0.0670194
-0.0574561
-0.0487517
-0.0405005
-0.0334251
-0.0261842
-0.0210813
-0.0140306
-0.0119675
-0.00302343
-0.00706631
0.00896379
-0.303914
-0.283034
-0.271695
-0.259892
-0.24739
-0.234603
-0.221394
-0.20785
-0.194053
-0.180119
-0.166173
-0.152344
-0.138755
-0.125518
-0.112735
-0.100483
-0.0888446
-0.0778425
-0.06757
-0.0579381
-0.0491672
-0.04086
-0.0337234
-0.0264471
-0.0212769
-0.0142308
-0.0120607
-0.00321517
-0.00702237
0.00865455
-0.30771
-0.285399
-0.27347
-0.261417
-0.248769
-0.235902
-0.222653
-0.209087
-0.19527
-0.181309
-0.167326
-0.153449
-0.139801
-0.126496
-0.113638
-0.101308
-0.0895892
-0.0785077
-0.0681575
-0.058453
-0.0496114
-0.0412446
-0.0340428
-0.0267287
-0.0214869
-0.0144453
-0.0121617
-0.00341968
-0.00697737
0.00832752
-0.311241
-0.28776
-0.275178
-0.262861
-0.250098
-0.237173
-0.223902
-0.210329
-0.196505
-0.182528
-0.168516
-0.154595
-0.140892
-0.12752
-0.114587
-0.102177
-0.0903748
-0.0792106
-0.0687792
-0.0589984
-0.0500822
-0.0416527
-0.034382
-0.0270279
-0.0217105
-0.0146732
-0.0122704
-0.00363625
-0.00693169
0.00798434
-0.314201
-0.290016
-0.276782
-0.264186
-0.251351
-0.238398
-0.225125
-0.211561
-0.197743
-0.183761
-0.169729
-0.155771
-0.142015
-0.128579
-0.115572
-0.10308
-0.0911943
-0.0799453
-0.0694298
-0.05957
-0.0505762
-0.0420815
-0.0347386
-0.0273428
-0.0219464
-0.0149134
-0.0123862
-0.00386402
-0.00688564
0.00762664
-0.316132
-0.292075
-0.278291
-0.265389
-0.252526
-0.239577
-0.22632
-0.212783
-0.198984
-0.185007
-0.170963
-0.156975
-0.143172
-0.129673
-0.116592
-0.10402
-0.092048
-0.0807121
-0.07011
-0.0601685
-0.051094
-0.0425314
-0.0351134
-0.027674
-0.0221953
-0.015166
-0.0125101
-0.00410236
-0.00684048
0.00725609
-0.316765
-0.294034
-0.279801
-0.266526
-0.253665
-0.240752
-0.227536
-0.214041
-0.200278
-0.186319
-0.172272
-0.15826
-0.144412
-0.130852
-0.117695
-0.105037
-0.0929739
-0.0815444
-0.0708487
-0.0608183
-0.0516562
-0.043019
-0.03552
-0.0280312
-0.0224658
-0.0154356
-0.0126475
-0.00435192
-0.00679945
0.00687422
-0.315365
-0.295267
-0.28108
-0.267471
-0.254674
-0.24186
-0.228727
-0.215308
-0.201608
-0.187692
-0.173661
-0.159639
-0.145756
-0.132137
-0.118904
-0.106156
-0.093994
-0.0824624
-0.0716633
-0.061534
-0.0522743
-0.0435533
-0.0359645
-0.0284191
-0.0227599
-0.0157241
-0.0127975
-0.00461363
-0.00676028
0.00648201
-0.304872
-0.292682
-0.281134
-0.267561
-0.254993
-0.24238
-0.22938
-0.216066
-0.202454
-0.188604
-0.174618
-0.160616
-0.146729
-0.133086
-0.119812
-0.107009
-0.0947823
-0.0831804
-0.0723063
-0.062106
-0.0527703
-0.0439904
-0.0363247
-0.028748
-0.0229968
-0.0159864
-0.0129079
-0.00487735
-0.00669195
0.00608017
-0.270064
-0.285167
-0.280677
-0.267566
-0.255252
-0.242799
-0.229832
-0.216496
-0.202846
-0.188952
-0.174924
-0.160885
-0.146969
-0.133303
-0.120011
-0.107196
-0.0949576
-0.08335
-0.0724664
-0.0622674
-0.0529169
-0.0441517
-0.0364523
-0.0289221
-0.0230879
-0.0161989
-0.012924
-0.00518079
-0.00654403
0.00557757
-0.258698
-0.276209
-0.275073
-0.262836
-0.25127
-0.239522
-0.227088
-0.214196
-0.200944
-0.187411
-0.173706
-0.159956
-0.146293
-0.132845
-0.119736
-0.107072
-0.0949547
-0.0834431
-0.0726278
-0.062484
-0.0531584
-0.0444266
-0.0367096
-0.0292188
-0.0233062
-0.0165138
-0.0130388
-0.00556168
-0.00643504
0.00496342
-0.253407
-0.267804
-0.267873
-0.256588
-0.245766
-0.234787
-0.223005
-0.21068
-0.197949
-0.184897
-0.171634
-0.158286
-0.144982
-0.131851
-0.119016
-0.106585
-0.0946607
-0.0833079
-0.0726155
-0.0625721
-0.0533104
-0.0446407
-0.0369333
-0.0294954
-0.0235251
-0.0168281
-0.0131722
-0.00594729
-0.00634823
0.00432739
-0.249209
-0.259381
-0.26012
-0.249953
-0.23982
-0.229576
-0.218477
-0.206758
-0.194586
-0.182052
-0.169267
-0.156355
-0.143444
-0.130662
-0.118132
-0.105962
-0.0942574
-0.083087
-0.0725387
-0.0626136
-0.0534315
-0.0448364
-0.0371492
-0.0297719
-0.0237498
-0.017153
-0.0133166
-0.00635042
-0.00626547
0.00366171
-0.244344
-0.250709
-0.251616
-0.242641
-0.233229
-0.223732
-0.213375
-0.202328
-0.190778
-0.178823
-0.166571
-0.154146
-0.141675
-0.129284
-0.117096
-0.105222
-0.0937653
-0.0828025
-0.0724195
-0.0626298
-0.0535417
-0.0450314
-0.0373734
-0.0300613
-0.0239924
-0.0174965
-0.0134795
-0.00677448
-0.00619051
0.00296897
-0.23829
-0.241558
-0.24218
-0.234404
-0.225808
-0.217094
-0.207545
-0.19725
-0.1864
-0.175097
-0.163448
-0.151574
-0.139602
-0.127656
-0.115859
-0.104323
-0.0931528
-0.0824297
-0.0722396
-0.0626074
-0.0536321
-0.04522
-0.0376033
-0.030362
-0.0242536
-0.0178579
-0.013664
-0.00721694
-0.00612904
0.0022575
-0.230583
-0.231661
-0.231763
-0.225161
-0.217505
-0.209625
-0.200944
-0.191477
-0.181402
-0.170826
-0.159851
-0.148596
-0.137185
-0.125741
-0.114387
-0.103237
-0.0923951
-0.0819478
-0.0719819
-0.0625328
-0.0536921
-0.0453938
-0.0378329
-0.0306692
-0.0245312
-0.0182344
-0.0138706
-0.00767457
-0.0060849
0.00153735
-0.220979
-0.220812
-0.220378
-0.214919
-0.208283
-0.201325
-0.193566
-0.184996
-0.175768
-0.165988
-0.155756
-0.145186
-0.134398
-0.123516
-0.112659
-0.101942
-0.0914731
-0.0813403
-0.0716321
-0.0623942
-0.0537122
-0.0455455
-0.0380567
-0.0309788
-0.0248224
-0.0186234
-0.0140988
-0.00814394
-0.00606128
0.000819885
-0.209494
-0.208917
-0.208092
-0.203734
-0.198223
-0.192221
-0.185432
-0.177814
-0.169494
-0.160574
-0.151148
-0.141325
-0.131221
-0.120958
-0.110652
-0.10042
-0.0903684
-0.0805905
-0.071176
-0.0621793
-0.0536822
-0.0456668
-0.0382683
-0.0312856
-0.0251238
-0.0190215
-0.0143475
-0.00862096
-0.00606101
0.000117795
-0.19635
-0.196006
-0.195026
-0.191725
-0.187375
-0.182386
-0.176593
-0.169969
-0.162605
-0.154595
-0.146029
-0.137007
-0.127644
-0.118053
-0.108351
-0.0986518
-0.0890638
-0.0796824
-0.0705985
-0.0618749
-0.0535906
-0.0457482
-0.0384597
-0.0315832
-0.0254305
-0.0194244
-0.0146148
-0.00910073
-0.00608632
-0.000555295
-0.181922
-0.182228
-0.181363
-0.17907
-0.175875
-0.171925
-0.167144
-0.161529
-0.155151
-0.148086
-0.140419
-0.132244
-0.123667
-0.114796
-0.105745
-0.0966261
-0.0875456
-0.0786015
-0.0698857
-0.061468
-0.0534256
-0.0457792
-0.0386221
-0.0318644
-0.0257366
-0.0198268
-0.0148973
-0.00957754
-0.00613844
-0.00118557
-0.166677
-0.167836
-0.167325
-0.165986
-0.163899
-0.160982
-0.157207
-0.152598
-0.14721
-0.141108
-0.134364
-0.127065
-0.119308
-0.111196
-0.102837
-0.094338
-0.0858054
-0.0773372
-0.0690258
-0.0609465
-0.0531756
-0.0457493
-0.0387458
-0.0321207
-0.026035
-0.0202224
-0.0151908
-0.010045
-0.00621738
-0.00175994
-0.151102
-0.153142
-0.153157
-0.152708
-0.151646
-0.149723
-0.146923
-0.143296
-0.138885
-0.133742
-0.127926
-0.121516
-0.1146
-0.107273
-0.099636
-0.0917913
-0.0838414
-0.0758837
-0.0680102
-0.0603004
-0.0528299
-0.0456479
-0.0388208
-0.0323433
-0.0263176
-0.0206043
-0.0154899
-0.0104964
-0.00632177
-0.00226711
-0.135638
-0.138471
-0.139102
-0.139464
-0.139321
-0.138324
-0.136449
-0.133758
-0.13029
-0.126081
-0.121183
-0.115659
-0.10959
-0.103062
-0.0961659
-0.0889992
-0.0816592
-0.0742408
-0.0668347
-0.0595228
-0.0523798
-0.0454658
-0.0388378
-0.0325231
-0.0265761
-0.0209648
-0.0157883
-0.0109244
-0.00644866
-0.00269861
-0.120642
-0.124118
-0.125379
-0.12646
-0.127117
-0.126956
-0.125937
-0.124122
-0.121546
-0.118232
-0.11422
-0.109567
-0.104336
-0.0986058
-0.0924587
-0.0859837
-0.0792722
-0.0724151
-0.0655002
-0.0586106
-0.0518196
-0.0451955
-0.038788
-0.0326517
-0.0268019
-0.0212961
-0.0160792
-0.0113223
-0.00659374
-0.00304952
-0.106371
-0.110322
-0.112169
-0.113867
-0.115203
-0.115777
-0.115531
-0.11452
-0.112772
-0.1103
-0.107134
-0.103317
-0.0989027
-0.0939576
-0.0885551
-0.082775
-0.0767011
-0.0704192
-0.0640131
-0.0575651
-0.0511466
-0.0448318
-0.0386647
-0.0327215
-0.026987
-0.0215907
-0.0163555
-0.0116837
-0.00675152
-0.00331906
-0.0929877
-0.0972548
-0.099608
-0.101822
-0.103719
-0.104923
-0.10536
-0.105072
-0.10408
-0.102388
-0.100013
-0.0969889
-0.0933584
-0.0891749
-0.0845018
-0.0794093
-0.073973
-0.0682722
-0.0623853
-0.0563924
-0.0503622
-0.0443728
-0.0384634
-0.0327265
-0.0271246
-0.0218419
-0.0166103
-0.0120034
-0.00691572
-0.00351069
-0.0805771
-0.0850265
-0.0877925
-0.0904212
-0.0927724
-0.0945037
-0.0955323
-0.0958838
-0.0955701
-0.0945887
-0.092946
-0.0906632
-0.0877728
-0.0843178
-0.0803494
-0.0759282
-0.0711206
-0.0659984
-0.0606338
-0.0551033
-0.0494721
-0.04382
-0.0381822
-0.0326631
-0.0272093
-0.0220442
-0.0168373
-0.0122774
-0.00707968
-0.00363176
-0.0691703
-0.0736978
-0.0767834
-0.0797356
-0.0824443
-0.0846077
-0.0861377
-0.0870449
-0.0873319
-0.0869888
-0.0860128
-0.0844143
-0.0822152
-0.0794473
-0.0761508
-0.0723761
-0.0681802
-0.0636265
-0.0587803
-0.053713
-0.048486
-0.0431784
-0.0378227
-0.03253
-0.0272377
-0.0221936
-0.017031
-0.0125038
-0.00723689
-0.00369276
-0.0587645
-0.0632938
-0.066615
-0.0698104
-0.0727933
-0.0753028
-0.07725
-0.078632
-0.0794426
-0.0796652
-0.0792886
-0.0783135
-0.0767514
-0.0746235
-0.07196
-0.0688003
-0.0651918
-0.0611893
-0.0568505
-0.0522411
-0.0474175
-0.0424571
-0.0373894
-0.032329
-0.0272087
-0.0222884
-0.0171875
-0.0126823
-0.0073815
-0.00370604
-0.0493398
-0.0538178
-0.0573039
-0.0606746
-0.0638611
-0.0666413
-0.0689289
-0.07071
-0.0719704
-0.0726873
-0.0728425
-0.072428
-0.0714458
-0.0699069
-0.0678319
-0.0652496
-0.0621981
-0.0587231
-0.0548744
-0.0507111
-0.0462846
-0.0416686
-0.0368906
-0.0320646
-0.0271239
-0.0223293
-0.0173045
-0.0128146
-0.00750884
-0.00368453
-0.0408689
-0.0452606
-0.0488551
-0.0523459
-0.0556775
-0.0586642
-0.0612241
-0.0633349
-0.0649756
-0.0661185
-0.0667392
-0.0668221
-0.0663607
-0.0653571
-0.0638221
-0.0617749
-0.0592443
-0.0562671
-0.0528852
-0.0491504
-0.0451088
-0.0408294
-0.036338
-0.0317451
-0.0269877
-0.0223192
-0.0173814
-0.0129041
-0.00761571
-0.0036404
-0.0333242
-0.037609
-0.0412682
-0.0448355
-0.0482653
-0.0514046
-0.0541777
-0.0565562
-0.0585135
-0.0600178
-0.06104
-0.0615581
-0.061558
-0.0610335
-0.0599866
-0.0584288
-0.0563784
-0.0538641
-0.0509198
-0.0475902
-0.0439157
-0.0399597
-0.0357466
-0.0313814
-0.026807
-0.0222637
-0.01742
-0.0129557
-0.00770064
-0.00358407
-0.0266819
-0.03085
-0.0345415
-0.0381522
-0.0416436
-0.0448916
-0.0478278
-0.0504194
-0.0526357
-0.0544418
-0.0558048
-0.0566975
-0.0570994
-0.0569972
-0.0563853
-0.0552664
-0.0536512
-0.0515598
-0.0490187
-0.0460652
-0.0427343
-0.0390833
-0.0351351
-0.0309878
-0.0265918
-0.0221707
-0.0174242
-0.0129751