/*--------------------------------*- C++ -*----------------------------------*\
  =========                 |
  \\      /  F ield         | OpenFOAM: The Open Source CFD Toolbox
   \\    /   O peration     | Website:  https://openfoam.org
    \\  /    A nd           | Version:  7
     \\/     M anipulation  |
\*---------------------------------------------------------------------------*/
FoamFile
{
    version     2.0;
    format      ascii;
    class       volVectorField;
    location    "40";
    object      U;
}
// * * * * * * * * * * * * * * * * * * * * * * * * * * * * * * * * * * * * * //

dimensions      [0 1 -1 0 0 0 0];

internalField   nonuniform List<vector> 
8500
(
(-0.000760229 0.000601241 3.61833e-22)
(-0.00384224 0.00130988 -1.15848e-21)
(-0.0092904 0.00165784 -1.42752e-21)
(-0.0153853 0.00174082 1.49021e-21)
(-0.0213842 0.0016309 -1.43269e-21)
(-0.0267512 0.00139414 -7.9198e-22)
(-0.0311269 0.00109191 1.39402e-21)
(-0.0343765 0.000781652 1.77529e-21)
(-0.0365505 0.000510963 -2.94973e-22)
(-0.037751 0.000323046 8.82227e-22)
(-0.000843714 0.00179042 -4.00605e-22)
(-0.00398039 0.00389769 1.3762e-21)
(-0.00936327 0.00492964 -3.42117e-21)
(-0.0153034 0.00517123 3.25766e-21)
(-0.0210706 0.00483759 1.53183e-22)
(-0.0261387 0.0041261 2.5864e-21)
(-0.0301565 0.00322026 -4.63413e-21)
(-0.0329985 0.0022923 -6.94748e-21)
(-0.0347239 0.00148576 -1.38048e-21)
(-0.0353887 0.000933125 3.17795e-21)
(-0.00100723 0.00294004 3.73351e-22)
(-0.00424837 0.00639036 3.03893e-21)
(-0.00949759 0.00807076 7.54697e-21)
(-0.0151264 0.00844907 -7.15798e-21)
(-0.0204291 0.00788031 -1.68355e-21)
(-0.0248991 0.00669052 -1.5844e-21)
(-0.0282012 0.00518369 8.40562e-21)
(-0.0302288 0.00364632 5.36205e-21)
(-0.0310587 0.00231983 1.31375e-21)
(-0.030651 0.00143442 -9.85132e-21)
(-0.00124394 0.00402478 1.32465e-21)
(-0.00462963 0.00872682 -1.77731e-21)
(-0.00967059 0.0109973 -1.4111e-20)
(-0.0148275 0.0114765 1.30599e-21)
(-0.0194306 0.010654 4.22983e-21)
(-0.0230028 0.00898038 -3.40981e-21)
(-0.025232 0.00687707 -1.57062e-22)
(-0.0260394 0.00474386 -1.46245e-21)
(-0.0255316 0.00292265 3.3847e-21)
(-0.02351 0.0017556 9.80516e-21)
(-0.00154381 0.00502086 9.26703e-22)
(-0.00509967 0.0108495 -5.79777e-21)
(-0.00984839 0.01363 1.46277e-20)
(-0.0143665 0.0141612 -7.00182e-21)
(-0.0180318 0.0130602 -2.7515e-23)
(-0.020405 0.0108957 1.04263e-20)
(-0.0212047 0.0082026 -4.92311e-21)
(-0.0203882 0.0054921 5.276e-22)
(-0.0181082 0.00321297 -2.15229e-21)
(-0.0139257 0.00185284 7.73989e-22)
(-0.00189378 0.00590656 1.11567e-20)
(-0.0056264 0.0127053 1.49504e-20)
(-0.0099862 0.0158962 -4.00264e-21)
(-0.0136904 0.0164189 8.02307e-21)
(-0.0161744 0.0150093 2.65591e-21)
(-0.0170458 0.0123464 -3.89629e-21)
(-0.0160601 0.00907288 -1.57738e-21)
(-0.0132164 0.00580885 -6.89176e-21)
(-0.00873086 0.00312159 1.56264e-21)
(-0.00187444 0.00175573 -9.07305e-21)
(-0.00227803 0.00666257 -1.07671e-20)
(-0.00617049 0.0142469 -7.79882e-21)
(-0.0100287 0.0177308 6.76106e-21)
(-0.0127329 0.0181749 -1.22437e-20)
(-0.0137858 0.016423 1.46691e-21)
(-0.0128494 0.013255 1.53936e-20)
(-0.00972284 0.00941434 -2.89754e-21)
(-0.00444956 0.00562888 1.90034e-20)
(0.00271104 0.00257567 -4.65418e-22)
(0.0126618 0.00133272 -7.98319e-21)
(-0.00267825 0.00727228 9.21181e-21)
(-0.00668589 0.0154334 -1.83069e-20)
(-0.00991031 0.0190781 -7.64329e-21)
(-0.0114148 0.019366 9.29337e-21)
(-0.0107783 0.0172366 3.6627e-22)
(-0.0077242 0.0135595 -2.89756e-20)
(-0.00209934 0.00916929 -1.77785e-21)
(0.00599393 0.00489333 -1.51552e-20)
(0.016265 0.0015221 -1.98657e-20)
(0.0298534 0.000484983 1.17392e-20)
(-0.00307391 0.00772194 -5.15564e-21)
(-0.00712029 0.0162308 2.72626e-21)
(-0.00955598 0.0198927 7.10678e-21)
(-0.00964489 0.0199422 -6.73802e-21)
(-0.00705007 0.0174015 -2.42379e-20)
(-0.00156328 0.0132163 8.55908e-21)
(0.00691619 0.00829994 1.23549e-21)
(0.0182234 0.00356823 2.28501e-20)
(0.0320215 -5.08353e-05 3.04628e-20)
(0.0497803 -0.000730149 -1.38609e-20)
(-0.00344245 0.00800067 8.32711e-21)
(-0.00741559 0.0166124 8.33222e-21)
(-0.00888138 0.0201401 -1.21158e-21)
(-0.00731964 0.0198679 3.33782e-20)
(-0.00248491 0.0168865 1.47548e-20)
(0.0057562 0.0122032 1.14197e-20)
(0.0174473 0.006795 1.65465e-20)
(0.0323589 0.00165391 -7.3876e-21)
(0.0500961 -0.00215439 -1.01798e-20)
(0.0725379 -0.00229675 -1.69555e-20)
(-0.00375951 0.00810047 -6.18123e-22)
(-0.00750841 0.0165593 -1.32546e-20)
(-0.00779377 0.0197976 -9.98803e-21)
(-0.00432449 0.0191226 -1.6589e-20)
(0.00304684 0.0156792 -1.35171e-20)
(0.0143725 0.0105206 1.42518e-20)
(0.029634 0.00467019 -1.39519e-20)
(0.048535 -0.000822783 -9.80989e-21)
(0.0706147 -0.00476576 1.335e-21)
(0.0982401 -0.00419035 4.3847e-21)
(-0.00399901 0.00801596 -2.35121e-20)
(-0.00733071 0.0160601 1.22264e-20)
(-0.0061929 0.0188542 9.25266e-21)
(-0.000534824 0.0177018 6.56817e-21)
(0.00968717 0.0137874 -1.22764e-20)
(0.0244379 0.00819385 -1.05639e-20)
(0.0436312 0.00197125 1.57683e-20)
(0.0669004 -0.00379961 -1.31807e-20)
(0.0937128 -0.00782189 -9.37471e-22)
(0.127008 -0.00635599 -1.41676e-20)
(-0.00413323 0.00774463 2.00651e-20)
(-0.00681026 0.0151114 8.91119e-21)
(-0.00397228 0.0173111 4.68706e-22)
(0.00418233 0.0156167 -1.19731e-20)
(0.0175884 0.0112385 7.3412e-22)
(0.0361172 0.00527286 1.42125e-20)
(0.0596072 -0.00122416 -4.1033e-21)
(0.0876161 -0.00717336 -5.10464e-21)
(0.119534 -0.0112137 -1.15297e-20)
(0.158961 -0.00870193 2.12968e-20)
(-0.00413333 0.00728657 1.41105e-20)
(-0.0058716 0.0137169 -2.43471e-20)
(-0.0010206 0.0151814 -1.95459e-20)
(0.009966 0.0128943 8.86263e-21)
(0.0269104 0.00807892 1.8471e-20)
(0.0495841 0.00183127 1.61882e-20)
(0.077741 -0.00480691 -1.74459e-20)
(0.110854 -0.0107971 3.42692e-20)
(0.148229 -0.014776 -1.06337e-20)
(0.194207 -0.0110888 -2.54145e-20)
(-0.00396924 0.00664442 -2.0774e-20)
(-0.00443712 0.0118886 1.36601e-20)
(0.00277603 0.0124901 -7.01577e-21)
(0.0169581 0.0095763 8.32633e-22)
(0.0378164 0.00437229 8.04717e-21)
(0.0650173 -0.00203688 -2.54418e-20)
(0.0982186 -0.00864029 2.28815e-20)
(0.136794 -0.0144808 -2.29237e-20)
(0.179956 -0.0182787 3.69059e-20)
(0.232838 -0.0133185 1.32789e-20)
(-0.00361015 0.00582372 4.70557e-21)
(-0.00242847 0.00964638 2.7165e-20)
(0.00753136 0.00927405 -7.34558e-21)
(0.0252991 0.00571836 7.45402e-21)
(0.0504673 0.000196845 9.09418e-21)
(0.0825936 -0.00622249 -2.90973e-21)
(0.121227 -0.0125681 2.01095e-20)
(0.165624 -0.0180001 1.21195e-21)
(0.214888 -0.0214252 -2.33654e-20)
(0.274932 -0.0151272 3.21463e-20)
(-0.00302504 0.0048331 -1.22707e-20)
(0.000231732 0.00701876 -2.60696e-20)
(0.0133557 0.00558188 2.33918e-20)
(0.0351231 0.00138901 1.23033e-20)
(0.0650146 -0.00435791 -5.76718e-20)
(0.102478 -0.0106087 4.84295e-20)
(0.146943 -0.0164282 -4.42141e-20)
(0.197526 -0.0211116 9.03947e-22)
(0.25321 -0.0238437 -1.00696e-20)
(0.320544 -0.0161211 -2.9694e-20)
(-0.00218343 0.00368478 1.10534e-20)
(0.00361769 0.0040431 -1.83203e-21)
(0.0203522 0.00147425 -5.7411e-21)
(0.0465517 -0.00333099 -5.86285e-22)
(0.0815909 -0.0091943 -4.02225e-21)
(0.124814 -0.01508 -1.51943e-20)
(0.175521 -0.0200727 6.35268e-21)
(0.232675 -0.0235779 -1.07466e-20)
(0.295091 -0.0250224 3.47073e-21)
(0.369563 -0.015504 1.7346e-21)
(-0.00105626 0.00239492 -2.26924e-20)
(0.00779808 0.000766544 -2.00475e-21)
(0.0286123 -0.0029754 2.88667e-21)
(0.0596867 -0.00834846 1.31796e-21)
(0.100299 -0.0142088 1.91714e-20)
(0.149703 -0.0195337 -5.78295e-20)
(0.207086 -0.0234042 3.93485e-20)
(0.271275 -0.0252309 -3.02302e-20)
(0.340817 -0.0243077 2.51339e-20)
(0.421534 -0.0119371 2.66438e-20)
(0.000383134 0.000984053 -2.9069e-21)
(0.0128337 -0.00275337 1.36033e-20)
(0.0382123 -0.00767982 -1.75528e-20)
(0.0746038 -0.0135561 -5.65012e-21)
(0.1212 -0.0192907 1.13269e-20)
(0.177183 -0.0238868 5.54178e-20)
(0.241686 -0.0264182 -1.11527e-20)
(0.313601 -0.0261357 5.47197e-21)
(0.391469 -0.0215641 -3.0012e-20)
(0.47776 -0.00563204 1.46488e-20)
(0.00215817 -0.000522706 -8.65995e-21)
(0.0187754 -0.00644812 -7.21096e-21)
(0.0492094 -0.0125363 1.99504e-21)
(0.0913458 -0.0188286 7.21916e-21)
(0.144294 -0.0243131 -2.22036e-20)
(0.207181 -0.0280583 -9.15732e-21)
(0.27914 -0.0291904 -2.95476e-20)
(0.359461 -0.0267776 3.02985e-20)
(0.448204 -0.0185543 3.31373e-20)
(0.54822 -0.00252089 -1.22224e-20)
(0.00428833 -0.00209572 -4.32788e-21)
(0.025663 -0.0102381 1.80886e-20)
(0.0616413 -0.0174253 -2.0494e-20)
(0.109923 -0.024017 -2.56696e-21)
(0.169527 -0.0291153 -1.04464e-20)
(0.239504 -0.0319114 2.29099e-20)
(0.31895 -0.0317084 2.9833e-20)
(0.407336 -0.0277848 -2.93261e-20)
(0.505396 -0.0187326 3.282e-20)
(0.612844 -0.00949716 5.38505e-21)
(0.00678896 -0.0037013 -1.24489e-20)
(0.0335246 -0.0140334 -3.66325e-20)
(0.0755261 -0.022211 3.69857e-20)
(0.130316 -0.0289473 5.44262e-21)
(0.196805 -0.0334916 7.96407e-21)
(0.273919 -0.0352075 5.35199e-21)
(0.360608 -0.0336582 2.31975e-20)
(0.456175 -0.0285122 1.72706e-20)
(0.561054 -0.0192703 -6.32965e-20)
(0.671621 -0.0143827 -3.24324e-20)
(0.00967124 -0.00530249 -4.21684e-20)
(0.042377 -0.0177356 9.01929e-21)
(0.0908643 -0.0267439 -2.12174e-20)
(0.152486 -0.0334253 4.08727e-21)
(0.226015 -0.0372036 6.83992e-21)
(0.3102 -0.0376462 -5.05068e-20)
(0.403734 -0.0346013 2.31507e-20)
(0.505517 -0.0281174 -1.56444e-20)
(0.615211 -0.0182694 1.69304e-20)
(0.727042 -0.0148824 -6.74686e-21)
(0.0129423 -0.00685995 1.5461e-20)
(0.0522256 -0.0212401 1.78906e-20)
(0.107639 -0.0308657 -1.17645e-21)
(0.176372 -0.0372459 -5.9149e-21)
(0.257032 -0.0400011 6.68244e-23)
(0.348135 -0.0389212 2.17742e-22)
(0.448046 -0.034137 -3.49996e-20)
(0.555145 -0.0260268 4.87388e-21)
(0.668228 -0.0150352 4.65988e-20)
(0.780443 -0.0113636 2.22007e-20)
(0.0166054 -0.00833291 -1.04729e-20)
(0.063064 -0.0244386 -8.14785e-21)
(0.125816 -0.034414 3.62435e-20)
(0.201893 -0.0402022 8.83093e-22)
(0.28971 -0.0416388 -1.62013e-20)
(0.387513 -0.03875 4.40963e-20)
(0.493286 -0.0319414 1.00147e-20)
(0.604862 -0.0218789 7.82174e-22)
(0.720226 -0.00927537 -2.02372e-20)
(0.832101 -0.00417512 -2.82776e-20)
(0.0206598 -0.00967983 2.20212e-20)
(0.0748741 -0.0272219 -6.51193e-21)
(0.145342 -0.0372272 -3.88606e-21)
(0.228945 -0.0420932 -1.57218e-20)
(0.323884 -0.0418883 2.60111e-20)
(0.428103 -0.0368876 -1.30948e-20)
(0.539183 -0.0277682 -1.52327e-20)
(0.654425 -0.0154574 -3.54157e-21)
(0.771103 -0.000893759 -1.19481e-20)
(0.881905 0.00632127 1.38334e-20)
(0.0251006 -0.0108589 -8.17398e-21)
(0.0876249 -0.0294814 -5.12511e-20)
(0.166144 -0.0391483 5.49936e-21)
(0.257398 -0.0427294 1.93322e-20)
(0.359358 -0.0405449 1.43993e-20)
(0.469646 -0.0331329 -4.89156e-20)
(0.585436 -0.0214449 3.24329e-20)
(0.703533 -0.00666004 -1.51407e-20)
(0.820622 0.0100655 2.39522e-20)
(0.929593 0.0197188 6.83221e-21)
(0.0299183 -0.0118287 -8.86804e-21)
(0.101272 -0.0311112 1.8289e-20)
(0.188128 -0.0400279 2.44e-20)
(0.287098 -0.0419381 -1.80064e-20)
(0.395908 -0.0374332 6.79436e-21)
(0.511852 -0.0273312 -4.31719e-20)
(0.631709 -0.0128673 -8.21606e-21)
(0.751844 0.00452599 7.27306e-21)
(0.868473 0.023468 -1.83307e-20)
(0.974843 0.0356063 -1.96778e-20)
(0.0350985 -0.012548 -1.13206e-20)
(0.115757 -0.0320097 -3.8261e-21)
(0.211178 -0.0397277 -4.40303e-20)
(0.31786 -0.0395665 -7.03353e-21)
(0.43328 -0.0324097 -6.67647e-22)
(0.554404 -0.0193744 2.66935e-21)
(0.67764 -0.00199228 4.48679e-21)
(0.798981 0.0180449 -2.32145e-20)
(0.914307 0.0391238 4.39825e-22)
(1.01732 0.0535856 1.37791e-20)
(0.0406213 -0.012977 -2.85952e-21)
(0.131005 -0.0320805 1.50428e-20)
(0.235155 -0.0381221 2.157e-20)
(0.349474 -0.0354844 1.3909e-20)
(0.471192 -0.025365 -4.23437e-21)
(0.596957 -0.00920014 -3.6437e-21)
(0.722845 0.0111695 3.75124e-20)
(0.844556 0.0337872 5.43419e-21)
(0.957771 0.0568072 1.84489e-20)
(1.05673 0.073277 -8.21439e-21)
(0.0464606 -0.0130768 2.8115e-20)
(0.146929 -0.0312345 1.9309e-20)
(0.2599 -0.0351008 -2.02539e-20)
(0.381707 -0.0295865 -4.12393e-21)
(0.509337 -0.0162249 2.20944e-21)
(0.639147 0.00321051 -8.57437e-21)
(0.76693 0.0265595 -1.93833e-20)
(0.888187 0.0516012 -3.22481e-21)
(0.998531 0.0762702 1.70362e-22)
(1.09281 0.0943225 9.01689e-21)
(0.0525844 -0.0128108 3.21255e-21)
(0.163423 -0.029391 -1.05199e-20)
(0.285231 -0.0305705 2.57345e-20)
(0.4143 -0.0217939 1.72646e-20)
(0.547391 -0.00495031 4.95391e-22)
(0.680601 0.0178345 1.32912e-20)
(0.809505 0.044077 2.01008e-21)
(0.929506 0.0713017 -1.5448e-20)
(1.03629 0.0972509 1.37009e-20)
(1.12536 0.116388 1.45548e-22)
(0.0589538 -0.012145 -2.28434e-20)
(0.180368 -0.0264794 -7.14154e-21)
(0.310947 -0.0244571 -6.7457e-21)
(0.446977 -0.0120563 -1.20239e-20)
(0.585013 0.00846188 2.91257e-21)
(0.72094 0.0346096 7.98131e-23)
(0.850191 0.0635844 1.08106e-20)
(0.968175 0.0926775 -1.82703e-21)
(1.07078 0.119481 -1.41516e-20)
(1.15424 0.139167 -1.35622e-20)
(0.0655234 -0.0110487 1.8166e-21)
(0.19763 -0.0224412 1.13583e-20)
(0.336832 -0.0167076 5.60545e-21)
(0.479445 -0.000352232 -1.84406e-20)
(0.621857 0.0239797 -1.01064e-21)
(0.759793 0.0534367 -8.83103e-21)
(0.888631 0.0849123 2.422e-22)
(1.0039 0.115498 4.59793e-21)
(1.10181 0.142693 -5.36422e-21)
(1.17936 0.162376 1.53507e-20)
(0.0722415 -0.00949567 4.18646e-21)
(0.215062 -0.017231 -1.09071e-20)
(0.362653 -0.00729115 -2.6719e-20)
(0.511404 0.0133094 2.57355e-20)
(0.657576 0.0415366 -2.04459e-21)
(0.796801 0.0741827 6.36495e-21)
(0.924495 0.107865 -9.64643e-22)
(1.03641 0.13952 6.85205e-21)
(1.12923 0.166621 -5.29169e-22)
(1.2007 0.185762 -1.18685e-20)
(0.0790504 -0.00746457 -8.33577e-21)
(0.232504 -0.010819 1.39804e-20)
(0.388167 0.00379858 1.209e-20)
(0.542546 0.0288889 -1.81833e-20)
(0.691827 0.0610328 -3.17234e-21)
(0.831625 0.0966843 1.29349e-21)
(0.95749 0.132223 1.38943e-20)
(1.06552 0.164491 7.62025e-22)
(1.15294 0.191009 2.9731e-21)
(1.21829 0.209097 -6.62503e-21)
(0.0858868 -0.00494016 6.29835e-21)
(0.249788 -0.00319177 -6.03918e-21)
(0.413122 0.0165429 -5.23118e-21)
(0.572563 0.0463163 9.56756e-21)
(0.724279 0.0823369 3.54524e-21)
(0.863951 0.120751 2.86648e-21)
(0.987364 0.157752 -1.41357e-20)
(1.09106 0.190156 -5.13202e-21)
(1.17289 0.215612 -4.77277e-21)
(1.23219 0.232176 2.18503e-21)
(0.092683 -0.00191394 -3.00945e-21)
(0.266738 0.00564582 -6.39049e-23)
(0.437263 0.0308968 9.88156e-21)
(0.601152 0.0654908 -3.86217e-21)
(0.754619 0.105288 -1.79191e-21)
(0.893496 0.146168 -1.26913e-21)
(1.0139 0.184205 3.42789e-21)
(1.11292 0.21626 6.24641e-21)
(1.18908 0.240198 -1.98325e-22)
(1.24251 0.254818 2.40682e-21)
(0.0993675 0.00161516 2.09713e-21)
(0.283174 0.01567 -6.36297e-22)
(0.460338 0.0467891 -1.74362e-21)
(0.628021 0.0862828 -1.67282e-21)
(0.782556 0.129698 1.63308e-21)
(0.920014 0.172704 1.37564e-21)
(1.03694 0.211324 -1.34417e-21)
(1.13103 0.242554 5.224e-22)
(1.20156 0.264548 7.56196e-22)
(1.24937 0.276863 -1.0202e-21)
(0.105866 0.00564016 1.0753e-21)
(0.298914 0.0268373 3.42851e-22)
(0.482096 0.0641222 -2.07434e-21)
(0.652892 0.108535 -1.78365e-21)
(0.807826 0.155355 2.01012e-21)
(0.943295 0.200107 4.1968e-22)
(1.05635 0.23885 -1.08224e-21)
(1.14537 0.268792 1.0633e-21)
(1.21039 0.28846 6.1435e-22)
(1.25293 0.298169 -7.0807e-22)
(0.112104 0.0101457 -4.38831e-22)
(0.313778 0.039084 8.99182e-22)
(0.502297 0.0827726 6.24866e-21)
(0.675508 0.132062 -2.98694e-21)
(0.830197 0.182026 -1.64381e-21)
(0.963167 0.228119 -2.00165e-21)
(1.07206 0.266521 4.34774e-21)
(1.15597 0.294741 3.05983e-21)
(1.21569 0.311744 2.52866e-21)
(1.25336 0.318609 1.38143e-21)
(0.118004 0.0151076 8.1425e-21)
(0.32759 0.0523269 -4.79024e-21)
(0.520714 0.102593 -5.95449e-21)
(0.695635 0.15666 8.64252e-21)
(0.849469 0.209462 4.95805e-21)
(0.979502 0.25647 -3.67464e-22)
(1.08402 0.294078 -7.20514e-21)
(1.16287 0.320175 -5.50765e-21)
(1.21758 0.334228 -5.85345e-21)
(1.25084 0.338071 3.453e-21)
(0.123494 0.0204931 -1.0868e-20)
(0.340182 0.0664631 1.08815e-20)
(0.537138 0.123411 1.32071e-20)
(0.713067 0.182099 -1.42867e-20)
(0.865479 0.237399 -5.49519e-21)
(0.99221 0.284888 3.83391e-21)
(1.09224 0.321268 7.56675e-21)
(1.16616 0.344882 1.22484e-21)
(1.21622 0.355749 -1.63809e-22)
(1.24555 0.356454 -4.56111e-21)
(0.128502 0.0262607 -1.45258e-21)
(0.351398 0.0813714 -1.49187e-20)
(0.55138 0.145038 -1.70839e-20)
(0.727627 0.208135 2.10818e-20)
(0.878102 0.265564 -2.56851e-21)
(1.00124 0.3131 5.24905e-21)
(1.09674 0.347843 1.1228e-21)
(1.16594 0.368661 -3.33974e-21)
(1.21175 0.376161 1.86579e-21)
(1.23767 0.373667 -1.01273e-22)
(0.13296 0.0323609 2.94347e-21)
(0.361094 0.0969139 8.92392e-21)
(0.563275 0.167262 5.58667e-21)
(0.739173 0.23451 -4.7078e-21)
(0.887251 0.293677 -7.88892e-21)
(1.00658 0.340835 -8.37129e-21)
(1.09759 0.373567 -1.80845e-21)
(1.16235 0.391323 4.85269e-21)
(1.20437 0.395327 -1.06873e-21)
(1.22741 0.389627 2.46227e-21)
(0.136806 0.038736 -1.04266e-20)
(0.369144 0.112937 -1.07904e-20)
(0.572686 0.189859 -1.74115e-21)
(0.747597 0.260955 -2.17139e-21)
(0.892877 0.321456 -5.63796e-21)
(1.00826 0.367829 3.93965e-21)
(1.09489 0.398214 -7.88608e-22)
(1.15554 0.412694 -4.34715e-21)
(1.19424 0.413118 3.99166e-21)
(1.21494 0.40426 -5.20291e-21)
(0.139986 0.0453218 2.97902e-21)
(0.375441 0.129275 9.05854e-21)
(0.579503 0.212593 8.39706e-21)
(0.752827 0.287195 1.01021e-20)
(0.89497 0.348623 4.07653e-22)
(1.00633 0.393824 1.06648e-20)
(1.08876 0.421571 5.99342e-22)
(1.14566 0.43261 -1.37699e-20)
(1.18154 0.429415 9.85285e-21)
(1.20041 0.41749 3.72247e-21)
(0.142451 0.0520475 6.49581e-21)
(0.379898 0.14575 1.51171e-20)
(0.58365 0.235218 -2.35078e-21)
(0.754827 0.312951 -1.23251e-20)
(0.893556 0.3749 6.33296e-21)
(1.00089 0.418576 -7.30767e-21)
(1.07934 0.443439 -9.97355e-21)
(1.13289 0.450927 -3.88656e-22)
(1.16644 0.444122 -7.52668e-21)
(1.18389 0.429201 2.68523e-21)
(0.144164 0.0588374 2.59217e-21)
(0.382451 0.162178 1.49888e-21)
(0.585079 0.257483 1.97372e-20)
(0.7536 0.337948 4.32378e-21)
(0.888698 0.40002 -3.93446e-21)
(0.992055 0.441851 -2.43447e-21)
(1.06679 0.463636 1.43019e-20)
(1.11742 0.467517 1.19604e-20)
(1.14914 0.457207 5.86237e-21)
(1.16568 0.439273 -5.6574e-22)
(0.145094 0.0656118 4.24043e-22)
(0.38306 0.178367 -1.48759e-20)
(0.583779 0.279136 -2.25085e-20)
(0.749181 0.361912 6.93672e-22)
(0.880492 0.423725 6.02411e-21)
(0.979976 0.463431 -8.24544e-21)
(1.05131 0.481988 -1.96261e-20)
(1.09943 0.482239 -5.87802e-21)
(1.12981 0.468546 -2.92285e-22)
(1.14603 0.447796 1.14518e-21)
(0.145223 0.0722882 -4.10661e-21)
(0.381709 0.194124 1.06229e-20)
(0.579766 0.299926 1.28362e-20)
(0.741644 0.384579 -1.30141e-20)
(0.869066 0.44577 2.27709e-21)
(0.964826 0.483114 1.81276e-20)
(1.03307 0.498346 -2.96844e-21)
(1.07912 0.494997 3.20739e-21)
(1.10858 0.478026 -5.87278e-22)
(1.12502 0.454674 -3.88701e-22)
(0.144542 0.0787826 -7.92948e-21)
(0.378406 0.209256 -1.71363e-20)
(0.573094 0.319608 -3.88594e-21)
(0.731094 0.405695 7.10875e-21)
(0.854579 0.465927 7.28632e-21)
(0.946799 0.500714 -1.68509e-20)
(1.01229 0.512574 9.07758e-21)
(1.05666 0.505699 -2.90169e-21)
(1.08566 0.485589 1.09287e-21)
(1.10274 0.459817 6.37467e-22)
(0.143054 0.0850112 6.14101e-21)
(0.373185 0.223573 1.1798e-21)
(0.563844 0.337943 -1.36289e-21)
(0.71767 0.425019 -7.36614e-21)
(0.837216 0.483984 4.24107e-21)
(0.926113 0.516066 2.31496e-21)
(0.989195 0.524556 -2.84797e-21)
(1.03228 0.514269 2.12567e-21)
(1.06118 0.491182 1.01916e-21)
(1.07932 0.463154 -2.96517e-21)
(0.140772 0.0908917 -1.01948e-21)
(0.366102 0.236889 -7.60808e-22)
(0.552129 0.354706 5.41755e-21)
(0.701536 0.442327 3.26733e-21)
(0.817188 0.499746 -5.81118e-21)
(0.903008 0.529023 5.22965e-21)
(0.964021 0.534192 1.46685e-21)
(1.00617 0.520645 2.72124e-21)
(1.03529 0.494761 6.55634e-21)
(1.05487 0.464618 1.17646e-21)
(0.137717 0.0963415 5.32388e-21)
(0.357239 0.249031 5.64872e-21)
(0.538087 0.369681 -1.94358e-21)
(0.682885 0.45741 -5.75008e-22)
(0.794731 0.513041 -1.92779e-21)
(0.877736 0.539456 -1.08384e-21)
(0.937018 0.541403 2.63796e-21)
(0.978534 0.524788 1.38279e-23)
(1.00812 0.496298 -5.82251e-21)
(1.02946 0.464136 -7.30796e-21)
(0.133922 0.101279 -2.19159e-21)
(0.346701 0.25983 -7.92058e-22)
(0.521883 0.382675 -2.77823e-21)
(0.661937 0.470081 8.68726e-22)
(0.770098 0.523714 -3.00938e-21)
(0.850567 0.547258 6.7792e-21)
(0.908449 0.546125 -8.3597e-22)
(0.949605 0.526676 1.14159e-21)
(0.97979 0.495782 -5.51551e-21)
(1.00316 0.461623 8.69081e-21)
(0.129436 0.105632 -2.04288e-21)
(0.334607 0.269128 4.1313e-22)
(0.503705 0.393508 -1.66057e-21)
(0.638929 0.480173 -2.41436e-21)
(0.743559 0.531631 -1.84216e-21)
(0.821786 0.552338 -3.15269e-22)
(0.878596 0.548313 3.28907e-21)
(0.919616 0.526308 -1.51518e-20)
(0.950397 0.493219 3.24424e-20)
(0.975999 0.456954 1.32056e-20)
(0.124309 0.109336 4.74077e-22)
(0.321095 0.276787 -8.90022e-21)
(0.48376 0.402019 6.83583e-21)
(0.614117 0.487542 -1.3744e-21)
(0.715397 0.536681 3.42111e-21)
(0.791686 0.554621 -5.85058e-21)
(0.847756 0.547938 -1.1227e-20)
(0.888838 0.523713 5.91463e-21)
(0.920111 0.488664 -2.68977e-21)
(0.947918 0.450015 -6.46166e-21)
(0.118602 0.112329 -2.03097e-21)
(0.306322 0.282684 2.33702e-21)
(0.462274 0.408071 -4.48953e-21)
(0.587769 0.492065 4.62017e-21)
(0.685901 0.53877 8.78415e-21)
(0.760566 0.554049 5.65007e-21)
(0.816236 0.544978 1.94175e-20)
(0.857611 0.518944 -1.40977e-20)
(0.889348 0.482338 -2.80656e-20)
(0.918674 0.441212 1.1524e-20)
(0.112382 0.114555 -4.81286e-21)
(0.290459 0.286713 -4.501e-21)
(0.439484 0.41155 1.60078e-21)
(0.560164 0.493644 1.40545e-20)
(0.655365 0.537828 -1.62673e-20)
(0.72872 0.550572 -2.22551e-20)
(0.78434 0.539393 -7.18584e-21)
(0.826376 0.511973 -9.48089e-22)
(0.85904 0.474515 3.53164e-20)
(0.887887 0.430972 -9.29509e-21)
(0.105723 0.11597 1.43012e-20)
(0.273687 0.288785 -4.93244e-22)
(0.415642 0.412365 -2.69391e-21)
(0.531587 0.492208 -1.33997e-22)
(0.62408 0.533806 -8.17986e-21)
(0.69642 0.544156 4.01334e-20)
(0.752327 0.531123 -2.76972e-20)
(0.795536 0.502557 3.47588e-20)
(0.830169 0.46471 -2.58682e-20)
(0.861112 0.421243 -3.49135e-20)
(0.0987036 0.116534 -6.72746e-21)
(0.256197 0.288833 3.11597e-21)
(0.391005 0.410452 -1.26166e-21)
(0.502327 0.487713 1.34008e-20)
(0.592333 0.526685 -4.47389e-21)
(0.663922 0.534803 7.10468e-21)
(0.720379 0.520182 1.66e-20)
(0.765026 0.490721 -9.09773e-21)
(0.801697 0.452647 -2.34711e-20)
(0.834379 0.409679 3.44134e-20)
(0.0914096 0.11622 1.3493e-20)
(0.238189 0.286811 1.90746e-20)
(0.365838 0.405773 -1.59434e-20)
(0.472675 0.480142 -1.40217e-20)
(0.560413 0.516473 4.14541e-20)
(0.631486 0.522543 -4.26944e-20)
(0.6887 0.506628 5.24867e-20)
(0.734943 0.476598 -1.422e-20)
(0.773653 0.438602 1.5935e-20)
(0.808056 0.396474 2.9924e-20)
(0.0839281 0.11501 -6.34192e-21)
(0.219865 0.282692 -1.70899e-20)
(0.340408 0.398316 -6.94422e-21)
(0.442924 0.469506 -4.6121e-21)
(0.528607 0.503205 3.5544e-21)
(0.599372 0.507428 -1.02573e-20)
(0.657515 0.490527 -1.5809e-20)
(0.705474 0.460283 -3.52321e-20)
(0.74626 0.422734 3.65078e-20)
(0.782483 0.381769 -1.26728e-20)
(0.0763489 0.112894 2.33644e-20)
(0.201433 0.276472 -1.53517e-21)
(0.314985 0.388096 -9.13966e-21)
(0.413367 0.455842 1.34781e-20)
(0.4972 0.486934 -2.47298e-20)
(0.567842 0.489527 6.65576e-20)
(0.627052 0.471954 -3.7089e-20)
(0.676812 0.441848 3.56811e-20)
(0.719705 0.4051 -6.9344e-20)
(0.757823 0.36558 -1.92008e-20)
(0.0687629 0.109874 -9.70528e-21)
(0.1831 0.268169 2.50352e-20)
(0.289835 0.375153 6.63627e-21)
(0.384291 0.439211 -1.1573e-20)
(0.466472 0.46774 -2.07527e-20)
(0.53715 0.468923 -1.27281e-21)
(0.597534 0.450992 1.24078e-20)
(0.649153 0.421363 -3.16323e-20)
(0.694163 0.385742 1.69081e-20)
(0.734219 0.347916 2.22202e-21)
(0.0612609 0.10596 -3.69636e-20)
(0.165069 0.257821 -9.99542e-21)
(0.265222 0.35955 -2.52737e-21)
(0.355975 0.419699 2.93426e-20)
(0.436693 0.445718 -2.80748e-20)
(0.507543 0.445717 -7.94658e-21)
(0.569178 0.427733 -4.92765e-21)
(0.622681 0.398907 9.8443e-21)
(0.669796 0.364714 -1.29524e-20)
(0.711803 0.328801 -2.14328e-20)
(0.0539325 0.101175 3.05226e-20)
(0.147541 0.245486 -1.75408e-20)
(0.241399 0.341376 1.11766e-21)
(0.32869 0.397414 -4.41543e-20)
(0.408124 0.420988 4.95819e-20)
(0.479254 0.420025 -1.65437e-20)
(0.542188 0.402282 1.04653e-20)
(0.597569 0.374566 9.6659e-21)
(0.646751 0.342078 2.96213e-20)
(0.690694 0.308275 -1.24873e-20)
(0.046865 0.0955468 -1.2383e-20)
(0.130711 0.231241 3.64686e-20)
(0.218613 0.320744 2.05072e-20)
(0.302695 0.372489 3.37579e-20)
(0.38101 0.393686 -8.36645e-21)
(0.452506 0.391977 3.39226e-21)
(0.516753 0.374756 2.95937e-20)
(0.573979 0.348439 6.89463e-21)
(0.625162 0.31791 6.69815e-22)
(0.670994 0.2864 -1.49377e-20)
(0.0401421 0.0891159 -2.63116e-20)
(0.114763 0.215184 -2.1006e-21)
(0.197094 0.297786 -1.16341e-20)
(0.278232 0.345074 -5.34912e-20)
(0.355583 0.363967 -5.41751e-20)
(0.427505 0.361722 9.55308e-21)
(0.493053 0.345288 -2.49526e-20)
(0.552058 0.320636 1.68715e-20)
(0.605151 0.292298 9.7755e-21)
(0.652797 0.263248 2.15641e-20)
(0.0338435 0.08193 3.71106e-20)
(0.0998723 0.197429 -3.22181e-20)
(0.177063 0.272658 -1.64106e-20)
(0.255531 0.315343 3.08982e-20)
(0.332059 0.332006 3.65283e-20)
(0.404441 0.329421 -1.26748e-20)
(0.471248 0.314018 -1.63816e-21)
(0.531941 0.291277 -5.23027e-20)
(0.586828 0.265342 -3.13216e-20)
(0.636185 0.238909 1.26853e-20)
(0.0280433 0.074045 -2.10348e-20)
(0.0862006 0.178107 9.45398e-21)
(0.158721 0.245532 3.50072e-20)
(0.234799 0.283486 -1.5985e-20)
(0.310635 0.297991 1.22759e-21)
(0.38349 0.295249 5.11658e-20)
(0.451487 0.281104 2.54608e-21)
(0.513749 0.260497 4.98887e-20)
(0.570291 0.237156 2.21383e-20)
(0.621231 0.21348 -3.70775e-20)
(0.02281 0.0655243 2.80608e-20)
(0.0738966 0.157366 3.24376e-21)
(0.142251 0.2166 2.24987e-21)
(0.216229 0.249712 3.28249e-20)
(0.291488 0.262127 -4.66884e-21)
(0.364808 0.259395 -3.19862e-20)
(0.433903 0.24671 1.67479e-20)
(0.497591 0.228437 -2.81048e-20)
(0.555628 0.207859 -1.24528e-20)
(0.608002 0.187068 1.34803e-20)
(0.0182049 0.0564382 -1.75285e-20)
(0.0630934 0.135363 -3.53671e-20)
(0.127819 0.186069 8.3285e-21)
(0.199988 0.214244 -1.71606e-20)
(0.274776 0.224633 -1.10534e-20)
(0.348532 0.222059 2.83272e-20)
(0.418612 0.211013 -7.20689e-21)
(0.483563 0.195249 7.21591e-21)
(0.542915 0.177582 -9.32537e-21)
(0.596555 0.159791 1.93254e-20)
(0.0142821 0.0468629 6.20671e-21)
(0.0539076 0.112274 2.36531e-20)
(0.115567 0.15416 -3.37854e-20)
(0.186225 0.17732 1.67938e-20)
(0.260637 0.185738 -8.07929e-21)
(0.334784 0.183451 -2.42167e-20)
(0.405713 0.174199 2.10036e-20)
(0.471746 0.161093 4.79569e-21)
(0.532218 0.146465 -6.84236e-22)
(0.586938 0.13177 -2.26045e-20)
(0.0110873 0.0368801 1.9726e-21)
(0.0464378 0.0882792 7.46636e-21)
(0.105618 0.121108 3.03971e-20)
(0.175063 0.139187 -6.10927e-21)
(0.249186 0.145682 -5.10224e-21)
(0.323664 0.14379 2.00577e-21)
(0.395293 0.136459 8.77846e-22)
(0.462209 0.126136 8.31804e-21)
(0.523594 0.11465 -1.16023e-20)
(0.579195 0.103134 -7.79082e-21)
(0.00865804 0.0265757 -5.01247e-21)
(0.0407643 0.0635718 -9.1393e-21)
(0.098069 0.0871559 -2.35263e-20)
(0.166602 0.100104 1.24212e-20)
(0.240516 0.104716 1.07377e-20)
(0.315253 0.103302 4.60783e-22)
(0.387418 0.0979939 -2.04609e-20)
(0.455008 0.0905504 -9.67795e-21)
(0.517086 0.0822871 8.13678e-21)
(0.573358 0.0740149 9.22191e-21)
(0.0070226 0.016039 8.70615e-22)
(0.0369479 0.0383502 -1.89169e-21)
(0.0929947 0.0525546 4.46424e-21)
(0.16092 0.0603377 -3.17729e-21)
(0.234696 0.063093 -2.95644e-21)
(0.309611 0.0622203 -2.12467e-21)
(0.38214 0.0590062 4.19346e-21)
(0.450184 0.0545121 1.69797e-20)
(0.512729 0.0495306 2.60185e-21)
(0.569452 0.0445485 -4.92033e-21)
(0.00620008 0.00536198 1.0691e-21)
(0.0350295 0.012818 -3.1311e-21)
(0.090445 0.0175618 -3.68333e-21)
(0.158066 0.0201585 -2.68588e-21)
(0.231775 0.021075 2.71933e-21)
(0.30678 0.02078 1.3046e-21)
(0.379492 0.0197038 -1.38098e-21)
(0.447766 0.0182011 -6.71738e-21)
(0.510545 0.0165367 2.34089e-21)
(0.567495 0.0148728 -2.32588e-21)
(0.00620008 -0.00536198 -1.0691e-21)
(0.0350295 -0.012818 3.1311e-21)
(0.090445 -0.0175618 3.68333e-21)
(0.158066 -0.0201585 -3.7105e-21)
(0.231775 -0.021075 3.46005e-21)
(0.30678 -0.02078 1.84793e-21)
(0.379492 -0.0197038 -3.14773e-21)
(0.447766 -0.0182011 -3.88799e-21)
(0.510545 -0.0165367 6.14984e-22)
(0.567495 -0.0148728 -1.82086e-21)
(0.0070226 -0.016039 1.16301e-21)
(0.0369479 -0.0383502 -3.73533e-21)
(0.0929947 -0.0525546 8.7041e-21)
(0.16092 -0.0603377 -8.03299e-21)
(0.234696 -0.063093 -3.90454e-22)
(0.309611 -0.0622203 -6.02007e-21)
(0.38214 -0.0590062 1.0432e-20)
(0.450184 -0.0545121 1.51152e-20)
(0.512729 -0.0495306 2.87995e-21)
(0.569452 -0.0445485 -6.5299e-21)
(0.00865804 -0.0265757 -1.01428e-21)
(0.0407643 -0.0635718 -7.94988e-21)
(0.098069 -0.0871559 -1.91337e-20)
(0.166602 -0.100104 1.74061e-20)
(0.240516 -0.104716 3.83971e-21)
(0.315253 -0.103302 3.605e-21)
(0.387418 -0.0979939 -1.87571e-20)
(0.455008 -0.0905504 -1.17317e-20)
(0.517086 -0.0822871 -2.7896e-21)
(0.573358 -0.0740149 2.01797e-20)
(0.0110873 -0.0368801 -3.62025e-21)
(0.0464378 -0.0882792 4.79725e-21)
(0.105618 -0.121108 3.49127e-20)
(0.175063 -0.139187 -3.25783e-21)
(0.249186 -0.145682 -9.93044e-21)
(0.323664 -0.14379 7.62294e-21)
(0.395293 -0.136459 5.48091e-22)
(0.462209 -0.126136 3.05484e-21)
(0.523594 -0.11465 -7.04142e-21)
(0.579195 -0.103134 -1.97687e-20)
(0.0142821 -0.0468629 -2.53591e-21)
(0.0539076 -0.112274 1.42513e-20)
(0.115567 -0.15416 -3.52994e-20)
(0.186225 -0.17732 1.61099e-20)
(0.260637 -0.185738 1.47879e-22)
(0.334784 -0.183451 -2.28943e-20)
(0.405713 -0.174199 1.07338e-20)
(0.471746 -0.161093 -1.1264e-21)
(0.532218 -0.146465 4.52354e-21)
(0.586938 -0.13177 -1.46916e-21)
(0.0182049 -0.0564382 -2.87409e-20)
(0.0630934 -0.135363 -3.61921e-20)
(0.127819 -0.186069 9.66074e-21)
(0.199988 -0.214244 -1.84422e-20)
(0.274776 -0.224633 -5.57243e-21)
(0.348532 -0.222059 8.67555e-21)
(0.418612 -0.211013 3.38645e-21)
(0.483563 -0.195249 1.37434e-20)
(0.542915 -0.177582 -3.08623e-21)
(0.596555 -0.159791 1.78335e-20)
(0.02281 -0.0655243 2.75232e-20)
(0.0738966 -0.157366 1.85163e-20)
(0.142251 -0.2166 -1.48918e-20)
(0.216229 -0.249712 2.58774e-20)
(0.291488 -0.262127 -2.45448e-21)
(0.364808 -0.259395 -3.12602e-20)
(0.433903 -0.24671 5.76528e-21)
(0.497591 -0.228437 -3.75718e-20)
(0.555628 -0.207859 1.33563e-21)
(0.608002 -0.187068 1.52106e-20)
(0.0280433 -0.074045 -2.12349e-20)
(0.0862006 -0.178107 3.99219e-20)
(0.158721 -0.245532 1.58222e-20)