/*--------------------------------*- C++ -*----------------------------------*\
  =========                 |
  \\      /  F ield         | OpenFOAM: The Open Source CFD Toolbox
   \\    /   O peration     | Website:  https://openfoam.org
    \\  /    A nd           | Version:  7
     \\/     M anipulation  |
\*---------------------------------------------------------------------------*/
FoamFile
{
    version     2.0;
    format      ascii;
    class       volScalarField;
    location    "20";
    object      p;
}
// * * * * * * * * * * * * * * * * * * * * * * * * * * * * * * * * * * * * * //

dimensions      [0 2 -2 0 0 0 0];

internalField   nonuniform List<scalar> 
8500
(
-0.29326
-0.298775
-0.30062
-0.300918
-0.299902
-0.29765
-0.294333
-0.290121
-0.285128
-0.279329
-0.294025
-0.299414
-0.301177
-0.3014
-0.300314
-0.297998
-0.29462
-0.290358
-0.285317
-0.279398
-0.29555
-0.300687
-0.302287
-0.302361
-0.301134
-0.298689
-0.29519
-0.290826
-0.285692
-0.279528
-0.297823
-0.302587
-0.303943
-0.303791
-0.302355
-0.299715
-0.296033
-0.291516
-0.286245
-0.279692
-0.300829
-0.305102
-0.306133
-0.305682
-0.303965
-0.301065
-0.297138
-0.292412
-0.286956
-0.279787
-0.30455
-0.308215
-0.308844
-0.30802
-0.305952
-0.302725
-0.298488
-0.293494
-0.287806
-0.27968
-0.308962
-0.311909
-0.312058
-0.310789
-0.3083
-0.304681
-0.300067
-0.294728
-0.288779
-0.280101
-0.314042
-0.316165
-0.31576
-0.313972
-0.310993
-0.306915
-0.301862
-0.296149
-0.289759
-0.280302
-0.319766
-0.320961
-0.319928
-0.317554
-0.314017
-0.309413
-0.303852
-0.29769
-0.290821
-0.280317
-0.326107
-0.326277
-0.324546
-0.321515
-0.317355
-0.312162
-0.306026
-0.299344
-0.291944
-0.280157
-0.333042
-0.33209
-0.329593
-0.325841
-0.320996
-0.315153
-0.308378
-0.301105
-0.293101
-0.279783
-0.340547
-0.338378
-0.33505
-0.330517
-0.324928
-0.31838
-0.310905
-0.302972
-0.294283
-0.279157
-0.348596
-0.345121
-0.3409
-0.335528
-0.329143
-0.321841
-0.313614
-0.304954
-0.29549
-0.278244
-0.357164
-0.352295
-0.347123
-0.340862
-0.333636
-0.325541
-0.31652
-0.307074
-0.296738
-0.277025
-0.366224
-0.359877
-0.353701
-0.346507
-0.338405
-0.329488
-0.319646
-0.309371
-0.298064
-0.275525
-0.375746
-0.367839
-0.360614
-0.352451
-0.343447
-0.333695
-0.323026
-0.311908
-0.29955
-0.273859
-0.385694
-0.376154
-0.36784
-0.358681
-0.348762
-0.338176
-0.326701
-0.314761
-0.301264
-0.272116
-0.396026
-0.384788
-0.375354
-0.365182
-0.354345
-0.342948
-0.330731
-0.318028
-0.303102
-0.269893
-0.406691
-0.393705
-0.38313
-0.371935
-0.360192
-0.348033
-0.335216
-0.321935
-0.30526
-0.267534
-0.417635
-0.402862
-0.391132
-0.378915
-0.366285
-0.353435
-0.340244
-0.326883
-0.310156
-0.275229
-0.428794
-0.412211
-0.399323
-0.386087
-0.372584
-0.359091
-0.34567
-0.33267
-0.320151
-0.317751
-0.440099
-0.4217
-0.407658
-0.393408
-0.379032
-0.364875
-0.351128
-0.338155
-0.326815
-0.331489
-0.451478
-0.431273
-0.416089
-0.400835
-0.38558
-0.370708
-0.356456
-0.343061
-0.331068
-0.335883
-0.462855
-0.440866
-0.424564
-0.408321
-0.392184
-0.376551
-0.361648
-0.347581
-0.334553
-0.337984
-0.47415
-0.450414
-0.433025
-0.415816
-0.398797
-0.382362
-0.366692
-0.351766
-0.337517
-0.338504
-0.485277
-0.459841
-0.441406
-0.423258
-0.405359
-0.388083
-0.371536
-0.355573
-0.339909
-0.337824
-0.496141
-0.469065
-0.449631
-0.430577
-0.411801
-0.393642
-0.376115
-0.358955
-0.341722
-0.33628
-0.506638
-0.477993
-0.457614
-0.437688
-0.418038
-0.398954
-0.380349
-0.361856
-0.342946
-0.334053
-0.516656
-0.486521
-0.465257
-0.444497
-0.423974
-0.403919
-0.384146
-0.364207
-0.343545
-0.331218
-0.526066
-0.494535
-0.472451
-0.450896
-0.429498
-0.408427
-0.387404
-0.365926
-0.343467
-0.327798
-0.534729
-0.501909
-0.479076
-0.456765
-0.434491
-0.41236
-0.390011
-0.366921
-0.342641
-0.323774
-0.542494
-0.508506
-0.485
-0.461973
-0.438821
-0.415586
-0.391847
-0.367091
-0.340989
-0.3191
-0.549198
-0.51418
-0.49008
-0.466379
-0.442347
-0.417969
-0.392786
-0.366331
-0.338425
-0.313711
-0.554671
-0.518776
-0.494168
-0.469834
-0.44492
-0.419366
-0.392697
-0.364529
-0.334857
-0.30753
-0.558733
-0.522131
-0.497104
-0.472181
-0.446387
-0.419629
-0.391448
-0.361574
-0.330195
-0.300475
-0.561202
-0.524079
-0.498727
-0.473259
-0.446589
-0.41861
-0.388908
-0.357358
-0.324349
-0.292464
-0.561892
-0.524449
-0.498869
-0.472905
-0.44537
-0.416163
-0.384949
-0.351774
-0.317235
-0.283417
-0.560621
-0.523073
-0.497366
-0.470956
-0.442573
-0.412145
-0.379449
-0.344726
-0.308778
-0.273262
-0.557209
-0.519781
-0.494052
-0.467251
-0.438046
-0.406423
-0.372297
-0.336126
-0.29891
-0.261936
-0.551485
-0.514414
-0.488768
-0.461636
-0.431647
-0.39887
-0.363391
-0.325899
-0.287578
-0.24939
-0.54329
-0.506817
-0.481365
-0.453966
-0.423243
-0.389376
-0.352645
-0.313983
-0.274741
-0.235583
-0.532477
-0.49685
-0.471702
-0.444109
-0.412717
-0.377844
-0.339988
-0.300331
-0.260369
-0.220491
-0.518918
-0.484386
-0.459655
-0.431947
-0.399967
-0.364196
-0.325367
-0.284913
-0.244449
-0.204099
-0.502505
-0.469317
-0.445116
-0.417382
-0.384911
-0.348372
-0.308747
-0.267713
-0.226982
-0.186406
-0.483155
-0.451553
-0.427998
-0.400335
-0.367489
-0.330334
-0.290113
-0.248735
-0.207983
-0.167428
-0.460807
-0.431031
-0.408237
-0.380752
-0.347663
-0.310067
-0.269468
-0.227997
-0.187486
-0.147198
-0.435432
-0.40771
-0.385794
-0.358603
-0.325421
-0.287578
-0.246837
-0.205534
-0.165528
-0.125728
-0.407028
-0.381578
-0.360655
-0.333885
-0.300775
-0.262898
-0.222265
-0.181395
-0.142135
-0.102909
-0.375625
-0.352651
-0.332837
-0.306623
-0.273767
-0.236083
-0.19582
-0.155662
-0.117381
-0.0786301
-0.341282
-0.320975
-0.302385
-0.276871
-0.244462
-0.207211
-0.167589
-0.128423
-0.0914617
-0.0539623
-0.304094
-0.286625
-0.269373
-0.244709
-0.212952
-0.176383
-0.137676
-0.0997555
-0.0641361
-0.0284633
-0.264183
-0.249707
-0.233905
-0.210248
-0.179357
-0.143724
-0.106203
-0.0697917
-0.0357899
-0.00197643
-0.221707
-0.210358
-0.196115
-0.173629
-0.14382
-0.109373
-0.0733126
-0.0386578
-0.00651867
0.0253219
-0.176848
-0.168741
-0.156165
-0.135016
-0.106491
-0.0735067
-0.0391625
-0.00649698
0.0235731
0.0532708
-0.129812
-0.125051
-0.114239
-0.0945766
-0.0675897
-0.0363025
-0.00392692
0.026531
0.0543485
0.0817089
-0.0808117
-0.0795275
-0.0705526
-0.0525439
-0.0273021
0.00204126
0.0322045
0.060255
0.0856594
0.110449
-0.0301626
-0.032374
-0.0253409
-0.00914331
0.0141471
0.0413105
0.0690307
0.0945045
0.117373
0.139217
0.0218567
0.016144
0.0211414
0.0353793
0.0565195
0.0812799
0.106341
0.129116
0.14935
0.167573
0.0749679
0.0657291
0.0686213
0.0807623
0.0995672
0.121716
0.143919
0.163894
0.181234
0.19488
0.128853
0.116084
0.116813
0.126733
0.143036
0.162387
0.181562
0.198575
0.212166
0.219737
0.183179
0.166899
0.165417
0.173009
0.186668
0.203077
0.219114
0.232961
0.24142
0.241528
0.237605
0.217853
0.214126
0.219301
0.230202
0.243566
0.256404
0.267108
0.272366
0.271049
0.291783
0.268617
0.262626
0.265316
0.273369
0.28361
0.293192
0.300672
0.303056
0.300462
0.345361
0.318858
0.310599
0.310756
0.315898
0.32296
0.329246
0.333441
0.332881
0.328522
0.397988
0.368242
0.357727
0.355327
0.35752
0.361376
0.364352
0.365256
0.36175
0.355324
0.449314
0.416438
0.403697
0.398737
0.397975
0.398626
0.398307
0.395947
0.389537
0.380868
0.498997
0.46312
0.448198
0.440703
0.437008
0.434488
0.430919
0.425352
0.416096
0.4051
0.546704
0.507971
0.490932
0.480949
0.474374
0.46875
0.462008
0.453323
0.441302
0.427952
0.592113
0.550682
0.531608
0.519211
0.509841
0.501209
0.491405
0.479718
0.465043
0.449362
0.634916
0.590961
0.56995
0.555239
0.543187
0.531676
0.518949
0.50441
0.487215
0.469267
0.674823
0.628531
0.605697
0.588795
0.574203
0.559972
0.544492
0.527276
0.507719
0.487606
0.711562
0.66313
0.638606
0.619659
0.602697
0.585934
0.567896
0.548201
0.526463
0.504317
0.744883
0.69452
0.668452
0.647628
0.628491
0.609409
0.589035
0.567083
0.54336
0.519343
0.774558
0.722483
0.695031
0.672518
0.651425
0.630261
0.607794
0.583824
0.558332
0.532626
0.800383
0.746823
0.71816
0.694165
0.671356
0.648367
0.62407
0.59834
0.571306
0.544116
0.822181
0.767372
0.737683
0.712427
0.688158
0.663621
0.637773
0.610554
0.582218
0.553766
0.839802
0.783987
0.753464
0.727183
0.701728
0.675934
0.648828
0.620404
0.591016
0.561537
0.853126
0.79655
0.765395
0.738336
0.711981
0.685233
0.657173
0.627838
0.597653
0.567394
0.862059
0.804975
0.773396
0.745812
0.718852
0.691463
0.662763
0.632816
0.602097
0.571313
0.866542
0.809202
0.777409
0.749563
0.722298
0.694587
0.665566
0.635312
0.604325
0.573277
0.866542
0.809202
0.777409
0.749563
0.722298
0.694587
0.665566
0.635312
0.604325
0.573277
0.862059
0.804975
0.773396
0.745812
0.718852
0.691463
0.662763
0.632816
0.602097
0.571313
0.853126
0.79655
0.765395
0.738336
0.711981
0.685233
0.657173
0.627838
0.597653
0.567394
0.839802
0.783987
0.753464
0.727183
0.701728
0.675934
0.648828
0.620404
0.591016
0.561537
0.822181
0.767372
0.737683
0.712427
0.688158
0.663621
0.637773
0.610554
0.582218
0.553766
0.800383
0.746823
0.71816
0.694165
0.671356
0.648367
0.62407
0.59834
0.571306
0.544116
0.774558
0.722483
0.695031
0.672518
0.651425
0.630261
0.607794
0.583824
0.558332
0.532626
0.744883
0.69452
0.668452
0.647628
0.628491
0.609409
0.589035
0.567083
0.54336
0.519343
0.711562
0.66313
0.638606
0.619659
0.602697
0.585934
0.567896
0.548201
0.526463
0.504317
0.674823
0.628531
0.605697
0.588795
0.574203
0.559972
0.544492
0.527276
0.507719
0.487606
0.634916
0.590961
0.56995
0.555239
0.543187
0.531676
0.518949
0.50441
0.487215
0.469267
0.592113
0.550682
0.531608
0.519211
0.509841
0.501209
0.491405
0.479718
0.465043
0.449362
0.546704
0.507971
0.490932
0.480949
0.474374
0.46875
0.462008
0.453323
0.441302
0.427952
0.498997
0.46312
0.448198
0.440703
0.437008
0.434488
0.430919
0.425352
0.416096
0.4051
0.449314
0.416438
0.403697
0.398737
0.397975
0.398626
0.398307
0.395947
0.389537
0.380868
0.397988
0.368242
0.357727
0.355327
0.35752
0.361376
0.364352
0.365256
0.36175
0.355324
0.345361
0.318858
0.310599
0.310756
0.315898
0.32296
0.329246
0.333441
0.332881
0.328522
0.291783
0.268617
0.262626
0.265316
0.273369
0.28361
0.293192
0.300672
0.303056
0.300462
0.237605
0.217853
0.214126
0.219301
0.230202
0.243566
0.256404
0.267108
0.272366
0.271049
0.183179
0.166899
0.165417
0.173009
0.186668
0.203077
0.219114
0.232961
0.24142
0.241528
0.128853
0.116084
0.116813
0.126733
0.143036
0.162387
0.181562
0.198575
0.212166
0.219737
0.0749678
0.0657291
0.0686213
0.0807623
0.0995671
0.121716
0.143919
0.163894
0.181234
0.19488
0.0218566
0.0161439
0.0211414
0.0353793
0.0565195
0.0812799
0.106341
0.129116
0.14935
0.167573
-0.0301626
-0.032374
-0.0253409
-0.00914334
0.014147
0.0413105
0.0690307
0.0945045
0.117373
0.139217
-0.0808117
-0.0795275
-0.0705526
-0.052544
-0.0273022
0.00204124
0.0322045
0.060255
0.0856594
0.110449
-0.129813
-0.125051
-0.114239
-0.0945767
-0.0675897
-0.0363025
-0.00392694
0.026531
0.0543485
0.0817089
-0.176848
-0.168741
-0.156165
-0.135017
-0.106491
-0.0735067
-0.0391625
-0.006497
0.0235731
0.0532708
-0.221707
-0.210358
-0.196115
-0.173629
-0.14382
-0.109373
-0.0733126
-0.0386579
-0.00651869
0.0253218
-0.264184
-0.249707
-0.233905
-0.210248
-0.179357
-0.143724
-0.106203
-0.0697917
-0.03579
-0.00197645
-0.304094
-0.286625
-0.269373
-0.244709
-0.212952
-0.176383
-0.137676
-0.0997556
-0.0641362
-0.0284633
-0.341282
-0.320975
-0.302385
-0.276871
-0.244462
-0.207211
-0.167589
-0.128423
-0.0914617
-0.0539623
-0.375625
-0.352651
-0.332837
-0.306623
-0.273767
-0.236083
-0.19582
-0.155662
-0.117381
-0.0786301
-0.407028
-0.381578
-0.360655
-0.333885
-0.300775
-0.262898
-0.222265
-0.181396
-0.142135
-0.102909
-0.435432
-0.40771
-0.385794
-0.358603
-0.325421
-0.287578
-0.246837
-0.205534
-0.165528
-0.125728
-0.460807
-0.431031
-0.408237
-0.380752
-0.347663
-0.310067
-0.269468
-0.227998
-0.187486
-0.147198
-0.483155
-0.451553
-0.427998
-0.400335
-0.367489
-0.330334
-0.290113
-0.248735
-0.207983
-0.167428
-0.502505
-0.469317
-0.445116
-0.417382
-0.384911
-0.348372
-0.308747
-0.267713
-0.226982
-0.186406
-0.518918
-0.484386
-0.459655
-0.431947
-0.399967
-0.364196
-0.325367
-0.284913
-0.244449
-0.204099
-0.532477
-0.49685
-0.471702
-0.444109
-0.412717
-0.377844
-0.339988
-0.300331
-0.260369
-0.220491
-0.54329
-0.506817
-0.481365
-0.453966
-0.423243
-0.389376
-0.352645
-0.313983
-0.274741
-0.235583
-0.551485
-0.514414
-0.488768
-0.461636
-0.431647
-0.39887
-0.363391
-0.325899
-0.287578
-0.24939
-0.557209
-0.519781
-0.494052
-0.467251
-0.438046
-0.406423
-0.372297
-0.336126
-0.29891
-0.261937
-0.560621
-0.523073
-0.497366
-0.470956
-0.442573
-0.412145
-0.379449
-0.344726
-0.308778
-0.273262
-0.561892
-0.524449
-0.498869
-0.472906
-0.44537
-0.416163
-0.384949
-0.351774
-0.317235
-0.283417
-0.561202
-0.524079
-0.498727
-0.473259
-0.446589
-0.41861
-0.388908
-0.357358
-0.324349
-0.292464
-0.558733
-0.522131
-0.497104
-0.472181
-0.446387
-0.419629
-0.391448
-0.361574
-0.330195
-0.300475
-0.554671
-0.518776
-0.494168
-0.469834
-0.44492
-0.419366
-0.392697
-0.364529
-0.334857
-0.30753
-0.549198
-0.51418
-0.49008
-0.466379
-0.442347
-0.417969
-0.392786
-0.366331
-0.338425
-0.313711
-0.542494
-0.508506
-0.485
-0.461973
-0.438821
-0.415586
-0.391847
-0.367091
-0.340989
-0.3191
-0.534729
-0.501909
-0.479076
-0.456765
-0.434491
-0.41236
-0.390011
-0.366921
-0.342641
-0.323774
-0.526066
-0.494535
-0.472451
-0.450896
-0.429499
-0.408427
-0.387404
-0.365926
-0.343467
-0.327798
-0.516656
-0.486521
-0.465257
-0.444497
-0.423974
-0.403919
-0.384146
-0.364207
-0.343545
-0.331218
-0.506638
-0.477993
-0.457614
-0.437688
-0.418038
-0.398954
-0.380349
-0.361856
-0.342946
-0.334053
-0.496141
-0.469065
-0.449631
-0.430577
-0.411801
-0.393642
-0.376115
-0.358955
-0.341722
-0.33628
-0.485277
-0.459841
-0.441406
-0.423258
-0.405359
-0.388083
-0.371536
-0.355573
-0.339909
-0.337824
-0.47415
-0.450414
-0.433025
-0.415816
-0.398797
-0.382362
-0.366692
-0.351766
-0.337517
-0.338504
-0.462856
-0.440866
-0.424564
-0.408321
-0.392184
-0.376551
-0.361649
-0.347581
-0.334553
-0.337984
-0.451478
-0.431273
-0.416089
-0.400835
-0.38558
-0.370708
-0.356456
-0.343061
-0.331068
-0.335883
-0.440099
-0.4217
-0.407658
-0.393408
-0.379032
-0.364875
-0.351128
-0.338155
-0.326815
-0.331489
-0.428794
-0.412211
-0.399323
-0.386087
-0.372584
-0.359091
-0.34567
-0.33267
-0.320151
-0.317751
-0.417635
-0.402862
-0.391132
-0.378915
-0.366285
-0.353435
-0.340244
-0.326883
-0.310156
-0.275229
-0.406691
-0.393705
-0.38313
-0.371935
-0.360192
-0.348033
-0.335216
-0.321935
-0.305261
-0.267534
-0.396026
-0.384788
-0.375354
-0.365182
-0.354345
-0.342948
-0.330731
-0.318028
-0.303102
-0.269894
-0.385694
-0.376154
-0.36784
-0.358681
-0.348762
-0.338176
-0.326701
-0.314761
-0.301264
-0.272116
-0.375746
-0.367839
-0.360614
-0.352451
-0.343447
-0.333695
-0.323026
-0.311908
-0.29955
-0.273859
-0.366224
-0.359877
-0.353701
-0.346507
-0.338405
-0.329488
-0.319646
-0.309371
-0.298064
-0.275525
-0.357164
-0.352295
-0.347123
-0.340862
-0.333636
-0.325541
-0.31652
-0.307074
-0.296738
-0.277025
-0.348596
-0.345121
-0.3409
-0.335528
-0.329143
-0.321841
-0.313614
-0.304954
-0.29549
-0.278244
-0.340547
-0.338378
-0.33505
-0.330517
-0.324928
-0.31838
-0.310905
-0.302972
-0.294283
-0.279157
-0.333042
-0.33209
-0.329593
-0.325841
-0.320996
-0.315153
-0.308378
-0.301105
-0.293101
-0.279783
-0.326107
-0.326277
-0.324546
-0.321515
-0.317355
-0.312162
-0.306026
-0.299344
-0.291944
-0.280157
-0.319766
-0.320961
-0.319929
-0.317554
-0.314017
-0.309413
-0.303852
-0.29769
-0.290821
-0.280317
-0.314042
-0.316165
-0.31576
-0.313972
-0.310993
-0.306915
-0.301862
-0.296149
-0.289759
-0.280302
-0.308962
-0.311909
-0.312058
-0.310789
-0.3083
-0.304681
-0.300067
-0.294728
-0.288779
-0.280101
-0.30455
-0.308215
-0.308844
-0.30802
-0.305952
-0.302725
-0.298488
-0.293494
-0.287806
-0.27968
-0.300829
-0.305102
-0.306133
-0.305682
-0.303965
-0.301065
-0.297138
-0.292412
-0.286956
-0.279787
-0.297823
-0.302587
-0.303943
-0.303791
-0.302355
-0.299715
-0.296033
-0.291516
-0.286245
-0.279692
-0.29555
-0.300687
-0.302287
-0.302361
-0.301134
-0.298689
-0.29519
-0.290826
-0.285692
-0.279528
-0.294025
-0.299414
-0.301177
-0.3014
-0.300314
-0.297998
-0.29462
-0.290358
-0.285317
-0.279398
-0.29326
-0.298775
-0.30062
-0.300918
-0.299902
-0.29765
-0.294333
-0.290121
-0.285128
-0.279329
-0.273906
-0.265605
-0.256855
-0.246849
-0.235895
-0.224117
-0.211658
-0.198696
-0.185402
-0.171946
-0.158485
-0.145161
-0.132101
-0.11941
-0.107183
-0.0954867
-0.0843929
-0.0739143
-0.0641419
-0.0549674
-0.0466372
-0.0386884
-0.0319535
-0.0248785
-0.0201636
-0.0130093
-0.0116075
-0.00193072
-0.00747788
0.0109432
-0.274379
-0.265881
-0.257112
-0.247077
-0.236097
-0.224299
-0.211823
-0.198848
-0.185542
-0.172075
-0.158604
-0.14527
-0.1322
-0.119501
-0.107265
-0.09556
-0.0844581
-0.0739719
-0.0641923
-0.0550113
-0.0466748
-0.0387209
-0.0319803
-0.0249021
-0.020181
-0.0130274
-0.0116153
-0.00194858
-0.00747296
0.0109132
-0.275318
-0.266424
-0.257622
-0.247526
-0.236495
-0.224659
-0.212151
-0.199148
-0.185819
-0.172331
-0.15884
-0.145488
-0.132399
-0.119681
-0.107428
-0.0957061
-0.0845881
-0.0740867
-0.0642928
-0.0550987
-0.0467499
-0.0387856
-0.0320339
-0.0249493
-0.0202157
-0.0130637
-0.0116311
-0.00198423
-0.00746319
0.0108533
-0.276712
-0.267222
-0.258376
-0.248188
-0.237082
-0.22519
-0.212635
-0.199593
-0.18623
-0.172711
-0.159191
-0.14581
-0.132695
-0.119951
-0.107671
-0.0959244
-0.0847825
-0.0742584
-0.0644431
-0.0552296
-0.0468622
-0.0388824
-0.032114
-0.02502
-0.0202678
-0.0131179
-0.0116547
-0.00203752
-0.00744869
0.0107639
-0.278652
-0.268231
-0.259352
-0.24905
-0.237843
-0.22588
-0.213265
-0.200174
-0.186768
-0.173209
-0.159653
-0.146236
-0.133085
-0.120307
-0.107993
-0.0962137
-0.0850402
-0.0744862
-0.0646427
-0.0554033
-0.0470114
-0.0390111
-0.0322205
-0.0251139
-0.020337
-0.0131899
-0.0116863
-0.00210825
-0.00742967
0.0106456
-0.281329
-0.269347
-0.260522
-0.250092
-0.238764
-0.226715
-0.21403
-0.200881
-0.187424
-0.173821
-0.16022
-0.146761
-0.133568
-0.120747
-0.108392
-0.0965725
-0.0853601
-0.0747692
-0.0648908
-0.0556194
-0.0471971
-0.0391712
-0.0323531
-0.0252308
-0.0204233
-0.0132796
-0.0117258
-0.00219613
-0.00740635
0.0104991
-0.283522
-0.271033
-0.26188
-0.251293
-0.239825
-0.227678
-0.214915
-0.201703
-0.188191
-0.174537
-0.160888
-0.14738
-0.134138
-0.121269
-0.108866
-0.096999
-0.0857408
-0.0751062
-0.0651865
-0.0558771
-0.0474185
-0.0393624
-0.0325114
-0.0253704
-0.0205264
-0.0133867
-0.0117732
-0.00230082
-0.00737904
0.0103251
-0.286313
-0.272805
-0.26338
-0.252629
-0.241004
-0.228751
-0.215905
-0.202626
-0.189057
-0.17535
-0.161648
-0.148088
-0.134793
-0.121869
-0.109412
-0.0974909
-0.0861805
-0.0754959
-0.0655287
-0.0561755
-0.0476751
-0.0395839
-0.032695
-0.0255323
-0.0206461
-0.0135108
-0.0118285
-0.0024219
-0.00734808
0.0101247
-0.289511
-0.274704
-0.265006
-0.254073
-0.242278
-0.229913
-0.216982
-0.203638
-0.190012
-0.17625
-0.162494
-0.148879
-0.135526
-0.122543
-0.110026
-0.098046
-0.0866773
-0.0759367
-0.065916
-0.0565136
-0.0479659
-0.0398352
-0.0329033
-0.0257161
-0.0207822
-0.0136516
-0.0118919
-0.00255892
-0.00731385
0.00989906
-0.292982
-0.276743
-0.266729
-0.255597
-0.243621
-0.231143
-0.21813
-0.204722
-0.191042
-0.177228
-0.163419
-0.149746
-0.136333
-0.123288
-0.110706
-0.0986614
-0.0872291
-0.0764269
-0.0663472
-0.0568902
-0.0482902
-0.0401155
-0.0331357
-0.0259212
-0.0209343
-0.0138088
-0.0119632
-0.00271136
-0.00727676
0.00964941
-0.296658
-0.2789
-0.268513
-0.257168
-0.24501
-0.23242
-0.21933
-0.205866
-0.192136
-0.178274
-0.164413
-0.150683
-0.137209
-0.124098
-0.111448
-0.0993343
-0.0878334
-0.0769645
-0.0668206
-0.0573041
-0.0486467
-0.040424
-0.0333917
-0.0261471
-0.0211021
-0.0139818
-0.0120425
-0.00287866
-0.00723723
0.00937714
-0.300482
-0.281152
-0.270326
-0.258756
-0.246418
-0.233723
-0.220566
-0.207054
-0.193283
-0.179378
-0.165468
-0.151684
-0.138147
-0.124969
-0.112249
-0.100062
-0.0884877
-0.0775474
-0.0673345
-0.0577539
-0.0490344
-0.0407596
-0.0336704
-0.0263932
-0.0212852
-0.0141702
-0.0121298
-0.00306021
-0.00719572
0.00908372
-0.304358
-0.283475
-0.272134
-0.260328
-0.247824
-0.235033
-0.221821
-0.208272
-0.19447
-0.180529
-0.166577
-0.15274
-0.139143
-0.125896
-0.113103
-0.10084
-0.0891894
-0.0781735
-0.0678872
-0.0582381
-0.0494521
-0.0411215
-0.033971
-0.0266587
-0.0214832
-0.0143734
-0.012225
-0.00325537
-0.00715269
0.00877068
-0.308154
-0.28584
-0.273909
-0.261854
-0.249203
-0.236333
-0.223081
-0.20951
-0.195688
-0.181721
-0.167731
-0.153846
-0.14019
-0.126876
-0.114008
-0.101667
-0.089936
-0.0788408
-0.0684769
-0.0587552
-0.0498986
-0.0415086
-0.0342929
-0.0269431
-0.0216956
-0.014591
-0.0123281
-0.00346348
-0.0071086
0.00843961
-0.311685
-0.288202
-0.275619
-0.263298
-0.250533
-0.237605
-0.22433
-0.210753
-0.196924
-0.182941
-0.168922
-0.154995
-0.141282
-0.127901
-0.114959
-0.102537
-0.0907236
-0.0795459
-0.0691007
-0.059303
-0.0503718
-0.0419192
-0.0346345
-0.027245
-0.0219216
-0.014822
-0.0124389
-0.00368378
-0.00706379
0.00809215
-0.314646
-0.290459
-0.277223
-0.264625
-0.251787
-0.238831
-0.225554
-0.211986
-0.198163
-0.184175
-0.170137
-0.156172
-0.142408
-0.128962
-0.115945
-0.103443
-0.0915451
-0.0802827
-0.0697536
-0.0598769
-0.0508682
-0.0423505
-0.0349937
-0.0275629
-0.02216
-0.0150655
-0.0125569
-0.00391541
-0.00701855
0.00772996
-0.316577
-0.292519
-0.278732
-0.265828
-0.252963
-0.24001
-0.22675
-0.213208
-0.199405
-0.185423
-0.171372
-0.157377
-0.143566
-0.130058
-0.116968
-0.104384
-0.0924008
-0.0810516
-0.070436
-0.0604778
-0.0513884
-0.0428031
-0.035371
-0.0278969
-0.0224115
-0.0153215
-0.012683
-0.0041577
-0.00697415
0.00735472
-0.31721
-0.294478
-0.280243
-0.266965
-0.254102
-0.241186
-0.227967
-0.214468
-0.2007
-0.186736
-0.172682
-0.158664
-0.144808
-0.131238
-0.118072
-0.105404
-0.0933286
-0.081886
-0.0711769
-0.0611298
-0.051953
-0.0432932
-0.0357801
-0.0282571
-0.0226846
-0.0155945
-0.0128226
-0.00441125
-0.00693381
0.00696798
-0.31581
-0.295711
-0.281522
-0.26791
-0.255111
-0.242294
-0.229158
-0.215735
-0.202031
-0.188109
-0.174073
-0.160044
-0.146152
-0.132525
-0.119282
-0.106524
-0.0943507
-0.082806
-0.0719936
-0.0618478
-0.0525735
-0.0438302
-0.0362272
-0.0286479
-0.0229812
-0.0158863
-0.0129748
-0.00467701
-0.00689524
0.00657071
-0.305317
-0.293127
-0.281576
-0.268002
-0.255431
-0.242816
-0.229813
-0.216495
-0.202878
-0.189023
-0.175031
-0.161022
-0.147128
-0.133476
-0.120193
-0.10738
-0.0951413
-0.0835266
-0.0726392
-0.0624226
-0.0530721
-0.0442702
-0.0365902
-0.0289801
-0.0232208
-0.0161524
-0.0130873
-0.00494521
-0.00682715
0.00616346
-0.27051
-0.285613
-0.281122
-0.268008
-0.255692
-0.243236
-0.230266
-0.216927
-0.203272
-0.189374
-0.175339
-0.161294
-0.14737
-0.133696
-0.120395
-0.107569
-0.09532
-0.0836997
-0.0728029
-0.0625879
-0.0532225
-0.0444358
-0.0367215
-0.029159
-0.0233152
-0.0163704
-0.0131057
-0.00525504
-0.00667901
0.00565376
-0.259142
-0.276655
-0.275517
-0.263278
-0.251709
-0.239959
-0.227522
-0.214627
-0.20137
-0.187832
-0.174122
-0.160366
-0.146695
-0.133239
-0.120121
-0.107447
-0.0953188
-0.0837946
-0.0729663
-0.0628069
-0.0534664
-0.0447137
-0.0369815
-0.0294593
-0.0235361
-0.0166899
-0.0132224
-0.00564198
-0.00656947
0.0050319
-0.253843
-0.268247
-0.268315
-0.257029
-0.246204
-0.235223
-0.223438
-0.211109
-0.198375
-0.185318
-0.17205
-0.158695
-0.145384
-0.132245
-0.119401
-0.106961
-0.0950256
-0.0836606
-0.0729554
-0.0628966
-0.0536202
-0.0449301
-0.0372072
-0.029739
-0.0237571
-0.0170084
-0.0133575
-0.00603318
-0.00648196
0.00438817
-0.249661
-0.259824
-0.260561
-0.250392
-0.240256
-0.23001
-0.218909
-0.207186
-0.195011
-0.182472
-0.169682
-0.156764
-0.143846
-0.131056
-0.118517
-0.106338
-0.094623
-0.0834408
-0.0728799
-0.0629397
-0.0537429
-0.0451279
-0.0374251
-0.0300185
-0.0239839
-0.0173374
-0.0135033
-0.00644198
-0.00639819
0.00371444
-0.244788
-0.251148
-0.252054
-0.243078
-0.233664
-0.224165
-0.213805
-0.202755
-0.191201
-0.179242
-0.166985
-0.154554
-0.142076
-0.129678
-0.117481
-0.105598
-0.0941315
-0.083157
-0.0727617
-0.0629572
-0.0538546
-0.045325
-0.0376512
-0.0303108
-0.0242284
-0.0176849
-0.0136674
-0.00687168
-0.00632182
0.00301336
-0.23873
-0.241995
-0.242616
-0.23484
-0.226239
-0.217525
-0.207973
-0.197675
-0.186821
-0.175514
-0.16386
-0.151981
-0.140002
-0.128049
-0.116244
-0.104699
-0.093519
-0.0827845
-0.0725823
-0.0629359
-0.0539462
-0.0455152
-0.0378826
-0.0306139
-0.0244912
-0.0180498
-0.0138528
-0.0073196
-0.00625848
0.00229338
-0.231019
-0.232095
-0.232196
-0.225589
-0.217929
-0.210053
-0.201369
-0.191899
-0.181821
-0.171241
-0.160261
-0.149001
-0.137584
-0.126133
-0.114772
-0.103612
-0.0927607
-0.0823025
-0.0723247
-0.0628617
-0.0540068
-0.0456902
-0.0381132
-0.0309231
-0.0247699
-0.0184295
-0.0140598
-0.00778235
-0.00621198
0.00156469
-0.221412
-0.221243
-0.220807
-0.215347
-0.208715
-0.201749
-0.193988
-0.185415
-0.176184
-0.1664
-0.156164
-0.145588
-0.134795
-0.123906
-0.113042
-0.102316
-0.0918377
-0.0816942
-0.0719745
-0.062723
-0.0540269
-0.0458424
-0.0383375
-0.031234
-0.0250617
-0.0188211
-0.0142878
-0.00825639
-0.00618548
0.000838763
-0.209922
-0.209344
-0.208517
-0.204158
-0.198646
-0.192641
-0.18585
-0.178229
-0.169907
-0.160983
-0.151552
-0.141724
-0.131615
-0.121345
-0.111033
-0.100792
-0.0907313
-0.0809431
-0.0715171
-0.0625073
-0.0539963
-0.0459636
-0.0385488
-0.0315415
-0.0253629
-0.0192211
-0.0145358
-0.0087375
-0.00618181
0.000128411
-0.196773
-0.196428
-0.195447
-0.192145
-0.187793
-0.182802
-0.177006
-0.17038
-0.163013
-0.155
-0.146429
-0.137403
-0.128034
-0.118437
-0.108728
-0.0990213
-0.0894243
-0.0800328
-0.0709378
-0.0622013
-0.0539033
-0.046044
-0.0387392
-0.031839
-0.0256688
-0.0196251
-0.0148015
-0.00922065
-0.0062032
-0.000552605
-0.18234
-0.182646
-0.181779
-0.179485
-0.176288
-0.172337
-0.167553
-0.161936
-0.155555
-0.148487
-0.140816
-0.132636
-0.124053
-0.115177
-0.106119
-0.0969922
-0.087903
-0.078949
-0.0702224
-0.0617921
-0.0537361
-0.0460733
-0.0388998
-0.0321192
-0.0259732
-0.0200277
-0.0150817
-0.00970005
-0.00625091
-0.00119034
-0.167091
-0.168249
-0.167736
-0.166396
-0.164307
-0.161389
-0.157611
-0.153
-0.14761
-0.141504
-0.134756
-0.127453
-0.11969
-0.111572
-0.103206
-0.0947001
-0.0861591
-0.0776812
-0.0693591
-0.0612674
-0.0534831
-0.0460407
-0.0390208
-0.0323735
-0.026269
-0.0204226
-0.0153721
-0.0101693
-0.00632503
-0.0017716
-0.151511
-0.153551
-0.153564
-0.153113
-0.15205
-0.150125
-0.147323
-0.143693
-0.139279
-0.134132
-0.128313
-0.121899
-0.114978
-0.107645
-0.100001
-0.0921489
-0.0841907
-0.0762235
-0.0683394
-0.0606174
-0.0531336
-0.0459359
-0.0390924
-0.0325933
-0.0265482
-0.0208027
-0.0156672
-0.0106214
-0.00642425
-0.00228497
-0.136042
-0.138875
-0.139504
-0.139864
-0.13972
-0.138721
-0.136844
-0.13415
-0.130679
-0.126467
-0.121565
-0.116037
-0.109963
-0.103428
-0.096526
-0.0893519
-0.0820036
-0.0745759
-0.0671592
-0.0598353
-0.0526791
-0.0457496
-0.0391051
-0.0327694
-0.0268024
-0.0211606
-0.015961
-0.0110493
-0.00654575
-0.00272193
-0.121042
-0.124518
-0.125777
-0.126856
-0.127511
-0.127348
-0.126327
-0.12451
-0.12193
-0.118613
-0.114597
-0.109939
-0.104703
-0.0989672
-0.0928136
-0.0863312
-0.0796113
-0.0727449
-0.0658195
-0.058918
-0.0521138
-0.0454743
-0.0390503
-0.0328935
-0.0270232
-0.0214884
-0.0162466
-0.0114461
-0.00668534
-0.00307753
-0.106768
-0.110718
-0.112563
-0.11426
-0.115593
-0.116165
-0.115917
-0.114903
-0.113151
-0.110676
-0.107506
-0.103684
-0.0992647
-0.0943137
-0.0889046
-0.083117
-0.0770348
-0.0707436
-0.0643269
-0.057867
-0.0514352
-0.0451052
-0.0389215
-0.0329582
-0.0272027
-0.0217789
-0.0165172
-0.0118058
-0.00683766
-0.00335097
-0.093381
-0.0976469
-0.0999982
-0.10221
-0.104105
-0.105307
-0.105742
-0.105451
-0.104455
-0.102759
-0.10038
-0.0973511
-0.0937153
-0.0895258
-0.0848459
-0.0797459
-0.0743012
-0.0685909
-0.0626934
-0.0566886
-0.050645
-0.0446405
-0.0387141
-0.0329576
-0.0273343
-0.0220253
-0.0167659
-0.012123
-0.00699657
-0.00354574
-0.0809672
-0.0854152
-0.0881792
-0.0908058
-0.0931548
-0.0948836
-0.0959095
-0.0962579
-0.0959407
-0.0949553
-0.0933083
-0.0910205
-0.0881247
-0.0846635
-0.0806882
-0.0762593
-0.0714432
-0.0663114
-0.0609361
-0.0553936
-0.0497489
-0.0440816
-0.0384268
-0.0328883
-0.0274127
-0.0222223
-0.0169867
-0.0123941
-0.00715554
-0.00366926
-0.0695573
-0.0740832
-0.0771667
-0.0801168
-0.0828232
-0.0849839
-0.0865111
-0.0874149
-0.0876983
-0.0873512
-0.0863706
-0.0847671
-0.0825623
-0.079788
-0.0764846
-0.072702
-0.0684974
-0.0639339
-0.0590768
-0.0539974
-0.0487567
-0.043434
-0.038061
-0.0327492
-0.0274347
-0.0223664
-0.0171744
-0.0126172
-0.00730817
-0.00373203
-0.0591487
-0.0636763
-0.0669953
-0.0701884
-0.0731689
-0.0756756
-0.0776197
-0.0789983
-0.0798051
-0.0800235
-0.0796422
-0.0786619
-0.077094
-0.0749596
-0.0722889
-0.0691212
-0.0655038
-0.0614913
-0.0571415
-0.0525198
-0.0476824
-0.0427066
-0.0376216
-0.0325421
-0.0273995
-0.0224558
-0.017325
-0.0127923
-0.00744869
-0.0037465
-0.0497213
-0.0541975
-0.0576813
-0.0610497
-0.0642335
-0.0670109
-0.0692953
-0.0710729
-0.0723293
-0.0730419
-0.0731922
-0.0727723
-0.0717841
-0.0702387
-0.0681562
-0.0655657
-0.0625051
-0.05902
-0.0551601
-0.0509843
-0.0465438
-0.0419124
-0.0371169
-0.032272
-0.0273088
-0.0224914
-0.0174365
-0.0129212
-0.00757248
-0.00372567
-0.041248
-0.0456378
-0.0492299
-0.0527182
-0.0560472
-0.0590308
-0.0615874
-0.0636946
-0.0653312
-0.0664696
-0.0670853
-0.0671627
-0.0666951
-0.0656847
-0.0641423
-0.0620866
-0.0595467
-0.0565592
-0.0531659
-0.0494185
-0.0453627
-0.0410678
-0.0365587
-0.031947
-0.0271669
-0.0224763
-0.0175084
-0.0130073
-0.00767636
-0.00368179
-0.0337011
-0.0379839
-0.0416406
-0.0452053
-0.0486324
-0.0517685
-0.0545383
-0.056913
-0.0588661
-0.0603658
-0.0613828
-0.0618952
-0.0618888
-0.0613573
-0.0603026
-0.0587364
-0.0566766
-0.0541518
-0.0511959
-0.0478535
-0.0441647
-0.0401931
-0.0359622
-0.0315782
-0.0269812
-0.0224162
-0.0175426
-0.0130557
-0.00775884
-0.00362535
-0.0270567
-0.0312227
-0.0349118
-0.0385198
-0.0420083
-0.0452531
-0.0481859
-0.0507736
-0.0529856
-0.0547869
-0.0561447
-0.0570315
-0.057427
-0.0573177
-0.0566979
-0.0555704
-0.0539456
-0.0518436
-0.0492907
-0.0463242
-0.0429788
-0.0393122
-0.0353461
-0.0311801
-0.0267614