/*--------------------------------*- C++ -*----------------------------------*\
  =========                 |
  \\      /  F ield         | OpenFOAM: The Open Source CFD Toolbox
   \\    /   O peration     | Website:  https://openfoam.org
    \\  /    A nd           | Version:  7
     \\/     M anipulation  |
\*---------------------------------------------------------------------------*/
FoamFile
{
    version     2.0;
    format      ascii;
    class       surfaceScalarField;
    location    "20";
    object      phi;
}
// * * * * * * * * * * * * * * * * * * * * * * * * * * * * * * * * * * * * * //

dimensions      [0 3 -1 0 0 0 0];

internalField   nonuniform List<scalar> 
16735
(
-4.23299e-05
4.23298e-05
5.3975e-11
-0.000145035
0.000102705
1.53299e-10
-0.000292272
0.000147236
2.52676e-10
-0.000468616
0.000176344
3.54373e-10
-0.000659515
0.000190899
4.59477e-10
-0.000852056
0.000192541
5.68684e-10
-0.00103597
0.000183917
6.83401e-10
-0.00120509
0.000169115
8.04081e-10
-0.00135824
0.000153147
9.23723e-10
0.000142397
1.04117e-09
-0.00150064
-4.15619e-05
8.38918e-05
-0.000142042
0.000203185
-0.000285466
0.000290661
-0.000456216
0.000347093
-0.000639463
0.000374146
-0.00082193
0.000375007
-0.000992892
0.000354879
-0.00114566
0.000321887
-0.00127863
0.000286117
0.000260303
-0.00139654
-4.00378e-05
0.00012393
-0.000136093
0.00029924
-0.000271935
0.000426503
-0.000431553
0.000506711
-0.000599576
0.000542169
-0.000761996
0.000537427
-0.000907176
0.000500059
-0.00102741
0.000442118
-0.00112017
0.000378877
0.000329388
-0.00118925
-3.77797e-05
0.000161709
-0.000127263
0.000388723
-0.00025183
0.000551071
-0.000394893
0.000649774
-0.00054027
0.000687546
-0.000672873
0.00067003
-0.000779699
0.000606886
-0.000851499
0.000513918
-0.000884349
0.000411727
0.000325544
-0.000880505
-3.48188e-05
0.000196528
-0.000115654
0.000469558
-0.000225367
0.000660784
-0.000346607
0.000771014
-0.000462135
0.000803074
-0.00055544
0.000763334
-0.00061171
0.000663156
-0.000619613
0.000521822
-0.00057362
0.000365734
0.000224672
-0.000472748
-3.11923e-05
0.00022772
-0.00010139
0.000539756
-0.000192803
0.000752197
-0.000287147
0.000865358
-0.000365892
0.000881819
-0.000410784
0.000808226
-0.000404761
0.000657133
-0.000333635
0.000450697
-0.000190084
0.000222182
1.92046e-05
1.53835e-05
-2.69397e-05
0.00025466
-8.46037e-05
0.00059742
-0.00015442
0.000822014
-0.000217011
0.000927949
-0.000252345
0.000917153
-0.000240123
0.000796005
-0.00016066
0.000577669
2.83871e-06
0.000287198
0.000264189
-3.91686e-05
-0.000338552
0.000621946
-2.20999e-05
0.00027676
-6.54266e-05
0.000640746
-0.000110499
0.000867086
-0.000136702
0.000954152
-0.000122321
0.000902771
-4.47593e-05
0.000718443
0.000118808
0.000414102
0.000389601
1.64054e-05
0.000782719
-0.000432286
-0.00085794
0.00130211
-1.67069e-05
0.000293467
-4.39775e-05
0.000668017
-6.1299e-05
0.000884408
-4.66932e-05
0.000939546
2.33827e-05
0.000832696
0.000174016
0.000567809
0.000431447
0.000156671
0.000821181
-0.000373328
0.00136343
-0.000974539
-0.00155956
0.00206505
-1.07872e-05
0.000304254
-2.03521e-05
0.000677582
-7.03367e-06
0.000871089
5.26103e-05
0.000879902
0.000184064
0.000701242
0.000415039
0.000336835
0.000775398
-0.000203688
0.00129557
-0.000893503
0.00200172
-0.00168069
-0.00246282
0.00290499
-4.35989e-06
0.000308614
5.38163e-06
0.00066784
5.21282e-05
0.000824343
0.000160899
0.000771131
0.000359175
0.000502966
0.000677341
1.86681e-05
0.00114899
-0.00067534
0.00180989
-0.0015544
0.0026932
-0.002564
-0.00358567
0.00381605
2.58357e-06
0.00030603
3.31804e-05
0.000637244
0.000116095
0.000741429
0.000277971
0.000609254
0.000548339
0.000232599
0.000960224
-0.000393217
0.00155088
-0.001266
0.00236157
-0.00236509
0.00343349
-0.00363592
-0.0049443
0.00479211
1.00214e-05
0.000296009
6.30422e-05
0.000584223
0.000184815
0.000619656
0.00040372
0.000390349
0.000751354
-0.000115035
0.00126328
-0.000905146
0.00198016
-0.00198287
0.00294853
-0.00333347
0.00421838
-0.00490577
-0.00655239
0.00582647
1.79803e-05
0.000278029
9.49627e-05
0.00050724
0.000258264
0.000456355
0.000538092
0.000110521
0.000968148
-0.000545091
0.0015864
-0.00152339
0.00243641
-0.00283289
0.00356937
-0.00446642
0.00504415
-0.00638055
-0.00842019
0.00691196
2.6464e-05
0.000251565
0.000128936
0.000404768
0.000336401
0.00024889
0.000681016
-0.000234093
0.00119867
-0.00106274
0.00192961
-0.00225433
0.00291975
-0.00382303
0.00422365
-0.00577033
0.005908
-0.0080649
-0.0105532
0.00804101
3.54727e-05
0.000216092
0.000164925
0.000275316
0.00041911
-5.29532e-06
0.000832291
-0.000647274
0.0014427
-0.00167315
0.00229288
-0.00310452
0.00343057
-0.00496072
0.00491205
-0.00725181
0.00680888
-0.00996173
-0.0129505
0.00920617
4.49906e-05
0.000171101
0.000202829
0.000117477
0.000506131
-0.000308598
0.000991449
-0.00113259
0.00169962
-0.00238132
0.00267574
-0.00408064
0.00396914
-0.00625412
0.00563617
-0.00891884
0.0077482
-0.0120738
-0.0156039
0.0104016
5.49783e-05
0.000116123
0.000242463
-7.0007e-05
0.000597
-0.000663135
0.00115761
-0.0016932
0.00196809
-0.0031918
0.00307668
-0.00518923
0.004535
-0.00771244
0.00639856
-0.0107824
0.00873011
-0.0144053
-0.0185021
0.0116283
6.53688e-05
5.07544e-05
0.000283537
-0.000288175
0.000690991
-0.00107059
0.00132933
-0.00233154
0.00224568
-0.00410815
0.00349244
-0.00643599
0.00512605
-0.00934604
0.00720445
-0.0128608
0.00976905
-0.0169699
-0.0216341
0.0129011
7.60683e-05
-2.53139e-05
0.000325664
-0.000537771
0.000787116
-0.00153204
0.00150454
-0.00304897
0.00252849
-0.0051321
0.00391653
-0.00782404
0.00573419
-0.0111637
0.00805629
-0.0151829
0.01093
-0.0198436
-0.0249303
0.0142261
8.69656e-05
-0.000112279
0.000368384
-0.000819189
0.000884183
-0.00204784
0.00168061
-0.00384539
0.00281111
-0.0062626
0.00433788
-0.00935081
0.00633596
-0.0131618
0.00890586
-0.0177528
0.0122501
-0.0231878
-0.0297977
0.0171175
9.79472e-05
-0.000210227
0.000411224
-0.00113247
0.000980956
-0.00261757
0.00185479
-0.00471923
0.00308764
-0.00749545
0.00474323
-0.0110064
0.0068982
-0.0153167
0.00965294
-0.0205076
0.0131718
-0.0267067
-0.034275
0.0176491
0.000108914
-0.00031914
0.000453758
-0.00147731
0.00107633
-0.00324015
0.00202473
-0.00566762
0.00335349
-0.00882421
0.00512404
-0.0127769
0.00740595
-0.0175987
0.010278
-0.0233796
0.0138299
-0.0302586
-0.0385332
0.0180882
0.000119789
-0.000438929
0.000495646
-0.00185317
0.00116945
-0.00391395
0.0021887
-0.00668687
0.00360582
-0.0102413
0.0054769
-0.014648
0.00785952
-0.0199813
0.0108062
-0.0263263
0.0143485
-0.033801
-0.0426206
0.0184359
0.00013052
-0.000569449
0.000536627
-0.00225927
0.00125965
-0.00463698
0.00234552
-0.00777274
0.00384303
-0.0117388
0.00580094
-0.0166059
0.00826285
-0.0224432
0.0112566
-0.02932
0.0147731
-0.0373175
-0.0465681
0.0187206
0.00014107
-0.000710518
0.000576497
-0.0026947
0.00134643
-0.00540691
0.00249429
-0.0089206
0.00406407
-0.0133086
0.00609588
-0.0186377
0.00861888
-0.0249662
0.011639
-0.0323402
0.0151187
-0.0407971
-0.0503938
0.0189444
0.000151407
-0.000861926
0.000615073
-0.00315837
0.00142932
-0.00622116
0.00263423
-0.0101255
0.00426797
-0.0149424
0.00636116
-0.0207309
0.00892869
-0.0275337
0.0119574
-0.0353689
0.0153889
-0.0442286
-0.0541024
0.0190974
0.000161494
-0.00102342
0.000652153
-0.00364903
0.00150782
-0.00707683
0.00276446
-0.0113821
0.00445353
-0.0166314
0.0065956
-0.022873
0.00919161
-0.0301297
0.0122116
-0.0383889
0.0155813
-0.0475982
-0.0576887
0.0191677
0.000171281
-0.0011947
0.000687501
-0.00416525
0.00158138
-0.0079707
0.00288395
-0.0126847
0.00461927
-0.0183667
0.00679735
-0.0250511
0.00940557
-0.0327379
0.012399
-0.0413824
0.0156909
-0.0508901
-0.0611419
0.0191441
0.000180699
-0.0013754
0.000720823
-0.00470537
0.00164929
-0.00889917
0.0029915
-0.0140269
0.00476337
-0.0201386
0.00696402
-0.0272517
0.00956766
-0.0353416
0.0125159
-0.0443306
0.0157121
-0.0540863
-0.0644472
0.0190174
0.00018966
-0.00156506
0.000751772
-0.00526748
0.00171079
-0.00985818
0.00308574
-0.0154019
0.00488381
-0.0219367
0.00709293
-0.0294609
0.0096746
-0.0379233
0.0125584
-0.0472144
0.01564
-0.0571679
-0.0675886
0.0187813
0.000198061
-0.00176312
0.000779951
-0.00584937
0.00176499
-0.0108432
0.0031652
-0.0168021
0.00497842
-0.0237499
0.00718132
-0.0316638
0.00972323
-0.0404652
0.0125231
-0.0500143
0.0154711
-0.0601159
-0.0705495
0.0184321
0.000205781
-0.0019689
0.000804924
-0.00644852
0.00181099
-0.0118493
0.00322833
-0.0182194
0.00504508
-0.0255667
0.0072266
-0.0338453
0.00971078
-0.0429493
0.0124075
-0.052711
0.0152036
-0.062912
-0.0733148
0.0179689
0.000212692
-0.00218159
0.000826233
-0.00706206
0.00184783
-0.0128709
0.00327364
-0.0196452
0.00508177
-0.0273748
0.00722648
-0.03599
0.00963517
-0.045358
0.0122104
-0.0552862
0.0148374
-0.065539
-0.0758709
0.0173934
0.000218659
-0.00240025
0.000843417
-0.00768681
0.00187459
-0.0139021
0.00329971
-0.0210704
0.00508672
-0.0291618
0.00717917
-0.0380824
0.0094951
-0.047674
0.0119315
-0.0577226
0.0143743
-0.0679819
-0.0782062
0.0167097
0.000223547
-0.0026238
0.000856024
-0.00831929
0.00189041
-0.0149364
0.00330528
-0.0224852
0.00505847
-0.030915
0.00708344
-0.0401074
0.00929019
-0.0498807
0.011572
-0.0600044
0.0138176
-0.0702275
-0.0803118
0.0159233
0.000227223
-0.00285102
0.000863631
-0.0089557
0.0018945
-0.0159673
0.0032893
-0.02388
0.00499596
-0.0326216
0.00693871
-0.0420502
0.00902097
-0.051963
0.0111342
-0.0621177
0.0131719
-0.0722651
-0.0821814
0.0150415
0.000229567
-0.00308059
0.000865857
-0.00959199
0.00188621
-0.0169877
0.00325096
-0.0252448
0.00489857
-0.0342692
0.00674505
-0.0438966
0.00868885
-0.0539068
0.0106216
-0.0640504
0.0124429
-0.0740864
-0.0838109
0.0140724
0.000230464
-0.00331105
0.000862371
-0.0102239
0.00186501
-0.0179903
0.00318972
-0.0265695
0.00476611
-0.0358456
0.00650318
-0.0456337
0.00829606
-0.0556997
0.0100384
-0.0657928
0.0116372
-0.0756853
-0.0851985
0.0130249
0.000229819
-0.00354087
0.000852908
-0.010847
0.00183051
-0.0189679
0.00310532
-0.0278443
0.00459889
-0.0373392
0.00621447
-0.0472493
0.0078456
-0.0573308
0.00938953
-0.0673367
0.0107621
-0.0770579
-0.0863446
0.0119082
0.000227549
-0.00376842
0.000837271
-0.0114567
0.00178253
-0.0199132
0.00299783
-0.0290596
0.00439762
-0.038739
0.00588084
-0.0487325
0.00734107
-0.058791
0.00868067
-0.0686763
0.00982511
-0.0782023
-0.087251
0.0107316
0.000223595
-0.00399202
0.00081534
-0.0120485
0.00172102
-0.0208189
0.0028676
-0.0302062
0.00416348
-0.0400349
0.00550475
-0.0500738
0.00678659
-0.0600728
0.00791776
-0.0698074
0.00883388
-0.0791185
-0.0879213
0.00950413
0.000217914
-0.00420993
0.000787071
-0.0126176
0.00164611
-0.0216779
0.00271524
-0.0312753
0.00389801
-0.0412177
0.00508909
-0.0512649
0.00618669
-0.0611704
0.00710701
-0.0707278
0.00779616
-0.0798076
-0.0883598
0.0082347
0.000210487
-0.00442042
0.000752502
-0.0131596
0.00155811
-0.0224835
0.00254167
-0.0322589
0.00360311
-0.0422791
0.00463711
-0.0522989
0.00554619
-0.0620795
0.00625477
-0.0714364
0.00671949
-0.0802723
-0.088572
0.00693167
0.000201316
-0.00462173
0.00071175
-0.0136701
0.00145749
-0.0232292
0.00234804
-0.0331494
0.003281
-0.0432121
0.00415238
-0.0531702
0.00487011
-0.0627973
0.00536738
-0.0719336
0.00561119
-0.0805161
-0.0885637
0.0056029
0.000190426
-0.00481216
0.000665008
-0.0141446
0.00134485
-0.0239091
0.00213571
-0.0339403
0.00293413
-0.0440105
0.00363869
-0.0538748
0.00416359
-0.0633222
0.00445107
-0.0722211
0.00447825
-0.0805433
-0.0883411
0.00425561
0.000177861
-0.00499002
0.000612543
-0.0145793
0.00122096
-0.0245175
0.00190626
-0.0346256
0.00256518
-0.0446694
0.00309998
-0.0544096
0.00343179
-0.063654
0.00351191
-0.0723012
0.00332722
-0.0803586
-0.0879104
0.00289655
0.00016369
-0.00515371
0.000554689
-0.0149703
0.0010867
-0.0250495
0.00166142
-0.0352003
0.00217699
-0.045185
0.00254032
-0.0547729
0.00267989
-0.0637935
0.00255586
-0.0721772
0.00216386
-0.0799666
-0.0872786
0.00153199
0.000147998
-0.00530171
0.000491842
-0.0153142
0.000943046
-0.0255007
0.00140303
-0.0356603
0.00177251
-0.0455545
0.00196383
-0.0549642
0.00191312
-0.0637428
0.00158913
-0.0718532
0.000993606
-0.0793711
-0.0864325
0.000147574
0.000130892
-0.0054326
0.000424449
-0.0156077
0.000791063
-0.0258673
0.00113306
-0.0360023
0.00135475
-0.0457762
0.0013746
-0.0549841
0.00113643
-0.0635046
0.000617411
-0.0713342
-0.000168397
-0.0785853
-0.085408
-0.0011929
0.00011249
-0.00554509
0.000353001
-0.0158482
0.000631885
-0.0261462
0.000853507
-0.0362239
0.000926738
-0.0458494
0.000776661
-0.054834
0.000354648
-0.0630826
-0.00035528
-0.0706243
-0.0013365
-0.0776041
-0.0842039
-0.00254065
9.29275e-05
-0.00563802
0.000278022
-0.0160333
0.000466683
-0.0263349
0.000566402
-0.0363236
0.000491471
-0.0457745
0.00017402
-0.0545166
-0.000427461
-0.0624812
-0.00132264
-0.0697291
-0.00248929
-0.0764374
-0.0828184
-0.00387476
7.23515e-05
-0.00571037
0.00020006
-0.016161
0.000296651
-0.0264315
0.000273761
-0.0363007
5.20034e-05
-0.0455527
-0.000429576
-0.054035
-0.00120527
-0.0617055
-0.00227978
-0.0686546
-0.00362716
-0.0750901
-0.0812553
-0.00519026
5.09225e-05
-0.00576129
0.000119671
-0.0162298
0.000122982
-0.0264348
-2.22682e-05
-0.0361555
-0.000389176
-0.0451858
-0.00103043
-0.0533937
-0.00197435
-0.0607615
-0.00322177
-0.0674071
-0.00474526
-0.0735666
-0.0795173
-0.00648328
2.88547e-05
-0.00579015
3.74045e-05
-0.0162383
-5.32035e-05
-0.0263442
-0.000320372
-0.0358883
-0.000829151
-0.044677
-0.00162512
-0.0525977
-0.00273049
-0.0596562
-0.00414366
-0.065994
-0.00583854
-0.0718717
-0.0776057
-0.00775009
5.84725e-06
-0.00579599
-4.62255e-05
-0.0161863
-0.000230803
-0.0261596
-0.000618197
-0.0355009
-0.00126555
-0.0440296
-0.00221057
-0.0516527
-0.0034698
-0.058397
-0.0050405
-0.0644233
-0.00690159
-0.0700106
-0.07552
-0.00898734
-1.72988e-05
-0.0057787
-0.000130636
-0.0160729
-0.000408698
-0.0258815
-0.000914324
-0.0349953
-0.00169623
-0.0432477
-0.00278409
-0.0505649
-0.0041888
-0.0569922
-0.00590746
-0.0627046
-0.00792857
-0.0679895
-0.0732566
-0.010192
-4.0613e-05
-0.00573808
-0.000215313
-0.0158982
-0.000585927
-0.0255109
-0.00120728
-0.0343739
-0.00211932
-0.0423357
-0.00334346
-0.0493407
-0.00488462
-0.0554511
-0.00674002
-0.0608492
-0.00891239
-0.0658171
-0.0708113
-0.0113577
-6.41347e-05
-0.00567395
-0.000299799
-0.0156626
-0.00076157
-0.0250491
-0.00149575
-0.0336398
-0.00253326
-0.0412982
-0.00388702
-0.047987
-0.00555527
-0.0537828
-0.00753381
-0.0588707
-0.00984043
-0.0635105
-0.0681731
-0.0124786
-8.76423e-05
-0.00558631
-0.000383621
-0.0153666
-0.000934771
-0.024498
-0.00177855
-0.032796
-0.00293679
-0.04014
-0.00441387
-0.0465099
-0.00620044
-0.0519963
-0.00828629
-0.0567848
-0.0106983
-0.0610984
-0.0653026
-0.0135689
-0.000110986
-0.00547532
-0.000466324
-0.0150112
-0.00110471
-0.0238596
-0.00205459
-0.0318461
-0.00332884
-0.0388657
-0.00492376
-0.044915
-0.00682287
-0.0500972
-0.00900389
-0.0546038
-0.0114273
-0.058675
-0.0625988
-0.0141311
-0.000134024
-0.0053413
-0.000547469
-0.0145978
-0.0012706
-0.0231365
-0.00232278
-0.0307939
-0.00370827
-0.0374802
-0.0054161
-0.0432071
-0.00742442
-0.0480888
-0.00970697
-0.0523213
-0.0122352
-0.0561468
-0.0598035
-0.0150306
-0.000156621
-0.00518467
-0.000626628
-0.0141278
-0.00143165
-0.0223315
-0.00258202
-0.0296435
-0.00407364
-0.0359886
-0.00588893
-0.0413918
-0.00800167
-0.0459761
-0.0103837
-0.0499392
-0.0130112
-0.0535193
-0.0569305
-0.0158842
-0.000178645
-0.00500603
-0.000703393
-0.013603
-0.00158713
-0.0214477
-0.00283124
-0.0283994
-0.00442355
-0.0343963
-0.00634025
-0.0394751
-0.00855107
-0.0437653
-0.0110258
-0.0474644
-0.0137408
-0.0508044
-0.0539841
-0.0166871
-0.000199972
-0.00480606
-0.000777383
-0.0130256
-0.00173636
-0.0204887
-0.00306948
-0.0270663
-0.0047568
-0.032709
-0.0067686
-0.0374633
-0.00907079
-0.0414631
-0.0116312
-0.044904
-0.014425
-0.0480105
-0.05097
-0.0174392
-0.000220486
-0.00458557
-0.000848249
-0.0123979
-0.00187873
-0.0194583
-0.00329593
-0.0256491
-0.00507245
-0.0309325
-0.00717301
-0.0353628
-0.00955998
-0.0390761
-0.0121994
-0.0422647
-0.0150657
-0.0451442
-0.0478921
-0.0181435
-0.000240082
-0.00434549
-0.000915674
-0.0117223
-0.00201371
-0.0183602
-0.00350988
-0.0241529
-0.00536972
-0.0290726
-0.00755276
-0.0331797
-0.0100182
-0.0366106
-0.0127306
-0.0395523
-0.015664
-0.0422108
-0.0447537
-0.0188025
-0.000258664
-0.00408683
-0.000979377
-0.0110016
-0.00214081
-0.0171988
-0.00371072
-0.022583
-0.00564799
-0.0271353
-0.00790737
-0.0309204
-0.0104453
-0.0340727
-0.0132251
-0.0367725
-0.016221
-0.0392149
-0.0415574
-0.0194173
-0.000276143
-0.00381068
-0.0010391
-0.0102386
-0.00225963
-0.0159783
-0.00389794
-0.0209447
-0.00590674
-0.0251266
-0.00823642
-0.0285907
-0.010841
-0.0314682
-0.013683
-0.0339305
-0.016737
-0.0361608
-0.0383061
-0.0199883
-0.000292441
-0.00351824
-0.00109462
-0.00943642
-0.00236978
-0.0147031
-0.00407109
-0.0192434
-0.00614552
-0.0230521
-0.00853956
-0.0261967
-0.0112051
-0.0288026
-0.0141043
-0.0310313
-0.0172123
-0.0330528
-0.0350028
-0.0205156
-0.000307487
-0.00321075
-0.00114574
-0.00859817
-0.00247095
-0.0133779
-0.00422977
-0.0174846
-0.00636394
-0.020918
-0.00881646
-0.0237441
-0.0115375
-0.0260816
-0.014489
-0.0280798
-0.0176467
-0.0298951
-0.0316508
-0.0209987
-0.000321216
-0.00288954
-0.00119227
-0.00772712
-0.00256284
-0.0120073
-0.00437362
-0.0156738
-0.00656164
-0.0187299
-0.00906682
-0.021239
-0.0118379
-0.0233105
-0.0148367
-0.0250811
-0.0180399
-0.0266918
-0.0282538
-0.0214369
-0.000333569
-0.00255597
-0.00123404
-0.00682665
-0.00264519
-0.0105962
-0.00450232
-0.0138167
-0.00673829
-0.016494
-0.00929032
-0.0186869
-0.012106
-0.0204949
-0.0151471
-0.02204
-0.0183913
-0.0234476
-0.0248157
-0.0218294
-0.000344495
-0.00221147
-0.00127092
-0.00590023
-0.00271776
-0.00914933
-0.00461559
-0.0119188
-0.00689357
-0.014216
-0.00948666
-0.0160938
-0.0123414
-0.0176401
-0.0154198
-0.0189616
-0.0187004
-0.020167
-0.021341
-0.0221751
-0.000353948
-0.00185753
-0.00130277
-0.00495141
-0.00278036
-0.00767174
-0.00471316
-0.00998604
-0.00702723
-0.0119019
-0.00965555
-0.0134655
-0.0125439
-0.0147517
-0.0156545
-0.015851
-0.0189667
-0.0168548
-0.0178343
-0.0224734
-0.000361887
-0.00149564
-0.00132948
-0.00398381
-0.0028328
-0.00616841
-0.00479483
-0.00802401
-0.00713901
-0.00955774
-0.00979674
-0.0108078
-0.0127132
-0.0118352
-0.0158508
-0.0127134
-0.0191895
-0.0135161
-0.0143005
-0.0227233
-0.00036828
-0.00112736
-0.00135096
-0.00300113
-0.00287494
-0.00464444
-0.0048604
-0.00603856
-0.00722869
-0.00718944
-0.00990999
-0.00812647
-0.012849
-0.00889619
-0.0160083
-0.00955414
-0.0193684
-0.010156
-0.0107448
-0.0229241
-0.000373099
-0.000754261
-0.00136714
-0.00200708
-0.00290665
-0.00310494
-0.00490971
-0.0040355
-0.00729611
-0.00480303
-0.0099951
-0.00542749
-0.0129511
-0.00594022
-0.0161267
-0.00637853
-0.019503
-0.00677972
-0.00717247
-0.0230753
-0.000376323
-0.000377938
-0.00137796
-0.00100544
-0.00292784
-0.00155507
-0.00494265
-0.00202069
-0.00734114
-0.00240454
-0.0100519
-0.0027167
-0.0130192
-0.00297294
-0.0162057
-0.003192
-0.0195929
-0.00339257
-0.00358903
-0.0231763
-0.000377938
3.81294e-11
-0.00138338
1.0065e-10
-0.00293845
1.57779e-10
-0.00495914
2.10271e-10
-0.00736367
2.52295e-10
-0.0100804
2.85024e-10
-0.0130533
3.09427e-10
-0.0162453
3.27427e-10
-0.0196379
3.40717e-10
3.50532e-10
-0.0232269
-0.000377938
0.000377938
-0.00138338
0.00100544
-0.00293845
0.00155507
-0.00495914
0.00202069
-0.00736367
0.00240454
-0.0100804
0.0027167
-0.0130533
0.00297294
-0.0162453
0.003192
-0.0196379
0.00339258
0.00358903
-0.0232269
-0.000376323
0.000754261
-0.00137796
0.00200708
-0.00292784
0.00310494
-0.00494265
0.0040355
-0.00734114
0.00480303
-0.0100519
0.00542749
-0.0130192
0.00594022
-0.0162057
0.00637853
-0.0195929
0.00677972
0.00717247
-0.0231763
-0.000373099
0.00112736
-0.00136714
0.00300113
-0.00290665
0.00464444
-0.00490971
0.00603856
-0.00729611
0.00718944
-0.0099951
0.00812647
-0.0129511
0.00889619
-0.0161267
0.00955414
-0.019503
0.010156
0.0107448
-0.0230753
-0.00036828
0.00149564
-0.00135096
0.00398381
-0.00287494
0.00616842
-0.0048604
0.00802402
-0.00722869
0.00955774
-0.00990999
0.0108078
-0.012849
0.0118352
-0.0160083
0.0127134
-0.0193684
0.0135161
0.0143005
-0.0229241
-0.000361887
0.00185753
-0.00132948
0.00495141
-0.0028328
0.00767174
-0.00479483
0.00998604
-0.00713901
0.0119019
-0.00979674
0.0134655
-0.0127132
0.0147517
-0.0158508
0.015851
-0.0191895
0.0168548
0.0178343
-0.0227233
-0.000353948
0.00221147
-0.00130277
0.00590023
-0.00278036
0.00914933
-0.00471316
0.0119188
-0.00702723
0.014216
-0.00965555
0.0160938
-0.0125439
0.0176401
-0.0156545
0.0189616
-0.0189667
0.020167
0.021341
-0.0224734
-0.000344495
0.00255597
-0.00127092
0.00682665
-0.00271776
0.0105962
-0.00461559
0.0138167
-0.00689357
0.016494
-0.00948666
0.0186869
-0.0123414
0.0204949
-0.0154198
0.02204
-0.0187004
0.0234476
0.0248157
-0.0221751
-0.000333569
0.00288954
-0.00123404
0.00772712
-0.00264519
0.0120073
-0.00450232
0.0156738
-0.00673829
0.0187299
-0.00929032
0.021239
-0.012106
0.0233105
-0.0151471
0.0250811
-0.0183913
0.0266918
0.0282538
-0.0218294
-0.000321216
0.00321075
-0.00119227
0.00859817
-0.00256284
0.0133779
-0.00437362
0.0174846
-0.00656164
0.020918
-0.00906682
0.0237441
-0.0118379
0.0260816
-0.0148367
0.0280798
-0.0180399
0.0298951
0.0316508
-0.0214369
-0.000307487
0.00351824
-0.00114574
0.00943642
-0.00247095
0.0147031
-0.00422977
0.0192434
-0.00636394
0.0230521
-0.00881646
0.0261967
-0.0115375
0.0288026
-0.014489
0.0310313
-0.0176467
0.0330528
0.0350028
-0.0209987
-0.000292441
0.00381068
-0.00109462
0.0102386
-0.00236978
0.0159783
-0.00407109
0.0209447
-0.00614552
0.0251266
-0.00853956
0.0285907
-0.0112051
0.0314682
-0.0141043
0.0339305
-0.0172123
0.0361608
0.0383061
-0.0205156
-0.000276143
0.00408683
-0.0010391
0.0110016
-0.00225963
0.0171988
-0.00389794
0.022583
-0.00590674
0.0271354
-0.00823642
0.0309204
-0.010841
0.0340727
-0.013683
0.0367725
-0.016737
0.0392149
0.0415574
-0.0199883
-0.000258664
0.00434549
-0.000979377
0.0117223
-0.00214081
0.0183602
-0.00371072
0.0241529
-0.00564799
0.0290726
-0.00790737
0.0331797
-0.0104453
0.0366106
-0.0132251
0.0395523
-0.016221
0.0422108
0.0447537
-0.0194173
-0.000240082
0.00458557
-0.000915674
0.0123979
-0.00201371
0.0194583
-0.00350988
0.0256491
-0.00536972
0.0309325
-0.00755276
0.0353628
-0.0100182
0.0390761
-0.0127306
0.0422647
-0.015664
0.0451442
0.0478921
-0.0188025
-0.000220486
0.00480606
-0.000848249
0.0130256
-0.00187873
0.0204887
-0.00329593
0.0270663
-0.00507245
0.032709
-0.00717301
0.0374633
-0.00955998
0.0414631
-0.0121994
0.044904
-0.0150657
0.0480105
0.05097
-0.0181435
-0.000199972
0.00500603
-0.000777383
0.013603
-0.00173636
0.0214477
-0.00306948
0.0283994
-0.0047568
0.0343963
-0.0067686
0.0394751
-0.00907079
0.0437653
-0.0116312
0.0474644
-0.014425
0.0508044
0.0539841
-0.0174392
-0.000178645
0.00518467
-0.000703393
0.0141278
-0.00158713
0.0223315
-0.00283124
0.0296435
-0.00442355
0.0359886
-0.00634025
0.0413918
-0.00855107
0.0459761
-0.0110258
0.0499392
-0.0137408
0.0535193
0.0569305
-0.0166871
-0.000156621
0.0053413
-0.000626628
0.0145978
-0.00143165
0.0231365
-0.00258202
0.0307939
-0.00407364
0.0374802
-0.00588893
0.0432071
-0.00800167
0.0480888
-0.0103837
0.0523213
-0.0130112
0.0561468
0.0598035
-0.0158842
-0.000134024
0.00547532
-0.000547469
0.0150112
-0.0012706
0.0238596
-0.00232278
0.0318461
-0.00370827
0.0388657
-0.0054161
0.044915
-0.00742442
0.0500972
-0.00970697
0.0546038
-0.0122352
0.058675
0.0625988
-0.0150306
-0.000110986
0.00558631
-0.000466324
0.0153666
-0.00110471
0.024498
-0.00205459
0.032796
-0.00332884
0.04014
-0.00492376
0.0465099
-0.00682287
0.0519963
-0.00900389
0.0567848
-0.0114273
0.0610984
0.0653026
-0.0141311
-8.76423e-05
0.00567395
-0.00038362
0.0156626
-0.000934771
0.0250491
-0.00177855
0.0336398
-0.00293679
0.0412982
-0.00441387
0.047987
-0.00620044
0.0537828
-0.00828629
0.0588707
-0.0106983
0.0635105
0.0681731
-0.0135689
-6.41347e-05
0.00573808
-0.000299799
0.0158982
-0.00076157
0.0255109
-0.00149575
0.0343739
-0.00253326
0.0423357
-0.00388702
0.0493407
-0.00555527
0.0554511
-0.00753381
0.0608492
-0.00984043
0.0658171
0.0708113
-0.0124786
-4.0613e-05
0.0057787
-0.000215313
0.0160729
-0.000585927
0.0258815
-0.00120728
0.0349953
-0.00211932
0.0432477
-0.00334346
0.0505649
-0.00488462
0.0569922
-0.00674002
0.0627046
-0.00891239
0.0679895
0.0732566
-0.0113577
-1.72988e-05
0.00579599
-0.000130636
0.0161863
-0.000408698
0.0261596
-0.000914324
0.0355009
-0.00169623
0.0440296
-0.00278409
0.0516527
-0.0041888
0.058397
-0.00590746
0.0644233
-0.00792857
0.0700106
0.07552
-0.010192
5.84726e-06
0.00579015
-4.62255e-05
0.0162383
-0.000230803
0.0263442
-0.000618197
0.0358883
-0.00126555
0.044677
-0.00221057
0.0525978
-0.0034698
0.0596562
-0.0050405
0.065994
-0.00690159
0.0718717
0.0776057
-0.00898734
2.88547e-05
0.00576129
3.74045e-05
0.0162298
-5.32035e-05
0.0264348
-0.000320372
0.0361555
-0.000829151
0.0451858
-0.00162512
0.0533937
-0.00273049
0.0607615
-0.00414366
0.0674071
-0.00583854
0.0735666
0.0795173
-0.00775009
5.09225e-05
0.00571037
0.000119671
0.016161
0.000122982
0.0264315
-2.22682e-05
0.0363007
-0.000389176
0.0455527
-0.00103043
0.054035
-0.00197435
0.0617055
-0.00322177
0.0686546
-0.00474526
0.0750901
0.0812553
-0.00648328
7.23515e-05
0.00563802
0.00020006
0.0160333
0.000296651
0.0263349
0.000273761
0.0363236
5.20034e-05
0.0457745
-0.000429576
0.0545166
-0.00120527
0.0624812
-0.00227978
0.0697291
-0.00362716
0.0764374
0.0828184
-0.00519026
9.29276e-05
0.00554509
0.000278022
0.0158482
0.000466683
0.0261462
0.000566402
0.0362239
0.000491471
0.0458494
0.00017402
0.054834
-0.000427461
0.0630826
-0.00132264
0.0706243
-0.00248929
0.0776041
0.0842039
-0.00387476
0.00011249
0.0054326
0.000353001
0.0156077
0.000631885
0.0258673
0.000853507
0.0360023
0.000926738
0.0457762
0.000776661
0.0549841
0.000354648
0.0635046
-0.00035528
0.0713342
-0.0013365
0.0785853
0.085408
-0.00254065
0.000130892
0.00530171
0.000424449
0.0153142
0.000791063
0.0255007
0.00113306
0.0356603
0.00135475
0.0455545
0.0013746
0.0549642
0.00113643
0.0637428
0.000617411
0.0718532
-0.000168397
0.0793711
0.0864325
-0.0011929
0.000147998
0.00515371
0.000491842
0.0149703
0.000943046
0.0250495
0.00140303
0.0352003
0.00177251
0.045185
0.00196383
0.0547729
0.00191312
0.0637935
0.00158913
0.0721772
0.000993606
0.0799666
0.0872786
0.000147574
0.00016369
0.00499002
0.000554689
0.0145793
0.0010867
0.0245175
0.00166142
0.0346256
0.00217699
0.0446694
0.00254032
0.0544096
0.00267989
0.063654
0.00255586
0.0723012
0.00216386
0.0803586
0.0879104
0.00153199
0.000177861
0.00481216
0.000612543
0.0141446
0.00122096
0.0239091
0.00190626
0.0339403
0.00256518
0.0440105
0.00309998
0.0538748
0.00343179
0.0633222
0.00351191
0.0722211
0.00332722
0.0805433
0.0883411
0.00289655
0.000190426
0.00462173
0.000665008
0.0136701
0.00134485
0.0232292
0.00213571
0.0331494
0.00293413
0.0432121
0.00363869
0.0531702
0.00416359
0.0627973
0.00445107
0.0719336
0.00447825
0.0805161
0.0885637
0.00425561
0.000201316
0.00442042
0.00071175
0.0131596
0.00145749
0.0224835
0.00234804
0.0322589
0.003281
0.0422791
0.00415238
0.0522989
0.00487011
0.0620795
0.00536738
0.0714364
0.00561119
0.0802723
0.088572
0.0056029
0.000210487
0.00420993
0.000752502
0.0126176
0.00155811
0.0216779
0.00254167
0.0312753
0.00360311
0.0412177
0.00463711
0.0512649
0.00554619
0.0611704
0.00625477
0.0707278
0.00671949
0.0798076
0.0883598
0.00693167
0.000217914
0.00399202
0.000787071
0.0120485
0.00164611
0.0208189
0.00271524
0.0302062
0.00389801
0.0400349
0.00508909
0.0500738
0.00618669
0.0600728
0.00710701
0.0698074
0.00779616
0.0791185
0.0879213
0.0082347
0.000223595
0.00376842
0.00081534
0.0114567
0.00172102
0.0199132
0.0028676
0.0290596
0.00416348
0.038739
0.00550475
0.0487325
0.00678659
0.058791
0.00791776
0.0686763
0.00883388
0.0782023
0.087251
0.00950413
0.000227549
0.00354087
0.000837271
0.010847
0.00178253
0.0189679
0.00299783
0.0278443
0.00439762
0.0373392
0.00588084
0.0472493
0.00734107
0.0573308
0.00868067
0.0673367
0.00982511
0.0770579
0.0863446
0.0107316
0.000229819
0.00331105
0.000852908
0.0102239
0.00183051
0.0179903
0.00310532
0.0265695
0.00459889
0.0358456
0.00621447
0.0456337
0.0078456
0.0556997
0.00938953
0.0657928
0.0107621
0.0756853
0.0851985
0.0119082
0.000230464
0.00308059
0.000862371
0.00959199
0.00186501
0.0169877
0.00318972
0.0252448
0.00476611
0.0342692
0.00650318
0.0438966
0.00829606
0.0539068
0.0100384
0.0640504
0.0116372
0.0740864
0.0838109
0.0130249
0.000229567
0.00285102
0.000865857
0.0089557
0.00188621
0.0159673
0.00325096
0.02388
0.00489857
0.0326216
0.00674505
0.0420502
0.00868885
0.051963
0.0106216
0.0621177
0.0124429
0.0722651
0.0821814
0.0140724
0.000227223
0.0026238
0.000863631
0.00831929
0.0018945
0.0149364
0.0032893
0.0224852
0.00499596
0.030915
0.00693871
0.0401074
0.00902097
0.0498807
0.0111342
0.0600044
0.0131719
0.0702275
0.0803118
0.0150415
0.000223547
0.00240025
0.000856024
0.00768681
0.00189041
0.0139021
0.00330528
0.0210704
0.00505847
0.0291618
0.00708344
0.0380824
0.00929019
0.047674
0.011572
0.0577226
0.0138176
0.0679819
0.0782062
0.0159233
0.000218659
0.00218159
0.000843417
0.00706206
0.00187459
0.0128709
0.00329971
0.0196452
0.00508672
0.0273748
0.00717917
0.03599
0.0094951
0.045358
0.0119315
0.0552862
0.0143743
0.065539
0.0758709
0.0167097
0.000212692
0.0019689
0.000826233
0.00644852
0.00184783
0.0118493
0.00327364
0.0182194
0.00508177
0.0255667
0.00722648
0.0338453
0.00963517
0.0429493
0.0122104
0.052711
0.0148374
0.062912
0.0733148
0.0173934
0.000205781
0.00176312
0.000804924
0.00584937
0.00181099
0.0108432
0.00322833
0.0168021
0.00504508
0.0237499
0.0072266
0.0316638
0.00971078
0.0404652
0.0124075
0.0500143
0.0152036
0.0601159
0.0705495
0.0179689
0.000198061
0.00156506
0.000779951
0.00526748
0.00176499
0.00985818
0.0031652
0.0154019
0.00497842
0.0219367
0.00718132
0.0294609
0.00972323
0.0379233
0.0125231
0.0472144
0.0154711
0.0571679
0.0675886
0.0184321
0.00018966
0.0013754
0.000751772
0.00470537
0.00171079
0.00889917
0.00308574
0.0140269
0.00488381
0.0201386
0.00709293
0.0272517
0.0096746
0.0353416
0.0125584
0.0443306
0.01564
0.0540863
0.0644472
0.0187813
0.000180699
0.0011947
0.000720823
0.00416525
0.00164929
0.0079707
0.0029915
0.0126847
0.00476337
0.0183667
0.00696402
0.0250511
0.00956766