/*--------------------------------*- C++ -*----------------------------------*\
  =========                 |
  \\      /  F ield         | OpenFOAM: The Open Source CFD Toolbox
   \\    /   O peration     | Website:  https://openfoam.org
    \\  /    A nd           | Version:  7
     \\/     M anipulation  |
\*---------------------------------------------------------------------------*/
FoamFile
{
    version     2.0;
    format      ascii;
    class       volVectorField;
    location    "20";
    object      U;
}
// * * * * * * * * * * * * * * * * * * * * * * * * * * * * * * * * * * * * * //

dimensions      [0 1 -1 0 0 0 0];

internalField   nonuniform List<vector> 
8500
(
(-0.000760328 0.00060131 3.62381e-22)
(-0.00384268 0.00131002 -1.1602e-21)
(-0.00929137 0.00165799 -1.42963e-21)
(-0.0153867 0.00174095 1.49242e-21)
(-0.0213861 0.00163098 -1.43481e-21)
(-0.0267533 0.00139417 -7.9316e-22)
(-0.0311291 0.00109188 1.39612e-21)
(-0.0343785 0.000781577 1.77799e-21)
(-0.0365521 0.000510847 -2.95431e-22)
(-0.0377522 0.000322929 8.83615e-22)
(-0.000843821 0.00179063 -4.01209e-22)
(-0.00398084 0.00389809 1.37825e-21)
(-0.00936422 0.00493008 -3.42621e-21)
(-0.0153049 0.00517161 3.26246e-21)
(-0.0210724 0.00483786 1.53408e-22)
(-0.0261407 0.00412621 2.59025e-21)
(-0.0301584 0.0032202 -4.6411e-21)
(-0.0330002 0.00229209 -6.95806e-21)
(-0.0347251 0.00148543 -1.38261e-21)
(-0.0353893 0.000932797 3.18294e-21)
(-0.00100735 0.00294038 3.73904e-22)
(-0.00424882 0.00639101 3.04341e-21)
(-0.00949849 0.00807148 7.55807e-21)
(-0.0151277 0.00844968 -7.16851e-21)
(-0.0204306 0.00788071 -1.68603e-21)
(-0.0249007 0.00669067 -1.58676e-21)
(-0.0282026 0.00518355 8.41821e-21)
(-0.0302297 0.00364594 5.37018e-21)
(-0.0310589 0.00231925 1.3158e-21)
(-0.0306505 0.00143387 -9.8668e-21)
(-0.00124409 0.00402523 1.32661e-21)
(-0.00463008 0.00872768 -1.77995e-21)
(-0.00967143 0.0109982 -1.41317e-20)
(-0.0148286 0.0114773 1.30791e-21)
(-0.0194318 0.0106545 4.23606e-21)
(-0.0230038 0.00898051 -3.41486e-21)
(-0.0252326 0.00687681 -1.57341e-22)
(-0.0260393 0.00474326 -1.46467e-21)
(-0.0255305 0.00292177 3.38991e-21)
(-0.0235079 0.00175485 9.82058e-21)
(-0.00154398 0.00502141 9.28068e-22)
(-0.00510013 0.0108505 -5.80619e-21)
(-0.00984913 0.0136312 1.4649e-20)
(-0.0143674 0.0141621 -7.01197e-21)
(-0.0180325 0.0130607 -2.75627e-23)
(-0.0204053 0.0108957 1.04416e-20)
(-0.0212043 0.00820214 -4.93046e-21)
(-0.0203867 0.00549122 5.28459e-22)
(-0.0181052 0.00321167 -2.15554e-21)
(-0.0139214 0.0018518 7.7528e-22)
(-0.00189397 0.00590719 1.1173e-20)
(-0.00562685 0.0127064 1.49721e-20)
(-0.0099868 0.0158974 -4.00847e-21)
(-0.0136909 0.0164199 8.03472e-21)
(-0.0161746 0.0150097 2.65973e-21)
(-0.0170452 0.0123462 -3.90202e-21)
(-0.0160583 0.00907211 -1.57969e-21)
(-0.0132132 0.00580756 -6.90214e-21)
(-0.00872551 0.00311967 1.56495e-21)
(-0.00186738 0.00175369 -9.08741e-21)
(-0.00227824 0.00666325 -1.07828e-20)
(-0.00617092 0.0142481 -7.81007e-21)
(-0.0100291 0.017732 6.77069e-21)
(-0.012733 0.0181758 -1.22612e-20)
(-0.0137852 0.0164233 1.46898e-21)
(-0.0128478 0.0132545 1.54161e-20)
(-0.00971955 0.00941313 -2.90175e-21)
(-0.00444442 0.00562688 1.90321e-20)
(0.00271878 0.00257311 -4.66052e-22)
(0.0126724 0.00132965 -7.99572e-21)
(-0.00267849 0.00727298 9.22485e-21)
(-0.00668628 0.0154346 -1.83328e-20)
(-0.00991053 0.0190793 -7.65409e-21)
(-0.0114145 0.0193668 9.30672e-21)
(-0.0107769 0.0172367 3.66711e-22)
(-0.00772132 0.0135586 -2.90177e-20)
(-0.00209438 0.0091675 -1.78044e-21)
(0.00600139 0.00489053 -1.51778e-20)
(0.0162755 0.00151889 -1.98959e-20)
(0.0298677 0.000481288 1.17578e-20)
(-0.00307416 0.00772262 -5.16294e-21)
(-0.00712061 0.0162319 2.73011e-21)
(-0.00955593 0.0198938 7.11676e-21)
(-0.00964399 0.0199427 -6.74733e-21)
(-0.00704778 0.0174012 -2.42723e-20)
(-0.00155903 0.013215 8.5715e-21)
(0.00692303 0.00829749 1.23738e-21)
(0.0182334 0.00356468 2.28841e-20)
(0.0320352 -5.49819e-05 3.05091e-20)
(0.0497987 -0.000734643 -1.38826e-20)
(-0.0034427 0.00800132 8.33851e-21)
(-0.0074158 0.0166134 8.34361e-21)
(-0.008881 0.020141 -1.21331e-21)
(-0.0073181 0.0198681 3.34247e-20)
(-0.00248159 0.0168857 1.47755e-20)
(0.00576196 0.0122012 1.1436e-20)
(0.0174562 0.00679178 1.65706e-20)
(0.0323716 0.00164948 -7.39863e-21)
(0.0501132 -0.00215963 -1.01953e-20)
(0.0725606 -0.00230227 -1.69822e-20)
(-0.00375974 0.00810105 -6.1922e-22)
(-0.00750848 0.0165601 -1.32725e-20)
(-0.007793 0.0197981 -1.00016e-20)
(-0.00432221 0.0191224 -1.66119e-20)
(0.00305133 0.0156779 -1.35361e-20)
(0.0143799 0.0105179 1.42719e-20)
(0.0296452 0.00466609 -1.3972e-20)
(0.0485507 -0.000828236 -9.82442e-21)
(0.0706355 -0.00477221 1.33697e-21)
(0.0982672 -0.00419707 4.39165e-21)
(-0.0039992 0.00801646 -2.35433e-20)
(-0.00733059 0.0160607 1.22428e-20)
(-0.00619167 0.0188544 9.26522e-21)
(-0.00053171 0.017701 6.57697e-21)
(0.00969295 0.0137854 -1.22932e-20)
(0.0244472 0.00819035 -1.05789e-20)
(0.0436448 0.00196617 1.57909e-20)
(0.0669191 -0.00380619 -1.31999e-20)
(0.0937375 -0.00782966 -9.38532e-22)
(0.12704 -0.00636404 -1.41896e-20)
(-0.00413337 0.00774501 2.0091e-20)
(-0.0068099 0.0151117 8.92275e-21)
(-0.0039705 0.0173108 4.69439e-22)
(0.00418638 0.0156153 -1.19892e-20)
(0.0175956 0.0112357 7.35361e-22)
(0.0361284 0.00526846 1.42321e-20)
(0.0596234 -0.00123029 -4.10914e-21)
(0.0876381 -0.00718116 -5.11209e-21)
(0.119563 -0.0112228 -1.15475e-20)
(0.158998 -0.00871142 2.13305e-20)
(-0.0041334 0.00728683 1.41279e-20)
(-0.00587094 0.0137168 -2.43783e-20)
(-0.00101819 0.0151805 -1.95712e-20)
(0.00997109 0.0128922 8.87414e-21)
(0.0269192 0.00807532 1.84957e-20)
(0.0495974 0.0018259 1.62101e-20)
(0.0777599 -0.00481416 -1.74705e-20)
(0.110879 -0.0108061 3.43189e-20)
(0.148262 -0.0147866 -1.06492e-20)
(0.194249 -0.0110998 -2.54542e-20)
(-0.00396921 0.00664454 -2.08002e-20)
(-0.00443611 0.0118881 1.36775e-20)
(0.00277915 0.0124887 -7.02443e-21)
(0.0169643 0.00957354 8.33581e-22)
(0.0378268 0.00436783 8.05748e-21)
(0.0650329 -0.00204325 -2.54765e-20)
(0.0982403 -0.00864868 2.29138e-20)
(0.136823 -0.0144912 -2.29566e-20)
(0.179993 -0.0182908 3.69609e-20)
(0.232885 -0.0133311 1.33003e-20)
(-0.00361 0.00582367 4.71102e-21)
(-0.00242704 0.00964555 2.71984e-20)
(0.00753528 0.00927206 -7.35437e-21)
(0.0253066 0.00571484 7.46348e-21)
(0.0504795 0.00019149 9.10572e-21)
(0.0826116 -0.00622988 -2.91336e-21)
(0.121252 -0.0125777 2.01371e-20)
(0.165656 -0.0180118 1.21339e-21)
(0.214929 -0.0214388 -2.34011e-20)
(0.274983 -0.0151414 3.21975e-20)
(-0.00302474 0.00483289 -1.22854e-20)
(0.000233643 0.0070175 -2.61012e-20)
(0.0133605 0.00557927 2.34207e-20)
(0.035132 0.00138471 1.23186e-20)
(0.0650287 -0.00436417 -5.77466e-20)
(0.102499 -0.0106171 4.84936e-20)
(0.146971 -0.0164389 -4.4275e-20)
(0.197563 -0.0211245 9.04902e-22)
(0.253256 -0.0238587 -1.00849e-20)
(0.3206 -0.0161369 -2.97417e-20)
(-0.00218297 0.0036844 1.1066e-20)
(0.00362014 0.00404141 -1.83382e-21)
(0.020358 0.00147102 -5.74821e-21)
(0.046562 -0.00333606 -5.87205e-22)
(0.081607 -0.00920145 -4.02679e-21)
(0.124837 -0.0150894 -1.52148e-20)
(0.175552 -0.0200845 6.36188e-21)
(0.232715 -0.023592 -1.07617e-20)
(0.29514 -0.0250387 3.47512e-21)
(0.369623 -0.0155213 1.73538e-21)
(-0.0010556 0.00239437 -2.2718e-20)
(0.00780115 0.000764429 -2.00665e-21)
(0.0286192 -0.00297925 2.88985e-21)
(0.0596987 -0.00835428 1.3193e-21)
(0.100318 -0.0142168 1.91958e-20)
(0.149729 -0.0195441 -5.79043e-20)
(0.20712 -0.023417 3.94017e-20)
(0.271319 -0.0252461 -3.02719e-20)
(0.34087 -0.0243252 2.51714e-20)
(0.421599 -0.0119558 2.66879e-20)
(0.000384014 0.000983333 -2.90991e-21)
(0.0128374 -0.0027559 1.3619e-20)
(0.0382203 -0.00768426 -1.75736e-20)
(0.0746173 -0.0135627 -5.657e-21)
(0.12122 -0.0192995 1.13409e-20)
(0.177211 -0.023898 5.54889e-20)
(0.241723 -0.026432 -1.11677e-20)
(0.313648 -0.026152 5.47958e-21)
(0.391526 -0.0215828 -3.00551e-20)
(0.477828 -0.00565217 1.4669e-20)
(0.00215929 -0.000523587 -8.66906e-21)
(0.0187799 -0.00645105 -7.21873e-21)
(0.0492187 -0.0125413 1.99701e-21)
(0.0913611 -0.0188358 7.2278e-21)
(0.144317 -0.0243227 -2.22305e-20)
(0.207212 -0.0280703 -9.16884e-21)
(0.27918 -0.0292049 -2.95859e-20)
(0.359511 -0.0267948 3.03401e-20)
(0.448264 -0.0185741 3.3184e-20)
(0.548291 -0.00254251 -1.2243e-20)
(0.00428972 -0.00209676 -4.33207e-21)
(0.0256683 -0.0102414 1.81081e-20)
(0.0616518 -0.0174308 -2.05172e-20)
(0.10994 -0.0240248 -2.56975e-21)
(0.169552 -0.0291255 -1.04586e-20)
(0.239538 -0.0319241 2.29383e-20)
(0.318994 -0.0317236 2.98718e-20)
(0.407389 -0.0278028 -2.93651e-20)
(0.50546 -0.0187533 3.28642e-20)
(0.612917 -0.00952035 5.39165e-21)
(0.00679064 -0.00370248 -1.24611e-20)
(0.0335307 -0.0140371 -3.66717e-20)
(0.075538 -0.0222169 3.70264e-20)
(0.130335 -0.0289555 5.44887e-21)
(0.196832 -0.0335023 7.97389e-21)
(0.273956 -0.0352206 5.358e-21)
(0.360654 -0.033674 2.3227e-20)
(0.456231 -0.0285308 1.72935e-20)
(0.56112 -0.0192917 -6.33828e-20)
(0.671695 -0.014407 -3.24762e-20)
(0.00967322 -0.00530378 -4.22106e-20)
(0.042384 -0.0177395 9.02882e-21)
(0.0908776 -0.0267502 -2.124e-20)
(0.152507 -0.033434 4.09203e-21)
(0.226045 -0.0372146 6.84807e-21)
(0.310239 -0.0376597 -5.05684e-20)
(0.403783 -0.0346173 2.31793e-20)
(0.505575 -0.0281362 -1.56651e-20)
(0.615278 -0.0182911 1.69533e-20)
(0.727117 -0.0149072 -6.75535e-21)
(0.0129446 -0.00686136 1.54761e-20)
(0.0522334 -0.0212442 1.79084e-20)
(0.107654 -0.0308723 -1.17731e-21)
(0.176395 -0.0372548 -5.92154e-21)
(0.257064 -0.0400123 6.72677e-23)
(0.348177 -0.0389348 2.18576e-22)
(0.448097 -0.0341531 -3.50433e-20)
(0.555205 -0.0260457 4.87946e-21)
(0.668297 -0.015057 4.66606e-20)
(0.780518 -0.0113885 2.22304e-20)
(0.0166081 -0.0083344 -1.0483e-20)
(0.0630728 -0.0244429 -8.15638e-21)
(0.125832 -0.0344208 3.62816e-20)
(0.201918 -0.0402113 8.84126e-22)
(0.289744 -0.0416502 -1.62191e-20)
(0.387557 -0.0387636 4.41482e-20)
(0.493339 -0.0319575 1.00269e-20)
(0.604924 -0.0218977 7.83217e-22)
(0.720296 -0.00929707 -2.0264e-20)
(0.832176 -0.00419998 -2.83154e-20)
(0.0206628 -0.00968138 2.20417e-20)
(0.0748838 -0.0272263 -6.51854e-21)
(0.14536 -0.0372341 -3.89014e-21)
(0.228971 -0.0421022 -1.57384e-20)
(0.32392 -0.0418996 2.60406e-20)
(0.428149 -0.0369011 -1.31102e-20)
(0.539238 -0.027784 -1.5251e-20)
(0.654488 -0.0154758 -3.54594e-21)
(0.771173 -0.000915139 -1.19637e-20)
(0.881979 0.0062967 1.38522e-20)
(0.0251039 -0.0108605 -8.18162e-21)
(0.0876356 -0.0294858 -5.13006e-20)
(0.166163 -0.0391551 5.50497e-21)
(0.257427 -0.0427383 1.93527e-20)
(0.359396 -0.0405559 1.44149e-20)
(0.469693 -0.033146 -4.89717e-20)
(0.585493 -0.0214603 3.24716e-20)
(0.703598 -0.00667802 -1.51596e-20)
(0.820693 0.0100446 2.39839e-20)
(0.929666 0.0196946 6.84194e-21)
(0.029922 -0.0118303 -8.87613e-21)
(0.101284 -0.0311157 1.83067e-20)
(0.188149 -0.0400346 2.44241e-20)
(0.287128 -0.0419468 -1.80252e-20)
(0.395947 -0.0374438 6.8019e-21)
(0.511902 -0.0273438 -4.32213e-20)
(0.631768 -0.0128822 -8.22575e-21)
(0.751909 0.00450858 7.28233e-21)
(0.868543 0.0234476 -1.83548e-20)
(0.974915 0.0355826 -1.97047e-20)
(0.0351026 -0.0125496 -1.13308e-20)
(0.115769 -0.032014 -3.82971e-21)
(0.2112 -0.0397342 -4.40735e-20)
(0.317891 -0.0395749 -7.0408e-21)
(0.433321 -0.0324198 -6.68872e-22)
(0.554455 -0.0193865 2.67203e-21)
(0.677699 -0.00200648 4.49237e-21)
(0.799046 0.0180281 -2.32434e-20)
(0.914377 0.039104 4.40328e-22)
(1.01739 0.0535624 1.37975e-20)
(0.0406257 -0.0129785 -2.86207e-21)
(0.131019 -0.0320847 1.50568e-20)
(0.235178 -0.0381283 2.15909e-20)
(0.349508 -0.0354923 1.3923e-20)
(0.471234 -0.0253746 -4.23898e-21)
(0.597009 -0.00921147 -3.64769e-21)
(0.722904 0.0111561 3.75565e-20)
(0.844622 0.0337712 5.44118e-21)
(0.95784 0.0567881 1.8473e-20)
(1.0568 0.0732543 -8.22599e-21)
(0.0464655 -0.0130783 2.81393e-20)
(0.146944 -0.0312384 1.9327e-20)
(0.259924 -0.0351065 -2.02732e-20)
(0.381742 -0.0295937 -4.12807e-21)
(0.509381 -0.0162337 2.21175e-21)
(0.6392 0.00319998 -8.58377e-21)
(0.76699 0.0265469 -1.94059e-20)
(0.888252 0.051586 -3.2287e-21)
(0.998598 0.0762517 1.70541e-22)
(1.09288 0.0943003 9.02968e-21)
(0.0525896 -0.0128122 3.2152e-21)
(0.163439 -0.0293946 -1.05296e-20)
(0.285256 -0.0305757 2.57587e-20)
(0.414336 -0.0218006 1.72817e-20)
(0.547436 -0.00495832 4.95868e-22)
(0.680654 0.0178249 1.33058e-20)
(0.809565 0.0440652 2.01234e-21)
(0.929569 0.0712872 -1.5467e-20)
(1.03635 0.0972331 1.37193e-20)
(1.12543 0.116367 1.45589e-22)
(0.0589593 -0.0121463 -2.28627e-20)
(0.180384 -0.0264827 -7.14793e-21)
(0.310974 -0.0244618 -6.75202e-21)
(0.447013 -0.0120621 -1.20359e-20)
(0.585059 0.00845476 2.91547e-21)
(0.720994 0.0346009 7.99826e-23)
(0.850251 0.0635736 1.08234e-20)
(0.968238 0.0926638 -1.82887e-21)
(1.07085 0.119464 -1.41703e-20)
(1.1543 0.139145 -1.35822e-20)
(0.0655292 -0.0110499 1.81811e-21)
(0.197647 -0.022444 1.13684e-20)
(0.33686 -0.0167115 5.61065e-21)
(0.479483 -0.000357228 -1.84588e-20)
(0.621904 0.0239735 -1.01193e-21)
(0.759847 0.0534289 -8.84075e-21)
(0.888689 0.0849024 2.425e-22)
(1.00396 0.115485 4.6036e-21)
(1.10188 0.142676 -5.37166e-21)
(1.17942 0.162355 1.53737e-20)
(0.0722477 -0.00949662 4.18988e-21)
(0.215079 -0.0172333 -1.09168e-20)
(0.362682 -0.00729438 -2.67438e-20)
(0.511442 0.0133053 2.57606e-20)
(0.657623 0.0415314 -2.04678e-21)
(0.796855 0.074176 6.37183e-21)
(0.924553 0.107856 -9.65931e-22)
(1.03647 0.139508 6.86071e-21)
(1.12929 0.166605 -5.2959e-22)
(1.20076 0.185742 -1.18865e-20)
(0.0790568 -0.00746532 -8.34267e-21)
(0.232522 -0.0108208 1.39929e-20)
(0.388196 0.00379614 1.21013e-20)
(0.542585 0.0288858 -1.82011e-20)
(0.691874 0.0610287 -3.17565e-21)
(0.831678 0.0966786 1.29487e-21)
(0.957547 0.132215 1.39109e-20)
(1.06558 0.16448 7.63166e-22)
(1.153 0.190994 2.97752e-21)
(1.21834 0.209078 -6.63493e-21)
(0.0858935 -0.00494069 6.30358e-21)
(0.249806 -0.00319299 -6.04452e-21)
(0.413151 0.0165412 -5.23605e-21)
(0.572602 0.0463141 9.57698e-21)
(0.724326 0.0823338 3.54891e-21)
(0.864003 0.120746 2.86969e-21)
(0.987419 0.157745 -1.41526e-20)
(1.09111 0.190146 -5.13893e-21)
(1.17294 0.215598 -4.77977e-21)
(1.23224 0.232157 2.18825e-21)
(0.0926899 -0.00191423 -3.01197e-21)
(0.266757 0.00564521 -6.39886e-23)
(0.437293 0.0308961 9.8908e-21)
(0.601191 0.0654897 -3.86592e-21)
(0.754665 0.105286 -1.79377e-21)
(0.893548 0.146165 -1.27051e-21)
(1.01396 0.184199 3.43209e-21)
(1.11297 0.216251 6.25473e-21)
(1.18913 0.240184 -1.98611e-22)
(1.24255 0.2548 2.41082e-21)
(0.0993745 0.00161511 2.0989e-21)
(0.283193 0.01567 -6.3685e-22)
(0.460368 0.0467893 -1.74525e-21)
(0.62806 0.0862827 -1.67446e-21)
(0.782602 0.129697 1.63481e-21)
(0.920065 0.172701 1.37723e-21)
(1.03699 0.211319 -1.34578e-21)
(1.13108 0.242545 5.23129e-22)
(1.2016 0.264535 7.5735e-22)
(1.24941 0.276846 -1.02195e-21)
(0.105873 0.00564038 1.07621e-21)
(0.298934 0.0268379 3.43144e-22)
(0.482126 0.0641232 -2.07634e-21)
(0.652931 0.108535 -1.78548e-21)
(0.807871 0.155355 2.01229e-21)
(0.943344 0.200105 4.20154e-22)
(1.05641 0.238846 -1.08369e-21)
(1.14542 0.268784 1.0648e-21)
(1.21044 0.288448 6.1535e-22)
(1.25297 0.298152 -7.09434e-22)
(0.112111 0.0101461 -4.39192e-22)
(0.313798 0.0390854 9.00043e-22)
(0.502326 0.0827746 6.25479e-21)
(0.675547 0.132064 -2.99014e-21)
(0.830241 0.182027 -1.64564e-21)
(0.963215 0.228118 -2.00411e-21)
(1.07211 0.266518 4.35345e-21)
(1.15602 0.294733 3.06443e-21)
(1.21573 0.311733 2.53295e-21)
(1.2534 0.318593 1.38421e-21)
(0.118012 0.0151083 8.14977e-21)
(0.327609 0.0523289 -4.79485e-21)
(0.520743 0.102595 -5.96036e-21)
(0.695673 0.156663 8.6516e-21)
(0.849512 0.209464 4.96375e-21)
(0.979548 0.25647 -3.6797e-22)
(1.08407 0.294075 -7.21516e-21)
(1.16291 0.320168 -5.51581e-21)
(1.21762 0.334217 -5.8641e-21)
(1.25088 0.338056 3.46047e-21)
(0.123501 0.0204941 -1.08778e-20)
(0.340201 0.0664657 1.08921e-20)
(0.537167 0.123415 1.32209e-20)
(0.713104 0.182103 -1.43024e-20)
(0.865521 0.237402 -5.50153e-21)
(0.992255 0.284889 3.839e-21)
(1.09228 0.321266 7.57759e-21)
(1.1662 0.344876 1.22704e-21)
(1.21626 0.355739 -1.64642e-22)
(1.24558 0.35644 -4.5723e-21)
(0.128509 0.026262 -1.45396e-21)
(0.351416 0.0813747 -1.49337e-20)
(0.551408 0.145042 -1.71019e-20)
(0.727663 0.20814 2.11058e-20)
(0.878143 0.265567 -2.57162e-21)
(1.00128 0.313102 5.25669e-21)
(1.09678 0.347841 1.12487e-21)
(1.16598 0.368655 -3.34537e-21)
(1.21179 0.376152 1.86902e-21)
(1.23771 0.373654 -1.02453e-22)
(0.132967 0.0323624 2.94636e-21)
(0.361112 0.0969178 8.93328e-21)
(0.563303 0.167267 5.59261e-21)
(0.739208 0.234516 -4.71283e-21)
(0.88729 0.293681 -7.89905e-21)
(1.00662 0.340837 -8.38285e-21)
(1.09763 0.373566 -1.8114e-21)
(1.16239 0.391319 4.86289e-21)
(1.20441 0.395318 -1.07103e-21)
(1.22744 0.389615 2.46856e-21)
(0.136813 0.0387378 -1.04378e-20)
(0.369162 0.112942 -1.08024e-20)
(0.572713 0.189865 -1.74354e-21)
(0.74763 0.260961 -2.17415e-21)
(0.892915 0.321462 -5.64625e-21)
(1.0083 0.367832 3.94595e-21)
(1.09493 0.398213 -7.89672e-22)
(1.15558 0.41269 -4.35647e-21)
(1.19428 0.41311 4.0008e-21)
(1.21497 0.404249 -5.22108e-21)
(0.139993 0.0453238 2.98137e-21)
(0.375458 0.12928 9.06901e-21)
(0.57953 0.2126 8.4079e-21)
(0.752859 0.287202 1.01157e-20)
(0.895006 0.348629 4.07275e-22)
(1.00637 0.393828 1.06837e-20)
(1.0888 0.421571 6.01837e-22)
(1.1457 0.432606 -1.38042e-20)
(1.18157 0.429408 9.88234e-21)
(1.20044 0.417479 3.73487e-21)
(0.142458 0.0520497 6.5031e-21)
(0.379915 0.145756 1.51364e-20)
(0.583675 0.235225 -2.35354e-21)
(0.754858 0.312959 -1.23427e-20)
(0.893591 0.374906 6.34231e-21)
(1.00093 0.41858 -7.31999e-21)
(1.07938 0.44344 -9.99611e-21)
(1.13293 0.450924 -3.93566e-22)
(1.16647 0.444116 -7.55477e-21)
(1.18392 0.429192 2.69846e-21)
(0.14417 0.0588399 2.59609e-21)
(0.382467 0.162184 1.50289e-21)
(0.585104 0.257491 1.97677e-20)
(0.75363 0.337956 4.33129e-21)
(0.888731 0.400027 -3.9425e-21)
(0.992089 0.441856 -2.43913e-21)
(1.06683 0.463637 1.43403e-20)
(1.11745 0.467515 1.19993e-20)
(1.14917 0.457201 5.88583e-21)
(1.16571 0.439264 -5.70281e-22)
(0.1451 0.0656144 4.25146e-22)
(0.383075 0.178373 -1.48966e-20)
(0.583802 0.279144 -2.25454e-20)
(0.74921 0.361921 6.96183e-22)
(0.880523 0.423732 6.03663e-21)
(0.980008 0.463437 -8.26505e-21)
(1.05134 0.48199 -1.96887e-20)
(1.09946 0.482237 -5.90124e-21)
(1.12983 0.468541 -2.94185e-22)
(1.14606 0.447788 1.16841e-21)
(0.145229 0.072291 -4.11383e-21)
(0.381724 0.19413 1.06448e-20)
(0.579789 0.299935 1.28596e-20)
(0.741671 0.384588 -1.30426e-20)
(0.869095 0.445778 2.2813e-21)
(0.964856 0.483119 1.81869e-20)
(1.0331 0.498348 -2.9902e-21)
(1.07914 0.494996 3.22594e-21)
(1.10861 0.478022 -6.03029e-22)
(1.12505 0.454667 -4.12591e-22)
(0.144547 0.0787855 -7.94709e-21)
(0.37842 0.209263 -1.71703e-20)
(0.573115 0.319617 -3.89379e-21)
(0.731119 0.405704 7.12441e-21)
(0.854607 0.465936 7.30943e-21)
(0.946827 0.50072 -1.69145e-20)
(1.01232 0.512577 9.12402e-21)
(1.05669 0.505699 -2.94076e-21)
(1.08568 0.485585 1.13495e-21)
(1.10277 0.45981 6.35332e-22)
(0.143059 0.0850142 6.15419e-21)
(0.373199 0.22358 1.17977e-21)
(0.563864 0.337953 -1.36673e-21)
(0.717694 0.425029 -7.39035e-21)
(0.837242 0.483992 4.26569e-21)
(0.92614 0.516072 2.31626e-21)
(0.989221 0.524559 -2.88541e-21)
(1.03231 0.514269 2.12437e-21)
(1.0612 0.491179 1.0006e-21)
(1.07934 0.463149 -2.94261e-21)
(0.140778 0.0908948 -1.02403e-21)
(0.366115 0.236897 -7.69887e-22)
(0.552147 0.354715 5.43987e-21)
(0.701558 0.442337 3.27954e-21)
(0.817212 0.499755 -5.8332e-21)
(0.903033 0.529029 5.28496e-21)
(0.964046 0.534196 1.46647e-21)
(1.00619 0.520646 2.71582e-21)
(1.03531 0.494758 6.52078e-21)
(1.05489 0.464613 1.17117e-21)
(0.137722 0.0963446 5.35558e-21)
(0.357251 0.249039 5.67664e-21)
(0.538104 0.369691 -1.94234e-21)
(0.682906 0.45742 -5.83991e-22)
(0.794754 0.51305 -1.93879e-21)
(0.87776 0.539463 -1.09149e-21)
(0.937041 0.541407 2.63203e-21)
(0.978556 0.524789 2.16953e-23)
(1.00814 0.496295 -5.78869e-21)
(1.02948 0.464131 -7.28215e-21)
(0.133926 0.101282 -2.1852e-21)
(0.346712 0.259837 -7.84563e-22)
(0.521899 0.382685 -2.81955e-21)
(0.661956 0.470091 8.93181e-22)
(0.77012 0.523723 -2.98656e-21)
(0.850589 0.547265 6.71873e-21)
(0.908471 0.546129 -8.18644e-22)
(0.949626 0.526677 1.14075e-21)
(0.97981 0.495781 -5.50117e-21)
(1.00318 0.461619 8.66176e-21)
(0.12944 0.105635 -2.05469e-21)
(0.334617 0.269136 3.99981e-22)
(0.50372 0.393517 -1.64004e-21)
(0.638947 0.480183 -2.40065e-21)
(0.74358 0.53164 -1.84998e-21)
(0.821807 0.552344 -2.95836e-22)
(0.878617 0.548317 3.28043e-21)
(0.919636 0.526309 -1.51011e-20)
(0.950416 0.493218 3.23559e-20)
(0.976016 0.45695 1.31757e-20)
(0.124313 0.10934 4.61398e-22)
(0.321104 0.276795 -8.84703e-21)
(0.483774 0.402028 6.79151e-21)
(0.614134 0.487552 -1.37569e-21)
(0.715416 0.53669 3.39815e-21)
(0.791705 0.554628 -5.82422e-21)
(0.847775 0.547942 -1.11968e-20)
(0.888856 0.523715 5.89897e-21)
(0.920128 0.488663 -2.67534e-21)
(0.947934 0.450012 -6.444e-21)
(0.118606 0.112332 -2.02826e-21)
(0.306331 0.282692 2.3224e-21)
(0.462286 0.408081 -4.47019e-21)
(0.587785 0.492074 4.60099e-21)
(0.685918 0.538779 8.75936e-21)
(0.760584 0.554056 5.63838e-21)
(0.816254 0.544983 1.93718e-20)
(0.857629 0.518946 -1.40686e-20)
(0.889364 0.482337 -2.8009e-20)
(0.918689 0.44121 1.15055e-20)
(0.112385 0.114559 -4.80459e-21)
(0.290467 0.28672 -4.49393e-21)
(0.439496 0.411559 1.59902e-21)
(0.560179 0.493653 1.40211e-20)
(0.655381 0.537837 -1.62306e-20)
(0.728737 0.550579 -2.22119e-20)
(0.784356 0.539397 -7.17031e-21)
(0.826392 0.511975 -9.50565e-22)
(0.859055 0.474515 3.52567e-20)
(0.887902 0.430971 -9.27556e-21)
(0.105725 0.115973 1.42764e-20)
(0.273694 0.288792 -4.96677e-22)
(0.415653 0.412374 -2.68614e-21)
(0.531601 0.492217 -1.31405e-22)
(0.624095 0.533814 -8.16874e-21)
(0.696435 0.544163 4.00641e-20)
(0.752343 0.531127 -2.76539e-20)
(0.795551 0.502559 3.47047e-20)
(0.830183 0.46471 -2.58272e-20)
(0.861125 0.421242 -3.48604e-20)
(0.0987062 0.116537 -6.71648e-21)
(0.256204 0.28884 3.10822e-21)
(0.391015 0.410461 -1.25803e-21)
(0.502339 0.487722 1.33825e-20)
(0.592347 0.526693 -4.47133e-21)
(0.663937 0.53481 7.09934e-21)
(0.720394 0.520186 1.65728e-20)
(0.76504 0.490724 -9.08283e-21)
(0.801711 0.452648 -2.34405e-20)
(0.834393 0.409678 3.43654e-20)
(0.0914119 0.116223 1.34777e-20)
(0.238195 0.286817 1.90499e-20)
(0.365847 0.405781 -1.59229e-20)
(0.472686 0.48015 -1.40009e-20)
(0.560426 0.516481 4.14e-20)
(0.631499 0.522549 -4.26382e-20)
(0.688714 0.506632 5.24213e-20)
(0.734957 0.476601 -1.4201e-20)
(0.773666 0.438603 1.59141e-20)
(0.808069 0.396473 2.98876e-20)
(0.0839301 0.115012 -6.33409e-21)
(0.219871 0.282698 -1.70701e-20)
(0.340416 0.398324 -6.93892e-21)
(0.442935 0.469514 -4.60608e-21)
(0.528618 0.503212 3.55406e-21)
(0.599384 0.507434 -1.02475e-20)
(0.657527 0.490531 -1.57888e-20)
(0.705486 0.460285 -3.51923e-20)
(0.746272 0.422734 3.64675e-20)
(0.782494 0.381768 -1.26562e-20)
(0.0763507 0.112896 2.33452e-20)
(0.201438 0.276478 -1.53469e-21)
(0.314992 0.388104 -9.13247e-21)
(0.413377 0.45585 1.34647e-20)
(0.497211 0.486942 -2.47022e-20)
(0.567853 0.489532 6.64893e-20)
(0.627063 0.471959 -3.70511e-20)
(0.676824 0.44185 3.56444e-20)
(0.719717 0.405101 -6.92708e-20)
(0.757834 0.36558 -1.91803e-20)
(0.0687645 0.109876 -9.69522e-21)
(0.183104 0.268175 2.50126e-20)
(0.289842 0.37516 6.62912e-21)
(0.384299 0.439219 -1.15619e-20)
(0.466482 0.467747 -2.07331e-20)
(0.53716 0.468929 -1.26953e-21)
(0.597545 0.450996 1.2395e-20)
(0.649164 0.421366 -3.16015e-20)
(0.694174 0.385743 1.68898e-20)
(0.734229 0.347916 2.21926e-21)
(0.0612623 0.105963 -3.69359e-20)
(0.165072 0.257826 -9.98702e-21)
(0.265228 0.359557 -2.52572e-21)
(0.355983 0.419706 2.9318e-20)
(0.436702 0.445725 -2.80518e-20)
(0.507552 0.445722 -7.93868e-21)
(0.569188 0.427737 -4.92349e-21)
(0.622691 0.398909 9.83473e-21)
(0.669806 0.364715 -1.29408e-20)
(0.711813 0.3288 -2.14124e-20)
(0.0539337 0.101177 3.05017e-20)
(0.147545 0.245491 -1.75282e-20)
(0.241405 0.341383 1.1162e-21)
(0.328697 0.397421 -4.41191e-20)
(0.408132 0.420994 4.95416e-20)
(0.479263 0.42003 -1.65298e-20)
(0.542197 0.402285 1.04563e-20)
(0.597579 0.374569 9.6575e-21)
(0.64676 0.342079 2.95947e-20)
(0.690703 0.308275 -1.2477e-20)
(0.046866 0.0955487 -1.2374e-20)
(0.130714 0.231246 3.64435e-20)
(0.218617 0.32075 2.04924e-20)
(0.302701 0.372495 3.37335e-20)
(0.381017 0.393691 -8.35958e-21)
(0.452514 0.391982 3.38989e-21)
(0.516762 0.37476 2.95705e-20)
(0.573988 0.348441 6.88952e-21)
(0.625171 0.317911 6.69367e-22)
(0.671003 0.2864 -1.49254e-20)
(0.0401429 0.0891177 -2.62954e-20)
(0.114766 0.215188 -2.09882e-21)
(0.197098 0.297792 -1.1626e-20)
(0.278238 0.345079 -5.34542e-20)
(0.35559 0.363972 -5.41367e-20)
(0.427512 0.361726 9.54606e-21)
(0.493061 0.345291 -2.49339e-20)
(0.552066 0.320638 1.6859e-20)
(0.60516 0.292299 9.76782e-21)
(0.652805 0.263249 2.15455e-20)
(0.0338442 0.0819317 3.70895e-20)
(0.0998743 0.197433 -3.21987e-20)
(0.177067 0.272663 -1.64002e-20)
(0.255535 0.315348 3.08772e-20)
(0.332065 0.332011 3.65034e-20)
(0.404448 0.329425 -1.26664e-20)
(0.471256 0.314021 -1.63739e-21)
(0.531949 0.291279 -5.22637e-20)
(0.586836 0.265343 -3.12974e-20)
(0.636193 0.238909 1.2675e-20)
(0.0280439 0.0740464 -2.10232e-20)
(0.0862023 0.178111 9.44838e-21)
(0.158724 0.245536 3.4986e-20)
(0.234804 0.283491 -1.59755e-20)
(0.31064 0.297995 1.22718e-21)
(0.383496 0.295252 5.11317e-20)
(0.451494 0.281106 2.54406e-21)
(0.513756 0.260499 4.98526e-20)
(0.570299 0.237157 2.21214e-20)
(0.621239 0.21348 -3.70482e-20)
(0.0228105 0.0655255 2.80464e-20)
(0.0738981 0.157368 3.24234e-21)
(0.142254 0.216603 2.24883e-21)
(0.216233 0.249716 3.28047e-20)
(0.291493 0.262131 -4.66569e-21)
(0.364814 0.259398 -3.19653e-20)
(0.43391 0.246712 1.67365e-20)
(0.497598 0.228438 -2.80855e-20)
(0.555635 0.20786 -1.24437e-20)
(0.60801 0.187068 1.34698e-20)
(0.0182053 0.0564392 -1.75194e-20)
(0.0630946 0.135366 -3.53479e-20)
(0.127821 0.186072 8.32396e-21)
(0.199992 0.214248 -1.71507e-20)
(0.274781 0.224636 -1.10466e-20)
(0.348538 0.222061 2.83095e-20)
(0.418618 0.211015 -7.20233e-21)
(0.48357 0.19525 7.2108e-21)
(0.542922 0.177583 -9.31855e-21)
(0.596562 0.159791 1.93111e-20)
(0.0142823 0.0468638 6.20375e-21)
(0.0539086 0.112276 2.36406e-20)
(0.11557 0.154163 -3.37669e-20)
(0.186228 0.177322 1.6784e-20)
(0.260642 0.18574 -8.07452e-21)
(0.33479 0.183453 -2.42018e-20)
(0.405719 0.174201 2.09903e-20)
(0.471752 0.161094 4.79227e-21)
(0.532225 0.146465 -6.83886e-22)
(0.586945 0.13177 -2.25876e-20)
(0.0110875 0.0368808 1.97168e-21)
(0.0464387 0.0882807 7.46254e-21)
(0.10562 0.12111 3.03807e-20)
(0.175066 0.139189 -6.10589e-21)
(0.24919 0.145684 -5.09932e-21)
(0.323669 0.143791 2.00455e-21)
(0.395299 0.136461 8.77487e-22)
(0.462216 0.126137 8.31257e-21)
(0.5236 0.11465 -1.15944e-20)
(0.579202 0.103134 -7.78521e-21)
(0.0086582 0.0265762 -5.01011e-21)
(0.0407651 0.0635729 -9.13466e-21)
(0.0980708 0.0871573 -2.35139e-20)
(0.166605 0.100106 1.24145e-20)
(0.24052 0.104717 1.07316e-20)
(0.315258 0.103303 4.60547e-22)
(0.387424 0.0979948 -2.04482e-20)
(0.455014 0.090551 -9.67164e-21)
(0.517093 0.0822874 8.13116e-21)
(0.573364 0.074015 9.21524e-21)
(0.00702273 0.0160393 8.70219e-22)
(0.0369486 0.0383508 -1.89075e-21)
(0.0929964 0.0525555 4.46189e-21)
(0.160923 0.0603386 -3.17553e-21)
(0.2347 0.0630939 -2.9548e-21)
(0.309616 0.062221 -2.12345e-21)
(0.382145 0.0590067 4.19088e-21)
(0.45019 0.0545124 1.69688e-20)
(0.512735 0.0495308 2.60011e-21)
(0.569459 0.0445486 -4.91679e-21)
(0.00620019 0.00536208 1.06861e-21)
(0.0350301 0.0128182 -3.12953e-21)
(0.0904466 0.0175621 -3.68142e-21)
(0.158068 0.0201588 -2.68444e-21)
(0.231778 0.0210753 2.71779e-21)
(0.306785 0.0207802 1.30384e-21)
(0.379497 0.019704 -1.38014e-21)
(0.447771 0.0182012 -6.71307e-21)
(0.510551 0.0165367 2.33932e-21)
(0.567502 0.0148728 -2.32422e-21)
(0.00620019 -0.00536208 -1.06861e-21)
(0.0350301 -0.0128182 3.12953e-21)
(0.0904466 -0.0175621 3.68142e-21)
(0.158068 -0.0201588 -3.70849e-21)
(0.231778 -0.0210753 3.45811e-21)
(0.306785 -0.0207803 1.84685e-21)
(0.379497 -0.019704 -3.14581e-21)
(0.447771 -0.0182012 -3.8855e-21)
(0.510551 -0.0165367 6.14559e-22)
(0.567502 -0.0148728 -1.81956e-21)
(0.00702273 -0.0160393 1.16247e-21)
(0.0369486 -0.0383508 -3.73347e-21)
(0.0929964 -0.0525555 8.69952e-21)
(0.160923 -0.0603386 -8.02863e-21)
(0.2347 -0.0630939 -3.9025e-22)
(0.309616 -0.062221 -6.01655e-21)
(0.382145 -0.0590067 1.04256e-20)
(0.45019 -0.0545125 1.51055e-20)
(0.512735 -0.0495308 2.87796e-21)
(0.569459 -0.0445486 -6.52523e-21)
(0.0086582 -0.0265762 -1.01378e-21)
(0.0407651 -0.0635729 -7.94582e-21)
(0.0980708 -0.0871573 -1.91236e-20)
(0.166605 -0.100106 1.73965e-20)
(0.24052 -0.104717 3.83745e-21)
(0.315258 -0.103303 3.60284e-21)
(0.387424 -0.0979948 -1.87455e-20)
(0.455014 -0.090551 -1.17242e-20)
(0.517093 -0.0822874 -2.78769e-21)
(0.573364 -0.074015 2.01653e-20)
(0.0110875 -0.0368808 -3.61848e-21)
(0.0464387 -0.0882807 4.79486e-21)
(0.10562 -0.12111 3.48939e-20)
(0.175066 -0.139189 -3.25609e-21)
(0.24919 -0.145684 -9.92476e-21)
(0.323669 -0.143791 7.61832e-21)
(0.395299 -0.136461 5.47832e-22)
(0.462216 -0.126137 3.0528e-21)
(0.5236 -0.11465 -7.03659e-21)
(0.579202 -0.103134 -1.97543e-20)
(0.0142823 -0.0468638 -2.53467e-21)
(0.0539086 -0.112276 1.42436e-20)
(0.11557 -0.154163 -3.528e-20)
(0.186228 -0.177322 1.61006e-20)
(0.260642 -0.18574 1.47837e-22)
(0.33479 -0.183453 -2.28802e-20)
(0.405719 -0.174201 1.07271e-20)
(0.471752 -0.161094 -1.12559e-21)
(0.532225 -0.146465 4.52053e-21)
(0.586945 -0.13177 -1.468e-21)
(0.0182053 -0.0564392 -2.87262e-20)
(0.0630946 -0.135366 -3.61725e-20)
(0.127821 -0.186072 9.65545e-21)
(0.199992 -0.214248 -1.84315e-20)
(0.274781 -0.224636 -5.56894e-21)
(0.348538 -0.222061 8.67031e-21)
(0.418618 -0.211015 3.38434e-21)
(0.48357 -0.19525 1.37339e-20)
(0.542922 -0.177583 -3.08408e-21)
(0.596562 -0.159791 1.78201e-20)
(0.0228105 -0.0655255 2.7509e-20)
(0.0738981 -0.157368 1.8506e-20)
(0.142254 -0.216603 -1.48831e-20)
(0.216233 -0.249716 2.58615e-20)
(0.291493 -0.262131 -2.45258e-21)
(0.364814 -0.259398 -3.12397e-20)
(0.43391 -0.246712 5.76141e-21)
(0.497598 -0.228438 -3.75453e-20)
(0.555635 -0.20786 1.33508e-21)
(0.60801 -0.187068 1.51989e-20)
(0.0280439 -0.0740464 -2.12231e-20)
(0.0862023 -0.178111 3.98985e-20)
(0.158724 -0.245536 1.58124e-20)