/*--------------------------------*- C++ -*----------------------------------*\
  =========                 |
  \\      /  F ield         | OpenFOAM: The Open Source CFD Toolbox
   \\    /   O peration     | Website:  https://openfoam.org
    \\  /    A nd           | Version:  7
     \\/     M anipulation  |
\*---------------------------------------------------------------------------*/
FoamFile
{
    version     2.0;
    format      ascii;
    class       volScalarField;
    location    "365";
    object      p;
}
// * * * * * * * * * * * * * * * * * * * * * * * * * * * * * * * * * * * * * //

dimensions      [0 2 -2 0 0 0 0];

internalField   nonuniform List<scalar> 
8500
(
-0.422641
-0.425185
-0.426175
-0.427523
-0.429695
-0.432804
-0.436838
-0.441734
-0.447234
-0.453367
-0.413369
-0.416255
-0.417184
-0.4182
-0.419708
-0.421759
-0.424284
-0.427151
-0.429961
-0.432692
-0.404372
-0.407532
-0.408388
-0.40907
-0.409918
-0.410917
-0.411933
-0.412767
-0.412866
-0.412091
-0.395764
-0.399136
-0.399912
-0.400271
-0.400482
-0.400461
-0.400008
-0.398859
-0.396323
-0.392063
-0.387643
-0.391173
-0.391868
-0.391923
-0.391533
-0.390545
-0.388692
-0.385657
-0.380645
-0.37302
-0.38009
-0.383732
-0.384348
-0.384125
-0.383178
-0.381289
-0.378126
-0.37333
-0.366062
-0.355268
-0.373175
-0.376892
-0.377433
-0.376955
-0.375499
-0.372784
-0.368413
-0.361998
-0.35273
-0.338984
-0.366954
-0.370717
-0.371185
-0.370477
-0.36856
-0.365094
-0.359622
-0.351731
-0.340739
-0.324244
-0.361476
-0.365258
-0.365656
-0.364739
-0.362405
-0.358264
-0.3518
-0.342571
-0.330133
-0.311029
-0.356782
-0.36056
-0.360886
-0.359777
-0.357071
-0.352332
-0.344987
-0.334546
-0.320925
-0.29922
-0.35291
-0.356655
-0.356906
-0.355622
-0.352587
-0.347331
-0.339223
-0.327694
-0.313143
-0.288614
-0.34989
-0.353568
-0.353738
-0.352293
-0.348977
-0.343291
-0.334557
-0.322082
-0.306908
-0.279089
-0.347745
-0.351312
-0.35139
-0.3498
-0.346252
-0.340232
-0.331024
-0.317791
-0.302426
-0.271782
-0.346488
-0.349886
-0.349861
-0.348139
-0.344409
-0.338148
-0.328626
-0.314823
-0.299546
-0.265927
-0.346118
-0.349277
-0.349129
-0.347285
-0.343418
-0.337003
-0.327306
-0.313099
-0.297861
-0.261987
-0.346614
-0.349454
-0.349155
-0.347189
-0.343219
-0.336717
-0.326978
-0.312837
-0.296984
-0.259468
-0.34794
-0.35037
-0.349882
-0.347779
-0.343716
-0.337157
-0.327332
-0.313522
-0.296864
-0.258625
-0.350041
-0.351966
-0.351239
-0.348964
-0.344793
-0.338178
-0.328288
-0.314808
-0.296934
-0.258973
-0.352853
-0.354176
-0.353144
-0.350643
-0.346321
-0.339618
-0.329635
-0.316514
-0.296879
-0.260446
-0.356307
-0.356933
-0.355521
-0.35272
-0.348178
-0.341328
-0.331198
-0.318354
-0.297005
-0.26695
-0.360339
-0.360182
-0.358304
-0.355115
-0.35027
-0.343195
-0.33285
-0.319953
-0.297849
-0.281812
-0.364899
-0.363876
-0.361452
-0.35778
-0.352539
-0.345144
-0.334508
-0.321212
-0.299628
-0.284125
-0.369961
-0.367998
-0.364945
-0.360701
-0.354973
-0.347149
-0.336115
-0.322199
-0.301101
-0.284114
-0.375517
-0.372553
-0.368796
-0.363901
-0.357598
-0.349224
-0.337645
-0.322966
-0.30197
-0.283445
-0.381587
-0.377565
-0.373046
-0.367433
-0.360464
-0.351404
-0.339102
-0.323487
-0.302232
-0.282098
-0.388208
-0.383074
-0.377751
-0.371364
-0.363627
-0.353727
-0.340494
-0.323734
-0.301862
-0.280329
-0.395425
-0.389129
-0.382974
-0.375759
-0.367138
-0.356215
-0.341804
-0.323667
-0.300903
-0.278131
-0.403283
-0.395776
-0.388773
-0.380671
-0.371024
-0.35886
-0.342984
-0.323247
-0.299398
-0.275534
-0.411812
-0.403054
-0.395189
-0.386123
-0.37528
-0.361613
-0.343965
-0.322436
-0.297388
-0.272533
-0.421026
-0.41098
-0.402236
-0.392104
-0.379861
-0.364379
-0.344663
-0.321202
-0.2949
-0.269125
-0.430902
-0.419544
-0.409894
-0.398566
-0.384672
-0.36703
-0.344988
-0.31951
-0.291945
-0.265295
-0.441387
-0.428707
-0.418105
-0.405418
-0.389571
-0.369419
-0.344851
-0.317325
-0.288517
-0.261024
-0.452389
-0.438391
-0.42677
-0.412524
-0.39437
-0.371386
-0.344161
-0.314604
-0.284596
-0.256283
-0.463774
-0.448477
-0.435748
-0.419696
-0.398855
-0.372774
-0.342831
-0.311296
-0.280147
-0.251038
-0.475368
-0.458805
-0.444854
-0.426703
-0.402798
-0.373428
-0.340771
-0.307347
-0.275125
-0.245252
-0.486955
-0.469174
-0.45386
-0.433274
-0.405966
-0.373199
-0.33789
-0.302692
-0.269478
-0.23888
-0.498278
-0.479339
-0.462495
-0.439116
-0.408133
-0.371944
-0.334098
-0.297266
-0.263149
-0.23188
-0.509048
-0.489021
-0.470451
-0.443925
-0.409083
-0.36953
-0.329305
-0.290996
-0.256079
-0.22421
-0.518944
-0.497907
-0.477393
-0.447402
-0.408614
-0.36583
-0.323423
-0.283811
-0.248209
-0.215829
-0.527622
-0.505662
-0.482969
-0.449261
-0.40654
-0.360726
-0.316367
-0.275643
-0.23948
-0.206704
-0.534728
-0.511933
-0.48683
-0.449236
-0.402698
-0.354113
-0.308057
-0.266425
-0.229843
-0.196804
-0.539903
-0.516362
-0.488636
-0.447088
-0.396942
-0.345894
-0.298419
-0.256097
-0.219257
-0.186115
-0.542794
-0.518595
-0.488077
-0.442613
-0.389149
-0.335985
-0.287386
-0.244602
-0.207689
-0.174627
-0.543067
-0.518297
-0.484877
-0.435638
-0.379218
-0.324318
-0.274899
-0.231888
-0.195098
-0.162302
-0.540414
-0.515156
-0.478803
-0.426027
-0.367075
-0.310842
-0.260918
-0.217919
-0.181422
-0.148988
-0.534565
-0.508903
-0.469669
-0.413687
-0.352669
-0.295523
-0.245421
-0.20268
-0.166612
-0.134423
-0.525291
-0.499314
-0.457338
-0.398557
-0.335976
-0.278346
-0.228396
-0.186182
-0.15072
-0.118565
-0.512413
-0.486225
-0.441719
-0.380615
-0.316995
-0.259308
-0.209841
-0.168435
-0.133834
-0.102252
-0.495807
-0.469524
-0.42277
-0.359874
-0.295751
-0.238429
-0.189786
-0.149492
-0.115783
-0.085417
-0.475405
-0.449159
-0.400499
-0.336382
-0.272294
-0.21576
-0.168326
-0.12936
-0.0967126
-0.0678623
-0.451195
-0.425136
-0.374966
-0.310228
-0.246696
-0.191395
-0.145488
-0.108064
-0.0767283
-0.0495589
-0.423222
-0.397524
-0.346305
-0.281528
-0.219036
-0.165404
-0.121326
-0.0856832
-0.0558968
-0.0305647
-0.391582
-0.366455
-0.314711
-0.250363
-0.189423
-0.13787
-0.0959325
-0.0623065
-0.0342881
-0.0109783
-0.356437
-0.332131
-0.280299
-0.216778
-0.158067
-0.10893
-0.0694166
-0.0380288
-0.0119847
0.00908932
-0.318009
-0.294825
-0.242874
-0.181241
-0.125095
-0.0787246
-0.0419024
-0.0129519
0.0109297
0.0295518
-0.276517
-0.25478
-0.202751
-0.143909
-0.0907158
-0.0474156
-0.0135261
0.0128176
0.034369
0.0503188
-0.232152
-0.211753
-0.160996
-0.104978
-0.0551205
-0.0151723
0.0155769
0.0391793
0.0581917
0.0710578
-0.185251
-0.166473
-0.117687
-0.0647252
-0.018516
0.0178347
0.0452893
0.0660471
0.082119
0.0909648
-0.136443
-0.119155
-0.0729535
-0.0234213
0.0188716
0.0514308
0.0755016
0.0933151
0.105816
0.109473
-0.0858887
-0.0703242
-0.0270715
0.0186591
0.0568039
0.0854282
0.106053
0.120747
0.129179
0.128273
-0.0340052
-0.0204077
0.0196153
0.0612298
0.0950358
0.119618
0.136695
0.147951
0.152194
0.152135
0.0187621
0.0301953
0.066742
0.103994
0.133317
0.153773
0.167161
0.1748
0.175745
0.176067
0.0719688
0.0810793
0.113939
0.146648
0.171393
0.187664
0.19728
0.201354
0.199485
0.198702
0.125167
0.131832
0.160838
0.188883
0.209
0.221061
0.226878
0.227491
0.222987
0.220358
0.177906
0.182039
0.207074
0.230394
0.24588
0.253744
0.255785
0.253032
0.245908
0.241029
0.229742
0.231289
0.252287
0.270878
0.281775
0.285494
0.283822
0.277797
0.268061
0.260744
0.280235
0.279176
0.296126
0.310037
0.316433
0.3161
0.310809
0.301612
0.289294
0.279463
0.328956
0.325307
0.338251
0.347586
0.349612
0.345354
0.336567
0.324315
0.309479
0.297126
0.375492
0.369303
0.378335
0.383247
0.381077
0.373058
0.360927
0.345759
0.328497
0.313661
0.419448
0.410801
0.416066
0.416756
0.410603
0.399021
0.383726
0.365803
0.346235
0.328992
0.460449
0.449458
0.45115
0.447866
0.43798
0.423064
0.404809
0.384316
0.362585
0.343044
0.498145
0.484957
0.483313
0.476345
0.46301
0.445017
0.424035
0.401177
0.377446
0.355747
0.532212
0.517002
0.512303
0.501978
0.485512
0.464727
0.441271
0.416272
0.390722
0.367035
0.562358
0.545328
0.537891
0.524571
0.50532
0.482052
0.456398
0.429499
0.402329
0.376848
0.588319
0.569694
0.559872
0.543952
0.522287
0.496867
0.469308
0.440766
0.412189
0.385135
0.609867
0.589894
0.578069
0.55997
0.536283
0.509063
0.479909
0.449993
0.420234
0.39185
0.626806
0.605752
0.59233
0.572496
0.547201
0.518546
0.488122
0.457111
0.426409
0.396956
0.638978
0.617124
0.602533
0.581427
0.55495
0.52524
0.493882
0.462066
0.430668
0.400425
0.646264
0.623902
0.608584
0.586683
0.559464
0.52909
0.497141
0.464816
0.432977
0.402239
0.64858
0.626009
0.610418
0.58821
0.560697
0.530054
0.497865
0.465331
0.433309
0.402371
0.645882
0.623407
0.608002
0.585978
0.558622
0.528112
0.496037
0.463596
0.43165
0.400817
0.638166
0.61609
0.601331
0.579984
0.553239
0.523263
0.491654
0.459611
0.428002
0.397571
0.625464
0.60409
0.590431
0.570251
0.544566
0.515522
0.484733
0.453389
0.422378
0.39265
0.607851
0.58747
0.575359
0.556827
0.532644
0.504925
0.475301
0.444955
0.414799
0.386067
0.585438
0.566333
0.556201
0.539784
0.517535
0.491526
0.463406
0.434351
0.405298
0.377838
0.558373
0.540811
0.533071
0.51922
0.499324
0.475395
0.449109
0.421629
0.393919
0.367991
0.526842
0.511073
0.506113
0.495256
0.478114
0.456622
0.432486
0.406855
0.380719
0.356562
0.491067
0.477317
0.475499
0.468039
0.454029
0.435314
0.413627
0.390107
0.365763
0.343596
0.451301
0.439776
0.441425
0.437736
0.427213
0.411591
0.392637
0.371477
0.349127
0.329145
0.407832
0.398708
0.404116
0.404535
0.397828
0.385592
0.369632
0.351064
0.330895
0.313265
0.360978
0.354401
0.363817
0.368647
0.36605
0.35747
0.344744
0.328981
0.311161
0.296024
0.311083
0.30717
0.320799
0.330299
0.332076
0.32739
0.318114
0.305347
0.290025
0.277489
0.258518
0.257353
0.27535
0.289736
0.296113
0.29553
0.289892
0.280293
0.267593
0.257735
0.203678
0.205308
0.227779
0.24722
0.258384
0.262079
0.260243
0.253958
0.243976
0.236832
0.146973
0.151413
0.178413
0.203025
0.219122
0.227236
0.229336
0.226491
0.21929
0.214845
0.0888349
0.096062
0.127589
0.157438
0.17857
0.191208
0.197349
0.198056
0.19366
0.191818
0.0297046
0.0396614
0.0756597
0.110756
0.13698
0.154206
0.164465
0.168834
0.167245
0.167772
-0.0299661
-0.0173733
0.022987
0.0632835
0.0946113
0.116449
0.13086
0.139012
0.140249
0.142642
-0.0897203
-0.0746218
-0.0300608
0.0153303
0.051728
0.0781609
0.0967028
0.108771
0.11306
0.116449
-0.149099
-0.131663
-0.0831096
-0.0327921
0.00859557
0.0395784
0.0621665
0.0782339
0.0861877
0.0888627
-0.207647
-0.188079
-0.135783
-0.0807736
-0.0345246
0.000938275
0.0274248
0.0472881
0.0599629
0.0614508
-0.264908
-0.243457
-0.187705
-0.128309
-0.0773772
-0.0375246
-0.00723638
0.0160539
0.0333206
0.0400846
-0.320448
-0.297369
-0.238517
-0.175104
-0.11971
-0.0755937
-0.0415407
-0.0150048
0.00627802
0.0191044
-0.373951
-0.349338
-0.287909
-0.220873
-0.161277
-0.113076
-0.0753195
-0.0456143
-0.0210262
-0.00357556
-0.424965
-0.399004
-0.3357
-0.265337
-0.201842
-0.149794
-0.10847
-0.0756776
-0.0482254
-0.0272717
-0.473048
-0.445662
-0.381916
-0.308198
-0.241188
-0.185572
-0.140881
-0.105124
-0.0750265
-0.0510323
-0.517929
-0.489274
-0.425788
-0.349174
-0.279125
-0.220233
-0.172415
-0.133857
-0.101284
-0.0744867
-0.559377
-0.529804
-0.466347
-0.388331
-0.315454
-0.253606
-0.202928
-0.161767
-0.12691
-0.0975479
-0.597149
-0.566983
-0.503832
-0.425134
-0.349927
-0.285537
-0.23229
-0.188747
-0.151817
-0.120127
-0.631036
-0.600547
-0.538274
-0.459209
-0.38246
-0.315889
-0.26038
-0.214698
-0.175914
-0.142104
-0.660887
-0.630296
-0.569471
-0.490605
-0.412844
-0.344532
-0.287096
-0.239526
-0.199127
-0.16337
-0.686609
-0.656097
-0.597225
-0.519231
-0.440974
-0.371407
-0.31235
-0.263148
-0.221399
-0.183845
-0.708165
-0.677888
-0.621412
-0.544962
-0.466777
-0.396428
-0.336129
-0.285483
-0.242665
-0.203499
-0.725573
-0.695664
-0.641974
-0.567707
-0.490186
-0.41951
-0.358375
-0.306571
-0.262785
-0.222403
-0.738907
-0.709482
-0.658903
-0.587418
-0.511156
-0.440612
-0.379005
-0.326354
-0.281581
-0.240843
-0.748302
-0.719456
-0.672237
-0.604084
-0.529666
-0.459721
-0.397998
-0.344811
-0.299363
-0.258544
-0.753946
-0.725758
-0.682067
-0.617727
-0.545719
-0.476847
-0.415371
-0.361946
-0.316051
-0.274914
-0.756078
-0.728614
-0.688532
-0.628402
-0.55934
-0.492012
-0.431144
-0.377757
-0.331576
-0.290041
-0.754984
-0.728305
-0.691815
-0.636199
-0.57058
-0.505255
-0.445349
-0.392262
-0.345989
-0.304185
-0.750988
-0.725156
-0.692146
-0.641246
-0.57951
-0.51663
-0.458034
-0.405514
-0.359365
-0.317505
-0.744441
-0.71952
-0.689803
-0.643707
-0.586227
-0.526205
-0.469264
-0.417576
-0.371765
-0.330062
-0.735715
-0.711771
-0.6851
-0.643781
-0.590844
-0.534066
-0.479113
-0.428519
-0.383239
-0.341886
-0.725193
-0.702292
-0.678385
-0.641697
-0.593499
-0.540303
-0.48766
-0.438416
-0.393845
-0.35301
-0.713255
-0.691462
-0.670024
-0.637713
-0.594342
-0.545018
-0.494989
-0.447343
-0.40365
-0.36348
-0.700269
-0.679645
-0.660389
-0.632111
-0.593542
-0.548316
-0.501185
-0.455383
-0.412731
-0.373357
-0.686583
-0.667184
-0.649844
-0.625189
-0.591283
-0.550309
-0.506333
-0.462619
-0.421173
-0.382713
-0.672517
-0.654391
-0.638729
-0.617255
-0.58776
-0.55111
-0.510517
-0.469132
-0.429061
-0.391629
-0.658355
-0.64154
-0.627349
-0.608615
-0.583183
-0.550838
-0.513815
-0.474999
-0.436479
-0.400191
-0.644339
-0.628868
-0.615967
-0.599562
-0.577767
-0.549612
-0.516302
-0.480291
-0.443511
-0.408488
-0.630675
-0.616565
-0.604799
-0.590357
-0.571733
-0.547556
-0.518044
-0.485069
-0.450236
-0.416614
-0.617527
-0.60478
-0.594017
-0.581224
-0.565297
-0.5448
-0.519104
-0.489385
-0.456723
-0.424667
-0.605024
-0.593622
-0.58375
-0.572334
-0.558668
-0.541482
-0.519544
-0.49328
-0.463036
-0.432746
-0.593263
-0.583165
-0.57409
-0.563816
-0.552026
-0.537747
-0.519427
-0.496783
-0.469219
-0.440957
-0.582324
-0.573459
-0.5651
-0.555765
-0.545526
-0.533749
-0.518827
-0.49992
-0.475307
-0.449399
-0.572266
-0.564535
-0.556818
-0.54825
-0.539287
-0.52964
-0.517835
-0.502714
-0.481309
-0.458197
-0.563136
-0.556415
-0.54927
-0.541332
-0.533409
-0.525572
-0.516564
-0.505192
-0.487234
-0.467423
-0.554972
-0.549113
-0.542474
-0.535063
-0.527989
-0.521686
-0.515152
-0.5074
-0.493039
-0.477287
-0.547795
-0.542634
-0.536443
-0.529492
-0.523123
-0.51812
-0.513752
-0.509392
-0.498761
-0.487632
-0.5416
-0.536971
-0.531181
-0.52466
-0.51891
-0.515016
-0.512525
-0.511254
-0.504357
-0.498714
-0.536355
-0.532093
-0.526676
-0.520589
-0.51543
-0.512504
-0.511632
-0.513102
-0.509814
-0.509218
-0.531986
-0.527944
-0.522887
-0.517269
-0.512728
-0.510692
-0.511264
-0.514897
-0.51627
-0.51319
-0.52838
-0.524434
-0.51974
-0.514651
-0.510795
-0.509636
-0.511568
-0.516715
-0.523383
-0.519212
-0.525391
-0.521446
-0.51713
-0.512642
-0.509562
-0.50932
-0.512585
-0.518791
-0.530173
-0.52641
-0.522839
-0.51884
-0.514924
-0.511109
-0.5089
-0.509653
-0.514226
-0.52132
-0.536345
-0.533327
-0.520531
-0.516463
-0.512971
-0.50989
-0.508634
-0.510457
-0.516294
-0.524332
-0.541864
-0.539964
-0.51827
-0.514156
-0.511113
-0.508805
-0.508552
-0.511497
-0.518547
-0.527656
-0.546662
-0.546654
-0.515867
-0.511765
-0.509188
-0.507669
-0.508427
-0.512491
-0.52064
-0.530954
-0.550633
-0.553326
-0.513149
-0.509143
-0.507043
-0.506299
-0.508032
-0.513155
-0.522285
-0.533816
-0.553648
-0.559518
-0.509967
-0.506156
-0.504534
-0.504521
-0.507149
-0.513219
-0.523184
-0.535814
-0.555533
-0.564621
-0.506196
-0.502688
-0.501531
-0.502182
-0.505588
-0.512446
-0.523074
-0.536599
-0.556078
-0.568058
-0.501745
-0.498642
-0.497926
-0.499152
-0.503192
-0.510649
-0.521744
-0.535901
-0.555063
-0.56936
-0.496555
-0.493947
-0.493637
-0.495333
-0.499844
-0.507694
-0.519045
-0.533541
-0.55232
-0.568358
-0.4906
-0.488559
-0.48861
-0.490663
-0.495474
-0.503504
-0.514887
-0.529422
-0.547728
-0.564998
-0.483889
-0.482467
-0.482826
-0.485118
-0.490058
-0.498056
-0.509241
-0.523514
-0.541213
-0.559119
-0.476465
-0.47569
-0.476299
-0.478714
-0.483618
-0.491381
-0.502136
-0.515847
-0.532731
-0.550632
-0.468402
-0.468281
-0.469076
-0.471507
-0.476225
-0.483565
-0.493651
-0.506521
-0.522273
-0.539555
-0.459799
-0.460317
-0.461238
-0.463589
-0.467984
-0.474725
-0.483928
-0.495665
-0.509962
-0.526173
-0.450786
-0.451894
-0.452897
-0.455082
-0.459037
-0.465025
-0.47315
-0.48348
-0.496005
-0.510462
-0.441492
-0.443142
-0.444177
-0.446128
-0.449549
-0.45466
-0.461538
-0.470226
-0.480663
-0.492778
-0.432062
-0.434193
-0.435221
-0.436887
-0.439705
-0.443845
-0.449345
-0.456202
-0.464274
-0.473576
-0.465559
-0.472997
-0.465169
-0.426686
-0.374874
-0.342679
-0.350946
-0.376223
-0.365859
-0.301948
-0.224999
-0.163226
-0.134039
-0.11964
-0.135494
-0.155727
-0.148826
-0.113618
-0.0981911
-0.0775148
-0.0725035
-0.0629054
-0.0648703
-0.0805004
-0.0831942
-0.051339
-0.0418132
-0.0516723
-0.0430259
-0.00599822
-0.440229
-0.443574
-0.43503
-0.401241
-0.360308
-0.342247
-0.36362
-0.397421
-0.386133
-0.316908
-0.233763
-0.166567
-0.132852
-0.11534
-0.128089
-0.145896
-0.13953
-0.108862
-0.0967989
-0.0775694
-0.0735266
-0.0650193
-0.067147
-0.0816
-0.0840026
-0.0516914
-0.0418438
-0.0518551
-0.0429829
-0.00589704
-0.415205
-0.414121
-0.404717
-0.375291
-0.34488
-0.340504
-0.374518
-0.416091
-0.404143
-0.330183
-0.241462
-0.169468
-0.131512
-0.111112
-0.120731
-0.136124
-0.129996
-0.103976
-0.0952685
-0.0775969
-0.0746236
-0.0672575
-0.069466
-0.0826611
-0.0847389
-0.0520278
-0.0418582
-0.0520626
-0.0429843
-0.00579749
-0.391112
-0.3854
-0.375024
-0.349528
-0.329029
-0.33739
-0.383285
-0.431812
-0.41968
-0.341725
-0.248123
-0.171966
-0.130088
-0.107027
-0.113536
-0.126537
-0.120331
-0.0989881
-0.0935993
-0.0775959
-0.0757915
-0.0696098
-0.0718101
-0.0836774
-0.0853969
-0.0523456
-0.041856
-0.0522958
-0.0430307
-0.00570022
-0.368556
-0.358092
-0.346711
-0.324598
-0.313128
-0.332876
-0.389586
-0.444312
-0.43259
-0.351515
-0.253783
-0.1741
-0.128641
-0.10314
-0.106609
-0.11725
-0.110651
-0.0939302
-0.0917928
-0.0775641
-0.0770246
-0.0720645
-0.0741617
-0.0846435
-0.0859709
-0.0526415
-0.0418367
-0.0525554
-0.0431223
-0.0056059
-0.347952
-0.332731
-0.320406
-0.301069
-0.297567
-0.326971
-0.393138
-0.453455
-0.442787
-0.359557
-0.258492
-0.175906
-0.127224
-0.0994941
-0.100045
-0.108364
-0.101085
-0.0888388
-0.0898533
-0.0774983
-0.078315
-0.0746088
-0.0765035
-0.0855542
-0.086456
-0.0529125
-0.0417997
-0.0528417
-0.0432584
-0.00551522
-0.329531
-0.309665
-0.29654
-0.27937
-0.282503
-0.319884
-0.393844
-0.459219
-0.450248
-0.365881
-0.262305
-0.177419
-0.125885
-0.096118
-0.0939178
-0.0999665
-0.091764
-0.083754
-0.0877875
-0.0773941
-0.079653
-0.0772282
-0.0788181
-0.0864052
-0.0868477
-0.0531554
-0.0417443
-0.0531546
-0.0434375
-0.00542885
-0.313392
-0.289044
-0.275342
-0.260275
-0.267751
-0.311727
-0.391777
-0.461692
-0.455016
-0.370536
-0.265282
-0.178673
-0.124662
-0.0930308
-0.0882815
-0.0921301
-0.0828429
-0.0787187
-0.0856057
-0.0772457
-0.0810269
-0.0799066
-0.0810898
-0.0871928
-0.0871423
-0.0533672
-0.04167
-0.0534933
-0.0436574
-0.00534749
-0.299533
-0.270818
-0.256909
-0.243442
-0.254036
-0.302657
-0.387145
-0.461076
-0.457199
-0.373589
-0.267485
-0.179699
-0.123586
-0.0902417
-0.0831668
-0.0849129
-0.0744648
-0.073781
-0.083321
-0.0770464
-0.0824232
-0.0826266
-0.0833044
-0.0879139
-0.0873369
-0.0535447
-0.0415761
-0.0538568
-0.0439153
-0.00527182
-0.287864
-0.25492
-0.241464
-0.228634
-0.24146
-0.292884
-0.380256
-0.457691
-0.456955
-0.375118
-0.268975
-0.180527
-0.122681
-0.0877525
-0.0785829
-0.0783512
-0.0665508
-0.0689986
-0.0809498
-0.0767879
-0.0838276
-0.0853702
-0.0854482
-0.0885654
-0.0874289
-0.0536849
-0.0414622
-0.0542434
-0.0442073
-0.00520252
-0.278442
-0.242428
-0.227584
-0.216068
-0.230031
-0.282654
-0.371481
-0.451927
-0.454488
-0.375208
-0.269811
-0.181181
-0.12196
-0.0855605
-0.0745201
-0.0724649
-0.0593301
-0.0644336
-0.0785107
-0.0764604
-0.0852243
-0.0881183
-0.0875079
-0.0891447
-0.0874167
-0.053785
-0.0413276
-0.0546507
-0.0445289
-0.00514028
-0.271667
-0.231829
-0.215985
-0.20556
-0.219784
-0.272226
-0.361226
-0.444216
-0.450028
-0.373951
-0.270051
-0.181691
-0.121437
-0.0836623
-0.0709558
-0.0672578
-0.0528739
-0.0601437
-0.0760247
-0.0760535
-0.0865973
-0.0908516
-0.0894705
-0.0896494
-0.0872991
-0.0538422
-0.0411721
-0.0550762
-0.0448747
-0.00508577
-0.266061
-0.223467
-0.206441
-0.196879
-0.21075
-0.261853
-0.349884
-0.435129
-0.443809
-0.371449
-0.269761
-0.18209
-0.121125
-0.0820562
-0.0678585
-0.0627148
-0.0471999
-0.056182
-0.0735146
-0.0755553
-0.0879303
-0.0935505
-0.0913251
-0.0900771
-0.0870757
-0.0538536
-0.0409947
-0.0555165
-0.0452382
-0.00503964
-0.261888
-0.217229
-0.198712
-0.189851
-0.202936
-0.25176
-0.337806
-0.425386
-0.436019
-0.367817
-0.269003
-0.182399
-0.121014
-0.080729
-0.0651853
-0.0587943
-0.0422945
-0.0525954
-0.071004
-0.0749532
-0.0892071
-0.0961958
-0.0930968
-0.0904258
-0.0867469
-0.0538152
-0.0407946
-0.0559669
-0.0456122
-0.00500255
-0.262481
-0.213145
-0.192695
-0.184326
-0.196325
-0.242132
-0.325287
-0.414926
-0.426762
-0.363144
-0.26778
-0.182568
-0.121032
-0.0796339
-0.0628778
-0.055424
-0.0381174
-0.0494208
-0.0685159
-0.0742338
-0.0904118
-0.0987686
-0.0947249
-0.0906937
-0.0863149
-0.0537224
-0.0405706
-0.0564197
-0.0459881
-0.00497511
-0.259915
-0.211082
-0.188338
-0.180175
-0.190882
-0.233114
-0.312536
-0.39307
-0.416117
-0.357509
-0.266049
-0.182526
-0.121107
-0.0787327
-0.0608913
-0.052533
-0.0346078
-0.0466757
-0.0660712
-0.0733825
-0.0915292
-0.101251
-0.0962185
-0.0908796
-0.0857817
-0.0535739
-0.040323
-0.0568681
-0.0463564
-0.00495793
-0.259862
-0.210837
-0.18562
-0.177288
-0.186553
-0.224837
-0.300107
-0.378523
-0.404545
-0.35114
-0.264043
-0.182525
-0.121457
-0.078172
-0.0592772
-0.0501408
-0.031739
-0.0443466
-0.0636846
-0.0723835
-0.0925443
-0.103626
-0.0975741
-0.0909772
-0.0851426
-0.0533805
-0.0400534
-0.0573214
-0.0467069
-0.00495149
-0.26157
-0.213607
-0.184524
-0.175587
-0.183225
-0.217337
-0.288071
-0.364544
-0.392067
-0.344459
-0.262509
-0.18331
-0.122661
-0.0783054
-0.0581654
-0.0483257
-0.0295515
-0.0424047
-0.0613782
-0.0712194
-0.0934407
-0.105862
-0.0987226
-0.0909688
-0.0843857
-0.0531561
-0.0397581
-0.0578057
-0.0470323
-0.00495655
-0.260291
-0.215293
-0.185114
-0.175129
-0.180818
-0.210402
-0.275899
-0.349343
-0.378145
-0.337128
-0.261115
-0.184451
-0.124234
-0.0788032
-0.057311
-0.0467425
-0.0278734
-0.0407188
-0.0592417
-0.0698655
-0.0942186
-0.107907
-0.0995628
-0.0908645
-0.0835345
-0.0528579
-0.0394214
-0.0582772
-0.0473229
-0.0049752
-0.26783
-0.221961
-0.187656
-0.175757
-0.180041
-0.205335
-0.264798
-0.333953
-0.363818
-0.326824
-0.255446
-0.181617
-0.12262
-0.0773945
-0.0555808
-0.0441548
-0.025818
-0.0397679
-0.0569755
-0.0683497
-0.0948013
-0.110013
-0.100598
-0.0908216
-0.0827197
-0.0523153
-0.0390288
-0.05847
-0.0475134
-0.00500315
-0.250401
-0.218579
-0.186834
-0.176037
-0.180329
-0.203688
-0.260649
-0.32693
-0.35169
-0.312986
-0.243416
-0.172968
-0.11638
-0.072881
-0.0523475
-0.0397904
-0.0220658
-0.0348799
-0.0511661
-0.0648106
-0.0959194
-0.114706
-0.104025
-0.0910434
-0.0819919
-0.0513509
-0.0385042
-0.0580485
-0.0475619
-0.00500374
-0.245229
-0.215785
-0.187646
-0.178009
-0.182595
-0.203859
-0.253696
-0.310135
-0.328496
-0.291026
-0.226986
-0.162284
-0.109742
-0.0689321
-0.0490933
-0.0357815
-0.0203363
-0.0335107
-0.0486231
-0.0627531
-0.0966439
-0.117655
-0.105905
-0.0894932
-0.0800472
-0.0499709
-0.0379237
-0.0576593
-0.0485788
-0.00495602
-0.237811
-0.212524
-0.187851
-0.179559
-0.184462
-0.203469
-0.245166
-0.291184
-0.303801
-0.269013
-0.211126
-0.15211
-0.103342
-0.0649279
-0.0458693
-0.0320733
-0.0187657
-0.0321423
-0.0473104
-0.0617078
-0.0970285
-0.119443
-0.107127
-0.0874652
-0.0776631
-0.0484055
-0.0372156
-0.0572254
-0.0498496
-0.00480333
-0.229964
-0.208546
-0.186946
-0.179733
-0.18454
-0.200926
-0.234457
-0.270757
-0.278714
-0.247054
-0.195318
-0.141911
-0.0968876
-0.0608759
-0.0426558
-0.028567
-0.0170858
-0.0305075
-0.0455738
-0.0603758
-0.0969533
-0.121
-0.107902
-0.0851204
-0.0747443
-0.0465751
-0.0363501
-0.0567156
-0.0510399
-0.00456667
-0.220911
-0.203318
-0.184558
-0.178103
-0.182435
-0.19608
-0.222063
-0.249629
-0.253928
-0.225668
-0.17993
-0.131896
-0.09046
-0.0567709
-0.0394196
-0.0251742
-0.0152414
-0.0287612
-0.0431814
-0.0583521
-0.096305
-0.122184
-0.107997
-0.0823273
-0.0712439
-0.0444444
-0.0352955
-0.0560841
-0.0521038
-0.00426766
-0.210226
-0.196656
-0.180594
-0.174677
-0.1783
-0.189288
-0.208688
-0.228787
-0.230277
-0.205346
-0.165158
-0.122117
-0.0840842
-0.0526181
-0.0361295
-0.0218306
-0.0131266
-0.0267373
-0.0401667
-0.0556313
-0.094831
-0.12253
-0.10719
-0.0790159
-0.0671314
-0.0419703
-0.0340148
-0.0552735
-0.0530329
-0.00390523
-0.198384
-0.188691
-0.175206
-0.169726
-0.172527
-0.180953
-0.194996
-0.208986
-0.208303
-0.186358
-0.15113
-0.112641
-0.0778025
-0.0484267
-0.0327561
-0.0184642
-0.0106217
-0.0242593
-0.0364531
-0.0521353
-0.0921516
-0.121682
-0.105305
-0.0751442
-0.0623885
-0.0391093
-0.032465
-0.054212
-0.0537661
-0.0034674
-0.18587
-0.17964
-0.168615
-0.163569
-0.165529
-0.171824
-0.181487
-0.190625
-0.188219
-0.168811
-0.137917
-0.10351
-0.0716425
-0.0442057
-0.0292724
-0.0149986
-0.00760883
-0.0211122
-0.0318087
-0.0475859
-0.087928
-0.119346
-0.102174
-0.0706752
-0.0570136
-0.0358177
-0.0305955
-0.052805
-0.0541958
-0.00294392
-0.17303
-0.169757
-0.16104
-0.15648
-0.157647
-0.162166
-0.168444
-0.173797
-0.170019
-0.152701
-0.125537
-0.0947523
-0.0656269
-0.0399683
-0.0256585
-0.0113587
-0.0039685
-0.0169983
-0.0258693
-0.0415859
-0.0819313
-0.11523
-0.0976512
-0.0655849
-0.0510275
-0.0320549
-0.0283488
-0.0509325
-0.0541847
-0.00233016
-0.160166
-0.159297
-0.152683
-0.148678
-0.149162
-0.152232
-0.15596
-0.158419
-0.153575
-0.137958
-0.113981
-0.0863872
-0.0597742
-0.0357308
-0.0219072
-0.00748283
0.000411315
-0.0115451
-0.0181789
-0.0337282
-0.074038
-0.109085
-0.0916355
-0.0598685
-0.0444776
-0.0277869
-0.0256608
-0.0484492
-0.0535728
-0.00162706
-0.147481
-0.148484
-0.143732
-0.140337
-0.140286
-0.142198
-0.144039
-0.144343
-0.138713
-0.124486
-0.103222
-0.0784276
-0.0541001
-0.0315159
-0.0180272
-0.00333986
0.00561165
-0.00434911
-0.00828159
-0.0236776
-0.0642767
-0.100775
-0.0840904
-0.0535448
-0.0374402
-0.0229927
-0.0224628
-0.045189
-0.0521783
-0.00084198
-0.1351
-0.13751
-0.134361
-0.131607
-0.131194
-0.13219
-0.132658
-0.131409
-0.125248
-0.11218
-0.0932255
-0.0708825
-0.0486183
-0.0273549
-0.0140455
0.0010528
0.0116286
0.00490975
0.00411339
-0.0112889
-0.0528952
-0.0903094
-0.075074
-0.046662
-0.03002
-0.0176721
-0.018686
-0.0409733
-0.0498008
9.17207e-06
-0.123118
-0.126545
-0.124737
-0.122621
-0.121999
-0.122304
-0.121797
-0.119477
-0.113012
-0.100938
-0.0839507
-0.0637583
-0.0433406
-0.0232887
-0.0100108
0.00561707
0.0182959
0.0162305
0.0188494
0.00315555
-0.0403924
-0.0778757
-0.0647386
-0.0392993
-0.0223452
-0.0118544
-0.0142692
-0.035626
-0.0462319
0.000899693
-0.111611
-0.11573
-0.115018
-0.113511
-0.112813
-0.11262
-0.111446
-0.108431
-0.101855
-0.0906631
-0.0753567
-0.0570594
-0.0382814
-0.0193617
-0.00599575
0.0102066
0.0252165
0.0290051
0.0348392
0.0185858
-0.0273973
-0.0637943
-0.0533335
-0.0315673
-0.0145593
-0.00560502
-0.00916951
-0.0289982
-0.0412757
0.00179127
-0.100636
-0.105187
-0.105349
-0.104401
-0.103729
-0.103204
-0.101601
-0.0981785
-0.0916522
-0.0812684
-0.067404
-0.0507867
-0.0334621
-0.0156154
-0.00209499
0.0146204
0.0317891
0.0424276
0.0498247
0.0331025
-0.0143603
-0.0484938
-0.041237
-0.0236088
-0.0068193
0.000973876
-0.00337702
-0.0210017
-0.0347847
0.00263669
-0.0902392
-0.0950142
-0.0958569
-0.0954074
-0.0948337
-0.0941148
-0.0922645
-0.0886522
-0.0822982
-0.0726736
-0.0600572
-0.0449377
-0.0289115
-0.0120869
0.00157947
0.0186212
0.037343
0.0523559
0.0612977
0.0448207
-0.00150277
-0.0325389
-0.0289372
-0.0155904
0.000709708
0.00774017
0.00306361
-0.0116599
-0.0267093
0.00338911
-0.0804552
-0.0852941
-0.0866511
-0.0866323
-0.0862037
-0.0854011
-0.0834425
-0.0797999
-0.073709
-0.0648079
-0.053286
-0.0395082
-0.0246602
-0.00881342
0.00491044
0.021974
0.0414279
0.0583074
0.0679526
0.0528946
0.0107589
-0.0166248
-0.0169991
-0.00769631
0.00786811
0.0145108
0.0100284
-0.00117236
-0.0171627
0.00401825
-0.0713083
-0.0760901
-0.0778225
-0.0781665
-0.0779073
-0.0771051
-0.0751418
-0.0715832
-0.0658183
-0.0576104
-0.047065
-0.0344932
-0.020734
-0.0058359
0.0077858
0.024502
0.0438181
0.0604758
0.0701683
0.0575061
0.0215775
-0.00245373
-0.00600212
-0.000118526
0.0145113
0.0210665
0.0172808
0.0100426
-0.0064967
0.0045243
-0.0628136
-0.067451
-0.0694448
-0.070086
-0.0700044
-0.069263
-0.0673703
-0.0639741
-0.0585752
-0.0510305
-0.0413715
-0.029889
-0.0171508
-0.0031928
0.0101267
0.0261478
0.0446153
0.0599642
0.0691645
0.0592389
0.030166
0.00954944
0.00366823
0.00696599
0.0205103
0.0271644
0.024469
0.0213036
0.00468301
0.00492893
-0.0549797
-0.0594125
-0.0615746
-0.0624528
-0.0625485
-0.0619075
-0.0601363
-0.0569527
-0.0519418
-0.0450282
-0.0361849
-0.0256918
-0.013921
-0.00090907
0.0119065
0.0269676
0.0441754
0.0578205
0.0661477
0.058812
0.0362101
0.01899
0.0118401
0.0134167
0.0257618
0.0325588
0.0311467
0.0317204
0.0155912
0.00526575
-0.0478099
-0.0520014
-0.0542586
-0.0553125
-0.0555842
-0.0550674
-0.0534492
-0.0505064
-0.0458904
-0.0395728
-0.0314859
-0.021897
-0.0110474
0.00101193
0.0131503
0.0270614
0.0429896
0.0547433
0.0620942
0.0569847
0.0399335
0.0254137
0.0184857
0.0191364
0.0302193
0.0370504
0.0368608
0.0402776
0.0252839
0.00568942
-0.0413046
-0.0452385
-0.0475382
-0.0486905
-0.0491547
-0.0487703
-0.0473195
-0.0446282
-0.0404018
-0.034642
-0.0272574
-0.0184979
-0.00852415
0.00258881
0.0139281
0.0264908
0.0388799
0.0511147
0.0577029
0.0544011
0.0418146
0.0287327
0.0237065
0.0240618
0.0338867
0.0405428
0.0412838
0.0461235
0.0328882
0.00643434
-0.0354625
-0.0391407
-0.0414717
-0.0428456
-0.0433245
-0.0430437
-0.0417587
-0.0393161
-0.0354641
-0.0302203
-0.0234847
-0.0154854
-0.00633712
0.00385902
0.0143613
0.0257513
0.036975
0.0475476
0.0534276
0.0515383
0.0424626
0.0313495
0.0277652
0.0281776
0.0367824
0.043038
0.0442598
0.0489239
0.0379144
0.00767955
-0.0302781
-0.0337037
-0.0360148
-0.0374453
-0.0380614
-0.0378992
-0.0367777
-0.0345728
-0.0310718
-0.0262989
-0.0201566
-0.0128486
-0.0044662
0.00486688
0.0145452
0.0248829
0.034955
0.0441935
0.0495155
0.0487183
0.0423395
0.0331543
0.0308836
0.0315187
0.0389552