/*--------------------------------*- C++ -*----------------------------------*\
  =========                 |
  \\      /  F ield         | OpenFOAM: The Open Source CFD Toolbox
   \\    /   O peration     | Website:  https://openfoam.org
    \\  /    A nd           | Version:  7
     \\/     M anipulation  |
\*---------------------------------------------------------------------------*/
FoamFile
{
    version     2.0;
    format      ascii;
    class       surfaceScalarField;
    location    "365";
    object      phi;
}
// * * * * * * * * * * * * * * * * * * * * * * * * * * * * * * * * * * * * * //

dimensions      [0 3 -1 0 0 0 0];

internalField   nonuniform List<scalar> 
16735
(
-0.000104739
-0.00224267
0.00234741
-0.00039171
-0.00509068
0.00537765
-0.000843851
-0.00679644
0.00724858
-0.0014373
-0.00759401
0.00818745
-0.00214893
-0.00778146
0.0084931
-0.00296017
-0.00761931
0.00843055
-0.00385699
-0.00724695
0.00814377
-0.00483009
-0.00665208
0.00762519
-0.00587497
-0.00568568
0.00673056
-0.00404427
0.00516817
-0.00699887
-0.000123871
-0.0021188
-0.000446879
-0.00476767
-0.000939821
-0.0063035
-0.00157304
-0.00696079
-0.00232286
-0.00703165
-0.00317352
-0.00676864
-0.00411547
-0.006305
-0.00514454
-0.00562301
-0.00626136
-0.00456886
-0.00283273
-0.00747291
-0.00013953
-0.00197927
-0.000490637
-0.00441656
-0.0010127
-0.00578144
-0.00167
-0.00630349
-0.00243702
-0.00626463
-0.00329854
-0.00590712
-0.00424618
-0.00535737
-0.00527652
-0.00459267
-0.00639038
-0.00345501
-0.00163693
-0.00758617
-0.000151856
-0.00182742
-0.000523702
-0.00404472
-0.00106429
-0.00524085
-0.00173155
-0.00563623
-0.00249667
-0.00549951
-0.00334257
-0.00506122
-0.00425855
-0.00444139
-0.00523744
-0.00361377
-0.0062752
-0.00241725
-0.000554613
-0.00735751
-0.000161203
-0.00166621
-0.000547381
-0.00365854
-0.0010975
-0.00469073
-0.00176284
-0.0049709
-0.00250992
-0.00475242
-0.00331749
-0.00425365
-0.00416924
-0.00358963
-0.00504976
-0.00273325
-0.00594568
-0.00152134
0.00032382
-0.00682412
-0.000168072
-0.00149814
-0.000563361
-0.00326325
-0.0011159
-0.00413819
-0.00177011
-0.00431668
-0.00248679
-0.00403575
-0.00323849
-0.00350195
-0.00400051
-0.00282761
-0.00474503
-0.00198874
-0.00544426
-0.000822104
0.000923976
-0.00604442
-0.000173022
-0.00132512
-0.000573441
-0.00286283
-0.0011232
-0.00358843
-0.00175994
-0.00367995
-0.00243793
-0.00335776
-0.00312222
-0.00281765
-0.00377763
-0.0021722
-0.00436055
-0.00140581
-0.00482453
-0.000358124
0.00118898
-0.00508954
-0.000176571
-0.00114855
-0.000579241
-0.00246016
-0.00112275
-0.00304492
-0.00173818
-0.00306451
-0.00237306
-0.00272288
-0.00298428
-0.00220643
-0.00352514
-0.00163135
-0.00393397
-0.000996981
-0.00414168
-0.000150413
0.00108248
-0.00403518
-0.000179101
-0.000969447
-0.000581918
-0.00205735
-0.00111686
-0.00250998
-0.00170898
-0.0024724
-0.00229919
-0.00213267
-0.00283629
-0.00166932
-0.00326215
-0.00120549
-0.00349608
-0.000763053
-0.00344308
-0.000203412
0.000587859
-0.00294845
-0.000180776
-0.000788671
-0.000581925
-0.0016562
-0.00110641
-0.0019855
-0.00167382
-0.00190498
-0.00221891
-0.00158758
-0.00268287
-0.00120536
-0.00299706
-0.000891306
-0.0030623
-0.000697813
-0.00275526
-0.000510453
-0.000293936
-0.00187346
-0.000181499
-0.000607172
-0.000578871
-0.00125883
-0.00109045
-0.00147392
-0.00163092
-0.00136451
-0.00212917
-0.00108933
-0.00251917
-0.000815367
-0.00272277
-0.000687704
-0.00262375
-0.00079683
-0.00206866
-0.00106555
-0.00154067
-0.000821921
-0.000180901
-0.000426271
-0.000571509
-0.000868218
-0.00106621
-0.000979213
-0.00157504
-0.000855688
-0.00202082
-0.000643547
-0.00232984
-0.000506346
-0.00241441
-0.000603129
-0.00214171
-0.00106953
-0.00132228
-0.00188499
-0.00315568
0.000292729
-0.000178402
-0.000247869
-0.000557884
-0.000488736
-0.00102937
-0.000507725
-0.00149796
-0.000387102
-0.0018794
-0.000262109
-0.00209046
-0.000295285
-0.00203217
-0.00066141
-0.00155362
-0.00154808
-0.000379555
-0.00305906
-0.00521944
0.00168421
-0.000173304
-7.45646e-05
-0.00053564
-0.000126401
-0.000974653
-6.87116e-05
-0.0013896
2.78478e-05
-0.00168711
3.53952e-05
-0.00177094
-0.000211453
-0.00152707
-0.000905282
-0.000792737
-0.00228241
0.000752398
-0.00460419
-0.00781103
0.00334399
-0.000164939
9.03745e-05
-0.000502438
0.000211098
-0.000896734
0.000325584
-0.0012397
0.000370813
-0.00142563
0.000221325
-0.00134067
-0.000296416
-0.000849936
-0.00139601
0.000211673
-0.00334402
0.00224492
-0.00663744
-0.0109871
0.00542098
-0.000152818
0.000243192
-0.000456437
0.000514718
-0.000791198
0.000660345
-0.0010396
0.000619215
-0.00107997
0.000261697
-0.000775133
-0.000601254
4.32943e-05
-0.00221444
0.00156609
-0.00486682
0.00418009
-0.00925144
-0.0147151
0.00790808
-0.000136757
0.000379949
-0.000396656
0.000774617
-0.000655377
0.000919066
-0.000783871
0.000747709
-0.000641
0.000118826
-6.25533e-05
-0.0011797
0.001148
-0.00342499
0.00321473
-0.00693355
0.00652082
-0.0125575
-0.0189377
0.0107434
-0.000116947
0.000496895
-0.000323213
0.000980883
-0.000488793
0.00108465
-0.000470988
0.000729904
-0.000106494
-0.000245668
0.000798815
-0.00208501
0.00247377
-0.00509995
0.00515372
-0.0096135
0.0091658
-0.0165696
-0.0235637
0.0137918
-9.39394e-05
0.000590835
-0.000237308
0.00112425
-0.000293166
0.0011405
-0.000103328
0.000540067
0.00051948
-0.000868476
0.00179886
-0.00336439
0.00398915
-0.00729024
0.00733632
-0.0129607
0.011976
-0.0212093
-0.028395
0.0168073
-6.85479e-05
0.000659383
-0.000140958
0.00119666
-7.19009e-05
0.00107145
0.000313728
0.000154438
0.0012275
-0.00178225
0.00291909
-0.00505597
0.00565351
-0.0100247
0.00967265
-0.0169798
0.0148172
-0.0263538
-0.0333943
0.0198164
-4.16812e-05
0.000701064
-3.6434e-05
0.00119142
0.000170805
0.000864207
0.000773333
-0.00044809
0.00200573
-0.00301465
0.00413624
-0.00718648
0.00741653
-0.0133049
0.0120182
-0.0215815
0.0174976
-0.0318332
-0.0410735
0.0251768
-1.41996e-05
0.000715263
7.37046e-05
0.00110351
0.000430955
0.000506957
0.00126887
-0.001286
0.00284206
-0.00458784
0.00542453
-0.00976896
0.00922405
-0.0171045
0.0142674
-0.0266249
0.0200588
-0.0376246
-0.0481249
0.0271102
1.35983e-05
0.000701665
0.000188433
0.000928677
0.000705769
-1.03802e-05
0.00179508
-0.00237531
0.00372513
-0.00651789
0.0067559
-0.0127997
0.0110132
-0.0213617
0.0163342
-0.0319459
0.0221783
-0.0434687
-0.0544304
0.0284838
4.13105e-05
0.000660355
0.000307128
0.000662859
0.000994003
-0.000697255
0.00234837
-0.00372968
0.00464368
-0.0088132
0.00809827
-0.0162543
0.0127137
-0.0259772
0.0181378
-0.03737
0.0237655
-0.0490964
-0.0600157
0.0293508
6.93977e-05
0.000590957
0.000430319
0.000301938
0.00129582
-0.00156276
0.00292604
-0.0053599
0.00558432
-0.0114715
0.00941305
-0.0200831
0.0142555
-0.0308196
0.0195999
-0.0427144
0.0248377
-0.0543342
-0.0648758
0.0296978
9.84535e-05
0.000492503
0.000559303
-0.000158911
0.00161217
-0.00261562
0.00352468
-0.00727242
0.00652897
-0.0144758
0.0106548
-0.0242089
0.0155751
-0.0357399
0.0206784
-0.0478177
0.0254164
-0.0590721
-0.0690411
0.0295817
0.000129269
0.000363234
0.000695638
-0.000725281
0.00194364
-0.00386362
0.00413824
-0.00946702
0.00745324
-0.0177908
0.0117752
-0.0285308
0.0166243
-0.040589
0.0213631
-0.0525566
0.0255535
-0.0632625
-0.0725763
0.0290887
0.000162619
0.000200616
0.000840572
-0.00140323
0.00228934
-0.00531239
0.00475643
-0.0119341
0.00832694
-0.0213613
0.0127291
-0.032933
0.0173756
-0.0452355
0.0216716
-0.0568526
0.0253133
-0.0669041
-0.0755568
0.0282938
0.000199086
1.52932e-06
0.00099453
-0.00219868
0.00264603
-0.00696389
0.00536418
-0.0146523
0.00911708
-0.0251142
0.0134817
-0.0372976
0.0178237
-0.0495775
0.0216403
-0.0606693
0.0247626
-0.0700264
-0.0780625
0.0272683
0.000238939
-0.00023741
0.00115678
-0.00311652
0.00300762
-0.00881473
0.00594238
-0.017587
0.00979234
-0.0289641
0.0140127
-0.0415179
0.0179817
-0.0535465
0.0213154
-0.064003
0.0239652
-0.0726762
-0.0801672
0.0260699
0.000282099
-0.000519508
0.00132533
-0.00415975
0.00336537
-0.0108548
0.00646985
-0.0206915
0.0103275
-0.0328217
0.0143162
-0.0455067
0.0178753
-0.0571056
0.0207459
-0.0668736
0.022977
-0.0749074
-0.0819355
0.0247453
0.000328121
-0.00084763
0.00149698
-0.00532861
0.00370848
-0.0130663
0.00692605
-0.0239091
0.0107062
-0.0366019
0.0143998
-0.0492003
0.0175378
-0.0602436
0.0199789
-0.0693147
0.0218449
-0.0767734
-0.0834207
0.0233301
0.000376264
-0.00122389
0.00166759
-0.00661993
0.00402514
-0.0154238
0.00729355
-0.0271775
0.010922
-0.0402303
0.0142799
-0.0525582
0.0170047
-0.0629683
0.0190567
-0.0713667
0.0206071
-0.0783238
-0.084665
0.0218514
0.000425548
-0.00164944
0.00183234
-0.00802673
0.00430368
-0.0178952
0.00755986
-0.0304337
0.0109772
-0.0436476
0.0139792
-0.0555602
0.0163111
-0.0653002
0.0180159
-0.0730716
0.0192934
-0.0796013
-0.0857005
0.020329
0.000474824
-0.00212427
0.00198614
-0.00953804
0.00453371
-0.0204427
0.00771824
-0.0336182
0.0108809
-0.0468102
0.0135225
-0.0582019
0.0154891
-0.0672669
0.0168868
-0.0744693
0.017927
-0.0806415
-0.086551
0.0187775
0.000522836
-0.0026471
0.00212389
-0.0111391
0.00470701
-0.0230259
0.00776751
-0.0366787
0.0106468
-0.0496895
0.0129352
-0.0604902
0.0145674
-0.0688991
0.015694
-0.0755959
0.0165253
-0.0814727
-0.0872335
0.0172078
0.000568281
-0.00321538
0.00224091
-0.0128117
0.00481807
-0.025603
0.00771118
-0.0395718
0.0102914
-0.0522698
0.0122413
-0.0624402
0.0135702
-0.0702279
0.0144569
-0.0764826
0.0151014
-0.0821172
-0.0877599
0.0156277
0.000609866
-0.00382525
0.00233317
-0.014535
0.00486426
-0.0281341
0.00755632
-0.0422639
0.009832
-0.0545454
0.011463
-0.0640711
0.0125179
-0.0712829
0.0131908
-0.0771555
0.0136652
-0.0825916
-0.0881382
0.0140435
0.000646364
-0.00447161
0.00239754
-0.0162862
0.00484571
-0.0305823
0.00731238
-0.0447305
0.00928582
-0.0565189
0.0106194
-0.0654048
0.0114273
-0.0720908
0.0119075
-0.0776357
0.0122241
-0.0829081
-0.0883739
0.0124598
0.000676668
-0.00514828
0.00243194
-0.0180415
0.00476482
-0.0329152
0.00699008
-0.0469558
0.00866911
-0.0581979
0.00972748
-0.0664631
0.0103118
-0.0726751
0.0106162
-0.0779401
0.0107839
-0.0830757
-0.0884706
0.0108806
0.00069983
-0.00584811
0.00243538
-0.019777
0.00462579
-0.0351056
0.00660065
-0.0489307
0.0079967
-0.0595939
0.00880121
-0.0672676
0.0091821
-0.073056
0.00932382
-0.0780819
0.00934879
-0.0831007
-0.088431
0.00930914
0.0007151
-0.00656321
0.0024079
-0.0214698
0.00443405
-0.0371317
0.00615515
-0.0506518
0.00728183
-0.0607206
0.00785238
-0.0678382
0.00804676
-0.0732504
0.00803579
-0.0780709
0.0079224
-0.0829873
-0.088256
0.00774744
0.000721948
-0.00728516
0.00235049
-0.0230984
0.00419574
-0.038977
0.00566411
-0.0521201
0.006536
-0.0615925
0.00689067
-0.0681929
0.00691242
-0.0732721
0.00675625
-0.0779147
0.0065075
-0.0827386
-0.087946
0.00619745
0.000720062
-0.00800522
0.00226485
-0.0246431
0.00391728
-0.0406294
0.00513721
-0.0533401
0.00576915
-0.0622245
0.00592399
-0.0683477
0.00578436
-0.0731325
0.00548838
-0.0776187
0.0051063
-0.0823565
-0.0875004
0.00466076
0.000709355
-0.00871458
0.00215326
-0.0260871
0.0036051
-0.0420813
0.0045832
-0.0543182
0.00498969
-0.062631
0.00495882
-0.0683168
0.00466695
-0.0728406
0.00423491
-0.0771867
0.00372007
-0.0818416
-0.086919
0.00313868
0.000689943
-0.00940452
0.00201836
-0.0274155
0.00326534
-0.0433282
0.00400981
-0.0550626
0.00420468
-0.0628258
0.00400042
-0.0681126
0.00356403
-0.0724042
0.00299931
-0.076622
0.00234899
-0.0811913
-0.0861998
0.00162971
0.000662147
-0.0100667
0.00186308
-0.0286164
0.0029038
-0.0443689
0.0034238
-0.0555826
0.00341995
-0.062822
0.00305295
-0.0677456
0.00247857
-0.0718299
0.00178562
-0.075929
0.000999223
-0.0804049
-0.0852924
9.18083e-05
0.00062648
-0.0106931
0.00169063
-0.0296806
0.00252581
-0.0452041
0.00283101
-0.0558878
0.00264033
-0.0626313
0.00211966
-0.0672249
0.00141226
-0.0711225
0.00059137
-0.0751081
-0.000309438
-0.0795041
-0.0842818
-0.00132
0.000583588
-0.0112767
0.00150398
-0.0306009
0.00213621
-0.0458364
0.00223643
-0.055988
0.00186975
-0.0622646
0.00120325
-0.0665584
0.000365334
-0.0702846
-0.000578517
-0.0741643
-0.00161929
-0.0784633
-0.0831618
-0.00273931
0.00053423
-0.011811
0.00130598
-0.0313727
0.00173934
-0.0462697
0.00164426
-0.055893
0.00111138
-0.0617317
0.000305226
-0.0657522
-0.000654873
-0.0693245
-0.00172023
-0.0730989
-0.00288962
-0.077294
-0.0819124
-0.00413901
0.000479258
-0.0122902
0.00109941
-0.0319929
0.00133905
-0.0465094
0.00105793
-0.0556118
0.000368074
-0.0610419
-0.000569765
-0.0648144
-0.00165047
-0.0682438
-0.00283825
-0.0719111
-0.0041312
-0.076001
-0.0805325
-0.00551105
0.000419567
-0.0127098
0.000887018
-0.0324603
0.000938701
-0.046561
0.000480818
-0.055154
-0.000357934
-0.0602031
-0.00142243
-0.0637499
-0.00262196
-0.0670442
-0.00392873
-0.0706044
-0.00534421
-0.0745855
-0.0790241
-0.00685265
0.000356008
-0.0130658
0.000671416
-0.0327757
0.000541527
-0.0464311
-8.14365e-05
-0.054531
-0.00106469
-0.0592199
-0.00225255
-0.062562
-0.00356749
-0.0657293
-0.0049905
-0.0691814
-0.00652718
-0.0730488
-0.0773896
-0.00816168
0.000289534
-0.0133553
0.000454604
-0.0329408
0.000155713
-0.0461323
-0.000637747
-0.0537375
-0.0017531
-0.0581045
-0.00305877
-0.0612564
-0.00448605
-0.064302
-0.00602278
-0.0676446
-0.00767868
-0.0713929
-0.0756328
-0.00943547
0.000221957
-0.0135773
0.00023859
-0.0329574
-0.00023593
-0.0456577
-0.00117649
-0.052797
-0.00242077
-0.0568602
-0.00384025
-0.0598369
-0.00537693
-0.0627653
-0.00702487
-0.0659967
-0.00879724
-0.0696206
-0.0737598
-0.0106703
0.000153252
-0.0137305
3.88792e-05
-0.032843
-0.000619226
-0.0449996
-0.00170133
-0.0517149
-0.00306703
-0.0554945
-0.00459631
-0.0583076
-0.0062395
-0.0611221
-0.007996
-0.0642402
-0.0098816
-0.067735
-0.0717749
-0.0118664
7.96954e-05
-0.0138102
-0.000193111
-0.0325702
-0.000990725
-0.044202
-0.00220918
-0.0504964
-0.00369115
-0.0540126
-0.00532644
-0.0566723
-0.00707335
-0.0593752
-0.00893563
-0.0623779
-0.0109317
-0.0657389
-0.0696754
-0.0130312
-1.63125e-06
-0.0138086
-0.000413022
-0.0321588
-0.00135178
-0.0432633
-0.00269884
-0.0491494
-0.00429229
-0.0524191
-0.00603027
-0.0549343
-0.00787885
-0.0575266
-0.00984474
-0.060412
-0.0119465
-0.0636371
-0.0674604
-0.0141615
-6.97365e-05
-0.0137389
-0.000622564
-0.031606
-0.00170073
-0.0421851
-0.00316982
-0.0476803
-0.00486975
-0.0507192
-0.00670732
-0.0530968
-0.00865663
-0.0555773
-0.0107265
-0.0583421
-0.0129208
-0.0614428
-0.065144
-0.0152372
-0.000141931
-0.0135969
-0.00082486
-0.0309231
-0.00203655
-0.0409734
-0.00362151
-0.0460953
-0.00542289
-0.0489178
-0.00735666
-0.051163
-0.00940486
-0.0535291
-0.0115797
-0.0561673
-0.0138922
-0.0591304
-0.0628646
-0.0161715
-0.000213301
-0.0133836
-0.00102036
-0.030116
-0.00235859
-0.0396352
-0.00405332
-0.0444006
-0.00595127
-0.0470198
-0.00797733
-0.0491369
-0.0101189
-0.0513875
-0.0123768
-0.0539094
-0.0147159
-0.0567913
-0.0600937
-0.0174868
-0.000282993
-0.0131006
-0.0012087
-0.0291903
-0.00266641
-0.0381775
-0.00446488
-0.0426021
-0.00645471
-0.04503
-0.00856874
-0.0470229
-0.0107956
-0.0491607
-0.0131317
-0.0515733
-0.0155951
-0.0543279
-0.057338
-0.0183508
-0.000350597
-0.01275
-0.00138937
-0.0281515
-0.00295962
-0.0366072
-0.00485587
-0.0407059
-0.00693293
-0.0429529
-0.00913079
-0.044825
-0.011441
-0.0468505
-0.0138683
-0.049146
-0.0164464
-0.0517499
-0.0545554
-0.0192289
-0.000415806
-0.0123342
-0.00156187
-0.0270055
-0.00323787
-0.0349312
-0.00522605
-0.0387177
-0.00738552
-0.0407935
-0.00966272
-0.0425478
-0.0120524
-0.0444608
-0.0145645
-0.0466339
-0.0172291
-0.0490853
-0.0517197
-0.0200649
-0.00047835
-0.0118559
-0.0017258
-0.025758
-0.00350088
-0.0331561
-0.00557523
-0.0366433
-0.00781239
-0.0385563
-0.0101648
-0.0401954
-0.0126305
-0.0419951
-0.0152226
-0.0440418
-0.0179651
-0.0463428
-0.0488199
-0.0208649
-0.000537989
-0.0113179
-0.00188078
-0.0244152
-0.00374839
-0.0312885
-0.00590325
-0.0344885
-0.00821339
-0.0362462
-0.0106368
-0.037772
-0.0131745
-0.0394574
-0.0158407
-0.0413756
-0.0186554
-0.043528
-0.045852
-0.0216233
-0.000594507
-0.0107234
-0.00202652
-0.0229832
-0.0039802
-0.0293348
-0.00621001
-0.0322587
-0.00858843
-0.0338677
-0.0110786
-0.0352819
-0.0136839
-0.036852
-0.0164192
-0.0386403
-0.0193023
-0.0406449
-0.042816
-0.0223383
-0.000647711
-0.0100757
-0.00216277
-0.0214682
-0.00419615
-0.0273015
-0.00649543
-0.0299594
-0.00893745
-0.0314257
-0.01149
-0.0327294
-0.0141586
-0.0341835
-0.0169583
-0.0358406
-0.0199059
-0.0376973
-0.0397141
-0.0230079
-0.000697433
-0.00937825
-0.00228933
-0.0198763
-0.00439611
-0.0251947
-0.00675945
-0.0275961
-0.00926039
-0.0289248
-0.0118709
-0.0301189
-0.0145982
-0.0314561
-0.0174577
-0.0329811
-0.020466
-0.034689
-0.0365493
-0.0236307
-0.000743527
-0.00863472
-0.00240601
-0.0182138
-0.00457999
-0.0230207
-0.00700203
-0.025174
-0.00955718
-0.0263696
-0.0122211
-0.0274549
-0.0150027
-0.0286746
-0.0179175
-0.0300662
-0.0209821
-0.0316245
-0.0333259
-0.0242055
-0.000785865
-0.00784886
-0.00251268
-0.016487
-0.0047477
-0.0207857
-0.00722315
-0.0226986
-0.0098278
-0.023765
-0.0125407
-0.024742
-0.0153719
-0.0258434
-0.0183374
-0.0271007
-0.0214537
-0.0285082
-0.0300482
-0.0247314
-0.000824338
-0.00702452
-0.00260922
-0.0147021
-0.00489918
-0.0184957
-0.00742277
-0.020175
-0.0100722
-0.0211156
-0.0128294
-0.0219848
-0.0157056
-0.0229673
-0.0187171
-0.0240892
-0.0218804
-0.0253448
-0.0267212
-0.0252074
-0.000858852
-0.00616567
-0.00269553
-0.0128654
-0.00503439
-0.0161569
-0.0076009
-0.0176085
-0.0102903
-0.0184261
-0.0130873
-0.0191878
-0.0160037
-0.0200508
-0.0190564
-0.0210366
-0.0222619
-0.0221393
-0.0233502
-0.025633
-0.00088933
-0.00527634
-0.00277152
-0.0109832
-0.00515331
-0.0137751
-0.00775751
-0.0150043
-0.0104822
-0.0157014
-0.0133141
-0.0163559
-0.0162661
-0.0170989
-0.0193551
-0.0179476
-0.0225977
-0.0188967
-0.0199402
-0.0260077
-0.000915703
-0.00436064
-0.00283714
-0.00906179
-0.0052559
-0.0113563
-0.00789261
-0.0123676
-0.0106478
-0.0129463
-0.01351
-0.0134937
-0.0164927
-0.0141161
-0.0196131
-0.0148272
-0.0228878
-0.0156221
-0.0164968
-0.0263312
-0.000937916
-0.00342272
-0.00289234
-0.00710737
-0.00534215
-0.0089065
-0.00800621
-0.0097035
-0.010787
-0.0101654
-0.0136748
-0.0106059
-0.0166834
-0.0111075
-0.0198302
-0.0116804
-0.0231318
-0.0123205
-0.0130254
-0.0266032
-0.000955926
-0.00246679
-0.00293706
-0.00512623
-0.00541204
-0.00643152
-0.0080983
-0.00701724
-0.0109
-0.00736371
-0.0138085
-0.00769739
-0.0168382
-0.00807786
-0.0200064
-0.0085122
-0.0233297
-0.00899716
-0.00953131
-0.0268238
-0.000969698
-0.00149709
-0.00297129
-0.00312464
-0.00546557
-0.00393724
-0.00816889
-0.00431393
-0.0109866
-0.00454595
-0.0139111
-0.00477292
-0.0169569
-0.00503206
-0.0201416
-0.00532758
-0.0234815
-0.00565721
-0.00601999
-0.0269928
-0.000979206
-0.000517889
-0.002995
-0.00110884
-0.00550274
-0.0014295
-0.00821799
-0.00159868
-0.011047
-0.00171695
-0.0139826
-0.0018373
-0.0170397
-0.00197501
-0.0202356
-0.00213158
-0.023587
-0.00230584
-0.00249683
-0.0271102
-0.000984433
0.000466544
-0.00300818
0.00091491
-0.00552356
0.00108588
-0.00824562
0.00112338
-0.011081
0.00111845
-0.014023
0.00110465
-0.0170863
0.00108836
-0.0202886
0.00107069
-0.0236462
0.00105174
0.00103096
-0.027174
-0.00098537
0.00145191
-0.00301083
0.00294037
-0.00552802
0.00360306
-0.00825178
0.00384714
-0.0110888
0.00395545
-0.0140322
0.00404813
-0.0170971
0.0041532
-0.0203008
0.00427439
-0.0236597
0.00441065
0.00456138
-0.0271901
-0.000982018
0.00243393
-0.00300294
0.00496129
-0.00551614
0.00611626
-0.00823648
0.00656748
-0.0110703
0.00678922
-0.0140104
0.00698831
-0.0170718
0.00721459
-0.0202719
0.00747445
-0.023627
0.00776579
0.00808766
-0.0271533
-0.000974384
0.00340832
-0.00298454
0.00697145
-0.00548792
0.00861964
-0.00819975
0.00927932
-0.0110255
0.00961494
-0.0139576
0.00992038
-0.0170106
0.0102676
-0.020202
0.0106658
-0.0235481
0.0111119
0.0116042
-0.0270647
-0.000962483
0.0043708
-0.00295563
0.00896459
-0.00544338
0.0111074
-0.00814159
0.0119775
-0.0109545
0.0124278
-0.0138736
0.0128396
-0.0169134
0.0133074
-0.0200911
0.0138435
-0.0234231
0.014444
0.0151057
-0.0269246
-0.00094634
0.00531714
-0.00291624
0.0109345
-0.00538255
0.0135737
-0.00806203
0.014657
-0.0108573
0.0152231
-0.0137588
0.015741
-0.0167804
0.0163291
-0.0199394
0.0170025
-0.0232521
0.0177567
0.0185867
-0.0267331
-0.000925986
0.00624313
-0.00286641
0.0128749
-0.00530543
0.0160127
-0.00796107
0.0173127
-0.0107339
0.0179959
-0.0136129
0.0186201
-0.0166116
0.0193278
-0.0197469
0.0201378
-0.0230352
0.021045
0.0220418
-0.0264902
-0.000901464
0.00714459
-0.00280618
0.0147796
-0.00521206
0.0184186
-0.00783875
0.0199393
-0.0105844
0.0207415
-0.0134362
0.0214719
-0.0164072
0.0222987
-0.0195138
0.0232444
-0.0227726
0.0243037
0.0254654
-0.0261962
-0.000872825
0.00801742
-0.0027356
0.0166424
-0.00510246
0.0207855
-0.00769508
0.022532
-0.0104088
0.0234552
-0.0132288
0.0242919
-0.0161671
0.025237
-0.0192403
0.0263175
-0.0224644
0.0275279
0.0288523
-0.0258513
-0.000840131
0.00885755
-0.00265475
0.018457
-0.00497668
0.0231074
-0.00753008
0.0250854
-0.0102071
0.0261323
-0.0129906
0.0270754
-0.0158917
0.0281381
-0.0189265
0.0293523
-0.0221111
0.0307125
0.0321973
-0.025456
-0.000803454
0.009661
-0.00256369
0.0202173
-0.00483476
0.0253785
-0.0073438
0.0275944
-0.00997952
0.028768
-0.0127219
0.0298178
-0.0155811
0.0309973
-0.0185728
0.0323441
-0.021713
0.0338527
0.0354951
-0.0250109
-0.00076288
0.0104239
-0.00246252
0.0219169
-0.00467674
0.0275927
-0.00713625
0.0300539
-0.00972598
0.0313577
-0.0124227
0.0325145
-0.0152354
0.03381
-0.0181794
0.0352881
-0.0212706
0.0369439
0.0387412
-0.0245167
-0.000718509
0.0111424
-0.00235135
0.0235498
-0.00450269
0.029744
-0.00690748
0.0324587
-0.00944657
0.0338968
-0.0120931
0.0351611
-0.0148548
0.0365717
-0.0177467
0.03818
-0.0207845
0.0399818
0.041931
-0.0239743
-0.000670454
0.0118128
-0.00223031
0.0251096
-0.00431268
0.0318264
-0.00665753
0.0348036
-0.00914137
0.0363806
-0.0117334
0.0377531
-0.0144396
0.0392779
-0.0172748
0.0410152
-0.0202552
0.0429622
0.0450608
-0.0233851
-0.000618849
0.0124317
-0.00209956
0.0265903
-0.0041068
0.0338336
-0.00638645
0.0370832
-0.00881044
0.0388046
-0.0113435
0.0402861
-0.0139898
0.0419242
-0.0167639
0.0437893
-0.0196833
0.0458816
0.0481279
-0.0227504
-0.000563844
0.0129955
-0.00195927
0.0279857
-0.00388518
0.0357595
-0.0060943
0.0392923
-0.00845387
0.0411642
-0.0109238
0.042756
-0.0135058
0.0445062
-0.0162141
0.0464977
-0.019069
0.0487365
0.0511308
-0.022072
-0.000505612
0.0135011
-0.00180967
0.0292898
-0.00364795
0.0375978
-0.00578115
0.0414255
-0.00807173
0.0434548
-0.0104743
0.0451586
-0.0129877
0.0470197
-0.0156253
0.0491352
-0.0184121
0.0515234
0.0540711
-0.0213524
-0.000444344
0.0139455
-0.00165101
0.0304965
-0.00339529
0.0393421
-0.0054471
0.0434773
-0.00766408
0.0456718
-0.00999511
0.0474896
-0.012436
0.0494605
-0.0149966
0.0516958
-0.0177095
0.0542362
0.0569555
-0.0205938
-0.000380256
0.0143257
-0.00148361
0.0315998
-0.0031274
0.0409859
-0.00509228
0.0454422
-0.00723109
0.0478106
-0.00948662
0.0497451
-0.011852
0.0518259
-0.014331
0.0541749
-0.0169606
0.0568658
0.0597966
-0.0198017
-0.000313588
0.0146393
-0.00130781
0.032594
-0.00284453
0.0425226
-0.00471686
0.0473145
-0.00677282
0.0498665
-0.0089483
0.0519206
-0.011234
0.0541116
-0.0136241
0.0565649
-0.0161362
0.0593779
0.0626216
-0.0189612
-0.000244613
0.0148839
-0.00112405
0.0334735
-0.00254697
0.0439455
-0.00432105
0.0490886
-0.00628969
0.0518352
-0.00838104
0.054012
-0.0105858
0.0563164
-0.0129039
0.058883
-0.0152909
0.0617649
0.065471
-0.0181403
-0.000173681
0.0150576
-0.000932766
0.0342326
-0.00223502
0.0452478
-0.0039051
0.0507587
-0.00578199
0.0537121
-0.00778493
0.0560149
-0.00989985
0.0584313
-0.0121406
0.0611238
-0.0145138
0.064138
0.0677548
-0.0167976
-0.000101425
0.0151591
-0.000734297
0.0348654
-0.00190904
0.0464225
-0.00346932
0.052319
-0.00524982
0.0554925
-0.00716051
0.0579256
-0.00917934
0.0604501
-0.0113162
0.0632607
-0.0135702
0.0663919
0.0701134
-0.0159287
-3.00593e-05
0.0151891
-0.000528483
0.0353639
-0.0015695
0.0474636
-0.00301418
0.0537637
-0.00469357
0.0571719
-0.00650877
0.0597408
-0.00842979
0.0623712
-0.0104642
0.065295
-0.0126274
0.0685552
0.0723813
-0.0148953
4.67763e-05
0.0151423
-0.000313599
0.0357242
-0.0012172
0.0483672
-0.0025403
0.0550868
-0.00411387
0.0587455
-0.00583076
0.0614577
-0.00765361
0.064194
-0.00958743
0.0672289
-0.0116489
0.0706167
0.0745376
-0.0138053
0.00012408
0.0150183
-8.10521e-05
0.0359294
-0.000853736
0.0491398
-0.00204796
0.056281
-0.00351131
0.0602089
-0.00512704
0.0630734
-0.00685013
0.0659171
-0.00868205
0.0690608
-0.0106382
0.0725728
0.0765862
-0.0126867
0.000196273
0.014822
0.000130092
0.0359955
-0.000481321
0.0497513
-0.0015376
0.0573373
-0.00288672
0.061558
-0.00439794
0.0645846
-0.00601886
0.067538
-0.0077465
0.0707884
-0.00959478
0.0744211
0.0785312
-0.0115398
0.000265874
0.0145561
0.000340659
0.0359208
-8.39628e-05
0.0501759
-0.00101113
0.0582644
-0.00224073
0.0627876
-0.00364376
0.0659877
-0.00516005
0.0690543
-0.00678119
0.0724096
-0.00851849
0.0761584
0.080367
-0.0103543
0.000334606
0.0142215
0.000558171
0.0356972
0.00029496
0.0504391
-0.000473215
0.0590326
-0.00157374
0.0638881
-0.00286513
0.0672791
-0.00427427
0.0704635
-0.00578677
0.0739221
-0.00741044
0.0777821
0.0820866
-0.00913002
0.000401634
0.0138199
0.000776662
0.0353222
0.000686772
0.050529
8.51404e-05
0.0596342
-0.000886743
0.06486
-0.00206275
0.0684551
-0.00336205
0.0717628
-0.00476372
0.0753237
-0.00627174
0.0792901
0.083686
-0.00787121
0.000465748
0.0133541
0.000994516
0.0347934
0.00108654
0.050437
0.000647104
0.0600737
-0.000182181
0.0656893
-0.00123728
0.0695102
-0.00242402
0.0729495
-0.00371262
0.0766123
-0.00510358
0.080681
0.0851631
-0.00658061
0.000526064
0.0128281
0.00120938
0.0341101
0.00148963
0.0501567
0.00122584
0.0603375
0.000542456
0.0663727
-0.000390477
0.0704431
-0.00146126
0.0740203
-0.00263427
0.0777853
-0.00390748
0.0819542
0.0865156
-0.00525998
0.000581699
0.0122464
0.0014187
0.0332731
0.00189333
0.0496821
0.00181382
0.060417
0.00128417
0.0669023
0.000480085
0.0712472
-0.000476202
0.0749766
-0.0015299
0.0788391
-0.00268486
0.0831092
0.0877422
-0.00391151
0.000631761
0.0116146
0.00161991
0.0322849
0.00229439
0.0490076
0.00240828
0.0603031
0.00204114
0.0672695
0.00137219
0.0719161
0.000535293
0.0758135
-0.000405298
0.0797796
-0.00143458
0.0841385
0.0888464
-0.00253878
0.000675408
0.0109392
0.00181034
0.03115
0.00268916
0.0481288
0.00300614
0.0599861
0.00281089
0.0674647
0.00228294
0.0724441
0.0015712
0.0765252
0.000751549
0.0805993
-0.00013859
0.0850286
0.0898581
-0.00115027
0.000711883
0.0102273
0.0019872
0.0298747
0.00307357
0.0470424
0.00360359
0.0594561
0.00359065
0.0674776
0.00321087
0.0728239
0.00262657
0.0771095
0.00192764
0.0812982
0.00113898
0.0858173
0.0907479
0.000249133
0.000740531
0.00948678
0.00214761
0.0284676
0.00344308
0.0457469
0.00419603
0.0587031
0.00437693
0.0672967
0.00415364
0.0730471
0.00370082
0.0775623
0.00312327
0.0818758
0.00246399
0.0864766
0.0914712
0.0017407
0.000760825
0.00872595
0.00228853
0.0269399
0.00379263
0.0442428
0.00477815
0.0577176
0.00516548
0.0669094
0.00510852
0.0731041
0.00479286
0.077878
0.00434059
0.082328
0.00380861
0.0870085
0.0920646
0.00321521
0.000772403
0.00795355
0.00240679
0.0253055
0.00411669
0.0425329
0.00534376
0.0564905
0.00595115
0.066302
0.00607207
0.0729832
0.00590036
0.0780497
0.00557585
0.0826526
0.00516776
0.0874166
0.0925321
0.00470027
0.000775118
0.00717843
0.00249972
0.0235809
0.00440932
0.0406233
0.00588572
0.0550141
0.00672771
0.06546
0.00703981
0.0726711
0.00702012
0.0780694
0.00682611
0.0828466
0.00654156
0.0877012
0.0928753
0.00619837
0.000769025
0.00640941
0.00256491
0.021785
0.0046643
0.0385239
0.00639595
0.0532825
0.00748767
0.0643683
0.00800625
0.0721525
0.00814861
0.077927
0.0080893
0.0829059
0.0079293
0.0878612
0.0930958
0.00770878
0.000754385
0.00565502
0.00260042
0.019939
0.00487522
0.0362491
0.00686536
0.0512923
0.00822218
0.0630115
0.00896465
0.07141
0.0092816
0.0776101
0.00936311
0.0828244
0.00932947
0.0878948
0.093195
0.00923034
0.000731672
0.00492335
0.00260498
0.0180657
0.0050358
0.0338183
0.00728399
0.0490442
0.0089209
0.0613746
0.00990676
0.0704242
0.0104138
0.0771031
0.0106445
0.0825937
0.0107401
0.0877992
0.0931726
0.0107625
0.000701571
0.00422178
0.00257816
0.0161891
0.00514024
0.0312562
0.00764119
0.0465432
0.00957185
0.0594439
0.0108225
0.0691735
0.0115383
0.0763873
0.0119294
0.0822026
0.0121588
0.0875698
0.0930276
0.0123037
0.00066496
0.00355682
0.00252053
0.0143335
0.00518365
0.0285931
0.00792588
0.043801
0.0101615
0.0572083
0.0116997
0.0676352
0.0126464
0.0754406
0.0132125
0.0816365
0.0135825
0.0871998
0.0927586
0.0138515
0.000622879
0.00293394
0.0024337
0.0125227
0.00516259
0.0258642
0.00812705
0.0408365
0.0106746
0.0546608
0.0125239
0.0657859
0.0137273
0.0742372
0.0144871
0.0808767
0.0150073
0.0866796
0.0923626
0.0154033
0.000576487
0.00235745
0.00232033
0.0107789
0.00507563
0.0231089
0.00823444
0.0376777
0.0110949
0.0518004
0.0132779
0.0636029
0.0147672
0.072748
0.0157442
0.0798996
0.016428
0.0859958
0.0918347
0.0169559
0.000527004
0.00183045
0.00218404
0.00912184
0.0049238
0.0203691
0.00823942
0.0343621
0.0114053
0.0486345
0.0139423
0.0610659
0.0157492
0.070941
0.0169721
0.0786767
0.017838
0.0851299
0.0911671
0.0185056
0.000475645
0.0013548
0.00202913
0.00756835
0.00471096
0.0176873
0.00813607
0.030937
0.0115889
0.0451816
0.014495
0.0581599
0.0166532
0.0687827
0.018156
0.0771739
0.019228
0.084058
0.0903477
0.0200474
0.000423553
0.000931251
0.00186035
0.00613155
0.00444373
0.0151039
0.00792236
0.0274584
0.0116303
0.0414737
0.0149123
0.0548779
0.0174549
0.0662401
0.0192769
0.075352
0.0205859
0.082749
0.0893592
0.0215744
0.000371742
0.000559509
0.00168254
0.00482075
0.00413123
0.0126553
0.00760126
0.0239883
0.0115169
0.037558
0.0151696
0.0512252
0.0181266
0.0632831
0.0203109
0.0731676
0.0218952
0.0811646
0.0881771
0.0230773
0.000321071
0.000238438
0.00150042
0.0036414
0.00378438
0.0103713
0.00718152
0.0205912
0.0112417
0.0334978
0.0152434
0.0472235
0.018637
0.0598896
0.0212291
0.0705755
0.0231347
0.0792591
0.0867685
0.0245433
0.000272254
-3.38159e-05
0.00131837
0.00259528
0.00341521
0.00827445
0.00667774
0.0173286
0.0108049
0.0293707
0.0151132
0.0429152
0.018953
0.0560498
0.021997
0.0675316
0.0242764