/*--------------------------------*- C++ -*----------------------------------*\
  =========                 |
  \\      /  F ield         | OpenFOAM: The Open Source CFD Toolbox
   \\    /   O peration     | Website:  https://openfoam.org
    \\  /    A nd           | Version:  7
     \\/     M anipulation  |
\*---------------------------------------------------------------------------*/
FoamFile
{
    version     2.0;
    format      ascii;
    class       volScalarField;
    location    "120";
    object      p;
}
// * * * * * * * * * * * * * * * * * * * * * * * * * * * * * * * * * * * * * //

dimensions      [0 2 -2 0 0 0 0];

internalField   nonuniform List<scalar> 
2125
(
-0.417022
-0.418738
-0.419357
-0.420358
-0.422308
-0.425478
-0.430028
-0.436173
-0.444016
-0.453903
-0.411314
-0.413684
-0.414483
-0.415485
-0.417206
-0.419842
-0.423473
-0.428208
-0.433959
-0.440969
-0.405737
-0.408716
-0.409677
-0.410661
-0.412131
-0.4142
-0.416857
-0.420099
-0.423613
-0.427505
-0.400442
-0.403973
-0.40508
-0.406038
-0.407248
-0.408736
-0.410397
-0.412104
-0.413307
-0.413938
-0.395577
-0.399593
-0.400831
-0.401757
-0.402709
-0.403623
-0.404292
-0.404464
-0.40335
-0.400654
-0.391281
-0.395704
-0.397056
-0.397951
-0.398655
-0.399016
-0.398719
-0.39739
-0.39401
-0.387979
-0.387673
-0.39242
-0.393869
-0.394733
-0.395207
-0.395048
-0.393831
-0.391059
-0.385515
-0.376156
-0.384855
-0.389833
-0.391361
-0.392197
-0.392463
-0.391829
-0.389751
-0.385615
-0.378049
-0.365348
-0.382903
-0.388012
-0.389597
-0.390409
-0.390495
-0.389441
-0.386578
-0.381169
-0.371764
-0.355644
-0.381862
-0.386997
-0.388617
-0.38941
-0.389348
-0.387937
-0.384378
-0.377799
-0.366783
-0.347075
-0.381747
-0.3868
-0.388429
-0.389206
-0.38903
-0.387334
-0.383181
-0.37554
-0.363197
-0.339599
-0.382541
-0.387399
-0.389007
-0.389768
-0.389511
-0.387604
-0.382971
-0.374375
-0.361044
-0.333033
-0.384191
-0.388743
-0.390295
-0.391032
-0.390717
-0.388664
-0.383666
-0.374225
-0.360341
-0.327118
-0.386621
-0.390757
-0.392205
-0.392898
-0.392532
-0.390374
-0.385106
-0.374919
-0.360988
-0.322329
-0.389726
-0.393344
-0.394636
-0.39524
-0.394804
-0.392544
-0.387061
-0.376197
-0.361876
-0.319668
-0.393392
-0.3964
-0.397465
-0.397923
-0.397361
-0.39496
-0.389272
-0.378161
-0.362537
-0.31848
-0.397502
-0.39982
-0.400578
-0.400801
-0.400034
-0.397413
-0.391407
-0.380157
-0.363017
-0.318248
-0.401947
-0.403509
-0.403874
-0.403758
-0.402679
-0.399732
-0.39328
-0.381823
-0.362821
-0.318337
-0.406642
-0.407396
-0.407275
-0.40671
-0.405194
-0.401791
-0.394769
-0.383042
-0.361639
-0.318763
-0.411526
-0.411432
-0.410739
-0.409605
-0.40753
-0.40355
-0.395844
-0.3837
-0.359891
-0.322926
-0.416577
-0.415605
-0.414257
-0.412447
-0.409697
-0.405025
-0.396541
-0.383662
-0.35854
-0.334789
-0.421806
-0.419931
-0.417855
-0.41528
-0.411755
-0.406277
-0.396924
-0.383046
-0.358043
-0.335716
-0.427255
-0.424452
-0.421591
-0.41818
-0.413794
-0.407396
-0.397059
-0.382027
-0.357182
-0.333978
-0.429232
-0.425546
-0.421244
-0.415919
-0.408478
-0.397015
-0.380713
-0.355725
-0.331331
-0.429809
-0.424574
-0.41823
-0.409611
-0.396854
-0.379138
-0.353724
-0.327989
-0.434468
-0.428266
-0.420807
-0.410856
-0.396614
-0.377323
-0.351194
-0.324315
-0.43239
-0.4237
-0.412239
-0.396293
-0.375264
-0.348214
-0.32035
-0.426926
-0.413747
-0.395858
-0.372943
-0.344838
-0.316138
-0.395245
-0.370336
-0.341107
-0.31167
-0.367411
-0.337039
-0.306927
-0.332627
-0.301875
-0.475445
-0.505693
-0.532182
-0.526315
-0.472996
-0.386878
-0.309369
-0.269225
-0.271546
-0.290431
-0.2781
-0.220938
-0.163957
-0.123495
-0.104926
-0.105166
-0.116292
-0.125683
-0.113433
-0.091282
-0.0841199
-0.0693917
-0.0480163
-0.0611194
-0.0722748
-0.0692762
-0.050473
-0.0459111
-0.0180185
-0.0182508
-0.457801
-0.481839
-0.503291
-0.495798
-0.447189
-0.370267
-0.302407
-0.273441
-0.285588
-0.3095
-0.294326
-0.231406
-0.169462
-0.124296
-0.103001
-0.100249
-0.108802
-0.117532
-0.107272
-0.0891897
-0.0834919
-0.0695314
-0.0488556
-0.0622262
-0.0734765
-0.069823
-0.0504128
-0.0456987
-0.0185067
-0.0182699
-0.439596
-0.456763
-0.472574
-0.462984
-0.419002
-0.351238
-0.293264
-0.27602
-0.29856
-0.327171
-0.309093
-0.240838
-0.174342
-0.124895
-0.101015
-0.0954417
-0.101512
-0.10947
-0.101028
-0.0870081
-0.0827708
-0.0697158
-0.0497665
-0.0633409
-0.0746658
-0.0703268
-0.0503118
-0.0455084
-0.0190598
-0.0182993
-0.421453
-0.431182
-0.440713
-0.428422
-0.388788
-0.329856
-0.281927
-0.276749
-0.310148
-0.343064
-0.322281
-0.249212
-0.178613
-0.125328
-0.0990076
-0.0908129
-0.0945041
-0.101586
-0.0947493
-0.0847422
-0.0819581
-0.0699492
-0.0507492
-0.0644571
-0.0758329
-0.0707849
-0.0501698
-0.045341
-0.0196747
-0.0183393
-0.403925
-0.405774
-0.408488
-0.392834
-0.356979
-0.30631
-0.268497
-0.275485
-0.320003
-0.356875
-0.333788
-0.256515
-0.1823
-0.125628
-0.0970174
-0.0864192
-0.0878485
-0.0939696
-0.088492
-0.0823989
-0.081056
-0.0702343
-0.0518019
-0.0655685
-0.0769682
-0.0711951
-0.0499864
-0.0451969
-0.0203478
-0.0183897
-0.38745
-0.381178
-0.37672
-0.357066
-0.324161
-0.281012
-0.253153
-0.272167
-0.327783
-0.368376
-0.343529
-0.262746
-0.185432
-0.125827
-0.0950774
-0.0823055
-0.0816042
-0.0867003
-0.0823158
-0.0799868
-0.080068
-0.0705725
-0.0529218
-0.0666691
-0.0780624
-0.0715552
-0.0497613
-0.0450754
-0.0210751
-0.0184506
-0.372412
-0.357998
-0.346217
-0.322021
-0.291106
-0.254538
-0.236198
-0.266833
-0.3332
-0.377412
-0.351446
-0.267918
-0.188038
-0.125953
-0.0932161
-0.0785036
-0.0758176
-0.0798497
-0.0762861
-0.0775168
-0.0789984
-0.0709637
-0.0541042
-0.0677529
-0.0791064
-0.0718628
-0.0494939
-0.0449753
-0.0218521
-0.0185213
-0.359094
-0.336734
-0.3177
-0.288589
-0.258685
-0.227594
-0.218059
-0.259609
-0.336057
-0.383894
-0.357514
-0.272049
-0.190154
-0.126031
-0.091457
-0.0750333
-0.0705216
-0.0734779
-0.0704716
-0.0750022
-0.0778521
-0.0714063
-0.0553431
-0.068814
-0.0800918
-0.0721159
-0.0491839
-0.0448948
-0.0226735
-0.0186012
-0.347682
-0.317761
-0.291745
-0.257578
-0.22775
-0.200983
-0.199267
-0.2507
-0.336264
-0.387805
-0.361737
-0.27517
-0.191812
-0.126082
-0.0898189
-0.0719023
-0.0657342
-0.0676319
-0.0649419
-0.0724591
-0.076635
-0.0718978
-0.0566309
-0.0698467
-0.0810105
-0.0723121
-0.0488313
-0.0448315
-0.023533
-0.0186892
-0.33827
-0.301322
-0.268751
-0.229647
-0.199027
-0.175536
-0.180402
-0.240362
-0.333851
-0.389204
-0.364142
-0.277317
-0.193046
-0.12612
-0.0883155
-0.0691084
-0.061458
-0.0623447
-0.0597643
-0.0699062
-0.0753533
-0.0724346
-0.0579589
-0.0708453
-0.081855
-0.072449
-0.048436
-0.0447823
-0.0244239
-0.0187839
-0.330877
-0.287551
-0.248956
-0.205342
-0.173222
-0.152165
-0.162041
-0.228885
-0.328955
-0.38818
-0.36478
-0.278532
-0.193891
-0.126158
-0.0869567
-0.0666414
-0.0576809
-0.0576337
-0.0549999
-0.0673651
-0.0740134
-0.0730123
-0.0593176
-0.0718042
-0.0826188
-0.0725241
-0.047998
-0.0447439
-0.0253386
-0.0188837
-0.325494
-0.276496
-0.23245
-0.184969
-0.151296
-0.131108
-0.144656
-0.216578
-0.321805
-0.38402
-0.363723
-0.278859
-0.194383
-0.126208
-0.085752
-0.064487
-0.0543782
-0.0535012
-0.0507086
-0.0648593
-0.0726215
-0.0736256
-0.0606965
-0.0727179
-0.0832957
-0.072535
-0.0475177
-0.0447128
-0.0262683
-0.0189862
-0.322075
-0.26809
-0.219055
-0.166603
-0.133262
-0.112982
-0.128629
-0.203756
-0.312728
-0.378535
-0.361085
-0.27835
-0.194564
-0.126284
-0.0847105
-0.0626274
-0.0515133
-0.0499329
-0.0469307
-0.062415
-0.0711834
-0.0742687
-0.0620845
-0.0735812
-0.0838804
-0.0724788
-0.0469955
-0.0446848
-0.0272044
-0.0190891
-0.319993
-0.262075
-0.208407
-0.153625
-0.116624
-0.0978761
-0.114239
-0.190726
-0.302062
-0.371214
-0.356986
-0.277057
-0.194462
-0.12638
-0.0838292
-0.0610353
-0.0490376
-0.0468948
-0.0425913
-0.0600569
-0.0697041
-0.0749351
-0.0634704
-0.0743886
-0.0843688
-0.0723526
-0.046432
-0.0446536
-0.0281385
-0.0191893
-0.318708
-0.258745
-0.200837
-0.140984
-0.104119
-0.0857597
-0.101665
-0.177777
-0.290159
-0.362276
-0.351547
-0.275013
-0.19406
-0.12644
-0.0830744
-0.0596669
-0.046892
-0.0443469
-0.0398647
-0.0578146
-0.0681874
-0.0756176
-0.0648429
-0.0751349
-0.0847594
-0.0721542
-0.0458282
-0.0446128
-0.0290606
-0.0192838
-0.318346
-0.257607
-0.196346
-0.134017
-0.0952071
-0.0765048
-0.0909885
-0.165166
-0.277368
-0.352019
-0.344921
-0.272245
-0.193324
-0.126417
-0.0824193
-0.0584927
-0.0450286
-0.0422289
-0.0376215
-0.0557007
-0.0666358
-0.0763081
-0.066191
-0.0758162
-0.0850517
-0.0718821
-0.0451845
-0.0445611
-0.0299605
-0.019369
-0.318514
-0.258099
-0.194671
-0.13049
-0.089433
-0.0699298
-0.0822156
-0.153118
-0.264023
-0.340761
-0.337309
-0.268929
-0.192456
-0.126523
-0.0819989
-0.0575875
-0.0434517
-0.0405239
-0.0358307
-0.053723
-0.0650486
-0.0769975
-0.0675038
-0.0764257
-0.0852324
-0.0715339
-0.0445008
-0.0445089
-0.0308325
-0.0194412
-0.318735
-0.259702
-0.195261
-0.129541
-0.0864955
-0.0658643
-0.0752553
-0.141774
-0.250394
-0.328477
-0.328726
-0.26546
-0.192018
-0.127253
-0.082123
-0.0571087
-0.0421864
-0.0392393
-0.0345755
-0.0519172
-0.0634239
-0.0776739
-0.0687595
-0.0769369
-0.0852578
-0.0711004
-0.0437785
-0.0444639
-0.0316785
-0.0194981
-0.319249
-0.262616
-0.198388
-0.131546
-0.0863812
-0.0643397
-0.0701105
-0.130981
-0.236129
-0.314502
-0.318669
-0.261542
-0.191674
-0.128152
-0.0824837
-0.0568022
-0.0410382
-0.0381379
-0.0338687
-0.0503656
-0.0617813
-0.0783301
-0.0699153
-0.0773198
-0.0851412
-0.0705776
-0.0430255
-0.0443788
-0.0324718
-0.0195376
-0.318973
-0.264663
-0.202178
-0.136076
-0.0904137
-0.0649093
-0.0677621
-0.122292
-0.22253
-0.300244
-0.307491
-0.25474
-0.188049
-0.126115
-0.0810455
-0.0554244
-0.0394247
-0.0364889
-0.0328017
-0.0486143
-0.0600214
-0.0789389
-0.0711652
-0.077834
-0.085239
-0.0700073
-0.0422468
-0.0441107
-0.0330838
-0.0195396
-0.303743
-0.257756
-0.197178
-0.131984
-0.0871741
-0.0643689
-0.0661036
-0.118109
-0.217241
-0.293196
-0.297284
-0.244041
-0.179541
-0.119913
-0.0767618
-0.0523164
-0.0370328
-0.0335577
-0.0291446
-0.0440241
-0.0558703
-0.0795738
-0.0744261
-0.0794814
-0.0862222
-0.069424
-0.04126
-0.0434775
-0.0335746
-0.0194684
-0.287778
-0.245954
-0.189492
-0.129601
-0.0888448
-0.0689352
-0.0709598
-0.118234
-0.208326
-0.275421
-0.277429
-0.227349
-0.167793
-0.112686
-0.0725816
-0.0493162
-0.0346194
-0.0311728
-0.0281476
-0.0425371
-0.0532526
-0.0803111
-0.0773701
-0.0798156
-0.0856731
-0.0680393
-0.0396627
-0.0425622
-0.0347715
-0.0196024
-0.272575
-0.234142
-0.182499
-0.128956
-0.0923017
-0.0753117
-0.0782598
-0.120343
-0.198761
-0.256074
-0.256159
-0.210494
-0.156332
-0.105658
-0.0683612
-0.0463139
-0.0322249
-0.0288849
-0.0274487
-0.041927
-0.0516816
-0.0809585
-0.0798058
-0.0795697
-0.0845704
-0.0663502
-0.0378912
-0.0415227
-0.0360232
-0.0197629
-0.25786
-0.223396
-0.176395
-0.129437
-0.096817
-0.0821985
-0.0854705
-0.121567
-0.187862
-0.235532
-0.234183
-0.193383
-0.144749
-0.0984954
-0.064047
-0.0432939
-0.0297867
-0.0266065
-0.0266886
-0.0410312
-0.0499952
-0.0813601
-0.0822769
-0.0791981
-0.0830559
-0.0642919
-0.0359119
-0.0403276
-0.0371928
-0.0198805
-0.242626
-0.212181
-0.170551
-0.12997
-0.101364
-0.088612
-0.0916326
-0.121264
-0.175465
-0.214223
-0.212077
-0.176433
-0.133318
-0.0913375
-0.0596577
-0.0402308
-0.0272609
-0.0242439
-0.0258806
-0.0398354
-0.0479397
-0.0814759
-0.0848183
-0.0785935
-0.0809798
-0.0618088
-0.0337043
-0.0389496
-0.0382592
-0.0199505
-0.226805
-0.20096
-0.164645
-0.129967
-0.105121
-0.093845
-0.0961981
-0.11947
-0.162329
-0.193092
-0.190668
-0.160059
-0.122184
-0.0842406
-0.055205
-0.0371027
-0.024605
-0.0217196
-0.0249245
-0.0383747
-0.0455813
-0.0811673
-0.0871736
-0.0775962
-0.0782488
-0.0588534
-0.0312445
-0.0373552
-0.0391741
-0.0199603
-0.210859
-0.189699
-0.15849
-0.129066
-0.107638
-0.0975459
-0.0989792
-0.116463
-0.149281
-0.17308
-0.17059
-0.14455
-0.11147
-0.0772734
-0.0507082
-0.0338868
-0.0217742
-0.0189429
-0.0236792
-0.0365541
-0.0429069
-0.0801352
-0.0890744
-0.0761138
-0.0747986
-0.0553775
-0.0285079
-0.0355023
-0.0398678
-0.0198791
-0.195123
-0.178379
-0.15197
-0.127137
-0.10876
-0.0996625
-0.100095
-0.112609
-0.136931
-0.154803
-0.152208
-0.130083
-0.101257
-0.0704825
-0.0461855
-0.0305586
-0.0187238
-0.0158113
-0.0219715
-0.0341716
-0.0397414
-0.0780267
-0.0902643
-0.0740544
-0.0705751
-0.0513367
-0.0254708
-0.0333386
-0.0402562
-0.0196653
-0.179795
-0.16703
-0.14505
-0.124208
-0.108522
-0.100302
-0.0997899
-0.108235
-0.125618
-0.138489
-0.135641
-0.11673
-0.0915915
-0.0639025
-0.0416571
-0.0270947
-0.0154123
-0.0122157
-0.0195673
-0.0309243
-0.0357946
-0.0745075
-0.0904387
-0.0713078
-0.065545
-0.0466957
-0.0221113
-0.0308
-0.0402419
-0.0192712
-0.165041
-0.155723
-0.137747
-0.120373
-0.107048
-0.0996295
-0.0983138
-0.103551
-0.115396
-0.124088
-0.120841
-0.104495
-0.0824971
-0.0575573
-0.0371451
-0.0234763
-0.0118056
-0.00805111
-0.016159
-0.0264054
-0.0307094
-0.0692607
-0.089242
-0.067759
-0.0597068
-0.0414344
-0.0184116
-0.0278108
-0.0397534
-0.0186438
-0.150956
-0.144528
-0.130106
-0.115753
-0.104493
-0.097821
-0.0958785
-0.0986423
-0.106158
-0.111414
-0.107671
-0.0933338
-0.0739806
-0.0514643
-0.0326723
-0.0196958
-0.00788596
-0.00323407
-0.011387
-0.0201225
-0.0240714
-0.0620131
-0.0863082
-0.0633085
-0.0530987
-0.0355559
-0.0143609
-0.0242849
-0.0385811
-0.0177244
-0.137574
-0.133517
-0.122193
-0.110471
-0.101019
-0.0950495
-0.0926532
-0.0935571
-0.0977476
-0.100236
-0.0959645
-0.0831835
-0.0660376
-0.0456378
-0.0282614
-0.0157627
-0.00366515
0.00226988
-0.00488717
-0.0115712
-0.0154336
-0.0526302
-0.0813257
-0.0578884
-0.0458059
-0.029095
-0.00995899
-0.0201319
-0.0366285
-0.0164528
-0.124909
-0.122761
-0.114093
-0.104653
-0.0967848
-0.0914814
-0.0887907
-0.0883262
-0.0900133
-0.0903261
-0.0855501
-0.0739705
-0.0586551
-0.0400903
-0.023937
-0.0117105
0.000802964
0.0084052
0.00361416
-0.000367553
-0.00443233
-0.0412279
-0.07412
-0.051469
-0.0379613
-0.0221268
-0.00522045
-0.015265
-0.033761
-0.0147729
-0.112972
-0.112326
-0.105897
-0.098424
-0.0919434
-0.0872715
-0.0844246
-0.0829856
-0.0828318
-0.0814828
-0.0762678
-0.0656198
-0.0518147
-0.0348338
-0.0197268
-0.0076054
0.00541681
0.0149812
0.0141099
0.013509
0.00897573
-0.0282606
-0.0647257
-0.0440814
-0.0297389
-0.014772
-0.000179019
-0.0096142
-0.0298551
-0.0126411
-0.101761
-0.102271
-0.0977011
-0.0919101
-0.0866405
-0.0825654
-0.0796756
-0.0775777
-0.0761097
-0.0735358
-0.0679731
-0.0580581
-0.0454953
-0.0298827
-0.015662
-0.00354852
0.0100245
0.0216409
0.026014
0.0292506
0.0240919
-0.0145245
-0.0533859
-0.0358284
-0.0213374
-0.00719696
0.00510907
-0.00314599
-0.0248172
-0.0100387
-0.091273
-0.0926469
-0.0895995
-0.0852321
-0.0810143
-0.0775008
-0.0746595
-0.0721499
-0.0697809
-0.0663456
-0.0605384
-0.0512159
-0.0396751
-0.0252543
-0.0117789
0.000343584
0.0144278
0.0279159
0.0379254
0.0447104
0.0390811
-0.000929604
-0.0404604
-0.026889
-0.0129618
0.000395608
0.010562
0.00410873
-0.018615
-0.00698749
-0.0815036
-0.0834992
-0.0816783
-0.0785043
-0.0751944
-0.072205
-0.0694837
-0.0667524
-0.063802
-0.059801
-0.0538534
-0.0450293
-0.0343341
-0.0209659
-0.00812265
0.00396651
0.0184072
0.0333529
0.0479406
0.0572082
0.0515305
0.0118404
-0.0241683
-0.017503
-0.00482883
0.00778271
0.0160656
0.0120224
-0.0113152
-0.00356832
-0.0724444
-0.0748644
-0.0740157
-0.0718315
-0.0693
-0.0667957
-0.0642461
-0.0614361
-0.0581478
-0.0538149
-0.0478247
-0.0394406
-0.0294552
-0.0170298
-0.00474678
0.00723586
0.021775
0.0375775
0.0546948
0.0650781
0.0599028
0.0231636
-0.0097218
-0.00814273
0.00283857
0.014742
0.0214514
0.0203553
-0.0031292
6.41539e-05
-0.064085
-0.0667724
-0.0666809
-0.0653075
-0.0634384
-0.0613772
-0.0590351
-0.056251
-0.0528063
-0.0483222
-0.0423761
-0.0343992
-0.0250241
-0.0134518
-0.0017034
0.0100853
0.0244009
0.0403622
0.0571565
0.0682875
0.064178
0.0325416
0.00350525
0.00076741
0.00984688
0.0210747
0.0265063
0.0287099
0.00554561
0.00367996
-0.0564137
-0.0592459
-0.0597329
-0.059016
-0.0577057
-0.0560439
-0.0539296
-0.0512451
-0.0477765
-0.0432759
-0.0374471
-0.0298613
-0.0210274
-0.010233
0.000970384
0.0124774
0.0262525
0.0417745
0.0572999
0.0681351
0.0652891
0.0395647
0.0146941
0.00889575
0.0160749
0.026626
0.0310229
0.0364709
0.0141134
0.00700681
-0.0494182
-0.0523024
-0.053222
-0.0530301
-0.0521868
-0.0508794
-0.0490004
-0.046464
-0.0430648
-0.038645
-0.0329921
-0.0257901
-0.0174513
-0.00737036
0.00326129
0.0143994
0.0273913
0.0420183
0.0559344
0.0659353
0.0643128
0.0441852
0.0233565
0.0160526
0.021482
0.0313066
0.034845
0.0428732
0.0218546
0.00979292
-0.0430866
-0.0459553
-0.0471901
-0.0474124
-0.0469553
-0.045959
-0.0443122
-0.0419516
-0.0386842
-0.0344116
-0.0289778
-0.022155
-0.0142803
-0.00485775
0.0051799
0.0158655
0.0279365
0.0414041
0.0537439
0.0626711
0.0621341
0.0468108
0.0297546
0.0221538
0.0260806
0.0350818
0.0379089
0.047244
0.0281585
0.0118646
-0.0374087
-0.0402153
-0.0416727
-0.042217
-0.0420766
-0.0413491
-0.0399232
-0.0377502
-0.0346521
-0.0305683
-0.0253816
-0.0189315
-0.0114969
-0.00268446
0.00675265
0.0169156
0.0280321
0.0402427
0.0511824
0.0590232
0.0593768
0.0479958
0.0343422
0.0271977
0.0299113
0.037959
0.0402109
0.0492341
0.0326585
0.0132455
-0.0323772
-0.0350925
-0.0367012
-0.0374925
-0.0376084
-0.0371093
-0.0358869
-0.0339011
-0.0309902
-0.0271164
-0.02219
-0.0161012
-0.00908268
-0.000835136
0.00801599
0.0176112
0.0278139
0.038796
0.0485351
0.0554248
0.0564498
0.048231
0.0375364
0.0312315
0.03303
0.0399958
0.0417986
0.0490191
0.0352903
0.0141513
-0.0279891
-0.0305987
-0.0323049
-0.033282
-0.0336027
-0.0332948
-0.0322542
-0.0304454
-0.027724
-0.024065
-0.0193978
-0.0136515
-0.00702052
0.000709632
0.00901024
0.0180248
0.027398
0.0372638
0.0459907
0.0521276
0.0536212
0.0478971
0.0396918
0.0343252
0.0355028
0.0413058
0.0427507
0.0473268
0.036348
0.0147819
-0.0242489
-0.0267497
-0.0285145
-0.0296288
-0.0301098
-0.029958
-0.0290745
-0.0274257
-0.0248837
-0.02143
-0.0170078
-0.0115755
-0.00529624
0.00197105
0.00977412
0.0182321
0.0268829
0.0357924
0.0436778
0.0492632
0.0510687
0.0472724
0.0410902
0.0366936
0.037407
0.0420458
0.0431722
0.0450185
0.0362622
0.0152001
-0.0211684
-0.0235676
-0.0253639
-0.0265767
-0.02718
-0.0271522
-0.026399
-0.0248875
-0.0225043
-0.0192347
-0.0150311
-0.00987377
-0.00390058
0.0029689
0.0103431
0.0183027
0.026351
0.0344866
0.0416947
0.0468974
0.0489095
0.0465543
0.0419627
0.0384628
0.038817
0.0423897
0.0432045
0.0427753
0.0354402
0.0154124
-0.0187728
-0.0210855
-0.0228962
-0.0241763
-0.0248689
-0.0249344
-0.024283
-0.0228811
-0.0206281
-0.0175105
-0.0134878
-0.00855494
-0.00283111
0.00371806
0.0107471
0.018296
0.0258726
0.033424
0.0401142
0.0450658
0.0472177
0.0458815
0.0424744
0.0396654
0.0398024
0.0424984
0.0430116
0.040953
0.0343013
0.0154513
-0.0171033
-0.0193518
-0.0211677
-0.0224911
-0.0232424
-0.0233713
-0.0227902
-0.0214661
-0.019307
-0.0162998
-0.012409
-0.00763834
-0.00209468
0.00422541
0.0110076
0.01826
0.0255067
0.0326625
0.0389978
0.0437976
0.0460429
0.0453576
0.042743
0.0404058
0.0404258
0.0424995
0.0427583
0.0396833
0.0332455
0.0153971
-0.0162144
-0.0184313
-0.0202485
-0.021593
-0.0223754
-0.0225383
-0.0219953
-0.0207129
-0.0186044
-0.0156572
-0.0118382
-0.00715535
-0.00170924
0.00448754
0.0111378
0.0182298
0.0253027
0.0322525
0.0384061
0.0431316
0.0454283
0.0450656
0.0428626
0.0407625
0.04073
0.0424759
0.0425884
0.0390226
0.0325955
0.0153428
-0.270172
-0.275436
-0.280265
-0.284669
-0.288664
-0.292277
-0.295546
-0.298624
-0.301572
-0.30549
-0.309541
-0.322339
-0.249308
-0.254413
-0.259122
-0.263468
-0.267496
-0.271324
-0.275035
-0.279072
-0.283216
-0.28928
-0.293831
-0.30625
-0.22963
-0.234734
-0.239553
-0.244146
-0.248553
-0.252917
-0.257152
-0.261654
-0.265512
-0.270502
-0.272744
-0.281909
-0.211358
-0.216447
-0.22131
-0.225987
-0.23044
-0.234748
-0.238641
-0.242501
-0.245399
-0.24935
-0.251566
-0.25938
-0.194042
-0.198956
-0.203636
-0.208096
-0.212265
-0.216231
-0.219787
-0.223417
-0.226487
-0.230576
-0.233528
-0.239932
-0.17755
-0.182199
-0.186626
-0.190855
-0.194851
-0.198737
-0.202385
-0.206149
-0.209486
-0.213281
-0.216197
-0.22129
-0.162008
-0.166415
-0.170646
-0.174735
-0.178659
-0.182494
-0.186111
-0.189679
-0.192841
-0.196169
-0.199109
-0.203581
-0.147471
-0.151649
-0.155685
-0.159592
-0.163343
-0.166966
-0.170383
-0.173707
-0.176801
-0.180011
-0.183112
-0.187202
-0.133867
-0.137795
-0.141593
-0.145267
-0.148805
-0.152231
-0.155522
-0.158748
-0.161844
-0.164956
-0.168017
-0.171763
-0.121144
-0.124814
-0.128376
-0.131835
-0.135193
-0.138463
-0.141634
-0.144727
-0.147705
-0.150647
-0.153597
-0.157104
-0.109288
-0.112714
-0.116051
-0.119304
-0.122472
-0.125559
-0.128556
-0.131475
-0.13431
-0.13712
-0.139972
-0.143279
-0.0982667
-0.101455
-0.104567
-0.107605
-0.11057
-0.113463
-0.116286
-0.119047
-0.12175
-0.12443
-0.127148
-0.13024
-0.0880352
-0.0909919
-0.0938832
-0.0967114
-0.0994784
-0.102187
-0.104839
-0.107439
-0.109989
-0.112514
-0.115076
-0.117951
-0.0785577
-0.0812938
-0.0839742
-0.0866008
-0.0891752
-0.0916993
-0.0941743
-0.0966028
-0.0989903
-0.101356
-0.103759
-0.10642
-0.0697958
-0.0723234
-0.0748023
-0.077234
-0.07962
-0.0819618
-0.0842615
-0.0865213
-0.0887474
-0.0909532
-0.0931926
-0.0956382
-0.0640455
-0.0663327
-0.0685781
-0.0707834
-0.0729497
-0.0750792
-0.0771734
-0.0792381
-0.0812823
-0.083355
-0.0855913
-0.0564261
-0.0585329
-0.0606022
-0.0626354
-0.0646335
-0.0665983
-0.0685309
-0.0704368
-0.0723221
-0.0742307
-0.0762663
-0.0494314
-0.0513695
-0.0532733
-0.055144
-0.0569823
-0.05879
-0.0605676
-0.0623206
-0.0640523
-0.0658015
-0.0676468
-0.0430319
-0.0448132
-0.0465626
-0.0482811
-0.0499693
-0.0516286
-0.0532594
-0.0548664
-0.0564514
-0.0580479
-0.0597148
-0.0371995
-0.0388361
-0.0404427
-0.0420199
-0.0435682
-0.0450889
-0.0465819
-0.0480515
-0.0494983
-0.0509508
-0.0524523
-0.0319093
-0.0334135
-0.034889
-0.0363363
-0.0377557
-0.0391481
-0.0405135
-0.0418553
-0.0431736
-0.0444921
-0.0458421
-0.0271406
-0.0285247
-0.029881
-0.0312099
-0.0325116
-0.0337867
-0.0350352
-0.0362599
-0.0374602
-0.0386559
-0.0398686
-0.0228761
-0.0241522
-0.0254013
-0.0266237
-0.0278192
-0.0289886
-0.0301315
-0.0312502
-0.0323439
-0.0334285
-0.0345185
-0.0191027
-0.0202832
-0.0214373
-0.0225652
-0.0236666
-0.0247419
-0.025791
-0.0268155
-0.0278145
-0.0288006
-0.0297827
-0.0158142
-0.0169112
-0.0179824
-0.0190277
-0.0200469
-0.0210403
-0.0220075
-0.0229499
-0.0238665
-0.0247669
-0.025656
-0.0130109
-0.0140368
-0.0150373
-0.0160124
-0.0169617
-0.0178854
-0.0187831
-0.0196558
-0.0205026
-0.0213305
-0.0221414
-0.0106959
-0.0116632
-0.0126058
-0.0135233
-0.0144155
-0.0152824
-0.0161236
-0.0169398
-0.0177301
-0.0184994
-0.0192477
-0.00889281
-0.00981422
-0.0107114
-0.011584
-0.0124318
-0.0132548
-0.0140524
-0.0148252
-0.0155724
-0.0162972
-0.0169982
-0.00762028
-0.0085106
-0.0093773
-0.0102201
-0.0110386
-0.0118327
-0.0126019
-0.0133465
-0.0140657
-0.0147614
-0.0154315
-0.00692494
-0.00779569
-0.00864388
-0.00946923
-0.0102715
-0.0110504
-0.0118057
-0.0125375
-0.013245
-0.0139298
-0.0145889
-0.0461439
-0.0175982
-0.0182416
)
;

boundaryField
{
    inlet
    {
        type            zeroGradient;
    }
    outlet
    {
        type            fixedValue;
        value           uniform 0;
    }
    cylinder
    {
        type            zeroGradient;
    }
    top
    {
        type            symmetryPlane;
    }
    bottom
    {
        type            symmetryPlane;
    }
    defaultFaces
    {
        type            empty;
    }
    procBoundary3to1
    {
        type            processor;
        value           nonuniform List<scalar> 
41
(
-0.422708
-0.423739
-0.424158
-0.425133
-0.427272
-0.430918
-0.436302
-0.443726
-0.453455
-0.465879
-0.491922
-0.527672
-0.558637
-0.554081
-0.496082
-0.401099
-0.314272
-0.263638
-0.25671
-0.270404
-0.260544
-0.20947
-0.157814
-0.122455
-0.106745
-0.110115
-0.123893
-0.133828
-0.119465
-0.093281
-0.0846543
-0.0692904
-0.0472474
-0.0600274
-0.0710705
-0.0686891
-0.0504926
-0.046395
-0.0172481
-0.018242
-0.0504926
)
;
    }
    procBoundary3to2
    {
        type            processor;
        value           nonuniform List<scalar> 
50
(
-0.432992
-0.432992
-0.434348
-0.434348
-0.439877
-0.439602
-0.439602
-0.436988
-0.436988
-0.430463
-0.41532
-0.41532
-0.394378
-0.394378
-0.36413
-0.36413
-0.327848
-0.296474
-0.296474
-0.264458
-0.243789
-0.22421
-0.206025
-0.188905
-0.17269
-0.157426
-0.14315
-0.129815
-0.117365
-0.105772
-0.095001
-0.0850116
-0.0757639
-0.067218
-0.0617152
-0.0617152
-0.0542808
-0.0474581
-0.0412181
-0.0355323
-0.0303761
-0.0257288
-0.021573
-0.0178959
-0.0146915
-0.01196
-0.00970409
-0.00794749
-0.00670673
-0.00603193
)
;
    }
}


// ************************************************************************* //
