/*--------------------------------*- C++ -*----------------------------------*\
  =========                 |
  \\      /  F ield         | OpenFOAM: The Open Source CFD Toolbox
   \\    /   O peration     | Website:  https://openfoam.org
    \\  /    A nd           | Version:  7
     \\/     M anipulation  |
\*---------------------------------------------------------------------------*/
FoamFile
{
    version     2.0;
    format      ascii;
    class       volScalarField;
    location    "350";
    object      p;
}
// * * * * * * * * * * * * * * * * * * * * * * * * * * * * * * * * * * * * * //

dimensions      [0 2 -2 0 0 0 0];

internalField   nonuniform List<scalar> 
2125
(
0.648751
0.626177
0.610586
0.646071
0.623613
0.608238
0.586251
0.55893
0.528452
0.496406
0.463994
0.432079
0.401278
0.638375
0.616336
0.601638
0.580362
0.553683
0.523766
0.492209
0.460212
0.428647
0.398251
0.6257
0.604381
0.590813
0.570738
0.54515
0.516191
0.485475
0.454195
0.423241
0.393552
0.608124
0.587816
0.575824
0.557429
0.533373
0.505765
0.476235
0.44597
0.415884
0.387197
0.585761
0.566745
0.55676
0.540511
0.518418
0.492544
0.464538
0.435579
0.40661
0.379201
0.558764
0.541307
0.533738
0.520084
0.500371
0.4766
0.450446
0.423077
0.395463
0.369591
0.527322
0.511671
0.506905
0.496272
0.479337
0.458025
0.434038
0.408531
0.382502
0.358406
0.491661
0.478042
0.476436
0.469224
0.455444
0.436926
0.415404
0.392021
0.367792
0.34569
0.452039
0.440653
0.442531
0.439109
0.428837
0.413428
0.394652
0.373639
0.351412
0.331495
0.408746
0.399767
0.405415
0.406119
0.399678
0.387671
0.371899
0.353486
0.333446
0.315881
0.362103
0.355676
0.365339
0.370466
0.368149
0.359807
0.347278
0.331675
0.313989
0.298914
0.312458
0.308696
0.322574
0.332379
0.334445
0.330005
0.32093
0.308327
0.293141
0.280664
0.260185
0.259168
0.277411
0.292106
0.298777
0.298444
0.29301
0.283575
0.271009
0.261204
0.20568
0.207453
0.230163
0.24991
0.261369
0.265315
0.26368
0.257557
0.247706
0.240607
0.149358
0.153931
0.181156
0.206067
0.222455
0.230816
0.233113
0.230424
0.223349
0.218939
0.0916507
0.098999
0.130732
0.160866
0.182279
0.195156
0.201486
0.20234
0.198063
0.196244
0.0330021
0.0430646
0.0792444
0.114606
0.141096
0.158548
0.168984
0.173487
0.172008
0.172545
-0.0261347
-0.0134554
0.0270561
0.0675912
0.0991657
0.121212
0.135783
0.144052
0.145387
0.14778
-0.0853015
-0.0701394
-0.0254625
0.0201337
0.0567517
0.0833711
0.102052
0.114216
0.118588
0.121975
-0.144039
-0.126566
-0.0779359
-0.0274541
0.0141209
0.0452628
0.0679651
0.0841027
0.0921147
0.0948131
-0.201888
-0.182318
-0.129986
-0.0748615
-0.0284649
0.00712411
0.0336969
0.0536024
0.0662964
0.0678545
-0.258395
-0.236983
-0.181236
-0.121783
-0.07075
-0.0308105
-0.000468928
0.0228333
0.0400728
0.0468502
-0.313122
-0.29013
-0.231326
-0.167924
-0.112482
-0.0683249
-0.0342578
-0.0077449
0.013465
0.0262358
-0.365788
-0.341265
-0.279954
-0.212999
-0.153415
-0.105227
-0.0675011
-0.0378585
-0.0133849
0.00395858
-0.415889
-0.390073
-0.326973
-0.25672
-0.193312
-0.141339
-0.100096
-0.0674094
-0.0401131
-0.0193093
-0.462998
-0.435687
-0.372501
-0.298779
-0.231966
-0.176489
-0.131929
-0.0963269
-0.0664298
-0.0426287
-0.506872
-0.478312
-0.415519
-0.33889
-0.269195
-0.210498
-0.162865
-0.124515
-0.0921909
-0.0656323
-0.547277
-0.517823
-0.454932
-0.377329
-0.304803
-0.24319
-0.19276
-0.151866
-0.117309
-0.0882331
-0.583963
-0.553949
-0.491388
-0.413261
-0.338502
-0.274412
-0.221485
-0.178272
-0.141697
-0.110342
-0.616729
-0.586427
-0.524831
-0.446425
-0.370187
-0.304028
-0.248919
-0.203633
-0.165268
-0.13184
-0.645433
-0.615051
-0.554987
-0.476873
-0.399716
-0.331911
-0.274959
-0.227857
-0.187952
-0.152618
-0.669987
-0.639698
-0.581656
-0.504522
-0.426979
-0.358025
-0.299516
-0.250854
-0.209695
-0.172597
-0.690361
-0.660315
-0.60473
-0.529249
-0.451893
-0.382259
-0.322605
-0.272541
-0.230428
-0.19176
-0.70658
-0.676906
-0.62416
-0.550968
-0.474391
-0.404533
-0.344137
-0.293009
-0.249958
-0.210216
-0.718729
-0.689536
-0.639944
-0.569636
-0.494431
-0.424809
-0.364034
-0.312135
-0.268122
-0.228276
-0.726949
-0.698329
-0.652128
-0.585244
-0.511996
-0.443079
-0.382283
-0.329929
-0.285293
-0.245445
-0.731438
-0.703465
-0.66081
-0.597819
-0.52709
-0.459354
-0.398903
-0.346409
-0.301396
-0.261245
-0.732446
-0.705183
-0.666136
-0.60742
-0.539744
-0.47366
-0.413916
-0.361559
-0.316349
-0.275821
-0.730265
-0.703773
-0.668299
-0.614145
-0.550008
-0.486033
-0.427351
-0.375391
-0.330182
-0.289444
-0.725229
-0.69957
-0.667538
-0.618128
-0.55796
-0.49653
-0.439256
-0.387957
-0.342966
-0.302256
-0.717696
-0.692935
-0.664142
-0.619541
-0.563698
-0.505222
-0.449697
-0.399324
-0.354763
-0.314301
-0.708047
-0.684251
-0.658435
-0.618589
-0.567341
-0.512192
-0.458747
-0.409561
-0.365625
-0.325604
-0.696667
-0.673905
-0.650774
-0.615512
-0.569029
-0.517534
-0.466486
-0.41874
-0.375605
-0.336196
-0.683943
-0.662282
-0.641534
-0.610576
-0.568919
-0.52135
-0.472993
-0.426933
-0.384771
-0.346124
-0.670244
-0.649747
-0.631095
-0.604071
-0.567186
-0.523746
-0.478353
-0.43422
-0.393194
-0.355445
-0.655919
-0.636645
-0.619824
-0.596305
-0.564018
-0.524836
-0.482646
-0.440679
-0.400954
-0.364225
-0.641288
-0.623287
-0.608064
-0.587594
-0.55962
-0.524734
-0.485954
-0.446383
-0.408129
-0.37254
-0.626631
-0.609946
-0.59612
-0.57825
-0.554207
-0.523559
-0.488351
-0.451403
-0.414795
-0.380468
-0.612187
-0.596854
-0.584253
-0.568571
-0.548001
-0.521434
-0.489906
-0.4558
-0.421025
-0.598155
-0.584196
-0.572675
-0.558821
-0.541229
-0.518486
-0.490682
-0.459624
-0.58469
-0.572114
-0.561551
-0.549218
-0.534115
-0.514846
-0.490735
-0.571911
-0.560708
-0.551005
-0.539929
-0.526866
-0.559907
-0.550043
-0.541118
-0.531071
-0.548743
-0.54016
-0.53194
-0.53847
-0.531079
-0.529131
-0.522818
-0.520766
0.123268
0.125861
0.128963
0.134879
0.140724
0.148957
0.15642
0.165682
0.172622
0.18027
0.182463
0.183799
0.173801
0.162313
0.126106
0.123891
0.126533
0.1297
0.135775
0.141795
0.150341
0.158211
0.168101
0.175908
0.184812
0.188716
0.192401
0.185445
0.177981
0.148804
0.124487
0.127171
0.130382
0.136583
0.142744
0.151551
0.159772
0.170212
0.178816
0.188867
0.194426
0.20033
0.196547
0.19267
0.169782
0.125071
0.127794
0.131048
0.13738
0.14368
0.152751
0.161318
0.172299
0.181669
0.192817
0.199953
0.207937
0.207226
0.206745
0.189604
0.125635
0.128404
0.131698
0.13816
0.144596
0.153925
0.162826
0.174328
0.184437
0.196628
0.20529
0.215233
0.217516
0.220288
0.208534
0.126177
0.129004
0.132326
0.138914
0.14548
0.155056
0.164277
0.176273
0.187091
0.200267
0.2104
0.222188
0.227362
0.233259
0.226596
0.126698
0.129503
0.132932
0.139641
0.14633
0.156143
0.16567
0.178133
0.189629
0.203729
0.215275
0.228791
0.236727
0.245616
0.24376
0.127199
0.130063
0.133514
0.14034
0.147146
0.157184
0.167002
0.179905
0.192049
0.207011
0.219904
0.235036
0.245581
0.257323
0.259995
0.127679
0.130591
0.134069
0.14101
0.147927
0.158178
0.168272
0.181585
0.194345
0.210107
0.224273
0.240913
0.253902
0.268346
0.275261
0.128138
0.131091
0.134599
0.14165
0.148671
0.159122
0.169477
0.183172
0.196512
0.213013
0.228373
0.246412
0.261669
0.27865
0.289515
0.128574
0.131567
0.135103
0.142258
0.149376
0.160014
0.170615
0.184661
0.198545
0.215723
0.232193
0.251523
0.268866
0.288204
0.302713
0.128987
0.132019
0.13558
0.142832
0.150042
0.160853
0.171683
0.186049
0.200438
0.218234
0.235723
0.256235
0.275477
0.296981
0.314814
0.129376
0.132445
0.13603
0.143373
0.150668
0.161637
0.172679
0.187335
0.202189
0.22054
0.238956
0.260539
0.281488
0.304954
0.325782
0.129741
0.132844
0.136452
0.143879
0.151252
0.162365
0.173601
0.188516
0.203791
0.222639
0.241882
0.264423
0.286886
0.312102
0.335585
0.130081
0.133218
0.136846
0.144348
0.151793
0.163035
0.174447
0.189591
0.205241
0.224525
0.244497
0.267879
0.291659
0.318407
0.344196
0.130397
0.133565
0.137212
0.14478
0.152291
0.163645
0.175215
0.190557
0.206536
0.226196
0.246792
0.270898
0.295799
0.323851
0.351592
0.130687
0.13387
0.137548
0.145175
0.152744
0.164197
0.175903
0.191412
0.207672
0.227647
0.248764
0.273473
0.299295
0.328422
0.357757
0.130952
0.13416
0.137855
0.145531
0.153153
0.164687
0.17651
0.192157
0.208647
0.228876
0.250407
0.275597
0.302141
0.332111
0.362681
0.131191
0.13442
0.13813
0.145849
0.153516
0.165118
0.177036
0.192792
0.209463
0.229885
0.251727
0.277272
0.304338
0.334917
0.366366
0.131405
0.134649
0.138375
0.146127
0.153832
0.165487
0.17748
0.193317
0.21012
0.230673
0.252728
0.278503
0.305875
0.336812
0.368781
0.0691764
0.0671416
0.0636472
0.0590809
0.0537711
0.0479766
0.0419283
0.0358134
0.0297996
0.0240108
0.0185469
0.0134627
0.00879593
0.00454673
0.000710715
0.0697009
0.06767
0.0641865
0.0596254
0.0543098
0.0484896
0.0423972
0.0362198
0.0301303
0.0242544
0.0186973
0.0135151
0.00874989
0.00440141
0.000466638
0.070676
0.0686538
0.0651921
0.0606437
0.0553201
0.0494564
0.0432859
0.0369957
0.0307672
0.0247296
0.0189973
0.0136302
0.00867847
0.00414213
2.17134e-05
0.0720334
0.0700258
0.0666005
0.0620774
0.0567511
0.050835
0.0445631
0.0381212
0.0317016
0.0254379
0.0194581
0.0138274
0.00860875
0.00380237
-0.000586319
0.07371
0.0717248
0.0683557
0.0638766
0.058561
0.0525929
0.0462076
0.0395864
0.0329345
0.0263902
0.0200989
0.014133
0.00857229
0.0034175
-0.00131896
0.0756479
0.0736953
0.0704075
0.065997
0.0607136
0.054704
0.048205
0.0413888
0.034475
0.027605
0.0209463
0.0145792
0.00860521
0.00302606
-0.00213623
0.0777942
0.0758869
0.0727104
0.0683979
0.0631764
0.0571456
0.0505455
0.0435308
0.0363369
0.0291061
0.0220316
0.0152026
0.00874761
0.00266954
-0.00299649
0.0801007
0.078254
0.0752222
0.0710407
0.0659183
0.0598971
0.0532211
0.046017
0.0385374
0.0309203
0.02339
0.0160438
0.00904313
0.00239237
-0.00385594
0.0825232
0.0807553
0.0779036
0.0738883
0.0689097
0.0629385
0.0562245
0.0488529
0.0410945
0.0330769
0.0250595
0.0171466
0.00953872
0.00224202
-0.00466818
0.085022
0.083354
0.080717
0.0769046
0.0721211
0.066249
0.0595474
0.0520426
0.0440261
0.0356055
0.0270799
0.0185573
0.0102843
0.00226908
-0.0053838
0.0875614
0.0860171
0.0836268
0.080055
0.0755228
0.0698063
0.063179
0.0555879
0.0473484
0.0385354
0.0294919
0.0203241
0.0113328
0.0025273
-0.00595013
0.09011
0.0887155
0.0865986
0.0833063
0.0790846
0.0735863
0.0671056
0.059487
0.0510751
0.0418943
0.0323359
0.0224965
0.0127392
0.00307352
-0.00631113
0.0926408
0.0914229
0.0895997
0.0866276
0.0827756
0.077563
0.0713096
0.0637337
0.0552159
0.0457069
0.0356514
0.0251247
0.014561
0.00396754
-0.00640724
0.0951311
0.0941161
0.0925995
0.0899901
0.0865636
0.0817082
0.0757688
0.0683171
0.0597758
0.0499939
0.0394757
0.0282585
0.0168569
0.00527197
-0.00617535
0.0975621
0.0967738
0.0955702
0.0933676
0.090416
0.0859927
0.0804566
0.073221
0.0647538
0.0547709
0.0438428
0.0319467
0.0196869
0.00705193
-0.00554881
0.0999191
0.0993771
0.0984874
0.0967359
0.0942999
0.0903865
0.0853411
0.0784244
0.0701421
0.0600469
0.0487823
0.0362357
0.023111
0.00937479
-0.00445746
0.10219
0.101909
0.101331
0.100073
0.0981829
0.0948589
0.0903862
0.0839019
0.0759246
0.0658242
0.0543187
0.0411685
0.0271888
0.0123097
-0.00282798
0.104368
0.104355
0.104084
0.103356
0.102035
0.0993792
0.0955522
0.089624
0.0820762
0.0720979
0.0604689
0.046783
0.0319789
0.0159272
-0.000584207
0.106445
0.106703
0.106735
0.106568
0.105828
0.103916
0.100797
0.0955577
0.0885625
0.0788562
0.0672409
0.053111
0.0375378
0.0202975
0.00235213
0.108418
0.108944
0.109273
0.109688
0.109538
0.108437
0.10608
0.101665
0.0953407
0.0860811
0.074631
0.0601779
0.0439187
0.0254893
0.00606044
0.110285
0.11107
0.111693
0.1127
0.113146
0.11291
0.111359
0.107906
0.102361
0.0937475
0.0826223
0.0680038
0.0511698
0.0315671
0.0106196
0.112044
0.113078
0.11399
0.115591
0.116633
0.117304
0.116597
0.114231
0.109569
0.101822
0.0911833
0.0766045
0.0593321
0.0385924
0.016107
0.113697
0.114965
0.116163
0.118349
0.119987
0.121588
0.12176
0.120592
0.116909
0.11026
0.100269
0.0859912
0.0684368
0.0466309
0.0226026
0.115244
0.116732
0.11821
0.120966
0.123197
0.125736
0.126816
0.126932
0.124326
0.119005
0.109824
0.096165
0.078498
0.0557626
0.0302059
0.116689
0.11838
0.120132
0.123436
0.126254
0.129722
0.131738
0.133197
0.131764
0.127984
0.119784
0.107111
0.0894974
0.0660759
0.039046
0.118032
0.119912
0.121931
0.125757
0.129153
0.13353
0.136502
0.139335
0.139175
0.137118
0.130091
0.118798
0.101373
0.0776177
0.0491937
0.119279
0.121333
0.123609
0.127929
0.131891
0.137149
0.141091
0.145306
0.146513
0.146319
0.140692
0.131179
0.114053
0.0903352
0.0603936
0.120434
0.122646
0.125169
0.129954
0.134466
0.14057
0.145488
0.151068
0.153733
0.155482
0.151519
0.144156
0.127573
0.104223
0.0718181
0.121499
0.123855
0.126608
0.131824
0.136862
0.143762
0.149643
0.156545
0.160726
0.164452
0.162438
0.1576
0.142255
0.120122
0.0831523
0.12248
0.124966
0.127922
0.133528
0.139035
0.146675
0.153454
0.161636
0.167333
0.173122
0.17333
0.17161
0.158765
0.140874
0.099025
-0.00174276
-0.00301865
-0.00428245
-0.00553081
-0.00676639
-0.00799077
-0.00920321
-0.0104019
-0.0115853
-0.0127518
-0.0139004
-0.01503
-0.0161395
-0.0172277
-0.0182937
-0.0193363
-0.0203545
-0.0213475
-0.0223143
-0.023254
-0.00204994
-0.00334299
-0.00461464
-0.0058715
-0.00711957
-0.00835961
-0.00958941
-0.0108065
-0.0120091
-0.0131962
-0.0143664
-0.0155188
-0.0166519
-0.0177647
-0.0188558
-0.0199241
-0.0209685
-0.0219879
-0.0229815
-0.0239482
-0.00261867
-0.00395699
-0.00525762
-0.00654509
-0.00783041
-0.009112
-0.0103847
-0.0116447
-0.0128904
-0.0141209
-0.015335
-0.0165315
-0.017709
-0.018866
-0.0200013
-0.0211136
-0.0222016
-0.0232643
-0.0243003
-0.0253086
-0.00340994
-0.0048206
-0.00616859
-0.00750435
-0.00884628
-0.0101897
-0.0115251
-0.0128473
-0.0141546
-0.0154466
-0.0167224
-0.0179808
-0.0192201
-0.0204387
-0.0216352
-0.0228084
-0.023957
-0.0250797
-0.0261754
-0.0272427
-0.00438291
-0.00589246
-0.00730653
-0.00870877
-0.0101275
-0.0115538
-0.0129729
-0.0143775
-0.0157662
-0.0171392
-0.0184962
-0.0198355
-0.0211554
-0.0224542
-0.0237304
-0.0249827
-0.0262096
-0.02741
-0.0285825
-0.0297255
-0.00549703
-0.00713278
-0.00863299
-0.0101211
-0.0116375
-0.0131685
-0.0146928
-0.0162004
-0.0176906
-0.0191645
-0.0206221
-0.0220616
-0.0234811
-0.0248788
-0.0262531
-0.0276027
-0.0289262
-0.0302222
-0.0314892
-0.0327246
-0.00671116
-0.00850205
-0.0101107
-0.0117058
-0.0133424
-0.0150011
-0.0166531
-0.0182856
-0.0198985
-0.0214942
-0.0230729
-0.0246329
-0.0261719
-0.027688
-0.0291796
-0.0306453
-0.0320837
-0.0334936
-0.0348736
-0.0362223
-0.00798271
-0.00996007
-0.0117025
-0.0134286
-0.0152098
-0.017021
-0.0188247
-0.0206055
-0.022364
-0.024104
-0.025826
-0.0275283
-0.0292081
-0.0308636
-0.0324931
-0.0340951
-0.0356685
-0.0372119
-0.0387244
-0.0402064
-0.00926682
-0.0114651
-0.0133711
-0.0152552
-0.0172081
-0.0191985
-0.0211803
-0.0231348
-0.0250639
-0.0269725
-0.0288619
-0.0307299
-0.0325738
-0.0343914
-0.0361812
-0.0379418
-0.0396721
-0.0413707
-0.0430365
-0.0446698
-0.0105158
-0.0129731
-0.0150776
-0.0171512
-0.0193057
-0.0215046
-0.0236929
-0.025849
-0.0279758
-0.0300798
-0.0321626
-0.034222
-0.0362548
-0.0382589
-0.0402328
-0.0421754
-0.0440853
-0.0459615
-0.0478027
-0.0496097
-0.0116787
-0.0144378
-0.016782
-0.0190816
-0.0214709
-0.0239102
-0.0263361
-0.0287245
-0.031079
-0.0334077
-0.0357125
-0.0379909
-0.0402396
-0.0424567
-0.0446406
-0.0467903
-0.0489047
-0.0509827
-0.0530232
-0.0550275
-0.0127012
-0.0158096
-0.0184426
-0.0210102
-0.0236714
-0.0263858
-0.0290837
-0.0317381
-0.0343537
-0.0369393
-0.0394972
-0.0420248
-0.0445189
-0.0469775
-0.0493994
-0.0517836
-0.0541291
-0.0564348
-0.0586998
-0.0609268
-0.013525
-0.0170362
-0.0200158
-0.0229003
-0.0258741
-0.0289016
-0.031909
-0.0348671
-0.0377805
-0.0406586
-0.0435039
-0.0463137
-0.0490852
-0.0518164
-0.0545065
-0.0571546
-0.0597598
-0.0623211
-0.0648373
-0.0673137
-0.014088
-0.0180616
-0.0214558
-0.0247133
-0.0280451
-0.0314269
-0.0347853
-0.038089
-0.0413412
-0.044551
-0.0477209
-0.0508489
-0.0539326
-0.0569703
-0.0599613
-0.062905
-0.0658006
-0.0686471
-0.0714426
-0.0741969
-0.0143239
-0.0188266
-0.0227149
-0.0264095
-0.0301489
-0.0339302
-0.0376857
-0.0413817
-0.0450181
-0.0486026
-0.0521381
-0.0556236
-0.0590573
-0.0624383
-0.0657658
-0.0690395
-0.0722583
-0.0754209
-0.0785235
-0.0815855
-0.0141622
-0.0192679
-0.0237425
-0.0279471
-0.0321485
-0.0363787
-0.0405826
-0.0447233
-0.0487945
-0.052801
-0.0567465
-0.060632
-0.0644568
-0.0682205
-0.071923
-0.0755646
-0.0791447
-0.0826614
-0.0860987
-0.0894979
-0.0135282
-0.0193187
-0.0244854
-0.0292821
-0.0340049
-0.0387383
-0.0434483
-0.0480927
-0.0526548
-0.0571352
-0.0615394
-0.065871
-0.0701307
-0.0743181
-0.078433
-0.0824755
-0.086446
-0.0903446
-0.0941827
-0.0979645
-0.0123435
-0.0189085
-0.0248873
-0.0303672
-0.0356762
-0.0409732
-0.0462545
-0.0514691
-0.0565844
-0.0615962
-0.0665131
-0.0713424
-0.0760865
-0.0807444
-0.0853154
-0.0897995
-0.0941986
-0.0985184
-0.102796
-0.106999
-0.0105262
-0.0179631
-0.0248885
-0.0311516
-0.0371167
-0.0430447
-0.0489717
-0.0548312
-0.0605689
-0.0661752
-0.0716645
-0.0770495
-0.0823336
-0.0875155
-0.0925945
-0.0975718
-0.10245
-0.107231
-0.111956
-0.116605
-0.0079924
-0.0164062
-0.0244256
-0.031579
-0.0382757
-0.0449111
-0.0515691
-0.0581574
-0.0645931
-0.070863
-0.0769908
-0.0829953
-0.0888802
-0.0946425
-0.100281
-0.105797
-0.111193
-0.116467
-0.121681
-0.126817
-0.00465881
-0.0141615
-0.0234326
-0.0315873
-0.0390962
-0.0465274
-0.0540148
-0.0614249
-0.0686404
-0.0756494
-0.082489
-0.0891838
-0.0957363
-0.102142
-0.108401
-0.11451
-0.120466
-0.126261
-0.132006
-0.137674
-0.000448756
-0.0111592
-0.0218427
-0.0311066
-0.0395141
-0.0478455
-0.0562757
-0.0646093
-0.0726926
-0.0805241
-0.0881575
-0.0956199
-0.10291
-0.110023
-0.11697
-0.12376
-0.130395
-0.136721
-0.143027
-0.149252
0.00470021
-0.00734741
-0.0195931
-0.0300595
-0.039459
-0.0488161
-0.058318
-0.0676829
-0.0767288
-0.0854777
-0.0939997
-0.102317
-0.110418
-0.11829
-0.125928
-0.133333
-0.140523
-0.147765
-0.154789
-0.161599
0.0108324
-0.00269929
-0.0166262
-0.0283626
-0.0388596
-0.0493932
-0.0601061
-0.0706122
-0.0807238
-0.0905002
-0.100022
-0.109298
-0.11831
-0.127049
-0.135518
-0.14373
-0.151695
-0.159581
-0.16727
-0.174722
0.0179807
0.00280111
-0.0128747
-0.0259224
-0.0376486
-0.0495359
-0.061601
-0.0733566
-0.0846479
-0.0955788
-0.106224
-0.116575
-0.126607
-0.136316
-0.145702
-0.154754
-0.163468
-0.1721
-0.180532
-0.188679
0.026149
0.00918365
-0.00822821
-0.0226208
-0.0357574
-0.0492005
-0.0627513
-0.0758645
-0.0884665
-0.100695
-0.112596
-0.124138
-0.135299
-0.146089
-0.156525
-0.166609
-0.176115
-0.185556
-0.194751
-0.2036
0.035204
0.016464
-0.00253087
-0.0183086
-0.0331072
-0.0483277
-0.0634883
-0.0780806
-0.0921503
-0.105836
-0.119135
-0.131996
-0.144392
-0.156301
-0.167705
-0.178613
-0.189545
-0.20003
-0.210017
-0.219578
0.0446144
0.0244142
0.00429509
-0.0128482
-0.0295927
-0.0467896
-0.0636767
-0.0799099
-0.0956413
-0.110961
-0.125823
-0.140177
-0.154
-0.167261
-0.179915
-0.191984
-0.20396
-0.215444
-0.226319
-0.236678
0.0533241
0.0321657
0.0118767
-0.00647561
-0.0253299
-0.0445472
-0.0632492
-0.0813241
-0.0989293
-0.116066
-0.132668
-0.148708
-0.164195
-0.179116
-0.193399
-0.206548
-0.219532
-0.231976
-0.243751
-0.254948
0.0608244
0.0393218
0.0198842
0.000375713
-0.0203422
-0.0412633
-0.0617312
-0.081748
-0.101342
-0.120424
-0.138904
-0.156734
-0.173876
-0.190292
-0.205972
-0.221645
-0.236251
-0.249759
-0.262452
-0.274496
-0.0241662
-0.0250502
-0.0259052
-0.0267304
-0.0275252
-0.0282892
-0.0290219
-0.0297229
-0.0303918
-0.024887
-0.025797
-0.0266775
-0.0275278
-0.0283472
-0.0291351
-0.0298909
-0.0306142
-0.0313045
-0.0262887
-0.0272396
-0.0281605
-0.0290503
-0.0299084
-0.0307342
-0.0315272
-0.0322869
-0.0330128
-0.0282813
-0.0292901
-0.030268
-0.0312142
-0.032128
-0.0330087
-0.0338559
-0.034669
-0.0354476
-0.0308392
-0.0319227
-0.0329747
-0.033994
-0.03498
-0.035932
-0.0368497
-0.0377326
-0.0385802
-0.0339305
-0.0351057
-0.0362485
-0.0373578
-0.0384329
-0.0394732
-0.0404783
-0.0414478
-0.0423813
-0.0375397
-0.0388248
-0.0400762
-0.0412931
-0.0424749
-0.0436211
-0.0447313
-0.0458051
-0.0468423
-0.0416548
-0.0430685
-0.0444471
-0.0457902
-0.0470975
-0.0483684
-0.0496025
-0.0507995
-0.0519593
-0.0462684
-0.0478312
-0.0493577
-0.0508476
-0.0523006
-0.0537162
-0.0550943
-0.0564346
-0.0577373
-0.0513806
-0.0531144
-0.0548104
-0.0564685
-0.0580885
-0.0596703
-0.0612138
-0.062719
-0.0641862
-0.0569943
-0.0589222
-0.0608106
-0.0626598
-0.0644697
-0.0662405
-0.0679723
-0.0696655
-0.0713205
-0.0631145
-0.0652613
-0.0673668
-0.0694314
-0.0714555
-0.0734396
-0.0753843
-0.0772901
-0.069749
-0.0721411
-0.0744898
-0.0767957
-0.0790598
-0.0812832
-0.0834665
-0.0856109
-0.0769085
-0.0795743
-0.0821936
-0.0847679
-0.0872991
-0.0897887
-0.0922379
-0.0946483
-0.0846046
-0.0875745
-0.0904941
-0.0933656
-0.096192
-0.0989759
-0.101719
-0.104424
-0.0928544
-0.0961584
-0.0994078
-0.102606
-0.105757
-0.108864
-0.111931
-0.11496
-0.101688
-0.105353
-0.10896
-0.112514
-0.116019
-0.119479
-0.122897
-0.126279
-0.111125
-0.11518
-0.119174
-0.123112
-0.127
-0.130841
-0.134641
-0.138404
-0.121168
-0.125652
-0.130066
-0.134421
-0.138721
-0.142972
-0.147181
-0.151353
-0.131858
-0.136805
-0.141672
-0.146471
-0.151211
-0.155899
-0.160542
-0.165149
-0.143231
-0.148674
-0.154022
-0.159293
-0.164498
-0.169646
-0.174747
-0.179811
-0.155343
-0.161305
-0.167159
-0.172925
-0.178615
-0.184242
-0.189817
-0.195353
-0.16824
-0.174742
-0.181124
-0.187403
-0.193594
-0.199712
-0.20577
-0.211786
-0.181963
-0.189033
-0.195963
-0.20277
-0.209472
-0.216085
-0.222627
-0.229121
-0.19656
-0.204226
-0.211719
-0.219064
-0.226278
-0.233384
-0.240404
-0.247366
-0.212134
-0.220408
-0.228467
-0.23634
-0.24405
-0.251625
-0.259095
-0.266493
-0.228783
-0.237678
-0.246299
-0.254679
-0.262849
-0.270844
-0.278702
-0.286464
-0.246607
-0.256151
-0.265341
-0.274215
-0.282811
-0.291173
-0.299345
-0.307377
-0.265644
-0.275871
-0.285655
-0.295032
-0.304046
-0.312749
-0.321191
-0.329428
-0.285938
-0.296803
-0.307122
-0.316932
-0.326279
-0.335219
-0.343812
-0.352122
)
;

boundaryField
{
    inlet
    {
        type            zeroGradient;
    }
    outlet
    {
        type            fixedValue;
        value           nonuniform 0();
    }
    cylinder
    {
        type            zeroGradient;
    }
    top
    {
        type            symmetryPlane;
    }
    bottom
    {
        type            symmetryPlane;
    }
    defaultFaces
    {
        type            empty;
    }
    procBoundary0to1
    {
        type            processor;
        value           nonuniform List<scalar> 
50
(
-0.388088
-0.388088
-0.426886
-0.426886
-0.462915
-0.510657
-0.462915
-0.490123
-0.510657
-0.51966
-0.51966
-0.522726
-0.522726
-0.523497
-0.523497
-0.515802
-0.515388
-0.515388
-0.513409
-0.0310282
-0.0319615
-0.0337046
-0.0361914
-0.0393922
-0.0432786
-0.0478427
-0.0530818
-0.0590022
-0.0656156
-0.0729378
-0.0791577
-0.0791577
-0.0877175
-0.0970216
-0.107093
-0.117953
-0.129627
-0.142135
-0.155496
-0.169729
-0.184847
-0.200864
-0.217777
-0.235584
-0.254289
-0.273847
-0.294169
-0.31532
-0.337523
-0.360218
)
;
    }
    procBoundary0to2
    {
        type            processor;
        value           nonuniform List<scalar> 
26
(
0.646414
0.624029
0.608681
0.588379
0.588379
0.560869
0.530231
0.49805
0.465525
0.43352
0.402602
0.131592
0.134848
0.138589
0.146363
0.154099
0.165789
0.177833
0.193714
0.210594
0.231202
0.253313
0.279214
0.306693
0.337719
0.369818
)
;
    }
}


// ************************************************************************* //
