/*--------------------------------*- C++ -*----------------------------------*\
  =========                 |
  \\      /  F ield         | OpenFOAM: The Open Source CFD Toolbox
   \\    /   O peration     | Website:  https://openfoam.org
    \\  /    A nd           | Version:  7
     \\/     M anipulation  |
\*---------------------------------------------------------------------------*/
FoamFile
{
    version     2.0;
    format      ascii;
    class       volVectorField;
    location    "15";
    object      U;
}
// * * * * * * * * * * * * * * * * * * * * * * * * * * * * * * * * * * * * * //

dimensions      [0 1 -1 0 0 0 0];

internalField   nonuniform List<vector> 
2125
(
(-0.0012823 0.00110779 7.99162e-22)
(-0.00710281 0.00254461 -2.29338e-21)
(-0.0179964 0.00340349 -2.67431e-21)
(-0.0309298 0.00383858 2.6582e-21)
(-0.0448141 0.00396713 -2.44527e-21)
(-0.058814 0.00390237 -1.3039e-21)
(-0.0724126 0.00375183 2.22816e-21)
(-0.0855004 0.00361724 2.76244e-21)
(-0.0982052 0.00358739 -4.54007e-22)
(-0.110938 0.00374164 1.33637e-21)
(-0.00143818 0.00330309 -8.8281e-22)
(-0.00741285 0.00759123 2.72657e-21)
(-0.0183123 0.0101563 -6.39442e-21)
(-0.0311511 0.011455 5.79804e-21)
(-0.0448551 0.0118358 2.58322e-22)
(-0.0585949 0.0116355 4.25552e-21)
(-0.0718503 0.0111751 -7.3947e-21)
(-0.0845056 0.0107596 -1.08242e-20)
(-0.096676 0.0106588 -2.11726e-21)
(-0.10872 0.0111146 4.8048e-21)
(-0.00174574 0.0054384 8.10637e-22)
(-0.00802635 0.0125114 5.97755e-21)
(-0.0189395 0.016748 1.40808e-20)
(-0.0315929 0.0188906 -1.27381e-20)
(-0.0449409 0.0195087 -2.8729e-21)
(-0.0581663 0.0191552 -2.6157e-21)
(-0.0707423 0.0183585 1.3358e-20)
(-0.0825401 0.0176269 8.31272e-21)
(-0.0936529 0.0174206 2.0321e-21)
(-0.104322 0.0181563 -1.48881e-20)
(-0.00219686 0.00747705 2.87397e-21)
(-0.00893037 0.0172265 -3.51083e-21)
(-0.0198685 0.0230769 -2.62199e-20)
(-0.0322522 0.0260302 2.32019e-21)
(-0.0450775 0.0268612 7.19202e-21)
(-0.0575451 0.0263252 -5.58978e-21)
(-0.0691186 0.0251486 -2.94061e-22)
(-0.0796484 0.0240416 -2.26974e-21)
(-0.0892014 0.02367 5.15268e-21)
(-0.0978117 0.0246472 1.48461e-20)
(-0.00278011 0.00938696 1.99877e-21)
(-0.0101061 0.0216655 -1.12615e-20)
(-0.0210848 0.0290496 2.7076e-20)
(-0.0331229 0.032767 -1.23043e-20)
(-0.04527 0.0337769 -5.17655e-23)
(-0.0567509 0.0330189 1.69995e-20)
(-0.0670161 0.0314026 -7.80983e-21)
(-0.0758862 0.029836 8.92376e-22)
(-0.0834081 0.0292105 -3.20606e-21)
(-0.0892727 0.030369 1.1599e-21)
(-0.00348151 0.0111419 2.38574e-20)
(-0.0115298 0.0257676 2.89439e-20)
(-0.0225681 0.0345832 -7.40603e-21)
(-0.0341933 0.0390045 1.4121e-20)
(-0.0455183 0.0401508 4.43335e-21)
(-0.0557986 0.0391225 -6.33567e-21)
(-0.0644688 0.0369925 -2.44026e-21)
(-0.0713066 0.034858 -1.06202e-20)
(-0.0763643 0.0338562 2.29996e-21)
(-0.0787798 0.0351047 -1.37667e-20)
(-0.0042854 0.0127224 -2.29909e-20)
(-0.0131728 0.0294834 -1.50796e-20)
(-0.0242912 0.0396074 1.22825e-20)
(-0.0354425 0.0446592 -2.12523e-20)
(-0.0458109 0.0458916 2.41872e-21)
(-0.0546893 0.0445392 2.49042e-20)
(-0.0614934 0.041812 -4.4859e-21)
(-0.0659405 0.0389797 2.93998e-20)
(-0.0681435 0.0374391 -6.02105e-22)
(-0.0663684 0.0386432 -1.19905e-20)
(-0.00517537 0.0141156 1.92432e-20)
(-0.0150032 0.0327755 -3.4777e-20)
(-0.0262196 0.0440651 -1.38274e-20)
(-0.0368375 0.0496612 1.6221e-20)
(-0.0461176 0.0509238 5.37694e-22)
(-0.0533972 0.0491926 -4.67285e-20)
(-0.0580711 0.0457815 -2.77089e-21)
(-0.0597688 0.0421074 -2.31738e-20)
(-0.0587669 0.0398219 -2.98905e-20)
(-0.0519999 0.0408136 1.76843e-20)
(-0.006135 0.0153154 -1.07532e-20)
(-0.0169856 0.0356184 5.18534e-21)
(-0.0283096 0.0479122 1.27633e-20)
(-0.0383281 0.0539544 -1.14009e-20)
(-0.0463815 0.0551883 -4.00504e-20)
(-0.0518562 0.0530279 1.38002e-20)
(-0.054125 0.0488543 2.0053e-21)
(-0.0526874 0.0441925 3.48247e-20)
(-0.0481377 0.0409061 4.58344e-20)
(-0.0355362 0.0415986 -2.0718e-20)
(-0.00714856 0.016321 1.69063e-20)
(-0.0190816 0.0379969 1.5387e-20)
(-0.0305071 0.0511167 -2.21076e-21)
(-0.0398437 0.0574957 5.68037e-20)
(-0.0465101 0.0586411 2.41441e-20)
(-0.0499442 0.0560133 1.81232e-20)
(-0.0494963 0.0510192 2.57194e-20)
(-0.0444725 0.04524 -1.13175e-20)
(-0.035907 0.0406123 -1.53098e-20)
(-0.016673 0.041181 -2.53154e-20)
(-0.00820136 0.0171366 -1.58986e-21)
(-0.0212501 0.0399047 -2.42851e-20)
(-0.032746 0.0536569 -1.74879e-20)
(-0.041288 0.0602531 -2.80454e-20)
(-0.0463666 0.0612521 -2.22118e-20)
(-0.047468 0.0581376 2.24062e-20)
(-0.0439199 0.0523035 -2.15224e-20)
(-0.0347826 0.0453315 -1.4901e-20)
(-0.0213919 0.0389434 1.95029e-21)
(0.00542329 0.0394596 6.63615e-21)
(-0.00927998 0.0177693 -4.65061e-20)
(-0.023447 0.0413418 2.22179e-20)
(-0.0349469 0.0555188 1.62027e-20)
(-0.0425356 0.0622028 1.08355e-20)
(-0.0457631 0.0630008 -1.97472e-20)
(-0.0441494 0.0594059 -1.67087e-20)
(-0.0369886 0.0527698 2.41986e-20)
(-0.0231223 0.0446263 -1.9749e-20)
(-0.00388909 0.036179 -1.12098e-21)
(0.0322446 0.0363792 -2.07912e-20)
(-0.0103722 0.0182282 3.89111e-20)
(-0.0256243 0.0423126 1.58166e-20)
(-0.0370148 0.0566942 9.34833e-22)
(-0.0434287 0.0633271 -1.97493e-20)
(-0.0444542 0.0638724 1.41148e-21)
(-0.0396179 0.0598317 2.19762e-20)
(-0.0281363 0.052502 -6.25279e-21)
(-0.0086727 0.0433073 -7.64184e-21)
(0.0175139 0.0327458 -1.73535e-20)
(0.0652995 0.0325221 3.17088e-20)
(-0.0114667 0.0185234 2.62769e-20)
(-0.0277294 0.0428239 -4.26665e-20)
(-0.0388377 0.0571786 -3.29068e-20)
(-0.043774 0.0636119 1.42302e-20)
(-0.0421333 0.0638549 2.90628e-20)
(-0.033408 0.0594288 2.46847e-20)
(-0.0166757 0.0515867 -2.62921e-20)
(0.00960894 0.0415912 5.10489e-20)
(0.0442553 0.0289987 -1.53786e-20)
(0.106302 0.0289746 -3.72467e-20)
(-0.0125524 0.0186646 -3.95018e-20)
(-0.029703 0.0428831 2.37903e-20)
(-0.0402838 0.0569704 -1.14001e-20)
(-0.0433398 0.063048 1.19498e-21)
(-0.0384307 0.06294 1.22255e-20)
(-0.0249554 0.0582112 -3.89512e-20)
(-0.0017766 0.0501135 3.46405e-20)
(0.0328738 0.039748 -3.37475e-20)
(0.0781251 0.0253423 5.43038e-20)
(0.157021 0.0270738 1.98331e-20)
(-0.0136176 0.0186601 8.35724e-21)
(-0.0314771 0.042497 4.62029e-20)
(-0.0411978 0.0560713 -1.16186e-20)
(-0.0418526 0.0616344 1.17789e-20)
(-0.0329108 0.0611278 1.37331e-20)
(-0.0136035 0.0561972 -4.12992e-21)
(0.0175204 0.0481652 2.97244e-20)
(0.0623635 0.0380026 1.4962e-21)
(0.121124 0.0222769 -3.48722e-20)
(0.218673 0.0281842 4.73251e-20)
(-0.0146486 0.0185164 -2.23613e-20)
(-0.0329709 0.0416713 -4.37591e-20)
(-0.0413976 0.0544916 3.79901e-20)
(-0.0389913 0.0593833 1.90623e-20)
(-0.025069 0.0584382 -8.85412e-20)
(0.00139264 0.0534271 7.22785e-20)
(0.0422717 0.0458427 -6.54121e-20)
(0.0993382 0.0365217 1.01748e-21)
(0.175285 0.0204879 -1.48616e-20)
(0.291038 0.0334428 -4.38532e-20)
(-0.0156287 0.0182374 1.93418e-20)
(-0.0340865 0.0404123 -2.61387e-21)
(-0.040668 0.0522499 -9.33022e-21)
(-0.0343817 0.0563268 -1.0892e-21)
(-0.0143258 0.0549287 -5.51756e-21)
(0.0208646 0.0499915 -2.30396e-20)
(0.0736039 0.0433037 9.8449e-21)
(0.145047 0.0354276 -1.55289e-20)
(0.242352 0.0211327 4.62898e-21)
(0.3715 0.0437662 1.27313e-21)
(-0.0165358 0.0178245 -3.94851e-20)
(-0.0347076 0.0387287 -2.83904e-21)
(-0.0387511 0.0493736 4.31654e-21)
(-0.0275906 0.0525287 1.75818e-21)
(-2.4887e-05 0.0507107 2.90113e-20)
(0.0457228 0.0460598 -8.46714e-20)
(0.112668 0.040792 5.71867e-20)
(0.20081 0.0348309 -4.29323e-20)
(0.323444 0.0259831 3.62467e-20)
(0.455297 0.0590412 4.01082e-20)
(-0.0173368 0.0172738 -4.79457e-21)
(-0.0346938 0.0366279 2.19963e-20)
(-0.0353476 0.0459059 -2.76174e-20)
(-0.0181219 0.0480923 -8.65786e-21)
(0.0185602 0.0459652 1.67062e-20)
(0.0769213 0.0419048 8.05178e-20)
(0.160498 0.0386468 -1.62018e-20)
(0.267894 0.0350089 7.87537e-21)
(0.418304 0.0365908 -4.19634e-20)
(0.540077 0.0734698 1.94499e-20)
(-0.0179844 0.0165769 -1.44183e-20)
(-0.0338713 0.0341193 -1.12169e-20)
(-0.030114 0.0419116 2.76489e-21)
(-0.005422 0.0431645 1.09038e-20)
(0.0422051 0.0409526 -3.23149e-20)
(0.115395 0.0379233 -1.30999e-20)
(0.217823 0.0373317 -4.12827e-20)
(0.346752 0.036764 4.26454e-20)
(0.522417 0.0517171 4.51273e-20)
(0.632401 0.0742163 -1.89874e-20)
(-0.0184198 0.0157267 -6.86886e-21)
(-0.0320318 0.0312157 2.8035e-20)
(-0.0226603 0.0374746 -3.1378e-20)
(0.0111091 0.037938 -3.66155e-21)
(0.0716999 0.0360141 -1.48163e-20)
(0.161981 0.0346424 3.23547e-20)
(0.284997 0.0374883 4.18384e-20)
(0.436407 0.0414108 -4.02042e-20)
(0.625842 0.0645188 4.30246e-20)
(0.759092 0.0715395 6.15802e-21)
(-0.0185723 0.0147128 -1.99215e-20)
(-0.0289357 0.0279347 -5.67066e-20)
(-0.0125565 0.0327021 5.53878e-20)
(0.0320968 0.0326515 7.9841e-21)
(0.107793 0.0315621 1.17058e-20)
(0.217285 0.0326817 7.06213e-21)
(0.36186 0.0398504 3.19723e-20)
(0.534233 0.0497731 2.36322e-20)
(0.73059 0.0773129 -8.36325e-20)
(0.879204 0.0855231 -4.16718e-20)
(-0.0243158 0.0243068 1.37382e-20)
(0.00065271 0.027728 -3.13177e-20)
(0.0581568 0.0275872 6.10301e-21)
(0.151113 0.0280635 9.80224e-21)
(0.281517 0.032691 -7.05148e-20)
(0.44744 0.045109 3.11898e-20)
(0.636594 0.0618017 -2.12195e-20)
(0.833594 0.0922382 2.22187e-20)
(0.982397 0.103729 -7.98666e-21)
(0.017431 0.0227175 -1.52301e-21)
(0.0898519 0.0230704 -8.57942e-21)
(0.202073 0.0260217 3.35333e-22)
(0.354323 0.0352808 7.02164e-22)
(0.539723 0.053724 -4.74705e-20)
(0.739378 0.0769424 6.05438e-21)
(0.92979 0.10902 5.99601e-20)
(1.06961 0.122486 2.771e-20)
(0.0382282 0.017873 5.33634e-20)
(0.127639 0.0194689 1.36559e-21)
(0.260764 0.0259557 -2.23908e-20)
(0.43465 0.0409439 6.03433e-20)
(0.635737 0.065782 1.33592e-20)
(0.838334 0.0944153 9.23813e-22)
(1.01559 0.126741 -2.61499e-20)
(1.13938 0.140591 -3.49745e-20)
(0.171814 0.017191 -2.21785e-20)
(0.326854 0.0283685 3.64664e-20)
(0.520704 0.0499711 -1.78433e-20)
(0.731949 0.0809605 -2.02109e-20)
(0.929801 0.113347 -4.67385e-21)
(1.08883 0.144524 -1.51647e-20)
(1.19324 0.157243 1.70399e-20)
(0.399511 0.0336989 1.97977e-20)
(0.61005 0.0623857 -6.63329e-20)
(0.824828 0.0986314 4.28582e-20)
(1.0112 0.132909 -1.96405e-20)
(1.14899 0.161708 3.02649e-20)
(1.23324 0.172289 8.58641e-21)
(0.911383 0.118038 -1.08051e-20)
(1.0812 0.15243 9.43077e-21)
(1.19668 0.177923 -2.30446e-20)
(1.2618 0.18579 -2.39807e-20)
(1.13955 0.171451 -2.96973e-20)
(1.23321 0.193029 5.27789e-22)
(1.28127 0.197975 1.65102e-20)
(1.26019 0.207049 2.27832e-20)
(1.29371 0.209114 -1.00712e-20)
(-0.133153 0.00433593 -1.01808e-22)
(-0.16207 0.00371397 2.84763e-23)
(-0.189705 0.00417199 1.38117e-22)
(-0.224194 0.00423707 -1.40682e-22)
(-0.258766 0.00449802 3.62567e-23)
(-0.299373 0.00466326 1.315e-22)
(-0.341565 0.00471129 3.65198e-23)
(-0.386668 0.00452776 -7.37889e-23)
(-0.429969 0.00398277 -7.52851e-23)
(-0.468151 0.00296457 -8.18205e-23)
(-0.49395 0.00138302 1.82073e-23)
(-0.499643 -0.000784676 -1.59139e-22)
(-0.474246 -0.0034826 9.35497e-23)
(-0.41182 -0.00611956 -2.61577e-23)
(-0.313762 -0.00804778 -1.64014e-23)
(-0.190662 -0.00893694 -9.63621e-24)
(-0.0545988 -0.00890231 3.33748e-23)
(0.0821602 -0.00816456 8.18964e-24)
(0.210313 -0.00711557 -5.60046e-24)
(0.32648 -0.00590845 -1.26852e-23)
(0.424792 -0.00485014 6.43106e-24)
(0.512672 -0.00385127 4.62266e-24)
(0.580442 -0.0031315 1.5969e-24)
(0.646709 -0.00245159 6.08355e-24)
(0.690225 -0.00201378 6.21337e-24)
(0.742811 -0.0015881 3.05194e-24)
(0.768881 -0.00134857 -1.46131e-24)
(0.814733 -0.00109552 -6.80911e-24)
(0.828836 -0.000978471 -7.57382e-25)
(0.873306 -0.000739682 1.09911e-24)
(-0.130184 0.0129005 4.36524e-23)
(-0.158549 0.0110272 -3.32688e-22)
(-0.18529 0.0123938 -4.96076e-23)
(-0.218951 0.012587 3.67729e-22)
(-0.252555 0.0133612 -3.24726e-23)
(-0.292097 0.0138544 -4.90543e-22)
(-0.333144 0.0139976 4.22553e-22)
(-0.377007 0.0134504 -4.09686e-22)
(-0.419022 0.0118244 2.71569e-22)
(-0.455898 0.00878615 -6.20096e-22)
(-0.480468 0.00406485 1.07217e-21)
(-0.485124 -0.00240837 -9.73109e-22)
(-0.459009 -0.0104632 1.20796e-23)
(-0.396331 -0.0183361 5.96575e-22)
(-0.29858 -0.0240888 -7.85912e-23)
(-0.176297 -0.0267343 -5.78684e-23)
(-0.0414104 -0.0266217 -8.54885e-23)
(0.093931 -0.024406 3.55887e-23)
(0.220658 -0.0212651 -2.06236e-23)
(0.335381 -0.0176537 4.06023e-23)
(0.432452 -0.0144888 1.34813e-23)
(0.519123 -0.011503 -2.83096e-23)
(0.585971 -0.00935238 1.68473e-24)
(0.651287 -0.00732101 2.27608e-23)
(0.694173 -0.00601352 -1.09384e-23)
(0.746006 -0.00474221 -2.83405e-23)
(0.771681 -0.0040274 -2.00581e-25)
(0.816913 -0.00327215 1.2732e-23)
(0.830811 -0.00292288 -1.08476e-25)
(0.874708 -0.00220988 -6.35148e-24)
(-0.124315 0.0211488 2.44917e-21)
(-0.151613 0.0180025 -1.86947e-21)
(-0.176604 0.0202543 1.28062e-21)
(-0.208645 0.0205698 -1.18744e-21)
(-0.240355 0.0218321 -5.10769e-22)
(-0.277812 0.0226464 2.68725e-21)
(-0.316622 0.0228834 -9.42944e-22)
(-0.358069 0.0219841 -1.29695e-21)
(-0.397585 0.0193053 5.75808e-22)
(-0.431936 0.014297 -6.70833e-23)
(-0.454147 0.00650711 2.46109e-22)
(-0.456832 -0.00418253 -8.98752e-23)
(-0.429377 -0.0174806 -3.61032e-23)
(-0.36627 -0.03048 2.38513e-22)
(-0.26916 -0.0399667 2.17972e-23)
(-0.148488 -0.0443072 -1.05136e-22)
(-0.0158826 -0.0440925 2.50156e-22)
(0.116731 -0.0403949 -1.3164e-24)
(0.240714 -0.0351783 -1.0933e-23)
(0.352667 -0.0291909 2.26721e-23)
(0.447353 -0.0239477 -2.12706e-23)
(0.531695 -0.019006 -3.67145e-23)
(0.596763 -0.0154492 6.25524e-23)
(0.660242 -0.0120905 -1.91007e-23)
(0.701907 -0.00993059 3.30122e-23)
(0.752274 -0.00783051 3.30982e-23)
(0.777181 -0.00665179 -3.06124e-24)
(0.8212 -0.00540601 -2.25641e-23)
(0.834702 -0.00483027 2.01616e-24)
(0.877474 -0.00365312 4.5589e-24)
(-0.115669 0.0288894 -2.75496e-21)
(-0.141457 0.024438 1.29399e-21)
(-0.163917 0.0275327 -1.69558e-22)
(-0.193618 0.0279616 3.2583e-22)
(-0.22259 0.0296706 -4.33042e-22)
(-0.257031 0.0307952 -1.75682e-21)
(-0.292612 0.0311252 9.18797e-22)
(-0.330583 0.029895 -2.76742e-22)
(-0.366527 0.0262119 6.82692e-22)
(-0.397292 0.0193174 2.04173e-21)
(-0.416185 0.00857924 -6.31335e-22)
(-0.416146 -0.006179 7.10309e-22)
(-0.386896 -0.0245371 -8.0819e-22)
(-0.323302 -0.0424901 -6.87848e-22)
(-0.227216 -0.0555703 1.23001e-22)
(-0.108904 -0.0615237 -1.68292e-22)
(0.0204373 -0.0611571 -2.33772e-22)
(0.149198 -0.0559852 -3.46759e-23)
(0.269314 -0.0487184 -3.17871e-23)
(0.377377 -0.0404 9.44668e-24)
(0.468704 -0.0331223 6.50157e-23)
(0.549763 -0.0262731 3.81848e-24)
(0.612314 -0.0213487 -2.43353e-23)
(0.673184 -0.0167007 -3.31375e-24)
(0.713113 -0.0137152 -1.25311e-23)
(0.761381 -0.0108131 -1.0458e-23)
(0.785188 -0.00918832 -3.88012e-24)
(0.827456 -0.00747073 -6.65694e-24)
(0.840389 -0.00667765 -1.09393e-23)
(0.881531 -0.00505254 1.27127e-24)
(-0.1044 0.035957 1.9936e-21)
(-0.128339 0.030166 2.16695e-21)
(-0.147597 0.0340368 1.28538e-21)
(-0.17434 0.0345679 -1.26998e-21)
(-0.199846 0.0366673 -4.96344e-23)
(-0.230464 0.038088 -7.04893e-22)
(-0.261962 0.0385126 -1.56564e-21)
(-0.29556 0.0369839 -6.2734e-22)
(-0.327038 0.0323668 2.70076e-22)
(-0.353361 0.0237035 -8.4472e-24)
(-0.368196 0.0101869 -8.9932e-22)
(-0.364894 -0.00843564 3.29184e-22)
(-0.333581 -0.0316095 1.56009e-21)
(-0.269572 -0.0542901 -7.86272e-22)
(-0.174934 -0.0707868 6.6471e-22)
(-0.059673 -0.0782784 1.24063e-22)
(0.0655634 -0.0776669 4.79548e-22)
(0.189562 -0.071055 -5.94007e-23)
(0.304922 -0.0617746 4.7134e-24)
(0.40823 -0.051184 3.59275e-24)
(0.495441 -0.0419281 7.4471e-23)
(0.572475 -0.0332334 1.15937e-22)
(0.631929 -0.0269901 3.1132e-25)
(0.689574 -0.021102 -5.20972e-23)
(0.727353 -0.0173249 -2.48087e-24)
(0.772994 -0.0136556 -1.01936e-23)
(0.79543 -0.0116077 1.79123e-23)
(0.835482 -0.00944297 3.09808e-23)
(0.847704 -0.00844444 1.87799e-23)
(0.88677 -0.00639289 -1.117e-23)
(-0.0906543 0.0422166 1.25256e-21)
(-0.112541 0.0350639 2.87943e-21)
(-0.128067 0.0396123 1.12825e-21)
(-0.151359 0.0402332 -4.37661e-21)
(-0.172822 0.042653 4.32988e-21)
(-0.198961 0.0443515 -1.99601e-21)
(-0.225689 0.044876 -4.456e-22)
(-0.254198 0.0430936 -1.17871e-21)
(-0.28052 0.0376351 -1.0836e-21)
(-0.301768 0.0273528 3.42287e-21)
(-0.31203 0.011274 -1.11662e-21)
(-0.30513 -0.0109567 -2.68575e-21)
(-0.27165 -0.0386517 -5.21489e-23)
(-0.207396 -0.0657923 1.15413e-21)
(-0.114654 -0.0855195 -1.00869e-21)
(-0.00306292 -0.0944207 8.14805e-22)
(0.117372 -0.0935344 -5.37795e-22)
(0.235892 -0.0855091 7.83383e-23)
(0.345833 -0.0742639 -2.60296e-23)
(0.443779 -0.0614723 -1.07562e-22)
(0.526342 -0.0503033 -5.58961e-23)
(0.598838 -0.0398347 -5.00877e-23)
(0.654786 -0.0323279 -8.76828e-24)
(0.708763 -0.0252565 -5.53842e-23)
(0.744096 -0.0207266 -2.23207e-23)
(0.786708 -0.0163304 1.28715e-23)
(0.80757 -0.0138858 -5.09075e-23)
(0.845033 -0.0113033 2.8036e-23)
(0.856435 -0.0101132 -2.81339e-23)
(0.893057 -0.00766101 1.78107e-23)
(-0.0745278 0.0475647 -2.53515e-21)
(-0.0943214 0.0390606 4.4345e-22)
(-0.105751 0.0441507 5.33046e-22)
(-0.125248 0.0448477 -6.23018e-22)
(-0.142258 0.0475053 6.27781e-22)
(-0.163436 0.0494583 9.50475e-22)
(-0.184888 0.0500915 7.75368e-22)
(-0.207789 0.0481124 -1.06324e-21)
(-0.228474 0.0419264 -1.43605e-21)
(-0.244227 0.0302032 8.40762e-22)
(-0.2496 0.0118191 3.88995e-22)
(-0.238934 -0.0137202 2.37544e-21)
(-0.20329 -0.0456022 -2.24007e-21)
(-0.139007 -0.0769123 -6.62647e-22)
(-0.0485943 -0.0996968 1.49182e-21)
(0.0587584 -0.109786 4.862e-22)
(0.173809 -0.108694 2.17098e-23)
(0.286312 -0.0992757 4.3109e-24)
(0.390363 -0.086129 5.93154e-24)
(0.482559 -0.0712189 1.69144e-22)
(0.560148 -0.0582083 1.66898e-24)
(0.627805 -0.046044 5.65786e-23)
(0.680004 -0.0373323 3.84893e-23)
(0.730046 -0.0291395 3.22469e-23)
(0.762759 -0.0238969 4.59539e-23)
(0.80207 -0.018818 1.00468e-23)
(0.821229 -0.0160045 4.79778e-23)
(0.855827 -0.0130367 -3.23764e-23)
(0.866339 -0.0116701 2.56924e-23)
(0.900234 -0.0088462 -1.76107e-23)
(-0.0560219 0.0519096 2.84597e-21)
(-0.0738531 0.0421498 4.58869e-22)
(-0.081012 0.0475943 -9.17646e-23)
(-0.0965278 0.0483518 -2.57666e-22)
(-0.108865 0.0511532 -6.52025e-22)
(-0.124789 0.0533301 3.98559e-21)
(-0.140651 0.0540827 -3.15222e-21)
(-0.15762 0.0519737 -1.4693e-21)
(-0.172381 0.0451919 -1.22081e-21)
(-0.182409 0.0322283 7.25098e-22)
(-0.182745 0.0118272 3.20275e-21)
(-0.16825 -0.0166883 -9.90731e-22)
(-0.130493 -0.0524037 -2.02803e-21)
(-0.0663947 -0.0875882 2.68032e-21)
(0.0213138 -0.113148 -2.59331e-21)
(0.123944 -0.12434 4.25686e-22)
(0.233084 -0.123062 -4.56161e-23)
(0.339161 -0.112302 6.33833e-23)
(0.436989 -0.0973326 4.79481e-23)
(0.523215 -0.0803981 -1.73865e-22)
(0.595663 -0.0656232 1.45045e-23)
(0.658359 -0.051845 -2.77683e-22)
(0.706714 -0.0419883 -5.33325e-23)
(0.752711 -0.0327381 1.42485e-22)
(0.782739 -0.0268228 -1.23452e-23)
(0.818606 -0.0211062 2.76516e-23)
(0.836007 -0.0179517 -6.39615e-24)
(0.867564 -0.0146331 2.58995e-23)
(0.877154 -0.0131054 -1.47901e-23)
(0.908129 -0.00994046 1.43386e-23)
(-0.0350074 0.055072 -1.96844e-21)
(-0.0511657 0.0444504 1.20828e-21)
(-0.05409 0.0499228 1.98091e-21)
(-0.0656044 0.0507425 4.92673e-22)
(-0.0732487 0.0535789 -3.95853e-21)
(-0.0838255 0.0559405 3.28415e-22)
(-0.0939801 0.0568198 8.12075e-22)
(-0.104884 0.0546532 -3.12966e-21)
(-0.113608 0.0474189 -1.82052e-21)
(-0.117842 0.0334308 4.86864e-21)
(-0.113111 0.0113213 -7.23005e-22)
(-0.0947863 -0.0198256 1.96123e-21)
(-0.05496 -0.0590199 -3.31142e-21)
(0.00879721 -0.0977316 1.55667e-21)
(0.0934598 -0.125712 -1.04947e-21)
(0.190948 -0.138065 1.32685e-21)
(0.293741 -0.136575 1.03861e-22)
(0.393066 -0.124549 -9.25062e-23)
(0.48443 -0.107852 -5.64908e-23)
(0.564579 -0.0889988 1.17669e-22)
(0.631833 -0.0725428 -8.85266e-23)
(0.68958 -0.0572354 4.19415e-23)
(0.734107 -0.0462933 1.59133e-22)
(0.776079 -0.0360503 -1.55403e-22)
(0.803454 -0.0295002 2.01542e-23)
(0.83585 -0.0231908 -9.33713e-23)
(0.851502 -0.0197216 5.2861e-23)
(0.879938 -0.0160867 -4.82515e-23)
(0.888611 -0.0144132 1.95356e-23)
(0.916561 -0.0109385 -3.41754e-25)
(-0.0112131 0.0567483 2.08594e-22)
(-0.0260648 0.0462358 4.83638e-21)
(-0.0250521 0.0511314 -5.93715e-21)
(-0.0326881 0.0520805 -9.22847e-22)
(-0.0358256 0.0548145 5.15794e-21)
(-0.0411705 0.0573167 1.05195e-21)
(-0.0457013 0.0583185 -3.26971e-21)
(-0.0505929 0.0561658 -1.38837e-21)
(-0.05333 0.0486241 9.66003e-22)
(-0.0518286 0.0338331 2.28622e-21)
(-0.0420891 0.0103313 -1.69394e-22)
(-0.0199549 -0.0231261 -2.00648e-22)
(0.0219357 -0.0653797 1.36926e-21)
(0.085257 -0.107189 -1.11717e-21)
(0.166595 -0.137426 8.69999e-22)
(0.258561 -0.150878 -4.9327e-22)
(0.354646 -0.149184 -1.66104e-22)
(0.446956 -0.135987 4.53767e-23)
(0.531677 -0.117674 -1.54463e-23)
(0.605707 -0.0970197 -1.33091e-22)
(0.667787 -0.078972 6.73813e-23)
(0.720682 -0.0622227 1.69703e-22)
(0.761477 -0.0502541 -2.3546e-23)
(0.799542 -0.0390825 3.93181e-23)
(0.82437 -0.0319328 -7.91944e-23)
(0.853363 -0.0250734 4.632e-23)
(0.867331 -0.0213135 1.34749e-23)
(0.892652 -0.0173963 2.18977e-23)
(0.900443 -0.0155913 7.97667e-24)
(0.925347 -0.0118378 -9.58546e-25)
(0.0157883 0.0573251 -3.60137e-21)
(0.00193416 0.0473905 6.60986e-21)
(0.00625216 0.0513901 -1.46185e-21)
(0.00227458 0.0524454 -8.09838e-21)
(0.00324208 0.054954 9.31653e-21)
(0.00280439 0.0575342 2.41412e-21)
(0.00360555 0.0586414 -6.55884e-21)
(0.00448796 0.0565638 -4.14815e-23)
(0.00754138 0.0488519 -2.67547e-21)
(0.0146119 0.0334721 7.90739e-22)
(0.0292332 0.00888047 -3.55801e-21)
(0.055155 -0.0265252 3.31524e-21)
(0.0991545 -0.0714127 -3.62367e-22)
(0.161951 -0.115941 3.56009e-22)
(0.239728 -0.148288 7.82172e-22)
(0.325864 -0.162711 -1.79322e-21)
(0.414941 -0.160852 7.46676e-22)
(0.500023 -0.146596 -1.87074e-22)
(0.577969 -0.126793 2.63792e-23)
(0.645877 -0.104465 -7.56852e-23)
(0.702845 -0.0849222 2.21247e-23)
(0.751037 -0.0668206 6.7012e-23)
(0.788244 -0.0538841 -3.13305e-22)
(0.822583 -0.0418474 1.16384e-22)
(0.84502 -0.0341305 -1.70135e-23)
(0.870753 -0.0267615 7.47241e-23)
(0.883144 -0.0227317 -1.02366e-22)
(0.905428 -0.0185643 -5.83344e-23)
(0.912398 -0.0166413 -2.04642e-23)
(0.934311 -0.0126381 2.14665e-23)
(0.0468176 0.0573411 -2.06032e-21)
(0.0335004 0.047737 8.76503e-21)
(0.0403553 0.0509718 -2.36641e-21)
(0.0396206 0.0519432 -2.90836e-21)
(0.0441162 0.0541472 8.1936e-21)
(0.0480444 0.0567103 -6.39348e-21)
(0.0536739 0.057894 -3.62315e-21)
(0.0599015 0.0559298 -7.65123e-22)
(0.0684005 0.048174 7.12318e-21)
(0.0807743 0.0324035 -9.25737e-22)
(0.100104 0.00699318 -1.47058e-21)
(0.12977 -0.0299597 2.22633e-22)
(0.175914 -0.0771032 1.41854e-21)
(0.238109 -0.12402 -1.81834e-21)
(0.312108 -0.15821 1.71271e-21)
(0.392149 -0.17352 -4.98812e-23)
(0.47398 -0.171551 3.48401e-22)
(0.551677 -0.156361 1.10158e-22)
(0.622759 -0.135206 1.9453e-23)
(0.68457 -0.111344 9.61276e-23)
(0.736506 -0.0904084 6.5244e-23)
(0.780171 -0.0710464 -1.18929e-22)
(0.813956 -0.0572008 1.78805e-22)
(0.844788 -0.0443614 -5.99799e-23)
(0.865018 -0.0361071 6.09241e-23)
(0.887685 -0.0282659 1.38038e-23)
(0.898637 -0.0239841 1.47546e-23)
(0.918018 -0.0195963 5.98319e-23)
(0.924247 -0.0175674 2.19069e-24)
(0.943286 -0.0133417 -3.89221e-23)
(0.0829907 0.056786 -5.24488e-22)
(0.0696044 0.0475631 5.48861e-21)
(0.0781161 0.0500402 -6.02432e-21)
(0.0800284 0.0507572 6.8857e-21)
(0.0873134 0.0525756 3.34211e-21)
(0.0948535 0.0550119 -3.60334e-21)
(0.104595 0.0562208 2.2414e-21)
(0.115541 0.0543791 -2.703e-21)
(0.128986 0.0466814 5.50976e-21)
(0.14629 0.0306957 -9.58852e-21)
(0.170096 0.00468854 1.06569e-21)
(0.203431 -0.0334468 2.317e-21)
(0.251702 -0.0824447 -2.23487e-21)
(0.313155 -0.131367 2.55328e-21)
(0.383143 -0.167147 -1.81654e-21)
(0.456865 -0.183277 9.25747e-22)
(0.531277 -0.181263 -3.62134e-22)
(0.601491 -0.165276 2.71536e-22)
(0.665665 -0.142919 -4.21142e-23)
(0.721428 -0.117668 3.40099e-23)
(0.76843 -0.0954479 -8.09288e-23)
(0.807751 -0.0749194 1.86149e-22)
(0.838287 -0.0602234 -3.3693e-22)
(0.865844 -0.0466431 1.2849e-22)
(0.884063 -0.0378793 1.02359e-22)
(0.90389 -0.0296004 2.85666e-23)
(0.913554 -0.0250812 -1.05987e-23)
(0.930212 -0.0205003 -1.53518e-24)
(0.935787 -0.0183764 1.065e-23)
(0.95212 -0.0139524 3.18015e-23)
(0.125557 0.0558785 5.66226e-21)
(0.111505 0.0471598 -2.91492e-21)
(0.120716 0.0487764 2.34235e-21)
(0.124529 0.0491071 -1.48508e-22)
(0.133708 0.0504538 4.14831e-21)
(0.143905 0.0526511 -3.37291e-21)
(0.156831 0.053807 -4.63684e-21)
(0.171666 0.052063 1.00107e-21)
(0.189389 0.0444856 2.51473e-21)
(0.211127 0.0284256 4.30687e-21)
(0.239093 0.00196397 -7.59568e-21)
(0.275949 -0.0369788 7.21347e-21)
(0.326204 -0.0874136 1.96297e-21)
(0.386655 -0.137945 -9.69398e-22)
(0.45236 -0.17507 -1.3206e-22)
(0.519577 -0.191966 -4.76808e-22)
(0.586465 -0.189986 3.8687e-22)
(0.649159 -0.173347 2.54537e-22)
(0.706433 -0.149943 1.06639e-23)
(0.756224 -0.123453 -2.14431e-23)
(0.798402 -0.10006 8.96451e-23)
(0.833564 -0.0784597 -4.7458e-23)
(0.861023 -0.062972 2.38571e-22)
(0.885536 -0.0487115 6.68024e-24)
(0.901935 -0.0394648 -7.85002e-23)
(0.919164 -0.0307802 -8.84307e-23)
(0.927695 -0.0260355 9.92383e-24)
(0.941835 -0.0212857 -3.36655e-24)
(0.94685 -0.0190768 -3.00829e-23)
(0.960681 -0.0144757 -7.69923e-24)
(0.175783 0.0550481 -4.84178e-21)
(0.160704 0.0467375 6.83137e-21)
(0.169656 0.0473995 -1.39074e-21)
(0.174472 0.0472297 -2.81162e-21)
(0.184494 0.0480288 4.08967e-21)
(0.196205 0.0498742 3.79001e-22)
(0.211192 0.0508747 -1.47362e-21)
(0.228883 0.0491659 6.6303e-21)
(0.25004 0.0417254 -1.00877e-20)
(0.275556 0.0256855 9.41531e-21)
(0.307248 -0.000973817 1.12302e-21)
(0.347346 -0.0405092 -4.15848e-21)
(0.399238 -0.0919749 -1.74352e-21)
(0.458264 -0.14372 2.0806e-21)
(0.519366 -0.181962 -5.20889e-22)
(0.579935 -0.199584 1.20925e-21)
(0.639264 -0.197728 -1.10865e-21)
(0.694469 -0.180584 1.08025e-22)
(0.744904 -0.156291 -1.31343e-23)
(0.788828 -0.128713 -4.85047e-23)
(0.826305 -0.104264 -9.41097e-23)
(0.857494 -0.0816869 6.11781e-24)
(0.882042 -0.0654662 -1.04457e-22)
(0.903733 -0.0505854 1.52987e-23)
(0.918492 -0.0408816 -8.58231e-23)
(0.933363 -0.0318206 -1.15541e-23)
(0.940914 -0.0268602 -4.18908e-23)
(0.952755 -0.0219631 2.97518e-23)
(0.957301 -0.0196783 2.70886e-23)
(0.968859 -0.0149182 -1.42268e-23)
(0.234826 0.0547967 -3.26004e-22)
(0.218925 0.0464727 -2.69591e-21)
(0.226721 0.0461416 -5.68186e-21)
(0.231455 0.0453814 3.06391e-21)
(0.241094 0.0455731 2.49105e-21)
(0.253004 0.0469542 -1.43824e-21)
(0.268754 0.0476772 -7.12803e-22)
(0.288086 0.0459032 5.3791e-21)
(0.311646 0.0385688 -6.32085e-21)
(0.340135 0.022603 -2.52008e-21)
(0.374927 -0.00401076 -1.3829e-21)
(0.417749 -0.0439813 -2.66971e-21)
(0.470687 -0.0960734 6.86992e-21)
(0.52768 -0.14864 -4.77085e-21)
(0.583828 -0.187784 1.86838e-21)
(0.637658 -0.206103 -1.91092e-21)
(0.689471 -0.204465 -2.84315e-22)
(0.73728 -0.186976 -3.21163e-22)
(0.780988 -0.161962 4.20285e-23)
(0.819184 -0.133457 4.42463e-23)
(0.852101 -0.108072 -8.67016e-24)
(0.879502 -0.0846176 -8.2246e-23)
(0.901298 -0.0677242 7.03751e-23)
(0.920374 -0.0522822 -7.06534e-23)
(0.933655 -0.0421472 1.45135e-22)
(0.946403 -0.0327373 -7.65107e-23)
(0.953113 -0.0275692 7.29241e-23)
(0.96288 -0.0225433 -3.58956e-23)
(0.967041 -0.020191 -6.64742e-24)
(0.976564 -0.0152871 -2.85063e-24)
(0.303764 0.0556351 -2.98233e-22)
(0.288169 0.0465186 -2.86059e-21)
(0.293925 0.0452239 1.12948e-20)
(0.297198 0.0438254 -1.02847e-20)
(0.30501 0.0433634 7.14485e-21)
(0.315646 0.0441666 -6.06448e-21)
(0.330727 0.0444705 2.47779e-21)
(0.350339 0.0424953 -4.01299e-22)
(0.375102 0.0351892 -2.64882e-21)
(0.405562 0.0193114 3.76043e-23)
(0.442602 -0.00720879 1.35154e-21)
(0.487343 -0.0473219 -7.87006e-22)
(0.540426 -0.0996262 5.87374e-21)
(0.594616 -0.152615 -4.1815e-21)
(0.64546 -0.192459 5.17702e-21)
(0.692528 -0.211468 4.40261e-22)
(0.736938 -0.210168 -1.86608e-21)
(0.777509 -0.192513 1.8617e-22)
(0.814652 -0.166961 6.4621e-23)
(0.847288 -0.137696 -9.19736e-23)
(0.875802 -0.111502 1.78612e-22)
(0.899602 -0.0872681 -4.95063e-23)
(0.918799 -0.069762 -6.61457e-23)
(0.935455 -0.0538173 2.88593e-23)
(0.947401 -0.0432772 -6.43737e-23)
(0.958245 -0.0335444 7.8648e-23)
(0.964237 -0.0281755 1.15809e-23)
(0.972151 -0.0230371 -4.47089e-23)
(0.976002 -0.0206253 -3.37468e-24)
(0.983731 -0.0155899 6.15001e-24)
(0.38416 0.0577454 1.74622e-22)
(0.370909 0.0468252 -1.45087e-21)
(0.373391 0.0448224 -5.8373e-21)
(0.373335 0.0428304 5.59872e-21)
(0.377612 0.0416809 -9.04103e-21)
(0.38537 0.0417905 -2.20716e-22)
(0.398272 0.0415183 9.16741e-21)
(0.416714 0.0391748 -6.95589e-21)
(0.441344 0.031773 5.38742e-22)
(0.472566 0.0159394 -2.65355e-21)
(0.510736 -0.0103923 6.70376e-21)
(0.556248 -0.0503958 -3.76272e-21)
(0.608262 -0.102568 1.48831e-21)
(0.658775 -0.155692 1.84121e-21)
(0.704012 -0.196166 1.66995e-21)
(0.744378 -0.215943 7.13546e-23)
(0.781572 -0.215117 -1.55251e-21)
(0.815116 -0.197431 6.09784e-22)
(0.845903 -0.17146 -5.58335e-23)
(0.873177 -0.141542 2.17058e-24)
(0.897463 -0.114622 -2.73856e-23)
(0.917852 -0.0896777 5.50976e-23)
(0.934597 -0.0716031 -4.18103e-23)
(0.949013 -0.0552059 4.85018e-23)
(0.959747 -0.0442854 -6.53763e-23)
(0.968889 -0.034254 -3.59838e-23)
(0.974272 -0.0286906 1.89939e-23)
(0.980542 -0.023454 1.03248e-23)
(0.984146 -0.020991 1.81564e-23)
(0.990313 -0.0158341 2.23672e-24)
(0.480018 0.0589041 -2.8248e-21)
(0.470413 0.0470609 7.06351e-21)
(0.467096 0.0453173 -3.53184e-21)
(0.461106 0.042879 -4.50626e-21)
(0.459853 0.0409988 1.84186e-21)
(0.463067 0.040302 -4.96817e-21)
(0.472287 0.0393158 6.25889e-21)
(0.488102 0.0364548 1.7614e-21)
(0.511173 0.0288244 -5.8445e-21)
(0.541758 0.0128898 3.66611e-21)
(0.579637 -0.013056 -4.09793e-21)
(0.624388 -0.0528685 -2.63046e-21)
(0.673865 -0.104892 5.64954e-21)
(0.719821 -0.158255 -7.30219e-22)
(0.759256 -0.199567 -1.54215e-21)
(0.793086 -0.220267 3.01844e-21)
(0.823331 -0.219957 -2.36198e-21)
(0.850118 -0.202216 7.52675e-22)
(0.874796 -0.175787 -1.4733e-22)
(0.896931 -0.145197 4.39879e-23)
(0.917172 -0.117553 -3.50993e-23)
(0.934338 -0.091917 5.95301e-23)
(0.948775 -0.073289 -1.76317e-23)
(0.961116 -0.0564724 6.48718e-25)
(0.970744 -0.0451887 8.04888e-24)
(0.97837 -0.0348783 3.57528e-23)
(0.983232 -0.0291253 -9.07741e-24)
(0.988056 -0.0238027 2.26518e-24)
(0.991462 -0.0212968 -7.73376e-24)
(0.996285 -0.016027 -4.85056e-24)
(0.603077 0.0571957 -9.73828e-21)
(0.59083 0.0491213 2.13135e-21)
(0.576188 0.0479499 -3.34416e-21)
(0.560844 0.0448136 1.12292e-20)
(0.551951 0.041897 -5.32084e-21)
(0.549041 0.0401006 5.33948e-21)
(0.5532 0.0381639 2.8406e-21)
(0.565018 0.0346018 -7.6627e-21)