/*--------------------------------*- C++ -*----------------------------------*\
  =========                 |
  \\      /  F ield         | OpenFOAM: The Open Source CFD Toolbox
   \\    /   O peration     | Website:  https://openfoam.org
    \\  /    A nd           | Version:  7
     \\/     M anipulation  |
\*---------------------------------------------------------------------------*/
FoamFile
{
    version     2.0;
    format      ascii;
    class       surfaceScalarField;
    location    "365";
    object      phi;
}
// * * * * * * * * * * * * * * * * * * * * * * * * * * * * * * * * * * * * * //

dimensions      [0 3 -1 0 0 0 0];

internalField   nonuniform List<scalar> 
4136
(
-0.000984433
0.000466544
-0.00300818
0.00091491
0.00108588
-0.00098537
0.00145191
-0.00301083
0.00294037
-0.00552802
0.00360306
-0.00825178
0.00384714
-0.0110888
0.00395545
-0.0140322
0.00404813
-0.0170971
0.0041532
-0.0203008
0.00427439
-0.0236597
0.00441065
0.00456138
-0.0271901
-0.000982018
0.00243393
-0.00300294
0.00496129
-0.00551614
0.00611626
-0.00823648
0.00656748
-0.0110703
0.00678922
-0.0140104
0.00698831
-0.0170718
0.00721459
-0.0202719
0.00747445
-0.023627
0.00776579
0.00808766
-0.0271533
-0.000974384
0.00340832
-0.00298454
0.00697145
-0.00548792
0.00861964
-0.00819975
0.00927932
-0.0110255
0.00961494
-0.0139576
0.00992038
-0.0170106
0.0102676
-0.020202
0.0106658
-0.0235481
0.0111119
0.0116042
-0.0270647
-0.000962483
0.0043708
-0.00295563
0.00896459
-0.00544338
0.0111074
-0.00814159
0.0119775
-0.0109545
0.0124278
-0.0138736
0.0128396
-0.0169134
0.0133074
-0.0200911
0.0138435
-0.0234231
0.014444
0.0151057
-0.0269246
-0.00094634
0.00531714
-0.00291624
0.0109345
-0.00538255
0.0135737
-0.00806203
0.014657
-0.0108573
0.0152231
-0.0137588
0.015741
-0.0167804
0.0163291
-0.0199394
0.0170025
-0.0232521
0.0177567
0.0185867
-0.0267331
-0.000925986
0.00624313
-0.00286641
0.0128749
-0.00530543
0.0160127
-0.00796107
0.0173127
-0.0107339
0.0179959
-0.0136129
0.0186201
-0.0166116
0.0193278
-0.0197469
0.0201378
-0.0230352
0.021045
0.0220418
-0.0264902
-0.000901464
0.00714459
-0.00280618
0.0147796
-0.00521206
0.0184186
-0.00783875
0.0199393
-0.0105844
0.0207415
-0.0134362
0.0214719
-0.0164072
0.0222987
-0.0195138
0.0232444
-0.0227726
0.0243037
0.0254654
-0.0261962
-0.000872825
0.00801742
-0.0027356
0.0166424
-0.00510246
0.0207855
-0.00769508
0.022532
-0.0104088
0.0234552
-0.0132288
0.0242919
-0.0161671
0.025237
-0.0192403
0.0263175
-0.0224644
0.0275279
0.0288523
-0.0258513
-0.000840131
0.00885755
-0.00265475
0.018457
-0.00497668
0.0231074
-0.00753008
0.0250854
-0.0102071
0.0261323
-0.0129906
0.0270754
-0.0158917
0.0281381
-0.0189265
0.0293523
-0.0221111
0.0307125
0.0321973
-0.025456
-0.000803454
0.009661
-0.00256369
0.0202173
-0.00483476
0.0253785
-0.0073438
0.0275944
-0.00997952
0.028768
-0.0127219
0.0298178
-0.0155811
0.0309973
-0.0185728
0.0323441
-0.021713
0.0338527
0.0354951
-0.0250109
-0.00076288
0.0104239
-0.00246252
0.0219169
-0.00467674
0.0275927
-0.00713625
0.0300539
-0.00972598
0.0313577
-0.0124227
0.0325145
-0.0152354
0.03381
-0.0181794
0.0352881
-0.0212706
0.0369439
0.0387412
-0.0245167
-0.000718509
0.0111424
-0.00235135
0.0235498
-0.00450269
0.029744
-0.00690748
0.0324587
-0.00944657
0.0338968
-0.0120931
0.0351611
-0.0148548
0.0365717
-0.0177467
0.03818
-0.0207845
0.0399818
0.041931
-0.0239743
-0.000670454
0.0118128
-0.00223031
0.0251096
-0.00431268
0.0318264
-0.00665753
0.0348036
-0.00914137
0.0363806
-0.0117334
0.0377531
-0.0144396
0.0392779
-0.0172748
0.0410152
-0.0202552
0.0429622
0.0450608
-0.0233851
-0.000618849
0.0124317
-0.00209956
0.0265903
-0.0041068
0.0338336
-0.00638645
0.0370832
-0.00881044
0.0388046
-0.0113435
0.0402861
-0.0139898
0.0419242
-0.0167639
0.0437893
-0.0196833
0.0458816
0.0481279
-0.0227504
-0.000563844
0.0129955
-0.00195927
0.0279857
-0.00388518
0.0357595
-0.0060943
0.0392923
-0.00845387
0.0411642
-0.0109238
0.042756
-0.0135058
0.0445062
-0.0162141
0.0464977
-0.019069
0.0487365
0.0511308
-0.022072
-0.000505612
0.0135011
-0.00180967
0.0292898
-0.00364795
0.0375978
-0.00578115
0.0414255
-0.00807173
0.0434548
-0.0104743
0.0451586
-0.0129877
0.0470197
-0.0156253
0.0491352
-0.0184121
0.0515234
0.0540711
-0.0213524
-0.000444344
0.0139455
-0.00165101
0.0304965
-0.00339529
0.0393421
-0.0054471
0.0434773
-0.00766408
0.0456718
-0.00999511
0.0474896
-0.012436
0.0494605
-0.0149966
0.0516958
-0.0177095
0.0542362
0.0569555
-0.0205938
-0.000380256
0.0143257
-0.00148361
0.0315998
-0.0031274
0.0409859
-0.00509228
0.0454422
-0.00723109
0.0478106
-0.00948662
0.0497451
-0.011852
0.0518259
-0.014331
0.0541749
-0.0169606
0.0568658
0.0597966
-0.0198017
-0.000313588
0.0146393
-0.00130781
0.032594
-0.00284453
0.0425226
-0.00471686
0.0473145
-0.00677282
0.0498665
-0.0089483
0.0519206
-0.011234
0.0541116
-0.0136241
0.0565649
-0.0161362
0.0593779
0.0626216
-0.0189612
-0.000244613
0.0148839
-0.00112405
0.0334735
-0.00254697
0.0439455
-0.00432105
0.0490886
-0.00628969
0.0518352
-0.00838104
0.054012
-0.0105858
0.0563164
-0.0129039
0.058883
-0.0152909
0.0617649
0.065471
-0.0181403
-0.000173681
0.0150576
-0.000932766
0.0342326
-0.00223502
0.0452478
-0.0039051
0.0507587
-0.00578199
0.0537121
-0.00778493
0.0560149
-0.00989985
0.0584313
-0.0121406
0.0611238
-0.0145138
0.064138
0.0677548
-0.0167976
-0.000101425
0.0151591
-0.000734297
0.0348654
-0.00190904
0.0464225
-0.00346932
0.052319
-0.00524982
0.0554925
-0.00716051
0.0579256
-0.00917934
0.0604501
-0.0113162
0.0632607
-0.0135702
0.0663919
0.0701134
-0.0159287
-3.00593e-05
0.0151891
-0.000528483
0.0353639
-0.0015695
0.0474636
-0.00301418
0.0537637
-0.00469357
0.0571719
-0.00650877
0.0597408
-0.00842979
0.0623712
-0.0104642
0.065295
-0.0126274
0.0685552
0.0723813
-0.0148953
4.67763e-05
0.0151423
-0.000313599
0.0357242
-0.0012172
0.0483672
-0.0025403
0.0550868
-0.00411387
0.0587455
-0.00583076
0.0614577
-0.00765361
0.064194
-0.00958743
0.0672289
-0.0116489
0.0706167
0.0745376
-0.0138053
0.00012408
0.0150183
-8.10521e-05
0.0359294
-0.000853736
0.0491398
-0.00204796
0.056281
-0.00351131
0.0602089
-0.00512704
0.0630734
-0.00685013
0.0659171
-0.00868205
0.0690608
-0.0106382
0.0725728
0.0765862
-0.0126867
0.000196273
0.014822
0.000130092
0.0359955
-0.000481321
0.0497513
-0.0015376
0.0573373
-0.00288672
0.061558
-0.00439794
0.0645846
-0.00601886
0.067538
-0.0077465
0.0707884
-0.00959478
0.0744211
0.0785312
-0.0115398
0.000265874
0.0145561
0.000340659
0.0359208
-8.39628e-05
0.0501759
-0.00101113
0.0582644
-0.00224073
0.0627876
-0.00364376
0.0659877
-0.00516005
0.0690543
-0.00678119
0.0724096
-0.00851849
0.0761584
0.080367
-0.0103543
0.000334606
0.0142215
0.000558171
0.0356972
0.00029496
0.0504391
-0.000473215
0.0590326
-0.00157374
0.0638881
-0.00286513
0.0672791
-0.00427427
0.0704635
-0.00578677
0.0739221
-0.00741044
0.0777821
0.0820866
-0.00913002
0.000401634
0.0138199
0.000776662
0.0353222
0.000686772
0.050529
8.51404e-05
0.0596342
-0.000886743
0.06486
-0.00206275
0.0684551
-0.00336205
0.0717628
-0.00476372
0.0753237
-0.00627174
0.0792901
0.083686
-0.00787121
0.000465748
0.0133541
0.000994516
0.0347934
0.00108654
0.050437
0.000647104
0.0600737
-0.000182181
0.0656893
-0.00123728
0.0695102
-0.00242402
0.0729495
-0.00371262
0.0766123
-0.00510358
0.080681
0.0851631
-0.00658061
0.000526064
0.0128281
0.00120938
0.0341101
0.00148963
0.0501567
0.00122584
0.0603375
0.000542456
0.0663727
-0.000390477
0.0704431
-0.00146126
0.0740203
-0.00263427
0.0777853
-0.00390748
0.0819542
0.0865156
-0.00525998
0.000581699
0.0122464
0.0014187
0.0332731
0.00189333
0.0496821
0.00181382
0.060417
0.00128417
0.0669023
0.000480085
0.0712472
-0.000476202
0.0749766
-0.0015299
0.0788391
-0.00268486
0.0831092
0.0877422
-0.00391151
0.000631761
0.0116146
0.00161991
0.0322849
0.00229439
0.0490076
0.00240828
0.0603031
0.00204114
0.0672695
0.00137219
0.0719161
0.000535293
0.0758135
-0.000405298
0.0797796
-0.00143458
0.0841385
0.0888464
-0.00253878
0.000675408
0.0109392
0.00181034
0.03115
0.00268916
0.0481288
0.00300614
0.0599861
0.00281089
0.0674647
0.00228294
0.0724441
0.0015712
0.0765252
0.000751549
0.0805993
-0.00013859
0.0850286
0.0898581
-0.00115027
0.000711883
0.0102273
0.0019872
0.0298747
0.00307357
0.0470424
0.00360359
0.0594561
0.00359065
0.0674776
0.00321087
0.0728239
0.00262657
0.0771095
0.00192764
0.0812982
0.00113898
0.0858173
0.0907479
0.000249133
0.000740531
0.00948678
0.00214761
0.0284676
0.00344308
0.0457469
0.00419603
0.0587031
0.00437693
0.0672967
0.00415364
0.0730471
0.00370082
0.0775623
0.00312327
0.0818758
0.00246399
0.0864766
0.0914712
0.0017407
0.000760825
0.00872595
0.00228853
0.0269399
0.00379263
0.0442428
0.00477815
0.0577176
0.00516548
0.0669094
0.00510852
0.0731041
0.00479286
0.077878
0.00434059
0.082328
0.00380861
0.0870085
0.0920646
0.00321521
0.000772403
0.00795355
0.00240679
0.0253055
0.00411669
0.0425329
0.00534376
0.0564905
0.00595115
0.066302
0.00607207
0.0729832
0.00590036
0.0780497
0.00557585
0.0826526
0.00516776
0.0874166
0.0925321
0.00470027
0.000775118
0.00717843
0.00249972
0.0235809
0.00440932
0.0406233
0.00588572
0.0550141
0.00672771
0.06546
0.00703981
0.0726711
0.00702012
0.0780694
0.00682611
0.0828466
0.00654156
0.0877012
0.0928753
0.00619837
0.000769025
0.00640941
0.00256491
0.021785
0.0046643
0.0385239
0.00639595
0.0532825
0.00748767
0.0643683
0.00800625
0.0721525
0.00814861
0.077927
0.0080893
0.0829059
0.0079293
0.0878612
0.0930958
0.00770878
0.000754385
0.00565502
0.00260042
0.019939
0.00487522
0.0362491
0.00686536
0.0512923
0.00822218
0.0630115
0.00896465
0.07141
0.0092816
0.0776101
0.00936311
0.0828244
0.00932947
0.0878948
0.093195
0.00923034
0.000731672
0.00492335
0.00260498
0.0180657
0.0050358
0.0338183
0.00728399
0.0490442
0.0089209
0.0613746
0.00990676
0.0704242
0.0104138
0.0771031
0.0106445
0.0825937
0.0107401
0.0877992
0.0931726
0.0107625
0.000701571
0.00422178
0.00257816
0.0161891
0.00514024
0.0312562
0.00764119
0.0465432
0.00957185
0.0594439
0.0108225
0.0691735
0.0115383
0.0763873
0.0119294
0.0822026
0.0121588
0.0875698
0.0930276
0.0123037
0.00066496
0.00355682
0.00252053
0.0143335
0.00518365
0.0285931
0.00792588
0.043801
0.0101615
0.0572083
0.0116997
0.0676352
0.0126464
0.0754406
0.0132125
0.0816365
0.0135825
0.0871998
0.0927586
0.0138515
0.000622879
0.00293394
0.0024337
0.0125227
0.00516259
0.0258642
0.00812705
0.0408365
0.0106746
0.0546608
0.0125239
0.0657859
0.0137273
0.0742372
0.0144871
0.0808767
0.0150073
0.0866796
0.0923626
0.0154033
0.000576487
0.00235745
0.00232033
0.0107789
0.00507563
0.0231089
0.00823444
0.0376777
0.0110949
0.0518004
0.0132779
0.0636029
0.0147672
0.072748
0.0157442
0.0798996
0.016428
0.0859958
0.0918347
0.0169559
0.000527004
0.00183045
0.00218404
0.00912184
0.0049238
0.0203691
0.00823942
0.0343621
0.0114053
0.0486345
0.0139423
0.0610659
0.0157492
0.070941
0.0169721
0.0786767
0.017838
0.0851299
0.0911671
0.0185056
0.000475645
0.0013548
0.00202913
0.00756835
0.00471096
0.0176873
0.00813607
0.030937
0.0115889
0.0451816
0.014495
0.0581599
0.0166532
0.0687827
0.018156
0.0771739
0.019228
0.084058
0.0200474
0.000423553
0.000931251
0.00186035
0.00613155
0.00444373
0.0151039
0.00792236
0.0274584
0.0116303
0.0414737
0.0149123
0.0548779
0.0174549
0.0662401
0.0192769
0.075352
0.000371742
0.000559509
0.00168254
0.00482075
0.00413123
0.0126553
0.00760126
0.0239883
0.0115169
0.037558
0.0151696
0.0512252
0.0181266
0.0632831
0.000321071
0.000238438
0.00150042
0.0036414
0.00378438
0.0103713
0.00718152
0.0205912
0.0112417
0.0334978
0.0152434
0.000272254
-3.38159e-05
0.00131837
0.00259528
0.00341521
0.00827445
0.00667774
0.0173286
0.000225918
-0.000259734
0.00114045
0.00168076
0.00303604
0.00637885
0.000182674
-0.000442408
0.000970504
0.000892925
0.000143272
-0.00058568
0.000223776
0.000108645
-0.000694325
0.0344286
-0.000875191
0.00180194
0.0334897
-0.00313337
0.00407231
0.0325297
-0.00570788
0.00666788
0.031557
-0.00705859
0.00803122
0.0305609
-0.00922426
0.0102204
0.0295307
-0.0103458
0.0113761
0.0284546
-0.0126969
0.013773
0.0273183
-0.0140111
0.0151475
0.0261173
-0.0168224
0.0180234
0.0248452
-0.0184066
0.0196788
0.0235193
-0.0217572
0.023083
0.022155
-0.0233712
0.0247355
0.0208018
-0.0273105
0.0286638
0.0195842
-0.0283401
0.0295576
-0.0333538
0.0347977
0.0345557
-7.55232e-05
0.0337328
-0.00231051
0.0328773
-0.00485236
0.0319995
-0.00618086
0.0310872
-0.00831195
0.0301338
-0.00939239
0.0291241
-0.0116872
0.0280509
-0.0129379
0.0269016
-0.0156731
0.0256825
-0.0171875
0.0243883
-0.020463
0.0230616
-0.0220446
0.0216787
-0.0259276
0.0204191
-0.0270805
-0.0318959
0.0346777
0.000602137
0.0339678
-0.00160068
0.0332135
-0.004098
0.0324301
-0.00539744
0.031601
-0.00748286
0.0307263
-0.00851771
0.0297849
-0.0107458
0.0287776
-0.0119306
0.027682
-0.0145775
0.0265152
-0.0160207
0.0252518
-0.0191996
0.0239562
-0.020749
0.0225584
-0.0245299
0.0212637
-0.0257858
-0.0304339
0.0347941
0.00116337
0.0341923
-0.000998909
0.0335348
-0.00344047
0.0328419
-0.00470456
0.0320928
-0.00673376
0.0312941
-0.00771895
0.0304187
-0.00987041
0.0294753
-0.0109872
0.0284318
-0.0135341
0.0273166
-0.0149054
0.0260843
-0.0179673
0.0248188
-0.0194835
0.023417
-0.0231281
0.0220918
-0.0244605
-0.0289359
0.0349047
0.00161405
0.0344057
-0.000499963
0.0338402
-0.00287493
0.0332335
-0.00409785
0.0325603
-0.00606061
0.0318339
-0.00699251
0.031021
-0.00905753
0.0301386
-0.0101048
0.0291445
-0.01254
0.0280785
-0.0138394
0.0268768
-0.0167657
0.0256386
-0.0182452
0.0242386
-0.0217281
0.0228862
-0.0231082
-0.0274021
0.0350092
0.00196022
0.0346076
-9.83938e-05
0.0341291
-0.00239644
0.0336041
-0.00357287
0.0330028
-0.00545929
0.032345
-0.00633468
0.0315911
-0.00830368
0.0307666
-0.00928024
0.029819
-0.0115924
0.028799
-0.0128195
0.0276271
-0.0155938
0.0264126
-0.0170306
0.0250176
-0.0203332
0.0236424
-0.021733
-0.0258316
0.0351076
0.002208
0.0347975
0.000211649
0.0344011
-0.00199998
0.0339532
-0.00312498
0.0334194
-0.00492552
0.0328263
-0.00574159
0.0321278
-0.00760521
0.0313576
-0.00851005
0.0304537
-0.0106885
0.0294763
-0.0118421
0.0283332
-0.0144506
0.0271392
-0.0158367
0.0257507
-0.0189447
0.0243565
-0.0203388
-0.0242255
0.0351995
0.00236383
0.0349754
0.000435769
0.0346556
-0.00168015
0.03428
-0.00274943
0.0338093
-0.00445483
0.0332769
-0.00520916
0.03263
-0.00695834
0.0319105
-0.0077905
0.0310472
-0.00982522
0.0301088
-0.0109036
0.0289931
-0.013335
0.0278173
-0.0146609
0.0264355
-0.0175629
0.0250252
-0.0189285
-0.0225853
0.0352849
0.00243424
0.0351408
0.000579875
0.0348922
-0.0014315
0.034584
-0.00244126
0.0341718
-0.00404265
0.0336958
-0.00473316
0.0330967
-0.00635926
0.032424
-0.00711771
0.0315985
-0.00899981
0.0306953
-0.0100003
0.0296056
-0.0122453
0.0284456
-0.0135009
0.0270703
-0.0161877
0.0256461
-0.0175042
-0.0209136
0.0353637
0.00242584
0.0352936
0.000650034
0.0351106
-0.00124848
0.0348647
-0.0021954
0.0345064
-0.00368433
0.0340824
-0.0043092
0.0335273
-0.00580411
0.0328972
-0.00648765
0.0321067
-0.00820929
0.0312349
-0.00912858
0.0301694
-0.0111798
0.0290233
-0.0123548
0.0276538
-0.0148182
0.0262173
-0.0160678
-0.0192129
0.0354358
0.0023454
0.0354334
0.000652433
0.0353103
-0.00112542
0.0351216
-0.00200664
0.0348124
-0.00337517
0.034436
-0.00393278
0.0339209
-0.00528901
0.0333295
-0.00589623
0.0325708
-0.00745066
0.031727
-0.00828473
0.0306835
-0.0101363
0.0295495
-0.0112207
0.0281849
-0.0134537
0.0267376
-0.0146204
-0.0174862
0.0355009
0.00219979
0.03556
0.000593384
0.0354912
-0.0010566
0.0353542
-0.00186966
0.0350894
-0.0031104
0.0347559
-0.00359928
0.034277
-0.00481005
0.0337201
-0.00533932
0.0329903
-0.00672086
0.0321709
-0.00746534
0.0311473
-0.00911274
0.0300235
-0.0100969
0.0286631
-0.0120932
0.0272058
-0.0131632
-0.0157364
0.0355591
0.00199601
0.0356732
0.000479316
0.0356528
-0.00103621
0.0355622
-0.00177904
0.035337
-0.00288521
0.0350417
-0.00330401
0.034595
-0.00436329
0.0340684
-0.00481279
0.0333643
-0.00601677
0.0325661
-0.00666708
0.03156
-0.00810661
0.0304448
-0.00898175
0.0290876
-0.010736
0.0276213
-0.011697
-0.0139664
0.0356102
0.00174111
0.0357728
0.000316761
0.035795
-0.00105841
0.0357452
-0.00172926
0.0355548
-0.00269476
0.035293
-0.00304223
0.0348744
-0.00394474
0.0343741
-0.00431251
0.0336925
-0.00533515
0.0329122
-0.00588674
0.0319211
-0.00711552
0.030813
-0.00787365
0.0294581
-0.00938104
0.0279836
-0.0102225
-0.012179
0.0356542
0.00144223
0.0358586
0.000112346
0.0359175
-0.00111728
0.035903
-0.00171471
0.0357423
-0.00253416
0.0355092
-0.00280913
0.0351149
-0.00355036
0.0346368
-0.00383441
0.0339743
-0.00467273
0.0332088
-0.00512123
0.0322303
-0.00613698
0.0311277
-0.00677107
0.0297742
-0.00802757
0.0282923
-0.00874054
-0.010377
0.035691
0.00110658
0.0359305
-0.000127175
0.0360201
-0.00120691
0.0360352
-0.00172971
0.0358995
-0.00239848
0.0356902
-0.00259987
0.0353159
-0.00317607
0.034856
-0.00337446
0.0342094
-0.00402616
0.0334557
-0.00436755
0.0324873
-0.00516855
0.0313887
-0.00567251
0.030036
-0.00667482
0.0285473
-0.00725182
-0.00856284
0.0357205
0.000741405
0.0359884
-0.000395038
0.0361028
-0.0013213
0.0361416
-0.00176854
0.0360259
-0.00228276
0.0358356
-0.0024096
0.0354773
-0.00281772
0.0350315
-0.00292867
0.0343974
-0.00339206
0.0336526
-0.00362281
0.0326919
-0.00420778
0.0315959
-0.00457659
0.0302432
-0.00532209
0.0287485
-0.00575714
-0.00673893
0.0357427
0.000354024
0.0360321
-0.000684445
0.0361652
-0.00145439
0.0362221
-0.00182542
0.0361214
-0.00218203
0.0359452
-0.00223345
0.0355986
-0.00247116
0.0351631
-0.00249309
0.034538
-0.00276701
0.0337994
-0.00288415
0.0328439
-0.00325229
0.0317493
-0.00348201
0.0303959
-0.00396873
0.0288961
-0.00425734
-0.00490747
0.0357576
-4.82491e-05
0.0360617
-0.000988511
0.0362074
-0.00160013
0.0362765
-0.00189452
0.0361857
-0.00209124
0.0360188
-0.00206655
0.0356799
-0.00213217
0.0352506
-0.0020638
0.0346312
-0.00214761
0.0338958
-0.00214882
0.0329432
-0.00229966
0.0318487
-0.00238755
0.0304942
-0.00261415
0.0289901
-0.00275332
-0.00307064
0.0357652
0.036077
0.0362293
0.0363048
0.0362189
0.0360564
0.0357207
0.0352938
0.0346766
0.033942
0.03299
0.0318942
0.0305379
0.0290303
0.202037
-0.000233137
0.202604
-0.000566609
0.203442
-0.000838183
0.204428
-0.000986225
0.205529
-0.00110144
0.206662
-0.00113235
0.207808
-0.00114645
0.208913
-0.00110451
0.209974
-0.00106114
0.210956
-0.000982594
0.211871
-0.000914849
0.212696
-0.000824398
0.213449
-0.000753557
0.214114
-0.000665042
-0.000601287
0.214716
0.192606
-0.000455701
0.193146
-0.00110577
0.193944
-0.00163623
0.194884
-0.00192604
0.195936
-0.00215404
0.197021
-0.00221709
0.198123
-0.00224874
0.199188
-0.00216946
0.200215
-0.00208782
0.201168
-0.00193534
0.202057
-0.00180427
0.202859
-0.0016269
0.203594
-0.00148856
0.204243
-0.00131409
-0.00119017
0.204832
0.183616
-0.000668151
0.184124
-0.00161316
0.184882
-0.00239514
0.185777
-0.00282107
0.186788
-0.00316442
0.187833
-0.00326174
0.188901
-0.00331759
0.189938
-0.00320598
0.190943
-0.00309329
0.191879
-0.00287142
0.192758
-0.0026827
0.193552
-0.00242112
0.194283
-0.00221914
0.194928
-0.00195956
-0.00177739
0.195515
0.175045
-0.000870941
0.17552
-0.00208722
0.176239
-0.00311506
0.17709
-0.00367171
0.178061
-0.00413526
0.179069
-0.00427013
0.180111
-0.00435939
0.181127
-0.00422176
0.182121
-0.00408724
0.183051
-0.00380111
0.183929
-0.00356148
0.184726
-0.00321806
0.185464
-0.0029565
0.186116
-0.00261167
-0.00237372
0.186712
0.166875
-0.0010644
0.167314
-0.00252618
0.167994
-0.00379561
0.1688
-0.00447717
0.169732
-0.00506743
0.170705
-0.00524368
0.171724
-0.00537783
0.172724
-0.00522156
0.173713
-0.00507649
0.174644
-0.00473183
0.175531
-0.00444936
0.17634
-0.00402639
0.177093
-0.00371
0.177761
-0.00327908
-0.00298801
0.178375
0.159085
-0.00124867
0.159487
-0.00292807
0.160127
-0.00443606
0.160886
-0.00523568
0.161779
-0.0059602
0.162717
-0.00618174
0.163713
-0.00637428
0.164699
-0.00620757
0.165688
-0.00606531
0.166625
-0.00566858
0.167528
-0.00535295
0.168355
-0.00485288
0.169132
-0.00448739
0.169822
-0.00396905
-0.00362797
0.170462
0.151658
-0.00142357
0.152021
-0.003291
0.152621
-0.00503556
0.15333
-0.00594457
0.154181
-0.00681161
0.155081
-0.00708191
0.156055
-0.00734815
0.157027
-0.00717975
0.158018
-0.00705578
0.158963
-0.00661419
0.159887
-0.00627699
0.160737
-0.00570264
0.161545
-0.00529507
0.162264
-0.00468772
-0.00430052
0.162936
0.144577
-0.00158859
0.1449
-0.00361351
0.145458
-0.00559323
0.146113
-0.00660041
0.146921
-0.0076188
0.147779
-0.00794046
0.148728
-0.0082972
0.149685
-0.00813608
0.150677
-0.00804802
0.151632
-0.00756959
0.15258
-0.00722453
0.153456
-0.0065793
0.1543
-0.00613827
0.155052
-0.00544028
-0.00501189
0.155764
0.137826
-0.00174279
0.138107
-0.0038949
0.138622
-0.00610812
0.139221
-0.00719942
0.139981
-0.00837848
0.140793
-0.00875262
0.141713
-0.00921791
0.14265
-0.00907284
0.143643
-0.00904044
0.144607
-0.00853389
0.14558
-0.0081971
0.146485
-0.0074851
0.147368
-0.00702117
0.148159
-0.00623107
-0.00576774
0.148915
0.131387
-0.00188481
0.131628
-0.00413555
0.132099
-0.00657907
0.132637
-0.00773792
0.133346
-0.00908716
0.134106
-0.00951293
0.134994
-0.0101057
0.135906
-0.00998482
0.136895
-0.0100299
0.137866
-0.00950455
0.138864
-0.00919473
0.1398
-0.0084209
0.140725
-0.00794688
0.141558
-0.00706354
-0.00657313
0.142363
0.125247
-0.00201299
0.125448
-0.00433707
0.125874
-0.00700446
0.126349
-0.00821294
0.127003
-0.0097414
0.127706
-0.0102156
0.128556
-0.0109554
0.129436
-0.0108656
0.130418
-0.0110118
0.131391
-0.0104775
0.132412
-0.010216
0.133378
-0.00938625
0.134348
-0.00891746
0.135225
-0.00794034
-0.00743257
0.136085
0.119391
-0.0021255
0.119556
-0.0045022
0.119934
-0.00738219
0.120344
-0.00862276
0.12094
-0.0103378
0.121579
-0.0108549
0.122385
-0.0117614
0.123227
-0.0117078
0.124196
-0.0119806
0.125166
-0.0114471
0.126208
-0.0112581
0.127201
-0.0103794
0.128218
-0.00993391
0.12914
-0.00886323
-0.00834996
0.130058
0.113806
-0.00222059
0.113938
-0.00463458
0.114266
-0.00770973
0.11461
-0.00896731
0.115145
-0.0108731
0.115716
-0.0114258
0.116473
-0.0125176
0.117268
-0.0125034
0.118217
-0.0129296
0.119177
-0.0124067
0.120235
-0.0123169
0.121253
-0.0113971
0.122315
-0.0109961
0.123285
-0.00983306
-0.00932854
0.124264
0.108479
-0.00229694
0.108583
-0.00473827
0.108857
-0.0079844
0.109139
-0.00924832
0.109609
-0.0113436
0.110108
-0.0119243
0.110808
-0.0132181
0.111549
-0.0132443
0.112471
-0.0138513
0.113412
-0.013348
0.114482
-0.0133868
0.11552
-0.012435
0.116626
-0.0121027
0.117643
-0.0108497
-0.0103709
0.118685
0.1034
-0.00235377
0.103479
-0.00481725
0.103698
-0.00820392
0.103919
-0.00946913
0.104321
-0.0117458
0.104745
-0.0123483
0.105383
-0.0138563
0.106061
-0.0139225
0.106948
-0.0147378
0.107862
-0.014262
0.108936
-0.0144611
0.109988
-0.0134872
0.111137
-0.013251
0.112199
-0.0119121
-0.0114787
0.113307
0.0985561
-0.0023911
0.0986138
-0.00487497
0.0987769
-0.00836697
0.0989419
-0.00963417
0.0992723
-0.0120762
0.0996215
-0.0126975
0.100191
-0.0144258
0.1008
-0.0145311
0.101642
-0.0155804
0.102519
-0.0151387
0.103589
-0.0155318
0.104649
-0.0145466
0.105835
-0.0144371
0.106941
-0.013018
-0.0126529
0.108115
0.0939387
-0.00240972
0.0939778
-0.00491405
0.0940845
-0.00847368
0.0941986
-0.00974833
0.0944543
-0.0123318
0.0947303
-0.0129735
0.0952239
-0.0149194
0.0957576
-0.0150647
0.0965468
-0.0163695
0.0973758
-0.0159677
0.0984339
-0.0165899
0.099492
-0.0156046
0.100711
-0.0156557
0.101857
-0.0141642
-0.0138933
0.103097
0.0895374
-0.00241112
0.0895595
-0.00493618
0.0896117
-0.00852583
0.0896797
-0.00981632
0.0898588
-0.0125109
0.0900648
-0.0131795
0.0904757
-0.0153304
0.0909312
-0.0155202
0.0916567
-0.017095
0.0924281
-0.0167391
0.0934635
-0.0176253
0.0945101
-0.0166513
0.0957546
-0.0169002
0.0969367
-0.0153463
-0.0151989
0.0982423
0.0853428
-0.00239737
0.0853489
-0.0049422
0.0853499
-0.00852687
0.0853758
-0.00984223
0.0854782
-0.0126133
0.0856182
-0.0133195
0.0859402
-0.0156524
0.0863164
-0.0158963
0.0869668
-0.0177454
0.0876715
-0.0174438
0.0886731
-0.0186268
0.0896969
-0.0176751
0.0909595
-0.0181628
0.0921718
-0.0165586
-0.0165673
0.0935402
0.0813457
-0.00237083
0.0813358
-0.00493228
0.0812906
-0.00848169
0.0812776
-0.00982922
0.0813054
-0.0126411
0.0813835
-0.0133976
0.0816117
-0.0158806
0.0819092
-0.0161939
0.0824726
-0.0183088
0.0831036
-0.0180748
0.0840581
-0.0195814
0.0850471
-0.0186641
0.0863191
-0.0194349
0.0875542
-0.0177937
-0.0179953
0.0889823
0.077537
-0.00233396
0.077511
-0.00490625
0.0774255
-0.00839615
0.0773758
-0.00977958
0.0773332
-0.0125985
0.077353
-0.0134173
0.0774848
-0.0160124
0.0777057
-0.0164148
0.0781699
-0.018773
0.0787225
-0.0186274
0.0796148
-0.0204737
0.0805569
-0.0196062
0.0818285
-0.0207065
0.0830772
-0.0190424
-0.0194789
0.0845607
0.073908
-0.00228908
0.0738657
-0.00486401
0.0737461
-0.00827648
0.0736614
-0.00969489
0.0735547
-0.0124918
0.0735187
-0.0133814
0.0735547
-0.0160484
0.0737013
-0.0165614
0.0740553
-0.019127
0.0745272
-0.0190992
0.0753393
-0.0212858
0.0762239
-0.0204908
0.0774836
-0.0219662
0.0787351
-0.0202939
-0.0210133
0.0802695
0.0704499
-0.00223819
0.0703918
-0.00480581
0.070244
-0.00812873
0.0701255
-0.00957639
0.0699624
-0.0123287
0.0698724
-0.0132913
0.0698167
-0.0159927
0.0698904
-0.0166351
0.0701263
-0.019363
0.070517
-0.01949
0.0712286
-0.0219973
0.0720478
-0.0213101
0.0732808
-0.0231992
0.0745236
-0.0215366
-0.0225945
0.0761048
0.0671546
-0.00218284
0.0670813
-0.00473247
0.0669109
-0.00795835
0.0667602
-0.0094257
0.066549
-0.0121175
0.0664061
-0.0131485
0.0662661
-0.0158526
0.0662668
-0.0166358
0.0663816
-0.0194777
0.0666907
-0.0197991
0.0672812
-0.0225878
0.0680304
-0.0220593
0.0692162
-0.024385
0.0704377
-0.0227581
-0.0242228
0.0720661
0.064014
-0.00212417
0.0639269
-0.00464536
0.0637384
-0.00776986
0.0635579
-0.0092452
0.0633065
-0.0118661
0.0631124
-0.0129544
0.0628977
-0.0156379
0.0628244
-0.0165625
0.0628208
-0.0194741
0.0630457
-0.0200239
0.0634978
-0.0230399
0.0641761
-0.0227376
0.0652866
-0.0254956
0.0664727
-0.0239442
-0.0259066
0.0681565
0.0610206
-0.0020629
0.0609216
-0.00454636
0.0607186
-0.00756689
0.0605117
-0.00903824
0.0602269
-0.0115813
0.0599846
-0.0127121
0.0597054
-0.0153587
0.0595573
-0.0164144
0.0594436
-0.0193604
0.0595784
-0.0201588
0.0598817
-0.0233432
0.0604892
-0.0233452
0.0614914
-0.0264978
0.0626293
-0.025082
-0.027653
0.0643756
0.0581673
-0.00199957
0.0580585
-0.00443757
0.057844
-0.00735236
0.0576147
-0.00880898
0.0573023
-0.0112689
0.0570168
-0.0124266
0.0566824
-0.0150242
0.0564612
-0.0161932
0.0562483
-0.0191476
0.0562857
-0.0201962
0.0564373
-0.0234947
0.0569683
-0.0238762
0.0578314
-0.027361
0.0589252
-0.0261758
-0.0294351
0.0607074
0.0554475
-0.00193459
0.0553311
-0.00432112
0.0551076
-0.00712891
0.0548606
-0.00856193
0.0545259
-0.0109342
0.0542035
-0.0121043
0.0538222
-0.014643
0.0535325
-0.0159035
0.0532321
-0.0188471
0.0531655
-0.0201297
0.0531687
-0.0234979
0.0536004
-0.0243078
0.0542939
-0.0280545
0.0553929
-0.0272748
-0.0311675
0.0571253
0.0528551
-0.00186842
0.0527331
-0.00419913
0.0525034
-0.00689917
0.0522433
-0.00830181
0.0518912
-0.0105822
0.0515394
-0.0117524
0.0511188
-0.0142224
0.0507683
-0.015553
0.0503894
-0.0184682
0.0502172
-0.0199574
0.0500758
-0.0233565
0.0503715
-0.0246036
0.0508334
-0.0285164
0.052017
-0.0284584
-0.0328237
0.0536732
0.0503845
0.0502577
0.0500264
0.0497558
0.049394
0.0490176
0.0485682
0.0481626
0.0477177
0.0474391
0.0471656
0.0472976
0.047445
0.0485443
0.0505183
0.213154
0.00156184
0.211654
0.00149983
0.210226
0.00142819
0.208872
0.00135392
0.207595
0.00127717
0.206397
0.00119808
0.20528
0.00111676
0.204247
0.00103333
0.203299
0.000947913
0.202438
0.000860639
0.201666
0.000771641
0.200985
0.000681055
0.200396
0.000589022
0.199901
0.000495685
0.199499
0.000401193
0.199194
0.000305691
0.198984
0.000209339
0.198872
0.000112293
0.198857
1.48124e-05
-8.33439e-05
0.198941
0.20334
0.00305416
0.201907
0.00293249
0.200544
0.00279186
0.199252
0.0026461
0.198033
0.00249551
0.196891
0.00234039
0.195827
0.00218096
0.194843
0.00201746
0.19394
0.00185012
0.193122
0.00167919
0.192389
0.00150493
0.191742
0.00132762
0.191183
0.00114752
0.190714
0.000964925
0.190335
0.00078011
0.190048
0.000593369
0.189852
0.000404998
0.189749
0.000215296
0.189739
2.46523e-05
-0.000166952
0.189823
0.194092
0.0044777
0.192725
0.00429919
0.191425
0.00409212
0.190193
0.00387746
0.189033
0.00365583
0.187946
0.00342766
0.186934
0.00319327
0.185998
0.00295297
0.185141
0.00270711
0.184364
0.00245604
0.183669
0.00220016
0.183057
0.00193987
0.182529
0.00167556
0.182086
0.00140763
0.18173
0.00113651
0.18146
0.000862608
0.181279
0.000586368
0.181186
0.000308229
0.181182
2.88489e-05
-0.000252123
0.181267
0.185356
0.00583375
0.184054
0.0056015
0.182815
0.00533047
0.181643
0.00504948
0.18054
0.00475952
0.179506
0.00446118
0.178545
0.00415485
0.177657
0.0038409
0.176844
0.00351976
0.176108
0.00319192
0.17545
0.00285789
0.174872
0.00251817
0.174374
0.00217328
0.173958
0.00182374
0.173625
0.0014701
0.173374
0.0011129
0.173208
0.000752697
0.173126
0.000390068
0.173129
2.59211e-05
-0.000340397
0.173217
0.177085
0.00712341
0.175846
0.00684068
0.174668
0.00650816
0.173555
0.0061633
0.172507
0.0058076
0.171526
0.00544187
0.170614
0.00506651
0.169773
0.00468193
0.169004
0.00428865
0.168309
0.00388726
0.167688
0.00347838
0.167144
0.00306262
0.166677
0.00264062
0.166287
0.00221302
0.165977
0.00178046
0.165746
0.00134362
0.165596
0.000903163
0.165526
0.000459801
0.165537
1.49318e-05
-0.000433163
0.16563
0.169238
0.0083475
0.168061
0.00801767
0.166943
0.00762608
0.165887
0.00721974
0.164893
0.00680085
0.163965
0.00637043
0.163103
0.00592887
0.162308
0.0054766
0.161582
0.00501418
0.160927
0.00454234
0.160344
0.00406179
0.159833
0.00357327
0.159396
0.0030775
0.159034
0.00257523
0.158747
0.0020672
0.158537
0.00155421
0.158403
0.00103704
0.158346
0.000516509
0.158367
-5.46911e-06
-0.000531758
0.158465
0.161777
0.00950657
0.160662
0.00913304
0.159603
0.00868479
0.158603
0.00821933
0.157664
0.00773975
0.156788
0.00724728
0.155974
0.00674229
0.155226
0.00622516
0.154543
0.00569655
0.153928
0.00515725
0.153382
0.00460812
0.152905
0.00404998
0.152499
0.00348365
0.152164
0.00290997
0.151902
0.00232981
0.151712
0.00174404
0.151595
0.00115357
0.151553
0.000559333
0.151584
-3.71965e-05
-0.000637359
0.15169
0.154669
0.0106008
0.153615
0.010187
0.152616
0.0096845