/*--------------------------------*- C++ -*----------------------------------*\
  =========                 |
  \\      /  F ield         | OpenFOAM: The Open Source CFD Toolbox
   \\    /   O peration     | Website:  https://openfoam.org
    \\  /    A nd           | Version:  7
     \\/     M anipulation  |
\*---------------------------------------------------------------------------*/
FoamFile
{
    version     2.0;
    format      ascii;
    class       surfaceScalarField;
    location    "375";
    object      phi;
}
// * * * * * * * * * * * * * * * * * * * * * * * * * * * * * * * * * * * * * //

dimensions      [0 3 -1 0 0 0 0];

internalField   nonuniform List<scalar> 
16735
(
-0.00012922
-0.00190732
0.00203655
-0.000458899
-0.00407527
0.00440495
-0.00095769
-0.00509867
0.00559746
-0.00159782
-0.00525586
0.00589599
-0.0023583
-0.00484364
0.00560411
-0.00322401
-0.00408287
0.00494858
-0.00418348
-0.00305704
0.0040165
-0.00522982
-0.00170806
0.0027544
-0.00636135
0.000128883
0.00100265
0.0027391
-0.0015103
-0.00759014
-0.000139729
-0.0017676
-0.00048589
-0.00372911
-0.000998474
-0.00458609
-0.00164603
-0.0046083
-0.00240737
-0.0040823
-0.00326874
-0.00322149
-0.00421975
-0.00210603
-0.00525335
-0.000674459
-0.0063662
0.00124174
0.0039312
-0.00755831
-0.000146272
-0.00162132
-0.000500396
-0.00337499
-0.00101462
-0.00407187
-0.00165344
-0.00396949
-0.0023941
-0.00334163
-0.00322204
-0.00239356
-0.0041249
-0.00120317
-0.00509099
0.000291629
-0.00611093
0.00226168
0.00498569
-0.00716542
-0.000149396
-0.00147193
-0.000504298
-0.00302008
-0.00100998
-0.00356618
-0.00162641
-0.00335306
-0.00232782
-0.00264022
-0.0030967
-0.00162468
-0.00391587
-0.000383995
-0.00476558
0.00114134
-0.00562559
0.00312169
0.00581291
-0.00645281
-0.000149858
-0.00132207
-0.000500047
-0.0026699
-0.000989484
-0.00307674
-0.00157305
-0.0027695
-0.00222063
-0.00199265
-0.00290987
-0.000935433
-0.00361648
0.00032261
-0.00430938
0.00183425
-0.00495451
0.00376681
0.00633986
-0.00548146
-0.00014854
-0.00117353
-0.000490423
-0.00232801
-0.00095865
-0.00260852
-0.00150254
-0.0022256
-0.00208646
-0.00140873
-0.00268174
-0.000340156
-0.00325526
0.000896136
-0.00376227
0.00234125
-0.00415281
0.00415736
0.00651423
-0.00432718
-0.000146353
-0.00102718
-0.000478253
-0.00199611
-0.000923089
-0.00216368
-0.00142428
-0.00172441
-0.00193982
-0.000893181
-0.00243373
0.000153753
-0.00286314
0.00132554
-0.00316811
0.00264622
-0.00328155
0.0042708
0.00630682
-0.00307415
-0.000144135
-0.000883042
-0.000466096
-0.00167415
-0.000887882
-0.0017419
-0.00134685
-0.00126545
-0.00179422
-0.000445808
-0.0021862
0.000545735
-0.00246998
0.00160932
-0.00256997
0.00274621
-0.00240094
0.00410177
0.00571361
-0.00180773
-0.000142541
-0.000740501
-0.000455932
-0.00136076
-0.000856955
-0.00134087
-0.00127697
-0.000845429
-0.0016604
-6.23789e-05
-0.00195568
0.00084101
-0.00210042
0.00175406
-0.00200358
0.00264938
-0.00155963
0.00365782
0.00476664
-0.000612665
-0.000141958
-0.000598543
-0.000448875
-0.00105384
-0.000832487
-0.000957261
-0.00121843
-0.000459487
-0.00154456
0.000263754
-0.00175194
0.00104839
-0.00176925
0.00177137
-0.00149032
0.00237045
-0.000780941
0.00294844
0.0034316
0.000554106
-0.000142426
-0.000456117
-0.000444953
-0.000751316
-0.000814446
-0.000587768
-0.00117112
-0.000102808
-0.00144664
0.000539273
-0.00157514
0.00117688
-0.00147714
0.00167338
-0.00102993
0.00192324
-2.31556e-05
0.00194166
0.00173893
0.00166951
-0.000143611
-0.000312506
-0.00044301
-0.000451918
-0.000800327
-0.000230451
-0.00113054
0.00022741
-0.00135915
0.000767874
-0.00141333
0.00123106
-0.00120639
0.00146644
-0.000608414
0.00132525
0.000581491
0.000751758
-0.000407293
0.00272771
-0.000144822
-0.000167684
-0.00044075
-0.00015599
-0.000785227
0.000114026
-0.00108777
0.000529953
-0.00126688
0.000946988
-0.00124124
0.00120542
-0.000916001
0.00114121
-0.000162794
0.000572048
0.00129889
-0.000709922
-0.00297182
0.00386341
-0.000145085
-2.25989e-05
-0.000434983
0.000133908
-0.000762316
0.00044136
-0.0010303
0.000797938
-0.00114847
0.00106516
-0.00102323
0.00108018
-0.00054463
0.000662602
0.00044391
-0.000416492
0.00222489
-0.00249091
-0.0059843
0.00523738
-0.000143289
0.00012069
-0.000422046
0.000412665
-0.000723708
0.000743022
-0.000943683
0.00101791
-0.000979437
0.00110091
-0.000719094
0.000819837
-2.10961e-05
-3.53952e-05
0.00126377
-0.00170135
0.00349449
-0.00472163
-0.00948601
0.0069962
-0.000138368
0.000259058
-0.000398349
0.000672646
-0.000661588
0.00100626
-0.000813589
0.00116991
-0.000735955
0.00102328
-0.000294317
0.000378199
0.000673707
-0.00100342
0.00237661
-0.00340426
0.00519847
-0.00754348
-0.0134954
0.00920789
-0.000129483
0.000388541
-0.000360959
0.000904123
-0.000569417
0.00121472
-0.000627975
0.00122847
-0.000398283
0.000793588
0.00028268
-0.000302764
0.00161432
-0.00233505
0.00382727
-0.00561721
0.00734437
-0.0110606
-0.017972
0.0118209
-0.00011619
0.000504731
-0.00030809
0.00109602
-0.000442977
0.0013496
-0.000379042
0.00116454
4.56641e-05
0.000368881
0.00102619
-0.00128329
0.00279869
-0.00410755
0.00561358
-0.0084321
0.00984804
-0.015295
-0.0228035
0.0146796
-9.85242e-05
0.000603255
-0.000239373
0.00123687
-0.000280934
0.00139117
-6.42077e-05
0.000947811
0.00059874
-0.000294067
0.00193553
-0.00262009
0.00421206
-0.00638408
0.00769554
-0.0119156
0.0125672
-0.0201667
-0.0278231
0.0175868
-7.69723e-05
0.000680227
-0.000155813
0.00131571
-8.47689e-05
0.00132012
0.000314049
0.000548994
0.00125534
-0.00123536
0.00299591
-0.00436065
0.00581512
-0.0092033
0.00998086
-0.0160813
0.0153623
-0.0255482
-0.0329021
0.0204414
-5.23517e-05
0.000732579
-5.93697e-05
0.00132273
0.000141921
0.00111883
0.000749548
-5.86328e-05
0.00200366
-0.00248946
0.00418216
-0.00653916
0.00755191
-0.0125731
0.012308
-0.0208374
0.0180057
-0.031246
-0.0407633
0.0258669
-2.56439e-05
0.000758223
4.72598e-05
0.00124983
0.000394558
0.000771533
0.00123429
-0.000898362
0.00282867
-0.00408385
0.0054629
-0.00917338
0.00935883
-0.016469
0.0145569
-0.0260355
0.0205337
-0.0372228
-0.047987
0.0277575
2.79442e-06
0.000755428
0.000161977
0.00109064
0.000668778
0.000264732
0.00176035
-0.00198993
0.00371454
-0.00603804
0.00680287
-0.0122617
0.011162
-0.0208281
0.0166304
-0.0315039
0.0226327
-0.0432251
-0.0544319
0.0290776
3.15615e-05
0.000723867
0.000283332
0.000838873
0.000961385
-0.000413321
0.00232088
-0.00334943
0.00464509
-0.00836225
0.00816306
-0.0157797
0.012882
-0.0255471
0.0184407
-0.0370626
0.024199
-0.0489833
-0.0601232
0.0298902
6.13244e-05
0.000662543
0.000410723
0.000489474
0.00127055
-0.00127315
0.00291007
-0.00498894
0.0056026
-0.0110548
0.00949915
-0.0196762
0.0144424
-0.0304904
0.0199044
-0.0425246
0.0252463
-0.0543253
-0.0650606
0.0301837
9.21517e-05
0.000570391
0.0005445
3.71258e-05
0.00159551
-0.00232416
0.00352204
-0.00691547
0.0065657
-0.0140984
0.0107616
-0.0238721
0.0157759
-0.0355047
0.0209781
-0.0477267
0.0257968
-0.059144
-0.0692803
0.0300164
0.000124607
0.000445783
0.000685553
-0.00052382
0.00193571
-0.00357431
0.00414908
-0.00912885
0.00750776
-0.0174571
0.0118994
-0.0282638
0.0168329
-0.0404382
0.0216522
-0.052546
0.0259036
-0.0633954
-0.0728528
0.0294761
0.000159353
0.000286431
0.00083476
-0.00119923
0.00228958
-0.00502914
0.00477995
-0.0116192
0.00839728
-0.0210745
0.0128664
-0.032733
0.0175862
-0.0451579
0.0219461
-0.0569059
0.025633
-0.0670823
-0.0758582
0.0286384
0.000196948
8.94823e-05
0.000992429
-0.00199471
0.00265365
-0.00669035
0.00539912
-0.0143647
0.00920051
-0.0248758
0.0136275
-0.03716
0.0180313
-0.0495617
0.0218976
-0.0607722
0.0250529
-0.0702376
-0.0783801
0.0275748
0.000237704
-0.000148222
0.00115788
-0.00291488
0.00302182
-0.0085543
0.00598728
-0.0173302
0.00988584
-0.0287744
0.0141624
-0.0414366
0.0181825
-0.0535817
0.0215544
-0.0641442
0.0242279
-0.0729111
-0.0804949
0.0263427
0.000281598
-0.00042982
0.00132922
-0.0039625
0.00338545
-0.0106105
0.00652318
-0.0204679
0.010428
-0.0326792
0.0144663
-0.0454749
0.0180668
-0.0571823
0.0209664
-0.0670437
0.0232143
-0.0751591
-0.082269
0.0249884
0.000328257
-0.000758078
0.00150339
-0.00513764
0.00373381
-0.0128409
0.00698618
-0.0237203
0.0108109
-0.0365039
0.0145472
-0.0492112
0.0177185
-0.0603535
0.0201814
-0.0695065
0.0220592
-0.0770369
-0.083757
0.0235472
0.000376991
-0.00113507
0.00167634
-0.00643699
0.00405512
-0.0152197
0.00735884
-0.027024
0.0110284
-0.0401734
0.0144227
-0.0526055
0.0171738
-0.0631047
0.0192422
-0.0715749
0.0208006
-0.0785954
-0.085002
0.0220456
0.000426851
-0.00156192
0.0018433
-0.00785344
0.00433766
-0.0177141
0.00762869
-0.030315
0.0110831
-0.0436279
0.0141157
-0.0556381
0.0164685
-0.0654575
0.0181855
-0.0732919
0.0194684
-0.0798783
-0.0860367
0.0205031
0.000476703
-0.00203862
0.00199915
-0.00937589
0.004571
-0.0202859
0.00778911
-0.0335331
0.0109847
-0.0468235
0.0136518
-0.0583052
0.015635
-0.0674406
0.0170417
-0.0746987
0.0180853
-0.0809219
-0.0868853
0.018934
0.00052529
-0.00256391
0.00213881
-0.0109894
0.00474687
-0.022894
0.00783907
-0.0366253
0.0107474
-0.0497318
0.0130569
-0.0606147
0.0147021
-0.0690859
0.0158355
-0.0758321
0.0166688
-0.0817551
-0.0875653
0.0173487
0.000571301
-0.00313521
0.00225751
-0.0126756
0.00485974
-0.0254962
0.0077823
-0.0395479
0.0103878
-0.0523373
0.0123553
-0.0625822
0.0136945
-0.070425
0.0145862
-0.0767238
0.0152317
-0.0824006
-0.0880886
0.015755
0.000613434
-0.00374865
0.00235121
-0.0144134
0.00490703
-0.028052
0.0076261
-0.0422669
0.0099237
-0.0546349
0.0115692
-0.0642277
0.0126324
-0.0714883
0.0133091
-0.0774005
0.0137837
-0.0828752
-0.0884636
0.0141587
0.000650448
-0.0043991
0.00241675
-0.0161797
0.00488889
-0.0305242
0.0073801
-0.0447582
0.0093725
-0.0566273
0.0107182
-0.0655734
0.0115327
-0.0723028
0.0120158
-0.0778835
0.0123321
-0.0831916
-0.0886957
0.0125643
0.000681224
-0.00508032
0.00245204
-0.0179505
0.00480784
-0.03288
0.00705525
-0.0470056
0.00875064
-0.0583227
0.00981914
-0.0666419
0.0104089
-0.0728925
0.0107155
-0.0781902
0.0108825
-0.0833586
-0.088789
0.0109758
0.000704808
-0.00578513
0.00245608
-0.0197018
0.00466818
-0.0350921
0.00666291
-0.0490003
0.00807313
-0.0597329
0.00888617
-0.0674549
0.00927156
-0.0732779
0.00941499
-0.0783336
0.00943916
-0.0833828
-0.0887459
0.00939604
0.000720442
-0.00650557
0.00242894
-0.0214103
0.0044754
-0.0371385
0.0062143
-0.0507392
0.00735326
-0.0608719
0.00793108
-0.0680328
0.00812927
-0.0734761
0.00811966
-0.078324
0.00800536
-0.0832685
-0.0885675
0.00782704
0.00072759
-0.00723316
0.0023716
-0.0230543
0.00423576
-0.0390027
0.00572004
-0.0522235
0.00660264
-0.0617545
0.00696357
-0.0683937
0.00698862
-0.0735011
0.00683359
-0.0781689
0.00658388
-0.0830188
-0.0882543
0.00627065
0.000725942
-0.0079591
0.00228582
-0.0246142
0.00395577
-0.0406726
0.00518992
-0.0534576
0.00583124
-0.0623958
0.00599155
-0.068554
0.00585483
-0.0733644
0.00555986
-0.077874
0.00517682
-0.0826357
-0.0878059
0.00472842
0.000715408
-0.00867451
0.00217391
-0.0260727
0.00364191
-0.0421406
0.00463273
-0.0544484
0.0050475
-0.0628105
0.00502147
-0.068528
0.00473224
-0.0730752
0.00430115
-0.0774429
0.0037854
-0.08212
-0.087222
0.00320149
0.000696108
-0.00937062
0.00203854
-0.0274151
0.00330039
-0.0434025
0.00405627
-0.0552043
0.00425848
-0.0630128
0.00405858
-0.0683281
0.00362464
-0.0726413
0.00306086
-0.0768791
0.00240993
-0.0814691
-0.0864999
0.00168787
0.000668365
-0.010039
0.00188267
-0.0286294
0.00293705
-0.0444569
0.00346731
-0.0557346
0.00347002
-0.0630155
0.00310698
-0.067965
0.00253493
-0.0720692
0.00184293
-0.0761871
0.00105626
-0.0806824
-0.0855967
0.000153056
0.000632696
-0.0106717
0.00170954
-0.0297062
0.00255727
-0.0453046
0.0028717
-0.056049
0.00268695
-0.0628307
0.00216992
-0.067448
0.00146472
-0.071364
0.000645277
-0.0753676
-0.000254633
-0.0797825
-0.084581
-0.00127033
0.000589756
-0.0112614
0.00152214
-0.0306386
0.0021659
-0.0459484
0.00227447
-0.0561576
0.00191318
-0.0624694
0.00125006
-0.0667849
0.000414477
-0.0705284
-0.000528767
-0.0744244
-0.00156951
-0.0787417
-0.083459
-0.00269156
0.000540309
-0.0118017
0.00132338
-0.0314217
0.00176731
-0.0463923
0.00167982
-0.0560701
0.00115186
-0.0619415
0.000349003
-0.065982
-0.000609332
-0.0695701
-0.00167331
-0.0733604
-0.00284286
-0.0775722
-0.0822086
-0.00409325
0.000485217
-0.012287
0.00111603
-0.0320525
0.00136537
-0.0466416
0.00109114
-0.0557958
0.000405805
-0.0612561
-0.000529114
-0.0650471
-0.00160766
-0.0684916
-0.00279416
-0.0721739
-0.00408697
-0.0762794
-0.0808282
-0.00546738
0.000425379
-0.0127123
0.000902853
-0.03253
0.000963493
-0.0467023
0.000511636
-0.055344
-0.000322719
-0.0604218
-0.00138429
-0.0639855
-0.00258175
-0.0672941
-0.00388719
-0.0708685
-0.00530223
-0.0748643
-0.0793195
-0.0068109
0.000361648
-0.013074
0.000686421
-0.0328548
0.000564899
-0.0465808
-5.12086e-05
-0.0547279
-0.00103154
-0.0594414
-0.00221681
-0.0628003
-0.00352969
-0.0659812
-0.00495128
-0.0694469
-0.00648725
-0.0733284
-0.0776851
-0.00812169
0.000294976
-0.013369
0.000468794
-0.0330286
0.000176786
-0.0462887
-0.000610917
-0.0539402
-0.00172216
-0.0583302
-0.00302521
-0.0614972
-0.00445046
-0.064556
-0.00598566
-0.0679117
-0.00764063
-0.0716734
-0.0759286
-0.00939708
0.000227096
-0.0135961
0.000252012
-0.0330535
-0.000214522
-0.0458222
-0.00115109
-0.0530036
-0.00239184
-0.0570894
-0.00380872
-0.0600803
-0.00534335
-0.0630213
-0.00698968
-0.0662654
-0.00876094
-0.0699021
-0.0740562
-0.0106334
0.000158089
-0.0137542
4.97429e-05
-0.0329452
-0.000600135
-0.0451723
-0.00167743
-0.0519263
-0.0030399
-0.055727
-0.00456666
-0.0585536
-0.00620778
-0.0613802
-0.0079626
-0.0645105
-0.00984693
-0.0680178
-0.0720722
-0.0118309
8.46607e-05
-0.0138388
-0.000179888
-0.0326806
-0.000972657
-0.0443796
-0.00218679
-0.0507122
-0.00366568
-0.0542481
-0.00529853
-0.0569207
-0.00704337
-0.0596354
-0.0089039
-0.06265
-0.0108986
-0.0660231
-0.0699736
-0.0129971
3.06437e-06
-0.0138419
-0.000401254
-0.0322763
-0.00133475
-0.0434461
-0.00267786
-0.0493691
-0.00426837
-0.0526576
-0.00600397
-0.0551851
-0.00785049
-0.0577889
-0.00981457
-0.0606859
-0.0119148
-0.0639229
-0.0677594
-0.014129
-6.54327e-05
-0.0137764
-0.000611731
-0.03173
-0.00168474
-0.0423731
-0.00315014
-0.0479037
-0.00484729
-0.0509604
-0.00668253
-0.0533499
-0.00862978
-0.0558416
-0.0106978
-0.0586179
-0.0128905
-0.0617302
-0.0654436
-0.0152064
-0.000137748
-0.0136387
-0.00081476
-0.031053
-0.00202159
-0.0411662
-0.00360306
-0.0463222
-0.0054018
-0.0491617
-0.00733329
-0.0514184
-0.00937941
-0.0537955
-0.0115523
-0.056445
-0.0138629
-0.0594196
-0.0631643
-0.0161422
-0.00020933
-0.0134294
-0.0010109
-0.0302514
-0.00234459
-0.0398325
-0.00403605
-0.0446308
-0.00593148
-0.0472663
-0.00795533
-0.0493945
-0.0100949
-0.051656
-0.0123506
-0.0541893
-0.0146871
-0.057083
-0.0603973
-0.0174541
-0.000279246
-0.0131501
-0.00119984
-0.0293308
-0.00265333
-0.0383791
-0.00444872
-0.0428354
-0.00643616
-0.0452788
-0.00854806
-0.0472826
-0.0107729
-0.0494311
-0.013107
-0.0518552
-0.0155682
-0.0546219
-0.0576443
-0.0183212
-0.000347071
-0.012803
-0.00138108
-0.0282968
-0.00294741
-0.0368127
-0.00484079
-0.040942
-0.00691556
-0.0432041
-0.00911137
-0.0450868
-0.0114196
-0.0471229
-0.013845
-0.0494298
-0.0164211
-0.0520458
-0.0548638
-0.0192015
-0.000412496
-0.0123906
-0.00155413
-0.0271552
-0.0032265
-0.0351404
-0.00521199
-0.0389565
-0.0073693
-0.0410468
-0.00964453
-0.0428116
-0.0120323
-0.0447351
-0.0145425
-0.0469196
-0.0172052
-0.0493831
-0.05203
-0.020039
-0.000475253
-0.0119153
-0.00171859
-0.0259118
-0.00349031
-0.0333686
-0.00556215
-0.0368846
-0.00779727
-0.0388116
-0.0101478
-0.040461
-0.0126117
-0.0422712
-0.0152019
-0.0443294
-0.0179426
-0.0466425
-0.0491321
-0.0208405
-0.000535101
-0.0113802
-0.00187409
-0.0245728
-0.00373859
-0.0315041
-0.00589113
-0.0347321
-0.00819934
-0.0365034
-0.010621
-0.0380394
-0.0131569
-0.0397353
-0.0158213
-0.0416649
-0.0186343
-0.0438295
-0.0461662
-0.0216003
-0.000591825
-0.0107884
-0.00202033
-0.0231443
-0.00397116
-0.0295533
-0.00619881
-0.0325045
-0.00857544
-0.0341268
-0.0110639
-0.035551
-0.0136676
-0.0371316
-0.0164012
-0.0389313
-0.0192825
-0.0409482
-0.0431321
-0.0223166
-0.000645234
-0.0101431
-0.00215708
-0.0216325
-0.00418784
-0.0275225
-0.00648514
-0.0302072
-0.00892549
-0.0316864
-0.0114764
-0.033
-0.0141434
-0.0344646
-0.0169415
-0.0361332
-0.0198875
-0.0380022
-0.040032
-0.0229877
-0.000695159
-0.00944798
-0.00228412
-0.0200435
-0.00438852
-0.0254181
-0.00675004
-0.0278456
-0.00924944
-0.029187
-0.0118584
-0.030391
-0.0145843
-0.0317388
-0.0174423
-0.0332752
-0.0204489
-0.0349956
-0.036869
-0.0236119
-0.000741453
-0.00870653
-0.00240128
-0.0183837
-0.0045731
-0.0232463
-0.0069935
-0.0254252
-0.00954723
-0.0266333
-0.0122098
-0.0277284
-0.01499
-0.0289586
-0.0179034
-0.0303618
-0.0209664
-0.0319325
-0.0336471
-0.0241883
-0.000783992
-0.00792253
-0.00250842
-0.0166593
-0.0047415
-0.0210132
-0.00721547
-0.0229513
-0.00981884
-0.0240299
-0.0125305
-0.0250168
-0.0153604
-0.0261287
-0.0183246
-0.0273976
-0.0214395
-0.0288176
-0.030371
-0.0247156
-0.000822664
-0.00709987
-0.00260542
-0.0148765
-0.00489367
-0.018725
-0.00741594
-0.020429
-0.0100642
-0.0213817
-0.0128203
-0.0222606
-0.0156953
-0.0232537
-0.0187056
-0.0243873
-0.0218677
-0.0256555
-0.0270455
-0.0251932
-0.000857378
-0.00624249
-0.00269219
-0.0130417
-0.00502956
-0.0163876
-0.00759491
-0.0178636
-0.0102833
-0.0186932
-0.0130793
-0.0194647
-0.0159947
-0.0203383
-0.0190463
-0.0213357
-0.0222507
-0.0224512
-0.0236757
-0.0256205
-0.000888055
-0.00535444
-0.00276865
-0.0111611
-0.00514915
-0.0140071
-0.00775236
-0.0152604
-0.0104762
-0.0159694
-0.0133073
-0.0166336
-0.0162584
-0.0173872
-0.0193464
-0.0182476
-0.022588
-0.0192096
-0.0202669
-0.0259968
-0.000914626
-0.00443981
-0.00283472
-0.00924101
-0.00525241
-0.0115894
-0.0078883
-0.0126245
-0.0106427
-0.013215
-0.0135043
-0.0137721
-0.0164862
-0.0144052
-0.0196058
-0.015128
-0.0228796
-0.0159358
-0.0168245
-0.026322
-0.000937039
-0.00350277
-0.00289037
-0.00728768
-0.00533932
-0.00914049
-0.00800273
-0.00996114
-0.010783
-0.0104347
-0.0136702
-0.0108849
-0.0166782
-0.0113972
-0.0198243
-0.0119819
-0.0231252
-0.0126349
-0.0133539
-0.0265958
-0.000955248
-0.00254752
-0.00293555
-0.00530737
-0.00540988
-0.00666616
-0.00809564
-0.00727538
-0.0108969
-0.00763342
-0.013805
-0.00797682
-0.0168342
-0.00836795
-0.0200019
-0.00881416
-0.0233247
-0.00931214
-0.00986053
-0.0268181
-0.000969218
-0.0015783
-0.00297023
-0.00330636
-0.00546407
-0.00417233
-0.00816706
-0.00457239
-0.0109845
-0.00481594
-0.0139087
-0.00505263
-0.0169542
-0.00532244
-0.0201385
-0.00562986
-0.0234781
-0.00597256
-0.00634977
-0.0269889
-0.000978925
-0.00059938
-0.0029944
-0.00129089
-0.0055019
-0.00166482
-0.00821699
-0.0018573
-0.0110459
-0.00198708
-0.0139813
-0.00211714
-0.0170383
-0.00226553
-0.0202341
-0.00243401
-0.0235853
-0.00262135
-0.00282709
-0.027108
-0.000984351
0.000384971
-0.00300803
0.000732792
-0.00552338
0.00085053
-0.00824544
0.000864766
-0.0110809
0.000848344
-0.0140228
0.000824839
-0.0170863
0.000797883
-0.0202886
0.000768348
-0.0236463
0.000736364
0.000701541
-0.027175
-0.000985487
0.00137046
-0.00301112
0.00275843
-0.0055285
0.0033679
-0.00825243
0.0035887
-0.0110896
0.00368551
-0.0140332
0.00376849
-0.0170983
0.00386291
-0.0203022
0.00397226
-0.0236614
0.00409556
0.00423235
-0.0271922
-0.000982333
0.00235279
-0.00300369
0.00477979
-0.00551727
0.00588149
-0.00823796
0.00630938
-0.011072
0.0065196
-0.0140125
0.00670899
-0.0170743
0.00692463
-0.0202747
0.00717268
-0.0236302
0.0074511
0.00775903
-0.0271569
-0.000974897
0.00332769
-0.00298573
0.00679062
-0.00548971
0.00838547
-0.00820205
0.00902172
-0.0110282
0.0093458
-0.0139608
0.00964153
-0.0170143
0.00997815
-0.0202062
0.0103646
-0.0235529
0.0107978
0.0112762
-0.02707
-0.000963194
0.00429088
-0.00295727
0.0087847
-0.00544584
0.010874
-0.00814472
0.0117206
-0.0109582
0.0121593
-0.013878
0.0125613
-0.0169184
0.0130186
-0.0200968
0.0135429
-0.0234295
0.0141305
0.0147784
-0.0269317
-0.000947247
0.00523813
-0.00291833
0.0107558
-0.00538566
0.0133414
-0.00806597
0.0144009
-0.010862
0.0149553
-0.0137642
0.0154636
-0.0167867
0.016041
-0.0199464
0.0167027
-0.02326
0.0174441
0.0182603
-0.0267419
-0.000927091
0.00616522
-0.00286895
0.0126976
-0.0053092
0.0157816
-0.00796584
0.0170576
-0.0107396
0.017729
-0.0136195
0.0183435
-0.0166191
0.0190406
-0.0197554
0.0198389
-0.0230447
0.0207334
0.0217164
-0.0265008
-0.000902766
0.00706799
-0.00280918
0.0146041
-0.00521649
0.0181889
-0.00784435
0.0196854
-0.010591
0.0204757
-0.0134439
0.0211964
-0.0164159
0.0220126
-0.0195237
0.0229467
-0.0227836
0.0239933
0.0251414
-0.0262085
-0.000874324
0.00794231
-0.00273906
0.0164688
-0.00510756
0.0205574
-0.0077015
0.0222794
-0.0104164
0.0231906
-0.0132376
0.0240176
-0.0161771
0.0249521
-0.0192515
0.0260211
-0.022477
0.0272188
0.0285297
-0.0258653
-0.000841826
0.00878414
-0.00265866
0.0182856
-0.00498245
0.0228812
-0.00753735
0.0248343
-0.0102157
0.025869
-0.0130005
0.0268024
-0.0159029
0.0278546
-0.0189391
0.0290572
-0.0221251
0.0304048
0.0318762
-0.0254716
-0.000805346
0.00958948
-0.00256806
0.0200483
-0.0048412
0.0251544
-0.0073519
0.027345
-0.00998909
0.0285062
-0.0127329
0.0295462
-0.0155935
0.0307152
-0.0185867
0.0320504
-0.0217285
0.0335466
0.0351758
-0.0250281
-0.000764969
0.0103545
-0.00246735
0.0217507
-0.00468387
0.0273709
-0.0071452
0.0298063
-0.00973653
0.0310975
-0.0124348
0.0322444
-0.015249
0.0335294
-0.0181947
0.0349961
-0.0212876
0.0366395
0.0384237
-0.0245355
-0.000720795
0.0110752
-0.00235665
0.0233866
-0.00451051
0.0295247
-0.00691729
0.0322131
-0.00945811
0.0336383
-0.0121063
0.0348927
-0.0148697
0.0362928
-0.0177633
0.0378897
-0.0208029
0.0396791
0.0416155
-0.0239947
-0.00067294
0.0117482
-0.00223609
0.0249497
-0.0043212
0.0316098
-0.00666822
0.0345601
-0.00915391
0.036124
-0.0117477
0.0374864
-0.0144557
0.0390008
-0.0172927
0.0407267
-0.020275
0.0426615
0.0447473
-0.0234069
-0.000621535
0.0123697
-0.00210581
0.026434
-0.00411605
0.0336201
-0.00639802
0.0368421
-0.00882401
0.03855
-0.011359
0.0400214
-0.0140071
0.0416489
-0.0167831
0.0435027
-0.0197045
0.0455828
0.0478165
-0.0227736
-0.000566732
0.0129365
-0.00196601
0.0278333
-0.00389516
0.0355492
-0.00610678
0.0390537
-0.00846847
0.0409117
-0.0109403
0.0424933
-0.0135243
0.0442329
-0.0162346
0.046213
-0.0190915
0.0484397
0.0508216
-0.0220966
-0.000508702
0.0134452
-0.00181691
0.0291415
-0.00365869
0.037391
-0.00579457
0.0411896
-0.00808739
0.0432045
-0.010492
0.0448979
-0.0130075
0.0467484
-0.0156471
0.0488525
-0.0184359
0.0512286
0.0537641
-0.0213784
-0.000447641
0.0138928
-0.00165877
0.0303526
-0.00340681
0.039139
-0.00546148
0.0432442
-0.00768084
0.0454239
-0.010014
0.0472311
-0.012457
0.0491914
-0.0150197
0.0514152
-0.0177347
0.0539435
0.0566505
-0.0206211
-0.000383764
0.0142766
-0.0014919
0.0314607
-0.00313973
0.0407869
-0.00510768
0.0452122
-0.00724897
0.0475652
-0.00950676
0.0494889
-0.0118743
0.0515589
-0.0143555
0.0538965
-0.0169872
0.0565753
0.0594938
-0.0198305
-0.000317312
0.0145939
-0.00131665
0.0324601
-0.0028577
0.0423279
-0.0047333
0.0470878
-0.00679188
0.0496237
-0.0089697
0.0516667
-0.0112576
0.0538469
-0.0136499
0.0562887
-0.0161644
0.0590898
0.0623216
-0.0189922
-0.000248558
0.0148424
-0.00113344
0.033345
-0.00256102
0.0437555
-0.00433858
0.0488653
-0.00630997
0.0515951
-0.00840375
0.0537605
-0.0106108
0.0560539
-0.0129312
0.0586091
-0.0153209
0.0614794
0.0651748
-0.0181741
-0.000177849
0.0150203
-0.000942733
0.0341099
-0.00225001
0.0450628
-0.00392379
0.0505391
-0.00580355
0.0534749
-0.007809
0.0557659
-0.00992622
0.0581712
-0.0121692
0.0608521
-0.0145444
0.0638546
0.067459
-0.0168285
-0.000105788
0.0151261
-0.000744877
0.0347489
-0.00192501
0.0462429
-0.00348923
0.0521033
-0.00527273
0.0552584
-0.00718599
0.0576792
-0.00920713
0.0601923
-0.0113461
0.0629911
-0.0136018
0.0661103
0.0698184
-0.0159612
-3.43515e-05
0.0151604
-0.000539769
0.0352544
-0.00158653
0.0472897
-0.00303537
0.0535522
-0.00471792
0.0569409
-0.00653574
0.059497
-0.00845909
0.0621156
-0.0104956
0.0650276
-0.0126607
0.0682754
0.0720873
-0.0149296
4.15375e-05
0.0151189
-0.000325865
0.0356218
-0.00123533
0.0481991
-0.00256286
0.0548797
-0.00413976
0.0585178
-0.00585933
0.0612166
-0.00768452
0.0639408
-0.0096204
0.0669635
-0.0116837
0.0703386
0.074245
-0.0138413
0.000118864
0.015
-9.57783e-05
0.0358364
-0.000872932
0.0489763
-0.00207206
0.0560788
-0.00353886
0.0599847
-0.00515731
0.062835
-0.00688277
0.0656663
-0.0087167
0.0687974
-0.0106744
0.0722964
0.0762948
-0.0127243
0.000191183
0.0148088
0.000117987
0.0359096
-0.000501459
0.0495957
-0.00156341
0.0571408
-0.00291599
0.0613372
-0.00443002
0.0643491
-0.00605333
0.0672896
-0.00778294
0.070527
-0.00963274
0.0741462
0.0782409
-0.0115788
0.000260583
0.0145482
0.000326729
0.0358435
-0.000107801
0.0500303
-0.00103876
0.0580717
-0.00227183
0.0625703
-0.00367779
0.065755
-0.0051965
0.0688083
-0.00681955
0.0721501
-0.00855823
0.0758849
0.0800775
-0.0103948
0.000329055
0.0142192
0.000543554
0.035629
0.000272942
0.0503009
-0.000502349
0.058847
-0.00160678
0.0636747
-0.00290128
0.0670495
-0.00431285
0.0702199
-0.00582719
0.0736644
-0.00745207
0.0775098
0.0817976
-0.00917221
0.000395917
0.0138233
0.000761325
0.0352635
0.000662754
0.0503995
5.55451e-05
0.0594542
-0.000921765
0.064652
-0.00210117
0.0682289
-0.00340292
0.0715216
-0.00480637
0.0750678
-0.00631541
0.0790188
0.0833974
-0.00791518
0.000459877
0.0133634
0.000978348
0.0347451
0.00106083
0.050317
0.000614192
0.0599009
-0.000219628
0.0654859
-0.00127813
0.0692874
-0.00246739
0.0727109
-0.00375773
0.0763582
-0.00514946
0.0804105
0.0848745
-0.00662658
0.000520046
0.0128434
0.00119237
0.0340728
0.00146229
0.0500471
0.0011908
0.0601724
0.000502321
0.0661743
-0.000433878
0.0702236
-0.00150735
0.0737843
-0.0026821
0.0775329
-0.00395576
0.0816842
0.0862269
-0.00530814
0.000575568
0.0122678
0.00140091
0.0332474
0.00186433
0.0495836
0.00177648
0.0602602
0.00124128
0.0667095
0.0004334
0.0710315
-0.000525071
0.0747428
-0.00158076
0.0785886
-0.00273579
0.0828392
0.0874532
-0.00396211
0.000625562
0.0116422
0.00160138
0.0322716
0.00226372
0.0489213
0.00236847
0.0601555
0.0019953
0.0670827
0.00132237
0.0717045
0.000482608
0.0755826
-0.000458903
0.0795301
-0.00148866
0.083869
0.0885563
-0.0025918
0.000669191
0.010973
0.00179113
0.0311497
0.00265679
0.0480556
0.00296373
0.0598485
0.00276187
0.0672846
0.00222961
0.0722367
0.00151504
0.0762971
0.000693166
0.080352
-0.000199334
0.0847615
0.0895626
-0.00120562
0.000705701
0.0102673
0.00196739
0.029888
0.0030395
0.0469835
0.00355847
0.0593296
0.00353821
0.0673048
0.00315373
0.0726212
0.00256642
0.0768845
0.00186588
0.0810525
0.00107728
0.0855501
0.0904559
0.000184035
0.000734444
0.00953289
0.0021273
0.0284951
0.00340735
0.0457035
0.0041481
0.0585888
0.00432084
0.0671321
0.00409239
0.0728496
0.00363635
0.0773405
0.00305718
0.0816317
0.00239774
0.0862095
0.0911776
0.00167597
0.000754899
0.00877799
0.00226787
0.0269821
0.00375532
0.044216
0.00472733
0.0576168
0.00510552
0.0667539
0.00504284
0.0729123
0.00472368
0.0776597
0.00426962
0.0820858
0.00373762
0.0867415
0.0917696
0.00314565
0.000766704
0.00801128
0.00238596
0.0253629
0.00407792
0.0425241
0.00529001
0.0564047
0.00588712
0.0661568
0.00600159
0.0727979
0.00582601
0.0778352
0.00549951
0.0824123
0.00509135
0.0871497
0.0922354
0.00462554
0.000769712
0.00724157
0.00247891
0.0236537
0.00436929
0.0406337
0.00582907
0.0549449
0.00665941
0.0653265
0.00696419
0.0724931
0.00694012
0.0778593
0.00674384
0.0826085
0.00645907
0.0874344
0.0925768
0.00611773
0.000763978
0.00647759
0.00254436
0.0218733
0.00462325
0.0385548
0.00633648
0.0532317
0.00741496
0.064248
0.00792512
0.0719829
0.00806245
0.077722
0.00800048
0.0826705
0.00784001
0.0875949
0.0927954
0.00762135
0.000749759
0.00572784
0.00258039
0.0200427
0.00483349
0.0363017
0.00680326
0.0512619
0.00814499
0.0629062
0.00887769
0.0712502
0.00918876
0.0774109
0.00926708
0.0825922
0.00923261
0.0876294
0.0928928
0.0091352
0.000727524
0.00500031
0.00258576
0.0181844
0.00499383
0.0338936
0.00721957
0.0490362
0.00883924
0.0612866
0.00981369
0.0702758
0.0103137
0.0769109
0.0105405
0.0823654
0.0106348
0.0875351
0.092869
0.0106587
0.00069795
0.00430236
0.00256005
0.0163223
0.00509855
0.0313551
0.00757488
0.0465599
0.00948586
0.0593756
0.0107231
0.0690385
0.0114305
0.0762035
0.0118167
0.0819792
0.0120442
0.0873076
0.092723
0.0121902
0.000661901
0.00364046
0.00250381
0.0144804
0.00514285
0.0287161
0.00785829
0.0438444
0.0100714
0.0571625
0.0115939
0.067516
0.0125304
0.0752669
0.0130904
0.0814192
0.0134575
0.0869406
0.0924535
0.013727
0.000620406
0.00302005
0.00241865
0.0126822
0.00512339
0.0260113
0.00805897
0.0409088
0.010581
0.0546404
0.0124116
0.0656854
0.0136026
0.0740759
0.0143548
0.0806671
0.0148708
0.0864245
0.0920578
0.0152665
0.000574606
0.00244545
0.00230718
0.0109496
0.00503877
0.0232798
0.00816689
0.0377807
0.0109986
0.0518088
0.0131595
0.0635245
0.0146335
0.0726019
0.0156007
0.0796999
0.0162789
0.0857463
0.0915314
0.0168053
0.000525705
0.00191974
0.00217298
0.00930234
0.00489006
0.0205627
0.00817361
0.0344972
0.0113073
0.0486751
0.0138181
0.0610137
0.0156064
0.0708136
0.0168168
0.0784895
0.0176749
0.0848883
0.0908667
0.0183395
0.000474903
0.00144484
0.00202029
0.00775695
0.0046811
0.0179019
0.00807342
0.0311049
0.0114907
0.0452578
0.014366
0.0581383
0.0165013
0.0686784
0.017988
0.0770027
0.0190496
0.0838268
0.0900524
0.0198639
0.000423339
0.0010215
0.00185384
0.00632645
0.00441848
0.0153372
0.00786449
0.0276589
0.0115336
0.0415887
0.0147799
0.0548921
0.0172942
0.066164
0.0190956
0.0752013
0.0203906
0.0825318
0.0890715
0.0213715
0.000372043
0.000649459
0.00167848
0.00502001
0.00411128
0.0129044
0.00754995
0.0242202
0.0114243
0.0377144
0.0150357
0.0512806
0.017958
0.0632417
0.020116
0.0730433
0.0216817
0.0809661
0.0879005
0.0228527
0.000321918
0.000327541
0.00149902
0.00384291
0.00377048
0.010633
0.00713866
0.020852
0.0111558
0.0336972
0.0151106
0.0473258
0.018462
0.0598903
0.0210206
0.0704847
0.0229015
0.0790852
0.0865077
0.0242943
0.000273759
5.37818e-05
0.00132001
0.00279666
0.00340823
0.00854474
0.00664536
0.0176149
0.0107291
0.0296134
0.014985
0.0430699
0.0187741
0.0561013
0.0217753
0.0674835
0.0240222
0.0768383
0.0848512
0.0256787