/*--------------------------------*- C++ -*----------------------------------*\
  =========                 |
  \\      /  F ield         | OpenFOAM: The Open Source CFD Toolbox
   \\    /   O peration     | Website:  https://openfoam.org
    \\  /    A nd           | Version:  7
     \\/     M anipulation  |
\*---------------------------------------------------------------------------*/
FoamFile
{
    version     2.0;
    format      ascii;
    class       volVectorField;
    location    "65";
    object      U;
}
// * * * * * * * * * * * * * * * * * * * * * * * * * * * * * * * * * * * * * //

dimensions      [0 1 -1 0 0 0 0];

internalField   nonuniform List<vector> 
2125
(
(-0.0182549 0.013463 -5.74124e-20)
(-0.0175747 0.0120961 2.08298e-20)
(-0.0181146 0.0204282 2.25568e-20)
(-0.0163145 0.0105525 -1.41568e-20)
(-0.00971086 0.016305 -1.04181e-20)
(-0.0143483 0.00884294 2.98137e-20)
(0.00109293 0.0120628 -8.22485e-21)
(0.0616271 0.0137177 -4.92537e-21)
(-0.0115432 0.00699244 -1.09487e-20)
(0.0146003 0.00783828 -6.53537e-20)
(0.0911669 0.0100222 6.76388e-21)
(0.218006 0.0170869 2.33635e-20)
(-0.00776432 0.00504309 -1.21128e-20)
(0.0310917 0.00380874 2.31506e-20)
(0.125669 0.00736449 3.03104e-20)
(0.274188 0.0187738 -2.16298e-20)
(0.469593 0.0426443 8.04389e-21)
(0.690036 0.0783941 -4.90382e-20)
(-0.00287958 0.00305612 -1.57603e-20)
(0.0508069 0.000193872 -5.40561e-21)
(0.165237 0.00611887 -5.51138e-20)
(0.336099 0.0230889 -8.63716e-21)
(0.550275 0.0545094 -8.91623e-22)
(0.777426 0.0966347 2.93355e-21)
(0.979341 0.139435 4.98434e-21)
(0.00323485 0.00111244 -4.16315e-21)
(0.073926 -0.00274593 1.91744e-20)
(0.209802 0.00668611 2.69928e-20)
(0.402878 0.0303954 1.68692e-20)
(0.632407 0.069649 -4.94427e-21)
(0.860268 0.116982 -4.16469e-21)
(1.04834 0.160436 4.1213e-20)
(1.17836 0.191579 5.65509e-21)
(0.0106877 -0.000687031 3.98276e-20)
(0.10055 -0.00471444 2.55717e-20)
(0.259093 0.0094727 -2.59207e-20)
(0.473333 0.0409452 -5.1528e-21)
(0.713812 0.0877973 2.73499e-21)
(0.936645 0.138842 -9.87579e-21)
(1.10734 0.18141 -2.12785e-20)
(1.2162 0.209118 -3.46956e-21)
(1.27282 0.22279 2.48615e-22)
(1.2953 0.222682 8.82185e-21)
(0.0195655 -0.00222324 5.07372e-21)
(0.130683 -0.00538941 -1.40117e-20)
(0.312621 0.0148628 3.31843e-20)
(0.546012 0.0548446 2.15396e-20)
(0.792448 0.108561 7.36964e-22)
(1.00529 0.161689 1.52417e-20)
(1.15653 0.202059 2.20878e-21)
(1.24511 0.225743 -1.62158e-20)
(1.286 0.235111 1.37828e-20)
(1.29875 0.232511 -3.2297e-23)
(0.0299266 -0.00336165 -3.31719e-20)
(0.164215 -0.00443489 -9.73722e-21)
(0.369676 0.0231863 -8.72777e-21)
(0.619315 0.0720455 -1.51831e-20)
(0.866593 0.131488 3.65212e-21)
(1.06553 0.185092 8.34486e-23)
(1.19649 0.222211 1.18485e-20)
(1.26636 0.241527 -1.91801e-21)
(1.29401 0.246778 -1.41953e-20)
(1.29913 0.24197 -1.32805e-20)
(0.0417943 -0.00395566 2.72213e-21)
(0.200911 -0.00151701 1.58734e-20)
(0.429348 0.0346883 7.70869e-21)
(0.69163 0.0923641 -2.39209e-20)
(0.93493 0.156129 -1.16012e-21)
(1.11722 0.208723 -1.03108e-20)
(1.22806 0.241789 2.62591e-22)
(1.28118 0.256583 4.80818e-21)
(1.29793 0.257968 -5.34908e-21)
(1.29719 0.251218 1.49314e-20)
(0.0551508 -0.00385118 6.46805e-21)
(0.240409 0.00367779 -1.56335e-20)
(0.490579 0.0495067 -3.67863e-20)
(0.761456 0.115517 3.37999e-20)
(0.996572 0.182069 -2.5129e-21)
(1.16053 0.232343 7.42486e-21)
(1.25217 0.26078 -1.03269e-21)
(1.29066 0.271036 7.1435e-21)
(1.29862 0.268835 -5.41437e-22)
(1.29345 0.260366 -1.15666e-20)
(0.0699332 -0.00289222 -1.32367e-20)
(0.282221 0.0114236 2.04658e-20)
(0.552217 0.0676631 1.67711e-20)
(0.827495 0.141161 -2.42232e-20)
(1.05101 0.208945 -4.04086e-21)
(1.19592 0.255787 1.52199e-21)
(1.26973 0.27921 1.53303e-20)
(1.29573 0.285008 7.5913e-22)
(1.29674 0.279497 2.9413e-21)
(1.28827 0.26948 -6.34439e-21)
(0.0860307 -0.000927142 1.00473e-20)
(0.325748 0.0219367 -8.98464e-21)
(0.613091 0.0890666 -7.68134e-21)
(0.888701 0.168923 1.30885e-20)
(1.09805 0.236442 4.49361e-21)
(1.22395 0.278942 3.39842e-21)
(1.28162 0.297125 -1.56347e-20)
(1.29716 0.298603 -5.30882e-21)
(1.29277 0.290041 -4.7221e-21)
(1.28188 0.278593 2.09163e-21)
(0.103285 0.00218458 -5.07714e-21)
(0.370301 0.0353605 -1.12464e-22)
(0.672075 0.113528 1.45515e-20)
(0.944293 0.198424 -5.30003e-21)
(1.13773 0.264293 -2.35965e-21)
(1.24525 0.301731 -1.54458e-21)
(1.28861 0.314573 3.78498e-21)
(1.29554 0.311904 6.48134e-21)
(1.28708 0.300517 -2.02899e-22)
(1.27445 0.287707 2.31946e-21)
(0.121491 0.00656528 3.5856e-21)
(0.415127 0.0517546 -1.00453e-21)
(0.728141 0.140777 -2.61842e-21)
(0.993734 0.229294 -2.36825e-21)
(1.17027 0.292269 2.12404e-21)
(1.26046 0.324099 1.64502e-21)
(1.29137 0.331594 -1.51047e-21)
(1.29136 0.324964 5.37268e-22)
(1.27988 0.310944 7.48003e-22)
(1.26605 0.296799 -9.83452e-22)
(0.140403 0.0123124 1.95904e-21)
(0.459447 0.0710908 5.53023e-22)
(0.780397 0.170485 -3.29134e-21)
(1.03671 0.261172 -2.61558e-21)
(1.19599 0.320169 2.70983e-21)
(1.27019 0.345999 5.28033e-22)
(1.29046 0.348214 -1.19589e-21)
(1.28497 0.337808 1.11504e-21)
(1.27135 0.321311 6.09174e-22)
(1.25675 0.305829 -6.84245e-22)
(0.159742 0.0194925 -7.60095e-22)
(0.502481 0.0932534 1.54375e-21)
(0.828103 0.202278 1.01965e-20)
(1.07306 0.293713 -4.52502e-21)
(1.21525 0.347812 -2.17925e-21)
(1.275 0.367386 -2.42441e-21)
(1.28634 0.364439 4.90979e-21)
(1.27665 0.350435 3.21471e-21)
(1.2616 0.331583 2.52011e-21)
(1.24658 0.314744 1.33748e-21)
(0.179199 0.0281362 1.58292e-20)
(0.543481 0.118045 -8.6263e-21)
(0.870682 0.235754 -9.7257e-21)
(1.1028 0.326586 1.31764e-20)
(1.22848 0.375031 6.86111e-21)
(1.27537 0.388209 -4.4303e-22)
(1.27938 0.380255 -8.14296e-21)
(1.26657 0.362817 -5.79391e-21)
(1.25069 0.341705 -5.83122e-21)
(1.23556 0.323481 3.35929e-21)
(0.198453 0.0382356 -2.14485e-20)
(0.58176 0.145195 2.00255e-20)
(0.907708 0.270492 2.29575e-20)
(1.12602 0.359472 -2.24237e-20)
(1.23608 0.401664 -7.65108e-21)
(1.27176 0.408408 4.79481e-21)
(1.26988 0.395624 8.52629e-21)
(1.25489 0.374903 1.28115e-21)
(1.23867 0.351599 -1.69649e-22)
(1.22371 0.331968 -4.45751e-21)
(0.217174 0.0497423 -3.12567e-21)
(0.616705 0.174371 -2.82786e-20)
(0.938894 0.306064 -3.00948e-20)
(1.14291 0.392067 3.33921e-20)
(1.23848 0.427556 -3.75743e-21)
(1.26454 0.42791 6.63097e-21)
(1.25807 0.410493 1.22595e-21)
(1.24169 0.386621 -3.53842e-21)
(1.22555 0.361171 1.88224e-21)
(1.211 0.340118 -1.32476e-22)
(0.235036 0.062568 6.31877e-21)
(0.647796 0.20519 1.75771e-20)
(0.964083 0.342038 9.87746e-21)
(1.1537 0.424074 -7.77397e-21)
(1.23605 0.45255 -1.18033e-20)
(1.25404 0.44663 -1.0697e-20)
(1.24415 0.424789 -2.07856e-21)
(1.22706 0.397892 5.19784e-21)
(1.21134 0.37033 -1.08069e-21)
(1.19734 0.347847 2.4341e-21)
(0.251726 0.0765866 -2.3993e-20)
(0.674607 0.237232 -2.2142e-20)
(0.983225 0.377985 -3.47001e-21)
(1.15868 0.455208 -3.9172e-21)
(1.22916 0.476488 -8.57809e-21)
(1.24055 0.464471 5.05891e-21)
(1.22827 0.438428 -9.41088e-22)
(1.21105 0.408635 -4.52456e-21)
(1.19602 0.379021 4.06506e-21)
(1.18256 0.35509 -5.18776e-21)
(0.266953 0.0916377 5.70563e-21)
(0.696819 0.270048 1.8766e-20)
(0.99636 0.413482 1.61119e-20)
(1.15815 0.485196 1.72817e-20)
(1.21818 0.49921 4.53602e-22)
(1.22432 0.481323 1.40518e-20)
(1.21056 0.451308 7.1092e-22)
(1.19372 0.418757 -1.48574e-20)
(1.17965 0.387242 1.00659e-20)
(1.16667 0.361789 3.6579e-21)
(0.280455 0.107531 1.55901e-20)
(0.714213 0.303179 3.44757e-20)
(1.00361 0.448118 -4.53701e-21)
(1.15244 0.513771 -2.16982e-20)
(1.20343 0.520553 9.58849e-21)
(1.20557 0.497068 -9.57921e-21)
(1.19113 0.463313 -1.17987e-20)
(1.17515 0.428137 -4.88882e-22)
(1.16226 0.39494 -7.72118e-21)
(1.15011 0.367817 2.71663e-21)
(0.292006 0.124049 7.24655e-21)
(0.726666 0.336161 5.23511e-21)
(1.00515 0.481497 4.21385e-20)
(1.14188 0.540681 7.59371e-21)
(1.18521 0.540358 -6.38239e-21)
(1.18449 0.511579 -3.20641e-21)
(1.1701 0.474319 1.73073e-20)
(1.15545 0.436671 1.3214e-20)
(1.14384 0.40188 6.08165e-21)
(1.13299 0.373221 -6.13368e-22)
(0.301423 0.140958 1.45876e-21)
(0.734141 0.368536 -3.51546e-20)
(1.00122 0.513242 -4.93867e-20)
(1.12683 0.565683 1.27761e-21)
(1.16381 0.558471 8.79164e-21)
(1.16126 0.524721 -1.18639e-20)
(1.14767 0.4842 -2.40733e-20)
(1.13463 0.444257 -6.52524e-21)
(1.12441 0.407966 -3.1728e-22)
(1.11521 0.377811 1.32607e-21)
(0.308563 0.158007 -1.24945e-20)
(0.736678 0.39986 3.10891e-20)
(0.992102 0.542991 2.94597e-20)
(1.10764 0.588552 -2.59877e-20)
(1.13953 0.574744 4.03939e-21)
(1.13616 0.53635 2.62409e-20)
(1.12391 0.492829 -4.27798e-21)
(1.11269 0.450799 3.75345e-21)
(1.10411 0.413082 -6.99178e-22)
(1.09677 0.381504 -6.45862e-22)
(0.313329 0.174943 -2.7858e-20)
(0.734394 0.429712 -4.90617e-20)
(0.978136 0.570411 -9.45155e-21)
(1.08465 0.609058 1.50736e-20)
(1.11265 0.589 1.33286e-20)
(1.10934 0.546354 -2.52059e-20)
(1.09886 0.500082 1.18043e-20)
(1.08977 0.456174 -3.6947e-21)
(1.08301 0.417136 1.43568e-21)
(1.07771 0.384215 6.3036e-22)
(0.315673 0.191512 2.13165e-20)
(0.727496 0.457697 1.73603e-21)
(0.959736 0.595237 -4.66663e-21)
(1.05815 0.626966 -1.7632e-20)
(1.08342 0.601079 9.68094e-21)
(1.08096 0.554574 2.97165e-21)
(1.0727 0.505855 -4.58063e-21)
(1.06597 0.460279 2.33837e-21)
(1.06119 0.420029 9.00239e-22)
(1.05811 0.385867 -2.61141e-21)
(0.315597 0.207454 -5.59937e-21)
(0.71628 0.483425 -7.32323e-21)
(0.937277 0.617261 1.91821e-20)
(1.02839 0.642078 8.61128e-21)
(1.05213 0.610793 -1.0772e-20)
(1.05119 0.560881 1.04457e-20)
(1.04555 0.51003 1.70041e-21)
(1.04138 0.463015 2.91653e-21)
(1.03872 0.42166 6.41656e-21)
(1.03806 0.386366 1.01629e-21)
(0.313165 0.222512 3.57317e-20)
(0.701073 0.506541 2.72572e-20)
(0.910792 0.636081 -2.68402e-21)
(0.995921 0.654395 -3.30013e-21)
(1.0191 0.617989 -3.94759e-21)
(1.02026 0.56515 -1.53481e-21)
(1.01756 0.512504 2.96479e-21)
(1.01613 0.464294 8.84982e-23)
(1.01569 0.421933 -5.7311e-21)
(1.01761 0.385614 -6.79262e-21)
(0.308461 0.236429 1.9236e-21)
(0.682085 0.526912 4.08756e-21)
(0.880605 0.65135 -2.20548e-20)
(0.961235 0.663611 8.62885e-21)
(0.984587 0.622655 -1.11061e-21)
(0.98834 0.567286 3.95837e-21)
(0.988875 0.513179 -4.58165e-22)
(0.9903 0.464039 1.23178e-21)
(0.992231 0.420776 -5.55762e-21)
(0.997016 0.383554 8.16824e-21)
(0.301561 0.248888 -1.36537e-20)
(0.659503 0.544175 -8.99041e-21)
(0.847559 0.663203 5.36141e-21)
(0.924606 0.66952 -4.17759e-22)
(0.948841 0.624655 -3.86638e-21)
(0.955632 0.567196 1.05116e-21)
(0.959617 0.51196 3.56555e-21)
(0.964005 0.462155 -1.56919e-20)
(0.968584 0.418119 3.27569e-20)
(0.976891 0.380212 1.23626e-20)
(0.292539 0.259668 -9.51874e-21)
(0.633644 0.55788 1.91483e-20)
(0.812102 0.671403 -1.01637e-20)
(0.886353 0.672111 -2.70672e-21)
(0.912125 0.623901 1.39729e-21)
(0.922318 0.5648 -5.40328e-21)
(0.929901 0.508762 -1.2137e-20)
(0.937357 0.458502 6.28235e-21)
(0.94515 0.413767 -2.72579e-21)
(0.957921 0.375626 -6.1047e-21)
(0.281621 0.268627 -1.75956e-21)
(0.605058 0.567892 -5.99062e-21)
(0.774573 0.675757 6.65983e-22)
(0.846823 0.671311 1.4667e-21)
(0.874702 0.620324 9.00851e-21)
(0.888583 0.560042 6.53796e-21)
(0.899849 0.503531 2.14203e-20)
(0.910538 0.452975 -1.51747e-20)
(0.922272 0.407342 -2.87168e-20)
(0.939401 0.369155 1.14316e-20)
(0.269017 0.275655 -2.32521e-21)
(0.574182 0.574085 -3.59801e-21)
(0.735388 0.676134 1.25614e-21)
(0.806368 0.667065 1.21299e-20)
(0.836841 0.61388 -1.73534e-20)
(0.854621 0.552887 -2.55475e-20)
(0.869644 0.496264 -7.93333e-21)
(0.883812 0.445687 -1.14438e-21)
(0.89994 0.399028 3.63582e-20)
(0.918598 0.357084 -8.6432e-21)
(0.254915 0.280598 5.91947e-21)
(0.541456 0.576349 -3.28846e-21)
(0.694973 0.672468 -1.02663e-21)
(0.76534 0.659333 3.00396e-22)
(0.798808 0.604539 -9.95259e-21)
(0.820648 0.543304 4.66894e-20)
(0.839536 0.486926 -3.1575e-20)
(0.857393 0.436718 3.78079e-20)
(0.877103 0.390687 -2.67499e-20)
(0.895436 0.350203 -3.49118e-20)
(0.239548 0.283334 -3.39644e-21)
(0.507316 0.574607 6.16816e-22)
(0.653755 0.664733 -2.45991e-22)
(0.724087 0.648105 1.59398e-20)
(0.760869 0.59229 -5.7104e-21)
(0.786886 0.531269 8.93532e-21)
(0.809731 0.47546 1.87949e-20)
(0.831315 0.425797 -9.90213e-21)
(0.854154 0.380204 -2.4472e-20)
(0.873462 0.339948 3.4314e-20)
(0.223165 0.283779 1.36342e-20)
(0.472193 0.568816 1.85372e-20)
(0.612155 0.652937 -1.70272e-20)
(0.682952 0.633393 -1.54298e-20)
(0.723291 0.577142 5.06303e-20)
(0.753553 0.51679 -5.13296e-20)
(0.780377 0.461906 6.08459e-20)
(0.805592 0.413135 -1.5551e-20)
(0.831278 0.368522 1.664e-20)
(0.852193 0.329364 3.04045e-20)
(0.206021 0.281876 -5.49576e-21)
(0.436517 0.558972 -1.72655e-20)
(0.570587 0.63712 -9.10803e-21)
(0.64227 0.615239 -5.56401e-21)
(0.686338 0.559124 5.17378e-21)
(0.720868 0.499885 -1.26301e-20)
(0.751646 0.446267 -1.82981e-20)
(0.780384 0.398668 -3.89685e-20)
(0.808808 0.355276 3.85768e-20)
(0.831718 0.317401 -1.28446e-20)
(0.188377 0.277596 2.9254e-20)
(0.40071 0.545109 -3.14696e-21)
(0.52945 0.617348 -1.27582e-20)
(0.602366 0.593706 1.70839e-20)
(0.650267 0.538287 -3.11018e-20)
(0.689038 0.480593 8.18295e-20)
(0.723702 0.428585 -4.3646e-20)
(0.755853 0.382469 3.97243e-20)
(0.786954 0.340601 -7.33873e-20)
(0.812064 0.304197 -1.94838e-20)
(0.170492 0.27094 -1.01068e-20)
(0.365186 0.527298 3.10949e-20)
(0.489133 0.593723 7.59051e-21)
(0.563556 0.568884 -1.56527e-20)
(0.61533 0.514701 -2.69423e-20)
(0.658269 0.458971 -1.36913e-21)
(0.696716 0.408906 1.45866e-20)
(0.732159 0.364565 -3.54463e-20)
(0.765871 0.324474 1.78048e-20)
(0.793278 0.289686 2.39221e-21)
(0.152624 0.261936 -4.97218e-20)
(0.330345 0.505646 -1.23938e-20)
(0.450007 0.56637 -3.27759e-21)
(0.526141 0.540885 3.96515e-20)
(0.581769 0.488457 -3.67259e-20)
(0.628761 0.435093 -9.82335e-21)
(0.670857 0.387294 -5.85382e-21)
(0.709459 0.345014 1.10562e-20)
(0.745696 0.306931 -1.38449e-20)
(0.77543 0.2739 -2.18111e-20)
(0.135024 0.250641 4.32071e-20)
(0.296571 0.480292 -2.44934e-20)
(0.412427 0.535446 1.35308e-21)
(0.490411 0.509845 -5.97863e-20)
(0.549816 0.459664 6.49899e-20)
(0.600704 0.409048 -2.06792e-20)
(0.646289 0.363827 1.24484e-20)
(0.687897 0.323876 1.08595e-20)
(0.726551 0.288015 3.16872e-20)
(0.758596 0.256882 -1.28795e-20)
(0.117936 0.237134 -1.76862e-20)
(0.264231 0.451408 5.05788e-20)
(0.376729 0.501131 2.85307e-20)
(0.456637 0.475919 4.65799e-20)
(0.51969 0.42845 -1.09665e-20)
(0.574283 0.380945 4.31869e-21)
(0.623167 0.338595 3.5434e-20)
(0.667611 0.301226 7.86625e-21)
(0.708551 0.267784 7.48249e-22)
(0.74285 0.238695 -1.53901e-20)
(0.101592 0.221521 -3.97571e-20)
(0.233669 0.419196 -3.01636e-21)
(0.343225 0.463633 -1.66283e-20)
(0.425076 0.439286 -7.458e-20)
(0.4916 0.394962 -7.23366e-20)
(0.549671 0.350906 1.21258e-20)
(0.601641 0.311703 -3.00168e-20)
(0.648728 0.277151 1.91923e-20)
(0.691804 0.24631 1.05274e-20)
(0.728269 0.219415 2.22413e-20)
(0.0862113 0.20393 5.78572e-20)
(0.205203 0.383886 -4.74242e-20)
(0.312208 0.423181 -2.41072e-20)
(0.395963 0.400141 4.3048e-20)
(0.465738 0.359364 4.90145e-20)
(0.52703 0.319068 -1.62248e-20)
(0.581849 0.283269 -2.04185e-21)
(0.631367 0.25175 -5.97256e-20)
(0.676413 0.223677 -3.39866e-20)
(0.714924 0.199125 1.30728e-20)
(0.0719963 0.18451 -3.28205e-20)
(0.17913 0.345733 1.3875e-20)
(0.283942 0.380026 5.09656e-20)
(0.369517 0.358699 -2.28133e-20)
(0.442282 0.321832 1.74302e-21)
(0.506509 0.285582 6.54303e-20)
(0.563917 0.253421 3.06897e-21)
(0.615639 0.225132 5.7041e-20)
(0.662473 0.199981 2.39809e-20)
(0.702882 0.177915 -3.835e-20)
(0.0591327 0.16343 4.51491e-20)
(0.155714 0.305016 4.93421e-21)
(0.25867 0.334438 3.2474e-21)
(0.345935 0.31519 4.65831e-20)
(0.421394 0.28256 -6.26686e-21)
(0.488245 0.250612 -4.09805e-20)
(0.547963 0.222299 2.02192e-20)
(0.601645 0.197415 -3.23785e-20)
(0.650071 0.175326 -1.36365e-20)
(0.692204 0.155885 1.39421e-20)
(0.0477868 0.140875 -2.81723e-20)
(0.135193 0.262033 -5.41618e-20)
(0.236603 0.286707 1.25039e-20)
(0.325389 0.269859 -2.45994e-20)
(0.403215 0.241754 -1.49738e-20)
(0.472358 0.214332 3.6391e-20)
(0.534088 0.190052 -8.82358e-21)
(0.589474 0.16873 8.26809e-21)
(0.639287 0.149824 -1.01283e-20)
(0.682946 0.133134 2.01382e-20)
(0.0381039 0.117046 1.01387e-20)
(0.117773 0.217102 3.64119e-20)
(0.217926 0.237135 -5.06394e-20)
(0.308033 0.222965 2.40657e-20)
(0.387872 0.19963 -1.1e-20)
(0.458953 0.176926 -3.11461e-20)
(0.522385 0.15684 2.5554e-20)
(0.579207 0.13921 5.44305e-21)
(0.63019 0.123594 -8.05029e-22)
(0.675156 0.109771 -2.34662e-20)
(0.030207 0.0921564 3.31442e-21)
(0.103625 0.170556 1.17048e-20)
(0.202796 0.186039 4.57882e-20)
(0.293992 0.174776 -8.81039e-21)
(0.37547 0.156413 -6.9742e-21)
(0.448121 0.138588 2.59355e-21)
(0.512928 0.122826 1.12025e-21)
(0.570911 0.109 9.59327e-21)
(0.622839 0.0967603 -1.26978e-20)
(0.668874 0.0859018 -8.12754e-21)
(0.0241958 0.0664308 -8.2921e-21)
(0.0928914 0.122741 -1.42413e-20)
(0.191338 0.133746 -3.55671e-20)
(0.283371 0.12557 1.79383e-20)
(0.366092 0.11234 1.46984e-20)
(0.439933 0.0995169 6.17418e-22)
(0.505781 0.088184 -2.49055e-20)
(0.56464 0.0782459 -1.11387e-20)
(0.617282 0.0694532 8.89505e-21)
(0.664134 0.0616382 9.5905e-21)
(0.020146 0.040102 1.4403e-21)
(0.0856764 0.0740118 -2.9816e-21)
(0.183646 0.0805918 6.74767e-21)
(0.276247 0.0756337 -4.59068e-21)
(0.359805 0.0676491 -4.05703e-21)
(0.434444 0.059919 -2.76223e-21)
(0.500989 0.053089 5.11745e-21)
(0.560435 0.0471011 1.96232e-20)
(0.613556 0.041805 2.86013e-21)
(0.66096 0.037092 -5.12145e-21)
(0.272672 0.0252562 -3.88555e-21)
(0.35665 0.0225864 3.72107e-21)
(0.43169 0.0200032 1.68688e-21)
(0.498586 0.017721 -1.68943e-21)
(0.558326 0.0157204 -7.75887e-21)
(0.611687 0.0139512 2.57092e-21)
(0.659368 0.0123758 -2.42488e-21)
(1.25482 0.282598 -1.11703e-22)
(1.26332 0.27558 -1.11727e-21)
(1.27114 0.268475 -2.33886e-22)
(1.27822 0.261311 -6.82645e-22)
(1.28451 0.254102 3.93242e-21)
(1.2899 0.246851 -3.74655e-21)
(1.29425 0.239537 2.34537e-21)
(1.29727 0.232112 9.84061e-21)
(1.24497 0.271682 -2.70191e-23)
(1.25348 0.265695 9.55469e-22)
(1.26144 0.259647 8.38197e-22)
(1.26885 0.253557 -4.18787e-21)
(1.27567 0.247443 1.37406e-21)
(1.28185 0.241314 -8.55504e-22)
(1.28732 0.235172 2.38316e-21)
(1.29195 0.229003 -4.70396e-21)
(1.23541 0.260441 2.98803e-22)
(1.24358 0.255324 6.93322e-22)
(1.25138 0.250172 4.01259e-22)
(1.2588 0.245002 2.0702e-21)
(1.26582 0.239831 2.79478e-21)
(1.27241 0.23467 4.11784e-21)
(1.27855 0.229527 -1.33818e-22)
(1.28416 0.224405 7.81787e-22)
(1.2269 0.249252 -9.86062e-23)
(1.23458 0.244864 -1.19179e-21)
(1.24199 0.240466 -1.12615e-21)
(1.24914 0.236075 8.37008e-22)
(1.25604 0.231701 -3.16487e-21)
(1.26268 0.227356 -7.46311e-21)
(1.26905 0.223043 3.33815e-21)
(1.27512 0.218767 4.14219e-22)
(1.21947 0.238344 1.30268e-23)
(1.22664 0.234563 5.92399e-22)
(1.23361 0.230782 1.52766e-21)
(1.24038 0.227015 6.05986e-22)
(1.24698 0.223272 -1.323e-22)
(1.25341 0.21956 1.8139e-21)
(1.25968 0.215885 1.46572e-21)
(1.26576 0.212246 -1.6387e-21)
(1.21282 0.227672 1.2776e-24)
(1.21955 0.224411 6.37602e-22)
(1.2261 0.221149 -1.11701e-21)
(1.23249 0.217898 -8.52773e-22)
(1.23874 0.214666 5.57918e-22)
(1.24486 0.211461 1.24279e-21)
(1.25086 0.208288 -2.17946e-21)
(1.25673 0.20515 -1.09265e-21)
(1.20676 0.217168 6.06823e-23)
(1.21308 0.214357 -6.62971e-22)
(1.21926 0.211545 1.01088e-21)
(1.2253 0.208742 6.66527e-22)
(1.23122 0.205953 1.3038e-21)
(1.23702 0.203186 -5.43894e-22)
(1.24272 0.200446 -3.68215e-21)
(1.24833 0.197737 2.46351e-21)
(1.20111 0.20681 -1.44316e-22)
(1.20706 0.204392 -3.02618e-22)
(1.2129 0.201974 -3.37288e-22)
(1.21862 0.199565 -3.75899e-22)
(1.22424 0.197168 2.58523e-22)
(1.22976 0.19479 1.52559e-21)
(1.23519 0.192434 4.09104e-21)
(1.24054 0.190105 8.90866e-22)
(1.19583 0.196576 7.02899e-23)
(1.20143 0.194503 -2.73303e-23)
(1.20694 0.192432 -1.40973e-22)
(1.21236 0.190369 -6.61168e-22)
(1.21769 0.188318 -1.18464e-21)
(1.22294 0.186282 -1.58865e-21)
(1.22812 0.184265 -1.08819e-21)
(1.23322 0.182268 -1.59011e-21)
(1.19082 0.186498 4.64969e-23)
(1.1961 0.18472 5.56932e-22)
(1.2013 0.182946 4.93606e-23)
(1.20643 0.181181 5.02526e-22)
(1.21149 0.179428 3.31186e-23)
(1.21648 0.177688 -2.34549e-21)
(1.22141 0.175966 -1.63738e-22)
(1.22627 0.174261 1.4059e-21)
(1.18604 0.176559 -1.11923e-22)
(1.19101 0.175034 1.51651e-22)
(1.19592 0.173517 -1.66107e-22)
(1.20076 0.172009 -3.2765e-22)
(1.20556 0.170513 -5.0279e-22)
(1.2103 0.169032 1.57819e-21)
(1.21499 0.167566 7.93081e-22)
(1.21963 0.166118 -1.34454e-21)
(1.18145 0.166762 3.68565e-23)
(1.18612 0.165457 -5.00819e-22)
(1.19074 0.16416 2.80541e-22)
(1.19533 0.162874 2.02223e-23)
(1.19986 0.1616 5.56116e-22)
(1.20436 0.160341 -6.09362e-22)
(1.20881 0.159098 8.44546e-22)
(1.21323 0.157873 1.08586e-21)
(1.17701 0.157094 2.42837e-23)
(1.1814 0.155977 2.0588e-22)
(1.18576 0.154871 -5.15396e-22)
(1.19008 0.153776 -9.75826e-23)
(1.19437 0.152695 -6.14902e-22)
(1.19863 0.151628 6.64702e-22)
(1.20285 0.150577 -2.60458e-21)
(1.20705 0.149543 -1.63146e-21)
(1.1727 0.147585 -6.23628e-23)
(1.17683 0.146627 6.82373e-23)
(1.18093 0.14568 4.33831e-22)
(1.18501 0.144747 -2.62074e-22)
(1.18906 0.143827 1.02647e-21)
(1.19309 0.142922 -3.80797e-22)
(1.19709 0.142034 5.20683e-22)
(1.20107 0.141163 9.04328e-22)
(1.16848 0.138195 6.21367e-23)
(1.17236 0.137376 -2.42818e-23)
(1.17623 0.13657 -3.70524e-22)
(1.18007 0.135776 8.63452e-22)
(1.1839 0.134997 -4.94479e-22)
(1.1877 0.134233 4.37628e-22)
(1.19149 0.133485 4.81466e-22)
(1.19526 0.132754 1.93772e-22)
(1.16439 0.12891 3.71322e-23)
(1.16804 0.128215 6.21145e-23)
(1.17167 0.127531 1.80126e-22)
(1.17529 0.126861 -6.74808e-22)
(1.1789 0.126204 -4.47783e-22)
(1.18249 0.125561 8.16259e-23)
(1.18607 0.124934 -4.41905e-22)
(1.18964 0.124322 5.34601e-22)
(1.19318 0.123726 -2.03474e-21)
(1.16038 0.11978 -5.38673e-23)
(1.16381 0.119187 -1.82441e-23)
(1.16723 0.118605 -1.14323e-24)
(1.17064 0.118036 4.95714e-22)
(1.17404 0.11748 3.4061e-22)
(1.17743 0.116938 -2.43348e-22)
(1.18081 0.116411 -4.38038e-22)
(1.18417 0.115899 1.38527e-22)
(1.18753 0.115403 3.04843e-22)
(1.15646 0.110753 4.40439e-23)
(1.15969 0.110248 -1.03268e-23)
(1.16291 0.109754 1.79164e-22)
(1.16612 0.109273 -1.72415e-22)
(1.16932 0.108805 -2.31407e-23)
(1.17252 0.10835 4.74971e-22)
(1.1757 0.107909 2.11538e-22)
(1.17888 0.107482 -6.34067e-22)
(1.18205 0.10707 -3.29166e-22)
(1.15264 0.101836 -4.53943e-23)
(1.15568 0.101407 -6.23839e-23)
(1.1587 0.100989 -3.11472e-23)
(1.16173 0.100583 -2.88741e-23)
(1.16475 0.100189 -3.11306e-22)
(1.16776 0.0998077 3.56599e-22)
(1.17076 0.0994393 -2.55575e-22)
(1.17376 0.0990842 -5.93239e-22)
(1.17674 0.0987425 8.58803e-22)
(1.14892 0.0930149 -2.50964e-23)
(1.15178 0.0926512 6.58771e-23)
(1.15463 0.0922982 -1.44432e-23)
(1.15748 0.0919562 -8.48345e-23)
(1.16032 0.0916255 1.06877e-22)
(1.16316 0.0913066 -2.62304e-22)
(1.16599 0.0909995 4.66066e-22)
(1.16882 0.0907047 4.31044e-22)
(1.17163 0.0904221 -5.59518e-23)
(1.14531 0.0842744 3.97751e-23)
(1.14801 0.0839673 -4.47893e-23)
(1.1507 0.0836701 -2.02083e-23)
(1.15339 0.0833831 -1.09542e-22)
(1.15607 0.0831066 4.43989e-23)
(1.15875 0.0828407 1.15599e-22)
(1.16142 0.0825857 -3.80701e-23)
(1.16408 0.0823418 -5.43814e-22)
(1.16673 0.0821088 3.99679e-22)
(1.14185 0.075598 3.18475e-24)
(1.14439 0.0753401 -4.96112e-23)
(1.14693 0.0750911 -6.04722e-23)
(1.14947 0.0748515 3.87685e-23)
(1.152 0.0746214 1.85637e-22)
(1.15453 0.0744009 -1.70826e-22)
(1.15705 0.07419 -3.79155e-22)
(1.15956 0.073989 4.49578e-22)
(1.16207 0.0737977 -6.78854e-22)
(1.13855 0.0669646 -2.99962e-24)
(1.14096 0.0667497 -2.12819e-23)
(1.14337 0.0665428 7.91892e-23)
(1.14577 0.0663443 -2.21926e-23)
(1.14816 0.0661541 -1.75458e-22)
(1.15055 0.0659725 2.53061e-22)
(1.15293 0.0657995 -3.1763e-22)
(1.1553 0.0656349 -1.87785e-22)
(1.15766 0.0654788 5.831e-22)
(1.13546 0.0583499 -1.93727e-23)
(1.13775 0.0581726 4.83788e-23)
(1.14003 0.0580025 4.95034e-23)
(1.1423 0.0578397 -6.89949e-23)
(1.14457 0.0576842 -1.04641e-23)
(1.14684 0.0575361 -2.49532e-22)
(1.14909 0.0573955 -2.67629e-23)
(1.15133 0.0572621 2.68651e-22)
(1.15357 0.0571358 -4.5591e-22)
(1.13262 0.0497251 -3.87544e-25)
(1.13479 0.0495812 1.06733e-23)
(1.13696 0.0494436 6.66225e-25)
(1.13913 0.0493123 4.64062e-23)
(1.14129 0.0491873 2.67387e-22)
(1.14344 0.0490686 -2.051e-22)
(1.14558 0.048956 1.21978e-22)
(1.14771 0.0488496 -6.75492e-24)
(1.14983 0.0487491 -3.40838e-22)
(1.13007 0.0410467 1.51584e-23)
(1.13215 0.0409334 -3.71929e-23)
(1.13423 0.0408252 1.09529e-23)
(1.1363 0.0407222 -1.03061e-22)
(1.13836 0.0406243 4.37728e-23)
(1.14041 0.0405316 7.24106e-23)
(1.14245 0.0404439 1.84678e-22)
(1.14448 0.0403611 2.91282e-23)
(1.1465 0.0402831 -4.93185e-23)
(1.12789 0.0322803 1.49139e-23)
(1.12989 0.0321954 -8.24943e-24)
(1.13188 0.0321146 -3.22083e-23)
(1.13387 0.0320378 8.43202e-23)
(1.13585 0.031965 -1.52412e-22)
(1.13781 0.0318962 1.19332e-22)
(1.13977 0.0318311 7.21105e-23)
(1.14171 0.0317698 -2.56355e-22)
(1.14364 0.031712 -1.70417e-22)
(1.12613 0.0233531 2.00438e-24)
(1.12807 0.0232937 -4.02507e-23)
(1.12999 0.0232373 1.29935e-23)
(1.13191 0.023184 -1.20932e-22)
(1.13382 0.0231337 1.25213e-22)
(1.13572 0.0230863 2.13547e-23)
(1.13761 0.0230417 7.43185e-23)
(1.13948 0.0229998 -2.77388e-22)
(1.14135 0.0229605 4.60542e-22)
(1.12487 0.0142511 4.32101e-25)
(1.12675 0.0142169 9.75803e-24)
(1.12863 0.0141844 1.27751e-23)
(1.1305 0.0141534 -4.88863e-23)
(1.13236 0.0141238 9.32995e-23)
(1.13421 0.0140957 -1.09054e-22)
(1.13605 0.0140689 1.32206e-22)
(1.13787 0.0140434 -4.95005e-23)
(1.13969 0.014019 -1.19175e-22)
(1.1242 0.00475689 8.67549e-25)
(1.12605 0.00475121 -3.00543e-23)
(1.12789 0.00474681 6.54629e-23)
(1.12973 0.00474352 7.03413e-23)
(1.13155 0.00474119 -4.05126e-23)
(1.13336 0.00473963 7.71611e-23)
(1.13517 0.00473869 -7.84084e-23)
(1.13696 0.00473818 -2.27295e-23)
(1.13874 0.00473791 -4.75627e-23)
(0.960794 0.343104 2.72127e-21)
(0.979869 0.34347 -2.05539e-21)
(0.997315 0.344755 6.61449e-21)
(1.01463 0.345922 -1.42404e-21)
(1.03253 0.346578 1.24232e-22)
(1.05032 0.346757 -2.21212e-22)
(1.06764 0.346413 8.99809e-22)
(1.08452 0.345454 4.45379e-22)
(1.10101 0.343845 -3.58821e-24)
(1.11704 0.341599 -8.56005e-22)
(1.13256 0.338742 -1.00598e-21)
(1.14761 0.33528 1.22352e-21)
(1.16207 0.331218 -3.10631e-21)
(1.17616 0.326369 -9.27033e-22)
(1.18973 0.320978 1.78287e-21)
(1.20238 0.315218 -2.43841e-21)
(1.21419 0.309152 4.31169e-22)
(1.22531 0.302818 1.75546e-22)
(1.2358 0.296253 9.69994e-22)
(1.24564 0.289501 1.63534e-22)
(0.974677 0.328386 -4.27997e-21)
(0.993513 0.328554 3.27176e-21)
(1.01076 0.329579 -8.16579e-21)
(1.02625 0.330615 -7.10641e-21)
(1.04201 0.331014 -6.6217e-22)
(1.05793 0.330797 6.48769e-22)
(1.07343 0.330057 -7.58969e-22)
(1.08848 0.328766 -1.05691e-21)
(1.1032 0.326899 2.71058e-23)
(1.11758 0.324487 5.15508e-22)
(1.13154 0.321564 -1.87515e-22)
(1.14508 0.318161 -1.30354e-21)
(1.15803 0.314258 1.20201e-21)
(1.17056 0.309887 -8.85956e-22)
(1.18289 0.305051 2.47003e-22)
(1.19463 0.299908 -6.01758e-22)
(1.20575 0.294565 2.57291e-21)
(1.21631 0.289053 -5.13617e-22)
(1.22638 0.283386 -8.16701e-22)
(1.23594 0.277587 9.20417e-24)
(0.989012 0.312046 -2.24904e-21)
(1.00664 0.312748 -4.84477e-21)
(1.02343 0.313563 2.03488e-21)
(1.03767 0.314253 5.37284e-21)
(1.05168 0.314343 -1.3662e-21)
(1.06602 0.31378 1.74703e-23)
(1.08011 0.312719 -8.58282e-22)
(1.0937 0.311212 -7.6305e-22)
(1.10691 0.309239 -3.18091e-23)
(1.1198 0.306815 -4.54815e-23)
(1.1323 0.303968 1.31545e-21)
(1.14437 0.300752 -2.21407e-22)
(1.15597 0.297164 -2.8604e-22)
(1.16718 0.293381 1.27296e-22)
(1.17821 0.289184 -2.14794e-21)
(1.18884 0.284712 -1.42704e-21)
(1.19896 0.28009 -1.09827e-21)
(1.20864 0.275344 -2.82095e-22)
(1.21794 0.270475 -6.30382e-22)
(1.22686 0.265499 -3.08361e-22)
(1.00262 0.297091 -4.18561e-21)
(1.01876 0.297854 6.51175e-21)
(1.03461 0.298294 -2.90448e-21)
(1.04772 0.298495 1.68371e-22)
(1.06018 0.298239 -7.29632e-22)
(1.07302 0.29743 1.62451e-21)
(1.08579 0.296177 6.4094e-22)
(1.09812 0.294565 1.30442e-21)
(1.11005 0.292594 -2.62491e-24)
(1.12166 0.290264 7.28425e-22)
(1.13296 0.287599 -6.77433e-22)
(1.14389 0.284647 1.4716e-21)
(1.15448 0.281428 -1.13082e-22)
(1.16455 0.278026 -1.14035e-21)
(1.17431 0.274313 3.27467e-21)
(1.18395 0.270377 1.47661e-21)
(1.19325 0.266314 -4.2975e-22)
(1.20215 0.26216 6.08934e-22)
(1.2107 0.257922 9.98005e-22)
(1.21895 0.253612 1.17582e-22)
(1.01527 0.282747 7.16453e-21)
(1.0299 0.28324 -4.82425e-21)
(1.04459 0.283273 1.77325e-21)
(1.05665 0.283042 -1.37863e-21)
(1.06779 0.282494 8.32278e-22)
(1.07926 0.281527 -7.08751e-22)
(1.09079 0.280186 4.47908e-22)
(1.10197 0.278548 -6.18047e-22)
(1.11274 0.276634 7.24711e-23)
(1.12322 0.274439 -8.37792e-22)
(1.13343 0.271978 -2.56831e-23)
(1.14333 0.269275 -5.87805e-22)
(1.15291 0.266359 3.74368e-22)
(1.1621 0.263228 -4.19153e-22)
(1.17102 0.259986 -9.59463e-22)
(1.17981 0.256611 4.0637e-23)
(1.18835 0.253109 -2.96491e-22)
(1.19654 0.24951 -1.04769e-21)
(1.20444 0.245836 -3.87354e-22)
(1.21207 0.242108 -4.68471e-23)
(1.02691 0.268548 1.77496e-22)
(1.04007 0.268751 3.84113e-21)
(1.05349 0.268486 1.1802e-21)
(1.06454 0.267962 2.54157e-21)
(1.07456 0.267216 -3.26333e-23)
(1.08478 0.266165 4.20908e-22)
(1.09516 0.264806 -1.16364e-21)
(1.10528 0.263196 -3.77836e-22)
(1.11502 0.261369 -8.60422e-23)
(1.12449 0.259326 2.47953e-22)
(1.13371 0.257076 3.31766e-22)
(1.14269 0.254636 -3.05627e-23)
(1.1514 0.252033 1.86362e-22)
(1.1598 0.24928 9.01192e-22)
(1.16799 0.246421 -7.79373e-22)
(1.17606 0.243484 -2.48652e-22)
(1.18391 0.240448 6.78323e-22)
(1.19148 0.237326 7.95043e-22)
(1.1988 0.234144 -5.8544e-22)
(1.20591 0.230921 2.29366e-23)
(1.03752 0.254518 -3.66727e-21)
(1.0493 0.254491 -3.05743e-21)
(1.06143 0.254032 6.27469e-22)
(1.07149 0.253326 9.4818e-22)
(1.08051 0.252454 -1.85231e-21)
(1.08965 0.251362 -2.40938e-21)
(1.09897 0.250025 -8.73513e-22)
(1.10811 0.248479 1.05325e-21)
(1.11693 0.246759 2.58488e-23)
(1.12549 0.244877 -2.93263e-23)
(1.13384 0.242838 8.97836e-23)
(1.14199 0.240657 -2.61587e-22)
(1.14992 0.238359 -5.22533e-22)
(1.15758 0.235955 1.16745e-21)
(1.16511 0.233491 2.75951e-22)
(1.17257 0.230911 -5.67823e-22)
(1.17982 0.228241 -5.57607e-22)
(1.18683 0.225516 2.49539e-22)
(1.19364 0.222756 6.13003e-22)
(1.20028 0.219971 -8.43217e-23)
(1.04708 0.240773 3.84538e-21)
(1.0576 0.240565 4.51563e-22)
(1.06845 0.239979 2.13127e-21)