/*--------------------------------*- C++ -*----------------------------------*\
  =========                 |
  \\      /  F ield         | OpenFOAM: The Open Source CFD Toolbox
   \\    /   O peration     | Website:  https://openfoam.org
    \\  /    A nd           | Version:  7
     \\/     M anipulation  |
\*---------------------------------------------------------------------------*/
FoamFile
{
    version     2.0;
    format      ascii;
    class       volScalarField;
    location    "25";
    object      p;
}
// * * * * * * * * * * * * * * * * * * * * * * * * * * * * * * * * * * * * * //

dimensions      [0 2 -2 0 0 0 0];

internalField   nonuniform List<scalar> 
2125
(
-0.292878
-0.298392
-0.300237
-0.300536
-0.29952
-0.297268
-0.293952
-0.289741
-0.284749
-0.278951
-0.293643
-0.299031
-0.300794
-0.301018
-0.299932
-0.297616
-0.294239
-0.289978
-0.284938
-0.27902
-0.295167
-0.300304
-0.301904
-0.301978
-0.300752
-0.298307
-0.294809
-0.290446
-0.285313
-0.27915
-0.29744
-0.302204
-0.30356
-0.303408
-0.301972
-0.299333
-0.295652
-0.291135
-0.285866
-0.279314
-0.300446
-0.304718
-0.30575
-0.305299
-0.303582
-0.300683
-0.296756
-0.292031
-0.286576
-0.279408
-0.304166
-0.307831
-0.30846
-0.307636
-0.305569
-0.302343
-0.298106
-0.293113
-0.287427
-0.279299
-0.308577
-0.311525
-0.311674
-0.310405
-0.307916
-0.304298
-0.299685
-0.294346
-0.2884
-0.279721
-0.313657
-0.31578
-0.315375
-0.313588
-0.31061
-0.306532
-0.30148
-0.295767
-0.289379
-0.279923
-0.31938
-0.320576
-0.319543
-0.317169
-0.313633
-0.30903
-0.30347
-0.297309
-0.290441
-0.279938
-0.325721
-0.325891
-0.32416
-0.32113
-0.316971
-0.311779
-0.305643
-0.298962
-0.291563
-0.279778
-0.332655
-0.331703
-0.329206
-0.325456
-0.320611
-0.314769
-0.307995
-0.300723
-0.29272
-0.279404
-0.340159
-0.337991
-0.334663
-0.330131
-0.324542
-0.317995
-0.310522
-0.302589
-0.293901
-0.278777
-0.348207
-0.344733
-0.340512
-0.335141
-0.328757
-0.321456
-0.31323
-0.304571
-0.295109
-0.277864
-0.356774
-0.351906
-0.346735
-0.340475
-0.33325
-0.325156
-0.316135
-0.306691
-0.296356
-0.276645
-0.365834
-0.359487
-0.353312
-0.346119
-0.338018
-0.329102
-0.319261
-0.308987
-0.297681
-0.275145
-0.375355
-0.367448
-0.360224
-0.352062
-0.343059
-0.333308
-0.32264
-0.311524
-0.299167
-0.273479
-0.385302
-0.375762
-0.367449
-0.358291
-0.348373
-0.337789
-0.326315
-0.314376
-0.300881
-0.271735
-0.395632
-0.384396
-0.374963
-0.364792
-0.353956
-0.34256
-0.330344
-0.317642
-0.302717
-0.269512
-0.406297
-0.393312
-0.382738
-0.371544
-0.359803
-0.347644
-0.334829
-0.321549
-0.304876
-0.267151
-0.41724
-0.402468
-0.390739
-0.378524
-0.365895
-0.353046
-0.339856
-0.326496
-0.309771
-0.274846
-0.428398
-0.411817
-0.398929
-0.385695
-0.372193
-0.358701
-0.345281
-0.332282
-0.319765
-0.317367
-0.439702
-0.421305
-0.407263
-0.393015
-0.378641
-0.364484
-0.350739
-0.337767
-0.326428
-0.331103
-0.451081
-0.430877
-0.415694
-0.400441
-0.385188
-0.370316
-0.356066
-0.342672
-0.330681
-0.335497
-0.44047
-0.424168
-0.407927
-0.391791
-0.376158
-0.361258
-0.347192
-0.334165
-0.337598
-0.432629
-0.415421
-0.398403
-0.381969
-0.3663
-0.351376
-0.337129
-0.338118
-0.441009
-0.422862
-0.404965
-0.38769
-0.371144
-0.355183
-0.339521
-0.337438
-0.43018
-0.411406
-0.393249
-0.375723
-0.358564
-0.341333
-0.335895
-0.417642
-0.398559
-0.379956
-0.361465
-0.342557
-0.333667
-0.383753
-0.363816
-0.343157
-0.330833
-0.365535
-0.343078
-0.327414
-0.342253
-0.32339
-0.292878
-0.298392
-0.300237
-0.273529
-0.26523
-0.256482
-0.246479
-0.235528
-0.223752
-0.211297
-0.19834
-0.185051
-0.171601
-0.158147
-0.14483
-0.131777
-0.119095
-0.106878
-0.0951914
-0.0841085
-0.0736423
-0.0638823
-0.0547233
-0.0464064
-0.0384786
-0.0317553
-0.024713
-0.0200009
-0.0129053
-0.0114791
-0.00191758
-0.00737212
0.0108199
-0.274002
-0.265506
-0.256739
-0.246706
-0.235729
-0.223934
-0.211463
-0.198491
-0.185191
-0.17173
-0.158265
-0.144939
-0.131877
-0.119186
-0.106959
-0.0952645
-0.0841735
-0.0736997
-0.0639325
-0.0547669
-0.0464437
-0.0385107
-0.0317819
-0.0247364
-0.0200181
-0.0129232
-0.0114867
-0.00193514
-0.0073671
0.0107902
-0.274941
-0.266049
-0.257249
-0.247155
-0.236127
-0.224295
-0.21179
-0.198792
-0.185468
-0.171986
-0.158501
-0.145156
-0.132075
-0.119366
-0.107122
-0.0954103
-0.0843032
-0.0738141
-0.0640326
-0.0548539
-0.0465184
-0.038575
-0.031835
-0.0247831
-0.0200524
-0.0129589
-0.0115021
-0.0019702
-0.00735711
0.010731
-0.276335
-0.266846
-0.258002
-0.247817
-0.236713
-0.224825
-0.212274
-0.199236
-0.185878
-0.172365
-0.158851
-0.145478
-0.13237
-0.119635
-0.107365
-0.0956281
-0.084497
-0.0739852
-0.0641824
-0.0549842
-0.0466301
-0.0386712
-0.0319145
-0.0248531
-0.0201038
-0.0130123
-0.0115252
-0.00202261
-0.0073423
0.0106425
-0.278275
-0.267854
-0.258978
-0.248678
-0.237474
-0.225514
-0.212904
-0.199817
-0.186415
-0.172863
-0.159312
-0.145903
-0.13276
-0.11999
-0.107686
-0.0959167
-0.084754
-0.0742123
-0.0643812
-0.0551571
-0.0467785
-0.038799
-0.0320201
-0.0249461
-0.0201722
-0.0130833
-0.011556
-0.00209217
-0.00732286
0.0105254
-0.280953
-0.268969
-0.260148
-0.24972
-0.238395
-0.226349
-0.213668
-0.200523
-0.187072
-0.173474
-0.159879
-0.146427
-0.133242
-0.12043
-0.108084
-0.0962746
-0.085073
-0.0744943
-0.0646283
-0.0553722
-0.0469631
-0.0389581
-0.0321517
-0.0250618
-0.0202574
-0.0131717
-0.0115946
-0.0021786
-0.00729904
0.0103804
-0.283144
-0.270655
-0.261505
-0.25092
-0.239455
-0.227312
-0.214552
-0.201344
-0.187838
-0.174189
-0.160546
-0.147046
-0.133812
-0.120951
-0.108557
-0.0967
-0.0854527
-0.0748303
-0.0649229
-0.0556287
-0.0471834
-0.039148
-0.0323088
-0.0252001
-0.0203593
-0.0132773
-0.0116409
-0.00228158
-0.00727115
0.0102082
-0.285934
-0.272427
-0.263005
-0.252256
-0.240634
-0.228384
-0.215541
-0.202267
-0.188703
-0.175001
-0.161306
-0.147753
-0.134465
-0.12155
-0.109102
-0.0971908
-0.0858912
-0.0752187
-0.0652638
-0.0559258
-0.0474386
-0.0393682
-0.0324909
-0.0253604
-0.0204777
-0.0133997
-0.0116951
-0.00240071
-0.00723954
0.0100098
-0.289132
-0.274326
-0.26463
-0.2537
-0.241906
-0.229545
-0.216618
-0.203278
-0.189656
-0.1759
-0.162151
-0.148542
-0.135197
-0.122223
-0.109715
-0.0977446
-0.0863867
-0.0756582
-0.0656497
-0.0562624
-0.047728
-0.0396179
-0.0326977
-0.0255425
-0.0206122
-0.0135386
-0.0117571
-0.00253554
-0.00720461
0.00978649
-0.292601
-0.276364
-0.266352
-0.255222
-0.243249
-0.230774
-0.217765
-0.204361
-0.190686
-0.176877
-0.163074
-0.149408
-0.136003
-0.122966
-0.110394
-0.0983587
-0.086937
-0.0761469
-0.0660794
-0.0566375
-0.0480506
-0.0398965
-0.0329285
-0.0257457
-0.0207627
-0.0136936
-0.0118269
-0.00268557
-0.00716677
0.00953943
-0.296277
-0.278521
-0.268136
-0.256793
-0.244637
-0.23205
-0.218964
-0.205504
-0.191779
-0.177922
-0.164067
-0.150344
-0.136877
-0.123775
-0.111134
-0.0990302
-0.0875398
-0.0766829
-0.0665511
-0.0570496
-0.0484053
-0.040203
-0.0331826
-0.0259696
-0.0209287
-0.0138643
-0.0119046
-0.00285026
-0.00712646
0.00926999
-0.3001
-0.280773
-0.269948
-0.25838
-0.246045
-0.233353
-0.220199
-0.206691
-0.192925
-0.179025
-0.165121
-0.151343
-0.137814
-0.124644
-0.111933
-0.0997559
-0.0881925
-0.0772641
-0.0670633
-0.0574976
-0.0487912
-0.0405367
-0.0334594
-0.0262135
-0.0211098
-0.0140503
-0.0119902
-0.00302902
-0.00708416
0.00897962
-0.303976
-0.283095
-0.271756
-0.259952
-0.24745
-0.234662
-0.221453
-0.207909
-0.194111
-0.180176
-0.166229
-0.152399
-0.138809
-0.12557
-0.112786
-0.100533
-0.0888925
-0.0778885
-0.0676142
-0.0579799
-0.049207
-0.0408965
-0.033758
-0.0264768
-0.0213058
-0.014251
-0.0120837
-0.00322122
-0.00704034
0.00866987
-0.307772
-0.28546
-0.273531
-0.261477
-0.248829
-0.235962
-0.222712
-0.209146
-0.195328
-0.181366
-0.167382
-0.153504
-0.139855
-0.126549
-0.11369
-0.101358
-0.0896374
-0.078554
-0.068202
-0.0584951
-0.0496514
-0.0412815
-0.0340778
-0.0267587
-0.0215162
-0.0144659
-0.012185
-0.00342623
-0.00699548
0.0083423
-0.311302
-0.287821
-0.275239
-0.262921
-0.250158
-0.237233
-0.223961
-0.210388
-0.196563
-0.182585
-0.168572
-0.154651
-0.140946
-0.127573
-0.114639
-0.102227
-0.0904233
-0.0792573
-0.068824
-0.0590409
-0.0501226
-0.04169
-0.0344173
-0.0270583
-0.0217401
-0.0146942
-0.0122939
-0.00364331
-0.00694992
0.00799855
-0.314263
-0.290077
-0.276843
-0.264247
-0.251412
-0.238458
-0.225184
-0.21162
-0.197802
-0.183818
-0.169785
-0.155827
-0.14207
-0.128632
-0.115624
-0.103131
-0.0912431
-0.0799922
-0.0694749
-0.0596128
-0.0506169
-0.042119
-0.0347742
-0.0273736
-0.0219763
-0.0149348
-0.01241
-0.0038716
-0.00690399
0.00764025
-0.316193
-0.292137
-0.278352
-0.26545
-0.252587
-0.239636
-0.22638
-0.212842
-0.199043
-0.185065
-0.17102
-0.157031
-0.143226
-0.129726
-0.116645
-0.104071
-0.0920971
-0.0807593
-0.0701554
-0.0602117
-0.0511351
-0.0425694
-0.0351494
-0.0277052
-0.0222255
-0.0151879
-0.0125343
-0.00411049
-0.00685894
0.00726907
-0.316827
-0.294095
-0.279862
-0.266587
-0.253726
-0.240812
-0.227596
-0.2141
-0.200336
-0.186377
-0.172329
-0.158316
-0.144467
-0.130905
-0.117748
-0.105088
-0.0930232
-0.081592
-0.0708944
-0.0608617
-0.0516976
-0.0430573
-0.0355563
-0.0280629
-0.0224965
-0.015458
-0.012672
-0.0043606
-0.00681801
0.00688655
-0.315426
-0.295329
-0.281141
-0.267531
-0.254734
-0.24192
-0.228787
-0.215367
-0.201667
-0.187749
-0.173718
-0.159695
-0.145811
-0.13219
-0.118956
-0.106207
-0.0940436
-0.0825102
-0.0717093
-0.0615777
-0.0523161
-0.043592
-0.0360012
-0.0284512
-0.0227909
-0.015747
-0.0128223
-0.00462287
-0.00677893
0.00649366
-0.304933
-0.292744
-0.281195
-0.267622
-0.255054
-0.242441
-0.22944
-0.216125
-0.202513
-0.188662
-0.174675
-0.160672
-0.146784
-0.13314
-0.119865
-0.107061
-0.0948322
-0.0832286
-0.0723526
-0.0621501
-0.0528124
-0.0440295
-0.0363619
-0.0287806
-0.0230281
-0.0160098
-0.012933
-0.00488721
-0.00671064
0.00609109
-0.270125
-0.285228
-0.280739
-0.267627
-0.255313
-0.242859
-0.229892
-0.216556
-0.202905
-0.189011
-0.174981
-0.160942
-0.147025
-0.133358
-0.120064
-0.107248
-0.095008
-0.0833986
-0.0725132
-0.0623121
-0.0529595
-0.0441913
-0.0364899
-0.0289553
-0.0231197
-0.016223
-0.0129494
-0.00519151
-0.00656269
0.00558754
-0.258759
-0.276271
-0.275134
-0.262897
-0.25133
-0.239582
-0.227149
-0.214256
-0.201003
-0.187469
-0.173764
-0.160013
-0.146349
-0.1329
-0.11979
-0.107124
-0.0950053
-0.083492
-0.0726749
-0.062529
-0.0532013
-0.0444667
-0.0367476
-0.0292524
-0.0233384
-0.0165385
-0.0130644
-0.0055732
-0.00645362
0.00497238
-0.253467
-0.267865
-0.267934
-0.256649
-0.245827
-0.234847
-0.223065
-0.210739
-0.198008
-0.184955
-0.171692
-0.158343
-0.145038
-0.131906
-0.11907
-0.106637
-0.0947114
-0.0833569
-0.0726628
-0.0626172
-0.0533535
-0.0446811
-0.0369715
-0.0295294
-0.0235575
-0.0168534
-0.0131981
-0.00595956
-0.00636672
0.00433533
-0.249272
-0.259442
-0.260181
-0.250014
-0.23988
-0.229636
-0.218537
-0.206817
-0.194645
-0.182111
-0.169325
-0.156412
-0.1435
-0.130717
-0.118185
-0.106015
-0.0943082
-0.0831362
-0.0725862
-0.062659
-0.0534748
-0.044877
-0.0371877
-0.0298063
-0.0237825
-0.0171789
-0.0133426
-0.00636344
-0.00628381
0.00366858
-0.244406
-0.25077
-0.251677
-0.242701
-0.23329
-0.223792
-0.213434
-0.202387
-0.190837
-0.178881
-0.166629
-0.154203
-0.14173
-0.129338
-0.117149
-0.105274
-0.0938162
-0.0828517
-0.0724671
-0.0626753
-0.0535852
-0.0450723
-0.0374121
-0.0300962
-0.0240253
-0.0175229
-0.0135056
-0.00678824
-0.00620866
0.00297473
-0.238351
-0.241618
-0.242241
-0.234464
-0.225867
-0.217153
-0.207604
-0.197309
-0.186458
-0.175155
-0.163505
-0.151631
-0.139657
-0.12771
-0.115912
-0.104375
-0.0932037
-0.082479
-0.0722873
-0.0626531
-0.0536759
-0.0452611
-0.0376422
-0.0303971
-0.0242867
-0.0178847
-0.0136903
-0.00723143
-0.00614692
0.00226212
-0.230643
-0.231721
-0.231823
-0.22522
-0.217563
-0.209684
-0.201002
-0.191536
-0.18146
-0.170883
-0.159908
-0.148652
-0.13724
-0.125796
-0.114441
-0.103289
-0.0924458
-0.081997
-0.0720295
-0.0625786
-0.0537359
-0.0454351
-0.037872
-0.0307046
-0.0245645
-0.0182616
-0.0138969
-0.00768974
-0.00610246
0.00154084
-0.221039
-0.220872
-0.220438
-0.214978
-0.208344
-0.201384
-0.193625
-0.185054
-0.175825
-0.166045
-0.155813
-0.145241
-0.134453
-0.12357
-0.112712
-0.101994
-0.0915237
-0.0813894
-0.0716797
-0.0624399
-0.053756
-0.0455868
-0.0380958
-0.0310143
-0.0248557
-0.018651
-0.0141251
-0.00815972
-0.00607844
0.000822248
-0.209553
-0.208976
-0.20815
-0.203793
-0.198282
-0.192279
-0.18549
-0.177872
-0.169551
-0.160631
-0.151204
-0.14138
-0.131276
-0.121011
-0.110705
-0.100472
-0.0904188
-0.0806395
-0.0712234
-0.0622249
-0.0537259
-0.0457081
-0.0383073
-0.0313212
-0.0251571
-0.0190493
-0.0143737
-0.00863728
-0.0060777
0.000119058
-0.196408
-0.196064
-0.195085
-0.191784
-0.187433
-0.182444
-0.17665
-0.170026
-0.162661
-0.154651
-0.146084
-0.137062
-0.127698
-0.118106
-0.108403
-0.0987031
-0.0891138
-0.079731
-0.0706457
-0.0619203
-0.0536341
-0.0457893
-0.0384985
-0.0316188
-0.0254637
-0.0194523
-0.0146407
-0.00911749
-0.00610247
-0.000555088
-0.18198
-0.182286
-0.181421
-0.179128
-0.175932
-0.171982
-0.167201
-0.161585
-0.155207
-0.148142
-0.140474
-0.132299
-0.12372
-0.114849
-0.105797
-0.0966769
-0.0875952
-0.0786498
-0.0699325
-0.061513
-0.0534688
-0.0458201
-0.0386607
-0.0318998
-0.0257695
-0.0198548
-0.014923
-0.00959464
-0.00615399
-0.00118636
-0.166734
-0.167893
-0.167382
-0.166043
-0.163955
-0.161039
-0.157263
-0.152653
-0.147266
-0.141163
-0.134419
-0.127119
-0.119361
-0.111248
-0.102888
-0.0943882
-0.0858545
-0.077385
-0.0690721
-0.0609911
-0.0532183
-0.0457898
-0.038784
-0.0321559
-0.0260675
-0.0202503
-0.015216
-0.0100624
-0.00623227
-0.00176165
-0.151159
-0.153199
-0.153213
-0.152764
-0.151702
-0.149779
-0.146979
-0.143351
-0.13894
-0.133796
-0.12798
-0.121569
-0.114653
-0.107325
-0.0996867
-0.091841
-0.0838899
-0.0759309
-0.0680559
-0.0603444
-0.0528721
-0.0456879
-0.0388586
-0.032378
-0.0263497
-0.0206319
-0.0155145
-0.0105138
-0.00633595
-0.00226965
-0.135694
-0.138527
-0.139158
-0.139519
-0.139376
-0.138379
-0.136504
-0.133812
-0.130344
-0.126134
-0.121236
-0.115712
-0.109642
-0.103113
-0.0962159
-0.0890482
-0.081707
-0.0742874
-0.0668798
-0.0595662
-0.0524214
-0.0455053
-0.0388749
-0.0325574
-0.0266076
-0.020992
-0.0158123
-0.0109418
-0.00646211
-0.00270187
-0.120697
-0.124174
-0.125434
-0.126515
-0.127171
-0.12701
-0.125991
-0.124176
-0.121599
-0.118285
-0.114272
-0.109618
-0.104387
-0.0986559
-0.092508
-0.086032
-0.0793193
-0.0724609
-0.0655446
-0.0586533
-0.0518605
-0.0452342
-0.0388245
-0.0326853
-0.0268326
-0.0213228
-0.0161025
-0.0113395
-0.00660643
-0.00305341
-0.106426
-0.110377
-0.112223
-0.113922
-0.115257
-0.115831
-0.115585
-0.114573
-0.112824
-0.110353
-0.107185
-0.103368
-0.0989529
-0.094007
-0.0886036
-0.0828225
-0.0767474
-0.0704643
-0.0640568
-0.0576071
-0.0511867
-0.0448698
-0.0387004
-0.0327544
-0.027017
-0.0216169
-0.016378
-0.0117007
-0.00676347
-0.00332347
-0.0930423
-0.0973092
-0.0996621
-0.101875
-0.103773
-0.104976
-0.105413
-0.105125
-0.104132
-0.102439
-0.100064
-0.0970392
-0.093408
-0.0892236
-0.0845496
-0.0794561
-0.0740187
-0.0683165
-0.0624282
-0.0564336
-0.0504016
-0.0444101
-0.0384982
-0.0327587
-0.0271538
-0.0218674
-0.0166319
-0.01202
-0.00692695
-0.00351552
-0.0806313
-0.0850805
-0.0878462
-0.0904746
-0.0928255
-0.0945564
-0.0955847
-0.0959358
-0.0956215
-0.0946396
-0.0929963
-0.0907128
-0.0878217
-0.0843658
-0.0803965
-0.0759742
-0.0711654
-0.0660419
-0.0606759
-0.0551437
-0.0495106
-0.0438564
-0.0382162
-0.0326945
-0.0272376
-0.0220689
-0.0168581
-0.0122936
-0.00709022
-0.00363692
-0.069224
-0.0737513
-0.0768366
-0.0797885
-0.082497
-0.0846599
-0.0861896
-0.0870963
-0.0873828
-0.0870391
-0.0860625
-0.0844633
-0.0822634
-0.0794946
-0.0761972
-0.0724214
-0.0682243
-0.0636692
-0.0588215
-0.0537526
-0.0485236
-0.043214
-0.0378558
-0.0325605
-0.0272651
-0.0222176
-0.017051
-0.0125196
-0.0072468
-0.00369815
-0.0588179
-0.063347
-0.0666679
-0.069863
-0.0728455
-0.0753546
-0.0773013
-0.0786829
-0.079493
-0.079715
-0.0793378
-0.0783619
-0.0767991
-0.0746702
-0.0720057
-0.0688449
-0.0652352
-0.0612313
-0.056891
-0.0522799
-0.0474544
-0.0424918
-0.0374217
-0.0323586
-0.0272353
-0.0223117
-0.0172067
-0.0126976
-0.00739085
-0.00371159
-0.0493929
-0.0538705
-0.0573564
-0.0607268
-0.0639128
-0.0666927
-0.0689798
-0.0707604
-0.0720202
-0.0727366
-0.0728911
-0.0724759
-0.0714928
-0.0699531
-0.067877
-0.0652936
-0.0622408
-0.0587644
-0.0549141
-0.0507491
-0.0463207
-0.0417025
-0.0369221
-0.0320935
-0.0271497
-0.0223519
-0.0173228
-0.0128294
-0.0075177
-0.00369017
-0.0409216
-0.0453131
-0.0489072
-0.0523977
-0.0557289
-0.0587151
-0.0612746
-0.0633849
-0.0650251
-0.0661673
-0.0667873
-0.0668695
-0.0664072
-0.0654027
-0.0638666
-0.0618182
-0.0592864
-0.0563078
-0.0529242
-0.0491877
-0.0451442
-0.0408626
-0.0363687
-0.0317732
-0.0270127
-0.0223411
-0.0173991
-0.0129185
-0.00762416
-0.00364607
-0.0333766
-0.0376611
-0.0413199
-0.0448869
-0.0483164
-0.0514552
-0.0542278
-0.0566058
-0.0585625
-0.0600662
-0.0610877
-0.061605
-0.061604
-0.0610785
-0.0600306
-0.0584716
-0.0564199
-0.0539041
-0.0509582
-0.0476268
-0.0439503
-0.0399922
-0.0357767
-0.0314088
-0.0268313
-0.022285
-0.0174371
-0.0129696
-0.00770875
-0.00358972
-0.026734
-0.0309018
-0.034593
-0.0382033
-0.0416943
-0.0449418
-0.0478776
-0.0504687
-0.0526844
-0.0544898
-0.0558521
-0.0567439
-0.0571449
-0.0570418
-0.0564288
-0.0553087
-0.0536922
-0.0515993
-0.0490566
-0.0461013
-0.0427683
-0.0391152
-0.0351645
-0.0310146
-0.0266155
-0.0221913
-0.0174408
-0.0129886
-0.00777174
-0.00352917
-0.0209768
-0.0250265
-0.0287273
-0.0323569
-0.0358819
-0.0392035
-0.0422607
-0.0450179
-0.0474414
-0.049494
-0.0511401
-0.0523483
-0.053093
-0.0533548
-0.0531212
-0.0523875
-0.0511572
-0.0494428
-0.0472635
-0.0446497
-0.041631
-0.0382587
-0.0345541
-0.030608
-0.0263779
-0.0220702
-0.0174161
-0.0129824
-0.00781498
-0.00346996
-0.0160965
-0.0200343
-0.0237298
-0.0273625
-0.030902
-0.0342712
-0.037416
-0.0402996
-0.0428858
-0.0451362
-0.0470132
-0.0484822
-0.0495136
-0.0500827
-0.0501716
-0.0497693
-0.0488728
-0.0474877
-0.0456269
-0.0433144
-0.0405748
-0.0374535
-0.0339704
-0.030209
-0.0261337
-0.0219337
-0.017371
-0.0129581
-0.00784164
-0.00341545
-0.012099
-0.0159363
-0.0196182
-0.0232441
-0.0267856
-0.0301829
-0.0333887
-0.0363651
-0.0390748
-0.0414784
-0.043537
-0.0452138
-0.0464759
-0.0472949
-0.0476481
-0.0475195
-0.0469004
-0.045791
-0.0441984
-0.0421412
-0.0396395
-0.0367333
-0.0334413
-0.0298399
-0.0259003
-0.0217952
-0.0173149
-0.0129235
-0.00785573
-0.00336727
-0.00900127
-0.0127564
-0.0164223
-0.0200376
-0.0235748
-0.0269873
-0.0302334
-0.0332751
-0.036074
-0.0385903
-0.0407844
-0.0426179
-0.0440558
-0.0450666
-0.0456242
-0.0457085
-0.0453066
-0.0444141
-0.0430339
-0.0411796
-0.038868
-0.0361346
-0.0329968
-0.0295252
-0.0256964
-0.0216696
-0.0172582
-0.0128864
-0.00786183
-0.00332566
-0.00685555
-0.0105486
-0.0141994
-0.0178038
-0.0213341
-0.0247533
-0.0280233
-0.0311064
-0.0339636
-0.0365549
-0.0388401
-0.0407801
-0.0423383
-0.0434813
-0.0441804
-0.044413
-0.0441632
-0.0434232
-0.0421928
-0.0404823
-0.038306
-0.0356958
-0.0326686
-0.0292903
-0.025542
-0.0215716
-0.0172122
-0.012854
-0.00786648
-0.00328928
-0.00571138
-0.00937612
-0.0130203
-0.0166199
-0.0201472
-0.0235698
-0.026852
-0.0299562
-0.0328432
-0.0354731
-0.0378054
-0.0398008
-0.0414218
-0.0426339
-0.0434075
-0.0437183
-0.0435489
-0.0428898
-0.041739
-0.0401052
-0.0380012
-0.0354569
-0.0324896
-0.0291607
-0.0254573
-0.0215147
-0.0171889
-0.0128301
-0.00787899
-0.0032576
-0.278054
-0.281722
-0.284912
-0.287771
-0.290456
-0.29313
-0.295983
-0.29922
-0.302918
-0.307604
-0.31841
-0.336272
-0.261281
-0.266605
-0.271653
-0.276567
-0.281498
-0.286618
-0.292133
-0.298269
-0.305039
-0.312839
-0.326223
-0.341349
-0.244872
-0.25128
-0.257438
-0.26344
-0.269389
-0.2754
-0.281618
-0.288193
-0.295056
-0.302516
-0.314705
-0.328009
-0.22675
-0.233697
-0.240432
-0.24703
-0.253574
-0.260159
-0.266907
-0.273947
-0.281226
-0.289056
-0.301039
-0.31375
-0.208742
-0.216047
-0.223203
-0.23027
-0.237319
-0.244427
-0.251692
-0.25921
-0.266919
-0.275071
-0.286626
-0.298498
-0.191175
-0.198641
-0.206004
-0.213311
-0.220618
-0.227983
-0.235483
-0.243188
-0.251043
-0.259263
-0.270267
-0.281455
-0.174048
-0.181484
-0.188849
-0.19618
-0.203521
-0.210919
-0.218437
-0.226132
-0.233962
-0.242117
-0.252528
-0.263039
-0.157502
-0.164771
-0.171989
-0.179187
-0.1864
-0.193669
-0.201041
-0.208563
-0.216207
-0.224138
-0.233848
-0.243582
-0.141648
-0.148649
-0.155612
-0.162561
-0.169522
-0.176528
-0.183618
-0.190827
-0.198141
-0.205699
-0.214617
-0.223487
-0.126547
-0.133213
-0.139845
-0.146462
-0.153085
-0.159737
-0.16645
-0.17325
-0.180131
-0.187209
-0.195284
-0.203245
-0.112239
-0.118529
-0.124786
-0.131022
-0.137255
-0.1435
-0.149781
-0.156117
-0.162508
-0.169044
-0.176269
-0.183333
-0.0987498
-0.104644
-0.110504
-0.116337
-0.122155
-0.12797
-0.133798
-0.139651
-0.145532
-0.151508
-0.157926
-0.164156
-0.0860922
-0.0915871
-0.0970449
-0.102471
-0.107873
-0.113257
-0.118634
-0.124013
-0.129395
-0.134829
-0.140516
-0.146013
-0.0742685
-0.0793721
-0.0844365
-0.089465
-0.0944614
-0.0994302
-0.104377
-0.109307
-0.114221
-0.119152
-0.124203
-0.12908
-0.0632731
-0.0680013
-0.0726892
-0.0773381
-0.08195
-0.0865271
-0.0910722
-0.0955875
-0.100075
-0.104553
-0.109063
-0.113428
-0.0574662
-0.0617995
-0.0660924
-0.0703454
-0.0745593
-0.078735
-0.0828735
-0.0869762
-0.0910521
-0.0951091
-0.0990511
-0.0477503
-0.0517539
-0.0557167
-0.0596383
-0.0635186
-0.0673578
-0.0711558
-0.0749138
-0.0786347
-0.0823095
-0.0858987
-0.0388298
-0.0425298
-0.0461892
-0.0498072
-0.0533835
-0.0569174
-0.0604086
-0.063858
-0.0672649
-0.0706135
-0.0739014
-0.0306779
-0.0341002
-0.0374826
-0.0408243
-0.0441245
-0.0473823
-0.0505974
-0.0537701
-0.056898
-0.0599641
-0.0629884
-0.0232645
-0.0264347
-0.029566
-0.0326575
-0.0357081
-0.0387172
-0.041684
-0.0446088
-0.0474882
-0.0503063
-0.0530963
-0.0165606
-0.0195032
-0.0224082
-0.0252744
-0.0281008
-0.0308866
-0.0336311
-0.0363342
-0.0389922
-0.0415916
-0.0441715
-0.0105381
-0.013277
-0.0159794
-0.0186443
-0.0212706
-0.0238573
-0.0264038
-0.0289098
-0.0313715
-0.0337781
-0.0361698
-0.00517226
-0.0077304
-0.0102533
-0.0127399
-0.0151891
-0.0175999
-0.0199717
-0.0223041
-0.0245933
-0.0268311
-0.0290555
-0.000443015
-0.00284255
-0.00520813
-0.00753863
-0.00983301
-0.0120903
-0.0143099
-0.0164912
-0.0186309
-0.0207228
-0.0228004
0.00366436
0.0014018
-0.000828098
-0.00302424
-0.0051856
-0.00731127
-0.00940055
-0.0114528
-0.0134653
-0.0154334
-0.0173848
0.00715719
0.00501057
0.00289525
0.000812293
-0.00123733
-0.00325274
-0.00523322
-0.00717809
-0.0090852
-0.0109514
-0.0127974
0.0100325
0.00798046
0.00595835
0.00396715
0.00200781
8.11632e-05
-0.00181207
-0.0036712
-0.00549462
-0.00728035
-0.00904194
0.0122817
0.0103037
0.00835402
0.00643358
0.00454326
0.00268384
0.00085602
-0.000939514
-0.00270162
-0.00442916
-0.00612957
0.0138578
0.0119303
0.0100299
0.00815722
0.0063132
0.00449857
0.00271398
0.000960071
-0.000762385
-0.00245283
-0.00411399
0.0147669
0.0128694
0.0109964
0.00914863
0.00732677
0.00553155
0.00376362
0.00202363
0.000312243
-0.00137019
-0.00302411
)
;

boundaryField
{
    inlet
    {
        type            zeroGradient;
    }
    outlet
    {
        type            fixedValue;
        value           uniform 0;
    }
    cylinder
    {
        type            zeroGradient;
    }
    top
    {
        type            symmetryPlane;
    }
    bottom
    {
        type            symmetryPlane;
    }
    defaultFaces
    {
        type            empty;
    }
    procBoundary3to1
    {
        type            processor;
        value           nonuniform List<scalar> 
41
(
-0.300536
-0.29952
-0.297268
-0.293952
-0.289741
-0.284749
-0.278951
-0.293643
-0.299031
-0.300794
-0.300536
-0.273529
-0.26523
-0.256482
-0.246479
-0.235528
-0.223752
-0.211297
-0.19834
-0.185051
-0.171601
-0.158147
-0.14483
-0.131777
-0.119095
-0.106878
-0.0951914
-0.0841085
-0.0736423
-0.0638823
-0.0547233
-0.0464064
-0.0384786
-0.0317553
-0.024713
-0.0200009
-0.0129053
-0.0114791
-0.00191758
-0.00737212
0.0108199
)
;
    }
    procBoundary3to2
    {
        type            processor;
        value           nonuniform List<scalar> 
50
(
-0.462457
-0.462457
-0.450017
-0.450017
-0.459443
-0.449233
-0.449233
-0.437291
-0.437291
-0.423577
-0.403524
-0.403524
-0.387011
-0.387011
-0.36653
-0.36653
-0.340602
-0.318716
-0.318716
-0.273772
-0.255557
-0.23813
-0.219528
-0.201236
-0.183563
-0.166505
-0.150156
-0.134587
-0.119831
-0.105904
-0.0928128
-0.0805552
-0.0691232
-0.0585033
-0.053092
-0.053092
-0.043706
-0.0350899
-0.0272168
-0.0200567
-0.0135815
-0.00776394
-0.00258015
0.00198925
0.00595839
0.00933397
0.0121134
0.014287
0.0158112
0.0166881
)
;
    }
}


// ************************************************************************* //
