/*--------------------------------*- C++ -*----------------------------------*\
  =========                 |
  \\      /  F ield         | OpenFOAM: The Open Source CFD Toolbox
   \\    /   O peration     | Website:  https://openfoam.org
    \\  /    A nd           | Version:  7
     \\/     M anipulation  |
\*---------------------------------------------------------------------------*/
FoamFile
{
    version     2.0;
    format      ascii;
    class       surfaceScalarField;
    location    "25";
    object      phi;
}
// * * * * * * * * * * * * * * * * * * * * * * * * * * * * * * * * * * * * * //

dimensions      [0 3 -1 0 0 0 0];

internalField   nonuniform List<scalar> 
4147
(
-4.23256e-05
4.23256e-05
1.12522e-12
-0.000145021
0.000102696
-2.58172e-12
-0.000292246
0.000147225
-1.82236e-11
-0.000468578
0.000176332
-0.000659467
0.000190889
-0.000852001
0.000192534
-0.00103592
0.000183915
-0.00120504
0.000169119
-0.00135819
0.000153157
0.000142408
-0.0015006
-4.15578e-05
8.38834e-05
-0.000142029
0.000203167
-0.000285442
0.000290638
-0.00045618
0.00034707
-0.000639419
0.000374127
-0.000821881
0.000374996
-0.000992843
0.000354878
-0.00114562
0.000321897
-0.0012786
0.000286139
0.000260329
-0.00139652
-4.00339e-05
0.000123917
-0.000136081
0.000299214
-0.000271913
0.000426471
-0.000431523
0.00050668
-0.00059954
0.000542144
-0.000761958
0.000537414
-0.000907144
0.000500063
-0.00102739
0.000442141
-0.00112017
0.00037892
0.000329438
-0.00118928
-3.77763e-05
0.000161694
-0.000127253
0.00038869
-0.000251813
0.000551031
-0.000394869
0.000649736
-0.000540245
0.000687519
-0.000672851
0.000670021
-0.000779691
0.000606903
-0.000851513
0.000513962
-0.000884396
0.000411804
0.000325631
-0.000880589
-3.48161e-05
0.00019651
-0.000115646
0.00046952
-0.000225355
0.000660739
-0.000346592
0.000770974
-0.000462124
0.00080305
-0.00055544
0.000763337
-0.000611732
0.000663195
-0.00061967
0.0005219
-0.000573729
0.000365863
0.000224805
-0.000472903
-3.11903e-05
0.0002277
-0.000101385
0.000539715
-0.000192797
0.000752151
-0.000287143
0.00086532
-0.000365898
0.000881805
-0.00041081
0.000808249
-0.000404821
0.000657206
-0.000333741
0.000450821
-0.000190272
0.000222394
1.94984e-05
1.50347e-05
-2.69385e-05
0.000254639
-8.46015e-05
0.000597378
-0.00015442
0.000821969
-0.000217019
0.000927919
-0.000252369
0.000917156
-0.000240177
0.000796058
-0.000160762
0.00057779
2.64995e-06
0.000287409
0.000263929
-3.88859e-05
-0.00033816
0.000621588
-2.20996e-05
0.000276738
-6.54276e-05
0.000640706
-0.000110506
0.000867047
-0.000136722
0.000954135
-0.000122365
0.000902799
-4.48436e-05
0.000718536
0.000118664
0.000414283
0.000389378
1.66955e-05
0.000782378
-0.000431886
-0.000857408
0.00130163
-1.67075e-05
0.000293446
-4.39819e-05
0.000667981
-6.13133e-05
0.000884379
-4.67266e-05
0.000939549
2.33169e-05
0.000832755
0.000173901
0.000567952
0.000431258
0.000156925
0.000820892
-0.000372938
0.00136301
-0.000974001
-0.00155886
0.00206445
-1.07887e-05
0.000304234
-2.03599e-05
0.000677552
-7.05558e-06
0.000871075
5.25632e-05
0.00087993
0.000183976
0.000701342
0.00041489
0.000337038
0.000775162
-0.000203347
0.00129522
-0.000892994
0.00200121
-0.00167999
-0.00246192
0.00290427
-4.36226e-06
0.000308597
5.37037e-06
0.000667819
5.20987e-05
0.000824346
0.000160838
0.00077119
0.000359066
0.000503115
0.000677161
1.89434e-05
0.00114871
-0.000674899
0.00180948
-0.00155376
0.0026926
-0.00256312
-0.00358454
0.00381522
2.58031e-06
0.000306016
3.31658e-05
0.000637234
0.000116058
0.000741454
0.000277897
0.000609351
0.000548208
0.000232804
0.000960011
-0.00039286
0.00155056
-0.00126544
0.00236109
-0.00236429
0.00343281
-0.00363483
-0.00494291
0.00479117
1.00173e-05
0.000295999
6.30243e-05
0.000584227
0.000184771
0.000619708
0.000403633
0.000390488
0.000751203
-0.000114766
0.00126304
-0.000904698
0.00197979
-0.00198219
0.00294799
-0.0033325
0.00421763
-0.00490447
-0.00655072
0.00582544
1.79754e-05
0.000278024
9.49418e-05
0.00050726
0.000258213
0.000456437
0.000537993
0.000110709
0.000967977
-0.00054475
0.00158613
-0.00152285
0.002436
-0.00283207
0.00356878
-0.00446528
0.00504333
-0.00637901
-0.00841823
0.00691084
2.64583e-05
0.000251565
0.000128913
0.000404806
0.000336344
0.000249006
0.000680905
-0.000233853
0.00119848
-0.00106232
0.00192931
-0.00225368
0.00291931
-0.00382207
0.00422302
-0.00576899
0.00590712
-0.00806311
-0.0105509
0.00803982
3.54664e-05
0.000216099
0.000164898
0.000275374
0.000419047
-5.1422e-06
0.000832169
-0.000646975
0.00144249
-0.00167265
0.00229256
-0.00310375
0.0034301
-0.0049596
0.00491138
-0.00725027
0.00680795
-0.00995969
-0.0129479
0.00920493
4.49836e-05
0.000171115
0.0002028
0.000117557
0.000506063
-0.000308405
0.000991319
-0.00113223
0.0016994
-0.00238073
0.0026754
-0.00407975
0.00396864
-0.00625284
0.00563547
-0.0089171
0.00774723
-0.0120715
-0.015601
0.0104004
5.49708e-05
0.000116144
0.000242431
-6.99033e-05
0.000596926
-0.000662899
0.00115747
-0.00169278
0.00196786
-0.00319112
0.00307632
-0.00518821
0.00453448
-0.007711
0.00639784
-0.0107805
0.00872913
-0.0144027
-0.0184989
0.011627
6.53607e-05
5.07837e-05
0.000283504
-0.000288047
0.000690913
-0.00107031
0.00132919
-0.00233105
0.00224544
-0.00410737
0.00349207
-0.00643485
0.00512551
-0.00934444
0.0072037
-0.0128586
0.00976806
-0.0169671
-0.0216306
0.0128998
7.60598e-05
-2.52761e-05
0.000325629
-0.000537616
0.000787034
-0.00153171
0.00150439
-0.0030484
0.00252824
-0.00513122
0.00391615
-0.00782276
0.00573365
-0.0111619
0.00805555
-0.0151806
0.010929
-0.0198406
-0.0249265
0.0142249
8.69567e-05
-0.000112233
0.000368348
-0.000819007
0.000884099
-0.00204746
0.00168045
-0.00384476
0.00281085
-0.00626162
0.0043375
-0.0093494
0.00633542
-0.0131598
0.00890513
-0.0177503
0.0122491
-0.0231845
-0.0297937
0.0171163
9.7938e-05
-0.000210171
0.000411186
-0.00113226
0.00098087
-0.00261715
0.00185463
-0.00471852
0.00308739
-0.00749437
0.00474285
-0.0110049
0.00689767
-0.0153147
0.00965222
-0.0205048
0.0131709
-0.0267033
-0.0342707
0.017648
0.000108904
0.00045372
-0.00147707
0.00107625
-0.00323967
0.00202457
-0.00566684
0.00335323
-0.00882303
0.00512366
-0.0127753
0.00740543
-0.0175964
0.0102774
-0.0233768
0.0138291
-0.030255
-0.0385288
0.0180872
0.000495607
0.00116936
-0.00391343
0.00218854
-0.00668602
0.00360556
-0.0102401
0.00547653
-0.0146463
0.00785902
-0.0199789
0.0108055
-0.0263233
0.0143477
-0.0337972
-0.0426161
0.018435
0.00125956
-0.0046364
0.00234536
-0.00777181
0.00384278
-0.0117375
0.00580058
-0.0166041
0.00826237
-0.0224407
0.011256
-0.0293169
0.0147724
-0.0373136
-0.0465635
0.0187198
0.00134634
0.00249414
-0.00891961
0.00406383
-0.0133072
0.00609553
-0.0186358
0.00861843
-0.0249636
0.0116385
-0.0323369
0.015118
-0.0407932
-0.0503892
0.0189438
0.00263408
0.00426773
-0.0149408
0.00636084
-0.0207289
0.00892828
-0.027531
0.0119569
-0.0353656
0.0153883
-0.0442246
-0.0540978
0.0190969
0.00445331
0.0065953
0.00919123
-0.030127
0.0122112
-0.0383855
0.0155809
-0.0475943
-0.0576842
0.0191673
0.00940523
0.0123987
-0.041379
0.0156906
-0.0508862
-0.0611375
0.0191438
0.0125156
0.0157118
-0.0540824
-0.0644429
0.0190173
0.0156398
0.0187813
-4.23256e-05
-0.000145021
-0.0015502
4.96016e-05
-0.00153798
-1.22153e-05
-0.00145163
-8.63507e-05
-0.00127685
-0.000174783
-0.00100724
-0.000269608
-0.000642777
-0.000364462
-0.000187503
-0.000455273
0.000351623
-0.000539125
0.000966045
-0.000614421
0.00164652
-0.000680474
0.00238374
-0.000737216
0.00316868
-0.000784942
0.00399281
-0.000824134
0.00484815
-0.000855341
0.00572728
-0.000879124
0.00662328
-0.000896003
0.00752978
-0.000906505
0.00844079
-0.000911019
0.00935094
-0.000910156
0.0102549
-0.000903915
0.0111485
-0.000893611
0.0120261
-0.000877643
0.0128867
-0.000860634
0.0137209
-0.000834174
0.0145375
-0.000816613
0.0153101
-0.0007726
0.0160821
-0.00077199
0.0167667
-0.000684602
0.0175095
-0.000742795
-0.000570968
-0.00144248
9.55587e-05
-0.00142594
-2.87609e-05
-0.0013357
-0.000176585
-0.00115782
-0.000352667
-0.000886104
-0.00054132
-0.000520697
-0.000729869
-6.56795e-05
-0.000910291
0.000472046
-0.00107685
0.00108406
-0.00122644
0.0017613
-0.00135771
0.00249462
-0.00147054
0.00327518
-0.0015655
0.0040946
-0.00164355
0.00494502
-0.00170576
0.00581912
-0.00175323
0.00671009
-0.00178697
0.00761162
-0.00180803
0.00851778
-0.00181718
0.00942323
-0.00181561
0.0103227
-0.00180333
0.011212
-0.00178296
0.0120856
-0.00175128
0.0129426
-0.00171755
0.0137733
-0.00166494
0.0145869
-0.00163014
0.0153567
-0.00154246
0.0161263
-0.00154157
0.016809
-0.00136729
0.01755
-0.00148379
-0.00114146
-0.00122803
0.00013431
-0.00120298
-5.38084e-05
-0.00110508
-0.000274485
-0.000921088
-0.000536662
-0.000645259
-0.000817149
-0.000278053
-0.00109707
0.00017637
-0.00136471
0.000711242
-0.00161172
0.00131842
-0.00183361
0.00198916
-0.00202846
0.00271471
-0.00219608
0.00348654
-0.00233734
0.00429658
-0.00245359
0.00513722
-0.0025464
0.00600136
-0.00261736
0.00688234
-0.00266795
0.00777401
-0.0026997
0.00867055
-0.00271371
0.00956671
-0.00271178
0.0104572
-0.00269387
0.0113382
-0.0026639
0.0122039
-0.00261703
0.0130535
-0.00256715
0.0138776
-0.00248898
0.014685
-0.0024376
0.0154495
-0.00230695
0.0162144
-0.00230642
0.0168933
-0.00204623
0.0176307
-0.00222123
-0.00171101
-0.000908779
0.0001625
-0.000871404
-9.11839e-05
-0.000762215
-0.000383673
-0.000569289
-0.000729588
-0.000287522
-0.00109892
8.21664e-05
-0.00146676
0.000535492
-0.00181804
0.00106594
-0.00214217
0.00166576
-0.00243343
0.00232674
-0.00268944
0.00304065
-0.00290999
0.00379948
-0.00309617
0.00459558
-0.00324969
0.00542172
-0.00337254
0.00627109
-0.00346673
0.00713731
-0.00353417
0.00801441
-0.0035768
0.00889674
-0.00359604
0.0097792
-0.00359424
0.0106566
-0.0035713
0.0115252
-0.00353245
0.0123793
-0.00347116
0.0132182
-0.00340599
0.0140323
-0.00330316
0.0148309
-0.00323615
0.0155875
-0.00306355
0.0163454
-0.00306435
0.0170189
-0.00271971
0.0177512
-0.00295352
-0.00227927
-0.000487863
0.000177461
-0.000434289
-0.000144758
-0.000310635
-0.000507327
-0.000106248
-0.000933975
0.000182961
-0.00138813
0.000555504
-0.00183931
0.00100702
-0.00226956
0.00153129
-0.00266643
0.00212114
-0.00302328
0.00276906
-0.00333737
0.00346752
-0.00360846
0.00420917
-0.00383781
0.00498692
-0.00402744
0.00579401
-0.00417963
0.00662405
-0.00429677
0.00747096
-0.00438108
0.00832905
-0.00443489
0.00919286
-0.00445985
0.0100575
-0.00445886
0.0109179
-0.00443171
0.0117703
-0.0043849
0.0126094
-0.00431022
0.0134343
-0.00423089
0.0142357
-0.00410457
0.0150228
-0.0040232
0.0157692
-0.00381002
0.0165183
-0.00381339
0.0171848
-0.00338623
0.0179105
-0.00367922
-0.00284603
4.02246e-05
0.000152271
0.000104518
-0.000209052
0.000244934
-0.000647742
0.000462941
-0.00115198
0.000760774
-0.00168596
0.00113622
-0.00221475
0.00158487
-0.00271821
0.00210096
-0.00318251
0.00267809
-0.00360041
0.00330962
-0.00396889
0.00398887
-0.00428772
0.0047093
-0.00455823
0.00546448
-0.00478263
0.00624826
-0.00496341
0.00705468
-0.0051032
0.00787807
-0.00520447
0.00871303
-0.00526984
0.00955436
-0.00530119
0.0103974
-0.00530186
0.0112372
-0.00527151
0.0120702
-0.00521792
0.0128911
-0.00513111
0.0136992
-0.00503901
0.0144853
-0.00489065
0.0152585
-0.00479647
0.0159929
-0.00454437
0.0167313
-0.00455185
0.0173897
-0.00404455
0.0181076
-0.00439719
-0.00341124
0.000645218
0.000128641
0.000738285
-0.000302119
0.000899029
-0.000808486
0.00113233
-0.00138528
0.00143941
-0.00199304
0.00181729
-0.00259263
0.00226161
-0.00316253
0.00276724
-0.00368814
0.00332872
-0.0041619
0.00394048
-0.00458065
0.00459685
-0.00494409
0.00529218
-0.00525357
0.00602085
-0.0055113
0.00677734
-0.00571989
0.00755623
-0.00588209
0.00835226
-0.0060005
0.00916039
-0.00607798
0.00997571
-0.00611651
0.0107937
-0.00611988
0.0116098
-0.00608755
0.0124204
-0.00602857
0.0132205
-0.00593113
0.0140094
-0.00582791
0.0147779
-0.00565923
0.0155355
-0.00555406
0.0162562
-0.005265
0.0169827
-0.00527839
0.0176319
-0.00469375
0.0183413
-0.00510656
-0.00397508
0.00134707
8.31941e-05
0.00146312
-0.000418165
0.00164538
-0.000990747
0.00189503
-0.00163494
0.00221134
-0.00230935
0.00259056
-0.00297185
0.00302857
-0.00360055
0.0035211
-0.00418066
0.00406384
-0.00470463
0.00465241
-0.00516922
0.00528232
-0.00557399
0.00594891
-0.00592015
0.00664741
-0.00620981
0.00737301
-0.00644549
0.00812086
-0.00662994
0.00888616
-0.0067658
0.00966425
-0.00685607
0.0104505
-0.00690277
0.0112407
-0.00691008
0.0120304
-0.0068772
0.0128162
-0.00681443
0.0135932
-0.00670809
0.0143609
-0.00659563
0.0151102
-0.00640858
0.0158507
-0.0062945
0.0165564
-0.00597073
0.0172701
-0.00599204
0.0179096
-0.00533329
0.0186099
-0.00580684
-0.00453796
0.00213211
1.55366e-05
0.00227245
-0.000558506
0.00247718
-0.00119548
0.00274342
-0.00190118
0.00306809
-0.00263401
0.00344682
-0.00335059
0.00387598
-0.0040297
0.00435237
-0.00465706
0.00487306
-0.00522532
0.00543503
-0.00573119
0.00603502
-0.00617399
0.00666947
-0.0065546
0.00733451
-0.00687484
0.00802603
-0.00713701
0.00873982
-0.00734372
0.00947154
-0.00749752
0.0102169
-0.00760144
0.0109716
-0.00765748
0.0117317
-0.00767016
0.0124928
-0.00763835
0.013252
-0.00757362
0.0140043
-0.00746031
0.0147493
-0.00734071
0.0154782
-0.00713748
0.0162005
-0.00701681
0.0168906
-0.00666082
0.0175909
-0.0066923
0.0182206
-0.00596303
0.0189117
-0.00649792
-0.0051006
0.00299456
-7.47544e-05
0.00315966
-0.000723601
0.0033871
-0.00142292
0.00366921
-0.00218328
0.00400039
-0.00296519
0.00437594
-0.00372613
0.00479301
-0.00444677
0.00524982
-0.00511386
0.00574496
-0.00572047
0.00627692
-0.00626315
0.00684373
-0.00674081
0.00744295
-0.00715381
0.00807161
-0.00750351
0.00872637
-0.00779178
0.00940359
-0.00802094
0.0100994
-0.00819335
0.01081
-0.00831199
0.0115312
-0.00837874
0.0122595
-0.00839843
0.0129907
-0.00836951
0.0137219
-0.00830484
0.0144483
-0.0081867
0.0151699
-0.00806229
0.0158776
-0.00784525
0.0165813
-0.00772051
0.0172555
-0.00733504
0.0179423
-0.0073791
0.0185626
-0.00658327
0.0192448
-0.00718014
-0.00566399
0.00392831
-0.000187838
0.00411803
-0.000913324
0.00436743
-0.00167233
0.00466354
-0.00247939
0.00499821
-0.00329987
0.00536688
-0.0040948
0.00576794
-0.00484783
0.00620129
-0.00554721
0.00666724
-0.00618642
0.00716582
-0.00676173
0.00769642
-0.0072714
0.00825766
-0.00771506
0.0088475
-0.00809335
0.00946332
-0.00840759
0.010102
-0.00865967
0.0107603
-0.0088516
0.0114346
-0.00898625
0.0121211
-0.0090653
0.0128165
-0.00909382
0.0135168
-0.00906982
0.0142194
-0.00900742
0.0149195
-0.00888678
0.0156172
-0.00876004
0.0163038
-0.00853178
0.0169889
-0.00840568
0.0176476
-0.00799368
0.0183214
-0.00805289
0.0189329
-0.00719479
0.019607
-0.00785429
-0.00622947
0.00492701
-0.000323675
0.00514077
-0.00112708
0.0054102
-0.00194175
0.00571699
-0.00278618
0.00605079
-0.00363367
0.00640779
-0.00445179
0.00678818
-0.00522822
0.00719381
-0.00595284
0.00762682
-0.00661943
0.00808879
-0.00722371
0.00858041
-0.00776301
0.00910136
-0.00823601
0.00965044
-0.00864243
0.0102257
-0.00898285
0.0108246
-0.00925859
0.0114442
-0.00947123
0.0120814
-0.00962341
0.0127326
-0.00971655
0.0133948
-0.00975593
0.014064
-0.00973906
0.0147379
-0.00968131
0.0154118
-0.00956067
0.016086
-0.00943429
0.0167518
-0.00919755
0.0174191
-0.00907297
0.018063
-0.00863759
0.0187248
-0.00871465
0.0193289
-0.00779888
0.0199962
-0.00852163
-0.0067987
0.00598434
-0.000482572
0.00622114
-0.00136389
0.00650718
-0.0022278
0.00681961
-0.0030986
0.00714659
-0.00396065
0.007486
-0.0047912
0.00784036
-0.00558259
0.00821372
-0.00632619
0.00861002
-0.00701573
0.00903236
-0.00764605
0.00948261
-0.00821326
0.00996142
-0.00871481
0.0104683
-0.00914935
0.011002
-0.00951654
0.0115605
-0.00981702
0.0121411
-0.0100518
0.012741
-0.0102233
0.013357
-0.0103326
0.0139861
-0.010385
0.0146247
-0.0103777
0.0152705
-0.0103271
0.015919
-0.0102092
0.0165707
-0.0100859
0.0172168
-0.00984363
0.0178674
-0.00972358
0.0184979
-0.00926815
0.0191491
-0.00936585
0.0197475
-0.00839728
0.0204098
-0.00918393
-0.00737369
0.00709396
-0.000665698
0.00735253
-0.00162246
0.00764994
-0.0025252
0.00796076
-0.00340942
0.00827326
-0.00427315
0.00858803
-0.00510598
0.00891044
-0.00590501
0.00924678
-0.00666253
0.00960274
-0.00737169
0.00998274
-0.00802604
0.0103897
-0.0086202
0.010825
-0.00915016
0.011289
-0.00961332
0.0117808
-0.0100083
0.0122987
-0.010335
0.0128406
-0.0105937
0.0134038
-0.0107865
0.0139853
-0.0109141
0.0145823
-0.0109821
0.0151914
-0.0109868
0.0158104
-0.0109462
0.0164349
-0.0108336
0.0170655
-0.0107165
0.0176935
-0.0104717
0.0183292
-0.0103593
0.0189484
-0.00988729
0.019591
-0.0100085
0.020186
-0.00899227
0.0208455
-0.00984344
-0.00795681
0.00824994
-0.000875814
0.00852875
-0.00190127
0.00882969
-0.00282614
0.00912901
-0.00370874
0.00941752
-0.00456165
0.00969961
-0.00538807
0.00998375
-0.00618915
0.0102784
-0.00695714
0.0105906
-0.00768394
0.010926
-0.00836141
0.0112882
-0.00898243
0.0116794
-0.00954135
0.0121003
-0.0100342
0.0125504
-0.0104585
0.0130285
-0.0108131
0.0135326
-0.0110978
0.0140603
-0.0113142
0.0146087
-0.0114625
0.0151753
-0.0115486
0.0157566
-0.0115681
0.0163506
-0.0115402
0.0169531
-0.011436
0.0175647
-0.0113282
0.0181769
-0.0110839
0.0188
-0.0109824
0.0194102
-0.0104975
0.0200468
-0.0106451
0.0206412
-0.0095866
0.0213006
-0.0105029
-0.00855075
0.00944747
-0.00111835
0.00974401
-0.00219781
0.010037
-0.00311914
0.0103117
-0.00398348
0.010565
-0.00481489
0.0108056
-0.00562872
0.0110451
-0.00642862
0.0112935
-0.00720558
0.0115592
-0.00794957
0.0118482
-0.00865046
0.012165
-0.00929917
0.012512
-0.00988834
0.0128903
-0.0104125
0.0132998
-0.010868
0.0137394
-0.0112527
0.0142073
-0.0115657
0.0147014
-0.0118082
0.0152188
-0.01198
0.015757
-0.0120869
0.0163129
-0.0121239
0.0168845
-0.0121118
0.0174674
-0.012019
0.0180627
-0.0119235
0.0186619
-0.011683
0.0192753
-0.0115958
0.0198795
-0.0111016
0.0205131
-0.0112787
0.0211099
-0.0101835
0.0217725
-0.0111655
-0.00915854
0.0106831
-0.00140112
0.0109918
-0.0025065
0.0112607
-0.00338801
0.0114945
-0.00421724
0.0116998
-0.00502019
0.01189
-0.00581895
0.0120787
-0.00661733
0.0122771
-0.00740398
0.0124939
-0.00816638
0.0127357
-0.00889221
0.0130069
-0.0095704
0.0133104
-0.0101918
0.0136474
-0.0107495
0.0140179
-0.0112385
0.014421
-0.0116558
0.0148551
-0.0119998
0.015318
-0.0122711
0.0158071
-0.012469
0.0163199
-0.0125997
0.0168532
-0.0126572
0.0174053
-0.0126639
0.0179719
-0.0125855
0.0185541
-0.0125057
0.0191435
-0.0122724
0.0197505
-0.0122028
0.0203521
-0.0117033
0.0209862
-0.0119127
0.0215893
-0.0107866
0.0222586
-0.0118348
-0.00978352
0.0119542
-0.00172836
0.0122647
-0.00281693
0.0124876
-0.00361097
0.0126607
-0.00439031
0.0128046
-0.00516409
0.0129358
-0.00595013
0.0130684
-0.00674995
0.0132137
-0.00754931
0.0133803
-0.00833299
0.0135746
-0.00908651
0.0138011
-0.00979688
0.0140625
-0.0104532
0.0143602
-0.0110472
0.0146942
-0.0115725
0.0150636
-0.0120253
0.0154667
-0.012403
0.0159016
-0.012706
0.0163657
-0.0129331
0.0168564
-0.0130904
0.0173707
-0.0131716
0.017907
-0.0132001
0.0184608
-0.0131394
0.0190336
-0.0130785
0.0196169
-0.0128557
0.0202213
-0.0128072
0.0208243
-0.0123063
0.0214627
-0.0125511
0.0220761
-0.0114
0.0227562
-0.012515
-0.0104293
0.0132772
-0.00210577
0.0135625
-0.0031023
0.0137054
-0.00375388
0.0137942
-0.0044791
0.0138631
-0.00523297
0.0139276
-0.00601458
0.0139999
-0.00682229
0.0140902
-0.00763963
0.0142062
-0.00844898
0.0143537
-0.00923403
0.0145369
-0.00998008
0.0147584
-0.0106747
0.0150193
-0.0113081
0.0153197
-0.0118728
0.0156586
-0.0123641
0.0160343
-0.0127788
0.0164449
-0.0131165
0.0168876
-0.0133758
0.0173601
-0.013563
0.0178593
-0.0136708
0.0183836
-0.0137244
0.0189288
-0.0136845
0.0194962
-0.013646
0.0200776
-0.0134371
0.0206836
-0.0134132
0.0212922
-0.0129149
0.0219392
-0.0131981
0.0225673
-0.0120282
0.0232627
-0.0132104
-0.0110999
0.014734
-0.00261496
0.0148872
-0.00325546
0.014897
-0.00376369
0.0148774
-0.00445947
0.0148594
-0.00521498
0.0148517
-0.00600692
0.0148617
-0.00683225
0.0148968
-0.0076747
0.0149631
-0.00851535
0.0150657
-0.00933658
0.015208
-0.0101224
0.0153923
-0.010859
0.0156195
-0.0115353
0.0158895
-0.0121428
0.0162013
-0.0126759
0.0165532
-0.0131306
0.016943
-0.0135064
0.0173682
-0.013801
0.0178264
-0.0140212
0.0183145
-0.0141589
0.0188309
-0.0142409
0.0193716
-0.0142252
0.0199378
-0.0142122
0.0205218
-0.0140211
0.0211335
-0.0140249
0.0217527
-0.0135341
0.0224121
-0.0138574
0.023061
-0.0126771
0.0237743
-0.0139237
-0.0118006
0.0323223
-0.00175891
-0.0331783
0.0319193
-0.00285249
0.0316889
-0.00353333
0.0315022
-0.00427268
0.0313451
-0.00505793
0.031209
-0.0058708
0.0310896
-0.00671289
0.0309877
-0.00757278
0.0309058
-0.00843342
0.0308473
-0.00927807
0.0308159
-0.010091
0.030815
-0.0108581
0.0308474
-0.0115677
0.030915
-0.0122104
0.0310187
-0.0127796
0.0311585
-0.0132705
0.0313338
-0.0136817
0.0315432
-0.0140103
0.0317845
-0.0142625
0.0320557
-0.01443
0.0323537
-0.0145389
0.0326766
-0.014548
0.0330208
-0.0145564
0.0333844
-0.0143848
0.0337655
-0.014406
0.0341595
-0.0139281
0.0345727
-0.0142706
0.0349895
-0.0130939
0.0354317
-0.0143659
-0.0122503
0.0390348
-0.000912849
-0.0398809
0.0382321
-0.00204976
0.0376445
-0.00294575
0.0371681
-0.00379631
0.0367702
-0.00466001
0.0364308
-0.00553142
0.0361352
-0.00641727
0.0358765
-0.00731407
0.0356523
-0.00820921
0.0354625
-0.00908832
0.0353085
-0.00993698
0.035192
-0.0107416
0.0351146
-0.0114903
0.0350775
-0.0121733
0.0350812
-0.0127833
0.0351254
-0.0133147
0.0352091
-0.0137654
0.0353308
-0.014132
0.0354881
-0.0144198
0.035679
-0.0146209
0.0359
-0.0147599
0.0361494
-0.0147974
0.0364227
-0.0148297
0.0367197
-0.0146817
0.0370349
-0.0147213
0.0373699
-0.014263
0.0377196
-0.0146204
0.0380885
-0.0134627
0.038465
-0.0147423
-0.0126633
0.0459724
1.22245e-05
-0.0468974
0.0450063
-0.00108371
0.0441719
-0.00211128
0.0434462
-0.00307064
0.0428146
-0.00402848
0.0422634
-0.00498022
0.0417768
-0.00593063
0.0413443
-0.00688162
0.0409604
-0.00782526
0.0406221
-0.00875006
0.0403287
-0.00964354
0.0400803
-0.0104932
0.0398773
-0.0112874
0.0397203
-0.0120163
0.0396092
-0.0126721
0.0395433
-0.0132489
0.0395214
-0.0137435
0.0395419
-0.0141525
0.0396022
-0.0144801
0.0397001
-0.0147188
0.039832
-0.0148918
0.0399961
-0.0149616
0.0401875
-0.0150211
0.0404066
-0.0149008
0.040646
-0.0149607
0.040911
-0.014528
0.041189
-0.0148984
0.0414984
-0.0137721
0.0418032
-0.0150472
-0.0130289
0.0532157
0.00100909
-0.0542125
0.0521534
-2.14038e-05
0.0511554
-0.00111333
0.0502397
-0.00215488
0.0494076
-0.00319647
0.0486584
-0.00423093
0.0479827
-0.00525502
0.0473719
-0.00627083
0.0468199
-0.00727318
0.0463226
-0.00825283
0.0458781
-0.00919906
0.0454855
-0.0101005
0.0451445
-0.0109463
0.0448548
-0.0117266
0.044616
-0.0124334
0.0444273
-0.0130602
0.0442873
-0.0136035
0.0441941
-0.0140593
0.0441452
-0.0144312
0.0441382
-0.0147118
0.0441693
-0.0149229
0.0442369
-0.0150292
0.0443353
-0.0151195
0.0444659
-0.0150314
0.0446192
-0.015114
0.0448042
-0.0147131
0.0450006
-0.0150948
0.0452414
-0.0140129
0.045465
-0.0152708
-0.0133382
0.0606977
0.00206858
-0.0617571
0.059579
0.00109725
0.0584827
-1.70563e-05
0.0574376
-0.00110975
0.0564529
-0.00221179
0.0555378
-0.00331581
0.0546925
-0.00440974
0.0539133
-0.00549159
0.0531965
-0.00655635
0.0525392
-0.00759556
0.0519396
-0.00859948
0.0513967
-0.00955764
0.05091
-0.0104596
0.0504791
-0.0112957
0.0501034
-0.0120577
0.0497822
-0.0127389
0.0495138
-0.0133351
0.0492966
-0.0138421
0.049128
-0.0142625
0.0490056
-0.0145894
0.0489255
-0.0148428
0.0488863
-0.0149899
0.0488817
-0.015115
0.0489139
-0.0150636
0.0489715
-0.0151715
0.0490671
-0.0148087
0.0491725
-0.0152002
0.0493358
-0.0141762
0.0494692
-0.0154042
-0.0135825
0.0683116
0.0031615
-0.0694045
0.0671759
0.00223294
0.0660355
0.00112337
0.0649184
7.34828e-06
0.063835
-0.00112841
0.0627989
-0.0022797
0.061818
-0.00342886
0.0608948
-0.00456835
0.0600297
-0.0056913
0.0592228
-0.00678864
0.0584739
-0.00785053
0.0577829
-0.00886665
0.05715
-0.0098267
0.0565753
-0.010721
0.0560585
-0.011541
0.0555992
-0.0122796
0.0551962
-0.0129321
0.0548479
-0.0134938
0.0545519
-0.0139665
0.0543061
-0.0143436
0.0541067
-0.0146434
0.0539521
-0.0148354
0.0538362
-0.0149991
0.0537614
-0.0149889
0.0537148
-0.0151249
0.0537126
-0.0148065
0.0537188
-0.0152063
0.0537962
-0.0142535
0.0538313
-0.0154393
-0.0137529
0.0759351
0.00424061
-0.0770142
0.074824
0.0033441
0.0736889
0.00225848
0.0725536
0.00114265
0.0714261
-9.1554e-07
0.0703205
-0.00117413
0.0692486
-0.00235697
0.0682181
-0.00353783
0.0672339
-0.00470713
0.0662997
-0.00585441
0.065418
-0.00696883
0.0645909
-0.00803953
0.06382
-0.00905579
0.0631065
-0.0100075
0.0624513
-0.0108858
0.0618545
-0.0116828
0.0613156
-0.0123932
0.0608336
-0.0130119
0.0604067
-0.0135396
0.060033
-0.01397
0.059709
-0.0143194
0.0594335
-0.0145599
0.0592
-0.0147656
0.059012
-0.0148008
0.0588547
-0.0149676
0.0587479
-0.0146998
0.058648
-0.0151064
0.0586324
-0.0142379
0.0585629
-0.0153698
-0.0138414
0.0834378
0.00525069
-0.0844478
0.0823969
0.00438499
0.0813154
0.00333995
0.0802117
0.00224639
0.0790938
0.00111694
0.0779716
-5.1929e-05
0.076859
-0.00124433
0.0757664
-0.00244527
0.0747025
-0.00364318
0.0736741
-0.00482609
0.0726871
-0.00598184
0.0717461
-0.00709852
0.0708549
-0.00816459
0.0700166
-0.00916915
0.0692333
-0.0101025
0.0685066
-0.0109561
0.0678371
-0.0117237
0.0672247
-0.0123995
0.0666683
-0.0129832
0.0661668
-0.0134685
0.0657172
-0.0138697
0.0653188
-0.0141614
0.0649651
-0.014412
0.0646604
-0.0144961
0.0643885
-0.0146957
0.0641728
-0.014484
0.0639624
-0.014896
0.0638482
-0.0141237
0.0636697
-0.0151913
-0.0138409
0.0907
0.00613788
-0.0915872
0.0897748
0.00531014
0.088793
0.00432178
0.0877683
0.00327108
0.0867085
0.00217679
0.0856215
0.00103506
0.0845193
-0.000142203
0.0834141
-0.00133999
0.0823161
-0.00254522
0.081235
-0.00374498
0.0801791
-0.004926
0.0791558
-0.00607523
0.0781713
-0.00718007
0.0772308
-0.00822859
0.0763384
-0.00921008
0.0754973
-0.010115
0.0747097
-0.010936
0.0739768
-0.0116666
0.0732986
-0.0123051
0.0726751
-0.0128449
0.0721039
-0.0132986
0.071585
-0.0136426
0.0711126
-0.0139396
0.0706914
-0.0140749
0.0703046
-0.0143088
0.0699785
-0.0141579
0.069656
-0.0145735
0.0694401
-0.0139079
0.069151
-0.0149022
-0.0137458
0.0976312
0.00685851
-0.0983518
0.0968605
0.0060809
0.0960182
0.00516406
0.095114
0.00417526
0.0941558
0.00313496
0.0931501
0.00204074
0.092107
0.000900934
0.0910377
-0.000270657
0.0899534
-0.00146094
0.0888649
-0.00265652
0.0877825
-0.00384358
0.0867155
-0.00500823
0.0856723
-0.00613686
0.0846602
-0.00721654
0.0836856
-0.00823541
0.0827534
-0.00918284
0.0818677
-0.0100503
0.0810312
-0.0108301
0.0802455
-0.0115194
0.0795116
-0.0121111
0.0788285
-0.0126155
0.0781971
-0.0130111
0.077612
-0.0133545
0.0770792
-0.0135421
0.076581
-0.0138106
0.0761468
-0.0137238
0.0757141
-0.0141409
0.0753962
-0.0135899
0.0749981
-0.0145041
-0.0135528
0.104183
0.00738552
-0.10471
0.103593
0.00667114
0.102919
0.00583774
0.102168
0.00492664
0.101346
0.00395637
0.10046
0.00292674
0.0995178
0.00184361
0.0985284
0.000718732
0.0975029
-0.000435377
0.0964521
-0.00160576
0.0953871
-0.00277853
0.0943183
-0.00393945
0.0932557
-0.00507429
0.0922085
-0.00616929
0.0911846
-0.00721157
0.0901912
-0.0081894
0.0892339
-0.00909299
0.0883173
-0.00991355
0.0874447
-0.0106467
0.0866185
-0.0112849
0.0858391
-0.011836
0.0851084
-0.0122804
0.0844221
-0.0126682
0.0837872
-0.0129072
0.0831857
-0.0132091
0.0826498
-0.0131878
0.082113
-0.0136041
0.0816959
-0.0131728
0.0811942
-0.0140023
-0.0132611
0.110356
0.00771108
-0.110682
0.109957
0.00707049
0.109466
0.00632805
0.108887
0.00550558
0.108226
0.00461744
0.107488
0.00366544
0.106677
0.00265404
0.105803
0.00159282
0.104875
0.000493112
0.103902
-0.000632921
0.102895
-0.00177199
0.101866
-0.00291
0.100824
-0.00403257
0.0997803
-0.00512547
0.0987438
-0.00617509
0.0977232
-0.00716878
0.0967258
-0.00809561
0.095758
-0.00894569
0.0948245
-0.00971319
0.0939294
-0.0103898
0.0930745
-0.0109811
0.0922631
-0.0114691
0.091492
-0.0118971
0.0907694
-0.0121846
0.0900775
-0.0125172
0.0894505
-0.0125609
0.0888197
-0.0129733
0.0883101
-0.0126631
0.0877138
-0.0134061
-0.0128729
0.116195
0.00784514
-0.11633
0.115982
0.0072844
0.115674
0.0066353
0.115273
0.00590662
0.114783
0.00510784
0.114206
0.00424187
0.113548
0.00331251
0.112813
0.00232735
0.11201
0.00129621
0.111147
0.000230246
0.110233
-0.000858309
0.109279
-0.00195601
0.108296
-0.00304869
0.107292
-0.00412213
0.10628
-0.00516239
0.105267
-0.0061562
0.104263
-0.00709175
0.103276
-0.00795819
0.102311
-0.00874832
0.101374
-0.00945311
0.100469
-0.0100759
0.0995996
-0.0105999
0.0987645
-0.0110619
0.0979729
-0.011393
0.0972075
-0.0117519
0.0965042
-0.0118576
0.0957937
-0.0122628
0.0952017
-0.0120711
0.0945238
-0.0127281
-0.012394
0.121782
0.00781091
-0.121747
0.121735
0.00733092
0.121598
0.0067728
0.121367
0.00613761
0.121044
0.00543028
0.120632
0.00465395
0.120133
0.00381201
0.119549
0.00291042
0.118888
0.00195741
0.118156
0.000962799
0.117359
-6.20519e-05
0.116509
-0.00110522
0.115613
-0.00215275
0.114682
-0.00319103
0.113725
-0.00420614
0.112754
-0.00518457
0.111776
-0.00611394
0.110801
-0.00698273
0.109835
-0.00778256
0.108885
-0.00850381
0.107957
-0.00914751
0.107056
-0.00969843
0.10618
-0.0101865
0.105341
-0.0105543
0.104523
-0.0109334
0.103761
-0.011096
0.102989
-0.0114904
0.102328
-0.0114103
0.101585
-0.0119845
-0.0118332
0.127214
0.00763865
-0.127042
0.127309
0.00723583
0.127319
0.00676269
0.12724
0.00621632
0.127073
0.00559809
0.126816
0.00491067
0.126471
0.00415706
0.126039
0.00334192
0.125525
0.00247197
0.124932
0.00155567
0.124267
0.000602989
0.123537
-0.000374932
0.122749
-0.00136558
0.121914
-0.00235579
0.12104
-0.00333212
0.120137
-0.0042812
0.119213
-0.00519043
0.118278
-0.00604791
0.11734
-0.0068444
0.116406
-0.00756984
0.115482
-0.0082232
0.114574
-0.00879068
0.113683
-0.00929558
0.112821
-0.00969168
0.111971
-0.0100842
0.111172
-0.0102961
0.110357
-0.0106761
0.109644
-0.0106968
0.108853
-0.0111935
-0.0112027
0.132596
0.00735969
-0.132317
0.132804
0.00702737
0.132936
0.00663103
0.132986
0.00616606
0.132953
0.00563139
0.132835
0.00502882
0.132631
0.00436092
0.132342
0.00363128
0.131968
0.00284528
0.131514
0.00201005
0.130983
0.00113423
0.13038
0.000227889
0.129712
-0.000697758
0.128987
-0.00163042
0.128212
-0.00255732
0.127396
-0.00346556
0.126548
-0.00434264
0.125677