/*--------------------------------*- C++ -*----------------------------------*\
  =========                 |
  \\      /  F ield         | OpenFOAM: The Open Source CFD Toolbox
   \\    /   O peration     | Website:  https://openfoam.org
    \\  /    A nd           | Version:  7
     \\/     M anipulation  |
\*---------------------------------------------------------------------------*/
FoamFile
{
    version     2.0;
    format      ascii;
    class       volVectorField;
    location    "25";
    object      U;
}
// * * * * * * * * * * * * * * * * * * * * * * * * * * * * * * * * * * * * * //

dimensions      [0 1 -1 0 0 0 0];

internalField   nonuniform List<vector> 
2125
(
(-0.000760242 0.00060125 3.61909e-22)
(-0.0038423 0.0013099 -1.15872e-21)
(-0.00929053 0.00165786 -1.42781e-21)
(-0.0153855 0.00174084 1.49052e-21)
(-0.0213845 0.00163091 -1.43298e-21)
(-0.0267514 0.00139415 -7.92143e-22)
(-0.0311272 0.00109191 1.39431e-21)
(-0.0343767 0.000781647 1.77566e-21)
(-0.0365507 0.000510954 -2.95036e-22)
(-0.0377511 0.000323038 8.82419e-22)
(-0.000843729 0.00179045 -4.00688e-22)
(-0.00398045 0.00389775 1.37648e-21)
(-0.00936339 0.0049297 -3.42187e-21)
(-0.0153036 0.00517128 3.25832e-21)
(-0.0210709 0.00483763 1.53214e-22)
(-0.026139 0.00412612 2.58693e-21)
(-0.0301568 0.00322026 -4.63509e-21)
(-0.0329987 0.00229227 -6.94894e-21)
(-0.034724 0.00148572 -1.38077e-21)
(-0.0353887 0.000933087 3.17864e-21)
(-0.00100725 0.00294009 3.73427e-22)
(-0.00424843 0.00639045 3.03955e-21)
(-0.00949771 0.00807086 7.5485e-21)
(-0.0151266 0.00844915 -7.15944e-21)
(-0.0204293 0.00788036 -1.68389e-21)
(-0.0248993 0.00669054 -1.58472e-21)
(-0.0282014 0.00518367 8.40736e-21)
(-0.0302289 0.00364627 5.36317e-21)
(-0.0310587 0.00231976 1.31404e-21)
(-0.0306509 0.00143435 -9.85346e-21)
(-0.00124396 0.00402484 1.32492e-21)
(-0.00462969 0.00872693 -1.77767e-21)
(-0.00967071 0.0109974 -1.41139e-20)
(-0.0148276 0.0114766 1.30625e-21)
(-0.0194308 0.0106541 4.23069e-21)
(-0.0230029 0.0089804 -3.41051e-21)
(-0.0252321 0.00687704 -1.57101e-22)
(-0.0260394 0.00474378 -1.46276e-21)
(-0.0255314 0.00292254 3.38542e-21)
(-0.0235097 0.0017555 9.80729e-21)
(-0.00154383 0.00502094 9.26891e-22)
(-0.00509974 0.0108496 -5.79894e-21)
(-0.00984849 0.0136302 1.46307e-20)
(-0.0143666 0.0141614 -7.00322e-21)
(-0.0180318 0.0130603 -2.75216e-23)
(-0.020405 0.0108957 1.04284e-20)
(-0.0212047 0.00820254 -4.92413e-21)
(-0.020388 0.00549198 5.27719e-22)
(-0.0181078 0.00321279 -2.15274e-21)
(-0.0139251 0.0018527 7.74167e-22)
(-0.0018938 0.00590665 1.1159e-20)
(-0.00562646 0.0127054 1.49534e-20)
(-0.00998627 0.0158963 -4.00345e-21)
(-0.0136905 0.016419 8.02468e-21)
(-0.0161744 0.0150093 2.65644e-21)
(-0.0170457 0.0123464 -3.89708e-21)
(-0.0160599 0.00907277 -1.5777e-21)
(-0.0132159 0.00580867 -6.89319e-21)
(-0.00873011 0.00312133 1.56296e-21)
(-0.00187345 0.00175546 -9.07504e-21)
(-0.00227805 0.00666266 -1.07693e-20)
(-0.00617055 0.0142471 -7.80037e-21)
(-0.0100287 0.0177309 6.76239e-21)
(-0.0127329 0.018175 -1.22461e-20)
(-0.0137857 0.016423 1.4672e-21)
(-0.0128492 0.0132549 1.53967e-20)
(-0.00972238 0.00941417 -2.89812e-21)
(-0.00444884 0.0056286 1.90074e-20)
(0.00271211 0.00257531 -4.65506e-22)
(0.0126632 0.0013323 -7.98492e-21)
(-0.00267828 0.00727238 9.21361e-21)
(-0.00668594 0.0154335 -1.83105e-20)
(-0.00991034 0.0190783 -7.64478e-21)
(-0.0114148 0.0193661 9.29521e-21)
(-0.0107781 0.0172366 3.66331e-22)
(-0.00772379 0.0135594 -2.89814e-20)
(-0.00209865 0.00916904 -1.77821e-21)
(0.00599496 0.00489295 -1.51583e-20)
(0.0162664 0.00152166 -1.98699e-20)
(0.0298553 0.000484477 1.17418e-20)
(-0.00307395 0.00772203 -5.15665e-21)
(-0.00712033 0.0162309 2.72679e-21)
(-0.00955597 0.0198928 7.10816e-21)
(-0.00964476 0.0199423 -6.73931e-21)
(-0.00704974 0.0174015 -2.42426e-20)
(-0.00156268 0.0132162 8.5608e-21)
(0.00691714 0.0082996 1.23575e-21)
(0.0182248 0.00356774 2.28548e-20)
(0.0320233 -5.14049e-05 3.04692e-20)
(0.0497828 -0.000730765 -1.38639e-20)
(-0.00344248 0.00800075 8.32868e-21)
(-0.00741561 0.0166125 8.33379e-21)
(-0.00888132 0.0201402 -1.21182e-21)
(-0.00731942 0.0198679 3.33846e-20)
(-0.00248445 0.0168863 1.47577e-20)
(0.005757 0.0122029 1.1422e-20)
(0.0174486 0.00679455 1.65499e-20)
(0.0323607 0.00165329 -7.38912e-21)
(0.0500984 -0.00215511 -1.0182e-20)
(0.072541 -0.00229751 -1.69592e-20)
(-0.00375954 0.00810054 -6.18275e-22)
(-0.00750841 0.0165594 -1.32571e-20)
(-0.00779365 0.0197977 -9.98991e-21)
(-0.00432416 0.0191226 -1.65921e-20)
(0.00304746 0.015679 -1.35197e-20)
(0.0143735 0.0105202 1.42546e-20)
(0.0296356 0.00466962 -1.39547e-20)
(0.0485372 -0.000823536 -9.8119e-21)
(0.0706176 -0.00476665 1.33527e-21)
(0.0982438 -0.00419127 4.38566e-21)
(-0.00399903 0.00801602 -2.35165e-20)
(-0.00733069 0.0160602 1.22287e-20)
(-0.00619273 0.0188542 9.25439e-21)
(-0.000534387 0.0177017 6.56939e-21)
(0.00968798 0.0137872 -1.22787e-20)
(0.0244392 0.00819336 -1.0566e-20)
(0.0436331 0.00197054 1.57714e-20)
(0.066903 -0.00380051 -1.31833e-20)
(0.0937162 -0.00782296 -9.37618e-22)
(0.127012 -0.00635709 -1.41706e-20)
(-0.00413325 0.00774468 2.00687e-20)
(-0.00681021 0.0151114 8.91278e-21)
(-0.00397203 0.017311 4.68807e-22)
(0.0041829 0.0156165 -1.19754e-20)
(0.0175894 0.0112381 7.34292e-22)
(0.0361187 0.00527225 1.42152e-20)
(0.0596094 -0.00122501 -4.10411e-21)
(0.0876191 -0.00717443 -5.10567e-21)
(0.119538 -0.0112149 -1.15322e-20)
(0.158966 -0.00870323 2.13014e-20)
(-0.00413334 0.0072866 1.41129e-20)
(-0.0058715 0.0137169 -2.43514e-20)
(-0.00102026 0.0151812 -1.95494e-20)
(0.00996671 0.012894 8.86422e-21)
(0.0269116 0.00807841 1.84744e-20)
(0.0495859 0.00183052 1.61912e-20)
(0.0777436 -0.00480791 -1.74493e-20)
(0.110857 -0.0107983 3.4276e-20)
(0.148234 -0.0147774 -1.06358e-20)
(0.194213 -0.0110903 -2.542e-20)
(-0.00396923 0.00664444 -2.07776e-20)
(-0.00443698 0.0118885 1.36625e-20)
(0.00277646 0.0124899 -7.01696e-21)
(0.0169589 0.00957591 8.32764e-22)
(0.0378178 0.00437167 8.04859e-21)
(0.0650195 -0.00203777 -2.54466e-20)
(0.0982216 -0.00864145 2.2886e-20)
(0.136798 -0.0144823 -2.29282e-20)
(0.179961 -0.0182803 3.69135e-20)
(0.232845 -0.0133203 1.32819e-20)
(-0.00361012 0.00582371 4.70632e-21)
(-0.00242827 0.00964626 2.71696e-20)
(0.0075319 0.00927376 -7.3468e-21)
(0.0253001 0.00571787 7.45533e-21)
(0.050469 0.000196097 9.09577e-21)
(0.0825961 -0.00622351 -2.91023e-21)
(0.12123 -0.0125695 2.01133e-20)
(0.165628 -0.0180017 1.21215e-21)
(0.214894 -0.0214271 -2.33704e-20)
(0.274939 -0.0151292 3.21534e-20)
(-0.003025 0.00483307 -1.22727e-20)
(0.000232001 0.00701858 -2.60739e-20)
(0.0133564 0.00558151 2.33958e-20)
(0.0351243 0.00138841 1.23054e-20)
(0.0650165 -0.00435878 -5.76821e-20)
(0.102481 -0.0106098 4.84384e-20)
(0.146947 -0.0164297 -4.42225e-20)
(0.197531 -0.0211134 9.04078e-22)
(0.253217 -0.0238458 -1.00718e-20)
(0.320552 -0.0161233 -2.97006e-20)
(-0.00218337 0.00368473 1.10552e-20)
(0.00361803 0.00404286 -1.83228e-21)
(0.020353 0.0014738 -5.74208e-21)
(0.0465531 -0.00333169 -5.86412e-22)
(0.0815931 -0.00919529 -4.02287e-21)
(0.124817 -0.0150813 -1.51972e-20)
(0.175526 -0.0200743 6.35395e-21)
(0.23268 -0.0235799 -1.07487e-20)
(0.295097 -0.0250247 3.47134e-21)
(0.369571 -0.0155064 1.73471e-21)
(-0.00105617 0.00239484 -2.2696e-20)
(0.00779851 0.000766245 -2.00501e-21)
(0.0286133 -0.00297594 2.88711e-21)
(0.0596884 -0.00834927 1.31814e-21)
(0.100302 -0.0142099 1.91747e-20)
(0.149707 -0.0195352 -5.78398e-20)
(0.207091 -0.0234059 3.93559e-20)
(0.271281 -0.0252329 -3.0236e-20)
(0.340824 -0.0243101 2.51391e-20)
(0.421543 -0.0119397 2.66499e-20)
(0.000383258 0.000983951 -2.90732e-21)
(0.0128342 -0.00275372 1.36055e-20)
(0.0382134 -0.00768044 -1.75557e-20)
(0.0746056 -0.013557 -5.65107e-21)
(0.121203 -0.0192919 1.13288e-20)
(0.177187 -0.0238883 5.54276e-20)
(0.241691 -0.0264201 -1.11548e-20)
(0.313607 -0.026138 5.47303e-21)
(0.391477 -0.0215666 -3.0018e-20)
(0.477769 -0.00563478 1.46516e-20)
(0.00215832 -0.00052283 -8.66121e-21)
(0.0187761 -0.00644853 -7.21203e-21)
(0.0492107 -0.012537 1.99531e-21)
(0.0913479 -0.0188296 7.22035e-21)
(0.144297 -0.0243144 -2.22073e-20)
(0.207185 -0.0280599 -9.15891e-21)
(0.279146 -0.0291924 -2.95529e-20)
(0.359468 -0.02678 3.03043e-20)
(0.448212 -0.018557 3.31438e-20)
(0.54823 -0.00252384 -1.22253e-20)
(0.00428853 -0.00209587 -4.32846e-21)
(0.0256638 -0.0102386 1.80913e-20)
(0.0616427 -0.0174261 -2.04972e-20)
(0.109925 -0.0240181 -2.56734e-21)
(0.16953 -0.0291167 -1.04481e-20)
(0.239509 -0.0319131 2.29138e-20)
(0.318956 -0.0317105 2.98384e-20)
(0.407343 -0.0277872 -2.93314e-20)
(0.505405 -0.0187354 3.28261e-20)
(0.612854 -0.00950032 5.38596e-21)
(0.0067892 -0.00370147 -1.24506e-20)
(0.0335255 -0.0140339 -3.66379e-20)
(0.0755277 -0.0222118 3.69914e-20)
(0.130319 -0.0289484 5.44348e-21)
(0.196809 -0.0334931 7.96542e-21)
(0.273924 -0.0352093 5.35282e-21)
(0.360614 -0.0336604 2.32016e-20)
(0.456183 -0.0285148 1.72737e-20)
(0.561063 -0.0192732 -6.33084e-20)
(0.671631 -0.014386 -3.24385e-20)
(0.042378 -0.0177362 9.0206e-21)
(0.0908661 -0.0267448 -2.12205e-20)
(0.152489 -0.0334265 4.08792e-21)
(0.226019 -0.0372051 6.84105e-21)
(0.310205 -0.037648 -5.05153e-20)
(0.403741 -0.0346035 2.31546e-20)
(0.505525 -0.02812 -1.56472e-20)
(0.61522 -0.0182723 1.69336e-20)
(0.727052 -0.0148857 -6.74803e-21)
(0.107641 -0.0308666 -1.17657e-21)
(0.176375 -0.0372472 -5.91582e-21)
(0.257036 -0.0400026 6.68856e-23)
(0.348141 -0.038923 2.17857e-22)
(0.448053 -0.0341392 -3.50057e-20)
(0.555153 -0.0260294 4.87465e-21)
(0.668237 -0.0150381 4.66073e-20)
(0.780453 -0.011367 2.22048e-20)
(0.125818 -0.034415 3.62488e-20)
(0.201897 -0.0402035 8.83235e-22)
(0.289715 -0.0416404 -1.62038e-20)
(0.387519 -0.0387519 4.41034e-20)
(0.493293 -0.0319436 1.00164e-20)
(0.604871 -0.0218814 7.82318e-22)
(0.720236 -0.00927832 -2.02409e-20)
(0.832111 -0.00417849 -2.82828e-20)
(0.228949 -0.0420944 -1.57241e-20)
(0.323889 -0.0418899 2.60152e-20)
(0.428109 -0.0368895 -1.30969e-20)
(0.539191 -0.0277703 -1.52353e-20)
(0.654433 -0.0154599 -3.54217e-21)
(0.771113 -0.00089666 -1.19503e-20)
(0.881915 0.00631794 1.3836e-20)
(0.359363 -0.0405464 1.44014e-20)
(0.469652 -0.0331347 -4.89233e-20)
(0.585444 -0.021447 3.24383e-20)
(0.703542 -0.00666248 -1.51433e-20)
(0.820632 0.0100627 2.39566e-20)
(0.929603 0.0197155 6.83356e-21)
(0.631717 -0.0128693 -8.2174e-21)
(0.751852 0.00452362 7.27434e-21)
(0.868483 0.0234653 -1.8334e-20)
(0.974853 0.0356031 -1.96815e-20)
(0.798989 0.0180426 -2.32185e-20)
(0.914317 0.0391211 4.39894e-22)
(1.01733 0.0535825 1.37816e-20)
(0.957781 0.0568046 1.84523e-20)
(1.05674 0.073274 -8.21599e-21)
(-0.000760242 -0.00060125 -3.61909e-22)
(-0.0038423 -0.0013099 1.15872e-21)
(-0.00929053 -0.00165786 1.42781e-21)
(-0.0390193 0.000325977 1.59001e-22)
(-0.0399078 -6.97476e-05 -3.78642e-22)
(-0.0387011 -0.000515041 2.92267e-23)
(-0.0354694 -0.000996463 1.65119e-22)
(-0.0298123 -0.00146644 -2.07833e-24)
(-0.021667 -0.00189129 2.69394e-23)
(-0.0110828 -0.00225423 2.24888e-23)
(0.00180964 -0.00254736 -1.64557e-22)
(0.0168192 -0.00277083 6.24212e-23)
(0.0337299 -0.00292937 -1.47222e-22)
(0.0523165 -0.00303018 1.28104e-22)
(0.0723582 -0.00308127 -1.35234e-22)
(0.0936441 -0.00309052 4.53445e-23)
(0.115977 -0.00306517 2.69306e-23)
(0.139173 -0.00301168 -5.31968e-23)
(0.163066 -0.00293558 -3.75985e-23)
(0.18749 -0.00284178 -2.97826e-23)
(0.212319 -0.00273413 1.04951e-23)
(0.23738 -0.00261665 1.15774e-23)
(0.262628 -0.00249118 5.86783e-24)
(0.287796 -0.0023627 -3.35898e-23)
(0.31308 -0.00222838 4.55171e-24)
(0.337813 -0.00210022 -1.36724e-23)
(0.362987 -0.00195983 5.48865e-24)
(0.386538 -0.0018473 -1.08147e-23)
(0.412048 -0.00169039 2.37077e-24)
(0.432859 -0.00162573 6.26321e-24)
(0.460774 -0.00141112 -3.81906e-25)
(0.474805 -0.00145852 4.99007e-24)
(0.511158 -0.00113268 9.27477e-24)
(-0.036347 0.000951213 3.02867e-22)
(-0.0371538 -0.000241673 7.77701e-22)
(-0.0357489 -0.00157159 -1.15589e-21)
(-0.032347 -0.00301005 3.05067e-22)
(-0.0265429 -0.00441345 1.57509e-22)
(-0.0182834 -0.00568117 -5.8632e-22)
(-0.00762445 -0.00676353 9.31524e-22)
(0.00530287 -0.0076373 -7.84622e-22)
(0.02031 -0.00830321 -2.22785e-23)
(0.0371855 -0.00877549 4.28714e-22)
(0.0557096 -0.0090756 -6.28477e-23)
(0.0756668 -0.00922743 -1.25832e-22)
(0.0968514 -0.00925446 -9.43662e-23)
(0.119071 -0.00917825 1.51206e-22)
(0.142144 -0.00901801 2.71617e-23)
(0.165908 -0.00879023 1.48062e-22)
(0.190199 -0.00850953 -8.49604e-23)
(0.214893 -0.00818739 4.43239e-23)
(0.23982 -0.00783587 1.63402e-23)
(0.264935 -0.00746039 -4.91814e-23)
(0.289971 -0.00707593 -6.1289e-23)
(0.315125 -0.00667391 5.04314e-24)
(0.339733 -0.00629036 -2.75093e-24)
(0.364784 -0.00587007 2.54729e-23)
(0.388219 -0.00553334 -2.56719e-24)
(0.413611 -0.00506347 -6.96532e-25)
(0.43432 -0.0048702 -3.70392e-24)
(0.462119 -0.00422739 -1.58123e-24)
(0.476073 -0.00436976 2.05587e-24)
(0.512291 -0.00339448 -1.09129e-23)
(-0.0309942 0.00150003 1.8845e-21)
(-0.0316403 -0.00050916 -1.70479e-21)
(-0.0298411 -0.00270679 5.09011e-22)
(-0.0261025 -0.00508484 -1.88752e-21)
(-0.0200081 -0.00740207 8.0854e-22)
(-0.0115245 -0.00949217 1.85607e-21)
(-0.000720344 -0.0112747 9.41141e-23)
(0.012273 -0.0127124 -1.27357e-21)
(0.027272 -0.0138073 5.35033e-23)
(0.0440745 -0.0145834 3.54329e-22)
(0.0624718 -0.015076 -2.92358e-22)
(0.0822592 -0.0153244 1.29822e-22)
(0.103241 -0.0153671 3.4118e-22)
(0.125232 -0.0152396 2.06988e-22)
(0.14806 -0.0149734 -8.15443e-23)
(0.171566 -0.0145955 -4.22778e-22)
(0.195594 -0.0141301 2.29642e-22)
(0.22002 -0.013596 -2.25793e-22)
(0.244679 -0.0130131 1.50153e-22)
(0.269528 -0.0123905 -7.43631e-23)
(0.294302 -0.0117529 1.79715e-22)
(0.319199 -0.011086 1.21928e-23)
(0.343558 -0.0104499 -8.10236e-24)
(0.368364 -0.00975236 -3.47335e-23)
(0.391568 -0.00919397 -1.93369e-24)
(0.416727 -0.00841366 -2.98995e-23)
(0.437232 -0.00809381 4.05536e-24)
(0.464799 -0.00702577 2.73467e-24)
(0.4786 -0.00726347 -8.50909e-24)
(0.51455 -0.00564539 -7.05894e-24)
(-0.0229429 0.00193224 -2.59398e-21)
(-0.0233566 -0.000932616 1.34563e-21)
(-0.0209704 -0.00397086 -1.49928e-21)
(-0.0167357 -0.00725914 1.60172e-21)
(-0.010216 -0.0104575 -1.9251e-21)
(-0.00140679 -0.0133361 -1.63485e-22)
(0.00960469 -0.0157868 2.18793e-21)
(0.0226873 -0.017761 -1.18672e-22)
(0.037666 -0.0192631 -7.40179e-22)
(0.0543529 -0.0203267 7.62109e-24)
(0.0725556 -0.0210008 -2.39319e-23)
(0.0920855 -0.0213391 4.42806e-22)
(0.112761 -0.0213944 -7.23946e-23)
(0.134411 -0.021215 -7.65788e-22)
(0.156872 -0.0208441 5.14986e-22)
(0.179994 -0.0203188 -1.06164e-22)
(0.203627 -0.0196723 6.75774e-23)
(0.227655 -0.0189305 1.59108e-23)
(0.251915 -0.0181209 -6.96486e-23)
(0.276368 -0.0172558 1.43384e-23)
(0.300753 -0.0163699 6.17905e-23)
(0.325268 -0.0154429 2.21013e-23)
(0.349257 -0.0145587 -1.49641e-23)
(0.373699 -0.0135884 -4.00065e-24)
(0.39656 -0.0128125 4.70297e-23)
(0.421372 -0.0117259 1.27024e-23)
(0.441574 -0.0112829 -4.56767e-24)
(0.468797 -0.00979452 3.60464e-24)
(0.482373 -0.0101281 -5.99494e-24)
(0.517922 -0.00787818 3.01964e-23)
(-0.0121655 0.00218409 5.42493e-21)
(-0.0122882 -0.00156165 -1.73232e-21)
(-0.00912453 -0.00540766 2.03754e-21)
(-0.00424496 -0.00956717 -1.43237e-22)
(0.00282267 -0.0136012 -1.8467e-21)
(0.0120458 -0.0172211 9.74672e-22)
(0.0233136 -0.020296 1.62145e-22)
(0.0364971 -0.0227692 -1.21437e-21)
(0.0514336 -0.0246487 -6.63706e-23)
(0.0679549 -0.025978 6.24011e-22)
(0.0858901 -0.0268189 -3.90733e-22)
(0.105072 -0.0272384 -6.75639e-23)
(0.125337 -0.0273022 4.04748e-22)
(0.146532 -0.0270704 -1.67127e-22)
(0.168505 -0.0265969 4.40501e-23)
(0.191118 -0.0259282 -3.20847e-22)
(0.214231 -0.0251057 1.42029e-22)
(0.237732 -0.0241621 4.89322e-23)
(0.261466 -0.0231322 6.61503e-24)
(0.285398 -0.0220313 -3.34959e-24)
(0.30927 -0.0209038 -2.92895e-22)
(0.333281 -0.019723 -2.4294e-23)
(0.356782 -0.0185973 -1.71289e-23)
(0.380746 -0.0173602 6.23162e-23)
(0.403155 -0.0163726 -5.41478e-23)
(0.427511 -0.0149856 -4.29176e-24)
(0.447316 -0.0144239 3.13593e-23)
(0.474087 -0.0125221 1.23202e-23)
(0.487366 -0.0129524 2.5644e-23)
(0.522388 -0.0100857 -1.53184e-23)
(0.00136487 0.00206967 1.27325e-21)
(0.00160303 -0.00239082 1.76605e-22)
(0.00571227 -0.00705022 -3.25525e-22)
(0.0113732 -0.0120374 -1.09885e-21)
(0.0190947 -0.0168494 4.59239e-21)
(0.0288019 -0.0211507 -1.40721e-21)
(0.0403576 -0.0247944 -9.496e-22)
(0.0536377 -0.0277196 -6.7403e-22)
(0.0684974 -0.0299397 1.09937e-21)
(0.0847932 -0.0315081 2.59162e-22)
(0.102382 -0.0324982 -5.14573e-22)
(0.121121 -0.0329886 -5.71939e-22)
(0.140871 -0.0330564 3.35297e-22)
(0.161496 -0.0327722 -1.36596e-22)
(0.182863 -0.0321993 2.0839e-22)
(0.204846 -0.0313924 1.2674e-22)
(0.227313 -0.0304007 -1.1507e-22)
(0.250165 -0.029263 1.98276e-22)
(0.27325 -0.0280211 -3.58772e-22)
(0.296539 -0.0266927 -3.70186e-23)
(0.31978 -0.025332 -3.94328e-23)
(0.343173 -0.0239058 -2.7741e-23)
(0.366075 -0.0225466 1.12484e-22)
(0.38945 -0.0210505 -6.94393e-23)
(0.411306 -0.0198587 -8.20045e-23)
(0.435101 -0.0181785 -5.67016e-23)
(0.454418 -0.017504 -4.09289e-23)
(0.480634 -0.0151975 2.72396e-24)
(0.49355 -0.0157254 -1.90074e-23)
(0.527923 -0.0122609 -4.42805e-24)
(0.0176706 0.00168144 -3.17892e-22)
(0.0184286 -0.00349086 -1.40116e-21)
(0.0235436 -0.00894114 2.3168e-21)
(0.030124 -0.0146926 -3.432e-21)
(0.0385854 -0.0202117 3.22739e-22)
(0.0488233 -0.025122 1.48374e-21)
(0.0606757 -0.0292684 2.53059e-24)
(0.0740287 -0.0325903 -2.13333e-21)
(0.088761 -0.0351086 2.478e-21)
(0.10476 -0.0368859 -1.35456e-21)
(0.121914 -0.0380054 1.09976e-21)
(0.140112 -0.0385559 8.32202e-22)
(0.159239 -0.0386234 -7.48459e-22)
(0.179182 -0.0382875 -6.26975e-22)
(0.199826 -0.0376194 1.11152e-22)
(0.22106 -0.0366811 -1.78302e-22)
(0.242764 -0.0355287 -6.63202e-23)
(0.264848 -0.0342063 -9.20608e-23)
(0.287168 -0.0327623 -1.30061e-22)
(0.3097 -0.0312168 2.72207e-22)
(0.332198 -0.0296331 1.80524e-22)
(0.354862 -0.0279716 -1.28525e-23)
(0.37706 -0.0263886 -9.11049e-23)
(0.399743 -0.0246428 1.92971e-22)
(0.420949 -0.0232555 1.2199e-23)
(0.444087 -0.021291 4.94216e-23)
(0.462831 -0.0205107 -5.81497e-23)
(0.488394 -0.01781 -4.76972e-24)
(0.500887 -0.0184366 5.73964e-24)
(0.534496 -0.0143969 1.4406e-23)
(0.0368359 0.00114986 4.35565e-21)
(0.0381836 -0.00495222 -1.0141e-22)
(0.0444261 -0.0111051 1.00705e-21)
(0.0520223 -0.0175462 -5.74921e-22)
(0.0612797 -0.0236892 3.90991e-22)
(0.072065 -0.0291242 2.92332e-21)
(0.0841953 -0.0336978 -1.94475e-21)
(0.0975736 -0.0373547 -1.79312e-21)
(0.112109 -0.0401245 -1.5755e-22)
(0.127727 -0.042078 -2.8215e-22)
(0.144351 -0.0433065 1.69378e-21)
(0.161903 -0.0439059 -1.17799e-21)
(0.180298 -0.0439697 5.77133e-22)
(0.199448 -0.0435839 -1.07134e-21)
(0.219255 -0.0428264 -3.18189e-22)
(0.239626 -0.0417652 6.1402e-22)
(0.260454 -0.0404623 2.47875e-22)
(0.281658 -0.0389666 5.04005e-23)
(0.303103 -0.0373324 1.88867e-22)
(0.32477 -0.0355816 -1.26093e-22)
(0.346421 -0.033787 -3.07193e-22)
(0.368255 -0.0319016 1.89458e-22)
(0.389651 -0.0301062 8.81336e-23)
(0.411548 -0.0281216 -1.42321e-22)
(0.432014 -0.0265488 1.56912e-22)
(0.454403 -0.0243103 4.02918e-23)
(0.472499 -0.0234322 2.53637e-23)
(0.497318 -0.0203494 5.32636e-24)
(0.509333 -0.0210759 -1.22364e-23)
(0.542071 -0.0164868 -4.51804e-23)
(0.0589368 0.000340041 -2.8665e-21)
(0.0609305 -0.00674412 2.97235e-21)
(0.0684098 -0.0135483 4.21948e-22)
(0.0770875 -0.0206007 -1.69592e-21)
(0.0871616 -0.0272722 -2.36225e-21)
(0.0984745 -0.0331369 1.09705e-21)
(0.11083 -0.0380547 1.05546e-22)
(0.124159 -0.0419803 -2.11495e-21)
(0.138408 -0.0449524 -3.77974e-22)
(0.153545 -0.0470488 1.45727e-21)
(0.169534 -0.048366 1.34959e-22)
(0.186332 -0.0490045 3.93217e-22)
(0.203886 -0.0490625 -5.7211e-22)
(0.222131 -0.0486304 1.11415e-21)
(0.240992 -0.0477912 -4.0139e-22)
(0.260391 -0.0466174 -6.73263e-22)
(0.280236 -0.045176 5.81516e-22)
(0.300455 -0.04352 4.63262e-22)
(0.320924 -0.0417091 -3.99021e-22)
(0.341627 -0.0397668 -7.69508e-23)
(0.362335 -0.0377747 4.2615e-23)
(0.383246 -0.0356786 -3.45735e-23)
(0.403751 -0.0336835 -5.84298e-23)
(0.424774 -0.0314721 1.59435e-22)
(0.44442 -0.0297254 -1.08057e-22)
(0.465978 -0.0272243 -1.0221e-22)
(0.483355 -0.0262573 -8.41589e-24)
(0.507348 -0.0228062 8.21273e-25)
(0.518838 -0.0236338 1.08148e-23)
(0.550605 -0.0185242 -4.46835e-23)
(0.0840568 -0.000772182 2.16867e-21)
(0.0867634 -0.00886273 2.29142e-21)
(0.0955545 -0.0162717 -3.38413e-21)
(0.105345 -0.0238465 -1.9249e-21)
(0.116213 -0.0309384 4.58932e-21)
(0.12799 -0.037129 7.16225e-22)
(0.140481 -0.0423026 -2.47615e-21)
(0.153655 -0.0464281 1.6337e-21)
(0.167505 -0.0495533 -1.43307e-21)
(0.182047 -0.0517605 1.01314e-21)
(0.197286 -0.0531478 3.34424e-22)
(0.213218 -0.0538176 7.97125e-22)
(0.229819 -0.0538696 -4.29355e-22)
(0.247051 -0.0533971 -6.23489e-22)
(0.264861 -0.0524857 7.02781e-22)
(0.283186 -0.0512116 1.68171e-22)
(0.301948 -0.0496458 -4.83983e-22)
(0.321087 -0.0478443 4.23146e-22)
(0.340485 -0.0458721 -1.48954e-22)
(0.360135 -0.0437534 3.04118e-22)
(0.379813 -0.0415789 2.15761e-22)
(0.399717 -0.0392866 4.6634e-23)
(0.419252 -0.0371059 -2.72225e-22)
(0.439323 -0.0346811 8.78637e-23)
(0.458077 -0.0327731 4.70548e-23)
(0.478731 -0.0300221 6.92238e-23)
(0.495329 -0.0289759 9.05029e-23)
(0.518422 -0.0251718 -2.177e-23)
(0.529345 -0.0261017 -4.2054e-23)
(0.560053 -0.0205026 6.45612e-23)
(0.112293 -0.00217218 3.32952e-21)
(0.115796 -0.0113025 2.68059e-21)
(0.125937 -0.0192633 -7.83399e-21)
(0.136825 -0.0272587 -3.08116e-21)
(0.148413 -0.0346513 9.67659e-21)
(0.160537 -0.041057 -8.30562e-21)
(0.17303 -0.0463956 3.935e-21)
(0.18591 -0.050653 1.72771e-21)
(0.199227 -0.0538846 -7.4177e-22)
(0.213044 -0.0561731 2.07963e-22)
(0.227411 -0.0576151 -1.2818e-21)
(0.24236 -0.0583113 1.12065e-21)
(0.257899 -0.0583604 1.02142e-21)
(0.274014 -0.0578556 -1.19423e-21)
(0.290672 -0.0568842 4.51194e-22)
(0.307828 -0.0555243 -3.63272e-23)
(0.325416 -0.0538499 8.37772e-22)
(0.343386 -0.0519195 6.32169e-22)
(0.36163 -0.0498029 -1.7707e-22)
(0.380146 -0.0475245 7.05995e-23)
(0.398718 -0.045184 3.44756e-23)
(0.417541 -0.0427113 -4.18151e-22)
(0.436037 -0.0403601 2.084e-22)
(0.455089 -0.0377365 -2.68836e-22)
(0.472889 -0.0356806 9.80571e-24)
(0.492575 -0.0326936 -2.88508e-23)
(0.508341 -0.0315785 -2.8362e-23)
(0.53047 -0.027438 -7.69777e-25)
(0.540793 -0.0284713 6.72996e-23)
(0.570364 -0.0224161 1.75746e-23)
(0.143757 -0.00384341 -1.08636e-21)
(0.148165 -0.0140461 8.55053e-21)
(0.159652 -0.022495 -2.96954e-21)
(0.171563 -0.0307951 -1.00159e-20)
(0.183728 -0.0383577 1.27128e-20)
(0.196025 -0.0448638 -5.75498e-21)
(0.208339 -0.0502781 2.32664e-22)
(0.220756 -0.0546037 -4.74914e-21)
(0.233381 -0.0578996 2.46235e-21)
(0.24633 -0.0602453 1.16929e-21)
(0.259695 -0.0617314 -2.26771e-21)
(0.273544 -0.0624531 7.99978e-22)
(0.287912 -0.0625054 1.16222e-23)
(0.30281 -0.0619797 1.16062e-22)
(0.318223 -0.0609628 -9.54371e-22)
(0.334122 -0.0595337 7.93585e-22)
(0.350454 -0.0577686 2.86927e-22)
(0.367178 -0.0557277 -7.08789e-22)
(0.384195 -0.053485 -5.15106e-22)
(0.401507 -0.0510651 1.28238e-22)
(0.418906 -0.0485763 3.37511e-22)
(0.436586 -0.0459401 -2.72626e-22)
(0.453983 -0.0434347 2.4331e-22)
(0.471958 -0.0406276 -2.21605e-24)
(0.488752 -0.0384382 -4.60501e-23)
(0.507417 -0.0352299 -5.60998e-23)
(0.52231 -0.0340567 6.51736e-23)
(0.54342 -0.0295978 6.92816e-24)
(0.553118 -0.0307355 -3.89941e-24)
(0.581483 -0.0242586 -2.06332e-23)
(0.178574 -0.00577203 1.43078e-20)
(0.18404 -0.0170653 -1.40307e-23)
(0.196811 -0.02592 -1.36064e-20)
(0.209591 -0.0343927 1.17416e-20)
(0.222112 -0.041986 4.64016e-22)
(0.234341 -0.0484787 -4.13359e-21)
(0.246248 -0.0538853 3.10358e-21)
(0.257996 -0.0582231 2.04389e-21)
(0.269752 -0.0615495 -1.80111e-21)
(0.281679 -0.0639351 -2.92196e-21)
(0.293909 -0.0654603 8.52616e-22)
(0.30654 -0.0662116 5.88884e-23)
(0.319632 -0.0662775 -4.25342e-22)
(0.333219 -0.0657454 7.61521e-22)
(0.347301 -0.0647004 -4.32293e-22)
(0.361865 -0.063221 4.27654e-22)
(0.376868 -0.0613849 -2.3398e-22)
(0.392279 -0.0592535 6.10692e-22)
(0.408006 -0.0569046 1.72194e-22)
(0.424055 -0.0543623 -2.25632e-22)
(0.440227 -0.0517439 -4.66935e-22)
(0.456712 -0.048962 2.76871e-22)
(0.472961 -0.0463196 -1.42046e-22)
(0.489812 -0.0433453 -8.78263e-24)
(0.505559 -0.0410375 9.53682e-23)
(0.52316 -0.0376233 -2.89616e-23)
(0.537146 -0.0364033 -6.71326e-23)
(0.557193 -0.0316448 -1.75893e-24)
(0.566251 -0.0328879 -2.79694e-23)
(0.593352 -0.026025 7.6058e-23)
(0.216891 -0.00794908 3.09201e-21)
(0.223627 -0.0203238 -3.7733e-21)
(0.237542 -0.0294699 5.64239e-21)
(0.250926 -0.0379645 2.01059e-21)
(0.26349 -0.0454446 2.01234e-21)
(0.27534 -0.0518165 -3.20837e-21)
(0.286565 -0.0571439 -4.82139e-21)
(0.297411 -0.0614501 3.89265e-21)
(0.308104 -0.0647838 2.82288e-21)
(0.318848 -0.067201 -4.94556e-21)
(0.329807 -0.0687677 5.6762e-22)
(0.341104 -0.0695583 1.25127e-21)
(0.352822 -0.0696524 -7.97745e-22)
(0.36501 -0.0691319 2.19835e-21)
(0.377686 -0.0680787 -8.82958e-22)
(0.390846 -0.0665702 -6.23034e-23)
(0.404459 -0.0646847 9.72522e-23)
(0.4185 -0.0624841 4.82523e-22)
(0.432885 -0.0600499 -2.85223e-22)
(0.447625 -0.0574057 5.61514e-22)
(0.462525 -0.0546772 -5.31176e-22)
(0.477773 -0.0517682 -1.10926e-22)
(0.492838 -0.0490066 -1.59249e-22)
(0.50853 -0.0458819 7.58012e-23)
(0.523199 -0.0434712 -9.96279e-23)
(0.539703 -0.0398673 1.46351e-22)
(0.55276 -0.038612 5.95021e-23)
(0.571708 -0.0335738 -2.11494e-23)
(0.580119 -0.0349229 1.62173e-23)
(0.605911 -0.02771 -6.78853e-23)
(0.258883 -0.0103834 -5.4721e-21)
(0.267183 -0.0237766 7.28668e-21)
(0.281984 -0.0330462 2.36597e-22)
(0.295562 -0.0413926 -3.37404e-21)
(0.307748 -0.0486193 4.73464e-21)
(0.318837 -0.0547788 -1.12964e-21)
(0.329064 -0.0599733 2.9281e-22)
(0.338754 -0.0642206 4.36292e-21)
(0.348179 -0.0675519 -6.98907e-21)
(0.357575 -0.0700029 5.72412e-21)
(0.367129 -0.0716212 -2.03499e-21)
(0.376983 -0.0724667 -1.88077e-21)
(0.387235 -0.0726085 3.09895e-22)
(0.397949 -0.0721211 -2.22177e-22)
(0.409151 -0.0710826 8.50846e-22)
(0.42085 -0.0695681 4.26771e-22)
(0.433022 -0.0676563 -1.39466e-21)
(0.445649 -0.0654092 -9.3489e-23)
(0.458653 -0.0629119 9.23473e-22)
(0.472046 -0.0601867 -4.30622e-22)
(0.485643 -0.0573686 4.13012e-22)
(0.499625 -0.0543516 4.01971e-23)
(0.51348 -0.051489 5.12663e-23)
(0.527988 -0.0482314 -1.07298e-22)
(0.541557 -0.0457337 5.65961e-23)
(0.556943 -0.0419568 -5.32029e-23)
(0.569058 -0.0406776 9.96293e-24)
(0.586884 -0.0353805 -1.71086e-23)
(0.594647 -0.0368358 -8.31963e-24)
(0.619096 -0.029309 5.00692e-23)
(0.304798 -0.0131043 -8.41492e-22)
(0.315026 -0.0273522 -1.03657e-20)
(0.330268 -0.0365043 2.9624e-22)
(0.34344 -0.0445208 5.69689e-21)
(0.354711 -0.0513719 3.22092e-22)
(0.364597 -0.0572538 -5.16976e-22)
(0.37348 -0.0622865 -2.01387e-21)
(0.381746 -0.0664677 5.42136e-21)
(0.389697 -0.0698021 -3.82137e-21)
(0.397585 -0.0723005 -5.48534e-22)
(0.405608 -0.0739892 3.3482e-21)
(0.413918 -0.0749117 -2.52395e-21)
(0.422623 -0.0751252 -3.31736e-22)
(0.431794 -0.0746961 1.49988e-21)
(0.441469 -0.0736977 1.47007e-21)
(0.451661 -0.0722026 -1.13512e-21)
(0.462353 -0.0702893 -1.69761e-22)
(0.473533 -0.0680198 3.6192e-22)
(0.485128 -0.0654824 -1.91042e-22)
(0.49715 -0.0626983 -1.8938e-22)
(0.509423 -0.0598114 9.71914e-23)
(0.522121 -0.0567063 -2.80766e-22)
(0.534749 -0.0537615 1.63686e-22)
(0.548059 -0.0503888 3.57427e-22)
(0.56052 -0.0478203 -1.68599e-22)
(0.574776 -0.0438875 4.02092e-23)
(0.585945 -0.0425959 -3.28664e-24)
(0.602636 -0.0370614 1.03349e-23)
(0.609761 -0.0386229 -2.14811e-23)
(0.632843 -0.0308177 -4.71801e-23)
(0.355029 -0.0161459 9.30193e-21)
(0.367539 -0.0309495 -7.89237e-21)
(0.38248 -0.0396562 9.60544e-21)
(0.394417 -0.0471605 -9.50435e-21)
(0.404128 -0.0535493 3.18729e-21)
(0.412326 -0.0591259 3.79874e-21)
(0.419505 -0.0639983 1.40844e-21)
(0.426081 -0.0681287 -2.02633e-21)
(0.432358 -0.0714879 -4.41265e-21)
(0.438586 -0.0740587 3.65753e-21)
(0.444963 -0.0758449 -2.88796e-21)
(0.45164 -0.0768724 4.57136e-21)
(0.458729 -0.0771861 -3.69003e-21)
(0.466306 -0.0768437 7.41055e-22)
(0.47441 -0.0759135 6.30789e-22)
(0.483063 -0.074465 4.73469e-22)
(0.492249 -0.0725765 -8.97269e-22)
(0.501961 -0.0703097 -2.53887e-22)
(0.51213 -0.0677561 5.37711e-22)
(0.522769 -0.0649358 2.07672e-22)
(0.533708 -0.0620016 -5.53077e-22)
(0.545114 -0.0588285 2.42828e-22)
(0.556512 -0.0558206 -8.51722e-23)
(0.56862 -0.0523509 -1.07632e-22)
(0.579972 -0.049728 1.71011e-22)
(0.593096 -0.0456568 1.61226e-23)
(0.603326 -0.0443642 6.05294e-24)
(0.618879 -0.0386142 -3.89807e-24)
(0.625382 -0.0402814 2.83888e-23)
(0.647085 -0.0322323 1.65845e-23)
(0.410266 -0.0197079 1.19701e-21)
(0.425145 -0.0345461 -9.88556e-21)
(0.438603 -0.0423081 -3.89578e-22)
(0.448223 -0.0491194 1.92619e-21)
(0.455646 -0.0550124 -5.87123e-21)
(0.461663 -0.0603036 -9.19726e-22)
(0.466789 -0.0650516 3.94897e-21)
(0.471424 -0.0691705 -3.14857e-23)
(0.475846 -0.0725927 5.468e-21)
(0.480281 -0.0752724 -7.63097e-21)
(0.484912 -0.0771907 4.52702e-21)
(0.489883 -0.0783564 -2.89525e-21)
(0.495303 -0.0788018 1.87642e-21)
(0.501244 -0.0785762 -1.53767e-22)
(0.50775 -0.0777426 5.34254e-22)
(0.514843 -0.0763677 -3.15606e-22)
(0.52251 -0.0745295 1.51865e-22)
(0.530745 -0.0722893 -1.66332e-21)
(0.539483 -0.0697423 7.28243e-22)
(0.548737 -0.0669069 -1.45743e-22)
(0.558344 -0.0639458 -2.53053e-22)
(0.568461 -0.0607235 2.36606e-22)
(0.578634 -0.0576706 1.00943e-22)
(0.589548 -0.0541204 -1.37751e-22)
(0.5998 -0.0514589 1.48182e-22)
(0.611802 -0.0472654 -6.77471e-23)
(0.621107 -0.0459831 -8.19903e-24)
(0.635527 -0.0400381 -6.93177e-24)
(0.641434 -0.041811 9.45055e-24)
(0.661757 -0.0335497 -1.69564e-23)
(0.471715 -0.0244628 -6.93746e-21)
(0.488242 -0.0379982 -1.37538e-21)
(0.498429 -0.0441132 5.62754e-21)
(0.504419 -0.05014 -2.18051e-21)
(0.508806 -0.0556057 2.1245e-21)
(0.512179 -0.0606999 -4.4476e-21)
(0.51494 -0.0654037 6.97506e-21)
(0.517418 -0.0695801 -1.11555e-21)
(0.51983 -0.0731246 -2.46236e-21)
(0.522361 -0.0759643 5.01371e-21)
(0.525169 -0.0780595 -3.01486e-21)
(0.52838 -0.0794028 2.55755e-21)
(0.532092 -0.0800147 -2.51983e-21)
(0.536375 -0.0799367 -4.57895e-22)
(0.541269 -0.0792272 -4.02705e-22)
(0.546794 -0.0779504 1.89277e-21)
(0.552941 -0.0761846 -1.52939e-21)
(0.559703 -0.0739911 8.68977e-22)
(0.567017 -0.0714692 -5.36265e-22)
(0.574896 -0.0686357 5.72246e-22)