/*--------------------------------*- C++ -*----------------------------------*\
  =========                 |
  \\      /  F ield         | OpenFOAM: The Open Source CFD Toolbox
   \\    /   O peration     | Website:  https://openfoam.org
    \\  /    A nd           | Version:  7
     \\/     M anipulation  |
\*---------------------------------------------------------------------------*/
FoamFile
{
    version     2.0;
    format      ascii;
    class       volScalarField;
    location    "400";
    object      p;
}
// * * * * * * * * * * * * * * * * * * * * * * * * * * * * * * * * * * * * * //

dimensions      [0 2 -2 0 0 0 0];

internalField   nonuniform List<scalar> 
2125
(
-0.389536
-0.39274
-0.393812
-0.394518
-0.395094
-0.395588
-0.39598
-0.396195
-0.396094
-0.395883
-0.383336
-0.38613
-0.386859
-0.387084
-0.387016
-0.38672
-0.386207
-0.385471
-0.384435
-0.383363
-0.377662
-0.380007
-0.380397
-0.380161
-0.379483
-0.378439
-0.377072
-0.375444
-0.373559
-0.37157
-0.372468
-0.374349
-0.37441
-0.373736
-0.372481
-0.370728
-0.368554
-0.366088
-0.363455
-0.360464
-0.367699
-0.369128
-0.368875
-0.367788
-0.365985
-0.363555
-0.360615
-0.357349
-0.354086
-0.34997
-0.363302
-0.364313
-0.363767
-0.362291
-0.359966
-0.356876
-0.353203
-0.349158
-0.345386
-0.34007
-0.359227
-0.359879
-0.359063
-0.357221
-0.3544
-0.350647
-0.346271
-0.341435
-0.336922
-0.331079
-0.355438
-0.355804
-0.354746
-0.352557
-0.349277
-0.344822
-0.339759
-0.334182
-0.328999
-0.322446
-0.351916
-0.352079
-0.350807
-0.34828
-0.34448
-0.339488
-0.333682
-0.327347
-0.321577
-0.314156
-0.348658
-0.348707
-0.347246
-0.344394
-0.340115
-0.334547
-0.328037
-0.320941
-0.314646
-0.30624
-0.345683
-0.345701
-0.344076
-0.340914
-0.336178
-0.330037
-0.322859
-0.315017
-0.308281
-0.298721
-0.343031
-0.343088
-0.341314
-0.337867
-0.332695
-0.32601
-0.318215
-0.309666
-0.302638
-0.291663
-0.340762
-0.34091
-0.339001
-0.335283
-0.329708
-0.322531
-0.3142
-0.305018
-0.297933
-0.285196
-0.338954
-0.339216
-0.33718
-0.333213
-0.327274
-0.319682
-0.31092
-0.301225
-0.294377
-0.279534
-0.3377
-0.338067
-0.335903
-0.331714
-0.325459
-0.317551
-0.308483
-0.298449
-0.292077
-0.275075
-0.337093
-0.337523
-0.335226
-0.330845
-0.324334
-0.316219
-0.30697
-0.296831
-0.290915
-0.272222
-0.337227
-0.337644
-0.335198
-0.330626
-0.323986
-0.315747
-0.306422
-0.296458
-0.29053
-0.271165
-0.338177
-0.338478
-0.335863
-0.331127
-0.324411
-0.316149
-0.306827
-0.297323
-0.290501
-0.271566
-0.339997
-0.340056
-0.337241
-0.332356
-0.325602
-0.317394
-0.308126
-0.299285
-0.290711
-0.273394
-0.342712
-0.342391
-0.339327
-0.334289
-0.327509
-0.319391
-0.310205
-0.301975
-0.29155
-0.27936
-0.346319
-0.345472
-0.342096
-0.336876
-0.330055
-0.322015
-0.312899
-0.30483
-0.29326
-0.292299
-0.350795
-0.349271
-0.345522
-0.340061
-0.333154
-0.325134
-0.316027
-0.307619
-0.295871
-0.292506
-0.356112
-0.353765
-0.349563
-0.343791
-0.336732
-0.328631
-0.319396
-0.310329
-0.298092
-0.291198
-0.35894
-0.354198
-0.348038
-0.340742
-0.332429
-0.322866
-0.312907
-0.299732
-0.289807
-0.359425
-0.352802
-0.345166
-0.33648
-0.326354
-0.315228
-0.300791
-0.288026
-0.365267
-0.358105
-0.350005
-0.340755
-0.329787
-0.317199
-0.301202
-0.286
-0.363985
-0.35527
-0.345227
-0.333087
-0.318735
-0.300991
-0.283632
-0.360964
-0.349848
-0.336162
-0.319778
-0.300182
-0.280921
-0.338914
-0.32029
-0.298814
-0.277843
-0.320246
-0.296913
-0.274388
-0.294498
-0.270538
-0.397959
-0.399854
-0.415276
-0.443556
-0.486971
-0.511829
-0.479703
-0.387961
-0.283172
-0.209852
-0.167534
-0.155353
-0.176769
-0.187981
-0.166361
-0.130515
-0.0986593
-0.0835614
-0.0781203
-0.0768774
-0.0790814
-0.0857217
-0.0793758
-0.0729098
-0.0542719
-0.0336215
-0.0533942
-0.0608298
-0.0345001
0.00973475
-0.386086
-0.391512
-0.413995
-0.451048
-0.502999
-0.532795
-0.500335
-0.403738
-0.292192
-0.212244
-0.164872
-0.1482
-0.166256
-0.174641
-0.156728
-0.125075
-0.0975248
-0.0843674
-0.0809957
-0.0814528
-0.0831405
-0.0886213
-0.0804979
-0.073167
-0.0543058
-0.0336214
-0.0531956
-0.0609763
-0.0345601
0.0103568
-0.375163
-0.383629
-0.412227
-0.45658
-0.515714
-0.550133
-0.51789
-0.417291
-0.299909
-0.214074
-0.161981
-0.141094
-0.155643
-0.161105
-0.146634
-0.119287
-0.0962294
-0.0851032
-0.0839732
-0.0862105
-0.0872642
-0.0914391
-0.0815533
-0.0733606
-0.0543559
-0.0336663
-0.053009
-0.0611126
-0.0346242
0.0109429
-0.365062
-0.376006
-0.409674
-0.459764
-0.524935
-0.563685
-0.532276
-0.428634
-0.306389
-0.215445
-0.158983
-0.134183
-0.145053
-0.147599
-0.136161
-0.113179
-0.0947622
-0.085752
-0.087022
-0.0911089
-0.0914274
-0.0941593
-0.0825385
-0.0734896
-0.0544191
-0.0337522
-0.0528367
-0.061239
-0.034694
0.0114885
-0.355625
-0.368731
-0.405884
-0.460502
-0.530533
-0.573443
-0.543472
-0.437812
-0.311706
-0.216448
-0.155994
-0.127585
-0.134619
-0.134353
-0.125404
-0.10679
-0.0931139
-0.0862961
-0.0901071
-0.0961007
-0.0956038
-0.0967675
-0.0834503
-0.073553
-0.0544918
-0.0338739
-0.0526803
-0.0613552
-0.0347707
0.0119896
-0.346679
-0.361407
-0.401044
-0.458839
-0.532569
-0.579427
-0.551515
-0.444896
-0.315945
-0.217166
-0.153118
-0.121397
-0.12448
-0.121577
-0.114481
-0.100166
-0.0912777
-0.0867169
-0.0931909
-0.101134
-0.0997658
-0.0992505
-0.0842855
-0.0735499
-0.0545696
-0.0340258
-0.0525415
-0.0614606
-0.0348549
0.0124422
-0.338091
-0.353987
-0.395171
-0.454921
-0.531283
-0.581839
-0.5565
-0.449977
-0.319195
-0.217669
-0.150447
-0.115687
-0.114778
-0.109456
-0.103532
-0.0933658
-0.0892504
-0.0869948
-0.0962338
-0.106156
-0.103885
-0.101597
-0.0850409
-0.0734798
-0.0546476
-0.0342013
-0.0524208
-0.0615542
-0.0349469
0.0128426
-0.329878
-0.34649
-0.38836
-0.44901
-0.527035
-0.580931
-0.558574
-0.45316
-0.321548
-0.21802
-0.148057
-0.110498
-0.105649
-0.0981442
-0.0927278
-0.086457
-0.0870324
-0.0871096
-0.099196
-0.111108
-0.107931
-0.103796
-0.0857137
-0.073342
-0.0547205
-0.0343937
-0.0523186
-0.0616346
-0.0350462
0.0131875
-0.322045
-0.33896
-0.380802
-0.441452
-0.520262
-0.577034
-0.557928
-0.454557
-0.323091
-0.218268
-0.146006
-0.105857
-0.0972134
-0.0877564
-0.0822485
-0.0795168
-0.084629
-0.0870405
-0.102038
-0.115938
-0.111877
-0.105839
-0.0863013
-0.0731362
-0.0547827
-0.0345957
-0.0522348
-0.0616999
-0.035152
0.0134735
-0.31466
-0.331484
-0.372742
-0.432629
-0.511433
-0.570522
-0.554804
-0.454282
-0.323904
-0.218454
-0.144335
-0.101775
-0.0895637
-0.0783749
-0.0722995
-0.0726282
-0.0820495
-0.0867672
-0.104723
-0.120589
-0.115695
-0.107718
-0.0868016
-0.072862
-0.0548286
-0.0348001
-0.0521683
-0.0617478
-0.0352627
0.0136979
-0.307858
-0.324187
-0.364438
-0.422926
-0.501012
-0.561799
-0.549463
-0.452457
-0.32406
-0.218606
-0.143066
-0.0982524
-0.08276
-0.070046
-0.0630804
-0.0658788
-0.0793086
-0.0862695
-0.107217
-0.125014
-0.119357
-0.109428
-0.0872126
-0.0725196
-0.0548528
-0.0349998
-0.0521172
-0.0617754
-0.0353764
0.0138579
-0.301807
-0.317223
-0.356139
-0.412702
-0.489426
-0.551265
-0.542163
-0.449215
-0.323634
-0.218753
-0.142209
-0.0952868
-0.0768289
-0.0627762
-0.0545601
-0.0593629
-0.0764267
-0.0855287
-0.109489
-0.129167
-0.122837
-0.110964
-0.0875334
-0.0721091
-0.0548502
-0.035188
-0.0520792
-0.0617793
-0.0354904
0.0139508
-0.296669
-0.310757
-0.348064
-0.402262
-0.477041
-0.539276
-0.533134
-0.444718
-0.322716
-0.218932
-0.141776
-0.0928769
-0.0717667
-0.0565409
-0.0470112
-0.0531743
-0.0734283
-0.0845269
-0.111512
-0.133011
-0.126101
-0.112321
-0.0877633
-0.0716313
-0.0548153
-0.0353583
-0.0520518
-0.0617556
-0.0356015
0.0139744
-0.292562
-0.304946
-0.340386
-0.391847
-0.464146
-0.526125
-0.522591
-0.439129
-0.321392
-0.219171
-0.141749
-0.0910088
-0.0675341
-0.0512804
-0.0405086
-0.047388
-0.0703405
-0.0832482
-0.113262
-0.136512
-0.129121
-0.113495
-0.0879016
-0.0710877
-0.05474
-0.0355034
-0.052032
-0.0616999
-0.0357058
0.0139264
-0.289531
-0.299909
-0.333218
-0.38163
-0.450937
-0.512036
-0.510725
-0.43257
-0.319665
-0.219398
-0.142019
-0.0896144
-0.0640412
-0.0468885
-0.0350387
-0.0420572
-0.067192
-0.0816782
-0.11472
-0.139646
-0.131876
-0.114483
-0.0879465
-0.0704795
-0.054616
-0.0356154
-0.0520152
-0.0616076
-0.035799
0.0138046
-0.287533
-0.295695
-0.326614
-0.371714
-0.437488
-0.497215
-0.497747
-0.425116
-0.317438
-0.219464
-0.14243
-0.0886072
-0.0611887
-0.0432404
-0.0305319
-0.0372084
-0.0640097
-0.0798045
-0.115867
-0.142391
-0.134354
-0.115287
-0.0878976
-0.0698076
-0.0544466
-0.0356903
-0.0519954
-0.0614727
-0.0358762
0.0136068
-0.28638
-0.292269
-0.32058
-0.36214
-0.423932
-0.481799
-0.483963
-0.417038
-0.314962
-0.219634
-0.143229
-0.0881544
-0.0590436
-0.0403123
-0.0269473
-0.0328368
-0.0608123
-0.0776148
-0.11669
-0.144738
-0.136562
-0.115907
-0.0877672
-0.0690745
-0.0542611
-0.0357369
-0.051974
-0.0612895
-0.0359317
0.013331
-0.285765
-0.289474
-0.315043
-0.352876
-0.41119
-0.465534
-0.469558
-0.40907
-0.313337
-0.22101
-0.145298
-0.0888174
-0.0578876
-0.0382028
-0.024348
-0.0290146
-0.0576224
-0.0751016
-0.117157
-0.146657
-0.138466
-0.116325
-0.0875832
-0.0682904
-0.0540859
-0.0357656
-0.0519706
-0.06106
-0.0359595
0.0129769
-0.285842
-0.287146
-0.309668
-0.343513
-0.398352
-0.447835
-0.453908
-0.400905
-0.312276
-0.223214
-0.148134
-0.0902616
-0.0573632
-0.0365535
-0.0225218
-0.026045
-0.0545605
-0.0722298
-0.117282
-0.148074
-0.139716
-0.116516
-0.0873291
-0.0674727
-0.0538247
-0.0357159
-0.0519751
-0.0607913
-0.0359537
0.012545
-0.285144
-0.285442
-0.305017
-0.334515
-0.379822
-0.430986
-0.43656
-0.388336
-0.305364
-0.21997
-0.146499
-0.0890244
-0.0552011
-0.0337973
-0.0201101
-0.0229949
-0.0513729
-0.0691323
-0.116871
-0.149329
-0.140473
-0.116568
-0.0868208
-0.066604
-0.0531702
-0.0354045
-0.0518064
-0.0603548
-0.0359168
0.0120119
-0.275633
-0.283555
-0.30318
-0.330619
-0.373312
-0.417196
-0.418845
-0.36965
-0.289496
-0.208363
-0.13812
-0.0831581
-0.0500724
-0.028965
-0.0151055
-0.0117719
-0.0437284
-0.0623029
-0.116238
-0.154445
-0.145717
-0.116999
-0.0858551
-0.0654656
-0.0518567
-0.0347395
-0.0510824
-0.0591484
-0.0357197
0.0111439
-0.274693
-0.282262
-0.299335
-0.323185
-0.357999
-0.391999
-0.389152
-0.342228
-0.268905
-0.194625
-0.129446
-0.0780129
-0.0456339
-0.0249358
-0.0119506
-0.0163042
-0.0392452
-0.0570231
-0.114447
-0.157064
-0.144123
-0.115504
-0.0836661
-0.0630221
-0.0500995
-0.0349269
-0.050708
-0.0583272
-0.0356589
0.0101545
-0.272008
-0.278589
-0.292454
-0.312407
-0.339801
-0.364691
-0.358752
-0.315643
-0.249527
-0.181842
-0.121286
-0.0729531
-0.041422
-0.0211772
-0.00876486
-0.0123318
-0.0357773
-0.0531145
-0.11215
-0.157687
-0.144393
-0.113303
-0.0810114
-0.0602672
-0.0481842
-0.0350796
-0.0502915
-0.0575941
-0.0354806
0.00916216
-0.266636
-0.271971
-0.28237
-0.298576
-0.319544
-0.336862
-0.328841
-0.289741
-0.230526
-0.169234
-0.113213
-0.067931
-0.0373932
-0.017603
-0.00532044
-0.00772889
-0.0312963
-0.0484858
-0.108725
-0.157439
-0.143865
-0.110362
-0.0778774
-0.0571436
-0.0460202
-0.0350986
-0.0497051
-0.0566438
-0.0350672
0.00809498
-0.258004
-0.262694
-0.269995
-0.282642
-0.298179
-0.309458
-0.300077
-0.264986
-0.212286
-0.157028
-0.105327
-0.0629391
-0.0334861
-0.0141388
-0.00160071
-0.0026806
-0.0255038
-0.0424443
-0.10376
-0.156129
-0.142002
-0.10654
-0.0742115
-0.0536298
-0.0435776
-0.0349577
-0.0489194
-0.0554071
-0.034412
0.00693512
-0.246437
-0.251338
-0.256134
-0.26551
-0.276605
-0.283237
-0.273054
-0.241718
-0.194937
-0.145237
-0.0976374
-0.0579822
-0.0296544
-0.0107077
0.00242574
0.00293995
-0.0184879
-0.0350521
-0.0969732
-0.15317
-0.138551
-0.101771
-0.0699893
-0.049706
-0.0408234
-0.0346036
-0.047879
-0.0538537
-0.0334922
0.00569475
-0.232949
-0.238459
-0.241296
-0.247904
-0.25546
-0.258636
-0.248038
-0.220057
-0.178558
-0.133911
-0.0901818
-0.0530798
-0.025863
-0.00723353
0.0067721
0.00920922
-0.0102656
-0.0264305
-0.0880921
-0.148173
-0.133362
-0.096022
-0.065197
-0.0453592
-0.0377238
-0.033966
-0.0465085
-0.0519195
-0.0322358
0.00438922
-0.218303
-0.224507
-0.226131
-0.230357
-0.235128
-0.235785
-0.225049
-0.200009
-0.163175
-0.123076
-0.0829758
-0.0482557
-0.0220897
-0.00365841
0.0114305
0.0161916
-0.000781786
-0.016557
-0.0770458
-0.140907
-0.126325
-0.0892919
-0.0598376
-0.0405859
-0.0342425
-0.0329618
-0.0447205
-0.0495095
-0.0305504
0.00303251
-0.203054
-0.209871
-0.210825
-0.21319
-0.215786
-0.214634
-0.20398
-0.181507
-0.148777
-0.112746
-0.0760308
-0.0435401
-0.018329
4.28122e-05
0.0163694
0.0239437
0.00999554
-0.00541078
-0.0640967
-0.131211
-0.117389
-0.0816217
-0.0539346
-0.0353945
-0.0303412
-0.031498
-0.042414
-0.0465135
-0.0283501
0.00164036
-0.187649
-0.194891
-0.195558
-0.196563
-0.197489
-0.195069
-0.184675
-0.164455
-0.135331
-0.102931
-0.0693528
-0.0389636
-0.0145955
0.00385307
0.0215264
0.0325557
0.0219367
0.00681136
-0.0498178
-0.119015
-0.106591
-0.0730995
-0.0475337
-0.0298076
-0.0259799
-0.0294754
-0.0394751
-0.0428194
-0.0255616
0.00023255
-0.172384
-0.17984
-0.180469
-0.180545
-0.180233
-0.17696
-0.166965
-0.148741
-0.122796
-0.0936359
-0.0629477
-0.0345527
-0.0109285
0.00771353
0.0267698
0.0423211
0.0345711
0.0195352
-0.0350285
-0.104379
-0.094068
-0.0638601
-0.0407032
-0.0238645
-0.0211199
-0.0267943
-0.0357818
-0.0383228
-0.0221278
-0.00116285
-0.157455
-0.16494
-0.165675
-0.165173
-0.163995
-0.160188
-0.150693
-0.13426
-0.111123
-0.0848622
-0.0568253
-0.0303263
-0.00739322
0.0115246
0.0318592
0.0518484
0.0469042
0.0317222
-0.0206023
-0.0875031
-0.0800869
-0.0540833
-0.0335312
-0.0176227
-0.0157262
-0.0233571
-0.0312163
-0.0329378
-0.0180229
-0.00250372
-0.143014
-0.150375
-0.151285
-0.150476
-0.148743
-0.14465
-0.135726
-0.120913
-0.100266
-0.0766066
-0.0510026
-0.0262981
-0.00407049
0.0151439
0.0365349
0.0603787
0.0576432
0.0421284
-0.00714592
-0.0688282
-0.0650671
-0.0439904
-0.0261215
-0.0111583
-0.00977481
-0.0190738
-0.0256789
-0.0266119
-0.0132721
-0.00373288
-0.12918
-0.136294
-0.137398
-0.136481
-0.134443
-0.130259
-0.121949
-0.108612
-0.0901795
-0.0688626
-0.0454999
-0.0224862
-0.00103718
0.0183914
0.0405137
0.0667769
0.0658043
0.0499692
0.00509798
-0.0492131
-0.0496028
-0.0338328
-0.0185878
-0.00456342
-0.00326398
-0.0138772
-0.0190858
-0.019344
-0.00797035
-0.00477966
-0.116034
-0.122812
-0.124102
-0.123214
-0.121065
-0.11694
-0.109266
-0.0972778
-0.0808245
-0.0616223
-0.0403345
-0.0189204
0.00164591
0.0210825
0.043487
0.0700881
0.0711047
0.0552618
0.0159298
-0.0300246
-0.0344539
-0.0238737
-0.0110489
0.00205923
0.00377395
-0.00774443
-0.0114521
-0.0112067
-0.00229401
-0.00556394
-0.103638
-0.110019
-0.111471
-0.1107
-0.108583
-0.104628
-0.0975974
-0.0868433
-0.0721642
-0.0548786
-0.035517
-0.0156402
0.00393687
0.0230765
0.0451618
0.0702265
0.0736295
0.058389
0.0249453
-0.012778
-0.0203781
-0.0143508
-0.0036265
0.00859949
0.0112605
-0.000717767
-0.00293132
-0.00236858
0.00350007
-0.00600316
-0.0920326
-0.0979796
-0.0995596
-0.0989579
-0.0969711
-0.0932664
-0.0868737
-0.0772496
-0.0641662
-0.0486252
-0.0310531
-0.0126803
0.00580873
0.0243072
0.0454106
0.0678898
0.0734961
0.0596299
0.0317745
0.00156724
-0.0078907
-0.00544522
0.00355243
0.0149377
0.0190486
0.00706478
0.00623669
0.00690102
0.00909042
-0.00602275
-0.0812409
-0.0867358
-0.0884107
-0.0880027
-0.0862094
-0.0828074
-0.0770369
-0.0684469
-0.0568016
-0.042855
-0.0269461
-0.0100573
0.00725535
0.0247964
0.0443737
0.0640061
0.0710437
0.0592633
0.0364591
0.0127882
0.0027742
0.00271748
0.0103535
0.020936
0.0268984
0.015338
0.0156211
0.0162249
0.0141398
-0.00556925
-0.0712721
-0.0763145
-0.0780521
-0.0778436
-0.0762794
-0.0732091
-0.0680377
-0.0603925
-0.050045
-0.0375589
-0.0231968
-0.00776863
0.00829668
0.0246457
0.0423933
0.059355
0.0669533
0.0577111
0.0394044
0.0211916
0.011603
0.0100542
0.0166436
0.0264389
0.0344546
0.0237098
0.024648
0.0250906
0.0183943
-0.00462199
-0.0621277
-0.066727
-0.0684986
-0.0684832
-0.0671643
-0.0644366
-0.0598343
-0.0530504
-0.0438746
-0.0327255
-0.0198023
-0.0057949
0.00897686
0.0240034
0.0398489
0.0544692
0.062
0.0554002
0.0410528
0.0272931
0.0187402
0.0165187
0.0223133
0.0313181
0.0412204
0.0317378
0.0326913
0.0329036
0.0217592
-0.00319669
-0.0537999
-0.0579765
-0.0597582
-0.059922
-0.0588494
-0.0564608
-0.0523923
-0.0463905
-0.0382707
-0.0283417
-0.0167537
-0.00410654
0.00935846
0.0230231
0.0370583
0.0496885
0.0568195
0.0526687
0.0417544
0.0316188
0.0243895
0.0220951
0.0272856
0.0355209
0.0466732
0.0387771
0.0391723
0.0390815
0.0243197
-0.00134257
-0.0462782
-0.0500599
-0.0518331
-0.0521575
-0.051322
-0.0492582
-0.0456836
-0.0403878
-0.0332162
-0.024394
-0.0140372
-0.00267004
0.00951353
0.0218464
0.0342455
0.0452186
0.0518399
0.0497713
0.0417731
0.0339176
0.0287401
0.0267962
0.0315038
0.0390361
0.0504977
0.0443126
0.0436874
0.0432008
0.0262817
0.000839472
-0.0395508
-0.0429703
-0.0447214
-0.0451859
-0.0445713
-0.0428106
-0.0396864
-0.0350228
-0.0286965
-0.0208696
-0.0116361
-0.00145159
0.00951411
0.0205968
0.0315603
0.0411775
0.0473078
0.0469019
0.0413894
0.0357813
0.0320597
0.0306694
0.034947
0.04185
0.0526082
0.0481919
0.0462618
0.0452275
0.0278156
0.0031541
-0.0336071
-0.0367012
-0.038421
-0.0390049
-0.0385904
-0.0371057
-0.0343853
-0.0302813
-0.0247006
-0.017758
-0.00953402
-0.000420184
0.0094226
0.0193705
0.0291042
0.037628
0.0433406
0.044199
0.0407568
0.0370054
0.0345403
0.0337846
0.0376452
0.0439721
0.0532633
0.0505449
0.0474004
0.0455706
0.0289328
0.00531956
-0.02844
-0.0312485
-0.0329314
-0.0336153
-0.033377
-0.0321375
-0.0297719
-0.0261556
-0.0212222
-0.0150517
-0.0077174
0.000449181
0.00928759
0.0182357
0.0269411
0.0345946
0.0399775
0.0417597
0.0399948
0.0377414
0.0363411
0.0362229
0.0396805
0.0454451
0.0529723
0.0516584
0.0477179
0.0448662
0.0295597
0.00709559
-0.0240502
-0.0266128
-0.0282579
-0.0290234
-0.0289359
-0.0279082
-0.0258463
-0.0226453
-0.0182609
-0.0127487
-0.00617776
0.0011742
0.00914503
0.0172394
0.0251064
0.0320782
0.0372134
0.0396483
0.0392003
0.0381348
0.0376036
0.0380698
0.0411658
0.046355
0.0522305
0.0518513
0.0476369
0.0437062
0.0296801
0.00837634
-0.0204456
-0.0228064
-0.0244151
-0.0252448
-0.0252813
-0.0244299
-0.0226187
-0.019759
-0.0158246
-0.0108539
-0.00491334
0.00176482
0.00901794
0.016412
0.0236161
0.0300659
0.0350232
0.0379052
0.0384525
0.0383057
0.0384528
0.0394127
0.0422139
0.0468343
0.0513758
0.0514719
0.0473689
0.0424949
0.0294161
0.00919203
-0.0176502
-0.0198535
-0.0214307
-0.0223084
-0.0224413
-0.0217283
-0.0201122
-0.0175176
-0.0139312
-0.00938085
-0.00393055
0.00222273
0.00891794
0.015772
0.0224775
0.0285446
0.0333801
0.0365561
0.0378165
0.0383478
0.0389939
0.0403348
0.0429223
0.047028
0.0506062
0.0508571
0.0470214
0.041455
0.0289668
0.00964546
-0.0157074
-0.0178005
-0.019354
-0.0202636
-0.0204636
-0.0198479
-0.0183676
-0.0159574
-0.0126124
-0.00835453
-0.00324542
0.00254195
0.0088498
0.0153305
0.0216979
0.0275101
0.0322685
0.035624
0.0373472
0.0383307
0.0393084
0.0409079
0.0433609
0.0470676
0.0500332
0.0502783
0.0466895
0.0406983
0.0285271
0.00985946
-0.0146739
-0.0167129
-0.0182547
-0.0191827
-0.0194186
-0.0188555
-0.0174469
-0.0151346
-0.0119163
-0.00781336
-0.0028839
0.00270999
0.00881447
0.0150988
0.0212912
0.0269731
0.0316945
0.0351366
0.0370934
0.0383057
0.0394559
0.0411847
0.0435738
0.0470514
0.0497228
0.0499279
0.0464826
0.0402916
0.0282517
0.00993813
-0.245172
-0.250022
-0.25448
-0.258561
-0.262288
-0.265703
-0.268877
-0.272009
-0.275243
-0.279718
-0.284524
-0.296839
-0.228412
-0.233644
-0.238606
-0.243347
-0.247932
-0.252499
-0.257134
-0.262283
-0.267619
-0.274841
-0.280123
-0.292342
-0.212397
-0.218
-0.223468
-0.228875
-0.234259
-0.23977
-0.245272
-0.251165
-0.256403
-0.262874
-0.266594
-0.2768
-0.197259
-0.203069
-0.208792
-0.214476
-0.220074
-0.225683
-0.231007
-0.236517
-0.241262
-0.247391
-0.252007
-0.26158
-0.182658
-0.188439
-0.194122
-0.199738
-0.205219
-0.210702
-0.215983
-0.221621
-0.226949
-0.233492
-0.239087
-0.247514
-0.16855
-0.174182
-0.179734
-0.185256
-0.19072
-0.196281
-0.201803
-0.207644
-0.21325
-0.219431
-0.225036
-0.232428
-0.15508
-0.160542
-0.165968
-0.171403
-0.17683
-0.182331
-0.187781
-0.193348
-0.198742
-0.204464
-0.210171
-0.217106
-0.142295
-0.147547
-0.152778
-0.158012
-0.163228
-0.168466
-0.173671
-0.17896
-0.184264
-0.189822
-0.19559
-0.202112
-0.130143
-0.135126
-0.140092
-0.145054
-0.150013
-0.155001
-0.160019
-0.16512
-0.170291
-0.175585
-0.181115
-0.187196
-0.118611
-0.123302
-0.127986
-0.132676
-0.137382
-0.14212
-0.146894
-0.151711
-0.156588
-0.16154
-0.166764
-0.172469
-0.107711
-0.112105
-0.116497
-0.120897
-0.125311
-0.129745
-0.134208
-0.138703
-0.14327
-0.147912
-0.152818
-0.158132
-0.0974302
-0.101518
-0.105604
-0.109695
-0.113797
-0.117916
-0.122066
-0.126249
-0.130501
-0.134812
-0.139351
-0.144242
-0.0877505
-0.0915315
-0.0953104
-0.0990925
-0.102885
-0.106693
-0.110527
-0.114385
-0.118298
-0.122256
-0.126413
-0.130878
-0.0786607
-0.0821424
-0.0856205
-0.0890993
-0.0925845
-0.0960792
-0.0995922
-0.103123
-0.106698
-0.11031
-0.114091
-0.118135
-0.0701477
-0.0733397
-0.0765257
-0.0797088
-0.0828936
-0.0860829
-0.0892843
-0.0924978
-0.0957449
-0.0990193
-0.102434
-0.106066
-0.0651104
-0.068017
-0.0709173
-0.073815
-0.0767124
-0.0796156
-0.0825241
-0.0854557
-0.0884046
-0.0914675
-0.0947079
-0.057443
-0.0600858
-0.0627189
-0.065345
-0.0679659
-0.0705864
-0.073206
-0.0758394
-0.0784814
-0.0812137
-0.0840878
-0.0503243
-0.0527205
-0.0551036
-0.0574757
-0.0598381
-0.0621946
-0.0645447
-0.0669002
-0.0692566
-0.0716819
-0.0742173
-0.0437412
-0.0459094
-0.0480613
-0.0501986
-0.0523222
-0.0544349
-0.0565363
-0.0586358
-0.0607292
-0.0628728
-0.065099
-0.0376837
-0.0396427
-0.0415827
-0.0435049
-0.0454099
-0.0472998
-0.0491741
-0.0510402
-0.0528945
-0.054783
-0.0567304
-0.0321413
-0.0339103
-0.0356581
-0.0373853
-0.0390923
-0.0407806
-0.0424498
-0.0441056
-0.0457447
-0.0474044
-0.0491028
-0.0271062
-0.0287043
-0.0302792
-0.0318314
-0.033361
-0.034869
-0.0363549
-0.0378231
-0.0392707
-0.0407275
-0.0422062
-0.0225722
-0.0240183
-0.0254398
-0.0268368
-0.0282092
-0.0295577
-0.0308818
-0.0321847
-0.0334641
-0.0347431
-0.0360303
-0.0185368
-0.0198496
-0.0211366
-0.0223978
-0.0236329
-0.0248424
-0.0260256
-0.0271851
-0.0283187
-0.0294442
-0.0305666
-0.0150013
-0.0161991
-0.0173703
-0.0185146
-0.0196318
-0.0207221
-0.021785
-0.022822
-0.0238315
-0.0248267
-0.0258098
-0.011974
-0.0130748
-0.0141485
-0.0151947
-0.0162131
-0.0172037
-0.0181661
-0.0191012
-0.0200076
-0.0208948
-0.0217629
-0.00946593
-0.0104877
-0.0114821
-0.0124488
-0.0133874
-0.0142977
-0.0151792
-0.0160326
-0.0168567
-0.0176578
-0.0184345
-0.00750712
-0.00846763
-0.00940082
-0.0103063
-0.0111836
-0.0120324
-0.0128524
-0.0136438
-0.0144055
-0.0151419
-0.0158499
-0.00612358
-0.00704258
-0.00793457
-0.00879907
-0.00963562
-0.0104439
-0.0112233
-0.0119741
-0.012695
-0.0133889
-0.0140517
-0.00536978
-0.006264
-0.0071321
-0.00797363
-0.00878813
-0.00957526
-0.0103345
-0.0110659
-0.0117683
-0.0124438
-0.0130875
-0.0606727
-0.0344422
0.00908138
)
;

boundaryField
{
    inlet
    {
        type            zeroGradient;
    }
    outlet
    {
        type            fixedValue;
        value           uniform 0;
    }
    cylinder
    {
        type            zeroGradient;
    }
    top
    {
        type            symmetryPlane;
    }
    bottom
    {
        type            symmetryPlane;
    }
    defaultFaces
    {
        type            empty;
    }
    procBoundary3to1
    {
        type            processor;
        value           nonuniform List<scalar> 
41
(
-0.396298
-0.399847
-0.401255
-0.402459
-0.403709
-0.405036
-0.406381
-0.407605
-0.4085
-0.409103
-0.410851
-0.408839
-0.416427
-0.434543
-0.468018
-0.487524
-0.456151
-0.369982
-0.272807
-0.20679
-0.169836
-0.162391
-0.187069
-0.20091
-0.175467
-0.135583
-0.0996446
-0.0827009
-0.075373
-0.0725196
-0.0751112
-0.0827578
-0.0781909
-0.0725901
-0.0542566
-0.0336696
-0.0536021
-0.0605042
-0.0343842
0.00840147
-0.0536021
)
;
    }
    procBoundary3to2
    {
        type            processor;
        value           nonuniform List<scalar> 
50
(
-0.36223
-0.36223
-0.364788
-0.364788
-0.371314
-0.371759
-0.371759
-0.37047
-0.37047
-0.367065
-0.354533
-0.354533
-0.341248
-0.341248
-0.319625
-0.319625
-0.291569
-0.266272
-0.266272
-0.239914
-0.222875
-0.206614
-0.191342
-0.176785
-0.162841
-0.149574
-0.137019
-0.12514
-0.113905
-0.103309
-0.093335
-0.0839616
-0.0751708
-0.0669457
-0.0621949
-0.0621949
-0.0547883
-0.0479134
-0.0415557
-0.0357051
-0.0303507
-0.0254848
-0.0211015
-0.0171984
-0.0137772
-0.0108464
-0.00841727
-0.0065198
-0.00517812
-0.00444992
)
;
    }
}


// ************************************************************************* //
